/*--------------------------------*- C++ -*----------------------------------*\
  =========                 |
  \\      /  F ield         | OpenFOAM: The Open Source CFD Toolbox
   \\    /   O peration     | Website:  https://openfoam.org
    \\  /    A nd           | Version:  7
     \\/     M anipulation  |
\*---------------------------------------------------------------------------*/
FoamFile
{
    version     2.0;
    format      ascii;
    class       volVectorField;
    location    "20";
    object      U;
}
// * * * * * * * * * * * * * * * * * * * * * * * * * * * * * * * * * * * * * //

dimensions      [0 1 -1 0 0 0 0];

internalField   nonuniform List<vector> 
2413
(
(2 -2.05526e-16 0)
(2 -2.909e-16 0)
(2 -1.21416e-15 0)
(2 -2.09503e-15 0)
(2 -2.08925e-15 0)
(2 -1.83425e-15 0)
(2 -1.88878e-15 0)
(2 -1.6712e-15 0)
(2 -1.60006e-15 0)
(2 -1.96216e-15 0)
(2 -1.84006e-15 0)
(2 -2.18312e-15 0)
(2 -2.42609e-15 0)
(2 -1.8464e-15 0)
(2 -8.28178e-16 0)
(2 3.21416e-16 0)
(2 1.56257e-15 0)
(2 2.0046e-15 0)
(2 2.31284e-15 0)
(2 2.559e-15 0)
(2 3.3145e-15 0)
(2 3.98065e-15 0)
(2 6.36168e-15 0)
(2 7.29593e-15 0)
(2 6.28836e-15 0)
(2 6.09119e-15 0)
(2 5.64184e-15 0)
(2 5.85853e-15 0)
(2 5.69086e-15 0)
(2 6.31516e-15 0)
(2 7.26988e-15 0)
(2 6.91996e-15 0)
(2 6.17482e-15 0)
(2 4.35753e-15 0)
(2 3.33108e-15 0)
(2 3.047e-15 0)
(2 2.78583e-15 0)
(2 1.18561e-15 0)
(2 2.64784e-16 0)
(2 -3.2981e-16 0)
(2 -4.09971e-16 0)
(2 -9.64835e-19 0)
(2 3.28826e-16 0)
(2 1.99458e-16 0)
(2 7.80088e-16 0)
(2 5.62446e-16 0)
(2 1.20394e-15 0)
(2 1.67931e-15 0)
(2 1.4697e-15 0)
(2 5.09793e-16 0)
(2 -4.31648e-16 0)
(2 -8.14401e-16 0)
(2 -7.73199e-16 0)
(2 -1.25317e-15 0)
(2 -2.52582e-15 0)
(2 -2.34928e-15 0)
(2 -1.70445e-15 0)
(2 -1.63224e-15 0)
(2 -1.5578e-15 0)
(2 -1.2886e-15 0)
(2 -1.26906e-15 0)
(2 -8.86604e-16 0)
(2 -2.23595e-15 0)
(2 -2.4181e-15 0)
(2 -2.33551e-15 0)
(2 -2.00562e-15 0)
(2 -1.14091e-15 0)
(2 3.60826e-16 0)
(2 2.51433e-15 0)
(2 3.90161e-15 0)
(2 4.28188e-15 0)
(2 4.48913e-15 0)
(2 5.82362e-15 0)
(2 6.57314e-15 0)
(2 5.64514e-15 0)
(2 5.13239e-15 0)
(2 3.77264e-15 0)
(2 2.61127e-15 0)
(2 1.61014e-15 0)
(2 1.66188e-15 0)
(2 1.14179e-15 0)
(2 7.45033e-18 0)
(2 -9.94849e-16 0)
(2 -1.42668e-15 0)
(2 -1.26288e-15 0)
(2 -6.74078e-16 0)
(2 -2.33097e-16 0)
(2 -3.47574e-16 0)
(2 -9.36088e-16 0)
(2 -1.07501e-15 0)
(2 -3.45993e-15 0)
(2 -4.63064e-15 0)
(2 -5.92724e-15 0)
(2 -5.57418e-15 0)
(2 -4.8638e-15 0)
(2 -3.24917e-15 0)
(2 -3.42778e-15 0)
(2 -3.82875e-15 0)
(2 -2.73448e-15 0)
(2 -3.24859e-15 0)
(2 -2.38429e-15 0)
(2 -8.44682e-16 0)
(2 8.97564e-16 0)
(2 2.5462e-15 0)
(2 2.81444e-15 0)
(2 3.17133e-15 0)
(2 3.6124e-15 0)
(2 3.63521e-15 0)
(2 4.18429e-15 0)
(2 4.12911e-15 0)
(2 4.161e-15 0)
(2 4.67244e-15 0)
(2 4.56967e-15 0)
(2 4.85887e-15 0)
(2 3.80065e-15 0)
(2 3.77581e-15 0)
(2 4.68157e-15 0)
(2 5.46807e-15 0)
(2 5.39959e-15 0)
(2 4.69644e-15 0)
(2 4.12894e-15 0)
(2 3.69993e-15 0)
(2 2.78181e-15 0)
(2 6.12572e-16 0)
(2 -8.99776e-16 0)
(2 -1.80928e-15 0)
(2 -1.57323e-15 0)
(2 -1.38427e-15 0)
(2 -1.03229e-15 0)
(2 -4.41553e-16 0)
(2 1.31707e-17 0)
(2 4.95485e-16 0)
(2 5.64122e-16 0)
(2 -1.52606e-15 0)
(2 -3.63861e-15 0)
(2 -4.86085e-15 0)
(2 -5.1346e-15 0)
(2 -2.1625e-15 0)
(2 -1.08891e-15 0)
(2 -8.28934e-17 0)
(2 5.2338e-17 0)
(2 -3.30367e-16 0)
(2 1.17031e-16 0)
(2 -2.49334e-16 0)
(2 -2.17026e-16 0)
(2 -8.52885e-17 0)
(2 -4.66734e-16 0)
(2 -7.61589e-16 0)
(2 -1.18062e-15 0)
(2 -1.69473e-15 0)
(2 -2.15292e-15 0)
(2 -1.90091e-15 0)
(2 -1.56602e-15 0)
(2 -1.55172e-15 0)
(2 -1.06464e-15 0)
(2 -4.35774e-16 0)
(2 -2.3422e-17 0)
(2 3.71054e-16 0)
(2 9.41981e-16 0)
(2 1.55735e-15 0)
(2 2.63984e-15 0)
(2 3.50237e-15 0)
(2 2.30537e-15 0)
(2 3.21662e-15 0)
(2 2.36615e-15 0)
(2 9.83571e-16 0)
(2 8.46889e-16 0)
(2 3.63578e-15 0)
(2 3.48624e-15 0)
(2 3.18948e-15 0)
(2 2.30175e-15 0)
(2 1.57209e-15 0)
(2 1.30977e-15 0)
(2 1.53084e-15 0)
(2 2.03367e-15 0)
(2 2.36357e-15 0)
(2 1.55958e-15 0)
(2 2.30056e-15 0)
(2 1.95807e-15 0)
(2 2.77362e-15 0)
(2 3.39102e-15 0)
(2 3.05635e-15 0)
(2 1.89581e-15 0)
(2 1.8779e-15 0)
(2 2.52739e-15 0)
(2 2.90545e-15 0)
(2 2.35545e-15 0)
(2 2.07803e-15 0)
(2 2.69236e-15 0)
(2 3.16544e-15 0)
(2 5.6855e-15 0)
(2 5.12286e-15 0)
(2 5.07917e-15 0)
(2 5.73814e-15 0)
(2 6.28685e-15 0)
(2 7.57666e-15 0)
(2 8.0014e-15 0)
(2 8.43917e-15 0)
(2 6.47022e-15 0)
(2 5.07019e-15 0)
(2 5.39209e-15 0)
(2 5.54322e-15 0)
(2 5.2017e-15 0)
(2 5.06127e-15 0)
(2 5.69541e-15 0)
(2 4.85503e-15 0)
(2 2.41727e-15 0)
(2 4.68648e-16 0)
(2 4.28984e-16 0)
(2 7.49459e-16 0)
(2 1.49874e-15 0)
(2 6.42061e-16 0)
(2 3.92254e-16 0)
(2 7.58784e-16 0)
(2 1.40482e-15 0)
(2 1.81487e-15 0)
(2 2.13454e-15 0)
(2 3.15504e-15 0)
(2 3.93284e-15 0)
(2 4.17688e-15 0)
(2 2.6889e-15 0)
(2 8.42496e-16 0)
(2 6.34612e-17 0)
(2 -8.27708e-16 0)
(2 -9.90351e-16 0)
(2 3.20576e-16 0)
(2 2.01383e-15 0)
(2 2.99485e-15 0)
(2 3.96167e-15 0)
(2 4.75886e-15 0)
(2 5.29885e-15 0)
(2 6.09973e-15 0)
(2 5.85959e-15 0)
(2 5.73014e-15 0)
(2 5.55145e-15 0)
(2 4.76611e-15 0)
(2 3.74802e-15 0)
(2 2.43571e-15 0)
(2 1.97748e-15 0)
(2 5.12445e-16 0)
(2 7.74836e-16 0)
(2 5.76269e-16 0)
(2 4.51841e-16 0)
(2 2.88036e-16 0)
(2 4.93062e-16 0)
(2 6.72894e-16 0)
(2 1.17535e-15 0)
(2 1.18264e-15 0)
(2 6.21352e-16 0)
(2 1.26626e-15 0)
(2 2.48035e-15 0)
(2 4.43857e-15 0)
(2 6.05852e-15 0)
(2 6.03937e-15 0)
(2 5.197e-15 0)
(2 2.46963e-15 0)
(2 2.29309e-15 0)
(2 2.20419e-15 0)
(2 2.08963e-15 0)
(2 1.9739e-15 0)
(2 1.75394e-15 0)
(2 1.2327e-15 0)
(2 4.3204e-16 0)
(2 -6.46952e-16 0)
(2 -7.66539e-16 0)
(2 -5.92011e-16 0)
(2 1.25107e-15 0)
(2 1.93268e-15 0)
(2 2.69674e-15 0)
(2 2.54125e-15 0)
(2 2.28863e-15 0)
(2 9.45237e-16 0)
(2 1.2088e-15 0)
(2 2.47106e-15 0)
(2 2.75785e-15 0)
(2 3.16041e-15 0)
(2 2.36113e-15 0)
(2 1.57763e-15 0)
(2 9.20067e-16 0)
(2 3.28359e-15 0)
(2 4.42502e-15 0)
(2 5.08046e-15 0)
(2 5.71739e-15 0)
(2 8.02204e-15 0)
(2 9.81293e-15 0)
(2 1.03517e-14 0)
(2 1.02571e-14 0)
(2 9.18777e-15 0)
(2 7.48587e-15 0)
(2 5.17812e-15 0)
(2 4.28406e-15 0)
(2 2.84108e-15 0)
(2 1.43749e-15 0)
(2 1.3543e-16 0)
(2 -1.7352e-16 0)
(2 -5.85325e-16 0)
(2 -6.13477e-16 0)
(2 -6.94205e-16 0)
(2 -1.04215e-15 0)
(2 -1.29801e-15 0)
(2 -1.0467e-15 0)
(2 -8.09597e-16 0)
(2 -5.91892e-16 0)
(2 -2.06717e-18 0)
(2 1.69308e-16 0)
(2 2.18989e-16 0)
(2 1.28544e-15 0)
(2 1.55125e-15 0)
(2 3.1631e-16 0)
(2 4.53335e-16 0)
(2 8.19193e-16 0)
(2 7.39039e-16 0)
(2 -1.21171e-16 0)
(2 -9.76852e-16 0)
(2 -9.92131e-16 0)
(2 -1.07082e-15 0)
(2 -6.17215e-16 0)
(2 7.32238e-16 0)
(2 2.48597e-15 0)
(2 3.27367e-15 0)
(2 4.21904e-15 0)
(2 4.94297e-15 0)
(2 5.78145e-15 0)
(2 5.55463e-15 0)
(2 4.52792e-15 0)
(2 3.20984e-15 0)
(2 2.18118e-15 0)
(2 1.27056e-15 0)
(2 -2.22522e-16 0)
(2 -1.42968e-15 0)
(2 -2.22199e-15 0)
(2 -2.44535e-15 0)
(2 -2.42242e-15 0)
(2 -2.52721e-15 0)
(2 -2.3598e-15 0)
(2 -1.482e-15 0)
(2 -1.17739e-16 0)
(2 -5.80915e-16 0)
(2 -2.1628e-16 0)
(2 -3.92675e-16 0)
(2 -7.34347e-17 0)
(2 1.96133e-15 0)
(2 2.51493e-15 0)
(2 2.31764e-15 0)
(2 2.15902e-15 0)
(2 1.19684e-15 0)
(2 9.52829e-16 0)
(2 1.04442e-15 0)
(2 1.06844e-15 0)
(2 9.33229e-16 0)
(2 2.37238e-17 0)
(2 -2.49098e-16 0)
(2 -2.19059e-16 0)
(2 3.56029e-16 0)
(2 9.52836e-16 0)
(2 1.58055e-15 0)
(2 2.27676e-15 0)
(2 2.86696e-15 0)
(2 3.65523e-15 0)
(2 3.32053e-15 0)
(2 3.49554e-15 0)
(2 4.1487e-15 0)
(2 4.31835e-15 0)
(2 4.30247e-15 0)
(2 3.61151e-15 0)
(2 2.29283e-15 0)
(2 4.59158e-16 0)
(2 1.8739e-15 0)
(2 2.03558e-15 0)
(2 3.16936e-15 0)
(2 4.04084e-15 0)
(2 5.20373e-15 0)
(2 5.23796e-15 0)
(2 5.13521e-15 0)
(2 5.40436e-15 0)
(2 4.26782e-15 0)
(2 3.12989e-15 0)
(2 2.7994e-15 0)
(2 1.33333e-15 0)
(2 5.95612e-16 0)
(2 2.29081e-16 0)
(2 -2.75401e-16 0)
(2 -2.0752e-16 0)
(2 -4.42197e-16 0)
(2 -3.65414e-16 0)
(2 -8.43289e-16 0)
(2 -1.06783e-15 0)
(2 -8.8685e-16 0)
(2 -8.53652e-16 0)
(2 -2.61395e-16 0)
(2 -4.62969e-17 0)
(2 5.38141e-16 0)
(2 9.23017e-16 0)
(2 3.20503e-16 0)
(2 -1.02772e-15 0)
(2 -3.88823e-15 0)
(2 -2.78715e-15 0)
(2 -4.02263e-16 0)
(2 -1.51422e-16 0)
(2 -1.00822e-15 0)
(2 -1.85013e-15 0)
(2 -1.87302e-15 0)
(2 -1.00389e-15 0)
(2 1.03409e-15 0)
(2 1.64346e-15 0)
(2 1.99635e-15 0)
(2 2.67678e-15 0)
(2 2.87811e-15 0)
(2 3.40413e-15 0)
(2 3.83024e-15 0)
(2 4.65842e-15 0)
(2 5.17848e-15 0)
(2 5.51732e-15 0)
(2 5.51754e-15 0)
(2 4.93108e-15 0)
(2 3.73293e-15 0)
(2 2.62182e-15 0)
(2 1.16796e-15 0)
(2 -1.42634e-15 0)
(2 -1.90401e-15 0)
(2 -2.27741e-15 0)
(2 -1.64967e-15 0)
(2 -8.68692e-16 0)
(2 1.47593e-16 0)
(2 1.15331e-15 0)
(2 1.09833e-15 0)
(2 6.79064e-16 0)
(2 2.71282e-16 0)
(2 -1.11612e-15 0)
(2 -5.70621e-16 0)
(2 -2.47217e-16 0)
(2 -5.6976e-16 0)
(2 1.1563e-15 0)
(2 1.12879e-15 0)
(2 9.44356e-16 0)
(2 6.20181e-16 0)
(2 1.07917e-17 0)
(2 3.3691e-17 0)
(2 -4.50818e-16 0)
(2 2.1013e-15 0)
(2 2.63625e-15 0)
(2 2.49079e-15 0)
(2 2.41059e-15 0)
(2 2.75307e-15 0)
(2 3.22157e-15 0)
(2 3.48444e-15 0)
(2 4.49133e-15 0)
(2 5.33848e-15 0)
(2 5.43238e-15 0)
(2 5.32584e-15 0)
(2 4.97126e-15 0)
(2 5.28398e-15 0)
(2 5.18611e-15 0)
(2 3.44041e-15 0)
(2 3.80008e-15 0)
(2 2.67458e-15 0)
(2 9.49465e-16 0)
(2 5.3314e-16 0)
(2 1.288e-16 0)
(2 1.71236e-16 0)
(2 8.37308e-16 0)
(2 8.55621e-16 0)
(2 -1.1318e-15 0)
(2 -1.527e-15 0)
(2 -9.25564e-16 0)
(2 -7.90519e-16 0)
(2 -8.49103e-17 0)
(2 3.88324e-16 0)
(2 1.59221e-17 0)
(2 -7.24513e-16 0)
(2 1.44321e-15 0)
(2 1.62759e-15 0)
(2 1.70773e-15 0)
(2 4.21346e-16 0)
(2 2.78784e-16 0)
(2 3.83077e-16 0)
(2 2.04392e-16 0)
(2 -3.50123e-17 0)
(2 3.48707e-16 0)
(2 1.16772e-15 0)
(2 2.0784e-15 0)
(2 1.27773e-15 0)
(2 -2.10227e-16 0)
(2 -2.60999e-15 0)
(2 -3.12768e-15 0)
(2 -3.0452e-15 0)
(2 -2.08532e-15 0)
(2 -1.12888e-15 0)
(2 -4.23285e-16 0)
(2 -1.07135e-16 0)
(2 1.00741e-15 0)
(2 2.50684e-15 0)
(2 4.25484e-15 0)
(2 3.94784e-15 0)
(2 2.88025e-15 0)
(2 2.93067e-15 0)
(2 3.58935e-15 0)
(2 3.3591e-15 0)
(2 3.32587e-15 0)
(2 3.05896e-15 0)
(2 3.16665e-15 0)
(2 3.12658e-15 0)
(2 2.76578e-15 0)
(2 1.9021e-15 0)
(2 6.82158e-16 0)
(2 -4.16388e-16 0)
(2 -1.87299e-16 0)
(2 3.83153e-16 0)
(2 1.18958e-15 0)
(2 1.50344e-15 0)
(2 1.83218e-15 0)
(2 8.61942e-16 0)
(2 1.03032e-15 0)
(2 1.20826e-15 0)
(2 9.68622e-16 0)
(2 5.37779e-16 0)
(2 3.00664e-16 0)
(2 3.16694e-16 0)
(2 6.01159e-16 0)
(2 -4.04505e-15 0)
(2 -3.08474e-15 0)
(2 -2.18904e-15 0)
(2 -9.13002e-16 0)
(2 -1.95881e-16 0)
(2 -1.78678e-16 0)
(2 -4.67324e-16 0)
(2 -5.8071e-16 0)
(2 -7.26571e-16 0)
(2 -5.58971e-16 0)
(2 -3.57384e-16 0)
(2 -4.35401e-17 0)
(2 2.18792e-16 0)
(2 6.13631e-16 0)
(2 1.79044e-15 0)
(2 2.84109e-15 0)
(2 3.38377e-15 0)
(2 2.82554e-15 0)
(2 1.48224e-15 0)
(2 1.46278e-15 0)
(2 1.87652e-15 0)
(2 1.94496e-15 0)
(2 1.90111e-15 0)
(2 2.05725e-15 0)
(2 1.23599e-15 0)
(2 1.67837e-15 0)
(2 1.54981e-15 0)
(2 8.7245e-16 0)
(2 -7.51446e-16 0)
(2 -2.82861e-16 0)
(2 -2.20511e-16 0)
(2 -9.97579e-16 0)
(2 1.14371e-15 0)
(2 8.20141e-16 0)
(2 3.34481e-16 0)
(2 -8.95601e-18 0)
(2 1.43154e-16 0)
(2 4.75578e-16 0)
(2 9.84708e-16 0)
(2 5.28087e-16 0)
(2 -3.6628e-16 0)
(2 -1.323e-15 0)
(2 -8.89604e-16 0)
(2 -7.28547e-16 0)
(2 -8.08786e-16 0)
(2 -1.43192e-15 0)
(2 -1.71485e-15 0)
(2 -1.6167e-15 0)
(2 -1.16841e-15 0)
(2 -8.93515e-16 0)
(2 -1.38033e-15 0)
(2 -3.49833e-15 0)
(2 -4.66821e-15 0)
(2 -5.18903e-15 0)
(2 -5.37806e-15 0)
(2 -4.79044e-15 0)
(2 -3.76983e-15 0)
(2 -2.95312e-15 0)
(2 -3.09882e-15 0)
(2 -2.6282e-15 0)
(2 -2.2108e-15 0)
(2 -2.14093e-15 0)
(2 -2.4697e-15 0)
(2 -2.21331e-15 0)
(2 -2.68311e-15 0)
(2 -1.56932e-15 0)
(2 -1.64492e-15 0)
(2 -2.06418e-15 0)
(2 -2.09759e-15 0)
(2 -1.80225e-15 0)
(2 -1.92899e-15 0)
(2 -2.75369e-15 0)
(2 -3.61738e-15 0)
(2 -4.98528e-15 0)
(2 -5.10003e-15 0)
(2 -3.78692e-15 0)
(2 -3.08016e-15 0)
(2 -2.67584e-15 0)
(2 -3.02544e-15 0)
(2 -2.83665e-15 0)
(2 -2.78931e-15 0)
(2 -2.90043e-15 0)
(2 -2.81567e-15 0)
(2 -2.51211e-15 0)
(2 -1.96134e-15 0)
(2 -5.20502e-16 0)
(2 -2.64702e-16 0)
(2 2.9493e-16 0)
(2 -4.24149e-15 0)
(2 -3.97596e-15 0)
(2 -3.00344e-15 0)
(2 -1.88088e-15 0)
(2 -1.31386e-15 0)
(2 -5.78467e-16 0)
(2 -5.75031e-16 0)
(2 -1.39742e-16 0)
(2 -7.7662e-16 0)
(2 -1.12237e-16 0)
(2 4.23871e-16 0)
(2 1.35285e-15 0)
(2 2.53155e-15 0)
(2 3.35286e-15 0)
(2 3.86716e-15 0)
(2 3.82475e-15 0)
(2 3.6827e-15 0)
(2 3.84651e-15 0)
(2 3.13514e-15 0)
(2 2.44445e-15 0)
(2 2.1752e-15 0)
(2 2.53719e-15 0)
(2 3.57613e-15 0)
(2 2.08127e-15 0)
(2 1.48906e-15 0)
(2 1.64263e-15 0)
(2 1.78011e-15 0)
(2 2.42723e-15 0)
(2 2.26914e-15 0)
(2 2.5429e-15 0)
(2 1.61856e-15 0)
(2 1.83157e-15 0)
(2 2.13529e-15 0)
(2 1.91063e-15 0)
(2 2.29436e-15 0)
(2 3.45016e-15 0)
(2 3.28289e-15 0)
(2 3.67117e-15 0)
(2 3.12934e-15 0)
(2 1.32631e-15 0)
(2 4.24913e-16 0)
(2 -2.29108e-16 0)
(2 -3.90486e-16 0)
(2 -3.05833e-16 0)
(2 -4.05538e-16 0)
(2 -2.06471e-17 0)
(2 8.25843e-16 0)
(2 9.75911e-16 0)
(2 3.96328e-16 0)
(2 -1.30816e-15 0)
(2 -1.31961e-15 0)
(2 -1.79157e-15 0)
(2 -1.94166e-15 0)
(2 -2.22002e-15 0)
(2 -2.02413e-15 0)
(2 -1.71255e-15 0)
(2 -1.17877e-15 0)
(2 -6.1864e-16 0)
(2 -6.51895e-16 0)
(2 3.19481e-16 0)
(2 5.98977e-16 0)
(2 1.0022e-15 0)
(2 1.17519e-15 0)
(2 -4.85749e-16 0)
(2 -1.97372e-15 0)
(2 -3.98746e-15 0)
(2 -5.16731e-15 0)
(2 -6.41013e-15 0)
(2 -6.53496e-15 0)
(2 -6.75718e-15 0)
(2 -6.85454e-15 0)
(2 -6.43071e-15 0)
(2 -5.63918e-15 0)
(2 -4.06185e-15 0)
(2 -2.77547e-15 0)
(2 -2.40549e-15 0)
(2 -2.37802e-15 0)
(2 -2.67817e-15 0)
(2 -3.06193e-15 0)
(2 -3.60146e-15 0)
(2 -2.28418e-15 0)
(2 -2.85579e-15 0)
(2 -3.49727e-15 0)
(2 -3.80083e-15 0)
(2 -3.66113e-15 0)
(2 -2.13766e-15 0)
(2 -1.05291e-15 0)
(2 8.48099e-16 0)
(2 -2.51547e-15 0)
(2 -2.66807e-15 0)
(2 -2.70015e-15 0)
(2 -3.29121e-15 0)
(2 -3.4722e-15 0)
(2 -2.30381e-15 0)
(2 -2.12401e-15 0)
(2 -2.07818e-15 0)
(2 -2.40451e-15 0)
(2 -2.17895e-15 0)
(2 -1.7608e-15 0)
(2 -1.17427e-15 0)
(2 -2.55624e-16 0)
(2 1.50047e-15 0)
(2 2.18009e-15 0)
(2 2.92768e-15 0)
(2 1.72019e-15 0)
(2 1.72486e-15 0)
(2 2.48876e-15 0)
(2 4.1422e-15 0)
(2 4.88525e-15 0)
(2 4.55297e-15 0)
(2 3.47517e-15 0)
(2 2.42694e-15 0)
(2 2.88679e-15 0)
(2 2.1408e-15 0)
(2 1.6459e-15 0)
(2 1.94038e-15 0)
(2 2.64115e-15 0)
(2 2.70119e-15 0)
(2 3.55018e-15 0)
(2 4.06194e-15 0)
(2 4.46999e-15 0)
(2 5.5318e-15 0)
(2 4.91776e-15 0)
(2 4.64591e-15 0)
(2 4.07789e-15 0)
(2 2.85206e-15 0)
(2 1.20716e-15 0)
(2 -6.35596e-16 0)
(2 -7.73418e-16 0)
(2 -5.64535e-16 0)
(2 -5.2883e-16 0)
(2 -4.22976e-16 0)
(2 1.84123e-16 0)
(2 1.34333e-15 0)
(2 1.01119e-15 0)
(2 1.23587e-16 0)
(2 -1.90745e-15 0)
(2 -3.23279e-15 0)
(2 -3.17214e-15 0)
(2 -2.23626e-15 0)
(2 -1.37587e-15 0)
(2 -9.63678e-16 0)
(2 -1.29767e-16 0)
(2 5.58665e-16 0)
(2 8.08383e-16 0)
(2 7.84311e-16 0)
(2 7.69824e-16 0)
(2 4.40784e-16 0)
(2 6.9951e-16 0)
(2 1.76826e-15 0)
(2 2.22648e-15 0)
(2 1.45715e-15 0)
(2 -3.71317e-16 0)
(2 -1.83309e-15 0)
(2 -2.79298e-15 0)
(2 -3.96365e-15 0)
(2 -5.35153e-15 0)
(2 -6.59695e-15 0)
(2 -6.47223e-15 0)
(2 -6.41496e-15 0)
(2 -4.90751e-15 0)
(2 -2.62071e-15 0)
(2 -7.41276e-16 0)
(2 1.94444e-16 0)
(2 7.19063e-16 0)
(2 5.95334e-16 0)
(2 2.38362e-16 0)
(2 -8.48978e-16 0)
(2 -1.226e-15 0)
(2 -1.16302e-15 0)
(2 -1.42781e-15 0)
(2 -1.92622e-15 0)
(2 -2.66664e-15 0)
(2 -2.68187e-15 0)
(2 -2.18031e-15 0)
(2 -8.40975e-16 0)
(2 -1.22885e-15 0)
(2 -1.88936e-15 0)
(2 -3.59611e-15 0)
(2 -5.06922e-15 0)
(2 -5.09329e-15 0)
(2 -4.82528e-15 0)
(2 -3.25484e-15 0)
(2 -3.74742e-15 0)
(2 -3.72656e-15 0)
(2 -2.94558e-15 0)
(2 -2.70155e-15 0)
(2 -3.34986e-15 0)
(2 -2.93063e-15 0)
(2 -1.88914e-15 0)
(2 -1.30062e-15 0)
(2 -9.78232e-16 0)
(2 -5.25125e-16 0)
(2 -9.60197e-16 0)
(2 -9.85638e-16 0)
(2 -4.97708e-16 0)
(2 5.93302e-16 0)
(2 5.871e-16 0)
(2 5.89627e-16 0)
(2 8.09307e-16 0)
(2 2.43357e-15 0)
(2 5.33787e-15 0)
(2 5.02694e-15 0)
(2 3.11191e-15 0)
(2 2.04637e-15 0)
(2 1.89057e-15 0)
(2 1.32875e-15 0)
(2 1.67635e-15 0)
(2 2.74245e-15 0)
(2 3.59348e-15 0)
(2 2.97428e-15 0)
(2 2.61972e-15 0)
(2 2.05431e-15 0)
(2 1.69302e-15 0)
(2 9.89418e-16 0)
(2 3.94672e-16 0)
(2 -1.80984e-15 0)
(2 -1.80118e-15 0)
(2 -1.18303e-15 0)
(2 -1.69123e-15 0)
(2 -5.43472e-16 0)
(2 2.26256e-16 0)
(2 -1.00631e-15 0)
(2 -2.91214e-15 0)
(2 -4.00287e-15 0)
(2 -4.89861e-15 0)
(2 -4.4164e-15 0)
(2 -3.63633e-15 0)
(2 -2.97395e-15 0)
(2 -2.48167e-15 0)
(2 -2.35909e-15 0)
(2 -1.61569e-15 0)
(2 -1.27206e-15 0)
(2 -8.23047e-16 0)
(2 -4.24661e-16 0)
(2 -6.23506e-16 0)
(2 -9.65087e-16 0)
(2 -1.43129e-15 0)
(2 -1.28924e-15 0)
(2 -2.50482e-15 0)
(2 -3.82965e-15 0)
(2 -5.37169e-15 0)
(2 -5.382e-15 0)
(2 -5.20673e-15 0)
(2 -4.72243e-15 0)
(2 -3.98313e-15 0)
(2 -2.53665e-15 0)
(2 -2.01547e-15 0)
(2 3.08664e-16 0)
(2 1.6681e-15 0)
(2 1.76594e-15 0)
(2 1.5767e-15 0)
(2 1.46215e-15 0)
(2 1.14944e-15 0)
(2 7.71193e-16 0)
(2 -4.96109e-17 0)
(2 -5.98506e-16 0)
(2 -6.07717e-16 0)
(2 4.80192e-16 0)
(2 1.68079e-15 0)
(2 1.63256e-15 0)
(2 1.20693e-15 0)
(2 1.01194e-15 0)
(2 1.08846e-15 0)
(2 -8.79732e-16 0)
(2 -6.88873e-16 0)
(2 -1.13104e-15 0)
(2 -8.88239e-16 0)
(2 -7.16442e-16 0)
(2 -9.08881e-16 0)
(2 -2.21617e-16 0)
(2 1.7337e-15 0)
(2 2.69041e-15 0)
(2 3.12543e-15 0)
(2 3.40262e-15 0)
(2 3.65464e-15 0)
(2 2.54471e-15 0)
(2 1.2712e-15 0)
(2 6.02584e-16 0)
(2 -1.95719e-16 0)
(2 2.50398e-16 0)
(2 8.85247e-16 0)
(2 2.499e-15 0)
(2 2.62664e-15 0)
(2 2.52016e-15 0)
(2 2.94107e-15 0)
(2 3.98599e-15 0)
(2 4.59284e-15 0)
(2 3.96906e-15 0)
(2 4.6793e-15 0)
(2 5.03483e-15 0)
(2 5.23441e-15 0)
(2 4.51378e-15 0)
(2 3.32089e-15 0)
(2 1.50181e-15 0)
(2 1.59025e-15 0)
(2 2.28569e-15 0)
(2 2.93984e-15 0)
(2 3.05162e-15 0)
(2 3.10556e-15 0)
(2 1.92986e-15 0)
(2 1.71612e-15 0)
(2 2.31367e-15 0)
(2 1.90966e-15 0)
(2 1.49963e-15 0)
(2 -3.07703e-16 0)
(2 3.47634e-16 0)
(2 1.54174e-16 0)
(2 -1.28784e-16 0)
(2 -8.63691e-17 0)
(2 7.74968e-16 0)
(2 1.35824e-15 0)
(2 1.64205e-15 0)
(2 1.673e-15 0)
(2 1.85972e-15 0)
(2 2.29611e-15 0)
(2 2.18867e-15 0)
(2 1.89525e-15 0)
(2 1.19195e-15 0)
(2 9.04415e-16 0)
(2 1.50577e-15 0)
(2 2.66613e-15 0)
(2 3.62834e-15 0)
(2 3.40292e-15 0)
(2 2.32252e-15 0)
(2 1.25722e-15 0)
(2 7.48635e-16 0)
(2 9.11299e-16 0)
(2 9.76837e-16 0)
(2 2.66392e-16 0)
(2 6.36632e-18 0)
(2 4.38212e-16 0)
(2 9.06702e-16 0)
(2 2.10626e-15 0)
(2 3.68906e-15 0)
(2 6.28814e-15 0)
(2 7.14266e-15 0)
(2 6.98685e-15 0)
(2 7.25739e-15 0)
(2 7.26745e-15 0)
(2 6.28804e-15 0)
(2 5.69927e-15 0)
(2 4.84362e-15 0)
(2 5.09129e-15 0)
(2 4.96851e-15 0)
(2 5.12773e-15 0)
(2 5.246e-15 0)
(2 5.97223e-15 0)
(2 6.33735e-15 0)
(2 5.45671e-15 0)
(2 4.49542e-15 0)
(2 4.55473e-15 0)
(2 -1.35695e-15 0)
(2 -8.54364e-16 0)
(2 6.23976e-16 0)
(2 1.77399e-15 0)
(2 1.86219e-15 0)
(2 2.05807e-15 0)
(2 2.39485e-15 0)
(2 3.27801e-15 0)
(2 3.47346e-15 0)
(2 2.85455e-15 0)
(2 2.12443e-15 0)
(2 2.76019e-15 0)
(2 2.23218e-15 0)
(2 1.03707e-15 0)
(2 -2.89199e-16 0)
(2 -9.37015e-16 0)
(2 -8.80003e-16 0)
(2 -2.77868e-16 0)
(2 5.74789e-16 0)
(2 1.36498e-15 0)
(2 1.94387e-15 0)
(2 1.32503e-15 0)
(2 1.82288e-15 0)
(2 3.59991e-15 0)
(2 3.51488e-15 0)
(2 2.15681e-15 0)
(2 2.6044e-15 0)
(2 3.72085e-15 0)
(2 3.88969e-15 0)
(2 3.56469e-15 0)
(2 3.75256e-15 0)
(2 2.57743e-15 0)
(2 1.09242e-15 0)
(2 1.32386e-15 0)
(2 1.41186e-15 0)
(2 9.74784e-16 0)
(2 6.75972e-16 0)
(2 -3.27589e-16 0)
(2 -4.47396e-16 0)
(2 -2.84579e-16 0)
(2 -6.17414e-16 0)
(2 -9.58644e-16 0)
(2 -4.31003e-16 0)
(2 1.17706e-16 0)
(2 -9.94132e-16 0)
(2 -1.40348e-15 0)
(2 -8.02116e-16 0)
(2 -1.09518e-16 0)
(2 7.64864e-16 0)
(2 1.64269e-15 0)
(2 1.4155e-15 0)
(2 6.35447e-16 0)
(2 3.20017e-16 0)
(2 2.70037e-16 0)
(2 2.30333e-16 0)
(2 3.73081e-16 0)
(2 1.12795e-15 0)
(2 1.35131e-15 0)
(2 2.17722e-15 0)
(2 2.17302e-15 0)
(2 1.80726e-15 0)
(2 1.35991e-16 0)
(2 -4.1497e-16 0)
(2 1.54038e-15 0)
(2 2.04932e-15 0)
(2 2.51288e-15 0)
(2 2.69616e-15 0)
(2 2.95046e-15 0)
(2 3.40753e-15 0)
(2 3.68167e-15 0)
(2 5.13033e-15 0)
(2 6.29872e-15 0)
(2 6.9035e-15 0)
(2 7.18801e-15 0)
(2 7.26927e-15 0)
(2 7.23108e-15 0)
(2 6.62737e-15 0)
(2 5.11648e-15 0)
(2 4.6507e-15 0)
(2 5.94275e-15 0)
(2 6.87707e-15 0)
(2 6.68923e-15 0)
(2 6.43624e-15 0)
(2 5.56455e-15 0)
(2 5.49341e-15 0)
(2 5.02524e-15 0)
(2 3.6938e-15 0)
(2 4.06405e-15 0)
(2 5.96769e-16 0)
(2 7.75423e-16 0)
(2 1.35139e-15 0)
(2 1.95966e-15 0)
(2 1.82222e-15 0)
(2 1.781e-15 0)
(2 1.82337e-15 0)
(2 1.68932e-15 0)
(2 1.67993e-15 0)
(2 1.68719e-15 0)
(2 1.1211e-15 0)
(2 9.41274e-16 0)
(2 1.28726e-15 0)
(2 1.06374e-15 0)
(2 1.24135e-15 0)
(2 1.2335e-15 0)
(2 9.66621e-16 0)
(2 4.63549e-16 0)
(2 5.27909e-16 0)
(2 7.95845e-16 0)
(2 1.53591e-15 0)
(2 3.14298e-15 0)
(2 4.23897e-15 0)
(2 4.37546e-15 0)
(2 5.04882e-15 0)
(2 4.24368e-15 0)
(2 3.65374e-15 0)
(2 3.56535e-15 0)
(2 3.90694e-15 0)
(2 4.36006e-15 0)
(2 4.47078e-15 0)
(2 3.6492e-15 0)
(2 2.54386e-15 0)
(2 2.86344e-15 0)
(2 2.72356e-15 0)
(2 2.31149e-16 0)
(2 -2.35115e-16 0)
(2 -8.77683e-16 0)
(2 -1.35675e-15 0)
(2 -6.31613e-16 0)
(2 -1.00943e-15 0)
(2 -6.53251e-16 0)
(2 -2.35537e-15 0)
(2 -1.99798e-15 0)
(2 -1.38948e-15 0)
(2 -1.09645e-15 0)
(2 -5.90154e-16 0)
(2 -6.91536e-17 0)
(2 4.62538e-16 0)
(2 7.01052e-16 0)
(2 1.13036e-15 0)
(2 1.23117e-15 0)
(2 1.64336e-15 0)
(2 2.20485e-15 0)
(2 2.59455e-15 0)
(2 2.86694e-15 0)
(2 2.65502e-15 0)
(2 2.67333e-15 0)
(2 2.78786e-15 0)
(2 2.67341e-15 0)
(2 2.0536e-15 0)
(2 1.16604e-16 0)
(2 -1.2442e-15 0)
(2 -3.88537e-16 0)
(2 1.33668e-15 0)
(2 2.55995e-15 0)
(2 4.69398e-15 0)
(2 5.66193e-15 0)
(2 5.31827e-15 0)
(2 4.76168e-15 0)
(2 4.32172e-15 0)
(2 4.53935e-15 0)
(2 5.03419e-15 0)
(2 5.16957e-15 0)
(2 5.23013e-15 0)
(2 4.64467e-15 0)
(2 3.38232e-15 0)
(2 4.73853e-15 0)
(2 6.66087e-15 0)
(2 7.32511e-15 0)
(2 7.81983e-15 0)
(2 7.44871e-15 0)
(2 8.37193e-15 0)
(2 7.5538e-15 0)
(2 6.42921e-15 0)
(2 6.21625e-15 0)
(2 5.38913e-15 0)
(2 4.01411e-15 0)
(2 1.69995e-15 0)
(2 1.42732e-15 0)
(2 5.59706e-16 0)
(2 -4.95247e-16 0)
(2 -1.1871e-15 0)
(2 -1.97175e-15 0)
(2 -2.92827e-15 0)
(2 -3.78054e-15 0)
(2 -4.37239e-15 0)
(2 -3.55673e-15 0)
(2 -2.77492e-15 0)
(2 -2.2113e-15 0)
(2 -1.23189e-15 0)
(2 -6.94239e-16 0)
(2 1.61545e-16 0)
(2 3.23379e-16 0)
(2 2.06892e-16 0)
(2 -9.49654e-16 0)
(2 -8.93904e-16 0)
(2 -6.03577e-16 0)
(2 2.60392e-16 0)
(2 3.05798e-15 0)
(2 5.45353e-15 0)
(2 5.82769e-15 0)
(2 5.47193e-15 0)
(2 5.69215e-15 0)
(2 5.45539e-15 0)
(2 5.2954e-15 0)
(2 5.55621e-15 0)
(2 6.05124e-15 0)
(2 6.63809e-15 0)
(2 6.43195e-15 0)
(2 5.15263e-15 0)
(2 3.59801e-15 0)
(2 3.47081e-15 0)
(2 2.72427e-15 0)
(2 1.72962e-16 0)
(2 -8.23333e-16 0)
(2 -8.07695e-16 0)
(2 -9.05324e-17 0)
(2 6.31444e-16 0)
(2 5.47603e-16 0)
(2 -5.23249e-16 0)
(2 -9.64976e-16 0)
(2 -3.379e-16 0)
(2 -5.70909e-16 0)
(2 -1.02683e-15 0)
(2 -2.08598e-16 0)
(2 6.93696e-16 0)
(2 1.80874e-15 0)
(2 3.09002e-15 0)
(2 3.95489e-15 0)
(2 4.96903e-15 0)
(2 6.53337e-15 0)
(2 6.34261e-15 0)
(2 6.25159e-15 0)
(2 5.3627e-15 0)
(2 4.61356e-15 0)
(2 2.83575e-15 0)
(2 2.78694e-15 0)
(2 2.83116e-15 0)
(2 3.20344e-15 0)
(2 2.24352e-15 0)
(2 2.26185e-15 0)
(2 3.18899e-15 0)
(2 4.70175e-15 0)
(2 6.03165e-15 0)
(2 6.56316e-15 0)
(2 6.36041e-15 0)
(2 5.7125e-15 0)
(2 4.77505e-15 0)
(2 5.87356e-15 0)
(2 5.99495e-15 0)
(2 5.29552e-15 0)
(2 5.45809e-15 0)
(2 5.87117e-15 0)
(2 7.8517e-15 0)
(2 9.74861e-15 0)
(2 8.76512e-15 0)
(2 8.61618e-15 0)
(2 8.00521e-15 0)
(2 6.34199e-15 0)
(2 5.24972e-15 0)
(2 5.5031e-15 0)
(2 4.33852e-15 0)
(2 4.64138e-15 0)
(2 4.50005e-15 0)
(2 3.80335e-15 0)
(2 1.59753e-16 0)
(2 -1.07333e-15 0)
(2 -3.91636e-15 0)
(2 -6.54863e-15 0)
(2 -7.22906e-15 0)
(2 -7.26919e-15 0)
(2 -7.19132e-15 0)
(2 -6.36773e-15 0)
(2 -5.30585e-15 0)
(2 -4.93588e-15 0)
(2 -5.72053e-15 0)
(2 -5.57167e-15 0)
(2 -5.13067e-15 0)
(2 -3.85346e-15 0)
(2 -3.08942e-15 0)
(2 -2.71372e-15 0)
(2 -2.38269e-15 0)
(2 -1.91072e-15 0)
(2 -1.76179e-15 0)
(2 -1.39526e-15 0)
(2 -1.25205e-15 0)
(2 -7.03363e-16 0)
(2 8.60222e-16 0)
(2 2.04237e-15 0)
(2 2.65636e-15 0)
(2 2.82588e-15 0)
(2 2.32643e-15 0)
(2 2.18323e-15 0)
(2 2.62425e-15 0)
(2 4.55551e-15 0)
(2 4.74795e-15 0)
(2 4.69756e-15 0)
(2 4.44783e-15 0)
(2 2.94382e-15 0)
(2 1.78805e-15 0)
(2 1.22561e-15 0)
(2 1.86135e-15 0)
(2 2.59902e-15 0)
(2 3.26343e-15 0)
(2 3.24626e-15 0)
(2 1.693e-15 0)
(2 1.0309e-15 0)
(2 5.74983e-16 0)
(2 -2.22282e-16 0)
(2 -9.50792e-16 0)
(2 -1.11687e-15 0)
(2 -1.21307e-15 0)
(2 -2.63543e-16 0)
(2 4.92454e-16 0)
(2 1.43636e-15 0)
(2 2.46731e-15 0)
(2 2.84877e-15 0)
(2 3.35508e-15 0)
(2 4.2497e-15 0)
(2 3.68841e-15 0)
(2 3.39631e-15 0)
(2 3.53721e-15 0)
(2 3.11568e-15 0)
(2 2.10309e-15 0)
(2 8.53373e-16 0)
(2 -8.36342e-17 0)
(2 1.50397e-15 0)
(2 1.90375e-15 0)
(2 9.62165e-16 0)
(2 1.33559e-15 0)
(2 1.56928e-15 0)
(2 1.57388e-15 0)
(2 1.49256e-15 0)
(2 8.65981e-16 0)
(2 1.32531e-15 0)
(2 3.45016e-15 0)
(2 5.14429e-15 0)
(2 5.09385e-15 0)
(2 6.31492e-15 0)
(2 6.08696e-15 0)
(2 6.14538e-15 0)
(2 6.1546e-15 0)
(2 5.82701e-15 0)
(2 6.1065e-15 0)
(2 6.65404e-15 0)
(2 6.40776e-15 0)
(2 4.73192e-15 0)
(2 3.39862e-15 0)
(2 2.34936e-15 0)
(2 1.82128e-15 0)
(2 2.01715e-15 0)
(2 2.70789e-15 0)
(2 3.03185e-15 0)
(2 -1.14004e-15 0)
(2 -3.08711e-15 0)
(2 -4.10658e-15 0)
(2 -5.03217e-15 0)
(2 -5.3323e-15 0)
(2 -5.72635e-15 0)
(2 -5.75836e-15 0)
(2 -5.73431e-15 0)
(2 -5.28529e-15 0)
(2 -5.52579e-15 0)
(2 -5.73423e-15 0)
(2 -5.87405e-15 0)
(2 -5.41021e-15 0)
(2 -4.54425e-15 0)
(2 -4.61872e-15 0)
(2 -4.66365e-15 0)
(2 -3.31973e-15 0)
(2 -2.15252e-15 0)
(2 -9.34907e-16 0)
(2 -7.68772e-16 0)
(2 -7.49537e-16 0)
(2 -1.2384e-15 0)
(2 -1.67935e-15 0)
(2 -1.42042e-15 0)
(2 -1.03552e-15 0)
(2 -2.46543e-16 0)
(2 2.34806e-16 0)
(2 2.56542e-16 0)
(2 2.79432e-16 0)
(2 1.33895e-15 0)
(2 1.68236e-15 0)
(2 2.85327e-15 0)
(2 2.32152e-15 0)
(2 4.35809e-16 0)
(2 -3.48369e-16 0)
(2 7.98207e-17 0)
(2 2.17632e-15 0)
(2 3.67206e-15 0)
(2 4.50166e-15 0)
(2 5.22787e-15 0)
(2 4.53804e-15 0)
(2 4.0377e-15 0)
(2 1.45898e-15 0)
(2 5.77178e-16 0)
(2 2.42706e-16 0)
(2 1.86573e-16 0)
(2 1.04126e-16 0)
(2 -3.34569e-16 0)
(2 -9.65733e-16 0)
(2 -1.26129e-15 0)
(2 -1.13184e-15 0)
(2 -5.93449e-16 0)
(2 1.85488e-16 0)
(2 4.53511e-16 0)
(2 1.27824e-15 0)
(2 1.45809e-15 0)
(2 1.37791e-15 0)
(2 9.19709e-16 0)
(2 -1.38291e-17 0)
(2 -2.41015e-15 0)
(2 -4.77785e-15 0)
(2 -3.9829e-15 0)
(2 -2.01495e-15 0)
(2 1.10876e-15 0)
(2 2.23816e-15 0)
(2 1.5681e-16 0)
(2 -3.39302e-15 0)
(2 -3.93713e-15 0)
(2 -1.72749e-15 0)
(2 1.11791e-15 0)
(2 2.45585e-15 0)
(2 2.67121e-15 0)
(2 3.41234e-15 0)
(2 4.85677e-15 0)
(2 4.03891e-15 0)
(2 3.28632e-15 0)
(2 2.18207e-15 0)
(2 1.08013e-15 0)
(2 1.12366e-15 0)
(2 1.06408e-15 0)
(2 1.70554e-15 0)
(2 2.49936e-15 0)
(2 1.8803e-15 0)
(2 1.09678e-15 0)
(2 1.4959e-15 0)
(2 1.1832e-15 0)
(2 1.77083e-15 0)
(2 1.94998e-15 0)
(2 -5.27797e-15 0)
(2 -4.89924e-15 0)
(2 -2.87353e-15 0)
(2 -1.03163e-15 0)
(2 -9.64053e-16 0)
(2 -1.27901e-15 0)
(2 -1.83565e-15 0)
(2 -3.06931e-15 0)
(2 -5.27219e-15 0)
(2 -5.26234e-15 0)
(2 -3.41193e-15 0)
(2 -2.40623e-15 0)
(2 -2.96753e-15 0)
(2 -4.05811e-15 0)
(2 -5.13819e-15 0)
(2 -5.30108e-15 0)
(2 -4.61704e-15 0)
(2 -3.00317e-15 0)
(2 -2.04782e-15 0)
(2 -1.7305e-15 0)
(2 -1.66312e-15 0)
(2 -2.90113e-15 0)
(2 -4.19443e-15 0)
(2 -4.39935e-15 0)
(2 -3.86095e-15 0)
(2 -3.46023e-15 0)
(2 -1.50697e-15 0)
(2 -1.36733e-15 0)
(2 -2.08324e-15 0)
(2 -3.41023e-15 0)
(2 -2.84151e-15 0)
(2 -2.09214e-15 0)
(2 -1.78821e-15 0)
(2 -2.29518e-15 0)
(2 -1.31576e-15 0)
(2 -5.46197e-16 0)
(2 -8.52264e-17 0)
(2 2.05257e-16 0)
(2 4.83712e-16 0)
(2 1.3578e-15 0)
(2 2.0437e-15 0)
(2 1.91361e-15 0)
(2 1.93921e-15 0)
(2 3.77247e-16 0)
(2 7.94848e-16 0)
(2 -1.66867e-16 0)
(2 -5.70108e-16 0)
(2 -2.09936e-15 0)
(2 -3.76477e-15 0)
(2 -4.03217e-15 0)
(2 -3.80831e-15 0)
(2 -2.98585e-15 0)
(2 -2.05352e-15 0)
(2 -2.33069e-15 0)
(2 -1.41826e-15 0)
(2 -6.93809e-16 0)
(2 -9.48083e-16 0)
(2 -1.02598e-15 0)
(2 -1.5724e-15 0)
(2 -3.8794e-15 0)
(2 -6.51971e-15 0)
(2 -6.06951e-15 0)
(2 -3.4498e-15 0)
(2 -1.35359e-15 0)
(2 -1.57234e-15 0)
(2 -1.82786e-15 0)
(2 -3.15318e-15 0)
(2 -3.47851e-15 0)
(2 -2.8233e-15 0)
(2 -2.55865e-15 0)
(2 -2.79225e-15 0)
(2 -2.66392e-15 0)
(2 -2.38668e-15 0)
(2 -1.56689e-15 0)
(2 -7.33769e-16 0)
(2 -3.75246e-16 0)
(2 -2.0003e-16 0)
(2 -3.15731e-16 0)
(2 -8.29288e-16 0)
(2 -1.38561e-15 0)
(2 -1.74187e-15 0)
(2 -3.61583e-16 0)
(2 -5.09371e-16 0)
(2 -6.05626e-16 0)
(2 -1.9138e-17 0)
(2 -2.60823e-16 0)
(2 -1.51976e-16 0)
(2 5.49479e-16 0)
(2 -5.17637e-15 0)
(2 -5.62371e-15 0)
(2 -6.27544e-15 0)
(2 -5.98097e-15 0)
(2 -4.96495e-15 0)
(2 -3.89508e-15 0)
(2 -2.79306e-15 0)
(2 -2.8343e-15 0)
(2 -3.01546e-15 0)
(2 -2.35902e-15 0)
(2 -2.62479e-15 0)
(2 -3.82072e-15 0)
(2 -5.33162e-15 0)
(2 -6.43946e-15 0)
(2 -6.30544e-15 0)
(2 -4.8921e-15 0)
(2 -4.7635e-15 0)
(2 -4.51733e-15 0)
(2 -3.4634e-15 0)
(2 -2.22417e-15 0)
(2 -2.08916e-15 0)
(2 -3.21252e-15 0)
(2 -4.3753e-15 0)
(2 -4.70962e-15 0)
(2 -3.6078e-15 0)
(2 -3.16349e-15 0)
(2 -2.73934e-15 0)
(2 -2.58144e-15 0)
(2 -2.9754e-15 0)
(2 -4.67667e-15 0)
(2 -4.76647e-15 0)
(2 -5.45732e-15 0)
(2 -3.4138e-15 0)
(2 -8.43812e-16 0)
(2 -3.77592e-16 0)
(2 -5.72484e-16 0)
(2 6.39273e-17 0)
(2 6.40592e-16 0)
(2 -1.26732e-16 0)
(2 -1.1726e-15 0)
(2 -1.24723e-15 0)
(2 -5.91328e-16 0)
(2 2.91843e-16 0)
(2 3.25913e-16 0)
(2 -4.47319e-16 0)
(2 8.87629e-17 0)
(2 6.05372e-16 0)
(2 6.60224e-16 0)
(2 8.33311e-16 0)
(2 1.69585e-15 0)
(2 1.5332e-15 0)
(2 8.3026e-17 0)
(2 -1.24583e-15 0)
(2 -4.16437e-15 0)
(2 -4.86886e-15 0)
(2 -5.29608e-15 0)
(2 -5.22392e-15 0)
(2 -5.94564e-15 0)
(2 -6.79527e-15 0)
(2 -5.6166e-15 0)
(2 -4.55853e-15 0)
(2 -4.40846e-15 0)
(2 -4.00067e-15 0)
(2 -2.45277e-15 0)
(2 -1.44931e-15 0)
(2 -1.06359e-15 0)
(2 -8.65194e-17 0)
(2 3.31542e-16 0)
(2 -8.00997e-16 0)
(2 -2.38516e-15 0)
(2 -3.61684e-15 0)
(2 -4.21131e-15 0)
(2 -4.22159e-15 0)
(2 -4.18981e-15 0)
(2 -2.63705e-15 0)
(2 -5.35441e-16 0)
(2 3.70638e-16 0)
(2 5.90561e-16 0)
(2 3.03904e-16 0)
(2 -1.59423e-16 0)
(2 -1.00171e-15 0)
(2 -1.58134e-15 0)
(2 -1.83467e-15 0)
(2 -2.36264e-15 0)
(2 -2.50086e-15 0)
(2 -1.64635e-15 0)
(2 -1.6868e-15 0)
(2 -1.73184e-15 0)
(2 7.23576e-16 0)
(2 4.52699e-16 0)
(2 -7.97546e-16 0)
(2 -2.83073e-15 0)
(2 -3.63827e-15 0)
(2 -3.82155e-15 0)
(2 -3.30605e-15 0)
(2 -2.83758e-15 0)
(2 -1.68045e-15 0)
(2 -1.14521e-15 0)
(2 -2.95674e-15 0)
(2 -4.6887e-15 0)
(2 -5.96935e-15 0)
(2 -5.29336e-15 0)
(2 -4.47434e-15 0)
(2 -2.79434e-15 0)
(2 -2.52389e-15 0)
(2 -2.43891e-15 0)
(2 -1.91561e-15 0)
(2 -1.10547e-15 0)
(2 -2.46721e-16 0)
(2 7.93486e-16 0)
(2 1.43973e-15 0)
(2 1.05352e-15 0)
(2 1.38563e-16 0)