/*--------------------------------*- C++ -*----------------------------------*\
  =========                 |
  \\      /  F ield         | OpenFOAM: The Open Source CFD Toolbox
   \\    /   O peration     | Website:  https://openfoam.org
    \\  /    A nd           | Version:  7
     \\/     M anipulation  |
\*---------------------------------------------------------------------------*/
FoamFile
{
    version     2.0;
    format      ascii;
    class       volScalarField;
    location    "111";
    object      p;
}
// * * * * * * * * * * * * * * * * * * * * * * * * * * * * * * * * * * * * * //

dimensions      [0 2 -2 0 0 0 0];

internalField   nonuniform List<scalar> 
41600
(
-0.47595
-0.485164
-0.510533
-0.490911
-0.446873
-0.399502
-0.37618
-0.373702
-0.374238
-0.353545
-0.310679
-0.260417
-0.215994
-0.183831
-0.166204
-0.160179
-0.165308
-0.174448
-0.175672
-0.164549
-0.145055
-0.1293
-0.118569
-0.112883
-0.113669
-0.467464
-0.475253
-0.49663
-0.475794
-0.434897
-0.394292
-0.380553
-0.387709
-0.393572
-0.372076
-0.324705
-0.269153
-0.219961
-0.18346
-0.161942
-0.152087
-0.15333
-0.159053
-0.160164
-0.151656
-0.136864
-0.126071
-0.119098
-0.116753
-0.122023
-0.459042
-0.465321
-0.482616
-0.460306
-0.42228
-0.388375
-0.384286
-0.400995
-0.411572
-0.388837
-0.336858
-0.276225
-0.22264
-0.18232
-0.157202
-0.143929
-0.141586
-0.143852
-0.144241
-0.137919
-0.127861
-0.122011
-0.118792
-0.12003
-0.130118
-0.450722
-0.455418
-0.46857
-0.444549
-0.409121
-0.381806
-0.387314
-0.413299
-0.427942
-0.403548
-0.346991
-0.281618
-0.224079
-0.180497
-0.152148
-0.13587
-0.130287
-0.129208
-0.128379
-0.123864
-0.118387
-0.11724
-0.117577
-0.122375
-0.137208
-0.442533
-0.445592
-0.45457
-0.428628
-0.395529
-0.374647
-0.389542
-0.424399
-0.442411
-0.41598
-0.355001
-0.285346
-0.224353
-0.178072
-0.146928
-0.128047
-0.119645
-0.115523
-0.113158
-0.110105
-0.108831
-0.111904
-0.115396
-0.123417
-0.142498
-0.434508
-0.435887
-0.440694
-0.412649
-0.381618
-0.366966
-0.390931
-0.434048
-0.454735
-0.425952
-0.36083
-0.287455
-0.223562
-0.175118
-0.141672
-0.120574
-0.109825
-0.103156
-0.0991489
-0.0972572
-0.0995977
-0.106165
-0.112206
-0.122811
-0.145315
-0.426673
-0.426347
-0.427015
-0.396722
-0.367504
-0.358815
-0.391458
-0.442025
-0.464704
-0.433349
-0.364472
-0.288012
-0.221819
-0.171712
-0.136482
-0.113533
-0.100904
-0.0923286
-0.0867826
-0.0855955
-0.0910437
-0.100184
-0.107981
-0.120323
-0.145257
-0.419055
-0.417011
-0.413603
-0.38095
-0.353305
-0.350234
-0.391061
-0.44815
-0.472148
-0.438111
-0.365971
-0.28711
-0.219245
-0.16793
-0.131422
-0.10698
-0.0928648
-0.0830525
-0.0762787
-0.0758592
-0.0834401
-0.0941094
-0.102717
-0.115881
-0.142248
-0.411676
-0.407915
-0.400521
-0.365434
-0.339137
-0.34128
-0.389682
-0.452294
-0.476958
-0.440246
-0.365416
-0.284863
-0.215958
-0.163861
-0.126523
-0.100946
-0.085638
-0.0751472
-0.0675835
-0.0677878
-0.0768783
-0.0880433
-0.0964214
-0.10951
-0.136452
-0.404556
-0.39909
-0.387827
-0.350267
-0.325107
-0.332044
-0.387252
-0.454377
-0.479089
-0.43982
-0.362936
-0.281404
-0.212069
-0.159591
-0.121794
-0.0954348
-0.0791326
-0.068315
-0.0604501
-0.0611457
-0.0712616
-0.0819896
-0.0890737
-0.101196
-0.12808
-0.397712
-0.390564
-0.375567
-0.335533
-0.311239
-0.322671
-0.383735
-0.454374
-0.478568
-0.436962
-0.358698
-0.276881
-0.207683
-0.155207
-0.117236
-0.0904212
-0.0732595
-0.06224
-0.0544891
-0.0555458
-0.0663394
-0.0757612
-0.0805437
-0.090789
-0.117289
-0.391157
-0.38236
-0.363783
-0.321306
-0.297704
-0.313132
-0.379123
-0.452315
-0.475487
-0.431847
-0.352892
-0.271452
-0.202899
-0.150784
-0.112854
-0.0858537
-0.0679399
-0.056664
-0.0492104
-0.0504945
-0.0613148
-0.068888
-0.0705233
-0.0781047
-0.104298
-0.384903
-0.374494
-0.352507
-0.307653
-0.284575
-0.303486
-0.37344
-0.448277
-0.470004
-0.424697
-0.345726
-0.265275
-0.197811
-0.14638
-0.108668
-0.081667
-0.0631109
-0.0514126
-0.0441019
-0.0453896
-0.0554284
-0.0606349
-0.058567
-0.0632313
-0.0895835
-0.378958
-0.366982
-0.341761
-0.294626
-0.271913
-0.293793
-0.366739
-0.442387
-0.46233
-0.415762
-0.337417
-0.258505
-0.192512
-0.142036
-0.104701
-0.0778032
-0.0587283
-0.0463997
-0.0387692
-0.0395554
-0.0477338
-0.0501119
-0.0443092
-0.0468425
-0.0739587
-0.373329
-0.359832
-0.33156
-0.282264
-0.259776
-0.284109
-0.359115
-0.434818
-0.452718
-0.405314
-0.328186
-0.251288
-0.187085
-0.137783
-0.100975
-0.0742303
-0.0547618
-0.0416332
-0.0330926
-0.0324673
-0.0375252
-0.0366544
-0.0278566
-0.0302943
-0.0583928
-0.36802
-0.35305
-0.321913
-0.270581
-0.24823
-0.274492
-0.350696
-0.425779
-0.441452
-0.393633
-0.318249
-0.243762
-0.181608
-0.133648
-0.0975043
-0.0709449
-0.0511879
-0.0372004
-0.0272723
-0.0241161
-0.0248327
-0.0204448
-0.010255
-0.0152852
-0.0438412
-0.363033
-0.34664
-0.312821
-0.259614
-0.237301
-0.265003
-0.341647
-0.415508
-0.428828
-0.380997
-0.307809
-0.236051
-0.176144
-0.129652
-0.0942866
-0.0679604
-0.0479897
-0.0332147
-0.0217076
-0.0152185
-0.01089
-0.00147845
0.0063462
-0.003111
-0.030957
-0.358372
-0.3406
-0.30428
-0.249367
-0.227028
-0.25571
-0.332161
-0.404252
-0.415143
-0.367672
-0.297055
-0.228265
-0.170746
-0.125815
-0.0913151
-0.0652886
-0.0451628
-0.0297542
-0.016806
-0.00706445
0.0017559
0.0127643
0.0193044
0.00584437
-0.0200122
-0.354037
-0.334928
-0.296284
-0.239836
-0.217445
-0.246683
-0.32245
-0.392255
-0.400681
-0.35391
-0.286155
-0.220499
-0.165457
-0.122152
-0.0885811
-0.0629284
-0.0427164
-0.0268449
-0.0128024
-0.000701478
0.0111204
0.022573
0.0272907
0.0119941
-0.0110707
-0.350029
-0.329622
-0.288833
-0.231005
-0.208581
-0.238
-0.312735
-0.379739
-0.385708
-0.339934
-0.275258
-0.212832
-0.160312
-0.118672
-0.0860771
-0.0608664
-0.0406614
-0.0244881
-0.0097474
0.00360628
0.0167538
0.0276472
0.030863
0.0159593
-0.00412186
-0.346351
-0.324676
-0.281922
-0.222856
-0.20046
-0.229742
-0.303223
-0.366898
-0.370467
-0.325947
-0.264489
-0.205329
-0.155336
-0.115376
-0.0837946
-0.0590842
-0.0389954
-0.0226768
-0.00760823
0.00609142
0.0193244
0.0291625
0.03131
0.0181981
0.000922937
-0.343003
-0.320089
-0.275531
-0.215368
-0.193104
-0.222002
-0.294086
-0.353898
-0.355171
-0.312118
-0.25395
-0.19804
-0.150548
-0.112263
-0.0817221
-0.0575625
-0.0376989
-0.0213867
-0.00630312
0.00719403
0.019873
0.0285564
0.0299716
0.019054
0.00431062
-0.339992
-0.315856
-0.269617
-0.208586
-0.186538
-0.214882
-0.285437
-0.340876
-0.340007
-0.298591
-0.243724
-0.191004
-0.14596
-0.109331
-0.0798458
-0.0562812
-0.0367404
-0.0205705
-0.00570923
0.00731562
0.0191776
0.0267981
0.027734
0.0188836
0.00640716
-0.33732
-0.311977
-0.264202
-0.202495
-0.180778
-0.208494
-0.277316
-0.32795
-0.325135
-0.285481
-0.233872
-0.184247
-0.141576
-0.106572
-0.0781498
-0.055218
-0.0360819
-0.0201655
-0.00568764
0.0067481
0.0177167
0.0244327
0.0250977
0.0180346
0.00756476
-0.334995
-0.308453
-0.259283
-0.197122
-0.175838
-0.202945
-0.269693
-0.315228
-0.310688
-0.272874
-0.224438
-0.177785
-0.137399
-0.103978
-0.0766173
-0.0543487
-0.0356824
-0.020104
-0.00610782
0.00569909
0.0157926
0.0217693
0.0223297
0.0167718
0.00805378
-0.333025
-0.305287
-0.254865
-0.192497
-0.171725
-0.198313
-0.262493
-0.302801
-0.296772
-0.260835
-0.215449
-0.171627
-0.133425
-0.101539
-0.0752311
-0.0536481
-0.0354999
-0.0203203
-0.00685813
0.00432253
0.0136088
0.0189965
0.0195742
0.0152748
0.00807068
-0.331419
-0.302485
-0.250962
-0.188647
-0.168445
-0.194624
-0.25563
-0.290756
-0.28347
-0.249404
-0.20692
-0.165774
-0.129651
-0.0992451
-0.0739739
-0.0530912
-0.0354942
-0.020754
-0.00784644
0.00273492
0.011304
0.0162321
0.0169101
0.0136625
0.00775832
-0.330187
-0.300053
-0.247593
-0.185584
-0.166001
-0.191826
-0.24903
-0.279163
-0.270838
-0.238603
-0.198855
-0.160224
-0.126068
-0.097084
-0.072829
-0.0526538
-0.035628
-0.0213515
-0.00899789
0.00102455
0.00897114
0.0135478
0.014378
0.0120118
0.00722065
-0.32934
-0.297999
-0.244772
-0.183301
-0.164393
-0.189799
-0.242651
-0.26808
-0.258912
-0.228437
-0.191248
-0.154968
-0.122667
-0.095045
-0.0717802
-0.0523133
-0.0358675
-0.0220667
-0.0102523
-0.000742081
0.00667184
0.0109852
0.0119967
0.0103716
0.00653281
-0.328886
-0.296329
-0.242504
-0.181767
-0.163603
-0.188375
-0.236478
-0.25755
-0.247707
-0.2189
-0.184088
-0.149995
-0.119439
-0.0931166
-0.0708125
-0.0520489
-0.0361833
-0.02286
-0.0115618
-0.00251551
0.00444625
0.00856647
0.00977206
0.00877266
0.00574916
-0.328833
-0.295043
-0.240776
-0.180942
-0.163581
-0.187376
-0.230517
-0.247598
-0.23722
-0.209975
-0.177357
-0.145294
-0.116374
-0.0912879
-0.0699121
-0.0518419
-0.0365495
-0.023699
-0.0128886
-0.00425958
0.00231975
0.00630195
0.00770279
0.00723345
0.00490862
-0.329185
-0.294135
-0.23956
-0.180778
-0.164242
-0.186644
-0.224784
-0.238238
-0.227435
-0.201636
-0.171036
-0.140849
-0.11346
-0.0895486
-0.0690666
-0.0516757
-0.0369442
-0.0245567
-0.0142034
-0.00594847
0.000307625
0.00419408
0.00578364
0.00576447
0.00403889
-0.329941
-0.29359
-0.238814
-0.181226
-0.165464
-0.186057
-0.219295
-0.229465
-0.218327
-0.193854
-0.165102
-0.136645
-0.110687
-0.0878888
-0.0682645
-0.0515356
-0.037349
-0.0254115
-0.0154835
-0.00756431
-0.0015818
0.00224067
0.00400761
0.00437117
0.00315971
-0.331096
-0.293374
-0.238495
-0.182229
-0.16711
-0.185527
-0.214061
-0.221269
-0.20986
-0.186597
-0.159531
-0.132669
-0.108044
-0.0862993
-0.0674962
-0.0514092
-0.0377488
-0.0262461
-0.016712
-0.0090953
-0.00334491
0.000436647
0.00236674
0.00305629
0.00228675
-0.332638
-0.293447
-0.238558
-0.183716
-0.169043
-0.184998
-0.209088
-0.213626
-0.201998
-0.179829
-0.154299
-0.128903
-0.105522
-0.0847717
-0.0667529
-0.0512857
-0.0381315
-0.0270465
-0.0178766
-0.0105341
-0.00498107
-0.001225
0.000852127
0.00182088
0.00143398
-0.334547
-0.293751
-0.23897
-0.1856
-0.171137
-0.184431
-0.204376
-0.206508
-0.194698
-0.173516
-0.149382
-0.125333
-0.10311
-0.0832982
-0.0660269
-0.051156
-0.0384872
-0.0278023
-0.0189686
-0.0118765
-0.00649154
-0.00275258
-0.000545383
0.000663097
0.000610536
-0.336791
-0.294224
-0.239708
-0.187782
-0.173291
-0.183805
-0.199918
-0.199883
-0.187919
-0.167622
-0.144757
-0.121946
-0.1008
-0.0818717
-0.0653118
-0.0510127
-0.0388085
-0.0285051
-0.0199826
-0.0131206
-0.00787895
-0.00415456
-0.00183311
-0.000424322
-0.000188544
-0.33933
-0.294801
-0.240746
-0.190161
-0.175421
-0.183107
-0.195703
-0.193715
-0.18162
-0.162115
-0.140401
-0.118725
-0.0985823
-0.0804858
-0.064602
-0.0508498
-0.0390894
-0.0291492
-0.0209155
-0.0142654
-0.0091473
-0.00543804
-0.00301456
-0.00145377
-0.000981553
-0.342106
-0.295431
-0.242054
-0.192639
-0.177467
-0.182331
-0.191717
-0.187971
-0.175759
-0.156961
-0.136293
-0.115659
-0.0964493
-0.0791348
-0.0638928
-0.0506626
-0.0393258
-0.0297302
-0.0217659
-0.0153117
-0.0103019
-0.00660803
-0.00409112
-0.00243315
-0.00175989
-0.345052
-0.296077
-0.243582
-0.195137
-0.179378
-0.181473
-0.187945
-0.182612
-0.170297
-0.15213
-0.132411
-0.112735
-0.094393
-0.0778136
-0.06318
-0.0504473
-0.0395144
-0.0302458
-0.0225337
-0.0162608
-0.0113487
-0.00766867
-0.00506756
-0.00334539
-0.00245621
-0.348086
-0.296724
-0.245262
-0.19759
-0.18112
-0.180532
-0.184368
-0.177606
-0.165199
-0.147594
-0.128738
-0.109941
-0.0924062
-0.0765173
-0.0624602
-0.050201
-0.0396531
-0.0306946
-0.0232196
-0.0171153
-0.0122933
-0.00862541
-0.00595457
-0.004146
-0.0029898
-0.351116
-0.29738
-0.247013
-0.199951
-0.18267
-0.17951
-0.18097
-0.172919
-0.160429
-0.143325
-0.125254
-0.107265
-0.0904819
-0.0752416
-0.0617306
-0.0499216
-0.0397403
-0.031076
-0.0238249
-0.0178782
-0.0131407
-0.00948524
-0.00676058
-0.00483575
-0.00342805
-0.354026
-0.298097
-0.248741
-0.202183
-0.184009
-0.178407
-0.177732
-0.168519
-0.155956
-0.139298
-0.121942
-0.104697
-0.088614
-0.0739829
-0.0609886
-0.0496076
-0.0397756
-0.0313905
-0.0243513
-0.0185529
-0.013896
-0.0102547
-0.00748469
-0.00545451
-0.00387594
-0.356749
-0.298911
-0.250358
-0.204257
-0.185131
-0.177227
-0.174639
-0.164377
-0.151749
-0.13549
-0.118788
-0.102227
-0.0867965
-0.0727376
-0.0602324
-0.0492581
-0.0397587
-0.0316391
-0.024801
-0.0191432
-0.0145638
-0.0109388
-0.00813493
-0.00601086
-0.00430281
-0.359199
-0.299888
-0.251792
-0.206151
-0.186031
-0.17597
-0.171674
-0.160465
-0.147782
-0.13188
-0.115776
-0.0998453
-0.085024
-0.0715027
-0.0594604
-0.0488725
-0.03969
-0.0318231
-0.0251765
-0.0196526
-0.0151485
-0.0115434
-0.00871351
-0.0065122
-0.00471444
-0.361309
-0.301099
-0.252988
-0.207847
-0.186711
-0.174638
-0.168821
-0.156759
-0.14403
-0.128448
-0.112892
-0.0975443
-0.0832913
-0.0702755
-0.0586714
-0.0484506
-0.0395702
-0.0319441
-0.0254804
-0.0200849
-0.0156545
-0.0120727
-0.00922566
-0.0069617
-0.00509803
-0.36303
-0.302613
-0.253921
-0.209329
-0.187176
-0.173235
-0.166066
-0.153235
-0.140468
-0.125175
-0.110124
-0.0953154
-0.0815938
-0.0690534
-0.0578642
-0.0479924
-0.0394001
-0.0320039
-0.0257155
-0.0204436
-0.016086
-0.0125315
-0.009674
-0.00736174
-0.00545027
-0.364332
-0.304487
-0.254586
-0.210586
-0.187433
-0.171761
-0.163396
-0.149871
-0.137077
-0.122047
-0.107461
-0.0931512
-0.0799271
-0.0678342
-0.0570381
-0.0474982
-0.0391809
-0.0320046
-0.0258844
-0.0207322
-0.0164468
-0.0129233
-0.0100623
-0.00771379
-0.00576767
-0.365201
-0.30675
-0.254999
-0.211608
-0.187491
-0.170217
-0.160799
-0.146649
-0.133838
-0.119046
-0.104891
-0.0910449
-0.078287
-0.0666157
-0.0561923
-0.0469684
-0.0389138
-0.0319481
-0.0259899
-0.0209539
-0.0167406
-0.013252
-0.0103931
-0.0080195
-0.00604843
-0.365633
-0.309405
-0.255188
-0.212389
-0.18736
-0.168606
-0.158262
-0.143552
-0.130732
-0.116159
-0.102405
-0.0889898
-0.0766698
-0.0653961
-0.0553265
-0.0464035
-0.0386002
-0.0318365
-0.0260348
-0.021112
-0.016971
-0.0135206
-0.0106695
-0.00828008
-0.00629211
-0.365631
-0.312411
-0.255188
-0.212924
-0.187049
-0.166928
-0.155776
-0.140561
-0.127744
-0.113373
-0.0999927
-0.0869801
-0.075072
-0.0641737
-0.0544402
-0.0458042
-0.0382414
-0.0316719
-0.0260216
-0.0212094
-0.0171412
-0.0137322
-0.0108937
-0.00849699
-0.00649857
-0.365206
-0.315689
-0.255033
-0.213208
-0.186569
-0.165185
-0.15333
-0.137665
-0.12486
-0.110677
-0.0976467
-0.0850101
-0.0734902
-0.062947
-0.0535331
-0.045171
-0.0378389
-0.0314564
-0.0259528
-0.0212491
-0.0172541
-0.0138895
-0.0110682
-0.0086715
-0.00666827
-0.364371
-0.319123
-0.254756
-0.213239
-0.185928
-0.163378
-0.150915
-0.134848
-0.122066
-0.10806
-0.0953587
-0.0830747
-0.0719214
-0.0617145
-0.052605
-0.0445047
-0.0373941
-0.0311919
-0.025831
-0.0212337
-0.0173126
-0.0139951
-0.0111952
-0.00880498
-0.00680185
-0.363146
-0.322561
-0.254381
-0.213018
-0.185134
-0.161506
-0.148524
-0.132099
-0.119351
-0.105512
-0.0931216
-0.0811691
-0.0703628
-0.0604749
-0.0516558
-0.043806
-0.0369084
-0.0308804
-0.0256584
-0.0211659
-0.0173193
-0.0140513
-0.0112767
-0.00889877
-0.00690003
-0.361557
-0.32583
-0.253928
-0.212543
-0.184195
-0.159572
-0.146148
-0.129407
-0.116704
-0.103025
-0.0909286
-0.0792888
-0.0688118
-0.0592271
-0.0506853
-0.0430757
-0.0363832
-0.0305238
-0.0254373
-0.0210481
-0.0172768
-0.0140604
-0.0113146
-0.00895415
-0.00696369
-0.359643
-0.328751
-0.253406
-0.211819
-0.183117
-0.157575
-0.143782
-0.126763
-0.114114
-0.100589
-0.0887737
-0.0774298
-0.0672659
-0.0579698
-0.0496936
-0.0423145
-0.0358198
-0.0301239
-0.0251697
-0.0208826
-0.0171872
-0.0140244
-0.0113109
-0.00897243
-0.00699364
-0.357455
-0.331152
-0.25282
-0.210847
-0.181905
-0.155515
-0.141419
-0.124157
-0.111573
-0.0981971
-0.0866511
-0.0755882
-0.0657229
-0.0567023
-0.0486805
-0.0415231
-0.0352195
-0.0296825
-0.0248577
-0.0206715
-0.0170528
-0.0139454
-0.0112671
-0.00895483
-0.00699081
-0.355062
-0.332883
-0.252169
-0.209636
-0.180564
-0.153394
-0.139052
-0.121581
-0.109072
-0.0958432
-0.0845557
-0.0737606
-0.0641807
-0.0554235
-0.0476462
-0.0407022
-0.0345837
-0.0292011
-0.0245032
-0.020417
-0.0168755
-0.0138251
-0.0111849
-0.00890258
-0.00695605
-0.352545
-0.333836
-0.251448
-0.208191
-0.179099
-0.151211
-0.136678
-0.119029
-0.106605
-0.0935206
-0.0824827
-0.0719436
-0.0626374
-0.0541326
-0.0465906
-0.0398526
-0.0339134
-0.0286814
-0.024108
-0.0201209
-0.0166573
-0.0136653
-0.011066
-0.00881682
-0.00689027
-0.350003
-0.333945
-0.250649
-0.206523
-0.177513
-0.148967
-0.134291
-0.116493
-0.104165
-0.0912235
-0.0804276
-0.0701343
-0.0610911
-0.0528289
-0.0455138
-0.0389749
-0.0332099
-0.0281248
-0.0236738
-0.0197851
-0.0163999
-0.0134676
-0.0109117
-0.00869871
-0.00679434
-0.347542
-0.333197
-0.249765
-0.204642
-0.17581
-0.146661
-0.131887
-0.113967
-0.101745
-0.0889467
-0.0783865
-0.0683299
-0.0595403
-0.0515117
-0.0444159
-0.0380698
-0.0324743
-0.0275328
-0.0232023
-0.0194113
-0.0161051
-0.0132337
-0.0107235
-0.00854933
-0.00666917
-0.345272
-0.331626
-0.24879
-0.20256
-0.173993
-0.144295
-0.129462
-0.111447
-0.0993399
-0.0866855
-0.0763556
-0.0665279
-0.0579834
-0.0501803
-0.043297
-0.0371379
-0.0317076
-0.0269067
-0.0226949
-0.0190011
-0.0157743
-0.012965
-0.0105028
-0.00836974
-0.00651563
-0.343299
-0.329304
-0.247718
-0.200291
-0.172065
-0.141867
-0.127014
-0.108927
-0.0969446
-0.0844355
-0.0743316
-0.0647259
-0.0564191
-0.0488343
-0.0421571
-0.0361799
-0.0309109
-0.0262479
-0.0221531
-0.018556
-0.0154091
-0.012663
-0.0102508
-0.00816095
-0.00633459
-0.34172
-0.326332
-0.246545
-0.197847
-0.170029
-0.139379
-0.124538
-0.106402
-0.0945546
-0.0821927
-0.0723112
-0.0629218
-0.0548461
-0.0474731
-0.0409964
-0.0351963
-0.0300851
-0.0255575
-0.0215784
-0.0180776
-0.0150109
-0.0123289
-0.00996874
-0.00792397
-0.00612695
-0.340617
-0.322823
-0.245267
-0.195241
-0.167887
-0.13683
-0.122032
-0.10387
-0.0921656
-0.0799535
-0.0702917
-0.0611138
-0.0532632
-0.0460963
-0.039815
-0.0341879
-0.0292313
-0.0248368
-0.0209721
-0.0175672
-0.0145812
-0.0119642
-0.00965787
-0.00765975
-0.00589357
-0.340051
-0.318895
-0.243884
-0.192485
-0.165641
-0.134221
-0.119493
-0.101326
-0.089774
-0.0777146
-0.0682705
-0.0592999
-0.0516694
-0.0447035
-0.0386131
-0.0331551
-0.0283502
-0.0240868
-0.0203353
-0.0170262
-0.014121
-0.01157
-0.00931928
-0.00736923
-0.00563534
-0.340062
-0.314656
-0.242395
-0.189591
-0.163294
-0.131551
-0.11692
-0.0987665
-0.0873764
-0.075473
-0.0662453
-0.0574785
-0.0500638
-0.0432945
-0.0373909
-0.0320985
-0.0274427
-0.0233087
-0.0196694
-0.0164557
-0.0136318
-0.0111476
-0.00895408
-0.0070533
-0.00535315
-0.340669
-0.310201
-0.240799
-0.186569
-0.160848
-0.12882
-0.114309
-0.0961893
-0.0849695
-0.0732259
-0.0642138
-0.0556483
-0.0484455
-0.0418688
-0.0361485
-0.0310187
-0.0265098
-0.0225034
-0.0189755
-0.015857
-0.0131147
-0.0106981
-0.00856328
-0.00671283
-0.0050479
-0.34187
-0.30561
-0.239095
-0.183429
-0.158303
-0.126028
-0.11166
-0.0935914
-0.0825507
-0.070971
-0.0621741
-0.0538078
-0.0468137
-0.0404264
-0.0348861
-0.0299163
-0.0255521
-0.0216719
-0.0182546
-0.0152313
-0.0125707
-0.0102226
-0.00814787
-0.00634868
-0.00472046
-0.343648
-0.300942
-0.237283
-0.180179
-0.155662
-0.123175
-0.10897
-0.0909704
-0.0801174
-0.068706
-0.0601245
-0.0519559
-0.0451679
-0.038967
-0.033604
-0.0287917
-0.0245705
-0.0208153
-0.0175079
-0.0145795
-0.0120011
-0.00972214
-0.00770881
-0.00596167
-0.00437168
-0.34597
-0.296241
-0.235361
-0.176824
-0.152926
-0.120262
-0.106237
-0.0883241
-0.0776673
-0.0664289
-0.0580635
-0.0500915
-0.0435074
-0.0374905
-0.0323025
-0.0276457
-0.0235658
-0.0199344
-0.0167364
-0.0139029
-0.0114068
-0.00919782
-0.00724702
-0.0055526
-0.00400236
-0.34879
-0.291537
-0.233326
-0.17337
-0.150095
-0.117286
-0.103461
-0.0856506
-0.0751985
-0.0641379
-0.0559895
-0.0482138
-0.0418318
-0.035997
-0.0309816
-0.0264786
-0.0225387
-0.0190301
-0.015941
-0.0132023
-0.0107889
-0.0086506
-0.00676339
-0.00512229
-0.00361329
-0.352054
-0.286847
-0.231174
-0.169822
-0.147171
-0.114249
-0.100639
-0.0829481
-0.0727092
-0.0618315
-0.0539015
-0.0463218
-0.0401407
-0.0344862
-0.0296419
-0.025291
-0.02149
-0.0181033
-0.0151227
-0.0124789
-0.0101483
-0.00808144
-0.00625878
-0.00467159
-0.00320532
-0.3557
-0.282178
-0.228902
-0.166182
-0.144152
-0.11115
-0.0977719
-0.080215
-0.0701976
-0.0595081
-0.0517982
-0.0444149
-0.0384337
-0.0329583
-0.0282835
-0.0240835
-0.0204202
-0.0171549
-0.0142824
-0.0117334
-0.00948595
-0.00749124
-0.00573402
-0.00420134
-0.0027794
-0.35966
-0.277532
-0.226504
-0.162453
-0.14104
-0.107988
-0.0948572
-0.0774498
-0.0676626
-0.0571667
-0.0496787
-0.0424924
-0.0367106
-0.0314134
-0.0269068
-0.0228567
-0.0193303
-0.0161856
-0.0134211
-0.0109669
-0.00880282
-0.00688085
-0.00518984
-0.00371238
-0.00233658
-0.363864
-0.272901
-0.223974
-0.158635
-0.137834
-0.104763
-0.0918943
-0.0746513
-0.0651027
-0.054806
-0.0475422
-0.0405539
-0.0349712
-0.0298514
-0.0255122
-0.021611
-0.0182208
-0.0151964
-0.0125396
-0.0101803
-0.00809977
-0.00625109
-0.00462692
-0.00320545
-0.0018778
-0.368239
-0.268276
-0.221307
-0.154728
-0.134534
-0.101474
-0.0888825
-0.0718183
-0.0625171
-0.0524251
-0.0453881
-0.0385989
-0.0332154
-0.0282727
-0.0241001
-0.0203472
-0.0170926
-0.014188
-0.0116386
-0.00937435
-0.00737765
-0.00560275
-0.00404599
-0.00268108
-0.00140333
-0.372708
-0.263645
-0.218495
-0.150732
-0.131141
-0.0981203
-0.085821
-0.0689498
-0.0599049
-0.0500231
-0.0432157
-0.0366273
-0.0314433
-0.0266776
-0.0226706
-0.0190656
-0.0159463
-0.0131612
-0.0107191
-0.0085499
-0.00663728
-0.00493669
-0.00344798
-0.00213979
-0.000911939
-0.377199
-0.25899
-0.215531
-0.146646
-0.127652
-0.0947021
-0.0827095
-0.0660445
-0.0572655
-0.0475995
-0.0410244
-0.0346389
-0.029655
-0.0250665
-0.0212241
-0.0177669
-0.0147826
-0.0121167
-0.00978222
-0.00770786
-0.00587947
-0.00425378
-0.00283408
-0.00158248
-0.000400667
-0.381636
-0.254296
-0.212408
-0.142468
-0.124069
-0.0912183
-0.0795479
-0.0631018
-0.0545984
-0.0451546
-0.0388134
-0.0326337
-0.0278503
-0.0234391
-0.0197615
-0.0164514
-0.0136022
-0.0110551
-0.00882878
-0.00684917
-0.00510506
-0.00355484
-0.00220549
-0.00101041
0.000133306
-0.385945
-0.249543
-0.209118
-0.138196
-0.12039
-0.0876677
-0.0763362
-0.0601212
-0.0519024
-0.0426893
-0.0365818
-0.0306104
-0.0260299
-0.0217943
-0.0182845
-0.0151202
-0.0124059
-0.00997721
-0.00785939
-0.00597463
-0.00431493
-0.0028408
-0.00156293
-0.000423879
0.000687464
-0.390056
-0.244712
-0.205653
-0.133828
-0.116616
-0.0840491
-0.0730742
-0.057103
-0.0491769
-0.0402018
-0.0343316
-0.0285662
-0.0241956
-0.0201322
-0.0167939
-0.0137738
-0.0111944
-0.00888414
-0.00687453
-0.00508497
-0.00350999
-0.00211286
-0.000906609
0.000180132
0.00124944
-0.3939
-0.239785
-0.202007
-0.12936
-0.112746
-0.0803617
-0.0697606
-0.0540463
-0.0464248
-0.037682
-0.0320708
-0.0264981
-0.0223501
-0.0184552
-0.0152889
-0.0124134
-0.00996809
-0.00777716
-0.00587507
-0.0041809
-0.00269084
-0.00137221
-0.000235999
0.000802116
0.00181252
-0.397412
-0.234742
-0.198171
-0.124789
-0.108781
-0.0766061
-0.0663948
-0.0509445
-0.0436557
-0.0351147
-0.0298081
-0.0244102
-0.0204911
-0.0167683
-0.0137666
-0.01104
-0.0087276
-0.00665656
-0.00486184
-0.00326321
-0.00185862
-0.000618993
0.000448827
0.00143737
0.00238131
-0.400528
-0.229563
-0.194138
-0.120112
-0.104721
-0.0727829
-0.0629835
-0.0477817
-0.0408827
-0.0325034
-0.0275313
-0.0223234
-0.0186044
-0.0150697
-0.0122298
-0.00965321
-0.00747403
-0.0055229
-0.00383572
-0.00233271
-0.00101416
0.000146466
0.00114685
0.00208328
0.00295926
-0.40319
-0.224231
-0.189904
-0.115324
-0.100563
-0.068885
-0.0595473
-0.0445439
-0.0380993
-0.0298919
-0.0252092
-0.0202301
-0.0167003
-0.0133575
-0.0106802
-0.00825347
-0.00620818
-0.00437693
-0.00279754
-0.00139025
-0.000158169
0.000923582
0.00185678
0.00273895
0.00354765
-0.405342
-0.218727
-0.185462
-0.110424
-0.0963088
-0.0648875
-0.0561117
-0.0412525
-0.0352579
-0.0272944
-0.0228532
-0.018123
-0.0147828
-0.0116313
-0.00911869
-0.00684158
-0.00493077
-0.00321944
-0.0017481
-0.000436649
0.000708655
0.00171159
0.00257749
0.00340412
0.00414641
-0.406933
-0.213035
-0.180807
-0.105413
-0.0919709
-0.0607562
-0.0526642
-0.0379603
-0.0323473
-0.02469
-0.0204748
-0.015999
-0.0128534
-0.00989206
-0.00754598
-0.00541841
-0.00364252
-0.00205127
-0.000688145
0.000527283
0.00158558
0.00250968
0.0033081
0.00407858
0.0047549
-0.407918
-0.207138
-0.175936
-0.100281
-0.0875859
-0.0565016
-0.0491363
-0.0346857
-0.0293881
-0.0220682
-0.0180797
-0.013858
-0.0109127
-0.00814062
-0.00596258
-0.00398478
-0.00234417
-0.000873219
0.000381514
0.00150076
0.00247185
0.00331701
0.0040479
0.00476197
0.00537232
-0.408252
-0.20102
-0.170842
-0.0949886
-0.0831877
-0.0522121
-0.0454737
-0.0314031
-0.0263932
-0.0194243
-0.0156697
-0.0117007
-0.0089608
-0.00637799
-0.00436912
-0.00254155
-0.0010365
0.000313898
0.00146009
0.00248299
0.00336667
0.0041328
0.00479624
0.00545376
0.00599785
-0.407899
-0.194666
-0.16552
-0.0894709
-0.0787357
-0.0479409
-0.0417164
-0.0280979
-0.0233698
-0.0167573
-0.0132458
-0.00952852
-0.00699809
-0.00460511
-0.00276632
-0.0010895
0.000279663
0.00150927
0.00254678
0.00347319
0.00426926
0.00495631
0.00555247
0.00615333
0.00663075
-0.406824
-0.188066
-0.159983
-0.0837387
-0.0742015
-0.0436762
-0.0378862
-0.0247622
-0.0203214
-0.0140673
-0.0108084
-0.00734258
-0.00502505
-0.00282287
-0.00115495
0.00037053
0.00160351
0.00271207
0.00364078
0.00447054
0.00517882
0.00578678
0.00631593
0.00686
0.0072703
-0.404998
-0.181208
-0.154263
-0.078001
-0.0694
-0.0393862
-0.0339967
-0.0213927
-0.0172503
-0.0113557
-0.0083577
-0.00514414
-0.00304229
-0.00103213
0.000464153
0.00183771
0.0029342
0.00392148
0.00474127
0.00547425
0.00609456
0.00662349
0.00708593
0.00757305
0.00791583
-0.402396
-0.174084
-0.148389
-0.0721394
-0.064425
-0.0350538
-0.0300554
-0.0179884
-0.0141574
-0.00862363
-0.00589425
-0.00293437
-0.00105058
0.000766233
0.00209014
0.00331119
0.00427089
0.00513666
0.00584743
0.00648349
0.00701569
0.00746572
0.00786175
0.00829174
0.00856672
-0.398999
-0.16666
-0.142307
-0.0661914
-0.059311
-0.0306707
-0.0260675
-0.0145496
-0.0110439
-0.00587276
-0.00341865
-0.000714388
0.000949213
0.00257132
0.00372213
0.00479009
0.0056127
0.00635676
0.00695843
0.00749744
0.00794142
0.00831272
0.00864267
0.00901533
0.00922236
-0.394788
-0.158871
-0.135948
-0.0602421
-0.0540791
-0.0262326
-0.0220362
-0.0110776
-0.00791045
-0.00310457
-0.000931688
0.00151469
0.00295617
0.00438219
0.00535919
0.00627352
0.00695877
0.00758091
0.00807343
0.00851528
0.00887097
0.00916374
0.0094279
0.00974305
0.00988213
-0.389753
-0.150673
-0.129409
-0.05423
-0.0487404
-0.0217379
-0.0179642
-0.00757371
-0.00475813
-0.000320635
0.0015657
0.00375172
0.00496928
0.0061979
0.0070004
0.00776055
0.00830819
0.00880827
0.00919158
0.00953617
0.00980354
0.010018
0.0102167
0.0104741
0.0105454
-0.383888
-0.1422
-0.122595
-0.0481339
-0.0433021
-0.0171867
-0.0138537
-0.00403985
-0.00158795
0.00247749
0.00407245
0.00599557
0.00698751
0.00801743
0.00864477
0.00925026
0.00966007
0.0100379
0.010312
0.0105593
0.0107383
0.0108749
0.0110082
0.0112077
0.0112114
-0.377189
-0.133585
-0.115405
-0.0419416
-0.0377702
-0.0125796
-0.00970666
-0.000477975
0.00159886
0.00528821
0.00658741
0.00824504
0.00900977
0.00983976
0.0102913
0.0107417
0.0110135
0.011269
0.0114339
0.0115837
0.0116745
0.0117334
0.0118017
0.011943
0.0118795
-0.369658
-0.124742
-0.107916
-0.0356473
-0.0321494
-0.0079184
-0.00552515
0.00310978
0.00480097
0.00810991
0.00910931
0.0104989
0.0110349
0.0116638
0.011939
0.0122339
0.0123675
0.0125007
0.0125563
0.0126087
0.0126114
0.012593
0.0125964
0.0126791
0.0125488
-0.361314
-0.115625
-0.100158
-0.0292487
-0.0264442
-0.00320518
-0.00131127
0.00672117
0.00801686
0.0109409
0.0116368
0.0127559
0.0130618
0.0134885
0.0135869
0.0137258
0.0137212
0.0137319
0.0136784
0.0136334
0.013548
0.0134526
0.0133912
0.0134152
0.0132189
-0.352212
-0.106174
-0.0921499
-0.0227462
-0.020659
0.00155751
0.00293277
0.0103539
0.0112449
0.0137796
0.0141685
0.0150146
0.0150891
0.0153127
0.0152338
0.0152165
0.0150735
0.0149619
0.0147992
0.0146568
0.0144836
0.0143117
0.0141854
0.0141503
0.013889
-0.342412
-0.0963371
-0.0839029
-0.0161418
-0.0147979
0.00636677
0.00720463
0.0140055
0.0144833
0.0166242
0.0167028
0.0172738
0.0171157
0.0171352
0.0168787
0.0167049
0.0164236
0.0161896
0.015918
0.0156782
0.0154174
0.0151692
0.014978
0.0148835
0.0145585
-0.331824
-0.0862126
-0.0754291
-0.00943889
-0.00886545
0.0112194
0.0115018
0.0176736
0.0177302
0.0194728
0.0192383
0.019532
0.0191402
0.0189549
0.0185204
0.01819
0.0177705
0.0174142
0.0170337
0.0166966
0.0163485
0.0160245
0.0157683
0.0156138
0.0152261
-0.320209
-0.076041
-0.0667412
-0.00264096
-0.00286604
0.0161121
0.0158216
0.0213555
0.0209835
0.0223237
0.0217733
0.0217878
0.0211613
0.0207705
0.0201579
0.0196708
0.0191131
0.0186347
0.0181456
0.0177113
0.0172762
0.0168768
0.0165552
0.0163402
0.01589
-0.307773
-0.0656933
-0.0578498
0.00424784
0.00319558
0.0210412
0.0201611
0.0250486
0.0242412
0.0251748
0.0243061
0.0240396
0.0231777
0.0225808
0.02179
0.0211461
0.0204505
0.0198502
0.0192526
0.0187212
0.0181996
0.0177252
0.0173381
0.0170616
0.0165488
-0.294562
-0.0551407
-0.0487658
0.0112228
0.00931449
0.0260028
0.0245174
0.0287501
0.027501
0.0280242
0.0268349
0.026286
0.025188
0.0243846
0.0234155
0.022615
0.0217817
0.0210597
0.0203539
0.0197257
0.0191178
0.0185689
0.0181159
0.0177769
0.0172026
-0.280601
-0.0443785
-0.0395001
0.0182787
0.0154855
0.0309929
0.0288873
0.0324572
0.0307606
0.03087
0.0293581
0.0285252
0.0271907
0.0261805
0.0250333
0.0240762
0.0231057
0.0222624
0.0214485
0.0207237
0.0200302
0.0194071
0.0188875
0.0184852
0.0178531
-0.265923
-0.033409
-0.0300641
0.0254097
0.0217033
0.0360072
0.0332674
0.036167
0.0340176
0.0337098
0.0318738
0.0307558
0.0291843
0.0279672
0.0266421
0.0255288
0.0244214
0.0234571
0.0225356
0.0217145
0.0209358
0.020239
0.019652
0.0191852
0.0184997
-0.25056
-0.0222384
-0.0204693
0.0326096
0.0279621
0.0410415
0.0376543
0.0398765
0.0372695
0.0365417
0.03438
0.032976
0.0311675
0.0297434
0.0282408
0.0269716
0.0257278
0.0246431
0.0236143
0.0226972
0.0218341
0.0210639
0.0204082
0.0198747
0.0191346
-0.234546
-0.0108755
-0.010728
0.0398718
0.0342561
0.0460912
0.0420443
0.0435825
0.0405137
0.0393634
0.036875
0.0351843
0.0331387
0.0315078
0.029828
0.0284035
0.0270239
0.0258192
0.0246837
0.0236712
0.0227243
0.021881
0.0211551
0.020551
0.0197465
-0.217916
0.000668479
-0.000852641
0.047189
0.0405791
0.0511515
0.0464336
0.047282
0.0437476
0.0421726
0.0393566
0.0373787
0.0350963
0.0332589
0.0314027
0.0298233