/*--------------------------------*- C++ -*----------------------------------*\
  =========                 |
  \\      /  F ield         | OpenFOAM: The Open Source CFD Toolbox
   \\    /   O peration     | Website:  https://openfoam.org
    \\  /    A nd           | Version:  7
     \\/     M anipulation  |
\*---------------------------------------------------------------------------*/
FoamFile
{
    version     2.0;
    format      ascii;
    class       volScalarField;
    location    "3";
    object      T;
}
// * * * * * * * * * * * * * * * * * * * * * * * * * * * * * * * * * * * * * //

dimensions      [0 0 0 1 0 0 0];

internalField   nonuniform List<scalar> 
2413
(
1.09766
1.09595
1.09423
1.09272
1.09093
1.08927
1.08779
1.08589
1.08406
1.0825
1.08052
1.07881
1.07726
1.07515
1.0735
1.07171
1.0698
1.06828
1.06631
1.06474
1.06306
1.06115
1.0598
1.05804
1.05628
1.05495
1.05316
1.0516
1
1
1
1
1
1
1
1
1
1
1
1
1
1
1
1
1
1
1
1
1
1
1
1
1
1
1
1
1
1
1
1.00004
1.0003
1.00149
1.00528
1.0143
1.03009
1.05117
1.07315
1.09085
1.10693
1.11405
1.11767
1.12015
1.1216
1.12203
1.12144
1.12008
1.1186
1.11741
1.11629
1.11517
1.11364
1.1118
1.10978
1.10772
1.1057
1.1041
1.10251
1.10063
1.09887
1.09713
1.09552
1.09412
1.09241
1.09056
1.08905
1.08731
1.08563
1.0842
1.08238
1.0805
1.07896
1.07696
1.07533
1.07369
1.0718
1.07016
1.06818
1.06654
1.06475
1.06296
1.06153
1.05961
1.05791
1.05644
1.05448
1.05299
1
1
1
1
1
1
1
1
1
1
1
1
1
1
1
1
1
1
1
1
1
1
1
1
1
1
1
1
1
1
1
1
1
1.00002
1.00017
1.00088
1.00334
1.00948
1.02145
1.0388
1.05963
1.0782
1.09452
1.10666
1.11135
1.11515
1.11757
1.11885
1.1188
1.11779
1.11641
1.11534
1.11448
1.1136
1.11241
1.11077
1.10884
1.10671
1.10477
1.10291
1.10121
1.09949
1.09745
1.09567
1.09407
1.09244
1.09096
1.08923
1.08729
1.08587
1.08427
1.08253
1.08107
1.07921
1.07742
1.07583
1.07411
1.07242
1.07067
1.06911
1.06721
1.06538
1.06392
1.06192
1.06023
1.05872
1.05673
1.05524
1
1
1
1
1
1
1
1
1
1
1
1
1
1
1
1
1
1
1
1
1
1
1
1
1
1
1
1
1
1
1
1
1
1
1
1.00001
1.00009
1.00045
1.00184
1.00566
1.01376
1.02722
1.0449
1.06358
1.08037
1.09534
1.10377
1.10847
1.11251
1.11524
1.11586
1.11531
1.11419
1.11326
1.1127
1.1121
1.11115
1.10994
1.10829
1.10642
1.10445
1.10264
1.10074
1.09892
1.09709
1.09503
1.09324
1.09171
1.08993
1.08843
1.08676
1.08475
1.08326
1.08171
1.08002
1.07856
1.07696
1.07504
1.0733
1.07195
1.07015
1.06843
1.06701
1.06504
1.06333
1.06178
1.0598
1.05834
1
1
1
1
1
1
1
1
1
1
1
1
1
1
1
1
1
1
1
1
1
1
1
1
1
1
1
1
1
1
1
1
1
1
1
1
1
1
1.00003
1.0002
1.00087
1.00294
1.00784
1.01697
1.0307
1.0475
1.06464
1.07989
1.09295
1.10016
1.10535
1.11018
1.11225
1.11208
1.11184
1.1111
1.11075
1.11068
1.10975
1.10873
1.10758
1.10606
1.10456
1.10298
1.10128
1.09939
1.09744
1.09556
1.0935
1.09171
1.09013
1.08826
1.08655
1.08494
1.08312
1.08144
1.08007
1.07838
1.07665
1.07533
1.07359
1.07173
1.07032
1.06849
1.06696
1.06551
1.06361
1.06216
1
1
1
1
1
1
1
1
1
1
1
1
1
1
1
1
1
1
1
1
1
1
1
1
1
1
1
1
1
1
1
1
1
1
1
1
1
1
1
1
1.00001
1.00007
1.00035
1.00128
1.00383
1.00915
1.01851
1.03156
1.04688
1.06297
1.07701
1.08832
1.09607
1.10183
1.10695
1.1082
1.10846
1.10872
1.10856
1.10869
1.1083
1.10729
1.10623
1.10523
1.10417
1.10308
1.10195
1.10048
1.09867
1.09669
1.09479
1.09286
1.09102
1.08941
1.08772
1.08579
1.08405
1.08233
1.08054
1.07926
1.0776
1.07579
1.07438
1.07255
1.07101
1.06959
1.06771
1.0663
1
1
1
1
1
1
1
1
1
1
1
1
1
1
1
1
1
1
1
1
1
1
1
1
1
1
1
1
1
1
1
1
1
1
1
1
1
1
1
1
1
1
1
1.00002
1.00011
1.00045
1.00153
1.00414
1.00937
1.01798
1.02991
1.04372
1.05825
1.07178
1.08239
1.09054
1.0977
1.10218
1.10378
1.10474
1.10559
1.10628
1.10625
1.10572
1.10487
1.10381
1.10299
1.10246
1.10165
1.10071
1.09952
1.09802
1.09634
1.09474
1.09312
1.09132
1.08955
1.08788
1.08605
1.08439
1.08254
1.08059
1.07923
1.07753
1.07598
1.0745
1.0726
1.07104
1
1
1
1
1
1
1
1
1
1
1
1
1
1
1
1
1
1
1
1
1
1
1
1
1
1
1
1
1
1
1
1
1
1
1
1
1
1
1
1
1
1
1
1
1
1
1.00003
1.00013
1.00048
1.00149
1.00384
1.00836
1.01575
1.02595
1.03829
1.05129
1.06411
1.07468
1.08362
1.09124
1.09596
1.09869
1.10062
1.10213
1.10357
1.10353
1.10284
1.10235
1.10156
1.10107
1.10065
1.09994
1.09909
1.09811
1.09687
1.09571
1.0946
1.09347
1.09209
1.0905
1.08869
1.08674
1.08531
1.08366
1.08194
1.08027
1.07854
1.07691
1
1
1
1
1
1
1
1
1
1
1
1
1
1
1
1
1
1
1
1
1
1
1
1
1
1
1
1
1
1
1
1
1
1
1
1
1
1
1
1
1
1
1
1
1
1
1
1
1
1.00003
1.00011
1.0004
1.0012
1.00302
1.00651
1.01232
1.02048
1.03083
1.04239
1.05396
1.06484
1.07415
1.08225
1.08825
1.09205
1.09517
1.09777
1.09958
1.09983
1.09947
1.0994
1.09916
1.0991
1.09868
1.09782
1.09703
1.09622
1.09523
1.09428
1.09355
1.09266
1.09172
1.09084
1.08951
1.08787
1.08624
1.08478
1.08339
1
1
1
1
1
1
1
1
1
1
1
1
1
1
1
1
1
1
1
1
1
1
1
1
1
1
1
1
1
1
1
1
1
1
1
1
1
1
1
1
1
1
1
1
1
1
1
1
1
1
1
1
1.00002
1.00008
1.00027
1.00079
1.00198
1.00434
1.00837
1.01438
1.0223
1.03189
1.0421
1.05232
1.0621
1.07041
1.07756
1.08307
1.08719
1.09098
1.09359
1.09476
1.09529
1.09564
1.09598
1.09627
1.09635
1.09566
1.09464
1.09389
1.09314
1.09248
1.09199
1.09112
1.09015
1.08924
1.08842
1.08742
1
1
1
1
1
1
1
1
1
1
1
1
1
1
1
1
1
1
1
1
1
1
1
1
1
1
1
1
1
1
1
1
1
1
1
1
1
1
1
1
1
1
1
1
1
1
1
1
1
1
1
1
1
1
1
1.00001
1.00004
1.00014
1.00041
1.00106
1.00239
1.00479
1.00859
1.01401
1.02098
1.02921
1.03802
1.04701
1.05565
1.06344
1.0702
1.07569
1.08048
1.08437
1.08705
1.0888
1.09005
1.09098
1.09171
1.09237
1.09244
1.09183
1.09112
1.09044
1.08993
1.0895
1.08917
1.08838
1
1
1
1
1
1
1
1
1
1
1
1
1
1
1
1
1
1
1
1
1
1
1
1
1
1
1
1
1
1
1
1
1
1
1
1
1
1
1
1
1
1
1
1
1
1
1
1
1
1
1
1
1
1
1
1
1
1
1
1.00002
1.00005
1.00017
1.00044
1.00104
1.00219
1.00417
1.00721
1.01148
1.01699
1.02355
1.0308
1.03842
1.04597
1.05314
1.05961
1.06537
1.07043
1.07454
1.07788
1.08052
1.08247
1.08404
1.08527
1.08615
1.08671
1.08663
1.0864
1.0861
1
1
1
1
1
1
1
1
1
1
1
1
1
1
1
1
1
1
1
1
1
1
1
1
1
1
1
1
1
1
1
1
1
1
1
1
1
1
1
1
1
1
1
1
1
1
1
1
1
1
1
1
1
1
1
1
1
1
1
1
1
1
1
1.00001
1.00005
1.00013
1.00033
1.00075
1.00152
1.00283
1.00484
1.00771
1.01149
1.01613
1.0215
1.0274
1.03354
1.03969
1.04562
1.05117
1.05626
1.06073
1.06465
1.06798
1.07073
1.07302
1.07484
1.07634
1
1
1
1
1
1
1
1
1
1
1
1
1
1
1
1
1
1
1
1
1
1
1
1
1
1
1
1
1
1
1
1
1
1
1
1
1
1
1
1
1
1
1
1
1
1
1
1
1
1
1
1
1
1
1
1
1
1
1
1
1
1
1
1
1
1
1
1.00001
1.00003
1.00007
1.00017
1.00038
1.00077
1.00143
1.00248
1.004
1.00609
1.00879
1.01207
1.01587
1.0201
1.02459
1.02921
1.03381
1.03827
1.0425
1.04641
1.04996
1
1
1
1
1
1
1
1
1
1
1
1
1
1
1
1
1
1
1
1
1
1
1
1
1
1
1
1
1
1
1
1
1
1
1
1
1
1
1
1
1
1
1
1
1
1
1
1
1
1
1
1
1
1
1
1
1
1
1
1
1
1
1
1
1
1
1
1
1
1
1
1
1.00001
1.00002
1.00006
1.00013
1.00026
1.0005
1.00088
1.00146
1.00229
1.00342
1.00488
1.00667
1.00879
1.0112
1.01385
1.01667
1
1
1
1
1
1
1
1
1
1
1
1
1
1
1
1
1
1
1
1
1
1
1
1
1
1
1
1
1
1
1
1
1
1
1
1
1
1
1
1
1
1
1
1
1
1
1
1
1
1
1
1
1
1
1
1
1
1
1
1
1
1
1
1
1
1
1
1
1
1
1
1
1
1
1
1
1
1
1.00001
1.00003
1.00005
1.0001
1.00019
1.00032
1.00052
1.00081
1.00121
1.00172
1
1
1
1
1
1
1
1
1
1
1
1
1
1
1
1
1
1
1
1
1
1
1
1
1
1
1
1
1
1
1
1
1
1
1
1
1
1
1
1
1
1
1
1
1
1
1
1
1
1
1
1
1
1
1
1
1
1
1
1
1
1
1
1
1
1
1
1
1
1
1
1
1
1
1
1
1
1
1
1
1
1
1
1
1.00001
1.00001
1.00002
1.00004
1
1
1
1
1
1
1
1
1
1
1
1
1
1
1
1
1
1
1
1
1
1
1
1
1
1
1
1
1
1
1
1
1
1
1
1
1
1
1
1
1
1
1
1
1
1
1
1
1
1
1
1
1
1
1
1
1
1
1
1
1
1
1
1
1
1
1
1
1
1
1
1
1
1
1
1
1
1
1
1
1
1
1
1
1
1
1
1
1
1
1
1
1
1
1
1
1
1
1
1
1
1
1
1
1
1
1
1
1
1
1
1
1
1
1
1
1
1
1
1
1
1
1
1
1
1
1
1
1
1
1
1
1
1
1
1
1
1
1
1
1
1
1
1
1
1
1
1
1
1
1
1
1
1
1
1
1
1
1
1
1
1
1
1
1
1
1
1
1
1
1
1
1
1
1
1
1
1
1
1
1
1
1
1
1
1
1
1
1
1
1
1
1
1
1
1
1
1
1
1
1
1
1
1
1
1
1
1
1
1
1
1
1
1
1
1
1
1
1
1
1
1
1
1
1
1
1
1
1
1
1
1
1
1
1
1
1
1
1
1
1
1
1
1
1
1
1
1
1
1
1
1
1
1
1
1
1
1
1
1
1
1
1
1
1
1
1
1
1
1
1
1
1
1
1
1
1
1
1
1
1
1
1
1
1
1
1
1
1
1
1
1
1
1
1
1
1
1
1
1
1
1
1
1
1
1
1
1
1
1
1
1
1
1
1
1
1
1
1
1
1
1
1
1
1
1
1
1
1
1
1
1
1
1
1
1
1
1
1
1
1
1
1
1
1
1
1
1
1
1
1
1
1
1
1
1
1
1
1
1
1
1
1
1
1
1
1
1
1
1
1
1
1
1
1
1
1
1
1
1
1
1
1
1
1
1
1
1
1
1
1
1
1
1
1
1
1
1
1
1
1
1
1
1
1
1
1
1
1
1
1
1
1
1
1
1
1
1
1
1
1
1
1
1
1
1
1
1
1
1
1
1
1
1
1
1
1
1
1
1
1
1
1
1
1
1
1
1
1
1
1
1
1
1
1
1
1
1
1
1
1
1
1
1
1
1
1
1
1
1
1
1
1
1
1
1
1
1
1
1
1
1
1
1
1
1
1
1
1
1
1
1
1
1
1
1
1
1
1
1
1
1
1
1
1
1
1
1
1
1
1
1
1
1
1
1
1
1
1
1
1
1
1
1
1
1
1
1
1
1
1
1
1
1
1
1
1
1
1
1
1
1
1
1
1
1
1
1
1
1
1
1
1
1
1
1
1
1
1
1
1
1
1
1
1
1
1
1
1
1
1
1
1
1
1
1
1
1
1
1
1
1
1
1
1
1
1
1
1
1
1
1
1
1
1
1
1
1
1
1
1
1
1
1
1
1
1
1
1
1
1
1
1
1
1
1
1
1
1
1
1
1
1
1
1
1
1
1
1
1
1
1
1
1
1
1
1
1
1
1
1
1
1
1
1
1
1
1
1
1
1
1
1
1
1
1
1
1
1
1
1
1
1
1
1
1
1
1
1
1
1
1
1
1
1
1
1
1
1
1
1
1
1
1
1
1
1
1
1
1
1
1
1
1
1
1
1
1
1
1
1
1
1
1
1
1
1
1
1
1
1
1
1
1
1
1
1
1
1
1
1
1
1
1
1
1
1
1
1
1
1
1
1
1
1
1
1
1
1
1
1
1
1
1
1
1
1
1
1
1
1
1
1
1
1
1
1
1
1
1
1
1
1
1
1
1
1
1
1
1
1
1
1
1
1
1
1
1
1
1
1
1
1
1
1
1
1
1
1
1
1
1
1
1
1
1
1
1
1
1
1
1
1
1
1
1
1
1
1
1
1
1
1
1
1
1
1
1
1
1
1
1
1
1
1
1
1
1
1
1
1
1
1
1
1
1
1
1
1
1
1
1
1
1
1
1
1
1
1
1
1
1
1
1
1
1
1
1
1
1
1
1
1
1
1
1
1
1
1
1
1
1
1
1
1
1
1
1
1
1
1
1
1
1
1
1
1
1
1
1
1
1
1
1
1
1
1
1
1
1
1
1
1
1
1
1
1
1
1
1
1
1
1
1
1
1
1
1
1
1
1
1
1
1
1
1
1
1
1
1
1
1
1
1
1
1
1
1
1
1
1
1
1
1
1
1
1
1
1
1
1
1
1
1
1
1
1
1
1
1
1
1
1
1
1
1
1
1
1
1
1
1
1
1
1
1
1
)
;

boundaryField
{
    inlet
    {
        type            fixedValue;
        value           nonuniform 0();
    }
    outlet
    {
        type            inletOutlet;
        inletValue      nonuniform 0();
        value           nonuniform 0();
    }
    bottom
    {
        type            symmetryPlane;
    }
    top
    {
        type            symmetryPlane;
    }
    obstacle
    {
        type            zeroGradient;
    }
    front
    {
        type            empty;
    }
    back
    {
        type            empty;
    }
    procBoundary35to18
    {
        type            processor;
        value           nonuniform List<scalar> 6(1 1 1 1 1 1);
    }
    procBoundary35to26
    {
        type            processor;
        value           nonuniform List<scalar> 
19
(
1
1
1
1
1
1
1
1
1
1
1
1
1
1
1
1
1
1
1
)
;
    }
    procBoundary35to27
    {
        type            processor;
        value           nonuniform List<scalar> 
89
(
1.09672
1.09484
1.09316
1.09165
1.08978
1.08811
1.08649
1.08442
1.0827
1.08102
1.07894
1.07732
1.07565
1.07354
1.072
1.07023
1.06834
1.06694
1.06511
1.06353
1.06208
1.06029
1.05899
1.05751
1.056
1.05489
1.05336
1.05212
1
1
1
1
1
1
1
1
1
1
1
1
1
1
1
1
1
1
1
1
1
1
1
1
1
1
1
1
1.00001
1.00007
1.00046
1.0022
1.00757
1.01971
1.03881
1.06349
1.08439
1.103
1.1158
1.11971
1.12292
1.12435
1.1252
1.12501
1.12393
1.12242
1.12086
1.11949
1.11826
1.11689
1.11519
1.11331
1.11129
1.10923
1.10754
1.10593
1.10422
1.10255
1.10074
1.09906
1.09906
)
;
    }
    procBoundary35to28
    {
        type            processor;
        value           uniform 1.05027;
    }
    procBoundary35to34
    {
        type            processor;
        value           nonuniform List<scalar> 3(1 1 1);
    }
    procBoundary35to36
    {
        type            processor;
        value           nonuniform List<scalar> 
27
(
1.05151
1.05358
1.05666
1.06047
1.06472
1.06952
1.07539
1.08193
1.0862
1.08731
1.08575
1.07739
1.05313
1.01959
1.00236
1.00006
1
1
1
1
1
1
1
1
1
1
1
)
;
    }
    procBoundary35to43
    {
        type            processor;
        value           nonuniform List<scalar> 
89
(
1
1
1
1
1
1
1
1
1
1
1
1
1
1
1
1
1
1
1
1
1
1
1
1
1
1
1
1
1
1
1
1
1
1
1
1
1
1
1
1
1
1
1
1
1
1
1
1
1
1
1
1
1
1
1
1
1
1
1
1
1
1
1
1
1
1
1
1
1
1
1
1
1
1
1
1
1
1
1
1
1
1
1
1
1
1
1
1
1
)
;
    }
}


// ************************************************************************* //
