/*--------------------------------*- C++ -*----------------------------------*\
  =========                 |
  \\      /  F ield         | OpenFOAM: The Open Source CFD Toolbox
   \\    /   O peration     | Website:  https://openfoam.org
    \\  /    A nd           | Version:  7
     \\/     M anipulation  |
\*---------------------------------------------------------------------------*/
FoamFile
{
    version     2.0;
    format      ascii;
    class       volVectorField;
    location    "3";
    object      U;
}
// * * * * * * * * * * * * * * * * * * * * * * * * * * * * * * * * * * * * * //

dimensions      [0 1 -1 0 0 0 0];

internalField   nonuniform List<vector> 
2413
(
(1.29574 0.226368 0)
(1.29967 0.225051 0)
(1.30381 0.223534 0)
(1.30821 0.221749 0)
(1.3121 0.220071 0)
(1.31654 0.218073 0)
(1.32102 0.215899 0)
(1.32482 0.214375 0)
(1.32919 0.212237 0)
(1.33377 0.209707 0)
(1.33758 0.207604 0)
(1.34221 0.204916 0)
(1.3466 0.202266 0)
(1.35035 0.200321 0)
(1.35517 0.197424 0)
(1.359 0.195132 0)
(1.3634 0.192442 0)
(1.36776 0.189595 0)
(1.37162 0.187284 0)
(1.37651 0.184209 0)
(1.38006 0.182127 0)
(1.38419 0.179527 0)
(1.38875 0.176354 0)
(1.39203 0.17456 0)
(1.39622 0.171875 0)
(1.40048 0.16892 0)
(1.40362 0.167198 0)
(1.40787 0.164492 0)
(1.4 -2.6122e-15 0)
(1.4 -2.78659e-15 0)
(1.4 -2.31998e-15 0)
(1.4 -1.55506e-15 0)
(1.4 -3.45629e-16 0)
(1.4 1.59879e-15 0)
(1.4 1.72785e-15 0)
(1.4 2.15757e-15 0)
(1.4 1.73817e-15 0)
(1.4 1.57154e-15 0)
(1.4 1.25295e-15 0)
(1.4 1.24442e-15 0)
(1.4 9.87183e-16 0)
(1.4 1.07612e-15 0)
(1.4 1.35354e-15 0)
(1.4 1.50789e-15 0)
(1.4 1.37332e-15 0)
(1.4 6.27953e-16 0)
(1.4 4.48452e-16 0)
(1.4 7.53838e-16 0)
(1.4 -2.25141e-16 0)
(1.4 5.39682e-18 0)
(1.4 -6.39274e-17 0)
(1.4 8.95217e-16 0)
(1.4 1.28379e-15 0)
(1.4 1.03577e-13 0)
(1.4 1.06846e-11 0)
(1.4 6.35121e-10 0)
(1.4 2.40827e-08 0)
(1.4 5.5182e-07 0)
(1.39999 8.14605e-06 0)
(1.39993 8.18143e-05 0)
(1.3995 0.000558407 0)
(1.3976 0.00273941 0)
(1.39156 0.00980353 0)
(1.37794 0.0265497 0)
(1.35442 0.0561121 0)
(1.3248 0.0954816 0)
(1.29079 0.141047 0)
(1.26612 0.177966 0)
(1.25602 0.197296 0)
(1.23847 0.220672 0)
(1.22972 0.239011 0)
(1.22954 0.239015 0)
(1.23432 0.238391 0)
(1.23639 0.241554 0)
(1.23735 0.243787 0)
(1.23981 0.24452 0)
(1.24246 0.244648 0)
(1.24536 0.24455 0)
(1.24928 0.244082 0)
(1.25362 0.242809 0)
(1.25797 0.24099 0)
(1.26211 0.23908 0)
(1.26633 0.237592 0)
(1.27038 0.236124 0)
(1.27464 0.234179 0)
(1.27956 0.231754 0)
(1.28399 0.229478 0)
(1.28785 0.228335 0)
(1.29197 0.227034 0)
(1.29601 0.225253 0)
(1.3005 0.223069 0)
(1.30506 0.220907 0)
(1.30884 0.219713 0)
(1.31255 0.218277 0)
(1.31699 0.216256 0)
(1.32102 0.214185 0)
(1.32538 0.211868 0)
(1.32976 0.209485 0)
(1.33333 0.208045 0)
(1.33731 0.205912 0)
(1.3418 0.203219 0)
(1.34553 0.201004 0)
(1.3503 0.198016 0)
(1.35398 0.195624 0)
(1.35816 0.193162 0)
(1.36222 0.190553 0)
(1.36593 0.188143 0)
(1.37069 0.184999 0)
(1.3742 0.182715 0)
(1.37849 0.179696 0)
(1.38277 0.176586 0)
(1.38614 0.174639 0)
(1.3907 0.171508 0)
(1.3947 0.16867 0)
(1.39808 0.166456 0)
(1.40287 0.163101 0)
(1.4 -1.91103e-15 0)
(1.4 -1.91617e-15 0)
(1.4 -1.54136e-15 0)
(1.4 -1.20399e-15 0)
(1.4 -5.438e-16 0)
(1.4 -1.24523e-16 0)
(1.4 2.5477e-16 0)
(1.4 6.79778e-16 0)
(1.4 9.25616e-16 0)
(1.4 9.15616e-16 0)
(1.4 1.43515e-15 0)
(1.4 1.64772e-15 0)
(1.4 1.96106e-15 0)
(1.4 2.07805e-15 0)
(1.4 3.43168e-15 0)
(1.4 2.96836e-15 0)
(1.4 1.71065e-15 0)
(1.4 1.57784e-15 0)
(1.4 1.18377e-15 0)
(1.4 1.572e-15 0)
(1.4 7.68681e-16 0)
(1.4 1.14323e-15 0)
(1.4 5.79603e-16 0)
(1.4 2.11114e-16 0)
(1.4 -1.99831e-16 0)
(1.4 1.99398e-16 0)
(1.4 1.13408e-16 0)
(1.4 7.17995e-14 0)
(1.4 7.00792e-12 0)
(1.4 3.90716e-10 0)
(1.4 1.37722e-08 0)
(1.4 3.11549e-07 0)
(1.4 4.55061e-06 0)
(1.39996 4.61792e-05 0)
(1.39971 0.000326522 0)
(1.39859 0.00164129 0)
(1.39474 0.00623579 0)
(1.3854 0.0179362 0)
(1.36804 0.0403923 0)
(1.34322 0.0736485 0)
(1.31406 0.114791 0)
(1.28607 0.15573 0)
(1.27111 0.181623 0)
(1.25799 0.202971 0)
(1.24303 0.227714 0)
(1.23924 0.235694 0)
(1.24256 0.234552 0)
(1.24548 0.23658 0)
(1.24606 0.240616 0)
(1.24699 0.242489 0)
(1.2495 0.242897 0)
(1.25218 0.242767 0)
(1.25559 0.242482 0)
(1.25973 0.241687 0)
(1.26369 0.24037 0)
(1.26761 0.238891 0)
(1.27148 0.237297 0)
(1.27534 0.235666 0)
(1.27979 0.233535 0)
(1.28424 0.231014 0)
(1.28898 0.228231 0)
(1.29311 0.226205 0)
(1.29662 0.225017 0)
(1.30088 0.223134 0)
(1.30515 0.220876 0)
(1.30941 0.218377 0)
(1.31372 0.21623 0)
(1.31739 0.21511 0)
(1.32089 0.213527 0)
(1.32542 0.211141 0)
(1.32933 0.208894 0)
(1.33343 0.206511 0)
(1.33768 0.204029 0)
(1.34112 0.202525 0)
(1.34519 0.200265 0)
(1.34892 0.197736 0)
(1.35345 0.194887 0)
(1.3573 0.192471 0)
(1.36144 0.189726 0)
(1.36566 0.186868 0)
(1.36888 0.185029 0)
(1.373 0.18209 0)
(1.37728 0.178795 0)
(1.38064 0.176594 0)
(1.38519 0.173329 0)
(1.38904 0.170379 0)
(1.39237 0.167965 0)
(1.39691 0.164524 0)
(1.4 -3.5909e-16 0)
(1.4 -5.0936e-16 0)
(1.4 -1.67771e-17 0)
(1.4 3.70473e-17 0)
(1.4 8.56667e-16 0)
(1.4 6.80939e-16 0)
(1.4 4.24592e-16 0)
(1.4 -1.02228e-16 0)
(1.4 1.33902e-17 0)
(1.4 1.9946e-17 0)
(1.4 2.7939e-16 0)
(1.4 1.11061e-16 0)
(1.4 7.90385e-16 0)
(1.4 1.13715e-15 0)
(1.4 2.21909e-15 0)
(1.4 2.61662e-15 0)
(1.4 2.64852e-15 0)
(1.4 3.21524e-15 0)
(1.4 2.91001e-15 0)
(1.4 2.41898e-15 0)
(1.4 9.52598e-16 0)
(1.4 4.3617e-16 0)
(1.4 -9.75648e-17 0)
(1.4 -3.60738e-16 0)
(1.4 7.86619e-18 0)
(1.4 -6.31248e-16 0)
(1.4 -1.32776e-15 0)
(1.4 -6.31585e-16 0)
(1.4 3.50978e-16 0)
(1.4 3.733e-14 0)
(1.4 3.38625e-12 0)
(1.4 1.83626e-10 0)
(1.4 6.18593e-09 0)
(1.4 1.39859e-07 0)
(1.4 2.12337e-06 0)
(1.39998 2.16687e-05 0)
(1.39986 0.000162522 0)
(1.39928 0.000856515 0)
(1.39711 0.00350464 0)
(1.39142 0.0107341 0)
(1.37937 0.0265738 0)
(1.36115 0.0519822 0)
(1.33613 0.0872968 0)
(1.31017 0.126732 0)
(1.28895 0.160674 0)
(1.27786 0.183033 0)
(1.26036 0.209012 0)
(1.25141 0.228051 0)
(1.25123 0.229225 0)
(1.25518 0.231112 0)
(1.25531 0.235847 0)
(1.25455 0.240099 0)
(1.25615 0.241066 0)
(1.25894 0.240874 0)
(1.26207 0.240458 0)
(1.26603 0.240297 0)
(1.26967 0.239807 0)
(1.27303 0.238908 0)
(1.27644 0.237912 0)
(1.27996 0.236418 0)
(1.28412 0.234379 0)
(1.28877 0.231836 0)
(1.29316 0.228906 0)
(1.29737 0.226235 0)
(1.30134 0.224206 0)
(1.30488 0.222458 0)
(1.30934 0.220118 0)
(1.31382 0.217485 0)
(1.3176 0.21519 0)
(1.32169 0.212962 0)
(1.32518 0.211502 0)
(1.32864 0.209646 0)
(1.33323 0.206996 0)
(1.33714 0.204542 0)
(1.34086 0.202285 0)
(1.3448 0.199853 0)
(1.34866 0.19783 0)
(1.35205 0.196125 0)
(1.35627 0.193412 0)
(1.36062 0.190287 0)
(1.36402 0.188108 0)
(1.36819 0.185145 0)
(1.37228 0.182142 0)
(1.37554 0.180279 0)
(1.37987 0.177257 0)
(1.38353 0.17446 0)
(1.38694 0.171828 0)
(1.39154 0.168265 0)
(1.4 -1.18193e-15 0)
(1.4 -1.35925e-15 0)
(1.4 -1.58209e-15 0)
(1.4 -1.38255e-15 0)
(1.4 -1.10478e-15 0)
(1.4 -1.17833e-15 0)
(1.4 -6.37855e-16 0)
(1.4 -2.174e-16 0)
(1.4 6.24782e-16 0)
(1.4 3.81228e-16 0)
(1.4 4.8209e-16 0)
(1.4 5.20551e-16 0)
(1.4 5.95221e-16 0)
(1.4 1.18694e-15 0)
(1.4 6.83391e-16 0)
(1.4 4.23952e-16 0)
(1.4 7.32408e-16 0)
(1.4 1.46253e-15 0)
(1.4 1.7865e-15 0)
(1.4 1.67891e-15 0)
(1.4 1.12198e-15 0)
(1.4 7.26773e-16 0)
(1.4 -3.88861e-16 0)
(1.4 4.9452e-17 0)
(1.4 -4.48428e-16 0)
(1.4 -3.0665e-16 0)
(1.4 -7.41395e-17 0)
(1.4 -1.92297e-17 0)
(1.4 -1.5085e-16 0)
(1.4 -1.21566e-15 0)
(1.4 -1.48165e-15 0)
(1.4 1.44744e-14 0)
(1.4 1.18138e-12 0)
(1.4 6.33386e-11 0)
(1.4 2.18872e-09 0)
(1.4 4.9404e-08 0)
(1.4 7.86873e-07 0)
(1.39999 8.38446e-06 0)
(1.39994 6.67303e-05 0)
(1.39968 0.000384432 0)
(1.39865 0.00166888 0)
(1.39556 0.00565864 0)
(1.38833 0.015309 0)
(1.37611 0.032801 0)
(1.35656 0.0605912 0)
(1.33524 0.0944531 0)
(1.31196 0.131195 0)
(1.29682 0.159226 0)
(1.28197 0.184181 0)
(1.26727 0.211428 0)
(1.2627 0.22209 0)
(1.26501 0.223378 0)
(1.26547 0.228791 0)
(1.26321 0.235973 0)
(1.26308 0.239026 0)
(1.26562 0.238713 0)
(1.26927 0.237892 0)
(1.27268 0.238396 0)
(1.2757 0.23859 0)
(1.27895 0.238418 0)
(1.2817 0.237964 0)
(1.28457 0.237188 0)
(1.28817 0.23592 0)
(1.29246 0.233836 0)
(1.29698 0.231101 0)
(1.3012 0.228358 0)
(1.305 0.226071 0)
(1.30901 0.223737 0)
(1.3126 0.221494 0)
(1.31705 0.218696 0)
(1.32135 0.215808 0)
(1.3251 0.213417 0)
(1.32888 0.211201 0)
(1.33249 0.209159 0)
(1.33581 0.207091 0)
(1.33992 0.204534 0)
(1.34463 0.20152 0)
(1.34819 0.199484 0)
(1.35169 0.197297 0)
(1.35566 0.194659 0)
(1.3589 0.192871 0)
(1.3627 0.190348 0)
(1.36712 0.187292 0)
(1.37053 0.185025 0)
(1.37491 0.181919 0)
(1.37842 0.179293 0)
(1.38177 0.176929 0)
(1.38614 0.173734 0)
(1.4 -2.73091e-15 0)
(1.4 -3.17528e-15 0)
(1.4 -3.54315e-15 0)
(1.4 -3.0696e-15 0)
(1.4 -2.93465e-15 0)
(1.4 -2.39717e-15 0)
(1.4 -1.97465e-15 0)
(1.4 -1.45645e-15 0)
(1.4 -1.16234e-15 0)
(1.4 -6.00196e-16 0)
(1.4 -4.71204e-16 0)
(1.4 -2.40265e-16 0)
(1.4 -4.13374e-16 0)
(1.4 -7.4049e-16 0)
(1.4 -9.68706e-16 0)
(1.4 -1.49684e-15 0)
(1.4 -1.15556e-15 0)
(1.4 -8.60069e-16 0)
(1.4 -3.19055e-16 0)
(1.4 3.06979e-16 0)
(1.4 1.35888e-15 0)
(1.4 1.24285e-15 0)
(1.4 5.83165e-16 0)
(1.4 -1.19294e-17 0)
(1.4 -5.95034e-16 0)
(1.4 -5.89139e-16 0)
(1.4 -4.82377e-16 0)
(1.4 -3.19446e-16 0)
(1.4 -5.84308e-16 0)
(1.4 -1.48545e-15 0)
(1.4 -2.41259e-15 0)
(1.4 -3.23215e-15 0)
(1.4 -3.76562e-15 0)
(1.4 5.46092e-16 0)
(1.4 2.9686e-13 0)
(1.4 1.59884e-11 0)
(1.4 5.80549e-10 0)
(1.4 1.33325e-08 0)
(1.4 2.25742e-07 0)
(1.4 2.60136e-06 0)
(1.39998 2.21699e-05 0)
(1.39989 0.000139671 0)
(1.39947 0.000670335 0)
(1.39807 0.0025099 0)
(1.3944 0.00747311 0)
(1.38696 0.0181624 0)
(1.3745 0.0366183 0)
(1.35767 0.0630155 0)
(1.33647 0.0969056 0)
(1.32128 0.126571 0)
(1.3028 0.156718 0)
(1.28942 0.18313 0)
(1.27806 0.205247 0)
(1.27571 0.213888 0)
(1.2772 0.219138 0)
(1.27371 0.226778 0)
(1.27177 0.23559 0)
(1.27245 0.236465 0)
(1.27626 0.234853 0)
(1.28023 0.235089 0)
(1.28201 0.236417 0)
(1.28458 0.237045 0)
(1.28756 0.237101 0)
(1.28993 0.236774 0)
(1.29304 0.236383 0)
(1.29682 0.235459 0)
(1.30067 0.233681 0)
(1.30462 0.23137 0)
(1.30833 0.229173 0)
(1.31208 0.227065 0)
(1.31583 0.224776 0)
(1.31998 0.222075 0)
(1.32402 0.219116 0)
(1.32815 0.215947 0)
(1.33191 0.213143 0)
(1.33531 0.211092 0)
(1.33946 0.208757 0)
(1.343 0.206524 0)
(1.34654 0.203801 0)
(1.35104 0.200542 0)
(1.35451 0.198356 0)
(1.35846 0.1958 0)
(1.36235 0.193165 0)
(1.3653 0.191396 0)
(1.36936 0.188644 0)
(1.37297 0.185934 0)
(1.3765 0.183391 0)
(1.38107 0.180218 0)
(1.4 -2.28592e-15 0)
(1.4 -3.07071e-15 0)
(1.4 -3.26581e-15 0)
(1.4 -3.1444e-15 0)
(1.4 -2.33604e-15 0)
(1.4 -1.95491e-15 0)
(1.4 -1.71732e-15 0)
(1.4 -2.18788e-15 0)
(1.4 -2.35253e-15 0)
(1.4 -2.09422e-15 0)
(1.4 -2.2143e-15 0)
(1.4 -1.95379e-15 0)
(1.4 -1.69446e-15 0)
(1.4 -2.02738e-15 0)
(1.4 -1.66905e-15 0)
(1.4 -1.60392e-15 0)
(1.4 -1.05613e-15 0)
(1.4 -1.0541e-15 0)
(1.4 -7.72434e-16 0)
(1.4 -6.71752e-16 0)
(1.4 -5.94547e-16 0)
(1.4 -1.95949e-16 0)
(1.4 8.34107e-16 0)
(1.4 6.77992e-16 0)
(1.4 9.95627e-16 0)
(1.4 7.68101e-16 0)
(1.4 2.38005e-16 0)
(1.4 2.96076e-16 0)
(1.4 -4.31773e-16 0)
(1.4 -1.19026e-15 0)
(1.4 -2.21344e-15 0)
(1.4 -3.65127e-15 0)
(1.4 -4.7294e-15 0)
(1.4 -4.92169e-15 0)
(1.4 -4.68655e-15 0)
(1.4 -3.61447e-15 0)
(1.4 5.18826e-14 0)
(1.4 2.86178e-12 0)
(1.4 1.09406e-10 0)
(1.4 2.69821e-09 0)
(1.4 4.85945e-08 0)
(1.4 6.14535e-07 0)
(1.4 5.74847e-06 0)
(1.39997 4.0004e-05 0)
(1.39983 0.000216696 0)
(1.39932 0.000896856 0)
(1.39777 0.00303052 0)
(1.3941 0.00831217 0)
(1.38728 0.0186744 0)
(1.37574 0.0366748 0)
(1.36138 0.0608251 0)
(1.34414 0.0908163 0)
(1.32867 0.119899 0)
(1.31377 0.148281 0)
(1.29902 0.176872 0)
(1.29185 0.193961 0)
(1.28909 0.204719 0)
(1.28762 0.213988 0)
(1.28208 0.224607 0)
(1.28147 0.232422 0)
(1.28278 0.231787 0)
(1.28746 0.230615 0)
(1.29009 0.232157 0)
(1.29115 0.234661 0)
(1.29311 0.235446 0)
(1.29591 0.235377 0)
(1.29869 0.234809 0)
(1.30203 0.234673 0)
(1.30542 0.234218 0)
(1.30895 0.233112 0)
(1.31219 0.231819 0)
(1.31548 0.230272 0)
(1.3187 0.228485 0)
(1.32241 0.226481 0)
(1.32651 0.22408 0)
(1.33073 0.221187 0)
(1.33484 0.218127 0)
(1.33843 0.215227 0)
(1.34154 0.212591 0)
(1.34556 0.20982 0)
(1.34913 0.207718 0)
(1.35311 0.205058 0)
(1.35743 0.201806 0)
(1.3605 0.199303 0)
(1.36457 0.196219 0)
(1.36814 0.193601 0)
(1.37157 0.191378 0)
(1.37575 0.188658 0)
(1.4 -1.60046e-15 0)
(1.4 -2.28462e-15 0)
(1.4 -2.60124e-15 0)
(1.4 -2.49023e-15 0)
(1.4 -2.53685e-15 0)
(1.4 -2.33626e-15 0)
(1.4 -1.73454e-15 0)
(1.4 -1.66001e-15 0)
(1.4 -1.88895e-15 0)
(1.4 -2.06675e-15 0)
(1.4 -2.04342e-15 0)
(1.4 -1.91757e-15 0)
(1.4 -1.76511e-15 0)
(1.4 -1.41762e-15 0)
(1.4 -1.91952e-15 0)
(1.4 -1.71737e-15 0)
(1.4 -1.13517e-15 0)
(1.4 -1.10173e-15 0)
(1.4 -7.52803e-16 0)
(1.4 -5.96886e-16 0)
(1.4 -6.99827e-16 0)
(1.4 -1.66655e-16 0)
(1.4 2.20657e-16 0)
(1.4 7.30722e-16 0)
(1.4 1.13225e-15 0)
(1.4 8.01344e-16 0)
(1.4 1.14633e-15 0)
(1.4 6.99816e-16 0)
(1.4 3.08274e-17 0)
(1.4 -8.71688e-16 0)
(1.4 -1.54309e-15 0)
(1.4 -1.6759e-15 0)
(1.4 -2.13948e-15 0)
(1.4 -2.68624e-15 0)
(1.4 -2.88913e-15 0)
(1.4 -2.13891e-15 0)
(1.4 -1.85542e-15 0)
(1.4 -1.22046e-15 0)
(1.4 5.35431e-15 0)
(1.4 3.50823e-13 0)
(1.4 1.43128e-11 0)
(1.4 3.87662e-10 0)
(1.4 7.52e-09 0)
(1.4 1.05917e-07 0)
(1.4 1.11229e-06 0)
(1.39999 8.66663e-06 0)
(1.39996 5.29535e-05 0)
(1.39981 0.00025212 0)
(1.39931 0.000962285 0)
(1.3979 0.00299818 0)
(1.39474 0.00782509 0)
(1.38893 0.0170543 0)
(1.37969 0.0324113 0)
(1.36716 0.0543673 0)
(1.35435 0.0793583 0)
(1.33837 0.108544 0)
(1.32643 0.135036 0)
(1.3125 0.162758 0)
(1.30669 0.179664 0)
(1.30209 0.193655 0)
(1.29734 0.206276 0)
(1.29291 0.218365 0)
(1.29202 0.225642 0)
(1.29443 0.225651 0)
(1.29818 0.226219 0)
(1.29937 0.228825 0)
(1.30008 0.232595 0)
(1.30154 0.233355 0)
(1.30441 0.232655 0)
(1.30797 0.231739 0)
(1.31131 0.231855 0)
(1.31403 0.232038 0)
(1.31684 0.231776 0)
(1.31996 0.230968 0)
(1.32284 0.230109 0)
(1.32624 0.229065 0)
(1.32952 0.227645 0)
(1.333 0.225807 0)
(1.33665 0.223431 0)
(1.34079 0.220735 0)
(1.3445 0.218448 0)
(1.34796 0.215899 0)
(1.35168 0.213018 0)
(1.35489 0.210605 0)
(1.3589 0.207837 0)
(1.36271 0.205083 0)
(1.36688 0.202037 0)
(1.37043 0.199242 0)
(1.4 -2.06372e-15 0)
(1.4 -1.70407e-15 0)
(1.4 -1.44305e-15 0)
(1.4 -1.32828e-15 0)
(1.4 -2.49387e-15 0)
(1.4 -2.55089e-15 0)
(1.4 -2.60927e-15 0)
(1.4 -2.18053e-15 0)
(1.4 -2.47256e-15 0)
(1.4 -2.27986e-15 0)
(1.4 -2.06584e-15 0)
(1.4 -1.77926e-15 0)
(1.4 -1.20597e-15 0)
(1.4 -9.71725e-16 0)
(1.4 -1.13249e-15 0)
(1.4 -7.03274e-16 0)
(1.4 -6.10487e-16 0)
(1.4 -5.09429e-16 0)
(1.4 -1.51973e-15 0)
(1.4 -1.14094e-15 0)
(1.4 -7.2495e-16 0)
(1.4 -5.24677e-16 0)
(1.4 -2.46863e-16 0)
(1.4 -1.64628e-16 0)
(1.4 4.60675e-16 0)
(1.4 3.29897e-16 0)
(1.4 -9.06251e-18 0)
(1.4 -5.82375e-16 0)
(1.4 -1.03562e-15 0)
(1.4 -8.03514e-16 0)
(1.4 -6.83682e-16 0)
(1.4 -2.06648e-16 0)
(1.4 3.3182e-16 0)
(1.4 7.83393e-17 0)
(1.4 -2.85909e-16 0)
(1.4 -4.20062e-16 0)
(1.4 -4.51056e-16 0)
(1.4 -3.6983e-16 0)
(1.4 -4.45703e-16 0)
(1.4 -5.11966e-16 0)
(1.4 -2.76346e-16 0)
(1.4 2.88319e-14 0)
(1.4 1.23216e-12 0)
(1.4 3.71281e-11 0)
(1.4 8.05618e-10 0)
(1.4 1.26689e-08 0)
(1.4 1.50899e-07 0)
(1.4 1.352e-06 0)
(1.39999 9.37601e-06 0)
(1.39996 5.18199e-05 0)
(1.39984 0.000227907 0)
(1.39943 0.000822362 0)
(1.39836 0.00246652 0)
(1.39601 0.00622438 0)
(1.39161 0.0135737 0)
(1.38471 0.0256889 0)
(1.37519 0.0434428 0)
(1.36427 0.0651308 0)
(1.35191 0.0903988 0)
(1.33911 0.117224 0)
(1.33 0.140398 0)
(1.32032 0.162596 0)
(1.31641 0.177445 0)
(1.31002 0.193203 0)
(1.3051 0.208041 0)
(1.30479 0.213651 0)
(1.30608 0.217201 0)
(1.309 0.219972 0)
(1.30819 0.223999 0)
(1.30879 0.229394 0)
(1.31041 0.230202 0)
(1.31323 0.228706 0)
(1.31745 0.227724 0)
(1.32038 0.228052 0)
(1.32281 0.22887 0)
(1.32509 0.229321 0)
(1.32758 0.229086 0)
(1.33034 0.228151 0)
(1.33376 0.22724 0)
(1.3377 0.226311 0)
(1.34076 0.225294 0)
(1.34358 0.223893 0)
(1.34701 0.222021 0)
(1.35032 0.220289 0)
(1.35396 0.218308 0)
(1.35746 0.216193 0)
(1.36142 0.213858 0)
(1.36475 0.211513 0)
(1.4 -9.43574e-16 0)
(1.4 -1.55499e-15 0)
(1.4 -1.47664e-15 0)
(1.4 -1.06491e-15 0)
(1.4 -1.68873e-15 0)
(1.4 -2.39607e-15 0)
(1.4 -3.59299e-15 0)
(1.4 -3.05302e-15 0)
(1.4 -2.10797e-15 0)
(1.4 -1.95076e-15 0)
(1.4 -1.20752e-15 0)
(1.4 -6.99996e-16 0)
(1.4 -4.29581e-16 0)
(1.4 -3.19727e-17 0)
(1.4 5.53769e-16 0)
(1.4 1.0575e-15 0)
(1.4 1.09877e-15 0)
(1.4 8.01892e-16 0)
(1.4 5.36045e-16 0)
(1.4 -4.40474e-17 0)
(1.4 -7.66534e-16 0)
(1.4 -1.4531e-15 0)
(1.4 -1.63628e-15 0)
(1.4 -1.29332e-15 0)
(1.4 -9.5058e-16 0)
(1.4 -3.14897e-16 0)
(1.4 -7.07872e-16 0)
(1.4 -8.09888e-16 0)
(1.4 -7.50608e-16 0)
(1.4 -6.37413e-16 0)
(1.4 1.16088e-16 0)
(1.4 8.27952e-16 0)
(1.4 1.41282e-15 0)
(1.4 1.67956e-15 0)
(1.4 1.57368e-15 0)
(1.4 1.07398e-15 0)
(1.4 1.17288e-15 0)
(1.4 8.53764e-16 0)
(1.4 4.98511e-16 0)
(1.4 -3.03686e-16 0)
(1.4 -5.698e-16 0)
(1.4 -6.82055e-16 0)
(1.4 -1.04337e-15 0)
(1.4 1.84291e-15 0)
(1.4 6.76118e-14 0)
(1.4 2.26569e-12 0)
(1.4 5.56744e-11 0)
(1.4 9.9573e-10 0)
(1.4 1.35314e-08 0)
(1.4 1.41556e-07 0)
(1.4 1.13956e-06 0)
(1.39999 7.3391e-06 0)
(1.39997 3.78161e-05 0)
(1.39989 0.000159264 0)
(1.39963 0.000556754 0)
(1.39895 0.00165419 0)
(1.39746 0.00415733 0)
(1.39458 0.00917771 0)
(1.38991 0.017791 0)
(1.38332 0.0306832 0)
(1.37487 0.0481333 0)
(1.36535 0.0687702 0)
(1.35493 0.0922895 0)
(1.34549 0.115578 0)
(1.33863 0.135876 0)
(1.33023 0.156239 0)
(1.3254 0.172509 0)
(1.32047 0.188132 0)
(1.31824 0.198296 0)
(1.31904 0.203904 0)
(1.31946 0.209604 0)
(1.31879 0.21518 0)
(1.31826 0.221615 0)
(1.32017 0.224457 0)
(1.32251 0.2237 0)
(1.32637 0.222123 0)
(1.32979 0.222662 0)
(1.33168 0.223719 0)
(1.33375 0.225541 0)
(1.33584 0.225764 0)
(1.33821 0.224841 0)
(1.3413 0.223498 0)
(1.34523 0.222163 0)
(1.34865 0.221217 0)
(1.35193 0.220927 0)
(1.3547 0.220365 0)
(1.35766 0.219082 0)
(1.36062 0.217426 0)
(1.4 -1.40043e-15 0)
(1.4 -1.72531e-15 0)
(1.4 -2.10087e-15 0)
(1.4 -2.7059e-15 0)
(1.4 -2.49857e-15 0)
(1.4 -3.62345e-15 0)
(1.4 -3.78385e-15 0)
(1.4 -3.62839e-15 0)
(1.4 -2.44323e-15 0)
(1.4 -1.9496e-15 0)
(1.4 -1.72551e-15 0)
(1.4 -1.77501e-15 0)
(1.4 -1.82614e-15 0)
(1.4 -1.33573e-15 0)
(1.4 -1.10952e-15 0)
(1.4 -1.35908e-15 0)
(1.4 -1.17281e-15 0)
(1.4 -1.07017e-15 0)
(1.4 -5.20075e-16 0)
(1.4 -1.32229e-15 0)
(1.4 -1.81391e-15 0)
(1.4 -2.08788e-15 0)
(1.4 -2.34715e-15 0)
(1.4 -2.17284e-15 0)
(1.4 -2.16492e-15 0)
(1.4 -2.30415e-15 0)
(1.4 -1.30637e-15 0)
(1.4 -8.15824e-16 0)
(1.4 1.63117e-17 0)
(1.4 -4.33736e-16 0)
(1.4 -4.74059e-16 0)
(1.4 -6.64808e-16 0)
(1.4 -4.37501e-16 0)
(1.4 4.61257e-16 0)
(1.4 6.86574e-16 0)
(1.4 9.45319e-16 0)
(1.4 4.44153e-16 0)
(1.4 1.00903e-16 0)
(1.4 7.07743e-16 0)
(1.4 9.16044e-16 0)
(1.4 7.12737e-16 0)
(1.4 1.12763e-17 0)
(1.4 -4.89894e-17 0)
(1.4 -2.5015e-16 0)
(1.4 -3.39963e-16 0)
(1.4 -4.77077e-16 0)
(1.4 2.21506e-15 0)
(1.4 8.15861e-14 0)
(1.4 2.3049e-12 0)
(1.4 4.82964e-11 0)
(1.4 7.56092e-10 0)
(1.4 9.28802e-09 0)
(1.4 8.81816e-08 0)
(1.4 6.65455e-07 0)
(1.4 4.06148e-06 0)
(1.39999 2.03011e-05 0)
(1.39995 8.39342e-05 0)
(1.39982 0.000293949 0)
(1.39947 0.000877295 0)
(1.39867 0.00226884 0)
(1.39711 0.00512395 0)
(1.39439 0.0103408 0)
(1.39033 0.0186242 0)
(1.38482 0.0305031 0)
(1.37786 0.0461262 0)
(1.3703 0.0643907 0)
(1.3624 0.0846947 0)
(1.35524 0.104834 0)
(1.34851 0.124392 0)
(1.34191 0.143522 0)
(1.33759 0.159652 0)
(1.33404 0.173503 0)
(1.33291 0.183417 0)
(1.33208 0.19197 0)
(1.33111 0.199366 0)
(1.33005 0.206805 0)
(1.3306 0.212567 0)
(1.33267 0.214307 0)
(1.33521 0.215058 0)
(1.33845 0.214673 0)
(1.34087 0.215974 0)
(1.34189 0.218228 0)
(1.34423 0.220177 0)
(1.34655 0.220065 0)
(1.34947 0.218991 0)
(1.35272 0.216931 0)
(1.35653 0.215489 0)
(1.35935 0.214718 0)
(1.4 -2.37048e-15 0)
(1.4 -2.53883e-15 0)
(1.4 -3.17562e-15 0)
(1.4 -3.26003e-15 0)
(1.4 -3.16113e-15 0)
(1.4 -2.71655e-15 0)
(1.4 -1.88443e-15 0)
(1.4 -1.74187e-15 0)
(1.4 -2.22331e-15 0)
(1.4 -2.4457e-15 0)
(1.4 -2.57317e-15 0)
(1.4 -2.7385e-15 0)
(1.4 -2.51149e-15 0)
(1.4 -2.44892e-15 0)
(1.4 -3.04425e-15 0)
(1.4 -3.68446e-15 0)
(1.4 -3.88565e-15 0)
(1.4 -4.22254e-15 0)
(1.4 -3.36287e-15 0)
(1.4 -3.21412e-15 0)
(1.4 -2.962e-15 0)
(1.4 -2.25443e-15 0)
(1.4 -1.82816e-15 0)
(1.4 -2.0369e-15 0)
(1.4 -1.90591e-15 0)
(1.4 -1.30784e-15 0)
(1.4 -1.23839e-15 0)
(1.4 -1.07727e-15 0)
(1.4 2.3708e-16 0)
(1.4 7.80655e-16 0)
(1.4 3.39815e-16 0)
(1.4 3.49493e-16 0)
(1.4 -9.74293e-17 0)
(1.4 -3.22876e-16 0)
(1.4 -1.70273e-16 0)
(1.4 -1.16578e-16 0)
(1.4 -5.68405e-16 0)
(1.4 -5.51193e-16 0)
(1.4 -9.16295e-17 0)
(1.4 4.69463e-16 0)
(1.4 7.88002e-16 0)
(1.4 6.04931e-16 0)
(1.4 3.20021e-16 0)
(1.4 -1.60039e-16 0)
(1.4 -6.22252e-16 0)
(1.4 -7.43242e-16 0)
(1.4 -1.3021e-15 0)
(1.4 -1.36274e-15 0)
(1.4 -1.21049e-15 0)
(1.4 7.17637e-16 0)
(1.4 5.12663e-14 0)
(1.4 1.31659e-12 0)
(1.4 2.44503e-11 0)
(1.4 3.51616e-10 0)
(1.4 3.97541e-09 0)
(1.4 3.58534e-08 0)
(1.4 2.60851e-07 0)
(1.4 1.56386e-06 0)
(1.4 7.75941e-06 0)
(1.39998 3.24653e-05 0)
(1.39993 0.000115545 0)
(1.39979 0.000355601 0)
(1.39947 0.000954156 0)
(1.39878 0.00226052 0)
(1.39751 0.00478247 0)
(1.39544 0.00915492 0)
(1.39241 0.0159007 0)
(1.38832 0.0254773 0)
(1.38332 0.0379498 0)
(1.37778 0.0527981 0)
(1.37191 0.069494 0)
(1.36623 0.0869481 0)
(1.36061 0.104784 0)
(1.35569 0.121873 0)
(1.35181 0.137426 0)
(1.34897 0.151089 0)
(1.34734 0.162496 0)
(1.34549 0.172947 0)
(1.34437 0.181717 0)
(1.34372 0.189767 0)
(1.34411 0.195866 0)
(1.34583 0.199008 0)
(1.3478 0.201745 0)
(1.34989 0.203523 0)
(1.35165 0.205314 0)
(1.35282 0.207727 0)
(1.35474 0.209788 0)
(1.35738 0.210421 0)
(1.4 -4.63785e-16 0)
(1.4 -2.49317e-16 0)
(1.4 -1.74826e-16 0)
(1.4 -8.06489e-16 0)
(1.4 -1.42162e-15 0)
(1.4 -1.27269e-15 0)
(1.4 -6.18441e-16 0)
(1.4 -9.17592e-17 0)
(1.4 -1.13336e-15 0)
(1.4 -3.09146e-15 0)
(1.4 -3.47148e-15 0)
(1.4 -3.36418e-15 0)
(1.4 -2.93129e-15 0)
(1.4 -2.98613e-15 0)
(1.4 -2.98735e-15 0)
(1.4 -2.78771e-15 0)
(1.4 -2.89457e-15 0)
(1.4 -2.95744e-15 0)
(1.4 -3.60561e-15 0)
(1.4 -3.54265e-15 0)
(1.4 -3.40538e-15 0)
(1.4 -3.40174e-15 0)
(1.4 -2.84608e-15 0)
(1.4 -2.91519e-15 0)
(1.4 -2.79047e-15 0)
(1.4 -2.35235e-15 0)
(1.4 -1.8771e-15 0)
(1.4 -1.66376e-15 0)
(1.4 -1.88855e-15 0)
(1.4 -1.24047e-15 0)
(1.4 -6.58499e-16 0)
(1.4 -7.30745e-16 0)
(1.4 -6.3869e-16 0)
(1.4 -9.41265e-16 0)
(1.4 -1.03322e-15 0)
(1.4 -1.26169e-15 0)
(1.4 -1.662e-15 0)
(1.4 -1.75948e-15 0)
(1.4 -1.58203e-15 0)
(1.4 -6.83437e-16 0)
(1.4 -2.87926e-16 0)
(1.4 5.75099e-17 0)
(1.4 -9.56376e-17 0)
(1.4 -6.44984e-16 0)
(1.4 -4.139e-16 0)
(1.4 -1.34133e-16 0)
(1.4 1.48538e-17 0)
(1.4 -2.69246e-16 0)
(1.4 -1.11513e-15 0)
(1.4 -2.56663e-15 0)
(1.4 -4.34949e-15 0)
(1.4 -8.4879e-15 0)
(1.4 -1.40572e-14 0)
(1.4 -2.20118e-15 0)
(1.4 3.79152e-13 0)
(1.4 7.04604e-12 0)
(1.4 9.60723e-11 0)
(1.4 1.04521e-09 0)
(1.4 9.181e-09 0)
(1.4 6.63192e-08 0)
(1.4 3.97806e-07 0)
(1.4 2.01012e-06 0)
(1.39999 8.63584e-06 0)
(1.39998 3.19305e-05 0)
(1.39994 0.000102883 0)
(1.39984 0.000291432 0)
(1.39962 0.000733172 0)
(1.39917 0.00165591 0)
(1.39838 0.00338627 0)
(1.3971 0.00632107 0)
(1.39521 0.0108745 0)
(1.39267 0.0174072 0)
(1.38951 0.0260367 0)
(1.38584 0.0367285 0)
(1.38188 0.0491794 0)
(1.37778 0.0629216 0)
(1.37368 0.077493 0)
(1.37001 0.0920608 0)
(1.36677 0.106279 0)
(1.3642 0.119595 0)
(1.36224 0.131711 0)
(1.36048 0.142937 0)
(1.35937 0.152764 0)
(1.35873 0.161502 0)
(1.3587 0.16884 0)
(1.35951 0.174356 0)
(1.3606 0.17904 0)
(1.36209 0.182649 0)
(1.4 2.80669e-15 0)
(1.4 2.93244e-15 0)
(1.4 2.42492e-15 0)
(1.4 1.59051e-15 0)
(1.4 7.60943e-16 0)
(1.4 -8.67223e-17 0)
(1.4 -7.14043e-16 0)
(1.4 -1.3796e-15 0)
(1.4 -1.82597e-15 0)
(1.4 -2.34186e-15 0)
(1.4 -3.23597e-15 0)
(1.4 -3.70913e-15 0)
(1.4 -3.90103e-15 0)
(1.4 -3.58741e-15 0)
(1.4 -3.19529e-15 0)
(1.4 -2.76849e-15 0)
(1.4 -2.71989e-15 0)
(1.4 -2.03667e-15 0)
(1.4 -2.63804e-15 0)
(1.4 -2.79918e-15 0)
(1.4 -3.34805e-15 0)
(1.4 -3.71007e-15 0)
(1.4 -3.32046e-15 0)
(1.4 -3.1662e-15 0)
(1.4 -3.68038e-15 0)
(1.4 -4.61571e-15 0)
(1.4 -4.47691e-15 0)
(1.4 -4.38871e-15 0)
(1.4 -4.11844e-15 0)
(1.4 -3.51197e-15 0)
(1.4 -2.85136e-15 0)
(1.4 -3.03765e-15 0)
(1.4 -3.02716e-15 0)
(1.4 -2.99848e-15 0)
(1.4 -2.61216e-15 0)
(1.4 -2.00536e-15 0)
(1.4 -1.59369e-15 0)
(1.4 -1.44474e-15 0)
(1.4 -7.71109e-16 0)
(1.4 -2.18136e-16 0)
(1.4 3.12859e-17 0)
(1.4 7.14651e-16 0)
(1.4 6.33502e-16 0)
(1.4 5.3877e-16 0)
(1.4 8.17189e-16 0)
(1.4 1.33371e-16 0)
(1.4 4.01382e-16 0)
(1.4 4.62828e-16 0)
(1.4 -1.81557e-16 0)
(1.4 -8.41826e-16 0)
(1.4 -2.35478e-15 0)
(1.4 -7.88919e-15 0)
(1.4 -1.34732e-14 0)
(1.4 -2.36333e-14 0)
(1.4 -3.72804e-14 0)
(1.4 -5.44165e-14 0)
(1.4 -8.01711e-14 0)
(1.4 -5.7973e-14 0)
(1.4 9.20093e-13 0)
(1.4 1.45109e-11 0)
(1.4 1.58241e-10 0)
(1.4 1.39225e-09 0)
(1.4 1.01733e-08 0)
(1.4 6.25804e-08 0)
(1.4 3.27287e-07 0)
(1.4 1.46926e-06 0)
(1.4 5.73528e-06 0)
(1.39999 1.96381e-05 0)
(1.39997 5.93887e-05 0)
(1.39992 0.000160257 0)
(1.39981 0.000390054 0)
(1.3996 0.00086249 0)
(1.39923 0.00174487 0)
(1.39862 0.00325703 0)
(1.39771 0.00565097 0)
(1.39644 0.00917138 0)
(1.39481 0.0140114 0)
(1.39283 0.0202915 0)
(1.39058 0.0279738 0)
(1.38814 0.036923 0)
(1.3856 0.0469479 0)
(1.38316 0.0576457 0)
(1.38086 0.068727 0)
(1.37884 0.0798262 0)
(1.37715 0.0906282 0)
(1.37571 0.101053 0)
(1.37471 0.110703 0)
(1.37399 0.119671 0)
(1.4 1.45088e-15 0)
(1.4 1.30682e-15 0)
(1.4 1.16637e-15 0)
(1.4 5.06539e-16 0)
(1.4 8.27569e-17 0)
(1.4 -8.0305e-16 0)
(1.4 -1.20452e-15 0)
(1.4 -2.37786e-15 0)
(1.4 -2.08584e-15 0)
(1.4 -2.54946e-15 0)
(1.4 -2.78514e-15 0)
(1.4 -2.50923e-15 0)
(1.4 -2.60863e-15 0)
(1.4 -2.60628e-15 0)
(1.4 -2.57746e-15 0)
(1.4 -2.5958e-15 0)
(1.4 -1.95715e-15 0)
(1.4 -1.30529e-15 0)
(1.4 -1.09507e-15 0)
(1.4 -5.51103e-16 0)
(1.4 -7.1836e-16 0)
(1.4 -9.63822e-16 0)
(1.4 -2.27369e-15 0)
(1.4 -3.11345e-15 0)
(1.4 -4.17696e-15 0)
(1.4 -4.28028e-15 0)
(1.4 -4.6544e-15 0)
(1.4 -5.37037e-15 0)
(1.4 -5.11386e-15 0)
(1.4 -3.76812e-15 0)
(1.4 -3.48092e-15 0)
(1.4 -2.95374e-15 0)
(1.4 -2.96516e-15 0)
(1.4 -1.99471e-15 0)
(1.4 -2.00726e-15 0)
(1.4 -1.71841e-15 0)
(1.4 -6.56238e-16 0)
(1.4 -1.80994e-16 0)
(1.4 -3.82243e-16 0)
(1.4 7.46687e-16 0)
(1.4 1.25513e-15 0)
(1.4 1.65419e-15 0)
(1.4 2.19056e-15 0)
(1.4 2.32525e-15 0)
(1.4 1.91897e-15 0)
(1.4 1.91239e-15 0)
(1.4 1.55803e-15 0)
(1.4 6.75096e-16 0)
(1.4 6.36243e-16 0)
(1.4 8.59898e-17 0)
(1.4 -1.16107e-16 0)
(1.4 -1.36438e-15 0)
(1.4 -5.22174e-15 0)
(1.4 -1.45723e-14 0)
(1.4 -2.88651e-14 0)
(1.4 -5.17915e-14 0)
(1.4 -8.70893e-14 0)
(1.4 -1.44145e-13 0)
(1.4 -2.09741e-13 0)
(1.4 -3.11676e-13 0)
(1.4 -4.53297e-13 0)
(1.4 -6.23648e-13 0)
(1.4 1.20883e-13 0)
(1.4 1.12221e-11 0)
(1.4 1.12898e-10 0)
(1.4 8.6419e-10 0)
(1.4 5.55702e-09 0)
(1.4 3.05814e-08 0)
(1.4 1.45317e-07 0)
(1.4 6.03814e-07 0)
(1.4 2.21455e-06 0)
(1.4 7.22532e-06 0)
(1.39999 2.11333e-05 0)
(1.39997 5.58834e-05 0)
(1.39994 0.000134525 0)
(1.39987 0.00029697 0)
(1.39975 0.000605621 0)
(1.39955 0.00114805 0)
(1.39924 0.00203406 0)
(1.39879 0.00338859 0)
(1.39818 0.0053413 0)
(1.39741 0.00800446 0)
(1.39648 0.0114503 0)
(1.39541 0.0157115 0)
(1.39424 0.0207705 0)
(1.39302 0.0265482 0)
(1.39181 0.0329274 0)
(1.39067 0.0397301 0)
(1.4 7.15688e-16 0)
(1.4 7.42496e-16 0)
(1.4 4.48368e-16 0)
(1.4 -1.26941e-16 0)
(1.4 -3.94773e-16 0)
(1.4 -1.39165e-15 0)
(1.4 -1.80441e-15 0)
(1.4 -2.60259e-15 0)
(1.4 -2.79794e-15 0)
(1.4 -2.91201e-15 0)
(1.4 -2.83167e-15 0)
(1.4 -2.13931e-15 0)
(1.4 -1.65229e-15 0)
(1.4 -1.75218e-15 0)
(1.4 -1.51379e-15 0)
(1.4 -1.88442e-15 0)
(1.4 -1.81482e-15 0)
(1.4 -1.64636e-15 0)
(1.4 -1.48698e-15 0)
(1.4 -7.15699e-16 0)
(1.4 -7.36692e-16 0)
(1.4 -1.14897e-15 0)
(1.4 -1.9936e-15 0)
(1.4 -3.42773e-15 0)
(1.4 -3.40705e-15 0)
(1.4 -3.67975e-15 0)
(1.4 -3.86511e-15 0)
(1.4 -3.75768e-15 0)
(1.4 -4.56369e-15 0)
(1.4 -4.89811e-15 0)
(1.4 -4.65072e-15 0)
(1.4 -3.93751e-15 0)
(1.4 -2.43298e-15 0)
(1.4 -2.19026e-15 0)
(1.4 -2.28775e-15 0)
(1.4 -2.32131e-15 0)
(1.4 -1.95708e-15 0)
(1.4 -9.99176e-16 0)
(1.4 -7.16967e-16 0)
(1.4 -6.00457e-16 0)
(1.4 -4.22414e-16 0)
(1.4 -2.42165e-16 0)
(1.4 1.16517e-15 0)
(1.4 1.08482e-15 0)
(1.4 1.072e-15 0)
(1.4 1.41357e-15 0)
(1.4 1.53901e-15 0)
(1.4 9.79033e-16 0)
(1.4 6.65288e-17 0)
(1.4 -2.57584e-16 0)
(1.4 -2.54709e-16 0)
(1.4 -4.98719e-16 0)
(1.4 -1.51346e-15 0)
(1.4 -3.22778e-15 0)
(1.4 -7.92535e-15 0)
(1.4 -1.99553e-14 0)
(1.4 -4.09317e-14 0)
(1.4 -7.94442e-14 0)
(1.4 -1.51856e-13 0)
(1.4 -2.68196e-13 0)
(1.4 -4.52716e-13 0)
(1.4 -7.38616e-13 0)
(1.4 -1.12128e-12 0)
(1.4 -1.61935e-12 0)
(1.4 -2.33674e-12 0)
(1.4 -3.33014e-12 0)
(1.4 -4.54963e-12 0)
(1.4 -2.70239e-12 0)
(1.4 2.54336e-11 0)
(1.4 2.31142e-10 0)
(1.4 1.42105e-09 0)
(1.4 7.30901e-09 0)
(1.4 3.27688e-08 0)
(1.4 1.29899e-07 0)
(1.4 4.5935e-07 0)
(1.4 1.46233e-06 0)
(1.4 4.22066e-06 0)
(1.4 1.1114e-05 0)
(1.39999 2.68609e-05 0)
(1.39998 5.99957e-05 0)
(1.39995 0.00012459 0)
(1.39991 0.000241865 0)
(1.39985 0.000441061 0)
(1.39975 0.000759318 0)
(1.39962 0.0012403 0)
(1.39943 0.00193039 0)
(1.3992 0.00287368 0)
(1.39891 0.00410705 0)
(1.4 -2.94355e-16 0)
(1.4 -5.23807e-16 0)
(1.4 -7.35595e-16 0)
(1.4 -1.00697e-15 0)
(1.4 -1.54054e-15 0)
(1.4 -1.98249e-15 0)
(1.4 -2.7783e-15 0)
(1.4 -2.96788e-15 0)
(1.4 -3.00024e-15 0)
(1.4 -2.09413e-15 0)
(1.4 -1.83629e-15 0)
(1.4 -1.80896e-15 0)
(1.4 -1.62731e-15 0)
(1.4 -1.8264e-15 0)
(1.4 -2.03541e-15 0)
(1.4 -1.96901e-15 0)
(1.4 -2.9385e-15 0)
(1.4 -3.39496e-15 0)
(1.4 -2.84239e-15 0)
(1.4 -2.46549e-15 0)
(1.4 -1.85419e-15 0)
(1.4 -2.99309e-15 0)
(1.4 -3.2759e-15 0)
(1.4 -3.83408e-15 0)
(1.4 -4.31175e-15 0)
(1.4 -4.17238e-15 0)
(1.4 -5.26916e-15 0)
(1.4 -5.39023e-15 0)
(1.4 -5.17318e-15 0)
(1.4 -4.91414e-15 0)
(1.4 -3.71686e-15 0)
(1.4 -3.10271e-15 0)
(1.4 -1.48778e-15 0)
(1.4 -1.82967e-15 0)
(1.4 -1.61971e-15 0)
(1.4 -1.69566e-15 0)
(1.4 -1.79515e-15 0)
(1.4 -1.32753e-15 0)
(1.4 -1.14489e-15 0)
(1.4 -1.48386e-15 0)
(1.4 -1.07282e-15 0)
(1.4 -5.6944e-16 0)
(1.4 -3.40699e-16 0)
(1.4 1.39383e-16 0)
(1.4 3.69817e-16 0)
(1.4 6.83499e-16 0)
(1.4 3.04602e-16 0)
(1.4 5.86804e-16 0)
(1.4 4.50897e-17 0)
(1.4 -3.58757e-16 0)
(1.4 -4.62063e-16 0)
(1.4 -8.66752e-16 0)
(1.4 -7.32752e-16 0)
(1.4 -1.23596e-15 0)
(1.4 -1.40254e-15 0)
(1.4 -1.89845e-15 0)