/*--------------------------------*- C++ -*----------------------------------*\
  =========                 |
  \\      /  F ield         | OpenFOAM: The Open Source CFD Toolbox
   \\    /   O peration     | Website:  https://openfoam.org
    \\  /    A nd           | Version:  7
     \\/     M anipulation  |
\*---------------------------------------------------------------------------*/
FoamFile
{
    version     2.0;
    format      ascii;
    class       volVectorField;
    location    "39";
    object      U;
}
// * * * * * * * * * * * * * * * * * * * * * * * * * * * * * * * * * * * * * //

dimensions      [0 1 -1 0 0 0 0];

internalField   nonuniform List<vector> 
135168
(
(3 -1.66959e-17 0)
(3 -4.47049e-18 0)
(3 -2.95621e-17 0)
(3 -1.48169e-16 0)
(3 -1.6462e-16 0)
(3 -8.93741e-17 0)
(3 -2.19696e-17 0)
(3 -8.23289e-17 0)
(3 -1.47667e-16 0)
(3 -1.99206e-16 0)
(3 -2.18898e-16 0)
(3 -2.20727e-16 0)
(3 -2.41936e-16 0)
(3 -3.68447e-16 0)
(3 -2.55886e-16 0)
(3 2.00585e-16 0)
(3 2.89748e-16 0)
(3 1.91729e-16 0)
(3 -5.85166e-17 0)
(3 -6.39158e-18 0)
(3 -7.28784e-18 0)
(3 8.16521e-18 0)
(3 6.52555e-18 0)
(3 -1.05456e-16 0)
(3 -3.5522e-16 0)
(3 -3.67221e-16 0)
(3 -3.63284e-16 0)
(3 -4.10424e-16 0)
(3 -5.25153e-16 0)
(3 -1.83142e-16 0)
(3 6.53264e-17 0)
(3 4.31314e-16 0)
(3 5.4581e-16 0)
(3 3.08703e-16 0)
(3 4.63767e-17 0)
(3 -8.54599e-17 0)
(3 8.86015e-16 0)
(3 1.36139e-15 0)
(3 1.03231e-15 0)
(3 4.30262e-16 0)
(3 1.37691e-16 0)
(3 -3.70295e-16 0)
(3 -4.78313e-16 0)
(3 -4.22442e-16 0)
(3 -7.6754e-17 0)
(3 2.20273e-16 0)
(3 -5.78693e-16 0)
(3 -6.77874e-16 0)
(3 -1.14664e-15 0)
(3 -1.88309e-15 0)
(3 -6.13914e-16 0)
(3 -2.37935e-17 0)
(3 3.3688e-16 0)
(3 5.12268e-16 0)
(3 6.37898e-16 0)
(3 7.51841e-16 0)
(3 6.27052e-16 0)
(3 -2.20387e-16 0)
(3 -4.64236e-16 0)
(3 -8.04435e-16 0)
(3 -1.11792e-15 0)
(3 -1.39756e-15 0)
(3 -1.7218e-15 0)
(3 -1.55255e-15 0)
(3 -1.42694e-15 0)
(3 -1.31903e-15 0)
(3 -5.02093e-16 0)
(3 -1.17041e-16 0)
(3 -1.55589e-16 0)
(3 -2.50224e-16 0)
(3 -5.65718e-16 0)
(3 -1.16327e-15 0)
(3 -1.37413e-15 0)
(3 -4.97808e-16 0)
(3 -4.9172e-17 0)
(3 1.76458e-16 0)
(3 3.37607e-16 0)
(3 5.19331e-16 0)
(3 5.88459e-16 0)
(3 5.88157e-16 0)
(3 5.60274e-16 0)
(3 5.67125e-16 0)
(3 6.64108e-16 0)
(3 1.08956e-15 0)
(3 1.40635e-15 0)
(3 1.62847e-15 0)
(3 1.73035e-15 0)
(3 1.75891e-15 0)
(3 1.82502e-15 0)
(3 1.93815e-15 0)
(3 1.86113e-15 0)
(3 1.87183e-15 0)
(3 1.79139e-15 0)
(3 9.63923e-16 0)
(3 6.62465e-16 0)
(3 2.72097e-16 0)
(3 -2.03966e-16 0)
(3 -5.60037e-16 0)
(3 -5.11888e-16 0)
(3 -3.21132e-16 0)
(3 -3.13396e-16 0)
(3 -2.83043e-16 0)
(3 -3.52415e-16 0)
(3 -1.04355e-16 0)
(3 9.06385e-16 0)
(3 1.27637e-15 0)
(3 1.31613e-15 0)
(3 1.10883e-15 0)
(3 7.05487e-16 0)
(3 9.74885e-16 0)
(3 1.29402e-15 0)
(3 1.45629e-15 0)
(3 1.31983e-15 0)
(3 1.27094e-15 0)
(3 1.23007e-15 0)
(3 1.26309e-15 0)
(3 1.43967e-15 0)
(3 1.81749e-15 0)
(3 1.90521e-15 0)
(3 2.10458e-15 0)
(3 2.21436e-15 0)
(3 2.14674e-15 0)
(3 1.95224e-15 0)
(3 2.08379e-15 0)
(3 1.70865e-15 0)
(3 1.25818e-15 0)
(3 5.20007e-16 0)
(3 1.16892e-15 0)
(3 1.94905e-15 0)
(3 2.3401e-15 0)
(3 2.68534e-15 0)
(3 2.94773e-15 0)
(3 3.23862e-15 0)
(3 3.54231e-15 0)
(3 2.85582e-15 0)
(3 1.0716e-15 0)
(3 1.12539e-15 0)
(3 1.40705e-15 0)
(3 1.0424e-15 0)
(3 5.54302e-16 0)
(3 4.09237e-16 0)
(3 -1.28439e-17 0)
(3 1.42254e-16 0)
(3 4.59092e-16 0)
(3 4.90988e-16 0)
(3 -4.22705e-17 0)
(3 -5.60006e-17 0)
(3 -3.76547e-16 0)
(3 -6.95858e-16 0)
(3 -1.45513e-15 0)
(3 -3.10533e-16 0)
(3 8.26725e-16 0)
(3 1.87373e-15 0)
(3 2.18905e-15 0)
(3 2.06111e-15 0)
(3 1.68634e-15 0)
(3 1.1637e-15 0)
(3 1.39422e-15 0)
(3 1.78865e-15 0)
(3 2.4028e-15 0)
(3 1.51206e-15 0)
(3 2.09409e-16 0)
(3 1.6553e-16 0)
(3 1.00068e-16 0)
(3 -1.03943e-15 0)
(3 -3.04009e-15 0)
(3 -3.3293e-15 0)
(3 -3.77325e-15 0)
(3 -4.14835e-15 0)
(3 -4.22825e-15 0)
(3 -4.65804e-15 0)
(3 -5.03095e-15 0)
(3 -3.92066e-15 0)
(3 -3.6255e-15 0)
(3 -3.23419e-15 0)
(3 -2.5403e-15 0)
(3 -2.13218e-15 0)
(3 -1.6755e-15 0)
(3 -1.221e-15 0)
(3 -1.21683e-15 0)
(3 -1.41634e-15 0)
(3 -1.91203e-15 0)
(3 -1.73073e-15 0)
(3 -7.99193e-16 0)
(3 -1.07696e-15 0)
(3 -1.21818e-15 0)
(3 -1.77119e-15 0)
(3 -2.09283e-15 0)
(3 -1.14462e-15 0)
(3 -7.84979e-16 0)
(3 -7.70819e-16 0)
(3 -8.53686e-16 0)
(3 -8.49557e-16 0)
(3 -5.46907e-16 0)
(3 -1.73381e-16 0)
(3 1.72042e-16 0)
(3 1.41014e-16 0)
(3 -1.02994e-16 0)
(3 -3.97257e-16 0)
(3 -5.33082e-17 0)
(3 -4.11524e-16 0)
(3 -5.43945e-16 0)
(3 -3.45692e-16 0)
(3 1.6515e-16 0)
(3 6.55189e-16 0)
(3 1.04305e-15 0)
(3 1.35206e-15 0)
(3 1.64693e-15 0)
(3 1.79649e-15 0)
(3 2.03046e-15 0)
(3 2.20379e-15 0)
(3 1.9261e-15 0)
(3 1.48882e-15 0)
(3 1.21121e-15 0)
(3 8.16817e-16 0)
(3 6.07554e-16 0)
(3 3.5774e-16 0)
(3 6.604e-17 0)
(3 3.52641e-16 0)
(3 5.83221e-16 0)
(3 1.16964e-15 0)
(3 1.90918e-15 0)
(3 1.23032e-15 0)
(3 8.11895e-16 0)
(3 2.06017e-15 0)
(3 4.52625e-15 0)
(3 5.29907e-15 0)
(3 5.24492e-15 0)
(3 4.76387e-15 0)
(3 4.33142e-15 0)
(3 3.39725e-15 0)
(3 1.64998e-15 0)
(3 8.02407e-16 0)
(3 7.01107e-16 0)
(3 8.31892e-16 0)
(3 1.10578e-15 0)
(3 1.2076e-15 0)
(3 9.36322e-16 0)
(3 7.56942e-17 0)
(3 -3.92778e-16 0)
(3 -9.25446e-16 0)
(3 -9.47228e-16 0)
(3 -5.34605e-16 0)
(3 4.72792e-16 0)
(3 3.24606e-15 0)
(3 4.40343e-15 0)
(3 3.91513e-15 0)
(3 1.46065e-15 0)
(3 4.99322e-16 0)
(3 -2.15039e-16 0)
(3 -4.41979e-16 0)
(3 1.16983e-16 0)
(3 9.98219e-16 0)
(3 1.54048e-15 0)
(3 1.86152e-15 0)
(3 2.36152e-15 0)
(3 2.90678e-15 0)
(3 3.19252e-15 0)
(3 4.53508e-15 0)
(3 5.17712e-15 0)
(3 5.1484e-15 0)
(3 4.75971e-15 0)
(3 3.64749e-15 0)
(3 2.45149e-15 0)
(3 9.55859e-16 0)
(3 4.0409e-16 0)
(3 2.51013e-16 0)
(3 -1.3345e-16 0)
(3 -3.57401e-16 0)
(3 -4.07579e-16 0)
(3 -4.74819e-16 0)
(3 -3.49053e-16 0)
(3 -1.72246e-16 0)
(3 -2.81945e-16 0)
(3 -1.27681e-15 0)
(3 -1.74432e-15 0)
(3 -9.33881e-16 0)
(3 7.61316e-16 0)
(3 1.4321e-15 0)
(3 1.68959e-15 0)
(3 5.01447e-16 0)
(3 -7.80904e-16 0)
(3 -1.03133e-15 0)
(3 -1.35534e-15 0)
(3 -1.50014e-15 0)
(3 -2.63263e-16 0)
(3 1.41222e-15 0)
(3 1.37342e-15 0)
(3 1.09238e-15 0)
(3 1.53414e-15 0)
(3 1.78292e-15 0)
(3 2.69044e-15 0)
(3 2.79876e-15 0)
(3 3.1997e-15 0)
(3 3.16623e-15 0)
(3 2.04441e-15 0)
(3 7.68578e-16 0)
(3 6.38438e-16 0)
(3 6.35388e-16 0)
(3 8.10799e-16 0)
(3 9.17341e-16 0)
(3 2.05382e-15 0)
(3 2.20228e-15 0)
(3 4.67399e-16 0)
(3 -4.65649e-16 0)
(3 -6.60634e-16 0)
(3 -9.52252e-16 0)
(3 -1.14644e-15 0)
(3 -1.67238e-15 0)
(3 -1.31729e-15 0)
(3 -6.24506e-16 0)
(3 -5.71758e-16 0)
(3 -7.70823e-16 0)
(3 -1.29402e-15 0)
(3 -7.94665e-16 0)
(3 1.10933e-15 0)
(3 2.04034e-15 0)
(3 2.51092e-15 0)
(3 2.5426e-15 0)
(3 2.26103e-15 0)
(3 1.96925e-15 0)
(3 1.13234e-15 0)
(3 7.61164e-16 0)
(3 7.70922e-16 0)
(3 1.11425e-15 0)
(3 1.90817e-15 0)
(3 1.94482e-15 0)
(3 2.40944e-15 0)
(3 2.97622e-15 0)
(3 3.52664e-15 0)
(3 3.91924e-15 0)
(3 4.37508e-15 0)
(3 4.5389e-15 0)
(3 5.55197e-15 0)
(3 3.77376e-15 0)
(3 2.54831e-15 0)
(3 1.93066e-15 0)
(3 1.37566e-15 0)
(3 1.20201e-15 0)
(3 1.12754e-15 0)
(3 1.20805e-15 0)
(3 1.22661e-15 0)
(3 1.48173e-15 0)
(3 1.53568e-15 0)
(3 1.33985e-15 0)
(3 2.22525e-15 0)
(3 2.33126e-15 0)
(3 2.27576e-15 0)
(3 1.97341e-15 0)
(3 1.96678e-15 0)
(3 1.99475e-15 0)
(3 1.67341e-15 0)
(3 2.58075e-15 0)
(3 4.13957e-15 0)
(3 5.51923e-15 0)
(3 6.02815e-15 0)
(3 5.47747e-15 0)
(3 5.28941e-15 0)
(3 6.22871e-15 0)
(3 7.0754e-15 0)
(3 6.70695e-15 0)
(3 4.65787e-15 0)
(3 2.56762e-15 0)
(3 2.62355e-15 0)
(3 3.00169e-15 0)
(3 3.08484e-15 0)
(3 3.61065e-15 0)
(3 3.71006e-15 0)
(3 3.67211e-15 0)
(3 3.86846e-15 0)
(3 4.05583e-15 0)
(3 3.73818e-15 0)
(3 3.1759e-15 0)
(3 3.13402e-15 0)
(3 3.19414e-15 0)
(3 3.32616e-15 0)
(3 3.69013e-15 0)
(3 3.71646e-15 0)
(3 3.48309e-15 0)
(3 3.59177e-15 0)
(3 3.67639e-15 0)
(3 3.58666e-15 0)
(3 3.03253e-15 0)
(3 3.18906e-15 0)
(3 -5.50048e-17 0)
(3 -3.20505e-17 0)
(3 1.99033e-17 0)
(3 -4.5625e-17 0)
(3 -1.60774e-16 0)
(3 -1.88445e-16 0)
(3 -2.07639e-16 0)
(3 -3.04366e-16 0)
(3 -4.38358e-16 0)
(3 -5.61066e-16 0)
(3 -4.05327e-16 0)
(3 -2.71817e-16 0)
(3 -2.74906e-16 0)
(3 -4.48173e-16 0)
(3 -2.35838e-16 0)
(3 -1.25233e-17 0)
(3 4.13805e-17 0)
(3 3.34981e-16 0)
(3 3.94933e-16 0)
(3 3.7509e-16 0)
(3 7.91377e-17 0)
(3 -1.88501e-16 0)
(3 -2.95032e-16 0)
(3 -5.17198e-16 0)
(3 -7.38953e-16 0)
(3 -6.91737e-16 0)
(3 -5.32083e-16 0)
(3 -6.43741e-16 0)
(3 -8.49469e-16 0)
(3 -2.82822e-16 0)
(3 2.77028e-16 0)
(3 5.46456e-16 0)
(3 8.88348e-16 0)
(3 6.73326e-16 0)
(3 6.88154e-17 0)
(3 -2.58823e-16 0)
(3 -1.53727e-16 0)
(3 1.43286e-15 0)
(3 1.76748e-15 0)
(3 1.7188e-15 0)
(3 9.61718e-16 0)
(3 5.84526e-16 0)
(3 -3.00543e-16 0)
(3 -6.01176e-16 0)
(3 -3.97412e-16 0)
(3 -1.3422e-16 0)
(3 -1.91758e-15 0)
(3 -2.43884e-15 0)
(3 -2.78405e-15 0)
(3 -2.79714e-15 0)
(3 -2.31735e-15 0)
(3 -3.43537e-15 0)
(3 -2.57683e-15 0)
(3 -1.52893e-15 0)
(3 -6.85027e-16 0)
(3 -1.99752e-16 0)
(3 1.82175e-18 0)
(3 -2.22314e-16 0)
(3 -8.44676e-16 0)
(3 -1.21557e-15 0)
(3 -1.29429e-15 0)
(3 -1.25888e-15 0)
(3 -1.15412e-15 0)
(3 -9.09914e-16 0)
(3 -8.22298e-16 0)
(3 -7.00434e-16 0)
(3 -2.65758e-16 0)
(3 -2.9758e-17 0)
(3 2.44698e-16 0)
(3 -2.17264e-16 0)
(3 -1.12768e-15 0)
(3 -1.71762e-15 0)
(3 -1.35213e-15 0)
(3 -6.04979e-16 0)
(3 -4.32572e-16 0)
(3 -4.76161e-17 0)
(3 1.14723e-16 0)
(3 2.91754e-16 0)
(3 3.09918e-16 0)
(3 1.36908e-16 0)
(3 2.35663e-16 0)
(3 5.41856e-16 0)
(3 7.23589e-16 0)
(3 1.19276e-15 0)
(3 2.01065e-15 0)
(3 2.09874e-15 0)
(3 2.11653e-15 0)
(3 1.77329e-15 0)
(3 1.95153e-15 0)
(3 1.75719e-15 0)
(3 5.83959e-16 0)
(3 3.49238e-16 0)
(3 5.87748e-16 0)
(3 1.18758e-15 0)
(3 -1.95528e-16 0)
(3 -1.88688e-15 0)
(3 -2.366e-15 0)
(3 -1.75545e-15 0)
(3 -1.56001e-15 0)
(3 -1.21042e-15 0)
(3 -1.08177e-15 0)
(3 -1.43357e-15 0)
(3 -1.93719e-15 0)
(3 -2.18642e-15 0)
(3 -2.3862e-15 0)
(3 -2.49643e-15 0)
(3 -2.35845e-15 0)
(3 -2.1025e-15 0)
(3 -1.86966e-15 0)
(3 -1.56021e-15 0)
(3 -8.78004e-16 0)
(3 -3.72596e-16 0)
(3 5.97699e-17 0)
(3 2.65673e-16 0)
(3 8.98082e-16 0)
(3 1.31037e-15 0)
(3 1.81174e-15 0)
(3 2.48579e-15 0)
(3 2.72104e-15 0)
(3 3.13899e-15 0)
(3 3.29529e-15 0)
(3 2.96103e-15 0)
(3 2.07152e-15 0)
(3 1.78912e-15 0)
(3 1.49724e-15 0)
(3 1.91627e-15 0)
(3 2.01949e-15 0)
(3 2.22079e-15 0)
(3 2.78529e-15 0)
(3 3.08306e-15 0)
(3 3.40919e-15 0)
(3 4.01893e-15 0)
(3 3.89746e-15 0)
(3 2.8788e-15 0)
(3 2.62661e-15 0)
(3 2.30089e-15 0)
(3 2.4619e-15 0)
(3 2.47755e-15 0)
(3 1.38523e-15 0)
(3 7.42613e-16 0)
(3 8.88343e-16 0)
(3 1.12106e-15 0)
(3 1.36059e-15 0)
(3 1.55941e-15 0)
(3 1.48438e-15 0)
(3 3.42828e-16 0)
(3 -2.48096e-17 0)
(3 -3.73849e-16 0)
(3 1.23692e-16 0)
(3 2.58977e-15 0)
(3 4.13358e-15 0)
(3 3.60744e-15 0)
(3 2.75055e-15 0)
(3 2.60913e-15 0)
(3 2.87217e-15 0)
(3 2.9549e-15 0)
(3 3.22886e-15 0)
(3 3.21293e-15 0)
(3 1.10924e-15 0)
(3 6.96884e-16 0)
(3 1.40659e-15 0)
(3 1.98596e-15 0)
(3 1.37228e-15 0)
(3 -1.14482e-15 0)
(3 -4.57575e-15 0)
(3 -5.82687e-15 0)
(3 -5.92788e-15 0)
(3 -6.73749e-15 0)
(3 -8.08211e-15 0)
(3 -8.02952e-15 0)
(3 -6.99362e-15 0)
(3 -5.08974e-15 0)
(3 -3.63492e-15 0)
(3 -3.59919e-15 0)
(3 -2.34903e-15 0)
(3 -2.14337e-15 0)
(3 -2.33434e-15 0)
(3 -3.03476e-15 0)
(3 -2.15417e-15 0)
(3 -5.37506e-16 0)
(3 -6.25653e-16 0)
(3 -4.21648e-15 0)
(3 -4.47962e-15 0)
(3 -3.36683e-15 0)
(3 -2.3088e-15 0)
(3 6.1762e-16 0)
(3 1.22054e-15 0)
(3 1.04355e-15 0)
(3 7.94203e-16 0)
(3 7.46354e-16 0)
(3 8.53107e-16 0)
(3 4.69111e-16 0)
(3 6.794e-16 0)
(3 1.80502e-15 0)
(3 2.06064e-15 0)
(3 2.48888e-15 0)
(3 2.57761e-15 0)
(3 1.91037e-15 0)
(3 9.96986e-16 0)
(3 6.15861e-16 0)
(3 8.54242e-16 0)
(3 7.4842e-16 0)
(3 1.56945e-16 0)
(3 -4.06731e-16 0)
(3 1.65834e-15 0)
(3 3.0617e-15 0)
(3 3.17502e-15 0)
(3 3.97351e-15 0)
(3 4.48366e-15 0)
(3 4.64223e-15 0)
(3 4.82467e-15 0)
(3 4.58819e-15 0)
(3 4.3238e-15 0)
(3 4.06518e-15 0)
(3 3.68566e-15 0)
(3 3.41111e-15 0)
(3 3.20119e-15 0)
(3 3.36381e-15 0)
(3 3.60659e-15 0)
(3 4.98793e-15 0)
(3 5.33004e-15 0)
(3 4.47159e-15 0)
(3 3.89984e-15 0)
(3 5.07463e-15 0)
(3 6.33667e-15 0)
(3 7.49732e-15 0)
(3 7.49395e-15 0)
(3 7.18738e-15 0)
(3 6.63085e-15 0)
(3 5.73906e-15 0)
(3 2.38832e-15 0)
(3 7.27818e-16 0)
(3 7.10025e-17 0)
(3 -2.73061e-16 0)
(3 3.66778e-16 0)
(3 1.0205e-15 0)
(3 1.25604e-15 0)
(3 9.10659e-16 0)
(3 -5.81456e-16 0)
(3 -7.87434e-16 0)
(3 -5.10419e-16 0)
(3 -2.50624e-16 0)
(3 -2.72923e-16 0)
(3 1.82924e-15 0)
(3 3.78943e-15 0)
(3 3.71252e-15 0)
(3 3.22907e-15 0)
(3 1.74657e-15 0)
(3 6.02388e-16 0)
(3 8.0748e-16 0)
(3 2.20522e-15 0)
(3 3.91786e-15 0)
(3 5.14943e-15 0)
(3 5.5468e-15 0)
(3 5.43386e-15 0)
(3 5.7626e-15 0)
(3 6.18708e-15 0)
(3 6.27941e-15 0)
(3 6.73928e-15 0)
(3 7.49738e-15 0)
(3 8.77848e-15 0)
(3 9.1012e-15 0)
(3 6.98174e-15 0)
(3 4.69935e-15 0)
(3 2.28002e-15 0)
(3 1.00691e-15 0)
(3 3.01051e-16 0)
(3 -1.13744e-16 0)
(3 -5.03934e-16 0)
(3 -6.36905e-16 0)
(3 -2.19139e-16 0)
(3 1.1376e-15 0)
(3 1.77879e-15 0)
(3 2.09072e-15 0)
(3 2.20084e-15 0)
(3 2.15578e-15 0)
(3 2.54428e-15 0)
(3 2.8323e-15 0)
(3 2.81397e-15 0)
(3 3.25992e-15 0)
(3 3.0191e-15 0)
(3 1.60269e-15 0)
(3 8.49796e-16 0)
(3 3.87954e-17 0)
(3 -3.45561e-16 0)
(3 4.25912e-16 0)
(3 1.75767e-15 0)
(3 1.9762e-15 0)
(3 2.52248e-15 0)
(3 3.50894e-15 0)
(3 3.82245e-15 0)
(3 3.43828e-15 0)
(3 3.3749e-15 0)
(3 3.40811e-15 0)
(3 2.69858e-15 0)
(3 2.37493e-15 0)
(3 2.40727e-15 0)
(3 2.78902e-15 0)
(3 3.02126e-15 0)
(3 4.02781e-15 0)
(3 4.79848e-15 0)
(3 5.61775e-15 0)
(3 5.76791e-15 0)
(3 5.10582e-15 0)
(3 4.71027e-15 0)
(3 4.48048e-15 0)
(3 3.88395e-15 0)
(3 2.88094e-15 0)
(3 2.46354e-15 0)
(3 2.20714e-15 0)
(3 2.31356e-15 0)
(3 3.05884e-15 0)
(3 3.26721e-15 0)
(3 2.32005e-15 0)
(3 2.04959e-15 0)
(3 3.45231e-15 0)
(3 5.45363e-15 0)
(3 5.75178e-15 0)
(3 6.22397e-15 0)
(3 6.46458e-15 0)
(3 6.8641e-15 0)
(3 7.7356e-15 0)
(3 8.06323e-15 0)
(3 7.95143e-15 0)
(3 7.48175e-15 0)
(3 7.50064e-15 0)
(3 8.04686e-15 0)
(3 8.4153e-15 0)
(3 8.48246e-15 0)
(3 8.84326e-15 0)
(3 9.24274e-15 0)
(3 1.08897e-14 0)
(3 1.12669e-14 0)
(3 1.12905e-14 0)
(3 9.19198e-15 0)
(3 8.70955e-15 0)
(3 8.0364e-15 0)
(3 6.26795e-15 0)
(3 5.00017e-15 0)
(3 4.68427e-15 0)
(3 4.45256e-15 0)
(3 5.30297e-15 0)
(3 5.2859e-15 0)
(3 5.32673e-15 0)
(3 5.14382e-15 0)
(3 5.21599e-15 0)
(3 5.61192e-15 0)
(3 5.81397e-15 0)
(3 5.59178e-15 0)
(3 5.55112e-15 0)
(3 6.09535e-15 0)
(3 6.66272e-15 0)
(3 6.75536e-15 0)
(3 9.52327e-15 0)
(3 1.11764e-14 0)
(3 1.24556e-14 0)
(3 1.43111e-14 0)
(3 1.34005e-14 0)
(3 1.07459e-14 0)
(3 1.0802e-14 0)
(3 1.02118e-14 0)
(3 1.00586e-14 0)
(3 1.04572e-14 0)
(3 9.4615e-15 0)
(3 6.81439e-15 0)
(3 6.5785e-15 0)
(3 7.72261e-15 0)
(3 7.38081e-15 0)
(3 6.51228e-15 0)
(3 6.07823e-15 0)
(3 5.9821e-15 0)
(3 5.81099e-15 0)
(3 5.54094e-15 0)
(3 5.51428e-15 0)
(3 5.57066e-15 0)
(3 6.26422e-15 0)
(3 6.68724e-15 0)
(3 7.05415e-15 0)
(3 6.8904e-15 0)
(3 7.34757e-15 0)
(3 8.51608e-15 0)
(3 6.05216e-15 0)
(3 5.12493e-15 0)
(3 3.75924e-15 0)
(3 -3.53828e-17 0)
(3 2.84593e-18 0)
(3 1.61077e-16 0)
(3 2.8953e-16 0)
(3 2.57936e-16 0)
(3 9.37463e-17 0)
(3 2.0865e-16 0)
(3 1.66193e-16 0)
(3 6.52887e-17 0)
(3 3.88501e-17 0)
(3 1.00067e-16 0)
(3 1.35089e-16 0)
(3 4.44548e-16 0)
(3 4.42161e-16 0)
(3 2.71287e-16 0)
(3 -3.18446e-16 0)
(3 -3.03464e-16 0)
(3 -1.70676e-16 0)
(3 4.87092e-17 0)
(3 3.29338e-17 0)
(3 3.92928e-17 0)
(3 -6.15455e-17 0)
(3 -2.42058e-16 0)
(3 -4.70454e-16 0)
(3 -6.07016e-16 0)
(3 -3.77765e-16 0)
(3 -2.69393e-16 0)
(3 1.66751e-16 0)
(3 2.51981e-16 0)
(3 5.56126e-16 0)
(3 6.00152e-16 0)
(3 3.89448e-16 0)
(3 6.35949e-16 0)
(3 8.8211e-16 0)
(3 1.52257e-15 0)
(3 1.65318e-15 0)
(3 1.8743e-15 0)
(3 1.08274e-15 0)
(3 6.26308e-16 0)
(3 2.76568e-16 0)
(3 2.39453e-16 0)
(3 3.32119e-16 0)
(3 7.19659e-16 0)
(3 4.83258e-16 0)
(3 5.18349e-17 0)
(3 -1.30235e-16 0)
(3 -2.1366e-16 0)
(3 -2.02982e-16 0)
(3 -4.67862e-16 0)
(3 -7.12975e-16 0)
(3 -1.32742e-15 0)
(3 -2.02394e-15 0)
(3 -1.42339e-15 0)
(3 -1.28547e-15 0)
(3 -1.44398e-15 0)
(3 -1.00038e-15 0)
(3 -6.13716e-17 0)
(3 2.86778e-16 0)
(3 5.92368e-16 0)
(3 8.11311e-16 0)
(3 8.85485e-16 0)
(3 8.92446e-16 0)
(3 5.89056e-16 0)
(3 -1.60429e-16 0)
(3 -7.32767e-16 0)
(3 9.31421e-16 0)
(3 2.46839e-15 0)
(3 2.62931e-15 0)
(3 2.34525e-15 0)
(3 1.39797e-15 0)
(3 8.45576e-17 0)
(3 -1.61407e-16 0)
(3 7.75899e-17 0)
(3 3.49956e-16 0)
(3 -1.27232e-16 0)
(3 -4.10646e-16 0)
(3 -3.35078e-16 0)
(3 -5.02979e-17 0)
(3 -9.95594e-17 0)
(3 -7.25012e-17 0)
(3 -2.88412e-18 0)
(3 2.25945e-16 0)
(3 1.52228e-16 0)
(3 -5.50286e-16 0)
(3 -5.99862e-16 0)
(3 -3.97409e-16 0)
(3 -5.87755e-16 0)
(3 -6.5437e-16 0)
(3 -6.50146e-17 0)
(3 2.46186e-16 0)
(3 -8.24207e-16 0)
(3 -2.69484e-15 0)
(3 -2.97149e-15 0)
(3 -2.97485e-15 0)
(3 -3.02228e-15 0)
(3 -2.94177e-15 0)
(3 -2.93369e-15 0)
(3 -2.85499e-15 0)
(3 -2.66771e-15 0)
(3 -2.50454e-15 0)
(3 -2.59005e-15 0)
(3 -3.00664e-15 0)
(3 -3.16373e-15 0)
(3 -3.71726e-15 0)
(3 -4.10194e-15 0)
(3 -4.12145e-15 0)
(3 -3.90435e-15 0)
(3 -3.79218e-15 0)
(3 -3.84822e-15 0)
(3 -3.53011e-15 0)
(3 -3.06231e-15 0)
(3 -2.9392e-15 0)
(3 -1.77538e-15 0)
(3 -1.35588e-15 0)
(3 -6.70474e-16 0)
(3 -5.77599e-16 0)
(3 -7.09984e-16 0)
(3 -2.81216e-17 0)
(3 6.53832e-16 0)
(3 6.65684e-16 0)
(3 4.20272e-16 0)
(3 5.12711e-16 0)
(3 1.44817e-15 0)
(3 1.67892e-15 0)
(3 2.03661e-15 0)
(3 3.20237e-15 0)
(3 3.95738e-15 0)
(3 4.34222e-15 0)
(3 4.43529e-15 0)
(3 4.02956e-15 0)
(3 3.35183e-15 0)
(3 2.86447e-15 0)
(3 2.00987e-15 0)
(3 1.24741e-15 0)
(3 1.12711e-15 0)
(3 4.4369e-17 0)
(3 -8.48554e-16 0)
(3 -1.88023e-16 0)
(3 1.34473e-15 0)
(3 1.64933e-15 0)
(3 2.07681e-16 0)
(3 -1.01621e-15 0)
(3 -1.30382e-15 0)
(3 -1.18816e-15 0)
(3 -7.88152e-16 0)
(3 -6.97668e-16 0)
(3 -7.42894e-16 0)
(3 -9.53701e-16 0)
(3 -7.94121e-16 0)
(3 -5.27835e-16 0)
(3 -1.07611e-15 0)
(3 -1.68353e-15 0)
(3 -1.62817e-15 0)
(3 -1.17325e-15 0)
(3 -1.40398e-16 0)
(3 2.90142e-16 0)
(3 3.90874e-16 0)
(3 -1.92966e-15 0)
(3 -2.35336e-15 0)
(3 -2.6927e-15 0)
(3 -2.94617e-15 0)
(3 -3.00931e-15 0)
(3 -3.10712e-15 0)
(3 -2.44898e-15 0)
(3 -1.87872e-15 0)
(3 -7.13978e-16 0)
(3 -5.63029e-16 0)
(3 -7.05086e-16 0)
(3 -6.71815e-16 0)
(3 -4.91799e-16 0)
(3 -3.67222e-16 0)
(3 4.07407e-16 0)
(3 1.21485e-15 0)
(3 1.24587e-15 0)
(3 6.1676e-16 0)
(3 -8.0173e-16 0)
(3 -1.48731e-15 0)
(3 -2.42966e-15 0)
(3 -2.75615e-15 0)
(3 -2.3498e-15 0)
(3 -2.15232e-15 0)
(3 -1.50456e-15 0)
(3 -1.28012e-15 0)
(3 -1.22092e-15 0)
(3 -4.25599e-16 0)
(3 2.95175e-16 0)
(3 7.39047e-16 0)
(3 1.46983e-15 0)
(3 1.79133e-15 0)
(3 1.9919e-15 0)
(3 2.09515e-15 0)
(3 2.35775e-15 0)
(3 2.65536e-15 0)
(3 2.51944e-15 0)
(3 2.53313e-15 0)
(3 3.18578e-15 0)
(3 4.76623e-15 0)
(3 5.49564e-15 0)
(3 6.36397e-15 0)
(3 6.27368e-15 0)
(3 5.19073e-15 0)
(3 4.40586e-15 0)
(3 4.35877e-15 0)
(3 4.31114e-15 0)
(3 4.53166e-15 0)
(3 4.46322e-15 0)
(3 4.17313e-15 0)
(3 5.68529e-15 0)
(3 7.34679e-15 0)
(3 7.66647e-15 0)
(3 7.73096e-15 0)
(3 8.00391e-15 0)
(3 8.28604e-15 0)
(3 8.46314e-15 0)
(3 8.72107e-15 0)
(3 8.74587e-15 0)
(3 8.5078e-15 0)
(3 8.34685e-15 0)
(3 7.93484e-15 0)
(3 5.52571e-15 0)
(3 3.80776e-15 0)
(3 2.98752e-15 0)
(3 2.16028e-15 0)
(3 1.94632e-15 0)
(3 2.93098e-15 0)
(3 4.55029e-15 0)
(3 4.02609e-15 0)
(3 3.81107e-15 0)
(3 3.32801e-15 0)
(3 1.20308e-15 0)
(3 7.76407e-16 0)
(3 8.70948e-16 0)
(3 1.00368e-15 0)
(3 7.40261e-16 0)
(3 1.499e-15 0)
(3 2.73361e-15 0)
(3 2.68403e-15 0)
(3 2.63806e-15 0)
(3 3.70061e-15 0)
(3 4.30458e-15 0)
(3 4.414e-15 0)
(3 3.9288e-15 0)
(3 3.5573e-15 0)
(3 4.06341e-15 0)
(3 5.63413e-15 0)
(3 6.01544e-15 0)
(3 3.99019e-15 0)
(3 2.97387e-15 0)
(3 2.35848e-15 0)
(3 2.73725e-15 0)
(3 3.63645e-15 0)
(3 4.73792e-15 0)
(3 5.57182e-15 0)
(3 4.88232e-15 0)
(3 4.44074e-15 0)
(3 4.01964e-15 0)
(3 4.10091e-15 0)
(3 4.69217e-15 0)
(3 5.36898e-15 0)
(3 5.70411e-15 0)
(3 5.53056e-15 0)
(3 6.3449e-15 0)
(3 6.13425e-15 0)
(3 5.32156e-15 0)
(3 3.59609e-15 0)
(3 2.17032e-15 0)
(3 1.40138e-15 0)
(3 8.15498e-16 0)
(3 4.30551e-16 0)
(3 2.02798e-16 0)
(3 -1.10078e-16 0)
(3 1.07195e-16 0)
(3 1.37762e-15 0)
(3 3.17474e-15 0)
(3 4.34111e-15 0)
(3 4.4799e-15 0)
(3 4.15241e-15 0)
(3 3.81871e-15 0)
(3 3.60801e-15 0)
(3 3.54165e-15 0)
(3 2.63163e-15 0)
(3 1.02022e-15 0)
(3 5.79055e-16 0)
(3 -4.16482e-16 0)
(3 -2.85821e-16 0)
(3 -2.80255e-16 0)
(3 -1.92575e-16 0)
(3 5.49774e-16 0)
(3 1.84525e-15 0)
(3 1.19905e-15 0)
(3 3.20826e-16 0)
(3 1.51833e-16 0)
(3 -3.32076e-17 0)
(3 -6.62387e-17 0)
(3 1.15952e-15 0)
(3 2.06378e-15 0)
(3 2.45138e-15 0)
(3 3.00902e-15 0)
(3 2.72104e-15 0)
(3 2.47427e-15 0)
(3 2.8075e-15 0)
(3 3.1466e-15 0)
(3 3.84937e-15 0)
(3 4.90213e-15 0)
(3 5.29906e-15 0)
(3 5.22721e-15 0)
(3 4.94079e-15 0)
(3 4.13272e-15 0)
(3 3.99847e-15 0)
(3 3.95168e-15 0)
(3 4.36604e-15 0)
(3 4.64975e-15 0)
(3 4.66598e-15 0)
(3 4.45113e-15 0)
(3 3.88997e-15 0)
(3 3.73925e-15 0)
(3 3.7038e-15 0)
(3 3.78674e-15 0)
(3 3.9238e-15 0)
(3 4.67316e-15 0)
(3 7.04557e-15 0)
(3 7.89066e-15 0)
(3 8.61049e-15 0)
(3 9.47402e-15 0)
(3 1.08108e-14 0)
(3 1.10735e-14 0)
(3 1.12717e-14 0)
(3 1.16038e-14 0)
(3 1.17605e-14 0)
(3 1.16664e-14 0)
(3 1.15198e-14 0)
(3 1.12774e-14 0)
(3 1.13411e-14 0)
(3 1.13055e-14 0)
(3 1.12179e-14 0)
(3 1.0325e-14 0)
(3 9.43048e-15 0)
(3 8.37582e-15 0)
(3 8.01163e-15 0)
(3 7.74267e-15 0)
(3 7.57397e-15 0)
(3 7.95911e-15 0)
(3 8.27625e-15 0)
(3 7.27685e-15 0)
(3 6.58428e-15 0)
(3 6.4301e-15 0)
(3 6.40004e-15 0)
(3 6.31319e-15 0)
(3 5.30696e-15 0)
(3 4.49844e-15 0)
(3 4.48423e-15 0)
(3 5.08089e-15 0)
(3 5.04915e-15 0)
(3 4.79724e-15 0)
(3 4.51701e-15 0)
(3 4.44057e-15 0)
(3 6.52112e-15 0)
(3 8.76216e-15 0)
(3 8.43066e-15 0)
(3 8.27272e-15 0)
(3 8.54932e-15 0)
(3 8.81774e-15 0)
(3 8.01134e-15 0)
(3 7.19477e-15 0)
(3 6.94885e-15 0)
(3 5.37714e-15 0)
(3 4.07491e-15 0)
(3 3.76223e-15 0)
(3 4.45318e-15 0)
(3 4.78595e-15 0)
(3 4.9255e-15 0)
(3 4.58373e-15 0)
(3 4.16685e-15 0)
(3 3.85058e-15 0)
(3 3.95809e-15 0)
(3 2.87184e-15 0)
(3 2.44437e-15 0)
(3 2.6512e-15 0)
(3 3.47916e-15 0)
(3 4.60928e-15 0)
(3 3.96335e-15 0)
(3 3.36197e-15 0)
(3 2.77357e-15 0)
(3 1.93012e-15 0)
(3 -1.80909e-17 0)
(3 -3.53483e-17 0)
(3 -4.09055e-17 0)
(3 8.56458e-18 0)
(3 1.12107e-16 0)
(3 1.31394e-16 0)
(3 5.6991e-17 0)
(3 1.37025e-17 0)
(3 7.73281e-20 0)
(3 9.60399e-17 0)
(3 1.00287e-16 0)
(3 3.39766e-17 0)
(3 -9.35177e-18 0)
(3 -4.09342e-17 0)
(3 -1.47844e-16 0)
(3 -1.50503e-16 0)
(3 -1.00819e-16 0)
(3 -3.98804e-17 0)
(3 -1.74312e-16 0)
(3 -1.83843e-16 0)
(3 -4.84333e-16 0)
(3 -7.07878e-16 0)
(3 -5.50703e-16 0)
(3 -4.42843e-16 0)
(3 -1.51399e-16 0)
(3 -1.39582e-16 0)
(3 -2.5007e-16 0)
(3 -1.12528e-16 0)
(3 3.16341e-16 0)
(3 4.2054e-16 0)
(3 3.02984e-16 0)
(3 4.39256e-16 0)
(3 6.92513e-16 0)
(3 8.41011e-16 0)
(3 1.08299e-15 0)
(3 1.00798e-15 0)
(3 8.79544e-16 0)
(3 2.17421e-16 0)
(3 -8.45356e-16 0)
(3 -1.35191e-15 0)
(3 -3.88629e-16 0)
(3 1.57833e-15 0)
(3 1.69418e-15 0)
(3 1.61734e-15 0)
(3 1.65013e-15 0)
(3 1.87493e-15 0)
(3 2.44432e-15 0)
(3 2.75016e-15 0)
(3 2.79574e-15 0)
(3 2.30923e-15 0)
(3 1.32949e-15 0)
(3 8.20429e-16 0)
(3 1.40738e-15 0)
(3 1.69963e-15 0)
(3 1.94036e-15 0)
(3 1.98045e-15 0)
(3 1.02757e-15 0)
(3 8.54907e-16 0)
(3 7.15664e-16 0)
(3 7.31456e-16 0)
(3 9.63553e-16 0)
(3 1.03778e-15 0)
(3 1.17245e-15 0)
(3 1.3452e-15 0)
(3 1.31699e-15 0)
(3 3.83167e-16 0)
(3 -2.60461e-16 0)
(3 -2.68171e-16 0)
(3 -5.77371e-16 0)
(3 -1.20718e-15 0)
(3 -1.24312e-15 0)
(3 -9.32568e-16 0)
(3 -1.57556e-15 0)
(3 -2.1547e-15 0)
(3 -2.09076e-15 0)
(3 -1.96293e-15 0)
(3 -2.0831e-15 0)
(3 -2.12327e-15 0)
(3 -1.84638e-15 0)
(3 -1.18851e-15 0)
(3 -1.24092e-15 0)
(3 -1.30082e-15 0)
(3 -1.50556e-15 0)
(3 -1.84179e-15 0)
(3 -2.68879e-15 0)
(3 -2.94037e-15 0)
(3 -3.05272e-15 0)
(3 -3.18116e-15 0)
(3 -3.32774e-15 0)
(3 -3.36051e-15 0)
(3 -3.67215e-15 0)
(3 -4.08691e-15 0)
(3 -4.41398e-15 0)
(3 -4.68381e-15 0)
(3 -4.57242e-15 0)
(3 -4.30424e-15 0)
(3 -3.68509e-15 0)
(3 -3.71177e-15 0)
(3 -3.54121e-15 0)
(3 -3.38396e-15 0)
(3 -3.14046e-15 0)
(3 -2.75179e-15 0)
(3 -2.77588e-15 0)
(3 -2.43023e-15 0)
(3 -2.04114e-15 0)
(3 -1.34002e-15 0)
(3 -8.75589e-16 0)
(3 -6.07053e-16 0)
(3 -5.08793e-16 0)
(3 -5.7971e-16 0)
(3 -1.01401e-15 0)
(3 -1.96854e-15 0)
(3 -2.57184e-15 0)
(3 -3.19866e-15 0)
(3 -3.42707e-15 0)
(3 -2.85792e-15 0)
(3 -2.04706e-15 0)
(3 -1.82653e-15 0)
(3 -1.0692e-15 0)
(3 -9.95261e-16 0)
(3 -6.62255e-16 0)
(3 2.47362e-16 0)
(3 7.26433e-16 0)
(3 7.70929e-16 0)
(3 7.67425e-16 0)
(3 7.77834e-16 0)
(3 1.60485e-15 0)
(3 2.14307e-15 0)
(3 2.24323e-15 0)
(3 2.43895e-15 0)
(3 3.37476e-15 0)
(3 4.58411e-15 0)
(3 4.88874e-15 0)
(3 4.75206e-15 0)
(3 4.40276e-15 0)
(3 3.75753e-15 0)
(3 2.58962e-15 0)
(3 2.40636e-15 0)
(3 2.47786e-15 0)
(3 1.81237e-15 0)
(3 7.95814e-16 0)
(3 -2.46101e-16 0)
(3 -2.89072e-16 0)
(3 1.20179e-16 0)
(3 1.34667e-16 0)
(3 -8.3355e-16 0)
(3 -1.48648e-15 0)
(3 -1.80255e-15 0)
(3 -2.20359e-15 0)
(3 -2.2737e-15 0)
(3 -2.64869e-15 0)
(3 -2.74804e-15 0)
(3 -1.3837e-15 0)
(3 -1.17726e-15 0)
(3 -1.3042e-15 0)
(3 -6.30862e-16 0)
(3 -1.8941e-17 0)
(3 9.16898e-17 0)
(3 1.48461e-16 0)
(3 -2.72716e-16 0)
(3 -5.51666e-16 0)
(3 -9.31005e-16 0)
(3 -1.2191e-15 0)
(3 -6.30553e-16 0)
(3 1.31483e-15 0)
(3 2.79303e-15 0)
(3 2.68021e-15 0)
(3 2.35094e-15 0)
(3 2.88614e-15 0)
(3 3.37021e-15 0)
(3 3.81924e-15 0)
(3 4.01789e-15 0)
(3 3.77589e-15 0)
(3 3.7648e-15 0)
(3 2.9296e-15 0)
(3 2.52848e-15 0)
(3 2.34643e-15 0)
(3 1.88747e-15 0)
(3 1.15679e-15 0)
(3 5.73759e-16 0)
(3 2.49561e-16 0)
(3 3.07057e-16 0)
(3 3.13196e-16 0)
(3 -3.41968e-16 0)
(3 7.77953e-16 0)
(3 1.4542e-15 0)
(3 2.21314e-15 0)
(3 2.56962e-15 0)
(3 3.06492e-15 0)
(3 3.5401e-15 0)
(3 2.99654e-15 0)
(3 2.76342e-15 0)
(3 3.25928e-15 0)
(3 3.59797e-15 0)
(3 4.25907e-15 0)
(3 3.63157e-15 0)
(3 3.00699e-15 0)
(3 4.6419e-15 0)
(3 6.47959e-15 0)
(3 6.80347e-15 0)
(3 6.45236e-15 0)
(3 6.19928e-15 0)
(3 5.73243e-15 0)
(3 5.65569e-15 0)
(3 5.3979e-15 0)
(3 5.11609e-15 0)
(3 5.0694e-15 0)
(3 4.61186e-15 0)
(3 3.7531e-15 0)
(3 3.1358e-15 0)
(3 2.86266e-15 0)
(3 2.78587e-15 0)
(3 2.63649e-15 0)
(3 2.41431e-15 0)
(3 2.30103e-15 0)
(3 1.8429e-15 0)
(3 1.18679e-15 0)
(3 2.92014e-16 0)
(3 -1.08614e-16 0)
(3 6.67202e-16 0)
(3 1.44223e-15 0)
(3 1.63937e-15 0)
(3 1.34991e-15 0)
(3 1.72838e-15 0)
(3 4.00846e-15 0)
(3 4.55358e-15 0)
(3 4.51522e-15 0)
(3 3.83938e-15 0)
(3 3.01245e-15 0)
(3 1.2241e-15 0)
(3 5.07832e-16 0)
(3 1.6698e-15 0)
(3 3.17222e-15 0)
(3 3.25056e-15 0)
(3 3.0475e-15 0)
(3 3.33109e-15 0)
(3 3.71478e-15 0)
(3 4.19129e-15 0)
(3 4.1304e-15 0)
(3 3.8863e-15 0)
(3 4.04559e-15 0)
(3 5.0584e-15 0)
(3 5.46876e-15 0)
(3 5.58955e-15 0)
(3 6.9567e-15 0)
(3 7.43031e-15 0)
(3 8.91053e-15 0)
(3 5.85983e-15 0)
(3 2.38087e-15 0)
(3 1.0987e-15 0)
(3 -1.05295e-16 0)
(3 -2.47605e-15 0)
(3 -3.81299e-15 0)
(3 -4.35863e-15 0)
(3 -4.70488e-15 0)
(3 -5.1016e-15 0)
(3 -5.13244e-15 0)
(3 -4.39005e-15 0)
(3 -4.08631e-15 0)
(3 -4.60777e-15 0)
(3 -5.31148e-15 0)
(3 -5.51233e-15 0)
(3 -3.72199e-15 0)
(3 -1.92811e-15 0)
(3 -4.6779e-16 0)
(3 -7.25281e-16 0)
(3 -1.13898e-15 0)
(3 -1.72625e-15 0)
(3 -2.2792e-15 0)
(3 -3.11751e-15 0)
(3 -3.41619e-15 0)
(3 -3.92016e-15 0)
(3 -4.47477e-15 0)
(3 -3.81108e-15 0)
(3 -3.334e-15 0)
(3 -3.12729e-15 0)
(3 -2.23477e-15 0)
(3 -1.90474e-15 0)
(3 -2.07543e-15 0)
(3 -1.52564e-15 0)
(3 -1.25397e-15 0)
(3 -1.80079e-15 0)
(3 -2.48618e-15 0)
(3 -3.0466e-15 0)
(3 -2.98669e-15 0)
(3 -2.84058e-15 0)
(3 -2.59027e-15 0)
(3 -2.57892e-15 0)
(3 -2.70158e-15 0)
(3 -2.97394e-15 0)
(3 -3.36836e-15 0)
(3 -3.27216e-15 0)
(3 -3.06219e-15 0)
(3 -3.39629e-15 0)
(3 -3.45793e-15 0)
(3 -3.40514e-15 0)
(3 -3.4132e-15 0)
(3 -3.3262e-15 0)
(3 -3.17986e-15 0)
(3 -4.13947e-15 0)
(3 -4.84166e-15 0)
(3 -4.84333e-15 0)
(3 -4.76313e-15 0)
(3 -4.0575e-15 0)
(3 -3.10806e-15 0)
(3 -2.07984e-15 0)
(3 -1.96004e-15 0)
(3 -1.84604e-15 0)
(3 -1.59911e-15 0)
(3 -4.73741e-16 0)
(3 9.73729e-16 0)
(3 1.77109e-15 0)
(3 1.96443e-15 0)
(3 2.06852e-15 0)
(3 2.81218e-15 0)
(3 2.76278e-15 0)
(3 2.35869e-15 0)
(3 2.29495e-15 0)
(3 3.3995e-15 0)
(3 3.50962e-15 0)
(3 3.34516e-15 0)
(3 2.97039e-15 0)
(3 3.45443e-15 0)
(3 4.68392e-15 0)
(3 7.53263e-15 0)
(3 1.01742e-14 0)
(3 1.11547e-14 0)
(3 1.07496e-14 0)
(3 8.95638e-15 0)
(3 8.51015e-15 0)
(3 8.53897e-15 0)
(3 7.35405e-15 0)
(3 6.95049e-15 0)
(3 7.03862e-15 0)
(3 7.14079e-15 0)
(3 7.32869e-15 0)
(3 7.98605e-15 0)
(3 8.11971e-15 0)
(3 8.19626e-15 0)
(3 8.28703e-15 0)
(3 8.20179e-15 0)
(3 7.93793e-15 0)
(3 8.82047e-15 0)
(3 8.6016e-15 0)
(3 7.65603e-15 0)
(3 7.21309e-15 0)
(3 7.01722e-15 0)
(3 6.5692e-15 0)
(3 6.13171e-15 0)
(3 5.56708e-15 0)
(3 5.85866e-15 0)
(3 4.51309e-15 0)
(3 2.54024e-15 0)
(3 1.39197e-15 0)
(3 6.7167e-16 0)
(3 3.58639e-16 0)
(3 3.72293e-16 0)
(3 5.19707e-16 0)
(3 1.75241e-15 0)
(3 1.74901e-15 0)
(3 1.84656e-15 0)
(3 1.62598e-15 0)
(3 9.43408e-16 0)
(3 -2.19046e-16 0)
(3 -1.24768e-15 0)
(3 -1.28234e-15 0)
(3 -1.49265e-15 0)
(3 -2.77172e-15 0)
(3 -2.89269e-15 0)
(3 -1.69494e-15 0)
(3 -5.11418e-16 0)
(3 -2.54756e-16 0)
(3 2.53554e-16 0)
(3 3.24294e-16 0)
(3 3.27723e-16 0)
(3 3.40462e-16 0)
(3 5.20507e-16 0)
(3 8.53726e-16 0)
(3 1.13162e-15 0)
(3 1.15893e-15 0)
(3 1.05611e-15 0)
(3 8.8135e-16 0)
(3 7.96839e-16 0)
(3 8.42936e-16 0)
(3 5.95555e-17 0)
(3 1.71017e-17 0)
(3 -1.1809e-16 0)
(3 -1.78689e-16 0)
(3 -1.05324e-16 0)
(3 -4.21273e-17 0)
(3 -3.69819e-17 0)
(3 -1.80383e-17 0)
(3 7.51037e-17 0)
(3 1.93757e-16 0)
(3 1.87759e-16 0)
(3 1.0906e-16 0)
(3 -1.3287e-16 0)
(3 -2.96851e-16 0)
(3 -1.76448e-16 0)
(3 -2.20908e-17 0)
(3 1.6119e-16 0)
(3 3.70708e-16 0)
(3 3.7636e-16 0)
(3 3.87491e-16 0)
(3 -4.15899e-17 0)
(3 -4.63949e-16 0)
(3 -3.88039e-16 0)
(3 -7.17435e-16 0)
(3 -6.58551e-16 0)
(3 3.52664e-16 0)
(3 8.22345e-16 0)
(3 1.24206e-15 0)
(3 7.6477e-16 0)
(3 8.25815e-17 0)
(3 -4.37268e-18 0)
(3 -1.28149e-17 0)
(3 2.05288e-17 0)
(3 8.41219e-17 0)
(3 1.23349e-17 0)
(3 -4.28268e-17 0)
(3 -1.6186e-16 0)
(3 -6.88697e-16 0)
(3 -8.39286e-16 0)
(3 -8.07285e-16 0)
(3 -1.0794e-15 0)
(3 -1.08986e-15 0)
(3 -8.99835e-16 0)
(3 -4.28274e-16 0)
(3 -2.41251e-16 0)
(3 -2.97975e-16 0)
(3 -3.15317e-16 0)
(3 -1.7258e-16 0)
(3 -6.91791e-17 0)
(3 6.72944e-17 0)
(3 -2.02824e-16 0)
(3 -5.86149e-16 0)
(3 -4.34146e-17 0)
(3 5.95568e-16 0)
(3 8.01498e-16 0)
(3 9.75951e-16 0)
(3 9.35285e-16 0)
(3 7.62421e-16 0)
(3 5.23312e-16 0)
(3 3.68612e-16 0)
(3 5.49555e-16 0)
(3 4.48894e-16 0)
(3 3.24305e-17 0)
(3 1.11692e-15 0)
(3 1.74915e-15 0)
(3 1.38833e-15 0)
(3 -1.91042e-15 0)
(3 -2.55982e-15 0)
(3 -2.54405e-15 0)