/*--------------------------------*- C++ -*----------------------------------*\
  =========                 |
  \\      /  F ield         | OpenFOAM: The Open Source CFD Toolbox
   \\    /   O peration     | Website:  https://openfoam.org
    \\  /    A nd           | Version:  7
     \\/     M anipulation  |
\*---------------------------------------------------------------------------*/
FoamFile
{
    version     2.0;
    format      ascii;
    class       volScalarField;
    location    "5.5";
    object      p;
}
// * * * * * * * * * * * * * * * * * * * * * * * * * * * * * * * * * * * * * //

dimensions      [1 -1 -2 0 0 0 0];

internalField   nonuniform List<scalar> 
2413
(
1.86421
1.86868
1.86696
1.86038
1.85012
1.83729
1.82299
1.80947
1.7972
1.78655
1.77766
1.7707
1.76667
1.76504
1.7654
1.76679
1.76888
1.77026
1.77185
1.77073
1.76776
1.76443
1.75961
1.7525
1.74481
1.73689
1.72849
1.72122
1.71536
1.71335
1.71617
1.72076
1.72615
1.73128
1.7347
1.73227
1.7232
1.70846
1.68717
1.66064
1.63255
1.60489
1.58137
1.56089
1.54479
1.53226
1.52241
1.51592
1.51209
1.51046
1.50973
1.50951
1.5086
1.50711
1.50595
1.50439
1.50262
1.50015
1.49687
1.49283
1.4883
1.48386
1.4796
1.47541
1.47119
1.4667
1.46173
1.45603
1.44955
1.44218
1.43414
1.42575
1.41719
1.40854
1.39996
1.39078
1.38096
1.37035
1.35893
1.34692
1.33447
1.32167
1.30852
1.295
1.28107
1.26668
1.25184
1.23667
1.85505
1.84172
1.8472
1.85498
1.84773
1.82847
1.80829
1.79073
1.77603
1.76639
1.76142
1.76002
1.76227
1.76684
1.77118
1.77478
1.7772
1.77795
1.77755
1.77555
1.77303
1.76961
1.76474
1.75773
1.74888
1.74093
1.73286
1.72335
1.71344
1.70481
1.69736
1.69237
1.69238
1.69547
1.6988
1.69804
1.69084
1.67762
1.65856
1.63425
1.60818
1.58346
1.5631
1.54812
1.5352
1.5234
1.51548
1.51051
1.50814
1.5071
1.50603
1.50527
1.5046
1.50422
1.50414
1.50355
1.50282
1.50207
1.50086
1.49901
1.49632
1.49309
1.48919
1.48481
1.48033
1.47547
1.46985
1.46348
1.45656
1.44913
1.44129
1.43312
1.42466
1.41589
1.4067
1.39719
1.38718
1.37661
1.36559
1.35421
1.34211
1.32939
1.31612
1.30246
1.28855
1.2745
1.26031
1.24591
1.92945
1.91467
1.87874
1.84446
1.81442
1.79654
1.79336
1.79748
1.80106
1.79755
1.79034
1.78131
1.77656
1.77502
1.7714
1.76561
1.75989
1.75593
1.75547
1.75724
1.76207
1.77178
1.78226
1.78997
1.78711
1.77325
1.75355
1.7308
1.70818
1.68591
1.66488
1.65028
1.64362
1.64319
1.64547
1.64594
1.64242
1.6346
1.62221
1.60595
1.58833
1.57139
1.55526
1.54112
1.52845
1.51861
1.51272
1.5086
1.50574
1.5035
1.50139
1.49965
1.49803
1.49696
1.49636
1.49636
1.49744
1.49962
1.50179
1.50287
1.50251
1.50106
1.49861
1.49537
1.49154
1.48683
1.4812
1.47486
1.46794
1.46045
1.45229
1.44343
1.43392
1.42397
1.414
1.40417
1.39432
1.38416
1.37374
1.36267
1.35063
1.33806
1.32491
1.31115
1.29689
1.28224
1.26732
1.25225
1.81481
1.86787
1.89078
1.89305
1.86538
1.82854
1.79603
1.77469
1.76248
1.75899
1.75839
1.75856
1.76074
1.75948
1.75656
1.75626
1.76183
1.77354
1.78693
1.79746
1.80317
1.80723
1.80414
1.78935
1.76769
1.74464
1.72371
1.70464
1.68812
1.67385
1.66329
1.6531
1.64282
1.63292
1.62325
1.61413
1.60601
1.59898
1.59208
1.58347
1.57301
1.56069
1.5494
1.53952
1.53106
1.52495
1.52134
1.51797
1.51365
1.50922
1.50455
1.49992
1.4958
1.49273
1.49033
1.4886
1.4878
1.48936
1.49233
1.49583
1.49899
1.50165
1.50312
1.50366
1.5032
1.50114
1.49702
1.49117
1.4838
1.47541
1.46625
1.45645
1.44618
1.43562
1.42491
1.41409
1.40316
1.39211
1.38102
1.36972
1.35799
1.34521
1.33128
1.31678
1.30215
1.28761
1.27325
1.25913
1.65199
1.76356
1.79671
1.82551
1.84151
1.83747
1.82825
1.81404
1.7906
1.76672
1.75184
1.74428
1.74536
1.75459
1.76285
1.76349
1.76011
1.75951
1.76419
1.77216
1.77958
1.78703
1.7903
1.7862
1.77553
1.76092
1.74393
1.7257
1.70687
1.68688
1.66509
1.64318
1.62161
1.60186
1.5872
1.57943
1.5763
1.57466
1.57177
1.56587
1.55795
1.5522
1.54893
1.5463
1.54326
1.53888
1.53437
1.52894
1.52127
1.51284
1.50466
1.49772
1.49273
1.48896
1.48653
1.48497
1.48451
1.4863
1.48914
1.49239
1.49582
1.49809
1.50058
1.5042
1.50713
1.50736
1.50581
1.50237
1.49727
1.4908
1.48287
1.47366
1.46317
1.45182
1.43993
1.4277
1.41538
1.40339
1.3913
1.37881
1.36599
1.35262
1.33889
1.32491
1.31043
1.29563
1.28075
1.26605
1.33697
1.54624
1.65838
1.75077
1.79464
1.79624
1.79493
1.79745
1.79077
1.78128
1.77303
1.76276
1.75016
1.74763
1.75353
1.76075
1.76329
1.76109
1.75737
1.75423
1.75096
1.74993
1.75134
1.75388
1.75497
1.75181
1.74307
1.73024
1.71418
1.69466
1.67229
1.64947
1.6276
1.60892
1.59509
1.58448
1.57311
1.56254
1.55407
1.54802
1.54504
1.54586
1.5485
1.5508
1.5497
1.54657
1.54171
1.53527
1.52679
1.51863
1.5111
1.50501
1.50085
1.49712
1.49371
1.49107
1.48942
1.48845
1.48745
1.4884
1.49069
1.49204
1.49629
1.50228
1.50742
1.51114
1.51325
1.51305
1.51046
1.50577
1.49914
1.49076
1.48088
1.46963
1.4575
1.44472
1.43148
1.41804
1.40426
1.39032
1.37621
1.36173
1.34705
1.33223
1.31732
1.30263
1.28837
1.27434
1.07577
1.2173
1.38572
1.56065
1.69871
1.73286
1.76479
1.77426
1.77086
1.76936
1.76719
1.76425
1.75975
1.7532
1.74584
1.7477
1.75468
1.76088
1.7667
1.77044
1.77113
1.76764
1.75997
1.75026
1.74034
1.73068
1.71988
1.70805
1.69547
1.68182
1.66719
1.6521
1.63658
1.62127
1.60621
1.59134
1.57633
1.56178
1.55001
1.54242
1.53844
1.53713
1.53765
1.53928
1.54092
1.5414
1.54019
1.5377
1.53442
1.53122
1.52758
1.52288
1.51742
1.51173
1.50675
1.50327
1.50187
1.50147
1.50062
1.50079
1.50147
1.50129
1.50121
1.50259
1.5048
1.50675
1.50797
1.50876
1.50932
1.50927
1.50779
1.50425
1.49848
1.49016
1.47929
1.46666
1.45278
1.438
1.42275
1.40728
1.39146
1.37538
1.35934
1.34355
1.32806
1.31295
1.29815
1.28354
1.00619
1.03317
1.10873
1.23633
1.44239
1.58372
1.67596
1.74114
1.74617
1.75617
1.76237
1.76261
1.76112
1.75796
1.75129
1.74291
1.74343
1.74452
1.74682
1.74987
1.75177
1.75277
1.75132
1.74703
1.7402
1.7327
1.7242
1.71467
1.70417
1.69177
1.67675
1.66061
1.64573
1.63371
1.62471
1.61798
1.61074
1.60017
1.58622
1.57097
1.5554
1.54209
1.53245
1.52668
1.52434
1.52376
1.52332
1.52321
1.52344
1.5244
1.52647
1.52832
1.52913
1.52903
1.52795
1.52647
1.52583
1.52537
1.52365
1.52161
1.51911
1.51634
1.51395
1.51258
1.51236
1.51202
1.51134
1.51055
1.50986
1.50904
1.50744
1.5045
1.50034
1.49559
1.48997
1.48254
1.4726
1.45994
1.44511
1.4289
1.41177
1.39422
1.37668
1.35946
1.34265
1.32606
1.30993
1.29453
1.00017
1.00168
1.01085
1.04189
1.1331
1.28783
1.43745
1.60965
1.67716
1.7218
1.75068
1.75891
1.76089
1.75792
1.75339
1.74608
1.73809
1.7353
1.73643
1.73946
1.74278
1.74344
1.74194
1.73749
1.72998
1.72114
1.71217
1.70286
1.69463
1.68777
1.68101
1.67251
1.66002
1.64633
1.63351
1.62381
1.61845
1.61548
1.61119
1.60561
1.59684
1.58377
1.57067
1.55842
1.54822
1.54071
1.53396
1.52804
1.52323
1.51854
1.5157
1.51569
1.51748
1.52056
1.52413
1.52759
1.53174
1.53569
1.53789
1.53885
1.53898
1.5376
1.53505
1.53225
1.52955
1.52612
1.52179
1.51714
1.51258
1.50811
1.5034
1.49869
1.49478
1.49187
1.48875
1.48433
1.47842
1.47101
1.4616
1.44958
1.43474
1.41763
1.39915
1.38024
1.36157
1.34364
1.32684
1.31093
1
1.00003
1.00033
1.00256
1.01476
1.05998
1.146
1.30944
1.47363
1.59003
1.70213
1.73471
1.75014
1.75167
1.74926
1.74466
1.73452
1.72631
1.72602
1.72769
1.73128
1.73453
1.73434
1.73156
1.72585
1.71801
1.70936
1.70004
1.69171
1.68528
1.67883
1.67231
1.66591
1.65765
1.64599
1.63429
1.62319
1.61784
1.61309
1.61023
1.60908
1.60455
1.59816
1.5908
1.58163
1.5735
1.56524
1.55687
1.55007
1.54274
1.53524
1.52986
1.52659
1.52492
1.52512
1.52632
1.52882
1.53262
1.53666
1.54032
1.54359
1.54592
1.54694
1.54743
1.54651
1.54384
1.53985
1.5346
1.52835
1.52093
1.51325
1.50582
1.49811
1.49005
1.48226
1.47581
1.47075
1.4661
1.46073
1.45361
1.44426
1.4326
1.41864
1.4026
1.38486
1.36649
1.34817
1.33021
1
1
1
1.00005
1.00053
1.00414
1.0186
1.06696
1.18022
1.31299
1.50126
1.62549
1.69876
1.74851
1.75228
1.74865
1.73922
1.72573
1.71816
1.71243
1.71319
1.71694
1.72035
1.72053
1.71861
1.71387
1.70723
1.69926
1.69105
1.68505
1.67895
1.67331
1.66972
1.66476
1.65936
1.65098
1.63961
1.63222
1.62551
1.61918
1.61874
1.61621
1.61189
1.60881
1.60267
1.59667
1.5912
1.58468
1.58026
1.57576
1.56902
1.5632
1.5584
1.55288
1.54778
1.54386
1.54026
1.53783
1.53685
1.53652
1.53717
1.53865
1.54031
1.5418
1.54293
1.54296
1.54167
1.53927
1.53521
1.53044
1.52457
1.5172
1.50887
1.50016
1.49018
1.47907
1.46846
1.4596
1.45282
1.4474
1.44167
1.43399
1.42407
1.41252
1.39941
1.38492
1.36933
1.35291
1
1
1
1
1.00001
1.00008
1.00076
1.00509
1.02565
1.0767
1.1893
1.3698
1.5155
1.66215
1.72393
1.74025
1.73995
1.73236
1.71876
1.70585
1.69855
1.69834
1.70051
1.70392
1.70658
1.70564
1.70251
1.69751
1.69112
1.68506
1.6799
1.67419
1.66974
1.66802
1.66452
1.66217
1.65698
1.64876
1.64298
1.6365
1.63166
1.62968
1.62595
1.62273
1.61807
1.61354
1.60938
1.60379
1.60157
1.60059
1.59738
1.5937
1.59084
1.58679
1.58161
1.57627
1.57013
1.56345
1.5577
1.5526
1.54833
1.54582
1.54396
1.54227
1.54088
1.53909
1.53665
1.53413
1.53179
1.52879
1.52458
1.51963
1.51488
1.50897
1.50029
1.48963
1.47824
1.46694
1.4558
1.44496
1.43545
1.42786
1.42041
1.41175
1.40214
1.39176
1.38031
1.36741
1
1
1
1
1
1
1.00001
1.00012
1.00113
1.00659
1.02814
1.10036
1.21835
1.40821
1.58403
1.67097
1.71922
1.72383
1.71855
1.70817
1.69606
1.68847
1.68438
1.68496
1.68817
1.69096
1.69166
1.69011
1.68671
1.68256
1.67845
1.67364
1.6702
1.66845
1.66664
1.66456
1.6661
1.66646
1.66315
1.65787
1.65226
1.6468
1.64084
1.6376
1.6335
1.62821
1.62544
1.62166
1.61771
1.61658
1.61647
1.61544
1.61349
1.61081
1.60836
1.60576
1.6014
1.59503
1.58808
1.58109
1.57404
1.56791
1.56235
1.55696
1.55203
1.54715
1.54192
1.53674
1.53217
1.52752
1.52241
1.51715
1.51157
1.50491
1.49772
1.49006
1.48097
1.47019
1.45953
1.45131
1.4441
1.43446
1.42297
1.41153
1.40145
1.39238
1.38285
1.37192
1
1
1
1
1
1
1
1
1.00001
1.00017
1.00141
1.00961
1.03813
1.11851
1.28934
1.45606
1.62343
1.68625
1.69745
1.69477
1.688
1.68216
1.67521
1.67164
1.67053
1.67256
1.67489
1.676
1.67595
1.67478
1.6726
1.66952
1.66779
1.66704
1.66638
1.66671
1.66931
1.67363
1.67795
1.67781
1.67434
1.66911
1.66318
1.65736
1.65261
1.64804
1.64415
1.64004
1.63747
1.63539
1.63358
1.63256
1.63177
1.63044
1.6276
1.62522
1.62382
1.62147
1.61745
1.61135
1.60321
1.59422
1.58544
1.57706
1.56949
1.56255
1.5555
1.54825
1.54107
1.53404
1.52687
1.51939
1.51172
1.50382
1.49611
1.48819
1.47927
1.46926
1.45963
1.45059
1.44073
1.43154
1.42449
1.41577
1.40492
1.39334
1.38234
1.37284
1
1
1
1
1
1
1
1
1
1
1.00002
1.00028
1.00226
1.01296
1.06191
1.16426
1.33927
1.53672
1.6262
1.68039
1.68741
1.68143
1.6731
1.66955
1.66527
1.66007
1.65615
1.65673
1.65899
1.66158
1.6633
1.66363
1.66393
1.66409
1.66468
1.66691
1.67056
1.6757
1.68087
1.68668
1.68997
1.68937
1.68647
1.68173
1.67705
1.67246
1.66847
1.66425
1.66022
1.65719
1.65471
1.65268
1.65061
1.64845
1.64591
1.64461
1.6435
1.64193
1.64016
1.6369
1.63121
1.62359
1.61457
1.60458
1.5945
1.58491
1.57541
1.56597
1.55665
1.54758
1.53847
1.52866
1.51866
1.50904
1.49962
1.49054
1.48158
1.47219
1.46205
1.45125
1.44075
1.43175
1.42232
1.41159
1.40035
1.39024
1.3811
1.37207
1
1
1
1
1
1
1
1
1
1
1
1
1.00004
1.0005
1.00454
1.02399
1.08471
1.23963
1.41087
1.55411
1.64984
1.67023
1.67256
1.67082
1.66382
1.65647
1.6507
1.64607
1.6448
1.64604
1.64874
1.65243
1.65694
1.66035
1.66325
1.66642
1.67013
1.67474
1.68044
1.68633
1.69198
1.69648
1.69801
1.69895
1.69853
1.69719
1.69503
1.69189
1.68828
1.68468
1.68091
1.67743
1.67429
1.67124
1.66789
1.66544
1.66367
1.66192
1.66057
1.6584
1.65434
1.64862
1.64131
1.63252
1.62283
1.61276
1.60198
1.59055
1.57871
1.56664
1.55477
1.54257
1.53031
1.51884
1.50761
1.49707
1.48775
1.4784
1.46767
1.45618
1.4459
1.43559
1.42418
1.41346
1.40288
1.39157
1.3795
1.36826
1
1
1
1
1
1
1
1
1
1
1
1
1
1.00001
1.00011
1.0012
1.00837
1.04439
1.1378
1.28989
1.47725
1.58456
1.63543
1.66121
1.66467
1.66316
1.65886
1.65258
1.64499
1.6401
1.63984
1.64227
1.64675
1.65212
1.65781
1.66279
1.6675
1.67283
1.67883
1.68515
1.69067
1.69518
1.69853
1.70158
1.70491
1.70706
1.70888
1.71087
1.71192
1.71148
1.70965
1.70667
1.70353
1.70003
1.69591
1.69208
1.68884
1.68538
1.68231
1.67938
1.67568
1.67118
1.66551
1.6583
1.64984
1.64055
1.63007
1.61821
1.60518
1.59119
1.57674
1.56236
1.54776
1.53405
1.52122
1.50917
1.49883
1.48884
1.47739
1.46533
1.45412
1.44216
1.43007
1.42001
1.41052
1.39936
1.38773
1.37598
1
1
1
1
1
1
1
1
1
1
1
1
1
1
1
1.00002
1.00031
1.00309
1.01807
1.06994
1.19066
1.3739
1.51097
1.59037
1.63655
1.65863
1.66138
1.66023
1.65525
1.64884
1.6445
1.64258
1.64351
1.64708
1.6522
1.65772
1.66363
1.66958
1.67549
1.6821
1.68843
1.69355
1.69746
1.70046
1.70332
1.70628
1.7095
1.71322
1.71736
1.72136
1.72468
1.72761
1.72867
1.72838
1.72648
1.72351
1.71961
1.71451
1.70926
1.70427
1.69911
1.69414
1.68894
1.68266
1.67523
1.66682
1.65707
1.64568
1.63268
1.61815
1.60254
1.58655
1.57028
1.55459
1.53998
1.52599
1.51328
1.50159
1.48938
1.47657
1.46424
1.45136
1.43875
1.42857
1.41913
1.40857
1.39824
1.38764
1
1
1
1
1
1
1
1
1
1
1
1
1
1
1
1
1
1.00007
1.00085
1.00664
1.03301
1.11311
1.24964
1.33693
1.32507
1.31278
1.30028
1.28732
1.2742
1.26072
1.24686
1.23275
1.21825
1.20359
1.18873
1.1738
1.15878
1.80343
1.7993
1.79569
1.79259
1.78988
1.78736
1.78406
1.77986
1.77511
1.77085
1.76734
1.7646
1.76236
1.75977
1.75654
1.75265
1.7487
1.74558
1.7445
1.7466
1.7527
1.7636
1.78031
1.79934
1.81401
1.82223
1.82357
1.81776
1.8068
1.79361
1.78138
1.77178
1.76479
1.75947
1.75574
1.75236
1.7498
1.74613
1.74219
1.73864
1.73497
1.7351
1.73761
1.74289
1.75197
1.76109
1.75582
1.73978
1.71385
1.66788
1.60768
1.54943
1.51458
1.50692
1.50818
1.51131
1.51459
1.51298
1.50939
1.50379
1.49628
1.48732
1.47775
1.46728
1.45615
1.44459
1.43293
1.42134
1.40992
1.39858
1.38737
1.37611
1.36496
1.35358
1.34216
1.33047
1.3185
1.30636
1.29376
1.28106
1.26797
1.25453
1.24062
1.22613
1.21139
1.19651
1.18174
1.16707
1.81614
1.81186
1.80821
1.80422
1.80003
1.79551
1.79003
1.78375
1.77694
1.77006
1.76424
1.75963
1.75631
1.75354
1.7507
1.74754
1.74428
1.74131
1.7394
1.73962
1.74296
1.75049
1.76291
1.78098
1.80003
1.81348
1.82018
1.82054
1.81392
1.80138
1.78708
1.77488
1.76607
1.75954
1.7551
1.75056
1.74525
1.74271
1.74059
1.73664
1.73262
1.73023
1.72874
1.72782
1.72917
1.73266
1.72317
1.70181
1.66808
1.62133
1.57057
1.52849
1.50828
1.5052
1.50582
1.50668
1.5069
1.50543
1.50313
1.49948
1.49415
1.4868
1.47822
1.46868
1.4587
1.44832
1.43768
1.42686
1.41589
1.40489
1.39399
1.38313
1.37231
1.36119
1.34987
1.33801
1.3258
1.31327
1.30038
1.28749
1.27422
1.26081
1.24718
1.23321
1.21916
1.2049
1.19069
1.17633
1.82868
1.82427
1.82002
1.81491
1.80916
1.80263
1.79483
1.78587
1.77643
1.76768
1.76053
1.75495
1.75093
1.74821
1.74644
1.74464
1.74296
1.74136
1.74012
1.73978
1.74126
1.7456
1.75373
1.76658
1.78438
1.80159
1.81296
1.81729
1.8156
1.80758
1.79482
1.78062
1.76838
1.75894
1.75337
1.74919
1.7447
1.74132
1.73573
1.73145
1.7287
1.72212
1.71708
1.71354
1.71204
1.70668
1.69158
1.66562
1.62828
1.58357
1.546
1.52041
1.50975
1.50378
1.50272
1.50154
1.50026
1.49732
1.4955
1.49271
1.48851
1.48323
1.47708
1.46984
1.4615
1.45211
1.44214
1.43195
1.42167
1.41128
1.40071
1.38991
1.37892
1.36771
1.35639
1.34481
1.33308
1.32118
1.30895
1.29659
1.28385
1.27074
1.25724
1.2429
1.22797
1.21273
1.19781
1.1833
1.84088
1.83606
1.8305
1.82331
1.81495
1.80607
1.79618
1.78582
1.77562
1.76645
1.75882
1.75291
1.74868
1.74617
1.74519
1.74506
1.74526
1.74547
1.74547
1.74536
1.74564
1.74717
1.75104
1.75827
1.77005
1.78588
1.80011
1.80859
1.81053
1.8067
1.79838
1.78613
1.77243
1.76019
1.75127
1.74407
1.73901
1.73646
1.73312
1.72743
1.71968
1.71053
1.70401
1.69902
1.69142
1.67888
1.65682
1.62582
1.58991
1.55562
1.53235
1.51686
1.50884
1.50425
1.50245
1.49909
1.49729
1.49412
1.49008
1.48585
1.48196
1.47852
1.4744
1.46892
1.46203
1.45406
1.44553
1.43662
1.42725
1.4172
1.4067
1.39592
1.38493
1.37382
1.36264
1.35131
1.33973
1.32783
1.31562
1.30319
1.29052
1.2775
1.26399
1.25021
1.23614
1.222
1.20818
1.1945
1.85007
1.84498
1.83816
1.82958
1.81983
1.80973
1.79902
1.78842
1.77821
1.76905
1.76147
1.75564
1.7516
1.74935
1.74876
1.74935
1.75031
1.75139
1.75205
1.75181
1.75073
1.74943
1.74922
1.75132
1.75702
1.76745
1.78109
1.79284
1.7985
1.79906
1.79577
1.78631
1.77402
1.76227
1.75242
1.74397
1.73589
1.72887
1.72355
1.71918
1.71357
1.70437
1.69379
1.68182
1.66644
1.64219
1.60902
1.57719
1.55497
1.53656
1.5231
1.51549
1.51009
1.50641
1.50212
1.49765
1.49294
1.48945
1.48642
1.48361
1.48054
1.47681
1.47233
1.4671
1.46122
1.45478
1.44776
1.44011
1.43167
1.42239
1.41259
1.40236
1.39177
1.38093
1.36992
1.35871
1.34733
1.33575
1.32389
1.3118
1.29926
1.28626
1.27276
1.2588
1.24438
1.22964
1.21501
1.20066
1.86093
1.85662
1.84946
1.8403
1.82926
1.81745
1.80544
1.79406
1.78378
1.77517
1.76816
1.76274
1.75867
1.75591
1.75469
1.75507
1.75622
1.75746
1.75823
1.75788
1.75608
1.75282
1.74893
1.74598
1.74582
1.74942
1.75779
1.7691
1.77882
1.78397
1.78526
1.78244
1.77316
1.76368
1.75327
1.74314
1.73477
1.7279
1.72331
1.7178
1.70839
1.69561
1.68155
1.66328
1.64059
1.61351
1.58205
1.55433
1.53734
1.52642
1.51868
1.51405
1.51092
1.5075
1.50349
1.49944
1.49377
1.48883
1.48402
1.47962
1.47612
1.47315
1.46989
1.46584
1.46091
1.45536
1.44925
1.44244
1.43483
1.42651
1.41752
1.40788
1.3978
1.38746
1.37687
1.36612
1.35523
1.34407
1.33257
1.3207
1.30827
1.29508
1.28134
1.26719
1.25287
1.23846
1.22427
1.21034
1.86427
1.8591
1.85189
1.84325
1.83346
1.82283
1.81163
1.80054
1.79038
1.78169
1.77481
1.76973
1.76611
1.76368
1.76215
1.7619
1.76239
1.76291
1.76301
1.76184
1.75873
1.75399
1.74856
1.74356
1.73977
1.73837
1.74046
1.74716
1.7565
1.76439
1.76989
1.77274
1.77032
1.765
1.75675
1.74715
1.73711
1.7275
1.71809
1.7081
1.69471
1.67898
1.66093
1.63862
1.61451
1.58826
1.56158
1.5396
1.52692
1.51834
1.51377
1.51194
1.51052
1.50795
1.50389
1.49945
1.49485
1.48976
1.48517
1.48089
1.47697
1.47306
1.46907
1.4651
1.46092
1.45623
1.45076
1.44443
1.43731
1.42961
1.42135
1.41264
1.40349
1.39383
1.38332
1.37216
1.36054
1.34868
1.33659
1.3243
1.31182
1.29911
1.2863
1.27361
1.26099
1.248
1.2343
1.21999
1.87532
1.87026
1.86159
1.85064
1.83877
1.82691
1.81578
1.80511
1.79538
1.78662
1.77922
1.77355
1.76969
1.76752
1.76683
1.76716
1.76785
1.76841
1.76808
1.7661
1.76215
1.75697
1.7505
1.74367
1.73719
1.73184
1.7286
1.7297
1.73661
1.74566
1.75433
1.7609
1.76366
1.7634
1.75961
1.75075
1.73818
1.72262
1.70749
1.69318
1.67823
1.66083
1.63947
1.61341
1.58714
1.56376
1.54228
1.52695
1.51812
1.51418
1.51327
1.51246
1.51005
1.50731
1.50436
1.50099
1.49671
1.49184
1.48723
1.48277
1.47865
1.47477
1.47103
1.46721
1.46308
1.45852
1.45333
1.44735
1.44058
1.43314
1.42519
1.4169
1.40835
1.3995
1.38971
1.37919
1.36806
1.35647
1.34446
1.33222
1.31979
1.30709
1.29393
1.28028
1.26629
1.25206
1.23758
1.22314
1.88898
1.8794
1.8668
1.85284
1.83919
1.82675
1.81737
1.8079
1.79816
1.78893
1.78063
1.77401
1.76975
1.7678
1.7677
1.76877
1.76963
1.7702
1.76983
1.76787
1.76461
1.76061
1.75456
1.7476
1.74039
1.73329
1.72604
1.72128
1.72214
1.72737
1.73535
1.74293
1.74805
1.75111
1.7512
1.74563
1.73498
1.72102
1.70336
1.68105
1.65709
1.63333
1.61057
1.58529
1.56238
1.54597
1.53161
1.5214
1.5149
1.51131
1.5094
1.50878
1.50849
1.50789
1.50584
1.50234
1.49827
1.49411
1.48995
1.48609
1.48237
1.47865
1.47478
1.47076
1.46657
1.46205
1.45688
1.45084
1.444
1.43653
1.42868
1.42079
1.41276
1.40435
1.39566
1.38538
1.37448
1.36288
1.35074
1.33823
1.32551
1.31264
1.29961
1.28656
1.27359
1.26054
1.24696
1.23265
)
;

boundaryField
{
    inlet
    {
        type            fixedValue;
        value           nonuniform 0();
    }
    outlet
    {
        type            zeroGradient;
    }
    bottom
    {
        type            symmetryPlane;
    }
    top
    {
        type            symmetryPlane;
    }
    obstacle
    {
        type            zeroGradient;
    }
    front
    {
        type            empty;
    }
    back
    {
        type            empty;
    }
    procBoundary19to2
    {
        type            processor;
        value           nonuniform List<scalar> 
23
(
1.85512
1.87989
1.91504
1.72055
1.46511
1.16216
1.02144
1.00088
1.00001
1
1
1
1
1
1.80823
1.81999
1.83188
1.8437
1.85303
1.86331
1.86754
1.87736
1.89481
)
;
    }
    procBoundary19to10
    {
        type            processor;
        value           nonuniform List<scalar> 5(1 1 1 1 1);
    }
    procBoundary19to11
    {
        type            processor;
        value           nonuniform List<scalar> 
89
(
1.33244
1.3204
1.30796
1.29522
1.28194
1.2684
1.25453
1.24009
1.22537
1.21028
1.19513
1.17996
1.16493
1.15007
1.79267
1.78843
1.78417
1.78087
1.77889
1.77757
1.77618
1.77471
1.77238
1.77089
1.76963
1.76837
1.76693
1.76473
1.76166
1.75806
1.755
1.75359
1.75507
1.76017
1.76958
1.78436
1.80209
1.81678
1.82564
1.82817
1.82357
1.81386
1.80094
1.78817
1.77813
1.77046
1.76451
1.76
1.75563
1.75323
1.75056
1.74673
1.74297
1.73991
1.73921
1.74217
1.74814
1.75744
1.77251
1.78469
1.78592
1.77911
1.76086
1.72232
1.65757
1.58096
1.52478
1.50916
1.51158
1.51644
1.51818
1.51709
1.51345
1.50773
1.49964
1.48912
1.47775
1.46579
1.45366
1.44151
1.42937
1.41731
1.40546
1.39376
1.38241
1.37109
1.3599
1.34854
1.34854
)
;
    }
    procBoundary19to12
    {
        type            processor;
        value           uniform 1.14383;
    }
    procBoundary19to20
    {
        type            processor;
        value           nonuniform List<scalar> 
27
(
1.22164
1.23121
1.23714
1.24512
1.25165
1.26045
1.26925
1.27981
1.29532
1.31276
1.33566
1.35274
1.36004
1.36425
1.36303
1.35852
1.36416
1.37639
1.1525
1.16173
1.16912
1.1803
1.18659
1.19643
1.20521
1.20917
1.21776
)
;
    }
    procBoundary19to27
    {
        type            processor;
        value           nonuniform List<scalar> 
89
(
1.42735
1.55138
1.60538
1.63325
1.6525
1.65822
1.65815
1.65548
1.65079
1.64972
1.65115
1.65454
1.6588
1.664
1.66888
1.67335
1.67905
1.68477
1.68976
1.69446
1.69779
1.70068
1.70371
1.70712
1.71081
1.7149
1.7196
1.72424
1.72914
1.73458
1.73934
1.74371
1.74617
1.74622
1.74369
1.73966
1.73385
1.72718
1.72075
1.71452
1.70789
1.70055
1.69231
1.68287
1.67197
1.65959
1.6455
1.63001
1.61363
1.59665
1.57959
1.56318
1.54725
1.53201
1.51824
1.50495
1.49044
1.47699
1.46329
1.45045
1.43878
1.42851
1.41758
1.40763
1.39765
1
1
1
1
1
1
1
1
1
1
1
1
1
1
1
1
1
1
1.00001
1.00022
1.00215
1.01398
1.42735
1.05529
)
;
    }
}


// ************************************************************************* //
