2 	-9.15729 	-8.58112e-18 	1.02249 	-0.0125552 	-1.17487e-21
2 	-8.59874 	-9.67648e-18 	1.02445 	-0.0137706 	-1.04216e-21
2 	-8.04674 	-1.36768e-17 	1.02672 	-0.0153627 	1.9467e-21
2 	-7.5012 	-1.28626e-17 	1.02933 	-0.0167855 	3.72608e-22
2 	-6.96205 	-9.68423e-18 	1.03236 	-0.019229 	4.05692e-21
2 	-6.56146 	-8.16356e-18 	1.03591 	-0.020576 	-5.73596e-21
2 	-6.29661 	-9.70326e-18 	1.03527 	-0.0211178 	-2.56639e-21
2 	-5.90258 	-8.96976e-18 	1.03946 	-0.0251537 	-2.21122e-21
2 	-5.38211 	-5.10316e-18 	1.04492 	-0.0277622 	2.0315e-21
2 	-5.11668 	-2.99651e-18 	1.04869 	-0.0300523 	-1.74012e-20
2 	-4.96919 	-9.51585e-19 	1.04982 	-0.028995 	5.48882e-20
2 	-4.82676 	3.7962e-19 	1.05093 	-0.0278977 	-4.30764e-20
2 	-4.69874 	-1.6272e-18 	1.05357 	-0.0313292 	7.60246e-20
2 	-4.55243 	-2.09942e-18 	1.05476 	-0.0303137 	-4.05488e-20
2 	-4.43541 	3.7976e-18 	1.05782 	-0.0336489 	-6.00132e-20
2 	-4.29179 	9.70756e-18 	1.05911 	-0.0325048 	-1.53514e-20
2 	-4.18433 	9.5592e-18 	1.06224 	-0.0361613 	5.50754e-20
2 	-4.04319 	7.51033e-18 	1.06361 	-0.0350009 	-2.91606e-20
2 	-3.94409 	6.70799e-18 	1.06699 	-0.039196 	-1.19734e-21
2 	-3.83348 	7.23776e-18 	1.06847 	-0.0379804 	-1.27896e-19
2 	-3.71316 	7.15483e-18 	1.06995 	-0.0367252 	1.17816e-19
2 	-3.62792 	5.01998e-18 	1.07367 	-0.0412282 	-9.37321e-20
2 	-3.49179 	1.78159e-18 	1.07526 	-0.0399356 	1.28419e-19
2 	-3.41101 	3.40393e-19 	1.07685 	-0.0386069 	-2.55484e-19
2 	-3.3367 	-3.97648e-19 	1.08094 	-0.0436674 	-8.09159e-20
2 	-3.20027 	-4.08786e-18 	1.08265 	-0.0423003 	1.34784e-19
2 	-3.13057 	-8.1333e-18 	1.08699 	-0.0478336 	3.04963e-19
2 	-3.05876 	6.74494e-18 	1.08882 	-0.0464348 	2.10036e-19
2 	-2.9314 	6.3753e-18 	1.09065 	-0.0449999 	-2.81374e-20
2 	-2.86733 	8.25147e-18 	1.09248 	-0.0435287 	-2.12334e-19
2 	-2.80891 	5.84556e-18 	1.0973 	-0.0496977 	1.90033e-19
2 	-2.69742 	6.69072e-18 	1.09926 	-0.0482016 	-1.20735e-19
2 	-2.61725 	9.86032e-18 	1.10122 	-0.0466691 	8.79762e-20
2 	-2.56471 	8.37377e-18 	1.10641 	-0.0534734 	1.20208e-19
2 	-2.487 	7.99096e-18 	1.1085 	-0.0519286 	1.21428e-19
2 	-2.38935 	1.27274e-17 	1.1106 	-0.0503497 	-8.96854e-20
2 	-2.32938 	1.49489e-17 	1.1127 	-0.0487364 	-1.35345e-19
2 	-2.28387 	1.36819e-17 	1.11837 	-0.0563315 	-1.21674e-19
2 	-2.20713 	1.44279e-17 	1.1206 	-0.0547164 	-9.64781e-21
2 	-2.12186 	1.62951e-17 	1.12284 	-0.0530681 	-1.24798e-19
2 	-2.05769 	1.74798e-17 	1.1251 	-0.051386 	-1.77948e-19
2 	-2.01763 	1.73472e-17 	1.13118 	-0.0598483 	3.03645e-19
2 	-1.96148 	1.73472e-17 	1.13353 	-0.0581886 	-3.38459e-19
2 	-1.88587 	1.96305e-17 	1.13588 	-0.0564975 	-9.31976e-20
2 	-1.81301 	2.0857e-17 	1.13821 	-0.0547733 	2.1575e-19
2 	-1.75942 	2.03084e-17 	1.14051 	-0.0530141 	-1.74241e-19
2 	-1.72488 	2.08167e-17 	1.14643 	-0.0624602 	-1.19143e-19
2 	-1.67476 	2.08167e-17 	1.14845 	-0.0606984 	6.12079e-19
2 	-1.60902 	2.17157e-17 	1.15023 	-0.0588833 	-8.94422e-19
2 	-1.54532 	2.04797e-17 	1.15165 	-0.0570043 	4.09185e-19
2 	-1.48352 	1.59997e-17 	1.15257 	-0.0550473 	-1.30188e-19
2 	-1.43952 	1.09664e-17 	1.15277 	-0.0529942 	4.41034e-19
2 	-1.40994 	8.30237e-18 	1.151 	-0.0628582 	1.39298e-19
2 	-1.36514 	6.59195e-18 	1.1473 	-0.0604885 	1.34785e-19
2 	-1.30832 	4.85723e-18 	1.14139 	-0.0578998 	-5.19933e-19
2 	-1.25294 	2.80321e-18 	1.13259 	-0.0550475 	4.49966e-19
2 	-1.19891 	1.68863e-19 	1.12011 	-0.0518847 	-8.2884e-19
2 	-1.14614 	-4.8709e-20 	1.10303 	-0.048366 	8.94944e-19
2 	-1.09454 	1.45894e-19 	1.08031 	-0.0444559 	3.18567e-19
2 	-1.06737 	2.45152e-19 	1.05085 	-0.0401393 	-5.50511e-19
2 	-1.04239 	-7.84551e-19 	0.983513 	-0.0449892 	-2.13542e-19
2 	-0.99456 	-3.81639e-18 	0.93461 	-0.0395486 	6.02047e-20
2 	-0.946041 	-3.81639e-18 	0.877622 	-0.0339538 	4.48499e-20
2 	-0.898415 	-3.81639e-18 	0.81306 	-0.0284119 	-4.1872e-19
2 	-0.851623 	-7.95477e-18 	0.742044 	-0.0231627 	1.51801e-19
2 	-0.805606 	-9.84001e-18 	0.666229 	-0.0184401 	-2.2483e-20
2 	-0.760312 	-8.50774e-18 	0.587596 	-0.0144293 	5.54055e-19
2 	-0.715689 	-1.33676e-18 	0.50819 	-0.0112345 	-1.44369e-19
2 	-0.671689 	4.77792e-18 	0.429858 	-0.00886941 	-2.60466e-19
2 	-0.628266 	7.83923e-18 	0.354089 	-0.00726785 	-4.76432e-21
2 	-0.59159 	1.32404e-18 	0.281942 	-0.00630926 	-2.08061e-20
2 	-0.570272 	-3.81639e-18 	0.198324 	-0.0111753 	2.25142e-19
2 	-0.542975 	-7.28584e-18 	0.140746 	-0.0107663 	1.33314e-20
2 	-0.501025 	-7.28584e-18 	0.0875595 	-0.0105428 	-3.08426e-19
2 	-0.459485 	-5.20417e-18 	0.0386678 	-0.010397 	2.31079e-19
2 	-0.418319 	-7.97973e-18 	-0.00605707 	-0.0102449 	1.61209e-20
2 	-0.377489 	-9.36751e-18 	-0.0467343 	-0.010024 	-1.75083e-19
2 	-0.336961 	-1.04083e-17 	-0.0834526 	-0.00969092 	-1.06505e-19
2 	-0.296701 	-1.49186e-17 	-0.11626 	-0.00921791 	-8.09176e-20
2 	-0.256674 	-1.66533e-17 	-0.145166 	-0.00859091 	-6.009e-20
2 	-0.216849 	-1.66533e-17 	-0.170142 	-0.00780736 	1.77434e-19
2 	-0.177193 	-1.83881e-17 	-0.191134 	-0.00687448 	-1.50879e-19
2 	-0.137675 	-1.83881e-17 	-0.208073 	-0.00580773 	1.03818e-19
2 	-0.098263 	-1.83881e-17 	-0.220886 	-0.00462949 	8.12047e-20
2 	-0.0589275 	-1.8735e-17 	-0.229505 	-0.0033677 	-5.07866e-20
2 	-0.0196374 	-1.42247e-17 	-0.23388 	-0.00205438 	-1.53402e-20
2 	0.0196374 	-1.17961e-17 	-0.233985 	-0.000724061 	-1.43274e-20
2 	0.0589275 	-1.07553e-17 	-0.22982 	0.000588018 	-4.72556e-20
2 	0.098263 	-8.67362e-18 	-0.221412 	0.0018475 	8.34322e-20
2 	0.137675 	-1.00614e-17 	-0.208812 	0.00302275 	9.88675e-20
2 	0.177193 	-1.00614e-17 	-0.192088 	0.00408654 	-1.59517e-19
2 	0.216849 	-1.00614e-17 	-0.171312 	0.00501761 	1.57075e-19
2 	0.256674 	-8.67362e-18 	-0.146551 	0.00580213 	-5.46549e-20
2 	0.296701 	-7.28584e-18 	-0.117856 	0.00643514 	-8.72725e-20
2 	0.336961 	-1.249e-17 	-0.0852472 	0.00692204 	-1.34534e-19
2 	0.377489 	-1.59595e-17 	-0.0487087 	0.00728026 	-1.24746e-19
2 	0.418319 	-1.9082e-17 	-0.00818169 	0.00754114 	2.5932e-20
2 	0.459485 	-2.35922e-17 	0.0364328 	0.00775189 	2.86911e-19
2 	0.501025 	-2.84495e-17 	0.0852631 	0.00797793 	-3.07532e-19
2 	0.542975 	-2.87964e-17 	0.138442 	0.00830547 	-1.22253e-20
2 	0.570272 	-2.44003e-17 	0.196067 	0.00884264 	2.21771e-19
2 	0.59159 	-2.44641e-17 	0.27882 	0.00498196 	1.40483e-19
2 	0.628266 	-2.55768e-17 	0.351001 	0.00608519 	1.02641e-20
2 	0.671689 	6.1657e-18 	0.426848 	0.00784986 	-4.85097e-20
2 	0.715689 	7.6838e-18 	0.505284 	0.0103881 	-2.00165e-19
2 	0.760312 	5.71699e-18 	0.584808 	0.0137564 	5.64438e-19
2 	0.805606 	-6.4598e-19 	0.663562 	0.0179324 	5.05877e-21
2 	0.851623 	-6.39352e-18 	0.739497 	0.0228043 	1.32375e-19
2 	0.898415 	-1.04083e-17 	0.810632 	0.0281827 	-4.30943e-19
2 	0.946041 	-1.21431e-17 	0.875313 	0.0338316 	6.22167e-20
2 	0.99456 	-1.21431e-17 	0.932421 	0.0395117 	1.19002e-19
2 	1.04239 	-1.10116e-17 	0.981445 	0.0450174 	-2.22032e-19
2 	1.06737 	-1.13696e-17 	1.04862 	0.0410128 	-5.89465e-19
2 	1.09454 	-1.06094e-17 	1.07828 	0.0453062 	2.66467e-19
2 	1.14614 	-1.27122e-17 	1.10119 	0.0491826 	9.04361e-19
2 	1.19891 	-1.83927e-17 	1.11844 	0.0526603 	-8.54311e-19
2 	1.25294 	-2.00951e-17 	1.13106 	0.055778 	5.35696e-19
2 	1.30832 	-1.8735e-17 	1.13999 	0.058583 	-4.47033e-19
2 	1.36514 	-1.8735e-17 	1.14603 	0.0611241 	1.34906e-19
2 	1.40994 	-1.76699e-17 	1.14983 	0.0634471 	1.37427e-19
2 	1.43952 	-1.53528e-17 	1.15188 	0.0539384 	3.78392e-19
2 	1.48352 	-1.85213e-17 	1.15176 	0.055912 	-1.19616e-19
2 	1.54532 	-2.08067e-17 	1.1509 	0.0577954 	2.63631e-19
2 	1.60902 	-1.83564e-17 	1.14953 	0.0596066 	-9.57773e-19
2 	1.67476 	-1.66533e-17 	1.14781 	0.0613593 	6.01087e-19
2 	1.72488 	-1.59758e-17 	1.14584 	0.0630639 	-9.61117e-20
2 	1.75942 	-1.6484e-17 	1.14016 	0.0537489 	-2.04123e-19
2 	1.81301 	-1.28834e-17 	1.13788 	0.055444 	2.75698e-19
2 	1.88587 	-1.06404e-17 	1.13557 	0.0571098 	-1.89115e-19
2 	1.96148 	-1.31839e-17 	1.13324 	0.0587477 	-2.99246e-19
2 	2.01763 	-1.70766e-17 	1.1309 	0.0603589 	3.40081e-19
2 	2.05769 	-1.90258e-17 	1.125 	0.0519245 	-1.64468e-19
2 	2.12186 	-2.03943e-17 	1.12274 	0.0535611 	-5.96681e-20
2 	2.20713 	-2.19146e-17 	1.1205 	0.0551677 	-1.00429e-19
2 	2.28387 	-2.09677e-17 	1.11827 	0.0567448 	-7.14252e-20
2 	2.32938 	-1.83129e-17 	1.11272 	0.0491306 	-1.91353e-19
2 	2.38935 	-1.71098e-17 	1.11061 	0.0507123 	-1.07888e-19
2 	2.487 	-2.14993e-17 	1.10851 	0.0522622 	8.31264e-20
2 	2.56471 	-2.79978e-17 	1.10641 	0.0537803 	1.12493e-19
2 	2.61725 	-2.92868e-17 	1.1013 	0.0469393 	7.97646e-20
2 	2.69742 	-3.00854e-17 	1.09932 	0.0484518 	-6.52975e-20
2 	2.80891 	-3.49889e-17 	1.09735 	0.0499295 	1.68474e-19
2 	2.86733 	-3.70933e-17 	1.09258 	0.043718 	-3.22322e-21
2 	2.9314 	-3.53665e-17 	1.09073 	0.0451768 	-1.17925e-20
2 	3.05876 	-3.63846e-17 	1.08889 	0.0466002 	4.54589e-20
2 	3.13057 	-3.75983e-17 	1.08705 	0.0479882 	2.91672e-19
2 	3.20027 	2.6747e-18 	1.08274 	0.042419 	1.18814e-19
2 	3.3367 	7.48744e-19 	1.08102 	0.0437797 	-8.76034e-20
2 	3.41101 	1.05154e-18 	1.07694 	0.0386856 	7.8294e-20
2 	3.49179 	-7.06946e-19 	1.07534 	0.0400115 	1.24947e-19
2 	3.62792 	2.36239e-18 	1.07374 	0.0413013 	-1.24971e-19
2 	3.71316 	9.01913e-18 	1.07003 	0.0367721 	-4.77046e-20
2 	3.83348 	9.43229e-18 	1.06854 	0.0380268 	-1.25599e-19
2 	3.94409 	1.03342e-17 	1.06705 	0.0392417 	2.45916e-20
2 	4.04319 	1.03342e-17 	1.06368 	0.0350274 	-5.67731e-20
2 	4.18433 	9.30394e-18 	1.0623 	0.0361886 	1.9389e-20
2 	4.29179 	8.68347e-18 	1.05916 	0.0325169 	6.78623e-20
2 	4.43541 	9.66904e-18 	1.05787 	0.0336627 	-6.442e-20
2 	4.55243 	1.32242e-17 	1.05481 	0.0303172 	-9.52615e-21
2 	4.69874 	1.26664e-17 	1.05361 	0.0313346 	6.88876e-20
2 	4.82676 	1.07572e-17 	1.05097 	0.0278942 	-3.1379e-20
2 	4.96919 	1.10868e-17 	1.04985 	0.0289937 	5.1844e-20
2 	5.11668 	1.10351e-17 	1.04872 	0.030053 	-2.11346e-20
2 	5.38211 	8.25954e-18 	1.04495 	0.0277601 	1.85864e-21
2 	5.90258 	8.32667e-18 	1.03947 	0.0251482 	-3.17833e-23
2 	6.29661 	1.21422e-17 	1.03528 	0.0211122 	-3.9914e-21
2 	6.56146 	1.62926e-17 	1.03592 	0.0205696 	-6.69105e-21
2 	6.96205 	1.79892e-17 	1.03237 	0.0192235 	5.66296e-22
2 	7.5012 	1.96714e-17 	1.02933 	0.0167811 	-1.38239e-21
2 	8.04674 	2.23938e-17 	1.02673 	0.0153593 	1.33934e-21
2 	8.59874 	1.88705e-17 	1.02445 	0.013768 	8.73605e-22
2 	9.15729 	1.77752e-17 	1.02249 	0.0125532 	-1.49052e-21
