/*--------------------------------*- C++ -*----------------------------------*\
  =========                 |
  \\      /  F ield         | OpenFOAM: The Open Source CFD Toolbox
   \\    /   O peration     | Website:  https://openfoam.org
    \\  /    A nd           | Version:  7
     \\/     M anipulation  |
\*---------------------------------------------------------------------------*/
FoamFile
{
    version     2.0;
    format      ascii;
    class       volVectorField;
    location    "140";
    object      U;
}
// * * * * * * * * * * * * * * * * * * * * * * * * * * * * * * * * * * * * * //

dimensions      [0 1 -1 0 0 0 0];

internalField   nonuniform List<vector> 
41600
(
(-0.0742358 -0.0961121 -3.03695e-20)
(-0.179413 -0.249228 -4.29501e-20)
(-0.239758 -0.423022 3.06044e-23)
(-0.226817 -0.546116 -3.53363e-20)
(-0.166125 -0.532366 4.77414e-20)
(-0.0541063 -0.349258 -1.0113e-19)
(0.0955669 -0.0654214 -1.30008e-20)
(0.24952 0.221292 8.50026e-20)
(0.3749 0.438421 -1.51524e-20)
(0.453243 0.570536 -1.94529e-20)
(0.490265 0.628612 -6.33873e-21)
(0.49061 0.647406 1.72874e-20)
(0.430003 0.659775 -9.62268e-21)
(0.377166 0.585535 -1.03746e-20)
(0.43384 0.353297 -1.09642e-20)
(0.560812 0.0394481 2.81606e-21)
(0.682148 -0.224481 5.09821e-22)
(0.75253 -0.398902 -1.40228e-20)
(0.788798 -0.48161 2.38347e-21)
(0.801832 -0.501218 2.87624e-21)
(0.772334 -0.516634 -1.2355e-20)
(0.705496 -0.533251 1.07663e-20)
(0.656009 -0.461151 -3.4804e-21)
(0.655235 -0.247632 1.07745e-21)
(0.71381 0.0123332 4.2587e-21)
(-0.0763962 -0.0860026 -1.43014e-19)
(-0.1835 -0.240927 2.21256e-19)
(-0.245492 -0.419964 -4.53264e-20)
(-0.236376 -0.550793 1.94045e-20)
(-0.184809 -0.545185 -1.38597e-19)
(-0.080733 -0.370994 1.54646e-19)
(0.0621377 -0.0930273 -2.04611e-20)
(0.212114 0.193301 -1.09766e-19)
(0.33844 0.415951 2.29723e-20)
(0.420575 0.556239 -6.05132e-20)
(0.464463 0.623075 9.13438e-21)
(0.465273 0.654145 2.81813e-20)
(0.40468 0.67265 2.74428e-20)
(0.369694 0.582619 6.14883e-20)
(0.451247 0.327122 2.10888e-20)
(0.592486 0.00484779 2.71456e-20)
(0.717268 -0.251578 3.914e-21)
(0.784563 -0.413653 4.70181e-20)
(0.812887 -0.487836 3.2536e-21)
(0.81706 -0.49761 -1.05444e-20)
(0.788873 -0.499863 -1.06091e-20)
(0.721852 -0.512185 -2.08755e-20)
(0.665832 -0.450426 -9.00897e-21)
(0.652783 -0.257731 -1.00804e-21)
(0.705538 -0.0151466 -8.76519e-21)
(-0.0785158 -0.0754889 2.88931e-20)
(-0.186557 -0.232213 -7.2863e-20)
(-0.248916 -0.416302 -1.04279e-19)
(-0.242468 -0.554502 6.37984e-20)
(-0.199699 -0.557194 1.28415e-19)
(-0.104107 -0.392649 -1.71339e-19)
(0.0323086 -0.121202 8.65073e-20)
(0.178078 0.164065 6.87384e-21)
(0.304592 0.391678 8.82768e-20)
(0.390344 0.539781 1.07214e-19)
(0.44033 0.616115 6.365e-20)
(0.440564 0.660069 3.5453e-21)
(0.382342 0.682654 3.43289e-22)
(0.368415 0.574865 -5.89255e-20)
(0.475881 0.298096 -7.37792e-20)
(0.629971 -0.0295123 -3.57133e-20)
(0.755186 -0.276636 6.81559e-21)
(0.818345 -0.425324 -5.16908e-20)
(0.839085 -0.490487 1.16704e-20)
(0.832743 -0.492521 -1.3506e-20)
(0.806777 -0.4829 1.32096e-20)
(0.739212 -0.489913 3.57368e-20)
(0.680116 -0.437508 2.59689e-20)
(0.658538 -0.266147 -7.67738e-21)
(0.705115 -0.0425088 -6.51912e-21)
(-0.0805823 -0.0646522 -2.50632e-19)
(-0.188529 -0.223147 3.77961e-20)
(-0.249897 -0.412055 3.55422e-19)
(-0.244852 -0.557156 -2.02441e-19)
(-0.210397 -0.568148 1.13668e-19)
(-0.12397 -0.414 4.37457e-19)
(0.00617 -0.149776 -2.10458e-19)
(0.147581 0.133802 2.83993e-19)
(0.273627 0.365748 1.11926e-19)
(0.362885 0.521322 1.15536e-19)
(0.417803 0.607903 2.61772e-20)
(0.416874 0.66492 -1.11913e-19)
(0.363666 0.689308 -6.6925e-20)
(0.373895 0.562238 4.81652e-20)
(0.508013 0.266742 6.56061e-20)
(0.673346 -0.0626778 4.39879e-21)
(0.795697 -0.299015 -3.48902e-20)
(0.853201 -0.433899 3.72599e-20)
(0.866786 -0.489418 -8.55649e-20)
(0.848706 -0.485916 -4.5744e-20)
(0.825636 -0.465958 3.00679e-20)
(0.757356 -0.466776 -1.01143e-20)
(0.697225 -0.423484 7.72612e-21)
(0.671516 -0.272922 1.57021e-20)
(0.712069 -0.0689469 8.26843e-21)
(-0.0825857 -0.0535613 2.65449e-20)
(-0.189373 -0.213788 -5.17065e-19)
(-0.248327 -0.407245 4.25011e-19)
(-0.243318 -0.558675 -4.83652e-20)
(-0.216516 -0.577782 -4.41491e-19)
(-0.139992 -0.434767 -3.64022e-19)
(-0.0162291 -0.178564 1.00409e-19)
(0.120738 0.102722 -2.52999e-19)
(0.245813 0.338316 -1.42357e-19)
(0.338393 0.50107 -1.86394e-19)
(0.396821 0.598581 -1.76345e-20)
(0.394651 0.668406 4.37736e-20)
(0.349247 0.69218 1.0646e-19)
(0.386662 0.544783 -7.72581e-20)
(0.547376 0.233575 1.2466e-19)
(0.721963 -0.093903 -1.07796e-19)
(0.838443 -0.31805 -9.30998e-20)
(0.888491 -0.439326 -3.79262e-20)
(0.895172 -0.484642 -2.14318e-20)
(0.865055 -0.477688 5.57501e-20)
(0.844647 -0.449319 -4.96596e-20)
(0.776293 -0.442902 1.9535e-20)
(0.715557 -0.409236 -2.79808e-20)
(0.689751 -0.278443 -1.84916e-20)
(0.724998 -0.0940133 -1.61125e-21)
(-0.0845173 -0.0422953 1.17576e-19)
(-0.189058 -0.204203 4.7763e-19)
(-0.24412 -0.401906 -1.11846e-18)
(-0.237697 -0.558996 5.68863e-19)
(-0.21769 -0.585818 2.68275e-19)
(-0.15176 -0.454606 -6.0358e-20)
(-0.0348541 -0.207352 2.472e-19)
(0.0976222 0.0710248 -2.84783e-20)
(0.221384 0.309553 4.9752e-20)
(0.316905 0.479264 1.66498e-19)
(0.377364 0.588239 8.99169e-20)
(0.374366 0.670216 -5.49367e-21)
(0.339636 0.690883 -5.99102e-20)
(0.407194 0.522696 2.76804e-19)
(0.593394 0.199134 -5.72333e-20)
(0.774617 -0.122572 1.67866e-19)
(0.882824 -0.333184 4.7402e-20)
(0.923667 -0.441494 1.23545e-19)
(0.923236 -0.476392 1.64413e-20)
(0.882155 -0.467623 -5.71136e-20)
(0.862776 -0.433318 3.54629e-20)
(0.795993 -0.418343 -4.00963e-20)
(0.734077 -0.39512 -9.70315e-21)
(0.710593 -0.283274 -2.80136e-20)
(0.741282 -0.117431 -6.19979e-21)
(-0.0863703 -0.0309314 -2.39845e-19)
(-0.187564 -0.194461 -6.78958e-19)
(-0.237221 -0.396075 4.28061e-19)
(-0.22787 -0.558071 -9.30025e-19)
(-0.213598 -0.591988 -2.91915e-19)
(-0.158781 -0.473105 8.41083e-20)
(-0.0496421 -0.23591 -3.72692e-19)
(0.0782629 0.0389325 1.83889e-19)
(0.200497 0.27965 -1.27114e-19)
(0.298318 0.456148 -6.35613e-20)
(0.359477 0.576915 -7.84551e-20)
(0.35648 0.670034 1.40967e-19)
(0.335392 0.685086 -1.76513e-19)
(0.435901 0.496352 -1.18976e-19)
(0.645475 0.164158 -6.00381e-20)
(0.829921 -0.148164 -1.42684e-19)
(0.927981 -0.34405 1.00394e-19)
(0.958261 -0.440236 -3.63734e-20)
(0.949936 -0.465121 1.15008e-20)
(0.900399 -0.455435 5.88386e-20)
(0.879148 -0.418209 3.42241e-20)
(0.815986 -0.393346 -4.99594e-20)
(0.752753 -0.38093 5.07903e-20)
(0.731438 -0.287654 5.1878e-20)
(0.757352 -0.139301 -4.9819e-21)
(-0.0881393 -0.0195484 1.05673e-18)
(-0.184888 -0.184634 7.06932e-19)
(-0.227602 -0.389802 2.27717e-19)
(-0.213779 -0.555879 1.00412e-18)
(-0.203981 -0.596045 4.22004e-19)
(-0.160504 -0.489783 6.40991e-19)
(-0.0604584 -0.263859 -2.55726e-19)
(0.0626755 0.00660513 3.79436e-20)
(0.183185 0.248816 1.3853e-20)
(0.282437 0.431952 -8.39943e-20)
(0.34328 0.564593 -3.22091e-20)
(0.341422 0.667548 -1.45303e-19)
(0.337138 0.674521 2.09583e-19)
(0.473095 0.46628 3.22056e-20)
(0.703039 0.129589 -2.09429e-19)
(0.886561 -0.170184 -2.81723e-20)
(0.972861 -0.350486 -1.1936e-19)
(0.991815 -0.43538 -3.98711e-20)
(0.974449 -0.451417 1.06057e-19)
(0.919835 -0.440916 6.13444e-20)
(0.893463 -0.403964 6.38968e-21)
(0.835169 -0.368583 6.92145e-20)
(0.772411 -0.366064 7.4571e-21)
(0.75051 -0.291137 1.70981e-21)
(0.769467 -0.159982 1.99158e-20)
(-0.0898208 -0.00822424 -9.35346e-19)
(-0.181037 -0.174797 5.46171e-19)
(-0.21527 -0.383143 -4.14522e-20)
(-0.195439 -0.552429 1.98028e-19)
(-0.188673 -0.597788 1.95682e-19)
(-0.156352 -0.504113 -9.16582e-19)
(-0.067059 -0.29072 4.39809e-19)
(0.050851 -0.0257759 -4.25285e-19)
(0.169376 0.217277 -9.04579e-20)
(0.269042 0.406871 -1.07654e-19)
(0.328964 0.551216 -1.77953e-19)
(0.329572 0.662438 2.90976e-21)
(0.345611 0.658995 -3.70633e-20)
(0.51887 0.43312 -1.9287e-19)
(0.76524 0.0963901 4.11273e-19)
(0.943344 -0.188143 3.07083e-19)
(1.01634 -0.352505 -1.10192e-19)
(1.02378 -0.426847 -6.44929e-20)
(0.996368 -0.435852 -5.31389e-20)
(0.939929 -0.424102 -1.10784e-19)
(0.906139 -0.390135 -5.82245e-20)
(0.852098 -0.34511 2.07821e-21)
(0.793956 -0.349947 -8.36358e-20)
(0.767139 -0.292431 -1.24586e-20)
(0.774617 -0.179595 -5.39194e-20)
(-0.0914129 0.00296425 1.10257e-18)
(-0.176035 -0.165028 -1.55933e-18)
(-0.200262 -0.376162 -1.02647e-18)
(-0.17294 -0.54776 -1.15905e-18)
(-0.167624 -0.597081 2.25877e-19)
(-0.145792 -0.51555 1.49266e-19)
(-0.0690202 -0.315976 1.84153e-19)
(0.0427894 -0.057911 5.17018e-20)
(0.158909 0.185268 5.92521e-20)
(0.25797 0.381062 -7.56332e-20)
(0.316775 0.536701 1.74771e-19)
(0.32127 0.654365 -3.30669e-20)
(0.361693 0.63842 2.18263e-19)
(0.572949 0.397601 -7.41021e-20)
(0.830752 0.0654742 1.31813e-19)
(0.999067 -0.201622 -5.37498e-19)
(1.05734 -0.350239 -9.44161e-20)
(1.0535 -0.414745 -2.03743e-19)
(1.01573 -0.41885 -7.36965e-20)
(0.959652 -0.405382 -4.96725e-20)
(0.918024 -0.375929 4.76056e-20)
(0.865701 -0.323984 -2.24915e-20)
(0.81733 -0.332474 1.92611e-20)
(0.781381 -0.289509 4.91301e-21)
(0.771376 -0.19763 1.55724e-20)
(-0.0929154 0.0139424 1.3672e-19)
(-0.169916 -0.155405 1.73993e-18)
(-0.182646 -0.368929 -1.43725e-19)
(-0.146452 -0.541945 5.24114e-19)
(-0.140922 -0.593868 -1.37712e-18)
(-0.128397 -0.523586 -4.64246e-20)
(-0.0657288 -0.338955 -2.91026e-19)
(0.0385781 -0.0894156 2.07709e-19)
(0.151626 0.15304 1.92374e-19)
(0.249177 0.354652 4.15331e-20)
(0.306976 0.520957 3.74918e-20)
(0.316862 0.642958 -3.85959e-20)
(0.386392 0.612866 -1.37111e-19)
(0.634601 0.360587 -3.16641e-19)
(0.897825 0.0376286 -6.75625e-20)
(1.05244 -0.210361 1.51556e-19)
(1.09496 -0.343908 4.33473e-19)
(1.08029 -0.399411 6.7355e-21)
(1.03286 -0.400647 7.2966e-20)
(0.977874 -0.385418 6.8199e-20)
(0.92984 -0.36053 -1.03717e-19)
(0.875967 -0.305743 -1.05709e-20)
(0.841041 -0.314134 3.74717e-20)
(0.793359 -0.28025 -3.78736e-20)
(0.760888 -0.212601 1.32218e-20)
(-0.0943299 0.0246385 -2.65417e-18)
(-0.162722 -0.146008 -1.48804e-18)
(-0.162513 -0.361513 1.2786e-18)
(-0.116219 -0.535086 -6.03965e-19)
(-0.108809 -0.58819 1.82057e-18)
(-0.103926 -0.5278 -3.24135e-19)
(-0.056416 -0.35887 5.22683e-19)
(0.0384655 -0.119764 7.18943e-20)
(0.147466 0.120883 -1.72993e-19)
(0.242778 0.327763 1.77428e-19)
(0.299799 0.503898 6.69933e-20)
(0.316812 0.627815 5.39329e-21)
(0.420737 0.58262 -2.10717e-19)
(0.702604 0.323083 1.94134e-19)
(0.96451 0.0135203 -3.85943e-19)
(1.10212 -0.214312 2.23194e-19)
(1.12849 -0.333815 -1.98596e-19)
(1.10356 -0.381377 3.31403e-20)
(1.0481 -0.381356 -4.16024e-20)
(0.993809 -0.364913 -2.18377e-20)
(0.941734 -0.343519 5.12211e-20)
(0.884123 -0.290081 1.11567e-20)
(0.862792 -0.295777 -1.83552e-21)
(0.802873 -0.263554 -1.42095e-20)
(0.747819 -0.221855 -6.28468e-21)
(-0.0956591 0.0349846 2.45549e-18)
(-0.154508 -0.136918 6.12921e-19)
(-0.139977 -0.353987 -2.99083e-19)
(-0.0825481 -0.527309 5.32625e-19)
(-0.0716809 -0.580188 -1.52788e-18)
(-0.0723758 -0.527924 7.72472e-19)
(-0.0402528 -0.374875 -2.03897e-19)
(0.0429308 -0.148254 -1.56983e-19)
(0.146558 0.0891586 -3.79965e-20)
(0.239042 0.300557 -1.33971e-19)
(0.295413 0.485438 -1.11738e-19)
(0.321887 0.608543 1.11703e-19)
(0.465555 0.548218 2.99957e-19)
(0.775233 0.286199 6.81065e-19)
(1.02884 -0.00632391 -2.96124e-19)
(1.14685 -0.213649 1.51365e-19)
(1.15738 -0.32036 2.00248e-19)
(1.12297 -0.361277 2.56656e-19)
(1.06161 -0.361106 8.35588e-20)
(1.00726 -0.344379 1.13616e-19)
(0.953236 -0.32511 2.38756e-20)
(0.892097 -0.275987 7.1731e-20)
(0.880787 -0.278163 -6.26581e-20)
(0.809556 -0.240422 7.22597e-20)
(0.740079 -0.222285 5.02054e-21)
(-0.0969075 0.0449172 -4.11189e-19)
(-0.145331 -0.128213 -1.05323e-18)
(-0.115162 -0.346417 -1.097e-18)
(-0.0457925 -0.518751 5.11408e-19)
(-0.0300739 -0.570093 1.33507e-18)
(-0.0340394 -0.523893 -1.90235e-19)
(-0.0165002 -0.386152 -1.57693e-19)
(0.0527179 -0.173997 -1.28956e-19)
(0.149271 0.0583462 -5.76011e-20)
(0.238331 0.273269 2.353e-20)
(0.293935 0.465468 -2.16334e-20)
(0.333373 0.58485 -2.76972e-19)
(0.521175 0.510461 -2.79852e-19)
(0.850265 0.251081 7.03075e-20)
(1.08889 -0.0215682 2.33119e-19)
(1.18559 -0.208738 -3.64601e-19)
(1.18127 -0.304053 -3.3908e-19)
(1.13847 -0.339747 -1.62021e-19)
(1.07333 -0.340135 2.46639e-20)
(1.01851 -0.324035 -8.5192e-20)
(0.963628 -0.306042 -6.66729e-20)
(0.901571 -0.262246 -1.29686e-19)
(0.89447 -0.261543 3.70262e-20)
(0.813526 -0.21418 -2.91785e-20)
(0.745978 -0.211819 1.20605e-20)
(-0.0980805 0.0543777 1.26889e-18)
(-0.135251 -0.119969 9.59894e-19)
(-0.0882016 -0.338861 1.339e-18)
(-0.00633339 -0.509554 -8.17984e-19)
(0.0153639 -0.558212 -1.6186e-18)
(0.0104836 -0.51588 -6.79102e-19)
(0.0153091 -0.39204 1.32549e-19)
(0.0687976 -0.19594 3.49327e-20)
(0.156234 0.029095 2.04047e-19)
(0.241034 0.246238 8.33467e-20)
(0.295584 0.443825 4.43404e-20)
(0.353225 0.556695 2.73974e-19)
(0.587101 0.470412 -1.19861e-19)
(0.925108 0.218752 -3.12843e-19)
(1.14291 -0.0321236 2.2678e-19)
(1.21758 -0.200105 2.42966e-19)
(1.19997 -0.285514 1.38236e-19)
(1.15025 -0.317357 8.7871e-20)
(1.08311 -0.318801 -4.64369e-20)
(1.02804 -0.303888 2.35831e-20)
(0.972484 -0.287196 6.16166e-20)
(0.913166 -0.247983 1.42072e-19)
(0.904268 -0.245571 -6.36374e-20)
(0.816161 -0.189079 2.08593e-20)
(0.768702 -0.191067 -3.00942e-20)
(-0.0991842 0.0633125 -1.87461e-18)
(-0.124326 -0.112263 1.2896e-18)
(-0.0592288 -0.331369 1.50823e-18)
(0.0354404 -0.499843 5.64755e-20)
(0.0639191 -0.544899 5.12653e-19)
(0.0603051 -0.504294 2.58778e-19)
(0.0552009 -0.392171 -3.98112e-19)
(0.0922366 -0.212956 1.50397e-19)
(0.168296 0.00234398 -1.44209e-19)
(0.247553 0.219928 -2.32197e-20)
(0.301017 0.420324 -5.0804e-21)
(0.383959 0.52445 1.11842e-19)
(0.661744 0.429371 3.64167e-19)
(0.996994 0.190032 -1.14677e-19)
(1.18938 -0.0381627 2.8267e-19)
(1.24242 -0.188405 1.36462e-19)
(1.21351 -0.265423 1.05129e-19)
(1.15862 -0.294606 3.43321e-20)
(1.0909 -0.297491 -5.00711e-20)
(1.03613 -0.283942 -7.3811e-20)
(0.980019 -0.269167 -9.17342e-20)
(0.926158 -0.232967 3.0132e-20)
(0.911099 -0.229691 7.86401e-20)
(0.820484 -0.168119 3.01066e-20)
(0.802599 -0.164627 -1.74657e-20)
(-0.100226 0.0716738 1.02304e-18)
(-0.112612 -0.105163 -1.1937e-18)
(-0.0283738 -0.323979 -2.41292e-18)
(0.0791512 -0.489732 1.38398e-19)
(0.114863 -0.530515 4.94845e-19)
(0.114314 -0.489752 -1.35305e-19)
(0.102643 -0.38658 8.08137e-20)
(0.123969 -0.223998 6.4277e-20)
(0.186534 -0.0207556 -5.5886e-21)
(0.258446 0.194936 8.51398e-20)
(0.311827 0.394885 2.30832e-21)
(0.428101 0.488991 -8.62791e-20)
(0.74234 0.388812 -2.18553e-19)
(1.06319 0.165507 -1.06743e-20)
(1.22719 -0.0401023 -3.66123e-19)
(1.26009 -0.17438 -2.28271e-19)
(1.22216 -0.244463 -1.13923e-19)
(1.16395 -0.271942 -1.03855e-20)
(1.09683 -0.276519 -7.07719e-20)
(1.04286 -0.264357 1.19651e-19)
(0.986941 -0.252039 -1.25471e-19)
(0.938925 -0.217576 3.38999e-20)
(0.916239 -0.213675 -3.30474e-20)
(0.830094 -0.151656 2.8232e-22)
(0.836027 -0.139492 3.04049e-20)
(-0.101212 0.0794192 -1.40708e-18)
(-0.100152 -0.0987367 5.73919e-19)
(0.0042384 -0.316717 1.04651e-18)
(0.124451 -0.479325 -2.0887e-19)
(0.167493 -0.515375 4.60014e-19)
(0.171279 -0.472994 5.88675e-19)
(0.156525 -0.375764 6.06286e-20)
(0.16447 -0.22833 -1.25617e-19)
(0.21219 -0.0389225 5.70796e-20)
(0.274771 0.172024 -4.03382e-20)
(0.330931 0.367806 2.08042e-21)
(0.487192 0.451685 -6.35665e-20)
(0.82513 0.350222 3.59303e-20)
(1.12127 0.145427 4.00685e-20)
(1.25574 -0.0385674 8.13463e-20)
(1.27086 -0.158815 5.93036e-20)
(1.22641 -0.223267 -5.18473e-21)
(1.16661 -0.249768 1.81088e-20)
(1.10113 -0.256093 2.38985e-19)
(1.04825 -0.245423 9.30248e-20)
(0.993855 -0.235542 1.80566e-20)
(0.950008 -0.20246 -3.74281e-20)
(0.921331 -0.197804 -1.39522e-20)
(0.84626 -0.138003 -2.40461e-20)
(0.860394 -0.120002 -1.70275e-20)
(-0.102151 0.0865115 9.19979e-19)
(-0.0869787 -0.0930413 1.24301e-18)
(0.0384883 -0.309608 -5.95971e-19)
(0.171019 -0.468697 6.74605e-20)
(0.221167 -0.499715 6.72485e-19)
(0.229963 -0.454784 2.7853e-19)
(0.215266 -0.360679 4.51603e-19)
(0.213468 -0.225773 8.04717e-20)
(0.246446 -0.0508741 -7.62005e-21)
(0.298404 0.152127 -3.30005e-20)
(0.36236 0.340038 2.02402e-21)
(0.560642 0.414216 9.17566e-21)
(0.90576 0.31489 2.90594e-20)
(1.16931 0.129683 1.28365e-19)
(1.27497 -0.0343288 -2.05816e-19)
(1.27537 -0.142482 1.58165e-20)
(1.22687 -0.202381 -1.08782e-19)
(1.16702 -0.228416 -2.34196e-19)
(1.10404 -0.236366 -8.07879e-20)
(1.05248 -0.227386 5.04205e-20)
(1.00077 -0.219438 3.36911e-20)
(0.959018 -0.188114 7.71209e-20)
(0.927895 -0.182509 -3.69952e-20)
(0.865852 -0.125777 4.94681e-21)
(0.876241 -0.10571 2.68237e-21)
(-0.10305 0.092919 -1.45592e-19)
(-0.0731077 -0.0881269 -2.75162e-18)
(0.0742633 -0.302674 6.792e-19)
(0.218529 -0.4578 5.47818e-19)
(0.275368 -0.483775 -1.56654e-18)
(0.289242 -0.435841 2.3979e-19)
(0.276999 -0.342587 -6.68608e-20)
(0.269781 -0.216878 9.49822e-20)
(0.290049 -0.0557698 1.7916e-20)
(0.331955 0.136257 1.02818e-19)
(0.409984 0.313217 -1.0544e-20)
(0.645024 0.378301 -2.56589e-20)
(0.979832 0.283682 -1.42758e-19)
(1.2061 0.117836 -1.67444e-19)
(1.28538 -0.0282303 4.5954e-20)
(1.27448 -0.126081 -6.27419e-20)
(1.22422 -0.182254 5.05613e-20)
(1.16562 -0.208125 1.33192e-19)
(1.10574 -0.217484 4.68647e-20)
(1.05585 -0.210325 -1.69873e-19)
(1.00725 -0.203749 -4.20462e-21)
(0.966623 -0.174715 -7.8033e-20)
(0.936272 -0.167937 1.90649e-20)
(0.884096 -0.115112 4.35503e-21)
(0.889325 -0.0941378 -6.85712e-21)
(-0.103915 0.098614 -1.60489e-18)
(-0.0585338 -0.0840305 9.53652e-19)
(0.111451 -0.295903 2.71697e-19)
(0.266685 -0.446622 -5.50676e-19)
(0.329632 -0.467728 1.36869e-18)
(0.348195 -0.416734 -6.40777e-19)
(0.339832 -0.322823 -3.72898e-19)
(0.331373 -0.20295 -8.39859e-20)
(0.342792 -0.0536442 -2.12373e-20)
(0.377842 0.125384 -1.24962e-19)
(0.475292 0.289222 -3.11437e-20)
(0.734277 0.345339 4.72921e-20)
(1.0435 0.256893 1.99981e-19)
(1.23129 0.109185 6.14809e-20)
(1.28794 -0.021107 4.08601e-20)
(1.26922 -0.110192 3.17301e-19)
(1.21916 -0.163222 2.75332e-19)
(1.16283 -0.189047 2.19762e-19)
(1.10644 -0.199572 9.42945e-20)
(1.05858 -0.194218 1.05208e-19)
(1.013 -0.188649 -2.12806e-20)
(0.973676 -0.162222 5.62318e-20)
(0.945429 -0.154136 3.26324e-20)
(0.899316 -0.106282 -4.35054e-21)
(0.902834 -0.0838904 4.61139e-21)
(-0.104751 0.103573 1.07758e-18)
(-0.0432267 -0.0807677 2.84517e-19)
(0.149926 -0.289269 2.04882e-19)
(0.315252 -0.435226 -1.54757e-18)
(0.38355 -0.451619 -2.4981e-18)
(0.406107 -0.397845 -1.3276e-20)
(0.402099 -0.302604 5.02384e-19)
(0.395663 -0.185822 -4.59837e-20)
(0.40315 -0.0456419 -8.08165e-20)
(0.436854 0.119796 -2.3038e-20)
(0.555373 0.269303 6.38859e-20)
(0.820928 0.316047 -5.45804e-20)
(1.09404 0.234228 -1.74688e-19)
(1.24544 0.10287 5.5238e-20)
(1.28402 -0.0137042 2.34098e-19)
(1.26068 -0.0952538 -2.13061e-20)
(1.21234 -0.145505 6.42774e-20)
(1.15902 -0.171265 -1.04621e-19)
(1.10632 -0.182706 -1.4057e-19)
(1.06074 -0.179042 -1.15582e-20)
(1.01802 -0.174279 -4.76797e-20)
(0.980499 -0.150523 1.38029e-20)
(0.954236 -0.141302 -4.92322e-20)
(0.912759 -0.0987323 -2.48004e-20)
(0.916112 -0.075106 -8.90082e-22)
(-0.105562 0.107775 -1.20898e-18)
(-0.0271304 -0.0783273 1.9121e-18)
(0.189564 -0.282775 4.95195e-19)
(0.363976 -0.423614 8.88222e-19)
(0.436777 -0.435483 1.19303e-18)
(0.462456 -0.379391 -3.43577e-19)
(0.462529 -0.282852 -3.189e-19)
(0.460021 -0.167467 5.26443e-20)
(0.468295 -0.0338776 9.33941e-20)
(0.506791 0.118675 9.36108e-20)
(0.642857 0.253328 -6.59776e-21)
(0.89789 0.290296 2.88353e-20)
(1.13031 0.21492 1.82713e-19)
(1.24993 0.0980215 -1.4123e-19)
(1.27516 -0.00661176 6.70093e-21)
(1.24989 -0.0815517 -2.13915e-19)
(1.20435 -0.12922 2.80138e-19)
(1.15449 -0.154807 2.50177e-20)
(1.10556 -0.166912 -1.10966e-19)
(1.0624 -0.164788 5.42725e-20)
(1.02245 -0.160703 6.33998e-20)
(0.986996 -0.139539 3.9632e-20)
(0.962362 -0.129578 3.1898e-20)
(0.925379 -0.0918496 2.58828e-20)
(0.928042 -0.0680482 -2.23276e-21)
(-0.106348 0.111201 2.79696e-18)
(-0.0101507 -0.0766954 1.10743e-18)
(0.230229 -0.276403 1.9792e-19)
(0.412616 -0.411775 3.06422e-18)
(0.489007 -0.419342 4.62187e-19)
(0.516869 -0.36147 -4.43222e-19)
(0.520274 -0.264128 -4.63285e-19)
(0.522239 -0.149574 -1.10188e-19)
(0.534721 -0.0208588 3.77775e-20)
(0.582309 0.120226 6.07357e-20)
(0.728188 0.239862 -2.02299e-20)
(0.960237 0.267275 8.8236e-21)
(1.15292 0.198015 -6.79889e-20)
(1.24675 0.0938977 4.78281e-19)
(1.26295 -0.000228631 -5.59708e-19)
(1.23776 -0.069227 2.13304e-20)
(1.19568 -0.114395 -2.11906e-19)
(1.14951 -0.139658 1.09923e-19)
(1.1043 -0.152191 1.39847e-19)
(1.06361 -0.151441 -1.26808e-19)
(1.02637 -0.147944 -7.72151e-20)
(0.993055 -0.129229 -9.25716e-20)
(0.969895 -0.118923 -7.68471e-22)
(0.937062 -0.085447 -1.16794e-20)
(0.938626 -0.0624577 -8.74899e-22)
(-0.107109 0.113831 -1.17313e-18)
(0.00784756 -0.0758388 -4.73891e-18)
(0.27177 -0.270118 -2.16641e-18)
(0.460933 -0.399702 -3.61024e-18)
(0.539967 -0.403213 2.17997e-19)
(0.569071 -0.344107 -1.19461e-19)
(0.574844 -0.246678 -6.08912e-20)
(0.580815 -0.133268 8.85258e-20)
(0.599075 -0.00877337 -1.05639e-20)
(0.656625 0.122079 5.56829e-20)
(0.803156 0.226985 3.89437e-20)
(1.00621 0.245953 -1.88944e-20)
(1.16395 0.182671 -1.97737e-19)
(1.23815 0.0899842 -2.29175e-19)
(1.24878 0.00523684 -5.90867e-20)
(1.22502 -0.0583047 6.24364e-20)
(1.18668 -0.100997 1.69774e-19)
(1.14427 -0.125768 1.05973e-19)
(1.10264 -0.138524 -7.74258e-20)
(1.06444 -0.138972 8.8971e-20)
(1.02984 -0.136006 7.72704e-20)
(0.998631 -0.119562 3.8611e-20)
(0.976871 -0.109236 -2.03465e-21)
(0.947628 -0.0795102 6.01578e-22)
(0.948214 -0.0579378 6.88762e-21)
(-0.107841 0.115644 -2.70964e-19)
(0.02702 -0.0756686 -2.91106e-18)
(0.314043 -0.263903 2.57155e-19)
(0.508701 -0.387398 2.23117e-18)
(0.589412 -0.387114 -7.20815e-19)
(0.618859 -0.327296 1.08542e-18)
(0.625999 -0.230538 -3.71993e-19)
(0.63496 -0.119068 -3.56874e-20)
(0.658809 0.0010019 -7.94324e-20)
(0.723921 0.122219 -1.73861e-19)
(0.863446 0.21324 -9.08993e-21)
(1.0371 0.225606 7.92248e-21)
(1.16632 0.168357 6.47143e-20)
(1.22623 0.0860101 -2.19229e-19)
(1.23379 0.00973229 -5.03286e-19)
(1.21222 -0.0487273 -5.69105e-20)
(1.17765 -0.0889516 -3.18712e-20)
(1.13893 -0.113072 -8.07895e-20)
(1.10068 -0.125878 1.02114e-19)
(1.06496 -0.12735 -4.08086e-20)
(1.0329 -0.124869 -5.49884e-20)
(1.0037 -0.110514 2.89151e-20)
(0.983294 -0.100412 -5.87198e-21)
(0.957118 -0.0740109 1.15154e-20)
(0.956965 -0.0541643 3.21863e-21)
(-0.108532 0.116616 4.53402e-18)
(0.04754 -0.0760581 6.89406e-18)
(0.356887 -0.257734 1.87893e-18)
(0.555705 -0.374869 6.97274e-19)
(0.637126 -0.371069 1.83663e-18)
(0.666076 -0.311022 -4.95876e-20)
(0.673647 -0.215636 2.154e-19)
(0.684419 -0.107023 -1.25485e-20)
(0.712446 0.0079786 6.18672e-20)
(0.781036 0.119664 4.60826e-20)
(0.908883 0.198199 2.6471e-20)
(1.05606 0.206018 3.7591e-20)
(1.16302 0.154855 9.6265e-20)
(1.21272 0.0818964 8.04433e-20)
(1.21879 0.0133096 8.75798e-20)
(1.19971 -0.040389 5.41019e-20)
(1.16878 -0.0781595 -8.4562e-21)
(1.13359 -0.101492 -1.11616e-19)
(1.0985 -0.114207 -5.7624e-20)
(1.06523 -0.116538 1.79151e-20)
(1.03556 -0.114501 1.05645e-19)
(1.00826 -0.102063 8.88185e-21)
(0.989186 -0.0923489 1.67587e-20)
(0.96561 -0.0689232 -3.9697e-20)
(0.964933 -0.0508893 -6.64776e-21)
(-0.109171 0.116724 -4.92229e-18)
(0.0695971 -0.076858 -5.80665e-18)
(0.400128 -0.25158 -4.56553e-18)
(0.601741 -0.362127 -5.53105e-19)
(0.682924 -0.355102 -2.88637e-18)
(0.710615 -0.295269 -9.35802e-20)
(0.717785 -0.201861 -2.46721e-19)
(0.729237 -0.0969194 3.56514e-21)
(0.759496 0.0123203 -4.37918e-20)
(0.827577 0.114506 -4.23409e-21)
(0.941916 0.182282 -4.35203e-20)
(1.0667 0.187341 -3.08879e-20)
(1.15649 0.142145 -8.59184e-20)
(1.19881 0.0776748 -5.92673e-20)
(1.2043 0.0160748 2.27476e-19)
(1.18774 -0.0331622 -9.21105e-20)
(1.1602 -0.0685119 -2.06706e-20)
(1.12832 -0.090946 2.55278e-19)
(1.09615 -0.103459 -6.97638e-20)
(1.06529 -0.106495 4.13435e-20)
(1.03783 -0.104868 -6.44858e-20)
(1.01233 -0.0941813 -6.42371e-20)
(0.994571 -0.0849491 -4.92958e-20)
(0.973187 -0.0642232 3.59472e-20)
(0.97215 -0.047941 -1.8706e-20)
(-0.109739 0.11594 3.1e-18)
(0.0933825 -0.0779012 3.7297e-18)
(0.44358 -0.245402 2.1297e-19)
(0.646622 -0.349186 -4.53958e-19)
(0.726652 -0.339241 1.47023e-18)
(0.752407 -0.280025 7.86894e-19)
(0.758466 -0.189093 4.83282e-19)
(0.769612 -0.0884497 5.05071e-20)
(0.8002 0.0145212 1.30578e-20)
(0.864879 0.107468 -3.60264e-20)
(0.965758 0.166241 3.35982e-21)
(1.07206 0.169831 3.45658e-20)
(1.14848 0.130275 -7.76905e-20)
(1.18526 0.0734192 2.13325e-20)
(1.19062 0.0181515 7.25993e-21)
(1.17643 -0.0269153 4.96507e-20)
(1.152 -0.0598988 -2.10088e-19)
(1.12318 -0.0813525 -2.12617e-19)
(1.09371 -0.0935792 3.54744e-20)
(1.06519 -0.0971765 -1.3115e-19)
(1.03974 -0.0959338 -3.19212e-20)
(1.01598 -0.0868374 6.85678e-22)
(0.99946 -0.0781332 5.08718e-22)
(0.97993 -0.0598802 1.77052e-20)
(0.978646 -0.0452095 2.63956e-20)
(-0.110206 0.114223 1.30194e-18)
(0.119056 -0.078989 -3.26959e-18)
(0.487046 -0.239155 1.99405e-18)
(0.690179 -0.336067 -7.28854e-19)
(0.768191 -0.323514 7.49942e-19)
(0.791426 -0.265278 -9.4425e-20)
(0.795789 -0.177223 -3.76066e-19)
(0.805815 -0.0813065 2.04237e-20)
(0.835205 0.0151542 3.48145e-21)
(0.894826 0.0993985 1.83171e-20)
(0.983212 0.150738 -1.33407e-20)
(1.07427 0.153673 -2.49175e-20)
(1.14003 0.119283 7.51644e-20)
(1.17249 0.0692067 1.28351e-20)
(1.17789 0.0196614 1.27113e-19)
(1.16584 -0.021522 8.97374e-20)
(1.14421 -0.0522139 1.14878e-19)
(1.1182 -0.0726323 -2.30594e-20)
(1.09122 -0.0845092 1.17074e-19)
(1.06493 -0.0885384 6.43482e-20)
(1.04131 -0.0876592 3.389e-20)
(1.01925 -0.0799933 2.79165e-20)
(1.00386 -0.0718375 3.03756e-20)
(0.985921 -0.0558613 -8.57777e-21)
(0.984464 -0.0426251 -2.21996e-20)
(-0.110526 0.111526 -1.92652e-18)
(0.146747 -0.0799275 7.46639e-19)
(0.530322 -0.232794 4.05477e-18)
(0.732263 -0.322796 2.90919e-18)
(0.807453 -0.30795 -1.17379e-18)
(0.827682 -0.251019 -6.57008e-19)
(0.829885 -0.166147 -3.07199e-20)
(0.838161 -0.0752186 -3.29365e-20)
(0.865297 0.0147312 3.517e-20)
(0.919137 0.0909849 1.5705e-20)
(0.996305 0.136193 8.62047e-21)
(1.0747 0.138937 1.33568e-20)
(1.13176 0.109175 2.33379e-20)
(1.16068 0.0651028 -1.97373e-19)
(1.16617 0.0207145 -1.7785e-19)
(1.156 -0.0168664 -2.62925e-19)
(1.13687 -0.0453574 -8.01281e-20)
(1.11341 -0.0647093 2.13284e-20)
(1.08872 -0.0761902 -1.60624e-19)
(1.06453 -0.0805372 -3.28758e-20)
(1.04257 -0.0800055 -1.88101e-20)
(1.02219 -0.0736094 -3.78067e-20)
(1.00775 -0.0660127 5.64142e-21)
(0.991248 -0.0521308 -7.01328e-21)
(0.989654 -0.0401472 -2.86634e-21)
(-0.110655 0.107824 -2.36764e-18)
(0.176538 -0.080548 1.75111e-18)
(0.573199 -0.22627 -9.99828e-20)
(0.772746 -0.3094 -1.5364e-18)
(0.844382 -0.292577 9.009e-19)
(0.861219 -0.237236 4.72316e-19)
(0.860914 -0.155774 -1.1421e-19)
(0.866993 -0.0699578 -1.31533e-19)
(0.891232 0.0136547 9.73239e-22)
(0.939149 0.0826868 -5.60664e-21)
(1.0064 0.122809 -1.2732e-20)
(1.07417 0.125606 1.80311e-20)
(1.12397 0.0999336 8.44211e-20)
(1.14991 0.0611582 1.18179e-19)
(1.15544 0.0214072 -1.52229e-19)
(1.14691 -0.0128444 1.41647e-19)
(1.12999 -0.0392374 5.3679e-20)
(1.10882 -0.0575117 4.47697e-21)
(1.08624 -0.0685647 1.10428e-19)
(1.064 -0.0731308 -2.21497e-20)
(1.04357 -0.072932 -8.21615e-21)
(1.02481 -0.0676471 3.93619e-20)
(1.01116 -0.0606214 -1.12604e-20)
(0.996007 -0.0486501 3.97997e-20)
(0.994269 -0.0377493 -2.35325e-20)
(-0.110539 0.103092 9.25609e-19)
(0.208439 -0.0807087 -4.09116e-18)
(0.615468 -0.219537 -3.87188e-18)
(0.811521 -0.295909 -1.92173e-18)
(0.878954 -0.27742 1.35629e-18)
(0.892108 -0.223919 -5.84203e-19)
(0.88906 -0.146019 5.11932e-19)
(0.892658 -0.0653368 1.72465e-19)
(0.913673 0.0122204 -1.25027e-20)
(0.955847 0.0747786 -1.21894e-20)
(1.01438 0.110644 2.15471e-20)
(1.07316 0.11361 -1.05024e-20)
(1.11683 0.0915219 -2.8306e-20)
(1.14017 0.0574097 -2.21521e-20)
(1.14568 0.0218212 6.31431e-20)
(1.13852 -0.00936376 -1.7104e-19)
(1.12355 -0.0337699 -1.02949e-19)
(1.10445 -0.0509722 1.18018e-19)
(1.08381 -0.061577 -3.52295e-20)
(1.06337 -0.0662785 -1.18774e-20)
(1.04435 -0.0663974 5.52293e-20)
(1.02714 -0.0620716 -2.15508e-20)
(1.01411 -0.0556325 -5.19494e-20)
(1.00029 -0.0453794 -3.50809e-20)
(0.998349 -0.0354145 4.03969e-20)
(-0.110103 0.0973175 1.13485e-19)
(0.242381 -0.0803086 1.17866e-18)
(0.656923 -0.212556 1.22497e-18)
(0.848503 -0.282356 3.17347e-18)
(0.911171 -0.262504 -2.17507e-18)
(0.920446 -0.211056 4.59394e-19)
(0.914519 -0.13681 -3.18558e-19)
(0.915494 -0.0612032 6.76119e-20)
(0.933181 0.0106382 -6.27917e-20)
(0.969957 0.0674115 -4.42654e-20)
(1.02085 0.0996811 -3.85173e-20)
(1.07196 0.102859 -2.81926e-20)
(1.11038 0.0838952 6.72718e-20)
(1.13141 0.0538827 -8.94587e-20)
(1.13682 0.0220249 -9.63027e-20)
(1.13082 -0.0063441 2.82332e-19)
(1.11754 -0.0288789 2.54512e-19)
(1.1003 -0.0450283 -2.99104e-20)
(1.08142 -0.0551738 1.25058e-20)
(1.06264 -0.0599411 3.14196e-20)
(1.04495 -0.0603598 -4.20782e-20)
(1.02917 -0.0568538 4.06096e-20)
(1.01664 -0.0510161 3.57718e-20)
(1.00418 -0.0422807 -4.1508e-20)
(1.00193 -0.0331395 -3.95627e-20)
(-0.109258 0.090507 1.09991e-18)
(0.278221 -0.0792981 2.41477e-18)
(0.69737 -0.205294 -3.71925e-18)
(0.883627 -0.268776 -1.82275e-18)
(0.94106 -0.247848 1.07331e-18)
(0.946346 -0.198634 6.43121e-19)
(0.937492 -0.128081 5.20953e-19)
(0.935816 -0.057435 -1.84939e-19)
(0.950221 0.00905495 5.96847e-20)
(0.982018 0.0606606 1.00079e-21)
(1.02623 0.0898626 -1.80752e-20)
(1.07075 0.0932547 -1.12195e-19)
(1.10461 0.0770046 -2.39687e-19)
(1.12356 0.0505929 -1.27658e-19)
(1.1288 0.0220753 2.55848e-19)
(1.12375 -0.00371535 -4.95122e-20)
(1.11196 -0.0244962 -6.44605e-21)
(1.09637 -0.0396225 5.63725e-20)
(1.07911 -0.0493048 -1.45178e-21)
(1.06183 -0.0540809 4.03228e-20)
(1.04539 -0.0547793 -4.70712e-20)
(1.03091 -0.0519691 2.66354e-20)
(1.01882 -0.0467388 7.96363e-20)
(1.00772 -0.0393249 4.16615e-20)
(1.00502 -0.0309324 -4.35006e-22)
(-0.107897 0.0826977 -3.03923e-18)
(0.315749 -0.077681 -2.20438e-18)
(0.736627 -0.197731 2.25646e-18)
(0.916852 -0.255203 -1.4458e-18)
(0.968672 -0.233473 5.70677e-19)
(0.969936 -0.18664 -1.17258e-18)
(0.958184 -0.119774 -5.60279e-19)
(0.953916 -0.0539349 -8.21253e-21)
(0.96518 0.00757166 8.11484e-20)
(0.992441 0.0545546 -4.20502e-20)