/*--------------------------------*- C++ -*----------------------------------*\
  =========                 |
  \\      /  F ield         | OpenFOAM: The Open Source CFD Toolbox
   \\    /   O peration     | Website:  https://openfoam.org
    \\  /    A nd           | Version:  7
     \\/     M anipulation  |
\*---------------------------------------------------------------------------*/
FoamFile
{
    version     2.0;
    format      ascii;
    class       volVectorField;
    location    "20";
    object      U;
}
// * * * * * * * * * * * * * * * * * * * * * * * * * * * * * * * * * * * * * //

dimensions      [0 1 -1 0 0 0 0];

internalField   nonuniform List<vector> 
385
(
(0.972537 0.0330825 -2.60422e-19)
(0.971378 0.0319874 -2.02169e-20)
(0.970258 0.0308536 7.27148e-20)
(0.969179 0.0296825 1.14214e-19)
(0.973006 0.0264293 4.11979e-20)
(0.96814 0.0284753 5.68856e-20)
(0.972115 0.0253474 -2.56755e-20)
(0.967145 0.0272334 1.09987e-19)
(0.971262 0.0242354 -2.88656e-20)
(0.976311 0.0204374 1.43028e-20)
(0.966194 0.0259583 -2.06389e-20)
(0.970447 0.0230946 5.34489e-20)
(0.975599 0.0194761 -5.17525e-20)
(0.957108 0.0302744 8.88556e-20)
(0.965288 0.0246513 -1.88367e-19)
(0.969671 0.0219264 -2.29242e-19)
(0.974923 0.0184915 3.28677e-20)
(0.977944 0.0164948 2.9415e-20)
(0.95611 0.0286272 -1.70396e-19)
(0.964429 0.0233142 1.22905e-19)
(0.968936 0.0207321 4.64994e-20)
(0.974281 0.0174848 -8.47605e-21)
(0.977382 0.015595 7.29554e-21)
(0.955168 0.0269457 1.95565e-19)
(0.963618 0.0219483 -1.12384e-19)
(0.968242 0.019513 1.56719e-19)
(0.973676 0.0164571 -9.26955e-20)
(0.976851 0.0146769 6.77549e-20)
(0.980559 0.0126457 2.92053e-20)
(0.954283 0.0252318 -8.60204e-20)
(0.962856 0.0205553 -6.06613e-21)
(0.967591 0.0182707 -4.84977e-20)
(0.973107 0.0154097 6.86462e-20)
(0.976352 0.0137415 -5.67352e-20)
(0.980111 0.0118405 1.25044e-20)
(0.982394 0.0105569 -5.52598e-21)
(0.953457 0.0234875 1.51909e-19)
(0.962144 0.019137 3.1442e-20)
(0.966983 0.0170066 -5.33638e-20)
(0.972575 0.0143439 -2.14385e-20)
(0.975887 0.0127898 -5.60936e-20)
(0.979693 0.0110212 -5.42217e-20)
(0.982023 0.00982455 -1.74425e-20)
(0.952689 0.0217149 -1.31968e-19)
(0.961483 0.017695 -6.80636e-20)
(0.966418 0.0157221 1.18826e-19)
(0.972082 0.0132608 3.49671e-20)
(0.975454 0.0118231 3.35242e-20)
(0.979305 0.0101889 4.70552e-20)
(0.98168 0.00908084 3.07748e-20)
(0.951983 0.019916 2.0577e-20)
(0.960874 0.016231 1.77124e-19)
(0.965898 0.0144188 -3.24435e-20)
(0.971628 0.0121618 7.62643e-20)
(0.975056 0.0108424 2.85114e-20)
(0.978947 0.00934433 1.44712e-20)
(0.981364 0.0083267 -2.57879e-21)
(0.951337 0.018093 -7.73869e-20)
(0.960317 0.0147469 2.73896e-20)
(0.965423 0.0130983 -7.67613e-20)
(0.971213 0.0110481 1.08155e-20)
(0.974693 0.00984891 -2.21145e-20)
(0.978621 0.00848862 -1.44526e-20)
(0.981076 0.00756286 -4.62445e-21)
(0.950753 0.016248 6.9653e-20)
(0.959814 0.0132444 -1.48353e-19)
(0.964994 0.0117621 1.02007e-19)
(0.970838 0.00992122 -4.64513e-20)
(0.974364 0.00884378 3.74437e-20)
(0.978325 0.00762275 -5.31055e-21)
(0.980816 0.00679043 -2.70314e-21)
(0.950233 0.0143833 -7.29982e-21)
(0.959364 0.0117255 -1.6132e-20)
(0.964611 0.0104118 -5.79692e-20)
(0.970504 0.00878235 1.64879e-20)
(0.974071 0.00782817 -1.36903e-20)
(0.978062 0.0067477 2.05551e-20)
(0.980585 0.00600987 -1.25395e-20)
(0.949776 0.0125012 -7.49648e-20)
(0.95897 0.0101919 3.8518e-20)
(0.964275 0.00904895 -3.0281e-20)
(0.97021 0.00763291 -3.98751e-20)
(0.973813 0.0068033 -2.75221e-20)
(0.97783 0.00586459 1.15007e-20)
(0.980382 0.00522263 -2.75783e-20)
(0.949383 0.0106038 1.54057e-19)
(0.958631 0.00864555 -3.12718e-20)
(0.963986 0.00767528 2.48985e-20)
(0.969957 0.00647427 3.56024e-20)
(0.973592 0.00577037 1.19205e-20)
(0.977631 0.00497442 -2.28461e-21)
(0.980208 0.00442936 -9.74252e-21)
(0.949055 0.00869351 -1.01806e-19)
(0.958348 0.00708843 3.2665e-20)
(0.963745 0.00629239 3.18148e-21)
(0.969746 0.00530781 -2.86064e-20)
(0.973407 0.00473058 -2.56255e-21)
(0.977465 0.00407823 -2.30038e-20)
(0.980062 0.00363093 3.34519e-20)
(0.948791 0.00677264 -1.14469e-20)
(0.958121 0.00552244 -2.51194e-21)
(0.963552 0.00490194 -3.99388e-21)
(0.969577 0.00413496 1.30768e-20)
(0.973259 0.00368519 4.27463e-20)
(0.977332 0.00317711 1.71713e-20)
(0.979946 0.00282845 -6.64536e-21)
(0.948594 0.0048435 4.80294e-20)
(0.95795 0.00394955 1.65024e-20)
(0.963407 0.0035056 -3.00009e-20)
(0.96945 0.00295711 -2.25772e-20)
(0.973148 0.00263541 -3.42218e-20)
(0.977232 0.00227212 -9.82236e-21)
(0.979858 0.00202263 3.288e-21)
(0.948462 0.00290846 -2.6224e-20)
(0.957836 0.0023717 -1.6447e-20)
(0.96331 0.00210504 1.63414e-20)
(0.969366 0.00177568 1.09864e-20)
(0.973074 0.00158249 6.85261e-21)
(0.977165 0.00136437 8.4249e-21)
(0.9798 0.00121452 -6.3983e-21)
(0.948396 0.000969871 1.32731e-20)
(0.957779 0.00079089 9.10507e-21)
(0.963261 0.000701951 1.21494e-21)
(0.969323 0.000592126 1.52739e-21)
(0.973037 0.000527698 5.25161e-21)
(0.977132 0.000454967 -2.98338e-21)
(0.979771 0.000404983 1.30031e-21)
(0.948396 -0.000969868 1.30083e-20)
(0.957779 -0.000790882 9.5524e-21)
(0.963261 -0.000701948 7.12082e-22)
(0.969323 -0.00059212 1.69485e-21)
(0.973037 -0.000527694 5.04502e-21)
(0.977132 -0.000454963 -3.09772e-21)
(0.979771 -0.00040498 1.06371e-21)
(0.948462 -0.00290845 -2.6222e-20)
(0.957836 -0.00237169 -1.62763e-20)
(0.96331 -0.00210503 1.67109e-20)
(0.969366 -0.00177568 1.24911e-20)
(0.973074 -0.00158249 6.56938e-21)
(0.977165 -0.00136437 7.07952e-21)
(0.9798 -0.00121451 -6.5275e-21)
(0.948594 -0.0048435 4.80996e-20)
(0.95795 -0.00394954 1.65228e-20)
(0.963407 -0.00350559 -3.07699e-20)
(0.96945 -0.0029571 -1.98796e-20)
(0.973148 -0.0026354 -3.47319e-20)
(0.977232 -0.00227212 -1.2031e-20)
(0.979858 -0.00202263 5.87249e-21)
(0.948791 -0.00677263 -1.19766e-20)
(0.958121 -0.00552244 -2.92542e-21)
(0.963552 -0.00490194 -9.73883e-21)
(0.969577 -0.00413495 1.93808e-20)
(0.973259 -0.00368518 4.03165e-20)
(0.977332 -0.0031771 1.80503e-20)
(0.979946 -0.00282845 -1.02323e-20)
(0.949055 -0.00869351 -1.04974e-19)
(0.958348 -0.00708842 3.50437e-20)
(0.963745 -0.00629239 2.14041e-21)
(0.969746 -0.00530781 -3.00324e-20)
(0.973407 -0.00473058 -4.39299e-21)
(0.977465 -0.00407822 -1.64956e-20)
(0.980062 -0.00363093 2.90252e-20)
(0.949383 -0.0106038 1.52657e-19)
(0.958631 -0.00864554 -3.47495e-20)
(0.963986 -0.00767528 2.2878e-20)
(0.969957 -0.00647426 3.25415e-20)
(0.973592 -0.00577036 1.46774e-20)
(0.977631 -0.00497441 -5.49094e-21)
(0.980208 -0.00442936 -2.88021e-21)
(0.949776 -0.0125012 -7.92119e-20)
(0.95897 -0.0101919 4.37298e-20)
(0.964275 -0.00904895 -3.25249e-20)
(0.97021 -0.0076329 -3.90916e-20)
(0.973813 -0.0068033 -2.67178e-20)
(0.97783 -0.00586459 8.80683e-21)
(0.980382 -0.00522263 -1.79308e-20)
(0.950233 -0.0143833 -4.41263e-21)
(0.959364 -0.0117255 -2.67426e-20)
(0.964611 -0.0104118 -5.91365e-20)
(0.970504 -0.00878235 1.85203e-20)
(0.974071 -0.00782817 -1.72756e-20)
(0.978062 -0.0067477 2.51699e-20)
(0.980585 -0.00600987 -1.58958e-20)
(0.950753 -0.016248 6.15554e-20)
(0.959814 -0.0132444 -1.39956e-19)
(0.964994 -0.0117621 9.64566e-20)
(0.970838 -0.00992122 -5.09865e-20)
(0.974364 -0.00884377 3.96404e-20)
(0.978325 -0.00762274 -5.34539e-21)
(0.980816 -0.00679043 -7.34432e-22)
(0.951337 -0.0180929 -7.09732e-20)
(0.960317 -0.0147469 1.97463e-20)
(0.965423 -0.0130983 -7.10795e-20)
(0.971213 -0.0110481 1.53655e-20)
(0.974693 -0.00984891 -3.12436e-20)
(0.978621 -0.00848861 -5.12437e-21)
(0.981076 -0.00756286 -9.82364e-21)
(0.951983 -0.019916 2.9446e-20)
(0.960874 -0.016231 1.69035e-19)
(0.965898 -0.0144188 -1.86499e-20)
(0.971628 -0.0121618 7.12589e-20)
(0.975056 -0.0108424 3.01357e-20)
(0.978947 -0.00934432 9.72894e-21)
(0.981364 -0.0083267 5.57242e-21)
(0.952689 -0.0217149 -1.34475e-19)
(0.961483 -0.017695 -6.46918e-20)
(0.966418 -0.0157221 1.24512e-19)
(0.972082 -0.0132608 3.46365e-20)
(0.975454 -0.0118231 3.02447e-20)
(0.979305 -0.0101889 5.35045e-20)
(0.98168 -0.00908084 3.28088e-20)
(0.953457 -0.0234875 1.60846e-19)
(0.962144 -0.019137 1.35154e-20)
(0.966983 -0.0170065 -5.16785e-20)
(0.972575 -0.0143439 -4.47872e-21)
(0.975887 -0.0127898 -6.87103e-20)
(0.979693 -0.0110212 -5.04067e-20)
(0.982023 -0.00982455 -2.39769e-20)
(0.954283 -0.0252318 -8.59087e-20)
(0.962856 -0.0205553 -1.84673e-20)
(0.967591 -0.0182707 -3.80457e-20)
(0.973107 -0.0154097 5.98713e-20)
(0.976352 -0.0137414 -5.66617e-20)
(0.980111 -0.0118405 1.61699e-20)
(0.982394 -0.0105569 4.06197e-20)
(0.955168 -0.0269457 2.02877e-19)
(0.963618 -0.0219483 -1.26603e-19)
(0.968242 -0.019513 1.6596e-19)
(0.973676 -0.0164571 -1.00865e-19)
(0.976851 -0.0146769 7.10302e-20)
(0.980559 -0.0126457 -7.8227e-20)
(0.982791 -0.011277 -6.68836e-20)
(0.95611 -0.0286272 -1.76658e-19)
(0.964429 -0.0233142 1.26381e-19)
(0.968936 -0.020732 4.5396e-20)
(0.974281 -0.0174848 -1.06359e-20)
(0.977382 -0.015595 -2.41105e-21)
(0.981035 -0.0134359 7.71503e-20)
(0.983216 -0.0119841 6.64277e-20)
(0.957108 -0.0302744 -2.80834e-20)
(0.965288 -0.0246513 -1.75127e-19)
(0.969671 -0.0219264 -2.34726e-19)
(0.974923 -0.0184915 2.77762e-20)
(0.977944 -0.0164948 -6.61023e-20)
(0.981539 -0.0142103 -2.30655e-20)
(0.966194 -0.0259583 -2.83959e-20)
(0.970447 -0.0230946 4.84248e-20)
(0.975599 -0.0194761 -4.2847e-20)
(0.978537 -0.0173751 8.28477e-20)
(0.982071 -0.0149679 -3.36267e-20)
(0.967145 -0.0272334 1.02722e-19)
(0.971262 -0.0242354 -3.85692e-21)
(0.976311 -0.0204374 -1.24708e-19)
(0.979161 -0.018235 -1.84151e-20)
(0.96814 -0.0284753 4.94821e-20)
(0.972115 -0.0253474 -1.77453e-20)
(0.977055 -0.0213743 1.35269e-19)
(0.979813 -0.0190734 -6.75699e-20)
(0.969179 -0.0296825 9.26924e-20)
(0.973006 -0.0264293 1.02674e-19)
(0.977832 -0.0222856 4.66656e-20)
(0.970258 -0.0308536 6.41047e-20)
(0.973934 -0.0274799 6.26567e-20)
(0.978641 -0.0231703 -2.66708e-20)
(0.971378 -0.0319874 -1.48267e-20)
(0.974897 -0.028498 -9.95486e-20)
(0.972537 -0.0330825 -1.23441e-20)
(0.975894 -0.0294824 -8.64209e-20)
(0.973733 -0.0341378 -4.18498e-20)
(0.976924 -0.030432 1.10618e-19)
(0.989388 0.000154414 -1.10217e-22)
(0.987842 0.000221886 -1.10955e-23)
(0.985239 0.000251423 4.81541e-23)
(0.983027 0.000349771 -2.06026e-22)
(0.989395 0.000463165 -2.14242e-22)
(0.987852 0.000665556 3.2753e-22)
(0.985252 0.000754488 -1.20816e-22)
(0.983048 0.0010492 5.40764e-23)
(0.989408 0.000771671 -5.73289e-22)
(0.987871 0.00110899 -2.64572e-22)
(0.985279 0.00125586 1.1923e-21)
(0.983089 0.00174767 3.62349e-23)
(0.989427 0.00107978 -3.10479e-22)
(0.9879 0.00155194 1.71082e-23)
(0.985319 0.00175717 -1.12028e-21)
(0.983151 0.00244527 -1.25115e-21)
(0.989453 0.00138735 7.32505e-22)
(0.987938 0.00199425 3.80228e-24)
(0.985373 0.00225358 -1.61268e-22)
(0.983233 0.00314051 3.7999e-22)
(0.989486 0.00169426 -6.45671e-22)
(0.987985 0.00243568 9.47557e-22)
(0.985439 0.0027512 1.48232e-21)
(0.983338 0.00383459 -6.27615e-22)
(0.989524 0.00200042 -1.986e-21)
(0.988043 0.0028757 -1.17983e-21)
(0.98552 0.00323666 3.66976e-21)
(0.983462 0.00452501 7.97713e-22)
(0.98957 0.00230588 -8.66508e-22)
(0.988107 0.0033141 3.92924e-22)
(0.985614 0.00372799 -1.19764e-21)
(0.98361 0.00521288 1.24891e-22)
(0.989621 0.00261038 2.61721e-21)
(0.988183 0.00375159 4.85201e-22)
(0.985722 0.00422658 8.54205e-22)
(0.983777 0.00589901 -2.74845e-21)
(0.989679 0.00291396 5.67816e-22)
(0.988267 0.00418255 1.17972e-21)
(0.985844 0.00471237 -1.70754e-21)
(0.983966 0.00657938 2.11117e-21)
(0.989743 0.00321608 4.58642e-22)
(0.988362 0.00461992 -7.99469e-22)
(0.985981 0.00520054 4.16735e-22)
(0.984175 0.00725656 2.08916e-21)
(0.989814 0.00351621 3.31361e-24)
(0.988466 0.00502946 -2.44226e-21)
(0.986131 0.00568133 -6.16031e-22)
(0.984405 0.00792836 3.55087e-21)
(0.989886 0.00381598 -1.08623e-21)
(0.988581 0.00545778 -2.13739e-21)
(0.986301 0.0061592 1.33606e-21)
(0.984657 0.00859508 -4.29465e-21)
(0.98997 0.00411254 -3.36188e-22)
(0.990158 -0.00470129 5.74984e-23)
(0.988985 -0.00677017 -5.02691e-21)
(0.99006 -0.0044081 2.69499e-21)
(0.98884 -0.00633708 -2.41227e-21)
(0.986675 -0.00710464 7.00947e-21)
(0.985222 -0.0099099 -3.61503e-21)
(0.98997 -0.00411253 -7.08875e-22)
(0.988705 -0.00590967 5.60213e-22)
(0.98648 -0.00663582 -9.15219e-22)
(0.984929 -0.00925588 6.43547e-22)
(0.989886 -0.00381598 -1.19531e-22)
(0.988581 -0.00545778 -2.08306e-22)
(0.986301 -0.0061592 -1.25488e-22)
(0.984657 -0.00859507 3.37064e-22)
(0.989814 -0.0035162 1.45727e-21)
(0.988466 -0.00502946 1.21309e-21)
(0.986131 -0.00568133 -4.12015e-21)
(0.984405 -0.00792836 -5.29438e-22)
(0.989743 -0.00321608 -1.36166e-21)
(0.988362 -0.00461992 -1.40697e-21)
(0.985981 -0.00520053 7.65251e-23)
(0.984175 -0.00725655 -2.94141e-21)
(0.989679 -0.00291396 8.3345e-22)
(0.988267 -0.00418255 -8.28982e-22)
(0.985844 -0.00471237 2.37193e-21)
(0.983966 -0.00657938 2.00005e-22)
(0.989621 -0.00261037 -2.96238e-21)
(0.988183 -0.00375159 5.74739e-22)
(0.985722 -0.00422657 -3.05226e-22)
(0.983777 -0.00589901 1.06187e-21)
(0.98957 -0.00230588 1.88704e-21)
(0.988107 -0.0033141 -1.78826e-21)
(0.985614 -0.00372799 2.1608e-21)
(0.98361 -0.00521288 1.85174e-22)
(0.989524 -0.00200042 -3.83129e-22)
(0.988043 -0.0028757 2.14437e-21)
(0.98552 -0.00323666 -4.83381e-21)
(0.983462 -0.004525 -1.39909e-22)
(0.989486 -0.00169426 1.19945e-21)
(0.987985 -0.00243567 1.41954e-22)
(0.985439 -0.0027512 -6.53127e-22)
(0.983338 -0.00383459 -1.4348e-21)
(0.989453 -0.00138735 1.12452e-21)
(0.987938 -0.00199424 -2.19759e-22)
(0.985373 -0.00225358 6.2437e-22)
(0.983233 -0.0031405 7.44428e-22)
(0.989427 -0.00107977 -7.60718e-22)
(0.9879 -0.00155194 -3.05475e-23)
(0.985319 -0.00175717 9.33892e-23)
(0.983151 -0.00244526 4.7616e-22)
(0.989408 -0.000771669 5.96329e-22)
(0.987871 -0.00110898 -4.14219e-22)
(0.985279 -0.00125586 -5.20453e-22)
(0.983089 -0.00174766 4.47143e-22)
(0.989395 -0.000463162 2.88111e-22)
(0.987852 -0.000665552 1.05033e-22)
(0.985252 -0.000754486 6.34984e-23)
(0.983048 -0.00104919 1.6617e-22)
(0.989388 -0.000154412 1.01413e-22)
(0.987842 -0.000221883 -1.65369e-23)
(0.985239 -0.00025142 -5.87492e-23)
(0.983027 -0.000349767 1.53702e-22)
)
;

boundaryField
{
    inlet
    {
        type            uniformFixedValue;
        uniformValue    constant (1 0 0);
        value           nonuniform 0();
    }
    outlet
    {
        type            pressureInletOutletVelocity;
        value           nonuniform 0();
    }
    cylinder
    {
        type            fixedValue;
        value           nonuniform 0();
    }
    top
    {
        type            symmetryPlane;
    }
    bottom
    {
        type            symmetryPlane;
    }
    defaultFaces
    {
        type            empty;
    }
    procBoundary25to16
    {
        type            processor;
        value           nonuniform List<vector> 5((0.991837 -0.00436065 -4.59204e-22) (0.991774 -0.00408692 -1.6631e-21) (0.991715 -0.00381104 2.42731e-22) (0.99166 -0.00353354 4.98902e-22) (0.991608 -0.00325484 2.73373e-21));
    }
    procBoundary25to17
    {
        type            processor;
        value           nonuniform List<vector> 
20
(
(0.983666 -0.0126773 3.15457e-20)
(0.985537 -0.0105571 -2.43888e-21)
(0.983666 -0.0126773 3.15457e-20)
(0.984143 -0.0133558 4.51496e-20)
(0.982629 -0.015708 2.56244e-20)
(0.982629 -0.015708 2.56244e-20)
(0.983213 -0.0164296 -2.34356e-20)
(0.980494 -0.0198892 2.62983e-20)
(0.980494 -0.0198892 2.62983e-20)
(0.981203 -0.0206815 -1.14257e-19)
(0.979481 -0.0240273 8.21987e-21)
(0.979481 -0.0240273 8.21987e-21)
(0.98035 -0.0248555 -7.28671e-20)
(0.981249 -0.0256541 7.38416e-20)
(0.977986 -0.0313457 -8.55908e-20)
(0.990263 -0.0049905 -5.59897e-21)
(0.98914 -0.00719684 6.46627e-21)
(0.986883 -0.00756997 2.33123e-21)
(0.986883 -0.00756997 2.33123e-21)
(0.985537 -0.0105571 -2.43888e-21)
)
;
    }
    procBoundary25to18
    {
        type            processor;
        value           nonuniform List<vector> 10((0.95816 -0.0318853 5.63073e-20) (0.95816 -0.0318853 5.63073e-20) (0.959266 -0.0334581 -2.64022e-19) (0.960423 -0.034991 3.89337e-19) (0.961631 -0.0364824 -8.39362e-21) (0.962888 -0.0379305 -1.93376e-19) (0.964192 -0.0393338 -7.01328e-20) (0.965542 -0.0406907 1.9337e-19) (0.966936 -0.0419998 -7.56894e-20) (0.974965 -0.0351521 1.27984e-19));
    }
    procBoundary25to24
    {
        type            processor;
        value           nonuniform List<vector> 
23
(
(0.991322 0.000142461 -1.3811e-22)
(0.991326 0.000427347 -3.42386e-22)
(0.991335 0.000712115 -2.51331e-22)
(0.991348 0.000996682 -4.82127e-23)
(0.991366 0.00128097 -2.83244e-22)
(0.991387 0.00156487 -1.30821e-21)
(0.991414 0.00184831 6.13229e-23)
(0.991444 0.00213116 -1.31748e-21)
(0.991479 0.00241332 1.54038e-21)
(0.991518 0.00269473 -5.21745e-22)
(0.991561 0.00297523 1.66858e-22)
(0.991608 0.00325485 -1.12268e-21)
(0.991561 -0.00297523 -1.98151e-22)
(0.991518 -0.00269472 9.92302e-23)
(0.991479 -0.00241331 -6.52583e-22)
(0.991444 -0.00213115 1.14588e-21)
(0.991414 -0.0018483 6.50166e-22)
(0.991387 -0.00156487 6.54144e-23)
(0.991366 -0.00128096 2.35782e-22)
(0.991348 -0.00099668 2.01179e-22)
(0.991335 -0.000712112 4.33637e-22)
(0.991326 -0.000427345 3.85552e-22)
(0.991322 -0.000142459 7.87126e-23)
)
;
    }
    procBoundary25to26
    {
        type            processor;
        value           nonuniform List<vector> 
32
(
(0.94779 0.0304198 -2.01234e-19)
(0.946714 0.0284986 2.36196e-21)
(0.945707 0.0265403 5.22583e-20)
(0.944772 0.0245475 -1.4482e-19)
(0.94391 0.0225225 1.83099e-19)
(0.943122 0.020468 3.25588e-20)
(0.94241 0.0183867 -6.77168e-20)
(0.941773 0.0162811 6.77953e-20)
(0.941215 0.0141541 -1.72814e-20)
(0.940734 0.0120084 -2.89434e-20)
(0.940332 0.00984683 -3.81044e-20)
(0.94001 0.00767221 1.64526e-20)
(0.939768 0.00548742 8.95012e-21)
(0.939607 0.00329536 2.38641e-20)
(0.939526 0.00109893 -2.92053e-21)
(0.939526 -0.00109892 -3.01381e-21)
(0.939607 -0.00329535 2.35959e-20)
(0.939768 -0.00548741 1.11643e-20)
(0.94001 -0.0076722 1.64011e-20)
(0.940332 -0.00984682 -4.12086e-20)
(0.940734 -0.0120084 -3.26665e-20)
(0.941215 -0.0141541 -1.74622e-20)
(0.941773 -0.0162811 5.79328e-20)
(0.94241 -0.0183867 -7.59902e-20)
(0.943122 -0.020468 5.13516e-20)
(0.94391 -0.0225225 1.98687e-19)
(0.944772 -0.0245474 -1.44866e-19)
(0.945707 -0.0265403 5.32006e-20)
(0.946714 -0.0284986 -1.13252e-21)
(0.94779 -0.0304198 1.79395e-20)
(0.948935 -0.0323015 -1.11176e-19)
(0.950146 -0.0341416 -3.48879e-20)
)
;
    }
    procBoundary25to32
    {
        type            processor;
        value           nonuniform List<vector> 2((0.99166 0.00353354 -3.04745e-21) (0.991715 0.00381105 9.31223e-22));
    }
    procBoundary25to33
    {
        type            processor;
        value           nonuniform List<vector> 
22
(
(0.973733 0.0341378 -2.1928e-19)
(0.975894 0.0294824 -7.24826e-20)
(0.974897 0.028498 -1.02124e-19)
(0.973934 0.0274799 7.59019e-20)
(0.973934 0.0274799 7.59019e-20)
(0.977832 0.0222856 5.33843e-20)
(0.977055 0.0213743 1.29937e-19)
(0.977055 0.0213743 1.29937e-19)
(0.979161 0.018235 -1.83425e-20)
(0.978537 0.0173751 8.22299e-20)
(0.978537 0.0173751 8.22299e-20)
(0.981539 0.0142103 -2.56226e-20)
(0.981035 0.0134359 7.94716e-20)
(0.981035 0.0134359 7.94716e-20)
(0.982791 0.011277 -6.63752e-20)
(0.982791 0.011277 -6.63752e-20)
(0.984929 0.00925588 -3.00352e-21)
(0.988705 0.00590968 -1.38234e-21)
(0.98648 0.00663582 -5.44083e-23)
(0.984929 0.00925588 -3.00352e-21)
(0.988705 0.00590968 -1.38234e-21)
(0.99006 0.0044081 -1.94217e-21)
)
;
    }
    procBoundary25to34
    {
        type            processor;
        value           nonuniform List<vector> 10((0.965542 0.0406907 1.89183e-19) (0.964192 0.0393338 -7.08137e-20) (0.962888 0.0379305 -1.95933e-19) (0.961631 0.0364824 -5.73522e-21) (0.960423 0.034991 3.92328e-19) (0.959266 0.0334581 -2.72967e-19) (0.95816 0.0318853 1.91924e-19) (0.95816 0.0318853 1.91924e-19) (0.950146 0.0341416 -4.18916e-20) (0.948935 0.0323015 -1.05468e-19));
    }
}


// ************************************************************************* //
