/*--------------------------------*- C++ -*----------------------------------*\
  =========                 |
  \\      /  F ield         | OpenFOAM: The Open Source CFD Toolbox
   \\    /   O peration     | Website:  https://openfoam.org
    \\  /    A nd           | Version:  7
     \\/     M anipulation  |
\*---------------------------------------------------------------------------*/
FoamFile
{
    version     2.0;
    format      ascii;
    class       volScalarField;
    location    "3";
    object      p;
}
// * * * * * * * * * * * * * * * * * * * * * * * * * * * * * * * * * * * * * //

dimensions      [1 -1 -2 0 0 0 0];

internalField   nonuniform List<scalar> 
2413
(
1.80407
1.79375
1.79279
1.78475
1.77493
1.76558
1.75586
1.74591
1.73566
1.72491
1.71391
1.7036
1.69454
1.68625
1.67815
1.66997
1.6615
1.65252
1.64282
1.63239
1.62179
1.61235
1.60476
1.5983
1.59218
1.58599
1.57955
1.57285
1.18284
1.17555
1.17046
1.16415
1.15802
1.15282
1.14646
1.14125
1.13526
1.13013
1.1246
1.11854
1.11426
1.10886
1.10269
1.0985
1.09348
1.08738
1.08344
1.07884
1.07339
1.06829
1.06261
1.05695
1.05871
1.09804
1.30561
1.71068
1.92647
1.97707
1.98471
1.99054
1.98746
1.9806
1.96999
1.95804
1.95056
1.94666
1.94645
1.94573
1.9402
1.93231
1.92237
1.91307
1.90745
1.90296
1.89781
1.89207
1.88597
1.87962
1.87241
1.8655
1.85885
1.85218
1.84644
1.8413
1.83494
1.82775
1.82446
1.81844
1.80236
1.79567
1.79161
1.78031
1.7705
1.76113
1.75185
1.74279
1.73389
1.72456
1.71421
1.70322
1.69351
1.68588
1.67908
1.6721
1.66456
1.65633
1.6473
1.6376
1.62799
1.61966
1.61301
1.60743
1.60234
1.59724
1.59183
1.58612
1.19166
1.18431
1.17908
1.17206
1.166
1.16064
1.15369
1.14879
1.14222
1.13659
1.13168
1.12493
1.12031
1.11516
1.10853
1.1041
1.09941
1.09302
1.08863
1.08437
1.07887
1.07414
1.06942
1.06314
1.05706
1.05699
1.08123
1.24123
1.60068
1.88613
1.97699
1.98961
1.98161
1.97338
1.96217
1.95304
1.94843
1.94713
1.94885
1.9466
1.94079
1.93323
1.92399
1.91637
1.91149
1.90645
1.90082
1.8948
1.88838
1.88116
1.8738
1.86671
1.85854
1.85204
1.84652
1.84053
1.83364
1.82803
1.82553
1.81459
1.79979
1.79654
1.78782
1.77747
1.76874
1.76078
1.75289
1.74503
1.7369
1.72808
1.71824
1.70752
1.6973
1.68933
1.68317
1.67739
1.67099
1.66374
1.6556
1.64686
1.63858
1.63179
1.62625
1.62136
1.61686
1.6125
1.60808
1.60359
1.2044
1.19696
1.19161
1.18434
1.17795
1.17259
1.16506
1.15987
1.15348
1.14721
1.14247
1.13558
1.13037
1.1253
1.11845
1.11365
1.10939
1.10309
1.09732
1.09361
1.08812
1.08284
1.07833
1.07342
1.06655
1.06116
1.06235
1.07671
1.1909
1.51102
1.85497
1.96668
1.97816
1.96701
1.95809
1.953
1.95044
1.95057
1.95123
1.9479
1.94297
1.93624
1.92803
1.92229
1.91747
1.91199
1.90626
1.90022
1.89385
1.8865
1.87915
1.87011
1.86202
1.85678
1.85125
1.84487
1.83604
1.8301
1.82462
1.81154
1.80634
1.801
1.78933
1.77987
1.77166
1.76435
1.75738
1.75054
1.74316
1.73485
1.72562
1.71568
1.70582
1.69746
1.69107
1.68605
1.68117
1.67537
1.66861
1.66144
1.65485
1.64929
1.6444
1.64
1.63606
1.63258
1.62949
1.62675
1.22017
1.21253
1.20725
1.20022
1.19365
1.18847
1.18089
1.1753
1.16922
1.16252
1.15786
1.15107
1.14516
1.1404
1.13386
1.12827
1.12413
1.11821
1.11153
1.10748
1.10283
1.09685
1.0928
1.08821
1.0832
1.07593
1.07064
1.07293
1.0809
1.16005
1.45355
1.79543
1.95654
1.9766
1.9667
1.96072
1.95559
1.95431
1.95321
1.95029
1.94669
1.9414
1.93535
1.93057
1.92542
1.92004
1.91442
1.90848
1.90179
1.89424
1.88645
1.87842
1.87179
1.86593
1.86014
1.85247
1.84332
1.83739
1.82796
1.82073
1.81826
1.80699
1.79563
1.78613
1.77794
1.77106
1.76486
1.7592
1.75317
1.74581
1.73727
1.72802
1.719
1.71143
1.70541
1.70028
1.69585
1.69172
1.68692
1.68163
1.67648
1.67173
1.66746
1.66383
1.66106
1.65922
1.65825
1.65778
1.23786
1.23053
1.22543
1.21869
1.21177
1.20672
1.19936
1.19362
1.18807
1.18126
1.17656
1.17012
1.16377
1.15927
1.15306
1.147
1.14271
1.13701
1.1304
1.12644
1.12192
1.11604
1.11174
1.10746
1.10288
1.09721
1.09004
1.08418
1.08295
1.08874
1.15053
1.39566
1.75364
1.94548
1.98327
1.98071
1.9715
1.96283
1.95933
1.95632
1.9538
1.95033
1.94666
1.94216
1.93722
1.93222
1.92708
1.92158
1.91516
1.90857
1.90087
1.89287
1.88585
1.87988
1.87365
1.86438
1.85719
1.84971
1.83822
1.83624
1.83242
1.81959
1.80871
1.79861
1.79001
1.78315
1.77725
1.77223
1.76762
1.76175
1.75427
1.74593
1.73777
1.73105
1.7256
1.72105
1.71735
1.71425
1.71127
1.70792
1.70414
1.7004
1.69721
1.69499
1.69396
1.69411
1.6946
1.69371
1.25797
1.25071
1.2455
1.23913
1.23203
1.22701
1.21998
1.21425
1.20896
1.20204
1.19714
1.1908
1.18466
1.18041
1.17428
1.16801
1.16362
1.15795
1.15205
1.14854
1.1433
1.13798
1.13303
1.12817
1.12424
1.1196
1.1141
1.10787
1.10145
1.0983
1.10431
1.1498
1.35072
1.72384
1.91759
1.99878
2.005
1.99214
1.98263
1.97539
1.97206
1.96912
1.96567
1.96034
1.95526
1.95075
1.94654
1.94153
1.93556
1.92883
1.92099
1.91322
1.90625
1.90019
1.89242
1.88329
1.8783
1.86731
1.8549
1.85428
1.84931
1.8384
1.82881
1.81902
1.80989
1.80267
1.79658
1.79117
1.7869
1.78325
1.77766
1.77061
1.76352
1.75752
1.75259
1.74864
1.7459
1.74434
1.74339
1.7418
1.73937
1.73663
1.7342
1.73242
1.73062
1.72717
1.72089
1.71169
1.28274
1.27601
1.26976
1.26291
1.2554
1.25023
1.24338
1.23755
1.23226
1.22535
1.2202
1.21363
1.20766
1.20336
1.19706
1.19097
1.18672
1.18099
1.17568
1.17193
1.16607
1.1613
1.15614
1.15078
1.14723
1.14284
1.13884
1.13441
1.12986
1.12329
1.11726
1.12302
1.15311
1.3275
1.64735
1.91852
2.02871
2.05586
2.03963
2.0238
2.00711
2.00105
1.99681
1.99055
1.9852
1.98005
1.974
1.9674
1.96247
1.95713
1.9493
1.94072
1.93339
1.92636
1.91645
1.90882
1.90458
1.89192
1.87883
1.87654
1.87252
1.86396
1.85596
1.84733
1.83815
1.83006
1.82353
1.81779
1.81316
1.81014
1.80766
1.80285
1.79718
1.79207
1.7878
1.7848
1.78332
1.78318
1.78303
1.78114
1.77719
1.77154
1.7642
1.75498
1.74512
1.73471
1.7236
1.71101
1.31066
1.3045
1.29795
1.29107
1.28356
1.27796
1.2713
1.26506
1.25917
1.252
1.24656
1.23997
1.23451
1.22942
1.22257
1.21684
1.2126
1.20707
1.2017
1.19681
1.19069
1.18637
1.18159
1.17658
1.17331
1.16916
1.16464
1.16075
1.15686
1.15197
1.14386
1.13675
1.14159
1.16357
1.28832
1.59248
1.89541
2.02525
2.10031
2.10419
2.08263
2.06614
2.04928
2.03602
2.02535
2.01837
2.01354
2.00854
2.00115
1.9927
1.98434
1.97624
1.96864
1.95919
1.94724
1.94069
1.93737
1.92386
1.91052
1.90701
1.90386
1.89706
1.89014
1.88262
1.87409
1.86566
1.85868
1.85284
1.84859
1.84645
1.84567
1.84354
1.83879
1.83372
1.82933
1.82586
1.82297
1.81919
1.8131
1.80428
1.79343
1.78123
1.76869
1.75655
1.74361
1.72883
1.71083
1.68819
1.32933
1.32455
1.31975
1.3145
1.30907
1.3047
1.29881
1.29259
1.28641
1.27968
1.27382
1.26736
1.26233
1.2568
1.25005
1.24407
1.23901
1.23426
1.22834
1.22204
1.21627
1.21218
1.20759
1.20267
1.19879
1.1941
1.18858
1.18312
1.17788
1.1736
1.16789
1.16161
1.15632
1.15567
1.16764
1.25534
1.5038
1.81792
2.03683
2.11115
2.15864
2.15862
2.13566
2.11628
2.09806
2.07948
2.06483
2.05684
2.05022
2.04063
2.02912
2.01932
2.01103
2.0002
1.98862
1.98435
1.98167
1.96717
1.95362
1.94716
1.94236
1.93688
1.93136
1.92534
1.91844
1.9104
1.90257
1.89627
1.89182
1.88966
1.88829
1.88434
1.87731
1.86809
1.85721
1.84652
1.83688
1.82742
1.81743
1.80641
1.79329
1.77787
1.76035
1.7407
1.718
1.69057
1.65687
1.61635
1.33445
1.33016
1.32609
1.32156
1.31755
1.31396
1.30913
1.3044
1.29954
1.29462
1.2899
1.28457
1.27897
1.27324
1.26791
1.2628
1.25691
1.25082
1.24465
1.23945
1.23451
1.22886
1.22277
1.21685
1.21111
1.20549
1.19993
1.19421
1.18871
1.18408
1.1781
1.17202
1.16698
1.16039
1.15298
1.1576
1.21009
1.39509
1.70759
1.96553
2.11069
2.1949
2.22972
2.22315
2.19811
2.17154
2.15024
2.13118
2.11332
2.09708
2.0834
2.07368
2.06458
2.05285
2.04287
2.03945
2.03594
2.02137
2.00588
1.99447
1.98655
1.98067
1.97584
1.97084
1.96416
1.95474
1.94302
1.93152
1.92257
1.91503
1.90779
1.89922
1.88861
1.87592
1.86217
1.84904
1.83667
1.82409
1.80994
1.79296
1.77196
1.74629
1.71607
1.68167
1.64297
1.6
1.55431
1.50981
1.32812
1.32669
1.32508
1.32238
1.31938
1.31546
1.31091
1.30638
1.30228
1.29858
1.29426
1.28967
1.28463
1.27871
1.27274
1.2679
1.26295
1.25668
1.24983
1.24427
1.24016
1.23495
1.22826
1.22103
1.21475
1.20903
1.20313
1.19766
1.1932
1.1892
1.18387
1.17709
1.16947
1.15947
1.14976
1.13919
1.13553
1.16185
1.2762
1.51712
1.82033
2.04144
2.17484
2.2336
2.24685
2.24182
2.23168
2.21234
2.18833
2.16189
2.14312
2.13156
2.12
2.10566
2.0916
2.08078
2.07319
2.06189
2.04689
2.03201
2.01913
2.00852
1.99986
1.99204
1.98308
1.97137
1.95682
1.94113
1.92835
1.91856
1.9092
1.8988
1.88654
1.87177
1.8543
1.83502
1.81494
1.7935
1.7689
1.7392
1.70344
1.66266
1.61962
1.57716
1.53731
1.50193
1.47302
1.45176
1.29322
1.29632
1.29812
1.29892
1.29902
1.2985
1.29741
1.29556
1.29335
1.29048
1.28644
1.28241
1.27819
1.27377
1.26996
1.26505
1.25873
1.25282
1.24855
1.24328
1.2361
1.22856
1.22257
1.21741
1.21187
1.20528
1.19884
1.19208
1.18457
1.17642
1.16866
1.16129
1.15448
1.14695
1.13811
1.12458
1.10673
1.09118
1.09018
1.13642
1.28045
1.52522
1.80272
2.04115
2.14696
2.21877
2.23552
2.23594
2.22272
2.19876
2.17638
2.15893
2.14286
2.12514
2.10701
2.09282
2.08538
2.07609
2.06062
2.04455
2.02913
2.01499
2.00304
1.99287
1.98326
1.9723
1.95838
1.94168
1.92466
1.90962
1.89554
1.88028
1.86197
1.83916
1.81136
1.77997
1.74698
1.71269
1.67589
1.63603
1.59498
1.55692
1.52543
1.50115
1.48267
1.4683
1.45673
1.44681
1.1949
1.20596
1.21545
1.22376
1.23042
1.23586
1.24006
1.24299
1.24513
1.2461
1.24595
1.2452
1.2438
1.24146
1.23846
1.23489
1.2309
1.22628
1.2208
1.21463
1.20847
1.2024
1.19583
1.18838
1.18048
1.17257
1.16425
1.1554
1.14614
1.13674
1.12685
1.11625
1.10485
1.0933
1.08123
1.06751
1.04985
1.03012
1.00776
0.991771
0.995246
1.03953
1.16655
1.39647
1.66261
1.92542
2.08548
2.18765
2.21254
2.20981
2.18817
2.16733
2.15156
2.13554
2.11481
2.09626
2.08657
2.07754
2.06288
2.04604
2.02744
2.00861
1.99352
1.98148
1.96961
1.95585
1.93881
1.91736
1.8925
1.86766
1.84381
1.81864
1.78936
1.75443
1.71509
1.67529
1.63856
1.60561
1.57582
1.54926
1.52721
1.51056
1.49833
1.48826
1.47845
1.46841
1.45884
1.45004
1.06865
1.07927
1.08983
1.1001
1.10985
1.11895
1.12724
1.1347
1.14114
1.14661
1.15098
1.1542
1.15655
1.15767
1.15763
1.15717
1.15541
1.1522
1.14824
1.14344
1.13785
1.13149
1.12432
1.11648
1.10793
1.09889
1.08913
1.07877
1.06813
1.0572
1.04576
1.0341
1.02241
1.01076
0.999326
0.987892
0.976102
0.963949
0.951211
0.939224
0.929308
0.92192
0.927488
0.958632
1.04941
1.23198
1.49521
1.76758
2.01355
2.11522
2.16583
2.16214
2.14602
2.12648
2.09816
2.07493
2.06401
2.05539
2.04066
2.02321
2.0023
1.97822
1.95571
1.93751
1.92045
1.90084
1.87609
1.84489
1.80928
1.77416
1.74182
1.7106
1.67825
1.64471
1.61306
1.58733
1.56823
1.5534
1.54058
1.52879
1.51797
1.50845
1.49972
1.49107
1.48202
1.47257
1.46405
1.45729
1.00815
1.01083
1.01395
1.01748
1.02135
1.02547
1.02975
1.03409
1.03834
1.04241
1.04618
1.04951
1.05237
1.05463
1.05607
1.05694
1.05687
1.05572
1.05379
1.05102
1.04743
1.04299
1.03769
1.03187
1.0255
1.01874
1.01178
1.0046
0.997506
0.990465
0.983331
0.976291
0.969707
0.963305
0.956997
0.950743
0.944909
0.939406
0.933772
0.928212
0.922758
0.917771
0.913241
0.90922
0.909028
0.922362
0.975454
1.10387
1.34169
1.62712
1.8953
2.04796
2.08886
2.08124
2.05419
2.02207
2.00226
1.98932
1.97413
1.95595
1.93273
1.9037
1.87299
1.84617
1.82232
1.79711
1.76722
1.73215
1.69694
1.6682
1.64613
1.62752
1.61026
1.5936
1.57842
1.5668
1.55814
1.55011
1.5413
1.5312
1.52071
1.51188
1.50454
1.49736
1.48973
1.48178
1.47497
1.46985
1.00021
1.00033
1.00051
1.00074
1.00106
1.00145
1.00192
1.00247
1.00309
1.00375
1.00444
1.00513
1.00577
1.00633
1.00674
1.00699
1.0069
1.00653
1.00586
1.00479
1.00335
1.00146
0.999124
0.996553
0.993625
0.99027
0.986784
0.983126
0.979261
0.975123
0.970944
0.966727
0.962447
0.957945
0.953464
0.948955
0.944437
0.939949
0.935324
0.930727
0.92601
0.921346
0.916585
0.911847
0.907865
0.904457
0.901893
0.906544
0.935033
1.02628
1.23017
1.52511
1.80194
1.96345
1.97291
1.94036
1.90906
1.88834
1.87072
1.85134
1.82752
1.79613
1.76256
1.73725
1.71841
1.70052
1.68131
1.66021
1.64025
1.62708
1.61845
1.6105
1.60192
1.59188
1.57989
1.56889
1.56096
1.55383
1.5461
1.5373
1.52774
1.51957
1.51383
1.50879
1.50314
1.49697
1.49118
1.48636
1
1
1
1
1.00001
1.00001
1.00002
1.00003
1.00004
1.00006
1.00007
1.00009
1.0001
1.00011
1.00009
1.00004
0.999938
0.999755
0.999446
0.998984
0.998321
0.997329
0.996078
0.994533
0.992448
0.990003
0.987363
0.984324
0.980894
0.977299
0.973591
0.969694
0.965544
0.961364
0.957055
0.95278
0.948404
0.944061
0.939702
0.935399
0.930982
0.926653
0.922518
0.917991
0.91342
0.90892
0.905416
0.90296
0.900829
0.902194
0.919845
0.996412
1.19032
1.52063
1.7735
1.83057
1.82353
1.80495
1.7881
1.76797
1.74691
1.72055
1.69822
1.68679
1.67935
1.67191
1.66291
1.65152
1.638
1.6271
1.61973
1.61314
1.60563
1.59656
1.58577
1.57494
1.56706
1.56124
1.55547
1.54877
1.54121
1.53397
1.52843
1.52393
1.51999
1.51506
1.50927
1.50313
1
1
1
1
1
1
0.999999
0.999999
0.999998
0.999997
0.999995
0.999991
0.999984
0.999973
0.999952
0.999916
0.999854
0.999748
0.99957
0.999291
0.998863
0.998203
0.997286
0.996063
0.994454
0.992536
0.990241
0.987534
0.984653
0.981452
0.977888
0.974283
0.970642
0.966799
0.962712
0.958691
0.954833
0.950916
0.946796
0.94264
0.938844
0.935128
0.931307
0.927263
0.923284
0.919393
0.9154
0.910951
0.906942
0.904193
0.902486
0.904082
0.923338
1.02317
1.28174
1.57855
1.72077
1.76262
1.75587
1.73878
1.71858
1.7009
1.6927
1.68701
1.68132
1.6743
1.66596
1.65543
1.64301
1.63244
1.62491
1.61866
1.61272
1.6059
1.59759
1.58823
1.58022
1.57425
1.56955
1.56512
1.55947
1.55284
1.54613
1.54077
1.53631
1.53168
1.52585
1.51886
1
1
1
1
1
1
1
0.999999
0.999999
0.999998
0.999997
0.999994
0.999991
0.999984
0.999974
0.999956
0.999927
0.999879
0.999802
0.999677
0.999481
0.999177
0.998719
0.998052
0.997107
0.995875
0.994266
0.992292
0.990044
0.987402
0.984455
0.981445
0.978166
0.974584
0.970995
0.967527
0.963884
0.960041
0.956227
0.952604
0.949035
0.94538
0.94153
0.937869
0.934493
0.9309
0.927127
0.923038
0.919076
0.91466
0.909796
0.906143
0.906402
0.911245
0.956669
1.13632
1.42868
1.66305
1.73515
1.73282
1.71731
1.70786
1.70181
1.69671
1.68946
1.68102
1.67091
1.66177
1.6544
1.6474
1.64033
1.63286
1.62533
1.61909
1.61336
1.60705
1.60021
1.59319
1.58701
1.582
1.5773
1.57138
1.56435
1.55701
1.55075
1.54526
1.53938
1.53246
1
1
1
1
1
1
1
1
1
0.999999
0.999999
0.999998
0.999997
0.999995
0.999993
0.999988
0.999982
0.999973
0.999958
0.999934
0.999895
0.999827
0.999707
0.999497
0.999145
0.998603
0.997785
0.996663
0.995219
0.993357
0.991219
0.988808
0.985981
0.98297
0.979908
0.976688
0.973125
0.969527
0.966154
0.962654
0.958968
0.955101
0.951602
0.948063
0.944586
0.940607
0.93703
0.9335
0.929934
0.925938
0.921398
0.916279
0.911699
0.909846
0.91103
0.932933
1.04885
1.31407
1.59836
1.69956
1.71682
1.72603
1.72384
1.71985
1.7107
1.69977
1.68489
1.67354
1.66758
1.66537
1.66242
1.6559
1.64712
1.63666
1.62923
1.62445
1.62021
1.61405
1.60663
1.59834
1.59167
1.58608
1.57979
1.57247
1.56457
1.55728
1.5508
1.54415
1
1
1
1
1
1
1
1
1
1
1
1
1
0.999999
0.999999
0.999999
0.999999
0.999998
0.999997
0.999996
0.999994
0.999989
0.999976
0.999944
0.999873
0.999726
0.999449
0.998986
0.998273
0.997227
0.995896
0.994176
0.992041
0.989752
0.98715
0.984106
0.981034
0.977896
0.974628
0.970962
0.967385
0.963917
0.960452
0.956684
0.952766
0.949244
0.945652
0.942098
0.938055
0.934623
0.930824
0.926994
0.921771
0.916778
0.91296
0.913351
0.922567
0.990488
1.19399
1.48735
1.66435
1.71423
1.7354
1.74397
1.73614
1.72557
1.70964
1.69507
1.68743
1.68331
1.6819
1.67682
1.66835
1.65673
1.64707
1.64099
1.63648
1.63093
1.62332
1.61379
1.60506
1.59864
1.59265
1.58581
1.57785
1.56941
1.56202
1.55547
1
1
1
1
1
1
1
1
1
1
1
1
1
1
1
1
1
1
1
1
1
1
0.999999
0.999997
0.999988
0.999962
0.999898
0.999759
0.999495
0.999037
0.998348
0.997335
0.995977
0.994344
0.99227
0.989865
0.987363
0.984528
0.981273
0.978097
0.974898
0.971479
0.967724
0.964171
0.96061
0.957137
0.953228
0.949446
0.945805
0.942381
0.938678
0.935008
0.931087
0.92666
0.921514
0.917196
0.916308
0.919263
0.951129
1.0883
1.34258
1.608
1.70101
1.73187
1.75084
1.74825
1.73802
1.72351
1.70861
1.70082
1.69638
1.69248
1.68491
1.67468
1.66377
1.65651
1.65113
1.64515
1.63729
1.62751
1.61816
1.61142
1.60528
1.59847
1.59057
1.58187
1.57412
1.56756
1
1
1
1
1
1
1
1
1
1
1
1
1
1
1
1
1
1
1
1
1
1
1
1
0.999999
0.999996
0.999985
0.999954
0.999881
0.999728
0.999447
0.998971
0.998248
0.997237
0.995853
0.994169
0.992172
0.989754
0.987133
0.984377
0.981341
0.977946
0.974674
0.971428
0.967896
0.964154
0.960552
0.957068
0.953521
0.9497
0.945981
0.942511
0.939244
0.935433
0.931308
0.926276
0.921877
0.919144
0.919595
0.931583
1.00444
1.20094
1.49004
1.652
1.72286
1.75626
1.76174
1.74991
1.73196
1.71649
1.70953
1.70583
1.69953
1.69082
1.67965
1.6703
1.66394
1.65785
1.65024
1.64095
1.63129
1.6241
1.61799
1.61124
1.60329
1.59439
1.58671
1.58054
1
1
1
1
1
1
1
1
1
1
1
1
1
1
1
1
1
1
1
1
1
1
1
1
1
1
0.999998
0.999994
0.99998
0.999944
0.999862
0.999694
0.999394
0.998901
0.998142
0.997119
0.995734
0.993984
0.992012
0.989662
0.98696
0.984189
0.981243
0.978047
0.974582
0.971303
0.967983
0.964485
0.960731
0.957142
0.953795
0.950218
0.946658
0.942951
0.939768
0.935858
0.931468
0.926266
0.922851
0.922013
0.925184
0.955351
1.07942
1.32764
1.55661
1.70717
1.7573
1.76216
1.74789
1.73236
1.72469
1.7202
1.7146
1.70612
1.69447
1.68335
1.6765
1.67077
1.66371
1.65503
1.64496
1.63682
1.63072
1.62446
1.61696
1.60815
1.59965
1.59312
1
1
1
1
1
1
1
1
1
1
1
1
1
1
1
1
1
1
1
1
1
1
1
1
1
1
1
1
0.999998
0.999993
0.999978
0.999938
0.99985
0.999676
0.999359
0.99886
0.998092
0.997023
0.995684
0.993921
0.991876
0.989641
0.987006
0.984107
0.981211
0.978182
0.97486
0.971386
0.968123
0.964755
0.961344
0.957513
0.954151
0.950782
0.947438
0.943921
0.940173
0.936244
0.931456
0.927187
0.924671
0.924908
0.934365
0.995333
1.16977
1.42354
1.65579
1.74162
1.74283
1.74453
1.74219
1.73981
1.73297
1.7219
1.70749
1.69504
1.68834
1.68392
1.67827
1.6704
1.66004
1.64982
1.64299
1.63732
1.63067
1.62258
1.6136
1.60603
1
1
1
1
1
1
1
1
1
1
1
1
1
1
1
1
1
1
1
1
1
1
1
1
1
1
1
1
1
1
0.999998
0.999992
0.999976
0.999936
0.999845
0.999666
0.999346
0.998829
0.998074
0.99699
0.995623
0.993949
0.991847
0.989588
0.987104
0.984257
0.981231
0.978247
0.975171
0.971776
0.968319
0.965009
0.961698
0.958292
0.95456
0.951385
0.948009
0.944843
0.940614
0.936503
0.931654
0.928138
0.927085
0.929113
0.952128
1.05091
1.26912
1.54017
1.6855
1.72519
1.7447
1.75913
1.7533
1.74135
1.72266
1.70782
1.70089
1.69728
1.69274
1.68514
1.67436
1.6632
1.65621
1.65077
1.64444
1.63657
1.62718
1.61877
1
1
1
1
1
1
1
1
1
1
1
1
1
1
1
1
1
1
1
1
1
1
1
1
1
1
1
1
1
1
1
1
0.999998
0.999992
0.999976
0.999933
0.99984
0.999656
0.999334
0.998806
0.998046
0.996983
0.995571
0.99393
0.991909
0.989541
0.987111
0.984419
0.981401
0.978305
0.975278
0.972133
0.96874
0.965236
0.96194
0.958774
0.95528
0.951933
0.948572
0.945128
0.941193
0.936624
0.932246
0.929672
0.929482
0.93561
0.979295
1.12358
1.37701
1.5904
1.69792
1.75157
1.76295
1.75804
1.73841
1.72302
1.71501
1.71248
1.70784
1.69981
1.68772
1.67588
1.6691
1.66431
1.65851
1.65069
1.64072
1.63118
1
1
1
1
1
1
1
1
1
)
;

boundaryField
{
    inlet
    {
        type            fixedValue;
        value           nonuniform 0();
    }
    outlet
    {
        type            zeroGradient;
    }
    bottom
    {
        type            symmetryPlane;
    }
    top
    {
        type            symmetryPlane;
    }
    obstacle
    {
        type            zeroGradient;
    }
    front
    {
        type            empty;
    }
    back
    {
        type            empty;
    }
    procBoundary36to21
    {
        type            processor;
        value           nonuniform List<scalar> 8(1.56601 1.58031 1.59927 1.62436 1.6573 1.6904 1.70049 1.6955);
    }
    procBoundary36to28
    {
        type            processor;
        value           nonuniform List<scalar> 
89
(
1.8028
1.79109
1.78865
1.7857
1.77621
1.76795
1.75953
1.75049
1.74094
1.7308
1.72064
1.71104
1.7017
1.69212
1.6822
1.67212
1.66206
1.6519
1.64133
1.63019
1.6191
1.60928
1.60103
1.59358
1.58628
1.57887
1.57127
1.56348
1.17731
1.17045
1.16555
1.16041
1.15391
1.14932
1.14446
1.13836
1.13386
1.12959
1.12351
1.11887
1.1153
1.10973
1.10457
1.10114
1.09596
1.09041
1.08707
1.08222
1.07719
1.07014
1.06146
1.06615
1.12761
1.38155
1.79608
1.98057
1.99749
1.98825
1.9835
1.98539
1.98537
1.9793
1.96965
1.95724
1.94827
1.94338
1.94219
1.9424
1.93792
1.93018
1.92012
1.9102
1.90386
1.89961
1.89509
1.88976
1.8841
1.87816
1.87161
1.86508
1.85981
1.85363
1.84816
1.84305
1.83625
1.82789
1.82188
1.81729
1.81729
)
;
    }
    procBoundary36to29
    {
        type            processor;
        value           nonuniform List<scalar> 
19
(
1.65942
1.57032
1.47131
1.43698
1.43743
1.44187
1.45125
1.46556
1.48216
1.49781
1.51155
1.52455
1.53676
1.54878
1.56109
1.57429
1.58712
1.59968
1.61232
)
;
    }
    procBoundary36to35
    {
        type            processor;
        value           nonuniform List<scalar> 
27
(
1.18858
1.19813
1.21104
1.22691
1.24421
1.26416
1.28901
1.31679
1.33446
1.33899
1.32956
1.28876
1.18243
1.05821
1.00594
1.00012
1
1
1
1
1
1
1
1
1
1
1
)
;
    }
    procBoundary36to37
    {
        type            processor;
        value           uniform 1.62469;
    }
    procBoundary36to43
    {
        type            processor;
        value           uniform 1;
    }
    procBoundary36to44
    {
        type            processor;
        value           nonuniform List<scalar> 
89
(
1
1
1
1
1
1
1
1
1
1
1
1
1
1
1
1
1
1
1
1
1
1
1
1
0.999999
0.999998
0.999992
0.999974
0.99993
0.999834
0.999644
0.999316
0.998788
0.998
0.996962
0.995553
0.993848
0.991939
0.989591
0.987045
0.984451
0.98162
0.978453
0.975345
0.972275
0.969074
0.965702
0.962167
0.959042
0.955918
0.952611
0.949145
0.945362
0.941534
0.936638
0.933159
0.931814
0.932689
0.947169
1.02113
1.20825
1.45045
1.64026
1.74308
1.75774
1.74863
1.73968
1.73175
1.72941
1.72341
1.7143
1.70078
1.68877
1.68225
1.67775
1.67219
1.66427
1.65388
1.64395
1
1
1
1
1
1
1
1
1
1
)
;
    }
}


// ************************************************************************* //
