/*--------------------------------*- C++ -*----------------------------------*\
  =========                 |
  \\      /  F ield         | OpenFOAM: The Open Source CFD Toolbox
   \\    /   O peration     | Website:  https://openfoam.org
    \\  /    A nd           | Version:  7
     \\/     M anipulation  |
\*---------------------------------------------------------------------------*/
FoamFile
{
    version     2.0;
    format      ascii;
    class       volScalarField;
    location    "5.5";
    object      rho;
}
// * * * * * * * * * * * * * * * * * * * * * * * * * * * * * * * * * * * * * //

dimensions      [1 -3 0 0 0 0 0];

internalField   nonuniform List<scalar> 
2413
(
1.53779
1.53651
1.53579
1.53525
1.53484
1.5344
1.53381
1.5331
1.53221
1.53094
1.52983
1.52921
1.52881
1.52855
1.52808
1.52744
1.52662
1.52568
1.52491
1.52422
1.52346
1.52255
1.52168
1.521
1.5204
1.51979
1.51914
1.5184
1.5176
1.51677
1.51593
1.51506
1.51417
1.51346
1.51296
1.51258
1.51231
1.51196
1.51144
1.51069
1.5095
1.50839
1.50788
1.50752
1.50738
1.50736
1.50707
1.5066
1.50593
1.50475
1.50373
1.50331
1.50311
1.50302
1.50277
1.50238
1.50174
1.50061
1.4998
1.49953
1.4995
1.49952
1.49918
1.49867
1.49784
1.49682
1.49615
1.49549
1.49464
1.4935
1.49201
1.49054
1.48932
1.48817
1.48699
1.48574
1.48436
1.4828
1.48086
1.47866
1.47731
1.47659
1.47622
1.47597
1.47567
1.47551
1.47526
1.47472
1.47494
1.47552
1.47633
1.47742
1.47846
1.47947
1.4806
1.48196
1.48385
1.48663
1.49035
1.49497
1.50015
1.50498
1.51004
1.51581
1.52129
1.52694
1.53317
1.53844
1.54196
1.54521
1.54864
1.55243
1.55532
1.5569
1.55805
1.55928
1.55862
1.55754
1.5563
1.55555
1.55497
1.55436
1.55363
1.5527
1.55136
1.55025
1.54961
1.54903
1.5484
1.54768
1.54681
1.54578
1.54481
1.54394
1.54309
1.54236
1.54178
1.54129
1.54079
1.54014
1.5393
1.53809
1.53689
1.53623
1.53578
1.53554
1.53507
1.53436
1.53347
1.53267
1.53203
1.53132
1.53038
1.52937
1.52872
1.52822
1.52769
1.52707
1.52627
1.52514
1.52419
1.52365
1.52319
1.5227
1.52215
1.52151
1.52064
1.51959
1.51896
1.51859
1.51824
1.5177
1.51697
1.51596
1.51511
1.51463
1.51434
1.51414
1.51375
1.51318
1.51232
1.51123
1.51064
1.51033
1.51018
1.50998
1.50964
1.50918
1.50837
1.50722
1.50669
1.50652
1.50655
1.50665
1.50644
1.5061
1.50559
1.50459
1.50337
1.5027
1.50223
1.50179
1.50118
1.50039
1.49941
1.49809
1.49648
1.49509
1.49386
1.49259
1.49116
1.48953
1.48759
1.48572
1.48446
1.48351
1.48266
1.48174
1.48074
1.47941
1.47808
1.47779
1.47787
1.4785
1.47931
1.47982
1.48024
1.48046
1.48107
1.48203
1.48328
1.48511
1.48764
1.49016
1.49294
1.49656
1.50075
1.50527
1.51054
1.51625
1.52162
1.52681
1.53219
1.53772
1.54243
1.54607
1.54881
1.55106
1.56446
1.56356
1.56235
1.56141
1.56082
1.5603
1.55967
1.55887
1.55773
1.5565
1.55581
1.55527
1.55467
1.5539
1.55284
1.55177
1.55114
1.55058
1.54993
1.54912
1.54818
1.54744
1.54688
1.54632
1.54564
1.54478
1.54367
1.54283
1.54229
1.54186
1.54132
1.54062
1.53976
1.53894
1.53828
1.53757
1.53666
1.53556
1.53483
1.53431
1.5338
1.53319
1.5324
1.53131
1.5303
1.52971
1.52932
1.52906
1.52863
1.52801
1.52715
1.52594
1.52507
1.5246
1.52436
1.52412
1.52362
1.52296
1.52196
1.52093
1.52042
1.52004
1.51965
1.51915
1.51848
1.51754
1.51686
1.5165
1.51625
1.51598
1.51562
1.51516
1.51442
1.51333
1.51276
1.51254
1.5125
1.51257
1.51238
1.51203
1.51152
1.51057
1.50951
1.50898
1.50858
1.50832
1.50816
1.50772
1.50704
1.50609
1.50454
1.50283
1.50184
1.50099
1.50007
1.49898
1.49765
1.49598
1.49401
1.4924
1.49114
1.48992
1.48863
1.48716
1.48526
1.48368
1.48297
1.48268
1.48275
1.48273
1.48265
1.48253
1.4822
1.48252
1.4832
1.48411
1.48553
1.48728
1.48858
1.48969
1.49092
1.4925
1.49465
1.49746
1.50086
1.50502
1.51013
1.51538
1.5203
1.52524
1.5297
1.53337
1.57036
1.56962
1.5686
1.56746
1.56673
1.56621
1.56566
1.56495
1.56401
1.56278
1.56186
1.56124
1.56064
1.55994
1.55907
1.55788
1.5569
1.55632
1.55584
1.55523
1.55445
1.55339
1.5524
1.55182
1.55135
1.55072
1.54987
1.54889
1.54821
1.5477
1.54713
1.54638
1.54547
1.54473
1.54415
1.54353
1.54275
1.54174
1.54079
1.54016
1.53959
1.53896
1.53815
1.53707
1.5362
1.53568
1.53532
1.53494
1.5344
1.53376
1.53286
1.53165
1.53086
1.53039
1.53008
1.52991
1.52958
1.52905
1.52837
1.52728
1.5259
1.52521
1.52483
1.52455
1.52415
1.5236
1.52279
1.52191
1.52147
1.52117
1.52083
1.52042
1.51991
1.51912
1.51819
1.51775
1.51755
1.51753
1.51737
1.51699
1.51644
1.51558
1.51478
1.51434
1.51399
1.51378
1.51364
1.5133
1.51279
1.51209
1.51088
1.50925
1.50836
1.50776
1.50719
1.50648
1.50559
1.50444
1.50285
1.50123
1.5
1.49884
1.49758
1.49606
1.49411
1.49218
1.49092
1.49006
1.4895
1.48896
1.4883
1.48753
1.48641
1.48562
1.48554
1.48572
1.4864
1.48781
1.48896
1.48955
1.49009
1.4905
1.49072
1.49135
1.49224
1.49351
1.49569
1.49886
1.50176
1.5045
1.50762
1.51106
1.57662
1.57602
1.57522
1.5741
1.57306
1.57244
1.57193
1.5713
1.57049
1.56941
1.56829
1.56757
1.56696
1.56631
1.56555
1.56455
1.56322
1.56228
1.56171
1.56125
1.56062
1.55979
1.55861
1.55748
1.55688
1.5564
1.55573
1.55489
1.55411
1.55344
1.55275
1.55197
1.55122
1.55064
1.55014
1.5496
1.54897
1.5482
1.54724
1.54629
1.54558
1.54492
1.54415
1.54309
1.54211
1.54155
1.54115
1.54074
1.54019
1.53955
1.53873
1.53749
1.53628
1.53565
1.53522
1.53503
1.53492
1.5345
1.53389
1.53297
1.53159
1.53075
1.53032
1.53005
1.52985
1.52946
1.52887
1.5279
1.52697
1.52656
1.52624
1.52588
1.52547
1.52496
1.52414
1.52315
1.52267
1.52242
1.52218
1.52174
1.52113
1.52024
1.51948
1.51903
1.51866
1.51844
1.51823
1.51787
1.51739
1.5167
1.51547
1.51413
1.51354
1.51316
1.51296
1.51261
1.51201
1.51117
1.50998
1.50895
1.50816
1.50733
1.50634
1.5051
1.50346
1.5017
1.50041
1.49938
1.49848
1.49762
1.49663
1.49544
1.49378
1.49193
1.49105
1.49061
1.49049
1.49076
1.49092
1.49087
1.49086
1.49055
1.49016
1.4904
1.4908
1.49147
1.49273
1.49408
1.49488
1.49563
1.4964
1.49724
1.58342
1.58288
1.58214
1.58111
1.57982
1.57901
1.5785
1.57802
1.5773
1.57634
1.5752
1.5744
1.5738
1.57322
1.57254
1.57171
1.57055
1.56926
1.56851
1.568
1.5675
1.56682
1.56593
1.56464
1.5634
1.56273
1.56219
1.5616
1.56094
1.56018
1.55915
1.55789
1.55714
1.55667
1.55626
1.55569
1.55494
1.55394
1.55294
1.55229
1.55177
1.55123
1.55061
1.54979
1.54865
1.54778
1.5473
1.54698
1.54653
1.54594
1.54524
1.54423
1.54286
1.54203
1.54155
1.54121
1.54083
1.54027
1.53946
1.53827
1.53737
1.5369
1.5365
1.53614
1.53571
1.53515
1.53429
1.53335
1.53281
1.53239
1.53196
1.53151
1.53103
1.5305
1.52981
1.52885
1.52804
1.52761
1.52725
1.52676
1.52608
1.52523
1.52455
1.52407
1.52366
1.5233
1.52295
1.52255
1.52207
1.52138
1.52018
1.51901
1.51857
1.51832
1.51829
1.51821
1.51786
1.51732
1.51638
1.51554
1.51508
1.51464
1.51404
1.51325
1.51215
1.51079
1.50965
1.50875
1.50792
1.50706
1.50602
1.50471
1.50289
1.50081
1.49954
1.49862
1.49784
1.49712
1.49633
1.49546
1.49425
1.49262
1.49191
1.49175
1.49191
1.49251
1.49301
1.49327
1.49353
1.49367
1.4937
1.4942
1.59131
1.5907
1.58997
1.58902
1.58768
1.5866
1.58597
1.58542
1.58476
1.58389
1.58266
1.58151
1.58083
1.58031
1.57973
1.57901
1.5781
1.57686
1.57584
1.57524
1.57481
1.5743
1.57357
1.57253
1.57121
1.57035
1.56977
1.56925
1.56865
1.56794
1.56698
1.56561
1.56464
1.56409
1.56359
1.56298
1.56222
1.56117
1.55969
1.55869
1.55811
1.55771
1.55733
1.55674
1.55597
1.55482
1.55376
1.55323
1.55292
1.55251
1.55193
1.5512
1.55013
1.54917
1.54865
1.54819
1.54762
1.54683
1.54585
1.54517
1.54469
1.5442
1.54365
1.54295
1.54192
1.5409
1.54034
1.54001
1.53964
1.53912
1.53842
1.53733
1.53641
1.53592
1.53545
1.5349
1.53427
1.53345
1.53249
1.53184
1.53138
1.53093
1.53043
1.52989
1.52926
1.52862
1.52814
1.52775
1.52734
1.52684
1.5261
1.52512
1.52462
1.5244
1.52431
1.52433
1.52417
1.52386
1.5233
1.52231
1.52159
1.52126
1.52097
1.52048
1.51977
1.51878
1.51784
1.51715
1.51654
1.51585
1.51496
1.51381
1.51224
1.51047
1.50914
1.50803
1.50696
1.50587
1.50469
1.50333
1.50146
1.49906
1.49768
1.49697
1.49667
1.49643
1.49599
1.49548
1.49473
1.49429
1.49436
1.49471
1.59973
1.59912
1.59839
1.59748
1.5963
1.59533
1.59466
1.59402
1.59332
1.59242
1.59113
1.59
1.58932
1.58868
1.58798
1.58718
1.58616
1.58474
1.58362
1.58299
1.58252
1.58202
1.58129
1.58025
1.57919
1.57854
1.57801
1.5775
1.57689
1.57615
1.57513
1.57396
1.5732
1.57263
1.57207
1.57142
1.57059
1.56927
1.56767
1.56684
1.56629
1.56584
1.56541
1.56486
1.56417
1.56316
1.56161
1.56051
1.55998
1.55966
1.55932
1.55876
1.55809
1.55722
1.55595
1.55466
1.55391
1.55344
1.55321
1.55311
1.55276
1.55223
1.55157
1.55054
1.54899
1.54804
1.54758
1.54736
1.54717
1.54665
1.54597
1.54497
1.54339
1.54227
1.54169
1.54127
1.54079
1.54012
1.53925
1.53803
1.53725
1.5368
1.53635
1.53579
1.53506
1.53419
1.53366
1.53338
1.53328
1.53311
1.53278
1.53231
1.53168
1.53131
1.53115
1.53113
1.53111
1.53089
1.53049
1.52969
1.52874
1.52834
1.52803
1.52763
1.52707
1.52624
1.52541
1.52485
1.52439
1.52386
1.52317
1.52228
1.52106
1.51958
1.51839
1.5174
1.51644
1.51544
1.51435
1.51311
1.51159
1.50947
1.50708
1.50574
1.50484
1.50409
1.50322
1.50221
1.50092
1.49957
1.499
1.49877
1.608
1.6074
1.60664
1.60572
1.60484
1.60419
1.60362
1.60302
1.60231
1.60134
1.60019
1.59943
1.59883
1.59818
1.59742
1.59645
1.59505
1.59375
1.59304
1.59245
1.59185
1.59115
1.59019
1.5889
1.58803
1.58744
1.58678
1.58596
1.58497
1.58401
1.58324
1.58259
1.58199
1.58137
1.58066
1.57974
1.57833
1.57686
1.57612
1.57564
1.57535
1.575
1.57445
1.57382
1.57301
1.57174
1.57012
1.5692
1.56865
1.56826
1.56794
1.56746
1.56684
1.56602
1.56471
1.56287
1.56183
1.56131
1.56102
1.56103
1.56079
1.56022
1.55948
1.55825
1.55657
1.55565
1.55514
1.55488
1.55482
1.5544
1.55374
1.55285
1.55137
1.54994
1.54925
1.54874
1.54835
1.54782
1.54716
1.54628
1.54507
1.54408
1.54347
1.54286
1.54213
1.54148
1.54109
1.54085
1.54078
1.54069
1.54043
1.54
1.53928
1.53865
1.53839
1.5383
1.53835
1.53817
1.5378
1.53717
1.53627
1.53567
1.53525
1.53478
1.53412
1.53324
1.53264
1.53224
1.53191
1.53154
1.53104
1.5304
1.52952
1.52821
1.52696
1.52615
1.52549
1.52489
1.5242
1.52334
1.52231
1.52102
1.51918
1.51672
1.5151
1.5141
1.51325
1.51229
1.51114
1.50971
1.50796
1.50675
1.61583
1.61545
1.61493
1.61428
1.61349
1.61246
1.61145
1.61071
1.60999
1.60933
1.6088
1.60839
1.60795
1.60733
1.6065
1.60521
1.60374
1.60296
1.60242
1.602
1.60145
1.60078
1.59997
1.59878
1.5975
1.59672
1.59597
1.59504
1.59402
1.59321
1.59254
1.5919
1.59124
1.59053
1.58968
1.58841
1.58671
1.58569
1.58514
1.58484
1.58466
1.58415
1.58346
1.58249
1.58128
1.58035
1.57963
1.57892
1.57816
1.57745
1.57686
1.57633
1.57576
1.57506
1.57419
1.57301
1.57157
1.57064
1.57008
1.56963
1.56922
1.56866
1.56796
1.56704
1.56568
1.56411
1.56324
1.56267
1.56233
1.56192
1.56123
1.56033
1.55904
1.5578
1.55709
1.55657
1.55624
1.55596
1.55547
1.55484
1.55399
1.55255
1.55107
1.55045
1.55013
1.54999
1.55002
1.55006
1.54993
1.54966
1.54927
1.54865
1.54757
1.5467
1.54633
1.54611
1.54607
1.5459
1.54552
1.54501
1.54436
1.54364
1.54289
1.542
1.54091
1.54015
1.53975
1.53947
1.53936
1.5392
1.53886
1.5384
1.53776
1.53668
1.53544
1.53474
1.53424
1.53388
1.53372
1.53336
1.53273
1.53192
1.53081
1.529
1.52686
1.52567
1.52479
1.52394
1.52293
1.52165
1.51987
1.51781
1.62423
1.62378
1.62338
1.62283
1.62211
1.62106
1.61976
1.61892
1.61833
1.61776
1.61721
1.61671
1.61622
1.61562
1.61479
1.61356
1.61246
1.61183
1.61133
1.61093
1.61047
1.6099
1.60925
1.60845
1.6073
1.60574
1.60468
1.60407
1.60355
1.60296
1.60231
1.60159
1.60077
1.59974
1.59844
1.59719
1.59635
1.5957
1.59503
1.59426
1.59328
1.59223
1.59145
1.59087
1.59043
1.58997
1.58938
1.58866
1.5877
1.5863
1.5851
1.58445
1.58407
1.58392
1.58352
1.58288
1.58212
1.58112
1.57955
1.5781
1.57741
1.57696
1.57652
1.57585
1.57502
1.57386
1.57232
1.57134
1.57072
1.57014
1.56946
1.56864
1.56758
1.56646
1.56575
1.56524
1.56491
1.56468
1.56431
1.56381
1.56318
1.56212
1.56042
1.55937
1.55898
1.55878
1.55889
1.55915
1.55905
1.55872
1.55824
1.5575
1.55631
1.55535
1.55488
1.55453
1.55422
1.55383
1.55336
1.55287
1.55237
1.55186
1.55131
1.5507
1.54992
1.54872
1.54751
1.54701
1.54671
1.54662
1.54666
1.54641
1.546
1.5454
1.5444
1.54324
1.54262
1.54222
1.542
1.54207
1.54185
1.54129
1.54052
1.53925
1.53774
1.53681
1.53607
1.5353
1.53441
1.53331
1.53174
1.52963
1.63237
1.63186
1.63145
1.63097
1.6303
1.62936
1.6283
1.62759
1.62702
1.62643
1.62578
1.62497
1.6241
1.62329
1.6224
1.62155
1.62097
1.6205
1.62003
1.61951
1.61892
1.61829
1.61758
1.61667
1.6154
1.61406
1.61326
1.61275
1.61246
1.61219
1.61166
1.61098
1.61013
1.60889
1.60759
1.60681
1.60619
1.6055
1.60465
1.6034
1.60186
1.60092
1.60037
1.60002
1.59993
1.59964
1.59905
1.59832
1.5973
1.59562
1.59396
1.59316
1.59262
1.59233
1.59234
1.59201
1.59135
1.59048
1.58906
1.58704
1.58588
1.58523
1.58481
1.58438
1.58369
1.58278
1.58137
1.57999
1.57926
1.5787
1.57818
1.57758
1.57687
1.57593
1.57477
1.57404
1.57363
1.57344
1.57336
1.57309
1.57267
1.57209
1.57125
1.57018
1.56919
1.56841
1.56782
1.56739
1.56711
1.56693
1.56661
1.56612
1.56554
1.56493
1.56427
1.56341
1.56209
1.56087
1.56026
1.55988
1.55977
1.55998
1.55989
1.5595
1.559
1.55828
1.55695
1.5554
1.55481
1.55453
1.55453
1.55469
1.55442
1.55396
1.55319
1.55215
1.55159
1.55123
1.55096
1.55056
1.55001
1.54923
1.54813
1.5472
1.54655
1.54595
1.54533
1.54463
1.54383
1.5428
1.54123
1.53928
1.63939
1.63884
1.6385
1.63815
1.63759
1.63684
1.6361
1.63554
1.63503
1.6345
1.63392
1.63322
1.63223
1.63097
1.63015
1.6297
1.62939
1.62899
1.62846
1.62785
1.62719
1.62648
1.62572
1.62486
1.62379
1.62247
1.6214
1.62075
1.62028
1.62003
1.6197
1.61911
1.61838
1.61756
1.61682
1.61616
1.61542
1.61446
1.61294
1.61113
1.61012
1.60952
1.60908
1.60892
1.60904
1.60883
1.60826
1.60753
1.60645
1.60465
1.60305
1.60232
1.60177
1.60148
1.6013
1.60077
1.60003
1.59902
1.59746
1.596
1.59521
1.59453
1.59383
1.593
1.59188
1.5902
1.58881
1.58809
1.58759
1.58734
1.58723
1.58692
1.58644
1.58578
1.58473
1.58326
1.5824
1.58199
1.58178
1.58195
1.58219
1.58194
1.58151
1.58097
1.58029
1.57934
1.57771
1.57591
1.57503
1.5745
1.57419
1.57436
1.57443
1.57394
1.57332
1.57255
1.57127
1.56931
1.56812
1.56761
1.56726
1.56724
1.56761
1.56749
1.56705
1.56647
1.56543
1.56369
1.56272
1.56234
1.5622
1.56215
1.56174
1.56114
1.56042
1.55992
1.55956
1.55921
1.55877
1.55823
1.55752
1.55646
1.55542
1.55483
1.5543
1.55373
1.55309
1.55234
1.55129
1.54956
1.54774
1.54682
1.6461
1.6456
1.64527
1.64479
1.64409
1.64325
1.64265
1.64223
1.6419
1.64163
1.64124
1.64071
1.64003
1.639
1.63784
1.63721
1.63678
1.63653
1.63628
1.63579
1.63518
1.63444
1.63364
1.63289
1.63216
1.63139
1.63054
1.62947
1.62825
1.62743
1.62688
1.62652
1.6263
1.62595
1.62547
1.62487
1.6241
1.6229
1.62092
1.61935
1.61867
1.61814
1.61779
1.61776
1.61773
1.61729
1.61663
1.61571
1.61419
1.61243
1.61153
1.61091
1.61051
1.61037
1.60991
1.60916
1.60814
1.60681
1.60581
1.60511
1.60445
1.60377
1.60299
1.602
1.60037
1.59826
1.59725
1.59672
1.59638
1.5964
1.59661
1.5964
1.59597
1.59538
1.59437
1.59261
1.59125
1.59068
1.59027
1.59002
1.59017
1.59078
1.59074
1.59025
1.58962
1.58872
1.58706
1.58451
1.58303
1.58239
1.58193
1.58187
1.58228
1.58205
1.58147
1.58079
1.57974
1.5779
1.57651
1.57595
1.57553
1.57537
1.57531
1.57492
1.57438
1.57364
1.57223
1.57039
1.5696
1.56915
1.56894
1.56857
1.56797
1.56717
1.56646
1.56596
1.56553
1.56507
1.56453
1.56392
1.56338
1.56301
1.56274
1.56254
1.56236
1.56211
1.56174
1.56106
1.55961
1.55812
1.55772
1.55756
1.65388
1.65333
1.65284
1.65228
1.65153
1.65059
1.64992
1.64946
1.6491
1.64892
1.64866
1.64818
1.64756
1.64657
1.64522
1.64453
1.64409
1.64355
1.64286
1.64216
1.6416
1.64111
1.64067
1.64023
1.63976
1.63921
1.63848
1.63739
1.63604
1.63528
1.6348
1.63445
1.63433
1.63424
1.63386
1.6333
1.63255
1.63131
1.62938
1.6282
1.62761
1.62715
1.62697
1.62676
1.6262
1.62545
1.62438
1.62296
1.62177
1.62101
1.62035
1.6197
1.61897
1.61808
1.61702
1.61607
1.61533
1.61473
1.6142
1.61365
1.61304
1.61235
1.61151
1.61024
1.60817
1.60671
1.60614
1.60575
1.60558
1.60587
1.6062
1.60594
1.60547
1.60482
1.60369
1.60172
1.60029
1.59967
1.59919
1.5989
1.59906
1.59922
1.59872
1.59805
1.59722
1.59596
1.59365
1.59121
1.59021
1.58957
1.58913
1.58912
1.58925
1.58878
1.58813
1.58729
1.58588
1.58419
1.5834
1.5829
1.58261
1.58253
1.58219
1.58168
1.58107
1.58012
1.57833
1.57687
1.57638
1.57608
1.57606
1.57607
1.57581
1.57548
1.57508
1.57447
1.57383
1.57354
1.5734
1.5734
1.57365
1.57418
1.57499
1.57607
1.57733
1.57829
1.57912
1.58089
1.58342
1.58693
1.59132
1.59694
1.66127
1.66079
1.66022
1.6595
1.65856
1.65778
1.65728
1.65693
1.65682
1.65692
1.65666
1.65619
1.65565
1.65477
1.65326
1.65232
1.65191
1.65148
1.65092
1.65024
1.64957
1.64905
1.64857
1.64811
1.64761
1.647
1.64615
1.6448
1.64358
1.643
1.64256
1.64232
1.64234
1.64219
1.64168
1.64096
1.63984
1.63817
1.63711
1.63655
1.63613
1.63595
1.6356
1.63497
1.63407
1.6328
1.63171
1.63103
1.63049
1.63002
1.62945
1.62876
1.62787
1.6265
1.625
1.62419
1.62362
1.62317
1.62277
1.62225
1.62162
1.62084
1.61971
1.61773
1.61586
1.61513
1.61467
1.61438
1.6145
1.61499
1.61484
1.61431
1.61363
1.6126
1.61076
1.60893
1.60809
1.60747
1.60701
1.60691
1.60688
1.60633
1.6056
1.60476
1.60364
1.60158
1.59883
1.59755
1.59688
1.59636
1.59617
1.59634
1.59612
1.59559
1.59496
1.59398
1.59224
1.59111
1.5907
1.59048
1.5906
1.59084
1.59079
1.59054
1.59008
1.58903
1.58784
1.58756
1.58769
1.58835
1.58977
1.59163
1.59292
1.59425
1.59642
1.59923
1.6027
1.60725
1.61269
1.61976
1.62765
1.63688
1.64681
1.65636
1.66852
1.67985
1.69343
1.70873
1.72361
1.74295
1.76082
1.78136
1.67009
1.66954
1.66896
1.66823
1.66722
1.6663
1.66575
1.66538
1.66524
1.6651
1.66466
1.66411
1.66334
1.66189
1.6602
1.65953
1.65912
1.65866
1.65814
1.65766
1.65727
1.65696
1.65667
1.6563
1.65578
1.6551
1.65404
1.65288
1.6523
1.65188
1.65156
1.65146
1.65141
1.65105
1.65047
1.64963
1.64812
1.64658
1.6459
1.64539
1.64495
1.64438
1.64357
1.64245
1.64133
1.6406
1.64002
1.63947
1.63883
1.63807
1.63712
1.63582
1.63448
1.6336
1.63296
1.63243
1.63195
1.63147
1.63095
1.63034
1.62959
1.6285
1.62662
1.62491
1.62419
1.62368
1.62326
1.6231
1.62333
1.62317
1.62261
1.62194
1.62107
1.6195
1.61709
1.61575
1.61504
1.61445
1.61418
1.61395
1.61335
1.61264
1.61184
1.61072
1.60868
1.60659
1.60587
1.60553
1.60539
1.60569
1.60644
1.60685
1.60682
1.60661
1.6061
1.6052
1.60488
1.60533
1.60637
1.60809
1.61089
1.61421
1.61716
1.62021
1.62407
1.62852
1.63422
1.64126
1.64942
1.66067
1.67207
1.68478
1.69768
1.70992
1.72513
1.73933
1.75701
1.7761
1.79408
1.8161
1.83351
1.85314
1.87329
1.89142
1.913
1.92919
1.94583
1.96217
1.97924
2
2.02099
2.03876
1.67992
1.67924
1.67847
1.67756
1.67668
1.67606
1.67564
1.67543
1.67525
1.67486
1.67434
1.67366
1.67249
1.67048
1.66919
1.66868
1.66839
1.66829
1.66794
1.66747
1.66697
1.66646
1.66595
1.66538
1.66466
1.66353
1.66214
1.66141
1.66094
1.66061
1.66053
1.6603
1.65975
1.65901
1.65788
1.65644
1.65542
1.65476
1.65413
1.65345
1.6527
1.65192
1.6512
1.65058
1.65004
1.64949
1.64887
1.6482
1.64742
1.64627
1.64447
1.64308
1.64238
1.6418
1.64123
1.64062
1.64
1.63935
1.63861
1.63762
1.63597
1.63391
1.63277
1.63215
1.63162
1.63121
1.63111
1.63121
1.63091
1.63041
1.62983
1.62902
1.62753
1.6258
1.6251
1.62476
1.6246
1.62476
1.62511
1.62513
1.62495
1.62472
1.62427
1.62329
1.62276
1.62342
1.62482
1.62689
1.62988
1.63431
1.63866
1.64306
1.64804
1.65365
1.66031
1.66855
1.67773
1.68766
1.70027
1.71349
1.72692
1.74384
1.75953
1.77549
1.79504
1.81035
1.8285
1.84758
1.86643
1.8903
1.90915
1.9287
1.94541
1.96161
1.98017
1.99576
2.01309
2.03025
2.04645
2.06006
2.06904
2.07802
2.08814
2.10105
2.11378
2.1204
2.12489
2.1296
2.13571
2.14504
2.15565
2.15996
1.69234
1.69138
1.69035
1.6893
1.68852
1.68791
1.68738
1.68684
1.68627
1.68564
1.68486
1.68369
1.6817
1.67995
1.67922
1.67873
1.6785
1.67851
1.6783
1.67784
1.67734
1.6768
1.67618
1.67542
1.67428
1.67271
1.67173
1.67119
1.67079
1.67063
1.6703
1.66967
1.66892
1.66786
1.66613
1.66464
1.66387
1.66315
1.66233
1.66127
1.66014
1.65935
1.65868
1.65812
1.65752
1.65683
1.65605
1.65505
1.65338
1.65141
1.65042
1.64982
1.64947
)
;

boundaryField
{
    inlet
    {
        type            calculated;
        value           nonuniform 0();
    }
    outlet
    {
        type            calculated;
        value           nonuniform 0();
    }
    bottom
    {
        type            symmetryPlane;
    }
    top
    {
        type            symmetryPlane;
    }
    obstacle
    {
        type            calculated;
        value           nonuniform 0();
    }
    front
    {
        type            empty;
    }
    back
    {
        type            empty;
    }
    procBoundary38to30
    {
        type            processor;
        value           nonuniform List<scalar> 
133
(
1.52999
1.52921
1.5287
1.52828
1.5277
1.52697
1.52603
1.52503
1.52429
1.52364
1.52292
1.52211
1.52137
1.52076
1.52019
1.51962
1.51901
1.51827
1.51723
1.51617
1.51553
1.51495
1.51427
1.5134
1.5125
1.51184
1.51129
1.51075
1.51014
1.50939
1.50832
1.50704
1.50621
1.50567
1.50528
1.5051
1.50501
1.50469
1.50418
1.50345
1.50216
1.50085
1.50033
1.50003
1.49998
1.50012
1.49993
1.49956
1.49904
1.49805
1.49666
1.49605
1.49579
1.49571
1.4956
1.49529
1.49484
1.49401
1.49275
1.49211
1.49181
1.49153
1.49097
1.49017
1.48922
1.48831
1.48742
1.48644
1.48522
1.48362
1.48159
1.47992
1.47872
1.47763
1.47645
1.47526
1.47411
1.47287
1.4716
1.47096
1.47083
1.47094
1.47111
1.47145
1.47178
1.47205
1.47275
1.47378
1.47513
1.47677
1.47844
1.48018
1.48213
1.48508
1.48894
1.49337
1.49921
1.5056
1.51118
1.51724
1.52274
1.52701
1.53136
1.53591
1.54077
1.54556
1.54856
1.55031
1.55174
1.55335
1.55518
1.55759
1.55936
1.56025
1.56075
1.56108
1.55152
1.55045
1.54964
1.54898
1.54834
1.54766
1.54687
1.54582
1.54439
1.54323
1.54254
1.54194
1.54135
1.54073
1.54001
1.5391
1.5391
)
;
    }
    procBoundary38to31
    {
        type            processor;
        value           uniform 1.56054;
    }
    procBoundary38to37
    {
        type            processor;
        value           nonuniform List<scalar> 
16
(
1.55941
1.56515
1.57095
1.5771
1.58391
1.5919
1.60028
1.60841
1.61635
1.62502
1.63333
1.64047
1.64721
1.65501
1.66178
1.67066
)
;
    }
    procBoundary38to39
    {
        type            processor;
        value           nonuniform List<scalar> 
17
(
1.5533
1.53679
1.51466
1.49866
1.49487
1.49544
1.49883
1.50608
1.51654
1.52813
1.53804
1.54617
1.55761
1.60429
1.80202
2.04948
2.16108
)
;
    }
    procBoundary38to45
    {
        type            processor;
        value           nonuniform List<scalar> 2(1.68064 1.69345);
    }
    procBoundary38to46
    {
        type            processor;
        value           nonuniform List<scalar> 
133
(
1.64936
1.64902
1.64852
1.64799
1.64733
1.64629
1.64491
1.64417
1.64396
1.64387
1.64389
1.64401
1.64424
1.64449
1.64465
1.64475
1.64477
1.64452
1.64393
1.64413
1.64523
1.64703
1.64968
1.65374
1.65792
1.66278
1.66773
1.67316
1.68053
1.68794
1.69708
1.70857
1.71996
1.73403
1.74931
1.76324
1.77899
1.79607
1.81257
1.83009
1.84991
1.86775
1.88679
1.90912
1.9264
1.94429
1.96181
1.97704
1.99683
2.01736
2.03388
2.04809
2.05853
2.07088
2.08487
2.10022
2.11155
2.11765
2.12372
2.13127
2.14174
2.15114
2.15538
2.15872
2.16319
2.16809
2.17072
2.17164
2.17247
2.17472
2.17859
2.1835
2.18533
2.18546
2.1836
2.1832
2.18382
2.18605
2.18765
1.70628
1.70518
1.7041
1.70316
1.70239
1.70171
1.70104
1.70031
1.69951
1.69858
1.69732
1.69544
1.69378
1.693
1.69245
1.69202
1.69156
1.69097
1.69028
1.68946
1.68855
1.6876
1.6866
1.68542
1.68386
1.68235
1.68144
1.68072
1.6801
1.67949
1.67873
1.67784
1.67672
1.67516
1.67375
1.67288
1.67207
1.67119
1.6703
1.66953
1.66892
1.66841
1.66793
1.66743
1.66693
1.66633
1.66543
1.66392
1.66274
1.6624
1.66226
1.66229
1.64936
1.66258
)
;
    }
}


// ************************************************************************* //
