/*--------------------------------*- C++ -*----------------------------------*\
  =========                 |
  \\      /  F ield         | OpenFOAM: The Open Source CFD Toolbox
   \\    /   O peration     | Website:  https://openfoam.org
    \\  /    A nd           | Version:  7
     \\/     M anipulation  |
\*---------------------------------------------------------------------------*/
FoamFile
{
    version     2.0;
    format      ascii;
    class       volScalarField;
    location    "1.171";
    object      p;
}
// * * * * * * * * * * * * * * * * * * * * * * * * * * * * * * * * * * * * * //

dimensions      [0 2 -2 0 0 0 0];

internalField   nonuniform List<scalar> 
12359
(
0.0631656
0.0726472
0.0461531
0.106271
0.0668657
0.153189
0.185228
0.1681
0.224583
0.141285
0.206052
0.277157
0.486528
0.113772
0.100917
0.395473
0.441424
0.0509143
0.050512
0.0860396
0.122338
0.250599
0.0788824
0.0915189
0.0755206
0.0821413
0.0473964
0.0472541
0.0497719
0.0479322
0.0483877
0.0467129
0.0463346
0.047711
0.0461865
0.0485713
0.0563319
0.0613904
0.0651773
0.0588542
0.0706565
0.0600064
0.0537889
0.0530779
0.0491391
0.0494241
0.0488436
0.0481834
0.0501503
0.0475386
0.0471185
0.046971
0.0466261
0.051334
0.0465416
0.0463688
0.0524578
0.0463186
0.0462978
0.0462366
0.0464214
0.0461826
0.0470273
0.51638
0.0518418
0.130922
0.0555352
0.0468692
0.0570397
0.348623
0.531195
0.0686909
0.0461429
0.0578996
0.0965529
0.0461933
0.0466094
0.0461599
0.054741
0.3174
0.125338
0.041526
0.0450727
0.0485987
-0.0581974
0.025705
0.0413806
0.0432441
-0.0697035
-0.0523716
0.0459107
0.476724
0.0458526
0.0464448
0.0472398
0.00879974
0.0457677
0.046513
0.056787
0.0529766
0.106745
0.0460279
0.0263309
-0.123917
0.0397444
0.013537
0.0447507
-0.0568999
0.0300997
0.0139108
0.0458249
0.0416679
0.108078
0.0896806
0.047536
0.0417876
0.0916233
0.0404588
-0.0744356
0.0451208
0.0459083
0.174245
0.0430388
0.00622223
0.0402775
0.0413034
0.0371333
0.0484903
0.0461506
0.0399805
0.0422397
-0.00238696
-0.00388187
-0.00269561
0.0448331
0.00739834
0.0418421
0.00751049
0.0460628
0.0376931
0.0452826
0.0645129
0.0154813
0.0448065
0.00844942
0.145891
0.0450812
-0.0464534
0.0395924
0.125978
0.00225733
0.0460453
0.0154667
0.0429714
0.0457963
-0.167577
0.107305
-0.00161271
0.0458979
0.0467888
0.0450705
0.0468451
0.00452749
0.0125031
0.0450531
0.0413118
0.0460489
0.172824
0.0141603
-0.0716995
0.0461659
0.0461914
0.0130996
0.0754734
0.0396699
0.0413649
0.0497885
0.0495714
0.109557
0.041754
0.113873
0.0457727
0.046152
0.0412151
0.0556942
0.206004
0.0416641
0.0463007
0.00549418
0.0414307
0.0465786
0.00833199
0.0118251
0.0428937
0.0127029
-0.132858
0.0323915
0.0424756
0.0158457
0.0406264
0.149776
0.0048776
0.0541378
0.0135417
0.0118355
0.0457494
0.010784
0.0547041
0.00243036
0.040163
0.0454557
0.000296613
0.000258517
-0.533132
0.20022
0.0460663
0.0419991
0.0474878
0.0419033
0.0653256
0.100205
0.0401372
0.00637512
0.470108
0.0398338
0.0454302
0.0661544
0.0298248
0.0445782
0.0433371
0.0431458
0.0450642
0.00922093
0.0543668
0.0458243
0.053461
0.0451134
0.0147633
0.0460186
0.292406
0.0450148
0.023605
0.045991
0.0545089
0.0438943
-0.0465391
0.0462831
0.00226459
0.0394801
0.0119134
0.00172958
0.0607279
0.049151
0.0436157
0.324706
-0.583587
0.0451289
0.0398733
0.402419
-0.052015
0.0536285
0.04498
0.044598
0.0126239
0.0737961
-0.458429
-0.0689232
0.0436101
0.0400207
0.00788234
0.0131857
0.0595766
0.0140726
0.043675
0.0400006
0.0450554
0.0399825
-0.116476
0.0423495
0.0446522
0.0460139
0.0119837
0.038142
0.0556133
0.0241527
0.045204
0.0467738
0.0460367
0.0460145
0.0467498
0.00460616
0.0409733
-0.458415
0.0447714
0.0447779
0.0262122
0.0398213
0.100193
0.047213
0.0471687
0.0459345
-0.105489
0.0441266
0.0459341
0.042292
0.0468134
0.0390004
0.04152
0.0418621
0.039977
0.0509087
0.203589
0.0387948
0.0484368
0.0613516
0.0222724
-0.0572644
0.03818
0.0574115
0.371958
0.0460052
0.01957
0.0446332
0.0325936
0.0447795
0.0378747
0.227116
0.0188352
0.205477
0.0550996
0.0456643
0.0124691
0.00658218
0.0455862
0.012216
0.0122243
0.044174
0.0465011
0.0464952
0.0465705
0.0465474
0.291145
0.0451794
0.104078
0.00118991
0.0545507
0.0137078
0.0189496
0.0266213
0.0333551
0.0180954
0.0338366
0.056338
0.0201627
0.0214359
0.0914682
0.0653859
0.0144541
0.0636219
0.0633569
0.016423
0.104266
0.0420727
0.0465955
0.0311599
0.0465565
0.041848
-0.184426
0.504531
0.0420355
0.0461018
0.0448495
0.0456402
0.0179688
0.0458044
0.0457829
-0.0766061
0.013111
-0.0484314
0.0440351
0.0107111
0.0381209
0.0462495
0.0158858
0.0309039
0.109871
0.0312849
0.0422912
0.0446864
0.0126425
0.0100877
0.0390543
0.29577
0.0156271
0.00809406
0.0493459
0.0463277
0.0460803
0.387167
0.0126857
0.0441771
0.062322
0.0623811
0.0453043
0.04527
0.0455691
-0.0571866
0.0986438
0.0586118
0.0188175
0.00363371
0.0474019
0.113505
0.0488156
-5.25448e-05
-0.061629
0.302822
0.0533817
0.091165
0.0291339
0.0220911
0.035041
0.0308263
0.0479844
0.0350068
0.015972
0.04581
-0.0546554
0.0561687
-0.00694533
0.00909938
0.0529165
0.095243
-0.147557
0.0175769
0.0386869
0.00695014
0.00883741
0.0187949
0.0408229
0.0455031
0.0521266
0.04479
-0.0030737
0.0421674
0.0819411
0.0848936
0.0360997
-0.0553299
0.103877
0.0525544
0.0446545
0.394279
0.0443391
0.0438963
0.00501303
0.0461084
0.044539
0.0438378
0.235614
0.207736
0.0482061
0.0434172
0.108953
0.047766
0.0189061
0.0152535
0.0137483
0.0440539
0.0456224
0.0474186
0.0459495
0.0843473
0.0194012
0.0217339
0.0493743
0.050887
0.00253306
0.0480808
0.0451439
0.0389827
0.119442
0.00443397
0.0460445
0.04715
0.012441
0.030828
0.0481151
0.0415534
0.111978
0.0188304
0.00787102
0.0206484
0.0440099
0.0454102
-0.00579381
-0.00440553
0.0459412
0.0361912
0.0489491
0.00594964
0.281706
0.0455457
0.0423368
0.0442635
0.0148687
0.0525939
0.0512781
0.0414516
0.0488375
0.0298752
0.074475
0.0374037
-0.0358689
0.0446924
-0.0410725
0.0432775
-0.11452
0.0182847
-0.00293971
0.0462967
0.04913
0.0216653
0.041158
0.0470865
0.0541956
0.0528634
0.0531469
0.0711592
0.0139787
0.0135272
0.0450971
0.0408004
0.0192294
-0.00350097
0.045099
0.0446786
0.0124962
0.0442244
0.223646
-0.151453
-0.117454
0.0450983
0.0398787
0.0013829
0.051741
0.0399595
0.450999
0.0447065
0.113283
0.0878233
0.0397155
0.0397304
0.0472371
0.0363512
0.000963471
0.0301732
0.0497864
0.0451355
0.0461518
0.0523674
0.0497815
0.05493
0.0142318
0.046806
0.0446923
0.0204258
-0.0858138
0.0483256
-8.89729e-06
0.0448871
0.0503686
0.0938594
0.00121705
0.00178302
0.0957551
0.0447411
0.00191122
0.0453509
0.0462272
0.00287674
0.036161
0.0441877
0.0361228
0.0457033
0.0446677
0.040766
0.0482705
0.00199382
0.102423
0.0565335
0.117622
0.0158872
0.0386913
0.112226
0.0614079
-0.00539766
0.0136457
0.0623731
0.0537263
0.0462432
0.0375388
0.0207947
0.0450869
0.0461216
0.0441278
0.0462845
-0.0160822
0.0366269
0.0338367
0.103456
0.0544932
0.23397
0.00584367
0.00187284
0.0404255
-0.00176798
0.0456839
0.0492021
0.0451841
0.104797
0.112944
0.0450093
0.0302662
0.229459
0.016035
0.00543904
0.0374538
0.0654908
-0.127217
0.043712
0.0476146
0.0457269
-0.0102914
0.0474903
0.0309606
-0.0545055
0.0447021
0.0758275
0.0564082
0.0402664
0.0485888
0.0453108
0.0466174
0.0519906
0.0466703
0.0465418
0.0512227
0.00651775
0.0106175
0.0403599
0.3364
0.00153526
0.415702
0.017105
0.024756
0.0516255
0.0183565
0.0554654
0.00931464
0.320854
0.0971862
0.0545722
0.0427665
0.0512041
0.0497456
0.0212464
0.0455001
-0.00841124
0.0466853
0.0986454
0.0479715
-0.0144505
0.00782093
0.0114569
0.0552095
0.0378842
0.00829682
0.0760628
0.00510372
0.0395544
0.00298886
0.0421164
0.0451497
0.0487811
-0.202129
0.070477
0.0397721
0.0450399
0.046913
0.0520343
0.0813518
0.0106438
0.0176545
0.0441105
0.0411995
0.054229
0.0396545
0.0374168
0.00190701
0.0528919
0.0564652
0.0094743
0.0410198
0.0385727
0.102842
0.0450968
0.0531855
-0.258276
0.0462749
0.00721908
0.0507626
0.0388962
0.0881069
0.00999653
0.0496818
0.0187362
0.0460233
0.110293
0.0393383
0.0125766
0.0109977
0.111526
0.0458714
0.00132318
-0.00583388
0.0554528
0.0410143
0.0406792
0.0359831
0.237614
0.0506235
0.0460854
0.0536097
0.0458253
-0.125656
0.0409358
0.00990414
0.0311718
0.0172228
0.519485
0.0407186
-0.0556359
0.0111291
-0.0953166
0.0186226
0.0498084
0.0406918
0.0308642
-0.0482454
-0.0360928
0.043521
0.0431874
0.117614
0.0427347
0.210372
0.0197471
0.0697772
0.0409921
0.401658
-0.102615
0.0414721
0.0451578
0.0456605
0.0921954
0.0521509
0.0567677
0.0495625
0.0153288
0.0755863
-0.0302185
0.354664
0.044106
0.0815859
0.0139945
0.119928
0.0422349
0.113193
0.00820861
0.0934368
0.0488709
0.0450341
0.00945345
0.00663421
0.0182807
0.116516
0.0123978
0.0252293
0.0499414
0.0452695
0.0371818
0.243142
0.0372363
0.0119001
0.0654517
0.0201263
0.0355152
0.0504182
-0.00502704
0.0319945
0.0417435
-0.0160208
0.0566756
0.0270775
0.198541
0.0451353
0.0316807
0.0486063
0.0541576
0.0414494
0.0494257
0.045093
0.00140798
0.0388392
0.0756896
0.0122194
0.0939276
0.0304372
0.0309527
0.0101697
-0.182942
0.0462609
0.0534322
0.0263721
-0.069367
0.00704616
0.0457523
0.507657
0.045056
0.0397151
-0.155717
0.0519222
0.0461525
0.0462368
0.0641462
0.0880527
0.0462908
0.0530768
0.108239
0.0491449
0.0513504
0.0499918
0.043766
0.0890767
-0.0172639
0.0521311
0.11517
0.0110025
0.0119325
0.00554277
0.0151384
0.049998
0.0396865
-0.040217
0.00499174
0.0712631
0.0449382
0.0463145
0.116455
-0.00166895
0.0326969
0.0371005
0.0325166
0.0495277
0.0403811
0.082426
-0.225401
0.359865
0.0812097
0.0482343
0.0403257
0.0782781
0.35152
0.109917
0.0457627
3.17974e-05
-0.0127492
-0.243224
0.0349376
-0.151587
0.0462809
0.0499147
0.0463357
0.00615338
0.0731714
-0.155058
0.0384102
-0.0841177
0.0424805
0.048718
0.0109777
0.0513955
0.000825042
-0.0429046
0.0526925
0.0350127
0.0245771
0.035229
0.0525103
0.0752861
0.0707396
0.030515
0.0778806
0.0527198
0.0463769
0.0507975
0.0469661
0.103897
0.0225742
-0.00750344
0.00237069
0.0842526
0.0241383
0.0226864
0.0410929
-0.00983787
0.0333634
0.0519106
0.0457432
-0.00057684
0.107558
0.0384276
0.0390254
0.0539052
0.0230902
0.101341
0.11502
0.0231887
0.245641
0.0218986
0.0853318
-0.0402835
0.0510486
0.0185261
0.0111765
0.0428756
0.0331056
0.0371168
0.0423425
0.0453449
0.0417618
-0.0141032
-0.00172909
0.0408062
-0.141081
0.0989981
0.0468495
0.0503711
0.00153937
0.0467388
0.0778991
0.0133517
0.00446417
0.0466783
0.049315
0.0459338
0.0467411
0.117151
-0.134304
0.0470197
0.0562357
0.0451095
-0.143745
0.0210967
0.0148171
0.0447919
0.0469015
0.0499202
0.0245415
0.0844176
0.0275456
0.0448989
0.049964
0.0466097
0.0205901
0.0831454
0.0371888
0.0461126
0.030184
0.0247439
0.0736571
0.0410488
-0.016926
0.143931
0.0429394
0.0320574
0.0496557
0.0416827
-0.173389
0.0524998
0.046907
0.0119115
0.103452
0.0807708
-0.137076
0.0744365
0.034017
0.0269497
0.0538739
0.0379938
0.0338248
0.0530437
0.145472
0.04791
-0.327874
0.0817159
0.180732
0.0380372
-0.0056222
0.0945385
-0.00187723
0.260333
0.00761268
0.027044
0.0331594
0.0374796
0.045061
0.041928
0.0867459
0.0012503
0.0532322
0.0429329
0.00700512
0.0169408
0.00587334
0.0788427
0.000281418
0.0054843
0.0450972
0.0688534
-0.0502443
0.0858356
0.0450406
0.0341692
0.0505962
0.0450479
0.0674717
0.0462655
0.042053
0.24415
0.0905574
-0.017365
0.0463131
0.0458798
0.0458456
0.0533736
0.050441
-0.00214111
0.0505946
0.0457662
-0.0166971
0.0213267
0.00695208
0.0670594
0.0492829
0.0392147
0.0907309
0.0335689
0.0463486
-0.0414577
0.0116355
0.110625
0.0469041
-0.232304
0.0959676
0.0491565
0.00325912
0.0375433
-0.0250629
0.0347044
0.000968567
0.0925348
0.048241
0.0481917
0.0222111
0.0392441
0.0520814
-0.00732805
0.0521024
0.0521225
0.0966428
0.04248
0.0499337
0.0344615
0.0104174
0.0493593
0.0521035
0.0502769
0.0449361
0.0944517
-0.0413662
0.0256616
0.053429
0.0518822
0.03903
0.0454374
-0.189188
0.0776241
0.0460313
0.069131
0.0390731
0.097973
0.151369
0.00133008
0.0523059
0.00504605
-0.00197435
0.0447444
0.0392405
-0.000904934
0.0394594
0.0460895
0.0704497
0.0268764
0.0511685
0.046122
0.0402616
0.0831736
0.0467912
0.0309667
0.0462805
0.036902
0.0651557
0.131314
0.0456045
-0.196852
0.0786305
0.0150762
-0.119392
0.090956
0.0310194
-0.0293666
0.0539357
0.141332
0.207942
0.0516345
0.0422011
0.0420778
0.0487875
0.0506012
0.00695249
-0.0777781
-0.142242
0.00887112
0.147069
-0.00671645
0.0104682
-0.0585568
0.0456036
0.0490765
0.0468094
0.0244505
0.0457485
0.00830786
0.0352536
-0.0113023
0.0451682
0.0490234
0.0431406
-0.145973
0.117814
0.0764203
0.0589944
0.121014
0.0422406
0.0469119
-0.0165211
0.0350388
-0.0119706
0.00750035
0.0225848
0.00430872
0.0157232
0.0542248
0.0450474
0.0455301
-0.122009
0.0409047
0.0378153
0.0524233
0.00610519
0.0179066
0.045655
0.0196148
-0.0136032
-0.000142919
0.0929219
0.0512915
0.0459779
0.00462039
0.0535577
0.0456697
-0.000631436
0.00727698
0.0500296
0.137171
0.00134984
0.0457903
0.0461234
0.0448954
0.105632
-0.135499
0.0395702
0.00999987
0.0492761
0.0503147
0.0118007
0.0459929
0.179772
0.0156307
-0.0532135
0.152329
0.0300099
0.0455002
0.0454134
0.0323173
0.053735
0.0452414
-0.1756
0.00516862
0.0429934
0.219773
0.0996165
0.0388112
0.0450977
0.046217
0.0516652
-0.0747218
0.159675
0.0325221
0.0756507
0.064258
0.00579107
-0.0771392
0.0232574
0.0518328
0.0509195
0.0163042
0.0384691
0.044172
0.0485891
0.00357218
0.0504536
0.0319281
0.0524969
0.0800768
-0.0113115
0.0438508
0.0487128
-0.00381547
0.00325724
0.0560442
0.0482482
0.0746991
-0.000678819
0.0376513
0.0165854
0.0723469
0.0170448
-0.0334774
0.0507505
0.157147
0.0451429
0.104604
-3.49711e-05
0.0459872
0.0455379
0.375975
0.0464224
0.0536884
0.0255052
0.0516708
0.0518093
0.0549994
0.0463058
0.0458319
0.000305374
-0.025871
0.0434821
0.332988
0.0357687
0.0483254
0.237058
0.0983044
0.0541251
0.0430534
0.0480777
0.0864623
-0.265063
0.0515329
0.0433785
0.0450581
0.0487611
0.0618151
0.0160889
0.0510356
0.062018
0.0495978
-0.150696
-0.00644916
0.00866627
0.108871
0.0356478
0.0484221
0.00437206
-0.116665
0.0508403
0.0453003
0.0483393
0.0456992
0.0516009
0.0447303
-0.00350318
0.0426817
0.0398567
0.316801
-0.000952225
-0.00871174
0.00367582
0.0514474
0.00089348
0.0859491
-0.0882216
0.0446359
0.0105285
0.0459782
0.24017
0.0451673
0.0463036
0.0294153
0.0451151
0.0252367
0.0564645
0.0517335
0.044429
-0.0936163
0.0864881
0.0112744
0.0486813
0.0348952
-0.0574324
-0.0076941
0.0771926
0.0730925
0.0468543
0.0527816
0.0414905
0.0485975
0.043485
0.0486136
0.0882626
0.0737589
0.00679239
-0.104554
0.0236044
-0.00824737
0.0317196
-0.108239
0.044657
-0.0299913
0.0484363
-0.0120189
-0.00618257
0.024531
0.0461854
0.0286305
0.010376
0.0311851
-0.0156899
0.233948
-0.10272
0.0484076
-0.00255713
0.0454829
-0.00531932
0.0897537
0.00353532
0.0410095
0.0548926
0.0104399
0.0493926
0.0354977
0.0466699
0.0439146
0.0452579
0.052719
0.00639099
0.00151851
0.0456828
0.0826084
-0.0839269
0.494616
0.04486
0.071511
0.0276255
0.192777
0.0306187
-0.177963
-0.0345818
0.044194
0.0239419
0.0668682
0.175133
0.0478287
0.0656304
0.0780901
0.04316
-0.0861389
-0.00470646
0.0483046
0.0251015
-0.0350669
0.0744475
-0.0899892
0.0362278
0.0788652
0.0516494
0.0448198
0.0532535
0.042348
-0.0740842
-0.00048897
-0.0643626
0.0467925
-0.0857939
0.0290749
0.00336726
0.10966
0.024246
0.0271372
-0.0546104
0.0360906
0.0356381
0.00505542
0.0695038
0.0250518
0.00844478
0.0676413
-0.0891677
0.0841057
0.033533
0.0877508
0.0466298
0.112902
-6.13631e-05
0.100265
0.0508826
-0.0362417
0.0456758
0.0327517
0.00928476
-0.000958885
0.0548045
0.00600164
0.0443499
0.508842
0.0524918
0.00572645
0.0896025
-0.000130806
0.00699154
0.0466773
0.0305268
0.0453419
0.465393
0.0457352
0.0455272
0.0449011
-0.0145814
0.039912
0.042978
-0.0124949
0.0272026
0.0620856
0.0403977
0.0453082
0.10649
0.0434625
0.102357
0.00738209
0.0842221
0.038447
0.039326
0.0250829
-0.0135845
0.00896926
0.0414541
0.528896
0.0457076
0.0453951
0.0529105
-0.136092
0.0508561
0.0301273
0.0787599
0.0504189
0.0390705
0.00282184
-0.0230715
0.0324379
-0.0466422
0.0513727
0.0426235
0.0143299
0.0191
-0.000690916
0.0483452
0.0251592
0.0699286
0.193742
0.0357349
0.0456031
0.043782
0.177237
0.046114
0.046123
-0.0361059
0.031139
-0.0404225
0.0390951
0.0451742
0.188511
-0.0145006
0.03955
0.0517622
0.0433718
-0.11013
0.0461212
0.0328403
-0.0275925
0.046122
0.0452948
0.00890209
0.0448282
0.0461357
0.0136435
0.0503752
0.04542
0.0207858
0.0449745
-0.0127194
0.0451608
0.0577165
0.118392
0.00804862
0.0461429
0.00484915
-0.169363
0.0389
0.0720501
0.042827
0.0332918
0.0437268
-0.0178504
-0.00591837
0.043138
0.0452844
0.13114
0.0285396
0.0160564
0.0119942
0.128937
0.044855
0.00564557
0.0452652
-0.0201714
-0.00590442
-0.00478844
0.00767838
0.154567
-0.0878481
0.00530815
0.0108988
0.0469391
0.0489335
0.000667624
0.135081
0.0967564
0.0324301
-0.0732371
0.0446496
-0.0631402
0.203627
0.0453691
-0.00803643
-0.0223225
0.078868
0.00868233
0.00659003
0.070785
0.045501
-0.01233
-0.065088
0.260688
0.0515755
0.00237004
-0.0311093
0.141443
0.0478592
0.0452752
0.00657446
-0.0529542
0.0394442
0.0680806
0.0455747
0.0448648
0.0557765
0.0512368
0.0247482
0.0520852
0.0452218
-0.0156169
0.0345606
-0.0264774
0.0159432
0.04562
0.045324
0.142154
0.0510681
0.0783775
0.0598382
-0.0474572
0.0789141
0.0446346
-0.0231286
0.0557305
0.0453653
0.0273424
0.0379343
0.0386382
0.0937414
0.0248411
-0.144533
0.0397179
0.0453084
-0.0273404
0.0448416
-0.00630723
0.0300528
-0.0261457
-0.0481074
0.0943247
-0.0312915
0.0456702
-0.00907702
0.050035
0.0699296
-0.0236804
0.0195372
-0.0236768
-0.0637064
0.171466
-0.0118924
0.0630588
0.044661
0.0452313
0.0448135
-0.0317616
0.138507
0.0447153
-0.0149329
-0.0198404
0.0146286
0.00211044
0.0270418
0.108006
-0.0295543
0.0518805
0.0119885
0.0244706
0.0459644
0.0459896
0.0476587
0.0514252
0.0121685
0.0455227
0.049218
0.0526639
0.0716172
0.000521174
0.0454826
-0.0190735
0.045161
0.00394223
0.0140237
0.0481023
0.0405941
0.00110547
-0.0203713
0.0352199
0.0765769
0.051085
0.0259184
0.0311838
0.0453388
0.0500954
0.0508288
0.0481842
0.0453612
0.067323
0.0453413
0.124675
0.012525
-0.0908048
0.0454271
0.0572378
0.0455658
0.0461204
0.120959
0.0563849
0.0449079
0.317957
0.133175
0.036573
0.0624532
0.0378188
0.119479
0.0192725
0.00835011
0.0548833
0.0525678
0.045278
0.0476314
-0.0120239
0.0449324
0.0477208
0.121821
0.0483797
0.0501746
0.0276546
0.0454962
-0.0356749
0.0454692
0.0476541
0.00772081
0.00899844
-0.0714482
0.109044
0.0681947
0.0479376
0.00692713
0.0478628
0.0246628
0.00631317
0.0524644
-0.027494
0.0462022
0.0253354
0.0679805
0.0516691
0.0996818
0.0453874
0.0524074
0.0452556
0.0285322
0.0448257
0.0524582
0.0237976
0.0428177
0.0683864
0.0263974
0.0453208
0.0262502
0.0119031
0.0523484
0.00816379
-0.0137792
0.0452813
0.0300219
0.108957
0.00235194
0.053586
0.0427093
0.042791
0.0246255
0.0543111
0.150287
0.0519131
0.0458231
0.0458479
-0.0218095
-0.00867785
-0.0224104
0.284333
0.0989299
0.0496721
0.0254777
0.0104292
0.0461984
-0.059436
0.0505784
0.10298
-0.0005239
0.0477226
0.142904
-0.00846115
-0.0168557
0.0225234
0.0284745
0.0460948
0.0447325
0.0599227
0.0453096
0.0452872
0.135626
0.0485602
0.0613921
0.0447026
0.0365739
0.0437163
0.370233
0.0384902
0.0404031
-0.00946418
0.102299
0.0929448
0.033234
0.108093
0.0459795
0.0450044
0.00444655
0.0715302
0.122813
0.0472224
-0.000620354
0.0393403
0.0494724
0.0492084
0.0455547
0.0636062
0.0385426
0.0458998
0.0292144
0.258464
0.0460394
0.0114007
0.0309724
0.0454018
0.0603821
0.0486277
0.0266003
0.0456982
0.0454723
0.0149629
0.028467
0.0896619
0.140845
-0.228774
0.0522573
0.0620371
-0.0390982
0.0320324
0.0485494
0.039352
-0.000878731
0.0453821
0.0497581
0.0452715
0.0292178
0.0638787
0.0184202
0.0453526
0.0583499
0.0331143
0.0511019
0.118066
0.0421465
0.0450201
0.0453514
0.0285812
0.0223095
0.309325
0.0576065
0.0805119
0.00559657
0.00432411
0.0451957
0.098388
0.0453673
0.0453366
0.0459768
-0.00236473
0.0514404
0.0339658
0.00666438
0.0193698
0.00588813
0.0291982
0.0632878
0.112647
0.0436792
0.0113427
0.0898572
0.0317412
0.126437
0.0501533
-0.151997
0.141828
0.13361
0.0446473
-0.111755
0.00532465
0.00741006
0.136074
-0.000385063
0.0564051
0.0528862
0.036764
0.034812
0.0323508
0.210951
0.0729428
0.0505044
0.0138553
0.0509924
0.0348384
0.0235605
0.0917731
0.0345681
0.0659617
0.0817324
0.00572447
0.0956445
0.0307909
0.0463122
0.057138
0.0456765
0.0437631
0.0437298
0.0509497
0.0186042
-0.0495201
0.0452707
0.164978
0.044538
0.0383877
0.00989368
0.0293542
0.0324853
0.0434533
0.00705451
0.0117097
0.250952
0.0453722
0.00891899
0.0353113
0.0131556
0.0459877
0.0455902
0.149393
0.0233016
0.0316622
-0.122435
0.0257136
0.0382865
0.135385
0.0147688
0.119368
0.0522149
0.0183534
0.0357546
0.0429185
-0.0282417
0.00683944
0.0191518
0.0321985
0.0448083
0.00591608
0.00555768
-0.000961818
0.0376082
0.0360648
0.417571
-0.0390641
0.0444734
-0.0136455
0.0203583
-0.107155
0.0452444
0.0308952
0.0315737
0.0452189
0.00356099
0.0274227
0.0503528
-2.57002e-05
-0.0231623
-0.00144581
0.0530145
0.0229093
0.0460364
0.0415932
-0.0252815
0.0812992
0.0282961
0.00670947
0.145833
0.0238893
0.0196676
0.0208353
0.00706939
-0.0277905
0.043576
0.021285
0.0161523
0.090924
0.279073
0.012787
0.033952
0.0206807
0.0452379
0.091348
0.0305442
0.00875665
0.0451401
0.0344278
0.00623211
0.0134777
0.147671
0.0102138
0.0293619
0.0286213
0.0511664
0.00306307
0.0261841
0.0727278
0.0569921
0.0530829
0.0100626
0.0350302
0.0401531
0.0367802
0.0455639
0.00606043
0.0607898
0.0288509
-0.00413555
-0.0453982
0.0401797
0.0277798
0.0166447
0.0234959
0.0453791
0.0981302
0.0972248
0.0712146
0.0459665
0.22843
0.00667354
0.0520178
0.0882297
0.0447458
0.0545618
0.0319218
0.0256446
0.0532509
-0.10335
0.0469927
0.0569022
0.0408817
-0.0120427
-0.0305622
-0.000530544
0.0608379
0.00898427
0.0460072
0.0285693
0.0729457
0.0470251
0.148706
0.0171351
0.0270669
0.00807828
0.0643124
0.0216877
0.0369549
0.0449618
0.0450974
0.0455973
0.0609146
0.122303
0.0161453
0.145779
0.0817241
0.0881712
0.0477124
0.0673729
0.00688178
0.0454491
-0.024585
-0.0195039
0.0490435
0.0453237
0.0377954
0.0432585
0.0450823
0.0627801
0.0333837
0.130822
0.0164418
0.0344371
0.0873493
-0.010996
0.00542573
0.0853357
0.0134516
0.0237506
0.0692377
0.044833
0.0601392
0.027641
0.120979
0.128049
0.218811
0.0451315
0.125648
0.0319771
0.0311167
0.103204
0.105941
0.0987204
-0.0247611
0.0206541
0.0662227
0.0212135
0.0377559
0.044838
0.0896271
0.0447042
0.016823
-0.0297572
0.0568611
-0.0256396
0.0443366
0.0822898
0.0519174
0.0304096
0.100973
0.162437
0.0206432
0.041377
0.0173259
0.032803
0.0704451
0.000108203
0.0805481
-0.00237834
0.0451496
0.0210879
-0.140677
0.0979176
0.0347664
-0.0418923
0.00989183
0.0401235
0.0440307
0.10312
0.0917941
0.0330471
0.0559435
0.0472672
0.00578011
0.041718
0.0040049
0.0794759
0.0348181
0.140888
0.045145
0.0422935
0.00456582
0.0360403
0.0366152
0.0639371
0.0539515
0.0292982
0.166226
0.1062
0.0449197
0.00525422
0.0413061
0.0448769
0.132021
0.0448697
0.0218996
0.0245601
0.0446616
0.0448605
0.0495729
0.00752116
0.0590542
0.0962115
0.0276138
0.128968
0.0316088
0.0326423
0.0362228
0.0768637
0.0454126
0.0380905
0.0358991
0.0264606
-0.0217981
0.00944598
0.0641781
0.043645
0.0533744
0.031001
0.0408103
0.0588433
0.0221189
0.105074
0.0314294
0.0449092
0.00836845
0.0852769
0.00732395
0.0451635
0.134001
-0.0235856
0.0427485
0.0966812
0.00583479
0.0500713
0.0951643
0.00318964
0.0875909
0.112587
0.0039584
0.0467919
0.0770717
0.0745775
0.0136699
0.0421179
0.0308391
0.0451003
0.0454188
0.0448631
0.0138593
0.0174591
0.0201732
0.0807954
-0.0649723
0.167993
-0.0631098
0.0272652
0.0413377
-0.0417404
0.049055
-0.100021
0.0325244
0.0227355
0.0186898
0.0283283
0.0631963
0.0386893
0.0318726
0.0512618
0.0451254
0.0758274
-0.0384529
0.0141884
0.00650707
0.0177437
0.0495422
0.0273007
0.0166042
0.0516323
0.0239401
0.0368654
0.117636
0.0841509
0.079406
0.0916441
-0.00171233
-0.000100183
0.00590377
0.0230826
-0.00446062
0.0154743
0.0566757
0.0420443
0.129892
0.0718992
0.00688813
0.0456192
0.0940158
0.125796
0.0723919
0.0778234
0.0544186
0.0170232
0.112938
0.0286596
0.0234199
0.0331295
0.0324151
0.0442986
0.0280131
0.0290501
0.0511417
0.0204107
0.0295198
0.0412573
0.102982
0.0416238
0.039769
0.0738286
0.0535248
0.0445671
0.0479853
0.00235805
0.0164063
0.0461539
0.0701909
-0.0525403
0.00657234
0.0533827
0.0197499
-0.0196268
-0.0409033
-0.00544707
0.032979
0.0339473
0.0521837
0.0326036
0.0252445
-0.000278112
-0.00122298
0.00273693
0.00089609
0.0338757
0.0439593
0.0436536
0.127746
0.0598256
0.0338341
0.0367639
-0.000328875
0.0423194
0.0268478
0.148259
0.0855244
0.0112218
0.0511296
0.0166713
0.0447062
0.00837838
0.000775444
0.0275503
0.0448317
0.0566801
0.165352
0.0390351
0.0870368
-0.0170585
0.0452374
0.0338915
0.0926814
0.0997792
0.0682789
0.0464038
0.0422032
0.043352
0.0459009
0.0449401
0.0397635
0.00729317
0.0447932
0.0540885
0.0506987
-0.342286
0.117577
0.043444
0.0451246
0.0106555
0.0170219
0.023097
0.0750449
0.0180643
0.044154
0.0395676
0.0048264
0.0458065
0.0146666
0.0912693
0.0693922
0.0433086
0.0128066
0.0455188
0.0380888
0.0362918
0.0389971
-0.00305326
0.0578164
0.0341232
0.0326243
0.109194
0.079559
0.0446706
0.0452853
0.0350825
0.0313684
0.0143084
0.0205074
0.0386327
0.00743608
0.0782332
0.0459393
0.0362452
0.00626953
0.0379416
0.0830256
0.0615305
0.0486838
0.149899
0.0220399
0.124045
0.138869
0.0273308
-0.00247878
0.000199259
0.124256
0.0377623
0.00616848
0.0726255
0.035174
0.022418
0.0884683
0.0702718
0.0482367
0.0028235
0.0309499
0.0279695
0.0392532
0.00637443
0.0472898
0.0784896
0.0470787
0.0555357
0.0840929
0.0519576
0.0395069
0.104701
0.00760867
0.0895259
0.0285573
0.0701108
0.00869261
0.0595587
0.0120267
0.0467054
0.0302767
0.00968239
0.0654117
0.026731
0.0466559
0.040562
0.0157881
0.0446696
0.034051
0.0543333
0.035447
0.0225753
-0.00115109
0.0939263
0.102678
0.0989368
0.0396622
0.0383324
0.0343969
0.0193014
0.0283935
0.0456256
0.0516169
0.0680788
0.0243946
0.0568264
0.00484891
0.0308341
0.0550299
0.0323476
0.031763
0.0424748
0.0297935
0.0363013
0.132993
0.258743
0.0225539
0.0272697
0.0294082
0.031268
0.0367808
0.0347912
0.0335402
0.0227909
0.0138612
0.0436591
0.0451061
0.0439769
0.00638902
0.0452133
0.0292151
0.0399448
0.0303931
0.0575398
0.0331513
0.121823
-0.00737204
0.0447523
0.034351
0.0893705
0.0400613
0.0587324
0.0883621
0.0505061
0.0450856
0.0292613
0.00638902
0.0850812
0.00356022
0.113557
0.0820248
0.00391984
0.0607812
0.0665323
0.0117161
0.0412314
0.0452198
0.0466417
0.0353134
0.0445494
0.0316712
-0.038307
0.0436026
0.0780126
0.0415129
0.0599243
0.0606429
0.160685
0.0518943
0.0404069
0.00558747
0.0141544
0.0851252
0.0306451
0.0815611
0.046557
0.0365363
0.0628795
0.0441591
0.0321625
0.0459467
0.0465958
0.0310546
0.0445188
0.033767
0.0598092
0.0792851
0.0152938
0.0442226
0.00716561
0.00138191
0.0655778
0.0591534
0.0479874
0.06634
0.130613
0.0450858
0.0392456
0.0443597
0.0585871
0.0372381
0.0345178
0.0375528
0.0716503
0.0815883
0.0318128
0.0775613
0.0880339
0.0579704
0.106909
0.0557335
0.0767956
0.0268038
0.040744
0.0218163
0.0460459
0.0626435
0.0469703
0.0813842
0.00211265
0.0528679
-0.012648
0.0414492
0.0265104
0.116291
0.00799485
0.0445217
0.0447082
0.00479763
0.106021
0.0267664
0.0290958
0.0164022
0.0432106
0.080146
0.0364496
0.0432762
0.035068
0.00881053
0.0398823
0.0387713
0.392816
0.0375056
0.0470162
0.0568295
0.0623884
0.0410277
0.031203
0.04512
0.100762
0.0416278
0.0450972
0.0141999
0.0356394
0.0288995
0.0397383
0.0610445
0.0396042
0.0425298
0.0418633
0.0331576
0.0784044
0.0451424
0.03747
0.0558707
0.0437478
0.0377445
0.0519997
0.052627
0.0573657
0.0576864
0.0452297
0.0412643
0.0481883
0.0287009
-0.00160873
-0.000710331
0.144572
0.0725704
-0.00991075
0.0306168
0.0446955
0.0482948
0.055996
0.0720262
0.0456091
0.02758
0.0743832
0.0550501
0.0258575
-0.0100736
0.0214318
0.0445244
0.0362728
0.0449496
0.0922954
0.232089
0.0376643
0.0550955
0.0418882
0.00676121
0.0447115
0.0704747
0.0272377
0.042876
0.045785
0.0327057
0.0949546
0.0375864
0.0543135
0.0255386
0.0405146
0.0414761
0.0857483
0.0588118
0.0384069
0.0476392
0.0372858
0.0515987
0.0366243
0.0455135
0.0381468
0.0447711
0.0517761
0.0114056
0.0661796
0.0160589
0.0720597
0.0714953
0.0499452
0.0371267
0.0344443
0.0754205
0.0900647
0.0104574
0.0394719
0.0556258
0.055859
0.0386431
0.0435956
0.041679
0.0363126
0.0276982
0.0277874
0.0413413
0.0146996
0.0375346
0.0772762
0.0392592
0.041176
0.0383948
0.0236777
0.0820273
0.0513708
-0.00064088
0.037425
0.0388312
0.0107436
0.0484493
0.000809962
0.0478441
0.03929
0.0445065
0.0438738
0.0462225
0.040375
0.00491555
0.0451119
0.0209396
0.0698503
0.0479472
0.0557105
0.032726
0.0943856
0.0582792
0.0456247
0.0340181
-0.0670062
0.045295
0.00589538
-0.0811182
0.0635004
0.0833281
0.0494753
0.039609
0.0293055
0.0692525
0.0563729
0.0456717
0.0904181
0.0111243
0.0799165
0.0451562
0.0443677
0.0414211
0.0419629
0.042466
0.0639007
0.0752472
0.044067
-0.00140262
0.0421574
0.0500461
0.0400364
0.0317508
0.000400442
0.0444905
0.0393792
0.023714
0.0384705
0.0441842
0.0479494
0.126334
0.072011
0.0457088
0.0605409
0.0508951
0.039485
0.0740059
0.0573167
0.0417967
0.0608238
0.0356422
0.0604012
0.0832279
0.00190032
0.0234919
0.0458218
0.0680073
0.0441306
0.0481049
0.0468529
0.0403673
0.00162155
0.000428865
0.0563767
0.0329694
0.0344048
0.0274331
0.0443579
0.0435996
0.0457257
0.0697505
0.0339834
0.0451997
0.0393098
0.0515322
0.0232064
0.00928837
0.0452536
0.0446412
0.0352977
0.045623
0.0437625
0.0406972
0.0425913
0.0379606
0.0635803
0.059419
0.0334598
0.0430533
0.0499302
0.0567975
0.0393313
0.0451288
0.0409583
0.0305232
0.00121361
0.00578161
0.034733
0.121409
0.0397295
-0.0600219
0.0866829
0.0391705
0.0383108
0.0506834
0.045596
0.0452636
0.052585
0.0543093
0.0391403
0.0472068
0.0441835
0.095007
0.00554584
0.0328701
0.0454162
0.0520268
0.060234
0.0680196
0.0320205
0.0479055
0.0450423
0.0433912
0.0401291
0.0284657
0.0263331
0.00532792
0.0594458
0.0435402
0.0380296
0.0536711
0.050466
0.0495289
0.0421935
0.0554494
0.045227
0.0154125
-0.00244306
0.0441213
0.0640924
0.0388685
0.0420655
0.0433791
0.0467935
-0.0475812
0.0610459
-0.000186164
0.0411994
0.00902287
0.0492104
0.0686405
0.126072
0.0524335
0.0454639
0.0302086
0.0230352
0.109426
0.0384608
0.0646723
0.0423818
0.0446796
0.0632319
0.0425496
0.120678
0.000234906
0.0769678
0.0489862
0.0446823
0.045191
0.0442966
-0.0265839
0.0370134
0.0445341
0.0530064
0.0432019
0.04472
0.0443178
0.0107861
0.00362684
0.0512525
0.0442601
0.0799088
0.0530389
0.0998574
0.383574