/*--------------------------------*- C++ -*----------------------------------*\
  =========                 |
  \\      /  F ield         | OpenFOAM: The Open Source CFD Toolbox
   \\    /   O peration     | Website:  https://openfoam.org
    \\  /    A nd           | Version:  7
     \\/     M anipulation  |
\*---------------------------------------------------------------------------*/
FoamFile
{
    version     2.0;
    format      ascii;
    class       volScalarField;
    location    "0.825";
    object      p;
}
// * * * * * * * * * * * * * * * * * * * * * * * * * * * * * * * * * * * * * //

dimensions      [0 2 -2 0 0 0 0];

internalField   nonuniform List<scalar> 
12359
(
0.0609698
0.0702932
0.0439368
0.103781
0.064647
0.150938
0.183359
0.165133
0.221913
0.138951
0.204489
0.272757
0.485355
0.110595
0.0989072
0.394482
0.438109
0.0486983
0.0482918
0.0834304
0.119424
0.248087
0.0767288
0.0889497
0.0731017
0.0797619
0.0452017
0.0450601
0.0475897
0.0457363
0.0461869
0.0445096
0.0441398
0.0455089
0.0439857
0.046393
0.054088
0.0593075
0.0628552
0.0566456
0.0682441
0.0578613
0.051585
0.0508552
0.0469122
0.0472136
0.0466668
0.0459677
0.0479365
0.0453292
0.0449157
0.0447657
0.0444128
0.0491474
0.0443193
0.0441684
0.0502488
0.0441079
0.0440917
0.0440342
0.0442124
0.043962
0.0448133
0.512001
0.0496431
0.128685
0.0532634
0.0446627
0.0549059
0.342727
0.529954
0.0664334
0.0439301
0.0557644
0.0943828
0.0439843
0.0444116
0.0439511
0.0524465
0.312843
0.122013
0.0394985
0.0428324
0.0465465
-0.0626226
0.0220823
0.0393874
0.0410443
-0.0697448
-0.0563475
0.043688
0.468261
0.0436443
0.0443306
0.0451504
0.00564064
0.0436826
0.0444373
0.0545935
0.0508358
0.104169
0.0438191
0.0228552
-0.128909
0.0378478
0.0121155
0.0425223
-0.0614569
0.0265085
0.0125713
0.04371
0.0396325
0.10611
0.0869828
0.0453934
0.0396813
0.0887691
0.0384792
-0.0749914
0.0428866
0.043798
0.17258
0.0408656
0.00492203
0.0382791
0.0392086
0.0350499
0.0464017
0.0439388
0.0380817
0.0399595
-0.0027269
-0.00403832
-0.0029464
0.0425938
0.00632805
0.0396644
0.0064374
0.0438517
0.0355981
0.0430614
0.0623678
0.0138586
0.0425568
0.00698168
0.143319
0.0428375
-0.0480059
0.037715
0.12295
0.00157699
0.0438348
0.013936
0.040803
0.0435826
-0.179237
0.105616
-0.0018655
0.0437796
0.044597
0.0429037
0.044646
0.00386725
0.0111611
0.0428174
0.0392602
0.0440497
0.171117
0.0128165
-0.0727096
0.043955
0.0439753
0.0116418
0.0731733
0.0377883
0.0391538
0.047561
0.0473595
0.108316
0.0397488
0.111204
0.0435607
0.0439408
0.0391802
0.0534628
0.204753
0.0395663
0.0441839
0.00314902
0.0394014
0.0444796
0.00473835
0.00982554
0.0407198
0.0112363
-0.137524
0.0303635
0.0404322
0.0142955
0.0386716
0.147611
0.00255418
0.0517805
0.0120766
0.0103718
0.0435375
0.00919416
0.0524244
0.00191961
0.0381871
0.043233
-0.000165306
-6.59633e-05
-0.546324
0.201789
0.0438548
0.0399267
0.045345
0.0398483
0.0632334
0.0972028
0.0381934
0.00497425
0.470908
0.0379553
0.0432087
0.0639171
0.0268561
0.0426147
0.0412416
0.0411055
0.0428205
0.00764116
0.0522192
0.0437897
0.051316
0.0428773
0.0131716
0.0438754
0.290238
0.0427805
0.0204497
0.0438674
0.0509688
0.0418661
-0.0488429
0.0440719
0.00193917
0.0378915
0.0105685
0.00154156
0.0586865
0.0469685
0.0414872
0.322491
-0.58951
0.0428948
0.0378986
0.39871
-0.0500925
0.0513975
0.0428418
0.0425712
0.0112379
0.0713279
-0.467339
-0.069714
0.0416066
0.0381306
0.00673004
0.0117432
0.0572795
0.0127969
0.041638
0.0380316
0.0428014
0.038078
-0.121395
0.0404301
0.0424028
0.0438061
0.0106583
0.0361161
0.0534011
0.0206092
0.0429737
0.0445115
0.0438272
0.0438066
0.0445482
0.00391082
0.0389843
-0.462659
0.0425448
0.042515
0.0232108
0.038117
0.0972261
0.0449787
0.0449663
0.043711
-0.108635
0.0418053
0.0437112
0.0402259
0.044668
0.0375035
0.0394211
0.0397069
0.0381417
0.0487151
0.202871
0.0372667
0.0462996
0.059278
0.0205743
-0.0569812
0.0367159
0.0552337
0.368356
0.043795
0.0179599
0.0423583
0.0305611
0.0425464
0.0364607
0.22174
0.0172176
0.202704
0.0529205
0.0434589
0.0090794
0.00445466
0.0434585
0.00845508
0.0100081
0.0419591
0.0442964
0.0442966
0.0443587
0.0443468
0.285722
0.0429526
0.101088
0.000724379
0.0522937
0.0124486
0.0171933
0.0238695
0.0313465
0.0164522
0.0318236
0.0541292
0.0185379
0.0197863
0.0890979
0.0632557
0.0123762
0.0614671
0.0612227
0.0148875
0.101262
0.0399969
0.0443962
0.029086
0.0443602
0.0398486
-0.195966
0.499329
0.0400195
0.0438916
0.0426192
0.043427
0.0163199
0.0435907
0.0435688
-0.0797592
0.0116997
-0.0510543
0.041928
0.00952166
0.0360565
0.0441566
0.0144182
0.0287683
0.107471
0.0290446
0.0402303
0.042385
0.011232
0.0088889
0.0371833
0.291918
0.0140712
0.00478303
0.0472809
0.0442046
0.0438653
0.38655
0.0105397
0.0420253
0.0587744
0.0602824
0.0430828
0.0430445
0.0433553
-0.0599449
0.0955365
0.0563459
0.0169972
0.00144256
0.0454022
0.111179
0.0467182
-0.000129487
-0.0609221
0.297098
0.0512166
0.0888815
0.0263592
0.0205145
0.0329654
0.0287807
0.0457998
0.0329156
0.0143871
0.0435981
-0.0498535
0.0539497
-0.00601093
0.00792946
0.0506582
0.092939
-0.151659
0.0159694
0.0366443
0.00382767
0.00761913
0.0172039
0.0388494
0.0432862
0.0497653
0.0425537
-0.00327347
0.0398923
0.0794447
0.082468
0.0342966
-0.0589674
0.101869
0.050443
0.0425573
0.386867
0.0420373
0.0417925
0.0036508
0.0438968
0.0424461
0.0417375
0.234124
0.200142
0.0460402
0.0411842
0.106711
0.04558
0.0171557
0.0137175
0.0124235
0.0419103
0.0434107
0.0451897
0.0437264
0.0820793
0.0177925
0.0199375
0.0471502
0.0487745
0.00121977
0.0458869
0.0430987
0.0370789
0.117577
0.00301717
0.0438332
0.0451062
0.0109292
0.0288352
0.0460817
0.0393881
0.109382
0.0173601
0.00694609
0.0190183
0.0418448
0.0432787
-0.00735851
-0.00458897
0.043719
0.0341351
0.046661
0.00413694
0.282507
0.0433308
0.0401049
0.042015
0.0132448
0.0504427
0.049255
0.0393248
0.0465897
0.0277967
0.0721772
0.0350273
-0.0374627
0.0424597
-0.0436863
0.0410992
-0.125521
0.0170202
-0.00455642
0.0440886
0.0469487
0.0200433
0.0391605
0.0448964
0.0519471
0.0505788
0.0508579
0.0685026
0.0125585
0.0120575
0.0428518
0.038827
0.0175233
-0.0036051
0.0428597
0.0423903
0.0110999
0.0420105
0.222802
-0.158147
-0.101707
0.0428593
0.037847
0.000932154
0.0494575
0.0380428
0.45797
0.0424699
0.109128
0.0851987
0.037687
0.0379545
0.0450385
0.0346548
0.000170657
0.0280573
0.0477639
0.0429012
0.0439445
0.050239
0.0476156
0.0523919
0.0128357
0.0446089
0.0424414
0.0188598
-0.0772195
0.0461425
-8.45388e-05
0.0426534
0.0482736
0.0907553
0.000717388
0.0017018
0.0932164
0.0426773
0.00147522
0.0431291
0.0440233
0.00145855
0.034102
0.0421706
0.03413
0.043491
0.0424037
0.0386813
0.046149
0.00144235
0.100097
0.0543471
0.114335
0.0144666
0.0366482
0.108992
0.0591125
-0.00474205
0.0123331
0.0602055
0.051296
0.0440328
0.0350768
0.0191752
0.0428387
0.0439077
0.0419096
0.0440797
-0.0178616
0.0345449
0.0318955
0.101258
0.0522101
0.233321
0.00395984
0.0015029
0.0383669
-0.00306441
0.0434714
0.0471927
0.0430233
0.101684
0.111768
0.0429529
0.0281866
0.228588
0.0145012
0.00383033
0.0354283
0.0626515
-0.133061
0.0415106
0.0454273
0.0435125
-0.0120339
0.0453028
0.0288978
-0.0581758
0.0424338
0.0733497
0.0541121
0.0382813
0.0464209
0.0432422
0.0444126
0.0499152
0.0444688
0.0443376
0.0490188
0.00545028
0.00935785
0.0382036
0.330597
0.000834047
0.414421
0.0154882
0.021405
0.0494657
0.0167761
0.0532495
0.00676661
0.314241
0.0952681
0.052435
0.0407133
0.049005
0.0475649
0.0196059
0.0432837
-0.00554498
0.0445049
0.0962906
0.0454755
-0.0158793
0.00663155
0.0103974
0.0529928
0.0358093
0.00716257
0.0738962
0.00351351
0.0375187
0.00173597
0.0400265
0.0429176
0.0467518
-0.215283
0.0676212
0.0377622
0.042804
0.0447172
0.0498578
0.0789412
0.00916331
0.0164758
0.0419042
0.0391625
0.0520236
0.037658
0.0354391
0.000801972
0.0506362
0.0541805
0.00825917
0.0390111
0.0365199
0.10049
0.0428519
0.050977
-0.265288
0.0440665
0.00589668
0.0483437
0.0369096
0.0856247
0.00889262
0.0476955
0.0171127
0.0438677
0.10807
0.0372908
0.0110507
0.00997547
0.109289
0.0437127
0.000980685
-0.00599143
0.053154
0.0390128
0.0386558
0.0335453
0.233903
0.0484238
0.0438664
0.0513836
0.0436128
-0.13111
0.0389817
0.00781225
0.0291936
0.0166679
0.521462
0.0388011
-0.0590856
0.00968668
-0.0853904
0.0167676
0.0476103
0.0386234
0.0291397
-0.0503646
-0.0385413
0.0412891
0.040991
0.114833
0.0401875
0.206189
0.0181837
0.0668493
0.0390485
0.390127
-0.107075
0.0394567
0.0429268
0.0435006
0.0902899
0.0499479
0.0545561
0.047394
0.013659
0.0733434
-0.0203196
0.348327
0.0419124
0.0793476
0.0126042
0.116593
0.0402301
0.109867
0.00682782
0.0915935
0.0466759
0.0428087
0.0081851
0.00562431
0.0176077
0.114435
0.0103288
0.0215758
0.0478553
0.0431176
0.0352369
0.244423
0.0352164
0.0105167
0.0629964
0.0183308
0.033757
0.0482189
-0.00516448
0.0297991
0.0397248
-0.00953139
0.0544988
0.0243257
0.193587
0.042901
0.0294875
0.0463628
0.0519288
0.0393781
0.0473804
0.0428441
-0.00107177
0.0370144
0.0735283
0.0106941
0.0915011
0.0284098
0.0290415
0.0088814
-0.194038
0.0440518
0.0511853
0.0215155
-0.0738149
0.00587767
0.0435919
0.509104
0.0428175
0.0378495
-0.16984
0.0496836
0.0439989
0.04411
0.0617244
0.0857468
0.0440777
0.0509014
0.104587
0.0470078
0.0492529
0.0478535
0.0415288
0.0870495
-0.0186664
0.0499992
0.112509
0.00965607
0.00834343
0.00344383
0.0136877
0.0477947
0.037786
-0.0435547
0.0043082
0.0692756
0.0428228
0.0441111
0.11365
-0.00279501
0.0307693
0.0354572
0.0304769
0.0473884
0.0384187
0.0802509
-0.236944
0.370165
0.0787843
0.0461077
0.0383474
0.0761807
0.352712
0.107321
0.0436083
-0.000964182
-0.0145063
-0.24568
0.0330904
-0.16803
0.0440795
0.0477441
0.0441302
0.00383701
0.0711196
-0.17036
0.036826
-0.0879528
0.0399087
0.0466604
0.0095798
0.0491509
-0.000326527
-0.0427066
0.0505367
0.0332297
0.0221577
0.0334475
0.0503341
0.0725463
0.0688662
0.0283339
0.0756149
0.0505135
0.0441776
0.0486503
0.04476
0.100917
0.0198439
-0.00929439
0.000499039
0.0817358
0.0223757
0.0208475
0.0389818
-0.0131664
0.0312361
0.049747
0.0435285
-0.00164239
0.105237
0.0368567
0.0369053
0.0517596
0.0213492
0.0992755
0.111846
0.0214164
0.249136
0.0201069
0.0829362
-0.0399827
0.0488335
0.0155667
0.00982545
0.0407034
0.0310813
0.0348465
0.0402897
0.0431233
0.0397179
-0.0156911
-0.00306339
0.038849
-0.146148
0.0967145
0.0446553
0.0478914
0.000433937
0.0445414
0.0746667
0.0118392
0.00237046
0.0444714
0.0471523
0.0438359
0.0445391
0.114102
-0.139659
0.0448376
0.0538856
0.0428706
-0.149868
0.0194856
0.0131504
0.0425495
0.0447217
0.0477402
0.0227461
0.081466
0.0257887
0.0428222
0.047742
0.0444123
0.0188595
0.081091
0.0349133
0.0438985
0.0281574
0.0229679
0.0712792
0.0389473
-0.0184655
0.141477
0.0405896
0.0301228
0.0475401
0.0396351
-0.186747
0.0503143
0.044702
0.0101522
0.101404
0.0783496
-0.141411
0.0719499
0.0321181
0.0252276
0.0516528
0.0360221
0.0317977
0.0509191
0.142978
0.0458406
-0.328534
0.079375
0.176447
0.0360323
-0.0055562
0.0924107
-0.00227008
0.259608
0.00658254
0.0235129
0.0312486
0.0354563
0.0428242
0.0398525
0.0846126
0.000699251
0.0510837
0.0405671
0.00615472
0.0154176
0.00482548
0.0765856
-0.000769576
0.0044818
0.0429773
0.0667541
-0.0501467
0.0839747
0.0427974
0.0322319
0.048431
0.0428115
0.0653399
0.0440607
0.0399855
0.243191
0.0882578
-0.0186991
0.044109
0.0436827
0.043635
0.051179
0.0482622
-0.00252283
0.0484027
0.0435854
-0.0193576
0.0196565
0.00399447
0.0647544
0.0469991
0.037216
0.0880056
0.0316783
0.0441409
-0.0443563
0.00997676
0.107259
0.0447867
-0.239217
0.0934963
0.0469513
0.00240584
0.0357941
-0.0164556
0.0326552
7.07784e-05
0.0900231
0.0460886
0.045993
0.019639
0.0369851
0.0499679
-0.00854077
0.0498547
0.0499531
0.0931441
0.0401853
0.0477444
0.0324879
0.00889871
0.0466476
0.0499015
0.0481312
0.0426973
0.0919032
-0.0434739
0.0239251
0.0512184
0.0496536
0.0370081
0.0432935
-0.197337
0.0754938
0.0438227
0.0672231
0.0371092
0.095625
0.149984
0.00065848
0.0501336
0.00365075
-0.00352352
0.0425296
0.0372174
-0.00229199
0.037691
0.0438841
0.0683076
0.0249529
0.0490297
0.043918
0.0381914
0.0809181
0.0445939
0.0290636
0.0440694
0.0346229
0.0629118
0.127948
0.0433912
-0.199855
0.0763606
0.0132876
-0.124111
0.0885619
0.0290646
-0.032478
0.0516984
0.137603
0.204028
0.0495733
0.0400813
0.0400033
0.0466152
0.0484104
0.00606852
-0.0804803
-0.154417
0.00782301
0.144921
-0.00673919
0.00927841
-0.0547945
0.0434159
0.0468779
0.0443319
0.0226566
0.0435937
0.00727228
0.0331698
-0.00742121
0.0429371
0.0468245
0.0410158
-0.15911
0.115192
0.0744435
0.0567823
0.117522
0.0402305
0.0447304
-0.0192298
0.032987
-0.0143817
0.00652153
0.019828
0.0028628
0.0138957
0.0520161
0.0428996
0.0433879
-0.12642
0.0383519
0.0357151
0.0500351
0.00307471
0.0163649
0.0434429
0.0179684
-0.0164463
-0.000111074
0.0904138
0.0491483
0.0438054
0.00380363
0.0514275
0.0435021
-0.00258108
0.00589647
0.0478349
0.134388
0.000842357
0.0435796
0.0439571
0.042678
0.103242
-0.144036
0.0377858
0.00860041
0.0470798
0.0481706
0.00985088
0.043782
0.176461
0.0138447
-0.0508277
0.150597
0.0278349
0.0433828
0.0432341
0.0302806
0.051575
0.043111
-0.183656
0.00399886
0.0409846
0.215075
0.0977914
0.0371076
0.0428575
0.0440844
0.0490601
-0.0782237
0.157977
0.0305588
0.0735486
0.0622239
0.00476349
-0.0803047
0.0194577
0.0496279
0.0488616
0.0148196
0.0364816
0.0419379
0.0464134
0.00235046
0.0482532
0.0299045
0.0503141
0.0778189
-0.0128495
0.0418518
0.0465258
-0.00510534
0.00258614
0.0538562
0.0460497
0.0726912
-0.000709984
0.0357141
0.0147661
0.069918
0.0156453
-0.0330917
0.048677
0.156057
0.0429877
0.101854
-0.00169302
0.0437826
0.0433723
0.371144
0.0442823
0.0515755
0.0237567
0.0494824
0.0496287
0.0528735
0.0441379
0.0436192
0.000260844
-0.0277185
0.0413147
0.336351
0.0338496
0.0461496
0.230875
0.0955387
0.0513194
0.0409772
0.0459022
0.0839717
-0.275058
0.0493467
0.0411971
0.0428749
0.046617
0.0595098
0.0145288
0.0488314
0.0598448
0.0473694
-0.156122
-0.00839791
0.00711066
0.105912
0.0336372
0.0462454
0.0033404
-0.120354
0.0486884
0.0431155
0.0461604
0.0431427
0.0493986
0.0425706
-0.00385882
0.0406195
0.0378573
0.317527
-0.00123093
-0.00612907
0.00305022
0.0492483
0.000520916
0.083072
-0.092923
0.0425617
0.00923852
0.043766
0.232656
0.0429368
0.0441336
0.0273247
0.0429224
0.0235948
0.0543002
0.049543
0.0424481
-0.0969526
0.0836892
0.00986759
0.046505
0.0329736
-0.0532559
-0.00882764
0.0750726
0.0707899
0.0448044
0.0505937
0.039417
0.0464305
0.0413169
0.0464283
0.0858396
0.0715809
0.00553744
-0.108723
0.0210618
-0.0101849
0.0298653
-0.113443
0.0424929
-0.0316755
0.0462497
-0.0145622
-0.00749531
0.0227677
0.0440434
0.0267253
0.00909609
0.0291464
-0.00441425
0.230217
-0.105447
0.0462337
-0.0046612
0.0431953
-0.0066091
0.0870163
0.00133229
0.0389811
0.0526376
0.00916224
0.0471954
0.0335146
0.0444981
0.0419813
0.0430473
0.0505242
0.00557639
0.00114802
0.0435209
0.0799051
-0.0862352
0.481445
0.042671
0.069238
0.0239186
0.191134
0.0287825
-0.185288
-0.038023
0.0422316
0.0221843
0.0635008
0.173541
0.0451041
0.0634063
0.0751
0.0410202
-0.091686
-0.00543734
0.0460806
0.0220055
-0.0346314
0.0724105
-0.091927
0.0342501
0.0761058
0.0494666
0.0426411
0.0510614
0.040382
-0.0766705
-0.000462604
-0.0675556
0.0446109
-0.0871597
0.0272039
0.00165598
0.106909
0.0225346
0.0252229
-0.0579415
0.0340768
0.0338937
0.00437258
0.0665851
0.023267
0.007146
0.0654216
-0.0930795
0.0815174
0.0317968
0.084621
0.0444156
0.109728
-0.000460132
0.0970387
0.0486744
-0.0376834
0.043493
0.0307789
0.00781818
-0.00114185
0.0525322
0.00497624
0.0421171
0.505046
0.0502104
0.00478233
0.087007
-0.000287244
0.00607794
0.0443866
0.0287065
0.0431608
0.461467
0.0435217
0.0433343
0.0426805
-0.0157252
0.037944
0.0408518
-0.0100725
0.0252212
0.0598652
0.0384504
0.0430981
0.103287
0.0412669
0.100167
0.00546635
0.0813842
0.0361804
0.037287
0.0233388
-0.0158369
0.00767209
0.0394019
0.533338
0.0434948
0.0431848
0.0507652
-0.138486
0.0486492
0.0279433
0.0762436
0.048216
0.0370818
0.00163375
-0.0250007
0.0305261
-0.0485145
0.0491666
0.0405633
0.0129093
0.0174859
-0.000697566
0.0461628
0.0225295
0.0674971
0.190629
0.033706
0.0434341
0.041827
0.174457
0.0439018
0.0439137
-0.0394394
0.0293835
-0.0445305
0.0370885
0.0429448
0.185229
-0.0156662
0.03763
0.0495717
0.041211
-0.11501
0.0439187
0.0309626
-0.0291059
0.0439142
0.0430852
0.00762836
0.0426317
0.043923
0.0121734
0.0476428
0.0432532
0.0189521
0.0427883
-0.0151563
0.042929
0.0542997
0.115529
0.0069787
0.0439308
0.00358778
-0.177607
0.0369139
0.0699299
0.0404287
0.0300498
0.0415402
-0.0198028
-0.00726457
0.0409812
0.0430742
0.128144
0.0260373
0.0143182
0.0103375
0.126209
0.0426703
0.00449013
0.0430531
-0.0212931
-0.00832927
-0.00542135
0.00670412
0.152249
-0.0879248
0.00472857
0.00953724
0.0443401
0.0467612
-0.000398305
0.132032
0.0946993
0.0302398
-0.0756717
0.0423773
-0.0664632
0.195539
0.0432585
-0.00913527
-0.0137533
0.0765799
0.00727014
0.00522749
0.0682309
0.0433169
-0.014039
-0.0689875
0.256646
0.049386
0.0019571
-0.0327537
0.13877
0.045682
0.043065
0.00549739
-0.055703
0.036662
0.0657186
0.0433597
0.0426725
0.0535542
0.0490383
0.0228603
0.0499025
0.0430124
-0.0176739
0.0325444
-0.027791
0.0144357
0.0434196
0.0431113
0.138058
0.0488777
0.0759099
0.057268
-0.0465801
0.0767598
0.0424867
-0.0256778
0.0535145
0.0431793
0.0251171
0.0350819
0.036693
0.0907493
0.0230681
-0.157559
0.0377323
0.043135
-0.0290551
0.042626
-0.00861144
0.0282588
-0.0292384
-0.0503645
0.0920861
-0.0335695
0.04347
-0.0105121
0.0478486
0.0676461
-0.025105
0.0178975
-0.0251428
-0.0666517
0.168929
-0.0131652
0.0596037
0.0424996
0.0430326
0.0425991
-0.0333042
0.134955
0.042556
-0.0172512
-0.0208611
0.0130813
0.00106492
0.0251455
0.105586
-0.0301006
0.0497742
0.0106439
0.0228108
0.0437549
0.0437782
0.0454705
0.0492153
0.0101299
0.0433222
0.0470296
0.0504752
0.0694178
0.000482565
0.0433714
-0.0210139
0.0429305
0.00178522
0.0112242
0.0459073
0.038017
-0.000257279
-0.0219497
0.0332238
0.0736364
0.0488935
0.0241565
0.0292907
0.0431268
0.0478763
0.0486565
0.04599
0.0431475
0.065052
0.0431282
0.121402
0.0111156
-0.095108
0.0432264
0.0549148
0.0433666
0.0439839
0.118593
0.054198
0.0427676
0.319769
0.130354
0.0348711
0.0601895
0.0355655
0.11647
0.0174987
0.00695164
0.0525978
0.0503701
0.0430654
0.0455043
-0.0131796
0.0427587
0.0455389
0.118785
0.0462094
0.0479767
0.0249096
0.0433182
-0.0373148
0.0432696
0.0454662
0.00661252
0.00752389
-0.0712773
0.107027
0.0660798
0.0457557
0.00560087
0.0456838
0.0230291
0.00414965
0.0502474
-0.0305598
0.0439901
0.0234927
0.0655401
0.049169
0.097835
0.0431723
0.0502015
0.0430329
0.0264091
0.0426372
0.0501989
0.0219202
0.0407609
0.0660746
0.0247051
0.0431077
0.0243742
0.0102343
0.050162
0.00706099
-0.0156144
0.0430723
0.0280676
0.105744
0.00136281
0.0515007
0.0406684
0.0408026
0.0227585
0.0521402
0.147642
0.0497377
0.0436578
0.0436669
-0.0211775
-0.0109509
-0.023414
0.281438
0.097297
0.0472443
0.0235587
0.00886826
0.0440538
-0.0591592
0.0483711
0.0990974
-0.000486625
0.0455451
0.140302
-0.0103741
-0.0180077
0.0208735
0.0265254
0.0439416
0.0425123
0.057324
0.0430971
0.0430796
0.13394
0.0463827
0.0593168
0.0425523
0.0346498
0.041699
0.370454
0.0364043
0.0384524
-0.0107662
0.0998587
0.0902917
0.031104
0.104857
0.0438458
0.0431409
0.0035732
0.069426
0.119809
0.0450217
-0.000612292
0.0373529
0.0471452
0.0469913
0.0433791
0.0607798
0.0365645
0.0436938
0.0272545
0.254138
0.0438366
0.00984922
0.0289787
0.0432999
0.0581759
0.0464619
0.0245471
0.0435338
0.0432879
0.01328
0.0264412
0.0867507
0.138069
-0.235352
0.0500135
0.0598069
-0.0385554
0.0302738
0.0463784
0.0373908
-0.000924237
0.0431728
0.0475753
0.0430617
0.0273461
0.0608505
0.0167303
0.0431365
0.0561521
0.0311272
0.0489348
0.115011
0.0401211
0.0427988
0.0431389
0.0268454
0.0205998
0.307199
0.0553019
0.0780025
0.00475389
0.00326608
0.0430013
0.0948389
0.0431542
0.043132
0.0437683
-0.00466171
0.0492678
0.0317295
0.00573242
0.017784
0.00469247
0.0272947
0.0607001
0.109193
0.0416046
0.0100858
0.0872754
0.0298573
0.123738
0.0479534
-0.16132
0.13975
0.131195
0.0424414
-0.11769
0.00431366
0.00626347
0.132869
-0.000353562
0.0543407
0.0507065
0.0347561
0.0332743
0.0302371
0.207355
0.0708104
0.0482881
0.0124605
0.0488263
0.0328031
0.0216732
0.0893908
0.0325811
0.0637072
0.0798836
0.00493494
0.0926949
0.0289446
0.0441042
0.054937
0.0436363
0.0415853
0.0415597
0.048755
0.0170848
-0.0484384
0.0431085
0.161328
0.0423759
0.0364596
0.00826277
0.0274228
0.0306535
0.0412933
0.00606452
0.0102455
0.250149
0.0431718
0.00784295
0.0333107
0.0116501
0.0437788
0.0433774
0.146636
0.0214574
0.0296933
-0.127834
0.023862
0.0362611
0.131409
0.0132432
0.116846
0.0500266
0.0164928
0.0337984
0.0408248
-0.0283737
0.00600924
0.0173929
0.0303072
0.0426216
0.00490729
0.00450597
-0.00096888
0.0356258
0.0341736
0.411283
-0.0417216
0.0423001
-0.0138992
0.0185028
-0.110118
0.0430348
0.0290285
0.029677
0.0429957
0.00263864
0.025185
0.0481655
-0.0001071
-0.023554
-0.00155315
0.050718
0.021167
0.0438305
0.0395035
-0.027324
0.07851
0.0261285
0.00572172
0.14299
0.0219716
0.0180276
0.019275
0.00602658
-0.0281202
0.0414133
0.0195701
0.0147713
0.0889471
0.274883
0.0113996
0.0321525
0.0192189
0.0430267
0.0888363
0.0285883
0.00763828
0.0429532
0.0325231
0.00528017
0.0120928
0.144924
0.00899056
0.0271534
0.0269665
0.0489826
0.00201207
0.0241013
0.070616
0.0548477
0.0508687
0.00895628
0.0331225
0.038122
0.034826
0.0433916
0.00513856
0.0585309
0.0270638
-0.00282928
-0.0468714
0.0382858
0.0256577
0.0150262
0.0217363
0.0431649
0.0959727
0.0953087
0.0687274
0.0437619
0.221487
0.00567352
0.0497897
0.085732
0.0425352
0.0524045
0.0299984
0.0240312
0.0502366
-0.10658
0.0448067
0.0546112
0.0388405
-0.0132281
-0.0318482
-0.000446397
0.0587129
0.00785303
0.0438025
0.0267815
0.0705804
0.0448397
0.145889
0.0156722
0.0252243
0.00688722
0.0619881
0.0199101
0.0352459
0.0427609
0.0428557
0.0436206
0.0588696
0.119098
0.0148294
0.143137
0.0794413
0.0853567
0.0455304
0.0653063
0.00598271
0.0432852
-0.0232614
-0.0189335
0.0468448
0.0431124
0.0358481
0.0411141
0.0428572
0.060403
0.0313787
0.127688
0.0147599
0.0326283
0.0849561
-0.0112374
0.00456858
0.0825715
0.0119918
0.0217532
0.0669256
0.0426273
0.0579026
0.0254622
0.118142
0.126105
0.217757
0.0429081
0.123986
0.0300236
0.0291333
0.0998068
0.103677
0.0955187
-0.0251497
0.019056
0.0640557
0.0193459
0.035679
0.0427092
0.0874233
0.0425255
0.0152896
-0.0296761
0.0546441
-0.0267802
0.0421633
0.0795714
0.0497696
0.0281201
0.0989382
0.160611
0.0188649
0.0393165
0.0156333
0.0308395
0.068184
0.000222134
0.0787144
-0.00278701
0.0429252
0.0194425
-0.148142
0.095358
0.0327673
-0.0416444
0.00860158
0.0380885
0.041835
0.0993372
0.0897276
0.0310708
0.0536261
0.0450785
0.0049833
0.0396143
0.0028603
0.0770397
0.0328501
0.138062
0.0429113
0.0402914
0.00138668
0.0341347
0.0345768
0.0616794
0.0517799
0.0272918
0.164623
0.104073
0.042702
0.00424415
0.0392351
0.0426793
0.129724
0.0427205
0.0199905
0.0226703
0.0424752
0.0426779
0.0474671
0.00674476
0.0568922
0.0937958
0.0258641
0.127062
0.0296809
0.0306937
0.0342992
0.0747818
0.0431919
0.0361021
0.0338992
0.0244356
-0.0207341
0.00808282
0.0619035
0.0415567
0.0511449
0.0290855
0.038803
0.0566563
0.0190539
0.102601
0.0296162
0.0427106
0.00740823
0.0831102
0.00649104
0.0429699
0.131172
-0.0247624
0.0406862
0.0943698
0.00478086
0.0479024
0.0930084
0.002134
0.0855863
0.109675
0.0028952
0.0448412
0.0749758
0.0723488
0.0123081
0.0400611
0.0287775
0.0428752
0.0433316
0.0426696
0.0125427
0.0157857
0.018628
0.0786807
-0.061411
0.165704
-0.0585235
0.0254786
0.0389842
-0.0379497
0.046526
-0.103319
0.0304935
0.0210728
0.0170752
0.0263444
0.0609824
0.0366486
0.0299506
0.0491069
0.042928
0.0736447
-0.0356872
0.012731
0.00565504
0.0158621
0.0474572
0.0255577
0.015083
0.0494371
0.0220844
0.0348821
0.114571
0.0821805
0.0770895
0.0888156
-0.00168105
-0.000158296
0.00512327
0.021155
-0.00307713
0.0137526
0.0544909
0.0400664
0.12668
0.0696757
0.00566554
0.0434541
0.0918569
0.12366
0.0700484
0.0756157
0.0521476
0.0154208
0.110571
0.0263333
0.0218285
0.0312131
0.030335
0.0421134
0.0259458
0.0271764
0.0490055
0.018749
0.0275383
0.0391722
0.101092
0.0395975
0.0372091
0.0716653
0.0513359
0.0423781
0.0458411
0.00194777
0.0147901
0.0439444
0.0681111
-0.0495574
0.00562986
0.0511461
0.0179355
-0.0185577
-0.039815
-0.003611
0.0307194
0.0321455
0.0499329
0.0305474
0.0234556
-0.000309852
-0.00126841
0.00119305
0.00064633
0.0318337
0.0417961
0.0414645
0.126062
0.0576125
0.0316418
0.0346651
-0.000359099
0.0402827
0.0249304
0.145062
0.0830384
0.00976418
0.0489767
0.0150603
0.042497
0.00714979
0.000566273
0.0251817
0.0426418
0.0543803
0.163215
0.0370537
0.0845362
-0.0161374
0.0430285
0.0317453
0.0898502
0.0973485
0.0661661
0.0442714
0.0402038
0.0412777
0.0436854
0.0427449
0.0376971
0.00643966
0.0425903
0.0519501
0.0485032
-0.350157
0.115547
0.0413576
0.0429002
0.00940773
0.0155499
0.0213049
0.072775
0.016179
0.0419572
0.0376037
0.00388204
0.0435981
0.0128668
0.0888775
0.0669419
0.0411098
0.0114047
0.0433059
0.0360816
0.0342389
0.0370151
-0.00350104
0.0555098
0.0320167
0.0304822
0.106555
0.0772008
0.0424621
0.0430648
0.03299
0.0294914
0.0129127
0.0175636
0.0366068
0.00599446
0.0759257
0.0437325
0.0343265
0.00524862
0.0358476
0.0808312
0.0591538
0.0465251
0.146647
0.0203467
0.122021
0.135929
0.0254383
-0.00236825
1.13121e-05
0.121138
0.0357662
0.0045884
0.070072
0.033094
0.0192509
0.0854566
0.0678467
0.0460664
0.0023417
0.0290982
0.0257515
0.0372537
0.00523789
0.0451059
0.0764255
0.0448923
0.0534251
0.0819362
0.0497548
0.0374446
0.102757
0.00659364
0.0867553
0.0262985
0.0680426
0.00745962
0.0574297
0.0106291
0.0445119
0.0280103
0.00862559
0.0632877
0.0248044
0.0444645
0.0385421
0.0143504
0.0426564
0.0319791
0.0522286
0.0333537
0.0206581
-0.00161469
0.0909753
0.100703
0.0966405
0.0375634
0.0362916
0.0324534
0.0175947
0.0263077
0.0434153
0.0495207
0.0659395
0.0223582
0.0545753
0.0037943
0.0286014
0.0528168
0.0302912
0.0297233
0.0405301
0.0274911
0.0342361
0.130258
0.258036
0.0207678
0.0227016
0.0261525
0.0299239
0.0347314
0.0335186
0.0311063
0.0210024
0.0124243
0.041464
0.0428813
0.0417836
0.00543434
0.0430437
0.0273241
0.0379645
0.0284962
0.0553703
0.0311625
0.119117
-0.00796131
0.042555
0.0324532
0.0869378
0.0380693
0.0566304
0.0854502
0.0483143
0.0428893
0.0273408
0.00425228
0.0826343
0.00243196
0.111691
0.07964
0.0031327
0.058533
0.0643431
0.00958045
0.0391949
0.0431751
0.0444283
0.0332537
0.0423372
0.0295578
-0.0347021
0.0413905
0.0757341
0.0394556
0.0576551
0.0584275
0.157199
0.0496647
0.038379
0.0046695
0.0127479
0.0830827
0.0288643
0.0794624
0.0443625
0.0345181
0.0606997
0.0420617
0.0302014
0.0437384
0.0444035
0.0290334
0.0423179
0.0316923
0.0576664
0.0770338
0.0134946
0.0420297
0.00606162
0.000292562
0.0633284
0.0564633
0.0458515
0.0639902
0.127924
0.0428647
0.0372012
0.0422768
0.0563516
0.0352334
0.0324836
0.035454
0.0695223
0.079342
0.0297687
0.0752938
0.0860047
0.0557848
0.104282
0.0534419
0.0744396
0.0255101
0.0386428
0.0191454
0.043838
0.0605593
0.0447767
0.0791516
0.00168179
0.0507439
-0.0129197
0.0394073
0.0247539
0.113786
0.00714427
0.0424582
0.0424896
0.00315657
0.103327
0.0248605
0.0271847
0.0148058
0.0411683
0.0773191
0.0344223
0.0411006
0.0330594
0.00780881
0.0379461
0.0367726
0.392931
0.0354663
0.0448246
0.0546923
0.0600939
0.0389879
0.0292178
0.0428938
0.0977658
0.0395787
0.042873
0.0124337
0.0336793
0.0266461
0.037704
0.0586705
0.0376096
0.0404247
0.0398727
0.0311013
0.0759875
0.0429171
0.0354738
0.0535575
0.0416835
0.035856
0.0498397
0.0505219
0.0551394
0.0555032
0.04301
0.0392656
0.0460073
0.0267089
-0.00154396
-0.000732914
0.142261
0.0703387
-0.0112225
0.0284268
0.0425243
0.0461072
0.0537576
0.0696121
0.0434027
0.0255438
0.0720853
0.0527783
0.0240367
-0.0103232
0.0197447
0.0423416
0.0342032
0.0427073
0.089862
0.22846
0.0356442
0.0527878
0.0399812
0.0057632
0.0424993
0.0681282
0.0255437
0.0407902
0.0435778
0.0307554
0.0923008
0.0355774
0.0521531
0.0236814
0.0384988
0.0394089
0.0837381
0.0566479
0.0364274
0.045456
0.0353803
0.049406
0.0346627
0.0433017
0.0361141
0.0425238
0.0496267
0.0102012
0.0640482
0.015323
0.0697106
0.0694389
0.0477426
0.0351976
0.0325419
0.0729518
0.0877864
0.00908382
0.0374651
0.0532658
0.0536026
0.0366675
0.0414708
0.0396329
0.0345366
0.0259292
0.0258438
0.0393617
0.013193
0.0355348
0.0748004
0.0371585
0.039082
0.0363952
0.0219682
0.0800771
0.049228
-0.000657408
0.0353669
0.0368412
0.00930304
0.0462509
0.000610938
0.0456563
0.0372719
0.0424267
0.0417626
0.0440159
0.0383662
0.00408954
0.0428873
0.0192951
0.0678191
0.0457636
0.0535155
0.0305585
0.091831
0.0559907
0.0434156
0.0321056
-0.0655892
0.043085
0.00497748
-0.081133
0.0613126
0.0810616
0.0473025
0.037592
0.0274649
0.0671257
0.054203
0.0435549
0.0886786
0.00975102
0.077676
0.0429359
0.0421474
0.0393576
0.0398999
0.0404412
0.0615809
0.0729095
0.0420879
-0.00151344
0.0400749
0.0478578
0.037996
0.0298846
0.000462856
0.0422908
0.0373866
0.0218773
0.0368807
0.0421731
0.0457453
0.123661
0.0697725
0.0435004
0.0582882
0.0487228
0.0374122
0.0715716
0.0549503
0.0397192
0.0585519
0.033685
0.0581732
0.0812946
-0.000268124
0.0217347
0.0436116
0.0659889
0.0420774
0.0459096
0.0446554
0.0383047
0.00116662
0.000296949
0.054087
0.0307458
0.0328856
0.0256537
0.0421991
0.0414126
0.0435181
0.0672615
0.0321381
0.0429814
0.0372944
0.0493553
0.0210976
0.00712371
0.0430445
0.042428
0.033241
0.043511
0.0416522
0.0386584
0.0404815
0.03601
0.0613492
0.0571972
0.0314103
0.0409625
0.0477649
0.0544054
0.0374304
0.0429064
0.038945
0.0284237
0.000787172
0.00494198
0.0327012
0.11915
0.0377818
-0.0606335
0.0844715
0.037287
0.0362431
0.0485791
0.0435405
0.0430548
0.0502336
0.0521176
0.0371103
0.045024
0.0419693
0.0928184
0.00458905
0.0308825
0.043199
0.049882
0.0579904
0.0657925
0.0298705
0.0457158
0.042814
0.041191
0.0381937
0.026532
0.0245786
0.00392826
0.0572925
0.0414164
0.0354783
0.051451
0.0483019
0.0473469
0.040057
0.05332
0.0430012
0.0139972
-0.00232749
0.0419144
0.0619918
0.0368777
0.0400397
0.0413004
0.0445995
-0.0442091
0.0587679
-0.000623275
0.0391436
0.00753949
0.0470894
0.0657631
0.123598
0.0503058
0.0432488
0.0279181
0.0206137
0.106938
0.0365578
0.0622245
0.0403341
0.0424682
0.060869
0.040434
0.118153
0.000215419
0.0747023
0.0467948
0.0425708
0.0429659
0.0422093
-0.0288182
0.0350147
0.0423294
0.050811
0.041011
0.0425241
0.0421098
0.00952817
0.0029047