/*--------------------------------*- C++ -*----------------------------------*\
  =========                 |
  \\      /  F ield         | OpenFOAM: The Open Source CFD Toolbox
   \\    /   O peration     | Website:  https://openfoam.org
    \\  /    A nd           | Version:  7
     \\/     M anipulation  |
\*---------------------------------------------------------------------------*/
FoamFile
{
    version     2.0;
    format      ascii;
    class       volScalarField;
    location    "16";
    object      p;
}
// * * * * * * * * * * * * * * * * * * * * * * * * * * * * * * * * * * * * * //

dimensions      [1 -1 -2 0 0 0 0];

internalField   nonuniform List<scalar> 
2413
(
0.92945
0.926489
0.923126
0.918004
0.914147
0.911335
0.907997
0.903437
0.900508
0.898562
0.896191
0.893232
0.891482
0.89043
0.889192
0.888094
0.887758
0.887791
0.887599
0.887155
0.888139
0.889916
0.892527
0.896189
0.900841
0.908023
0.91725
0.9269
1.01878
1.02906
1.04259
1.05632
1.07187
1.08747
1.10103
1.11234
1.12091
1.12926
1.13738
1.14486
1.14917
1.15337
1.15669
1.16001
1.16336
1.16694
1.16693
1.16559
1.16228
1.157
1.15035
1.14315
1.13468
1.12646
1.11858
1.10955
1.10228
1.09536
1.08669
1.08031
1.07446
1.06609
1.05953
1.05458
1.04715
1.04006
1.03597
1.03022
1.02289
1.01865
1.01401
1.007
1.00263
0.998945
0.99293
0.988403
0.985337
0.980306
0.975427
0.972598
0.968654
0.963471
0.960317
0.957183
0.952012
0.947922
0.945157
0.940922
0.935915
0.933227
0.930339
0.925689
0.921803
0.919133
0.915978
0.911593
0.908586
0.906439
0.903854
0.900608
0.898727
0.897742
0.896668
0.895891
0.895789
0.895881
0.895528
0.895535
0.896703
0.898167
0.900558
0.904329
0.909039
0.915445
0.924849
0.934748
1.00308
1.00637
1.01197
1.02024
1.03099
1.0448
1.05869
1.07499
1.0905
1.10471
1.11585
1.12533
1.13483
1.14471
1.15249
1.15713
1.16138
1.16454
1.16752
1.17004
1.17032
1.16906
1.1661
1.1614
1.15493
1.14701
1.13883
1.12981
1.12075
1.11304
1.10433
1.09618
1.08995
1.08203
1.07408
1.06871
1.06196
1.05357
1.0484
1.04299
1.03486
1.02962
1.02543
1.0185
1.01269
1.00903
1.00335
0.997289
0.993931
0.989515
0.983437
0.97994
0.976395
0.970593
0.966822
0.964014
0.959302
0.954667
0.951849
0.948236
0.942868
0.939489
0.936686
0.932068
0.927609
0.9252
0.922271
0.917862
0.914918
0.91309
0.910768
0.907262
0.905166
0.904078
0.902724
0.901706
0.901767
0.902021
0.901705
0.902139
0.903118
0.904336
0.906406
0.909897
0.914655
0.92049
0.929271
0.939872
1.00018
1.00056
1.00147
1.00343
1.0069
1.01286
1.02129
1.0327
1.04668
1.06105
1.07832
1.09399
1.10918
1.1211
1.13216
1.14331
1.1544
1.16087
1.1649
1.1685
1.16967
1.17123
1.17135
1.17061
1.16835
1.16399
1.15764
1.14991
1.14113
1.13245
1.12374
1.11458
1.10691
1.09916
1.09021
1.08352
1.07713
1.06842
1.06195
1.0567
1.04879
1.04177
1.03732
1.03097
1.02355
1.01947
1.01457
1.00731
1.00304
0.999148
0.992733
0.988117
0.984864
0.979567
0.974348
0.971225
0.966977
0.960967
0.957902
0.954944
0.949825
0.945857
0.943289
0.939254
0.934271
0.931433
0.928764
0.924623
0.920587
0.918451
0.91612
0.912733
0.910672
0.9098
0.908547
0.90748
0.907096
0.906774
0.906425
0.907025
0.908059
0.909379
0.911396
0.914545
0.919235
0.924794
0.932127
0.942763
1
1.00001
1.00006
1.00021
1.00061
1.00159
1.00365
1.0073
1.01361
1.0222
1.03442
1.04856
1.06401
1.08267
1.09915
1.11612
1.12924
1.14151
1.15354
1.16329
1.16712
1.16974
1.17142
1.17114
1.17091
1.1701
1.16765
1.16363
1.15801
1.15087
1.14283
1.13408
1.12529
1.11703
1.10814
1.10001
1.09313
1.08476
1.07668
1.0709
1.06374
1.05534
1.05006
1.04434
1.03606
1.0307
1.02626
1.01909
1.01312
1.00938
1.00364
0.997099
0.993573
0.989115
0.982715
0.979167
0.975731
0.969989
0.965508
0.962547
0.957908
0.95234
0.949577
0.946445
0.941154
0.937804
0.935565
0.931785
0.927636
0.925141
0.922936
0.919154
0.915909
0.91504
0.913887
0.912673
0.912261
0.911914
0.911373
0.911673
0.912288
0.913253
0.915028
0.917861
0.922206
0.927891
0.934532
0.944446
1
1
1
1
1.00002
1.00007
1.00022
1.00065
1.0017
1.00383
1.00771
1.01434
1.02329
1.03661
1.05135
1.06909
1.08944
1.10757
1.12616
1.13915
1.15105
1.16136
1.16773
1.17035
1.17075
1.17042
1.16907
1.16757
1.16542
1.16188
1.1567
1.15018
1.14268
1.1347
1.12635
1.11778
1.10985
1.10178
1.09315
1.08614
1.07927
1.07058
1.06378
1.05825
1.05044
1.0432
1.03852
1.03223
1.02453
1.02022
1.01548
1.00821
1.00343
0.999656
0.993528
0.988015
0.984677
0.979747
0.97373
0.970704
0.967222
0.961474
0.957494
0.954703
0.950123
0.945354
0.942785
0.93968
0.934479
0.931284
0.929679
0.926906
0.923233
0.921457
0.920136
0.918018
0.916896
0.91667
0.916473
0.916936
0.917552
0.918097
0.919249
0.92145
0.924635
0.929423
0.93574
0.944033
1
1
1
1
1
1
1
1.00002
1.00007
1.00024
1.00069
1.00181
1.00405
1.00831
1.0154
1.02535
1.04045
1.05672
1.07783
1.0994
1.11935
1.13674
1.14775
1.158
1.16465
1.16775
1.16878
1.16839
1.16662
1.16412
1.16165
1.15834
1.15393
1.1484
1.14169
1.13419
1.12643
1.11858
1.11041
1.10255
1.09525
1.08705
1.07902
1.07278
1.06574
1.0575
1.05174
1.04618
1.03831
1.03227
1.02785
1.02127
1.0144
1.0106
1.00567
0.998857
0.994826
0.991022
0.984905
0.979936
0.976785
0.971912
0.966414
0.963521
0.960092
0.954522
0.951018
0.94861
0.944559
0.940172
0.93764
0.935098
0.931055
0.928354
0.927235
0.925524
0.923631
0.922563
0.921791
0.922013
0.922782
0.923148
0.924062
0.926081
0.928861
0.932821
0.938825
0.946166
1
1
1
1
1
1
1
1
1
1
1.00002
1.00008
1.00026
1.00076
1.00201
1.00451
1.00956
1.0176
1.02982
1.04738
1.06624
1.09014
1.11164
1.13203
1.14493
1.15269
1.16023
1.16367
1.16397
1.16359
1.16239
1.16032
1.15717
1.1537
1.1497
1.14471
1.13911
1.13291
1.12593
1.11849
1.11111
1.10347
1.09555
1.08847
1.08157
1.07355
1.06634
1.06058
1.05356
1.04602
1.04098
1.03552
1.028
1.02271
1.01848
1.01209
1.00592
1.00236
0.997556
0.991152
0.987417
0.983811
0.977955
0.973384
0.970511
0.966074
0.960782
0.957829
0.954721
0.949778
0.946446
0.944434
0.941383
0.936997
0.934816
0.933279
0.931011
0.929752
0.929196
0.929019
0.929072
0.928894
0.929034
0.930167
0.932537
0.936064
0.941469
0.948812
1
1
1
1
1
1
1
1
1
1
1
1
1
1.00002
1.00009
1.0003
1.00092
1.00247
1.00566
1.01227
1.02221
1.03815
1.05822
1.07981
1.10359
1.12319
1.14233
1.14991
1.15341
1.15769
1.15847
1.15805
1.15663
1.15427
1.15134
1.14812
1.14463
1.14069
1.1356
1.12977
1.12386
1.11768
1.11084
1.10393
1.09713
1.0898
1.08231
1.07583
1.06936
1.06186
1.05543
1.05008
1.04334
1.0364
1.03177
1.02658
1.01964
1.01479
1.01083
1.00486
0.998961
0.995589
0.991196
0.985167
0.98145
0.978112
0.97275
0.968355
0.965704
0.961972
0.956745
0.953711
0.95141
0.947542
0.944202
0.942563
0.940229
0.937315
0.936535
0.936179
0.936214
0.936286
0.936284
0.936842
0.938357
0.941143
0.945201
0.9512
1
1
1
1
1
1
1
1
1
1
1
1
1
1
1
1.00001
1.00003
1.00012
1.00043
1.00136
1.00358
1.00832
1.01748
1.0304
1.05065
1.07214
1.09557
1.11547
1.13116
1.14642
1.15147
1.15208
1.15213
1.15122
1.14986
1.14795
1.14546
1.14205
1.13805
1.13423
1.1308
1.12666
1.12139
1.11562
1.10985
1.10373
1.09719
1.09081
1.08465
1.07792
1.07104
1.06515
1.05908
1.05207
1.04622
1.0413
1.03514
1.02869
1.02432
1.01952
1.01302
1.00824
1.00462
0.999257
0.993689
0.990304
0.986233
0.980511
0.976684
0.973788
0.969317
0.964784
0.962207
0.959235
0.954505
0.95204
0.950423
0.947614
0.945754
0.944616
0.943416
0.94339
0.943548
0.943819
0.944794
0.946939
0.950457
0.955199
1
1
1
1
1
1
1
1
1
1
1
1
1
1
1
1
1
1
1.00001
1.00005
1.00022
1.00078
1.00243
1.006
1.01356
1.02601
1.04271
1.06579
1.08684
1.10958
1.12405
1.13482
1.14342
1.14757
1.14801
1.14713
1.14393
1.14088
1.13824
1.13542
1.13235
1.12886
1.12477
1.12062
1.11681
1.11263
1.10778
1.10252
1.09721
1.09156
1.08535
1.07944
1.07385
1.06769
1.06148
1.05616
1.0507
1.04425
1.03863
1.03409
1.0285
1.02237
1.01824
1.01396
1.00795
1.00306
0.999614
0.994843
0.989424
0.985999
0.982548
0.977352
0.973403
0.971081
0.967461
0.963028
0.960904
0.958553
0.955682
0.954106
0.952764
0.952329
0.952228
0.951985
0.952311
0.953479
0.955962
0.959849
1
1
1
1
1
1
1
1
1
1
1
1
1
1
1
1
1
1
1
1
1
1.00003
1.00013
1.00051
1.00169
1.00476
1.01066
1.02231
1.03787
1.05819
1.08081
1.09958
1.11772
1.12744
1.13501
1.13877
1.13912
1.13869
1.13794
1.13622
1.13307
1.12921
1.1257
1.12228
1.11883
1.11542
1.11182
1.10792
1.10389
1.09981
1.09521
1.09027
1.08556
1.08059
1.07509
1.06973
1.06464
1.05906
1.0532
1.04841
1.04369
1.0378
1.03237
1.02816
1.02318
1.01731
1.01306
1.00921
1.00389
0.998956
0.995802
0.991755
0.986452
0.983098
0.980216
0.975845
0.972439
0.970328
0.967463
0.964629
0.96289
0.961828
0.961321
0.960938
0.960834
0.961414
0.962998
0.966029
1
1
1
1
1
1
1
1
1
1
1
1
1
1
1
1
1
1
1
1
1
1
1
1.00002
1.00009
1.00037
1.00127
1.00382
1.00919
1.01858
1.03421
1.05187
1.07341
1.09291
1.10904
1.12116
1.12511
1.12948
1.13208
1.13183
1.1298
1.12752
1.12524
1.12265
1.11975
1.11663
1.11331
1.1096
1.10578
1.10235
1.09904
1.09539
1.09163
1.08792
1.0838
1.07924
1.07481
1.07043
1.06554
1.0608
1.05656
1.05163
1.04608
1.04151
1.03735
1.03215
1.02687
1.023
1.01872
1.01327
1.00905
1.00556
1.00078
0.996181
0.993196
0.989693
0.985282
0.982335
0.979998
0.976911
0.974246
0.972616
0.971375
0.970716
0.970389
0.97049
0.971342
0.973476
1
1
1
1
1
1
1
1
1
1
1
1
1
1
1
1
1
1
1
1
1
1
1
1
1
1.00001
1.00006
1.00029
1.00106
1.00311
1.00803
1.01645
1.02984
1.04777
1.06588
1.08482
1.09934
1.11206
1.12164
1.12307
1.12266
1.12245
1.12177
1.1202
1.11811
1.11586
1.11291
1.10953
1.10636
1.10341
1.10048
1.09716
1.09357
1.0901
1.08678
1.08327
1.07966
1.07632
1.07281
1.06875
1.06488
1.06105
1.05658
1.05212
1.04847
1.04448
1.03947
1.03511
1.03158
1.02703
1.02204
1.01845
1.01465
1.00985
1.00601
1.00302
0.999218
0.995044
0.992396
0.989797
0.98654
0.984198
0.982536
0.981454
0.98096
0.980703
0.981041
0.98242
1
1
1
1
1
1
1
1
1
1
1
1
1
1
1
1
1
1
1
1
1
1
1
1
1
1
1
1.00001
1.00005
1.00024
1.00092
1.00274
1.00685
1.01488
1.02628
1.04269
1.06035
1.07751
1.09234
1.10155
1.10895
1.11454
1.11736
1.11749
1.11593
1.113
1.11016
1.10729
1.10518
1.10317
1.10062
1.09742
1.09408
1.09093
1.0879
1.08487
1.08153
1.07821
1.07507
1.07173
1.0682
1.06507
1.06187
1.05816
1.05458
1.05148
1.04776
1.04341
1.04019
1.03698
1.03249
1.02847
1.02552
1.0218
1.0174
1.01416
1.01124
1.00724
1.00366
1.00137
0.998587
0.995687
0.993857
0.992391
0.991482
0.990861
0.990971
0.99178
1
1
1
1
1
1
1
1
1
1
1
1
1
1
1
1
1
1
1
1
1
1
1
1
1
1
1
1
1
1.00001
1.00005
1.00021
1.0008
1.00247
1.00606
1.01314
1.024
1.03765
1.05436
1.06953
1.08368
1.09396
1.10082
1.10543
1.10662
1.10686
1.10725
1.10692
1.10542
1.10272
1.09916
1.09541
1.09275
1.09038
1.08788
1.0853
1.08231
1.07897
1.07602
1.07304
1.06971
1.06656
1.06363
1.06042
1.05676
1.05364
1.05086
1.04723
1.04365
1.04098
1.03782
1.03393
1.03116
1.02835
1.02455
1.02089
1.0184
1.01541
1.01161
1.00898
1.00689
1.00424
1.0019
1.00029
0.998879
0.997901
0.997529
0.997747
1
1
1
1
1
1
1
1
1
1
1
1
1
1
1
1
1
1
1
1
1
1
1
1
1
1
1
1
1
1
1
1.00001
1.00004
1.0002
1.00072
1.0022
1.00554
1.01147
1.0214
1.03378
1.04813
1.06292
1.0753
1.0862
1.09126
1.09462
1.09826
1.09972
1.0989
1.09722
1.09599
1.09471
1.09289
1.09073
1.08791
1.08434
1.08118
1.07819
1.07547
1.07317
1.07049
1.06736
1.06427
1.06133
1.05803
1.05462
1.05213
1.04926
1.04532
1.04217
1.03949
1.03624
1.03256
1.0299
1.02714
1.02338
1.02032
1.01808
1.01517
1.01175
1.0094
1.00739
1.00506
1.00267
1.0008
0.999681
0.999065
0.998944
1
1
1
1
1
1
1
1
1
1
1
1
1
1
1
1
1
1
1
1
1
1
1
1
1
1
1
1
1
1
1
1
1
1.00001
1.00004
1.00019
1.00068
1.00198
1.005
1.01041
1.01874
1.03035
1.04253
1.05554
1.0666
1.07585
1.08473
1.08861
1.08898
1.08919
1.08946
1.08959
1.08831
1.08664
1.08493
1.08268
1.08047
1.07836
1.07592
1.07298
1.06986
1.06678
1.06328
1.06049
1.0584
1.05556
1.05243
1.0498
1.0466
1.04284
1.04025
1.03762
1.03387
1.03038
1.02819
1.02525
1.02136
1.01889
1.0165
1.0132
1.01016
1.00835
1.00625
1.00338
1.00091
1.00026
0.999527
0.998883
1
1
1
1
1
1
1
1
1
1
1
1
1
1
1
1
1
1
1
1
1
1
1
1
1
1
1
1
1
1
1
1
1
1
1
1.00001
1.00004
1.00018
1.00064
1.00184
1.00444
1.00935
1.01652
1.0264
1.03801
1.04899
1.0598
1.06743
1.073
1.07773
1.08186
1.08303
1.08241
1.08088
1.07956
1.07812
1.07659
1.07509
1.07314
1.07074
1.06827
1.06591
1.06355
1.06093
1.0582
1.05534
1.0518
1.04842
1.04608
1.04328
1.03975
1.03723
1.03478
1.03131
1.02795
1.02569
1.02271
1.01856
1.01618
1.01418
1.0109
1.00742
1.00597
1.00395
1.00138
0.99997
0.998637
0.997093
1
1
1
1
1
1
1
1
1
1
1
1
1
1
1
1
1
1
1
1
1
1
1
1
1
1
1
1
1
1
1
1
1
1
1
1
1
1.00001
1.00004
1.00018
1.0006
1.0017
1.00403
1.00825
1.01487
1.02304
1.03301
1.04304
1.05196
1.05965
1.06546
1.06928
1.07109
1.07222
1.07341
1.07374
1.07302
1.07124
1.0689
1.06662
1.06461
1.06268
1.06067
1.05843
1.0559
1.05333
1.05066
1.04781
1.04507
1.04247
1.03933
1.03595
1.03325
1.03045
1.02681
1.02385
1.02154
1.0183
1.01463
1.01237
1.00991
1.00622
1.00389
1.00215
0.999311
0.997118
0.996026
0.99432
1
1
1
1
1
1
1
1
1
1
1
1
1
1
1
1
1
1
1
1
1
1
1
1
1
1
1
1
1
1
1
1
1
1
1
1
1
1
1
1.00001
1.00004
1.00017
1.00057
1.00155
1.00367
1.0073
1.01294
1.02033
1.0286
1.03757
1.04559
1.05263
1.05722
1.0602
1.06311
1.06443
1.06422
1.06367
1.06334
1.06276
1.06157
1.05997
1.05784
1.05528
1.05263
1.05004
1.04772
1.04532
1.04261
1.03998
1.03725
1.03395
1.03082
1.02823
1.02515
1.02154
1.01861
1.01591
1.01223
1.00882
1.00668
1.0037
1.00027
0.998405
0.995986
0.993091
0.991368
0.98937
1
1
1
1
1
1
1
1
1
1
1
1
1
1
1
1
1
1
1
1
1
1
1
1
1
1
1
1
1
1
1
1
1
1
1
1
1
1
1
1
1
1.00001
1.00004
1.00016
1.00053
1.00142
1.00326
1.00653
1.0113
1.01779
1.02494
1.03233
1.03942
1.04536
1.05089
1.05418
1.05514
1.05588
1.05634
1.05628
1.05525
1.05419
1.05291
1.05119
1.04942
1.04763
1.0456
1.0433
1.04062
1.03765
1.03483
1.03197
1.02885
1.0259
1.02304
1.01962
1.01596
1.01314
1.01028
1.00649
1.00356
1.00115
0.997704
0.994571
0.992073
0.9892
0.986544
0.984069
1
1
1
1
1
1
1
1
1
1
1
1
1
1
1
1
1
1
1
1
1
1
1
1
1
1
1
1
1
1
1
1
1
1
1
1
1
1
1
1
1
1
1
1.00001
1.00004
1.00016
1.00048
1.00128
1.00289
1.00567
1.00986
1.01522
1.02178
1.02823
1.03439
1.03953
1.04344
1.04678
1.04962
1.05036
1.05006
1.04927
1.04827
1.04705
1.04572
1.04428
1.0425
1.04033
1.03814
1.03597
1.03371
1.0313
1.02857
1.02529
1.02206
1.01908
1.01577
1.01243
1.00971
1.00663
1.0029
0.999956
0.997114
0.993549
0.990138
0.987367
0.984631
0.981491
1
1
1
1
1
1
1
1
1
1
1
1
1
1
1
1
1
1
1
1
1
1
1
1
1
1
1
1
1
1
1
1
1
1
1
1
1
1
1
1
1
1
1
1
1
1.00001
1.00004
1.00014
1.00043
1.00111
1.0025
1.00487
1.00847
1.0131
1.01857
1.02444
1.02979
1.03458
1.03846
1.04106
1.04267
1.04369
1.04443
1.04455
1.04391
1.04222
1.04026
1.03836
1.03657
1.03489
1.03312
1.03107
1.02868
1.02599
1.02311
1.02044
1.01765
1.01421
1.01106
1.00832
1.00476
1.00103
0.99802
0.99474
0.990944
0.987538
0.984758
0.981707
1
1
1
1
1
1
1
1
1
1
1
1
1
1
1
1
1
1
1
1
1
1
1
1
1
1
1
1
1
1
1
1
1
1
1
1
1
1
1
1
1
1
1
1
1
1
1
1.00001
1.00003
1.00011
1.00035
1.00092
1.00207
1.00405
1.00705
1.01108
1.01573
1.0208
1.02597
1.03024
1.03351
1.03586
1.03801
1.03922
1.03916
1.03872
1.03834
1.03781
1.03681
1.03522
1.03319
1.03112
1.02902
1.02705
1.02489
1.02233
1.01974
1.01689
1.01337
1.01045
1.00754
1.00364
1.00004
0.997079
0.99347
0.989584
0.986343
0.983386
1
1
1
1
1
1
1
1
1
1
1
1
1
1
1
1
1
1
1
1
1
1
1
1
1
1
1
1
1
1
1
1
1
1
1
1
1
1
1
1
1
1
1
1
1
1
1
1
1
1.00001
1.00002
1.00009
1.00027
1.00071
1.00162
1.00323
1.00569
1.00903
1.01306
1.01743
1.02179
1.02594
1.02985
1.03236
1.03328
1.03409
1.03484
1.0351
1.03469
1.03361
1.03223
1.03089
1.02958
1.02799
1.02622
1.02428
1.02203
1.01959
1.01685
1.0136
1.01047
1.00741
1.00368
1.00002
0.996883
0.993309
0.98917
0.985692
1
1
1
1
1
1
1
1
1
1
1
1
1
1
1
1
1
1
1
1
1
1
1
1
1
1
1
1
1
1
1
1
1
1
1
1
1
1
1
1
1
1
1
1
1
1
1
1
1
1
1
1
1.00002
1.00006
1.00019
1.00051
1.00118
1.00241
1.00431
1.00704
1.01045
1.01424
1.01812
1.02177
1.02487
1.02769
1.03036
1.03135
1.03122
1.03073
1.03012
1.02949
1.02896
1.02799
1.02657
1.02484
1.02316
1.02151
1.01962
1.01721
1.01448
1.01152
1.00849
1.00518
1.00123
0.997787
0.994541
0.990296
1
1
1
1
1
1
1
1
1
1
1
1
1
1
1
1
1
1
1
1
1
1
1
1
1
1
1
1
1
1
1
1
1
1
1
1
1
1
1
1
1
1
1
1
1
1
1
1
1
1
1
1
1
1
1.00001
1.00003
1.00011
1.00032
1.00077
1.00165
1.00306
1.00516
1.00779
1.01101
1.01445
1.01772
1.02088
1.02331
1.02515
1.02651
1.02779
1.02799
1.02756
1.02655
1.02517
1.02412
1.02331
1.02211
1.02032
1.01857
1.01695
1.01511
1.01268
1.01003
1.0071
1.00359
1.00025
0.996987
1
1
1
1
1
1
1
1
1
)
;

boundaryField
{
    inlet
    {
        type            fixedValue;
        value           nonuniform 0();
    }
    outlet
    {
        type            zeroGradient;
    }
    bottom
    {
        type            symmetryPlane;
    }
    top
    {
        type            symmetryPlane;
    }
    obstacle
    {
        type            zeroGradient;
    }
    front
    {
        type            empty;
    }
    back
    {
        type            empty;
    }
    procBoundary36to21
    {
        type            processor;
        value           nonuniform List<scalar> 8(0.934202 0.944422 0.950722 0.95315 0.955998 0.956403 0.956607 0.957542);
    }
    procBoundary36to28
    {
        type            processor;
        value           nonuniform List<scalar> 
89
(
0.920556
0.917484
0.913952
0.909026
0.905473
0.902642
0.899291
0.894968
0.892066
0.889997
0.887468
0.884758
0.883075
0.881973
0.880816
0.879927
0.879587
0.879561
0.879572
0.87905
0.87967
0.881621
0.88424
0.887744
0.892796
0.900465
0.909285
0.918882
1.05368
1.06868
1.08449
1.09745
1.109
1.11746
1.1254
1.13281
1.13955
1.14303
1.14624
1.14937
1.15189
1.15523
1.15856
1.16221
1.16201
1.16038
1.15673
1.15139
1.14514
1.13765
1.13059
1.12294
1.11463
1.10794
1.10013
1.09212
1.08622
1.07891
1.07084
1.06557
1.05941
1.05116
1.04634
1.04163
1.03421
1.02854
1.02431
1.0178
1.01142
1.00782
1.0028
0.996799
0.993543
0.989624
0.98394
0.980413
0.977142
0.971969
0.968024
0.96518
0.960718
0.955919
0.953141
0.949612
0.944522
0.941299
0.938541
0.934064
0.934064
)
;
    }
    procBoundary36to29
    {
        type            processor;
        value           nonuniform List<scalar> 
19
(
0.958993
0.96199
0.965128
0.970096
0.976638
0.984776
0.993518
0.998594
0.999304
0.998939
0.996475
0.993105
0.987345
0.981656
0.97857
0.978326
0.980061
0.982857
0.986097
)
;
    }
    procBoundary36to35
    {
        type            processor;
        value           nonuniform List<scalar> 
27
(
1.01072
1.00126
1.00005
1
1
1
1
1
1
1
1
1
1
1
1
1
1
1
1
1
1
1
1
1
1
1
1
)
;
    }
    procBoundary36to37
    {
        type            processor;
        value           uniform 0.992718;
    }
    procBoundary36to43
    {
        type            processor;
        value           uniform 1;
    }
    procBoundary36to44
    {
        type            processor;
        value           nonuniform List<scalar> 
89
(
1
1
1
1
1
1
1
1
1
1
1
1
1
1
1
1
1
1
1
1
1
1
1
1
1
1
1
1
1
1
1
1
1
1
1
1
1
1
1
1
1
1
1
1
1
1
1
1
1.00002
1.00006
1.00018
1.00045
1.001
1.00195
1.00343
1.00546
1.00797
1.01075
1.01367
1.01639
1.01875
1.02081
1.02243
1.02318
1.02364
1.02369
1.02345
1.0227
1.02123
1.01972
1.01874
1.01763
1.01596
1.01414
1.01245
1.01074
1.00849
1.0057
1.00282
1
1
1
1
1
1
1
1
1
1
)
;
    }
}


// ************************************************************************* //
