/*--------------------------------*- C++ -*----------------------------------*\
  =========                 |
  \\      /  F ield         | OpenFOAM: The Open Source CFD Toolbox
   \\    /   O peration     | Website:  https://openfoam.org
    \\  /    A nd           | Version:  7
     \\/     M anipulation  |
\*---------------------------------------------------------------------------*/
FoamFile
{
    version     2.0;
    format      ascii;
    class       volScalarField;
    location    "3.5";
    object      p;
}
// * * * * * * * * * * * * * * * * * * * * * * * * * * * * * * * * * * * * * //

dimensions      [1 -1 -2 0 0 0 0];

internalField   nonuniform List<scalar> 
2413
(
1.20897
1.20708
1.20533
1.20356
1.20192
1.20044
1.19899
1.19754
1.19613
1.19476
1.19341
1.19204
1.19061
1.18912
1.18762
1.18612
1.18472
1.18352
1.18246
1.18149
1.18066
1.17988
1.17899
1.17787
1.17667
1.17539
1.17415
1.17283
1.18015
1.17085
1.16242
1.15322
1.14331
1.13578
1.12771
1.11939
1.11185
1.10449
1.09583
1.08736
1.08037
1.07269
1.06492
1.05797
1.05216
1.04455
1.03784
1.03076
1.02465
1.0173
1.01151
1.00555
1.00018
0.99451
0.988674
0.983352
0.977657
0.970914
0.96259
0.964062
1.00374
1.18394
1.32074
1.3276
1.32354
1.31781
1.3134
1.30916
1.3047
1.30041
1.29634
1.29229
1.28799
1.28357
1.27933
1.27526
1.27131
1.26735
1.26329
1.25934
1.25561
1.25198
1.24841
1.24487
1.2414
1.23809
1.23498
1.23209
1.22951
1.22708
1.22468
1.22265
1.22095
1.21918
1.21735
1.21555
1.21371
1.2118
1.20995
1.20826
1.20663
1.20502
1.20339
1.20172
1.20005
1.19849
1.19701
1.19567
1.1946
1.19363
1.19264
1.19155
1.19016
1.18858
1.18689
1.18508
1.20513
1.19615
1.18671
1.17773
1.16944
1.16123
1.15284
1.14538
1.13766
1.12906
1.12158
1.11346
1.1057
1.09802
1.0918
1.08447
1.07774
1.07041
1.06403
1.05692
1.05014
1.0436
1.03778
1.032
1.02578
1.0203
1.01407
1.00865
1.00226
0.996379
0.987024
0.986318
1.01058
1.16589
1.34014
1.35746
1.35455
1.34768
1.34154
1.337
1.33264
1.32799
1.32315
1.31862
1.31437
1.30998
1.30539
1.3007
1.29614
1.29199
1.28798
1.28391
1.27976
1.27562
1.27161
1.26783
1.2642
1.26066
1.25724
1.25385
1.25042
1.24735
1.24482
1.24253
1.24032
1.23821
1.2362
1.23415
1.23193
1.22954
1.22721
1.22509
1.22314
1.22134
1.21962
1.21794
1.2162
1.21436
1.21246
1.21067
1.20906
1.20769
1.20653
1.20533
1.20389
1.20221
1.20014
1.19773
1.23346
1.22407
1.21383
1.20623
1.19771
1.18857
1.18147
1.17354
1.16468
1.15664
1.14954
1.14066
1.13309
1.12631
1.11926
1.11153
1.10494
1.09804
1.09032
1.0836
1.07699
1.0707
1.06378
1.05833
1.05172
1.04601
1.03902
1.03362
1.02714
1.02117
1.01192
1.00841
1.02106
1.14127
1.34633
1.38615
1.38378
1.37746
1.37089
1.36534
1.36039
1.35558
1.35066
1.34568
1.34083
1.3362
1.33159
1.32686
1.32211
1.31745
1.31289
1.30852
1.30434
1.30017
1.29583
1.29148
1.28739
1.28339
1.27944
1.2757
1.27215
1.26879
1.26569
1.26285
1.26021
1.25772
1.2553
1.25291
1.25052
1.24802
1.24543
1.24287
1.24044
1.23821
1.2362
1.23436
1.23254
1.23064
1.2286
1.22646
1.22425
1.22224
1.22061
1.21924
1.21783
1.21614
1.21389
1.21102
1.26297
1.25352
1.24316
1.23572
1.22703
1.21819
1.21069
1.20192
1.19364
1.18533
1.17707
1.16922
1.16188
1.15441
1.14673
1.13974
1.13213
1.12514
1.11709
1.11065
1.10345
1.09727
1.08999
1.08416
1.07731
1.07109
1.06403
1.05791
1.05181
1.04557
1.03703
1.03027
1.03582
1.11455
1.33462
1.41568
1.41345
1.4069
1.40034
1.39423
1.38849
1.38349
1.37874
1.37376
1.36833
1.36284
1.35792
1.35328
1.34853
1.34366
1.33873
1.33377
1.32896
1.32446
1.32004
1.31557
1.31109
1.30668
1.30237
1.29812
1.29402
1.29025
1.28688
1.28379
1.28085
1.27789
1.27487
1.27199
1.26934
1.26678
1.26418
1.26152
1.25885
1.25622
1.25369
1.2513
1.24911
1.24709
1.2451
1.24297
1.24054
1.2378
1.23528
1.23354
1.23204
1.23027
1.22794
1.2249
1.29239
1.28408
1.27408
1.26483
1.25705
1.24853
1.23872
1.23084
1.22299
1.21312
1.20541
1.19839
1.1894
1.18205
1.17496
1.16715
1.15834
1.15208
1.14454
1.13682
1.12961
1.12335
1.11619
1.10914
1.10247
1.09565
1.08898
1.08193
1.07603
1.06955
1.06222
1.05204
1.05365
1.09667
1.30195
1.43933
1.44338
1.43705
1.42958
1.42374
1.41816
1.41235
1.40653
1.40101
1.39577
1.39065
1.38552
1.38028
1.37501
1.36975
1.3644
1.35905
1.35401
1.34924
1.34456
1.33991
1.33523
1.33046
1.32562
1.32084
1.31633
1.31219
1.30841
1.30497
1.30178
1.29863
1.29533
1.29194
1.28869
1.28569
1.2829
1.28025
1.27764
1.27501
1.27231
1.26951
1.26671
1.26405
1.26161
1.25931
1.25686
1.25393
1.25087
1.24855
1.24669
1.24471
1.24223
1.23916
1.32292
1.31372
1.30429
1.29502
1.28589
1.27769
1.26809
1.25893
1.25103
1.24148
1.23332
1.22572
1.21696
1.20966
1.20152
1.1937
1.18561
1.17779
1.17048
1.16285
1.15574
1.14828
1.14171
1.13402
1.12729
1.11971
1.11336
1.10579
1.09986
1.09312
1.08659
1.07569
1.07276
1.09251
1.24665
1.44413
1.47395
1.46763
1.45937
1.453
1.44729
1.4413
1.43533
1.42961
1.42398
1.41834
1.41275
1.40721
1.40157
1.39587
1.39037
1.38496
1.37954
1.37431
1.36933
1.36442
1.35933
1.35408
1.34893
1.34399
1.33929
1.33488
1.33073
1.32677
1.32296
1.31933
1.3158
1.3123
1.30881
1.30543
1.30223
1.29922
1.29637
1.29363
1.29086
1.28795
1.28487
1.28173
1.27876
1.27606
1.2734
1.27041
1.26713
1.26417
1.26188
1.25958
1.25681
1.25382
1.3536
1.34385
1.33344
1.32486
1.31448
1.30542
1.29675
1.28621
1.2781
1.26985
1.2602
1.25238
1.24461
1.23543
1.22731
1.21987
1.21134
1.20309
1.19632
1.18805
1.18076
1.17297
1.16621
1.15831
1.15136
1.14373
1.13689
1.12972
1.1231
1.11658
1.10984
1.10021
1.09259
1.10002
1.18968
1.42508
1.50166
1.49842
1.49095
1.48325
1.47638
1.47011
1.4639
1.45785
1.45217
1.4466
1.44065
1.43429
1.42804
1.42231
1.4168
1.41116
1.40541
1.39965
1.39406
1.38885
1.38378
1.37854
1.37312
1.36765
1.36236
1.35747
1.35302
1.34885
1.34479
1.34079
1.33686
1.33299
1.32919
1.32552
1.32205
1.31876
1.31566
1.31265
1.30966
1.3066
1.30336
1.29989
1.29634
1.29301
1.28998
1.28685
1.2836
1.28053
1.278
1.27537
1.27235
1.26926
1.38365
1.37275
1.36246
1.35309
1.34219
1.33306
1.32407
1.31305
1.30491
1.29589
1.28638
1.27859
1.26982
1.26104
1.25317
1.24418
1.23619
1.22833
1.22005
1.21255
1.20523
1.19687
1.18949
1.18228
1.17443
1.16719
1.15982
1.15309
1.14553
1.1394
1.13237
1.12433
1.11276
1.11406
1.15546
1.36217
1.51433
1.52722
1.52008
1.51203
1.50553
1.49957
1.49346
1.48675
1.47996
1.47385
1.46804
1.46206
1.45577
1.44928
1.44298
1.43707
1.43132
1.42545
1.41953
1.41382
1.40835
1.40302
1.39766
1.39217
1.38657
1.38091
1.37542
1.37055
1.36637
1.36249
1.35861
1.35467
1.35063
1.3465
1.34237
1.33843
1.33475
1.3314
1.32834
1.32528
1.32199
1.31837
1.31441
1.31051
1.30713
1.30384
1.30053
1.29726
1.29436
1.29142
1.28837
1.28517
1.41275
1.40217
1.3903
1.38073
1.37017
1.35875
1.3502
1.33986
1.33015
1.32153
1.3126
1.30266
1.29407
1.28626
1.2763
1.26817
1.26078
1.25141
1.24344
1.23634
1.22755
1.21998
1.21238
1.20453
1.19667
1.19009
1.18187
1.17509
1.16771
1.16106
1.15391
1.14681
1.13539
1.13067
1.14617
1.27741
1.50534
1.55586
1.55121
1.54215
1.53389
1.5274
1.52148
1.51533
1.50879
1.5021
1.49558
1.48932
1.4831
1.47654
1.46963
1.46298
1.45713
1.45163
1.44588
1.43975
1.43351
1.42747
1.42179
1.41642
1.4111
1.40556
1.3997
1.39382
1.3884
1.38366
1.37951
1.37569
1.37191
1.36789
1.36349
1.35885
1.35456
1.35095
1.34776
1.34457
1.34109
1.33704
1.33233
1.32786
1.3244
1.32128
1.31803
1.31455
1.31112
1.30778
1.30455
1.30127
1.44027
1.4294
1.41763
1.40735
1.39674
1.38542
1.37598
1.3652
1.35542
1.34602
1.33651
1.32736
1.31764
1.30942
1.29975
1.29121
1.28293
1.27416
1.26618
1.2578
1.24965
1.24208
1.23335
1.22615
1.21838
1.21069
1.20365
1.19617
1.18853
1.1814
1.17492
1.16751
1.15845
1.14803
1.1521
1.21062
1.4371
1.56791
1.57733
1.56928
1.56107
1.55563
1.55028
1.54396
1.53691
1.52966
1.52262
1.51618
1.51016
1.50394
1.49708
1.48972
1.48283
1.47692
1.47142
1.46582
1.4599
1.45361
1.44704
1.44059
1.43469
1.42922
1.42379
1.41814
1.41234
1.40665
1.40136
1.3967
1.39267
1.38885
1.38465
1.37975
1.37457
1.37028
1.36696
1.36387
1.36045
1.35622
1.35088
1.34548
1.34175
1.33897
1.33613
1.33281
1.32895
1.32473
1.32092
1.31749
1.46323
1.45345
1.44246
1.43221
1.42184
1.4105
1.40062
1.3906
1.38
1.37011
1.36065
1.3505
1.34051
1.33235
1.32234
1.31345
1.30485
1.29619
1.28754
1.27869
1.27121
1.26254
1.25403
1.24687
1.23873
1.2309
1.22386
1.21585
1.20893
1.2009
1.19432
1.18736
1.17972
1.16754
1.16431
1.1837
1.33015
1.55662
1.60036
1.5964
1.5877
1.5818
1.57675
1.57085
1.56433
1.55754
1.55053
1.54363
1.53706
1.53064
1.52402
1.51699
1.50982
1.50299
1.49683
1.49124
1.48576
1.47982
1.47305
1.46551
1.45825
1.45232
1.44723
1.44223
1.43698
1.43142
1.42546
1.41908
1.41304
1.40849
1.40482
1.40092
1.39636
1.39145
1.38701
1.38324
1.37951
1.37515
1.36966
1.36392
1.36007
1.35734
1.35457
1.35111
1.34678
1.34184
1.33751
1.33393
1.47596
1.46876
1.46011
1.45141
1.44248
1.4323
1.4228
1.41328
1.40308
1.39316
1.38357
1.37366
1.36347
1.35438
1.34492
1.33535
1.32624
1.3177
1.30865
1.29964
1.29169
1.28262
1.27489
1.26645
1.25841
1.25128
1.24266
1.23516
1.22829
1.21989
1.21303
1.20634
1.19899
1.18918
1.17885
1.18369
1.24311
1.46669
1.61639
1.62686
1.6179
1.60939
1.60317
1.59733
1.59102
1.58465
1.57814
1.57126
1.56439
1.55783
1.5513
1.54432
1.53672
1.52888
1.52186
1.51631
1.51137
1.50603
1.49981
1.49241
1.48408
1.47619
1.46991
1.46476
1.45999
1.45515
1.44983
1.44365
1.43665
1.42984
1.42439
1.42017
1.41635
1.4124
1.40833
1.40424
1.39976
1.39432
1.38774
1.38209
1.37876
1.37635
1.37382
1.37042
1.36585
1.36013
1.35459
1.35041
1.48127
1.47484
1.46728
1.46007
1.45316
1.44543
1.43785
1.43005
1.42125
1.41215
1.40343
1.39421
1.38482
1.3756
1.36642
1.35717
1.34743
1.33891
1.32983
1.3204
1.31227
1.30323
1.29492
1.28669
1.27819
1.27055
1.26209
1.25466
1.24654
1.23928
1.23183
1.2242
1.21772
1.20958
1.1968
1.19379
1.21031
1.33567
1.56696
1.64695
1.64942
1.6396
1.62929
1.62333
1.6184
1.61278
1.60606
1.59863
1.59133
1.58466
1.5783
1.57161
1.56421
1.55609
1.54827
1.54202
1.53678
1.53146
1.52544
1.51834
1.51007
1.50163
1.49454
1.48879
1.48352
1.47819
1.47255
1.46652
1.46011
1.45361
1.44769
1.4423
1.43682
1.43168
1.42776
1.42438
1.42043
1.41532
1.40883
1.40228
1.3979
1.39488
1.39221
1.38884
1.3843
1.37876
1.37295
1.36799
1.48361
1.4781
1.47114
1.46416
1.45754
1.45048
1.44356
1.43691
1.42989
1.42255
1.41575
1.40816
1.40045
1.39234
1.38404
1.37604
1.36671
1.35856
1.34996
1.34076
1.3326
1.32355
1.31532
1.30694
1.29815
1.29037
1.28184
1.27397
1.26612
1.25835
1.25077
1.24302
1.23619
1.22856
1.21897
1.20768
1.21091
1.25164
1.44312
1.6434
1.67608
1.67048
1.65895
1.6505
1.64507
1.63929
1.6322
1.62468
1.61775
1.61146
1.60537
1.59905
1.59205
1.58395
1.57524
1.56788
1.5622
1.5569
1.55115
1.54445
1.53653
1.52786
1.52002
1.51388
1.50858
1.50316
1.497
1.4896
1.4812
1.4742
1.46953
1.46531
1.46047
1.45477
1.44887
1.44404
1.43973
1.43485
1.42905
1.42305
1.41839
1.41504
1.412
1.40813
1.40329
1.3977
1.39164
1.38606
1.47907
1.47449
1.46913
1.46407
1.45865
1.45265
1.44648
1.44012
1.43385
1.42683
1.42046
1.41362
1.40703
1.40024
1.39332
1.38713
1.37944
1.37249
1.36537
1.35711
1.34999
1.34155
1.33388
1.32595
1.31745
1.30974
1.30155
1.29356
1.28585
1.27784
1.27024
1.26228
1.25518
1.24777
1.24015
1.22797
1.22124
1.23157
1.31506
1.55094
1.6924
1.69861
1.69031
1.67967
1.67244
1.66649
1.65967
1.65227
1.64503
1.63836
1.63219
1.62609
1.61955
1.61194
1.60311
1.59475
1.58824
1.58264
1.57694
1.57062
1.56332
1.55484
1.54599
1.53865
1.53289
1.52745
1.52153
1.51461
1.5064
1.49809
1.49192
1.48726
1.4825
1.47681
1.47047
1.46505
1.46065
1.45606
1.45064
1.44434
1.43847
1.43439
1.43095
1.427
1.4224
1.41731
1.41163
1.4057
1.46314
1.46136
1.45877
1.45594
1.45226
1.44821
1.44365
1.43827
1.43329
1.42744
1.42209
1.41623
1.41004
1.40387
1.39726
1.3915
1.38455
1.37813
1.3722
1.36516
1.35939
1.35254
1.34607
1.33967
1.33208
1.32546
1.31817
1.3109
1.30362
1.29617
1.28871
1.28131
1.27401
1.26698
1.25995
1.2508
1.23896
1.23812
1.25748
1.39283
1.62098
1.72665
1.72503
1.71629
1.70405
1.69538
1.68867
1.68141
1.67322
1.66547
1.6594
1.65387
1.64771
1.64019
1.63096
1.62152
1.61426
1.60857
1.60301
1.59683
1.58968
1.58148
1.57303
1.56577
1.55979
1.55374
1.54658
1.53784
1.52851
1.52123
1.51623
1.51178
1.50678
1.5006
1.49283
1.4854
1.48054
1.47678
1.47246
1.46719
1.46123
1.45557
1.45055
1.44576
1.44102
1.43629
1.43133
1.42607
1.43071
1.43262
1.43372
1.43395
1.4334
1.43225
1.43044
1.42803
1.42523
1.42128
1.41734
1.41273
1.40784
1.40333
1.39759
1.39246
1.38664
1.38073
1.37542
1.36894
1.36337
1.35711
1.35074
1.34533
1.33862
1.33298
1.32728
1.32088
1.31495
1.30869
1.30234
1.29587
1.28959
1.28301
1.2766
1.26976
1.26019
1.25044
1.25361
1.29195
1.4626
1.67579
1.75961
1.75575
1.74387
1.72947
1.72132
1.71397
1.70448
1.69352
1.68613
1.68158
1.67672
1.67015
1.66116
1.64991
1.64024
1.63438
1.62971
1.62462
1.61823
1.6094
1.59836
1.58989
1.58458
1.57958
1.57339
1.56532
1.55518
1.54577
1.53967
1.53487
1.52977
1.52347
1.51562
1.50783
1.50262
1.49864
1.49433
1.4891
1.48295
1.47663
1.47085
1.46569
1.46091
1.45626
1.45142
1.44622
1.38842
1.39135
1.39446
1.39734
1.39973
1.40163
1.40288
1.40363
1.40374
1.40309
1.4019
1.39995
1.3975
1.39457
1.39081
1.38743
1.38298
1.3783
1.37397
1.36847
1.36371
1.35857
1.35282
1.34794
1.34195
1.33638
1.33133
1.32501
1.31953
1.31388
1.30811
1.30263
1.2973
1.2915
1.28589
1.28055
1.2741
1.26566
1.25885
1.26434
1.32335
1.51859
1.72001
1.78525
1.78327
1.77251
1.75719
1.74939
1.7403
1.7287
1.71575
1.70767
1.70276
1.69766
1.69111
1.68258
1.67233
1.66244
1.65515
1.64944
1.64367
1.63657
1.62753
1.61846
1.6115
1.60524
1.59826
1.58974
1.57975
1.5714
1.56587
1.5609
1.55497
1.54744
1.53801
1.52953
1.52458
1.52107
1.51723
1.5122
1.50576
1.49817
1.49087
1.48527
1.48077
1.47659
1.47218
1.46707
1.35709
1.35695
1.35738
1.35869
1.36078
1.36297
1.36531
1.36754
1.3695
1.37122
1.37278
1.37377
1.37417
1.37392
1.37308
1.37173
1.36988
1.36759
1.36485
1.3614
1.35814
1.35408
1.3496
1.34571
1.3408
1.33601
1.33165
1.3261
1.32121
1.31656
1.31095
1.30612
1.30075
1.29532
1.28986
1.28481
1.27928
1.27362
1.26594
1.26057
1.2702
1.34757
1.55914
1.74538
1.80464
1.81455
1.80309
1.78839
1.77582
1.76258
1.74949
1.73989
1.7329
1.72605
1.71837
1.70991
1.70108
1.69267
1.68537
1.67891
1.67169
1.66242
1.65162
1.64326
1.63774
1.63257
1.62619
1.61771
1.60664
1.59638
1.58987
1.58501
1.57945
1.57201
1.56262
1.55351
1.54764
1.54337
1.53921
1.53408
1.52755
1.51981
1.51208
1.50607
1.50152
1.49734
1.49278
1.48731
1.34696
1.34375
1.34068
1.33832
1.33652
1.33534
1.33477
1.33482
1.3356
1.33658
1.3377
1.33932
1.34092
1.34224
1.34368
1.34441
1.34484
1.34499
1.3445
1.34364
1.34232
1.34042
1.33821
1.33567
1.33254
1.32941
1.32608
1.32187
1.31808
1.31406
1.30939
1.30527
1.30056
1.29564
1.2912
1.28627
1.28183
1.27662
1.27064
1.26337
1.25913
1.27257
1.36149
1.57839
1.75185
1.81922
1.84906
1.83795
1.82267
1.80393
1.78364
1.76836
1.76237
1.75793
1.75157
1.74286
1.73043
1.71655
1.70896
1.70474
1.69972
1.69212
1.68173
1.67024
1.66202
1.65643
1.65095
1.64374
1.63411
1.6238
1.61621
1.61025
1.60389
1.59613
1.58688
1.57775
1.57128
1.5665
1.56185
1.55612
1.54907
1.54096
1.53283
1.52673
1.52233
1.51822
1.51338
1.50749
1.34701
1.34267
1.33853
1.33481
1.33082
1.32705
1.32354
1.32055
1.31847
1.31644
1.31456
1.31325
1.31258
1.31247
1.31271
1.31334
1.31391
1.31473
1.31529
1.31587
1.31616
1.3161
1.31601
1.31535
1.31421
1.31293
1.31114
1.30896
1.3067
1.30401
1.30108
1.29798
1.29427
1.2907
1.28714
1.28316
1.27919
1.27493
1.26988
1.2644
1.25741
1.25315
1.26876
1.35906
1.57059
1.74783
1.83333
1.87664
1.87121
1.85358
1.83034
1.80778
1.79362
1.78631
1.78037
1.7727
1.76183
1.74777
1.7368
1.73023
1.72424
1.71705
1.70787
1.69732
1.68895
1.68301
1.67698
1.6694
1.65959
1.64905
1.64119
1.63512
1.62884
1.6213
1.61233
1.60266
1.59474
1.58895
1.58361
1.57752
1.57061
1.56292
1.55477
1.548
1.54297
1.53822
1.53283
1.52662
1.35104
1.3461
1.34124
1.33672
1.33245
1.32802
1.32382
1.31925
1.31502
1.31182
1.3081
1.30467
1.30205
1.29877
1.29613
1.29411
1.2923
1.29101
1.28986
1.28918
1.28872
1.28853
1.2884
1.28829
1.28808
1.28768
1.2872
1.28647
1.2856
1.2844
1.28304
1.28125
1.27912
1.27702
1.27467
1.27196
1.26897
1.26581
1.26263
1.25882
1.25326
1.24594
1.24123
1.25615
1.33851
1.53559
1.73146
1.84226
1.89093
1.89464
1.87891
1.85396
1.83518
1.82467
1.81484
1.80377
1.78963
1.7742
1.76425
1.75827
1.75221
1.74423
1.73364
1.72118
1.71239
1.70711
1.70214
1.6953
1.68609
1.67508
1.66568
1.65881
1.65258
1.64559
1.63725
1.62772
1.6188
1.61163
1.60512
1.59846
1.59152
1.58411
1.57623
1.56922
1.5635
1.55793
1.55191
1.54544
1.35647
1.35176
1.34645
1.34127
1.33635
1.33159
1.32732
1.32282
1.31792
1.31357
1.30926
1.30461
1.30092
1.29719
1.29339
1.28942
1.28588
1.28301
1.27943
1.2766
1.27438
1.27159
1.26923
1.26754
1.2658
1.26421
1.26302
1.26184
1.26085
1.25982
1.25869
1.25753
1.25636
1.25507
1.25354
1.2518
1.2498
1.24772
1.24579
1.24378
1.24061
1.23541
1.2279
1.22297
1.23484
1.30212
1.47369
1.68594
1.84672
1.89498
1.90229
1.88798
1.87434
1.86368
1.85311
1.84064
1.82395
1.80446
1.79134
1.78402
1.77806
1.77019
1.75981
1.74699
1.73693
1.73089
1.72553
1.71882
1.70998
1.69922
1.68962
1.68266
1.67641
1.66952
1.66123
1.65143
1.64164
1.63353
1.62652
1.61983
1.61304
1.60565
1.59756
1.58989
1.58319
1.57679
1.5704
1.56407
1.35814
1.35508
1.35146
1.34733
1.34236
1.33723
1.33214
1.32747
1.32289
1.31812
1.31365
1.30863
1.30401
1.29967
1.29541
1.29131
1.28696
1.28309
1.27894
1.27468
1.27139
1.26803
1.26376
1.26071
1.25745
1.25379
1.25118
1.24808
1.24556
1.24278
1.24013
1.23816
1.23575
1.23345
1.2317
1.22974
1.22725
1.2254
1.22362
1.22175
1.21978
1.21665
1.21228
1.20567
1.20111
1.20766
1.2518
1.39155
1.60825
1.81779
1.88389
1.89062
1.89331
1.89341
1.88732
1.87498
1.85738
1.83651
1.82253
1.8141
1.80597
1.79624
1.78422
1.77018
1.76004
1.75423
1.7491
1.74233
1.73329
1.72202
1.71205
1.70528
1.69936
1.69264
1.68435
1.67443
1.6641
1.65514
1.64771
1.64099
1.63424
1.62674
1.61844
1.61018
1.60257
1.59551
1.58906
1.58275
1.35707
1.35456
1.35247
1.3495
1.34628
1.34257
1.33823
1.33337
1.3287
1.32407
1.31946
1.31475
1.30993
1.3047
1.29979
1.29535
1.29078
1.28662
1.28248
1.27778
1.27338
1.26957
1.26519
1.26106
1.25745
1.25337
1.24944
1.2454
1.24207
1.23831
1.23425
1.23115
1.2278
1.22394
1.22049
1.21769
1.21397
1.21093
1.20827
1.20502
1.20188
1.19846
1.19582
1.1918
1.18668
1.18192
1.18146
1.2058
1.30193
1.51072
1.74023
1.8403
1.88194
1.90133
1.90146
1.89322
1.87855
1.86058
1.84912
1.84198
1.83451
1.82437
1.81108
1.7952
1.7833
1.77665
1.77139
1.76454
1.75524
1.74354
1.73351
1.72716
1.72154
1.71471
1.70613
1.69596
1.68548
1.67653
1.66919
1.66245
1.65544
1.64756
1.63891
1.63018
1.62204
1.61475
1.60816
1.60176
1.3575
1.35436
1.34969
1.34717
1.34598
1.34407
1.34087
1.33765
1.33365
1.32924
1.32489
1.32103
1.3169
1.31228
1.30721
1.30198
1.29699
1.29174
1.28722
1.28312
1.27825
1.27381
1.26939
1.26472
1.2607
1.2566
1.2524
1.24794
1.2438
1.23987
1.23546
1.23137
1.2278
1.22374
1.21909
1.21555
1.21162
1.20765
1.20399
1.20006
1.19626
1.1917
1.18862
1.18531
1.18039
1.17604
1.17105
1.16764
1.17786
1.23448
1.39598
1.62681
1.78353
1.87997
1.90423
1.89851
1.88331
1.86879
1.86145
1.85783
1.85521
1.84746
1.83507
1.81907
1.80645
1.7989
1.79309
1.78578
1.776
1.76382
1.75365
1.7475
1.74214
1.73551
1.72715
1.71714
1.70659
1.69758
1.69032
1.68355
1.67627
1.66805
1.65916
1.65024
1.64195
1.63458
1.62783
1.62134
1.334
1.34244
1.34589
1.34513
1.34186
1.33904
1.33806
1.33814
1.33547
1.33217
1.3287
1.3244
1.32065
1.31728
1.31401
1.31025
1.3057
1.30044
1.29502
1.28983
1.28505
1.28029
1.27573
1.27111
1.26615
1.26135
1.25701
1.25269
1.2482
1.2441
1.23974
1.23503
1.23114
1.22713
1.2224
1.21837
1.21447
1.21013
1.20561
1.20135
1.19747
1.19295
1.18912
1.18545
1.18063
1.1761
1.17111
1.16702
1.16378
1.16562
1.19208
1.29832
1.50231
1.71453
1.8622
1.88699
1.87824
1.869
1.86365
1.86319
1.86281
1.85695
1.84704
1.83385
1.82424
1.81802
1.81266
1.80512
1.79509
1.78278
1.77264
1.76661
1.76124
1.75462
1.74658
1.73715
1.72692
1.71798
1.71085
1.70411
1.69674
1.68856
1.67984
1.67102
1.66265
1.65504
1.64795
1.64127
1.27438
1.29284
1.3068
1.31951
1.33041
1.33184
1.33146
1.33038
1.3289
)
;

boundaryField
{
    inlet
    {
        type            fixedValue;
        value           nonuniform 0();
    }
    outlet
    {
        type            zeroGradient;
    }
    bottom
    {
        type            symmetryPlane;
    }
    top
    {
        type            symmetryPlane;
    }
    obstacle
    {
        type            zeroGradient;
    }
    front
    {
        type            empty;
    }
    back
    {
        type            empty;
    }
    procBoundary36to21
    {
        type            processor;
        value           nonuniform List<scalar> 8(1.17136 1.18347 1.19586 1.20878 1.22237 1.23666 1.25124 1.26629);
    }
    procBoundary36to28
    {
        type            processor;
        value           nonuniform List<scalar> 
89
(
1.18916
1.18763
1.18626
1.185
1.18368
1.18236
1.18118
1.18009
1.17905
1.17805
1.17704
1.17597
1.17482
1.17359
1.17236
1.1712
1.17015
1.16926
1.16846
1.16771
1.167
1.16634
1.16562
1.16479
1.16374
1.16277
1.16199
1.16092
1.15922
1.15037
1.14149
1.13264
1.12304
1.11413
1.10613
1.09812
1.08952
1.08237
1.0743
1.06585
1.05739
1.04999
1.04214
1.03475
1.02808
1.02096
1.0144
1.00692
1.00043
0.992984
0.987097
0.980279
0.97511
0.96923
0.964036
0.9587
0.95303
0.945407
0.93879
0.942432
0.998912
1.19265
1.29343
1.29646
1.29352
1.28898
1.28475
1.28066
1.27655
1.27278
1.26928
1.26569
1.26187
1.2578
1.25386
1.25015
1.24641
1.24271
1.23913
1.23562
1.2323
1.22908
1.22578
1.22241
1.21915
1.21615
1.2135
1.21112
1.21112
)
;
    }
    procBoundary36to29
    {
        type            processor;
        value           nonuniform List<scalar> 
19
(
1.28194
1.298
1.31427
1.33079
1.34728
1.36447
1.38223
1.40093
1.42098
1.44072
1.46112
1.48087
1.50064
1.51977
1.53872
1.5576
1.57648
1.59547
1.615
)
;
    }
    procBoundary36to35
    {
        type            processor;
        value           nonuniform List<scalar> 
27
(
1.18949
1.21437
1.24174
1.2712
1.30198
1.33327
1.36315
1.39404
1.42353
1.45158
1.47343
1.48411
1.48874
1.4893
1.48352
1.4642
1.42817
1.3857
1.35794
1.34998
1.35151
1.35625
1.36042
1.36113
1.36154
1.35693
1.32407
)
;
    }
    procBoundary36to37
    {
        type            processor;
        value           uniform 1.63474;
    }
    procBoundary36to43
    {
        type            processor;
        value           uniform 1.24502;
    }
    procBoundary36to44
    {
        type            processor;
        value           nonuniform List<scalar> 
89
(
1.32988
1.32966
1.32677
1.32303
1.31918
1.31586
1.31288
1.3102
1.30734
1.30376
1.29929
1.29441
1.28923
1.28424
1.27945
1.27471
1.2699
1.26467
1.25968
1.25484
1.25009
1.24598
1.24135
1.23642
1.23215
1.22764
1.22292
1.21919
1.21509
1.21017
1.20547
1.20161
1.1975
1.19291
1.18909
1.18454
1.17977
1.17539
1.1715
1.16674
1.16241
1.15937
1.17035
1.23037
1.38942
1.62083
1.80942
1.85098
1.85984
1.86066
1.8654
1.8662
1.86016
1.84953
1.83719
1.83105
1.82828
1.8266
1.82006
1.81059
1.79867
1.78883
1.78302
1.77802
1.77184
1.76435
1.75528
1.74517
1.73678
1.73011
1.72342
1.71607
1.70812
1.69969
1.69112
1.68294
1.67535
1.66831
1.66162
1.14753
1.18432
1.21939
1.24782
1.26988
1.28665
1.30344
1.31429
1.32988
1.31555
)
;
    }
}


// ************************************************************************* //
