/*--------------------------------*- C++ -*----------------------------------*\
  =========                 |
  \\      /  F ield         | OpenFOAM: The Open Source CFD Toolbox
   \\    /   O peration     | Website:  https://openfoam.org
    \\  /    A nd           | Version:  7
     \\/     M anipulation  |
\*---------------------------------------------------------------------------*/
FoamFile
{
    version     2.0;
    format      ascii;
    class       volScalarField;
    location    "3.5";
    object      p;
}
// * * * * * * * * * * * * * * * * * * * * * * * * * * * * * * * * * * * * * //

dimensions      [1 -1 -2 0 0 0 0];

internalField   nonuniform List<scalar> 
1008
(
5.10191
7.55791
7.24915
6.9254
6.58601
6.24262
1
1
1
1
1
1
1
1
1
1
1
1
1
1
1
1
1
1.00335
2.19939
6.40304
7.20655
6.89314
6.5828
6.25831
1
1
1
1
1
1
1
1
1
1
1
1
1
1
1
1
1
1.00001
1.10367
3.99476
7.02244
6.90992
6.62305
6.31338
1
1
1
1
1
1
1
1
1
1
1
1
1
1
1
1
1
1
1.00137
1.62791
5.49864
6.92268
6.64455
6.33586
1
1
1
1
1
1
1
1
1
1
1
1
1
1
1
1
1
1
1
1.03131
2.70818
6.14452
6.65566
6.37237
1
1
1
1
1
1
1
1
1
1
1
1
1
1
1
1
1
1
1
1.00031
1.20589
4.03751
6.42653
6.43048
1
1
1
1
1
1
1
1
1
1
1
1
1
1
1
1
1
1
1
1
1.00482
1.68758
4.98861
6.37695
1
1
1
1
1
1
1
1
1
1
1
1
1
1
1
1
1
1
1
1
1.00003
1.03852
2.40088
5.52782
1
1
1
1
1
1
1
1
1
1
1
1
1
1
1
1
1
1
1
1
1
1.00047
1.14709
3.23151
1
1
1
1
1
1
1
1
1
1
1
1
1
1
1
1
1
1
1
1
1
1
1.00325
1.37485
1
1
1
1
1
1
1
1
1
1
1
1
1
1
1
1
1
1
1
1
1
1
1.00002
1.01438
1
1
1
1
1
1
1
1
1
1
1
1
1
1
1
1
1
1
1
1
1
1
1
1.00013
1
1
1
1
1
1
1
1
1
1
1
1
1
1
1
1
1
1
1
1
1
1
1
1
1
1
1
1
1
1
1
1
1
1
1
1
1
1
1
1
1
1
1
1
1
1
1
1
1
1
1
1
1
1
1
1
1
1
1
1
1
1
1
1
1
1
1
1
1
1
1
1
1
1
1
1
1
1
1
1
1
1
1
1
1
1
1
1
1
1
1
1
1
1
1
1
1
1
1
1
1
1
1
1
1
1
1
1
1
1
1
1
1
1
1
1
1
1
1
1
1
1
1
1
1
1
1
1
1
1
1
1
1
1
1
1
1
1
1
1
1
1
1
1
5.8876
5.5384
5.20085
4.86026
4.53759
4.24555
3.95821
3.66452
3.42869
3.21127
3.00199
2.78384
2.6247
2.46789
2.30785
2.16459
2.07001
2.18794
2.76331
3.44512
3.84643
3.86387
3.73212
3.6354
3.54889
3.42924
3.27653
3.17585
3.11013
3.04697
2.97992
2.90641
2.82289
5.92922
5.60302
5.27431
4.94905
4.65346
4.3684
4.07898
3.80303
3.57957
3.36152
3.1358
2.93259
2.76871
2.59216
2.44537
2.35137
2.54419
3.27025
4.15815
4.30914
4.18329
4.01406
3.90232
3.8507
3.77573
3.66529
3.51401
3.35518
3.25202
3.17349
3.10005
3.02337
2.9412
5.99682
5.68023
5.35772
5.04759
4.76157
4.48007
4.1947
3.94581
3.71827
3.49881
3.25851
3.0792
2.89247
2.72963
2.70481
3.01352
3.76345
4.59361
4.78424
4.64111
4.40385
4.2137
4.11026
4.04575
3.96135
3.84659
3.71598
3.56356
3.41934
3.3092
3.21871
3.13369
3.04857
6.03323
5.72393
5.41411
5.13073
4.8536
4.57101
4.30091
4.07211
3.84591
3.61481
3.3783
3.20113
3.03069
3.11917
3.65773
4.49242
4.98022
5.20113
5.09619
4.90378
4.70595
4.4878
4.29715
4.18838
4.10258
4.00188
3.88863
3.75628
3.60071
3.45497
3.34296
3.25032
3.16214
6.07316
5.77956
5.48947
5.21695
4.94747
4.66817
4.42495
4.18838
3.96232
3.70343
3.51824
3.38034
3.58865
4.39034
5.42607
5.58949
5.45592
5.34217
5.22438
5.10964
4.95738
4.75263
4.50797
4.34116
4.24395
4.15212
4.0401
3.91372
3.77116
3.61644
3.47561
3.365
3.26959
6.15393
5.85537
5.57867
5.3109
5.03887
4.77319
4.52757
4.29699
4.04876
3.83565
3.79352
4.21458
5.12015
6.0752
6.44046
6.20024
5.77719
5.45796
5.32784
5.27464
5.1643
4.99234
4.76929
4.54574
4.40557
4.29226
4.17397
4.04751
3.91455
3.77266
3.62375
3.48589
3.37
6.21728
5.92004
5.65626
5.39073
5.1132
4.87083
4.60944
4.39614
4.18968
4.3328
5.06082
6.1036
6.58336
6.72685
6.62021
6.35097
6.02715
5.71634
5.56312
5.48135
5.37115
5.21163
5.0105
4.77125
4.57031
4.42684
4.29876
4.1699
4.04105
3.90879
3.76375
3.6109
3.47228
6.22032
6.00574
5.73393
5.44225
5.19774
4.93876
4.72534
4.6387
5.05037
6.09956
7.19603
7.41177
7.25699
6.98066
6.6743
6.48259
6.27999
6.03254
5.84467
5.70703
5.55984
5.38939
5.1923
4.95819
4.74403
4.58065
4.43893
4.30093
4.16243
4.02198
3.87425
3.72061
3.57753
5.72764
6.07223
5.8431
5.51664
5.27313
5.05443
5.24489
6.04684
7.20338
8.00991
8.10317
7.76304
7.45049
7.18466
6.92775
6.75417
6.56795
6.31389
6.08445
5.90992
5.73804
5.55033
5.34712
5.12421
4.91
4.73785
4.5886
4.44287
4.29412
4.13874
3.9754
3.81122
3.66288
3.95569
5.83222
5.84344
5.59336
5.47129
6.02087
7.43784
8.46221
8.64973
8.63046
8.3606
7.96621
7.63591
7.44595
7.25371
7.03565
6.80904
6.53478
6.27736
6.09189
5.91367
5.71811
5.50415
5.27951
5.06709
4.88256
4.71891
4.56327
4.40705
4.24596
4.0782
3.90737
3.74684
1.72412
4.56508
5.54437
5.89407
7.06422
8.71077
9.77
9.54697
9.06181
8.80773
8.53833
8.2147
7.89091
7.67767
7.50699
7.27593
7.03154
6.76782
6.49739
6.28905
6.10079
5.90087
5.68647
5.45306
5.21676
5.00943
4.83076
4.66434
4.50105
4.33684
4.16751
3.99318
3.8246
1.0473
2.19182
4.17921
8.10955
10.2835
10.4761
10.3674
9.88471
9.36635
9.06485
8.83563
8.51944
8.15844
7.87002
7.6866
7.46583
7.22126
6.97286
6.70238
6.45979
6.25255
6.03981
5.81734
5.58302
5.34423
5.12367
4.93094
4.75655
4.5887
4.4205
4.24749
4.07054
3.89946
1.00077
1.10761
3.45956
11.2869
11.9682
10.9984
10.4678
10.0382
9.59682
9.28648
9.04016
8.78835
8.4629
8.1533
7.95702
7.75057
7.51131
7.26289
6.99176
6.71982
6.48766
6.26767
6.03447
5.79026
5.54562
5.31886
5.11894
4.93799
4.76421
4.58983
4.41053
4.22766
4.05066
1
1.00286
4.28267
11.6848
11.7414
10.819
10.3334
10.018
9.72509
9.48237
9.26419
9.05819
8.73237
8.38815
8.1406
7.89855
7.61918
7.34268
7.07436
6.80106
6.55112
6.31533
6.0694
5.81557
5.56811
5.33952
5.13487
4.94817
4.76847
4.5881
4.40383
4.21876
4.04088
1
1.00006
5.1952
11.0743
11.2759
10.8264
10.5407
10.2731
10.0026
9.7487
9.49079
9.18629
8.8254
8.4967
8.21383
7.98664
7.73795
7.44273
7.17562
6.92649
6.66625
6.41375
6.15867
5.9009
5.65379
5.42384
5.21136
5.01338
4.82436
4.63943
4.45568
4.27576
4.10446
1
1
5.58593
10.7213
10.9724
10.7717
10.5569
10.298
10.0471
9.79588
9.54621
9.26422
8.96239
8.67549
8.40416
8.14416
7.88091
7.57729
7.28287
7.03649
6.77851
6.51107
6.24802
5.98021
5.72066
5.47827
5.25516
5.04989
4.85672
4.66976
4.48367
4.29988
4.1246
1
1
5.64151
10.6168
10.8608
10.6911
10.5389
10.3185
10.0871
9.83154
9.55904
9.26725
8.97214
8.68495
8.40871
8.12701
7.839
7.54645
7.27175
7.03202
6.78423
6.50629
6.24227
5.99108
5.75455
5.53537
5.3276
5.12072
4.90676
4.68762
4.4765
4.28771
4.12279
1
1
5.59819
10.5786
10.8227
10.6566
10.5143
10.3027
10.0753
9.82564
9.56482
9.30048
9.03972
8.78108
8.52033
8.25623
7.97113
7.68058
7.39576
7.12484
6.83732
6.54163
6.28151
6.04104
5.81295
5.5938
5.37669
5.15235
4.91526
4.67509
4.45708
4.27753
4.1275
)
;

boundaryField
{
    inlet
    {
        type            fixedValue;
        value           uniform 1;
    }
    outlet
    {
        type            zeroGradient;
    }
    bottom
    {
        type            symmetryPlane;
    }
    top
    {
        type            symmetryPlane;
    }
    obstacle
    {
        type            zeroGradient;
    }
    defaultFaces
    {
        type            empty;
    }
    procBoundary2to0
    {
        type            processor;
        value           nonuniform List<scalar> 
58
(
7.00066
7.5775
7.28136
6.94625
6.58905
6.22034
1
1
1
1
1
1
1
1
1
1
1
1
1
1
1
1
1.00002
1.19455
1.19455
5.84011
5.46264
5.10779
4.7544
4.40618
4.10258
3.81375
3.51349
3.26507
3.05561
2.84883
2.63326
2.46327
2.32456
2.17659
2.03685
1.91486
1.8151
1.87397
2.26821
2.96617
3.55992
3.58685
3.47974
3.33586
3.17608
3.07395
3.01956
2.96708
2.9101
2.84838
2.77732
2.68277
)
;
    }
    procBoundary2to1
    {
        type            processor;
        value           nonuniform List<scalar> 2(2.71847 2.8482);
    }
    procBoundary2to3
    {
        type            processor;
        value           nonuniform List<scalar> 
16
(
2.96002
3.07287
3.17614
3.2674
3.35459
3.45322
3.53601
3.60856
3.67655
3.74773
3.89133
3.87816
3.94381
3.96078
3.9751
3.99323
)
;
    }
}


// ************************************************************************* //
