/*--------------------------------*- C++ -*----------------------------------*\
  =========                 |
  \\      /  F ield         | OpenFOAM: The Open Source CFD Toolbox
   \\    /   O peration     | Website:  https://openfoam.org
    \\  /    A nd           | Version:  7
     \\/     M anipulation  |
\*---------------------------------------------------------------------------*/
FoamFile
{
    version     2.0;
    format      ascii;
    class       volScalarField;
    location    "3.5";
    object      T;
}
// * * * * * * * * * * * * * * * * * * * * * * * * * * * * * * * * * * * * * //

dimensions      [0 0 0 1 0 0 0];

internalField   nonuniform List<scalar> 
1008
(
1.94655
2.26471
2.24717
2.2311
2.21248
2.19126
1
1
1
1
1
1
1
1
1
1
1
1
1
1
1
1
1
1.00124
1.39622
2.08815
2.22439
2.20473
2.18871
2.17036
1
1
1
1
1
1
1
1
1
1
1
1
1
1
1
1
1
1
1.03975
1.76486
2.18213
2.18128
2.16843
2.15241
1
1
1
1
1
1
1
1
1
1
1
1
1
1
1
1
1
1
1.00047
1.22463
1.97441
2.16381
2.14676
2.13017
1
1
1
1
1
1
1
1
1
1
1
1
1
1
1
1
1
1
1
1.01165
1.50992
2.0381
2.13206
2.11246
1
1
1
1
1
1
1
1
1
1
1
1
1
1
1
1
1
1
1
1.0001
1.07773
1.75241
2.08177
2.10036
1
1
1
1
1
1
1
1
1
1
1
1
1
1
1
1
1
1
1
1
1.00167
1.24057
1.87626
2.07568
1
1
1
1
1
1
1
1
1
1
1
1
1
1
1
1
1
1
1
1
1.00001
1.01415
1.42552
1.93587
1
1
1
1
1
1
1
1
1
1
1
1
1
1
1
1
1
1
1
1
1
1.00014
1.05462
1.59244
1
1
1
1
1
1
1
1
1
1
1
1
1
1
1
1
1
1
1
1
1
1
1.00107
1.13586
1
1
1
1
1
1
1
1
1
1
1
1
1
1
1
1
1
1
1
1
1
1
1.00001
1.00504
1
1
1
1
1
1
1
1
1
1
1
1
1
1
1
1
1
1
1
1
1
1
1
1.00004
1
1
1
1
1
1
1
1
1
1
1
1
1
1
1
1
1
1
1
1
1
1
1
1
1
1
1
1
1
1
1
1
1
1
1
1
1
1
1
1
1
1
1
1
1
1
1
1
1
1
1
1
1
1
1
1
1
1
1
1
1
1
1
1
1
1
1
1
1
1
1
1
1
1
1
1
1
1
1
1
1
1
1
1
1
1
1
1
1
1
1
1
1
1
1
1
1
1
1
1
1
1
1
1
1
1
1
1
1
1
1
1
1
1
1
1
1
1
1
1
1
1
1
1
1
1
1
1
1
1
1
1
1
1
1
1
1
1
1
1
1
1
1
1
2.16628
2.13907
2.11029
2.0779
2.04422
2.01165
1.97697
1.93837
1.90586
1.87394
1.84107
1.80409
1.77607
1.74692
1.71519
1.68495
1.666
1.69766
1.82853
1.9539
2.02111
2.01967
1.99769
1.97856
1.96061
1.93775
1.90907
1.88801
1.87267
1.85755
1.84154
1.82421
1.80483
2.14929
2.12589
2.09972
2.07111
2.04258
2.01234
1.97938
1.94586
1.91742
1.88738
1.85364
1.82144
1.79431
1.76319
1.73561
1.72004
1.76571
1.91509
2.05449
2.07313
2.05429
2.02725
2.00741
1.99622
1.98135
1.96086
1.93328
1.90316
1.88167
1.86437
1.84772
1.83023
1.81157
2.13369
2.11262
2.08854
2.0631
2.03773
2.01024
1.97968
1.95168
1.92408
1.89556
1.8616
1.83543
1.80682
1.77743
1.78017
1.84426
1.97851
2.10563
2.12074
2.10104
2.06725
2.03774
2.01921
2.00662
1.9915
1.9716
1.94827
1.92027
1.89281
1.87078
1.85182
1.83341
1.81476
2.11358
2.09457
2.07308
2.05186
2.02912
2.00367
1.97684
1.9524
1.92642
1.89807
1.86696
1.8428
1.82058
1.83887
1.93778
2.06376
2.13256
2.15476
2.13998
2.11405
2.08665
2.0551
2.02594
2.0077
1.99267
1.97519
1.95518
1.93168
1.90394
1.87707
1.85516
1.836
1.81728
2.09452
2.07714
2.05854
2.03969
2.01929
1.99572
1.97378
1.95036
1.92584
1.89556
1.8736
1.86023
1.89844
2.02712
2.16219
2.18019
2.16269
2.1459
2.13045
2.11573
2.09587
2.06835
2.03412
2.00863
1.99215
1.97608
1.95665
1.93477
1.91037
1.88374
1.85839
1.83711
1.818
2.08337
2.06425
2.04652
2.02848
2.00872
1.98758
1.96671
1.94535
1.92068
1.89729
1.90115
1.96964
2.09401
2.21223
2.24559
2.22001
2.17311
2.13685
2.12051
2.11248
2.09759
2.0754
2.04602
2.01462
1.99295
1.97441
1.95469
1.93337
1.9108
1.8867
1.86146
1.83745
1.816
2.06826
2.0498
2.03379
2.0165
1.9966
1.97828
1.95645
1.93803
1.92496
1.94944
2.05246
2.17723
2.23207
2.24508
2.23351
2.20607
2.17309
2.14143
2.12319
2.11181
2.09742
2.07728
2.05151
2.01998
1.99179
1.96996
1.94955
1.92862
1.90739
1.88546
1.86139
1.83564
1.81141
2.04999
2.03651
2.01985
2.00093
1.98478
1.96572
1.94851
1.95285
2.01379
2.14242
2.25268
2.27656
2.26367
2.23923
2.21069
2.1919
2.17219
2.1475
2.12702
2.1108
2.09318
2.07242
2.04763
2.01751
1.9886
1.96503
1.94357
1.9221
1.90025
1.87791
1.8542
1.82927
1.80543
1.95757
2.0268
2.01076
1.9878
1.97045
1.96299
1.99113
2.09012
2.21306
2.29067
2.29746
2.26932
2.2461
2.22493
2.20275
2.18751
2.17083
2.14646
2.12293
2.10383
2.08444
2.06274
2.0381
2.00983
1.98154
1.95769
1.93625
1.91487
1.89282
1.86976
1.84546
1.82065
1.79746
1.70618
1.97175
1.99367
1.97515
1.97837
2.04563
2.18726
2.27403
2.2974
2.29687
2.27843
2.25047
2.22654
2.21295
2.19807
2.18061
2.16158
2.13628
2.11074
2.09134
2.07234
2.0509
2.02628
1.99912
1.97244
1.94869
1.92725
1.90657
1.88566
1.86391
1.84089
1.81685
1.79352
1.24463
1.78669
1.93498
1.98527
2.10928
2.24983
2.33247
2.31663
2.2866
2.27641
2.26025
2.23886
2.21751
2.20281
2.19024
2.17194
2.15122
2.12738
2.10165
2.08091
2.06183
2.04112
2.01814
1.99247
1.96599
1.94231
1.9216
1.90202
1.8823
1.86183
1.83999
1.81676
1.79359
1.01696
1.36511
1.72513
2.15276
2.32429
2.36003
2.35598
2.32769
2.29507
2.27826
2.26466
2.24321
2.21863
2.19775
2.18341
2.16515
2.144
2.12158
2.09657
2.07397
2.0544
2.03376
2.01166
1.98809
1.96387
1.94122
1.92113
1.90265
1.88439
1.86543
1.84509
1.82334
1.80146
1.00023
1.04023
1.65041
2.47221
2.5117
2.45296
2.41118
2.37487
2.33654
2.30941
2.29023
2.27163
2.24712
2.22353
2.20786
2.19014
2.16899
2.1469
2.12285
2.09876
2.07815
2.0586
2.03782
2.01599
1.99391
1.9732
1.9546
1.9373
1.9201
1.90205
1.88251
1.86144
1.84002
1
1.00091
1.92769
2.72749
2.68191
2.57782
2.51367
2.46605
2.42466
2.39194
2.36587
2.34451
2.31467
2.28385
2.2609
2.23792
2.21154
2.18585
2.16137
2.13652
2.11454
2.0951
2.07546
2.05523
2.03526
2.01638
1.99876
1.98155
1.96356
1.94407
1.92285
1.90041
1.87793
1
1.00002
2.15201
2.80545
2.78173
2.71925
2.66357
2.61171
2.56437
2.52323
2.48598
2.44775
2.40769
2.37156
2.33989
2.31382
2.28653
2.25616
2.22975
2.20636
2.18391
2.16433
2.1454
2.12592
2.10659
2.08768
2.06873
2.04905
2.02816
2.00597
1.98261
1.95876
1.93543
1
1
2.19585
2.78769
2.79376
2.77361
2.744
2.70603
2.66726
2.62938
2.59337
2.55636
2.51919
2.48395
2.45058
2.41907
2.38801
2.35467
2.32411
2.29984
2.27667
2.2546
2.23336
2.21043
2.18645
2.16219
2.13784
2.11337
2.08846
2.06283
2.03631
2.00944
1.9833
1
1
2.18133
2.75152
2.79019
2.77766
2.76412
2.74195
2.71562
2.68558
2.65363
2.62022
2.58667
2.55371
2.52166
2.48934
2.45682
2.4248
2.39565
2.37107
2.34685
2.3204
2.29493
2.26922
2.243
2.21665
2.18977
2.16145
2.13098
2.09881
2.06691
2.03746
2.01092
1
1
2.16433
2.7306
2.78583
2.77541
2.76492
2.74677
2.72453
2.69847
2.67038
2.64158
2.61293
2.58439
2.5556
2.52657
2.49605
2.46554
2.43606
2.40864
2.37969
2.34961
2.32225
2.29546
2.26819
2.24008
2.21053
2.17867
2.1441
2.10827
2.07465
2.0457
2.02057
)
;

boundaryField
{
    inlet
    {
        type            fixedValue;
        value           uniform 1;
    }
    outlet
    {
        type            inletOutlet;
        inletValue      nonuniform 0();
        value           nonuniform 0();
    }
    bottom
    {
        type            symmetryPlane;
    }
    top
    {
        type            symmetryPlane;
    }
    obstacle
    {
        type            zeroGradient;
    }
    defaultFaces
    {
        type            empty;
    }
    procBoundary2to0
    {
        type            processor;
        value           nonuniform List<scalar> 
58
(
2.17081
2.29097
2.27381
2.25595
2.23468
2.2098
1
1
1
1
1
1
1
1
1
1
1
1
1
1
1
1
1.00001
1.07469
1.07469
2.18098
2.14937
2.11652
2.08021
2.04157
2.00563
1.96855
1.92648
1.88967
1.85706
1.8226
1.78382
1.75175
1.72454
1.69354
1.6625
1.63397
1.61068
1.62824
1.72968
1.88176
1.98771
1.98769
1.96652
1.93782
1.90776
1.88705
1.8741
1.86107
1.84679
1.83144
1.81415
1.79213
)
;
    }
    procBoundary2to1
    {
        type            processor;
        value           nonuniform List<scalar> 2(1.78129 1.79079);
    }
    procBoundary2to3
    {
        type            processor;
        value           nonuniform List<scalar> 
16
(
1.79548
1.79842
1.79896
1.79611
1.78984
1.78379
1.77679
1.77278
1.7727
1.78152
1.82011
1.85679
1.9132
1.9584
1.98652
1.99754
)
;
    }
}


// ************************************************************************* //
