/*--------------------------------*- C++ -*----------------------------------*\
  =========                 |
  \\      /  F ield         | OpenFOAM: The Open Source CFD Toolbox
   \\    /   O peration     | Website:  https://openfoam.org
    \\  /    A nd           | Version:  7
     \\/     M anipulation  |
\*---------------------------------------------------------------------------*/
FoamFile
{
    version     2.0;
    format      ascii;
    class       volVectorField;
    location    "69";
    object      U;
}
// * * * * * * * * * * * * * * * * * * * * * * * * * * * * * * * * * * * * * //

dimensions      [0 1 -1 0 0 0 0];

internalField   nonuniform List<vector> 
41600
(
(-0.0336655 0.0297711 -1.65651e-20)
(-0.0800488 0.0321269 -2.31098e-20)
(-0.124784 0.0277951 1.42755e-23)
(-0.153523 0.0177657 -1.89293e-20)
(-0.175731 0.00134806 2.52415e-20)
(-0.193316 -0.023922 -5.25834e-20)
(-0.205287 -0.0568611 -6.92966e-21)
(-0.213875 -0.0948707 4.99914e-20)
(-0.217577 -0.132417 -1.0201e-20)
(-0.218287 -0.162343 -1.54909e-20)
(-0.216055 -0.17675 -5.94675e-21)
(-0.211651 -0.168178 1.78299e-20)
(-0.204139 -0.13133 -1.02547e-20)
(-0.191125 -0.0643336 -1.05286e-20)
(-0.172177 0.0268529 -1.02532e-20)
(-0.148181 0.131784 2.35339e-21)
(-0.126909 0.231996 4.98533e-22)
(-0.110355 0.316549 -1.3134e-20)
(-0.0966877 0.364805 2.52395e-21)
(-0.0756163 0.367024 3.66764e-21)
(-0.0250731 0.299108 -1.80784e-20)
(0.0421026 0.170666 1.74303e-20)
(0.137307 0.017753 -5.66123e-21)
(0.207878 -0.136788 1.6335e-21)
(0.280099 -0.254158 5.48025e-21)
(-0.0339776 0.0340947 -7.72263e-20)
(-0.0798616 0.0365618 1.17802e-19)
(-0.124122 0.0319798 -2.38086e-20)
(-0.152582 0.0210997 1.03729e-20)
(-0.174645 0.004362 -7.44358e-20)
(-0.192263 -0.021432 8.17034e-20)
(-0.2044 -0.0548424 -1.2078e-20)
(-0.213313 -0.0934897 -6.53606e-20)
(-0.217544 -0.131703 1.57255e-20)
(-0.219098 -0.162285 -5.10717e-20)
(-0.218173 -0.177311 8.48867e-21)
(-0.215754 -0.169515 2.73855e-20)
(-0.211083 -0.133829 2.76501e-20)
(-0.201837 -0.0686039 5.63343e-20)
(-0.186799 0.020837 1.85169e-20)
(-0.166021 0.124716 1.95679e-20)
(-0.144201 0.225136 2.76848e-21)
(-0.122675 0.309978 4.08886e-20)
(-0.095823 0.355853 3.45143e-21)
(-0.0570556 0.352602 -1.33339e-20)
(0.0144105 0.277061 -1.92873e-20)
(0.0936922 0.142374 -3.77227e-20)
(0.200691 -0.0112863 -1.90163e-20)
(0.273655 -0.161651 -1.50347e-21)
(0.350818 -0.269843 -1.22796e-20)
(-0.0344017 0.0383502 1.62986e-20)
(-0.079585 0.0409462 -3.9423e-20)
(-0.12309 0.0361517 -5.38795e-20)
(-0.150914 0.0244639 3.4207e-20)
(-0.172387 0.00746301 6.99522e-20)
(-0.189505 -0.0187897 -9.61705e-20)
(-0.201174 -0.052603 5.06569e-20)
(-0.209683 -0.0918198 3.38307e-21)
(-0.21363 -0.130637 6.79219e-20)
(-0.215132 -0.161816 9.01464e-20)
(-0.214508 -0.177405 6.0033e-20)
(-0.21288 -0.170314 2.00709e-21)
(-0.209649 -0.135724 -9.15228e-22)
(-0.202538 -0.0722812 -5.1768e-20)
(-0.189649 0.015158 -5.05132e-20)
(-0.170069 0.11731 -2.56106e-20)
(-0.145592 0.216708 3.61432e-21)
(-0.117147 0.300277 -4.18896e-20)
(-0.0759264 0.342558 1.20353e-20)
(-0.0208166 0.333229 -2.01046e-20)
(0.0692947 0.251871 2.02593e-20)
(0.157374 0.11328 7.59786e-20)
(0.273491 -0.0397172 5.56945e-20)
(0.348298 -0.184977 -1.61381e-20)
(0.426553 -0.284167 -1.23877e-20)
(-0.0349353 0.0425202 -1.32558e-19)
(-0.0792165 0.0452597 1.88103e-20)
(-0.121684 0.0402911 1.83148e-19)
(-0.148505 0.0278368 -1.08674e-19)
(-0.168932 0.010628 6.50829e-20)
(-0.184995 -0.0160191 2.59096e-19)
(-0.195533 -0.0501659 -1.33703e-19)
(-0.202874 -0.0898789 2.04031e-19)
(-0.205694 -0.12923 9.73163e-20)
(-0.206247 -0.160942 1.06734e-19)
(-0.20496 -0.177044 2.61914e-20)
(-0.203001 -0.170604 -1.06143e-19)
(-0.199861 -0.137066 -5.73085e-20)
(-0.193253 -0.0754212 3.3907e-20)
(-0.180725 0.00977048 4.46367e-20)
(-0.160389 0.10954 3.37536e-21)
(-0.131375 0.206799 -2.15614e-20)
(-0.0946414 0.287774 2.88893e-20)
(-0.0387576 0.325993 -8.47858e-20)
(0.030399 0.310054 -6.8739e-20)
(0.136396 0.225136 5.93255e-20)
(0.232171 0.0845206 -1.79559e-20)
(0.354966 -0.0667314 2.53725e-20)
(0.431146 -0.205794 3.74386e-20)
(0.508364 -0.295057 1.34767e-20)
(-0.0355759 0.0465882 1.59052e-20)
(-0.0787544 0.049482 -2.64632e-19)
(-0.1199 0.0443779 2.14062e-19)
(-0.145346 0.0311959 -2.59131e-20)
(-0.164257 0.0138324 -2.54825e-19)
(-0.178689 -0.0131463 -2.19021e-19)
(-0.187399 -0.0475559 6.18989e-20)
(-0.192769 -0.0876852 -1.80953e-19)
(-0.193581 -0.127485 -1.1248e-19)
(-0.192276 -0.159651 -1.72187e-19)
(-0.189409 -0.176214 -1.50254e-20)
(-0.186117 -0.170391 4.1465e-20)
(-0.181864 -0.137894 8.61208e-20)
(-0.174252 -0.078075 -5.0654e-20)
(-0.160406 0.00463603 6.14776e-20)
(-0.137565 0.101423 -4.93186e-20)
(-0.102502 0.19562 -4.58335e-20)
(-0.0566753 0.272931 -2.45709e-20)
(0.0135787 0.307009 -1.88736e-20)
(0.0942092 0.284656 8.12085e-20)
(0.212978 0.197828 -1.09225e-19)
(0.316913 0.0567159 5.57398e-20)
(0.444175 -0.0915827 -7.67084e-20)
(0.519743 -0.223728 -4.72159e-20)
(0.594221 -0.301543 -1.62266e-21)
(-0.0363209 0.0505378 6.31824e-20)
(-0.0781975 0.0535925 2.42931e-19)
(-0.117734 0.0483915 -5.64029e-19)
(-0.141427 0.0345179 3.05989e-19)
(-0.158341 0.0170502 1.56302e-19)
(-0.170545 -0.0101993 -4.15448e-20)
(-0.176699 -0.0448002 1.80468e-19)
(-0.179245 -0.0852576 -2.23928e-20)
(-0.177119 -0.125403 5.30051e-20)
(-0.173021 -0.157915 1.69829e-19)
(-0.167694 -0.174867 9.42467e-20)
(-0.162205 -0.16964 -4.82678e-21)
(-0.155854 -0.13821 -4.65306e-20)
(-0.145978 -0.0802778 1.53198e-19)
(-0.129377 -0.000265585 -3.29413e-20)
(-0.102587 0.0930018 7.17552e-20)
(-0.0604104 0.183486 2.87177e-20)
(-0.00528477 0.256147 8.07451e-20)
(0.0786867 0.286306 1.8458e-20)
(0.168853 0.258637 -9.17032e-20)
(0.297092 0.170571 7.87441e-20)
(0.409818 0.0302044 -1.13966e-19)
(0.539441 -0.113426 -3.54315e-20)
(0.61152 -0.238097 -8.81646e-20)
(0.679841 -0.303664 -1.57168e-20)
(-0.0371675 0.0543534 -1.22769e-19)
(-0.0775455 0.0575705 -3.37441e-19)
(-0.115186 0.0523109 2.14768e-19)
(-0.136742 0.0377784 -4.99626e-19)
(-0.151165 0.0202537 -1.7832e-19)
(-0.160524 -0.00720883 5.53826e-20)
(-0.163356 -0.0419293 -2.903e-19)
(-0.162178 -0.0826178 1.71659e-19)
(-0.156128 -0.122982 -1.21866e-19)
(-0.148256 -0.155695 -5.94758e-20)
(-0.139596 -0.172922 -7.69594e-20)
(-0.131166 -0.168252 1.28424e-19)
(-0.121992 -0.137951 -1.21038e-19)
(-0.108943 -0.0820168 -7.205e-20)
(-0.0885195 -0.00493058 -2.60844e-20)
(-0.0567106 0.0843361 -5.21782e-20)
(-0.00685351 0.170683 4.60252e-20)
(0.0572905 0.237861 -2.32393e-20)
(0.153646 0.264588 1.24111e-20)
(0.252456 0.232975 9.61722e-20)
(0.387501 0.143987 8.61756e-20)
(0.508688 0.00531728 -1.63838e-19)
(0.637908 -0.131644 1.73447e-19)
(0.704004 -0.247821 1.60552e-19)
(0.761552 -0.301464 -1.24511e-20)
(-0.0381133 0.0580197 5.43439e-19)
(-0.0767988 0.0613954 3.49883e-19)
(-0.112256 0.0561143 1.11761e-19)
(-0.131288 0.0409522 5.39559e-19)
(-0.142715 0.0234137 2.60214e-19)
(-0.148588 -0.0042079 4.74233e-19)
(-0.1473 -0.0389773 -2.3889e-19)
(-0.141449 -0.0797915 5.68873e-20)
(-0.130429 -0.120224 1.48183e-20)
(-0.117747 -0.15294 -9.44983e-20)
(-0.104849 -0.170264 -3.31099e-20)
(-0.0928018 -0.166065 -1.34913e-19)
(-0.0803098 -0.136959 1.44126e-19)
(-0.0635878 -0.0831965 1.02506e-20)
(-0.0387504 -0.00929846 -6.77723e-20)
(-0.00132879 0.0756123 -4.99571e-21)
(0.0563689 0.157453 -4.33313e-20)
(0.128967 0.21876 -2.5657e-20)
(0.235332 0.242258 1.03714e-19)
(0.342493 0.208019 1.05846e-19)
(0.482944 0.118551 2.27535e-20)
(0.611151 -0.0173759 2.25744e-19)
(0.736071 -0.145868 3.40015e-20)
(0.793779 -0.252212 1.02162e-20)
(0.837011 -0.294687 5.09218e-20)
(-0.0391557 0.0615223 -4.77006e-19)
(-0.0759586 0.0650465 2.62855e-19)
(-0.108944 0.0597797 -2.11028e-20)
(-0.125061 0.0440131 1.06004e-19)
(-0.132978 0.0264992 1.27057e-19)
(-0.134707 -0.00123215 -6.89185e-19)
(-0.128468 -0.0359819 3.80724e-19)
(-0.11695 -0.0768095 -4.63198e-19)
(-0.0998668 -0.117133 -1.1876e-19)
(-0.0812889 -0.149609 -1.44457e-19)
(-0.0631975 -0.166772 -2.14678e-19)
(-0.046851 -0.162868 2.98219e-21)
(-0.0306762 -0.134969 -2.45083e-20)
(-0.0101396 -0.0835847 -8.47897e-20)
(0.019174 -0.0130504 1.25047e-19)
(0.062252 0.0670677 8.54949e-20)
(0.127375 0.144019 -3.44603e-20)
(0.207885 0.19955 -3.77851e-20)
(0.32119 0.219689 -5.48409e-20)
(0.43631 0.183706 -1.94804e-19)
(0.581718 0.0945979 -1.63624e-19)
(0.714404 -0.0371601 6.01091e-21)
(0.830576 -0.155648 -3.16447e-19)
(0.876896 -0.251218 -4.32497e-20)
(0.904237 -0.28332 -1.37579e-19)
(-0.0402922 0.0648476 5.55219e-19)
(-0.0750269 0.0685032 -7.46887e-19)
(-0.105255 0.0632847 -4.91536e-19)
(-0.118061 0.0469343 -6.22992e-19)
(-0.121945 0.029478 1.53365e-19)
(-0.118851 0.00168063 1.12909e-19)
(-0.106804 -0.0329842 1.8736e-19)
(-0.0885971 -0.0737074 3.76722e-20)
(-0.0643353 -0.113727 7.38035e-20)
(-0.0387566 -0.145677 -1.33727e-19)
(-0.0144803 -0.162344 2.12773e-19)
(0.0069049 -0.158441 -3.14807e-20)
(0.027137 -0.131624 1.37478e-19)
(0.0514496 -0.0827096 -2.60225e-20)
(0.0848787 -0.0158149 2.92931e-20)
(0.133101 0.0590372 -1.36206e-19)
(0.204554 0.130726 -2.686e-20)
(0.292253 0.180842 -1.13678e-19)
(0.409684 0.197424 -7.84936e-20)
(0.53218 0.159993 -9.10567e-20)
(0.682011 0.0723213 1.40044e-19)
(0.815036 -0.0534342 -7.78911e-20)
(0.918129 -0.160555 7.02199e-20)
(0.950108 -0.245103 1.6414e-20)
(0.961358 -0.267903 3.96044e-20)
(-0.0415206 0.067983 6.41869e-20)
(-0.074006 0.0717447 8.23322e-19)
(-0.10119 0.0666064 -6.38325e-20)
(-0.110289 0.0496882 2.80565e-19)
(-0.109606 0.0323166 -9.18411e-19)
(-0.100995 0.00449111 -4.41378e-20)
(-0.0822638 -0.0300274 -3.17513e-19)
(-0.0563342 -0.0705243 2.74863e-19)
(-0.0237975 -0.110031 3.25969e-19)
(0.00983962 -0.141147 2.76335e-20)
(0.0412593 -0.15691 5.14869e-20)
(0.0684643 -0.152591 -4.30801e-20)
(0.0932581 -0.126574 -8.78289e-20)
(0.121311 -0.0800822 -1.11711e-19)
(0.158364 -0.0171586 -2.32371e-20)
(0.210878 0.0521871 3.92715e-20)
(0.287039 0.118125 1.4123e-19)
(0.380552 0.163134 -1.05698e-21)
(0.500258 0.176037 6.87629e-20)
(0.629424 0.137227 1.26913e-19)
(0.781875 0.0521161 -2.98574e-19)
(0.909409 -0.0656421 -4.18359e-20)
(0.995377 -0.160488 1.48337e-19)
(1.01126 -0.234375 -1.31209e-19)
(1.00722 -0.249399 4.05151e-20)
(-0.0428388 0.0709168 -1.31037e-18)
(-0.0728992 0.0747508 -6.95602e-19)
(-0.0967545 0.0697217 6.03396e-19)
(-0.101745 0.052247 -3.24129e-19)
(-0.095953 0.034981 1.23603e-18)
(-0.0811166 0.00715953 -3.06115e-19)
(-0.0548113 -0.0271543 6.37892e-19)
(-0.0201399 -0.0672993 1.30391e-19)
(0.0216952 -0.106078 -3.00135e-19)
(0.0643121 -0.136024 3.08711e-19)
(0.103688 -0.150462 1.1726e-19)
(0.137424 -0.145263 -2.14778e-21)
(0.167375 -0.11963 -1.32835e-19)
(0.199357 -0.0753298 7.25174e-20)
(0.2397 -0.0164321 -9.4227e-20)
(0.295643 0.0472609 5.31243e-20)
(0.374778 0.10708 -6.06719e-20)
(0.472054 0.146983 2.08244e-20)
(0.593169 0.156088 -4.50901e-20)
(0.727681 0.115983 -4.13453e-20)
(0.878505 0.034777 1.51624e-19)
(0.993772 -0.0732945 4.10075e-20)
(1.05945 -0.155754 -6.80345e-21)
(1.05923 -0.219872 -5.97244e-20)
(1.04179 -0.228963 -2.50183e-20)
(-0.0442447 0.0736385 1.20492e-18)
(-0.0717097 0.0775011 2.84595e-19)
(-0.0919519 0.0726074 -1.39832e-19)
(-0.0924297 0.0545827 2.85163e-19)
(-0.0809775 0.037437 -1.05659e-18)
(-0.0591911 0.00964772 7.24388e-19)
(-0.0244182 -0.0244048 -2.35959e-19)
(0.0199729 -0.0640656 -2.65191e-19)
(0.0719961 -0.101887 -9.3546e-20)
(0.124277 -0.130335 -3.29659e-19)
(0.17212 -0.143069 -1.87855e-19)
(0.212855 -0.136567 1.36997e-19)
(0.248477 -0.110831 2.01414e-19)
(0.284743 -0.0683023 2.40255e-19)
(0.328365 -0.0132166 -6.95857e-20)
(0.387146 0.0449104 3.64261e-20)
(0.467864 0.0984717 6.77081e-20)
(0.5667 0.133039 1.53495e-19)
(0.688613 0.13819 9.55859e-20)
(0.825363 0.0970638 2.27922e-19)
(0.967821 0.021107 7.60636e-20)
(1.06451 -0.076262 2.71416e-19)
(1.10859 -0.147061 -2.70499e-19)
(1.094 -0.20273 2.83556e-19)
(1.06613 -0.207741 1.09102e-20)
(-0.0457368 0.0761388 -2.01593e-19)
(-0.0704413 0.0799757 -4.76792e-19)
(-0.0867861 0.07524 -5.03281e-19)
(-0.0823414 0.0566674 2.73403e-19)
(-0.0646654 0.0396514 9.45897e-19)
(-0.0351893 0.0119217 -1.75284e-19)
(0.00894175 -0.0218136 -2.19019e-19)
(0.063958 -0.0608433 -2.9987e-19)
(0.126856 -0.097467 -1.95539e-19)
(0.189153 -0.124132 -1.27439e-20)
(0.245545 -0.134847 -5.09775e-20)
(0.293302 -0.126719 -3.72769e-19)
(0.33475 -0.100472 -1.81122e-19)
(0.37554 -0.0592467 2.70649e-20)
(0.42262 -0.00756227 5.25234e-20)
(0.483851 0.0453981 -8.96991e-20)
(0.565157 0.0928278 -1.23703e-19)
(0.663782 0.121829 -1.04323e-19)
(0.785076 0.122941 3.18283e-20)
(0.918398 0.0813973 -1.66659e-19)
(1.04484 0.0115818 -2.01432e-19)
(1.11889 -0.0749927 -4.97711e-19)
(1.14258 -0.135485 1.51181e-19)
(1.11676 -0.184219 -1.15176e-19)
(1.08201 -0.186719 1.20452e-19)
(-0.0473135 0.0784097 6.05239e-19)
(-0.0690975 0.0821548 4.35323e-19)
(-0.0812596 0.0775964 6.14329e-19)
(-0.0714746 0.0584741 -4.39908e-19)
(-0.0469955 0.0415928 -1.17268e-18)
(-0.00907098 0.0139508 -7.21994e-19)
(0.0452963 -0.0194018 2.19733e-19)
(0.111736 -0.0576336 2.81396e-20)
(0.185928 -0.0928166 7.18009e-19)
(0.258176 -0.117444 2.37642e-19)
(0.322674 -0.125923 1.29822e-19)
(0.376898 -0.116005 3.84878e-19)
(0.42373 -0.0890354 -9.69666e-20)
(0.468813 -0.0487813 -1.09821e-19)
(0.519267 -6.96295e-05 5.75074e-20)
(0.582462 0.0482398 6.32512e-20)
(0.663432 0.089957 5.09586e-20)
(0.760341 0.11336 5.6934e-20)
(0.877988 0.110591 -5.77495e-20)
(1.00066 0.0693288 4.35687e-20)
(1.10519 0.00597353 1.81967e-19)
(1.15602 -0.0704929 5.36845e-19)
(1.1628 -0.122291 1.09529e-19)
(1.12963 -0.165516 9.44761e-20)
(1.09146 -0.166645 1.02433e-19)
(-0.0489734 0.0804444 -8.94597e-19)
(-0.0676816 0.0840194 5.71776e-19)
(-0.075373 0.0796534 6.79983e-19)
(-0.0598176 0.0599776 2.99555e-20)
(-0.0279345 0.0432327 3.69602e-19)
(0.0192224 0.0157095 2.64283e-19)
(0.0846786 -0.017169 -7.10041e-19)
(0.163189 -0.0544132 4.11846e-19)
(0.248761 -0.0879077 -6.34436e-19)
(0.330413 -0.110283 -1.95949e-19)
(0.402016 -0.116423 8.57291e-21)
(0.461551 -0.104727 2.30928e-19)
(0.512645 -0.0770666 2.70531e-19)
(0.561099 -0.037706 -4.38612e-20)
(0.614161 0.0082905 8.44537e-20)
(0.678307 0.0523878 4.40211e-20)
(0.757726 0.0888477 4.65289e-20)
(0.851037 0.106927 2.05655e-20)
(0.960616 0.100724 -6.32723e-20)
(1.06637 0.060415 -1.46519e-19)
(1.14686 0.00340386 -2.72124e-19)
(1.1773 -0.064041 -4.43147e-19)
(1.17193 -0.108667 1.68295e-19)
(1.13518 -0.147528 1.56193e-19)
(1.09641 -0.147992 -8.7233e-20)
(-0.0507155 0.0822377 4.81767e-19)
(-0.0661959 0.0855507 -5.28123e-19)
(-0.0691234 0.0813885 -1.08751e-18)
(-0.0473502 0.0611554 7.45095e-20)
(-0.00743156 0.0445462 3.68039e-19)
(0.049773 0.0171875 -1.77482e-19)
(0.12713 -0.0150943 1.09258e-19)
(0.21815 -0.0511309 2.7327e-19)
(0.31478 -0.0826868 -1.92243e-19)
(0.404781 -0.102648 9.2025e-19)
(0.481959 -0.106459 -4.147e-20)
(0.54513 -0.0931595 -1.4298e-19)
(0.598782 -0.0650651 -1.81678e-19)
(0.649033 -0.0267803 -5.51665e-21)
(0.703163 0.0165049 -1.0829e-19)
(0.766582 0.0566222 -7.49184e-20)
(0.84275 0.0882037 -4.58012e-20)
(0.929915 0.101447 -1.49014e-21)
(1.02704 0.0924751 -9.65609e-20)
(1.11277 0.0537402 2.3426e-19)
(1.17108 0.00274953 1.91179e-20)
(1.18599 -0.0568087 -2.11306e-19)
(1.17319 -0.0955052 -1.48498e-19)
(1.13589 -0.13081 1.76794e-20)
(1.09844 -0.130987 1.81376e-19)
(-0.0525387 0.0837855 -6.57785e-19)
(-0.0646419 0.0867308 2.49293e-19)
(-0.0625037 0.0827795 4.67487e-19)
(-0.0340393 0.0619872 -1.13066e-19)
(0.0145869 0.0455173 3.50134e-19)
(0.0826898 0.0183943 6.85767e-19)
(0.172692 -0.0131313 8.42078e-20)
(0.276377 -0.0477068 -5.36686e-19)
(0.383277 -0.0770841 5.72195e-19)
(0.480062 -0.094536 -7.7298e-19)
(0.560854 -0.0961404 -1.74624e-19)
(0.625624 -0.0815419 -1.70296e-19)
(0.679784 -0.0534261 2.98648e-20)
(0.729863 -0.0165785 1.91458e-20)
(0.783013 0.0237965 2.9086e-20)
(0.843645 0.0599805 1.9498e-20)
(0.914529 0.0869803 -2.21434e-21)
(0.992855 0.0959998 1.93859e-20)
(1.07485 0.0850356 3.19607e-19)
(1.14108 0.0484245 2.20753e-20)
(1.18152 0.00306984 -2.39674e-19)
(1.18604 -0.0496126 -1.49056e-19)
(1.16958 -0.083322 -6.68377e-20)
(1.13372 -0.115613 -1.29794e-19)
(1.09868 -0.115665 -1.20018e-19)
(-0.0544422 0.0850855 4.27207e-19)
(-0.0630191 0.0875424 5.32471e-19)
(-0.0554998 0.0838038 -2.6583e-19)
(-0.0198338 0.0624547 3.64134e-20)
(0.0382236 0.0461437 5.34172e-19)
(0.118112 0.0193607 3.60406e-19)
(0.221388 -0.0112015 1.03907e-18)
(0.337521 -0.0440372 4.23174e-19)
(0.453388 -0.0710274 -6.9642e-20)
(0.554939 -0.0859588 2.83385e-19)
(0.637092 -0.0855799 5.05456e-19)
(0.701271 -0.0700801 4.64731e-20)
(0.753827 -0.042432 3.38415e-20)
(0.801714 -0.00745041 6.95335e-20)
(0.851791 0.0297378 -8.92942e-20)
(0.907665 0.0619708 7.22354e-21)
(0.971368 0.0846755 -6.76458e-20)
(1.03897 0.0901572 -2.10997e-19)
(1.10556 0.0779834 -1.36361e-19)
(1.15526 0.043921 4.07371e-19)
(1.18267 0.00378509 1.04113e-19)
(1.18098 -0.042887 2.93896e-19)
(1.16337 -0.0723265 -1.87954e-19)
(1.13004 -0.101971 3.74424e-20)
(1.0979 -0.101952 3.54626e-20)
(-0.0564251 0.0861364 -6.7546e-20)
(-0.0613246 0.0879689 -1.18073e-18)
(-0.0480893 0.0844393 3.00356e-19)
(-0.00466133 0.0625482 3.00073e-19)
(0.0636186 0.0464359 -1.21543e-18)
(0.156203 0.0201437 3.3212e-19)
(0.273192 -0.00919399 -1.19937e-19)
(0.401087 -0.0400063 7.68824e-19)
(0.524097 -0.0644593 -4.92163e-19)
(0.628046 -0.0769549 -9.37607e-19)
(0.709203 -0.0749047 2.14828e-21)
(0.770669 -0.0589527 -1.38577e-19)
(0.819709 -0.0322652 -1.66935e-19)
(0.863646 0.00045003 -9.66825e-20)
(0.908928 0.0342197 1.20468e-20)
(0.958566 0.0625406 -3.24077e-20)
(1.01384 0.0812956 2.53827e-20)
(1.07024 0.0839579 1.23576e-19)
(1.12302 0.071267 4.741e-20)
(1.1599 0.0399984 -3.48723e-19)
(1.17839 0.00461741 -1.37003e-20)
(1.17337 -0.0367935 -3.0228e-19)
(1.15605 -0.0625334 9.41055e-20)
(1.1257 -0.0898021 3.82684e-20)
(1.09655 -0.0897169 -1.08013e-19)
(-0.0584865 0.0869385 -7.29994e-19)
(-0.0595527 0.0879952 4.06953e-19)
(-0.040241 0.0846711 1.17706e-19)
(0.0115793 0.0622626 -2.98159e-19)
(0.090954 0.0464209 1.09379e-18)
(0.197138 0.0208323 -8.24002e-19)
(0.327983 -0.0069726 -9.73956e-19)
(0.466408 -0.0355031 -5.6145e-19)
(0.594261 -0.0573547 -4.256e-19)
(0.698054 -0.0675996 8.09524e-19)
(0.775951 -0.0642556 1.21311e-19)
(0.832852 -0.0483108 4.01684e-19)
(0.87686 -0.0230241 2.68798e-19)
(0.91556 0.00711615 3.4023e-20)
(0.954932 0.0373537 1.65172e-20)
(0.997556 0.0619175 1.95203e-19)
(1.04408 0.0771461 2.07045e-19)
(1.09002 0.0776822 2.16894e-19)
(1.13142 0.0650062 1.45705e-19)
(1.15887 0.0365886 2.24555e-19)
(1.17139 0.00546028 -6.23834e-20)
(1.16483 -0.0313438 2.13695e-19)
(1.14851 -0.0538603 1.69071e-19)
(1.12119 -0.0789751 -2.63345e-20)
(1.09491 -0.0788118 1.10723e-19)
(-0.0606252 0.0874936 4.91207e-19)
(-0.0576942 0.0876106 1.19362e-19)
(-0.0319101 0.0844835 8.61131e-20)
(0.0290208 0.061602 -8.42622e-19)
(0.120454 0.0461517 -1.99547e-18)
(0.241075 0.0215492 -1.45552e-21)
(0.385498 -0.00438836 1.41225e-18)
(0.532624 -0.0304411 -4.52813e-19)
(0.662669 -0.049733 8.1669e-19)
(0.763765 -0.0580042 6.07404e-20)
(0.836418 -0.0537791 -3.85468e-19)
(0.88732 -0.0382725 -5.76343e-19)
(0.925287 -0.0147373 -2.61855e-19)
(0.95802 0.0126405 3.97851e-20)
(0.991015 0.039371 1.60623e-19)
(1.02654 0.0604443 8.61738e-21)
(1.06478 0.0726179 -2.28462e-19)
(1.10172 0.0716363 -1.05663e-19)
(1.13417 0.0593251 -2.19655e-19)
(1.1548 0.0336703 -2.70687e-20)
(1.16335 0.00628426 -1.33337e-19)
(1.15624 -0.0264826 5.34821e-20)
(1.1412 -0.0461887 -2.50155e-19)
(1.11677 -0.0693441 -1.90672e-19)
(1.09315 -0.0690889 7.103e-21)
(-0.0628396 0.0878046 -5.41358e-19)
(-0.055737 0.0868091 7.98814e-19)
(-0.0230305 0.0838544 2.14953e-19)
(0.047833 0.0605889 4.77934e-19)
(0.152379 0.0457125 9.53519e-19)
(0.288111 0.0224469 -4.61703e-19)
(0.445282 -0.00129923 -8.70655e-19)
(0.598718 -0.0247768 6.7287e-19)
(0.728132 -0.0416625 -9.08315e-19)
(0.824204 -0.0483057 -4.44013e-19)
(0.890052 -0.0436138 5.19661e-20)
(0.934023 -0.0289173 4.44527e-19)
(0.96546 -0.00737704 3.24543e-19)
(0.992026 0.017173 -1.36666e-19)
(1.01873 0.0405415 2.9487e-20)
(1.04762 0.0584645 -1.49803e-19)
(1.07854 0.0680532 5.32314e-20)
(1.1081 0.0660425 2.47994e-20)
(1.13365 0.0542882 -1.78805e-19)
(1.14933 0.0312231 1.21583e-19)
(1.15519 0.00708862 1.79309e-19)
(1.14806 -0.0221334 1.49662e-19)
(1.13434 -0.0393957 1.64392e-19)
(1.11256 -0.0607678 2.05234e-19)
(1.09133 -0.06041 -8.2897e-20)
(-0.0651272 0.0878757 1.25201e-18)
(-0.0536561 0.0855712 4.55327e-19)
(-0.013524 0.0827811 8.56131e-20)
(0.0682294 0.0592628 1.67493e-18)
(0.187008 0.0452229 3.72737e-19)
(0.338224 0.0236964 -6.22909e-19)
(0.506661 0.00240711 -1.35205e-18)
(0.663569 -0.0185202 -1.42183e-18)
(0.789583 -0.0332536 -3.63162e-19)
(0.878691 -0.038652 -2.82053e-19)
(0.936677 -0.0338774 1.06349e-19)
(0.973284 -0.0202841 2.32016e-19)
(0.998166 -0.000875082 -1.04193e-19)
(1.01879 0.0208868 5.24323e-19)
(1.03969 0.0411227 -4.85872e-19)
(1.06271 0.0562629 1.69359e-20)
(1.08745 0.0636957 -2.08017e-19)
(1.11111 0.0610219 1.38566e-19)
(1.13134 0.0499033 2.25285e-19)
(1.14339 0.0292182 -2.7553e-19)
(1.14737 0.00788012 -2.15075e-19)
(1.14049 -0.0182189 -3.45881e-19)
(1.12802 -0.0333671 -9.20417e-21)
(1.10863 -0.0531157 -9.8347e-20)
(1.08952 -0.0526503 1.55408e-20)
(-0.0674858 0.0877118 -5.23548e-19)
(-0.0514163 0.0838794 -1.96847e-18)
(-0.00328452 0.0812698 -9.42459e-19)
(0.090467 0.0576835 -1.97531e-18)
(0.224608 0.0448385 1.8727e-19)
(0.39122 0.0254672 -1.62095e-19)
(0.568757 0.00679265 1.93883e-18)
(0.726053 -0.0117367 1.23053e-18)
(0.846163 -0.0246451 6.32008e-20)
(0.926867 -0.029185 -2.83113e-19)
(0.976445 -0.0246579 -1.9996e-19)
(1.0057 -0.0123747 -4.58212e-19)
(1.02437 0.00486165 -4.66676e-19)
(1.03957 0.0239529 -2.56355e-19)
(1.05537 0.0413323 5.39272e-19)
(1.0734 0.0540472 5.9499e-20)
(1.09306 0.0596935 1.89023e-19)
(1.11205 0.0566168 1.5083e-19)
(1.12815 0.0461414 -1.30988e-19)
(1.1375 0.0276199 1.97819e-19)
(1.14012 0.00866543 2.15746e-19)
(1.13358 -0.014669 1.42203e-19)
(1.12226 -0.0280027 -1.33623e-20)
(1.10498 -0.0462704 1.1956e-21)
(1.08774 -0.0456986 1.51149e-19)
(-0.069912 0.0873187 -1.19641e-19)
(-0.0489805 0.0817342 -1.19841e-18)
(0.00783092 0.0793206 1.11346e-19)
(0.114845 0.0559396 1.22832e-18)
(0.265392 0.0447452 -5.89527e-19)
(0.446678 0.0279022 1.51501e-18)
(0.630542 0.0118576 6.26774e-19)
(0.785138 -0.00453668 -4.51852e-19)
(0.897281 -0.0159859 8.20108e-19)
(0.968683 -0.0200265 8.57579e-19)
(1.00977 -0.0160099 4.66945e-20)
(1.03204 -0.00516168 2.05802e-19)
(1.04507 0.00993628 1.27185e-19)
(1.05553 0.0265248 -3.15947e-19)
(1.06702 0.0413394 -4.08524e-20)
(1.08092 0.0519547 -5.87289e-20)
(1.09648 0.0561223 -3.20491e-20)
(1.11178 0.0528199 -1.07912e-19)
(1.12462 0.0429553 1.78878e-19)
(1.1319 0.0263892 -9.1803e-20)
(1.13349 0.00944907 -1.56554e-19)
(1.12732 -0.0114227 1.08121e-19)
(1.11702 -0.0232166 -2.55782e-20)
(1.10161 -0.0401277 8.63952e-20)
(1.08599 -0.0394574 3.05983e-20)
(-0.0724008 0.0867028 1.99489e-18)
(-0.0462991 0.079136 2.83951e-18)
(0.0200003 0.0769479 8.17201e-19)
(0.141694 0.0541535 3.91164e-19)
(0.309451 0.0451436 1.51755e-18)
(0.503941 0.0310926 -7.02412e-20)
(0.690927 0.0175407 6.04756e-19)
(0.839981 0.00294105 -9.27882e-20)
(0.942636 -0.00741788 -8.15321e-19)
(1.00435 -0.0112708 -2.49532e-19)
(1.03724 -0.0079565 -2.04048e-19)
(1.05312 0.00140263 7.2289e-19)
(1.06123 0.014451 2.70315e-19)
(1.06769 0.0287319 5.33594e-19)
(1.07564 0.0412671 1.13389e-19)
(1.08618 0.0500673 6.78597e-20)
(1.09846 0.0530089 -3.93641e-21)
(1.11079 0.0495958 -1.67907e-19)
(1.12103 0.0402913 -1.04931e-19)
(1.12671 0.0254858 3.84186e-20)
(1.12747 0.0102338 2.92774e-19)
(1.12168 -0.0084287 2.82062e-20)
(1.11227 -0.0189362 7.66547e-20)
(1.09849 -0.0345951 -2.69051e-19)
(1.08429 -0.0338417 -1.25554e-19)
(-0.0749458 0.0858708 -2.16332e-18)
(-0.0433071 0.0760856 -2.38398e-18)
(0.0334418 0.0741866 -1.98268e-18)
(0.171353 0.0524848 -3.06e-19)
(0.356701 0.0462246 -2.3844e-18)
(0.56214 0.0350614 -1.36093e-19)
(0.748871 0.0237318 -6.45373e-19)
(0.889978 0.0105483 3.24766e-20)
(0.98219 0.00093653 8.49395e-19)
(1.03427 -0.00298114 3.62806e-20)
(1.05952 -0.000495087 3.24401e-19)
(1.06976 0.00737758 -6.88839e-19)
(1.07372 0.0185004 -2.62321e-19)
(1.0769 0.0306777 5.79172e-19)
(1.082 0.0412001 3.09588e-19)
(1.08985 0.0484277 -1.19012e-19)
(1.09948 0.0503502 -2.34756e-20)
(1.10942 0.0468955 4.04412e-19)
(1.11755 0.0380958 -1.3095e-19)
(1.12194 0.0248699 9.45075e-20)
(1.12203 0.0110217 -1.80349e-19)
(1.11659 -0.00564397 -2.25922e-19)
(1.10795 -0.0151005 -2.3023e-19)
(1.09561 -0.0295905 2.40819e-19)
(1.08265 -0.028778 -2.27873e-19)
(-0.0775389 0.0848294 1.35451e-18)
(-0.0399222 0.0725879 1.52834e-18)
(0.048419 0.0710962 8.99215e-20)
(0.204132 0.0511271 -2.54431e-19)
(0.406827 0.0481386 1.21664e-18)
(0.620272 0.0397612 1.04937e-18)
(0.803472 0.0302903 1.22559e-18)
(0.934787 0.0181442 3.42861e-19)
(1.01613 0.00898161 -3.81206e-19)
(1.05898 0.00480748 4.03522e-19)
(1.07734 0.0063965 -6.73325e-20)
(1.08274 0.012827 4.4001e-19)
(1.08328 0.0221673 1.52564e-19)
(1.08385 0.0324424 4.51376e-20)
(1.0867 0.0411932 1.81238e-20)
(1.09238 0.0470522 7.01152e-20)
(1.09988 0.0481251 -3.12697e-19)
(1.10785 0.0446652 -3.45227e-19)
(1.11425 0.0363188 6.85322e-20)
(1.11759 0.0245031 -2.97873e-19)
(1.11711 0.0118153 -8.48576e-20)
(1.112 -0.0030333 5.30885e-21)
(1.10403 -0.0116583 2.65857e-21)
(1.09293 -0.0250405 1.10003e-19)
(1.08105 -0.0242041 2.85957e-19)
(-0.0801695 0.0835846 5.64163e-19)
(-0.0360422 0.0686526 -1.33792e-18)
(0.0652411 0.0677687 8.67304e-19)
(0.240262 0.0502961 -4.0291e-19)
(0.459271 0.0509689 6.25609e-19)
(0.677293 0.045086 -1.51787e-19)
(0.854039 0.0370663 -9.40927e-19)
(0.97431 0.0256074 4.722e-20)
(1.04481 0.01665 -8.67751e-20)
(1.07907 0.0120844 -5.03365e-21)
(1.09137 0.0127533 3.03006e-19)
(1.09273 0.0178144 -3.7167e-19)
(1.09054 0.0255225 2.70421e-19)
(1.08907 0.0340861 5.95016e-20)
(1.09016 0.0412792 2.2377e-19)
(1.0941 0.0459408 1.43169e-19)
(1.09987 0.0463032 1.72082e-19)
(1.10619 0.0428513 -4.42209e-20)
(1.11117 0.0349147 2.30526e-19)
(1.11361 0.024349 1.51546e-19)
(1.11265 0.0126179 9.52783e-20)
(1.10785 -0.000568542 9.61998e-20)
(1.10044 -0.0085665 1.31715e-19)
(1.09043 -0.0208789 -5.16055e-20)
(1.07951 -0.0200679 -2.13257e-19)
(-0.0828244 0.0821416 -8.4039e-19)
(-0.0315414 0.0642962 3.05744e-19)
(0.0842573 0.0643374 1.76767e-18)
(0.279837 0.0502069 1.62913e-18)
(0.513254 0.0547162 -9.66995e-19)
(0.73223 0.0508928 -8.74885e-19)
(0.90012 0.043917 -7.72263e-20)
(1.00866 0.0328415 -2.41725e-19)
(1.06868 0.023901 6.20479e-19)
(1.09515 0.0188578 5.80928e-20)
(1.10225 0.0186179 1.96018e-19)
(1.10032 0.0223994 1.12448e-19)
(1.09601 0.0286245 7.71896e-20)
(1.09297 0.035653 -4.24756e-19)
(1.0927 0.0414753 -3.00599e-19)
(1.09524 0.0450832 -4.26102e-19)
(1.09959 0.0448494 -1.37443e-19)
(1.10451 0.0414041 3.34803e-20)
(1.10829 0.0338429 -3.21692e-19)
(1.10998 0.0243739 -7.62109e-20)
(1.10861 0.0134346 -5.11486e-20)
(1.10409 0.0017715 -1.24908e-19)
(1.09716 -0.00578747 2.08812e-20)
(1.0881 -0.0170463 -3.33945e-20)
(1.07802 -0.0163268 -1.54057e-20)
(-0.0854875 0.0805035 -1.02876e-18)
(-0.0262658 0.0595441 7.16298e-19)
(0.105841 0.0609831 -3.91925e-20)
(0.322758 0.0510421 -8.56101e-19)
(0.56785 0.0593022 7.40765e-19)
(0.784259 0.0570244 6.0577e-19)
(0.94149 0.0507188 -2.271e-19)
(1.03809 0.0397768 -5.72946e-19)
(1.08827 0.0307162 -2.06567e-19)
(1.10782 0.0251488 -1.00215e-18)
(1.11054 0.0240357 -7.37743e-19)
(1.10599 0.0266363 1.17935e-19)
(1.10008 0.0315208 2.99558e-19)
(1.09588 0.0371746 2.70225e-19)
(1.09455 0.041788 -2.8666e-19)
(1.09595 0.0444639 2.34971e-19)
(1.09911 0.0437277 8.58804e-20)
(1.10285 0.0402784 5.32389e-21)
(1.10562 0.0330666 2.27601e-19)
(1.10664 0.0245472 -5.09525e-20)
(1.10494 0.0142718 -2.28682e-20)
(1.10066 0.00400144 1.28718e-19)
(1.09413 -0.00328697 -4.73803e-20)
(1.08592 -0.0134904 1.97211e-19)
(1.07658 -0.0129476 -1.52654e-19)
(-0.088139 0.0786708 4.01555e-19)
(-0.0200295 0.0544342 -1.67539e-18)
(0.130362 0.0579349 -1.69262e-18)
(0.368701 0.052919 -1.08478e-18)
(0.62208 0.0645894 1.11357e-18)
(0.832761 0.0633294 -7.38853e-19)
(0.978127 0.0573725 1.05672e-18)
(1.06297 0.0463682 6.65117e-19)
(1.10409 0.0370949 -1.72034e-19)
(1.11761 0.0309874 1.60707e-19)
(1.11673 0.0290527 4.57655e-19)
(1.11015 0.030573 -7.72182e-20)
(1.10306 0.0342495 -9.13015e-20)
(1.09801 0.0386726 -4.76909e-20)
(1.09586 0.0422166 1.1541e-19)
(1.09633 0.0440645 -3.12837e-19)
(1.09849 0.0429023 -1.9045e-19)
(1.10121 0.0394346 2.22076e-19)
(1.10313 0.0325525 -7.12633e-20)
(1.10356 0.0248421 -2.79355e-20)
(1.1016 0.0151369 1.49881e-19)
(1.09752 0.00613003 -6.91785e-20)
(1.09133 -0.0010323 -1.92953e-19)
(1.08387 -0.0101662 -1.69243e-19)
(1.07519 -0.00990548 2.58499e-19)
(-0.0907545 0.0766402 4.90535e-20)
(-0.0126115 0.0490237 4.80283e-19)
(0.158144 0.0554594 5.3938e-19)
(0.417111 0.0558669 1.79365e-18)
(0.675013 0.0704094 -1.76247e-18)
(0.877329 0.0696745 5.67885e-19)
(1.01017 0.0638044 -6.50241e-19)
(1.08373 0.0525915 1.7959e-19)
(1.11666 0.0430495 -4.0046e-19)
(1.12502 0.0364083 -2.75406e-19)
(1.12123 0.0337126 -3.95831e-19)
(1.11313 0.0342509 -1.74988e-19)
(1.10521 0.0368407 2.17878e-19)
(1.09955 0.0401616 -2.20824e-19)
(1.09676 0.0427561 -2.02403e-19)
(1.09646 0.0438658 5.21616e-19)
(1.09777 0.0423394 4.67303e-19)
(1.09961 0.0388382 -5.86419e-20)
(1.10081 0.0322701 2.65432e-20)
(1.10071 0.0252355 7.58642e-20)
(1.09854 0.0160376 -1.12387e-19)
(1.09461 0.00816131 1.27515e-19)
(1.08873 0.00100877 1.38741e-19)
(1.08195 -0.00703699 -1.83416e-19)
(1.07384 -0.00718303 -2.2479e-19)
(-0.0933029 0.0744018 4.77762e-19)
(-0.00375448 0.0433983 9.89777e-19)
(0.189416 0.0538362 -1.63705e-18)
(0.467247 0.0598226 -1.02621e-18)
(0.725842 0.0765898 8.6293e-19)
(0.917757 0.0759511 7.52683e-19)
(1.03786 0.0699645 9.51715e-19)
(1.10082 0.0584394 -5.8425e-19)
(1.12646 0.0486013 3.15813e-19)
(1.13047 0.0414481 1.85947e-19)
(1.12439 0.038056 -6.0615e-20)
(1.11519 0.0377056 -5.18192e-19)
(1.1067 0.0393179 -7.89348e-19)
(1.10062 0.0416506 -3.17074e-19)
(1.09734 0.0433988 5.27599e-19)
(1.09639 0.0438486 -8.94213e-20)
(1.09698 0.0420075 -7.37733e-21)
(1.09805 0.0384594 1.11985e-19)
(1.09863 0.0321911 -2.65772e-21)
(1.09806 0.0257084 9.54853e-20)
(1.09574 0.016982 -1.24855e-19)