/*--------------------------------*- C++ -*----------------------------------*\
  =========                 |
  \\      /  F ield         | OpenFOAM: The Open Source CFD Toolbox
   \\    /   O peration     | Website:  https://openfoam.org
    \\  /    A nd           | Version:  7
     \\/     M anipulation  |
\*---------------------------------------------------------------------------*/
FoamFile
{
    version     2.0;
    format      ascii;
    class       volScalarField;
    location    "0.3";
    object      p;
}
// * * * * * * * * * * * * * * * * * * * * * * * * * * * * * * * * * * * * * //

dimensions      [0 2 -2 0 0 0 0];

internalField   nonuniform List<scalar> 
10000
(
2.24563e-06
6.30024e-06
-2.17788e-05
-7.83224e-05
-0.000157347
-0.000253037
-0.00036008
-0.00047379
-0.00059
-0.000705419
-0.000817279
-0.000923311
-0.00102166
-0.00111082
-0.00118958
-0.00125698
-0.00131225
-0.00135483
-0.00138427
-0.00140026
-0.00140256
-0.00139105
-0.00136565
-0.00132632
-0.00127309
-0.00120602
-0.00112519
-0.00103071
-0.00092271
-0.000801343
-0.000666776
-0.000519198
-0.000358816
-0.000185856
-5.69861e-07
0.000196767
0.000405853
0.000626351
0.000857892
0.00110007
0.00135242
0.00161446
0.00188565
0.00216538
0.00245301
0.00274785
0.00304913
0.00335603
0.00366767
0.00398314
0.00430143
0.0046215
0.00494226
0.00526258
0.00558127
0.00589711
0.00620886
0.00651524
0.00681498
0.00710677
0.00738934
0.00766142
0.00792177
0.00816919
0.00840253
0.00862069
0.00882267
0.00900753
0.00917444
0.00932268
0.00945165
0.00956087
0.00965002
0.00971889
0.00976747
0.00979587
0.00980438
0.00979347
0.00976376
0.00971606
0.00965134
0.00957075
0.00947562
0.00936743
0.00924785
0.00911871
0.00898204
0.00884
0.00869498
0.00854951
0.00840636
0.00826847
0.00813904
0.00802145
0.00791925
0.00783616
0.00777561
0.0077401
0.00773057
0.00774545
4.82618e-07
3.74922e-06
-2.12055e-05
-6.91647e-05
-0.000135083
-0.000215062
-0.000305045
-0.000401229
-0.000500245
-0.000599173
-0.000695517
-0.000787169
-0.000872358
-0.000949613
-0.00101772
-0.00107571
-0.00112279
-0.00115833
-0.00118185
-0.00119297
-0.00119143
-0.00117702
-0.00114962
-0.00110916
-0.00105562
-0.000989021
-0.000909412
-0.000816875
-0.000711514
-0.000593459
-0.000462861
-0.000319893
-0.000164751
2.34817e-06
0.000181161
0.000371421
0.000572829
0.000785056
0.00100774
0.00124047
0.00148282
0.00173428
0.00199434
0.00226242
0.00253788
0.00282005
0.0031082
0.00340154
0.00369923
0.00400038
0.00430405
0.00460925
0.00491494
0.00522004
0.00552345
0.00582401
0.00612055
0.00641189
0.00669681
0.00697413
0.00724264
0.00750116
0.00774856
0.00798372
0.00820558
0.00841313
0.00860546
0.0087817
0.00894112
0.00908306
0.00920698
0.00931247
0.00939924
0.00946715
0.0095162
0.00954654
0.00955846
0.00955243
0.00952906
0.00948913
0.00943358
0.00936351
0.00928018
0.009185
0.00907955
0.00896555
0.00884488
0.00871959
0.00859185
0.00846401
0.00833857
0.00821804
0.00810536
0.00800327
0.00791473
0.00784249
0.00778902
0.00775593
0.00774535
0.00776027
2.9512e-05
2.92315e-05
4.10804e-06
-4.03933e-05
-0.000100308
-0.000171883
-0.000252136
-0.000337856
-0.000426142
-0.000514436
-0.000600506
-0.000682417
-0.000758513
-0.000827401
-0.000887919
-0.000939111
-0.000980194
-0.00101053
-0.00102962
-0.00103708
-0.00103259
-0.00101595
-0.000986999
-0.000945643
-0.000891834
-0.000825569
-0.000746877
-0.00065582
-0.000552484
-0.000436982
-0.000309452
-0.000170056
-1.8976e-05
0.000143579
0.000317375
0.000502154
0.000697624
0.000903465
0.00111932
0.00134479
0.00157946
0.00182283
0.0020744
0.0023336
0.00259983
0.00287243
0.00315068
0.00343382
0.00372106
0.00401151
0.00430429
0.00459843
0.00489295
0.00518682
0.00547896
0.00576829
0.00605369
0.00633402
0.00660814
0.00687491
0.0071332
0.0073819
0.00761991
0.0078462
0.00805975
0.00825965
0.008445
0.00861502
0.00876902
0.00890639
0.00902663
0.00912938
0.00921437
0.0092815
0.00933078
0.00936236
0.00937657
0.00937384
0.00935479
0.00932018
0.00927092
0.00920806
0.00913281
0.00904653
0.00895071
0.00884699
0.00873715
0.0086231
0.00850688
0.00839065
0.0082767
0.00816737
0.00806516
0.00797255
0.00789203
0.00782602
0.00777655
0.00774505
0.00773465
0.0077509
8.68042e-05
7.77609e-05
4.88103e-05
4.03012e-06
-5.35069e-05
-0.000120889
-0.000195391
-0.000274331
-0.000355238
-0.000435891
-0.000514314
-0.000588765
-0.000657735
-0.000719939
-0.000774289
-0.000819878
-0.000855952
-0.000881896
-0.00089721
-0.000901504
-0.00089447
-0.000875877
-0.000845559
-0.000803403
-0.000749351
-0.000683379
-0.000605503
-0.000515767
-0.000414243
-0.000301032
-0.000176259
-4.00725e-05
0.000107355
0.000265826
0.000435118
0.00061498
0.000805133
0.00100526
0.00121503
0.00143404
0.00166189
0.0018981
0.00214217
0.00239357
0.0026517
0.00291592
0.00318554
0.00345983
0.003738
0.00401923
0.00430263
0.00458729
0.00487227
0.00515655
0.00543912
0.00571894
0.00599491
0.00626596
0.006531
0.00678892
0.00703865
0.00727913
0.00750932
0.00772821
0.00793486
0.00812838
0.00830793
0.00847278
0.00862226
0.0087558
0.00887295
0.00897336
0.00905681
0.00912318
0.00917252
0.00920499
0.0092209
0.0092207
0.00920499
0.00917449
0.00913011
0.00907284
0.00900387
0.00892447
0.00883609
0.00874028
0.00863871
0.00853319
0.00842562
0.00831799
0.00821241
0.00811104
0.00801609
0.00792979
0.00785434
0.00779192
0.00774435
0.0077131
0.0077016
0.00771598
0.000166924
0.000144492
0.000109024
6.12176e-05
3.28078e-06
-6.24038e-05
-0.000133534
-0.000207904
-0.000283441
-0.000358241
-0.000430579
-0.000498921
-0.000561921
-0.00061842
-0.000667424
-0.000708092
-0.000739717
-0.000761718
-0.000773619
-0.000775037
-0.000765672
-0.000745288
-0.000713714
-0.000670834
-0.000616576
-0.000550908
-0.000473832
-0.000385378
-0.000285608
-0.000174611
-5.24996e-05
8.05901e-05
0.000224497
0.000379037
0.000543998
0.000719139
0.000904194
0.00109886
0.00130281
0.00151567
0.00173703
0.00196645
0.00220344
0.00244748
0.00269799
0.00295435
0.00321591
0.00348194
0.00375169
0.00402436
0.0042991
0.00457503
0.00485123
0.00512674
0.00540057
0.00567171
0.00593913
0.00620177
0.00645859
0.00670853
0.00695055
0.00718364
0.0074068
0.00761906
0.00781953
0.00800733
0.0081817
0.00834191
0.00848733
0.00861743
0.00873177
0.00883004
0.00891201
0.00897762
0.00902689
0.00906
0.00907726
0.00907911
0.00906614
0.00903905
0.0089987
0.00894608
0.00888231
0.00880861
0.00872637
0.00863705
0.00854224
0.00844362
0.00834297
0.00824215
0.00814308
0.00804772
0.00795808
0.00787615
0.00780389
0.00774322
0.00769585
0.00766318
0.00764838
0.00765665
0.000264422
0.000225751
0.00018121
0.00012839
6.7822e-05
1.61792e-06
-6.82949e-05
-0.000140137
-0.000212197
-0.000282861
-0.000350656
-0.000414255
-0.000472483
-0.000524316
-0.000568862
-0.000605362
-0.000633174
-0.00065176
-0.00066068
-0.000659572
-0.000648149
-0.000626184
-0.000593511
-0.000550013
-0.000495614
-0.000430274
-0.000353987
-0.000266775
-0.000168691
-5.98119e-05
5.97613e-05
0.000189904
0.000330467
0.000481277
0.000642136
0.000812817
0.000993064
0.00118259
0.00138108
0.00158817
0.00180348
0.00202657
0.00225698
0.00249421
0.00273769
0.00298683
0.00324098
0.00349947
0.00376155
0.00402646
0.00429337
0.00456143
0.00482975
0.00509741
0.00536343
0.00562686
0.00588668
0.00614188
0.00639145
0.00663437
0.00686964
0.00709625
0.00731327
0.00751975
0.00771482
0.00789766
0.0080675
0.00822366
0.00836554
0.00849261
0.00860448
0.00870082
0.00878144
0.00884628
0.00889536
0.00892887
0.00894712
0.00895053
0.00893967
0.00891524
0.00887807
0.00882911
0.00876942
0.0087002
0.00862275
0.00853846
0.00844885
0.00835549
0.00826004
0.00816422
0.00806979
0.00797855
0.00789231
0.00781286
0.00774195
0.00768129
0.00763248
0.0075966
0.0075765
0.00757539
0.000374314
0.000317685
0.000262498
0.000202931
0.000137911
6.93243e-05
-1.2204e-06
-7.2317e-05
-0.000142574
-0.000210654
-0.000275323
-0.000335458
-0.000390053
-0.000438221
-0.000479183
-0.000512269
-0.00053691
-0.000552626
-0.000559018
-0.000555756
-0.000542574
-0.000519265
-0.000485672
-0.000441683
-0.000387224
-0.000322253
-0.000246758
-0.000160757
-6.42943e-05
4.25627e-05
0.000159723
0.000287073
0.000424476
0.000571772
0.000728774
0.00089527
0.00107102
0.00125575
0.00144915
0.00165089
0.0018606
0.00207786
0.00230222
0.0025332
0.00277027
0.00301284
0.0032603
0.00351198
0.00376717
0.00402513
0.00428505
0.00454613
0.00480748
0.00506821
0.00532739
0.00558407
0.00583727
0.00608602
0.00632933
0.00656619
0.00679564
0.00701672
0.00722848
0.00743003
0.00762051
0.00779911
0.00796511
0.00811783
0.00825667
0.00838116
0.00849087
0.00858552
0.00866492
0.00872899
0.00877779
0.00881148
0.00883037
0.00883487
0.00882554
0.00880307
0.00876823
0.00872197
0.0086653
0.00859937
0.00852542
0.00844478
0.00835889
0.00826921
0.00817731
0.00808478
0.00799326
0.00790437
0.00781977
0.00774107
0.00766981
0.00760752
0.00755558
0.0075153
0.00748816
0.00747541
0.000492156
0.000416665
0.000349801
0.000282235
0.000211372
0.000138933
6.62694e-05
-5.54122e-06
-7.53966e-05
-0.000142215
-0.000204986
-0.000262782
-0.000314759
-0.000360167
-0.000398345
-0.000428718
-0.000450797
-0.000464164
-0.000468467
-0.000463417
-0.000448779
-0.000424368
-0.000390043
-0.000345704
-0.000291281
-0.000226733
-0.000152048
-6.72416e-05
2.76492e-05
0.000132564
0.000247421
0.000372119
0.000506532
0.000650513
0.000803889
0.000966461
0.001138
0.00131826
0.00150694
0.00170373
0.00190827
0.00212017
0.00233899
0.00256428
0.00279552
0.00303214
0.00327356
0.00351914
0.00376818
0.00401996
0.00427371
0.00452862
0.00478387
0.00503856
0.0052918
0.00554265
0.00579017
0.0060334
0.00627136
0.00650309
0.00672763
0.00694404
0.00715139
0.00734881
0.00753546
0.00771054
0.00787333
0.00802318
0.0081595
0.0082818
0.0083897
0.00848289
0.00856119
0.00862453
0.00867296
0.00870665
0.00872587
0.00873105
0.00872273
0.00870155
0.0086683
0.00862387
0.00856924
0.00850553
0.0084339
0.00835565
0.00827212
0.00818471
0.00809488
0.00800412
0.00791394
0.00782584
0.00774132
0.00766183
0.00758876
0.00752342
0.0074671
0.00742107
0.00738568
0.00735985
0.000613998
0.000519429
0.000440267
0.000363825
0.000286081
0.00020866
0.000132699
5.89892e-05
-1.16294e-05
-7.8306e-05
-0.000140237
-0.000196674
-0.000246932
-0.000290396
-0.00032652
-0.000354829
-0.000374915
-0.000386425
-0.000389062
-0.000382583
-0.000366788
-0.00034152
-0.000306659
-0.000262118
-0.000207836
-0.000143778
-6.99346e-05
1.36814e-05
0.000107036
0.000210076
0.000322729
0.000444903
0.000576484
0.000717338
0.000867307
0.00102621
0.00119382
0.00136992
0.00155423
0.00174645
0.00194623
0.00215322
0.002367
0.00258712
0.00281309
0.00304437
0.0032804
0.00352054
0.00376413
0.00401048
0.00425882
0.00450839
0.00475835
0.00500785
0.00525601
0.00550192
0.00574464
0.00598323
0.00621674
0.00644421
0.0066647
0.00687728
0.00708104
0.00727511
0.00745865
0.00763089
0.0077911
0.00793864
0.00807292
0.00819346
0.00829986
0.00839183
0.00846919
0.00853185
0.00857986
0.00861338
0.00863268
0.00863818
0.00863038
0.00860993
0.00857757
0.00853418
0.00848071
0.00841823
0.00834786
0.00827084
0.00818845
0.00810202
0.00801292
0.00792255
0.00783231
0.0077436
0.00765777
0.00757615
0.00749998
0.0074304
0.00736857
0.00731572
0.00727128
0.0072316
0.000736618
0.000623062
0.000531285
0.000445384
0.000360015
0.000276758
0.000196579
0.000120012
4.76681e-05
-1.98096e-05
-8.18042e-05
-0.000137736
-0.000187067
-0.000229315
-0.000264048
-0.000290888
-0.000309508
-0.000319626
-0.000321002
-0.00031344
-0.000296783
-0.000270902
-0.000235702
-0.000191112
-0.000137085
-7.35933e-05
-6.31742e-07
8.17868e-05
0.000173631
0.000274854
0.00038539
0.000505157
0.000634054
0.00077196
0.000918729
0.00107419
0.00123816
0.0014104
0.00159067
0.00177868
0.00197412
0.00217664
0.00238585
0.00260131
0.00282256
0.00304908
0.00328033
0.00351569
0.00375452
0.00399614
0.00423983
0.00448481
0.00473029
0.00497542
0.00521934
0.00546114
0.00569992
0.00593474
0.00616465
0.00638871
0.00660599
0.00681555
0.00701651
0.00720798
0.00738914
0.0075592
0.00771745
0.00786323
0.00799595
0.00811514
0.00822039
0.0083114
0.00838798
0.00845004
0.00849761
0.00853084
0.00855001
0.00855549
0.0085478
0.00852755
0.00849547
0.00845241
0.00839929
0.00833714
0.00826706
0.00819021
0.00810784
0.00802121
0.00793163
0.00784041
0.00774886
0.00765827
0.00756991
0.00748498
0.00740459
0.00732974
0.0072615
0.00720111
0.00714697
0.00709309
0.000857217
0.00072497
0.00062048
0.000524771
0.000431267
0.000341547
0.000256437
0.000176251
0.000101397
3.23344e-05
-3.04883e-05
-8.66468e-05
-0.000135744
-0.000177422
-0.000211358
-0.000237269
-0.000254909
-0.000264066
-0.000264562
-0.000256251
-0.000239015
-0.000212762
-0.000177419
-0.000132937
-7.92833e-05
-1.64409e-05
5.55904e-05
0.000136796
0.000227146
0.000326598
0.000435095
0.000552563
0.000678914
0.000814038
0.000957805
0.00111006
0.00127063
0.00143931
0.00161586
0.00180003
0.00199152
0.00218999
0.00239508
0.00260638
0.00282344
0.00304576
0.00327282
0.00350403
0.00373876
0.00397636
0.0042161
0.00445725
0.00469901
0.00494056
0.00518104
0.00541957
0.00565523
0.00588711
0.00611425
0.00633573
0.00655061
0.00675796
0.00695688
0.00714649
0.00732597
0.00749451
0.00765141
0.00779598
0.00792765
0.00804591
0.00815036
0.00824068
0.00831666
0.00837822
0.00842536
0.00845823
0.00847709
0.00848229
0.00847434
0.00845383
0.00842148
0.00837811
0.0083246
0.00826197
0.00819128
0.00811366
0.00803029
0.0079424
0.00785123
0.00775802
0.00766403
0.00757045
0.00747846
0.00738917
0.00730359
0.00722259
0.0071472
0.00707867
0.00701448
0.00694633
0.000973374
0.000822857
0.000705709
0.000600017
0.00049805
0.000401416
0.000310836
0.000226433
0.000148437
7.71466e-05
1.28558e-05
-4.41542e-05
-9.36172e-05
-0.000135291
-0.000168959
-0.000194426
-0.000211528
-0.000220124
-0.000220095
-0.000211349
-0.000193808
-0.000167413
-0.000132121
-8.79038e-05
-3.47449e-05
2.73606e-05
9.84064e-05
0.000178375
0.000267239
0.000364958
0.000471483
0.00058675
0.000710681
0.00084318
0.000984131
0.0011334
0.00129082
0.00145621
0.00162936
0.00181002
0.00199792
0.00219276
0.00239417
0.00260178
0.00281516
0.00303383
0.00325728
0.00348494
0.00371622
0.00395045
0.00418695
0.00442499
0.00466378
0.00490251
0.00514034
0.00537639
0.00560974
0.00583949
0.00606468
0.00628438
0.00649766
0.00670357
0.00690121
0.0070897
0.00726819
0.00743588
0.00759202
0.00773595
0.00786707
0.00798484
0.00808885
0.00817877
0.00825439
0.00831557
0.00836234
0.00839481
0.00841322
0.00841793
0.00840941
0.00838825
0.00835513
0.00831086
0.00825631
0.00819246
0.00812035
0.00804108
0.00795579
0.00786567
0.00777191
0.0076757
0.00757824
0.00748066
0.00738407
0.0072895
0.00719788
0.00711
0.00702684
0.00694972
0.00687526
0.00679295
0.00108298
0.000914689
0.000785039
0.000669309
0.000558686
0.000454828
0.00035838
0.0002693
0.000187662
0.000113621
4.73298e-05
-1.10602e-05
-6.14031e-05
-0.000103566
-0.000137428
-0.000162884
-0.000179849
-0.000188249
-0.000188027
-0.000179138
-0.000161549
-0.000135236
-0.000100183
-5.63858e-05
-3.84492e-06
5.74325e-05
0.000127433
0.000206135
0.000293511
0.000389527
0.000494138
0.000607291
0.000728918
0.000858936
0.000997244
0.00114372
0.00129823
0.00146059
0.00163063
0.00180812
0.0019928
0.00218439
0.00238256
0.00258694
0.00279712
0.00301266
0.00323305
0.00345775
0.00368618
0.0039177
0.00415164
0.00438726
0.0046238
0.00486047
0.0050964
0.00533074
0.00556257
0.00579098
0.00601502
0.00623374
0.00644619
0.00665144
0.00684855
0.00703664
0.00721484
0.00738233
0.00753836
0.00768221
0.00781328
0.00793103
0.00803499
0.00812484
0.00820033
0.00826132
0.0083078
0.00833987
0.00835776
0.0083618
0.00835246
0.00833029
0.00829598
0.0082503
0.00819412
0.0081284
0.00805414
0.00797242
0.00788437
0.00779113
0.00769386
0.00759372
0.00749186
0.00738937
0.0072873
0.00718663
0.00708824
0.00699285
0.00690141
0.00681536
0.00673052
0.00663424
0.0011842
0.000998651
0.000856713
0.000730975
0.0006116
0.00050032
0.000397721
0.000303618
0.000217948
0.000140735
7.20063e-05
1.17943e-05
-3.98651e-05
-8.29399e-05
-0.000117402
-0.000143232
-0.000160419
-0.000168956
-0.000168843
-0.000160086
-0.000142692
-0.000116672
-8.20406e-05
-3.88154e-05
1.29848e-05
7.33404e-05
0.00014223
0.000219629
0.000305511
0.000399843
0.000502589
0.000613704
0.000733131
0.0008608
0.000996626
0.0011405
0.00129231
0.00145191
0.00161912
0.00179374
0.00197554
0.00216426
0.00235958
0.00256116
0.00276862
0.00298153
0.0031994
0.00342171
0.00364789
0.00387732
0.00410934
0.00434323
0.00457823
0.00481354
0.00504833
0.00528172
0.0055128
0.00574065
0.00596431
0.00618283
0.00639524
0.00660059
0.00679793
0.00698635
0.00716496
0.00733293
0.00748946
0.00763383
0.00776539
0.00788358
0.00798793
0.00807806
0.0081537
0.0082147
0.00826102
0.00829275
0.00831008
0.00831334
0.00830297
0.00827951
0.00824364
0.0081961
0.00813777
0.00806956
0.00799249
0.00790761
0.00781602
0.00771886
0.00761725
0.00751234
0.00740523
0.007297
0.00718866
0.00708116
0.00697534
0.00687187
0.00677174
0.00667647
0.00658117
0.00647117
0.00127539
0.0010731
0.000919121
0.000783462
0.000655317
0.000536502
0.000427561
0.000328182
0.00023818
0.00015746
8.59392e-05
2.35397e-05
-2.98033e-05
-7.41527e-05
-0.000109568
-0.000136111
-0.000153841
-0.000162816
-0.00016309
-0.000154716
-0.000137744
-0.000112219
-7.81834e-05
-3.56791e-05
1.52583e-05
7.45968e-05
0.000142307
0.000218361
0.000302733
0.000395394
0.000496313
0.000605454
0.000722773
0.000848212
0.000981702
0.00112316
0.00127247
0.00142953
0.00159417
0.00176622
0.00194546
0.00213166
0.00232453
0.00252373
0.00272892
0.00293967
0.00315553
0.003376
0.0036005
0.00382845
0.00405918
0.00429199
0.00452613
0.0047608
0.00499516
0.00522835
0.00545944
0.00568749
0.00591155
0.00613065
0.00634379
0.00655001
0.00674833
0.00693782
0.00711756
0.00728668
0.00744436
0.00758986
0.00772248
0.00784163
0.0079468
0.0080376
0.00811372
0.00817499
0.00822133
0.00825281
0.0082696
0.00827201
0.00826046
0.00823548
0.00819774
0.00814796
0.00808701
0.00801579
0.00793531
0.00784661
0.00775079
0.00764896
0.00754225
0.00743178
0.00731865
0.00720391
0.00708857
0.00697357
0.00685972
0.00674768
0.00663846
0.00653374
0.00642793
0.00630443
0.00135506
0.00113654
0.00097078
0.000825329
0.000688452
0.000562056
0.000446653
0.000341819
0.000247257
0.000162772
8.81733e-05
2.32874e-05
-3.20459e-05
-7.79789e-05
-0.000114654
-0.000142207
-0.000160766
-0.000170448
-0.000171361
-0.000163603
-0.000147265
-0.000122424
-8.91535e-05
-4.75148e-05
2.43875e-06
6.06631e-05
0.000127122
0.000201784
0.000284623
0.000375614
0.000474734
0.000581954
0.000697242
0.000820556
0.000951842
0.00109103
0.00123804
0.00139277
0.00155509
0.00172484
0.00190183
0.00208584
0.00227662
0.00247384
0.00267718
0.00288624
0.00310058
0.00331971
0.0035431
0.00377014
0.00400019
0.00423256
0.0044665
0.00470122
0.00493588
0.00516959
0.00540143
0.00563045
0.00585568
0.00607612
0.00629077
0.00649863
0.0066987
0.00689001
0.0070716
0.00724258
0.0074021
0.00754934
0.00768361
0.00780427
0.00791076
0.00800266
0.00807963
0.00814145
0.00818804
0.00821941
0.00823574
0.00823729
0.00822447
0.00819781
0.00815794
0.00810559
0.00804161
0.00796691
0.00788248
0.00778937
0.00768867
0.0075815
0.00746898
0.00735223
0.00723235
0.00711041
0.0069874
0.00686428
0.00674184
0.00662075
0.0065021
0.00638769
0.00627131
0.00613449
0.00142186
0.00118758
0.00101032
0.000855233
0.0007097
0.000575724
0.000453795
0.000343385
0.000244101
0.00015565
7.77506e-05
1.01355e-05
-4.74437e-05
-9.52224e-05
-0.00013342
-0.000162244
-0.000181884
-0.000192515
-0.000194296
-0.000187369
-0.000171862
-0.000147887
-0.000115542
-7.49096e-05
-2.60602e-05
3.09513e-05
9.60817e-05
0.000169297
0.000250572
0.000339886
0.000437221
0.00054256
0.000655882
0.000777159
0.000906354
0.00104342
0.00118829
0.00134089
0.00150111
0.00166881
0.00184383
0.00202597
0.00221499
0.00241061
0.0026125
0.0028203
0.00303359
0.00325189
0.00347468
0.00370137
0.00393134
0.00416389
0.00439828
0.00463372
0.00486936
0.00510431
0.00533764
0.00556839
0.00579555
0.00601812
0.00623506
0.00644534
0.00664793
0.00684181
0.00702602
0.00719959
0.00736163
0.0075113
0.00764785
0.00777059
0.00787894
0.00797241
0.00805064
0.00811338
0.00816048
0.00819197
0.00820795
0.00820869
0.00819457
0.00816611
0.00812391
0.00806873
0.00800137
0.00792277
0.00783391
0.00773585
0.00762969
0.00751654
0.00739755
0.00727386
0.00714656
0.00701675
0.00688543
0.00675359
0.00662204
0.00649145
0.006363
0.00623867
0.00611163
0.00596161
0.00147454
0.00122495
0.00103646
0.00087191
0.000717824
0.000576306
0.000447828
0.00033177
0.000227649
0.000135086
5.37118e-05
-1.68284e-05
-7.6865e-05
-0.000126711
-0.000166658
-0.000196978
-0.000217922
-0.00022972
-0.000232576
-0.000226678
-0.000212188
-0.000189249
-0.000157985
-0.000118498
-7.08728e-05
-1.51753e-05
4.85453e-05
0.000120253
0.000199924
0.000287541
0.000383093
0.000486575
0.000597977
0.000717288
0.00084449
0.000979553
0.00112244
0.00127308
0.0014314
0.00159728
0.00177058
0.00195113
0.00213871
0.00233306
0.00253389
0.00274084
0.00295351
0.00317145
0.00339415
0.00362104
0.00385149
0.00408482
0.00432028
0.0045571
0.0047944
0.00503131
0.00526686
0.00550008
0.00572994
0.00595542
0.00617543
0.00638892
0.00659482
0.00679208
0.00697967
0.00715658
0.00732189
0.0074747
0.00761419
0.00773965
0.00785043
0.00794601
0.00802598
0.00809003
0.00813799
0.00816984
0.00818567
0.00818571
0.00817033
0.00814
0.00809535
0.00803711
0.00796609
0.00788323
0.00778952
0.00768602
0.00757385
0.00745415
0.00732808
0.0071968
0.00706145
0.00692313
0.0067829
0.00664175
0.00650057
0.00636004
0.00622143
0.00608691
0.00594907
0.00578587
0.00151193
0.00124745
0.001048
0.000874167
0.000711648
0.00056265
0.000427636
0.000305897
0.000196866
0.000100085
1.51e-05
-5.85227e-05
-0.000121191
-0.00017329
-0.000215179
-0.000247193
-0.000269639
-0.000282798
-0.000286921
-0.000282235
-0.000268936
-0.000247197
-0.000217163
-0.000178958
-0.000132679
-7.84e-05
-1.61767e-05
5.39538e-05
0.000131968
0.000217855
0.000311613
0.000413244
0.000522756
0.000640153
0.000765436
0.000898594
0.00103961
0.00118844
0.00134503
0.0015093
0.00168111
0.00186033
0.00204676
0.00224016
0.00244027
0.00264675
0.00285922
0.00307725
0.00330033
0.00352792
0.0037594
0.00399408
0.00423124
0.00447006
0.00470971
0.00494926
0.00518776
0.0054242
0.00565753
0.0058867
0.00611059
0.0063281
0.00653813
0.00673957
0.00693134
0.0071124
0.00728174
0.00743844
0.0075816
0.00771046
0.00782432
0.00792259
0.00800482
0.00807065
0.00811988
0.00815242
0.00816835
0.00816786
0.00815129
0.00811912
0.00807195
0.00801049
0.00793558
0.00784815
0.00774921
0.00763983
0.00752116
0.00739437
0.00726064
0.00712118
0.00697715
0.00682972
0.00667997
0.00652896
0.00637761
0.00622667
0.00607752
0.00593251
0.00578368
0.00560722
0.00153295
0.00125398
0.00104381
0.000860871
0.000690051
0.000533656
0.000392141
0.000264716
0.000150735
4.96598e-05
-3.90375e-05
-0.000115868
-0.00018131
-0.000235818
-0.000279815
-0.000313694
-0.000337819
-0.000352516
-0.000358081
-0.000354778
-0.000342836
-0.000322453
-0.000293798
-0.000257011
-0.000212201
-0.000159451
-9.88204e-05
-3.0348e-05
4.59459e-05
0.000130056
0.000221988
0.000321759
0.00042939
0.000544903
0.000668317
0.000799645
0.000938888
0.00108603
0.00124104
0.00140386
0.00157438
0.00175249
0.00193802
0.00213077
0.00233047
0.00253683
0.00274948
0.00296801
0.00319193
0.00342071
0.00365372
0.00389032
0.00412975
0.00437121
0.00461385
0.00485674
0.0050989
0.00533931
0.00557689
0.00581054
0.00603912
0.00626148
0.00647647
0.00668293
0.00687973
0.00706577
0.00723998
0.00740135
0.00754897
0.00768196
0.00779959
0.00790122
0.0079863
0.00805446
0.00810541
0.00813905
0.0081554
0.00815463
0.00813704
0.0081031
0.00805339
0.00798863
0.00790965
0.0078174
0.00771289
0.00759725
0.00747163
0.00733723
0.00719531
0.00704708
0.00689379
0.00673663
0.00657677
0.00641533
0.00625328
0.00609144
0.00593131
0.00577546
0.00561536
0.00542546
0.00153655
0.00124344
0.00102281
0.000830941
0.000651958
0.000488263
0.000340302
0.000207206
8.82551e-05
-1.71622e-05
-0.000109648
-0.000189782
-0.000258115
-0.000315163
-0.000361411
-0.000397308
-0.000423268
-0.000439666
-0.000446836
-0.000445078
-0.00043465
-0.000415778
-0.000388648
-0.000353416
-0.000310203
-0.000259099
-0.000200167
-0.000133446
-5.89518e-05
2.3316e-05
0.000113375
0.000211254
0.00031699
0.000430623
0.000552194
0.000681736
0.000819275
0.00096482
0.00111836
0.00127987
0.00144926
0.00162646
0.00181131
0.00200364
0.00220322
0.00240977
0.00262295
0.00284236
0.00306754
0.00329795
0.003533
0.00377203
0.0040143
0.00425901
0.00450528
0.00475219
0.00499873
0.00524385
0.00548645
0.00572538
0.00595948
0.00618754
0.00640836
0.00662072
0.00682344
0.00701533
0.00719527
0.00736219
0.00751508
0.00765303
0.0077752
0.0078809
0.00796952
0.0080406
0.00809384
0.00812905
0.00814622
0.00814548
0.0081271
0.00809154
0.00803935
0.00797126
0.0078881
0.00779082
0.00768049
0.00755822
0.00742524
0.00728277
0.00713212
0.00697458
0.00681144
0.00664397
0.0064734
0.00630094
0.00612763
0.00595436
0.00578278
0.00561567
0.00544396
0.0052403
0.00152174
0.00121483
0.000983962
0.000783341
0.000596338
0.000425445
0.000271103
0.000132369
8.44698e-06
-0.000101342
-0.000197669
-0.000281184
-0.000352501
-0.000412201
-0.000460824
-0.000498875
-0.000526816
-0.000545064
-0.000553992
-0.000553933
-0.000545175
-0.000527964
-0.000502506
-0.000468971
-0.00042749
-0.000378159
-0.000321043
-0.00025618
-0.000183582
-0.00010324
-1.51245e-05
8.0807e-05
0.000184609
0.00029634
0.000416062
0.000543832
0.0006797
0.0008237
0.000975851
0.00113614
0.00130454
0.00148097
0.00166532
0.00185745
0.00205715
0.00226417
0.00247818
0.00269881
0.00292562
0.0031581
0.00339564
0.00363761
0.00388326
0.00413179
0.00438232
0.00463391
0.00488552
0.0051361
0.0053845
0.00562954
0.00587
0.00610464
0.00633218
0.00655136
0.00676091
0.00695959
0.00714619
0.00731958
0.00747865
0.00762242
0.00774999
0.00786056
0.00795347
0.00802819
0.00808434
0.00812169
0.00814016
0.00813985
0.008121
0.00808403
0.0080295
0.00795812
0.00787073
0.0077683
0.0076519
0.00752272
0.00738198
0.00723101
0.00707114
0.00690374
0.00673018
0.00655179
0.00636991
0.00618582
0.00600065
0.0058154
0.00563183
0.00545299
0.00526923
0.00505136
0.00148757
0.00116717
0.000926275
0.000717075
0.00052219
0.000344207
0.000183559
3.92271e-05
-8.96519e-05
-0.000203825
-0.000304031
-0.000390986
-0.000465367
-0.000527813
-0.000578923
-0.000619251
-0.000649305
-0.000669544
-0.000680377
-0.000682168
-0.000675231
-0.000659833
-0.000636198
-0.000604508
-0.000564902
-0.000517482
-0.000462315
-0.000399435
-0.000328849
-0.000250537
-0.00016446
-7.05577e-05
3.12416e-05
0.000141017
0.000258852
0.000384828
0.00051902
0.000661491
0.000812285
0.000971424
0.0011389
0.00131467
0.00149867
0.00169076
0.00189077
0.00209848
0.00231359
0.00253575
0.00276453
0.00299944
0.00323991
0.00348527
0.00373482
0.00398773
0.00424312
0.00450003
0.00475743
0.0050142
0.00526919
0.00552116
0.00576885
0.00601095
0.00624615
0.00647309
0.00669045
0.0068969
0.00709117
0.007272
0.00743824
0.0075888
0.00772269
0.00783903
0.00793707
0.00801622
0.00807601
0.00811615
0.00813651
0.00813713
0.00811821
0.00808015
0.00802349
0.00794893
0.00785733
0.00774966
0.00762704
0.00749067
0.00734186
0.00718197
0.00701241
0.00683462
0.00665006
0.00646016
0.00626634
0.00606998
0.00587233
0.00567446
0.00547831
0.00528719
0.00509084
0.0048582
0.0014331
0.0010995
0.00084879
0.000631174
0.000428546
0.000243581
7.6704e-05
-7.3174e-05
-0.000206986
-0.000325545
-0.000429654
-0.000520095
-0.000597606
-0.000662884
-0.000716581
-0.000759299
-0.000791592
-0.000813958
-0.000826839
-0.000830629
-0.000825666
-0.000812236
-0.000790581
-0.000760891
-0.000723316
-0.000677961
-0.000624891
-0.000564138
-0.000495702
-0.000419552
-0.000335634
-0.000243872
-0.000144176
-3.64449e-05
7.94277e-05
0.000203548
0.000336019
0.000476931
0.000626359
0.000784357
0.000950948
0.00112612
0.00130984
0.00150201
0.00170248
0.00191106
0.00212748
0.00235142
0.00258247
0.00282016
0.00306391
0.00331311
0.00356702
0.00382484
0.00408568
0.00434855
0.0046124
0.00487611
0.00513846
0.00539819
0.00565399
0.00590449
0.0061483
0.00638401
0.00661021
0.00682548
0.00702846
0.00721781
0.00739227
0.00755067
0.0076919
0.007815
0.00791914
0.00800361
0.00806788
0.00811157
0.0081345
0.00813664
0.00811816
0.00807942
0.00802093
0.00794339
0.00784766
0.00773475
0.00760579
0.00746204
0.00730485
0.00713566
0.00695596
0.00676726
0.00657113
0.0063691
0.00616269
0.0059534
0.00574259
0.00553143
0.00532205
0.00511801
0.00490845
0.00466031
0.00135744
0.00101091
0.000750572
0.000524697
0.000314459
0.000122621
-5.04019e-05
-0.00020577
-0.000344484
-0.000467421
-0.000575451
-0.000669415
-0.000750114
-0.0008183
-0.000874677
-0.000919894
-0.000954547
-0.000979172
-0.000994243
-0.00100018
-0.000997348
-0.000986048
-0.000966537
-0.000939017
-0.000903642
-0.000860521
-0.000809718
-0.000751259
-0.000685135
-0.000611304
-0.000529697
-0.000440221
-0.000342765
-0.000237206
-0.000123413
-1.25278e-06
0.000129405
0.000268681
0.000416684
0.000573499
0.000739185
0.000913768
0.00109724
0.00128954
0.00149056
0.00170013
0.00191803
0.00214394
0.0023775
0.00261824
0.00286563
0.00311904
0.00337776
0.00364097
0.0039078
0.00417724
0.00444822
0.00471958
0.00499008
0.00525842
0.00552323
0.00578307
0.0060365
0.00628201
0.00651812
0.00674332
0.00695615
0.00715516
0.007339
0.00750638
0.00765609
0.00778705
0.00789834
0.00798915
0.00805884
0.00810698
0.00813327
0.00813765
0.00812022
0.0080813
0.00802138
0.00794116
0.00784149
0.00772339
0.00758805
0.00743676
0.00727095
0.00709211
0.00690182
0.00670172
0.00649344
0.00627865
0.00605899
0.00583606
0.00561136
0.00538619
0.00516283
0.00494515
0.00472165
0.00445717
0.00125971
0.000900487
0.000630707
0.000396724
0.000179009
-1.95942e-05
-0.000198679
-0.000359478
-0.000503058
-0.000630362
-0.000742323
-0.000839845
-0.000923784
-0.00099495
-0.00105409
-0.00110192
-0.00113905
-0.00116606
-0.00118347
-0.00119171
-0.00119117
-0.00118217
-0.00116498
-0.00113981
-0.00110682
-0.00106612
-0.00101778
-0.000961806
-0.000898184
-0.000826861
-0.000747751
-0.000660742
-0.000565702
-0.000462485
-0.000350935
-0.000230889
-0.000102188
3.53239e-05
0.000181786
0.000337321
0.000502023
0.000675956
0.000859146
0.00105157
0.00125317
0.00146379
0.00168325
0.00191128
0.00214752
0.00239155
0.00264284
0.0029008
0.00316471
0.00343378
0.0037071
0.00398369
0.00426244
0.00454217
0.00482161