/*--------------------------------*- C++ -*----------------------------------*\
  =========                 |
  \\      /  F ield         | OpenFOAM: The Open Source CFD Toolbox
   \\    /   O peration     | Website:  https://openfoam.org
    \\  /    A nd           | Version:  7
     \\/     M anipulation  |
\*---------------------------------------------------------------------------*/
FoamFile
{
    version     2.0;
    format      ascii;
    class       volScalarField;
    location    "51";
    object      p;
}
// * * * * * * * * * * * * * * * * * * * * * * * * * * * * * * * * * * * * * //

dimensions      [0 2 -2 0 0 0 0];

internalField   nonuniform List<scalar> 
41600
(
-0.208688
-0.212903
-0.215806
-0.216999
-0.218434
-0.218039
-0.217485
-0.215801
-0.213687
-0.210784
-0.207355
-0.203217
-0.198537
-0.193088
-0.187108
-0.180247
-0.172789
-0.164424
-0.155026
-0.145239
-0.1333
-0.122259
-0.108427
-0.0962045
-0.0824122
-0.208774
-0.212961
-0.215879
-0.217063
-0.218494
-0.218071
-0.217464
-0.215693
-0.213463
-0.210423
-0.206864
-0.202635
-0.19795
-0.192616
-0.186915
-0.180481
-0.173581
-0.165827
-0.156938
-0.14757
-0.135606
-0.124338
-0.109794
-0.0966691
-0.0818377
-0.208929
-0.213054
-0.215998
-0.217161
-0.218591
-0.218136
-0.217478
-0.215623
-0.213279
-0.210109
-0.206427
-0.202115
-0.197438
-0.192226
-0.186812
-0.180801
-0.174448
-0.167289
-0.158862
-0.149945
-0.137829
-0.126409
-0.111101
-0.0972397
-0.0814388
-0.209154
-0.213184
-0.216162
-0.21729
-0.218721
-0.218233
-0.217525
-0.215588
-0.213136
-0.209843
-0.206047
-0.201662
-0.197003
-0.191916
-0.186793
-0.181189
-0.175357
-0.168746
-0.160713
-0.152173
-0.139841
-0.12831
-0.112279
-0.0977466
-0.0812251
-0.209446
-0.213347
-0.216368
-0.217448
-0.218884
-0.218359
-0.217604
-0.215588
-0.213032
-0.209622
-0.205724
-0.201273
-0.196643
-0.191683
-0.186847
-0.181622
-0.176265
-0.170135
-0.162407
-0.154161
-0.141633
-0.129829
-0.113256
-0.0981547
-0.0811738
-0.209805
-0.213542
-0.216615
-0.217634
-0.219077
-0.218513
-0.217711
-0.215618
-0.212965
-0.209446
-0.205453
-0.200947
-0.196355
-0.191518
-0.186956
-0.182071
-0.177127
-0.171421
-0.163929
-0.155765
-0.143073
-0.130955
-0.113995
-0.0984283
-0.0812736
-0.210229
-0.213768
-0.216899
-0.217844
-0.219296
-0.218689
-0.217844
-0.215677
-0.21293
-0.209309
-0.205232
-0.200679
-0.196129
-0.191409
-0.1871
-0.18251
-0.177952
-0.172487
-0.165147
-0.156972
-0.144113
-0.131623
-0.114496
-0.098568
-0.0814995
-0.210716
-0.214022
-0.217219
-0.218076
-0.219537
-0.218885
-0.217996
-0.215757
-0.212922
-0.209207
-0.205053
-0.200461
-0.195955
-0.191343
-0.187254
-0.182906
-0.178592
-0.173319
-0.16601
-0.157716
-0.144729
-0.131808
-0.114751
-0.0985998
-0.0818118
-0.211264
-0.214302
-0.21757
-0.218324
-0.219796
-0.219095
-0.218163
-0.215854
-0.212936
-0.209133
-0.20491
-0.200284
-0.19582
-0.191305
-0.187389
-0.183224
-0.179048
-0.173865
-0.166472
-0.157948
-0.144898
-0.131534
-0.114736
-0.0985482
-0.0821694
-0.21187
-0.214604
-0.217949
-0.218586
-0.220069
-0.219314
-0.218339
-0.215962
-0.212963
-0.209078
-0.204793
-0.200137
-0.195708
-0.191272
-0.187474
-0.183429
-0.179269
-0.174072
-0.166495
-0.157647
-0.144593
-0.130853
-0.114435
-0.098418
-0.0825373
-0.212532
-0.214925
-0.218352
-0.218856
-0.220349
-0.219535
-0.218518
-0.216072
-0.212997
-0.209035
-0.204689
-0.200008
-0.195599
-0.191219
-0.187473
-0.183481
-0.179207
-0.17389
-0.16605
-0.156815
-0.143807
-0.129826
-0.113857
-0.0981965
-0.0828855
-0.213248
-0.215262
-0.218773
-0.21913
-0.220631
-0.219754
-0.218693
-0.216178
-0.213027
-0.208991
-0.204588
-0.199879
-0.19547
-0.191118
-0.187347
-0.183333
-0.178823
-0.173276
-0.165126
-0.155484
-0.142559
-0.128509
-0.113035
-0.0978687
-0.0831853
-0.214014
-0.215613
-0.21921
-0.219403
-0.22091
-0.219964
-0.218856
-0.216271
-0.213046
-0.208937
-0.204473
-0.19973
-0.195294
-0.190934
-0.187052
-0.182933
-0.178084
-0.172205
-0.163731
-0.153709
-0.140906
-0.126959
-0.11202
-0.0974299
-0.0834104
-0.214828
-0.215972
-0.219655
-0.219669
-0.22118
-0.220157
-0.219001
-0.216342
-0.213041
-0.208857
-0.204327
-0.199537
-0.19504
-0.190626
-0.186548
-0.182232
-0.176969
-0.170681
-0.161899
-0.151566
-0.138932
-0.125233
-0.110867
-0.0968888
-0.0835411
-0.215686
-0.216337
-0.220106
-0.219924
-0.221434
-0.220328
-0.219119
-0.216383
-0.213001
-0.208737
-0.204129
-0.199273
-0.194672
-0.190151
-0.185795
-0.181195
-0.175475
-0.16874
-0.159688
-0.149147
-0.136734
-0.123391
-0.109621
-0.0962621
-0.0835677
-0.216588
-0.216704
-0.220557
-0.220163
-0.221667
-0.220471
-0.219203
-0.216384
-0.212914
-0.208558
-0.203856
-0.198906
-0.194153
-0.189463
-0.184763
-0.179806
-0.173619
-0.166444
-0.15718
-0.146546
-0.134402
-0.121487
-0.108321
-0.0955679
-0.0834899
-0.217529
-0.217071
-0.221004
-0.220381
-0.221874
-0.220577
-0.219246
-0.216332
-0.212766
-0.208302
-0.203481
-0.198403
-0.193447
-0.188529
-0.183438
-0.178073
-0.17144
-0.163874
-0.154465
-0.143846
-0.132012
-0.119564
-0.106992
-0.0948216
-0.0833144
-0.218509
-0.217432
-0.221441
-0.220573
-0.222048
-0.220643
-0.219238
-0.216218
-0.212539
-0.207947
-0.202976
-0.197731
-0.192525
-0.187323
-0.181818
-0.176029
-0.168998
-0.161113
-0.151627
-0.141116
-0.129619
-0.117653
-0.105652
-0.0940343
-0.0830515
-0.219524
-0.217787
-0.221865
-0.220734
-0.222185
-0.22066
-0.219171
-0.216029
-0.212217
-0.207469
-0.202314
-0.196861
-0.191365
-0.185839
-0.179923
-0.173722
-0.166356
-0.158239
-0.148738
-0.138407
-0.127258
-0.115773
-0.104312
-0.0932138
-0.0827122
-0.220573
-0.218132
-0.222271
-0.220863
-0.222278
-0.220623
-0.219037
-0.215752
-0.211781
-0.206846
-0.20147
-0.195771
-0.189958
-0.184088
-0.177786
-0.171212
-0.163581
-0.155316
-0.145854
-0.135748
-0.124949
-0.113933
-0.102976
-0.0923655
-0.0823067
-0.221655
-0.218464
-0.222657
-0.220955
-0.222325
-0.220524
-0.218825
-0.215372
-0.211212
-0.206056
-0.200425
-0.194449
-0.188309
-0.182093
-0.175449
-0.168556
-0.160732
-0.15239
-0.143009
-0.133159
-0.122702
-0.112138
-0.101649
-0.0914934
-0.0818442
-0.222768
-0.218783
-0.223019
-0.221004
-0.22232
-0.220358
-0.218524
-0.214875
-0.210493
-0.205082
-0.199167
-0.192895
-0.186434
-0.179891
-0.172958
-0.165805
-0.157853
-0.149493
-0.140226
-0.130647
-0.120518
-0.110388
-0.100329
-0.0906006
-0.0813319
-0.223913
-0.219086
-0.223348
-0.221015
-0.222259
-0.220117
-0.218125
-0.214246
-0.209607
-0.20391
-0.197692
-0.191118
-0.184357
-0.177521
-0.170354
-0.163003
-0.15498
-0.146645
-0.137517
-0.128212
-0.118397
-0.108681
-0.0990173
-0.0896898
-0.0807761
-0.225089
-0.219374
-0.223648
-0.220981
-0.222138
-0.219794
-0.217616
-0.213473
-0.208543
-0.202536
-0.196006
-0.189139
-0.182109
-0.175021
-0.167677
-0.160181
-0.152135
-0.143856
-0.134886
-0.125852
-0.116334
-0.107013
-0.0977117
-0.0887636
-0.0801819
-0.226296
-0.219643
-0.223919
-0.220899
-0.221952
-0.219382
-0.216986
-0.212543
-0.207293
-0.20096
-0.194122
-0.186982
-0.179722
-0.172428
-0.164957
-0.157364
-0.149334
-0.141131
-0.132333
-0.123562
-0.114326
-0.105381
-0.0964107
-0.0878245
-0.0795533
-0.227536
-0.219894
-0.224158
-0.220769
-0.221696
-0.218874
-0.216227
-0.21145
-0.205854
-0.199189
-0.192058
-0.184676
-0.177226
-0.169772
-0.162218
-0.154568
-0.146584
-0.138471
-0.129856
-0.121333
-0.112368
-0.103781
-0.0951125
-0.0868745
-0.0788937
-0.228809
-0.22014
-0.224356
-0.220588
-0.221364
-0.218263
-0.215332
-0.210187
-0.20423
-0.197239
-0.189839
-0.182248
-0.174649
-0.167079
-0.159478
-0.151803
-0.143889
-0.135873
-0.127449
-0.11916
-0.110457
-0.102207
-0.0938157
-0.0859159
-0.0782053
-0.230118
-0.220374
-0.224517
-0.220355
-0.220952
-0.217544
-0.214294
-0.208753
-0.202429
-0.195126
-0.187488
-0.179726
-0.172016
-0.164367
-0.156748
-0.149075
-0.141249
-0.133336
-0.125109
-0.117036
-0.108589
-0.100655
-0.0925191
-0.0849501
-0.0774898
-0.231467
-0.220597
-0.224642
-0.220067
-0.220458
-0.216715
-0.21311
-0.207151
-0.200464
-0.192872
-0.18503
-0.177133
-0.169345
-0.16165
-0.154037
-0.146389
-0.138661
-0.130855
-0.122828
-0.114955
-0.10676
-0.0991204
-0.091222
-0.0839781
-0.0767479
-0.232857
-0.220815
-0.224729
-0.219722
-0.219879
-0.215771
-0.211779
-0.205387
-0.19835
-0.190498
-0.182486
-0.174489
-0.166653
-0.158939
-0.151351
-0.143745
-0.136123
-0.128427
-0.120601
-0.112913
-0.104969
-0.0975972
-0.0899241
-0.0829999
-0.0759793
-0.234294
-0.221033
-0.224773
-0.219318
-0.219217
-0.21471
-0.210303
-0.203471
-0.196106
-0.188023
-0.179876
-0.17181
-0.163951
-0.156242
-0.148691
-0.141143
-0.133632
-0.12605
-0.118422
-0.110904
-0.103211
-0.0960806
-0.088626
-0.0820139
-0.0751831
-0.235781
-0.221257
-0.224771
-0.218858
-0.218473
-0.213529
-0.208685
-0.201416
-0.19375
-0.185469
-0.177218
-0.169109
-0.161247
-0.153562
-0.146061
-0.138582
-0.131184
-0.12372
-0.116286
-0.108926
-0.101484
-0.0945658
-0.0873285
-0.0810176
-0.0743574
-0.237323
-0.221491
-0.22472
-0.218347
-0.217649
-0.212228
-0.206932
-0.199235
-0.191299
-0.182852
-0.174526
-0.166398
-0.15855
-0.150902
-0.14346
-0.13606
-0.128776
-0.121434
-0.114187
-0.106976
-0.0997824
-0.0930488
-0.0860332
-0.0800075
-0.0735007
-0.238927
-0.221739
-0.224614
-0.217792
-0.216746
-0.210804
-0.205053
-0.196945
-0.188772
-0.180186
-0.171812
-0.163682
-0.155863
-0.148265
-0.140888
-0.133576
-0.126404
-0.119188
-0.112119
-0.105054
-0.0981028
-0.0915259
-0.0847415
-0.0789783
-0.0726109
-0.240599
-0.222005
-0.224453
-0.217205
-0.215764
-0.209259
-0.203058
-0.194559
-0.186181
-0.177486
-0.169084
-0.160969
-0.153189
-0.14565
-0.138344
-0.131126
-0.124066
-0.116981
-0.110079
-0.103158
-0.0964396
-0.0899947
-0.0834542
-0.0779222
-0.0716846
-0.242344
-0.222285
-0.224239
-0.216594
-0.214699
-0.207597
-0.200959
-0.192093
-0.183543
-0.174761
-0.166349
-0.158262
-0.15053
-0.143058
-0.135828
-0.128709
-0.121759
-0.114808
-0.108064
-0.101288
-0.0947871
-0.0884548
-0.0821704
-0.0768235
-0.0707146
-0.244169
-0.222572
-0.223984
-0.215965
-0.213551
-0.205823
-0.198768
-0.189561
-0.180866
-0.172019
-0.163614
-0.155564
-0.147888
-0.140488
-0.133339
-0.126321
-0.119482
-0.112666
-0.10607
-0.0994429
-0.0931404
-0.0869093
-0.0808854
-0.0756544
-0.0696917
-0.246082
-0.222855
-0.223703
-0.215315
-0.212317
-0.203944
-0.196495
-0.186973
-0.178162
-0.169267
-0.160881
-0.152877
-0.145264
-0.13794
-0.130875
-0.123961
-0.117233
-0.110553
-0.104098
-0.0976212
-0.0914965
-0.0853657
-0.0795903
-0.0743793
-0.0686126
-0.248072
-0.223128
-0.223421
-0.214637
-0.210999
-0.201968
-0.194153
-0.18434
-0.175437
-0.16651
-0.158154
-0.150202
-0.142656
-0.135413
-0.128434
-0.121627
-0.115009
-0.108465
-0.102144
-0.095821
-0.0898546
-0.0838341
-0.0782744
-0.0729813
-0.0674901
-0.250139
-0.223381
-0.223165
-0.213916
-0.209598
-0.199904
-0.19175
-0.181672
-0.172699
-0.163752
-0.155435
-0.14754
-0.140065
-0.132905
-0.126017
-0.119316
-0.11281
-0.1064
-0.10021
-0.0940394
-0.0882163
-0.0823214
-0.0769327
-0.0715108
-0.0663445
-0.252288
-0.22359
-0.22296
-0.213137
-0.208117
-0.19776
-0.189297
-0.178976
-0.169952
-0.160996
-0.152724
-0.14489
-0.13749
-0.130415
-0.12362
-0.117027
-0.110633
-0.104356
-0.0982938
-0.0922739
-0.0865843
-0.0808274
-0.0755699
-0.070099
-0.0651613
-0.254505
-0.223748
-0.222824
-0.212288
-0.20656
-0.195544
-0.1868
-0.176258
-0.167199
-0.158243
-0.150023
-0.142254
-0.134931
-0.127944
-0.121243
-0.114758
-0.108476
-0.102331
-0.0963944
-0.0905225
-0.0849609
-0.0793467
-0.0741983
-0.0687983
-0.0639718
-0.256765
-0.223859
-0.222762
-0.211361
-0.204931
-0.193264
-0.184266
-0.173523
-0.164445
-0.155495
-0.147332
-0.139629
-0.132387
-0.125488
-0.118885
-0.112508
-0.106339
-0.100323
-0.0945107
-0.0887837
-0.0833471
-0.0778753
-0.0728396
-0.0675506
-0.0627883
-0.259036
-0.223935
-0.222763
-0.210351
-0.203232
-0.190925
-0.181702
-0.170775
-0.161689
-0.152752
-0.14465
-0.137016
-0.129857
-0.123048
-0.116543
-0.110275
-0.10422
-0.0983314
-0.0926418
-0.0870566
-0.0817427
-0.0764136
-0.0714912
-0.0663364
-0.0616867
-0.261276
-0.223997
-0.222801
-0.20926
-0.201466
-0.188536
-0.179112
-0.168016
-0.158935
-0.150015
-0.141977
-0.134414
-0.12734
-0.120623
-0.114217
-0.108058
-0.102116
-0.0963537
-0.0907864
-0.08534
-0.0801475
-0.0749594
-0.0701552
-0.0651439
-0.060619
-0.263439
-0.22408
-0.222837
-0.208093
-0.199636
-0.1861
-0.176499
-0.16525
-0.156181
-0.147283
-0.139312
-0.131822
-0.124834
-0.118211
-0.111906
-0.105856
-0.100028
-0.0943894
-0.0889435
-0.0836332
-0.0785607
-0.0735131
-0.0688281
-0.0639614
-0.0595838
-0.265476
-0.224228
-0.222824
-0.206854
-0.197743
-0.183623
-0.173866
-0.162478
-0.15343
-0.144556
-0.136656
-0.129239
-0.12234
-0.115811
-0.109609
-0.103667
-0.0979537
-0.0924372
-0.0871121
-0.0819352
-0.0769818
-0.0720732
-0.0675078
-0.0627875
-0.0585557
-0.267339
-0.224492
-0.22272
-0.205547
-0.195791
-0.181107
-0.171217
-0.1597
-0.15068
-0.141834
-0.134006
-0.126665
-0.119856
-0.113422
-0.107323
-0.101491
-0.0958916
-0.090496
-0.0852912
-0.0802453
-0.07541
-0.0706393
-0.0661925
-0.0616161
-0.0575305
-0.268984
-0.224924
-0.222485
-0.204174
-0.193781
-0.178557
-0.168552
-0.156916
-0.147931
-0.139115
-0.131363
-0.124099
-0.117382
-0.111044
-0.105049
-0.0993255
-0.0938409
-0.0885649
-0.0834799
-0.0785625
-0.0738446
-0.06921
-0.06488
-0.0604466
-0.0565003
-0.270379
-0.225578
-0.222094
-0.202737
-0.191716
-0.175973
-0.165872
-0.154128
-0.145183
-0.1364
-0.128725
-0.121539
-0.114915
-0.108675
-0.102785
-0.0971708
-0.0918006
-0.0866431
-0.0816772
-0.0768862
-0.072285
-0.0677845
-0.0635696
-0.0592759
-0.0554635
-0.271497
-0.226496
-0.221537
-0.201235
-0.189599
-0.173359
-0.163178
-0.151334
-0.142435
-0.133687
-0.126092
-0.118986
-0.112457
-0.106315
-0.10053
-0.0950256
-0.0897695
-0.0847295
-0.0798823
-0.0752154
-0.0707303
-0.0663619
-0.0622597
-0.0581037
-0.0544182
-0.272325
-0.227706
-0.220814
-0.199664
-0.187431
-0.170714
-0.160471
-0.148534
-0.139685
-0.130975
-0.123462
-0.116437
-0.110004
-0.103962
-0.0982835
-0.0928888
-0.0877469
-0.0828235
-0.0780943
-0.0735495
-0.0691799
-0.0649411
-0.0609498
-0.0569284
-0.0533642
-0.272859
-0.229215
-0.21994
-0.198022
-0.185216
-0.16804
-0.15775
-0.145727
-0.136934
-0.128264
-0.120836
-0.113893
-0.107558
-0.101615
-0.0960445
-0.0907597
-0.0857318
-0.0809242
-0.0763125
-0.0718879
-0.0676332
-0.0635216
-0.059639
-0.0557497
-0.052301
-0.273099
-0.231007
-0.218932
-0.196305
-0.182955
-0.165337
-0.155014
-0.142914
-0.134179
-0.125552
-0.11821
-0.111352
-0.105116
-0.0992752
-0.093812
-0.0886375
-0.0837234
-0.0790309
-0.0745361
-0.0702299
-0.0660896
-0.0621025
-0.0583268
-0.054567
-0.0512287
-0.273056
-0.233035
-0.217813
-0.194508
-0.180649
-0.162605
-0.152263
-0.140091
-0.131421
-0.122838
-0.115586
-0.108813
-0.102678
-0.09694
-0.0915854
-0.0865214
-0.0817209
-0.077143
-0.0727644
-0.0685749
-0.0645483
-0.0606832
-0.0570127
-0.0533799
-0.0501474
-0.272743
-0.235228
-0.216607
-0.192625
-0.178301
-0.159844
-0.149496
-0.137259
-0.128657
-0.120122
-0.112962
-0.106276
-0.100244
-0.0946091
-0.0893638
-0.0844106
-0.0797237
-0.0752598
-0.0709967
-0.0669224
-0.063009
-0.0592631
-0.0556964
-0.0521882
-0.0490571
-0.27218
-0.23749
-0.215332
-0.190651
-0.175911
-0.157053
-0.146712
-0.134417
-0.125887
-0.117402
-0.110336
-0.10374
-0.097812
-0.0922818
-0.0871465
-0.0823044
-0.077731
-0.0733807
-0.0692324
-0.0652719
-0.061471
-0.0578419
-0.0543777
-0.0509917
-0.047958
-0.271392
-0.239712
-0.214004
-0.188582
-0.173478
-0.154232
-0.143909
-0.131563
-0.123109
-0.114678
-0.107709
-0.101204
-0.0953819
-0.0899574
-0.0849329
-0.0802022
-0.0757422
-0.0715052
-0.0674709
-0.0636231
-0.0599339
-0.0564191
-0.0530564
-0.0497901
-0.0468503
-0.270413
-0.241775
-0.212634
-0.186413
-0.171002
-0.151381
-0.141088
-0.128696
-0.120323
-0.111948
-0.105079
-0.0986677
-0.0929529
-0.0876352
-0.0827224
-0.0781035
-0.0737568
-0.0696326
-0.0657118
-0.0619755
-0.0583973
-0.0549943
-0.0517322
-0.0485835
-0.0457341
-0.269284
-0.243561
-0.211228
-0.18414
-0.168483
-0.148497
-0.138245
-0.125815
-0.117527
-0.109212
-0.102446
-0.0961296
-0.0905242
-0.0853146
-0.0805142
-0.0760075
-0.0717742
-0.0677626
-0.0639545
-0.0603287
-0.0568607
-0.0535674
-0.0504053
-0.0473717
-0.0446098
-0.268055
-0.244968
-0.209787
-0.181762
-0.165919
-0.145581
-0.13538
-0.122918
-0.11472
-0.106469
-0.0998087
-0.0935895
-0.0880954
-0.0829949
-0.0783079
-0.0739138
-0.069794
-0.0658946
-0.0621987
-0.0586824
-0.0553239
-0.0521381
-0.0490753
-0.0461546
-0.0434775
-0.266785
-0.245911
-0.20831
-0.179277
-0.16331
-0.142631
-0.132491
-0.120005
-0.111902
-0.103718
-0.0971663
-0.0910466
-0.0856657
-0.0806757
-0.076103
-0.0718219
-0.0678156
-0.0640283
-0.0604439
-0.0570364
-0.0537865
-0.0507063
-0.0477425
-0.0449321
-0.0423374
-0.265539
-0.246334
-0.206795
-0.176684
-0.160652
-0.139646
-0.129577
-0.117075
-0.10907
-0.100958
-0.0945182
-0.0885004
-0.0832345
-0.0783563
-0.0738989
-0.0697313
-0.0658386
-0.0621633
-0.0586898
-0.0553904
-0.0522482
-0.0492719
-0.0464066
-0.0437043
-0.0411899
-0.264388
-0.24621
-0.205234
-0.173985
-0.157945
-0.136625
-0.126638
-0.114126
-0.106225
-0.0981879
-0.0918637
-0.0859502
-0.0808014
-0.0760363
-0.0716951
-0.0676416
-0.0638627
-0.0602992
-0.0569361
-0.0537441
-0.0507088
-0.0478347
-0.0450677
-0.0424712
-0.0400352
-0.263402
-0.24554
-0.203625
-0.171181
-0.155188
-0.133568
-0.12367
-0.111157
-0.103366
-0.0954078
-0.0892021
-0.0833954
-0.0783658
-0.0737153
-0.0694914
-0.0655523
-0.0618875
-0.0584357
-0.0551825
-0.0520974
-0.049168
-0.0463948
-0.0437257
-0.0412326
-0.0388736
-0.262651
-0.244352
-0.20196
-0.168276
-0.152378
-0.130472
-0.120674
-0.108167
-0.10049
-0.0926165
-0.0865328
-0.0808356
-0.0759273
-0.0713928
-0.0672871
-0.0634633
-0.0599127
-0.0565725
-0.0534288
-0.0504501
-0.0476258
-0.0449522
-0.0423807
-0.0399887
-0.0377054
-0.262194
-0.24269
-0.200235
-0.165273
-0.149513
-0.127338
-0.117647
-0.105156
-0.0975984
-0.0898134
-0.0838553
-0.0782703
-0.0734853
-0.0690684
-0.0650821
-0.061374
-0.0579381
-0.0547094
-0.0516749
-0.0488021
-0.046082
-0.0435069
-0.0410326
-0.0387395
-0.0365309
-0.262082
-0.240615
-0.198446
-0.162175
-0.146593
-0.124163
-0.114589
-0.102122
-0.0946894
-0.0869979
-0.0811689
-0.0756989
-0.0710395
-0.0667417
-0.062876
-0.0592844
-0.0559633
-0.0528461
-0.0499205
-0.0471532
-0.0445365
-0.0420589
-0.0396815
-0.0374849
-0.0353506
-0.262355
-0.238188
-0.196587
-0.158985
-0.143615
-0.120948
-0.111498
-0.0990643
-0.0917623
-0.0841693
-0.0784731
-0.0731211
-0.0685896
-0.0644125
-0.0606684
-0.057194
-0.0539883
-0.0509826
-0.0481655
-0.0455033
-0.0429893
-0.0406082
-0.0383273
-0.0362252
-0.0341646
-0.263035
-0.235473
-0.194656
-0.155708
-0.140577
-0.11769
-0.108374
-0.0959822
-0.0888164
-0.0813271
-0.0757675
-0.0705365
-0.0661351
-0.0620804
-0.0584593
-0.0551027
-0.0520127
-0.0491186
-0.0464099
-0.0438524
-0.0414402
-0.0391551
-0.0369701
-0.0349605
-0.0329733
-0.264133
-0.232526
-0.192649
-0.152346
-0.13748
-0.114389
-0.105215
-0.0928747
-0.0858512
-0.0784709
-0.0730517
-0.0679447
-0.0636758
-0.0597452
-0.0562482
-0.0530104
-0.0500364
-0.0472541
-0.0446536
-0.0422005
-0.0398894
-0.0376995
-0.03561
-0.0336908
-0.0317771
-0.265646
-0.229399
-0.19056
-0.148903
-0.134319
-0.111044
-0.102021
-0.0897412
-0.0828658
-0.0756
-0.0703252
-0.0653455
-0.0612115
-0.0574067
-0.0540352
-0.0509168
-0.0480595
-0.0453889
-0.0428966
-0.0405476
-0.0383369
-0.0362416
-0.034247
-0.0324164
-0.0305762
-0.267556
-0.22613
-0.188387
-0.145379
-0.131095
-0.107654
-0.0987891
-0.086581
-0.0798598
-0.0727142
-0.0675877
-0.0627385
-0.0587418
-0.0550648
-0.0518199
-0.0488219
-0.0460817
-0.043523
-0.0411387
-0.0388936
-0.0367827
-0.0347816
-0.0328813
-0.0311375
-0.0293708
-0.269837
-0.22275
-0.186123
-0.141778
-0.127805
-0.104217
-0.09552
-0.0833933
-0.0768327
-0.0698129
-0.0648389
-0.0601236
-0.0562667
-0.0527192
-0.0496024
-0.0467256
-0.044103
-0.0416565
-0.0393802
-0.0372386
-0.0352269
-0.0333196
-0.0315129
-0.0298546
-0.0281617
-0.272453
-0.219282
-0.183764
-0.138099
-0.124448
-0.100734
-0.0922123
-0.0801775
-0.073784
-0.0668959
-0.0620785
-0.0575005
-0.0537859
-0.0503699
-0.0473825
-0.0446279
-0.0421234
-0.0397892
-0.0376209
-0.0355826
-0.0336697
-0.0318557
-0.0301421
-0.0285681
-0.0269496
-0.275359
-0.215738
-0.181305
-0.134344
-0.121022
-0.0972022
-0.0888652
-0.0769331
-0.0707132
-0.0639629
-0.0593064
-0.0548691
-0.0512994
-0.0480168
-0.0451602
-0.0425287
-0.0401429
-0.0379213
-0.035861
-0.0339259
-0.0321111
-0.03039
-0.0287689
-0.0272786
-0.0257356
-0.278507
-0.212127
-0.178739
-0.130512
-0.117526
-0.0936213
-0.0854781
-0.0736596
-0.06762
-0.0610136
-0.0565223
-0.0522294
-0.0488071
-0.0456599
-0.0429355
-0.0404281
-0.0381616
-0.0360529
-0.0341006
-0.0322684
-0.0305513
-0.0289227
-0.0273933
-0.0259863
-0.0245207
-0.281841
-0.20845
-0.176059
-0.126603
-0.113957
-0.0899903
-0.0820503
-0.0703564
-0.0645041
-0.0580478
-0.0537261
-0.0495812
-0.046309
-0.0432992
-0.0407085
-0.0383261
-0.0361795
-0.034184
-0.0323398
-0.0306103
-0.0289905
-0.0274539
-0.0260153
-0.024691
-0.0233049
-0.285304
-0.204704
-0.173258
-0.122614
-0.110315
-0.0863081
-0.078581
-0.0670232
-0.0613653
-0.0550654
-0.0509179
-0.0469246
-0.043805
-0.0409347
-0.0384791
-0.0362228
-0.0341968
-0.0323148
-0.0305787
-0.0289519
-0.0274289
-0.0259838
-0.0246356
-0.0233928
-0.0220851
-0.288837
-0.200883
-0.17033
-0.118546
-0.106598
-0.0825739
-0.0750699
-0.0636597
-0.0582035
-0.0520663
-0.0480976
-0.0442596
-0.0412954
-0.0385666
-0.0362476
-0.0341184
-0.0322136
-0.0304454
-0.0288177
-0.0272933
-0.0258665
-0.0245126
-0.0232549
-0.0220928
-0.0208539
-0.292378
-0.19698
-0.167266
-0.114396
-0.102803
-0.0787866
-0.0715165
-0.0602653
-0.0550188
-0.0490504
-0.0452652
-0.0415863
-0.03878
-0.036195
-0.034014
-0.0320131
-0.0302301
-0.028576
-0.0270568
-0.0256347
-0.0243035
-0.0230403
-0.0218741
-0.0207945
-0.0196021
-0.295866
-0.192983
-0.16406
-0.110162
-0.0989298
-0.0749454
-0.0679205
-0.0568394
-0.0518111
-0.0460178
-0.0424205
-0.038905
-0.0362591
-0.03382
-0.0317786
-0.0299068
-0.0282464
-0.0267068
-0.0252964
-0.0239762
-0.02274
-0.021567
-0.0204929
-0.0195003
-0.0183287
-0.29924
-0.188881
-0.160703
-0.105841
-0.0949769
-0.0710492
-0.0642821
-0.053382
-0.0485801
-0.042969
-0.0395634
-0.0362158
-0.0337331
-0.0314417
-0.0295415
-0.0277999
-0.0262629
-0.0248381
-0.0235367
-0.0223182
-0.0211765
-0.0200941
-0.0191118
-0.0182024
-0.0170537
-0.30244
-0.18466
-0.157188
-0.10143
-0.0909429
-0.0670968
-0.0606014
-0.0498937
-0.045325
-0.0399037
-0.0366947
-0.0335181
-0.0312027
-0.02906
-0.0273033
-0.0256925
-0.0242797
-0.02297
-0.0217781
-0.0206609
-0.0196134
-0.0186237
-0.0177356
-0.0168815
-0.0158047
-0.305406
-0.180307
-0.153508
-0.0969282
-0.0868269
-0.0630869
-0.0568778
-0.0463762
-0.0420459
-0.0368203
-0.0338174
-0.0308102
-0.0286689
-0.026675
-0.025064
-0.023585
-0.0222972
-0.0211034
-0.0200204
-0.0190044
-0.0180514
-0.0171558
-0.0163574
-0.0155518
-0.0145717
-0.308083
-0.175808
-0.149656
-0.0923309
-0.0826286
-0.0590194
-0.0531089
-0.0428288
-0.0387474
-0.0337144
-0.0309361
-0.0280911
-0.0261313
-0.0242881
-0.0228234
-0.0214782
-0.0203154
-0.0192381
-0.0182641
-0.0173492
-0.0164912
-0.0156895
-0.0149755
-0.0142225
-0.0133449
-0.310416
-0.171149
-0.145624
-0.0876353
-0.0783477
-0.0548955
-0.0492952
-0.0392406
-0.035442
-0.0305831
-0.0280501
-0.0253652
-0.0235859
-0.021901
-0.0205818
-0.0193721
-0.0183349
-0.0173746
-0.0165096
-0.0156958
-0.0149331
-0.0142244
-0.0135911
-0.0128968
-0.0121188
-0.312354
-0.166317
-0.141408
-0.082838
-0.0739827
-0.0507137
-0.0454491
-0.0355892
-0.0321397
-0.0274356
-0.0251427
-0.0226428
-0.0210348
-0.0195125
-0.0183401
-0.0172668
-0.0163561
-0.015513
-0.0147574
-0.0140446
-0.0133773
-0.0127603
-0.0122061
-0.0115747
-0.0108919
-0.313848
-0.161298
-0.137001
-0.0779364
-0.0695316
-0.0464601
-0.0416004
-0.0318664
-0.0288201
-0.0242921
-0.022215
-0.019917
-0.0184801
-0.0171225
-0.0160988
-0.0151627
-0.0143794
-0.013654
-0.0130077
-0.0123961
-0.011824
-0.0112978
-0.010822
-0.0102555
-0.00966412
-0.314853
-0.15608
-0.132399
-0.0729296
-0.064998
-0.0421045
-0.0377654
-0.0281325
-0.0254368
-0.0211468
-0.0192741
-0.0171854
-0.0159232
-0.0147313
-0.0138584
-0.0130604
-0.0124051
-0.0117978
-0.0112612
-0.0107506
-0.0102737
-0.00983753
-0.00943976
-0.0089387
-0.0084363
-0.315327
-0.150651
-0.127598
-0.0678129
-0.0604027
-0.0376344
-0.0338755
-0.0244271
-0.0220118
-0.0179923
-0.0163242
-0.0144477
-0.0133646
-0.0123395
-0.0116192
-0.0109604
-0.0104339
-0.00994495
-0.00951814
-0.00910865
-0.00872667
-0.00838005
-0.00805998
-0.0076241
-0.00720926
-0.315233
-0.144998
-0.122592
-0.0625684
-0.0557788
-0.0331229
-0.0298761
-0.0207218
-0.0185582
-0.014825
-0.0133672
-0.0117043
-0.0108046
-0.00994787
-0.00938179
-0.00886306
-0.00846602
-0.00809594
-0.00777906
-0.00747065
-0.00718345
-0.00692598
-0.00668305
-0.00631187
-0.00598382
-0.314535
-0.139111
-0.117375
-0.0571624
-0.0511248
-0.0285862
-0.0257923
-0.0170011
-0.0150836
-0.0116439
-0.010404
-0.00895623
-0.00824372
-0.00755701
-0.00714659
-0.00676901
-0.00650208
-0.00625124
-0.00604444
-0.00583709
-0.00564456
-0.00547587
-0.00530936
-0.00500241
-0.00476069
-0.313203
-0.132979
-0.111947
-0.051587
-0.0463754
-0.0240673
-0.0216463
-0.0132574
-0.0115915
-0.00844951
-0.00743512
-0.00620438
-0.00568247
-0.00516758
-0.00491421
-0.00467878
-0.0045426
-0.00441138
-0.00431478
-0.00420848
-0.00411053
-0.00403024
-0.00393935
-0.00369619
-0.00354049
-0.31121
-0.126597
-0.106339
-0.0459246
-0.0414636
-0.0195289
-0.0174509
-0.00948782
-0.00808381
-0.00524271
-0.00446113
-0.00344974
-0.00312142
-0.00278026
-0.00268524
-0.00259294
-0.00258812
-0.00257689
-0.00259061
-0.00258536
-0.00258192
-0.0025896
-0.0025735
-0.00239377
-0.00232381
-0.308534
-0.119959
-0.10061
-0.0401269
-0.036395
-0.014955
-0.013213
-0.00569168
-0.00456171
-0.00202473
-0.00148263
-0.000693273
-0.000561265
-0.000395741
-0.000460319
-0.000512106
-0.00063923
-0.000748327
-0.000872467
-0.000968294
-0.0010593
-0.00115447
-0.00121233
-0.00109576
-0.00111115
-0.305156
-0.113054
-0.0947537
-0.0341811
-0.0312024
-0.0103378
-0.008937
-0.00186955
-0.00102619
0.00120313
0.00149967
0.00206408
0.00199725
0.00198527
0.00175988
0.0015631
0.00130348
0.00107373
0.000839068
0.000642144
0.000456785
0.000274625
0.000143571
0.000197215
9.69897e-05
-0.301059
-0.105832
-0.0885497
-0.0282931
-0.0259049
-0.00567403
-0.00462585
0.00197742
0.00252185
0.0044395
0.00448495
0.00482134
0.00455331
0.00436202
0.00397465
0.00363203
0.00323939
0.00288868
0.00254341
0.00224535
0.00196573
0.00169711
0.0014936
0.00148449
0.00130007
-0.296232
-0.0982214
-0.0821895
-0.0223471
-0.020513
-0.000962304
-0.000281804
0.0058477
0.00608144
0.00768303
0.00747228
0.00757756
0.00710608
0.00673373
0.00618328
0.005694
0.00516785
0.00469592
0.00423995
0.00384072
0.00346695
0.00311242
0.0028371
0.00276535
0.00249749
-0.290669
-0.0902553
-0.0756605
-0.0163223
-0.0150331
0.00379726
0.00409316
0.00973958
0.0096515
0.0109323
0.0104607
0.0103317
0.00965466
0.00909958
0.00838501
0.0077483
0.0070882
0.0064948
0.00592807
0.00542762
0.00495982
0.00451993
0.0041734
0.00403904
0.00368851
-0.284366
-0.0822047
-0.0687491
-0.0102074
-0.00947029
0.00860366
0.00849717
0.0136512
0.0132308
0.0141859
0.013449
0.0130827
0.0121981
0.0114587
0.0105791
0.00979422
0.00899977
0.00828469
0.00760712
0.00700541
0.00644373
0.00591903
0.00550176
0.00530469
0.0048724
-0.277322
-0.0739407
-0.0615664
-0.00399775
-0.00382889
0.0134553
0.0129283
0.0175805
0.0168181
0.0174425
0.0164361
0.0158296
0.0147355
0.0138103
0.0127646
0.011831
0.0109019
0.0100649
0.00927645
0.00857344
0.00791803
0.00730906
0.00682139
0.00656139
0.00604852
-0.269551
-0.0654241
-0.0541432
0.00230796
0.00188705
0.0183502
0.0173847
0.0215256
0.0204118
0.0207004
0.0194207
0.0185711
0.0172657
0.0161534
0.0149409
0.0138579
0.0127938
0.0118348
0.0109354
0.010131
0.00938207
0.00868934
0.00813147
0.00780818
0.00721632
-0.261093
-0.0566083
-0.0464959
0.00870892
0.00767362
0.0232858
0.0218641
0.0254842
0.0240104
0.0239581
0.0224016
0.0213061
0.0197879
0.018487
0.017107
0.0158741
0.0146747
0.0135936
0.0125833
0.0116775
0.0108352
0.0100592
0.00943117
0.00904408
0.00837504
-0.252008
-0.0474443
-0.0386353
0.0152027
0.0135269
0.0282595
0.0263644
0.0294541
0.0276123
0.0272142
0.0253774
0.0240335
0.0223008
0.0208103
0.019262
0.0178788
0.016544
0.0153408
0.0142195
0.0132123
0.0122767
0.0114179
0.0107197
0.0102681
0.0095233
-0.242242
-0.0379951
-0.0305718
0.0217858
0.0194427
0.0332682
0.0308832
0.033433
0.0312157
0.0304669
0.0283466
0.0267519
0.0248033
0.0231221
0.0214051
0.0198712
0.0184009
0.0170755
0.0158432
0.0147345
0.013706
0.0127649
0.0119963
0.0114791
0.0106592
-0.231568
-0.0284853
-0.0223167
0.0284546
0.0254169
0.0383089
0.035418
0.0374186
0.0348186
0.0337145
0.0313079
0.0294601
0.0272944
0.0254216
0.0235354
0.0218504
0.0202446
0.018797
0.0174538
0.0162436
0.0151223
0.0140994
0.01326
0.0126756
0.0117812
-0.22017
-0.0188045
-0.0138797
0.0352048
0.031445
0.0433782
0.0399659
0.0414083
0.0384191
0.0369554
0.0342597
0.0321567
0.0297729
0.0277076
0.0256518
0.0238157
0.0220743
0.0205046
0.0190506
0.0177389
0.0165251
0.0154207
0.0145096
0.0138559
0.0128893
-0.20809
-0.00892885
-0.00527051
0.0420317
0.0375225
0.0484723
0.0445243
0.0453998
0.0420152
0.0401876
0.0372004
0.0348404
0.0322375
0.0299791
0.0277535
0.0257661
0.0238892
0.0221976
0.0206329
0.0192197
0.0179136
0.0167282
0.0157438
0.015018
0.0139829
-0.195349
0.00114261
0.00350077
0.0489301
0.0436444
0.0535877
0.0490902
0.0493903
0.0456046
0.0434094
0.0401285
0.0375099
0.034687
0.0322349
0.0298394
0.0277007
0.0256886
0.0238753
0.0221999
0.0206854
0.0192874
0.018021
0.0169617
0.0161599
0.0150573
-0.181973
0.0114058
0.0124238
0.0558945
0.0498056
0.0587203
0.0536603
0.0533772
0.0491853
0.0466188
0.0430423
0.0401636
0.0371202
0.0344741
0.0319086
0.0296188
0.0274717
0.0255369
0.0237511
0.0221353
0.0206459
0.0192988
0.0181624
0.0172794
0.016103
-0.167992
0.0218534
0.0214876
0.0629187
0.0560008
0.0638661
0.0582314
0.0573576
0.0527548
0.049814
0.0459402
0.0428002
0.0395358
0.0366954
0.0339601
0.0315193
0.0292376
0.0271817
0.0252858
0.023569
0.0219884
0.0205608
0.0193455
0.0183753
0.0171168
-0.153436
0.0324758
0.0306812
0.0699963
0.0622245
0.0690209
0.0628001
0.0613289
0.0563108
0.0529928
0.0488203
0.045418
0.0419324
0.0388977
0.0359928
0.0334014
0.0309855
0.028809
0.0268033
0.0249856
0.0233142
0.0218065
0.0205108
0.0194494
0.0181155
-0.138337
0.0432618
0.0399929