/*--------------------------------*- C++ -*----------------------------------*\
  =========                 |
  \\      /  F ield         | OpenFOAM: The Open Source CFD Toolbox
   \\    /   O peration     | Website:  https://openfoam.org
    \\  /    A nd           | Version:  7
     \\/     M anipulation  |
\*---------------------------------------------------------------------------*/
FoamFile
{
    version     2.0;
    format      ascii;
    class       volVectorField;
    location    "1";
    object      U;
}
// * * * * * * * * * * * * * * * * * * * * * * * * * * * * * * * * * * * * * //

dimensions      [0 1 -1 0 0 0 0];

internalField   nonuniform List<vector> 
2413
(
(1.4 2.44227e-16 0)
(1.4 3.12772e-16 0)
(1.4 2.97387e-16 0)
(1.4 1.67299e-16 0)
(1.4 1.69782e-16 0)
(1.4 1.77611e-16 0)
(1.4 1.60973e-16 0)
(1.4 2.05171e-16 0)
(1.4 1.8639e-16 0)
(1.4 -6.84745e-18 0)
(1.4 -1.07893e-16 0)
(1.4 -7.41748e-17 0)
(1.4 -4.65512e-17 0)
(1.4 -6.50345e-17 0)
(1.4 -6.66189e-17 0)
(1.4 1.37768e-15 0)
(1.4 1.48403e-15 0)
(1.4 1.51725e-15 0)
(1.4 1.71083e-15 0)
(1.4 2.01852e-15 0)
(1.4 2.13344e-15 0)
(1.4 2.01043e-15 0)
(1.4 2.07294e-15 0)
(1.4 2.27621e-15 0)
(1.4 2.40217e-15 0)
(1.4 2.46856e-15 0)
(1.4 2.41235e-15 0)
(1.4 2.54251e-15 0)
(1.4 2.56562e-15 0)
(1.4 2.36503e-15 0)
(1.4 2.07449e-15 0)
(1.4 1.64079e-15 0)
(1.4 1.50076e-15 0)
(1.4 1.48288e-15 0)
(1.4 1.39919e-15 0)
(1.4 7.44196e-16 0)
(1.4 2.45143e-16 0)
(1.4 -1.56967e-16 0)
(1.4 -5.24603e-16 0)
(1.4 -8.32411e-16 0)
(1.4 -9.25572e-16 0)
(1.4 -8.37584e-16 0)
(1.4 -9.46553e-16 0)
(1.4 -9.72237e-16 0)
(1.4 -1.04121e-15 0)
(1.4 -1.12452e-15 0)
(1.4 -1.09747e-15 0)
(1.4 -1.03085e-15 0)
(1.4 -1.0632e-15 0)
(1.4 -9.90855e-16 0)
(1.4 -7.67328e-16 0)
(1.4 -5.52557e-16 0)
(1.4 -4.84832e-17 0)
(1.4 4.38912e-16 0)
(1.4 7.14819e-16 0)
(1.4 8.23108e-16 0)
(1.4 5.63168e-16 0)
(1.4 4.67643e-16 0)
(1.4 6.52616e-16 0)
(1.4 9.11413e-16 0)
(1.4 9.39212e-16 0)
(1.4 8.73729e-16 0)
(1.4 7.56129e-16 0)
(1.4 7.80419e-16 0)
(1.4 6.8654e-16 0)
(1.4 5.5521e-16 0)
(1.4 4.68003e-16 0)
(1.4 1.044e-16 0)
(1.4 -3.98596e-16 0)
(1.4 -5.20052e-16 0)
(1.4 -7.64074e-16 0)
(1.4 -8.91103e-16 0)
(1.4 -9.30432e-16 0)
(1.4 -9.71371e-16 0)
(1.4 -1.0059e-15 0)
(1.4 -8.61174e-16 0)
(1.4 -8.00601e-16 0)
(1.4 -5.91314e-16 0)
(1.4 -4.38555e-16 0)
(1.4 -4.08147e-16 0)
(1.4 -6.84053e-16 0)
(1.4 -8.21315e-16 0)
(1.4 -8.21334e-16 0)
(1.4 -8.22024e-16 0)
(1.4 -7.62994e-16 0)
(1.4 -5.70216e-16 0)
(1.4 -2.80131e-16 0)
(1.4 -2.52839e-16 0)
(1.4 -2.7625e-16 0)
(1.4 1.38412e-16 0)
(1.4 2.78641e-16 0)
(1.4 3.8049e-16 0)
(1.4 6.569e-16 0)
(1.4 8.72603e-16 0)
(1.4 9.71463e-16 0)
(1.4 8.3222e-16 0)
(1.4 7.94022e-16 0)
(1.4 9.88855e-16 0)
(1.4 9.76018e-16 0)
(1.4 8.95495e-16 0)
(1.4 7.87924e-16 0)
(1.4 6.7166e-16 0)
(1.4 2.71856e-16 0)
(1.4 -2.16254e-16 0)
(1.4 -9.5048e-16 0)
(1.4 -1.32207e-15 0)
(1.4 -1.66906e-15 0)
(1.4 -2.40708e-15 0)
(1.4 -2.73186e-15 0)
(1.4 -3.0086e-15 0)
(1.4 -3.20836e-15 0)
(1.4 -3.5872e-15 0)
(1.4 -3.87585e-15 0)
(1.4 -3.92178e-15 0)
(1.4 -3.86596e-15 0)
(1.4 -3.69593e-15 0)
(1.4 -3.2871e-15 0)
(1.4 -2.83797e-15 0)
(1.4 -2.61027e-15 0)
(1.4 -2.56445e-15 0)
(1.4 -2.28759e-15 0)
(1.4 -1.68817e-15 0)
(1.4 -1.60102e-15 0)
(1.4 -1.67628e-15 0)
(1.4 -1.69057e-15 0)
(1.4 -1.6592e-15 0)
(1.4 -1.68374e-15 0)
(1.4 -1.75993e-15 0)
(1.4 -1.80401e-15 0)
(1.4 -1.75511e-15 0)
(1.4 -1.75322e-15 0)
(1.4 -1.55492e-15 0)
(1.4 -1.54474e-15 0)
(1.4 -1.53037e-15 0)
(1.4 -1.50053e-15 0)
(1.4 9.14501e-16 0)
(1.4 7.89206e-16 0)
(1.4 8.06916e-16 0)
(1.4 1.01718e-15 0)
(1.4 1.18785e-15 0)
(1.4 1.48846e-15 0)
(1.4 1.57157e-15 0)
(1.4 1.56832e-15 0)
(1.4 1.61341e-15 0)
(1.4 1.5976e-15 0)
(1.4 1.47474e-15 0)
(1.4 1.49826e-15 0)
(1.4 1.44964e-15 0)
(1.4 1.33677e-15 0)
(1.4 1.46681e-15 0)
(1.4 1.46756e-15 0)
(1.4 1.47989e-15 0)
(1.4 1.22499e-15 0)
(1.4 7.78222e-16 0)
(1.4 1.86607e-16 0)
(1.4 7.87909e-17 0)
(1.4 1.53636e-16 0)
(1.4 2.66632e-16 0)
(1.4 9.24347e-17 0)
(1.4 -7.64123e-18 0)
(1.4 -2.10977e-17 0)
(1.4 1.57597e-17 0)
(1.4 1.02898e-16 0)
(1.4 6.76519e-17 0)
(1.4 -7.45724e-18 0)
(1.4 2.55905e-16 0)
(1.4 4.92314e-16 0)
(1.4 4.80887e-16 0)
(1.4 3.86088e-16 0)
(1.4 1.33561e-16 0)
(1.4 -1.10621e-16 0)
(1.4 -4.6309e-16 0)
(1.4 -6.09714e-16 0)
(1.4 -7.9866e-16 0)
(1.4 -7.27153e-16 0)
(1.4 -6.15239e-16 0)
(1.4 -3.64553e-16 0)
(1.4 -2.97606e-16 0)
(1.4 -3.74487e-16 0)
(1.4 -6.08343e-16 0)
(1.4 -7.35784e-16 0)
(1.4 -6.69414e-16 0)
(1.4 -4.41335e-16 0)
(1.4 -1.77805e-16 0)
(1.4 1.34465e-16 0)
(1.4 2.76857e-16 0)
(1.4 4.68996e-16 0)
(1.4 5.90029e-16 0)
(1.4 5.3267e-16 0)
(1.4 4.92133e-16 0)
(1.4 1.57191e-16 0)
(1.4 -1.71244e-17 0)
(1.4 -3.13599e-16 0)
(1.4 -4.59098e-16 0)
(1.4 -4.39634e-16 0)
(1.4 -5.56167e-16 0)
(1.4 -6.72487e-16 0)
(1.4 -9.73517e-16 0)
(1.4 -1.02502e-15 0)
(1.4 -1.09608e-15 0)
(1.4 -1.21424e-15 0)
(1.4 -1.2501e-15 0)
(1.4 -9.40089e-16 0)
(1.4 -6.67533e-16 0)
(1.4 -5.18953e-16 0)
(1.4 -3.16353e-16 0)
(1.4 -3.9844e-17 0)
(1.4 5.01162e-16 0)
(1.4 1.04777e-15 0)
(1.4 1.13656e-15 0)
(1.4 1.10799e-15 0)
(1.4 9.58884e-16 0)
(1.4 6.30184e-16 0)
(1.4 5.52446e-16 0)
(1.4 5.41917e-16 0)
(1.4 4.82789e-16 0)
(1.4 3.63304e-16 0)
(1.4 -1.69694e-16 0)
(1.4 -3.831e-16 0)
(1.4 -6.9046e-16 0)
(1.4 -8.95258e-16 0)
(1.4 -1.02444e-15 0)
(1.4 -1.42053e-15 0)
(1.4 -1.56462e-15 0)
(1.4 -1.63745e-15 0)
(1.4 -2.03595e-15 0)
(1.4 -2.12525e-15 0)
(1.4 -2.36273e-15 0)
(1.4 -2.3099e-15 0)
(1.4 -2.57154e-15 0)
(1.4 -2.80638e-15 0)
(1.4 -3.20336e-15 0)
(1.4 -3.35849e-15 0)
(1.4 -3.56339e-15 0)
(1.4 -3.57538e-15 0)
(1.4 -3.45465e-15 0)
(1.4 -3.31829e-15 0)
(1.4 -3.33661e-15 0)
(1.4 -3.38638e-15 0)
(1.4 -3.38346e-15 0)
(1.4 -3.52196e-15 0)
(1.4 -3.65402e-15 0)
(1.4 -3.71693e-15 0)
(1.4 -3.48375e-15 0)
(1.4 -3.3494e-15 0)
(1.4 -3.26771e-15 0)
(1.4 -3.07018e-15 0)
(1.4 -2.9576e-15 0)
(1.4 -2.89181e-15 0)
(1.4 -2.88241e-15 0)
(1.4 -2.83844e-15 0)
(1.4 -2.86168e-15 0)
(1.4 -2.98212e-15 0)
(1.4 -3.19902e-15 0)
(1.4 -3.46429e-15 0)
(1.4 1.07331e-18 0)
(1.4 2.67182e-16 0)
(1.4 4.70538e-16 0)
(1.4 6.59698e-16 0)
(1.4 5.63275e-16 0)
(1.4 4.08527e-16 0)
(1.4 4.34033e-16 0)
(1.4 2.41028e-16 0)
(1.4 1.47208e-16 0)
(1.4 7.26097e-17 0)
(1.4 2.39485e-16 0)
(1.4 4.27009e-16 0)
(1.4 4.15277e-16 0)
(1.4 7.82366e-16 0)
(1.4 1.04558e-15 0)
(1.4 1.21285e-15 0)
(1.4 1.44417e-15 0)
(1.4 1.48349e-15 0)
(1.4 1.42193e-15 0)
(1.4 1.27549e-15 0)
(1.4 1.35836e-15 0)
(1.4 1.59869e-15 0)
(1.4 1.68862e-15 0)
(1.4 1.78525e-15 0)
(1.4 1.99854e-15 0)
(1.4 1.98001e-15 0)
(1.4 1.35347e-15 0)
(1.4 8.5689e-16 0)
(1.4 6.12373e-16 0)
(1.4 5.36998e-16 0)
(1.4 5.41541e-16 0)
(1.4 6.47522e-16 0)
(1.4 6.31355e-16 0)
(1.4 8.53807e-16 0)
(1.4 1.01495e-15 0)
(1.4 1.15068e-15 0)
(1.4 1.22379e-15 0)
(1.4 9.6977e-16 0)
(1.4 7.60231e-16 0)
(1.4 2.65902e-16 0)
(1.4 -3.01275e-16 0)
(1.4 -2.62543e-16 0)
(1.4 -2.20427e-16 0)
(1.4 -2.84383e-16 0)
(1.4 -1.35847e-16 0)
(1.4 2.29166e-16 0)
(1.4 5.04364e-16 0)
(1.4 6.88372e-16 0)
(1.4 1.00924e-15 0)
(1.4 1.34209e-15 0)
(1.4 1.50285e-15 0)
(1.4 2.08021e-15 0)
(1.4 2.36255e-15 0)
(1.4 2.72319e-15 0)
(1.4 2.83624e-15 0)
(1.4 2.71277e-15 0)
(1.4 2.36361e-15 0)
(1.4 1.96653e-15 0)
(1.4 1.53462e-15 0)
(1.4 1.35529e-15 0)
(1.4 1.21446e-15 0)
(1.4 8.50257e-16 0)
(1.4 4.86762e-16 0)
(1.4 1.85395e-16 0)
(1.4 1.93361e-16 0)
(1.4 2.42469e-16 0)
(1.4 3.17359e-16 0)
(1.4 5.65647e-16 0)
(1.4 7.04501e-16 0)
(1.4 7.27264e-16 0)
(1.4 7.72521e-16 0)
(1.4 9.0591e-16 0)
(1.4 8.33298e-16 0)
(1.4 9.41085e-16 0)
(1.4 9.8604e-16 0)
(1.4 6.3083e-16 0)
(1.4 4.249e-16 0)
(1.4 9.26593e-17 0)
(1.4 -2.05762e-16 0)
(1.4 -4.55386e-16 0)
(1.4 -3.70882e-16 0)
(1.4 -4.84726e-16 0)
(1.4 -1.07603e-15 0)
(1.4 -1.35582e-15 0)
(1.4 -1.77146e-15 0)
(1.4 -2.06482e-15 0)
(1.4 -2.16801e-15 0)
(1.4 -2.21172e-15 0)
(1.4 -2.0998e-15 0)
(1.4 -2.03066e-15 0)
(1.4 -1.80917e-15 0)
(1.4 -1.72425e-15 0)
(1.4 -1.89291e-15 0)
(1.4 -2.06041e-15 0)
(1.4 -2.07023e-15 0)
(1.4 -2.12101e-15 0)
(1.4 -2.28115e-15 0)
(1.4 -2.30914e-15 0)
(1.4 -2.11948e-15 0)
(1.4 -1.98303e-15 0)
(1.4 -2.02473e-15 0)
(1.4 -2.41175e-15 0)
(1.4 -2.53481e-15 0)
(1.4 -2.44707e-15 0)
(1.4 -2.35445e-15 0)
(1.4 -2.18006e-15 0)
(1.4 -2.00481e-15 0)
(1.4 -1.92091e-15 0)
(1.4 -1.80451e-15 0)
(1.4 -1.9275e-15 0)
(1.4 -1.91089e-15 0)
(1.4 -1.86082e-15 0)
(1.4 -2.00201e-15 0)
(1.4 -2.26752e-15 0)
(1.4 -2.57211e-15 0)
(1.4 -3.0029e-15 0)
(1.4 -3.33596e-15 0)
(1.4 -3.8432e-15 0)
(1.4 -3.99704e-15 0)
(1.4 -3.84916e-15 0)
(1.4 1.30464e-15 0)
(1.4 1.30708e-15 0)
(1.4 1.30761e-15 0)
(1.4 1.16586e-15 0)
(1.4 7.5435e-16 0)
(1.4 2.61268e-16 0)
(1.4 1.47246e-16 0)
(1.4 -2.80819e-17 0)
(1.4 -1.2411e-16 0)
(1.4 -1.77271e-16 0)
(1.4 -1.82838e-16 0)
(1.4 -2.80977e-16 0)
(1.4 -3.72469e-16 0)
(1.4 -4.58887e-16 0)
(1.4 -6.1342e-16 0)
(1.4 -7.14954e-16 0)
(1.4 -7.09035e-16 0)
(1.4 -6.33811e-16 0)
(1.4 -6.24106e-16 0)
(1.4 -5.57444e-16 0)
(1.4 -5.13634e-16 0)
(1.4 -5.40615e-17 0)
(1.4 7.89687e-16 0)
(1.4 1.28283e-15 0)
(1.4 1.54382e-15 0)
(1.4 1.84515e-15 0)
(1.4 2.28477e-15 0)
(1.4 2.54428e-15 0)
(1.4 2.72147e-15 0)
(1.4 2.74175e-15 0)
(1.4 3.01177e-15 0)
(1.4 3.15127e-15 0)
(1.4 3.20875e-15 0)
(1.4 3.31195e-15 0)
(1.4 3.76333e-15 0)
(1.4 3.8407e-15 0)
(1.4 4.03322e-15 0)
(1.4 4.10145e-15 0)
(1.4 3.80214e-15 0)
(1.4 3.54278e-15 0)
(1.4 3.19686e-15 0)
(1.4 2.7602e-15 0)
(1.4 2.33747e-15 0)
(1.4 1.96127e-15 0)
(1.4 1.87722e-15 0)
(1.4 1.73309e-15 0)
(1.4 1.64286e-15 0)
(1.4 1.51774e-15 0)
(1.4 1.58095e-15 0)
(1.4 1.58081e-15 0)
(1.4 1.89925e-15 0)
(1.4 2.2085e-15 0)
(1.4 2.35278e-15 0)
(1.4 2.74322e-15 0)
(1.4 2.95137e-15 0)
(1.4 3.23535e-15 0)
(1.4 3.22687e-15 0)
(1.4 3.20125e-15 0)
(1.4 3.1649e-15 0)
(1.4 3.02236e-15 0)
(1.4 2.39581e-15 0)
(1.4 2.09687e-15 0)
(1.4 1.92294e-15 0)
(1.4 1.78518e-15 0)
(1.4 1.73108e-15 0)
(1.4 1.71728e-15 0)
(1.4 1.82285e-15 0)
(1.4 1.72451e-15 0)
(1.4 1.51124e-15 0)
(1.4 1.34639e-15 0)
(1.4 1.22178e-15 0)
(1.4 1.18904e-15 0)
(1.4 5.27205e-16 0)
(1.4 -1.11988e-16 0)
(1.4 -5.8981e-16 0)
(1.4 -1.13358e-15 0)
(1.4 -1.2138e-15 0)
(1.4 -1.21892e-15 0)
(1.4 -1.31859e-15 0)
(1.4 -1.56241e-15 0)
(1.4 -1.75173e-15 0)
(1.4 -1.92292e-15 0)
(1.4 -1.8276e-15 0)
(1.4 -1.67664e-15 0)
(1.4 -1.5216e-15 0)
(1.4 -1.55491e-15 0)
(1.4 -1.5498e-15 0)
(1.4 -1.48087e-15 0)
(1.4 -1.12457e-15 0)
(1.4 -9.12318e-16 0)
(1.4 -7.40742e-16 0)
(1.4 -8.48927e-16 0)
(1.4 -9.90999e-16 0)
(1.4 -1.06922e-15 0)
(1.4 -1.20338e-15 0)
(1.4 -1.33126e-15 0)
(1.4 -1.06593e-15 0)
(1.4 -8.32217e-16 0)
(1.4 -5.94458e-16 0)
(1.4 -5.93887e-16 0)
(1.4 -7.34997e-16 0)
(1.4 -1.00021e-15 0)
(1.4 -1.10332e-15 0)
(1.4 -1.03272e-15 0)
(1.4 -1.00963e-15 0)
(1.4 -9.37811e-16 0)
(1.4 -6.04028e-16 0)
(1.4 -1.19071e-16 0)
(1.4 2.96013e-16 0)
(1.4 9.82756e-17 0)
(1.4 -3.95657e-17 0)
(1.4 -4.99615e-16 0)
(1.4 -9.78547e-16 0)
(1.4 -1.28893e-15 0)
(1.4 -2.05774e-15 0)
(1.4 -2.60153e-15 0)
(1.4 -3.1584e-15 0)
(1.4 -3.2583e-15 0)
(1.4 -3.28358e-15 0)
(1.4 -3.06462e-15 0)
(1.4 1.62383e-15 0)
(1.4 1.34813e-15 0)
(1.4 8.41229e-16 0)
(1.4 3.64456e-16 0)
(1.4 2.16413e-16 0)
(1.4 -7.36657e-17 0)
(1.4 -4.18479e-16 0)
(1.4 -5.5926e-16 0)
(1.4 -6.13432e-16 0)
(1.4 -7.78868e-16 0)
(1.4 -1.7075e-15 0)
(1.4 -1.87694e-15 0)
(1.4 -1.89607e-15 0)
(1.4 -2.00176e-15 0)
(1.4 -1.98503e-15 0)
(1.4 -1.84005e-15 0)
(1.4 -1.72215e-15 0)
(1.4 -1.4492e-15 0)
(1.4 -1.01749e-15 0)
(1.4 -7.71972e-16 0)
(1.4 -5.99431e-16 0)
(1.4 -3.04583e-16 0)
(1.4 2.86477e-16 0)
(1.4 8.85217e-16 0)
(1.4 1.58835e-15 0)
(1.4 2.10852e-15 0)
(1.4 2.46166e-15 0)
(1.4 2.92839e-15 0)
(1.4 3.62688e-15 0)
(1.4 4.21346e-15 0)
(1.4 4.52822e-15 0)
(1.4 4.56509e-15 0)
(1.4 4.52106e-15 0)
(1.4 4.54878e-15 0)
(1.4 4.33817e-15 0)
(1.4 4.10308e-15 0)
(1.4 3.63953e-15 0)
(1.4 3.41602e-15 0)
(1.4 3.43329e-15 0)
(1.4 3.70956e-15 0)
(1.4 3.96569e-15 0)
(1.4 4.0918e-15 0)
(1.4 3.94032e-15 0)
(1.4 3.69961e-15 0)
(1.4 3.51082e-15 0)
(1.4 3.13815e-15 0)
(1.4 2.62383e-15 0)
(1.4 2.33481e-15 0)
(1.4 1.7744e-15 0)
(1.4 1.49543e-15 0)
(1.4 1.53223e-15 0)
(1.4 1.42725e-15 0)
(1.4 1.80385e-15 0)
(1.4 2.14221e-15 0)
(1.4 2.46578e-15 0)
(1.4 2.56647e-15 0)
(1.4 2.6534e-15 0)
(1.4 2.79216e-15 0)
(1.4 2.81126e-15 0)
(1.4 2.78996e-15 0)
(1.4 2.66067e-15 0)
(1.4 2.61151e-15 0)
(1.4 2.42746e-15 0)
(1.4 2.24776e-15 0)
(1.4 1.8173e-15 0)
(1.4 1.49298e-15 0)
(1.4 1.0935e-15 0)
(1.4 3.97175e-16 0)
(1.4 1.08017e-17 0)
(1.4 -1.63732e-16 0)
(1.4 -2.84661e-16 0)
(1.4 -4.77875e-16 0)
(1.4 -5.87915e-16 0)
(1.4 -1.08284e-15 0)
(1.4 -1.41523e-15 0)
(1.4 -1.72452e-15 0)
(1.4 -2.27885e-15 0)
(1.4 -2.55137e-15 0)
(1.4 -2.81004e-15 0)
(1.4 -2.99196e-15 0)
(1.4 -3.00974e-15 0)
(1.4 -2.94067e-15 0)
(1.4 -2.74966e-15 0)
(1.4 -2.48761e-15 0)
(1.4 -2.38009e-15 0)
(1.4 -2.02338e-15 0)
(1.4 -1.77264e-15 0)
(1.4 -1.16744e-15 0)
(1.4 -8.93325e-16 0)
(1.4 -9.22365e-16 0)
(1.4 -7.77891e-16 0)
(1.4 -6.05239e-16 0)
(1.4 -3.47172e-16 0)
(1.4 -1.75212e-16 0)
(1.4 -3.56634e-16 0)
(1.4 -1.3574e-16 0)
(1.4 -2.97815e-16 0)
(1.4 -4.02633e-16 0)
(1.4 -4.57016e-16 0)
(1.4 -3.94823e-16 0)
(1.4 -2.15476e-16 0)
(1.4 -2.69829e-17 0)
(1.4 4.75916e-17 0)
(1.4 -7.23436e-18 0)
(1.4 -1.84468e-17 0)
(1.4 -3.50765e-17 0)
(1.4 -1.67245e-16 0)
(1.4 -2.89862e-16 0)
(1.4 -7.28051e-16 0)
(1.4 -8.06135e-16 0)
(1.4 -8.14822e-16 0)
(1.4 -7.33928e-16 0)
(1.4 -6.5142e-16 0)
(1.4 -7.32082e-16 0)
(1.4 -9.16532e-16 0)
(1.4 -1.25301e-15 0)
(1.4 -1.60831e-15 0)
(1.4 -1.65827e-15 0)
(1.4 -1.86286e-15 0)
(1.4 -2.06252e-15 0)
(1.4 5.74025e-16 0)
(1.4 2.49452e-16 0)
(1.4 -1.4216e-16 0)
(1.4 -3.21955e-16 0)
(1.4 -5.66868e-16 0)
(1.4 -8.45577e-16 0)
(1.4 -1.07707e-15 0)
(1.4 -1.44996e-15 0)
(1.4 -1.50643e-15 0)
(1.4 -1.56804e-15 0)
(1.4 -1.72475e-15 0)
(1.4 -1.80119e-15 0)
(1.4 -1.68178e-15 0)
(1.4 -1.52689e-15 0)
(1.4 -1.39951e-15 0)
(1.4 -9.11306e-16 0)
(1.4 -5.72838e-16 0)
(1.4 -4.12821e-16 0)
(1.4 2.77241e-16 0)
(1.4 7.47575e-16 0)
(1.4 9.17724e-16 0)
(1.4 1.11045e-15 0)
(1.4 1.55704e-15 0)
(1.4 1.82778e-15 0)
(1.4 2.04022e-15 0)
(1.4 2.14327e-15 0)
(1.4 2.23176e-15 0)
(1.4 2.35457e-15 0)
(1.4 2.62827e-15 0)
(1.4 2.95274e-15 0)
(1.4 3.19076e-15 0)
(1.4 3.35971e-15 0)
(1.4 3.36397e-15 0)
(1.4 3.33444e-15 0)
(1.4 3.26214e-15 0)
(1.4 3.15102e-15 0)
(1.4 3.27926e-15 0)
(1.4 3.31253e-15 0)
(1.4 3.25987e-15 0)
(1.4 3.1213e-15 0)
(1.4 2.95061e-15 0)
(1.4 2.84281e-15 0)
(1.4 2.92463e-15 0)
(1.4 3.13334e-15 0)
(1.4 3.14701e-15 0)
(1.4 3.11218e-15 0)
(1.4 3.05689e-15 0)
(1.4 2.77942e-15 0)
(1.4 2.44936e-15 0)
(1.4 2.40609e-15 0)
(1.4 1.5958e-15 0)
(1.4 1.14028e-15 0)
(1.4 1.14932e-15 0)
(1.4 1.17067e-15 0)
(1.4 1.14748e-15 0)
(1.4 1.15551e-15 0)
(1.4 1.5931e-15 0)
(1.4 2.01126e-15 0)
(1.4 2.18865e-15 0)
(1.4 2.30626e-15 0)
(1.4 2.41279e-15 0)
(1.4 2.32647e-15 0)
(1.4 2.25607e-15 0)
(1.4 1.96523e-15 0)
(1.4 1.75185e-15 0)
(1.4 1.6464e-15 0)
(1.4 1.54147e-15 0)
(1.4 1.08327e-15 0)
(1.4 8.50228e-16 0)
(1.4 7.16139e-16 0)
(1.4 2.09406e-16 0)
(1.4 -1.56904e-16 0)
(1.4 -8.07171e-16 0)
(1.4 -1.25108e-15 0)
(1.4 -1.43626e-15 0)
(1.4 -1.42779e-15 0)
(1.4 -1.87187e-15 0)
(1.4 -2.4768e-15 0)
(1.4 -2.56257e-15 0)
(1.4 -2.90794e-15 0)
(1.4 -3.02538e-15 0)
(1.4 -3.18474e-15 0)
(1.4 -3.14312e-15 0)
(1.4 -3.13046e-15 0)
(1.4 -3.47323e-15 0)
(1.4 -3.26124e-15 0)
(1.4 -2.84579e-15 0)
(1.4 -2.49466e-15 0)
(1.4 -2.15196e-15 0)
(1.4 -1.89716e-15 0)
(1.4 -1.39656e-15 0)
(1.4 -1.14819e-15 0)
(1.4 -9.77912e-16 0)
(1.4 -6.47872e-16 0)
(1.4 -4.07489e-16 0)
(1.4 -1.7033e-16 0)
(1.4 -5.08636e-16 0)
(1.4 -4.89934e-16 0)
(1.4 -4.87947e-16 0)
(1.4 -4.87695e-16 0)
(1.4 -2.14078e-16 0)
(1.4 -1.14534e-16 0)
(1.4 4.94912e-18 0)
(1.4 -7.67188e-17 0)
(1.4 8.5376e-17 0)
(1.4 6.75016e-17 0)
(1.4 -2.08729e-16 0)
(1.4 -5.75635e-16 0)
(1.4 -1.05519e-15 0)
(1.4 -1.45855e-15 0)
(1.4 -1.56529e-15 0)
(1.4 -1.52097e-15 0)
(1.4 -1.32286e-15 0)
(1.4 -1.10229e-15 0)
(1.4 -6.74161e-16 0)
(1.4 -6.67178e-16 0)
(1.4 -6.58884e-16 0)
(1.4 -7.87505e-16 0)
(1.4 -9.33756e-16 0)
(1.4 -1.38506e-15 0)
(1.4 -1.53087e-16 0)
(1.4 -1.65124e-16 0)
(1.4 -3.24558e-16 0)
(1.4 -3.76183e-16 0)
(1.4 -6.11404e-16 0)
(1.4 -8.66322e-16 0)
(1.4 -9.06658e-16 0)
(1.4 -7.74825e-16 0)
(1.4 -7.70923e-16 0)
(1.4 -7.526e-16 0)
(1.4 -3.32788e-16 0)
(1.4 -5.45679e-17 0)
(1.4 2.92381e-16 0)
(1.4 5.18483e-16 0)
(1.4 7.42933e-16 0)
(1.4 1.05391e-15 0)
(1.4 1.38365e-15 0)
(1.4 1.7922e-15 0)
(1.4 2.0865e-15 0)
(1.4 2.32132e-15 0)
(1.4 2.53845e-15 0)
(1.4 2.64835e-15 0)
(1.4 2.65423e-15 0)
(1.4 2.47687e-15 0)
(1.4 1.86217e-15 0)
(1.4 1.59538e-15 0)
(1.4 1.29754e-15 0)
(1.4 1.16606e-15 0)
(1.4 1.08999e-15 0)
(1.4 1.08061e-15 0)
(1.4 1.0704e-15 0)
(1.4 1.22958e-15 0)
(1.4 1.53677e-15 0)
(1.4 1.64121e-15 0)
(1.4 1.63926e-15 0)
(1.4 1.75036e-15 0)
(1.4 1.90852e-15 0)
(1.4 1.98208e-15 0)
(1.4 1.8655e-15 0)
(1.4 1.96652e-15 0)
(1.4 2.01216e-15 0)
(1.4 1.93803e-15 0)
(1.4 1.96182e-15 0)
(1.4 2.16684e-15 0)
(1.4 2.33559e-15 0)
(1.4 2.46278e-15 0)
(1.4 2.6467e-15 0)
(1.4 2.76936e-15 0)
(1.4 2.82395e-15 0)
(1.4 2.83636e-15 0)
(1.4 2.53608e-15 0)
(1.4 1.95157e-15 0)
(1.4 1.72777e-15 0)
(1.4 1.49323e-15 0)
(1.4 1.37175e-15 0)
(1.4 1.35053e-15 0)
(1.4 1.38828e-15 0)
(1.4 1.3709e-15 0)
(1.4 1.39767e-15 0)
(1.4 1.45942e-15 0)
(1.4 1.66693e-15 0)
(1.4 1.628e-15 0)
(1.4 1.50239e-15 0)
(1.4 1.4291e-15 0)
(1.4 1.28195e-15 0)
(1.4 1.20264e-15 0)
(1.4 1.17255e-15 0)
(1.4 1.06623e-15 0)
(1.4 8.50755e-16 0)
(1.4 5.66753e-16 0)
(1.4 1.64585e-16 0)
(1.4 -2.53277e-16 0)
(1.4 -4.98979e-16 0)
(1.4 -8.41141e-16 0)
(1.4 -8.84909e-16 0)
(1.4 -1.17974e-15 0)
(1.4 -1.31629e-15 0)
(1.4 -1.4203e-15 0)
(1.4 -1.69253e-15 0)
(1.4 -1.82994e-15 0)
(1.4 -1.96798e-15 0)
(1.4 -2.07745e-15 0)
(1.4 -2.4096e-15 0)
(1.4 -2.61494e-15 0)
(1.4 -2.65535e-15 0)
(1.4 -2.90853e-15 0)
(1.4 -3.05668e-15 0)
(1.4 -3.05319e-15 0)
(1.4 -3.02105e-15 0)
(1.4 -2.36683e-15 0)
(1.4 -2.14344e-15 0)
(1.4 -1.76827e-15 0)
(1.4 -1.59806e-15 0)
(1.4 -1.47758e-15 0)
(1.4 -1.2992e-15 0)
(1.4 -1.4372e-15 0)
(1.4 -1.42074e-15 0)
(1.4 -1.41825e-15 0)
(1.4 -1.21767e-15 0)
(1.4 -1.03985e-15 0)
(1.4 -9.36224e-16 0)
(1.4 -8.03246e-16 0)
(1.4 -5.87669e-16 0)
(1.4 -3.24157e-16 0)
(1.4 -4.41738e-16 0)
(1.4 -5.71832e-16 0)
(1.4 -7.05097e-16 0)
(1.4 -7.90286e-16 0)
(1.4 -1.10411e-15 0)
(1.4 -1.12966e-15 0)
(1.4 -1.17044e-15 0)
(1.4 -1.14573e-15 0)
(1.4 -9.8507e-16 0)
(1.4 -7.30345e-16 0)
(1.4 -4.84669e-16 0)
(1.4 -4.10544e-16 0)
(1.4 -2.76082e-16 0)
(1.4 -2.30406e-16 0)
(1.4 -3.43066e-16 0)
(1.4 -7.47342e-16 0)
(1.4 3.09032e-17 0)
(1.4 1.77067e-16 0)
(1.4 3.3931e-16 0)
(1.4 3.87374e-16 0)
(1.4 4.3129e-16 0)
(1.4 4.31738e-16 0)
(1.4 8.79414e-16 0)
(1.4 1.09626e-15 0)
(1.4 1.13036e-15 0)
(1.4 1.16548e-15 0)
(1.4 1.31147e-15 0)
(1.4 1.48229e-15 0)
(1.4 1.93349e-15 0)
(1.4 2.26153e-15 0)
(1.4 2.53301e-15 0)
(1.4 2.96091e-15 0)
(1.4 3.25668e-15 0)
(1.4 3.42606e-15 0)
(1.4 3.40631e-15 0)
(1.4 3.33572e-15 0)
(1.4 3.21507e-15 0)
(1.4 3.02867e-15 0)
(1.4 2.48517e-15 0)
(1.4 2.19717e-15 0)
(1.4 2.00538e-15 0)
(1.4 1.64994e-15 0)
(1.4 1.53177e-15 0)
(1.4 1.30647e-15 0)
(1.4 1.24533e-15 0)
(1.4 1.22692e-15 0)
(1.4 1.27699e-15 0)
(1.4 1.40006e-15 0)
(1.4 1.43812e-15 0)
(1.4 1.55902e-15 0)
(1.4 1.66942e-15 0)
(1.4 1.7578e-15 0)
(1.4 1.75097e-15 0)
(1.4 1.59086e-15 0)
(1.4 1.42965e-15 0)
(1.4 1.28666e-15 0)
(1.4 1.31919e-15 0)
(1.4 1.43574e-15 0)
(1.4 1.40565e-15 0)
(1.4 1.33805e-15 0)
(1.4 1.43687e-15 0)
(1.4 1.47089e-15 0)
(1.4 1.65326e-15 0)
(1.4 1.77516e-15 0)
(1.4 1.90642e-15 0)
(1.4 2.01004e-15 0)
(1.4 1.97667e-15 0)
(1.4 1.90919e-15 0)
(1.4 1.5615e-15 0)
(1.4 1.31266e-15 0)
(1.4 1.11137e-15 0)
(1.4 8.97471e-16 0)
(1.4 5.44153e-16 0)
(1.4 3.07755e-16 0)
(1.4 4.51606e-17 0)
(1.4 1.59988e-18 0)
(1.4 8.80562e-17 0)
(1.4 2.263e-16 0)
(1.4 2.95988e-16 0)
(1.4 3.73118e-16 0)
(1.4 2.52548e-16 0)
(1.4 1.04951e-16 0)
(1.4 -6.7409e-17 0)
(1.4 -2.75167e-16 0)
(1.4 -4.40461e-16 0)
(1.4 -5.33973e-16 0)
(1.4 -8.34913e-16 0)
(1.4 -1.00909e-15 0)
(1.4 -1.04281e-15 0)
(1.4 -9.83692e-16 0)
(1.4 -1.0539e-15 0)
(1.4 -1.25733e-15 0)
(1.4 -1.39716e-15 0)
(1.4 -1.44948e-15 0)
(1.4 -1.41431e-15 0)
(1.4 -1.26835e-15 0)
(1.4 -1.29061e-15 0)
(1.4 -1.35993e-15 0)
(1.4 -1.24587e-15 0)
(1.4 -1.22724e-15 0)
(1.4 -1.12682e-15 0)
(1.4 -1.22721e-15 0)
(1.4 -1.35892e-15 0)
(1.4 -1.6806e-15 0)
(1.4 -2.02472e-15 0)
(1.4 -2.34534e-15 0)
(1.4 -2.45206e-15 0)
(1.4 -2.30962e-15 0)
(1.4 -2.06258e-15 0)
(1.4 -1.96008e-15 0)
(1.4 -1.91372e-15 0)
(1.4 -1.61294e-15 0)
(1.4 -5.31857e-16 0)
(1.4 -1.65253e-16 0)
(1.4 -1.43458e-16 0)
(1.4 -1.25609e-17 0)
(1.4 5.46807e-17 0)
(1.4 2.00689e-16 0)
(1.4 2.22941e-16 0)
(1.4 4.64338e-17 0)
(1.4 -2.41343e-16 0)
(1.4 -3.11363e-16 0)
(1.4 -3.19701e-16 0)
(1.4 -1.35005e-16 0)
(1.4 -2.10414e-17 0)
(1.4 6.00795e-17 0)
(1.4 1.70667e-16 0)
(1.4 1.58591e-16 0)
(1.4 3.20695e-16 0)
(1.4 3.75426e-16 0)
(1.4 4.13204e-16 0)
(1.4 5.29914e-16 0)
(1.4 5.77446e-16 0)
(1.4 7.88719e-16 0)
(1.4 1.1911e-15 0)
(1.4 1.52268e-15 0)
(1.4 1.31289e-15 0)
(1.4 1.73588e-15 0)
(1.4 2.04105e-15 0)
(1.4 2.13115e-15 0)
(1.4 2.30293e-15 0)
(1.4 2.34915e-15 0)
(1.4 2.63072e-15 0)
(1.4 2.97233e-15 0)
(1.4 3.25197e-15 0)
(1.4 3.66813e-15 0)
(1.4 3.90753e-15 0)
(1.4 4.02216e-15 0)
(1.4 4.21315e-15 0)
(1.4 4.32334e-15 0)
(1.4 4.42319e-15 0)
(1.4 4.43243e-15 0)
(1.4 4.32378e-15 0)
(1.4 3.99783e-15 0)
(1.4 3.84059e-15 0)
(1.4 3.32906e-15 0)
(1.4 2.83864e-15 0)
(1.4 2.6206e-15 0)
(1.4 2.40966e-15 0)
(1.4 2.32704e-15 0)
(1.4 2.28579e-15 0)
(1.4 2.25661e-15 0)
(1.4 2.24076e-15 0)
(1.4 2.32657e-15 0)
(1.4 2.37574e-15 0)
(1.4 2.35489e-15 0)
(1.4 2.32758e-15 0)
(1.4 2.33596e-15 0)
(1.4 2.36671e-15 0)
(1.4 2.42469e-15 0)
(1.4 2.74687e-15 0)
(1.4 2.86224e-15 0)
(1.4 2.62473e-15 0)
(1.4 2.43857e-15 0)
(1.4 2.2842e-15 0)
(1.4 2.20784e-15 0)
(1.4 1.85008e-15 0)
(1.4 1.72383e-15 0)
(1.4 1.61812e-15 0)
(1.4 1.50886e-15 0)
(1.4 1.36946e-15 0)
(1.4 1.27523e-15 0)
(1.4 1.19929e-15 0)
(1.4 1.17199e-15 0)
(1.4 1.18743e-15 0)
(1.4 1.19332e-15 0)
(1.4 1.02564e-15 0)
(1.4 6.32604e-16 0)
(1.4 2.42667e-16 0)
(1.4 -6.56842e-17 0)
(1.4 -4.44153e-16 0)
(1.4 -6.83491e-16 0)
(1.4 -9.83075e-16 0)
(1.4 -1.15358e-15 0)
(1.4 -1.30339e-15 0)
(1.4 -1.31277e-15 0)
(1.4 -1.40609e-15 0)
(1.4 -1.20877e-15 0)
(1.4 -9.86906e-16 0)
(1.4 -1.05781e-15 0)
(1.4 -1.04032e-15 0)
(1.4 -1.00574e-15 0)
(1.4 -8.35883e-16 0)
(1.4 -6.71083e-16 0)
(1.4 -7.21051e-16 0)
(1.4 -8.7451e-16 0)
(1.4 -9.06076e-16 0)
(1.4 -9.91774e-16 0)
(1.4 -1.19593e-15 0)
(1.4 -1.18883e-15 0)
(1.4 -1.26245e-15 0)
(1.4 -1.10083e-15 0)
(1.4 -1.11879e-15 0)
(1.4 -9.51916e-16 0)
(1.4 -8.11267e-16 0)
(1.4 -7.57275e-16 0)
(1.4 -7.54322e-16 0)
(1.4 -6.90903e-16 0)
(1.4 -6.4364e-16 0)
(1.4 -5.97099e-16 0)
(1.4 -8.00777e-16 0)
(1.4 -6.67096e-16 0)
(1.4 -5.17549e-16 0)
(1.4 -5.75369e-16 0)
(1.4 -5.98473e-16 0)
(1.4 -6.76707e-16 0)
(1.4 -8.26528e-16 0)
(1.4 -8.62569e-16 0)
(1.4 -9.32198e-16 0)
(1.4 -9.40886e-16 0)
(1.4 -5.81171e-16 0)
(1.4 -5.22417e-16 0)
(1.4 5.97315e-16 0)
(1.4 1.21543e-15 0)
(1.4 1.64808e-15 0)
(1.4 1.83334e-15 0)
(1.4 2.24344e-15 0)
(1.4 2.32501e-15 0)
(1.4 2.47355e-15 0)
(1.4 2.13527e-15 0)
(1.4 2.10447e-15 0)
(1.4 2.13188e-15 0)
(1.4 2.03197e-15 0)
(1.4 1.97538e-15 0)
(1.4 2.04706e-15 0)
(1.4 2.01338e-15 0)
(1.4 1.92059e-15 0)
(1.4 1.82576e-15 0)
(1.4 1.67445e-15 0)
(1.4 1.34333e-15 0)
(1.4 1.21106e-15 0)
(1.4 1.45846e-15 0)
(1.4 1.63198e-15 0)
(1.4 1.80103e-15 0)
(1.4 2.08377e-15 0)
(1.4 2.48148e-15 0)
(1.4 1.92532e-15 0)
(1.4 2.47027e-15 0)
(1.4 3.26436e-15 0)
(1.4 3.81294e-15 0)
(1.4 4.11757e-15 0)
(1.4 4.16754e-15 0)
(1.4 4.21382e-15 0)
(1.4 4.00718e-15 0)
(1.4 4.08145e-15 0)
(1.4 4.30516e-15 0)
(1.4 4.8267e-15 0)
(1.4 4.87908e-15 0)
(1.4 4.78952e-15 0)
(1.4 4.58132e-15 0)
(1.4 4.35468e-15 0)
(1.4 3.94892e-15 0)
(1.4 3.62606e-15 0)
(1.4 3.44597e-15 0)
(1.4 3.33904e-15 0)
(1.4 3.00845e-15 0)
(1.4 2.97361e-15 0)
(1.4 3.13712e-15 0)
(1.4 3.18085e-15 0)
(1.4 3.12159e-15 0)
(1.4 2.83168e-15 0)
(1.4 2.85967e-15 0)
(1.4 2.89745e-15 0)
(1.4 2.80497e-15 0)
(1.4 2.63495e-15 0)
(1.4 2.35504e-15 0)
(1.4 1.97266e-15 0)
(1.4 1.61782e-15 0)
(1.4 1.54804e-15 0)
(1.4 1.3827e-15 0)
(1.4 1.28068e-15 0)
(1.4 1.31916e-15 0)
(1.4 1.17355e-15 0)
(1.4 1.27858e-15 0)
(1.4 1.50513e-15 0)
(1.4 1.86187e-15 0)
(1.4 1.89083e-15 0)
(1.4 1.86489e-15 0)
(1.4 1.89346e-15 0)
(1.4 1.88821e-15 0)
(1.4 1.71545e-15 0)
(1.4 1.49598e-15 0)
(1.4 1.38894e-15 0)
(1.4 1.44641e-15 0)
(1.4 1.11378e-15 0)
(1.4 7.47463e-16 0)
(1.4 2.6901e-16 0)
(1.4 -2.74362e-16 0)
(1.4 -8.35291e-16 0)
(1.4 -1.0884e-15 0)
(1.4 -1.40209e-15 0)
(1.4 -1.35113e-15 0)
(1.4 -1.33363e-15 0)
(1.4 -1.51705e-15 0)
(1.4 -1.66976e-15 0)
(1.4 -1.81086e-15 0)
(1.4 -1.88758e-15 0)
(1.4 -1.9556e-15 0)
(1.4 -2.01691e-15 0)
(1.4 -1.96125e-15 0)
(1.4 -1.78294e-15 0)
(1.4 -1.78988e-15 0)
(1.4 -1.92285e-15 0)
(1.4 -1.98091e-15 0)
(1.4 -1.9776e-15 0)
(1.4 -1.79055e-15 0)
(1.4 -1.6896e-15 0)
(1.4 -1.48209e-15 0)
(1.4 -1.13616e-15 0)
(1.4 -8.68027e-16 0)
(1.4 -7.65124e-16 0)
(1.4 -4.67045e-16 0)
(1.4 -4.55823e-17 0)
(1.4 1.04262e-16 0)
(1.4 5.14054e-17 0)
(1.4 -1.44433e-16 0)
(1.4 -1.08107e-16 0)
(1.4 -1.51852e-16 0)
(1.4 -5.31267e-16 0)
(1.4 -8.03382e-16 0)
(1.4 -1.01642e-15 0)
(1.4 -8.23487e-16 0)
(1.4 -6.84545e-16 0)
(1.4 -8.56023e-16 0)
(1.4 -8.28484e-16 0)
(1.4 -8.54376e-16 0)
(1.4 -6.58857e-16 0)
(1.4 -3.22049e-16 0)
(1.4 2.04465e-16 0)
(1.4 5.23157e-16 0)
(1.4 9.03673e-16 0)
(1.4 1.15921e-15 0)
(1.4 1.2876e-15 0)
(1.4 1.54897e-15 0)
(1.4 1.77182e-15 0)
(1.4 1.9784e-15 0)
(1.4 2.36891e-15 0)
(1.4 2.41406e-15 0)
(1.4 2.47038e-15 0)
(1.4 2.62451e-15 0)
(1.4 2.88073e-15 0)
(1.4 2.84967e-15 0)
(1.4 2.70913e-15 0)
(1.4 2.54168e-15 0)
(1.4 2.49387e-15 0)
(1.4 2.78608e-15 0)
(1.4 3.00395e-15 0)
(1.4 3.20099e-15 0)
(1.4 3.16626e-15 0)
(1.4 3.10758e-15 0)
(1.4 2.89467e-15 0)
(1.4 2.79785e-15 0)
(1.4 2.80714e-15 0)
(1.4 2.26742e-15 0)
(1.4 1.7007e-15 0)
(1.4 1.20413e-15 0)
(1.4 1.01914e-15 0)
(1.4 1.78483e-15 0)
(1.4 2.1436e-15 0)
(1.4 2.65244e-15 0)
(1.4 2.77582e-15 0)
(1.4 2.89672e-15 0)
(1.4 2.85596e-15 0)
(1.4 2.92501e-15 0)
(1.4 2.98332e-15 0)
(1.4 2.88626e-15 0)
(1.4 2.79167e-15 0)
(1.4 2.71019e-15 0)
(1.4 2.42878e-15 0)
(1.4 2.32396e-15 0)
(1.4 2.32799e-15 0)
(1.4 2.33562e-15 0)
(1.4 2.29372e-15 0)
(1.4 2.35194e-15 0)
(1.4 2.42291e-15 0)
(1.4 2.58968e-15 0)
(1.4 3.0096e-15 0)
(1.4 3.14643e-15 0)
(1.4 3.21592e-15 0)
(1.4 3.30913e-15 0)
(1.4 3.34911e-15 0)
(1.4 3.57634e-15 0)
(1.4 3.10692e-15 0)
(1.4 2.59074e-15 0)
(1.4 2.20293e-15 0)
(1.4 1.94628e-15 0)
(1.4 1.17346e-15 0)
(1.4 8.05519e-16 0)
(1.4 4.61655e-16 0)
(1.4 1.89994e-16 0)
(1.4 5.38564e-20 0)
(1.4 1.18722e-16 0)
(1.4 2.83693e-16 0)
(1.4 8.41831e-16 0)
(1.4 9.50382e-16 0)
(1.4 1.26543e-15 0)
(1.4 1.46463e-15 0)
(1.4 1.25773e-15 0)
(1.4 1.21573e-15 0)
(1.4 1.14511e-15 0)
(1.4 1.06033e-15 0)
(1.4 8.34483e-16 0)
(1.4 4.24338e-16 0)
(1.4 1.21202e-16 0)
(1.4 1.18193e-16 0)
(1.4 -2.32758e-16 0)
(1.4 -6.15878e-16 0)
(1.4 -8.2259e-16 0)
(1.4 -1.09988e-15 0)
(1.4 -1.16385e-15 0)
(1.4 -1.42045e-15 0)
(1.4 -1.74119e-15 0)
(1.4 -1.76139e-15 0)
(1.4 -1.72572e-15 0)
(1.4 -1.70032e-15 0)
(1.4 -1.88977e-15 0)
(1.4 -2.05168e-15 0)
(1.4 -2.84135e-15 0)
(1.4 -3.26521e-15 0)
(1.4 -3.11719e-15 0)
(1.4 -3.03053e-15 0)
(1.4 -3.13209e-15 0)
(1.4 -3.21814e-15 0)
(1.4 -3.29526e-15 0)
(1.4 -3.34395e-15 0)
(1.4 -3.0408e-15 0)
(1.4 -2.93901e-15 0)
(1.4 -2.82835e-15 0)
(1.4 -2.35224e-15 0)
(1.4 -1.68172e-15 0)
(1.4 -1.41036e-15 0)
(1.4 -1.19043e-15 0)
(1.4 -6.74764e-16 0)
(1.4 6.32391e-17 0)
(1.4 1.47813e-16 0)
(1.4 2.41646e-16 0)
(1.4 3.02113e-16 0)
(1.4 2.07196e-16 0)
(1.4 1.01489e-16 0)
(1.4 -8.43912e-17 0)
(1.4 -7.42647e-17 0)
(1.4 -2.12332e-16 0)
(1.4 -3.78399e-16 0)
(1.4 -5.09972e-16 0)
(1.4 -5.3649e-16 0)
(1.4 -3.83546e-16 0)
(1.4 -1.89601e-16 0)
(1.4 4.29411e-17 0)
(1.4 5.67435e-16 0)
(1.4 7.74848e-16 0)
(1.4 7.86604e-16 0)
(1.4 7.81538e-16 0)
(1.4 8.57768e-16 0)
(1.4 8.85946e-16 0)
(1.4 6.3998e-16 0)
(1.4 6.06768e-16 0)
(1.4 4.27942e-16 0)
(1.4 4.29701e-16 0)
(1.4 1.47477e-16 0)
(1.4 7.83117e-17 0)
(1.4 4.43891e-16 0)
(1.4 5.05367e-16 0)
(1.4 7.9955e-16 0)
(1.4 1.03955e-15 0)
(1.4 1.09399e-15 0)
(1.4 1.40237e-15 0)
(1.4 1.82737e-15 0)
(1.4 2.48208e-15 0)
(1.4 2.69259e-15 0)
(1.4 2.72362e-15 0)
(1.4 2.79774e-15 0)
(1.4 2.7819e-15 0)
(1.4 2.37712e-15 0)
(1.4 2.06577e-15 0)
(1.4 1.88479e-15 0)
(1.4 1.53802e-15 0)
(1.4 3.91323e-16 0)
(1.4 4.40011e-16 0)
(1.4 1.86692e-16 0)
(1.4 1.21936e-16 0)
(1.4 5.13792e-16 0)
(1.4 9.89787e-16 0)
(1.4 1.18978e-15 0)
(1.4 1.2463e-15 0)
(1.4 1.27152e-15 0)
(1.4 1.09645e-15 0)
(1.4 9.24562e-16 0)
(1.4 6.88775e-16 0)
(1.4 3.37222e-16 0)
(1.4 2.44848e-16 0)
(1.4 4.90495e-16 0)
(1.4 5.84967e-16 0)
(1.4 6.24589e-16 0)
(1.4 9.11714e-16 0)
(1.4 1.11992e-15 0)
(1.4 1.71079e-15 0)
(1.4 2.01884e-15 0)
(1.4 2.18591e-15 0)
(1.4 2.54723e-15 0)
(1.4 2.60886e-15 0)
(1.4 2.95945e-15 0)
(1.4 2.8703e-15 0)
(1.4 2.65974e-15 0)
(1.4 2.53804e-15 0)
(1.4 2.53528e-15 0)
(1.4 2.33605e-15 0)
(1.4 2.22655e-15 0)
(1.4 2.12266e-15 0)
(1.4 2.00273e-15 0)
(1.4 1.97519e-15 0)
(1.4 1.77402e-15 0)
(1.4 1.39743e-15 0)
(1.4 1.52324e-15 0)
(1.4 1.68317e-15 0)
(1.4 1.64057e-15 0)
(1.4 1.19342e-15 0)
(1.4 1.10849e-15 0)
(1.4 1.0159e-15 0)
(1.4 9.30354e-16 0)
(1.4 8.39199e-16 0)
(1.4 7.54088e-16 0)
(1.4 6.50782e-16 0)
(1.4 1.82589e-16 0)
(1.4 -3.22988e-16 0)
(1.4 -3.15414e-16 0)
(1.4 -4.20165e-16 0)
(1.4 -5.94698e-16 0)
(1.4 -5.64471e-16 0)
(1.4 -3.54701e-16 0)
(1.4 -3.16607e-16 0)
(1.4 -4.98214e-16 0)
(1.4 -9.13472e-16 0)
(1.4 -1.14601e-15 0)
(1.4 -1.43244e-15 0)
(1.4 -1.98142e-15 0)
(1.4 -2.38224e-15 0)
(1.4 -2.82147e-15 0)
(1.4 -3.40415e-15 0)
(1.4 -3.67616e-15 0)
(1.4 -3.84093e-15 0)
(1.4 -4.13883e-15 0)
(1.4 -4.15888e-15 0)
(1.4 -4.19652e-15 0)
(1.4 -4.12194e-15 0)
(1.4 -4.08632e-15 0)
(1.4 -3.93532e-15 0)
(1.4 -3.58786e-15 0)
(1.4 -3.29669e-15 0)
(1.4 -3.17968e-15 0)
(1.4 -3.02747e-15 0)
(1.4 -2.98441e-15 0)
(1.4 -2.91378e-15 0)
(1.4 -2.48647e-15 0)
(1.4 -1.38459e-15 0)
(1.4 1.08671e-16 0)
(1.4 5.94203e-16 0)
(1.4 1.03445e-15 0)
(1.4 1.1044e-15 0)
(1.4 1.26466e-15 0)
(1.4 1.45712e-15 0)
(1.4 1.42896e-15 0)
(1.4 1.32875e-15 0)
(1.4 1.3154e-15 0)
(1.4 1.33064e-15 0)
(1.4 1.25687e-15 0)
(1.4 1.17136e-15 0)
(1.4 1.10689e-15 0)
(1.4 1.14964e-15 0)
(1.4 1.03733e-15 0)
(1.4 1.03191e-15 0)
(1.4 8.93397e-16 0)
(1.4 7.03801e-16 0)
(1.4 1.92037e-16 0)
(1.4 -1.98606e-16 0)
(1.4 -3.46892e-16 0)
(1.4 -5.82732e-16 0)
(1.4 -1.04516e-15 0)
(1.4 -1.03804e-15 0)
(1.4 -4.16629e-16 0)
(1.4 -1.07818e-16 0)
(1.4 4.52503e-16 0)