/*--------------------------------*- C++ -*----------------------------------*\
  =========                 |
  \\      /  F ield         | OpenFOAM: The Open Source CFD Toolbox
   \\    /   O peration     | Website:  https://openfoam.org
    \\  /    A nd           | Version:  7
     \\/     M anipulation  |
\*---------------------------------------------------------------------------*/
FoamFile
{
    version     2.0;
    format      ascii;
    class       volScalarField;
    location    "3";
    object      rho;
}
// * * * * * * * * * * * * * * * * * * * * * * * * * * * * * * * * * * * * * //

dimensions      [1 -3 0 0 0 0 0];

internalField   nonuniform List<scalar> 
2413
(
1.45395
1.43613
1.4169
1.39652
1.37682
1.35967
1.34341
1.32903
1.47149
1.45631
1.43872
1.41959
1.39975
1.37957
1.35962
1.34082
1.48549
1.47281
1.45789
1.44096
1.42256
1.4034
1.38371
1.36371
1.49744
1.48662
1.47388
1.45923
1.4429
1.42533
1.4069
1.38803
1.50643
1.49857
1.48749
1.47464
1.46028
1.44453
1.42762
1.4099
1.51132
1.50748
1.4994
1.48819
1.47533
1.46096
1.44537
1.42886
1.51377
1.51285
1.50858
1.50006
1.48862
1.47568
1.46122
1.44546
1.51728
1.51585
1.51426
1.50988
1.50079
1.48868
1.47522
1.46053
1.5212
1.52018
1.51841
1.51637
1.51094
1.50109
1.48847
1.47441
1.52635
1.5257
1.52367
1.52123
1.51863
1.51203
1.50117
1.48776
1.53487
1.5321
1.53027
1.52765
1.52472
1.52081
1.51301
1.50116
1.54757
1.5414
1.53844
1.53559
1.53196
1.52866
1.52333
1.51384
1.56399
1.55488
1.54867
1.54517
1.54157
1.53709
1.53265
1.52577
1.58249
1.57169
1.56272
1.55696
1.55262
1.54768
1.54281
1.53705
1.60294
1.59117
1.5804
1.57155
1.56567
1.56036
1.55464
1.54879
1.62574
1.61241
1.60052
1.58959
1.58116
1.57484
1.56866
1.56217
1.65057
1.63589
1.6225
1.61032
1.59978
1.59144
1.58435
1.57744
1.67733
1.66135
1.64667
1.63312
1.6208
1.61059
1.60216
1.59448
1.70624
1.68872
1.6726
1.65752
1.64422
1.63252
1.62208
1.61305
0.944399
0.944783
0.944535
0.943654
0.942731
0.942053
0.94116
0.938745
0.936482
0.935394
0.93357
0.931263
0.930328
0.929107
0.927833
0.927521
0.927613
0.927854
0.928544
1.31455
1.30179
1.29016
1.27891
1.26795
1.25763
1.24702
1.23551
1.22426
1.21421
1.20528
1.19757
1.19024
1.18362
1.17796
1.1734
1.16892
1.16504
1.16182
1.16016
1.16087
1.16224
1.1589
1.15072
1.14074
1.12719
1.10892
1.08601
1.05764
1.02543
0.996467
0.971967
0.951509
0.936314
0.922334
0.911817
0.904876
0.896602
0.888246
0.880846
0.871745
0.861722
0.853078
0.843697
0.833073
0.824298
0.816039
0.806317
0.79768
0.790655
0.782743
0.77417
0.767664
0.761682
0.754693
0.748984
0.744992
0.740416
0.735299
0.731364
0.727422
0.723584
0.720313
0.717785
0.716154
0.715788
0.718216
0.723305
0.730961
0.741202
0.754236
0.769644
0.787811
0.806864
0.824867
0.84427
0.861762
0.878214
0.890683
0.899963
0.911722
0.918044
0.922686
0.928971
0.934548
0.937638
0.940127
0.942962
0.944988
0.946705
0.949094
0.950803
0.951228
0.95065
0.949016
0.946688
0.94461
0.942036
0.939737
0.937953
0.935813
0.934292
0.933808
0.933434
0.931129
0.929339
0.928745
0.927554
0.925026
0.923602
0.923357
0.922588
0.922531
0.922934
0.923752
0.92481
0.926373
0.928021
0.929409
0.930657
1.32444
1.31018
1.29624
1.28219
1.2691
1.25741
1.24592
1.23473
1.22325
1.21158
1.2005
1.19029
1.18124
1.1735
1.16673
1.1605
1.15495
1.15031
1.14689
1.14649
1.14612
1.1422
1.13652
1.1263
1.11224
1.09553
1.07376
1.04807
1.02327
0.999028
0.978728
0.965605
0.953008
0.944607
0.938723
0.931177
0.924311
0.918127
0.909888
0.901362
0.893705
0.884331
0.874817
0.866711
0.857558
0.847951
0.839902
0.831553
0.822202
0.814176
0.80682
0.798306
0.790105
0.783435
0.776337
0.768189
0.761815
0.756055
0.749334
0.742397
0.737639
0.733013
0.727275
0.723113
0.720398
0.71705
0.712633
0.709071
0.705845
0.703083
0.701334
0.700831
0.702306
0.705428
0.710374
0.718165
0.728927
0.741558
0.756242
0.772233
0.790403
0.810476
0.829275
0.846832
0.864288
0.880775
0.893462
0.905162
0.915742
0.922472
0.927982
0.931562
0.932366
0.932737
0.932121
0.929356
0.927797
0.925939
0.923428
0.921906
0.919146
0.91728
0.91719
0.916275
0.914338
0.914157
0.914713
0.914375
0.914302
0.914851
0.916526
0.918255
0.920179
0.922223
0.923748
0.925107
0.926322
0.927162
0.927767
0.928338
1.34544
1.329
1.31281
1.29719
1.28217
1.2675
1.25387
1.24191
1.23054
1.21875
1.20732
1.19705
1.18755
1.17826
1.16871
1.15979
1.15276
1.14701
1.14187
1.13658
1.12924
1.11964
1.10853
1.09461
1.07589
1.05479
1.03406
1.01285
0.99512
0.983414
0.971266
0.962323
0.957219
0.951203
0.946615
0.943313
0.936921
0.930955
0.925219
0.916913
0.90857
0.901184
0.892178
0.883663
0.876584
0.86823
0.859741
0.852802
0.845064
0.836617
0.829675
0.822632
0.814384
0.807123
0.800664
0.79314
0.785289
0.778938
0.772561
0.76497
0.758264
0.75288
0.74678
0.73984
0.734466
0.729441
0.723731
0.717724
0.71402
0.710439
0.705945
0.702848
0.700711
0.697621
0.694471
0.691621
0.689044
0.686588
0.685337
0.68647
0.689417
0.694626
0.702168
0.712002
0.724291
0.739557
0.756058
0.772624
0.79086
0.808536
0.823941
0.838347
0.850283
0.861804
0.868831
0.872342
0.877657
0.881254
0.884639
0.8873
0.889965
0.893174
0.896735
0.899051
0.901368
0.904644
0.907713
0.910939
0.914351
0.917715
0.920174
0.921664
0.922174
0.922121
0.921938
0.921766
0.921189
0.920142
0.919523
0.919267
1.37036
1.35387
1.33717
1.32073
1.30458
1.28843
1.27321
1.25835
1.24367
1.22978
1.21725
1.2063
1.19604
1.1853
1.17417
1.16396
1.15456
1.14547
1.13603
1.12496
1.11121
1.09518
1.07782
1.06048
1.04232
1.02323
1.0071
0.993885
0.980514
0.972625
0.967747
0.961718
0.958229
0.955797
0.950079
0.945055
0.94119
0.93426
0.927395
0.922739
0.915409
0.908997
0.903983
0.89658
0.889274
0.883253
0.87576
0.86806
0.862077
0.855281
0.847713
0.841662
0.835273
0.827668
0.821278
0.815281
0.808004
0.80102
0.795192
0.788688
0.781306
0.775337
0.769782
0.763061
0.756294
0.750945
0.745356
0.738579
0.732594
0.727956
0.722692
0.716589
0.711959
0.70792
0.703543
0.698597
0.695351
0.692333
0.688766
0.685072
0.682575
0.680021
0.67742
0.675421
0.674363
0.673772
0.67393
0.675911
0.679874
0.686009
0.69335
0.701996
0.713521
0.72677
0.740897
0.753874
0.767509
0.782362
0.797205
0.81175
0.826187
0.839787
0.85211
0.863915
0.873286
0.880928
0.888179
0.892901
0.896264
0.899527
0.902092
0.904549
0.905912
0.905526
0.905817
0.906843
0.906548
0.904007
0.903143
0.903461
1.39305
1.3774
1.36171
1.34581
1.32971
1.31321
1.29649
1.28001
1.26406
1.2489
1.23414
1.21895
1.20467
1.19206
1.17947
1.16677
1.15405
1.14123
1.12812
1.11287
1.09537
1.07766
1.06047
1.04406
1.02872
1.01287
0.997922
0.987111
0.977499
0.969633
0.965301
0.960711
0.955273
0.952209
0.949903
0.944249
0.940219
0.937093
0.930956
0.925439
0.921299
0.914612
0.907917
0.903449
0.89636
0.890067
0.886024
0.879885
0.873683
0.869119
0.863078
0.85631
0.851215
0.845377
0.838328
0.832748
0.827174
0.820162
0.813966
0.80864
0.802209
0.795461
0.790248
0.784778
0.778032
0.772111
0.766997
0.761049
0.754299
0.749044
0.744183
0.738351
0.73238
0.727831
0.723161
0.717396
0.711748
0.707438
0.702716
0.697001
0.692279
0.689102
0.685737
0.681532
0.678844
0.677224
0.674982
0.671923
0.669203
0.666712
0.663782
0.660977
0.658479
0.656454
0.654938
0.653776
0.655209
0.659237
0.665058
0.672751
0.683203
0.696631
0.711829
0.728058
0.745131
0.761401
0.778018
0.793321
0.806033
0.817957
0.82944
0.838715
0.847263
0.853958
0.859653
0.866393
0.870995
0.873688
0.876763
0.88154
1.41309
1.39819
1.38294
1.36735
1.35171
1.33599
1.31979
1.30318
1.2862
1.26923
1.25259
1.23568
1.21892
1.2031
1.18734
1.17151
1.15624
1.1397
1.12334
1.10763
1.09146
1.07511
1.05829
1.04147
1.02622
1.01178
0.997679
0.987629
0.979964
0.971779
0.965227
0.961365
0.956758
0.950789
0.947108
0.943646
0.937641
0.93351
0.930869
0.925185
0.921156
0.918022
0.911882
0.907259
0.903607
0.897669
0.892293
0.888693
0.883045
0.87711
0.873273
0.867883
0.861881
0.857752
0.852611
0.846231
0.841424
0.836342
0.829736
0.824252
0.819363
0.813165
0.807155
0.802508
0.797128
0.790699
0.785591
0.78074
0.774667
0.768669
0.764058
0.759121
0.753072
0.748043
0.743733
0.738668
0.732603
0.727476
0.72285
0.717569
0.71156
0.707252
0.703477
0.698924
0.694029
0.690575
0.687038
0.682783
0.678222
0.674949
0.671447
0.667453
0.66282
0.65942
0.655563
0.651103
0.645749
0.640704
0.63583
0.632362
0.630999
0.630739
0.631196
0.633168
0.636464
0.641552
0.648761
0.65774
0.668099
0.680073
0.694079
0.709558
0.725595
0.742164
0.759035
0.775826
0.791807
0.807203
0.820854
0.833569
1.43027
1.41594
1.40126
1.38624
1.37086
1.3552
1.33915
1.3228
1.30608
1.28897
1.27164
1.2539
1.2356
1.21718
1.19881
1.18054
1.16291
1.14523
1.12699
1.10974
1.09301
1.07705
1.06157
1.04578
1.03117
1.01831
1.00563
0.994935
0.987249
0.979272
0.970746
0.964929
0.95988
0.953061
0.946836
0.943396
0.939282
0.933599
0.93013
0.926806
0.920837
0.916651
0.913431
0.907793
0.904381
0.90193
0.896758
0.893233
0.890561
0.88546
0.880786
0.877533
0.872512
0.867066
0.863476
0.85862
0.852695
0.848586
0.843845
0.837614
0.832934
0.828399
0.822345
0.817064
0.812752
0.80731
0.801282
0.796701
0.791909
0.785847
0.780728
0.776462
0.771342
0.765601
0.761275
0.75699
0.75156
0.745919
0.741457
0.736904
0.731228
0.726106
0.722408
0.718397
0.713379
0.709206
0.705698
0.701619
0.69667
0.692235
0.68823
0.683615
0.678155
0.672489
0.667252
0.661343
0.654779
0.648545
0.643464
0.639514
0.63558
0.633355
0.632379
0.630596
0.628426
0.626402
0.624662
0.622707
0.621291
0.620418
0.620266
0.621154
0.623289
0.62683
0.632392
0.639995
0.649007
0.659717
0.672521
0.686581
1.4461
1.43217
1.41764
1.40268
1.38741
1.37197
1.35625
1.34018
1.32366
1.30661
1.28914
1.27134
1.25298
1.23414
1.21503
1.19549
1.17614
1.15734
1.13831
1.12006
1.10261
1.08579
1.07101
1.05709
1.04338
1.03114
1.01968
1.00815
0.998155
0.989612
0.98064
0.97211
0.965919
0.959656
0.952041
0.946347
0.942727
0.937095
0.93088
0.927595
0.923293
0.917692
0.914637
0.91139
0.906407
0.903124
0.900586
0.895693
0.891888
0.889839
0.88544
0.881617
0.879471
0.875229
0.870611
0.867659
0.863275
0.857841
0.854262
0.849914
0.844126
0.840032
0.835817
0.830024
0.825372
0.821335
0.815882
0.810402
0.806275
0.801474
0.795633
0.791249
0.787099
0.78177
0.776654
0.772682
0.768183
0.76248
0.757496
0.753321
0.748566
0.742986
0.738982
0.735462
0.73112
0.726366
0.722999
0.71945
0.714941
0.710105
0.706182
0.701851
0.69654
0.69065
0.684999
0.679112
0.672465
0.665207
0.659242
0.654501
0.650093
0.645854
0.643223
0.640617
0.63766
0.634312
0.631955
0.629705
0.627164
0.623963
0.622303
0.620768
0.618431
0.61616
0.61428
0.612593
0.610911
0.609758
0.609206
0.609197
1.46053
1.44711
1.43307
1.41843
1.40319
1.38767
1.37201
1.35601
1.33978
1.32325
1.30621
1.28877
1.27088
1.25252
1.23389
1.21475
1.19523
1.17598
1.15687
1.13835
1.1209
1.10375
1.08749
1.07308
1.05956
1.04701
1.03595
1.02515
1.0141
1.00395
0.994802
0.985277
0.976187
0.969237
0.96197
0.953755
0.948144
0.943387
0.936583
0.930689
0.927117
0.922103
0.916645
0.913703
0.910084
0.905072
0.902211
0.899873
0.895723
0.892677
0.890705
0.886677
0.882827
0.880816
0.876903
0.872557
0.870239
0.866332
0.861577
0.858769
0.854832
0.849555
0.84615
0.842215
0.836659
0.832662
0.828841
0.823341
0.818508
0.814725
0.809795
0.804385
0.800538
0.796319
0.790865
0.786396
0.782527
0.777657
0.771997
0.767629
0.763519
0.758376
0.753473
0.750095
0.746415
0.74172
0.737797
0.734596
0.730728
0.725888
0.721689
0.717816
0.713085
0.707269
0.701523
0.695879
0.689629
0.682396
0.675865
0.670962
0.666981
0.662789
0.659518
0.656989
0.654077
0.650485
0.647027
0.644193
0.641095
0.637406
0.633636
0.630753
0.627825
0.624709
0.621516
0.619547
0.617439
0.614951
0.61236
0.610844
1.47446
1.46157
1.4479
1.43358
1.41855
1.4031
1.38756
1.37168
1.35564
1.33942
1.32287
1.30609
1.28895
1.27119
1.25312
1.23484
1.21637
1.19802
1.17971
1.16142
1.14394
1.12711
1.11065
1.09532
1.08084
1.06654
1.05373
1.04262
1.03157
1.02042
1.01088
1.00199
0.992072
0.982791
0.975491
0.967395
0.958553
0.952267
0.946283
0.938555
0.932609
0.92858
0.922877
0.917137
0.914053
0.910122
0.905035
0.902465
0.900049
0.895725
0.893113
0.891305
0.887337
0.884315
0.882678
0.879037
0.875284
0.873224
0.869581
0.86517
0.862672
0.859002
0.854143
0.851212
0.847531
0.842361
0.838954
0.835316
0.829969
0.825846
0.822294
0.817287
0.812526
0.809019
0.804646
0.799361
0.795435
0.791508
0.78627
0.781097
0.777193
0.772952
0.767645
0.763654
0.760346
0.756219
0.751575
0.748258
0.744834
0.740418
0.735663
0.731809
0.727556
0.722123
0.716024
0.71027
0.704342
0.697613
0.690668
0.685701
0.682035
0.678368
0.674671
0.672218
0.669624
0.666376
0.66264
0.659734
0.65683
0.653468
0.649564
0.646382
0.643437
0.640233
0.636547
0.633549
0.631014
0.628173
0.624782
0.621601
1.48825
1.47559
1.46231
1.4485
1.43399
1.41882
1.40341
1.38766
1.37171
1.35566
1.33934
1.32298
1.30662
1.28994
1.27303
1.25585
1.23827
1.22075
1.20338
1.18594
1.16876
1.15192
1.13533
1.11973
1.1051
1.09064
1.07666
1.06392
1.05182
1.03952
1.02855
1.01934
1.00997
0.999624
0.99093
0.983352
0.974302
0.965148
0.958637
0.951725
0.943266
0.937035
0.932253
0.925586
0.919424
0.916207
0.911811
0.906675
0.904181
0.901307
0.896847
0.894434
0.892416
0.888346
0.88569
0.884238
0.880496
0.87739
0.875765
0.872081
0.868409
0.866447
0.862806
0.858586
0.856191
0.852544
0.847841
0.844987
0.841367
0.836222
0.832808
0.829344
0.824248
0.820231
0.816911
0.812251
0.807391
0.803848
0.799722
0.794253
0.789857
0.786211
0.781643
0.776708
0.773365
0.769856
0.765254
0.761156
0.757943
0.754068
0.749149
0.744766
0.740794
0.735891
0.729742
0.723584
0.717646
0.71137
0.704351
0.698831
0.695283
0.692097
0.688346
0.685491
0.683142
0.680278
0.67662
0.673423
0.67078
0.667796
0.66411
0.660667
0.657915
0.655
0.651535
0.648156
0.6457
0.643083
0.639992
0.636687
1.50219
1.49004
1.47708
1.46358
1.44954
1.43484
1.41958
1.4039
1.38817
1.37248
1.35654
1.34062
1.32463
1.30834
1.292
1.27581
1.25943
1.243
1.22652
1.20997
1.19375
1.17792
1.16196
1.14608
1.13084
1.116
1.10138
1.0877
1.07511
1.06268
1.05011
1.03887
1.02903
1.01876
1.00853
1.00013
0.991727
0.98189
0.972974
0.96628
0.958446
0.949405
0.943305
0.937786
0.93022
0.92411
0.920549
0.915227
0.909783
0.907301
0.903796
0.899127
0.896989
0.894643
0.89046
0.888144
0.886479
0.882607
0.879823
0.878223
0.874483
0.871218
0.869512
0.865913
0.862208
0.860183
0.856629
0.85248
0.850072
0.846524
0.841871
0.839057
0.835626
0.830715
0.827369
0.824076
0.819234
0.815009
0.811679
0.807274
0.802078
0.798468
0.794856
0.790009
0.785901
0.782771
0.778869
0.774159
0.770658
0.767217
0.762757
0.757726
0.753566
0.74911
0.743341
0.736722
0.730491
0.724391
0.71785
0.711581
0.707906
0.705019
0.701625
0.698109
0.695686
0.693051
0.689672
0.685983
0.683313
0.680599
0.677315
0.673596
0.670778
0.668073
0.664971
0.66135
0.658698
0.656305
0.65355
0.65027
1.51614
1.50497
1.49237
1.47906
1.46529
1.45114
1.43655
1.42129
1.40573
1.39002
1.37407
1.35822
1.34266
1.32719
1.31172
1.29606
1.28026
1.26458
1.24899
1.23333
1.21777
1.20234
1.18702
1.17198
1.15739
1.1429
1.12838
1.11403
1.10017
1.08697
1.07412
1.06176
1.05047
1.03962
1.02846
1.01847
1.00977
1.0006
0.99075
0.982595
0.975006
0.965951
0.957006
0.951078
0.944443
0.936126
0.93077
0.926485
0.920017
0.914798
0.912146
0.907657
0.902869
0.900887
0.897706
0.893259
0.891441
0.889165
0.884974
0.882937
0.88117
0.877221
0.874753
0.873141
0.869353
0.866357
0.864556
0.860791
0.857319
0.855261
0.851508
0.847565
0.845234
0.841613
0.837101
0.834327
0.830881
0.825959
0.822448
0.819183
0.814401
0.809984
0.806901
0.803049
0.798264
0.794961
0.791711
0.787292
0.782997
0.779733
0.775845
0.770807
0.765995
0.761714
0.756537
0.74992
0.743181
0.736987
0.730981
0.724615
0.72025
0.71754
0.714585
0.710836
0.707886
0.705392
0.702346
0.698465
0.695342
0.692798
0.68984
0.686137
0.68293
0.68032
0.677458
0.673914
0.670712
0.668398
0.665867
0.662797
1.52938
1.51986
1.50828
1.49552
1.4821
1.46824
1.45399
1.43912
1.42376
1.40831
1.3928
1.37737
1.36196
1.34645
1.33112
1.31603
1.30104
1.28611
1.27109
1.25603
1.2412
1.22653
1.2118
1.19694
1.18251
1.1682
1.15405
1.14039
1.12685
1.11331
1.10004
1.08696
1.07436
1.06254
1.05112
1.03986
1.02942
1.01966
1.0098
1.00052
0.992304
0.983859
0.974554
0.966794
0.960021
0.951956
0.944043
0.93918
0.933442
0.926126
0.921903
0.918394
0.912538
0.908274
0.906073
0.901716
0.897406
0.895725
0.892579
0.888396
0.886782
0.884369
0.880311
0.878578
0.876633
0.87261
0.870519
0.868693
0.864698
0.86211
0.860166
0.85621
0.853074
0.850934
0.847061
0.843194
0.840719
0.837009
0.832396
0.829481
0.826092
0.821239
0.81781
0.814874
0.810646
0.806521
0.803635
0.800049
0.795398
0.791762
0.788338
0.783855
0.778558
0.773963
0.769211
0.763137
0.75601
0.749477
0.743675
0.737929
0.732731
0.729935
0.727303
0.723873
0.720227
0.717633
0.714832
0.711238
0.707464
0.704856
0.702143
0.698765
0.695111
0.69245
0.689758
0.686529
0.682847
0.68026
0.677805
0.674946
1.54248
1.53475
1.52465
1.51267
1.49962
1.48598
1.47207
1.45786
1.44315
1.42791
1.41231
1.39678
1.38148
1.36643
1.35168
1.33692
1.32212
1.30752
1.29295
1.27837
1.26399
1.24966
1.23532
1.22119
1.20733
1.19348
1.17936
1.16556
1.15205
1.13856
1.12549
1.11281
1.10013
1.08748
1.07538
1.06378
1.05235
1.04132
1.03064
1.0204
1.01085
1.00188
0.992908
0.984566
0.977046
0.969267
0.960772
0.954253
0.948397
0.941109
0.934651
0.930759
0.925445
0.919018
0.915778
0.912254
0.906569
0.903248
0.901151
0.896605
0.893067
0.89165
0.888195
0.884442
0.883122
0.880448
0.876543
0.874988
0.872751
0.868809
0.866912
0.864817
0.860781
0.85846
0.856334
0.852181
0.849208
0.846892
0.842749
0.838951
0.836482
0.832702
0.828286
0.825666
0.822517
0.818057
0.814849
0.811951
0.807815
0.803454
0.800193
0.796317
0.79117
0.785959
0.781279
0.775818
0.768842
0.761817
0.755968
0.750839
0.745532
0.742093
0.739664
0.736659
0.732766
0.7297
0.727056
0.72385
0.719818
0.716781
0.714241
0.711211
0.707447
0.704454
0.701906
0.698973
0.695296
0.6922
0.689764
0.687062
1.55595
1.54943
1.54096
1.53033
1.51805
1.50486
1.49121
1.4772
1.46285
1.44802
1.43274
1.41749
1.40243
1.38731
1.37241
1.35781
1.3434
1.32924
1.31494
1.30066
1.28669
1.27271
1.25861
1.2445
1.23077
1.21711
1.20346
1.19027
1.17722
1.1639
1.15054
1.13766
1.12503
1.11249
1.10027
1.08845
1.07668
1.06494
1.05372
1.04306
1.03254
1.02213
1.01234
1.00353
0.995086
0.986911
0.978749
0.971598
0.964921
0.957656
0.950416
0.945238
0.939845
0.933015
0.928082
0.924387
0.918888
0.913445
0.910926
0.907139
0.901817
0.899423
0.89706
0.892432
0.889768
0.888301
0.884431
0.881423
0.880299
0.877092
0.873755
0.872522
0.869722
0.865976
0.86434
0.86169
0.857548
0.855349
0.852737
0.848367
0.845581
0.843081
0.838847
0.835432
0.833079
0.829434
0.825425
0.822821
0.819573
0.815072
0.811406
0.808022
0.80348
0.797951
0.792935
0.787815
0.781481
0.774141
0.768039
0.763244
0.758519
0.754296
0.751834
0.749144
0.745522
0.741841
0.739182
0.736256
0.73248
0.728802
0.726251
0.723467
0.719928
0.716466
0.713977
0.71126
0.70788
0.704358
0.701808
0.699178
1.57087
1.56465
1.55737
1.54819
1.53704
1.52441
1.51112
1.49732
1.48331
1.46907
1.45418
1.43885
1.42358
1.40866
1.39402
1.37949
1.36518
1.35106
1.33703
1.32297
1.30917
1.29522
1.28124
1.26772
1.25424
1.24079
1.22704
1.21379
1.20075
1.18764
1.17492
1.16254
1.14998
1.13734
1.12503
1.11312
1.10117
1.08924
1.07763
1.06642
1.05538
1.04453
1.03428
1.02471
1.01527
1.00582
0.997468
0.990018
0.982571
0.975063
0.968053
0.961894
0.955729
0.948832
0.943018
0.938299
0.932725
0.926541
0.922849
0.919005
0.913329
0.909392
0.907066
0.9027
0.898246
0.896639
0.893652
0.889197
0.887512
0.885545
0.881425
0.879303
0.877884
0.874133
0.871401
0.869968
0.866482
0.86308
0.861384
0.858118
0.854189
0.852242
0.849297
0.84506
0.842729
0.840145
0.836042
0.833053
0.830519
0.826654
0.822358
0.819153
0.815275
0.809961
0.804444
0.799358
0.793607
0.786445
0.77988
0.775214
0.771114
0.766641
0.763738
0.761251
0.75802
0.754015
0.751092
0.748359
0.744971
0.740925
0.738105
0.73547
0.732242
0.728466
0.725804
0.723257
0.720197
0.716535
0.71377
0.711209
1.58749
1.58104
1.57418
1.56615
1.55634
1.54467
1.53179
1.51829
1.50447
1.49048
1.47597
1.46108
1.44595
1.43078
1.41597
1.40147
1.3873
1.37326
1.35918
1.34535
1.33165
1.31801
1.30422
1.2906
1.27707
1.26348
1.2502
1.23727
1.2245
1.21144
1.19851
1.18621
1.17371
1.16123
1.14928
1.13749
1.12552
1.11345
1.10211
1.09078
1.07932
1.06778
1.0571
1.04699
1.03714
1.02724
1.01825
1.00986
1.00151
0.993202
0.986308
0.979733
0.972949
0.965992
0.96002
0.954246
0.948132
0.941853
0.937121
0.932448
0.926631
0.921727
0.918579
0.914272
0.908972
0.906464
0.903773
0.899076
0.896166
0.894596
0.890897
0.887394
0.886226
0.883414
0.879488
0.878021
0.875717
0.871616
0.86957
0.867467
0.863385
0.860771
0.858849
0.855034
0.851753
0.849853
0.846561
0.842819
0.84056
0.837565
0.833211
0.829651
0.826301
0.821635
0.81586
0.810516
0.80506
0.79852
0.791528
0.78681
0.783186
0.77907
0.775535
0.773123
0.770221
0.766325
0.762955
0.76034
0.757273
0.753295
0.750013
0.747427
0.744437
0.740625
0.737589
0.73516
0.732329
0.728751
0.725719
0.723216
1.60573
1.59913
1.59216
1.58458
1.57573
1.56521
1.55313
1.54005
1.52639
1.51258
1.4984
1.48375
1.46882
1.45362
1.43869
1.42407
1.40983
1.3957
1.38168
1.36798
1.35438
1.3405
1.32688
1.31357
1.30017
1.28685
1.27338
1.26028
1.24738
1.23445
1.22203
1.20976
1.1975
1.18495
1.17288
1.16116
1.14915
1.13707
1.12568
1.11434
1.103
1.09172
1.08114
1.07067
1.06009
1.04969
1.04044
1.03135
1.02241
1.01343
1.00581
0.998474
0.990861
0.983798
0.977739
0.971472
0.964706
0.958522
0.953215
0.947706
0.941492
0.936526
0.932309
0.927381
0.92178
0.918482
0.915203
0.910225
0.906446
0.904547
0.900982
0.896652
0.895116
0.892812
0.888473
0.886286
0.88462
0.880777
0.877792
0.876308
0.872997
0.869376
)
;

boundaryField
{
    inlet
    {
        type            calculated;
        value           nonuniform 0();
    }
    outlet
    {
        type            calculated;
        value           nonuniform 0();
    }
    bottom
    {
        type            symmetryPlane;
    }
    top
    {
        type            symmetryPlane;
    }
    obstacle
    {
        type            calculated;
        value           nonuniform 0();
    }
    front
    {
        type            empty;
    }
    back
    {
        type            empty;
    }
    procBoundary13to5
    {
        type            processor;
        value           nonuniform List<scalar> 
129
(
1.43336
1.41369
1.39525
1.379
1.36436
1.35233
1.3408
1.33038
0.947687
0.948524
0.948928
0.948914
0.948768
0.948573
0.94812
0.946844
0.945564
0.944749
0.943769
0.941722
0.940448
0.939035
0.936682
0.935474
0.934118
0.932579
0.931871
1.31961
1.30963
1.30037
1.29092
1.28008
1.26844
1.25702
1.24775
1.23937
1.23227
1.22571
1.21874
1.21227
1.20656
1.20158
1.19741
1.19226
1.18618
1.18092
1.17623
1.17414
1.17411
1.17049
1.1638
1.15351
1.14063
1.12546
1.10541
1.08068
1.05177
1.01819
0.982733
0.953304
0.929563
0.907864
0.891341
0.878095
0.866408
0.85883
0.850998
0.841682
0.833718
0.825617
0.815721
0.807056
0.799799
0.791429
0.782832
0.77722
0.771584
0.764609
0.760416
0.755837
0.750699
0.745825
0.741802
0.738174
0.735385
0.734375
0.736162
0.739555
0.744753
0.752675
0.764458
0.778566
0.794671
0.812989
0.833021
0.853338
0.8724
0.888761
0.904245
0.919182
0.929191
0.938663
0.9469
0.952316
0.957063
0.959431
0.961779
0.96545
0.965861
0.965345
0.965755
0.965724
0.964316
0.963438
0.962141
0.960203
0.958039
0.955841
0.953515
0.950675
0.948301
0.946044
0.94436
0.944022
0.943728
0.943667
0.943884
0.944119
0.944119
)
;
    }
    procBoundary13to6
    {
        type            processor;
        value           nonuniform List<scalar> 5(0.929587 0.931568 0.928461 0.919038 0.902667);
    }
    procBoundary13to14
    {
        type            processor;
        value           nonuniform List<scalar> 
14
(
0.88383
0.846303
0.702372
0.610365
0.609159
0.618998
0.633967
0.647538
0.659756
0.671618
0.683754
0.696065
0.70829
0.720434
)
;
    }
    procBoundary13to20
    {
        type            processor;
        value           nonuniform List<scalar> 3(1.46934 1.48381 1.49567);
    }
    procBoundary13to21
    {
        type            processor;
        value           nonuniform List<scalar> 
129
(
1.73649
1.71723
1.70012
1.68426
1.66945
1.65612
1.64434
1.63401
0.867826
0.865062
0.861014
0.859042
0.856674
0.852737
0.850141
0.84785
0.844076
0.839964
0.836855
0.832918
0.827358
0.821623
0.816228
0.810267
0.803219
0.798151
0.79487
0.791308
0.787347
0.784781
0.782129
0.778547
0.774745
0.772134
0.769306
0.765609
0.761908
0.759291
0.756457
0.752821
0.74934
0.746905
0.744232
0.740837
0.737519
0.735051
1.62563
1.6186
1.6115
1.60385
1.59548
1.58603
1.57492
1.56238
1.54895
1.53523
1.52132
1.50695
1.49237
1.47733
1.46202
1.44724
1.43277
1.4187
1.40447
1.39075
1.3772
1.36351
1.35002
1.33669
1.32314
1.30952
1.29652
1.28364
1.27087
1.25788
1.24524
1.23294
1.22055
1.20812
1.19629
1.1845
1.17251
1.16046
1.14918
1.13789
1.1262
1.11463
1.1042
1.0938
1.08343
1.07326
1.06372
1.05424
1.04454
1.03538
1.02721
1.01899
1.01037
1.00284
0.996133
0.989351
0.982107
0.976048
0.970389
0.964241
0.957665
0.952585
0.94757
0.941903
0.936341
0.932462
0.928338
0.922982
0.918883
0.916226
0.912372
0.907657
0.905515
0.903089
0.898694
0.895709
0.894037
0.890547
0.886717
0.885266
0.882668
0.867826
0.878569
)
;
    }
    procBoundary13to28
    {
        type            processor;
        value           nonuniform List<scalar> 
16
(
1.50466
1.50955
1.51183
1.51395
1.51679
1.52105
1.52865
1.54103
1.55671
1.57447
1.59446
1.61636
1.64067
1.6672
1.696
1.72623
)
;
    }
}


// ************************************************************************* //
