/*--------------------------------*- C++ -*----------------------------------*\
  =========                 |
  \\      /  F ield         | OpenFOAM: The Open Source CFD Toolbox
   \\    /   O peration     | Website:  https://openfoam.org
    \\  /    A nd           | Version:  7
     \\/     M anipulation  |
\*---------------------------------------------------------------------------*/
FoamFile
{
    version     2.0;
    format      ascii;
    class       surfaceScalarField;
    location    "20";
    object      phi;
}
// * * * * * * * * * * * * * * * * * * * * * * * * * * * * * * * * * * * * * //

dimensions      [0 3 -1 0 0 0 0];

internalField   nonuniform List<scalar> 
932
(
-0.000132371
0.000132556
-1.84201e-07
-0.000259988
0.000127788
-1.71278e-07
-0.000413123
0.000153245
-1.10356e-07
0.000148988
4.83065e-08
-0.000131984
0.00026454
-0.00025874
0.000254544
-0.000410408
0.000304913
0.000295578
-0.000131213
0.000395753
-0.000256255
0.000379586
-0.000405006
0.000453664
0.000437316
-0.000130068
0.00052582
-0.000252555
0.000502074
-0.000396969
0.000598078
0.000571871
-0.000128559
0.000654379
-0.000247673
0.000621188
-0.000386371
0.000736775
0.000697025
-0.000126704
0.000781083
-0.00024165
0.000736135
-0.000373308
0.000868434
0.000810689
-0.00012452
0.000905603
-0.000234535
0.000846149
-0.00035789
0.000991788
0.00091092
-0.000122032
0.00102763
-0.000226385
0.000950502
-0.000340234
0.00110564
0.000995921
-0.000119263
0.0011469
-0.000217262
0.0010485
-0.000320465
0.00120884
0.00106403
-0.000116241
0.00126314
-0.000207231
0.00113949
-0.000298705
0.00130031
0.00111372
-0.000112997
0.00137614
-0.000196362
0.00122286
-0.000275069
0.00137902
0.00114352
-0.00010956
0.0014857
-0.000184722
0.00129802
-0.000249658
0.00144396
0.00115204
-0.000105962
0.00159166
-0.000172381
0.00136444
-0.000222557
0.00149413
0.00113789
-0.000102235
0.00169389
-0.000159404
0.00142161
-0.000193823
0.00152855
-0.000155541
0.0010996
0.000811027
-9.84122e-05
0.0017923
-0.00014585
0.00146905
-0.000163487
0.00154619
-9.9535e-05
0.00103565
0.000655901
-9.45227e-05
0.00188683
-0.000131775
0.0015063
-0.000131542
0.00154596
-4.02522e-05
0.000944361
0.000460554
-9.05956e-05
0.00197742
-0.000117222
0.00153292
-9.79334e-05
0.00152667
2.26425e-05
0.000823785
0.000222096
-8.66566e-05
0.00206408
-0.000102224
0.00154849
-6.25546e-05
0.001487
8.97745e-05
0.000671456
-6.23005e-05
-8.27276e-05
0.00214681
-8.67939e-05
0.00155256
-2.51914e-05
0.0014254
0.000161269
0.000484995
-0.000395891
-7.8825e-05
0.00222563
-7.0926e-05
0.00154466
1.42888e-05
0.00134018
0.00023778
0.000261504
-0.000781641
-7.49584e-05
0.00230059
-5.45861e-05
0.00152429
5.58586e-05
0.00122974
0.00031989
-2.52718e-06
-0.00122192
-7.11293e-05
0.00237172
-3.77067e-05
0.00149086
0.000100332
0.0010917
0.000408111
-0.000310306
-0.00171801
-6.73286e-05
0.00243905
-2.01991e-05
0.00144373
0.000147989
0.000923509
0.000502773
-0.00066509
-0.00226951
-6.3535e-05
0.00250258
-2.26187e-06
0.00138246
0.000199268
0.00072198
0.000603891
-0.00106971
-0.00287389
-5.97114e-05
0.00256229
1.77891e-05
0.00130496
0.000254627
0.000485142
0.000711031
-0.00152612
-0.00352621
-5.58058e-05
0.0026181
3.89236e-05
0.00121023
0.000314469
0.000209597
0.000823215
-0.00203486
-0.00421918
-5.17448e-05
0.00266985
6.18393e-05
0.00109665
0.00037907
-0.000107634
0.000938915
-0.00259471
-0.00494363
-4.7431e-05
0.00271728
8.70486e-05
0.000962168
0.000448487
-0.000469073
0.00105613
-0.00320235
-4.27401e-05
0.00276002
0.000115054
0.000804374
0.00052248
-0.000876499
-0.00385241
-3.75163e-05
0.00279753
0.000146325
0.000620533
0.000600473
-0.00133065
-0.00453772
-3.15703e-05
0.0028291
0.000181236
0.000407726
0.000681548
-0.00183096
-0.00524976
-2.46773e-05
0.00285378
0.000220001
0.000163048
0.000764485
-0.00237544
-0.00597934
-1.6578e-05
0.00287036
0.00026263
-0.00011616
0.000847835
-0.00296065
-0.00671727
-6.94255e-06
0.0028773
0.000308911
-0.000432014
0.000930019
-0.00358176
4.34025e-06
0.00287296
0.000358436
-0.000786109
-0.00423277
1.7113e-05
0.00285585
0.000410644
-0.00117964
-0.00490681
3.19795e-05
0.00282387
0.000464861
-0.00161252
-0.00559644
4.87378e-05
0.00277513
0.000520324
-0.00208411
-0.00629414
6.7154e-05
0.00270798
0.000576192
-0.00259315
-0.00699265
8.68748e-05
0.0026211
0.000631552
-0.00313782
-0.00768542
0.000107465
0.00251364
0.000685439
-0.0037158
-0.00836685
0.000128476
0.00238516
0.000736922
-0.00432424
-0.00903249
0.000149529
0.00223563
0.000785133
-0.00495985
0.000170378
0.00206525
-0.00561884
0.000190954
0.0018743
-0.00629704
0.000211368
0.00166293
-0.00698989
0.000231879
0.00143105
-0.00769252
0.000252845
0.00117821
-0.00839985
0.000274651
0.000903556
-0.00910659
0.000297639
0.000605918
-0.00980745
0.000322039
0.000283878
-0.0104972
0.000347918
-6.40396e-05
-0.0111707
0.000375132
-0.000439172
-0.0118234
0.000403313
-0.000842485
-0.0124513
0.000431875
-0.00127436
-0.013051
0.000460051
-0.00173441
-0.0136202
0.000486959
-0.00222137
-0.0141575
0.000511701
-0.00273307
-0.0146626
0.000533459
-0.00326653
-0.00381812
-0.00438382
-0.00495947
-0.00554102
-0.00612471
-0.00670723
-0.00728572
-0.00785781
-0.00842155
-0.00897533
-0.00951787
-0.0100481
-0.0105651
-0.0110681
-0.0115565
-0.0120297
-0.0124873
-0.0129288
-0.013354
-0.0137624
-0.014154
-0.0145283
-0.0148854
-0.015225
-0.0155471
-0.0158515
-0.0161383
-0.0164074
-0.0166589
-0.0168926
-0.0171088
-0.0173074
-0.0174885
-0.0176523
-0.0177988
-0.0179282
-0.0180406
-0.0181361
-0.0182151
-0.0182777
-0.0183242
3.0813e-05
-0.018355
-0.0197837
1.57812e-05
-0.0183708
-0.019636
2.2279e-06
-0.018373
-0.0194767
-1.58981e-05
-0.0183571
-0.0193106
-3.25655e-05
-0.0183245
-0.0191368
-4.84241e-05
-0.0182761
-0.0189545
-6.38392e-05
-0.0182123
-0.0187638
-7.89159e-05
-0.0181333
-0.0185647
-9.36973e-05
-0.0180397
-0.0183572
-0.000108204
-0.0179314
-0.0181414
-0.000122445
-0.017809
-0.0179174
-0.000136427
-0.0176726
-0.0176853
-0.000150152
-0.0175224
-0.0174453
-0.000163619
-0.0173588
-0.0171974
-0.00017683
-0.017182
-0.0169419
-0.000189783
-0.0169922
-0.0166788
-0.000202476
-0.0167897
-0.0164083
-0.000214909
-0.0165748
-0.0161305
-0.00022708
-0.0163477
-0.0161087
-0.0158581
-0.0155961
-0.015323
-0.015039
-0.0147445
-0.0144397
-0.0141249
-0.0138004
-0.0134664
-0.0131232
-0.0127711
-0.0124105
-0.0120415
-0.0116644
-0.0112796
-0.0108874
0.0108873
0.0112796
0.0116644
0.0120414
0.0124104
0.0127711
0.0131231
0.0134663
0.0138003
0.0141248
0.0144397
0.0147445
0.015039
0.0153229
0.015596
0.015858
0.0161087
0.0163477
-0.00022708
0.0165747
0.0161305
-0.000214909
0.0167897
0.0164083
-0.000202476
0.0169921
0.0166788
-0.000189782
0.0171819
0.0169418
-0.00017683
0.0173587
0.0171974
-0.000163619
0.0175224
0.0174452
-0.000150151
0.0176725
0.0176853
-0.000136427
0.0178089
0.0179173
-0.000122445
0.0179314
0.0181413
-0.000108203
0.0180396
0.0183571
-9.3697e-05
0.0181333
0.0185647
-7.89156e-05
0.0182122
0.0187638
-6.38388e-05
0.018276
0.0189545
-4.84238e-05
0.0183245
0.0191367
-3.25652e-05
0.018357
0.0193106
-1.58978e-05
0.0183729
0.0183707
0.0183549
0.0183241
0.0182776
0.018215
0.0181361
0.0180405
0.0179281
0.0177987
0.0176522
0.0174885
0.0173073
0.0171087
0.0168925
0.0166588
0.0164074
0.0161383
0.0158515
0.015547
0.015225
0.0148853
0.0145283
0.0141539
0.0137624
0.0133539
0.0129288
0.0124872
0.0120296
0.0115564
0.011068
0.010565
0.010048
0.00951781
0.00897528
0.00842149
0.00785776
0.00728567
0.00670718
0.00612467
0.00554098
0.00495943
0.00438379
0.00381809
0.0032665
0.00273304
0.00222135
0.000486955
0.00173439
0.0136202
0.000460046
0.00127435
0.013051
0.000431871
0.000842475
0.0124512
0.000403309
0.000439166
0.0118234
0.000375128
6.40378e-05
0.0111706
0.000347914
-0.000283876
0.0104971
0.000322035
-0.000605911
0.0098074
0.000297635
-0.000903546
0.00910655
0.000274647
-0.00117819
0.00839981
0.000252841
-0.00143103
0.00769249
0.000231875
-0.00166291
0.00698986
0.000211363
-0.00187427
0.00629702
0.00019095
-0.00206522
0.00561883
0.000170373
-0.00223559
0.00495985
0.000149523
-0.00238512
0.00432425
0.00012847
-0.00251359
0.000736907
0.00371582
0.00836677
0.000107459
-0.00262105
0.000685423
0.00313785
0.00768534
8.68686e-05
-0.00270792
0.000631536
0.00259318
0.00699258
6.71474e-05
-0.00277506
0.000576175
0.00208416
0.00629408
4.87308e-05
-0.00282379
0.000520306
0.00161258
0.0055964
3.19721e-05
-0.00285577
0.000464842
0.00117971
0.00490678
1.7105e-05
-0.00287287
0.000410625
0.000786191
0.00423276
4.33201e-06
-0.0028772
0.000358416
0.000432107
0.00358176
-6.95211e-06
-0.00287025
0.00030889
0.000116265
0.00296067
-1.6588e-05
-0.00285366
0.000262608
-0.000162931
0.000847794
0.00237548
0.00597911
-2.46879e-05
-0.00282897
0.000219979
-0.000407597
0.000764443
0.00183102
0.00524954
-3.15814e-05
-0.00279739
0.000181212
-0.000620391
0.000681505
0.00133072
0.00453752
-3.7528e-05
-0.00275987
0.000146301
-0.00080422
0.00060043
0.000876594
0.00385223
-4.27521e-05
-0.00271711
0.000115029
-0.000962001
0.000522436
0.000469186
0.00320219
-4.74434e-05
-0.00266967
8.70232e-05
-0.00109647
0.000448443
0.000107767
0.00105606
0.00259457
0.00494309
-5.17573e-05
-0.00261791
6.18136e-05
-0.00121004
0.000379027
-0.000209446
0.000938844
0.00203476
0.00421865
-5.58184e-05
-0.00256209
3.88977e-05
-0.00130475
0.000314426
-0.000484975
0.000823145
0.00152604
0.0035257
-5.97239e-05
-0.00250237
1.77631e-05
-0.00138224
0.000254585
-0.000721797
0.000710963
0.00106966
0.0028734
-6.35474e-05
-0.00243882
-2.28462e-06
-0.0014435
0.000199228
-0.00092331
0.000603827
0.000665062
0.00226904
-6.73407e-05
-0.00237148
-2.02236e-05
-0.00149062
0.000147952
-0.00109148
0.000502714
0.0003103
0.00171756
-7.11411e-05
-0.00230034
-3.77304e-05
-0.00152403
0.000100297
-0.00122951
0.000408057
2.53954e-06
0.00122151
-7.49698e-05
-0.00222537
-5.46088e-05
-0.00154439
5.58263e-05
-0.00133995
0.000319843
-0.000261477
0.000781246
-7.88359e-05
-0.00214654
-7.09475e-05
-0.00155228
1.42598e-05
-0.00142515
0.000237741
-0.000484958
0.000395514
-8.2738e-05
-0.0020638
-8.6814e-05
-0.00154821
-2.52179e-05
-0.00148675
0.000161237
-0.000671413
6.19343e-05
-8.66664e-05
-0.00197713
-0.000102242
-0.00153263
-6.25777e-05
-0.00152642
8.97496e-05
-0.000823741
-0.000222458
-9.06048e-05
-0.00188653
-0.00011724
-0.00150599
-9.79534e-05
-0.0015457
2.26246e-05
-0.000944319
-0.000460918
-9.45313e-05
-0.00179199
-0.000131791
-0.00146874
-0.000131558
-0.00154593
-4.02637e-05
-0.00103561
-0.000656273
-9.84202e-05
-0.00169357
-0.000145864
-0.00142129
-0.000163501
-0.0015283
-9.95411e-05
-0.00109957
-0.000811412
-0.000102243
-0.00159133
-0.000159416
-0.00136412
-0.000193835
-0.00149388
-0.000155542
-0.00113787
-0.000105968
-0.00148536
-0.000172392
-0.00129769
-0.000222566
-0.0014437
-0.00115204
-0.000109566
-0.0013758
-0.000184732
-0.00122253
-0.000249665
-0.00137877
-0.00114353
-0.000113002
-0.0012628
-0.00019637
-0.00113916
-0.000275074
-0.00130007
-0.00111374
-0.000116246
-0.00114655
-0.000207239
-0.00104817
-0.000298709
-0.0012086
-0.00106406
-0.000119267
-0.00102728
-0.000217268
-0.000950166
-0.000320468
-0.0011054
-0.000995965
-0.000122035
-0.000905247
-0.00022639
-0.000845811
-0.000340236
-0.000991553
-0.000910976
-0.000124524
-0.000780723
-0.000234539
-0.000735795
-0.00035789
-0.000868202
-0.000810755
-0.000126706
-0.000654017
-0.000241654
-0.000620847
-0.000373309
-0.000736547
-0.0006971
-0.000128561
-0.000525456
-0.000247676
-0.000501732
-0.000386371
-0.000597852
-0.000571954
-0.000130069
-0.000395386
-0.000252558
-0.000379244
-0.000396969
-0.000453441
-0.000437404
-0.000131214
-0.000264172
-0.000256257
-0.000254202
-0.000405006
-0.000304691
-0.000295671
-0.000131985
-0.000132188
-0.000258741
-0.000127445
-0.000410408
-0.000153024
-0.000149084
-0.000132372
-0.000259988
-0.000413123
)
;

boundaryField
{
    inlet
    {
        type            calculated;
        value           nonuniform 0();
    }
    outlet
    {
        type            calculated;
        value           nonuniform 0();
    }
    cylinder
    {
        type            calculated;
        value           uniform 0;
    }
    top
    {
        type            symmetryPlane;
        value           nonuniform 0();
    }
    bottom
    {
        type            symmetryPlane;
        value           nonuniform 0();
    }
    defaultFaces
    {
        type            empty;
        value           nonuniform 0();
    }
    procBoundary27to19
    {
        type            processor;
        value           nonuniform List<scalar> 
87
(
-0.000324012
-0.00030121
-0.000278045
-0.000254523
-0.000230654
-0.000206448
-0.000181915
0.0194766
2.22818e-06
1.57814e-05
3.08131e-05
4.65039e-05
6.25856e-05
7.89562e-05
9.55662e-05
0.000112386
0.000129376
0.00014651
0.00016377
0.00018114
0.000198607
0.000216155
0.000233766
0.000251423
0.000269103
0.000286787
0.000304451
0.000322069
0.000339616
0.000357061
0.000374372
0.000391532
0.000408467
0.000425153
0.000441544
0.000457587
0.000473225
0.000488391
0.000503008
0.000516983
0.000530205
0.000542532
0.000553785
0.000563734
0.000572089
0.00057849
0.000582514
0.00058369
0.000581542
0.000575646
0.000565698
0.000551589
0.000533455
0.000511697
-0.0141575
0.00102426
0.00102924
0.00103159
0.00103118
0.00102786
0.00102145
0.00101174
0.000998485
0.000981389
0.000960157
0.000934504
0.000904204
0.00086914
0.000829359
0.000785119
-0.0090324
0.00140254
0.00136685
0.0013243
0.00127468
0.00121799
0.00115446
0.00108465
0.00100942
0.00092998
-0.00671703
0.00158571
0.00149401
0.00139353
0.00128572
0.00117248
-0.00568867
)
;
    }
    procBoundary27to26
    {
        type            processor;
        value           nonuniform List<scalar> 
58
(
-0.000346446
-0.000368503
-0.000390179
-0.000411469
-0.000432369
-0.000452873
-0.000472979
-0.000492682
-0.000511978
-0.0158456
-0.000238987
-0.00025064
-0.000262013
-0.000273117
-0.000283951
-0.000294512
-0.000304798
-0.000314809
-0.000324543
-0.000333997
-0.000343172
-0.000352064
-0.000360674
-0.000368999
-0.000377038
-0.00038479
-0.000392254
-0.000399429
-0.0104879
-0.0104879
-0.000399429
-0.000392254
-0.00038479
-0.000377038
-0.000368999
-0.000360674
-0.000352064
-0.000343171
-0.000333997
-0.000324542
-0.000314809
-0.000304798
-0.000294511
-0.00028395
-0.000273117
-0.000262013
-0.000250639
-0.000238986
-0.0158456
-0.000511977
-0.000492681
-0.000472978
-0.000452873
-0.000432368
-0.000411468
-0.000390178
-0.000368502
-0.000346445
)
;
    }
    procBoundary27to28
    {
        type            processor;
        value           nonuniform List<scalar> 
58
(
-0.000562159
-0.000556998
-0.000546744
-0.000531524
-0.000511525
-0.000486972
-0.00045812
-0.000425235
-0.000388578
-0.000348389
-0.000304873
-0.00025818
-0.000208399
-0.000928492
-3.80752e-05
5.55903e-05
0.000155095
0.0002611
0.000374171
0.00049486
0.00062353
0.000760171
0.000904194
0.00105427
0.00120827
0.00136335
0.00151619
0.00166336
0.00180172
0.00180164
0.00166328
0.0015161
0.00136326
0.00120819
0.00105419
0.000904116
0.000760102
0.000623473
0.000494816
0.000374142
0.000261084
0.000155092
5.55977e-05
-3.80587e-05
-0.000928895
-0.000208396
-0.000258174
-0.000304865
-0.00034838
-0.000388568
-0.000425225
-0.000458111
-0.000486964
-0.000511518
-0.000531518
-0.000546739
-0.000556996
-0.000562158
)
;
    }
    procBoundary27to35
    {
        type            processor;
        value           nonuniform List<scalar> 
87
(
-0.00568922
0.00117255
0.00128578
0.00139359
0.00149407
0.00158577
0.00166775
-0.00745501
0.00100945
0.00108468
0.0011545
0.00121802
0.0012747
0.00132432
0.00136687
0.00140256
0.00143168
-0.00967904
0.000829373
0.000869153
0.000904216
0.000934515
0.000960168
0.0009814
0.000998495
0.00101175
0.00102146
0.00102786
0.00103118
0.0010316
0.00102925
0.00102427
0.00101677
0.00100687
-0.015136
0.000551593
0.000565702
0.000575649
0.000581545
0.000583692
0.000582516
0.000578492
0.000572091
0.000563736
0.000553787
0.000542533
0.000530206
0.000516984
0.000503009
0.000488392
0.000473226
0.000457588
0.000441544
0.000425154
0.000408467
0.000391532
0.000374372
0.000357061
0.000339616
0.000322069
0.000304451
0.000286787
0.000269103
0.000251423
0.000233766
0.000216155
0.000198607
0.00018114
0.000163769
0.00014651
0.000129376
0.000112386
9.5566e-05
7.8956e-05
6.25855e-05
4.65038e-05
0.0199211
-0.000106613
-0.000131969
-0.000157072
-0.000181916
-0.000206449
-0.000230655
-0.000254524
-0.000278045
-0.000301211
-0.000324013
)
;
    }
}


// ************************************************************************* //
