/*--------------------------------*- C++ -*----------------------------------*\
  =========                 |
  \\      /  F ield         | OpenFOAM: The Open Source CFD Toolbox
   \\    /   O peration     | Website:  https://openfoam.org
    \\  /    A nd           | Version:  7
     \\/     M anipulation  |
\*---------------------------------------------------------------------------*/
FoamFile
{
    version     2.0;
    format      ascii;
    class       volVectorField;
    location    "0.973";
    object      U;
}
// * * * * * * * * * * * * * * * * * * * * * * * * * * * * * * * * * * * * * //

dimensions      [0 1 -1 0 0 0 0];

internalField   nonuniform List<vector> 
12359
(
(0.981172 -0.000327913 -1.51603e-16)
(0.968997 -0.00043762 2.7883e-17)
(0.999962 -6.52555e-06 5.88791e-18)
(0.93089 -0.000642648 9.07875e-18)
(0.976074 -0.00126244 -4.25605e-17)
(0.885203 0.00271924 1.12811e-16)
(0.853511 -0.00293642 6.11373e-17)
(0.873308 -0.00050649 8.80074e-17)
(0.80215 0.0140024 -5.78756e-17)
(0.895879 0.000436998 -2.89591e-18)
(0.824154 0.0105857 1.22988e-16)
(0.738904 0.0251975 4.21425e-17)
(0.349255 0.041864 -2.68206e-16)
(0.924623 0.00177504 -7.45841e-17)
(0.940109 -0.00149482 2.09404e-18)
(0.5698 0.0321149 3.33043e-17)
(0.477043 0.0341532 2.89516e-17)
(0.994663 3.90722e-05 -6.7551e-17)
(0.995218 3.70729e-05 7.01884e-17)
(0.958222 -0.000276069 4.03685e-17)
(0.919021 0.0010976 -3.90554e-17)
(0.774601 0.0195444 -1.25529e-16)
(0.962946 -0.00129243 1.44656e-16)
(0.955133 -9.85459e-05 6.5607e-17)
(0.966411 -0.000679182 1.44091e-16)
(0.959766 -0.000709672 2.0561e-16)
(0.998659 -6.75408e-05 1.97824e-17)
(0.998836 -4.45911e-05 -8.31743e-19)
(0.995934 4.08098e-05 -2.10981e-17)
(0.997934 1.23971e-05 -2.96012e-17)
(0.997416 -6.97139e-05 -1.06538e-16)
(0.99938 2.17632e-05 -8.53485e-18)
(0.999789 -1.09532e-05 -4.9366e-17)
(0.99818 -3.15377e-05 -2.88842e-17)
(0.999895 -1.69629e-06 -3.20946e-18)
(0.997268 -3.01826e-05 -9.18775e-17)
(0.988948 -0.000111812 -1.74618e-17)
(0.983031 -0.000219479 1.31066e-16)
(0.97838 -0.000726904 7.57484e-17)
(0.985122 -0.000274743 2.15107e-17)
(0.970931 -0.00119312 -2.47086e-16)
(0.984279 0.000238898 -2.51648e-17)
(0.991479 -0.000145369 -4.31134e-17)
(0.992187 -0.000193167 7.52841e-17)
(0.996482 -0.000199829 7.63809e-18)
(0.996261 -7.37989e-05 9.61135e-18)
(0.996981 -0.000123245 -7.81461e-19)
(0.997638 -9.58237e-05 -2.71584e-17)
(0.995579 0.000143778 -2.8725e-18)
(0.998428 -7.92272e-05 7.0906e-18)
(0.998971 -5.25319e-05 1.46627e-17)
(0.999162 -8.06457e-05 -4.23785e-17)
(0.999401 -3.26456e-05 3.63034e-17)
(0.994228 2.2826e-05 9.29222e-17)
(0.999591 2.18401e-05 -2.93393e-17)
(0.999717 -1.79286e-05 6.79609e-20)
(0.992905 -0.00013713 -3.79214e-17)
(0.9998 -6.16447e-06 -1.70969e-17)
(0.999811 -2.23763e-05 1.4263e-17)
(0.999876 2.17453e-05 1.99393e-19)
(0.99964 -2.54562e-05 -2.43275e-18)
(0.999925 1.1646e-05 4.2636e-17)
(0.999099 -6.41627e-05 -6.35518e-18)
(0.193383 0.0590106 -1.12483e-15)
(0.993555 -0.000115187 1.82377e-18)
(0.909842 -0.00116264 -3.71587e-17)
(0.989655 0.00021116 -3.08491e-17)
(0.999274 -1.28382e-05 -3.80666e-17)
(0.988047 -0.000608741 4.86421e-17)
(0.633177 0.0312045 3.01619e-17)
(-0.00127363 0.00490502 5.79992e-15)
(0.972985 -0.00169641 -8.94131e-17)
(0.999962 -1.89995e-05 -1.72139e-17)
(0.986539 -0.000669823 1.56943e-16)
(0.948868 -0.00245984 -2.14822e-17)
(0.999907 7.82774e-06 -2.29473e-17)
(0.999482 -2.51851e-05 3.24984e-17)
(0.999922 -2.07273e-05 2.87131e-17)
(0.989684 -0.000620559 2.03539e-17)
(0.678392 -0.00380137 -6.72048e-17)
(0.918416 0.0569709 3.33597e-17)
(1.00377 0.00283095 7.41279e-18)
(1.00003 4.45595e-06 -2.59236e-19)
(0.998366 0.012264 1.73094e-18)
(1.09642 0.14712 3.20761e-17)
(1.02214 0.00181646 2.35872e-18)
(1.00384 0.00256816 1.2042e-18)
(1.00158 -0.000204936 7.05526e-19)
(1.11375 0.0690502 3.04402e-18)
(1.08722 0.149982 2.57227e-17)
(0.999965 0.000167297 3.95195e-17)
(0.249754 0.161775 -4.91082e-16)
(1 6.03576e-06 -9.54195e-18)
(0.9997 0.00621533 -8.10008e-18)
(0.999528 0.0114014 2.66857e-18)
(1.03676 0.00208743 -3.29421e-19)
(1.00006 0.00523127 2.52108e-18)
(0.999381 0.00617982 -9.10413e-18)
(0.990885 0.0300445 1.13047e-17)
(0.994129 0.0187718 4.31275e-17)
(0.940044 0.0775923 -2.64427e-18)
(1 2.13721e-05 2.2312e-18)
(1.02099 0.00146133 -2.92769e-18)
(1.25622 0.0919865 -3.58515e-17)
(1.00489 0.00105938 -4.93939e-18)
(1.03358 0.0228462 -1.52614e-18)
(1.00025 -0.000100678 -6.04656e-18)
(1.09243 0.152812 4.98988e-17)
(1.01799 0.0012915 -1.56322e-17)
(1.03365 0.0214983 -1.87999e-18)
(1.00011 0.00505738 -2.13913e-18)
(1.00355 0.00270748 -4.94102e-20)
(0.938262 0.0465791 1.44603e-16)
(0.957588 0.07644 -8.41847e-18)
(0.998998 0.0106541 1.08157e-17)
(1.00365 0.000125311 7.14529e-18)
(0.952872 0.0781379 9.63252e-19)
(1.00461 0.00246044 -5.94339e-18)
(1.13365 0.0557479 -5.095e-18)
(0.999999 1.5719e-05 5.14373e-20)
(1.00005 0.00501396 6.35963e-18)
(0.86497 0.0264354 7.28032e-17)
(1.00176 0.000254763 3.11237e-18)
(1.03882 0.00710881 7.24894e-18)
(1.00485 0.00227107 -7.31033e-18)
(1.00328 0.000757078 1.90525e-18)
(1.00937 0.0933247 -1.61628e-18)
(0.998296 0.0126794 2.92351e-17)
(0.999993 1.0193e-05 5.09842e-17)
(1.0048 0.00211156 1.88047e-17)
(1.00251 -0.00027453 1.48292e-18)
(1.05011 0.0194623 2.58955e-18)
(1.05237 0.0183786 -7.53454e-18)
(1.05049 0.0175384 4.47408e-18)
(1.00023 6.68383e-05 3.18466e-18)
(1.03835 0.00692718 8.86144e-19)
(1.00304 0.000589611 7.19334e-18)
(1.03743 0.00765524 9.32802e-19)
(1 9.85464e-05 -6.22678e-17)
(1.00805 0.0921519 1.8051e-17)
(0.999999 2.09838e-05 6.16402e-19)
(0.982399 0.00259112 7.93294e-17)
(1.03132 0.0132976 -5.84663e-18)
(1.00025 -5.6228e-05 -2.03623e-18)
(1.0396 0.0404518 -7.35157e-18)
(0.895453 0.0284684 -9.00183e-17)
(1.00002 5.26825e-06 -1.02479e-18)
(1.08814 0.124061 3.06678e-17)
(1.00508 0.00112852 3.85207e-18)
(0.921689 0.0656194 -2.17858e-18)
(1.04127 0.00343489 -2.33109e-18)
(0.999996 2.7857e-05 4.64546e-17)
(1.03166 0.0141215 -7.18005e-18)
(1.00182 0.000112762 -7.61284e-19)
(1.00001 -4.6786e-06 1.29048e-18)
(0.580147 1.3156 3.36704e-18)
(0.934489 0.0863975 3.15245e-18)
(1.04969 0.0198134 -4.54233e-19)
(1.00008 0.00533106 -8.59572e-18)
(0.999292 0.000512056 -3.69868e-18)
(1.00261 0.0448251 1.60925e-17)
(0.999242 0.000700288 -1.29471e-17)
(1.04002 0.00579735 -2.95756e-18)
(1.03375 0.011477 -4.73085e-19)
(1.00004 3.85003e-05 2.01737e-18)
(1.00329 0.000430971 -2.37047e-18)
(1.00186 0.0443247 2.23205e-17)
(0.875657 0.0127826 -8.36236e-17)
(1.03264 0.0114095 6.76553e-19)
(1.1236 0.0652422 6.32743e-18)
(0.999996 1.78557e-05 -3.6554e-17)
(0.999956 4.30884e-05 1.56226e-17)
(1.03339 0.00949524 3.73232e-18)
(0.973329 0.00276338 9.95147e-17)
(1.00475 0.000998356 1.06231e-17)
(1.00434 0.0899388 2.42091e-17)
(0.996524 0.000486883 2.20982e-17)
(0.996623 0.000868186 -6.18443e-17)
(0.934614 0.0471939 -3.69339e-17)
(1.00441 0.0867135 2.0793e-17)
(0.936644 0.00595083 3.98967e-17)
(1.00001 3.38247e-05 3.65361e-18)
(0.999976 1.88225e-05 3.27039e-17)
(1.00408 0.00274085 1.33845e-18)
(0.991633 0.027734 6.00478e-18)
(0.853052 0.105671 2.79075e-16)
(1.00433 0.00587666 -9.53516e-20)
(1.00009 0.0106838 -1.05817e-17)
(1.03803 0.0012145 1.50758e-18)
(1.00468 0.00620343 -7.17545e-18)
(0.999607 0.0102017 9.62276e-19)
(1.03554 0.000108939 -1.84407e-18)
(1.0341 0.00102799 -8.87144e-19)
(1.00188 -0.000122813 9.87838e-19)
(1.03466 0.0201639 -3.7669e-18)
(1.12042 0.0728563 -1.05176e-17)
(1.01493 0.0125911 -6.65228e-18)
(1.00354 0.00585451 8.17423e-18)
(1.03125 0.0156627 -5.13516e-18)
(1.00462 0.0023509 -5.37557e-18)
(0.900197 0.0286399 9.39054e-18)
(1.03952 0.000675053 -5.60792e-19)
(0.993239 0.0188416 -2.14248e-18)
(1.03374 0.0210017 -3.26096e-18)
(1.03599 0.0378161 -7.78662e-18)
(1.00001 2.93437e-05 -4.94852e-18)
(1.03675 0.037509 -9.0681e-18)
(0.992174 0.0179977 1.31197e-17)
(1.04172 0.00770612 2.30974e-18)
(1.00574 0.00406916 -5.44486e-18)
(1.00001 3.01754e-05 1.07271e-18)
(1.0458 0.0160038 -6.62614e-18)
(1.04609 0.0161677 -2.73956e-18)
(1.07106 0.116514 -2.11752e-17)
(0.84073 0.0862111 2.55014e-17)
(0.999962 3.3346e-05 2.36602e-17)
(1.00384 0.0059778 -6.84758e-18)
(0.999328 0.0105467 -2.08031e-19)
(1.00422 0.00588009 1.93958e-18)
(0.981956 0.00133483 2.27891e-16)
(0.947849 0.0595874 1.57751e-17)
(1.00523 0.00364421 -2.6726e-18)
(1.03859 0.00672621 -1.29367e-19)
(0.462719 0.370787 -1.8106e-16)
(1.00515 0.00263843 -1.93552e-17)
(1.00001 3.93041e-05 -2.87706e-18)
(0.981645 0.00117447 1.93686e-16)
(1.01868 0.00158313 -1.4061e-17)
(1.00101 0.0872688 2.28184e-17)
(1.00274 0.00650286 1.24921e-17)
(1.00293 0.00640008 5.30068e-18)
(1.00004 2.96038e-06 7.74236e-19)
(1.03867 0.040718 -8.18621e-18)
(0.993002 0.0236527 -1.15765e-18)
(1.00069 0.0101907 -1.01629e-17)
(0.993885 0.0214969 3.67775e-17)
(1.00001 2.44669e-05 -5.77757e-19)
(1.0323 0.0160944 2.83062e-18)
(1.00052 0.0103804 -1.67966e-17)
(0.629932 0.254947 1.03449e-16)
(1.00007 3.35128e-05 8.72678e-19)
(1.02351 0.00165708 -1.52361e-18)
(1.00013 0.00759812 -8.8015e-18)
(0.98521 0.165578 6.02178e-17)
(1.00395 0.0486054 -1.37959e-17)
(1.08978 0.124926 2.87299e-17)
(0.999857 5.05902e-05 2.60144e-17)
(1.04115 0.00715956 -1.41866e-18)
(1.00405 0.0013888 3.25994e-18)
(1.034 0.00465587 -3.08574e-18)
(1.04331 0.0131342 -5.24625e-18)
(0.985308 0.000309145 1.41084e-16)
(0.996906 0.000683385 8.24036e-18)
(1.00246 0.0062533 7.36397e-18)
(0.505157 0.434969 9.95987e-17)
(1.24121 0.142182 6.00816e-17)
(0.999989 9.71159e-06 2.22455e-18)
(1.00576 0.00307161 -6.1006e-18)
(0.361843 0.307976 1.69564e-16)
(0.479834 0.0134089 9.92247e-17)
(0.993522 0.0188932 1.4047e-17)
(1.00222 0.0485163 6.19818e-19)
(1.00241 0.0797804 -1.17703e-17)
(1.03456 0.0188562 -1.17122e-18)
(0.972828 0.00125402 2.24655e-16)
(1.3495 0.368905 2.91836e-17)
(1.12093 0.0561158 6.37409e-19)
(1.00422 0.0492152 -6.19245e-18)
(1.00547 0.00273038 -2.43432e-18)
(1.03778 0.00757037 5.7548e-18)
(1.03334 0.0106414 4.29995e-18)
(0.987987 0.0267223 1.07565e-17)
(1.03287 0.0128146 -6.67198e-19)
(1.0024 0.00684073 6.14834e-19)
(1.00566 0.00321232 -2.41138e-18)
(1.00005 1.79954e-05 -4.92395e-19)
(1.00558 0.00289618 -6.93583e-18)
(1.15708 0.107701 4.10662e-17)
(1.00502 0.0527187 -2.57828e-17)
(1.00035 0.00014432 6.06183e-19)
(0.999998 4.6821e-05 1.25662e-17)
(1.03496 0.0187085 1.41493e-18)
(1.00713 0.00105086 3.21865e-18)
(0.991055 0.000604174 7.46677e-17)
(1.02249 -0.00139968 -1.18399e-18)
(1.00001 2.58832e-05 -2.49482e-18)
(0.999564 0.0778829 1.38222e-17)
(1 1.25689e-05 -1.38477e-17)
(1 -1.4337e-05 -1.82377e-17)
(0.99946 0.000109165 6.00484e-17)
(1.0392 0.00623582 1.8976e-18)
(1.0041 0.00225708 -3.94314e-18)
(1.41537 0.437155 3.99612e-17)
(1.00022 6.06671e-05 4.22989e-18)
(1.00037 -5.21439e-06 -1.56552e-18)
(1.02155 0.00167426 4.51686e-18)
(1.0043 -0.000374704 4.12601e-18)
(0.944692 0.0703552 3.1592e-18)
(0.998943 0.00948317 -1.83719e-17)
(0.99905 0.000265654 -1.43958e-16)
(0.999968 3.74067e-05 -1.0936e-17)
(1.15354 0.0955188 3.11395e-17)
(1.00318 0.0796646 6.13729e-18)
(0.999969 4.83596e-05 -3.18665e-19)
(1.00378 0.00596932 1.94867e-18)
(0.999782 0.0089365 -1.65722e-18)
(1.00447 0.00101731 -8.31556e-18)
(1.00315 0.000781656 5.3645e-18)
(1.00299 -0.000457635 2.52129e-18)
(1.00441 0.000751582 2.8209e-18)
(0.995379 0.00138253 5.38603e-17)
(0.817654 0.0635062 -1.02242e-16)
(1.0047 -0.0011433 -2.51908e-18)
(0.997788 3.55754e-05 2.2959e-16)
(0.986162 0.00116894 4.10526e-17)
(1.02554 0.0276572 9.46073e-18)
(1.10239 0.0424655 1.06425e-17)
(1.0053 0.000313976 -3.42598e-18)
(0.99005 0.0251384 -4.31745e-18)
(0.570093 0.0593774 1.58059e-16)
(0.999995 7.6962e-06 6.98245e-18)
(1.02751 0.0128005 -4.02814e-18)
(1.00048 0.000276575 -1.1478e-18)
(1.01448 0.0128069 -7.93941e-18)
(1.00025 7.66539e-05 -3.64767e-18)
(1.00569 0.00107243 3.20842e-18)
(0.795693 0.0394771 1.15251e-16)
(1.02824 0.0143766 1.2736e-17)
(0.82743 0.089252 -1.33255e-16)
(0.991255 0.000401091 -1.37396e-16)
(1.00065 0.008093 -5.55368e-18)
(1.03526 -0.000463137 8.85777e-19)
(1.03911 0.000805604 1.15626e-18)
(1.00058 0.00802155 3.67735e-18)
(1.03679 0.000129348 1.62028e-18)
(1.03507 -0.000844859 4.43271e-19)
(1.00077 0.000189515 -5.25196e-18)
(0.999576 0.000429401 1.28969e-18)
(0.999576 0.000364765 3.06993e-19)
(0.999559 0.000399962 3.57002e-17)
(0.999547 0.000349308 5.16038e-17)
(0.687299 0.279368 1.65344e-16)
(1.00003 4.37152e-05 -4.90676e-19)
(0.9402 0.0768138 -2.60827e-17)
(1.04205 0.0046202 7.37401e-20)
(0.992958 0.0258863 -5.20453e-18)
(1.03313 0.0133277 -1.931e-18)
(1.02832 0.0158927 9.98906e-18)
(1.02079 0.00236249 -8.98572e-19)
(1.01362 0.012436 2.18033e-18)
(1.02894 0.0140533 7.08324e-18)
(1.01352 0.012474 -5.93039e-19)
(0.991294 0.0269259 -1.61229e-17)
(1.02737 0.0285072 1.96466e-17)
(1.02649 0.0328072 7.7382e-19)
(0.955915 0.0509501 4.33058e-20)
(0.981049 0.00213135 2.23882e-17)
(1.03259 0.081487 -5.54795e-18)
(0.982838 0.00178119 2.62902e-17)
(0.982777 0.0011429 9.0158e-17)
(1.03062 0.0163368 -1.23452e-17)
(0.941739 0.0974722 -1.59092e-17)
(1.00315 0.00270359 -5.83592e-18)
(0.999604 9.3844e-05 -5.44835e-17)
(1.01629 0.0118033 5.82131e-18)
(0.999653 3.77504e-05 4.05184e-18)
(1.0034 0.00308799 9.44595e-19)
(0.746685 0.0189844 7.44593e-18)
(0.128191 0.0977831 -2.29425e-16)
(1.00327 0.00283832 -2.60096e-18)
(0.999983 6.00172e-06 -3.03844e-17)
(1.00019 1.2107e-05 -8.01257e-19)
(0.999988 2.36243e-05 -1.03578e-17)
(1.02907 0.013287 1.83389e-19)
(1 2.5834e-05 2.49708e-18)
(0.999996 1.88526e-05 -1.98331e-18)
(1.11992 0.0734535 1.35372e-17)
(1.03376 0.0118353 -2.15191e-18)
(1.08279 0.176211 -1.06312e-17)
(1.00155 0.00324539 1.55341e-19)
(1.03568 0.0134966 3.02928e-18)
(1.00725 0.00114358 1.60539e-17)
(1.00007 0.00889348 -5.94218e-18)
(1.0315 0.0291825 4.26074e-18)
(1.01646 0.011103 6.27216e-18)
(0.934946 0.00446737 -1.16982e-17)
(1.01614 0.0100652 -2.96211e-18)
(1.00299 0.00261739 8.72294e-18)
(1.00042 2.47832e-05 2.70377e-18)
(1.03383 0.0104942 3.94068e-18)
(1.03653 0.0133547 5.07449e-18)
(1.00572 0.000870122 -4.81776e-18)
(0.707675 0.0188349 1.48556e-16)
(1.03199 0.0285303 5.90531e-18)
(1.03968 0.00226954 8.00977e-20)
(0.998217 0.0351512 -1.24806e-17)
(1.0009 0.0425887 -1.09095e-17)
(0.99999 0.000113833 7.69746e-18)
(0.422796 0.555306 -1.92795e-16)
(1.03514 0.0823981 6.75069e-18)
(1.00133 0.00356404 3.28247e-18)
(0.971427 0.182355 -1.14465e-17)
(0.98485 0.00129857 -1.06225e-16)
(0.999972 6.64446e-05 4.95324e-18)
(1.00001 2.58495e-05 2.84097e-19)
(0.999989 5.16771e-05 -2.53083e-19)
(1.09004 0.171004 -3.15003e-18)
(0.945133 0.0951725 1.82799e-18)
(0.988497 0.0285927 -2.3378e-17)
(1.02832 0.0108532 -5.37888e-18)
(1.04095 0.00298783 6.32992e-19)
(0.999238 0.0114173 -1.93969e-17)
(0.935182 0.00814636 -9.22913e-17)
(0.999103 0.0348784 3.2002e-18)
(1.04683 0.017683 1.87825e-18)
(1.1164 0.0479072 -1.40671e-17)
(0.712308 0.0420535 -8.03701e-17)
(0.994281 0.0257536 -6.96382e-18)
(0.955065 0.0526821 3.13589e-18)
(1.01887 -0.000970281 -3.56027e-18)
(1.02586 0.0369343 -3.39998e-18)
(1.01188 0.0112711 -4.05961e-18)
(1.01639 0.0123241 3.37978e-18)
(0.998287 0.000227435 -3.77248e-17)
(1.01205 0.0112487 3.13531e-18)
(1.03126 0.0125094 1.19474e-19)
(0.99999 1.50463e-05 -2.3329e-18)
(0.645276 0.00613894 6.44044e-17)
(0.990557 0.00127022 1.72164e-16)
(1.05561 0.00575879 1.4421e-18)
(1.0373 0.0108133 8.64599e-19)
(0.993473 0.00114355 1.3049e-16)
(0.950876 0.0593863 -4.86519e-17)
(1.16299 0.250312 -6.74427e-19)
(1.02959 0.0153291 1.91369e-18)
(1.00876 0.0161053 1.22581e-17)
(1.03626 0.00123064 2.94282e-18)
(1.03703 0.0111598 3.02761e-18)
(1.02881 0.0332192 -3.6365e-18)
(1.00455 0.00272901 3.91632e-18)
(1.00001 4.65645e-06 -5.54298e-19)
(0.994894 0.0702564 1.22512e-17)
(1.00028 7.55541e-05 -1.33855e-18)
(1.05084 0.019901 2.64758e-18)
(1.00263 0.000143371 3.83132e-18)
(0.966807 0.00298303 2.25766e-16)
(0.962604 0.0410008 1.03258e-17)
(1.01125 0.000501777 -4.06382e-18)
(1.09644 0.115593 -2.97277e-17)
(0.943508 0.0717393 -3.69324e-17)
(0.994461 0.0172579 -6.9197e-18)
(1.00099 0.00384272 -8.04656e-18)
(0.573412 0.108344 -3.96371e-16)
(1.00057 -0.000125867 -7.30041e-18)
(1.00149 0.00301543 3.98652e-18)
(1.04293 0.0426121 -1.60417e-17)
(0.999984 2.1076e-05 -5.12966e-17)
(1.0011 0.00401504 -2.21316e-18)
(1.00161 0.00280486 -1.09977e-18)
(0.732123 0.221737 -1.10823e-18)
(0.655638 0.474437 -6.84266e-17)
(0.998299 0.0118269 4.64052e-18)
(1.00157 -3.60608e-06 -3.94018e-18)
(0.935867 0.0332886 5.12531e-17)
(0.9997 0.0427347 -1.67335e-17)
(1.02823 0.0115562 -1.03641e-17)
(1.03177 0.0158392 2.02975e-18)
(1.03284 0.0114363 -1.76611e-18)
(1.00078 -0.000108948 -5.71341e-18)
(0.999996 3.7619e-05 -1.81113e-18)
(0.999899 0.0372885 -5.30342e-18)
(0.999989 8.26225e-06 -1.88376e-17)
(0.962927 0.0429501 1.84373e-17)
(1.02788 0.0121013 -9.05923e-18)
(1.02596 0.0357029 -1.04433e-18)
(0.996716 0.000725326 6.29657e-17)
(0.996234 0.0682803 -6.14452e-18)
(1.04521 0.0413987 -5.11978e-18)
(0.997998 0.000109923 -5.06349e-17)
(1.00149 0.0116136 -1.4881e-17)
(1.00597 0.00122299 -4.28299e-18)
(0.93158 0.0447277 -1.76786e-17)
(1.04322 0.0434993 -1.93498e-17)
(0.999989 6.33443e-05 -3.31178e-17)
(1.00039 0.0391417 2.40152e-18)
(1.0338 0.00832108 5.6341e-18)
(1.01641 1.78522e-05 -2.10777e-18)
(0.999424 0.0404697 -8.70731e-18)
(1.0033 0.000697307 -5.88671e-18)
(0.928775 0.0955063 3.39308e-17)
(1.02776 -0.000628096 -2.10168e-18)
(1.03753 0.00888675 3.29422e-19)
(1.02705 0.0334629 1.70412e-18)
(1.00097 -0.000205658 2.76749e-18)
(1.00123 0.012243 5.4969e-18)
(1.05363 0.0635413 -1.45488e-19)
(1.05273 0.0178077 4.46051e-18)
(0.999996 1.86917e-05 5.12195e-19)
(1.01127 0.0164928 -3.37988e-19)
(0.985927 0.177629 3.03121e-17)
(1.03853 0.00263983 7.58103e-19)
(0.510975 0.464876 -7.21542e-17)
(1 2.64707e-05 1.11041e-18)
(1.00241 0.000379245 8.09966e-18)
(1.00077 -1.48293e-05 -2.82137e-18)
(1.03207 0.0144312 -1.36538e-18)
(0.99428 0.019079 -1.30376e-17)
(0.99587 0.0134536 2.19768e-17)
(1.0029 0.000352211 -2.52886e-18)
(0.998938 0.0371606 8.0546e-18)
(1.01736 0.0129029 -1.7039e-18)
(0.972725 0.00448234 -2.37508e-17)
(1.00913 0.00136583 2.08635e-18)
(1.08199 0.0944484 -1.14139e-17)
(1.0003 -5.65119e-06 -9.1263e-20)
(1.08656 0.107248 -2.4087e-18)
(1.0015 -3.26088e-05 -6.10441e-20)
(0.626272 0.588348 5.49623e-17)
(1.02928 0.00110681 -4.05523e-18)
(1.05066 0.0661609 1.4835e-17)
(0.999874 3.05223e-05 -4.38701e-18)
(0.996995 0.00070925 2.33194e-17)
(1.02595 0.0284046 1.23679e-17)
(1.00394 0.00220519 3.75902e-18)
(0.999151 0.000174067 -6.62704e-17)
(0.992265 0.000263205 -1.81205e-16)
(0.994508 0.0209492 2.17148e-17)
(0.994211 0.0201497 -1.08789e-17)
(0.965646 0.158475 8.00647e-18)
(1.03365 0.0333963 4.07742e-19)
(1.03418 0.0326357 3.01463e-18)
(1.00001 9.20731e-06 3.21598e-18)
(1.00433 0.00216144 -5.09667e-18)
(1.0278 0.0133674 -1.90268e-19)
(1.05157 0.0166731 -6.51508e-19)
(1 -6.99589e-06 -2.35005e-18)
(1.0003 0.000101454 -4.24796e-18)
(1.03408 0.00952898 1.26895e-18)
(1.00071 4.54804e-06 2.66036e-18)
(0.803813 0.0485358 -1.14838e-16)
(1.16502 0.25098 -9.53462e-18)
(1.06976 0.000671524 1.39108e-17)
(1.00001 5.57023e-06 2.33402e-18)
(1.0066 0.00948353 1.31321e-17)
(1.04369 0.0128216 -2.42792e-18)
(0.99522 0.0147309 -3.34749e-19)
(1.00444 0.00078399 4.3447e-19)
(0.354987 0.662401 1.66306e-16)
(1.0003 2.46705e-05 -8.87816e-18)
(0.929105 0.0773163 -2.62561e-17)
(0.959588 0.0482699 -1.14026e-17)
(1.00716 0.00956506 -7.99679e-19)
(1.00454 0.000868331 -5.14993e-18)
(0.998938 0.000199806 -9.15066e-17)
(1.01092 0.000810437 4.52309e-18)
(1.04262 0.00383603 6.9574e-20)
(1.0172 0.00871268 -5.54286e-18)
(0.997011 0.011569 1.6784e-17)
(0.999996 5.46947e-06 9.72307e-19)
(0.999985 2.26876e-05 -1.14614e-17)
(0.994753 0.0177015 1.14334e-17)
(0.996471 0.00141935 -5.63069e-17)
(0.992679 0.0600559 1.28904e-17)
(1.03245 0.0140497 1.45509e-18)
(0.999371 -2.81942e-05 -1.07218e-16)
(1.00032 0.000194964 2.38925e-18)
(1.02743 0.0304981 1.35361e-17)
(0.670012 -0.0110812 9.45326e-17)
(0.997788 0.000207212 -2.1225e-16)
(1.04674 0.0173131 -2.37558e-18)
(1.00017 -2.48364e-05 3.57616e-18)
(0.996287 0.0116069 1.60217e-17)
(0.951149 0.0824135 4.67161e-17)
(1.04057 0.00182589 -1.27843e-18)
(1.04307 0.0128321 -1.17254e-18)
(0.951615 0.054674 4.96659e-17)
(1.00253 0.0193838 3.75424e-18)
(1.04212 0.00564746 2.65839e-18)
(1.00001 3.82059e-05 1.3723e-18)
(0.999918 2.041e-05 -2.4341e-17)
(1.04212 -0.000264918 -1.64095e-18)
(1.01082 0.00986897 -2.47415e-19)
(1.00293 0.0197132 -1.61655e-21)
(1.01103 0.00977896 -5.59471e-18)
(0.999997 4.365e-05 3.17202e-18)
(1.00035 0.000188783 1.9724e-18)
(1.00363 0.000881021 -1.15002e-18)
(0.999652 0.0308601 -1.12654e-17)
(1.04213 0.00763341 2.34661e-18)
(0.943475 0.0397281 -3.6748e-17)
(0.990045 0.000780794 -8.95592e-17)
(0.928881 0.0369749 6.45489e-17)
(1.0308 0.0147863 -5.55403e-18)
(1.00845 0.0178038 1.71635e-18)
(0.936617 0.0449581 9.25183e-17)
(0.985494 0.0216328 -3.3924e-17)
(1.05212 0.00392611 3.35636e-18)
(1.03314 0.0132361 -2.88475e-19)
(0.985062 0.0214379 1.17113e-17)
(0.993948 0.0586034 -2.63074e-18)
(0.999896 8.78499e-05 3.40239e-17)
(1.01012 0.0664744 8.5787e-18)
(1.0268 0.0277003 1.11294e-17)
(1.00002 -1.32452e-05 1.99964e-18)
(0.999994 8.81659e-06 7.07304e-18)
(1.00069 1.16982e-06 2.75053e-18)
(0.99976 0.000305121 -1.10413e-17)
(1.06268 0.071542 -9.86465e-18)
(1.01057 0.0171006 2.00921e-18)
(1.01399 -0.000469906 2.77291e-18)
(0.941578 0.0437113 -4.85809e-17)
(0.992095 0.000372082 -5.20476e-17)
(0.791053 0.0186648 4.70194e-17)
(1.0395 0.00245728 6.91104e-19)
(1.04167 0.00452992 -9.58287e-19)
(1.00386 0.000623127 -1.43635e-17)
(1.04967 0.0420927 -4.54994e-18)
(1 4.09082e-05 -9.26442e-19)
(0.998296 0.0305453 -1.00196e-17)
(1.00051 0.00374096 -2.32592e-18)
(0.935391 0.114028 -3.39054e-17)
(0.932519 0.0510713 -1.44684e-16)
(1.00197 0.0169525 -6.35026e-18)
(1.01736 0.0120802 -3.04519e-18)
(0.418548 0.674979 1.953e-16)
(1.03087 0.0131378 -5.97349e-18)
(1.04231 0.0638238 5.34765e-18)
(1.00962 0.0129878 1.43865e-18)
(0.977247 0.146536 4.24983e-17)
(1.15172 0.207907 -6.56569e-18)
(1.00105 -4.95688e-05 3.58749e-18)
(0.998248 0.00348134 -9.26634e-19)
(1 1.39264e-05 1.21636e-18)
(1.05758 0.0674852 -1.02737e-17)
(0.998446 0.00317291 -1.22433e-17)
(1.01644 0.00959122 -7.93553e-18)
(1.09785 0.111033 -1.80206e-17)
(1.00032 0.000160655 -3.73115e-18)
(0.972095 0.00327916 -2.69051e-17)
(0.991151 0.0523222 9.44999e-18)
(1.00706 0.0153339 7.47453e-18)
(0.997593 0.000234971 -3.67597e-16)
(1.00181 0.0174198 -1.94295e-17)
(0.99938 0.0008621 1.87095e-17)
(0.994904 0.0157391 -1.35198e-18)
(0.999381 0.000633919 2.3062e-18)
(0.999392 0.000975416 -2.06703e-18)
(0.995513 0.0136888 1.49898e-17)
(1.03893 0.00721043 1.21141e-18)
(1.03515 0.0086545 3.1323e-18)
(1.00689 0.0169824 1.60698e-17)
(0.660663 0.0463374 1.74927e-17)
(1.04031 0.00305081 1.34879e-19)
(0.273395 0.256936 -1.64251e-16)
(1.02997 0.0153506 -6.3545e-18)
(1.02256 0.000480947 -5.08753e-18)
(0.995205 0.0149028 -1.24089e-17)
(1.0289 0.015438 1.78382e-18)
(0.992163 0.0266527 7.80486e-18)
(1.03587 -0.000279301 -7.52509e-19)
(0.570146 0.378208 -1.30896e-16)
(0.949606 0.0352082 -4.05506e-19)
(0.992968 0.024829 -1.74927e-17)
(1.00455 0.023369 -1.93798e-18)
(0.995108 0.00104678 1.23165e-17)
(0.996358 0.00103285 -5.62263e-18)
(1.02618 0.0304786 -2.54385e-18)
(0.999997 2.30853e-05 2.01049e-18)
(1.06214 -0.0185541 -1.03365e-17)
(0.999529 3.91867e-06 5.57681e-17)
(0.946747 0.0388211 1.03138e-17)
(0.998093 0.0754797 1.20604e-17)
(1.06202 0.0649708 -1.26515e-17)
(1.03984 0.0271205 -2.38427e-18)
(1.03528 0.0154582 1.20038e-18)
(0.992447 0.0506583 1.17098e-17)
(1.00922 0.0131472 1.49562e-17)
(1.039 0.0274689 1.17277e-18)
(0.971339 0.0311025 -3.65331e-18)
(1.04216 0.0638335 -1.15871e-17)
(1.00801 0.022541 -2.86668e-18)
(1.04478 0.0413966 -1.33917e-17)
(1.00537 0.0234154 -1.48593e-17)
(1.00001 2.19543e-05 -1.31661e-18)
(0.998574 0.026309 -3.17449e-18)
(0.63289 0.0534819 8.44957e-17)
(0.972866 0.135955 3.90178e-18)
(1.00657 0.00553501 -1.87128e-18)
(1.00005 -3.14999e-05 -1.42206e-18)
(0.999325 0.000170985 -1.09034e-16)
(0.994524 0.00773266 5.47e-18)
(0.967966 0.00318191 -2.03392e-16)
(1.03548 0.00785894 3.30582e-18)
(1.02859 0.00171009 -1.1251e-18)
(1.00078 1.18505e-05 -8.114e-19)
(1.00495 0.00699347 8.27726e-18)
(0.993219 0.0277393 2.51151e-18)
(1.00652 0.00541144 3.77744e-19)
(1.00924 0.00113598 4.13074e-18)
(1.0461 0.0366772 7.93033e-18)
(0.99376 0.0014076 -2.2067e-17)
(0.991348 0.0353134 3.29916e-18)
(1.03724 0.0166793 1.08929e-17)
(1.00512 0.00662342 4.62604e-18)
(1.00796 0.00683769 5.19895e-18)
(0.941441 0.0641214 3.46176e-17)
(1 -1.34795e-05 1.61185e-18)
(0.993396 0.00548435 7.89408e-18)
(1.29157 0.188535 3.36956e-17)
(0.999895 3.22697e-05 1.60244e-16)
(1.04019 0.0394814 -4.48717e-18)
(0.996463 0.0734542 1.84301e-17)
(1.00779 0.00688332 1.2016e-18)
(0.959427 0.045756 1.56175e-17)
(1.03686 0.0158146 1.01654e-17)
(0.997852 0.0262076 -1.33492e-17)
(1.02935 0.0353399 -6.81934e-19)
(0.999635 0.00319365 5.79556e-18)
(0.936584 0.0372691 -9.82673e-18)
(1.00543 0.000324767 -1.92802e-18)
(1.03411 0.0029305 -9.41289e-19)
(1.03579 0.0159876 6.76633e-18)
(0.937392 0.0425015 1.60867e-17)
(0.999795 0.00322565 1.41839e-18)
(1.04272 0.00536699 5.00209e-18)
(1.05398 0.0240748 -1.14529e-17)
(0.992027 0.0347075 8.84319e-18)
(1.00615 0.0134972 -1.04272e-17)
(1.00468 0.00309329 -4.58602e-18)
(1.0118 0.0657105 6.36984e-18)
(0.790391 0.203672 5.6606e-18)
(0.995558 0.000908196 4.91889e-18)
(0.999959 3.49371e-05 -3.50146e-17)
(0.993873 0.0256053 -2.4092e-18)
(0.999994 -2.59932e-06 -7.89569e-18)
(1.14997 0.210218 2.82201e-17)
(1.00645 0.0233424 1.35459e-17)
(1.03656 0.0892542 6.16743e-19)
(1.01618 0.00759451 -1.12229e-17)
(1.02766 0.00182416 1.1777e-18)
(0.252659 0.136631 -9.46684e-16)
(1.00652 0.0160968 -5.74607e-18)
(1.08484 0.206378 -2.60284e-17)
(1.03528 0.00805644 4.11864e-18)
(0.983619 -0.00308776 1.77733e-17)
(1.02861 0.0129898 -6.45821e-19)
(0.99687 0.0121916 9.66838e-18)
(1.00656 0.0146952 -2.64086e-18)
(1.01579 -0.000827854 -2.48294e-18)
(1.09075 0.0998982 -1.55749e-17)
(1.08294 0.093989 -1.60289e-17)
(1.00117 -0.000288233 -6.57682e-18)
(1.00145 0.000295467 -2.19945e-18)
(0.9259 0.0462778 -2.46615e-16)
(1.00214 -0.000216476 3.74023e-18)
(0.687139 0.397523 -1.37999e-17)
(1.02799 0.032846 -9.62122e-18)
(0.966649 0.168679 2.58786e-17)
(1.00432 0.00306863 -3.43694e-18)
(0.0806394 0.303536 -4.77641e-16)
(1.12597 0.234555 1.58136e-17)
(1.00587 0.022967 -1.17375e-17)
(0.999992 1.08662e-05 3.75953e-18)
(0.999904 0.00280547 -3.49363e-19)
(0.953718 0.0305207 4.3054e-17)
(0.994268 0.00811408 -2.54163e-18)
(0.989415 0.000195605 -5.77317e-17)
(0.996959 0.00986975 -9.45467e-19)
(1.03144 0.0126057 2.11184e-18)
(0.972114 0.0310449 2.94627e-18)
(1.08273 -0.0215159 -2.96245e-18)
(0.631114 0.0324292 -1.92868e-16)
(1.00074 3.23962e-05 -8.12524e-18)
(0.965737 0.0362483 2.64213e-17)
(1.03347 0.0306675 -3.27494e-20)
(0.926865 0.0550544 3.59527e-17)
(1.00467 0.013018 9.50455e-18)
(0.930193 0.0780253 3.24975e-17)
(1.03747 0.00921973 1.69883e-18)
(0.952407 0.0356554 -1.96036e-17)
(0.997326 0.000630633 2.36785e-17)
(1.00006 -1.16556e-05 7.43099e-19)
(1.03807 0.0256763 -3.3855e-18)
(1.04055 0.0267517 -1.5253e-18)
(1.02934 0.00205279 -1.51392e-18)
(0.925076 0.0386883 -1.74207e-17)
(1.03468 0.0895385 -1.57819e-18)
(1.02139 0.0005809 -5.10775e-18)
(0.997311 0.0249871 -1.01424e-17)
(1.00044 0.00408639 -3.02072e-18)
(1.00976 0.00873405 7.8969e-19)
(0.789491 0.0284829 -1.87415e-16)
(1.0097 0.00900614 -1.13544e-17)
(1.03501 0.0219556 -6.36003e-18)
(0.982344 0.0415648 2.15543e-19)
(1.02696 0.0101663 -2.18613e-18)
(1.01219 0.000236721 1.64494e-17)
(0.996311 0.0116132 -5.09563e-18)
(1.053 0.0230275 1.37072e-18)
(1.0154 0.00740328 -1.63759e-18)
(1.00517 0.0134962 1.4518e-17)
(1.07759 -0.0300148 -1.57414e-18)
(0.990953 0.0304413 -1.36993e-17)
(1.02043 0.000822659 6.65086e-18)
(0.798189 0.33619 -1.06468e-16)
(1 7.68205e-06 -8.3046e-19)
(1.01564 0.0082598 -1.74473e-18)
(0.998947 0.0215832 1.00143e-18)
(0.992225 0.00724376 -4.26261e-18)
(1.00326 0.000337665 1.846e-17)
(0.998061 0.0245858 -8.93384e-18)
(1.00002 -6.23451e-06 -1.64012e-18)
(1.04437 0.108047 -9.20052e-18)
(1.00566 0.000819833 -3.00099e-18)
(0.971833 0.00465475 7.23877e-17)
(1.03561 0.0348358 3.10591e-18)
(0.95065 0.0498809 3.24371e-17)
(1.01695 0.0102615 1.33738e-19)
(1.01641 0.00847076 -7.89635e-18)
(1.03685 0.0250358 1.93409e-18)
(1.06308 0.113329 5.05192e-17)
(0.999854 6.61001e-05 -2.07509e-17)
(0.99287 0.000698357 1.42443e-17)
(1.02164 3.70371e-06 -5.66523e-18)
(1.10085 0.202925 3.82819e-17)
(1.04015 0.0261645 1.40534e-18)
(0.999866 0.00301181 2.32109e-18)
(0.240566 0.100451 -1.02005e-15)
(1.00005 1.44998e-05 -1.50192e-18)
(1.00495 0.00144541 -3.17108e-18)
(0.692996 0.00900321 -4.95592e-17)
(0.994585 0.00507206 4.00447e-18)
(0.999629 0.00335253 -9.52892e-19)
(0.99953 0.00361073 8.12869e-18)
(0.983357 0.0385861 -1.48619e-17)
(0.95849 0.0290862 2.69025e-17)
(0.999866 2.9297e-05 -1.09617e-16)
(0.9935 0.00643456 -8.6074e-19)
(0.938315 0.0676389 -2.05482e-17)
(0.998254 0.0214978 -9.73303e-18)
(0.996031 0.0178123 1.13232e-17)
(0.99661 0.00958191 1.07725e-17)
(1.00105 5.07658e-05 -2.19014e-18)
(0.957622 0.0315437 -9.31894e-17)
(1.06538 0.0607871 -1.69108e-17)
(0.994994 0.0159677 1.35878e-17)
(0.928453 0.0321726 3.07949e-17)
(1.03478 0.00721651 3.692e-18)
(1.0363 0.00509754 2.44483e-19)
(1.03974 0.105156 -1.48398e-17)
(1.03242 0.0310138 4.31072e-18)
(0.99648 0.00961884 -6.93378e-18)
(1.0052 0.0015719 -2.77542e-18)
(1.08462 0.104195 4.20754e-18)
(1.03997 0.00619685 -2.99434e-18)
(0.975366 0.0255941 5.68849e-18)
(1.00077 0.00406794 -7.71931e-18)
(0.999725 0.000213833 3.22769e-18)
(0.927244 0.0128099 -3.09773e-16)
(1.04906 0.0429735 -1.22526e-18)
(1.0146 0.00677704 1.49542e-18)
(1.01059 0.0505259 4.54137e-18)
(1.01493 0.007808 4.4605e-18)
(0.997072 0.00999216 7.0966e-18)
(1.0057 0.00454717 -7.75008e-18)
(0.964798 0.0363147 -2.58237e-17)
(0.809538 0.0191036 -2.95251e-17)
(0.3022 0.456278 1.85437e-16)
(0.966382 0.0393959 1.813e-17)
(0.998898 0.0183061 -1.97944e-18)
(1.00544 0.00455659 1.30205e-20)
(0.968845 0.0338573 -1.74532e-17)
(0.565258 0.316441 7.60642e-17)
(0.935346 0.0327358 -2.14549e-16)
(0.999909 0.0030368 -2.02048e-18)
(1.04722 0.0355298 2.83312e-18)