/*--------------------------------*- C++ -*----------------------------------*\
  =========                 |
  \\      /  F ield         | OpenFOAM: The Open Source CFD Toolbox
   \\    /   O peration     | Website:  https://openfoam.org
    \\  /    A nd           | Version:  7
     \\/     M anipulation  |
\*---------------------------------------------------------------------------*/
FoamFile
{
    version     2.0;
    format      ascii;
    class       surfaceScalarField;
    location    "2.1";
    object      phi;
}
// * * * * * * * * * * * * * * * * * * * * * * * * * * * * * * * * * * * * * //

dimensions      [0 3 -1 0 0 0 0];

internalField   nonuniform List<scalar> 
39700
(
-6.10088e-12
2.40032e-12
-1.4028e-11
7.98086e-12
-2.26147e-11
8.55303e-12
-2.84123e-11
5.8082e-12
-2.97132e-11
1.31049e-12
-2.56269e-11
-4.09032e-12
-1.57599e-11
-9.86629e-12
-3.90471e-14
-1.57182e-11
2.13628e-11
-2.14062e-11
4.82752e-11
-2.69203e-11
8.04087e-11
-3.21324e-11
1.17417e-10
-3.69996e-11
1.58919e-10
-4.1498e-11
2.04521e-10
-4.56078e-11
2.53834e-10
-4.9318e-11
3.06461e-10
-5.2627e-11
3.62004e-10
-5.55374e-11
4.20061e-10
-5.80522e-11
4.80236e-10
-6.01758e-11
5.42145e-10
-6.19132e-11
6.05416e-10
-6.3273e-11
6.69686e-10
-6.42679e-11
7.34601e-10
-6.4911e-11
7.99817e-10
-6.52138e-11
8.65003e-10
-6.51865e-11
9.29844e-10
-6.48417e-11
9.94038e-10
-6.41937e-11
1.0573e-09
-6.32585e-11
1.11935e-09
-6.2052e-11
1.17994e-09
-6.05883e-11
1.23882e-09
-5.88813e-11
1.29577e-09
-5.69451e-11
1.35056e-09
-5.47951e-11
1.40301e-09
-5.24481e-11
1.45293e-09
-4.99199e-11
1.50016e-09
-4.72251e-11
1.54454e-09
-4.43778e-11
1.58593e-09
-4.1392e-11
1.62421e-09
-3.82821e-11
1.65928e-09
-3.50632e-11
1.69103e-09
-3.17495e-11
1.71938e-09
-2.83538e-11
1.74427e-09
-2.48891e-11
1.76564e-09
-2.13679e-11
1.78344e-09
-1.78016e-11
1.79765e-09
-1.42028e-11
1.80823e-09
-1.05836e-11
1.81519e-09
-6.95457e-12
1.81851e-09
-3.32611e-12
1.81822e-09
2.91348e-13
1.81433e-09
3.88817e-12
1.80688e-09
7.45507e-12
1.7959e-09
1.09824e-11
1.78144e-09
1.4461e-11
1.76356e-09
1.78827e-11
1.74232e-09
2.12394e-11
1.71779e-09
2.45231e-11
1.69007e-09
2.77251e-11
1.65923e-09
3.08375e-11
1.62538e-09
3.38529e-11
1.58862e-09
3.67635e-11
1.54906e-09
3.95612e-11
1.50682e-09
4.22383e-11
1.46203e-09
4.47869e-11
1.41484e-09
4.71989e-11
1.36537e-09
4.94656e-11
1.31379e-09
5.15785e-11
1.26026e-09
5.3529e-11
1.20496e-09
5.53075e-11
1.14806e-09
5.69042e-11
1.08975e-09
5.83093e-11
1.03023e-09
5.95126e-11
9.69733e-10
6.0503e-11
9.08466e-10
6.12687e-11
8.46669e-10
6.17979e-11
7.84591e-10
6.20784e-11
7.22494e-10
6.20976e-11
6.60653e-10
6.18419e-11
5.99357e-10
6.12976e-11
5.38907e-10
6.04507e-11
4.79621e-10
5.92873e-11
4.21828e-10
5.77935e-11
3.65874e-10
5.59551e-11
3.12117e-10
5.37586e-11
2.60926e-10
5.11915e-11
2.12684e-10
4.82426e-11
1.67783e-10
4.49029e-11
1.26618e-10
4.11663e-11
8.95879e-11
3.70316e-11
5.70846e-11
3.25045e-11
2.94841e-11
2.76012e-11
7.13092e-12
2.23538e-11
-9.68931e-12
1.68209e-11
-2.07875e-11
1.10993e-11
-2.61305e-11
5.34494e-12
-2.59793e-11
-1.48635e-13
-2.10359e-11
-4.94266e-12
-1.28237e-11
-8.21738e-12
-4.24648e-12
-8.59063e-12
-4.2591e-12
-9.77833e-12
1.22341e-11
-2.41032e-11
2.22616e-11
-3.56888e-11
2.01512e-11
-3.94583e-11
9.57819e-12
-3.19072e-11
-6.26045e-12
-1.08839e-11
-2.51191e-11
2.47414e-11
-4.54768e-11
7.53733e-11
-6.63323e-11
1.40973e-10
-8.70051e-11
2.21099e-10
-1.07057e-10
3.15128e-10
-1.26166e-10
4.22266e-10
-1.44129e-10
5.41596e-10
-1.60816e-10
6.7213e-10
-1.76139e-10
8.1284e-10
-1.90035e-10
9.62672e-10
-2.02466e-10
1.12056e-09
-2.13422e-10
1.28542e-09
-2.22908e-10
1.45619e-09
-2.30938e-10
1.63181e-09
-2.37532e-10
1.81125e-09
-2.42714e-10
1.99349e-09
-2.46515e-10
2.17755e-09
-2.48977e-10
2.36249e-09
-2.50142e-10
2.54736e-09
-2.50057e-10
2.7313e-09
-2.48771e-10
2.91343e-09
-2.46333e-10
3.09297e-09
-2.42795e-10
3.26913e-09
-2.38213e-10
3.44118e-09
-2.32642e-10
3.60844e-09
-2.26139e-10
3.77026e-09
-2.18761e-10
3.92603e-09
-2.10565e-10
4.07519e-09
-2.01606e-10
4.21721e-09
-1.91945e-10
4.35163e-09
-1.81638e-10
4.478e-09
-1.70741e-10
4.59592e-09
-1.5931e-10
4.70503e-09
-1.47401e-10
4.80503e-09
-1.35064e-10
4.89564e-09
-1.22354e-10
4.97661e-09
-1.09323e-10
5.04774e-09
-9.60191e-11
5.10887e-09
-8.24929e-11
5.15986e-09
-6.87908e-11
5.20061e-09
-5.49572e-11
5.23107e-09
-4.10364e-11
5.25118e-09
-2.70721e-11
5.26097e-09
-1.31056e-11
5.26043e-09
8.24057e-13
5.24964e-09
1.46788e-11
5.22868e-09
2.84214e-11
5.19765e-09
4.20159e-11
5.15668e-09
5.54277e-11
5.10594e-09
6.86228e-11
5.04561e-09
8.15683e-11
4.97591e-09
9.42323e-11
4.89705e-09
1.06584e-10
4.80929e-09
1.18591e-10
4.71293e-09
1.30223e-10
4.60824e-09
1.4145e-10
4.49556e-09
1.5224e-10
4.37524e-09
1.62563e-10
4.24764e-09
1.72387e-10
4.11316e-09
1.8168e-10
3.97222e-09
1.9041e-10
3.82525e-09
1.98543e-10
3.67274e-09
2.06044e-10
3.51517e-09
2.12878e-10
3.35307e-09
2.19007e-10
3.18699e-09
2.24393e-10
3.0175e-09
2.28996e-10
2.84524e-09
2.32774e-10
2.67082e-09
2.35685e-10
2.49494e-09
2.37683e-10
2.31829e-09
2.38724e-10
2.14163e-09
2.3876e-10
1.96573e-09
2.37741e-10
1.79141e-09
2.35621e-10
1.61952e-09
2.32348e-10
1.45093e-09
2.27874e-10
1.28658e-09
2.22151e-10
1.1274e-09
2.15132e-10
9.74385e-10
2.06775e-10
8.28535e-10
1.97042e-10
6.90875e-10
1.85903e-10
5.62439e-10
1.73339e-10
4.44259e-10
1.59347e-10
3.37347e-10
1.43945e-10
2.4267e-10
1.27183e-10
1.61116e-10
1.09156e-10
9.34463e-11
9.00244e-11
4.02231e-11
7.00454e-11
1.70329e-12
4.96193e-11
-2.23309e-11
2.93777e-11
-3.27407e-11
1.02618e-11
-3.14175e-11
-6.25637e-12
-2.16406e-11
-1.79718e-11
-8.56818e-12
-2.16332e-11
-1.28348e-11
-9.40025e-12
2.15985e-11
-2.14755e-11
3.43632e-11
-2.69494e-11
2.56381e-11
-1.9559e-11
2.17642e-12
5.07924e-12
-3.09036e-11
4.98105e-11
-6.98486e-11
1.16263e-10
-1.11929e-10
2.05148e-10
-1.55222e-10
3.1651e-10
-1.98366e-10
4.49867e-10
-2.40408e-10
6.04369e-10
-2.80667e-10
7.78904e-10
-3.18668e-10
9.7217e-10
-3.54085e-10
1.18273e-09
-3.86694e-10
1.40904e-09
-4.16345e-10
1.64952e-09
-4.4294e-10
1.90252e-09
-4.6643e-10
2.16641e-09
-4.868e-10
2.43954e-09
-5.04064e-10
2.72027e-09
-5.18256e-10
3.00698e-09
-5.29426e-10
3.2981e-09
-5.37636e-10
3.59209e-09
-5.4296e-10
3.88743e-09
-5.45485e-10
4.18268e-09
-5.45306e-10
4.47644e-09
-5.42525e-10
4.76736e-09
-5.37249e-10
5.05415e-09
-5.29588e-10
5.33559e-09
-5.19657e-10
5.61052e-09
-5.07575e-10
5.87784e-09
-4.93461e-10
6.13653e-09
-4.77439e-10
6.3856e-09
-4.59633e-10
6.62416e-09
-4.40166e-10
6.85137e-09
-4.19159e-10
7.06647e-09
-3.96737e-10
7.26875e-09
-3.73022e-10
7.45758e-09
-3.48134e-10
7.63237e-09
-3.22193e-10
7.79262e-09
-2.95315e-10
7.93788e-09
-2.67612e-10
8.06776e-09
-2.39198e-10
8.18192e-09
-2.1018e-10
8.28009e-09
-1.80666e-10
8.36206e-09
-1.50757e-10
8.42766e-09
-1.20554e-10
8.47678e-09
-9.01522e-11
8.50935e-09
-5.96454e-11
8.52537e-09
-2.91241e-11
8.52487e-09
1.32407e-12
8.50794e-09
3.16151e-11
8.47469e-09
6.16677e-11
8.42531e-09
9.14027e-11
8.35999e-09
1.20743e-10
8.279e-09
1.49614e-10
8.18263e-09
1.77944e-10
8.0712e-09
2.05661e-10
7.94509e-09
2.32694e-10
7.80471e-09
2.58975e-10
7.6505e-09
2.84436e-10
7.48294e-09
3.09009e-10
7.30256e-09
3.32624e-10
7.10991e-09
3.55213e-10
6.90559e-09
3.76708e-10
6.69023e-09
3.97037e-10
6.46452e-09
4.16127e-10
6.22916e-09
4.33906e-10
5.98491e-09
4.50297e-10
5.73256e-09
4.65221e-10
5.47297e-09
4.78599e-10
5.20702e-09
4.90346e-10
4.93564e-09
5.00376e-10
4.65982e-09
5.08599e-10
4.38058e-09
5.14925e-10
4.09901e-09
5.19257e-10
3.81624e-09
5.21498e-10
3.53345e-09
5.21549e-10
3.25188e-09
5.1931e-10
2.97282e-09
5.14678e-10
2.69762e-09
5.07555e-10
2.42766e-09
4.97839e-10
2.16437e-09
4.85437e-10
1.90924e-09
4.7026e-10
1.66379e-09
4.52228e-10
1.42956e-09
4.31276e-10
1.20811e-09
4.07359e-10
1.00099e-09
3.80457e-10
8.09749e-10
3.50591e-10
6.35864e-10
3.17832e-10
4.80726e-10
2.82322e-10
3.45577e-10
2.44306e-10
2.31436e-10
2.04168e-10
1.38994e-10
1.62489e-10
6.8481e-11
1.20135e-10
1.94808e-11
7.83779e-11
-9.3315e-12
3.90673e-11
-2.04913e-11
4.89004e-12
-1.81001e-11
-2.03718e-11
-8.24403e-12
-3.14753e-11
-2.10802e-11
-6.33182e-12
2.79345e-11
-1.07603e-11
3.87964e-11
-3.78863e-12
1.86531e-11
2.11982e-11
-2.28137e-11
6.89233e-11
-7.86136e-11
1.42512e-10
-1.43423e-10
2.43833e-10
-2.13257e-10
3.73769e-10
-2.85174e-10
5.32428e-10
-3.57026e-10
7.19288e-10
-4.27255e-10
9.33353e-10
-4.94721e-10
1.17328e-09
-5.58595e-10
1.43746e-09
-6.1828e-10
1.72412e-09
-6.73353e-10
2.03131e-09
-7.23528e-10
2.35699e-09
-7.68616e-10
2.69907e-09
-8.08506e-10
3.05541e-09
-8.43146e-10
3.42388e-09
-8.72536e-10
3.80234e-09
-8.96714e-10
4.18867e-09
-9.15753e-10
4.58078e-09
-9.29749e-10
4.97665e-09
-9.38822e-10
5.37427e-09
-9.43109e-10
5.77173e-09
-9.42764e-10
6.16716e-09
-9.37955e-10
6.55877e-09
-9.28859e-10
6.94485e-09
-9.15664e-10
7.32375e-09
-8.98563e-10
7.69393e-09
-8.77755e-10
8.05392e-09
-8.53444e-10
8.40232e-09
-8.25838e-10
8.73783e-09
-7.95148e-10
9.05926e-09
-7.61584e-10
9.36546e-09
-7.25358e-10
9.6554e-09
-6.86679e-10
9.92813e-09
-6.45756e-10
1.01828e-08
-6.02796e-10
1.04186e-08
-5.58002e-10
1.06349e-08
-5.11576e-10
1.0831e-08
-4.63714e-10
1.10064e-08
-4.14608e-10
1.11606e-08
-3.64445e-10
1.12934e-08
-3.13408e-10
1.14043e-08
-2.61676e-10
1.14932e-08
-2.0942e-10
1.15598e-08
-1.56807e-10
1.16042e-08
-1.04001e-10
1.16262e-08
-5.11571e-11
1.1626e-08
1.57285e-12
1.16036e-08
5.40417e-11
1.15591e-08
1.06107e-10
1.14929e-08
1.5763e-10
1.14052e-08
2.08479e-10
1.12962e-08
2.58522e-10
1.11666e-08
3.07631e-10
1.10165e-08
3.55682e-10
1.08467e-08
4.02553e-10
1.06575e-08
4.48122e-10
1.04497e-08
4.92269e-10
1.02238e-08
5.34874e-10
9.98064e-09
5.75819e-10
9.72088e-09
6.14983e-10
9.44534e-09
6.52244e-10
9.1549e-09
6.87479e-10
8.85047e-09
7.20562e-10
8.53301e-09
7.51365e-10
8.20355e-09
7.79756e-10
7.86317e-09
8.05599e-10
7.51302e-09
8.28756e-10
7.15428e-09
8.49082e-10
6.78823e-09
8.6643e-10
6.41618e-09
8.80647e-10
6.03953e-09
8.91577e-10
5.65973e-09
8.99061e-10
5.27829e-09
9.02935e-10
4.89681e-09
9.03033e-10
4.51693e-09
8.9919e-10
4.14037e-09
8.91238e-10
3.76891e-09
8.79015e-10
3.40439e-09
8.62362e-10
3.0487e-09
8.4113e-10
2.70377e-09
8.15184e-10
2.37159e-09
7.84408e-10
2.05416e-09
7.48713e-10
1.75347e-09
7.08047e-10
1.47152e-09
6.62409e-10
1.21024e-09
6.11868e-10
9.71494e-10
5.56584e-10
7.56975e-10
4.96841e-10
5.68188e-10
4.33094e-10
4.06328e-10
3.66028e-10
2.72179e-10
2.96639e-10
1.65959e-10
2.26358e-10
8.71414e-11
1.57203e-10
3.42146e-11
9.2002e-11
4.41614e-12
3.46888e-11
-6.59538e-12
-9.36911e-12
-5.05387e-12
-3.30119e-11
-2.61332e-11
-1.79051e-12
2.97305e-11
4.83921e-12
3.21509e-11
2.85675e-11
-5.08284e-12
7.57161e-11
-6.99599e-11
1.50864e-10
-1.53753e-10
2.57132e-10
-2.49685e-10
3.96422e-10
-3.52549e-10
5.69638e-10
-4.58397e-10
7.76866e-10
-5.64256e-10
1.01752e-09
-6.67905e-10
1.29049e-09
-7.67681e-10
1.59424e-09
-8.62346e-10
1.92694e-09
-9.50979e-10
2.28649e-09
-1.03291e-09
2.67064e-09
-1.10768e-09
3.07699e-09
-1.17496e-09
3.50304e-09
-1.23455e-09
3.94626e-09
-1.28636e-09
4.40407e-09
-1.33035e-09
4.87391e-09
-1.36656e-09
5.35323e-09
-1.39507e-09
5.8395e-09
-1.41602e-09
6.33024e-09
-1.42956e-09
6.82304e-09
-1.43591e-09
7.31555e-09
-1.43527e-09
7.80548e-09
-1.42789e-09
8.29066e-09
-1.41403e-09
8.76897e-09
-1.39397e-09
9.2384e-09
-1.368e-09
9.69705e-09
-1.3364e-09
1.01431e-08
-1.2995e-09
1.05749e-08
-1.25758e-09
1.09907e-08
-1.21098e-09
1.13891e-08
-1.16001e-09
1.17687e-08
-1.10498e-09
1.21283e-08
-1.04621e-09
1.24665e-08
-9.84024e-10
1.27825e-08
-9.18723e-10
1.30751e-08
-8.50619e-10
1.33435e-08
-7.80014e-10
1.3587e-08
-7.07207e-10
1.38049e-08
-6.3249e-10
1.39966e-08
-5.56148e-10
1.41617e-08
-4.78456e-10
1.42997e-08
-3.99687e-10
1.44104e-08
-3.20102e-10
1.44935e-08
-2.39958e-10
1.4549e-08
-1.59501e-10
1.45768e-08
-7.89692e-11
1.4577e-08
1.40388e-12
1.45496e-08
8.13936e-11
1.4495e-08
1.60782e-10
1.44132e-08
2.39358e-10
1.43048e-08
3.16914e-10
1.41701e-08
3.93251e-10
1.40095e-08
4.68174e-10
1.38237e-08
5.41489e-10
1.36133e-08
6.13007e-10
1.33789e-08
6.82543e-10
1.31212e-08
7.49912e-10
1.28412e-08
8.1493e-10
1.25396e-08
8.77412e-10
1.22174e-08
9.37174e-10
1.18756e-08
9.94029e-10
1.15153e-08
1.04779e-09
1.11376e-08
1.09826e-09
1.07437e-08
1.14524e-09
1.03349e-08
1.18855e-09
9.91257e-09
1.22795e-09
9.47807e-09
1.26326e-09
9.0329e-09
1.29425e-09
8.57863e-09
1.3207e-09
8.11691e-09
1.34237e-09
7.64944e-09
1.35905e-09
7.17802e-09
1.37048e-09
6.70453e-09
1.37643e-09
6.2309e-09
1.37666e-09
5.75917e-09
1.37092e-09
5.29143e-09
1.35898e-09
4.82985e-09
1.34059e-09
4.37667e-09
1.31555e-09
3.93417e-09
1.28363e-09
3.50468e-09
1.24467e-09
3.09059e-09
1.1985e-09
2.69427e-09
1.14503e-09
2.31811e-09
1.08421e-09
1.96443e-09
1.01609e-09
1.63551e-09
9.40787e-10
1.3335e-09
8.58602e-10
1.06034e-09
7.69997e-10
8.17754e-10
6.75685e-10
6.07079e-10
5.76703e-10
4.29198e-10
4.74519e-10
2.84382e-10
3.71172e-10
1.72124e-10
2.69462e-10
9.09429e-11
1.73187e-10
3.81611e-11
8.74764e-11
9.66006e-12
1.9129e-11
-3.7897e-13
-2.29719e-11
-2.65111e-11
3.47103e-12
2.6253e-11
2.31697e-11
1.24532e-11
6.6401e-11
-4.8301e-11
1.38737e-10
-1.4229e-10
2.44301e-10
-2.59326e-10
3.85959e-10
-3.91351e-10
5.65462e-10
-5.32049e-10
7.83597e-10
-6.76524e-10
1.04034e-09
-8.20997e-10
1.335e-09
-9.62567e-10
1.66633e-09
-1.09902e-09
2.03264e-09
-1.22865e-09
2.43187e-09
-1.35021e-09
2.8617e-09
-1.46273e-09
3.31957e-09
-1.56555e-09
3.80277e-09
-1.65816e-09
4.3085e-09
-1.74028e-09
4.83386e-09
-1.81172e-09
5.37591e-09
-1.8724e-09
5.93171e-09
-1.92236e-09
6.49832e-09
-1.96168e-09
7.07283e-09
-1.99053e-09
7.65238e-09
-2.00911e-09
8.23418e-09
-2.0177e-09
8.81548e-09
-2.01657e-09
9.39365e-09
-2.00606e-09
9.96613e-09
-1.98652e-09
1.05305e-08
-1.95832e-09
1.10843e-08
-1.92185e-09
1.16255e-08
-1.87754e-09
1.21517e-08
-1.82578e-09
1.26612e-08
-1.76702e-09
1.31519e-08
-1.70169e-09
1.36221e-08
-1.63022e-09
1.40702e-08
-1.55306e-09
1.44946e-08
-1.47065e-09
1.4894e-08
-1.38342e-09
1.52671e-08
-1.29181e-09
1.56127e-08
-1.19625e-09
1.59299e-08
-1.09717e-09
1.62177e-08
-9.94971e-10
1.64752e-08
-8.9007e-10
1.6702e-08
-7.82865e-10
1.68972e-08
-6.73745e-10
1.70606e-08
-5.63088e-10
1.71918e-08
-4.51264e-10
1.72905e-08
-3.38631e-10
1.73565e-08
-2.25536e-10
1.73899e-08
-1.12317e-10
1.73906e-08
6.98761e-13
1.73588e-08
1.13195e-10
1.72947e-08
2.24862e-10
1.71987e-08
3.35403e-10
1.7071e-08
4.44524e-10
1.69124e-08
5.51943e-10
1.67231e-08
6.57382e-10
1.65041e-08
7.60569e-10
1.62558e-08
8.61235e-10
1.59793e-08
9.59117e-10
1.56752e-08
1.05395e-09
1.53447e-08
1.14548e-09
1.49887e-08
1.23344e-09
1.46083e-08
1.31757e-09
1.42047e-08
1.3976e-09
1.37792e-08
1.47328e-09
1.33331e-08
1.54432e-09
1.28679e-08
1.61046e-09
1.23851e-08
1.6714e-09
1.18862e-08
1.72687e-09
1.13729e-08
1.77656e-09
1.08469e-08
1.82018e-09
1.03102e-08
1.85742e-09
9.7646e-09
1.88796e-09
9.21217e-09
1.91149e-09
8.65498e-09
1.92766e-09
8.09524e-09
1.93617e-09
7.53523e-09
1.93668e-09
6.97729e-09
1.92886e-09
6.42388e-09
1.91239e-09
5.8775e-09
1.88698e-09
5.34073e-09
1.85231e-09
4.81622e-09
1.80815e-09
4.30663e-09
1.75425e-09
3.81469e-09
1.69044e-09
3.34311e-09
1.61662e-09
2.89457e-09
1.53275e-09
2.47172e-09
1.43894e-09
2.0771e-09
1.33541e-09
1.71309e-09
1.22261e-09
1.38187e-09
1.10121e-09
1.08534e-09
9.72218e-10
8.25e-10
8.37045e-10
6.01868e-10
6.97653e-10
4.16343e-10
5.56697e-10
2.68068e-10
4.17735e-10
1.55776e-10
2.85479e-10
7.71271e-11
1.6613e-10
2.85389e-11
6.77176e-11
5.02127e-12
5.46086e-13
-2.14891e-11
9.01789e-12
1.72326e-11
4.28116e-11
-2.13356e-11
1.07111e-10
-1.12586e-10
2.06483e-10
-2.41658e-10
3.44382e-10
-3.97236e-10
5.23215e-10
-5.70196e-10
7.44422e-10
-7.53253e-10
1.00856e-09
-9.40652e-10
1.31543e-09
-1.12786e-09
1.66416e-09
-1.3113e-09
2.05335e-09
-1.48821e-09
2.48112e-09
-1.65643e-09
2.94524e-09
-1.81432e-09
3.44313e-09
-1.96062e-09
3.97201e-09
-2.09442e-09
4.5289e-09
-2.21505e-09
5.11069e-09
-2.32207e-09
5.71418e-09
-2.41521e-09
6.33613e-09
-2.49435e-09
6.97325e-09
-2.55948e-09
7.62228e-09
-2.6107e-09
8.27996e-09
-2.64821e-09
8.94309e-09
-2.67224e-09
9.60852e-09
-2.68313e-09
1.02732e-08
-2.68124e-09
1.09341e-08
-2.667e-09
1.15885e-08
-2.64084e-09
1.22334e-08
-2.60326e-09
1.28663e-08
-2.55476e-09
1.34846e-08
-2.49588e-09
1.4086e-08
-2.42715e-09
1.46682e-08
-2.34915e-09
1.52289e-08
-2.26244e-09
1.57663e-08
-2.16759e-09
1.62784e-08
-2.06518e-09
1.67635e-08
-1.95579e-09
1.72201e-08
-1.84001e-09
1.76467e-08
-1.71839e-09
1.8042e-08
-1.59151e-09
1.84047e-08
-1.45993e-09
1.87339e-08
-1.32419e-09
1.90287e-08
-1.18484e-09
1.92883e-08
-1.0424e-09
1.95119e-08
-8.97396e-10
1.96991e-08
-7.50323e-10
1.98496e-08
-6.01672e-10
1.99628e-08
-4.51919e-10
2.00388e-08
-3.01528e-10
2.00775e-08
-1.50948e-10
2.00788e-08
-6.13598e-13
2.00429e-08
1.49051e-10
1.99702e-08
2.97635e-10
1.98608e-08
4.44738e-10
1.97154e-08
5.89972e-10
1.95344e-08
7.32956e-10
1.93184e-08
8.73318e-10
1.90683e-08
1.01069e-09
1.87848e-08
1.14473e-09
1.84689e-08
1.27506e-09
1.81215e-08
1.40134e-09
1.77437e-08
1.52323e-09
1.73368e-08
1.64036e-09
1.6902e-08
1.7524e-09
1.64406e-08
1.85899e-09
1.59541e-08
1.95977e-09
1.5444e-08
2.05438e-09
1.4912e-08
2.14246e-09
1.43598e-08
2.22364e-09
1.37892e-08
2.29752e-09
1.3202e-08
2.36373e-09
1.26003e-08
2.42186e-09
1.19862e-08
2.47151e-09
1.13619e-08
2.51228e-09
1.07297e-08
2.54374e-09
1.00919e-08
2.56547e-09
9.45099e-09
2.57705e-09
8.80961e-09
2.57805e-09
8.1704e-09
2.56807e-09
7.53609e-09
2.54671e-09
6.9095e-09
2.51356e-09
6.29353e-09
2.46829e-09
5.6911e-09
2.41057e-09
5.10522e-09
2.34014e-09
4.53887e-09
2.25679e-09
3.99507e-09
2.16043e-09
3.47676e-09
2.05106e-09
2.98686e-09
1.92884e-09
2.52813e-09
1.79414e-09
2.1032e-09
1.64755e-09
1.71445e-09
1.48997e-09
1.36394e-09
1.32272e-09
1.05338e-09
1.14761e-09
7.83967e-10
9.67069e-10
5.56312e-10
7.84355e-10
3.70325e-10
6.03722e-10
2.251e-10
4.30702e-10
1.18818e-10
2.72414e-10
4.86405e-11
1.37897e-10
1.0698e-11
3.84895e-11
-1.07906e-11
1.45986e-11
2.64277e-12
6.28692e-11
-6.961e-11
1.4896e-10
-1.98683e-10
2.76333e-10
-3.69031e-10
4.47633e-10
-5.68533e-10
6.64668e-10
-7.87231e-10
9.28441e-10
-1.01703e-09
1.23919e-09
-1.2514e-09
1.59645e-09
-1.48511e-09
1.99914e-09
-1.714e-09
2.44566e-09
-1.93473e-09
2.93393e-09
-2.14471e-09
3.4615e-09
-2.34189e-09
4.0256e-09
-2.52472e-09
4.62321e-09
-2.69202e-09
5.2511e-09
-2.84294e-09
5.9059e-09
-2.97688e-09
6.58416e-09
-3.09347e-09
7.28233e-09
-3.19252e-09
7.99684e-09
-3.27399e-09
8.72413e-09
-3.33799e-09
9.46063e-09
-3.3847e-09
1.02028e-08
-3.41445e-09
1.09473e-08
-3.4276e-09
1.16907e-08
-3.4246e-09
1.24296e-08
-3.40597e-09
1.31611e-08
-3.37226e-09
1.38819e-08
-3.32408e-09
1.45892e-08
-3.26204e-09
1.52801e-08
-3.18682e-09
1.5952e-08
-3.0991e-09
1.66025e-08
-2.99958e-09
1.7229e-08
-2.88898e-09
1.78295e-08
-2.76802e-09
1.84017e-08
-2.63743e-09
1.89438e-08
-2.49794e-09
1.94541e-08
-2.35028e-09
1.99309e-08
-2.19518e-09
2.03728e-08
-2.03335e-09
2.07783e-08
-1.86551e-09
2.11465e-08
-1.69234e-09
2.14762e-08
-1.51454e-09
2.17666e-08
-1.33277e-09
2.20169e-08
-1.1477e-09
2.22265e-08
-9.59967e-10
2.2395e-08
-7.7019e-10
2.25221e-08
-5.78978e-10
2.26075e-08
-3.86922e-10
2.26511e-08
-1.94597e-10
2.26531e-08
-2.55998e-12
2.26135e-08
1.88647e-10
2.25326e-08
3.78498e-10
2.24109e-08
5.66481e-10
2.22488e-08
7.52095e-10
2.20469e-08
9.34853e-10
2.18059e-08
1.11428e-09
2.15267e-08
1.2899e-09
2.12102e-08
1.46126e-09
2.08573e-08
1.62791e-09
2.04693e-08
1.78939e-09
2.00473e-08
1.94525e-09
1.95926e-08
2.09504e-09
1.91066e-08
2.23833e-09
1.8591e-08
2.37465e-09
1.80472e-08
2.50355e-09
1.7477e-08
2.62457e-09
1.68822e-08
2.73724e-09
1.62648e-08
2.84109e-09
1.56267e-08
2.93564e-09
1.497e-08
3.02039e-09
1.4297e-08
3.09483e-09
1.36101e-08
3.15848e-09
1.29116e-08
3.21079e-09
1.2204e-08
3.25127e-09
1.14901e-08
3.27938e-09
1.07726e-08
3.29459e-09
1.00542e-08
3.2964e-09
9.33801e-09
3.28429e-09
8.62694e-09
3.25777e-09
7.92411e-09
3.21639e-09
7.23268e-09
3.15972e-09
6.55587e-09
3.08738e-09
5.89692e-09
2.99909e-09
5.2591e-09
2.89461e-09
4.64565e-09
2.77387e-09
4.05979e-09
2.63692e-09
3.50464e-09
2.48399e-09
2.98321e-09
2.31557e-09
2.49832e-09
2.13244e-09
2.05255e-09
1.93574e-09
1.6482e-09
1.72708e-09
1.28716e-09
1.50864e-09
9.7088e-10
1.28335e-09
7.00265e-10
1.05497e-09
4.75587e-10
8.28403e-10
2.9642e-10
6.09868e-10
1.6159e-10
4.07244e-10
6.91438e-11
2.30344e-10
1.6388e-11
9.12464e-11
5.59788e-12
2.00553e-11
-1.74038e-11
8.27816e-11
-1.32343e-10
1.90823e-10
-3.06744e-10
3.46514e-10
-5.24722e-10
5.51623e-10
-7.73629e-10
8.07282e-10
-1.04288e-09
1.11397e-09
-1.32372e-09
1.47153e-09
-1.60896e-09
1.87917e-09
-1.89276e-09
2.33555e-09
-2.17038e-09
2.83882e-09
-2.43799e-09
3.38667e-09
-2.69256e-09
3.97645e-09
-2.93166e-09
4.60515e-09
-3.15342e-09
5.26955e-09
-3.35641e-09
5.96618e-09
-3.53957e-09
6.69144e-09
-3.70214e-09
7.44161e-09
-3.84365e-09
8.2129e-09
-3.96381e-09
9.00148e-09
-4.06257e-09
9.80349e-09
-4.14e-09
1.06151e-08
-4.19633e-09
1.14326e-08
-4.2319e-09
1.22521e-08
-4.24716e-09
1.30702e-08
-4.24263e-09
1.38831e-08
-4.21892e-09
1.46875e-08
-4.17669e-09
1.54801e-08
-4.11667e-09
1.62577e-08
-4.03962e-09
1.70172e-08
-3.94635e-09
1.77558e-08
-3.83768e-09
1.84707e-08
-3.71446e-09
1.91593e-08
-3.57758e-09
1.98192e-08
-3.42792e-09
2.04481e-08
-3.26636e-09
2.1044e-08
-3.09381e-09
2.16049e-08
-2.91115e-09
2.2129e-08
-2.71928e-09
2.26147e-08
-2.51908e-09
2.30606e-08
-2.31141e-09
2.34654e-08
-2.09715e-09
2.3828e-08
-1.87713e-09
2.41474e-08
-1.65218e-09
2.44228e-08
-1.42312e-09
2.46536e-08
-1.19072e-09
2.48392e-08
-9.55771e-10
2.49792e-08
-7.19015e-10
2.50735e-08
-4.81184e-10
2.51219e-08
-2.4299e-10
2.51244e-08
-5.12269e-12
2.50814e-08
2.31745e-10
2.49929e-08
4.66959e-10
2.48595e-08
6.99884e-10
2.46817e-08
9.29899e-10
2.44601e-08
1.1564e-09
2.41956e-08
1.37879e-09
2.38891e-08
1.59648e-09
2.35414e-08
1.80891e-09
2.31538e-08
2.01551e-09
2.27275e-08
2.21572e-09
2.22638e-08
2.40897e-09
2.17641e-08
2.59472e-09
2.123e-08
2.77241e-09
2.06632e-08
2.94147e-09
2.00654e-08
3.10135e-09
1.94385e-08
3.25147e-09
1.87845e-08
3.39125e-09
1.81055e-08
3.52012e-09
1.74036e-08
3.63747e-09
1.66813e-08
3.7427e-09
1.59409e-08
3.83521e-09
1.51851e-08
3.91437e-09
1.44163e-08
3.97955e-09
1.36374e-08
4.03012e-09
1.28514e-08
4.06546e-09
1.2061e-08
4.08493e-09
1.12695e-08
4.08791e-09
1.048e-08
4.0738e-09
9.69576e-09
4.04202e-09
8.92011e-09
3.99204e-09
8.15647e-09
3.92336e-09
7.40828e-09
3.83557e-09
6.67904e-09
3.72833e-09
5.97225e-09
3.60141e-09
5.29137e-09
3.45475e-09
4.63986e-09
3.28844e-09
4.02104e-09
3.10281e-09
3.43813e-09
2.89848e-09
2.89418e-09
2.67639e-09
2.39199e-09
2.43793e-09
1.93407e-09
2.185e-09
1.52257e-09
1.92014e-09
1.15924e-09
1.64668e-09
8.45327e-10
1.36889e-09
5.81549e-10
1.09218e-09
3.68044e-10
8.23374e-10
2.04365e-10
5.70923e-10
8.95024e-11
3.45207e-10
2.19673e-11
1.58782e-10
2.75655e-11
2.5312e-11
-4.27186e-11
1.02217e-10
-2.09242e-10
2.3199e-10
-4.36523e-10
4.15856e-10
-7.08591e-10
6.54702e-10
-1.01247e-09
9.48952e-10
-1.33712e-09
1.29851e-09
-1.67328e-09
1.70276e-09
-2.01321e-09
2.16053e-09
-2.35054e-09
2.67017e-09
-2.68002e-09
3.22955e-09
-2.99737e-09
3.83611e-09
-3.29912e-09
4.48697e-09
-3.58251e-09
5.17889e-09
-3.84535e-09
5.90843e-09
-4.08595e-09
6.67189e-09
-4.30304e-09
7.46545e-09
-4.4957e-09
8.28515e-09
-4.66335e-09
9.12696e-09
-4.80562e-09
9.98679e-09
-4.9224e-09
1.08606e-08
-5.01377e-09
1.17442e-08
-5.07996e-09
1.26337e-08
-5.12135e-09
1.3525e-08
-5.13846e-09
1.44142e-08
-5.13189e-09
1.52977e-08
-5.10235e-09
1.61716e-08
-5.05061e-09
1.70324e-08
-4.97753e-09
1.78768e-08
-4.88401e-09
1.87015e-08
-4.77099e-09
1.95033e-08
-4.63947e-09
2.02793e-08
-4.49046e-09
2.10267e-08
-4.325e-09
2.17429e-08
-4.14414e-09
2.24255e-08
-3.94896e-09
2.30722e-08
-3.74051e-09
2.36809e-08
-3.51987e-09
2.42498e-08
-3.28811e-09
2.4777e-08
-3.04629e-09
2.5261e-08
-2.79544e-09
2.57005e-08
-2.53661e-09
2.60941e-08
-2.2708e-09
2.6441e-08
-1.99902e-09
2.67401e-08
-1.72223e-09
2.69908e-08
-1.4414e-09
2.71925e-08
-1.15745e-09
2.73447e-08
-8.71289e-10
2.74473e-08
-5.83798e-10
2.75002e-08
-2.95837e-10
2.75033e-08
-8.24096e-12
2.74569e-08
2.78176e-10
2.73612e-08
5.62624e-10
2.72168e-08
8.44331e-10
2.70241e-08
1.12254e-09
2.6784e-08
1.39653e-09
2.64972e-08
1.66557e-09
2.61647e-08
1.92895e-09
2.57877e-08
2.18599e-09
2.53672e-08
2.43599e-09
2.49046e-08
2.67827e-09
2.44015e-08
2.91216e-09
2.38592e-08
3.13698e-09
2.32795e-08
3.35206e-09
2.26643e-08
3.55673e-09
2.20153e-08
3.7503e-09
2.13347e-08
3.93208e-09
2.06246e-08
4.10138e-09
1.98872e-08
4.2575e-09
1.9125e-08
4.39972e-09
1.83403e-08
4.52733e-09
1.7536e-08
4.63959e-09
1.67146e-08
4.73576e-09
1.5879e-08
4.8151e-09
1.50323e-08
4.87686e-09
1.41774e-08
4.9203e-09
1.33177e-08
4.94469e-09
1.24563e-08
4.94929e-09
1.15967e-08
4.9334e-09
1.07423e-08
4.89637e-09
9.89681e-09
4.83758e-09
9.06372e-09
4.75646e-09
8.24675e-09
4.65255e-09
7.44959e-09
4.52548e-09
6.67598e-09
4.37503e-09
5.92959e-09
4.20113e-09
5.21407e-09
4.00395e-09
4.53298e-09
3.7839e-09
3.88975e-09
3.54171e-09
3.28763e-09
3.27851e-09
2.72965e-09
2.9959e-09
2.2186e-09
2.69606e-09
1.75691e-09
2.38183e-09
1.34665e-09
2.05693e-09
9.89492e-10
1.72605e-09
6.86643e-10
1.39503e-09
4.38861e-10
1.07116e-09
2.46468e-10
7.63316e-10
1.09407e-10
4.82268e-10
2.73635e-11
2.40826e-10
5.49294e-11
3.03384e-11
-7.30676e-11
1.20989e-10
-2.99876e-10
2.72024e-10
-5.87546e-10
4.83621e-10
-9.20189e-10
7.55803e-10
-1.28465e-09
1.08828e-09
-1.6696e-09
1.48036e-09
-2.06536e-09
1.93093e-09
-2.46378e-09
2.43839e-09
-2.85801e-09
3.00075e-09
-3.24237e-09
3.61556e-09
-3.61217e-09
4.28e-09
-3.96356e-09
4.99092e-09
-4.29343e-09
5.74486e-09
-4.59929e-09
6.53813e-09
-4.87922e-09
7.36682e-09
-5.13173e-09
8.22687e-09
-5.35576e-09
9.11411e-09
-5.55058e-09
1.00243e-08
-5.71577e-09
1.0953e-08
-5.85116e-09
1.18961e-08
-5.95681e-09
1.28491e-08
-6.03298e-09
1.38078e-08
-6.08008e-09
1.47681e-08
-6.09869e-09
1.57257e-08
-6.0895e-09
1.66766e-08
-6.05332e-09
1.76171e-08
-5.99105e-09
1.85432e-08
-5.90366e-09
1.94514e-08
-5.79221e-09
2.03382e-08
-5.65779e-09
2.12003e-08
-5.50155e-09
2.20345e-08
-5.32469e-09
2.28379e-08
-5.12842e-09
2.36078e-08
-4.91397e-09
2.43414e-08
-4.68259e-09
2.50364e-08
-4.43553e-09
2.56906e-08
-4.17406e-09
2.63019e-08
-3.89942e-09
2.68685e-08
-3.61286e-09
2.73887e-08
-3.31562e-09
2.7861e-08
-3.0089e-09
2.82841e-08
-2.69391e-09
2.86569e-08
-2.37182e-09
2.89784e-08
-2.04378e-09
2.92479e-08
-1.71092e-09
2.94648e-08
-1.37434e-09
2.96286e-08
-1.0351e-09
2.97391e-08
-6.94262e-10
2.97961e-08
-3.52836e-10
2.97997e-08
-1.1812e-11
2.975e-08
3.27845e-10
2.96474e-08
6.65197e-10
2.94924e-08
9.99327e-10
2.92856e-08
1.32934e-09
2.90278e-08
1.65437e-09
2.87198e-08
1.97356e-09
2.83627e-08
2.28606e-09
2.79576e-08
2.59106e-09
2.75059e-08
2.88773e-09
2.70089e-08
3.17527e-09
2.64682e-08
3.45287e-09
2.58854e-08
3.71974e-09
2.52624e-08
3.97507e-09
2.46011e-08
4.21806e-09
2.39035e-08
4.44792e-09
2.31717e-08
4.66382e-09
2.24082e-08
4.86494e-09
2.16152e-08
5.05047e-09
2.07954e-08
5.21955e-09
1.99514e-08
5.37135e-09
1.90859e-08
5.50501e-09
1.8202e-08
5.61967e-09
1.73027e-08
5.71446e-09
1.6391e-08
5.78851e-09
1.54704e-08
5.84096e-09
1.45441e-08
5.87097e-09
1.36156e-08
5.87771e-09
1.26887e-08
5.86036e-09
1.17669e-08
5.81819e-09
1.0854e-08
5.75048e-09
9.95381e-09
5.65662e-09
9.07026e-09
5.53609e-09
8.20724e-09
5.3885e-09
7.36867e-09
5.21361e-09
6.55843e-09
5.01137e-09
5.78037e-09
4.78201e-09
5.03827e-09
4.526e-09
4.33577e-09
4.24422e-09
3.67635e-09
3.93793e-09
3.06331e-09
3.60894e-09
2.49969e-09
3.25967e-09
1.98826e-09
2.89326e-09
1.53147e-09
2.51373e-09
1.13141e-09
2.1261e-09
7.89845e-10
1.7366e-09
5.08171e-10
1.35283e-09
2.87491e-10
9.83996e-10
1.28684e-10
6.41075e-10
3.25405e-11
3.36971e-10
8.74703e-11
3.51293e-11
-1.08203e-10
1.39012e-10
-4.03752e-10
3.10687e-10
-7.59207e-10
5.49381e-10
-1.15888e-09
8.54287e-10
-1.58957e-09
1.22441e-09
-2.03973e-09
1.65846e-09
-2.49941e-09
2.15479e-09
-2.9601e-09
2.71139e-09
-3.4146e-09
3.32584e-09
-3.85683e-09
3.99539e-09
-4.28172e-09
4.71691e-09
-4.68508e-09
5.48697e-09
-5.06349e-09
6.30188e-09
-5.4142e-09
7.15769e-09
-5.73502e-09
8.05026e-09
-6.0243e-09
8.97531e-09
-6.28081e-09
9.92844e-09
-6.5037e-09
1.09051e-08
-6.69248e-09
1.19009e-08
-6.84692e-09
1.29112e-08
-6.96709e-09
1.39314e-08
-7.05324e-09
1.49572e-08
-7.10583e-09
1.5984e-08
-7.12551e-09
1.70076e-08
-7.11306e-09
1.80236e-08
-7.06938e-09
1.90281e-08
-6.9955e-09
2.00169e-08
-6.89253e-09
2.09864e-08
-6.76168e-09
2.19328e-08
-6.6042e-09
2.28527e-08
-6.42142e-09
2.37427e-08
-6.21469e-09
2.45997e-08
-5.98543e-09
2.54208e-08
-5.73504e-09
2.62032e-08
-5.46497e-09
2.69443e-08
-5.17668e-09
2.76419e-08
-4.87161e-09
2.82937e-08
-4.55122e-09
2.88978e-08
-4.21695e-09
2.94524e-08
-3.87022e-09
2.99559e-08
-3.51244e-09
3.0407e-08
-3.14501e-09
3.08045e-08
-2.76928e-09
3.11473e-08
-2.3866e-09
3.14347e-08
-1.99828e-09
3.16659e-08
-1.60559e-09
3.18406e-08
-1.20979e-09
3.19584e-08
-8.12087e-10
3.20193e-08
-4.13669e-10
3.20231e-08
-1.56911e-11
3.19703e-08
3.80722e-10
3.1861e-08
7.74474e-10
3.16958e-08
1.1645e-09
3.14754e-08
1.54975e-09
3.12006e-08
1.92921e-09
3.08723e-08
2.30187e-09
3.04916e-08
2.66676e-09
3.00597e-08
3.02292e-09
2.95781e-08
3.36938e-09
2.90481e-08
3.70521e-09
2.84715e-08
4.02946e-09
2.78501e-08
4.34121e-09
2.71856e-08
4.63952e-09
2.64802e-08
4.92345e-09
2.57361e-08
5.19208e-09
2.49554e-08
5.44446e-09
2.41407e-08
5.67963e-09
2.32946e-08
5.89664e-09
2.24196e-08
6.09452e-09
2.15187e-08
6.27229e-09
2.05947e-08
6.42896e-09
1.96509e-08
6.56355e-09
1.86902e-08
6.67507e-09
1.77162e-08
6.76252e-09
1.67323e-08
6.82492e-09
1.57419e-08
6.86131e-09
1.47489e-08
6.87075e-09
1.37569e-08
6.85233e-09
1.27699e-08
6.80521e-09
1.17918e-08
6.7286e-09
1.08266e-08
6.62183e-09
9.87835e-09
6.48431e-09
8.95122e-09
6.31563e-09
8.04929e-09
6.11554e-09
7.17665e-09
5.88401e-09
6.33736e-09
5.6213e-09
5.53539e-09
5.32797e-09
4.77463e-09
5.00498e-09
4.05879e-09
4.65377e-09
3.39145e-09
4.27629e-09
2.77594e-09
3.87518e-09
2.21538e-09
3.45382e-09
1.71262e-09
3.01649e-09
1.27023e-09
2.56849e-09
8.90528e-10
2.11631e-09
5.75564e-10
1.66779e-09
3.27213e-10
1.23235e-09
1.4725e-10
8.21039e-10
3.74864e-11
4.46735e-10
1.24957e-10
3.96828e-11
-1.47882e-10
1.56262e-10
-5.2034e-10
3.47887e-10
-9.50829e-10
6.12938e-10
-1.42393e-09
9.49833e-10
-1.92646e-09
1.35689e-09
-2.44679e-09
1.83222e-09
-2.97474e-09
2.37366e-09
-3.50154e-09
2.97873e-09
-4.01967e-09
3.64463e-09
-4.52272e-09