/*--------------------------------*- C++ -*----------------------------------*\
  =========                 |
  \\      /  F ield         | OpenFOAM: The Open Source CFD Toolbox
   \\    /   O peration     | Website:  https://openfoam.org
    \\  /    A nd           | Version:  7
     \\/     M anipulation  |
\*---------------------------------------------------------------------------*/
FoamFile
{
    version     2.0;
    format      ascii;
    class       volVectorField;
    location    "0.3";
    object      U;
}
// * * * * * * * * * * * * * * * * * * * * * * * * * * * * * * * * * * * * * //

dimensions      [0 1 -1 0 0 0 0];

internalField   nonuniform List<vector> 
20000
(
(6.17e-08 -3.70927e-08 0)
(2.09657e-07 -8.48292e-08 0)
(4.34606e-07 -9.93862e-08 0)
(5.9861e-07 -7.33306e-08 0)
(6.59954e-07 -3.31778e-08 0)
(5.84537e-07 1.27697e-08 0)
(3.62371e-07 6.07939e-08 0)
(-7.4272e-09 1.084e-07 0)
(-5.1956e-07 1.53043e-07 0)
(-1.1658e-06 1.93278e-07 0)
(-1.93662e-06 2.29215e-07 0)
(-2.82165e-06 2.61805e-07 0)
(-3.80992e-06 2.91424e-07 0)
(-4.89013e-06 3.17612e-07 0)
(-6.05099e-06 3.39855e-07 0)
(-7.28145e-06 3.5831e-07 0)
(-8.57095e-06 3.73724e-07 0)
(-9.90928e-06 3.86537e-07 0)
(-1.12866e-05 3.96646e-07 0)
(-1.26934e-05 4.0388e-07 0)
(-1.41209e-05 4.08312e-07 0)
(-1.55607e-05 4.10302e-07 0)
(-1.70051e-05 4.10261e-07 0)
(-1.84465e-05 4.08377e-07 0)
(-1.98783e-05 4.04659e-07 0)
(-2.12941e-05 3.99095e-07 0)
(-2.2688e-05 3.91755e-07 0)
(-2.40545e-05 3.82878e-07 0)
(-2.53888e-05 3.72763e-07 0)
(-2.66861e-05 3.61566e-07 0)
(-2.79423e-05 3.49271e-07 0)
(-2.91536e-05 3.35861e-07 0)
(-3.03164e-05 3.21421e-07 0)
(-3.14277e-05 3.06125e-07 0)
(-3.24844e-05 2.9016e-07 0)
(-3.3484e-05 2.73625e-07 0)
(-3.44241e-05 2.56495e-07 0)
(-3.53026e-05 2.38722e-07 0)
(-3.61176e-05 2.2037e-07 0)
(-3.68674e-05 2.01594e-07 0)
(-3.75505e-05 1.82529e-07 0)
(-3.81656e-05 1.63221e-07 0)
(-3.87117e-05 1.43644e-07 0)
(-3.91876e-05 1.23761e-07 0)
(-3.95926e-05 1.03587e-07 0)
(-3.9926e-05 8.3208e-08 0)
(-4.01874e-05 6.27461e-08 0)
(-4.03762e-05 4.22766e-08 0)
(-4.04923e-05 2.18001e-08 0)
(-4.05354e-05 1.28537e-09 0)
(-4.05056e-05 -1.92743e-08 0)
(-4.04029e-05 -3.9829e-08 0)
(-4.02275e-05 -6.02949e-08 0)
(-3.99799e-05 -8.05904e-08 0)
(-3.96606e-05 -1.00674e-07 0)
(-3.92701e-05 -1.20553e-07 0)
(-3.88094e-05 -1.40239e-07 0)
(-3.82792e-05 -1.59703e-07 0)
(-3.76806e-05 -1.78875e-07 0)
(-3.70149e-05 -1.97677e-07 0)
(-3.62834e-05 -2.16059e-07 0)
(-3.54877e-05 -2.33988e-07 0)
(-3.46294e-05 -2.51427e-07 0)
(-3.37104e-05 -2.68332e-07 0)
(-3.27328e-05 -2.84641e-07 0)
(-3.16989e-05 -3.00274e-07 0)
(-3.06113e-05 -3.15152e-07 0)
(-2.94727e-05 -3.29202e-07 0)
(-2.82862e-05 -3.42352e-07 0)
(-2.70552e-05 -3.5454e-07 0)
(-2.57834e-05 -3.65678e-07 0)
(-2.44747e-05 -3.7565e-07 0)
(-2.31334e-05 -3.84348e-07 0)
(-2.17644e-05 -3.91655e-07 0)
(-2.03727e-05 -3.97453e-07 0)
(-1.89638e-05 -4.0164e-07 0)
(-1.75436e-05 -4.04085e-07 0)
(-1.61186e-05 -4.04641e-07 0)
(-1.46955e-05 -4.03174e-07 0)
(-1.32817e-05 -3.99524e-07 0)
(-1.1885e-05 -3.93524e-07 0)
(-1.05134e-05 -3.8503e-07 0)
(-9.17578e-06 -3.73902e-07 0)
(-7.88117e-06 -3.60001e-07 0)
(-6.6391e-06 -3.4319e-07 0)
(-5.45946e-06 -3.23328e-07 0)
(-4.35243e-06 -3.00272e-07 0)
(-3.32842e-06 -2.73903e-07 0)
(-2.3979e-06 -2.44148e-07 0)
(-1.57133e-06 -2.10979e-07 0)
(-8.58857e-07 -1.74412e-07 0)
(-2.69919e-07 -1.34579e-07 0)
(1.87073e-07 -9.18337e-08 0)
(5.05708e-07 -4.67253e-08 0)
(6.82984e-07 -5.31487e-10 0)
(7.21265e-07 4.42709e-08 0)
(6.31717e-07 8.32031e-08 0)
(4.40505e-07 1.07659e-07 0)
(2.07654e-07 1.01576e-07 0)
(4.56509e-08 4.57063e-08 0)
(1.21887e-07 -2.2001e-07 0)
(4.02815e-07 -3.64149e-07 0)
(7.0313e-07 -3.39533e-07 0)
(8.41899e-07 -1.75703e-07 0)
(7.08689e-07 5.95754e-08 0)
(2.41693e-07 3.28498e-07 0)
(-5.89872e-07 6.09173e-07 0)
(-1.79409e-06 8.88309e-07 0)
(-3.36485e-06 1.15693e-06 0)
(-5.28697e-06 1.40902e-06 0)
(-7.53973e-06 1.64152e-06 0)
(-1.00987e-05 1.85343e-06 0)
(-1.2937e-05 2.0444e-06 0)
(-1.60256e-05 2.21401e-06 0)
(-1.93355e-05 2.36188e-06 0)
(-2.28377e-05 2.4883e-06 0)
(-2.65041e-05 2.59425e-06 0)
(-3.03072e-05 2.6808e-06 0)
(-3.42198e-05 2.74875e-06 0)
(-3.82162e-05 2.79877e-06 0)
(-4.22718e-05 2.83164e-06 0)
(-4.63635e-05 2.84845e-06 0)
(-5.04694e-05 2.85036e-06 0)
(-5.4569e-05 2.8384e-06 0)
(-5.86429e-05 2.81351e-06 0)
(-6.26729e-05 2.77651e-06 0)
(-6.66424e-05 2.72815e-06 0)
(-7.0536e-05 2.66936e-06 0)
(-7.43394e-05 2.60114e-06 0)
(-7.80394e-05 2.52431e-06 0)
(-8.16239e-05 2.43955e-06 0)
(-8.50816e-05 2.34747e-06 0)
(-8.84025e-05 2.24867e-06 0)
(-9.15774e-05 2.14378e-06 0)
(-9.4598e-05 2.03348e-06 0)
(-9.74564e-05 1.91837e-06 0)
(-0.000100146 1.79887e-06 0)
(-0.00010266 1.67534e-06 0)
(-0.000104994 1.54816e-06 0)
(-0.000107141 1.41781e-06 0)
(-0.000109099 1.28472e-06 0)
(-0.000110863 1.14927e-06 0)
(-0.000112429 1.01174e-06 0)
(-0.000113795 8.7239e-07 0)
(-0.000114959 7.31463e-07 0)
(-0.000115918 5.89257e-07 0)
(-0.000116671 4.46109e-07 0)
(-0.000117216 3.02333e-07 0)
(-0.000117553 1.58188e-07 0)
(-0.000117681 1.39073e-08 0)
(-0.000117601 -1.3029e-07 0)
(-0.000117312 -2.74169e-07 0)
(-0.000116815 -4.17468e-07 0)
(-0.000116111 -5.59893e-07 0)
(-0.000115202 -7.01155e-07 0)
(-0.00011409 -8.41014e-07 0)
(-0.000112776 -9.79241e-07 0)
(-0.000111263 -1.11557e-06 0)
(-0.000109555 -1.24969e-06 0)
(-0.000107655 -1.38128e-06 0)
(-0.000105567 -1.50999e-06 0)
(-0.000103296 -1.6355e-06 0)
(-0.000100845 -1.7574e-06 0)
(-9.82219e-05 -1.87532e-06 0)
(-9.54313e-05 -1.98885e-06 0)
(-9.24804e-05 -2.09756e-06 0)
(-8.93767e-05 -2.20095e-06 0)
(-8.61281e-05 -2.2985e-06 0)
(-8.27436e-05 -2.38965e-06 0)
(-7.92329e-05 -2.47383e-06 0)
(-7.56067e-05 -2.55044e-06 0)
(-7.18763e-05 -2.6188e-06 0)
(-6.80544e-05 -2.6782e-06 0)
(-6.41543e-05 -2.7279e-06 0)
(-6.01908e-05 -2.76712e-06 0)
(-5.61794e-05 -2.79502e-06 0)
(-5.21372e-05 -2.81077e-06 0)
(-4.80821e-05 -2.81348e-06 0)
(-4.40333e-05 -2.80226e-06 0)
(-4.00114e-05 -2.77621e-06 0)
(-3.6038e-05 -2.73441e-06 0)
(-3.21361e-05 -2.67595e-06 0)
(-2.83295e-05 -2.60001e-06 0)
(-2.46432e-05 -2.50581e-06 0)
(-2.11032e-05 -2.39264e-06 0)
(-1.77362e-05 -2.25988e-06 0)
(-1.45693e-05 -2.10708e-06 0)
(-1.16299e-05 -1.93397e-06 0)
(-8.94506e-06 -1.7406e-06 0)
(-6.54124e-06 -1.52747e-06 0)
(-4.44314e-06 -1.29566e-06 0)
(-2.67287e-06 -1.04713e-06 0)
(-1.24833e-06 -7.85234e-07 0)
(-1.80991e-07 -5.15255e-07 0)
(5.27276e-07 -2.45875e-07 0)
(8.89027e-07 8.9425e-09 0)
(9.37049e-07 2.26863e-07 0)
(7.32333e-07 3.72506e-07 0)
(3.89773e-07 3.89823e-07 0)
(1.01491e-07 2.07778e-07 0)
(1.09471e-07 -4.47522e-07 0)
(3.5198e-07 -6.83372e-07 0)
(5.24382e-07 -5.08697e-07 0)
(4.06418e-07 -5.62056e-08 0)
(-1.30696e-07 5.6312e-07 0)
(-1.16242e-06 1.27044e-06 0)
(-2.7305e-06 2.01393e-06 0)
(-4.85061e-06 2.75904e-06 0)
(-7.51827e-06 3.48262e-06 0)
(-1.07146e-05 4.16918e-06 0)
(-1.44111e-05 4.80871e-06 0)
(-1.85737e-05 5.3953e-06 0)
(-2.31635e-05 5.92593e-06 0)
(-2.81392e-05 6.39906e-06 0)
(-3.34575e-05 6.81402e-06 0)
(-3.90747e-05 7.17113e-06 0)
(-4.49475e-05 7.47168e-06 0)
(-5.1034e-05 7.71764e-06 0)
(-5.72927e-05 7.9112e-06 0)
(-6.36839e-05 8.05454e-06 0)
(-7.0169e-05 8.15002e-06 0)
(-7.67117e-05 8.20016e-06 0)
(-8.32777e-05 8.20761e-06 0)
(-8.98345e-05 8.17515e-06 0)
(-9.63514e-05 8.10551e-06 0)
(-0.0001028 8.00115e-06 0)
(-0.000109154 7.86447e-06 0)
(-0.000115387 7.69789e-06 0)
(-0.000121478 7.50377e-06 0)
(-0.000127405 7.28439e-06 0)
(-0.000133149 7.0419e-06 0)
(-0.000138691 6.77823e-06 0)
(-0.000144016 6.49513e-06 0)
(-0.000149108 6.19434e-06 0)
(-0.000153954 5.87757e-06 0)
(-0.000158541 5.5464e-06 0)
(-0.000162858 5.20224e-06 0)
(-0.000166895 4.84638e-06 0)
(-0.000170643 4.48002e-06 0)
(-0.000174094 4.10429e-06 0)
(-0.00017724 3.72031e-06 0)
(-0.000180075 3.32913e-06 0)
(-0.000182594 2.93174e-06 0)
(-0.000184793 2.529e-06 0)
(-0.000186666 2.12178e-06 0)
(-0.000188211 1.7109e-06 0)
(-0.000189425 1.29718e-06 0)
(-0.000190306 8.81436e-07 0)
(-0.000190852 4.64463e-07 0)
(-0.000191063 4.70352e-08 0)
(-0.000190939 -3.70117e-07 0)
(-0.00019048 -7.8628e-07 0)
(-0.000189688 -1.20071e-06 0)
(-0.000188563 -1.61265e-06 0)
(-0.000187109 -2.02133e-06 0)
(-0.000185327 -2.42597e-06 0)
(-0.000183223 -2.8258e-06 0)
(-0.0001808 -3.21997e-06 0)
(-0.000178063 -3.60761e-06 0)
(-0.000175017 -3.98781e-06 0)
(-0.000171671 -4.35962e-06 0)
(-0.000168029 -4.72201e-06 0)
(-0.000164101 -5.0739e-06 0)
(-0.000159896 -5.41414e-06 0)
(-0.000155423 -5.74152e-06 0)
(-0.000150694 -6.05476e-06 0)
(-0.00014572 -6.35246e-06 0)
(-0.000140515 -6.63313e-06 0)
(-0.000135092 -6.89523e-06 0)
(-0.000129468 -7.13705e-06 0)
(-0.00012366 -7.3568e-06 0)
(-0.000117687 -7.55261e-06 0)
(-0.000111567 -7.72246e-06 0)
(-0.000105323 -7.86427e-06 0)
(-9.89791e-05 -7.97585e-06 0)
(-9.25591e-05 -8.05486e-06 0)
(-8.60903e-05 -8.09895e-06 0)
(-7.96013e-05 -8.1057e-06 0)
(-7.31226e-05 -8.07267e-06 0)
(-6.66864e-05 -7.99743e-06 0)
(-6.03269e-05 -7.8776e-06 0)
(-5.40797e-05 -7.71085e-06 0)
(-4.79822e-05 -7.49501e-06 0)
(-4.20732e-05 -7.2281e-06 0)
(-3.63926e-05 -6.90848e-06 0)
(-3.09811e-05 -6.53482e-06 0)
(-2.588e-05 -6.10638e-06 0)
(-2.11303e-05 -5.6231e-06 0)
(-1.67724e-05 -5.08591e-06 0)
(-1.28446e-05 -4.49705e-06 0)
(-9.38238e-06 -3.86064e-06 0)
(-6.41629e-06 -3.1834e-06 0)
(-3.96998e-06 -2.47573e-06 0)
(-2.05697e-06 -1.75338e-06 0)
(-6.76593e-07 -1.03995e-06 0)
(1.91465e-07 -3.70452e-07 0)
(5.937e-07 2.0336e-07 0)
(6.0908e-07 6.06172e-07 0)
(3.73919e-07 7.32771e-07 0)
(1.07815e-07 4.40817e-07 0)
(7.73057e-08 -6.28051e-07 0)
(1.83919e-07 -8.37739e-07 0)
(7.41701e-08 -3.96625e-07 0)
(-4.59302e-07 4.79313e-07 0)
(-1.54856e-06 1.62893e-06 0)
(-3.27351e-06 2.93194e-06 0)
(-5.67945e-06 4.30217e-06 0)
(-8.7842e-06 5.67975e-06 0)
(-1.25839e-05 7.02361e-06 0)
(-1.70578e-05 8.30544e-06 0)
(-2.21726e-05 9.50562e-06 0)
(-2.78862e-05 1.06113e-05 0)
(-3.41507e-05 1.16147e-05 0)
(-4.09149e-05 1.2512e-05 0)
(-4.81245e-05 1.33015e-05 0)
(-5.57244e-05 1.39834e-05 0)
(-6.36589e-05 1.45591e-05 0)
(-7.18733e-05 1.50313e-05 0)
(-8.03141e-05 1.54035e-05 0)
(-8.89293e-05 1.56798e-05 0)
(-9.76688e-05 1.58648e-05 0)
(-0.000106485 1.5963e-05 0)
(-0.000115332 1.5979e-05 0)
(-0.000124166 1.59179e-05 0)
(-0.000132948 1.57846e-05 0)
(-0.000141638 1.55839e-05 0)
(-0.000150202 1.53207e-05 0)
(-0.000158606 1.49994e-05 0)
(-0.000166819 1.46244e-05 0)
(-0.000174813 1.41999e-05 0)
(-0.000182561 1.37301e-05 0)
(-0.00019004 1.32187e-05 0)
(-0.000197226 1.26693e-05 0)
(-0.0002041 1.20853e-05 0)
(-0.000210643 1.14698e-05 0)
(-0.000216838 1.08258e-05 0)
(-0.00022267 1.0156e-05 0)
(-0.000228125 9.46317e-06 0)
(-0.000233191 8.74962e-06 0)
(-0.000237856 8.0176e-06 0)
(-0.00024211 7.26924e-06 0)
(-0.000245945 6.50654e-06 0)
(-0.000249354 5.73141e-06 0)
(-0.000252329 4.94566e-06 0)
(-0.000254866 4.15104e-06 0)
(-0.000256959 3.34921e-06 0)
(-0.000258605 2.54175e-06 0)
(-0.000259801 1.73024e-06 0)
(-0.000260545 9.16198e-07 0)
(-0.000260837 1.01156e-07 0)
(-0.000260675 -7.13412e-07 0)
(-0.000260061 -1.52605e-06 0)
(-0.000258996 -2.33528e-06 0)
(-0.000257482 -3.13962e-06 0)
(-0.000255522 -3.93758e-06 0)
(-0.000253121 -4.72763e-06 0)
(-0.000250283 -5.50815e-06 0)
(-0.000247015 -6.27752e-06 0)
(-0.000243322 -7.03402e-06 0)
(-0.000239214 -7.77585e-06 0)
(-0.000234698 -8.50114e-06 0)
(-0.000229784 -9.20786e-06 0)
(-0.000224485 -9.89391e-06 0)
(-0.000218811 -1.05571e-05 0)
(-0.000212776 -1.11949e-05 0)
(-0.000206395 -1.1805e-05 0)
(-0.000199685 -1.23845e-05 0)
(-0.000192663 -1.29306e-05 0)
(-0.00018535 -1.34403e-05 0)
(-0.000177765 -1.39102e-05 0)
(-0.000169933 -1.4337e-05 0)
(-0.000161878 -1.4717e-05 0)
(-0.000153628 -1.50463e-05 0)
(-0.000145211 -1.53209e-05 0)
(-0.000136659 -1.55367e-05 0)
(-0.000128005 -1.56893e-05 0)
(-0.000119286 -1.57742e-05 0)
(-0.000110539 -1.57869e-05 0)
(-0.000101805 -1.57229e-05 0)
(-9.31269e-05 -1.55776e-05 0)
(-8.45495e-05 -1.53467e-05 0)
(-7.612e-05 -1.50261e-05 0)
(-6.78872e-05 -1.4612e-05 0)
(-5.99017e-05 -1.41009e-05 0)
(-5.22152e-05 -1.349e-05 0)
(-4.48805e-05 -1.27776e-05 0)
(-3.79502e-05 -1.19628e-05 0)
(-3.14766e-05 -1.10464e-05 0)
(-2.55102e-05 -1.0031e-05 0)
(-2.00989e-05 -8.9219e-06 0)
(-1.5286e-05 -7.72808e-06 0)
(-1.11084e-05 -6.46325e-06 0)
(-7.59352e-06 -5.14782e-06 0)
(-4.75657e-06 -3.81132e-06 0)
(-2.5957e-06 -2.49607e-06 0)
(-1.08698e-06 -1.26206e-06 0)
(-1.78975e-07 -1.93614e-07 0)
(2.14334e-07 5.92591e-07 0)
(2.31882e-07 9.40668e-07 0)
(8.40887e-08 6.3344e-07 0)
(3.52324e-08 -6.88752e-07 0)
(-4.98649e-08 -7.15806e-07 0)
(-5.37459e-07 1.31338e-07 0)
(-1.59427e-06 1.56436e-06 0)
(-3.33773e-06 3.3747e-06 0)
(-5.8464e-06 5.40337e-06 0)
(-9.1638e-06 7.53197e-06 0)
(-1.33055e-05 9.67434e-06 0)
(-1.82652e-05 1.17689e-05 0)
(-2.40195e-05 1.37723e-05 0)
(-3.05312e-05 1.56542e-05 0)
(-3.77524e-05 1.73937e-05 0)
(-4.56282e-05 1.8977e-05 0)
(-5.40985e-05 2.03962e-05 0)
(-6.31007e-05 2.16476e-05 0)
(-7.257e-05 2.27309e-05 0)
(-8.24409e-05 2.36475e-05 0)
(-9.26482e-05 2.44009e-05 0)
(-0.000103128 2.49958e-05 0)
(-0.000113817 2.54382e-05 0)
(-0.000124657 2.57346e-05 0)
(-0.000135588 2.58923e-05 0)
(-0.000146555 2.59186e-05 0)
(-0.000157507 2.5821e-05 0)
(-0.000168392 2.56071e-05 0)
(-0.000179166 2.52844e-05 0)
(-0.000189783 2.48605e-05 0)
(-0.000200203 2.43427e-05 0)
(-0.000210388 2.37379e-05 0)
(-0.000220302 2.30528e-05 0)
(-0.000229914 2.22938e-05 0)
(-0.000239192 2.14671e-05 0)
(-0.00024811 2.05783e-05 0)
(-0.000256641 1.9633e-05 0)
(-0.000264763 1.86364e-05 0)
(-0.000272455 1.7593e-05 0)
(-0.000279698 1.65074e-05 0)
(-0.000286473 1.53838e-05 0)
(-0.000292766 1.42262e-05 0)
(-0.000298563 1.30383e-05 0)
(-0.00030385 1.18235e-05 0)
(-0.000308618 1.05852e-05 0)
(-0.000312857 9.32639e-06 0)
(-0.000316558 8.05003e-06 0)
(-0.000319714 6.759e-06 0)
(-0.00032232 5.45605e-06 0)
(-0.00032437 4.14382e-06 0)
(-0.000325862 2.8249e-06 0)
(-0.000326793 1.50178e-06 0)
(-0.000327161 1.7691e-07 0)
(-0.000326966 -1.14729e-06 0)
(-0.00032621 -2.46839e-06 0)
(-0.000324892 -3.78395e-06 0)
(-0.000323018 -5.09152e-06 0)
(-0.00032059 -6.38867e-06 0)
(-0.000317613 -7.67286e-06 0)
(-0.000314095 -8.94147e-06 0)
(-0.000310041 -1.01918e-05 0)
(-0.000305461 -1.1421e-05 0)
(-0.000300364 -1.26263e-05 0)
(-0.000294762 -1.38044e-05 0)
(-0.000288666 -1.49521e-05 0)
(-0.000282091 -1.6066e-05 0)
(-0.000275051 -1.71424e-05 0)
(-0.000267565 -1.81775e-05 0)
(-0.00025965 -1.91671e-05 0)
(-0.000251326 -2.01068e-05 0)
(-0.000242617 -2.09921e-05 0)
(-0.000233546 -2.18179e-05 0)
(-0.000224141 -2.25791e-05 0)
(-0.000214428 -2.327e-05 0)
(-0.00020444 -2.38849e-05 0)
(-0.000194211 -2.44176e-05 0)
(-0.000183775 -2.48616e-05 0)
(-0.000173172 -2.52104e-05 0)
(-0.000162442 -2.5457e-05 0)
(-0.000151631 -2.55945e-05 0)
(-0.000140784 -2.56159e-05 0)
(-0.000129952 -2.5514e-05 0)
(-0.000119185 -2.52819e-05 0)
(-0.00010854 -2.4913e-05 0)
(-9.80716e-05 -2.44011e-05 0)
(-8.78402e-05 -2.37405e-05 0)
(-7.79061e-05 -2.29263e-05 0)
(-6.83311e-05 -2.19548e-05 0)
(-5.91776e-05 -2.08237e-05 0)
(-5.05081e-05 -1.95327e-05 0)
(-4.23837e-05 -1.80837e-05 0)
(-3.48635e-05 -1.64823e-05 0)
(-2.80027e-05 -1.47378e-05 0)
(-2.18509e-05 -1.28654e-05 0)
(-1.64501e-05 -1.08876e-05 0)
(-1.18313e-05 -8.83644e-06 0)
(-8.01186e-06 -6.75713e-06 0)
(-4.99119e-06 -4.71216e-06 0)
(-2.7461e-06 -2.7872e-06 0)
(-1.22586e-06 -1.09864e-06 0)
(-3.4608e-07 1.98637e-07 0)
(1.96594e-08 9.01122e-07 0)
(4.63401e-08 7.26881e-07 0)
(-9.90108e-09 -6.17211e-07 0)
(-3.14062e-07 -2.64235e-07 0)
(-1.23521e-06 1.14784e-06 0)
(-2.88193e-06 3.27966e-06 0)
(-5.34677e-06 5.88026e-06 0)
(-8.69943e-06 8.75626e-06 0)
(-1.29771e-05 1.17604e-05 0)
(-1.81901e-05 1.4782e-05 0)
(-2.43276e-05 1.77391e-05 0)
(-3.13616e-05 2.05721e-05 0)
(-3.92503e-05 2.32384e-05 0)
(-4.79412e-05 2.57083e-05 0)
(-5.73733e-05 2.79615e-05 0)
(-6.74796e-05 2.99854e-05 0)
(-7.81898e-05 3.17733e-05 0)
(-8.94312e-05 3.33232e-05 0)
(-0.00010113 3.46367e-05 0)
(-0.000113212 3.57178e-05 0)
(-0.000125605 3.65726e-05 0)
(-0.000138238 3.72087e-05 0)
(-0.00015104 3.7635e-05 0)
(-0.000163947 3.78612e-05 0)
(-0.000176892 3.78977e-05 0)
(-0.000189817 3.77549e-05 0)
(-0.000202663 3.74436e-05 0)
(-0.000215376 3.69744e-05 0)
(-0.000227905 3.63578e-05 0)
(-0.000240201 3.56041e-05 0)
(-0.000252222 3.47236e-05 0)
(-0.000263924 3.37257e-05 0)
(-0.00027527 3.26198e-05 0)
(-0.000286224 3.14144e-05 0)
(-0.000296754 3.0118e-05 0)
(-0.000306829 2.87386e-05 0)
(-0.000316422 2.72834e-05 0)
(-0.000325509 2.57596e-05 0)
(-0.000334065 2.41736e-05 0)
(-0.000342072 2.25315e-05 0)
(-0.000349509 2.08391e-05 0)
(-0.000356361 1.91019e-05 0)
(-0.000362613 1.7325e-05 0)
(-0.000368251 1.55131e-05 0)
(-0.000373264 1.3671e-05 0)
(-0.000377643 1.18029e-05 0)
(-0.000381378 9.91303e-06 0)
(-0.000384463 8.00543e-06 0)
(-0.000386892 6.08402e-06 0)
(-0.000388661 4.15263e-06 0)
(-0.000389767 2.21495e-06 0)
(-0.000390208 2.74605e-07 0)
(-0.000389984 -1.66483e-06 0)
(-0.000389095 -3.59976e-06 0)
(-0.000387545 -5.5266e-06 0)
(-0.000385335 -7.44175e-06 0)
(-0.000382472 -9.34154e-06 0)
(-0.000378961 -1.12222e-05 0)
(-0.000374808 -1.30799e-05 0)
(-0.000370024 -1.49107e-05 0)
(-0.000364618 -1.67104e-05 0)
(-0.000358602 -1.84747e-05 0)
(-0.000351988 -2.0199e-05 0)
(-0.000344792 -2.18785e-05 0)
(-0.00033703 -2.35081e-05 0)
(-0.00032872 -2.50827e-05 0)
(-0.000319882 -2.65963e-05 0)
(-0.000310539 -2.80432e-05 0)
(-0.000300715 -2.94167e-05 0)
(-0.000290435 -3.07103e-05 0)
(-0.000279729 -3.19167e-05 0)
(-0.000268629 -3.30283e-05 0)
(-0.000257167 -3.4037e-05 0)
(-0.00024538 -3.49345e-05 0)
(-0.000233308 -3.57119e-05 0)
(-0.000220993 -3.636e-05 0)
(-0.00020848 -3.68693e-05 0)
(-0.000195817 -3.72301e-05 0)
(-0.000183056 -3.74323e-05 0)
(-0.000170251 -3.74662e-05 0)
(-0.00015746 -3.73219e-05 0)
(-0.000144741 -3.69896e-05 0)
(-0.00013216 -3.64603e-05 0)
(-0.000119781 -3.57255e-05 0)
(-0.000107671 -3.47775e-05 0)
(-9.59005e-05 -3.36101e-05 0)
(-8.45392e-05 -3.22186e-05 0)
(-7.3658e-05 -3.06008e-05 0)
(-6.33273e-05 -2.8757e-05 0)
(-5.36159e-05 -2.66913e-05 0)
(-4.45897e-05 -2.44124e-05 0)
(-3.63103e-05 -2.1935e-05 0)
(-2.88326e-05 -1.92814e-05 0)
(-2.22033e-05 -1.64836e-05 0)
(-1.64575e-05 -1.35867e-05 0)
(-1.16159e-05 -1.0652e-05 0)
(-7.68154e-06 -7.76222e-06 0)
(-4.63574e-06 -5.02774e-06 0)
(-2.43366e-06 -2.59454e-06 0)
(-9.99036e-07 -6.52295e-07 0)
(-2.27794e-07 5.55128e-07 0)
(3.13324e-09 6.96078e-07 0)
(-5.63208e-08 -4.02971e-07 0)
(-5.89319e-07 5.46594e-07 0)
(-1.97003e-06 2.69633e-06 0)
(-4.24169e-06 5.67299e-06 0)
(-7.46617e-06 9.19303e-06 0)
(-1.16983e-05 1.30335e-05 0)
(-1.69645e-05 1.70213e-05 0)
(-2.32673e-05 2.10239e-05 0)
(-3.05893e-05 2.49404e-05 0)
(-3.88965e-05 2.86953e-05 0)
(-4.81418e-05 3.22334e-05 0)
(-5.82674e-05 3.55154e-05 0)
(-6.92068e-05 3.85141e-05 0)
(-8.08874e-05 4.12117e-05 0)
(-9.32319e-05 4.35982e-05 0)
(-0.000106161 4.56696e-05 0)
(-0.000119593 4.74268e-05 0)
(-0.000133448 4.88742e-05 0)
(-0.000147645 5.00192e-05 0)
(-0.000162104 5.08712e-05 0)
(-0.00017675 5.14415e-05 0)
(-0.000191507 5.17424e-05 0)
(-0.000206305 5.17872e-05 0)
(-0.000221075 5.15897e-05 0)
(-0.000235753 5.11641e-05 0)
(-0.000250278 5.05243e-05 0)
(-0.000264591 4.96844e-05 0)
(-0.000278639 4.8658e-05 0)
(-0.000292372 4.74587e-05 0)
(-0.000305742 4.60992e-05 0)
(-0.000318705 4.45921e-05 0)
(-0.000331223 4.29491e-05 0)
(-0.000343256 4.11815e-05 0)
(-0.000354771 3.92999e-05 0)
(-0.000365736 3.73144e-05 0)
(-0.000376124 3.52345e-05 0)
(-0.000385907 3.30691e-05 0)
(-0.000395062 3.08266e-05 0)
(-0.000403567 2.85148e-05 0)
(-0.000411405 2.61412e-05 0)
(-0.000418556 2.37127e-05 0)
(-0.000425007 2.1236e-05 0)
(-0.000430744 1.87175e-05 0)
(-0.000435755 1.61631e-05 0)
(-0.000440032 1.35787e-05 0)
(-0.000443565 1.09696e-05 0)
(-0.000446348 8.3415e-06 0)
(-0.000448376 5.69944e-06 0)
(-0.000449646 3.04858e-06 0)
(-0.000450156 3.93943e-07 0)
(-0.000449906 -2.25952e-06 0)
(-0.000448895 -4.90687e-06 0)
(-0.000447128 -7.54316e-06 0)
(-0.000444607 -1.01634e-05 0)
(-0.000441338 -1.27626e-05 0)
(-0.000437328 -1.53355e-05 0)
(-0.000432585 -1.78768e-05 0)
(-0.00042712 -2.0381e-05 0)
(-0.000420944 -2.28424e-05 0)
(-0.00041407 -2.52551e-05 0)
(-0.000406514 -2.76128e-05 0)
(-0.000398292 -2.99089e-05 0)
(-0.000389423 -3.21365e-05 0)
(-0.000379929 -3.42884e-05 0)
(-0.000369832 -3.63566e-05 0)
(-0.000359158 -3.83331e-05 0)
(-0.000347934 -4.02092e-05 0)
(-0.00033619 -4.19757e-05 0)
(-0.00032396 -4.36227e-05 0)
(-0.000311279 -4.51401e-05 0)
(-0.000298186 -4.6517e-05 0)
(-0.000284722 -4.77419e-05 0)
(-0.000270931 -4.88031e-05 0)
(-0.000256862 -4.96882e-05 0)
(-0.000242566 -5.03846e-05 0)
(-0.000228097 -5.08792e-05 0)
(-0.000213514 -5.1159e-05 0)
(-0.000198877 -5.12109e-05 0)
(-0.00018425 -5.10219e-05 0)
(-0.000169702 -5.05796e-05 0)
(-0.000155302 -4.9872e-05 0)
(-0.000141123 -4.88884e-05 0)
(-0.000127241 -4.76192e-05 0)
(-0.000113733 -4.60568e-05 0)
(-0.000100675 -4.41959e-05 0)
(-8.81461e-05 -4.20343e-05 0)
(-7.62232e-05 -3.95736e-05 0)
(-6.49816e-05 -3.68204e-05 0)
(-5.44932e-05 -3.37872e-05 0)
(-4.48251e-05 -3.04944e-05 0)
(-3.60376e-05 -2.69721e-05 0)
(-2.81819e-05 -2.32626e-05 0)
(-2.1298e-05 -1.94239e-05 0)
(-1.54116e-05 -1.55331e-05 0)
(-1.05315e-05 -1.16925e-05 0)
(-6.64678e-06 -8.03518e-06 0)
(-3.72243e-06 -4.73319e-06 0)
(-1.69505e-06 -2.00575e-06 0)
(-4.89059e-07 -1.2891e-07 0)
(-4.12157e-08 5.30607e-07 0)
(-1.0229e-07 -4.45866e-08 0)
(-8.64372e-07 1.72738e-06 0)
(-2.71145e-06 4.79637e-06 0)
(-5.62029e-06 8.76819e-06 0)
(-9.61962e-06 1.33369e-05 0)
(-1.47463e-05 1.82557e-05 0)
(-2.10126e-05 2.33296e-05 0)
(-2.84101e-05 2.84062e-05 0)
(-3.69131e-05 3.33682e-05 0)
(-4.64808e-05 3.81254e-05 0)
(-5.70598e-05 4.26103e-05 0)
(-6.85861e-05 4.67739e-05 0)
(-8.09881e-05 5.05816e-05 0)
(-9.41873e-05 5.40106e-05 0)
(-0.000108101 5.70472e-05 0)
(-0.000122643 5.96851e-05 0)
(-0.000137727 6.19242e-05 0)
(-0.000153264 6.37693e-05 0)
(-0.000169168 6.52287e-05 0)
(-0.000185353 6.63138e-05 0)
(-0.000201735 6.7038e-05 0)
(-0.000218235 6.74166e-05 0)
(-0.000234773 6.74659e-05 0)
(-0.000251275 6.72032e-05 0)
(-0.00026767 6.66461e-05 0)
(-0.000283892 6.58122e-05 0)
(-0.000299876 6.47195e-05 0)
(-0.000315563 6.33852e-05 0)
(-0.000330898 6.18264e-05 0)
(-0.000345827 6.00596e-05 0)
(-0.000360304 5.81006e-05 0)
(-0.000374282 5.59647e-05 0)
(-0.000387721 5.36663e-05 0)
(-0.000400582 5.12192e-05 0)
(-0.00041283 4.86364e-05 0)
(-0.000424433 4.593e-05 0)
(-0.000435362 4.31117e-05 0)
(-0.000445591 4.01924e-05 0)
(-0.000455095 3.71822e-05 0)
(-0.000463853 3.40909e-05 0)
(-0.000471846 3.09277e-05 0)
(-0.000479057 2.77011e-05 0)
(-0.00048547 2.44194e-05 0)
(-0.000491074 2.10906e-05 0)
(-0.000495856 1.77222e-05 0)
(-0.000499808 1.43215e-05 0)
(-0.000502923 1.08956e-05 0)
(-0.000505194 7.45128e-06 0)
(-0.000506618 3.99524e-06 0)
(-0.000507193 5.34099e-07 0)
(-0.000506918 -2.92561e-06 0)
(-0.000505794 -6.3774e-06 0)
(-0.000503823 -9.81479e-06 0)
(-0.000501011 -1.32312e-05 0)
(-0.000497364 -1.662e-05 0)
(-0.000492888 -1.99744e-05 0)
(-0.000487594 -2.32874e-05 0)
(-0.000481493 -2.65519e-05 0)
(-0.000474597 -2.97602e-05 0)
(-0.000466922 -3.29047e-05 0)
(-0.000458485 -3.59771e-05 0)
(-0.000449305 -3.89689e-05 0)
(-0.000439403 -4.1871e-05 0)
(-0.000428801 -4.4674e-05 0)
(-0.000417528 -4.73677e-05 0)
(-0.000405609 -4.99415e-05 0)
(-0.000393078 -5.23842e-05 0)
(-0.000379966 -5.46839e-05 0)
(-0.000366312 -5.68278e-05 0)
(-0.000352154 -5.88029e-05 0)
(-0.000337535 -6.0595e-05 0)
(-0.000322502 -6.21897e-05 0)
(-0.000307104 -6.35717e-05 0)
(-0.000291394 -6.47254e-05 0)
(-0.000275428 -6.56345e-05 0)
(-0.000259267 -6.62827e-05 0)
(-0.000242974 -6.66535e-05 0)
(-0.000226617 -6.67303e-05 0)
(-0.000210266 -6.6497e-05 0)
(-0.000193995 -6.59381e-05 0)
(-0.000177881 -6.50388e-05 0)
(-0.000162002 -6.37861e-05 0)
(-0.000146442 -6.21684e-05 0)
(-0.000131282 -6.01769e-05 0)
(-0.000116608 -5.78057e-05 0)
(-0.000102502 -5.5053e-05 0)
(-8.90489e-05 -5.1922e-05 0)
(-7.63289e-05 -4.84218e-05 0)
(-6.44197e-05 -4.45693e-05 0)
(-5.33936e-05 -4.0391e-05 0)
(-4.3316e-05 -3.59249e-05 0)
(-3.42436e-05 -3.12235e-05 0)
(-2.62218e-05 -2.63572e-05 0)
(-1.92827e-05 -2.14186e-05 0)
(-1.3443e-05 -1.65273e-05 0)
(-8.70196e-06 -1.18366e-05 0)
(-5.03741e-06 -7.54099e-06 0)
(-2.40182e-06 -3.88327e-06 0)
(-7.51219e-07 -1.16368e-06 0)
(-8.44294e-08 2.28558e-07 0)
(-1.45575e-07 4.5392e-07 0)
(-1.1317e-06 3.2752e-06 0)
(-3.44008e-06 7.44953e-06 0)
(-6.98318e-06 1.25707e-05 0)
(-1.17558e-05 1.83178e-05 0)
(-1.77761e-05 2.44272e-05 0)
(-2.504e-05 3.06857e-05 0)
(-3.35257e-05 3.69245e-05 0)
(-4.31978e-05 4.30109e-05 0)
(-5.40074e-05 4.88421e-05 0)
(-6.58939e-05 5.43395e-05 0)
(-7.87872e-05 5.94446e-05 0)
(-9.26094e-05 6.41158e-05 0)
(-0.000107277 6.83248e-05 0)
(-0.0001227 7.20541e-05 0)
(-0.00013879 7.52956e-05 0)
(-0.000155451 7.80479e-05 0)
(-0.000172592 8.03156e-05 0)
(-0.000190118 8.21083e-05 0)
(-0.000207939 8.34389e-05 0)
(-0.000225965 8.43233e-05 0)
(-0.00024411 8.47797e-05 0)
(-0.000262289 8.48277e-05 0)
(-0.000280423 8.44878e-05 0)
(-0.000298435 8.37815e-05 0)
(-0.000316252 8.27304e-05 0)
(-0.000333806 8.13561e-05 0)
(-0.000351032 7.96801e-05 0)
(-0.00036787 7.77231e-05 0)
(-0.000384262 7.55055e-05 0)
(-0.000400157 7.30469e-05 0)
(-0.000415505 7.03661e-05 0)
(-0.00043026 6.74812e-05 0)
(-0.000444382 6.44091e-05 0)
(-0.000457832 6.1166e-05 0)
(-0.000470574 5.77673e-05 0)
(-0.000482577 5.42273e-05 0)
(-0.000493811 5.05597e-05 0)
(-0.000504251 4.67773e-05 0)
(-0.000513871 4.28924e-05 0)
(-0.000522652 3.89165e-05 0)
(-0.000530575 3.48604e-05 0)
(-0.000537622 3.07345e-05 0)
(-0.00054378 2.65489e-05 0)
(-0.000549036 2.23131e-05 0)
(-0.000553381 1.80363e-05 0)
(-0.000556805 1.37273e-05 0)
(-0.000559304 9.395e-06 0)
(-0.000560872 5.04772e-06 0)
(-0.000561507 6.93837e-07 0)
(-0.000561209 -3.65837e-06 0)
(-0.000559978 -8.0007e-06 0)
(-0.000557818 -1.23249e-05 0)
(-0.000554734 -1.66227e-05 0)
(-0.000550731 -2.08856e-05 0)
(-0.000545819 -2.5105e-05 0)
(-0.000540009 -2.92722e-05 0)
(-0.000533311 -3.3378e-05 0)
(-0.000525742 -3.74129e-05 0)
(-0.000517316 -4.1367e-05 0)
(-0.000508054 -4.52302e-05 0)
(-0.000497976 -4.89916e-05 0)
(-0.000487105 -5.26399e-05 0)
(-0.000475468 -5.61631e-05 0)
(-0.000463092 -5.95486e-05 0)
(-0.000450008 -6.27831e-05 0)
(-0.000436251 -6.58525e-05 0)
(-0.000421858 -6.87419e-05 0)
(-0.000406868 -7.14356e-05 0)
(-0.000391326 -7.39171e-05 0)
(-0.000375277 -7.61691e-05 0)
(-0.000358773 -7.81736e-05 0)
(-0.000341866 -7.99119e-05 0)
(-0.000324615 -8.13644e-05 0)
(-0.000307081 -8.25116e-05 0)
(-0.000289328 -8.33333e-05 0)
(-0.000271427 -8.38092e-05 0)
(-0.00025345 -8.39195e-05 0)
(-0.000235472 -8.36445e-05 0)
(-0.000217573 -8.29655e-05 0)
(-0.000199836 -8.18651e-05 0)
(-0.000182346 -8.03276e-05 0)
(-0.00016519 -7.83399e-05 0)
(-0.000148456 -7.58916e-05 0)
(-0.000132236 -7.29766e-05 0)
(-0.000116618 -6.95937e-05 0)
(-0.000101691 -6.57474e-05 0)
(-8.75407e-05 -6.14501e-05 0)
(-7.42508e-05 -5.67229e-05 0)
(-6.18985e-05 -5.15983e-05 0)
(-5.05548e-05 -4.61222e-05 0)
(-4.02819e-05 -4.03569e-05 0)
(-3.1132e-05 -3.43846e-05 0)
(-2.31447e-05 -2.83116e-05 0)
(-1.63463e-05 -2.22734e-05 0)
(-1.07479e-05 -1.64404e-05 0)
(-6.34197e-06 -1.10252e-05 0)
(-3.09872e-06 -6.28904e-06 0)
(-1.00643e-06 -2.54925e-06 0)
(-1.25205e-07 -2.07826e-07 0)
(-1.85025e-07 1.08604e-06 0)
(-1.38661e-06 5.1799e-06 0)
(-4.14374e-06 1.06457e-05 0)
(-8.30828e-06 1.7072e-05 0)
(-1.38414e-05 2.41285e-05 0)
(-2.07422e-05 3.15398e-05 0)
(-2.899e-05 3.90794e-05 0)
(-3.85486e-05 4.65646e-05 0)
(-4.93708e-05 5.385e-05 0)
(-6.13987e-05 6.08213e-05 0)
(-7.4564e-05 6.73902e-05 0)
(-8.87896e-05 7.34898e-05 0)
(-0.000103991 7.90716e-05 0)
(-0.00012008 8.4102e-05 0)
(-0.00013696 8.85603e-05 0)
(-0.000154537 9.24358e-05 0)
(-0.000172712 9.57262e-05 0)
(-0.000191385 9.84362e-05 0)
(-0.00021046 0.000100576 0)
(-0.000229838 0.000102161 0)
(-0.000249425 0.000103209 0)
(-0.00026913 0.00010374 0)
(-0.000288864 0.000103779 0)
(-0.000308541 0.000103349 0)
(-0.00032808 0.000102475 0)
(-0.000347403 0.000101184 0)
(-0.000366437 9.94996e-05 0)
(-0.000385113 9.74489e-05 0)
(-0.000403366 9.50565e-05 0)
(-0.000421135 9.23468e-05 0)
(-0.000438364 8.93432e-05 0)
(-0.000454999 8.60684e-05 0)
(-0.000470993 8.25441e-05 0)
(-0.0004863 7.8791e-05 0)
(-0.000500878 7.48286e-05 0)
(-0.00051469 7.06754e-05 0)
(-0.000527701 6.63491e-05 0)
(-0.00053988 6.18662e-05 0)
(-0.000551198 5.72424e-05 0)
(-0.000561628 5.24926e-05 0)
(-0.000571149 4.76308e-05 0)
(-0.000579739 4.26705e-05 0)
(-0.000587381 3.76244e-05 0)
(-0.000594059 3.25047e-05 0)
(-0.00059976 2.73231e-05 0)
(-0.000604472 2.20909e-05 0)
(-0.000608188 1.68192e-05 0)
(-0.000610899 1.15184e-05 0)
(-0.000612602 6.19916e-06 0)
(-0.000613294 8.71629e-07 0)
(-0.000612973 -4.454e-06 0)
(-0.000611642 -9.76761e-06 0)
(-0.000609304 -1.5059e-05 0)
(-0.000605962 -2.0318e-05 0)
(-0.000601626 -2.55342e-05 0)
(-0.000596304 -3.06971e-05 0)
(-0.000590008 -3.57957e-05 0)
(-0.00058275 -4.08188e-05 0)
(-0.000574547 -4.57549e-05 0)
(-0.000565417 -5.05919e-05 0)
(-0.00055538 -5.53172e-05 0)
(-0.000544458 -5.99176e-05 0)
(-0.000532677 -6.43793e-05 0)
(-0.000520066 -6.86876e-05 0)
(-0.000506654 -7.28272e-05 0)
(-0.000492475 -7.67818e-05 0)
(-0.000477567 -8.05344e-05 0)
(-0.000461968 -8.40668e-05 0)
(-0.000445724 -8.73601e-05 0)
(-0.000428879 -9.03944e-05 0)
(-0.000411485 -9.31487e-05 0)
(-0.000393595 -9.56013e-05 0)
(-0.000375267 -9.77297e-05 0)
(-0.000356564 -9.95108e-05 0)
(-0.000337551 -0.000100921 0)
(-0.000318297 -0.000101936 0)
(-0.000298877 -0.000102532 0)
(-0.000279367 -0.000102686 0)
(-0.000259849 -0.000102374 0)
(-0.000240407 -0.000101574 0)
(-0.000221128 -0.000100267 0)
(-0.000202104 -9.8433e-05 0)
(-0.000183425 -9.60582e-05 0)
(-0.000165188 -9.31311e-05 0)
(-0.000147485 -8.96449e-05 0)
(-0.000130412 -8.55989e-05 0)
(-0.000114063 -8.09996e-05 0)
(-9.85291e-05 -7.5862e-05 0)
(-8.3898e-05 -7.02118e-05 0)
(-7.02528e-05 -6.40872e-05 0)
(-5.76704e-05 -5.75415e-05 0)
(-4.62194e-05 -5.06461e-05 0)
(-3.59591e-05 -4.3494e-05 0)
(-2.69382e-05 -3.62038e-05 0)
(-1.91932e-05 -2.89243e-05 0)
(-1.27485e-05 -2.18404e-05 0)
(-7.61247e-06 -1.51792e-05 0)
(-3.77332e-06 -9.21531e-06 0)
(-1.25114e-06 -4.27738e-06 0)
(-1.63574e-07 -7.73122e-07 0)
(-2.21379e-07 1.84476e-06 0)
(-1.62735e-06 7.42779e-06 0)
(-4.81572e-06 1.43679e-05 0)