/*--------------------------------*- C++ -*----------------------------------*\
  =========                 |
  \\      /  F ield         | OpenFOAM: The Open Source CFD Toolbox
   \\    /   O peration     | Website:  https://openfoam.org
    \\  /    A nd           | Version:  7
     \\/     M anipulation  |
\*---------------------------------------------------------------------------*/
FoamFile
{
    version     2.0;
    format      ascii;
    class       volVectorField;
    location    "16.5";
    object      U;
}
// * * * * * * * * * * * * * * * * * * * * * * * * * * * * * * * * * * * * * //

dimensions      [0 1 -1 0 0 0 0];

internalField   nonuniform List<vector> 
2413
(
(2 1.4933e-15 0)
(2 1.64348e-15 0)
(2 1.77076e-15 0)
(2 2.26868e-15 0)
(2 2.51861e-15 0)
(2 3.05424e-15 0)
(2 3.44567e-15 0)
(2 3.48608e-15 0)
(2 3.32405e-15 0)
(2 2.82046e-15 0)
(2 2.34978e-15 0)
(2 2.32403e-15 0)
(2 2.31243e-15 0)
(2 2.37451e-15 0)
(2 2.40494e-15 0)
(2 2.38656e-15 0)
(2 2.28102e-15 0)
(2 1.95303e-15 0)
(2 1.27832e-15 0)
(2 1.25626e-15 0)
(2 1.01717e-15 0)
(2 6.28813e-16 0)
(2 7.88834e-18 0)
(2 -4.99124e-16 0)
(2 -9.42195e-16 0)
(2 -9.04129e-16 0)
(2 -6.51915e-16 0)
(2 -6.74e-16 0)
(2 -3.35178e-16 0)
(2 -2.21318e-16 0)
(2 -2.27233e-16 0)
(2 -2.31043e-16 0)
(2 -4.61072e-16 0)
(2 -9.29931e-16 0)
(2 -4.09309e-15 0)
(2 -2.12556e-15 0)
(2 -1.40203e-15 0)
(2 -3.90034e-16 0)
(2 -4.15672e-16 0)
(2 -4.80981e-16 0)
(2 -3.11036e-16 0)
(2 -2.57645e-17 0)
(2 9.12793e-17 0)
(2 1.43664e-16 0)
(2 3.94509e-17 0)
(2 -1.58131e-16 0)
(2 -2.02922e-16 0)
(2 -3.30098e-16 0)
(2 -3.09982e-17 0)
(2 1.03715e-17 0)
(2 4.02013e-16 0)
(2 5.43514e-16 0)
(2 5.46554e-16 0)
(2 5.48102e-16 0)
(2 4.00592e-16 0)
(2 -3.94446e-17 0)
(2 -1.09278e-16 0)
(2 -4.70126e-16 0)
(2 -2.81671e-16 0)
(2 -2.76632e-16 0)
(2 -3.4359e-16 0)
(2 -4.50198e-16 0)
(2 -6.92532e-16 0)
(2 -5.9617e-16 0)
(2 -3.4879e-16 0)
(2 4.80028e-17 0)
(2 2.95527e-16 0)
(2 1.76952e-16 0)
(2 6.85546e-16 0)
(2 1.71828e-15 0)
(2 2.34714e-15 0)
(2 2.48291e-15 0)
(2 2.48653e-15 0)
(2 2.39881e-15 0)
(2 2.26453e-15 0)
(2 2.26649e-15 0)
(2 2.18543e-15 0)
(2 2.05479e-15 0)
(2 1.87457e-15 0)
(2 1.4983e-15 0)
(2 1.20491e-15 0)
(2 9.14265e-16 0)
(2 7.45723e-16 0)
(2 7.70846e-16 0)
(2 6.44921e-16 0)
(2 6.51353e-16 0)
(2 5.41188e-16 0)
(2 4.03934e-16 0)
(2 2.28647e-16 0)
(2 6.73902e-18 0)
(2 -1.10464e-15 0)
(2 -1.5362e-15 0)
(2 -1.70449e-15 0)
(2 -1.96545e-15 0)
(2 -2.47598e-15 0)
(2 -2.35361e-15 0)
(2 -2.23965e-15 0)
(2 -2.42606e-15 0)
(2 -2.00465e-15 0)
(2 -1.23174e-15 0)
(2 -1.09098e-15 0)
(2 -7.52531e-16 0)
(2 -1.48038e-16 0)
(2 2.23228e-16 0)
(2 3.41911e-16 0)
(2 4.2102e-16 0)
(2 2.49481e-16 0)
(2 -1.75268e-16 0)
(2 -3.07258e-16 0)
(2 -3.98648e-16 0)
(2 -3.34679e-16 0)
(2 -3.53894e-16 0)
(2 -4.19307e-16 0)
(2 -1.1863e-16 0)
(2 3.12653e-16 0)
(2 6.01309e-16 0)
(2 -2.00702e-16 0)
(2 -4.42519e-16 0)
(2 -3.91533e-16 0)
(2 -1.28737e-16 0)
(2 2.03927e-16 0)
(2 5.46377e-16 0)
(2 1.13396e-15 0)
(2 1.34051e-15 0)
(2 1.4997e-15 0)
(2 1.56829e-15 0)
(2 1.61937e-15 0)
(2 1.54265e-15 0)
(2 1.53945e-15 0)
(2 1.60179e-15 0)
(2 1.60485e-15 0)
(2 1.54757e-15 0)
(2 1.5335e-15 0)
(2 1.46027e-15 0)
(2 1.12031e-15 0)
(2 1.20054e-15 0)
(2 1.48076e-15 0)
(2 1.78699e-15 0)
(2 2.0716e-15 0)
(2 2.25415e-15 0)
(2 2.31959e-15 0)
(2 2.33876e-15 0)
(2 2.26297e-15 0)
(2 2.08591e-15 0)
(2 1.87587e-15 0)
(2 1.76992e-15 0)
(2 1.42098e-15 0)
(2 1.31717e-15 0)
(2 1.35697e-15 0)
(2 1.01217e-15 0)
(2 9.49167e-16 0)
(2 5.36168e-16 0)
(2 3.7117e-16 0)
(2 9.76904e-17 0)
(2 -2.49505e-15 0)
(2 -2.1873e-15 0)
(2 -1.73258e-15 0)
(2 -1.55781e-15 0)
(2 -5.82421e-16 0)
(2 -8.62727e-17 0)
(2 4.39662e-16 0)
(2 7.61147e-16 0)
(2 7.91359e-16 0)
(2 5.8925e-16 0)
(2 5.74346e-16 0)
(2 6.72799e-16 0)
(2 5.57219e-16 0)
(2 4.82691e-16 0)
(2 5.21607e-16 0)
(2 3.73888e-16 0)
(2 1.04744e-16 0)
(2 -6.06253e-17 0)
(2 1.98194e-16 0)
(2 4.07301e-16 0)
(2 1.39363e-16 0)
(2 -1.16536e-16 0)
(2 -4.62164e-16 0)
(2 -6.0008e-16 0)
(2 -7.90785e-16 0)
(2 -9.10155e-16 0)
(2 -8.52868e-16 0)
(2 -8.13814e-16 0)
(2 -7.3715e-16 0)
(2 -5.33259e-16 0)
(2 -2.84562e-16 0)
(2 1.66718e-16 0)
(2 5.57988e-16 0)
(2 1.05183e-15 0)
(2 1.37279e-15 0)
(2 1.50797e-15 0)
(2 1.71968e-15 0)
(2 1.90223e-15 0)
(2 2.15398e-15 0)
(2 2.41224e-15 0)
(2 2.05219e-15 0)
(2 1.29473e-15 0)
(2 5.63438e-16 0)
(2 2.21465e-16 0)
(2 1.77015e-16 0)
(2 1.17018e-16 0)
(2 -5.84268e-17 0)
(2 -1.2778e-16 0)
(2 -3.18463e-16 0)
(2 -3.35002e-16 0)
(2 3.22318e-18 0)
(2 7.76623e-16 0)
(2 1.36756e-15 0)
(2 1.39176e-15 0)
(2 1.27317e-15 0)
(2 1.16459e-15 0)
(2 1.11665e-15 0)
(2 3.53997e-16 0)
(2 -4.80683e-17 0)
(2 -4.43705e-17 0)
(2 2.15194e-16 0)
(2 2.90395e-16 0)
(2 2.95022e-16 0)
(2 3.81164e-16 0)
(2 6.80295e-16 0)
(2 9.95881e-16 0)
(2 1.17333e-15 0)
(2 1.28357e-15 0)
(2 1.35382e-15 0)
(2 1.38854e-15 0)
(2 1.0859e-15 0)
(2 8.48239e-16 0)
(2 8.79979e-16 0)
(2 8.14546e-16 0)
(2 4.52015e-16 0)
(2 2.37329e-16 0)
(2 4.17491e-16 0)
(2 6.16211e-16 0)
(2 5.92583e-16 0)
(2 7.23364e-16 0)
(2 9.14189e-16 0)
(2 1.20124e-15 0)
(2 1.80238e-16 0)
(2 -7.85516e-16 0)
(2 -1.19619e-15 0)
(2 -1.42443e-15 0)
(2 -1.00704e-15 0)
(2 -6.80426e-16 0)
(2 -5.32763e-16 0)
(2 -4.29983e-16 0)
(2 -5.00388e-16 0)
(2 -4.31441e-16 0)
(2 -3.91806e-16 0)
(2 -2.49097e-16 0)
(2 1.88446e-17 0)
(2 9.24974e-17 0)
(2 8.05211e-16 0)
(2 8.91862e-16 0)
(2 5.89275e-16 0)
(2 2.52339e-16 0)
(2 3.43363e-17 0)
(2 4.97803e-17 0)
(2 1.28711e-16 0)
(2 2.66257e-16 0)
(2 6.11346e-16 0)
(2 1.6183e-15 0)
(2 3.10823e-15 0)
(2 3.53938e-15 0)
(2 3.74012e-15 0)
(2 4.1839e-15 0)
(2 4.37629e-15 0)
(2 4.2456e-15 0)
(2 4.05339e-15 0)
(2 3.85225e-15 0)
(2 3.12697e-15 0)
(2 2.56188e-15 0)
(2 2.55508e-15 0)
(2 2.80416e-15 0)
(2 3.25258e-15 0)
(2 3.53599e-15 0)
(2 -7.47472e-16 0)
(2 -7.24444e-16 0)
(2 -7.08931e-16 0)
(2 -7.95518e-16 0)
(2 -1.82935e-17 0)
(2 2.30145e-16 0)
(2 1.8765e-16 0)
(2 8.52945e-17 0)
(2 -1.49573e-16 0)
(2 -3.85001e-16 0)
(2 -3.44812e-16 0)
(2 -3.07738e-16 0)
(2 -3.05758e-16 0)
(2 -3.00109e-16 0)
(2 -3.62671e-16 0)
(2 -5.13774e-16 0)
(2 -7.29634e-16 0)
(2 -7.99333e-16 0)
(2 -8.88295e-16 0)
(2 -9.52958e-16 0)
(2 -1.06949e-15 0)
(2 -1.32124e-15 0)
(2 -1.22445e-15 0)
(2 -1.15463e-15 0)
(2 -1.17182e-15 0)
(2 -1.21244e-15 0)
(2 -1.17719e-15 0)
(2 -1.09796e-15 0)
(2 -1.00458e-15 0)
(2 -7.88783e-16 0)
(2 -4.67384e-16 0)
(2 -2.60599e-16 0)
(2 -2.57792e-16 0)
(2 -2.35097e-16 0)
(2 -2.60499e-16 0)
(2 -5.00075e-16 0)
(2 -3.08723e-16 0)
(2 -2.73842e-16 0)
(2 -3.91883e-16 0)
(2 -7.16915e-16 0)
(2 -8.23938e-16 0)
(2 -1.09682e-15 0)
(2 -1.12361e-15 0)
(2 -1.18324e-15 0)
(2 -1.21638e-15 0)
(2 -1.14186e-15 0)
(2 -1.29613e-15 0)
(2 -1.3869e-15 0)
(2 -1.55901e-15 0)
(2 -1.66501e-15 0)
(2 -1.6635e-15 0)
(2 -4.85695e-16 0)
(2 3.81478e-16 0)
(2 6.46512e-16 0)
(2 1.78998e-15 0)
(2 2.6453e-15 0)
(2 2.75797e-15 0)
(2 3.34156e-15 0)
(2 3.78172e-15 0)
(2 3.81896e-15 0)
(2 3.9135e-15 0)
(2 3.85872e-15 0)
(2 3.78098e-15 0)
(2 3.87079e-15 0)
(2 3.83326e-15 0)
(2 3.19569e-15 0)
(2 2.75422e-15 0)
(2 2.49196e-15 0)
(2 2.07696e-15 0)
(2 2.02087e-15 0)
(2 1.40603e-15 0)
(2 1.23032e-15 0)
(2 9.81566e-16 0)
(2 8.58071e-16 0)
(2 8.43684e-16 0)
(2 7.94595e-16 0)
(2 5.61389e-16 0)
(2 4.52888e-16 0)
(2 4.15827e-16 0)
(2 -1.14378e-16 0)
(2 -3.93032e-16 0)
(2 -3.67677e-16 0)
(2 4.15787e-17 0)
(2 2.86387e-16 0)
(2 3.53934e-16 0)
(2 1.52829e-16 0)
(2 -6.63335e-16 0)
(2 -8.57958e-16 0)
(2 -1.12545e-15 0)
(2 -1.15068e-15 0)
(2 -1.11532e-15 0)
(2 -1.09718e-15 0)
(2 -8.15456e-16 0)
(2 -7.18493e-16 0)
(2 -4.33065e-16 0)
(2 -2.29608e-16 0)
(2 -8.40773e-17 0)
(2 -3.17543e-17 0)
(2 -3.2269e-17 0)
(2 5.56695e-16 0)
(2 6.06617e-16 0)
(2 5.54488e-16 0)
(2 2.59049e-16 0)
(2 3.65736e-16 0)
(2 8.36614e-16 0)
(2 9.65489e-16 0)
(2 1.12286e-15 0)
(2 1.53586e-15 0)
(2 1.73546e-15 0)
(2 2.14587e-15 0)
(2 2.61846e-15 0)
(2 3.10655e-15 0)
(2 3.40944e-15 0)
(2 3.52872e-15 0)
(2 3.47078e-15 0)
(2 3.61258e-15 0)
(2 3.96452e-15 0)
(2 4.17329e-15 0)
(2 3.73711e-15 0)
(2 3.63938e-15 0)
(2 -1.10753e-15 0)
(2 -8.97037e-16 0)
(2 -4.99438e-16 0)
(2 -3.82448e-16 0)
(2 -1.10567e-16 0)
(2 1.32493e-16 0)
(2 1.18549e-16 0)
(2 4.68616e-17 0)
(2 -9.4636e-19 0)
(2 -2.19799e-16 0)
(2 -5.07556e-16 0)
(2 -4.43861e-16 0)
(2 -1.37948e-16 0)
(2 -8.96187e-17 0)
(2 -9.59081e-17 0)
(2 -3.87913e-17 0)
(2 6.53469e-17 0)
(2 1.7102e-16 0)
(2 -8.76252e-17 0)
(2 -1.92935e-16 0)
(2 -2.11041e-16 0)
(2 -2.14308e-16 0)
(2 -1.55379e-16 0)
(2 9.17971e-17 0)
(2 2.08417e-16 0)
(2 2.51886e-16 0)
(2 2.43492e-16 0)
(2 2.84445e-16 0)
(2 3.25965e-16 0)
(2 4.93256e-16 0)
(2 4.73267e-16 0)
(2 5.37743e-16 0)
(2 6.71005e-16 0)
(2 6.06613e-16 0)
(2 1.12313e-15 0)
(2 1.29577e-15 0)
(2 1.3889e-15 0)
(2 1.42281e-15 0)
(2 9.99056e-16 0)
(2 5.23485e-16 0)
(2 3.20376e-16 0)
(2 3.12337e-17 0)
(2 3.81678e-16 0)
(2 5.51239e-16 0)
(2 6.46385e-16 0)
(2 4.85318e-16 0)
(2 4.12241e-16 0)
(2 4.20411e-16 0)
(2 5.31394e-16 0)
(2 1.20795e-15 0)
(2 1.44693e-15 0)
(2 1.4386e-15 0)
(2 1.36378e-15 0)
(2 1.46398e-15 0)
(2 1.8242e-15 0)
(2 2.82409e-15 0)
(2 3.82178e-15 0)
(2 4.46144e-15 0)
(2 5.20031e-15 0)
(2 5.38899e-15 0)
(2 5.48184e-15 0)
(2 5.46167e-15 0)
(2 5.33006e-15 0)
(2 5.24437e-15 0)
(2 4.59452e-15 0)
(2 4.0053e-15 0)
(2 3.70859e-15 0)
(2 3.35695e-15 0)
(2 2.78255e-15 0)
(2 2.52318e-15 0)
(2 2.22038e-15 0)
(2 1.6356e-15 0)
(2 1.31187e-15 0)
(2 1.10973e-15 0)
(2 1.08457e-15 0)
(2 1.18999e-15 0)
(2 8.14371e-16 0)
(2 7.20204e-16 0)
(2 8.34566e-16 0)
(2 9.243e-16 0)
(2 1.30064e-15 0)
(2 1.75433e-15 0)
(2 2.08366e-15 0)
(2 2.32766e-15 0)
(2 2.46932e-15 0)
(2 2.35292e-15 0)
(2 2.16873e-15 0)
(2 1.74329e-15 0)
(2 1.47633e-15 0)
(2 9.6263e-16 0)
(2 7.56385e-16 0)
(2 8.4857e-16 0)
(2 9.28334e-16 0)
(2 1.02091e-15 0)
(2 1.03009e-15 0)
(2 9.91403e-16 0)
(2 8.93719e-16 0)
(2 8.87818e-16 0)
(2 9.28518e-16 0)
(2 1.04673e-15 0)
(2 1.56734e-15 0)
(2 2.35063e-15 0)
(2 2.94761e-15 0)
(2 2.97329e-15 0)
(2 3.27465e-15 0)
(2 3.34392e-15 0)
(2 3.67063e-15 0)
(2 3.84931e-15 0)
(2 3.96587e-15 0)
(2 3.92213e-15 0)
(2 3.94695e-15 0)
(2 3.99173e-15 0)
(2 4.03347e-15 0)
(2 3.95778e-15 0)
(2 4.02965e-15 0)
(2 4.99195e-15 0)
(2 5.234e-15 0)
(2 5.24168e-15 0)
(2 5.24665e-15 0)
(2 5.07384e-15 0)
(2 -5.44716e-16 0)
(2 -5.70436e-16 0)
(2 -3.43349e-16 0)
(2 -2.59476e-16 0)
(2 -3.3699e-16 0)
(2 -3.3582e-16 0)
(2 -1.85623e-16 0)
(2 -1.20662e-17 0)
(2 -7.18433e-17 0)
(2 2.4094e-17 0)
(2 3.26491e-17 0)
(2 9.55775e-16 0)
(2 1.25757e-15 0)
(2 1.26613e-15 0)
(2 1.4564e-15 0)
(2 1.58767e-15 0)
(2 1.50687e-15 0)
(2 1.11375e-15 0)
(2 7.45815e-16 0)
(2 9.67219e-16 0)
(2 1.10551e-15 0)
(2 1.98271e-15 0)
(2 2.1546e-15 0)
(2 2.09478e-15 0)
(2 2.33845e-15 0)
(2 2.60309e-15 0)
(2 2.80112e-15 0)
(2 2.81591e-15 0)
(2 2.57191e-15 0)
(2 2.43917e-15 0)
(2 2.03952e-15 0)
(2 1.79893e-15 0)
(2 1.80269e-15 0)
(2 1.8505e-15 0)
(2 2.05135e-15 0)
(2 2.31199e-15 0)
(2 2.58703e-15 0)
(2 2.50687e-15 0)
(2 2.50576e-15 0)
(2 1.80242e-15 0)
(2 8.98849e-16 0)
(2 4.90898e-16 0)
(2 1.34246e-16 0)
(2 -1.37409e-16 0)
(2 -1.41284e-16 0)
(2 9.56666e-17 0)
(2 2.50852e-16 0)
(2 3.67508e-16 0)
(2 5.82314e-16 0)
(2 1.1347e-15 0)
(2 1.20729e-15 0)
(2 1.20447e-15 0)
(2 7.18192e-16 0)
(2 8.16701e-16 0)
(2 1.42748e-15 0)
(2 2.36778e-15 0)
(2 2.46486e-15 0)
(2 2.85208e-15 0)
(2 3.31954e-15 0)
(2 3.46409e-15 0)
(2 3.57327e-15 0)
(2 3.54467e-15 0)
(2 3.34174e-15 0)
(2 3.00841e-15 0)
(2 2.73766e-15 0)
(2 2.52488e-15 0)
(2 2.20626e-15 0)
(2 1.90213e-15 0)
(2 1.77989e-15 0)
(2 1.79371e-15 0)
(2 1.53612e-15 0)
(2 1.44065e-15 0)
(2 1.48907e-15 0)
(2 1.51538e-15 0)
(2 1.48762e-15 0)
(2 1.59576e-15 0)
(2 2.23717e-15 0)
(2 2.55812e-15 0)
(2 2.70058e-15 0)
(2 3.17866e-15 0)
(2 3.20537e-15 0)
(2 3.18876e-15 0)
(2 3.22504e-15 0)
(2 3.43961e-15 0)
(2 3.84341e-15 0)
(2 3.98642e-15 0)
(2 3.94805e-15 0)
(2 4.03954e-15 0)
(2 4.20639e-15 0)
(2 4.55507e-15 0)
(2 4.52434e-15 0)
(2 3.92634e-15 0)
(2 2.93884e-15 0)
(2 2.90361e-15 0)
(2 2.4437e-15 0)
(2 1.62795e-15 0)
(2 1.4243e-15 0)
(2 1.46556e-15 0)
(2 1.59928e-15 0)
(2 1.59077e-15 0)
(2 1.84885e-15 0)
(2 2.17817e-15 0)
(2 2.33835e-15 0)
(2 2.4552e-15 0)
(2 2.48416e-15 0)
(2 2.44817e-15 0)
(2 2.54482e-15 0)
(2 2.79095e-15 0)
(2 2.97911e-15 0)
(2 2.94375e-15 0)
(2 2.75835e-15 0)
(2 2.74737e-15 0)
(2 2.75773e-15 0)
(2 2.85041e-15 0)
(2 3.32469e-15 0)
(2 3.67715e-15 0)
(2 3.75561e-15 0)
(2 3.96558e-15 0)
(2 4.17861e-15 0)
(2 4.31948e-15 0)
(2 8.70638e-16 0)
(2 8.85705e-16 0)
(2 8.41207e-16 0)
(2 7.62891e-16 0)
(2 5.11957e-16 0)
(2 3.22815e-16 0)
(2 2.74725e-16 0)
(2 7.64349e-17 0)
(2 3.89824e-16 0)
(2 9.87966e-16 0)
(2 1.41291e-15 0)
(2 1.3755e-15 0)
(2 1.19401e-15 0)
(2 1.33861e-15 0)
(2 1.29015e-15 0)
(2 1.07391e-15 0)
(2 9.93966e-16 0)
(2 1.16253e-15 0)
(2 1.50345e-15 0)
(2 1.66141e-15 0)
(2 1.66205e-15 0)
(2 1.61104e-15 0)
(2 1.79788e-15 0)
(2 1.87609e-15 0)
(2 1.90284e-15 0)
(2 2.17252e-15 0)
(2 2.27442e-15 0)
(2 2.49473e-15 0)
(2 2.67712e-15 0)
(2 2.78844e-15 0)
(2 2.38491e-15 0)
(2 2.09696e-15 0)
(2 1.9717e-15 0)
(2 2.01023e-15 0)
(2 1.86588e-15 0)
(2 1.81937e-15 0)
(2 2.05508e-15 0)
(2 1.5251e-15 0)
(2 1.1657e-15 0)
(2 1.06012e-15 0)
(2 8.90481e-16 0)
(2 9.69711e-16 0)
(2 -3.15944e-17 0)
(2 -6.02422e-16 0)
(2 -9.90854e-16 0)
(2 -9.50192e-16 0)
(2 8.86337e-17 0)
(2 5.8065e-16 0)
(2 9.67947e-16 0)
(2 8.77897e-16 0)
(2 3.43413e-16 0)
(2 1.81944e-16 0)
(2 3.42389e-16 0)
(2 4.55166e-16 0)
(2 6.17022e-16 0)
(2 6.74097e-16 0)
(2 1.04454e-15 0)
(2 1.28408e-15 0)
(2 1.35513e-15 0)
(2 1.44045e-15 0)
(2 1.49202e-15 0)
(2 1.41688e-15 0)
(2 1.18046e-15 0)
(2 1.17415e-15 0)
(2 1.01013e-15 0)
(2 6.5954e-16 0)
(2 4.26114e-16 0)
(2 3.88156e-16 0)
(2 5.95697e-16 0)
(2 8.33876e-16 0)
(2 1.02731e-15 0)
(2 1.32612e-15 0)
(2 1.43908e-15 0)
(2 1.52985e-15 0)
(2 1.40116e-15 0)
(2 1.94845e-15 0)
(2 2.34959e-15 0)
(2 3.0722e-15 0)
(2 3.21074e-15 0)
(2 2.82536e-15 0)
(2 2.66982e-15 0)
(2 2.51289e-15 0)
(2 2.46006e-15 0)
(2 2.49074e-15 0)
(2 2.64186e-15 0)
(2 3.08605e-15 0)
(2 3.71752e-15 0)
(2 4.22698e-15 0)
(2 4.35643e-15 0)
(2 4.90805e-15 0)
(2 4.67639e-15 0)
(2 4.30311e-15 0)
(2 3.96268e-15 0)
(2 3.712e-15 0)
(2 3.19824e-15 0)
(2 2.9792e-15 0)
(2 2.82374e-15 0)
(2 2.68343e-15 0)
(2 2.68508e-15 0)
(2 2.67943e-15 0)
(2 2.60309e-15 0)
(2 2.55084e-15 0)
(2 2.61877e-15 0)
(2 2.38201e-15 0)
(2 2.27696e-15 0)
(2 2.2447e-15 0)
(2 2.10345e-15 0)
(2 2.00193e-15 0)
(2 1.96103e-15 0)
(2 1.91987e-15 0)
(2 1.91123e-15 0)
(2 1.60061e-15 0)
(2 1.45524e-15 0)
(2 1.83122e-15 0)
(2 1.94755e-15 0)
(2 2.0806e-15 0)
(2 2.18587e-15 0)
(2 2.29225e-15 0)
(2 2.35952e-15 0)
(2 2.37545e-15 0)
(2 2.0185e-15 0)
(2 1.85682e-15 0)
(2 1.61492e-15 0)
(2 1.43699e-15 0)
(2 1.18806e-15 0)
(2 1.5393e-15 0)
(2 1.74171e-15 0)
(2 1.9367e-15 0)
(2 2.58409e-15 0)
(2 2.72047e-15 0)
(2 2.54993e-15 0)
(2 2.4384e-15 0)
(2 2.12891e-15 0)
(2 1.91311e-15 0)
(2 1.89321e-15 0)
(2 1.92465e-15 0)
(2 2.06027e-15 0)
(2 2.23503e-15 0)
(2 2.47126e-15 0)
(2 2.3512e-15 0)
(2 2.05554e-15 0)
(2 2.01168e-15 0)
(2 2.15152e-15 0)
(2 2.3228e-15 0)
(2 2.38579e-15 0)
(2 2.19412e-15 0)
(2 2.09473e-15 0)
(2 2.09282e-15 0)
(2 2.14686e-15 0)
(2 2.34024e-15 0)
(2 2.5792e-15 0)
(2 2.57923e-15 0)
(2 2.47734e-15 0)
(2 2.69636e-15 0)
(2 2.69829e-15 0)
(2 2.26972e-15 0)
(2 2.11714e-15 0)
(2 2.30085e-15 0)
(2 1.94351e-15 0)
(2 1.57959e-15 0)
(2 1.55159e-15 0)
(2 1.69387e-15 0)
(2 1.71271e-15 0)
(2 1.84019e-15 0)
(2 1.86432e-15 0)
(2 1.98336e-15 0)
(2 1.56571e-15 0)
(2 6.53632e-16 0)
(2 4.74912e-16 0)
(2 5.41946e-16 0)
(2 5.70178e-16 0)
(2 6.98725e-16 0)
(2 6.28687e-16 0)
(2 2.49336e-16 0)
(2 1.28169e-16 0)
(2 -3.09097e-17 0)
(2 -1.56279e-16 0)
(2 -2.53577e-16 0)
(2 -1.51173e-16 0)
(2 7.2675e-17 0)
(2 2.60761e-16 0)
(2 3.7246e-16 0)
(2 4.5371e-16 0)
(2 8.18499e-16 0)
(2 8.30561e-16 0)
(2 7.49739e-16 0)
(2 4.12716e-16 0)
(2 3.53684e-16 0)
(2 1.30445e-16 0)
(2 -5.62701e-17 0)
(2 2.71452e-16 0)
(2 4.49453e-16 0)
(2 1.00813e-15 0)
(2 1.46398e-15 0)
(2 1.72564e-15 0)
(2 1.75661e-15 0)
(2 1.40906e-15 0)
(2 1.20996e-15 0)
(2 1.72376e-15 0)
(2 2.11865e-15 0)
(2 2.26639e-15 0)
(2 2.43471e-15 0)
(2 2.47239e-15 0)
(2 2.64268e-15 0)
(2 2.84272e-15 0)
(2 2.89319e-15 0)
(2 2.95544e-15 0)
(2 3.02075e-15 0)
(2 2.99645e-15 0)
(2 2.90398e-15 0)
(2 2.7082e-15 0)
(2 2.873e-15 0)
(2 3.15656e-15 0)
(2 3.36526e-15 0)
(2 3.59123e-15 0)
(2 3.65646e-15 0)
(2 3.52015e-15 0)
(2 3.42092e-15 0)
(2 3.41422e-15 0)
(2 3.40999e-15 0)
(2 3.27459e-15 0)
(2 3.22345e-15 0)
(2 3.30431e-15 0)
(2 3.34023e-15 0)
(2 3.32305e-15 0)
(2 3.28355e-15 0)
(2 3.21641e-15 0)
(2 3.09969e-15 0)
(2 3.15376e-15 0)
(2 3.3488e-15 0)
(2 3.59173e-15 0)
(2 3.41413e-15 0)
(2 3.32444e-15 0)
(2 2.87258e-15 0)
(2 2.78402e-15 0)
(2 2.68189e-15 0)
(2 2.5395e-15 0)
(2 2.57569e-15 0)
(2 2.78181e-15 0)
(2 2.65888e-15 0)
(2 1.87741e-15 0)
(2 1.7638e-15 0)
(2 1.56214e-15 0)
(2 1.47567e-15 0)
(2 1.61751e-15 0)
(2 1.84159e-15 0)
(2 1.97337e-15 0)
(2 2.30238e-15 0)
(2 2.06303e-15 0)
(2 1.78333e-15 0)
(2 1.12251e-15 0)
(2 8.35859e-16 0)
(2 6.68039e-16 0)
(2 6.05446e-16 0)
(2 9.08628e-16 0)
(2 1.07517e-15 0)
(2 1.33481e-15 0)
(2 1.29928e-15 0)
(2 1.11492e-15 0)
(2 1.07989e-15 0)
(2 1.13755e-15 0)
(2 1.34303e-15 0)
(2 1.35233e-15 0)
(2 1.34849e-15 0)
(2 1.35277e-15 0)
(2 1.41624e-15 0)
(2 1.51284e-15 0)
(2 1.37075e-15 0)
(2 1.00922e-15 0)
(2 6.35511e-16 0)
(2 5.8017e-16 0)
(2 9.44796e-16 0)
(2 1.31482e-15 0)
(2 1.43282e-15 0)
(2 1.44247e-15 0)
(2 1.35882e-15 0)
(2 1.32769e-15 0)
(2 1.46018e-15 0)
(2 1.58717e-15 0)
(2 1.68528e-15 0)
(2 1.66957e-15 0)
(2 1.70693e-15 0)
(2 1.68603e-15 0)
(2 1.64292e-15 0)
(2 1.62146e-15 0)
(2 1.6059e-15 0)
(2 1.48927e-15 0)
(2 1.41618e-15 0)
(2 1.43595e-15 0)
(2 1.57084e-15 0)
(2 1.64399e-15 0)
(2 1.85673e-15 0)
(2 1.66793e-15 0)
(2 6.36041e-16 0)
(2 -3.21235e-16 0)
(2 -7.95322e-16 0)
(2 -1.14562e-15 0)
(2 -1.40073e-15 0)
(2 -8.53549e-16 0)
(2 -4.47088e-16 0)
(2 -4.25203e-16 0)
(2 -2.79874e-16 0)
(2 6.07325e-17 0)
(2 3.10346e-16 0)
(2 6.8757e-16 0)
(2 1.01272e-15 0)
(2 9.27594e-16 0)
(2 6.07677e-16 0)
(2 5.38247e-16 0)
(2 7.25995e-16 0)
(2 8.28339e-16 0)
(2 9.21562e-16 0)
(2 1.01351e-15 0)
(2 1.16334e-15 0)
(2 1.37591e-15 0)
(2 1.59729e-15 0)
(2 1.67703e-15 0)
(2 1.70171e-15 0)
(2 1.69608e-15 0)
(2 1.74626e-15 0)
(2 1.725e-15 0)
(2 1.74358e-15 0)
(2 1.75306e-15 0)
(2 1.24286e-15 0)
(2 1.02177e-15 0)
(2 8.93895e-16 0)
(2 8.82313e-16 0)
(2 9.66499e-16 0)
(2 1.03859e-15 0)
(2 1.19202e-15 0)
(2 1.08544e-15 0)
(2 1.38517e-15 0)
(2 2.2291e-15 0)
(2 2.36735e-15 0)
(2 2.44215e-15 0)
(2 2.53762e-15 0)
(2 2.70383e-15 0)
(2 2.7273e-15 0)
(2 2.68788e-15 0)
(2 2.70238e-15 0)
(2 2.58811e-15 0)
(2 2.54206e-15 0)
(2 2.50404e-15 0)
(2 2.48916e-15 0)
(2 2.46527e-15 0)
(2 2.47369e-15 0)
(2 2.47269e-15 0)
(2 2.53134e-15 0)
(2 2.70052e-15 0)
(2 2.92153e-15 0)
(2 2.99485e-15 0)
(2 3.4324e-15 0)
(2 3.50681e-15 0)
(2 3.45399e-15 0)
(2 3.28066e-15 0)
(2 2.93625e-15 0)
(2 2.69041e-15 0)
(2 2.44043e-15 0)
(2 2.21092e-15 0)
(2 2.03198e-15 0)
(2 1.48652e-15 0)
(2 1.32784e-15 0)
(2 1.03866e-15 0)
(2 8.92706e-16 0)
(2 9.91319e-16 0)
(2 1.05255e-15 0)
(2 1.05069e-15 0)
(2 1.05509e-15 0)
(2 1.14201e-15 0)
(2 3.75654e-16 0)
(2 -3.11001e-16 0)
(2 -5.35592e-16 0)
(2 -6.99977e-16 0)
(2 -9.10655e-16 0)
(2 -1.0848e-15 0)
(2 -1.45212e-15 0)
(2 -1.96876e-15 0)
(2 -2.45776e-15 0)
(2 -2.56405e-15 0)
(2 -2.13908e-15 0)
(2 -1.78068e-15 0)
(2 -1.829e-15 0)
(2 -1.91407e-15 0)
(2 -1.94907e-15 0)
(2 -2.00763e-15 0)
(2 -2.0584e-15 0)
(2 -2.42038e-15 0)
(2 -2.55555e-15 0)
(2 -2.69415e-15 0)
(2 -2.77039e-15 0)
(2 -2.80957e-15 0)
(2 -2.72314e-15 0)
(2 -2.64679e-15 0)
(2 -2.36488e-15 0)
(2 -2.17862e-15 0)
(2 -1.98173e-15 0)
(2 -1.98255e-15 0)
(2 -1.89872e-15 0)
(2 -1.61416e-15 0)
(2 -1.34963e-15 0)
(2 -6.5997e-16 0)
(2 -4.47851e-16 0)
(2 -5.71318e-16 0)
(2 -7.71504e-16 0)
(2 -8.33018e-16 0)
(2 -7.60336e-16 0)
(2 -6.75518e-16 0)
(2 -6.09479e-16 0)
(2 -4.00123e-16 0)
(2 -1.30658e-16 0)
(2 4.74415e-17 0)
(2 1.91749e-16 0)
(2 1.30795e-16 0)
(2 4.06979e-17 0)
(2 -2.46378e-17 0)
(2 -3.21226e-16 0)
(2 -4.75279e-16 0)
(2 -5.61498e-16 0)
(2 -9.05507e-16 0)
(2 -1.14496e-15 0)
(2 -1.21876e-15 0)
(2 -1.15284e-15 0)
(2 -1.02816e-15 0)
(2 -9.38065e-16 0)
(2 -8.58921e-16 0)
(2 -6.40005e-16 0)
(2 -2.9974e-16 0)
(2 7.03035e-17 0)
(2 4.98587e-16 0)
(2 2.96549e-16 0)
(2 5.15348e-17 0)
(2 -3.19543e-17 0)
(2 -3.46884e-17 0)
(2 9.10778e-17 0)
(2 9.13182e-17 0)
(2 8.35653e-17 0)
(2 8.75497e-17 0)
(2 1.24457e-16 0)
(2 1.92767e-16 0)
(2 1.68408e-16 0)
(2 1.29969e-16 0)
(2 1.18802e-16 0)
(2 -7.50837e-17 0)
(2 -2.04107e-16 0)
(2 -2.88002e-16 0)
(2 -5.55024e-16 0)
(2 -5.56159e-16 0)
(2 -6.9409e-16 0)
(2 -7.59113e-16 0)
(2 -3.9816e-16 0)
(2 -2.95317e-16 0)
(2 -2.7319e-16 0)
(2 -2.4857e-16 0)
(2 -2.24688e-16 0)
(2 -2.0775e-16 0)
(2 -2.47938e-16 0)
(2 1.82606e-16 0)
(2 3.78239e-16 0)
(2 4.1783e-16 0)
(2 4.66255e-16 0)
(2 5.06885e-16 0)
(2 4.67533e-16 0)
(2 4.17401e-16 0)
(2 3.5574e-16 0)
(2 3.26788e-16 0)
(2 3.52869e-16 0)
(2 3.16261e-16 0)
(2 2.92642e-16 0)
(2 2.54321e-16 0)
(2 1.30753e-16 0)
(2 4.40064e-17 0)
(2 6.5417e-17 0)
(2 1.18902e-16 0)
(2 1.68754e-16 0)
(2 1.56617e-16 0)
(2 1.32394e-16 0)
(2 5.02162e-17 0)
(2 -1.46171e-16 0)
(2 -1.76972e-16 0)
(2 -1.68664e-16 0)
(2 4.51886e-17 0)
(2 2.05336e-16 0)
(2 2.89665e-16 0)
(2 2.18497e-16 0)
(2 -2.49219e-16 0)
(2 -5.89497e-16 0)
(2 -9.77196e-16 0)
(2 -1.07997e-15 0)
(2 -1.13842e-15 0)
(2 -1.00976e-15 0)
(2 -9.83692e-16 0)
(2 -9.789e-16 0)
(2 -7.70748e-16 0)
(2 -7.59476e-16 0)
(2 -1.06886e-15 0)
(2 -1.77618e-15 0)
(2 -2.15727e-15 0)
(2 -2.26684e-15 0)
(2 -2.34486e-15 0)
(2 -2.39857e-15 0)
(2 -2.4863e-15 0)
(2 -2.41699e-15 0)
(2 -2.18136e-15 0)
(2 -2.14704e-15 0)
(2 -2.20641e-15 0)
(2 -2.30665e-15 0)
(2 -2.33281e-15 0)
(2 -2.35306e-15 0)
(2 -2.34529e-15 0)
(2 -2.33688e-15 0)
(2 -2.25709e-15 0)
(2 -2.46654e-15 0)
(2 -2.8888e-15 0)
(2 -2.98754e-15 0)
(2 -3.09968e-15 0)
(2 -3.12926e-15 0)
(2 -3.09679e-15 0)
(2 -3.01663e-15 0)
(2 -3.00957e-15 0)
(2 -3.01704e-15 0)
(2 -2.93493e-15 0)
(2 -2.76296e-15 0)
(2 -2.58132e-15 0)
(2 -2.45977e-15 0)
(2 -2.39873e-15 0)
(2 -2.62906e-15 0)
(2 -2.3549e-15 0)
(2 -2.05117e-15 0)
(2 -2.19498e-15 0)
(2 -2.30053e-15 0)
(2 -2.27681e-15 0)
(2 -2.28487e-15 0)
(2 -2.06891e-15 0)
(2 -1.69692e-15 0)
(2 -1.50513e-15 0)
(2 -8.97713e-16 0)
(2 -4.42529e-17 0)
(2 5.6447e-16 0)
(2 7.26991e-16 0)
(2 2.96326e-16 0)
(2 -3.95141e-16 0)
(2 -5.18067e-16 0)
(2 -6.4523e-16 0)
(2 -6.67468e-16 0)
(2 -5.77185e-16 0)
(2 -3.86729e-16 0)
(2 -4.06762e-16 0)
(2 -7.34725e-16 0)
(2 -1.45486e-15 0)
(2 -1.67479e-15 0)
(2 -1.2852e-15 0)
(2 -7.19989e-16 0)
(2 -3.74134e-16 0)
(2 -3.84152e-16 0)
(2 -5.26903e-16 0)
(2 -6.77108e-16 0)
(2 -6.67838e-16 0)
(2 -5.64576e-16 0)
(2 -3.26226e-16 0)
(2 2.09964e-17 0)
(2 2.98839e-16 0)
(2 3.96171e-16 0)
(2 3.45423e-16 0)
(2 2.37728e-16 0)
(2 1.80549e-16 0)
(2 1.83851e-16 0)
(2 -2.59379e-17 0)
(2 -3.01527e-16 0)
(2 -6.86888e-16 0)
(2 -8.59162e-16 0)
(2 -1.023e-15 0)
(2 -1.02835e-15 0)
(2 -1.04556e-15 0)
(2 -1.0437e-15 0)
(2 -1.02912e-15 0)
(2 -1.03277e-15 0)
(2 -1.05142e-15 0)
(2 -1.05326e-15 0)
(2 -1.08535e-15 0)
(2 -1.02905e-15 0)
(2 -9.77571e-16 0)
(2 -9.57115e-16 0)
(2 -9.54338e-16 0)
(2 -1.00168e-15 0)
(2 -1.01311e-15 0)
(2 -1.13126e-15 0)
(2 -1.20022e-15 0)
(2 -1.35141e-15 0)
(2 -1.5506e-15 0)
(2 -1.82817e-15 0)
(2 -1.92274e-15 0)
(2 -2.04027e-15 0)
(2 -1.88638e-15 0)
(2 -1.77088e-15 0)
(2 -1.68119e-15 0)
(2 -1.60786e-15 0)
(2 -1.64445e-15 0)
(2 -1.76711e-15 0)
(2 -1.9777e-15 0)
(2 -2.13936e-15 0)
(2 4.48364e-16 0)
(2 1.48218e-16 0)
(2 6.8622e-17 0)
(2 -5.33584e-17 0)
(2 -2.36887e-16 0)
(2 -2.28528e-16 0)
(2 -2.20442e-16 0)
(2 -4.08396e-16 0)
(2 -3.3979e-16 0)
(2 -3.1953e-16 0)
(2 -4.34111e-16 0)
(2 -5.29153e-16 0)
(2 -7.38488e-16 0)
(2 -6.53789e-16 0)
(2 -5.68658e-16 0)
(2 -4.92957e-16 0)
(2 -4.18743e-16 0)
(2 -3.02496e-16 0)
(2 -3.30105e-16 0)
(2 -5.36065e-16 0)
(2 -5.08571e-16 0)
(2 -4.71328e-16 0)
(2 -6.21435e-16 0)
(2 -9.60192e-16 0)
(2 -1.26416e-15 0)
(2 -1.4632e-15 0)
(2 -1.3951e-15 0)
(2 -1.3674e-15 0)
(2 -1.44416e-15 0)
(2 -1.60816e-15 0)
(2 -1.88644e-15 0)
(2 -1.92898e-15 0)
(2 -1.617e-15 0)
(2 -1.61197e-15 0)
(2 -1.66014e-15 0)
(2 -1.70655e-15 0)
(2 -1.55498e-15 0)
(2 -1.74126e-15 0)
(2 -1.91894e-15 0)
(2 -2.3916e-15 0)
(2 -2.50192e-15 0)
(2 -2.51095e-15 0)
(2 -2.34392e-15 0)
(2 -2.10994e-15 0)
(2 -1.62614e-15 0)
(2 -1.07098e-15 0)
(2 -9.81013e-16 0)
(2 -1.11713e-15 0)
(2 -1.1848e-15 0)
(2 -9.64237e-16 0)
(2 -7.80218e-16 0)
(2 -6.62172e-16 0)
(2 -6.49781e-16 0)
(2 -6.56777e-16 0)
(2 -6.7011e-16 0)
(2 -9.61734e-17 0)
(2 2.26684e-16 0)
(2 6.93435e-16 0)
(2 8.08137e-16 0)
(2 9.19532e-16 0)
(2 8.45847e-16 0)
(2 7.13756e-16 0)
(2 5.74912e-16 0)
(2 4.8705e-16 0)
(2 4.72314e-16 0)
(2 4.87207e-16 0)
(2 4.60379e-16 0)
(2 4.99714e-16 0)
(2 6.011e-16 0)
(2 6.43095e-16 0)
(2 7.85175e-16 0)
(2 1.28796e-15 0)
(2 1.38687e-15 0)
(2 1.30078e-15 0)
(2 1.11424e-15 0)
(2 1.20046e-15 0)
(2 1.38064e-15 0)
(2 1.53039e-15 0)
(2 1.69186e-15 0)
(2 1.60706e-15 0)
(2 1.56355e-15 0)
(2 1.54906e-15 0)
(2 1.55225e-15 0)
(2 1.15273e-15 0)
(2 6.82915e-16 0)
(2 2.2348e-16 0)
(2 -3.83963e-18 0)
(2 -6.02963e-16 0)
(2 -6.92792e-16 0)
(2 -6.865e-16 0)
(2 -7.41352e-16 0)
(2 -8.2116e-16 0)
(2 -7.98755e-16 0)
(2 -7.82669e-16 0)
(2 -7.77902e-16 0)
(2 -7.78469e-16 0)
(2 -8.06653e-16 0)
(2 -7.86241e-16 0)
(2 -8.07786e-16 0)
(2 -8.7897e-16 0)
(2 -9.56856e-16 0)
(2 -9.88234e-16 0)
(2 -1.04611e-15 0)
(2 -1.06574e-15 0)
(2 -1.08674e-15 0)
(2 -1.0917e-15 0)
(2 -1.04438e-15 0)
(2 -1.04086e-15 0)
(2 -1.15185e-15 0)
(2 -1.0904e-15 0)
(2 -1.03276e-15 0)
(2 -1.15376e-15 0)
(2 -1.26005e-15 0)
(2 -1.46416e-15 0)
(2 -1.71748e-15 0)
(2 -2.00717e-15 0)
(2 -2.36012e-15 0)
(2 -2.52043e-15 0)
(2 -2.7669e-15 0)
(2 -3.30435e-15 0)
(2 -5.10259e-16 0)
(2 -2.70602e-16 0)
(2 -1.82084e-16 0)
(2 1.711e-16 0)
(2 7.13695e-16 0)
(2 1.16791e-15 0)
(2 3.52582e-16 0)
(2 -5.15041e-16 0)
(2 -6.81938e-16 0)
(2 -7.34514e-16 0)
(2 -9.49028e-16 0)
(2 -1.07753e-15 0)
(2 -1.19911e-15 0)
(2 -1.23089e-15 0)
(2 -1.03837e-15 0)
(2 -6.37409e-16 0)
(2 -1.66237e-16 0)
(2 1.71705e-18 0)
(2 1.97386e-17 0)
(2 1.55093e-16 0)
(2 2.11573e-16 0)
(2 1.0858e-16 0)
(2 -9.04863e-17 0)
(2 -2.71253e-16 0)
(2 -2.77629e-16 0)
(2 8.85449e-17 0)
(2 -9.36639e-16 0)
(2 -1.28506e-15 0)
(2 -1.60053e-15 0)
(2 -1.72751e-15 0)
(2 -2.00358e-15 0)
(2 -2.02551e-15 0)
(2 -1.80598e-15 0)
(2 -1.53358e-15 0)
(2 -1.7795e-15 0)
(2 -2.22746e-15 0)
(2 -2.42575e-15 0)
(2 -2.58028e-15 0)
(2 -2.53244e-15 0)
(2 -2.67469e-15 0)
(2 -2.71954e-15 0)
(2 -2.75989e-15 0)
(2 -2.56886e-15 0)
(2 -2.07041e-15 0)
(2 -1.84792e-15 0)
(2 -1.1267e-15 0)
(2 -1.08271e-15 0)
(2 -1.18497e-15 0)
(2 -1.33351e-15 0)
(2 -1.19525e-15 0)
(2 -1.86248e-16 0)
(2 7.22101e-17 0)
(2 3.67548e-16 0)
(2 4.3128e-16 0)
(2 4.36656e-16 0)
(2 6.54809e-16 0)
(2 6.89668e-16 0)
(2 4.00265e-16 0)
(2 -7.49598e-17 0)
(2 -3.24512e-16 0)
(2 -3.1341e-16 0)
(2 -1.85162e-16 0)
(2 -1.27373e-16 0)
(2 -6.19899e-17 0)
(2 3.35561e-17 0)
(2 1.25938e-16 0)
(2 5.74582e-16 0)
(2 1.15372e-15 0)
(2 1.59489e-15 0)
(2 1.78569e-15 0)
(2 1.99477e-15 0)
(2 2.07495e-15 0)
(2 2.18845e-15 0)
(2 2.21489e-15 0)
(2 2.16862e-15 0)
(2 2.0194e-15 0)
(2 2.02099e-15 0)
(2 1.71286e-15 0)
(2 1.0034e-15 0)
(2 8.95811e-16 0)
(2 9.24197e-16 0)
(2 1.02894e-15 0)
(2 9.6886e-16 0)
(2 8.54386e-16 0)
(2 6.98587e-16 0)
(2 7.079e-16 0)
(2 6.79653e-16 0)
(2 5.29584e-16 0)
(2 3.74449e-16 0)
(2 1.1597e-16 0)
(2 -2.88864e-16 0)
(2 -5.641e-16 0)
(2 -6.4691e-16 0)
(2 -7.08187e-16 0)
(2 -7.95124e-16 0)
(2 -8.45701e-16 0)
(2 -8.51525e-16 0)
(2 -1.01741e-15 0)
(2 -1.07349e-15 0)
(2 -1.15375e-15 0)
(2 -1.23579e-15 0)
(2 -1.20529e-15 0)
(2 -1.10769e-15 0)
(2 -1.14396e-15 0)
(2 -1.20235e-15 0)
(2 -1.21137e-15 0)
(2 -1.16698e-15 0)
(2 -1.00741e-15 0)
(2 -7.64444e-16 0)
(2 -6.9875e-16 0)
(2 -6.91644e-16 0)
(2 -8.5052e-16 0)
(2 -1.2751e-15 0)
(2 -1.43609e-15 0)
(2 -1.83791e-15 0)
(2 -2.77012e-15 0)
(2 -3.56606e-15 0)
(2 -4.06144e-15 0)
(2 -4.53234e-15 0)
(2 -3.35636e-15 0)
(2 -9.68678e-16 0)
(2 -1.16257e-15 0)
(2 -1.2384e-15 0)
(2 -1.3077e-15 0)
(2 -1.31096e-15 0)
(2 -1.76032e-15 0)
(2 -1.98741e-15 0)
(2 -1.92879e-15 0)
(2 -1.88859e-15 0)
(2 -1.84417e-15 0)
(2 -1.7662e-15 0)
(2 -1.68784e-15 0)
(2 -1.59272e-15 0)
(2 -1.58508e-15 0)
(2 -1.71389e-15 0)
(2 -1.74743e-15 0)
(2 -1.41001e-15 0)
(2 -1.27795e-15 0)
(2 -1.22865e-15 0)
(2 -1.22847e-15 0)
(2 -1.38173e-15 0)
(2 -1.29626e-15 0)
(2 -9.66724e-16 0)
(2 -6.71824e-16 0)
(2 -5.86301e-16 0)
(2 -6.66457e-16 0)
(2 -4.21479e-16 0)
(2 -2.40496e-16 0)
(2 -3.83894e-16 0)
(2 -1.152e-15 0)
(2 -1.23365e-15 0)
(2 -1.38604e-15 0)
(2 -2.02891e-15 0)
(2 -2.21156e-15 0)
(2 -2.55487e-15 0)
(2 -2.80148e-15 0)
(2 -3.10234e-15 0)
(2 -3.22112e-15 0)
(2 -3.16663e-15 0)
(2 -2.88644e-15 0)
(2 -2.95215e-15 0)
(2 -3.01213e-15 0)
(2 -3.19521e-15 0)
(2 -3.34681e-15 0)
(2 -3.36308e-15 0)
(2 -3.32399e-15 0)
(2 -3.09641e-15 0)
(2 -2.80482e-15 0)
(2 -2.84046e-15 0)
(2 -2.99596e-15 0)
(2 -2.93688e-15 0)
(2 -2.44264e-15 0)
(2 -2.21179e-15 0)
(2 -2.07651e-15 0)
(2 -1.89353e-15 0)
(2 -1.912e-15 0)
(2 -2.17077e-15 0)
(2 -2.55008e-15 0)
(2 -2.4949e-15 0)
(2 -2.42628e-15 0)
(2 -2.10721e-15 0)
(2 -1.79658e-15 0)
(2 -1.33032e-15 0)
(2 -1.08095e-15 0)
(2 -9.13499e-16 0)
(2 -7.50617e-16 0)
(2 -5.65282e-16 0)
(2 -4.05669e-16 0)
(2 -4.94702e-17 0)
(2 2.84965e-16 0)
(2 4.42708e-16 0)
(2 6.54212e-16 0)
(2 8.18221e-16 0)
(2 8.23342e-16 0)
(2 7.519e-16 0)
(2 6.77576e-16 0)
(2 5.94843e-16 0)
(2 5.23417e-16 0)
(2 3.7426e-16 0)
(2 1.772e-16 0)
(2 2.74317e-18 0)
(2 -5.1914e-16 0)
(2 -7.65672e-16 0)
(2 -6.88618e-16 0)
(2 -6.37755e-16 0)
(2 -7.01367e-16 0)
(2 -7.84479e-16 0)
(2 -9.10177e-16 0)
(2 -1.03471e-15 0)
(2 -1.18613e-15 0)
(2 -1.27013e-15 0)
(2 -1.36704e-15 0)
(2 -1.44474e-15 0)
(2 -1.55016e-15 0)
(2 -1.54274e-15 0)
(2 -1.5729e-15 0)
(2 -1.65514e-15 0)
(2 -1.64713e-15 0)
(2 -1.66795e-15 0)
(2 -1.6583e-15 0)
(2 -1.5004e-15 0)
(2 -1.4134e-15 0)
(2 -1.40519e-15 0)
(2 -1.4503e-15 0)
(2 -1.56912e-15 0)
(2 -1.82831e-15 0)
(2 -2.01977e-15 0)
(2 -1.80372e-15 0)
(2 -1.33362e-15 0)
(2 -1.33823e-15 0)
(2 -1.25102e-15 0)
(2 -1.47273e-15 0)
(2 -1.82425e-15 0)
(2 -2.15938e-15 0)
(2 -2.4165e-15 0)
(2 -2.71471e-15 0)
(2 -3.02089e-15 0)
(2 -2.93626e-15 0)
(2 -3.22335e-15 0)
(2 -1.83648e-15 0)
(2 1.00327e-15 0)
(2 3.54919e-16 0)
(2 2.66377e-16 0)
(2 3.50205e-17 0)
(2 -1.93364e-16 0)
(2 -3.88031e-16 0)
(2 -7.83911e-16 0)