/*--------------------------------*- C++ -*----------------------------------*\
  =========                 |
  \\      /  F ield         | OpenFOAM: The Open Source CFD Toolbox
   \\    /   O peration     | Website:  https://openfoam.org
    \\  /    A nd           | Version:  7
     \\/     M anipulation  |
\*---------------------------------------------------------------------------*/
FoamFile
{
    version     2.0;
    format      ascii;
    class       volScalarField;
    location    "14.5";
    object      p;
}
// * * * * * * * * * * * * * * * * * * * * * * * * * * * * * * * * * * * * * //

dimensions      [1 -1 -2 0 0 0 0];

internalField   nonuniform List<scalar> 
2418
(
1
1
1
1
1
1
1
1
1
1
1
1
1
1
1
1
1
1
1
1
1
1
1
1
1
1
1
1
1
1
1
1
1
1
1
1
1
1
1
1
1
1
1
1
1
1
1
1
1
1
1
1
1
1
1
1
1
1
1
1
1
1
1
1
1
1
1
1
1
1
1
1
1
1
1
1
1
1
1
1
1
1
1
1
1
1
1
1
1
1
1
1
1
1
1
1
1
1
1
1
1
1
1
1
1
1
1
1
1
1
1
1
1
1
1
1
1
1
1
1
1
1
1
1
1
1
1
1
1
1
1
1
1
1
1
1
1
1
1
1
1
1
1
1
1
1
1
1
1
1
1
1
1
1
1
1
1
1
1
1
1
1
1
1.00001
1.00005
1.00033
1.00147
1.00569
1.0199
1.04815
1.09963
1.16143
1.21776
1.26105
1.27525
1.28186
1.28471
1.28399
1.28104
1.276
1.26897
1.26325
1.2585
1.25323
1.24998
1.24741
1.24401
1.23999
1.23648
1.23295
1.22866
1.22458
1.22185
1.21896
1.21518
1.2121
1.20918
1.20546
1.20113
1.19786
1.19468
1.19082
1.18694
1.18387
1.18065
1.17648
1.1727
1.16994
1.16694
1.16314
1.16004
1.15736
1.15416
1.15003
1.14644
1.14338
1.13995
1.1358
1.13241
1.12951
1.12638
1.12253
1.11949
1.11692
1.11398
1.11042
1.10721
1.10427
1.10099
1.09742
1.09465
1.09181
1.09144
1.09303
1.09938
1.11259
1.1387
1.17187
1.21361
1.25582
1.28542
1.31249
1.33522
1.34036
1.33972
1.33819
1.33441
1.32789
1.32062
1.31347
1.30673
1.30127
1.29715
1.29316
1.28846
1.28312
1.27827
1.27455
1
1
1
1
1
1
1
1
1
1
1
1
1
1
1
1
1
1
1
1
1
1
1
1
1
1
1
1.00002
1.00012
1.00067
1.00323
1.01042
1.03119
1.0723
1.12891
1.19565
1.23762
1.26615
1.28076
1.28647
1.28684
1.2849
1.27956
1.27371
1.26869
1.26298
1.25904
1.25579
1.2521
1.24783
1.24413
1.24051
1.23608
1.23256
1.2301
1.22716
1.22344
1.22031
1.21719
1.21322
1.20857
1.20521
1.20208
1.19816
1.19452
1.19165
1.18847
1.18432
1.1808
1.17802
1.1749
1.17101
1.16785
1.16498
1.16162
1.15736
1.15376
1.15063
1.1471
1.1429
1.13959
1.13668
1.1335
1.12974
1.12682
1.12412
1.12092
1.11724
1.11382
1.1106
1.10776
1.10454
1.10379
1.10598
1.11334
1.13106
1.15992
1.1969
1.24362
1.27968
1.31336
1.34601
1.35488
1.35583
1.3565
1.35418
1.34933
1.34305
1.33721
1.33242
1.32787
1.3225
1.31535
1.30709
1.29897
1.29151
1.28511
1.27955
1.27447
1.26981
1
1
1
1
1
1
1
1
1
1
1
1
1
1
1
1
1
1
1
1
1
1
1
1
1
1
1
1
1.00001
1.00005
1.0003
1.00133
1.00584
1.01907
1.0463
1.09899
1.15976
1.2197
1.25985
1.27445
1.28479
1.28662
1.28568
1.28262
1.27882
1.27354
1.26857
1.26445
1.26
1.2555
1.25168
1.24803
1.24401
1.2409
1.23849
1.23557
1.23158
1.22803
1.22461
1.2203
1.21588
1.21278
1.20981
1.2061
1.20257
1.19969
1.19643
1.19212
1.1887
1.18591
1.18275
1.17879
1.17551
1.17247
1.16882
1.16443
1.161
1.15793
1.15447
1.15055
1.14741
1.14439
1.14096
1.13719
1.13375
1.13071
1.12735
1.12349
1.12097
1.11842
1.11841
1.12087
1.12983
1.15067
1.18014
1.2237
1.26555
1.30548
1.34758
1.36201
1.36718
1.37366
1.37372
1.37122
1.36669
1.36172
1.35732
1.35193
1.34524
1.33699
1.32777
1.31941
1.31253
1.30583
1.29836
1.29083
1.28417
1.27878
1.27433
1.27033
1
1
1
1
1
1
1
1
1
1
1
1
1
1
1
1
1
1
1
1
1
1
1
1
1
1
1
1
1
1
1.00002
1.0001
1.00065
1.00286
1.00968
1.03053
1.06829
1.12681
1.18842
1.23567
1.27035
1.28503
1.28835
1.2884
1.28715
1.28444
1.27987
1.27496
1.26934
1.264
1.2594
1.25543
1.25139
1.24835
1.24604
1.24307
1.23912
1.23557
1.23213
1.22791
1.2236
1.22066
1.21781
1.21415
1.2106
1.2076
1.20422
1.19984
1.19652
1.19376
1.1905
1.18669
1.18341
1.18015
1.17641
1.17195
1.16841
1.16528
1.16174
1.15791
1.15486
1.15178
1.14805
1.14437
1.14089
1.1377
1.13509
1.13239
1.13289
1.13628
1.14808
1.16925
1.20361
1.24802
1.29101
1.33764
1.36223
1.37406
1.3869
1.39154
1.38997
1.38811
1.38594
1.38153
1.37474
1.36647
1.35692
1.34775
1.34012
1.33314
1.32556
1.3181
1.31178
1.30644
1.30134
1.29591
1.29009
1.28405
1.27808
1.2725
1
1
1
1
1
1
1
1
1
1
1
1
1
1
1
1
1
1
1
1
1
1
1
1
1
1
1
1
1
1
1
1.00001
1.00004
1.00024
1.0012
1.00551
1.01673
1.04405
1.09418
1.15296
1.21829
1.2542
1.27338
1.28404
1.28815
1.28839
1.28725
1.28426
1.27907
1.2733
1.26802
1.26336
1.25956
1.25638
1.25372
1.25086
1.2468
1.24275
1.23921
1.23503
1.2313
1.22859
1.22577
1.22231
1.21882
1.21558
1.21209
1.20769
1.20434
1.20151
1.19807
1.19425
1.19091
1.18755
1.18375
1.17964
1.17627
1.17313
1.16951
1.16579
1.1623
1.15892
1.15508
1.15143
1.14889
1.14704
1.14781
1.15262
1.16584
1.18912
1.22855
1.27181
1.3201
1.35867
1.38066
1.39898
1.41115
1.41057
1.41024
1.40812
1.40244
1.39322
1.38357
1.37528
1.368
1.36103
1.35373
1.34597
1.33844
1.33171
1.32607
1.32107
1.31595
1.31014
1.30369
1.29777
1.29234
1.28681
1.28107
1.2752
1
1
1
1
1
1
1
1
1
1
1
1
1
1
1
1
1
1
1
1
1
1
1
1
1
1
1
1
1
1
1
1
1
1.00001
1.00009
1.00056
1.00232
1.00891
1.0279
1.0618
1.12035
1.18096
1.23409
1.27165
1.2823
1.28932
1.29164
1.29118
1.28814
1.28283
1.27742
1.27189
1.26779
1.26393
1.26059
1.25759
1.2537
1.24983
1.24659
1.24302
1.23962
1.23687
1.23388
1.23017
1.22644
1.22288
1.21933
1.21534
1.2122
1.20943
1.20603
1.20231
1.19886
1.19523
1.19123
1.18734
1.18379
1.18068
1.17692
1.17311
1.16964
1.1664
1.16339
1.16153
1.16259
1.16901
1.18279
1.21126
1.2507
1.29605
1.34583
1.37816
1.40513
1.42521
1.43178
1.43187
1.42882
1.42184
1.41146
1.40259
1.39475
1.38731
1.37964
1.37197
1.36471
1.3582
1.35299
1.34805
1.34222
1.33541
1.32843
1.32199
1.31645
1.31107
1.30554
1.30021
1.29503
1.28997
1.28509
1.28012
1
1
1
1
1
1
1
1
1
1
1
1
1
1
1
1
1
1
1
1
1
1
1
1
1
1
1
1
1
1
1
1
1
1
1
1.00003
1.00019
1.00106
1.0046
1.01415
1.04043
1.08546
1.14613
1.20813
1.24667
1.27407
1.28814
1.29224
1.29239
1.29017
1.28653
1.28204
1.27771
1.27318
1.26871
1.26494
1.26077
1.25649
1.25327
1.25
1.24699
1.24433
1.24134
1.23783
1.23426
1.2306
1.22696
1.22316
1.21997
1.21713
1.21366
1.20999
1.20654
1.20284
1.19885
1.19517
1.19149
1.18812
1.18442
1.18103
1.17822
1.17655
1.17813
1.18439
1.20052
1.23182
1.27075
1.32328
1.36535
1.40019
1.43173
1.44784
1.45123
1.44969
1.4449
1.43602
1.42664
1.41782
1.40883
1.3992
1.39038
1.38438
1.37971
1.37473
1.36863
1.36184
1.35482
1.34828
1.34222
1.33622
1.33025
1.32391
1.31813
1.31311
1.30845
1.30411
1.29955
1.29431
1.28874
1.28352
1
1
1
1
1
1
1
1
1
1
1
1
1
1
1
1
1
1
1
1
1
1
1
1
1
1
1
1
1
1
1
1
1
1
1
1
1.00001
1.00007
1.00042
1.00183
1.00783
1.02311
1.05491
1.11017
1.16956
1.22941
1.26462
1.2793
1.28797
1.29047
1.28995
1.28861
1.28608
1.28208
1.27703
1.2726
1.26801
1.26373
1.26055
1.2575
1.25467
1.25193
1.24868
1.24487
1.24119
1.23753
1.23419
1.23099
1.22793
1.22506
1.2216
1.21781
1.21405
1.21012
1.2061
1.20259
1.19895
1.19602
1.19317
1.19183
1.19339
1.1999
1.21907
1.24888
1.2942
1.34467
1.38747
1.43132
1.45227
1.45873
1.46402
1.46333
1.4587
1.45111
1.443
1.43462
1.4262
1.41863
1.41107
1.40289
1.39519
1.38791
1.38071
1.37368
1.36726
1.36146
1.35535
1.34931
1.3435
1.33804
1.33321
1.32829
1.32308
1.31778
1.3125
1.30726
1.30224
1.29728
1.29224
1.28723
1
1
1
1
1
1
1
1
1
1
1
1
1
1
1
1
1
1
1
1
1
1
1
1
1
1
1
1
1
1
1
1
1
1
1
1
1
1
1.00002
1.00014
1.00084
1.00342
1.01173
1.035
1.07368
1.13413
1.1929
1.24045
1.27471
1.28692
1.2911
1.29302
1.29279
1.29083
1.28644
1.28136
1.27601
1.27092
1.26736
1.264
1.26115
1.25838
1.25513
1.25171
1.24837
1.24495
1.24181
1.23883
1.23565
1.23257
1.22886
1.22491
1.22104
1.2172
1.21331
1.21059
1.20782
1.20709
1.20851
1.21615
1.23451
1.26603
1.31564
1.36378
1.41514
1.4521
1.46729
1.4815
1.48598
1.48402
1.47888
1.4705
1.46094
1.45234
1.44489
1.4377
1.42924
1.42
1.41111
1.40346
1.39672
1.38976
1.38247
1.37517
1.36852
1.36278
1.35778
1.35309
1.34786
1.34241
1.33697
1.3316
1.32656
1.32163
1.31652
1.31115
1.3059
1.30086
1.29593
1.29106
1
1
1
1
1
1
1
1
1
1
1
1
1
1
1
1
1
1
1
1
1
1
1
1
1
1
1
1
1
1
1
1
1
1
1
1
1
1
1
1.00001
1.00005
1.00028
1.00143
1.00616
1.01795
1.04731
1.09635
1.15569
1.21814
1.25204
1.27515
1.28743
1.29265
1.29341
1.29242
1.28899
1.28446
1.27967
1.2756
1.27161
1.26823
1.26503
1.26143
1.25781
1.25463
1.25144
1.24865
1.24596
1.24277
1.23957
1.23578
1.23171
1.22783
1.22464
1.22197
1.22142
1.22317
1.23138
1.24871
1.28481
1.33186
1.38399
1.43842
1.46706
1.48971
1.50395
1.50418
1.50302
1.49937
1.4919
1.48186
1.47217
1.46256
1.45288
1.44366
1.43518
1.42701
1.41896
1.41149
1.40479
1.39838
1.39249
1.38654
1.38015
1.37419
1.36826
1.36203
1.35659
1.35136
1.34631
1.34126
1.33604
1.33074
1.32559
1.32044
1.31489
1.30918
1.30368
1.29844
1.29362
1
1
1
1
1
1
1
1
1
1
1
1
1
1
1
1
1
1
1
1
1
1
1
1
1
1
1
1
1
1
1
1
1
1
1
1
1
1
1
1
1
1.00001
1.0001
1.00058
1.00239
1.0095
1.02765
1.06162
1.11844
1.17737
1.23259
1.26963
1.28103
1.28972
1.29185
1.29106
1.28954
1.28713
1.28376
1.27925
1.27521
1.27142
1.26742
1.26404
1.2611
1.25833
1.25562
1.2527
1.2491
1.24541
1.24164
1.23804
1.23528
1.23506
1.2373
1.24464
1.26353
1.29965
1.34469
1.40599
1.45167
1.48674
1.51583
1.52832
1.52841
1.52581
1.51829
1.50751
1.49719
1.4878
1.47831
1.46918
1.4604
1.4519
1.4434
1.43508
1.4279
1.42157
1.416
1.41061
1.40434
1.39762
1.39114
1.38501
1.3793
1.37342
1.36727
1.36145
1.35599
1.3509
1.34587
1.34062
1.33498
1.3292
1.32344
1.31767
1.31224
1.30715
1.30215
1.29717
1
1
1
1
1
1
1
1
1
1
1
1
1
1
1
1
1
1
1
1
1
1
1
1
1
1
1
1
1
1
1
1
1
1
1
1
1
1
1
1
1
1
1
1.00003
1.00018
1.00105
1.00424
1.01358
1.03877
1.07979
1.13974
1.1973
1.2413
1.27333
1.28797
1.29202
1.29301
1.29271
1.29135
1.28804
1.28338
1.27879
1.27386
1.27007
1.2668
1.26378
1.26084
1.25769
1.25418
1.2513
1.24826
1.24755
1.24929
1.25654
1.2771
1.30874
1.36089
1.418
1.46535
1.51198
1.5288
1.53823
1.54218
1.54098
1.53562
1.52721
1.51809
1.50767
1.49674
1.4866
1.47701
1.46817
1.46032
1.45336
1.44685
1.44051
1.43438
1.42832
1.42213
1.41582
1.40932
1.40291
1.39669
1.39076
1.38493
1.37896
1.37279
1.36672
1.36091
1.35514
1.34948
1.34406
1.33861
1.33317
1.32772
1.3221
1.31653
1.31123
1.30601
1.30075
1
1
1
1
1
1
1
1
1
1
1
1
1
1
1
1
1
1
1
1
1
1
1
1
1
1
1
1
1
1
1
1
1
1
1
1
1
1
1
1
1
1
1
1
1.00001
1.00006
1.00034
1.00165
1.007
1.01988
1.04997
1.09973
1.15725
1.21921
1.25231
1.2738
1.28563
1.29107
1.29264
1.29236
1.28972
1.28585
1.2812
1.27725
1.27339
1.26954
1.26585
1.26289
1.25924
1.25832
1.25968
1.26816
1.28642
1.31955
1.37297
1.42443
1.48538
1.52301
1.54463
1.56216
1.5655
1.56379
1.55686
1.54552
1.5344
1.52437
1.51565
1.50735
1.49867
1.48976
1.48085
1.47253
1.46518
1.45871
1.45251
1.44638
1.44036
1.43437
1.42818
1.42182
1.41534
1.40894
1.40269
1.39642
1.38987
1.38341
1.37725
1.37148
1.36596
1.3603
1.35445
1.34864
1.34286
1.33714
1.33164
1.32615
1.3207
1.3155
1.31034
1.30509
1
1
1
1
1
1
1
1
1
1
1
1
1
1
1
1
1
1
1
1
1
1
1
1
1
1
1
1
1
1
1
1
1
1
1
1
1
1
1
1
1
1
1
1
1
1
1.00002
1.00011
1.00066
1.00264
1.00999
1.02912
1.06257
1.11895
1.17647
1.22823
1.26939
1.28062
1.28819
1.29161
1.29084
1.28934
1.28702
1.28366
1.27927
1.27437
1.27058
1.26923
1.2706
1.2776
1.29376
1.32984
1.37434
1.43537
1.49366
1.53189
1.5647
1.57667
1.57648
1.57538
1.57254
1.56441
1.55438
1.5437
1.53275
1.52264
1.51433
1.50723
1.50059
1.49364
1.48646
1.47939
1.47201
1.46487
1.45821
1.4516
1.44521
1.43896
1.43267
1.42642
1.4202
1.41394
1.40775
1.4015
1.39509
1.3887
1.38249
1.37642
1.37047
1.36448
1.35858
1.35297
1.34745
1.34186
1.33628
1.33062
1.32478
1.31903
1.31339
1.30782
1
1
1
1
1
1
1
1
1
1
1
1
1
1
1
1
1
1
1
1
1
1
1
1
1
1
1
1
1
1
1
1
1
1
1
1
1
1
1
1
1
1
1
1
1
1
1
1
1.00003
1.00019
1.00108
1.00449
1.01362
1.03844
1.07977
1.13513
1.19678
1.23701
1.26794
1.28548
1.29094
1.29208
1.29126
1.28916
1.28582
1.28171
1.28195
1.28613
1.30309
1.33298
1.37894
1.44015
1.49164
1.54753
1.57633
1.58899
1.59647
1.5954
1.59028
1.58102
1.57
1.55895
1.54906
1.54082
1.53266
1.5244
1.5167
1.50957
1.50322
1.49708
1.49094
1.48455
1.47781
1.471
1.46401
1.45693
1.45015
1.44371
1.43758
1.43159
1.42558
1.41933
1.41294
1.40653
1.40016
1.39397
1.38788
1.38182
1.3758
1.3698
1.36381
1.35794
1.35209
1.34614
1.34024
1.33442
1.32854
1.32282
1.31725
1.31167
1
1
1
1
1
1
1
1
1
1
1
1
1
1
1
1
1
1
1
1
1
1
1
1
1
1
1
1
1
1
1
1
1
1
1
1
1
1
1
1
1
1
1
1
1
1
1
1
1
1.00001
1.00006
1.00035
1.00158
1.00673
1.01986
1.04683
1.09671
1.15247
1.2095
1.251
1.26919
1.28188
1.28603
1.28737
1.28959
1.29711
1.31378
1.3416
1.39002
1.43833
1.49816
1.54546
1.57484
1.6008
1.60589
1.60558
1.6043
1.5993
1.58998
1.57901
1.56753
1.55685
1.54812
1.54083
1.53382
1.52676
1.51974
1.51274
1.50649
1.50122
1.49632
1.49084
1.48449
1.47767
1.4706
1.46348
1.45636
1.44946
1.44304
1.43705
1.43132
1.42544
1.41932
1.41307
1.40667
1.40022
1.39372
1.38718
1.3808
1.37464
1.36862
1.36279
1.35701
1.35109
1.34514
1.33927
1.33329
1.32737
1.32158
1.31576
1
1
1
1
1
1
1
1
1
1
1
1
1
1
1
1
1
1
1
1
1
1
1
1
1
1
1
1
1
1
1
1
1
1
1
1
1
1
1
1
1
1
1
1
1
1
1
1
1
1
1
1.00001
1.0001
1.00061
1.00253
1.00905
1.02656
1.0601
1.10887
1.16882
1.21771
1.25887
1.27647
1.28877
1.30726
1.34512
1.39053
1.44595
1.50161
1.54348
1.58692
1.6118
1.62086
1.62469
1.62171
1.6141
1.60228
1.59184
1.5827
1.57411
1.56522
1.55648
1.54886
1.54175
1.53507
1.52884
1.52279
1.51671
1.51065
1.50471
1.49873
1.49268
1.48657
1.48039
1.47412
1.46773
1.46117
1.45461
1.44819
1.44197
1.43587
1.42966
1.42334
1.41694
1.4104
1.40383
1.39729
1.3908
1.3845
1.37839
1.3723
1.36626
1.36022
1.35406
1.34786
1.34173
1.33557
1.32946
1.32352
1.31762
1
1
1
1
1
1
1
1
1
1
1
1
1
1
1
1
1
1
1
1
1
1
1
1
1
1
1
1
1
1
1
1
1
1
1
1
1
1
1
1
1
1
1
1
1
1
1
1
1
1
1
1
1
1.00003
1.00017
1.00093
1.00377
1.01282
1.03318
1.07212
1.12681
1.18547
1.24304
1.29972
1.36449
1.43927
1.50001
1.55645
1.59452
1.61115
1.62802
1.63471
1.63172
1.62468
1.61566
1.6052
1.59477
1.58505
1.57678
1.57001
1.56359
1.55737
1.55142
1.54511
1.53905
1.53333
1.52767
1.52189
1.51594
1.50984
1.50359
1.49733
1.49113
1.48511
1.47932
1.47363
1.46789
1.46198
1.45587
1.44959
1.44318
1.43672
1.43034
1.42399
1.4176
1.41123
1.40492
1.39867
1.39253
1.38639
1.38011
1.37377
1.36743
1.36099
1.3545
1.3481
1.34173
1.33542
1.32933
1.32334
1
1
1
1
1
1
1
1
1
1
1
1
1
1
1
1
1
1
1
1
1
1
1
1
1
1
1
1
1
1
1
1
1
1
1
1
1
1
1
1
1
1
1
1
1
1
1
1
1
1
1
1
1
1
1.00001
1.00005
1.00031
1.00159
1.00631
1.01958
1.05218
1.1106
1.19921
1.30791
1.41762
1.50523
1.56971
1.63246
1.68167
1.68568
1.68097
1.66714
1.64674
1.62504
1.60927
1.59824
1.5892
1.58086
1.57306
1.56567
1.55922
1.55403
1.54882
1.54315
1.5373
1.53155
1.52588
1.52009
1.51405
1.5078
1.50151
1.49524
1.48891
1.48265
1.47667
1.47094
1.46527
1.45946
1.45341
1.44714
1.4407
1.43416
1.4277
1.42128
1.41477
1.40828
1.4019
1.39555
1.38934
1.38316
1.37673
1.37011
1.36354
1.35693
1.35021
1.34363
1.33716
1.33062
1.32437
1.31837
)
;

boundaryField
{
    inlet
    {
        type            fixedValue;
        value           nonuniform 0();
    }
    outlet
    {
        type            zeroGradient;
    }
    bottom
    {
        type            symmetryPlane;
    }
    top
    {
        type            symmetryPlane;
    }
    obstacle
    {
        type            zeroGradient;
    }
    front
    {
        type            empty;
    }
    back
    {
        type            empty;
    }
    procBoundary53to45
    {
        type            processor;
        value           nonuniform List<scalar> 
129
(
1
1
1
1
1
1
1
1
1
1
1
1
1
1
1
1
1
1
1
1
1
1
1
1
1
1
1.00002
1.00013
1.00064
1.00318
1.01097
1.03018
1.07253
1.12904
1.19365
1.24005
1.26376
1.27596
1.28073
1.27981
1.27839
1.27466
1.27009
1.26473
1.2585
1.25391
1.24981
1.24529
1.24212
1.23953
1.2364
1.23229
1.22862
1.22511
1.22067
1.21637
1.21345
1.21053
1.20687
1.20389
1.2012
1.19787
1.19368
1.19037
1.18723
1.18335
1.17922
1.17609
1.17289
1.16879
1.16503
1.16227
1.15931
1.15564
1.15238
1.14965
1.14655
1.14253
1.13894
1.13609
1.13291
1.12889
1.12538
1.12248
1.11929
1.11523
1.11202
1.10959
1.10691
1.10365
1.10101
1.09849
1.09549
1.09218
1.08861
1.08525
1.08265
1.07983
1.07839
1.07912
1.08371
1.09454
1.11439
1.14656
1.18151
1.22407
1.2573
1.28108
1.3026
1.31857
1.32238
1.32155
1.31838
1.31378
1.30805
1.30315
1.29834
1.29391
1.29021
1.28762
1.28656
1.28531
1
1
1
1
1
1
1
)
;
    }
    procBoundary53to46
    {
        type            processor;
        value           uniform 1.27161;
    }
    procBoundary53to52
    {
        type            processor;
        value           nonuniform List<scalar> 
18
(
1
1
1
1
1
1
1
1
1
1
1
1
1
1
1
1
1
1
)
;
    }
    procBoundary53to54
    {
        type            processor;
        value           nonuniform List<scalar> 
18
(
1.26579
1.26656
1.26728
1.26957
1.27468
1.27857
1.28222
1.28608
1.28919
1.29248
1.29585
1.29998
1.30263
1.30615
1.30988
1.31171
1.31735
1.31228
)
;
    }
}


// ************************************************************************* //
