/*--------------------------------*- C++ -*----------------------------------*\
  =========                 |
  \\      /  F ield         | OpenFOAM: The Open Source CFD Toolbox
   \\    /   O peration     | Website:  https://openfoam.org
    \\  /    A nd           | Version:  7
     \\/     M anipulation  |
\*---------------------------------------------------------------------------*/
FoamFile
{
    version     2.0;
    format      ascii;
    class       volVectorField;
    location    "3.5";
    object      U;
}
// * * * * * * * * * * * * * * * * * * * * * * * * * * * * * * * * * * * * * //

dimensions      [0 1 -1 0 0 0 0];

internalField   nonuniform List<vector> 
135168
(
(1.4 -3.271e-17 0)
(1.4 7.08081e-18 0)
(1.4 9.94596e-17 0)
(1.4 1.64485e-16 0)
(1.4 1.34206e-16 0)
(1.4 1.33344e-16 0)
(1.4 1.08388e-16 0)
(1.4 1.22205e-16 0)
(1.4 2.38339e-16 0)
(1.4 2.57505e-16 0)
(1.4 2.00036e-16 0)
(1.4 1.3138e-16 0)
(1.4 4.719e-17 0)
(1.4 6.2431e-17 0)
(1.4 8.5725e-17 0)
(1.4 -2.97959e-17 0)
(1.4 8.20519e-17 0)
(1.4 1.76741e-16 0)
(1.4 7.23043e-17 0)
(1.4 -2.98004e-17 0)
(1.4 4.68312e-17 0)
(1.4 5.97107e-17 0)
(1.4 3.48602e-17 0)
(1.4 1.53274e-16 0)
(1.4 1.83021e-16 0)
(1.4 1.79444e-16 0)
(1.4 2.34919e-16 0)
(1.4 6.50305e-17 0)
(1.4 9.94473e-19 0)
(1.4 -2.91845e-17 0)
(1.4 -6.37465e-17 0)
(1.4 -1.64654e-16 0)
(1.4 -1.85644e-16 0)
(1.4 -1.53106e-16 0)
(1.4 -3.04283e-17 0)
(1.4 4.7954e-17 0)
(1.4 8.68979e-17 0)
(1.4 -2.40344e-17 0)
(1.4 -1.49036e-16 0)
(1.4 -1.87734e-16 0)
(1.4 -2.86849e-16 0)
(1.4 -3.3585e-16 0)
(1.4 -4.11419e-16 0)
(1.4 -3.8415e-16 0)
(1.4 -4.04319e-16 0)
(1.4 -4.46544e-16 0)
(1.4 -4.4348e-16 0)
(1.4 -3.40185e-16 0)
(1.4 -2.54339e-16 0)
(1.4 -1.3006e-16 0)
(1.4 3.63741e-17 0)
(1.4 -6.95901e-18 0)
(1.4 1.31114e-16 0)
(1.4 1.71462e-16 0)
(1.4 1.88685e-16 0)
(1.4 2.03322e-16 0)
(1.4 1.94636e-16 0)
(1.4 4.8088e-17 0)
(1.4 9.30944e-17 0)
(1.4 1.61353e-17 0)
(1.4 -5.59258e-17 0)
(1.4 -8.98802e-17 0)
(1.4 -1.17642e-16 0)
(1.4 -1.48734e-16 0)
(1.4 -1.82789e-16 0)
(1.4 -2.31881e-16 0)
(1.4 -3.73401e-16 0)
(1.4 -3.89684e-16 0)
(1.4 -2.57007e-16 0)
(1.4 -6.89743e-17 0)
(1.4 -3.65379e-17 0)
(1.4 -1.08718e-16 0)
(1.4 -7.22278e-17 0)
(1.4 4.32946e-17 0)
(1.4 1.96494e-16 0)
(1.4 3.38819e-16 0)
(1.4 5.61799e-16 0)
(1.4 6.80273e-16 0)
(1.4 7.07011e-16 0)
(1.4 5.22016e-16 0)
(1.4 6.80514e-16 0)
(1.4 1.03493e-15 0)
(1.4 1.34475e-15 0)
(1.4 1.60484e-15 0)
(1.4 1.77349e-15 0)
(1.4 1.69124e-15 0)
(1.4 1.62742e-15 0)
(1.4 1.79614e-15 0)
(1.4 1.88647e-15 0)
(1.4 1.91438e-15 0)
(1.4 1.84021e-15 0)
(1.4 1.72232e-15 0)
(1.4 1.55875e-15 0)
(1.4 1.44923e-15 0)
(1.4 1.69817e-15 0)
(1.4 1.71145e-15 0)
(1.4 1.21624e-15 0)
(1.4 7.58884e-16 0)
(1.4 3.23338e-16 0)
(1.4 2.48423e-16 0)
(1.4 2.59414e-16 0)
(1.4 3.35555e-16 0)
(1.4 2.92484e-16 0)
(1.4 2.05059e-16 0)
(1.4 2.18741e-16 0)
(1.4 8.70443e-17 0)
(1.4 -1.35534e-16 0)
(1.4 -3.05394e-16 0)
(1.4 -3.5348e-16 0)
(1.4 -3.80999e-16 0)
(1.4 -5.52914e-16 0)
(1.4 -8.04853e-16 0)
(1.4 -8.06439e-16 0)
(1.4 -9.67229e-16 0)
(1.4 -9.7245e-16 0)
(1.4 -1.07184e-15 0)
(1.4 -1.10185e-15 0)
(1.4 -1.03501e-15 0)
(1.4 -9.20079e-16 0)
(1.4 -6.86997e-16 0)
(1.4 -7.15623e-16 0)
(1.4 -9.30877e-16 0)
(1.4 -1.12729e-15 0)
(1.4 -1.18178e-15 0)
(1.4 -1.13865e-15 0)
(1.4 -1.16425e-15 0)
(1.4 -1.25875e-15 0)
(1.4 -1.28371e-15 0)
(1.4 -1.31353e-15 0)
(1.4 -1.29185e-15 0)
(1.4 -1.25406e-15 0)
(1.4 -1.16899e-15 0)
(1.4 -9.99775e-16 0)
(1.4 -9.02457e-16 0)
(1.4 -7.9741e-16 0)
(1.4 -8.66153e-16 0)
(1.4 -9.48971e-16 0)
(1.4 -9.63654e-16 0)
(1.4 -1.25298e-15 0)
(1.4 -1.47472e-15 0)
(1.4 -1.49189e-15 0)
(1.4 -1.65239e-15 0)
(1.4 -1.6897e-15 0)
(1.4 -1.59981e-15 0)
(1.4 -1.38614e-15 0)
(1.4 -1.17275e-15 0)
(1.4 -1.02083e-15 0)
(1.4 -7.9393e-16 0)
(1.4 -6.92123e-16 0)
(1.4 -7.34625e-16 0)
(1.4 -7.37233e-16 0)
(1.4 -6.98943e-16 0)
(1.4 -6.79371e-16 0)
(1.4 -6.60753e-16 0)
(1.4 -6.55399e-16 0)
(1.4 -8.96917e-16 0)
(1.4 -1.16217e-15 0)
(1.4 -1.24301e-15 0)
(1.4 -1.44622e-15 0)
(1.4 -1.52853e-15 0)
(1.4 -1.54895e-15 0)
(1.4 -1.48294e-15 0)
(1.4 -1.3513e-15 0)
(1.4 -1.23046e-15 0)
(1.4 -1.09019e-15 0)
(1.4 -1.01929e-15 0)
(1.4 -9.5967e-16 0)
(1.4 -9.35386e-16 0)
(1.4 -9.79905e-16 0)
(1.4 -1.1269e-15 0)
(1.4 -1.16493e-15 0)
(1.4 -1.12088e-15 0)
(1.4 -1.01202e-15 0)
(1.4 -8.15873e-16 0)
(1.4 -5.89846e-16 0)
(1.4 -4.55289e-16 0)
(1.4 -4.17586e-16 0)
(1.4 -1.99563e-16 0)
(1.4 -2.6043e-16 0)
(1.4 -3.22575e-16 0)
(1.4 -2.77199e-16 0)
(1.4 -2.77317e-16 0)
(1.4 -2.83098e-16 0)
(1.4 -2.38319e-16 0)
(1.4 -6.71396e-17 0)
(1.4 4.10278e-17 0)
(1.4 1.11301e-16 0)
(1.4 1.46746e-16 0)
(1.4 1.7864e-16 0)
(1.4 2.4204e-16 0)
(1.4 2.38909e-16 0)
(1.4 1.87309e-16 0)
(1.4 1.10192e-16 0)
(1.4 8.00721e-17 0)
(1.4 9.07662e-17 0)
(1.4 1.14908e-16 0)
(1.4 2.25704e-16 0)
(1.4 3.04166e-16 0)
(1.4 7.12073e-16 0)
(1.4 7.74343e-16 0)
(1.4 7.55976e-16 0)
(1.4 7.84881e-16 0)
(1.4 7.84556e-16 0)
(1.4 7.38902e-16 0)
(1.4 6.76235e-16 0)
(1.4 5.78355e-16 0)
(1.4 4.81211e-16 0)
(1.4 5.41207e-16 0)
(1.4 6.95864e-16 0)
(1.4 8.22486e-16 0)
(1.4 8.38866e-16 0)
(1.4 8.49716e-16 0)
(1.4 8.3058e-16 0)
(1.4 7.89918e-16 0)
(1.4 9.10007e-16 0)
(1.4 8.45463e-16 0)
(1.4 8.23643e-16 0)
(1.4 7.60696e-16 0)
(1.4 4.17859e-16 0)
(1.4 2.68655e-16 0)
(1.4 3.60175e-16 0)
(1.4 8.16338e-17 0)
(1.4 -1.19126e-16 0)
(1.4 -2.82119e-16 0)
(1.4 -4.47652e-16 0)
(1.4 -4.38378e-16 0)
(1.4 -4.65177e-16 0)
(1.4 -5.23127e-16 0)
(1.4 -5.66603e-16 0)
(1.4 -5.98781e-16 0)
(1.4 -6.04411e-16 0)
(1.4 -5.77418e-16 0)
(1.4 -3.98366e-16 0)
(1.4 -3.54147e-16 0)
(1.4 -3.86069e-17 0)
(1.4 3.57558e-16 0)
(1.4 7.24525e-16 0)
(1.4 1.08251e-15 0)
(1.4 1.12937e-15 0)
(1.4 1.09517e-15 0)
(1.4 1.10274e-15 0)
(1.4 1.02825e-15 0)
(1.4 9.55775e-16 0)
(1.4 9.52804e-16 0)
(1.4 9.81881e-16 0)
(1.4 1.06695e-15 0)
(1.4 1.09437e-15 0)
(1.4 1.15004e-15 0)
(1.4 1.09801e-15 0)
(1.4 1.17656e-15 0)
(1.4 1.28233e-15 0)
(1.4 1.25487e-15 0)
(1.4 1.13165e-15 0)
(1.4 1.11063e-15 0)
(1.4 1.08594e-15 0)
(1.4 1.09894e-15 0)
(1.4 1.21173e-15 0)
(1.4 1.31693e-15 0)
(1.4 1.40033e-15 0)
(1.4 1.54914e-15 0)
(1.4 1.48933e-15 0)
(1.4 1.51727e-15 0)
(1.4 1.5609e-15 0)
(1.4 1.51577e-15 0)
(1.4 1.53736e-15 0)
(1.4 1.42833e-15 0)
(1.4 1.29933e-15 0)
(1.4 1.24351e-15 0)
(1.4 1.1992e-15 0)
(1.4 1.14815e-15 0)
(1.4 1.03222e-15 0)
(1.4 6.99216e-16 0)
(1.4 2.51125e-16 0)
(1.4 2.04845e-16 0)
(1.4 2.28119e-16 0)
(1.4 2.48142e-16 0)
(1.4 4.25903e-16 0)
(1.4 4.73584e-16 0)
(1.4 5.94012e-16 0)
(1.4 4.31389e-16 0)
(1.4 2.23683e-16 0)
(1.4 -2.79151e-16 0)
(1.4 -2.19402e-16 0)
(1.4 -6.37115e-17 0)
(1.4 1.29561e-17 0)
(1.4 3.57582e-17 0)
(1.4 2.48864e-17 0)
(1.4 -9.23087e-18 0)
(1.4 -3.5041e-16 0)
(1.4 -7.23277e-16 0)
(1.4 -1.549e-15 0)
(1.4 -1.47021e-15 0)
(1.4 -1.43667e-15 0)
(1.4 -1.57013e-15 0)
(1.4 -1.27423e-15 0)
(1.4 -1.12756e-15 0)
(1.4 -1.39329e-15 0)
(1.4 -1.4361e-15 0)
(1.4 -1.57716e-15 0)
(1.4 -1.49525e-15 0)
(1.4 -1.80398e-15 0)
(1.4 -1.7262e-15 0)
(1.4 -1.6069e-15 0)
(1.4 -1.63388e-15 0)
(1.4 -1.49033e-15 0)
(1.4 -1.31317e-15 0)
(1.4 -1.2714e-15 0)
(1.4 -1.11276e-15 0)
(1.4 -1.14178e-15 0)
(1.4 -1.12685e-15 0)
(1.4 -8.71673e-16 0)
(1.4 -7.52244e-16 0)
(1.4 -6.61865e-16 0)
(1.4 -6.41146e-16 0)
(1.4 -8.30212e-16 0)
(1.4 -8.63711e-16 0)
(1.4 -8.74875e-16 0)
(1.4 -5.67534e-16 0)
(1.4 -1.34246e-16 0)
(1.4 9.91281e-17 0)
(1.4 1.54649e-17 0)
(1.4 -5.28613e-17 0)
(1.4 2.13204e-19 0)
(1.4 -1.46709e-16 0)
(1.4 -5.51573e-17 0)
(1.4 3.16554e-18 0)
(1.4 -9.46679e-17 0)
(1.4 -1.0864e-16 0)
(1.4 -8.29096e-17 0)
(1.4 -1.78037e-16 0)
(1.4 -2.48804e-16 0)
(1.4 -3.32493e-16 0)
(1.4 -4.84174e-16 0)
(1.4 -5.23005e-16 0)
(1.4 -5.87198e-16 0)
(1.4 -5.91666e-16 0)
(1.4 -7.32978e-16 0)
(1.4 -6.67224e-16 0)
(1.4 -6.78527e-16 0)
(1.4 -7.75927e-16 0)
(1.4 -7.61086e-16 0)
(1.4 -7.54719e-16 0)
(1.4 -7.27316e-16 0)
(1.4 -7.07172e-16 0)
(1.4 -7.02841e-16 0)
(1.4 -9.19887e-16 0)
(1.4 -1.07849e-15 0)
(1.4 -1.12881e-15 0)
(1.4 -1.16136e-15 0)
(1.4 -1.06301e-15 0)
(1.4 -8.78229e-16 0)
(1.4 -1.07745e-15 0)
(1.4 -1.39662e-15 0)
(1.4 -8.1977e-16 0)
(1.4 -5.57657e-16 0)
(1.4 -3.22304e-16 0)
(1.4 -1.61757e-16 0)
(1.4 -9.89435e-17 0)
(1.4 -1.13966e-16 0)
(1.4 -2.07679e-17 0)
(1.4 9.26885e-17 0)
(1.4 9.88641e-17 0)
(1.4 1.09747e-18 0)
(1.4 2.28839e-17 0)
(1.4 1.99056e-16 0)
(1.4 2.92269e-16 0)
(1.4 3.6825e-16 0)
(1.4 5.03756e-16 0)
(1.4 4.81167e-16 0)
(1.4 5.98905e-16 0)
(1.4 6.93018e-16 0)
(1.4 5.84064e-16 0)
(1.4 -1.39186e-13 0)
(1.38317 -0.00175053 0)
(0.957869 0.0085423 0)
(0.846727 0.00776641 0)
(0.838017 0.00927069 0)
(0.826723 0.0109647 0)
(0.815343 0.0119924 0)
(0.803701 0.0139902 0)
(0.79108 0.0149414 0)
(0.77825 0.0178722 0)
(0.763573 0.019329 0)
(0.750803 0.0243772 0)
(1.4 5.2011e-17 0)
(1.4 1.15421e-16 0)
(1.4 2.01304e-16 0)
(1.4 2.31772e-16 0)
(1.4 6.20798e-17 0)
(1.4 6.06709e-17 0)
(1.4 1.26493e-17 0)
(1.4 -3.58199e-17 0)
(1.4 1.53894e-17 0)
(1.4 1.1438e-16 0)
(1.4 2.73379e-16 0)
(1.4 4.76493e-16 0)
(1.4 4.56502e-16 0)
(1.4 4.49542e-16 0)
(1.4 4.67668e-16 0)
(1.4 4.6741e-16 0)
(1.4 3.87852e-16 0)
(1.4 2.78437e-16 0)
(1.4 2.23403e-16 0)
(1.4 2.04971e-16 0)
(1.4 1.57332e-16 0)
(1.4 1.51625e-16 0)
(1.4 1.17735e-16 0)
(1.4 4.65913e-17 0)
(1.4 3.20366e-18 0)
(1.4 2.56754e-17 0)
(1.4 -1.70368e-17 0)
(1.4 -1.20437e-16 0)
(1.4 -3.57404e-16 0)
(1.4 -5.36497e-16 0)
(1.4 -6.62983e-16 0)
(1.4 -8.60301e-16 0)
(1.4 -9.98926e-16 0)
(1.4 -9.34627e-16 0)
(1.4 -6.97674e-16 0)
(1.4 -5.35751e-16 0)
(1.4 -2.95483e-16 0)
(1.4 -2.19167e-16 0)
(1.4 -3.21572e-16 0)
(1.4 -4.35241e-16 0)
(1.4 -6.29967e-16 0)
(1.4 -5.81872e-16 0)
(1.4 -3.29576e-16 0)
(1.4 -1.52739e-16 0)
(1.4 1.28026e-17 0)
(1.4 -7.09786e-17 0)
(1.4 3.3183e-17 0)
(1.4 3.52284e-17 0)
(1.4 4.80414e-16 0)
(1.4 8.25607e-16 0)
(1.4 9.9784e-16 0)
(1.4 9.43863e-16 0)
(1.4 9.0315e-16 0)
(1.4 9.31972e-16 0)
(1.4 8.78478e-16 0)
(1.4 7.81342e-16 0)
(1.4 5.09515e-16 0)
(1.4 1.93976e-16 0)
(1.4 5.97625e-17 0)
(1.4 -3.39239e-17 0)
(1.4 -7.41948e-17 0)
(1.4 -1.67002e-16 0)
(1.4 -2.82543e-17 0)
(1.4 1.98673e-16 0)
(1.4 -1.51147e-16 0)
(1.4 -1.67281e-16 0)
(1.4 -2.51668e-16 0)
(1.4 -3.96512e-16 0)
(1.4 -4.60338e-16 0)
(1.4 -3.51469e-16 0)
(1.4 -1.61893e-16 0)
(1.4 -1.32245e-17 0)
(1.4 -2.8881e-17 0)
(1.4 -7.81829e-17 0)
(1.4 -1.60214e-16 0)
(1.4 -4.27685e-17 0)
(1.4 2.38572e-16 0)
(1.4 7.58468e-16 0)
(1.4 9.88649e-16 0)
(1.4 9.17389e-16 0)
(1.4 9.57734e-16 0)
(1.4 1.22102e-15 0)
(1.4 1.5778e-15 0)
(1.4 1.56271e-15 0)
(1.4 1.6383e-15 0)
(1.4 1.68747e-15 0)
(1.4 1.84448e-15 0)
(1.4 1.95312e-15 0)
(1.4 2.15491e-15 0)
(1.4 2.34751e-15 0)
(1.4 2.26911e-15 0)
(1.4 2.18938e-15 0)
(1.4 2.13459e-15 0)
(1.4 1.63562e-15 0)
(1.4 1.18141e-15 0)
(1.4 1.11628e-15 0)
(1.4 8.16388e-16 0)
(1.4 -3.27305e-16 0)
(1.4 -7.0227e-16 0)
(1.4 -1.03838e-15 0)
(1.4 -1.02329e-15 0)
(1.4 -8.00445e-16 0)
(1.4 -7.65715e-16 0)
(1.4 -8.13055e-16 0)
(1.4 -8.86044e-16 0)
(1.4 -1.16325e-15 0)
(1.4 -1.22073e-15 0)
(1.4 -1.16918e-15 0)
(1.4 -1.29495e-15 0)
(1.4 -1.24922e-15 0)
(1.4 -1.27148e-15 0)
(1.4 -1.49536e-15 0)
(1.4 -1.56774e-15 0)
(1.4 -1.83798e-15 0)
(1.4 -2.21271e-15 0)
(1.4 -2.4702e-15 0)
(1.4 -2.51527e-15 0)
(1.4 -2.4976e-15 0)
(1.4 -2.36144e-15 0)
(1.4 -2.03373e-15 0)
(1.4 -1.86771e-15 0)
(1.4 -1.79405e-15 0)
(1.4 -1.65208e-15 0)
(1.4 -1.64997e-15 0)
(1.4 -1.61845e-15 0)
(1.4 -1.5827e-15 0)
(1.4 -1.78803e-15 0)
(1.4 -1.7622e-15 0)
(1.4 -1.73831e-15 0)
(1.4 -2.00857e-15 0)
(1.4 -2.18254e-15 0)
(1.4 -2.18689e-15 0)
(1.4 -2.1908e-15 0)
(1.4 -2.35707e-15 0)
(1.4 -2.04489e-15 0)
(1.4 -1.68037e-15 0)
(1.4 -1.50759e-15 0)
(1.4 -1.35753e-15 0)
(1.4 -1.3308e-15 0)
(1.4 -1.36946e-15 0)
(1.4 -1.36522e-15 0)
(1.4 -1.48375e-15 0)
(1.4 -1.53334e-15 0)
(1.4 -1.54721e-15 0)
(1.4 -1.54714e-15 0)
(1.4 -1.46332e-15 0)
(1.4 -1.41687e-15 0)
(1.4 -1.11546e-15 0)
(1.4 -8.03847e-16 0)
(1.4 -7.02401e-16 0)
(1.4 -7.13189e-16 0)
(1.4 -4.07464e-16 0)
(1.4 -2.57548e-16 0)
(1.4 -2.827e-16 0)
(1.4 -5.06353e-16 0)
(1.4 -6.72009e-16 0)
(1.4 -9.7895e-16 0)
(1.4 -1.18275e-15 0)
(1.4 -1.41162e-15 0)
(1.4 -1.44145e-15 0)
(1.4 -1.33076e-15 0)
(1.4 -1.2097e-15 0)
(1.4 -1.23804e-15 0)
(1.4 -1.3275e-15 0)
(1.4 -1.21407e-15 0)
(1.4 -9.3819e-16 0)
(1.4 -7.0087e-16 0)
(1.4 -7.38161e-16 0)
(1.4 -8.84342e-16 0)
(1.4 -1.0942e-15 0)
(1.4 -1.25243e-15 0)
(1.4 -1.52532e-15 0)
(1.4 -1.02277e-15 0)
(1.4 -7.76369e-16 0)
(1.4 -8.75488e-16 0)
(1.4 -1.0407e-15 0)
(1.4 -1.06814e-15 0)
(1.4 -9.31117e-16 0)
(1.4 -4.37238e-16 0)
(1.4 1.08523e-16 0)
(1.4 2.78867e-16 0)
(1.4 9.02689e-16 0)
(1.4 1.10309e-15 0)
(1.4 1.41862e-15 0)
(1.4 1.70696e-15 0)
(1.4 1.81244e-15 0)
(1.4 1.77935e-15 0)
(1.4 1.57797e-15 0)
(1.4 1.44273e-15 0)
(1.4 1.24211e-15 0)
(1.4 1.11078e-15 0)
(1.4 8.26735e-16 0)
(1.4 3.71668e-16 0)
(1.4 3.38141e-16 0)
(1.4 3.28186e-16 0)
(1.4 2.39743e-16 0)
(1.4 4.03509e-16 0)
(1.4 8.49023e-16 0)
(1.4 1.16867e-15 0)
(1.4 1.35983e-15 0)
(1.4 1.37129e-15 0)
(1.4 1.5445e-15 0)
(1.4 1.54966e-15 0)
(1.4 1.32006e-15 0)
(1.4 8.64284e-16 0)
(1.4 1.23875e-15 0)
(1.4 1.38036e-15 0)
(1.4 1.37136e-15 0)
(1.4 1.74461e-15 0)
(1.4 2.20834e-15 0)
(1.4 2.63861e-15 0)
(1.4 2.82978e-15 0)
(1.4 2.82845e-15 0)
(1.4 2.72908e-15 0)
(1.4 2.58623e-15 0)
(1.4 2.48097e-15 0)
(1.4 2.2702e-15 0)
(1.4 2.23101e-15 0)
(1.4 1.88641e-15 0)
(1.4 1.5897e-15 0)
(1.4 1.38305e-15 0)
(1.4 9.45663e-16 0)
(1.4 8.43712e-16 0)
(1.4 6.03126e-16 0)
(1.4 5.24573e-16 0)
(1.4 3.52937e-16 0)
(1.4 5.65103e-17 0)
(1.4 4.40985e-17 0)
(1.4 2.15402e-16 0)
(1.4 2.90762e-16 0)
(1.4 2.86572e-16 0)
(1.4 7.26242e-16 0)
(1.4 9.28696e-16 0)
(1.4 1.00722e-15 0)
(1.4 1.57144e-15 0)
(1.4 2.03864e-15 0)
(1.4 2.44429e-15 0)
(1.4 2.50531e-15 0)
(1.4 2.36779e-15 0)
(1.4 2.64562e-15 0)
(1.4 2.99103e-15 0)
(1.4 2.97739e-15 0)
(1.4 3.08347e-15 0)
(1.4 3.04277e-15 0)
(1.4 2.8413e-15 0)
(1.4 2.72847e-15 0)
(1.4 2.45021e-15 0)
(1.4 2.41602e-15 0)
(1.4 2.48366e-15 0)
(1.4 2.82296e-15 0)
(1.4 3.09402e-15 0)
(1.4 3.44447e-15 0)
(1.4 3.62056e-15 0)
(1.4 3.80853e-15 0)
(1.4 3.82356e-15 0)
(1.4 3.68002e-15 0)
(1.4 3.60237e-15 0)
(1.4 3.46642e-15 0)
(1.4 3.44389e-15 0)
(1.4 3.54848e-15 0)
(1.4 3.58261e-15 0)
(1.4 3.53414e-15 0)
(1.4 3.40868e-15 0)
(1.4 3.24094e-15 0)
(1.4 3.10897e-15 0)
(1.4 2.97425e-15 0)
(1.4 2.88655e-15 0)
(1.4 2.8702e-15 0)
(1.4 2.83727e-15 0)
(1.4 2.82481e-15 0)
(1.4 2.90676e-15 0)
(1.4 2.33485e-15 0)
(1.4 1.59655e-15 0)
(1.4 1.57645e-15 0)
(1.4 1.41144e-15 0)
(1.4 1.19004e-15 0)
(1.4 1.11985e-15 0)
(1.4 1.08258e-15 0)
(1.4 8.10563e-16 0)
(1.4 4.91113e-16 0)
(1.4 -3.36025e-16 0)
(1.4 -1.20769e-15 0)
(1.4 -1.49017e-15 0)
(1.4 -1.54753e-15 0)
(1.4 -1.63522e-15 0)
(1.4 -1.80195e-15 0)
(1.4 -1.93071e-15 0)
(1.4 -1.93764e-15 0)
(1.4 -2.15804e-15 0)
(1.4 -2.33677e-15 0)
(1.4 -2.51883e-15 0)
(1.4 -2.7447e-15 0)
(1.4 -2.98745e-15 0)
(1.4 -3.38277e-15 0)
(1.4 -3.19355e-15 0)
(1.4 -3.13057e-15 0)
(1.4 -3.16898e-15 0)
(1.4 -2.88003e-15 0)
(1.4 -2.6339e-15 0)
(1.4 -2.49012e-15 0)
(1.4 -2.37614e-15 0)
(1.4 -2.97814e-15 0)
(1.4 -3.18544e-15 0)
(1.4 -3.06467e-15 0)
(1.4 -2.76135e-15 0)
(1.4 -2.47775e-15 0)
(1.4 -2.15925e-15 0)
(1.4 -1.50245e-15 0)
(1.4 -1.08409e-15 0)
(1.4 -5.33409e-16 0)
(1.4 1.07945e-16 0)
(1.4 6.80046e-16 0)
(1.4 9.11839e-16 0)
(1.4 6.78808e-16 0)
(1.4 4.60491e-16 0)
(1.4 5.13788e-16 0)
(1.4 6.63626e-16 0)
(1.4 9.66472e-16 0)
(1.4 1.32555e-15 0)
(1.4 1.47457e-15 0)
(1.4 1.31081e-15 0)
(1.4 1.13865e-15 0)
(1.4 1.18962e-15 0)
(1.4 1.09734e-15 0)
(1.4 9.41476e-16 0)
(1.4 8.85473e-16 0)
(1.4 8.32858e-16 0)
(1.4 8.21411e-16 0)
(1.4 6.63706e-16 0)
(1.4 4.94605e-16 0)
(1.4 3.57773e-16 0)
(1.4 1.20396e-16 0)
(1.4 -7.8128e-17 0)
(1.4 -1.4327e-16 0)
(1.4 -4.29732e-16 0)
(1.4 -4.92126e-16 0)
(1.4 -8.59675e-16 0)
(1.4 -9.79019e-16 0)
(1.4 -1.07327e-15 0)
(1.4 -1.14795e-15 0)
(1.4 -1.13264e-15 0)
(1.4 -1.05841e-15 0)
(1.4 -1.04537e-15 0)
(1.4 -9.86274e-16 0)
(1.4 -9.54912e-16 0)
(1.4 -1.12896e-15 0)
(1.4 -1.30784e-15 0)
(1.4 -1.27663e-15 0)
(1.4 -1.36389e-15 0)
(1.4 -1.31828e-15 0)
(1.4 -1.22257e-15 0)
(1.4 -1.47936e-15 0)
(1.4 -1.31676e-15 0)
(1.4 -6.52751e-16 0)
(1.4 4.70119e-17 0)
(1.4 1.66025e-16 0)
(1.4 3.97234e-16 0)
(1.4 3.94857e-16 0)
(1.4 2.8301e-16 0)
(1.4 3.78194e-16 0)
(1.4 7.64408e-16 0)
(1.4 8.04973e-16 0)
(1.4 7.91909e-16 0)
(1.4 8.30717e-16 0)
(1.4 7.68886e-16 0)
(1.4 6.44855e-16 0)
(1.4 5.25351e-16 0)
(1.4 5.56052e-16 0)
(1.4 8.87684e-16 0)
(1.4 1.43248e-15 0)
(1.4 1.02398e-15 0)
(1.4 6.77207e-16 0)
(1.4 -1.01389e-12 0)
(1.39785 0.00050775 0)
(1.1257 0.0369819 0)
(0.872108 0.0411064 0)
(0.850657 0.0428442 0)
(0.843711 0.0454968 0)
(0.836079 0.0483652 0)
(0.829018 0.052282 0)
(0.82218 0.0567092 0)
(0.817571 0.062652 0)
(0.813649 0.0693307 0)
(0.812122 0.0779268 0)
(1.4 3.99971e-18 0)
(1.4 -6.15692e-17 0)
(1.4 -2.22584e-16 0)
(1.4 -3.66925e-16 0)
(1.4 -4.40089e-16 0)
(1.4 -4.29482e-16 0)
(1.4 -3.78653e-16 0)
(1.4 -5.10271e-16 0)
(1.4 -6.27116e-16 0)
(1.4 -6.01304e-16 0)
(1.4 -6.10826e-16 0)
(1.4 -5.35209e-16 0)
(1.4 -4.90417e-16 0)
(1.4 -3.52614e-16 0)
(1.4 -2.49481e-16 0)
(1.4 -2.07166e-16 0)
(1.4 -3.57029e-16 0)
(1.4 -5.50673e-16 0)
(1.4 -7.76097e-16 0)
(1.4 -6.82405e-16 0)
(1.4 -6.3483e-16 0)
(1.4 -6.34695e-16 0)
(1.4 -6.02798e-16 0)
(1.4 -7.31515e-16 0)
(1.4 -9.87157e-16 0)
(1.4 -9.78362e-16 0)
(1.4 -1.09331e-15 0)
(1.4 -8.7221e-16 0)
(1.4 -9.23176e-16 0)
(1.4 -9.55125e-16 0)
(1.4 -1.09302e-15 0)
(1.4 -1.14757e-15 0)
(1.4 -1.31033e-15 0)
(1.4 -1.38575e-15 0)
(1.4 -1.34393e-15 0)
(1.4 -1.17925e-15 0)
(1.4 -1.04536e-15 0)
(1.4 -7.88172e-16 0)
(1.4 -7.6053e-16 0)
(1.4 -8.79356e-16 0)
(1.4 -9.52165e-16 0)
(1.4 -1.08086e-15 0)
(1.4 -7.76534e-16 0)
(1.4 -6.10005e-16 0)
(1.4 -2.11327e-16 0)
(1.4 -4.09996e-17 0)
(1.4 1.94245e-16 0)
(1.4 5.58978e-16 0)
(1.4 6.15028e-16 0)
(1.4 5.97172e-16 0)
(1.4 5.28485e-16 0)
(1.4 5.93179e-16 0)
(1.4 4.61564e-16 0)
(1.4 3.45213e-16 0)
(1.4 1.71511e-16 0)
(1.4 -1.74289e-16 0)
(1.4 -4.13669e-16 0)
(1.4 -6.78075e-16 0)
(1.4 -8.1984e-16 0)
(1.4 -9.69572e-16 0)
(1.4 -1.08858e-15 0)
(1.4 -1.03046e-15 0)
(1.4 -9.86719e-16 0)
(1.4 -1.07242e-15 0)
(1.4 -1.14394e-15 0)
(1.4 -1.21271e-15 0)
(1.4 -1.24997e-15 0)
(1.4 -1.18385e-15 0)
(1.4 -1.42322e-15 0)
(1.4 -1.62959e-15 0)
(1.4 -1.54089e-15 0)
(1.4 -1.39992e-15 0)
(1.4 -1.2905e-15 0)
(1.4 -1.35779e-15 0)
(1.4 -1.48183e-15 0)
(1.4 -1.25558e-15 0)
(1.4 -9.91821e-16 0)
(1.4 -9.97711e-16 0)
(1.4 -1.09609e-15 0)
(1.4 -8.88104e-16 0)
(1.4 -5.90165e-16 0)
(1.4 -4.25107e-16 0)
(1.4 2.34708e-17 0)
(1.4 3.83296e-16 0)
(1.4 4.70497e-16 0)
(1.4 7.34485e-16 0)
(1.4 9.49165e-16 0)
(1.4 1.03416e-15 0)
(1.4 1.04958e-15 0)
(1.4 9.42743e-16 0)
(1.4 9.08256e-16 0)
(1.4 8.96227e-16 0)
(1.4 9.09294e-16 0)
(1.4 7.4593e-16 0)
(1.4 7.46923e-16 0)
(1.4 8.99746e-16 0)
(1.4 7.05315e-16 0)
(1.4 3.46375e-16 0)
(1.4 4.2221e-17 0)
(1.4 -2.32008e-16 0)
(1.4 -4.86223e-16 0)
(1.4 -4.76032e-16 0)
(1.4 -4.13762e-16 0)
(1.4 -3.71368e-16 0)
(1.4 -1.72018e-16 0)
(1.4 2.97742e-17 0)
(1.4 1.83741e-16 0)
(1.4 1.94373e-16 0)
(1.4 7.13662e-17 0)
(1.4 -1.51186e-16 0)
(1.4 -4.82863e-16 0)
(1.4 -1.0021e-15 0)
(1.4 -1.3444e-15 0)
(1.4 -1.36069e-15 0)
(1.4 -1.35268e-15 0)
(1.4 -1.10877e-15 0)
(1.4 -1.13907e-15 0)
(1.4 -1.08736e-15 0)
(1.4 -9.64381e-16 0)
(1.4 -9.00354e-16 0)
(1.4 -7.15235e-16 0)
(1.4 -7.75004e-16 0)
(1.4 -8.98474e-16 0)
(1.4 -9.81996e-16 0)
(1.4 -1.04914e-15 0)
(1.4 -1.13695e-15 0)
(1.4 -1.21062e-15 0)
(1.4 -1.1043e-15 0)
(1.4 -5.45749e-16 0)
(1.4 -5.81802e-16 0)
(1.4 -5.29955e-17 0)
(1.4 1.84598e-16 0)
(1.4 2.14175e-16 0)
(1.4 2.26532e-16 0)
(1.4 1.15635e-16 0)
(1.4 -9.64696e-17 0)
(1.4 -3.27677e-16 0)
(1.4 -4.96644e-16 0)
(1.4 -3.85165e-16 0)
(1.4 -1.58508e-16 0)
(1.4 7.68893e-17 0)
(1.4 3.72802e-17 0)
(1.4 -3.26547e-16 0)
(1.4 -4.75744e-16 0)
(1.4 -6.17292e-16 0)
(1.4 -5.64005e-16 0)
(1.4 -5.03935e-16 0)
(1.4 -3.16794e-16 0)
(1.4 -4.05102e-16 0)
(1.4 -2.67542e-16 0)
(1.4 -2.52722e-16 0)
(1.4 -1.87907e-16 0)
(1.4 -3.60307e-16 0)
(1.4 -4.42275e-16 0)
(1.4 -8.07874e-16 0)
(1.4 -1.00011e-15 0)
(1.4 -1.30904e-15 0)
(1.4 -1.32199e-15 0)
(1.4 -1.30132e-15 0)
(1.4 -1.20402e-15 0)
(1.4 -1.0182e-15 0)
(1.4 -7.16434e-16 0)
(1.4 -3.62352e-16 0)
(1.4 -2.15032e-16 0)
(1.4 -1.19581e-16 0)
(1.4 2.24357e-16 0)
(1.4 4.44066e-16 0)
(1.4 5.62171e-16 0)
(1.4 5.38054e-16 0)
(1.4 3.14109e-16 0)
(1.4 2.86108e-16 0)
(1.4 3.07561e-16 0)
(1.4 2.98486e-16 0)
(1.4 2.62811e-16 0)
(1.4 3.63009e-16 0)
(1.4 2.55992e-16 0)
(1.4 2.04092e-16 0)
(1.4 1.28642e-16 0)
(1.4 3.79255e-16 0)
(1.4 9.55764e-16 0)
(1.4 1.78355e-15 0)
(1.4 2.4106e-15 0)
(1.4 2.89588e-15 0)
(1.4 3.10368e-15 0)
(1.4 3.49447e-15 0)
(1.4 3.5724e-15 0)
(1.4 3.39425e-15 0)
(1.4 3.27346e-15 0)
(1.4 3.19712e-15 0)
(1.4 2.91565e-15 0)
(1.4 2.72634e-15 0)
(1.4 2.19912e-15 0)
(1.4 1.76465e-15 0)
(1.4 1.61628e-15 0)
(1.4 1.56512e-15 0)
(1.4 1.53504e-15 0)
(1.4 1.92995e-15 0)
(1.4 2.16366e-15 0)
(1.4 2.184e-15 0)
(1.4 2.25069e-15 0)
(1.4 2.53212e-15 0)
(1.4 2.84941e-15 0)
(1.4 3.13053e-15 0)
(1.4 2.84518e-15 0)
(1.4 2.79789e-15 0)
(1.4 2.50375e-15 0)
(1.4 2.49412e-15 0)
(1.4 2.75861e-15 0)
(1.4 2.8584e-15 0)
(1.4 3.2099e-15 0)
(1.4 3.35565e-15 0)
(1.4 3.43455e-15 0)
(1.4 3.50947e-15 0)
(1.4 3.56618e-15 0)
(1.4 3.50327e-15 0)
(1.4 3.2298e-15 0)
(1.4 2.93343e-15 0)
(1.4 3.02999e-15 0)
(1.4 3.31269e-15 0)
(1.4 3.34085e-15 0)
(1.4 2.46103e-15 0)
(1.4 2.10291e-15 0)
(1.4 1.92824e-15 0)
(1.4 1.89347e-15 0)
(1.4 1.62294e-15 0)
(1.4 1.40041e-15 0)
(1.4 1.25417e-15 0)
(1.4 1.08424e-15 0)
(1.4 8.2884e-16 0)
(1.4 7.3959e-16 0)
(1.4 6.88651e-16 0)
(1.4 5.40467e-16 0)
(1.4 6.08669e-16 0)
(1.4 7.71571e-16 0)
(1.4 8.78793e-16 0)
(1.4 1.0109e-15 0)
(1.4 1.11982e-15 0)
(1.4 1.24776e-15 0)
(1.4 1.32583e-15 0)
(1.4 1.05325e-15 0)
(1.4 1.3358e-15 0)
(1.4 1.88072e-15 0)
(1.4 2.01051e-15 0)
(1.4 2.06502e-15 0)
(1.4 2.06459e-15 0)
(1.4 1.99719e-15 0)
(1.4 1.94501e-15 0)
(1.4 2.2141e-15 0)
(1.4 2.49521e-15 0)
(1.4 2.47841e-15 0)
(1.4 2.2906e-15 0)
(1.4 2.68924e-15 0)
(1.4 3.66267e-15 0)
(1.4 4.08976e-15 0)
(1.4 4.16501e-15 0)
(1.4 4.08079e-15 0)
(1.4 3.97972e-15 0)
(1.4 3.85655e-15 0)
(1.4 3.58637e-15 0)
(1.4 3.44498e-15 0)
(1.4 3.35826e-15 0)
(1.4 2.79481e-15 0)
(1.4 2.54576e-15 0)
(1.4 2.57945e-15 0)
(1.4 2.75818e-15 0)
(1.4 3.07904e-15 0)
(1.4 3.24288e-15 0)
(1.4 3.32098e-15 0)
(1.4 3.37603e-15 0)
(1.4 3.4277e-15 0)
(1.4 3.47882e-15 0)
(1.4 3.43758e-15 0)
(1.4 3.21544e-15 0)
(1.4 3.15564e-15 0)
(1.4 2.96646e-15 0)
(1.4 1.48253e-15 0)
(1.4 9.07038e-16 0)
(1.4 1.07946e-16 0)
(1.4 -4.31729e-16 0)
(1.4 -1.65289e-15 0)
(1.4 -2.83063e-15 0)
(1.4 -3.05746e-15 0)
(1.4 -3.46998e-15 0)
(1.4 -4.17955e-15 0)
(1.4 -4.44011e-15 0)
(1.4 -4.6543e-15 0)
(1.4 -4.78472e-15 0)
(1.4 -4.68177e-15 0)
(1.4 -4.17472e-15 0)
(1.4 -3.94025e-15 0)
(1.4 -3.53773e-15 0)
(1.4 -3.52198e-15 0)
(1.4 -3.44477e-15 0)
(1.4 -3.00801e-15 0)
(1.4 -2.67158e-15 0)
(1.4 -2.27051e-15 0)
(1.4 -1.659e-15 0)
(1.4 -1.61312e-15 0)
(1.4 -1.75662e-15 0)
(1.4 -2.06786e-15 0)
(1.4 -2.06122e-15 0)
(1.4 -2.25848e-15 0)
(1.4 -2.98264e-15 0)
(1.4 -3.23062e-15 0)
(1.4 -3.28022e-15 0)
(1.4 -3.06074e-15 0)
(1.4 -2.96258e-15 0)
(1.4 -2.6152e-15 0)
(1.4 -2.17606e-15 0)
(1.4 -1.97181e-15 0)
(1.4 -1.54381e-15 0)
(1.4 -1.21573e-15 0)
(1.4 -4.1861e-16 0)
(1.4 5.7122e-16 0)
(1.4 1.52135e-15 0)
(1.4 2.77511e-15 0)
(1.4 3.12e-15 0)
(1.4 2.96446e-15 0)
(1.4 2.43209e-15 0)
(1.4 2.02757e-15 0)
(1.4 2.03093e-15 0)
(1.4 2.05654e-15 0)
(1.4 2.07382e-15 0)
(1.4 2.2769e-15 0)
(1.4 2.36774e-15 0)
(1.4 2.40101e-15 0)
(1.4 2.2258e-15 0)
(1.4 1.89238e-15 0)
(1.4 1.66618e-15 0)
(1.4 1.39834e-15 0)
(1.4 1.33141e-15 0)
(1.4 1.17422e-15 0)
(1.4 1.08161e-15 0)
(1.4 9.14527e-16 0)
(1.4 6.24333e-16 0)
(1.4 2.4522e-16 0)
(1.4 -5.14904e-17 0)
(1.4 -4.62391e-16 0)
(1.4 -7.33937e-16 0)
(1.4 -1.1886e-15 0)
(1.4 -1.03662e-15 0)
(1.4 -7.89523e-16 0)
(1.4 -6.89569e-16 0)
(1.4 -7.14919e-16 0)
(1.4 -7.84846e-16 0)
(1.4 -5.41656e-16 0)
(1.4 -3.63898e-16 0)
(1.4 -5.37568e-16 0)
(1.4 -7.76841e-16 0)
(1.4 -1.24604e-15 0)
(1.4 -1.53113e-15 0)
(1.4 -1.50914e-15 0)
(1.4 -9.59716e-16 0)
(1.4 -9.73331e-16 0)
(1.4 -1.07938e-15 0)
(1.4 -1.23039e-15 0)
(1.4 -1.52745e-15 0)
(1.4 -1.68548e-15 0)
(1.4 -1.6045e-15 0)
(1.4 -1.45167e-15 0)
(1.4 -1.22748e-15 0)
(1.4 -7.7046e-16 0)
(1.4 -6.49096e-16 0)
(1.4 -7.21427e-17 0)
(1.4 3.67538e-17 0)
(1.4 1.40336e-16 0)
(1.4 5.01057e-16 0)
(1.4 1.03496e-15 0)
(1.4 1.63625e-15 0)
(1.4 1.84428e-15 0)
(1.4 1.65614e-15 0)
(1.4 1.269e-15 0)
(1.4 -1.6002e-13 0)
(1.39997 1.03656e-05 0)
(1.38439 0.00485666 0)
(1.0667 0.0519787 0)
(0.884949 0.0589166 0)
(0.870485 0.0635011 0)
(0.868532 0.0666598 0)
(0.865932 0.0697422 0)
(0.863911 0.0738514 0)
(0.8626 0.0786513 0)
(0.861542 0.0833609 0)
(0.859541 0.0876265 0)
(1.4 4.54994e-17 0)
(1.4 -1.66339e-16 0)
(1.4 -2.44812e-16 0)
(1.4 -4.16554e-16 0)
(1.4 -4.30271e-16 0)
(1.4 -5.19489e-16 0)
(1.4 -5.43609e-16 0)
(1.4 -6.25859e-16 0)
(1.4 -6.93799e-16 0)
(1.4 -8.04392e-16 0)
(1.4 -8.35374e-16 0)
(1.4 -8.4726e-16 0)
(1.4 -8.46437e-16 0)
(1.4 -7.72788e-16 0)
(1.4 -6.92568e-16 0)
(1.4 -9.03315e-16 0)
(1.4 -1.06502e-15 0)
(1.4 -1.13226e-15 0)
(1.4 -1.21682e-15 0)
(1.4 -1.25097e-15 0)
(1.4 -1.16365e-15 0)
(1.4 -1.1982e-15 0)
(1.4 -1.27427e-15 0)
(1.4 -1.33031e-15 0)
(1.4 -1.41306e-15 0)
(1.4 -1.37267e-15 0)
(1.4 -1.4267e-15 0)
(1.4 -1.39814e-15 0)
(1.4 -1.44532e-15 0)
(1.4 -1.37276e-15 0)
(1.4 -1.42309e-15 0)
(1.4 -1.17878e-15 0)
(1.4 -8.96614e-16 0)
(1.4 -7.76331e-16 0)
(1.4 -6.74851e-16 0)
(1.4 -2.92934e-16 0)
(1.4 7.84485e-17 0)
(1.4 3.24068e-16 0)
(1.4 4.22518e-16 0)
(1.4 7.68956e-16 0)
(1.4 9.2896e-16 0)
(1.4 9.84484e-16 0)
(1.4 8.86409e-16 0)
(1.4 8.1117e-16 0)
(1.4 7.08916e-16 0)
(1.4 7.11286e-16 0)
(1.4 6.43911e-16 0)
(1.4 5.90661e-16 0)
(1.4 4.47289e-16 0)
(1.4 1.89506e-16 0)
(1.4 3.81386e-17 0)
(1.4 -3.71229e-16 0)
(1.4 -3.92101e-16 0)
(1.4 -4.24279e-16 0)
(1.4 -5.60504e-16 0)
(1.4 -5.64534e-16 0)
(1.4 -5.6076e-16 0)
(1.4 -5.91426e-16 0)
(1.4 -6.09752e-16 0)
(1.4 -7.63041e-16 0)
(1.4 -8.64619e-16 0)
(1.4 -8.3062e-16 0)
(1.4 -8.68534e-16 0)
(1.4 -9.40719e-16 0)
(1.4 -8.32355e-16 0)
(1.4 -7.4516e-16 0)
(1.4 -5.99925e-16 0)
(1.4 -5.46309e-16 0)
(1.4 -7.30635e-16 0)
(1.4 -8.00669e-16 0)
(1.4 -1.2645e-15 0)
(1.4 -1.59744e-15 0)
(1.4 -1.60212e-15 0)
(1.4 -1.6387e-15 0)
(1.4 -1.47961e-15 0)
(1.4 -1.48795e-15 0)
(1.4 -1.63524e-15 0)
(1.4 -1.95033e-15 0)
(1.4 -1.95508e-15 0)
(1.4 -1.70341e-15 0)
(1.4 -1.53322e-15 0)
(1.4 -1.51356e-15 0)
(1.4 -1.49089e-15 0)
(1.4 -1.03754e-15 0)
(1.4 -6.30736e-16 0)
(1.4 -5.31561e-16 0)
(1.4 -2.08751e-16 0)
(1.4 -1.39255e-17 0)
(1.4 -4.20484e-17 0)
(1.4 -2.41365e-16 0)
(1.4 -3.76178e-16 0)
(1.4 -4.01238e-16 0)
(1.4 -3.03769e-16 0)
(1.4 -2.11368e-16 0)
(1.4 -3.50536e-17 0)
(1.4 2.91984e-16 0)
(1.4 3.92453e-16 0)
(1.4 5.15286e-16 0)
(1.4 6.02652e-16 0)
(1.4 8.42609e-16 0)
(1.4 1.02772e-15 0)
(1.4 1.08489e-15 0)
(1.4 1.19159e-15 0)
(1.4 1.22219e-15 0)
(1.4 1.26134e-15 0)
(1.4 1.38465e-15 0)
(1.4 1.37404e-15 0)
(1.4 1.22728e-15 0)
(1.4 1.19194e-15 0)
(1.4 9.23422e-16 0)
(1.4 6.67413e-16 0)
(1.4 6.36136e-16 0)
(1.4 3.56869e-16 0)
(1.4 2.67989e-16 0)
(1.4 2.81517e-16 0)
(1.4 1.79038e-16 0)
(1.4 1.27489e-16 0)
(1.4 -2.91835e-16 0)
(1.4 -3.66721e-16 0)
(1.4 -3.27854e-16 0)
(1.4 -3.20422e-16 0)
(1.4 -1.77366e-16 0)
(1.4 -2.39274e-17 0)
(1.4 2.16815e-16 0)
(1.4 2.84084e-16 0)
(1.4 3.23057e-16 0)
(1.4 3.41018e-16 0)
(1.4 2.6597e-16 0)
(1.4 4.91128e-16 0)
(1.4 7.8444e-16 0)
(1.4 1.14946e-15 0)
(1.4 1.10458e-15 0)
(1.4 8.96462e-16 0)
(1.4 7.85114e-16 0)
(1.4 6.74732e-16 0)
(1.4 5.67993e-16 0)
(1.4 6.29534e-16 0)
(1.4 6.89034e-16 0)
(1.4 7.1787e-16 0)
(1.4 6.89643e-16 0)
(1.4 7.52051e-16 0)
(1.4 6.56638e-16 0)
(1.4 4.91651e-16 0)
(1.4 3.55621e-16 0)
(1.4 2.04088e-16 0)
(1.4 1.27541e-16 0)
(1.4 3.06967e-17 0)
(1.4 -1.93941e-16 0)
(1.4 -1.97693e-16 0)
(1.4 -3.55021e-16 0)
(1.4 -2.87924e-16 0)
(1.4 -2.79719e-16 0)
(1.4 -2.34305e-16 0)
(1.4 -4.02449e-17 0)
(1.4 -7.63252e-17 0)
(1.4 -1.38236e-16 0)
(1.4 -1.49139e-16 0)
(1.4 9.56566e-17 0)
(1.4 2.54398e-16 0)
(1.4 3.03272e-16 0)
(1.4 4.40231e-16 0)
(1.4 5.86538e-16 0)
(1.4 8.39789e-16 0)
(1.4 9.6409e-16 0)
(1.4 9.20595e-16 0)
(1.4 8.05593e-16 0)
(1.4 7.26107e-16 0)
(1.4 6.7853e-16 0)
(1.4 7.07259e-16 0)
(1.4 7.1097e-16 0)
(1.4 8.02004e-16 0)
(1.4 8.86522e-16 0)
(1.4 7.86833e-16 0)
(1.4 6.75395e-16 0)
(1.4 6.27281e-16 0)
(1.4 7.11378e-16 0)
(1.4 9.02396e-16 0)
(1.4 1.11962e-15 0)
(1.4 1.28848e-15 0)
(1.4 1.64336e-15 0)
(1.4 2.14882e-15 0)
(1.4 2.39727e-15 0)
(1.4 2.39083e-15 0)
(1.4 2.52131e-15 0)
(1.4 2.81314e-15 0)
(1.4 3.07925e-15 0)
(1.4 3.15191e-15 0)
(1.4 2.84731e-15 0)
(1.4 3.09125e-15 0)
(1.4 2.55824e-15 0)
(1.4 2.33136e-15 0)
(1.4 2.42102e-15 0)
(1.4 2.38534e-15 0)
(1.4 2.26885e-15 0)
(1.4 2.26898e-15 0)
(1.4 2.34966e-15 0)
(1.4 2.57675e-15 0)
(1.4 2.87186e-15 0)
(1.4 3.25339e-15 0)
(1.4 3.38979e-15 0)
(1.4 3.86677e-15 0)
(1.4 4.23866e-15 0)
(1.4 4.51173e-15 0)
(1.4 4.80842e-15 0)
(1.4 4.91376e-15 0)
(1.4 5.13928e-15 0)
(1.4 4.98391e-15 0)
(1.4 3.81833e-15 0)
(1.4 3.2498e-15 0)
(1.4 3.07202e-15 0)
(1.4 3.05553e-15 0)
(1.4 2.8211e-15 0)
(1.4 2.28199e-15 0)
(1.4 2.0002e-15 0)
(1.4 2.05065e-15 0)
(1.4 2.15804e-15 0)
(1.4 2.09287e-15 0)
(1.4 2.14972e-15 0)
(1.4 2.32069e-15 0)
(1.4 2.19282e-15 0)
(1.4 2.11037e-15 0)
(1.4 1.92993e-15 0)
(1.4 1.64571e-15 0)
(1.4 1.36739e-15 0)
(1.4 1.32397e-15 0)
(1.4 1.30236e-15 0)
(1.4 1.17386e-15 0)
(1.4 9.91255e-16 0)
(1.4 8.38858e-16 0)
(1.4 9.49009e-16 0)
(1.4 1.01222e-15 0)
(1.4 9.65161e-16 0)
(1.4 9.20707e-16 0)
(1.4 9.08851e-16 0)
(1.4 7.56876e-16 0)
(1.4 1.38964e-16 0)
(1.4 -2.08362e-16 0)
(1.4 -2.79554e-16 0)
(1.4 -4.92455e-16 0)
(1.4 -6.31406e-16 0)
(1.4 -6.03e-16 0)
(1.4 -6.41131e-16 0)
(1.4 -6.95666e-16 0)
(1.4 -8.4527e-16 0)
(1.4 -6.69487e-16 0)
(1.4 -3.97138e-16 0)
(1.4 -3.2616e-16 0)
(1.4 -9.07822e-17 0)
(1.4 7.30465e-18 0)
(1.4 2.67217e-17 0)
(1.4 1.13604e-16 0)
(1.4 3.41513e-16 0)
(1.4 3.60381e-16 0)
(1.4 5.63932e-16 0)
(1.4 7.23567e-16 0)
(1.4 1.31529e-15 0)
(1.4 1.36559e-15 0)
(1.4 1.35592e-15 0)
(1.4 1.4527e-15 0)
(1.4 1.40749e-15 0)
(1.4 1.13289e-15 0)
(1.4 1.0912e-15 0)
(1.4 6.92122e-16 0)
(1.4 5.16642e-16 0)
(1.4 1.13518e-15 0)
(1.4 1.3902e-15 0)
(1.4 1.51211e-15 0)
(1.4 1.71421e-15 0)
(1.4 2.17679e-15 0)
(1.4 2.75356e-15 0)
(1.4 2.80969e-15 0)
(1.4 2.26161e-15 0)
(1.4 2.41493e-16 0)
(1.4 -2.73041e-16 0)
(1.4 -1.27289e-15 0)
(1.4 -2.22162e-15 0)
(1.4 -2.90852e-15 0)
(1.4 -3.62444e-15 0)
(1.4 -4.19772e-15 0)
(1.4 -4.76419e-15 0)
(1.4 -5.26874e-15 0)
(1.4 -5.25421e-15 0)