/*--------------------------------*- C++ -*----------------------------------*\
  =========                 |
  \\      /  F ield         | OpenFOAM: The Open Source CFD Toolbox
   \\    /   O peration     | Website:  https://openfoam.org
    \\  /    A nd           | Version:  7
     \\/     M anipulation  |
\*---------------------------------------------------------------------------*/
FoamFile
{
    version     2.0;
    format      ascii;
    class       volVectorField;
    location    "0.014";
    object      U;
}
// * * * * * * * * * * * * * * * * * * * * * * * * * * * * * * * * * * * * * //

dimensions      [0 1 -1 0 0 0 0];

internalField   nonuniform List<vector> 
40000
(
(1.43632e-07 -1.51023e-07 0)
(1.31504e-06 -8.0443e-07 0)
(3.81571e-06 -1.17213e-06 0)
(6.76615e-06 -1.23128e-06 0)
(9.54145e-06 -1.11069e-06 0)
(1.17802e-05 -8.90812e-07 0)
(1.3262e-05 -6.14188e-07 0)
(1.38453e-05 -3.06074e-07 0)
(1.34434e-05 1.8094e-08 0)
(1.20064e-05 3.48192e-07 0)
(9.51092e-06 6.78264e-07 0)
(5.95178e-06 1.00357e-06 0)
(1.33744e-06 1.32208e-06 0)
(-4.31446e-06 1.63138e-06 0)
(-1.0979e-05 1.93042e-06 0)
(-1.86258e-05 2.21794e-06 0)
(-2.72215e-05 2.49297e-06 0)
(-3.6729e-05 2.75578e-06 0)
(-4.71102e-05 3.00615e-06 0)
(-5.83256e-05 3.24378e-06 0)
(-7.03343e-05 3.46888e-06 0)
(-8.30956e-05 3.6811e-06 0)
(-9.65688e-05 3.88065e-06 0)
(-0.000110713 4.06812e-06 0)
(-0.000125487 4.24359e-06 0)
(-0.000140853 4.40732e-06 0)
(-0.000156769 4.55955e-06 0)
(-0.000173199 4.70039e-06 0)
(-0.000190103 4.83018e-06 0)
(-0.000207445 4.94932e-06 0)
(-0.000225189 5.05806e-06 0)
(-0.0002433 5.15662e-06 0)
(-0.000261742 5.24536e-06 0)
(-0.000280483 5.32458e-06 0)
(-0.000299489 5.39445e-06 0)
(-0.00031873 5.45547e-06 0)
(-0.000338174 5.50797e-06 0)
(-0.000357792 5.55202e-06 0)
(-0.000377555 5.58797e-06 0)
(-0.000397435 5.61614e-06 0)
(-0.000417405 5.63673e-06 0)
(-0.000437438 5.65007e-06 0)
(-0.000457511 5.65665e-06 0)
(-0.000477598 5.65666e-06 0)
(-0.000497676 5.65013e-06 0)
(-0.000517723 5.63738e-06 0)
(-0.000537716 5.61856e-06 0)
(-0.000557634 5.59374e-06 0)
(-0.000577458 5.56315e-06 0)
(-0.000597167 5.52717e-06 0)
(-0.000616744 5.48607e-06 0)
(-0.00063617 5.44006e-06 0)
(-0.000655427 5.38945e-06 0)
(-0.0006745 5.3345e-06 0)
(-0.000693372 5.2753e-06 0)
(-0.000712028 5.21188e-06 0)
(-0.000730453 5.14444e-06 0)
(-0.000748633 5.07318e-06 0)
(-0.000766555 4.99807e-06 0)
(-0.000784206 4.91925e-06 0)
(-0.000801573 4.83706e-06 0)
(-0.000818645 4.75182e-06 0)
(-0.000835409 4.66363e-06 0)
(-0.000851855 4.57251e-06 0)
(-0.000867974 4.47864e-06 0)
(-0.000883753 4.38203e-06 0)
(-0.000899186 4.28266e-06 0)
(-0.000914261 4.18066e-06 0)
(-0.00092897 4.07633e-06 0)
(-0.000943305 3.97004e-06 0)
(-0.000957258 3.86171e-06 0)
(-0.000970822 3.75119e-06 0)
(-0.000983989 3.63861e-06 0)
(-0.000996752 3.52411e-06 0)
(-0.0010091 3.40786e-06 0)
(-0.00102104 3.28997e-06 0)
(-0.00103255 3.17054e-06 0)
(-0.00104364 3.04969e-06 0)
(-0.00105429 2.92734e-06 0)
(-0.0010645 2.80341e-06 0)
(-0.00107427 2.67801e-06 0)
(-0.00108359 2.55138e-06 0)
(-0.00109246 2.42377e-06 0)
(-0.00110087 2.29519e-06 0)
(-0.00110881 2.16549e-06 0)
(-0.0011163 2.03472e-06 0)
(-0.00112331 1.90298e-06 0)
(-0.00112986 1.77036e-06 0)
(-0.00113593 1.63698e-06 0)
(-0.00114152 1.50287e-06 0)
(-0.00114664 1.36804e-06 0)
(-0.00115127 1.23255e-06 0)
(-0.00115541 1.09639e-06 0)
(-0.00115907 9.59661e-07 0)
(-0.00116224 8.22543e-07 0)
(-0.00116492 6.85076e-07 0)
(-0.00116711 5.4723e-07 0)
(-0.00116881 4.08965e-07 0)
(-0.00117001 2.70308e-07 0)
(-0.00117072 1.31446e-07 0)
(-0.00117094 -7.50246e-09 0)
(-0.00117065 -1.46537e-07 0)
(-0.00116987 -2.85616e-07 0)
(-0.0011686 -4.24739e-07 0)
(-0.00116682 -5.63899e-07 0)
(-0.00116456 -7.02979e-07 0)
(-0.00116179 -8.41942e-07 0)
(-0.00115853 -9.80741e-07 0)
(-0.00115478 -1.11917e-06 0)
(-0.00115053 -1.25717e-06 0)
(-0.0011458 -1.39481e-06 0)
(-0.00114057 -1.53204e-06 0)
(-0.00113485 -1.6688e-06 0)
(-0.00112865 -1.80503e-06 0)
(-0.00112196 -1.94057e-06 0)
(-0.00111479 -2.07536e-06 0)
(-0.00110715 -2.20946e-06 0)
(-0.00109902 -2.34275e-06 0)
(-0.00109043 -2.47501e-06 0)
(-0.00108136 -2.60624e-06 0)
(-0.00107183 -2.73641e-06 0)
(-0.00106184 -2.86542e-06 0)
(-0.00105139 -2.99322e-06 0)
(-0.00104049 -3.11973e-06 0)
(-0.00102915 -3.24473e-06 0)
(-0.00101736 -3.36811e-06 0)
(-0.00100513 -3.48988e-06 0)
(-0.000992479 -3.60998e-06 0)
(-0.000979401 -3.72827e-06 0)
(-0.000965907 -3.84471e-06 0)
(-0.000952004 -3.95914e-06 0)
(-0.000937699 -4.07127e-06 0)
(-0.000923001 -4.18095e-06 0)
(-0.000907917 -4.28819e-06 0)
(-0.000892458 -4.39296e-06 0)
(-0.000876632 -4.49518e-06 0)
(-0.000860449 -4.59473e-06 0)
(-0.00084392 -4.69138e-06 0)
(-0.000827055 -4.78483e-06 0)
(-0.000809867 -4.87489e-06 0)
(-0.000792366 -4.96146e-06 0)
(-0.000774566 -5.04445e-06 0)
(-0.000756479 -5.1238e-06 0)
(-0.000738119 -5.19939e-06 0)
(-0.000719501 -5.27097e-06 0)
(-0.000700639 -5.33824e-06 0)
(-0.000681549 -5.40097e-06 0)
(-0.000662248 -5.45902e-06 0)
(-0.000642751 -5.51226e-06 0)
(-0.000623078 -5.56049e-06 0)
(-0.000603245 -5.60352e-06 0)
(-0.000583273 -5.64113e-06 0)
(-0.00056318 -5.67301e-06 0)
(-0.000542988 -5.69895e-06 0)
(-0.000522718 -5.71881e-06 0)
(-0.000502392 -5.7324e-06 0)
(-0.000482032 -5.73943e-06 0)
(-0.000461663 -5.73961e-06 0)
(-0.00044131 -5.73272e-06 0)
(-0.000420997 -5.71847e-06 0)
(-0.000400751 -5.69658e-06 0)
(-0.000380599 -5.66679e-06 0)
(-0.000360569 -5.6289e-06 0)
(-0.000340691 -5.58266e-06 0)
(-0.000320994 -5.52779e-06 0)
(-0.000301508 -5.46404e-06 0)
(-0.000282265 -5.39117e-06 0)
(-0.000263299 -5.30884e-06 0)
(-0.000244641 -5.21668e-06 0)
(-0.000226327 -5.11443e-06 0)
(-0.000208391 -5.00192e-06 0)
(-0.000190869 -4.87891e-06 0)
(-0.000173798 -4.74506e-06 0)
(-0.000157216 -4.60007e-06 0)
(-0.000141161 -4.44371e-06 0)
(-0.000125671 -4.27575e-06 0)
(-0.000110787 -4.09591e-06 0)
(-9.65483e-05 -3.90391e-06 0)
(-8.2995e-05 -3.69962e-06 0)
(-7.0168e-05 -3.48291e-06 0)
(-5.81081e-05 -3.25368e-06 0)
(-4.68557e-05 -3.01183e-06 0)
(-3.64509e-05 -2.75737e-06 0)
(-2.69327e-05 -2.49046e-06 0)
(-1.83391e-05 -2.21131e-06 0)
(-1.07058e-05 -1.92029e-06 0)
(-4.06564e-06 -1.61811e-06 0)
(1.5523e-06 -1.30585e-06 0)
(6.12432e-06 -9.84951e-07 0)
(9.63407e-06 -6.57434e-07 0)
(1.20753e-05 -3.26431e-07 0)
(1.34556e-05 3.30791e-09 0)
(1.38019e-05 3.2479e-07 0)
(1.31683e-05 6.2733e-07 0)
(1.1649e-05 8.93811e-07 0)
(9.39578e-06 1.09682e-06 0)
(6.64185e-06 1.19332e-06 0)
(3.74393e-06 1.1146e-06 0)
(1.30082e-06 7.63531e-07 0)
(1.44053e-07 1.44059e-07 0)
(7.21245e-07 -1.29264e-06 0)
(3.68495e-06 -3.79433e-06 0)
(8.76429e-06 -5.12013e-06 0)
(1.44213e-05 -5.2553e-06 0)
(1.9494e-05 -4.56288e-06 0)
(2.32023e-05 -3.32512e-06 0)
(2.49934e-05 -1.72891e-06 0)
(2.44738e-05 9.72089e-08 0)
(2.13789e-05 2.06406e-06 0)
(1.55415e-05 4.10949e-06 0)
(6.86492e-06 6.1883e-06 0)
(-4.693e-06 8.26894e-06 0)
(-1.91343e-05 1.03277e-05 0)
(-3.6431e-05 1.23473e-05 0)
(-5.65309e-05 1.43158e-05 0)
(-7.93658e-05 1.62229e-05 0)
(-0.000104853 1.80621e-05 0)
(-0.000132902 1.98284e-05 0)
(-0.000163413 2.15186e-05 0)
(-0.000196282 2.31308e-05 0)
(-0.000231402 2.46634e-05 0)
(-0.000268664 2.61157e-05 0)
(-0.000307954 2.74878e-05 0)
(-0.000349163 2.87797e-05 0)
(-0.000392178 2.99923e-05 0)
(-0.000436889 3.11271e-05 0)
(-0.000483185 3.21846e-05 0)
(-0.000530959 3.31664e-05 0)
(-0.000580103 3.40743e-05 0)
(-0.000630513 3.49095e-05 0)
(-0.000682087 3.56737e-05 0)
(-0.000734723 3.63689e-05 0)
(-0.000788323 3.69966e-05 0)
(-0.000842793 3.75586e-05 0)
(-0.000898038 3.80571e-05 0)
(-0.000953968 3.84935e-05 0)
(-0.0010105 3.88699e-05 0)
(-0.00106753 3.91881e-05 0)
(-0.001125 3.945e-05 0)
(-0.00118281 3.96572e-05 0)
(-0.00124089 3.98115e-05 0)
(-0.00129917 3.99149e-05 0)
(-0.00135756 3.99689e-05 0)
(-0.00141601 3.99755e-05 0)
(-0.00147444 3.99363e-05 0)
(-0.00153278 3.98529e-05 0)
(-0.00159097 3.97268e-05 0)
(-0.00164896 3.95597e-05 0)
(-0.00170668 3.93529e-05 0)
(-0.00176407 3.9108e-05 0)
(-0.00182108 3.88264e-05 0)
(-0.00187766 3.85095e-05 0)
(-0.00193376 3.81589e-05 0)
(-0.00198932 3.7776e-05 0)
(-0.00204431 3.73619e-05 0)
(-0.00209867 3.6918e-05 0)
(-0.00215237 3.64454e-05 0)
(-0.00220536 3.59453e-05 0)
(-0.0022576 3.54186e-05 0)
(-0.00230905 3.48665e-05 0)
(-0.00235969 3.42902e-05 0)
(-0.00240946 3.36908e-05 0)
(-0.00245835 3.30691e-05 0)
(-0.00250631 3.24261e-05 0)
(-0.00255331 3.17629e-05 0)
(-0.00259934 3.10802e-05 0)
(-0.00264435 3.03788e-05 0)
(-0.00268832 2.96595e-05 0)
(-0.00273123 2.8923e-05 0)
(-0.00277305 2.81703e-05 0)
(-0.00281376 2.74023e-05 0)
(-0.00285333 2.66194e-05 0)
(-0.00289175 2.58224e-05 0)
(-0.00292899 2.50119e-05 0)
(-0.00296503 2.41883e-05 0)
(-0.00299986 2.33524e-05 0)
(-0.00303345 2.2505e-05 0)
(-0.0030658 2.16466e-05 0)
(-0.00309688 2.07777e-05 0)
(-0.00312668 1.98986e-05 0)
(-0.00315519 1.90097e-05 0)
(-0.00318239 1.81118e-05 0)
(-0.00320826 1.72055e-05 0)
(-0.0032328 1.62913e-05 0)
(-0.003256 1.53695e-05 0)
(-0.00327784 1.44405e-05 0)
(-0.00329831 1.35047e-05 0)
(-0.0033174 1.25626e-05 0)
(-0.00333511 1.16146e-05 0)
(-0.00335143 1.06613e-05 0)
(-0.00336635 9.70297e-06 0)
(-0.00337985 8.74e-06 0)
(-0.00339194 7.77267e-06 0)
(-0.00340261 6.8014e-06 0)
(-0.00341186 5.82676e-06 0)
(-0.00341967 4.84911e-06 0)
(-0.00342605 3.8687e-06 0)
(-0.00343098 2.8859e-06 0)
(-0.00343448 1.90108e-06 0)
(-0.00343653 9.14704e-07 0)
(-0.00343713 -7.27692e-08 0)
(-0.00343629 -1.06106e-06 0)
(-0.00343399 -2.04982e-06 0)
(-0.00343025 -3.03858e-06 0)
(-0.00342506 -4.02702e-06 0)
(-0.00341841 -5.01479e-06 0)
(-0.00341032 -6.00143e-06 0)
(-0.00340079 -6.98654e-06 0)
(-0.00338982 -7.96961e-06 0)
(-0.0033774 -8.95014e-06 0)
(-0.00336355 -9.92781e-06 0)
(-0.00334827 -1.09022e-05 0)
(-0.00333156 -1.18729e-05 0)
(-0.00331344 -1.28394e-05 0)
(-0.0032939 -1.38011e-05 0)
(-0.00327296 -1.47576e-05 0)
(-0.00325062 -1.57084e-05 0)
(-0.00322689 -1.66531e-05 0)
(-0.00320179 -1.75909e-05 0)
(-0.00317532 -1.85212e-05 0)
(-0.00314749 -1.94437e-05 0)
(-0.00311831 -2.03576e-05 0)
(-0.00308781 -2.12623e-05 0)
(-0.00305599 -2.21574e-05 0)
(-0.00302286 -2.3042e-05 0)
(-0.00298845 -2.39154e-05 0)
(-0.00295278 -2.47769e-05 0)
(-0.00291585 -2.56259e-05 0)
(-0.00287769 -2.64616e-05 0)
(-0.00283831 -2.72833e-05 0)
(-0.00279775 -2.80903e-05 0)
(-0.00275602 -2.88816e-05 0)
(-0.00271315 -2.96562e-05 0)
(-0.00266916 -3.04133e-05 0)
(-0.00262407 -3.11521e-05 0)
(-0.00257792 -3.18716e-05 0)
(-0.00253074 -3.25711e-05 0)
(-0.00248255 -3.32495e-05 0)
(-0.00243339 -3.39057e-05 0)
(-0.00238328 -3.45385e-05 0)
(-0.00233228 -3.51467e-05 0)
(-0.0022804 -3.57293e-05 0)
(-0.0022277 -3.62852e-05 0)
(-0.00217421 -3.68132e-05 0)
(-0.00211997 -3.73122e-05 0)
(-0.00206503 -3.77809e-05 0)
(-0.00200943 -3.82178e-05 0)
(-0.00195323 -3.86216e-05 0)
(-0.00189646 -3.8991e-05 0)
(-0.00183918 -3.93246e-05 0)
(-0.00178145 -3.9621e-05 0)
(-0.00172331 -3.98787e-05 0)
(-0.00166484 -4.00961e-05 0)
(-0.00160608 -4.02718e-05 0)
(-0.00154711 -4.04043e-05 0)
(-0.00148797 -4.0492e-05 0)
(-0.00142875 -4.05332e-05 0)
(-0.00136951 -4.05264e-05 0)
(-0.00131032 -4.04697e-05 0)
(-0.00125126 -4.03615e-05 0)
(-0.0011924 -4.02e-05 0)
(-0.00113381 -3.99835e-05 0)
(-0.00107559 -3.97104e-05 0)
(-0.00101782 -3.93789e-05 0)
(-0.000960569 -3.89873e-05 0)
(-0.000903941 -3.8534e-05 0)
(-0.000848024 -3.80171e-05 0)
(-0.000792909 -3.74348e-05 0)
(-0.000738692 -3.67853e-05 0)
(-0.000685471 -3.60669e-05 0)
(-0.000633346 -3.52782e-05 0)
(-0.000582419 -3.44176e-05 0)
(-0.000532794 -3.34835e-05 0)
(-0.000484578 -3.24743e-05 0)
(-0.000437877 -3.13889e-05 0)
(-0.000392801 -3.0226e-05 0)
(-0.000349461 -2.89846e-05 0)
(-0.000307967 -2.76637e-05 0)
(-0.00026843 -2.6263e-05 0)
(-0.000230962 -2.47823e-05 0)
(-0.000195675 -2.3222e-05 0)
(-0.000162675 -2.15828e-05 0)
(-0.000132071 -1.98662e-05 0)
(-0.000103964 -1.80749e-05 0)
(-7.84504e-05 -1.62122e-05 0)
(-5.56205e-05 -1.42835e-05 0)
(-3.55531e-05 -1.22957e-05 0)
(-1.83139e-05 -1.02586e-05 0)
(-3.95038e-06 -8.1853e-06 0)
(7.51322e-06 -6.09359e-06 0)
(1.60839e-05 -4.00792e-06 0)
(2.18101e-05 -1.96179e-06 0)
(2.4795e-05 -1.45561e-09 0)
(2.52149e-05 1.80809e-06 0)
(2.33433e-05 3.37451e-06 0)
(1.95835e-05 4.56689e-06 0)
(1.44974e-05 5.20307e-06 0)
(8.84451e-06 5.03348e-06 0)
(3.75565e-06 3.75621e-06 0)
(7.63024e-07 1.30049e-06 0)
(1.04476e-06 -3.65034e-06 0)
(4.86601e-06 -8.80174e-06 0)
(1.09192e-05 -1.12388e-05 0)
(1.72319e-05 -1.116e-05 0)
(2.23657e-05 -9.18967e-06 0)
(2.53224e-05 -5.86182e-06 0)
(2.53389e-05 -1.58224e-06 0)
(2.18416e-05 3.34623e-06 0)
(1.44252e-05 8.69896e-06 0)
(2.81617e-06 1.4309e-05 0)
(-1.31537e-05 2.00521e-05 0)
(-3.35722e-05 2.58354e-05 0)
(-5.84643e-05 3.1588e-05 0)
(-8.78048e-05 3.72584e-05 0)
(-0.000121532 4.28055e-05 0)
(-0.000159554 4.82003e-05 0)
(-0.000201754 5.34196e-05 0)
(-0.000248002 5.84464e-05 0)
(-0.00029815 6.32693e-05 0)
(-0.000352044 6.78794e-05 0)
(-0.000409521 7.2271e-05 0)
(-0.000470413 7.64413e-05 0)
(-0.000534548 8.03878e-05 0)
(-0.000601753 8.41104e-05 0)
(-0.000671855 8.76105e-05 0)
(-0.00074468 9.08893e-05 0)
(-0.000820056 9.39496e-05 0)
(-0.000897811 9.67951e-05 0)
(-0.000977777 9.94288e-05 0)
(-0.00105979 0.000101855 0)
(-0.00114368 0.000104078 0)
(-0.00122929 0.000106103 0)
(-0.00131647 0.000107934 0)
(-0.00140505 0.000109576 0)
(-0.0014949 0.000111034 0)
(-0.00158586 0.000112313 0)
(-0.0016778 0.000113418 0)
(-0.00177057 0.000114355 0)
(-0.00186404 0.000115127 0)
(-0.00195808 0.000115742 0)
(-0.00205256 0.000116203 0)
(-0.00214737 0.000116515 0)
(-0.00224238 0.000116684 0)
(-0.00233749 0.000116714 0)
(-0.00243256 0.000116611 0)
(-0.00252751 0.000116378 0)
(-0.00262223 0.00011602 0)
(-0.00271662 0.000115543 0)
(-0.00281057 0.000114949 0)
(-0.00290401 0.000114245 0)
(-0.00299684 0.000113433 0)
(-0.00308897 0.000112518 0)
(-0.00318032 0.000111503 0)
(-0.00327081 0.000110394 0)
(-0.00336037 0.000109192 0)
(-0.00344892 0.000107903 0)
(-0.00353639 0.00010653 0)
(-0.00362271 0.000105075 0)
(-0.00370782 0.000103543 0)
(-0.00379165 0.000101936 0)
(-0.00387415 0.000100258 0)
(-0.00395526 9.85115e-05 0)
(-0.00403492 9.66995e-05 0)
(-0.00411308 9.48246e-05 0)
(-0.0041897 9.28898e-05 0)
(-0.00426471 9.08975e-05 0)
(-0.00433807 8.88502e-05 0)
(-0.00440975 8.67503e-05 0)
(-0.0044797 8.46002e-05 0)
(-0.00454787 8.24021e-05 0)
(-0.00461423 8.01581e-05 0)
(-0.00467875 7.78702e-05 0)
(-0.00474138 7.55406e-05 0)
(-0.00480209 7.31712e-05 0)
(-0.00486086 7.07638e-05 0)
(-0.00491765 6.83199e-05 0)
(-0.00497242 6.58416e-05 0)
(-0.00502516 6.33306e-05 0)
(-0.00507584 6.07884e-05 0)
(-0.00512443 5.82167e-05 0)
(-0.00517091 5.56168e-05 0)
(-0.00521526 5.29901e-05 0)
(-0.00525745 5.03383e-05 0)
(-0.00529746 4.76626e-05 0)
(-0.00533528 4.49647e-05 0)
(-0.00537089 4.22457e-05 0)
(-0.00540426 3.95069e-05 0)
(-0.0054354 3.67495e-05 0)
(-0.00546427 3.39747e-05 0)
(-0.00549087 3.11839e-05 0)
(-0.00551518 2.83784e-05 0)
(-0.00553719 2.55592e-05 0)
(-0.0055569 2.27276e-05 0)
(-0.00557428 1.98845e-05 0)
(-0.00558934 1.70312e-05 0)
(-0.00560207 1.41689e-05 0)
(-0.00561245 1.12987e-05 0)
(-0.00562048 8.42159e-06 0)
(-0.00562616 5.53881e-06 0)
(-0.00562949 2.6514e-06 0)
(-0.00563045 -2.39488e-07 0)
(-0.00562905 -3.13265e-06 0)
(-0.00562528 -6.02697e-06 0)
(-0.00561915 -8.92129e-06 0)
(-0.00561066 -1.18144e-05 0)
(-0.0055998 -1.47053e-05 0)
(-0.00558658 -1.75927e-05 0)
(-0.00557101 -2.04754e-05 0)
(-0.00555308 -2.33522e-05 0)
(-0.00553281 -2.62217e-05 0)
(-0.0055102 -2.90826e-05 0)
(-0.00548525 -3.19337e-05 0)
(-0.00545798 -3.47736e-05 0)
(-0.0054284 -3.76008e-05 0)
(-0.00539651 -4.0414e-05 0)
(-0.00536234 -4.32116e-05 0)
(-0.00532588 -4.59923e-05 0)
(-0.00528717 -4.87544e-05 0)
(-0.00524621 -5.14963e-05 0)
(-0.00520302 -5.42164e-05 0)
(-0.00515762 -5.69129e-05 0)
(-0.00511003 -5.95841e-05 0)
(-0.00506028 -6.22281e-05 0)
(-0.00500837 -6.48431e-05 0)
(-0.00495435 -6.74273e-05 0)
(-0.00489824 -6.99786e-05 0)
(-0.00484006 -7.24949e-05 0)
(-0.00477984 -7.49742e-05 0)
(-0.00471763 -7.7414e-05 0)
(-0.00465344 -7.98123e-05 0)
(-0.00458731 -8.21668e-05 0)
(-0.00451928 -8.44752e-05 0)
(-0.0044494 -8.67349e-05 0)
(-0.0043777 -8.89432e-05 0)
(-0.00430422 -9.10973e-05 0)
(-0.00422901 -9.31948e-05 0)
(-0.00415212 -9.52326e-05 0)
(-0.0040736 -9.72081e-05 0)
(-0.0039935 -9.91183e-05 0)
(-0.00391188 -0.00010096 0)
(-0.00382879 -0.00010273 0)
(-0.0037443 -0.000104424 0)
(-0.00365846 -0.00010604 0)
(-0.00357134 -0.000107574 0)
(-0.00348302 -0.000109023 0)
(-0.00339356 -0.000110382 0)
(-0.00330303 -0.000111649 0)
(-0.00321152 -0.000112818 0)
(-0.00311911 -0.000113887 0)
(-0.00302588 -0.000114851 0)
(-0.00293191 -0.000115706 0)
(-0.0028373 -0.000116448 0)
(-0.00274214 -0.000117072 0)
(-0.00264653 -0.000117574 0)
(-0.00255058 -0.00011795 0)
(-0.00245437 -0.000118196 0)
(-0.00235803 -0.000118305 0)
(-0.00226167 -0.000118275 0)
(-0.0021654 -0.000118099 0)
(-0.00206934 -0.000117774 0)
(-0.00197361 -0.000117294 0)
(-0.00187834 -0.000116654 0)
(-0.00178367 -0.00011585 0)
(-0.00168972 -0.000114877 0)
(-0.00159664 -0.00011373 0)
(-0.00150456 -0.000112404 0)
(-0.00141364 -0.000110894 0)
(-0.00132402 -0.000109195 0)
(-0.00123586 -0.000107304 0)
(-0.00114931 -0.000105214 0)
(-0.00106453 -0.000102923 0)
(-0.000981691 -0.000100425 0)
(-0.00090095 -9.77172e-05 0)
(-0.000822479 -9.47957e-05 0)
(-0.000746446 -9.16573e-05 0)
(-0.000673025 -8.82991e-05 0)
(-0.000602389 -8.47194e-05 0)
(-0.000534712 -8.09166e-05 0)
(-0.000470166 -7.68907e-05 0)
(-0.000408926 -7.26422e-05 0)
(-0.00035116 -6.81735e-05 0)
(-0.000297035 -6.34886e-05 0)
(-0.000246711 -5.8594e-05 0)
(-0.000200342 -5.34989e-05 0)
(-0.00015807 -4.82161e-05 0)
(-0.000120025 -4.2763e-05 0)
(-8.63154e-05 -3.7163e-05 0)
(-5.70296e-05 -3.1447e-05 0)
(-3.22245e-05 -2.5656e-05 0)
(-1.19181e-05 -1.98443e-05 0)
(3.92094e-06 -1.40837e-05 0)
(1.53885e-05 -8.46922e-06 0)
(2.26617e-05 -3.12769e-06 0)
(2.60216e-05 1.77097e-06 0)
(2.58809e-05 5.99932e-06 0)
(2.2818e-05 9.25627e-06 0)
(1.75977e-05 1.11508e-05 0)
(1.11973e-05 1.1195e-05 0)
(5.03327e-06 8.84472e-06 0)
(1.1139e-06 3.74283e-06 0)
(1.13481e-06 -6.4435e-06 0)
(5.0335e-06 -1.4311e-05 0)
(1.0826e-05 -1.75061e-05 0)
(1.62818e-05 -1.66456e-05 0)
(1.98205e-05 -1.26399e-05 0)
(2.03252e-05 -6.28907e-06 0)
(1.69108e-05 1.76645e-06 0)
(8.89287e-06 1.10263e-05 0)
(-4.23177e-06 2.11027e-05 0)
(-2.2814e-05 3.16979e-05 0)
(-4.70832e-05 4.25834e-05 0)
(-7.71692e-05 5.35824e-05 0)
(-0.000113121 6.45602e-05 0)
(-0.000154924 7.54113e-05 0)
(-0.000202515 8.60563e-05 0)
(-0.000255787 9.64335e-05 0)
(-0.000314603 0.000106495 0)
(-0.000378801 0.000116207 0)
(-0.000448199 0.000125541 0)
(-0.0005226 0.000134478 0)
(-0.000601796 0.000143005 0)
(-0.000685571 0.000151114 0)
(-0.000773703 0.000158797 0)
(-0.000865965 0.000166055 0)
(-0.000962131 0.000172885 0)
(-0.00106197 0.000179291 0)
(-0.00116526 0.000185277 0)
(-0.00127176 0.000190848 0)
(-0.00138126 0.000196009 0)
(-0.00149353 0.000200768 0)
(-0.00160836 0.000205133 0)
(-0.00172552 0.000209112 0)
(-0.00184481 0.000212713 0)
(-0.00196602 0.000215946 0)
(-0.00208896 0.000218819 0)
(-0.00221342 0.000221343 0)
(-0.0023392 0.000223527 0)
(-0.00246613 0.000225381 0)
(-0.00259403 0.000226914 0)
(-0.00272271 0.000228136 0)
(-0.002852 0.000229056 0)
(-0.00298174 0.000229685 0)
(-0.00311176 0.000230032 0)
(-0.00324192 0.000230105 0)
(-0.00337205 0.000229915 0)
(-0.00350202 0.000229471 0)
(-0.00363167 0.000228781 0)
(-0.00376089 0.000227853 0)
(-0.00388952 0.000226698 0)
(-0.00401745 0.000225322 0)
(-0.00414455 0.000223734 0)
(-0.00427071 0.000221943 0)
(-0.00439582 0.000219956 0)
(-0.00451975 0.00021778 0)
(-0.00464241 0.000215422 0)
(-0.0047637 0.000212891 0)
(-0.00488352 0.000210192 0)
(-0.00500178 0.000207333 0)
(-0.00511838 0.00020432 0)
(-0.00523324 0.000201159 0)
(-0.00534628 0.000197857 0)
(-0.00545742 0.000194419 0)
(-0.00556658 0.000190851 0)
(-0.00567369 0.000187158 0)
(-0.00577868 0.000183347 0)
(-0.00588148 0.000179421 0)
(-0.00598204 0.000175386 0)
(-0.00608028 0.000171246 0)
(-0.00617615 0.000167007 0)
(-0.0062696 0.000162672 0)
(-0.00636057 0.000158246 0)
(-0.00644901 0.000153733 0)
(-0.00653487 0.000149137 0)
(-0.0066181 0.000144462 0)
(-0.00669866 0.000139711 0)
(-0.00677651 0.000134888 0)
(-0.00685161 0.000129996 0)
(-0.00692392 0.00012504 0)
(-0.0069934 0.000120021 0)
(-0.00706001 0.000114943 0)
(-0.00712374 0.00010981 0)
(-0.00718453 0.000104624 0)
(-0.00724237 9.93879e-05 0)
(-0.00729723 9.41043e-05 0)
(-0.00734908 8.87762e-05 0)
(-0.00739789 8.34064e-05 0)
(-0.00744365 7.79972e-05 0)
(-0.00748633 7.25513e-05 0)
(-0.00752591 6.7071e-05 0)
(-0.00756237 6.15588e-05 0)
(-0.00759569 5.60173e-05 0)
(-0.00762586 5.04486e-05 0)
(-0.00765286 4.48551e-05 0)
(-0.00767669 3.92392e-05 0)
(-0.00769732 3.36032e-05 0)
(-0.00771474 2.79491e-05 0)
(-0.00772896 2.22793e-05 0)
(-0.00773995 1.65961e-05 0)
(-0.00774772 1.09018e-05 0)
(-0.00775225 5.19855e-06 0)
(-0.00775354 -5.11535e-07 0)
(-0.00775159 -6.22617e-06 0)
(-0.0077464 -1.1943e-05 0)
(-0.00773796 -1.76598e-05 0)
(-0.00772628 -2.33741e-05 0)
(-0.00771136 -2.90836e-05 0)
(-0.00769321 -3.4786e-05 0)
(-0.00767182 -4.04789e-05 0)
(-0.0076472 -4.61596e-05 0)
(-0.00761937 -5.18259e-05 0)
(-0.00758833 -5.7475e-05 0)
(-0.00755409 -6.31043e-05 0)
(-0.00751666 -6.87111e-05 0)
(-0.00747607 -7.42927e-05 0)
(-0.00743232 -7.98462e-05 0)
(-0.00738542 -8.53687e-05 0)
(-0.00733541 -9.08572e-05 0)
(-0.0072823 -9.63085e-05 0)
(-0.00722611 -0.000101719 0)
(-0.00716687 -0.000107087 0)
(-0.0071046 -0.000112407 0)
(-0.00703933 -0.000117678 0)
(-0.00697109 -0.000122894 0)
(-0.00689991 -0.000128052 0)
(-0.00682584 -0.000133148 0)
(-0.00674889 -0.00013818 0)
(-0.00666912 -0.000143141 0)
(-0.00658657 -0.00014803 0)
(-0.00650127 -0.000152839 0)
(-0.00641327 -0.000157567 0)
(-0.00632262 -0.000162207 0)
(-0.00622938 -0.000166755 0)
(-0.0061336 -0.000171207 0)
(-0.00603533 -0.000175556 0)
(-0.00593463 -0.000179799 0)
(-0.00583157 -0.000183929 0)
(-0.00572622 -0.00018794 0)
(-0.00561863 -0.000191828 0)
(-0.00550889 -0.000195586 0)
(-0.00539707 -0.000199208 0)
(-0.00528325 -0.000202688 0)
(-0.00516752 -0.000206019 0)
(-0.00504995 -0.000209195 0)
(-0.00493064 -0.000212208 0)
(-0.00480968 -0.000215052 0)
(-0.00468718 -0.00021772 0)
(-0.00456323 -0.000220204 0)
(-0.00443794 -0.000222497 0)
(-0.00431142 -0.00022459 0)
(-0.00418379 -0.000226477 0)
(-0.00405516 -0.000228148 0)
(-0.00392567 -0.000229596 0)
(-0.00379543 -0.000230812 0)
(-0.00366459 -0.000231788 0)
(-0.00353328 -0.000232514 0)
(-0.00340164 -0.000232984 0)
(-0.00326982 -0.000233186 0)
(-0.00313798 -0.000233112 0)
(-0.00300627 -0.000232754 0)
(-0.00287485 -0.000232101 0)
(-0.0027439 -0.000231144 0)
(-0.00261358 -0.000229875 0)
(-0.00248407 -0.000228284 0)
(-0.00235557 -0.000226361 0)
(-0.00222824 -0.000224097 0)
(-0.00210229 -0.000221483 0)
(-0.00197792 -0.00021851 0)
(-0.00185532 -0.000215169 0)
(-0.0017347 -0.000211452 0)
(-0.00161627 -0.000207349 0)
(-0.00150025 -0.000202854 0)
(-0.00138686 -0.000197958 0)
(-0.00127631 -0.000192656 0)
(-0.00116884 -0.00018694 0)
(-0.00106466 -0.000180805 0)
(-0.000964007 -0.000174247 0)
(-0.000867111 -0.000167265 0)
(-0.000774199 -0.000159855 0)
(-0.0006855 -0.00015202 0)
(-0.000601237 -0.000143763 0)
(-0.000521633 -0.000135089 0)
(-0.000446899 -0.00012601 0)
(-0.000377243 -0.00011654 0)
(-0.000312857 -0.0001067 0)
(-0.000253919 -9.6518e-05 0)
(-0.000200587 -8.60304e-05 0)
(-0.000152991 -7.52861e-05 0)
(-0.000111232 -6.43484e-05 0)
(-7.53681e-05 -5.32994e-05 0)
(-4.54048e-05 -4.22455e-05 0)
(-2.12848e-05 -3.13246e-05 0)
(-2.86952e-06 -2.0715e-05 0)
(1.00782e-05 -1.06483e-05 0)
(1.79174e-05 -1.4247e-06 0)
(2.1157e-05 6.56867e-06 0)
(2.04858e-05 1.28376e-05 0)
(1.67876e-05 1.67629e-05 0)
(1.11671e-05 1.75978e-05 0)
(5.20796e-06 1.45013e-05 0)
(1.19317e-06 6.64072e-06 0)
(1.05774e-06 -9.10742e-06 0)
(4.43251e-06 -1.92385e-05 0)
(8.96016e-06 -2.25522e-05 0)
(1.23593e-05 -2.01579e-05 0)
(1.29998e-05 -1.32833e-05 0)
(9.70508e-06 -2.99778e-06 0)
(1.52999e-06 9.82612e-06 0)
(-1.22723e-05 2.4486e-05 0)
(-3.22628e-05 4.04251e-05 0)
(-5.88449e-05 5.72026e-05 0)
(-9.22912e-05 7.44711e-05 0)
(-0.000132763 9.19595e-05 0)
(-0.000180333 0.000109453 0)
(-0.000234998 0.000126783 0)
(-0.000296693 0.00014382 0)
(-0.000365305 0.00016046 0)
(-0.000440683 0.000176624 0)
(-0.000522642 0.000192252 0)
(-0.000610971 0.000207295 0)
(-0.000705442 0.00022172 0)
(-0.000805808 0.000235502 0)
(-0.000911814 0.000248622 0)
(-0.00102319 0.000261071 0)
(-0.00113968 0.000272841 0)
(-0.00126099 0.00028393 0)
(-0.00138685 0.000294341 0)
(-0.00151698 0.000304078 0)
(-0.00165111 0.000313146 0)
(-0.00178897 0.000321556 0)
(-0.00193027 0.000329317 0)
(-0.00207476 0.000336441 0)
(-0.00222216 0.00034294 0)
(-0.00237222 0.000348827 0)
(-0.00252468 0.000354116 0)
(-0.00267929 0.000358822 0)
(-0.00283581 0.00036296 0)
(-0.002994 0.000366543 0)
(-0.00315362 0.000369589 0)
(-0.00331446 0.000372112 0)
(-0.00347628 0.000374127 0)
(-0.00363888 0.000375651 0)
(-0.00380205 0.000376697 0)
(-0.00396558 0.000377282 0)
(-0.00412928 0.00037742 0)
(-0.00429296 0.000377127 0)
(-0.00445644 0.000376417 0)
(-0.00461954 0.000375304 0)
(-0.00478209 0.000373802 0)
(-0.00494392 0.000371925 0)
(-0.00510488 0.000369688 0)
(-0.00526481 0.000367102 0)
(-0.00542355 0.000364181 0)
(-0.00558098 0.000360938 0)
(-0.00573695 0.000357385 0)
(-0.00589132 0.000353534 0)
(-0.00604398 0.000349396 0)
(-0.00619479 0.000344984 0)
(-0.00634364 0.000340306 0)
(-0.00649042 0.000335375 0)
(-0.00663502 0.000330201 0)
(-0.00677733 0.000324793 0)
(-0.00691725 0.000319162 0)
(-0.00705469 0.000313316 0)
(-0.00718956 0.000307265 0)
(-0.00732176 0.000301017 0)
(-0.00745122 0.000294581 0)
(-0.00757784 0.000287965 0)
(-0.00770156 0.000281176 0)
(-0.0078223 0.000274222 0)
(-0.00793999 0.000267111 0)
(-0.00805456 0.000259849 0)
(-0.00816595 0.000252444 0)
(-0.00827409 0.000244901 0)
(-0.00837892 0.000237227 0)
(-0.0084804 0.000229429 0)
(-0.00857846 0.000221512 0)
(-0.00867305 0.000213481 0)
(-0.00876413 0.000205343 0)
(-0.00885165 0.000197103 0)
(-0.00893557 0.000188765 0)
(-0.00901583 0.000180334 0)
(-0.00909242 0.000171817 0)
(-0.00916528 0.000163217 0)
(-0.00923438 0.000154539 0)
(-0.00929968 0.000145788 0)
(-0.00936117 0.000136967 0)
(-0.0094188 0.000128082 0)
(-0.00947256 0.000119135 0)
(-0.0095224 0.000110133 0)
(-0.00956832 0.000101078 0)
(-0.00961028 9.19737e-05 0)
(-0.00964828 8.28251e-05 0)
(-0.00968228 7.36357e-05 0)
(-0.00971227 6.44094e-05 0)
(-0.00973824 5.51499e-05 0)
(-0.00976017 4.58608e-05 0)
(-0.00977805 3.65458e-05 0)
(-0.00979187 2.72088e-05 0)
(-0.00980162 1.78535e-05 0)
(-0.0098073 8.48356e-06 0)
(-0.00980889 -8.97325e-07 0)
(-0.00980641 -1.02854e-05 0)
(-0.00979983 -1.96769e-05 0)
(-0.00978916 -2.90681e-05 0)
(-0.00977441 -3.84552e-05 0)
(-0.00975558 -4.78341e-05 0)
(-0.00973267 -5.7201e-05 0)
(-0.00970568 -6.65519e-05 0)
(-0.00967463 -7.58825e-05 0)
(-0.00963953 -8.51888e-05 0)
(-0.00960038 -9.44666e-05 0)
(-0.0095572 -0.000103711 0)
(-0.00951002 -0.000112919 0)
(-0.00945883 -0.000122084 0)
(-0.00940368 -0.000131203 0)
(-0.00934457 -0.00014027 0)
(-0.00928153 -0.000149281 0)
(-0.00921458 -0.00015823 0)
(-0.00914376 -0.000167112 0)
(-0.0090691 -0.000175922 0)
(-0.00899063 -0.000184655 0)
(-0.00890839 -0.000193304 0)
(-0.0088224 -0.000201863 0)
(-0.00873273 -0.000210327 0)
(-0.0086394 -0.000218689 0)
(-0.00854246 -0.000226943 0)
(-0.00844197 -0.000235082 0)
(-0.00833797 -0.000243099 0)
(-0.00823053 -0.000250987 0)
(-0.00811969 -0.000258738 0)
(-0.00800553 -0.000266346 0)
(-0.0078881 -0.000273802 0)
(-0.00776748 -0.000281098 0)
(-0.00764373 -0.000288226 0)
(-0.00751694 -0.000295177 0)
(-0.00738718 -0.000301943 0)
(-0.00725454 -0.000308513 0)
(-0.0071191 -0.00031488 0)
(-0.00698095 -0.000321033 0)
(-0.00684019 -0.000326961 0)
(-0.00669693 -0.000332655 0)
(-0.00655126 -0.000338104 0)
(-0.0064033 -0.000343298 0)
(-0.00625315 -0.000348225 0)
(-0.00610095 -0.000352873 0)
(-0.00594681 -0.000357231 0)
(-0.00579085 -0.000361288 0)
(-0.00563323 -0.000365029 0)
(-0.00547407 -0.000368444 0)
(-0.00531351 -0.000371518 0)
(-0.00515172 -0.00037424 0)
(-0.00498885 -0.000376595 0)
(-0.00482505 -0.00037857 0)
(-0.0046605 -0.000380151 0)
(-0.00449537 -0.000381324 0)
(-0.00432983 -0.000382075 0)
(-0.00416408 -0.000382389 0)
(-0.00399831 -0.000382252 0)
(-0.0038327 -0.000381649 0)
(-0.00366748 -0.000380565 0)
(-0.00350284 -0.000378985 0)
(-0.003339 -0.000376895 0)
(-0.00317618 -0.000374279 0)
(-0.00301461 -0.000371123 0)
(-0.00285453 -0.000367412 0)
(-0.00269617 -0.000363132 0)
(-0.00253978 -0.000358268 0)
(-0.00238561 -0.000352806 0)
(-0.00223392 -0.000346733 0)
(-0.00208495 -0.000340037 0)
(-0.00193899 -0.000332705 0)
(-0.0017963 -0.000324726 0)
(-0.00165714 -0.000316091 0)
(-0.0015218 -0.000306789 0)
(-0.00139056 -0.000296815 0)
(-0.00126368 -0.000286163 0)
(-0.00114146 -0.000274831 0)
(-0.00102416 -0.000262818 0)
(-0.000912063 -0.000250129 0)
(-0.000805437 -0.00023677 0)
(-0.000704547 -0.000222756 0)
(-0.000609646 -0.000208105 0)
(-0.000520975 -0.000192846 0)
(-0.000438761 -0.000177014 0)
(-0.000363207 -0.000160658 0)
(-0.000294494 -0.000143842 0)
(-0.000232767 -0.000126647 0)
(-0.000178131 -0.000109179 0)
(-0.000130644 -9.15701e-05 0)
(-9.02986e-05 -7.39917e-05 0)
(-5.70155e-05 -5.666e-05 0)
(-3.06229e-05 -3.98501e-05 0)
(-1.08401e-05 -2.39111e-05 0)
(2.74449e-06 -9.28399e-06 0)
(1.06987e-05 3.47634e-06 0)
(1.3773e-05 1.36776e-05 0)
(1.29162e-05 2.04696e-05 0)
(9.30288e-06 2.2836e-05 0)
(4.58303e-06 1.96016e-05 0)
(1.09842e-06 9.3983e-06 0)
(8.70529e-07 -1.12995e-05 0)
(3.28092e-06 -2.28645e-05 0)
(5.76597e-06 -2.54447e-05 0)
(6.16248e-06 -2.06345e-05 0)
(2.87328e-06 -9.9838e-06 0)
(-5.29127e-06 5.17577e-06 0)
(-1.92965e-05 2.37424e-05 0)
(-3.99113e-05 4.48183e-05 0)
(-6.77244e-05 6.76757e-05 0)
(-0.000103168 9.17276e-05 0)
(-0.00014654 0.000116504 0)
(-0.000198024 0.000141627 0)
(-0.000257707 0.000166797 0)
(-0.000325593 0.000191775 0)
(-0.000401621 0.000216369 0)
(-0.000485673 0.000240429 0)
(-0.000577583 0.000263837 0)
(-0.000677152 0.000286499 0)
(-0.000784147 0.000308345 0)
(-0.000898311 0.00032932 0)
(-0.00101937 0.000349382 0)
(-0.00114703 0.000368504 0)
(-0.00128099 0.000386664 0)
(-0.00142095 0.000403852 0)
(-0.00156658 0.000420062 0)
(-0.00171756 0.000435293 0)