/*--------------------------------*- C++ -*----------------------------------*\
  =========                 |
  \\      /  F ield         | OpenFOAM: The Open Source CFD Toolbox
   \\    /   O peration     | Website:  https://openfoam.org
    \\  /    A nd           | Version:  7
     \\/     M anipulation  |
\*---------------------------------------------------------------------------*/
FoamFile
{
    version     2.0;
    format      ascii;
    class       volScalarField;
    location    "13";
    object      p;
}
// * * * * * * * * * * * * * * * * * * * * * * * * * * * * * * * * * * * * * //

dimensions      [1 -1 -2 0 0 0 0];

internalField   nonuniform List<scalar> 
2413
(
0.948294
0.94532
0.942935
0.939773
0.936082
0.933538
0.931081
0.927561
0.924098
0.922019
0.919618
0.915895
0.912796
0.910659
0.907954
0.90395
0.901213
0.899231
0.89647
0.892525
0.890182
0.888359
0.885646
0.881822
0.879711
0.877947
0.87529
0.871402
0.869127
0.867296
0.864735
0.860885
0.858267
0.856551
0.85437
0.851107
0.848308
0.84715
0.845712
0.843368
0.840546
0.839443
0.838934
0.837804
0.836008
0.835368
0.835424
0.834465
0.832905
0.831878
0.831183
0.831951
0.83577
0.847738
0.880155
0.938584
1.00482
1.04952
1.06421
1.06798
1.07285
1.08041
1.09306
1.11289
1.13605
1.1444
1.14541
1.14552
1.14488
1.14416
1.14173
1.13731
1.13153
1.12769
1.12635
1.12554
1.12536
1.1261
1.12808
1.13239
1.13859
1.14591
1.15587
1.16441
1.17018
1.17567
1.17876
1.17898
1.17854
1.17713
1.17461
1.1712
1.16762
1.16404
1.16074
1.15743
1.15408
1.15095
1.1479
1.14417
1.13929
1.13775
1.13798
1.13917
1.14227
1.14939
1.16494
1.19575
1.24866
1.31245
1.35476
1.36379
1.36336
1.36077
1.35595
1.34956
1.01457
1.01147
1.0082
1.00469
1.00104
0.997535
0.994114
0.990444
0.98668
0.982993
0.979374
0.976075
0.972696
0.968987
0.965622
0.962498
0.958863
0.955365
0.952743
0.94989
0.946019
0.942892
0.940425
0.937218
0.933478
0.931244
0.928976
0.925447
0.921911
0.919795
0.91732
0.913397
0.910265
0.908299
0.905693
0.901684
0.899088
0.897343
0.894784
0.890884
0.888559
0.886822
0.884204
0.88018
0.877702
0.875848
0.873247
0.869293
0.866642
0.864778
0.862483
0.859109
0.856416
0.854992
0.853231
0.851093
0.848645
0.846738
0.845889
0.845099
0.843651
0.84215
0.841969
0.841734
0.840145
0.838967
0.837999
0.837251
0.838099
0.84249
0.85545
0.888398
0.948574
1.0181
1.05841
1.07682
1.08709
1.0969
1.10976
1.12871
1.15004
1.15745
1.15852
1.15798
1.15765
1.15722
1.15469
1.15009
1.14435
1.14035
1.13798
1.13587
1.1341
1.13285
1.13313
1.13517
1.13951
1.14488
1.15226
1.16123
1.16845
1.17511
1.18027
1.18347
1.18437
1.18385
1.18232
1.17971
1.17635
1.17268
1.16903
1.16527
1.16143
1.15787
1.15441
1.14977
1.14416
1.14279
1.14321
1.14498
1.14956
1.16115
1.18505
1.22646
1.27998
1.32948
1.35796
1.36237
1.36231
1.35974
1.35535
1.34975
1.02097
1.0196
1.01799
1.01589
1.01321
1.01012
1.00679
1.00324
0.999547
0.995859
0.992157
0.988537
0.984928
0.981102
0.97734
0.973962
0.970598
0.966952
0.963645
0.960566
0.956823
0.953145
0.950413
0.947451
0.943483
0.940678
0.9383
0.934953
0.931012
0.928825
0.926544
0.922849
0.919208
0.917125
0.914637
0.910673
0.907697
0.905886
0.903408
0.899442
0.896762
0.894962
0.892372
0.888296
0.885548
0.883644
0.881043
0.877074
0.87442
0.872497
0.870071
0.866341
0.86391
0.862304
0.8602
0.857592
0.855907
0.85421
0.85215
0.851149
0.850376
0.848902
0.84779
0.847728
0.84716
0.845409
0.844579
0.843526
0.842896
0.843995
0.848708
0.862072
0.894848
0.958082
1.0251
1.06726
1.09684
1.11213
1.12602
1.14472
1.16298
1.17012
1.17114
1.17084
1.17156
1.17081
1.16773
1.16327
1.15702
1.15255
1.14942
1.14622
1.14379
1.14153
1.13972
1.1396
1.14096
1.14417
1.14924
1.15678
1.16426
1.17165
1.17904
1.18388
1.18713
1.18862
1.18812
1.18675
1.18444
1.1815
1.17788
1.17366
1.16931
1.16537
1.16127
1.15603
1.15112
1.14992
1.15045
1.15307
1.1614
1.18115
1.21534
1.26192
1.303
1.336
1.35335
1.35764
1.3583
1.35691
1.35411
1.34988
1.02283
1.02267
1.02275
1.02257
1.0215
1.01939
1.01686
1.01432
1.01167
1.00873
1.0054
1.00179
0.998062
0.994222
0.990418
0.986779
0.983226
0.979557
0.975789
0.972219
0.968579
0.964739
0.961543
0.958409
0.954297
0.95074
0.948109
0.944927
0.940675
0.93809
0.935813
0.932255
0.928155
0.925855
0.923475
0.919635
0.916269
0.914213
0.911666
0.907563
0.904476
0.902545
0.899965
0.895803
0.892789
0.890861
0.888306
0.884276
0.881519
0.879641
0.877158
0.873155
0.870567
0.869044
0.866999
0.863654
0.86191
0.860894
0.858932
0.85672
0.856145
0.8554
0.853821
0.853085
0.853004
0.852111
0.850485
0.849839
0.848723
0.84816
0.849446
0.854333
0.867397
0.90071
0.964446
1.03087
1.08559
1.12075
1.14135
1.16384
1.17833
1.18354
1.18458
1.18447
1.18561
1.18497
1.18116
1.17602
1.17012
1.16504
1.16124
1.15762
1.15423
1.1516
1.1485
1.14681
1.1464
1.14698
1.1491
1.15332
1.15887
1.16526
1.17339
1.18074
1.18649
1.19097
1.19222
1.19204
1.19114
1.18928
1.18616
1.18216
1.17779
1.17349
1.16872
1.1635
1.1599
1.15973
1.16057
1.16569
1.18149
1.21106
1.25376
1.29112
1.31592
1.33344
1.345
1.35268
1.3546
1.35428
1.35319
1.35065
1.02292
1.02319
1.02329
1.02377
1.02323
1.02191
1.02125
1.02046
1.01924
1.01757
1.01525
1.01226
1.00911
1.00602
1.00287
0.999576
0.996018
0.992254
0.988454
0.984701
0.981017
0.977245
0.973642
0.970142
0.965971
0.961733
0.958798
0.955779
0.951469
0.948037
0.945458
0.942025
0.937548
0.934819
0.932427
0.928719
0.924887
0.922434
0.91975
0.915611
0.912043
0.909911
0.907317
0.90321
0.899899
0.897853
0.895318
0.891375
0.888386
0.886391
0.883876
0.879985
0.876837
0.875322
0.873378
0.870074
0.867726
0.866767
0.86525
0.862739
0.861602
0.861189
0.860034
0.858571
0.858248
0.858195
0.857143
0.855782
0.855174
0.853914
0.853327
0.854713
0.859572
0.872052
0.906427
0.967388
1.03825
1.1041
1.15038
1.18432
1.19808
1.20061
1.20064
1.2003
1.20148
1.20046
1.1957
1.18962
1.18386
1.17783
1.17275
1.16808
1.16457
1.1621
1.1587
1.15543
1.1532
1.15239
1.1522
1.1531
1.15665
1.16123
1.16712
1.17462
1.182
1.18897
1.1937
1.19533
1.19542
1.19484
1.19306
1.19019
1.18649
1.18214
1.17749
1.17279
1.17114
1.17141
1.17407
1.1861
1.21222
1.25164
1.29124
1.31048
1.32196
1.33041
1.3379
1.34531
1.35102
1.35296
1.3533
1.35215
1.02129
1.02216
1.02229
1.02304
1.02335
1.02257
1.02215
1.02169
1.02072
1.01942
1.01788
1.01616
1.01444
1.01268
1.01071
1.00833
1.00525
1.0018
0.998542
0.995434
0.992188
0.988676
0.985003
0.981378
0.977428
0.973157
0.96986
0.966845
0.962758
0.958508
0.955503
0.952256
0.947871
0.944561
0.941844
0.938098
0.93378
0.930822
0.927974
0.923842
0.919968
0.917539
0.914855
0.910732
0.907275
0.905031
0.902393
0.898391
0.895315
0.893171
0.890591
0.88684
0.883729
0.881915
0.879802
0.876552
0.874125
0.872894
0.871317
0.868827
0.867395
0.866993
0.86608
0.864585
0.86372
0.863804
0.863622
0.862276
0.861311
0.860755
0.859192
0.858722
0.860274
0.864905
0.876869
0.909881
0.967938
1.05339
1.13262
1.19187
1.21749
1.22144
1.22047
1.21986
1.22011
1.21765
1.2112
1.20527
1.1997
1.19371
1.18833
1.18224
1.17707
1.17289
1.16797
1.16371
1.16089
1.15885
1.157
1.15619
1.15731
1.15988
1.16406
1.16938
1.17613
1.18387
1.18988
1.19407
1.1965
1.19747
1.19736
1.19612
1.19384
1.19069
1.18712
1.18407
1.18374
1.18525
1.1938
1.21763
1.25423
1.29504
1.3182
1.32394
1.32652
1.3296
1.33403
1.34045
1.34699
1.35211
1.35444
1.35463
1.01607
1.01795
1.01879
1.02035
1.02168
1.02166
1.02164
1.02162
1.02097
1.01964
1.01786
1.01673
1.01553
1.01391
1.01211
1.00996
1.00741
1.00482
1.00273
1.00072
0.998226
0.995225
0.991844
0.988634
0.985562
0.982
0.978624
0.975669
0.972082
0.967795
0.964579
0.961713
0.957858
0.954193
0.951135
0.947408
0.942957
0.939685
0.936742
0.932683
0.928469
0.925673
0.922852
0.918724
0.915063
0.912633
0.909931
0.905892
0.902648
0.900457
0.897907
0.894085
0.891092
0.889138
0.886866
0.883382
0.88097
0.879627
0.877956
0.875458
0.873855
0.873501
0.872743
0.871258
0.870258
0.870094
0.869998
0.869257
0.867822
0.867277
0.866568
0.864783
0.86454
0.866095
0.870444
0.882419
0.913178
0.97448
1.07478
1.16547
1.22805
1.24559
1.24493
1.24295
1.24159
1.23676
1.22807
1.22239
1.21679
1.21078
1.20433
1.19787
1.19238
1.18649
1.18037
1.17404
1.1704
1.16809
1.165
1.16254
1.16195
1.16272
1.16472
1.16821
1.17274
1.17815
1.18399
1.1895
1.19417
1.19739
1.19875
1.19935
1.199
1.19774
1.19601
1.19548
1.19726
1.20412
1.22473
1.26176
1.30193
1.33064
1.33561
1.33539
1.33338
1.333
1.33473
1.33882
1.34496
1.35178
1.3569
1.35855
1.00616
1.00863
1.01087
1.01362
1.01501
1.01535
1.01628
1.01712
1.01746
1.0174
1.01699
1.01638
1.01551
1.01418
1.01221
1.00983
1.00738
1.00538
1.00361
1.00159
0.999116
0.996172
0.993338
0.991003
0.988686
0.985866
0.98257
0.979408
0.976399
0.973017
0.970022
0.967556
0.964456
0.960968
0.957939
0.954638
0.95061
0.9474
0.944683
0.941058
0.936909
0.933954
0.931162
0.927252
0.923482
0.920927
0.918233
0.914315
0.910947
0.908717
0.906203
0.902492
0.899339
0.897153
0.894753
0.891232
0.888559
0.887173
0.885515
0.88302
0.881375
0.880995
0.880274
0.87883
0.87807
0.877461
0.876908
0.876471
0.875733
0.874639
0.874144
0.873305
0.871678
0.871384
0.872602
0.877045
0.888724
0.917176
0.985813
1.09899
1.20473
1.26367
1.27311
1.27131
1.26823
1.26197
1.25186
1.24322
1.23552
1.22831
1.22188
1.21625
1.20956
1.20253
1.19635
1.18886
1.18125
1.17766
1.17338
1.16918
1.16771
1.16798
1.16876
1.16948
1.17148
1.17523
1.17914
1.18375
1.18975
1.19452
1.19749
1.20022
1.20183
1.20241
1.20344
1.20661
1.21383
1.231
1.26888
1.31255
1.34439
1.35356
1.35253
1.34911
1.34381
1.34026
1.34074
1.34311
1.34786
1.35455
1.36125
1.36466
0.995142
0.996062
0.997604
0.999746
1.00186
1.0035
1.00538
1.00788
1.00856
1.00887
1.00949
1.0098
1.0101
1.00989
1.00962
1.00874
1.00716
1.00545
1.00362
1.0012
0.998256
0.995009
0.993118
0.991609
0.989415
0.986592
0.98344
0.980412
0.978037
0.975539
0.972457
0.969373
0.96635
0.963253
0.960458
0.957687
0.954399
0.951644
0.949337
0.946386
0.942699
0.939954
0.937553
0.934248
0.930869
0.928473
0.925994
0.92247
0.919176
0.916889
0.9144
0.910861
0.907839
0.905624
0.903227
0.899805
0.897174
0.895777
0.894137
0.891613
0.889927
0.889347
0.888465
0.886964
0.886389
0.885856
0.884909
0.88441
0.884123
0.88344
0.882454
0.882209
0.881628
0.88011
0.879415
0.880401
0.884725
0.894619
0.923065
1.00264
1.12744
1.24476
1.29531
1.30199
1.30015
1.29355
1.28148
1.27028
1.25846
1.24654
1.24014
1.23498
1.22785
1.22132
1.2158
1.208
1.19922
1.19387
1.1881
1.18187
1.17767
1.17432
1.17125
1.17027
1.1713
1.17376
1.17728
1.18069
1.18464
1.18972
1.1943
1.19833
1.20153
1.20493
1.21
1.21896
1.23504
1.26936
1.32126
1.36066
1.37365
1.37322
1.37041
1.36443
1.35653
1.35115
1.35091
1.35211
1.35482
1.3596
1.36538
1.36997
0.98935
0.987178
0.986156
0.986106
0.986263
0.987053
0.98853
0.990137
0.991543
0.993233
0.995217
0.99718
0.998517
0.999305
0.999772
0.999649
0.999508
0.999141
0.998558
0.99755
0.996069
0.994302
0.992533
0.990381
0.987864
0.985144
0.98211
0.98018
0.978456
0.976057
0.973087
0.970077
0.967252
0.96422
0.961683
0.959219
0.956043
0.952922
0.95053
0.947973
0.944625
0.941954
0.94001
0.937488
0.934845
0.932881
0.930754
0.927763
0.92482
0.922703
0.920454
0.917237
0.914416
0.912474
0.910323
0.90718
0.904791
0.903441
0.901817
0.899368
0.897874
0.897132
0.896006
0.894526
0.894157
0.893829
0.892964
0.892389
0.891981
0.891279
0.890426
0.890323
0.890465
0.889888
0.888528
0.887583
0.88854
0.891652
0.900967
0.933147
1.01675
1.15245
1.28285
1.32636
1.33457
1.33142
1.31852
1.30373
1.28872
1.27279
1.26293
1.25506
1.24682
1.23907
1.23296
1.22545
1.21774
1.21119
1.20439
1.19702
1.19157
1.18658
1.18092
1.17633
1.17588
1.17635
1.17776
1.18026
1.18332
1.18641
1.19016
1.19542
1.20121
1.20752
1.21791
1.23502
1.2654
1.31943
1.37113
1.39359
1.3939
1.39179
1.38754
1.38047
1.37107
1.36483
1.36267
1.36266
1.36337
1.36459
1.36817
1.37291
0.988311
0.984976
0.982026
0.979656
0.977406
0.975495
0.97453
0.973972
0.974085
0.974788
0.976015
0.977087
0.978377
0.980041
0.981796
0.983325
0.984941
0.986062
0.986311
0.986119
0.985762
0.985197
0.984653
0.983809
0.982889
0.981854
0.98023
0.978351
0.975943
0.973271
0.970667
0.967789
0.965861
0.964201
0.961949
0.95933
0.95657
0.953607
0.951031
0.948872
0.946041
0.943061
0.940916
0.938513
0.935928
0.933982
0.931894
0.929087
0.926434
0.924485
0.92249
0.919787
0.917175
0.915449
0.913568
0.910803
0.908934
0.90774
0.90613
0.903709
0.902064
0.90112
0.899832
0.898638
0.898453
0.898189
0.897216
0.896677
0.896506
0.896201
0.895621
0.895538
0.895854
0.895783
0.894996
0.894161
0.893527
0.893962
0.896404
0.905987
0.938146
1.02533
1.1815
1.30766
1.36187
1.36429
1.35676
1.3421
1.3254
1.30685
1.29296
1.28185
1.27136
1.26129
1.25524
1.24734
1.23754
1.22862
1.22026
1.21075
1.20198
1.19784
1.19281
1.18741
1.18602
1.18501
1.18381
1.18432
1.18496
1.18602
1.18939
1.19486
1.202
1.21249
1.23097
1.26061
1.30959
1.37015
1.40591
1.41095
1.40939
1.40686
1.40186
1.39407
1.38466
1.37719
1.37275
1.37065
1.36998
1.36955
1.37084
1.3742
0.989024
0.985228
0.981726
0.978763
0.975778
0.972594
0.970129
0.967833
0.965437
0.963841
0.962717
0.961525
0.961104
0.961399
0.961927
0.962695
0.963805
0.965208
0.966103
0.966976
0.968035
0.969039
0.969726
0.970464
0.970594
0.970283
0.969903
0.969534
0.968629
0.967549
0.966453
0.964761
0.962864
0.960716
0.958251
0.955833
0.953709
0.951951
0.950381
0.948441
0.94594
0.943441
0.941338
0.93901
0.93628
0.934212
0.932218
0.929731
0.927422
0.925562
0.923689
0.921333
0.919051
0.917167
0.91506
0.912203
0.910166
0.908851
0.907217
0.904885
0.903143
0.902181
0.900882
0.89993
0.89982
0.899615
0.898578
0.897865
0.897385
0.897043
0.897041
0.896724
0.896619
0.896676
0.896136
0.895473
0.895493
0.896018
0.89679
0.899111
0.907555
0.937385
1.03685
1.2005
1.33144
1.3861
1.38678
1.37994
1.36597
1.34524
1.32656
1.3125
1.29778
1.28468
1.27829
1.27051
1.26023
1.2509
1.24214
1.23075
1.22038
1.21523
1.209
1.20288
1.19855
1.1957
1.19288
1.19053
1.19071
1.19239
1.19609
1.20185
1.21075
1.22716
1.25633
1.3012
1.35984
1.40634
1.42149
1.42124
1.41906
1.41641
1.41151
1.40401
1.39603
1.38865
1.38284
1.37901
1.37647
1.37477
1.3739
1.37474
0.990986
0.986838
0.983104
0.979993
0.976656
0.973059
0.970125
0.967343
0.964126
0.961425
0.959109
0.956603
0.954462
0.953081
0.951738
0.950132
0.949366
0.948832
0.948144
0.948314
0.948853
0.94939
0.949989
0.950853
0.951885
0.952633
0.953297
0.954038
0.954325
0.954362
0.954279
0.953968
0.953165
0.952213
0.951518
0.950532
0.949227
0.94776
0.946046
0.944279
0.94231
0.940379
0.93915
0.93742
0.93533
0.933749
0.931996
0.929652
0.927472
0.92565
0.923701
0.921288
0.919203
0.917432
0.91547
0.913013
0.911104
0.909459
0.907605
0.905348
0.903445
0.902687
0.901521
0.900245
0.899898
0.899491
0.898588
0.897955
0.897631
0.897394
0.897389
0.897198
0.896972
0.896954
0.896533
0.895688
0.895625
0.896302
0.896449
0.896688
0.898503
0.906821
0.941367
1.04103
1.20512
1.34627
1.41101
1.41365
1.40811
1.3919
1.37114
1.35172
1.33115
1.3114
1.30068
1.29237
1.28218
1.27333
1.26562
1.25439
1.24435
1.23833
1.23021
1.22383
1.21914
1.21435
1.2097
1.20438
1.20377
1.20534
1.20949
1.21646
1.22878
1.2533
1.29491
1.34748
1.39587
1.42075
1.42564
1.42523
1.42304
1.41882
1.41192
1.40415
1.39745
1.39148
1.38591
1.38098
1.37657
1.37293
1.37171
1.37058
0.993868
0.989553
0.985505
0.982161
0.978632
0.974978
0.971864
0.968831
0.965233
0.96228
0.959823
0.957025
0.954186
0.951996
0.949775
0.947128
0.945199
0.943543
0.941796
0.94041
0.939416
0.93834
0.937087
0.936623
0.936326
0.93601
0.93622
0.936616
0.9369
0.937148
0.93756
0.938022
0.938101
0.93814
0.938362
0.938398
0.938267
0.938058
0.937644
0.937162
0.93635
0.935293
0.934048
0.932542
0.930779
0.929187
0.927774
0.926029
0.924281
0.922715
0.921016
0.9188
0.916632
0.915356
0.913869
0.91168
0.910333
0.909317
0.907503
0.905147
0.903712
0.902586
0.90117
0.899428
0.898338
0.897467
0.896534
0.896161
0.896139
0.896224
0.896665
0.89667
0.896485
0.896437
0.896222
0.895929
0.895679
0.895382
0.895081
0.894901
0.895149
0.897102
0.905665
0.938295
1.03334
1.20646
1.36919
1.4245
1.42967
1.42713
1.41484
1.39319
1.36847
1.3451
1.3298
1.31929
1.30877
1.30065
1.29297
1.28284
1.27236
1.26565
1.25778
1.2496
1.24526
1.24037
1.23372
1.22699
1.22726
1.22946
1.23317
1.24123
1.25801
1.29275
1.33991
1.38407
1.41181
1.42213
1.42337
1.42204
1.41878
1.41421
1.40735
1.40012
1.3943
1.38849
1.38219
1.37594
1.36985
1.36392
1.36093
1.35989
0.997333
0.993403
0.989225
0.985573
0.981736
0.977986
0.974851
0.971663
0.968035
0.965004
0.962107
0.958761
0.955926
0.953426
0.950899
0.948074
0.946073
0.94436
0.942137
0.939985
0.938219
0.936354
0.934126
0.932672
0.931567
0.930159
0.928953
0.928049
0.926996
0.925819
0.925071
0.924402
0.923944
0.923942
0.924073
0.924143
0.924214
0.924381
0.924645
0.924547
0.924255
0.923934
0.923399
0.922691
0.922017
0.921544
0.920847
0.919795
0.918939
0.91798
0.916605
0.914917
0.913663
0.912458
0.910836
0.908664
0.906949
0.905372
0.903403
0.900947
0.899673
0.8989
0.897433
0.896114
0.89591
0.89566
0.894819
0.894466
0.894185
0.893681
0.892936
0.892221
0.891812
0.891828
0.892062
0.892201
0.892163
0.892677
0.893356
0.893348
0.893253
0.893225
0.894608
0.902431
0.930931
1.02412
1.20548
1.35599
1.42345
1.43145
1.42685
1.41527
1.39786
1.37847
1.3639
1.34959
1.33479
1.32761
1.32003
1.31201
1.30359
1.29596
1.28968
1.28085
1.27533
1.27095
1.26252
1.25688
1.25755
1.25745
1.26105
1.27222
1.29753
1.33823
1.37845
1.40373
1.41401
1.41762
1.41686
1.41248
1.40707
1.40152
1.39471
1.38964
1.38568
1.38059
1.37435
1.36764
1.36072
1.35406
1.34924
1.34733
1.00066
0.997725
0.994283
0.990842
0.987125
0.983147
0.979738
0.976413
0.97271
0.969483
0.966411
0.962591
0.959268
0.956618
0.953653
0.950955
0.949141
0.94704
0.944417
0.942085
0.939941
0.937727
0.935163
0.933618
0.932202
0.930203
0.928523
0.927159
0.925591
0.923788
0.92238
0.921042
0.919343
0.918014
0.917279
0.916346
0.915055
0.914338
0.913782
0.912903
0.912347
0.91217
0.911607
0.91078
0.910423
0.910249
0.909414
0.908515
0.908056
0.907528
0.906456
0.905173
0.90442
0.9036
0.902188
0.900376
0.899315
0.898261
0.896595
0.894591
0.89371
0.892751
0.891017
0.88923
0.888642
0.888092
0.887125
0.886493
0.88652
0.886533
0.885997
0.885515
0.885674
0.886008
0.886028
0.885703
0.885311
0.885217
0.885258
0.88507
0.885198
0.886127
0.886794
0.888555
0.895343
0.922059
1.01317
1.18642
1.35878
1.41682
1.41853
1.41773
1.41313
1.39837
1.38548
1.37171
1.35572
1.34903
1.34278
1.33551
1.33045
1.32412
1.31809
1.31032
1.30352
1.29676
1.2865
1.28281
1.28286
1.28282
1.28897
1.30737
1.34056
1.37718
1.40273
1.40994
1.41044
1.40831
1.40214
1.39422
1.38879
1.38318
1.37776
1.37498
1.37175
1.3669
1.36108
1.35482
1.34811
1.34163
1.33675
1.33347
1.00306
1.00131
0.999127
0.996576
0.99364
0.990331
0.987103
0.983783
0.980024
0.976501
0.973217
0.969308
0.965861
0.963002
0.959701
0.956402
0.953834
0.951241
0.947806
0.945484
0.943694
0.941284
0.938897
0.937015
0.934976
0.932319
0.930173
0.928572
0.926728
0.924566
0.923426
0.922186
0.920263
0.918625
0.917367
0.915916
0.913968
0.912537
0.911339
0.909698
0.907945
0.907078
0.905985
0.904252
0.903
0.90224
0.901011
0.899193
0.898379
0.897777
0.896555
0.894884
0.894187
0.893397
0.891893
0.889875
0.888949
0.888059
0.886424
0.884483
0.883735
0.882857
0.881126
0.879243
0.87865
0.877997
0.876816
0.876061
0.876003
0.875877
0.875345
0.874727
0.874672
0.874901
0.874924
0.874474
0.874043
0.874206
0.874341
0.874155
0.874655
0.876042
0.876864
0.878567
0.881928
0.889522
0.91497
0.992107
1.15909
1.34211
1.41211
1.42308
1.42165
1.41228
1.40352
1.39445
1.38078
1.37187
1.3645
1.35493
1.34978
1.34573
1.33879
1.3308
1.32281
1.31328
1.30403
1.30246
1.30247
1.30386
1.31621
1.34296
1.37683
1.40124
1.40859
1.408
1.4032
1.39383
1.3826
1.37396
1.3678
1.36158
1.35686
1.35435
1.35124
1.34702
1.34208
1.33628
1.32985
1.32371
1.31896
1.31531
1.00445
1.00354
1.00239
1.00097
0.999182
0.997016
0.994606
0.991896
0.988745
0.98551
0.982267
0.978479
0.974872
0.971748
0.968188
0.964671
0.961945
0.959092
0.955504
0.952768
0.950305
0.947215
0.943859
0.941639
0.939384
0.936387
0.934544
0.932963
0.930704
0.92825
0.926565
0.924822
0.922384
0.920217
0.918828
0.917167
0.914918
0.913737
0.912685
0.910891
0.908971
0.907639
0.906148
0.903911
0.901941
0.900766
0.899307
0.897069
0.895559
0.894511
0.892907
0.890683
0.889408
0.888238
0.886329
0.883668
0.882439
0.881504
0.879796
0.877512
0.87654
0.875564
0.873741
0.871452
0.870559
0.869731
0.868267
0.867179
0.866945
0.86673
0.866302
0.865741
0.865514
0.865585
0.865584
0.865162
0.865023
0.86526
0.865195
0.865251
0.866289
0.867529
0.869183
0.871921
0.875794
0.881282
0.889808
0.913078
0.983031
1.15379
1.33274
1.41045
1.41936
1.41893
1.4186
1.41297
1.39824
1.3872
1.37967
1.3707
1.36299
1.35833
1.35186
1.34337
1.33378
1.32311
1.31665
1.31601
1.31595
1.32165
1.34233
1.37255
1.39808
1.40722
1.40595
1.3999
1.38925
1.37616
1.36417
1.35483
1.34733
1.34064
1.33552
1.33177
1.32765
1.32328
1.31858
1.31325
1.30755
1.30199
1.29749
1.29364
1.00596
1.00534
1.00452
1.00367
1.0027
1.00152
1.00009
0.998327
0.996205
0.993851
0.991257
0.988199
0.985033
0.982031
0.978559
0.974962
0.971947
0.96885
0.965016
0.962005
0.959373
0.955936
0.952435
0.949917
0.947261
0.943606
0.941094
0.939072
0.93635
0.933373
0.931784
0.930031
0.92729
0.92511
0.923463
0.921307
0.918463
0.91683
0.915308
0.913092
0.910705
0.909305
0.907749
0.90533
0.903216
0.902029
0.900514
0.898001
0.896532
0.89538
0.893672
0.891076
0.889498
)
;

boundaryField
{
    inlet
    {
        type            fixedValue;
        value           nonuniform 0();
    }
    outlet
    {
        type            zeroGradient;
    }
    bottom
    {
        type            symmetryPlane;
    }
    top
    {
        type            symmetryPlane;
    }
    obstacle
    {
        type            zeroGradient;
    }
    front
    {
        type            empty;
    }
    back
    {
        type            empty;
    }
    procBoundary38to30
    {
        type            processor;
        value           nonuniform List<scalar> 
133
(
0.938862
0.936141
0.933506
0.929883
0.926549
0.924379
0.921839
0.918094
0.914998
0.912825
0.910126
0.906241
0.903422
0.901227
0.898311
0.894319
0.891809
0.889752
0.886836
0.882979
0.880779
0.878858
0.876024
0.872258
0.870219
0.868416
0.865756
0.861964
0.859779
0.858001
0.855501
0.85175
0.84921
0.847635
0.84554
0.842296
0.839714
0.838725
0.837278
0.834627
0.832159
0.83156
0.830951
0.829433
0.828098
0.828142
0.827854
0.826432
0.825072
0.824254
0.824867
0.828501
0.838313
0.866801
0.925835
0.993329
1.03713
1.05146
1.0536
1.05515
1.05749
1.06326
1.07582
1.09692
1.12117
1.13125
1.13287
1.13305
1.13239
1.13122
1.12864
1.12397
1.11932
1.11624
1.1156
1.11566
1.11675
1.11927
1.12359
1.13095
1.13926
1.14849
1.15903
1.16533
1.17032
1.17347
1.17337
1.17259
1.17098
1.16859
1.16569
1.16234
1.15915
1.15626
1.15336
1.15041
1.14758
1.14455
1.1418
1.13908
1.13557
1.13458
1.13471
1.13567
1.13821
1.14326
1.15364
1.17514
1.21717
1.282
1.34309
1.36283
1.36287
1.36086
1.35622
1.34929
1.00458
1.00074
0.996833
0.992838
0.988871
0.985401
0.982153
0.978757
0.975281
0.971729
0.968374
0.96516
0.961568
0.95814
0.95531
0.952182
0.952182
)
;
    }
    procBoundary38to31
    {
        type            processor;
        value           uniform 1.34234;
    }
    procBoundary38to37
    {
        type            processor;
        value           nonuniform List<scalar> 
16
(
1.01747
1.02215
1.02284
1.02177
1.0191
1.01325
1.00342
0.994785
0.991472
0.991278
0.992427
0.994707
0.99773
1.0008
1.0031
1.00444
)
;
    }
    procBoundary38to39
    {
        type            processor;
        value           nonuniform List<scalar> 
17
(
1.34322
1.34434
1.34662
1.34961
1.3535
1.35817
1.36445
1.37125
1.37629
1.37837
1.37717
1.36971
1.35868
1.3459
1.33111
1.31242
1.29017
)
;
    }
    procBoundary38to45
    {
        type            processor;
        value           nonuniform List<scalar> 2(1.0051 1.00611);
    }
    procBoundary38to46
    {
        type            processor;
        value           nonuniform List<scalar> 
133
(
0.888345
0.886564
0.883814
0.882177
0.881016
0.879233
0.876502
0.874924
0.87366
0.871725
0.869241
0.868201
0.867482
0.866054
0.864659
0.864167
0.863768
0.863245
0.862659
0.862466
0.862583
0.862468
0.862053
0.862349
0.862721
0.862652
0.862954
0.864088
0.865328
0.867259
0.870875
0.877046
0.884759
0.893517
0.902525
0.924083
0.996345
1.16566
1.3382
1.41614
1.43037
1.43153
1.42593
1.41335
1.39955
1.38866
1.37811
1.36946
1.36381
1.35713
1.34734
1.33698
1.32709
1.32424
1.32464
1.32582
1.33884
1.36481
1.39114
1.4034
1.40271
1.39721
1.38678
1.37334
1.35973
1.34809
1.33831
1.33003
1.32287
1.31673
1.31139
1.3062
1.30099
1.29574
1.29
1.2839
1.27891
1.27447
1.27032
1.00696
1.0067
1.00639
1.0059
1.00519
1.0044
1.0035
1.00243
1.00119
0.999775
0.998081
0.996035
0.993761
0.991337
0.988446
0.985311
0.982437
0.979401
0.975717
0.972577
0.969796
0.966236
0.962461
0.959712
0.956885
0.952939
0.950096
0.947965
0.945059
0.941674
0.939645
0.937574
0.934334
0.931409
0.929511
0.927199
0.923815
0.921929
0.920476
0.91811
0.915446
0.914048
0.91239
0.909652
0.907423
0.905823
0.90384
0.900935
0.898875
0.897476
0.895673
0.892931
0.888345
0.891067
)
;
    }
}


// ************************************************************************* //
