/*--------------------------------*- C++ -*----------------------------------*\
  =========                 |
  \\      /  F ield         | OpenFOAM: The Open Source CFD Toolbox
   \\    /   O peration     | Website:  https://openfoam.org
    \\  /    A nd           | Version:  7
     \\/     M anipulation  |
\*---------------------------------------------------------------------------*/
FoamFile
{
    version     2.0;
    format      ascii;
    class       volScalarField;
    location    "8.5";
    object      p;
}
// * * * * * * * * * * * * * * * * * * * * * * * * * * * * * * * * * * * * * //

dimensions      [1 -1 -2 0 0 0 0];

internalField   nonuniform List<scalar> 
2413
(
1.32391
1.31822
1.31238
1.30664
1.30095
1.29534
1.28989
1.28456
1.27938
1.27423
1.26919
1.26419
1.25932
1.25476
1.25041
1.24609
1.24185
1.23793
1.23452
1.23145
1.22817
1.225
1.2239
1.22282
1.22108
1.22075
1.22045
1.21925
1.21829
1.21685
1.21471
1.21208
1.20891
1.20534
1.20152
1.19775
1.19391
1.19017
1.18645
1.18288
1.17939
1.176
1.17271
1.16932
1.16597
1.16259
1.15934
1.15608
1.15288
1.14951
1.14614
1.14276
1.13936
1.13588
1.13231
1.12871
1.12513
1.12182
1.1186
1.11553
1.11261
1.11006
1.10747
1.10483
1.10219
1.09964
1.09695
1.09431
1.09166
1.08924
1.08683
1.08438
1.0818
1.07956
1.07756
1.07541
1.07306
1.0711
1.06758
1.70716
1.69816
1.68841
1.67892
1.66925
1.65942
1.64993
1.63982
1.6301
1.62184
1.61325
1.60498
1.59747
1.59
1.58256
1.57537
1.56847
1.56153
1.55442
1.54701
1.53955
1.53182
1.524
1.5162
1.50888
1.5018
1.49479
1.48811
1.48147
1.47476
1.46788
1.46099
1.45422
1.44766
1.44153
1.43546
1.42937
1.42328
1.41708
1.41081
1.40432
1.3978
1.3911
1.38438
1.3778
1.37137
1.36515
1.35899
1.35289
1.34679
1.34072
1.3348
1.32893
1.32308
1.31733
1.31154
1.3058
1.30013
1.29457
1.28922
1.28389
1.2786
1.2734
1.26831
1.26347
1.25889
1.25442
1.24983
1.24499
1.24027
1.23594
1.23199
1.2284
1.22479
1.22104
1.2193
1.21792
1.21598
1.21519
1.21433
1.21323
1.21226
1.21086
1.20904
1.20688
1.20419
1.20097
1.19738
1.1937
1.18982
1.18591
1.18207
1.17836
1.17467
1.17104
1.16762
1.16414
1.16071
1.1573
1.15407
1.15088
1.14777
1.14447
1.14114
1.13781
1.13449
1.13115
1.12776
1.12437
1.12108
1.11815
1.11532
1.11259
1.11003
1.10774
1.10536
1.10283
1.10021
1.09766
1.09497
1.0923
1.08963
1.08722
1.08496
1.08274
1.08038
1.07826
1.07647
1.07445
1.07224
1.07024
1.06669
1.68794
1.68181
1.67246
1.66408
1.65569
1.64654
1.63767
1.62875
1.61983
1.61251
1.60479
1.59646
1.58918
1.58215
1.575
1.56786
1.56118
1.55466
1.54815
1.54153
1.53488
1.52795
1.52072
1.51331
1.50601
1.49893
1.49179
1.48495
1.47827
1.4717
1.46527
1.45912
1.45308
1.4469
1.44094
1.43497
1.42888
1.4227
1.4163
1.40972
1.40288
1.39615
1.38948
1.38286
1.37646
1.37017
1.36401
1.35786
1.3517
1.34553
1.33941
1.33347
1.32759
1.32169
1.31597
1.31028
1.30452
1.29877
1.29308
1.2876
1.28222
1.27698
1.27188
1.26675
1.26187
1.25713
1.2523
1.24725
1.2421
1.23714
1.23245
1.22785
1.22355
1.21944
1.21546
1.21324
1.21133
1.20926
1.20776
1.2062
1.20495
1.20391
1.20238
1.20061
1.19891
1.19683
1.19411
1.19091
1.18754
1.18386
1.17997
1.17614
1.17242
1.16869
1.16497
1.16153
1.15808
1.1547
1.15134
1.14816
1.14505
1.14206
1.13889
1.13566
1.13243
1.12926
1.12617
1.12309
1.12001
1.11712
1.11456
1.112
1.10945
1.10702
1.10482
1.10254
1.10019
1.09778
1.09532
1.09267
1.08994
1.08707
1.08459
1.08246
1.08047
1.07854
1.07686
1.07526
1.07325
1.07088
1.06853
1.06474
1.66304
1.66082
1.65326
1.64616
1.63905
1.63049
1.62316
1.61573
1.60768
1.60107
1.59457
1.58695
1.57957
1.57308
1.56637
1.55932
1.55269
1.54631
1.53997
1.53374
1.52746
1.5211
1.51458
1.50796
1.50128
1.49459
1.48754
1.48055
1.47379
1.46727
1.46113
1.45535
1.44995
1.44445
1.43886
1.43299
1.42676
1.42036
1.41362
1.40669
1.39959
1.39275
1.38617
1.37978
1.37366
1.36757
1.36149
1.35536
1.34914
1.34287
1.33664
1.33062
1.32472
1.31878
1.31301
1.30726
1.30136
1.29545
1.2895
1.28374
1.27821
1.27288
1.26767
1.26243
1.25752
1.25278
1.24782
1.24263
1.23731
1.23204
1.22694
1.22195
1.21717
1.21275
1.20878
1.20586
1.20323
1.20089
1.19885
1.19674
1.19509
1.19395
1.19248
1.19053
1.18922
1.18785
1.18582
1.18312
1.1802
1.17691
1.17322
1.1695
1.1659
1.16228
1.15859
1.15521
1.15188
1.14864
1.1454
1.14229
1.13926
1.13631
1.13323
1.13009
1.12699
1.12404
1.1212
1.11843
1.11566
1.11314
1.11089
1.10859
1.10624
1.1039
1.10165
1.09927
1.09679
1.09425
1.09181
1.08932
1.08684
1.08423
1.08179
1.07957
1.07744
1.07526
1.07339
1.0718
1.06992
1.06773
1.06563
1.06194
1.63467
1.63836
1.63383
1.62653
1.62164
1.61465
1.60826
1.60198
1.5948
1.58818
1.58226
1.57542
1.56821
1.56217
1.55604
1.54934
1.54253
1.53643
1.53049
1.5246
1.51874
1.51295
1.50693
1.5009
1.4947
1.48828
1.4815
1.4746
1.46792
1.46165
1.4559
1.45033
1.44515
1.43993
1.43444
1.42852
1.42215
1.4155
1.40846
1.40132
1.39422
1.38746
1.38109
1.37493
1.36899
1.36298
1.35689
1.35073
1.34447
1.3382
1.33201
1.326
1.32009
1.31415
1.30835
1.30251
1.29642
1.29019
1.28384
1.27776
1.27211
1.26675
1.26152
1.25632
1.25147
1.24676
1.24172
1.2364
1.23088
1.22535
1.21992
1.21475
1.2098
1.20523
1.20116
1.19775
1.19465
1.19182
1.18917
1.18651
1.18437
1.183
1.18151
1.17953
1.17846
1.17787
1.1766
1.17456
1.17229
1.16961
1.16637
1.16291
1.15949
1.15605
1.15246
1.14913
1.14597
1.14289
1.13977
1.13676
1.13373
1.13074
1.12769
1.12463
1.12163
1.11887
1.11622
1.11362
1.11104
1.10873
1.10663
1.10446
1.1022
1.09986
1.0975
1.095
1.09235
1.08957
1.08716
1.08494
1.08272
1.08039
1.07824
1.07619
1.07405
1.07191
1.0698
1.06781
1.06571
1.06341
1.06109
1.05729
1.58367
1.60214
1.60421
1.60164
1.60178
1.59804
1.59282
1.58806
1.58165
1.57493
1.56923
1.56318
1.55652
1.55008
1.54392
1.53731
1.53044
1.52472
1.51925
1.51399
1.50886
1.50376
1.49847
1.49284
1.48675
1.48024
1.47351
1.46667
1.46025
1.45433
1.44877
1.44325
1.43802
1.4328
1.42719
1.4211
1.41453
1.40773
1.40063
1.39359
1.38688
1.38048
1.3744
1.36844
1.36259
1.35657
1.35036
1.34406
1.33769
1.33142
1.3253
1.31932
1.3134
1.30738
1.30143
1.2955
1.28936
1.2831
1.27672
1.2707
1.26519
1.25987
1.25466
1.24946
1.24453
1.23969
1.23453
1.22908
1.22336
1.21773
1.21222
1.20705
1.20213
1.19752
1.1934
1.18967
1.18619
1.18299
1.1799
1.17672
1.17429
1.17261
1.17086
1.16898
1.16796
1.16777
1.16713
1.16569
1.16397
1.16212
1.15962
1.15666
1.1536
1.15046
1.14707
1.14379
1.14069
1.13763
1.13446
1.13136
1.12827
1.12525
1.12228
1.11938
1.1165
1.11386
1.11138
1.10893
1.10646
1.10429
1.10229
1.10015
1.09789
1.09554
1.09316
1.0906
1.08785
1.08513
1.08283
1.08069
1.07848
1.07605
1.07375
1.07162
1.06941
1.06708
1.06459
1.0624
1.06038
1.05821
1.05616
1.05278
1.51493
1.54719
1.5657
1.56963
1.57381
1.57454
1.57317
1.57045
1.56582
1.55972
1.55467
1.54974
1.54379
1.53728
1.53111
1.52474
1.51826
1.51241
1.5073
1.50238
1.49763
1.49295
1.48807
1.4828
1.47709
1.47086
1.46449
1.45799
1.45163
1.4456
1.43981
1.43392
1.42826
1.42278
1.41699
1.41076
1.40412
1.39732
1.39032
1.38354
1.37724
1.37115
1.36523
1.35935
1.35348
1.34745
1.34126
1.33502
1.32873
1.32257
1.31655
1.31058
1.30462
1.29853
1.29255
1.28676
1.28089
1.27492
1.26886
1.26315
1.25788
1.25265
1.24745
1.24224
1.23719
1.23216
1.2269
1.22138
1.21557
1.21001
1.20476
1.19977
1.195
1.19045
1.18625
1.18233
1.17869
1.17519
1.17165
1.16813
1.16547
1.16325
1.16099
1.15911
1.1581
1.15782
1.15775
1.15701
1.15571
1.15452
1.15282
1.1505
1.14788
1.14505
1.14195
1.13876
1.13562
1.13257
1.12939
1.12621
1.12313
1.12015
1.11721
1.11435
1.11156
1.10911
1.10687
1.10459
1.10228
1.10018
1.09811
1.09585
1.09346
1.0909
1.08835
1.08578
1.08303
1.08017
1.07786
1.07577
1.07357
1.07125
1.06922
1.06724
1.06502
1.06271
1.05992
1.05752
1.05572
1.05376
1.05174
1.04848
1.4472
1.47488
1.50617
1.52494
1.53874
1.55042
1.5518
1.551
1.54886
1.54434
1.5398
1.5351
1.52968
1.52319
1.51681
1.51141
1.50608
1.50092
1.49604
1.49104
1.48631
1.48161
1.47674
1.47156
1.46601
1.46007
1.45409
1.44789
1.44153
1.43531
1.42917
1.4229
1.41671
1.41078
1.4047
1.39841
1.39193
1.3854
1.3788
1.37242
1.36642
1.36042
1.35444
1.34839
1.34238
1.33639
1.33037
1.32439
1.31842
1.31258
1.30687
1.30109
1.29525
1.28925
1.28333
1.27771
1.27212
1.26649
1.26078
1.25539
1.25038
1.24527
1.24009
1.23485
1.22968
1.22459
1.21937
1.214
1.20837
1.20303
1.19812
1.19337
1.18872
1.18415
1.17989
1.1759
1.17208
1.1683
1.16448
1.16083
1.15784
1.15521
1.15291
1.15098
1.14953
1.14921
1.14897
1.14826
1.14766
1.14672
1.14553
1.14411
1.14224
1.13999
1.13733
1.1344
1.13141
1.1284
1.12516
1.1218
1.11853
1.1154
1.11236
1.10949
1.10683
1.10456
1.10244
1.10021
1.09787
1.09568
1.09352
1.09116
1.08854
1.08581
1.08333
1.08095
1.07852
1.0761
1.07395
1.07182
1.06952
1.06699
1.06472
1.06265
1.06041
1.05811
1.05554
1.0534
1.05172
1.04985
1.04792
1.04467
1.40592
1.42055
1.44257
1.46823
1.48776
1.5079
1.5208
1.52515
1.52798
1.52819
1.52553
1.52197
1.51693
1.51065
1.50485
1.50007
1.49487
1.4897
1.48481
1.47993
1.47497
1.47
1.46496
1.45975
1.45436
1.44873
1.44295
1.43692
1.43052
1.424
1.41748
1.41091
1.40436
1.39812
1.39194
1.3858
1.37977
1.37376
1.36767
1.3616
1.35572
1.3497
1.34359
1.3374
1.33133
1.32553
1.31981
1.31416
1.30852
1.30295
1.29748
1.2919
1.28621
1.2803
1.27446
1.26907
1.26382
1.25852
1.25315
1.24808
1.2433
1.23832
1.23319
1.22801
1.22289
1.2179
1.21286
1.20773
1.20231
1.19714
1.19253
1.18791
1.18334
1.17881
1.17454
1.17049
1.16656
1.16267
1.15871
1.15504
1.15185
1.14898
1.14636
1.14406
1.14198
1.14093
1.14073
1.14018
1.13934
1.13923
1.13883
1.13777
1.13651
1.13493
1.13276
1.1301
1.12723
1.12421
1.12093
1.1175
1.11422
1.1112
1.1083
1.10549
1.10294
1.10068
1.09848
1.09615
1.09368
1.09147
1.08935
1.08698
1.08438
1.08178
1.07936
1.07692
1.07434
1.07154
1.06916
1.067
1.06472
1.06215
1.0599
1.05808
1.05607
1.05393
1.05154
1.04942
1.04772
1.04585
1.04389
1.04076
1.38854
1.39404
1.40227
1.41767
1.43679
1.45569
1.4781
1.49074
1.4975
1.50308
1.50558
1.5042
1.50026
1.49667
1.49326
1.48947
1.48518
1.48031
1.47511
1.46964
1.46404
1.45867
1.45347
1.44833
1.44306
1.43759
1.43189
1.42594
1.41957
1.41293
1.40617
1.39943
1.39278
1.38645
1.38033
1.37439
1.36879
1.36324
1.35757
1.35175
1.34592
1.33986
1.33367
1.32743
1.32133
1.31566
1.31016
1.30469
1.2992
1.29374
1.28841
1.28298
1.2775
1.2718
1.26611
1.26101
1.25609
1.25107
1.24593
1.24108
1.23648
1.23162
1.22658
1.22148
1.21639
1.21151
1.2067
1.20188
1.19678
1.19195
1.18772
1.18327
1.17883
1.17438
1.1701
1.16601
1.16202
1.15805
1.15401
1.15025
1.14692
1.14378
1.14066
1.1379
1.13566
1.1342
1.13365
1.13308
1.13217
1.13196
1.13212
1.1313
1.13035
1.12931
1.12772
1.1255
1.12296
1.12024
1.11721
1.11401
1.11091
1.10793
1.10494
1.10196
1.09921
1.09669
1.09429
1.09181
1.0893
1.0872
1.08511
1.08271
1.08005
1.07741
1.07497
1.07253
1.06993
1.06726
1.06517
1.0632
1.06099
1.05847
1.05622
1.0544
1.05242
1.05034
1.04799
1.04581
1.04411
1.04224
1.04027
1.03718
1.38154
1.38234
1.38577
1.38998
1.3999
1.41228
1.42802
1.44756
1.46005
1.47124
1.48163
1.48345
1.48213
1.48192
1.48114
1.47809
1.47422
1.46985
1.46481
1.45967
1.45445
1.44897
1.44364
1.43834
1.43278
1.4271
1.42126
1.41522
1.40896
1.40246
1.39584
1.38928
1.38286
1.37666
1.37072
1.3649
1.35942
1.35399
1.34847
1.34272
1.33685
1.3308
1.32465
1.3185
1.31245
1.30683
1.30143
1.29601
1.29051
1.28501
1.27977
1.27454
1.2693
1.2639
1.25851
1.25372
1.24906
1.24423
1.23922
1.23442
1.2299
1.22516
1.22023
1.21525
1.2103
1.20569
1.20125
1.19684
1.19225
1.18783
1.18382
1.17945
1.17504
1.1706
1.1663
1.16229
1.15831
1.15436
1.15032
1.14662
1.1432
1.13979
1.13644
1.13337
1.13087
1.12904
1.1278
1.12683
1.12587
1.12547
1.12574
1.12526
1.12392
1.12313
1.12214
1.12021
1.11822
1.11632
1.11396
1.11116
1.10824
1.10527
1.10218
1.09906
1.0961
1.09333
1.09073
1.08812
1.0856
1.08345
1.08122
1.07868
1.0759
1.07337
1.07115
1.06888
1.06642
1.06379
1.0616
1.05949
1.05716
1.05462
1.05243
1.05063
1.04866
1.04663
1.04437
1.04207
1.04033
1.03847
1.03649
1.03342
1.38024
1.37786
1.37815
1.37885
1.38077
1.38662
1.39349
1.4054
1.42
1.43205
1.44676
1.45584
1.45948
1.46359
1.46651
1.46572
1.46271
1.45931
1.45541
1.4509
1.44581
1.4402
1.43451
1.42889
1.42329
1.41753
1.4117
1.40578
1.3997
1.39344
1.38717
1.38084
1.37462
1.36856
1.3627
1.35688
1.35135
1.3459
1.34034
1.3346
1.32869
1.32266
1.31656
1.31052
1.30446
1.29878
1.2934
1.28802
1.28256
1.27708
1.27202
1.2671
1.26217
1.25711
1.25196
1.24737
1.24283
1.23807
1.23305
1.22825
1.22386
1.21935
1.21469
1.21004
1.20543
1.20115
1.197
1.19283
1.18846
1.18416
1.18025
1.17605
1.17173
1.16744
1.16329
1.15946
1.15558
1.15167
1.14774
1.14406
1.14048
1.13692
1.13345
1.13007
1.12715
1.12484
1.12306
1.12156
1.12018
1.11931
1.11931
1.11896
1.11737
1.11656
1.11628
1.115
1.11348
1.11256
1.11097
1.10857
1.10587
1.10297
1.09985
1.09667
1.09362
1.09071
1.08793
1.08504
1.08229
1.07994
1.07754
1.07492
1.0722
1.06989
1.06776
1.06546
1.06291
1.06025
1.05822
1.05627
1.05406
1.05158
1.04939
1.04763
1.04567
1.04363
1.04138
1.03921
1.03749
1.03562
1.03369
1.03048
1.37976
1.3764
1.37405
1.37305
1.37274
1.3747
1.37748
1.38037
1.38807
1.39733
1.40844
1.42264
1.4305
1.43806
1.44565
1.44678
1.44556
1.44514
1.44429
1.44096
1.43617
1.43097
1.42549
1.42001
1.41452
1.40892
1.40324
1.39738
1.39125
1.38534
1.37939
1.37341
1.36748
1.36164
1.35587
1.35019
1.34444
1.33882
1.33312
1.32732
1.32133
1.3154
1.30945
1.30359
1.29767
1.29194
1.28655
1.28122
1.27582
1.27032
1.2654
1.26074
1.25601
1.25118
1.24623
1.24176
1.23728
1.23256
1.22749
1.22266
1.21843
1.21417
1.20983
1.2055
1.20123
1.19723
1.19327
1.18926
1.18512
1.18092
1.17711
1.17313
1.16901
1.16491
1.16096
1.15734
1.15363
1.14985
1.14607
1.14237
1.13865
1.1349
1.13123
1.12755
1.12438
1.12168
1.11933
1.11737
1.1156
1.11408
1.11349
1.11295
1.11155
1.11035
1.11047
1.10995
1.10833
1.10798
1.10731
1.10552
1.10333
1.10085
1.098
1.095
1.09195
1.0889
1.08576
1.08237
1.07932
1.07677
1.07423
1.07149
1.0688
1.06665
1.06454
1.06219
1.05957
1.05697
1.05505
1.05316
1.051
1.04856
1.04648
1.0448
1.04286
1.04082
1.03864
1.03646
1.03465
1.03271
1.03073
1.02742
1.3824
1.37772
1.37374
1.37051
1.36887
1.36868
1.36929
1.36963
1.37172
1.37644
1.38075
1.38968
1.39908
1.40686
1.41751
1.42309
1.42468
1.42735
1.42754
1.42468
1.4221
1.41904
1.41467
1.40985
1.40484
1.39955
1.39421
1.38877
1.38318
1.37763
1.37222
1.36675
1.36107
1.35533
1.34956
1.34385
1.33793
1.33214
1.32643
1.32074
1.31488
1.30918
1.30357
1.29796
1.29219
1.28643
1.28111
1.27593
1.27073
1.26538
1.26055
1.25607
1.25146
1.24676
1.24182
1.23738
1.23299
1.22833
1.22333
1.21858
1.21448
1.21041
1.2063
1.20222
1.19816
1.19431
1.19043
1.18648
1.18239
1.17823
1.17454
1.17082
1.16698
1.1632
1.15957
1.1561
1.15247
1.14866
1.14477
1.14094
1.13719
1.13341
1.12971
1.12611
1.12279
1.11965
1.11672
1.11425
1.11189
1.10965
1.10835
1.10745
1.10597
1.1047
1.10503
1.10498
1.10356
1.10342
1.1032
1.10203
1.10057
1.09872
1.09626
1.09343
1.09042
1.08729
1.08388
1.08028
1.07722
1.07452
1.07178
1.06889
1.06617
1.06393
1.06164
1.05914
1.05635
1.0537
1.05193
1.05015
1.04806
1.04566
1.04375
1.04219
1.04031
1.03828
1.0362
1.03412
1.03224
1.03017
1.02809
1.02451
1.38395
1.37893
1.37447
1.37103
1.36851
1.36655
1.36543
1.36453
1.36417
1.36552
1.36656
1.36933
1.3753
1.37971
1.38706
1.39432
1.39794
1.40367
1.40668
1.40489
1.40474
1.40378
1.39986
1.39638
1.39283
1.38858
1.38401
1.37938
1.37457
1.36944
1.36466
1.35955
1.35423
1.34874
1.34318
1.33757
1.33176
1.32572
1.32016
1.31471
1.30908
1.30357
1.29831
1.29296
1.2875
1.28192
1.27673
1.27171
1.26667
1.26135
1.25649
1.25217
1.24766
1.2431
1.23827
1.23386
1.22957
1.22502
1.2201
1.21539
1.2114
1.20752
1.20361
1.19976
1.19594
1.19224
1.18841
1.18445
1.18036
1.17623
1.17255
1.16895
1.16531
1.1617
1.15825
1.15494
1.15148
1.14783
1.14408
1.14037
1.13664
1.13275
1.12881
1.12494
1.12127
1.11791
1.11468
1.11178
1.10889
1.10636
1.10477
1.10336
1.10146
1.10016
1.1004
1.1002
1.09873
1.09861
1.09882
1.09781
1.09703
1.09594
1.094
1.09155
1.08887
1.08595
1.08261
1.0791
1.07604
1.07314
1.07016
1.06693
1.064
1.06163
1.05923
1.05662
1.05367
1.05127
1.04961
1.04777
1.04567
1.04339
1.04153
1.03985
1.03788
1.03578
1.03363
1.03148
1.0295
1.02729
1.02508
1.02133
1.38712
1.38212
1.37738
1.37324
1.36941
1.3658
1.36311
1.36122
1.35995
1.35919
1.35886
1.35899
1.36152
1.36302
1.36595
1.37059
1.3724
1.3766
1.38136
1.38085
1.38208
1.38368
1.38115
1.37985
1.37852
1.37469
1.37148
1.36811
1.36409
1.36018
1.35603
1.35151
1.34655
1.34137
1.336
1.33063
1.32524
1.31931
1.31399
1.30897
1.30376
1.29836
1.29341
1.2884
1.28323
1.27783
1.27282
1.268
1.26314
1.25809
1.25314
1.24882
1.24439
1.23991
1.2351
1.23073
1.22665
1.22232
1.21769
1.21323
1.20937
1.20559
1.20176
1.19797
1.19419
1.19052
1.18672
1.18277
1.17866
1.17458
1.17094
1.16742
1.16395
1.16056
1.15735
1.15426
1.15099
1.14745
1.1437
1.13991
1.13605
1.13206
1.12804
1.12407
1.1203
1.11688
1.11349
1.11025
1.10717
1.10438
1.10214
1.10007
1.09777
1.09643
1.09623
1.09534
1.09412
1.09426
1.09451
1.0932
1.09276
1.0925
1.0911
1.08897
1.08692
1.08453
1.08156
1.07839
1.07542
1.07241
1.06918
1.06568
1.06275
1.06032
1.05776
1.05496
1.05189
1.04952
1.04764
1.04557
1.04332
1.041
1.03915
1.03735
1.03529
1.03312
1.03088
1.0287
1.02663
1.02429
1.02194
1.01796
1.39021
1.38482
1.37956
1.37469
1.37032
1.36643
1.36302
1.36013
1.35743
1.35482
1.35331
1.35324
1.3535
1.35284
1.35285
1.35354
1.35305
1.35439
1.3578
1.35755
1.35845
1.36104
1.35955
1.35918
1.35972
1.35701
1.35543
1.35461
1.35121
1.34826
1.3452
1.34124
1.337
1.33261
1.32758
1.32266
1.318
1.31285
1.30757
1.30304
1.29836
1.29319
1.28857
1.28399
1.2792
1.27412
1.26923
1.26459
1.25982
1.25482
1.24981
1.24556
1.24126
1.23693
1.23232
1.22798
1.22405
1.21993
1.21557
1.21137
1.2077
1.20405
1.20028
1.19651
1.19269
1.18897
1.18512
1.18116
1.17706
1.17305
1.16948
1.16604
1.1627
1.15943
1.15636
1.15342
1.15034
1.14703
1.14349
1.13978
1.13582
1.13164
1.12741
1.12327
1.11944
1.116
1.11259
1.10921
1.10603
1.10305
1.10034
1.09776
1.09552
1.09397
1.09254
1.09061
1.08979
1.0902
1.08968
1.08829
1.08822
1.08836
1.0873
1.08569
1.08455
1.08289
1.08047
1.07771
1.07494
1.07198
1.06873
1.06521
1.06225
1.05962
1.05683
1.05375
1.05063
1.04831
1.04615
1.04381
1.04134
1.0389
1.03686
1.03481
1.03262
1.03037
1.02799
1.02581
1.02367
1.02124
1.01885
1.01472
1.39504
1.3891
1.38345
1.37796
1.3726
1.36739
1.36265
1.35889
1.35557
1.3526
1.35087
1.3492
1.34692
1.34509
1.34359
1.34112
1.33924
1.33954
1.33921
1.33822
1.33933
1.34018
1.33814
1.33794
1.33925
1.33728
1.33623
1.33709
1.33467
1.3322
1.33113
1.32832
1.32481
1.3215
1.31757
1.3128
1.30906
1.30529
1.3003
1.29606
1.29217
1.28766
1.28318
1.27913
1.27479
1.27005
1.2653
1.26095
1.25642
1.25164
1.24665
1.24236
1.23814
1.23385
1.22934
1.22511
1.22141
1.21758
1.21363
1.2097
1.20602
1.20231
1.19848
1.19462
1.19074
1.18705
1.18329
1.17945
1.17549
1.17172
1.16832
1.16501
1.16177
1.1586
1.15566
1.15276
1.14965
1.14626
1.14259
1.13875
1.1347
1.13051
1.12633
1.12225
1.11851
1.11515
1.11186
1.10851
1.10534
1.10227
1.09919
1.09633
1.09386
1.09178
1.0895
1.0867
1.08595
1.08575
1.08417
1.0837
1.08416
1.08332
1.08284
1.08251
1.08166
1.08039
1.0787
1.07661
1.07428
1.07159
1.06845
1.06501
1.06205
1.05926
1.05627
1.05306
1.05001
1.04746
1.04493
1.0423
1.0395
1.03689
1.03465
1.03233
1.03002
1.02764
1.02517
1.02297
1.02073
1.01823
1.01583
1.01161
1.39389
1.38827
1.38299
1.3784
1.37442
1.37034
1.3655
1.36043
1.35596
1.35216
1.34864
1.34477
1.34095
1.33782
1.33455
1.33023
1.3285
1.32781
1.32581
1.32514
1.32511
1.32325
1.32095
1.32107
1.32087
1.31809
1.31727
1.31831
1.31608
1.31382
1.31426
1.31298
1.30934
1.30733
1.305
1.30085
1.29768
1.29528
1.29136
1.28698
1.28395
1.28049
1.27615
1.27254
1.26883
1.26467
1.26006
1.25604
1.25197
1.24758
1.24276
1.23855
1.23453
1.2304
1.22612
1.22204
1.21849
1.21486
1.21113
1.20736
1.20377
1.20009
1.19627
1.19241
1.18854
1.18491
1.18129
1.17759
1.17381
1.17029
1.16704
1.16381
1.1606
1.15743
1.15446
1.15147
1.14827
1.14481
1.14111
1.1373
1.13329
1.12919
1.12513
1.12119
1.11767
1.11455
1.11146
1.10823
1.10502
1.10178
)
;

boundaryField
{
    inlet
    {
        type            fixedValue;
        value           nonuniform 0();
    }
    outlet
    {
        type            zeroGradient;
    }
    bottom
    {
        type            symmetryPlane;
    }
    top
    {
        type            symmetryPlane;
    }
    obstacle
    {
        type            zeroGradient;
    }
    front
    {
        type            empty;
    }
    back
    {
        type            empty;
    }
    procBoundary47to39
    {
        type            processor;
        value           nonuniform List<scalar> 
133
(
1.32385
1.3182
1.31241
1.30677
1.30124
1.29585
1.29053
1.28526
1.28011
1.27496
1.26981
1.26464
1.2596
1.25497
1.25064
1.24648
1.24251
1.23898
1.23615
1.23364
1.23074
1.22827
1.22754
1.22655
1.22497
1.22482
1.22463
1.22368
1.22258
1.22061
1.21783
1.21469
1.21115
1.20741
1.20357
1.19992
1.19619
1.19253
1.18889
1.18555
1.18242
1.17937
1.17623
1.17295
1.16968
1.16637
1.16317
1.15989
1.1567
1.15337
1.15006
1.14669
1.1433
1.13983
1.13627
1.13268
1.12903
1.12544
1.1218
1.11829
1.11487
1.11192
1.10909
1.10634
1.10363
1.10106
1.09835
1.09566
1.09293
1.09037
1.08781
1.08522
1.08245
1.07985
1.07743
1.07503
1.07249
1.07043
1.0669
1.72237
1.71094
1.70035
1.69025
1.6801
1.67
1.65951
1.64825
1.6377
1.62827
1.61952
1.61131
1.60358
1.59599
1.58837
1.5809
1.57355
1.56607
1.55822
1.55015
1.54217
1.53413
1.52611
1.51818
1.5108
1.50372
1.49682
1.48997
1.48304
1.47601
1.46877
1.46158
1.45453
1.4477
1.44136
1.43525
1.42925
1.42321
1.41708
1.4109
1.40451
1.39809
1.39144
1.38469
1.378
1.37146
1.36519
1.35905
1.35305
1.34711
1.34122
1.33542
1.32962
1.32962
)
;
    }
    procBoundary47to46
    {
        type            processor;
        value           nonuniform List<scalar> 
17
(
1.71597
1.69421
1.66541
1.62707
1.5626
1.48479
1.42444
1.3975
1.38778
1.38381
1.38363
1.38413
1.38755
1.38944
1.39227
1.39556
1.40106
)
;
    }
    procBoundary47to54
    {
        type            processor;
        value           uniform 1.39949;
    }
    procBoundary47to55
    {
        type            processor;
        value           nonuniform List<scalar> 
133
(
1.09849
1.09553
1.09265
1.08999
1.08688
1.0835
1.0825
1.08138
1.07948
1.07942
1.07969
1.07851
1.07844
1.07879
1.07772
1.077
1.0763
1.07485
1.07299
1.07078
1.06796
1.06476
1.06192
1.05911
1.05604
1.05278
1.04974
1.04693
1.04406
1.0411
1.03796
1.03511
1.0325
1.02987
1.02738
1.02484
1.0223
1.02005
1.01768
1.01506
1.01264
1.00834
1.39539
1.38982
1.38454
1.37908
1.37371
1.37017
1.36746
1.3643
1.35968
1.35421
1.34842
1.3426
1.33722
1.33222
1.32782
1.32467
1.32227
1.31906
1.31562
1.31465
1.31338
1.31081
1.30931
1.30847
1.30622
1.30247
1.30145
1.30153
1.29859
1.29605
1.29649
1.29556
1.29208
1.29074
1.28994
1.28676
1.28345
1.2822
1.27963
1.27514
1.27279
1.27046
1.26673
1.26335
1.26045
1.25703
1.2528
1.24905
1.24561
1.24175
1.23728
1.23311
1.22944
1.22566
1.22171
1.21789
1.2146
1.21119
1.20762
1.20399
1.2005
1.1969
1.1932
1.18943
1.18567
1.18222
1.17881
1.17529
1.17175
1.16852
1.16541
1.16223
1.15902
1.15581
1.15277
1.14966
1.14636
1.14281
1.13913
1.13544
1.13162
1.12781
1.12402
1.12024
1.11689
1.11388
1.11087
1.10776
1.10459
1.09849
1.10134
)
;
    }
}


// ************************************************************************* //
