/*--------------------------------*- C++ -*----------------------------------*\
  =========                 |
  \\      /  F ield         | OpenFOAM: The Open Source CFD Toolbox
   \\    /   O peration     | Website:  https://openfoam.org
    \\  /    A nd           | Version:  7
     \\/     M anipulation  |
\*---------------------------------------------------------------------------*/
FoamFile
{
    version     2.0;
    format      ascii;
    class       volScalarField;
    location    "1.26";
    object      p;
}
// * * * * * * * * * * * * * * * * * * * * * * * * * * * * * * * * * * * * * //

dimensions      [0 2 -2 0 0 0 0];

internalField   nonuniform List<scalar> 
12359
(
0.0679032
0.0769447
0.0526461
0.109613
0.0714459
0.156227
0.187456
0.170482
0.227437
0.144127
0.208426
0.278964
0.486912
0.116722
0.10441
0.3974
0.441016
0.0566204
0.0562864
0.0896818
0.125168
0.25263
0.0830071
0.0950999
0.0796478
0.0860704
0.0536433
0.0535157
0.0556498
0.0540933
0.0544516
0.0530836
0.0527854
0.0538865
0.052671
0.0546337
0.0614425
0.0662226
0.0697425
0.0637451
0.0749565
0.0648435
0.0592121
0.0585301
0.0550792
0.0553579
0.0548598
0.0543077
0.0559512
0.0537522
0.0534047
0.0532979
0.0530137
0.0569995
0.0529421
0.0528075
0.0579642
0.0527708
0.0527694
0.0527054
0.0528435
0.0526711
0.0533386
0.516622
0.0574596
0.133906
0.060743
0.0532209
0.0621377
0.350015
0.532051
0.0730889
0.0526383
0.0629361
0.0997479
0.0526804
0.0530188
0.0526522
0.0600898
0.31939
0.126206
0.0482661
0.0518061
0.0529042
-0.0563963
0.0244148
0.0480734
0.0507876
-0.0687814
-0.0504178
0.0524595
0.478777
0.0524009
0.0519336
0.0516681
0.00597932
0.0514668
0.0520755
0.0598402
0.0566675
0.108807
0.0525452
0.0252942
-0.121144
0.0476616
0.0138808
0.0515435
-0.0550822
0.0271974
0.0143102
0.0515484
0.0483211
0.11157
0.0925829
0.052032
0.0492288
0.0942673
0.0473184
-0.0734564
0.051841
0.0516927
0.176029
0.0506583
0.00570871
0.0470236
0.0492165
0.0392164
0.0526871
0.0526376
0.0469468
0.0497488
-0.00225879
-0.00379503
-0.00264924
0.051607
0.00685357
0.0496771
0.00690547
0.0525721
0.0395504
0.0519658
0.0691376
0.0153539
0.0515576
0.00913395
0.148465
0.0518182
-0.0451521
0.0474569
0.12822
0.00359527
0.0525556
0.0153915
0.0505725
0.0523652
-0.163237
0.109798
-0.0014771
0.0515796
0.0531569
0.0470888
0.0531976
0.00427094
0.0124193
0.0517942
0.0493967
0.0482938
0.175038
0.0139282
-0.0704432
0.0526486
0.0526717
0.0127577
0.0797649
0.0479801
0.0430983
0.0556602
0.0554407
0.113128
0.0435706
0.11695
0.0523455
0.052639
0.0479645
0.058787
0.206766
0.0466833
0.0508764
0.00433516
0.0464369
0.0511935
0.00727691
0.00940475
0.0505103
0.0129556
-0.129673
0.0338899
0.0477108
0.0159591
0.0474416
0.152608
0.00391312
0.0577662
0.0138835
0.0126084
0.052326
0.0115677
0.0584288
0.00218059
0.0457219
0.0521037
0.000125272
0.000278658
-0.52487
0.204479
0.0525812
0.0472467
0.0520155
0.0469906
0.069978
0.102982
0.0459227
0.00555502
0.46881
0.0467194
0.0520823
0.0707151
0.0286549
0.0466625
0.0485009
0.048281
0.0518029
0.0100038
0.0578229
0.0503246
0.0569299
0.0518351
0.0148393
0.0504423
0.293838
0.0517617
0.0229889
0.0509707
0.0562326
0.0460338
-0.0455259
0.0527462
0.00207409
0.0491246
0.0102068
0.00173644
0.0654931
0.0551022
0.0488158
0.324537
-0.57662
0.0518478
0.0459698
0.399955
-0.0532601
0.0573581
0.0470186
0.0465597
0.0127198
0.0781728
-0.452595
-0.0682648
0.0458491
0.0462855
0.00715251
0.0128069
0.0627642
0.0140975
0.0489572
0.0457638
0.0518192
0.0460048
-0.11351
0.0445736
0.0515223
0.0525333
0.0121085
0.043195
0.0608385
0.0231658
0.0519062
0.0489182
0.0525508
0.052534
0.0531251
0.00423498
0.048033
-0.453941
0.0515778
0.0514781
0.0255812
0.0490004
0.102608
0.0519113
0.0534583
0.0524806
-0.102514
0.045927
0.0524781
0.0474651
0.0515291
0.0492252
0.0492685
0.0495033
0.0485732
0.0566325
0.206019
0.0489249
0.0545465
0.0660966
0.0231779
-0.0561377
0.0487634
0.060811
0.372652
0.0525254
0.0197945
0.051431
0.0342219
0.0515394
0.0483553
0.229827
0.0189764
0.207656
0.0603994
0.0506724
0.00773408
0.00383621
0.0505642
0.00770013
0.00873182
0.0513825
0.0529103
0.0529008
0.0529616
0.0529457
0.293506
0.0518834
0.106659
0.00106202
0.0576639
0.0136453
0.0190993
0.0262947
0.0350634
0.0182376
0.0355998
0.0596276
0.0210484
0.0224255
0.0945343
0.0700553
0.0159058
0.0682397
0.068132
0.0166157
0.106395
0.0487808
0.0530046
0.0324086
0.0529678
0.0484683
-0.188335
0.502948
0.0486795
0.0526125
0.0516333
0.0522426
0.0180766
0.0523694
0.052355
-0.0743237
0.0129123
-0.0468487
0.0504274
0.0106336
0.0434722
0.051245
0.0165763
0.0321621
0.112831
0.0323973
0.0490003
0.0514121
0.012329
0.0100539
0.046457
0.298421
0.0162512
0.00505056
0.0518578
0.0487015
0.0525957
0.385401
0.0141086
0.0505181
0.0642723
0.0672439
0.0519846
0.0519541
0.0521856
-0.0555981
0.100687
0.0618462
0.0186566
0.00182669
0.0518178
0.116909
0.0512282
-7.05985e-05
-0.0601913
0.305147
0.0564588
0.094019
0.028257
0.0233275
0.0370563
0.0320397
0.0541517
0.0370031
0.0156775
0.0523752
-0.0544089
0.061363
-0.00679871
0.00885133
0.0583823
0.0984479
-0.143864
0.017819
0.0411948
0.00407131
0.00842108
0.0196954
0.0473471
0.0521378
0.0542858
0.0515621
-0.00295265
0.0498311
0.0855243
0.0877572
0.0371584
-0.0537789
0.10631
0.0564272
0.0507924
0.395556
0.0514814
0.0503938
0.00583953
0.0526167
0.0506766
0.0503947
0.238492
0.207608
0.0524596
0.0508124
0.111752
0.0500605
0.0188566
0.0153674
0.0133491
0.0514077
0.0522276
0.0498162
0.0524847
0.0873713
0.019569
0.0229426
0.0552841
0.0532857
0.00322671
0.0542299
0.0493045
0.0461648
0.122375
0.00512561
0.0525576
0.049544
0.0119403
0.0308935
0.0504807
0.0494554
0.114722
0.0190501
0.00737395
0.0216075
0.0513868
0.0495638
-0.00473593
-0.00439779
0.0524811
0.0383526
0.051122
0.00472547
0.283733
0.0521686
0.0499354
0.0514082
0.0149251
0.0562677
0.0555735
0.0494451
0.0511917
0.0309701
0.0783994
0.0398625
-0.0342689
0.0514982
-0.0394433
0.0509008
-0.111271
0.0181031
-0.00183709
0.052753
0.055095
0.0225756
0.0481143
0.0533951
0.0595689
0.0564059
0.0567181
0.0726843
0.0147696
0.0143307
0.051821
0.0478062
0.0193198
-0.0034914
0.0518219
0.0514829
0.0121746
0.0514052
0.225504
-0.147809
-0.117742
0.0518209
0.0434414
0.00120044
0.0558469
0.0482849
0.453828
0.0515386
0.115942
0.0905251
0.0433067
0.0487609
0.0535161
0.0375926
0.000518466
0.0311345
0.0543095
0.0518529
0.0526414
0.0561407
0.055637
0.0570491
0.0143326
0.0531737
0.0515444
0.0212588
-0.0848643
0.0544326
-2.05389e-05
0.0516589
0.0548197
0.0962273
0.00210092
0.001744
0.098542
0.0478877
0.00172151
0.0520193
0.0527058
0.00433248
0.0385467
0.0473117
0.0385103
0.0522906
0.0514949
0.0490417
0.0510679
0.00160134
0.105486
0.061719
0.120016
0.0159764
0.0411816
0.114266
0.0652176
-0.0054209
0.0134992
0.0662345
0.0557756
0.0527192
0.039317
0.0216489
0.051814
0.0526259
0.0513927
0.0527526
-0.0150048
0.0388115
0.0345285
0.107045
0.0598297
0.235515
0.00481466
0.00189385
0.0489087
-0.00116843
0.0522737
0.0520753
0.0512715
0.107377
0.116543
0.0483841
0.0314108
0.229989
0.015884
0.0069239
0.0400402
0.0668837
-0.125382
0.0511677
0.0535832
0.0523107
-0.00919973
0.0534623
0.032137
-0.0533206
0.0515018
0.0798348
0.0589218
0.043085
0.0546554
0.0487129
0.0530079
0.0559198
0.0530602
0.0529513
0.0554056
0.00624573
0.0102431
0.0430741
0.338633
0.00171896
0.415273
0.0173111
0.0238789
0.0556912
0.0186395
0.0586737
0.0077215
0.320714
0.100385
0.0578768
0.0453188
0.0568903
0.0556155
0.022223
0.052135
-0.00894433
0.0530679
0.101413
0.0500488
-0.0134917
0.00825134
0.0115641
0.0577472
0.0405188
0.00884947
0.0794447
0.00650364
0.0419259
0.00372254
0.044686
0.0518623
0.0518872
-0.201405
0.0720417
0.04412
0.0517816
0.0532536
0.0571061
0.085198
0.0101105
0.0171031
0.051395
0.0457444
0.0572591
0.0440946
0.0405386
0.00250142
0.0583543
0.0592138
0.00941768
0.0455991
0.0421467
0.105853
0.0518227
0.0583532
-0.252187
0.0527461
0.00795839
0.0528234
0.0425853
0.0907881
0.00998301
0.0527909
0.0195763
0.0521944
0.11315
0.0472701
0.0105229
0.0113358
0.114259
0.0520832
0.00118883
-0.00568666
0.0581416
0.044171
0.0472481
0.0378214
0.239643
0.0563426
0.052594
0.0567727
0.0523867
-0.123227
0.0434025
0.011351
0.032356
0.0181515
0.519239
0.0436398
-0.0538571
0.0103592
-0.0915089
0.0185158
0.0541503
0.0436141
0.0316241
-0.0464082
-0.0350748
0.0509622
0.0508858
0.119942
0.0504366
0.213236
0.0206593
0.0717079
0.047643
0.408713
-0.100833
0.0440344
0.0518672
0.0519736
0.095647
0.0571334
0.0618937
0.0542967
0.0150153
0.0790021
-0.0311225
0.357362
0.0514684
0.0847711
0.0148121
0.121505
0.0456134
0.116147
0.00767814
0.0969534
0.0548733
0.0517858
0.00982201
0.00705362
0.0175698
0.119368
0.0138032
0.0242323
0.0530072
0.051323
0.0399418
0.244958
0.0399699
0.0122339
0.0683398
0.0201205
0.0360129
0.0548778
-0.00483278
0.0331487
0.0450816
-0.0156156
0.0598251
0.026675
0.201009
0.0518527
0.0329257
0.0518456
0.0591298
0.0494462
0.0524668
0.0518193
0.00305913
0.0465934
0.0797613
0.0130015
0.0965392
0.0314575
0.0320604
0.0107357
-0.185625
0.0527296
0.0588624
0.0238768
-0.0675282
0.00747073
0.0520094
0.507079
0.0517983
0.0473659
-0.154207
0.0571901
0.0522727
0.0523177
0.0670662
0.0912063
0.0527544
0.0581136
0.110746
0.0524868
0.0550809
0.0547695
0.0511551
0.0924083
-0.0163383
0.0561396
0.118013
0.010456
0.00661211
0.00699424
0.01591
0.0546712
0.0471462
-0.0390513
0.004819
0.0749272
0.0509998
0.0527781
0.119852
-0.000876617
0.0340656
0.038836
0.033714
0.0542365
0.0455348
0.0857624
-0.223316
0.366384
0.0843807
0.0518122
0.0455484
0.0816274
0.349772
0.112947
0.0520374
0.00059433
-0.0115827
-0.23794
0.0365816
-0.144776
0.0527484
0.0546222
0.0527898
0.00774878
0.0766123
-0.154592
0.0482242
-0.082064
0.0502213
0.0523762
0.0107142
0.0563804
0.00151465
-0.0417027
0.0579629
0.0354323
0.0244445
0.037074
0.0577833
0.0768475
0.0745504
0.0314004
0.0806289
0.0579789
0.0528233
0.0548096
0.0532988
0.10638
0.0221631
-0.00650508
0.00376353
0.0875213
0.0251893
0.023425
0.0441369
-0.00957766
0.0348896
0.0573492
0.0523235
0.000102206
0.11076
0.0484762
0.0412132
0.058858
0.02409
0.104536
0.117411
0.0239906
0.240692
0.0226333
0.0884694
-0.0393375
0.0560524
0.0200657
0.0115912
0.05052
0.0347045
0.0394503
0.0456806
0.0520163
0.0483206
-0.0131859
-0.000759784
0.047692
-0.134371
0.102099
0.0531943
0.0523077
0.00218874
0.0531115
0.0794035
0.0140842
0.00601915
0.0530587
0.0552508
0.0515617
0.0531184
0.120571
-0.131372
0.053175
0.0583415
0.0518292
-0.141688
0.0222319
0.0148136
0.0515817
0.0530795
0.0544784
0.0253253
0.0865113
0.0288841
0.0501265
0.0550642
0.0530118
0.0216324
0.0864825
0.0395121
0.0526184
0.0312251
0.0258947
0.0770198
0.0490284
-0.0158827
0.146897
0.0505621
0.0335831
0.054847
0.0450713
-0.174397
0.0578284
0.0532441
0.0111833
0.106557
0.0842646
-0.135224
0.0783862
0.0357266
0.0283324
0.0588262
0.0411655
0.0354038
0.0581003
0.148243
0.052139
-0.326736
0.0852084
0.182525
0.0411477
-0.00561437
0.0973395
-0.00166903
0.263301
0.00698807
0.0259609
0.0342238
0.039803
0.0517894
0.0455095
0.0898253
0.00120813
0.058251
0.0505668
0.00661039
0.0172787
0.00616196
0.0819496
0.000890285
0.00580922
0.0511279
0.0723993
-0.0498063
0.0890646
0.0517865
0.0350832
0.0556758
0.0517963
0.0709556
0.0527355
0.0455321
0.245335
0.0934044
-0.0164796
0.0527672
0.0522163
0.0523991
0.0584007
0.0560191
-0.00176721
0.0561428
0.0521296
-0.0151716
0.0221029
0.00566994
0.070631
0.0513775
0.0434799
0.0931093
0.0347039
0.0527935
-0.0405836
0.0104319
0.113119
0.0524348
-0.230247
0.0991443
0.0517676
0.00299066
0.0392333
-0.0250385
0.0365084
0.00138472
0.096222
0.0510235
0.0543142
0.0214371
0.0410387
0.0568271
-0.0064167
0.0573185
0.0575071
0.0983031
0.0500519
0.0557446
0.0362861
0.00979511
0.0513728
0.0573971
0.0553593
0.0517007
0.0981588
-0.0401085
0.0266779
0.0585354
0.0555575
0.0432732
0.0518115
-0.188111
0.0812916
0.0525443
0.0729081
0.0434284
0.10098
0.154494
0.00105111
0.057368
0.00594579
-0.00119451
0.0515377
0.0418064
1.68585e-05
0.0484699
0.0525954
0.0747378
0.0276437
0.0559093
0.0526201
0.0425889
0.0855123
0.053141
0.0327251
0.0527532
0.0389844
0.0690757
0.133804
0.052215
-0.196578
0.0820821
0.0162176
-0.115211
0.0944719
0.0323513
-0.0292203
0.0589678
0.143202
0.210337
0.0554311
0.0459306
0.0458674
0.054195
0.0561235
0.00709713
-0.075781
-0.13428
0.00890248
0.149626
-0.00670672
0.0103453
-0.0581216
0.0521011
0.0543932
0.0488518
0.0252506
0.0518717
0.00832731
0.0372379
-0.0115106
0.051878
0.055003
0.0502369
-0.141508
0.121275
0.0799573
0.0636863
0.122991
0.0462005
0.0531153
-0.0148984
0.0370265
-0.0107286
0.0075355
0.0225016
0.00507945
0.0149633
0.0594834
0.051505
0.0518733
-0.11948
0.0426869
0.0409032
0.0546531
0.00304804
0.0188653
0.0522519
0.0197492
-0.0121009
-3.18607e-05
0.0961915
0.0551895
0.0522734
0.00500821
0.0585654
0.052073
0.000366331
0.00797162
0.0556868
0.140018
0.000840102
0.0523586
0.0522386
0.0517011
0.109108
-0.129457
0.0420478
0.0106963
0.0550324
0.0551893
0.0106352
0.0525153
0.181497
0.0148871
-0.0532231
0.155068
0.0304867
0.0514101
0.0519404
0.0331921
0.0586925
0.0514046
-0.174288
0.00583417
0.0451551
0.222571
0.103137
0.0477985
0.0518209
0.0522488
0.0540811
-0.0731315
0.162294
0.0340532
0.0793637
0.0690753
0.00648389
-0.0749775
0.0249076
0.0567955
0.0550211
0.0170049
0.0426207
0.0513967
0.0544692
0.00423252
0.0560179
0.0332655
0.0577621
0.0833913
-0.0103057
0.0491515
0.0545846
-0.0027762
0.00358348
0.0612337
0.0543532
0.0785565
-0.000687346
0.0397698
0.0178383
0.0759273
0.016113
-0.0327208
0.0555141
0.159872
0.0515483
0.106744
0.000772405
0.0524915
0.0520213
0.371698
0.0524947
0.0582896
0.0268545
0.0572183
0.0573744
0.0602527
0.0523962
0.0523926
0.0002005
-0.0246148
0.0505072
0.332498
0.0380944
0.0542861
0.237955
0.100644
0.0562963
0.0473145
0.0539436
0.0901947
-0.259771
0.057043
0.0504405
0.0517242
0.0544058
0.0657572
0.0166996
0.056618
0.0668502
0.0554881
-0.149466
-0.00524466
0.0080252
0.112145
0.037796
0.0543796
0.00457217
-0.114643
0.0551368
0.0518949
0.0543164
0.0479335
0.0571745
0.0512437
-0.00332682
0.0469433
0.0466023
0.306509
-0.000972168
-0.00951298
0.00407318
0.0570133
0.00101211
0.0881377
-0.0862248
0.049874
0.0103107
0.0525042
0.243286
0.0518727
0.0517116
0.0307761
0.0517538
0.0261463
0.0616449
0.0572829
0.0497639
-0.0908376
0.0887637
0.0107844
0.0545404
0.0366052
-0.058273
-0.00671139
0.080549
0.0768026
0.0524008
0.0577735
0.0493441
0.054296
0.05048
0.0545081
0.0918247
0.0760885
0.00743736
-0.102344
0.0253026
-0.00731587
0.0334707
-0.106523
0.0512085
-0.0285392
0.054397
-0.0097259
-0.00549342
0.0255446
0.0519788
0.0299147
0.0108567
0.0323353
-0.0160585
0.234964
-0.100579
0.0543448
-0.000949382
0.0475563
-0.00427695
0.0918364
0.00493614
0.0477629
0.0601561
0.00996363
0.0551083
0.0373964
0.0522422
0.0461971
0.0519356
0.0579349
0.00649396
0.00128621
0.0521022
0.086317
-0.0818835
0.497948
0.0515614
0.0751233
0.0260389
0.195602
0.0321381
-0.175213
-0.0331004
0.0495425
0.0248386
0.0685282
0.177751
0.0501388
0.0693673
0.0791805
0.0502015
-0.0844311
-0.0042913
0.0543682
0.0264674
-0.0346092
0.0780342
-0.0870953
0.0387075
0.080498
0.0563652
0.0515747
0.057792
0.0462192
-0.0726361
-0.000507579
-0.0625209
0.0530222
-0.0833359
0.0304578
0.00443237
0.112182
0.0251196
0.0279536
-0.0536303
0.0385471
0.0365192
0.005211
0.0713749
0.0262317
0.00915271
0.0718192
-0.0871173
0.0869098
0.0352626
0.0896894
0.0530246
0.115096
5.14876e-05
0.102791
0.0553495
-0.0350952
0.0521448
0.0343825
0.00830081
-0.00106004
0.0593466
0.00607324
0.0467362
0.50784
0.0579844
0.00522111
0.0931806
-6.94973e-05
0.00740888
0.0519827
0.0319324
0.0519132
0.464997
0.0523157
0.0520353
0.0517016
-0.0136376
0.0466525
0.0450972
-0.0119849
0.0281487
0.0659576
0.0463651
0.0519876
0.10847
0.0506211
0.105895
0.00887873
0.0878091
0.0403633
0.0433982
0.0261004
-0.0122031
0.00966281
0.0446395
0.527328
0.0522946
0.0520426
0.0579789
-0.134026
0.0553796
0.0306287
0.0801538
0.0560423
0.0429854
0.00321067
-0.0218731
0.0340346
-0.045361
0.0569518
0.0469606
0.0141832
0.0191013
-0.000675665
0.0543373
0.0248389
0.0737747
0.195331
0.0378107
0.0520431
0.0461382
0.179333
0.0526133
0.052617
-0.0340375
0.0327731
-0.0386691
0.0429693
0.0518819
0.190709
-0.0136445
0.0477314
0.057255
0.0504813
-0.10819
0.0526178
0.0344303
-0.0266146
0.0526179
0.0519773
0.00963281
0.0515907
0.0526262
0.0130354
0.0521692
0.0519164
0.0223866
0.0516519
-0.0115604
0.051872
0.0596933
0.120727
0.00842626
0.052626
0.0055247
-0.168095
0.0432224
0.0756435
0.0504263
0.0351476
0.0508108
-0.0167864
-0.00518007
0.0473351
0.0519707
0.133358
0.0302466
0.0152427
0.0111963
0.130832
0.0516074
0.00628991
0.0519563
-0.0192911
-0.00440167
-0.00439812
0.00818702
0.157042
-0.0867333
0.00529509
0.0100309
0.0490452
0.054428
0.00110411
0.137512
0.100299
0.0333439
-0.0719368
0.051481
-0.0616455
0.200569
0.0513204
-0.00737678
-0.0236218
0.0819796
0.00807551
0.0073334
0.0744565
0.0520036
-0.0109869
-0.0628772
0.262811
0.0570269
0.00256212
-0.0300905
0.143672
0.0537708
0.0519513
0.00616613
-0.0519124
0.0416743
0.0697595
0.0521897
0.0515858
0.0578347
0.0567834
0.0255937
0.0575678
0.0519273
-0.0146145
0.0357866
-0.0258499
0.0155205
0.0521996
0.0519833
0.144635
0.0565868
0.081273
0.0620476
-0.0463096
0.0829725
0.0512988
-0.0213135
0.0609786
0.0519383
0.0275937
0.0394853
0.0428362
0.0956298
0.0256971
-0.137461
0.0416017
0.0517115
-0.026511
0.0516703
-0.00491137
0.0315394
-0.0245285
-0.0467287
0.0979023
-0.0302106
0.0522338
-0.00810386
0.0558458
0.0735292
-0.022634
0.0204305
-0.0225006
-0.0618429
0.173839
-0.0109562
0.0653871
0.0512458
0.0518334
0.0516544
-0.0303814
0.141182
0.0512699
-0.0135008
-0.0189191
0.0146621
0.00250816
0.0277714
0.110886
-0.0288815
0.0561518
0.0120586
0.0256608
0.0524928
0.052513
0.0537791
0.0568863
0.0107955
0.0521243
0.0540916
0.0581665
0.0758737
0.000555658
0.0516227
-0.0180004
0.0518699
0.0048493
0.0155309
0.0541361
0.0426141
0.00179728
-0.0194359
0.037183
0.0788539
0.056696
0.0270414
0.032674
0.0519992
0.0559184
0.0560409
0.0542023
0.0520275
0.0711678
0.0520145
0.127352
0.0132405
-0.0887762
0.0520606
0.0611082
0.0521571
0.0518997
0.123091
0.0604676
0.0514074
0.315619
0.135187
0.0383794
0.066495
0.0396172
0.121731
0.0199555
0.00910493
0.0570388
0.0580539
0.0519666
0.0522668
-0.0111484
0.0516211
0.0538368
0.124362
0.0541114
0.0557895
0.0272365
0.0519614
-0.0347121
0.0520883
0.053783
0.00802415
0.0096849
-0.071242
0.111216
0.0723843
0.0539947
0.00749616
0.0539377
0.0259599
0.00524078
0.0579969
-0.0261087
0.0526934
0.0268318
0.0715781
0.0533705
0.10329
0.0520488
0.0579332
0.0519448
0.0299535
0.0515455
0.0546049
0.0244131
0.0472958
0.0724937
0.0275873
0.051997
0.0276574
0.0125136
0.0577978
0.00856051
-0.0126286
0.0519695
0.0313872
0.110835
0.00301589
0.0582242
0.0450609
0.0450595
0.0253288
0.0588664
0.152518
0.0562223
0.0521131
0.0521421
-0.0216551
-0.00700708
-0.0214925
0.283041
0.10238
0.0518263
0.0263405
0.0112217
0.0524481
-0.0590817
0.0561558
0.105739
-0.000246392
0.0538236
0.145378
-0.00690049
-0.0160756
0.0232274
0.0299499
0.0523683
0.0515491
0.0620227
0.0519885
0.0519542
0.138127
0.0541877
0.065757
0.0513154
0.0391976
0.0460537
0.365611
0.0428795
0.0462286
-0.00847312
0.105564
0.0954449
0.0349879
0.110615
0.0518648
0.0473937
0.00475577
0.073948
0.125557
0.0535071
-0.000612688
0.0409182
0.051663
0.0540049
0.0519823
0.0656789
0.042846
0.0524383
0.0309301
0.259616
0.052532
0.0120229
0.0323063
0.0515479
0.0650135
0.0544699
0.028091
0.0520048
0.0519302
0.0144032
0.0300063
0.0926652
0.143244
-0.222183
0.0578119
0.0661401
-0.0388139
0.0337425
0.0544104
0.0411376
-0.000804267
0.0520295
0.0554673
0.0519616
0.030733
0.0660359
0.0182697
0.0520204
0.0631385
0.0347564
0.0562973
0.119713
0.047645
0.0517828
0.0520201
0.0301174
0.0229055
0.309536
0.0625089
0.0843178
0.00538483
0.00485977
0.0517987
0.100959
0.0520237
0.0519909
0.0525032
-0.00142328
0.0570286
0.0357704
0.00672408
0.0203282
0.0063247
0.0307323
0.0654659
0.115255
0.0491598
0.0114212
0.0933856
0.0334224
0.129641
0.0558073
-0.152231
0.143844
0.135831
0.0515284
-0.109922
0.005857
0.00791298
0.138536
-0.000332207
0.0604724
0.0583713
0.0394642
0.035516
0.0318953
0.213485
0.075312
0.0562153
0.0145221
0.0562312
0.0362345
0.0238756
0.0953212
0.0364477
0.0699643
0.0853414
0.00568796
0.0975112
0.0322306
0.0527644
0.0622301
0.0512714
0.0460241
0.0507926
0.056608
0.019584
-0.0489973
0.0516679
0.167207
0.0511325
0.0426644
0.00905491
0.030773
0.0341116
0.050575
0.00728595
0.0123365
0.252669
0.0520194
0.00881247
0.0370317
0.0111911
0.052511
0.0522032
0.15196
0.0239687
0.0330123
-0.119104
0.0272825
0.0400185
0.138325
0.0142735
0.121556
0.0577454
0.0180009
0.0380039
0.0473075
-0.0274693
0.00679454
0.0203747
0.0338119
0.0514535
0.00619151
0.00583474
-0.000990189
0.0407758
0.0377471
0.418224
-0.0372266
0.051105
-0.0131562
0.0201578
-0.105249
0.0519414
0.0326164
0.0331195
0.0519215
0.00382279
0.0279205
0.0550455
-9.41709e-06
-0.0226251
-0.00150453
0.0576061
0.0241171
0.0525418
0.0467542
-0.0240693
0.0835138
0.0276708
0.00694823
0.146972
0.024969
0.0200435
0.0215812
0.00717111
-0.0274124
0.0505563
0.0218381
0.0159099
0.0939642
0.279742
0.0134913
0.0356359
0.0191773
0.0519366
0.0941767
0.0319226
0.00908978
0.0517321
0.0363742
0.00611621
0.0140629
0.149966
0.0108982
0.029646
0.0301964
0.0567946
0.00340356
0.026763
0.0753021
0.0610943
0.0576999
0.0103766
0.0369902
0.0431112
0.0394797
0.052046
0.00582929
0.0642415
0.0299027
-0.00412229
-0.044276
0.0463221
0.0278192
0.0167312
0.024243
0.0520421
0.101043
0.1007
0.0737316
0.0524902
0.229132
0.00689344
0.0538829
0.0911134
0.0515806
0.0598397
0.0332713
0.0270423
0.0552794
-0.101991
0.0532049
0.0612906
0.0441376
-0.0113354
-0.0294571
-0.000404353
0.0643511
0.00937782
0.0525217
0.0299643
0.0767865
0.0532241
0.150596
0.0173652
0.0283125
0.00824557
0.0688804
0.0220886
0.0387155
0.0517347
0.0518211
0.0480608
0.0653584
0.124124
0.0156706
0.147948
0.0844
0.0915341
0.0538331
0.0717444
0.00717026
0.0519478
-0.0247115
-0.0191989
0.0548457
0.0519959
0.0417795
0.050328
0.0518209
0.0667113
0.0349845
0.133583
0.0164358
0.0361477
0.0908622
-0.0107297
0.00554029
0.0878801
0.0128943
0.0241834
0.0719713
0.0516391
0.0648314
0.0280403
0.123868
0.13182
0.22
0.0518575
0.128785
0.0335841
0.0325032
0.105428
0.109204
0.101111
-0.0242613
0.0213267
0.0682066
0.0211426
0.0408794
0.0471385
0.0927629
0.0513774
0.0168889
-0.0292991
0.0615879
-0.0250567
0.0510137
0.0852406
0.0570657
0.0307242
0.103823
0.164762
0.0221328
0.0446012
0.0170143
0.0343541
0.0729379
1.33436e-05
0.0841753
-0.00227341
0.051871
0.0216627
-0.139644
0.0999377
0.03664
-0.0417375
0.0105815
0.0431401
0.0510834
0.104792
0.0947022
0.034641
0.0583642
0.0535327
0.00584307
0.0454608
0.00460485
0.0825861
0.0365201
0.143068
0.0518592
0.0479107
0.00421833
0.0384864
0.0392161
0.0679076
0.0585771
0.030077
0.168949
0.10895
0.0517149
0.00588584
0.0464867
0.0516777
0.135012
0.0513384
0.0221519
0.0250674
0.0513678
0.0514778
0.0544801
0.00745691
0.0631668
0.0991737
0.0289145
0.131717
0.0333033
0.0342434
0.03817
0.0801158
0.0520693
0.0405518
0.0382222
0.0270677
-0.0219162
0.00928853
0.0687769
0.0459963
0.0571771
0.031959
0.0441307
0.0630102
0.0216224
0.108044
0.0329264
0.0517014
0.00834654
0.0889621
0.00742415
0.0518281
0.136768
-0.022533
0.0480149
0.099916
0.00595093
0.055883
0.0977594
0.00380453
0.0910298
0.115905
0.00436956
0.0492078
0.0812143
0.0776758
0.0142506
0.049046
0.0316108
0.0518345
0.0510018
0.0516247
0.0133208
0.017652
0.0211365
0.0841658
-0.0637166
0.170685
-0.0642319
0.028407
0.0433056
-0.0425675
0.0508196
-0.0979054
0.0336976
0.0234197
0.0184646
0.0291106
0.0664174
0.0432754
0.0334366
0.0564592
0.05181
0.0798419
-0.0382433
0.0136333
0.00636483
0.0173239
0.0545479
0.0285122
0.0166344
0.057246
0.0245948
0.0396428
0.120537
0.0873921
0.082656
0.0951431
-0.00182994
-0.000144038
0.00591125
0.0231087
-0.00455093
0.0146362
0.0600417
0.0440426
0.132541
0.0762217
0.00725331
0.0520639
0.0972974
0.128418
0.0755772
0.0812171
0.0590301
0.0172307
0.115999
0.0288023
0.0246269
0.0348636
0.033885
0.0509797
0.0288388
0.0303518
0.0559433
0.0203813
0.0305212
0.0466005
0.10604
0.0454644
0.0412442
0.0773718
0.0574853
0.0513042
0.0534939
0.00247362
0.0161906
0.0526466
0.073734
-0.0522705
0.00654639
0.0580404
0.0195505
-0.0191664
-0.0402011
-0.00557462
0.0336287
0.0349118
0.0577522
0.0342525
0.0264195
-0.000305268
-0.00125459
0.00373699
0.000889496
0.0354306
0.0510134
0.0507539
0.130692
0.0645048
0.0355631
0.0394042
-0.000370181
0.0466085
0.027834
0.150313
0.0889335
0.0117265
0.0568393
0.0167608
0.0515535
0.00892563
0.000801365
0.0277943
0.0516157
0.0611235
0.16794
0.044024
0.0908405
-0.0169331
0.0519331
0.0356045
0.0955854
0.10317
0.071852
0.0524525
0.0479367
0.0489725
0.0524435
0.0516304
0.0424736
0.00708702
0.0516105
0.0586459
0.0563891
-0.332519
0.120923
0.0489795
0.0518514
0.0110543
0.0170104
0.0245806
0.0785885
0.0176635
0.0512011
0.0444304
0.00508731
0.0523694
0.0140532
0.0943528
0.0730331
0.0504538
0.0123722
0.0521477
0.0405938
0.0385611
0.0438486
-0.00301492
0.0613133
0.0359564
0.0341859
0.112626
0.0833642
0.0515534
0.0519736
0.0369437
0.0329523
0.014034
0.0208714
0.0412886
0.00802619
0.0822255
0.0524671
0.0387306
0.00604515
0.0407388
0.0868942
0.0657054
0.0542248
0.152177
0.0226186
0.126906
0.141736
0.0281729
-0.00265512
0.000112105
0.126321
0.0414382
0.0070792
0.0761556
0.037278
0.0211861
0.0909019
0.0740462
0.0532793
0.00290046
0.0324473
0.028218
0.0419514
0.00619994
0.0534528
0.0821759
0.0532782
0.0590307
0.0877165
0.0574917
0.0454472
0.107758
0.00778214
0.0932141
0.0286884
0.0742673
0.00889603
0.0635281
0.0122703
0.0530223
0.0305287
0.00997434
0.0694971
0.0283298
0.0529825
0.0436288
0.0149119
0.0470663
0.0358938
0.0583437
0.0376013
0.0228203
-0.000995991
0.0970163
0.105963
0.102202
0.0426276
0.0430181
0.0356835
0.0191098
0.0292831
0.0522269
0.0568264
0.0720631
0.0248136
0.0602489
0.00499934
0.0312791
0.059156
0.0339057
0.0329667
0.0451536
0.0299483
0.0387425
0.13558
0.260775
0.0231161
0.0248927
0.0269574
0.0316864
0.0375703
0.0357746
0.0345402
0.0241922
0.0131844
0.0508064
0.0518378
0.0509852
0.0066925
0.0518055
0.0302899
0.0448926
0.0318392
0.0616705
0.0346125
0.124539
-0.00684506
0.0515155
0.0360246
0.0926542
0.0431715
0.0626862
0.0901536
0.0562387
0.0517108
0.03089
0.00458179
0.0880812
0.00420593
0.116982
0.0851414
0.00395568
0.0655153
0.070203
0.0101162
0.0445978
0.0508865
0.0530367
0.0374763
0.0514532
0.0329398
-0.0380118
0.0507563
0.0820135
0.0450469
0.0646988
0.065372
0.161243
0.057481
0.0436481
0.0052644
0.0134334
0.0887936
0.0320498
0.0851762
0.0529141
0.0390271
0.0672006
0.0474529
0.0336666
0.0524784
0.0529422
0.0317666
0.051412
0.0356051
0.0633049
0.0823754
0.0145912
0.0512393
0.00700335
0.00186596
0.0697329
0.0612365
0.0534599
0.070131
0.13346
0.0518293
0.0418867
0.0488623
0.0625598
0.0400785
0.0362802
0.0406706
0.0759058
0.0851024
0.0331992
0.0810406
0.0921106
0.0621488
0.109862
0.0597517
0.0798178
0.0283635
0.0441852
0.0209994
0.0525502
0.0664943
0.0532481
0.0852467
0.0023263
0.056907
-0.0122788
0.0468991
0.0274959
0.119203
0.00796281
0.0489946
0.05158
0.00570827
0.109147
0.0281366
0.0304203
0.0154838
0.0461652
0.0822141
0.0389334
0.0504593
0.0371795
0.00878053
0.045095
0.0417851
0.393231
0.040594
0.0532786
0.0610237
0.0666246
0.0446374
0.0323151
0.0518496
0.103941
0.0436748
0.0518339
0.0128973
0.0379354
0.0290213
0.0425259
0.0653264
0.0445441
0.046545
0.0458384
0.0346026
0.0818694
0.0518655
0.0403551
0.0594012
0.0469699
0.0413273
0.0575577
0.0573023
0.061526
0.0620421
0.0519333
0.0450704
0.053173
0.0298742
-0.00159649
-0.000723402
0.147183
0.0766423
-0.00917237
0.0309804
0.0513459
0.0543415
0.0604174
0.075953
0.0522056
0.0282045
0.0775119
0.0585208
0.0267128
-0.00973107
0.021879
0.0512911
0.0385796
0.0517149
0.0957812
0.233927
0.0408536
0.0591
0.0439649
0.00647727
0.0515771
0.0744253
0.0286991
0.0475412
0.0523451
0.0340263
0.098717
0.0399974
0.0584366
0.0264035
0.0436312
0.0454498
0.0894722
0.0623151
0.0420036
0.0537827
0.0402775
0.0571385
0.0394082
0.0521416
0.0406903
0.0515503
0.0569648
0.011273
0.0704589
0.0171324
0.075526
0.0757833
0.0555114
0.0399807
0.0362671
0.0791229
0.0937664
0.0110922
0.0438893
0.0576682
0.0602478
0.0413572
0.0505252
0.0458995
0.0380586
0.0289719
0.0289358
0.046998
0.0154884
0.0408629
0.0813888
0.0420111
0.0445916
0.040279
0.0246957
0.0856815
0.0557698
-0.000603858
0.0406328
0.0434632
0.010086
0.0545181
0.000851174
0.0539438
0.0438346
0.0485409
0.049403
0.0527015
0.0444615
0.00456974
0.0518419
0.0210676
0.0735344
0.0541054
0.05975
0.033507
0.0978403
0.0625735
0.0522263
0.0357502
-0.066139
0.0519782
0.00574345
-0.0797072
0.0675781
0.0872274
0.0553691
0.0426773
0.03076
0.0733788
0.060693
0.0517804
0.0938339
0.0114986
0.0833895
0.0518814
0.0514143
0.0450569
0.0463164
0.0469903
0.067755
0.0772132
0.0477883
-0.0016272
0.0491533
0.0556055
0.0431628
0.0333925
0.000349542
0.0514316
0.044389
0.0243231
0.0464628
0.0482006
0.0540782
0.129456
0.0744905
0.0522912
0.064468
0.0552163
0.0440239
0.0763528
0.0616024
0.0458376
0.0647526
0.0377924
0.0645825
0.0864752
0.00316135
0.0241365
0.0523798
0.0716429
0.0496938
0.0541774
0.0531398
0.0437062
0.00169826
0.000427784
0.0608308
0.0324491
0.0353986
0.0288506
0.051069
0.0508079
0.0522971
0.0724136
0.0353332
0.0519067
0.0440385
0.0563126
0.023034
0.0107876
0.0519467
0.051528
0.0372159
0.0502578
0.0504584
0.0442091
0.0472336
0.0413081
0.0681906
0.0637001
0.0351936
0.0498969
0.0548536
0.0591159
0.0445365
0.0518553
0.0446465
0.0313166
0.0013227
0.00562827
0.0358557
0.124922
0.0449003
-0.0587383
0.0899258
0.044368
0.042729
0.0555693
0.0507726
0.0519507
0.0545995
0.0585008
0.043816
0.0533783
0.0512425
0.0979101
0.00572729
0.0344736
0.0520687
0.0567858
0.0649528
0.0721194
0.0331662
0.0539991
0.0517858
0.0505476
0.045439
0.0300999
0.0274644
0.00605486
0.0634174
0.0502887
0.0401291
0.0578507
0.0557044
0.0553955
0.0495357
0.0599438
0.0519283
0.0158995
-0.00247529
0.0513024
0.0679161
0.0439068
0.0467077
0.0487541
0.0530902
-0.0472281
0.0651856
-0.000181865
0.0450567
0.0083755
0.0542241
0.070403
0.129164
0.0571825
0.052105
0.0310856
0.0215063
0.112638
0.0452582
0.0685024
0.0470044
0.0515552
0.0664206
0.0497559
0.122533
0.000151658
0.0805006
0.0549261
0.0501519
0.051901
0.0499121
-0.0256469
0.0399032
0.0514791
0.0583711
0.0504227
0.0515077
0.0514213
0.0112179
0.00367899
0.056521
0.0507791
0.0838136
0.0572514