/*--------------------------------*- C++ -*----------------------------------*\
  =========                 |
  \\      /  F ield         | OpenFOAM: The Open Source CFD Toolbox
   \\    /   O peration     | Website:  https://openfoam.org
    \\  /    A nd           | Version:  7
     \\/     M anipulation  |
\*---------------------------------------------------------------------------*/
FoamFile
{
    version     2.0;
    format      ascii;
    class       volScalarField;
    location    "1.5";
    object      rho;
}
// * * * * * * * * * * * * * * * * * * * * * * * * * * * * * * * * * * * * * //

dimensions      [1 -3 0 0 0 0 0];

internalField   nonuniform List<scalar> 
2413
(
1.39737
1.39472
1.39081
1.38503
1.37747
1.36922
1.35883
1.3472
1.33675
1.32433
1.31079
1.30004
1.28772
1.27367
1.26319
1.25188
1.23813
1.22786
1.21776
1.20483
1.19456
1.18559
1.17391
1.16339
1.15533
1.14532
1.1345
1.1268
1.11858
1.10824
1.09995
1.09308
1.08455
1.07525
1.06859
1.06206
1.0536
1.04559
1.03999
1.03371
1.02542
1.01889
1.01401
1.00764
0.999936
0.995018
0.990378
0.98364
0.977477
0.973567
0.968752
0.962152
0.957723
0.954265
0.949248
0.943569
0.940335
0.937116
0.932148
0.927581
0.925186
0.922248
0.917539
0.914105
0.912349
1.40001
1.40001
1.40001
1.40001
1.40001
1.40001
1.40001
1.40001
1.40001
1.40001
1.40001
1.40001
1.40001
1.40001
1.40001
1.40001
1.40001
1.40001
1.4
1.4
1.39999
1.39996
1.39984
1.39951
1.39875
1.39722
1.39469
1.39064
1.38499
1.3783
1.36953
1.35956
1.35005
1.33843
1.32611
1.31586
1.30374
1.29055
1.28047
1.26909
1.25587
1.246
1.23578
1.22309
1.21321
1.20414
1.19255
1.1823
1.17417
1.16423
1.15356
1.14573
1.13759
1.12747
1.11886
1.11195
1.10375
1.09432
1.08729
1.0809
1.07272
1.06431
1.05852
1.05241
1.04419
1.03736
1.03241
1.0261
1.01838
1.01334
1.00861
1.00187
0.995692
0.991702
0.98682
0.980238
0.975817
0.972281
0.967222
0.961521
0.958301
0.95505
0.950017
0.9455
0.943111
0.940043
0.935198
0.932031
1.40001
1.40001
1.40001
1.40001
1.40001
1.40001
1.40001
1.40001
1.40001
1.40001
1.40001
1.40001
1.40001
1.40001
1.40001
1.40001
1.40001
1.40001
1.40001
1.4
1.4
1.4
1.39999
1.39995
1.39982
1.39946
1.39866
1.39715
1.3945
1.39052
1.38538
1.37827
1.36998
1.36151
1.35093
1.33984
1.33012
1.31842
1.3061
1.29634
1.28507
1.27242
1.26283
1.25261
1.24029
1.23061
1.22155
1.21021
1.20006
1.19189
1.18221
1.1716
1.16359
1.15563
1.1458
1.13683
1.1299
1.12206
1.11256
1.10519
1.09895
1.09102
1.08237
1.07647
1.07045
1.06225
1.05534
1.05035
1.04397
1.03625
1.03125
1.02644
1.01956
1.01348
1.00951
1.0045
0.997896
0.993507
0.989936
0.984758
0.979043
0.975863
0.972561
0.967426
0.963008
0.960619
0.957405
0.952526
1.40001
1.40001
1.40001
1.40001
1.40001
1.40001
1.40001
1.40001
1.40001
1.40001
1.40001
1.40001
1.40001
1.40001
1.40001
1.40001
1.40001
1.40001
1.40001
1.40001
1.40001
1.4
1.4
1.4
1.39999
1.39994
1.39979
1.39941
1.39859
1.397
1.39437
1.39063
1.38521
1.37851
1.37119
1.3619
1.35201
1.34287
1.33184
1.32036
1.31088
1.29992
1.28783
1.27841
1.26839
1.25644
1.24684
1.23788
1.22694
1.21673
1.20856
1.19925
1.18875
1.18043
1.1727
1.16329
1.15396
1.1469
1.13941
1.13005
1.12229
1.11605
1.1084
1.09961
1.0936
1.08761
1.07951
1.07252
1.06748
1.0611
1.05345
1.04838
1.04351
1.03666
1.03057
1.02651
1.02155
1.01494
1.01048
1.0069
1.00179
0.996075
0.992886
0.989579
0.984403
0.980111
0.977752
0.974352
1.40001
1.40001
1.40001
1.40001
1.40001
1.40001
1.40001
1.40001
1.40001
1.40001
1.40001
1.40001
1.40001
1.40001
1.40001
1.40001
1.40001
1.40001
1.40001
1.40001
1.40001
1.40001
1.40001
1.4
1.4
1.4
1.39999
1.39993
1.39977
1.39936
1.39849
1.39688
1.39435
1.39043
1.38525
1.3792
1.37129
1.36259
1.35421
1.34405
1.33329
1.32417
1.31374
1.30216
1.29286
1.28311
1.27169
1.26201
1.25321
1.24275
1.23251
1.2242
1.21536
1.20504
1.19641
1.18877
1.1799
1.17026
1.16309
1.15584
1.14678
1.13865
1.13249
1.125
1.11631
1.11016
1.10416
1.09609
1.08914
1.08404
1.07764
1.07004
1.06498
1.06007
1.05326
1.04719
1.04318
1.03821
1.03162
1.02716
1.02359
1.01844
1.01276
1.00961
1.00624
1.00096
0.996877
0.994469
1.40001
1.40001
1.40001
1.40001
1.40001
1.40001
1.40001
1.40001
1.40001
1.40001
1.40001
1.40001
1.40001
1.40001
1.40001
1.40001
1.40001
1.40001
1.40001
1.40001
1.40001
1.40001
1.40001
1.40001
1.40001
1.4
1.4
1.4
1.39998
1.39992
1.39974
1.39931
1.39841
1.39682
1.39417
1.39037
1.38556
1.37915
1.3717
1.3641
1.35495
1.3451
1.3363
1.32644
1.31547
1.30624
1.29692
1.28597
1.27621
1.26753
1.25779
1.2474
1.23893
1.23041
1.22073
1.21156
1.20396
1.19547
1.18608
1.17852
1.17145
1.16257
1.15438
1.1481
1.14083
1.1322
1.12597
1.11992
1.11205
1.10509
1.09998
1.09363
1.08611
1.08094
1.07607
1.06937
1.06325
1.05917
1.05427
1.04774
1.04317
1.0396
1.03455
1.02888
1.02575
1.02235
1.01707
1.01319
1.40001
1.40001
1.40001
1.40001
1.40001
1.40001
1.40001
1.40001
1.40001
1.40001
1.40001
1.40001
1.40001
1.40001
1.40001
1.40001
1.40001
1.40001
1.40001
1.40001
1.40001
1.40001
1.40001
1.40001
1.40001
1.40001
1.40001
1.4
1.4
1.4
1.39998
1.39991
1.39971
1.39925
1.39834
1.39669
1.39405
1.39048
1.38549
1.37924
1.37264
1.3647
1.35557
1.34721
1.33821
1.32792
1.31858
1.30957
1.29953
1.2897
1.28091
1.27153
1.2617
1.25295
1.24466
1.23521
1.2261
1.21837
1.21045
1.20101
1.1933
1.18624
1.17789
1.16949
1.16316
1.15597
1.14759
1.1412
1.13517
1.12742
1.12049
1.11529
1.10906
1.10156
1.09635
1.0915
1.085
1.07881
1.07472
1.06991
1.06343
1.05885
1.05536
1.05029
1.04475
1.04165
1.03815
1.03283
1.40001
1.40001
1.40001
1.40001
1.40001
1.40001
1.40001
1.40001
1.40001
1.40001
1.40001
1.40001
1.40001
1.40001
1.40001
1.40001
1.40001
1.40001
1.40001
1.40001
1.40001
1.40001
1.40001
1.40001
1.40001
1.40001
1.40001
1.40001
1.40001
1.4
1.4
1.4
1.39997
1.3999
1.39969
1.39921
1.39825
1.39657
1.39404
1.39036
1.38546
1.37978
1.37296
1.36506
1.35715
1.34867
1.33924
1.33023
1.32154
1.31192
1.30226
1.29355
1.28492
1.27518
1.26611
1.25795
1.24951
1.24004
1.232
1.22423
1.21557
1.20749
1.20032
1.19212
1.18405
1.17753
1.17048
1.16221
1.15571
1.14972
1.14236
1.13528
1.13002
1.12394
1.11663
1.11122
1.10645
1.10016
1.09387
1.08971
1.08502
1.07864
1.07403
1.07049
1.06555
1.06008
1.05692
1.05342
1.40001
1.40001
1.40001
1.40001
1.40001
1.40001
1.40001
1.40001
1.40001
1.40001
1.40001
1.40001
1.40001
1.40001
1.40001
1.40001
1.40001
1.40001
1.40001
1.40001
1.40001
1.40001
1.40001
1.40001
1.40001
1.40001
1.40001
1.40001
1.40001
1.40001
1.40001
1.4
1.4
1.4
1.39997
1.39988
1.39966
1.39916
1.39816
1.39651
1.39396
1.39022
1.38565
1.38009
1.37314
1.36585
1.35833
1.34985
1.34075
1.33231
1.32379
1.31453
1.30521
1.29675
1.2881
1.27914
1.27048
1.26201
1.25336
1.24542
1.2376
1.22885
1.22092
1.21386
1.20625
1.19787
1.19121
1.18435
1.17658
1.16973
1.16371
1.1566
1.14959
1.14421
1.13832
1.13116
1.12557
1.12086
1.1149
1.10852
1.10428
1.09968
1.09353
1.08881
1.0853
1.08045
1.07504
1.0719
1.40001
1.40001
1.40001
1.40001
1.40001
1.40001
1.40001
1.40001
1.40001
1.40001
1.40001
1.40001
1.40001
1.40001
1.40001
1.40001
1.40001
1.40001
1.40001
1.40001
1.40001
1.40001
1.40001
1.40001
1.40001
1.40001
1.40001
1.40001
1.40001
1.40001
1.40001
1.40001
1.4
1.4
1.4
1.39999
1.39996
1.39987
1.39963
1.3991
1.39809
1.39641
1.39385
1.39023
1.3857
1.38023
1.37366
1.36651
1.35905
1.35108
1.34251
1.33396
1.3255
1.31702
1.30841
1.29949
1.29089
1.28282
1.2748
1.26578
1.25768
1.25015
1.24238
1.23385
1.22653
1.21915
1.2115
1.2046
1.19758
1.18998
1.18324
1.17734
1.17057
1.16338
1.15779
1.15218
1.14545
1.13947
1.13477
1.12907
1.1228
1.11838
1.11391
1.10799
1.10315
1.09957
1.09493
1.08959
1.40001
1.40001
1.40001
1.40001
1.40001
1.40001
1.40001
1.40001
1.40001
1.40001
1.40001
1.40001
1.40001
1.40001
1.40001
1.40001
1.40001
1.40001
1.40001
1.40001
1.40001
1.40001
1.40001
1.40001
1.40001
1.40001
1.40001
1.40001
1.40001
1.40001
1.40001
1.40001
1.40001
1.40001
1.4
1.4
1.4
1.39999
1.39996
1.39986
1.3996
1.39905
1.39803
1.39631
1.39377
1.39028
1.3857
1.38035
1.37423
1.36718
1.35968
1.35211
1.34429
1.33569
1.3272
1.31921
1.31125
1.30236
1.29389
1.28612
1.27825
1.26995
1.26188
1.25415
1.2465
1.2394
1.23179
1.22396
1.2171
1.2106
1.20347
1.1961
1.1901
1.18378
1.17706
1.17106
1.1654
1.159
1.15308
1.14832
1.1429
1.13666
1.13197
1.12765
1.1222
1.1171
1.11349
1.10902
1.40001
1.40001
1.40001
1.40001
1.40001
1.40001
1.40001
1.40001
1.40001
1.40001
1.40001
1.40001
1.40001
1.40001
1.40001
1.40001
1.40001
1.40001
1.40001
1.40001
1.40001
1.40001
1.40001
1.40001
1.40001
1.40001
1.40001
1.40001
1.40001
1.40001
1.40001
1.40001
1.40001
1.40001
1.40001
1.40001
1.4
1.4
1.4
1.39999
1.39995
1.39984
1.39957
1.399
1.39796
1.39623
1.39369
1.39029
1.38577
1.38046
1.37464
1.36792
1.36039
1.35306
1.34562
1.33754
1.32902
1.32117
1.31333
1.30539
1.29701
1.28894
1.28127
1.27393
1.26613
1.258
1.2509
1.24395
1.2368
1.22917
1.22249
1.21578
1.20913
1.2029
1.19636
1.18974
1.18382
1.17849
1.17247
1.16614
1.16118
1.15616
1.15044
1.14528
1.14094
1.1358
1.13082
1.12699
1.40001
1.40001
1.40001
1.40001
1.40001
1.40001
1.40001
1.40001
1.40001
1.40001
1.40001
1.40001
1.40001
1.40001
1.40001
1.40001
1.40001
1.40001
1.40001
1.40001
1.40001
1.40001
1.40001
1.40001
1.40001
1.40001
1.40001
1.40001
1.40001
1.40001
1.40001
1.40001
1.40001
1.40001
1.40001
1.40001
1.40001
1.40001
1.4
1.4
1.4
1.39999
1.39994
1.39982
1.39954
1.39895
1.39789
1.39616
1.39361
1.39025
1.38591
1.38062
1.37488
1.36854
1.36134
1.35389
1.34656
1.33912
1.33117
1.32294
1.31531
1.30785
1.30019
1.29188
1.28442
1.2772
1.27002
1.26235
1.25499
1.24807
1.24128
1.23478
1.2277
1.22092
1.21479
1.20895
1.20269
1.19604
1.19061
1.18508
1.17941
1.17398
1.1688
1.16334
1.15831
1.154
1.14931
1.14405
1.40001
1.40001
1.40001
1.40001
1.40001
1.40001
1.40001
1.40001
1.40001
1.40001
1.40001
1.40001
1.40001
1.40001
1.40001
1.40001
1.40001
1.40001
1.40001
1.40001
1.40001
1.40001
1.40001
1.40001
1.40001
1.40001
1.40001
1.40001
1.40001
1.40001
1.40001
1.40001
1.40001
1.40001
1.40001
1.40001
1.40001
1.40001
1.40001
1.40001
1.4
1.4
1.4
1.39999
1.39994
1.39981
1.39951
1.3989
1.39781
1.3961
1.39355
1.39017
1.38602
1.38086
1.37505
1.36895
1.36231
1.35487
1.34752
1.34036
1.33305
1.32508
1.31727
1.30999
1.30275
1.29527
1.28745
1.2803
1.27335
1.26662
1.25935
1.2522
1.2458
1.23955
1.23321
1.22626
1.22028
1.21442
1.20865
1.20296
1.19708
1.19147
1.18626
1.18147
1.17639
1.17084
1.1663
1.16187
1.40001
1.40001
1.40001
1.40001
1.40001
1.40001
1.40001
1.40001
1.40001
1.40001
1.40001
1.40001
1.40001
1.40001
1.40001
1.40001
1.40001
1.40001
1.40001
1.40001
1.40001
1.40001
1.40001
1.40001
1.40001
1.40001
1.40001
1.40001
1.40001
1.40001
1.40001
1.40001
1.40001
1.40001
1.40001
1.40001
1.40001
1.40001
1.40001
1.40001
1.40001
1.40001
1.4
1.4
1.4
1.39998
1.39993
1.39979
1.39948
1.39885
1.39774
1.39601
1.39352
1.39013
1.38604
1.38116
1.37536
1.36927
1.36296
1.35608
1.3486
1.34146
1.33443
1.32724
1.31949
1.31206
1.30504
1.29814
1.29096
1.28343
1.27672
1.27019
1.26374
1.25667
1.25014
1.24404
1.23803
1.23213
1.22577
1.21992
1.21446
1.20926
1.20391
1.19805
1.19311
1.18833
1.18376
1.17888
1.40001
1.40001
1.40001
1.40001
1.40001
1.40001
1.40001
1.40001
1.40001
1.40001
1.40001
1.40001
1.40001
1.40001
1.40001
1.40001
1.40001
1.40001
1.40001
1.40001
1.40001
1.40001
1.40001
1.40001
1.40001
1.40001
1.40001
1.40001
1.40001
1.40001
1.40001
1.40001
1.40001
1.40001
1.40001
1.40001
1.40001
1.40001
1.40001
1.40001
1.40001
1.40001
1.40001
1.40001
1.4
1.4
1.4
1.39998
1.39992
1.39978
1.39944
1.3988
1.39768
1.39593
1.39347
1.39013
1.38603
1.38133
1.37581
1.36965
1.36343
1.35696
1.35001
1.34266
1.3357
1.32888
1.32194
1.31435
1.30731
1.30066
1.29405
1.28707
1.28005
1.27368
1.26744
1.26139
1.25478
1.24852
1.24282
1.23726
1.23172
1.22558
1.22021
1.21514
1.21025
1.20518
1.19979
1.19521
1.40001
1.40001
1.40001
1.40001
1.40001
1.40001
1.40001
1.40001
1.40001
1.40001
1.40001
1.40001
1.40001
1.40001
1.40001
1.40001
1.40001
1.40001
1.40001
1.40001
1.40001
1.40001
1.40001
1.40001
1.40001
1.40001
1.40001
1.40001
1.40001
1.40001
1.40001
1.40001
1.40001
1.40001
1.40001
1.40001
1.40001
1.40001
1.40001
1.40001
1.40001
1.40001
1.40001
1.40001
1.40001
1.4
1.4
1.4
1.4
1.39998
1.39992
1.39976
1.39941
1.39875
1.39763
1.39586
1.39339
1.39018
1.38607
1.38139
1.37622
1.37025
1.36388
1.35766
1.35122
1.34418
1.33706
1.33041
1.32377
1.31702
1.30981
1.30311
1.29674
1.29051
1.28388
1.27719
1.27123
1.26537
1.25966
1.25337
1.24753
1.2422
1.23697
1.23175
1.22604
1.22104
1.21628
1.2117
1.40001
1.40001
1.40001
1.40001
1.40001
1.40001
1.40001
1.40001
1.40001
1.40001
1.40001
1.40001
1.40001
1.40001
1.40001
1.40001
1.40001
1.40001
1.40001
1.40001
1.40001
1.40001
1.40001
1.40001
1.40001
1.40001
1.40001
1.40001
1.40001
1.40001
1.40001
1.40001
1.40001
1.40001
1.40001
1.40001
1.40001
1.40001
1.40001
1.40001
1.40001
1.40001
1.40001
1.40001
1.40001
1.40001
1.40001
1.4
1.4
1.4
1.4
1.39997
1.39991
1.39974
1.39938
1.3987
1.39756
1.3958
1.39333
1.39017
1.38619
1.3815
1.37645
1.37087
1.36463
1.35829
1.35205
1.3457
1.33882
1.3319
1.32553
1.3192
1.31268
1.30579
1.29951
1.29345
1.28757
1.28127
1.27496
1.26937
1.26387
1.25847
1.25259
1.24713
1.24211
1.23721
1.23242
1.22706
1.40001
1.40001
1.40001
1.40001
1.40001
1.40001
1.40001
1.40001
1.40001
1.40001
1.40001
1.40001
1.40001
1.40001
1.40001
1.40001
1.40001
1.40001
1.40001
1.40001
1.40001
1.40001
1.40001
1.40001
1.40001
1.40001
1.40001
1.40001
1.40001
1.40001
1.40001
1.40001
1.40001
1.40001
1.40001
1.40001
1.40001
1.40001
1.40001
1.40001
1.40001
1.40001
1.40001
1.40001
1.40001
1.40001
1.40001
1.40001
1.40001
1.4
1.4
1.4
1.4
1.39997
1.3999
1.39972
1.39935
1.39866
1.3975
1.39576
1.39329
1.39013
1.38634
1.38171
1.37662
1.37133
1.36551
1.35912
1.35294
1.34682
1.34057
1.33389
1.3273
1.32117
1.31518
1.30897
1.30237
1.29649
1.29079
1.2852
1.27928
1.27337
1.26808
1.26293
1.25793
1.2524
1.24725
1.2426
1.40001
1.40001
1.40001
1.40001
1.40001
1.40001
1.40001
1.40001
1.40001
1.40001
1.40001
1.40001
1.40001
1.40001
1.40001
1.40001
1.40001
1.40001
1.40001
1.40001
1.40001
1.40001
1.40001
1.40001
1.40001
1.40001
1.40001
1.40001
1.40001
1.40001
1.40001
1.40001
1.40001
1.40001
1.40001
1.40001
1.40001
1.40001
1.40001
1.40001
1.40001
1.40001
1.40001
1.40001
1.40001
1.40001
1.40001
1.40001
1.40001
1.40001
1.40001
1.4
1.4
1.4
1.39999
1.39997
1.39989
1.3997
1.39932
1.39861
1.39744
1.3957
1.39328
1.39014
1.38639
1.38201
1.37696
1.37165
1.36619
1.36032
1.35393
1.3479
1.34202
1.33596
1.32944
1.32328
1.31745
1.31171
1.30586
1.29964
1.29404
1.28871
1.28349
1.27791
1.27236
1.26741
1.26257
1.25793
1.40001
1.40001
1.40001
1.40001
1.40001
1.40001
1.40001
1.40001
1.40001
1.40001
1.40001
1.40001
1.40001
1.40001
1.40001
1.40001
1.40001
1.40001
1.40001
1.40001
1.40001
1.40001
1.40001
1.40001
1.40001
1.40001
1.40001
1.40001
1.40001
1.40001
1.40001
1.40001
1.40001
1.40001
1.40001
1.40001
1.40001
1.40001
1.40001
1.40001
1.40001
1.40001
1.40001
1.40001
1.40001
1.40001
1.40001
1.40001
1.40001
1.40001
1.40001
1.40001
1.40001
1.4
1.4
1.4
1.39999
1.39996
1.39988
1.39969
1.39929
1.39857
1.39739
1.39565
1.39328
1.39017
1.38647
1.38228
1.37741
1.37211
1.3668
1.36126
1.35535
1.34921
1.34335
1.33766
1.33193
1.32566
1.31979
1.31434
1.30892
1.30334
1.29752
1.29225
1.28722
1.28237
1.27716
1.27191
1.40001
1.40001
1.40001
1.40001
1.40001
1.40001
1.40001
1.40001
1.40001
1.40001
1.40001
1.40001
1.40001
1.40001
1.40001
1.40001
1.40001
1.40001
1.40001
1.40001
1.40001
1.40001
1.40001
1.40001
1.40001
1.40001
1.40001
1.40001
1.40001
1.40001
1.40001
1.40001
1.40001
1.40001
1.40001
1.40001
1.40001
1.40001
1.40001
1.40001
1.40001
1.40001
1.40001
1.40001
1.40001
1.40001
1.40001
1.40001
1.40001
1.40001
1.40001
1.40001
1.40001
1.40001
1.40001
1.4
1.4
1.4
1.39999
1.39996
1.39987
1.39967
1.39926
1.39853
1.39736
1.39562
1.39326
1.39027
1.38661
1.38245
1.37793
1.37282
1.36738
1.36212
1.35671
1.35082
1.34491
1.33939
1.3339
1.32842
1.32253
1.31694
1.31179
1.30675
1.30148
1.29598
1.29108
1.28634
1.40001
1.40001
1.40001
1.40001
1.40001
1.40001
1.40001
1.40001
1.40001
1.40001
1.40001
1.40001
1.40001
1.40001
1.40001
1.40001
1.40001
1.40001
1.40001
1.40001
1.40001
1.40001
1.40001
1.40001
1.40001
1.40001
1.40001
1.40001
1.40001
1.40001
1.40001
1.40001
1.40001
1.40001
1.40001
1.40001
1.40001
1.40001
1.40001
1.40001
1.40001
1.40001
1.40001
1.40001
1.40001
1.40001
1.40001
1.40001
1.40001
1.40001
1.40001
1.40001
1.40001
1.40001
1.40001
1.40001
1.40001
1.4
1.4
1.4
1.39999
1.39996
1.39986
1.39965
1.39924
1.3985
1.39733
1.3956
1.39329
1.39038
1.38681
1.38276
1.37836
1.37356
1.36835
1.36301
1.35778
1.35255
1.3469
1.34114
1.33595
1.3308
1.32552
1.31996
1.31476
1.30985
1.30513
1.30027
1.40001
1.40001
1.40001
1.40001
1.40001
1.40001
1.40001
1.40001
1.40001
1.40001
1.40001
1.40001
1.40001
1.40001
1.40001
1.40001
1.40001
1.40001
1.40001
1.40001
1.40001
1.40001
1.40001
1.40001
1.40001
1.40001
1.40001
1.40001
1.40001
1.40001
1.40001
1.40001
1.40001
1.40001
1.40001
1.40001
1.40001
1.40001
1.40001
1.40001
1.40001
1.40001
1.40001
1.40001
1.40001
1.40001
1.40001
1.40001
1.40001
1.40001
1.40001
1.40001
1.40001
1.40001
1.40001
1.40001
1.40001
1.40001
1.40001
1.4
1.4
1.4
1.39999
1.39995
1.39986
1.39964
1.39922
1.39848
1.39731
1.39563
1.39335
1.3905
1.38713
1.38314
1.3788
1.37433
1.36943
1.36412
1.35904
1.354
1.34886
1.34349
1.33807
1.33305
1.32824
1.32331
1.31798
1.31314
1.40001
1.40001
1.40001
1.40001
1.40001
1.40001
1.40001
1.40001
1.40001
1.40001
1.40001
1.40001
1.40001
1.40001
1.40001
1.40001
1.40001
1.40001
1.40001
1.40001
1.40001
1.40001
1.40001
1.40001
1.40001
1.40001
1.40001
1.40001
1.40001
1.40001
1.40001
1.40001
1.40001
1.40001
1.40001
1.40001
1.40001
1.40001
1.40001
1.40001
1.40001
1.40001
1.40001
1.40001
1.40001
1.40001
1.40001
1.40001
1.40001
1.40001
1.40001
1.40001
1.40001
1.40001
1.40001
1.40001
1.40001
1.40001
1.40001
1.40001
1.40001
1.4
1.4
1.4
1.39999
1.39995
1.39985
1.39963
1.39921
1.39847
1.39732
1.39567
1.39345
1.3907
1.38742
1.38364
1.37946
1.37501
1.37044
1.36564
1.36043
1.35547
1.35072
1.34582
1.34059
1.33557
1.33084
1.32624
1.40001
1.40001
1.40001
1.40001
1.40001
1.40001
1.40001
1.40001
1.40001
1.40001
1.40001
1.40001
1.40001
1.40001
1.40001
1.40001
1.40001
1.40001
1.40001
1.40001
1.40001
1.40001
1.40001
1.40001
1.40001
1.40001
1.40001
1.40001
1.40001
1.40001
1.40001
1.40001
1.40001
1.40001
1.40001
1.40001
1.40001
1.40001
1.40001
1.40001
1.40001
1.40001
1.40001
1.40001
1.40001
1.40001
1.40001
1.40001
1.40001
1.40001
1.40001
1.40001
1.40001
1.40001
1.40001
1.40001
1.40001
1.40001
1.40001
1.40001
1.40001
1.40001
1.40001
1.4
1.4
1.4
1.39999
1.39995
1.39985
1.39963
1.3992
1.39848
1.39735
1.39575
1.39364
1.39094
1.38779
1.38426
1.38019
1.37587
1.37153
1.36698
1.36218
1.35727
1.35249
1.34792
1.34335
1.33836
1.40001
1.40001
1.40001
1.40001
1.40001
1.40001
1.40001
1.40001
1.40001
1.40001
1.40001
1.40001
1.40001
1.40001
1.40001
1.40001
1.40001
1.40001
1.40001
1.40001
1.40001
1.40001
1.40001
1.40001
1.40001
1.40001
1.40001
1.40001
1.40001
1.40001
1.40001
1.40001
1.40001
1.40001
1.40001
1.40001
1.40001
1.40001
1.40001
1.40001
1.40001
1.40001
1.40001
1.40001
1.40001
1.40001
1.40001
1.40001
1.40001
1.40001
1.40001
1.40001
1.40001
1.40001
1.40001
1.40001
1.40001
1.40001
1.40001
1.40001
1.40001
1.40001
1.40001
1.40001
1.40001
1.4
1.4
1.4
1.39999
1.39995
1.39984
1.39963
1.39921
1.39851
1.39742
1.39588
1.39383
1.39128
1.38826
1.38483
1.38108
1.37697
1.3726
1.36834
1.36399
1.35926
1.35455
1.35013
1.40001
1.40001
1.40001
1.40001
1.40001
1.40001
1.40001
1.40001
1.40001
1.40001
1.40001
1.40001
1.40001
1.40001
1.40001
1.40001
1.40001
1.40001
1.40001
1.40001
1.40001
1.40001
1.40001
1.40001
1.40001
1.40001
1.40001
1.40001
1.40001
1.40001
1.40001
1.40001
1.40001
1.40001
1.40001
1.40001
1.40001
1.40001
1.40001
1.40001
1.40001
1.40001
1.40001
1.40001
1.40001
1.40001
1.40001
1.40001
1.40001
1.40001
1.40001
1.40001
1.40001
1.40001
1.40001
1.40001
1.40001
1.40001
1.40001
1.40001
)
;

boundaryField
{
    inlet
    {
        type            calculated;
        value           nonuniform 0();
    }
    outlet
    {
        type            calculated;
        value           nonuniform 0();
    }
    bottom
    {
        type            symmetryPlane;
    }
    top
    {
        type            symmetryPlane;
    }
    obstacle
    {
        type            calculated;
        value           nonuniform 0();
    }
    front
    {
        type            empty;
    }
    back
    {
        type            empty;
    }
    procBoundary27to10
    {
        type            processor;
        value           nonuniform List<scalar> 
14
(
1.40001
1.40001
1.40001
1.40001
1.40001
1.40001
1.40001
1.40001
1.40001
1.40001
1.40001
1.40001
1.40001
1.40001
)
;
    }
    procBoundary27to18
    {
        type            processor;
        value           nonuniform List<scalar> 
13
(
1.40001
1.40001
1.40001
1.40001
1.40001
1.40001
1.40001
1.40001
1.40001
1.40001
1.40001
1.40001
1.40001
)
;
    }
    procBoundary27to19
    {
        type            processor;
        value           nonuniform List<scalar> 
89
(
1.3907
1.38508
1.37738
1.3677
1.35794
1.34617
1.33284
1.32153
1.3086
1.29387
1.28254
1.27025
1.25545
1.24438
1.2333
1.21918
1.20828
1.19842
1.18544
1.17456
1.16577
1.15423
1.14322
1.13524
1.12541
1.11433
1.10664
1.09854
1.08809
1.07988
1.07308
1.06441
1.05524
1.04879
1.04216
1.03357
1.02594
1.02038
1.01398
1.00577
0.999503
0.994602
0.988278
0.980687
0.975789
0.971231
0.964677
0.958465
0.95458
0.949971
0.943486
0.938948
0.935577
0.93079
0.925087
0.921795
0.918666
0.913881
0.909194
0.906728
0.903903
0.899386
0.895671
0.893818
0.891323
1.40001
1.40001
1.40001
1.40001
1.40001
1.40001
1.40001
1.40001
1.40001
1.40001
1.40001
1.40001
1.40001
1.40001
1.40001
1.40001
1.4
1.4
1.4
1.39997
1.39986
1.39956
1.39884
1.39884
)
;
    }
    procBoundary27to20
    {
        type            processor;
        value           uniform 0.909616;
    }
    procBoundary27to28
    {
        type            processor;
        value           nonuniform List<scalar> 
26
(
0.930203
0.949697
0.969483
0.990841
1.01077
1.02912
1.04816
1.06838
1.08635
1.10391
1.12282
1.13992
1.15759
1.17394
1.19072
1.20711
1.22234
1.23802
1.2528
1.26731
1.2818
1.29504
1.30857
1.32167
1.33358
1.34573
)
;
    }
    procBoundary27to35
    {
        type            processor;
        value           nonuniform List<scalar> 
89
(
1.40001
1.40001
1.40001
1.40001
1.40001
1.40001
1.40001
1.4
1.4
1.4
1.39999
1.39995
1.39985
1.39964
1.39924
1.39856
1.39753
1.39605
1.39411
1.3917
1.38879
1.38554
1.38202
1.37811
1.37399
1.36982
1.36561
1.36141
1.40001
1.40001
1.40001
1.40001
1.40001
1.40001
1.40001
1.40001
1.40001
1.40001
1.40001
1.40001
1.40001
1.40001
1.40001
1.40001
1.40001
1.40001
1.40001
1.40001
1.40001
1.40001
1.40001
1.40001
1.40001
1.40001
1.40001
1.40001
1.40001
1.40001
1.40001
1.40001
1.40001
1.40001
1.40001
1.40001
1.40001
1.40001
1.40001
1.40001
1.40001
1.40001
1.40001
1.40001
1.40001
1.40001
1.40001
1.40001
1.40001
1.40001
1.40001
1.40001
1.40001
1.40001
1.40001
1.40001
1.40001
1.40001
1.40001
1.40001
1.40001
)
;
    }
}


// ************************************************************************* //
