/*--------------------------------*- C++ -*----------------------------------*\
  =========                 |
  \\      /  F ield         | OpenFOAM: The Open Source CFD Toolbox
   \\    /   O peration     | Website:  https://openfoam.org
    \\  /    A nd           | Version:  7
     \\/     M anipulation  |
\*---------------------------------------------------------------------------*/
FoamFile
{
    version     2.0;
    format      ascii;
    class       volScalarField;
    location    "1.2";
    object      T;
}
// * * * * * * * * * * * * * * * * * * * * * * * * * * * * * * * * * * * * * //

dimensions      [0 0 0 1 0 0 0];

internalField   nonuniform List<scalar> 
1008
(
1.3743
1.36806
1.39695
1.48699
1.62628
1.73226
1.78737
1.77453
1.74647
1.71774
1.68858
1.65905
1.63024
1.60545
1.58664
1.57148
1.55634
1.54049
1.52035
1.49612
1.47773
1.46307
1.4488
1.43767
1.43448
1.43225
1.42726
1.41994
1.4117
1.40234
1.39381
1.38852
1.39
1.3896
1.38793
1.3843
1.38078
1.37327
1.36388
1.35101
1.33446
1.31892
1.30965
1.30741
1.30537
1.29971
1.29363
1.28677
1.27698
1.26083
1.24416
1.23674
1.2323
1.22602
1.22069
1.21493
1.20766
1.19934
1.19052
1.18358
1.18204
1.1838
1.1833
1.4187
1.47223
1.61179
1.74277
1.81375
1.81254
1.79916
1.77275
1.74223
1.70642
1.66991
1.63694
1.61085
1.59341
1.57997
1.56592
1.55113
1.53481
1.51247
1.48355
1.45719
1.44017
1.425
1.40905
1.39444
1.38428
1.378
1.373
1.36333
1.35039
1.33663
1.32678
1.32225
1.32503
1.3297
1.32995
1.32847
1.32555
1.32426
1.3199
1.30986
1.29994
1.29118
1.28482
1.27701
1.27077
1.26737
1.26213
1.25244
1.24001
1.22613
1.21423
1.20638
1.20106
1.19668
1.19106
1.18342
1.17671
1.16887
1.15791
1.15378
1.15427
1.15371
1.59428
1.74075
1.82441
1.85072
1.84408
1.82669
1.79939
1.76268
1.7253
1.68913
1.65465
1.62446
1.60508
1.58917
1.57555
1.56053
1.54339
1.52441
1.50232
1.47737
1.45354
1.43318
1.41431
1.39478
1.37762
1.36437
1.35314
1.34125
1.32994
1.32332
1.31724
1.3008
1.27786
1.26518
1.25911
1.25728
1.25674
1.25965
1.26511
1.2683
1.26887
1.2667
1.25593
1.24746
1.24744
1.24656
1.24557
1.23991
1.23165
1.22002
1.20544
1.19326
1.18339
1.17784
1.17388
1.1691
1.16356
1.1575
1.14941
1.13817
1.13169
1.13175
1.1305
1.8452
1.8963
1.88817
1.87168
1.8429
1.80326
1.76776
1.73891
1.71146
1.68202
1.65015
1.62561
1.60536
1.58604
1.56895
1.55212
1.53401
1.5151
1.49596
1.47575
1.45436
1.43271
1.41075
1.38964
1.37232
1.35692
1.34113
1.32506
1.31186
1.30275
1.29476
1.28426
1.2678
1.24623
1.23033
1.22165
1.21382
1.20897
1.20687
1.20441
1.20587
1.206
1.2034
1.20327
1.20811
1.21032
1.20958
1.21169
1.21145
1.2056
1.19349
1.17662
1.16129
1.15562
1.15277
1.14923
1.14556
1.1404
1.1335
1.12433
1.1139
1.1098
1.10784
1.93822
1.91485
1.88101
1.84198
1.80403
1.77246
1.74689
1.72676
1.7098
1.68759
1.65432
1.61944
1.59567
1.57614
1.55876
1.54276
1.52632
1.50808
1.48827
1.46863
1.44972
1.42958
1.40328
1.37642
1.36239
1.35044
1.33599
1.31965
1.30393
1.29081
1.27894
1.26631
1.25159
1.23175
1.21308
1.20416
1.19666
1.18883
1.18114
1.17132
1.16151
1.1548
1.15061
1.14746
1.14917
1.15535
1.16585
1.17783
1.18031
1.17805
1.16957
1.1562
1.14557
1.13814
1.13356
1.13224
1.13056
1.12597
1.11923
1.11049
1.09793
1.08927
1.0867
1.93236
1.88907
1.84914
1.81366
1.78068
1.76042
1.74485
1.72513
1.70225
1.67685
1.64797
1.61806
1.58959
1.56389
1.54239
1.52511
1.50978
1.49345
1.47592
1.4592
1.44372
1.42776
1.40417
1.37209
1.35306
1.34059
1.32682
1.31128
1.29565
1.2819
1.27008
1.2581
1.2425
1.22068
1.20131
1.19262
1.18603
1.17771
1.16752
1.15701
1.14596
1.13498
1.12503
1.11271
1.1086
1.10904
1.11163
1.12026
1.13183
1.13321
1.13159
1.12546
1.12258
1.11995
1.11243
1.10725
1.10512
1.10153
1.09581
1.08816
1.07839
1.07165
1.0685
1.90537
1.86366
1.82777
1.80128
1.77494
1.74602
1.725
1.70487
1.68385
1.66372
1.64338
1.61918
1.58816
1.5571
1.53224
1.50925
1.491
1.47721
1.46339
1.44879
1.43414
1.41893
1.39836
1.36995
1.34876
1.33451
1.3204
1.30505
1.28926
1.27564
1.26444
1.25398
1.24047
1.21791
1.19474
1.18463
1.1781
1.17061
1.16041
1.14856
1.13615
1.12501
1.11404
1.0992
1.08725
1.08485
1.08309
1.08272
1.08396
1.08737
1.0877
1.08561
1.08346
1.08773
1.08927
1.08692
1.08559
1.08354
1.0786
1.07041
1.06176
1.05671
1.05208
1.88155
1.84103
1.8063
1.77913
1.75659
1.73117
1.70593
1.6853
1.66822
1.65216
1.63445
1.61185
1.58103
1.54551
1.51661
1.49522
1.47885
1.46522
1.45083
1.43499
1.4184
1.40015
1.37915
1.3565
1.34049
1.32926
1.3165
1.30094
1.28344
1.26628
1.25175
1.23942
1.22867
1.21715
1.1982
1.1801
1.16966
1.15961
1.14832
1.13725
1.12761
1.11928
1.10868
1.09357
1.07859
1.07168
1.06887
1.06635
1.06339
1.06093
1.05753
1.05349
1.04863
1.04811
1.05405
1.05876
1.05997
1.0599
1.05706
1.04958
1.04304
1.04087
1.03723
1.8538
1.82236
1.79324
1.7655
1.73956
1.71415
1.68984
1.66837
1.64993
1.6332
1.61546
1.59369
1.56499
1.53015
1.50132
1.48234
1.46741
1.45404
1.43979
1.42359
1.40593
1.38579
1.36292
1.34247
1.32853
1.31902
1.30872
1.29547
1.27933
1.2623
1.24796
1.23703
1.22574
1.21026
1.19143
1.17823
1.17023
1.16136
1.15023
1.13787
1.12632
1.11582
1.10463
1.09119
1.07621
1.06697
1.06184
1.05806
1.05473
1.05135
1.04555
1.03853
1.03053
1.02216
1.02166
1.024
1.02583
1.0294
1.02945
1.02561
1.02121
1.02188
1.02306
1.83921
1.8132
1.78092
1.74771
1.71918
1.69436
1.6726
1.65235
1.63209
1.61217
1.59269
1.57198
1.54733
1.51779
1.4906
1.47083
1.45509
1.44125
1.42724
1.41171
1.39529
1.3783
1.35885
1.33806
1.32024
1.30703
1.29528
1.28311
1.27124
1.25913
1.24589
1.23478
1.22631
1.21405
1.19062
1.17336
1.16588
1.15962
1.1511
1.14045
1.13088
1.12324
1.11589
1.10491
1.08834
1.06996
1.05842
1.05272
1.04841
1.04394
1.03857
1.03211
1.02388
1.01181
1.00348
1.00235
1.00153
1.00251
1.00484
1.00425
0.998858
0.997294
1.00223
1.8239
1.7959
1.76292
1.72747
1.69458
1.66837
1.64903
1.63155
1.61284
1.59362
1.57482
1.55544
1.5344
1.50956
1.4817
1.45787
1.43943
1.42394
1.40984
1.39683
1.38408
1.37189
1.36045
1.34636
1.32659
1.3058
1.2887
1.27496
1.2624
1.25419
1.24886
1.24309
1.23256
1.20863
1.18145
1.16975
1.16282
1.15605
1.14959
1.14197
1.13259
1.12371
1.11344
1.09863
1.08062
1.067
1.05846
1.05189
1.04633
1.04029
1.03391
1.02788
1.01992
1.00824
0.998045
0.995123
0.993716
0.992541
0.991374
0.987743
0.979879
0.976386
0.978803
1.80136
1.77331
1.74203
1.70917
1.67788
1.65134
1.63086
1.61373
1.59616
1.57805
1.56026
1.54177
1.52223
1.50214
1.48017
1.45533
1.43355
1.41576
1.40089
1.389
1.37866
1.36846
1.35701
1.33893
1.31108
1.29392
1.28525
1.27544
1.265
1.25571
1.24765
1.23836
1.22269
1.20027
1.18012
1.16994
1.16214
1.15451
1.14784
1.1423
1.1376
1.13013
1.11867
1.10144
1.07918
1.06446
1.05739
1.0521
1.04735
1.04244
1.03565
1.02831
1.02197
1.01257
1.00008
0.994468
0.992364
0.98826
0.982205
0.976316
0.969869
0.965337
0.964467
1.77613
1.75254
1.72735
1.70072
1.67435
1.64836
1.62382
1.60267
1.58352
1.56623
1.55116
1.53543
1.51685
1.49452
1.46747
1.44309
1.42661
1.41355
1.40205
1.39254
1.38378
1.37377
1.35988
1.33836
1.30909
1.28571
1.27356
1.26532
1.25859
1.25383
1.24941
1.2414
1.22409
1.19909
1.18691
1.17802
1.16883
1.15905
1.14954
1.14067
1.13159
1.12225
1.10912
1.0902
1.07535
1.06685
1.0605
1.05514
1.05034
1.04577
1.03966
1.03165
1.02141
1.0059
0.988834
0.982278
0.979476
0.976341
0.971597
0.966594
0.962346
0.959951
0.957045
1.75723
1.73676
1.71545
1.69219
1.66641
1.63967
1.61572
1.59575
1.57796
1.56157
1.54643
1.53072
1.51248
1.49
1.46463
1.44256
1.42502
1.41056
1.39863
1.38881
1.37955
1.36924
1.35594
1.33499
1.30523
1.28415
1.27352
1.26505
1.25812
1.25254
1.24668
1.23766
1.22139
1.2012
1.18402
1.17362
1.16514
1.15624
1.14718
1.13812
1.12933
1.12035
1.10754
1.08927
1.0741
1.06586
1.06012
1.05514
1.0507
1.04604
1.04
1.0319
1.02118
1.00529
0.987138
0.979507
0.976296
0.972639
0.967718
0.963335
0.96003
0.958516
0.954396
1.76893
1.74838
1.72769
1.70466
1.6774
1.64831
1.62358
1.60495
1.58928
1.57457
1.55964
1.54272
1.52304
1.50059
1.47682
1.45505
1.43687
1.42169
1.40894
1.39782
1.38715
1.37618
1.36306
1.34359
1.31881
1.29919
1.28482
1.27367
1.26575
1.25974
1.25358
1.24484
1.23101
1.21036
1.19008
1.17906
1.17064
1.1613
1.152
1.14408
1.13709
1.12856
1.11445
1.09397
1.07891
1.07226
1.06751
1.06301
1.05852
1.05358
1.0477
1.04022
1.02971
1.01233
0.992835
0.985691
0.981913
0.976933
0.972171
0.968492
0.965845
0.963493
0.957892
1.75462
1.733
1.71148
1.6885
1.66182
1.63324
1.6083
1.58866
1.57262
1.55901
1.54581
1.53001
1.51019
1.48686
1.46255
1.4411
1.42336
1.4082
1.39555
1.38479
1.37426
1.36273
1.34858
1.32899
1.30623
1.28772
1.27286
1.26062
1.25217
1.24644
1.2405
1.23154
1.21732
1.19667
1.17757
1.16741
1.15891
1.14915
1.13938
1.13127
1.12462
1.11669
1.10313
1.08269
1.06732
1.06098
1.05672
1.05266
1.04844
1.0437
1.03805
1.03081
1.01978
1.00027
0.980689
0.975002
0.971346
0.966145
0.961314
0.957785
0.955339
0.953199
0.947992
)
;

boundaryField
{
    inlet
    {
        type            fixedValue;
        value           nonuniform 0();
    }
    outlet
    {
        type            inletOutlet;
        inletValue      uniform 1;
        value           nonuniform List<scalar> 
16
(
1.18445
1.15459
1.13096
1.10829
1.08722
1.06919
1.05252
1.03745
1.02371
1.00337
0.979438
0.964988
0.957454
0.954622
0.958033
0.948182
)
;
    }
    bottom
    {
        type            symmetryPlane;
    }
    top
    {
        type            symmetryPlane;
    }
    obstacle
    {
        type            zeroGradient;
    }
    defaultFaces
    {
        type            empty;
    }
    procBoundary3to1
    {
        type            processor;
        value           nonuniform List<scalar> 
63
(
1.35659
1.34909
1.33617
1.33834
1.38607
1.50087
1.64259
1.71865
1.73778
1.73354
1.71963
1.68948
1.65831
1.63059
1.60811
1.59091
1.57311
1.55497
1.53355
1.51767
1.50739
1.50105
1.5004
1.50488
1.5129
1.5141
1.5126
1.50215
1.48302
1.46185
1.44789
1.44177
1.44209
1.44311
1.43955
1.42815
1.41266
1.40136
1.38884
1.37261
1.35536
1.34144
1.33627
1.33439
1.33439
1.33244
1.32548
1.31502
1.29935
1.27972
1.26571
1.25689
1.25223
1.25287
1.25194
1.24586
1.23763
1.22747
1.21869
1.21489
1.21272
1.21029
1.20525
)
;
    }
    procBoundary3to2
    {
        type            processor;
        value           nonuniform List<scalar> 
16
(
1.39083
1.41202
1.47977
1.7268
1.94199
1.96438
1.94653
1.92673
1.88867
1.8645
1.84868
1.82587
1.79892
1.7778
1.79017
1.77649
)
;
    }
}


// ************************************************************************* //
