/*--------------------------------*- C++ -*----------------------------------*\
  =========                 |
  \\      /  F ield         | OpenFOAM: The Open Source CFD Toolbox
   \\    /   O peration     | Website:  https://openfoam.org
    \\  /    A nd           | Version:  7
     \\/     M anipulation  |
\*---------------------------------------------------------------------------*/
FoamFile
{
    version     2.0;
    format      ascii;
    class       volScalarField;
    location    "93";
    object      p;
}
// * * * * * * * * * * * * * * * * * * * * * * * * * * * * * * * * * * * * * //

dimensions      [0 2 -2 0 0 0 0];

internalField   nonuniform List<scalar> 
26800
(
-0.448558
-0.455747
-0.471418
-0.473575
-0.465865
-0.41385
-0.346295
-0.283471
-0.242397
-0.223075
-0.223443
-0.231969
-0.218793
-0.187352
-0.160287
-0.138977
-0.122387
-0.12038
-0.129317
-0.134949
-0.45245
-0.462456
-0.468819
-0.457771
-0.4418
-0.391678
-0.331693
-0.277787
-0.244622
-0.233367
-0.241051
-0.251495
-0.231926
-0.192487
-0.158855
-0.134334
-0.115211
-0.109955
-0.119972
-0.128636
-0.45693
-0.469581
-0.466336
-0.441579
-0.416552
-0.367646
-0.314961
-0.269962
-0.244917
-0.242311
-0.257574
-0.268332
-0.241954
-0.195439
-0.155971
-0.128788
-0.108541
-0.101283
-0.111963
-0.122092
-0.462055
-0.47714
-0.46406
-0.425245
-0.39046
-0.342079
-0.296242
-0.259851
-0.243111
-0.249597
-0.272745
-0.282118
-0.248601
-0.196055
-0.151807
-0.122365
-0.102045
-0.0939171
-0.105028
-0.115493
-0.467864
-0.485126
-0.462061
-0.408995
-0.363896
-0.315315
-0.275696
-0.247362
-0.239079
-0.254903
-0.286068
-0.292365
-0.251707
-0.194271
-0.146563
-0.115146
-0.0953714
-0.0873666
-0.0987733
-0.108801
-0.474377
-0.493501
-0.460378
-0.393018
-0.337244
-0.287699
-0.253485
-0.232459
-0.232737
-0.257869
-0.296761
-0.298522
-0.251218
-0.190132
-0.140391
-0.107249
-0.0881926
-0.0809661
-0.0924036
-0.101435
-0.481593
-0.502201
-0.459022
-0.377465
-0.310892
-0.259486
-0.229777
-0.215183
-0.224011
-0.258235
-0.303966
-0.300182
-0.247246
-0.183835
-0.133374
-0.098797
-0.0802037
-0.0737157
-0.0845738
-0.0920191
-0.489486
-0.511132
-0.457969
-0.36245
-0.285165
-0.230997
-0.204756
-0.195666
-0.212832
-0.255996
-0.307016
-0.297222
-0.240096
-0.175735
-0.125586
-0.089984
-0.0711867
-0.0643202
-0.0735999
-0.0786737
-0.498008
-0.520178
-0.457164
-0.348054
-0.260373
-0.202558
-0.17864
-0.174152
-0.19915
-0.251377
-0.305508
-0.289813
-0.230216
-0.166307
-0.117187
-0.0811544
-0.0612672
-0.0518357
-0.0582907
-0.0602022
-0.507089
-0.529202
-0.456522
-0.334337
-0.236775
-0.174526
-0.151681
-0.151014
-0.183017
-0.24467
-0.299319
-0.27839
-0.218147
-0.156059
-0.108471
-0.0727295
-0.0510987
-0.0367975
-0.0391369
-0.037054
-0.516639
-0.538058
-0.455945
-0.321354
-0.214574
-0.147258
-0.124171
-0.126757
-0.164704
-0.236087
-0.288628
-0.263623
-0.204497
-0.145443
-0.0998354
-0.0650475
-0.0416688
-0.021402
-0.0189389
-0.0127448
-0.526548
-0.546595
-0.455322
-0.309167
-0.193921
-0.121127
-0.0964344
-0.101971
-0.144873
-0.225692
-0.273927
-0.24636
-0.189912
-0.134817
-0.0916627
-0.0582605
-0.0338893
-0.0091486
-0.002209
0.00695687
-0.536697
-0.554671
-0.454558
-0.297852
-0.17493
-0.0964784
-0.0688904
-0.0772815
-0.124679
-0.213383
-0.255964
-0.227529
-0.175022
-0.12447
-0.0841904
-0.0524236
-0.0278434
-0.00204101
0.00842859
0.0181995
-0.546952
-0.562157
-0.453596
-0.287479
-0.157709
-0.0736212
-0.0421923
-0.0533479
-0.105661
-0.199066
-0.235706
-0.208041
-0.160371
-0.114653
-0.0774881
-0.0475929
-0.0232971
0.000722842
0.0134276
0.0215172
-0.557173
-0.568949
-0.452423
-0.278112
-0.142386
-0.0529141
-0.0174169
-0.0309978
-0.0892666
-0.182973
-0.214237
-0.188724
-0.146386
-0.105554
-0.0715545
-0.0437414
-0.0202554
0.000877026
0.0146232
0.0205381
-0.567219
-0.574979
-0.450941
-0.269889
-0.129194
-0.0348807
0.0039625
-0.0114026
-0.0762284
-0.16576
-0.192631
-0.170258
-0.133374
-0.0972739
-0.0663871
-0.0407505
-0.0185752
-0.000128573
0.0135892
0.0180226
-0.576949
-0.580194
-0.449054
-0.262919
-0.118389
-0.0202969
0.0204393
0.00403104
-0.0663079
-0.148351
-0.171847
-0.153141
-0.121524
-0.0898448
-0.0619541
-0.0384842
-0.0179105
-0.00165334
0.0112979
0.0150685
-0.586226
-0.584466
-0.446881
-0.257283
-0.110206
-0.00996289
0.0311277
0.0142364
-0.0586384
-0.131653
-0.152635
-0.13768
-0.110916
-0.083254
-0.0581854
-0.0368059
-0.0179225
-0.00343419
0.00841215
0.0119761
-0.59492
-0.587889
-0.444356
-0.252982
-0.10475
-0.00429527
0.0360722
0.0190066
-0.0524991
-0.11639
-0.135488
-0.124013
-0.101546
-0.0774575
-0.0549963
-0.0355837
-0.018359
-0.00533074
0.0053511
0.00888579
-0.602912
-0.590528
-0.441471
-0.249971
-0.101944
-0.00308602
0.036013
0.019216
-0.0475796
-0.103044
-0.120628
-0.112137
-0.0933562
-0.0723919
-0.052303
-0.0347049
-0.0190444
-0.00724726
0.00235526
0.00590586
-0.610107
-0.592474
-0.438227
-0.248158
-0.101544
-0.00560089
0.0320313
0.0161107
-0.0438905
-0.0918408
-0.108054
-0.101952
-0.0862541
-0.0679861
-0.0500277
-0.0340808
-0.0198576
-0.00911744
-0.000450419
0.00310233
-0.616463
-0.593819
-0.434641
-0.24742
-0.103196
-0.0109048
0.0252332
0.0108579
-0.0414977
-0.0827738
-0.0976039
-0.093304
-0.0801335
-0.0641683
-0.0481031
-0.0336435
-0.0207187
-0.0108942
-0.00301194
0.000518319
-0.621928
-0.594705
-0.430742
-0.24761
-0.106502
-0.0181338
0.0165734
0.00433083
-0.0403634
-0.0756655
-0.0890388
-0.086018
-0.0748859
-0.0608699
-0.0464727
-0.0333416
-0.0215764
-0.0125486
-0.00531641
-0.00182506
-0.626426
-0.595326
-0.426577
-0.248563
-0.111074
-0.0265954
0.00681015
-0.00287203
-0.0403339
-0.0702556
-0.082097
-0.079919
-0.0704069
-0.0580277
-0.0450898
-0.0331364
-0.0223992
-0.0140661
-0.00737103
-0.00392532
-0.629968
-0.595882
-0.422212
-0.250112
-0.116568
-0.035763
-0.00348637
-0.0103512
-0.0412008
-0.0662676
-0.0765288
-0.0748441
-0.0665997
-0.0555853
-0.0439162
-0.0329983
-0.0231709
-0.0154412
-0.00919233
-0.00579429
-0.632591
-0.596562
-0.417729
-0.252091
-0.122687
-0.0452423
-0.0139039
-0.0178435
-0.0427539
-0.0634441
-0.0721104
-0.070646
-0.0633764
-0.0534927
-0.0429192
-0.0329062
-0.023885
-0.0166717
-0.0108045
-0.00744581
-0.634327
-0.597528
-0.413224
-0.254345
-0.129187
-0.0547422
-0.0241541
-0.0251771
-0.0448061
-0.0615589
-0.0686469
-0.0671946
-0.0606583
-0.0517059
-0.0420705
-0.032847
-0.0245384
-0.0177593
-0.0122404
-0.00888918
-0.635203
-0.598892
-0.408796
-0.256732
-0.135866
-0.0640508
-0.0340418
-0.0322419
-0.0472016
-0.0604196
-0.0659717
-0.0643758
-0.0583757
-0.050185
-0.0413463
-0.0328134
-0.025126
-0.0187162
-0.013533
-0.0101358
-0.635239
-0.600691
-0.404537
-0.259129
-0.142564
-0.0730181
-0.0434409
-0.0389689
-0.0498144
-0.0598653
-0.0639431
-0.0620905
-0.0564672
-0.0488944
-0.0407276
-0.0327995
-0.0256434
-0.0195661
-0.0146946
-0.0111834
-0.634442
-0.602865
-0.400532
-0.261429
-0.149151
-0.0815411
-0.0522755
-0.0453169
-0.052545
-0.0597625
-0.0624414
-0.0602525
-0.0548786
-0.0478016
-0.040199
-0.0327985
-0.0260923
-0.020331
-0.0157074
-0.0121229
-0.632806
-0.605238
-0.396848
-0.263542
-0.155525
-0.0895527
-0.0605048
-0.0512635
-0.0553156
-0.0600014
-0.0613654
-0.0587875
-0.053562
-0.0468778
-0.0397473
-0.032803
-0.0264817
-0.0210188
-0.0165565
-0.0130506
-0.630312
-0.607516
-0.393528
-0.265393
-0.161608
-0.0970123
-0.0681132
-0.0567987
-0.0580657
-0.0604921
-0.0606302
-0.0576309
-0.052475
-0.0460971
-0.0393601
-0.0328072
-0.0268205
-0.0216261
-0.0172976
-0.0138574
-0.626941
-0.609296
-0.39059
-0.266923
-0.167337
-0.103899
-0.0751015
-0.0619208
-0.0607488
-0.0611609
-0.0601637
-0.0567274
-0.0515801
-0.0454367
-0.0390262
-0.0328073
-0.0271131
-0.0221543
-0.0179526
-0.0145628
-0.622688
-0.610098
-0.388022
-0.268089
-0.172665
-0.110208
-0.0814821
-0.0666341
-0.0633291
-0.0619474
-0.0599055
-0.0560286
-0.0508442
-0.0448762
-0.0387352
-0.0328
-0.027362
-0.0226087
-0.0185246
-0.0151841
-0.617586
-0.60942
-0.385789
-0.268862
-0.177558
-0.115941
-0.0872742
-0.0709463
-0.0657797
-0.0628025
-0.0598044
-0.0554931
-0.0502379
-0.0443972
-0.0384773
-0.0327827
-0.0275692
-0.0229927
-0.0190205
-0.0157397
-0.611724
-0.606813
-0.38383
-0.269227
-0.181992
-0.121109
-0.092501
-0.0748677
-0.06808
-0.0636859
-0.0598172
-0.0550849
-0.0497353
-0.0439832
-0.0382435
-0.032753
-0.0277352
-0.0233123
-0.0194461
-0.0162236
-0.605269
-0.601959
-0.382074
-0.269183
-0.185954
-0.125728
-0.0971882
-0.0784101
-0.070215
-0.0645648
-0.0599075
-0.0547727
-0.0493135
-0.0436192
-0.0380258
-0.0327082
-0.0278612
-0.0235717
-0.0198045
-0.0166438
-0.598472
-0.594738
-0.380441
-0.268739
-0.189438
-0.129815
-0.101362
-0.0815859
-0.0721737
-0.0654124
-0.0600446
-0.0545297
-0.0489521
-0.0432919
-0.0378165
-0.032646
-0.0279475
-0.0237749
-0.0201009
-0.0169984
-0.59165
-0.58525
-0.378855
-0.267915
-0.192444
-0.13339
-0.105049
-0.0844079
-0.0739483
-0.066207
-0.0602023
-0.0543326
-0.0486332
-0.0429891
-0.0376089
-0.0325637
-0.0279949
-0.0239252
-0.0203379
-0.0172922
-0.585158
-0.573802
-0.377252
-0.266736
-0.194981
-0.136475
-0.108275
-0.0868891
-0.0755337
-0.0669309
-0.0603589
-0.0541612
-0.0483412
-0.0427
-0.0373968
-0.0324589
-0.0280033
-0.0240253
-0.0205196
-0.0175269
-0.579344
-0.560843
-0.375578
-0.265231
-0.19706
-0.139089
-0.111063
-0.0890426
-0.0769266
-0.0675699
-0.0604958
-0.0539982
-0.048062
-0.0424147
-0.0371744
-0.0323291
-0.027973
-0.0240773
-0.0206481
-0.0177055
-0.574508
-0.54688
-0.373793
-0.263431
-0.198695
-0.141255
-0.113438
-0.090881
-0.0781257
-0.0681125
-0.0605975
-0.0538287
-0.0477834
-0.0421246
-0.0369364
-0.0321719
-0.0279038
-0.024083
-0.0207263
-0.0178303
-0.570872
-0.532402
-0.371869
-0.261367
-0.199904
-0.142993
-0.11542
-0.0924167
-0.0791306
-0.0685496
-0.0606511
-0.0536397
-0.0474948
-0.0418218
-0.0366783
-0.0319851
-0.0277956
-0.0240439
-0.0207558
-0.0179033
-0.568568
-0.51782
-0.369787
-0.259062
-0.200706
-0.144324
-0.117029
-0.0936615
-0.0799422
-0.068874
-0.0606456
-0.0534202
-0.0471868
-0.0414996
-0.0363955
-0.0317665
-0.0276481
-0.0239612
-0.0207385
-0.0179262
-0.567641
-0.503448
-0.367538
-0.256537
-0.201118
-0.145266
-0.118285
-0.0946269
-0.0805622
-0.0690802
-0.060572
-0.0531608
-0.0468511
-0.0411518
-0.0360842
-0.031514
-0.027461
-0.0238358
-0.0206757
-0.0179006
-0.568065
-0.489499
-0.365117
-0.253806
-0.20116
-0.145839
-0.119205
-0.0953236
-0.0809928
-0.069164
-0.060423
-0.0528535
-0.0464807
-0.040773
-0.0357409
-0.0312257
-0.027234
-0.0236687
-0.0205685
-0.0178286
-0.569762
-0.4761
-0.362516
-0.250882
-0.200847
-0.146059
-0.119804
-0.095762
-0.0812367
-0.0691226
-0.0601925
-0.0524916
-0.0460694
-0.0403586
-0.0353624
-0.0309001
-0.0269669
-0.0234603
-0.020418
-0.0177119
-0.572614
-0.463316
-0.359733
-0.247774
-0.200198
-0.145942
-0.120098
-0.0959518
-0.0812971
-0.0689538
-0.0598757
-0.0520694
-0.045612
-0.0399044
-0.034946
-0.0305354
-0.0266593
-0.0232112
-0.0202251
-0.0175526
-0.576479
-0.451162
-0.356765
-0.244487
-0.199226
-0.145505
-0.1201
-0.0959021
-0.0811773
-0.0686565
-0.0594687
-0.0515822
-0.045104
-0.039407
-0.0344891
-0.0301304
-0.026311
-0.0229215
-0.0199904
-0.0173524
-0.581196
-0.439619
-0.353612
-0.241025
-0.197945
-0.144761
-0.119823
-0.0956218
-0.0808811
-0.0682301
-0.0589686
-0.0510261
-0.0445417
-0.0388633
-0.0339898
-0.029684
-0.0259219
-0.0225917
-0.0197146
-0.0171128
-0.586598
-0.428652
-0.350269
-0.237391
-0.196368
-0.143723
-0.11928
-0.095119
-0.0804121
-0.0676748
-0.0583733
-0.0503981
-0.0439221
-0.0382708
-0.0334461
-0.0291951
-0.0254916
-0.0222217
-0.0193984
-0.0168351
-0.59251
-0.418212
-0.346731
-0.233586
-0.194506
-0.142403
-0.118482
-0.0944016
-0.0797742
-0.0669912
-0.0576811
-0.0496958
-0.0432426
-0.0376274
-0.0328566
-0.0286629
-0.0250201
-0.0218119
-0.0190423
-0.0165202
-0.598755
-0.408241
-0.34299
-0.229607
-0.192369
-0.140811
-0.117438
-0.0934769
-0.0789716
-0.0661801
-0.0568914
-0.0489172
-0.0425012
-0.0369315
-0.03222
-0.0280868
-0.0245073
-0.0213625
-0.0186472
-0.0161692
-0.60516
-0.398677
-0.339036
-0.225453
-0.189967
-0.138958
-0.116158
-0.0923516
-0.0780085
-0.065243
-0.0560036
-0.0480611
-0.0416963
-0.0361817
-0.0315353
-0.0274663
-0.023953
-0.0208735
-0.018214
-0.0157834
-0.611553
-0.389454
-0.334861
-0.22112
-0.187307
-0.136852
-0.114654
-0.0910318
-0.0768893
-0.0641816
-0.0550179
-0.0471267
-0.0408271
-0.035377
-0.0308019
-0.0268012
-0.0233572
-0.020345
-0.0177433
-0.0153641
-0.617768
-0.380505
-0.330453
-0.216603
-0.184398
-0.1345
-0.112933
-0.0895233
-0.0756186
-0.0629981
-0.0539345
-0.0461139
-0.0398929
-0.0345168
-0.0300192
-0.0260912
-0.0227199
-0.0197771
-0.0172357
-0.0149127
-0.623647
-0.371761
-0.3258
-0.211895
-0.181249
-0.131907
-0.111007
-0.0878326
-0.0741997
-0.0616949
-0.0527541
-0.0450225
-0.0388934
-0.0336008
-0.029187
-0.0253364
-0.0220412
-0.0191701
-0.0166913
-0.0144287
-0.629038
-0.363156
-0.320891
-0.206991
-0.177868
-0.129079
-0.108882
-0.0859674
-0.0726352
-0.0602754
-0.0514772
-0.0438527
-0.0378285
-0.0326288
-0.0283052
-0.0245368
-0.0213213
-0.0185246
-0.0161102
-0.0139087
-0.633802
-0.354624
-0.315716
-0.201878
-0.174264
-0.126025
-0.106562
-0.0839354
-0.0709295
-0.0587425
-0.050105
-0.0426039
-0.0366989
-0.0316009
-0.027374
-0.0236926
-0.0205611
-0.0178422
-0.0154931
-0.0133456
-0.637808
-0.3461
-0.310266
-0.19655
-0.17044
-0.122755
-0.104051
-0.0817368
-0.0690944
-0.0570937
-0.0486424
-0.0412754
-0.0355063
-0.0305167
-0.0263953
-0.0228037
-0.0197618
-0.0171241
-0.0148417
-0.0127326
-0.640935
-0.33752
-0.304538
-0.191002
-0.166394
-0.119265
-0.101378
-0.0793526
-0.0671541
-0.0553147
-0.0471016
-0.0398673
-0.0342527
-0.0293758
-0.0253712
-0.0218701
-0.0189244
-0.0163709
-0.0141551
-0.0120737
-0.643074
-0.328823
-0.298525
-0.185235
-0.162139
-0.115512
-0.0986101
-0.0767415
-0.0651368
-0.0533892
-0.0454951
-0.0383849
-0.0329381
-0.0281805
-0.0243008
-0.0208943
-0.0180494
-0.0155824
-0.0134266
-0.0113914
-0.644129
-0.319951
-0.292216
-0.179223
-0.157748
-0.111416
-0.0958298
-0.0738824
-0.0630335
-0.0513467
-0.0438042
-0.0368426
-0.0315563
-0.0269393
-0.0231769
-0.0198805
-0.017136
-0.0147566
-0.0126538
-0.0106986
-0.644013
-0.310852
-0.285597
-0.172861
-0.153374
-0.106944
-0.0929981
-0.0708735
-0.0607507
-0.049273
-0.0419907
-0.0352463
-0.0301092
-0.0256477
-0.022005
-0.0188273
-0.0161856
-0.0138918
-0.0118455
-0.00998844
-0.642653
-0.301486
-0.278686
-0.165996
-0.149092
-0.102279
-0.0898199
-0.0679195
-0.0582623
-0.0471589
-0.0400698
-0.0335841
-0.0286039
-0.024304
-0.020789
-0.0177342
-0.0151987
-0.0129893
-0.0110075
-0.00925393
-0.639987
-0.29179
-0.271604
-0.158632
-0.144604
-0.0976804
-0.0862935
-0.0649579
-0.0556083
-0.0449723
-0.0380676
-0.0318507
-0.027044
-0.0229094
-0.0195308
-0.0166024
-0.014176
-0.012052
-0.0101419
-0.00849183
-0.635963
-0.281631
-0.264553
-0.151036
-0.139597
-0.0931552
-0.0824835
-0.0619389
-0.0528276
-0.042695
-0.0359968
-0.0300471
-0.0254313
-0.0214663
-0.0182317
-0.0154331
-0.0131185
-0.0110825
-0.00924923
-0.00770154
-0.630542
-0.270815
-0.257533
-0.143339
-0.134079
-0.0886369
-0.0784543
-0.0588263
-0.0499464
-0.0403212
-0.0338622
-0.0281774
-0.0237667
-0.0199773
-0.016893
-0.0142279
-0.0120279
-0.0100828
-0.00832983
-0.00688386
-0.623694
-0.259318
-0.249971
-0.135934
-0.128151
-0.0840664
-0.074252
-0.0556014
-0.0469799
-0.0378529
-0.0316654
-0.0262466
-0.0220518
-0.0184446
-0.0155162
-0.0129886
-0.0109057
-0.00905451
-0.00738437
-0.00604002
-0.615402
-0.247639
-0.241626
-0.128624
-0.121894
-0.0794032
-0.0699097
-0.0522561
-0.0439362
-0.0352957
-0.0294074
-0.0242591
-0.0202887
-0.0168704
-0.0141033
-0.0117168
-0.00975365
-0.00799909
-0.00641389
-0.00517145
-0.605665
-0.235856
-0.232509
-0.121308
-0.115362
-0.0746215
-0.0654494
-0.0487903
-0.0408195
-0.0326567
-0.0270893
-0.0222186
-0.0184798
-0.0152569
-0.012656
-0.0104144
-0.00857357
-0.00691816
-0.00541984
-0.00427968
-0.594535
-0.223817
-0.222743
-0.113911
-0.108598
-0.0697066
-0.060886
-0.0452083
-0.0376324
-0.029943
-0.0247136
-0.0201286
-0.0166279
-0.0136065
-0.0111765
-0.00908319
-0.00736729
-0.00581345
-0.00440392
-0.00336639
-0.582133
-0.211345
-0.212414
-0.106394
-0.101634
-0.0646519
-0.0562302
-0.041517
-0.0343771
-0.0271612
-0.022283
-0.0179922
-0.0147358
-0.0119214
-0.00966694
-0.00772527
-0.0061367
-0.00468673
-0.00336787
-0.00243348
-0.568542
-0.198351
-0.201587
-0.0987315
-0.094495
-0.0594564
-0.0514893
-0.0377247
-0.0310564
-0.024317
-0.0198011
-0.0158127
-0.0128065
-0.0102043
-0.00812952
-0.00634265
-0.00488367
-0.00353976
-0.00231344
-0.00148308
-0.55352
-0.185047
-0.190311
-0.0909087
-0.0872013
-0.0541232
-0.0466694
-0.03384
-0.0276733
-0.0214161
-0.0172716
-0.0135933
-0.0108429
-0.00845762
-0.0065666
-0.00493745
-0.00361017
-0.00237435
-0.00124246
-0.000517506
-0.536619
-0.171809
-0.178633
-0.082917
-0.0797696
-0.048658
-0.0417759
-0.0298715
-0.0242317
-0.0184635
-0.0146986
-0.0113373
-0.00884806
-0.00668421
-0.00498057
-0.00351184
-0.00231826
-0.00119264
-0.000157246
0.000461048
-0.518137
-0.158434
-0.166585
-0.0747526
-0.0722143
-0.0430685
-0.0368137
-0.0258277
-0.020736
-0.0154643
-0.0120861
-0.00904815
-0.00682499
-0.00488675
-0.00337386
-0.00206803
-0.00101018
2.71839e-06
0.000939149
0.00145081
-0.498195
-0.14484
-0.154203
-0.066416
-0.0645484
-0.0373639
-0.0317882
-0.021717
-0.017191
-0.0124233
-0.00943838
-0.00672946
-0.00477686
-0.00306804
-0.00174893
-0.000608256
0.000311751
0.00120884
0.00204321
0.0024498
-0.476887
-0.130984
-0.141516
-0.0579111
-0.0567838
-0.0315542
-0.026705
-0.0175472
-0.0136019
-0.00934542
-0.00675967
-0.00438483
-0.00270685
-0.00123089
-0.000108251
0.000865223
0.00164521
0.002423
0.00315162
0.00345396
-0.454296
-0.116845
-0.128554
-0.0492447
-0.0489318
-0.02565
-0.02157
-0.0133261
-0.00997415
-0.00623565
-0.00405427
-0.00201798
-0.000618196
0.000621841
0.00154564
0.00235005
0.0029879
0.00364299
0.0042618
0.00445642
-0.430508
-0.102416
-0.115344
-0.0404262
-0.0410037
-0.0196624
-0.0163899
-0.0090614
-0.00631348
-0.00309897
-0.00132652
0.000367359
0.00148582
0.00248728
0.00321013
0.00384376
0.00433755
0.00486697
0.00537199
0.00545177
-0.405607
-0.0877024
-0.101916
-0.031467
-0.0330107
-0.0136026
-0.0111714
-0.00476064
-0.00262572
5.95572e-05
0.00141916
0.00276738
0.00360189
0.0043625
0.00488255
0.00534387
0.00569197
0.00609327
0.00648124
0.00644451
-0.379678
-0.0727129
-0.088296
-0.0223803
-0.0249643
-0.00748218
-0.00592198
-0.000431307
0.00108316
0.0032348
0.00417836
0.00517824
0.00572667
0.00624452
0.00656018
0.00684798
0.00704942
0.00732076
0.00758986
0.00744977
-0.352811
-0.0574639
-0.0745129
-0.0131808
-0.0168761
-0.0013127
-0.000649296
0.00391912
0.00480709
0.00642158
0.00694659
0.00759609
0.00785677
0.00813027
0.00824029
0.008354
0.00840891
0.00854942
0.00869827
0.00847259
-0.325097
-0.0419757
-0.0605947
-0.00388431
-0.00875828
0.00489409
0.00463861
0.00828317
0.00853991
0.00961466
0.00971936
0.010017
0.00998873
0.0100167
0.00992025
0.00986018
0.00976997
0.00977885
0.00980096
0.0094766
-0.296628
-0.026273
-0.0465698
0.00549195
-0.000623233
0.0111264
0.00993341
0.0126533
0.0122754
0.0128088
0.0124921
0.0124371
0.0121191
0.0119007
0.0115977
0.0113652
0.0111315
0.0110039
0.0108762
0.0103845
-0.267499
-0.0103836
-0.0324671
0.0149301
0.00751614
0.0173723
0.0152266
0.017022
0.0160073
0.0159986
0.0152603
0.0148525
0.0142443
0.0137795
0.0132708
0.012868
0.0124904
0.0122112
0.0118868
0.0111537
-0.237807
0.00566186
-0.018316
0.0244113
0.0156466
0.02362
0.0205093
0.0213817
0.0197293
0.0191789
0.0180195
0.017259
0.0163611
0.0156504
0.0149379
0.014367
0.0138411
0.0133842
0.0128102
0.0118669
-0.20765
0.0218299
-0.00414588
0.0339162
0.0237545
0.0298574
0.0257727
0.0257249
0.0234351
0.0223442
0.0207649
0.0196529
0.0184659
0.0175107
0.016597
0.0158593
0.0151766
0.0145161
0.0136807
0.0126921
-0.177126
0.0380852
0.0100131
0.0434248
0.031826
0.0360727
0.0310078
0.0300439
0.0271183
0.0254893
0.023492
0.02203
0.0205555
0.0193582
0.0182459
0.0173403
0.0164901
0.0156158
0.0145748
0.0137466
-0.146336
0.0543905
0.0241306
0.0529169
0.0398468
0.0422537
0.0362054
0.0343311
0.0307726
0.0286089
0.0261963
0.0243865
0.0226266
0.0211901
0.0198815
0.0188049
0.0177779
0.0166982
0.0155237
0.0150698
-0.115379
0.0707071
0.0381762
0.0623717
0.0478025
0.0483885
0.0413563
0.038579
0.0343917
0.0316976
0.0288732
0.0267185
0.0246762
0.0230037
0.0215003
0.0202489
0.0190412
0.0177808
0.0165511
0.0163074
-0.0843565
0.0869951
0.0521191
0.0717684
0.0556785
0.0544653
0.0464514
0.0427799
0.0379693
0.03475
0.0315181
0.0290221
0.0267011
0.024796
0.0230987
0.02167
0.0202857
0.0188782
0.0176272
0.0174227
-0.0533671
0.103213
0.0659286
0.0810859
0.0634601
0.060472
0.0514813
0.0469264
0.041499
0.0377611
0.0341265
0.0312937
0.028698
0.0265638
0.0246733
0.0230666
0.0215148
0.0199863
0.0187115
0.0184603
-0.0225108
0.11932
0.0795739
0.0903031
0.0711323
0.0663968
0.0564368
0.0510109
0.0449748
0.0407255
0.036694
0.0335295
0.0306637
0.0283038
0.0262214
0.0244387
0.0227306
0.0210974
0.0197821
0.0194419
0.00811393
0.135274
0.093024
0.0993989
0.0786804
0.0722279
0.061309
0.0550261
0.0483905
0.0436382
0.0392163
0.0357257
0.0325949
0.030013
0.0277404
0.0257856
0.0239319
0.0222027
0.0208316
0.020387
0.0384098
0.151031
0.106249
0.108352
0.0860895
0.0779539
0.0660886
0.0589646
0.0517399
0.046494
0.041689
0.0378789
0.0344884
0.0316882
0.0292282
0.0271065
0.0251161
0.0232945
0.0218563
0.0213014
0.0682809
0.166549
0.119217
0.117143
0.0933451
0.0835631
0.0707668
0.0628192
0.0550172
0.049288
0.044108
0.0399853
0.0363407
0.0333267
0.0306829
0.0284
0.0262801
0.0243678
0.0228555
0.0221878
0.0976332
0.181787
0.1319
0.125749
0.100432
0.0890443
0.0753347
0.0665829
0.0582164
0.0520153
0.0464691
0.0420414
0.0381489
0.0349256
0.0321025
0.0296641
0.0274205
0.0254187
0.0238284
0.0230466
0.126375
0.196701
0.144268
0.134152
0.107337
0.0943865
0.0797838
0.0702487
0.0613319
0.0546712
0.0487683
0.0440437
0.0399098
0.0364825
0.0334849
0.0308967
0.0285345
0.0264444
0.0247739
0.023877
0.154416
0.21125
0.156292
0.142331
0.114045
0.0995788
0.0841055
0.0738099
0.064358
0.0572509
0.0510016
0.0459889
0.0416204
0.0379948
0.0348279
0.0320957
0.0296194
0.0274425
0.0256908
0.0246782
0.18167
0.225394
0.167943
0.150267
0.120543
0.104611
0.0882917
0.0772598
0.0672894
0.05975
0.0531652
0.0478736
0.0432779
0.03946
0.0361296
0.0332588
0.0306727
0.028411
0.0265778
0.0254495
0.208052
0.239093
0.179195
0.157941
0.126817
0.109472
0.0923343
0.080592
0.0701206
0.0621642
0.0552554
0.0496945
0.0448793
0.0408759
0.0373878
0.034384
0.0316923
0.029348
0.0274334
0.0261901
0.233481
0.252308
0.19002
0.165335
0.132854
0.114153
0.0962256
0.0838004
0.0728468
0.0644891
0.0572685
0.0514487
0.0464222
0.0422401
0.0386004
0.0354691
0.0326763
0.0302516
0.0282564
0.0268994
0.25788
0.265
0.200394
0.172431
0.138642
0.118644
0.0999582
0.0868791
0.0754628
0.0667207
0.0592012
0.0531331
0.0479039
0.0435504
0.0397654
0.0365123
0.0336226
0.0311203
0.0290456
0.0275767
0.281175
0.277135
0.210291
0.179213
0.144169
0.122935
0.103525
0.0898223
0.0779641
0.0688551
0.06105
0.054745
0.0493219
0.0448046
0.0408809
0.0375117
0.0345296
0.0319523
0.0297997
0.0282216
0.303294
0.288678
0.219688
0.185664
0.149422
0.127019
0.106919
0.0926245
0.0803462
0.0708886
0.0628119
0.0562815
0.0506739
0.0460008
0.0419451
0.0384657
0.0353956
0.0327463
0.0305178
0.0288336
0.324171
0.299594
0.228563
0.191769
0.154392
0.130886
0.110134
0.0952808
0.0826049
0.0728176
0.0644838
0.0577401
0.0519577
0.0471369
0.0429562
0.0393725
0.0362189
0.0335007
0.0311988
0.0294126
0.343744
0.309855
0.236895
0.197514
0.159067
0.134529
0.113163
0.0977861
0.084736
0.074639
0.0660629
0.0591184
0.0531712
0.0482111
0.0439125
0.0402307
0.0369982
0.0342143
0.0318418
0.0299581
0.361955
0.319429
0.244664
0.202885
0.163439
0.137942
0.116002
0.100136
0.086736
0.0763494
0.0675466
0.0604142
0.0543124
0.0492218
0.0448126
0.0410388
0.0377321
0.0348857
0.032446
0.03047
0.378751
0.328291
0.251853
0.20787
0.167498
0.141116
0.118644
0.102326
0.0886012
0.0779461
0.0689324
0.0616252
0.0553794
0.0501673
0.045655
0.0417954
0.0384192
0.035514
0.0330107
0.030948
0.394081
0.336415
0.258444
0.212457
0.171235
0.144046
0.121086
0.104352
0.0903285
0.0794263
0.070218
0.0627497
0.0563706
0.051046
0.0464383
0.0424994
0.0390584
0.0360979
0.0335351
0.031392
0.407903
0.343778
0.264422
0.216637
0.174644
0.146725
0.123321
0.106212
0.0919149
0.0807876
0.0714013
0.0637856
0.0572844
0.0518567
0.0471614
0.0431496
0.0396487
0.0366367
0.0340187
0.0318019
0.420175
0.350361
0.269775
0.220399
0.177718
0.14915
0.125347
0.107901
0.0933578
0.0820278
0.0724804
0.0647315
0.0581193
0.0525981
0.0478231
0.0437449
0.0401889
0.0371293
0.0344608
0.0321777
0.430864
0.356145
0.274489
0.223735
0.180451
0.151316
0.12716
0.109416
0.0946548
0.0831449
0.0734536
0.0655858
0.0588741
0.053269
0.0484224
0.0442845
0.0406784
0.0375751
0.034861
0.0325191
0.43994
0.361116
0.278556
0.226639
0.182837
0.153217
0.128757
0.110756
0.0958038
0.0841371
0.0743194
0.0663473
0.0595477
0.0538686
0.0489585
0.0447676
0.0411162
0.0379733
0.0352188
0.0328262
0.447378
0.365261
0.281965
0.229105
0.184873
0.154853
0.130135
0.111918
0.0968031
0.0850029
0.0750766
0.0670148
0.0601391
0.0543959
0.0494306
0.0451933
0.0415018
0.0383233
0.0355338
0.0330991
0.453158
0.36857
0.284712
0.231127
0.186555
0.156218
0.131291
0.112901
0.0976512
0.0857412
0.075724
0.0675875
0.0606475
0.0548502
0.049838
0.0455612
0.0418345
0.0386249
0.0358063
0.0333378
0.457267
0.371036
0.28679
0.232703
0.18788
0.157313
0.132226
0.113703
0.0983469
0.086351
0.0762609
0.0680646
0.0610722
0.055231
0.0501802
0.0458708
0.0421142
0.0388777
0.0360356
0.0335417
0.459696
0.372653
0.288197
0.233829
0.188847
0.158134
0.132936
0.114322
0.0988895
0.0868315
0.0766865
0.0684454
0.0614128
0.0555378
0.0504569
0.0461216
0.0423401
0.0390808
0.0362198
0.033708
0.460441
0.373421
0.288932
0.234506
0.189454
0.158682
0.133422
0.114759
0.0992783
0.0871822
0.0770005
0.0687298
0.0616688
0.0557703
0.0506678
0.0463135
0.0425123
0.0392345
0.03636
0.0338386
0.459504
0.37334
0.288994
0.234734
0.189702
0.158957
0.133684
0.115014
0.0995132
0.0874029
0.0772027
0.0689173
0.0618401
0.0559283
0.0508126
0.0464464
0.0426307
0.0393391
0.0364576
0.033936
0.456892
0.372414
0.288386
0.234512
0.189593
0.158959
0.133721
0.115086
0.0995943
0.0874938
0.077293
0.0690081
0.0619267
0.0560118
0.0508914
0.0465202
0.0426953
0.0393943
0.0365116
0.0339993
0.452619
0.370647
0.287113
0.233846
0.189126
0.158688
0.133535
0.114976
0.099522
0.0874549
0.0772716
0.0690022
0.0619287
0.0560209
0.0509043
0.0465349
0.0427062
0.0394001
0.0365218
0.0340272
0.446703
0.368051
0.28518
0.232737
0.188305
0.158148
0.133126
0.114686
0.0992969
0.0872869
0.0771389
0.0688999
0.0618463
0.0559558
0.0508513
0.0464909
0.0426636
0.0393568
0.0364884
0.0340196
0.439166
0.364635
0.282594
0.231191
0.187134
0.15734
0.132498
0.114215
0.0989201
0.0869906
0.0768956
0.0687019
0.06168
0.0558168
0.0507329
0.0463883
0.0425679
0.0392648
0.0364114
0.0339763
0.430037
0.360415
0.279366
0.229214
0.185617
0.156268
0.131651
0.113567
0.0983929
0.0865669
0.0765425
0.0684087
0.0614303
0.0556045
0.0505495
0.0462276
0.0424195
0.0391246
0.0362912
0.0338972
0.419351
0.355406
0.275505
0.226814
0.183758
0.154934
0.130589
0.112743
0.0977169
0.0860172
0.0760806
0.0680212
0.0610981
0.0553194
0.0503016
0.0460094
0.0422189
0.0389365
0.0361277
0.033782
0.407145
0.349628
0.271026
0.223999
0.181564
0.153344
0.129314
0.111745
0.0968939
0.085343
0.0755112
0.0675405
0.060684
0.0549624
0.0499899
0.0457342
0.0419669
0.0387012
0.0359215
0.0336306
0.393464
0.343103
0.265942
0.220778
0.179042
0.151502
0.127831
0.110576
0.0959262
0.0845459
0.0748356
0.0669677
0.0601892
0.0545342
0.0496151
0.0454029
0.0416642
0.0384194
0.0356727
0.0334429
0.378357
0.335855
0.260269
0.217163
0.176198
0.149414
0.126143
0.10924
0.0948161
0.0836279
0.0740556
0.0663042
0.0596149
0.0540359
0.0491782
0.0450161
0.0413115
0.0380918
0.0353819
0.0332188
0.361876
0.327909
0.254024
0.213164
0.173041
0.147085
0.124256
0.10774
0.0935665
0.0825913
0.0731728
0.0655514
0.0589622
0.0534687
0.0486801
0.044575
0.04091
0.0377194
0.0350495
0.0329583
0.34408
0.319296
0.247228
0.208795
0.169579
0.144522
0.122172
0.106079
0.0921801
0.0814383
0.0721893
0.064711
0.0582326
0.0528336
0.048122
0.0440804
0.0404605
0.0373029
0.0346761
0.0326613
0.325031
0.310046
0.239899
0.204069
0.165823
0.141732
0.119899
0.104261
0.0906603
0.0801715
0.0711072
0.0637849
0.0574277
0.0521322
0.047505
0.0435336
0.0399642
0.0368435
0.0342623
0.032328
0.304795
0.30019
0.232061
0.199
0.161782
0.138722
0.117441
0.102292
0.0890104
0.0787938
0.0699287
0.062775
0.0565491
0.0513657
0.0468305
0.0429357
0.0394223
0.0363422
0.033809
0.0319584
0.283444
0.289764
0.223735
0.193604
0.157466
0.1355
0.114805
0.100174
0.0872341
0.0773081
0.0686564
0.0616832
0.0555987
0.0505359
0.0460998
0.0422882
0.0388361
0.0358003
0.0333168
0.0315528
0.261053
0.278804
0.214946
0.187897
0.152888
0.132074
0.111996
0.0979138
0.0853352
0.0757174
0.0672929
0.0605119
0.0545781
0.0496442
0.0453146
0.0415924
0.0382071
0.035219
0.0327867
0.0311114
0.237701
0.267346
0.205719
0.181895
0.148058
0.128453
0.109021
0.0955156
0.0833178
0.074025
0.0658409
0.0592633
0.0534896
0.0486925
0.0444763
0.0408499
0.0375366
0.0345997
0.0322197
0.0306345
0.213469
0.255431
0.19608
0.175616
0.142989
0.124645
0.105886
0.0929849
0.081186
0.0722345
0.0643032
0.0579399
0.0523351
0.0476824
0.0435867
0.0400624
0.0368265
0.0339439
0.031617
0.0301226
0.188445
0.243098
0.186056
0.169078
0.137693
0.12066
0.1026
0.090327
0.0789443
0.0703492
0.0626828
0.0565442
0.0511168
0.0466159
0.0426474
0.0392317
0.0360783
0.0332532
0.0309796
0.0295763
0.162717
0.230388
0.175675
0.1623
0.132183
0.116508
0.0991678
0.0875476
0.0765971
0.0683729
0.0609828
0.0550789
0.0498371
0.0454949
0.0416602
0.0383598
0.0352943
0.0325292
0.0303088
0.0289961
0.136377
0.217344
0.164966
0.155301
0.126472
0.112198
0.0955984
0.0846524
0.0741491
0.0663095
0.0592064
0.0535466
0.0484983
0.0443213
0.0406268
0.0374484
0.0344765
0.0317737
0.0296058
0.0283829
0.10952
0.204008
0.153958
0.1481
0.120574
0.107741
0.0918988
0.0816473
0.0716051
0.0641627
0.057357
0.0519503
0.0471029
0.0430972
0.0395486
0.0364998
0.0336281
0.0309893
0.0288718
0.0277374
0.0822417
0.190424
0.14268
0.140716
0.114502
0.103145
0.0880768
0.0785384
0.0689699
0.0619367
0.0554377
0.0502927
0.0456535
0.0418247
0.0384274
0.0355156
0.0327519