/*--------------------------------*- C++ -*----------------------------------*\
  =========                 |
  \\      /  F ield         | OpenFOAM: The Open Source CFD Toolbox
   \\    /   O peration     | Website:  https://openfoam.org
    \\  /    A nd           | Version:  7
     \\/     M anipulation  |
\*---------------------------------------------------------------------------*/
FoamFile
{
    version     2.0;
    format      ascii;
    class       volScalarField;
    location    "5";
    object      rho;
}
// * * * * * * * * * * * * * * * * * * * * * * * * * * * * * * * * * * * * * //

dimensions      [1 -3 0 0 0 0 0];

internalField   nonuniform List<scalar> 
2413
(
1.62348
1.62004
1.6165
1.61293
1.60932
1.60581
1.60235
1.59912
1.59608
1.59299
1.58985
1.58661
1.58326
1.58011
1.57713
1.57419
1.57134
1.56837
1.56536
1.56239
1.55938
1.55646
1.55358
1.5507
1.54788
1.54506
1.54211
1.53917
1.53614
1.53314
1.53032
1.52756
1.52477
1.52193
1.51907
1.51604
1.51321
1.51032
1.50751
1.50471
1.50191
1.49915
1.49634
1.49373
1.4909
1.48825
1.48555
1.48298
1.48039
1.47776
1.47527
1.4726
1.47022
1.46768
1.46538
1.46296
1.46061
1.45831
1.4562
1.4544
1.45296
1.45213
1.45175
1.45228
1.45354
1.45536
1.45771
1.4616
1.46829
1.48096
1.5153
1.59401
1.67169
1.70545
1.7208
1.73184
1.74071
1.7483
1.75485
1.66229
1.65874
1.65506
1.65122
1.64713
1.64312
1.63943
1.6359
1.63245
1.62897
1.62547
1.62184
1.61813
1.6144
1.61073
1.60741
1.60427
1.60109
1.59787
1.5945
1.59111
1.58788
1.58472
1.5817
1.57866
1.57563
1.57268
1.56964
1.56662
1.56362
1.56063
1.55778
1.55504
1.55219
1.54932
1.54637
1.54332
1.54042
1.53764
1.53488
1.53212
1.52936
1.5264
1.52357
1.52064
1.51775
1.51487
1.51202
1.50916
1.50632
1.50356
1.5006
1.49781
1.49487
1.49211
1.48932
1.48661
1.48389
1.48101
1.47831
1.47543
1.47292
1.47025
1.46773
1.46514
1.46254
1.46003
1.45736
1.45503
1.45245
1.45016
1.44782
1.44565
1.44371
1.44178
1.43924
1.43838
1.44003
1.44662
1.47278
1.5388
1.60426
1.63197
1.6461
1.65837
1.67063
1.68298
1.69514
1.66827
1.66461
1.66078
1.65676
1.65277
1.64894
1.64529
1.64171
1.63822
1.63468
1.63102
1.62723
1.62332
1.61955
1.61617
1.61288
1.60961
1.60627
1.60278
1.59939
1.59601
1.59275
1.58953
1.58638
1.58335
1.58031
1.5772
1.57408
1.57091
1.56784
1.56504
1.56219
1.55935
1.55647
1.55343
1.55044
1.54757
1.54475
1.54199
1.53927
1.53643
1.53368
1.53084
1.52799
1.52514
1.52229
1.51944
1.51664
1.5139
1.51099
1.50818
1.50519
1.50235
1.49944
1.49671
1.49389
1.491
1.4882
1.48521
1.48246
1.47956
1.47692
1.4741
1.47135
1.46857
1.46575
1.46308
1.46024
1.45773
1.45496
1.45244
1.44989
1.44748
1.44503
1.44228
1.4387
1.43594
1.43605
1.43982
1.46142
1.5217
1.58013
1.59738
1.60228
1.60628
1.61081
1.61685
1.62503
1.67422
1.6704
1.66641
1.66242
1.65854
1.65476
1.65113
1.64762
1.6441
1.64042
1.63658
1.63258
1.62878
1.62527
1.62186
1.6185
1.61501
1.61154
1.60806
1.60459
1.60116
1.59776
1.59457
1.5915
1.58835
1.58516
1.58189
1.57854
1.57551
1.57254
1.56962
1.56672
1.56371
1.56069
1.55773
1.55477
1.55187
1.54908
1.54622
1.54351
1.54075
1.53793
1.5351
1.53225
1.5294
1.52666
1.524
1.52119
1.51845
1.51554
1.51268
1.50977
1.50706
1.50425
1.50146
1.49868
1.49576
1.49295
1.49002
1.48729
1.48436
1.48161
1.47875
1.47589
1.47306
1.47014
1.46736
1.4644
1.46173
1.45889
1.45623
1.45348
1.45078
1.44817
1.44516
1.44145
1.43812
1.43813
1.44144
1.4616
1.52042
1.57981
1.59369
1.59453
1.59396
1.59248
1.59128
1.59145
1.67997
1.67604
1.67208
1.66816
1.66433
1.66067
1.65718
1.65362
1.64993
1.64603
1.64202
1.63822
1.63458
1.6311
1.62759
1.62409
1.62059
1.61703
1.61345
1.60985
1.60639
1.60319
1.60004
1.59681
1.59354
1.59006
1.58676
1.58356
1.58047
1.57745
1.57438
1.57131
1.5683
1.56527
1.56221
1.55924
1.55623
1.55345
1.55068
1.54788
1.54504
1.54215
1.53922
1.53643
1.53379
1.53104
1.52837
1.52555
1.52274
1.51985
1.51712
1.51433
1.51161
1.50889
1.50608
1.50337
1.50055
1.49781
1.49489
1.49219
1.4893
1.48653
1.48373
1.48086
1.47805
1.47507
1.47233
1.46939
1.46672
1.46387
1.4611
1.45825
1.45533
1.45259
1.44952
1.44589
1.44213
1.44172
1.44445
1.46308
1.52004
1.58189
1.59553
1.59569
1.59501
1.59267
1.58988
1.58791
1.68547
1.68153
1.67758
1.67374
1.67015
1.66669
1.66315
1.65945
1.65552
1.65154
1.6477
1.64404
1.64046
1.63693
1.63344
1.6299
1.62626
1.62255
1.6188
1.61533
1.61211
1.60884
1.60558
1.60213
1.59868
1.5953
1.59201
1.5888
1.58561
1.58246
1.57939
1.57633
1.57316
1.57006
1.56684
1.56387
1.561
1.55815
1.55526
1.55234
1.54932
1.5464
1.54367
1.54087
1.53819
1.5354
1.53263
1.52977
1.52703
1.52421
1.52146
1.51873
1.51597
1.51336
1.51063
1.50796
1.50513
1.50246
1.49957
1.49691
1.49416
1.49141
1.48865
1.48577
1.48304
1.48013
1.47751
1.47468
1.47201
1.46916
1.46633
1.46348
1.46056
1.45786
1.45487
1.45131
1.4474
1.44652
1.44878
1.46559
1.52089
1.58488
1.59949
1.59956
1.59824
1.59557
1.59253
1.58976
1.69069
1.68674
1.6829
1.67938
1.67598
1.67248
1.66881
1.66493
1.66099
1.65715
1.65342
1.64981
1.64629
1.64284
1.63927
1.63558
1.63174
1.62796
1.62454
1.6212
1.61792
1.61452
1.61106
1.60758
1.60414
1.60074
1.59738
1.59409
1.59094
1.58787
1.58466
1.58147
1.57811
1.57492
1.57188
1.56894
1.56598
1.56301
1.55992
1.55686
1.554
1.55107
1.5483
1.54544
1.54266
1.53981
1.53706
1.5342
1.53135
1.52854
1.52573
1.52314
1.52045
1.51782
1.51505
1.51238
1.5095
1.50689
1.5042
1.50152
1.49882
1.49605
1.49332
1.49046
1.48791
1.48514
1.48257
1.4798
1.47713
1.47431
1.47151
1.46875
1.46594
1.46335
1.46043
1.45702
1.4531
1.45184
1.45375
1.46859
1.52152
1.58785
1.60569
1.6056
1.60398
1.60079
1.59736
1.59453
1.69545
1.69167
1.68825
1.68492
1.68151
1.67793
1.67415
1.67029
1.66642
1.66264
1.65899
1.65557
1.65215
1.64861
1.6449
1.64099
1.63726
1.63375
1.63039
1.627
1.62358
1.62011
1.61664
1.61314
1.6096
1.60613
1.60284
1.59974
1.59654
1.59334
1.58997
1.5866
1.58336
1.58028
1.57721
1.57416
1.57105
1.56788
1.56489
1.56182
1.55891
1.55591
1.55305
1.55018
1.54741
1.54453
1.5416
1.53869
1.53575
1.53308
1.53035
1.52772
1.52496
1.52227
1.51937
1.51675
1.51403
1.51137
1.50871
1.50601
1.5033
1.5005
1.49792
1.49515
1.49261
1.4899
1.48738
1.48464
1.48198
1.47928
1.4765
1.47384
1.4711
1.46862
1.46581
1.46256
1.45862
1.45713
1.45872
1.47154
1.5212
1.58934
1.6121
1.61244
1.61092
1.60783
1.60441
1.60118
1.69996
1.69661
1.69336
1.69003
1.68654
1.68293
1.6792
1.67539
1.67157
1.66797
1.6646
1.66123
1.65773
1.65402
1.65019
1.64647
1.64295
1.6395
1.63608
1.63264
1.62924
1.62575
1.62215
1.61852
1.61501
1.6118
1.6086
1.6054
1.60207
1.59866
1.59528
1.59206
1.58888
1.58573
1.58258
1.57935
1.57629
1.5731
1.57003
1.56688
1.56389
1.56095
1.55816
1.55526
1.55229
1.5493
1.5462
1.5434
1.54058
1.53791
1.53511
1.5324
1.52948
1.5268
1.52402
1.5213
1.51862
1.5159
1.51322
1.51046
1.50787
1.50506
1.50248
1.49974
1.49723
1.49454
1.49203
1.4894
1.48668
1.48402
1.48129
1.47874
1.47604
1.47366
1.47097
1.46782
1.46387
1.46209
1.46333
1.47413
1.51967
1.58937
1.61766
1.61882
1.61772
1.61499
1.61164
1.60864
1.70449
1.70131
1.69804
1.69468
1.69122
1.68762
1.68389
1.68012
1.67659
1.67328
1.66994
1.66648
1.66282
1.6591
1.65548
1.65191
1.64841
1.64496
1.64162
1.63823
1.63471
1.63107
1.62736
1.62397
1.62071
1.61752
1.61424
1.61087
1.60744
1.60412
1.60081
1.59754
1.59434
1.59108
1.58801
1.58478
1.5816
1.5783
1.57512
1.57205
1.56921
1.56632
1.56336
1.56035
1.55715
1.5542
1.55122
1.54844
1.54557
1.54283
1.53993
1.5372
1.53436
1.53152
1.52878
1.52596
1.5233
1.52054
1.51795
1.5151
1.51246
1.50963
1.50705
1.5044
1.50192
1.49931
1.49665
1.49402
1.49129
1.4887
1.48602
1.48359
1.48092
1.47851
1.47585
1.47283
1.46895
1.46681
1.46774
1.47657
1.5171
1.58783
1.6222
1.62449
1.62375
1.62147
1.61846
1.61554
1.70883
1.70562
1.70236
1.69903
1.69554
1.6919
1.68822
1.68481
1.68155
1.67824
1.6748
1.67123
1.66767
1.66409
1.66053
1.65699
1.65361
1.65031
1.64693
1.64342
1.63972
1.63611
1.63274
1.62951
1.62626
1.62296
1.6196
1.61626
1.61289
1.6095
1.60618
1.60283
1.59975
1.59658
1.59339
1.59006
1.58673
1.58344
1.58047
1.57753
1.57456
1.5716
1.56842
1.56541
1.56229
1.55936
1.55635
1.55351
1.55059
1.54785
1.54502
1.54212
1.53928
1.53633
1.5336
1.53082
1.52822
1.52538
1.5227
1.51978
1.51708
1.51437
1.51185
1.50925
1.50664
1.50404
1.50128
1.49866
1.49598
1.49352
1.49081
1.4884
1.48572
1.48325
1.48068
1.47778
1.47403
1.47147
1.47206
1.47901
1.5138
1.58438
1.62584
1.62963
1.62921
1.6273
1.62457
1.62186
1.71289
1.70971
1.70648
1.70309
1.69951
1.69593
1.69263
1.68941
1.68614
1.68275
1.67928
1.67581
1.67229
1.66871
1.6652
1.66191
1.65864
1.65527
1.65175
1.6481
1.64458
1.64126
1.63798
1.63471
1.63142
1.62816
1.62484
1.62144
1.61803
1.61457
1.61137
1.60823
1.60508
1.60182
1.59845
1.59503
1.59191
1.58886
1.58582
1.58287
1.57972
1.57672
1.57358
1.57055
1.56741
1.56443
1.56144
1.55865
1.55583
1.5529
1.55003
1.54699
1.54416
1.5413
1.53866
1.53581
1.53312
1.53017
1.5274
1.52459
1.52194
1.51931
1.51667
1.51409
1.51134
1.50876
1.50602
1.50348
1.50072
1.49831
1.49564
1.49316
1.49052
1.48802
1.4855
1.48267
1.47911
1.47612
1.47635
1.4816
1.51035
1.57916
1.62843
1.63457
1.63413
1.63257
1.63008
1.62766
1.7169
1.71372
1.71039
1.70688
1.7034
1.70015
1.69693
1.69367
1.69031
1.68697
1.68358
1.6801
1.67652
1.67311
1.66989
1.66661
1.66325
1.65971
1.65615
1.65274
1.64938
1.64608
1.64281
1.63962
1.63642
1.6331
1.6297
1.62617
1.6228
1.61964
1.61652
1.61333
1.61005
1.60662
1.60335
1.60016
1.59701
1.594
1.59087
1.58793
1.58485
1.58179
1.5786
1.57545
1.57233
1.56948
1.56666
1.56375
1.56089
1.55778
1.55486
1.55191
1.54919
1.54632
1.54361
1.54068
1.53786
1.53499
1.5322
1.52949
1.52676
1.52417
1.5214
1.5189
1.51612
1.51352
1.51071
1.5082
1.50547
1.50303
1.50047
1.4979
1.49529
1.4927
1.49024
1.48752
1.4842
1.48075
1.48064
1.48441
1.50733
1.57191
1.62914
1.6395
1.63913
1.63759
1.63515
1.63288
1.7209
1.71759
1.71412
1.71074
1.70752
1.7043
1.70101
1.6977
1.69443
1.69108
1.68759
1.68404
1.68073
1.67753
1.67427
1.67089
1.66738
1.66395
1.66055
1.65717
1.65381
1.6506
1.64749
1.64431
1.64103
1.63757
1.63407
1.63078
1.6276
1.62442
1.62124
1.61791
1.61462
1.61141
1.60817
1.60497
1.60176
1.59884
1.59584
1.59282
1.58969
1.58651
1.58325
1.58025
1.57737
1.57445
1.5716
1.56851
1.5656
1.56257
1.55975
1.55678
1.55402
1.55112
1.54829
1.54544
1.54255
1.53975
1.53685
1.53419
1.5314
1.52894
1.52615
1.52355
1.52072
1.51808
1.51528
1.51278
1.51023
1.50766
1.50508
1.50244
1.49984
1.49721
1.49492
1.49226
1.48907
1.48527
1.48468
1.48727
1.50491
1.56319
1.62696
1.64401
1.64404
1.64267
1.64019
1.6377
1.72484
1.7214
1.71812
1.7149
1.71165
1.70831
1.70502
1.70178
1.69843
1.69493
1.69143
1.68818
1.68497
1.68169
1.6783
1.67491
1.67155
1.66814
1.6647
1.66134
1.65819
1.65509
1.65189
1.64857
1.64511
1.64175
1.63849
1.63527
1.63208
1.62879
1.62553
1.62235
1.61911
1.61584
1.61254
1.60949
1.60652
1.60353
1.60048
1.59731
1.59405
1.59096
1.58795
1.58497
1.58211
1.57907
1.57613
1.57313
1.57024
1.56719
1.56431
1.56139
1.55854
1.55574
1.55285
1.55001
1.54699
1.54418
1.5413
1.53879
1.53601
1.53343
1.53061
1.52788
1.52504
1.52242
1.5198
1.51719
1.51465
1.51198
1.50941
1.50666
1.5042
1.50155
1.49926
1.49663
1.49361
1.48958
1.4883
1.49005
1.50309
1.55365
1.62223
1.64707
1.64812
1.64722
1.64502
1.64241
1.72881
1.72557
1.72233
1.71902
1.71564
1.71239
1.70914
1.70579
1.70226
1.69887
1.69562
1.69237
1.68903
1.6856
1.68232
1.67897
1.67554
1.67208
1.6688
1.6657
1.66255
1.65932
1.65593
1.65252
1.64921
1.64593
1.64268
1.63939
1.63618
1.63305
1.62982
1.62655
1.62319
1.61991
1.61691
1.61398
1.61099
1.60783
1.60463
1.60153
1.59841
1.59531
1.59237
1.58936
1.58641
1.58345
1.58055
1.57754
1.57452
1.57145
1.5686
1.56583
1.56291
1.56008
1.55707
1.55418
1.55113
1.54849
1.5457
1.54308
1.5403
1.53754
1.53472
1.53198
1.52926
1.52651
1.52398
1.52125
1.51872
1.51595
1.51347
1.51066
1.50818
1.50551
1.50315
1.50063
1.49769
1.49363
1.49158
1.49264
1.50188
1.54368
1.61474
1.64868
1.65111
1.65062
1.64884
1.64646
1.7333
1.73001
1.72664
1.7232
1.71994
1.71665
1.71322
1.7097
1.70635
1.70312
1.69981
1.69641
1.69309
1.6898
1.68644
1.68296
1.6795
1.67629
1.67313
1.66995
1.66664
1.66324
1.65995
1.65663
1.65329
1.64991
1.64662
1.64349
1.64035
1.63714
1.63384
1.63042
1.62725
1.62425
1.62122
1.61808
1.61496
1.61191
1.60877
1.60562
1.60254
1.59944
1.59647
1.59357
1.59065
1.58767
1.58465
1.58149
1.5785
1.57573
1.57282
1.56993
1.56691
1.56406
1.56098
1.55816
1.5553
1.5526
1.5498
1.54701
1.54422
1.54142
1.53868
1.53581
1.53315
1.5303
1.52782
1.52505
1.52254
1.51969
1.51711
1.51437
1.5118
1.50918
1.50672
1.50423
1.5013
1.49748
1.49452
1.495
1.50133
1.53396
1.60409
1.64851
1.65363
1.65324
1.65173
1.64952
1.7379
1.73442
1.731
1.72772
1.72437
1.72089
1.71738
1.71412
1.71081
1.70744
1.70398
1.7007
1.69742
1.69399
1.69052
1.68708
1.68387
1.68068
1.67738
1.67402
1.6707
1.66741
1.66406
1.66065
1.65724
1.65399
1.65083
1.64764
1.64436
1.64092
1.6377
1.63461
1.6315
1.62839
1.62521
1.62205
1.61901
1.61592
1.61275
1.60952
1.60649
1.60356
1.6006
1.59764
1.59467
1.59156
1.58843
1.58551
1.58261
1.57974
1.57666
1.57376
1.57083
1.56787
1.56484
1.56201
1.55922
1.55641
1.55361
1.55078
1.54804
1.54512
1.54232
1.53934
1.53683
1.53407
1.53147
1.52861
1.52598
1.52321
1.52053
1.51787
1.51524
1.51268
1.51
1.50751
1.50457
1.50109
1.49739
1.49737
1.50145
1.52545
1.59068
1.6461
1.65576
1.65548
1.65413
1.65193
1.74247
1.73911
1.73578
1.73238
1.72882
1.72532
1.72208
1.71876
1.71524
1.71189
1.70857
1.7052
1.70177
1.69827
1.69498
1.69169
1.68839
1.68504
1.68162
1.67834
1.67499
1.67157
1.66808
1.66469
1.66153
1.65835
1.65507
1.65166
1.64831
1.6451
1.64192
1.63878
1.63551
1.63235
1.62935
1.62627
1.62303
1.61971
1.6166
1.61365
1.61064
1.60764
1.60463
1.60151
1.59839
1.59543
1.59248
1.58955
1.5865
1.58342
1.58054
1.57764
1.57458
1.5715
1.56867
1.56584
1.56297
1.56011
1.55738
1.55449
1.55162
1.54854
1.54585
1.54309
1.54043
1.53761
1.53485
1.53209
1.52935
1.52667
1.52388
1.52128
1.5185
1.51596
1.51307
1.5107
1.50788
1.50455
1.50041
1.49969
1.50216
1.51889
1.57573
1.63998
1.65765
1.65772
1.65649
1.65416
1.74764
1.7442
1.74067
1.73701
1.73358
1.73033
1.72698
1.72343
1.72006
1.71677
1.71326
1.70982
1.70639
1.70297
1.69969
1.69631
1.69292
1.68956
1.68623
1.68288
1.67934
1.67581
1.67255
1.66925
1.66593
1.66256
1.65919
1.65592
1.6527
1.64948
1.64614
1.64284
1.63981
1.63674
1.6335
1.63019
1.62702
1.62385
1.62078
1.61779
1.61474
1.61164
1.60856
1.6055
1.60243
1.59941
1.59638
1.59329
1.59033
1.58745
1.58445
1.58127
1.5782
1.57539
1.57255
1.56958
1.56674
1.56389
1.56103
1.558
1.55509
1.55228
1.54954
1.54674
1.54384
1.54111
1.53836
1.53566
1.53266
1.52998
1.5272
1.52469
1.52175
1.51918
1.51636
1.51383
1.5111
1.50796
1.50377
1.50196
1.50343
1.5145
1.56077
1.62983
1.65848
1.65986
1.65898
1.65671
1.75282
1.74918
1.74558
1.74223
1.73891
1.73548
1.73185
1.72848
1.72516
1.72162
1.71816
1.71481
1.71136
1.708
1.70461
1.70107
1.69774
1.69437
1.69087
1.68736
1.6839
1.68062
1.6773
1.67385
1.67044
1.66707
1.66379
1.66052
1.65714
1.65375
1.65058
1.64748
1.6443
1.64097
1.63763
1.6345
1.63136
1.62825
1.62515
1.62195
1.61883
1.61586
1.61275
1.60962
1.60653
1.60335
1.60026
1.59739
1.59447
1.59141
1.58816
1.5851
1.58226
1.57932
1.57632
1.57345
1.57065
1.56769
1.56461
1.5617
1.55891
1.5561
1.55313
1.5503
1.54756
1.54486
1.54185
1.53902
1.53615
1.53356
1.53071
1.528
1.52517
1.52249
1.51971
1.51699
1.51442
1.51146
1.50758
1.50447
1.50509
1.51202
1.54688
1.61662
1.65763
1.66177
1.66128
1.65938
1.7583
1.75467
1.75121
1.74773
1.74416
1.74057
1.73724
1.73387
1.73028
1.72673
1.7234
1.71994
1.71651
1.71311
1.70961
1.70621
1.70282
1.69929
1.69571
1.6923
1.68893
1.68556
1.682
1.67864
1.67541
1.67197
1.66852
1.66513
1.6618
1.65862
1.65543
1.65214
1.64868
1.64546
1.64237
1.63913
1.63581
1.63268
1.62959
1.62643
1.62335
1.62023
1.61693
1.61376
1.61075
1.60769
1.60468
1.60161
1.5984
1.59523
1.59232
1.58939
1.58636
1.58324
1.58038
1.57756
1.57454
1.57147
1.56858
1.56574
1.56276
1.55981
1.55702
1.55432
1.5514
1.54843
1.54545
1.54279
1.54
1.53714
1.53424
1.53152
1.52885
1.52594
1.52317
1.52045
1.51805
1.51498
1.5114
1.5074
1.50723
1.51147
1.53556
1.60052
1.65471
1.66419
1.66373
1.662
1.76377
1.76031
1.75688
1.7533
1.74979
1.74639
1.74287
1.73912
1.73557
1.73227
1.72878
1.72531
1.72188
1.71834
1.71491
1.71151
1.70795
1.70439
1.70101
1.6976
1.69404
1.69054
1.6872
1.68386
1.68044
1.67688
1.67359
1.67024
1.6669
1.66366
1.66023
1.65682
1.65368
1.65048
1.64706
1.64378
1.6407
1.63747
1.63427
1.63117
1.62795
1.62456
1.62147
1.61847
1.6153
1.61209
1.60906
1.60591
1.60271
1.59972
1.59672
1.59359
1.59048
1.58766
1.58474
1.58165
1.57855
1.57572
1.57281
1.56976
1.56678
1.56407
1.56125
1.55826
1.5552
1.55241
1.54963
1.54669
1.54372
1.54092
1.53829
1.53534
1.5325
1.52958
1.52707
1.52418
1.52166
1.51875
1.5154
1.51103
1.50981
1.51211
1.52764
1.58233
1.64746
1.66677
1.66678
1.66524
1.7701
1.76625
1.76244
1.75895
1.75548
1.75193
1.74824
1.74479
1.74149
1.73796
1.73436
1.73087
1.7273
1.72384
1.7204
1.71683
1.71336
1.70997
1.70649
1.70291
1.69937
1.69601
1.69264
1.68914
1.68559
1.68229
1.67904
1.67556
1.6721
1.66876
1.66539
1.66217
1.65886
1.65534
1.65208
1.64897
1.64571
1.64249
1.63927
1.6359
1.63264
1.62956
1.62645
1.62314
1.61988
1.61689
1.61378
1.61052
1.60743
1.60434
1.6011
1.59808
1.59524
1.59228
1.5891
1.58598
1.58312
1.58015
1.57705
1.57417
1.5714
1.56846
1.56537
1.56243
1.55966
1.55673
1.55369
1.55068
1.54804
1.54516
1.5423
1.53925
1.53663
1.53378
1.53103
1.5281
1.5255
1.52287
1.51961
1.51526
1.51264
1.51377
1.52332
1.56516
1.6348
1.66765
1.66976
1.66879
1.7752
1.77192
1.76861
1.76526
1.76161
1.75765
1.75409
1.75064
1.74704
1.74349
1.74014
1.73668
1.73315
1.7296
1.72595
1.72244
1.71905
1.71556
1.71198
1.70854
1.70518
1.70172
1.69805
1.69456
1.69131
1.68795
1.68443
1.68097
1.67773
1.6743
1.67083
1.66752
1.66408
1.66075
1.65758
1.65423
1.6509
1.6477
1.64436
1.64107
1.6379
1.63468
1.63127
1.62812
1.6251
1.62192
1.61853
1.61541
1.61238
1.6092
1.60604
1.60307
1.60003
1.59681
1.5938
1.59093
1.5879
1.5847
1.58181
1.57898
1.57601
1.57288
1.57003
1.56714
1.56413
1.56097
1.55821
1.55538
1.55249
1.54939
1.54657
1.54384
1.54102
1.53809
1.53518
1.53256
1.52974
1.52707
1.52383
1.52007
1.51618
1.51638
1.52195
1.55064
1.61837
1.66609
1.67309
1.67229
1.78293
1.77871
1.77441
1.77045
1.76701
1.76365
1.76031
1.75676
1.75307
1.7496
1.74602
1.74236
1.7388
1.73535
1.73195
1.72852
1.7249
1.72121
1.71782
1.71443
1.71091
1.70733
1.70392
1.70057
1.6971
1.69348
1.69011
1.68684
1.68345
1.67991
1.67647
1.67316
1.66977
1.66644
1.66309
1.65966
1.65633
1.65309
1.64986
1.64663
1.64319
1.63979
1.6367
1.6336
1.6303
1.6269
1.62381
1.62072
1.61745
1.61426
1.61133
1.60825
1.60497
1.6019
1.599
1.59593
1.59275
1.58984
1.58696
1.58382
1.58076
1.57792
1.57498
1.5718
1.56878
1.56597
1.56307
1.56005
1.55699
1.55427
1.55139
1.54851
1.54543
1.54283
1.53996
1.53717
1.53402
1.53156
1.5286
1.52505
1.52057
1.51968
1.52257
1.5405
1.59824
1.66061
1.67673
1.67637
1.78977
1.78537
1.78145
1.77764
1.77386
1.76988
1.76588
1.76243
1.75907
1.75564
1.75209
1.74847
1.74501
1.74153
1.73793
1.73426
1.73073
1.72735
1.72395
1.72035
1.71678
1.71345
1.71002
1.70644
1.70282
1.69948
1.69621
1.6927
1.68912
1.68586
1.68252
1.67897
1.6755
1.67225
1.66885
1.66541
1.66214
1.65879
1.65533
1.6521
1.6489
1.64567
1.64235
1.63883
1.63555
1.63251
1.6294
1.62607
1.62277
1.61977
1.61671
1.61347
1.61044
1.60743
1.60424
1.60103
1.59816
1.59526
1.59211
1.58899
1.58604
1.58304
1.57985
1.57695
1.57403
1.57109
1.56787
1.56504
1.5622
1.55941
1.55621
1.55341
1.55059
1.54782
1.54472
1.54192
1.53907
1.53634
1.53356
1.5302
1.52582
1.52341
1.52469
1.53527
1.57879
1.64793
1.67859
1.68038
1.7987
1.79473
1.78965
1.7842
1.77972
1.77615
1.77275
1.76932
1.76558
1.76161
1.75795
1.75447
1.7511
1.74762
1.74409
1.74065
1.73714
1.73349
1.72976
1.72631
1.72307
1.7197
1.71604
1.71253
1.70915
1.70566
1.702
1.69855
1.69537
1.692
1.68838
1.68504
1.68165
1.67807
1.67473
1.67147
1.66808
1.66454
1.66126
1.65808
1.65473
1.65132
1.64802
1.6447
1.64145
1.63813
)
;

boundaryField
{
    inlet
    {
        type            calculated;
        value           nonuniform 0();
    }
    outlet
    {
        type            calculated;
        value           nonuniform 0();
    }
    bottom
    {
        type            symmetryPlane;
    }
    top
    {
        type            symmetryPlane;
    }
    obstacle
    {
        type            calculated;
        value           nonuniform 0();
    }
    front
    {
        type            empty;
    }
    back
    {
        type            empty;
    }
    procBoundary44to36
    {
        type            processor;
        value           nonuniform List<scalar> 
89
(
1.61802
1.61474
1.61142
1.60793
1.60443
1.60099
1.59765
1.59446
1.59131
1.58832
1.58531
1.58219
1.57907
1.57585
1.57273
1.56986
1.56701
1.56414
1.56127
1.5582
1.55513
1.55214
1.54919
1.54635
1.54349
1.54059
1.53768
1.53475
1.53172
1.52875
1.52577
1.52292
1.5202
1.51745
1.51469
1.51184
1.50905
1.50615
1.50356
1.50088
1.49823
1.49563
1.49299
1.49047
1.48781
1.48544
1.48298
1.48064
1.47823
1.47585
1.4734
1.47094
1.46872
1.4668
1.46539
1.46435
1.46392
1.46402
1.46502
1.4669
1.46973
1.47377
1.47879
1.48494
1.49176
1.49877
1.50591
1.51323
1.5223
1.5374
1.57835
1.67062
1.74835
1.77158
1.77731
1.77936
1.78103
1.78369
1.7844
1.65638
1.6528
1.64926
1.64558
1.64174
1.63773
1.63379
1.63023
1.62683
1.62683
)
;
    }
    procBoundary44to37
    {
        type            processor;
        value           nonuniform List<scalar> 
18
(
1.76028
1.7066
1.63497
1.593
1.58634
1.58769
1.59204
1.59835
1.60601
1.61303
1.61937
1.62546
1.63102
1.63591
1.6403
1.64422
1.6474
1.64984
)
;
    }
    procBoundary44to43
    {
        type            processor;
        value           nonuniform List<scalar> 
26
(
1.6659
1.67184
1.67788
1.68373
1.68929
1.69454
1.69934
1.70366
1.70774
1.71199
1.71609
1.72002
1.72409
1.72819
1.73227
1.73654
1.74125
1.74602
1.75099
1.75637
1.76206
1.76726
1.77362
1.77906
1.78732
1.79464
)
;
    }
    procBoundary44to45
    {
        type            processor;
        value           nonuniform List<scalar> 9(1.6518 1.65415 1.65673 1.65942 1.66263 1.66628 1.67009 1.6745 1.67909);
    }
    procBoundary44to51
    {
        type            processor;
        value           uniform 1.80136;
    }
    procBoundary44to52
    {
        type            processor;
        value           nonuniform List<scalar> 
89
(
1.63475
1.63164
1.62866
1.6255
1.62212
1.61905
1.61611
1.61296
1.60972
1.60681
1.60376
1.60055
1.59746
1.59463
1.59151
1.5883
1.58525
1.58241
1.57926
1.57624
1.57336
1.57054
1.56742
1.56444
1.56165
1.5588
1.55583
1.5528
1.55005
1.54712
1.54432
1.54129
1.53874
1.53562
1.53177
1.52774
1.5279
1.53374
1.56262
1.63007
1.67737
1.68497
1.80201
1.80106
1.79825
1.79404
1.78943
1.78436
1.77925
1.77486
1.77145
1.76819
1.76485
1.76127
1.75742
1.75365
1.75018
1.74676
1.74323
1.73974
1.73637
1.73294
1.72929
1.72558
1.72221
1.71891
1.71538
1.71173
1.70839
1.70502
1.70144
1.69787
1.69461
1.6913
1.68774
1.6843
1.68092
1.67736
1.67403
1.67081
1.66751
1.66393
1.66049
1.65742
1.65412
1.65067
1.64733
1.63475
1.64393
)
;
    }
}


// ************************************************************************* //
