/*--------------------------------*- C++ -*----------------------------------*\
  =========                 |
  \\      /  F ield         | OpenFOAM: The Open Source CFD Toolbox
   \\    /   O peration     | Website:  https://openfoam.org
    \\  /    A nd           | Version:  7
     \\/     M anipulation  |
\*---------------------------------------------------------------------------*/
FoamFile
{
    version     2.0;
    format      ascii;
    class       surfaceScalarField;
    location    "5";
    object      phi;
}
// * * * * * * * * * * * * * * * * * * * * * * * * * * * * * * * * * * * * * //

dimensions      [0 3 -1 0 0 0 0];

internalField   nonuniform List<scalar> 
1155
(
0.00564787
-0.000843265
9.4456e-10
0.00652407
-0.000876196
-8.9625e-10
0.00741575
-0.000891682
-2.11607e-09
0.00831375
-0.000897994
-2.75439e-09
0.00919255
-0.000878799
-2.93929e-09
-0.000866136
-2.81817e-09
0.0100587
0.00572752
-0.00167797
0.00659049
-0.00173917
0.00746645
-0.00176765
0.00834858
-0.00178012
0.00921414
-0.00174436
-0.0017217
0.0100697
0.00587087
-0.00249687
0.00671
-0.0025783
0.00755777
-0.00261541
0.00841137
-0.00263373
0.00925301
-0.00258599
-0.00255807
0.0100894
0.00605178
-0.00329483
0.00686057
-0.00338708
0.00767289
-0.00342774
0.00849059
-0.00345142
0.00930188
-0.00339728
-0.00336992
0.0101137
0.00624239
-0.00406876
0.0070185
-0.00416319
0.0077935
-0.00420274
0.00857345
-0.00423137
0.00935255
-0.00417638
-0.00415554
0.0101382
0.00642043
-0.00481719
0.0071646
-0.00490737
0.00790443
-0.00494257
0.00864912
-0.00497606
0.0093979
-0.00492517
-0.0049162
0.0101586
0.00657262
-0.00553975
0.00728727
-0.00562201
0.00799623
-0.00565154
0.00871056
-0.00569039
0.00943313
-0.00564774
-0.00565507
0.010172
0.0066941
-0.00623685
0.00738221
-0.00631012
0.00806519
-0.00633451
0.00875474
-0.00637994
0.00945594
-0.00634894
-0.00637602
0.0101769
0.00678562
-0.00690956
0.00745026
-0.00697476
0.00811175
-0.006996
0.00878169
-0.00704988
0.0094661
-0.00703335
-0.00708279
0.0101729
0.0068507
-0.00755951
0.00749478
-0.00761884
0.00813862
-0.00763984
0.00879319
-0.00770446
0.00946461
-0.00770478
-0.00777845
0.0101603
0.00689364
-0.0081887
0.00751988
-0.00824508
0.00814923
-0.00826918
0.0087917
-0.00834693
0.00945301
-0.00836609
-0.00846533
0.0101399
0.00691849
-0.00879931
0.00752943
-0.00885601
0.00814683
-0.00888659
0.00877962
-0.00897972
0.00943288
-0.00901934
-0.00914502
0.0101126
0.00692874
-0.00939352
0.00752664
-0.0094539
0.00813415
-0.0094941
0.00875897
-0.00960454
0.00940555
-0.00966593
-0.00981856
0.0100791
0.00692724
0.00751408
-0.0100407
0.00811326
-0.0100933
0.00873127
-0.0102225
0.00937208
-0.0103067
0.0100401
0.00749372
-0.0106182
0.0080857
-0.0106853
0.00869764
-0.0108345
-0.0109423
0.00746699
-0.0111874
0.00805253
-0.0112708
0.00865884
-0.0114408
0.00743492
-0.0117494
0.00801445
-0.0118503
0.00739818
-0.0123047
0.0117494
0.00743492
0.0111875
0.0112708
0.00746699
0.0106182
0.00805253
0.0106853
0.0108345
0.00749372
0.0100408
0.00808571
0.0100933
0.00869764
0.0102225
0.0103067
0.00692724
0.00939352
0.00751408
0.00945391
0.00811326
0.00949411
0.00873127
0.00960454
0.00937209
0.00966593
0.00981857
0.00692874
0.00879931
0.00752664
0.00885601
0.00813415
0.0088866
0.00875897
0.00897972
0.00940555
0.00901934
0.00914502
0.0100791
0.0069185
0.0081887
0.00752943
0.00824508
0.00814684
0.00826919
0.00877962
0.00834693
0.00943288
0.00836609
0.00846533
0.0101126
0.00689364
0.00755951
0.00751988
0.00761884
0.00814923
0.00763984
0.0087917
0.00770446
0.00945301
0.00770478
0.00777845
0.0101399
0.0068507
0.00690957
0.00749478
0.00697477
0.00813862
0.006996
0.00879319
0.00704989
0.00946461
0.00703336
0.00708279
0.0101603
0.00678562
0.00623685
0.00745026
0.00631013
0.00811175
0.00633452
0.00878169
0.00637995
0.0094661
0.00634894
0.00637603
0.0101729
0.0066941
0.00553975
0.00738222
0.00562201
0.00806519
0.00565155
0.00875474
0.00569039
0.00945594
0.00564774
0.00565507
0.0101769
0.00657262
0.00481719
0.00728727
0.00490737
0.00799624
0.00494258
0.00871056
0.00497607
0.00943313
0.00492517
0.0049162
0.010172
0.00642043
0.00406876
0.0071646
0.0041632
0.00790443
0.00420274
0.00864912
0.00423138
0.0093979
0.00417639
0.00415554
0.0101586
0.00624239
0.00329483
0.0070185
0.00338709
0.0077935
0.00342774
0.00857345
0.00345143
0.00935255
0.00339729
0.00336993
0.0101382
0.00605178
0.00249687
0.00686057
0.0025783
0.00767289
0.00261542
0.00849059
0.00263373
0.00930188
0.002586
0.00255807
0.0101137
0.00587087
0.00167796
0.00671
0.00173917
0.00755777
0.00176765
0.00841138
0.00178013
0.00925301
0.00174436
0.0017217
0.0100894
0.00572752
0.000843264
0.00659049
0.000876198
0.00746646
0.000891686
0.00834858
0.000898
0.00921414
0.000878805
0.000866142
0.0100697
0.00564787
0.00652407
0.00741575
0.00831375
0.00919255
0.0100587
0.010187
-0.000128344
-1.93756e-09
0.0102832
-9.61749e-05
-1.76981e-09
0.0103544
-7.11585e-05
-1.59916e-09
0.010407
-5.25873e-05
-1.43789e-09
0.010446
-3.90203e-05
-1.29285e-09
0.0104751
-2.90885e-05
-1.16559e-09
0.0104968
-2.1748e-05
-1.05627e-09
0.0105131
-1.62579e-05
-9.6169e-10
0.0105251
-1.20651e-05
-8.79801e-10
0.0105339
-8.74153e-06
-8.08082e-10
0.0105399
-6.01455e-06
-7.46475e-10
0.0105436
-3.73442e-06
-6.89059e-10
0.0105454
-1.79386e-06
-6.42215e-10
0.0105455
-8.8489e-08
-6.20319e-10
1.36512e-06
-5.46832e-10
0.0101917
-0.000250298
0.010284
-0.000188507
0.010353
-0.000140124
0.0104043
-0.000103981
0.0104427
-7.74161e-05
0.0104715
-5.78629e-05
0.0104931
-4.33482e-05
0.0105093
-3.24566e-05
0.0105214
-2.41166e-05
0.0105301
-1.74927e-05
0.0105362
-1.20522e-05
0.0105399
-7.5002e-06
0.0105418
-3.62409e-06
0.0105419
-2.18215e-07
2.6883e-06
0.0101997
-0.000360629
0.010285
-0.000273764
0.0103499
-0.000205009
0.010399
-0.00015313
0.0104362
-0.000114627
0.0104644
-8.60353e-05
0.0104857
-6.46626e-05
0.0105018
-4.85399e-05
0.0105138
-3.61408e-05
0.0105226
-2.62622e-05
0.0105287
-1.81346e-05
0.0105325
-1.13274e-05
0.0105344
-5.52581e-06
0.0105346
-4.2894e-07
3.92871e-06
0.0102092
-0.000456064
0.0102852
-0.000349766
0.0103446
-0.000264458
0.0103907
-0.000199243
0.0104263
-0.00015021
0.0104537
-0.000113371
0.0104746
-8.55763e-05
0.0104905
-6.44613e-05
0.0105025
-4.81285e-05
0.0105113
-3.50607e-05
0.0105174
-2.4285e-05
0.0105213
-1.52468e-05
0.0105234
-7.53469e-06
0.0105237
-7.61142e-07
5.04506e-06
0.0102176
-0.000535509
0.0102834
-0.000415544
0.0103367
-0.000317752
0.0103793
-0.000241841
0.0104129
-0.000183871
0.0104393
-0.0001397
0.0104597
-0.000106002
0.0104754
-8.01856e-05
0.0104874
-6.00745e-05
0.0104962
-4.39009e-05
0.0105024
-3.0527e-05
0.0105065
-1.92896e-05
0.0105086
-9.68674e-06
0.0105091
-1.25456e-06
5.99583e-06
0.0102228
-0.00059972
0.0102784
-0.000471218
0.0103255
-0.000364767
0.0103644
-0.000280752
0.010396
-0.000215464
0.0104212
-0.000164922
0.0104411
-0.000125885
0.0104566
-9.56907e-05
0.0104685
-7.19789e-05
0.0104774
-5.27972e-05
0.0104837
-3.68852e-05
0.0104879
-2.34871e-05
0.0104903
-1.2018e-05
0.010491
-1.9487e-06
6.73951e-06
0.0102229
-0.000650657
0.0102694
-0.00051769
0.0103105
-0.000405843
0.0103458
-0.000316058
0.0103753
-0.000244973
0.0103994
-0.000189
0.0104187
-0.000145197
0.010434
-0.000110967
0.0104458
-8.3847e-05
0.0104548
-6.17664e-05
0.0104613
-4.33852e-05
0.0104657
-2.7871e-05
0.0104682
-1.45644e-05
0.0104692
-2.88288e-06
7.23462e-06
0.010217
-0.000690784
0.0102556
-0.000556281
0.0102914
-0.000441607
0.0103233
-0.000348016
0.0103508
-0.000272478
0.0103738
-0.000211946
0.0103925
-0.000163936
0.0104076
-0.000126016
0.0104194
-9.56887e-05
0.0104285
-7.08276e-05
0.0104351
-5.00533e-05
0.0104398
-3.24731e-05
0.0104425
-1.73622e-05
0.0104438
-4.09602e-06
7.43971e-06
0.0102046
-0.000722522
0.0102367
-0.000588412
0.0102679
-0.000472807
0.0102969
-0.000376978
0.0103225
-0.000298121
0.0103444
-0.00023381
0.0103626
-0.00018212
0.0103774
-0.00014085
0.0103893
-0.000107518
0.0103984
-8.00015e-05
0.0104053
-5.69168e-05
0.0104101
-3.73257e-05
0.0104132
-2.04474e-05
0.0104148
-5.62699e-06
7.31344e-06
0.0101857
-0.000747936
0.0102127
-0.000615393
0.01024
-0.000500188
0.0102664
-0.000403326
0.0102903
-0.000322075
0.0103112
-0.000254662
0.0103289
-0.00019978
0.0103435
-0.000155485
0.0103553
-0.000119354
0.0103646
-8.9311e-05
0.0103717
-6.40037e-05
0.0103769
-4.2461e-05
0.0103803
-2.38561e-05
0.0103822
-7.51439e-06
6.81443e-06
0.0101606
-0.000768618
0.0101835
-0.000638312
0.0102077
-0.000524413
0.0102318
-0.000427426
0.0102543
-0.000344518
0.0102742
-0.000274583
0.0102914
-0.000216956
0.0103058
-0.000169946
0.0103177
-0.000131216
0.0103271
-9.87807e-05
0.0103345
-7.13426e-05
0.0103399
-4.79117e-05
0.0103437
-2.76243e-05
0.010346
-9.79665e-06
5.90143e-06
0.0101297
-0.000785714
0.0101494
-0.000658012
0.010171
-0.000546033
0.0101932
-0.0004496
0.0102143
-0.000365615
0.0102333
-0.000293659
0.0102501
-0.000233692
0.0102644
-0.000184258
0.0102763
-0.000143127
0.010286
-0.000108436
0.0102936
-7.8963e-05
0.0102994
-5.37103e-05
0.0103035
-3.17882e-05
0.0103062
-1.25116e-05
4.53266e-06
0.0100934
-0.000800011
0.0101105
-0.000675115
0.0101299
-0.000565487
0.0101505
-0.000470123
0.0101704
-0.000385516
0.0101887
-0.00031197
0.010205
-0.000250033
0.0102192
-0.000198451
0.0102312
-0.000155113
0.0102411
-0.000118305
0.010249
-8.68947e-05
0.0102552
-5.98895e-05
0.0102598
-3.63834e-05
0.010263
-1.56972e-05
2.66608e-06
0.0100521
0.0100671
0.0100847
0.0101038
0.0101226
0.0101402
0.0101562
0.0101703
0.0101824
0.0101925
0.0102008
0.0102074
0.0102124
0.0102161
0.0101402
0.000311971
0.0101562
0.000250035
0.0101703
0.000198453
0.0101824
0.000155115
0.0101925
0.000118307
0.0102008
8.68961e-05
0.0102074
5.98908e-05
0.0102124
3.63847e-05
0.0102161
1.56983e-05
-2.66505e-06
0.0100934
0.000785717
0.0101105
0.000658014
0.0101299
0.000546036
0.0101505
0.000449603
0.0101704
0.000365617
0.0101887
0.000293661
0.010205
0.000233694
0.0102192
0.00018426
0.0102312
0.000143129
0.0102411
0.000108438
0.010249
7.89644e-05
0.0102552
5.37116e-05
0.0102598
3.17894e-05
0.010263
1.25127e-05
-4.53162e-06
0.0101297
0.000768621
0.0101494
0.000638315
0.010171
0.000524415
0.0101932
0.000427428
0.0102143
0.00034452
0.0102333
0.000274585
0.0102501
0.000216958
0.0102644
0.000169947
0.0102763
0.000131217
0.010286
9.87822e-05
0.0102936
7.1344e-05
0.0102994
4.7913e-05
0.0103035
2.76255e-05
0.0103062
9.79782e-06
-5.90038e-06
0.0101606
0.000747939
0.0101835
0.000615396
0.0102077
0.00050019
0.0102318
0.000403328
0.0102543
0.000322077
0.0102742
0.000254664
0.0102914
0.000199782
0.0103058
0.000155487
0.0103177
0.000119355
0.0103271
8.93125e-05
0.0103345
6.40051e-05
0.0103399
4.24624e-05
0.0103437
2.38573e-05
0.010346
7.51556e-06
-6.81337e-06
0.0101857
0.000722526
0.0102127
0.000588415
0.01024
0.00047281
0.0102664
0.00037698
0.0102903
0.000298123
0.0103112
0.000233812
0.0103289
0.000182122
0.0103435
0.000140851
0.0103553
0.00010752
0.0103646
8.0003e-05
0.0103717
5.69182e-05
0.0103769
3.7327e-05
0.0103803
2.04487e-05
0.0103822
5.62818e-06
-7.31237e-06
0.0102046
0.000690787
0.0102367
0.000556284
0.0102679
0.00044161
0.0102969
0.000348018
0.0103225
0.00027248
0.0103444
0.000211948
0.0103626
0.000163938
0.0103774
0.000126018
0.0103893
9.56904e-05
0.0103984
7.08291e-05
0.0104053
5.00547e-05
0.0104101
3.24745e-05
0.0104132
1.73635e-05
0.0104148
4.09721e-06
-7.43864e-06
0.010217
0.00065066
0.0102556
0.000517693
0.0102914
0.000405846
0.0103233
0.000316061
0.0103508
0.000244975
0.0103738
0.000189002
0.0103925
0.000145199
0.0104076
0.000110969
0.0104194
8.38487e-05
0.0104285
6.1768e-05
0.0104351
4.33866e-05
0.0104398
2.78723e-05
0.0104425
1.45657e-05
0.0104438
2.88409e-06
-7.23354e-06
0.0102229
0.000599724
0.0102694
0.000471221
0.0103105
0.00036477
0.0103458
0.000280755
0.0103753
0.000215467
0.0103994
0.000164925
0.0104187
0.000125887
0.010434
9.56926e-05
0.0104458
7.19806e-05
0.0104548
5.27988e-05
0.0104613
3.68867e-05
0.0104657
2.34885e-05
0.0104682
1.20192e-05
0.0104692
1.94991e-06
-6.73842e-06
0.0102228
0.000535513
0.0102784
0.000415548
0.0103255
0.000317755
0.0103644
0.000241844
0.010396
0.000183874
0.0104212
0.000139702
0.0104411
0.000106004
0.0104566
8.01875e-05
0.0104685
6.00762e-05
0.0104774
4.39024e-05
0.0104837
3.05284e-05
0.0104879
1.9291e-05
0.0104903
9.68801e-06
0.010491
1.25578e-06
-5.99475e-06
0.0102176
0.000456068
0.0102834
0.00034977
0.0103367
0.000264461
0.0103793
0.000199246
0.0104129
0.000150212
0.0104393
0.000113373
0.0104597
8.55783e-05
0.0104754
6.44632e-05
0.0104874
4.81302e-05
0.0104962
3.50623e-05
0.0105024
2.42864e-05
0.0105065
1.52482e-05
0.0105086
7.53596e-06
0.0105091
7.62381e-07
-5.04398e-06
0.0102092
0.000360632
0.0102852
0.000273768
0.0103446
0.000205012
0.0103907
0.000153133
0.0104263
0.000114629
0.0104537
8.60376e-05
0.0104746
6.46647e-05
0.0104905
4.85419e-05
0.0105025
3.61426e-05
0.0105113
2.62638e-05
0.0105174
1.81361e-05
0.0105213
1.13287e-05
0.0105234
5.52709e-06
0.0105237
4.30189e-07
-3.92763e-06
0.0101997
0.000250301
0.010285
0.000188511
0.0103499
0.000140128
0.010399
0.000103984
0.0104362
7.74187e-05
0.0104644
5.78652e-05
0.0104857
4.33503e-05
0.0105018
3.24585e-05
0.0105138
2.41183e-05
0.0105226
1.74943e-05
0.0105287
1.20536e-05
0.0105325
7.50158e-06
0.0105344
3.62537e-06
0.0105346
2.19451e-07
-2.68721e-06
0.0101917
0.000128348
0.010284
9.61785e-05
0.010353
7.11617e-05
0.0104043
5.25902e-05
0.0104427
3.90229e-05
0.0104715
2.90908e-05
0.0104931
2.17501e-05
0.0105093
1.62598e-05
0.0105214
1.20669e-05
0.0105301
8.74314e-06
0.0105362
6.01604e-06
0.0105399
3.7358e-06
0.0105418
1.79514e-06
0.0105419
8.9732e-08
-1.36403e-06
0.010187
0.0102832
0.0103544
0.010407
0.010446
0.0104751
0.0104968
0.0105131
0.0105251
0.0105339
0.0105399
0.0105436
0.0105454
0.0105455
)
;

boundaryField
{
    inlet
    {
        type            calculated;
        value           nonuniform 0();
    }
    outlet
    {
        type            calculated;
        value           nonuniform 0();
    }
    cylinder
    {
        type            calculated;
        value           nonuniform 0();
    }
    top
    {
        type            symmetryPlane;
        value           nonuniform 0();
    }
    bottom
    {
        type            symmetryPlane;
        value           nonuniform 0();
    }
    defaultFaces
    {
        type            empty;
        value           nonuniform 0();
    }
    procBoundary29to21
    {
        type            processor;
        value           nonuniform List<scalar> 
26
(
-0.0123047
0.00739818
-0.0118503
0.00801445
-0.0114408
0.00865884
-0.0109423
0.00933323
-0.0104866
0.0100401
-0.000329592
-0.000266024
-0.000212555
-0.000167201
-0.000128418
-9.51697e-05
-6.64833e-05
-4.14471e-05
-1.93905e-05
2.56067e-07
-0.000800013
-0.000675117
-0.000565489
-0.000470125
-0.0101226
-0.000385518
)
;
    }
    procBoundary29to28
    {
        type            processor;
        value           nonuniform List<scalar> 
39
(
-0.00480461
-0.00489282
-0.00505197
-0.00525383
-0.00546846
-0.00567199
-0.00585006
-0.005997
-0.00611291
-0.00620076
-0.00626446
-0.00630788
-0.00633453
-0.00634738
-0.00997338
-0.00691629
-0.00689772
-0.00687292
-0.00684295
-0.00680852
-0.00684295
-0.00687293
-0.00689772
-0.00691629
-0.00997338
-0.00634738
-0.00633453
-0.00630788
-0.00626446
-0.00620076
-0.00611291
-0.005997
-0.00585006
-0.00567199
-0.00546845
-0.00525383
-0.00505197
-0.00489282
-0.00480461
)
;
    }
    procBoundary29to30
    {
        type            processor;
        value           nonuniform List<scalar> 
26
(
0.0105442
0.0105406
0.0105334
0.0105226
0.0105082
0.0104902
0.0104687
0.0104436
0.0104149
0.0103827
0.0103469
0.0103076
0.0102186
0.0102648
0.0103076
0.0103469
0.0103827
0.0104149
0.0104436
0.0104687
0.0104902
0.0105082
0.0105226
0.0105334
0.0105406
0.0105442
)
;
    }
    procBoundary29to37
    {
        type            processor;
        value           nonuniform List<scalar> 
25
(
-0.0104866
0.00933323
0.00928954
-0.011573
0.00861542
-0.0120418
0.00797197
-0.0124241
0.00735723
-0.0128534
-0.000812031
-0.000690067
-0.000583108
-0.000489215
-0.000404349
-0.000329591
-0.000266022
-0.000212553
-0.0001672
-0.000128416
-9.51683e-05
-6.6482e-05
-4.14459e-05
-1.93894e-05
2.57084e-07
)
;
    }
    procBoundary29to38
    {
        type            processor;
        value           nonuniform List<scalar> 2(0.0102648 0.0102186);
    }
}


// ************************************************************************* //
