/*--------------------------------*- C++ -*----------------------------------*\
  =========                 |
  \\      /  F ield         | OpenFOAM: The Open Source CFD Toolbox
   \\    /   O peration     | Website:  https://openfoam.org
    \\  /    A nd           | Version:  7
     \\/     M anipulation  |
\*---------------------------------------------------------------------------*/
FoamFile
{
    version     2.0;
    format      ascii;
    class       volScalarField;
    location    "1.067";
    object      T;
}
// * * * * * * * * * * * * * * * * * * * * * * * * * * * * * * * * * * * * * //

dimensions      [0 2 -2 0 0 0 0];

internalField   nonuniform List<scalar> 
12359
(
-1.53522e-74
-3.86496e-61
-6.75922e-201
-7.34622e-41
3.38749e-69
-2.18606e-27
1.46429e-22
-1.42236e-24
5.51915e-17
4.05658e-30
2.1866e-19
-7.64785e-13
0.272579
-1.29222e-37
-7.33196e-43
1.49264e-05
0.00275249
2.88751e-110
1.69669e-114
1.08353e-51
-6.58125e-35
1.10381e-14
4.35458e-56
5.75702e-48
1.35959e-58
-2.4757e-53
-2.54063e-145
5.36139e-148
2.58576e-118
-4.52036e-137
-1.19159e-132
2.52393e-162
7.57114e-179
5.5176e-140
-2.06976e-190
-2.59954e-129
1.09117e-89
-6.54132e-77
-1.83306e-72
5.31338e-82
-8.70926e-64
-2.14345e-79
-7.49353e-98
-1.43553e-99
-6.53222e-124
-1.47285e-121
2.01965e-126
1.54497e-134
-1.14859e-115
2.50147e-143
-4.40926e-151
2.41323e-156
3.03943e-165
-1.58589e-107
2.94213e-170
1.84565e-176
3.22601e-102
-2.37113e-181
3.73064e-184
-2.24182e-187
-3.35325e-173
-3.17669e-195
-5.42321e-154
10.1112
1.16199e-105
-1.20214e-33
-2.25705e-92
-4.4789e-159
-1.2421e-87
2.52346e-08
111.748
2.30208e-66
-2.11336e-203
-8.30575e-85
1.07951e-45
1.2959e-192
-1.93601e-167
6.38233e-198
5.62796e-95
-1.80383e-10
-1.59435e-26
-2.57717e-113
7.3421e-246
-8.86499e-73
0.00193275
3.44293e-67
-1.31437e-111
2.64785e-158
1.10871
0.00062892
2.93235e-216
3.02442
4.48135e-218
-2.37026e-95
-2.92443e-76
5.88848e-45
-4.15227e-99
2.65501e-95
1.42799e-47
1.82746e-60
3.89164e-22
-3.72803e-214
9.14525e-68
31.1035
-3.87493e-120
5.25693e-26
4.07496e-210
0.00252296
1.17132e-75
4.9808e-27
-3.01127e-101
-4.44797e-113
-1.52704e-30
1.48398e-25
-6.53777e-77
-6.89202e-142
1.17263e-24
-2.14883e-112
3.77958
-7.43565e-244
-2.70303e-102
2.84181e-22
6.46001e-157
1.67731e-31
-1.74736e-111
-1.79037e-132
4.30405e-16
-4.54468e-72
-2.36205e-199
-2.21977e-112
1.75118e-141
2.99302e-05
0.000849686
0.000606513
1.55302e-212
3.59733e-32
-2.89912e-141
2.5157e-33
8.43891e-211
6.16682e-17
-1.94481e-234
-1.3805e-72
3.36038e-34
-1.84296e-210
4.25241e-17
3.62663e-27
-1.45006e-245
0.000804717
-1.61557e-119
3.97509e-26
2.77915e-42
1.95342e-211
1.30938e-33
2.93261e-155
-1.40327e-222
119.33
7.53616e-23
2.95995e-05
-4.99057e-100
-2.49784e-162
2.11526e-32
-1.05331e-160
3.695e-31
3.70115e-33
-1.41268e-233
-7.53792e-134
4.51455e-33
4.84542e-23
7.45599e-35
0.997818
2.87042e-196
4.30707e-194
1.17637e-35
2.49763e-60
-1.24016e-121
2.51975e-17
2.60891e-120
1.3006e-121
-2.52756e-30
3.1622e-18
-6.07406e-37
1.4184e-220
-1.98677e-198
-1.61594e-112
8.75703e-49
1.5065e-15
-1.62106e-94
-9.76832e-80
1.18544e-41
-5.0457e-94
-2.06286e-78
3.39617e-46
6.097e-48
4.03565e-154
2.18212e-26
42.757
6.77315e-57
-3.95096e-94
1.05976e-33
-1.90224e-111
5.63023e-26
5.02462e-42
-1.54019e-60
4.28448e-27
6.11406e-20
2.28339e-220
5.74631e-19
-2.35057e-61
1.08633e-26
-2.29111e-102
4.68737e-228
1.52883e-12
2.45169e-12
154.261
4.36792e-15
8.51045e-207
-2.70603e-94
-4.62642e-78
-8.84412e-94
8.26731e-72
6.70194e-26
-1.76138e-103
2.58371e-32
3.13773
-1.81614e-112
1.46949e-227
1.1009e-70
5.49929e-77
1.07018e-18
-5.32242e-92
-2.7667e-91
-9.70291e-235
2.13366e-17
2.80489e-55
-5.10203e-80
1.807e-56
-1.51911e-241
9.4276e-32
-8.94957e-79
0.000102386
-4.36499e-225
3.3368e-64
-1.05164e-86
6.15391e-10
1.14553e-30
0.00119283
2.00368e-185
1.68429e-27
4.10073e-127
3.47233e-48
1.22006e-17
7.44921e-80
2.53635e-124
-1.92469e-91
1.36918
125.448
-3.55419e-241
-1.00562e-106
1.49948
192.63
1.79024e-59
4.36954e-31
1.70783e-20
6.85931e-27
4.83102e-62
58.0221
3.79116
2.45608e-29
-4.7969e-108
2.30722e-32
5.36425e-35
1.43986e-48
3.71043e-34
-7.43817e-93
-1.61873e-104
2.53755e-227
-8.3174e-106
9.62826
4.22454e-29
1.01481e-194
1.19628e-211
1.32441e-26
6.25691e-106
6.40991e-93
1.73478e-65
3.51246e-237
1.18802e-20
-4.13595e-213
-5.92485e-213
5.08351e-164
5.82469e-32
-5.05409e-115
51.7258
4.50711e-212
1.98953e-209
7.21657e-67
-1.32173e-127
9.43259e-27
-6.68448e-81
5.68419e-154
7.92359e-216
8.71621
1.13341e-19
6.81495e-217
-1.46431e-93
-3.65438e-82
-9.52953e-126
-3.00311e-140
2.58631e-143
-1.34979e-123
-5.87255e-112
-8.30977e-16
-3.00572e-126
-2.76689e-132
3.15307e-78
4.26925e-32
1.83918
1.04053e-123
-8.57606e-52
5.77487e-06
3.50739e-212
1.52467e-41
-2.15486e-192
4.24214e-56
-5.12308e-209
5.2699e-122
8.88387e-16
1.81955e-38
3.55956e-16
3.16108e-94
-8.74321e-87
5.94383e-48
9.51445e-44
-9.93823e-86
3.05282e-48
2.20672e-48
5.45318e-176
-2.07969e-168
-7.34937e-169
-3.53871e-168
-1.19981e-167
0.000420221
-2.03846e-236
8.52212e-25
1.64676e-32
5.539e-51
2.81638e-32
6.70651e-38
2.65752e-67
4.00437e-58
6.04966e-38
6.63211e-59
1.59028e-51
1.44764e-29
6.90685e-29
6.41813e-30
-1.24743e-71
2.5013e-14
-3.71178e-74
2.43774e-74
3.3964e-34
8.2243e-20
-5.15345e-117
-4.5125e-169
1.759e-56
-1.16319e-170
-2.57746e-113
172.189
19.002
-2.2539e-114
-4.13274e-208
-2.55647e-213
-5.22166e-222
1.65019e-38
-6.3828e-221
2.55868e-222
1.38683
2.01015e-33
0.000477966
-1.65273e-116
2.23416e-28
2.19807e-107
-1.43876e-85
5.65336e-26
3.38387e-57
-2.6046e-38
1.64174e-58
1.38696e-116
2.46296e-193
8.27254e-34
2.81631e-28
8.85352e-115
1.86197e-11
3.33875e-26
8.71613e-45
1.34249e-40
2.5336e-34
-6.28259e-207
10.3021
1.50194e-13
-2.61682e-115
2.01494e-10
1.43975e-75
-1.38377e-232
6.48057e-233
-1.6447e-223
0.000895083
1.1084e-20
1.19792e-49
2.77999e-42
7.94121e-43
-6.72241e-75
-4.75084e-37
6.88959e-42
5.53333e-09
1.8017
4.58786e-11
1.59723e-50
6.84554e-31
3.06081e-74
4.53378e-27
3.12412e-62
3.72699e-55
-1.53887e-140
1.25336e-63
4.0155e-36
-8.73728e-220
182.808
2.2753e-91
1.64691
4.09959e-29
2.41072e-102
7.83138e-29
1.03063
3.51416e-36
1.20668e-56
5.94095e-45
4.40535e-28
2.75837e-26
-4.88045e-109
-1.22766e-227
2.08217e-23
1.29162e-207
1.24947e-05
3.34228e-140
-1.60763e-53
3.8443e-34
9.70155e-90
0.0103752
5.07431e-24
-1.46845e-62
-2.886e-109
5.10536e-05
5.73183e-181
-1.11248e-119
1.59417e-14
-9.0536e-207
-3.6334e-109
-1.46049e-120
1.29546e-07
18.8743
-4.38286e-74
6.31293e-163
-5.3286e-32
3.64323e-35
1.07975e-41
2.57649e-32
1.27682e-34
1.25197e-174
-1.6532e-223
8.98242e-39
3.65842e-214
3.54236e-35
3.42005e-42
1.55464e-27
4.13953e-123
1.8497e-24
4.5827e-13
2.71571e-139
-2.74198e-75
4.59511e-114
-1.43733e-28
2.91643e-14
1.3353e-208
1.80543e-37
5.60698e-36
1.15927e-76
2.64859e-36
-2.1115e-139
6.87292e-21
9.8965e-59
1.04711e-30
7.22422e-28
3.97197e-173
-5.50714e-76
9.83149e-10
0.00282516
1.11465e-215
3.90286e-54
4.724e-10
1.8462e-39
0.807246
-1.66917e-223
3.07159e-141
2.41812e-179
2.53022e-32
2.77086e-59
-2.37449e-70
-5.82618e-138
1.46051e-39
2.51444e-53
-5.79269e-59
2.05221e-98
0.000317409
5.39523e-202
0.000728747
9.26814e-160
151.996
1.21331e-57
1.92296e-10
2.0127e-184
3.79831e-124
4.8841e-31
-4.20621e-114
2.38271e-155
2.02935e-97
1.2265e-57
7.80599e-58
5.34773e-12
8.56239e-23
7.41576e-23
-1.2793e-246
-6.56568e-114
2.62036e-40
0.00390162
2.27237e-246
-4.50152e-198
2.57663e-35
2.78156e-177
2.60041e-16
1.2485
107.909
8.61312e-245
-1.75997e-75
8.37157e-17
-2.99688e-67
-4.36198e-122
91.7748
-1.42598e-200
2.16904e-23
4.88103e-33
1.74675e-76
-1.5088e-124
1.91423e-152
3.40414e-91
6.0017e-33
2.14412e-59
-3.05722e-74
9.01408e-243
-1.64081e-198
4.89777e-62
-1.24119e-119
4.57562e-27
1.62846e-32
4.92991e-163
9.05563e-198
5.14825e-29
175.174
-1.77421e-133
3.07583e-09
-8.19343e-215
2.06154e-73
1.62434e-23
3.94763e-39
2.43522e-18
6.89989e-28
1.93517e-58
1.80143e-29
-2.79075e-229
-3.00734e-190
2.37691e-42
6.7319e-67
2.12066e-59
1.77489e-68
-1.31071e-222
1.1801e-194
-5.06155e-132
4.0667e-46
1.10814e-25
-1.55593e-32
3.25888e-90
-6.9784e-31
1.49469e-34
2.38951e-55
-6.42701e-30
-9.81407e-55
2.08337
5.9846e-33
1.75156e-52
3.414e-28
4.11282e-191
1.05895e-22
1.18669e-30
7.34789e-247
-8.85627e-208
2.22554e-176
-7.94877e-183
5.8511e-07
6.86882e-55
7.76997e-83
-8.87909e-32
1.96399e-96
1.04532e-15
3.93854e-40
1.38201e-32
-4.64578e-131
1.42836e-10
-2.8048e-223
-2.92675e-46
-5.65943e-110
8.362e-19
-3.001e-29
8.81518e-64
1.25375e-54
9.2589
1.67789e-35
1.98869e-13
6.65734e-63
1.8636e-11
0.594282
-4.26038e-168
-3.07331e-116
-1.7996e-224
2.72171e-08
-1.30563e-116
2.99473e-59
0.00859875
-6.92488e-199
-3.53084e-59
5.00562e-31
1.31931e-59
2.44831e-131
9.51276e-65
-1.38217e-162
-5.52065e-64
3.42159e-166
-2.9276e-161
-1.77353e-68
1.31526e-31
1.86911e-34
2.7912e-58
2.46963e-08
6.23618e-40
17.0159
4.4013e-35
6.67605e-66
-3.59291e-66
1.03549e-36
9.57698e-50
3.03072e-46
0.605381
-1.18875e-34
3.91909e-52
7.48614e-50
-1.15449e-110
-6.7543e-121
1.80201e-29
-4.22914e-226
22.9456
4.46279e-165
-1.01618e-33
7.64615e-22
4.38918e-07
2.38078e-18
4.89341e-28
3.61489e-32
9.65872e-64
1.4288e-18
9.27281e-41
2.57921e-13
2.05997e-49
2.73047e-13
1.39605e-50
4.10324e-238
1.6119e-50
178.326
4.6504e-13
4.31975e-90
-5.90886e-232
5.24326e-160
8.41914e-83
-3.20484e-53
3.78039e-35
1.96283e-54
1.11828e-175
-1.17948e-88
2.94543e-49
-3.52002e-92
2.73423e-99
1.96856e-12
6.40101e-102
3.47937e-42
8.99689e-25
4.70279e-90
-1.0777e-81
1.61695e-27
-4.71059e-248
-9.29528e-86
51.2443
1.75928e-188
4.27909e-16
1.84188e-22
6.56788e-83
5.26615e-32
6.84768e-25
4.93777e-51
9.55069e-26
-4.58063e-117
-4.69717e-32
-2.94841e-122
1.71232e-49
5.50927e-27
-7.57268e-31
-3.88469e-117
6.30558e-29
5.31046e-06
1.80543e-43
1.85706e-64
-6.20724e-110
3.88336e-22
7.55446e-07
-2.74523e-113
-3.37382e-208
2.45208e-51
-4.19769e-218
0.711987
5.6202e-50
3.28372e-12
1.31373e-62
1.17565e-55
14.3201
1.11969e-60
0.00177212
2.51085e-36
103.491
8.7609e-40
-1.12569e-72
5.03137e-62
5.24922e-78
0.0044883
0.000423986
8.82886e-164
3.45129e-161
-8.6979e-29
1.30285e-151
0.00382354
2.16655e-27
4.2603e-10
-7.02985e-110
129.059
0.0961242
2.63498e-49
1.51205e-237
-2.82183e-121
-8.25415e-37
3.15568e-81
2.9124e-89
1.54478e-78
9.4939e-36
6.64198e-42
53.4625
2.27841e-07
3.30941e-177
2.67765e-36
4.50295e-24
-1.26769e-27
4.18024e-68
2.10654e-22
8.49424e-30
-8.2876e-36
3.64895e-128
-1.55091e-235
3.78232e-20
3.39663e-17
2.9076e-56
-1.02752e-29
5.35497e-13
3.76007e-67
3.46052e-52
-1.24859e-108
8.88222e-74
1.14653e-14
5.50497e-72
1.4384e-24
1.32332e-38
2.64903e-45
8.64547e-90
6.66544e-74
1.93873e-06
1.60446e-64
3.25811e-68
54.2258
7.96297e-47
9.70051e-69
0.0104136
2.04312e-241
3.6959e-63
2.5875e-57
-8.8639e-82
-4.5211e-135
8.13972e-54
4.85588e-249
1.42746e-09
1.70366e-115
-1.22909e-57
8.34031e-21
7.45427e-32
1.11191e-58
2.85024e-61
3.67626e-21
95.2748
1.07492e-189
2.66289e-100
1.09254e-67
0.008339
2.32566e-17
-1.38243e-118
3.59751
-2.06456e-235
-8.17001e-118
187.616
-5.23281e-90
-1.2736e-115
-4.91177e-113
8.49964e-40
-4.99379e-39
1.28207e-186
-1.27973e-83
1.86258e-24
1.55652e-57
9.712e-62
3.54127e-79
-9.80565e-167
-6.01936e-38
2.68048e-06
-7.24435e-65
-8.64801e-31
5.12046e-37
1.39e-47
2.13564e-10
6.89591e-25
6.01458e-78
-3.49768e-116
0.000523687
3.70443e-31
2.3578e-45
-1.15053e-107
-3.2327e-181
9.77262e-37
9.62681e-11
1.6526e-66
3.45885e-28
3.98276e-65
1.51221e-77
-1.25868e-97
1.28175e-38
151.166
18.9167
2.12241e-37
-6.34624e-62
9.80377e-100
1.27323e-39
0.0132209
-3.47397e-33
-7.5461e-120
3.03893e-11
8.67664e-08
9.02219
4.72739e-82
92.4248
-2.49433e-186
3.67832e-76
2.71261e-183
7.28904e-11
3.25606e-44
86.1518
-1.37511e-122
0.0207761
1.693e-150
-1.17501e-62
8.04321e-28
2.52258e-83
6.0765e-12
0.148152
-2.22806e-88
6.57526e-89
1.02322e-62
4.33964e-83
-9.19128e-90
1.19942e-13
1.51371e-46
1.00585e-60
2.33039e-15
-7.06093e-90
-1.12137e-175
-3.27118e-66
1.1435e-158
1.68894e-26
2.37387e-62
4.46522e-09
7.14113e-11
-2.79081e-41
3.47088e-32
5.87947e-36
3.99207e-63
0.0134988
1.32125e-68
-6.22319e-94
-4.93299e-223
4.59678e-11
-2.28429e-34
-5.87426e-124
1.46189e-25
-1.30732e-79
2.06814e-32
-1.2614e-36
-4.27944e-32
4.45424e-37
89.308
1.50427e-35
-3.45327e-40
0.159064
4.98893e-83
2.57113e-07
1.87959e-23
1.73958e-154
3.33747e-67
4.59726e-97
1.01102e-66
-9.11307e-231
-1.72392e-111
3.13675e-07
4.18021e-11
-2.2992e-112
208.087
1.33061e-28
6.82509e-161
9.55e-12
2.96629e-12
-2.5888e-164
1.23454e-10
1.09765e-21
4.08118e-11
-4.10059e-161
8.25431e-123
-7.82157e-98
-1.10754e-164
-8.23783e-36
31.4757
-2.4832e-125
7.17342e-12
1.0799e-243
2.73899
4.59286e-26
1.02449e-33
-3.9344e-203
-6.88912e-127
2.67409e-75
1.36294e-38
4.38441e-15
4.97338e-33
-1.51961e-90
-1.30556e-87
-9.28859e-160
2.64249e-27
1.97294e-37
8.40618e-97
-8.91143e-207
1.34567e-52
2.63224e-33
4.75697e-43
-2.37913e-131
8.64317e-07
3.63489e-28
8.15099e-151
1.7051e-43
2.43787e-86
1.29708e-69
197.562
-2.91286e-91
-3.13883e-159
8.28704e-36
-1.91969e-35
-1.38313e-43
2.98604
-4.52991e-60
7.6091e-71
6.4687e-32
-5.60237e-82
3.58819e-79
2.00379e-69
-7.47402e-82
-1.28461e-28
-2.7661e-72
15.1019
-1.913e-42
6.52753e-10
4.2516e-77
0.0178741
9.31492e-31
6.64984e-09
1.42381e-13
6.20831e-31
3.20809e-69
3.55639e-75
4.45045e-55
8.92717e-245
2.43163e-72
3.66621e-35
6.13786e-12
-2.59077e-82
5.05805e-152
6.46733e-33
1.41022e-33
2.99687e-16
1.64618e-38
2.20764e-11
4.14844e-16
-2.26924e-106
6.25085e-49
0.885771
2.60192e-36
-5.15856e-234
4.54559e-83
-3.47357e-85
-3.00938e-237
4.08051e-50
-1.56613e-187
6.53117e-71
1.18444e-14
6.01416e-33
3.49051e-06
-4.07062e-184
-8.17984e-127
-7.37874e-217
-2.23e-83
-1.79403e-99
6.27204e-09
-2.77482e-99
-8.89896e-127
6.2471e-07
2.00928e-34
2.30284e-43
2.37149e-51
4.32005e-17
-5.97278e-90
5.17338e-12
6.56128e-76
-2.41999e-177
0.00231158
6.54578e-39
3.99954e-20
2.35864e-95
55.8927
-6.50745e-39
4.15108e-43
5.24216e-31
2.92439e-29
51.1378
2.85503e-73
1.01929e-11
-1.13054e-47
1.57763e-44
9.24205e-138
2.36433e-61
1.74328e-07
3.40191e-75
7.80596e-09
-1.11795e-88
-1.36949e-92
1.12885e-12
8.81703e-143
-1.64339e-118
7.62291e-72
1.21266e-37
4.96475e-11
-8.13122e-90
1.42519e-84
-1.07527e-217
2.60448e-46
0.00267624
3.64995e-40
-1.8607e-84
2.88156e-60
-3.58616e-91
-7.71956e-123
14.1557
-6.48262e-46
9.90701e-210
1.00174e-47
-1.9154e-92
-1.00952e-37
-2.63304e-27
3.08398e-40
5.1113e-83
2.49348e-14
5.42195e-11
-5.5909e-207
1.2809e-57
2.20663e-11
-4.08539e-124
-5.99241e-186
-6.26147e-62
5.51152e-48
5.92565e-77
-2.26111e-184
8.04514e-49
2.77698e-12
2.15841e-162
1.35567e-22
1.84652e-188
5.05175e-96
7.62581e-54
5.13083e-05
-3.83472e-223
2.00211
-9.19448e-45
4.82868e-21
42.0627
-3.0893e-41
2.29252e-54
0.0347546
-3.86714e-83
1.71831e-05
1.47357e-18
7.82568e-63
1.28827e-73
4.59378e-75
-1.69336e-93
-3.92389e-98
2.10333e-20
0.031923
198.197
8.74472e-24
-2.37765e-28
0.044958
5.24012e-26
15.629
-2.66778e-139
-4.91669e-92
1.66264e-18
6.16522e-41
-3.17882e-113
1.18541e-23
9.09502e-76
46.4532
8.38215e-233
1.36042e-126
-5.92324e-134
208.189
-1.1931e-35
2.25676e-43
-3.36644e-74
7.8079e-19
8.2758e-78
-1.11121e-128
4.15759e-07
2.54984e-74
4.00184e-07
1.60514e-20
1.11672e-63
5.4865e-14
7.22711e-40
-3.2609e-92
-1.03476e-123
-2.25931e-121
0.226642
3.21083e-13
7.58591e-102
1.37553e-17
1.75071e-43
4.65083e-24
-2.79345e-223
4.50125e-44
2.5527e-07
5.26868e-09
-4.84327e-40
-8.07306e-65
-2.84532e-125
3.31568e-15
-2.55827e-80
-2.70497e-128
5.28174e-10
2.30406e-16
-2.00318e-103
1.67361e-29
5.76829e-38
-7.51706e-220
-2.04007e-114
-6.60406e-185
-4.67716e-39
89.5458
2.73908e-11
6.51189e-19
-9.09842e-108
7.83852e-79
3.29866e-38
-4.07583e-213
3.78541e-09
1.54818e-40
98.3941
-4.23102e-27
6.2087e-68
-3.03355e-104
-3.57974e-137
6.41382e-74
-5.80389e-81
-4.15129e-111
14.6205
8.78465e-15
1.05996e-34
9.91167e-17
-2.11733e-41
-5.25169e-123
1.45314e-243
-6.07151e-112
1.51324e-25
0.998427
-1.41855e-21
7.14506e-43
-4.23883e-47
4.97439e-73
2.85137e-15
0.0410136
0.0254246
2.41213e-81
-8.10991e-67
1.90631e-27
-3.26219e-93
4.46195e-178
-2.93294e-112
1.40973e-13
-1.12798e-100
2.98132e-56
-1.96324e-88
9.87801e-40
4.34375e-08
-3.0087e-93
-5.14786e-112
3.59738e-10
3.93341e-14
1.00392e-91
-3.81751e-137
-2.76705e-48
0.00203031
5.55499e-25
7.05505e-22
-1.08903e-50
9.10885e-54
0.0770516
2.42602e-77
-1.19422e-21
-3.59816e-122
1.96627e-12
1.75167e-11
-4.90107e-163
-3.64189e-134
89.3379
-7.25458e-114
6.47266e-71
9.26237e-27
-4.6071e-104
-5.436e-102
-1.38482e-89
-2.57771e-115
-1.40561e-216
7.55104e-16
1.90362e-05
-1.63104e-135
0.0190031
2.20186e-78
-2.49303e-116
1.81963e-12
4.83332e-09
4.72884e-26
-9.87878e-82
-2.00371e-111
-1.34456e-43
152.859
-2.16892e-100
-2.10771e-136
-2.40224e-142
-1.43029e-101
1.28627e-57
1.90856e-27
-3.11791e-103
5.57947e-77
9.09421e-122
7.682
9.90315e-09
3.91544e-37
-7.2624e-38
6.36388e-77
-2.52271e-116
4.37057e-15
1.46341
-3.22168e-71
-7.67311e-142
-8.33085e-118
1.87252e-13
-1.71366e-103
-2.69884e-123
6.14743e-08
2.32416e-82
-2.28705e-111
116.287
2.07959e-05
15.2465
1.13741e-14
-5.54517e-103
1.98236e-11
2.36461e-10
0.186921
1.25969e-91
1.23989e-26
-3.86183e-216
0.126349
1.81391e-237
-1.28982e-93
6.14179e-77
-9.19818e-141
5.41216e-39
1.56066e-90
-1.70661e-101
7.27997e-93
7.69458
5.22883e-14
1.28227e-34
-6.72093e-111
2.97417e-28
21.8121
1.16936e-08
4.40485e-42
-1.70692e-49
4.20469e-94
1.8588e-81
-8.66311e-137
1.11769e-104
-6.21664e-134
-1.99774e-113
-2.21178e-42
1.03935e-14
4.83801e-16
0.343307
0.000114071
1.67374e-08
1.52605e-23
0.126515
-8.03905e-125
4.56638e-05
-4.03204e-118
0.00168328
5.95644e-09
7.67403e-34
-1.84533e-103
1.90642e-33
8.62307e-22
1.4079e-60
98.3419
2.18363e-12
0.404631
-6.90674e-115
1.36744e-09
3.58278e-07
1.00743e-09
1.72183e-07
1.19095e-10
-1.98897e-111
1.69895e-94
6.27826e-37
-2.02137e-106
9.77701e-28
9.73214e-97
1.1789e-36
1.68167e-164
-4.19884e-87
1.81983e-19
1.15584e-27
-1.08161e-129
-5.35645e-46
1.04232
86.2315
-1.3057e-141
1.88511e-48
2.07287e-70
1.38677e-10
1.62412e-28
4.95425
5.10431e-05
1.32339e-93
1.91973e-37
2.71972e-07
-1.02456e-23
6.3531e-06
1.45525e-52
1.11125e-11
-1.06713e-131
0.216551
2.65392e-08
-8.64794e-135
1.60856e-07
0.196348
1.75616e-44
4.51668
4.72288e-81
8.9505e-09
1.66764e-75
-3.92443e-146
3.25883e-71
2.18541e-76
0.0939139
0.00111864
0.0451173
-2.31895e-130
7.62436
1.43974e-34
1.29501e-12
-6.03322e-31
3.70082e-39
2.53249e-47
0.0221035
1.48916e-79
6.5128e-89
2.11245e-18
4.63895e-09
2.99178e-27
1.52139e-17
-1.26603e-55
0.0541831
6.92728e-29
7.18445e-28
2.61384e-09
-9.27315e-168
9.29476e-08
1.04246e-09
5.28814e-08
3.38826e-73
0.0010924
-1.44337e-137
2.19075e-28
3.0045e-38
5.07355e-05
2.42787e-69
2.22595e-19
1.88131e-08
79.4177
1.9917e-103
2.79338e-32
-4.42483e-46
6.41985e-08
9.42804e-18
-8.83257e-93
4.00227e-36
-9.79493e-139
12.5102
-1.66727e-221
-8.81011e-139
-3.11317e-183
1.26962e-06
-4.68338e-110
6.94498e-36
9.00522
3.04547e-49
1.94643e-56
-7.69311e-105
1.80474e-173
1.21431e-09
-1.37627e-140
-3.38835e-40
5.67687e-12
-8.94793e-45
3.25641e-06
-4.14103e-87
5.68163e-35
1.74107e-07
7.00225e-18
1.27481e-65
91.9599
-4.38438e-224
8.52591e-169
-5.90051e-83
229.636
3.73583e-74
3.71729e-67
9.41071e-08
-2.93844e-102
-1.59828e-85
4.70444e-13
1.06928e-05
5.73775e-30
0.010196
-2.3151e-102
5.01713e-84
2.48808e-38
1.44004e-43
5.24471e-05
-1.32699e-119
3.91994e-63
-3.93645e-53
7.7286e-18
9.61157e-57
-3.45922e-131
6.88368e-38
-1.07186e-18
-2.16578e-196
2.90646e-191
5.11431e-05
1.40797e-29
9.69222e-05
1.50036e-84
1.96176e-232
-1.58021e-17
1.6241e-06
-1.45932e-122
-5.738e-99
-5.06422e-138
16.2933
-3.11527e-196
4.80485e-31
8.71525e-05
3.8047e-187
5.96766e-172
4.81888e-18
-4.23921e-149
6.15385e-192
7.53154e-37
4.67461e-13
-1.00982e-132
5.13918e-21
-1.0876e-142
1.20776e-07
1.91504e-234
1.45e-07
6.54425e-13
2.78211e-19
5.78205e-187
1.47307e-14
5.36186
-2.24686e-93
6.01025e-47
1.63192e-150
2.36196e-13
-1.70251e-143
1.03522e-06
4.18635e-09
-2.0369e-80
1.10084e-179
1.86961e-13
9.41484e-14
1.72701e-42
3.99323e-40
3.37698e-16
-1.55016e-147
4.84714e-15
2.95839e-181
1.82042e-05
1.4964e-08
2.23556e-08
9.79079e-19
-9.92173e-23
12.5438
5.30042e-19
8.57174e-39
2.31878e-14
-8.42064e-96
1.36915e-11
4.16808e-16
-1.60667e-42
4.182e-73
0.107765
-1.57332e-197
0.0513837
110.538
-1.3894e-105
3.71324e-08
97.4863
9.09376e-34
2.18805e-36
8.07518e-16
-6.58989e-52
-3.15991e-137
8.2881e-08
0.0150651
0.850403
-2.73894e-95
6.47027e-14
0.000495602
4.38574e-14
-5.29855e-113
5.59844e-166
2.17672e-28
0.024605
9.17749e-09
4.39069e-16
-6.435e-225
-1.47e-144
2.68367e-14
-9.33096e-102
2.48173e-40
-1.31218e-97
9.77933e-177
2.95268e-07
1.27344e-79
0.000218964
8.38172e-42
2.45527e-158
8.19801e-166
6.14944e-15
-1.36744e-96
5.23319e-33
7.96043e-16
0.906345
-1.95925e-48
-1.84601e-130
2.90509e-06
1.90455e-92
-3.06657e-140
3.45473e-62
1.28287e-13
7.59571e-93
9.47214e-14
3.89154e-42
221.239
1.7092e-14
-3.32937e-123
0.0001084
-6.8325e-182
6.59714e-09
5.44808e-35
8.53175e-06
0.00533228
-9.94173e-44
0.000174995
8.14597e-157
1.39372e-08
-5.46326e-117
1.76389e-49
4.02357e-05
2.57648e-26
1.49137e-05
0.0189542
-1.55586e-19
1.59985e-07
2.6156e-06
-1.26172e-127
-5.46343e-142
-2.41053e-180
0.000223158
-4.74751e-24
-4.19806e-126
2.08546e-07
2.20384e-05
1.79723e-34
1.43869e-12
6.49518e-50
-2.99489e-33
0.00332306
4.17504e-69
4.12703e-27
1.11075e-31
2.43216e-216
-1.49359e-214
-1.91122e-128
-3.14515e-95
7.62619e-41
1.21922e-159
4.93427e-81
-1.88995e-102
-1.24323e-60
7.7983e-16
-4.42293e-112
1.59332e-06
5.17858e-236
2.69915e-11
4.41929e-06
-1.51764e-122
5.60145e-05
3.97077e-12
7.53491e-06
5.68946e-56
1.92652e-16
-6.94084e-104
2.20971e-35
7.69047e-45
2.50206e-167
3.20163e-119
7.62377e-88
-4.54901e-121
3.07901e-186
-1.03764e-53
8.10298e-188
-3.5427e-30
4.66672e-22
0.0717505
3.67722e-161
1.10293e-59
4.04723e-158
-3.95999e-102
2.83818e-21
8.87954e-62
-3.95406e-124
120.932
2.97497e-14
9.03624e-30
1.32686e-57
6.88812e-15
3.12067e-23
7.66951e-59
2.19017e-17
2.663e-13
-4.65914e-103
7.8577e-183
-8.79351e-79
2.19303e-07
-3.0213e-141
-8.96967e-129
1.17308e-13
1.91488e-106
-5.02096e-102
4.37357e-69
-3.08261e-131
0.00125851
1.28852e-159
-2.78357e-130
4.34454e-19
1.04975e-17
6.64425
3.85114e-13
-7.91426e-56
-5.3615e-124
3.01312e-16
-1.7201e-125
1.03376e-25
3.36456e-43
-3.44286e-103
6.68478e-06
5.32146e-193
4.09573e-21
3.75278e-52
1.12094e-14
-6.49385e-42
1.41129e-191
-1.11845e-103
1.4347e-234
5.21202e-24
-3.45915e-143
1.18397e-18
1.48658e-40
-1.38744e-85
-2.2468e-54
1.58921e-36
1.81521e-184
1.1021e-20
6.91685e-21
-3.51991e-96
6.03877e-19
1.41087e-07
4.82674e-175
1.09951e-36
2.32186e-11
9.79319e-13
3.85608e-72
1.41553e-39
2.39609e-38
9.2778e-43
1.47702e-69
8.24314e-15
1.08842e-69
-1.44397e-122
-6.55864e-124
0.0697203
2.46763e-08
9.57634e-05
1.80491e-06
-2.37022e-34
4.08559e-20
9.05341e-41
2.22184e-18
-1.26553e-123
3.61796
-7.51486e-101
3.07022e-06
5.0875e-07
-5.92353e-127
-5.07838e-25
1.13019e-08
8.13804e-06
5.62561e-39
1.60035e-25
-3.68246e-125
-1.87854e-205
8.87119e-15
7.07068e-183
5.70434e-163
4.72442e-17
-1.08846e-102
-2.20891e-63
-6.06924e-129
2.36673e-82
9.47515e-15
10.8994
2.48412e-97
-2.04355e-103
2.20197e-08
-4.40776e-37
5.9428e-11
6.70703e-24
1.97956e-25
-2.60646e-104
3.36001e-36
1.62596e-15
9.73301e-17
-1.11981e-29
3.78748e-152
7.64925e-06
9.33051e-30
4.93536e-19
6.5131e-80
-2.4175e-128
2.07641e-16
-3.32183e-95
-1.35847e-177
4.10681e-22
2.20312e-08
-2.01975e-161
1.77217e-20
1.25321e-43
-8.07853e-111
-5.2627e-72
-7.25376e-110
4.02129e-22
-1.34543e-122
-7.55687e-130
3.19834e-40
1.60814e-22
-6.09208e-39
-1.41037e-29
9.58192
2.06793e-105
6.33366e-59
0.44252
1.43986e-31
-3.2529e-111
7.35777e-31
0.0107817
2.86799e-167
-7.75568e-105
3.91148e-178
4.7906e-25
1.96966e-14
1.86503e-43
1.97588e-189
-1.52504e-75
5.1654e-61
6.65201e-87
2.10018e-09
-9.13467e-98
1.72532e-188
1.24268e-184
4.68052e-27
1.39461e-39
1.82979e-05
-1.1768e-78
-3.39122e-47
3.43242e-27
1.95352e-14
-1.79995e-140
1.18427e-23
2.39217e-170
8.15921e-163
-1.34108e-190
9.02438e-10
-1.61361e-105
1.78911e-23
6.29628e-21
1.52507e-25
1.50264e-15
1.44596e-26
2.17927e-13
2.07327e-25
-1.63434e-97
8.04869e-27
-1.58682e-46
3.35734e-33
4.51713e-21
-1.14281e-103
43.0079
8.29627e-17
6.3388e-19
-7.03619e-160
1.59045
4.7811e-15
9.57602e-17
-9.28774e-31
3.65352e-06
5.78097e-61
1.79026e-101
6.83579e-84
6.74186e-86
7.63052e-81
8.12885e-18
1.8544e-21
-3.28479e-111
3.75161e-24
2.60452e-88
1.45263e-80
7.46533e-49
-7.39766e-45
6.24975e-66
1.00675e-55
-1.30115e-43
1.34112e-22
1.9786e-25
1.8329e-45
7.01182e-183
2.85019e-88
-1.39998e-96
8.63152e-11
-6.80381e-142
-2.36227e-108
1.36061e-24
1.80915
-7.65194e-122
2.86254e-05
-2.07921e-125
-6.61232e-96
1.48016e-37
4.10129e-28
1.15463e-32
-5.63211e-139
3.9568e-18
5.50006e-21
2.18869e-11
2.89963e-161
4.40229e-23
9.40757e-40
1.03198e-49
-4.58168e-189
-1.65705e-224
5.58461e-27
2.21949e-39
5.03515e-57
55.6109
1.37247e-22
2.38712e-31
-1.1978e-24
6.59807e-41
3.93923e-11
-4.65737e-104
4.52865e-44
5.41951e-71
-3.08346e-84
0.0113947
1.51543e-21
3.39165e-21
2.57918e-34
-2.71616e-134
4.63537e-17
1.62691e-16
0.000347787
1.1086e-81
2.24173e-31
0.00024212
8.99839e-05
-6.16166e-127
9.83995e-05
6.92916e-48
23.8859
3.64501e-175
5.36217e-24
7.31354e-35
8.80006e-196
3.11254e-14
1.90416e-61
1.63684e-75
3.24014e-08
0.00158984
8.85329e-05
9.52851e-75
6.86133e-26
-6.33055e-175
-5.40713e-96
5.09439e-06
4.98995e-30
6.65234e-73
1.38924e-17
3.86009e-22
6.51666e-27
9.39853e-38
1.1884e-35
4.86797e-21
0.00360417
-3.95786e-133
2.25887e-37
8.94802e-44
2.16137e-27
2.43683e-07
1.39026e-22
1.88821e-31
1.60323e-61
2.95611e-178
4.93235e-26
4.30822e-30
2.6669e-20
-1.00886e-137
5.46042e-54
1.19682e-22
1.1348e-23
-7.24711e-24
1.40544e-19
3.91568e-68
1.28935e-28
-6.83175e-107
2.06082e-13
4.22979e-50
2.27973e-25
2.92347e-61
1.59373e-73
3.43e-22
1.18892e-54
2.41654e-62
1.91496e-76
-1.16307e-135
3.21552e-27
3.59127e-49
1.68181e-51
22.8272
0.0112601
-9.28888e-106
2.61998e-74
6.82108e-36
9.02726e-39
7.1948e-190
1.18156e-29
-1.75933e-35
9.29106e-30
-4.00607e-176
1.7699e-13
5.63754e-18
1.07937e-15
1.82696e-29
-7.66357e-161
-7.73977e-91
2.32565e-58
2.58713e-28
7.43104e-09
16.1467
-1.30941e-130
2.66053e-65
2.48655e-67
5.87187e-07
0.000569141
0.000187186
4.03065e-50
7.39714e-21
-1.69603e-174
8.06875e-37
-7.68806e-51
-3.95223e-129
5.6526e-22
8.53515e-38
1.47105e-33
1.19844e-19
-4.47931e-69
3.74771e-39
7.28994e-31
-8.00969e-163
-4.7692e-247
2.52985e-41
-1.57615e-63
2.35456e-08
1.77328e-44
-7.46852e-23
2.40388e-13
-4.13719e-40
-1.33736e-130
-4.46406e-57
1.54852e-18
-3.66069e-134
0.311167
0.0695771
-3.36421e-109
2.2327e-170
-2.28941e-98
-6.61703e-134
1.96245e-197
-2.6328e-59
2.25475e-62
-5.81244e-32
1.85449e-37
7.61872e-30
-3.10739e-47
3.48228e-05
1.77677e-18
1.65099e-31
1.62662e-37
3.45683e-48
3.01847e-34
-6.95276e-162
-1.5108e-71
1.50883e-63
-2.28418e-31
-9.23544e-26
1.84113e-09
5.29139e-200
-1.35977e-26
5.39253e-36
1.08484e-46
1.96592e-22
-9.42025e-40
2.34124e-24
0.00463122
3.34229e-36
3.98282e-18
5.74715e-47
1.27958e-83
5.62805e-39
4.49374e-34
-1.03685e-134
2.04732e-39
0.0321905
-4.94378e-75
0.000251803
-1.35801e-127
1.36295e-33
-6.30562e-87
2.47388e-69
8.18303e-30
-1.16682e-20
1.77744e-21
5.49516e-67
2.22005e-41
4.42432e-47
8.04105e-18
1.71067e-11
-8.5666e-45
2.4567e-08
2.16808e-196
5.72126e-38
7.97736
1.85993e-14
1.9573e-67
0.436693
4.53759e-19
1.05723e-63
-1.45552e-149
1.06602e-10
2.00011e-34
2.50534e-48
2.81951e-35
7.48112e-150
6.67342e-20
2.61316e-75
7.7287e-14
1.06597e-35
6.24903e-31
-8.44488e-30
1.01713e-239
-1.74524e-98
1.53758e-43
1.28512e-81
2.07634e-84
4.47557e-55
3.49359e-73
1.60081e-59
-1.30976e-24
1.27786e-27
-1.01327e-186
2.39704e-15
-7.78992e-97
-1.83138e-161
-2.57073e-27
-8.95699e-123
9.85314e-47
5.94858e-48
-2.94127e-136
-9.27084e-133
1.45051e-80
3.69301e-23
2.59986e-60
4.6004e-32
1.09347e-34
-2.48397e-26
5.47329e-25
5.81534e-49
1.67653e-41
7.1985e-38
-1.20594e-212
2.05622e-54
1.46521e-72
1.96674e-49
0.306777
1.71932e-25
-1.57222e-68
1.48443e-40
-9.42165e-62
2.57548e-63
9.9009e-69
1.73479e-61
1.21382e-63
-4.33108e-32
1.48641e-36
-4.42682e-163
2.61798e-24
-1.8064e-48
1.59028e-22
-2.45727e-151
-6.69178e-28
4.92657e-05
-2.06962e-93
-2.01391e-39
1.69673e-17
-4.50858e-114
3.08708e-26
2.34781e-13
6.60962e-37
-3.66575e-38
2.8274e-14
4.15824e-41
-1.14328e-49
4.47338e-40
3.22352e-24
7.38023e-120
4.16943e-69
9.08136e-204
-3.23472e-97
-1.54842e-150
1.02043e-38
1.10185e-36
9.95754e-26
-1.66593e-41
15.7029
-1.99571e-20
35.5484
3.04669e-35
5.29005e-10
12.1191
4.60312e-16
23.6184
3.2422e-67
9.0546e-41
2.13185e-45
5.33972e-51
1.6195e-44
2.73001e-99
2.46437e-45
4.39949e-89
-6.44536e-153
-6.41777e-51
4.60437
1.25065e-40
1.86995e-21
2.3089e-43
8.77446e-82
5.9145e-37
1.82988e-36
-1.2425e-107
2.28097e-42
-4.30648e-79
2.68642e-24
4.8267e-40
5.8723e-41
-9.06041e-42
0.580713
2.72163e-07
1.62633e-20
2.07091e-48
78.4138
3.69892e-42
4.71233e-53
4.0149e-28
-4.53554e-29
-1.03001e-57
1.6883e-16
-1.24717e-132
-1.25322e-36
-2.30647e-27
2.46881e-42
-1.78492e-43
4.65804e-73
2.53529e-38
-1.2316e-33
1.93277e-65
2.015e-27
1.88021e-46
5.39737e-59
-3.92901e-129
1.12323e-51
5.6723e-38
3.24008e-78
3.26951e-47
8.09333e-59
-3.10937e-98
-3.57132e-33
9.2172e-77
8.36427e-16
7.75747e-46
-4.76153e-63
-9.11777e-137
4.37169e-96
1.8961e-14
4.22077e-38
4.25078e-198
1.25356e-44
8.74665
4.42164e-22
1.56286e-74
2.26575e-47
0.135817
0.846152
46.8789
9.46154e-83
2.21358e-84
-8.93767e-105
2.98254e-58
7.95858e-29
0.00604358
0.0548159
7.61319e-13
2.63922e-18
1.60071e-71
-1.05999e-146
-2.57865e-144
-3.12608e-27
-2.44966e-73
7.34822e-25
5.90997e-86
2.63761e-05
7.66283e-84
8.55944e-42
3.39499e-12
-2.89274e-41
1.27146e-20
1.37879e-110
4.59895e-40
-2.4371e-159
9.6998e-18
1.15177e-18
2.66667e-64
-4.28733e-152
1.57711e-66
4.60766e-25
-3.53223e-101
-3.83126e-44
0.133788
1.33791e-170
3.09115e-63
-9.42927e-38
-2.72156e-38
5.81701e-47
-1.28707e-112
-6.2717e-100
-1.32809e-99
9.18767e-194
-2.87431e-144
6.19818e-60
4.89215e-26
-2.5705e-160
6.26271e-72
-9.67987e-110
148.329
-4.47105e-28
-5.8511e-98
1.17439e-201
3.28433e-23
4.86645e-42
7.67822e-21
-1.25052e-45
3.94454e-42
-8.73725e-154
8.96489e-97
4.62097e-16
-1.40376e-215
1.39964e-42
2.91557e-28
2.81808e-51
-2.24798e-141
3.31784e-37
-2.2888e-188
3.12328e-57
5.74877e-59
-5.99178e-99
6.63943e-08
3.19397e-53
1.3561e-62
2.46933e-60
-9.18546e-39
-5.59504e-49
-1.35281e-164
5.46562e-199
2.2031e-76
5.20825e-28
5.38319e-39
6.91722e-63
1.79891e-59
1.57389e-16
-7.00649e-54
-5.75201e-176
4.01039e-83