/*--------------------------------*- C++ -*----------------------------------*\
  =========                 |
  \\      /  F ield         | OpenFOAM: The Open Source CFD Toolbox
   \\    /   O peration     | Website:  https://openfoam.org
    \\  /    A nd           | Version:  7
     \\/     M anipulation  |
\*---------------------------------------------------------------------------*/
FoamFile
{
    version     2.0;
    format      ascii;
    class       surfaceScalarField;
    location    "0.013";
    object      phi;
}
// * * * * * * * * * * * * * * * * * * * * * * * * * * * * * * * * * * * * * //

dimensions      [0 3 -1 0 0 0 0];

internalField   nonuniform List<scalar> 
18389
(
-7.9691e-05
7.9691e-05
4.35473e-05
-4.35473e-05
-5.20406e-05
5.20407e-05
4.01912e-05
-4.01912e-05
-5.18599e-05
5.18599e-05
-4.00005e-05
4.00005e-05
-3.47125e-05
3.47125e-05
3.9055e-05
-3.9055e-05
-3.58519e-05
3.58519e-05
4.15091e-05
-4.15091e-05
4.48241e-05
-4.48241e-05
-3.34719e-05
3.34719e-05
-1.43298e-05
1.43298e-05
-4.28274e-05
4.28274e-05
4.35888e-05
-4.35888e-05
2.34931e-05
-2.34931e-05
1.83254e-05
-1.83254e-05
4.58882e-05
-4.58882e-05
4.59204e-05
-4.59204e-05
4.34187e-05
-4.34187e-05
-4.25826e-05
4.25826e-05
3.52828e-05
-3.52828e-05
4.30632e-05
-4.30632e-05
-5.84632e-05
5.84632e-05
-4.97925e-05
4.97925e-05
-4.18831e-05
4.18831e-05
-4.45251e-05
4.45251e-05
4.56059e-05
-4.56058e-05
4.58463e-05
-4.58463e-05
4.4127e-05
-4.4127e-05
-4.13273e-05
4.13273e-05
-6.30416e-05
6.30416e-05
4.31014e-05
-4.31014e-05
-4.47297e-05
4.47297e-05
4.08508e-05
-4.08508e-05
4.66786e-05
-4.66786e-05
-4.55428e-05
4.55428e-05
5.36062e-05
-5.36062e-05
-5.88929e-05
5.88929e-05
3.79179e-05
-3.79179e-05
4.49778e-05
-4.49778e-05
4.54353e-05
-4.54353e-05
-4.10331e-05
4.10331e-05
4.49139e-05
-4.49139e-05
4.58616e-05
-4.58616e-05
-4.58466e-05
4.58466e-05
-4.58406e-05
4.58406e-05
-4.06523e-05
4.06523e-05
-4.58786e-05
4.58786e-05
4.59235e-05
-4.59235e-05
4.59372e-05
-4.59372e-05
4.46008e-05
-4.46008e-05
3.7717e-05
-3.7717e-05
-4.57635e-05
4.57635e-05
-5.55148e-05
5.55148e-05
-4.37985e-05
4.37985e-05
4.57589e-05
-4.57589e-05
-4.59795e-05
4.59795e-05
4.3214e-05
-4.3214e-05
-5.93033e-05
5.93033e-05
-4.71285e-05
4.71286e-05
4.95974e-05
-4.95974e-05
4.5717e-05
-4.5717e-05
-9.439e-06
9.43902e-06
4.57761e-05
-4.57761e-05
4.15456e-05
-4.15456e-05
5.11735e-05
-5.11735e-05
-4.58497e-05
4.58497e-05
4.23393e-05
-4.23393e-05
2.98111e-05
-2.98111e-05
3.81043e-06
-3.81043e-06
-4.41976e-05
4.41976e-05
3.28683e-05
-3.28683e-05
-3.66022e-05
3.66022e-05
3.97691e-05
-3.97691e-05
2.66221e-05
-2.66221e-05
2.61904e-05
-2.61904e-05
2.70469e-05
-2.70469e-05
2.43997e-05
-2.43997e-05
1.3505e-05
-1.3505e-05
0.00107738
-0.000886268
-0.000191113
0.00546389
-0.00207377
-0.00339011
-0.00594682
0.00594671
1.07988e-07
0.0033539
-0.00260113
-0.000752773
-0.00156369
0.00175289
-0.00018919
-0.00674158
0.00283141
0.00391018
0.00121303
0.00425086
0.00725582
-0.00587529
-0.00138053
0.00119034
-0.00189502
0.000704682
-0.000847498
-0.000716198
-0.00144146
-0.000315086
0.00175655
0.000152276
-5.4943e-06
-0.000146781
0.00077923
-0.00222069
-0.00360244
0.000120796
0.00348163
-0.00320158
0.00289371
0.000307877
-0.00566826
0.00719888
-0.00153062
-0.00370801
0.0028972
0.000810796
-0.00056277
-0.00303967
-0.00175628
0.00239111
-0.000634825
-0.000458656
0.00255653
-0.00209787
-0.00161496
0.00111884
0.000496109
0.000583334
0.000582025
-0.00159332
-0.00514827
0.00126399
-0.0017293
0.000465317
0.00577768
-0.00385954
-0.00191813
-0.000682095
0.00331397
-0.00263187
-0.00583553
0.0058354
0.000446958
0.00130593
-0.00632196
0.000970272
0.0053517
0.00231205
-0.00299415
-0.00378834
0.00311354
0.000674797
0.00214836
-0.00422213
0.00109185
-0.00020205
-0.000889803
0.001516
-0.00129662
-0.000219382
-0.00280371
-0.00039787
0.00534802
-0.00534854
0.000382417
0.00113358
0.00522504
-0.0013348
-0.00389025
0.00195025
-0.000759912
0.0030864
0.00190797
-0.00499436
-0.000720421
-0.00306792
-8.96396e-05
-0.000156886
0.000246526
0.00393581
0.00332002
0.0011342
-0.00484671
0.00371251
0.00162427
0.00360076
-0.00497945
0.00631879
-0.00133934
-0.00115995
-0.00058464
0.00174459
0.00133677
0.00201712
0.000135289
0.000103604
-0.000238893
0.00501941
-0.00339514
0.00645836
-0.000842899
-0.00561546
0.00322056
-0.00269091
-0.000529651
0.00220129
0.000480813
-0.00268211
0.00297074
-0.000769453
0.0065044
-0.00539898
-0.00110541
0.000482198
-0.0038314
0.00334921
7.00359e-05
0.00638833
0.00476566
-0.00428346
-0.000535499
0.00105925
-0.000523746
-0.00177197
0.000612024
0.00191593
0.0022502
-0.00416612
0.000253904
-0.000334172
8.02673e-05
-0.00124111
-0.00285234
0.00409345
-2.62195e-05
0.00653063
-0.00280769
0.00230022
0.000507472
0.000389709
-1.333e-05
-0.000376379
-0.00569248
-0.00025434
0.00186622
-0.00141926
0.000827601
0.00495008
0.000897939
0.000179445
0.00261639
-0.00639787
0.00378148
-0.00112013
0.000584633
0.00264796
-0.00388907
0.00619741
-0.00226159
0.00109156
0.00117783
-0.000798618
0.00112815
-0.000329534
-0.00111729
-0.000497665
0.00186277
0.00135779
-0.00059446
0.00142938
-0.00123736
-0.000192026
-0.0026493
0.00198891
0.000660388
0.00116672
0.000262667
0.00110282
-0.00492631
0.00382349
-0.00472615
0.00139207
0.00333407
-0.00455461
0.00611872
-0.00156411
-0.00506127
8.18194e-05
-0.00202407
-0.00062522
-0.000215254
0.000125614
-0.00120171
0.00462066
-0.00341895
-0.00118569
-0.000709329
0.000103275
-0.000191993
8.87172e-05
0.000126251
-2.29753e-05
-0.00123872
0.00461252
-0.0033738
-0.000156185
2.43599e-05
0.000131825
-0.0055648
0.00170526
-0.00121728
-0.00055469
-0.000449469
-1.88859e-05
0.000468354
-0.000543259
9.37885e-05
0.00102028
7.15703e-05
-0.00181705
0.000599772
-0.000150507
1.69666e-05
0.00013354
0.00136887
-0.00234451
0.000975638
0.00027107
-0.000135781
-0.00392423
0.00513727
-0.0024618
0.000705536
-8.52519e-05
-0.000424897
0.000510149
0.00568409
-0.00216804
-0.00351605
8.11369e-05
0.00250417
-0.00258531
0.00442029
-0.00556362
0.00114333
0.00263522
0.00304887
0.00291586
-0.00283472
-0.00610385
0.000435599
-0.00642505
0.00360829
0.00281676
0.00229373
0.00390368
-0.00438262
0.0013636
0.00301901
0.00145364
-0.00018965
-0.00101616
0.00401107
-0.00299491
0.00463737
-0.00162449
-0.00301288
-0.00457481
0.00373854
0.000836276
0.00369279
-0.00502759
5.79111e-05
0.000331798
-0.00136473
0.00578503
-8.89662e-05
0.00214817
-0.0020592
-0.00207057
0.00261589
0.000154389
-0.00277027
-0.00127664
0.00264551
-0.000631017
0.0032469
0.00164415
-0.00173312
0.000869329
0.00396322
-0.00483256
-0.00504105
0.00384046
0.0012006
0.00255309
-0.00359413
0.00104105
-0.00327108
0.00410497
-0.00083388
0.00038754
-0.00365863
-0.00117577
0.00117577
-0.000446468
0.000361216
-0.000127152
-0.000973201
0.00110035
0.0050678
-0.00184095
-0.00322684
-0.0024347
-0.000369014
0.00289976
0.000158008
1.64496e-05
-0.000174458
-0.0014783
0.00113292
0.000345382
-0.000142548
-0.00489851
0.00500656
-0.00387237
0.000234477
-8.22021e-05
0.00444454
0.000574876
0.00406778
-0.00151468
0.000165041
-7.03296e-06
-0.00632239
-0.00100696
-0.000810095
0.00429892
-0.00190244
-0.00239648
0.00275725
0.00154168
0.00107796
-0.00563256
-0.00226848
-0.000539215
-0.00112637
-0.000954368
0.00208074
4.43358e-05
-0.00272393
0.00267959
-0.00236287
0.0012365
-0.00221756
0.00530396
-0.0045911
0.00157109
0.00302
0.00254851
0.000658597
-0.000333309
-0.000325288
-0.00601641
0.000582994
0.00543342
-0.00417787
0.0058106
-0.00163274
0.00182507
0.00163232
-0.0034574
-0.00168034
0.000888275
0.000792062
-0.00270384
0.00207879
0.000625056
0.00112918
0.000737045
0.000247133
-0.000328863
8.17309e-05
0.00485141
-0.00398208
-0.00638194
0.00557484
0.000807103
-0.00476264
-0.00166242
0.00335565
0.000596772
-0.00395243
0.000154074
-0.000162245
8.17105e-06
0.00059048
-0.000125225
-0.000465255
-0.00451824
0.00261581
0.000316811
-0.000549503
0.000232692
1.38436e-05
-0.00118961
-0.0025763
0.00448427
-0.00530289
-0.000321263
0.00562416
0.000233027
0.000199513
-0.00043254
0.00143974
-0.00143974
0.00168952
-0.000714933
-0.00210834
0.00182544
0.000282898
0.00438339
-0.00301979
-0.000162429
6.24502e-06
-0.00124766
0.0012615
0.000674295
0.00127596
0.00234281
-0.000264018
-0.00401758
-0.00128531
0.00112438
-0.00495579
0.00321029
-0.004449
0.000830175
-0.00213637
0.0013062
0.00335569
-0.0045574
-0.00271109
-0.00180715
-0.00483501
0.00469246
-0.000676996
-0.00533941
-0.00515627
0.00142686
-0.00144386
1.7e-05
0.00224006
0.000102751
-0.00601453
0.00204861
0.00396592
-0.00121934
0.000526291
0.000693044
0.00143383
0.00294956
-0.00462548
-0.00101364
0.00563913
-0.000212934
0.000138583
7.43505e-05
-0.00549738
0.00131951
0.00375409
-0.00493686
0.00118278
-0.0014997
-0.000608637
-0.000536799
-0.000637311
0.000138312
-0.000203751
6.54387e-05
0.00494225
-0.00383944
-0.00129952
0.00512283
-0.00382331
-0.000483284
-0.000764371
-0.00586175
0.00043947
0.00539592
-0.00614713
0.0045538
-0.000921325
-0.00546062
-0.00110362
-0.000374677
-0.001821
0.002858
-0.001037
-0.000419035
0.000321968
9.7068e-05
-0.00173229
0.00141721
0.00157289
-0.00014603
0.000818484
-3.71572e-05
-0.00169514
0.00279641
0.00121558
-0.00303658
0.00605294
-0.000478106
0.00527999
6.80253e-05
-0.0052785
0.00438918
0.00114302
-0.00553221
0.000556568
-0.000768863
0.000212296
-3.46699e-05
-0.000411798
-1.31051e-05
0.00606605
-0.000162148
0.000156797
5.35114e-06
0.000133483
2.05901e-05
0.0025452
-0.00335139
0.000806185
-0.00188915
0.00069693
0.00119222
0.00792415
-0.00345326
-0.00447089
0.00116791
0.00126884
-0.00243676
0.000108024
-0.000175557
6.75334e-05
-0.000805594
0.00133188
0.00114685
0.00318152
-0.00432837
-0.00561464
0.000165558
0.00544908
-0.00401141
0.00299525
0.00173491
0.00479571
0.00458797
0.00333617
-2.32549e-05
0.000192568
-0.000169313
-0.00128735
0.00437699
-0.00308963
0.00030468
-0.00033935
-0.000131398
-8.15364e-05
0.00410151
-0.00227645
0.00472699
-0.00497798
0.000250991
-0.00321808
0.00603063
-0.00281256
0.00252949
0.00157203
0.00570871
-0.000981724
-0.00136968
-0.00562139
0.00137246
0.00424893
0.000654505
0.00052044
-0.00117494
0.00126918
-0.00061467
0.000585278
-0.00110993
0.000524649
0.00110572
0.000277688
0.00038091
-0.000677395
0.00443148
0.00152412
-0.000391206
0.00348299
-0.00606593
0.00258294
0.00154079
-0.00258849
0.0010477
-0.00429554
0.00114124
0.0031543
0.0029175
-0.00420485
-0.00489622
-0.00125091
-0.00409199
0.00125773
0.00283425
0.00123207
0.00314491
-0.00326537
-0.000826624
0.00222908
-0.00106118
-0.000663827
-0.00253809
0.00320191
0.00241421
0.000602462
-0.00301666
-0.00159551
0.00121063
0.000384883
0.000270354
0.0015083
-0.00197246
0.000464159
-0.000111168
-0.000223004
-0.000264828
0.00015366
-0.00433872
-0.000236088
-0.000293485
0.00118104
-0.000887557
0.00434995
-0.00464359
0.00029364
-8.83852e-05
0.00011771
-2.93245e-05
0.000964684
0.00338032
-0.004345
-0.000156945
6.85603e-05
-0.00475016
0.000709085
0.00404108
-0.00121825
7.62795e-05
0.00114197
8.09066e-05
-8.64007e-05
-0.000400197
0.000864627
-0.000347547
-0.000517081
-0.00603661
0.000637623
-0.00254896
-0.000129133
0.00267809
-0.00316859
0.00440065
0.0021807
-0.00108914
-0.00116669
-0.00117517
-1.05218e-05
-0.00351058
-0.00121556
0.00152621
-0.000416932
-0.00110927
0.00191908
0.0018383
-0.00375738
0.0050169
-0.00159243
-0.00342447
0.000790128
-0.00541561
-0.00137145
0.00300377
0.00194441
0.000789951
-0.00273436
-0.00349826
0.00446294
-0.000153143
2.63611e-06
0.00092792
-0.00442617
-0.00449596
-0.00014764
-0.000998033
-0.00461661
0.00460236
0.00146556
0.00355134
0.00415863
0.00114115
-0.00529979
3.72155e-05
6.0204e-05
-9.74196e-05
-0.00141223
0.00335665
0.00368457
0.00351431
-0.00140807
0.00236966
-0.000961579
-0.00247458
0.000450511
-0.000878402
0.000751248
-0.000201138
0.000434165
-0.000196645
0.00170495
0.00376271
-0.00184363
-0.00108691
-0.00059343
-0.000107399
-0.000157429
0.00355012
-0.00163418
-0.00240281
0.00465302
0.000675538
-0.00309631
0.00242077
0.000678709
0.000763701
-0.00105719
0.00209902
-0.00129629
-0.00327346
0.00456975
-0.00214379
0.00476019
-0.000551173
0.00344488
0.000239293
-0.000222326
-0.0023627
0.000954639
0.0022682
-0.00386524
0.00159705
-0.00121486
5.71824e-05
-1.99669e-05
0.0021541
-0.00279812
0.000644027
-0.00117638
-0.000419127
-0.00352501
0.00449529
0.00117974
0.00168251
-0.00286225
-0.00169581
0.00366328
-0.00196747
0.00423021
-0.000849894
0.000234304
1.40923e-05
-0.000248396
-0.00372408
0.00202826
-0.00140645
0.00469375
-0.0032873
0.000877247
0.00130345
0.000229963
0.00120978
0.000253238
-0.000300887
4.76481e-05
0.00172994
0.000206485
-0.00193642
0.00301647
-0.00456578
0.00154931
-5.29219e-05
0.000374435
-0.000321513
0.00156999
-0.000359366
0.00139595
-0.000561982
-0.000833973
0.00282336
-0.00391705
0.00109369
0.00268438
-0.00374015
0.00105577
-0.00513141
0.00191334
0.00388252
-0.000866049
-0.000618572
-0.0023834
0.00300197
0.00140455
-0.00511432
0.00370977
0.00336057
-0.00145957
-0.001901
-0.000692286
0.00172539
-0.00103311
0.00477194
-0.00303704
-0.000730233
-0.00196067
-0.00598184
0.00513894
3.84906e-06
0.000121993
-0.000125843
-0.00158298
0.00120742
0.000375564
-0.00490769
0.00630557
-0.00139789
-0.00186728
0.000684503
0.00118278
0.000406832
0.0026862
-0.00209013
-0.000596076
0.00343383
0.000489042
-0.00392288
0.000127618
-1.95934e-05
0.00517261
0.000337026
-0.00550963
-0.00194041
0.00379718
-0.00185678
0.00275782
-0.000622031
-0.0021358
0.000462444
0.000402183
-0.000438486
0.00387231
0.00202647
-0.00396688
0.000718446
-0.000269316
-0.000449129
-0.000673988
4.22412e-05
0.000631748
-0.00315231
-0.00576549
0.00576565
-0.000274494
0.00095424
-0.000679748
-0.00228906
-0.00018553
-0.00453442
0.00323812
-0.000852564
0.00111008
0.0036084
-0.00502033
0.00141193
0.000411527
-0.00296048
0.00233736
-0.00243392
9.65521e-05
-0.00157112
0.00148237
8.87474e-05
-0.0012169
-0.000366082
-0.00338758
0.00342015
-0.00224041
0.000457424
0.000133056
-0.00174343
0.00105115
-0.00278278
0.000723562
0.00205922
0.000242295
-7.99073e-06
-0.00347457
0.00101902
0.00245554
-0.00144214
0.00560078
0.000339404
-0.000958312
0.000618908
0.0021258
0.000632025
-0.00127768
0.000304478
0.00112399
0.00121337
-0.0014041
0.0049254
-0.0035213
-0.00484099
0.0057591
-0.000918113
-0.00116506
0.00228406
0.00410426
0.00107969
3.91587e-05
0.00584417
-0.00550555
-0.00033862
0.0035166
-0.00463712
0.00112052
0.00308254
-0.000668342
0.00542742
-0.00181902
-0.00250415
-0.000970411
-0.00218828
-0.000294228
0.00248252
0.00244746
-0.00196666
-0.00160828
-0.00423177
0.00274783
0.00148394
-0.000352339
0.00124061
0.00119647
0.00363517
-0.00483164
-0.000301596
0.000618407
0.00305979
-0.00238425
-0.00472297
-0.00125887
0.00647097
-0.00129836
0.00421905
0.00206216
0.000494373
0.00285477
-0.00212777
-0.000726996
0.00473558
-0.00245152
-6.42746e-05
-0.00332545
-0.000859561
0.00418501
0.00038915
-8.67568e-05
-0.000302393
-0.00513748
0.00610268
-0.000965192
-0.000699159
0.00189563
-0.00119647
-0.000697409
0.00525316
-0.00455575
0.00119856
-0.00189772
-0.000112068
-0.00576322
-0.000798618
0.00202445
0.00381972
-0.000257794
-0.00193049
0.000251334
-4.2011e-06
0.000362633
-0.000487857
0.00335534
-0.00081014
-0.00522376
-0.000271545
-0.00014749
0.000150264
-0.00013363
-1.66336e-05
-0.00248155
0.000118675
-0.000419393
0.00160344
-0.00103189
-0.000571544
0.00245082
0.000605861
-0.00305668
-0.00073011
0.00318092
-0.00520278
-0.000271899
0.00547467
0.0037497
0.00137314
0.00439232
-0.0012108
-0.000108676
0.00255614
0.00540368
-0.000206283
-0.0051974
-0.00608764
0.00425325
0.0018344
0.00320842
-0.00126811
-0.00435329
0.000205465
-0.00022872
0.000536266
0.000859686
0.00120732
0.000131586
-0.00133891
0.00421254
0.00119113
-0.000965029
0.00317178
-0.00220676
0.00469712
-0.00134146
-0.00218119
0.00279244
-0.00061124
-0.00117562
-9.69197e-05
0.000293493
-0.000196573
0.00344665
-0.00414406
0.00135236
-0.000995766
-0.000356596
0.00160133
-0.00039391
-0.00325173
0.0022867
0.00548459
-0.00434157
-3.0612e-05
0.000352581
-0.00535378
0.000446079
0.00538819
-0.0019052
-0.000992875
-0.00361304
0.00460592
-0.000643947
0.00288232
-0.00223837
0.0054973
-0.00286203
-0.00263527
-8.83885e-05
0.000588339
-0.000677036
0.000660566
1.64691e-05
-0.000700579
0.00172897
-0.0010284
-0.00314802
-0.00114752
0.000155505
-1.71922e-05
-0.00122479
-0.00478974
-0.00306691
0.00240308
-0.00119791
-0.000241828
-7.25938e-05
-8.95544e-05
-0.00125821
-0.000806068
-0.00523054
-0.00283809
0.00219415
-0.000813511
0.00119593
0.00110808
0.00434191
-0.00544998
0.00335671
-0.00275993
0.000466372
0.000766514
-0.00288098
0.00211447
0.00495117
-0.00488274
-6.84234e-05
-0.00320867
0.00361592
-0.000407242
0.000207731
-9.55833e-05
-0.000112148
-0.00492403
-0.00147386
-0.00176405
0.00368855
-0.0019245
0.00297875
-0.00221223
-0.00378532
0.00202127
0.00139586
-0.00258182
0.00118595
-0.00363304
0.00568166
0.00649698
-0.00219561
-0.00430137
-0.00239506
0.00238003
1.50443e-05
0.0055613
-0.00159809
0.00119052
-0.000930316
-0.000260202
-9.07197e-06
0.00026231
0.000249909
-0.000777558
0.000527648
-0.00305279
0.00364777
-0.000963387
0.000851513
-0.00105356
0.00236449
-0.000630897
-0.00173359
0.00223981
-0.000509871
0.00449692
0.000632557
0.00173194
-0.0017639
0.00106333
0.000408482
-0.0004646
5.61174e-05
0.00222324
-0.00175082
-0.000472426
0.000817254
-0.00514804
-0.000544429
0.000369543
-0.000588336
0.000218793
-0.00410206
0.00547452
0.000941832
-0.00111635
0.000174519
-0.00154516
0.00215901
-0.00061385
-0.00148006
-0.00275171
-0.0053761
-0.000152965
0.00552907
0.000300715
0.00010831
4.19539e-05
0.000128308
-0.000127738
-5.69317e-07
0.00407875
-0.00288227
-0.00377863
-0.0022873
0.00346537
0.00303161
-0.00258625
0.000706588
0.00187966
-0.000843911
0.00223977
-0.00229602
-9.90455e-05
0.00272971
-0.0037767
0.00104699
0.00131243
-0.000131384
0.000465821
0.000554462
-0.00327437
0.0009578
0.00231657
0.000904752
-0.000643667
-3.03227e-05
-0.0042588
0.00171427
0.000113705
-0.00182797
-0.00395806
0.00145653
0.00250153
0.000516529
0.00146521
-0.000928946
-0.000246695
-0.00466041
0.0049071
0.000783777
-0.00247665
0.00169288
0.0012017
0.00131282
-0.000446584
-0.00173765
0.00218424
0.00257992
-0.00179615
0.00446006
-0.00353214
-0.000738104
-0.002641
-0.000227876
0.000252236
-0.000713279
0.00176319
-0.00104992
0.00266445
-0.00366499
0.00100052
0.000136416
2.03813e-05
-0.00236521
-0.000909167
0.00142116
-0.00163599
0.000214827
-0.00277446
0.000684331
0.00127613
-0.00141835
0.000142222
0.00161854
-0.00180746
0.000188924
0.000673576
-0.00371265
-0.00113405
0.00132526
-0.00486708
0.00354182
-0.000906758
0.0035712
0.000119803
-7.89261e-05
-4.08763e-05
0.00470416
-0.00359608
-0.000298057
-0.00151537
-0.00400375
-0.00149363
0.00209409
0.000698339
-0.000999552
-0.000921013
-0.00448806
-0.00161579
-0.000349989
0.00124756
-0.000937167
-0.000310395
-0.00149797
-0.00109053
0.000648113
0.0022633
-0.00291142
-0.000114231
0.000670798
-0.000715832
3.87962e-05
-0.00246445
0.00196571
0.00139485
-0.000705612
0.00166635
-0.000960739
-8.68396e-05
-0.000116912
0.000317247
-0.00193858
0.000438886
0.00162375
-0.00230425
0.000680503
-0.00332802
0.00258851
0.000739495
0.00121608
0.00239869
-0.00361477
-0.00176169
0.00104841
-0.00293975
-0.00101831
-0.000768921
-0.0025591
-0.0016804
0.00125933
0.000421064
0.00177682
-6.25506e-05
-0.000753385
-0.00243905
0.00319242
-0.000656985
0.00290929
-0.00226117
-0.000859418
-0.00394701
0.00480644
-0.00233877
0.00234429
-5.52093e-06
-0.00121825
-0.00157008
0.000538184
-0.0024087
0.00381853
-0.00140984
0.00323346
0.00288525
0.000194307
3.62065e-05
-0.000230514
0.00234073
-0.00060162
-0.00173911
0.000188338
-0.000184489
-0.00358045
0.00490571
-0.00328389
0.00522653
-0.00194264
-0.00351055
-0.00150978
-0.000918587
0.00323148
-0.0023129
0.00285965
0.00177076
-0.00417946
-0.00499319
-0.000144291
-0.000766216
0.00283671
-0.00207049
-0.000431811
0.000378889
-0.000536423
0.00167544
-0.00113902
-0.00401194
0.00334044
0.000671495
-0.00327071
0.00235212
-0.00386474
0.000669129
0.00319561
0.00141683
-0.00102213
-0.000394697
-0.00589967
0.00069689
0.00184721
-0.00141205
-0.000435152
0.00144688
-0.000465816
-0.000981059
7.83538e-05
0.000129377
0.00292038
-0.000620154
-0.000213191
-0.00348728
-0.00037746
0.000424946
-0.00305904
-0.000952904
-0.00233456
-4.20977e-06
-0.00291726
0.00229869
0.000719714
0.00260242
-0.00332214
0.000588465
-0.000862959
0.00140509
-0.00671175
0.00530666
-0.00575385
0.000991201
-0.0023217
0.00353778
0.000696537
0.000257704
-0.00273344
0.00345315
-7.54008e-05
0.00502657
0.000589477
0.00173078
-0.00232026
-0.00178203
0.00124561
0.00275084
-0.00369347
0.000942622
0.00509734
0.000685139
0.0015381
0.000318882
0.000399563
-0.000364007
-0.000404856
0.000180847
-0.00175042
0.0017666
-0.000889355
0.000901559
0.000563648
-0.000573178
0.00300562
-0.00243244
-0.00151632
0.00184211
-0.000325783
-0.00488626
0.0038012
0.00108506
-0.00478574
0.00150185
-4.04325e-05
3.53499e-05
5.08266e-06
-0.00281557
-0.000849415
0.00111693
-0.00130677
0.000189845
0.00133607
-0.00491653
0.00115818
4.91357e-05
0.00122373
0.000692386
0.00218993
-0.00366528
0.000849714
0.000188677
-0.00502966
0.00188307
0.00123756
0.000658068
-0.00527288
-0.000492609
0.00565359
0.00119092
0.00711087
-0.00218624
-0.00492463
0.000828983
-0.000388136
-0.000440848
0.000699147
-0.00138859
0.00079516
-0.00385937
-0.00125496
0.000293492
-0.000975881
-0.000383716
0.0013596
0.00233611
0.00400815
-0.00486755
0.00270315
0.000833713
-0.00353687
0.00125427
-0.000969668
-0.000284602
0.000744074
0.00159666
-0.000135142
0.000138345
-3.20335e-06
-0.000707729
0.00288323
-0.0021755
0.00361196
0.00108179
-0.00126815
-0.000412244
0.00144348
-0.001539
9.55112e-05
4.71007e-05
7.27017e-05
-0.00447807
0.000967518
-0.00165802
0.000441114
-0.0036439
0.00291378
-0.000953742
6.74733e-05
0.000929485
0.00268359
-0.00361308
0.0008547
-0.00127438
0.00416645
-0.00289207
0.000317101
0.000279903
4.6515e-05
-0.000326419
7.8244e-05
-0.005392
0.00531376
-0.00263988
-0.000758602
0.00339849
-0.00347306
0.00261507
0.000858004
-0.00276129
-0.000261774
-0.00171296
-0.00489127
0.00088752
-0.00146103
-0.000873528
-0.001062
0.00379171
0.00171458
-0.0037276
0.00201302
0.000105611
2.26964e-05
0.00372483
-0.00201025
0.00287033
0.000936353
-0.00380667
-0.00131138
0.00174349
-0.000432103
0.00356918
0.00108918
-0.00465836
0.00719026
-0.00197184
-0.00521841
-0.00212916
-0.000708934
-0.00175739
0.00234686
0.00377099
-0.00491967
0.00114867
-0.00280523
0.00373471
0.00118423
-5.35716e-05
-0.00113066
0.00147775
0.000913348
-0.00549557
0.000599343
0.000433012
0.00039597
0.002921
-0.00111528
-0.00251706
0.00248316
3.39108e-05
0.000504035
-0.00184114
0.0013371
-0.00386797
-0.00119329
0.00108457
-0.0025456
-0.00529917
0.000151129
-0.00126555
-0.000509102
0.00177465
0.00563221
-0.00449106
0.000104689
0.000284462
-0.00301916
0.00317356
0.00144681
-0.00108011
-0.000366696
0.00346718
0.00475003
-0.000948841
0.000624664
-0.00326454
0.00115387
-0.00107759
-5.28882e-05
0.00046137
0.000394154
-1.97189e-05
-0.00205986
-0.000423809
0.00154073
-0.000884557
-0.00349707
0.000763639
-2.94114e-05
-1.10212e-05
0.00599906
-0.00492108
0.00521981
-0.0043922
-5.69519e-05
-0.00114197
0.00119892
0.00194919
-0.000457676
-0.00149152
0.00335848
-0.000756051
-0.00256867
0.00336068
-0.000792009
-0.00183655
0.000525164
0.00128277
-0.000957141
-0.000325633
-0.000118743
-0.000210119
0.0020597
-0.0005475
-0.0015122
-0.00138697
-0.0023924
-0.000124658
0.00209289
-0.0027452
0.00065231
0.00280625
-0.000748659
-0.0020576
0.00410351
-0.0043502
0.000313108
0.00223299
-0.000609242
-0.000680367
0.000838374
-0.00366627
0.00500234
0.00122064
0.000450519
-0.00171607
-0.00285395
0.00209852
0.00363021
0.0015896
-0.00116068
-0.00381299
-0.00111333
0.00130904
-0.00172011
0.000411073
0.00367461
-0.00318558
-0.000193844
0.00113567
-3.86375e-05
-0.000271482
0.00031012
-0.000676371
-0.00190988
0.00377039
-0.00490131
0.00113093
-0.00187235
0.00235063
-0.000478286
-0.00114927
0.00213442
0.000748812
-0.002265
0.00375401
-0.00148902
0.0015097
-0.0011477
-0.000361997
-0.00150977
0.000291521
0.000220155
-0.000536176
0.000316021
-0.000423914
-0.0012341
-0.00247577
0.00250688
-3.11059e-05
0.00144637
-0.00371137
0.0016276
-0.000368265
0.000369222
-0.000421606
5.23838e-05
-0.000830159
0.000597238
0.000232921
-0.000793925
-0.00283806
0.000804136
0.00203392
-0.00199174
-0.000796316
-0.000768914
0.00156523
-0.00523743
0.00389292
0.00134451
-0.00136369
0.00130674
-0.000576206
-0.000115923
0.000692128
0.00286812
-0.000733708
-0.000770103
-0.000160195
0.000930298
0.00183897
-0.00138846
0.00170086
-0.00039182
-0.000209828
-0.000636005
-0.00420268
0.00483869
-0.00139969
0.00283095
0.00427992
-0.00239656
-7.92127e-05
0.00312748
-0.00471992
0.00073191
0.00158308
-0.002315
0.00202172
-0.00278793
0.00197647
-0.000701251
-0.00127522
-0.00179643
0.000455224
0.0013412
0.00432582
0.00286443
-0.00550303
0.00133233
0.00417071
-0.00124918
-0.00398824
-0.000459599
-0.00133683
-0.00101464
-0.000555434
-0.00129745
-0.000422672
0.001137
-0.000524675
0.00151375
-0.000989073
-0.0017576
0.001298
-0.000944174
-0.000207179
0.00115135
0.00217399
-0.00286685
0.00069287
-1.17628e-05
0.000206069
0.00104215
0.00604661
-0.00140334
-0.00464327
-0.00203187
-0.00187086
0.00135445
0.000516408
0.0012747
-0.000983157
-0.000291542
-0.00229916
-0.00101424
0.00331341
-0.0026755
0.00357526
-0.00089976
-0.00091444
0.00115628
4.15073e-06
-0.00116043
0.00375926
-0.00492996
0.0011707
0.00174793
-0.00135627
-0.000391654
0.00242707
-0.00122536
0.00272831
-0.000638887
-0.000191272
-0.00408926
0.00230223
-0.0018061
-0.00049613
0.000559616
-0.00200967
0.00145006
-0.00252163
-0.00082976
0.000863032
-0.000661692
-0.000201341
-0.00018032
-0.00363466
0.000959152
0.000644329
-0.000424174
0.00259893
0.000976329
0.000317559
0.00130966
0.000666814
-0.00160471
0.00233661
-0.00151203
0.00101024
0.000501795
0.0035385
-0.000668162
-0.00380945
0.00610318
-0.00114205
-0.00248374
0.00683302
-0.00434928
-0.000883094
0.00356669
-0.00414198
0.000933325
-0.0021004
0.00424876
-0.000669763
-0.00163449
-0.0024433
0.00172381
0.00071949
-0.00127789
0.00107478
-0.00109114
1.63684e-05
-0.0013815
-0.000776603
-0.000153452
0.000930055
-0.00157182
0.00138204
0.000189779
0.00205073
0.00078598
6.24128e-05
-0.00129977
-0.000545615
-0.000842975
-0.00241331
-0.000463736
-0.00140712
-0.000170974
0.00159213
-0.000180625
0.00341029
-0.000513087
0.00133854
0.000200656
-0.000734143
-0.00099516
-0.00193043
0.00247665
-0.000546222
-0.00105529
-0.00572895
0.0035114
0.0014669
-0.000565344
0.00288423
-0.00120172
0.000945432
-0.00135915
-0.00453078
0.00588992
0.000619728
-0.00255016
0.000738964
-0.00368081
0.00270359
0.00097722
0.000905949
-0.00143062
0.00223267
-0.00311275
0.000880075
0.00119294
-0.0034278
0.00223485
0.00085946
0.00168925
-0.00254871
-0.000174235
0.00179277
0.0027518
0.00108579
0.00361894
-0.00041343
0.000782971
0.00315794
-0.0040175
0.000970259
-0.00326942
0.000432709
0.00412318
0.00148925
-1.0938e-05
-0.000277188
0.000288126
-0.00619231
0.00385561
0.00233671
-0.000818156
-0.0026192
0.00343736
0.00263971
-0.00178025
-0.0036941
0.000888873
-0.00132229
-0.00043531
-0.000152612
0.00131933
0.00371328
0.00121211
0.000224146
0.00131204
-0.000996451
-0.000315592
0.000931772
0.000535132
-0.000314633
0.00376682
-0.00492794
0.00116113
0.0030718
-0.000839138
-0.00139986
0.00190389
0.0012644
-0.00355613
0.00229173
-0.00116315
0.00145755
0.000677513
-0.00213507
0.00019338
-0.000204318
0.00220012
-0.000863345
-0.0012796
0.000328885
0.000941777
-0.000348845
-0.000592932
0.00353229
-0.00226789
-0.000489285
0.00230441
-0.00181512
0.00102768
-0.00295804
0.002104
0.000854046
0.000107422
-1.81087e-06
0.00464097
0.000544125
-0.0056924
-0.00518866
0.00392299
0.00126568
-0.00107121
-0.00269564
0.00376685
0.00222127
0.00372544
0.00282941
-0.00375141
0.00092201
-0.00147415
0.00110807
-0.000918537
0.00335794
-0.00243941
0.00149824
0.000561463
-0.00378585
-0.00240646
0.00105301
-0.00230353
0.00320065
-0.000897129
0.00341656
-0.000801492
0.000393499
-0.000787342
0.00255199
0.000864567
-0.000634618
0.00430923
-0.001313
0.00171845
-0.000405451
0.00197519
-0.00127825
-0.000388364
0.0060773
-0.00491207
-0.000464037
0.000857438
-0.00246215
-0.00539199
-0.00172421
0.00041121
-0.000677985
0.000101779
-0.000864687
0.000215265
-0.00147402
0.000647376
0.00158561
-0.000905193
0.00013509
0.000804381
0.00251645
-0.00332084
-0.00109462
0.00187384
-0.00194736
-0.000473794
0.00196134
-0.00148755
-0.000853444
-0.00210459
-0.00195191
0.00147811
-0.00265792
0.00346229
-0.0016369
0.000565686
0.00107121
-0.000965345
0.00356427
0.00596928
-0.00228471
-0.00130638
-0.000417827
-0.00174174
0.00111323
0.000628511
0.000902337
-0.00451806
0.00361573
-0.0013212
0.000538515
0.000782685
-0.00403067
-0.00115799
0.000191715
-0.00113589
0.00192113
-0.000683567
-0.00132892
-0.00379132
0.00512025
0.00101814
6.15413e-05
0.00329667
-0.00252857
-0.000768106
0.000249733
0.00119714
0.000879607
-0.00067281
-0.000206798
-0.0013555
-0.00100721
-0.00104881
0.00506008
-0.00401126
0.000623605
-0.00249595
0.000174512
0.00126897
0.0037711
-0.00495586
0.00118476
0.00286917
-0.00206503
0.000102003
-0.000168709
6.67068e-05
0.00102453
0.000138074
0.000104221
0.00235268
0.00369393
-0.000577694
-0.000822246
0.00139994
0.000651494
0.00177329
-0.00242479
0.00239587
-0.00171705
-0.000678812
0.0004749
0.00147429
0.000425637
-0.000504497
-0.000816704
0.000601425
-0.00532441
0.000690383
-2.98166e-05
-0.00115683
-0.00129674
-0.00377803
0.00507476
0.0010297
0.00143811
-0.00189578
0.00254669
-0.00039512
-0.0049092
0.00530432
0.000120697
-1.8694e-05
0.000628971
0.00129216
0.00273298
0.000931017
-0.00366399
0.00137627
0.000470942
0.00258727
-0.00364076
0.0045431
0.00277435
0.000842798
-0.00361714
0.00158992
-0.000875161
-0.000714759
0.00133088
-0.00102267
-0.000308209
0.000421008
0.00105613
-0.00469689
0.000217916
-6.79258e-06
0.000200172
0.00598545
-0.0012813
0.00152735
-0.00212897
0.00251949
-0.00183412
-0.00068537
0.000843989
-0.00254763
0.00170364
0.00523518
-0.00282058
-0.000919562
-0.00159931
0.00500648
0.0014859
-0.00178104
0.000295148
0.000500529
-0.000103705
-0.000396822
-0.000985569
-0.00313985
0.00412542
0.00074075
0.00182108
-0.00256183
0.00176718
-0.000281278
0.00225223
0.00141452
-0.000876004
-0.000937107
0.000160504