/*--------------------------------*- C++ -*----------------------------------*\
  =========                 |
  \\      /  F ield         | OpenFOAM: The Open Source CFD Toolbox
   \\    /   O peration     | Website:  https://openfoam.org
    \\  /    A nd           | Version:  7
     \\/     M anipulation  |
\*---------------------------------------------------------------------------*/
FoamFile
{
    version     2.0;
    format      ascii;
    class       volVectorField;
    location    "17";
    object      U;
}
// * * * * * * * * * * * * * * * * * * * * * * * * * * * * * * * * * * * * * //

dimensions      [0 1 -1 0 0 0 0];

internalField   nonuniform List<vector> 
2413
(
(2 -1.27421e-16 0)
(2 -1.77206e-17 0)
(2 1.15469e-17 0)
(2 6.58645e-17 0)
(2 2.03367e-16 0)
(2 1.87783e-16 0)
(2 1.55278e-16 0)
(2 1.57659e-16 0)
(2 1.33692e-16 0)
(2 1.19764e-16 0)
(2 1.13955e-16 0)
(2 8.53662e-17 0)
(2 3.53402e-17 0)
(2 9.1511e-18 0)
(2 -1.07972e-17 0)
(2 -1.53743e-16 0)
(2 -2.41667e-16 0)
(2 -2.85734e-16 0)
(2 -5.70594e-16 0)
(2 -9.02352e-16 0)
(2 -1.04657e-15 0)
(2 -1.28662e-15 0)
(2 -1.67187e-15 0)
(2 -1.78175e-15 0)
(2 -1.72414e-15 0)
(2 -1.65068e-15 0)
(2 -1.32472e-15 0)
(2 -1.06954e-15 0)
(2 -8.48911e-16 0)
(2 -8.62778e-16 0)
(2 -8.76215e-16 0)
(2 -9.2028e-16 0)
(2 -1.01734e-15 0)
(2 -1.06548e-15 0)
(2 -1.07285e-15 0)
(2 -1.07755e-15 0)
(2 -1.07829e-15 0)
(2 -1.11958e-15 0)
(2 -1.12208e-15 0)
(2 -1.12732e-15 0)
(2 -1.03395e-15 0)
(2 -9.45626e-16 0)
(2 -9.44076e-16 0)
(2 -9.08624e-16 0)
(2 -4.03266e-16 0)
(2 -1.54442e-16 0)
(2 4.17005e-17 0)
(2 -2.00479e-16 0)
(2 -4.42311e-16 0)
(2 -5.13766e-16 0)
(2 -6.04358e-16 0)
(2 -6.88142e-16 0)
(2 -8.03809e-16 0)
(2 -8.41486e-16 0)
(2 -7.82594e-16 0)
(2 -6.28396e-16 0)
(2 -4.99494e-16 0)
(2 -4.27511e-16 0)
(2 -2.78318e-16 0)
(2 -1.71314e-16 0)
(2 -1.34136e-16 0)
(2 -8.17258e-17 0)
(2 1.19079e-17 0)
(2 1.34883e-16 0)
(2 3.53779e-16 0)
(2 5.679e-16 0)
(2 7.0321e-16 0)
(2 8.48872e-16 0)
(2 7.5173e-16 0)
(2 5.53704e-16 0)
(2 5.29279e-16 0)
(2 5.54534e-16 0)
(2 7.63054e-16 0)
(2 1.49174e-15 0)
(2 1.6907e-15 0)
(2 1.16337e-15 0)
(2 7.52527e-16 0)
(2 4.07258e-16 0)
(2 2.20529e-16 0)
(2 -9.46916e-17 0)
(2 -3.88315e-16 0)
(2 -6.74314e-16 0)
(2 -7.75163e-16 0)
(2 -8.69411e-16 0)
(2 -1.07522e-15 0)
(2 -1.18835e-15 0)
(2 -1.16994e-15 0)
(2 -1.10179e-15 0)
(2 -1.10916e-15 0)
(2 -1.02922e-15 0)
(2 -6.05935e-16 0)
(2 -5.2599e-16 0)
(2 -4.00323e-16 0)
(2 -4.04523e-16 0)
(2 -4.66682e-16 0)
(2 -5.18858e-16 0)
(2 -6.05544e-16 0)
(2 -7.1493e-16 0)
(2 -8.0587e-16 0)
(2 -9.20531e-16 0)
(2 -9.57192e-16 0)
(2 -9.8286e-16 0)
(2 -1.09052e-15 0)
(2 -1.14798e-15 0)
(2 -1.17692e-15 0)
(2 -1.20171e-15 0)
(2 -1.34632e-15 0)
(2 -1.43415e-15 0)
(2 -1.56791e-15 0)
(2 -1.50295e-15 0)
(2 -1.39322e-15 0)
(2 -1.28677e-15 0)
(2 -1.39531e-17 0)
(2 -1.7537e-17 0)
(2 -1.44141e-17 0)
(2 1.73124e-17 0)
(2 1.68994e-17 0)
(2 2.22863e-17 0)
(2 -8.07847e-17 0)
(2 -1.37752e-16 0)
(2 -1.32837e-16 0)
(2 -7.90397e-17 0)
(2 -4.85731e-17 0)
(2 -4.72731e-17 0)
(2 2.56507e-17 0)
(2 1.26544e-16 0)
(2 2.44003e-16 0)
(2 2.38311e-16 0)
(2 2.94736e-16 0)
(2 3.19462e-16 0)
(2 3.16192e-16 0)
(2 1.33902e-16 0)
(2 7.8819e-17 0)
(2 1.85927e-16 0)
(2 2.28716e-16 0)
(2 2.39014e-16 0)
(2 2.63974e-16 0)
(2 4.1093e-16 0)
(2 5.61892e-16 0)
(2 5.62074e-16 0)
(2 5.68121e-16 0)
(2 6.23373e-16 0)
(2 5.95923e-16 0)
(2 5.02823e-16 0)
(2 4.4826e-16 0)
(2 3.9832e-16 0)
(2 2.77747e-16 0)
(2 2.32329e-16 0)
(2 1.76284e-16 0)
(2 3.04236e-16 0)
(2 -1.79541e-16 0)
(2 -3.9228e-16 0)
(2 -5.79905e-16 0)
(2 -7.23422e-16 0)
(2 -8.71822e-16 0)
(2 -1.09637e-15 0)
(2 -1.38004e-15 0)
(2 -1.59122e-15 0)
(2 -1.52698e-15 0)
(2 -1.51339e-15 0)
(2 -1.37949e-15 0)
(2 -1.36997e-15 0)
(2 -1.07542e-15 0)
(2 -9.93252e-16 0)
(2 -6.04495e-16 0)
(2 -4.32849e-16 0)
(2 -3.59492e-16 0)
(2 -2.83176e-16 0)
(2 -3.09014e-16 0)
(2 -3.96012e-16 0)
(2 -2.49867e-16 0)
(2 1.48404e-16 0)
(2 2.46622e-16 0)
(2 2.36245e-16 0)
(2 2.38545e-16 0)
(2 3.74613e-16 0)
(2 7.15528e-16 0)
(2 9.76957e-16 0)
(2 1.12461e-15 0)
(2 8.60092e-16 0)
(2 6.63105e-16 0)
(2 2.80278e-16 0)
(2 6.8946e-17 0)
(2 7.8751e-17 0)
(2 8.91002e-17 0)
(2 3.32211e-17 0)
(2 -8.17114e-17 0)
(2 -1.37247e-16 0)
(2 -1.40026e-16 0)
(2 -1.01006e-16 0)
(2 1.19169e-16 0)
(2 6.13234e-16 0)
(2 8.89637e-17 0)
(2 1.34396e-16 0)
(2 -2.06317e-16 0)
(2 -6.18806e-16 0)
(2 -8.8294e-16 0)
(2 -1.01113e-15 0)
(2 -7.86912e-16 0)
(2 -3.87005e-16 0)
(2 -7.36664e-16 0)
(2 -1.17184e-15 0)
(2 -1.25026e-15 0)
(2 -1.1699e-15 0)
(2 -1.05526e-15 0)
(2 -7.44643e-16 0)
(2 -7.86289e-17 0)
(2 4.0013e-16 0)
(2 5.25171e-16 0)
(2 5.5334e-16 0)
(2 5.99617e-16 0)
(2 7.05794e-16 0)
(2 8.60899e-16 0)
(2 8.79319e-16 0)
(2 6.91226e-16 0)
(2 5.39495e-16 0)
(2 5.78581e-16 0)
(2 6.09725e-16 0)
(2 2.08632e-17 0)
(2 -3.92374e-16 0)
(2 -6.0496e-16 0)
(2 -1.3899e-15 0)
(2 -1.51923e-15 0)
(2 -1.80807e-15 0)
(2 -1.55827e-15 0)
(2 -1.23708e-15 0)
(2 -1.03952e-15 0)
(2 -8.00839e-16 0)
(2 -6.64369e-16 0)
(2 -4.90269e-16 0)
(2 -2.59402e-16 0)
(2 1.18013e-16 0)
(2 2.43845e-16 0)
(2 3.55779e-16 0)
(2 3.99006e-16 0)
(2 4.77172e-16 0)
(2 4.07353e-16 0)
(2 -1.32267e-16 0)
(2 -4.84503e-16 0)
(2 -6.66736e-16 0)
(2 -8.27669e-16 0)
(2 -8.92574e-16 0)
(2 -7.7738e-16 0)
(2 -2.39239e-16 0)
(2 -2.24973e-17 0)
(2 -6.78209e-17 0)
(2 -7.38825e-17 0)
(2 -8.2073e-17 0)
(2 -1.08285e-16 0)
(2 -1.64747e-16 0)
(2 -1.61733e-16 0)
(2 -1.16842e-16 0)
(2 -5.77189e-17 0)
(2 3.97062e-17 0)
(2 2.69747e-16 0)
(2 3.70135e-16 0)
(2 9.41552e-16 0)
(2 1.13437e-15 0)
(2 1.11703e-15 0)
(2 9.37924e-16 0)
(2 6.91061e-16 0)
(2 6.28847e-16 0)
(2 4.6235e-16 0)
(2 1.58069e-16 0)
(2 6.55519e-17 0)
(2 4.32312e-17 0)
(2 4.07996e-17 0)
(2 -1.69681e-17 0)
(2 -6.92894e-17 0)
(2 1.50812e-16 0)
(2 1.54244e-16 0)
(2 3.56851e-17 0)
(2 4.24207e-17 0)
(2 2.40343e-17 0)
(2 1.35669e-16 0)
(2 3.86252e-16 0)
(2 5.16882e-16 0)
(2 4.38134e-16 0)
(2 4.63535e-16 0)
(2 4.82578e-16 0)
(2 4.92821e-16 0)
(2 6.00756e-16 0)
(2 5.84124e-16 0)
(2 4.70588e-16 0)
(2 1.0381e-16 0)
(2 4.48802e-17 0)
(2 5.15375e-17 0)
(2 2.16091e-17 0)
(2 1.81365e-16 0)
(2 4.0189e-16 0)
(2 4.71561e-16 0)
(2 5.10158e-16 0)
(2 4.60439e-16 0)
(2 4.62792e-16 0)
(2 4.87924e-16 0)
(2 6.66452e-16 0)
(2 8.4252e-16 0)
(2 1.22848e-15 0)
(2 1.42437e-15 0)
(2 1.15891e-15 0)
(2 1.08077e-15 0)
(2 9.74255e-16 0)
(2 9.62515e-16 0)
(2 9.70819e-16 0)
(2 1.24918e-15 0)
(2 1.57586e-15 0)
(2 1.83848e-15 0)
(2 1.89352e-15 0)
(2 1.75856e-15 0)
(2 1.57215e-15 0)
(2 1.12368e-15 0)
(2 9.75648e-16 0)
(2 6.9735e-16 0)
(2 4.10644e-16 0)
(2 3.20722e-16 0)
(2 4.81106e-16 0)
(2 7.66343e-16 0)
(2 8.62047e-16 0)
(2 8.66044e-16 0)
(2 8.26305e-16 0)
(2 7.32216e-16 0)
(2 7.09613e-16 0)
(2 7.45739e-16 0)
(2 5.32629e-16 0)
(2 2.5431e-16 0)
(2 1.27332e-16 0)
(2 1.37609e-17 0)
(2 -3.28078e-17 0)
(2 1.89195e-17 0)
(2 -5.20808e-16 0)
(2 -6.46416e-16 0)
(2 -6.33968e-16 0)
(2 -4.17411e-16 0)
(2 -4.16488e-17 0)
(2 2.50529e-16 0)
(2 5.68834e-16 0)
(2 6.64945e-16 0)
(2 8.35046e-16 0)
(2 1.01231e-15 0)
(2 1.13933e-15 0)
(2 1.18953e-15 0)
(2 1.42266e-15 0)
(2 1.62024e-15 0)
(2 1.51601e-15 0)
(2 1.31787e-15 0)
(2 1.24914e-15 0)
(2 1.1949e-15 0)
(2 1.10311e-15 0)
(2 8.65991e-16 0)
(2 7.86435e-16 0)
(2 5.25785e-16 0)
(2 2.6765e-16 0)
(2 1.15678e-16 0)
(2 -2.74549e-16 0)
(2 -4.19236e-16 0)
(2 -5.78435e-16 0)
(2 -7.285e-16 0)
(2 -8.14402e-16 0)
(2 -8.12823e-16 0)
(2 -3.12669e-16 0)
(2 3.24392e-16 0)
(2 9.55906e-16 0)
(2 1.28697e-15 0)
(2 1.38661e-15 0)
(2 1.4026e-15 0)
(2 1.32472e-15 0)
(2 1.19244e-15 0)
(2 1.22056e-15 0)
(2 8.43638e-16 0)
(2 5.13767e-16 0)
(2 5.70299e-16 0)
(2 7.80061e-16 0)
(2 8.54895e-16 0)
(2 6.97083e-16 0)
(2 3.81525e-16 0)
(2 2.95537e-16 0)
(2 2.49375e-17 0)
(2 5.17159e-17 0)
(2 8.33645e-17 0)
(2 -1.90007e-17 0)
(2 -1.45505e-17 0)
(2 -3.89875e-17 0)
(2 -1.48855e-18 0)
(2 9.4294e-18 0)
(2 -1.49362e-18 0)
(2 2.04475e-17 0)
(2 1.3693e-16 0)
(2 2.67865e-16 0)
(2 2.59795e-16 0)
(2 1.32204e-16 0)
(2 6.16551e-17 0)
(2 1.10295e-16 0)
(2 -2.83604e-16 0)
(2 -4.5708e-16 0)
(2 -6.08267e-16 0)
(2 -7.8712e-16 0)
(2 -8.1752e-16 0)
(2 -7.44004e-16 0)
(2 -5.66332e-16 0)
(2 -1.88859e-16 0)
(2 -1.60035e-17 0)
(2 2.45365e-17 0)
(2 1.05056e-16 0)
(2 1.61741e-16 0)
(2 1.8689e-16 0)
(2 3.48639e-16 0)
(2 4.62299e-16 0)
(2 7.48049e-16 0)
(2 1.02753e-15 0)
(2 1.16163e-15 0)
(2 1.20168e-15 0)
(2 1.21256e-15 0)
(2 1.20513e-15 0)
(2 1.11693e-15 0)
(2 1.31307e-15 0)
(2 1.36022e-15 0)
(2 1.42901e-15 0)
(2 1.72166e-15 0)
(2 2.32755e-15 0)
(2 2.59072e-15 0)
(2 2.569e-15 0)
(2 2.1423e-15 0)
(2 2.14626e-15 0)
(2 2.218e-15 0)
(2 2.27653e-15 0)
(2 2.31201e-15 0)
(2 2.2477e-15 0)
(2 2.31571e-15 0)
(2 2.17642e-15 0)
(2 2.14486e-15 0)
(2 1.8236e-15 0)
(2 1.78285e-15 0)
(2 1.48164e-15 0)
(2 1.3587e-15 0)
(2 1.04898e-15 0)
(2 8.14963e-16 0)
(2 7.83245e-16 0)
(2 9.68547e-16 0)
(2 1.0727e-15 0)
(2 1.22512e-15 0)
(2 1.00246e-15 0)
(2 9.3917e-16 0)
(2 5.37512e-16 0)
(2 4.63731e-16 0)
(2 7.79591e-16 0)
(2 1.16261e-15 0)
(2 1.37214e-15 0)
(2 1.29776e-15 0)
(2 9.91533e-16 0)
(2 8.22501e-16 0)
(2 8.29367e-16 0)
(2 1.05573e-15 0)
(2 1.24183e-15 0)
(2 1.20013e-15 0)
(2 9.25105e-16 0)
(2 6.43627e-16 0)
(2 5.6963e-16 0)
(2 7.61309e-16 0)
(2 8.15572e-16 0)
(2 8.44883e-16 0)
(2 7.8342e-16 0)
(2 3.48896e-16 0)
(2 1.44627e-16 0)
(2 1.71985e-16 0)
(2 3.10412e-16 0)
(2 5.5185e-16 0)
(2 8.49021e-16 0)
(2 8.35318e-16 0)
(2 6.60104e-16 0)
(2 3.86901e-16 0)
(2 1.71114e-16 0)
(2 -1.4069e-16 0)
(2 -2.44573e-16 0)
(2 -1.94218e-16 0)
(2 -1.47392e-16 0)
(2 -1.86356e-16 0)
(2 -2.25128e-16 0)
(2 -4.09928e-16 0)
(2 -4.9498e-16 0)
(2 -4.34704e-16 0)
(2 -4.17193e-16 0)
(2 -2.43732e-16 0)
(2 -2.8956e-16 0)
(2 -1.43605e-16 0)
(2 -1.16825e-16 0)
(2 -1.22442e-16 0)
(2 -2.39855e-16 0)
(2 -4.45656e-16 0)
(2 -3.67778e-16 0)
(2 -3.39851e-16 0)
(2 2.65147e-17 0)
(2 3.38702e-16 0)
(2 5.68539e-16 0)
(2 7.82926e-16 0)
(2 7.04416e-16 0)
(2 6.67037e-16 0)
(2 7.7034e-16 0)
(2 8.6419e-16 0)
(2 8.85605e-16 0)
(2 7.62257e-16 0)
(2 6.3736e-16 0)
(2 6.48118e-16 0)
(2 4.44045e-16 0)
(2 4.47498e-16 0)
(2 9.62233e-16 0)
(2 1.12567e-15 0)
(2 1.17034e-15 0)
(2 4.9306e-16 0)
(2 -6.87353e-18 0)
(2 1.72096e-18 0)
(2 -3.43405e-18 0)
(2 9.12421e-18 0)
(2 -1.20752e-18 0)
(2 2.9013e-17 0)
(2 5.68735e-17 0)
(2 6.82873e-19 0)
(2 -1.90847e-17 0)
(2 -6.34998e-18 0)
(2 4.8794e-17 0)
(2 -7.06265e-18 0)
(2 -1.04903e-17 0)
(2 1.06734e-16 0)
(2 2.93996e-16 0)
(2 5.65133e-16 0)
(2 7.27035e-16 0)
(2 7.47974e-16 0)
(2 6.476e-16 0)
(2 6.73559e-16 0)
(2 7.42574e-16 0)
(2 6.93703e-16 0)
(2 6.52356e-16 0)
(2 5.89851e-16 0)
(2 6.03311e-16 0)
(2 6.5844e-16 0)
(2 7.27208e-16 0)
(2 6.72613e-16 0)
(2 1.07561e-15 0)
(2 1.56208e-15 0)
(2 1.69918e-15 0)
(2 1.69419e-15 0)
(2 1.59609e-15 0)
(2 1.48789e-15 0)
(2 1.35057e-15 0)
(2 1.13219e-15 0)
(2 8.04052e-16 0)
(2 5.3099e-16 0)
(2 5.04697e-16 0)
(2 5.31686e-16 0)
(2 6.54658e-16 0)
(2 9.1499e-16 0)
(2 8.75112e-16 0)
(2 7.93831e-16 0)
(2 6.64838e-16 0)
(2 6.6863e-16 0)
(2 7.63307e-16 0)
(2 9.83721e-16 0)
(2 1.05086e-15 0)
(2 1.04242e-15 0)
(2 1.0287e-15 0)
(2 8.53135e-16 0)
(2 7.30252e-16 0)
(2 7.45213e-16 0)
(2 8.10465e-16 0)
(2 8.50533e-16 0)
(2 8.08817e-16 0)
(2 9.8814e-16 0)
(2 8.16168e-16 0)
(2 5.54493e-16 0)
(2 4.87981e-16 0)
(2 5.37867e-16 0)
(2 6.81674e-16 0)
(2 8.34285e-16 0)
(2 9.48715e-16 0)
(2 1.02444e-15 0)
(2 1.09623e-15 0)
(2 1.60995e-15 0)
(2 2.20347e-15 0)
(2 2.57546e-15 0)
(2 3.09127e-15 0)
(2 3.32766e-15 0)
(2 3.42904e-15 0)
(2 3.37763e-15 0)
(2 3.40661e-15 0)
(2 3.39488e-15 0)
(2 3.15974e-15 0)
(2 2.96437e-15 0)
(2 2.943e-15 0)
(2 2.51387e-15 0)
(2 2.1317e-15 0)
(2 1.93043e-15 0)
(2 1.63507e-15 0)
(2 1.41469e-15 0)
(2 1.35697e-15 0)
(2 8.17232e-16 0)
(2 5.26211e-16 0)
(2 1.95597e-16 0)
(2 1.58235e-16 0)
(2 7.80381e-17 0)
(2 -1.51146e-17 0)
(2 -2.66303e-16 0)
(2 -5.70972e-16 0)
(2 -9.38663e-16 0)
(2 -1.11664e-15 0)
(2 -1.36319e-15 0)
(2 -1.43639e-15 0)
(2 -1.44554e-15 0)
(2 -1.36403e-15 0)
(2 -1.28861e-15 0)
(2 -1.07614e-15 0)
(2 -9.68874e-16 0)
(2 -8.91733e-16 0)
(2 -7.18777e-16 0)
(2 -6.09794e-16 0)
(2 -4.49468e-16 0)
(2 -4.80061e-16 0)
(2 -5.44334e-16 0)
(2 -5.30899e-16 0)
(2 -4.98353e-16 0)
(2 -4.98287e-16 0)
(2 -3.47056e-16 0)
(2 -1.07154e-16 0)
(2 -5.32494e-16 0)
(2 2.3972e-16 0)
(2 3.86363e-16 0)
(2 3.88894e-16 0)
(2 4.19273e-16 0)
(2 6.35206e-16 0)
(2 8.31819e-16 0)
(2 9.94855e-16 0)
(2 8.72353e-16 0)
(2 8.52323e-16 0)
(2 1.58935e-15 0)
(2 1.99945e-15 0)
(2 2.08782e-15 0)
(2 2.07673e-15 0)
(2 1.82456e-15 0)
(2 1.75462e-15 0)
(2 1.66409e-15 0)
(2 1.4121e-15 0)
(2 1.22221e-15 0)
(2 9.98086e-18 0)
(2 -6.52853e-17 0)
(2 -6.78791e-17 0)
(2 -1.96556e-17 0)
(2 3.71607e-17 0)
(2 9.45071e-17 0)
(2 1.31718e-16 0)
(2 1.839e-16 0)
(2 2.8596e-16 0)
(2 4.61489e-16 0)
(2 4.89741e-16 0)
(2 3.95923e-16 0)
(2 3.43292e-16 0)
(2 5.24588e-16 0)
(2 6.67855e-16 0)
(2 8.20956e-16 0)
(2 8.88843e-16 0)
(2 1.06991e-15 0)
(2 1.16096e-15 0)
(2 1.31217e-15 0)
(2 1.324e-15 0)
(2 1.35156e-15 0)
(2 1.15126e-15 0)
(2 1.1536e-15 0)
(2 1.22829e-15 0)
(2 8.63978e-16 0)
(2 5.48211e-16 0)
(2 2.76748e-16 0)
(2 2.86698e-16 0)
(2 4.54141e-16 0)
(2 6.37188e-16 0)
(2 7.04484e-16 0)
(2 6.67206e-16 0)
(2 5.71907e-16 0)
(2 4.86283e-16 0)
(2 4.71348e-16 0)
(2 5.53012e-16 0)
(2 7.40603e-16 0)
(2 4.25817e-16 0)
(2 2.49114e-16 0)
(2 5.43856e-17 0)
(2 1.82754e-16 0)
(2 3.22944e-16 0)
(2 4.8531e-16 0)
(2 7.2057e-16 0)
(2 9.56912e-16 0)
(2 1.13916e-15 0)
(2 1.10208e-15 0)
(2 1.04002e-15 0)
(2 9.83125e-16 0)
(2 8.06137e-16 0)
(2 6.72652e-16 0)
(2 2.04854e-16 0)
(2 -2.01031e-16 0)
(2 -3.91775e-16 0)
(2 -2.89987e-16 0)
(2 -2.06141e-16 0)
(2 -8.92203e-17 0)
(2 -8.04913e-17 0)
(2 -2.9123e-17 0)
(2 -2.35302e-16 0)
(2 -3.79821e-16 0)
(2 -3.77959e-16 0)
(2 -2.69838e-16 0)
(2 -7.02509e-17 0)
(2 2.45766e-16 0)
(2 4.00473e-16 0)
(2 1.14405e-15 0)
(2 1.31295e-15 0)
(2 1.4888e-15 0)
(2 1.59128e-15 0)
(2 1.71826e-15 0)
(2 1.92466e-15 0)
(2 2.09829e-15 0)
(2 2.23865e-15 0)
(2 2.08085e-15 0)
(2 2.03069e-15 0)
(2 1.91961e-15 0)
(2 1.84622e-15 0)
(2 1.80397e-15 0)
(2 1.78509e-15 0)
(2 1.76254e-15 0)
(2 1.67737e-15 0)
(2 1.58268e-15 0)
(2 1.45039e-15 0)
(2 1.25981e-15 0)
(2 1.30261e-15 0)
(2 1.0946e-15 0)
(2 4.99865e-16 0)
(2 3.26679e-16 0)
(2 2.8194e-16 0)
(2 3.09559e-16 0)
(2 3.95239e-16 0)
(2 4.38439e-16 0)
(2 5.19983e-16 0)
(2 6.85639e-16 0)
(2 8.08807e-16 0)
(2 7.92144e-16 0)
(2 9.09654e-16 0)
(2 9.85785e-16 0)
(2 1.02927e-15 0)
(2 1.24642e-15 0)
(2 1.3672e-15 0)
(2 8.96934e-16 0)
(2 7.10309e-16 0)
(2 5.34271e-16 0)
(2 1.41371e-16 0)
(2 8.99709e-17 0)
(2 8.59163e-17 0)
(2 7.53079e-17 0)
(2 1.14089e-16 0)
(2 3.49986e-16 0)
(2 5.13745e-16 0)
(2 3.16815e-16 0)
(2 1.37822e-16 0)
(2 -4.12804e-17 0)
(2 -2.34745e-16 0)
(2 2.03903e-16 0)
(2 5.3089e-16 0)
(2 5.04114e-16 0)
(2 6.52373e-16 0)
(2 7.01045e-16 0)
(2 8.168e-16 0)
(2 1.27955e-15 0)
(2 1.93642e-15 0)
(2 2.18626e-15 0)
(2 2.33367e-15 0)
(2 2.00857e-15 0)
(2 1.79843e-15 0)
(2 1.58801e-15 0)
(2 1.35775e-15 0)
(2 1.19801e-15 0)
(2 8.0323e-18 0)
(2 9.79536e-18 0)
(2 2.53995e-17 0)
(2 5.07757e-17 0)
(2 8.96595e-17 0)
(2 1.35387e-16 0)
(2 1.18551e-16 0)
(2 1.69415e-16 0)
(2 1.92976e-16 0)
(2 3.33333e-16 0)
(2 2.22692e-16 0)
(2 1.64756e-16 0)
(2 -1.42725e-16 0)
(2 -3.63867e-16 0)
(2 -5.98601e-16 0)
(2 -6.73833e-16 0)
(2 -6.9547e-16 0)
(2 -3.34633e-16 0)
(2 -2.22485e-16 0)
(2 -2.29808e-16 0)
(2 -2.86266e-16 0)
(2 -5.42206e-16 0)
(2 -5.95826e-16 0)
(2 -3.89123e-16 0)
(2 -3.73224e-16 0)
(2 -3.90168e-16 0)
(2 -3.46835e-16 0)
(2 -3.60581e-16 0)
(2 -4.71944e-16 0)
(2 -7.98729e-16 0)
(2 -8.86735e-16 0)
(2 -7.25021e-16 0)
(2 -3.28859e-16 0)
(2 -1.86171e-18 0)
(2 2.90446e-16 0)
(2 5.6343e-16 0)
(2 6.93214e-16 0)
(2 5.47164e-16 0)
(2 2.35405e-16 0)
(2 2.17604e-16 0)
(2 8.86618e-16 0)
(2 1.0864e-15 0)
(2 1.1884e-15 0)
(2 1.42447e-15 0)
(2 1.6139e-15 0)
(2 1.86773e-15 0)
(2 1.59179e-15 0)
(2 1.15742e-15 0)
(2 1.37445e-15 0)
(2 1.53786e-15 0)
(2 1.47833e-15 0)
(2 1.3031e-15 0)
(2 1.21827e-15 0)
(2 4.76417e-16 0)
(2 3.91883e-17 0)
(2 -2.2277e-17 0)
(2 -3.55699e-17 0)
(2 -3.75249e-17 0)
(2 -3.06931e-17 0)
(2 -3.56762e-17 0)
(2 -1.33812e-16 0)
(2 -2.45527e-16 0)
(2 -4.46372e-16 0)
(2 -7.49872e-16 0)
(2 -7.35473e-16 0)
(2 -6.32862e-16 0)
(2 -7.57507e-16 0)
(2 -1.2006e-15 0)
(2 -1.38208e-15 0)
(2 -1.43504e-15 0)
(2 -1.4546e-15 0)
(2 -1.4188e-15 0)
(2 -1.30172e-15 0)
(2 -1.28687e-15 0)
(2 -1.20458e-15 0)
(2 -1.18608e-15 0)
(2 -1.1078e-15 0)
(2 -9.58219e-16 0)
(2 -5.53944e-16 0)
(2 -4.80729e-18 0)
(2 4.3309e-16 0)
(2 6.24684e-16 0)
(2 8.51154e-16 0)
(2 1.08535e-15 0)
(2 1.23187e-15 0)
(2 1.20619e-15 0)
(2 1.12998e-15 0)
(2 1.04546e-15 0)
(2 1.03093e-15 0)
(2 1.02684e-15 0)
(2 1.04271e-15 0)
(2 1.07107e-15 0)
(2 1.23343e-15 0)
(2 1.50419e-15 0)
(2 1.82147e-15 0)
(2 2.00764e-15 0)
(2 2.18557e-15 0)
(2 2.00975e-15 0)
(2 1.99581e-15 0)
(2 2.01368e-15 0)
(2 2.09741e-15 0)
(2 2.0773e-15 0)
(2 2.03663e-15 0)
(2 1.9327e-15 0)
(2 1.62301e-15 0)
(2 1.55256e-15 0)
(2 1.29898e-15 0)
(2 1.08579e-15 0)
(2 9.11446e-16 0)
(2 8.80902e-16 0)
(2 7.47384e-16 0)
(2 9.8793e-16 0)
(2 1.13689e-15 0)
(2 1.47346e-15 0)
(2 1.3509e-15 0)
(2 1.27336e-15 0)
(2 1.23591e-15 0)
(2 1.225e-15 0)
(2 9.18657e-16 0)
(2 8.18807e-16 0)
(2 7.22574e-16 0)
(2 4.53026e-16 0)
(2 4.01548e-16 0)
(2 4.81228e-16 0)
(2 5.25224e-16 0)
(2 7.15753e-16 0)
(2 9.08166e-16 0)
(2 1.2165e-15 0)
(2 1.43156e-15 0)
(2 1.42139e-15 0)
(2 1.55176e-15 0)
(2 1.61123e-15 0)
(2 -4.99316e-18 0)
(2 2.44051e-17 0)
(2 6.59729e-17 0)
(2 9.10688e-17 0)
(2 9.94418e-17 0)
(2 6.18522e-17 0)
(2 5.49865e-17 0)
(2 -5.95008e-17 0)
(2 -1.03822e-16 0)
(2 -9.79377e-17 0)
(2 -1.0831e-16 0)
(2 -8.8718e-17 0)
(2 -1.34466e-16 0)
(2 -3.76965e-16 0)
(2 -5.03425e-16 0)
(2 -5.75831e-16 0)
(2 -5.09288e-16 0)
(2 -4.79366e-16 0)
(2 -4.25938e-16 0)
(2 -2.6405e-16 0)
(2 -2.64595e-16 0)
(2 -4.80088e-16 0)
(2 -4.74325e-16 0)
(2 -8.81398e-17 0)
(2 1.66223e-16 0)
(2 1.59089e-16 0)
(2 1.45023e-16 0)
(2 -4.46119e-18 0)
(2 -2.12589e-16 0)
(2 -4.26981e-16 0)
(2 -5.04931e-16 0)
(2 -6.03421e-16 0)
(2 -6.66012e-16 0)
(2 -7.40298e-16 0)
(2 -5.20914e-16 0)
(2 -4.11473e-16 0)
(2 -3.82868e-16 0)
(2 -3.78845e-16 0)
(2 -3.67672e-16 0)
(2 -1.51708e-17 0)
(2 4.6296e-17 0)
(2 6.95055e-17 0)
(2 1.78985e-16 0)
(2 3.52432e-16 0)
(2 4.35898e-16 0)
(2 3.74919e-16 0)
(2 1.18041e-16 0)
(2 -6.43663e-17 0)
(2 -1.58112e-16 0)
(2 -2.53968e-16 0)
(2 -3.40225e-16 0)
(2 -4.80588e-16 0)
(2 -4.04603e-16 0)
(2 -3.06022e-16 0)
(2 -2.47415e-16 0)
(2 -2.19034e-16 0)
(2 -1.2068e-16 0)
(2 -6.54468e-18 0)
(2 5.3235e-17 0)
(2 7.67441e-17 0)
(2 1.2922e-16 0)
(2 1.04793e-17 0)
(2 -2.97811e-16 0)
(2 -5.16136e-16 0)
(2 -8.09735e-16 0)
(2 -7.61652e-16 0)
(2 -7.74502e-16 0)
(2 -9.96354e-16 0)
(2 -1.0502e-15 0)
(2 -1.00685e-15 0)
(2 -1.05704e-15 0)
(2 -1.15516e-15 0)
(2 -9.67592e-16 0)
(2 -9.96994e-16 0)
(2 -7.50451e-16 0)
(2 -4.3583e-16 0)
(2 -4.44519e-17 0)
(2 1.73206e-16 0)
(2 1.8218e-16 0)
(2 1.32505e-16 0)
(2 1.12408e-16 0)
(2 3.5788e-16 0)
(2 6.75654e-16 0)
(2 8.07208e-16 0)
(2 8.52259e-16 0)
(2 9.2348e-16 0)
(2 1.02955e-15 0)
(2 1.00143e-15 0)
(2 1.11765e-15 0)
(2 1.25295e-15 0)
(2 1.39009e-15 0)
(2 1.48839e-15 0)
(2 1.49584e-15 0)
(2 1.55985e-15 0)
(2 1.79787e-15 0)
(2 2.24386e-15 0)
(2 2.32985e-15 0)
(2 2.547e-15 0)
(2 2.66836e-15 0)
(2 2.512e-15 0)
(2 2.54016e-15 0)
(2 2.52233e-15 0)
(2 2.18555e-15 0)
(2 2.12625e-15 0)
(2 2.14949e-15 0)
(2 2.04683e-15 0)
(2 1.88636e-15 0)
(2 1.8041e-15 0)
(2 1.72197e-15 0)
(2 1.52812e-15 0)
(2 1.42266e-15 0)
(2 1.44669e-15 0)
(2 1.21194e-15 0)
(2 1.15459e-15 0)
(2 9.33768e-16 0)
(2 8.98196e-16 0)
(2 6.92398e-16 0)
(2 1.90678e-16 0)
(2 9.68398e-17 0)
(2 1.4773e-16 0)
(2 2.77123e-16 0)
(2 2.61787e-16 0)
(2 5.22289e-16 0)
(2 8.36172e-16 0)
(2 1.05216e-15 0)
(2 1.16149e-15 0)
(2 1.15338e-15 0)
(2 1.48084e-15 0)
(2 2.07063e-15 0)
(2 2.0602e-15 0)
(2 2.10057e-15 0)
(2 2.23162e-15 0)
(2 1.92718e-17 0)
(2 -3.27816e-18 0)
(2 -2.8651e-17 0)
(2 -4.61691e-17 0)
(2 9.70576e-17 0)
(2 8.89968e-17 0)
(2 8.24798e-17 0)
(2 1.43874e-17 0)
(2 -5.77583e-17 0)
(2 6.70205e-17 0)
(2 6.6802e-17 0)
(2 4.27949e-17 0)
(2 2.97745e-17 0)
(2 1.17765e-16 0)
(2 3.50157e-17 0)
(2 -1.16118e-16 0)
(2 -1.65721e-16 0)
(2 -1.42699e-16 0)
(2 -1.16167e-16 0)
(2 2.08964e-17 0)
(2 1.50002e-16 0)
(2 3.57483e-16 0)
(2 4.77532e-16 0)
(2 5.01907e-16 0)
(2 2.42865e-16 0)
(2 -2.05323e-16 0)
(2 -3.94023e-16 0)
(2 -5.33215e-16 0)
(2 -3.00539e-16 0)
(2 -1.04115e-16 0)
(2 9.88463e-17 0)
(2 -1.47788e-16 0)
(2 -2.75894e-16 0)
(2 -3.99445e-16 0)
(2 -4.79409e-16 0)
(2 -7.48971e-16 0)
(2 -7.18208e-16 0)
(2 -7.06507e-16 0)
(2 -6.98604e-16 0)
(2 -4.66615e-16 0)
(2 -8.84159e-16 0)
(2 -1.35321e-15 0)
(2 -1.43402e-15 0)
(2 -1.55615e-15 0)
(2 -1.68097e-15 0)
(2 -1.81213e-15 0)
(2 -1.86238e-15 0)
(2 -1.75089e-15 0)
(2 -1.66518e-15 0)
(2 -1.41776e-15 0)
(2 -1.26474e-15 0)
(2 -8.66435e-16 0)
(2 -4.85897e-16 0)
(2 -2.23655e-16 0)
(2 -2.45068e-16 0)
(2 -3.21026e-16 0)
(2 -3.30761e-16 0)
(2 -2.46748e-16 0)
(2 -1.24332e-16 0)
(2 -1.15216e-16 0)
(2 -7.83296e-17 0)
(2 -6.95192e-17 0)
(2 -1.89075e-16 0)
(2 -2.17883e-16 0)
(2 -8.27264e-16 0)
(2 -8.77647e-16 0)
(2 -8.48281e-16 0)
(2 -6.073e-16 0)
(2 8.28454e-17 0)
(2 3.48589e-16 0)
(2 6.86206e-16 0)
(2 7.85324e-16 0)
(2 6.24793e-16 0)
(2 5.45587e-16 0)
(2 5.42754e-16 0)
(2 6.66039e-16 0)
(2 8.30052e-16 0)
(2 8.92628e-16 0)
(2 7.56181e-16 0)
(2 6.42974e-16 0)
(2 6.40125e-16 0)
(2 8.39982e-16 0)
(2 9.06037e-16 0)
(2 1.0811e-15 0)
(2 1.20083e-15 0)
(2 1.358e-15 0)
(2 1.43581e-15 0)
(2 1.55948e-15 0)
(2 1.40096e-15 0)
(2 1.37051e-15 0)
(2 1.41081e-15 0)
(2 1.51299e-15 0)
(2 1.46043e-15 0)
(2 1.3928e-15 0)
(2 1.35049e-15 0)
(2 1.60805e-15 0)
(2 1.75261e-15 0)
(2 1.84698e-15 0)
(2 1.84329e-15 0)
(2 1.80587e-15 0)
(2 1.76966e-15 0)
(2 1.76354e-15 0)
(2 1.70218e-15 0)
(2 1.67131e-15 0)
(2 1.68005e-15 0)
(2 1.70295e-15 0)
(2 1.72994e-15 0)
(2 1.8266e-15 0)
(2 1.90383e-15 0)
(2 1.96672e-15 0)
(2 2.0986e-15 0)
(2 2.07736e-15 0)
(2 1.69407e-15 0)
(2 1.50485e-15 0)
(2 1.20762e-15 0)
(2 7.69962e-16 0)
(2 5.92862e-16 0)
(2 2.01069e-16 0)
(2 2.50757e-16 0)
(2 3.63959e-16 0)
(2 3.95399e-16 0)
(2 9.81038e-16 0)
(2 1.18606e-15 0)
(2 1.30607e-15 0)
(2 1.50678e-15 0)
(2 1.47735e-15 0)
(2 1.60268e-15 0)
(2 2.15309e-15 0)
(2 2.80904e-15 0)
(2 2.88699e-15 0)
(2 3.02929e-15 0)
(2 3.11097e-15 0)
(2 -6.68921e-18 0)
(2 2.97613e-17 0)
(2 1.85548e-17 0)
(2 -4.07761e-17 0)
(2 -7.0653e-17 0)
(2 -6.87375e-17 0)
(2 -1.3747e-17 0)
(2 1.1168e-16 0)
(2 1.12751e-16 0)
(2 1.88973e-17 0)
(2 -4.4653e-17 0)
(2 -9.51461e-17 0)
(2 -4.00747e-17 0)
(2 1.69734e-16 0)
(2 2.97584e-16 0)
(2 2.38085e-16 0)
(2 1.31914e-16 0)
(2 4.29422e-17 0)
(2 1.09789e-16 0)
(2 -3.96898e-17 0)
(2 -1.39188e-16 0)
(2 -1.62953e-16 0)
(2 -3.24512e-16 0)
(2 -6.95906e-16 0)
(2 -9.10686e-16 0)
(2 -9.48129e-16 0)
(2 -1.00549e-15 0)
(2 -1.02371e-15 0)
(2 -1.12164e-15 0)
(2 -1.12434e-15 0)
(2 -1.18653e-15 0)
(2 -1.13458e-15 0)
(2 -1.07207e-15 0)
(2 -1.01988e-15 0)
(2 -1.07963e-15 0)
(2 -1.16317e-15 0)
(2 -1.12817e-15 0)
(2 -1.00554e-15 0)
(2 -1.00743e-15 0)
(2 -9.89675e-16 0)
(2 -1.00917e-15 0)
(2 -1.04985e-15 0)
(2 -1.04636e-15 0)
(2 -1.02462e-15 0)
(2 -1.00743e-15 0)
(2 -8.85327e-16 0)
(2 -6.86998e-16 0)
(2 -5.51449e-16 0)
(2 -4.96552e-16 0)
(2 -4.5455e-16 0)
(2 -5.47329e-16 0)
(2 -2.77301e-16 0)
(2 5.47533e-16 0)
(2 8.10946e-16 0)
(2 1.3127e-15 0)
(2 1.48394e-15 0)
(2 1.60267e-15 0)
(2 1.54963e-15 0)
(2 1.39578e-15 0)
(2 1.307e-15 0)
(2 1.26614e-15 0)
(2 1.20055e-15 0)
(2 1.18159e-15 0)
(2 1.16126e-15 0)
(2 7.4326e-16 0)
(2 4.48286e-16 0)
(2 -1.91011e-17 0)
(2 -3.26987e-16 0)
(2 -4.02721e-16 0)
(2 -4.62211e-16 0)
(2 -4.53204e-16 0)
(2 -3.30498e-16 0)
(2 -1.94233e-16 0)
(2 -3.51291e-16 0)
(2 -4.71377e-16 0)
(2 -5.10343e-16 0)
(2 -6.40044e-16 0)
(2 -7.39671e-16 0)
(2 -6.01372e-16 0)
(2 -1.44918e-17 0)
(2 7.28508e-16 0)
(2 9.75936e-16 0)
(2 8.01837e-16 0)
(2 9.8218e-16 0)
(2 1.43468e-15 0)
(2 1.53446e-15 0)
(2 1.64525e-15 0)
(2 1.69587e-15 0)
(2 1.80247e-15 0)
(2 1.66586e-15 0)
(2 1.81214e-15 0)
(2 2.1193e-15 0)
(2 1.92083e-15 0)
(2 1.09284e-15 0)
(2 9.43647e-16 0)
(2 7.37232e-16 0)
(2 6.73157e-16 0)
(2 4.91969e-16 0)
(2 1.13339e-16 0)
(2 -4.50719e-17 0)
(2 -2.43459e-16 0)
(2 -4.17589e-16 0)
(2 -2.01414e-16 0)
(2 -9.73878e-17 0)
(2 -1.72538e-17 0)
(2 3.24317e-17 0)
(2 2.19806e-16 0)
(2 3.6879e-16 0)
(2 7.90231e-16 0)
(2 8.48121e-16 0)
(2 7.45626e-16 0)
(2 5.68319e-16 0)
(2 5.93369e-16 0)
(2 5.32537e-16 0)
(2 3.51828e-16 0)
(2 7.47616e-16 0)
(2 1.04462e-15 0)
(2 1.33299e-15 0)
(2 1.81674e-15 0)
(2 2.16319e-15 0)
(2 2.57869e-15 0)
(2 2.52119e-15 0)
(2 2.3413e-15 0)
(2 2.04109e-15 0)
(2 1.37169e-15 0)
(2 1.13225e-15 0)
(2 1.07003e-15 0)
(2 1.18748e-15 0)
(2 1.2731e-15 0)
(2 1.47725e-15 0)
(2 1.58952e-15 0)
(2 1.54057e-15 0)
(2 -7.41109e-18 0)
(2 5.10059e-17 0)
(2 2.73185e-17 0)
(2 3.93286e-17 0)
(2 -6.4024e-17 0)
(2 -2.13431e-16 0)
(2 -2.42267e-16 0)
(2 -2.07703e-16 0)
(2 -1.59449e-16 0)
(2 -3.86602e-16 0)
(2 -4.36234e-16 0)
(2 -4.05672e-16 0)
(2 -3.78012e-16 0)
(2 -1.46409e-16 0)
(2 1.43864e-17 0)
(2 6.01345e-17 0)
(2 -5.19145e-17 0)
(2 -1.35103e-16 0)
(2 -2.9055e-16 0)
(2 -4.27715e-16 0)
(2 -4.90264e-16 0)
(2 -6.98238e-16 0)
(2 -7.7007e-16 0)
(2 -7.7293e-16 0)
(2 -7.06927e-16 0)
(2 -6.26807e-16 0)
(2 -4.95372e-16 0)
(2 -4.8181e-16 0)
(2 -6.75931e-16 0)
(2 -9.46869e-16 0)
(2 -1.10507e-15 0)
(2 -1.25968e-15 0)
(2 -1.31497e-15 0)
(2 -1.37483e-15 0)
(2 -1.44527e-15 0)
(2 -1.38887e-15 0)
(2 -1.30612e-15 0)
(2 -1.2288e-15 0)
(2 -1.00183e-15 0)
(2 -8.46628e-16 0)
(2 -6.45465e-16 0)
(2 -4.53681e-16 0)
(2 -1.79884e-16 0)
(2 -3.09205e-17 0)
(2 4.78988e-17 0)
(2 3.25156e-16 0)
(2 4.4384e-16 0)
(2 4.14353e-16 0)
(2 1.97552e-16 0)
(2 1.19661e-16 0)
(2 1.74872e-16 0)
(2 2.08499e-16 0)
(2 6.81543e-18 0)
(2 -1.1587e-16 0)
(2 4.56127e-16 0)
(2 9.36364e-16 0)
(2 1.1929e-15 0)
(2 1.72045e-15 0)
(2 1.69585e-15 0)
(2 1.50686e-15 0)
(2 1.28617e-15 0)
(2 1.21192e-15 0)
(2 1.20278e-15 0)
(2 1.19807e-15 0)
(2 1.09393e-15 0)
(2 9.43279e-16 0)
(2 1.88393e-16 0)
(2 -1.23168e-16 0)
(2 -5.06774e-16 0)
(2 -8.07797e-16 0)
(2 -1.01947e-15 0)
(2 -1.12031e-15 0)
(2 -1.02654e-15 0)
(2 -8.85477e-16 0)
(2 -8.60868e-16 0)
(2 -1.18812e-15 0)
(2 -1.52875e-15 0)
(2 -1.03918e-15 0)
(2 -7.92114e-16 0)
(2 -5.77866e-16 0)
(2 -3.67828e-16 0)
(2 -4.11213e-16 0)
(2 -3.44926e-18 0)
(2 4.52404e-16 0)
(2 7.02719e-16 0)
(2 6.37467e-16 0)
(2 5.51889e-16 0)
(2 6.40142e-16 0)
(2 9.2954e-16 0)
(2 1.19278e-15 0)
(2 1.82909e-15 0)
(2 1.7159e-15 0)
(2 1.36257e-15 0)
(2 6.96885e-16 0)
(2 2.51501e-16 0)
(2 -6.34394e-16 0)
(2 -1.16933e-15 0)
(2 -1.3247e-15 0)
(2 -1.20503e-15 0)
(2 -7.72396e-16 0)
(2 -5.63537e-16 0)
(2 -5.5347e-16 0)
(2 -5.90633e-16 0)
(2 -8.33282e-16 0)
(2 -7.308e-16 0)
(2 -6.59539e-16 0)
(2 -5.26262e-16 0)
(2 -4.39863e-16 0)
(2 -4.13425e-16 0)
(2 -4.89663e-16 0)
(2 -4.47025e-16 0)
(2 -4.56353e-16 0)
(2 -4.10637e-16 0)
(2 -5.69297e-16 0)
(2 -7.06447e-16 0)
(2 -1.21946e-16 0)
(2 -7.1071e-17 0)
(2 3.06519e-16 0)
(2 7.64544e-16 0)
(2 1.12128e-15 0)
(2 1.61717e-15 0)
(2 1.65803e-15 0)
(2 1.55495e-15 0)
(2 1.4973e-15 0)
(2 1.17876e-15 0)
(2 9.72044e-16 0)
(2 8.33186e-16 0)
(2 3.6783e-16 0)
(2 1.66408e-17 0)
(2 -2.08626e-17 0)
(2 -1.09984e-16 0)
(2 -3.30404e-16 0)
(2 -5.45162e-17 0)
(2 -8.19593e-17 0)
(2 -1.20272e-16 0)
(2 -1.06343e-16 0)
(2 -2.25082e-17 0)
(2 -1.6323e-16 0)
(2 -2.86041e-16 0)
(2 -3.41596e-16 0)
(2 -3.25446e-16 0)
(2 -5.64412e-16 0)
(2 -5.57545e-16 0)
(2 -4.72691e-16 0)
(2 -1.82521e-16 0)
(2 6.17366e-17 0)
(2 3.09987e-17 0)
(2 1.06158e-16 0)
(2 1.85449e-16 0)
(2 1.71451e-16 0)
(2 2.40608e-16 0)
(2 2.10992e-16 0)
(2 1.11694e-16 0)
(2 4.42957e-17 0)
(2 4.66939e-17 0)
(2 5.50389e-17 0)
(2 1.35365e-16 0)
(2 1.93609e-16 0)
(2 3.42154e-16 0)
(2 5.12009e-16 0)
(2 6.18583e-16 0)
(2 6.56577e-16 0)
(2 4.68499e-16 0)
(2 2.92455e-16 0)
(2 1.71472e-16 0)
(2 9.76877e-18 0)
(2 -3.22861e-17 0)
(2 2.56591e-16 0)
(2 3.92259e-16 0)
(2 4.38986e-16 0)
(2 4.51633e-16 0)
(2 3.66904e-16 0)
(2 3.90572e-16 0)
(2 5.02112e-16 0)
(2 2.5819e-16 0)
(2 -4.8242e-17 0)
(2 -1.18599e-16 0)
(2 -1.05585e-16 0)
(2 -2.14397e-16 0)
(2 -2.50285e-16 0)
(2 -2.07962e-16 0)
(2 -5.26041e-18 0)
(2 1.38858e-16 0)
(2 8.88049e-17 0)
(2 2.31911e-16 0)
(2 2.00451e-16 0)
(2 5.49389e-17 0)
(2 -1.97605e-16 0)
(2 -5.16255e-16 0)
(2 -5.0932e-16 0)
(2 -6.30931e-16 0)
(2 -7.56558e-16 0)
(2 -1.0008e-15 0)
(2 -9.03648e-16 0)
(2 -6.63804e-16 0)
(2 -5.5137e-16 0)
(2 -3.91977e-16 0)
(2 -1.82145e-16 0)
(2 -1.72584e-16 0)
(2 -2.22774e-16 0)
(2 -2.21375e-16 0)
(2 -6.35795e-16 0)
(2 -7.54611e-16 0)
(2 -8.57746e-16 0)
(2 -7.84061e-16 0)
(2 -7.99199e-16 0)
(2 -9.75259e-16 0)
(2 -1.26654e-15 0)
(2 -1.7289e-15 0)
(2 -1.50218e-15 0)
(2 -1.19256e-15 0)
(2 -1.17056e-15 0)
(2 -1.21258e-15 0)
(2 -1.01882e-15 0)
(2 -8.16282e-16 0)
(2 -5.49712e-16 0)
(2 -3.28212e-16 0)
(2 -5.8295e-16 0)
(2 -7.67256e-16 0)
(2 -5.91614e-16 0)
(2 2.53202e-17 0)
(2 4.23469e-16 0)
(2 5.78318e-16 0)
(2 2.66109e-16 0)
(2 1.73277e-17 0)
(2 -2.70307e-16 0)
(2 -4.26549e-16 0)
(2 -5.1122e-16 0)
(2 -6.70206e-16 0)
(2 -7.9775e-16 0)
(2 -8.3271e-16 0)
(2 -8.40307e-16 0)
(2 -7.80583e-16 0)
(2 -6.58146e-16 0)
(2 -4.4234e-16 0)
(2 -2.59389e-16 0)
(2 -4.06009e-17 0)
(2 1.90366e-16 0)
(2 2.53869e-16 0)
(2 5.18628e-17 0)
(2 1.31227e-16 0)
(2 4.26198e-16 0)
(2 6.27041e-16 0)
(2 7.76499e-16 0)
(2 6.78148e-16 0)
(2 5.60863e-16 0)
(2 4.08948e-16 0)
(2 3.49923e-16 0)
(2 2.94782e-16 0)
(2 3.40107e-16 0)
(2 3.08729e-16 0)
(2 1.62082e-16 0)
(2 -1.79844e-16 0)
(2 -3.88894e-16 0)
(2 -7.32084e-16 0)
(2 -7.50996e-16 0)
(2 -7.11878e-16 0)
(2 -7.1587e-16 0)
(2 -6.58834e-16 0)
(2 -8.99361e-16 0)
(2 -9.85193e-16 0)
(2 -1.00033e-15 0)
(2 -9.47239e-16 0)
(2 -9.01103e-16 0)
(2 -1.99093e-17 0)
(2 -3.2817e-17 0)
(2 -2.11447e-17 0)
(2 -5.76505e-17 0)
(2 -2.92145e-17 0)
(2 5.32607e-17 0)
(2 3.58822e-17 0)
(2 7.74997e-17 0)
(2 1.15833e-16 0)
(2 1.9108e-16 0)
(2 2.69761e-16 0)
(2 3.68935e-16 0)
(2 4.87285e-16 0)
(2 4.52253e-16 0)
(2 3.72323e-16 0)
(2 6.15963e-16 0)
(2 6.97962e-16 0)
(2 7.12716e-16 0)
(2 5.86902e-16 0)
(2 4.58408e-16 0)
(2 3.80932e-16 0)
(2 2.81398e-16 0)
(2 1.44901e-16 0)
(2 9.28039e-17 0)
(2 3.87642e-17 0)
(2 -6.05159e-17 0)
(2 -7.14431e-17 0)
(2 1.32307e-16 0)
(2 4.39504e-16 0)
(2 4.81617e-16 0)
(2 5.75612e-16 0)
(2 6.22586e-16 0)
(2 8.86599e-16 0)
(2 1.13214e-15 0)
(2 1.11226e-15 0)
(2 1.03643e-15 0)
(2 9.39472e-16 0)
(2 8.64979e-16 0)
(2 8.04412e-16 0)
(2 7.73469e-16 0)