/*--------------------------------*- C++ -*----------------------------------*\
  =========                 |
  \\      /  F ield         | OpenFOAM: The Open Source CFD Toolbox
   \\    /   O peration     | Website:  https://openfoam.org
    \\  /    A nd           | Version:  7
     \\/     M anipulation  |
\*---------------------------------------------------------------------------*/
FoamFile
{
    version     2.0;
    format      ascii;
    class       volScalarField;
    location    "0.9";
    object      p;
}
// * * * * * * * * * * * * * * * * * * * * * * * * * * * * * * * * * * * * * //

dimensions      [0 2 -2 0 0 0 0];

internalField   nonuniform List<scalar> 
20000
(
8.2045e-07
1.42012e-06
2.15791e-06
3.28009e-06
4.72225e-06
6.36674e-06
8.11781e-06
9.8891e-06
1.16086e-05
1.3216e-05
1.46653e-05
1.59237e-05
1.69629e-05
1.7757e-05
1.82872e-05
1.85399e-05
1.85053e-05
1.81771e-05
1.75518e-05
1.66277e-05
1.54029e-05
1.38797e-05
1.20616e-05
9.95434e-06
7.56307e-06
4.89303e-06
1.95139e-06
-1.2523e-06
-4.70916e-06
-8.41074e-06
-1.23477e-05
-1.65104e-05
-2.08884e-05
-2.54707e-05
-3.0246e-05
-3.52034e-05
-4.03324e-05
-4.56216e-05
-5.10592e-05
-5.66339e-05
-6.23346e-05
-6.8149e-05
-7.40648e-05
-8.00704e-05
-8.61544e-05
-9.23049e-05
-9.85102e-05
-0.000104759
-0.000111038
-0.000117336
-0.00012364
-0.000129938
-0.000136218
-0.000142467
-0.000148675
-0.000154827
-0.000160913
-0.000166918
-0.000172831
-0.00017864
-0.000184332
-0.000189896
-0.000195319
-0.000200588
-0.00020569
-0.000210614
-0.000215349
-0.000219883
-0.000224205
-0.000228303
-0.000232168
-0.000235788
-0.000239154
-0.000242257
-0.000245089
-0.000247642
-0.000249909
-0.000251883
-0.000253561
-0.000254938
-0.000256012
-0.000256783
-0.000257252
-0.000257422
-0.0002573
-0.000256893
-0.000256214
-0.000255278
-0.000254105
-0.00025272
-0.000251157
-0.000249453
-0.000247656
-0.000245826
-0.000244033
-0.000242365
-0.000240924
-0.000239829
-0.000239219
-0.000239141
1.23573e-06
1.39437e-06
1.95424e-06
2.88109e-06
4.07102e-06
5.42889e-06
6.87424e-06
8.34424e-06
9.77909e-06
1.11221e-05
1.23295e-05
1.33682e-05
1.42095e-05
1.48308e-05
1.52153e-05
1.53457e-05
1.521e-05
1.48011e-05
1.41149e-05
1.3149e-05
1.19006e-05
1.03709e-05
8.56245e-06
6.47885e-06
4.12444e-06
1.50422e-06
-1.37544e-06
-4.50659e-06
-7.88126e-06
-1.14914e-05
-1.5328e-05
-1.93819e-05
-2.36436e-05
-2.8103e-05
-3.275e-05
-3.75743e-05
-4.25646e-05
-4.77097e-05
-5.29985e-05
-5.84208e-05
-6.39657e-05
-6.96216e-05
-7.53762e-05
-8.12178e-05
-8.71353e-05
-9.31174e-05
-9.91526e-05
-0.000105229
-0.000111336
-0.00011746
-0.00012359
-0.000129714
-0.000135819
-0.000141894
-0.000147927
-0.000153906
-0.000159819
-0.000165654
-0.000171399
-0.000177042
-0.000182571
-0.000187974
-0.00019324
-0.000198355
-0.00020331
-0.000208092
-0.00021269
-0.000217094
-0.000221293
-0.000225276
-0.000229034
-0.000232557
-0.000235837
-0.000238865
-0.000241633
-0.000244136
-0.000246366
-0.000248318
-0.00024999
-0.000251377
-0.00025248
-0.000253299
-0.000253835
-0.000254094
-0.000254082
-0.000253808
-0.000253285
-0.00025253
-0.000251562
-0.000250407
-0.000249096
-0.000247665
-0.00024616
-0.000244632
-0.000243143
-0.000241766
-0.000240579
-0.000239668
-0.000239141
-0.000239063
6.85731e-07
8.70736e-07
1.41211e-06
2.25045e-06
3.30393e-06
4.4932e-06
5.75251e-06
7.02632e-06
8.26257e-06
9.4179e-06
1.04525e-05
1.13311e-05
1.20261e-05
1.25167e-05
1.27869e-05
1.28198e-05
1.26041e-05
1.21317e-05
1.13962e-05
1.03942e-05
9.1241e-06
7.58656e-06
5.78287e-06
3.71499e-06
1.38653e-06
-1.19725e-06
-4.02997e-06
-7.10491e-06
-1.04157e-05
-1.39553e-05
-1.77144e-05
-2.16836e-05
-2.58542e-05
-3.02168e-05
-3.47619e-05
-3.94794e-05
-4.43591e-05
-4.939e-05
-5.4561e-05
-5.98618e-05
-6.52817e-05
-7.08101e-05
-7.64349e-05
-8.21445e-05
-8.79281e-05
-9.37749e-05
-9.96736e-05
-0.000105613
-0.00011158
-0.000117564
-0.000123553
-0.000129536
-0.0001355
-0.000141435
-0.000147329
-0.000153168
-0.000158942
-0.00016464
-0.000170249
-0.000175759
-0.000181157
-0.000186432
-0.000191573
-0.000196566
-0.000201403
-0.000206071
-0.000210561
-0.000214862
-0.000218965
-0.000222858
-0.000226533
-0.00022998
-0.000233192
-0.000236162
-0.000238883
-0.000241347
-0.00024355
-0.000245488
-0.000247157
-0.000248555
-0.000249683
-0.00025054
-0.000251131
-0.00025146
-0.000251534
-0.000251364
-0.000250961
-0.000250342
-0.000249527
-0.000248539
-0.000247409
-0.000246171
-0.000244864
-0.000243534
-0.000242235
-0.000241027
-0.000239973
-0.000239141
-0.000238614
-0.000238454
-4.21715e-07
-4.22676e-08
5.83205e-07
1.4208e-06
2.41941e-06
3.52401e-06
4.67903e-06
5.83079e-06
6.93647e-06
7.96054e-06
8.86761e-06
9.62664e-06
1.02126e-05
1.0604e-05
1.07838e-05
1.07378e-05
1.04562e-05
9.93028e-06
9.15285e-06
8.11961e-06
6.82944e-06
5.28302e-06
3.48057e-06
1.42283e-06
-8.86647e-07
-3.44253e-06
-6.2394e-06
-9.27094e-06
-1.25309e-05
-1.60128e-05
-1.97086e-05
-2.36092e-05
-2.77057e-05
-3.19894e-05
-3.64509e-05
-4.10803e-05
-4.58677e-05
-5.0803e-05
-5.58757e-05
-6.10756e-05
-6.63921e-05
-7.18138e-05
-7.73296e-05
-8.29283e-05
-8.85992e-05
-9.43321e-05
-0.000100116
-0.000105939
-0.00011179
-0.000117655
-0.000123526
-0.00012939
-0.000135236
-0.000141053
-0.000146828
-0.000152551
-0.000158209
-0.000163791
-0.000169287
-0.000174685
-0.000179973
-0.000185141
-0.000190177
-0.000195069
-0.000199808
-0.000204383
-0.000208783
-0.000212999
-0.000217022
-0.000220841
-0.000224449
-0.000227835
-0.000230994
-0.000233917
-0.000236599
-0.000239034
-0.000241218
-0.000243145
-0.000244814
-0.000246223
-0.000247372
-0.000248263
-0.000248899
-0.000249285
-0.000249429
-0.000249341
-0.000249032
-0.000248518
-0.000247818
-0.000246955
-0.000245955
-0.000244848
-0.000243673
-0.000242467
-0.000241277
-0.000240151
-0.000239144
-0.00023831
-0.000237703
-0.000237361
-1.86582e-06
-1.22964e-06
-4.59795e-07
4.30167e-07
1.42923e-06
2.49751e-06
3.58838e-06
4.65999e-06
5.67549e-06
6.60139e-06
7.40766e-06
8.06961e-06
8.56471e-06
8.87233e-06
8.97551e-06
8.86194e-06
8.52243e-06
7.94746e-06
7.13109e-06
6.06921e-06
4.76003e-06
3.20333e-06
1.39927e-06
-6.51164e-07
-2.94495e-06
-5.47738e-06
-8.24362e-06
-1.1238e-05
-1.44543e-05
-1.78862e-05
-2.15256e-05
-2.53645e-05
-2.93948e-05
-3.36079e-05
-3.79946e-05
-4.2545e-05
-4.72494e-05
-5.20981e-05
-5.70815e-05
-6.21894e-05
-6.74114e-05
-7.27361e-05
-7.81524e-05
-8.36502e-05
-8.92189e-05
-9.48479e-05
-0.000100526
-0.000106243
-0.000111986
-0.000117744
-0.000123506
-0.000129262
-0.000134999
-0.000140707
-0.000146374
-0.000151989
-0.000157541
-0.000163018
-0.000168411
-0.000173706
-0.000178895
-0.000183965
-0.000188905
-0.000193706
-0.000198356
-0.000202846
-0.000207166
-0.000211306
-0.000215257
-0.00021901
-0.000222557
-0.000225889
-0.000229
-0.000231883
-0.000234533
-0.000236943
-0.000239109
-0.000241028
-0.000242698
-0.000244118
-0.000245287
-0.000246209
-0.000246886
-0.000247323
-0.000247528
-0.00024751
-0.000247281
-0.000246855
-0.000246249
-0.000245485
-0.000244586
-0.00024358
-0.000242497
-0.000241373
-0.000240245
-0.000239154
-0.000238143
-0.000237257
-0.000236513
-0.000235918
-3.52504e-06
-2.59475e-06
-1.65303e-06
-6.69469e-07
3.75009e-07
1.44611e-06
2.50963e-06
3.5354e-06
4.49155e-06
5.34864e-06
6.0813e-06
6.66859e-06
7.09005e-06
7.328e-06
7.36786e-06
7.19762e-06
6.80769e-06
6.18949e-06
5.3381e-06
4.25002e-06
2.92286e-06
1.35548e-06
-4.52239e-07
-2.49871e-06
-4.78054e-06
-7.29365e-06
-1.00342e-05
-1.29972e-05
-1.61765e-05
-1.95655e-05
-2.31563e-05
-2.69415e-05
-3.09138e-05
-3.50647e-05
-3.93848e-05
-4.38651e-05
-4.84961e-05
-5.32682e-05
-5.81721e-05
-6.31978e-05
-6.83349e-05
-7.35722e-05
-7.88993e-05
-8.43063e-05
-8.97829e-05
-9.53185e-05
-0.000100902
-0.000106522
-0.000112168
-0.000117829
-0.000123493
-0.000129151
-0.00013479
-0.0001404
-0.00014597
-0.000151488
-0.000156943
-0.000162326
-0.000167625
-0.000172829
-0.000177927
-0.00018291
-0.000187765
-0.000192483
-0.000197054
-0.000201468
-0.000205716
-0.000209789
-0.000213677
-0.000217372
-0.000220866
-0.000224151
-0.000227221
-0.00023007
-0.000232691
-0.00023508
-0.000237233
-0.000239146
-0.000240818
-0.000242248
-0.000243436
-0.000244385
-0.000245097
-0.000245579
-0.000245836
-0.000245877
-0.000245714
-0.000245359
-0.000244827
-0.000244139
-0.000243315
-0.000242378
-0.000241356
-0.000240278
-0.000239174
-0.000238076
-0.000237022
-0.000236045
-0.000235129
-0.000234242
-5.30174e-06
-4.06308e-06
-2.92697e-06
-1.82556e-06
-7.06674e-07
4.01161e-07
1.47146e-06
2.48052e-06
3.40316e-06
4.21695e-06
4.90027e-06
5.43353e-06
5.79884e-06
5.982e-06
5.97066e-06
5.75354e-06
5.32078e-06
4.6653e-06
3.7832e-06
2.6715e-06
1.32697e-06
-2.51745e-07
-2.06426e-06
-4.10882e-06
-6.38239e-06
-8.88127e-06
-1.16017e-05
-1.45391e-05
-1.76875e-05
-2.10404e-05
-2.45905e-05
-2.83306e-05
-3.22536e-05
-3.6351e-05
-4.06136e-05
-4.50329e-05
-4.96001e-05
-5.43059e-05
-5.91406e-05
-6.40942e-05
-6.91568e-05
-7.43176e-05
-7.95661e-05
-8.4893e-05
-9.02884e-05
-9.57415e-05
-0.000101241
-0.000106776
-0.000112336
-0.00011791
-0.000123488
-0.000129059
-0.000134611
-0.000140135
-0.000145618
-0.00015105
-0.000156421
-0.00016172
-0.000166936
-0.000172059
-0.000177079
-0.000181984
-0.000186764
-0.00019141
-0.000195912
-0.00020026
-0.000204446
-0.000208459
-0.000212293
-0.000215938
-0.000219386
-0.000222631
-0.000225667
-0.000228486
-0.000231084
-0.000233456
-0.000235599
-0.000237509
-0.000239184
-0.000240624
-0.000241829
-0.000242801
-0.000243544
-0.000244062
-0.000244362
-0.000244451
-0.00024434
-0.00024404
-0.000243564
-0.00024293
-0.000242156
-0.000241263
-0.000240273
-0.000239209
-0.000238097
-0.000236961
-0.000235832
-0.000234737
-0.000233624
-0.000232429
-7.11762e-06
-5.5658e-06
-4.22292e-06
-2.99037e-06
-1.77747e-06
-6.06957e-07
4.95534e-07
1.51163e-06
2.42409e-06
3.2156e-06
3.86797e-06
4.3639e-06
4.68881e-06
4.83095e-06
4.77908e-06
4.52308e-06
4.05471e-06
3.36824e-06
2.45966e-06
1.32615e-06
-3.55073e-08
-1.62605e-06
-3.44467e-06
-5.48949e-06
-7.75797e-06
-1.0247e-05
-1.29529e-05
-1.58703e-05
-1.89938e-05
-2.23173e-05
-2.58341e-05
-2.95371e-05
-3.34188e-05
-3.74713e-05
-4.16856e-05
-4.60532e-05
-5.05659e-05
-5.52147e-05
-5.999e-05
-6.48816e-05
-6.98795e-05
-7.4974e-05
-8.0155e-05
-8.54126e-05
-9.07371e-05
-9.61181e-05
-0.000101544
-0.000107005
-0.00011249
-0.000117989
-0.000123491
-0.000128986
-0.000134463
-0.00013991
-0.000145317
-0.000150675
-0.000155972
-0.000161198
-0.000166342
-0.000171395
-0.000176345
-0.000181184
-0.000185899
-0.000190483
-0.000194925
-0.000199216
-0.000203348
-0.000207312
-0.000211099
-0.000214702
-0.000218112
-0.000221324
-0.00022433
-0.000227126
-0.000229706
-0.000232065
-0.0002342
-0.000236107
-0.000237786
-0.000239236
-0.000240456
-0.000241449
-0.000242218
-0.000242767
-0.000243101
-0.000243228
-0.000243156
-0.000242896
-0.00024246
-0.000241862
-0.000241118
-0.000240245
-0.000239262
-0.000238189
-0.000237043
-0.000235845
-0.00023462
-0.000233389
-0.000232068
-0.000230564
-8.90169e-06
-7.04548e-06
-5.49337e-06
-4.11808e-06
-2.79753e-06
-1.55006e-06
-3.98435e-07
6.44673e-07
1.56678e-06
2.35298e-06
2.98939e-06
3.46259e-06
3.76067e-06
3.87308e-06
3.78977e-06
3.50223e-06
3.00463e-06
2.29214e-06
1.36049e-06
2.06811e-07
-1.17139e-06
-2.77399e-06
-4.60001e-06
-6.64762e-06
-8.91446e-06
-1.13977e-05
-1.40937e-05
-1.69968e-05
-2.01016e-05
-2.34025e-05
-2.6893e-05
-3.0566e-05
-3.44143e-05
-3.843e-05
-4.26046e-05
-4.69298e-05
-5.13974e-05
-5.59986e-05
-6.07238e-05
-6.55629e-05
-7.05063e-05
-7.55445e-05
-8.06678e-05
-8.58667e-05
-9.11308e-05
-9.645e-05
-0.000101814
-0.000107211
-0.000112631
-0.000118066
-0.000123503
-0.000128933
-0.000134343
-0.000139725
-0.000145068
-0.000150361
-0.000155595
-0.000160758
-0.000165841
-0.000170833
-0.000175725
-0.000180506
-0.000185167
-0.000189697
-0.000194089
-0.000198333
-0.00020242
-0.000206342
-0.000210091
-0.000213658
-0.000217037
-0.000220222
-0.000223205
-0.000225982
-0.000228548
-0.000230898
-0.000233028
-0.000234935
-0.000236619
-0.000238077
-0.000239311
-0.000240323
-0.000241113
-0.000241687
-0.000242048
-0.000242203
-0.00024216
-0.000241928
-0.000241517
-0.000240939
-0.000240208
-0.000239338
-0.000238344
-0.000237241
-0.000236043
-0.000234766
-0.000233429
-0.000232052
-0.000230519
-0.000228713
-1.05975e-05
-8.45567e-06
-6.69512e-06
-5.16949e-06
-3.73277e-06
-2.39898e-06
-1.1856e-06
-1.00888e-07
8.44722e-07
1.63904e-06
2.27249e-06
2.73526e-06
3.0172e-06
3.10895e-06
3.00205e-06
2.68994e-06
2.16882e-06
1.43407e-06
4.81647e-07
-6.90984e-07
-2.08514e-06
-3.70014e-06
-5.53495e-06
-7.58801e-06
-9.85683e-06
-1.23383e-05
-1.50288e-05
-1.79228e-05
-2.10149e-05
-2.42998e-05
-2.77711e-05
-3.14217e-05
-3.52442e-05
-3.92309e-05
-4.33741e-05
-4.76656e-05
-5.20972e-05
-5.666e-05
-6.13443e-05
-6.61404e-05
-7.10391e-05
-7.60309e-05
-8.11065e-05
-8.62565e-05
-9.14706e-05
-9.67382e-05
-0.000102049
-0.000107393
-0.00011276
-0.00011814
-0.000123523
-0.000128897
-0.000134253
-0.000139581
-0.000144869
-0.000150108
-0.000155288
-0.000160399
-0.000165431
-0.000170373
-0.000175216
-0.00017995
-0.000184565
-0.000189052
-0.000193402
-0.000197607
-0.000201658
-0.000205546
-0.000209264
-0.000212803
-0.000216158
-0.000219321
-0.000222288
-0.000225051
-0.000227607
-0.000229951
-0.000232079
-0.000233988
-0.000235677
-0.000237145
-0.000238391
-0.000239418
-0.000240226
-0.000240819
-0.000241201
-0.000241377
-0.000241354
-0.000241138
-0.00024074
-0.00024017
-0.000239438
-0.000238556
-0.000237535
-0.000236388
-0.000235125
-0.000233755
-0.000232298
-0.000230769
-0.000229027
-0.00022693
-1.21603e-05
-9.74941e-06
-7.78798e-06
-6.11288e-06
-4.55537e-06
-3.12679e-06
-1.84233e-06
-7.0726e-07
2.71478e-07
1.08531e-06
1.72692e-06
2.18865e-06
2.46212e-06
2.54025e-06
2.4169e-06
2.08687e-06
1.54667e-06
7.9212e-07
-1.79549e-07
-1.37003e-06
-2.77973e-06
-4.4078e-06
-6.25317e-06
-8.31436e-06
-1.05888e-05
-1.30728e-05
-1.57621e-05
-1.8652e-05
-2.17374e-05
-2.50127e-05
-2.84715e-05
-3.21067e-05
-3.59111e-05
-3.9877e-05
-4.39969e-05
-4.82634e-05
-5.26678e-05
-5.72008e-05
-6.18532e-05
-6.66157e-05
-7.14792e-05
-7.64346e-05
-8.14726e-05
-8.65834e-05
-9.1757e-05
-9.69831e-05
-0.000102252
-0.000107553
-0.000112876
-0.000118212
-0.000123551
-0.000128881
-0.000134192
-0.000139475
-0.000144719
-0.000149915
-0.000155052
-0.000160121
-0.000165111
-0.000170013
-0.000174817
-0.000179512
-0.000184091
-0.000188544
-0.000192862
-0.000197036
-0.000201059
-0.000204921
-0.000208615
-0.000212134
-0.000215471
-0.000218619
-0.000221574
-0.000224329
-0.000226879
-0.00022922
-0.000231349
-0.000233262
-0.000234957
-0.000236434
-0.000237692
-0.000238732
-0.000239555
-0.000240164
-0.000240561
-0.00024075
-0.000240739
-0.000240532
-0.000240138
-0.000239564
-0.00023882
-0.000237913
-0.000236854
-0.000235652
-0.000234313
-0.000232844
-0.000231262
-0.00022958
-0.000227633
-0.00022526
-1.35533e-05
-1.08888e-05
-8.73815e-06
-6.91793e-06
-5.23814e-06
-3.70993e-06
-2.34901e-06
-1.15765e-06
-1.38234e-07
7.0351e-07
1.36151e-06
1.82943e-06
2.10083e-06
2.17126e-06
2.03686e-06
1.69335e-06
1.13711e-06
3.6497e-07
-6.24371e-07
-1.83185e-06
-3.2573e-06
-4.89967e-06
-6.75799e-06
-8.8302e-06
-1.11133e-05
-1.36036e-05
-1.62968e-05
-1.91881e-05
-2.22726e-05
-2.55446e-05
-2.89974e-05
-3.2624e-05
-3.64175e-05
-4.03707e-05
-4.44759e-05
-4.87255e-05
-5.31111e-05
-5.76233e-05
-6.22526e-05
-6.69907e-05
-7.18286e-05
-7.67572e-05
-8.1767e-05
-8.68484e-05
-9.19913e-05
-9.71858e-05
-0.000102422
-0.00010769
-0.000112981
-0.000118283
-0.000123587
-0.000128883
-0.00013416
-0.000139409
-0.000144619
-0.000149781
-0.000154885
-0.000159922
-0.00016488
-0.000169751
-0.000174525
-0.000179192
-0.000183744
-0.000188171
-0.000192465
-0.000196618
-0.00020062
-0.000204464
-0.000208142
-0.000211648
-0.000214973
-0.000218113
-0.000221061
-0.000223812
-0.000226361
-0.000228703
-0.000230835
-0.000232754
-0.000234457
-0.000235943
-0.000237212
-0.000238264
-0.000239099
-0.000239719
-0.000240127
-0.000240326
-0.00024032
-0.000240115
-0.000239716
-0.00023913
-0.000238364
-0.000237425
-0.000236319
-0.000235054
-0.000233633
-0.00023206
-0.000230351
-0.000228517
-0.000226374
-0.00022374
-1.47489e-05
-1.18474e-05
-9.51639e-06
-7.55522e-06
-5.75527e-06
-4.12754e-06
-2.68735e-06
-1.43441e-06
-3.68923e-07
5.05544e-07
1.18453e-06
1.66361e-06
1.93878e-06
2.00713e-06
1.86589e-06
1.51146e-06
9.41032e-07
1.52831e-07
-8.53272e-07
-2.07741e-06
-3.51938e-06
-5.17784e-06
-7.05149e-06
-9.13763e-06
-1.14328e-05
-1.39334e-05
-1.66352e-05
-1.95334e-05
-2.2623e-05
-2.58978e-05
-2.93511e-05
-3.29761e-05
-3.67661e-05
-4.07143e-05
-4.48131e-05
-4.9054e-05
-5.34289e-05
-5.79288e-05
-6.25443e-05
-6.72669e-05
-7.20885e-05
-7.69998e-05
-8.19911e-05
-8.70524e-05
-9.21742e-05
-9.73471e-05
-0.000102561
-0.000107806
-0.000113074
-0.000118352
-0.000123633
-0.000128904
-0.000134157
-0.000139381
-0.000144567
-0.000149706
-0.000154787
-0.000159801
-0.000164738
-0.000169587
-0.000174341
-0.000178989
-0.000183523
-0.000187933
-0.000192212
-0.000196351
-0.000200341
-0.000204174
-0.000207844
-0.000211343
-0.000214663
-0.0002178
-0.000220747
-0.000223499
-0.00022605
-0.000228397
-0.000230536
-0.000232462
-0.000234174
-0.00023567
-0.00023695
-0.000238013
-0.000238858
-0.000239488
-0.000239903
-0.000240106
-0.000240101
-0.000239892
-0.000239482
-0.000238878
-0.000238083
-0.000237105
-0.000235946
-0.000234612
-0.000233105
-0.000231426
-0.00022959
-0.000227609
-0.000225278
-0.000222399
-1.57235e-05
-1.2601e-05
-1.00981e-05
-8.0011e-06
-6.0853e-06
-4.3603e-06
-2.8399e-06
-1.52238e-06
-4.07556e-07
5.02685e-07
1.20603e-06
1.70018e-06
1.98318e-06
2.05286e-06
1.90711e-06
1.54326e-06
9.6023e-07
1.5733e-07
-8.65213e-07
-2.1067e-06
-3.56658e-06
-5.24321e-06
-7.13466e-06
-9.23782e-06
-1.15488e-05
-1.40642e-05
-1.67796e-05
-1.969e-05
-2.27902e-05
-2.6074e-05
-2.95342e-05
-3.31647e-05
-3.6959e-05
-4.09099e-05
-4.50097e-05
-4.92502e-05
-5.36228e-05
-5.81187e-05
-6.27292e-05
-6.74459e-05
-7.22603e-05
-7.71634e-05
-8.21452e-05
-8.71962e-05
-9.23067e-05
-9.74676e-05
-0.000102669
-0.000107902
-0.000113155
-0.00011842
-0.000123686
-0.000128944
-0.000134182
-0.000139392
-0.000144565
-0.00014969
-0.000154758
-0.000159759
-0.000164682
-0.00016952
-0.000174263
-0.000178901
-0.000183426
-0.000187829
-0.000192101
-0.000196234
-0.000200219
-0.00020405
-0.000207718
-0.000211216
-0.000214539
-0.000217678
-0.00022063
-0.000223388
-0.000225946
-0.000228302
-0.000230449
-0.000232385
-0.000234108
-0.000235616
-0.000236906
-0.000237979
-0.000238833
-0.00023947
-0.00023989
-0.000240095
-0.000240087
-0.000239869
-0.000239444
-0.000238816
-0.000237989
-0.000236966
-0.000235751
-0.000234345
-0.00023275
-0.000230965
-0.000229004
-0.000226879
-0.00022437
-0.000221261
-1.64538e-05
-1.31261e-05
-1.0463e-05
-8.23704e-06
-6.20932e-06
-4.38893e-06
-2.78884e-06
-1.40701e-06
-2.42103e-07
7.05583e-07
1.43592e-06
1.94824e-06
2.24139e-06
2.31385e-06
2.16467e-06
1.79245e-06
1.19754e-06
3.80255e-07
-6.58926e-07
-1.91896e-06
-3.39876e-06
-5.09596e-06
-7.00778e-06
-9.13115e-06
-1.14622e-05
-1.39969e-05
-1.67312e-05
-1.96593e-05
-2.27756e-05
-2.60742e-05
-2.95484e-05
-3.31915e-05
-3.69973e-05
-4.09588e-05
-4.50675e-05
-4.93151e-05
-5.36936e-05
-5.81943e-05
-6.28087e-05
-6.75284e-05
-7.23448e-05
-7.72488e-05
-8.22305e-05
-8.72803e-05
-9.23892e-05
-9.75479e-05
-0.000102747
-0.000107976
-0.000113227
-0.000118488
-0.000123749
-0.000129002
-0.000134236
-0.000139443
-0.000144611
-0.000149732
-0.000154796
-0.000159794
-0.000164715
-0.00016955
-0.000174291
-0.000178928
-0.000183453
-0.000187856
-0.00019213
-0.000196265
-0.000200255
-0.000204089
-0.000207763
-0.000211268
-0.000214598
-0.000217747
-0.000220708
-0.000223477
-0.000226047
-0.000228415
-0.000230575
-0.000232524
-0.000234259
-0.000235779
-0.000237081
-0.000238164
-0.000239027
-0.000239671
-0.000240094
-0.000240297
-0.000240283
-0.000240054
-0.00023961
-0.000238956
-0.000238092
-0.000237021
-0.000235746
-0.000234267
-0.000232584
-0.000230694
-0.000228612
-0.000226349
-0.00022367
-0.000220347
-1.69224e-05
-1.34045e-05
-1.05927e-05
-8.24486e-06
-6.10931e-06
-4.19667e-06
-2.51963e-06
-1.07532e-06
1.39373e-07
1.12549e-06
1.88409e-06
2.41566e-06
2.71965e-06
2.79549e-06
2.64345e-06
2.26343e-06
1.65667e-06
8.2417e-07
-2.33034e-07
-1.51338e-06
-3.01526e-06
-4.73567e-06
-6.67111e-06
-8.81834e-06
-1.11737e-05
-1.37326e-05
-1.64906e-05
-1.9442e-05
-2.25805e-05
-2.59002e-05
-2.93949e-05
-3.30581e-05
-3.6883e-05
-4.08621e-05
-4.49874e-05
-4.92504e-05
-5.3643e-05
-5.8157e-05
-6.27841e-05
-6.75157e-05
-7.23433e-05
-7.72571e-05
-8.22478e-05
-8.7306e-05
-9.24229e-05
-9.75892e-05
-0.000102795
-0.000108031
-0.000113288
-0.000118554
-0.000123822
-0.00012908
-0.00013432
-0.000139532
-0.000144706
-0.000149833
-0.000154903
-0.000159906
-0.000164834
-0.000169676
-0.000174424
-0.00017907
-0.000183603
-0.000188016
-0.000192299
-0.000196445
-0.000200446
-0.000204292
-0.000207979
-0.000211497
-0.000214842
-0.000218006
-0.000220982
-0.000223767
-0.000226353
-0.000228736
-0.000230912
-0.000232877
-0.000234627
-0.000236161
-0.000237476
-0.00023857
-0.000239442
-0.000240091
-0.000240516
-0.000240718
-0.000240696
-0.000240453
-0.000239988
-0.000239304
-0.000238402
-0.000237282
-0.000235946
-0.000234394
-0.000232623
-0.00023063
-0.000228431
-0.000226037
-0.000223198
-0.000219673
-1.71148e-05
-1.34208e-05
-1.047e-05
-8.00774e-06
-5.76998e-06
-3.76939e-06
-2.01903e-06
-5.14237e-07
7.49419e-07
1.77398e-06
2.56073e-06
3.11086e-06
3.42501e-06
3.5039e-06
3.34882e-06
2.96074e-06
2.34134e-06
1.49215e-06
4.14922e-07
-8.88086e-07
-2.41449e-06
-4.16089e-06
-6.12378e-06
-8.29925e-06
-1.06833e-05
-1.32715e-05
-1.60586e-05
-1.90384e-05
-2.2205e-05
-2.55527e-05
-2.90749e-05
-3.27651e-05
-3.66163e-05
-4.06208e-05
-4.47703e-05
-4.90566e-05
-5.34717e-05
-5.80078e-05
-6.26563e-05
-6.74087e-05
-7.22559e-05
-7.71887e-05
-8.21976e-05
-8.72738e-05
-9.24083e-05
-9.75917e-05
-0.000102814
-0.000108067
-0.000113338
-0.000118621
-0.000123903
-0.000129177
-0.000134432
-0.00013966
-0.000144849
-0.000149992
-0.000155077
-0.000160096
-0.000165039
-0.000169898
-0.000174663
-0.000179325
-0.000183876
-0.000188306
-0.000192608
-0.000196772
-0.000200791
-0.000204658
-0.000208364
-0.000211903
-0.000215268
-0.000218453
-0.000221451
-0.000224256
-0.000226862
-0.000229266
-0.000231462
-0.000233446
-0.000235214
-0.000236764
-0.000238094
-0.0002392
-0.000240081
-0.000240736
-0.000241163
-0.000241362
-0.000241332
-0.000241073
-0.000240586
-0.000239872
-0.00023893
-0.000237761
-0.000236364
-0.000234739
-0.000232882
-0.000230789
-0.000228477
-0.000225958
-0.000222967
-0.000219253
-1.70189e-05
-1.31604e-05
-1.00792e-05
-7.51054e-06
-5.17759e-06
-3.09392e-06
-1.27375e-06
2.89185e-07
1.59993e-06
2.66116e-06
3.47443e-06
4.04163e-06
4.36475e-06
4.44564e-06
4.28653e-06
3.88913e-06
3.2553e-06
2.38712e-06
1.28744e-06
-4.09281e-08
-1.59504e-06
-3.37084e-06
-5.36489e-06
-7.57331e-06
-9.99124e-06
-1.26135e-05
-1.54348e-05
-1.84491e-05
-2.16502e-05
-2.50324e-05
-2.85893e-05
-3.23137e-05
-3.61984e-05
-4.02354e-05
-4.44168e-05
-4.87346e-05
-5.31809e-05
-5.77476e-05
-6.24262e-05
-6.72078e-05
-7.20836e-05
-7.70444e-05
-8.2081e-05
-8.71845e-05
-9.23459e-05
-9.75558e-05
-0.000102805
-0.000108082
-0.00011338
-0.000118687
-0.000123995
-0.000129294
-0.000134574
-0.000139826
-0.000145041
-0.000150208
-0.000155319
-0.000160362
-0.000165331
-0.000170215
-0.000175006
-0.000179694
-0.00018427
-0.000188727
-0.000193055
-0.000197246
-0.000201292
-0.000205185
-0.000208919
-0.000212485
-0.000215877
-0.000219089
-0.000222113
-0.000224945
-0.000227577
-0.000230005
-0.000232225
-0.000234231
-0.000236021
-0.00023759
-0.000238937
-0.000240057
-0.000240948
-0.000241609
-0.000242039
-0.000242234
-0.000242196
-0.000241922
-0.000241413
-0.000240667
-0.000239686
-0.000238468
-0.000237011
-0.000235314
-0.000233374
-0.000231185
-0.000228765
-0.000226126
-0.000222992
-0.0002191
-1.66224e-05
-1.26112e-05
-9.4081e-06
-6.74016e-06
-4.31895e-06
-2.1575e-06
-2.70989e-07
1.34697e-06
2.70152e-06
3.79614e-06
4.63329e-06
5.21569e-06
5.54623e-06
5.62757e-06
5.46238e-06
5.05306e-06
4.4023e-06
3.5126e-06
2.38753e-06
1.03075e-06
-5.54515e-07
-2.36421e-06
-4.39411e-06
-6.63992e-06
-9.09656e-06
-1.17582e-05
-1.46194e-05
-1.76741e-05
-2.09162e-05
-2.43398e-05
-2.79383e-05
-3.1704e-05
-3.56295e-05
-3.97068e-05
-4.39278e-05
-4.82852e-05
-5.2771e-05
-5.73769e-05
-6.2094e-05
-6.69136e-05
-7.18269e-05
-7.68248e-05
-8.18983e-05
-8.70384e-05
-9.2236e-05
-9.74818e-05
-0.000102766
-0.000108079
-0.000113411
-0.000118753
-0.000124096
-0.000129429
-0.000134744
-0.000140031
-0.00014528
-0.000150482
-0.000155627
-0.000160705
-0.000165708
-0.000170627
-0.000175452
-0.000180175
-0.000184787
-0.000189278
-0.00019364
-0.000197866
-0.000201947
-0.000205874
-0.000209642
-0.000213243
-0.000216669
-0.000219914
-0.000222971
-0.000225834
-0.000228497
-0.000230955
-0.000233203
-0.000235236
-0.00023705
-0.000238642
-0.000240007
-0.000241143
-0.000242047
-0.000242716
-0.000243149
-0.000243342
-0.000243296
-0.000243008
-0.000242476
-0.000241701
-0.00024068
-0.000239414
-0.000237899
-0.000236132
-0.000234111
-0.00023183
-0.000229306
-0.000226554
-0.000223286
-0.000219226
-1.59134e-05
-1.17618e-05
-8.44586e-06
-5.68511e-06
-3.18143e-06
-9.47733e-07
1.0006e-06
2.66941e-06
4.06385e-06
5.18823e-06
6.04626e-06
6.64123e-06
6.97658e-06
7.05583e-06
6.88201e-06
6.45765e-06
5.78655e-06
4.87229e-06
3.71863e-06
2.32944e-06
7.08783e-07
-1.13913e-06
-3.20966e-06
-5.49781e-06
-7.99815e-06
-1.07047e-05
-1.36118e-05
-1.67134e-05
-2.00033e-05
-2.34753e-05
-2.7122e-05
-3.09359e-05
-3.49094e-05
-3.90347e-05
-4.33038e-05
-4.77091e-05
-5.22427e-05
-5.6896e-05
-6.16602e-05
-6.65264e-05
-7.1486e-05
-7.65301e-05
-8.16497e-05
-8.68357e-05
-9.20788e-05
-9.73696e-05
-0.000102698
-0.000108056
-0.000113433
-0.000118819
-0.000124206
-0.000129584
-0.000134943
-0.000140274
-0.000145567
-0.000150813
-0.000156002
-0.000161124
-0.000166171
-0.000171133
-0.000176002
-0.000180769
-0.000185424
-0.000189958
-0.000194363
-0.000198632
-0.000202755
-0.000206725
-0.000210535
-0.000214177
-0.000217643
-0.000220928
-0.000224024
-0.000226924
-0.000229624
-0.000232117
-0.000234398
-0.000236461
-0.000238304
-0.000239921
-0.000241309
-0.000242464
-0.000243382
-0.000244062
-0.000244499
-0.000244692
-0.000244638
-0.000244337
-0.000243785
-0.000242981
-0.000241923
-0.000240609
-0.000239038
-0.000237204
-0.000235106
-0.000232737
-0.000230114
-0.000227254
-0.000223858
-0.000219641
-1.48834e-05
-1.0602e-05
-7.18154e-06
-4.33411e-06
-1.75328e-06
5.47212e-07
2.55144e-06
4.26564e-06
5.69568e-06
6.84615e-06
7.72164e-06
8.32599e-06
8.66311e-06
8.73662e-06
8.55022e-06
8.10743e-06
7.41259e-06
6.46987e-06
5.2836e-06
3.85784e-06
2.19704e-06
3.06027e-07
-1.81014e-06
-4.14583e-06
-6.69519e-06
-9.45239e-06
-1.24117e-05
-1.55669e-05
-1.89114e-05
-2.24385e-05
-2.61406e-05
-3.00098e-05
-3.40387e-05
-3.82198e-05
-4.2545e-05
-4.70065e-05
-5.15961e-05
-5.63053e-05
-6.11251e-05
-6.60466e-05
-7.10616e-05
-7.6161e-05
-8.13357e-05
-8.65765e-05
-9.18743e-05
-9.72195e-05
-0.000102602
-0.000108014
-0.000113445
-0.000118885
-0.000124326
-0.000129758
-0.000135171
-0.000140556
-0.000145902
-0.000151201
-0.000156443
-0.000161619
-0.000166719
-0.000171734
-0.000176656
-0.000181475
-0.000186182
-0.000190768
-0.000195225
-0.000199544
-0.000203718
-0.000207738
-0.000211597
-0.000215288
-0.000218802
-0.000222132
-0.000225273
-0.000228218
-0.000230959
-0.000233492
-0.000235811
-0.00023791
-0.000239786
-0.000241432
-0.000242846
-0.000244022
-0.000244958
-0.00024565
-0.000246095
-0.000246289
-0.000246231
-0.000245918
-0.000245347
-0.000244516
-0.000243423
-0.000242065
-0.000240439
-0.000238542
-0.000236369
-0.000233916
-0.0002312
-0.000228237
-0.00022472
-0.000220354
-1.35231e-05
-9.12057e-06
-5.60364e-06
-2.67608e-06
-2.44616e-08
2.33672e-06
4.3911e-06
6.14549e-06
7.60652e-06
8.77909e-06
9.66814e-06
1.02776e-05
1.06121e-05
1.06759e-05
1.04729e-05
1.00077e-05
9.28529e-06
8.30986e-06
7.08627e-06
5.61905e-06
3.91304e-06
1.97386e-06
-1.93013e-07
-2.58164e-06
-5.18596e-06
-8.00016e-06
-1.10183e-05
-1.42337e-05
-1.76395e-05
-2.12285e-05
-2.49929e-05
-2.8925e-05
-3.30171e-05
-3.72618e-05
-4.16512e-05
-4.61771e-05
-5.08311e-05
-5.56045e-05
-6.04884e-05
-6.54741e-05
-7.05534e-05
-7.57171e-05
-8.09561e-05
-8.62609e-05
-9.16224e-05
-9.70312e-05
-0.000102478
-0.000107953
-0.000113447
-0.000118951
-0.000124455
-0.00012995
-0.000135427
-0.000140875
-0.000146284
-0.000151646
-0.000156951
-0.000162189
-0.000167352
-0.00017243
-0.000177413
-0.000182293
-0.000187062
-0.000191708
-0.000196225
-0.000200604
-0.000204836
-0.000208914
-0.00021283
-0.000216576
-0.000220145
-0.000223529
-0.000226721
-0.000229715
-0.000232505
-0.000235083
-0.000237446
-0.000239586
-0.000241498
-0.000243178
-0.000244622
-0.000245823
-0.00024678
-0.000247488
-0.000247943
-0.000248141
-0.000248081
-0.000247758
-0.000247171
-0.000246315
-0.000245189
-0.000243789
-0.000242112
-0.000240155
-0.000237912
-0.000235379
-0.000232574
-0.000229513
-0.000225881
-0.000221374
-1.18237e-05
-7.30776e-06
-3.70195e-06
-7.01535e-07
2.01418e-06
4.42971e-06
6.5286e-06
8.3183e-06
9.80563e-06
1.09955e-05
1.18934e-05
1.25034e-05
1.28305e-05
1.28798e-05
1.26561e-05
1.21641e-05
1.14092e-05
1.03962e-05
9.13027e-06
7.61643e-06
5.85997e-06
3.86734e-06
1.64433e-06
-8.03133e-07
-3.46883e-06
-6.34672e-06
-9.43044e-06
-1.27128e-05
-1.61866e-05
-1.98444e-05
-2.36784e-05
-2.76807e-05
-3.1844e-05
-3.61607e-05
-4.06224e-05
-4.52207e-05
-4.99473e-05
-5.47934e-05
-5.97502e-05
-6.48091e-05
-6.99616e-05
-7.51986e-05
-8.05108e-05
-8.58887e-05
-9.13231e-05
-9.6805e-05
-0.000102325
-0.000107873
-0.00011344
-0.000119017
-0.000124594
-0.000130163
-0.000135712
-0.000141232
-0.000146714
-0.000152148
-0.000157525
-0.000162835
-0.00016807
-0.000173219
-0.000178274
-0.000183224
-0.000188062
-0.000192778
-0.000197363
-0.00020181
-0.000206109
-0.000210253
-0.000214234
-0.000218044
-0.000221674
-0.000225118
-0.000228369
-0.000231419
-0.000234263
-0.000236893
-0.000239305
-0.00024149
-0.000243444
-0.000245163
-0.00024664
-0.000247872
-0.000248853
-0.00024958
-0.000250049
-0.000250255
-0.000250195
-0.000249866
-0.000249265
-0.000248388
-0.000247232
-0.000245793
-0.000244068
-0.000242053
-0.000239744
-0.000237135
-0.000234245
-0.000231092
-0.00022735
-0.000222708