/*--------------------------------*- C++ -*----------------------------------*\
  =========                 |
  \\      /  F ield         | OpenFOAM: The Open Source CFD Toolbox
   \\    /   O peration     | Website:  https://openfoam.org
    \\  /    A nd           | Version:  7
     \\/     M anipulation  |
\*---------------------------------------------------------------------------*/
FoamFile
{
    version     2.0;
    format      ascii;
    class       volVectorField;
    location    "0.9";
    object      U;
}
// * * * * * * * * * * * * * * * * * * * * * * * * * * * * * * * * * * * * * //

dimensions      [0 1 -1 0 0 0 0];

internalField   nonuniform List<vector> 
20000
(
(2.99141e-06 -2.99292e-06 0)
(1.70825e-05 -9.20008e-06 0)
(4.18447e-05 -1.15179e-05 0)
(6.74836e-05 -1.08374e-05 0)
(8.76338e-05 -8.45316e-06 0)
(9.89769e-05 -5.1631e-06 0)
(9.9619e-05 -1.42812e-06 0)
(8.85315e-05 2.47973e-06 0)
(6.52743e-05 6.40021e-06 0)
(2.9793e-05 1.02387e-05 0)
(-1.7715e-05 1.39384e-05 0)
(-7.68847e-05 1.74652e-05 0)
(-0.000147238 2.07989e-05 0)
(-0.000228225 2.39282e-05 0)
(-0.000319243 2.68481e-05 0)
(-0.000419667 2.95573e-05 0)
(-0.000528851 3.20572e-05 0)
(-0.000646151 3.43515e-05 0)
(-0.000770923 3.64452e-05 0)
(-0.000902533 3.83445e-05 0)
(-0.00104036 4.0056e-05 0)
(-0.0011838 4.1587e-05 0)
(-0.00133227 4.29451e-05 0)
(-0.00148521 4.4138e-05 0)
(-0.00164207 4.51737e-05 0)
(-0.00180235 4.606e-05 0)
(-0.00196554 4.6805e-05 0)
(-0.00213118 4.74164e-05 0)
(-0.00229882 4.7902e-05 0)
(-0.00246805 4.82693e-05 0)
(-0.00263846 4.85257e-05 0)
(-0.00280969 4.86784e-05 0)
(-0.00298139 4.87344e-05 0)
(-0.00315322 4.87005e-05 0)
(-0.00332489 4.85832e-05 0)
(-0.00349611 4.83888e-05 0)
(-0.00366662 4.81233e-05 0)
(-0.00383618 4.77926e-05 0)
(-0.00400456 4.74022e-05 0)
(-0.00417156 4.69573e-05 0)
(-0.004337 4.64631e-05 0)
(-0.0045007 4.59244e-05 0)
(-0.00466251 4.53456e-05 0)
(-0.00482229 4.47311e-05 0)
(-0.00497992 4.4085e-05 0)
(-0.00513529 4.34112e-05 0)
(-0.0052883 4.27132e-05 0)
(-0.00543887 4.19945e-05 0)
(-0.00558693 4.12582e-05 0)
(-0.0057324 4.05074e-05 0)
(-0.00587525 3.97447e-05 0)
(-0.00601543 3.89729e-05 0)
(-0.00615291 3.81943e-05 0)
(-0.00628765 3.74111e-05 0)
(-0.00641965 3.66254e-05 0)
(-0.0065489 3.5839e-05 0)
(-0.00667538 3.50538e-05 0)
(-0.00679911 3.42713e-05 0)
(-0.00692009 3.34929e-05 0)
(-0.00703833 3.27199e-05 0)
(-0.00715385 3.19535e-05 0)
(-0.00726668 3.11947e-05 0)
(-0.00737683 3.04445e-05 0)
(-0.00748434 2.97036e-05 0)
(-0.00758924 2.89727e-05 0)
(-0.00769155 2.82525e-05 0)
(-0.00779133 2.75434e-05 0)
(-0.00788859 2.68459e-05 0)
(-0.00798339 2.61602e-05 0)
(-0.00807575 2.54865e-05 0)
(-0.00816573 2.48251e-05 0)
(-0.00825336 2.4176e-05 0)
(-0.00833869 2.35391e-05 0)
(-0.00842175 2.29144e-05 0)
(-0.00850258 2.23018e-05 0)
(-0.00858123 2.17011e-05 0)
(-0.00865774 2.11119e-05 0)
(-0.00873214 2.0534e-05 0)
(-0.00880447 1.9967e-05 0)
(-0.00887477 1.94104e-05 0)
(-0.00894307 1.88638e-05 0)
(-0.0090094 1.83266e-05 0)
(-0.00907381 1.77983e-05 0)
(-0.0091363 1.72783e-05 0)
(-0.00919692 1.67657e-05 0)
(-0.00925568 1.62601e-05 0)
(-0.00931261 1.57605e-05 0)
(-0.00936773 1.52662e-05 0)
(-0.00942105 1.47764e-05 0)
(-0.00947258 1.42903e-05 0)
(-0.00952234 1.38069e-05 0)
(-0.00957034 1.33253e-05 0)
(-0.00961657 1.28445e-05 0)
(-0.00966104 1.23636e-05 0)
(-0.00970374 1.18815e-05 0)
(-0.00974467 1.13972e-05 0)
(-0.00978382 1.09096e-05 0)
(-0.00982117 1.04176e-05 0)
(-0.00985671 9.92011e-06 0)
(-0.00989041 9.41595e-06 0)
(-0.00992225 8.90397e-06 0)
(-0.0099522 8.38299e-06 0)
(-0.00998022 7.85179e-06 0)
(-0.0100063 7.30915e-06 0)
(-0.0100303 6.75384e-06 0)
(-0.0100523 6.18465e-06 0)
(-0.0100722 5.60033e-06 0)
(-0.0100899 4.99965e-06 0)
(-0.0101055 4.38135e-06 0)
(-0.0101187 3.74418e-06 0)
(-0.0101296 3.08689e-06 0)
(-0.010138 2.40826e-06 0)
(-0.010144 1.70706e-06 0)
(-0.0101474 9.82127e-07 0)
(-0.0101481 2.32277e-07 0)
(-0.010146 -5.43636e-07 0)
(-0.0101412 -1.34673e-06 0)
(-0.0101333 -2.17807e-06 0)
(-0.0101225 -3.03868e-06 0)
(-0.0101085 -3.92954e-06 0)
(-0.0100912 -4.85154e-06 0)
(-0.0100706 -5.80554e-06 0)
(-0.0100466 -6.79229e-06 0)
(-0.0100189 -7.81249e-06 0)
(-0.00998759 -8.86674e-06 0)
(-0.00995243 -9.95552e-06 0)
(-0.00991335 -1.10792e-05 0)
(-0.00987022 -1.22381e-05 0)
(-0.00982292 -1.34323e-05 0)
(-0.00977134 -1.46618e-05 0)
(-0.00971535 -1.59264e-05 0)
(-0.00965483 -1.72259e-05 0)
(-0.00958967 -1.85597e-05 0)
(-0.00951977 -1.99273e-05 0)
(-0.00944499 -2.13276e-05 0)
(-0.00936525 -2.27597e-05 0)
(-0.00928043 -2.42223e-05 0)
(-0.00919044 -2.57139e-05 0)
(-0.00909518 -2.72327e-05 0)
(-0.00899458 -2.87768e-05 0)
(-0.00888855 -3.03438e-05 0)
(-0.00877702 -3.19314e-05 0)
(-0.00865994 -3.35367e-05 0)
(-0.00853725 -3.51566e-05 0)
(-0.00840893 -3.67879e-05 0)
(-0.00827493 -3.84268e-05 0)
(-0.00813526 -4.00694e-05 0)
(-0.0079899 -4.17114e-05 0)
(-0.00783889 -4.33484e-05 0)
(-0.00768225 -4.49753e-05 0)
(-0.00752003 -4.65872e-05 0)
(-0.00735231 -4.81783e-05 0)
(-0.00717918 -4.97431e-05 0)
(-0.00700073 -5.12753e-05 0)
(-0.00681711 -5.27686e-05 0)
(-0.00662847 -5.42163e-05 0)
(-0.00643499 -5.56115e-05 0)
(-0.00623686 -5.69469e-05 0)
(-0.00603431 -5.82152e-05 0)
(-0.0058276 -5.94086e-05 0)
(-0.005617 -6.05193e-05 0)
(-0.00540281 -6.15391e-05 0)
(-0.00518538 -6.24598e-05 0)
(-0.00496507 -6.3273e-05 0)
(-0.00474225 -6.39701e-05 0)
(-0.00451736 -6.45426e-05 0)
(-0.00429084 -6.49817e-05 0)
(-0.00406316 -6.52787e-05 0)
(-0.00383483 -6.54248e-05 0)
(-0.00360639 -6.54113e-05 0)
(-0.0033784 -6.52294e-05 0)
(-0.00315145 -6.48706e-05 0)
(-0.00292617 -6.43263e-05 0)
(-0.00270319 -6.35883e-05 0)
(-0.00248319 -6.26482e-05 0)
(-0.00226687 -6.1498e-05 0)
(-0.00205495 -6.01299e-05 0)
(-0.00184817 -5.85365e-05 0)
(-0.00164731 -5.67106e-05 0)
(-0.00145314 -5.46456e-05 0)
(-0.00126647 -5.2335e-05 0)
(-0.00108811 -4.97727e-05 0)
(-0.0009189 -4.69536e-05 0)
(-0.000759663 -4.38737e-05 0)
(-0.000611237 -4.053e-05 0)
(-0.000474455 -3.69206e-05 0)
(-0.000350135 -3.30456e-05 0)
(-0.000239071 -2.89078e-05 0)
(-0.000142016 -2.45149e-05 0)
(-5.96647e-05 -1.98809e-05 0)
(7.38256e-06 -1.50296e-05 0)
(5.8657e-05 -9.99988e-06 0)
(9.38895e-05 -4.85627e-06 0)
(0.000113111 2.91115e-07 0)
(0.000116816 5.25224e-06 0)
(0.000106212 9.69708e-06 0)
(8.35688e-05 1.30557e-05 0)
(5.29419e-05 1.4321e-05 0)
(2.22974e-05 1.18099e-05 0)
(4.15504e-06 4.15362e-06 0)
(9.20296e-06 -1.70834e-05 0)
(3.9823e-05 -3.98061e-05 0)
(8.50444e-05 -4.64821e-05 0)
(0.000127409 -4.08001e-05 0)
(0.000154889 -2.70467e-05 0)
(0.000160153 -8.29899e-06 0)
(0.000138358 1.33611e-05 0)
(8.64876e-05 3.65327e-05 0)
(2.93742e-06 6.02774e-05 0)
(-0.000112882 8.39654e-05 0)
(-0.000260838 0.00010717 0)
(-0.000440279 0.0001296 0)
(-0.000650186 0.000151061 0)
(-0.00088928 0.000171423 0)
(-0.0011561 0.000190602 0)
(-0.00144908 0.00020855 0)
(-0.00176656 0.000225242 0)
(-0.00210684 0.000240674 0)
(-0.00246821 0.000254855 0)
(-0.00284898 0.000267804 0)
(-0.00324745 0.00027955 0)
(-0.00366199 0.000290126 0)
(-0.00409096 0.000299571 0)
(-0.00453283 0.000307927 0)
(-0.00498608 0.000315237 0)
(-0.00544926 0.000321549 0)
(-0.00592098 0.000326908 0)
(-0.00639993 0.000331362 0)
(-0.00688484 0.00033496 0)
(-0.00737451 0.000337747 0)
(-0.00786781 0.000339771 0)
(-0.00836368 0.000341078 0)
(-0.00886112 0.000341714 0)
(-0.00935917 0.000341722 0)
(-0.00985697 0.000341145 0)
(-0.0103537 0.000340026 0)
(-0.0108486 0.000338404 0)
(-0.0113409 0.000336319 0)
(-0.01183 0.000333807 0)
(-0.0123154 0.000330905 0)
(-0.0127964 0.000327647 0)
(-0.0132725 0.000324066 0)
(-0.0137433 0.000320193 0)
(-0.0142085 0.000316058 0)
(-0.0146675 0.000311689 0)
(-0.0151201 0.000307114 0)
(-0.0155661 0.000302356 0)
(-0.016005 0.000297441 0)
(-0.0164368 0.000292391 0)
(-0.0168613 0.000287226 0)
(-0.0172782 0.000281966 0)
(-0.0176874 0.00027663 0)
(-0.0180888 0.000271234 0)
(-0.0184824 0.000265796 0)
(-0.0188681 0.000260329 0)
(-0.0192459 0.000254846 0)
(-0.0196156 0.000249362 0)
(-0.0199774 0.000243886 0)
(-0.0203313 0.00023843 0)
(-0.0206772 0.000233002 0)
(-0.0210152 0.000227612 0)
(-0.0213453 0.000222268 0)
(-0.0216677 0.000216975 0)
(-0.0219824 0.00021174 0)
(-0.0222895 0.000206568 0)
(-0.0225891 0.000201464 0)
(-0.0228813 0.000196432 0)
(-0.0231661 0.000191474 0)
(-0.0234437 0.000186593 0)
(-0.0237142 0.000181791 0)
(-0.0239777 0.000177069 0)
(-0.0242343 0.000172429 0)
(-0.0244842 0.000167869 0)
(-0.0247273 0.000163391 0)
(-0.024964 0.000158992 0)
(-0.0251942 0.000154673 0)
(-0.0254182 0.000150431 0)
(-0.0256359 0.000146264 0)
(-0.0258475 0.00014217 0)
(-0.0260531 0.000138146 0)
(-0.0262528 0.000134188 0)
(-0.0264467 0.000130293 0)
(-0.0266348 0.000126457 0)
(-0.0268174 0.000122676 0)
(-0.0269943 0.000118945 0)
(-0.0271658 0.00011526 0)
(-0.0273318 0.000111615 0)
(-0.0274924 0.000108005 0)
(-0.0276477 0.000104424 0)
(-0.0277976 0.000100866 0)
(-0.0279423 9.73251e-05 0)
(-0.0280818 9.37951e-05 0)
(-0.0282159 9.0269e-05 0)
(-0.0283449 8.67402e-05 0)
(-0.0284685 8.32016e-05 0)
(-0.0285869 7.96459e-05 0)
(-0.0287 7.60657e-05 0)
(-0.0288077 7.24535e-05 0)
(-0.02891 6.88016e-05 0)
(-0.0290069 6.51021e-05 0)
(-0.0290982 6.13469e-05 0)
(-0.0291838 5.75281e-05 0)
(-0.0292637 5.36374e-05 0)
(-0.0293378 4.96663e-05 0)
(-0.0294059 4.56066e-05 0)
(-0.0294679 4.14499e-05 0)
(-0.0295237 3.71877e-05 0)
(-0.029573 3.28116e-05 0)
(-0.0296158 2.83132e-05 0)
(-0.0296518 2.36839e-05 0)
(-0.0296808 1.89155e-05 0)
(-0.0297027 1.39996e-05 0)
(-0.0297172 8.92821e-06 0)
(-0.0297241 3.6933e-06 0)
(-0.0297231 -1.7129e-06 0)
(-0.029714 -7.29797e-06 0)
(-0.0296965 -1.30692e-05 0)
(-0.0296704 -1.90337e-05 0)
(-0.0296354 -2.5198e-05 0)
(-0.0295912 -3.15685e-05 0)
(-0.0295374 -3.81509e-05 0)
(-0.0294738 -4.49506e-05 0)
(-0.0294001 -5.19723e-05 0)
(-0.0293159 -5.92204e-05 0)
(-0.029221 -6.66983e-05 0)
(-0.0291149 -7.44088e-05 0)
(-0.0289973 -8.2354e-05 0)
(-0.028868 -9.05351e-05 0)
(-0.0287266 -9.89524e-05 0)
(-0.0285727 -0.000107605 0)
(-0.028406 -0.000116492 0)
(-0.0282262 -0.000125609 0)
(-0.028033 -0.000134953 0)
(-0.027826 -0.000144519 0)
(-0.0276049 -0.0001543 0)
(-0.0273695 -0.000164288 0)
(-0.0271195 -0.000174473 0)
(-0.0268545 -0.000184845 0)
(-0.0265744 -0.000195391 0)
(-0.0262788 -0.000206096 0)
(-0.0259677 -0.000216944 0)
(-0.0256408 -0.000227918 0)
(-0.025298 -0.000238998 0)
(-0.0249391 -0.000250163 0)
(-0.024564 -0.000261388 0)
(-0.0241727 -0.000272648 0)
(-0.0237652 -0.000283916 0)
(-0.0233415 -0.000295163 0)
(-0.0229016 -0.000306356 0)
(-0.0224458 -0.000317463 0)
(-0.021974 -0.000328447 0)
(-0.0214866 -0.00033927 0)
(-0.0209838 -0.000349894 0)
(-0.020466 -0.000360277 0)
(-0.0199335 -0.000370374 0)
(-0.0193868 -0.000380141 0)
(-0.0188264 -0.000389531 0)
(-0.018253 -0.000398494 0)
(-0.0176671 -0.000406981 0)
(-0.0170695 -0.00041494 0)
(-0.016461 -0.000422318 0)
(-0.0158425 -0.00042906 0)
(-0.015215 -0.000435111 0)
(-0.0145795 -0.000440416 0)
(-0.0139371 -0.000444917 0)
(-0.013289 -0.000448558 0)
(-0.0126366 -0.000451281 0)
(-0.0119811 -0.000453029 0)
(-0.011324 -0.000453744 0)
(-0.0106668 -0.000453371 0)
(-0.0100112 -0.000451852 0)
(-0.00935878 -0.000449133 0)
(-0.00871134 -0.00044516 0)
(-0.00807068 -0.000439881 0)
(-0.00743872 -0.000433245 0)
(-0.0068174 -0.000425205 0)
(-0.00620875 -0.000415714 0)
(-0.00561486 -0.000404731 0)
(-0.00503786 -0.000392217 0)
(-0.00447991 -0.000378137 0)
(-0.00394324 -0.000362464 0)
(-0.00343007 -0.000345173 0)
(-0.00294267 -0.000326249 0)
(-0.00248328 -0.000305687 0)
(-0.00205414 -0.000283495 0)
(-0.00165743 -0.000259695 0)
(-0.00129527 -0.000234331 0)
(-0.000969671 -0.000207473 0)
(-0.000682482 -0.00017923 0)
(-0.000435319 -0.000149764 0)
(-0.000229474 -0.000119316 0)
(-6.57943e-05 -8.82311e-05 0)
(5.55016e-05 -5.702e-05 0)
(0.000135072 -2.64378e-05 0)
(0.000174816 2.3778e-06 0)
(0.000178369 2.7703e-05 0)
(0.000151652 4.69341e-05 0)
(0.000103742 5.61502e-05 0)
(4.97361e-05 4.97341e-05 0)
(1.18055e-05 2.22824e-05 0)
(1.15469e-05 -4.18712e-05 0)
(4.66058e-05 -8.50573e-05 0)
(9.32207e-05 -9.30179e-05 0)
(0.000129838 -7.43114e-05 0)
(0.000141758 -3.68813e-05 0)
(0.000119511 1.30374e-05 0)
(5.64126e-05 7.0812e-05 0)
(-5.19762e-05 0.000133083 0)
(-0.000208236 0.000197445 0)
(-0.000413525 0.000262178 0)
(-0.00066793 0.000326058 0)
(-0.000970735 0.00038821 0)
(-0.00132063 0.000448019 0)
(-0.00171585 0.000505053 0)
(-0.00215434 0.00055902 0)
(-0.00263381 0.00060973 0)
(-0.0031518 0.000657073 0)
(-0.00370579 0.000700994 0)
(-0.00429319 0.000741488 0)
(-0.00491139 0.000778583 0)
(-0.00555782 0.000812334 0)
(-0.0062299 0.000842818 0)
(-0.00692515 0.000870126 0)
(-0.00764112 0.000894363 0)
(-0.00837545 0.000915642 0)
(-0.00912585 0.000934084 0)
(-0.00989014 0.000949812 0)
(-0.0106662 0.000962955 0)
(-0.0114521 0.000973642 0)
(-0.0122458 0.000982002 0)
(-0.0130455 0.000988165 0)
(-0.0138497 0.000992259 0)
(-0.0146565 0.00099441 0)
(-0.0154646 0.000994742 0)
(-0.0162725 0.000993376 0)
(-0.0170789 0.00099043 0)
(-0.0178825 0.000986017 0)
(-0.0186822 0.000980249 0)
(-0.0194769 0.000973233 0)
(-0.0202657 0.00096507 0)
(-0.0210476 0.00095586 0)
(-0.0218219 0.000945696 0)
(-0.0225878 0.00093467 0)
(-0.0233446 0.000922866 0)
(-0.0240917 0.000910367 0)
(-0.0248285 0.000897249 0)
(-0.0255546 0.000883587 0)
(-0.0262696 0.000869449 0)
(-0.026973 0.0008549 0)
(-0.0276646 0.000840003 0)
(-0.0283441 0.000824814 0)
(-0.0290112 0.000809387 0)
(-0.0296658 0.000793773 0)
(-0.0303077 0.000778018 0)
(-0.0309369 0.000762165 0)
(-0.0315532 0.000746254 0)
(-0.0321565 0.000730322 0)
(-0.032747 0.000714403 0)
(-0.0333245 0.000698528 0)
(-0.0338892 0.000682725 0)
(-0.0344411 0.000667019 0)
(-0.0349802 0.000651433 0)
(-0.0355067 0.000635987 0)
(-0.0360207 0.0006207 0)
(-0.0365222 0.000605587 0)
(-0.0370116 0.000590661 0)
(-0.0374888 0.000575935 0)
(-0.037954 0.000561417 0)
(-0.0384075 0.000547115 0)
(-0.0388494 0.000533035 0)
(-0.0392798 0.000519182 0)
(-0.039699 0.000505557 0)
(-0.0401071 0.000492162 0)
(-0.0405043 0.000478996 0)
(-0.0408908 0.000466058 0)
(-0.0412667 0.000453343 0)
(-0.0416323 0.000440848 0)
(-0.0419877 0.000428566 0)
(-0.042333 0.000416491 0)
(-0.0426685 0.000404614 0)
(-0.0429943 0.000392927 0)
(-0.0433105 0.000381418 0)
(-0.0436173 0.000370077 0)
(-0.0439148 0.000358892 0)
(-0.0442031 0.000347849 0)
(-0.0444823 0.000336935 0)
(-0.0447525 0.000326134 0)
(-0.0450139 0.000315432 0)
(-0.0452664 0.000304811 0)
(-0.0455101 0.000294255 0)
(-0.0457451 0.000283745 0)
(-0.0459714 0.000273265 0)
(-0.0461891 0.000262793 0)
(-0.046398 0.000252311 0)
(-0.0465982 0.000241798 0)
(-0.0467897 0.000231234 0)
(-0.0469724 0.000220597 0)
(-0.0471462 0.000209865 0)
(-0.0473111 0.000199017 0)
(-0.0474669 0.000188028 0)
(-0.0476136 0.000176877 0)
(-0.0477509 0.00016554 0)
(-0.0478787 0.000153994 0)
(-0.0479969 0.000142214 0)
(-0.0481052 0.000130177 0)
(-0.0482035 0.000117858 0)
(-0.0482914 0.000105233 0)
(-0.0483688 9.22778e-05 0)
(-0.0484353 7.89687e-05 0)
(-0.0484907 6.52814e-05 0)
(-0.0485346 5.11922e-05 0)
(-0.0485667 3.66774e-05 0)
(-0.0485867 2.17139e-05 0)
(-0.0485942 6.27914e-06 0)
(-0.0485887 -9.64902e-06 0)
(-0.04857 -2.6092e-05 0)
(-0.0485376 -4.30703e-05 0)
(-0.048491 -6.06037e-05 0)
(-0.0484297 -7.87109e-05 0)
(-0.0483535 -9.74094e-05 0)
(-0.0482616 -0.000116715 0)
(-0.0481537 -0.000136644 0)
(-0.0480293 -0.000157207 0)
(-0.0478878 -0.000178417 0)
(-0.0477287 -0.000200284 0)
(-0.0475516 -0.000222814 0)
(-0.0473558 -0.000246012 0)
(-0.0471409 -0.000269882 0)
(-0.0469062 -0.000294423 0)
(-0.0466514 -0.000319633 0)
(-0.0463758 -0.000345505 0)
(-0.0460789 -0.00037203 0)
(-0.0457603 -0.000399196 0)
(-0.0454194 -0.000426987 0)
(-0.0450558 -0.000455383 0)
(-0.0446689 -0.000484359 0)
(-0.0442584 -0.000513887 0)
(-0.0438238 -0.000543935 0)
(-0.0433648 -0.000574465 0)
(-0.042881 -0.000605435 0)
(-0.042372 -0.000636798 0)
(-0.0418376 -0.000668503 0)
(-0.0412776 -0.000700491 0)
(-0.0406918 -0.000732699 0)
(-0.04008 -0.00076506 0)
(-0.0394422 -0.000797499 0)
(-0.0387783 -0.000829936 0)
(-0.0380885 -0.000862287 0)
(-0.0373728 -0.00089446 0)
(-0.0366314 -0.000926358 0)
(-0.0358647 -0.000957878 0)
(-0.0350729 -0.000988912 0)
(-0.0342566 -0.00101935 0)
(-0.0334163 -0.00104906 0)
(-0.0325527 -0.00107793 0)
(-0.0316664 -0.00110583 0)
(-0.0307584 -0.00113262 0)
(-0.0298296 -0.00115816 0)
(-0.028881 -0.0011823 0)
(-0.0279139 -0.00120491 0)
(-0.0269296 -0.00122583 0)
(-0.0259296 -0.0012449 0)
(-0.0249152 -0.00126198 0)
(-0.0238883 -0.00127689 0)
(-0.0228507 -0.00128948 0)
(-0.0218042 -0.00129959 0)
(-0.0207509 -0.00130706 0)
(-0.019693 -0.00131172 0)
(-0.0186328 -0.00131341 0)
(-0.0175728 -0.00131198 0)
(-0.0165155 -0.00130728 0)
(-0.0154635 -0.00129914 0)
(-0.0144197 -0.00128741 0)
(-0.0133869 -0.00127197 0)
(-0.0123682 -0.00125266 0)
(-0.0113667 -0.00122937 0)
(-0.0103854 -0.00120197 0)
(-0.00942782 -0.00117035 0)
(-0.00849717 -0.00113441 0)
(-0.00759687 -0.00109409 0)
(-0.00673037 -0.0010493 0)
(-0.00590114 -0.00100001 0)
(-0.00511264 -0.000946204 0)
(-0.00436832 -0.000887898 0)
(-0.00367157 -0.000825149 0)
(-0.00302568 -0.000758067 0)
(-0.0024338 -0.000686829 0)
(-0.00189885 -0.0006117 0)
(-0.00142347 -0.000533061 0)
(-0.00100989 -0.000451452 0)
(-0.000659772 -0.000367632 0)
(-0.000374063 -0.000282664 0)
(-0.000152716 -0.000198032 0)
(5.63012e-06 -0.000115825 0)
(0.000104084 -3.89885e-05 0)
(0.000148055 2.83175e-05 0)
(0.00014578 8.02702e-05 0)
(0.000109035 0.000108892 0)
(5.62057e-05 0.000103759 0)
(1.43197e-05 5.29173e-05 0)
(1.09163e-05 -6.76231e-05 0)
(4.11192e-05 -0.000127605 0)
(7.49037e-05 -0.00012972 0)
(8.94023e-05 -8.87049e-05 0)
(6.88355e-05 -1.65378e-05 0)
(2.66261e-06 7.7176e-05 0)
(-0.000116787 0.000184998 0)
(-0.000294787 0.000301308 0)
(-0.000534561 0.000421911 0)
(-0.000837692 0.000543696 0)
(-0.00120447 0.000664365 0)
(-0.0016342 0.000782231 0)
(-0.00212538 0.000896063 0)
(-0.00267594 0.00100498 0)
(-0.00328337 0.00110835 0)
(-0.00394485 0.00120576 0)
(-0.00465729 0.00129694 0)
(-0.0054175 0.00138174 0)
(-0.00622216 0.00146011 0)
(-0.00706793 0.00153206 0)
(-0.00795144 0.00159766 0)
(-0.00886937 0.00165704 0)
(-0.00981843 0.00171035 0)
(-0.0107954 0.00175777 0)
(-0.0117972 0.0017995 0)
(-0.0128208 0.00183576 0)
(-0.0138633 0.00186677 0)
(-0.0149218 0.00189278 0)
(-0.0159937 0.00191401 0)
(-0.0170764 0.00193073 0)
(-0.0181676 0.00194316 0)
(-0.0192648 0.00195155 0)
(-0.020366 0.00195615 0)
(-0.021469 0.00195718 0)
(-0.022572 0.00195489 0)
(-0.0236731 0.00194949 0)
(-0.0247707 0.0019412 0)
(-0.0258631 0.00193024 0)
(-0.0269491 0.00191683 0)
(-0.0280272 0.00190114 0)
(-0.0290961 0.00188338 0)
(-0.0301548 0.00186373 0)
(-0.0312022 0.00184237 0)
(-0.0322375 0.00181946 0)
(-0.0332597 0.00179516 0)
(-0.0342681 0.00176962 0)
(-0.035262 0.00174299 0)
(-0.0362408 0.00171541 0)
(-0.0372041 0.001687 0)
(-0.0381513 0.00165787 0)
(-0.0390821 0.00162816 0)
(-0.0399962 0.00159795 0)
(-0.0408932 0.00156736 0)
(-0.041773 0.00153646 0)
(-0.0426354 0.00150536 0)
(-0.0434803 0.00147412 0)
(-0.0443076 0.00144282 0)
(-0.0451173 0.00141153 0)
(-0.0459094 0.00138031 0)
(-0.046684 0.00134921 0)
(-0.047441 0.00131828 0)
(-0.0481807 0.00128758 0)
(-0.048903 0.00125714 0)
(-0.0496083 0.00122699 0)
(-0.0502965 0.00119717 0)
(-0.050968 0.00116771 0)
(-0.0516228 0.00113863 0)
(-0.0522613 0.00110994 0)
(-0.0528836 0.00108167 0)
(-0.05349 0.00105383 0)
(-0.0540806 0.00102642 0)
(-0.0546558 0.000999446 0)
(-0.0552157 0.000972918 0)
(-0.0557607 0.000946831 0)
(-0.0562908 0.000921183 0)
(-0.0568065 0.000895967 0)
(-0.0573078 0.000871174 0)
(-0.0577952 0.000846794 0)
(-0.0582686 0.000822813 0)
(-0.0587285 0.000799216 0)
(-0.0591749 0.000775984 0)
(-0.0596081 0.000753098 0)
(-0.0600283 0.000730536 0)
(-0.0604356 0.000708274 0)
(-0.0608302 0.000686287 0)
(-0.0612122 0.000664548 0)
(-0.0615817 0.000643027 0)
(-0.061939 0.000621695 0)
(-0.062284 0.000600519 0)
(-0.0626168 0.000579466 0)
(-0.0629375 0.000558502 0)
(-0.0632461 0.00053759 0)
(-0.0635427 0.000516692 0)
(-0.0638272 0.000495771 0)
(-0.0640997 0.000474787 0)
(-0.06436 0.0004537 0)
(-0.064608 0.000432466 0)
(-0.0648438 0.000411045 0)
(-0.0650671 0.000389392 0)
(-0.0652779 0.000367463 0)
(-0.0654759 0.000345214 0)
(-0.065661 0.000322598 0)
(-0.065833 0.000299571 0)
(-0.0659915 0.000276085 0)
(-0.0661364 0.000252093 0)
(-0.0662673 0.00022755 0)
(-0.066384 0.000202407 0)
(-0.066486 0.000176618 0)
(-0.066573 0.000150136 0)
(-0.0666446 0.000122914 0)
(-0.0667004 9.49062e-05 0)
(-0.0667398 6.60673e-05 0)
(-0.0667626 3.63524e-05 0)
(-0.0667681 5.7179e-06 0)
(-0.0667558 -2.58788e-05 0)
(-0.0667252 -5.84789e-05 0)
(-0.0666757 -9.2122e-05 0)
(-0.0666067 -0.000126846 0)
(-0.0665177 -0.000162686 0)
(-0.0664079 -0.000199676 0)
(-0.0662768 -0.000237846 0)
(-0.0661237 -0.000277225 0)
(-0.065948 -0.000317837 0)
(-0.0657488 -0.000359703 0)
(-0.0655256 -0.000402841 0)
(-0.0652777 -0.000447264 0)
(-0.0650043 -0.00049298 0)
(-0.0647047 -0.000539995 0)
(-0.0643783 -0.000588306 0)
(-0.0640242 -0.000637906 0)
(-0.0636419 -0.000688783 0)
(-0.0632306 -0.000740918 0)
(-0.0627897 -0.000794286 0)
(-0.0623185 -0.000848852 0)
(-0.0618163 -0.000904577 0)
(-0.0612826 -0.000961413 0)
(-0.0607168 -0.0010193 0)
(-0.0601183 -0.00107818 0)
(-0.0594866 -0.00113798 0)
(-0.0588213 -0.0011986 0)
(-0.058122 -0.00125997 0)
(-0.0573882 -0.00132197 0)
(-0.0566197 -0.00138449 0)
(-0.0558164 -0.00144742 0)
(-0.0549779 -0.0015106 0)
(-0.0541043 -0.00157391 0)
(-0.0531955 -0.00163719 0)
(-0.0522517 -0.00170026 0)
(-0.051273 -0.00176295 0)
(-0.0502597 -0.00182506 0)
(-0.0492122 -0.00188641 0)
(-0.0481312 -0.00194678 0)
(-0.047017 -0.00200595 0)
(-0.0458707 -0.00206367 0)
(-0.044693 -0.00211972 0)
(-0.0434849 -0.00217384 0)
(-0.0422477 -0.00222577 0)
(-0.0409826 -0.00227524 0)
(-0.0396911 -0.00232196 0)
(-0.0383749 -0.00236566 0)
(-0.0370356 -0.00240604 0)
(-0.0356753 -0.00244281 0)
(-0.0342961 -0.00247566 0)
(-0.0329002 -0.00250428 0)
(-0.0314901 -0.00252837 0)
(-0.0300683 -0.00254762 0)
(-0.0286376 -0.00256172 0)
(-0.0272009 -0.00257035 0)
(-0.0257615 -0.00257321 0)
(-0.0243224 -0.00257 0)
(-0.0228872 -0.00256043 0)
(-0.0214595 -0.0025442 0)
(-0.0200428 -0.00252103 0)
(-0.0186412 -0.00249066 0)
(-0.0172586 -0.00245284 0)
(-0.0158991 -0.00240732 0)
(-0.0145669 -0.00235389 0)
(-0.0132664 -0.00229237 0)
(-0.0120021 -0.00222257 0)
(-0.0107783 -0.00214436 0)
(-0.00959958 -0.00205766 0)
(-0.00847048 -0.0019624 0)
(-0.0073955 -0.0018586 0)
(-0.00637908 -0.00174634 0)
(-0.00542557 -0.00162576 0)
(-0.00453917 -0.00149715 0)
(-0.00372381 -0.0013609 0)
(-0.00298314 -0.00121761 0)
(-0.00232037 -0.00106807 0)
(-0.00173812 -0.000913414 0)
(-0.00123831 -0.000755156 0)
(-0.000821857 -0.000595364 0)
(-0.000488454 -0.000436846 0)
(-0.0002362 -0.000283407 0)
(-6.11703e-05 -0.000140209 0)
(4.31053e-05 -1.42299e-05 0)
(8.6103e-05 8.51755e-05 0)
(8.09375e-05 0.000145739 0)
(4.71902e-05 0.000151844 0)
(1.30862e-05 8.35972e-05 0)
(8.59718e-06 -8.80155e-05 0)
(2.7602e-05 -0.000155481 0)
(3.79055e-05 -0.000141941 0)
(1.78165e-05 -6.82403e-05 0)
(-4.82655e-05 4.95544e-05 0)
(-0.000171224 0.000198505 0)
(-0.000359091 0.000368379 0)
(-0.000617489 0.00055124 0)
(-0.000949951 0.000740996 0)
(-0.00135829 0.000932997 0)
(-0.00184291 0.00112372 0)
(-0.0024031 0.00131051 0)
(-0.00303724 0.00149139 0)
(-0.00374302 0.00166489 0)
(-0.00451759 0.00182997 0)
(-0.00535768 0.00198587 0)
(-0.00625975 0.00213213 0)
(-0.00722002 0.00226842 0)
(-0.0082346 0.00239462 0)
(-0.0092995 0.0025107 0)
(-0.0104107 0.00261673 0)
(-0.0115643 0.00271288 0)
(-0.0127562 0.00279935 0)
(-0.0139826 0.00287641 0)
(-0.0152397 0.00294436 0)
(-0.0165238 0.00300351 0)
(-0.0178314 0.00305423 0)
(-0.019159 0.00309687 0)
(-0.0205033 0.00313181 0)
(-0.0218613 0.00315943 0)
(-0.0232298 0.0031801 0)
(-0.0246061 0.00319423 0)
(-0.0259874 0.00320218 0)
(-0.0273712 0.00320433 0)
(-0.0287552 0.00320105 0)
(-0.030137 0.0031927 0)
(-0.0315146 0.00317964 0)
(-0.0328861 0.0031622 0)
(-0.0342495 0.00314073 0)
(-0.0356033 0.00311554 0)
(-0.0369459 0.00308695 0)
(-0.0382759 0.00305524 0)
(-0.0395919 0.0030207 0)
(-0.0408929 0.00298361 0)
(-0.0421777 0.00294422 0)
(-0.0434453 0.00290278 0)
(-0.044695 0.00285952 0)
(-0.0459259 0.00281468 0)
(-0.0471374 0.00276844 0)
(-0.0483289 0.00272102 0)
(-0.0495 0.0026726 0)
(-0.0506501 0.00262335 0)
(-0.051779 0.00257343 0)
(-0.0528863 0.002523 0)
(-0.0539719 0.00247219 0)
(-0.0550356 0.00242114 0)
(-0.0560773 0.00236996 0)
(-0.0570969 0.00231877 0)
(-0.0580944 0.00226767 0)
(-0.0590699 0.00221675 0)
(-0.0600234 0.00216609 0)
(-0.0609551 0.00211576 0)
(-0.061865 0.00206585 0)
(-0.0627534 0.0020164 0)
(-0.0636205 0.00196747 0)
(-0.0644664 0.0019191 0)
(-0.0652914 0.00187133 0)
(-0.0660958 0.0018242 0)
(-0.0668798 0.00177773 0)
(-0.0676437 0.00173194 0)
(-0.0683877 0.00168684 0)
(-0.0691122 0.00164246 0)
(-0.0698175 0.00159878 0)
(-0.0705038 0.00155581 0)
(-0.0711714 0.00151355 0)
(-0.0718207 0.00147198 0)
(-0.0724519 0.0014311 0)
(-0.0730653 0.00139088 0)
(-0.0736611 0.0013513 0)
(-0.0742397 0.00131234 0)
(-0.0748013 0.00127397 0)
(-0.0753461 0.00123615 0)
(-0.0758743 0.00119886 0)
(-0.0763862 0.00116205 0)
(-0.076882 0.00112569 0)
(-0.0773618 0.00108972 0)
(-0.0778257 0.0010541 0)
(-0.078274 0.00101879 0)
(-0.0787067 0.00098372 0)
(-0.0791239 0.00094885 0)
(-0.0795257 0.000914119 0)
(-0.0799121 0.000879469 0)
(-0.0802832 0.000844839 0)
(-0.0806389 0.000810166 0)
(-0.0809792 0.000775386 0)
(-0.0813041 0.000740433 0)
(-0.0816134 0.000705239 0)
(-0.081907 0.000669736 0)
(-0.0821848 0.000633851 0)
(-0.0824466 0.000597515 0)
(-0.0826922 0.000560653 0)
(-0.0829213 0.000523192 0)
(-0.0831337 0.000485058 0)
(-0.083329 0.000446175 0)
(-0.083507 0.000406467 0)
(-0.0836672 0.000365859 0)
(-0.0838093 0.000324275 0)
(-0.0839328 0.000281638 0)
(-0.0840373 0.000237872 0)
(-0.0841222 0.000192903 0)
(-0.0841871 0.000146656 0)
(-0.0842313 9.90583e-05 0)
(-0.0842543 5.00372e-05 0)
(-0.0842556 -4.77214e-07 0)
(-0.0842343 -5.25534e-05 0)
(-0.0841899 -0.000106257 0)
(-0.0841216 -0.000161652 0)
(-0.0840288 -0.000218799 0)
(-0.0839106 -0.000277754 0)
(-0.0837664 -0.00033857 0)
(-0.0835952 -0.000401296 0)
(-0.0833964 -0.000465977 0)
(-0.083169 -0.00053265 0)
(-0.0829122 -0.00060135 0)
(-0.0826253 -0.000672102 0)
(-0.0823072 -0.000744927 0)
(-0.0819572 -0.000819838 0)
(-0.0815744 -0.000896839 0)
(-0.0811579 -0.000975927 0)
(-0.0807068 -0.00105709 0)
(-0.0802204 -0.0011403 0)
(-0.0796977 -0.00122553 0)
(-0.0791379 -0.00131274 0)
(-0.0785402 -0.00140187 0)
(-0.077904 -0.00149285 0)
(-0.0772283 -0.0015856 0)
(-0.0765125 -0.00168003 0)
(-0.0757561 -0.00177603 0)
(-0.0749582 -0.00187348 0)
(-0.0741185 -0.00197225 0)
(-0.0732364 -0.00207218 0)
(-0.0723115 -0.00217309 0)
(-0.0713434 -0.00227482 0)
(-0.0703319 -0.00237715 0)
(-0.0692769 -0.00247987 0)
(-0.0681782 -0.00258274 0)
(-0.0670358 -0.00268551 0)
(-0.06585 -0.0027879 0)
(-0.064621 -0.00288963 0)
(-0.0633491 -0.00299038 0)
(-0.062035 -0.00308984 0)
(-0.0606791 -0.00318766 0)
(-0.0592825 -0.00328348 0)
(-0.057846 -0.00337692 0)
(-0.0563707 -0.0034676 0)
(-0.054858 -0.00355511 0)
(-0.0533093 -0.00363901 0)
(-0.0517262 -0.00371889 0)
(-0.0501107 -0.00379428 0)
(-0.0484646 -0.00386473 0)
(-0.0467903 -0.00392977 0)
(-0.0450902 -0.00398891 0)
(-0.0433668 -0.00404168 0)
(-0.0416229 -0.00408758 0)
(-0.0398617 -0.00412611 0)
(-0.0380863 -0.00415678 0)
(-0.0363 -0.0041791 0)
(-0.0345067 -0.00419256 0)
(-0.03271 -0.00419669 0)
(-0.030914 -0.004191 0)
(-0.029123 -0.00417501 0)
(-0.0273412 -0.00414829 0)
(-0.0255733 -0.00411038 0)
(-0.023824 -0.00406087 0)
(-0.0220982 -0.00399937 0)
(-0.020401 -0.00392551 0)
(-0.0187375 -0.00383896 0)
(-0.0171129 -0.00373945 0)
(-0.0155326 -0.00362672 0)
(-0.014002 -0.00350059 0)
(-0.0125266 -0.00336095 0)
(-0.0111118 -0.00320775 0)
(-0.009763 -0.00304107 0)
(-0.00848547 -0.00286107 0)
(-0.00728437 -0.00266808 0)
(-0.00616461 -0.0024626 0)
(-0.00513079 -0.00224536 0)
(-0.0041871 -0.00201737 0)
(-0.0033372 -0.00178 0)
(-0.00258403 -0.00153512 0)
(-0.00192964 -0.00128519 0)
(-0.00137497 -0.00103347 0)
(-0.000919555 -0.000784285 0)
(-0.000561191 -0.000543353 0)
(-0.00029554 -0.000318185 0)
(-0.000115682 -0.00011864 0)
(-1.16937e-05 4.24351e-05 0)
(2.9929e-05 0.000148593 0)
(2.83391e-05 0.000179093 0)
(9.79738e-06 0.000106443 0)
(5.37458e-06 -9.97382e-05 0)
(9.06166e-06 -0.000161329 0)
(-1.17209e-05 -0.000120126 0)
(-7.5657e-05 -2.22372e-06 0)
(-0.00019716 0.000172505 0)
(-0.000386876 0.000387969 0)
(-0.000652709 0.000631262 0)
(-0.00100023 0.000892186 0)
(-0.00143298 0.00116274 0)
(-0.0019528 0.0014367 0)
(-0.00256007 0.00170923 0)
(-0.003254 0.00197662 0)
(-0.00403285 0.00223605 0)
(-0.00489408 0.00248539 0)
(-0.00583456 0.00272308 0)
(-0.00685067 0.00294799 0)
(-0.00793846 0.00315935 0)
(-0.00909368 0.00335665 0)
(-0.010312 0.00353965 0)
(-0.0115888 0.00370824 0)
(-0.0129195 0.00386248 0)
(-0.0142997 0.00400256 0)
(-0.0157248 0.00412873 0)
(-0.0171902 0.00424134 0)
(-0.0186917 0.00434078 0)
(-0.020225 0.00442752 0)
(-0.0217858 0.00450201 0)
(-0.0233703 0.00456478 0)
(-0.0249746 0.00461635 0)
(-0.026595 0.00465724 0)
(-0.028228 0.00468801 0)
(-0.0298702 0.00470921 0)
(-0.0315186 0.00472137 0)
(-0.03317 0.00472503 0)
(-0.0348217 0.00472073 0)
(-0.036471 0.00470898 0)
(-0.0381155 0.0046903 0)
(-0.0397527 0.00466519 0)
(-0.0413807 0.00463412 0)
(-0.0429973 0.00459757 0)
(-0.0446007 0.00455598 0)
(-0.0461893 0.00450978 0)
(-0.0477614 0.00445939 0)
(-0.0493158 0.00440521 0)
(-0.050851 0.00434762 0)
(-0.052366 0.00428697 0)
(-0.0538596 0.00422362 0)
(-0.0553311 0.00415789 0)
(-0.0567796 0.00409007 0)
(-0.0582043 0.00402048 0)
(-0.0596047 0.00394936 0)
(-0.0609803 0.00387699 0)
(-0.0623306 0.00380361 0)
(-0.0636552 0.00372943 0)
(-0.064954 0.00365466 0)
(-0.0662267 0.00357949 0)
(-0.0674732 0.00350411 0)
(-0.0686933 0.00342868 0)
(-0.0698871 0.00335334 0)
(-0.0710546 0.00327824 0)
(-0.0721959 0.0032035 0)
(-0.0733111 0.00312922 0)
(-0.0744003 0.00305552 0)
(-0.0754638 0.00298248 0)
(-0.0765017 0.00291017 0)
(-0.0775144 0.00283867 0)
(-0.078502 0.00276804 0)
(-0.0794648 0.00269832 0)
(-0.0804033 0.00262955 0)
(-0.0813176 0.00256176 0)
(-0.0822081 0.00249498 0)
(-0.0830752 0.00242922 0)
(-0.0839192 0.00236449 0)
(-0.0847404 0.00230079 0)
(-0.0855392 0.00223812 0)
(-0.086316 0.00217645 0)