/*--------------------------------*- C++ -*----------------------------------*\
  =========                 |
  \\      /  F ield         | OpenFOAM: The Open Source CFD Toolbox
   \\    /   O peration     | Website:  https://openfoam.org
    \\  /    A nd           | Version:  7
     \\/     M anipulation  |
\*---------------------------------------------------------------------------*/
FoamFile
{
    version     2.0;
    format      ascii;
    class       surfaceScalarField;
    location    "0.256";
    object      phi;
}
// * * * * * * * * * * * * * * * * * * * * * * * * * * * * * * * * * * * * * //

dimensions      [0 3 -1 0 0 0 0];

internalField   nonuniform List<scalar> 
18389
(
-7.98033e-05
7.98033e-05
4.34154e-05
-4.34154e-05
-5.20451e-05
5.20451e-05
4.00991e-05
-4.00991e-05
-5.18935e-05
5.18935e-05
-3.98388e-05
3.98388e-05
-3.43316e-05
3.43316e-05
3.87977e-05
-3.87977e-05
-3.56289e-05
3.56289e-05
4.15023e-05
-4.15022e-05
4.46024e-05
-4.46024e-05
-3.34016e-05
3.34016e-05
-1.0992e-05
1.0992e-05
-4.27777e-05
4.27777e-05
4.34325e-05
-4.34325e-05
2.48662e-05
-2.48662e-05
1.78872e-05
-1.78872e-05
4.58888e-05
-4.58888e-05
4.59204e-05
-4.59204e-05
4.33712e-05
-4.33712e-05
-4.24764e-05
4.24764e-05
3.51401e-05
-3.51401e-05
4.29976e-05
-4.29976e-05
-5.84655e-05
5.84656e-05
-4.97266e-05
4.97266e-05
-4.18715e-05
4.18715e-05
-4.45284e-05
4.45284e-05
4.56073e-05
-4.56073e-05
4.58434e-05
-4.58434e-05
4.41255e-05
-4.41255e-05
-4.13293e-05
4.13293e-05
-6.30552e-05
6.30552e-05
4.31094e-05
-4.31094e-05
-4.47312e-05
4.47312e-05
4.08595e-05
-4.08595e-05
4.66859e-05
-4.66859e-05
-4.55413e-05
4.55413e-05
5.36014e-05
-5.36013e-05
-5.89308e-05
5.89308e-05
3.78872e-05
-3.78872e-05
4.48573e-05
-4.48573e-05
4.53942e-05
-4.53942e-05
-4.10163e-05
4.10164e-05
4.49005e-05
-4.49005e-05
4.58638e-05
-4.58638e-05
-4.58455e-05
4.58455e-05
-4.58409e-05
4.58409e-05
-4.06532e-05
4.06532e-05
-4.58777e-05
4.58777e-05
4.59259e-05
-4.59259e-05
4.5938e-05
-4.5938e-05
4.46086e-05
-4.46086e-05
3.77203e-05
-3.77203e-05
-4.57675e-05
4.57675e-05
-5.55283e-05
5.55283e-05
-4.38047e-05
4.38047e-05
4.57502e-05
-4.57502e-05
-4.59885e-05
4.59885e-05
4.3222e-05
-4.3222e-05
-5.9317e-05
5.9317e-05
-4.71328e-05
4.71328e-05
4.96074e-05
-4.96074e-05
4.57225e-05
-4.57225e-05
-9.07617e-06
9.07619e-06
4.5781e-05
-4.5781e-05
4.14953e-05
-4.14953e-05
5.12322e-05
-5.12322e-05
-4.58555e-05
4.58555e-05
4.23395e-05
-4.23395e-05
3.11621e-05
-3.11621e-05
8.84022e-07
-8.84023e-07
-4.41532e-05
4.41532e-05
3.28689e-05
-3.28689e-05
-3.65967e-05
3.65967e-05
3.97009e-05
-3.97009e-05
2.66259e-05
-2.66259e-05
2.61888e-05
-2.61888e-05
2.70484e-05
-2.70484e-05
2.4396e-05
-2.4396e-05
1.26306e-05
-1.26306e-05
0.00107313
-0.000884225
-0.000188906
0.0054657
-0.00207527
-0.00339043
-0.00594649
0.00594647
1.43993e-08
0.00335339
-0.00260088
-0.000752513
-0.00157159
0.00176841
-0.00019682
-0.00674968
0.00283319
0.0039165
0.00121332
0.00425239
0.00725581
-0.00587558
-0.00138023
0.0011999
-0.0018954
0.000695507
-0.000865022
-0.000706572
-0.00144204
-0.000314631
0.00175667
0.000153926
-1.21041e-06
-0.000152715
0.000778662
-0.0022207
-0.00360199
0.000122313
0.00347967
-0.00320228
0.00289471
0.000307573
-0.00569374
0.00722527
-0.00153154
-0.00370903
0.00289771
0.000811318
-0.000562043
-0.00303995
-0.0017497
0.00238822
-0.000638515
-0.000459974
0.00255686
-0.00209689
-0.00161127
0.00112008
0.000491194
0.000583535
0.000581824
-0.00159581
-0.00515387
0.00132496
-0.00177879
0.000453831
0.00577799
-0.00385954
-0.00191844
-0.000677833
0.00331134
-0.0026335
-0.0058353
0.00583537
0.000458093
0.00131032
-0.00632524
0.000970266
0.00535498
0.00231086
-0.0029887
-0.00378851
0.00311417
0.000674342
0.00214808
-0.00422334
0.0010924
-0.000202133
-0.000890261
0.00151069
-0.00129486
-0.000215827
-0.0028028
-0.00039947
0.00535032
-0.00535033
0.000383517
0.00112718
0.00522544
-0.00133558
-0.00388986
0.00195728
-0.000757382
0.00308571
0.00190868
-0.00499438
-0.000720592
-0.00306792
-8.82427e-05
-0.000155906
0.000244149
0.00393664
0.00331916
0.00114679
-0.00486833
0.00372154
0.00162318
0.00360226
-0.00498044
0.00631976
-0.00133932
-0.00114674
-0.000590914
0.00173766
0.001336
0.00201738
0.000135291
0.000103627
-0.000238918
0.00502031
-0.00339713
0.00646007
-0.000842672
-0.0056174
0.00322113
-0.00267532
-0.00054581
0.00221465
0.000461883
-0.00267654
0.0029606
-0.000745952
0.00650431
-0.00539895
-0.00110535
0.000487751
-0.00384694
0.00335919
6.89901e-05
0.00639108
0.00478103
-0.00429328
-0.00053576
0.00105938
-0.000523617
-0.00176773
0.000620982
0.00191704
0.00224913
-0.00416616
0.00025354
-0.000333804
8.02635e-05
-0.00125147
-0.00285104
0.00410252
-2.61323e-05
0.00653045
-0.00281388
0.00230189
0.000511995
0.000390197
-1.33676e-05
-0.000376829
-0.00569235
-0.000254141
0.00187997
-0.00142188
0.00082906
0.00494893
0.000891037
0.000182097
0.00263476
-0.00643659
0.00380183
-0.00112021
0.00058445
0.00264251
-0.00389398
0.00619761
-0.00226095
0.00109211
0.00117728
-0.000757382
0.00105252
-0.000295136
-0.00111384
-0.000497435
0.00187683
0.0013443
-0.000594859
0.00142946
-0.00123736
-0.0001921
-0.00265517
0.0019944
0.000660773
0.00116676
0.000262705
0.00111564
-0.00495001
0.00383436
-0.00474299
0.00140382
0.00333916
-0.0045543
0.00611836
-0.00156406
-0.0050618
8.13602e-05
-0.00202339
-0.000631786
-0.00021559
0.000127348
-0.00121186
0.00463498
-0.00342312
-0.00117979
-0.000715609
0.0001033
-0.000192021
8.87213e-05
0.000126281
-2.29815e-05
-0.00124598
0.00462274
-0.00337676
-0.000156184
2.44686e-05
0.000131715
-0.00556556
0.00170603
-0.00121158
-0.000556149
-0.000449415
-1.88758e-05
0.00046829
-0.0005432
9.37836e-05
0.00101409
7.83067e-05
-0.00181428
0.000602709
-0.000150533
1.68974e-05
0.000133636
0.00136809
-0.00234447
0.000976381
0.000271105
-0.000135813
-0.00392537
0.00513869
-0.0024564
0.000706717
-9.423e-05
-0.000415776
0.000510006
0.0056848
-0.00216684
-0.00351796
8.0533e-05
0.0025054
-0.00258593
0.00442732
-0.00557547
0.00114816
0.00263538
0.00304941
0.00291514
-0.00283461
-0.00612009
0.000426358
-0.00644025
0.0036111
0.00282915
0.00229382
0.00390378
-0.0043823
0.00136598
0.00301631
0.00146665
-0.000141692
-0.00101849
0.004015
-0.00299651
0.00463835
-0.0016251
-0.00301325
-0.00459042
0.00374636
0.000844064
0.0036935
-0.00502908
5.78093e-05
0.000332388
-0.00138441
0.00581173
-8.94585e-05
0.00214798
-0.00205851
-0.00207144
0.00261616
0.000159755
-0.00277591
-0.00127737
0.00264545
-0.000635571
0.00325173
0.00164337
-0.00173283
0.000878841
0.00397157
-0.00485042
-0.00504024
0.00384044
0.0011998
0.00255186
-0.00359408
0.00104223
-0.00329917
0.00411452
-0.000815355
0.000364888
-0.00366406
-0.000934296
0.000934296
-0.000452482
0.000358252
-0.000126927
-0.000973476
0.0011004
0.00506826
-0.001841
-0.00322726
-0.00243241
-0.000370396
0.00290142
0.000157902
1.65559e-05
-0.000174458
-0.00147152
0.0011267
0.000344815
-0.000141365
-0.00489888
0.00502833
-0.00388155
0.000229621
-7.56962e-05
0.00444358
0.00057673
0.0040676
-0.00151573
0.000164939
-7.0373e-06
-0.00633325
-0.000995362
-0.000818923
0.00429981
-0.00190296
-0.00239685
0.00275693
0.00154288
0.00107791
-0.0056322
-0.00226868
-0.0005452
-0.00112323
-0.000956269
0.0020795
4.35452e-05
-0.00272487
0.00268132
-0.00235886
0.00123564
-0.00221805
0.00530377
-0.00460811
0.00158706
0.00302105
0.00254894
0.000644695
-0.000316583
-0.000328113
-0.00601603
0.000582986
0.00543305
-0.00418282
0.0058214
-0.00163858
0.00182555
0.00163081
-0.00345637
-0.00167994
0.000901287
0.000778652
-0.0027152
0.00208533
0.000629876
0.00112746
0.000752514
0.000247171
-0.000328912
8.17427e-05
0.00486836
-0.00398952
-0.00638402
0.00557507
0.000808952
-0.00476789
-0.00167236
0.00335474
0.000614329
-0.00396907
0.000154067
-0.000162275
8.20723e-06
0.00059052
-0.000125308
-0.000465212
-0.00451792
0.00261496
0.000388426
-0.00058246
0.000194034
4.26147e-05
-0.000976913
-0.00257569
0.00448437
-0.00530434
-0.000321656
0.005626
0.000222102
0.000211405
-0.000433507
0.00132311
-0.00132311
0.00168801
-0.000720801
-0.00211347
0.00181737
0.000296104
0.0043926
-0.00302663
-0.000162495
6.31093e-06
-0.00121677
0.00125938
0.000670633
0.00128665
0.00234415
-0.000258819
-0.00401869
-0.00128565
0.00111908
-0.00496603
0.00321275
-0.00445873
0.000834173
-0.00213708
0.00130291
0.00335959
-0.00457145
-0.00270944
-0.00180848
-0.00483517
0.00469381
-0.00067693
-0.0053391
-0.00515683
0.00144722
-0.00146829
2.10761e-05
0.00223264
0.00011151
-0.00601453
0.00204866
0.00396588
-0.00121933
0.000526033
0.000693296
0.00144023
0.00295238
-0.00462558
-0.00101513
0.00564072
-0.000212873
0.000138614
7.4259e-05
-0.00550572
0.0013229
0.00375316
-0.00493689
0.00118374
-0.00150288
-0.000610592
-0.000536676
-0.000637507
0.000138317
-0.00020377
6.54522e-05
0.00496445
-0.00384881
-0.00129959
0.00512382
-0.00382424
-0.000395673
-0.000821093
-0.00586143
0.000439628
0.00539573
-0.00615695
0.00456113
-0.000922317
-0.00546171
-0.00109917
-0.000372347
-0.00181795
0.00285683
-0.00103888
-0.000419042
0.000321957
9.70851e-05
-0.00173207
0.00141744
0.00159824
-0.000151019
0.000822003
-3.67492e-05
-0.00169532
0.00279734
0.00121743
-0.00303537
0.0060511
-0.000476026
0.00528237
6.7947e-05
-0.00528134
0.0043905
0.00114208
-0.00553258
0.000556505
-0.000768882
0.000212378
-3.88221e-05
-0.00041366
-1.35289e-05
0.00606462
-0.000162173
0.000156817
5.35636e-06
0.000133435
2.0632e-05
0.00254407
-0.00335378
0.000809706
-0.00189086
0.000696831
0.00119403
0.00791721
-0.00344946
-0.00446774
0.0011686
0.00126824
-0.00243685
0.000103896
-0.000172909
6.90132e-05
-0.000805858
0.00133189
0.00115249
0.00318251
-0.00433501
-0.00561479
0.000166006
0.00544878
-0.004014
0.00299551
0.00173505
0.00479539
0.004581
0.0033362
-2.20841e-05
0.00019238
-0.000170295
-0.00129459
0.00438696
-0.00309236
0.000302865
-0.000341687
-0.000131389
-8.1484e-05
0.00410226
-0.00227671
0.00475236
-0.00500351
0.000251151
-0.00322427
0.00605247
-0.0028282
0.00252909
0.00157317
0.00573791
-0.000985559
-0.00139239
-0.00562113
0.00137241
0.00424872
0.00065458
0.000520494
-0.00117507
0.00126926
-0.000614682
0.000585313
-0.00110999
0.000524682
0.00110581
0.000253182
0.000391514
-0.000678234
0.00443139
0.00152029
-0.000393589
0.00350957
-0.00609714
0.00258758
0.00153475
-0.00258512
0.00105037
-0.00430819
0.00115035
0.00315784
0.00291691
-0.0042115
-0.0049034
-0.00125356
-0.00409627
0.00126395
0.00283232
0.00123611
0.00315085
-0.0032654
-0.000830872
0.00222867
-0.00106008
-0.000670238
-0.00253826
0.00320849
0.00241143
0.000609884
-0.00302131
-0.00159182
0.00120599
0.000385829
0.000270096
0.00150077
-0.00196767
0.000466903
-0.000110897
-0.000222907
-0.000264483
0.000153586
-0.00434866
-0.000241759
-0.000296742
0.00117753
-0.000880794
0.00435146
-0.0046439
0.000292444
-8.83905e-05
0.00011773
-2.93396e-05
0.000968193
0.00338302
-0.00435121
-0.000156956
6.85654e-05
-0.00475186
0.000710376
0.00404149
-0.000853772
8.49045e-05
0.000768865
7.648e-05
-7.76903e-05
-0.00040039
0.000864678
-0.00034747
-0.000517208
-0.00603644
0.000637486
-0.00254968
-0.000128186
0.00267786
-0.00317082
0.00440692
0.00218083
-0.00108872
-0.0011672
-0.00118187
2.07336e-06
-0.0035179
-0.00122508
0.00152928
-0.000424399
-0.00110488
0.00191973
0.00183807
-0.0037578
0.00503457
-0.00160116
-0.00343341
0.000792997
-0.00541857
-0.00137222
0.00300303
0.00194917
0.000790911
-0.00274008
-0.00349937
0.00446757
-0.000153212
2.67858e-06
0.000931058
-0.00443043
-0.00449626
-0.00014765
-0.000998209
-0.00461658
0.00461657
0.00147629
0.00355828
0.00415999
0.00114042
-0.00530041
3.81608e-05
5.84964e-05
-9.66573e-05
-0.00141127
0.00336045
0.00369711
0.00352816
-0.00140441
0.00237139
-0.000966969
-0.00248106
0.000457677
-0.000878397
0.000751469
-0.000191032
0.000413135
-0.00020159
0.00170236
0.00376341
-0.00184368
-0.00108532
-0.000594621
-0.000107233
-0.000157249
0.0035504
-0.00163335
-0.00240367
0.00465281
0.00067459
-0.00309589
0.0024213
0.000664256
0.000762007
-0.00105875
0.00210242
-0.00130402
-0.00327516
0.00457918
-0.00214404
0.0047788
-0.000551919
0.00344662
0.000238365
-0.000221468
-0.00236514
0.000960732
0.00229872
-0.00387249
0.00157379
-0.00122022
5.89317e-05
-2.0771e-05
0.0021528
-0.00279891
0.000646115
-0.00117233
-0.000419482
-0.0035263
0.00449657
0.00117783
0.00168726
-0.00286509
-0.00169577
0.00366447
-0.00196871
0.004236
-0.000852985
0.00023432
1.41194e-05
-0.000248439
-0.00372479
0.00202902
-0.00141544
0.00470617
-0.00329074
0.000877927
0.0013029
0.000221231
0.00110188
0.000252978
-0.000300731
4.77522e-05
0.00170615
0.000215064
-0.00192121
0.0030191
-0.00457836
0.00155926
-5.28341e-05
0.000374332
-0.000321497
0.00156665
-0.000360665
0.00143487
-0.000616728
-0.000818146
0.00282763
-0.00392144
0.0010938
0.00268296
-0.00374204
0.00105909
-0.00513919
0.00191492
0.00389145
-0.000872355
-0.000624456
-0.00238304
0.0030075
0.00140529
-0.00511557
0.00371028
0.00336052
-0.00145894
-0.00190159
-0.000690344
0.00173001
-0.00103967
0.00477186
-0.00303682
-0.000714225
-0.00196109
-0.00598278
0.0051401
4.06636e-06
0.000121786
-0.000125852
-0.00158229
0.00120395
0.000378348
-0.00490277
0.00629849
-0.00139573
-0.00188353
0.000693808
0.00118973
0.000406452
0.00268741
-0.00209075
-0.000596659
0.0034341
0.000489993
-0.0039241
0.000123118
-1.92215e-05
0.00517216
0.000337133
-0.00550929
-0.00194071
0.00379734
-0.00185663
0.00276348
-0.00062749
-0.00213599
0.000462536
0.000402142
-0.000438216
0.00387232
0.00202563
-0.00396634
0.000706264
-0.000266854
-0.000439408
-0.000664407
-7.04559e-06
0.000671455
-0.00315281
-0.00576638
0.00576649
-0.000274315
0.000953038
-0.000678724
-0.00229482
-0.000186247
-0.0045442
0.00324017
-0.000861756
0.00111709
0.00360799
-0.00501975
0.00141176
0.000410682
-0.00296035
0.00233382
-0.00243696
0.000103139
-0.00157143
0.00148228
8.91447e-05
-0.00121358
-0.000368715
-0.00339171
0.00342185
-0.00224401
0.000457329
0.000133191
-0.00173815
0.00104781
-0.00278841
0.000730163
0.00205825
0.000242323
-8.00319e-06
-0.00347648
0.00102091
0.00245557
-0.00144145
0.00560144
0.000338026
-0.000956397
0.000618373
0.00212671
0.000636764
-0.00127775
0.000304273
0.00112123
0.00121259
-0.00141535
0.00494279
-0.00352744
-0.00484309
0.00576445
-0.000921363
-0.00117358
0.00228445
0.00410663
0.00107318
4.68974e-05
0.00585072
-0.00550581
-0.000344915
0.00353295
-0.00465049
0.00111754
0.00308619
-0.00067476
0.00542694
-0.00181895
-0.00250555
-0.000970922
-0.00218652
-0.000302401
0.00248894
0.00242659
-0.00196472
-0.00160818
-0.00423859
0.00274936
0.00148923
-0.000338253
0.00123954
0.00120387
0.00364578
-0.00484964
-0.000282657
0.000671083
0.0030596
-0.00238501
-0.00472473
-0.00125805
0.00647053
-0.00129836
0.00422956
0.00206369
0.000493176
0.00285529
-0.0021272
-0.000728088
0.00473557
-0.00245113
-6.55811e-05
-0.00332755
-0.000862159
0.00418972
0.000388525
-8.64672e-05
-0.000302058
-0.00513954
0.00610174
-0.000962193
-0.000710312
0.00189982
-0.00118951
-0.000697184
0.00525307
-0.00455589
0.00120161
-0.00191192
-0.000113677
-0.0057619
-0.000757382
0.00202576
0.00382496
-0.000261783
-0.00192474
0.000251375
-4.20436e-06
0.000362556
-0.000487864
0.00335797
-0.000813893
-0.00522495
-0.000271541
-0.000147502
0.000150236
-0.000133616
-1.66205e-05
-0.00248434
0.00012547
-0.000420651
0.00159542
-0.00102183
-0.000573587
0.00245835
0.000606928
-0.00306528
-0.000724274
0.00318261
-0.00520292
-0.000271526
0.00547445
0.00375078
0.00137305
0.00440067
-0.00121815
-0.00012511
0.0025517
0.00540386
-0.00020666
-0.0051972
-0.00608759
0.00425306
0.00183454
0.0032074
-0.00126816
-0.00435297
0.00020355
-0.000225634
0.000565067
0.000869805
0.00118695
0.000143643
-0.0013306
0.00421232
0.00119154
-0.000963101
0.00317194
-0.00220884
0.00471545
-0.00136071
-0.00218086
0.00279332
-0.00061245
-0.00117506
-0.000107075
0.000289023
-0.000181949
0.00344679
-0.00414397
0.00134828
-0.00099124
-0.000357034
0.00160082
-0.000396874
-0.00325018
0.00228708
0.005484
-0.00434193
-3.06184e-05
0.000352577
-0.00534778
0.000445002
0.00541305
-0.00190348
-0.000996206
-0.00361517
0.00461138
-0.000644669
0.0028828
-0.00223813
0.00549725
-0.00286244
-0.00263481
-8.83941e-05
0.000590526
-0.000677151
0.000660578
1.65724e-05
-0.000698464
0.00173568
-0.00103722
-0.00314933
-0.00115886
0.000155517
-1.72e-05
-0.00122484
-0.00478969
-0.00307332
0.00240308
-0.00107372
-0.000249388
-7.26302e-05
-8.95425e-05
-0.00123238
-0.000806073
-0.00523037
-0.00283854
0.00219387
-0.000814964
0.00119848
0.00110853
0.00436454
-0.00547307
0.00336848
-0.00275415
0.000467483
0.000769282
-0.00288354
0.00211426
0.00497245
-0.00490939
-6.30487e-05
-0.00320951
0.00361556
-0.000406041
0.000207771
-9.55988e-05
-0.000112173
-0.00495171
-0.00148489
-0.00176439
0.00368902
-0.00192463
0.0029805
-0.00221122
-0.00378607
0.00202169
0.00139506
-0.00258174
0.00118667
-0.00363311
0.00568177
0.0064966
-0.00219598
-0.00430062
-0.0023991
0.00237831
2.07941e-05
0.00558704
-0.00161548
0.0011882
-0.000925645
-0.000262556
-9.16609e-06
0.000262144
0.000249654
-0.000775683
0.000526029
-0.00304991
0.00364954
-0.000966581
0.000849313
-0.00105145
0.00236501
-0.000633367
-0.00173164
0.00222348
-0.000517331
0.00450993
0.000632398
0.00173261
-0.00175951
0.00106105
0.000408539
-0.000464678
5.61389e-05
0.0022209
-0.00174635
-0.000474548
0.000819709
-0.0051478
-0.000544547
0.000369487
-0.000588344
0.000218857
-0.00410174
0.00547415
0.000941886
-0.00111648
0.000174595
-0.0015398
0.00216014
-0.000620332
-0.00148557
-0.00275302
-0.00537801
-0.000163058
0.00554107
0.00029794
0.00010832
4.19169e-05
0.000127572
-0.000127083
-4.89025e-07
0.00409807
-0.00289421
-0.0037937
-0.00230343
0.0034654
0.0030312
-0.00258815
0.000713812
0.00187434
-0.000844667
0.00223972
-0.00229829
-0.000100815
0.0027301
-0.00377683
0.00104673
0.00131012
-0.000132589
0.000462606
0.000551482
-0.00327678
0.00096102
0.00231576
0.000908445
-0.000594947
-6.94623e-05
-0.00426648
0.00171362
0.00011699
-0.0018306
-0.00396226
0.00146058
0.00250168
0.0005101
0.0014823
-0.000917235
-0.000246332
-0.00466
0.00490634
0.000783962
-0.00247673
0.00169277
0.00120222
0.00131231
-0.000453846
-0.00173012
0.00218397
0.00258004
-0.00179608
0.0044654
-0.00353435
-0.000756073
-0.00264081
-0.000227675
0.000252143
-0.000710957
0.00176862
-0.00105766
0.00266298
-0.00366649
0.0010035
0.00013642
2.03969e-05
-0.00236563
-0.000911157
0.00142117
-0.00163608
0.0002149
-0.00277486
0.000684116
0.00127615
-0.00141843
0.000142282
0.00161853
-0.00180754
0.000189008
0.000674433
-0.00372004
-0.00114829
0.00133263
-0.00488001
0.00354739
-0.000909694
0.00357266
0.000118285
-7.78841e-05
-4.04003e-05
0.00471974
-0.0036112
-0.000298107
-0.00152103
-0.00400773
-0.00149799
0.00209411
0.000699196
-0.00100453
-0.000921654
-0.00449828
-0.00162181
-0.000371055
0.00124411
-0.000934226
-0.000309887
-0.00149704
-0.00108809
0.000652291
0.00226138
-0.00291367
-0.000114226
0.00067073
-0.000715988
3.88379e-05
-0.00246343
0.00196653
0.00139399
-0.000690883
0.00164351
-0.000952631
-8.68388e-05
-0.000116931
0.000318468
-0.00194742
0.000444544
0.00162154
-0.00230838
0.00068683
-0.00333447
0.00258859
0.000745868
0.00120771
0.00240394
-0.00361165
-0.00175648
0.00104552
-0.00294171
-0.00102055
-0.000777493
-0.00255697
-0.00167913
0.0012561
0.000423038
0.0017671
-5.3483e-05
-0.000757731
-0.00243745
0.00319518
-0.000661698
0.00291275
-0.00226045
-0.000858564
-0.00394761
0.00480618
-0.00234173
0.00234353
-1.79705e-06
-0.000853771
-0.00156928
0.000547445
-0.00240686
0.00381734
-0.00141048
0.00323323
0.00288512
0.000194324
3.62075e-05
-0.000230532
0.00234077
-0.000602067
-0.0017387
0.000188293
-0.000184227
-0.00358819
0.00492082
-0.00328815
0.00523577
-0.00194763
-0.00351009
-0.00150965
-0.000916357
0.00323159
-0.00231524
0.00285953
0.00177256
-0.00417943
-0.00499183
-0.000147708
-0.000775006
0.00284113
-0.00206612
-0.000431701
0.000378867
-0.000534466
0.00167838
-0.00114392
-0.00402155
0.00334146
0.000680087
-0.0032693
0.00235294
-0.00386714
0.000671817
0.00319531
0.00141219
-0.00101781
-0.000394387
-0.00589957
0.000696641
0.0018471
-0.00141167
-0.000435433
0.00146627
-0.000433838
-0.00103243
7.83655e-05
0.000129406
0.00292617
-0.000624274
-0.000217408
-0.00348674
-0.000380397
0.00042849
-0.00305867
-0.00096289
-0.00233672
-5.00591e-06
-0.00292429
0.00229983
0.000719924
0.00260239
-0.00332232
0.000586757
-0.000861072
0.0014064
-0.00671401
0.00530761
-0.00575883
0.00099094
-0.0023303
0.00353802
0.000693661
0.000259379
-0.00273345
0.00345338
-8.20316e-05
0.00505447
0.000602314
0.00171535
-0.00231767
-0.0017794
0.00124494
0.0027496
-0.00369468
0.000945076
0.00509879
0.000682143
0.00153875
0.000315324
0.000390938
-0.000364024
-0.000404858
0.000180984
-0.00174854
0.00176681
-0.000888885
0.000890792
0.000591504
-0.000579337
0.00300905
-0.00242971
-0.00151231
0.0018417
-0.000329393
-0.00489073
0.00380348
0.00108725
-0.00478388
0.00149573
-3.92232e-05
3.55718e-05
3.65139e-06
-0.00281395
-0.000852535
0.00110079
-0.00129889
0.000198108
0.00134355
-0.00493174
0.00115029
3.66645e-05
0.00122984
0.000693673
0.00218913
-0.00366656
0.000852617
0.000195979
-0.00503907
0.00189542
0.0012344
0.000665423
-0.00527368
-0.000492706
0.00565282
0.00118734
0.0071094
-0.00218556
-0.00492384
0.000807668
-0.000397365
-0.000410303
0.000703147
-0.00138836
0.000793736
-0.00386038
-0.00125519
0.000289023
-0.000956363
-0.000402711
0.00135908
0.00233342
0.00400848
-0.00486704
0.00270317
0.000833921
-0.00353709
0.00125081
-0.000966068
-0.000284744
0.000744542
0.00159622
-0.000135139
0.00013834
-3.20164e-06
-0.000708666
0.00288384
-0.00217518
0.00361825
0.00108792
-0.00126553
-0.000413601
0.00142827
-0.00151944
9.11716e-05
4.68926e-05
7.13918e-05
-0.00447716
0.000967071
-0.0016562
0.000442621
-0.00364832
0.00292403
-0.000949691
6.5466e-05
0.000931774
0.00268257
-0.00361435
0.000850841
-0.0012705
0.00417686
-0.00290636
0.000316584
0.000279921
4.65201e-05
-0.000326442
7.82332e-05
-0.00539172
0.00531348
-0.00264002
-0.000765384
0.00340541
-0.00348385
0.0026152
0.000868652
-0.00275812
-0.000262737
-0.0017139
-0.00489192
0.00088419
-0.00145801
-0.000878712
-0.00106213
0.00379223
0.00171479
-0.0037283
0.00201352
0.000105526
2.20458e-05
0.00372641
-0.00201162
0.00286852
0.000947381
-0.00381589
-0.00130625
0.00174334
-0.000437091
0.00357344
0.00109258
-0.00466602
0.00717868
-0.00196521
-0.00521346
-0.00212887
-0.000709664
-0.00174435
0.00234666
0.00377301
-0.00492377
0.00115076
-0.00280411
0.00373588
0.00117332
-5.70567e-05
-0.00111627
0.00147945
0.000908759
-0.00549728
0.000593878
0.000436622
0.000371045
0.00292156
-0.00111772
-0.00252058
0.00248345
3.71281e-05
0.000504366
-0.00184099
0.00133662
-0.00386908
-0.00119271
0.00108819
-0.0025462
-0.00529908
0.00015129
-0.00126231
-0.000516682
0.00177899
0.00563255
-0.00449212
0.000104401
0.000284125
-0.00302063
0.00318039
0.00144206
-0.00107465
-0.000367415
0.0034692
0.00475469
-0.00095122
0.000630442
-0.00327046
0.00119439
-0.00110949
-5.29092e-05
0.000461448
0.000394075
-1.97435e-05
-0.00205873
-0.000444868
0.00154565
-0.000895267
-0.0034973
0.000763854
-3.00504e-05
-9.17292e-06
0.00599869
-0.00492077
0.00521992
-0.00439086
-0.000102031
-0.000768865
0.000870896
0.00194916
-0.000457972
-0.00149119
0.00335865
-0.000756258
-0.00256865
0.00336089
-0.00079224
-0.00183501
0.000528761
0.00128002
-0.000954114
-0.00032591
-0.000118764
-0.000210148
0.00205958
-0.00054781
-0.00151177
-0.00138483
-0.00239369
-0.000126883
0.00209352
-0.00274621
0.000652696
0.00280683
-0.000749498
-0.00205734
0.00410334
-0.00434966
0.000313957
0.00223596
-0.000614412
-0.000680753
0.000836411
-0.00367364
0.00501718
0.00123962
0.000453809
-0.00171612
-0.0028574
0.00209817
0.00363177
0.00158815
-0.00115941
-0.00382099
-0.00112903
0.00130629
-0.00171904
0.000412753
0.00367549
-0.0031855
-0.00019391
0.00113579
-3.86692e-05
-0.000271169
0.000309839
-0.000680732
-0.00190743
0.00377248
-0.00490526
0.00113279
-0.00186998
0.00235349
-0.000483514
-0.0011513
0.00213415
0.000749686
-0.00226525
0.00375423
-0.00148898
0.00150779
-0.00114371
-0.000364077
-0.00112377
0.000270004
0.000212569
-0.000458061
0.000245492
-0.000424748
-0.00123146
-0.00247793
0.00250695
-2.90247e-05
0.00144549
-0.00371075
0.00162645
-0.000370358
0.000380785
-0.000463763
8.29784e-05
-0.000827959
0.000595304
0.000232654
-0.000794138
-0.00284288
0.000814169
0.00202871
-0.00199365
-0.000892561
-0.000728593
0.00162115
-0.00523866
0.00389542
0.00134324
-0.00144597
0.00134394
-0.00057626
-0.000115963
0.000692223
0.00286872
-0.000734569
-0.000770151
-0.000160254
0.000930406
0.0018394
-0.00138559
0.00169966
-0.000393365
-0.00025158
-0.000640399
-0.00420156
0.00484196
-0.00140123
0.00283155
0.00427785
-0.00239878
-7.91491e-05
0.0031257
-0.00472686
0.000732437
0.00158267
-0.00231511
0.00201822
-0.00279322
0.00197475
-0.000703023
-0.00127172
-0.00179632
0.00045549
0.00134083
0.00430741
0.00287127
-0.00550943
0.00133387
0.00417556
-0.00124841
-0.00399025
-0.000459812
-0.00133651
-0.00100633
-0.000562945
-0.00129542
-0.000423624
0.00113953
-0.000529207
0.00151095
-0.000981739
-0.00175748
0.00129767
-0.000944207
-0.000207249
0.00115146
0.00217501
-0.00286868
0.000693681
-1.17622e-05
0.000206086
0.00103985
0.00605642
-0.00141093
-0.00464549
-0.00203251
-0.00187301
0.00135016
0.000522852
0.00127308
-0.000980524
-0.000292552
-0.00229862
-0.00101743
0.00331606
-0.0026759
0.003578
-0.000902105
-0.000916967
0.00113959
-1.36216e-05
-0.00112597
0.00376125
-0.0049337
0.00117244
0.00174783
-0.00135599
-0.000391835
0.00242708
-0.00122486
0.00273203
-0.000636676
-0.000191282
-0.00408986
0.00229737
-0.00180007
-0.000497293
0.000560086
-0.00200963
0.00144954
-0.00251952
-0.000834263
0.000861012
-0.000659511
-0.000201502
-0.000180378
-0.00364065
0.000964755
0.000650701
-0.000438131
0.00259319
0.000984806
0.000318963
0.00130653
0.000668219
-0.00160438
0.00233681
-0.00151461
0.00100453
0.000510073
0.00354115
-0.000672618
-0.00380901
0.00610284
-0.00114401
-0.00248823
0.00682462
-0.00433639
-0.000885445
0.00356802
-0.00414185
0.000932351
-0.00210082
0.0042489
-0.000675657
-0.00163272
-0.0024472
0.00172035
0.00072685
-0.00127831
0.000904129
-0.000858468
-4.56601e-05
-0.00137847
-0.000776612
-0.000153497
0.000930109
-0.00156821
0.00137851
0.000189697
0.00204598
0.000795143
6.24815e-05
-0.00129984
-0.000549573
-0.000838783
-0.00241371
-0.000468874
-0.00140413
-0.000171054
0.00159223
-0.000180643
0.0034109
-0.000513199
0.00133863
0.000199697
-0.000741113
-0.00103768
-0.00193038
0.00247677
-0.000546388
-0.00105811
-0.0057289
0.00351085
0.00148781
-0.000597022
0.00288857
-0.00120131
0.000953194
-0.00135915
-0.00453066
0.0058898
0.000619869
-0.00255025
0.000739848
-0.00368565
0.00270402
0.000981622
0.000897417
-0.00142662
0.00223077
-0.00311489
0.00088412
0.00119413
-0.00342923
0.0022351
0.000859989
0.00168895
-0.00254894
-0.000174329
0.00179286
0.00274708
0.00108304
0.00361351
-0.000413529
0.000783015
0.00315992
-0.00402208
0.000973938
-0.00327256
0.000434124
0.00412378
0.00148448
-1.06653e-05
-0.000276941
0.000287606
-0.00619214
0.0038559
0.00233624
-0.000823046
-0.00261818
0.00344123
0.00264001
-0.00178002
-0.00369585
0.000891741
-0.001322
-0.000435491
-0.00015267
0.00131943
0.0037237
0.00121908
0.000224336
0.00131066
-0.00099426
-0.000316397
0.00092724
0.000560576
-0.000314142
0.00376914
-0.00493158
0.00116244
0.00307705
-0.000846296
-0.00139944
0.0019038
0.00126462
-0.00355458
0.00228995
-0.00116456
0.00145702
0.000677935
-0.00213496
0.000193147
-0.000203813
0.00219984
-0.000863836
-0.00128824
0.000330133
0.000937446
-0.000354712
-0.000582734
0.00353343
-0.00226881
-0.000499026
0.00229459
-0.00179556
0.00102258
-0.00296176
0.00209399
0.000867774
0.000107265
-1.73847e-06
0.00465202
0.000537118
-0.005691
-0.00519309
0.00392767
0.00126542
-0.00107425
-0.00269664
0.00377089
0.00222131
0.00372516
0.0028291
-0.00375273
0.000923635
-0.00147352
0.00110481
-0.000936529
0.00336617
-0.00242965
0.00149778
0.000561797
-0.0037851
-0.00240704
0.001061
-0.00230298
0.00320607
-0.0009031
0.00342612
-0.000810913
0.000394999
-0.0007969
0.00255
0.000876113
-0.000634429
0.00430992
-0.00131199
0.00171869
-0.000406695
0.00197466
-0.00127783
-0.000390478
0.00607692
-0.00492163
-0.00045638
0.00085794
-0.00246232
-0.00539176
-0.00172389
0.000411895
-0.000678086
0.000101826
-0.000866749
0.000214425
-0.00147152
0.00065324
0.00158271
-0.000905304
0.000135153
0.000804554
0.00251644
-0.003321
-0.0010951
0.00187376
-0.00194725
-0.000473987
0.00196131
-0.00148732
-0.000867655
-0.0020941
-0.00195188
0.0014779
-0.00265793
0.00346248
-0.00164492
0.000570415
0.0010745
-0.000973063
0.00356625
0.00598826
-0.00229115
-0.00130457
-0.000419316
-0.00174595
0.00110712
0.000638828
0.000903397
-0.00451907
0.00361568
-0.00131691
0.000544474
0.000772434
-0.004035
-0.00115809
0.000191801
-0.00113601
0.00193169
-0.000697288
-0.00133634
-0.00379795
0.0051343
0.00100492
6.8258e-05
0.00329699
-0.00252848
-0.000768512
0.000150831
0.00131544
0.000877748
-0.000670838
-0.00020691
-0.0013523
-0.00101283
-0.00106347
0.00508586
-0.00402239
0.000628224
-0.00249821
0.000175429
0.00125284
0.00377293
-0.00495884
0.00118591
0.00287324
-0.00205907
0.000101861
-0.000168509
6.66483e-05
0.00102601
0.000138066
0.000104257
0.00235349
0.00370293
-0.000581005
-0.000817978
0.00139898
0.000652319
0.00177274
-0.00242506
0.00239668
-0.00171418
-0.000682502
0.000475234
0.00147393
0.000425831
-0.000510215
-0.000806694
0.000599944
-0.00532468
0.000690317
-2.97392e-05
-0.00115864
-0.00130454
-0.00378555
0.00509009
0.00104026
0.00143776
-0.00189573
0.00254689
-0.000395143
-0.00490896
0.0053041
0.000120625
-1.87645e-05
0.000637081
0.00129461
0.00273223
0.000936183
-0.00366841
0.00137587
0.000471236
0.0025867
-0.00364089
0.00454429
0.00277438
0.000842941
-0.00361732
0.00164839
-0.000879809
-0.000768585
0.00132963
-0.00102069
-0.000308944
0.000423266
0.00105776
-0.00469865
0.000218236
-6.6302e-06
0.000199777
0.00601357
-0.00129383
0.00152695
-0.00212901
0.00252351
-0.00183356
-0.000689959
0.000850445
-0.00254555
0.00169511
0.00523502
-0.00281911
-0.00092293
-0.00159675
0.00500798
0.00148593
-0.00178122
0.000295284
0.000500262
-0.000103817
-0.000396444
-0.000989607
-0.00314157
0.00413118
0.000741524
0.00182065
-0.00256218
0.00176734
-0.000281401
0.00225131
0.00141237
-0.000867895