/*--------------------------------*- C++ -*----------------------------------*\
  =========                 |
  \\      /  F ield         | OpenFOAM: The Open Source CFD Toolbox
   \\    /   O peration     | Website:  https://openfoam.org
    \\  /    A nd           | Version:  7
     \\/     M anipulation  |
\*---------------------------------------------------------------------------*/
FoamFile
{
    version     2.0;
    format      ascii;
    class       volScalarField;
    location    "15";
    object      p;
}
// * * * * * * * * * * * * * * * * * * * * * * * * * * * * * * * * * * * * * //

dimensions      [0 2 -2 0 0 0 0];

internalField   nonuniform List<scalar> 
607
(
0.00364142
0.00335442
0.00305117
0.00275089
0.00246865
0.00224046
0.00214099
0.0023023
0.00306511
0.00374874
0.00345115
0.00313887
0.00282743
0.00253522
0.00229554
0.00217711
0.00230333
0.00300574
0.00387086
0.00356314
0.00324191
0.00291795
0.00261241
0.0023557
0.00221238
0.002299
0.00292058
0.00400765
0.00369029
0.00335973
0.00302228
0.00270027
0.00242268
0.00224847
0.00228672
0.00282169
0.00415914
0.00383269
0.00349258
0.00314081
0.00280023
0.00249857
0.00228972
0.00227353
0.00270879
0.0043255
0.00399069
0.00364101
0.00327457
0.00291395
0.00258594
0.00233878
0.00226149
0.00258575
0.00450702
0.0041648
0.00380583
0.00342473
0.00304329
0.00268723
0.00239921
0.0022551
0.00245532
0.00470401
0.00435559
0.00398792
0.0035925
0.00318996
0.00280485
0.00247406
0.00225809
0.00232232
0.00491682
0.00456366
0.00418815
0.00377901
0.00335551
0.00294088
0.00256641
0.00227518
0.00219373
0.00514581
0.00478963
0.0044074
0.00398535
0.00354122
0.00309704
0.00267874
0.00231099
0.00207946
0.0053913
0.00503412
0.00464654
0.00421256
0.00374818
0.00327454
0.00281286
0.00237
0.00199217
0.00565361
0.00529777
0.00490652
0.00446174
0.0039774
0.00347434
0.00296991
0.00245596
0.00194569
0.005933
0.00558121
0.00518834
0.00473417
0.00423016
0.00369751
0.00315082
0.00257172
0.00195281
0.00622971
0.00588507
0.00549316
0.00503141
0.00450821
0.0039458
0.00335726
0.00271989
0.00202254
0.00654384
0.00620994
0.00582224
0.00535534
0.00481402
0.00422214
0.00359243
0.00290367
0.00215868
0.00687541
0.00655633
0.00617691
0.00570812
0.00515075
0.00453071
0.00386152
0.00312777
0.00236068
0.00722423
0.00692461
0.00655854
0.00609204
0.00552202
0.00487672
0.00417113
0.00339807
0.00262611
0.00758989
0.00731497
0.00696836
0.00650937
0.00593166
0.00526579
0.00452833
0.00372097
0.00295332
0.00797169
0.00772738
0.00740737
0.00696215
0.0063834
0.00570347
0.00493983
0.00410286
0.00334332
0.0083686
0.00816156
0.00787621
0.00745205
0.00688069
0.00619486
0.00541172
0.00455013
0.0038005
0.0087792
0.00861692
0.00837504
0.00798035
0.0074265
0.00674454
0.00594965
0.00506928
0.00433201
0.00920188
0.00909254
0.00890337
0.00854783
0.0080234
0.00735635
0.00655903
0.00566767
0.00494678
0.00963468
0.00958705
0.00946015
0.00915466
0.00867336
0.0080338
0.00724495
0.00635317
0.00565552
0.0100756
0.0100985
0.0100438
0.00980081
0.00937719
0.00877982
0.00801298
0.00713335
0.0064697
0.0105226
0.0106243
0.0106514
0.0104859
0.0101358
0.00959608
0.00886849
0.00801692
0.00740019
0.00396042
0.00296362
0.00121659
0.000294107
0.000343988
0.000777506
0.00108698
0.00112758
0.00100466
0.000867393
0.000790843
0.000771677
0.000774158
0.000769961
0.00383462
0.00285461
0.00115715
0.000275787
0.000343875
0.000773389
0.00106719
0.00109232
0.000961248
0.000822955
0.000748265
0.00072973
0.00073006
0.000721696
0.00363884
0.0026938
0.00108396
0.000266083
0.000352752
0.000768384
0.00103774
0.00104411
0.000905771
0.000768532
0.00069703
0.000679341
0.000677184
0.000664372
0.0034459
0.00253805
0.00101578
0.000258681
0.000358934
0.000756079
0.000998976
0.000987327
0.000843716
0.000709051
0.000641035
0.000623529
0.000617978
0.00060011
0.0032149
0.00235622
0.000945294
0.00026111
0.000372102
0.000742218
0.000952775
0.00092232
0.000775507
0.000645356
0.000581175
0.000562921
0.000552765
0.000529054
0.00296977
0.00216816
0.000881502
0.000274483
0.000390682
0.000725928
0.0009001
0.000851509
0.000704053
0.000580019
0.000519369
0.000498929
0.000482759
0.000452425
0.00270092
0.00196714
0.000824069
0.000301478
0.000416877
0.000708188
0.000841634
0.00077602
0.000630791
0.000514269
0.00045635
0.000431906
0.000408226
0.000370586
0.00242003
0.00176305
0.000777675
0.000342264
0.000449134
0.000688308
0.000778618
0.000698433
0.000558323
0.00044982
0.000392906
0.00036224
0.000329647
0.000284258
0.0021344
0.00156162
0.000743968
0.000394791
0.000484584
0.000665303
0.000712612
0.000621554
0.000488891
0.000387533
0.00032893
0.000289712
0.000247206
0.000193995
0.00186295
0.00137667
0.00072505
0.000453448
0.000517617
0.000638097
0.000646607
0.000549173
0.00042461
0.000327502
0.000263677
0.00021393
0.000161227
0.0001005
0.00162881
0.00122359
0.00072039
0.000508895
0.000540939
0.000606212
0.000584653
0.000485085
0.000366509
0.000268602
0.000195754
0.000134423
7.21149e-05
4.39347e-06
0.0014599
0.00111967
0.000727337
0.000549553
0.000547447
0.000570841
0.000531741
0.00043257
0.000314433
0.000209002
0.000123871
5.11928e-05
-1.94116e-05
-9.37358e-05
0.00138178
0.00107897
0.000741196
0.000565254
0.000533658
0.000535882
0.000492918
0.00039329
0.000266948
0.000146857
4.75549e-05
-3.49772e-05
-0.000112345
-0.000193397
0.00140972
0.00110786
0.000757333
0.000552067
0.000502537
0.000507684
0.000472062
0.000367134
0.000222381
8.15695e-05
-3.21387e-05
-0.000122382
-0.000205417
-0.000294087
0.00154455
0.00120416
0.000774706
0.000515287
0.000463449
0.000493539
0.0004715
0.000353479
0.000180532
1.48146e-05
-0.000112406
-0.000208461
-0.000296989
-0.000394915
0.00177363
0.00135967
0.000798048
0.000468641
0.000429693
0.000500467
0.000493013
0.000353102
0.000143928
-4.92276e-05
-0.000188909
-0.000289812
-0.000384689
-0.000494071
0.00208047
0.00156685
0.000837068
0.000429427
0.000414826
0.000534944
0.000539499
0.000369442
0.000117839
-0.000104504
-0.000256194
-0.000362102
-0.000465034
-0.00058847
-0.000730552
0.00245235
0.00182252
0.000903718
0.000414182
0.000430839
0.000603581
0.000615895
0.000408397
0.000109316
-0.000143945
-0.000308031
-0.000420038
-0.000533355
-0.000673782
-0.00083607
0.00288577
0.00212995
0.0010101
0.000436433
0.000487832
0.000713714
0.00072915
0.00047763
0.000126381
-0.000159907
-0.000337494
-0.000457339
-0.000583845
-0.000744594
-0.000930259
0.00338506
0.00249693
0.00116729
0.000506988
0.000594902
0.000873596
0.000887509
0.000585559
0.000177356
-0.0001444
-0.00033698
-0.000466791
-0.000609706
-0.000794558
-0.00100722
0.00396059
0.00293468
0.00138618
0.000635825
0.000761475
0.00109259
0.00110018
0.000741074
0.000270869
-8.89601e-05
-0.000298204
-0.000440429
-0.000603447
-0.000816714
-0.00106047
0.0046244
0.0034556
0.00167856
0.000834035
0.000998424
0.00138151
0.00137758
0.000954131
0.00041671
1.62243e-05
-0.000211436
-0.000368906
-0.000556363
-0.000803054
-0.00108257
0.0053906
0.00407356
0.00205683
0.00111324
0.00131743
0.00175212
0.00173088
0.00123536
0.000625554
0.000182258
-6.53574e-05
-0.00024124
-0.000458238
-0.00074418
-0.00106468
0.00627614
0.00480466
0.0025352
0.00148716
0.00173239
0.00221771
0.00217194
0.0015958
0.000908907
0.000421623
0.000152911
-4.51161e-05
-0.000297888
-0.000629914
-0.000997087
0.00729442
0.00566381
0.00313065
0.00197389
0.00226063
0.00279356
0.00271373
0.0020479
0.00128052
0.000749665
0.000459124
0.00023411
-6.25342e-05
-0.000448958
-0.000868968
0.00666713
0.00386155
0.00259316
0.00292092
0.00349568
0.00336927
0.00260433
0.00175551
0.00118447
0.000872485
0.000614322
0.000263389
-0.000186897
-0.000665036
0.00327582
0.00234844
0.00174505
0.00141242
0.00111061
0.0006895
0.000163982
-0.000375847
3.47718e-05
)
;

boundaryField
{
    inlet
    {
        type            zeroGradient;
    }
    outlet
    {
        type            fixedValue;
        value           nonuniform 0();
    }
    cylinder
    {
        type            zeroGradient;
    }
    top
    {
        type            symmetryPlane;
    }
    bottom
    {
        type            symmetryPlane;
    }
    defaultFaces
    {
        type            empty;
    }
    procBoundary9to0
    {
        type            processor;
        value           uniform 0.00391957;
    }
    procBoundary9to1
    {
        type            processor;
        value           nonuniform List<scalar> 
23
(
0.00354906
0.00327366
0.00297988
0.00269
0.00241399
0.00218966
0.00209671
0.00227636
0.00311683
0.00411355
0.00308878
0.00126786
0.00028873
0.000316576
0.000756786
0.00108663
0.00114705
0.0010353
0.000900552
0.000822464
0.000802529
0.000807263
0.00080792
)
;
    }
    procBoundary9to2
    {
        type            processor;
        value           nonuniform List<scalar> 2(0.0007508 0.000697867);
    }
    procBoundary9to8
    {
        type            processor;
        value           nonuniform List<scalar> 
24
(
0.00403471
0.00416301
0.00430463
0.00445968
0.0046283
0.00481065
0.00500687
0.00521712
0.00544151
0.0056801
0.00593291
0.00619988
0.00648085
0.00677555
0.00708358
0.00740439
0.00773722
0.00808114
0.00843504
0.00879757
0.00916712
0.00954174
0.00991916
0.0102967
)
;
    }
    procBoundary9to10
    {
        type            processor;
        value           nonuniform List<scalar> 
27
(
0.000635903
0.000566826
0.000490694
0.000408761
0.000321472
0.00022965
0.000133902
3.48341e-05
-6.72451e-05
-0.000172254
-0.00028028
-0.000391292
-0.000504665
-0.000618728
-0.000618728
-0.000877767
-0.00100275
-0.00111912
-0.00122139
-0.00130343
-0.00135823
-0.00137722
-0.00135065
-0.00126749
-0.0011107
-0.000868995
-0.00050314
)
;
    }
    procBoundary9to17
    {
        type            processor;
        value           nonuniform List<scalar> 
27
(
0.0109733
0.0111616
0.0112804
0.011207
0.0109496
0.0104852
0.00981545
0.00901179
0.00845855
0.00846007
0.00846007
0.00783137
0.00474956
0.00336984
0.0037366
0.00434163
0.00415031
0.00415031
0.00407743
0.00308399
0.00246536
0.00211374
0.00175181
0.00124137
0.000633169
0.000633169
0.000571657
)
;
    }
}


// ************************************************************************* //
