/*--------------------------------*- C++ -*----------------------------------*\
  =========                 |
  \\      /  F ield         | OpenFOAM: The Open Source CFD Toolbox
   \\    /   O peration     | Website:  https://openfoam.org
    \\  /    A nd           | Version:  7
     \\/     M anipulation  |
\*---------------------------------------------------------------------------*/
FoamFile
{
    version     2.0;
    format      ascii;
    class       surfaceScalarField;
    location    "0.8";
    object      phi;
}
// * * * * * * * * * * * * * * * * * * * * * * * * * * * * * * * * * * * * * //

dimensions      [0 3 -1 0 0 0 0];

internalField   nonuniform List<scalar> 
319200
(
-8.16395e-14
-3.64548e-14
8.83786e-13
-9.66165e-13
2.76538e-12
-1.88085e-12
5.26538e-12
-2.49965e-12
8.10334e-12
-2.83758e-12
1.10504e-11
-2.94828e-12
1.39302e-11
-2.87911e-12
1.66046e-11
-2.67428e-12
1.89702e-11
-2.36538e-12
2.09477e-11
-1.97682e-12
2.24759e-11
-1.52894e-12
2.35114e-11
-1.03578e-12
2.40213e-11
-5.09337e-13
2.39817e-11
3.9883e-14
2.33771e-11
6.04399e-13
2.2199e-11
1.1785e-12
2.04425e-11
1.75678e-12
1.81076e-11
2.3348e-12
1.5198e-11
2.90928e-12
1.17205e-11
3.4777e-12
7.68337e-12
4.03742e-12
3.0964e-12
4.58692e-12
-2.02744e-12
5.12377e-12
-7.67488e-12
5.64752e-12
-1.38318e-11
6.15718e-12
-2.04835e-11
6.65172e-12
-2.76141e-11
7.13048e-12
-3.52075e-11
7.5933e-12
-4.32473e-11
8.03992e-12
-5.17173e-11
8.47009e-12
-6.06009e-11
8.88364e-12
-6.98816e-11
9.28057e-12
-7.95428e-11
9.66115e-12
-8.95683e-11
1.00256e-11
-9.99421e-11
1.0374e-11
-1.10649e-10
1.07065e-11
-1.21672e-10
1.10236e-11
-1.32998e-10
1.13255e-11
-1.44611e-10
1.16128e-11
-1.56496e-10
1.18857e-11
-1.68641e-10
1.21447e-11
-1.81031e-10
1.23901e-11
-1.93653e-10
1.26223e-11
-2.06495e-10
1.28419e-11
-2.19544e-10
1.30494e-11
-2.32789e-10
1.32451e-11
-2.46219e-10
1.34295e-11
-2.59822e-10
1.3603e-11
-2.73588e-10
1.37661e-11
-2.87507e-10
1.39193e-11
-3.0157e-10
1.40629e-11
-3.15768e-10
1.41975e-11
-3.30091e-10
1.43234e-11
-3.44533e-10
1.44411e-11
-3.59084e-10
1.45508e-11
-3.73737e-10
1.46532e-11
-3.88485e-10
1.47485e-11
-4.03322e-10
1.48371e-11
-4.18241e-10
1.49193e-11
-4.33236e-10
1.49955e-11
-4.48302e-10
1.50658e-11
-4.63433e-10
1.51308e-11
-4.78624e-10
1.51908e-11
-4.9387e-10
1.5246e-11
-5.09167e-10
1.52967e-11
-5.2451e-10
1.53432e-11
-5.39896e-10
1.53858e-11
-5.55321e-10
1.54246e-11
-5.7078e-10
1.54599e-11
-5.86272e-10
1.54919e-11
-6.01793e-10
1.55208e-11
-6.1734e-10
1.55467e-11
-6.32909e-10
1.55699e-11
-6.48499e-10
1.55905e-11
-6.64108e-10
1.56085e-11
-6.79732e-10
1.56243e-11
-6.9537e-10
1.56378e-11
-7.1102e-10
1.56493e-11
-7.26679e-10
1.56589e-11
-7.42346e-10
1.56667e-11
-7.58018e-10
1.56728e-11
-7.73695e-10
1.56771e-11
-7.89375e-10
1.56797e-11
-8.05056e-10
1.56808e-11
-8.20736e-10
1.56803e-11
-8.36414e-10
1.56783e-11
-8.52089e-10
1.56749e-11
-8.67759e-10
1.56699e-11
-8.83423e-10
1.56636e-11
-8.99078e-10
1.56559e-11
-9.14725e-10
1.56467e-11
-9.30361e-10
1.56362e-11
-9.45986e-10
1.56243e-11
-9.61597e-10
1.56109e-11
-9.77193e-10
1.5596e-11
-9.92772e-10
1.55797e-11
-1.00833e-09
1.55617e-11
-1.02388e-09
1.55423e-11
-1.0394e-09
1.55212e-11
-1.0549e-09
1.54986e-11
-1.07037e-09
1.54742e-11
-1.08582e-09
1.54482e-11
-1.10124e-09
1.54203e-11
-1.11663e-09
1.53905e-11
-1.13199e-09
1.53588e-11
-1.14731e-09
1.53251e-11
-1.1626e-09
1.52894e-11
-1.17785e-09
1.52516e-11
-1.19307e-09
1.52116e-11
-1.20823e-09
1.51693e-11
-1.22336e-09
1.51246e-11
-1.23844e-09
1.50775e-11
-1.25347e-09
1.5028e-11
-1.26844e-09
1.49759e-11
-1.28336e-09
1.49212e-11
-1.29823e-09
1.48637e-11
-1.31303e-09
1.48033e-11
-1.32777e-09
1.474e-11
-1.34244e-09
1.46737e-11
-1.35705e-09
1.46043e-11
-1.37158e-09
1.45318e-11
-1.38604e-09
1.4456e-11
-1.40041e-09
1.43769e-11
-1.41471e-09
1.42944e-11
-1.42891e-09
1.42083e-11
-1.44303e-09
1.41185e-11
-1.45706e-09
1.40251e-11
-1.47099e-09
1.39279e-11
-1.48481e-09
1.38269e-11
-1.49853e-09
1.37219e-11
-1.51215e-09
1.36129e-11
-1.52565e-09
1.34996e-11
-1.53903e-09
1.33822e-11
-1.55229e-09
1.32604e-11
-1.56542e-09
1.31343e-11
-1.57843e-09
1.30037e-11
-1.5913e-09
1.28686e-11
-1.60402e-09
1.27288e-11
-1.61661e-09
1.25843e-11
-1.62904e-09
1.24351e-11
-1.64133e-09
1.22809e-11
-1.65345e-09
1.21217e-11
-1.6654e-09
1.19575e-11
-1.67719e-09
1.17883e-11
-1.68881e-09
1.16139e-11
-1.70024e-09
1.14343e-11
-1.71149e-09
1.12494e-11
-1.72255e-09
1.1059e-11
-1.73341e-09
1.08633e-11
-1.74407e-09
1.06621e-11
-1.75453e-09
1.04553e-11
-1.76477e-09
1.02429e-11
-1.7748e-09
1.00249e-11
-1.7846e-09
9.80116e-12
-1.79417e-09
9.57168e-12
-1.80351e-09
9.33639e-12
-1.8126e-09
9.09526e-12
-1.82145e-09
8.84827e-12
-1.83005e-09
8.59538e-12
-1.83838e-09
8.33657e-12
-1.84645e-09
8.07182e-12
-1.85426e-09
7.80108e-12
-1.86178e-09
7.52435e-12
-1.86902e-09
7.2416e-12
-1.87597e-09
6.95284e-12
-1.88263e-09
6.65806e-12
-1.88899e-09
6.35727e-12
-1.89504e-09
6.05048e-12
-1.90078e-09
5.7377e-12
-1.9062e-09
5.41893e-12
-1.91129e-09
5.09421e-12
-1.91605e-09
4.76355e-12
-1.92048e-09
4.427e-12
-1.92457e-09
4.08461e-12
-1.9283e-09
3.73642e-12
-1.93169e-09
3.38248e-12
-1.93471e-09
3.02283e-12
-1.93737e-09
2.65754e-12
-1.93965e-09
2.28669e-12
-1.94156e-09
1.91035e-12
-1.94309e-09
1.52862e-12
-1.94423e-09
1.14159e-12
-1.94498e-09
7.49361e-13
-1.94533e-09
3.52032e-13
-1.94528e-09
-5.02745e-14
-1.94483e-09
-4.57465e-13
-1.94396e-09
-8.69406e-13
-1.94267e-09
-1.28595e-12
-1.94096e-09
-1.70696e-12
-1.93883e-09
-2.13228e-12
-1.93627e-09
-2.56173e-12
-1.93328e-09
-2.99516e-12
-1.92984e-09
-3.43242e-12
-1.92597e-09
-3.87331e-12
-1.92165e-09
-4.31766e-12
-1.91689e-09
-4.7653e-12
-1.91167e-09
-5.21598e-12
-1.906e-09
-5.66948e-12
-1.89988e-09
-6.12559e-12
-1.89329e-09
-6.5841e-12
-1.88625e-09
-7.04476e-12
-1.87874e-09
-7.50734e-12
-1.87077e-09
-7.97162e-12
-1.86233e-09
-8.43734e-12
-1.85343e-09
-8.90423e-12
-1.84405e-09
-9.37203e-12
-1.83421e-09
-9.84043e-12
-1.8239e-09
-1.03091e-11
-1.81313e-09
-1.07779e-11
-1.80188e-09
-1.12465e-11
-1.79017e-09
-1.17145e-11
-1.77798e-09
-1.21817e-11
-1.76534e-09
-1.26478e-11
-1.75222e-09
-1.31124e-11
-1.73865e-09
-1.35752e-11
-1.72461e-09
-1.4036e-11
-1.71012e-09
-1.44943e-11
-1.69517e-09
-1.49498e-11
-1.67977e-09
-1.54023e-11
-1.66391e-09
-1.58513e-11
-1.64762e-09
-1.62967e-11
-1.63088e-09
-1.67379e-11
-1.61371e-09
-1.71746e-11
-1.5961e-09
-1.76066e-11
-1.57807e-09
-1.80334e-11
-1.55961e-09
-1.84547e-11
-1.54074e-09
-1.88702e-11
-1.52146e-09
-1.92795e-11
-1.50178e-09
-1.96823e-11
-1.4817e-09
-2.00782e-11
-1.46123e-09
-2.04669e-11
-1.44039e-09
-2.08481e-11
-1.41916e-09
-2.12213e-11
-1.39758e-09
-2.15863e-11
-1.37564e-09
-2.19427e-11
-1.35335e-09
-2.22902e-11
-1.33072e-09
-2.26284e-11
-1.30776e-09
-2.29572e-11
-1.28448e-09
-2.3276e-11
-1.2609e-09
-2.35847e-11
-1.23702e-09
-2.38828e-11
-1.21285e-09
-2.41702e-11
-1.1884e-09
-2.44464e-11
-1.16369e-09
-2.47113e-11
-1.13872e-09
-2.49645e-11
-1.11352e-09
-2.52058e-11
-1.08808e-09
-2.5435e-11
-1.06243e-09
-2.56517e-11
-1.03658e-09
-2.58557e-11
-1.01053e-09
-2.60468e-11
-9.84305e-10
-2.62247e-11
-9.57915e-10
-2.63894e-11
-9.31375e-10
-2.65404e-11
-9.04697e-10
-2.66778e-11
-8.77896e-10
-2.68012e-11
-8.50986e-10
-2.69105e-11
-8.2398e-10
-2.70056e-11
-7.96894e-10
-2.70863e-11
-7.69741e-10
-2.71525e-11
-7.42537e-10
-2.72041e-11
-7.15296e-10
-2.72409e-11
-6.88033e-10
-2.7263e-11
-6.60763e-10
-2.72702e-11
-6.33501e-10
-2.72624e-11
-6.06261e-10
-2.72396e-11
-5.79059e-10
-2.72018e-11
-5.5191e-10
-2.7149e-11
-5.24829e-10
-2.70811e-11
-4.97831e-10
-2.69981e-11
-4.70931e-10
-2.69002e-11
-4.44144e-10
-2.67873e-11
-4.17484e-10
-2.66594e-11
-3.90968e-10
-2.65167e-11
-3.64608e-10
-2.63593e-11
-3.38421e-10
-2.61872e-11
-3.12421e-10
-2.60005e-11
-2.86621e-10
-2.57994e-11
-2.61037e-10
-2.5584e-11
-2.35683e-10
-2.53544e-11
-2.10572e-10
-2.51109e-11
-1.85719e-10
-2.48535e-11
-1.61136e-10
-2.45826e-11
-1.36838e-10
-2.42983e-11
-1.12837e-10
-2.40008e-11
-8.91465e-11
-2.36904e-11
-6.57793e-11
-2.33672e-11
-4.27477e-11
-2.30316e-11
-2.00638e-11
-2.26838e-11
2.26034e-12
-2.23242e-11
2.42132e-11
-2.19529e-11
4.57834e-11
-2.15702e-11
6.69599e-11
-2.11766e-11
8.77321e-11
-2.07722e-11
1.0809e-10
-2.03575e-11
1.28022e-10
-1.99327e-11
1.4752e-10
-1.94982e-11
1.66575e-10
-1.90543e-11
1.85176e-10
-1.86015e-11
2.03316e-10
-1.814e-11
2.20986e-10
-1.76702e-11
2.38179e-10
-1.71926e-11
2.54886e-10
-1.67074e-11
2.71101e-10
-1.62151e-11
2.86817e-10
-1.5716e-11
3.02028e-10
-1.52105e-11
3.16727e-10
-1.46991e-11
3.30909e-10
-1.41821e-11
3.44569e-10
-1.366e-11
3.57702e-10
-1.31331e-11
3.70304e-10
-1.26018e-11
3.82371e-10
-1.20665e-11
3.93898e-10
-1.15277e-11
4.04884e-10
-1.09857e-11
4.15325e-10
-1.04409e-11
4.25219e-10
-9.89382e-12
4.34564e-10
-9.34477e-12
4.43358e-10
-8.79418e-12
4.516e-10
-8.24241e-12
4.5929e-10
-7.68988e-12
4.66427e-10
-7.137e-12
4.73011e-10
-6.58416e-12
4.79043e-10
-6.03174e-12
4.84523e-10
-5.48012e-12
4.89453e-10
-4.9297e-12
4.93834e-10
-4.38086e-12
4.97668e-10
-3.834e-12
5.00957e-10
-3.28947e-12
5.03705e-10
-2.74764e-12
5.05914e-10
-2.20889e-12
5.07587e-10
-1.67358e-12
5.08729e-10
-1.1421e-12
5.09344e-10
-6.14822e-13
5.09436e-10
-9.20859e-14
5.0901e-10
4.25742e-13
5.08072e-10
9.38322e-13
5.06627e-10
1.44529e-12
5.04681e-10
1.94628e-12
5.0224e-10
2.44092e-12
4.99311e-10
2.92885e-12
4.95901e-10
3.40974e-12
4.92018e-10
3.88321e-12
4.87669e-10
4.34891e-12
4.82862e-10
4.80647e-12
4.77607e-10
5.25553e-12
4.71911e-10
5.6957e-12
4.65785e-10
6.12658e-12
4.59237e-10
6.5478e-12
4.52278e-10
6.95898e-12
4.44918e-10
7.3597e-12
4.37169e-10
7.74955e-12
4.29041e-10
8.12809e-12
4.20546e-10
8.49486e-12
4.11696e-10
8.84943e-12
4.02505e-10
9.19131e-12
3.92985e-10
9.52003e-12
3.8315e-10
9.83504e-12
3.73014e-10
1.01358e-11
3.62592e-10
1.04218e-11
3.519e-10
1.06924e-11
3.40953e-10
1.09469e-11
3.29768e-10
1.11849e-11
3.18363e-10
1.14054e-11
3.06755e-10
1.16079e-11
2.94963e-10
1.17915e-11
2.83008e-10
1.19555e-11
2.70909e-10
1.20989e-11
2.58688e-10
1.22209e-11
2.46368e-10
1.23205e-11
2.33971e-10
1.23966e-11
2.21523e-10
1.24483e-11
2.09049e-10
1.24742e-11
1.96576e-10
1.24732e-11
1.84132e-10
1.24441e-11
1.71746e-10
1.23853e-11
1.59451e-10
1.22954e-11
1.47278e-10
1.21729e-11
1.35262e-10
1.2016e-11
1.23439e-10
1.18231e-11
1.11847e-10
1.15923e-11
1.00525e-10
1.13217e-11
8.95159e-11
1.10091e-11
7.88635e-11
1.06525e-11
6.86139e-11
1.02496e-11
5.88158e-11
9.79814e-12
4.952e-11
9.29589e-12
4.07794e-11
8.74057e-12
3.26494e-11
8.13005e-12
2.51869e-11
7.46245e-12
1.84506e-11
6.73632e-12
1.24997e-11
5.95099e-12
7.39269e-12
5.107e-12
3.18596e-12
4.20677e-12
-7.08366e-14
3.25682e-12
-2.346e-12
2.27517e-12
-3.62008e-12
1.2741e-12
-3.92106e-12
3.01013e-13
-3.3492e-12
-5.71837e-13
-2.13754e-12
-1.21163e-12
-7.53232e-13
-1.38427e-12
-7.53198e-13
9.2182e-13
-9.57638e-13
3.92296e-12
-3.96815e-12
8.6414e-12
-6.60076e-12
1.4569e-11
-8.42586e-12
2.11766e-11
-9.44596e-12
2.79873e-11
-9.75738e-12
3.45887e-11
-9.48209e-12
4.06458e-11
-8.73213e-12
4.58863e-11
-7.60524e-12
5.00923e-11
-6.18318e-12
5.30944e-11
-4.53115e-12
5.47612e-11
-2.70215e-12
5.49917e-11
-7.40351e-13
5.37128e-11
1.31792e-12
5.08726e-11
3.44452e-12
4.64368e-11
5.61453e-12
4.03858e-11
7.80764e-12
3.27128e-11
1.00074e-11
2.3422e-11
1.22003e-11
1.2525e-11
1.4375e-11
4.03835e-14
1.65218e-11
-1.40045e-11
1.86314e-11
-2.95813e-11
2.07004e-11
-4.66556e-11
2.27221e-11
-6.51905e-11
2.46921e-11
-8.5146e-11
2.6607e-11
-1.0648e-10
2.84645e-11
-1.29149e-10
3.02627e-11
-1.53109e-10
3.20002e-11
-1.78315e-10
3.36759e-11
-2.04721e-10
3.52893e-11
-2.32281e-10
3.68404e-11
-2.60949e-10
3.83295e-11
-2.90681e-10
3.97569e-11
-3.2143e-10
4.11231e-11
-3.53152e-10
4.2429e-11
-3.85805e-10
4.36758e-11
-4.19344e-10
4.48646e-11
-4.53728e-10
4.59968e-11
-4.88916e-10
4.70737e-11
-5.24868e-10
4.80966e-11
-5.61545e-10
4.90673e-11
-5.9891e-10
4.99873e-11
-6.36927e-10
5.08583e-11
-6.75559e-10
5.16819e-11
-7.14774e-10
5.24598e-11
-7.54538e-10
5.31936e-11
-7.9482e-10
5.38851e-11
-8.3559e-10
5.4536e-11
-8.76818e-10
5.51479e-11
-9.18478e-10
5.57225e-11
-9.60541e-10
5.62615e-11
-1.00298e-09
5.67663e-11
-1.04578e-09
5.72386e-11
-1.08891e-09
5.76799e-11
-1.13235e-09
5.80917e-11
-1.17608e-09
5.84756e-11
-1.22007e-09
5.88329e-11
-1.26432e-09
5.9165e-11
-1.3088e-09
5.94732e-11
-1.35349e-09
5.97587e-11
-1.39838e-09
6.00228e-11
-1.44346e-09
6.02666e-11
-1.4887e-09
6.04914e-11
-1.5341e-09
6.0698e-11
-1.57965e-09
6.08877e-11
-1.62532e-09
6.10612e-11
-1.67112e-09
6.12196e-11
-1.71702e-09
6.13637e-11
-1.76302e-09
6.14944e-11
-1.80912e-09
6.16125e-11
-1.85529e-09
6.17187e-11
-1.90153e-09
6.18137e-11
-1.94784e-09
6.18981e-11
-1.9942e-09
6.19724e-11
-2.04062e-09
6.20371e-11
-2.08707e-09
6.20929e-11
-2.13356e-09
6.21401e-11
-2.18008e-09
6.21791e-11
-2.22663e-09
6.22104e-11
-2.27319e-09
6.22343e-11
-2.31976e-09
6.22511e-11
-2.36634e-09
6.22611e-11
-2.41293e-09
6.22644e-11
-2.45951e-09
6.22612e-11
-2.50608e-09
6.22519e-11
-2.55264e-09
6.22363e-11
-2.59919e-09
6.22148e-11
-2.64571e-09
6.21873e-11
-2.69221e-09
6.21538e-11
-2.73868e-09
6.21144e-11
-2.78511e-09
6.20691e-11
-2.8315e-09
6.20178e-11
-2.87785e-09
6.19605e-11
-2.92415e-09
6.18972e-11
-2.9704e-09
6.18276e-11
-3.01659e-09
6.17518e-11
-3.06272e-09
6.16696e-11
-3.10878e-09
6.15807e-11
-3.15476e-09
6.14851e-11
-3.20067e-09
6.13826e-11
-3.2465e-09
6.1273e-11
-3.29223e-09
6.1156e-11
-3.33787e-09
6.10315e-11
-3.38341e-09
6.08992e-11
-3.42885e-09
6.07587e-11
-3.47417e-09
6.061e-11
-3.51937e-09
6.04527e-11
-3.56445e-09
6.02866e-11
-3.60939e-09
6.01114e-11
-3.65419e-09
5.99268e-11
-3.69884e-09
5.97324e-11
-3.74334e-09
5.95279e-11
-3.78768e-09
5.93132e-11
-3.83185e-09
5.90878e-11
-3.87584e-09
5.88515e-11
-3.91964e-09
5.86039e-11
-3.96324e-09
5.83447e-11
-4.00664e-09
5.80735e-11
-4.04983e-09
5.779e-11
-4.09279e-09
5.74938e-11
-4.13552e-09
5.71847e-11
-4.178e-09
5.68624e-11
-4.22024e-09
5.65265e-11
-4.2622e-09
5.61766e-11
-4.3039e-09
5.58124e-11
-4.34531e-09
5.54335e-11
-4.38642e-09
5.50396e-11
-4.42722e-09
5.46304e-11
-4.4677e-09
5.42056e-11
-4.50786e-09
5.37648e-11
-4.54766e-09
5.33077e-11
-4.58712e-09
5.2834e-11
-4.6262e-09
5.23432e-11
-4.6649e-09
5.18352e-11
-4.70321e-09
5.13095e-11
-4.7411e-09
5.07658e-11
-4.77858e-09
5.0204e-11
-4.81562e-09
4.96236e-11
-4.85221e-09
4.90244e-11
-4.88833e-09
4.8406e-11
-4.92398e-09
4.77682e-11
-4.95913e-09
4.71106e-11
-4.99378e-09
4.6433e-11
-5.0279e-09
4.57352e-11
-5.06148e-09
4.50168e-11
-5.09451e-09
4.42776e-11
-5.12697e-09
4.35174e-11
-5.15884e-09
4.2736e-11
-5.19011e-09
4.1933e-11
-5.22076e-09
4.11083e-11
-5.25078e-09
4.02617e-11
-5.28015e-09
3.9393e-11
-5.30885e-09
3.8502e-11
-5.33687e-09
3.75885e-11
-5.36418e-09
3.66524e-11
-5.39078e-09
3.56934e-11
-5.41665e-09
3.47116e-11
-5.44176e-09
3.37067e-11
-5.4661e-09
3.26787e-11
-5.48965e-09
3.16275e-11
-5.51241e-09
3.05529e-11
-5.53434e-09
2.94551e-11
-5.55543e-09
2.83338e-11
-5.57567e-09
2.71891e-11
-5.59503e-09
2.6021e-11
-5.6135e-09
2.48294e-11
-5.63106e-09
2.36145e-11
-5.6477e-09
2.23763e-11
-5.6634e-09
2.11149e-11
-5.67814e-09
1.98303e-11
-5.69189e-09
1.85227e-11
-5.70466e-09
1.71922e-11
-5.71641e-09
1.5839e-11
-5.72714e-09
1.44633e-11
-5.73682e-09
1.30653e-11
-5.74545e-09
1.16452e-11
-5.75299e-09
1.02033e-11
-5.75945e-09
8.73986e-12
-5.76479e-09
7.25522e-12
-5.76901e-09
5.74969e-12
-5.77209e-09
4.22363e-12
-5.77402e-09
2.67746e-12
-5.77478e-09
1.11161e-12
-5.77436e-09
-4.73479e-13
-5.77274e-09
-2.07734e-12
-5.76991e-09
-3.69946e-12
-5.76585e-09
-5.33932e-12
-5.76057e-09
-6.99635e-12
-5.75403e-09
-8.66997e-12
-5.74623e-09
-1.03596e-11
-5.73716e-09
-1.20644e-11
-5.72681e-09
-1.37839e-11
-5.71516e-09
-1.55174e-11
-5.70222e-09
-1.72639e-11
-5.68796e-09
-1.90229e-11
-5.67238e-09
-2.07936e-11
-5.65548e-09
-2.2575e-11
-5.63724e-09
-2.43664e-11
-5.61765e-09
-2.61669e-11
-5.59672e-09
-2.79755e-11
-5.57444e-09
-2.97913e-11
-5.5508e-09
-3.16134e-11
-5.52579e-09
-3.34407e-11
-5.49943e-09
-3.52723e-11
-5.47169e-09
-3.71071e-11
-5.44259e-09
-3.89441e-11
-5.41211e-09
-4.07821e-11
-5.38027e-09
-4.262e-11
-5.34706e-09
-4.44567e-11
-5.31249e-09
-4.62911e-11
-5.27655e-09
-4.81219e-11
-5.23925e-09
-4.9948e-11
-5.20059e-09
-5.17681e-11
-5.16058e-09
-5.35811e-11
-5.11923e-09
-5.53856e-11
-5.07655e-09
-5.71804e-11
-5.03253e-09
-5.89642e-11
-4.9872e-09
-6.07356e-11
-4.94056e-09
-6.24935e-11
-4.89262e-09
-6.42365e-11
-4.84339e-09
-6.59633e-11
-4.7929e-09
-6.76724e-11
-4.74114e-09
-6.93627e-11
-4.68814e-09
-7.10327e-11
-4.63391e-09
-7.26811e-11
-4.57848e-09
-7.43066e-11
-4.52185e-09
-7.59077e-11
-4.46405e-09
-7.74832e-11
-4.40509e-09
-7.90317e-11
-4.34501e-09
-8.05519e-11
-4.28382e-09
-8.20424e-11
-4.22153e-09
-8.3502e-11
-4.15819e-09
-8.49293e-11
-4.09381e-09
-8.6323e-11
-4.02842e-09
-8.76818e-11
-3.96204e-09
-8.90044e-11
-3.89471e-09
-9.02897e-11
-3.82645e-09
-9.15364e-11
-3.75729e-09
-9.27432e-11
-3.68727e-09
-9.3909e-11
-3.6164e-09
-9.50327e-11
-3.54474e-09
-9.6113e-11
-3.4723e-09
-9.71489e-11
-3.39912e-09
-9.81393e-11
-3.32525e-09
-9.90832e-11
-3.2507e-09
-9.99795e-11
-3.17553e-09
-1.00827e-10
-3.09976e-09
-1.01626e-10
-3.02343e-09
-1.02374e-10
-2.94658e-09
-1.0307e-10
-2.86926e-09
-1.03715e-10
-2.79149e-09
-1.04307e-10
-2.71333e-09
-1.04845e-10
-2.6348e-09
-1.05329e-10
-2.55595e-09
-1.05758e-10
-2.47682e-09
-1.06132e-10
-2.39746e-09
-1.06449e-10
-2.3179e-09
-1.06711e-10
-2.23819e-09
-1.06915e-10
-2.15837e-09
-1.07061e-10
-2.07848e-09
-1.0715e-10
-1.99857e-09
-1.07181e-10
-1.91868e-09
-1.07154e-10
-1.83885e-09
-1.07068e-10
-1.75913e-09
-1.06924e-10
-1.67956e-09
-1.06721e-10
-1.60018e-09
-1.06459e-10
-1.52104e-09
-1.06139e-10
-1.44218e-09
-1.0576e-10
-1.36365e-09
-1.05323e-10
-1.28548e-09
-1.04827e-10
-1.20772e-09
-1.04274e-10
-1.13042e-09
-1.03663e-10
-1.05361e-09
-1.02995e-10
-9.7734e-10
-1.0227e-10
-9.0165e-10
-1.01489e-10
-8.26581e-10
-1.00652e-10
-7.52175e-10
-9.97603e-11
-6.78473e-10
-9.88137e-11
-6.05513e-10
-9.78132e-11
-5.33336e-10
-9.67596e-11
-4.6198e-10
-9.56537e-11
-3.91485e-10
-9.44964e-11
-3.21887e-10
-9.32885e-11
-2.53223e-10
-9.20309e-11
-1.8553e-10
-9.07246e-11
-1.18843e-10
-8.93707e-11
-5.31973e-11
-8.79703e-11
1.13741e-11
-8.65243e-11
7.4838e-11
-8.50341e-11
1.37162e-10
-8.35007e-11
1.98315e-10
-8.19253e-11
2.58267e-10
-8.03094e-11
3.16988e-10
-7.8654e-11
3.74451e-10
-7.69606e-11
4.30627e-10
-7.52304e-11
4.8549e-10
-7.34649e-11
5.39016e-10
-7.16655e-11
5.91179e-10
-6.98336e-11
6.41957e-10
-6.79706e-11
6.91328e-10
-6.6078e-11
7.3927e-10
-6.41573e-11
7.85764e-10
-6.221e-11
8.30791e-10
-6.02375e-11
8.74333e-10
-5.82415e-11
9.16375e-10
-5.62235e-11
9.569e-10
-5.4185e-11
9.95894e-10
-5.21275e-11
1.03334e-09
-5.00527e-11
1.06924e-09
-4.79621e-11
1.10357e-09
-4.58573e-11
1.13632e-09
-4.37399e-11
1.16749e-09
-4.16113e-11
1.19707e-09
-3.94733e-11
1.22506e-09
-3.73273e-11
1.25144e-09
-3.5175e-11
1.27621e-09
-3.30179e-11
1.29938e-09
-3.08575e-11
1.32094e-09
-2.86954e-11
1.34089e-09
-2.65332e-11
1.35923e-09
-2.43723e-11
1.37596e-09
-2.22143e-11
1.39109e-09
-2.00607e-11
1.40463e-09
-1.79131e-11
1.41656e-09
-1.57728e-11
1.42692e-09
-1.36415e-11
1.43569e-09
-1.15205e-11
1.44289e-09
-9.41132e-12
1.44853e-09
-7.31547e-12
1.45263e-09
-5.23436e-12
1.45518e-09
-3.16942e-12
1.45621e-09
-1.12209e-12
1.45573e-09
9.06154e-13
1.45375e-09
2.914e-12
1.4503e-09
4.89992e-12
1.44538e-09
6.86251e-12
1.43902e-09
8.8004e-12
1.43124e-09
1.07121e-11
1.42205e-09
1.25963e-11
1.41149e-09
1.44515e-11
1.39956e-09
1.62762e-11
1.3863e-09
1.8069e-11
1.37172e-09
1.98284e-11
1.35587e-09
2.15529e-11
1.33875e-09
2.3241e-11
1.32041e-09
2.48912e-11
1.30087e-09
2.65018e-11
1.28015e-09
2.80713e-11
1.25831e-09
2.9598e-11
1.23535e-09
3.10802e-11
1.21133e-09
3.25161e-11
1.18628e-09
3.3904e-11
1.16023e-09
3.52418e-11
1.13322e-09
3.65277e-11
1.1053e-09
3.77597e-11
1.0765e-09
3.89356e-11
1.04686e-09
4.00532e-11
1.01645e-09
4.11102e-11
9.85289e-10
4.21041e-11
9.53442e-10
4.30324e-11
9.20955e-10
4.38924e-11
8.87881e-10
4.46813e-11
8.54277e-10
4.53961e-11
8.20198e-10
4.60337e-11
7.85707e-10
4.65906e-11
7.50864e-10
4.70635e-11
7.15736e-10
4.74487e-11
6.8039e-10
4.77421e-11
6.44899e-10
4.79398e-11
6.09336e-10
4.80371e-11
5.73779e-10
4.80297e-11
5.38311e-10
4.79124e-11
5.03016e-10
4.76803e-11
4.67984e-10
4.73278e-11
4.33308e-10
4.68491e-11
3.99085e-10
4.62382e-11
3.6542e-10
4.54888e-11
3.32418e-10
4.45942e-11
3.00192e-10
4.35476e-11
2.68859e-10
4.23418e-11
2.38542e-10
4.09696e-11
2.09368e-10
3.94234e-11
1.8147e-10
3.76961e-11
1.54986e-10
3.57806e-11
1.30056e-10
3.36703e-11
1.06827e-10
3.13595e-11
8.54446e-11
2.88445e-11
6.60574e-11
2.61236e-11
4.8809e-11
2.31994e-11
3.38358e-11
2.00803e-11
2.12585e-11
1.67841e-11
1.11716e-11
1.33438e-11
3.63191e-12
9.8149e-12
-1.37895e-12
6.285e-12
-3.97892e-12
2.90101e-12
-4.45282e-12
-9.79129e-14
-3.30674e-12
-2.35769e-12
-1.38428e-12
-3.30672e-12
-2.13745e-12
1.86389e-12
-2.82078e-12
6.5802e-12
-8.68498e-12
1.3435e-11
-1.34557e-11
2.17311e-11
-1.67239e-11
3.07901e-11
-1.85034e-11
3.99807e-11
-1.89483e-11
4.87496e-11
-1.82513e-11
5.66242e-11
-1.66061e-11
6.32086e-11
-1.41901e-11
6.81796e-11
-1.11547e-11
7.12771e-11
-7.6279e-12
7.22932e-11
-3.71786e-12
7.10669e-11
4.85579e-13
6.74773e-11
4.90775e-12
6.14353e-11
9.48687e-12
5.28796e-11
1.41701e-11
4.1773e-11
1.89139e-11
2.80983e-11
2.36821e-11
1.18548e-11
2.84442e-11
-6.94467e-12
3.31745e-11
-2.82747e-11
3.78516e-11
-5.2101e-11
4.24577e-11
-7.83793e-11
4.6979e-11
-1.0706e-10
5.1403e-11
-1.38088e-10
5.57196e-11
-1.71402e-10
5.99212e-11
-2.06939e-10
6.40017e-11
-2.44633e-10
6.79563e-11
-2.84414e-10
7.17814e-11
-3.26213e-10
7.54745e-11
-3.69958e-10
7.90341e-11
-4.15577e-10
8.24597e-11
-4.62998e-10
8.57513e-11
-5.12151e-10
8.89095e-11
-5.62963e-10
9.19353e-11
-6.15365e-10
9.48304e-11
-6.69286e-10
9.75969e-11
-7.24658e-10
1.00237e-10
-7.81415e-10
1.02754e-10
-8.39491e-10
1.0515e-10
-8.98821e-10
1.07427e-10
-9.59345e-10
1.09591e-10
-1.021e-09
1.11643e-10
-1.08373e-09
1.13588e-10
-1.14748e-09
1.15428e-10
-1.21219e-09
1.17168e-10
-1.2778e-09
1.18811e-10
-1.34428e-09
1.20361e-10
-1.41156e-09
1.21821e-10
-1.47961e-09
1.23194e-10
-1.54837e-09
1.24485e-10
-1.61781e-09
1.25698e-10
-1.68788e-09
1.26834e-10
-1.75854e-09
1.27898e-10
-1.82975e-09
1.28894e-10
-1.90148e-09
1.29824e-10
-1.9737e-09
1.30691e-10
-2.04636e-09
1.31499e-10
-2.11945e-09
1.32251e-10
-2.19293e-09
1.32949e-10
-2.26676e-09
1.33597e-10
-2.34094e-09
1.34196e-10
-2.41542e-09
1.3475e-10
-2.49019e-09
1.35261e-10
-2.56522e-09
1.35732e-10
-2.6405e-09
1.36164e-10
-2.716e-09
1.36559e-10
-2.7917e-09
1.36921e-10
-2.86759e-09
1.3725e-10
-2.94364e-09
1.37549e-10
-3.01985e-09
1.37819e-10
-3.09619e-09
1.38061e-10
-3.17265e-09
1.38278e-10
-3.24922e-09
1.38471e-10
-3.32589e-09
1.3864e-10
-3.40264e-09
1.38788e-10
-3.47947e-09
1.38916e-10
-3.55635e-09
1.39023e-10
-3.63328e-09
1.39112e-10
-3.71026e-09
1.39183e-10
-3.78726e-09
1.39236e-10
-3.86428e-09
1.39274e-10
-3.94131e-09
1.39295e-10
-4.01835e-09
1.39301e-10
-4.09538e-09
1.39292e-10
-4.1724e-09
1.39268e-10
-4.24939e-09
1.3923e-10
-4.32635e-09
1.39178e-10
-4.40328e-09
1.39112e-10
-4.48015e-09
1.39032e-10
-4.55698e-09
1.38939e-10
-4.63374e-09
1.38831e-10
-4.71043e-09
1.3871e-10
-4.78705e-09
1.38575e-10
-4.86358e-09
1.38426e-10
-4.94001e-09
1.38263e-10
-5.01635e-09
1.38085e-10
-5.09257e-09
1.37892e-10
-5.16867e-09
1.37685e-10
-5.24465e-09
1.37462e-10
-5.32049e-09
1.37222e-10
-5.39618e-09
1.36967e-10
-5.47172e-09
1.36695e-10
-5.5471e-09
1.36405e-10
-5.62229e-09
1.36098e-10
-5.69731e-09
1.35773e-10
-5.77213e-09
1.35428e-10
-5.84674e-09
1.35065e-10
-5.92113e-09
1.34681e-10
-5.9953e-09
1.34276e-10
-6.06922e-09
1.33851e-10
-6.14289e-09
1.33403e-10
-6.2163e-09
1.32933e-10
-6.28942e-09
1.3244e-10
-6.36226e-09
1.31922e-10
-6.43479e-09
1.3138e-10
-6.507e-09
1.30812e-10
-6.57887e-09
1.30219e-10
-6.6504e-09
1.29599e-10
-6.72156e-09
1.28951e-10
-6.79234e-09
1.28275e-10
-6.86272e-09
1.2757e-10
-6.93269e-09
1.26835e-10
-7.00224e-09
1.2607e-10
-7.07133e-09
1.25273e-10
-7.13997e-09
1.24445e-10
-7.20812e-09
1.23584e-10
-7.27577e-09
1.22689e-10
-7.3429e-09
1.21761e-10
-7.40949e-09
1.20797e-10
-7.47552e-09
1.19798e-10
-7.54098e-09
1.18762e-10
-7.60583e-09
1.1769e-10
-7.67007e-09
1.1658e-10
-7.73366e-09
1.15431e-10
-7.7966e-09
1.14243e-10
-7.85885e-09
1.13015e-10
-7.92039e-09
1.11747e-10
-7.9812e-09
1.10437e-10
-8.04127e-09
1.09086e-10
-8.10055e-09
1.07692e-10
-8.15904e-09
1.06255e-10
-8.2167e-09
1.04774e-10
-8.27352e-09
1.03249e-10
-8.32946e-09
1.01679e-10
-8.38451e-09
1.00064e-10
-8.43863e-09
9.84019e-11
-8.49181e-09
9.66937e-11
-8.54401e-09
9.49385e-11
-8.59521e-09
9.31356e-11
-8.64539e-09
9.12847e-11
-8.69451e-09
8.93853e-11
-8.74256e-09
8.74369e-11
-8.7895e-09
8.54393e-11
-8.8353e-09
8.3392e-11
-8.87994e-09
8.12946e-11
-8.9234e-09
7.9147e-11
-8.96563e-09
7.69487e-11
-9.00663e-09
7.46996e-11
-9.04635e-09
7.23994e-11
-9.08477e-09
7.0048e-11
-9.12186e-09
6.76452e-11
-9.15759e-09
6.51908e-11
-9.19195e-09
6.26849e-11
-9.22488e-09
6.01274e-11
-9.25638e-09
5.75182e-11
-9.28641e-09
5.48575e-11
-9.31494e-09
5.21454e-11
-9.34195e-09
4.93819e-11
-9.3674e-09
4.65673e-11
-9.39127e-09
4.37018e-11
-9.41353e-09
4.07857e-11
-9.43416e-09
3.78193e-11
-9.45312e-09
3.48029e-11
-9.4704e-09
3.17371e-11
-9.48595e-09
2.86222e-11
-9.49977e-09
2.54589e-11
-9.51181e-09
2.22476e-11
-9.52206e-09
1.89892e-11
-9.53049e-09
1.56842e-11
-9.53707e-09
1.23335e-11
-9.54179e-09
8.93781e-12
-9.54461e-09
5.49806e-12
-9.54551e-09
2.01518e-12
-9.54448e-09
-1.50983e-12
-9.54148e-09
-5.07588e-12
-9.5365e-09
-8.68186e-12
-9.52951e-09
-1.23266e-11
-9.5205e-09
-1.60088e-11
-9.50944e-09
-1.97272e-11
-9.49632e-09
-2.34804e-11
-9.48112e-09
-2.72669e-11
-9.46381e-09
-3.10853e-11
-9.4444e-09
-3.4934e-11
-9.42285e-09
-3.88113e-11
-9.39916e-09
-4.27155e-11
-9.37331e-09
-4.66449e-11
-9.34528e-09
-5.05977e-11
-9.31508e-09
-5.4572e-11
-9.28268e-09
-5.85657e-11
-9.24808e-09
-6.2577e-11
-9.21127e-09
-6.66038e-11
-9.17223e-09
-7.06438e-11
-9.13098e-09
-7.4695e-11
-9.0875e-09
-7.8755e-11
-9.04178e-09
-8.28217e-11
-8.99384e-09
-8.68925e-11
-8.94365e-09
-9.09652e-11
-8.89123e-09
-9.50373e-11
-8.83659e-09
-9.91062e-11
-8.77971e-09
-1.03169e-10
-8.7206e-09
-1.07224e-10
-8.65928e-09
-1.11268e-10
-8.59575e-09
-1.15299e-10
-8.53002e-09
-1.19313e-10
-8.4621e-09
-1.23308e-10
-8.392e-09
-1.27281e-10
-8.31973e-09
-1.31229e-10
-8.24532e-09
-1.3515e-10
-8.16877e-09
-1.39041e-10
-8.09011e-09
-1.42898e-10
-8.00935e-09
-1.46719e-10
-7.92653e-09
-1.505e-10
-7.84165e-09
-1.5424e-10
-7.75475e-09
-1.57935e-10
-7.66585e-09
-1.61581e-10
-7.57498e-09
-1.65177e-10
-7.48217e-09
-1.68718e-10
-7.38745e-09
-1.72203e-10
-7.29085e-09
-1.75628e-10
-7.19241e-09
-1.7899e-10
-7.09217e-09
-1.82286e-10
-6.99016e-09
-1.85514e-10
-6.88642e-09
-1.8867e-10
-6.78099e-09
-1.91752e-10
-6.67392e-09
-1.94756e-10
-6.56524e-09
-1.97681e-10
-6.455e-09
-2.00523e-10
-6.34326e-09
-2.0328e-10
-6.23006e-09
-2.05949e-10
-6.11544e-09
-2.08527e-10
-5.99946e-09
-2.11012e-10
-5.88217e-09
-2.13401e-10
-5.76363e-09
-2.15692e-10
-5.64388e-09
-2.17883e-10
-5.523e-09
-2.19971e-10
-5.40102e-09
-2.21954e-10
-5.27802e-09
-2.23829e-10
-5.15405e-09
-2.25596e-10
-5.02917e-09
-2.27252e-10
-4.90345e-09
-2.28794e-10
-4.77694e-09
-2.30222e-10
-4.64972e-09
-2.31533e-10
-4.52184e-09
-2.32725e-10
-4.39337e-09
-2.33799e-10
-4.26437e-09
-2.34751e-10
-4.13493e-09
-2.3558e-10
-4.00509e-09
-2.36286e-10
-3.87493e-09
-2.36868e-10
-3.74452e-09
-2.37323e-10
-3.61393e-09
-2.37652e-10
-3.48323e-09
-2.37854e-10
-3.35248e-09
-2.37928e-10
-3.22176e-09
-2.37873e-10
-3.09114e-09
-2.37689e-10
-2.96069e-09
-2.37377e-10
-2.83047e-09
-2.36934e-10
-2.70057e-09
-2.36363e-10
-2.57105e-09
-2.35662e-10
-2.44197e-09
-2.34832e-10
-2.31342e-09
-2.33874e-10
-2.18546e-09
-2.32787e-10
-2.05817e-09
-2.31572e-10
-1.9316e-09
-2.3023e-10
-1.80583e-09
-2.28762e-10
-1.68093e-09
-2.27169e-10
-1.55697e-09
-2.25451e-10
-1.43401e-09
-2.2361e-10
-1.31213e-09
-2.21648e-10
-1.19138e-09
-2.19565e-10
-1.07183e-09
-2.17363e-10
-9.53543e-10
-2.15043e-10
-8.36588e-10
-2.12609e-10
-7.21024e-10
-2.1006e-10
-6.06913e-10
-2.074e-10
-4.94314e-10
-2.0463e-10
-3.83286e-10
-2.01752e-10
-2.73887e-10
-1.9877e-10
-1.66174e-10
-1.95684e-10
-6.02007e-11
-1.92497e-10
4.39778e-11
-1.89213e-10
1.4631e-10
-1.85833e-10
2.46744e-10
-1.8236e-10
3.45232e-10
-1.78797e-10
4.41724e-10
-1.75147e-10
5.36176e-10
-1.71412e-10
6.28542e-10
-1.67596e-10
7.18779e-10
-1.63702e-10
8.06846e-10
-1.59732e-10
8.92703e-10
-1.55691e-10
9.76312e-10
-1.5158e-10
1.05764e-09
-1.47403e-10
1.13664e-09
-1.43164e-10
1.2133e-09
-1.38866e-10
1.28757e-09
-1.34512e-10
1.35944e-09
-1.30105e-10
1.42886e-09
-1.25649e-10
1.49583e-09
-1.21148e-10
1.5603e-09
-1.16604e-10
1.62227e-09
-1.12021e-10
1.68171e-09
-1.07403e-10
1.73861e-09
-1.02753e-10
1.79294e-09
-9.80748e-11
1.8447e-09
-9.33714e-11
1.89388e-09
-8.86465e-11
1.94045e-09
-8.39035e-11
1.98442e-09
-7.91459e-11
2.02578e-09
-7.43772e-11
2.06453e-09
-6.96008e-11
2.10065e-09
-6.48201e-11
2.13416e-09
-6.00385e-11
2.16504e-09
-5.52596e-11
2.19332e-09
-5.04865e-11
2.21898e-09
-4.57227e-11
2.24204e-09
-4.09715e-11
2.2625e-09
-3.62362e-11
2.28038e-09
-3.15203e-11
2.29569e-09
-2.68268e-11
2.30843e-09
-2.21591e-11
2.31864e-09
-1.75204e-11
2.32632e-09
-1.2914e-11
2.33149e-09
-8.34306e-12
2.33418e-09
-3.81079e-12
2.33441e-09
6.79558e-13
2.3322e-09
5.12496e-12
2.32757e-09
9.52213e-12
2.32057e-09
1.38679e-11
2.31121e-09
1.81591e-11
2.29953e-09
2.23926e-11
2.28556e-09
2.65651e-11
2.26934e-09
3.06735e-11
2.2509e-09
3.47145e-11
2.23028e-09
3.86848e-11
2.20753e-09
4.25812e-11
2.18268e-09
4.64003e-11
2.15579e-09
5.01387e-11
2.12688e-09
5.37929e-11
2.09603e-09
5.73593e-11
2.06326e-09
6.08345e-11
2.02865e-09
6.42146e-11
1.99223e-09
6.74959e-11
1.95407e-09
7.06744e-11
1.91423e-09
7.3746e-11
1.87277e-09
7.67067e-11
1.82974e-09
7.9552e-11
1.78522e-09
8.22773e-11
1.73928e-09
8.48781e-11
1.69199e-09
8.73493e-11
1.64341e-09
8.96858e-11
1.59363e-09
9.18824e-11
1.54273e-09
9.39333e-11
1.49079e-09
9.58326e-11
1.4379e-09
9.75741e-11
1.38414e-09
9.91513e-11
1.32962e-09
1.00557e-10
1.27442e-09
1.01785e-10
1.21866e-09
1.02827e-10
1.16244e-09
1.03674e-10
1.10586e-09
1.04319e-10
1.04905e-09
1.04753e-10
9.92119e-10
1.04965e-10
9.35201e-10
1.04947e-10
8.78426e-10
1.04688e-10
8.21931e-10
1.04176e-10
7.65858e-10
1.034e-10
7.10358e-10
1.02349e-10
6.55586e-10
1.0101e-10
6.01707e-10
9.93684e-11
5.48889e-10
9.74121e-11
4.9731e-10