/*--------------------------------*- C++ -*----------------------------------*\
  =========                 |
  \\      /  F ield         | OpenFOAM: The Open Source CFD Toolbox
   \\    /   O peration     | Website:  https://openfoam.org
    \\  /    A nd           | Version:  7
     \\/     M anipulation  |
\*---------------------------------------------------------------------------*/
FoamFile
{
    version     2.0;
    format      ascii;
    class       surfaceScalarField;
    location    "50";
    object      phi;
}
// * * * * * * * * * * * * * * * * * * * * * * * * * * * * * * * * * * * * * //

dimensions      [0 3 -1 0 0 0 0];

internalField   nonuniform List<scalar> 
19720
(
6.1639e-05
-6.1639e-05
-3.76715e-11
0.00132912
-0.00126748
2.98318e-11
0.00277867
-0.00144956
-2.18933e-12
0.00459383
-0.00181516
-6.14517e-13
0.00670905
-0.00211521
-7.98033e-12
0.00904661
-0.00233756
1.33942e-12
0.0117041
-0.0026575
-1.52709e-12
0.0146849
-0.00298079
-7.9576e-12
0.0178625
-0.00317764
-5.01609e-12
-0.00369241
-2.28379e-12
0.021555
8.49771e-05
-0.000146616
0.00138949
-0.00257199
0.00288901
-0.00294908
0.00477399
-0.00370014
0.00697287
-0.00431409
0.00941721
-0.00478191
0.0122105
-0.00545084
0.0153279
-0.00609819
0.0187055
-0.0065552
-0.0075788
0.0225919
0.000131685
-0.000278301
0.00150765
-0.00394796
0.003103
-0.00454442
0.00511925
-0.00571639
0.00747172
-0.00666656
0.0101101
-0.00742034
0.0131381
-0.00847881
0.0164921
-0.00945213
0.0202001
-0.0102632
-0.0117711
0.0243924
0.000201073
-0.000479374
0.00167863
-0.00542552
0.0034078
-0.00627359
0.00560125
-0.00790985
0.00815261
-0.00921791
0.0110374
-0.0103051
0.0143382
-0.0117796
0.0179676
-0.0130816
0.0220283
-0.0143239
-0.0162588
0.026516
0.000291691
-0.000771065
0.00189528
-0.00702911
0.00378532
-0.00816363
0.00618154
-0.0103061
0.00894674
-0.0119831
0.0120866
-0.013445
0.0156351
-0.0153281
0.0195126
-0.0169591
0.0238459
-0.0186572
-0.0209301
0.0285171
0.000401558
-0.00117262
0.00214871
-0.00877626
0.0042137
-0.0102286
0.00681584
-0.0129082
0.00977978
-0.0149471
0.0131407
-0.0168059
0.0168654
-0.0190529
0.0209107
-0.0210044
0.0253768
-0.0231232
-0.0256377
0.0300844
0.000528293
-0.00170092
0.00242868
-0.0106767
0.00466904
-0.012469
0.00745902
-0.0156982
0.010582
-0.0180701
0.0140979
-0.0203218
0.0179067
-0.0228617
0.0220152
-0.0251128
0.0264706
-0.0275786
-0.0302641
0.0310969
0.000669179
-0.00237009
0.00272417
-0.0127317
0.00512735
-0.0148721
0.00806988
-0.0186407
0.0112967
-0.0212969
0.014887
-0.0239121
0.0186914
-0.0266661
0.0227653
-0.0291866
0.0271064
-0.0319197
-0.0347501
0.0315924
0.00082123
-0.00319132
0.00302394
-0.0149344
0.00556649
-0.0174147
0.00861511
-0.0216893
0.0118853
-0.0245671
0.0154729
-0.0274997
0.0192041
-0.0303973
0.0231745
-0.033157
0.0273523
-0.0360975
-0.0390831
0.0316854
0.000981254
-0.00417258
0.00331716
-0.0172703
0.00596784
-0.0200654
0.00907174
-0.0247932
0.012329
-0.0278243
0.0158527
-0.0310234
0.0194679
-0.0340125
0.0233004
-0.0369896
0.027309
-0.0401061
-0.0432765
0.0315024
0.00114592
-0.0053185
0.00359405
-0.0197184
0.00631736
-0.0227887
0.00942762
-0.0279035
0.0126261
-0.0310228
0.0160456
-0.0344428
0.0195256
-0.0374925
0.0232128
-0.0406768
0.0270681
-0.0439614
-0.0473492
0.0311407
0.00131183
-0.00663033
0.00384635
-0.0222529
0.00660607
-0.0255484
0.00968028
-0.0309777
0.0127876
-0.0341302
0.0160816
-0.0377368
0.0194239
-0.0408348
0.0229733
-0.0442262
0.0266955
-0.0476836
-0.0513157
0.030662
0.0014756
-0.00810593
0.0040677
-0.024845
0.00682982
-0.0283105
0.00983446
-0.0339823
0.0128311
-0.0371268
0.0159925
-0.0408982
0.0192033
-0.0440457
0.0226272
-0.0476501
0.0262325
-0.0512888
-0.0551848
0.0301016
0.0016339
-0.00973983
0.00425379
-0.0274649
0.00698852
-0.0310452
0.00989946
-0.0368933
0.012776
-0.0400033
0.0158062
-0.0439284
0.0188949
-0.0471344
0.0222045
-0.0509597
0.0257031
-0.0547874
-0.0589601
0.0294784
0.00178356
-0.0115234
0.00440225
-0.0300836
0.00708506
-0.0337281
0.00988656
-0.0396948
0.0126407
-0.0427575
0.015545
-0.0468326
0.0185203
-0.0501098
0.0217239
-0.0541633
0.0251208
-0.0581843
-0.0626419
0.0288026
0.00192163
-0.013445
0.00451242
-0.0326744
0.00712425
-0.0363399
0.0098072
-0.0423777
0.0124408
-0.0453911
0.0152255
-0.0496173
0.0180944
-0.0529787
0.0211969
-0.0572658
0.0244933
-0.0614808
-0.0662281
0.0280796
0.00204546
-0.0154905
0.00458498
-0.0352139
0.00711185
-0.0388668
0.00967196
-0.0449378
0.0121888
-0.047908
0.0148598
-0.0522883
0.0176268
-0.0557457
0.0206302
-0.0602692
0.023825
-0.0646756
-0.0697158
0.0273127
0.00215281
-0.0176433
0.00462159
-0.0376827
0.00705382
-0.041299
0.00948997
-0.047374
0.0118944
-0.0503124
0.0144564
-0.0548503
0.0171241
-0.0584134
0.0200284
-0.0631735
0.0231187
-0.0677659
-0.0731007
0.0265036
0.00224194
-0.0198852
0.00462455
-0.0400653
0.00695589
-0.0436303
0.00926889
-0.049687
0.0115651
-0.0526087
0.0140211
-0.0573063
0.0165907
-0.060983
0.0193943
-0.0659771
0.0223769
-0.0707485
-0.076376
0.0256522
0.00231166
-0.0221969
0.00459654
-0.0423502
0.00682329
-0.0458571
0.00901496
-0.0518787
0.0112065
-0.0548002
0.0135584
-0.0596582
0.0160296
-0.0634542
0.0187298
-0.0686773
0.0216017
-0.0736204
-0.0795408
0.0247665
0.00236142
-0.0245583
0.00454044
-0.0445292
0.0066608
-0.0479774
0.0087334
-0.0539513
0.010823
-0.0568898
0.0130716
-0.0619067
0.0154434
-0.0658261
0.0180368
-0.0712706
0.0208
-0.0763836
-0.0825834
0.0238427
0.00239119
-0.0269495
0.00445895
-0.0465969
0.0064722
-0.0499907
0.00842793
-0.055907
0.0104174
-0.0588793
0.0125624
-0.0640517
0.0148331
-0.0680968
0.0173159
-0.0737535
0.0199704
-0.079038
-0.0854871
0.0228741
0.00240155
-0.0293511
0.00435487
-0.0485503
0.00626106
-0.0518969
0.00810199
-0.0577479
0.00999256
-0.0607699
0.0120331
-0.0660922
0.0142002
-0.0702639
0.0165697
-0.076123
0.0191068
-0.0815752
-0.0882518
0.0218716
0.00239353
-0.0317446
0.00423077
-0.0503875
0.00603035
-0.0536965
0.00775825
-0.0594758
0.00955035
-0.062562
0.011485
-0.0680269
0.0135462
-0.0723251
0.0157988
-0.0783756
0.0182142
-0.0839906
-0.090878
0.0208404
0.00236846
-0.0341131
0.00408904
-0.0521081
0.0057826
-0.05539
0.00739888
-0.0610921
0.00909246
-0.0642556
0.0109195
-0.0698539
0.012872
-0.0742777
0.0150045
-0.0805081
0.0172933
-0.0862793
-0.0933623
0.0197776
0.00232789
-0.0364409
0.00393184
-0.053712
0.00551995
-0.0569781
0.00702569
-0.0625978
0.00862025
-0.0658502
0.0103377
-0.0715713
0.012179
-0.0761189
0.014188
-0.0825171
0.0163461
-0.0884374
-0.0957026
0.0186864
0.00227344
-0.0387144
0.00376109
-0.0551997
0.00524427
-0.0584613
0.00664023
-0.0639938
0.00813493
-0.0673449
0.0097407
-0.0731771
0.0114682
-0.0778464
0.0133506
-0.0843995
0.0153744
-0.0904612
-0.0978955
0.0175673
0.0022067
-0.0409211
0.00357852
-0.0565715
0.00495716
-0.05984
0.0062438
-0.0652804
0.00763757
-0.0687386
0.00912952
-0.0746691
0.0107407
-0.0794576
0.0124934
-0.0861522
0.0143797
-0.0923475
-0.0999382
0.0164223
0.00212917
-0.0430502
0.00338566
-0.057828
0.00466002
-0.0611143
0.00583757
-0.066458
0.00712915
-0.0700302
0.00850517
-0.0760451
0.00999773
-0.0809501
0.0116177
-0.0877722
0.0133637
-0.0940934
-0.101827
0.0152529
0.00204224
-0.0450925
0.00318386
-0.0589696
0.00435408
-0.0622845
0.00542257
-0.0675265
0.00661064
-0.0712183
0.00786866
-0.0773031
0.00924042
-0.0823219
0.010725
-0.0892568
0.0123281
-0.0956965
-0.10356
0.014061
0.00194711
-0.0470396
0.00297432
-0.0599968
0.00404045
-0.0633507
0.00499974
-0.0684858
0.00608293
-0.0723015
0.00722098
-0.0784412
0.00846996
-0.0835709
0.00981662
-0.0906035
0.0112744
-0.0971542
-0.105134
0.0128483
0.00184487
-0.0488845
0.00275811
-0.0609101
0.00372012
-0.0643127
0.00456994
-0.0693356
0.00554693
-0.0732785
0.00656315
-0.0794574
0.00768753
-0.0846953
0.00889392
-0.0918098
0.0102043
-0.0984646
-0.106547
0.0116167
0.00173645
-0.0506209
0.00253617
-0.0617098
0.00339401
-0.0651705
0.00413399
-0.0700756
0.00500353
-0.074148
0.00589617
-0.08035
0.00689437
-0.0856934
0.00795835
-0.0928738
0.00911956
-0.0996259
-0.107795
0.010368
0.00162268
-0.0522436
0.00230938
-0.0623965
0.00306295
-0.0659241
0.00369266
-0.0707053
0.00445362
-0.074909
0.00522108
-0.0811175
0.00609172
-0.0865641
0.00701134
-0.0937934
0.00802178
-0.100636
-0.108878
0.00910426
0.00150428
-0.0537479
0.0020785
-0.0629707
0.00272774
-0.0665733
0.00324667
-0.0712242
0.00389812
-0.0755604
0.00453885
-0.0817582
0.00528086
-0.0873061
0.00605432
-0.0945669
0.00691275
-0.101495
-0.109792
0.00782717
0.00138189
-0.0551298
0.00184423
-0.063433
0.00238914
-0.0671182
0.00279671
-0.0716318
0.00333796
-0.0761017
0.00385048
-0.0822707
0.00446316
-0.0879188
0.00508866
-0.0951924
0.00579428
-0.1022
-0.110536
0.00653865
0.0012561
-0.0563859
0.00160722
-0.0637842
0.00204791
-0.0675589
0.00234339
-0.0719273
0.00277414
-0.0765324
0.0031569
-0.0826535
0.00363997
-0.0884018
0.0041158
-0.0956682
0.00466813
-0.102753
-0.111109
0.00524069
0.00112744
-0.0575133
0.00136803
-0.0640247
0.00170479
-0.0678957
0.00188728
-0.0721098
0.00220772
-0.0768528
0.00245901
-0.0829048
0.00281265
-0.0887555
0.00313723
-0.0959928
0.00353595
-0.103151
-0.111508
0.00393541
0.000996398
-0.0585097
0.00112714
-0.0641555
0.00136057
-0.0681291
0.00142881
-0.072178
0.00163979
-0.0770638
0.00175765
-0.0830226
0.00198266
-0.0889805
0.00215435
-0.0961645
0.00239953
-0.103397
-0.111734
0.00262472
0.000863429
-0.0593731
0.000884941
-0.064177
0.0010161
-0.0682603
0.000968192
-0.0721301
0.00107177
-0.0771674
0.00105305
-0.0830039
0.00115218
-0.0890796
0.00116755
-0.0961799
0.00126192
-0.103491
-0.111781
0.00130909
0.000729008
-0.0601021
0.00064176
-0.0640897
0.000672661
-0.0682912
0.000504729
-0.0719622
0.000506771
-0.0771694
0.000342924
-0.0828401
0.000326998
-0.0890637
0.000172572
-0.0960255
0.000132387
-0.103451
-0.11163
-1.83665e-05
0.00059346
-0.0606956
0.000397116
-0.0638934
0.000332215
-0.0682263
2.57505e-05
-0.0716557
-4.86645e-05
-0.077095
-0.000354731
-0.082534
-0.000512711
-0.0889057
-0.000798705
-0.0957395
-0.00102084
-0.103229
-0.111335
-0.00131557
0.000457242
-0.0611528
0.000148464
-0.0635846
8.48227e-06
-0.0680863
-0.000405354
-0.0712419
-0.000643183
-0.0768572
-0.00103875
-0.0821384
-0.00135717
-0.0885873
-0.00176986
-0.0953268
-0.00216662
-0.102832
-0.110882
-0.00261952
0.00032085
-0.0614737
-9.38183e-05
-0.06317
-0.000362791
-0.0678173
-0.000846787
-0.0707579
-0.00122214
-0.0764818
-0.00172536
-0.0816352
-0.00219369
-0.088119
-0.0027407
-0.0947798
-0.00330479
-0.102268
-0.110266
-0.00392082
0.000184998
-0.0616587
-0.000319758
-0.0626652
-0.00071449
-0.0674226
-0.00128946
-0.0701829
-0.00179441
-0.0759769
-0.00241075
-0.0810189
-0.00302329
-0.0875064
-0.00370824
-0.0940948
-0.00443484
-0.101541
-0.109485
-0.00521633
5.19197e-05
-0.0617106
-0.000549795
-0.0620635
-0.0010602
-0.0669122
-0.00173085
-0.0695123
-0.00236071
-0.075347
-0.00309289
-0.0802867
-0.00384548
-0.0867538
-0.00467033
-0.09327
-0.00555569
-0.100656
-0.108537
-0.00650349
-8.60292e-05
-0.0616246
-0.000779639
-0.0613699
-0.00140119
-0.0662906
-0.00216955
-0.0687439
-0.00292082
-0.0745958
-0.00377026
-0.0794372
-0.00465947
-0.0858646
-0.00562504
-0.0923044
-0.00666606
-0.0996148
-0.107423
-0.00777994
-0.000223935
-0.0614006
-0.00100787
-0.0605859
-0.00173763
-0.0655609
-0.00260447
-0.0678771
-0.0034743
-0.0737259
-0.00444148
-0.0784701
-0.00546435
-0.0848418
-0.00657057
-0.0911982
-0.00776456
-0.0984208
-0.106144
-0.00904348
-0.000358964
-0.0610417
-0.00123368
-0.0597112
-0.00206934
-0.0647252
-0.0030347
-0.0669117
-0.00402056
-0.0727401
-0.00510527
-0.0773854
-0.00625912
-0.0836879
-0.00750523
-0.0899521
-0.00884971
-0.0970763
-0.104702
-0.010292
-0.000492067
-0.0605496
-0.0014565
-0.0587468
-0.00239603
-0.0637857
-0.00345942
-0.0658483
-0.00455894
-0.0716406
-0.00576042
-0.0761839
-0.00704275
-0.0824056
-0.00842737
-0.0885674
-0.00991999
-0.0955837
-0.103098
-0.0115237
-0.000623244
-0.0599264
-0.00167585
-0.0576942
-0.00271734
-0.0627442
-0.00387784
-0.0646878
-0.00508876
-0.0704296
-0.0064058
-0.0748668
-0.00781418
-0.0809972
-0.00933543
-0.0870462
-0.0109739
-0.0939453
-0.101336
-0.0127364
-0.000752338
-0.059174
-0.00189135
-0.0565552
-0.00303288
-0.0616027
-0.00428925
-0.0634314
-0.00560932
-0.0691096
-0.00704029
-0.0734359
-0.00857233
-0.0794652
-0.0102279
-0.0853906
-0.0120098
-0.0921634
-0.0994169
-0.0139284
-0.000879149
-0.0582949
-0.00210259
-0.0553317
-0.00334223
-0.060363
-0.00469293
-0.0620807
-0.0061199
-0.0676826
-0.00766286
-0.0718929
-0.00931611
-0.0778119
-0.0111034
-0.0836033
-0.0130261
-0.0902408
-0.0973454
-0.0150976
-0.00100346
-0.0572914
-0.00230925
-0.054026
-0.00364497
-0.0590273
-0.00508823
-0.0606375
-0.00661978
-0.0661511
-0.00827247
-0.0702402
-0.0100444
-0.07604
-0.0119605
-0.0816872
-0.0140212
-0.0881801
-0.0951244
-0.0162423
-0.00112507
-0.0561663
-0.00251099
-0.05264
-0.00394068
-0.0575976
-0.0054745
-0.0591036
-0.00710823
-0.0645173
-0.00886817
-0.0684803
-0.0107562
-0.0741519
-0.0127979
-0.0796455
-0.0149937
-0.0859843
-0.0927563
-0.0173617
-0.00124376
-0.0549226
-0.0027075
-0.0511763
-0.00422894
-0.0560762
-0.00585112
-0.0574814
-0.00758454
-0.0627839
-0.00944901
-0.0666158
-0.0114503
-0.0721506
-0.0136143
-0.0774815
-0.0159421
-0.0836565
-0.0902439
-0.0184545
-0.00135933
-0.0535632
-0.00289848
-0.0496371
-0.00450933
-0.0544653
-0.00621751
-0.0557733
-0.00804799
-0.0609534
-0.0100141
-0.0646497
-0.0121258
-0.0700389
-0.0144086
-0.0751987
-0.016865
-0.0812001
-0.0875924
-0.0195164
-0.00147159
-0.0520917
-0.00308366
-0.0480251
-0.00478144
-0.0527676
-0.00657307
-0.0539816
-0.00849788
-0.0590286
-0.0105625
-0.0625851
-0.0127816
-0.0678198
-0.0151795
-0.0728009
-0.01776
-0.0786197
-0.0848095
-0.0205429
-0.00158034
-0.0505113
-0.00326276
-0.0463427
-0.00504487
-0.0509855
-0.00691728
-0.0521092
-0.00893354
-0.0570124
-0.0110935
-0.0604251
-0.0134167
-0.0654965
-0.0159259
-0.0702917
-0.0186252
-0.0759204
-0.0818946
-0.0215401
-0.0016854
-0.0488259
-0.00343552
-0.0445925
-0.00529922
-0.0491218
-0.00724958
-0.0501589
-0.00935429
-0.0549077
-0.0116062
-0.0581732
-0.0140302
-0.0630724
-0.0166465
-0.0676755
-0.0194626
-0.0731042
-0.0788583
-0.0224989
-0.00178656
-0.0470394
-0.00360162
-0.0427775
-0.005544
-0.0471794
-0.00756933
-0.0481335
-0.00975927
-0.0527177
-0.0120995
-0.055833
-0.0146208
-0.0605512
-0.0173396
-0.0649566
-0.0202599
-0.0701839
-0.0756679
-0.0234503
-0.00188374
-0.0451556
-0.00376099
-0.0409002
-0.00577908
-0.0451613
-0.00787635
-0.0460363
-0.0101483
-0.0504458
-0.0125733
-0.053408
-0.015188
-0.0579365
-0.0180053
-0.0621393
-0.0210352
-0.067154
-0.0723765
-0.0243267
-0.00197673
-0.0431789
-0.0039133
-0.0389636
-0.00600398
-0.0430706
-0.00817002
-0.0438702
-0.0105205
-0.0480953
-0.0130266
-0.050902
-0.0157309
-0.0552322
-0.0186427
-0.0592274
-0.021778
-0.0640187
-0.0689788
-0.0251757
-0.00206539
-0.0411135
-0.00405836
-0.0369707
-0.00621835
-0.0409106
-0.00844989
-0.0416387
-0.0108754
-0.0456698
-0.0134586
-0.0483188
-0.0162483
-0.0524424
-0.0192503
-0.0562254
-0.0224855
-0.0607836
-0.0654784
-0.0259859
-0.00214958
-0.0389639
-0.00419596
-0.0349243
-0.00642188
-0.0386847
-0.00871554
-0.039345
-0.0112124
-0.0431729
-0.0138687
-0.0456624
-0.0167397
-0.0495715
-0.0198273
-0.0531378
-0.023157
-0.0574539
-0.0618797
-0.0267557
-0.00222915
-0.0367348
-0.0043259
-0.0328275
-0.00661424
-0.0363963
-0.00896656
-0.0369927
-0.0115309
-0.0406086
-0.0142563
-0.042937
-0.0172042
-0.0466236
-0.0203727
-0.0499692
-0.0237916
-0.054035
-0.0581878
-0.0274835
-0.002304
-0.0344308
-0.00444801
-0.0306835
-0.00679515
-0.0340492
-0.00920259
-0.0345853
-0.0118305
-0.0379807
-0.0146208
-0.0401467
-0.017641
-0.0436034
-0.0208857
-0.0467245
-0.0243883
-0.0505324
-0.0544079
-0.0281681
-0.00237399
-0.0320568
-0.00456212
-0.0284954
-0.00696433
-0.031647
-0.00942326
-0.0321263
-0.0121107
-0.0352933
-0.0149616
-0.0372957
-0.0180495
-0.0405155
-0.0213653
-0.0434087
-0.0249462
-0.0469516
-0.0505458
-0.0288083
-0.00243902
-0.0296178
-0.00466807
-0.0262663
-0.00712152
-0.0291936
-0.00962826
-0.0296196
-0.012371
-0.0325506
-0.0152783
-0.0343884
-0.0184291
-0.0373646
-0.021811
-0.0400269
-0.0254644
-0.0432982
-0.0466071
-0.0294031
-0.00249898
-0.0271188
-0.00476571
-0.0239996
-0.00726647
-0.0266928
-0.00981726
-0.0270688
-0.0126111
-0.0297568
-0.0155702
-0.0314293
-0.0187792
-0.0341557
-0.0222219
-0.0365842
-0.0259423
-0.0395778
-0.0425978
-0.0299515
-0.00255379
-0.024565
-0.0048549
-0.0216985
-0.00739896
-0.0241487
-0.00998999
-0.0244778
-0.0128306
-0.0269162
-0.0158371
-0.0284228
-0.0190992
-0.0308936
-0.0225975
-0.0330859
-0.026379
-0.0357963
-0.0385241
-0.0304528
-0.00260337
-0.0219616
-0.00493553
-0.0193663
-0.0075188
-0.0215655
-0.0101462
-0.0218504
-0.0130291
-0.0240333
-0.0160784
-0.0253735
-0.0193886
-0.0275834
-0.0229372
-0.0295373
-0.026774
-0.0319595
-0.034392
-0.030906
-0.00264763
-0.019314
-0.00500749
-0.0170065
-0.00762579
-0.0189472
-0.0102856
-0.0191906
-0.0132063
-0.0211126
-0.0162939
-0.0222859
-0.019647
-0.0242302
-0.0232404
-0.0259439
-0.0271266
-0.0280733
-0.0302079
-0.0313107
-0.0026865
-0.0166275
-0.00507066
-0.0146223
-0.00771977
-0.0162981
-0.0104081
-0.0165022
-0.013362
-0.0181587
-0.0164831
-0.0191649
-0.019874
-0.0208393
-0.0235068
-0.0223111
-0.0274362
-0.0241439
-0.025978
-0.0316661
-0.00271993
-0.0139076
-0.00512498
-0.0122173
-0.00780059
-0.0136225
-0.0105134
-0.0137894
-0.0134959
-0.0151761
-0.0166458
-0.0160149
-0.0200692
-0.017416
-0.0237358
-0.0186445
-0.0277026
-0.0201771
-0.0217087
-0.0319718
-0.00274787
-0.0111597
-0.00517035
-0.0097948
-0.00786813
-0.0109247
-0.0106014
-0.0110561
-0.0136078
-0.0121697
-0.0167818
-0.0128409
-0.0202323
-0.0139655
-0.0239272
-0.0149496
-0.0279251
-0.0161792
-0.0174066
-0.0322272
-0.00277028
-0.00838941
-0.00520673
-0.00735834
-0.00792229
-0.00820912
-0.010672
-0.00830649
-0.0136976
-0.00914411
-0.0168909
-0.00964763
-0.0203631
-0.0104932
-0.0240807
-0.0112321
-0.0281036
-0.0121563
-0.0130781
-0.0324321
-0.00278711
-0.00560231
-0.00523405
-0.0049114
-0.00796299
-0.00548018
-0.010725
-0.00554451
-0.013765
-0.00610409
-0.0169728
-0.00643982
-0.0204614
-0.00700456
-0.024196
-0.00749753
-0.0282376
-0.00811464
-0.00872977
-0.032586
-0.00279834
-0.00280396
-0.00525229
-0.00245745
-0.00799015
-0.00274232
-0.0107603
-0.00277431
-0.01381
-0.00305445
-0.0170275
-0.00322233
-0.020527
-0.00350501
-0.0242729
-0.00375161
-0.0283271
-0.00406045
-0.00436819
-0.0326887
-0.00280396
-1.29326e-11
-0.00526141
-2.11121e-11
-0.00800374
-2.47337e-11
-0.010778
2.13832e-12
-0.0138325
-1.61775e-11
-0.0170548
1.32551e-12
-0.0205598
-1.63352e-11
-0.0243115
-3.00807e-12
-0.0283719
-1.54616e-11
-3.92154e-12
-0.0327401
-0.00280396
0.00280396
-0.00526141
0.00245745
-0.00800374
0.00274232
-0.010778
0.00277431
-0.0138325
0.00305445
-0.0170548
0.00322233
-0.0205598
0.00350501
-0.0243115
0.00375161
-0.0283719
0.00406045
0.00436819
-0.0327401
-0.00279834
0.00560231
-0.00525229
0.0049114
-0.00799015
0.00548018
-0.0107603
0.00554451
-0.01381
0.00610409
-0.0170275
0.00643982
-0.020527
0.00700456
-0.0242729
0.00749753
-0.0283271
0.00811464
0.00872977
-0.0326887
-0.00278711
0.00838941
-0.00523405
0.00735834
-0.00796299
0.00820912
-0.010725
0.00830649
-0.013765
0.00914411
-0.0169728
0.00964763
-0.0204614
0.0104932
-0.024196
0.0112321
-0.0282376
0.0121563
0.0130781
-0.032586
-0.00277028
0.0111597
-0.00520673
0.0097948
-0.00792229
0.0109247
-0.010672
0.0110561
-0.0136976
0.0121697
-0.0168909
0.0128409
-0.0203631
0.0139655
-0.0240807
0.0149496
-0.0281036
0.0161792
0.0174066
-0.0324321
-0.00274787
0.0139076
-0.00517035
0.0122173
-0.00786813
0.0136225
-0.0106014
0.0137894
-0.0136078
0.0151761
-0.0167818
0.0160149
-0.0202323
0.017416
-0.0239272
0.0186445
-0.0279251
0.0201771
0.0217087
-0.0322272
-0.00271993
0.0166275
-0.00512498
0.0146223
-0.00780059
0.0162981
-0.0105134
0.0165022
-0.0134959
0.0181587
-0.0166458
0.0191649
-0.0200692
0.0208393
-0.0237358
0.0223111
-0.0277026
0.0241439
0.025978
-0.0319718
-0.0026865
0.019314
-0.00507066
0.0170065
-0.00771977
0.0189472
-0.0104081
0.0191906
-0.013362
0.0211126
-0.0164831
0.0222859
-0.019874
0.0242302
-0.0235068
0.0259439
-0.0274362
0.0280733
0.0302079
-0.0316661
-0.00264763
0.0219616
-0.00500749
0.0193663
-0.00762579
0.0215655
-0.0102856
0.0218504
-0.0132063
0.0240333
-0.0162939
0.0253735
-0.019647
0.0275834
-0.0232404
0.0295373
-0.0271266
0.0319595
0.034392
-0.0313107
-0.00260337
0.024565
-0.00493553
0.0216985
-0.0075188
0.0241487
-0.0101462
0.0244778
-0.0130291
0.0269162
-0.0160784
0.0284228
-0.0193886
0.0308936
-0.0229372
0.0330859
-0.026774
0.0357963
0.0385241
-0.030906
-0.00255379
0.0271188
-0.0048549
0.0239996
-0.00739896
0.0266928
-0.00998999
0.0270688
-0.0128306
0.0297568
-0.0158371
0.0314293
-0.0190992
0.0341557
-0.0225975
0.0365842
-0.026379
0.0395778
0.0425978
-0.0304528
-0.00249898
0.0296178
-0.00476571
0.0262663
-0.00726647
0.0291936
-0.00981726
0.0296196
-0.0126111
0.0325506
-0.0155702
0.0343884
-0.0187792
0.0373646
-0.0222219
0.0400269
-0.0259423
0.0432982
0.0466071
-0.0299515
-0.00243902
0.0320568
-0.00466807
0.0284954
-0.00712152
0.031647
-0.00962826
0.0321263
-0.012371
0.0352933
-0.0152783
0.0372957
-0.0184291
0.0405155
-0.021811
0.0434087
-0.0254644
0.0469516
0.0505458
-0.0294031
-0.00237399
0.0344308
-0.00456212
0.0306835
-0.00696433
0.0340492
-0.00942326
0.0345853
-0.0121107
0.0379807
-0.0149616
0.0401467
-0.0180495
0.0436034
-0.0213653
0.0467245
-0.0249462
0.0505324
0.0544079
-0.0288083
-0.002304
0.0367348
-0.00444801
0.0328275
-0.00679515
0.0363963
-0.00920259
0.0369927
-0.0118305
0.0406086
-0.0146208
0.042937
-0.017641
0.0466236
-0.0208857
0.0499692
-0.0243883
0.054035
0.0581878
-0.0281681
-0.00222915
0.0389639
-0.0043259
0.0349243
-0.00661424
0.0386847
-0.00896656
0.039345
-0.0115309
0.0431729
-0.0142563
0.0456624
-0.0172042
0.0495715
-0.0203727
0.0531378
-0.0237916
0.0574539
0.0618797
-0.0274835
-0.00214958
0.0411135
-0.00419596
0.0369707
-0.00642188
0.0409106
-0.00871554
0.0416387
-0.0112124
0.0456698
-0.0138687
0.0483188
-0.0167397
0.0524424
-0.0198273
0.0562254
-0.023157
0.0607836
0.0654784
-0.0267557
-0.00206539
0.0431789
-0.00405836
0.0389636
-0.00621835
0.0430706
-0.00844989
0.0438702
-0.0108754
0.0480953
-0.0134586
0.050902
-0.0162483
0.0552322
-0.0192503
0.0592274
-0.0224855
0.0640187
0.0689788
-0.0259859
-0.00197673
0.0451556
-0.0039133
0.0409002
-0.00600398
0.0451613
-0.00817002
0.0460363
-0.0105205
0.0504458
-0.0130266
0.053408
-0.0157309
0.0579365
-0.0186427
0.0621393
-0.021778
0.067154
0.0723765
-0.0251757
-0.00188374
0.0470394
-0.00376099
0.0427775
-0.00577908
0.0471794
-0.00787635
0.0481335
-0.0101483
0.0527177
-0.0125733
0.055833
-0.015188
0.0605512
-0.0180053
0.0649566
-0.0210352
0.0701839
0.0756679
-0.0243267
-0.00178656
0.0488259
-0.00360162
0.0445925
-0.005544
0.0491218
-0.00756933
0.0501589
-0.00975927
0.0549077
-0.0120995
0.0581732
-0.0146208
0.0630724
-0.0173396
0.0676755
-0.0202599
0.0731042
0.0788583
-0.0234503
-0.0016854
0.0505113
-0.00343552
0.0463427
-0.00529922
0.0509855
-0.00724958
0.0521092
-0.00935429
0.0570124
-0.0116062
0.0604251
-0.0140302
0.0654965
-0.0166465
0.0702917
-0.0194626
0.0759204
0.0818946
-0.0224989
-0.00158034
0.0520917
-0.00326276
0.0480251
-0.00504487
0.0527676
-0.00691728
0.0539816
-0.00893354
0.0590286
-0.0110935
0.0625851
-0.0134167
0.0678198
-0.0159259
0.0728009
-0.0186252
0.0786197
0.0848095
-0.0215401
-0.00147159
0.0535632
-0.00308366
0.0496371
-0.00478144
0.0544653
-0.00657307
0.0557733
-0.00849788
0.0609534
-0.0105625
0.0646497
-0.0127816
0.0700389
-0.0151795
0.0751987
-0.01776
0.0812001
0.0875924
-0.0205429
-0.00135933
0.0549226
-0.00289848
0.0511763
-0.00450933
0.0560762
-0.00621751
0.0574814
-0.00804799
0.0627839
-0.0100141
0.0666158
-0.0121258
0.0721506
-0.0144086
0.0774815
-0.016865
0.0836565
0.0902439
-0.0195164
-0.00124376
0.0561663
-0.0027075
0.05264
-0.00422894
0.0575976
-0.00585112
0.0591036
-0.00758454
0.0645173
-0.00944901
0.0684803
-0.0114503
0.0741519
-0.0136143
0.0796455
-0.0159421
0.0859843
0.0927563
-0.0184545
-0.00112507
0.0572914
-0.00251099
0.054026
-0.00394068
0.0590273
-0.0054745
0.0606375
-0.00710823
0.0661511
-0.00886817
0.0702402
-0.0107562
0.07604
-0.0127979
0.0816872
-0.0149937
0.0881801
0.0951244
-0.0173617
-0.00100346
0.0582949
-0.00230925
0.0553317
-0.00364497
0.060363
-0.00508823
0.0620807
-0.00661978
0.0676826
-0.00827247
0.0718929
-0.0100444
0.0778119
-0.0119605
0.0836033
-0.0140212
0.0902408
0.0973454
-0.0162423
-0.000879149
0.059174
-0.00210259
0.0565552
-0.00334223
0.0616027
-0.00469293
0.0634314
-0.0061199
0.0691096
-0.00766286
0.0734359
-0.00931611
0.0794652
-0.0111034
0.0853906
-0.0130261
0.0921634
0.0994169
-0.0150976
-0.000752338
0.0599264
-0.00189135
0.0576942
-0.00303288
0.0627442
-0.00428925
0.0646878
-0.00560932
0.0704296
-0.00704029
0.0748668
-0.00857233
0.0809972
-0.0102279
0.0870462
-0.0120098
0.0939453
0.101336
-0.0139284
-0.000623244
0.0605496
-0.00167585
0.0587468
-0.00271734
0.0637857
-0.00387784
0.0658483
-0.00508876
0.0716406
-0.0064058
0.0761839
-0.00781418
0.0824056
-0.00933543
0.0885674
-0.0109739
0.0955837
0.103098
-0.0127364
-0.000492067
0.0610417
-0.0014565
0.0597112
-0.00239603
0.0647252
-0.00345942
0.0669117
-0.00455894
0.0727401
-0.00576042
0.0773854
-0.00704275
0.0836879
-0.00842737
0.0899521
-0.00991999
0.0970763
0.104702
-0.0115237
-0.000358964
0.0614006
-0.00123368
0.0605859
-0.00206934
0.0655609
-0.0030347
0.0678771
-0.00402056
0.0737259
-0.00510527
0.0784701
-0.00625912
0.0848418
-0.00750523
0.0911982
-0.00884971
0.0984208
0.106144
-0.010292
-0.000223935
0.0616246
-0.00100787
0.0613699
-0.00173763
0.0662906
-0.00260447
0.0687439
-0.0034743
0.0745958
-0.00444148
0.0794372
-0.00546435
0.0858646
-0.00657057
0.0923044
-0.00776456
0.0996148
0.107423
-0.00904348
-8.60292e-05
0.0617106
-0.000779639
0.0620635
-0.00140119
0.0669122
-0.00216955
0.0695123
-0.00292082
0.075347
-0.00377026
0.0802867
-0.00465947
0.0867538
-0.00562504
0.09327
-0.00666606
0.100656
0.108537
-0.00777994
5.19197e-05
0.0616587
-0.000549795
0.0626652
-0.0010602
0.0674226
-0.00173085
0.0701829
-0.00236071
0.0759769
-0.00309289
0.0810189
-0.00384548
0.0875064
-0.00467033
0.0940948
-0.00555569
0.101541
0.109485
-0.00650349
0.000184998
0.0614737
-0.000319758
0.06317
-0.00071449
0.0678173
-0.00128946
0.0707579
-0.00179441
0.0764818
-0.00241075
0.0816352
-0.00302329
0.088119
-0.00370824
0.0947798
-0.00443484
0.102268
0.110266
-0.00521633
0.00032085
0.0611528
-9.38183e-05
0.0635846
-0.000362791
0.0680863
-0.000846787
0.0712419
-0.00122214
0.0768572
-0.00172536
0.0821384
-0.00219369
0.0885873
-0.0027407
0.0953268
-0.00330479
0.102832
0.110882
-0.00392082
0.000457242
0.0606956
0.000148464
0.0638934
8.48227e-06
0.0682263
-0.000405354
0.0716557
-0.000643183
0.077095
-0.00103875
0.082534
-0.00135717
0.0889057
-0.00176986
0.0957395
-0.00216662
0.103229
0.111335
-0.00261952
0.00059346
0.0601021
0.000397116
0.0640897
0.000332215
0.0682912
2.57505e-05
0.0719622
-4.86645e-05
0.0771694
-0.000354731
0.0828401
-0.000512711
0.0890637
-0.000798705
0.0960255
-0.00102084
0.103451
0.11163
-0.00131557
0.000729008
0.0593731
0.00064176
0.064177
0.000672661
0.0682603
0.000504729
0.0721301
0.000506771
0.0771674
0.000342924
0.0830039
0.000326998
0.0890796
0.000172572
0.0961799
0.000132387
0.103491
0.111781
-1.83665e-05
0.000863429
0.0585097
0.000884941
0.0641555
0.0010161
0.0681291
0.000968192
0.072178
0.00107177
0.0770638
0.00105305
0.0830226
0.00115218
0.0889805
0.00116755
0.0961645
0.00126192
0.103397
0.111734
0.00130909
0.000996398
0.0575133
0.00112714
0.0640247
0.00136057
0.0678957
0.00142881
0.0721098
0.00163979
0.0768528
0.00175765
0.0829048
0.00198266
0.0887555
0.00215435
0.0959928
0.00239953
0.103151
0.111508
0.00262472
0.00112744
0.0563859
0.00136803
0.0637842
0.00170479
0.0675589
0.00188728
0.0719273
0.00220772
0.0765324
0.00245901
0.0826535
0.00281265
0.0884018
0.00313723
0.0956682
0.00353595
0.102753
0.111109
0.00393541
0.0012561
0.0551298
0.00160722
0.063433
0.00204791
0.0671182
0.00234339
0.0716318
0.00277414
0.0761017
0.0031569
0.0822707
0.00363997
0.0879188
0.0041158
0.0951924
0.00466813
0.1022
0.110536
0.00524069
0.00138189
0.0537479
0.00184423
0.0629707
0.00238914
0.0665733
0.00279671
0.0712242
0.00333796
0.0755604
0.00385048
0.0817582
0.00446316
0.0873061
0.00508866
0.0945669
0.00579428
0.101495
0.109792
0.00653865
0.00150428
0.0522436
0.0020785
0.0623965
0.00272774
0.0659241
0.00324667
0.0707053
0.00389812
0.074909
0.00453885
0.0811175
0.00528086
0.0865641
0.00605432
0.0937934
0.00691275
0.100636
0.108878
0.00782717
0.00162268
0.0506209
0.00230938
0.0617098
0.00306295
0.0651705
0.00369266
0.0700756
0.00445362
0.074148
0.00522108
0.08035
0.00609172
0.0856934
0.00701134
0.0928738
0.00802178
0.0996259
0.107795
0.00910426
0.00173645
0.0488845
0.00253617
0.0609101
0.00339401
0.0643127
0.00413399
0.0693356
0.00500353
0.0732785
0.00589617
0.0794574
0.00689437
0.0846953
0.00795835
0.0918098
0.00911956
0.0984646
0.106547
0.010368
0.00184487
0.0470396
0.00275811
0.0599968
0.00372012
0.0633507
0.00456994
0.0684858
0.00554693
0.0723015
0.00656315
0.0784412
0.00768753
0.0835709
0.00889392
0.0906035
0.0102043
0.0971542
0.105134
0.0116167
0.00194711
0.0450925
0.00297432
0.0589696
0.00404045
0.0622845
0.00499974
0.0675265
0.00608293
0.0712183
0.00722098
0.0773031
0.00846996
0.0823219
0.00981662
0.0892568
0.0112744
0.0956965
0.10356
0.0128483
0.00204224
0.0430502
0.00318386
0.057828
0.00435408
0.0611143
0.00542257
0.066458
0.00661064
0.0700302
0.00786866
0.0760451
0.00924042
0.0809501
0.010725
0.0877722
0.0123281
0.0940934
0.101827
0.014061
0.00212917
0.0409211
0.00338566
0.0565715
0.00466002
0.05984
0.00583757
0.0652804
0.00712915
0.0687386
0.00850517
0.0746691
0.00999773
0.0794576
0.0116177
0.0861522
0.0133637
0.0923475
0.0999382
0.0152529
0.0022067
0.0387144
0.00357852
0.0551997
0.00495716
0.0584613
0.0062438
0.0639938
0.00763757
0.0673449
0.00912952
0.0731771
0.0107407
0.0778464
0.0124934
0.0843995
0.0143797
0.0904612
0.0978955
0.0164223
0.00227344
0.0364409
0.00376109
0.053712
0.00524427
0.0569781
0.00664023
0.0625978
0.00813493
0.0658502
0.0097407
0.0715713
0.0114682
0.0761189
0.0133506
0.0825171
0.0153744
0.0884374
0.0957026
0.0175673
0.00232789
0.0341131
0.00393184
0.0521081
0.00551995
0.05539
0.00702569
0.0610921
0.00862025
0.0642556
0.0103377