/*--------------------------------*- C++ -*----------------------------------*\
  =========                 |
  \\      /  F ield         | OpenFOAM: The Open Source CFD Toolbox
   \\    /   O peration     | Website:  https://openfoam.org
    \\  /    A nd           | Version:  7
     \\/     M anipulation  |
\*---------------------------------------------------------------------------*/
FoamFile
{
    version     2.0;
    format      ascii;
    class       surfaceScalarField;
    location    "126";
    object      phi;
}
// * * * * * * * * * * * * * * * * * * * * * * * * * * * * * * * * * * * * * //

dimensions      [0 3 -1 0 0 0 0];

internalField   nonuniform List<scalar> 
82640
(
-7.70689e-05
0.00484279
-0.00476572
-0.000154189
0.0046211
-0.00454398
-0.000174626
0.00269462
-0.00267419
-7.70246e-05
-0.00136546
0.00126786
8.68872e-05
-0.0056384
0.00547449
0.00023464
-0.00891106
0.00876331
0.000290675
-0.0109383
0.0108822
0.00026127
-0.0119987
0.0120281
0.000388458
-0.0116297
0.0115025
0.000907603
-0.00848122
0.00796208
0.00168576
-0.00302601
0.00224784
0.00250997
0.00251253
-0.00333674
0.00321354
0.00690532
-0.00760888
0.00374328
0.00982819
-0.0103579
0.00413646
0.0113042
-0.0116974
0.00428702
0.0121184
-0.012269
0.00416701
0.0130204
-0.0129004
0.00412582
0.0130287
-0.0129876
0.00462445
0.00932246
-0.00982108
0.0055198
0.00278513
-0.00368048
0.00647662
-0.00388392
0.0029271
0.00736151
-0.00890018
0.0080153
0.00804747
-0.0113883
0.0107023
0.00831029
-0.0123012
0.0120384
-0.0134665
0.013542
0.00823478
-6.62139e-05
0.004909
-0.000131191
0.00468607
-0.000138955
0.00270239
-3.03276e-05
-0.00147408
0.000140268
-0.005809
0.00029135
-0.00906214
0.000348111
-0.010995
0.000298417
-0.011949
0.000359267
-0.0116905
0.000805082
-0.00892704
0.00154869
-0.00376961
0.00236948
0.00169173
0.00309176
0.00618304
0.00366214
0.00925781
0.00409078
0.0108755
0.00424609
0.0119631
0.00414609
0.0131204
0.00418109
0.0129937
0.00478271
0.00872083
0.00573432
0.00183352
0.00668921
-0.0048388
0.00751022
-0.00972119
0.00813268
-0.0120107
0.0083881
-0.0125567
-0.0133989
0.00832045
-5.50738e-05
0.00496408
-0.000107348
0.00473835
-0.00010162
0.00269666
1.91246e-05
-0.00159483
0.000197463
-0.00598734
0.000352827
-0.00921751
0.000413379
-0.0110556
0.000352636
-0.0118882
0.000354708
-0.0116926
0.000723954
-0.00929628
0.00142782
-0.00447347
0.00223927
0.000880272
0.00297862
0.0054437
0.00359085
0.00864558
0.00405091
0.0104155
0.00421261
0.0118014
0.00414372
0.0131893
0.00426432
0.0128731
0.00496407
0.00802108
0.00596743
0.000830157
0.00692667
-0.00579804
0.00767965
-0.0104742
0.00822987
-0.0125609
0.00848639
-0.0128132
-0.0133417
0.0084292
-4.37071e-05
0.00500778
-8.27993e-05
0.00477744
-6.27772e-05
0.00267664
7.09534e-05
-0.00172856
0.000258175
-0.00617456
0.000418559
-0.00937789
0.000485084
-0.0111221
0.000421808
-0.011825
0.000374518
-0.0116453
0.000665169
-0.00958694
0.00132302
-0.00513133
0.00212023
8.30649e-05
0.00287622
0.00468771
0.00353015
0.00799165
0.00401685
0.00992878
0.00418809
0.0116302
0.00416153
0.0132158
0.00437822
0.0126565
0.00517334
0.00722595
0.00621905
-0.000215545
0.0071831
-0.00676209
0.00786611
-0.0111572
0.00833472
-0.0130295
0.00859974
-0.0130782
-0.0132963
0.00855438
-3.21731e-05
0.00503996
-5.77081e-05
0.00480297
-2.259e-05
0.00264152
0.000125252
-0.0018764
0.000322124
-0.00637143
0.00048808
-0.00954385
0.000561927
-0.0111959
0.000503451
-0.0117665
0.000417981
-0.0115598
0.000629985
-0.00979894
0.00123471
-0.00573605
0.00201404
-0.000696267
0.00278673
0.00391502
0.00348015
0.00729822
0.00398849
0.00942044
0.00417363
0.011445
0.00420103
0.0131884
0.00452781
0.0123297
0.0054182
0.00633557
0.00649443
-0.00129178
0.00745197
-0.00771963
0.00806496
-0.0117702
0.00844472
-0.0134093
0.00872043
-0.0133539
-0.0132657
0.00868977
-2.05296e-05
0.00506049
-3.22977e-05
0.00481474
1.87779e-05
0.00259044
0.00018178
-0.0020394
0.000389012
-0.00657866
0.000560938
-0.00971577
0.000642749
-0.0112778
0.000594891
-0.0117186
0.000483806
-0.0114487
0.000619836
-0.00993497
0.00116407
-0.00628028
0.00192305
-0.00145525
0.00271188
0.0031262
0.00344025
0.00656984
0.00396567
0.00889503
0.00416968
0.011241
0.00426319
0.0130949
0.00471694
0.0118759
0.00570414
0.00534836
0.00679702
-0.00238465
0.00772655
-0.00864916
0.00827033
-0.012314
0.00855973
-0.0136987
0.00883933
-0.0136335
-0.0132546
0.0088283
-8.79943e-06
0.00506929
-7.22208e-06
0.00481317
6.1237e-05
0.00252198
0.000240346
-0.00221851
0.000458503
-0.00679682
0.000636666
-0.00989394
0.00072655
-0.0113676
0.000693432
-0.0116855
0.000569945
-0.0113252
0.000635953
-0.010001
0.00111303
-0.00675736
0.00184931
-0.00219153
0.00265242
0.00232308
0.00340912
0.00581314
0.00394793
0.00835622
0.00417589
0.0110131
0.00434826
0.0129225
0.00494523
0.011279
0.0060277
0.00426589
0.0071254
-0.00348235
0.00800022
-0.00952398
0.00847508
-0.0127888
0.00868086
-0.0139045
0.00894787
-0.0139005
-0.0132682
0.00896145
3.06784e-06
0.00506622
1.92887e-05
0.00479694
0.000104549
0.00243672
0.000300736
-0.0024147
0.000530224
-0.00702631
0.000714765
-0.0100785
0.000812484
-0.0114654
0.000796516
-0.0116696
0.000673478
-0.0112022
0.000678945
-0.0100064
0.00108345
-0.00716187
0.00179371
-0.00290178
0.00260751
0.00150929
0.00338467
0.00503598
0.00393432
0.00780657
0.00419137
0.010756
0.00445594
0.012658
0.00520833
0.0105266
0.00637898
0.00309524
0.00747129
-0.00457467
0.0082665
-0.0103192
0.00867146
-0.0131938
0.00880824
-0.0140413
0.0090402
-0.0141325
-0.0133085
0.00908049
1.42143e-05
0.005052
4.58757e-05
0.00476528
0.000148562
0.00233404
0.000362721
-0.00262886
0.000603764
-0.00726735
0.000794684
-0.0102694
0.000899835
-0.0115705
0.00090185
-0.0116716
0.000790658
-0.011091
0.000748501
-0.00996429
0.00107693
-0.0074903
0.00175531
-0.00358016
0.00257449
0.000690112
0.00336416
0.0042463
0.00392321
0.00724751
0.004215
0.0104642
0.0045864
0.0122866
0.00550185
0.00961114
0.00674705
0.00185004
0.0078218
-0.00564941
0.00851914
-0.0110165
0.00885243
-0.0135271
0.00893892
-0.0141278
0.00911438
-0.0143079
-0.0133726
0.00917845
2.53786e-05
0.00502663
7.20044e-05
0.00471866
0.000193108
0.00221293
0.000426048
-0.0028618
0.000678678
-0.00751998
0.000875828
-0.0104665
0.000987963
-0.0116826
0.00100752
-0.0116911
0.000917158
-0.0110007
0.000843175
-0.0098903
0.00109475
-0.00774188
0.00173173
-0.00421714
0.0025493
-0.000127459
0.00334434
0.00345126
0.00391223
0.00667962
0.00424553
0.0101309
0.00474107
0.011791
0.00582271
0.0085295
0.00712384
0.000548909
0.00816265
-0.00668823
0.00875246
-0.0116063
0.00901269
-0.0137873
0.00906619
-0.0141813
0.00917201
-0.0144137
-0.0134529
0.00925231
3.62734e-05
0.00499035
9.7741e-05
0.00465719
0.000238033
0.00207264
0.000490448
-0.00311421
0.000754499
-0.00778403
0.000957568
-0.0106696
0.00107625
-0.0118013
0.00111202
-0.0117269
0.00104848
-0.0109371
0.000960184
-0.00980201
0.00113804
-0.00791973
0.0017206
-0.0047997
0.00252736
-0.00093422
0.00332171
0.00265692
0.00389823
0.0061031
0.00428179
0.00974735
0.00492207
0.0111508
0.00616743
0.00728414
0.00750217
-0.000785831
0.00848027
-0.00766633
0.00896133
-0.0120874
0.00914861
-0.0139746
0.00918108
-0.0142137
0.00921728
-0.0144499
-0.0135386
0.00930305
4.67861e-05
0.00494357
0.000122985
0.00458099
0.000283192
0.00191244
0.000555639
-0.00338666
0.000830738
-0.00805913
0.00103926
-0.0108781
0.00116407
-0.0119261
0.00121431
-0.0117771
0.0011804
-0.0109032
0.00109525
-0.00971686
0.00120767
-0.00803214
0.00172133
-0.00531336
0.00250479
-0.00171768
0.00329272
0.00186899
0.00387747
0.00551836
0.00432323
0.00930159
0.00513119
0.0103428
0.00653047
0.00588485
0.00787113
-0.00212648
0.00876269
-0.00855789
0.00914062
-0.0124653
0.00925759
-0.0140916
0.00927486
-0.014231
0.00925544
-0.0144305
-0.0136187
0.00933551
5.6818e-05
0.00488675
0.000147617
0.00449019
0.000328453
0.0017316
0.000621326
-0.00367953
0.000906899
-0.0083447
0.00112027
-0.0110915
0.00125074
-0.0120566
0.00131368
-0.0118401
0.00130938
-0.0108989
0.00124272
-0.0096502
0.00130377
-0.0080932
0.00173608
-0.00574567
0.00247955
-0.00246116
0.00325388
0.00109466
0.00384601
0.00492623
0.00437129
0.00877631
0.00536942
0.00934466
0.0069019
0.00435237
0.00821697
-0.00344155
0.00900039
-0.00934131
0.0092847
-0.0127497
0.00933773
-0.0141446
0.00934164
-0.0142349
0.00929062
-0.0143795
-0.0136852
0.0093571
6.62708e-05
0.00482048
0.000171522
0.00438494
0.000373706
0.00152942
0.000687204
-0.00399303
0.000982481
-0.00863998
0.00119999
-0.011309
0.00133557
-0.0121922
0.00140969
-0.0119142
0.00143281
-0.010922
0.00139602
-0.0096134
0.00142487
-0.00812206
0.00176949
-0.00609029
0.00245229
-0.00314396
0.00320198
0.000344973
0.00380105
0.00432717
0.00443108
0.00814628
0.0056371
0.00813863
0.00726955
0.00271992
0.00852415
-0.00469615
0.00918663
-0.0100038
0.00938788
-0.0129509
0.0093883
-0.014145
0.00938038
-0.014227
0.00932382
-0.0143229
-0.0137371
0.00937574
7.5045e-05
0.00474543
0.000194603
0.00426538
0.000418864
0.00130516
0.000752961
-0.00432713
0.00105699
-0.00894401
0.00127782
-0.0115299
0.0014179
-0.0123323
0.00150198
-0.0119983
0.00154911
-0.0109692
0.00154858
-0.00961286
0.0015671
-0.00814058
0.0018272
-0.00635039
0.00242711
-0.00374386
0.0031355
-0.000363419
0.00374381
0.00371885
0.00451281
0.00737728
0.00593331
0.00671814
0.00761935
0.00103388
0.00877845
-0.00585526
0.0093172
-0.0105425
0.0094463
-0.01308
0.00941031
-0.014109
0.00939434
-0.014211
0.00935254
-0.0142811
-0.0137811
0.00939653
8.30398e-05
0.00466239
0.000216784
0.00413164
0.00046387
0.00105807
0.000818277
-0.00468154
0.00112994
-0.00925567
0.00135321
-0.0117531
0.00149708
-0.0124761
0.0015902
-0.0120914
0.00165764
-0.0110366
0.00169477
-0.00965
0.00172398
-0.00816979
0.00191373
-0.00654014
0.00241233
-0.00424247
0.00305829
-0.00100938
0.00368475
0.0030924
0.00463233
0.0064297
0.00625398
0.00509649
0.00793512
-0.000647255
0.00896872
-0.00688886
0.00938991
-0.0109637
0.0094599
-0.01315
0.00940606
-0.0140552
0.00938879
-0.0141938
0.00937243
-0.0142648
-0.0138285
0.00941986
9.01542e-05
0.00457224
0.000238017
0.00398377
0.0005087
0.000787386
0.000882831
-0.00505567
0.00120087
-0.0095737
0.00142567
-0.0119779
0.00157257
-0.012623
0.00167393
-0.0121928
0.0017584
-0.0111211
0.00183065
-0.00972224
0.00188712
-0.00822627
0.00203046
-0.00668347
0.00242082
-0.00463283
0.00298589
-0.00157445
0.00364977
0.00242852
0.00480938
0.00527008
0.00658884
0.00331704
0.00819943
-0.00225784
0.00908778
-0.00777721
0.00940489
-0.0112808
0.00943278
-0.0131779
0.00937816
-0.0140006
0.0093684
-0.014184
0.00938002
-0.0142764
-0.0138913
0.00944275
9.62895e-05
0.00447595
0.000258288
0.00382178
0.000553361
0.000492314
0.000946298
-0.0054486
0.00126933
-0.00989674
0.00149474
-0.0122033
0.00164393
-0.0127722
0.00175274
-0.0123016
0.00185173
-0.0112201
0.00195422
-0.00982473
0.00204776
-0.0083198
0.00217421
-0.00680993
0.00246847
-0.00492709
0.00294996
-0.00205593
0.00368134
0.00169714
0.00506034
0.00389108
0.0069185
0.00145888
0.00839616
-0.00373551
0.00913292
-0.00851396
0.00936562
-0.0115135
0.00937162
-0.0131839
0.00932939
-0.0139583
0.00933602
-0.0141906
0.00937442
-0.0143148
-0.0139782
0.0094614
0.000101353
0.0043746
0.000277615
0.00364551
0.000597881
0.000172048
0.00100835
-0.00585908
0.00133494
-0.0102233
0.00156001
-0.0124284
0.00171079
-0.012923
0.00182621
-0.012417
0.00193794
-0.0113318
0.00206525
-0.00995205
0.00219846
-0.00845301
0.00233688
-0.00694835
0.00256909
-0.0051593
0.00299291
-0.00247976
0.0038245
0.000865555
0.00538407
0.0023315
0.00721521
-0.000372256
0.00851218
-0.00503248
0.0091064
-0.00910818
0.00927944
-0.0116866
0.00928361
-0.0131881
0.0092632
-0.0139379
0.00929298
-0.0142204
0.00935731
-0.0143791
-0.0140938
0.00947283
0.000105267
0.00426933
0.000296054
0.00345473
0.000642307
-0.000174205
0.00106868
-0.00628545
0.00139731
-0.010552
0.00162115
-0.0126522
0.00177287
-0.0130747
0.00189407
-0.0125382
0.00201717
-0.0114549
0.0021646
-0.0100995
0.00233448
-0.00862289
0.00250665
-0.00712052
0.00272622
-0.00537886
0.0031466
-0.00290014
0.00409668
-8.45232e-05
0.00574845
0.000679733
0.00744583
-0.00206964
0.00854063
-0.00612728
0.00901595
-0.0095835
0.00915656
-0.0118272
0.00917541
-0.0132069
0.00918356
-0.0139461
0.00924026
-0.0142771
0.00933076
-0.0144696
-0.0142382
0.0094752
0.000107972
0.00416136
0.000313697
0.003249
0.000686683
-0.000547191
0.00112696
-0.00672573
0.00145613
-0.0108811
0.00167787
-0.012874
0.00182995
-0.0132268
0.00195613
-0.0126644
0.00208943
-0.0115882
0.00225347
-0.0102635
0.00245409
-0.00882352
0.00267097
-0.0073374
0.00292672
-0.00563461
0.00340534
-0.00337876
0.00446182
-0.001141
0.00609138
-0.000949824
0.00758162
-0.00355988
0.00848406
-0.00702973
0.0088745
-0.00997393
0.00900818
-0.0119609
0.00905312
-0.0132519
0.00909413
-0.0139871
0.00917899
-0.014362
0.00929607
-0.0145867
-0.0144096
0.0094675
0.000109444
0.00405191
0.000330672
0.00302777
0.000731033
-0.000947552
0.0011829
-0.00717759
0.00151111
-0.0112093
0.00172997
-0.0130929
0.00188188
-0.0133787
0.00201234
-0.0127948
0.00215471
-0.0117306
0.00233289
-0.0104417
0.00255803
-0.00904865
0.00282014
-0.00759951
0.0031434
-0.00595787
0.00371807
-0.00395343
0.00483634
-0.00225928
0.00634675
-0.00246023
0.00760929
-0.00482242
0.00835608
-0.00777653
0.00869829
-0.0103161
0.00884471
-0.0121073
0.00892212
-0.0133293
0.00899763
-0.0140626
0.00911018
-0.0144745
0.0092537
-0.0147302
-0.0146057
0.00944975
0.000109706
0.00394221
0.000347146
0.00279033
0.000775343
-0.00137575
0.00123619
-0.00763845
0.00156201
-0.0115351
0.0017773
-0.0133081
0.00192859
-0.01353
0.00206272
-0.0129289
0.00221306
-0.0118809
0.0024035
-0.0106321
0.00264811
-0.00929327
0.00294952
-0.00790092
0.00334654
-0.00635489
0.00401327
-0.00462015
0.00513416
-0.00338017
0.00647652
-0.00380259
0.007539
-0.00588489
0.00817892
-0.00841645
0.00850366
-0.0106409
0.00867462
-0.0122783
0.0087865
-0.0134411
0.0088958
-0.0141719
0.00903481
-0.0146135
0.00920377
-0.0148992
-0.0148243
0.00942242
0.000108844
0.00383336
0.000363328
0.00253585
0.000819539
-0.00183196
0.00128659
-0.00810549
0.00160864
-0.0118572
0.00181976
-0.0135193
0.00197008
-0.0136803
0.00210733
-0.0130662
0.00226464
-0.0120382
0.00246569
-0.0108332
0.00272612
-0.00955369
0.00305869
-0.00823349
0.00351549
-0.0068117
0.00423895
-0.00534361
0.00531233
-0.00445355
0.00648711
-0.00497736
0.00740019
-0.00679798
0.00797694
-0.0089932
0.00830384
-0.0109678
0.00850378
-0.0124782
0.00864892
-0.0135863
0.00878983
-0.0143128
0.00895376
-0.0147775
0.00914642
-0.0150918
-0.0150639
0.00938596
0.000107018
0.00372634
0.000379467
0.0022634
0.000863475
-0.00231597
0.00133383
-0.00857585
0.00165088
-0.0121743
0.00185733
-0.0137257
0.00200637
-0.0138294
0.0021463
-0.0132061
0.00230967
-0.0122016
0.00251982
-0.0110433
0.00279324
-0.00982712
0.00314899
-0.00858924
0.0036433
-0.00730601
0.00438219
-0.00608251
0.00538136
-0.00545272
0.00641601
-0.00601201
0.00722716
-0.00760914
0.00776953
-0.00953556
0.00810728
-0.0113055
0.00833546
-0.0127064
0.00851087
-0.0137617
0.00868057
-0.0144825
0.0088677
-0.0149646
0.00908184
-0.015306
-0.0153226
0.00934058
0.000104477
0.00362187
0.000395865
0.00197201
0.000906928
-0.00282703
0.00137771
-0.00904663
0.00168862
-0.0124852
0.00189002
-0.0139271
0.00203758
-0.0139769
0.00217979
-0.0133483
0.00234843
-0.0123702
0.00256626
-0.0112612
0.0028502
-0.0101111
0.00322204
-0.00896107
0.00373368
-0.00781765
0.00445896
-0.00680779
0.00537871
-0.00637246
0.00630431
-0.00693761
0.00704554
-0.00835037
0.00756786
-0.0100579
0.00791797
-0.0116556
0.00817107
-0.0129595
0.00837318
-0.0139638
0.00856865
-0.014678
0.00877699
-0.0151729
0.00901033
-0.0155393
-0.0155988
0.00928653
0.000101556
0.00352031
0.00041287
0.0016607
0.000949601
-0.00336376
0.00141804
-0.00951506
0.00172183
-0.012789
0.00191789
-0.0141232
0.00206382
-0.0141228
0.002208
-0.0134925
0.0023812
-0.0125434
0.00260544
-0.0114854
0.00289756
-0.0104032
0.0032795
-0.00934301
0.00379479
-0.00833294
0.00449253
-0.00750553
0.00533885
-0.00721879
0.0061793
-0.00777806
0.00686853
-0.00903959
0.00737631
-0.0105656
0.00773705
-0.0120164
0.00801096
-0.0132334
0.00823625
-0.0141891
0.0084545
-0.0148962
0.00868187
-0.0154003
0.00893226
-0.0157897
-0.0158906
0.00922409
9.86686e-05
0.00342164
0.000430872
0.0013285
0.000991143
-0.00392403
0.00145468
-0.0099786
0.00175051
-0.0130848
0.00194105
-0.0143137
0.00208527
-0.0142671
0.00223115
-0.0136384
0.00240827
-0.0127205
0.00263776
-0.0117149
0.0029359
-0.0107013
0.0033232
-0.00973031
0.00383421
-0.00884396
0.00450012
-0.00817143
0.005282
-0.00800067
0.00605357
-0.00854963
0.00670057
-0.00968659
0.00719555
-0.0110606
0.00756432
-0.0123851
0.00785503
-0.0135241
0.00810028
-0.0144343
0.00833835
-0.0151343
0.00858255
-0.0156445
0.00884801
-0.0160552
-0.0161962
0.0091536
9.62819e-05
0.00332536
0.000450282
0.000974496
0.00103117
-0.00450492
0.00148754
-0.010435
0.0017747
-0.0133719
0.00195965
-0.0144987
0.00210211
-0.0144095
0.00224947
-0.0137858
0.00242995
-0.012901
0.00266364
-0.0119486
0.00296586
-0.0110035
0.00335493
-0.0101194
0.00385733
-0.00934635
0.00449133
-0.00880543
0.00521723
-0.00872657
0.00593127
-0.00926366
0.00654212
-0.0102974
0.00702484
-0.0115434
0.00739904
-0.0127593
0.007703
-0.0138281
0.00796534
-0.0146967
0.00822034
-0.0153893
0.0084792
-0.0159034
0.00875799
-0.0163339
-0.0165137
0.00907549
9.48772e-05
0.00323048
0.000471501
0.000597872
0.0010693
-0.00510272
0.00151655
-0.0108822
0.0017945
-0.0136499
0.00197383
-0.014678
0.00211457
-0.0145503
0.00226321
-0.0139344
0.00244652
-0.0130843
0.00268347
-0.0121855
0.0029881
-0.0113082
0.00337628
-0.0105076
0.00386761
-0.00983768
0.00447111
-0.00940893
0.00514822
-0.00940369
0.00581322
-0.00992867
0.00639233
-0.0108766
0.00686302
-0.012014
0.00724034
-0.0131367
0.00755452
-0.0141422
0.00783135
-0.0149735
0.00810049
-0.0156584
0.00837207
-0.016175
0.0086626
-0.0166245
-0.0168413
0.00899014
9.48995e-05
0.00313558
0.000494867
0.000197905
0.00110517
-0.00571302
0.00154169
-0.0113188
0.00181001
-0.0139182
0.0019838
-0.0148518
0.00212286
-0.0146893
0.0022726
-0.0140842
0.00245829
-0.01327
0.00269763
-0.0124249
0.00300326
-0.0116138
0.00338852
-0.0108928
0.00386738
-0.0103165
0.0044422
-0.00998375
0.00507654
-0.010038
0.00569921
-0.0105513
0.00625003
-0.0114274
0.00670887
-0.0124729
0.00708738
-0.0135152
0.00740921
-0.0144641
0.00769816
-0.0152625
0.00797883
-0.0159391
0.00826143
-0.0164576
0.00856218
-0.0169252
-0.017177
0.0088979
9.6703e-05
0.00303888
0.000520599
-0.000225992
0.00113848
-0.0063309
0.00156299
-0.0117433
0.00182138
-0.0141766
0.00198975
-0.0150202
0.0021272
-0.0148268
0.00227791
-0.0142349
0.00246551
-0.0134576
0.00270646
-0.0126658
0.00301189
-0.0119192
0.00339273
-0.0112737
0.00385835
-0.0107822
0.00440638
-0.0105318
0.00500297
-0.0106346
0.00558868
-0.011137
0.00611406
-0.0119528
0.00656127
-0.0129201
0.00693932
-0.0138932
0.0072667
-0.0147915
0.00756556
-0.0155613
0.0078554
-0.0162289
0.00814759
-0.0167497
0.00845696
-0.0172346
-0.0175191
0.00879903
0.000100503
0.00293838
0.00054874
-0.000674229
0.00116897
-0.00695113
0.00158048
-0.0121548
0.00182879
-0.0144249
0.0019919
-0.0151833
0.00212782
-0.0149627
0.00227936
-0.0143864
0.00246846
-0.0136467
0.0027103
-0.0129077
0.0030145
-0.0122234
0.00338977
-0.0116489
0.00384177
-0.0112342
0.00436485
-0.0110549
0.0049279
-0.0111977
0.00548104
-0.0116902
0.00598338
-0.0124551
0.00641919
-0.0133559
0.00679543
-0.0142695
0.00712662
-0.0151226
0.00743331
-0.015868
0.00773027
-0.0165259
0.00803078
-0.0170503
0.00834709
-0.0175509
-0.0178657
0.00869373
0.000106345
0.00283203
0.000579114
-0.001147
0.00119645
-0.00756847
0.00159424
-0.0125526
0.00183241
-0.0146631
0.00199047
-0.0153413
0.00212496
-0.0150972
0.00227717
-0.0145386
0.00246738
-0.0138369
0.00270946
-0.0131497
0.00301157
-0.0125255
0.00338039
-0.0120178
0.00381864
-0.0116724
0.00431848
-0.0115547
0.00485153
-0.0117307
0.00537575
-0.0122144
0.00585706
-0.0129364
0.00628173
-0.0137806
0.00665506
-0.0146428
0.00698858
-0.0154562
0.00730117
-0.0161806
0.00760354
-0.0168282
0.00791119
-0.0173579
0.00823264
-0.0178724
-0.0182153
0.00858218
0.0001141
0.00271793
0.000611312
-0.00164421
0.00122078
-0.00817794
0.00160438
-0.0129362
0.00183244
-0.0148911
0.00198566
-0.0154946
0.00211882
-0.0152303
0.00227157
-0.0146914
0.0024625
-0.0140278
0.00270422
-0.0133915
0.00300348
-0.0128248
0.00336521
-0.0123795
0.00378977
-0.012097
0.00426794
-0.0120329
0.00477398
-0.0122368
0.0052723
-0.0127127
0.00573431
-0.0133984
0.00614811
-0.0141944
0.00651762
-0.0150123
0.00685223
-0.0157908
0.00716895
-0.0164973
0.0074753
-0.0171346
0.00778892
-0.0176715
0.00811361
-0.018197
-0.0185663
0.00846468
0.000123492
0.00259444
0.000644718
-0.00216544
0.00124189
-0.00877511
0.00161101
-0.0133053
0.00182909
-0.0151092
0.00197771
-0.0156432
0.00210961
-0.0153622
0.00226276
-0.0148445
0.00245403
-0.0142191
0.00269485
-0.0136323
0.00299062
-0.0131206
0.00334476
-0.0127336
0.0037558
-0.012508
0.00421374
-0.0124908
0.0046953
-0.0127183
0.00517024
-0.0131877
0.00561444
-0.0138426
0.00601763
-0.0145976
0.00638259
-0.0153773
0.00671724
-0.0161254
0.00703645
-0.0168165
0.00734567
-0.0174438
0.00766399
-0.0179899
0.00798992
-0.018523
-0.0189182
0.00834181
0.000134147
0.0024603
0.000678565
-0.00270986
0.00125974
-0.00935628
0.00161425
-0.0136598
0.00182256
-0.0153175
0.00196682
-0.0157874
0.00209754
-0.015493
0.00225092
-0.0149979
0.00244217
-0.0144104
0.00268158
-0.0138717
0.00297332
-0.0134123
0.0033195
-0.0130798
0.00371726
-0.0129058
0.00415626
-0.0129298
0.00461552
-0.0131776
0.0050692
-0.0136413
0.00549687
-0.0142703
0.00588969
-0.0149904
0.00624953
-0.0157371
0.00658327
-0.0164592
0.00690353
-0.0171368
0.00721479
-0.0177551
0.00753637
-0.0183114
0.00786156
-0.0188482
-0.019271
0.0082143
0.000145664
0.00231463
0.000712016
-0.00327621
0.00127431
-0.00991858
0.00161425
-0.0139997
0.00181305
-0.0155163
0.00195319
-0.0159276
0.00208279
-0.0156226
0.00223622
-0.0151513
0.00242711
-0.0146013
0.00266464
-0.0141092
0.00295187
-0.0136995
0.00328982
-0.0134177
0.00367461
-0.0132906
0.00409585
-0.013351
0.00453465
-0.0136164
0.00496887
-0.0140756
0.00538111
-0.0146825
0.00576377
-0.015373
0.00611803
-0.0160914
0.00645002
-0.0167912
0.00677007
-0.0174569
0.00708275
-0.0180677
0.00740601
-0.0186347
0.00772889
-0.019171
-0.0196246
0.0080825
0.000157686
0.00215694
0.000744255
-0.00386278
0.00128566
-0.01046
0.00161115
-0.0143252
0.00180077
-0.0157059
0.00193703
-0.0160638
0.00206554
-0.0157511
0.00221884
-0.0153046
0.00240902
-0.0147914
0.00264423
-0.0143444
0.00292655
-0.0139819
0.0032561
-0.0137473
0.00362823
-0.0136627
0.00403275
-0.0137556
0.00445267
-0.0140363
0.00486896
-0.0144919
0.00526672
-0.0150803
0.00563944
-0.0157458
0.00598774
-0.0164397
0.00631719
-0.0171206
0.00663602
-0.0177757
0.00694955
-0.0183813
0.00727281
-0.018958
0.00759311
-0.0194913
-0.0199772
0.00794577
0.000169954
0.00198699
0.000774567
-0.00446739
0.00129386
-0.0109793
0.00160513
-0.0146365
0.00178592
-0.0158867
0.00191851
-0.0161964
0.00204594
-0.0158785
0.00219892
-0.0154576
0.00238804
-0.0149806
0.00262054
-0.0145769
0.00289761
-0.0142589
0.00321863
-0.0140683
0.00357843
-0.0140225
0.00396718
-0.0141443
0.0043696
-0.0144387
0.00476925
-0.0148915
0.00515336
-0.0154644
0.0055163
-0.0161087
0.00585835
-0.0167817
0.00618453
-0.0174468
0.00650133
-0.0180925
0.00681503
-0.018695
0.00713651
-0.0192794
0.00745615
-0.019811
-0.0203243
0.00780316
0.000182345
0.00180465
0.000802379
-0.00508742
0.00129897
-0.0114759
0.0015963
-0.0149338
0.00176863
-0.0160591
0.00189774
-0.0163255
0.00202408
-0.0160048
0.00217652
-0.01561
0.00236425
-0.0151683
0.00259367
-0.0148064
0.00286518
-0.0145304
0.00317758
-0.0143807
0.00352539
-0.0143703
0.00389919
-0.0145181
0.00428527
-0.0148248
0.00466939
-0.0152756
0.00504053
-0.0158355
0.00539385
-0.016462
0.00572939
-0.0171173
0.00605163
-0.017769
0.00636578
-0.0184066
0.00667865
-0.0190078
0.00699662
-0.0195974
0.00731604
-0.0201304
-0.0206858
0.00767755
0.00019488
0.00160977
0.000827328
-0.00571987
0.00130119
-0.0119497
0.00158491
-0.0152175
0.00174918
-0.0162233
0.00187501
-0.0164514
0.00200023
-0.0161301
0.00215192
-0.0157617
0.00233795
-0.0153543
0.00256395
-0.0150324
0.00282966
-0.0147962
0.00313342
-0.0146845
0.00346956
-0.0147064
0.00382918
-0.0148777
0.00419995
-0.0151956
0.00456949
-0.0156452
0.0049283
-0.0161943
0.00527215
-0.0168059
0.00560097
-0.0174461
0.0059187
-0.0180868
0.0062297
-0.0187176
0.00654059
-0.0193187
0.00685508
-0.0199119
0.00717942
-0.0204547
-0.0210335
0.00752714
0.000207701
0.00140207
0.000849188
-0.00636136
0.00130063
-0.0124012
0.0015711
-0.015488
0.00172771
-0.01638
0.00185041
-0.0165741
0.00197445
-0.0162541
0.00212517
-0.0159125
0.00230918
-0.0155383
0.00253146
-0.0152546
0.00279114
-0.0150558
0.00308626
-0.0149796
0.00341105
-0.0150312
0.00375716
-0.0152238
0.00411351
-0.0155519
0.00446929
-0.0160009
0.00481628
-0.0165413
0.00515079
-0.0171404
0.00547269
-0.017768
0.00578543
-0.0183995
0.00609272
-0.0190249
0.00640068
-0.0196267
0.00671252
-0.0202237
0.00703541
-0.0207776
-0.0213705
0.00737247
0.000221038
0.00118103
0.000867893
-0.00700821
0.00129748
-0.0128308
0.00155504
-0.0157456
0.00170437
-0.0165293
0.00182407
-0.0166938
0.00194686
-0.0163769
0.00209637
-0.016062
0.00227807
-0.01572
0.00249634
-0.0154729
0.00274981
-0.0153093
0.0030363
-0.0152661
0.00335004
-0.015345
0.00368324
-0.015557
0.00402592
-0.0158946
0.00436865
-0.0163437
0.00470427
-0.0168769
0.00502955
-0.0174656
0.00534436
-0.0180828
0.00565168
-0.0187068
0.00595473
-0.019328
0.00625916
-0.0199311
0.00656736
-0.0205319
0.00688753
-0.0210978
-0.0217018
0.00721884
0.000235162
0.000945865
0.000883482
-0.00765653
0.00129189
-0.0132392
0.00153689
-0.0159905
0.0016793
-0.0166717
0.00179612
-0.0168106
0.00191757
-0.0164984
0.00206563
-0.01621
0.00224472
-0.0158991
0.00245872
-0.0156869
0.00270583
-0.0155564
0.00298371
-0.015544
0.00328669
-0.015648
0.00360751
-0.0158779
0.0039372
-0.0162243
0.00426748
-0.016674
0.00459211
-0.0172016
0.00490827
-0.0177818
0.00521582
-0.0183904
0.00551734
-0.0190083
0.00581568
-0.0196263
0.00611585
-0.0202313
0.00642027
-0.0208364
0.00673592
-0.0214135
-0.0220264
0.00706047
0.000250332
0.000695533
0.000896068
-0.00830227
0.00128405
-0.0136271
0.00151681
-0.0162233
0.00165266
-0.0168076
0.00176667
-0.0169246
0.00188666
-0.0166183
0.00203303
-0.0163564
0.00220925
-0.0160753
0.00241873
-0.0158964
0.00265935
-0.015797
0.00292867
-0.0158133
0.00322114
-0.0159404
0.00353006
-0.0161868
0.00384734
-0.0165416
0.00416569
-0.0169923
0.00447966
-0.0175155
0.00478679
-0.0180889
0.00508692
-0.0186905
0.00538231
-0.0193037
0.00567547
-0.0199195
0.00597094
-0.0205267
0.00627073
-0.0211362
0.00658107
-0.0217238
-0.0223455
0.00690022
0.000266753
0.000428781
0.000905806
-0.00894132
0.00127411
-0.0139954
0.00149496
-0.0164442
0.00162457
-0.0169372
0.00173584
-0.0170358
0.00185423
-0.0167367
0.00199867
-0.0165008
0.00217175
-0.0162484
0.0023765
-0.0161011
0.00261051
-0.0160311
0.00287131
-0.0160741
0.00315353
-0.0162226
0.00345098
-0.0164842
0.00375633
-0.0168469
0.00406321
-0.0172992
0.00436681
-0.0178191
0.00466496
-0.0183871
0.00495754
-0.0189831
0.00524651
-0.0195927
0.00553409
-0.0202071
0.0058243
-0.020817
0.006119
-0.0214309
0.00642369
-0.0220285
-0.0226582
0.00673632
0.00028453
0.000144251
0.000912866
-0.00956966
0.00126223
-0.0143448
0.00147148
-0.0166534
0.00159516
-0.0170608
0.00170371
-0.0171444
0.00182036
-0.0168534
0.00196263
-0.0166431
0.00213231
-0.0164181
0.00233213
-0.0163009
0.00255943
-0.0162584
0.00281178
-0.0163264
0.00308397
-0.0164948
0.00337031
-0.0167706
0.0036642
-0.0171408
0.00395998
-0.017595
0.00425345
-0.0181126
0.00454269
-0.0186763
0.0048276
-0.019268
0.00510987
-0.019875
0.00539148
-0.0204887
0.00567603
-0.0211015
0.00596511
-0.0217199
0.00626352
-0.0223269
-0.0229645
0.00656987
0.000303644
-0.000159393
0.000917419
-0.0101834
0.00124856
-0.014676
0.0014465
-0.0168514
0.00156453
-0.0171789
0.00167037
-0.0172502
0.00178513
-0.0169681
0.00192498
-0.016783
0.00209104
-0.0165842
0.00228574
-0.0164956
0.00250625
-0.0164789
0.00275019
-0.0165704
0.00301256
-0.0167572
0.00328814
-0.0170462
0.00357094
-0.0174236
0.00385597
-0.01788
0.00413951
-0.0183961
0.00441988
-0.0189567
0.00469699
-0.0195451
0.00497231
-0.0201503
0.00524762
-0.020764
0.00552609
-0.02138
0.00580911
-0.022003
0.00610108
-0.0226189
-0.0232639
0.00640049
0.000323925
-0.000483318
0.000919622
-0.0107791
0.00123322
-0.0149896
0.00142016
-0.0170383
0.00153277
-0.0172915
0.0016359
-0.0173534
0.0017486
-0.0170808
0.0018858
-0.0169202
0.00204801
-0.0167464
0.00223742
-0.016685
0.00245108
-0.0166925
0.00268667
-0.0168059
0.0029394
-0.0170099
0.00320452
-0.0173113
0.00347656
-0.0176957
0.00375112
-0.0181546
0.00402491
-0.0186699
0.00429645
-0.0192283
0.00456566
-0.0198143
0.00483381
-0.0204184
0.0051025
-0.0210327
0.00537453
-0.021652
0.00565114
-0.0222796
0.00593619
-0.0229039
-0.0235563
0.00622856
0.000345056
-0.000828375
0.000919617
-0.0113537
0.00121632
-0.0152863
0.00139257
-0.0172145
0.0015
-0.0173989
0.00160038
-0.0174537
0.00171084
-0.0171913
0.00184517
-0.0170545
0.00200331
-0.0169045
0.00218728
-0.016869
0.00239402
-0.0168993
0.00262131
-0.0170332
0.00286459
-0.0172532
0.0031195
-0.0175662
0.00338107
-0.0179572
0.00364543
-0.0184189
0.00390961
-0.0189341
0.00417235
-0.019491
0.00443354
-0.0200755
0.00469432
-0.0206792
0.00495611
-0.0212945
0.00522138
-0.0219173
0.0054912
-0.0225494
0.00576913
-0.0231818
-0.0238413
0.00605409
0.000366578
-0.00119495
0.000917524
-0.0119046
0.00119797
-0.0155667
0.00136384
-0.0173804
0.00146628
-0.0175013
0.00156386
-0.0175513
0.00167192
-0.0172994
0.00180314
-0.0171857
0.00195702
-0.0170584
0.0021354
-0.0170474
0.00233517
-0.017099
0.00255422
-0.0172523
0.0027882
-0.0174872
0.00303313
-0.0178111
0.0032845
-0.0182086
0.00353885
-0.0186733
0.00379356
-0.0191888
0.00404751
-0.0197449
0.0043006
-0.0203286
0.00455382
-0.0209324
0.00480845
-0.0215491
0.00506664
-0.0221755
0.00532941
-0.0228122
0.00559989
-0.0234523
-0.0241186
0.00587723
0.000387925
-0.00158288
0.00091345
-0.0124302
0.00117825
-0.0158315
0.00133406
-0.0175362
0.00143169
-0.017599
0.00152641
-0.017646
0.00163188
-0.0174048
0.00175978
-0.0173136
0.00190921
-0.0172078
0.00208188
-0.0172201