/*--------------------------------*- C++ -*----------------------------------*\
  =========                 |
  \\      /  F ield         | OpenFOAM: The Open Source CFD Toolbox
   \\    /   O peration     | Website:  https://openfoam.org
    \\  /    A nd           | Version:  7
     \\/     M anipulation  |
\*---------------------------------------------------------------------------*/
FoamFile
{
    version     2.0;
    format      ascii;
    class       volVectorField;
    location    "0.2";
    object      U;
}
// * * * * * * * * * * * * * * * * * * * * * * * * * * * * * * * * * * * * * //

dimensions      [0 1 -1 0 0 0 0];

internalField   nonuniform List<vector> 
40000
(
(1.21587e-07 -6.38489e-08 0)
(1.24319e-06 -6.80781e-07 0)
(3.65896e-06 -1.05811e-06 0)
(6.57529e-06 -1.16851e-06 0)
(9.43114e-06 -1.1034e-06 0)
(1.18693e-05 -9.31399e-07 0)
(1.36489e-05 -6.93799e-07 0)
(1.46115e-05 -4.18826e-07 0)
(1.46557e-05 -1.23555e-07 0)
(1.37217e-05 1.81913e-07 0)
(1.17771e-05 4.90049e-07 0)
(8.80898e-06 7.96077e-07 0)
(4.81968e-06 1.09706e-06 0)
(-1.77976e-07 1.39061e-06 0)
(-6.16416e-06 1.67497e-06 0)
(-1.31132e-05 1.94918e-06 0)
(-2.09945e-05 2.2128e-06 0)
(-2.9775e-05 2.46534e-06 0)
(-3.94197e-05 2.7063e-06 0)
(-4.98921e-05 2.93556e-06 0)
(-6.11545e-05 3.15324e-06 0)
(-7.31689e-05 3.35948e-06 0)
(-8.58973e-05 3.55432e-06 0)
(-9.9302e-05 3.73785e-06 0)
(-0.000113345 3.91039e-06 0)
(-0.00012799 4.07225e-06 0)
(-0.000143199 4.22367e-06 0)
(-0.000158938 4.36491e-06 0)
(-0.000175171 4.49624e-06 0)
(-0.000191864 4.61798e-06 0)
(-0.000208984 4.73047e-06 0)
(-0.000226498 4.83403e-06 0)
(-0.000244376 4.92892e-06 0)
(-0.000262587 5.01537e-06 0)
(-0.000281102 5.09371e-06 0)
(-0.000299891 5.1643e-06 0)
(-0.000318929 5.22745e-06 0)
(-0.000338187 5.28341e-06 0)
(-0.00035764 5.3324e-06 0)
(-0.000377264 5.37469e-06 0)
(-0.000397035 5.41052e-06 0)
(-0.000416928 5.44015e-06 0)
(-0.000436923 5.46378e-06 0)
(-0.000456997 5.48165e-06 0)
(-0.00047713 5.49397e-06 0)
(-0.000497301 5.50096e-06 0)
(-0.000517492 5.5028e-06 0)
(-0.000537683 5.4997e-06 0)
(-0.000557857 5.49182e-06 0)
(-0.000577995 5.47929e-06 0)
(-0.00059808 5.46225e-06 0)
(-0.000618097 5.44085e-06 0)
(-0.00063803 5.41524e-06 0)
(-0.000657863 5.38556e-06 0)
(-0.00067758 5.35192e-06 0)
(-0.000697168 5.31442e-06 0)
(-0.000716611 5.27317e-06 0)
(-0.000735897 5.22826e-06 0)
(-0.000755011 5.17979e-06 0)
(-0.00077394 5.12783e-06 0)
(-0.000792671 5.07244e-06 0)
(-0.000811193 5.01365e-06 0)
(-0.000829491 4.95153e-06 0)
(-0.000847553 4.88614e-06 0)
(-0.000865368 4.81757e-06 0)
(-0.000882924 4.74585e-06 0)
(-0.000900209 4.67101e-06 0)
(-0.000917211 4.59307e-06 0)
(-0.000933919 4.51204e-06 0)
(-0.000950322 4.42798e-06 0)
(-0.000966408 4.34091e-06 0)
(-0.000982166 4.25086e-06 0)
(-0.000997584 4.15784e-06 0)
(-0.00101265 4.06185e-06 0)
(-0.00102736 3.96288e-06 0)
(-0.0010417 3.86097e-06 0)
(-0.00105565 3.75613e-06 0)
(-0.00106921 3.64839e-06 0)
(-0.00108237 3.53776e-06 0)
(-0.00109511 3.42426e-06 0)
(-0.00110742 3.30789e-06 0)
(-0.0011193 3.18865e-06 0)
(-0.00113074 3.06656e-06 0)
(-0.00114172 2.94165e-06 0)
(-0.00115223 2.81393e-06 0)
(-0.00116226 2.68341e-06 0)
(-0.00117181 2.55012e-06 0)
(-0.00118086 2.41412e-06 0)
(-0.0011894 2.27546e-06 0)
(-0.00119743 2.13416e-06 0)
(-0.00120494 1.99024e-06 0)
(-0.0012119 1.84371e-06 0)
(-0.00121833 1.69463e-06 0)
(-0.0012242 1.54307e-06 0)
(-0.00122951 1.38911e-06 0)
(-0.00123425 1.23282e-06 0)
(-0.00123841 1.07428e-06 0)
(-0.00124198 9.13551e-07 0)
(-0.00124496 7.50706e-07 0)
(-0.00124734 5.85855e-07 0)
(-0.00124911 4.19094e-07 0)
(-0.00125026 2.50509e-07 0)
(-0.0012508 8.02021e-08 0)
(-0.00125071 -9.17166e-08 0)
(-0.00124998 -2.65117e-07 0)
(-0.00124862 -4.39842e-07 0)
(-0.00124662 -6.15737e-07 0)
(-0.00124398 -7.92665e-07 0)
(-0.00124068 -9.70477e-07 0)
(-0.00123674 -1.14901e-06 0)
(-0.00123214 -1.32813e-06 0)
(-0.00122689 -1.50764e-06 0)
(-0.00122098 -1.68736e-06 0)
(-0.00121442 -1.8671e-06 0)
(-0.0012072 -2.04667e-06 0)
(-0.00119933 -2.22586e-06 0)
(-0.00119081 -2.40444e-06 0)
(-0.00118164 -2.58219e-06 0)
(-0.00117182 -2.75892e-06 0)
(-0.00116137 -2.93439e-06 0)
(-0.00115027 -3.10838e-06 0)
(-0.00113855 -3.28066e-06 0)
(-0.00112621 -3.45097e-06 0)
(-0.00111325 -3.61905e-06 0)
(-0.00109969 -3.78467e-06 0)
(-0.00108553 -3.9476e-06 0)
(-0.00107079 -4.10757e-06 0)
(-0.00105547 -4.2643e-06 0)
(-0.00103959 -4.41751e-06 0)
(-0.00102316 -4.56695e-06 0)
(-0.00100619 -4.71236e-06 0)
(-0.000988712 -4.8535e-06 0)
(-0.000970726 -4.99014e-06 0)
(-0.000952254 -5.12199e-06 0)
(-0.000933315 -5.24875e-06 0)
(-0.000913926 -5.37013e-06 0)
(-0.000894109 -5.4859e-06 0)
(-0.000873883 -5.59584e-06 0)
(-0.00085327 -5.69971e-06 0)
(-0.000832293 -5.79726e-06 0)
(-0.000810976 -5.88822e-06 0)
(-0.000789343 -5.97233e-06 0)
(-0.000767418 -6.04936e-06 0)
(-0.000745228 -6.11912e-06 0)
(-0.000722799 -6.18142e-06 0)
(-0.00070016 -6.23603e-06 0)
(-0.000677337 -6.28271e-06 0)
(-0.000654361 -6.32124e-06 0)
(-0.00063126 -6.35147e-06 0)
(-0.000608065 -6.37326e-06 0)
(-0.000584807 -6.38646e-06 0)
(-0.000561517 -6.39089e-06 0)
(-0.000538227 -6.38637e-06 0)
(-0.000514969 -6.37278e-06 0)
(-0.000491776 -6.35e-06 0)
(-0.000468682 -6.31793e-06 0)
(-0.00044572 -6.27649e-06 0)
(-0.000422924 -6.22556e-06 0)
(-0.000400328 -6.16507e-06 0)
(-0.000377967 -6.09496e-06 0)
(-0.000355874 -6.01519e-06 0)
(-0.000334085 -5.92572e-06 0)
(-0.000312635 -5.82654e-06 0)
(-0.000291558 -5.71763e-06 0)
(-0.00027089 -5.59897e-06 0)
(-0.000250664 -5.47061e-06 0)
(-0.000230915 -5.33257e-06 0)
(-0.000211678 -5.18489e-06 0)
(-0.000192987 -5.02761e-06 0)
(-0.000174875 -4.8608e-06 0)
(-0.000157376 -4.68456e-06 0)
(-0.000140523 -4.49899e-06 0)
(-0.000124349 -4.30425e-06 0)
(-0.000108884 -4.10048e-06 0)
(-9.41612e-05 -3.88784e-06 0)
(-8.02095e-05 -3.66649e-06 0)
(-6.70586e-05 -3.43666e-06 0)
(-5.47367e-05 -3.19859e-06 0)
(-4.32709e-05 -2.95261e-06 0)
(-3.26866e-05 -2.69905e-06 0)
(-2.30078e-05 -2.43834e-06 0)
(-1.42562e-05 -2.17096e-06 0)
(-6.45136e-06 -1.89748e-06 0)
(3.90033e-07 -1.61864e-06 0)
(6.2547e-06 -1.33533e-06 0)
(1.11333e-05 -1.04857e-06 0)
(1.50217e-05 -7.59843e-07 0)
(1.79217e-05 -4.7082e-07 0)
(1.98431e-05 -1.83758e-07 0)
(2.08052e-05 9.83026e-08 0)
(2.08403e-05 3.71242e-07 0)
(1.99965e-05 6.29441e-07 0)
(1.8344e-05 8.64882e-07 0)
(1.59819e-05 1.06583e-06 0)
(1.30499e-05 1.21463e-06 0)
(9.74419e-06 1.2846e-06 0)
(6.33654e-06 1.23646e-06 0)
(3.1956e-06 1.01321e-06 0)
(8.37295e-07 5.53206e-07 0)
(-3.50372e-08 -3.48855e-08 0)
(7.06224e-07 -1.13966e-06 0)
(3.66787e-06 -3.61074e-06 0)
(8.84166e-06 -5.00313e-06 0)
(1.47038e-05 -5.32092e-06 0)
(2.01799e-05 -4.84085e-06 0)
(2.45222e-05 -3.80083e-06 0)
(2.71626e-05 -2.37785e-06 0)
(2.76857e-05 -7.01846e-07 0)
(2.5806e-05 1.13609e-06 0)
(2.13346e-05 3.07053e-06 0)
(1.41541e-05 5.05367e-06 0)
(4.20459e-06 7.05164e-06 0)
(-8.53195e-06 9.03972e-06 0)
(-2.4042e-05 1.09989e-05 0)
(-4.22876e-05 1.29149e-05 0)
(-6.32116e-05 1.47781e-05 0)
(-8.67431e-05 1.65813e-05 0)
(-0.000112801 1.83189e-05 0)
(-0.000141296 1.9987e-05 0)
(-0.000172134 2.15831e-05 0)
(-0.000205216 2.31058e-05 0)
(-0.000240439 2.45545e-05 0)
(-0.000277702 2.59288e-05 0)
(-0.000316902 2.72289e-05 0)
(-0.000357935 2.84557e-05 0)
(-0.000400698 2.96104e-05 0)
(-0.000445091 3.0694e-05 0)
(-0.000491012 3.1708e-05 0)
(-0.000538365 3.26539e-05 0)
(-0.000587052 3.35335e-05 0)
(-0.000636981 3.43485e-05 0)
(-0.000688058 3.51009e-05 0)
(-0.000740196 3.57922e-05 0)
(-0.000793307 3.64243e-05 0)
(-0.000847306 3.6999e-05 0)
(-0.000902113 3.75184e-05 0)
(-0.000957647 3.79842e-05 0)
(-0.00101383 3.83983e-05 0)
(-0.00107059 3.87622e-05 0)
(-0.00112786 3.90778e-05 0)
(-0.00118556 3.93466e-05 0)
(-0.00124362 3.95703e-05 0)
(-0.00130199 3.97506e-05 0)
(-0.0013606 3.98887e-05 0)
(-0.00141939 3.99863e-05 0)
(-0.00147829 4.00445e-05 0)
(-0.00153726 4.00648e-05 0)
(-0.00159623 4.00485e-05 0)
(-0.00165516 3.99969e-05 0)
(-0.00171399 3.99109e-05 0)
(-0.00177268 3.97917e-05 0)
(-0.00183116 3.96402e-05 0)
(-0.0018894 3.94574e-05 0)
(-0.00194736 3.92442e-05 0)
(-0.00200497 3.90015e-05 0)
(-0.00206221 3.87301e-05 0)
(-0.00211904 3.84306e-05 0)
(-0.0021754 3.81038e-05 0)
(-0.00223125 3.77503e-05 0)
(-0.00228657 3.73707e-05 0)
(-0.00234131 3.69654e-05 0)
(-0.00239544 3.6535e-05 0)
(-0.0024489 3.60799e-05 0)
(-0.00250168 3.56006e-05 0)
(-0.00255374 3.50973e-05 0)
(-0.00260503 3.45706e-05 0)
(-0.00265552 3.40206e-05 0)
(-0.00270519 3.34476e-05 0)
(-0.00275399 3.28519e-05 0)
(-0.00280189 3.22337e-05 0)
(-0.00284886 3.15931e-05 0)
(-0.00289487 3.09305e-05 0)
(-0.00293988 3.0246e-05 0)
(-0.00298386 2.95397e-05 0)
(-0.00302678 2.88117e-05 0)
(-0.0030686 2.80622e-05 0)
(-0.00310931 2.72914e-05 0)
(-0.00314885 2.64992e-05 0)
(-0.00318721 2.5686e-05 0)
(-0.00322435 2.48518e-05 0)
(-0.00326025 2.39968e-05 0)
(-0.00329486 2.3121e-05 0)
(-0.00332816 2.22247e-05 0)
(-0.00336013 2.13081e-05 0)
(-0.00339072 2.03713e-05 0)
(-0.00341992 1.94145e-05 0)
(-0.00344769 1.84378e-05 0)
(-0.003474 1.74417e-05 0)
(-0.00349882 1.64263e-05 0)
(-0.00352214 1.5392e-05 0)
(-0.00354391 1.43392e-05 0)
(-0.00356412 1.3268e-05 0)
(-0.00358274 1.2179e-05 0)
(-0.00359974 1.10725e-05 0)
(-0.00361509 9.94903e-06 0)
(-0.00362877 8.8091e-06 0)
(-0.00364077 7.65327e-06 0)
(-0.00365105 6.48211e-06 0)
(-0.0036596 5.29625e-06 0)
(-0.00366639 4.09635e-06 0)
(-0.0036714 2.88317e-06 0)
(-0.00367462 1.65747e-06 0)
(-0.00367603 4.20032e-07 0)
(-0.00367562 -8.28272e-07 0)
(-0.00367336 -2.08655e-06 0)
(-0.00366924 -3.35383e-06 0)
(-0.00366326 -4.62906e-06 0)
(-0.0036554 -5.91117e-06 0)
(-0.00364565 -7.19906e-06 0)
(-0.00363401 -8.49155e-06 0)
(-0.00362046 -9.78745e-06 0)
(-0.00360502 -1.10855e-05 0)
(-0.00358767 -1.23844e-05 0)
(-0.00356842 -1.36827e-05 0)
(-0.00354726 -1.49792e-05 0)
(-0.00352421 -1.62722e-05 0)
(-0.00349926 -1.75604e-05 0)
(-0.00347243 -1.88422e-05 0)
(-0.00344373 -2.01159e-05 0)
(-0.00341318 -2.13801e-05 0)
(-0.00338077 -2.26329e-05 0)
(-0.00334655 -2.38729e-05 0)
(-0.00331052 -2.50982e-05 0)
(-0.00327271 -2.6307e-05 0)
(-0.00323314 -2.74977e-05 0)
(-0.00319185 -2.86683e-05 0)
(-0.00314886 -2.98172e-05 0)
(-0.00310421 -3.09425e-05 0)
(-0.00305793 -3.20423e-05 0)
(-0.00301006 -3.31147e-05 0)
(-0.00296065 -3.41579e-05 0)
(-0.00290974 -3.517e-05 0)
(-0.00285737 -3.61493e-05 0)
(-0.0028036 -3.70938e-05 0)
(-0.00274847 -3.80017e-05 0)
(-0.00269205 -3.8871e-05 0)
(-0.00263438 -3.97001e-05 0)
(-0.00257554 -4.04871e-05 0)
(-0.00251558 -4.12302e-05 0)
(-0.00245457 -4.19278e-05 0)
(-0.00239257 -4.25782e-05 0)
(-0.00232966 -4.31796e-05 0)
(-0.00226591 -4.37303e-05 0)
(-0.0022014 -4.42289e-05 0)
(-0.00213619 -4.46739e-05 0)
(-0.00207038 -4.50638e-05 0)
(-0.00200404 -4.53971e-05 0)
(-0.00193725 -4.56724e-05 0)
(-0.00187011 -4.58885e-05 0)
(-0.00180269 -4.60442e-05 0)
(-0.00173509 -4.61384e-05 0)
(-0.0016674 -4.617e-05 0)
(-0.00159971 -4.61379e-05 0)
(-0.00153211 -4.60413e-05 0)
(-0.0014647 -4.58793e-05 0)
(-0.00139757 -4.56512e-05 0)
(-0.00133083 -4.53563e-05 0)
(-0.00126455 -4.49941e-05 0)
(-0.00119886 -4.4564e-05 0)
(-0.00113384 -4.40657e-05 0)
(-0.00106959 -4.3499e-05 0)
(-0.00100621 -4.28635e-05 0)
(-0.000943811 -4.21593e-05 0)
(-0.000882481 -4.13863e-05 0)
(-0.000822323 -4.05447e-05 0)
(-0.000763436 -3.96346e-05 0)
(-0.000705919 -3.86565e-05 0)
(-0.00064987 -3.76109e-05 0)
(-0.000595385 -3.64982e-05 0)
(-0.000542561 -3.53192e-05 0)
(-0.000491492 -3.40747e-05 0)
(-0.000442272 -3.27657e-05 0)
(-0.000394992 -3.13935e-05 0)
(-0.000349741 -2.99594e-05 0)
(-0.000306606 -2.8465e-05 0)
(-0.000265672 -2.6912e-05 0)
(-0.00022702 -2.53026e-05 0)
(-0.000190726 -2.36391e-05 0)
(-0.000156865 -2.19242e-05 0)
(-0.000125504 -2.01613e-05 0)
(-9.67063e-05 -1.8354e-05 0)
(-7.05289e-05 -1.65068e-05 0)
(-4.70199e-05 -1.4625e-05 0)
(-2.62192e-05 -1.27149e-05 0)
(-8.15527e-06 -1.07839e-05 0)
(7.15568e-06 -8.84147e-06 0)
(1.97134e-05 -6.89879e-06 0)
(2.95368e-05 -4.96992e-06 0)
(3.66678e-05 -3.07244e-06 0)
(4.11772e-05 -1.22869e-06 0)
(4.31721e-05 5.32543e-07 0)
(4.28048e-05 2.1738e-06 0)
(4.02845e-05 3.64577e-06 0)
(3.58933e-05 4.88252e-06 0)
(3.00055e-05 5.79527e-06 0)
(2.31115e-05 6.26547e-06 0)
(1.58327e-05 6.14057e-06 0)
(8.92476e-06 5.23557e-06 0)
(3.38554e-06 3.3875e-06 0)
(5.52312e-07 8.37049e-07 0)
(1.07065e-06 -3.58897e-06 0)
(5.0374e-06 -8.79086e-06 0)
(1.14626e-05 -1.14206e-05 0)
(1.83291e-05 -1.17354e-05 0)
(2.42753e-05 -1.02258e-05 0)
(2.83381e-05 -7.34959e-06 0)
(2.97456e-05 -3.48436e-06 0)
(2.79086e-05 1.07577e-06 0)
(2.23985e-05 6.10641e-06 0)
(1.29166e-05 1.14363e-05 0)
(-7.31632e-07 1.69373e-05 0)
(-1.86582e-05 2.25129e-05 0)
(-4.09114e-05 2.80894e-05 0)
(-6.74892e-05 3.36106e-05 0)
(-9.83487e-05 3.90341e-05 0)
(-0.000133416 4.4328e-05 0)
(-0.000172594 4.94678e-05 0)
(-0.000215768 5.44352e-05 0)
(-0.000262806 5.92171e-05 0)
(-0.000313569 6.38046e-05 0)
(-0.000367907 6.81912e-05 0)
(-0.000425668 7.23728e-05 0)
(-0.000486693 7.63475e-05 0)
(-0.000550824 8.01151e-05 0)
(-0.0006179 8.36765e-05 0)
(-0.000687761 8.70338e-05 0)
(-0.000760249 9.01894e-05 0)
(-0.000835205 9.31466e-05 0)
(-0.000912476 9.59093e-05 0)
(-0.000991909 9.84819e-05 0)
(-0.00107335 0.000100869 0)
(-0.00115666 0.000103075 0)
(-0.0012417 0.000105105 0)
(-0.00132832 0.000106963 0)
(-0.00141639 0.000108656 0)
(-0.00150577 0.000110187 0)
(-0.00159635 0.000111563 0)
(-0.00168799 0.000112787 0)
(-0.00178057 0.000113865 0)
(-0.00187398 0.000114801 0)
(-0.00196811 0.000115601 0)
(-0.00206284 0.000116268 0)
(-0.00215807 0.000116807 0)
(-0.0022537 0.000117223 0)
(-0.00234963 0.000117519 0)
(-0.00244575 0.000117699 0)
(-0.00254199 0.000117767 0)
(-0.00263824 0.000117727 0)
(-0.00273442 0.000117583 0)
(-0.00283045 0.000117336 0)
(-0.00292624 0.000116992 0)
(-0.00302171 0.000116552 0)
(-0.00311679 0.000116019 0)
(-0.0032114 0.000115395 0)
(-0.00330546 0.000114685 0)
(-0.00339891 0.000113888 0)
(-0.00349168 0.000113009 0)
(-0.00358369 0.000112048 0)
(-0.00367489 0.000111008 0)
(-0.0037652 0.00010989 0)
(-0.00385456 0.000108697 0)
(-0.00394292 0.000107428 0)
(-0.0040302 0.000106086 0)
(-0.00411635 0.000104672 0)
(-0.00420132 0.000103188 0)
(-0.00428503 0.000101633 0)
(-0.00436745 0.000100009 0)
(-0.0044485 9.83178e-05 0)
(-0.00452813 9.65588e-05 0)
(-0.00460629 9.47331e-05 0)
(-0.00468292 9.28414e-05 0)
(-0.00475798 9.08844e-05 0)
(-0.00483139 8.88626e-05 0)
(-0.00490313 8.67765e-05 0)
(-0.00497312 8.46266e-05 0)
(-0.00504131 8.24133e-05 0)
(-0.00510767 8.0137e-05 0)
(-0.00517213 7.77983e-05 0)
(-0.00523464 7.53974e-05 0)
(-0.00529516 7.2935e-05 0)
(-0.00535363 7.04114e-05 0)
(-0.00541 6.78271e-05 0)
(-0.00546423 6.51827e-05 0)
(-0.00551627 6.24786e-05 0)
(-0.00556606 5.97156e-05 0)
(-0.00561356 5.68942e-05 0)
(-0.00565872 5.40152e-05 0)
(-0.0057015 5.10792e-05 0)
(-0.00574186 4.80872e-05 0)
(-0.00577973 4.504e-05 0)
(-0.00581509 4.19388e-05 0)
(-0.00584789 3.87845e-05 0)
(-0.00587808 3.55785e-05 0)
(-0.00590563 3.23219e-05 0)
(-0.0059305 2.90163e-05 0)
(-0.00595264 2.5663e-05 0)
(-0.00597201 2.22637e-05 0)
(-0.0059886 1.88203e-05 0)
(-0.00600235 1.53345e-05 0)
(-0.00601323 1.18084e-05 0)
(-0.00602122 8.24411e-06 0)
(-0.00602628 4.6439e-06 0)
(-0.00602839 1.01022e-06 0)
(-0.00602752 -2.65437e-06 0)
(-0.00602365 -6.34721e-06 0)
(-0.00601676 -1.00655e-05 0)
(-0.00600682 -1.38062e-05 0)
(-0.00599383 -1.75663e-05 0)
(-0.00597776 -2.13424e-05 0)
(-0.00595861 -2.51311e-05 0)
(-0.00593638 -2.89289e-05 0)
(-0.00591104 -3.2732e-05 0)
(-0.00588261 -3.65367e-05 0)
(-0.00585108 -4.0339e-05 0)
(-0.00581646 -4.41347e-05 0)
(-0.00577876 -4.79198e-05 0)
(-0.00573798 -5.16897e-05 0)
(-0.00569415 -5.544e-05 0)
(-0.00564727 -5.91662e-05 0)
(-0.00559738 -6.28634e-05 0)
(-0.0055445 -6.6527e-05 0)
(-0.00548865 -7.0152e-05 0)
(-0.00542988 -7.37334e-05 0)
(-0.00536821 -7.72662e-05 0)
(-0.00530371 -8.07452e-05 0)
(-0.0052364 -8.41651e-05 0)
(-0.00516634 -8.75207e-05 0)
(-0.00509358 -9.08068e-05 0)
(-0.00501819 -9.40179e-05 0)
(-0.00494022 -9.71487e-05 0)
(-0.00485975 -0.000100194 0)
(-0.00477685 -0.000103148 0)
(-0.00469159 -0.000106005 0)
(-0.00460406 -0.000108761 0)
(-0.00451433 -0.000111409 0)
(-0.0044225 -0.000113945 0)
(-0.00432867 -0.000116363 0)
(-0.00423292 -0.000118658 0)
(-0.00413537 -0.000120824 0)
(-0.00403612 -0.000122858 0)
(-0.00393527 -0.000124754 0)
(-0.00383295 -0.000126507 0)
(-0.00372926 -0.000128112 0)
(-0.00362434 -0.000129565 0)
(-0.0035183 -0.000130862 0)
(-0.00341128 -0.000131998 0)
(-0.0033034 -0.000132969 0)
(-0.0031948 -0.000133772 0)
(-0.00308563 -0.000134402 0)
(-0.00297601 -0.000134856 0)
(-0.00286609 -0.000135131 0)
(-0.00275603 -0.000135224 0)
(-0.00264596 -0.000135131 0)
(-0.00253604 -0.000134851 0)
(-0.00242642 -0.000134381 0)
(-0.00231726 -0.000133719 0)
(-0.00220871 -0.000132862 0)
(-0.00210092 -0.00013181 0)
(-0.00199406 -0.000130561 0)
(-0.00188829 -0.000129114 0)
(-0.00178376 -0.000127469 0)
(-0.00168064 -0.000125624 0)
(-0.00157908 -0.00012358 0)
(-0.00147925 -0.000121337 0)
(-0.0013813 -0.000118895 0)
(-0.0012854 -0.000116255 0)
(-0.0011917 -0.000113419 0)
(-0.00110035 -0.000110388 0)
(-0.00101153 -0.000107163 0)
(-0.000925366 -0.000103748 0)
(-0.000842024 -0.000100145 0)
(-0.000761648 -9.63572e-05 0)
(-0.000684383 -9.23886e-05 0)
(-0.00061037 -8.82435e-05 0)
(-0.000539747 -8.39271e-05 0)
(-0.000472644 -7.94451e-05 0)
(-0.00040919 -7.48043e-05 0)
(-0.000349503 -7.00124e-05 0)
(-0.000293697 -6.50782e-05 0)
(-0.000241877 -6.0012e-05 0)
(-0.000194136 -5.48259e-05 0)
(-0.000150558 -4.9534e-05 0)
(-0.000111212 -4.41527e-05 0)
(-7.61548e-05 -3.87019e-05 0)
(-4.54211e-05 -3.32048e-05 0)
(-1.90261e-05 -2.76901e-05 0)
(3.04147e-06 -2.21918e-05 0)
(2.08237e-05 -1.67521e-05 0)
(3.44001e-05 -1.14229e-05 0)
(4.38953e-05 -6.26869e-06 0)
(4.9489e-05 -1.37023e-06 0)
(5.14284e-05 3.17019e-06 0)
(5.00423e-05 7.22275e-06 0)
(4.57588e-05 1.06221e-05 0)
(3.91262e-05 1.31587e-05 0)
(3.08344e-05 1.45716e-05 0)
(2.17191e-05 1.45512e-05 0)
(1.27522e-05 1.27604e-05 0)
(5.22841e-06 8.92472e-06 0)
(1.01056e-06 3.19241e-06 0)
(1.17713e-06 -6.52798e-06 0)
(5.35228e-06 -1.46686e-05 0)
(1.17869e-05 -1.82929e-05 0)
(1.81636e-05 -1.81035e-05 0)
(2.29435e-05 -1.48665e-05 0)
(2.50322e-05 -9.28514e-06 0)
(2.35389e-05 -1.95278e-06 0)
(1.77629e-05 6.64934e-06 0)
(7.17763e-06 1.61388e-05 0)
(-8.59626e-06 2.62167e-05 0)
(-2.98156e-05 3.66509e-05 0)
(-5.66388e-05 4.72603e-05 0)
(-8.91443e-05 5.79042e-05 0)
(-0.000127345 6.84738e-05 0)
(-0.000171201 7.8885e-05 0)
(-0.000220631 8.90727e-05 0)
(-0.000275521 9.89865e-05 0)
(-0.00033573 0.000108588 0)
(-0.000401098 0.00011785 0)
(-0.000471448 0.00012675 0)
(-0.00054659 0.000135275 0)
(-0.000626329 0.000143415 0)
(-0.000710462 0.000151162 0)
(-0.000798779 0.000158517 0)
(-0.000891074 0.000165477 0)
(-0.000987134 0.000172047 0)
(-0.00108675 0.000178229 0)
(-0.00118972 0.000184029 0)
(-0.00129583 0.000189453 0)
(-0.00140487 0.000194509 0)
(-0.00151666 0.000199205 0)
(-0.00163099 0.000203549 0)
(-0.00174768 0.000207551 0)
(-0.00186652 0.000211218 0)
(-0.00198736 0.00021456 0)
(-0.00210999 0.000217588 0)
(-0.00223425 0.00022031 0)
(-0.00235998 0.000222735 0)
(-0.00248701 0.000224872 0)
(-0.00261517 0.000226732 0)
(-0.00274432 0.000228322 0)
(-0.00287431 0.000229651 0)
(-0.00300499 0.000230727 0)
(-0.00313621 0.000231559 0)
(-0.00326785 0.000232155 0)
(-0.00339977 0.000232522 0)
(-0.00353185 0.000232668 0)
(-0.00366396 0.000232599 0)
(-0.00379597 0.000232322 0)
(-0.00392778 0.000231844 0)
(-0.00405926 0.00023117 0)
(-0.00419032 0.000230307 0)
(-0.00432083 0.000229259 0)
(-0.00445071 0.000228032 0)
(-0.00457983 0.00022663 0)
(-0.00470812 0.000225059 0)
(-0.00483547 0.000223322 0)
(-0.00496178 0.000221423 0)
(-0.00508697 0.000219366 0)
(-0.00521094 0.000217155 0)
(-0.00533361 0.000214792 0)
(-0.00545489 0.000212281 0)
(-0.0055747 0.000209623 0)
(-0.00569295 0.000206823 0)
(-0.00580957 0.000203881 0)
(-0.00592446 0.0002008 0)
(-0.00603756 0.000197582 0)
(-0.00614878 0.000194229 0)
(-0.00625804 0.000190742 0)
(-0.00636528 0.000187122 0)
(-0.00647041 0.000183372 0)
(-0.00657337 0.000179492 0)
(-0.00667407 0.000175484 0)
(-0.00677244 0.000171348 0)
(-0.00686842 0.000167085 0)
(-0.00696192 0.000162698 0)
(-0.00705289 0.000158185 0)
(-0.00714124 0.00015355 0)
(-0.00722691 0.000148791 0)
(-0.00730983 0.000143911 0)
(-0.00738994 0.000138911 0)
(-0.00746715 0.000133791 0)
(-0.00754141 0.000128552 0)
(-0.00761265 0.000123196 0)
(-0.0076808 0.000117724 0)
(-0.0077458 0.000112137 0)
(-0.00780758 0.000106437 0)
(-0.00786608 0.000100625 0)
(-0.00792124 9.4703e-05 0)
(-0.007973 8.86732e-05 0)
(-0.0080213 8.25374e-05 0)
(-0.00806607 7.62978e-05 0)
(-0.00810727 6.9957e-05 0)
(-0.00814483 6.35174e-05 0)
(-0.00817871 5.6982e-05 0)
(-0.00820884 5.03537e-05 0)
(-0.00823518 4.36358e-05 0)
(-0.00825769 3.68319e-05 0)
(-0.0082763 2.99458e-05 0)
(-0.00829099 2.29813e-05 0)
(-0.0083017 1.59427e-05 0)
(-0.0083084 8.83454e-06 0)
(-0.00831105 1.66164e-06 0)
(-0.00830962 -5.57095e-06 0)
(-0.00830408 -1.28579e-05 0)
(-0.00829439 -2.01936e-05 0)
(-0.00828054 -2.75721e-05 0)
(-0.0082625 -3.49874e-05 0)
(-0.00824026 -4.2433e-05 0)
(-0.00821379 -4.99021e-05 0)
(-0.0081831 -5.73877e-05 0)
(-0.00814817 -6.48827e-05 0)
(-0.008109 -7.23794e-05 0)
(-0.0080656 -7.987e-05 0)
(-0.00801798 -8.73465e-05 0)
(-0.00796613 -9.48006e-05 0)
(-0.00791009 -0.000102224 0)
(-0.00784987 -0.000109607 0)
(-0.00778549 -0.000116942 0)
(-0.007717 -0.000124218 0)
(-0.00764441 -0.000131428 0)
(-0.00756779 -0.00013856 0)
(-0.00748717 -0.000145606 0)
(-0.0074026 -0.000152554 0)
(-0.00731415 -0.000159396 0)
(-0.00722188 -0.000166122 0)
(-0.00712586 -0.000172719 0)
(-0.00702616 -0.00017918 0)
(-0.00692287 -0.000185492 0)
(-0.00681606 -0.000191645 0)
(-0.00670584 -0.000197629 0)
(-0.00659231 -0.000203434 0)
(-0.00647556 -0.000209048 0)
(-0.00635572 -0.000214462 0)
(-0.00623288 -0.000219664 0)
(-0.00610719 -0.000224645 0)
(-0.00597876 -0.000229394 0)
(-0.00584772 -0.000233901 0)
(-0.00571423 -0.000238156 0)
(-0.00557841 -0.00024215 0)
(-0.00544043 -0.000245872 0)
(-0.00530043 -0.000249313 0)
(-0.00515859 -0.000252465 0)
(-0.00501505 -0.000255319 0)
(-0.00487 -0.000257865 0)
(-0.0047236 -0.000260095 0)
(-0.00457604 -0.000262002 0)
(-0.0044275 -0.000263579 0)
(-0.00427816 -0.000264817 0)
(-0.00412823 -0.00026571 0)
(-0.00397789 -0.000266252 0)
(-0.00382734 -0.000266437 0)
(-0.00367678 -0.000266259 0)
(-0.00352643 -0.000265713 0)
(-0.00337647 -0.000264795 0)
(-0.00322714 -0.0002635 0)
(-0.00307862 -0.000261825 0)
(-0.00293115 -0.000259768 0)
(-0.00278493 -0.000257325 0)
(-0.00264017 -0.000254495 0)
(-0.0024971 -0.000251277 0)
(-0.00235594 -0.000247669 0)
(-0.00221689 -0.000243672 0)
(-0.00208017 -0.000239286 0)
(-0.00194601 -0.000234513 0)
(-0.00181461 -0.000229354 0)
(-0.00168618 -0.000223812 0)
(-0.00156095 -0.00021789 0)
(-0.00143911 -0.000211593 0)
(-0.00132087 -0.000204925 0)
(-0.00120644 -0.000197893 0)
(-0.00109601 -0.000190503 0)
(-0.000989781 -0.000182764 0)
(-0.000887933 -0.000174684 0)
(-0.00079065 -0.000166275 0)
(-0.000698107 -0.000157549 0)
(-0.000610471 -0.000148519 0)
(-0.000527898 -0.000139203 0)
(-0.000450535 -0.000129617 0)
(-0.000378517 -0.000119785 0)
(-0.000311963 -0.00010973 0)
(-0.000250978 -9.94822e-05 0)
(-0.000195647 -8.90747e-05 0)
(-0.000146034 -7.8548e-05 0)
(-0.000102178 -6.79494e-05 0)
(-6.40871e-05 -5.73357e-05 0)
(-3.17353e-05 -4.67749e-05 0)
(-5.05506e-06 -3.63494e-05 0)
(1.607e-05 -2.61594e-05 0)
(3.18146e-05 -1.63276e-05 0)
(4.24223e-05 -7.00495e-06 0)
(4.8219e-05 1.62223e-06 0)
(4.96274e-05 9.32321e-06 0)
(4.71843e-05 1.58134e-05 0)
(4.15586e-05 2.07444e-05 0)
(3.35712e-05 2.36989e-05 0)
(2.41938e-05 2.41969e-05 0)
(1.45416e-05 2.17262e-05 0)
(6.12946e-06 1.58275e-05 0)
(1.23179e-06 6.32682e-06 0)
(1.1129e-06 -9.4046e-06 0)
(4.87879e-06 -2.0172e-05 0)
(1.02999e-05 -2.42616e-05 0)
(1.49689e-05 -2.28913e-05 0)
(1.72606e-05 -1.71487e-05 0)
(1.60065e-05 -7.99425e-06 0)
(1.02485e-05 3.75592e-06 0)
(-7.79247e-07 1.74277e-05 0)
(-1.76634e-05 3.24745e-05 0)
(-4.08361e-05 4.84589e-05 0)
(-7.06004e-05 6.50316e-05 0)
(-0.000107151 8.19148e-05 0)
(-0.000150589 9.88888e-05 0)
(-0.000200944 0.00011578 0)
(-0.000258181 0.000132454 0)
(-0.000322215 0.0001488 0)
(-0.000392922 0.000164737 0)
(-0.000470143 0.0001802 0)
(-0.000553693 0.000195139 0)
(-0.000643367 0.000209518 0)
(-0.000738946 0.00022331 0)
(-0.000840195 0.000236495 0)
(-0.000946874 0.000249062 0)
(-0.00105873 0.000261006 0)
(-0.00117552 0.000272322 0)
(-0.00129699 0.000283014 0)
(-0.00142287 0.000293086 0)
(-0.00155293 0.000302544 0)
(-0.0016869 0.000311399 0)
(-0.00182454 0.000319659 0)
(-0.0019656 0.000327338 0)
(-0.00210984 0.000334448 0)
(-0.00225703 0.000341001 0)
(-0.00240693 0.000347013 0)
(-0.00255931 0.000352498 0)
(-0.00271396 0.000357469 0)
(-0.00287067 0.000361942 0)
(-0.00302921 0.000365931 0)
(-0.00318938 0.00036945 0)
(-0.003351 0.000372514 0)
(-0.00351386 0.000375137 0)
(-0.00367777 0.000377333 0)
(-0.00384256 0.000379115 0)
(-0.00400805 0.000380496 0)
(-0.00417406 0.000381488 0)
(-0.00434043 0.000382104 0)
(-0.004507 0.000382356 0)
(-0.00467362 0.000382254 0)
(-0.00484012 0.000381811 0)
(-0.00500637 0.000381034 0)
(-0.00517221 0.000379936 0)
(-0.00533751 0.000378524 0)
(-0.00550214 0.000376808 0)
(-0.00566595 0.000374796 0)
(-0.00582883 0.000372496 0)
(-0.00599065 0.000369915 0)
(-0.00615128 0.00036706 0)
(-0.0063106 0.000363938 0)
(-0.00646851 0.000360554 0)
(-0.00662488 0.000356915 0)
(-0.0067796 0.000353025 0)
(-0.00693257 0.000348889 0)
(-0.00708367 0.000344513 0)
(-0.0072328 0.000339899 0)
(-0.00737986 0.000335052 0)
(-0.00752474 0.000329975 0)
(-0.00766735 0.000324672 0)
(-0.00780758 0.000319145 0)
(-0.00794534 0.000313397 0)
(-0.00808053 0.000307431 0)
(-0.00821305 0.000301249 0)
(-0.00834281 0.000294853 0)
(-0.00846972 0.000288245 0)
(-0.00859369 0.000281427 0)
(-0.00871462 0.000274401 0)
(-0.00883242 0.000267169 0)
(-0.008947 0.000259732 0)
(-0.00905828 0.000252092 0)
(-0.00916616 0.000244251 0)
(-0.00927057 0.00023621 0)
(-0.0093714 0.00022797 0)
(-0.00946858 0.000219535 0)
(-0.00956202 0.000210906 0)
(-0.00965165 0.000202084 0)
(-0.00973736 0.000193072 0)
(-0.0098191 0.000183873 0)
(-0.00989676 0.000174488 0)
(-0.00997028 0.000164921 0)
(-0.0100396 0.000155175 0)
(-0.0101046 0.000145252 0)
(-0.0101652 0.000135157 0)
(-0.0102214 0.000124892 0)
(-0.010273 0.000114463 0)
(-0.0103201 0.000103873 0)
(-0.0103625 9.31266e-05 0)
(-0.0104002 8.22298e-05 0)
(-0.0104332 7.11877e-05 0)
(-0.0104612 6.0006e-05 0)
(-0.0104844 4.8691e-05 0)
(-0.0105026 3.72493e-05 0)
(-0.0105158 2.5688e-05 0)
(-0.010524 1.40144e-05 0)
(-0.010527 2.23651e-06 0)
(-0.0105249 -9.63741e-06 0)
(-0.0105177 -2.15986e-05 0)
(-0.0105052 -3.36377e-05 0)
(-0.0104875 -4.57452e-05 0)
(-0.0104645 -5.79109e-05 0)
(-0.0104362 -7.01243e-05 0)
(-0.0104026 -8.23743e-05 0)
(-0.0103637 -9.46495e-05 0)
(-0.0103194 -0.000106938 0)
(-0.0102699 -0.000119227 0)
(-0.010215 -0.000131505 0)
(-0.0101548 -0.000143758 0)
(-0.0100893 -0.000155972 0)
(-0.0100185 -0.000168134 0)
(-0.00994251 -0.000180228 0)
(-0.00986128 -0.000192242 0)
(-0.00977488 -0.000204158 0)
(-0.00968335 -0.000215963 0)
(-0.00958674 -0.00022764 0)
(-0.00948512 -0.000239174 0)
(-0.00937855 -0.000250548 0)
(-0.00926711 -0.000261745 0)
(-0.00915088 -0.00027275 0)
(-0.00902994 -0.000283546 0)
(-0.00890439 -0.000294115 0)
(-0.00877434 -0.000304441 0)
(-0.00863989 -0.000314506 0)
(-0.00850116 -0.000324294 0)
(-0.00835827 -0.000333786 0)
(-0.00821136 -0.000342967 0)
(-0.00806056 -0.000351819 0)
(-0.00790603 -0.000360324 0)
(-0.0077479 -0.000368467 0)
(-0.00758635 -0.000376231 0)
(-0.00742155 -0.000383598 0)
(-0.00725366 -0.000390554 0)
(-0.00708286 -0.000397081 0)
(-0.00690935 -0.000403165 0)
(-0.00673332 -0.00040879 0)
(-0.00655497 -0.000413942 0)
(-0.0063745 -0.000418605 0)
(-0.00619214 -0.000422767 0)
(-0.00600809 -0.000426414 0)
(-0.00582258 -0.000429532 0)
(-0.00563584 -0.00043211 0)
(-0.00544811 -0.000434137 0)
(-0.00525962 -0.0004356 0)
(-0.00507062 -0.00043649 0)
(-0.00488135 -0.000436798 0)
(-0.00469207 -0.000436514 0)
(-0.00450303 -0.00043563 0)
(-0.00431449 -0.000434139 0)
(-0.00412671 -0.000432035 0)
(-0.00393996 -0.000429312 0)
(-0.00375449 -0.000425965 0)
(-0.00357058 -0.00042199 0)
(-0.0033885 -0.000417385 0)
(-0.0032085 -0.000412148 0)
(-0.00303087 -0.000406278 0)
(-0.00285587 -0.000399774 0)
(-0.00268378 -0.000392639 0)
(-0.00251485 -0.000384874 0)
(-0.00234935 -0.000376484 0)
(-0.00218755 -0.000367472 0)
(-0.00202971 -0.000357844 0)
(-0.00187609 -0.000347609 0)
(-0.00172694 -0.000336774 0)
(-0.0015825 -0.000325351 0)
(-0.00144303 -0.000313351 0)
(-0.00130876 -0.000300789 0)
(-0.00117992 -0.00028768 0)
(-0.00105672 -0.000274043 0)
(-0.000939395 -0.000259899 0)
(-0.000828131 -0.000245271 0)
(-0.00072312 -0.000230189 0)
(-0.000624538 -0.000214683 0)
(-0.000532543 -0.00019879 0)
(-0.000447278 -0.000182552 0)
(-0.000368863 -0.000166018 0)
(-0.000297394 -0.000149245 0)
(-0.00023294 -0.0001323 0)
(-0.000175539 -0.000115262 0)
(-0.000125191 -9.82226e-05 0)
(-8.18542e-05 -8.12935e-05 0)
(-4.5437e-05 -6.4607e-05 0)
(-1.57893e-05 -4.83221e-05 0)
(7.30615e-06 -3.26308e-05 0)
(2.41455e-05 -1.77655e-05 0)
(3.5116e-05 -4.00779e-06 0)
(4.07105e-05 8.30092e-06 0)
(4.15421e-05 1.87488e-05 0)
(3.83613e-05 2.68436e-05 0)
(3.20742e-05 3.20073e-05 0)
(2.37418e-05 3.3581e-05 0)
(1.45815e-05 3.08508e-05 0)
(6.25718e-06 2.31049e-05 0)
(1.27872e-06 9.72611e-06 0)
(9.42615e-07 -1.18686e-05 0)
(3.85116e-06 -2.45568e-05 0)
(7.45484e-06 -2.83648e-05 0)
(9.43649e-06 -2.50085e-05 0)
(8.17229e-06 -1.59047e-05 0)
(2.46243e-06 -2.27789e-06 0)
(-8.68013e-06 1.48324e-05 0)
(-2.60497e-05 3.45605e-05 0)
(-5.02627e-05 5.61948e-05 0)
(-8.17823e-05 7.9154e-05 0)
(-0.00012094 0.000102966 0)
(-0.000167953 0.000127249 0)
(-0.000222941 0.000151698 0)
(-0.000285943 0.000176066 0)
(-0.00035693 0.000200157 0)
(-0.000435815 0.000223813 0)
(-0.000522466 0.000246912 0)
(-0.00061671 0.000269357 0)
(-0.000718344 0.000291073 0)
(-0.000827141 0.000312002 0)
(-0.000942855 0.000332101 0)
(-0.00106522 0.000351339 0)
(-0.00119397 0.000369697 0)
(-0.00132881 0.000387162 0)
(-0.00146945 0.000403727 0)
(-0.00161562 0.000419393 0)
(-0.00176701 0.000434164 0)
(-0.00192332 0.000448048 0)
(-0.00208427 0.000461057 0)