/*--------------------------------*- C++ -*----------------------------------*\
  =========                 |
  \\      /  F ield         | OpenFOAM: The Open Source CFD Toolbox
   \\    /   O peration     | Website:  https://openfoam.org
    \\  /    A nd           | Version:  7
     \\/     M anipulation  |
\*---------------------------------------------------------------------------*/
FoamFile
{
    version     2.0;
    format      ascii;
    class       volVectorField;
    location    "2";
    object      U;
}
// * * * * * * * * * * * * * * * * * * * * * * * * * * * * * * * * * * * * * //

dimensions      [0 1 -1 0 0 0 0];

internalField   nonuniform List<vector> 
2418
(
(1.4 1.28658e-15 0)
(1.4 1.29544e-15 0)
(1.4 1.17324e-15 0)
(1.4 9.19388e-16 0)
(1.4 6.46281e-16 0)
(1.4 3.80538e-16 0)
(1.4 1.7736e-16 0)
(1.4 2.67271e-16 0)
(1.4 4.50375e-16 0)
(1.4 6.71224e-16 0)
(1.4 7.66968e-16 0)
(1.4 7.07609e-16 0)
(1.4 5.83608e-16 0)
(1.4 3.74512e-16 0)
(1.4 6.16514e-16 0)
(1.4 8.24715e-16 0)
(1.4 9.80909e-16 0)
(1.4 1.50135e-15 0)
(1.4 1.55411e-15 0)
(1.4 1.55946e-15 0)
(1.4 1.82631e-15 0)
(1.4 2.02239e-15 0)
(1.4 2.102e-15 0)
(1.4 2.03039e-15 0)
(1.4 2.07766e-15 0)
(1.4 2.1148e-15 0)
(1.4 2.43255e-15 0)
(1.4 2.91259e-15 0)
(1.4 2.89715e-15 0)
(1.4 2.94063e-15 0)
(1.4 2.97043e-15 0)
(1.4 2.84128e-15 0)
(1.4 2.69855e-15 0)
(1.4 2.77735e-15 0)
(1.4 2.94775e-15 0)
(1.4 2.99053e-15 0)
(1.4 3.0444e-15 0)
(1.4 2.93187e-15 0)
(1.4 2.70781e-15 0)
(1.4 2.59213e-15 0)
(1.4 2.38959e-15 0)
(1.4 2.26919e-15 0)
(1.4 1.0554e-15 0)
(1.4 1.0688e-15 0)
(1.4 1.0222e-15 0)
(1.4 1.00531e-15 0)
(1.4 7.88691e-16 0)
(1.4 6.14159e-16 0)
(1.4 4.26768e-16 0)
(1.4 4.52717e-16 0)
(1.4 3.37063e-16 0)
(1.4 2.05871e-16 0)
(1.4 1.41152e-16 0)
(1.4 9.4941e-17 0)
(1.4 6.42548e-17 0)
(1.4 5.29364e-17 0)
(1.4 1.32507e-16 0)
(1.4 2.90389e-16 0)
(1.4 6.49242e-16 0)
(1.4 7.79189e-16 0)
(1.4 8.56449e-16 0)
(1.4 8.16742e-16 0)
(1.4 8.99793e-16 0)
(1.4 1.1188e-15 0)
(1.4 1.26298e-15 0)
(1.4 1.21348e-15 0)
(1.4 1.13594e-15 0)
(1.4 1.18713e-15 0)
(1.4 1.37834e-15 0)
(1.4 1.64257e-15 0)
(1.4 1.73531e-15 0)
(1.4 1.44081e-15 0)
(1.4 1.37093e-15 0)
(1.4 1.32322e-15 0)
(1.4 1.41839e-15 0)
(1.4 1.74505e-15 0)
(1.4 1.40909e-15 0)
(1.4 1.09488e-15 0)
(1.4 7.34311e-16 0)
(1.4 5.20966e-16 0)
(1.4 3.19793e-16 0)
(1.4 2.09971e-16 0)
(1.4 7.80769e-17 0)
(1.4 -1.70898e-16 0)
(1.4 -2.76892e-16 0)
(1.4 -1.56742e-16 0)
(1.4 1.15893e-16 0)
(1.4 2.06744e-16 0)
(1.4 4.51101e-16 0)
(1.4 8.15591e-16 0)
(1.4 1.19856e-15 0)
(1.4 1.64327e-15 0)
(1.4 1.69074e-15 0)
(1.4 1.59059e-15 0)
(1.4 1.56865e-15 0)
(1.4 1.56002e-15 0)
(1.4 1.51503e-15 0)
(1.4 1.48552e-15 0)
(1.4 1.5006e-15 0)
(1.4 1.6365e-15 0)
(1.4 1.64856e-15 0)
(1.4 1.76173e-15 0)
(1.4 1.84224e-15 0)
(1.4 1.86819e-15 0)
(1.4 2.07649e-15 0)
(1.4 2.56899e-15 0)
(1.4 2.68267e-15 0)
(1.4 2.65729e-15 0)
(1.4 2.49538e-15 0)
(1.4 2.43494e-15 0)
(1.4 2.3549e-15 0)
(1.4 2.46025e-15 0)
(1.4 2.28845e-15 0)
(1.4 1.41036e-15 0)
(1.4 1.14277e-15 0)
(1.4 1.14647e-15 0)
(1.4 8.12574e-16 0)
(1.4 7.41009e-16 0)
(1.4 9.02831e-16 0)
(1.4 7.42895e-16 0)
(1.4 3.48633e-17 0)
(1.4 -7.86498e-17 0)
(1.4 -7.16744e-17 0)
(1.4 9.75561e-17 0)
(1.4 3.46221e-16 0)
(1.4 7.177e-16 0)
(1.4 1.18265e-15 0)
(1.4 1.60058e-15 0)
(1.4 1.76873e-15 0)
(1.4 1.89129e-15 0)
(1.4 2.25781e-15 0)
(1.4 2.69218e-15 0)
(1.4 2.8693e-15 0)
(1.4 2.82508e-15 0)
(1.4 2.78815e-15 0)
(1.4 2.76581e-15 0)
(1.4 2.8711e-15 0)
(1.4 2.94789e-15 0)
(1.4 2.99861e-15 0)
(1.4 2.99601e-15 0)
(1.4 2.83064e-15 0)
(1.4 2.62373e-15 0)
(1.4 2.43351e-15 0)
(1.4 2.24357e-15 0)
(1.4 1.92981e-15 0)
(1.4 1.86952e-15 0)
(1.4 2.15829e-15 0)
(1.4 2.53885e-15 0)
(1.4 2.67626e-15 0)
(1.4 2.79562e-15 0)
(1.4 3.0318e-15 0)
(1.4 2.98172e-15 0)
(1.4 3.13192e-15 0)
(1.4 3.35815e-15 0)
(1.4 3.74331e-15 0)
(1.4 4.02016e-15 0)
(1.4 4.18666e-15 0)
(1.4 4.34767e-15 0)
(1.4 4.4113e-15 0)
(1.4 4.20441e-15 0)
(1.4 3.86527e-15 0)
(1.4 3.83554e-15 0)
(1.4 3.78282e-15 0)
(1.4 3.74575e-15 0)
(1.4 3.72824e-15 0)
(1.4 3.71835e-15 0)
(1.4 3.71967e-15 0)
(1.4 3.76148e-15 0)
(1.4 3.7043e-15 0)
(1.4 3.60634e-15 0)
(1.4 3.4014e-15 0)
(1.4 3.35938e-15 0)
(1.4 3.52383e-15 0)
(1.4 3.55239e-15 0)
(1.4 3.05173e-16 0)
(1.4 2.34664e-16 0)
(1.4 2.51959e-16 0)
(1.4 3.6436e-16 0)
(1.4 4.69018e-16 0)
(1.4 4.47973e-16 0)
(1.4 4.28838e-16 0)
(1.4 2.03797e-16 0)
(1.4 -2.52853e-16 0)
(1.4 -3.10326e-16 0)
(1.4 -5.6756e-16 0)
(1.4 -6.2328e-16 0)
(1.4 -6.83585e-16 0)
(1.4 -8.73846e-16 0)
(1.4 -8.21756e-16 0)
(1.4 -5.86498e-16 0)
(1.4 -3.91818e-16 0)
(1.4 -2.77504e-16 0)
(1.4 -9.30778e-17 0)
(1.4 -3.0239e-16 0)
(1.4 -3.41349e-17 0)
(1.4 2.16124e-16 0)
(1.4 1.25588e-15 0)
(1.4 2.37333e-15 0)
(1.4 2.43182e-15 0)
(1.4 2.52978e-15 0)
(1.4 2.48176e-15 0)
(1.4 2.25948e-15 0)
(1.4 1.73347e-15 0)
(1.4 1.45291e-15 0)
(1.4 1.29535e-15 0)
(1.4 1.00794e-15 0)
(1.4 7.51488e-16 0)
(1.4 5.69404e-16 0)
(1.4 1.85373e-16 0)
(1.4 -5.51089e-16 0)
(1.4 -8.5273e-16 0)
(1.4 -1.47719e-15 0)
(1.4 -1.87281e-15 0)
(1.4 -2.16645e-15 0)
(1.4 -2.60623e-15 0)
(1.4 -2.77925e-15 0)
(1.4 -2.63293e-15 0)
(1.4 -2.3024e-15 0)
(1.4 -2.08469e-15 0)
(1.4 -1.69631e-15 0)
(1.4 -1.12277e-15 0)
(1.4 -8.28753e-16 0)
(1.4 -4.86417e-16 0)
(1.4 1.75697e-16 0)
(1.4 4.86527e-16 0)
(1.4 5.14054e-16 0)
(1.4 5.16953e-16 0)
(1.4 6.68389e-16 0)
(1.4 7.52036e-16 0)
(1.4 8.41021e-16 0)
(1.4 7.74974e-16 0)
(1.4 8.36125e-16 0)
(1.4 8.69348e-16 0)
(1.4 8.75545e-16 0)
(1.4 8.81963e-16 0)
(1.4 9.17371e-16 0)
(1.4 8.9057e-16 0)
(1.4 1.27382e-15 0)
(1.4 1.52552e-15 0)
(1.4 1.51432e-15 0)
(1.4 1.40362e-15 0)
(1.4 1.36247e-15 0)
(1.4 1.33127e-15 0)
(1.4 1.43489e-15 0)
(1.4 1.60106e-15 0)
(1.4 1.66748e-15 0)
(1.4 1.63946e-15 0)
(1.4 1.68663e-15 0)
(1.4 1.81236e-15 0)
(1.4 1.77847e-15 0)
(1.4 1.80659e-15 0)
(1.4 1.91136e-15 0)
(1.4 1.90404e-15 0)
(1.4 1.94169e-15 0)
(1.4 1.82089e-15 0)
(1.4 1.81974e-15 0)
(1.4 1.82562e-15 0)
(1.4 2.16153e-15 0)
(1.4 2.51245e-15 0)
(1.4 2.81192e-15 0)
(1.4 3.09448e-15 0)
(1.4 3.22755e-15 0)
(1.4 3.29955e-15 0)
(1.4 3.52481e-15 0)
(1.4 3.66149e-15 0)
(1.4 3.70453e-15 0)
(1.4 3.87871e-15 0)
(1.4 3.81635e-15 0)
(1.4 3.97553e-15 0)
(1.4 4.04026e-15 0)
(1.4 4.10432e-15 0)
(1.4 4.17933e-15 0)
(1.4 4.17104e-15 0)
(1.4 4.05808e-15 0)
(1.4 3.71303e-15 0)
(1.4 3.31609e-15 0)
(1.4 2.95534e-15 0)
(1.4 2.99261e-15 0)
(1.4 3.19204e-15 0)
(1.4 3.51576e-15 0)
(1.4 3.83501e-15 0)
(1.4 4.01031e-15 0)
(1.4 4.26418e-15 0)
(1.4 4.45366e-15 0)
(1.4 4.47613e-15 0)
(1.4 4.68368e-15 0)
(1.4 5.23762e-15 0)
(1.4 5.45203e-15 0)
(1.4 5.35269e-15 0)
(1.4 5.03591e-15 0)
(1.4 4.58918e-15 0)
(1.4 4.01762e-15 0)
(1.4 3.4508e-15 0)
(1.4 3.27774e-15 0)
(1.4 3.40955e-15 0)
(1.4 3.74537e-15 0)
(1.4 3.82811e-15 0)
(1.4 3.74895e-15 0)
(1.4 3.5899e-15 0)
(1.4 3.56382e-15 0)
(1.4 3.52504e-15 0)
(1.4 3.47191e-15 0)
(1.4 3.62754e-15 0)
(1.4 3.91744e-15 0)
(1.4 4.01424e-15 0)
(1.4 4.08293e-15 0)
(1.4 -5.84001e-16 0)
(1.4 -4.94677e-16 0)
(1.4 -4.34258e-16 0)
(1.4 -5.24804e-16 0)
(1.4 -1.50725e-16 0)
(1.4 -2.72641e-17 0)
(1.4 6.36699e-17 0)
(1.4 8.18803e-17 0)
(1.4 1.92461e-16 0)
(1.4 2.34423e-16 0)
(1.4 2.41963e-16 0)
(1.4 2.58423e-16 0)
(1.4 1.68714e-16 0)
(1.4 1.30573e-17 0)
(1.4 -1.75309e-16 0)
(1.4 -3.75661e-16 0)
(1.4 -5.83198e-16 0)
(1.4 -6.03629e-16 0)
(1.4 -6.08156e-16 0)
(1.4 -5.54669e-16 0)
(1.4 -3.95243e-16 0)
(1.4 -1.63597e-16 0)
(1.4 5.02984e-16 0)
(1.4 9.47527e-16 0)
(1.4 9.91853e-16 0)
(1.4 1.00444e-15 0)
(1.4 1.11841e-15 0)
(1.4 7.38927e-16 0)
(1.4 4.91018e-16 0)
(1.4 2.99554e-16 0)
(1.4 -1.04319e-16 0)
(1.4 -2.59851e-16 0)
(1.4 -7.16451e-16 0)
(1.4 -1.42402e-15 0)
(1.4 -1.68182e-15 0)
(1.4 -1.83862e-15 0)
(1.4 -1.84812e-15 0)
(1.4 -1.86796e-15 0)
(1.4 -1.95019e-15 0)
(1.4 -2.01856e-15 0)
(1.4 -1.98817e-15 0)
(1.4 -2.03511e-15 0)
(1.4 -2.09292e-15 0)
(1.4 -2.04537e-15 0)
(1.4 -1.96056e-15 0)
(1.4 -1.94504e-15 0)
(1.4 -2.07787e-15 0)
(1.4 -1.97671e-15 0)
(1.4 -1.85525e-15 0)
(1.4 -1.72754e-15 0)
(1.4 -1.47667e-15 0)
(1.4 -1.20734e-15 0)
(1.4 -8.22922e-16 0)
(1.4 -6.07903e-16 0)
(1.4 -7.58812e-16 0)
(1.4 -7.4129e-16 0)
(1.4 -5.31883e-16 0)
(1.4 -3.18623e-16 0)
(1.4 -5.04794e-17 0)
(1.4 -2.91715e-17 0)
(1.4 1.1651e-16 0)
(1.4 3.28955e-16 0)
(1.4 6.08597e-16 0)
(1.4 7.08073e-16 0)
(1.4 9.09089e-16 0)
(1.4 1.36542e-15 0)
(1.4 2.00182e-15 0)
(1.4 2.12174e-15 0)
(1.4 2.23358e-15 0)
(1.4 2.28163e-15 0)
(1.4 2.4864e-15 0)
(1.4 2.67538e-15 0)
(1.4 2.85608e-15 0)
(1.4 2.84159e-15 0)
(1.4 2.65117e-15 0)
(1.4 2.5431e-15 0)
(1.4 2.57762e-15 0)
(1.4 2.4533e-15 0)
(1.4 2.48172e-15 0)
(1.4 2.43854e-15 0)
(1.4 2.50679e-15 0)
(1.4 2.4993e-15 0)
(1.4 2.48446e-15 0)
(1.4 2.12694e-15 0)
(1.4 1.76583e-15 0)
(1.4 1.63317e-15 0)
(1.4 1.55273e-15 0)
(1.4 1.58521e-15 0)
(1.4 1.50136e-15 0)
(1.4 1.43995e-15 0)
(1.4 1.78915e-15 0)
(1.4 2.02507e-15 0)
(1.4 2.38458e-15 0)
(1.4 2.80824e-15 0)
(1.4 2.94769e-15 0)
(1.4 2.89738e-15 0)
(1.4 2.78425e-15 0)
(1.4 2.68893e-15 0)
(1.4 2.64663e-15 0)
(1.4 2.8034e-15 0)
(1.4 2.94533e-15 0)
(1.4 2.9971e-15 0)
(1.4 3.28509e-15 0)
(1.4 3.60185e-15 0)
(1.4 3.92685e-15 0)
(1.4 4.15937e-15 0)
(1.4 4.35699e-15 0)
(1.4 4.41287e-15 0)
(1.4 4.47891e-15 0)
(1.4 4.56707e-15 0)
(1.4 4.54506e-15 0)
(1.4 4.46026e-15 0)
(1.4 4.36544e-15 0)
(1.4 4.17148e-15 0)
(1.4 4.02218e-15 0)
(1.4 3.83406e-15 0)
(1.4 3.27473e-15 0)
(1.4 3.09239e-15 0)
(1.4 2.95423e-15 0)
(1.4 2.84533e-15 0)
(1.4 2.49117e-15 0)
(1.4 2.16384e-15 0)
(1.4 2.12143e-15 0)
(1.4 1.99915e-15 0)
(1.4 2.01606e-15 0)
(1.4 2.04137e-15 0)
(1.4 2.10372e-15 0)
(1.4 2.38622e-15 0)
(1.4 2.8882e-15 0)
(1.4 3.04987e-15 0)
(1.4 3.22939e-15 0)
(1.4 3.52778e-15 0)
(1.4 5.31639e-16 0)
(1.4 4.64751e-16 0)
(1.4 4.86883e-16 0)
(1.4 8.18751e-16 0)
(1.4 7.39517e-16 0)
(1.4 9.67038e-16 0)
(1.4 1.57044e-15 0)
(1.4 1.95982e-15 0)
(1.4 1.96787e-15 0)
(1.4 1.88126e-15 0)
(1.4 1.73308e-15 0)
(1.4 1.53694e-15 0)
(1.4 1.52955e-15 0)
(1.4 1.57068e-15 0)
(1.4 1.49924e-15 0)
(1.4 1.25782e-15 0)
(1.4 1.13713e-15 0)
(1.4 8.14426e-16 0)
(1.4 3.96913e-16 0)
(1.4 1.58704e-16 0)
(1.4 1.089e-16 0)
(1.4 1.91121e-17 0)
(1.4 -1.233e-16 0)
(1.4 -5.79161e-16 0)
(1.4 -6.70409e-16 0)
(1.4 -1.06437e-15 0)
(1.4 -1.14374e-15 0)
(1.4 -1.31208e-15 0)
(1.4 -1.26725e-15 0)
(1.4 -1.30626e-15 0)
(1.4 -1.41374e-15 0)
(1.4 -1.61784e-15 0)
(1.4 -1.67477e-15 0)
(1.4 -1.81359e-15 0)
(1.4 -1.95758e-15 0)
(1.4 -2.03998e-15 0)
(1.4 -1.67931e-15 0)
(1.4 -1.16279e-15 0)
(1.4 -9.59045e-16 0)
(1.4 -7.94942e-16 0)
(1.4 -4.80736e-16 0)
(1.4 -3.50606e-16 0)
(1.4 -1.70795e-16 0)
(1.4 -3.79066e-16 0)
(1.4 -5.88299e-16 0)
(1.4 -6.86519e-16 0)
(1.4 -8.28097e-16 0)
(1.4 -1.00277e-15 0)
(1.4 -9.94263e-16 0)
(1.4 -1.17475e-15 0)
(1.4 -1.24352e-15 0)
(1.4 -1.17567e-15 0)
(1.4 -1.12327e-15 0)
(1.4 -1.06963e-15 0)
(1.4 -6.32583e-16 0)
(1.4 -5.94913e-16 0)
(1.4 -2.75398e-16 0)
(1.4 2.32941e-16 0)
(1.4 4.85176e-16 0)
(1.4 9.09663e-16 0)
(1.4 1.01771e-15 0)
(1.4 1.51099e-15 0)
(1.4 1.83307e-15 0)
(1.4 2.22534e-15 0)
(1.4 2.11217e-15 0)
(1.4 2.52328e-15 0)
(1.4 2.78851e-15 0)
(1.4 2.82729e-15 0)
(1.4 2.96653e-15 0)
(1.4 3.07512e-15 0)
(1.4 3.19861e-15 0)
(1.4 3.52853e-15 0)
(1.4 3.76294e-15 0)
(1.4 4.06974e-15 0)
(1.4 4.27046e-15 0)
(1.4 4.41127e-15 0)
(1.4 4.17293e-15 0)
(1.4 3.91977e-15 0)
(1.4 3.83196e-15 0)
(1.4 3.82315e-15 0)
(1.4 3.76591e-15 0)
(1.4 3.39264e-15 0)
(1.4 3.17875e-15 0)
(1.4 3.00687e-15 0)
(1.4 2.52604e-15 0)
(1.4 2.28462e-15 0)
(1.4 1.95322e-15 0)
(1.4 1.77869e-15 0)
(1.4 1.69549e-15 0)
(1.4 1.43963e-15 0)
(1.4 1.49898e-15 0)
(1.4 1.72612e-15 0)
(1.4 1.76805e-15 0)
(1.4 1.85915e-15 0)
(1.4 1.76143e-15 0)
(1.4 1.63175e-15 0)
(1.4 1.39226e-15 0)
(1.4 9.16697e-16 0)
(1.4 6.2417e-16 0)
(1.4 5.33026e-16 0)
(1.4 7.16471e-16 0)
(1.4 1.30445e-15 0)
(1.4 1.88774e-15 0)
(1.4 2.46454e-15 0)
(1.4 2.63881e-15 0)
(1.4 2.67026e-15 0)
(1.4 2.67445e-15 0)
(1.4 2.74646e-15 0)
(1.4 2.76899e-15 0)
(1.4 3.0233e-15 0)
(1.4 2.93866e-15 0)
(1.4 2.63872e-15 0)
(1.4 2.41094e-15 0)
(1.4 2.23343e-15 0)
(1.4 2.31972e-15 0)
(1.4 2.4334e-15 0)
(1.4 2.42305e-15 0)
(1.4 2.37663e-15 0)
(1.4 2.3019e-15 0)
(1.4 2.33066e-15 0)
(1.4 1.94022e-15 0)
(1.4 1.75841e-15 0)
(1.4 1.71612e-15 0)
(1.4 1.13997e-15 0)
(1.4 1.06719e-15 0)
(1.4 9.75538e-16 0)
(1.4 7.76001e-16 0)
(1.4 5.35191e-16 0)
(1.4 6.3559e-16 0)
(1.4 7.94807e-16 0)
(1.4 1.52049e-15 0)
(1.4 2.20073e-15 0)
(1.4 1.11681e-15 0)
(1.4 1.04449e-15 0)
(1.4 9.61011e-16 0)
(1.4 8.11213e-16 0)
(1.4 1.0182e-15 0)
(1.4 1.25939e-15 0)
(1.4 1.34023e-15 0)
(1.4 1.37644e-15 0)
(1.4 1.42123e-15 0)
(1.4 1.5549e-15 0)
(1.4 1.75074e-15 0)
(1.4 1.84867e-15 0)
(1.4 1.96199e-15 0)
(1.4 1.84635e-15 0)
(1.4 1.63062e-15 0)
(1.4 1.30053e-15 0)
(1.4 1.08807e-15 0)
(1.4 8.14492e-16 0)
(1.4 5.44535e-16 0)
(1.4 5.65229e-16 0)
(1.4 2.73882e-17 0)
(1.4 -5.21538e-16 0)
(1.4 -9.35636e-16 0)
(1.4 -1.0838e-15 0)
(1.4 -1.20224e-15 0)
(1.4 -1.3454e-15 0)
(1.4 -1.41203e-15 0)
(1.4 -1.46654e-15 0)
(1.4 -1.75218e-15 0)
(1.4 -1.96632e-15 0)
(1.4 -1.65651e-15 0)
(1.4 -1.05476e-15 0)
(1.4 -5.04371e-16 0)
(1.4 -3.94209e-16 0)
(1.4 -3.09025e-16 0)
(1.4 -4.02239e-16 0)
(1.4 -6.71652e-16 0)
(1.4 -7.57288e-16 0)
(1.4 -6.88878e-16 0)
(1.4 -5.16745e-16 0)
(1.4 -2.73093e-16 0)
(1.4 -8.20285e-18 0)
(1.4 3.65622e-17 0)
(1.4 -2.2631e-17 0)
(1.4 -1.13023e-16 0)
(1.4 -2.4565e-16 0)
(1.4 -1.12966e-16 0)
(1.4 -1.0287e-16 0)
(1.4 -2.81454e-16 0)
(1.4 -3.378e-16 0)
(1.4 -2.07197e-16 0)
(1.4 -1.66623e-16 0)
(1.4 -2.66876e-16 0)
(1.4 -5.02896e-18 0)
(1.4 4.01588e-16 0)
(1.4 6.5843e-16 0)
(1.4 8.38735e-16 0)
(1.4 1.185e-15 0)
(1.4 1.31506e-15 0)
(1.4 1.44112e-15 0)
(1.4 1.52247e-15 0)
(1.4 1.59721e-15 0)
(1.4 1.58859e-15 0)
(1.4 1.40483e-15 0)
(1.4 1.29023e-15 0)
(1.4 1.44622e-15 0)
(1.4 1.46249e-15 0)
(1.4 1.64232e-15 0)
(1.4 2.01729e-15 0)
(1.4 2.36789e-15 0)
(1.4 2.76177e-15 0)
(1.4 3.10378e-15 0)
(1.4 3.2982e-15 0)
(1.4 3.56138e-15 0)
(1.4 3.96102e-15 0)
(1.4 4.43924e-15 0)
(1.4 4.67204e-15 0)
(1.4 4.7482e-15 0)
(1.4 4.69015e-15 0)
(1.4 4.57822e-15 0)
(1.4 4.62781e-15 0)
(1.4 4.48113e-15 0)
(1.4 4.19959e-15 0)
(1.4 3.96211e-15 0)
(1.4 4.03159e-15 0)
(1.4 3.9896e-15 0)
(1.4 3.65466e-15 0)
(1.4 3.5816e-15 0)
(1.4 3.3049e-15 0)
(1.4 2.97387e-15 0)
(1.4 2.50278e-15 0)
(1.4 1.81273e-15 0)
(1.4 1.76606e-15 0)
(1.4 1.37086e-15 0)
(1.4 1.01335e-15 0)
(1.4 6.87895e-16 0)
(1.4 3.58821e-16 0)
(1.4 3.30394e-16 0)
(1.4 2.82193e-16 0)
(1.4 5.68737e-16 0)
(1.4 6.25804e-16 0)
(1.4 6.12402e-16 0)
(1.4 6.82887e-16 0)
(1.4 6.39232e-16 0)
(1.4 6.44867e-16 0)
(1.4 6.12401e-16 0)
(1.4 5.52992e-16 0)
(1.4 6.19547e-16 0)
(1.4 6.07055e-16 0)
(1.4 5.27569e-16 0)
(1.4 6.02868e-16 0)
(1.4 6.15847e-16 0)
(1.4 3.17521e-16 0)
(1.4 -2.10279e-17 0)
(1.4 -1.16331e-16 0)
(1.4 8.15024e-16 0)
(1.4 1.71335e-15 0)
(1.4 1.93695e-15 0)
(1.4 1.95729e-15 0)
(1.4 2.11617e-15 0)
(1.4 2.18951e-15 0)
(1.4 2.18599e-15 0)
(1.4 2.01736e-15 0)
(1.4 1.78274e-15 0)
(1.4 1.25869e-15 0)
(1.4 7.53745e-16 0)
(1.4 5.2082e-16 0)
(1.4 2.77726e-16 0)
(1.4 2.49664e-16 0)
(1.4 6.05557e-16 0)
(1.4 7.66704e-16 0)
(1.4 8.97469e-16 0)
(1.4 1.02989e-15 0)
(1.4 1.2915e-15 0)
(1.4 1.28974e-15 0)
(1.4 1.28895e-15 0)
(1.4 1.22061e-15 0)
(1.4 1.18542e-15 0)
(1.4 9.82199e-16 0)
(1.4 1.10044e-15 0)
(1.4 1.18598e-15 0)
(1.4 1.14925e-15 0)
(1.4 1.35808e-15 0)
(1.4 1.55225e-15 0)
(1.4 1.62616e-15 0)
(1.4 1.33356e-15 0)
(1.4 8.81616e-16 0)
(1.4 8.12137e-16 0)
(1.4 6.91919e-16 0)
(1.4 7.61005e-16 0)
(1.4 8.31626e-16 0)
(1.4 6.32744e-16 0)
(1.4 3.42257e-16 0)
(1.4 3.003e-16 0)
(1.4 1.08798e-18 0)
(1.4 -6.56208e-17 0)
(1.4 -1.20322e-16 0)
(1.4 -1.82182e-16 0)
(1.4 -1.53778e-16 0)
(1.4 -2.20075e-16 0)
(1.4 -2.97756e-16 0)
(1.4 -3.62682e-16 0)
(1.4 -4.34937e-16 0)
(1.4 -5.42381e-16 0)
(1.4 -6.73199e-16 0)
(1.4 -6.64687e-16 0)
(1.4 -5.44592e-16 0)
(1.4 -3.87536e-16 0)
(1.4 -2.12446e-16 0)
(1.4 -2.41007e-16 0)
(1.4 -1.95274e-16 0)
(1.4 -1.60202e-16 0)
(1.4 -1.58784e-16 0)
(1.4 -2.15818e-16 0)
(1.4 -3.9051e-16 0)
(1.4 -4.68266e-16 0)
(1.4 -6.39657e-16 0)
(1.4 -7.5098e-16 0)
(1.4 -7.90954e-16 0)
(1.4 -7.91684e-16 0)
(1.4 -7.95659e-16 0)
(1.4 -7.48885e-16 0)
(1.4 -6.35335e-16 0)
(1.4 -4.08046e-16 0)
(1.4 -1.73645e-16 0)
(1.4 5.87216e-17 0)
(1.4 2.30824e-16 0)
(1.4 2.03793e-16 0)
(1.4 1.11104e-16 0)
(1.4 5.95207e-17 0)
(1.4 1.00734e-16 0)
(1.4 1.55485e-16 0)
(1.4 2.75929e-16 0)
(1.4 4.57383e-16 0)
(1.4 4.58104e-16 0)
(1.4 1.39531e-16 0)
(1.4 2.28227e-16 0)
(1.4 3.36546e-16 0)
(1.4 4.16907e-16 0)
(1.4 4.45628e-16 0)
(1.4 4.57852e-16 0)
(1.4 7.46563e-16 0)
(1.4 1.05914e-15 0)
(1.4 1.24374e-15 0)
(1.4 1.52271e-15 0)
(1.4 1.64455e-15 0)
(1.4 2.0754e-15 0)
(1.4 2.3042e-15 0)
(1.4 2.43074e-15 0)
(1.4 2.882e-15 0)
(1.4 2.98236e-15 0)
(1.4 3.09518e-15 0)
(1.4 3.93445e-15 0)
(1.4 4.16318e-15 0)
(1.4 4.34975e-15 0)
(1.4 4.2487e-15 0)
(1.4 4.26441e-15 0)
(1.4 3.93567e-15 0)
(1.4 3.69715e-15 0)
(1.4 3.55622e-15 0)
(1.4 3.38729e-15 0)
(1.4 3.27016e-15 0)
(1.4 3.0458e-15 0)
(1.4 1.85977e-15 0)
(1.4 1.21071e-15 0)
(1.4 6.98597e-16 0)
(1.4 2.14678e-16 0)
(1.4 2.92422e-16 0)
(1.4 4.90146e-16 0)
(1.4 9.44937e-16 0)
(1.4 9.79785e-16 0)
(1.4 8.46158e-16 0)
(1.4 6.43178e-16 0)
(1.4 7.57308e-16 0)
(1.4 6.96868e-16 0)
(1.4 7.34366e-16 0)
(1.4 7.01078e-16 0)
(1.4 5.13521e-16 0)
(1.4 4.84287e-16 0)
(1.4 2.78563e-16 0)
(1.4 3.00778e-16 0)
(1.4 2.39341e-16 0)
(1.4 2.74403e-16 0)
(1.4 2.72808e-16 0)
(1.4 2.23477e-16 0)
(1.4 5.52967e-17 0)
(1.4 -1.92986e-16 0)
(1.4 -3.85007e-16 0)
(1.4 9.92775e-17 0)
(1.4 8.14918e-16 0)
(1.4 1.33533e-15 0)
(1.4 1.77054e-15 0)
(1.4 2.23454e-15 0)
(1.4 2.55126e-15 0)
(1.4 2.94555e-15 0)
(1.4 2.98484e-15 0)
(1.4 2.92766e-15 0)
(1.4 2.75935e-15 0)
(1.4 2.4549e-15 0)
(1.4 2.05236e-15 0)
(1.4 1.85562e-15 0)
(1.4 1.43476e-15 0)
(1.4 1.09942e-15 0)
(1.4 8.50162e-16 0)
(1.4 1.29541e-15 0)
(1.4 1.42073e-15 0)
(1.4 1.68844e-15 0)
(1.4 1.85274e-15 0)
(1.4 1.89306e-15 0)
(1.4 1.88956e-15 0)
(1.4 1.88123e-15 0)
(1.4 1.91864e-15 0)
(1.4 1.80309e-15 0)
(1.4 1.55788e-15 0)
(1.4 1.15772e-15 0)
(1.4 8.65317e-16 0)
(1.4 7.84081e-16 0)
(1.4 6.63493e-16 0)
(1.4 7.1802e-16 0)
(1.4 6.43999e-16 0)
(1.4 7.38483e-16 0)
(1.4 8.00017e-16 0)
(1.4 1.02263e-15 0)
(1.4 1.17842e-15 0)
(1.4 1.36701e-15 0)
(1.4 1.6441e-15 0)
(1.4 1.61912e-15 0)
(1.4 1.1928e-15 0)
(1.4 1.04907e-15 0)
(1.4 9.22073e-16 0)
(1.4 8.32139e-16 0)
(1.4 8.67105e-16 0)
(1.4 9.82612e-16 0)
(1.4 1.11352e-15 0)
(1.4 1.3418e-15 0)
(1.4 1.44823e-15 0)
(1.4 1.28668e-15 0)
(1.4 1.05537e-15 0)
(1.4 6.31499e-16 0)
(1.4 5.74512e-16 0)
(1.4 2.63911e-16 0)
(1.4 1.20064e-17 0)
(1.4 -1.4979e-16 0)
(1.4 -7.71563e-16 0)
(1.4 -1.03478e-15 0)
(1.4 -1.35703e-15 0)
(1.4 -1.56521e-15 0)
(1.4 -1.42686e-15 0)
(1.4 -1.19532e-15 0)
(1.4 -1.04694e-15 0)
(1.4 -1.19088e-15 0)
(1.4 -1.31395e-15 0)
(1.4 -1.31409e-15 0)
(1.4 -1.31346e-15 0)
(1.4 -1.28407e-15 0)
(1.4 -1.12631e-15 0)
(1.4 -1.1334e-15 0)
(1.4 -1.1546e-15 0)
(1.4 -1.13251e-15 0)
(1.4 -1.08892e-15 0)
(1.4 -1.05123e-15 0)
(1.4 -1.02099e-15 0)
(1.4 -9.54746e-16 0)
(1.4 -8.08246e-16 0)
(1.4 -7.28147e-16 0)
(1.4 -6.86735e-16 0)
(1.4 -6.44827e-16 0)
(1.4 -8.69781e-16 0)
(1.4 -8.4613e-16 0)
(1.4 -8.3714e-16 0)
(1.4 -2.47266e-16 0)
(1.4 1.88117e-16 0)
(1.4 1.78698e-16 0)
(1.4 3.65274e-16 0)
(1.4 4.3575e-17 0)
(1.4 -2.40411e-16 0)
(1.4 -2.34818e-16 0)
(1.4 -1.27897e-16 0)
(1.4 1.83773e-16 0)
(1.4 3.0591e-16 0)
(1.4 8.32194e-16 0)
(1.4 1.27674e-15 0)
(1.4 1.67299e-15 0)
(1.4 1.85678e-15 0)
(1.4 2.21533e-15 0)
(1.4 2.36873e-15 0)
(1.4 2.54407e-15 0)
(1.4 2.83881e-15 0)
(1.4 2.98136e-15 0)
(1.4 3.06757e-15 0)
(1.4 3.15353e-15 0)
(1.4 3.12906e-15 0)
(1.4 2.89798e-15 0)
(1.4 2.74773e-15 0)
(1.4 2.59424e-15 0)
(1.4 2.27767e-15 0)
(1.4 2.22913e-15 0)
(1.4 2.0867e-15 0)
(1.4 1.8592e-15 0)
(1.4 1.92194e-15 0)
(1.4 2.3368e-15 0)
(1.4 2.38637e-15 0)
(1.4 2.28996e-15 0)
(1.4 2.09955e-15 0)
(1.4 1.94683e-15 0)
(1.4 1.60954e-15 0)
(1.4 1.30367e-15 0)
(1.4 1.38377e-15 0)
(1.4 1.47686e-15 0)
(1.4 1.59867e-15 0)
(1.4 1.80049e-15 0)
(1.4 1.77763e-15 0)
(1.4 1.74729e-15 0)
(1.4 1.49049e-15 0)
(1.4 1.2971e-15 0)
(1.4 1.13459e-15 0)
(1.4 9.51741e-16 0)
(1.4 9.03588e-16 0)
(1.4 7.08396e-16 0)
(1.4 6.64036e-16 0)
(1.4 6.2274e-16 0)
(1.4 5.25282e-16 0)
(1.4 8.82646e-16 0)
(1.4 1.12e-15 0)
(1.4 1.6297e-15 0)
(1.4 2.03477e-15 0)
(1.4 2.6701e-15 0)
(1.4 2.86496e-15 0)
(1.4 2.77664e-15 0)
(1.4 2.64379e-15 0)
(1.4 2.53827e-15 0)
(1.4 2.45926e-15 0)
(1.4 2.34497e-15 0)
(1.4 1.92465e-15 0)
(1.4 1.2804e-15 0)
(1.4 5.12404e-16 0)
(1.4 1.41483e-15 0)
(1.4 1.65683e-15 0)
(1.4 1.60993e-15 0)
(1.4 1.77137e-15 0)
(1.4 1.98793e-15 0)
(1.4 2.31582e-15 0)
(1.4 2.47391e-15 0)
(1.4 2.28972e-15 0)
(1.4 2.124e-15 0)
(1.4 2.05268e-15 0)
(1.4 2.00556e-15 0)
(1.4 1.90283e-15 0)
(1.4 1.85504e-15 0)
(1.4 1.77707e-15 0)
(1.4 1.73997e-15 0)
(1.4 1.693e-15 0)
(1.4 1.58218e-15 0)
(1.4 1.62698e-15 0)
(1.4 1.62913e-15 0)
(1.4 1.98124e-15 0)
(1.4 2.18271e-15 0)
(1.4 2.42651e-15 0)
(1.4 2.47788e-15 0)
(1.4 2.57757e-15 0)
(1.4 2.44739e-15 0)
(1.4 2.37695e-15 0)
(1.4 2.313e-15 0)
(1.4 2.37767e-15 0)
(1.4 2.47794e-15 0)
(1.4 2.45192e-15 0)
(1.4 2.50862e-15 0)
(1.4 2.50814e-15 0)
(1.4 2.51392e-15 0)
(1.4 2.35316e-15 0)
(1.4 2.12141e-15 0)
(1.4 1.99376e-15 0)
(1.4 1.72704e-15 0)
(1.4 1.19182e-15 0)
(1.4 8.52378e-16 0)
(1.4 5.49452e-16 0)
(1.4 1.95358e-16 0)
(1.4 -9.26024e-16 0)
(1.4 -1.1628e-15 0)
(1.4 -8.94674e-16 0)
(1.4 -8.80885e-16 0)
(1.4 -8.77519e-16 0)
(1.4 -7.80836e-16 0)
(1.4 -7.36437e-16 0)
(1.4 -5.83944e-16 0)
(1.4 -4.54409e-16 0)
(1.4 -3.63252e-16 0)
(1.4 -3.47168e-16 0)
(1.4 -3.87029e-16 0)
(1.4 -2.77854e-16 0)
(1.4 -3.27617e-16 0)
(1.4 -4.50088e-16 0)
(1.4 -4.7327e-16 0)
(1.4 -3.92969e-16 0)
(1.4 -4.92266e-16 0)
(1.4 -6.26917e-16 0)
(1.4 -9.58425e-16 0)
(1.4 -1.43552e-15 0)
(1.4 -1.81522e-15 0)
(1.4 -2.13373e-15 0)
(1.4 -2.11158e-15 0)
(1.4 -2.3688e-15 0)
(1.4 -2.27346e-15 0)
(1.4 -2.16724e-15 0)
(1.4 -2.05181e-15 0)
(1.4 -1.94329e-15 0)
(1.4 -1.9097e-15 0)
(1.4 -1.88239e-15 0)
(1.4 -2.02108e-15 0)
(1.4 -1.95593e-15 0)
(1.4 -1.46255e-15 0)
(1.4 -5.64071e-16 0)
(1.4 -1.24269e-16 0)
(1.4 6.4042e-18 0)
(1.4 2.01071e-16 0)
(1.4 3.97971e-16 0)
(1.4 4.70023e-16 0)
(1.4 6.065e-16 0)
(1.4 1.18299e-15 0)
(1.4 1.3451e-15 0)
(1.4 1.57584e-15 0)
(1.4 2.00658e-15 0)
(1.4 2.26924e-15 0)
(1.4 2.44184e-15 0)
(1.4 2.44031e-15 0)
(1.4 2.46944e-15 0)
(1.4 2.59589e-15 0)
(1.4 2.67146e-15 0)
(1.4 2.75304e-15 0)
(1.4 2.97973e-15 0)
(1.4 3.22294e-15 0)
(1.4 3.19164e-15 0)
(1.4 3.30295e-15 0)
(1.4 3.29782e-15 0)
(1.4 3.01067e-15 0)
(1.4 2.90816e-15 0)
(1.4 2.89729e-15 0)
(1.4 2.33159e-15 0)
(1.4 2.12619e-15 0)
(1.4 1.89853e-15 0)
(1.4 1.9709e-15 0)
(1.4 2.15074e-15 0)
(1.4 2.4595e-15 0)
(1.4 2.46941e-15 0)
(1.4 2.14046e-15 0)
(1.4 1.87566e-15 0)
(1.4 1.7918e-15 0)
(1.4 1.91789e-15 0)
(1.4 1.71705e-15 0)
(1.4 1.52548e-15 0)
(1.4 1.14563e-15 0)
(1.4 1.00831e-15 0)
(1.4 5.74719e-16 0)
(1.4 -3.03477e-17 0)
(1.4 -2.25298e-16 0)
(1.4 -1.74054e-16 0)
(1.4 6.7345e-17 0)
(1.4 4.29405e-16 0)
(1.4 5.22443e-16 0)
(1.4 7.15777e-16 0)
(1.4 7.26336e-16 0)
(1.4 7.28419e-16 0)
(1.4 6.15316e-16 0)
(1.4 4.5706e-16 0)
(1.4 2.54203e-16 0)
(1.4 3.60608e-16 0)
(1.4 7.45664e-17 0)
(1.4 -7.86877e-16 0)
(1.4 1.06053e-15 0)
(1.4 1.22699e-15 0)
(1.4 1.26819e-15 0)
(1.4 1.17036e-15 0)
(1.4 1.27653e-15 0)
(1.4 1.46692e-15 0)
(1.4 1.60682e-15 0)
(1.4 1.62115e-15 0)
(1.4 1.77857e-15 0)
(1.4 2.02047e-15 0)
(1.4 2.5702e-15 0)
(1.4 2.89724e-15 0)
(1.4 2.92772e-15 0)
(1.4 3.207e-15 0)
(1.4 3.32322e-15 0)
(1.4 3.39382e-15 0)
(1.4 3.48776e-15 0)
(1.4 3.86532e-15 0)
(1.4 4.23596e-15 0)
(1.4 4.20679e-15 0)
(1.4 4.16968e-15 0)
(1.4 4.08699e-15 0)
(1.4 4.02222e-15 0)
(1.4 4.03745e-15 0)
(1.4 4.24079e-15 0)
(1.4 4.43546e-15 0)
(1.4 4.51649e-15 0)
(1.4 4.40793e-15 0)
(1.4 3.93185e-15 0)
(1.4 3.18843e-15 0)
(1.4 2.38674e-15 0)
(1.4 1.72301e-15 0)
(1.4 1.2385e-15 0)
(1.4 9.93453e-16 0)
(1.4 7.80209e-16 0)
(1.4 8.65119e-16 0)
(1.4 8.96747e-16 0)
(1.4 9.63973e-16 0)
(1.4 9.60096e-16 0)
(1.4 8.13647e-16 0)
(1.4 5.44821e-16 0)
(1.4 4.92702e-16 0)
(1.4 6.34377e-16 0)
(1.4 5.16198e-16 0)
(1.4 3.86865e-16 0)
(1.4 2.941e-16 0)
(1.4 2.9311e-16 0)
(1.4 3.0386e-16 0)
(1.4 3.74431e-16 0)
(1.4 3.60497e-16 0)
(1.4 4.72133e-16 0)
(1.4 6.55507e-16 0)
(1.4 8.64529e-16 0)
(1.4 9.50372e-16 0)
(1.4 1.05723e-15 0)
(1.4 1.05732e-15 0)
(1.4 9.15317e-16 0)
(1.4 7.45148e-16 0)
(1.4 5.18123e-16 0)
(1.4 3.14264e-17 0)
(1.4 -9.46675e-16 0)
(1.4 -1.48143e-15 0)
(1.4 -1.92567e-15 0)
(1.4 -2.20434e-15 0)
(1.4 -2.14135e-15 0)
(1.4 -2.04164e-15 0)
(1.4 -2.065e-15 0)
(1.4 -2.13433e-15 0)
(1.4 -2.13623e-15 0)
(1.4 -2.27242e-15 0)
(1.4 -2.08064e-15 0)
(1.4 -1.91622e-15 0)
(1.4 -1.77347e-15 0)
(1.4 -1.58718e-15 0)
(1.4 -1.34953e-15 0)
(1.4 -1.28235e-15 0)
(1.4 -7.73185e-16 0)
(1.4 1.25241e-16 0)
(1.4 3.32206e-16 0)
(1.4 2.94246e-16 0)
(1.4 1.19792e-15 0)
(1.4 1.88101e-15 0)
(1.4 1.96198e-15 0)
(1.4 1.93095e-15 0)
(1.4 2.18368e-15 0)
(1.4 2.44966e-15 0)
(1.4 2.49997e-15 0)
(1.4 2.53952e-15 0)
(1.4 2.66206e-15 0)
(1.4 2.81612e-15 0)
(1.4 2.83655e-15 0)
(1.4 2.85462e-15 0)
(1.4 2.81018e-15 0)
(1.4 2.71161e-15 0)
(1.4 2.58352e-15 0)
(1.4 2.61085e-15 0)
(1.4 2.55002e-15 0)
(1.4 2.74375e-15 0)
(1.4 2.90075e-15 0)
(1.4 3.15783e-15 0)
(1.4 3.28192e-15 0)
(1.4 3.36149e-15 0)
(1.4 3.27092e-15 0)
(1.4 2.94403e-15 0)
(1.4 2.96768e-15 0)
(1.4 3.01237e-15 0)
(1.4 2.69949e-15 0)
(1.4 2.51569e-15 0)
(1.4 2.56573e-15 0)
(1.4 2.50015e-15 0)
(1.4 2.562e-15 0)
(1.4 2.06897e-15 0)
(1.4 1.95948e-15 0)
(1.4 1.59609e-15 0)
(1.4 1.33675e-15 0)
(1.4 7.94525e-16 0)
(1.4 7.05486e-16 0)
(1.4 4.66649e-16 0)
(1.4 -3.1504e-16 0)
(1.4 -7.89716e-16 0)
(1.4 -8.30201e-16 0)
(1.4 -1.15388e-15 0)
(1.4 -1.20891e-15 0)
(1.4 -1.19817e-15 0)
(1.4 -1.20472e-15 0)
(1.4 -1.26074e-15 0)
(1.4 -1.31656e-15 0)
(1.4 -1.35733e-15 0)
(1.4 -1.32209e-15 0)
(1.4 -1.45456e-15 0)
(1.4 -1.70747e-15 0)
(1.4 -1.79907e-15 0)
(1.4 -6.00107e-16 0)
(1.4 -5.89807e-16 0)
(1.4 -6.33938e-16 0)
(1.4 -4.73705e-16 0)
(1.4 -1.18371e-16 0)
(1.4 1.65202e-16 0)
(1.4 4.32829e-16 0)
(1.4 8.20233e-16 0)
(1.4 9.55243e-16 0)
(1.4 8.06429e-16 0)
(1.4 1.38616e-15 0)
(1.4 1.77354e-15 0)
(1.4 2.26908e-15 0)
(1.4 2.63589e-15 0)
(1.4 2.66062e-15 0)
(1.4 2.89836e-15 0)
(1.4 3.38462e-15 0)
(1.4 3.44686e-15 0)
(1.4 3.60943e-15 0)
(1.4 3.6914e-15 0)
(1.4 3.75673e-15 0)
(1.4 3.76168e-15 0)
(1.4 3.80742e-15 0)
(1.4 3.90998e-15 0)
(1.4 4.13081e-15 0)
(1.4 4.08944e-15 0)
(1.4 3.84262e-15 0)
(1.4 3.61096e-15 0)
(1.4 3.28608e-15 0)
(1.4 3.04194e-15 0)
(1.4 2.75126e-15 0)
(1.4 2.30623e-15 0)
(1.4 2.08198e-15 0)
(1.4 1.65112e-15 0)
(1.4 1.26169e-15 0)
(1.4 1.14661e-15 0)
(1.4 1.21577e-15 0)
(1.4 1.33837e-15 0)
(1.4 1.3816e-15 0)
(1.4 1.29048e-15 0)
(1.4 1.25953e-15 0)
(1.4 1.32021e-15 0)
(1.4 1.32871e-15 0)
(1.4 1.18857e-15 0)
(1.4 1.13075e-15 0)
(1.4 1.05515e-15 0)
(1.4 8.57357e-16 0)
(1.4 8.23289e-16 0)
(1.4 8.71061e-16 0)
(1.4 8.95798e-16 0)
(1.4 9.62957e-16 0)
(1.4 1.02969e-15 0)
(1.4 1.10813e-15 0)
(1.4 1.15081e-15 0)
(1.4 1.22975e-15 0)
(1.4 1.23122e-15 0)
(1.4 9.73987e-16 0)
(1.4 8.3825e-16 0)
(1.4 4.21076e-16 0)
(1.4 9.05222e-17 0)
(1.4 -2.87793e-16 0)
(1.4 -4.77003e-16 0)
(1.4 -4.49099e-16 0)
(1.4 -2.15785e-16 0)
(1.4 -1.66784e-16 0)
(1.4 -1.01638e-16 0)
(1.4 8.21341e-17 0)
(1.4 1.69523e-16 0)
(1.4 1.86004e-16 0)
(1.4 1.04369e-16 0)
(1.4 7.62305e-18 0)
(1.4 2.24902e-17 0)
(1.4 1.07364e-16 0)
(1.4 1.23895e-16 0)
(1.4 5.64531e-16 0)
(1.4 1.18177e-15 0)
(1.4 1.3022e-15 0)
(1.4 1.46398e-15 0)
(1.4 1.73146e-15 0)
(1.4 1.60473e-15 0)
(1.4 1.72083e-15 0)
(1.4 2.1587e-15 0)
(1.4 2.40224e-15 0)
(1.4 2.46133e-15 0)
(1.4 2.45633e-15 0)
(1.4 2.17483e-15 0)
(1.4 2.06496e-15 0)
(1.4 1.98501e-15 0)
(1.4 1.97058e-15 0)
(1.4 1.86513e-15 0)
(1.4 2.01437e-15 0)
(1.4 2.04045e-15 0)
(1.4 2.06268e-15 0)
(1.4 2.04938e-15 0)
(1.4 2.05301e-15 0)
(1.4 2.03622e-15 0)
(1.4 2.00768e-15 0)
(1.4 2.0885e-15 0)
(1.4 2.24736e-15 0)
(1.4 2.59749e-15 0)
(1.4 2.96758e-15 0)
(1.4 3.34355e-15 0)
(1.4 3.56782e-15 0)
(1.4 3.633e-15 0)
(1.4 3.46987e-15 0)
(1.4 3.30108e-15 0)
(1.4 2.92659e-15 0)
(1.4 2.75577e-15 0)
(1.4 2.83673e-15 0)
(1.4 2.97003e-15 0)
(1.4 2.90519e-15 0)
(1.4 2.60444e-15 0)
(1.4 1.86042e-15 0)
(1.4 1.44702e-15 0)
(1.4 1.32883e-15 0)
(1.4 1.42521e-15 0)
(1.4 1.75817e-15 0)
(1.4 1.85791e-15 0)
(1.4 1.74037e-15 0)
(1.4 1.37525e-15 0)
(1.4 8.52904e-16 0)
(1.4 4.41223e-16 0)
(1.4 -4.29862e-16 0)
(1.4 -1.24971e-15 0)
(1.4 -1.6182e-15 0)
(1.4 -2.63206e-15 0)
(1.4 -3.1295e-15 0)
(1.4 -3.41148e-15 0)
(1.4 -3.43838e-15 0)
(1.4 -3.4109e-15 0)
(1.4 -3.3295e-15 0)
(1.4 -3.21165e-15 0)
(1.4 -1.11855e-15 0)
(1.4 -1.14004e-15 0)
(1.4 -1.04469e-15 0)
(1.4 -7.60384e-16 0)
(1.4 -7.8098e-16 0)
(1.4 -7.64253e-16 0)
(1.4 -5.50625e-16 0)
(1.4 -1.78029e-16 0)
(1.4 -2.28847e-17 0)
(1.4 1.85021e-16 0)
(1.4 5.75335e-16 0)
(1.4 7.64961e-16 0)
(1.4 9.12419e-16 0)
(1.4 8.05005e-16 0)
(1.4 7.9334e-16 0)
(1.4 9.62325e-16 0)
(1.4 1.09176e-15 0)
(1.4 1.20627e-15 0)
(1.4 1.23573e-15 0)
(1.4 1.40147e-15 0)
(1.4 1.45613e-15 0)
(1.4 1.51607e-15 0)
(1.4 1.61272e-15 0)
(1.4 1.85192e-15 0)
(1.4 2.05609e-15 0)
(1.4 2.178e-15 0)
(1.4 1.9951e-15 0)
(1.4 1.87375e-15 0)
(1.4 2.01966e-15 0)
(1.4 2.04536e-15 0)
(1.4 2.25089e-15 0)
(1.4 2.36349e-15 0)
(1.4 2.53338e-15 0)
(1.4 2.53066e-15 0)
(1.4 2.46185e-15 0)
(1.4 2.36445e-15 0)
(1.4 2.33202e-15 0)
(1.4 2.44412e-15 0)
(1.4 2.50749e-15 0)
(1.4 2.66674e-15 0)
(1.4 2.75359e-15 0)
(1.4 2.4691e-15 0)
(1.4 2.176e-15 0)
(1.4 1.99278e-15 0)
(1.4 1.79082e-15 0)
(1.4 1.37514e-15 0)
(1.4 1.35186e-15 0)
(1.4 1.24058e-15 0)
(1.4 1.42005e-15 0)
(1.4 1.38253e-15 0)
(1.4 1.37389e-15 0)
(1.4 1.24806e-15 0)
(1.4 1.12986e-15 0)
(1.4 1.18403e-15 0)
(1.4 1.08918e-15 0)
(1.4 8.65439e-16 0)
(1.4 8.20934e-16 0)
(1.4 7.68006e-16 0)
(1.4 6.90224e-16 0)
(1.4 6.47197e-16 0)
(1.4 8.22853e-16 0)
(1.4 1.02392e-15 0)
(1.4 1.12087e-15 0)
(1.4 1.23264e-15 0)
(1.4 1.33575e-15 0)
(1.4 1.37456e-15 0)
(1.4 1.30259e-15 0)
(1.4 1.32874e-15 0)
(1.4 1.54342e-15 0)
(1.4 1.59676e-15 0)
(1.4 1.81472e-15 0)
(1.4 2.21748e-15 0)
(1.4 2.40913e-15 0)
(1.4 2.55096e-15 0)
(1.4 2.63867e-15 0)
(1.4 2.78352e-15 0)
(1.4 2.8526e-15 0)
(1.4 2.59101e-15 0)
(1.4 2.4767e-15 0)
(1.4 2.27851e-15 0)
(1.4 2.09953e-15 0)
(1.4 1.9249e-15 0)
(1.4 1.94853e-15 0)
(1.4 1.84599e-15 0)
(1.4 1.63344e-15 0)
(1.4 1.48437e-15 0)
(1.4 1.34513e-15 0)
(1.4 1.33941e-15 0)
(1.4 1.34525e-15 0)
(1.4 1.33106e-15 0)
(1.4 1.36972e-15 0)
(1.4 1.39995e-15 0)
(1.4 1.48612e-15 0)
(1.4 1.48142e-15 0)
(1.4 1.50765e-15 0)
(1.4 1.42932e-15 0)