/*--------------------------------*- C++ -*----------------------------------*\
  =========                 |
  \\      /  F ield         | OpenFOAM: The Open Source CFD Toolbox
   \\    /   O peration     | Website:  https://openfoam.org
    \\  /    A nd           | Version:  7
     \\/     M anipulation  |
\*---------------------------------------------------------------------------*/
FoamFile
{
    version     2.0;
    format      ascii;
    class       volScalarField;
    location    "16";
    object      rho;
}
// * * * * * * * * * * * * * * * * * * * * * * * * * * * * * * * * * * * * * //

dimensions      [1 -3 0 0 0 0 0];

internalField   nonuniform List<scalar> 
2418
(
1.33595
1.33308
1.33065
1.32874
1.32741
1.32675
1.32615
1.32552
1.32601
1.32654
1.32706
1.32893
1.32978
1.33015
1.33119
1.33137
1.33072
1.32936
1.32732
1.32475
1.32193
1.31887
1.31558
1.31219
1.30884
1.30552
1.30236
1.29936
1.2963
1.29309
1.2896
1.28598
1.28234
1.27883
1.27547
1.2721
1.26842
1.26453
1.26055
1.25626
1.25255
1.24677
1.62909
1.62287
1.61626
1.60944
1.60245
1.5954
1.58848
1.5816
1.57477
1.56811
1.56179
1.55575
1.54984
1.54407
1.53834
1.53252
1.52668
1.52118
1.51604
1.51095
1.50581
1.50084
1.49606
1.49116
1.48613
1.48137
1.47715
1.47292
1.46849
1.46471
1.46153
1.4578
1.45317
1.45017
1.44786
1.4446
1.44162
1.44041
1.43883
1.43559
1.43269
1.43094
1.42825
1.42525
1.42411
1.42259
1.41958
1.41679
1.41368
1.40929
1.4047
1.40117
1.39919
1.39886
1.39927
1.40157
1.40677
1.4162
1.42961
1.44476
1.4576
1.4606
1.46006
1.45809
1.45412
1.4484
1.44173
1.43481
1.42828
1.4224
1.41711
1.41214
1.40725
1.40253
1.39796
1.3934
1.38897
1.38484
1.3809
1.37703
1.37321
1.3693
1.36515
1.36065
1.35617
1.35183
1.34756
1.3436
1.34017
1.33697
1.33412
1.33179
1.32995
1.32855
1.32751
1.32746
1.32765
1.32753
1.32863
1.32962
1.33076
1.33288
1.33314
1.33332
1.33404
1.3337
1.33205
1.32949
1.32654
1.32338
1.32009
1.31673
1.31332
1.30997
1.30672
1.30346
1.30016
1.29676
1.29326
1.28982
1.28658
1.28351
1.28036
1.27695
1.27315
1.26901
1.26465
1.26042
1.25669
1.2532
1.25019
1.24442
1.63531
1.62898
1.62233
1.61547
1.60836
1.60098
1.59365
1.58649
1.57952
1.57283
1.56656
1.56065
1.55491
1.5493
1.54377
1.53819
1.53244
1.52671
1.52132
1.51619
1.511
1.50579
1.50132
1.49732
1.49301
1.48841
1.48451
1.48096
1.4769
1.47237
1.46974
1.46751
1.46405
1.46054
1.4588
1.45637
1.45294
1.45139
1.45007
1.44726
1.44473
1.44288
1.44021
1.43674
1.43452
1.43236
1.42929
1.42592
1.42256
1.41811
1.41302
1.40812
1.40355
1.40052
1.39929
1.39927
1.40098
1.40553
1.41488
1.42816
1.44369
1.45565
1.4569
1.45591
1.45319
1.44876
1.44298
1.43609
1.42869
1.4217
1.41559
1.41008
1.40496
1.40037
1.39603
1.39161
1.38722
1.383
1.37893
1.37488
1.37091
1.36697
1.36279
1.35829
1.35381
1.34952
1.34535
1.3416
1.33848
1.33568
1.33312
1.33143
1.33038
1.32963
1.32912
1.32948
1.33062
1.33142
1.33275
1.33403
1.33618
1.33746
1.33695
1.33664
1.33632
1.33507
1.33266
1.32951
1.32602
1.32245
1.31884
1.3152
1.31158
1.30805
1.30464
1.30136
1.2982
1.29505
1.29175
1.28824
1.28458
1.2808
1.27687
1.27294
1.2691
1.26554
1.26213
1.25866
1.25502
1.2509
1.24703
1.24064
1.64152
1.63488
1.62789
1.62064
1.61318
1.60556
1.59799
1.5907
1.58381
1.57727
1.57106
1.56515
1.55946
1.55388
1.54838
1.543
1.53769
1.53228
1.52689
1.52192
1.51726
1.51224
1.50723
1.50341
1.49988
1.49556
1.49183
1.48949
1.48677
1.48265
1.47942
1.47778
1.47511
1.47179
1.47028
1.46827
1.46486
1.46291
1.46116
1.45828
1.45549
1.45311
1.45021
1.44669
1.44329
1.43994
1.43627
1.43225
1.4282
1.42361
1.41806
1.41236
1.40674
1.40173
1.39824
1.3966
1.39649
1.39801
1.40257
1.41144
1.42462
1.44017
1.45118
1.45221
1.45112
1.44832
1.44371
1.43758
1.43034
1.42307
1.41649
1.41039
1.40475
1.39981
1.39524
1.39073
1.38632
1.38203
1.3778
1.37351
1.36927
1.36511
1.36079
1.35632
1.3519
1.34769
1.34382
1.34054
1.33781
1.33572
1.33405
1.33269
1.33269
1.33305
1.33292
1.33371
1.33573
1.33663
1.33777
1.33951
1.34119
1.34218
1.3418
1.34024
1.33787
1.33508
1.33202
1.32877
1.32543
1.32205
1.31859
1.31495
1.31109
1.3073
1.30352
1.29978
1.29615
1.29271
1.2894
1.28604
1.28257
1.27888
1.27494
1.27087
1.26671
1.26266
1.25875
1.25483
1.251
1.24708
1.24387
1.23845
1.64731
1.64022
1.63275
1.62509
1.61744
1.60983
1.60233
1.5951
1.58828
1.58187
1.57579
1.57006
1.56476
1.55972
1.55451
1.54923
1.54424
1.53915
1.53365
1.52831
1.52398
1.51986
1.5152
1.51109
1.50839
1.50521
1.50094
1.49864
1.49712
1.494
1.49105
1.48961
1.48718
1.48408
1.48219
1.47982
1.47631
1.47354
1.47089
1.46768
1.46421
1.46091
1.45745
1.4535
1.44936
1.44508
1.44054
1.43588
1.43109
1.4262
1.42075
1.41463
1.40849
1.40253
1.39712
1.39292
1.39236
1.39266
1.39402
1.39843
1.40705
1.41994
1.43456
1.44528
1.44711
1.44605
1.44293
1.43794
1.43168
1.42473
1.41791
1.41142
1.40559
1.40053
1.39586
1.39129
1.38675
1.3822
1.37763
1.37295
1.36827
1.36379
1.35948
1.35544
1.35161
1.3478
1.3444
1.34132
1.33815
1.33668
1.33633
1.33601
1.337
1.33828
1.33852
1.34019
1.34264
1.34328
1.34477
1.3459
1.34558
1.34553
1.34495
1.34278
1.33961
1.33613
1.33258
1.32881
1.32477
1.32064
1.31685
1.31371
1.31079
1.30757
1.30386
1.2999
1.29581
1.29175
1.28767
1.2836
1.2796
1.27553
1.27142
1.26735
1.26339
1.25961
1.256
1.2524
1.24882
1.24498
1.24153
1.23564
1.65263
1.64532
1.63756
1.62935
1.62098
1.613
1.60577
1.59905
1.59263
1.58655
1.58081
1.57518
1.56954
1.56442
1.55963
1.55442
1.549
1.54454
1.54033
1.53526
1.5308
1.52773
1.52409
1.51954
1.51738
1.51556
1.51194
1.50929
1.5081
1.50542
1.50226
1.50087
1.49863
1.49544
1.49272
1.48984
1.48625
1.48257
1.47879
1.47477
1.47059
1.46633
1.46196
1.45726
1.45233
1.44733
1.44223
1.4371
1.43189
1.42659
1.42115
1.41526
1.40918
1.40329
1.39733
1.39231
1.38883
1.38802
1.38804
1.38914
1.39357
1.40233
1.41495
1.4293
1.43979
1.44183
1.44063
1.43748
1.4326
1.4265
1.42001
1.41365
1.40776
1.40241
1.39739
1.3925
1.38753
1.3826
1.37785
1.37315
1.36848
1.36387
1.35941
1.35516
1.35143
1.34839
1.34602
1.34395
1.34204
1.34168
1.34155
1.34126
1.3425
1.34367
1.34415
1.34691
1.34918
1.34988
1.35137
1.35181
1.35082
1.34877
1.34601
1.34273
1.33934
1.33593
1.33251
1.32893
1.32519
1.32133
1.31742
1.31338
1.30935
1.30543
1.30149
1.2975
1.29338
1.28931
1.28522
1.28107
1.277
1.27303
1.26919
1.26533
1.26138
1.25729
1.25322
1.24932
1.24567
1.24207
1.23889
1.2333
1.65515
1.64691
1.63895
1.63191
1.62524
1.61837
1.61183
1.60589
1.59979
1.59351
1.58758
1.58177
1.57563
1.56981
1.56533
1.56095
1.55539
1.5507
1.54778
1.54406
1.53963
1.53721
1.53497
1.53125
1.52835
1.52691
1.52393
1.52081
1.51944
1.51699
1.5133
1.51074
1.50798
1.50431
1.50038
1.49656
1.49251
1.48817
1.48365
1.4789
1.47395
1.46886
1.46371
1.45846
1.45309
1.4478
1.44254
1.43727
1.432
1.4266
1.42113
1.41549
1.40951
1.40349
1.39791
1.39257
1.38799
1.38525
1.38399
1.38369
1.38487
1.38888
1.3968
1.4094
1.42317
1.43373
1.43699
1.43593
1.43298
1.42828
1.42268
1.4169
1.41109
1.4053
1.39976
1.39447
1.38912
1.38383
1.37876
1.37386
1.36924
1.36498
1.36106
1.3573
1.35359
1.35056
1.34826
1.34652
1.34625
1.34706
1.34721
1.34753
1.35007
1.35147
1.35254
1.35566
1.35705
1.35653
1.35594
1.35545
1.35379
1.35088
1.34747
1.34372
1.33969
1.33551
1.33136
1.32727
1.32334
1.31964
1.31605
1.31233
1.30842
1.30451
1.30062
1.2966
1.29232
1.28794
1.28354
1.27922
1.27498
1.27074
1.26658
1.26251
1.25878
1.25528
1.25194
1.24848
1.24489
1.2411
1.23764
1.23172
1.65954
1.65111
1.64269
1.63433
1.62653
1.61934
1.61231
1.60634
1.60125
1.59587
1.59026
1.58549
1.581
1.57569
1.57102
1.56791
1.56396
1.55912
1.55659
1.55417
1.55002
1.54743
1.54613
1.54311
1.54025
1.53884
1.53615
1.53247
1.52991
1.52703
1.52321
1.51933
1.51525
1.51081
1.5061
1.50127
1.49633
1.49124
1.48598
1.48065
1.47525
1.46972
1.46418
1.45872
1.45319
1.44776
1.44243
1.43716
1.4319
1.42669
1.42159
1.4165
1.41116
1.40545
1.39966
1.39392
1.38807
1.38283
1.38004
1.37927
1.37898
1.38047
1.38412
1.39158
1.40419
1.4177
1.42948
1.4336
1.43235
1.42937
1.42493
1.4198
1.41419
1.40818
1.4023
1.39679
1.39137
1.38608
1.38092
1.3759
1.37108
1.36657
1.36255
1.35904
1.35632
1.35452
1.35345
1.35259
1.35262
1.35375
1.35395
1.35472
1.35791
1.35965
1.36099
1.36306
1.36403
1.36343
1.36132
1.35825
1.35454
1.35053
1.3467
1.34306
1.33935
1.33545
1.33156
1.3278
1.32397
1.31988
1.31555
1.31118
1.30683
1.30258
1.29846
1.29435
1.29024
1.2862
1.28217
1.27803
1.27372
1.26945
1.26534
1.26131
1.25746
1.25364
1.24988
1.24607
1.24237
1.23889
1.23596
1.231
1.65851
1.65073
1.6432
1.6355
1.62836
1.62196
1.61537
1.6089
1.60411
1.59994
1.59502
1.5903
1.58727
1.58368
1.57876
1.5762
1.57396
1.56977
1.56732
1.56584
1.56238
1.55958
1.55783
1.5548
1.55137
1.54894
1.54587
1.54193
1.53795
1.53386
1.5294
1.52468
1.51971
1.51451
1.50911
1.50368
1.49829
1.49287
1.48736
1.48179
1.47615
1.47039
1.46458
1.45887
1.45312
1.44743
1.44193
1.4367
1.43163
1.42665
1.42201
1.41776
1.41354
1.40885
1.40342
1.3976
1.39175
1.38582
1.38064
1.37698
1.37478
1.37482
1.37631
1.37925
1.38655
1.39891
1.41305
1.42581
1.43085
1.42959
1.4271
1.42312
1.41795
1.41199
1.40569
1.39945
1.39353
1.38813
1.38312
1.37848
1.37418
1.36991
1.36584
1.36258
1.35961
1.35852
1.35891
1.35888
1.35925
1.36176
1.36325
1.36504
1.36833
1.3704
1.37065
1.36942
1.36809
1.36633
1.36342
1.35983
1.356
1.35196
1.34783
1.34357
1.33912
1.33464
1.33032
1.32626
1.32231
1.31835
1.31427
1.31011
1.30584
1.30161
1.29757
1.2936
1.28949
1.28529
1.28106
1.27683
1.27266
1.26862
1.26456
1.26041
1.25637
1.25251
1.24894
1.24557
1.24234
1.23911
1.23612
1.23055
1.66068
1.6532
1.64627
1.63902
1.63176
1.6258
1.62037
1.61428
1.60858
1.605
1.60124
1.59631
1.59374
1.59214
1.58845
1.58542
1.58416
1.58093
1.57788
1.5765
1.57381
1.57078
1.56818
1.56507
1.56131
1.55747
1.55338
1.54877
1.54387
1.53882
1.53358
1.52823
1.52277
1.51722
1.51154
1.50583
1.50022
1.49462
1.48899
1.48323
1.47736
1.47142
1.46547
1.45971
1.45406
1.44852
1.44315
1.43807
1.43331
1.42874
1.42436
1.41992
1.41521
1.41033
1.40515
1.39961
1.39382
1.38783
1.38172
1.37681
1.37337
1.37212
1.37236
1.37347
1.3765
1.38332
1.39508
1.40941
1.42219
1.42886
1.42801
1.42564
1.4218
1.41652
1.4105
1.40437
1.39846
1.39273
1.38722
1.38212
1.37761
1.37345
1.37011
1.36768
1.36558
1.36526
1.36566
1.3654
1.36611
1.36964
1.37213
1.37474
1.37802
1.3795
1.37916
1.37698
1.37362
1.36971
1.36523
1.36062
1.35627
1.35206
1.3479
1.34374
1.33954
1.33542
1.3314
1.32736
1.32309
1.31857
1.31402
1.30951
1.305
1.30061
1.29647
1.29257
1.28866
1.28469
1.28066
1.27648
1.27234
1.26853
1.26485
1.26107
1.2572
1.25341
1.24968
1.246
1.24246
1.23905
1.2362
1.2309
1.66377
1.6567
1.65066
1.64428
1.63702
1.63084
1.62629
1.62145
1.616
1.61277
1.6102
1.60613
1.60309
1.60219
1.5995
1.59612
1.59511
1.59285
1.5887
1.58633
1.58431
1.58115
1.57737
1.57338
1.56897
1.56415
1.559
1.55347
1.5477
1.54197
1.53628
1.53067
1.52506
1.51939
1.51363
1.50786
1.50222
1.49669
1.49121
1.48564
1.47996
1.4742
1.4684
1.46281
1.45745
1.45218
1.44699
1.44194
1.43715
1.4324
1.42766
1.42294
1.4181
1.41323
1.40813
1.40266
1.39692
1.39111
1.38528
1.37985
1.37568
1.37252
1.37158
1.37167
1.37308
1.37592
1.3813
1.39208
1.40615
1.41879
1.42648
1.42656
1.42439
1.42083
1.41585
1.41
1.404
1.39803
1.39253
1.38777
1.38342
1.37941
1.37628
1.37483
1.37397
1.37417
1.37548
1.37613
1.37795
1.38209
1.38431
1.38517
1.38554
1.38557
1.38457
1.38179
1.37794
1.37355
1.36877
1.36392
1.35923
1.35459
1.34989
1.34526
1.34082
1.33659
1.33247
1.32827
1.32388
1.31932
1.31478
1.31038
1.30604
1.30185
1.29787
1.29406
1.2902
1.2862
1.28212
1.27788
1.27355
1.26954
1.26602
1.26266
1.25933
1.25609
1.25273
1.24902
1.24511
1.2411
1.23761
1.23223
1.66938
1.66108
1.65365
1.64737
1.64073
1.63514
1.63225
1.62917
1.62454
1.62196
1.62056
1.61704
1.61426
1.61364
1.61125
1.60748
1.60571
1.6034
1.59919
1.59566
1.59276
1.5892
1.5849
1.58012
1.57491
1.56943
1.56384
1.55802
1.55211
1.54636
1.54071
1.53511
1.52952
1.52383
1.51808
1.51234
1.50666
1.50101
1.49535
1.48969
1.48408
1.47864
1.47336
1.46832
1.46351
1.45867
1.45371
1.44866
1.44368
1.43864
1.43356
1.42856
1.42357
1.41856
1.41342
1.40799
1.40237
1.39679
1.39141
1.38617
1.38129
1.37731
1.3751
1.3745
1.37452
1.37461
1.37678
1.38142
1.3906
1.40375
1.4168
1.42422
1.42582
1.42443
1.4209
1.41614
1.41067
1.40502
1.39975
1.39516
1.39099
1.38741
1.38497
1.38385
1.3834
1.38468
1.38733
1.38905
1.39238
1.39688
1.39875
1.39833
1.39623
1.39351
1.39032
1.38623
1.38171
1.37714
1.37253
1.36796
1.36342
1.35882
1.35412
1.34955
1.3452
1.34095
1.33664
1.33217
1.3276
1.32304
1.31862
1.31436
1.31011
1.30588
1.30179
1.29785
1.29396
1.29006
1.28614
1.2821
1.27788
1.27369
1.27004
1.26685
1.26391
1.26107
1.25801
1.25455
1.25056
1.24637
1.2426
1.23661
1.67618
1.66765
1.65989
1.65433
1.64892
1.64311
1.64056
1.63879
1.6349
1.63298
1.63277
1.62984
1.62709
1.62654
1.62408
1.62052
1.61788
1.6147
1.61069
1.60656
1.60241
1.59784
1.59282
1.58748
1.58185
1.57602
1.57022
1.56437
1.55855
1.553
1.54766
1.54232
1.53693
1.53145
1.52595
1.52049
1.51503
1.5095
1.50399
1.49855
1.49323
1.48811
1.48318
1.47841
1.47387
1.46929
1.4645
1.45957
1.45461
1.44962
1.44452
1.43944
1.43439
1.42935
1.42439
1.4193
1.414
1.40871
1.40326
1.39788
1.39259
1.38767
1.38411
1.38155
1.38046
1.38028
1.37989
1.38118
1.38538
1.3933
1.40409
1.41631
1.42487
1.4273
1.42672
1.42424
1.42027
1.41586
1.41147
1.40709
1.40318
1.40029
1.3988
1.3979
1.39822
1.40095
1.40338
1.40626
1.41088
1.41369
1.41422
1.41317
1.40993
1.40546
1.40051
1.3953
1.39015
1.38515
1.38015
1.37527
1.37062
1.36614
1.36171
1.35735
1.35298
1.34854
1.34416
1.33987
1.3357
1.33166
1.32772
1.32377
1.31965
1.31544
1.31135
1.30738
1.30346
1.29973
1.2963
1.29295
1.28948
1.28565
1.28167
1.27775
1.27413
1.27116
1.26816
1.26519
1.26186
1.2583
1.25518
1.24925
1.68027
1.67368
1.66781
1.66469
1.66125
1.65651
1.65491
1.65535
1.65319
1.65153
1.65251
1.65107
1.64786
1.64715
1.64493
1.64127
1.63797
1.63392
1.62917
1.62433
1.61934
1.61397
1.6084
1.60281
1.59714
1.59126
1.58572
1.58035
1.57494
1.56965
1.56455
1.55938
1.55422
1.54915
1.54435
1.53974
1.535
1.53001
1.52495
1.51993
1.51494
1.51006
1.50526
1.50044
1.49569
1.49086
1.48584
1.4808
1.47588
1.47111
1.46626
1.46136
1.45646
1.45171
1.44723
1.44284
1.43836
1.43375
1.42875
1.42321
1.41745
1.41157
1.40592
1.40112
1.39746
1.3956
1.3954
1.39634
1.3989
1.4025
1.40868
1.4197
1.43032
1.43665
1.43963
1.43964
1.43803
1.43511
1.4315
1.42741
1.4239
1.42266
1.42235
1.42255
1.42532
1.4299
1.43308
1.43762
1.43996
1.43993
1.43875
1.43587
1.43156
1.42665
1.42153
1.41629
1.41111
1.40597
1.40076
1.39555
1.39052
1.38565
1.38096
1.37646
1.37203
1.36756
1.36346
1.3597
1.35604
1.35241
1.34876
1.34502
1.34116
1.33739
1.33387
1.33039
1.32672
1.32297
1.31963
1.31674
1.31397
1.31106
1.3079
1.30428
1.3001
1.29594
1.29196
1.28834
1.28515
1.2819
1.27924
1.27429
1.68923
1.68542
1.68128
1.67945
1.68004
1.67947
1.67914
1.68229
1.68406
1.68271
1.68343
1.68393
1.68041
1.67862
1.67663
1.67286
1.66915
1.66511
1.66033
1.65511
1.64979
1.6444
1.63917
1.63419
1.62916
1.62367
1.61831
1.61334
1.60832
1.60321
1.59821
1.59317
1.5881
1.58305
1.57819
1.57351
1.56878
1.56389
1.55903
1.55438
1.54986
1.54538
1.54092
1.53638
1.53177
1.52707
1.52222
1.51726
1.51229
1.50728
1.50216
1.49684
1.49141
1.48613
1.48106
1.47629
1.47181
1.46731
1.46279
1.45802
1.45274
1.44722
1.44134
1.43519
1.43002
1.42566
1.42345
1.42264
1.42285
1.42566
1.42892
1.43475
1.44542
1.45268
1.46015
1.46718
1.46847
1.46764
1.46536
1.46227
1.46051
1.46091
1.46199
1.46529
1.47194
1.47733
1.48117
1.48402
1.48439
1.48284
1.47957
1.47532
1.47072
1.46612
1.4615
1.45679
1.45197
1.44712
1.44223
1.43731
1.43237
1.42727
1.42216
1.41729
1.41279
1.4084
1.40436
1.40084
1.39738
1.39382
1.39022
1.38661
1.38316
1.37986
1.37681
1.3736
1.37011
1.36634
1.36242
1.35848
1.3544
1.3503
1.34659
1.3432
1.33989
1.33649
1.33308
1.32942
1.32567
1.32176
1.31821
1.31171
1.70848
1.71186
1.71276
1.71421
1.71941
1.72118
1.72173
1.72571
1.72736
1.72458
1.72396
1.72351
1.71931
1.71628
1.71365
1.70937
1.70531
1.70131
1.69671
1.69169
1.68661
1.68141
1.67617
1.67113
1.66615
1.66088
1.65556
1.6505
1.64541
1.64022
1.6352
1.63025
1.62505
1.61952
1.61396
1.60861
1.60347
1.59848
1.59358
1.58884
1.5842
1.57949
1.57463
1.56954
1.56429
1.55901
1.55374
1.54841
1.54312
1.53794
1.5328
1.52769
1.52267
1.51773
1.51283
1.50795
1.50315
1.4984
1.49351
1.48849
1.48328
1.47764
1.47176
1.46575
1.45977
1.45457
1.45071
1.44827
1.44735
1.44811
1.44987
1.45193
1.45856
1.4668
1.47607
1.48755
1.49507
1.49941
1.50156
1.50303
1.50554
1.5099
1.51494
1.52241
1.52921
1.5324
1.53378
1.53369
1.5323
1.52942
1.52546
1.52096
1.51628
1.51169
1.50723
1.5029
1.49862
1.49437
1.48995
1.48526
1.4803
1.47513
1.46995
1.46502
1.4605
1.45611
1.45183
1.44789
1.44408
1.44025
1.43646
1.43277
1.42903
1.4251
1.4212
1.41732
1.41337
1.40922
1.40469
1.39985
1.39478
1.38962
1.38467
1.3802
1.3761
1.37215
1.36828
1.36439
1.36051
1.35634
1.35262
1.34494
1.75418
1.75981
1.76097
1.76487
1.76912
1.76812
1.76774
1.76951
1.76854
1.76444
1.76226
1.75956
1.75456
1.7505
1.74669
1.74182
1.73707
1.73264
1.72795
1.72298
1.71791
1.71283
1.70773
1.70277
1.69792
1.69291
1.68781
1.68279
1.67771
1.67251
1.66742
1.6624
1.65721
1.65187
1.64652
1.6412
1.63596
1.63087
1.62582
1.62087
1.61598
1.61098
1.60576
1.60037
1.59488
1.58938
1.58393
1.57851
1.57315
1.56795
1.56286
1.55789
1.55303
1.54823
1.54345
1.53863
1.53373
1.52874
1.52364
1.51842
1.51307
1.50759
1.50192
1.49619
1.49033
1.48453
1.47927
1.475
1.47139
1.46835
1.4685
1.46863
1.47059
1.47601
1.48424
1.4962
1.5083
1.51999
1.53081
1.5407
1.55058
1.5599
1.56871
1.57752
1.58138
1.58169
1.58137
1.57968
1.57677
1.57299
1.56874
1.56433
1.55984
1.5555
1.55141
1.54747
1.54376
1.54013
1.53626
1.53204
1.52754
1.52284
1.5181
1.51352
1.50922
1.50497
1.50069
1.49646
1.49226
1.48802
1.48375
1.4794
1.47483
1.46995
1.46498
1.46009
1.45517
1.45016
1.44508
1.43996
1.43476
1.42953
1.42436
1.41936
1.41444
1.40945
1.40447
1.39946
1.39459
1.38954
1.38515
1.37666
1.81251
1.8111
1.80848
1.81012
1.80871
1.80195
1.79891
1.79602
1.79075
1.78529
1.78083
1.77622
1.77088
1.76535
1.76001
1.75454
1.7492
1.74415
1.73916
1.73405
1.72881
1.72353
1.71824
1.71305
1.70797
1.70284
1.69769
1.69264
1.68755
1.68231
1.67715
1.67215
1.66717
1.66223
1.65737
1.65257
1.64773
1.64273
1.63744
1.63199
1.6265
1.621
1.61557
1.6102
1.60489
1.59967
1.59452
1.58932
1.58406
1.57886
1.57369
1.56861
1.56362
1.55868
1.5538
1.54894
1.54397
1.53894
1.53392
1.52884
1.52375
1.51863
1.5132
1.50759
1.50179
1.49564
1.48966
1.48405
1.47851
1.47275
1.47076
1.47078
1.47172
1.47528
1.4824
1.49389
1.50844
1.52514
1.54245
1.55892
1.57445
1.58904
1.60183
1.60546
1.60538
1.6038
1.60091
1.59736
1.59333
1.589
1.58463
1.58037
1.57615
1.57202
1.56794
1.56375
1.55953
1.55542
1.55132
1.5473
1.54342
1.53963
1.53582
1.53199
1.52812
1.52404
1.5197
1.51521
1.5106
1.50591
1.50115
1.4963
1.49124
1.48581
1.48015
1.47443
1.46878
1.46329
1.45808
1.45319
1.44852
1.44393
1.43928
1.4345
1.42942
1.42397
1.41829
1.41247
1.40667
1.40071
1.3955
1.38657
1.85413
1.85239
1.84994
1.84794
1.84436
1.8381
1.8332
1.82821
1.82149
1.81461
1.80842
1.80222
1.79599
1.78981
1.78349
1.77718
1.77105
1.76509
1.75925
1.75341
1.74759
1.7419
1.73634
1.73088
1.72552
1.72008
1.71458
1.70924
1.70395
1.69843
1.69288
1.68755
1.68243
1.6775
1.67273
1.66792
1.66295
1.65777
1.65222
1.64645
1.64065
1.63483
1.62903
1.62339
1.61778
1.61232
1.6071
1.60191
1.59661
1.59132
1.58605
1.58085
1.5758
1.57072
1.56574
1.56088
1.55594
1.55082
1.54573
1.54069
1.53552
1.53031
1.52518
1.51958
1.51365
1.50769
1.50151
1.49557
1.48947
1.48224
1.47841
1.47867
1.48004
1.48361
1.49051
1.50137
1.51641
1.53447
1.55505
1.57722
1.59826
1.62022
1.63656
1.63803
1.63664
1.63341
1.62878
1.62355
1.61794
1.61225
1.60705
1.6024
1.598
1.59385
1.58983
1.5857
1.58147
1.57732
1.57328
1.56937
1.56563
1.56204
1.55844
1.5547
1.55075
1.54641
1.54165
1.53667
1.53156
1.52631
1.5209
1.51534
1.50959
1.50348
1.49714
1.4908
1.48463
1.47876
1.47346
1.4687
1.46429
1.45986
1.45507
1.44993
1.44424
1.43803
1.43152
1.42486
1.41814
1.41133
1.40541
1.39608
)
;

boundaryField
{
    inlet
    {
        type            calculated;
        value           nonuniform 0();
    }
    outlet
    {
        type            calculated;
        value           nonuniform List<scalar> 
19
(
1.24677
1.24443
1.24065
1.23844
1.23564
1.23329
1.23172
1.23098
1.23056
1.2309
1.23223
1.23664
1.24931
1.2744
1.31186
1.34504
1.37673
1.38663
1.39607
)
;
    }
    bottom
    {
        type            symmetryPlane;
    }
    top
    {
        type            symmetryPlane;
    }
    obstacle
    {
        type            calculated;
        value           nonuniform 0();
    }
    front
    {
        type            empty;
    }
    back
    {
        type            empty;
    }
    procBoundary55to47
    {
        type            processor;
        value           nonuniform List<scalar> 
133
(
1.33941
1.33618
1.33326
1.33073
1.32884
1.32749
1.32601
1.32502
1.32495
1.32475
1.32482
1.32599
1.32665
1.32773
1.32897
1.3288
1.32887
1.32891
1.32785
1.32586
1.32347
1.32083
1.31803
1.31518
1.31222
1.30893
1.30548
1.30198
1.29858
1.29546
1.29242
1.28928
1.28585
1.28214
1.27826
1.27439
1.27077
1.26747
1.26414
1.26037
1.25676
1.25063
1.62224
1.61644
1.61005
1.60327
1.59633
1.58951
1.58286
1.57621
1.56954
1.56293
1.55652
1.55034
1.54436
1.53859
1.53291
1.52729
1.52184
1.51661
1.5113
1.50584
1.5004
1.4951
1.48987
1.48471
1.47983
1.47535
1.47099
1.46648
1.46201
1.45779
1.45336
1.44848
1.4446
1.44183
1.43877
1.43519
1.43244
1.43032
1.42753
1.42325
1.42032
1.41855
1.41567
1.41327
1.4125
1.41087
1.40749
1.40481
1.40166
1.39737
1.39412
1.39338
1.39358
1.39475
1.39784
1.40409
1.4139
1.42709
1.44229
1.45695
1.46302
1.46269
1.46101
1.45776
1.45259
1.44612
1.43939
1.43304
1.42748
1.42265
1.4182
1.41383
1.40933
1.40481
1.40036
1.3959
1.39152
1.38737
1.38345
1.37968
1.37595
1.37227
1.36841
1.36423
1.35993
1.35556
1.35108
1.34671
1.34275
1.33913
1.33913
)
;
    }
    procBoundary55to54
    {
        type            processor;
        value           nonuniform List<scalar> 
18
(
1.63478
1.64123
1.64781
1.65398
1.65959
1.66314
1.66825
1.66704
1.66905
1.67119
1.67676
1.68334
1.68614
1.69329
1.70791
1.74829
1.80749
1.85298
)
;
    }
}


// ************************************************************************* //
