/*--------------------------------*- C++ -*----------------------------------*\
  =========                 |
  \\      /  F ield         | OpenFOAM: The Open Source CFD Toolbox
   \\    /   O peration     | Website:  https://openfoam.org
    \\  /    A nd           | Version:  7
     \\/     M anipulation  |
\*---------------------------------------------------------------------------*/
FoamFile
{
    version     2.0;
    format      ascii;
    class       volScalarField;
    location    "0.137";
    object      p;
}
// * * * * * * * * * * * * * * * * * * * * * * * * * * * * * * * * * * * * * //

dimensions      [0 2 -2 0 0 0 0];

internalField   nonuniform List<scalar> 
12359
(
0.0556063
0.0645848
0.0382374
0.0983848
0.0580593
0.141653
0.176098
0.158473
0.215322
0.131169
0.198516
0.26535
0.48348
0.10552
0.0914719
0.387091
0.43135
0.0428927
0.0424833
0.0781762
0.114056
0.241907
0.0714106
0.0834373
0.0674277
0.0737399
0.0394452
0.0393253
0.0417466
0.0400168
0.040424
0.0388571
0.0384324
0.0397103
0.0382706
0.0405722
0.0479544
0.0532582
0.0566213
0.050497
0.0618536
0.052306
0.0458674
0.0449884
0.0410736
0.041419
0.0408584
0.0401614
0.0421059
0.0395406
0.0391768
0.0389599
0.0386572
0.0433349
0.0386418
0.0384526
0.0442543
0.0383801
0.0383757
0.0383475
0.0385122
0.0382617
0.0390635
0.499724
0.0437767
0.121636
0.0477847
0.0389355
0.0485814
0.33685
0.533823
0.0603702
0.0382228
0.0497047
0.0875459
0.0382712
0.0386483
0.0382347
0.0466209
0.302692
0.11459
0.033578
0.0372026
0.0402045
-0.0639006
0.0181952
0.0331911
0.0355732
-0.0601195
-0.0575084
0.0379692
0.452795
0.0379498
0.0383785
0.0388596
0.00497658
0.0377166
0.0384997
0.0488486
0.0442513
0.0969908
0.0381114
0.018696
-0.104953
0.0320648
0.00949503
0.0370119
-0.0597483
0.0193553
0.00886283
0.0377103
0.0339482
0.102011
0.0807353
0.0392412
0.0342496
0.0838016
0.0324301
-0.064523
0.037253
0.037784
0.163799
0.0354084
0.00439714
0.0320368
0.033702
0.0306937
0.0398913
0.0382317
0.032051
0.034447
-0.00514921
-0.00499219
-0.00235367
0.0369896
0.00352721
0.0343099
0.0041576
0.0381497
0.0334065
0.0374174
0.0563908
0.0110577
0.0369716
0.00430928
0.136911
0.0372052
-0.0506918
0.031793
0.113997
0.0010979
0.0381341
0.0105937
0.0353973
0.0378868
-0.190327
0.0992802
-0.00457037
0.0377745
0.0388442
0.0376813
0.0388871
0.00234838
0.008411
0.0371764
0.0339001
0.0391862
0.165135
0.00967305
-0.0669341
0.0382489
0.0382619
0.0090018
0.067991
0.0321211
0.0375935
0.0418986
0.0416069
0.101893
0.0382174
0.106882
0.0378687
0.0382249
0.0331356
0.0480055
0.194651
0.0331594
0.0382528
0.00187277
0.0329319
0.0385647
0.00512729
0.00807144
0.035322
0.00891099
-0.112692
0.0248212
0.0341678
0.0107646
0.0325831
0.143001
0.00123513
0.0458393
0.00898995
0.00739204
0.0378467
0.00664813
0.0463516
0.000234296
0.0316981
0.0375665
-0.000660557
-0.00172649
-0.635151
0.195449
0.0381471
0.0337381
0.0391241
0.0335398
0.0569364
0.0923305
0.0317916
0.00407342
0.459302
0.0320716
0.0375401
0.0575205
0.0202593
0.0385794
0.0348676
0.03481
0.0371761
0.00498817
0.0458844
0.0377376
0.0451473
0.0372442
0.0095839
0.0379499
0.28344
0.0371317
0.0162153
0.0378924
0.044147
0.0372224
-0.0516719
0.0383513
0.00040866
0.0329092
0.00810719
0.000523076
0.0528094
0.0411854
0.0352089
0.289108
-0.693162
0.0372587
0.031391
0.378659
-0.051432
0.0453652
0.0378408
0.0391683
0.00813813
0.066218
-0.528926
-0.0599873
0.037216
0.0316982
0.00461448
0.00909737
0.0508816
0.00937432
0.0355358
0.031461
0.0371486
0.0314508
-0.109129
0.0367022
0.0368004
0.0381062
0.0075605
0.0285406
0.0475881
0.0162998
0.0373394
0.0402938
0.0381216
0.0381041
0.0387892
0.00290732
0.0330886
-0.536276
0.0370044
0.0369745
0.0187333
0.0330483
0.0922172
0.0390017
0.0392595
0.0380128
-0.0996856
0.0383634
0.0380182
0.0339601
0.038471
0.0325365
0.034039
0.0343362
0.0326668
0.0429036
0.195725
0.03231
0.0404943
0.0536362
0.0167716
-0.047791
0.0309515
0.0491568
0.362677
0.0380936
0.0143099
0.0367337
0.0250898
0.0369503
0.030376
0.219548
0.01364
0.200132
0.0470157
0.0374526
0.00797667
0.00254898
0.0374194
0.00804637
0.00802956
0.0364783
0.0385646
0.038553
0.0386241
0.038593
0.283826
0.037317
0.0962788
0.000164602
0.046223
0.00888491
0.0135201
0.01895
0.0257117
0.0127657
0.0261904
0.0480876
0.0148279
0.0160061
0.083964
0.0571733
0.0091785
0.0555405
0.0552799
0.0111678
0.0970766
0.0342075
0.0386458
0.0238175
0.0386407
0.0339809
-0.21626
0.511399
0.0341081
0.0381754
0.0370134
0.03775
0.0128113
0.0378913
0.037879
-0.0714469
0.00919403
-0.0530469
0.0361885
0.00676784
0.0284625
0.0380423
0.00896513
0.0235857
0.10177
0.0238002
0.0344293
0.0367726
0.00848606
0.00622426
0.0310225
0.288465
0.0100288
0.00415338
0.0414563
0.0401433
0.0381544
0.373123
0.00732666
0.0362881
0.0505946
0.0539726
0.0374319
0.0373989
0.0376962
-0.060755
0.0936213
0.0501295
0.0135003
-0.000353159
0.0394502
0.106031
0.0420636
-0.00116815
-0.0531785
0.291807
0.0445728
0.0834688
0.0197851
0.0162118
0.0266774
0.0235445
0.0400943
0.0269361
0.0109142
0.0379067
-0.0437566
0.0480404
-0.00624516
0.00530273
0.0450571
0.0886264
-0.154109
0.0126265
0.0308292
0.00156536
0.00532119
0.0136969
0.0326636
0.0376062
0.0443549
0.0369555
-0.0061728
0.0343941
0.0740011
0.0768656
0.0239223
-0.0585838
0.0957311
0.0445292
0.0366646
0.382756
0.0365696
0.0360605
0.00162019
0.0381825
0.0365435
0.0360214
0.220064
0.179771
0.0399508
0.0359842
0.101056
0.0412588
0.0135634
0.0104392
0.00973751
0.0363629
0.0377225
0.0410363
0.0380184
0.0763629
0.0141576
0.0161865
0.0414461
0.0448679
-0.000389063
0.040184
0.0370203
0.0309023
0.110953
0.00120989
0.038128
0.0398392
0.00831557
0.0217134
0.0406237
0.0340654
0.105058
0.0140289
0.0051199
0.0149215
0.0363175
0.0370879
-0.00922421
-0.00688581
0.0380006
0.0284688
0.0416495
0.0030913
0.2484
0.0376482
0.0345231
0.0365377
0.0102621
0.0434236
0.0429819
0.0340269
0.0417723
0.0226732
0.0662229
0.0257433
-0.0383352
0.0368372
-0.0435564
0.0356584
-0.148269
0.0133163
-0.00699225
0.0383973
0.0411722
0.0165664
0.0332427
0.0391558
0.0459905
0.0444956
0.0440925
0.0625799
0.00875101
0.00922888
0.0372151
0.0328789
0.0139434
-0.00432269
0.0372176
0.0368259
0.00840378
0.0365197
0.21683
-0.167218
-0.0612482
0.0372167
0.0310407
-6.1152e-05
0.0434854
0.0325218
0.439278
0.0368535
0.107201
0.0798171
0.0310857
0.0325925
0.039347
0.0243749
-0.000510106
0.0226404
0.0415723
0.0372605
0.0382321
0.0441144
0.0418397
0.0472173
0.00967376
0.0389054
0.0368521
0.0148452
-0.0541916
0.0402725
5.47859e-05
0.0370356
0.0421561
0.0898937
0.00067273
-5.28492e-05
0.0889205
0.0370966
-0.000480554
0.0374801
0.0383074
0.00111473
0.0275546
0.0365185
0.0279329
0.0378046
0.0367857
0.0331484
0.0419472
0.000385096
0.0952125
0.0482884
0.108999
0.010362
0.0309538
0.104046
0.0530571
-0.00447848
0.00923676
0.05369
0.0468157
0.0383147
0.0321789
0.0157216
0.0372111
0.038199
0.0364539
0.0383607
-0.0186963
0.0286558
0.024256
0.0958563
0.0462312
0.222458
0.00322383
0.000512765
0.0330381
-0.00409226
0.0377921
0.0423479
0.0371128
0.0989459
0.104777
0.0371697
0.0228903
0.198922
0.0110317
0.00021994
0.0289021
0.0558959
-0.139858
0.0361005
0.0395315
0.0378392
-0.0131255
0.0394128
0.0234551
-0.05973
0.0368564
0.0683763
0.0487549
0.0324446
0.0407808
0.0374224
0.0386731
0.0439342
0.0387278
0.0386044
0.0428679
0.00470989
0.00657375
0.0325108
0.329564
0.000178209
0.427381
0.0121036
0.0176945
0.0435825
0.013491
0.0474188
0.00576574
0.306349
0.0899003
0.0462881
0.035572
0.0433565
0.0419092
0.0158973
0.0376012
-0.00521773
0.0387374
0.0910683
0.0421463
-0.016831
0.00466354
0.00699187
0.0482976
0.0293665
0.00487638
0.0680241
0.00146078
0.0321607
-1.01894e-05
0.0347769
0.0372767
0.0424429
-0.222834
0.0641966
0.0312206
0.0371662
0.0389556
0.0437904
0.0727177
0.00676334
0.0134215
0.0364527
0.0325625
0.0464807
0.0312973
0.0260838
-0.000720825
0.0449868
0.0485102
0.00602102
0.032545
0.0298824
0.0958965
0.0372135
0.0450173
-0.293974
0.0383248
0.00375139
0.0448289
0.0301896
0.0797844
0.00718506
0.0428443
0.0128988
0.0380137
0.10201
0.0316104
0.00813489
0.00680947
0.103458
0.0378693
-0.000814919
-0.0053609
0.0478863
0.0329279
0.0324855
0.0319437
0.222118
0.0426359
0.0381507
0.0451186
0.0379174
-0.137396
0.0336404
0.00480297
0.0233742
0.0131631
0.517436
0.0328189
-0.0625682
0.00734709
-0.0560003
0.0133175
0.0415586
0.0326357
0.0218736
-0.0499826
-0.0385438
0.0359556
0.0358271
0.10655
0.0346396
0.203412
0.0143594
0.0603934
0.0330673
0.398988
-0.113837
0.0340972
0.0372993
0.0376664
0.0844694
0.0439082
0.0484851
0.0413025
0.0103671
0.0675476
-0.0177524
0.34621
0.0364873
0.0737618
0.00971412
0.110468
0.0340879
0.107726
0.00419478
0.0864272
0.0408422
0.0371678
0.00605204
0.00373369
0.0129399
0.108396
0.00701236
0.0178029
0.04199
0.0371628
0.0288422
0.237143
0.0285866
0.00826841
0.0576021
0.0144187
0.0225089
0.0421428
-0.00475678
0.0239413
0.033571
-0.00927345
0.0485692
0.0189779
0.200325
0.0372613
0.0237905
0.0412715
0.0458998
0.0340679
0.0420433
0.037214
-0.00349806
0.0307763
0.0672876
0.00799353
0.0857687
0.0229724
0.0232761
0.00670738
-0.18069
0.0383302
0.0454918
0.0179049
-0.0771669
0.00406978
0.0377566
0.503039
0.0371744
0.0319624
-0.155065
0.0437005
0.0381288
0.0382036
0.0559548
0.080202
0.0383511
0.0448913
0.100918
0.0415643
0.0424595
0.0416738
0.0361382
0.081449
-0.0193747
0.0442127
0.106864
0.00726188
0.00693417
0.000494765
0.00942686
0.0416536
0.0321133
-0.0430263
0.00316238
0.0630297
0.0368253
0.0383933
0.10752
-0.00397535
0.0244458
0.0284848
0.0243332
0.0412901
0.032006
0.0740955
-0.271725
0.307548
0.0733791
0.0410773
0.0319753
0.0702402
0.335532
0.101596
0.0377705
-0.00205364
-0.015454
-0.265387
0.0249393
-0.137412
0.0383607
0.0417157
0.038409
0.00130267
0.0649807
-0.157894
0.0316543
-0.0921021
0.03443
0.0412385
0.00726814
0.0431258
-0.00176949
-0.0377541
0.0445085
0.0224683
0.0174081
0.025147
0.0443122
0.0691635
0.0626418
0.022848
0.071424
0.0445053
0.0384511
0.0424874
0.0389899
0.0953734
0.0159996
-0.0110275
-0.00312164
0.076156
0.0181834
0.0167454
0.0330616
-0.00509965
0.024943
0.0438026
0.0378464
-0.00293369
0.0993181
0.0313859
0.0341555
0.045727
0.017165
0.093135
0.106292
0.0172427
0.29622
0.0158797
0.0774607
-0.034886
0.0427563
0.0115705
0.00731265
0.0352729
0.0248159
0.024948
0.0342062
0.0374592
0.033912
-0.0162714
-0.00390167
0.0328527
-0.096262
0.0927701
0.0389088
0.0459081
-0.000771612
0.0388034
0.068386
0.00802716
-0.000243812
0.0387371
0.0413469
0.0378478
0.0387971
0.107748
-0.123366
0.0389966
0.0491532
0.0372364
-0.156409
0.0155205
0.010349
0.0369455
0.0388817
0.0416349
0.018431
0.0777476
0.0212709
0.0366827
0.0416977
0.0386806
0.015293
0.0749829
0.0251051
0.0381911
0.0228927
0.0185488
0.0655632
0.0333346
-0.0191831
0.13602
0.0349811
0.0252703
0.0414349
0.0334271
-0.188178
0.0443251
0.0389326
0.00792282
0.0953454
0.0726522
-0.147884
0.0665609
0.0253929
0.0208546
0.0456083
0.0295013
0.0253097
0.0448895
0.134611
0.0395281
-0.408592
0.0736963
0.171765
0.0292884
-0.00681658
0.0867853
-0.00254141
0.256111
0.00393585
0.0190849
0.0239752
0.0294828
0.0371996
0.0335732
0.0785393
-1.04991e-05
0.0450188
0.0350113
0.00461744
0.0114786
0.00311834
0.070843
-0.00184039
0.00282296
0.0369941
0.0607581
-0.043393
0.0776985
0.0371677
0.0240463
0.0423383
0.0371716
0.0589752
0.0383466
0.0337713
0.23697
0.0822607
-0.0184639
0.0383897
0.0379012
0.0379403
0.0451572
0.042329
-0.00286714
0.0424758
0.03779
-0.0218436
0.0155153
0.00305574
0.0586431
0.0424545
0.0305263
0.083673
0.0242112
0.0384187
-0.0441164
0.00743504
0.102919
0.0388274
-0.292883
0.0875693
0.0416455
0.0018286
0.0303071
-0.0161048
0.0258357
-0.00125177
0.0849166
0.0414121
0.0400681
0.0163563
0.0321804
0.0437977
-0.00909804
0.0439216
0.0439889
0.0895166
0.0346412
0.0418742
0.025737
0.00661048
0.0422528
0.0438856
0.0420172
0.0370681
0.0853139
-0.0424692
0.0194993
0.0452439
0.0433444
0.0301035
0.0374613
-0.217445
0.0694046
0.0381211
0.0613616
0.030217
0.0895994
0.14317
-0.000124263
0.0440955
0.00174281
-0.00543411
0.0369421
0.0312129
-0.00420965
0.0322033
0.0381766
0.0622119
0.0201781
0.042886
0.0382091
0.0329894
0.0762546
0.0388752
0.0245219
0.0383491
0.0249202
0.0568607
0.121028
0.0377056
-0.216922
0.0704341
0.0120145
-0.0971285
0.0826167
0.0238014
-0.0275913
0.0457241
0.136476
0.200402
0.0427342
0.0338895
0.0337705
0.0406248
0.0424495
0.00426871
-0.0853025
-0.120116
0.0055892
0.137801
-0.00970796
0.00803127
-0.0425319
0.0376693
0.0408791
0.039066
0.0182659
0.0376959
0.00528845
0.0262076
-0.00671294
0.0372928
0.0409441
0.0353387
-0.133766
0.109455
0.0683321
0.0507398
0.114391
0.0339037
0.0389309
-0.0205755
0.0261608
-0.0157593
0.00459622
0.0155043
0.000852461
0.0106935
0.0460664
0.0370762
0.0375486
-0.127747
0.0335137
0.0268114
0.0456949
0.000966453
0.0118448
0.0377799
0.0141566
-0.0189894
-0.0013668
0.0845426
0.0427955
0.0379941
0.00217743
0.0453667
0.0377096
-0.0062171
0.00366416
0.0419268
0.128752
-0.00061358
0.0378813
0.0380956
0.037051
0.0972776
-0.118193
0.0332261
0.00545932
0.041192
0.0420571
0.00770841
0.0380827
0.171962
0.0106814
-0.0419044
0.144269
0.0217625
0.037315
0.0374766
0.0234053
0.045497
0.0372256
-0.188123
0.00215227
0.0373862
0.207676
0.0910667
0.0316375
0.0372256
0.0381604
0.0470892
-0.0670785
0.150471
0.0257059
0.0674186
0.0565773
0.00266199
-0.0828261
-0.00225882
0.043578
0.0428117
0.0105785
0.0294537
0.0364976
0.0405399
0.000489144
0.0423297
0.0242864
0.0443095
0.0717045
-0.0136053
0.0356577
0.0406553
-0.00534011
0.00126897
0.0481532
0.040055
0.0665586
-0.000969811
0.0325752
0.0119031
0.0639481
0.0114529
-0.0291375
0.0424837
0.148183
0.0371552
0.0975381
-0.00294357
0.0380685
0.0376043
0.371757
0.0383908
0.0454477
0.0195393
0.0435733
0.0437136
0.0469091
0.038271
0.0379248
-0.000166458
-0.0290437
0.0356463
0.310734
0.0265884
0.0402946
0.231066
0.0898411
0.0485787
0.0347392
0.0400109
0.0782613
-0.335949
0.0434268
0.0355511
0.0371643
0.0406541
0.053536
0.0115661
0.0429313
0.0538729
0.041624
-0.162973
-0.0113562
0.00518132
0.100349
0.0265386
0.0403925
0.00197522
-0.125178
0.0426834
0.0373958
0.0403125
0.0368197
0.0435018
0.0367509
-0.0041112
0.0343508
0.0318872
0.256865
-0.00424287
-0.00580315
0.00170097
0.0433591
-0.000316934
0.0787881
-0.0945118
0.0363962
0.00661551
0.0380748
0.220061
0.0372886
0.0384229
0.0211324
0.0372073
0.0191204
0.0483843
0.0436431
0.0359201
-0.0782933
0.0805393
0.00721583
0.0406236
0.0281956
-0.0417252
-0.00949427
0.068932
0.0648079
0.0387381
0.0445569
0.0340609
0.0404759
0.0356447
0.0405666
0.0799478
0.0674201
0.00345482
-0.113239
0.00326977
-0.0133154
0.0256011
-0.117017
0.0366995
-0.0327422
0.040403
-0.0331751
-0.00846586
0.0183351
0.0380949
0.0221962
0.00664635
0.0235084
-0.00720637
0.216981
-0.109414
0.0403754
-0.00768543
0.0359772
-0.00766779
0.0793208
-0.00108221
0.0330519
0.0467748
0.00666187
0.0413027
0.0287444
0.0385607
0.0367771
0.0373723
0.0445772
0.00390258
4.28116e-05
0.0377312
0.0743519
-0.0779031
0.473507
0.0369676
0.0632439
0.0208915
0.181144
0.024236
-0.191878
-0.0413976
0.0358607
0.017895
0.0561375
0.163497
0.0391721
0.0573082
0.0692252
0.0353335
-0.0924227
-0.0057707
0.0401967
0.0146286
-0.0297944
0.0662798
-0.0744518
0.0269593
0.0685976
0.0433425
0.0369487
0.0449826
0.0340655
-0.0789642
-0.000299621
-0.0661094
0.0388152
-0.0714269
0.0226852
-0.0009636
0.10209
0.0182291
0.020406
-0.0568164
0.0269242
0.0233485
0.0029523
0.0613535
0.019191
0.00475835
0.0593682
-0.0978098
0.07551
0.0266425
0.0785433
0.0386554
0.107015
-0.00201099
0.0914966
0.0426715
-0.0369441
0.0377348
0.0258573
0.00565058
0.0008151
0.0465461
0.00361724
0.0380562
0.507829
0.0443832
0.0037129
0.0811763
-0.000551216
0.00400539
0.0388042
0.0240434
0.0374209
0.44852
0.0378328
0.0375858
0.037054
-0.0159807
0.0318895
0.0366605
-0.0111637
0.0204608
0.0538847
0.0321107
0.0374278
0.0987898
0.0356633
0.0937449
0.00298559
0.0759098
0.0261696
0.0306705
0.0188848
-0.0180881
0.00497253
0.0332566
0.531464
0.0378159
0.0375037
0.0447362
-0.0867608
0.0426778
0.021912
0.0671894
0.0423045
0.0304605
0.000326683
-0.0256837
0.0258437
-0.0463688
0.0432797
0.0342437
0.0100081
0.0138275
-5.46914e-05
0.0403249
0.0177509
0.0615073
0.186688
0.0279601
0.0376509
0.036655
0.169225
0.0381994
0.038203
-0.0400309
0.024832
-0.0462307
0.0301454
0.0373115
0.183365
-0.0155543
0.0319026
0.0436897
0.0355611
-0.0981657
0.0382083
0.0263294
-0.0288249
0.0382054
0.037414
0.00536171
0.0369561
0.0382161
0.00927401
0.0422549
0.037478
0.0160575
0.037088
-0.0174803
0.0372859
0.0513989
0.110965
0.00490096
0.0382216
0.00168579
-0.192476
0.0300621
0.0638038
0.0348685
0.031425
0.0359194
-0.0209755
-0.00822449
0.0348644
0.0374086
0.122921
0.0248631
0.0109806
0.00782153
0.118235
0.0369835
0.00256397
0.0373902
-0.0204671
-0.0110438
-0.00601132
0.00458913
0.144024
-0.0713073
0.00316857
0.00696802
0.0409629
0.0407861
-0.00136376
0.125619
0.0882125
0.0235406
-0.0761598
0.0367849
-0.0624168
0.2457
0.0373062
-0.010026
-0.0135755
0.0713643
0.00512151
0.0030793
0.0623556
0.0375616
-0.0161567
-0.0680133
0.230183
0.04347
0.00100476
-0.0313959
0.132671
0.0397835
0.0373897
0.00387209
-0.054471
0.0314715
0.0615568
0.0377081
0.0369789
0.0517275
0.0431238
0.0186162
0.0440284
0.0373507
-0.0206071
0.0247098
-0.0261732
0.0110653
0.0377133
0.0374317
0.13382
0.0429624
0.0704195
0.0531094
-0.0401294
0.0708275
0.0367341
-0.0268408
0.0477506
0.0374475
0.0198392
0.0320488
0.0297947
0.0870499
0.0185508
-0.107105
0.0317099
0.0373367
-0.0283598
0.0370023
-0.01128
0.0236625
-0.0313663
-0.0499986
0.0859864
-0.0334346
0.0377597
-0.0120233
0.0419501
0.0615532
-0.0247205
0.0140847
-0.0254754
-0.0693858
0.161676
-0.0143487
0.0544294
0.0367199
0.0373186
0.0369772
-0.0330026
0.127148
0.0367631
-0.0189436
-0.0200567
0.0097576
-0.000321404
0.0201762
0.0995077
-0.0273707
0.0436164
0.00796601
0.0182936
0.0380562
0.0380813
0.0396636
0.0433096
0.00772104
0.0376205
0.0409914
0.0446251
0.0633925
-0.000577216
0.0374599
-0.021858
0.037295
-0.00183237
0.00537754
0.0400823
0.0251819
-0.00158082
-0.022341
0.0275334
0.0702281
0.0430077
0.0196938
0.0244028
0.0374489
0.0420591
0.0426288
0.0401597
0.0374806
0.0590923
0.0374622
0.115843
0.00903511
-0.0995448
0.0375346
0.0491316
0.0376623
0.0380674
0.115351
0.0484543
0.0369458
0.318769
0.123426
0.0295887
0.0543273
0.0312013
0.112394
0.0139324
0.00446294
0.0484913
0.0445435
0.0374025
0.0393232
-0.0142716
0.0370475
0.0397264
0.114954
0.0402551
0.0420528
0.0193348
0.037547
-0.0360085
0.0375717
0.0396615
0.00464517
0.00467593
-0.0587124
0.101912
0.059935
0.0399336
0.00354784
0.0398653
0.0190355
0.00310956
0.0443186
-0.0329764
0.0382715
0.0191659
0.0596688
0.0469283
0.091514
0.0375041
0.0443074
0.0373855
0.0222021
0.0369356
0.0461741
0.017648
0.0343222
0.0600702
0.0202047
0.0374426
0.0203517
0.00773249
0.0442542
0.00493615
-0.0172429
0.0374057
0.0235022
0.101808
-4.58411e-05
0.0453403
0.0357786
0.0360514
0.0183037
0.0460623
0.140615
0.0436799
0.0378283
0.0378512
-0.0181105
-0.0133511
-0.0221524
0.271901
0.0910737
0.0428198
0.0192057
0.00634774
0.0382149
-0.0481353
0.0424539
0.097677
-0.00132236
0.0397279
0.133535
-0.0127532
-0.0174958
0.0167401
0.0221753
0.0381117
0.0369213
0.0547409
0.0374316
0.037402
0.125195
0.0404414
0.0531858
0.0367792
0.0272879
0.037596
0.339298
0.0292787
0.0321113
-0.0121245
0.0937062
0.085783
0.0272153
0.100039
0.037956
0.0378405
0.0022288
0.0652235
0.11445
0.0393472
-0.000303798
0.0334838
0.0417059
0.0409921
0.0376009
0.0558362
0.029508
0.0379909
0.0232651
0.251348
0.0381174
0.00754754
0.0241916
0.0374033
0.0521302
0.0405738
0.0203217
0.0377005
0.0375223
0.0102491
0.0223277
0.0815893
0.130055
-0.232388
0.0440453
0.0538962
-0.0328839
0.0255964
0.0404946
0.0334366
-0.00101113
0.0374908
0.0416842
0.0373966
0.0226425
0.0564056
0.0130428
0.037471
0.0501385
0.0254201
0.0429176
0.110731
0.0339076
0.0371609
0.0374713
0.0224226
0.0163799
0.303598
0.0493401
0.072233
0.00341043
0.00172331
0.0372871
0.0899283
0.0374769
0.0374495
0.0380651
-0.00760372
0.0433503
0.0280034
0.00403756
0.0131599
0.00281083
0.0228649
0.0573167
0.103748
0.0357003
0.00779395
0.080989
0.025365
0.122037
0.0420422
-0.156591
0.132929
0.122361
0.0368124
-0.118649
0.00228329
0.00412465
0.125928
-0.000564273
0.048741
0.0449773
0.0273262
0.0252191
0.0230749
0.200145
0.0661342
0.0424458
0.00961379
0.0428247
0.0249345
0.0172161
0.0834273
0.0265346
0.0576457
0.0736708
0.00337402
0.0851048
0.0239326
0.0384191
0.0486779
0.0379573
0.0347713
0.0359121
0.0428746
0.0113259
-0.0404462
0.0372969
0.163822
0.0366059
0.0292225
0.0061313
0.0230813
0.0259807
0.035656
0.00414956
0.00810879
0.234188
0.0374862
0.0055683
0.0284408
0.00834994
0.0380766
0.0376912
0.14206
0.0172613
0.0241507
-0.0927139
0.020145
0.0317947
0.125059
0.0101374
0.111644
0.0440455
0.012825
0.0275356
0.0344719
-0.0253238
0.00417223
0.0139485
0.0257345
0.0368965
0.00334777
0.00302178
-0.000804491
0.0290063
0.0293918
0.406505
-0.0417064
0.0365642
-0.0127373
0.0145404
-0.0872948
0.0373704
0.0248718
0.0251349
0.0373437
0.00138549
0.0199885
0.0421801
-0.000883633
-0.021471
-0.000582207
0.0447057
0.0174801
0.0381212
0.0331034
-0.0296516
0.0735061
0.0204647
0.00379432
0.133004
0.0182842
0.0141187
0.0153926
0.00432742
-0.0258056
0.0357471
0.0157722
0.0113462
0.079863
0.269184
0.00903233
0.027423
0.0152279
0.0373644
0.0841205
0.0241738
0.00537701
0.0372166
0.0268187
0.00373116
0.00899384
0.137878
0.00631341
0.0212688
0.0225988
0.0430816
0.000731818
0.0194477
0.0657943
0.0487422
0.044783
0.00657609
0.0274641
0.0320882
0.0283547
0.0376247
0.00396893
0.0523604
0.0217985
-0.00198613
-0.0439507
0.03182
0.0193787
0.0110135
0.0175064
0.0374964
0.0913311
0.0893852
0.0635255
0.038055
0.230571
0.00390072
0.0470716
0.0798481
0.0368974
0.0464322
0.0243017
0.0194494
0.0463749
-0.0896121
0.0390012
0.0486708
0.0326504
-0.0133048
-0.0298912
-0.000426433
0.0523579
0.0055536
0.0380937
0.0221952
0.0646239
0.0390262
0.135531
0.0118091
0.020884
0.00489769
0.0560727
0.0158364
0.0301329
0.0371007
0.0372243
0.0383493
0.0527172
0.116448
0.0112613
0.134452
0.0759472
0.0800674
0.0397206
0.0592015
0.0041616
0.0375097
-0.0198146
-0.0158949
0.0409695
0.0374381
0.0280549
0.035441
0.0372174
0.0544862
0.0254741
0.120807
0.0113398
0.0278733
0.0788318
-0.0102585
0.0032148
0.0772846
0.00904673
0.0173724
0.0613849
0.0369781
0.0519345
0.0200826
0.112332
0.119487
0.209665
0.0372639
0.117276
0.0254451
0.0241126
0.0938202
0.0976764
0.0884724
-0.0225113
0.0151554
0.0589164
0.0152023
0.0290104
0.0379468
0.0818165
0.0368025
0.0117109
-0.0262047
0.0486338
-0.0251398
0.0364355
0.0749635
0.0437438
0.0219872
0.0940398
0.154339
0.0153859
0.0331661
0.0119936
0.0256377
0.0638545
0.000721309
0.0724523
-0.00280071
0.0372791
0.015494
-0.148192
0.0908302
0.0265155
-0.0358887
0.00635547
0.0320054
0.0362279
0.0957297
0.0837242
0.0257975
0.0489908
0.0393068
0.00356741
0.0333487
0.001101
0.0715942
0.0282798
0.129963
0.037266
0.0341199
-0.000555434
0.0266627
0.0270244
0.0557509
0.0456773
0.0216157
0.159945
0.0984641
0.0370724
0.00249046
0.0328884
0.0370245
0.123011
0.0368815
0.0158206
0.0180637
0.0367655
0.0369416
0.0413203
0.00476276
0.05078
0.0892877
0.0213803
0.119734
0.0251103
0.0254352
0.0292929
0.0691512
0.037525
0.0303444
0.0275223
0.0196795
-0.017578
0.00646712
0.0559629
0.0367315
0.0452814
0.022984
0.0325261
0.0505631
0.0152119
0.0973283
0.0248976
0.0370553
0.0055084
0.076843
0.0045151
0.0372754
0.125591
-0.023661
0.0344424
0.0881936
0.00331859
0.0420509
0.0852118
0.000299094
0.0788306
0.104001
0.00146869
0.0402834
0.0689742
0.0665832
0.00952099
0.0341433
0.0224472
0.0372342
0.0372289
0.0369933
0.00931267
0.01205
0.0146998
0.0725878
-0.0459866
0.159978
-0.0447947
0.0208668
0.0330557
-0.03014
0.043224
-0.0783986
0.0240994
0.0167313
0.0132224
0.0213382
0.054712
0.0295973
0.0249757
0.0430814
0.0372427
0.0677419
-0.0293297
0.00967699
0.00403714
0.012345
0.0413415
0.020989
0.0110149
0.0435454
0.0177117
0.0282775
0.109209
0.0756384
0.0710172
0.0832302
-0.00213614
2.36681e-06
0.00365487
0.0167267
-0.00222977
0.0105116
0.0481668
0.0358352
0.120911
0.0637768
0.00369221
0.0376751
0.0861168
0.116509
0.0641229
0.0696083
0.0461047
0.0119328
0.104253
0.0207507
0.0182935
0.026038
0.0246299
0.0364015
0.0210295
0.0225536
0.0428778
0.0146326
0.0220264
0.0328223
0.0948383
0.0332429
0.0351014
0.0655791
0.045674
0.0366762
0.0398369
0.000932752
0.0110882
0.0382363
0.0620471
-0.0391161
0.00412591
0.0451375
0.0141324
-0.0157258
-0.0331599
-0.00264137
0.0236979
0.0242738
0.0440505
0.0250587
0.0191621
-0.000161894
-0.00108439
-0.0010519
-5.49371e-05
0.0250864
0.0361511
0.0358463
0.11854
0.0515836
0.0268366
0.027072
-0.000625606
0.0338622
0.020387
0.140476
0.0773365
0.00681917
0.0430898
0.011503
0.0368605
0.00488712
0.000915096
0.0199249
0.0369714
0.0484574
0.160951
0.0301287
0.0788249
-0.0137801
0.03736
0.0257398
0.0844397
0.0912291
0.0598693
0.0383654
0.0340529
0.0351489
0.0379914
0.0370508
0.0317922
0.00423194
0.0369448
0.0458017
0.0426335
-0.37299
0.109176
0.0352124
0.0372573
0.00701956
0.0119292
0.0176639
0.06671
0.0126632
0.0363626
0.0310284
0.00253266
0.0379129
0.00996111
0.0815136
0.06097
0.0354866
0.00860781
0.0376281
0.0300916
0.0280439
0.0300963
-0.00369766
0.0497312
0.0263544
0.0248305
0.101353
0.0713091
0.0368378
0.0374072
0.0259156
0.0247242
0.00991631
0.0160321
0.0305454
0.00390719
0.0699731
0.0380272
0.0266891
0.00346584
0.0272097
0.0748621
0.0531806
0.0405293
0.139988
0.0163614
0.115321
0.130071
0.020419
-0.00252897
0.000209438
0.116206
0.0278406
0.00265095
0.0642261
0.0266769
0.0143333
0.0801698
0.0618649
0.040012
0.00128625
0.0245709
0.0202048
0.0310866
0.00289626
0.039292
0.0703084
0.0390834
0.0470418
0.0759792
0.0438631
0.0306641
0.0966927
0.00470023
0.0812837
0.0206478
0.0619099
0.00541738
0.0510779
0.00783426
0.0387371
0.0218577
0.00632108
0.0571583
0.0210849
0.0386774
0.0324035
0.0107951
0.0376999
0.0258845
0.0464927
0.0275578
0.0163478
-0.00211634
0.0854642
0.0943921
0.0905934
0.0314762
0.0289951
0.0244787
0.0138135
0.0212108
0.0377301
0.043468
0.0598572
0.0178705
0.0485733
0.0024147
0.0222914
0.0467569
0.0245519
0.0241802
0.0350764
0.0215002
0.027581
0.124125
0.244646
0.016533
0.0199239
0.0186611
0.022494
0.0239501
0.0256185
0.0240555
0.0175435
0.00926576
0.0358599
0.0372392
0.0361468
0.0038529
0.037303
0.0221036
0.0314075
0.0238149
0.0493478
0.0252268
0.112843
-0.00803718
0.0368781
0.0277445
0.0810578
0.0317368
0.0510565
0.0806941
0.0424729
0.0371698
0.0230593
0.00356541
0.0775647
0.000811486
0.104759
0.0742623
0.001961
0.0526415
0.0580944
0.00735517
0.0328904
0.0370342
0.0386561
0.026791
0.0367185
0.0235717
-0.0287547
0.0357921
0.0696445
0.0330535
0.0517496
0.0524806
0.144621
0.043771
0.0320197
0.003722
0.00958384
0.0769508
0.0242073
0.0732865
0.0386205
0.0281969
0.0546527
0.0363357
0.0251192
0.0380367
0.0386433
0.0224559
0.0366798
0.0255452
0.051495
0.0714501
0.0104193
0.0364161
0.00443694
-0.000643354
0.057317
0.0519591
0.039838
0.0579324
0.12205
0.0372232
0.0311349
0.0360541
0.0505473
0.0282637
0.026293
0.0285837
0.0634995
0.0733049
0.0247318
0.0691765
0.0811706
0.049751
0.0980354
0.0473204
0.0687471
0.019358
0.0322922
0.0155955
0.0381307
0.0541045
0.0390132
0.0728921
0.000978388
0.0448698
-0.0116596
0.03307
0.0200534
0.107571
0.00517437
0.0362235
0.036869
0.00105967
0.0972208
0.020941
0.0226457
0.011077
0.0355254
0.0733134
0.0276472
0.0354734
0.026507
0.00592953
0.0315027
0.0303557
0.388712
0.028269
0.0390539
0.0486271
0.0541336
0.032432
0.0231146
0.0372513
0.0920367
0.0359148
0.0372317
0.00943169
0.0271384
0.0209122
0.0317166
0.0526926
0.0308856
0.0341633
0.0335228
0.0246256
0.0699769
0.0372742
0.0287389
0.0477196
0.035978
0.0284326
0.0439221
0.0443279
0.0490813
0.049487
0.037355
0.0328429
0.04
0.0220329
-0.00134433
-0.000580679
0.135465
0.0643489
-0.0118269
0.0220688
0.0367889
0.0402969
0.0477324
0.0636901
0.0377095
0.0203765
0.06616
0.0468438
0.0194707
-0.00946165
0.0154715
0.0366462
0.027388
0.037072
0.0833542
0.23048
0.0286087
0.0468848
0.035858
0.0035959
0.0368733
0.0621242
0.0213266
0.0345961
0.0378811
0.0242132
0.0866971
0.0295062
0.0462155
0.0191659
0.0322568
0.032997
0.0775855
0.050715
0.0294131
0.0396552
0.0283186
0.0434878
0.0279398
0.0376238
0.030076
0.0369524
0.0436132
0.00690931
0.0579768
0.0119454
0.0638266
0.0634008
0.0418175
0.0281303
0.025546
0.0670331
0.0818811
0.0065812
0.0310121
0.0489861
0.0475444
0.0304636
0.0357555
0.033198
0.0296779
0.0213868
0.0213606
0.0330373
0.0103296
0.0283183
0.0688896
0.0310308
0.0326634
0.0320789
0.0175951
0.0737636
0.0431878
-0.000256963
0.0280361
0.0298444
0.00701487
0.0405656
-0.000207667
0.0398505
0.0306282
0.0363202
0.0359169
0.0383004
0.031761
0.00321961
0.0372462
0.0150663
0.0616008
0.0399664
0.0473417
0.0235566
0.086018
0.0500243
0.037729
0.0251703
-0.0535083
0.0374177
0.00389859
-0.0644737
0.0553608
0.0746612
0.041465
0.0313178
0.0231842
0.061068
0.0480932
0.0376242
0.0818576
0.00705937
0.071762
0.0372879
0.0365837
0.0330145
0.0333833
0.0339396
0.0555316
0.0683886
0.0360131
-0.000500254
0.034239
0.0419378
0.0316128
0.0251446
0.000787263
0.036674
0.0306464
0.0174995
0.0311525
0.0361231
0.0399592
0.116889
0.064364
0.0378106
0.0522607
0.0427057
0.030948
0.067159
0.049002
0.0333685
0.0523783
0.0262979
0.0520386
0.0749889
-0.00317717
0.0173626
0.0379159
0.0599198
0.0358779
0.0401021
0.0389079
0.0320364
0.000311727
0.000831722
0.0480342
0.0233978
0.0248544
0.0214606
0.0364633
0.0358133
0.0378218
0.0619079
0.0242302
0.0373277
0.0306253
0.0433155
0.0165845
0.00411825
0.0373757
0.0368055
0.0259694
0.0375789
0.0359678
0.0319661
0.0342897
0.0291035
0.0553128
0.0510601
0.0261033
0.0352036
0.0417058
0.0493377
0.0306605
0.0372631
0.0324903
0.0225783
-0.000107561
0.00339929
0.0245386
0.112402
0.0309943
-0.055957
0.0780239
0.0304093
0.02887
0.0424881
0.0373962
0.0373826
0.0457401
0.0462545
0.0302639
0.039208
0.0363926
0.0875455
0.0030565
0.0255469
0.0375295
0.043769
0.0520459
0.0597281
0.0237008
0.03991
0.0371812
0.0355813
0.0317908
0.022794
0.0199375
0.00198117
0.0511633
0.0356823
0.0264301
0.0454735
0.0422528
0.0415091
0.0344418
0.0472203
0.0373531
0.010965
-0.00277133
0.0363625
0.0558969
0.0299359
0.0335681
0.0354692
0.038848
-0.0351012
0.052821
-0.00251874
0.0326392
0.00557647
0.0410108
0.061888
0.117504
0.0442088
0.0375755
0.0224315
0.0144835
0.101375
0.0299774
0.05619
0.033959
0.0368432
0.0548282
0.0347817
0.108242
0.000654458
0.0687361