/*--------------------------------*- C++ -*----------------------------------*\
  =========                 |
  \\      /  F ield         | OpenFOAM: The Open Source CFD Toolbox
   \\    /   O peration     | Website:  https://openfoam.org
    \\  /    A nd           | Version:  7
     \\/     M anipulation  |
\*---------------------------------------------------------------------------*/
FoamFile
{
    version     2.0;
    format      ascii;
    class       volScalarField;
    location    "0.752";
    object      p;
}
// * * * * * * * * * * * * * * * * * * * * * * * * * * * * * * * * * * * * * //

dimensions      [0 2 -2 0 0 0 0];

internalField   nonuniform List<scalar> 
12359
(
0.069173
0.0778603
0.054174
0.110788
0.072276
0.156246
0.187596
0.170607
0.227645
0.145222
0.211514
0.277751
0.488381
0.117569
0.105565
0.399243
0.443365
0.0579637
0.0576868
0.0902421
0.125415
0.252024
0.0837482
0.0955854
0.0806077
0.0868444
0.0551224
0.0550206
0.0570364
0.0555636
0.0558956
0.0545909
0.0543089
0.0553575
0.0542038
0.056083
0.0627801
0.0675409
0.0709208
0.0650948
0.0760565
0.0662261
0.0605174
0.0599232
0.0565406
0.0567654
0.056297
0.0557563
0.0574129
0.0552063
0.054894
0.0547944
0.0545217
0.0583968
0.0544435
0.0543316
0.0593418
0.0542982
0.0542887
0.0542421
0.0543729
0.0541873
0.0548322
0.517453
0.0587898
0.134178
0.0620728
0.0547238
0.0634203
0.347373
0.534845
0.0741226
0.054165
0.0642359
0.100466
0.0542015
0.0545109
0.0541801
0.0614127
0.317448
0.127085
0.0496324
0.0534135
0.0541362
-0.0578673
0.027037
0.0494557
0.0523314
-0.0706949
-0.0523057
0.0539916
0.472301
0.0539562
0.0533581
0.0529851
0.00542866
0.0528635
0.0534859
0.0608261
0.0577819
0.110532
0.05408
0.0279863
-0.131625
0.0488509
0.0144816
0.0532258
-0.0553834
0.0305663
0.0147546
0.0529603
0.0497067
0.111807
0.0928307
0.053261
0.0506862
0.0946457
0.0486671
-0.0735829
0.053448
0.053086
0.17715
0.0522244
0.00572631
0.0484363
0.0505499
0.0393938
0.0539781
0.0541705
0.0483498
0.0512983
-0.00201811
-0.00335081
-0.00235414
0.0532614
0.00674947
0.0510954
0.00691343
0.0541082
0.0393858
0.0535578
0.0704236
0.0162502
0.0532324
0.00947134
0.149228
0.0534223
-0.046579
0.0486319
0.127813
0.00207977
0.0540933
0.0162788
0.0521796
0.0539142
-0.184333
0.110268
-0.0014808
0.052984
0.0546606
0.0480632
0.0547061
0.00420397
0.0128939
0.0534125
0.050677
0.0490479
0.176154
0.0143634
-0.0720767
0.0541806
0.0541941
0.0133377
0.0806554
0.049099
0.0431113
0.0570896
0.0568489
0.112658
0.0437099
0.118286
0.0538928
0.0541711
0.0493257
0.0598976
0.206998
0.0481899
0.0522159
0.00446337
0.0479199
0.0525278
0.00614244
0.00990576
0.0521212
0.0136812
-0.137952
0.0354504
0.0492148
0.0167392
0.0487917
0.153088
0.00385308
0.0588992
0.0145807
0.0129863
0.0538755
0.0120956
0.0596226
0.00248774
0.0472974
0.0536734
0.000161157
0.000335145
-0.546312
0.208228
0.0541122
0.0487211
0.0533187
0.0484494
0.0709593
0.103524
0.0474933
0.00565674
0.478803
0.0480364
0.0536541
0.0716855
0.0310584
0.0473517
0.0499794
0.0497391
0.0534156
0.0104771
0.0589249
0.0516152
0.0580556
0.0534437
0.0154778
0.0518409
0.299843
0.0533801
0.0250608
0.0523406
0.0570231
0.046628
-0.0477659
0.0542638
0.0021736
0.0498283
0.0105475
0.00182172
0.0670038
0.0565005
0.0502464
0.321267
-0.589792
0.0534549
0.0473757
0.40504
-0.0473341
0.0584011
0.0477839
0.0469985
0.0132833
0.0790992
-0.456344
-0.0666462
0.0466584
0.0476551
0.00731195
0.0133791
0.0638403
0.0143893
0.0503793
0.04727
0.0533945
0.0475016
-0.118034
0.0453937
0.0531609
0.0540697
0.0125682
0.0451362
0.0621215
0.0252983
0.0535048
0.0494483
0.0540867
0.0540705
0.0546145
0.00395109
0.0493779
-0.458379
0.0532383
0.0532032
0.0278457
0.0498481
0.103286
0.0533466
0.0549451
0.0540085
-0.105506
0.0465024
0.0540103
0.0489609
0.0529604
0.0497406
0.0507348
0.0509254
0.0496221
0.0579962
0.207464
0.0494656
0.0559681
0.0675857
0.0239144
-0.0543548
0.0491862
0.0618528
0.371854
0.0540597
0.0206851
0.0531408
0.0357348
0.0532169
0.0486611
0.223621
0.0197329
0.208769
0.0616141
0.0521527
0.00818868
0.00398116
0.0519849
0.00758593
0.00938177
0.0529749
0.0544162
0.05441
0.0544726
0.0544422
0.296947
0.053485
0.107002
0.00100556
0.058832
0.0141254
0.0200374
0.0283956
0.0365755
0.0190078
0.0371595
0.0607079
0.0217339
0.0231249
0.0953183
0.0712131
0.0161109
0.0695345
0.0693658
0.0173494
0.107796
0.050163
0.0545006
0.0340704
0.0544682
0.0498424
-0.196628
0.504924
0.0500464
0.0541367
0.0532788
0.053801
0.0189173
0.0539173
0.0539037
-0.0738647
0.0135904
-0.0494417
0.0518217
0.0110428
0.0451469
0.052606
0.0171519
0.0338228
0.114416
0.0341664
0.0503728
0.0531335
0.0128333
0.0103938
0.0476677
0.295851
0.0168698
0.00443419
0.0527538
0.0493991
0.0541248
0.39098
0.014207
0.0519288
0.0646494
0.0684998
0.0535731
0.0535487
0.0537507
-0.0584728
0.102633
0.0628965
0.0196968
0.0028105
0.0531155
0.11763
0.0521485
-5.28526e-05
-0.0590659
0.299729
0.0574481
0.0946332
0.0310726
0.023471
0.0386513
0.033704
0.0556131
0.0386052
0.0164455
0.0539199
-0.0493283
0.0625989
-0.00558041
0.00926301
0.0597851
0.0989168
-0.143609
0.0185987
0.0425756
0.00505712
0.00879621
0.0202782
0.0486845
0.053704
0.054393
0.0532234
-0.00259766
0.0514177
0.0864668
0.088643
0.0399065
-0.0540537
0.106546
0.0575457
0.0521834
0.39118
0.0530621
0.0518887
0.00625913
0.0541404
0.0520676
0.0518925
0.240359
0.207548
0.0537316
0.0524593
0.112521
0.0507761
0.0198804
0.0160575
0.0139713
0.0529324
0.0537853
0.0504631
0.054017
0.0880892
0.0205274
0.0235696
0.0567092
0.0535548
0.00357512
0.0556978
0.0506517
0.0473892
0.123015
0.0056179
0.0540909
0.0502104
0.0124659
0.0333522
0.0512928
0.0508465
0.117344
0.0203556
0.00765541
0.0223203
0.0529055
0.0509547
-0.00462336
-0.00362181
0.0540103
0.0397403
0.0514202
0.00467192
0.28607
0.0537348
0.0515281
0.0530008
0.0156437
0.0574044
0.0567442
0.0507987
0.0519147
0.0323505
0.0795777
0.0427041
-0.0352705
0.0532181
-0.0400281
0.0524469
-0.113669
0.0190154
-0.00164263
0.0542729
0.0564851
0.0232301
0.0494974
0.0548614
0.0608609
0.0576186
0.0579624
0.072992
0.0152594
0.0148665
0.0534307
0.0491339
0.0202765
-0.002845
0.0534329
0.0531542
0.0126309
0.0529986
0.228415
-0.151796
-0.0960523
0.0534333
0.0450738
0.00130041
0.0571606
0.0493712
0.460006
0.0532002
0.115796
0.0915379
0.0448916
0.0497388
0.0550198
0.0403386
0.000640343
0.0328471
0.0555644
0.0534588
0.0541739
0.0573597
0.0570825
0.0576615
0.0147503
0.0546757
0.0531874
0.0218704
-0.0728021
0.0558619
-4.09941e-05
0.0532984
0.0561088
0.0967758
0.00123947
0.00188438
0.099005
0.0490203
0.00186075
0.0536023
0.0542246
0.0026612
0.0401505
0.0484738
0.0401278
0.0538459
0.0531497
0.0502599
0.0519685
0.00192459
0.106675
0.0629476
0.120867
0.0166668
0.0425525
0.115387
0.0663757
-0.00434465
0.0140503
0.0671171
0.0564694
0.0542432
0.0398433
0.0223617
0.053423
0.0541498
0.0529785
0.0542712
-0.0148954
0.0402111
0.0370941
0.107636
0.061192
0.23977
0.0045605
0.00155355
0.0500021
-0.000627293
0.0538319
0.0530021
0.0527354
0.108322
0.116021
0.0496234
0.0328326
0.231912
0.0166134
0.00669305
0.041524
0.0670373
-0.128187
0.0527008
0.0549952
0.053864
-0.00909969
0.0548816
0.0338456
-0.054581
0.0531823
0.081039
0.0595646
0.0444816
0.0560843
0.0499786
0.0545114
0.0570739
0.0545661
0.0544535
0.0566873
0.00618011
0.0103969
0.0445173
0.337452
0.00150461
0.41595
0.0180859
0.0258961
0.0568183
0.019362
0.0597624
0.00655667
0.318821
0.101013
0.0588972
0.0464971
0.0582726
0.0570555
0.0229171
0.0537013
-0.00449424
0.0545558
0.10256
0.0507101
-0.0132514
0.00877246
0.012013
0.0584246
0.04204
0.00924359
0.0801598
0.00639873
0.0431506
0.00405797
0.0459573
0.0534671
0.0528109
-0.210076
0.0723764
0.0457532
0.0534026
0.0547381
0.0583663
0.086227
0.0103497
0.0179932
0.0529462
0.047293
0.0582723
0.0457565
0.0430152
0.00292212
0.0596859
0.0601734
0.00982133
0.0471217
0.0438549
0.10646
0.0534303
0.0596257
-0.261586
0.0542656
0.00827603
0.0531458
0.0442323
0.0915816
0.0103533
0.053688
0.0202071
0.0536657
0.114161
0.0484863
0.0108144
0.0117227
0.115508
0.0535091
0.00124652
-0.0048509
0.0590643
0.0455531
0.0486054
0.0383612
0.240819
0.057738
0.0541266
0.0578882
0.0539302
-0.126546
0.0445096
0.0113504
0.0340814
0.01922
0.526898
0.0449016
-0.0561309
0.0105902
-0.0813738
0.0195849
0.0554712
0.0449968
0.0339015
-0.0477421
-0.0354443
0.0525553
0.0524042
0.120574
0.0523517
0.208826
0.0212252
0.0717836
0.0489814
0.404242
-0.101997
0.0452175
0.0534724
0.053441
0.0961172
0.0584187
0.063187
0.0556135
0.0158932
0.0800645
-0.0160263
0.355363
0.0529655
0.0855344
0.0152761
0.122636
0.0469984
0.114731
0.00793636
0.0974197
0.0563278
0.0533864
0.0103342
0.00757136
0.0184833
0.120053
0.0139118
0.0265417
0.0540382
0.0527115
0.0416357
0.25061
0.0416456
0.0129061
0.0691446
0.0212319
0.0389679
0.0561898
-0.00414395
0.0349889
0.0465679
-0.00689961
0.0607474
0.0291015
0.196333
0.053459
0.0346559
0.0530715
0.06043
0.0507932
0.0535058
0.0534287
0.00291488
0.0477318
0.0809077
0.0134537
0.0975009
0.033055
0.0338316
0.0111759
-0.202582
0.0542572
0.060259
0.0271741
-0.0680906
0.00793643
0.0534328
0.514085
0.0534031
0.0485239
-0.176369
0.0584865
0.0537264
0.0537509
0.0682027
0.0919074
0.0542693
0.0594232
0.111079
0.0536361
0.0562385
0.0561442
0.0527199
0.0930011
-0.0161748
0.057302
0.118856
0.0106423
0.00642229
0.00665296
0.0164175
0.0560852
0.0483531
-0.0398863
0.00443436
0.0760155
0.0523871
0.0542957
0.119974
-0.000359282
0.0359868
0.0384757
0.0356453
0.0555114
0.0469842
0.0865953
-0.225871
0.377532
0.0852259
0.0530566
0.0470594
0.0824529
0.353038
0.114109
0.0534806
0.0010365
-0.0114828
-0.235827
0.0388684
-0.166724
0.0542708
0.0558564
0.0543102
0.00777801
0.077711
-0.168231
0.0488104
-0.0839521
0.0521161
0.0535688
0.0112412
0.0576964
0.00190684
-0.0406243
0.0592589
0.0385683
0.026157
0.0392563
0.059107
0.0771141
0.0754768
0.033163
0.080143
0.0593054
0.0543383
0.056017
0.0547834
0.107167
0.023476
-0.00628965
0.00386353
0.0884917
0.0259627
0.0243602
0.0455884
-0.00883401
0.0368337
0.0586526
0.0538738
0.000505951
0.111692
0.0490679
0.042253
0.0601406
0.0248399
0.105105
0.11849
0.0249527
0.245234
0.0234463
0.0895638
-0.0375389
0.0573866
0.019546
0.0121469
0.0522092
0.0365234
0.0423056
0.0470499
0.0535972
0.0497273
-0.0129949
-0.000448176
0.0490092
-0.144896
0.102662
0.0546969
0.0524058
0.00269227
0.0546175
0.0794985
0.0145605
0.00602649
0.0545621
0.0566385
0.0529418
0.0546261
0.120839
-0.143376
0.0546098
0.0583611
0.0534396
-0.145086
0.0226827
0.0154788
0.0532575
0.0545289
0.0557913
0.0263602
0.0868618
0.0295934
0.0515267
0.0564532
0.0545139
0.0223677
0.0871941
0.0422674
0.0541441
0.0326977
0.0267417
0.0780819
0.0503342
-0.015791
0.147168
0.0522397
0.0346345
0.0561451
0.0465049
-0.189095
0.0591393
0.0547481
0.0118431
0.107602
0.0853999
-0.139273
0.0794195
0.0376321
0.0289775
0.060162
0.0428434
0.0373514
0.0593073
0.148612
0.0535361
-0.324083
0.0862591
0.182101
0.0428199
-0.00475456
0.0980811
-0.00112141
0.263579
0.00729065
0.0286923
0.0364603
0.0411675
0.0534088
0.0469105
0.0907849
0.00160171
0.059556
0.052248
0.0066688
0.0179956
0.00662262
0.0829383
0.00122809
0.00609342
0.052487
0.0734133
-0.0479651
0.0897923
0.0533941
0.0377382
0.0569747
0.0533927
0.0721504
0.0542599
0.0469458
0.247439
0.0943555
-0.0161
0.0542946
0.0536715
0.0539487
0.0597184
0.057361
-0.00128302
0.0575018
0.0535938
-0.0158668
0.0228192
0.00431864
0.0717602
0.0516971
0.0451488
0.0931216
0.036917
0.0543145
-0.0407378
0.0107995
0.115187
0.0537474
-0.239911
0.0997814
0.0527124
0.00307467
0.0394532
-0.0128449
0.0385368
0.00173922
0.0969443
0.0519723
0.0557965
0.0229223
0.0404763
0.0581035
-0.0060714
0.0586052
0.0588166
0.0991614
0.0516324
0.0571693
0.0382559
0.00988677
0.051637
0.0586705
0.0566925
0.0533356
0.0984172
-0.0403788
0.0276144
0.0598236
0.0568722
0.0449007
0.0532565
-0.193642
0.0823004
0.0540815
0.0739723
0.0451147
0.101697
0.15484
0.0011071
0.0586924
0.00632472
-0.000875992
0.0532128
0.0431649
0.000314519
0.0495014
0.0541231
0.0758039
0.0289668
0.0573006
0.0541486
0.043803
0.0847226
0.0546397
0.0329072
0.0542721
0.0418028
0.0700868
0.133059
0.0537768
-0.198117
0.0831763
0.0168853
-0.120031
0.0948161
0.0338729
-0.0288503
0.0602563
0.143065
0.207867
0.0565335
0.0473206
0.047341
0.0555588
0.0574681
0.00758423
-0.0787521
-0.149674
0.00929184
0.149652
-0.00545734
0.0108487
-0.0524944
0.0535898
0.0557621
0.0496714
0.0262839
0.0532788
0.00870399
0.0392667
-0.00587264
0.0534815
0.0564347
0.0517165
-0.161968
0.122491
0.0806964
0.0649045
0.124422
0.0476435
0.0545723
-0.0150979
0.0389919
-0.0116231
0.00786701
0.0240625
0.00543408
0.0157693
0.0607908
0.0529749
0.053332
-0.119519
0.0429181
0.0435823
0.0549976
0.00351946
0.0193197
0.0538107
0.0206788
-0.0118851
-0.000229018
0.0966712
0.0564179
0.0537204
0.00533134
0.0597976
0.0535441
0.000445348
0.00845017
0.0570526
0.140562
0.000751855
0.0539039
0.05367
0.0532942
0.110302
-0.146393
0.0413935
0.011225
0.0564254
0.0564479
0.0111766
0.0540509
0.181031
0.0157257
-0.0491476
0.15508
0.0324472
0.0527796
0.0534273
0.0352656
0.0600098
0.0528512
-0.18017
0.00627213
0.0459449
0.219168
0.103881
0.04864
0.0534346
0.0536662
0.05485
-0.073802
0.16221
0.0350873
0.0802951
0.0701228
0.00663337
-0.0773132
0.0265688
0.0580461
0.0560167
0.0175472
0.0444117
0.0529733
0.0558751
0.00457593
0.0573867
0.0347417
0.0590274
0.0843518
-0.0102207
0.0505729
0.0559784
-0.00243545
0.00398016
0.0625715
0.0558271
0.0794361
-0.000698758
0.0405265
0.0183896
0.0769444
0.0170168
-0.0311711
0.0568297
0.160294
0.0530149
0.106711
0.0010498
0.0540125
0.0535031
0.376557
0.0539269
0.0595276
0.0274354
0.0586086
0.0586847
0.0615436
0.053837
0.0539345
0.000283195
-0.0251781
0.0520039
0.337027
0.0400123
0.0557003
0.234387
0.100003
0.0570047
0.0486883
0.055346
0.0905708
-0.261719
0.0584016
0.0519686
0.0532251
0.0557595
0.0668074
0.0173719
0.0579881
0.0681826
0.0569126
-0.155412
-0.005092
0.00806778
0.11295
0.0397507
0.0557882
0.00506044
-0.117977
0.0564198
0.0533992
0.0557321
0.0481484
0.0585341
0.0526963
-0.00277079
0.0483861
0.0479331
0.313332
-0.000980923
-0.00596816
0.00432154
0.0583601
0.00126736
0.0875742
-0.0876964
0.0512748
0.0108625
0.0540441
0.235844
0.0534785
0.0531284
0.0326608
0.0532469
0.0270266
0.0629308
0.058629
0.0511574
-0.0902295
0.0887941
0.0112048
0.0559351
0.0370737
-0.0509329
-0.006423
0.081504
0.077621
0.053674
0.0590355
0.0507566
0.0556892
0.0519611
0.0559115
0.0921177
0.0755951
0.00785414
-0.104994
0.0243652
-0.00762546
0.0337767
-0.108249
0.0526862
-0.0291012
0.0558143
-0.0118986
-0.00500307
0.0264039
0.0533392
0.0307773
0.0113358
0.0341428
-0.00356765
0.231265
-0.10337
0.0557568
-0.000943323
0.0470562
-0.00402139
0.0914813
0.00494888
0.0490754
0.0614585
0.0101067
0.0565073
0.0376175
0.0536219
0.0470608
0.0534778
0.0591999
0.00689662
0.00123966
0.053577
0.0871972
-0.0848598
0.488309
0.0530693
0.075965
0.0291578
0.196832
0.0327006
-0.180653
-0.0339151
0.0509824
0.0258783
0.0688609
0.178558
0.0503254
0.0703653
0.0793329
0.0516742
-0.0864681
-0.00357686
0.0558112
0.0262179
-0.0322473
0.0788869
-0.088198
0.0408153
0.0800214
0.0576446
0.053086
0.0590748
0.0477327
-0.0755421
-0.000441248
-0.0637856
0.054478
-0.0827905
0.0313509
0.00458813
0.113521
0.0259884
0.029339
-0.0538921
0.0405511
0.039222
0.00543191
0.0712459
0.0269102
0.0095369
0.0726939
-0.0896641
0.0877939
0.0355247
0.0892304
0.0545291
0.115031
0.000381043
0.102655
0.0566031
-0.0354159
0.0536271
0.0348923
0.00829736
-0.000912018
0.0605415
0.00645758
0.0457708
0.51056
0.0592973
0.00511513
0.0941624
5.54469e-05
0.00784912
0.0534777
0.0327549
0.0533921
0.465362
0.0538658
0.0535235
0.0532925
-0.0133098
0.048013
0.0460555
-0.00848925
0.0295929
0.0671663
0.0477696
0.0535385
0.108355
0.0521527
0.106844
0.00881033
0.0884824
0.0395085
0.0450225
0.0270775
-0.0121006
0.0101157
0.0460111
0.538978
0.0538487
0.0535854
0.0592462
-0.134414
0.056641
0.0326085
0.0797217
0.0573875
0.04468
0.00376218
-0.0219515
0.0346559
-0.0458222
0.0583082
0.0484233
0.0146435
0.019994
-0.000687885
0.0557546
0.0268451
0.0747743
0.19367
0.0392683
0.0535193
0.0470008
0.179591
0.0541452
0.0541472
-0.0340025
0.0332806
-0.0395327
0.0446364
0.0534846
0.189684
-0.0131294
0.0488963
0.0586102
0.0519765
-0.111974
0.0541532
0.0350934
-0.0266701
0.0541473
0.0535264
0.0100135
0.0531126
0.0541559
0.0136519
0.0525427
0.0534045
0.0226841
0.0531623
-0.0118747
0.0534769
0.0597765
0.120698
0.00893892
0.0541598
0.00597312
-0.1735
0.0449782
0.076519
0.0522461
0.035683
0.0523511
-0.0170075
-0.00473382
0.048765
0.0535335
0.134295
0.0308738
0.0159826
0.0116311
0.130579
0.0531231
0.0066978
0.0535224
-0.0189926
-0.00463601
-0.00393659
0.00856585
0.157614
-0.0884727
0.00545347
0.0101506
0.0492865
0.0558016
0.00164429
0.139739
0.100925
0.035551
-0.0733116
0.0531445
-0.0631286
0.193264
0.0526851
-0.00705386
-0.00994548
0.0825147
0.00824575
0.00777652
0.0754681
0.0534982
-0.0111344
-0.0638923
0.256582
0.0583397
0.0027005
-0.0299337
0.143191
0.05517
0.0534946
0.00641499
-0.0521309
0.0411537
0.0700491
0.0537545
0.0531036
0.0580152
0.0581428
0.0266541
0.0589098
0.0534883
-0.014698
0.0382269
-0.0253812
0.0160304
0.0537175
0.0535256
0.145974
0.0578964
0.0819093
0.0621817
-0.0442531
0.0836997
0.0527598
-0.0214935
0.0622307
0.0534241
0.0294224
0.0398075
0.0446104
0.0959643
0.0266769
-0.155228
0.0416959
0.0531544
-0.0262744
0.053258
-0.00500965
0.0323774
-0.0253745
-0.0477852
0.098339
-0.0302579
0.0537482
-0.00800933
0.0572465
0.0743312
-0.0225245
0.0211838
-0.0225856
-0.0644463
0.175305
-0.0106475
0.0657428
0.0527199
0.053345
0.0532386
-0.0306036
0.14293
0.0527485
-0.0135973
-0.0185931
0.0152197
0.00287225
0.0291246
0.112001
-0.0279812
0.0573384
0.0126615
0.026328
0.0540336
0.0540503
0.0552362
0.058186
0.0113982
0.0536532
0.0555139
0.0595339
0.076975
0.000562169
0.0530463
-0.0180292
0.0534755
0.00512139
0.0151805
0.05556
0.0420988
0.00224546
-0.0192623
0.0386089
0.0792442
0.0580648
0.0279872
0.0338631
0.0535413
0.0573287
0.057342
0.0556182
0.0535918
0.0721941
0.0535806
0.128303
0.0136924
-0.0911038
0.053589
0.0622683
0.0536802
0.0532935
0.122693
0.0617544
0.0528453
0.319999
0.134757
0.0386238
0.0674966
0.0394342
0.122718
0.0212395
0.00943314
0.056938
0.059429
0.053533
0.0536469
-0.0107984
0.0531211
0.0552926
0.125319
0.0555169
0.0571536
0.0298998
0.053446
-0.0346282
0.0536148
0.0552437
0.0084762
0.00995338
-0.0695677
0.110708
0.0733126
0.0554354
0.00790158
0.0553864
0.0263814
0.00403086
0.0593301
-0.0263075
0.054208
0.027251
0.0726195
0.0536987
0.103853
0.0536129
0.0592981
0.0535375
0.0304907
0.053068
0.0548788
0.0254896
0.0487887
0.073348
0.0283751
0.0535634
0.0280978
0.0132074
0.0591294
0.00903209
-0.0128728
0.0535246
0.0323361
0.111533
0.00346888
0.0594506
0.045987
0.0459114
0.0264458
0.0600396
0.154189
0.0575245
0.0535467
0.0535914
-0.0191744
-0.00736003
-0.0208869
0.280698
0.102612
0.05227
0.0274689
0.0116541
0.0539141
-0.0563692
0.0575052
0.104955
-7.461e-05
0.0552845
0.145908
-0.00685852
-0.0155671
0.0240601
0.0303262
0.053836
0.0532215
0.062095
0.0535538
0.0534944
0.140235
0.0555834
0.0669218
0.0527695
0.0411551
0.0462797
0.370835
0.0446919
0.0477207
-0.0082158
0.106131
0.0951229
0.0354249
0.111231
0.0532612
0.0481669
0.00500522
0.0738593
0.12602
0.0550115
-0.000599738
0.0417482
0.0522101
0.055327
0.0534423
0.0662201
0.0446226
0.0539718
0.0311752
0.257259
0.0540502
0.012497
0.0335347
0.052968
0.0661793
0.0558693
0.0285864
0.0534774
0.0534033
0.0151117
0.0304442
0.0936366
0.143406
-0.228514
0.0591083
0.0671875
-0.0363851
0.0342957
0.0558184
0.0418703
-0.000587817
0.0535723
0.0568347
0.0535227
0.0310629
0.0664298
0.0192525
0.0535881
0.0643063
0.0363645
0.0576084
0.120454
0.0490497
0.0533705
0.0535838
0.0305852
0.0239269
0.307595
0.0637412
0.0851312
0.0054232
0.00535699
0.0533078
0.102567
0.0535687
0.0535289
0.0540377
-0.00149932
0.0584008
0.0360725
0.00708993
0.0208585
0.00680796
0.03126
0.065254
0.116815
0.0506073
0.0120983
0.094115
0.0341744
0.130022
0.0571652
-0.161518
0.144183
0.134909
0.0530673
-0.112734
0.00615639
0.00833655
0.138905
-0.000227388
0.0616528
0.0597757
0.0414479
0.0380371
0.0347234
0.211682
0.0755061
0.0576133
0.0151045
0.0575389
0.0386126
0.0251352
0.0960969
0.0381723
0.070974
0.0863345
0.00574246
0.09925
0.0333449
0.0542964
0.0635444
0.052633
0.0457012
0.0523104
0.0579736
0.0200923
-0.0459605
0.0530821
0.165575
0.052592
0.0444604
0.00917441
0.0314813
0.0347314
0.0520671
0.00772689
0.0128495
0.252923
0.0535512
0.00918671
0.038042
0.0113717
0.0540437
0.0537652
0.152335
0.0249453
0.0344908
-0.123812
0.0276699
0.040828
0.139622
0.0148702
0.121269
0.059122
0.0190761
0.0397503
0.0487405
-0.0260459
0.00701468
0.020944
0.0346098
0.0529487
0.00665716
0.00631625
-0.00075782
0.0425865
0.0384329
0.413121
-0.0370956
0.0525818
-0.011989
0.0213525
-0.109992
0.0534998
0.0329452
0.0339986
0.053504
0.00441383
0.0297025
0.0562762
0.00012928
-0.0213322
-0.0013273
0.0589602
0.0245919
0.0540705
0.0483116
-0.0242164
0.0845474
0.0302957
0.00745378
0.147614
0.0257838
0.0208959
0.0223714
0.00770946
-0.0263275
0.0520411
0.0228482
0.0163883
0.0941604
0.279147
0.0139637
0.0363246
0.01976
0.0535002
0.0949557
0.0326746
0.0096136
0.0532201
0.0377796
0.00619095
0.0145728
0.15094
0.0112257
0.031899
0.0306129
0.058163
0.00384081
0.02817
0.0753316
0.0623546
0.0589789
0.0107326
0.0383807
0.0444295
0.0412206
0.0535338
0.00599166
0.0652073
0.031218
-0.00215281
-0.0446114
0.0477454
0.0306973
0.0174511
0.0251804
0.0536069
0.101583
0.100694
0.0746763
0.0540203
0.226072
0.00724499
0.053927
0.0914642
0.0531341
0.0611265
0.0347942
0.0275845
0.0551435
-0.106358
0.0546622
0.0623811
0.0456215
-0.0107397
-0.0293167
-0.000456435
0.0652366
0.0098577
0.0540501
0.0307835
0.0777399
0.0546798
0.151316
0.0180372
0.0291105
0.00870568
0.0699581
0.0231571
0.0392534
0.0532811
0.0534324
0.0489615
0.0664612
0.124208
0.0162327
0.148939
0.0839212
0.0925176
0.0552972
0.0726047
0.00752383
0.0534361
-0.0217468
-0.0168352
0.0562286
0.0535408
0.0438963
0.0518121
0.0534179
0.0679397
0.0367148
0.13399
0.0171243
0.036637
0.0919523
-0.00983556
0.00594664
0.0884458
0.013469
0.0254019
0.0725875
0.0531953
0.0660604
0.0300433
0.124733
0.132926
0.221659
0.0534499
0.129165
0.0344047
0.0337748
0.106298
0.110461
0.102922
-0.0229278
0.0221738
0.0684658
0.0223078
0.0427095
0.0481507
0.0937692
0.052874
0.0175936
-0.0274406
0.0628625
-0.0245063
0.0524895
0.0858733
0.0584511
0.0329418
0.104106
0.16645
0.0225865
0.0461083
0.0178754
0.0356118
0.0728798
-0.000186077
0.085133
-0.0016868
0.0534595
0.0225428
-0.14443
0.0998197
0.0384731
-0.0393003
0.0109605
0.0445615
0.0526113
0.105453
0.095746
0.035969
0.0592041
0.055023
0.00604427
0.0469702
0.00511304
0.0834621
0.0371596
0.14368
0.0534652
0.0493409
0.00340421
0.0406566
0.0412315
0.0689098
0.0598212
0.0318172
0.169825
0.109441
0.0533096
0.0063819
0.0480045
0.0532264
0.134865
0.0527888
0.0232731
0.0263922
0.0528601
0.0529604
0.0558138
0.00763328
0.0642794
0.100124
0.0296584
0.132978
0.0337278
0.0354249
0.0391758
0.0810034
0.0536415
0.0418093
0.0400068
0.0284594
-0.0188437
0.00988849
0.0697667
0.0469395
0.0583436
0.0337138
0.0456393
0.0641195
0.023369
0.109211
0.0337286
0.0532512
0.00864184
0.0898923
0.00769405
0.0533529
0.136646
-0.0222537
0.0495086
0.100215
0.00637175
0.0572687
0.0982988
0.00416438
0.0919061
0.116828
0.00484231
0.0500838
0.0818641
0.0785808
0.0147512
0.0504321
0.0337615
0.0534315
0.0523943
0.0531521
0.0138529
0.0185009
0.0215808
0.0849274
-0.0585276
0.170557
-0.0550177
0.0292699
0.0432714
-0.0351204
0.0510631
-0.0987796
0.0356192
0.0243358
0.0194105
0.0305967
0.0672626
0.0450736
0.0345475
0.0577896
0.0533348
0.0807204
-0.0330533
0.0141954
0.00671944
0.0183292
0.0557757
0.0293077
0.0173209
0.0586581
0.0256557
0.0415098
0.121656
0.0882759
0.083654
0.0956589
-0.0014489
7.74911e-06
0.00617328
0.0244338
-0.00182979
0.0155155
0.0610364
0.0448576
0.132794
0.0771252
0.00767655
0.0535503
0.0974477
0.129185
0.0766791
0.0820568
0.060282
0.0179026
0.116198
0.031024
0.0249449
0.0360247
0.0355162
0.052477
0.0303232
0.0312224
0.0572791
0.0214537
0.0322062
0.048102
0.106658
0.0468932
0.0415684
0.0781587
0.0586661
0.0528011
0.0548607
0.00280316
0.0168238
0.0541754
0.0747303
-0.0472874
0.00709173
0.059358
0.0207144
-0.0169011
-0.0374637
-0.00291415
0.0364633
0.0373192
0.0590959
0.035819
0.027142
-0.000256029
-0.00113323
0.0039242
0.00107478
0.0374022
0.0525416
0.0522991
0.131001
0.0656342
0.0360857
0.0415185
-0.000366836
0.0480769
0.0289623
0.150366
0.0901611
0.0122499
0.0581966
0.0173425
0.0531011
0.00939049
0.000775954
0.0298122
0.053147
0.0623085
0.169072
0.0457035
0.0916209
-0.0147139
0.0534846
0.0373466
0.0961172
0.103574
0.0728687
0.0538793
0.0494481
0.0504624
0.0539812
0.0531531
0.0439633
0.00734316
0.053167
0.05992
0.0577696
-0.343681
0.12042
0.0504526
0.0534463
0.0114659
0.0177216
0.0248258
0.0791793
0.0187053
0.0527325
0.0460275
0.00543262
0.0539185
0.0147002
0.0945456
0.0739825
0.0519977
0.0128999
0.0537026
0.041925
0.0399978
0.0456158
-0.00238368
0.0623637
0.0375914
0.0358238
0.113874
0.0841679
0.0531069
0.0535489
0.0391003
0.0334197
0.0144698
0.0218183
0.0427328
0.00852697
0.0831544
0.053999
0.0408912
0.00638073
0.0437847
0.0876393
0.0669331
0.0556104
0.152921
0.0235183
0.12683
0.142654
0.0295171
-0.00207372
0.000302923
0.125927
0.0435527
0.00746564
0.0770052
0.0390665
0.0240307
0.0916888
0.0750413
0.0546902
0.00311441
0.0331857
0.0301992
0.0433661
0.00649044
0.0549056
0.083008
0.0547399
0.0600587
0.0889075
0.0588711
0.0469375
0.108216
0.00821313
0.0942168
0.0307223
0.0752208
0.00947667
0.0646927
0.0128979
0.0545069
0.032763
0.0103693
0.0705068
0.0286999
0.0544677
0.0450432
0.0156073
0.0479752
0.0375815
0.0595432
0.0393133
0.0239864
-0.000518974
0.0980297
0.107059
0.10231
0.0441026
0.0449187
0.038148
0.0200597
0.0308274
0.0537765
0.0581576
0.0729444
0.0261561
0.0612174
0.00540317
0.0335737
0.0602641
0.0356128
0.0345737
0.0462948
0.0321993
0.0405448
0.136393
0.261524
0.0241392
0.028588
0.0305306
0.0341922
0.0404124
0.0388138
0.0369987
0.0243434
0.0138204
0.052346
0.0534348
0.0525306
0.00697485
0.0532823
0.0317058
0.0465629
0.0327969
0.0628929
0.0363303
0.12568
-0.00620871
0.0530383
0.0367233
0.0936407
0.0445941
0.0639077
0.0908526
0.057632
0.0532058
0.0312497
0.00430219
0.088591
0.00467547
0.11715
0.0858204
0.0043062
0.0667473
0.0714521
0.0105533
0.0460543
0.0522122
0.0545578
0.0392529
0.0530079
0.0348452
-0.0319844
0.0523298
0.0828117
0.0465016
0.0658446
0.0664708
0.161086
0.0588437
0.0452052
0.00518198
0.0139435
0.0894458
0.0328469
0.0861139
0.0544016
0.0407994
0.0682425
0.048733
0.0348661
0.054016
0.054432
0.0339503
0.0529612
0.0373609
0.0642701
0.0832155
0.015415
0.0527665
0.00746449
0.00243896
0.0707671
0.0615782
0.0548196
0.0712197
0.134101
0.0534193
0.0433154
0.050357
0.0637655
0.0419235
0.0381148
0.0425411
0.0768819
0.0859463
0.0345403
0.0820591
0.0931215
0.063257
0.110059
0.0609443
0.0808554
0.0302884
0.0456452
0.0224135
0.0540822
0.0676905
0.0547212
0.0860796
0.00249729
0.0580776
-0.0113952
0.0484196
0.0285234
0.119984
0.00823773
0.0504328
0.0531431
0.00610384
0.10944
0.028767
0.0313029
0.016451
0.0474039
0.0827282
0.040696
0.0519713
0.0390196
0.00916061
0.0467037
0.0433935
0.398935
0.0424716
0.0547506
0.0622874
0.0677814
0.0461727
0.0341776
0.0534412
0.104255
0.0446107
0.0534279
0.0134779
0.0397328
0.0313488
0.043906
0.0665319
0.0461846
0.047983
0.0472375
0.0366289
0.0828389
0.0534602
0.0421157
0.0605609
0.0482277
0.0433589
0.0588724
0.058545
0.0627965
0.0630209
0.0535102
0.0465527
0.0545695
0.0310583
-0.00129718
-0.000570225
0.147478
0.0776222
-0.00860973
0.033265
0.0528223
0.0557761
0.0616402
0.0769073
0.0537426
0.0296495
0.0782966
0.0597516
0.0278744
-0.00874674
0.0228764
0.0527904
0.0404749
0.0533322
0.096441
0.232872
0.0426548
0.0603121
0.0447504
0.00686115
0.0531365
0.0755068
0.0290555
0.0490244
0.0538837
0.035928
0.0994128
0.0413478
0.0595469
0.0275553
0.0450622
0.0469503
0.0907487
0.0632787
0.0437192
0.0552485
0.0421068
0.0584769
0.0412482
0.053699
0.0421227
0.053226
0.0583401
0.0116075
0.0713553
0.0177469
0.0765762
0.0766536
0.0568696
0.041871
0.0382366
0.0800723
0.094919
0.0115061
0.0456038
0.0579457
0.0615261
0.0427762
0.0519781
0.0474164
0.0386767
0.0298257
0.0299729
0.0484364
0.0160016
0.0427173
0.0818912
0.0434979
0.0460633
0.0410062
0.025478
0.0866561
0.0570218
-0.000495358
0.0424766
0.0451991
0.0102306
0.0559648
0.000739447
0.0553946
0.0455645
0.0499125
0.0508514
0.0542262
0.046058
0.00425154
0.0534419
0.0220863
0.074591
0.0555553
0.0609283
0.0359721
0.0981015
0.0637027
0.0537749
0.0376197
-0.0637851
0.0535355
0.0058312
-0.078782
0.0685675
0.0881341
0.0567611
0.0440939
0.0313406
0.0744442
0.0618387
0.0531948
0.0944606
0.0120661
0.0840806
0.0534634
0.0529955
0.0465524
0.047837
0.0484836
0.0689124
0.0774726
0.0490577
-0.00130687
0.050546
0.056941
0.0446677
0.0342655
0.000406445
0.0529828
0.0460109
0.0252872
0.0474231
0.0495228
0.0555334
0.129742
0.0752928
0.053837
0.0657334
0.0564863
0.0457159
0.0766363
0.0628763
0.0473344
0.0657446
0.0397733
0.0654991
0.0871599
0.00324557
0.0251184
0.0539227
0.0728661
0.051095
0.0556068
0.0546137
0.0451914
0.00204982
0.00048343
0.0620652
0.0352447
0.0378839
0.0294092
0.0525629
0.0523593
0.0538357
0.0731404
0.0376567
0.0534998
0.045715
0.0576409
0.0244649
0.0107176
0.0534993
0.0530736
0.039369
0.0516412
0.0519227
0.0457376
0.0487431
0.0430687
0.0693064
0.0646907
0.0365474
0.0513174
0.0561969
0.0600928
0.0461556
0.0534519
0.0462225
0.0331933
0.00156016
0.00564898
0.0384319
0.125706
0.0465217
-0.0598321
0.0911283
0.0459527
0.044642
0.0568406
0.0521185
0.0534976
0.0548465
0.0597562
0.0454992
0.0548377
0.0527934
0.0989854
0.00614814
0.0357262
0.0536323
0.058081
0.0662355
0.0731878
0.0351169
0.0554457
0.0533992
0.0520848
0.0469191
0.0305008
0.0282745
0.00653358
0.0646124
0.0517192
0.0435126
0.0590232
0.05704
0.0567893
0.0509915
0.0610409
0.053517
0.0165674
-0.00239396
0.0528829
0.0691174
0.0456203
0.0482109
0.0502104
0.0545683
-0.0416144
0.0662446
0.000215064
0.0465087
0.00839655
0.0555319
0.0709021
0.128819
0.0585002
0.0536644
0.0329556
0.0240613
0.113488
0.0466711
0.0697499
0.0484861
0.0531058
0.0674122
0.0511656
0.122472
0.000147898
0.0812371
0.0563474
0.0515914
0.0534902
0.051295
-0.0258283
0.0419738
0.0530358
0.0596881
0.0519733
0.0530348
0.0529906
0.0116189
0.00388254
0.0578694
0.0522429
0.0846758
0.0584549
0.103428
0.385649