/*--------------------------------*- C++ -*----------------------------------*\
  =========                 |
  \\      /  F ield         | OpenFOAM: The Open Source CFD Toolbox
   \\    /   O peration     | Website:  https://openfoam.org
    \\  /    A nd           | Version:  7
     \\/     M anipulation  |
\*---------------------------------------------------------------------------*/
FoamFile
{
    version     2.0;
    format      ascii;
    class       volVectorField;
    location    "1.306";
    object      U;
}
// * * * * * * * * * * * * * * * * * * * * * * * * * * * * * * * * * * * * * //

dimensions      [0 1 -1 0 0 0 0];

internalField   nonuniform List<vector> 
12359
(
(0.981838 8.43291e-06 -1.01687e-16)
(0.971319 -0.00120532 -1.71727e-17)
(0.999963 -3.86158e-06 -2.91668e-17)
(0.939024 0.00133357 2.36559e-16)
(0.977786 -0.000676442 -6.48465e-17)
(0.889099 0.000170099 -6.28402e-17)
(0.852671 -0.000686768 -5.72958e-18)
(0.873502 0.000105657 -2.08612e-17)
(0.805125 0.00963398 -1.54142e-17)
(0.901748 0.000351191 -1.54492e-17)
(0.828248 0.00951146 1.7143e-17)
(0.744352 0.0272247 -6.5884e-17)
(0.381247 0.0252424 -2.12044e-16)
(0.932286 2.52253e-05 1.5752e-16)
(0.943654 0.000195266 1.60445e-16)
(0.56538 0.0239976 -3.4562e-17)
(0.484144 0.0272236 -8.62629e-17)
(0.994746 4.24017e-05 -7.34616e-17)
(0.995184 8.91421e-05 3.91595e-17)
(0.957656 -0.000281711 -1.53151e-16)
(0.922515 -0.0017081 1.38127e-16)
(0.774499 0.0175813 4.34075e-17)
(0.961848 -0.00138251 -2.43227e-17)
(0.953796 0.000205801 -1.72151e-17)
(0.967315 -0.00125883 -5.42506e-17)
(0.958913 -0.000396391 2.63921e-17)
(0.99868 -8.79007e-05 -3.51128e-17)
(0.998849 -0.000107049 -4.30209e-17)
(0.996 -1.85716e-05 -5.40888e-17)
(0.998088 -5.99496e-05 -1.22395e-17)
(0.997748 -5.01039e-05 1.83307e-17)
(0.99943 2.40437e-05 -2.74243e-17)
(0.999753 -2.04886e-05 -5.01904e-19)
(0.998365 -8.41086e-05 -3.48261e-18)
(0.999908 -3.38473e-06 1.84915e-17)
(0.997473 -8.26625e-05 1.98325e-17)
(0.988865 -0.000385564 8.51934e-17)
(0.983035 -8.55559e-05 2.86702e-17)
(0.979454 -0.000813956 3.39539e-17)
(0.985509 -0.00060519 1.65103e-16)
(0.974082 -0.000943315 3.0372e-18)
(0.984171 -0.000217353 2.35878e-17)
(0.991165 -0.000233355 -6.40986e-17)
(0.992134 -0.000288478 5.05963e-17)
(0.996751 -0.000140823 -3.74496e-17)
(0.996401 -9.7116e-05 1.04132e-17)
(0.99713 -0.000139563 2.60304e-18)
(0.997873 -4.93775e-05 4.59824e-18)
(0.995571 0.000104505 -3.45152e-17)
(0.998566 -6.96742e-05 -1.22798e-17)
(0.998995 -6.88777e-05 -2.24897e-17)
(0.999068 -6.23059e-05 -1.42823e-17)
(0.999485 -2.40786e-05 -3.00435e-17)
(0.994183 1.65039e-05 3.84959e-17)
(0.999579 2.43714e-05 1.56728e-17)
(0.999734 -1.39752e-05 -1.86369e-17)
(0.993112 -0.000136225 -1.59986e-17)
(0.999789 -1.65268e-05 -2.0117e-18)
(0.999795 -2.73401e-05 2.44447e-17)
(0.99986 2.40379e-05 -4.62331e-17)
(0.999697 -3.26746e-05 7.30197e-18)
(0.999937 1.95015e-05 7.31922e-17)
(0.999049 -5.5024e-05 -1.78032e-17)
(0.204543 0.0756045 -1.11855e-15)
(0.993678 3.74378e-06 -1.57501e-17)
(0.912829 -0.000827394 7.12209e-17)
(0.989862 -0.000124682 7.57336e-17)
(0.999233 -1.41716e-05 4.86717e-18)
(0.987826 -0.000396441 5.93995e-17)
(0.641635 0.0298433 -3.01362e-18)
(0.0418652 0.040843 1.59427e-15)
(0.976287 -0.000960897 5.40221e-18)
(0.999964 -1.34164e-05 -5.81011e-18)
(0.986715 -0.000571924 1.05405e-16)
(0.948765 -0.001075 -1.50997e-17)
(0.999894 2.66906e-06 -3.78613e-17)
(0.999403 -3.97073e-05 3.02164e-17)
(0.999923 -1.24398e-05 -7.59318e-18)
(0.989451 -0.000426038 -8.16972e-17)
(0.704801 0.00330081 3.04536e-17)
(0.920883 0.0575686 -2.53029e-17)
(1.00377 0.00291215 1.97567e-18)
(1.00003 -2.07194e-05 -2.00433e-18)
(0.99795 0.0128147 -1.33507e-18)
(1.0951 0.151136 2.87036e-17)
(1.02189 -0.000155053 -5.97577e-19)
(1.0039 0.00257629 -1.0814e-18)
(1.00164 -1.86404e-05 4.60969e-18)
(1.11331 0.0776794 -9.31449e-18)
(1.08409 0.159931 3.19353e-17)
(0.999945 0.000196634 2.85096e-17)
(0.262602 0.189022 -4.39077e-16)
(1 -1.16983e-05 -2.0202e-18)
(0.999468 0.00628016 -3.68662e-18)
(0.999267 0.0111243 -3.73841e-18)
(1.04036 0.00376498 -5.7799e-19)
(1.0001 0.00529637 2.67366e-18)
(0.999443 0.00627645 -1.35302e-17)
(0.990464 0.0299356 1.31952e-17)
(0.994016 0.0190468 1.70729e-17)
(0.937153 0.0785556 9.31152e-18)
(1 2.50975e-05 6.63629e-18)
(1.02257 0.00108985 -6.02417e-19)
(1.27168 0.100058 -3.27883e-17)
(1.00485 0.00115839 -6.29729e-18)
(1.03383 0.0237851 -6.99014e-18)
(1.00021 -1.63668e-05 -1.94987e-18)
(1.08815 0.152104 3.61931e-17)
(1.01837 -0.00301641 -5.61223e-18)
(1.03387 0.0224636 -5.59428e-18)
(1.0001 0.00506442 -4.54429e-19)
(1.00366 0.00288535 -4.11185e-18)
(0.940567 0.0481197 1.07557e-16)
(0.956196 0.0748265 -4.58208e-18)
(0.999059 0.0109607 -1.69223e-17)
(1.00357 0.000476034 6.91946e-18)
(0.952724 0.0789217 -3.10604e-17)
(1.00475 0.00242323 -1.39358e-17)
(1.12883 0.0621289 -2.60274e-18)
(1 1.19201e-05 -4.00296e-19)
(1.00005 0.00509764 3.51329e-18)
(0.859482 0.0270095 9.19567e-17)
(1.00169 0.000216443 4.32074e-18)
(1.04018 0.00729562 4.86504e-18)
(1.00518 0.00226753 6.45572e-19)
(1.00337 0.000880048 2.86392e-18)
(1.00835 0.0963765 -2.29298e-17)
(0.99829 0.0128394 -6.1511e-18)
(0.999994 1.3308e-05 1.08147e-17)
(1.00482 0.00242232 1.5477e-17)
(1.00261 -0.000134644 1.1458e-18)
(1.05072 0.0215357 1.68085e-18)
(1.05281 0.0203823 -4.0385e-18)
(1.05135 0.0193077 -1.202e-18)
(1.00024 0.000113272 -2.43122e-18)
(1.03901 0.00818855 7.29892e-18)
(1.00286 0.00085748 9.17707e-18)
(1.03845 0.00810592 2.12505e-18)
(1 9.69686e-05 -3.291e-17)
(1.00702 0.0932618 -1.94793e-17)
(1 1.95809e-05 -2.58087e-18)
(0.981704 0.0022853 -4.22008e-17)
(1.03186 0.0144164 3.61504e-18)
(1.00026 1.93278e-05 -2.12635e-19)
(1.03932 0.0423679 -1.4469e-18)
(0.896494 0.0271255 -6.42284e-17)
(1.00002 1.8009e-05 8.41586e-19)
(1.08784 0.125829 3.15873e-17)
(1.00497 0.0011546 -6.30987e-18)
(0.921634 0.0629074 6.26768e-17)
(1.04199 0.0042767 1.01153e-18)
(0.999996 2.22824e-05 -2.00769e-17)
(1.03196 0.0149777 8.8787e-18)
(1.00177 0.000168896 -5.00146e-18)
(1.00001 -4.91391e-06 -1.39562e-18)
(0.56813 1.30646 -2.45011e-17)
(0.934754 0.0883045 3.26847e-17)
(1.05015 0.0219791 -7.13537e-19)
(1.00011 0.00550403 -2.34367e-18)
(0.99927 0.000418594 9.42846e-18)
(1.00174 0.0466432 6.47281e-18)
(0.999261 0.000594362 3.77267e-18)
(1.04095 0.00687908 2.47686e-18)
(1.03426 0.0124039 -6.83084e-18)
(1.00004 6.76282e-05 1.09667e-18)
(1.00325 0.000610043 2.44112e-18)
(1.00111 0.0458116 7.87022e-18)
(0.875631 0.0143677 -1.68226e-17)
(1.03328 0.0119208 1.72045e-18)
(1.1212 0.0770269 -2.4418e-17)
(0.999978 1.12711e-05 -4.74878e-17)
(0.999986 6.20376e-05 8.45061e-17)
(1.03428 0.00973666 -6.93505e-18)
(0.970809 0.00250801 1.09813e-17)
(1.00487 0.00116585 5.94456e-18)
(1.00359 0.0910552 -6.96282e-18)
(0.996678 0.000509852 -7.69694e-17)
(0.996709 0.00088092 -2.61383e-17)
(0.935193 0.0491372 4.76299e-17)
(1.00351 0.0881133 3.97265e-18)
(0.932281 0.0066494 1.96096e-16)
(1.00002 2.72065e-05 1.47287e-18)
(0.999987 2.02765e-05 -2.46547e-17)
(1.0041 0.00284743 6.57076e-19)
(0.991358 0.0284234 6.6243e-18)
(0.865078 0.104891 1.57866e-16)
(1.00442 0.00577649 -7.44566e-19)
(1.0001 0.0109939 -8.94356e-18)
(1.0386 0.001984 -3.23905e-18)
(1.00473 0.00608737 -1.14805e-17)
(0.999796 0.0102776 -8.25141e-18)
(1.03818 0.0029968 -1.99483e-18)
(1.03528 0.0025895 -5.49017e-19)
(1.00186 0.000195979 1.18822e-17)
(1.0349 0.0213127 9.3076e-19)
(1.09448 0.0866461 -1.58529e-17)
(1.01505 0.012975 -5.24451e-18)
(1.00352 0.00612203 5.90056e-18)
(1.03146 0.016534 -2.3731e-18)
(1.00465 0.00254702 1.15445e-17)
(0.891436 0.0293728 4.14416e-17)
(1.04117 0.00152351 -3.82969e-18)
(0.992935 0.019054 -5.54421e-18)
(1.03404 0.0214686 7.90683e-19)
(1.03589 0.0399044 -5.24182e-18)
(1.00001 3.0198e-05 -1.53983e-18)
(1.03681 0.0399777 -2.26609e-18)
(0.992444 0.0181437 1.21614e-17)
(1.04297 0.00859039 3.17262e-18)
(1.00578 0.00410544 -7.79815e-18)
(1.00001 2.88204e-05 7.56688e-19)
(1.0465 0.0180572 -5.51185e-18)
(1.04661 0.0181518 -4.0432e-18)
(1.06202 0.114712 -6.19229e-17)
(0.82374 0.0859541 2.37676e-17)
(0.999957 2.90925e-05 3.88257e-17)
(1.00399 0.00613427 -1.32796e-18)
(0.99908 0.0107409 -2.29053e-18)
(1.0042 0.0061036 -4.08654e-18)
(0.981285 0.00102615 4.62889e-17)
(0.945562 0.0630379 6.3783e-17)
(1.00547 0.0038342 3.14333e-18)
(1.03954 0.00777923 -4.80898e-19)
(0.475585 0.376867 -1.16934e-16)
(1.0052 0.00272054 -5.88809e-19)
(1.00001 3.87584e-05 -2.2129e-18)
(0.980775 0.00109361 -9.95535e-17)
(1.01761 0.00181983 -8.39074e-18)
(1.00083 0.0881736 2.76779e-18)
(1.00281 0.00674199 7.23261e-18)
(1.00299 0.00650485 6.39207e-18)
(1.00003 -2.7564e-05 -3.25709e-19)
(1.03825 0.0431814 -2.68111e-19)
(0.992826 0.0241526 8.94572e-18)
(1.00067 0.0107065 -6.50676e-18)
(0.993699 0.0215381 2.92495e-17)
(1.00001 2.58529e-05 -8.22518e-19)
(1.03266 0.0166865 7.81927e-18)
(1.00057 0.0107655 -6.8733e-18)
(0.631357 0.255871 -1.96288e-17)
(1.00007 4.09387e-05 7.94138e-19)
(1.02453 0.00163942 -1.62519e-18)
(1.00025 0.00788897 -3.99472e-18)
(0.983478 0.162509 9.34187e-18)
(1.00346 0.0486557 -7.83359e-18)
(1.08539 0.128488 3.10719e-17)
(0.999858 3.93445e-05 2.61542e-17)
(1.04243 0.0080913 2.85932e-18)
(1.00418 0.00171021 -7.45944e-19)
(1.03553 0.00356318 -4.4344e-18)
(1.04439 0.0148331 -6.48345e-18)
(0.985038 0.000257368 -1.24019e-16)
(0.997015 0.00067476 2.74808e-17)
(1.00249 0.00647875 5.7628e-18)
(0.495102 0.435297 6.94076e-17)
(1.2363 0.137984 -3.63821e-17)
(0.999989 5.2641e-06 2.36851e-18)
(1.00584 0.00303187 -1.6669e-18)
(0.346473 0.304885 9.47983e-17)
(0.409185 0.0264435 -3.59542e-17)
(0.993161 0.0192189 -7.10035e-18)
(1.00237 0.0482114 5.13299e-18)
(1.00113 0.0820213 8.42872e-18)
(1.03483 0.0201473 5.77821e-18)
(0.97387 0.000740768 -2.49566e-17)
(1.3353 0.351983 -3.16457e-17)
(1.11815 0.0633729 1.23721e-17)
(1.00312 0.051057 -5.29226e-19)
(1.00559 0.00281099 -4.84448e-18)
(1.03867 0.00863889 3.18098e-18)
(1.03418 0.0109419 -1.74734e-18)
(0.987927 0.0270295 1.14461e-17)
(1.03287 0.0137361 -8.02196e-18)
(1.0024 0.00669424 -1.82279e-18)
(1.00574 0.00336441 -6.39956e-18)
(1.00002 1.65626e-05 -5.67043e-19)
(1.00556 0.00311223 -7.20269e-18)
(1.15748 0.112148 -1.98083e-17)
(1.00412 0.0535868 -1.08764e-17)
(1.00033 0.000141824 -1.66352e-18)
(0.999998 5.53592e-05 2.85582e-19)
(1.03567 0.0195928 8.4316e-18)
(1.00806 0.00190684 8.21688e-18)
(0.991121 0.000679655 -5.42545e-17)
(1.02472 0.00109864 -1.99431e-18)
(1.00001 3.07939e-05 -2.45324e-18)
(0.999825 0.0774633 1.54936e-17)
(1.00001 9.86418e-06 -4.55767e-18)
(0.999999 -2.07783e-05 1.75941e-17)
(0.999437 0.000100306 2.15731e-18)
(1.04132 0.00660633 3.70656e-18)
(1.00413 0.002341 5.57946e-18)
(1.41022 0.419022 -3.21204e-17)
(1.00036 9.57953e-05 -2.41693e-19)
(1.00034 -0.000101706 3.01229e-18)
(1.02165 0.00149691 -8.96843e-19)
(1.00435 -0.00037483 2.04978e-18)
(0.94368 0.0684019 2.11973e-17)
(0.999284 0.00978465 5.15862e-18)
(0.999072 0.000257009 3.46073e-18)
(0.999956 5.50135e-05 -1.15283e-18)
(1.14647 0.102162 -3.70054e-17)
(1.0017 0.0811005 -3.97089e-18)
(0.999956 5.5829e-05 -1.13366e-17)
(1.00379 0.00603845 8.2221e-18)
(0.999737 0.00899304 3.97886e-18)
(1.00432 0.00142822 4.33792e-18)
(1.00279 0.00037797 4.87425e-19)
(1.00304 -0.000339001 -5.29816e-18)
(1.00423 0.000836826 4.84024e-18)
(0.995467 0.00158296 3.61265e-17)
(0.831334 0.065492 1.15615e-17)
(1.00448 -0.00218005 -1.46167e-17)
(0.997856 0.000133469 2.51373e-17)
(0.986073 0.00106361 2.02152e-17)
(1.02541 0.0284623 4.25037e-18)
(1.10352 0.0549309 4.5418e-17)
(1.00539 0.000960875 6.83461e-18)
(0.989636 0.0256214 1.14072e-17)
(0.573478 0.0746046 -9.93844e-17)
(0.999991 5.24894e-06 -1.57596e-17)
(1.02779 0.0132769 -1.76325e-18)
(1.0004 0.000654491 -1.99993e-18)
(1.01481 0.0135359 -3.8883e-18)
(1.00027 2.34591e-05 1.68166e-18)
(1.00555 0.00185868 2.63711e-18)
(0.777684 0.0361347 3.80734e-16)
(1.02873 0.0154847 -5.41959e-18)
(0.83052 0.088054 -8.38908e-17)
(0.990992 0.000358201 -6.91467e-17)
(1.00067 0.00825003 -8.08071e-18)
(1.03532 0.00064694 -2.61053e-18)
(1.03776 0.00187643 -3.43618e-18)
(1.00064 0.00786441 -4.45332e-18)
(1.03888 0.00188119 -4.91695e-18)
(1.03676 -0.000106861 -4.96179e-18)
(1.00066 0.000153239 -5.09623e-19)
(0.99957 0.00049464 -9.62165e-19)
(0.999549 0.000425765 2.25191e-18)
(0.999519 0.000476131 -7.22442e-18)
(0.999547 0.000380641 -3.43228e-17)
(0.692692 0.277069 4.93776e-17)
(1.00003 4.8271e-05 6.50063e-20)
(0.938671 0.0786792 -7.43113e-18)
(1.04408 0.00492924 1.40854e-18)
(0.992769 0.025914 -4.09064e-18)
(1.03378 0.014409 -5.73653e-18)
(1.02864 0.016333 -4.00508e-18)
(1.0216 0.00123662 -6.6482e-18)
(1.01383 0.0128586 -8.84806e-20)
(1.02948 0.0151171 -8.12707e-18)
(1.01357 0.0130592 3.34189e-18)
(0.990631 0.0273958 -1.67819e-17)
(1.02747 0.0297187 1.50487e-17)
(1.02626 0.0339263 1.0172e-18)
(0.954696 0.0506564 4.59062e-17)
(0.98219 0.00226553 -3.45408e-17)
(1.03112 0.0821998 2.02993e-17)
(0.983872 0.00190512 -1.96664e-17)
(0.982799 0.00106747 5.37032e-17)
(1.03105 0.0164025 -3.70496e-18)
(0.937801 0.096145 2.36572e-18)
(1.0032 0.00279174 1.93254e-18)
(0.999627 8.1945e-05 4.71897e-17)
(1.01637 0.0119697 -7.1497e-18)
(0.999616 4.21251e-05 -6.09474e-17)
(1.00338 0.00319193 -7.89615e-18)
(0.715058 0.0215765 8.68923e-18)
(0.0728977 0.0836954 -3.04673e-16)
(1.00327 0.00300062 -4.82703e-18)
(0.999974 1.35984e-05 -6.66207e-18)
(1.00021 -3.57031e-05 -1.7017e-19)
(0.99999 2.17957e-05 -4.33064e-18)
(1.0296 0.0136821 -4.13509e-18)
(1 2.21804e-05 -3.72115e-18)
(0.999995 2.05157e-05 -2.14107e-18)
(1.11847 0.0816857 -1.51005e-17)
(1.03401 0.0122112 -3.34315e-18)
(1.07986 0.176572 1.47654e-17)
(1.00147 0.00339465 -1.65756e-18)
(1.0366 0.0144397 7.69488e-18)
(1.00762 0.000983901 9.13322e-18)
(0.999983 0.0088533 -6.9355e-18)
(1.03176 0.03021 -7.98176e-18)
(1.01639 0.0113228 1.524e-18)
(0.93762 0.00382061 1.4233e-16)
(1.01638 0.0107622 -2.26689e-18)
(1.00302 0.00269398 -8.57034e-19)
(1.00052 -0.000136278 -2.96071e-18)
(1.03455 0.0109661 -3.58782e-18)
(1.03647 0.0143818 4.83994e-18)
(1.00594 0.000983587 1.32028e-18)
(0.70915 0.017912 1.87849e-16)
(1.03209 0.0295813 -1.32963e-17)
(1.03931 0.00167662 1.02095e-18)
(0.997845 0.0355619 3.69379e-18)
(1.00114 0.0429163 1.43205e-18)
(0.999983 0.000129601 2.0892e-18)
(0.408746 0.571871 -2.47827e-16)
(1.03326 0.0843255 1.25118e-17)
(1.00129 0.00359137 1.12571e-18)
(0.969745 0.181694 -9.53971e-18)
(0.984152 0.00102573 1.03741e-16)
(0.999971 6.61064e-05 1.08427e-18)
(1.00001 2.64318e-05 9.3285e-19)
(0.999989 5.22073e-05 2.26138e-18)
(1.09153 0.175184 1.74113e-17)
(0.944908 0.0960878 -1.68918e-18)
(0.988461 0.028875 -3.11798e-18)
(1.02883 0.0111982 -9.22389e-18)
(1.03905 0.00118835 -4.20502e-19)
(0.999183 0.0118527 6.99926e-18)
(0.927639 0.00885917 2.68048e-16)
(0.998458 0.0354542 1.20709e-17)
(1.04716 0.0196724 -3.46083e-18)
(1.11411 0.0553393 2.86476e-17)
(0.692619 0.0443713 4.66535e-17)
(0.993726 0.0260767 -6.40711e-18)
(0.953547 0.0539429 3.31538e-17)
(1.01984 0.00129443 -8.71257e-20)
(1.02565 0.0388106 1.83096e-18)
(1.01221 0.0114539 8.8664e-18)
(1.0168 0.0124584 -1.40504e-18)
(0.998414 0.000208332 4.22802e-17)
(1.01228 0.0115965 7.03908e-18)
(1.03139 0.0134397 6.70411e-19)
(0.999988 9.51871e-06 3.37177e-18)
(0.535031 0.0221918 -4.04064e-17)
(0.990275 0.00118606 -2.94976e-17)
(1.05716 0.00910473 1.13036e-17)
(1.03747 0.011882 -3.42957e-18)
(0.993403 0.00117213 1.87462e-17)
(0.948963 0.0603759 -1.1139e-17)
(1.16235 0.252397 1.34585e-17)
(1.02979 0.0164256 -2.58113e-18)
(1.00874 0.0166875 3.25817e-18)
(1.03774 0.000955196 -1.37735e-18)
(1.03822 0.0120984 -4.53971e-18)
(1.02877 0.0347013 -1.38001e-17)
(1.00462 0.00278971 7.11676e-18)
(1.00001 -2.89583e-06 5.80526e-19)
(0.993506 0.0714307 2.41663e-18)
(1.00025 7.49715e-05 -5.14271e-18)
(1.05141 0.022133 3.32846e-18)
(1.00272 2.05722e-05 3.92441e-18)
(0.965184 0.002737 -1.19878e-17)
(0.962932 0.0414624 -1.03627e-18)
(1.01125 0.000836516 4.36238e-18)
(1.09343 0.119912 -6.51932e-18)
(0.941649 0.0690245 -1.39329e-17)
(0.994247 0.0175697 -8.85977e-18)
(1.00099 0.00397563 8.88896e-19)
(0.58999 0.0987116 -4.60968e-16)
(1.00057 -5.02954e-05 -4.50917e-18)
(1.00155 0.0031235 3.92399e-18)
(1.04268 0.0439223 -2.55289e-17)
(0.999978 4.37775e-05 2.99579e-17)
(1.00113 0.0041714 -1.00593e-18)
(1.00164 0.00282814 1.48399e-18)
(0.73084 0.22091 -8.75696e-17)
(0.65807 0.473502 2.56755e-17)
(0.998625 0.0120065 7.27707e-18)
(1.00157 0.000144341 -1.88796e-18)
(0.933183 0.034532 4.68763e-18)
(0.999636 0.0429852 3.22779e-18)
(1.02865 0.0123017 -6.61793e-18)
(1.03208 0.0171858 2.83937e-18)
(1.03361 0.0124372 -2.81651e-18)
(1.00083 -6.69371e-05 -1.30709e-18)
(0.999997 3.44373e-05 -5.44655e-18)
(0.999758 0.0378084 3.35417e-18)
(0.999983 1.31948e-05 -6.31861e-18)
(0.960998 0.0430412 2.02783e-17)
(1.02812 0.0120836 -2.52577e-18)
(1.02592 0.037248 2.82471e-18)
(0.996906 0.000732352 1.99923e-17)
(0.995411 0.0687537 5.18325e-18)
(1.0451 0.0442908 -1.28339e-17)
(0.998224 3.86627e-05 1.19856e-16)
(1.00161 0.0120028 -8.53098e-18)
(1.0062 0.00135295 -4.86229e-19)
(0.929406 0.046156 -2.80111e-17)
(1.04328 0.0444414 -2.19981e-17)
(0.999984 6.20871e-05 -8.82659e-18)
(1.00004 0.0397275 2.80567e-19)
(1.03482 0.00892845 -6.49586e-18)
(1.01669 2.34059e-05 3.12251e-18)
(0.998907 0.0410612 -4.99222e-18)
(1.00312 0.000377548 -1.2789e-18)
(0.929068 0.0949344 2.97687e-18)
(1.02807 -0.00256136 -2.95439e-18)
(1.03884 0.00976573 2.2677e-18)
(1.02712 0.0341906 -9.8061e-18)
(1.00085 -0.000210332 7.07823e-19)
(1.00109 0.01256 -3.26931e-18)
(1.05255 0.064916 3.88048e-18)
(1.05383 0.0199018 -8.6914e-18)
(1 1.60278e-05 -1.58518e-18)
(1.01129 0.0168375 -3.77077e-18)
(0.984542 0.175252 3.24052e-17)
(1.04036 0.00209663 -3.51253e-18)
(0.518121 0.45469 -1.40143e-16)
(1 3.01575e-05 -5.00266e-18)
(1.00233 0.000443995 -3.15752e-18)
(1.00061 0.000100805 2.81476e-18)
(1.03268 0.0156044 5.95338e-18)
(0.994396 0.0192939 9.33944e-18)
(0.995502 0.0137598 8.14253e-18)
(1.00309 0.000325996 -4.79385e-18)
(0.998401 0.0376873 3.74967e-18)
(1.01737 0.0135451 -4.16473e-18)
(0.972842 0.00428874 -1.75531e-16)
(1.00989 0.00126004 -5.02401e-18)
(1.07871 0.0968472 5.65832e-18)
(1.00034 -3.03527e-05 -7.07228e-19)
(1.08254 0.11033 1.02915e-17)
(1.00143 -0.000204287 -3.19835e-18)
(0.617614 0.594088 1.08848e-17)
(1.02731 5.84001e-05 -3.5547e-18)
(1.04983 0.0672607 1.06784e-17)
(0.99987 3.69299e-05 -2.08988e-17)
(0.99716 0.000770161 -1.88598e-17)
(1.02605 0.0291555 3.11275e-18)
(1.004 0.00217395 4.80127e-18)
(0.999124 0.000136299 -7.52385e-17)
(0.992278 0.000271176 7.67534e-17)
(0.994298 0.0211948 1.5223e-17)
(0.994074 0.0205482 -4.14462e-18)
(0.964762 0.161118 9.33024e-18)
(1.03342 0.034474 9.0924e-18)
(1.03416 0.0340848 3.23984e-18)
(1.00001 1.8852e-05 3.20896e-18)
(1.00439 0.00211227 -5.6124e-18)
(1.02833 0.0137692 2.82993e-18)
(1.05291 0.0194715 -9.65623e-18)
(1.00001 7.59886e-08 -1.55544e-18)
(1.00032 -4.31485e-05 -4.95112e-19)
(1.0344 0.010513 -5.33263e-18)
(1.00064 0.000125738 -1.20049e-18)
(0.788916 0.0437985 -1.79169e-16)
(1.1573 0.256111 2.9147e-17)
(1.03808 0.0187825 1.67387e-17)
(1.00001 7.81187e-06 -2.20484e-19)
(1.00682 0.00986082 3.75704e-18)
(1.0451 0.0146304 -4.99807e-18)
(0.995097 0.0150031 8.3111e-18)
(1.0045 0.000857457 2.19839e-18)
(0.366358 0.659293 1.14145e-16)
(1.00035 3.44486e-05 -2.89429e-18)
(0.930515 0.0774405 -1.18037e-17)
(0.957234 0.0482459 2.01606e-17)
(1.00714 0.00971238 1.847e-19)
(1.00452 0.00111869 -1.71498e-18)
(0.999003 0.000131722 -6.95272e-17)
(1.01084 0.00156785 -2.26581e-18)
(1.04392 0.00520942 3.15058e-19)
(1.01733 0.0094163 -3.31205e-18)
(0.996708 0.0119697 1.94849e-17)
(0.999995 8.01606e-06 1.56438e-18)
(0.999998 2.55477e-05 -2.72257e-17)
(0.994668 0.0178278 -1.74606e-17)
(0.996559 0.00155846 -6.25792e-17)
(0.992207 0.0619852 -4.79773e-18)
(1.03306 0.014547 -6.37342e-18)
(0.999412 -1.17119e-05 -7.64309e-17)
(1.00032 0.000145756 -6.78798e-19)
(1.02735 0.0312236 3.38526e-18)
(0.585284 0.000459663 -1.75542e-17)
(0.998007 0.000182763 -4.47124e-17)
(1.04708 0.0191707 1.20285e-18)
(1.00016 4.92274e-05 1.51277e-18)
(0.996151 0.0119683 1.0124e-17)
(0.948888 0.0831516 2.19011e-17)
(1.04239 0.00254853 -3.85882e-18)
(1.0437 0.0142602 -8.48751e-18)
(0.950309 0.0557389 -4.24228e-17)
(1.00243 0.019376 -8.00206e-19)
(1.04343 0.00675992 4.56141e-18)
(1.00001 3.12885e-05 -3.51812e-19)
(0.999929 1.25449e-05 -4.70985e-17)
(1.0422 0.00362753 -9.1549e-19)
(1.01088 0.01031 -3.46376e-18)
(1.00294 0.0199595 -7.5637e-18)
(1.01106 0.0103691 5.5998e-18)
(0.999997 4.60413e-05 -2.28954e-18)
(1.00031 0.000167436 2.04039e-19)
(1.00362 0.000861655 -2.91322e-18)
(0.998793 0.0313204 1.48795e-18)
(1.04358 0.00903306 2.10297e-18)
(0.945811 0.040028 -2.48111e-17)
(0.990225 0.000951158 1.00072e-16)
(0.931868 0.03709 -5.27829e-17)
(1.03141 0.0156669 -1.56575e-18)
(1.00856 0.0180201 7.08513e-18)
(0.936162 0.0454994 -1.13691e-16)
(0.985919 0.0215863 -1.15486e-17)
(1.05488 0.00613249 -1.53209e-18)
(1.03359 0.0136367 -7.25144e-18)
(0.984397 0.021315 1.66084e-17)
(0.992806 0.059636 -7.18042e-18)
(0.999884 7.50899e-05 -2.35285e-17)
(1.00938 0.0668771 2.72742e-18)
(1.02684 0.0286507 1.94594e-18)
(1.00003 -1.11785e-05 9.91451e-19)
(0.999988 1.46675e-06 3.50819e-17)
(1.0007 0.000129811 4.49466e-18)
(0.999755 0.000306262 1.86823e-17)
(1.06318 0.0754236 1.13391e-17)
(1.01074 0.0175475 -4.00061e-18)
(1.01369 -0.000265447 3.72989e-18)
(0.941055 0.0431543 -6.58777e-17)
(0.992085 0.000319524 -1.46027e-16)
(0.799319 0.0198007 2.17376e-16)
(1.04022 0.00292831 -3.44382e-18)
(1.04363 0.00440541 3.12506e-19)
(1.00377 0.000402951 4.93133e-18)
(1.04982 0.0444157 -1.54534e-17)
(1.00001 3.26085e-05 -9.66441e-18)
(0.997991 0.0308279 9.91663e-18)
(1.00056 0.0038126 -8.24274e-19)
(0.934345 0.1131 1.17354e-17)
(0.933857 0.0468566 -6.37771e-17)
(1.00194 0.0170282 -5.65455e-18)
(1.01733 0.012732 -8.06801e-18)
(0.42275 0.661368 9.65078e-17)
(1.03142 0.0140314 -1.65788e-18)
(1.04075 0.0660742 9.12966e-18)
(1.00982 0.013056 4.75349e-18)
(0.975346 0.149084 -7.95061e-18)
(1.14618 0.212897 2.30579e-17)
(1.00111 6.1474e-05 5.71364e-19)
(0.998311 0.00350749 -4.77338e-18)
(1 1.69569e-05 2.78044e-18)
(1.05691 0.0702561 2.74987e-18)
(0.998395 0.0033788 -3.47083e-18)
(1.01671 0.0101196 2.27715e-18)
(1.09646 0.11696 2.59399e-18)
(1.00024 0.000294542 9.40715e-19)
(0.972863 0.00285611 -1.60695e-16)
(0.990185 0.0528328 4.59269e-19)
(1.00696 0.0159924 2.2156e-18)
(0.997729 0.000240816 -3.20262e-18)
(1.00183 0.0175693 -6.13726e-18)
(0.999379 0.000738973 5.89729e-19)
(0.995059 0.0161821 7.81825e-20)
(0.999377 0.000597272 -2.53905e-18)
(0.999396 0.000828262 1.48676e-17)
(0.995503 0.0137424 5.6504e-18)
(1.04 0.00745103 2.01187e-18)
(1.03595 0.0100345 2.94557e-18)
(1.00699 0.0171481 -5.34129e-18)
(0.652108 0.0454289 -1.27654e-16)
(1.04231 0.00033464 -9.85549e-19)
(0.304623 0.286203 -2.93716e-16)
(1.03033 0.015977 -1.78456e-18)
(1.02359 0.000172064 -7.64819e-18)
(0.995252 0.0150766 1.07598e-17)
(1.02896 0.0164441 -9.2746e-18)
(0.991707 0.0270879 -5.10013e-18)
(1.03533 -0.00125848 -4.07633e-18)
(0.539662 0.382095 -1.15044e-16)
(0.950344 0.0355193 -2.51252e-17)
(0.992599 0.025514 -2.48681e-19)
(1.00434 0.0237741 -1.84536e-17)
(0.994971 0.00103927 4.18523e-17)
(0.996514 0.00102956 -2.1573e-17)
(1.02629 0.0314214 3.51391e-20)
(0.999997 2.31665e-05 2.24582e-19)
(1.06985 -0.0169167 3.45943e-18)
(0.999527 1.73494e-05 -2.45542e-17)
(0.946784 0.0392042 -5.90138e-18)
(0.998079 0.0750816 -1.90824e-17)
(1.06111 0.0676742 2.70942e-18)
(1.03956 0.0284713 -3.65006e-18)
(1.03586 0.0163493 8.09938e-18)
(0.991635 0.0513129 4.51789e-18)
(1.00921 0.0134772 -1.51535e-18)
(1.03935 0.0286119 -4.67102e-18)
(0.971491 0.0304761 -2.33032e-17)
(1.04127 0.0663398 1.75579e-17)
(1.00758 0.023007 5.88719e-19)
(1.04488 0.0435798 -1.76158e-17)
(1.0051 0.0240559 -2.2627e-17)
(1.00001 1.926e-05 -1.97127e-19)
(0.998217 0.0266511 -3.5442e-18)
(0.640498 0.0557029 6.8583e-18)
(0.970528 0.135652 3.1436e-17)
(1.00659 0.00574752 -7.20835e-18)
(1.00005 -3.01054e-05 -3.88321e-19)
(0.999292 0.000176062 3.97811e-17)
(0.994428 0.00805045 -3.59769e-18)
(0.968034 0.00293868 -1.56309e-16)
(1.0364 0.00806176 4.56375e-18)
(1.02937 0.00239493 2.39616e-18)
(1.00071 -5.44961e-05 3.20157e-18)
(1.00497 0.00717172 -1.53532e-18)
(0.992879 0.027807 9.69187e-18)
(1.00668 0.00565188 5.0374e-18)
(1.00978 0.00155581 -5.38817e-18)
(1.04574 0.0384895 -5.19905e-18)
(0.993627 0.00158806 -2.26377e-17)
(0.990958 0.0359861 1.80289e-17)
(1.03775 0.0172291 1.75268e-19)
(1.00526 0.00684157 -3.95686e-18)
(1.00804 0.00709866 -2.09694e-18)
(0.940724 0.0631049 3.22054e-19)
(0.999999 -2.547e-05 7.85974e-19)
(0.993257 0.00589174 -5.9262e-18)
(1.29268 0.190414 -3.47674e-18)
(0.999868 3.0963e-05 -2.18304e-16)
(1.04042 0.0409804 -7.87017e-18)
(0.995288 0.0754523 -1.5988e-17)
(1.00777 0.00707392 7.36614e-19)
(0.959137 0.0454247 -1.02736e-17)
(1.03715 0.0168912 -4.08437e-18)
(0.997436 0.026742 1.31087e-18)
(1.02914 0.0363078 -5.83661e-18)
(0.999671 0.00329664 4.06029e-18)
(0.939799 0.0378351 2.9889e-17)
(1.00574 -0.000149387 2.4117e-18)
(1.03621 0.00188909 -3.42292e-18)
(1.03624 0.0169933 1.11596e-17)
(0.936835 0.0417346 -6.02531e-17)
(0.999793 0.00339038 -3.7459e-19)
(1.04375 0.00662558 4.86423e-19)
(1.05452 0.0271297 1.91785e-18)
(0.991808 0.0352616 3.9691e-19)
(1.00602 0.013959 -4.79e-18)
(1.00463 0.00320333 4.08505e-19)
(1.01068 0.0659935 1.49473e-17)
(0.781071 0.204906 -1.0054e-16)
(0.995627 0.000950135 3.78367e-17)
(0.999965 4.09631e-05 6.50382e-17)
(0.993832 0.0259389 -8.62232e-18)
(0.99999 -1.95171e-05 2.44174e-18)
(1.14584 0.209586 2.07493e-17)
(1.00628 0.0233373 -7.16195e-18)
(1.03565 0.0914837 1.59374e-18)
(1.01638 0.00795947 1.34849e-18)
(1.02919 0.00232313 -4.75579e-19)
(0.252231 0.144452 -9.04632e-16)
(1.0065 0.0166004 1.57967e-18)
(1.08293 0.206969 2.47844e-17)
(1.03592 0.00821751 -7.67262e-19)
(0.945652 0.0161753 3.16129e-17)
(1.02888 0.0135644 -2.4331e-19)
(0.996925 0.0122598 2.20924e-17)
(1.00646 0.0148231 1.41269e-17)
(1.01602 -0.00134817 6.052e-18)
(1.09059 0.102895 -1.47356e-17)
(1.07944 0.0983858 -2.98335e-18)
(1.00138 -0.000362185 -6.26255e-18)
(1.00138 0.000120957 1.92506e-18)
(0.923634 0.0461321 -8.73804e-17)
(1.00212 0.000284645 -5.53878e-18)
(0.684529 0.395337 -3.72363e-17)
(1.02781 0.0337741 -8.04284e-18)
(0.965294 0.17002 6.59902e-18)
(1.00439 0.00306495 -5.5609e-19)
(0.0872157 0.300177 -4.64182e-16)
(1.12169 0.233528 4.07994e-18)
(1.00583 0.0231459 -8.43356e-18)
(0.999993 8.77309e-06 2.51693e-18)
(0.999918 0.00294854 -1.35751e-18)
(0.95448 0.0316787 3.47706e-18)
(0.994196 0.00806516 -3.86851e-18)
(0.988909 0.000221188 8.59902e-18)
(0.996765 0.00997819 1.63055e-17)
(1.03208 0.0127292 3.44258e-18)
(0.970799 0.0311505 6.44634e-18)
(1.08321 -0.00845461 1.66645e-18)
(0.605657 0.0366796 -1.30002e-16)
(1.00054 -7.52555e-05 -3.03311e-18)
(0.965634 0.0371774 -4.11303e-18)
(1.03346 0.0314221 -5.6701e-18)
(0.928364 0.0575268 -1.13563e-16)
(1.00469 0.0134617 -8.84783e-20)
(0.930706 0.0769554 -5.37759e-18)
(1.03873 0.0104132 -3.64159e-18)
(0.952477 0.0351918 2.99222e-18)
(0.997439 0.000626573 -9.55087e-17)
(1.00006 1.81789e-05 2.07489e-18)
(1.03797 0.0263781 5.14818e-18)
(1.04076 0.0281695 -1.94678e-19)
(1.02872 0.000323263 -4.04059e-18)
(0.923121 0.0384888 1.44017e-17)
(1.03319 0.0906093 8.30834e-18)
(1.02307 0.000711139 -8.56268e-18)
(0.997137 0.0252738 -6.54876e-18)
(1.00048 0.00417405 2.11486e-18)
(1.00988 0.00911278 -9.79496e-18)
(0.784115 0.0273248 2.20961e-16)
(1.00964 0.0091554 -7.14109e-18)
(1.03534 0.0233268 -7.34435e-18)
(0.981674 0.0421032 -1.43444e-17)
(1.02759 0.0103912 -7.2605e-20)
(1.01179 0.000468265 -9.73815e-18)
(0.996301 0.0117638 1.49653e-17)
(1.05365 0.0256954 3.78903e-18)
(1.01545 0.00773936 -1.8378e-18)
(1.00514 0.0135997 9.19436e-18)
(1.06617 -0.0227961 -3.95448e-17)
(0.990424 0.0307244 2.23804e-17)
(1.02053 0.00233271 -7.67885e-18)
(0.78967 0.337222 -7.43052e-17)
(1 5.85846e-06 -4.23712e-19)
(1.01592 0.00829177 -2.25484e-18)
(0.998369 0.0218458 1.22947e-17)
(0.992252 0.00709057 -2.20698e-17)
(1.00325 0.000144954 2.04107e-18)
(0.997822 0.0248825 -2.43676e-18)
(1.00001 -1.76265e-05 -2.71528e-18)
(1.0422 0.111308 2.35085e-18)
(1.00607 0.000975405 -5.38935e-18)
(0.969564 0.00521648 -8.63316e-17)
(1.03558 0.0368214 7.77587e-18)
(0.951749 0.0505679 -2.0614e-17)
(1.01716 0.0100108 1.94538e-18)
(1.01664 0.00884838 -2.97689e-18)
(1.03734 0.0265697 1.19763e-17)
(1.02051 0.117177 1.87714e-18)
(0.999873 7.36972e-05 3.9446e-17)
(0.992996 0.000541828 -4.30925e-17)
(1.02344 0.000863096 -5.27616e-18)
(1.09704 0.203425 3.63572e-17)
(1.0407 0.027814 -3.799e-18)
(0.99989 0.00311862 7.34266e-18)
(0.239583 0.0943945 -1.00331e-15)
(1.00004 2.77165e-05 4.25474e-20)
(1.00497 0.00174273 3.66587e-18)
(0.652325 0.00728291 1.67986e-17)
(0.994485 0.00545454 1.9932e-17)
(0.999566 0.00348901 -5.76355e-18)
(0.999495 0.00371861 -8.06363e-19)
(0.982587 0.0390108 -7.37157e-18)
(0.958898 0.0286836 2.17291e-17)
(0.999866 3.90103e-05 -1.03386e-17)
(0.993499 0.00655423 2.90464e-17)
(0.936374 0.0677375 -2.93165e-17)
(0.99797 0.0216015 3.47393e-18)
(0.995627 0.0178883 -2.18943e-18)
(0.996521 0.0096589 -8.97018e-18)
(1.0011 5.44106e-05 -2.99468e-18)
(0.956884 0.0310477 -4.03959e-18)
(1.06477 0.0639173 -5.66708e-18)
(0.994672 0.0160008 9.01501e-18)
(0.923867 0.0323025 3.35943e-17)
(1.03579 0.00763974 -5.42778e-18)
(1.0387 0.00376416 -4.24735e-18)
(1.03787 0.109077 -9.19073e-18)
(1.03248 0.0325353 -1.42574e-19)
(0.996494 0.00988114 1.16096e-17)
(1.00521 0.00169011 -7.28201e-18)
(1.08276 0.110103 1.03829e-17)
(1.04088 0.00694108 2.83229e-18)
(0.975873 0.0258017 6.164e-18)
(1.00077 0.00423019 -2.95655e-18)
(0.99972 0.000234768 -4.41323e-18)
(0.930065 0.0125459 6.45615e-17)
(1.04925 0.0445436 -8.90228e-18)
(1.01473 0.00732761 1.61063e-18)
(1.01032 0.0510317 -2.04543e-19)
(1.01492 0.00796437 -1.25568e-18)
(0.99698 0.01031 2.08418e-17)
(1.00575 0.00462033 -2.24997e-18)
(0.963682 0.0364272 7.43661e-18)
(0.787551 0.0223852 -4.53236e-17)
(0.307046 0.434594 2.06267e-17)
(0.964701 0.0387327 -7.23936e-18)
(0.998786 0.0187137 3.77749e-18)
(1.00561 0.00462488 -2.49928e-18)
(0.967612 0.0347385 -2.16359e-18)
(0.577031 0.308951 -7.29731e-17)
(0.939902 0.0327904 4.43136e-17)
(0.999875 0.0030986 -6.85042e-19)