/*--------------------------------*- C++ -*----------------------------------*\
  =========                 |
  \\      /  F ield         | OpenFOAM: The Open Source CFD Toolbox
   \\    /   O peration     | Website:  https://openfoam.org
    \\  /    A nd           | Version:  7
     \\/     M anipulation  |
\*---------------------------------------------------------------------------*/
FoamFile
{
    version     2.0;
    format      ascii;
    class       surfaceScalarField;
    location    "0.9";
    object      phi;
}
// * * * * * * * * * * * * * * * * * * * * * * * * * * * * * * * * * * * * * //

dimensions      [0 3 -1 0 0 0 0];

internalField   nonuniform List<scalar> 
3120
(
2.53459e-09
-2.55103e-09
4.09758e-09
-1.56299e-09
2.25437e-09
1.84321e-09
-3.55409e-09
5.80847e-09
-1.31386e-08
9.58448e-09
-2.59902e-08
1.28517e-08
-4.14694e-08
1.54792e-08
-5.88994e-08
1.743e-08
-7.76124e-08
1.8713e-08
-9.69715e-08
1.9359e-08
-1.16382e-07
1.94106e-08
-1.35298e-07
1.89159e-08
-1.53224e-07
1.79263e-08
-1.69719e-07
1.64944e-08
-1.84392e-07
1.46737e-08
-1.9691e-07
1.25177e-08
-2.06991e-07
1.00809e-08
-2.14409e-07
7.41825e-09
-2.18995e-07
4.58599e-09
-2.20637e-07
1.64201e-09
-2.19283e-07
-1.35382e-09
-2.14944e-07
-4.33936e-09
-2.07694e-07
-7.25019e-09
-1.97674e-07
-1.00197e-08
-1.85095e-07
-1.25794e-08
-1.70235e-07
-1.48598e-08
-1.53444e-07
-1.67914e-08
-1.35138e-07
-1.83057e-08
-1.15801e-07
-1.93371e-08
-9.59762e-08
-1.98245e-08
-7.62624e-08
-1.97138e-08
-5.73023e-08
-1.89601e-08
-3.97705e-08
-1.75318e-08
-2.4355e-08
-1.54155e-08
-1.1728e-08
-1.2627e-08
-2.49561e-09
-9.23239e-09
2.89846e-09
-5.39408e-09
4.35978e-09
-1.46133e-09
2.56213e-09
1.79766e-09
2.56214e-09
1.61521e-09
-4.16624e-09
-1.1735e-09
1.22573e-09
-1.17196e-08
1.23894e-08
-3.10832e-08
2.51721e-08
-5.90629e-08
3.75641e-08
-9.47146e-08
4.85035e-08
-1.36689e-07
5.74535e-08
-1.83446e-07
6.41869e-08
-2.33385e-07
6.86522e-08
-2.84925e-07
7.08989e-08
-3.36551e-07
7.10364e-08
-3.86845e-07
6.92104e-08
-4.34506e-07
6.55877e-08
-4.78361e-07
6.03488e-08
-5.1737e-07
5.36824e-08
-5.50635e-07
4.57828e-08
-5.77403e-07
3.68495e-08
-5.97071e-07
2.70864e-08
-6.09189e-07
1.67032e-08
-6.13462e-07
5.91577e-09
-6.09763e-07
-5.05306e-09
-5.9813e-07
-1.59729e-08
-5.78774e-07
-2.66059e-08
-5.52085e-07
-3.67081e-08
-5.18634e-07
-4.60305e-08
-4.79172e-07
-5.43225e-08
-4.34627e-07
-6.13358e-08
-3.86104e-07
-6.68292e-08
-3.34866e-07
-7.05753e-08
-2.82322e-07
-7.23679e-08
-2.30004e-07
-7.20317e-08
-1.79531e-07
-6.94339e-08
-1.32562e-07
-6.45003e-08
-9.07387e-08
-5.72388e-08
-5.55885e-08
-4.77772e-08
-2.83886e-08
-3.64324e-08
-9.94981e-09
-2.38328e-08
-2.91174e-10
-1.11199e-08
1.85512e-09
-3.48622e-10
4.41726e-09
-1.66891e-09
-2.49733e-09
-1.21216e-08
1.16784e-08
-3.41015e-08
3.43694e-08
-6.84719e-08
5.95424e-08
-1.14819e-07
8.39114e-08
-1.71857e-07
1.05542e-07
-2.37753e-07
1.23349e-07
-3.10368e-07
1.36802e-07
-3.87432e-07
1.45717e-07
-4.66662e-07
1.50128e-07
-5.45835e-07
1.5021e-07
-6.2285e-07
1.46225e-07
-6.95759e-07
1.38497e-07
-7.62795e-07
1.27385e-07
-8.22388e-07
1.13275e-07
-8.73175e-07
9.657e-08
-9.14014e-07
7.76888e-08
-9.4399e-07
5.70622e-08
-9.62421e-07
3.51344e-08
-9.68869e-07
1.23636e-08
-9.63144e-07
-1.07777e-08
-9.45315e-07
-3.38021e-08
-9.15712e-07
-5.62086e-08
-8.74936e-07
-7.74843e-08
-8.23857e-07
-9.71096e-08
-7.63616e-07
-1.14564e-07
-6.95618e-07
-1.29334e-07
-6.21519e-07
-1.40928e-07
-5.4321e-07
-1.48884e-07
-4.62783e-07
-1.52795e-07
-3.82491e-07
-1.52324e-07
-3.04695e-07
-1.4723e-07
-2.31787e-07
-1.37408e-07
-1.66094e-07
-1.22932e-07
-1.09738e-07
-1.04132e-07
-6.4465e-08
-8.17058e-08
-3.13906e-08
-5.69072e-08
-1.06934e-08
-3.18172e-08
-1.23881e-09
-9.8032e-09
3.17844e-09
-5.57101e-09
3.07369e-09
-2.49871e-08
3.10945e-08
-5.97064e-08
6.90887e-08
-1.09905e-07
1.09741e-07
-1.74692e-07
1.48699e-07
-2.52361e-07
1.8321e-07
-3.40638e-07
2.11626e-07
-4.36904e-07
2.33069e-07
-5.38371e-07
2.47183e-07
-6.42207e-07
2.53964e-07
-7.45641e-07
2.53644e-07
-8.46032e-07
2.46617e-07
-9.40919e-07
2.33384e-07
-1.02806e-06
2.14524e-07
-1.10545e-06
1.90665e-07
-1.17135e-06
1.62474e-07
-1.22431e-06
1.30647e-07
-1.26315e-06
9.59049e-08
-1.28701e-06
5.8993e-08
-1.29533e-06
2.06806e-08
-1.28787e-06
-1.82389e-08
-1.26472e-06
-5.69488e-08
-1.22632e-06
-9.4611e-08
-1.17343e-06
-1.30371e-07
-1.10718e-06
-1.63365e-07
-1.02901e-06
-1.92731e-07
-9.40718e-07
-2.17627e-07
-8.44402e-07
-2.37244e-07
-7.42448e-07
-2.50838e-07
-6.37489e-07
-2.57754e-07
-5.32348e-07
-2.57465e-07
-4.29964e-07
-2.49614e-07
-3.333e-07
-2.34072e-07
-2.45218e-07
-2.11014e-07
-1.68335e-07
-1.81016e-07
-1.04827e-07
-1.45213e-07
-5.62132e-08
-1.05521e-07
-2.31068e-08
-6.49235e-08
-4.9876e-09
-2.79224e-08
-1.80917e-09
-9.47222e-09
1.25459e-08
-3.81886e-08
5.98108e-08
-8.61078e-08
1.17008e-07
-1.52444e-07
1.76077e-07
-2.35627e-07
2.31882e-07
-3.33419e-07
2.81002e-07
-4.43079e-07
3.21286e-07
-5.61541e-07
3.51531e-07
-6.85568e-07
3.71209e-07
-8.11878e-07
3.80275e-07
-9.37257e-07
3.79023e-07
-1.05863e-06
3.67989e-07
-1.17312e-06
3.47877e-07
-1.27811e-06
3.19512e-07
-1.37125e-06
2.83803e-07
-1.45049e-06
2.41721e-07
-1.51413e-06
1.94288e-07
-1.56079e-06
1.42565e-07
-1.58945e-06
8.76515e-08
-1.59946e-06
3.06836e-08
-1.59053e-06
-2.7168e-08
-1.56278e-06
-8.46992e-08
-1.51671e-06
-1.40676e-07
-1.45324e-06
-1.93844e-07
-1.37367e-06
-2.42937e-07
-1.2797e-06
-2.86696e-07
-1.17343e-06
-3.23893e-07
-1.05732e-06
-3.53356e-07
-9.34148e-07
-3.74012e-07
-8.06979e-07
-3.84924e-07
-6.79096e-07
-3.85348e-07
-5.53914e-07
-3.74796e-07
-4.34873e-07
-3.53113e-07
-3.25311e-07
-3.20576e-07
-2.28308e-07
-2.78019e-07
-1.46515e-07
-2.27007e-07
-8.19689e-08
-1.70068e-07
-3.59262e-08
-1.10966e-07
-8.75844e-09
-5.50902e-08
-1.05676e-08
-1.31677e-08
2.57136e-08
-5.10469e-08
9.76901e-08
-1.12135e-07
1.78096e-07
-1.94572e-07
2.58514e-07
-2.95983e-07
3.33293e-07
-4.13501e-07
3.9852e-07
-5.43867e-07
4.51652e-07
-6.83555e-07
4.91219e-07
-8.28905e-07
5.16559e-07
-9.76239e-07
5.27608e-07
-1.12196e-06
5.24743e-07
-1.26263e-06
5.08661e-07
-1.39505e-06
4.80292e-07
-1.51627e-06
4.40736e-07
-1.62368e-06
3.91213e-07
-1.71499e-06
3.33035e-07
-1.78829e-06
2.67586e-07
-1.84203e-06
1.96307e-07
-1.87508e-06
1.20695e-07
-1.88669e-06
4.2293e-08
-1.87655e-06
-3.73053e-08
-1.84479e-06
-1.16463e-07
-1.79196e-06
-1.93507e-07
-1.71907e-06
-2.66732e-07
-1.62758e-06
-3.34426e-07
-1.51939e-06
-3.94886e-07
-1.39683e-06
-4.46452e-07
-1.26264e-06
-4.87548e-07
-1.11992e-06
-5.16728e-07
-9.72104e-07
-5.32741e-07
-8.22857e-07
-5.34595e-07
-6.76008e-07
-5.21644e-07
-5.35436e-07
-4.93685e-07
-4.04936e-07
-4.51076e-07
-2.88075e-07
-3.9488e-07
-1.8804e-07
-3.27041e-07
-1.07494e-07
-2.50614e-07
-4.84684e-08
-1.69992e-07
-1.23402e-08
-9.12184e-08
-2.29078e-08
-1.66173e-08
4.23309e-08
-6.33356e-08
1.44408e-07
-1.37324e-07
2.52084e-07
-2.35637e-07
3.56827e-07
-3.55031e-07
4.52686e-07
-4.9194e-07
5.35429e-07
-6.42531e-07
6.02243e-07
-8.02793e-07
6.51482e-07
-9.68642e-07
6.82409e-07
-1.13602e-06
6.94987e-07
-1.30099e-06
6.89712e-07
-1.4598e-06
6.67473e-07
-1.60897e-06
6.29457e-07
-1.7453e-06
5.77066e-07
-1.86595e-06
5.11862e-07
-1.96844e-06
4.35527e-07
-2.05069e-06
3.49837e-07
-2.11103e-06
2.56646e-07
-2.14821e-06
1.57876e-07
-2.16143e-06
5.55153e-08
-2.15035e-06
-4.83906e-08
-2.11507e-06
-1.51738e-07
-2.0562e-06
-2.52377e-07
-1.97482e-06
-3.4812e-07
-1.87247e-06
-4.36767e-07
-1.75123e-06
-5.16135e-07
-1.61358e-06
-5.84092e-07
-1.46252e-06
-6.38616e-07
-1.30139e-06
-6.77851e-07
-1.13395e-06
-7.00187e-07
-9.64198e-07
-7.04346e-07
-7.96358e-07
-6.89484e-07
-6.34732e-07
-6.55311e-07
-4.83588e-07
-6.0222e-07
-3.47022e-07
-5.31445e-07
-2.28826e-07
-4.45238e-07
-1.32366e-07
-3.47073e-07
-6.0521e-08
-2.41837e-07
-1.56942e-08
-1.36045e-07
-3.8602e-08
-1.98498e-08
6.21808e-08
-7.50585e-08
1.99617e-07
-1.61611e-07
3.38637e-07
-2.7551e-07
4.70726e-07
-4.1262e-07
5.89797e-07
-5.68633e-07
6.91442e-07
-7.39099e-07
7.72709e-07
-9.1949e-07
8.31873e-07
-1.10528e-06
8.68203e-07
-1.29205e-06
8.81755e-07
-1.47553e-06
8.73188e-07
-1.65169e-06
8.43632e-07
-1.81679e-06
7.94563e-07
-1.96745e-06
7.2772e-07
-2.10062e-06
6.45035e-07
-2.21368e-06
5.48588e-07
-2.30442e-06
4.40573e-07
-2.37105e-06
3.2328e-07
-2.41225e-06
1.99082e-07
-2.42717e-06
7.04294e-08
-2.41541e-06
-6.01529e-08
-2.37707e-06
-1.90072e-07
-2.31277e-06
-3.16675e-07
-2.22363e-06
-4.37266e-07
-2.11127e-06
-5.49127e-07
-1.97784e-06
-6.49559e-07
-1.82601e-06
-7.35924e-07
-1.65892e-06
-8.05712e-07
-1.48015e-06
-8.56612e-07
-1.29373e-06
-8.86609e-07
-1.10399e-06
-8.94089e-07
-9.15519e-07
-8.77955e-07
-7.33061e-07
-8.37769e-07
-5.61386e-07
-7.73895e-07
-4.05165e-07
-6.87666e-07
-2.68854e-07
-5.8155e-07
-1.56585e-07
-4.59342e-07
-7.21184e-08
-3.26304e-07
-1.88571e-08
-1.89306e-07
-5.74591e-08
-2.29177e-08
8.50985e-08
-8.63209e-08
2.6302e-07
-1.85129e-07
4.37445e-07
-3.14341e-07
5.99938e-07
-4.68928e-07
7.44383e-07
-6.43813e-07
8.66327e-07
-8.33895e-07
9.62791e-07
-1.0341e-06
1.03208e-06
-1.23946e-06
1.07356e-06
-1.44517e-06
1.08746e-06
-1.64664e-06
1.07466e-06
-1.83958e-06
1.03658e-06
-2.02006e-06
9.75037e-07
-2.18448e-06
8.92142e-07
-2.32967e-06
7.9023e-07
-2.45289e-06
6.71801e-07
-2.5518e-06
5.3949e-07
-2.62456e-06
3.96041e-07
-2.66977e-06
2.44292e-07
-2.68652e-06
8.71724e-08
-2.67437e-06
-7.2302e-08
-2.63341e-06
-2.31034e-07
-2.56423e-06
-3.85852e-07
-2.46797e-06
-5.33529e-07
-2.34628e-06
-6.70809e-07
-2.2014e-06
-7.94445e-07
-2.03606e-06
-9.01258e-07
-1.85357e-06
-9.88206e-07
-1.6577e-06
-1.05248e-06
-1.45272e-06
-1.09159e-06
-1.24326e-06
-1.10354e-06
-1.03431e-06
-1.0869e-06
-8.31065e-07
-1.04102e-06
-6.38823e-07
-9.66138e-07
-4.62884e-07
-8.63605e-07
-3.08419e-07
-7.36015e-07
-1.80375e-07
-5.87387e-07
-8.3409e-08
-4.23269e-07
-2.18933e-08
-2.50822e-07
-7.93524e-08
-2.58767e-08
1.10975e-07
-9.72643e-08
3.34408e-07
-2.081e-07
5.48281e-07
-3.52416e-07
7.44254e-07
-5.24296e-07
9.16264e-07
-7.1788e-07
1.05991e-06
-9.27391e-07
1.1723e-06
-1.14719e-06
1.25188e-06
-1.37184e-06
1.29821e-06
-1.59614e-06
1.31176e-06
-1.81521e-06
1.29373e-06
-2.02452e-06
1.24589e-06
-2.21993e-06
1.17044e-06
-2.3977e-06
1.06991e-06
-2.55454e-06
9.47069e-07
-2.6876e-06
8.04862e-07
-2.79449e-06
6.46384e-07
-2.87329e-06
4.74843e-07
-2.92255e-06
2.93553e-07
-2.94131e-06
1.05928e-07
-2.92909e-06
-8.45219e-08
-2.88594e-06
-2.74188e-07
-2.81241e-06
-4.59373e-07
-2.70964e-06
-6.36307e-07
-2.57927e-06
-8.01174e-07
-2.42356e-06
-9.50157e-07
-2.24532e-06
-1.0795e-06
-2.04795e-06
-1.18558e-06
-1.83539e-06
-1.26504e-06
-1.61212e-06
-1.31486e-06
-1.38311e-06
-1.33256e-06
-1.1537e-06
-1.31631e-06
-9.29567e-07
-1.26515e-06
-7.16596e-07
-1.17911e-06
-5.20753e-07
-1.05945e-06
-3.47975e-07
-9.08792e-07
-2.0406e-07
-7.31301e-07
-9.45865e-08
-5.32743e-07
-2.48737e-08
-3.20535e-07
-1.04226e-07
-2.87789e-08
1.39754e-07
-1.08035e-07
4.13664e-07
-2.30768e-07
6.71014e-07
-3.90068e-07
9.03554e-07
-5.79132e-07
1.10533e-06
-7.913e-07
1.27208e-06
-1.0201e-06
1.40111e-06
-1.25932e-06
1.4911e-06
-1.50302e-06
1.54191e-06
-1.74562e-06
1.55437e-06
-1.98196e-06
1.53006e-06
-2.20725e-06
1.47118e-06
-2.4172e-06
1.38038e-06
-2.60793e-06
1.26065e-06
-2.77608e-06
1.11522e-06
-2.91873e-06
9.47509e-07
-3.03343e-06
7.61089e-07
-3.11823e-06
5.59639e-07
-3.17162e-06
3.46948e-07
-3.19261e-06
1.26912e-07
-3.18067e-06
-9.64657e-08
-3.13578e-06
-3.1907e-07
-3.05848e-06
-5.3668e-07
-2.94981e-06
-7.44975e-07
-2.81141e-06
-9.39569e-07
-2.64552e-06
-1.11605e-06
-2.45497e-06
-1.27005e-06
-2.24322e-06
-1.39733e-06
-2.01435e-06
-1.4939e-06
-1.77305e-06
-1.55616e-06
-1.52456e-06
-1.58105e-06
-1.27464e-06
-1.56624e-06
-1.02945e-06
-1.51034e-06
-7.95487e-07
-1.41307e-06
-5.79432e-07
-1.2755e-06
-3.88039e-07
-1.10018e-06
-2.28006e-07
-8.91335e-07
-1.05857e-07
-6.54891e-07
-2.78679e-08
-3.98524e-07
-1.32094e-07
-3.16705e-08
1.71425e-07
-1.18772e-07
5.00765e-07
-2.53377e-07
8.05619e-07
-4.27635e-07
1.07781e-06
-6.33846e-07
1.31154e-06
-8.64535e-07
1.50277e-06
-1.11252e-06
1.64909e-06
-1.37098e-06
1.74955e-06
-1.63349e-06
1.80442e-06
-1.89409e-06
1.81497e-06
-2.14731e-06
1.78328e-06
-2.38818e-06
1.71205e-06
-2.61224e-06
1.60444e-06
-2.81553e-06
1.46395e-06
-2.99463e-06
1.29431e-06
-3.14657e-06
1.09946e-06
-3.26891e-06
8.83423e-07
-3.35964e-06
6.50373e-07
-3.41726e-06
4.04564e-07
-3.44071e-06
1.50361e-07
-3.42942e-06
-1.07754e-07
-3.38332e-06
-3.65172e-07
-3.30284e-06
-6.17155e-07
-3.18898e-06
-8.5884e-07
-3.04328e-06
-1.08526e-06
-2.86793e-06
-1.2914e-06
-2.66573e-06
-1.47225e-06
-2.44018e-06
-1.62288e-06
-2.19546e-06
-1.73863e-06
-1.93641e-06
-1.81521e-06
-1.66856e-06
-1.84889e-06
-1.39806e-06
-1.83674e-06
-1.13159e-06
-1.7768e-06
-8.76289e-07
-1.66838e-06
-6.39598e-07
-1.51219e-06
-4.29146e-07
-1.31064e-06
-2.5258e-07
-1.0679e-06
-1.17424e-07
-7.90047e-07
-3.09409e-08
-4.85007e-07
-1.63035e-07
-3.45918e-08
2.06016e-07
-1.296e-07
5.95774e-07
-2.76151e-07
9.52171e-07
-4.65432e-07
1.26709e-06
-6.88821e-07
1.53493e-06
-9.38006e-07
1.75195e-06
-1.20507e-06
1.91616e-06
-1.48257e-06
2.02705e-06
-1.76359e-06
2.08545e-06
-2.0418e-06
2.09318e-06
-2.31144e-06
2.05293e-06
-2.56737e-06
1.96797e-06
-2.80499e-06
1.84207e-06
-3.02032e-06
1.67927e-06
-3.20989e-06
1.48388e-06
-3.37076e-06
1.26032e-06
-3.50047e-06
1.01313e-06
-3.59704e-06
7.46943e-07
-3.65894e-06
4.66464e-07
-3.68509e-06
1.76514e-07
-3.67487e-06
-1.17973e-07
-3.62813e-06
-4.11919e-07
-3.54519e-06
-7.00091e-07
-3.42693e-06
-9.77096e-07
-3.2748e-06
-1.2374e-06
-3.09086e-06
-1.47534e-06
-2.87786e-06
-1.68525e-06
-2.63924e-06
-1.86149e-06
-2.37924e-06
-1.99863e-06
-2.10285e-06
-2.0916e-06
-1.81584e-06
-2.1359e-06
-1.52475e-06
-2.12783e-06
-1.23679e-06
-2.06477e-06
-9.59752e-07
-1.94541e-06
-7.01908e-07
-1.77004e-06
-4.71813e-07
-1.54073e-06
-2.7814e-07
-1.26157e-06
-1.2948e-07
-9.38708e-07
-3.41533e-08
-5.80333e-07
-1.97188e-07
-3.7578e-08
2.43594e-07
-1.40633e-07
6.98828e-07
-2.99295e-07
1.11083e-06
-5.03744e-07
1.47154e-06
-7.44398e-07
1.77558e-06
-1.01207e-06
2.01962e-06
-1.29807e-06
2.20216e-06
-1.59435e-06
2.32332e-06
-1.89348e-06
2.38458e-06
-2.18876e-06
2.38846e-06
-2.47419e-06
2.33835e-06
-2.74446e-06
2.23824e-06
-2.99493e-06
2.09254e-06
-3.22158e-06
1.90593e-06
-3.42099e-06
1.68329e-06
-3.59025e-06
1.42958e-06
-3.72695e-06
1.14984e-06
-3.82916e-06
8.49148e-07
-3.89535e-06
5.32656e-07
-3.92443e-06
2.05593e-07
-3.91572e-06
-1.26685e-07
-3.86897e-06
-4.5867e-07
-3.78439e-06
-7.84667e-07
-3.66271e-06
-1.09878e-06
-3.50519e-06
-1.39491e-06
-3.31376e-06
-1.66678e-06
-3.091e-06
-1.90801e-06
-2.84029e-06
-2.1122e-06
-2.56584e-06
-2.27309e-06
-2.27271e-06
-2.38472e-06
-1.96692e-06
-2.44169e-06
-1.65534e-06
-2.43941e-06
-1.34571e-06
-2.37439e-06
-1.04655e-06
-2.24458e-06
-7.66965e-07
-2.04962e-06
-5.16531e-07
-1.79117e-06
-3.05026e-07
-1.47308e-06
-1.42208e-07
-1.10153e-06
-3.75613e-08
-6.8498e-07
-2.3475e-07
-4.06612e-08
2.84256e-07
-1.51973e-07
8.1014e-07
-3.22996e-07
1.28186e-06
-5.4283e-07
1.69137e-06
-8.00871e-07
2.03362e-06
-1.08701e-06
2.30576e-06
-1.39176e-06
2.50692e-06
-1.70642e-06
2.63798e-06
-2.02308e-06
2.70124e-06
-2.33469e-06
2.70007e-06
-2.63503e-06
2.63869e-06
-2.91868e-06
2.5219e-06
-3.181e-06
2.35485e-06
-3.418e-06
2.14294e-06
-3.62635e-06
1.89164e-06
-3.80324e-06
1.60647e-06
-3.94637e-06
1.29297e-06
-4.05387e-06
9.56646e-07
-4.12426e-06
6.03049e-07
-4.15645e-06
2.37783e-07
-4.14971e-06
-1.33429e-07
-4.10368e-06
-5.047e-07
-4.01842e-06
-8.69921e-07
-3.89447e-06
-1.22273e-06
-3.73288e-06
-1.5565e-06
-3.53532e-06
-1.86434e-06
-3.30419e-06
-2.13914e-06
-3.04268e-06
-2.37371e-06
-2.7549e-06
-2.56087e-06
-2.44596e-06
-2.69367e-06
-2.12199e-06
-2.76566e-06
-1.79021e-06
-2.77118e-06
-1.45889e-06
-2.70571e-06
-1.13725e-06
-2.56622e-06
-8.35316e-07
-2.35155e-06
-5.63752e-07
-2.06273e-06
-3.33556e-07
-1.70327e-06
-1.55784e-07
-1.2793e-06
-4.12185e-08
-7.99545e-07
-2.75968e-07
-4.3872e-08
3.28128e-07
-1.6372e-07
9.29987e-07
-3.47429e-07
1.46557e-06
-5.82925e-07
1.92687e-06
-8.58494e-07
2.30919e-06
-1.16303e-06
2.6103e-06
-1.48624e-06
2.83012e-06
-1.81872e-06
2.97047e-06
-2.1521e-06
3.03462e-06
-2.47901e-06
3.02698e-06
-2.79306e-06
2.95274e-06
-3.08879e-06
2.81763e-06
-3.36159e-06
2.62766e-06
-3.60763e-06
2.38897e-06
-3.82369e-06
2.1077e-06
-4.00717e-06
1.78995e-06
-4.1559e-06
1.4417e-06
-4.26815e-06
1.06889e-06
-4.34252e-06
6.7742e-07
-4.37794e-06
2.73201e-07
-4.37362e-06
-1.37741e-07
-4.32912e-06
-5.49205e-07
-4.2443e-06
-9.54736e-07
-4.11947e-06
-1.34757e-06
-3.95538e-06
-1.72058e-06
-3.75343e-06
-2.06629e-06
-3.51568e-06
-2.37689e-06
-3.24508e-06
-2.64431e-06
-2.94554e-06
-2.86041e-06
-2.62207e-06
-3.01713e-06
-2.2809e-06
-3.10683e-06
-1.92952e-06
-3.12257e-06
-1.57666e-06
-3.05857e-06
-1.2323e-06
-2.91059e-06
-9.07432e-07
-2.67642e-06
-6.13891e-07
-2.35627e-06
-3.64034e-07
-1.95313e-06
-1.70373e-07
-1.47296e-06
-4.51772e-08
-9.24741e-07
-3.21145e-07
-4.7242e-08
3.7537e-07
-1.75975e-07
1.05872e-06
-3.72774e-07
1.66237e-06
-6.24258e-07
2.17835e-06
-9.17494e-07
2.60243e-06
-1.24031e-06
2.93311e-06
-1.5815e-06
3.17132e-06
-1.93102e-06
3.31999e-06
-2.28e-06
3.38361e-06
-2.62081e-06
3.36778e-06
-2.94695e-06
3.27888e-06
-3.25299e-06
3.12368e-06
-3.53449e-06
2.90915e-06
-3.78778e-06
2.64226e-06
-4.00993e-06
2.32985e-06
-4.19856e-06
1.97858e-06
-4.35175e-06
1.59489e-06
-4.46795e-06
1.18509e-06
-4.5459e-06
7.55363e-07
-4.58456e-06
3.11862e-07
-4.58313e-06
-1.39168e-07
-4.54104e-06
-5.91301e-07
-4.45795e-06
-1.03783e-06
-4.33387e-06
-1.47165e-06
-4.16924e-06
-1.88522e-06
-3.96502e-06
-2.27051e-06
-3.7229e-06
-2.61901e-06
-3.44543e-06
-2.92179e-06
-3.13619e-06
-3.16964e-06
-2.80002e-06
-3.35331e-06
-2.44308e-06
-3.46376e-06
-2.07307e-06
-3.49259e-06
-1.69915e-06
-3.43248e-06
-1.33203e-06
-3.27771e-06
-9.83712e-07
-3.02473e-06
-6.67331e-07
-2.67265e-06
-3.9675e-07
-2.22371e-06
-1.86143e-07
-1.68357e-06
-4.949e-08
-1.06139e-06
-3.70635e-07
-5.08069e-08
4.26176e-07
-1.88853e-07
1.19677e-06
-3.99226e-07
1.87274e-06
-6.67069e-07
2.4462e-06
-9.78088e-07
2.91345e-06
-1.31893e-06
3.27395e-06
-1.67745e-06
3.52984e-06
-2.04289e-06
3.68543e-06
-2.40596e-06
3.74668e-06
-2.7588e-06
3.72062e-06
-3.09489e-06
3.61497e-06
-3.40895e-06
3.43774e-06
-3.69677e-06
3.19697e-06
-3.95502e-06
2.90051e-06
-4.18111e-06
2.55594e-06
-4.37301e-06
2.17048e-06
-4.52913e-06
1.75101e-06
-4.64817e-06
1.30413e-06
-4.72905e-06
8.36241e-07
-4.77083e-06
3.53646e-07
-4.7727e-06
-1.37294e-07
-4.73397e-06
-6.30038e-07
-4.65407e-06
-1.11772e-06
-4.53268e-06
-1.59303e-06
-4.36982e-06
-2.04808e-06
-4.16596e-06
-2.47436e-06
-3.92227e-06
-2.8627e-06
-3.64076e-06
-3.2033e-06
-3.32455e-06
-3.48585e-06
-2.97812e-06
-3.69974e-06
-2.60746e-06
-3.83442e-06
-2.22031e-06
-3.87974e-06
-1.82623e-06
-3.82657e-06
-1.43658e-06
-3.66736e-06
-1.06447e-06
-3.39685e-06
-7.2442e-07
-3.0127e-06
-4.31992e-07
-2.51614e-06
-2.03263e-07
-1.9123e-06
-5.42123e-08
-1.21044e-06
-4.24848e-07
-5.46104e-08
4.80787e-07
-2.02489e-07
1.34464e-06
-4.27013e-07
2.09726e-06
-7.11633e-07
2.73082e-06
-1.04051e-06
3.24232e-06
-1.39897e-06
3.63241e-06
-1.77386e-06
3.90473e-06
-2.15373e-06
4.0653e-06
-2.52886e-06
4.12181e-06
-2.89127e-06
4.08302e-06
-3.23454e-06
3.95823e-06
-3.55364e-06
3.75684e-06
-3.84476e-06
3.48808e-06
-4.10501e-06
3.16077e-06
-4.3323e-06
2.78323e-06
-4.52505e-06
2.36323e-06
-4.68209e-06
1.90805e-06
-4.80247e-06
1.42451e-06
-4.88536e-06
9.19129e-07
-4.92996e-06
3.98251e-07
-4.93549e-06
-1.31771e-07
-4.90111e-06
-6.64413e-07
-4.82604e-06
-1.19279e-06
-4.70958e-06
-1.70949e-06
-4.55124e-06
-2.20643e-06
-4.3509e-06
-2.6747e-06
-4.10907e-06
-3.10453e-06
-3.82708e-06
-3.48529e-06
-3.50741e-06
-3.80552e-06
-3.15395e-06
-4.0532e-06
-2.77236e-06
-4.21601e-06
-2.37027e-06
-4.28184e-06
-1.95745e-06
-4.23938e-06
-1.54595e-06
-4.07886e-06
-1.14995e-06
-3.79285e-06
-7.85486e-07
-3.37716e-06
-4.70051e-07
-2.83158e-06
-2.21915e-07
-2.16043e-06
-5.9405e-08
-1.37295e-06
-4.84252e-07
-5.87087e-08
5.39495e-07
-2.17058e-07
1.50299e-06
-4.56426e-07
2.33663e-06
-7.58285e-07
3.03268e-06
-1.10502e-06
3.58905e-06
-1.48048e-06
4.00788e-06
-1.87044e-06
4.29468e-06
-2.2627e-06
4.45757e-06
-2.64725e-06
4.50635e-06
-3.01605e-06
4.45183e-06
-3.36294e-06
4.30512e-06
-3.68332e-06
4.07722e-06
-3.97391e-06
3.77867e-06
-4.23247e-06
3.41932e-06
-4.4575e-06
3.00826e-06
-4.64805e-06
2.55378e-06
-4.80346e-06
2.06347e-06
-4.92323e-06
1.54429e-06
-5.00687e-06
1.00276e-06
-5.05376e-06
4.45148e-07
-5.06318e-06
-1.22356e-07
-5.0342e-06
-6.93394e-07
-4.96577e-06
-1.26122e-06
-4.85677e-06
-1.81849e-06
-4.70614e-06
-2.35705e-06
-4.51309e-06
-2.86775e-06
-4.27729e-06
-3.34033e-06
-3.99922e-06
-3.76336e-06
-3.68048e-06
-4.12426e-06
-3.32419e-06
-4.40948e-06
-2.9354e-06
-4.6048e-06
-2.5214e-06
-4.69584e-06
-2.09204e-06
-4.66873e-06
-1.65991e-06
-4.51099e-06
-1.24027e-06
-4.21249e-06
-8.50837e-07
-3.7666e-06
-5.11236e-07
-3.17118e-06
-2.42302e-07
-2.42937e-06
-6.5138e-08
-1.55012e-06
-5.4939e-07
-6.31774e-08
6.02673e-07
-2.32792e-07
1.67261e-06
-4.87842e-07
2.59168e-06
-8.07459e-07
3.35229e-06
-1.17195e-06
3.95354e-06
-1.56352e-06
4.39944e-06
-1.96673e-06
4.69789e-06
-2.36874e-06
4.85957e-06
-2.75925e-06
4.89687e-06
-3.13039e-06
4.82297e-06
-3.47641e-06
4.65114e-06
-3.79335e-06
4.39417e-06
-4.07869e-06
4.06401e-06
-4.33097e-06
3.6716e-06
-4.5495e-06
3.2268e-06
-4.73408e-06
2.73836e-06
-4.8847e-06
2.21409e-06
-5.00142e-06
1.661e-06
-5.08414e-06
1.08548e-06
-5.13252e-06
4.93534e-07
-5.14593e-06
-1.08949e-07
-5.12337e-06
-7.15956e-07
-5.06352e-06
-1.32107e-06
-4.96483e-06
-1.91719e-06
-4.8256e-06
-2.49628e-06
-4.64422e-06
-3.04913e-06
-4.41941e-06
-3.56514e-06
-4.15059e-06
-4.03218e-06
-3.83825e-06
-4.4366e-06
-3.48445e-06
-4.76328e-06
-3.09331e-06
-4.99594e-06
-2.67153e-06
-5.11763e-06
-2.22877e-06
-5.1115e-06
-1.77798e-06
-4.96177e-06
-1.3355e-06
-4.65498e-06
-9.20775e-07
-4.18132e-06
-5.55891e-07
-3.53606e-06
-2.6466e-07
-2.7206e-06
-7.14954e-08
-1.74328e-06
-6.20886e-07
-6.81199e-08
6.70793e-07
-2.50004e-07
1.85449e-06
-5.21766e-07
2.86344e-06
-8.59722e-07
3.69025e-06
-1.24173e-06
4.33555e-06
-1.64811e-06
4.80582e-06
-2.06217e-06
5.11195e-06
-2.47042e-06
5.26782e-06
-2.86248e-06
5.28893e-06
-3.23083e-06
5.19132e-06
-3.57039e-06
4.9907e-06
-3.87809e-06
4.70186e-06
-4.15238e-06
4.3383e-06
-4.39283e-06
3.91206e-06
-4.59974e-06
3.43371e-06
-4.7738e-06
2.91242e-06
-4.91581e-06
2.3561e-06
-5.02646e-06
1.77165e-06
-5.10616e-06
1.16518e-06
-5.15491e-06
5.42289e-07
-5.17222e-06
-9.16392e-08
-5.15705e-06
-7.31124e-07
-5.10785e-06
-1.37027e-06
-5.02257e-06
-2.00246e-06
-4.89886e-06
-2.62e-06
-4.73419e-06
-3.2138e-06
-4.52619e-06
-3.77314e-06
-4.27299e-06
-4.28538e-06
-3.97372e-06
-4.73588e-06
-3.62903e-06
-5.10797e-06
-3.24179e-06
-5.38318e-06
-2.81768e-06
-5.54173e-06
-2.36585e-06
-5.56332e-06
-1.89938e-06
-5.42824e-06
-1.43553e-06
-5.11883e-06
-9.95601e-07
-4.62125e-06
-6.04414e-07
-3.92725e-06
-2.89276e-07
-3.03573e-06
-7.85823e-08
-1.95398e-06
-6.99468e-07
-7.36797e-08
7.44472e-07
-2.6912e-07
2.04993e-06
-5.58878e-07
3.1532e-06
-9.15817e-07
4.04719e-06
-1.31489e-06
4.73462e-06
-1.73427e-06
5.2252e-06
-2.15594e-06
5.53363e-06
-2.56589e-06
5.67777e-06
-2.95387e-06
5.67692e-06
-3.31302e-06
5.55047e-06
-3.63923e-06
5.31691e-06
-3.93061e-06
4.99324e-06
-4.18689e-06
4.59458e-06
-4.4089e-06
4.13406e-06
-4.59811e-06
3.62292e-06
-4.75628e-06
3.07059e-06
-4.88514e-06
2.48495e-06
-4.98612e-06
1.87264e-06
-5.06024e-06
1.2393e-06
-5.1079e-06
5.8994e-07
-5.12879e-06
-7.07456e-08
-5.12189e-06
-7.38019e-07
-5.08543e-06
-1.40674e-06
-5.01691e-06
-2.07098e-06
-4.91326e-06
-2.72365e-06
-4.77098e-06
-3.35608e-06
-4.58646e-06
-3.95766e-06
-4.35636e-06
-4.51549e-06
-4.07813e-06
-5.01411e-06
-3.7507e-06
-5.4354e-06
-3.3752e-06
-5.75868e-06
-2.95586e-06
-5.96108e-06
-2.50082e-06
-6.01836e-06
-2.02292e-06
-5.90614e-06
-1.54013e-06
-5.60162e-06
-1.07563e-06
-5.08576e-06
-6.57285e-07
-4.34559e-06
-3.16517e-07
-3.3765e-06
-8.6535e-08
-2.18396e-06
-7.86003e-07
-8.00568e-08
8.24529e-07
-2.90728e-07
2.2606e-06
-6.00085e-07
3.46256e-06
-9.76714e-07
4.42382e-06
-1.39207e-06
5.14998e-06
-1.8219e-06
5.65503e-06
-2.24688e-06
5.9586e-06
-2.65264e-06
6.08353e-06
-3.02944e-06
6.05371e-06
-3.37142e-06
5.89244e-06
-3.67587e-06
5.62136e-06
-3.94245e-06
5.25983e-06
-4.17248e-06
4.8246e-06
-4.3683e-06
4.32988e-06
-4.53276e-06
3.78739e-06
-4.66885e-06
3.20668e-06
-4.77932e-06
2.59543e-06
-4.86648e-06
1.9598e-06
-4.93198e-06
1.3048e-06
-4.97669e-06
6.34645e-07
-5.00057e-06
-4.68567e-08
-5.00267e-06
-7.35919e-07
-4.98103e-06
-1.42838e-06
-4.93275e-06
-2.11927e-06
-4.85402e-06
-2.80237e-06
-4.74037e-06
-3.46973e-06
-4.58684e-06
-4.11119e-06
-4.38843e-06
-4.71389e-06
-4.14066e-06
-5.26187e-06
-3.8403e-06
-5.73576e-06
-3.48627e-06
-6.11271e-06
-3.08074e-06
-6.3666e-06
-2.63027e-06
-6.46883e-06
-2.14687e-06
-6.38954e-06
-1.64885e-06
-6.09964e-06
-1.16119e-06
-5.57342e-06
-7.15107e-07
-4.79167e-06
-3.46859e-07
-3.74475e-06
-9.55359e-08
-2.43528e-06
-8.81539e-07
-8.75329e-08
9.12062e-07
-3.15633e-07
2.4887e-06
-6.46602e-07
3.79353e-06
-1.04364e-06
4.82086e-06
-1.47401e-06
5.58035e-06
-1.91073e-06
6.09175e-06
-2.33324e-06
6.38111e-06
-2.72723e-06
6.47752e-06
-3.08387e-06
6.41035e-06
-3.39888e-06
6.20745e-06
-3.67144e-06
5.89393e-06
-3.9032e-06
5.49158e-06
-4.09739e-06
5.0188e-06
-4.25814e-06
4.49062e-06
-4.38987e-06
3.91912e-06
-4.49691e-06
3.31372e-06
-4.58314e-06
2.68166e-06
-4.65178e-06
2.02844e-06
-4.70518e-06
1.3582e-06
-4.74473e-06
6.74197e-07
-4.77074e-06
-2.08543e-08
-4.78234e-06
-7.24319e-07
-4.77748e-06
-1.43323e-06
-4.75291e-06
-2.14384e-06
-4.70418e-06
-2.85109e-06
-4.62582e-06
-3.54809e-06
-4.51151e-06
-4.22551e-06
-4.35446e-06
-4.87094e-06
-4.148e-06
-5.46834e-06
-3.88634e-06
-5.99742e-06
-3.56565e-06
-6.4334e-06
-3.18533e-06
-6.74691e-06
-2.74955e-06
-6.90461e-06
-2.26873e-06
-6.87036e-06
-1.76092e-06
-6.60745e-06
-1.25261e-06
-6.08173e-06
-7.78646e-07
-5.26563e-06
-3.80944e-07
-4.14245e-06
-1.05836e-07
-2.71039e-06
-9.87375e-07
-9.65073e-08
1.00857e-06
-3.44945e-07
2.73714e-06
-7.00036e-07
4.14862e-06
-1.11812e-06
5.23895e-06
-1.56141e-06
6.02363e-06
-1.99998e-06
6.53032e-06
-2.41233e-06
6.79346e-06
-2.7847e-06
6.84989e-06
-3.10996e-06
6.73561e-06
-3.38607e-06
6.48356e-06
-3.6147e-06
6.12256e-06
-3.79997e-06
5.67686e-06
-3.94741e-06
5.16623e-06
-4.06315e-06
4.60636e-06
-4.15334e-06
4.00931e-06
-4.22374e-06
3.38411e-06
-4.27938e-06
2.7373e-06
-4.32441e-06
2.07347e-06
-4.36191e-06
1.3957e-06
-4.39379e-06
7.0608e-07
-4.42072e-06
6.08094e-09
-4.44205e-06
-7.02995e-07
-4.4557e-06
-1.41958e-06
-4.45818e-06
-2.14137e-06
-4.44451e-06
-2.86476e-06
-4.40832e-06
-3.58428e-06
-4.34197e-06
-4.29186e-06
-4.23685e-06
-4.97606e-06
-4.08392e-06
-5.62127e-06
-3.87448e-06
-6.20687e-06
-3.60134e-06
-6.70654e-06
-3.26035e-06
-7.0879e-06
-2.85228e-06
-7.31268e-06
-2.3849e-06
-7.33774e-06
-1.87505e-06
-7.1173e-06
-1.3502e-06
-6.60658e-06
-8.48891e-07
-5.76694e-06
-4.19646e-07
-4.5717e-06
-1.1779e-07
-3.01225e-06
-1.10517e-06
-1.07555e-07
1.11612e-06
-3.80198e-07
3.00979e-06
-7.62485e-07
4.5309e-06
-1.20194e-06
5.6784e-06
-1.65475e-06
6.47644e-06
-2.08801e-06
6.96359e-06
-2.47982e-06
7.18526e-06
-2.81793e-06
7.18801e-06
-3.09783e-06
7.01551e-06
-3.32063e-06
6.70637e-06
-3.49124e-06
6.29316e-06
-3.61675e-06
5.80236e-06
-3.70531e-06
5.2548e-06
-3.76526e-06
4.66632e-06
-3.80455e-06
4.0486e-06
-3.83035e-06
3.40991e-06
-3.84882e-06
2.75577e-06
-3.86497e-06
2.08962e-06
-3.88256e-06
1.4133e-06
-3.90404e-06
7.27558e-07
-3.93046e-06
3.24955e-08
-3.9614e-06
-6.72054e-07
-3.99491e-06
-1.38607e-06
-4.0274e-06
-2.10888e-06
-4.05355e-06
-2.83861e-06
-4.06629e-06
-3.57154e-06
-4.05682e-06
-4.30133e-06
-4.0148e-06
-5.01808e-06
-3.92876e-06
-5.70731e-06
-3.78684e-06
-6.34879e-06
-3.57795e-06
-6.91543e-06
-3.29349e-06
-7.37236e-06
-2.92965e-06
-7.67653e-06
-2.49013e-06
-7.77726e-06
-1.98916e-06
-7.61826e-06
-1.45414e-06
-7.1416e-06
-9.27117e-07
-6.29396e-06
-4.64187e-07
-5.03463e-06
-1.3191e-07
-3.34452e-06
-1.23708e-06
-1.21516e-07
1.23764e-06
-4.2352e-07
3.31179e-06
-8.36648e-07
4.94403e-06
-1.29703e-06
6.13879e-06
-1.75385e-06
6.93326e-06
-2.17152e-06
7.38126e-06
-2.52882e-06
7.54257e-06
-2.8164e-06
7.47558e-06
-3.03369e-06
7.2328e-06
-3.18609e-06
6.85877e-06
-3.2825e-06
6.38957e-06
-3.33352e-06
5.85339e-06
-3.35019e-06
5.27147e-06
-3.34312e-06
4.65925e-06
-3.322e-06
4.02748e-06
-3.2953e-06
3.38321e-06
-3.27016e-06
2.73063e-06
-3.25232e-06
2.07178e-06
-3.24609e-06
1.40707e-06
-3.25439e-06
7.3585e-07
-3.27862e-06
5.67289e-08
-3.3187e-06
-6.31977e-07
-3.37289e-06
-1.33187e-06
-3.43773e-06
-2.04404e-06
-3.5078e-06
-2.76854e-06
-3.57565e-06
-3.50369e-06
-3.63163e-06
-4.24534e-06
-3.66395e-06
-4.98576e-06
-3.65886e-06
-5.7124e-06
-3.60124e-06
-6.40641e-06
-3.47571e-06
-7.04096e-06
-3.26835e-06
-7.57971e-06
-2.96939e-06
-7.97549e-06
-2.57666e-06
-8.17e-06
-2.09975e-06
-8.09517e-06
-1.56426e-06
-7.6771e-06
-1.01493e-06
-6.84329e-06
-5.16284e-07
-5.53327e-06
-1.48961e-07
-3.71185e-06
-1.38604e-06
-1.39652e-07
1.37729e-06
-4.77881e-07
3.65002e-06
-9.25892e-07
5.39204e-06
-1.40513e-06
6.61803e-06
-1.857e-06
7.38512e-06
-2.24425e-06
7.76851e-06
-2.54823e-06
7.84655e-06
-2.76448e-06
7.69184e-06
-2.8982e-06
7.36651e-06
-2.96029e-06
6.92086e-06
-2.9645e-06
6.39378e-06
-2.92533e-06
5.81422e-06
-2.85679e-06
5.20292e-06
-2.77165e-06
4.57411e-06
-2.68111e-06
3.93694e-06
-2.59468e-06
3.29678e-06
-2.52018e-06
2.65613e-06
-2.46382e-06
2.01542e-06
-2.43029e-06
1.37354e-06
-2.4228e-06
7.28359e-07
-2.4431e-06
7.70291e-08
-2.49144e-06
-5.83634e-07
-2.56647e-06
-1.25684e-06
-2.66505e-06
-1.94547e-06
-2.78203e-06
-2.65155e-06
-2.90999e-06
-3.37573e-06
-3.03894e-06
-4.11639e-06
-3.15612e-06
-4.86858e-06
-3.24594e-06
-5.62258e-06
-3.29027e-06
-6.36208e-06
-3.26925e-06
-7.06198e-06
-3.16297e-06
-7.68599e-06
-2.95426e-06
-8.1842e-06
-2.63286e-06
-8.4914e-06
-2.20096e-06
-8.52707e-06
-1.67956e-06
-8.1985e-06
-1.11426e-06
-7.40859e-06
-5.78371e-07
-6.06916e-06
-1.70107e-07
-4.12011e-06
-1.55614e-06
-1.63903e-07
1.5412e-06
-5.4743e-07
4.03355e-06
-1.0342e-06
5.87881e-06
-1.52699e-06
7.11082e-06
-1.95941e-06
7.81754e-06
-2.29483e-06
8.10393e-06
-2.52026e-06
8.07198e-06
-2.63901e-06
7.81058e-06
-2.66414e-06
7.39165e-06
-2.6135e-06
6.87022e-06
-2.5063e-06
6.28658e-06
-2.36109e-06
5.66901e-06
-2.19467e-06
5.0365e-06
-2.02157e-06
4.40101e-06
-1.85405e-06