/*--------------------------------*- C++ -*----------------------------------*\
  =========                 |
  \\      /  F ield         | OpenFOAM: The Open Source CFD Toolbox
   \\    /   O peration     | Website:  https://openfoam.org
    \\  /    A nd           | Version:  7
     \\/     M anipulation  |
\*---------------------------------------------------------------------------*/
FoamFile
{
    version     2.0;
    format      ascii;
    class       volScalarField;
    location    "0.449";
    object      p;
}
// * * * * * * * * * * * * * * * * * * * * * * * * * * * * * * * * * * * * * //

dimensions      [0 2 -2 0 0 0 0];

internalField   nonuniform List<scalar> 
12359
(
0.0653849
0.0748486
0.0494683
0.1078
0.0690098
0.15647
0.186473
0.168303
0.227327
0.143347
0.20941
0.277472
0.489743
0.115195
0.102419
0.394472
0.450179
0.0537546
0.0533821
0.0873701
0.123262
0.251157
0.0806484
0.0928647
0.0775844
0.0840849
0.0505388
0.0504521
0.0526999
0.0510206
0.0513856
0.0499467
0.0496203
0.050802
0.0495029
0.051593
0.058855
0.0637656
0.0673822
0.0612564
0.0726725
0.0623479
0.056441
0.0556543
0.0521018
0.0523082
0.0518495
0.0512387
0.0529881
0.0506811
0.0503294
0.050185
0.0498601
0.0541308
0.0497912
0.0496637
0.0551948
0.0496121
0.0496049
0.0495473
0.0497084
0.0494942
0.0501838
0.510534
0.0546008
0.132182
0.0580477
0.0500906
0.0595431
0.347236
0.53127
0.0705049
0.0494593
0.0602277
0.097948
0.0494964
0.0498249
0.0494757
0.0572899
0.315837
0.12376
0.0450323
0.0485571
0.0504694
-0.0615142
0.0244623
0.044816
0.0471931
-0.065163
-0.0558633
0.0492539
0.469619
0.049227
0.0491961
0.049106
0.00852716
0.0486424
0.0493215
0.058056
0.0544333
0.108557
0.0493597
0.0250636
-0.124613
0.0438641
0.0137573
0.048293
-0.0591709
0.0280445
0.0138395
0.0485836
0.0451271
0.109528
0.0925267
0.0495215
0.0459454
0.0940361
0.0440124
-0.0676514
0.0485943
0.0487462
0.175557
0.0471099
0.00604082
0.043788
0.0454138
0.0369165
0.0502966
0.049471
0.043659
0.0461946
-0.00221194
-0.00304741
-0.00235168
0.0483473
0.00755751
0.045934
0.00748593
0.0493909
0.0374607
0.0487342
0.0668855
0.0151146
0.0483259
0.00888022
0.148402
0.0485619
-0.0482756
0.043842
0.125213
0.00329249
0.0493739
0.0150602
0.0469613
0.0491597
-0.165443
0.11012
-0.00155857
0.0486794
0.0500345
0.0455782
0.0500949
0.00436732
0.0123474
0.0485267
0.0455219
0.0467304
0.17348
0.0140596
-0.0686088
0.0494751
0.0494886
0.0130305
0.0776963
0.0439817
0.0409911
0.0527072
0.0525065
0.111417
0.0418612
0.115978
0.049137
0.0494764
0.0446741
0.056862
0.208331
0.0441614
0.0485925
0.00519426
0.0438814
0.048882
0.00908697
0.0106834
0.0468908
0.0127198
-0.132255
0.0329199
0.0449324
0.0157032
0.0441466
0.15138
0.00472438
0.0558786
0.0137631
0.0119525
0.0491169
0.0110741
0.0565507
0.00247945
0.0429433
0.0488705
0.000161804
0.00032796
-0.562162
0.196592
0.049392
0.0445058
0.0495977
0.044399
0.0675365
0.101939
0.0429815
0.00608955
0.472278
0.0435299
0.0488479
0.0680614
0.0279958
0.0455056
0.0457609
0.0454602
0.0485415
0.00972357
0.0561011
0.0479855
0.0552578
0.0485895
0.0148613
0.0480673
0.306517
0.0484779
0.0223581
0.0483318
0.0548174
0.0446742
-0.0476856
0.049563
0.00189706
0.044615
0.0108565
0.00165697
0.0630979
0.0520932
0.0461454
0.315227
-0.61239
0.0486011
0.0429453
0.401928
-0.0312209
0.0554132
0.0456004
0.0451035
0.0126078
0.0758744
-0.490399
-0.0613947
0.0437402
0.043155
0.00774279
0.0130978
0.0605423
0.0141623
0.0462593
0.0429634
0.0485038
0.0430317
-0.117098
0.0425945
0.0482173
0.0493524
0.0123177
0.0403379
0.0581143
0.0233674
0.0486637
0.0466592
0.049367
0.0493525
0.0499762
0.00423302
0.044579
-0.498726
0.0483322
0.0482658
0.0252565
0.0446921
0.101668
0.0494845
0.0503665
0.0492697
-0.108211
0.0447411
0.0492725
0.0447369
0.049095
0.0445988
0.0459961
0.0457896
0.0445613
0.0536756
0.201887
0.0443684
0.051472
0.0637076
0.0225854
-0.0493591
0.0442546
0.0588197
0.371773
0.0493399
0.0195744
0.0481428
0.0332282
0.0483031
0.0439683
0.222126
0.0187984
0.205368
0.0577364
0.0480068
0.0107294
0.00631869
0.0479797
0.0109598
0.0103032
0.0479172
0.0497586
0.0497518
0.0498107
0.0497919
0.304027
0.0486443
0.10623
0.00145186
0.0558553
0.0137945
0.0187877
0.0259
0.0339048
0.0180259
0.034616
0.0576996
0.0204248
0.0215561
0.0931819
0.0677694
0.0144225
0.065746
0.0657029
0.0165939
0.105356
0.0455012
0.0498208
0.0316231
0.0497935
0.0451449
-0.210412
0.498562
0.0453584
0.0494239
0.0483761
0.0490289
0.0177389
0.0491641
0.0491469
-0.0734933
0.0129965
-0.0522371
0.0473503
0.0105656
0.0406331
0.0486009
0.0159165
0.0313355
0.110886
0.0316202
0.0457285
0.0481484
0.0123964
0.010148
0.0430185
0.294806
0.0159012
0.00754698
0.0503221
0.046735
0.0494077
0.39431
0.0125017
0.0474158
0.0619294
0.0649477
0.0487508
0.0487222
0.048971
-0.0610503
0.0978035
0.0597371
0.0185482
0.00377264
0.0493207
0.115987
0.0498563
-0.000128803
-0.0540998
0.295463
0.0547527
0.092793
0.0283276
0.0231511
0.0359102
0.0312182
0.0511033
0.0357464
0.015533
0.0491676
-0.0322863
0.0586708
-0.00473618
0.00874883
0.0555218
0.0966821
-0.159296
0.0174679
0.0397545
0.007353
0.00873303
0.0190857
0.0440341
0.0489082
0.0522662
0.048326
-0.00221488
0.0461099
0.0839332
0.0857172
0.0367291
-0.0565069
0.105681
0.0542531
0.0477784
0.390218
0.0479937
0.0473219
0.00568111
0.0494241
0.047622
0.0473004
0.241699
0.209986
0.0500305
0.0474097
0.108806
0.0484717
0.0187622
0.0152779
0.0136659
0.0479008
0.0490093
0.0476509
0.0492839
0.0850231
0.0192848
0.0222173
0.0522981
0.0511456
0.00337438
0.0511933
0.0471238
0.0427822
0.121024
0.00504014
0.049371
0.0475731
0.0120414
0.0303776
0.0489614
0.0457757
0.113625
0.0172613
0.00759371
0.0208472
0.0478058
0.0471952
-0.00535387
-0.00339326
0.0492734
0.036993
0.0499624
0.00581739
0.284863
0.0489494
0.046288
0.047954
0.0146066
0.0540107
0.0531455
0.0456325
0.0494989
0.0301593
0.0762565
0.0382781
-0.0357237
0.0482425
-0.0416377
0.0472483
-0.122679
0.0170414
-0.00250298
0.0495787
0.0520975
0.0219636
0.0447293
0.0502753
0.0568163
0.0544529
0.0545333
0.0720745
0.0142709
0.0139176
0.0485732
0.0443545
0.019051
-0.00303898
0.0485767
0.0482099
0.012228
0.0479344
0.226119
-0.162301
-0.0653265
0.0485765
0.041519
0.00169321
0.0535453
0.0444288
0.45484
0.0482803
0.116388
0.0887173
0.0413427
0.0446258
0.0504466
0.037083
0.000994298
0.0304214
0.0518821
0.0486055
0.0494712
0.0539358
0.0527383
0.0554208
0.0143523
0.050031
0.0482465
0.0207224
-0.0478024
0.0513986
2.7368e-05
0.0484029
0.0523616
0.0954775
0.0016437
0.00188636
0.0972159
0.0460871
0.00149763
0.0487899
0.0495479
0.00351726
0.0371507
0.0456014
0.0369589
0.049082
0.0482014
0.0449508
0.0494125
0.0020429
0.103924
0.0591083
0.118765
0.0155896
0.0397189
0.113075
0.0628476
-0.00359075
0.0137468
0.064156
0.0544144
0.0495419
0.0364277
0.0210842
0.0485668
0.0494357
0.0479251
0.0495818
-0.015694
0.0374502
0.0333361
0.105552
0.0570207
0.2377
0.00580077
0.00219248
0.0447414
-0.00107864
0.0490688
0.0502488
0.0481701
0.104733
0.115045
0.0465019
0.0304967
0.235664
0.0155989
0.00561002
0.038664
0.064557
-0.133993
0.0475894
0.0505741
0.0491008
-0.0100235
0.0504509
0.0312695
-0.055786
0.048253
0.0777873
0.0566714
0.041534
0.0515749
0.0466896
0.0498658
0.053578
0.0499202
0.049798
0.0530524
0.00653827
0.0104866
0.041494
0.341282
0.00185261
0.412028
0.0171107
0.0240086
0.0535267
0.0183818
0.0565966
0.00969894
0.319348
0.0986436
0.0561574
0.0437562
0.0540193
0.0526459
0.0215916
0.0489038
-0.00451491
0.049952
0.0995808
0.0476394
-0.0134797
0.00799652
0.0116636
0.0559415
0.0392024
0.00875889
0.0775278
0.00540177
0.0404801
0.00337954
0.0431793
0.0486176
0.050088
-0.227206
0.0722412
0.0418625
0.0485149
0.0501028
0.0543965
0.0830878
0.0104566
0.0162293
0.0479339
0.0434484
0.055309
0.0417455
0.0389078
0.00246057
0.05553
0.0572691
0.00924738
0.0432301
0.0401644
0.104904
0.0485733
0.0556217
-0.270505
0.0495822
0.00750632
0.0505377
0.0405589
0.0894023
0.010006
0.0509421
0.0191028
0.0491467
0.111175
0.0435564
0.0115228
0.0114652
0.11161
0.0490102
0.00119297
-0.00491977
0.0562099
0.042417
0.0441046
0.0352982
0.247424
0.0534272
0.0494053
0.0549078
0.0491854
-0.13072
0.0418498
0.00961386
0.0315028
0.0156291
0.526005
0.0420296
-0.0598567
0.0108008
-0.0630404
0.0183618
0.0517753
0.0419053
0.0306384
-0.048425
-0.0363814
0.0473784
0.0475144
0.119089
0.046563
0.212963
0.0202191
0.0708313
0.0443135
0.408461
-0.109884
0.0424745
0.0486256
0.0488298
0.0935661
0.0544518
0.0592913
0.0518052
0.0149645
0.077203
-0.0142197
0.357198
0.0479276
0.0824124
0.0144198
0.11854
0.0437708
0.116306
0.0078587
0.0948285
0.0519173
0.048517
0.00951989
0.00711295
0.0171201
0.117085
0.0123733
0.0237313
0.0512965
0.0482742
0.0382084
0.24893
0.0384051
0.0119691
0.0666533
0.0197926
0.036086
0.0523542
-0.00421859
0.0323615
0.0432453
-0.00779412
0.0578465
0.0267949
0.19912
0.0486065
0.0321096
0.0499913
0.0564867
0.0456992
0.0506673
0.0485707
0.000727578
0.0430322
0.0774046
0.0125
0.0949755
0.0307087
0.0312362
0.010401
-0.200059
0.0495578
0.0560138
0.0246871
-0.0740225
0.00746795
0.0488974
0.519701
0.0485339
0.04387
-0.176444
0.054423
0.0492423
0.0492635
0.0652083
0.0893448
0.0495763
0.0555189
0.11086
0.0506805
0.053095
0.0521408
0.0475979
0.090846
-0.016141
0.0539456
0.115667
0.0108543
0.0108473
0.00484422
0.0155574
0.0520757
0.0436691
-0.0409885
0.00526055
0.0729819
0.0478956
0.0496083
0.117528
-0.000739552
0.0331149
0.0388091
0.0328329
0.0517975
0.042772
0.0838484
-0.244877
0.378403
0.0820345
0.0497344
0.0427169
0.0796261
0.362004
0.111545
0.048915
0.000978313
-0.0120368
-0.265294
0.0356289
-0.169327
0.0495791
0.0521969
0.0496242
0.00586591
0.0746168
-0.175392
0.0440041
-0.0897076
0.0464101
0.0502489
0.010575
0.0537496
0.00134604
-0.037354
0.0551941
0.0357983
0.0243427
0.0359853
0.0550353
0.075725
0.0726636
0.0306933
0.0777978
0.0552279
0.0496604
0.0525287
0.0501524
0.106045
0.0219042
-0.00715323
0.00240582
0.0858103
0.0244849
0.0229585
0.0423493
-0.00816469
0.0339437
0.054547
0.0491153
7.16246e-05
0.108794
0.0442511
0.0395232
0.0562457
0.0233361
0.102418
0.116188
0.0231399
0.239081
0.022396
0.0870596
-0.0347205
0.053418
0.0175728
0.0114176
0.0468751
0.0336896
0.0376735
0.0438358
0.0487815
0.0451805
-0.013374
-0.00114692
0.0442996
-0.131157
0.100353
0.0500672
0.0509503
0.00242497
0.0499816
0.0787791
0.0137004
0.00412845
0.0499227
0.0522863
0.0487871
0.0499836
0.118065
-0.141048
0.0501013
0.0554981
0.048583
-0.154852
0.0218143
0.0146276
0.0483196
0.049999
0.0520172
0.0246318
0.0840658
0.027859
0.0474092
0.0524011
0.0498631
0.0205151
0.0843477
0.0379673
0.0494297
0.030398
0.0250313
0.0753224
0.0451598
-0.0163339
0.146544
0.0468377
0.0326119
0.0521288
0.0432031
-0.19815
0.0550632
0.0501347
0.0115214
0.104668
0.0822097
-0.144919
0.0762502
0.034622
0.0274147
0.0562204
0.0394089
0.0343827
0.0554347
0.147564
0.0499838
-0.355964
0.0832685
0.181501
0.0394203
-0.00420482
0.0957194
-0.000893889
0.265325
0.00740697
0.0257303
0.0333747
0.0383903
0.0485555
0.0435981
0.0875688
0.00181296
0.0556416
0.0468582
0.0069286
0.0170506
0.00625306
0.0797143
0.00128014
0.00603838
0.048034
0.0707661
-0.0438729
0.087125
0.0485179
0.0341455
0.0529966
0.0485296
0.0693977
0.049565
0.0436068
0.245242
0.0915006
-0.0160945
0.0496044
0.0490797
0.0492069
0.0557898
0.0531559
-0.00120788
0.0532976
0.0489777
-0.0181005
0.0215418
0.00702105
0.0688825
0.0496051
0.0411529
0.0912323
0.0338524
0.0496318
-0.0415071
0.0111599
0.11351
0.049646
-0.243846
0.0970382
0.0501946
0.00334348
0.0386768
-0.012008
0.0354494
0.00161261
0.093881
0.0491895
0.0512465
0.0210862
0.0385856
0.0544146
-0.0064788
0.054575
0.0547251
0.0963908
0.0464216
0.0528814
0.0351961
0.0101614
0.0501407
0.0546333
0.0527178
0.0484429
0.0959128
-0.0405934
0.0260607
0.055843
0.0533887
0.0409515
0.0486475
-0.201716
0.0789901
0.0493614
0.0710805
0.0410022
0.0989277
0.15323
0.00128764
0.0546806
0.00566109
-0.00135949
0.0482834
0.040273
-0.00019748
0.0443319
0.0494135
0.0724991
0.0270843
0.0534441
0.0494414
0.0411593
0.083872
0.0500161
0.0311019
0.0495717
0.0373738
0.0668466
0.1332
0.0489993
-0.211332
0.0799203
0.0160789
-0.115863
0.0924257
0.0314645
-0.0305935
0.0563108
0.142969
0.206053
0.0531888
0.0438848
0.0437109
0.051423
0.0532797
0.00703441
-0.0818679
-0.147952
0.00869208
0.149422
-0.00494336
0.0102861
-0.0411159
0.0489035
0.0516583
0.046776
0.0248019
0.0488103
0.00835124
0.0360098
-0.00556102
0.0486348
0.0519995
0.0467958
-0.161649
0.11997
0.0777611
0.0611763
0.122506
0.0441392
0.0500337
-0.0176284
0.0358123
-0.0136246
0.0075878
0.0221515
0.00508731
0.0151246
0.0567927
0.0482833
0.0487158
-0.130627
0.0407556
0.0390269
0.0518543
0.00582222
0.0180164
0.0490428
0.0194972
-0.0144469
-0.000448517
0.0940977
0.0528893
0.049158
0.00517342
0.055942
0.0489062
-0.00108982
0.00764845
0.0527997
0.139187
0.00149458
0.0491573
0.049196
0.0484134
0.107044
-0.142071
0.0394115
0.0103764
0.0521173
0.0526398
0.0112276
0.0493286
0.175115
0.0149157
-0.0295632
0.154387
0.0299499
0.0484426
0.0487305
0.0325379
0.0560801
0.0482918
-0.190648
0.00582813
0.0434994
0.21754
0.100955
0.0437279
0.048576
0.0491817
0.0515972
-0.0722441
0.161077
0.0329486
0.0769137
0.066753
0.0062637
-0.0801618
0.0314349
0.0541613
0.0528984
0.0163216
0.0404475
0.0479175
0.0515078
0.00411898
0.0531717
0.0322094
0.0549914
0.0815251
-0.0108396
0.0464635
0.0516161
-0.00299786
0.00350745
0.058602
0.0512706
0.0763105
-0.000488712
0.0382747
0.0173473
0.0737749
0.0162209
-0.0283528
0.0529475
0.157985
0.0483569
0.104553
0.000488685
0.0493045
0.0488288
0.378723
0.0494698
0.0558488
0.0259873
0.0544089
0.0545341
0.0575266
0.0493546
0.0491857
0.0002737
-0.025897
0.0470722
0.339864
0.0367631
0.0512941
0.240302
0.0977116
0.0538445
0.0450532
0.0509849
0.0881466
-0.303792
0.0542371
0.0469934
0.0484526
0.051535
0.0635627
0.0161509
0.0537707
0.064397
0.0525231
-0.156315
-0.00720574
0.00834403
0.110068
0.0365152
0.0513865
0.00471893
-0.119308
0.0527005
0.0486624
0.0513164
0.0460145
0.0543433
0.0480265
-0.00250795
0.0446758
0.043587
0.326157
-0.000912204
-0.00484325
0.00406651
0.0541758
0.00117477
0.0858577
-0.0925577
0.0471374
0.0104531
0.0493207
0.238434
0.0486369
0.0489871
0.028632
0.0484867
0.0255701
0.0590953
0.0544526
0.0469644
-0.0880507
0.0859111
0.0109418
0.0515837
0.035841
-0.0390121
-0.00678903
0.078448
0.0745268
0.0495843
0.0551053
0.0456813
0.0514094
0.0470753
0.0515366
0.0897556
0.0735548
0.00742116
-0.111932
0.0228287
-0.00915363
0.031888
-0.116297
0.0479644
-0.0300213
0.0514043
-0.0129559
-0.00545199
0.0249667
0.0490893
0.0290602
0.0105035
0.0315456
-0.00694417
0.234858
-0.106291
0.0513627
-0.00251084
0.0472263
-0.00441914
0.0909302
0.00310189
0.044431
0.0573729
0.010204
0.0522139
0.0363647
0.049411
0.0446056
0.0486811
0.0551851
0.00644418
0.00140835
0.0489279
0.0841819
-0.0826667
0.493781
0.0482868
0.0733787
0.0263827
0.194736
0.0313392
-0.192806
-0.0376521
0.0467963
0.023828
0.066251
0.17864
0.0492378
0.0673122
0.0786883
0.0467844
-0.09079
-0.00350328
0.0513537
0.0248857
-0.0289243
0.0760768
-0.0847671
0.0373223
0.079616
0.054003
0.0482798
0.055341
0.0441002
-0.0761987
-0.000193756
-0.0653358
0.0499434
-0.0786329
0.0295376
0.00357725
0.110262
0.0241987
0.0271956
-0.0548812
0.0371875
0.0362842
0.00519008
0.0696522
0.0253339
0.00898298
0.0694895
-0.0938456
0.0845229
0.0342735
0.0877661
0.0498722
0.113053
0.000296093
0.0998487
0.0528798
-0.0351622
0.0489576
0.033263
0.00877888
-0.00119784
0.0569136
0.0060008
0.0441608
0.507392
0.0550608
0.00575658
0.0913136
-0.000477213
0.00739685
0.0493854
0.0310609
0.048681
0.46626
0.0491067
0.0488312
0.0484146
-0.0133631
0.0435108
0.0435241
-0.00688987
0.0274431
0.0638741
0.0434672
0.0487359
0.106772
0.0471289
0.10354
0.00701699
0.0857315
0.0397406
0.0412706
0.0253942
-0.0141
0.00924344
0.0428121
0.536522
0.0490868
0.0488004
0.0553223
-0.120581
0.0530257
0.0301394
0.0796569
0.0531663
0.0409342
0.00341558
-0.0225842
0.0328531
-0.0454239
0.0541022
0.0446654
0.0142647
0.0189605
-0.000522725
0.0513322
0.0248773
0.0715392
0.19897
0.0365833
0.0488596
0.0443363
0.178218
0.0494388
0.0494388
-0.0371776
0.0317241
-0.0435114
0.0409444
0.04864
0.192246
-0.0132319
0.0437621
0.0544544
0.047016
-0.108571
0.0494468
0.0333428
-0.0265646
0.0494405
0.0487235
0.00929078
0.0482941
0.04945
0.0133333
0.0500041
0.048722
0.0210875
0.0483888
-0.0135087
0.0486323
0.0574776
0.119506
0.008374
0.0494536
0.00537473
-0.184712
0.040935
0.0740991
0.0466686
0.0338601
0.0473585
-0.0178573
-0.00500941
0.0451427
0.0487222
0.12802
0.0299768
0.0154704
0.0114334
0.131716
0.0483137
0.00618577
0.0487066
-0.0186551
-0.00652944
-0.00370074
0.00822175
0.15565
-0.079949
0.00561161
0.0106793
0.0465998
0.0516044
0.00144017
0.135829
0.0981269
0.0326818
-0.0747547
0.048187
-0.063185
0.204373
0.0483251
-0.00715617
-0.00971655
0.080429
0.00856308
0.00688195
0.0722489
0.0488066
-0.012517
-0.0677318
0.26075
0.0542217
0.00285605
-0.0300339
0.145557
0.0507892
0.0486971
0.00625471
-0.0530257
0.0387526
0.0678014
0.0489749
0.048302
0.0560616
0.0539546
0.0246766
0.0547749
0.0486696
-0.0163745
0.0350243
-0.0246267
0.0155594
0.048978
0.0487352
0.144996
0.053746
0.0800988
0.0594045
-0.0402948
0.0807123
0.0480417
-0.0239717
0.0581136
0.0487079
0.0271042
0.0371144
0.0406686
0.0933982
0.0250296
-0.147045
0.0395728
0.0485229
-0.0262967
0.048371
-0.00615007
0.0305999
-0.028073
-0.0476313
0.096014
-0.0312822
0.0490173
-0.0083838
0.053006
0.0717876
-0.022505
0.0191603
-0.0230539
-0.0655707
0.172931
-0.0109599
0.0628862
0.0479959
0.0485913
0.0483486
-0.0306909
0.137878
0.0480114
-0.0149131
-0.0180674
0.0144834
0.00269194
0.0271751
0.109448
-0.0263326
0.0538776
0.0122496
0.0246473
0.0493089
0.0493294
0.0507318
0.0540683
0.0115129
0.0488974
0.0515974
0.0553869
0.0734067
0.000596418
0.0485034
-0.0185938
0.0486308
0.00390816
0.0140252
0.0511135
0.0409109
0.00203918
-0.0192873
0.0360067
0.0768792
0.0538424
0.0261056
0.0317164
0.0487504
0.0529524
0.0533056
0.0511811
0.0487872
0.0690061
0.0487717
0.125817
0.0128655
-0.0963907
0.0488191
0.059022
0.0489323
0.0490236
0.123092
0.0581035
0.0481835
0.337947
0.132643
0.0374456
0.0642424
0.0374394
0.120904
0.0181207
0.00859546
0.0546442
0.0552814
0.0487179
0.0498185
-0.0108851
0.0483484
0.0507931
0.121581
0.0512278
0.0529144
0.0273705
0.0487737
-0.0345331
0.0488525
0.0507353
0.0078921
0.00939089
-0.0624877
0.109335
0.0700534
0.0509772
0.00724504
0.050915
0.0249699
0.0060672
0.0551519
-0.029497
0.0495136
0.0257918
0.0696767
0.0508635
0.10165
0.04881
0.0551427
0.0487069
0.0284849
0.0482655
0.0517154
0.0240528
0.0448664
0.0701809
0.0266374
0.0487539
0.0265497
0.0121612
0.0550084
0.00849184
-0.0140711
0.0487168
0.0306473
0.109226
0.00306466
0.0557939
0.0432208
0.0435226
0.0248897
0.0563208
0.150801
0.0538907
0.0489868
0.0490216
-0.0166936
-0.00920533
-0.0203838
0.280808
0.100118
0.049021
0.0254329
0.0107814
0.04935
-0.0504358
0.0532981
0.10359
-0.000446789
0.0507873
0.141877
-0.00818734
-0.0153347
0.0224243
0.028798
0.0492635
0.048297
0.0605196
0.0487438
0.0487048
0.135123
0.0513184
0.0633933
0.0480633
0.0376453
0.0441526
0.371542
0.0405146
0.0433077
-0.00864761
0.103237
0.0932566
0.0336606
0.109937
0.0489566
0.0456173
0.00468648
0.0720456
0.123942
0.0504301
-0.000199056
0.039776
0.048879
0.051513
0.0488069
0.0628517
0.0405392
0.0492413
0.0294134
0.259104
0.049348
0.0118615
0.0313737
0.0484408
0.0625444
0.0515226
0.0268249
0.0488669
0.0487432
0.0142222
0.0283273
0.0909323
0.142147
-0.238955
0.0549229
0.0638625
-0.0328349
0.0325443
0.0514606
0.0398688
-0.000949096
0.0487875
0.0525695
0.048711
0.0294775
0.0646766
0.0179807
0.0487801
0.0605696
0.0335046
0.0535944
0.119708
0.0448698
0.0485091
0.0487789
0.0289408
0.0224585
0.309908
0.059899
0.08204
0.00581856
0.00475827
0.0485584
0.100228
0.0487778
0.0487465
0.0493117
-0.00294553
0.054172
0.0346528
0.0065887
0.0203952
0.00649396
0.0296245
0.0638087
0.114094
0.0464057
0.0114811
0.0917147
0.0322821
0.129537
0.0529181
-0.164809
0.143054
0.136398
0.0481902
-0.117819
0.00590282
0.00771675
0.136881
-0.000306735
0.0581429
0.0557183
0.0378704
0.0349798
0.0319299
0.210542
0.0730142
0.0533414
0.0137805
0.0535122
0.0353728
0.02341
0.0934719
0.0350804
0.0677184
0.0834433
0.00591435
0.0967014
0.0313259
0.0496198
0.0595844
0.0485176
0.0430804
0.0473494
0.0537687
0.0195501
-0.0407827
0.0484789
0.170819
0.0478588
0.0403783
0.00966073
0.0297549
0.0329934
0.0471021
0.00706555
0.0119404
0.250548
0.0487753
0.00854671
0.0359516
0.0121473
0.0493216
0.0489875
0.151644
0.0233696
0.0319613
-0.116634
0.0262883
0.0389537
0.135297
0.0141667
0.119521
0.0550164
0.0179561
0.0366381
0.0448759
-0.0242833
0.00666485
0.0193342
0.0327814
0.0481916
0.00616367
0.00594837
-0.0003666
0.0390718
0.0366406
0.412982
-0.0401325
0.0478603
-0.0112421
0.0198386
-0.101188
0.0486862
0.0315673
0.031936
0.0486706
0.00390943
0.0273851
0.0526873
-2.24019e-05
-0.0199803
-0.0016369
0.0551562
0.0232148
0.0493578
0.0440377
-0.0260703
0.0821347
0.0283768
0.00682976
0.147644
0.0239598
0.0197303
0.0208634
0.0070017
-0.0247171
0.0471626
0.0214571
0.0155245
0.0925159
0.279114
0.0130466
0.0345803
0.0195258
0.0486827
0.0928977
0.030886
0.00907562
0.0484853
0.0351348
0.00637567
0.0135718
0.147183
0.010564
0.0291718
0.029122
0.0539188
0.00351126
0.0261772
0.0738716
0.0588119
0.0552834
0.0101765
0.0357572
0.0414544
0.0379734
0.0488561
0.00608993
0.0623369
0.0291082
-0.00228932
-0.0435245
0.0431954
0.0286377
0.0164281
0.0237868
0.0488026
0.0992353
0.0985938
0.0720006
0.0492986
0.23511
0.00669852
0.0518872
0.089471
0.0482637
0.0571029
0.0322056
0.0259979
0.0542102
-0.0991375
0.050121
0.0589537
0.0422697
-0.0108963
-0.028512
-0.000470968
0.0624302
0.0092621
0.0493341
0.0289279
0.0745623
0.0501383
0.149568
0.0170906
0.027499
0.00819409
0.0663813
0.0217665
0.0376101
0.0484406
0.0485729
0.0464367
0.0629329
0.124246
0.0155905
0.144732
0.0817381
0.0894877
0.050791
0.0693286
0.00704223
0.0487521
-0.0186802
-0.0151748
0.0519024
0.0487436
0.0396754
0.046891
0.0485606
0.0645262
0.0337872
0.131651
0.0160517
0.0352065
0.0889508
-0.00849628
0.00534285
0.0863417
0.0131564
0.0236014
0.0704396
0.0483347
0.0623484
0.0275905
0.121846
0.128428
0.218064
0.0486015
0.128028
0.0322218
0.0315747
0.105108
0.107348
0.100101
-0.021277
0.0209263
0.0673792
0.0208573
0.0391913
0.045345
0.0908514
0.0481104
0.0166095
-0.0250345
0.0590894
-0.0236525
0.047707
0.0840599
0.0544042
0.0302058
0.102024
0.162568
0.0206468
0.0427416
0.0169579
0.0333835
0.0716563
0.000152175
0.0824363
-0.00115238
0.0486142
0.0211266
-0.148233
0.0977696
0.0353287
-0.0361211
0.010239
0.0413906
0.0476643
0.103789
0.0937803
0.0335928
0.0567208
0.0504506
0.00580096
0.0433351
0.00476385
0.0812047
0.0355725
0.141899
0.0486149
0.0451418
0.00390059
0.0371481
0.0377517
0.0657691
0.0561467
0.0294329
0.168399
0.107274
0.0484321
0.00572553
0.0437877
0.0483746
0.133546
0.0481293
0.0216585
0.0244859
0.0480838
0.0482319
0.0519539
0.00717072
0.0608407
0.0977595
0.0280005
0.130817
0.0322482
0.0331949
0.0368993
0.0781313
0.0488257
0.0390229
0.0368265
0.0265077
-0.0164425
0.00889668
0.066344
0.0442417
0.0549437
0.0312103
0.0422943
0.0606314
0.0217185
0.105683
0.0318846
0.0484023
0.00847865
0.0871079
0.00691531
0.0485761
0.13598
-0.022095
0.0452367
0.0980008
0.00610798
0.0529281
0.0964462
0.00373438
0.0889933
0.113875
0.00447474
0.0475016
0.0788525
0.075918
0.0138568
0.0456647
0.030821
0.0485764
0.0482204
0.0483279
0.0135847
0.0173272
0.0205749
0.0821928
-0.0484332
0.168336
-0.0422063
0.0277477
0.0414212
-0.0281906
0.049344
-0.0913605
0.0328758
0.0227465
0.0183148
0.0283996
0.0646949
0.0408282
0.0324108
0.0537787
0.0485505
0.0776632
-0.0276575
0.0138242
0.0066334
0.0173376
0.0519801
0.0277104
0.0164922
0.0543645
0.0239381
0.0381834
0.118423
0.0855813
0.0805377
0.0932648
-0.00178897
-0.000159368
0.0059606
0.02279
-0.00065409
0.0148229
0.0580406
0.0424037
0.13154
0.0738095
0.00732338
0.0488864
0.0954227
0.127545
0.073554
0.0792401
0.0566424
0.0168536
0.11445
0.0285039
0.0239481
0.033729
0.0330695
0.0476893
0.0281031
0.0294708
0.0534254
0.0201538
0.0297569
0.0438517
0.103609
0.0433671
0.040164
0.075794
0.0550527
0.0480153
0.0507145
0.00275118
0.016048
0.0494757
0.0716526
-0.0385521
0.00645708
0.0555625
0.0191854
-0.0148922
-0.0332541
-0.0023306
0.0318627
0.0343034
0.0548724
0.0333864
0.0257027
-0.000336109
-0.00117309
0.00313595
0.000770743
0.0344154
0.0476022
0.0473341
0.128706
0.0620111
0.0347942
0.0378693
8.52451e-05
0.0443324
0.0270636
0.146113
0.0869557
0.0114872
0.0539437
0.0164499
0.0482302
0.00867941
0.000726058
0.0274761
0.0483118
0.0587172
0.167253
0.0415356
0.0886263
-0.0129398
0.0486748
0.0347788
0.0936445
0.100731
0.0698856
0.0494444
0.0450811
0.0461101
0.0492446
0.0483627
0.0409007
0.00694378
0.0483035
0.0562049
0.0535353
-0.356952
0.11838
0.0461842
0.0485961
0.0107656
0.0166559
0.0234168
0.0767748
0.0176194
0.0477928
0.0419546
0.00513891
0.0491603
0.0138879
0.0931302
0.0711493
0.0470071
0.0126267
0.0489192
0.0391782
0.0372047
0.0413501
-0.00207149
0.0594564
0.0350747
0.0333532
0.11046
0.081271
0.0482179
0.0487266
0.035839
0.0319688
0.0141423
0.0204612
0.0396135
0.00808303
0.0798416
0.0492738
0.0374046
0.00627199
0.0390056
0.0847019
0.0633848
0.0513757
0.150478
0.0220565
0.124426
0.140827
0.0275264
-0.00191358
-7.66362e-05
0.124522
0.0393135
0.00672661
0.0741033
0.0360968
0.0218782
0.0898764
0.0718583
0.0506547
0.00312208
0.0313326
0.0278072
0.0404708
0.00618357
0.0503758
0.0801547
0.0501958
0.0570329
0.0857186
0.0546879
0.042525
0.105126
0.00771422
0.091197
0.0283605
0.0719736
0.00886499
0.0613523
0.0121667
0.0499012
0.030164
0.00986078
0.0672845
0.0268423
0.0498583
0.0418784
0.0151649
0.0454
0.0349081
0.0561703
0.0365198
0.022293
0.000102527
0.09517
0.104241
0.100497
0.0408412
0.0404078
0.0349106
0.0188778
0.0284763
0.049009
0.0541349
0.0697447
0.0243065
0.0581899
0.00509167
0.0306304
0.0569078
0.0329627
0.0320532
0.0435812
0.0297753
0.0373118
0.134451
0.256344
0.0225442
0.0251716
0.028226
0.0315871
0.0367386
0.0355638
0.0331153
0.0232967
0.0133187
0.0473423
0.0485804
0.0475987
0.00671785
0.0485671
0.0295507
0.0424145
0.0309925
0.0594299
0.0336017
0.123276
-0.00595701
0.04822
0.0350532
0.0905672
0.0414713
0.0601974
0.0885574
0.0533282
0.0484472
0.0294245
0.00579519
0.0863282
0.00418664
0.115002
0.0836841
0.00396169
0.0630582
0.0681446
0.0111389
0.0427432
0.0480773
0.049901
0.0362795
0.0481128
0.0320458
-0.0264286
0.0472941
0.079648
0.0431562
0.0621765
0.0629053
0.16088
0.0545933
0.0417953
0.0054753
0.0138581
0.0866907
0.0310164
0.0832659
0.0497825
0.0377097
0.0648685
0.045555
0.0326664
0.0492859
0.0498136
0.0311047
0.0480708
0.0344718
0.0613882
0.0806304
0.0144563
0.0478357
0.00700127
0.00206922
0.0674984
0.0590905
0.0507012
0.0680627
0.131746
0.0485653
0.0402772
0.0465892
0.060212
0.038428
0.0351979
0.0388357
0.0735495
0.083209
0.0322692
0.0791324
0.0905146
0.0599675
0.107701
0.0574575
0.0778712
0.0280716
0.0422681
0.0212248
0.0493687
0.0644104
0.0501522
0.0830239
0.00239936
0.054672
-0.0100918
0.0440887
0.0269678
0.117575
0.00775821
0.0466839
0.0482493
0.00517885
0.106982
0.0273727
0.0295286
0.0154169
0.0443652
0.0808605
0.0374213
0.0469746
0.0358288
0.00874905
0.0425182
0.0401233
0.397642
0.0387667
0.0501992
0.058666
0.0643353
0.042625
0.0314563
0.0485902
0.101767
0.0420401
0.0485732
0.0135221
0.0366993
0.0286211
0.0410009
0.0629628
0.0421058
0.0444476
0.0437236
0.0336579
0.080015
0.0486119
0.0387353
0.0572701
0.0451497
0.0393209
0.0547295
0.0547958
0.0593157
0.05974
0.0486802
0.0429065
0.0505517
0.0289621
-0.00168713
-0.000894444
0.143664
0.0743532
-0.0089359
0.0302434
0.0480977
0.0513256
0.0579569
0.0736654
0.048984
0.0275767
0.0756585
0.0562565
0.0260923
-0.00769657
0.0213841
0.0479867
0.0370702
0.0484498
0.0940786
0.237054
0.038982
0.0567519
0.0426058
0.00645969
0.04825
0.0722031
0.0275565
0.0451472
0.0491416
0.0330959
0.0962405
0.0386192
0.0562854
0.0255557
0.0418404
0.0433289
0.0874714
0.0603284
0.0399178
0.0507321
0.038539
0.0543028
0.0379169
0.048915
0.0390957
0.0483098
0.0542824
0.0114761
0.0681287
0.0160478
0.0735178
0.0734258
0.05266
0.0384584
0.035172
0.0770601
0.0915918
0.0109222
0.0415286
0.055539
0.0578446
0.0398327
0.0471468
0.0435447
0.0370217
0.0281947
0.0282004
0.0441516
0.015092
0.0389845
0.0792091
0.0403608
0.0427302
0.0389155
0.0240597
0.0836892
0.0533874
-0.000535202
0.0388864
0.0410084
0.0106631
0.0514857
0.000810021
0.0509094
0.041469
0.0463659
0.0465376
0.049529
0.0421075
0.00474783
0.0485872
0.0207339
0.0714897
0.0510433
0.0574231
0.0328001
0.0958966
0.0602873
0.0490076
0.0346538
-0.0565465
0.0487282
0.00594765
-0.0711324
0.0654053
0.0849669
0.0524042
0.0409942
0.029454
0.0711409
0.0583686
0.0487304
0.0923149
0.0112808
0.0815229
0.0486215
0.0480151
0.0430456
0.0441063
0.0446028
0.0656372
0.0758543
0.0457381
-0.00116983
0.045719
0.0527605
0.0413048
0.0323091
0.000319446
0.048076
0.0418722
0.023737
0.0429954
0.0460633
0.0510389
0.127154
0.0727369
0.0490808
0.062243
0.0528013
0.0417867
0.0749978
0.0592699
0.0436109
0.0624792
0.0364769
0.0622228
0.0846803
0.00193975
0.023366
0.0491766
0.0696501
0.0468212
0.051144
0.0500224
0.0418811
0.00182894
0.000425796
0.0582446
0.0312191
0.0349252
0.0281175
0.0477703
0.0473283
0.0490873
0.0709541
0.0344896
0.0486589
0.0415905
0.05391
0.022819
0.00904352
0.0486902
0.0481867
0.0360503
0.0479092
0.0471644
0.0422422
0.0448062
0.0394482
0.0656949
0.0613228
0.0340607
0.0465346
0.0522954
0.0574911
0.0419128
0.0486017
0.0425418
0.0306713
0.00120632
0.0058602
0.0351943
0.123551
0.0422886
-0.0563068
0.0881129
0.0417465
0.0404368
0.0530482
0.0480393
0.0486935
0.0525809
0.0560644
0.0412947
0.0502961
0.0478398
0.0966074
0.00581409
0.0334507
0.0488322
0.0543443
0.0624761
0.0698437
0.0323679
0.0509653
0.0485307
0.0470781
0.0426837
0.0285534
0.0266139
0.00597557
0.0613088
0.0469903
0.0384143
0.0554309
0.0529848
0.0524606
0.045946
0.0575563
0.0486804
0.0157823
-0.00203298
0.0478419
0.0659712
0.0413799
0.0442681
0.0460074
0.0499667
-0.0344768
0.0628985
0.00028976
0.0430264
0.00854208
0.0516441
0.0684089
0.126912
0.0546348
0.0488722
0.030367
0.0219948
0.110948
0.0419332
0.0663013
0.044583
0.0482203
0.064527
0.0462671
0.121786
0.000194226
0.0785313
0.0519543
0.0473387
0.0486503
0.0469898
-0.0265482
0.0382729
0.0481213
0.0556262
0.0469358
0.048203
0.0479999
0.0110199
0.00397431
0.0538079
0.0475314
0.0814998
0.0549549
0.101206
0.384308
0.0211209
0.0431381
0.0739894