/*--------------------------------*- C++ -*----------------------------------*\
  =========                 |
  \\      /  F ield         | OpenFOAM: The Open Source CFD Toolbox
   \\    /   O peration     | Website:  https://openfoam.org
    \\  /    A nd           | Version:  7
     \\/     M anipulation  |
\*---------------------------------------------------------------------------*/
FoamFile
{
    version     2.0;
    format      ascii;
    class       surfaceScalarField;
    location    "0.449";
    object      phi;
}
// * * * * * * * * * * * * * * * * * * * * * * * * * * * * * * * * * * * * * //

dimensions      [0 3 -1 0 0 0 0];

internalField   nonuniform List<scalar> 
18389
(
-7.98062e-05
7.98062e-05
4.35026e-05
-4.35026e-05
-5.2044e-05
5.2044e-05
4.00429e-05
-4.00429e-05
-5.18133e-05
5.18133e-05
-3.98585e-05
3.98585e-05
-3.473e-05
3.473e-05
3.91177e-05
-3.91177e-05
-3.49828e-05
3.49828e-05
4.13535e-05
-4.13535e-05
4.42714e-05
-4.42714e-05
-3.42265e-05
3.42265e-05
-1.15066e-05
1.15066e-05
-4.27995e-05
4.27995e-05
4.34394e-05
-4.34394e-05
2.40883e-05
-2.40883e-05
1.84557e-05
-1.84557e-05
4.58833e-05
-4.58833e-05
4.59216e-05
-4.59216e-05
4.33277e-05
-4.33277e-05
-4.25594e-05
4.25595e-05
3.53849e-05
-3.53848e-05
4.29613e-05
-4.29613e-05
-5.84624e-05
5.84624e-05
-4.97705e-05
4.97705e-05
-4.17984e-05
4.17984e-05
-4.45324e-05
4.45324e-05
4.56119e-05
-4.56119e-05
4.58442e-05
-4.58441e-05
4.41275e-05
-4.41275e-05
-4.133e-05
4.133e-05
-6.30631e-05
6.30632e-05
4.31163e-05
-4.31163e-05
-4.47332e-05
4.47332e-05
4.086e-05
-4.086e-05
4.66848e-05
-4.66848e-05
-4.5549e-05
4.5549e-05
5.36104e-05
-5.36104e-05
-5.89107e-05
5.89107e-05
3.78763e-05
-3.78763e-05
4.48826e-05
-4.48826e-05
4.53778e-05
-4.53778e-05
-4.10079e-05
4.10079e-05
4.49093e-05
-4.49093e-05
4.5861e-05
-4.5861e-05
-4.58472e-05
4.58472e-05
-4.58389e-05
4.5839e-05
-4.06544e-05
4.06544e-05
-4.58792e-05
4.58792e-05
4.59275e-05
-4.59275e-05
4.59424e-05
-4.59424e-05
4.46087e-05
-4.46086e-05
3.77246e-05
-3.77246e-05
-4.57612e-05
4.57612e-05
-5.55345e-05
5.55345e-05
-4.38121e-05
4.38121e-05
4.57532e-05
-4.57532e-05
-4.59932e-05
4.59932e-05
4.32263e-05
-4.32263e-05
-5.93192e-05
5.93192e-05
-4.7141e-05
4.7141e-05
4.96056e-05
-4.96056e-05
4.57235e-05
-4.57235e-05
-8.28717e-06
8.28719e-06
4.57752e-05
-4.57752e-05
4.14545e-05
-4.14545e-05
5.12115e-05
-5.12115e-05
-4.58585e-05
4.58585e-05
4.2326e-05
-4.2326e-05
3.08024e-05
-3.08024e-05
3.48828e-07
-3.48828e-07
-4.40987e-05
4.40987e-05
3.28687e-05
-3.28687e-05
-3.65777e-05
3.65777e-05
3.97266e-05
-3.97266e-05
2.66257e-05
-2.66257e-05
2.61935e-05
-2.61935e-05
2.70491e-05
-2.70491e-05
2.43969e-05
-2.43969e-05
1.26767e-05
-1.26767e-05
0.0010744
-0.000885271
-0.000189123
0.00546555
-0.00207488
-0.00339066
-0.00594648
0.00594644
3.87752e-08
0.00335542
-0.00260164
-0.00075379
-0.00156928
0.00177092
-0.000201636
-0.00675668
0.00284271
0.00391398
0.00121369
0.00425187
0.00725571
-0.0058764
-0.00137931
0.00120161
-0.00191066
0.000709058
-0.000865639
-0.000703646
-0.00144211
-0.000314612
0.00175672
0.000141455
-1.51736e-06
-0.000139938
0.000778583
-0.00222069
-0.00360251
0.000121333
0.00348117
-0.00320309
0.00289459
0.000308501
-0.00570397
0.00723559
-0.00153162
-0.00370832
0.0028969
0.00081141
-0.000562736
-0.00303978
-0.00175016
0.00238992
-0.000639749
-0.000461812
0.00255866
-0.00209684
-0.00161097
0.00111676
0.000494203
0.000583532
0.000581827
-0.00159673
-0.00515996
0.00132379
-0.00181302
0.000489226
0.00577823
-0.00385909
-0.00191913
-0.000672892
0.00331033
-0.00263744
-0.00583513
0.00583529
0.000473064
0.00129786
-0.00633557
0.000974136
0.00536144
0.00231667
-0.00298956
-0.00378941
0.00311402
0.000675387
0.002148
-0.00422288
0.00108833
-0.000201905
-0.000886426
0.00150624
-0.00128985
-0.000216386
-0.00280368
-0.000399398
0.00534981
-0.00534968
0.000373526
0.00113271
0.00522731
-0.00133672
-0.0038906
0.00197916
-0.000777548
0.00308568
0.00190869
-0.00499437
-0.00072102
-0.00306839
-8.80334e-05
-0.000156323
0.000244356
0.00393575
0.00331996
0.00115293
-0.00487504
0.00372211
0.00162446
0.00360286
-0.0049823
0.00632085
-0.00133855
-0.00114666
-0.000586506
0.00173316
0.00133779
0.00201763
0.000135291
0.000103626
-0.000238917
0.00501976
-0.00339531
0.00645748
-0.000840367
-0.00561712
0.00321709
-0.00266441
-0.00055268
0.00221617
0.000454555
-0.00267073
0.00295596
-0.000739787
0.00650409
-0.00539873
-0.00110535
0.000495444
-0.00385502
0.00335957
6.84577e-05
0.00638903
0.00479092
-0.00429548
-0.000535768
0.00105939
-0.000523619
-0.0017662
0.000619541
0.00191706
0.00224911
-0.00416615
0.000253552
-0.000333803
8.02512e-05
-0.00125669
-0.00284877
0.00410545
-2.62496e-05
0.00653035
-0.00281438
0.00229927
0.000515114
0.000389026
-1.24416e-05
-0.000376584
-0.00569235
-0.000254124
0.00188264
-0.00140958
0.000827443
0.00495079
0.000900253
0.000174145
0.00264311
-0.00643942
0.00379632
-0.00112021
0.000584442
0.00264211
-0.0038988
0.00619674
-0.00226098
0.0010921
0.00117728
-0.000776845
0.00101896
-0.000242114
-0.00111372
-0.000497248
0.00188144
0.00133564
-0.000594294
0.00142953
-0.00123738
-0.000192147
-0.00265487
0.00198865
0.000666226
0.00116675
0.000262783
0.00112311
-0.00495894
0.00383582
-0.00474886
0.00141059
0.00333826
-0.00455442
0.00611814
-0.00156372
-0.00506238
8.00858e-05
-0.00202343
-0.000631435
-0.000215168
0.000127134
-0.00121691
0.00463954
-0.00342263
-0.00119762
-0.000713043
0.000103304
-0.000192023
8.87189e-05
0.000126284
-2.29799e-05
-0.00125212
0.00463069
-0.00337856
-0.000156128
2.44888e-05
0.000131639
-0.00556638
0.00170729
-0.00120114
-0.000565055
-0.000449387
-1.89245e-05
0.000468311
-0.000543198
9.38101e-05
0.00101243
7.58945e-05
-0.00181061
0.000609467
-0.00015041
1.69976e-05
0.000133412
0.00136803
-0.00234447
0.00097644
0.000271101
-0.00013581
-0.00392555
0.00513924
-0.00245717
0.000707017
-9.43393e-05
-0.000417026
0.000511366
0.00568549
-0.00216836
-0.00351713
7.87597e-05
0.00250627
-0.00258503
0.00444803
-0.00559529
0.00114727
0.0026347
0.00305079
0.00291424
-0.00283548
-0.00612988
0.000425915
-0.00645105
0.00361829
0.00283277
0.00229287
0.00390387
-0.0043868
0.00137257
0.00301422
0.00151654
-0.000192747
-0.0010212
0.00401686
-0.00299566
0.00463881
-0.00162568
-0.00301313
-0.00459626
0.0037461
0.000850161
0.00369279
-0.00502951
5.82464e-05
0.00033078
-0.0013738
0.00582184
-8.98952e-05
0.00214778
-0.00205788
-0.00207013
0.00261365
0.000165211
-0.00277886
-0.0012774
0.00264542
-0.000639035
0.00325269
0.00164266
-0.00173255
0.000888232
0.00396869
-0.00485692
-0.00504195
0.00384306
0.0011989
0.00255193
-0.00359411
0.00104219
-0.00331155
0.00411539
-0.000803839
0.000354965
-0.00366652
-0.000887622
0.000887622
-0.000452554
0.000358215
-0.000126956
-0.000973471
0.00110043
0.00506902
-0.00184191
-0.00322711
-0.00243359
-0.0003701
0.00290066
0.000157885
1.64866e-05
-0.000174372
-0.00147256
0.00112754
0.000345026
-0.000142587
-0.00489937
0.00503906
-0.00388614
0.000223812
-8.23567e-05
0.00444259
0.000577173
0.0040676
-0.00151566
0.000164983
-7.09751e-06
-0.00633711
-0.000990875
-0.000819733
0.00430037
-0.0019031
-0.00239727
0.00275674
0.00154364
0.0010776
-0.00563201
-0.0022661
-0.000548278
-0.00112097
-0.000957433
0.0020784
4.26523e-05
-0.00272396
0.00268131
-0.00235907
0.0012381
-0.00221809
0.00530378
-0.00461118
0.00159246
0.00301872
0.00254892
0.000670092
-0.000337149
-0.000332943
-0.00601565
0.000582873
0.00543277
-0.00418301
0.00581901
-0.001636
0.00182448
0.00163101
-0.0034555
-0.00168069
0.000901034
0.000779655
-0.00271275
0.00208098
0.000631771
0.00111864
0.000764005
0.000247198
-0.000328944
8.17472e-05
0.00488091
-0.00399268
-0.0063876
0.0055752
0.000812405
-0.00478347
-0.00166759
0.00334877
0.000627041
-0.00397581
0.000153973
-0.000162206
8.23273e-06
0.000590481
-0.000125281
-0.000465199
-0.00451795
0.00261486
0.000374718
-0.000580142
0.000205423
9.00352e-05
-0.000977659
-0.00257573
0.00448443
-0.00530374
-0.000322726
0.00562647
0.00019737
0.000212077
-0.000409447
0.00117362
-0.00117362
0.00168597
-0.0007241
-0.00211172
0.00181663
0.000295084
0.00439556
-0.003023
-0.000162395
6.26767e-06
-0.00121848
0.00130851
0.000676588
0.00130257
0.00234793
-0.000266945
-0.00401838
-0.00128536
0.00111908
-0.00497411
0.00321182
-0.00446394
0.000834937
-0.00213783
0.00130289
0.00335927
-0.00457618
-0.00271042
-0.00180754
-0.00483606
0.00469347
-0.000676769
-0.00533887
-0.00515878
0.0014934
-0.00147576
-1.7638e-05
0.00223417
0.000113757
-0.00601448
0.00204863
0.00396586
-0.00121933
0.000526012
0.000693311
0.00144429
0.00295128
-0.00462718
-0.0010151
0.0056423
-0.000212854
0.000138571
7.42825e-05
-0.00550717
0.00132415
0.00375316
-0.0049369
0.00118375
-0.00149924
-0.000612471
-0.000536679
-0.000637497
0.000138328
-0.000203785
6.54568e-05
0.00497764
-0.00385453
-0.00130056
0.00512519
-0.00382464
-0.000394627
-0.000823854
-0.00586137
0.000439554
0.00539573
-0.00616094
0.00456421
-0.000923699
-0.00546391
-0.00109833
-0.000374234
-0.00181846
0.00285854
-0.00104007
-0.000419083
0.00032198
9.71028e-05
-0.00173206
0.00141745
0.0016275
-0.000134105
0.000825755
-3.67511e-05
-0.00169531
0.0027969
0.001217
-0.00303545
0.00605221
-0.000477014
0.00528001
6.97945e-05
-0.00528122
0.00439043
0.00114467
-0.0055351
0.000556535
-0.000768868
0.000212333
-3.9989e-05
-0.000412565
-1.23251e-05
0.00606454
-0.000162171
0.000156816
5.3546e-06
0.000133406
2.05659e-05
0.00254197
-0.0033554
0.000813428
-0.00190333
0.000698685
0.00120465
0.00791984
-0.0034542
-0.00446564
0.00117005
0.00126553
-0.00243558
0.000105176
-0.000171767
6.6591e-05
-0.000805876
0.00133188
0.00115555
0.00318276
-0.00433831
-0.00561481
0.000165788
0.00544901
-0.00401629
0.0029951
0.00173486
0.00479548
0.00458428
0.00333555
-2.13939e-05
0.000191513
-0.000170119
-0.00130028
0.00438968
-0.0030894
0.000301585
-0.000341574
-0.000131372
-8.14813e-05
0.00410145
-0.00227698
0.00475753
-0.00500871
0.00025118
-0.00323136
0.0060584
-0.00282704
0.00252782
0.00157363
0.00574662
-0.00098909
-0.00139041
-0.00562137
0.0013726
0.00424878
0.000654687
0.000520473
-0.00117516
0.00126937
-0.000614679
0.000585393
-0.00111008
0.000524685
0.00110587
0.000277887
0.000392205
-0.000678212
0.00443137
0.00152144
-0.000393905
0.003519
-0.00610718
0.0025882
0.00153487
-0.0025853
0.00105043
-0.0043147
0.00115832
0.00315638
0.00291595
-0.00421623
-0.00490555
-0.00125538
-0.00409682
0.00126529
0.00283153
0.00124106
0.00314862
-0.00326479
-0.000832037
0.00222764
-0.0010576
-0.000674597
-0.00253537
0.00320996
0.00241288
0.000611067
-0.00302394
-0.00159052
0.00120532
0.000385193
0.000270039
0.00149577
-0.00196691
0.000471139
-0.00011094
-0.000222864
-0.000264417
0.000153477
-0.00434993
-0.000246328
-0.000293214
0.00117653
-0.000883321
0.00435142
-0.00464457
0.00029315
-8.84043e-05
0.000117746
-2.93412e-05
0.000970411
0.00338164
-0.00435205
-0.000156976
6.85724e-05
-0.00475172
0.000710115
0.00404161
-0.000798775
0.000118988
0.000679784
8.11606e-05
-8.26778e-05
-0.000400288
0.00086467
-0.000347476
-0.000517194
-0.00603613
0.000637393
-0.00254968
-0.000128169
0.00267784
-0.00317132
0.00441237
0.00218084
-0.00108874
-0.00116719
-0.00118401
-1.36088e-05
-0.00351833
-0.00123053
0.00152316
-0.000414531
-0.00110862
0.00191941
0.00183817
-0.00375758
0.0050395
-0.00160805
-0.00343145
0.000789892
-0.00541707
-0.00137238
0.00300339
0.00195336
0.000788859
-0.00274222
-0.0034988
0.00446922
-0.000153166
2.75656e-06
0.00093298
-0.00443178
-0.00449684
-0.000147735
-0.000998206
-0.0046166
0.00462241
0.00148092
0.00355858
0.00415967
0.00114126
-0.00530093
3.63342e-05
5.93905e-05
-9.57247e-05
-0.00140893
0.00336229
0.0036995
0.00353609
-0.00140298
0.00237179
-0.000968805
-0.00248078
0.000457352
-0.000878394
0.000751436
-0.000209857
0.000407228
-0.000205379
0.00170115
0.00376395
-0.00184454
-0.0010809
-0.000599789
-0.000107211
-0.000157206
0.00355046
-0.0016334
-0.0024037
0.00465281
0.000674524
-0.00309589
0.00242137
0.000657517
0.000765099
-0.00105831
0.00210047
-0.0013087
-0.00327401
0.0045827
-0.00216168
0.00480478
-0.000550609
0.00344519
0.00023833
-0.000221333
-0.00236332
0.000960352
0.00230899
-0.00386856
0.00155958
-0.00122674
5.78839e-05
-2.15498e-05
0.00214997
-0.00279889
0.000648929
-0.0011704
-0.00042011
-0.00352736
0.0045015
0.00119127
0.00167706
-0.00286833
-0.00169247
0.00366396
-0.00197149
0.00423803
-0.00085639
0.000234313
1.41215e-05
-0.000248434
-0.00372297
0.00203049
-0.00142138
0.00471119
-0.00328981
0.000877979
0.00130287
0.000176981
0.000996641
0.000253025
-0.000300739
4.77143e-05
0.0016954
0.000216469
-0.00191187
0.00301895
-0.00458315
0.0015642
-5.2865e-05
0.000374349
-0.000321484
0.00156676
-0.00036144
0.00140386
-0.00060625
-0.000797606
0.00282631
-0.00392289
0.00109658
0.00268163
-0.00374169
0.00106007
-0.00515124
0.00191988
0.00389519
-0.000876233
-0.000630896
-0.00237854
0.00300943
0.00140665
-0.00511721
0.00371056
0.00336053
-0.00145893
-0.00190161
-0.000690384
0.00173118
-0.0010408
0.00477164
-0.00303679
-0.000703996
-0.00196041
-0.00598162
0.00514125
4.03601e-06
0.000121736
-0.000125773
-0.00158128
0.00120341
0.000377868
-0.0049053
0.00630533
-0.00140004
-0.00188792
0.000703424
0.0011845
0.00040772
0.0026871
-0.00208896
-0.000598132
0.00343462
0.000489717
-0.00392434
0.0001243
-1.91236e-05
0.00517234
0.000337146
-0.00550948
-0.00194052
0.00379751
-0.00185699
0.00276572
-0.000632163
-0.00213357
0.000462554
0.000402116
-0.000437996
0.00387262
0.00202588
-0.0039664
0.000704206
-0.000269702
-0.000434503
-0.000662289
3.1478e-06
0.000659143
-0.00315225
-0.00576666
0.00576421
-0.000275639
0.000954104
-0.000678467
-0.00228868
-0.000192109
-0.00454756
0.00323886
-0.000865086
0.00112121
0.00360814
-0.00502009
0.00141196
0.000410684
-0.00296035
0.00233414
-0.00244039
0.000106248
-0.00157143
0.00148227
8.91612e-05
-0.00121355
-0.000367729
-0.00339201
0.00342644
-0.00223516
0.000457246
0.000133235
-0.00173925
0.00104887
-0.00279104
0.000735633
0.00205541
0.000242334
-8.02088e-06
-0.00347716
0.00102251
0.00245465
-0.00144295
0.00560263
0.000338432
-0.000956483
0.000618052
0.00212559
0.000640138
-0.00127775
0.000304284
0.00111804
0.0012161
-0.00142073
0.00494722
-0.0035265
-0.00485177
0.00576974
-0.000917979
-0.00117063
0.002284
0.00410503
0.00107565
4.11136e-05
0.00585887
-0.00551912
-0.000339752
0.00354251
-0.00465321
0.0011107
0.00308829
-0.000675412
0.00542697
-0.00181884
-0.00250493
-0.000972218
-0.0021844
-0.000307408
0.00249182
0.00241805
-0.0019635
-0.00160818
-0.00424
0.0027487
0.00149129
-0.000334566
0.0012356
0.0012036
0.00365154
-0.00485513
-0.000316517
0.000691236
0.00305958
-0.00238505
-0.00472428
-0.00125735
0.0064706
-0.00129826
0.00423457
0.00206242
0.000496234
0.00285577
-0.00212723
-0.000728534
0.00473629
-0.00245229
-6.86135e-05
-0.0033271
-0.000864759
0.00419187
0.000388548
-8.65182e-05
-0.00030203
-0.00514125
0.00610571
-0.000964458
-0.000719194
0.00190721
-0.00118802
-0.000697213
0.00525292
-0.00455571
0.00119542
-0.00191462
-0.000113964
-0.00576243
-0.000776845
0.00203034
0.00382853
-0.000257983
-0.00192641
0.000251402
-4.20328e-06
0.000362539
-0.00048782
0.00335944
-0.000817469
-0.00522611
-0.000271562
-0.000147522
0.000150213
-0.000133602
-1.66112e-05
-0.00248316
0.000124088
-0.000420741
0.0015971
-0.00102142
-0.000575681
0.00246271
0.000599842
-0.00306256
-0.000722083
0.00318478
-0.00520292
-0.000271512
0.00547443
0.00375108
0.00137412
0.00440562
-0.00122286
-0.000128688
0.00254674
0.00540385
-0.000206641
-0.00519721
-0.00608753
0.0042528
0.00183473
0.00320996
-0.00126826
-0.00435312
0.000203675
-0.000225069
0.000553944
0.00084991
0.00115049
0.000200338
-0.00135083
0.00421231
0.00119154
-0.00096157
0.003171
-0.00220943
0.00472093
-0.00137216
-0.00218058
0.00279316
-0.000612577
-0.00117596
-0.000102746
0.000290322
-0.000187576
0.0034466
-0.00414382
0.00134725
-0.00098754
-0.000359711
0.0016001
-0.000396684
-0.00325041
0.00228884
0.005487
-0.00434234
-3.06256e-05
0.000352607
-0.00535605
0.000450748
0.00542873
-0.00190974
-0.000998266
-0.00361485
0.00461312
-0.000645546
0.00288308
-0.00223754
0.00549727
-0.00286244
-0.00263483
-8.83963e-05
0.000590261
-0.000677163
0.000660545
1.66178e-05
-0.000695536
0.00173554
-0.00104001
-0.00314985
-0.00116485
0.000155533
-1.72049e-05
-0.00122482
-0.00478966
-0.00307392
0.00239932
-0.000868163
-0.000305458
-7.26206e-05
-8.95497e-05
-0.00122304
-0.000805971
-0.00523016
-0.00283896
0.00219341
-0.000817975
0.0011915
0.00112087
0.00436911
-0.00548997
0.00338241
-0.00275537
0.000468433
0.000770798
-0.00288388
0.00211308
0.00497768
-0.00491916
-5.8522e-05
-0.00320949
0.00361557
-0.000406068
0.000207787
-9.56033e-05
-0.000112184
-0.00496622
-0.00147321
-0.00176062
0.00368985
-0.00192923
0.0029805
-0.0022097
-0.00378382
0.00202321
0.00139503
-0.00258174
0.00118671
-0.00363309
0.00568172
0.0064999
-0.00219593
-0.00430397
-0.00239867
0.00237607
2.26139e-05
0.00559523
-0.00162655
0.00118538
-0.000925308
-0.000260069
-9.10693e-06
0.000262132
0.000250469
-0.000773755
0.000523285
-0.00304863
0.00364992
-0.000968288
0.000849076
-0.00105098
0.00236403
-0.000632516
-0.00173151
0.00221247
-0.000517073
0.00451758
0.000631847
0.00173218
-0.00175758
0.00106205
0.000408605
-0.000464694
5.6089e-05
0.0022218
-0.00174522
-0.000476583
0.00082407
-0.0051478
-0.000544556
0.000369497
-0.000588347
0.00021885
-0.00410145
0.00547404
0.000941936
-0.00111661
0.000174676
-0.00153461
0.0021632
-0.000628589
-0.00148749
-0.00275251
-0.00537633
-0.000161316
0.00553765
0.000298951
0.000108296
4.19182e-05
0.000127374
-0.000127776
4.01899e-07
0.00410387
-0.00290027
-0.00379531
-0.00231187
0.00346699
0.00303291
-0.00259088
0.000718325
0.00187255
-0.000844654
0.00223968
-0.00229882
-9.9856e-05
0.00272991
-0.00377761
0.0010477
0.00131178
-0.000135243
0.000460196
0.00055224
-0.00327749
0.000962606
0.00231488
0.000910919
-0.000617652
-4.46386e-05
-0.00427015
0.00171844
0.000109538
-0.00182797
-0.00396383
0.00146315
0.00250068
0.000516201
0.00146581
-0.000911875
-0.000246523
-0.00466017
0.0049067
0.000784127
-0.00247671
0.00169259
0.0012022
0.00131232
-0.000457692
-0.00172705
0.00218475
0.00258
-0.00179588
0.00446689
-0.00353391
-0.000769283
-0.00264093
-0.000227325
0.000251814
-0.000706196
0.00176625
-0.00106006
0.00266163
-0.00366632
0.00100469
0.000136424
2.03927e-05
-0.00236554
-0.000911952
0.00142116
-0.00163616
0.000214994
-0.00277503
0.000686072
0.00127616
-0.00141852
0.000142362
0.00161851
-0.00180762
0.000189114
0.000675188
-0.00372228
-0.00115276
0.00133893
-0.00488746
0.00354853
-0.00091147
0.00357309
0.000118483
-7.87248e-05
-3.97582e-05
0.00473438
-0.00361351
-0.000312603
-0.00152363
-0.00400942
-0.00149775
0.00209364
0.000699516
-0.00100693
-0.000922305
-0.0045055
-0.00162438
-0.000368065
0.00124285
-0.000932637
-0.000310215
-0.00149703
-0.00108828
0.000654725
0.00225945
-0.00291418
-0.000114206
0.000670741
-0.000715984
3.88213e-05
-0.00246285
0.00196645
0.00139408
-0.000686016
0.00163168
-0.000945666
-8.68498e-05
-0.000116935
0.000317546
-0.00194852
0.000449281
0.00161663
-0.00230849
0.000691856
-0.00333767
0.0025869
0.000750766
0.00120441
0.00240808
-0.0036125
-0.00175427
0.00104808
-0.00294272
-0.00102111
-0.000783678
-0.00255399
-0.00167804
0.00125534
0.000422697
0.00176682
-4.83823e-05
-0.000760136
-0.00243586
0.00319599
-0.000665452
0.00291336
-0.00225863
-0.000858532
-0.00394761
0.00480616
-0.00234299
0.00234196
1.03406e-06
-0.000798775
-0.00156578
0.000544362
-0.00240569
0.00381807
-0.00141238
0.00323294
0.0028852
0.000194337
3.62137e-05
-0.000230552
0.00234053
-0.000602302
-0.00173823
0.000188208
-0.000184172
-0.00358862
0.00492754
-0.00329019
0.00523795
-0.00194776
-0.00351036
-0.00150973
-0.000916312
0.00323156
-0.00231525
0.00285699
0.00177368
-0.00417939
-0.00499333
-0.00014792
-0.000780531
0.00284394
-0.0020634
-0.000431644
0.000378779
-0.000532024
0.00167647
-0.00114444
-0.00402503
0.00334154
0.000683479
-0.00326976
0.00235345
-0.00386694
0.000673247
0.00319369
0.00140986
-0.00101503
-0.000394824
-0.00589957
0.000696643
0.00184694
-0.00141134
-0.000435595
0.00143165
-0.000416514
-0.00101513
7.83773e-05
0.00012941
0.00292967
-0.000630397
-0.000217338
-0.00348743
-0.000379516
0.000429694
-0.00305694
-0.000968089
-0.00233684
-6.14437e-06
-0.00292295
0.00229206
0.00072021
0.00260214
-0.00332235
0.000585487
-0.000861126
0.00141053
-0.00671728
0.00530676
-0.00577252
0.000989047
-0.0023334
0.00353782
0.000696025
0.000258081
-0.00273319
0.0034534
-8.70606e-05
0.00506474
0.000606329
0.00171256
-0.0023189
-0.00177686
0.00124484
0.00274862
-0.00369494
0.000946316
0.00509944
0.000673863
0.00154794
0.000320081
0.000384124
-0.000364032
-0.000404837
0.000180996
-0.00174846
0.00176684
-0.000888859
0.000871548
0.000594265
-0.000581453
0.00300993
-0.00242847
-0.00150859
0.00184208
-0.000333486
-0.00489202
0.00380314
0.00108888
-0.00479482
0.00150463
-4.15276e-05
3.78652e-05
3.66245e-06
-0.00281239
-0.000853926
0.00108227
-0.00129632
0.000214047
0.00134946
-0.00493808
0.00116601
-1.55161e-05
0.00123429
0.000693813
0.00218927
-0.00366682
0.000854433
0.000184746
-0.00503651
0.00189885
0.00123022
0.000676992
-0.00527411
-0.000492557
0.00565025
0.00118751
0.0071075
-0.00218459
-0.00492291
0.000793491
-0.00038303
-0.000410461
0.000709753
-0.00138541
0.000785615
-0.0038608
-0.00125642
0.000290322
-0.000938429
-0.000426875
0.00136531
0.00233191
0.00400854
-0.00486707
0.00270296
0.000834212
-0.00353718
0.00125121
-0.000965879
-0.000285325
0.000744782
0.00159575
-0.000135126
0.000138349
-3.22274e-06
-0.000709355
0.00288357
-0.00217422
0.00362057
0.00109062
-0.00126395
-0.000414092
0.00141351
-0.00151192
9.84022e-05
4.60321e-05
7.24509e-05
-0.00447765
0.000967287
-0.00165571
0.000442156
-0.00364919
0.0029271
-0.00095255
6.72791e-05
0.000933113
0.00268138
-0.00361449
0.000850005
-0.0012697
0.00418286
-0.00291316
0.000318565
0.000279886
4.65569e-05
-0.000326443
7.84309e-05
-0.00539164
0.0053132
-0.00263733
-0.000772425
0.00340976
-0.0034865
0.00261143
0.000875079
-0.00276448
-0.000260459
-0.00171396
-0.00490666
0.000897244
-0.00145712
-0.00087973
-0.00106265
0.00379257
0.00171043
-0.00372533
0.00201491
0.000105705
2.16693e-05
0.00372463
-0.0020142
0.00286543
0.000952279
-0.0038177
-0.00130359
0.00174106
-0.000437467
0.00357357
0.00109628
-0.00466985
0.00717792
-0.00197391
-0.005204
-0.00212857
-0.000710387
-0.00173791
0.00234423
0.00377269
-0.00492503
0.00115233
-0.00280344
0.00373655
0.00116157
-5.40514e-05
-0.00110752
0.00148083
0.000909082
-0.00550494
0.000599381
0.000436546
0.000356944
0.00292154
-0.00111933
-0.00252031
0.00248071
3.96003e-05
0.000504533
-0.00184082
0.00133628
-0.0038705
-0.00119189
0.00108805
-0.00254517
-0.00529912
0.000151322
-0.00126107
-0.000517388
0.00177846
0.00563311
-0.00449185
0.000104419
0.00028413
-0.00301829
0.00318351
0.00144072
-0.00107401
-0.00036671
0.00346862
0.00475598
-0.000952848
0.000634284
-0.00327161
0.00115498
-0.001036
-5.28768e-05
0.000461481
0.000394063
-1.9714e-05
-0.00206394
-0.000456186
0.00153846
-0.00089961
-0.0034974
0.000764218
-2.80736e-05
-1.34541e-05
0.00599844
-0.00492083
0.00522098
-0.00439354
-3.21195e-05
-0.000679784
0.000711903
0.00194901
-0.000458121
-0.00149089
0.00335874
-0.000756598
-0.00256853
0.00336116
-0.000792628
-0.00183421
0.000530622
0.00127939
-0.000952917
-0.000326472
-0.000118771
-0.000210173
0.00205934
-0.000547964
-0.00151137
-0.00138145
-0.0023941
-0.000126205
0.00209115
-0.00274641
0.000655262
0.00280693
-0.000749943
-0.00205699
0.00410332
-0.00434984
0.00031351
0.00223734
-0.000620712
-0.000681398
0.000835956
-0.00367427
0.00502372
0.00124111
0.000458229
-0.0017193
-0.00286033
0.00209757
0.00363283
0.00158816
-0.00115061
-0.00382483
-0.00113411
0.00130487
-0.00171793
0.000413063
0.00367574
-0.00318603
-0.00019399
0.00113592
-3.85881e-05
-0.000271449
0.000310038
-0.000687695
-0.00190319
0.00377217
-0.00490639
0.00113423
-0.0018625
0.00235255
-0.00049005
-0.00115286
0.00213339
0.000750176
-0.00226366
0.0037544
-0.00149075
0.00150709
-0.00114353
-0.000363557
-0.0010632
0.000264431
0.000215687
-0.000446085
0.000230398
-0.000425176
-0.00123053
-0.00247868
0.00250593
-2.72476e-05
0.00144614
-0.0037098
0.00162667
-0.000371321
0.000367653
-0.000417082
4.94295e-05
-0.000827444
0.000593818
0.000233627
-0.000794444
-0.00284466
0.000820745
0.00202391
-0.0019923
-0.000858449
-0.000724061
0.00158251
-0.00523996
0.00389414
0.00134582
-0.00132909
0.00129697
-0.000576343
-0.000115969
0.000692312
0.00286866
-0.000735272
-0.000770199
-0.000160313
0.000930512
0.00183967
-0.00138145
0.00169821
-0.000393337
-0.000174109
-0.000636292
-0.00420368
0.00483998
-0.00139462
0.00283075
0.00427675
-0.00239898
-7.97011e-05
0.00312285
-0.00473091
0.000732673
0.00158222
-0.0023149
0.00201654
-0.00279707
0.00198084
-0.000705594
-0.00127525
-0.00179619
0.000455643
0.00134055
0.0043151
0.00286282
-0.00551409
0.00133447
0.00417962
-0.00125056
-0.0039894
-0.000459933
-0.00133626
-0.00100442
-0.000561366
-0.00129356
-0.000424373
0.00114114
-0.000531708
0.0015127
-0.000980995
-0.00175732
0.00129739
-0.000944233
-0.000207333
0.00115157
0.00217204
-0.00286728
0.00069525
-1.17659e-05
0.000206103
0.00103563
0.00605814
-0.00140788
-0.00465026
-0.00203445
-0.00187293
0.00134417
0.000528761
0.00127154
-0.000979072
-0.000292464
-0.00229601
-0.0010216
0.00331762
-0.00267359
0.00357908
-0.000905483
-0.000918206
0.00112625
7.86936e-06
-0.00113412
0.00376078
-0.00493451
0.00117372
0.00174771
-0.00135575
-0.000391948
0.00242707
-0.00122487
0.00273487
-0.000635932
-0.000191512
-0.00409048
0.0022959
-0.00180027
-0.000495631
0.000560234
-0.00200933
0.00144909
-0.00251791
-0.000837485
0.000860514
-0.000658827
-0.000201689
-0.000179937
-0.0036417
0.000968109
0.000672576
-0.000456888
0.00259371
0.000985363
0.000318621
0.00130873
0.000672115
-0.00160392
0.00233659
-0.00150849
0.000997581
0.000510904
0.00354439
-0.000678954
-0.00380988
0.00610275
-0.0011456
-0.00249041
0.00683147
-0.00434105
-0.000886718
0.0035681
-0.00414181
0.000932323
-0.00210106
0.00424905
-0.000682239
-0.00162625
-0.00244791
0.00171819
0.000729718
-0.00127844
0.000617497
-0.000612695
-4.80119e-06
-0.00137648
-0.000776625
-0.000153533
0.000930159
-0.00156633
0.00136815
0.000198183
0.00204148
0.000802448
6.25359e-05
-0.00129992
-0.000551518
-0.000833886
-0.00241846
-0.000472812
-0.00140012
-0.000171139
0.0015923
-0.000180659
0.00341112
-0.000514217
0.0013387
0.000199743
-0.000794484
-0.00101853
-0.00193025
0.00247681
-0.000546563
-0.00105013
-0.00572891
0.00351082
0.00150778
-0.000636235
0.00288964
-0.00121259
0.000955611
-0.0013592
-0.00453056
0.00588976
0.000620023
-0.00255028
0.000740093
-0.00368584
0.00270186
0.000983977
0.000894369
-0.00142608
0.0022296
-0.00311784
0.000888235
0.00119441
-0.0034293
0.00223488
0.000860336
0.00168845
-0.00254879
-0.000174422
0.00179293
0.00275102
0.00108191
0.0036153
-0.000413516
0.000783012
0.00315894
-0.00402369
0.000978952
-0.00327496
0.000434262
0.00412492
0.00148096
-1.04066e-05
-0.000276446
0.000286852
-0.00619241
0.00385635
0.00233606
-0.00082505
-0.00261683
0.00344188
0.00263995
-0.00177961
-0.00369601
0.000892561
-0.00132174
-0.000435581
-0.00015273
0.00131948
0.003724
0.00122322
0.000224583
0.00130946
-0.000993634
-0.000315822
0.000914593
0.000593192
-0.000313843
0.0037682
-0.00493239
0.00116419
0.00307543
-0.000845839
-0.00139906
0.00190359
0.00125951
-0.00355342
0.00229391
-0.00116631
0.00145657
0.000678201
-0.00213477
0.000192775
-0.000203182
0.00219907
-0.00086128
-0.00125308
0.000330384
0.000932584
-0.000353181
-0.000579403
0.00353195
-0.00227244
-0.000505333
0.00229257
-0.00178724
0.00102061
-0.00296563
0.00208895
0.000876692
0.000106863
-1.15831e-06
0.00466159
0.000540161
-0.00570013
-0.0051932
0.00392638
0.00126683
-0.00107587
-0.00269528
0.00377115
0.00222131
0.00372513
0.00282769
-0.00375281
0.000925127
-0.00147123
0.0011035
-0.000945734
0.00336943
-0.0024237
0.00149733
0.000562004
-0.00378507
-0.00240734
0.00106865
-0.00230538
0.00320988
-0.000904505
0.00342707
-0.000815639
0.000396131
-0.000803179
0.00254459
0.000882475
-0.000634817
0.00431056
-0.00130941
0.00171676
-0.000407351
0.00198525
-0.00128657
-0.000389319
0.00607686
-0.0049149
-0.000461429
0.000858294
-0.00246221
-0.0053915
-0.00172285
0.000413438
-0.000678163
0.00010182
-0.000868311
0.000213182
-0.0014707
0.000658806
0.00157853
-0.00090542
0.00013522
0.000804768
0.00251627
-0.00332104
-0.00109512
0.0018737
-0.00194703
-0.00047412
0.00196122
-0.00148709
-0.000873859
-0.00209177
-0.00195177
0.00147765
-0.00265778
0.00346254
-0.00164432
0.00057621
0.0010681
-0.000977177
0.00357088
0.00599943
-0.00229993
-0.00130395
-0.000418898
-0.00174077
0.00110228
0.000638494
0.000903523
-0.00451849
0.00361497
-0.00131483
0.000544369
0.000770459
-0.00403431
-0.0011589
0.000191891
-0.00113612
0.00193431
-0.000704088
-0.00134087
-0.00380111
0.00514198
0.00100317
7.24758e-05
0.00329685
-0.00252826
-0.000768582
0.000165774
0.00126587
0.000877149
-0.0006705
-0.000206649
-0.00134816
-0.00101516
-0.00107132
0.00510349
-0.00403216
0.000632017
-0.00249452
0.000168721
0.00124479
0.00377247
-0.00495971
0.00118724
0.00287586
-0.00205512
0.000102092
-0.000168405
6.6313e-05
0.0010279
0.000138076
0.000104258
0.00235696
0.00370118
-0.000584976
-0.000812213
0.00139719
0.000652346
0.0017722
-0.00242455
0.00239851
-0.00171159
-0.000686921
0.000475429
0.00147358
0.000425964
-0.000511811
-0.000803019
0.000599998
-0.00532428
0.000690285
-2.97403e-05
-0.00115991
-0.00130709
-0.00378998
0.00509706
0.00103359
0.00143743
-0.00189555
0.00254675
-0.000395068
-0.00490885
0.00530392
0.000120828
-1.87356e-05
0.000644276
0.00129003
0.00272926
0.000941108
-0.00367036
0.00137555
0.000471386
0.00258739
-0.00364162
0.00454514
0.00277417
0.0008433
-0.00361747
0.00166324
-0.000843252
-0.000819989
0.00132897
-0.00101977
-0.000309203
0.000423199
0.00105846
-0.00470009
0.000218322
-6.67315e-06
0.000199448
0.00602602
-0.00129164
0.00152655
-0.00212885
0.00252363
-0.00182898
-0.000694655
0.000854397
-0.00254472
0.00169033
0.00523503
-0.00281699
-0.00092469
-0.00159351
0.00500999
0.00148596
-0.0017814
0.000295434
0.000499848
-0.000103739
-0.000396108
-0.000991972
-0.00314085
0.00413282
0.00074256
0.00181963
-0.00256219
0.0017675
-0.000281536
0.00224979
0.00140956