0.0005 	0.0999 	0.005 	0.303631 	0.146838 	0
0.0015 	0.0999 	0.005 	0.403928 	0.12748 	0
0.0025 	0.0999 	0.005 	0.567504 	0.0749952 	0
0.0035 	0.0999 	0.005 	0.685393 	0.042507 	0
0.0045 	0.0999 	0.005 	0.755377 	0.0248728 	0
0.0055 	0.0999 	0.005 	0.800125 	0.0152809 	0
0.0065 	0.0999 	0.005 	0.831171 	0.00997589 	0
0.0075 	0.0999 	0.005 	0.853764 	0.00693675 	0
0.0085 	0.0999 	0.005 	0.870878 	0.00509869 	0
0.0095 	0.0999 	0.005 	0.884307 	0.00391753 	0
0.0105 	0.0999 	0.005 	0.895142 	0.00311434 	0
0.0115 	0.0999 	0.005 	0.904079 	0.00254126 	0
0.0125 	0.0999 	0.005 	0.911579 	0.00211615 	0
0.0135 	0.0999 	0.005 	0.917964 	0.00179087 	0
0.0145 	0.0999 	0.005 	0.923466 	0.00153575 	0
0.0155 	0.0999 	0.005 	0.928256 	0.00133158 	0
0.0165 	0.0999 	0.005 	0.932461 	0.00116543 	0
0.0175 	0.0999 	0.005 	0.936182 	0.00102829 	0
0.0185 	0.0999 	0.005 	0.939496 	0.000913674 	0
0.0195 	0.0999 	0.005 	0.942466 	0.000816856 	0
0.0205 	0.0999 	0.005 	0.945141 	0.000734284 	0
0.0215 	0.0999 	0.005 	0.947561 	0.000663258 	0
0.0225 	0.0999 	0.005 	0.94976 	0.000601693 	0
0.0235 	0.0999 	0.005 	0.951765 	0.000547958 	0
0.0245 	0.0999 	0.005 	0.953601 	0.000500762 	0
0.0255 	0.0999 	0.005 	0.955286 	0.000459071 	0
0.0265 	0.0999 	0.005 	0.956836 	0.00042205 	0
0.0275 	0.0999 	0.005 	0.958267 	0.000389018 	0
0.0285 	0.0999 	0.005 	0.959591 	0.000359416 	0
0.0295 	0.0999 	0.005 	0.960818 	0.00033278 	0
0.0305 	0.0999 	0.005 	0.961958 	0.000308724 	0
0.0315 	0.0999 	0.005 	0.963018 	0.000286923 	0
0.0325 	0.0999 	0.005 	0.964006 	0.000267102 	0
0.0335 	0.0999 	0.005 	0.964928 	0.000249029 	0
0.0345 	0.0999 	0.005 	0.965789 	0.000232505 	0
0.0355 	0.0999 	0.005 	0.966596 	0.000217358 	0
0.0365 	0.0999 	0.005 	0.967351 	0.000203441 	0
0.0375 	0.0999 	0.005 	0.96806 	0.000190626 	0
0.0385 	0.0999 	0.005 	0.968725 	0.000178802 	0
0.0395 	0.0999 	0.005 	0.96935 	0.000167871 	0
0.0405 	0.0999 	0.005 	0.969938 	0.000157749 	0
0.0415 	0.0999 	0.005 	0.970491 	0.00014836 	0
0.0425 	0.0999 	0.005 	0.971013 	0.000139637 	0
0.0435 	0.0999 	0.005 	0.971504 	0.000131523 	0
0.0445 	0.0999 	0.005 	0.971968 	0.000123963 	0
0.0455 	0.0999 	0.005 	0.972405 	0.000116912 	0
0.0465 	0.0999 	0.005 	0.972819 	0.000110328 	0
0.0475 	0.0999 	0.005 	0.973209 	0.000104173 	0
0.0485 	0.0999 	0.005 	0.973579 	9.84126e-05 	0
0.0495 	0.0999 	0.005 	0.973928 	9.30175e-05 	0
0.0505 	0.0999 	0.005 	0.974259 	8.79595e-05 	0
0.0515 	0.0999 	0.005 	0.974572 	8.32137e-05 	0
0.0525 	0.0999 	0.005 	0.974868 	7.87573e-05 	0
0.0535 	0.0999 	0.005 	0.97515 	7.45695e-05 	0
0.0545 	0.0999 	0.005 	0.975416 	7.06315e-05 	0
0.0555 	0.0999 	0.005 	0.975669 	6.6926e-05 	0
0.0565 	0.0999 	0.005 	0.975908 	6.3437e-05 	0
0.0575 	0.0999 	0.005 	0.976136 	6.01501e-05 	0
0.0585 	0.0999 	0.005 	0.976352 	5.70517e-05 	0
0.0595 	0.0999 	0.005 	0.976557 	5.41296e-05 	0
0.0605 	0.0999 	0.005 	0.976751 	5.13723e-05 	0
0.0615 	0.0999 	0.005 	0.976936 	4.87692e-05 	0
0.0625 	0.0999 	0.005 	0.977112 	4.63106e-05 	0
0.0635 	0.0999 	0.005 	0.977279 	4.39874e-05 	0
0.0645 	0.0999 	0.005 	0.977438 	4.1791e-05 	0
0.0655 	0.0999 	0.005 	0.977589 	3.97138e-05 	0
0.0665 	0.0999 	0.005 	0.977733 	3.77482e-05 	0
0.0675 	0.0999 	0.005 	0.977869 	3.58875e-05 	0
0.0685 	0.0999 	0.005 	0.977999 	3.41252e-05 	0
0.0695 	0.0999 	0.005 	0.978123 	3.24553e-05 	0
0.0705 	0.0999 	0.005 	0.978241 	3.08722e-05 	0
0.0715 	0.0999 	0.005 	0.978353 	2.93705e-05 	0
0.0725 	0.0999 	0.005 	0.97846 	2.79453e-05 	0
0.0735 	0.0999 	0.005 	0.978561 	2.65919e-05 	0
0.0745 	0.0999 	0.005 	0.978658 	2.53057e-05 	0
0.0755 	0.0999 	0.005 	0.97875 	2.40827e-05 	0
0.0765 	0.0999 	0.005 	0.978838 	2.29188e-05 	0
0.0775 	0.0999 	0.005 	0.978922 	2.18103e-05 	0
0.0785 	0.0999 	0.005 	0.979001 	2.07536e-05 	0
0.0795 	0.0999 	0.005 	0.979077 	1.97452e-05 	0
0.0805 	0.0999 	0.005 	0.979149 	1.87819e-05 	0
0.0815 	0.0999 	0.005 	0.979218 	1.78606e-05 	0
0.0825 	0.0999 	0.005 	0.979283 	1.69784e-05 	0
0.0835 	0.0999 	0.005 	0.979345 	1.61323e-05 	0
0.0845 	0.0999 	0.005 	0.979404 	1.53198e-05 	0
0.0855 	0.0999 	0.005 	0.97946 	1.4538e-05 	0
0.0865 	0.0999 	0.005 	0.979513 	1.37846e-05 	0
0.0875 	0.0999 	0.005 	0.979564 	1.30571e-05 	0
0.0885 	0.0999 	0.005 	0.979611 	1.23532e-05 	0
0.0895 	0.0999 	0.005 	0.979656 	1.16705e-05 	0
0.0905 	0.0999 	0.005 	0.979699 	1.10068e-05 	0
0.0915 	0.0999 	0.005 	0.979739 	1.036e-05 	0
0.0925 	0.0999 	0.005 	0.979777 	9.72804e-06 	0
0.0935 	0.0999 	0.005 	0.979813 	9.10881e-06 	0
0.0945 	0.0999 	0.005 	0.979846 	8.50031e-06 	0
0.0955 	0.0999 	0.005 	0.979877 	7.90058e-06 	0
0.0965 	0.0999 	0.005 	0.979906 	7.30769e-06 	0
0.0975 	0.0999 	0.005 	0.979932 	6.71973e-06 	0
0.0985 	0.0999 	0.005 	0.979957 	6.13481e-06 	0
0.0995 	0.0999 	0.005 	0.979979 	5.55106e-06 	0
0.1005 	0.0999 	0.005 	0.979999 	4.96664e-06 	0
0.1015 	0.0999 	0.005 	0.980017 	4.3797e-06 	0
0.1025 	0.0999 	0.005 	0.980033 	3.78839e-06 	0
0.1035 	0.0999 	0.005 	0.980046 	3.19089e-06 	0
0.1045 	0.0999 	0.005 	0.980058 	2.58535e-06 	0
0.1055 	0.0999 	0.005 	0.980067 	1.96991e-06 	0
0.1065 	0.0999 	0.005 	0.980074 	1.34271e-06 	0
0.1075 	0.0999 	0.005 	0.980078 	7.0187e-07 	0
0.1085 	0.0999 	0.005 	0.98008 	4.54767e-08 	0
0.1095 	0.0999 	0.005 	0.98008 	-6.28397e-07 	0
0.1105 	0.0999 	0.005 	0.980077 	-1.32173e-06 	0
0.1115 	0.0999 	0.005 	0.980072 	-2.03651e-06 	0
0.1125 	0.0999 	0.005 	0.980064 	-2.77481e-06 	0
0.1135 	0.0999 	0.005 	0.980053 	-3.53871e-06 	0
0.1145 	0.0999 	0.005 	0.98004 	-4.33037e-06 	0
0.1155 	0.0999 	0.005 	0.980023 	-5.15201e-06 	0
0.1165 	0.0999 	0.005 	0.980004 	-6.00591e-06 	0
0.1175 	0.0999 	0.005 	0.979981 	-6.89444e-06 	0
0.1185 	0.0999 	0.005 	0.979955 	-7.82004e-06 	0
0.1195 	0.0999 	0.005 	0.979926 	-8.78526e-06 	0
0.1205 	0.0999 	0.005 	0.979893 	-9.79274e-06 	0
0.1215 	0.0999 	0.005 	0.979857 	-1.08452e-05 	0
0.1225 	0.0999 	0.005 	0.979817 	-1.19456e-05 	0
0.1235 	0.0999 	0.005 	0.979772 	-1.30969e-05 	0
0.1245 	0.0999 	0.005 	0.979724 	-1.43023e-05 	0
0.1255 	0.0999 	0.005 	0.979671 	-1.5565e-05 	0
0.1265 	0.0999 	0.005 	0.979613 	-1.68887e-05 	0
0.1275 	0.0999 	0.005 	0.97955 	-1.8277e-05 	0
0.1285 	0.0999 	0.005 	0.979483 	-1.97338e-05 	0
0.1295 	0.0999 	0.005 	0.97941 	-2.12632e-05 	0
0.1305 	0.0999 	0.005 	0.979331 	-2.28698e-05 	0
0.1315 	0.0999 	0.005 	0.979247 	-2.45581e-05 	0
0.1325 	0.0999 	0.005 	0.979156 	-2.63331e-05 	0
0.1335 	0.0999 	0.005 	0.979059 	-2.82002e-05 	0
0.1345 	0.0999 	0.005 	0.978956 	-3.01651e-05 	0
0.1355 	0.0999 	0.005 	0.978845 	-3.2234e-05 	0
0.1365 	0.0999 	0.005 	0.978726 	-3.44133e-05 	0
0.1375 	0.0999 	0.005 	0.978599 	-3.67103e-05 	0
0.1385 	0.0999 	0.005 	0.978465 	-3.91324e-05 	0
0.1395 	0.0999 	0.005 	0.978321 	-4.1688e-05 	0
0.1405 	0.0999 	0.005 	0.978168 	-4.43859e-05 	0
0.1415 	0.0999 	0.005 	0.978005 	-4.72359e-05 	0
0.1425 	0.0999 	0.005 	0.977832 	-5.02484e-05 	0
0.1435 	0.0999 	0.005 	0.977647 	-5.34349e-05 	0
0.1445 	0.0999 	0.005 	0.977451 	-5.68079e-05 	0
0.1455 	0.0999 	0.005 	0.977243 	-6.03808e-05 	0
0.1465 	0.0999 	0.005 	0.977022 	-6.41688e-05 	0
0.1475 	0.0999 	0.005 	0.976787 	-6.81881e-05 	0
0.1485 	0.0999 	0.005 	0.976537 	-7.24566e-05 	0
0.1495 	0.0999 	0.005 	0.976272 	-7.69941e-05 	0
0.1505 	0.0999 	0.005 	0.97599 	-8.18225e-05 	0
0.1515 	0.0999 	0.005 	0.975691 	-8.69659e-05 	0
0.1525 	0.0999 	0.005 	0.975373 	-9.2451e-05 	0
0.1535 	0.0999 	0.005 	0.975035 	-9.83076e-05 	0
0.1545 	0.0999 	0.005 	0.974675 	-0.000104569 	0
0.1555 	0.0999 	0.005 	0.974293 	-0.000111271 	0
0.1565 	0.0999 	0.005 	0.973886 	-0.000118456 	0
0.1575 	0.0999 	0.005 	0.973453 	-0.00012617 	0
0.1585 	0.0999 	0.005 	0.972993 	-0.000134464 	0
0.1595 	0.0999 	0.005 	0.972501 	-0.000143399 	0
0.1605 	0.0999 	0.005 	0.971978 	-0.000153039 	0
0.1615 	0.0999 	0.005 	0.971419 	-0.000163461 	0
0.1625 	0.0999 	0.005 	0.970823 	-0.000174749 	0
0.1635 	0.0999 	0.005 	0.970185 	-0.000187003 	0
0.1645 	0.0999 	0.005 	0.969503 	-0.000200333 	0
0.1655 	0.0999 	0.005 	0.968772 	-0.00021487 	0
0.1665 	0.0999 	0.005 	0.967989 	-0.000230762 	0
0.1675 	0.0999 	0.005 	0.967148 	-0.000248182 	0
0.1685 	0.0999 	0.005 	0.966244 	-0.000267333 	0
0.1695 	0.0999 	0.005 	0.96527 	-0.000288449 	0
0.1705 	0.0999 	0.005 	0.96422 	-0.000311808 	0
0.1715 	0.0999 	0.005 	0.963085 	-0.000337741 	0
0.1725 	0.0999 	0.005 	0.961856 	-0.000366637 	0
0.1735 	0.0999 	0.005 	0.960523 	-0.000398966 	0
0.1745 	0.0999 	0.005 	0.959074 	-0.000435295 	0
0.1755 	0.0999 	0.005 	0.957493 	-0.000476309 	0
0.1765 	0.0999 	0.005 	0.955764 	-0.000522853 	0
0.1775 	0.0999 	0.005 	0.953868 	-0.000575968 	0
0.1785 	0.0999 	0.005 	0.951782 	-0.000636952 	0
0.1795 	0.0999 	0.005 	0.949477 	-0.000707445 	0
0.1805 	0.0999 	0.005 	0.946919 	-0.000789536 	0
0.1815 	0.0999 	0.005 	0.944069 	-0.000885928 	0
0.1825 	0.0999 	0.005 	0.940876 	-0.00100016 	0
0.1835 	0.0999 	0.005 	0.937279 	-0.00113697 	0
0.1845 	0.0999 	0.005 	0.933198 	-0.00130275 	0
0.1855 	0.0999 	0.005 	0.928534 	-0.00150645 	0
0.1865 	0.0999 	0.005 	0.923159 	-0.00176079 	0
0.1875 	0.0999 	0.005 	0.916901 	-0.00208457 	0
0.1885 	0.0999 	0.005 	0.90953 	-0.00250666 	0
0.1895 	0.0999 	0.005 	0.900726 	-0.00307355 	0
0.1905 	0.0999 	0.005 	0.890028 	-0.00386423 	0
0.1915 	0.0999 	0.005 	0.876749 	-0.00502062 	0
0.1925 	0.0999 	0.005 	0.859807 	-0.00681144 	0
0.1935 	0.0999 	0.005 	0.837421 	-0.00976585 	0
0.1945 	0.0999 	0.005 	0.806612 	-0.0149361 	0
0.1955 	0.0999 	0.005 	0.762095 	-0.0243642 	0
0.1965 	0.0999 	0.005 	0.692257 	-0.0419142 	0
0.1975 	0.0999 	0.005 	0.57387 	-0.0746065 	0
0.1985 	0.0999 	0.005 	0.408164 	-0.127757 	0
0.1995 	0.0999 	0.005 	0.305492 	-0.147534 	0
