/*--------------------------------*- C++ -*----------------------------------*\
  =========                 |
  \\      /  F ield         | OpenFOAM: The Open Source CFD Toolbox
   \\    /   O peration     | Website:  https://openfoam.org
    \\  /    A nd           | Version:  7
     \\/     M anipulation  |
\*---------------------------------------------------------------------------*/
FoamFile
{
    version     2.0;
    format      ascii;
    class       volVectorField;
    location    "82";
    object      U;
}
// * * * * * * * * * * * * * * * * * * * * * * * * * * * * * * * * * * * * * //

dimensions      [0 1 -1 0 0 0 0];

internalField   nonuniform List<vector> 
26800
(
(-0.078746 -0.00924324 4.78986e-20)
(-0.140839 -0.0573531 7.47683e-20)
(-0.193881 -0.124152 7.91564e-21)
(-0.217345 -0.201669 1.95571e-20)
(-0.217586 -0.255418 -1.05453e-19)
(-0.212349 -0.246921 2.69255e-20)
(-0.183277 -0.152545 6.37736e-20)
(-0.126364 0.0199307 5.93236e-20)
(-0.0555887 0.214724 4.06744e-20)
(-0.0110913 0.381758 1.04705e-21)
(-0.00555572 0.495069 4.66039e-21)
(-0.0108522 0.51921 -2.3368e-21)
(0.057006 0.377499 -5.70918e-22)
(0.19345 0.122836 1.61528e-20)
(0.308401 -0.140706 4.1063e-21)
(0.420376 -0.342348 -2.5769e-20)
(0.434107 -0.435955 -2.38146e-20)
(0.393281 -0.517565 2.40843e-21)
(0.298165 -0.506744 1.00023e-21)
(0.336748 -0.29447 2.75186e-21)
(-0.0803893 -0.000179894 -1.34211e-19)
(-0.143926 -0.0508539 -2.33334e-19)
(-0.198575 -0.118736 1.07334e-19)
(-0.223416 -0.199763 -1.28605e-19)
(-0.225473 -0.255676 1.09755e-19)
(-0.223399 -0.250478 -2.96877e-21)
(-0.201158 -0.161608 -1.23397e-19)
(-0.154748 0.00478963 -1.05882e-19)
(-0.0918105 0.19923 -6.31167e-20)
(-0.0490504 0.372961 1.29962e-20)
(-0.0330561 0.490982 -1.90614e-20)
(-0.00907703 0.504988 -3.97597e-21)
(0.0946705 0.344119 -5.6213e-21)
(0.249857 0.0839362 8.10424e-20)
(0.368493 -0.174128 6.31861e-21)
(0.482399 -0.363502 5.09893e-20)
(0.485303 -0.430731 -1.34201e-20)
(0.468885 -0.487155 -3.071e-20)
(0.349647 -0.490219 5.19099e-21)
(0.343448 -0.316165 -6.0413e-21)
(-0.082266 0.00904845 -1.64439e-19)
(-0.146314 -0.0441103 7.67133e-20)
(-0.201406 -0.112967 6.95982e-20)
(-0.22611 -0.1974 -5.98946e-20)
(-0.228392 -0.255427 1.82665e-19)
(-0.227719 -0.253362 -1.3577e-19)
(-0.210048 -0.16974 1.45119e-19)
(-0.17194 -0.00978714 1.27307e-19)
(-0.115033 0.183158 1.13967e-20)
(-0.0712335 0.361166 -2.7364e-21)
(-0.0406816 0.480425 2.49646e-20)
(0.0138557 0.482961 4.24613e-20)
(0.14734 0.307133 -5.42286e-20)
(0.320127 0.0458137 -2.20428e-19)
(0.442507 -0.203726 3.0946e-20)
(0.556302 -0.378589 -6.0251e-20)
(0.536589 -0.42589 4.64785e-20)
(0.544332 -0.455991 2.52047e-20)
(0.417697 -0.458877 -3.1925e-20)
(0.365619 -0.324622 -4.65425e-21)
(-0.0843606 0.0183714 3.52163e-19)
(-0.147945 -0.037194 -1.16043e-19)
(-0.202236 -0.106903 -2.84568e-19)
(-0.225165 -0.194608 1.64589e-19)
(-0.226033 -0.254655 -9.66742e-20)
(-0.225063 -0.255556 2.85032e-19)
(-0.209658 -0.176894 1.05153e-19)
(-0.177151 -0.0235483 4.47816e-20)
(-0.123821 0.166578 -8.20049e-20)
(-0.0761319 0.346406 1.35071e-20)
(-0.0281193 0.464251 6.23078e-20)
(0.0553474 0.455349 1.08475e-20)
(0.214045 0.26829 1.77234e-19)
(0.402385 0.00917464 2.75102e-19)
(0.526675 -0.229311 1.99667e-20)
(0.637719 -0.385754 3.86062e-20)
(0.590987 -0.418847 8.23315e-21)
(0.614636 -0.427438 1.68413e-20)
(0.493755 -0.416893 1.739e-20)
(0.405664 -0.315782 1.11391e-20)
(-0.086658 0.0277164 2.07749e-21)
(-0.14876 -0.0301803 5.81228e-19)
(-0.200918 -0.100606 2.54883e-19)
(-0.220291 -0.1914 -3.46092e-19)
(-0.218041 -0.253316 3.76466e-20)
(-0.215199 -0.257016 -2.31664e-19)
(-0.19991 -0.183058 -3.04121e-19)
(-0.170081 -0.0363125 -2.61434e-19)
(-0.117536 0.149658 8.90274e-21)
(-0.0634272 0.329015 -2.4129e-20)
(0.00381924 0.443463 -2.88408e-19)
(0.112562 0.424165 4.02592e-20)
(0.294534 0.229279 -6.98687e-20)
(0.494731 -0.0245776 -3.18608e-19)
(0.618047 -0.250048 2.2242e-20)
(0.719366 -0.385207 6.47629e-20)
(0.650746 -0.407173 -5.39478e-20)
(0.678871 -0.402273 1.68075e-20)
(0.567498 -0.370801 8.69972e-21)
(0.464818 -0.288825 -8.96222e-21)
(-0.0891418 0.0370087 -4.93836e-19)
(-0.148709 -0.0231484 -9.56414e-19)
(-0.197307 -0.0941443 -6.9932e-19)
(-0.211163 -0.187785 8.93626e-19)
(-0.203991 -0.251318 2.66343e-19)
(-0.197831 -0.25763 -2.41126e-20)
(-0.180918 -0.188219 2.74456e-19)
(-0.150956 -0.0481278 9.60429e-20)
(-0.0963701 0.1326 1.40574e-19)
(-0.0338871 0.309472 -1.39635e-19)
(0.0531537 0.419328 8.82845e-20)
(0.183095 0.390879 -3.77038e-20)
(0.387894 0.191563 7.67668e-20)
(0.5946 -0.0542395 3.83883e-19)
(0.714428 -0.264043 1.26959e-19)
(0.795372 -0.378079 3.63405e-21)
(0.715356 -0.389873 6.73538e-20)
(0.738485 -0.378716 -1.27321e-21)
(0.631203 -0.32692 7.784e-21)
(0.537833 -0.248131 -4.56583e-21)
(-0.0917955 0.0461728 4.54494e-19)
(-0.147747 -0.0161816 1.06864e-18)
(-0.191254 -0.0875951 6.94569e-19)
(-0.197434 -0.183763 -3.93727e-19)
(-0.183395 -0.248528 -3.65614e-19)
(-0.172535 -0.257179 2.74726e-19)
(-0.152823 -0.192287 -1.20873e-19)
(-0.120459 -0.0590298 3.03694e-20)
(-0.0613062 0.115601 5.81323e-20)
(0.0109538 0.288269 2.02344e-19)
(0.116747 0.393152 1.41739e-19)
(0.264946 0.356499 -2.98197e-19)
(0.491721 0.156172 7.99309e-20)
(0.698276 -0.0790588 -2.12311e-19)
(0.811448 -0.26975 -1.31084e-19)
(0.863423 -0.365325 -9.23004e-20)
(0.781384 -0.367672 8.13946e-20)
(0.794232 -0.353784 -1.16613e-19)
(0.682131 -0.28873 1.42056e-21)
(0.614206 -0.2025 5.73816e-21)
(-0.0946024 0.0551326 7.99581e-19)
(-0.145834 -0.00936891 2.40617e-19)
(-0.182612 -0.0810456 -7.32904e-19)
(-0.178745 -0.17934 -2.80835e-19)
(-0.15573 -0.244782 4.6733e-19)
(-0.138734 -0.255317 -4.38286e-19)
(-0.115581 -0.194994 1.26243e-19)
(-0.0794996 -0.0690065 8.93095e-20)
(-0.013964 0.0988863 -2.17013e-19)
(0.0689468 0.265977 -6.66603e-20)
(0.190593 0.365735 -2.66734e-20)
(0.356205 0.321688 1.92821e-19)
(0.602177 0.124102 -2.99948e-19)
(0.801873 -0.0982578 1.28383e-19)
(0.90258 -0.267102 -2.15628e-19)
(0.923701 -0.347496 2.74503e-20)
(0.844292 -0.342176 -1.60495e-19)
(0.84395 -0.325718 6.58617e-20)
(0.723341 -0.255529 -1.2891e-20)
(0.682571 -0.161097 -2.0549e-22)
(-0.0975456 0.0638129 -4.52774e-19)
(-0.142942 -0.00280487 -1.28954e-18)
(-0.171245 -0.0745961 8.59229e-19)
(-0.154755 -0.174527 6.33492e-19)
(-0.120515 -0.239912 -5.30727e-19)
(-0.0957775 -0.251606 2.16554e-19)
(-0.0687927 -0.195822 -3.3189e-19)
(-0.028811 -0.0778057 -1.58441e-19)
(0.0436812 0.0826801 1.04166e-19)
(0.137225 0.243292 -6.52572e-20)
(0.27054 0.337372 1.25344e-19)
(0.454978 0.286905 1.39741e-19)
(0.714593 0.0959918 -3.35898e-19)
(0.901392 -0.110868 -2.72861e-19)
(0.982301 -0.257157 1.29653e-19)
(0.97657 -0.325209 1.89772e-19)
(0.90039 -0.314482 2.22615e-20)
(0.883831 -0.295545 -1.55637e-20)
(0.761853 -0.224421 -3.79065e-22)
(0.736229 -0.129906 6.53283e-21)
(-0.100609 0.0721404 -5.76702e-19)
(-0.139047 0.00341105 1.4257e-18)
(-0.157024 -0.0683592 -7.53055e-19)
(-0.125171 -0.169348 1.86451e-19)
(-0.0774166 -0.233792 -6.78542e-19)
(-0.0431398 -0.245613 1.41215e-19)
(-0.0117668 -0.193984 2.30522e-19)
(0.0314172 -0.0845115 -3.77995e-21)
(0.109775 0.067184 -1.26335e-20)
(0.212162 0.220808 1.45118e-19)
(0.353481 0.308103 -5.95175e-20)
(0.559366 0.252681 -3.19227e-19)
(0.824318 0.0721312 6.00429e-19)
(0.992084 -0.116445 2.63255e-20)
(1.04792 -0.241351 3.71695e-19)
(1.02139 -0.299496 -1.16037e-19)
(0.947178 -0.285025 1.15437e-19)
(0.912761 -0.265779 1.52763e-20)
(0.802334 -0.193688 -2.76003e-21)
(0.777877 -0.108995 5.25529e-21)
(-0.103776 0.0800443 2.75936e-19)
(-0.134136 0.00917467 -2.0331e-18)
(-0.139829 -0.062457 1.56523e-18)
(-0.0897808 -0.16384 -1.31473e-18)
(-0.0263667 -0.226383 8.12009e-19)
(0.0192811 -0.23704 -8.35871e-20)
(0.0561095 -0.188554 -9.85421e-21)
(0.101732 -0.0878288 -4.37107e-20)
(0.183062 0.0532086 -2.02506e-20)
(0.290304 0.198909 -9.29564e-20)
(0.438888 0.278036 2.04734e-19)
(0.66747 0.219903 3.69452e-19)
(0.927049 0.0530674 1.09578e-19)
(1.06925 -0.115416 2.59697e-19)
(1.09879 -0.221246 -9.4372e-20)
(1.05711 -0.271509 4.6055e-20)
(0.983067 -0.254854 -6.65134e-23)
(0.934791 -0.23747 7.18826e-21)
(0.842572 -0.165162 7.84903e-21)
(0.816136 -0.0931341 2.06634e-20)
(-0.107032 0.0874577 -5.82931e-19)
(-0.128199 0.0143781 -1.08313e-19)
(-0.119544 -0.0570128 -1.28518e-18)
(-0.048481 -0.158046 8.9567e-19)
(0.0323549 -0.217743 -1.29537e-20)
(0.0908779 -0.225781 -5.27279e-19)
(0.134664 -0.178969 -1.53931e-19)
(0.182909 -0.0864576 1.02744e-19)
(0.263544 0.042626 2.29593e-20)
(0.370687 0.178236 4.74607e-20)
(0.529599 0.248042 -7.43717e-20)
(0.776859 0.189738 -1.55099e-19)
(1.01839 0.0392773 -2.5691e-19)
(1.12979 -0.108779 -3.44332e-19)
(1.13528 -0.198494 -2.48745e-19)
(1.08318 -0.242301 -1.71811e-19)
(1.00855 -0.225755 -5.74501e-20)
(0.95482 -0.210059 1.41248e-20)
(0.877386 -0.141791 -2.74e-21)
(0.854179 -0.0784821 1.04366e-20)
(-0.110363 0.0943184 5.72024e-19)
(-0.121227 0.018911 4.60899e-19)
(-0.0960373 -0.05214 1.65374e-18)
(-0.00129218 -0.152002 5.74035e-19)
(0.0980574 -0.207892 -2.95886e-19)
(0.170254 -0.212129 6.59505e-19)
(0.222396 -0.165421 1.82579e-19)
(0.274483 -0.0795176 -1.08119e-19)
(0.352034 0.0374402 4.30209e-20)
(0.456482 0.160282 3.41518e-21)
(0.629413 0.220156 -1.38486e-19)
(0.883159 0.16371 1.13626e-19)
(1.09384 0.0308313 1.88832e-19)
(1.17261 -0.0979137 2.47891e-19)
(1.15846 -0.174667 2.02137e-19)
(1.10009 -0.213118 1.22805e-19)
(1.02649 -0.198779 6.60548e-20)
(0.973506 -0.183836 -5.71888e-20)
(0.905582 -0.123286 6.51955e-21)
(0.887738 -0.0656953 3.90689e-20)
(-0.113754 0.10057 -7.92605e-20)
(-0.113204 0.0226626 1.28056e-18)
(-0.0691436 -0.0479244 -1.12845e-18)
(0.0516345 -0.145692 -1.75255e-18)
(0.169665 -0.19689 -2.47546e-19)
(0.255289 -0.196674 -6.41008e-19)
(0.316368 -0.1488 -2.32327e-19)
(0.373641 -0.0673829 3.56593e-20)
(0.448305 0.0385134 -4.70168e-21)
(0.552072 0.146972 -1.11544e-19)
(0.737441 0.196748 6.99535e-20)
(0.979114 0.143178 -8.7445e-20)
(1.14985 0.0271017 -4.56374e-19)
(1.19839 -0.0845032 -2.69436e-19)
(1.17029 -0.151099 -1.38326e-19)
(1.10949 -0.185261 -1.34722e-19)
(1.03975 -0.174013 1.39712e-19)
(0.989098 -0.159878 4.93333e-20)
(0.929245 -0.107551 -1.10845e-20)
(0.914529 -0.0560718 -2.71453e-20)
(-0.117192 0.10616 4.07687e-19)
(-0.104098 0.0255224 -4.03557e-19)
(-0.0386334 -0.0444017 -3.9496e-19)
(0.10998 -0.139056 7.53876e-19)
(0.245841 -0.184891 3.80928e-19)
(0.343427 -0.180017 4.22219e-20)
(0.412695 -0.130389 -2.77964e-20)
(0.475403 -0.051843 8.64547e-20)
(0.549307 0.0446785 5.19822e-20)
(0.656483 0.139088 -9.28578e-20)
(0.844524 0.178782 -1.64925e-20)
(1.0565 0.128 1.98068e-19)
(1.18526 0.0266931 6.66542e-20)
(1.20956 -0.070252 1.80236e-19)
(1.17341 -0.128837 -3.21458e-20)
(1.11362 -0.159587 -1.50902e-19)
(1.04952 -0.151438 -7.40213e-20)
(1.00148 -0.138627 2.41776e-20)
(0.949732 -0.0935624 -4.12607e-21)
(0.936273 -0.049102 7.55454e-21)
(-0.120664 0.111042 -8.44951e-20)
(-0.0938411 0.0273867 6.85248e-19)
(-0.00420265 -0.0415166 6.60323e-19)
(0.173248 -0.132028 -4.19095e-19)
(0.325022 -0.172016 -1.33038e-19)
(0.432022 -0.16271 -8.82429e-20)
(0.507389 -0.111472 2.03113e-19)
(0.574151 -0.035292 5.87537e-20)
(0.649233 0.0532457 -3.45664e-20)
(0.760595 0.135036 -6.87091e-20)
(0.937303 0.164842 -6.52955e-20)
(1.11029 0.116521 1.47713e-19)
(1.20218 0.0279257 3.39315e-20)
(1.20982 -0.0565087 6.99553e-20)
(1.17068 -0.108548 1.84008e-19)
(1.1144 -0.136455 3.37357e-19)
(1.05644 -0.13111 7.42626e-20)
(1.01169 -0.11988 -7.93817e-20)
(0.967206 -0.0811811 2.3239e-20)
(0.954621 -0.0436757 -8.09644e-21)
(-0.124157 0.115176 -1.09644e-18)
(-0.0823239 0.0281824 -1.20423e-19)
(0.0345263 -0.0391285 3.48112e-19)
(0.24072 -0.124529 5.99013e-19)
(0.405498 -0.158374 4.93697e-19)
(0.518613 -0.145206 7.42805e-19)
(0.597077 -0.0930505 -4.20336e-19)
(0.665341 -0.0197132 -3.01017e-19)
(0.741463 0.0614404 3.66901e-20)
(0.852347 0.131749 2.58592e-19)
(1.00678 0.152458 5.27541e-20)
(1.14142 0.1069 -4.80525e-19)
(1.2053 0.0295283 -9.91767e-20)
(1.2032 -0.0440525 -2.44697e-19)
(1.16457 -0.0904881 1.37879e-21)
(1.11315 -0.115924 -4.86931e-19)
(1.06131 -0.112944 5.38896e-20)
(1.02029 -0.103354 5.03486e-20)
(0.981798 -0.0703075 -1.33276e-20)
(0.970269 -0.0390362 7.699e-21)
(-0.127655 0.118522 8.17639e-19)
(-0.0693754 0.0278892 -1.3136e-19)
(0.077978 -0.037036 -1.93995e-18)
(0.311433 -0.116469 4.75912e-19)
(0.485518 -0.144093 7.73323e-19)
(0.601096 -0.127863 -4.93102e-19)
(0.679365 -0.0757662 6.89374e-19)
(0.746239 -0.00618806 -3.49048e-20)
(0.820912 0.0675159 -2.03432e-20)
(0.924397 0.126991 -2.98344e-19)
(1.05253 0.140184 4.6699e-20)
(1.15538 0.0981689 1.42317e-19)
(1.19996 0.0309197 2.45814e-19)
(1.193 -0.033149 3.58222e-20)
(1.15683 -0.0746324 -7.19423e-20)
(1.11078 -0.0978582 3.10944e-19)
(1.06469 -0.0967759 4.84837e-20)
(1.02747 -0.0887948 -1.95462e-20)
(0.993972 -0.0607766 1.49652e-22)
(0.983593 -0.034801 -8.31878e-21)
(-0.131138 0.12104 1.00002e-19)
(-0.0546715 0.0264041 -7.21949e-19)
(0.126407 -0.0348024 2.25795e-18)
(0.384199 -0.107781 -3.15005e-19)
(0.563407 -0.129337 -1.68312e-18)
(0.677848 -0.110962 7.00759e-19)
(0.752888 -0.0599462 -5.58505e-19)
(0.815709 0.00498485 8.6594e-20)
(0.88546 0.0709696 -3.66099e-20)
(0.976581 0.120381 1.62908e-19)
(1.07996 0.128027 -3.36691e-19)
(1.15862 0.0901738 1.2438e-19)
(1.19036 0.0319829 -1.01356e-19)
(1.18141 -0.0237627 2.56241e-19)
(1.14858 -0.0608097 2.59554e-19)
(1.10785 -0.0820252 9.38495e-20)
(1.06694 -0.082435 -1.27207e-19)
(1.03347 -0.0759472 6.60793e-20)
(1.00419 -0.0524112 3.65568e-20)
(0.99481 -0.0308067 -2.79082e-21)
(-0.134592 0.122678 -5.30339e-19)
(-0.0376957 0.0237006 9.13085e-19)
(0.179909 -0.0319591 -1.01374e-20)
(0.457645 -0.0984427 -1.29497e-19)
(0.637691 -0.114298 -6.94875e-19)
(0.747779 -0.0947139 -7.63481e-19)
(0.817151 -0.0456862 -6.16263e-20)
(0.873793 0.0139541 2.40451e-19)
(0.935841 0.0721666 -6.76407e-20)
(1.0129 0.112699 -1.36113e-19)
(1.09535 0.11656 1.76661e-19)
(1.15603 0.0830124 -2.77134e-19)
(1.17913 0.0327688 -1.72951e-19)
(1.16968 -0.0157332 1.23076e-19)
(1.14042 -0.048793 -1.93667e-19)
(1.10465 -0.0681727 -2.74876e-19)
(1.06836 -0.069735 9.27927e-20)
(1.03847 -0.0645866 -9.92392e-20)
(1.01275 -0.0450372 -4.87954e-20)
(1.00415 -0.026985 -4.77713e-21)
(-0.137993 0.123372 3.63541e-21)
(-0.0178513 0.0200273 -1.08219e-18)
(0.238267 -0.0282129 -3.15064e-19)
(0.530346 -0.0884794 3.94812e-19)
(0.707206 -0.0991758 1.73267e-18)
(0.810317 -0.0792664 -7.32105e-19)
(0.872298 -0.0329355 6.29766e-19)
(0.921365 0.0210646 -2.88744e-19)
(0.974345 0.0718132 1.59665e-20)
(1.03789 0.104852 2.41411e-19)
(1.10339 0.106212 1.76245e-19)
(1.15059 0.0767371 -1.18471e-19)
(1.16769 0.0333602 -2.01398e-20)
(1.15849 -0.0088652 -1.62277e-19)
(1.13269 -0.0383489 1.11233e-19)
(1.10135 -0.0560549 -1.6367e-20)
(1.06917 -0.0584906 -6.61602e-20)
(1.04261 -0.0545195 3.49051e-20)
(1.01989 -0.0384981 3.94093e-20)
(1.01186 -0.0233195 -2.22186e-20)
(-0.141307 0.123034 -4.34813e-19)
(0.00563014 0.015786 3.44514e-19)
(0.300789 -0.023385 -3.39236e-18)
(0.600946 -0.0779554 8.4278e-19)
(0.771131 -0.0841602 -1.30101e-18)
(0.86534 -0.0647074 9.16506e-19)
(0.918905 -0.0215652 2.75433e-19)
(0.959769 0.0267149 -2.6083e-19)
(1.00352 0.0705761 7.1016e-20)
(1.05505 0.0974304 -2.42408e-19)
(1.10699 0.0971393 3.06494e-19)
(1.14396 0.0713318 -6.1082e-20)
(1.15678 0.0338347 3.07696e-19)
(1.14814 -0.00296821 -2.09168e-19)
(1.12553 -0.0292598 3.1134e-20)
(1.09806 -0.0454459 9.05789e-20)
(1.06954 -0.0485241 -6.98369e-20)
(1.046 -0.0455859 8.10301e-20)
(1.02579 -0.0326589 5.96431e-21)
(1.01819 -0.0197984 3.99571e-20)
(-0.144477 0.121534 1.93928e-18)
(0.0336296 0.0115749 1.04102e-18)
(0.366325 -0.0174717 2.40105e-18)
(0.668274 -0.0669729 -2.23979e-19)
(0.829005 -0.0694146 -3.28866e-19)
(0.913067 -0.0510755 -1.13664e-18)
(0.957801 -0.0114129 -4.51925e-19)
(0.990474 0.0312742 5.60105e-21)
(1.02556 0.0689425 -1.49897e-20)
(1.06682 0.0907256 9.94327e-20)
(1.10797 0.0893361 -1.8431e-19)
(1.13706 0.0667442 -1.27708e-19)
(1.14671 0.0342566 -3.2132e-19)
(1.13874 0.00212741 -5.11684e-20)
(1.11896 -0.0213313 -8.21154e-20)
(1.09483 -0.0361418 1.04486e-19)
(1.0696 -0.0396724 -9.81802e-20)
(1.0487 -0.0376535 -9.3979e-20)
(1.03064 -0.0273994 -6.25342e-20)
(1.02336 -0.0164215 -5.02792e-21)
(-0.147411 0.118693 -1.87833e-18)
(0.067002 0.00818836 -2.29241e-19)
(0.433415 -0.0106339 -2.01388e-18)
(0.731422 -0.0556617 -2.25198e-18)
(0.880673 -0.0550689 -8.52882e-19)
(0.953952 -0.0383713 1.68198e-18)
(0.989921 -0.00231081 -3.73268e-19)
(1.01486 0.0350449 5.98121e-19)
(1.04219 0.0672298 1.10095e-19)
(1.07486 0.0848502 1.63577e-20)
(1.10743 0.082724 1.96552e-20)
(1.13037 0.0629065 2.22765e-19)
(1.13761 0.0346741 2.43665e-19)
(1.13031 0.00656497 -4.49041e-20)
(1.11297 -0.0143936 7.40544e-20)
(1.09172 -0.0279611 -3.12715e-20)
(1.06941 -0.0317923 1.5146e-19)
(1.05077 -0.0306106 5.26825e-20)
(1.03459 -0.0226075 -7.06891e-21)
(1.02758 -0.0132012 -1.38531e-20)
(-0.150009 0.114347 9.08522e-19)
(0.106451 0.0064388 -4.69954e-19)
(0.500501 -0.00311283 3.69021e-19)
(0.789784 -0.0441661 2.16752e-18)
(0.926226 -0.0412193 1.7116e-19)
(0.988587 -0.0265686 -7.8642e-19)
(1.01621 0.00589842 -2.43817e-19)
(1.03412 0.03826 -3.08501e-19)
(1.05474 0.065634 -2.12545e-19)
(1.08032 0.0798202 9.54607e-20)
(1.10603 0.0771943 6.44669e-21)
(1.12412 0.0597454 -1.51182e-19)
(1.12948 0.0351213 -1.88941e-19)
(1.12277 0.0104626 1.09003e-19)
(1.10753 -0.00829859 -6.44171e-20)
(1.08875 -0.0207454 1.66466e-19)
(1.06902 -0.0247619 -1.28233e-20)
(1.0523 -0.0243516 9.92896e-22)
(1.03779 -0.01819 9.33199e-20)
(1.03103 -0.0101605 -7.63497e-21)
(-0.152156 0.108329 8.51978e-19)
(0.152252 0.00702901 3.05372e-19)
(0.566141 0.0048757 1.81142e-18)
(0.843028 -0.0326284 -1.48068e-18)
(0.965934 -0.0279307 -3.74207e-20)
(1.01762 -0.0156242 -2.99251e-19)
(1.03754 0.0133547 3.54718e-19)
(1.04928 0.0410944 3.86306e-19)
(1.06421 0.0642695 -9.15755e-20)
(1.08398 0.0756014 -2.77303e-19)
(1.1042 0.07263 -8.98711e-20)
(1.11841 0.0571879 2.03872e-19)
(1.12225 0.0356202 -1.08808e-19)
(1.11605 0.0139169 -3.21693e-19)
(1.10258 -0.00291873 -3.47003e-20)
(1.08593 -0.0143589 4.0951e-20)
(1.06845 -0.0184756 -5.83252e-20)
(1.05336 -0.0187726 -2.41336e-20)
(1.04038 -0.0140867 3.14897e-20)
(1.03377 -0.00732362 8.0888e-21)
(-0.153635 0.100452 -2.45263e-18)
(0.204086 0.0103922 -2.19495e-18)
(0.62914 0.013195 1.12005e-18)
(0.89107 -0.0211742 1.46238e-18)
(1.00018 -0.0152407 -1.61937e-19)
(1.04173 -0.00548364 4.47955e-19)
(1.05472 0.0201792 5.58321e-19)
(1.06117 0.0436763 -1.1441e-19)
(1.07136 0.0631969 3.72505e-19)
(1.08638 0.0721347 3.69281e-19)
(1.10216 0.0689167 2.20241e-19)
(1.11323 0.0551644 4.21009e-20)
(1.11582 0.0361837 4.50888e-20)
(1.11005 0.0170076 3.66196e-19)
(1.09808 0.00185418 -1.13648e-19)
(1.08327 -0.0086851 -1.98342e-19)
(1.06772 -0.0128372 9.66703e-20)
(1.05404 -0.0137863 1.00785e-19)
(1.04245 -0.0102431 -4.47765e-20)
(1.0359 -0.00466765 -4.08187e-20)
(-0.154166 0.0906348 8.32006e-19)
(0.261032 0.0164904 1.85962e-18)
(0.688594 0.0217826 9.78798e-19)
(0.933997 -0.00990796 -2.34138e-18)
(1.02943 -0.00316474 2.4421e-19)
(1.06156 0.00391276 8.75579e-20)
(1.06845 0.026475 -4.26534e-19)
(1.07045 0.0460985 -5.44883e-19)
(1.07675 0.0624416 -2.62179e-20)
(1.0879 0.0693505 -2.39092e-19)
(1.10007 0.0659476 -3.10386e-19)
(1.10857 0.0536107 3.86153e-19)
(1.11012 0.036818 2.30638e-20)
(1.1047 0.0197996 -3.49229e-19)
(1.09397 0.00611049 1.85168e-20)
(1.08075 -0.00362123 8.52327e-20)
(1.06685 -0.00776597 -2.03492e-19)
(1.05444 -0.0093196 -6.43294e-20)
(1.04406 -0.0065947 2.92505e-20)
(1.03747 -0.00217851 7.11306e-20)
(-0.15338 0.0789776 9.52597e-19)
(0.321691 0.0248 -6.41359e-19)
(0.743886 0.0306076 -2.23033e-18)
(0.972017 0.0010848 -7.40678e-19)
(1.05415 0.00829799 1.88491e-19)
(1.07769 0.0126268 -2.1256e-19)
(1.07933 0.032329 5.34122e-19)
(1.07767 0.0484269 4.0909e-20)
(1.0808 0.0620067 -1.71975e-19)
(1.08878 0.0671773 2.89465e-19)
(1.09799 0.0636262 4.53947e-20)
(1.10437 0.0524684 -2.53026e-19)
(1.10503 0.0375248 2.60688e-19)
(1.09989 0.0223459 3.51569e-19)
(1.09021 0.00992649 1.79592e-19)
(1.07837 0.000923686 -1.13745e-19)
(1.06587 -0.00320221 9.67885e-20)
(1.05461 -0.00529302 -3.04801e-20)
(1.04522 -0.00307318 2.61e-20)
(1.03855 5.65048e-05 -4.36952e-21)
(-0.150805 0.0658191 -1.20105e-18)
(0.384427 0.0344499 2.21616e-18)
(0.794658 0.0396304 4.31135e-19)
(1.00541 0.0117352 1.1644e-18)
(1.07485 0.0191604 6.60014e-19)
(1.09068 0.0207197 -5.26946e-19)
(1.08788 0.0378137 -5.82482e-19)
(1.08326 0.0507069 1.57606e-19)
(1.08381 0.0618814 1.3905e-19)
(1.0892 0.0655453 -8.1742e-20)
(1.09597 0.0618662 1.29951e-19)
(1.10057 0.0516852 1.60572e-19)
(1.10049 0.0383033 -2.03736e-19)
(1.09556 0.0246889 -1.56247e-20)
(1.08676 0.0133684 -2.15776e-20)
(1.0761 0.00502516 -7.8972e-20)
(1.0648 0.000900568 -3.20891e-20)
(1.0546 -0.00160483 -6.88998e-20)
(1.04596 0.00032951 4.68211e-20)
(1.03936 0.00192898 -4.95072e-20)
(-0.145851 0.0517823 1.23925e-18)
(0.447669 0.0444608 -2.33153e-18)
(0.840783 0.0487915 -3.3265e-19)
(1.03451 0.0219897 -1.10871e-18)
(1.09198 0.0294444 -6.84918e-19)
(1.10101 0.0282507 -3.78313e-19)
(1.09451 0.0429893 -5.63474e-20)
(1.08755 0.0529693 2.71936e-19)
(1.08601 0.0620468 -1.36848e-19)
(1.08928 0.0643894 -2.38393e-19)
(1.09401 0.0605919 1.78547e-19)
(1.09713 0.0512143 -1.5765e-19)
(1.0964 0.0391501 4.07181e-20)
(1.09164 0.026863 6.2312e-20)
(1.08359 0.0164936 -1.29695e-20)
(1.07393 0.00874163 8.69545e-20)
(1.06368 0.00459379 1.69811e-20)
(1.05443 0.00184694 5.23992e-20)
(1.04634 0.00349406 -3.7119e-20)
(1.04005 0.00310262 5.99962e-20)
(-0.137826 0.0377808 -1.01804e-18)
(0.510132 0.0539953 6.7585e-19)
(0.882337 0.0580249 2.08383e-18)
(1.05966 0.0318112 6.13794e-19)
(1.10599 0.0391788 -1.01808e-19)
(1.10911 0.035276 1.10013e-18)
(1.09957 0.0479057 1.64234e-19)
(1.09079 0.0552338 -1.01121e-19)
(1.08758 0.0624797 1.92872e-19)
(1.0891 0.0636499 -1.87711e-20)
(1.09212 0.0597368 -6.57716e-20)
(1.09399 0.0510149 2.53611e-19)
(1.0927 0.040061 -2.11248e-19)
(1.08807 0.0288964 -3.40248e-19)
(1.08065 0.0193512 -1.38823e-19)
(1.07186 0.0121195 1.01093e-19)
(1.06253 0.00794316 1.72461e-20)
(1.0541 0.00509886 3.48371e-20)
(1.04648 0.00613163 -3.01038e-20)
(1.04089 0.00501964 -6.08952e-20)
(-0.125971 0.0249825 -8.32419e-19)
(0.570925 0.0625292 -1.83537e-18)
(0.919539 0.0672795 -3.64908e-18)
(1.08123 0.0411784 2.16714e-18)
(1.1173 0.0483966 1.1621e-18)
(1.11534 0.0418476 -1.0593e-18)
(1.10336 0.0526033 4.82867e-19)
(1.09319 0.0575118 9.30345e-20)
(1.08864 0.0631547 -3.00027e-19)
(1.0887 0.0632726 2.48356e-19)
(1.09029 0.0592429 1.03656e-19)
(1.0911 0.0510502 -3.75983e-19)
(1.08932 0.04103 2.43795e-19)
(1.0848 0.0308117 3.42397e-19)
(1.07792 0.0219802 -3.87668e-20)
(1.06987 0.0152005 6.55952e-20)
(1.06135 0.011007 9.21536e-20)
(1.05363 0.00807535 1.47335e-20)
(1.04657 0.00860967 -1.21059e-20)
(1.04127 0.00703564 6.15402e-20)
(-0.109512 0.0147308 1.63244e-19)
(0.629503 0.0698994 -1.31144e-18)
(0.952713 0.0765355 -1.82205e-18)
(1.09955 0.0500854 -2.42488e-18)
(1.12627 0.0571339 -1.10283e-18)
(1.12001 0.0480137 4.66947e-19)
(1.10611 0.0571154 -6.17059e-19)
(1.09491 0.0598091 1.26659e-19)
(1.08928 0.0640462 -1.89603e-20)
(1.08814 0.0632091 -4.34964e-19)
(1.0885 0.0590598 -1.84902e-19)
(1.08843 0.0512882 -3.60975e-20)
(1.08623 0.0420514 -3.05676e-20)
(1.08179 0.032628 -9.01928e-20)
(1.07536 0.0244142 1.55143e-19)
(1.06796 0.0180239 -1.64675e-19)
(1.06014 0.01381 -1.01695e-19)
(1.05306 0.0108541 -9.59216e-20)
(1.04646 0.0108812 3.87826e-20)
(1.04152 0.00883705 9.68156e-21)
(-0.0877439 0.00842738 1.48593e-18)
(0.685554 0.0762447 1.37724e-18)
(0.982218 0.0858031 1.05093e-18)
(1.11495 0.0585392 1.35581e-18)
(1.13323 0.0654282 1.58381e-20)
(1.12339 0.053818 2.80076e-19)
(1.108 0.0614687 2.75794e-19)
(1.09606 0.0621273 -4.05844e-19)
(1.08956 0.0651291 6.19738e-20)
(1.08742 0.0634164 6.69935e-20)
(1.08676 0.0591436 6.98096e-20)
(1.08593 0.0517008 1.88136e-19)
(1.08336 0.0431189 8.63751e-20)
(1.079 0.0343606 6.11835e-20)
(1.07296 0.0266807 -1.9954e-19)
(1.06612 0.0206185 5.04676e-21)
(1.05892 0.0163987 3.44498e-20)
(1.05238 0.0134248 1.65843e-20)
(1.04623 0.0129514 -2.132e-20)
(1.04162 0.0108418 -3.18359e-22)
(-0.0601324 0.00737843 -8.71989e-19)
(0.738861 0.0818914 4.59771e-19)
(1.00841 0.0951109 -2.9692e-19)
(1.12776 0.0665555 6.14619e-20)
(1.13846 0.0733165 -1.42668e-19)
(1.1257 0.0592999 -1.32662e-19)
(1.10918 0.0656846 -4.24059e-19)
(1.09675 0.0644651 -1.04906e-19)
(1.08955 0.0663795 -6.52917e-20)
(1.08658 0.0638561 1.55091e-19)
(1.08504 0.0594562 -4.48586e-21)
(1.08357 0.0522629 1.33606e-19)
(1.0807 0.0442264 -1.37227e-19)
(1.07639 0.036022 1.66222e-19)
(1.07068 0.0288017 -5.16344e-20)
(1.06433 0.0230153 1.95042e-19)
(1.05768 0.0187943 -1.39991e-19)
(1.05163 0.0158065 6.3814e-22)
(1.04589 0.0149495 -9.71921e-20)
(1.04153 0.0125534 -7.6968e-21)
(-0.026426 0.012609 1.91885e-18)
(0.789207 0.087233 2.18369e-19)
(1.03162 0.104492 1.73845e-18)
(1.13824 0.0741556 -5.57538e-20)
(1.14223 0.0808339 7.6452e-19)
(1.12713 0.0644947 -7.08033e-19)
(1.10978 0.0697803 4.19515e-19)
(1.09704 0.0668194 -2.23186e-19)
(1.08928 0.0677752 1.51999e-19)
(1.08562 0.0644944 2.59279e-19)
(1.08334 0.0599641 -3.27521e-20)
(1.08133 0.0529525 -1.56008e-19)
(1.07819 0.0453678 -2.07815e-19)
(1.07394 0.0376221 3.86061e-20)
(1.06852 0.0307964 -4.14751e-20)
(1.06259 0.025237 -9.05768e-20)
(1.05643 0.0210216 -3.72304e-20)
(1.05081 0.0180393 5.50835e-20)
(1.04543 0.0167552 1.86174e-20)
(1.04135 0.0143804 9.13934e-21)
(0.0132368 0.024658 2.59099e-19)
(0.836335 0.0926327 6.73324e-19)
(1.0521 0.113971 -2.01325e-18)
(1.14666 0.081363 1.35323e-19)
(1.14473 0.0880132 -1.17382e-18)
(1.12783 0.0694332 1.52875e-19)
(1.10988 0.0737691 4.90919e-19)
(1.097 0.0691858 2.47452e-20)
(1.08878 0.0692953 3.24032e-19)
(1.08455 0.0653015 -7.61237e-20)
(1.08164 0.0606385 -7.20545e-20)
(1.07918 0.0537501 1.15662e-19)
(1.07581 0.0465374 -5.26933e-20)
(1.07162 0.0391688 6.1364e-20)
(1.06645 0.0326799 3.29967e-20)
(1.0609 0.0273052 -7.28544e-20)
(1.05517 0.0231053 1.04325e-19)
(1.04992 0.0201061 -1.00819e-19)
(1.04489 0.018512 5.39402e-20)
(1.04101 0.0160091 -4.2522e-20)
(0.0582523 0.0433874 -1.71567e-18)
(0.879948 0.098357 -4.03349e-19)
(1.0701 0.123552 2.77609e-19)
(1.15325 0.0882009 -6.42441e-19)
(1.14618 0.0948837 1.0513e-18)
(1.12793 0.0741425 8.83137e-19)
(1.10957 0.0776612 -2.70446e-19)
(1.09666 0.0715592 2.82668e-19)
(1.08808 0.0709208 -4.18876e-19)
(1.08339 0.066251 2.85532e-20)
(1.07994 0.0614537 1.79642e-19)
(1.0771 0.0546385 6.0235e-20)
(1.07355 0.0477297 6.97165e-20)
(1.06941 0.0406683 9.89576e-20)
(1.06446 0.034465 -1.99139e-19)
(1.05924 0.0292388 8.29835e-20)
(1.05389 0.0250553 -5.74365e-20)
(1.04899 0.0220542 1.14927e-19)
(1.04425 0.0201221 -7.21573e-21)
(1.04059 0.0176705 1.41319e-20)
(0.107545 0.0678596 -3.79613e-20)
(0.919753 0.104538 1.15831e-18)
(1.0858 0.133213 -9.50613e-19)
(1.15823 0.0946914 -2.61232e-19)
(1.14671 0.101471 -2.32034e-19)
(1.12752 0.078646 -2.00223e-19)
(1.10891 0.0814645 -6.99924e-19)
(1.09607 0.0739342 -4.59622e-20)
(1.08719 0.0726345 -3.03476e-20)
(1.08212 0.0673196 -3.06701e-19)
(1.07822 0.0623877 -1.68193e-19)
(1.07508 0.0556022 -9.22214e-20)
(1.07137 0.0489394 2.8161e-20)
(1.06729 0.0421253 -1.29509e-19)
(1.06254 0.0361624 1.06784e-19)
(1.05762 0.0310522 3.56826e-20)
(1.0526 0.0268936 8.79812e-21)
(1.048 0.023865 -1.75186e-20)
(1.04355 0.0216817 1.54028e-20)
(1.04005 0.0192076 3.56536e-20)
(0.159656 0.096355 5.34524e-19)
(0.955522 0.111167 -9.50675e-19)
(1.09934 0.142906 3.05469e-20)
(1.16179 0.100855 1.11078e-19)
(1.14647 0.107798 -6.96806e-19)
(1.12669 0.0829636 -1.76566e-19)
(1.10794 0.0851848 1.0337e-19)
(1.09524 0.0763053 7.42479e-20)
(1.08613 0.0744204 1.15835e-19)
(1.08077 0.0684866 -1.06204e-19)
(1.0765 0.0634205 -1.39556e-19)
(1.0731 0.0566276 -1.62235e-19)
(1.06927 0.0501615 1.10583e-19)
(1.06525 0.0435432 -6.56939e-20)
(1.06066 0.0377807 9.79267e-20)
(1.05602 0.0327604 4.38211e-20)
(1.0513 0.0286248 -6.59751e-20)
(1.04698 0.0255738 -6.37881e-21)
(1.04277 0.0231374 1.24215e-20)
(1.03945 0.0207276 8.84919e-21)
(0.212927 0.126578 -1.38625e-19)
(0.987149 0.118111 7.37196e-19)
(1.11088 0.152563 5.83686e-19)
(1.16412 0.10671 -5.98482e-19)
(1.14557 0.113883 1.274e-18)
(1.12552 0.0871125 -1.23252e-19)
(1.1067 0.0888263 6.16764e-19)
(1.09421 0.0786669 -1.00838e-19)
(1.08492 0.0762642 3.87e-20)
(1.07934 0.069734 2.79224e-19)
(1.07474 0.0645351 3.15169e-19)
(1.07116 0.0577026 1.12853e-19)
(1.06722 0.0513913 -1.1496e-19)
(1.06326 0.0449244 8.32076e-20)
(1.05884 0.0393273 2.61456e-20)
(1.05444 0.0343733 -1.78871e-19)
(1.05 0.0302644 -2.67155e-20)
(1.04591 0.0271713 3.062e-20)
(1.04195 0.024541 -4.55408e-20)
(1.03875 0.0221595 -6.81522e-21)
(0.265761 0.156046 1.26274e-18)
(1.0147 0.125168 8.10525e-20)
(1.12054 0.162106 -8.26969e-19)
(1.16538 0.112275 -3.14033e-19)
(1.14411 0.119742 -5.79019e-19)
(1.12404 0.091107 -3.74705e-19)
(1.10522 0.0923918 -1.69827e-19)
(1.09299 0.0810139 3.31531e-20)
(1.08356 0.0781527 5.4455e-20)
(1.07782 0.0710455 -5.94918e-20)
(1.07296 0.0657158 -2.29496e-19)
(1.06923 0.0588163 -5.17205e-20)
(1.06521 0.0526245 -9.86194e-20)
(1.06133 0.0462707 -3.29255e-20)
(1.05705 0.040808 -1.36191e-19)
(1.05288 0.0359016 1.09912e-19)
(1.04867 0.0318159 8.61343e-20)
(1.04482 0.0286793 -7.06379e-21)
(1.04106 0.0258685 -1.02438e-20)
(1.038 0.0235489 4.87976e-20)
(0.316867 0.182569 -2.98003e-18)
(1.0384 0.132125 9.14293e-20)
(1.12847 0.171458 -2.65897e-19)
(1.16572 0.117569 4.11599e-19)
(1.14218 0.125391 -3.70072e-19)
(1.1223 0.0949596 9.76094e-19)
(1.10353 0.0958833 -1.20514e-19)
(1.0916 0.0833412 5.45343e-19)
(1.08206 0.080074 -1.33285e-19)
(1.07622 0.072407 -1.46991e-19)
(1.07115 0.0669492 -6.77809e-20)
(1.06731 0.0599588 9.38658e-20)
(1.06324 0.0538566 6.91252e-20)
(1.05943 0.047583 -4.11393e-22)
(1.05528 0.0422281 5.53605e-20)
(1.05132 0.0373524 -2.9431e-20)
(1.04734 0.0332891 -2.56232e-20)
(1.04369 0.0300962 -5.795e-20)
(1.04014 0.027145 3.17036e-20)
(1.0372 0.0248658 3.3883e-20)
(0.36543 0.204673 1.10477e-19)
(1.05864 0.138812 -7.37727e-19)
(1.13481 0.180554 6.19104e-19)
(1.16528 0.122612 3.03513e-19)
(1.13984 0.130841 1.61772e-19)
(1.12034 0.0986806 -3.76326e-19)
(1.10164 0.0993016 3.49962e-19)
(1.09005 0.085644 -1.32865e-19)