/*--------------------------------*- C++ -*----------------------------------*\
  =========                 |
  \\      /  F ield         | OpenFOAM: The Open Source CFD Toolbox
   \\    /   O peration     | Website:  https://openfoam.org
    \\  /    A nd           | Version:  7
     \\/     M anipulation  |
\*---------------------------------------------------------------------------*/
FoamFile
{
    version     2.0;
    format      ascii;
    class       volScalarField;
    location    "1.125";
    object      p;
}
// * * * * * * * * * * * * * * * * * * * * * * * * * * * * * * * * * * * * * //

dimensions      [0 2 -2 0 0 0 0];

internalField   nonuniform List<scalar> 
12359
(
0.0657856
0.0751845
0.050113
0.10809
0.0694596
0.15439
0.186806
0.16908
0.225364
0.142776
0.207207
0.277852
0.487182
0.115282
0.102907
0.395771
0.442954
0.0543059
0.0539632
0.0881338
0.124209
0.251228
0.0812623
0.0935199
0.0779342
0.0843516
0.0511588
0.0510392
0.0532686
0.0516371
0.0520318
0.0505789
0.0502608
0.0514291
0.0501325
0.0522151
0.0594033
0.0641898
0.0677899
0.0617426
0.0732208
0.0628764
0.0570269
0.0563326
0.0527014
0.0529761
0.052422
0.0518535
0.053623
0.0512796
0.050919
0.0508019
0.0504939
0.0547129
0.050439
0.0502837
0.0557272
0.050252
0.0502337
0.0501835
0.050326
0.0501354
0.0508452
0.517195
0.0551518
0.132544
0.0586323
0.0507124
0.0600627
0.349245
0.532019
0.0711987
0.0501033
0.0608301
0.0985842
0.0501452
0.0504979
0.0501201
0.0578785
0.31798
0.125339
0.0452822
0.0492572
0.0510845
-0.0567272
0.0254239
0.0451275
0.0477057
-0.069433
-0.0508623
0.049915
0.47578
0.0498613
0.0496213
0.0497901
0.00680682
0.049085
0.0497144
0.0585216
0.0550807
0.108532
0.0500062
0.0256569
-0.127502
0.0439542
0.0137859
0.0490114
-0.0555377
0.0286041
0.0140675
0.0491581
0.0453979
0.109905
0.091335
0.0501322
0.045779
0.0930198
0.0442371
-0.0743684
0.0492971
0.0492791
0.175252
0.0475052
0.0059006
0.0440305
0.0456551
0.0382858
0.0509363
0.0501101
0.0438538
0.0464284
-0.00244679
-0.00371101
-0.00258138
0.0490891
0.00709913
0.0462267
0.00715015
0.0500347
0.0388705
0.0494126
0.0672617
0.0154648
0.0490596
0.00880786
0.14726
0.0492676
-0.046339
0.0438415
0.127103
0.0033597
0.0500214
0.0154923
0.0473687
0.0498187
-0.179162
0.108921
-0.00173073
0.0491858
0.0506418
0.046171
0.0506907
0.00427126
0.0124625
0.0492504
0.0457681
0.0473261
0.173954
0.0139529
-0.0711513
0.0501199
0.0501423
0.0128461
0.0779311
0.0440354
0.0425593
0.0533028
0.0530925
0.111216
0.0429542
0.115708
0.0497978
0.0501102
0.0450006
0.0574999
0.20709
0.0445686
0.048953
0.00550629
0.0443472
0.0492664
0.00825291
0.0101618
0.0472958
0.0127454
-0.135222
0.0332618
0.0454628
0.0159041
0.0444143
0.151322
0.00512677
0.056262
0.0136024
0.0122013
0.0497776
0.0111076
0.0569503
0.00223968
0.0433774
0.0495498
-1.23335e-05
0.000143931
-0.531255
0.199981
0.0500416
0.0449695
0.0501341
0.0448166
0.0679089
0.101747
0.0434138
0.00599771
0.470627
0.0436638
0.0495281
0.0686736
0.0278825
0.046015
0.04635
0.0461234
0.0492596
0.00958625
0.0564395
0.0485111
0.055406
0.0492906
0.0148418
0.0486082
0.293453
0.0492276
0.0234298
0.0489265
0.0553911
0.0451763
-0.0465698
0.0502181
0.00209688
0.0446498
0.0107118
0.00166546
0.0636044
0.052705
0.0466075
0.323327
-0.588835
0.0493024
0.0432732
0.402726
-0.0517274
0.0557503
0.0460963
0.0456483
0.0127823
0.0763555
-0.454265
-0.0688005
0.0451099
0.0434854
0.00756716
0.012965
0.0614173
0.0140403
0.04672
0.0432297
0.0492657
0.0433747
-0.116938
0.0438089
0.0489778
0.0499937
0.0121665
0.0411478
0.0586913
0.0244238
0.049356
0.0479758
0.0500135
0.0499941
0.0506036
0.00425068
0.0448663
-0.456103
0.0490433
0.0490249
0.0257197
0.0447516
0.101412
0.0499836
0.0509713
0.0499353
-0.105263
0.0450673
0.0499339
0.0452532
0.0495512
0.0443192
0.0458288
0.0459332
0.0445165
0.0543053
0.204827
0.0439807
0.0520955
0.0642308
0.0228123
-0.0570308
0.0435158
0.0593215
0.372919
0.049989
0.0196963
0.0489873
0.0336068
0.0490512
0.0434316
0.227138
0.0189885
0.206562
0.0582261
0.0485303
0.009826
0.00572325
0.0484419
0.009534
0.00924643
0.0487639
0.050393
0.0503834
0.0504496
0.0504276
0.290768
0.049335
0.105862
0.00098314
0.0563102
0.0135557
0.0190319
0.0263011
0.0344386
0.0182264
0.0349134
0.0581811
0.020666
0.0219928
0.0932437
0.0680572
0.0153573
0.0663416
0.0660945
0.0165214
0.105754
0.0458519
0.0504857
0.0319229
0.0504491
0.0455813
-0.184718
0.505076
0.045785
0.0500723
0.0491043
0.0496921
0.0180479
0.0498232
0.0498078
-0.0756101
0.0130229
-0.0474042
0.0477237
0.0106813
0.0414162
0.0491635
0.0163509
0.0317597
0.111777
0.0319995
0.0460818
0.0489515
0.0123441
0.0102155
0.043158
0.29578
0.0160294
0.00692299
0.0508498
0.0476894
0.050053
0.389175
0.0134043
0.0478537
0.063324
0.065212
0.049431
0.0494017
0.0496345
-0.0561038
0.0997561
0.0605088
0.0186948
0.00433957
0.0500193
0.115445
0.0502281
-2.38109e-05
-0.060607
0.30301
0.0551749
0.0930494
0.0285794
0.0227873
0.0362833
0.0315761
0.0516827
0.0362306
0.0158191
0.0498289
-0.0557106
0.0592289
-0.00693428
0.00898979
0.056169
0.0966083
-0.146039
0.0176846
0.0402072
0.0056927
0.00866448
0.0193625
0.0444292
0.0495842
0.0531178
0.0490572
-0.00302968
0.0465691
0.0842904
0.0865327
0.0371926
-0.0544277
0.105218
0.0547501
0.0482646
0.393979
0.0489475
0.0476753
0.0053825
0.050076
0.0481172
0.0476279
0.23652
0.207882
0.0506726
0.0479063
0.110543
0.0490664
0.0188289
0.0153044
0.0134566
0.0486947
0.0496766
0.0488009
0.0499423
0.0860303
0.0194688
0.0224863
0.0529009
0.0522319
0.00292678
0.0517709
0.0475776
0.0429238
0.120694
0.00483915
0.0500217
0.0485813
0.0120798
0.0310757
0.0494528
0.045928
0.113329
0.0183873
0.00756865
0.0211987
0.0486236
0.0478787
-0.00540272
-0.00436654
0.0499366
0.0375175
0.0503603
0.00569252
0.282564
0.0496162
0.0466487
0.0488528
0.0149073
0.0547018
0.0537962
0.0457902
0.0502468
0.03068
0.0769221
0.0395375
-0.0349427
0.0489722
-0.040221
0.0477674
-0.115846
0.0181944
-0.0024042
0.0502285
0.0526826
0.0222134
0.0450059
0.0508963
0.057381
0.0548801
0.0552037
0.071908
0.0144494
0.0139344
0.0492799
0.0446667
0.0192719
-0.00350013
0.0492796
0.0489951
0.0122924
0.0487936
0.224854
-0.150363
-0.116447
0.0492793
0.0419871
0.00128993
0.0540492
0.0444162
0.450341
0.0490207
0.115092
0.0894626
0.0418376
0.0445067
0.0510322
0.0377165
0.000587997
0.0308925
0.0523827
0.049307
0.050108
0.0545402
0.0532767
0.056017
0.0142665
0.0506572
0.0490051
0.0209082
-0.0848018
0.0519763
-9.16434e-05
0.0491329
0.0529584
0.0952686
0.00151202
0.00176757
0.0969659
0.0465461
0.00165051
0.0494652
0.0501688
0.00402367
0.037639
0.0459878
0.0376346
0.0497416
0.0489826
0.0453737
0.0498662
0.00181739
0.104264
0.0595798
0.119214
0.0159724
0.040165
0.113271
0.0635967
-0.00546368
0.0135228
0.0645557
0.0548791
0.0501882
0.0383275
0.0213189
0.0492753
0.0500867
0.0487627
0.0502195
-0.0156771
0.0379401
0.0342788
0.105666
0.0576766
0.235352
0.005728
0.00172226
0.0451642
-0.00152377
0.0497246
0.0508412
0.0487316
0.10632
0.1148
0.0469816
0.0309905
0.230692
0.0159107
0.00620483
0.0390405
0.0657305
-0.12599
0.0482189
0.0511461
0.0497617
-0.00980509
0.0510305
0.031723
-0.0540744
0.049018
0.07827
0.057851
0.0419293
0.0522088
0.0473397
0.0504922
0.0542269
0.0505411
0.0504265
0.0536422
0.00634043
0.0103859
0.0419108
0.336302
0.00191163
0.414282
0.0172237
0.0247412
0.0539783
0.0185554
0.0573155
0.00880068
0.321781
0.0987682
0.0563901
0.0442639
0.0545827
0.0532507
0.0217845
0.0495815
-0.00808705
0.0505571
0.100177
0.0491852
-0.0139865
0.00807661
0.0114678
0.0566905
0.0394929
0.0086706
0.077912
0.00587774
0.0409797
0.00339707
0.0436281
0.0493147
0.0506793
-0.200876
0.0711916
0.0423442
0.0492366
0.0507462
0.0549043
0.0837152
0.0103293
0.0174746
0.0487642
0.0438713
0.0560148
0.0422542
0.0397917
0.00223466
0.0561352
0.0580494
0.00952194
0.0437336
0.0407262
0.104298
0.0492807
0.0561742
-0.257128
0.0502191
0.00760991
0.0519298
0.041122
0.0897942
0.00996113
0.0515999
0.0192689
0.0496402
0.111916
0.0434877
0.011513
0.0111836
0.113033
0.0495056
0.00129373
-0.00575333
0.0570185
0.0428584
0.0443432
0.0368537
0.237766
0.0540372
0.0500546
0.0554106
0.0498419
-0.124436
0.0423885
0.0107022
0.0318784
0.0177747
0.520824
0.0424755
-0.0542084
0.0109402
-0.0936569
0.0186351
0.0522998
0.0424274
0.0312218
-0.0469122
-0.035829
0.0479204
0.0479179
0.118896
0.0469897
0.209329
0.0203316
0.0708563
0.0446814
0.398814
-0.101375
0.0429734
0.0493202
0.0493815
0.0941896
0.0549975
0.0597882
0.0523399
0.0152884
0.0775279
-0.029841
0.354304
0.0488428
0.0833547
0.0144271
0.120123
0.0442046
0.115008
0.00791803
0.0952229
0.0524586
0.0492376
0.00964402
0.00684395
0.0184585
0.117942
0.0131603
0.0246816
0.05179
0.0487859
0.0388706
0.244473
0.0389153
0.0122236
0.0670613
0.0201681
0.0363585
0.0529965
-0.00493151
0.0329452
0.0437516
-0.0163276
0.0584262
0.0270485
0.195934
0.0493068
0.0325727
0.0504717
0.0570806
0.0458313
0.0512239
0.0492807
0.00241512
0.0431499
0.0781374
0.0127402
0.0954447
0.0311437
0.0316013
0.0104742
-0.185581
0.0502043
0.0566607
0.0252156
-0.0680131
0.00725599
0.0494132
0.508952
0.0492616
0.0438282
-0.162958
0.0549949
0.0497575
0.0498007
0.0658334
0.0899565
0.050231
0.0560663
0.10982
0.0510757
0.0535308
0.0527251
0.0482441
0.0910935
-0.0168191
0.0544785
0.116837
0.0107608
0.00859845
0.00633744
0.015557
0.0527321
0.0436842
-0.0398595
0.00494912
0.0731499
0.0484487
0.0502416
0.118079
-0.00127226
0.0334815
0.0378498
0.0333701
0.0522803
0.0433444
0.0843356
-0.221545
0.365795
0.0829211
0.0503246
0.0433578
0.0800254
0.352851
0.111518
0.0494579
0.000255428
-0.0121557
-0.241184
0.0360158
-0.158913
0.0502156
0.0525829
0.0502629
0.00705443
0.0749912
-0.161299
0.0435355
-0.0827683
0.0467459
0.0508714
0.0108253
0.0543189
0.00118375
-0.042026
0.055785
0.0356451
0.0248117
0.0364589
0.0556302
0.0754396
0.0728419
0.0311045
0.0792972
0.0557949
0.0502967
0.0530606
0.0508011
0.105186
0.0229264
-0.00697034
0.00332085
0.0861755
0.024758
0.0231466
0.0428647
-0.00926862
0.0344539
0.0550988
0.0497745
-0.000283664
0.109257
0.0436716
0.0406034
0.0567997
0.0236706
0.103227
0.116448
0.0237243
0.246118
0.0223417
0.0872019
-0.0398249
0.0539752
0.0191113
0.0115265
0.0472992
0.0340479
0.039453
0.0442784
0.0494622
0.0454558
-0.0136766
-0.00119515
0.0446246
-0.141657
0.100602
0.050687
0.0513878
0.00189488
0.0506004
0.0782064
0.0138005
0.00550113
0.0505416
0.0528432
0.0491976
0.050603
0.118903
-0.136731
0.0506747
0.0575315
0.0492869
-0.142683
0.0217158
0.0149206
0.0490601
0.0505761
0.0525428
0.0250011
0.0853101
0.0283322
0.0479384
0.0529319
0.0504846
0.0211497
0.0849017
0.0392297
0.0500808
0.0308856
0.0254353
0.0755069
0.0454164
-0.016467
0.145542
0.0472667
0.033009
0.0526564
0.0436812
-0.177231
0.0555993
0.0507399
0.011479
0.105398
0.0827508
-0.136133
0.0768104
0.0351056
0.0277735
0.0567952
0.0399214
0.03498
0.0559518
0.147132
0.0503676
-0.332987
0.0837208
0.181202
0.0399138
-0.00558876
0.096323
-0.00183805
0.260924
0.00725881
0.0262152
0.0339248
0.0389015
0.0492457
0.0440343
0.0883189
0.00126047
0.0561922
0.0472798
0.00684261
0.0171642
0.0060806
0.0805686
0.000649841
0.00565484
0.0485856
0.0711238
-0.0500857
0.0874967
0.0492451
0.0347846
0.0535765
0.0492538
0.0696206
0.0502079
0.0440813
0.245289
0.0921431
-0.0169162
0.0502485
0.0496297
0.0498554
0.0563269
0.0537103
-0.00191787
0.0538772
0.0495233
-0.0155267
0.0217915
0.00640579
0.06911
0.0504831
0.0417513
0.0920379
0.0343714
0.0502729
-0.0414953
0.0112825
0.111649
0.0501328
-0.231781
0.097785
0.050616
0.00325602
0.038247
-0.0247714
0.0359278
0.00115715
0.0945366
0.049825
0.0518646
0.0220182
0.0402346
0.0548102
-0.00681776
0.0551584
0.0552687
0.0972069
0.0466387
0.0533966
0.0356208
0.0100122
0.0505307
0.0551983
0.0532918
0.0491685
0.0965386
-0.0409439
0.0262774
0.0563929
0.0539828
0.041554
0.0491957
-0.18686
0.0796039
0.0500101
0.0714146
0.0416732
0.0999014
0.153157
0.00147018
0.055205
0.00551516
-0.00153818
0.0490339
0.0408636
-0.000357349
0.0439586
0.0500546
0.0729652
0.0274841
0.0539328
0.0500806
0.0416361
0.0839301
0.0506344
0.0319802
0.0502218
0.0390391
0.0673524
0.132463
0.0496628
-0.19709
0.0806381
0.0158513
-0.11932
0.0927505
0.0319108
-0.0286645
0.0568761
0.142059
0.20856
0.0538253
0.0443853
0.0442978
0.0519517
0.0538404
0.00705886
-0.0766599
-0.145238
0.00892267
0.148714
-0.00660436
0.0103554
-0.0583309
0.0494874
0.0521888
0.048097
0.0249071
0.0493269
0.00841428
0.0365923
-0.0119819
0.0493295
0.052608
0.0472193
-0.150534
0.119693
0.078332
0.0617691
0.121915
0.0445637
0.0506095
-0.0156875
0.0363503
-0.0113965
0.00751135
0.0229145
0.00464544
0.0152813
0.0573342
0.0488429
0.0492597
-0.120788
0.0417578
0.0400345
0.0536938
0.00585965
0.0183459
0.0497028
0.0197375
-0.0127706
-8.48419e-05
0.0947468
0.0535171
0.0497142
0.0048288
0.0564189
0.049458
-0.000294409
0.00767527
0.0533598
0.139002
0.000978548
0.049813
0.0497161
0.0491086
0.107446
-0.139671
0.0414551
0.0104253
0.0526864
0.0531165
0.0112255
0.0499783
0.180417
0.0153299
-0.053273
0.154086
0.0303934
0.0489086
0.0493059
0.0329574
0.0566584
0.0488119
-0.174039
0.00550584
0.0441579
0.220044
0.101473
0.0436038
0.0492801
0.0497468
0.0531653
-0.0738203
0.161251
0.0334321
0.0777895
0.0668953
0.0061301
-0.075618
0.0252798
0.0547413
0.0533321
0.0167437
0.0410137
0.0488158
0.0520685
0.00393048
0.0537486
0.0327394
0.0555695
0.0819951
-0.0108744
0.0469187
0.0521821
-0.00329603
0.00344881
0.0591051
0.0519216
0.0770445
-0.000678939
0.0390603
0.0174359
0.0745549
0.0170377
-0.0329913
0.0534922
0.158621
0.0489099
0.105426
0.000370975
0.0499382
0.0493967
0.376851
0.050003
0.0563372
0.0263281
0.0549824
0.0550774
0.0580799
0.0498869
0.0498455
0.00029068
-0.0253305
0.0475452
0.335869
0.0372223
0.0518573
0.237743
0.0992745
0.0552994
0.0455514
0.0515352
0.0884624
-0.259376
0.0548097
0.0474757
0.0490318
0.0520516
0.0640921
0.0165142
0.0543406
0.0647847
0.0531228
-0.150254
-0.00575412
0.00824654
0.110566
0.0370352
0.0519518
0.00456112
-0.115436
0.0533274
0.0492488
0.0518855
0.0470855
0.0549043
0.0485351
-0.00345605
0.0451681
0.0435531
0.315688
-0.00106949
-0.00889636
0.00392491
0.0547358
0.000928267
0.0864617
-0.0871725
0.0476842
0.010455
0.0499654
0.237228
0.0493237
0.0494184
0.0283539
0.0490656
0.0257586
0.0595509
0.0550073
0.0475395
-0.0936428
0.0879749
0.0110241
0.05214
0.0358795
-0.0579784
-0.00728436
0.0790066
0.0753851
0.0500328
0.0556599
0.0458
0.0519523
0.0475362
0.052103
0.0901881
0.0745259
0.00717172
-0.103618
0.0251368
-0.00809666
0.0326824
-0.107719
0.0485035
-0.0291345
0.0519738
-0.0102038
-0.00582061
0.025155
0.0495133
0.0293486
0.0106104
0.0319508
-0.0157267
0.234948
-0.101186
0.0519205
-0.00138324
0.0468334
-0.0047824
0.0905
0.00427336
0.0447834
0.0579998
0.010144
0.0527869
0.036593
0.049902
0.0452768
0.049328
0.0557577
0.00652509
0.0015082
0.0494865
0.084578
-0.082555
0.4948
0.0488686
0.0735903
0.0248873
0.193715
0.0314411
-0.176589
-0.0335403
0.0473189
0.024491
0.0679041
0.176146
0.0493039
0.0677791
0.0781106
0.0471869
-0.0860262
-0.00441673
0.0519585
0.0254685
-0.0347068
0.0764613
-0.0890127
0.0379222
0.0793518
0.0544031
0.0488658
0.0558649
0.0446206
-0.0740447
-0.0004698
-0.0628802
0.0505101
-0.0864381
0.029869
0.00400331
0.111048
0.0247883
0.0277848
-0.0547578
0.0377081
0.0365573
0.00514612
0.0703475
0.0256915
0.0088118
0.0699095
-0.0888235
0.085647
0.0344708
0.0881958
0.0505169
0.113912
0.00013621
0.101082
0.0534739
-0.035748
0.0495377
0.0336258
0.00892676
-0.00107004
0.0574334
0.00606176
0.0455759
0.51021
0.0557263
0.00560936
0.0916888
-7.5164e-05
0.00714412
0.0496637
0.0313579
0.0492504
0.467357
0.0497668
0.0494213
0.0491097
-0.0140908
0.0436216
0.044178
-0.0121374
0.0277692
0.0644616
0.0437769
0.0493905
0.107531
0.0476121
0.104164
0.00826089
0.0862243
0.0395973
0.0417673
0.0256949
-0.0126237
0.00938891
0.0433655
0.530912
0.0497456
0.0494513
0.0558697
-0.136577
0.053507
0.0305748
0.0794766
0.0537337
0.0414264
0.00308387
-0.0225602
0.0333355
-0.0461446
0.0546537
0.0451602
0.0143837
0.0190486
-0.00066792
0.0519003
0.0254031
0.0720117
0.195315
0.0369832
0.0494234
0.045132
0.17857
0.0500768
0.0500812
-0.0345736
0.0321167
-0.0389545
0.0414156
0.049333
0.189699
-0.0141714
0.0436747
0.0550214
0.0474818
-0.112289
0.0500829
0.0336544
-0.0270871
0.0500854
0.0493771
0.00925276
0.0488901
0.0500974
0.0132314
0.051299
0.0492845
0.0218365
0.0489742
-0.0122033
0.0493238
0.0588649
0.119224
0.00833009
0.0501001
0.00521136
-0.16831
0.0414889
0.0741264
0.047123
0.0342332
0.0478944
-0.0173397
-0.00563564
0.045579
0.0493855
0.13185
0.029705
0.0154075
0.0113009
0.129614
0.0489072
0.00603737
0.0493733
-0.0197532
-0.00516948
-0.00463621
0.00801788
0.156014
-0.088973
0.00534394
0.0107139
0.0482978
0.0521351
0.00101501
0.136197
0.0987197
0.0331522
-0.0722637
0.0489411
-0.0624917
0.202644
0.0488173
-0.00770124
-0.0225713
0.0807043
0.00845041
0.00707082
0.0728592
0.0493943
-0.0116859
-0.0637169
0.25873
0.0547833
0.00244203
-0.0307453
0.142395
0.0513444
0.049346
0.0066094
-0.0529983
0.0408512
0.0687436
0.0496383
0.0488833
0.0569413
0.0545263
0.0252376
0.0553264
0.0493318
-0.0152107
0.0355992
-0.0261973
0.0155063
0.0496043
0.0493859
0.142774
0.0542992
0.0799244
0.0608708
-0.0466264
0.081055
0.0485518
-0.0219567
0.0588079
0.0492865
0.0274595
0.0385405
0.0411737
0.0946509
0.025385
-0.146212
0.0408263
0.0490865
-0.0271274
0.049068
-0.00539283
0.0309249
-0.0249414
-0.0475118
0.0963826
-0.0310043
0.0496405
-0.00858117
0.0534781
0.0721094
-0.0231769
0.0199696
-0.023106
-0.0630951
0.172512
-0.01144
0.0643181
0.0485182
0.0491858
0.0490436
-0.0311175
0.139443
0.0485675
-0.0139451
-0.019447
0.0146964
0.00230802
0.0275366
0.10965
-0.0292926
0.0543588
0.0121393
0.0251847
0.0499552
0.0499749
0.0513168
0.0546095
0.0113251
0.0495291
0.0520335
0.055939
0.0740439
0.000539015
0.0490924
-0.0185334
0.0493223
0.00420115
0.0147749
0.0516988
0.0419848
0.00152968
-0.0200037
0.0364383
0.0778398
0.0543931
0.0265863
0.03208
0.0494015
0.0535753
0.0538326
0.051761
0.0494529
0.0694975
0.0494403
0.126272
0.0129144
-0.0897784
0.0494528
0.0595087
0.0495597
0.0494797
0.12211
0.058703
0.0487113
0.319134
0.134468
0.03745
0.0647502
0.0389377
0.120829
0.0195511
0.00884332
0.0560132
0.0558352
0.0493857
0.0502925
-0.0116333
0.0489302
0.0513759
0.122908
0.0517647
0.0534836
0.0275784
0.0493317
-0.035333
0.0494829
0.0513251
0.00784129
0.00942968
-0.0710935
0.110109
0.070475
0.0515571
0.0072244
0.0514939
0.0253415
0.00532752
0.0557315
-0.0267327
0.0501536
0.0262512
0.0700643
0.0526141
0.101606
0.0494798
0.0556673
0.049392
0.0292623
0.0488454
0.0537752
0.0241946
0.0454425
0.0705723
0.027125
0.0494199
0.0270114
0.012219
0.0555568
0.00848447
-0.0134304
0.0493736
0.0308021
0.109421
0.00266343
0.0563188
0.0440624
0.0441042
0.0250552
0.0568884
0.15153
0.0543764
0.0495434
0.0495792
-0.0214738
-0.00769581
-0.0220229
0.285095
0.100567
0.0508748
0.0259864
0.0107766
0.0498995
-0.060099
0.0538718
0.103777
-0.000287809
0.0513684
0.144208
-0.00729115
-0.0165747
0.0229466
0.0292969
0.0498206
0.0490282
0.0610447
0.0494096
0.0493484
0.136939
0.0518782
0.0639783
0.0485799
0.0382868
0.0451743
0.371325
0.041116
0.043716
-0.00886978
0.1041
0.094227
0.0341907
0.10932
0.04937
0.0464458
0.00467511
0.0725228
0.124756
0.0510183
-0.000576515
0.0399971
0.0509636
0.0519645
0.0493532
0.0647676
0.041149
0.0498868
0.0302287
0.258158
0.0499796
0.0118023
0.0317777
0.0489899
0.0630936
0.0520766
0.0274491
0.0494274
0.0492907
0.0148164
0.0293276
0.0914505
0.142388
-0.226567
0.0555101
0.0644551
-0.0387802
0.0330268
0.0520199
0.0403187
-0.000806335
0.0494377
0.0531171
0.0493716
0.0300623
0.065102
0.018319
0.0494511
0.0611194
0.0342145
0.0541083
0.118676
0.0452701
0.0492002
0.0494444
0.029489
0.0226137
0.309911
0.0604377
0.0824467
0.00542785
0.00463739
0.0491502
0.100406
0.0494321
0.0493887
0.0499581
-0.0021721
0.0547556
0.0349239
0.00669396
0.0198652
0.00618579
0.0300193
0.0645249
0.114178
0.0468067
0.0115295
0.0918576
0.0327025
0.128465
0.0534885
-0.155621
0.142841
0.134495
0.0488281
-0.11218
0.0056212
0.00763323
0.137559
-0.000371234
0.0587951
0.0561125
0.0384945
0.0350852
0.0325732
0.211517
0.0742595
0.0538848
0.014373
0.0540373
0.0358685
0.0237685
0.0939253
0.0358089
0.0681695
0.0837328
0.00566613
0.0968824
0.0317195
0.0502383
0.0601057
0.0488984
0.0451639
0.0478645
0.0543173
0.0189576
-0.0494008
0.0490258
0.164972
0.0483752
0.0409868
0.00942518
0.030109
0.0333558
0.047574
0.00717821
0.0121266
0.251383
0.0494109
0.00883778
0.0362653
0.0122356
0.049967
0.049651
0.150899
0.0237147
0.0325349
-0.124185
0.02668
0.0392311
0.136555
0.0147216
0.119999
0.0554963
0.0181244
0.0371911
0.0454656
-0.0277478
0.00683727
0.0198426
0.0331528
0.0487387
0.00608346
0.00570178
-0.000924804
0.0395424
0.0368809
0.418471
-0.0379163
0.0483462
-0.0134394
0.0202596
-0.106869
0.0493451
0.0319032
0.0324772
0.0493565
0.00371561
0.0276973
0.0530667
-2.37477e-05
-0.0228954
-0.00147362
0.0557247
0.0236388
0.0499989
0.0445282
-0.0246387
0.0826409
0.028701
0.00683396
0.14583
0.0244291
0.0199258
0.0212331
0.00715508
-0.0277014
0.0476224
0.0216243
0.0159986
0.0922982
0.278484
0.0130875
0.0349696
0.0202308
0.0493473
0.0928986
0.0312845
0.00899055
0.0490753
0.0355989
0.0062716
0.0138261
0.148883
0.0105866
0.029804
0.0295313
0.0544995
0.00327306
0.0266169
0.074091
0.0593076
0.0557991
0.0102655
0.0362528
0.0419099
0.0384348
0.0494339
0.00598119
0.0627271
0.0294617
-0.00386971
-0.0450281
0.0436486
0.0290489
0.0166201
0.023969
0.0494701
0.10003
0.0992692
0.0726061
0.0499415
0.229383
0.00681029
0.0532035
0.0900114
0.048909
0.0576592
0.0328404
0.0264716
0.0540619
-0.104188
0.0507037
0.0594147
0.0428105
-0.0117256
-0.0299827
-0.000446589
0.0627834
0.00919993
0.0499728
0.0294227
0.0750655
0.0507227
0.149246
0.01723
0.0278056
0.00812988
0.0669128
0.0219344
0.0378725
0.0490857
0.0492807
0.047052
0.0634258
0.122962
0.0156719
0.146678
0.083062
0.0899368
0.0513775
0.0697965
0.00708672
0.0493228
-0.0245226
-0.0191297
0.0524741
0.0493963
0.0403276
0.0473453
0.0492565
0.0652196
0.0344403
0.131957
0.016285
0.0354375
0.0893771
-0.0107443
0.00554029
0.0867528
0.013229
0.0240241
0.0707249
0.0489821
0.0629106
0.0280385
0.122477
0.130748
0.220316
0.0492938
0.127484
0.0329223
0.0319945
0.104565
0.107693
0.100385
-0.0244638
0.0210108
0.0671688
0.0213038
0.0396854
0.0462081
0.0912517
0.048655
0.0168103
-0.0295252
0.0596758
-0.0253877
0.0482407
0.0838717
0.0549434
0.0307593
0.102609
0.163452
0.0216126
0.0433339
0.0173307
0.0337549
0.0717412
5.56353e-05
0.0827762
-0.00231059
0.0493043
0.0214624
-0.141567
0.0987788
0.0359671
-0.0421103
0.0102702
0.0419191
0.0482379
0.103859
0.0933358
0.0339701
0.057353
0.0510462
0.0058213
0.0438996
0.0043705
0.0811148
0.0357992
0.142462
0.0493117
0.0455193
0.00526778
0.0377038
0.0383186
0.0662048
0.0566379
0.0298237
0.167381
0.107613
0.049129
0.00564862
0.0442248
0.0490142
0.133556
0.0486485
0.0220514
0.0248927
0.0486378
0.0487728
0.0523916
0.0074592
0.0614252
0.0979495
0.0284285
0.130403
0.0325731
0.0335901
0.0374179
0.0787183
0.049512
0.039549
0.0373709
0.026935
-0.0215617
0.00947163
0.0667637
0.0450719
0.0555333
0.0316687
0.0428118
0.0611931
0.0222149
0.10654
0.0323048
0.0490479
0.00845852
0.0873431
0.00732477
0.0491885
0.1357
-0.0230226
0.0457664
0.0984891
0.00592085
0.0535076
0.096253
0.00356238
0.0894208
0.114403
0.00411638
0.0481303
0.0793034
0.0764909
0.0139952
0.0460413
0.0313482
0.0492728
0.0486278
0.0489305
0.0134832
0.0174829
0.0206992
0.0826893
-0.0636092
0.169048
-0.0625765
0.0279042
0.0425776
-0.0417719
0.0500404
-0.0996293
0.0333526
0.0231714
0.0186111
0.0288889
0.0650003
0.0414532
0.0328119
0.0543171
0.0491647
0.0783303
-0.0378427
0.013944
0.00649916
0.0175024
0.0524447
0.0280003
0.0166002
0.0549707
0.0243192
0.0386189
0.119363
0.0859674
0.0812294
0.0934525
-0.0018368
4.5669e-06
0.00599297
0.0231685
-0.00418731
0.0150037
0.0586953
0.0433055
0.131534
0.0743647
0.00712534
0.0494537
0.0961459
0.127072
0.0741543
0.0798095
0.0570905
0.0170614
0.11469
0.0288498
0.0240683
0.0341645
0.0333174
0.0482095
0.0286043
0.0298895
0.0539194
0.0203526
0.0301863
0.044316
0.104374
0.0438641
0.040665
0.0759302
0.0557037
0.0485515
0.0512023
0.00244939
0.0161988
0.0501099
0.0721112
-0.0520399
0.00658087
0.0561413
0.0197296
-0.0193342
-0.0403728
-0.00585397
0.0332778
0.0345275
0.055484
0.0335942
0.0259077
-0.000294267
-0.00119371
0.00329539
0.000943411
0.0348507
0.0481332
0.0478353
0.129238
0.0625771
0.0348318
0.0385598
-0.000298609
0.0448033
0.0274513
0.149015
0.0873741
0.0115095
0.0544998
0.0166376
0.0488708
0.00865568
0.000676682
0.0277577
0.0489213
0.0592719
0.166233
0.0419838
0.0889528
-0.016941
0.0493287
0.0349633
0.0945164
0.10156
0.0702792
0.0499663
0.0454933
0.0465574
0.049897
0.0489492
0.041329
0.00721532
0.0489464
0.0567671
0.0540838
-0.339237
0.118951
0.0466218
0.0492909
0.0109063
0.0171012
0.0239528
0.0771118
0.0179737
0.0483856
0.0424285
0.00497675
0.0498216
0.0143249
0.0931683
0.0714897
0.0474679
0.0126491
0.0495814
0.0395536
0.0376701
0.0418719
-0.00298893
0.0598037
0.035197
0.0335858
0.111154
0.0818082
0.0488828
0.0494076
0.0363821
0.0322971
0.014075
0.0204199
0.0402312
0.00780969
0.0804606
0.0499163
0.0379135
0.0062603
0.0397438
0.0851856
0.0640386
0.0519078
0.150698
0.0224757
0.125618
0.140452
0.0278651
-0.00249954
0.000136753
0.124959
0.0401084
0.00670684
0.0747014
0.0364478
0.0218954
0.0898632
0.0722873
0.0511547
0.00287313
0.0318252
0.0282469
0.0408895
0.00645018
0.0509721
0.0807163
0.0507843
0.0576009
0.0860551
0.0552568
0.0428315
0.106286
0.00782899
0.0914265
0.0287505
0.0724885
0.00879624
0.061902
0.0121669
0.0505055
0.0305738
0.00984101
0.0678201
0.0276606
0.0504616
0.0423619
0.0151543
0.0460923
0.0352201
0.0566241
0.0367456
0.0226805
-0.00108222
0.0957743
0.104458
0.100802
0.041378
0.041182
0.0354695
0.0192826
0.0290078
0.0496657
0.0546608
0.070459
0.0246546
0.0588255
0.00504139
0.0312406
0.0573877
0.0332995
0.032558
0.0440591
0.0301601
0.0378375
0.134689
0.258786
0.0228855
0.0254142
0.0293974
0.031995
0.0381556
0.0354368
0.0339027
0.0235457
0.0133917
0.047856
0.049276
0.0481232
0.00653778
0.0491333
0.0299399
0.0427704
0.0312439
0.0599658
0.034175
0.123168
-0.00712321
0.0488108
0.0353888
0.0911863
0.0419277
0.0610454
0.089172
0.053902
0.0490339
0.0302361
0.00587037
0.0865419
0.00385264
0.115423
0.0837627
0.00398687
0.0635397
0.0685636
0.0110067
0.043248
0.0485081
0.0505218
0.0366803
0.0487685
0.0325016
-0.0379672
0.0478194
0.0802162
0.0436065
0.0626805
0.0633856
0.161429
0.0552319
0.0423511
0.00543436
0.0137041
0.087151
0.0314405
0.0839316
0.0503823
0.0380807
0.0654641
0.0460688
0.0331225
0.0499361
0.0504165
0.0316067
0.0486938
0.0348654
0.0618154
0.0811258
0.0149909
0.0484397
0.00710546
0.00167767
0.068175
0.0603148
0.0511501
0.0687386
0.132361
0.0492579
0.0408473
0.0470006
0.0608832
0.0390297
0.0357356
0.0395037
0.074126
0.0838152
0.0326931
0.0797969
0.0902639
0.0603841
0.1088
0.0580591
0.0786142
0.0277466
0.0427717
0.0218776
0.0500128
0.0649165
0.0507426
0.0835813
0.00219799
0.0552327
-0.0124542
0.0445554
0.0271059
0.117838
0.00797434
0.0471495
0.0489203
0.00525423
0.107699
0.0275522
0.0298444
0.0162703
0.044947
0.0811653
0.0379805
0.0474138
0.03635
0.00879873
0.0429224
0.0406134
0.392193
0.0394758
0.050776
0.0592772
0.0649824
0.0431653
0.031874
0.0492838
0.102326
0.0428486
0.0492679
0.0136322
0.0371063
0.0291583
0.0413505
0.0635189
0.04248
0.0448785
0.0441883
0.0341559
0.0805071
0.0493057
0.0392596
0.0578997
0.0456279
0.0400411
0.0552844
0.0553287
0.0597777
0.0601569
0.0493628
0.0434956
0.0511032
0.0294081
-0.00161011
-0.000748686
0.145999
0.0747367
-0.00966061
0.0308297
0.0486208
0.051911
0.0586109
0.0741833
0.0496278
0.0279877
0.0761993
0.0570586
0.0263962
-0.00986532
0.0217414
0.0485372
0.0377778
0.0491736
0.0942624
0.232844
0.0396543
0.0574559
0.0431159
0.00674216
0.0489213
0.0726885
0.0280739
0.045539
0.0497875
0.0336194
0.0967769
0.0390402
0.0566848
0.0260993
0.0423496
0.0438301
0.087916
0.0608032
0.0405747
0.0513163
0.0391574
0.0548571
0.0383335
0.0495752
0.0396156
0.0490528
0.0548278
0.0113139
0.0687214
0.0165217
0.0738073
0.0738009
0.0532422
0.0389501
0.0357072
0.0774167
0.0920799
0.0109209
0.0420695
0.0566326
0.0584964
0.0403271
0.0476037
0.0441423
0.0372097
0.0284086
0.0284508
0.0445141
0.0152131
0.0396016
0.0795216
0.0408625
0.0432005
0.0394235
0.0242759
0.0843773
0.0539033
-0.00067446
0.0393863
0.0415891
0.0105069
0.0520951
0.000881756
0.0514965
0.0419547
0.0468609
0.047064
0.0501727
0.0427881
0.00483319
0.0492838
0.0210263
0.071851
0.051641
0.0580632
0.0333842
0.096189
0.0608411
0.0496622
0.0351407
-0.0662823
0.0493874
0.0058839
-0.0817181
0.0658303
0.0855413
0.0529689
0.0414248
0.0301452
0.07178
0.0588259
0.0492479
0.092144
0.0114262
0.081881
0.0493081
0.0487486
0.0435566
0.0444749
0.0451259
0.066352
0.0760912
0.0462351
-0.0013667
0.0461087
0.0533263
0.0419066
0.032674
0.000476123
0.0487286
0.0422717
0.024081
0.0429623
0.046532
0.0516408
0.127627
0.0733557
0.0497338
0.062723
0.0534327
0.0421506
0.0752791
0.0598756
0.0441685
0.0630838
0.03699
0.0627345
0.0849718
0.00258584
0.023954
0.0498285
0.070097
0.0473455
0.0517309
0.0506322
0.0423587
0.00168801
0.000346852
0.0589453
0.0329578
0.0348006
0.028197
0.0482702
0.047844
0.0497329
0.0712404
0.0349283
0.0493474
0.0420933
0.0543389
0.0233579
0.0100589
0.0493445
0.0488317
0.0365462
0.0483178
0.0476235
0.0427661
0.0452749
0.0400304
0.0662178
0.0618217
0.0344954
0.0469631
0.052801
0.0580759
0.042332
0.0492948
0.0431512
0.0311651
0.00137666
0.00560167
0.0356426
0.123267
0.0427283
-0.059512
0.0886147
0.0421874
0.0410684
0.0535285
0.0486366
0.0493451
0.0536396
0.0567306
0.0419332
0.0508946
0.0484717
0.0965093
0.00572695
0.0338796
0.0495005
0.0547935
0.0629737
0.0705089
0.0328292
0.0515521
0.0492333
0.0475511
0.0432134
0.0294037
0.0269859
0.00577587
0.0617741
0.0474166
0.0396675
0.0560714
0.0535234
0.0530241
0.0463401
0.058075
0.049369
0.0157188
-0.0022465
0.0485748
0.0662081
0.0418229
0.0447594
0.0464183
0.0505794
-0.0468802
0.0635113
8.86805e-06
0.0434799
0.00884176
0.0521306
0.0693436
0.127867
0.0551693
0.0495359
0.0308361
0.0222131
0.111343
0.0422829
0.0669387
0.0450978
0.0488709
0.0650897
0.0466323
0.121562
0.000252143
0.0789932
0.0525351
0.047875
0.0493408
0.0475163
-0.0263108
0.0389259
0.0487948
0.0561766
0.0473872
0.0487967
0.0487336
0.0109996
0.0036402
0.0543608
0.048012
0.0821486
0.0555024
0.101656
0.384753
0.0218447