/*--------------------------------*- C++ -*----------------------------------*\
  =========                 |
  \\      /  F ield         | OpenFOAM: The Open Source CFD Toolbox
   \\    /   O peration     | Website:  https://openfoam.org
    \\  /    A nd           | Version:  7
     \\/     M anipulation  |
\*---------------------------------------------------------------------------*/
FoamFile
{
    version     2.0;
    format      ascii;
    class       volVectorField;
    location    "0.199";
    object      U;
}
// * * * * * * * * * * * * * * * * * * * * * * * * * * * * * * * * * * * * * //

dimensions      [0 1 -1 0 0 0 0];

internalField   nonuniform List<vector> 
12359
(
(0.982909 0.000344997 1.78053e-17)
(0.969959 -0.00174062 -1.7614e-17)
(0.999986 9.84202e-06 4.36302e-18)
(0.929075 -0.000754394 1.36893e-17)
(0.977227 -0.00017657 -1.46858e-16)
(0.873567 -0.00341506 -3.07654e-17)
(0.830548 -0.00262229 -2.36439e-16)
(0.849372 -0.00700732 -1.19744e-16)
(0.783629 0.0325915 4.10328e-17)
(0.889032 0.00294852 -4.45398e-18)
(0.800355 0.00403071 1.8432e-16)
(0.707869 -0.00326647 1.97755e-16)
(0.214671 0.0243122 6.44104e-17)
(0.921779 -0.000408652 5.05843e-18)
(0.938675 0.00133159 5.07894e-18)
(0.52525 0.0334381 1.32986e-17)
(0.400496 0.0183161 4.69471e-17)
(0.994612 -4.55606e-06 -2.49198e-17)
(0.995039 -2.64474e-05 -4.65497e-17)
(0.956744 -0.00103544 7.755e-18)
(0.912617 -0.00232561 8.06376e-19)
(0.768007 0.0184121 8.61613e-17)
(0.964071 -0.000470083 -8.4299e-18)
(0.948575 -0.00394131 2.31395e-17)
(0.966299 0.000111202 -1.75027e-18)
(0.960012 0.0021778 1.74478e-18)
(0.998258 2.4089e-05 1.27694e-19)
(0.998327 -7.3908e-05 -4.40084e-19)
(0.995759 1.44412e-05 -4.35058e-18)
(0.997686 -9.1215e-05 -2.1072e-18)
(0.997233 6.18393e-06 3.34874e-18)
(0.998957 -3.95473e-05 -2.23085e-19)
(0.99957 2.66922e-05 1.46297e-18)
(0.997845 -6.35761e-05 3.28677e-19)
(0.999862 1.07632e-06 -6.69997e-17)
(0.996987 0.00015982 -5.33286e-18)
(0.989505 -0.000561848 -3.06897e-18)
(0.983798 0.000935929 -1.65659e-17)
(0.981204 -3.95525e-05 9.66301e-17)
(0.985495 -0.000188762 7.76589e-17)
(0.972388 -5.35351e-05 -2.96246e-17)
(0.985252 0.000616285 -4.23578e-18)
(0.991511 0.000180257 1.37952e-16)
(0.992078 -0.000332506 4.6399e-17)
(0.996502 6.39034e-06 4.02127e-18)
(0.996116 -4.81977e-05 5.57603e-19)
(0.996763 -0.000246741 1.53205e-18)
(0.997401 -3.80497e-06 -2.53634e-18)
(0.995436 -1.6855e-05 -1.85591e-17)
(0.99813 2.17533e-05 -2.29399e-20)
(0.998503 -0.000100341 2.97158e-20)
(0.998801 6.61119e-05 7.4e-19)
(0.999173 -5.46342e-06 -5.58174e-19)
(0.994206 7.3945e-05 5.18625e-17)
(0.999134 3.39385e-05 -9.23e-18)
(0.999524 2.07285e-05 -3.70816e-18)
(0.993185 -0.0002214 7.1736e-17)
(0.999628 4.20651e-05 4.01762e-19)
(0.999637 -5.11939e-06 -8.45117e-17)
(0.999781 4.8984e-06 -4.84908e-17)
(0.999338 -9.54686e-05 -3.96091e-18)
(0.999941 2.14212e-05 8.53603e-17)
(0.998659 -1.61351e-05 5.83919e-19)
(0.18758 0.149251 -2.3906e-16)
(0.993843 6.12899e-05 -2.21959e-17)
(0.900728 0.00215567 -4.19907e-19)
(0.989764 0.000585659 1.27205e-16)
(0.998886 3.63612e-05 7.62908e-19)
(0.988824 -0.000553798 1.0018e-17)
(0.608837 0.00835402 5.62692e-17)
(-0.0953088 -0.154079 1.67438e-16)
(0.97434 -0.000415829 -1.77453e-16)
(0.999984 -1.05336e-05 -1.13756e-19)
(0.987092 -0.000646828 5.22585e-17)
(0.943368 -0.0025061 -5.4531e-17)
(0.999905 -2.1059e-05 5.66633e-17)
(0.999179 4.82624e-06 -1.05634e-18)
(0.999962 -5.12885e-05 2.58385e-17)
(0.990082 0.000106988 -2.08746e-16)
(0.606694 0.00828673 -5.52665e-17)
(0.92671 0.0673258 -6.40813e-17)
(1.0034 0.00253036 2.54581e-17)
(1.00002 -4.19329e-06 6.26444e-19)
(0.998147 0.0120681 1.84531e-17)
(1.10251 0.128901 -8.97846e-18)
(1.01975 0.00211569 3.39204e-19)
(1.00338 0.00217863 -8.14511e-18)
(1.00143 0.000147045 -2.16184e-18)
(1.10913 0.0455361 -2.60967e-18)
(1.0987 0.138614 3.46059e-18)
(0.999954 6.57129e-05 -9.9461e-18)
(0.363705 0.299829 -1.51821e-16)
(0.999985 -1.1871e-05 -9.2501e-18)
(0.998829 0.00564783 1.35345e-17)
(0.99889 0.0104118 -6.05256e-17)
(1.03096 0.000213578 8.83797e-20)
(1.00024 0.00462027 1.20165e-17)
(0.999664 0.0057468 -2.9055e-17)
(0.990071 0.0279712 2.07612e-17)
(0.995128 0.0179416 3.18012e-17)
(0.934919 0.0856732 3.59134e-17)
(0.999997 1.45428e-05 -3.35445e-19)
(1.0192 -0.000649549 -4.20059e-19)
(1.15436 0.0270463 -3.70141e-17)
(1.00424 0.000532053 1.46296e-18)
(1.03255 0.0198292 -4.13582e-18)
(1.00032 -3.35966e-05 -2.02597e-17)
(1.1054 0.129144 5.85811e-18)
(1.01851 -0.00138001 -1.405e-18)
(1.02988 0.0164114 5.11835e-18)
(1.00007 0.00480815 -3.99559e-17)
(1.00293 0.00229209 -2.9256e-17)
(0.945123 0.0471582 -5.89753e-17)
(0.954757 0.0662995 -5.94138e-18)
(0.999244 0.0095036 -3.64407e-17)
(1.00275 0.000112595 9.15739e-19)
(0.955207 0.0679551 -8.32442e-18)
(1.0043 0.00225678 -6.60184e-18)
(1.10509 0.0344174 -3.32657e-18)
(0.999991 1.93989e-05 -5.23087e-19)
(0.999825 0.00439319 -4.69517e-18)
(0.8656 0.0277786 4.0722e-16)
(1.00169 -0.000170711 5.41382e-18)
(1.03382 0.00361115 -1.40827e-19)
(1.00421 0.00166162 -1.02738e-17)
(1.00306 0.000737253 -1.41506e-18)
(1.00876 0.0838256 1.43507e-16)
(0.998563 0.0114563 -6.06101e-18)
(0.999988 -6.19732e-06 -6.36337e-17)
(1.00427 0.00250776 3.25252e-17)
(1.00272 0.000524145 3.52413e-18)
(1.05495 0.0107664 7.80696e-19)
(1.05482 0.0152331 -2.86814e-20)
(1.05438 0.0103821 1.6528e-18)
(1.00034 8.79486e-05 -1.33219e-19)
(1.0319 0.00432467 1.93423e-18)
(1.00285 -0.000108723 4.6768e-18)
(1.03253 0.00466779 8.63577e-19)
(1 5.94944e-05 -5.24045e-17)
(1.01179 0.0837317 -9.74667e-18)
(0.999982 3.49677e-05 1.72796e-17)
(0.983713 0.00178116 8.53422e-17)
(1.02921 0.0116988 -4.99601e-18)
(1.00031 5.63149e-05 3.50534e-19)
(1.03874 0.0337991 1.3415e-17)
(0.909071 0.0227536 -1.45422e-18)
(1.00001 1.4176e-05 -6.6776e-18)
(1.09242 0.105123 -2.07781e-18)
(1.0044 0.000709095 1.59036e-17)
(0.916245 0.0640028 1.29501e-16)
(1.02883 -0.00203168 -2.36011e-18)
(1 4.25654e-05 6.7376e-17)
(1.03004 0.0122967 5.81862e-18)
(1.00176 0.000516863 -1.09565e-17)
(0.999997 -9.6912e-06 7.28452e-19)
(0.560401 1.38514 3.70526e-16)
(0.941142 0.0790274 6.86646e-17)
(1.05337 0.0122164 3.5591e-20)
(0.999905 0.00511579 1.00083e-17)
(0.999004 0.000527586 6.27531e-18)
(1.0011 0.0451027 -5.79074e-17)
(0.998978 0.000560064 -1.39443e-18)
(1.03371 0.0033268 2.95705e-18)
(1.03182 0.00929868 2.37063e-18)
(1.0001 5.45649e-05 -5.33031e-18)
(1.00277 0.000424466 8.29945e-18)
(1.00341 0.0402056 -6.35974e-18)
(0.857429 0.0106001 2.40155e-16)
(1.02987 0.00857845 -4.74353e-18)
(1.11374 0.0424101 -1.20243e-17)
(0.999973 4.12568e-05 -2.90459e-16)
(0.999947 5.76037e-05 4.65866e-16)
(1.02917 0.00623762 -1.71227e-18)
(0.972192 0.00206146 6.76017e-17)
(1.00422 0.000735407 -6.69224e-18)
(1.00648 0.0915356 4.42385e-18)
(0.996242 0.00033908 -4.25279e-18)
(0.996707 0.000927467 2.15469e-18)
(0.934864 0.0443304 -3.19989e-17)
(1.00689 0.0832525 -4.51377e-17)
(0.939755 0.00974557 4.29837e-17)
(1.00001 2.92165e-05 -6.67891e-18)
(0.999972 1.15937e-05 6.45907e-17)
(1.00384 0.00258624 3.17681e-19)
(0.992911 0.027534 -3.93828e-17)
(0.846281 0.082274 -6.41696e-16)
(1.0044 0.00551978 -1.59884e-17)
(1.00023 0.00970771 -1.81285e-17)
(1.03256 0.00111105 5.37885e-19)
(1.00452 0.00466425 -3.24369e-18)
(0.999718 0.00992766 -2.90102e-17)
(1.03358 0.00185685 6.64282e-19)
(1.03079 0.000279465 -5.85306e-18)
(1.00159 0.000309121 -1.53456e-19)
(1.03271 0.0176944 2.62729e-18)
(1.15103 0.0128245 2.83974e-17)
(1.01398 0.0110232 -8.06468e-19)
(1.00337 0.00535263 -4.10407e-19)
(1.02947 0.0129576 -3.67608e-18)
(1.00409 0.00224677 6.05989e-18)
(0.891801 0.0267894 -1.58933e-16)
(1.03347 0.000647939 -6.25374e-19)
(0.992894 0.0181338 -5.34652e-18)
(1.03349 0.0173125 -1.47222e-18)
(1.03526 0.0315288 8.53632e-18)
(1.00001 3.00295e-05 1.35382e-17)
(1.03745 0.0330281 2.39691e-18)
(0.992892 0.0160521 7.11482e-17)
(1.03566 0.00276258 4.88791e-18)
(1.00491 0.00269671 3.22873e-17)
(1.00001 3.24352e-05 2.62625e-18)
(1.04335 0.00554568 -1.05034e-18)
(1.04464 0.00872257 1.70376e-18)
(1.1331 0.107988 4.48914e-17)
(0.83711 0.0937254 1.81004e-16)
(0.999974 5.91239e-05 -1.8905e-17)
(1.00378 0.00518572 2.27152e-18)
(0.999551 0.0107828 -2.27232e-17)
(1.00393 0.00543969 6.45134e-18)
(0.981245 0.0012239 -1.00546e-17)
(0.948143 0.0636655 1.80742e-17)
(1.00489 0.00359069 -9.02311e-19)
(1.03327 0.00290485 -5.98057e-19)
(0.247234 0.290883 8.08278e-17)
(1.00454 0.00229897 -1.75044e-17)
(1.00002 6.77916e-05 2.59971e-19)
(0.981873 0.00164547 1.01298e-16)
(1.01594 -0.00117689 -2.8721e-18)
(1.00268 0.0774294 -1.91749e-17)
(1.00275 0.00599211 -1.10518e-17)
(1.00291 0.00578628 1.10209e-18)
(1.00007 4.71094e-05 -1.30471e-18)
(1.03817 0.0358629 -4.83831e-18)
(0.992405 0.0224284 -4.02482e-17)
(1.00089 0.00961307 8.2033e-18)
(0.993944 0.0194137 1.48089e-17)
(1.00001 3.16017e-05 -5.17987e-19)
(1.0288 0.0126131 6.47432e-19)
(1.00063 0.00984624 -7.2712e-18)
(0.697174 0.171118 1.19663e-16)
(1.00018 4.42427e-05 -8.50635e-19)
(1.02229 -0.000409568 1.269e-18)
(0.999852 0.00680711 9.89034e-18)
(0.99786 0.152994 3.59441e-17)
(1.00399 0.0440402 -1.94505e-18)
(1.09638 0.106753 -1.90472e-17)
(0.999758 7.54972e-05 -9.28115e-17)
(1.03525 0.00358272 -1.61607e-18)
(1.00347 -0.000312424 4.63567e-18)
(1.03289 0.000683254 -1.30766e-18)
(1.03979 0.00652508 2.48724e-18)
(0.986677 0.000854197 1.65382e-16)
(0.997 0.000482474 1.46596e-17)
(1.002 0.00623546 2.26797e-17)
(0.562636 0.443061 3.41759e-16)
(1.36529 0.214536 2.00693e-16)
(0.999988 2.75394e-05 3.01505e-19)
(1.00508 0.00279764 1.02714e-18)
(0.466357 0.37519 6.98111e-16)
(0.972859 0.00845813 -6.60792e-17)
(0.994486 0.0163095 2.00808e-18)
(1.00385 0.0436372 -4.6028e-17)
(1.00549 0.0742544 -5.2944e-17)
(1.03202 0.0149599 5.29833e-19)
(0.975222 0.000640608 1.19027e-16)
(1.40211 0.471836 8.88775e-17)
(1.10364 0.0350465 1.76897e-17)
(1.00391 0.0505697 9.26639e-18)
(1.00499 0.0023529 -5.46434e-18)
(1.03312 0.00390618 -7.03003e-18)
(1.03059 0.00872 -2.13621e-18)
(0.988349 0.0258009 1.92608e-17)
(1.02978 0.0105148 -1.32412e-17)
(1.0023 0.0067079 1.17243e-17)
(1.00552 0.00284115 -2.69271e-18)
(1.0001 7.39119e-05 -2.04375e-18)
(1.005 0.00276795 4.80668e-18)
(1.16201 0.0535628 -9.90881e-18)
(1.00521 0.0508484 1.29493e-17)
(1.00046 0.000164882 -8.54568e-20)
(0.999998 5.40266e-05 4.76583e-18)
(1.03326 0.0155817 8.84371e-18)
(1.00828 0.00153756 -8.6109e-18)
(0.991714 0.000714321 3.21068e-17)
(1.02092 0.000364115 -4.28798e-19)
(1.00003 2.06862e-05 4.61479e-18)
(1.00021 0.0739099 6.93871e-18)
(1.00001 1.75291e-05 -5.41929e-17)
(0.999988 9.3859e-06 2.22961e-17)
(0.999216 0.000119433 3.29851e-17)
(1.03348 0.00351174 -5.10438e-19)
(1.0037 0.00204948 -3.47719e-18)
(1.42709 0.418446 1.34385e-16)
(1.00034 4.13736e-05 1.22679e-17)
(1.00038 3.12887e-05 2.40131e-17)
(1.01991 0.00209347 -1.97563e-18)
(1.0035 0.000798514 -3.55061e-18)
(0.946752 0.0693613 1.88591e-16)
(0.998708 0.00904528 5.12971e-18)
(0.998825 0.000226514 8.40843e-17)
(0.999968 2.98182e-05 1.1461e-17)
(1.1413 0.0493607 -1.35764e-17)
(1.00193 0.0723709 -6.66799e-17)
(0.999998 5.02747e-05 -8.69941e-18)
(1.00348 0.00557333 1.46849e-17)
(0.999288 0.00806612 7.49097e-18)
(1.00398 0.00114731 1.71618e-17)
(1.00273 0.00022119 -8.13541e-19)
(1.00278 0.000395542 -9.39692e-19)
(1.00403 0.000553743 -9.62822e-19)
(0.995669 0.00112715 1.55697e-16)
(0.830085 0.0590018 -2.8342e-16)
(1.00388 0.000505976 -3.0938e-18)
(0.99751 0.000131649 4.23332e-18)
(0.986032 0.000568508 -1.01783e-16)
(1.02441 0.024263 -7.92005e-20)
(1.0921 0.0299236 -2.13601e-18)
(1.00526 -0.000226926 1.29865e-18)
(0.991198 0.023298 2.92432e-17)
(0.608264 0.102154 -1.09684e-16)
(0.999993 5.48669e-06 -9.35348e-18)
(1.02538 0.010666 1.26204e-18)
(1.00059 0.00010689 -7.12178e-19)
(1.0133 0.0119071 -5.41533e-18)
(1.00038 -4.38267e-06 -4.949e-19)
(1.00467 -0.000607903 -1.79621e-18)
(0.822292 0.0398797 1.58414e-16)
(1.02653 0.0117112 -4.01137e-18)
(0.838294 0.0825742 -3.75281e-16)
(0.991091 0.000619497 7.58184e-18)
(1.00071 0.00747502 -1.38745e-18)
(1.0311 0.00262245 -4.88928e-19)
(1.03583 -0.00215194 -4.73948e-19)
(1.00041 0.00714708 -1.4328e-17)
(1.03045 0.00292932 5.16167e-19)
(1.03083 0.00391827 -3.41152e-18)
(1.00076 0.000105169 -3.24206e-18)
(0.999335 0.000491416 -4.21958e-17)
(0.99927 0.000506424 -3.57683e-17)
(0.999279 0.000483158 1.83739e-17)
(0.99926 0.000460817 -8.10635e-18)
(0.611468 0.285525 5.18115e-17)
(1.00003 4.26816e-05 5.9421e-18)
(0.941644 0.0722482 -7.241e-17)
(1.03498 0.00191939 -2.31476e-20)
(0.993335 0.0250406 1.89513e-17)
(1.03016 0.0112777 4.21067e-18)
(1.02706 0.0134937 3.49213e-18)
(1.01888 0.00115427 4.70862e-19)
(1.01239 0.0110094 3.96134e-18)
(1.02633 0.0125468 4.63031e-19)
(1.01254 0.0106267 6.3254e-19)
(0.99259 0.0258023 1.96587e-17)
(1.026 0.026753 -2.28496e-19)
(1.0256 0.0293009 6.87863e-18)
(0.957289 0.0500349 -2.91654e-17)
(0.98075 0.00199099 -5.83861e-16)
(1.03461 0.0729942 2.43129e-18)
(0.98284 0.00134805 8.38198e-17)
(0.985551 0.00135577 6.15217e-16)
(1.02842 0.0133375 -1.05814e-18)
(0.941601 0.0999787 -9.85015e-18)
(1.00271 0.00245875 -1.55872e-18)
(0.999315 8.91435e-05 -2.3752e-17)
(1.01498 0.0101042 -2.14954e-18)
(0.999425 0.000147141 -4.07835e-17)
(1.00319 0.00252312 -1.00348e-17)
(0.936894 -0.0345654 1.70731e-17)
(0.287023 0.278783 8.33534e-17)
(1.0032 0.00308322 -6.79451e-18)
(0.99998 2.84502e-05 2.0282e-17)
(1.00028 1.63332e-05 -7.96847e-20)
(0.999969 4.93747e-05 1.59818e-17)
(1.02663 0.0110344 -2.23762e-18)
(1 3.7994e-05 -1.17427e-18)
(0.999997 3.85339e-05 2.92755e-19)
(1.11626 0.0459887 1.67241e-17)
(1.02931 0.00809826 -9.33243e-19)
(1.0901 0.155187 2.98364e-18)
(1.00122 0.00280797 -5.05816e-18)
(1.03261 0.0109276 -2.57857e-18)
(1.00659 0.000744232 -1.36441e-17)
(0.999715 0.00854737 -7.93237e-19)
(1.02911 0.0243281 -9.5068e-18)
(1.01546 0.010016 1.85882e-18)
(0.937327 0.000213374 6.65657e-17)
(1.01491 0.00892265 5.58232e-18)
(1.00304 0.00253565 -2.44453e-18)
(1.00048 0.000196082 -3.40524e-18)
(1.02997 0.00718713 1.44369e-18)
(1.03391 0.00958865 -3.11389e-18)
(1.00447 0.000538886 1.69488e-17)
(0.718994 0.0268705 1.49947e-15)
(1.03332 0.0243408 8.82556e-20)
(1.03113 -0.00142818 4.74828e-19)
(0.996868 0.0330186 -2.88146e-17)
(1.00146 0.0420057 4.35462e-17)
(1 7.42166e-05 3.90404e-17)
(0.335102 0.465782 -9.98599e-16)
(1.03661 0.0755775 3.76925e-18)
(1.0009 0.00358408 -3.98167e-18)
(0.973233 0.18417 1.47385e-17)
(0.983664 0.00149886 -3.47664e-17)
(0.999972 7.48759e-05 6.92704e-18)
(0.999997 5.24198e-05 -1.37651e-18)
(0.999976 7.10471e-05 -1.06625e-17)
(1.10195 0.152926 1.26323e-17)
(0.946909 0.0924781 1.18311e-18)
(0.991072 0.0266472 -9.99181e-18)
(1.02602 0.0090068 3.95256e-18)
(1.03339 -0.000876565 -1.1471e-18)
(1.00058 0.0112235 -2.16541e-17)
(0.929307 0.00170424 1.35087e-16)
(0.99851 0.032778 1.54286e-19)
(1.04629 0.00852695 4.59056e-18)
(1.09772 0.032537 1.8962e-18)
(0.729965 0.0449924 5.47173e-16)
(0.994375 0.0251398 -2.55218e-17)
(0.958728 0.0482837 3.41132e-17)
(1.01652 0.00287427 1.3682e-18)
(1.02563 0.0358313 -5.29103e-18)
(1.01103 0.0107932 1.55188e-18)
(1.01551 0.0108191 -4.4307e-19)
(0.998035 3.50861e-05 -2.21889e-16)
(1.01134 0.00927639 -6.64814e-18)
(1.02889 0.010487 -7.65574e-18)
(0.999982 4.38046e-05 7.78991e-19)
(1.08582 0.00197914 -1.3818e-17)
(0.990983 0.00088489 3.87208e-16)
(1.06728 0.00704177 -1.16291e-17)
(1.03286 0.00669212 3.21518e-18)
(0.993641 0.00134753 2.22118e-16)
(0.953386 0.056288 -7.39371e-17)
(1.19238 0.246074 -5.81508e-17)
(1.02616 0.0126765 -8.5745e-19)
(1.0082 0.0147609 -3.22361e-17)
(1.03432 -0.00283201 2.48183e-19)
(1.0336 0.00665526 -1.99919e-18)
(1.02798 0.0287982 -2.89965e-18)
(1.00407 0.00254648 5.19918e-18)
(1.00002 -1.8917e-05 -4.84345e-18)
(0.998526 0.0665123 2.56737e-17)
(1.00037 0.000140597 4.82156e-19)
(1.05069 0.0148336 5.53253e-19)
(1.00249 0.000244688 1.44784e-17)
(0.965078 0.00243447 -5.45973e-18)
(0.962504 0.0374737 9.26028e-17)
(1.01059 0.000190688 2.04234e-18)
(1.10296 0.0976777 -2.14232e-17)
(0.942339 0.0750047 -1.65351e-16)
(0.994807 0.0174144 2.32591e-17)
(1.00103 0.00354337 -3.41227e-18)
(0.533427 0.0663553 -5.03044e-16)
(1.00068 6.37617e-05 2.77884e-18)
(1.00095 0.00284057 -5.05303e-18)
(1.04227 0.0373837 9.9827e-18)
(0.999986 3.05161e-05 -6.31795e-18)
(1.00117 0.00374616 -1.17064e-20)
(1.0013 0.00258477 -1.82897e-17)
(0.797231 0.179146 1.60111e-16)
(0.640582 0.504612 1.2128e-16)
(0.998202 0.0111344 -2.75236e-17)
(1.00124 -0.000455932 -3.08141e-19)
(0.941663 0.0322351 -2.27333e-16)
(0.999468 0.0411294 1.32245e-17)
(1.02579 0.00959069 -2.97877e-18)
(1.0293 0.0120147 -2.20127e-18)
(1.03012 0.0092478 -2.62616e-18)
(1.00082 -6.61905e-05 2.02524e-17)
(0.999979 6.0878e-05 4.88317e-18)
(1.0039 0.0335662 2.87716e-17)
(1.00001 -1.47218e-05 -1.84908e-18)
(0.96724 0.0404877 3.31614e-17)
(1.0253 0.0097514 4.36236e-18)
(1.02595 0.033571 -4.04845e-18)
(0.996775 0.000530639 3.70378e-18)
(0.996402 0.0628166 7.37031e-17)
(1.04467 0.0342638 -1.39008e-17)
(0.997951 0.00024286 -1.03533e-16)
(1.00134 0.0110229 8.63684e-18)
(1.00582 0.00158836 1.48742e-17)
(0.926601 0.0483174 -3.27957e-17)
(1.04308 0.0356876 -1.33382e-17)
(0.99999 2.99813e-05 -5.57619e-17)
(0.999961 0.0366924 2.17301e-18)
(1.03109 0.00500163 1.20445e-17)
(1.01569 0.000520094 4.04618e-19)
(1.00228 0.035668 -2.11635e-17)
(1.00278 0.000333946 -4.74975e-18)
(0.939286 0.0911818 -2.46606e-17)
(1.02603 -0.00107029 -6.30083e-18)
(1.03241 0.00472776 -1.20742e-18)
(1.02684 0.0275577 -9.06031e-18)
(1.00089 -0.0001596 7.86556e-18)
(1.00173 0.0111461 8.65286e-18)
(1.05244 0.0560117 6.56348e-18)
(1.0585 0.0101103 -3.72685e-18)
(0.999985 5.5345e-05 -1.60715e-18)
(1.01064 0.0150746 -1.31843e-17)
(0.994143 0.166598 -1.50308e-17)
(1.03209 0.00235709 5.47725e-19)
(0.564272 0.478331 1.32244e-17)
(1 4.66548e-05 -1.2944e-17)
(1.00247 0.000498578 -4.01963e-19)
(1.00066 2.36658e-06 -3.37473e-18)
(1.03057 0.0121844 -3.05818e-18)
(0.994593 0.019382 -1.1975e-17)
(0.995928 0.0127125 -1.88577e-18)
(1.00271 0.000133456 3.1915e-17)
(0.999936 0.0355458 8.88313e-18)
(1.01663 0.0112974 -2.00235e-19)
(0.972013 0.00399416 1.3224e-16)
(1.00906 0.0012678 -1.79076e-18)
(1.08247 0.0790417 1.30108e-17)
(1.0005 7.05562e-05 -1.73187e-17)
(1.08777 0.0856881 -6.22662e-18)
(1.00165 0.000144805 4.41384e-19)
(0.626958 0.573487 3.71498e-16)
(1.02417 -0.000777714 4.07312e-18)
(1.05137 0.0564271 -3.15518e-18)
(0.999698 9.69376e-05 1.49193e-16)
(0.996999 0.00063106 -1.84859e-18)
(1.02523 0.0245364 1.77668e-17)
(1.00366 0.00214042 -3.21084e-18)
(0.998656 0.000154229 7.33391e-17)
(0.992428 0.000221528 7.04167e-16)
(0.995081 0.0197298 1.09294e-18)
(0.995366 0.0191965 1.87355e-18)
(0.975126 0.160073 -1.70514e-17)
(1.0326 0.0272993 -9.604e-20)
(1.03293 0.0291767 1.20282e-17)
(1.00001 1.68203e-05 9.22771e-19)
(1.00392 0.00189734 7.91992e-18)
(1.02538 0.0107337 -2.91246e-18)
(1.05904 0.00708266 1.66423e-18)
(0.999998 1.01554e-05 -1.19754e-17)
(1.00048 8.52091e-05 -9.84567e-19)
(1.03089 0.0088753 -1.18141e-17)
(1.00074 0.000102545 -6.39288e-19)
(0.819299 0.0477525 -2.36997e-16)
(1.16484 0.244795 1.68267e-17)
(1.10058 0.00232095 -9.99015e-18)
(1.00001 1.69463e-05 -1.93684e-17)
(1.00609 0.00947061 -1.1265e-17)
(1.0403 0.00642406 1.33909e-18)
(0.995695 0.0136785 1.7479e-17)
(1.00385 0.00100379 -6.22929e-18)
(0.191298 0.480185 9.33383e-16)
(1.00042 5.23571e-05 3.29454e-18)
(0.938637 0.0703387 1.57073e-18)
(0.963936 0.045106 -1.32153e-16)
(1.00631 0.00840992 -1.16407e-17)
(1.00397 0.00094614 1.20647e-18)
(0.998427 0.000216735 -1.31991e-16)
(1.00905 0.00028439 -7.22218e-18)
(1.03583 0.00117492 1.10259e-19)
(1.01614 0.00782847 -1.32743e-17)
(0.997181 0.0108318 -1.77853e-17)
(0.999996 -3.53076e-06 2.09401e-19)
(1.00001 4.50889e-05 1.52275e-16)
(0.995252 0.0160206 -2.35322e-17)
(0.99634 0.0011247 -4.12437e-17)
(0.994613 0.0565314 1.73781e-17)
(1.03029 0.0110628 6.89889e-18)
(0.998989 -1.93058e-05 1.34133e-17)
(1.00044 0.000188126 -3.55346e-19)
(1.02478 0.0254637 -4.93246e-18)
(1.0816 -0.00284038 2.96002e-17)
(0.997734 0.000373713 3.04292e-17)
(1.04707 0.00663877 1.97567e-18)
(1.00028 7.13393e-05 6.54693e-20)
(0.996443 0.0109604 5.03149e-18)
(0.962461 0.0812815 2.03361e-17)
(1.03508 0.00089092 8.77244e-20)
(1.03749 0.00466216 -1.21521e-18)
(0.954343 0.0509814 -1.30891e-16)
(1.00224 0.0179892 -7.56565e-18)
(1.03681 0.0014365 -3.8684e-19)
(0.999983 2.58749e-05 1.62119e-17)
(0.999754 7.39089e-05 -2.22097e-16)
(1.03602 0.000443883 1.02237e-18)
(1.01006 0.00990985 -1.03744e-17)
(1.00343 0.0182364 1.70847e-17)
(1.00976 0.00787771 -8.32755e-18)
(1.00001 8.03413e-05 -1.34196e-17)
(1.00052 0.0001825 -4.16822e-19)
(1.00377 0.00084484 5.12486e-18)
(1.00079 0.0271261 9.73227e-18)
(1.03663 0.0038257 1.83941e-18)
(0.94596 0.0352354 6.14454e-18)
(0.989448 0.000882454 -2.44183e-16)
(0.930843 0.0350104 5.71689e-17)
(1.03021 0.011447 -5.91183e-18)
(1.0086 0.0161412 -1.72827e-17)
(0.936919 0.0450012 1.62774e-16)
(0.984717 0.021474 5.62898e-17)
(1.06256 0.00688682 -1.14242e-17)
(1.02999 0.0101503 9.42435e-18)
(0.985755 0.0208278 8.79778e-18)
(0.994268 0.0554504 -3.41204e-17)
(0.999787 0.000154349 -3.63112e-17)
(1.01202 0.0620387 1.00007e-17)
(1.02548 0.022942 1.56621e-17)
(1.00001 -1.52413e-05 1.06358e-17)
(1 2.01064e-06 -2.65107e-18)
(1.00079 6.95617e-05 1.8826e-17)
(0.99956 0.000401974 -7.56117e-17)
(1.06302 0.062804 1.27642e-18)
(1.01089 0.0156653 -9.48944e-18)
(1.01487 -0.000599037 -3.3991e-18)
(0.941663 0.0456946 -3.94358e-17)
(0.992325 8.48064e-05 1.16728e-15)
(0.815256 0.0226506 -1.20199e-17)
(1.03286 0.00176851 -4.66455e-19)
(1.03581 0.00176907 9.55741e-19)
(1.0034 0.000456009 2.36495e-17)
(1.04918 0.0344737 -9.36746e-18)
(1 7.05183e-05 -1.78857e-17)
(0.999371 0.0291755 -2.23479e-17)
(1.0005 0.00321064 9.61335e-18)
(0.943662 0.10292 1.24495e-18)
(0.933178 0.0399026 -3.74432e-17)
(1.00196 0.0155392 -5.9625e-18)
(1.01593 0.0106715 -1.93134e-19)
(0.468007 0.731552 -9.39835e-17)
(1.02811 0.0103197 7.98829e-18)
(1.04165 0.0560827 -4.73061e-19)
(1.00923 0.0118001 1.61141e-17)
(0.984892 0.137012 -1.18518e-17)
(1.16527 0.172911 5.24534e-18)
(1.00098 -7.09317e-05 -7.58929e-18)
(0.99835 0.00320279 -1.55952e-17)
(1.00001 4.99925e-06 -8.4566e-18)
(1.05899 0.0582769 -3.13833e-19)
(0.998515 0.00303118 1.02812e-18)
(1.01547 0.00854081 1.45711e-17)
(1.1057 0.0945186 1.28986e-17)
(1.00047 0.000138505 2.694e-18)
(0.971474 0.00351747 -2.38772e-16)
(0.992554 0.0492136 2.03784e-17)
(1.00652 0.0143097 3.58639e-17)
(0.997535 0.000197202 -4.5252e-17)
(1.00208 0.0159443 3.86273e-19)
(0.999133 0.000742197 -5.71279e-17)
(0.995695 0.0145122 -2.07191e-17)
(0.999127 0.00061953 7.93497e-18)
(0.999182 0.000810601 2.04581e-17)
(0.995678 0.0125317 3.99665e-19)
(1.0335 0.00534154 3.72583e-18)
(1.03368 0.0060891 4.42489e-19)
(1.00687 0.0155273 -8.51223e-20)
(0.646676 0.0356295 1.22974e-16)
(1.03301 0.000565494 8.90162e-19)
(0.373056 0.346234 4.67399e-17)
(1.02784 0.0116569 4.62852e-18)
(1.02224 0.001242 4.18516e-19)
(0.995789 0.0132722 -2.07147e-17)
(1.02691 0.0129997 -6.24691e-18)
(0.992963 0.0252353 3.69349e-17)
(1.03088 -0.00118607 9.02421e-19)
(0.529761 0.414186 -1.84927e-17)
(0.946786 0.0371652 8.1866e-17)
(0.992866 0.0242092 -6.25113e-18)
(1.00458 0.0215915 -1.19175e-17)
(0.994866 0.00123501 4.00841e-17)
(0.996318 0.000724454 4.69698e-17)
(1.026 0.0266545 -7.49826e-18)
(1.00001 3.12857e-05 1.67188e-17)
(1.0653 0.00619957 2.18995e-19)
(0.999084 4.61362e-05 4.74454e-17)
(0.952323 0.0391509 1.31089e-16)
(1.00186 0.0725316 -4.53236e-17)
(1.06184 0.053524 -9.1509e-18)
(1.03859 0.021069 9.15699e-18)
(1.03107 0.0111308 1.45615e-18)
(0.992311 0.0477806 -3.30149e-17)
(1.00904 0.0122365 -7.46645e-18)
(1.03799 0.0218554 1.27216e-17)
(0.971689 0.0297244 -9.90299e-17)
(1.04445 0.0583176 -4.87546e-18)
(1.00812 0.0206185 2.30073e-17)
(1.04426 0.0355972 1.93344e-17)
(1.0057 0.0216659 -4.2684e-18)
(1.00001 3.58689e-05 -2.44127e-19)
(1.00055 0.0234354 -2.22647e-17)
(0.800991 0.0364115 -3.30187e-17)
(0.971697 0.129767 4.00958e-17)
(1.00603 0.00563633 -6.59735e-18)
(1.0001 4.79025e-05 6.17874e-19)
(0.999083 0.000232654 1.35783e-16)
(0.99488 0.00706032 2.72443e-18)
(0.964821 0.0031412 -5.15448e-16)
(1.03064 0.00561233 2.90118e-18)
(1.02719 0.000851135 -3.1172e-18)
(1.0008 3.92045e-05 -6.96273e-19)
(1.00465 0.00668305 -1.06193e-17)
(0.995259 0.0248706 -2.49029e-17)
(1.00605 0.00491181 4.59132e-18)
(1.00846 0.000585263 1.23944e-17)
(1.04542 0.0307396 -5.25486e-18)
(0.993996 0.000974158 -1.54887e-16)
(0.991732 0.0333686 3.24128e-17)
(1.03328 0.0113049 5.95594e-19)
(1.00505 0.00541404 1.30934e-17)
(1.00709 0.00569461 1.70713e-18)
(0.946738 0.0612049 -1.25751e-16)
(0.999993 -2.53009e-06 4.70544e-19)
(0.993606 0.00538539 6.81925e-18)
(1.33445 0.101615 3.375e-17)
(0.999783 6.89573e-05 -1.0183e-16)
(1.04003 0.0342281 -5.57923e-18)
(1.00328 0.067296 1.76582e-18)
(1.00775 0.00606198 7.85952e-18)
(0.959516 0.0427104 -3.611e-17)
(1.03255 0.0116513 4.17514e-18)
(0.998018 0.0246744 -4.86212e-17)
(1.0267 0.0295167 3.84998e-18)
(0.999599 0.00304914 -3.42694e-19)
(0.938257 0.037849 -4.73386e-17)
(1.00437 0.000242118 -3.57144e-18)
(1.02794 -0.000591584 5.0585e-19)
(1.03201 0.0123224 5.49296e-18)
(0.935323 0.043841 -1.36835e-16)
(0.999826 0.00293605 2.49982e-18)
(1.03598 0.00173497 -6.16627e-19)
(1.0545 0.0176009 -1.1466e-17)
(0.993926 0.032619 -1.78831e-17)
(1.00576 0.0127276 -2.46357e-17)
(1.00436 0.00271647 -1.53928e-17)
(1.01656 0.0664363 4.99545e-18)
(0.755112 0.248966 5.48613e-17)
(0.995183 0.00114927 -6.97504e-17)
(0.999998 1.70333e-06 -3.07993e-17)
(0.994404 0.0225466 -1.13933e-17)
(0.999992 2.8998e-05 -1.34031e-19)
(1.1593 0.178895 -4.34933e-17)
(1.00684 0.0210325 -2.11151e-17)
(1.03846 0.0832456 2.3525e-18)
(1.01485 0.00641712 1.51265e-17)
(1.02831 -0.000744131 -1.67705e-17)
(0.200663 0.0399511 -3.54149e-15)
(1.00646 0.0145598 -1.62135e-18)
(1.1001 0.19103 -1.41085e-17)
(1.03238 0.00533885 2.69106e-18)
(1.09065 0.00789352 -5.32016e-18)
(1.02618 0.0105385 1.26616e-18)
(0.996901 0.0115183 4.03541e-17)
(1.00608 0.0134648 2.52464e-17)
(1.0163 1.71403e-05 -2.21722e-18)
(1.09303 0.0857707 -5.32397e-18)
(1.08384 0.0804901 3.15643e-17)
(1.00137 9.86267e-05 -6.10904e-19)
(1.0019 0.000103864 -2.39649e-19)
(0.932338 0.0467337 -5.53133e-17)
(1.00237 0.000114001 6.12779e-18)
(0.721486 0.388729 2.7886e-17)
(1.02746 0.0304451 -1.73098e-18)
(0.97496 0.158604 1.55746e-17)
(1.00381 0.00271313 -7.53354e-18)
(0.22679 0.410187 3.44301e-16)
(1.13214 0.213235 -3.90154e-17)
(1.0058 0.0213074 -1.58697e-18)
(0.999993 3.14441e-05 3.90554e-19)
(0.999889 0.00265495 9.7748e-18)
(0.952995 0.0322735 -9.19128e-17)
(0.994668 0.00777934 -3.33188e-18)
(0.990448 2.34778e-05 -2.04134e-16)
(0.997384 0.0090516 1.29306e-18)
(1.02902 0.0104346 -7.16558e-18)
(0.97417 0.0281598 9.33614e-17)
(1.07306 0.00869723 5.77754e-17)
(0.626037 0.048168 -1.00087e-16)
(1.00091 -5.79846e-05 -2.57511e-18)
(0.965933 0.0347164 -2.56079e-17)
(1.03225 0.0245898 -2.2763e-18)
(0.918022 0.0611964 9.66819e-17)
(1.0045 0.0123057 5.79302e-18)
(0.932109 0.0791203 1.27703e-16)
(1.03309 0.0049767 -4.0225e-18)
(0.958804 0.0314743 8.10655e-17)
(0.997466 0.000637424 7.64161e-17)
(1.0001 1.99621e-05 8.21547e-19)
(1.03599 0.0207059 -5.41881e-18)
(1.03932 0.0204106 -2.02025e-17)
(1.02329 -0.000832561 8.70508e-18)
(0.934118 0.0329404 8.71276e-17)
(1.03596 0.0798974 1.24645e-17)
(1.0238 -0.000959246 -2.93438e-20)
(0.997006 0.0238243 -1.5532e-17)
(1.00035 0.00378405 -6.41618e-18)
(1.00836 0.00743441 -1.70082e-18)
(0.759235 0.0248348 -1.17238e-15)
(1.00962 0.00881594 2.35997e-18)
(1.0325 0.0184772 6.27422e-18)
(0.984241 0.0383972 6.44938e-19)
(1.02471 0.00793761 1.91153e-18)
(1.0129 -0.000407663 6.07288e-18)
(0.996692 0.0106932 -4.07365e-18)
(1.05576 0.0167736 7.57281e-18)
(1.01422 0.00616107 -9.05158e-18)
(1.00517 0.0121372 1.92837e-17)
(1.07122 0.00502797 2.11743e-17)
(0.991928 0.0258441 -1.77802e-17)
(1.02001 0.00149501 1.2885e-18)
(0.826587 0.291993 -9.435e-17)
(1 3.3488e-05 1.1177e-19)
(1.01468 0.00721682 5.86246e-18)
(0.999708 0.0185877 5.19527e-17)
(0.992796 0.00663689 8.71203e-19)
(1.0029 0.000764907 1.57059e-17)
(0.996956 0.0234981 -7.19314e-18)
(1.00001 4.63178e-06 -5.82281e-18)
(1.04683 0.101975 4.23555e-17)
(1.00551 0.000349945 -2.49727e-17)
(0.973915 0.00495872 -1.39339e-16)
(1.03485 0.0302697 2.07933e-17)
(0.956766 0.0425005 6.70305e-17)
(1.01566 0.00859601 5.45147e-18)
(1.01544 0.00753658 -5.09534e-18)
(1.03551 0.0200404 -1.04411e-17)
(1.27854 0.0104252 3.78016e-18)
(0.999746 0.00015637 -4.91832e-17)
(0.993032 0.000574961 -2.23358e-16)
(1.01881 -0.000841777 3.36606e-19)
(1.10895 0.181795 5.59117e-18)
(1.0391 0.0213416 -3.76196e-18)
(0.999814 0.00287332 3.08023e-18)
(0.272608 0.172358 1.41866e-17)
(1.00008 3.90611e-05 1.41936e-18)
(1.00476 0.0016221 -6.80185e-18)
(0.994329 -0.061317 1.27191e-16)
(0.994809 0.00498303 -7.00561e-19)
(0.999613 0.00309338 6.09839e-19)
(0.999582 0.00332546 -1.50895e-18)
(0.984335 0.0369997 -4.47205e-17)
(0.959527 0.0274406 7.79622e-17)
(0.999685 8.98458e-05 6.51556e-17)
(0.993789 0.00627277 3.35695e-19)
(0.936381 0.067307 4.1891e-17)
(0.99911 0.0203275 3.60943e-17)
(0.995558 0.016899 -5.43556e-18)
(0.997011 0.00870102 -4.71955e-18)
(1.00105 3.11669e-06 -4.33039e-19)
(0.961507 0.0298414 -4.22799e-17)
(1.06447 0.0513687 -5.19823e-18)
(0.994648 0.0153287 3.09464e-17)
(0.933434 0.0316235 1.41314e-17)
(1.03107 0.00473487 1.46017e-18)
(1.02999 -0.00447233 1.2743e-18)
(1.04526 0.0998686 2.50753e-17)
(1.0321 0.0277487 1.01364e-17)
(0.996715 0.00928133 -7.81961e-19)
(1.005 0.000934946 6.14159e-18)
(1.08614 0.0894911 -1.34985e-17)
(1.03502 0.00324689 1.26205e-18)
(0.976853 0.0245992 -4.35685e-17)
(1.00055 0.00386259 -9.77085e-18)
(0.999511 0.000350648 4.87306e-17)
(0.934139 0.00679846 1.21435e-16)
(1.0487 0.0360391 6.77996e-18)
(1.01358 0.0058887 1.2963e-17)
(1.01266 0.047963 3.92018e-18)
(1.01394 0.00687094 -6.40988e-18)
(0.997119 0.00930987 3.75579e-18)
(1.00523 0.00487215 -5.32629e-18)
(0.96748 0.0306643 4.89237e-17)
(0.963914 0.0282345 -1.54627e-16)
(0.399197 0.557623 -5.02794e-16)
(0.969208 0.0357243 1.87622e-17)
(1.00019 0.0163705 3.57016e-17)
(1.00534 0.00374794 -5.69214e-18)
(0.971848 0.0313256 5.98525e-17)
(0.612161 0.291869 -5.24362e-17)
(0.938872 0.0302695 5.13327e-16)
(0.999903 0.00271805 -8.82102e-18)