/*--------------------------------*- C++ -*----------------------------------*\
  =========                 |
  \\      /  F ield         | OpenFOAM: The Open Source CFD Toolbox
   \\    /   O peration     | Website:  https://openfoam.org
    \\  /    A nd           | Version:  7
     \\/     M anipulation  |
\*---------------------------------------------------------------------------*/
FoamFile
{
    version     2.0;
    format      ascii;
    class       volScalarField;
    location    "2.5";
    object      T;
}
// * * * * * * * * * * * * * * * * * * * * * * * * * * * * * * * * * * * * * //

dimensions      [0 0 0 1 0 0 0];

internalField   nonuniform List<scalar> 
2413
(
1.08922
1.09816
1.11586
1.14506
1.18352
1.23037
1.28096
1.32281
1.35179
1.3685
1.37627
1.38089
1.38474
1.38871
1.39279
1.39664
1.40019
1.40321
1.40645
1.41064
1.4161
1.42298
1.43112
1.44003
1.44886
1.45677
1.46326
1.46814
1.47222
1.47742
1.48349
1.48983
1.49613
1.50239
1.50871
1.51508
1.52131
1.52708
1.53132
1.53151
1.52367
1.4976
1.46062
1.43917
1.43263
1.4295
1.42512
1.41838
1.40895
1.39699
1.38307
1.36762
1.35083
1.3332
1.31545
1.29832
1.28215
1.26747
1.25459
1.24351
1.23412
1.22628
1.21975
1.21435
1.2099
1.2062
1.20311
1.20058
1.19854
1.19695
1.19579
1.19503
1.19463
1.19449
1.19453
1.19464
1.19478
1.19494
1.19507
1.19523
1.19549
1.19589
1.1965
1.1976
1.19937
1.20203
1.20553
1.20987
1.09718
1.10072
1.11246
1.13365
1.16565
1.20533
1.2533
1.30087
1.33554
1.35842
1.36962
1.37569
1.3808
1.38591
1.39076
1.39495
1.39842
1.40125
1.40386
1.40674
1.41039
1.41529
1.42165
1.42935
1.43769
1.44561
1.45232
1.45732
1.46122
1.46613
1.47227
1.4786
1.48494
1.49124
1.49749
1.50367
1.50966
1.51514
1.51927
1.5198
1.51399
1.49211
1.45742
1.43524
1.43071
1.43031
1.42849
1.4248
1.41915
1.41138
1.40193
1.39089
1.37806
1.36338
1.34726
1.33028
1.31302
1.29597
1.28002
1.26559
1.2529
1.24203
1.23292
1.22536
1.21911
1.21395
1.20973
1.20625
1.20338
1.20103
1.19916
1.19771
1.19664
1.19588
1.19538
1.19504
1.19479
1.19457
1.19436
1.19413
1.19387
1.19354
1.1932
1.19301
1.19312
1.19358
1.19453
1.1962
1.10708
1.10881
1.11679
1.13258
1.15843
1.1935
1.2361
1.28417
1.32382
1.35007
1.36491
1.37208
1.37721
1.38223
1.38777
1.39282
1.39662
1.39924
1.40123
1.40305
1.40522
1.40832
1.41292
1.41933
1.42689
1.43455
1.44125
1.44638
1.45023
1.45481
1.46104
1.46737
1.47366
1.47992
1.48614
1.49227
1.49813
1.50338
1.5072
1.50752
1.50178
1.48098
1.4483
1.42724
1.42359
1.42523
1.42634
1.42577
1.42278
1.4177
1.41156
1.40431
1.39578
1.38542
1.37298
1.35869
1.34297
1.32613
1.30911
1.29249
1.27693
1.26292
1.25072
1.24032
1.23162
1.22441
1.21846
1.21351
1.20944
1.20608
1.20335
1.2011
1.19927
1.19778
1.1966
1.19567
1.19493
1.19432
1.19373
1.19312
1.19243
1.19163
1.19074
1.18971
1.1886
1.1874
1.18623
1.18517
1.1185
1.11975
1.12649
1.13987
1.15997
1.19053
1.22836
1.27322
1.31627
1.3454
1.36303
1.37069
1.37479
1.37909
1.3844
1.38979
1.3941
1.39681
1.39824
1.39916
1.4
1.40148
1.4046
1.40979
1.41652
1.4237
1.43019
1.43524
1.43911
1.44364
1.44998
1.45626
1.46244
1.46858
1.47468
1.48073
1.48652
1.49164
1.49512
1.49516
1.48878
1.46731
1.43479
1.41513
1.41298
1.41573
1.41932
1.42094
1.42064
1.41873
1.4148
1.40994
1.40448
1.39778
1.3895
1.37926
1.36701
1.35295
1.33743
1.32104
1.30444
1.28836
1.27347
1.26016
1.24855
1.23864
1.23033
1.22342
1.21769
1.21292
1.20895
1.20564
1.2029
1.20059
1.19865
1.19699
1.1956
1.19443
1.19339
1.19226
1.19112
1.18987
1.18851
1.18693
1.18511
1.18297
1.18051
1.17768
1.13172
1.13367
1.14057
1.15312
1.17019
1.19542
1.22853
1.26844
1.3126
1.34469
1.36355
1.3708
1.37404
1.3774
1.38165
1.38614
1.3904
1.39321
1.3942
1.39424
1.39415
1.39452
1.39643
1.40062
1.40656
1.41311
1.41916
1.42402
1.42796
1.43271
1.43918
1.44538
1.45139
1.45734
1.46327
1.46916
1.47483
1.47985
1.48299
1.48267
1.47505
1.45191
1.41932
1.40137
1.40006
1.40357
1.40845
1.41194
1.41361
1.41374
1.41295
1.41095
1.40741
1.40291
1.39755
1.39084
1.38248
1.37221
1.36004
1.34622
1.33109
1.31517
1.29925
1.28402
1.26995
1.25733
1.24632
1.2369
1.22895
1.22227
1.21669
1.212
1.20806
1.20473
1.20188
1.19939
1.19721
1.19528
1.19355
1.19188
1.19023
1.18847
1.18661
1.18453
1.18216
1.17946
1.17627
1.17259
1.14731
1.15084
1.15912
1.17161
1.18681
1.20743
1.23538
1.26981
1.31189
1.3469
1.36479
1.37228
1.37483
1.37697
1.37949
1.38232
1.3857
1.38799
1.38843
1.38797
1.38702
1.38693
1.38821
1.39179
1.39707
1.40292
1.40839
1.41296
1.41702
1.42219
1.42877
1.43488
1.44071
1.44643
1.45215
1.45781
1.46322
1.46802
1.47061
1.46977
1.46029
1.43459
1.40237
1.38771
1.38741
1.39104
1.39577
1.39981
1.40283
1.40482
1.40581
1.40612
1.4055
1.40363
1.40012
1.39541
1.38978
1.38284
1.37432
1.36409
1.35215
1.33869
1.32402
1.30886
1.29392
1.27961
1.26636
1.25446
1.24402
1.23501
1.22731
1.22077
1.21525
1.21057
1.20658
1.2031
1.20002
1.19723
1.19464
1.19226
1.19001
1.18779
1.1854
1.18283
1.18001
1.17692
1.17332
1.16927
1.16496
1.17054
1.18015
1.19262
1.20616
1.22309
1.2466
1.27634
1.31515
1.35081
1.36825
1.37483
1.37642
1.37697
1.3775
1.3786
1.38035
1.38126
1.38109
1.38002
1.37864
1.37848
1.37973
1.38307
1.38782
1.39302
1.39796
1.40232
1.40664
1.41223
1.41882
1.42483
1.43048
1.43604
1.44157
1.44698
1.45211
1.45651
1.45831
1.45638
1.44371
1.41456
1.38448
1.37446
1.3753
1.37928
1.38355
1.3871
1.39004
1.3927
1.39518
1.39726
1.39871
1.39898
1.3982
1.396
1.39205
1.38693
1.381
1.37391
1.36536
1.35523
1.34358
1.33054
1.31671
1.30264
1.28866
1.27524
1.26277
1.25149
1.2415
1.23278
1.22525
1.2188
1.21327
1.20851
1.20436
1.20062
1.19714
1.19388
1.19082
1.18794
1.18502
1.18204
1.17878
1.17529
1.17139
1.16713
1.18753
1.19437
1.20399
1.21516
1.22625
1.2398
1.25976
1.2867
1.32299
1.35736
1.37476
1.37853
1.37871
1.37744
1.37492
1.37372
1.37358
1.37325
1.37239
1.37092
1.36972
1.36975
1.37123
1.37445
1.37873
1.38339
1.38794
1.39234
1.39711
1.40297
1.40941
1.41529
1.42085
1.42634
1.43174
1.43696
1.44184
1.44568
1.44651
1.44247
1.42429
1.39126
1.36678
1.36224
1.36421
1.36825
1.37197
1.375
1.37758
1.38001
1.38268
1.38562
1.38843
1.39055
1.39157
1.39146
1.39017
1.38733
1.38292
1.37748
1.37133
1.36413
1.3556
1.34578
1.33463
1.32245
1.30971
1.29655
1.28344
1.2708
1.25897
1.24816
1.23851
1.23003
1.22263
1.21623
1.21066
1.20575
1.20127
1.19708
1.19312
1.18939
1.18578
1.18223
1.17855
1.17474
1.17063
1.1662
1.21764
1.22532
1.23395
1.24187
1.24913
1.25928
1.27544
1.30025
1.33478
1.36713
1.38198
1.38355
1.38142
1.37569
1.3694
1.36588
1.36451
1.36367
1.36274
1.36167
1.36109
1.36147
1.36323
1.3662
1.36993
1.37411
1.37848
1.38313
1.38846
1.39443
1.40052
1.40625
1.41185
1.41736
1.42271
1.42778
1.43241
1.43526
1.43482
1.42623
1.39996
1.36665
1.35124
1.35078
1.35396
1.35793
1.36117
1.36356
1.36567
1.36788
1.37048
1.37341
1.37641
1.37927
1.38171
1.38327
1.38353
1.38301
1.38115
1.37774
1.37296
1.36726
1.36097
1.35388
1.34571
1.33641
1.32601
1.3148
1.3028
1.29041
1.27804
1.26607
1.25479
1.24443
1.23507
1.22677
1.21947
1.21307
1.20737
1.20215
1.1972
1.19259
1.18816
1.18384
1.17955
1.17526
1.17084
1.1662
1.25241
1.26038
1.26782
1.27296
1.27797
1.28485
1.29751
1.31962
1.35131
1.37927
1.38824
1.38706
1.3803
1.36961
1.36043
1.35558
1.35386
1.35334
1.35313
1.35303
1.35325
1.3542
1.35603
1.35857
1.36177
1.36555
1.36987
1.37485
1.38056
1.38653
1.3922
1.39779
1.40359
1.40922
1.41459
1.41951
1.42361
1.42492
1.42196
1.40449
1.3713
1.34447
1.33868
1.3405
1.34447
1.34803
1.35071
1.35279
1.3546
1.35657
1.35899
1.3618
1.36474
1.36754
1.37011
1.37237
1.37412
1.37499
1.37484
1.37365
1.3712
1.36734
1.36235
1.35665
1.35055
1.34379
1.33608
1.32727
1.31762
1.30701
1.29569
1.28401
1.27231
1.26093
1.25016
1.24018
1.23109
1.22295
1.21572
1.20925
1.2032
1.19758
1.19229
1.18721
1.18226
1.17733
1.1724
1.16734
1.29076
1.29668
1.30164
1.30386
1.30561
1.30948
1.31727
1.33293
1.35811
1.37979
1.38398
1.38111
1.37201
1.36003
1.3505
1.34564
1.34414
1.34401
1.34442
1.34533
1.34646
1.34785
1.34958
1.35175
1.35452
1.35803
1.36237
1.36758
1.37332
1.379
1.38437
1.39012
1.39616
1.40199
1.40733
1.41202
1.41485
1.4145
1.40393
1.37586
1.34226
1.32799
1.32806
1.33153
1.3354
1.33852
1.34074
1.34242
1.34405
1.34604
1.34843
1.35098
1.3536
1.3562
1.35871
1.36096
1.36292
1.36454
1.36564
1.36581
1.36523
1.36353
1.36065
1.35664
1.35174
1.34624
1.34039
1.33396
1.32654
1.31831
1.30913
1.29909
1.2884
1.27735
1.26625
1.25541
1.24507
1.23543
1.22662
1.21865
1.21142
1.20462
1.19831
1.19238
1.18671
1.18115
1.17567
1.17015
1.31998
1.32027
1.31894
1.31475
1.30945
1.30922
1.31363
1.32759
1.35169
1.37166
1.37417
1.37096
1.36212
1.35103
1.34172
1.33709
1.33614
1.33639
1.3376
1.33937
1.34103
1.34252
1.34406
1.34593
1.34843
1.35177
1.35607
1.36114
1.36651
1.37178
1.37724
1.38345
1.38971
1.39562
1.40079
1.40477
1.40586
1.39972
1.37736
1.34205
1.31956
1.31655
1.31932
1.32338
1.32686
1.32932
1.33108
1.33256
1.3342
1.3362
1.33849
1.34092
1.34334
1.34562
1.3478
1.34993
1.35193
1.35361
1.35494
1.3559
1.35632
1.35608
1.35507
1.35308
1.35014
1.34623
1.34145
1.33612
1.33045
1.3242
1.31711
1.30923
1.30046
1.29092
1.28076
1.27028
1.25974
1.2494
1.23949
1.23022
1.22168
1.21379
1.20633
1.19937
1.19285
1.1866
1.18056
1.17456
1.32061
1.31804
1.31406
1.30807
1.30166
1.30032
1.30379
1.31753
1.34243
1.36275
1.36531
1.36202
1.35287
1.3425
1.33411
1.33038
1.33018
1.33097
1.33296
1.33524
1.33701
1.33836
1.33965
1.34127
1.34356
1.34673
1.35073
1.35527
1.36008
1.3653
1.37133
1.37785
1.38425
1.38997
1.3947
1.39697
1.39317
1.37525
1.34135
1.31289
1.30573
1.30786
1.31198
1.31571
1.31849
1.32041
1.32187
1.32325
1.32495
1.32699
1.32924
1.33146
1.33359
1.33566
1.33767
1.33953
1.34125
1.34287
1.34432
1.34541
1.34614
1.34655
1.34654
1.34611
1.34494
1.34288
1.34
1.33605
1.33134
1.32608
1.3205
1.31436
1.30753
1.29989
1.29148
1.28242
1.27281
1.26289
1.25288
1.24303
1.23359
1.22472
1.2163
1.2083
1.20081
1.19372
1.18698
1.18044
1.31361
1.30847
1.30217
1.29505
1.28945
1.28897
1.29396
1.31027
1.33708
1.35732
1.35938
1.356
1.34676
1.3364
1.32871
1.32548
1.32563
1.32703
1.32959
1.33214
1.3339
1.33509
1.33621
1.33767
1.33978
1.34264
1.3461
1.35005
1.35473
1.36042
1.36681
1.37346
1.37966
1.38495
1.38797
1.38513
1.36981
1.33798
1.30646
1.29583
1.29705
1.30111
1.30501
1.30812
1.31032
1.31188
1.31314
1.31459
1.31639
1.31844
1.32051
1.32251
1.32445
1.3263
1.32804
1.32969
1.33131
1.33274
1.33399
1.33508
1.33604
1.3367
1.33705
1.33711
1.33696
1.33641
1.33516
1.33301
1.33
1.326
1.32126
1.31602
1.31039
1.30438
1.29772
1.29038
1.28232
1.27369
1.26457
1.25515
1.24567
1.23635
1.22739
1.21866
1.21033
1.20241
1.1949
1.18771
1.29825
1.2927
1.28734
1.2826
1.28055
1.28154
1.28851
1.30685
1.33501
1.35467
1.35615
1.3522
1.34279
1.33247
1.32594
1.32345
1.32375
1.32554
1.32834
1.33069
1.33201
1.33279
1.33357
1.33474
1.33653
1.339
1.34218
1.34635
1.35153
1.35741
1.36392
1.37029
1.37587
1.37901
1.37605
1.36158
1.33123
1.29901
1.28642
1.28672
1.29065
1.29475
1.29808
1.30061
1.30237
1.30365
1.30494
1.30656
1.30844
1.31039
1.31227
1.3141
1.31581
1.31741
1.31894
1.32044
1.32181
1.32305
1.32422
1.32528
1.32615
1.32689
1.32753
1.32792
1.32798
1.32791
1.32763
1.32695
1.32551
1.32316
1.31992
1.31583
1.31103
1.30581
1.30018
1.29426
1.28772
1.28062
1.27291
1.26469
1.25606
1.2472
1.23831
1.22942
1.22069
1.21222
1.20408
1.19626
1.28403
1.28192
1.27954
1.27693
1.27621
1.27781
1.28579
1.30523
1.334
1.35355
1.35514
1.35117
1.34257
1.3311
1.32405
1.32226
1.32265
1.32472
1.32778
1.33002
1.33094
1.33135
1.33181
1.33265
1.33413
1.33651
1.34018
1.3449
1.35037
1.35645
1.36254
1.36791
1.37002
1.36596
1.35076
1.32096
1.28972
1.27698
1.2768
1.28054
1.28487
1.28835
1.29118
1.29318
1.29455
1.2958
1.29731
1.29908
1.30096
1.30278
1.30452
1.30613
1.30761
1.30902
1.31037
1.31164
1.31279
1.31392
1.31495
1.31589
1.31675
1.31758
1.31828
1.31882
1.31918
1.31933
1.31924
1.31903
1.31852
1.31754
1.31574
1.31315
1.30966
1.30553
1.3008
1.29551
1.2899
1.28399
1.2776
1.27075
1.26339
1.2556
1.24741
1.23904
1.23054
1.22207
1.2137
1.20553
1.27881
1.27833
1.27692
1.27487
1.27448
1.27651
1.28553
1.30653
1.33639
1.35538
1.3565
1.35226
1.34329
1.33127
1.32449
1.32276
1.32331
1.32549
1.32829
1.32994
1.33025
1.33029
1.33046
1.33118
1.33303
1.3363
1.34058
1.34577
1.35144
1.35705
1.36125
1.36125
1.35476
1.3374
1.3076
1.27879
1.26754
1.26732
1.27089
1.27536
1.27897
1.28199
1.28419
1.28568
1.28697
1.28843
1.29015
1.29199
1.29382
1.29553
1.29709
1.29851
1.29984
1.30109
1.30225
1.3033
1.3043
1.30525
1.30614
1.30697
1.30782
1.30866
1.3094
1.31008
1.31062
1.31091
1.3109
1.31085
1.31061
1.31012
1.30921
1.3078
1.3057
1.30286
1.29935
1.29513
1.2904
1.28518
1.27958
1.27369
1.26745
1.26081
1.25373
1.24632
1.23858
1.23064
1.22259
1.21453
1.27939
1.27937
1.27849
1.27666
1.27651
1.27913
1.28942
1.31247
1.34312
1.35983
1.35998
1.35542
1.34546
1.33305
1.32619
1.32415
1.32482
1.32699
1.32943
1.33049
1.33046
1.33034
1.33064
1.3321
1.33497
1.33898
1.34381
1.34907
1.3534
1.35489
1.35196
1.34197
1.32179
1.29208
1.26713
1.25848
1.25853
1.26198
1.2664
1.27004
1.27314
1.27543
1.27703
1.27836
1.2798
1.28149
1.28333
1.28518
1.28691
1.28848
1.28991
1.29123
1.29243
1.29353
1.29453
1.29545
1.29629
1.29708
1.29782
1.29859
1.2994
1.30018
1.30095
1.30172
1.30238
1.30279
1.30295
1.30292
1.30279
1.30249
1.30192
1.30098
1.29964
1.29784
1.29554
1.29254
1.28892
1.28472
1.28
1.27484
1.2693
1.26348
1.25733
1.25088
1.2441
1.23704
1.2297
1.22216
1.28814
1.28454
1.28288
1.28182
1.28237
1.28612
1.29765
1.32185
1.35226
1.36666
1.36604
1.36075
1.34908
1.3358
1.32855
1.32608
1.32681
1.32887
1.33091
1.33167
1.33191
1.33251
1.33403
1.19764
1.20206
1.20626
1.21008
1.21352
1.21654
1.21921
1.2214
1.22292
1.22385
1.22443
1.22494
1.22568
1.22696
1.39586
1.39071
1.38428
1.37887
1.37586
1.37551
1.37725
1.38113
1.38753
1.39643
1.40717
1.41903
1.43135
1.44346
1.45478
1.46497
1.47403
1.48231
1.49046
1.49915
1.5084
1.51675
1.52301
1.52831
1.53372
1.53964
1.54596
1.5518
1.55616
1.5589
1.56032
1.56073
1.55934
1.55413
1.54249
1.52096
1.48834
1.44004
1.37476
1.31323
1.27649
1.25543
1.23946
1.22725
1.21729
1.2098
1.20447
1.20077
1.19811
1.19607
1.19424
1.19244
1.19067
1.18892
1.18716
1.18539
1.18381
1.18253
1.18153
1.18074
1.18004
1.17941
1.17885
1.17831
1.17782
1.17757
1.17761
1.17791
1.17869
1.18006
1.18204
1.18457
1.18757
1.19112
1.19517
1.19961
1.20423
1.20874
1.2129
1.21658
1.2198
1.22262
1.225
1.2267
1.22782
1.22859
1.22931
1.23032
1.39947
1.39825
1.39491
1.38972
1.3839
1.37968
1.37802
1.37859
1.38128
1.38617
1.39364
1.40329
1.4145
1.42663
1.43894
1.45072
1.46145
1.47107
1.47995
1.48874
1.49791
1.50667
1.51337
1.51866
1.52376
1.52945
1.53597
1.54285
1.54926
1.55451
1.55886
1.56225
1.56361
1.56307
1.55946
1.54968
1.53006
1.4974
1.44449
1.37814
1.3246
1.29479
1.27274
1.25509
1.24026
1.22815
1.21898
1.21236
1.20769
1.20432
1.20166
1.19931
1.19696
1.19462
1.19233
1.19009
1.18793
1.18606
1.18456
1.1834
1.18248
1.18174
1.18119
1.18078
1.18039
1.18014
1.1801
1.18024
1.18062
1.18138
1.18266
1.1845
1.18685
1.18963
1.19298
1.19687
1.20132
1.20614
1.21098
1.21552
1.2195
1.22294
1.2259
1.22839
1.23026
1.23153
1.23244
1.23333
1.38434
1.39592
1.39798
1.39625
1.3926
1.3878
1.38335
1.38101
1.38089
1.38255
1.38633
1.3925
1.40099
1.41132
1.42294
1.43507
1.4469
1.45797
1.46819
1.47781
1.48729
1.49651
1.50408
1.50965
1.51449
1.51955
1.5254
1.532
1.53894
1.54554
1.55161
1.55713
1.56208
1.56494
1.56484
1.56227
1.55364
1.53477
1.49855
1.44153
1.37936
1.33827
1.31328
1.29083
1.27125
1.25404
1.23987
1.22896
1.22087
1.21501
1.2107
1.2073
1.20431
1.20141
1.1985
1.19569
1.19301
1.19049
1.18834
1.18662
1.18527
1.18421
1.18345
1.18299
1.18267
1.18246
1.18246
1.18258
1.18283
1.18328
1.18404
1.18521
1.18688
1.18898
1.19151
1.19463
1.19837
1.20281
1.20779
1.21294
1.21783
1.22214
1.22579
1.22893
1.23154
1.23355
1.23498
1.23606
1.32746
1.36408
1.38666
1.39515
1.39544
1.39314
1.38963
1.38603
1.38375
1.38343
1.38453
1.3876
1.39286
1.40032
1.40974
1.42064
1.43223
1.44384
1.45511
1.46584
1.47606
1.48582
1.49431
1.50078
1.506
1.51075
1.51593
1.52185
1.52825
1.53489
1.54166
1.54828
1.5547
1.56047
1.56432
1.56498
1.56288
1.55465
1.53315
1.49144
1.4324
1.38224
1.35405
1.33097
1.30863
1.28738
1.26836
1.25242
1.23976
1.23007
1.2228
1.21734
1.21301
1.20928
1.20581
1.20235
1.19902
1.19593
1.1931
1.19069
1.18872
1.18716
1.18598
1.18522
1.18478
1.18453
1.18451
1.18467
1.18493
1.1853
1.18582
1.18655
1.18759
1.18905
1.1909
1.19316
1.19606
1.19963
1.20401
1.20906
1.21446
1.21973
1.22447
1.22847
1.23184
1.23447
1.23636
1.23773
1.24156
1.29614
1.34169
1.37294
1.38906
1.39295
1.39209
1.38974
1.38738
1.38589
1.38579
1.38679
1.38957
1.39432
1.40105
1.40969
1.41978
1.43054
1.44172
1.45306
1.46409
1.47453
1.48391
1.49154
1.49761
1.50259
1.50725
1.51259
1.51859
1.52486
1.53132
1.53812
1.54511
1.55196
1.5582
1.56226
1.5634
1.5612
1.55084
1.52361
1.47521
1.42224
1.38908
1.36904
1.34768
1.3253
1.30324
1.2831
1.26574
1.25142
1.24003
1.23117
1.2243
1.21883
1.21421
1.21008
1.20614
1.20234
1.19884
1.19573
1.19307
1.19087
1.18913
1.18786
1.18705
1.18657
1.1864
1.18651
1.18677
1.18714
1.1876
1.18815
1.18884
1.18976
1.19102
1.19261
1.19461
1.19725
1.20062
1.20483
1.20987
1.21545
1.22111
1.2263
1.23064
1.23405
1.23659
1.23845
1.16405
1.21679
1.27244
1.32293
1.35911
1.38131
1.38927
1.38989
1.38902
1.38782
1.38745
1.38775
1.38915
1.39207
1.39664
1.40296
1.411
1.42005
1.42979
1.44063
1.45189
1.46282
1.47288
1.4816
1.48878
1.49456
1.49923
1.50393
1.50947
1.51552
1.52174
1.52822
1.53509
1.54219
1.54918
1.55539
1.55953
1.56054
1.55651
1.54062
1.5045
1.45425
1.41723
1.39874
1.38197
1.36225
1.34047
1.31851
1.2979
1.27945
1.26366
1.25065
1.24015
1.23169
1.22485
1.21918
1.21426
1.20982
1.20566
1.20181
1.1984
1.1955
1.1931
1.19122
1.18982
1.18891
1.18839
1.18825
1.18838
1.18869
1.18912
1.18963
1.19019
1.19084
1.19163
1.19269
1.19402
1.19576
1.1981
1.20118
1.20514
1.21007
1.21577
1.22172
1.22733
1.23205
1.23571
1.23846
1.11615
1.15458
1.20425
1.25952
1.31091
1.34945
1.37396
1.38479
1.3873
1.38778
1.38803
1.38844
1.38951
1.39162
1.3949
1.39958
1.40583
1.4129
1.42052
1.42981
1.44028
1.4512
1.46173
1.47122
1.47935
1.48599
1.49113
1.49548
1.5005
1.50635
1.5125
1.51876
1.52527
1.53216
1.53926
1.54619
1.55211
1.55585
1.5554
1.54667
1.52109
1.47683
1.43785
1.41857
1.40706
1.39245
1.37438
1.3539
1.33281
1.31238
1.29336
1.27635
1.2618
1.24966
1.23959
1.23124
1.22434
1.21849
1.21338
1.20883
1.20475
1.20111
1.19798
1.19541
1.19338
1.19187
1.19083
1.19022
1.19003
1.19014
1.19043
1.19085
1.19135
1.19189
1.19247
1.19315
1.19403
1.19511
1.19657
1.19858
1.2013
1.2049
1.20957
1.21518
1.22128
1.22722
1.23242
1.23641
1.09332
1.11931
1.15603
1.20371
1.25781
1.30817
1.34537
1.36956
1.38071
1.3846
1.38644
1.38791
1.38957
1.39162
1.39434
1.39815
1.40327
1.40842
1.41394
1.42141
1.43049
1.44052
1.45083
1.4607
1.46947
1.47682
1.48255
1.48694
1.49153
1.49714
1.50325
1.50948
1.51579
1.5223
1.52912
1.53608
1.54271
1.54798
1.54999
1.54608
1.52828
1.49094
1.45113
1.43078
1.42228
1.41304
1.40029
1.38408
1.36538
1.3457
1.32597
1.30687
1.28911
1.2733
1.25959
1.24789
1.23807
1.22983
1.2229
1.21702
1.21197
1.20761
1.20384
1.20057
1.19781
1.19561
1.19395
1.19277
1.19203
1.19171
1.19173
1.19192
1.19228
1.19273
1.19321
1.19371
1.19427
1.19495
1.1958
1.19698
1.19862
1.2009
1.20402
1.20829
1.21363
1.21968
1.22578
1.23114
1.08721
1.10267
1.12939
1.16672
1.21375
1.26618
1.31346
1.34683
1.36836
1.37797
1.38244
1.38542
1.38809
1.39082
1.39385
1.39745
1.40172
1.40551
1.4096
1.4153
1.42265
1.43132
1.44083
1.45048
1.45948
1.46722
1.47342
1.47806
1.48236
1.48775
1.49385
1.50011
1.50636
1.51271
1.51923
1.52584
1.53241
1.53829
1.5419
1.54072
1.52861
1.49714
1.45837
1.43692
1.42986
1.42435
1.41639
1.4053
1.39103
1.37452
1.35672
1.33819
1.31953
1.30153
1.2849
1.26985
1.25662
1.24532
1.23577
1.22771
1.22094
1.21528
1.21053
1.20653
1.20314
1.20029
1.19793
1.19607
1.19471
1.19382
1.19333
1.19316
1.19323
1.19346
1.19379
1.19419
1.19462
1.19505
1.19553
1.19614
1.19702
1.19827
1.20004
1.20265
1.20629
1.21101
1.21651
1.22224
)
;

boundaryField
{
    inlet
    {
        type            fixedValue;
        value           nonuniform 0();
    }
    outlet
    {
        type            inletOutlet;
        inletValue      nonuniform 0();
        value           nonuniform 0();
    }
    bottom
    {
        type            symmetryPlane;
    }
    top
    {
        type            symmetryPlane;
    }
    obstacle
    {
        type            zeroGradient;
    }
    front
    {
        type            empty;
    }
    back
    {
        type            empty;
    }
    procBoundary20to5
    {
        type            processor;
        value           nonuniform List<scalar> 
25
(
1.21426
1.19834
1.1843
1.17446
1.16818
1.16444
1.16224
1.1613
1.16126
1.16219
1.16465
1.16866
1.17407
1.18079
1.18876
1.22898
1.23196
1.23462
1.23722
1.23887
1.23996
1.24044
1.23918
1.23516
1.22721
)
;
    }
    procBoundary20to12
    {
        type            processor;
        value           nonuniform List<scalar> 
89
(
1.19966
1.20359
1.20714
1.21033
1.21316
1.21561
1.21759
1.21896
1.21977
1.22024
1.22062
1.22114
1.2221
1.22373
1.38369
1.37778
1.37401
1.3729
1.37402
1.37719
1.38267
1.3908
1.40094
1.41238
1.42443
1.43649
1.44804
1.4587
1.46826
1.4768
1.48468
1.4925
1.5009
1.51013
1.5194
1.52705
1.5328
1.53783
1.54283
1.54796
1.55259
1.55558
1.55691
1.55733
1.55658
1.5533
1.54556
1.53114
1.50754
1.47331
1.42852
1.36722
1.30295
1.26008
1.23897
1.22486
1.21501
1.20721
1.20131
1.19709
1.19413
1.19206
1.19051
1.18918
1.18794
1.18675
1.18552
1.18422
1.18284
1.18157
1.18049
1.17963
1.17893
1.17828
1.17761
1.17689
1.17617
1.17551
1.17506
1.17496
1.17524
1.17604
1.17748
1.17956
1.1822
1.18535
1.18906
1.19322
1.19322
)
;
    }
    procBoundary20to13
    {
        type            processor;
        value           nonuniform List<scalar> 3(1.1976 1.20653 1.21447);
    }
    procBoundary20to19
    {
        type            processor;
        value           nonuniform List<scalar> 
27
(
1.08749
1.09798
1.109
1.12042
1.13234
1.14682
1.16321
1.18444
1.21284
1.24636
1.28462
1.31849
1.32265
1.31764
1.30325
1.28613
1.27857
1.27878
1.39875
1.39639
1.35923
1.27832
1.18665
1.12107
1.08839
1.07887
1.08016
)
;
    }
    procBoundary20to27
    {
        type            processor;
        value           uniform 1.28653;
    }
    procBoundary20to28
    {
        type            processor;
        value           nonuniform List<scalar> 
89
(
1.33663
1.34029
1.34461
1.34811
1.34942
1.3477
1.34096
1.32744
1.30435
1.27584
1.25621
1.25037
1.25076
1.25409
1.2583
1.26181
1.26482
1.26708
1.26869
1.27003
1.27144
1.2731
1.27492
1.27678
1.27854
1.28015
1.28163
1.28297
1.28418
1.28529
1.2863
1.28719
1.28799
1.28872
1.2894
1.29006
1.29076
1.29148
1.29221
1.29301
1.29378
1.29443
1.29497
1.29531
1.29532
1.29523
1.29501
1.2946
1.29388
1.29287
1.29147
1.2898
1.28773
1.28524
1.28218
1.27847
1.27416
1.2695
1.26448
1.25904
1.25337
1.24742
1.24116
1.23457
1.22775
1.30097
1.29728
1.29202
1.29013
1.29076
1.29478
1.30711
1.33327
1.36369
1.37486
1.37326
1.36675
1.35299
1.33871
1.33119
1.32888
1.32982
1.33207
1.33421
1.33569
1.337
1.33855
1.33663
1.34093
)
;
    }
}


// ************************************************************************* //
