/*--------------------------------*- C++ -*----------------------------------*\
  =========                 |
  \\      /  F ield         | OpenFOAM: The Open Source CFD Toolbox
   \\    /   O peration     | Website:  https://openfoam.org
    \\  /    A nd           | Version:  7
     \\/     M anipulation  |
\*---------------------------------------------------------------------------*/
FoamFile
{
    version     2.0;
    format      ascii;
    class       volScalarField;
    location    "0.295";
    object      T;
}
// * * * * * * * * * * * * * * * * * * * * * * * * * * * * * * * * * * * * * //

dimensions      [0 2 -2 0 0 0 0];

internalField   nonuniform List<scalar> 
12359
(
7.89579e-85
-4.07736e-68
9.37267e-236
-1.84602e-44
-1.9292e-77
-1.75078e-30
3.2668e-25
1.21179e-28
1.09154e-19
3.01978e-33
-2.4398e-22
-2.81232e-14
0.0416175
1.04555e-41
4.96366e-48
-6.36563e-07
-1.37324e-05
-2.2498e-128
-1.00954e-131
1.15909e-56
-4.48669e-39
9.13943e-17
-3.68429e-63
-2.12297e-53
2.93854e-65
-1.326e-59
8.7056e-171
1.98594e-174
-1.13701e-137
-1.95969e-160
-2.37489e-154
4.00243e-191
1.13436e-210
1.04673e-163
-5.7938e-223
1.24558e-151
1.71969e-103
4.87241e-88
-1.35271e-81
-3.83105e-94
1.52102e-71
2.14306e-91
-1.26489e-113
-9.76686e-116
-1.94734e-144
5.572e-141
3.39921e-148
2.5147e-157
1.61698e-134
-4.0339e-167
-3.49972e-177
-7.06656e-184
-5.23852e-194
8.83897e-125
-2.7323e-200
-6.07659e-207
1.83885e-118
1.98603e-213
-2.79586e-216
1.44645e-219
1.04966e-203
2.62638e-230
2.09849e-180
3.70989
-1.6567e-121
-6.3879e-37
-7.27526e-107
8.35096e-188
-2.8657e-100
1.40288e-09
83.4014
2.00657e-74
-1.62308e-239
4.78383e-97
2.56994e-50
1.90483e-226
6.24833e-197
-1.40448e-232
3.14299e-110
4.41269e-12
-7.74778e-34
-1.28825e-153
0
-1.29338e-94
0.000285917
1.06055e-105
3.32946e-151
-4.02034e-212
0.0907093
7.58581e-05
3.66475e-267
1.80311
1.98837e-269
-7.47067e-125
-8.02716e-100
1.69739e-82
6.30698e-130
-3.45754e-124
-2.15974e-63
-8.89697e-79
5.36423e-28
3.81851e-258
4.0358e-106
12.9893
1.77782e-163
4.63705e-42
-8.5868e-277
0.000342799
3.91768e-114
1.35865e-43
-3.21221e-133
1.23786e-153
-1.19829e-38
1.22356e-32
-3.05768e-100
6.62837e-190
-1.54298e-31
-3.53696e-154
0.416872
-7.59774e-320
1.86921e-133
-1.00022e-28
1.31496e-210
7.71815e-61
1.4462e-151
-8.10306e-179
4.11951e-21
-4.59247e-94
4.74617e-234
2.89663e-153
-6.38209e-189
1.3219e-13
6.16369e-11
1.8718e-11
9.24901e-279
1.53031e-60
-1.13297e-188
-7.16945e-63
9.04749e-253
2.51601e-22
-1.35198e-307
3.75351e-84
5.35975e-57
-2.37718e-278
1.1545e-25
-2.81399e-34
0
8.23511e-05
-1.67046e-162
1.01931e-31
2.00929e-81
9.03267e-255
8.38088e-56
9.29147e-209
1.99635e-276
102.878
3.5852e-29
6.18971e-14
4.42151e-130
-2.09852e-199
-2.81656e-44
-7.45415e-198
2.33779e-61
1.58752e-57
-4.48797e-307
-6.77519e-181
-3.23683e-46
6.73652e-29
2.39573e-59
0.101364
-3.51962e-230
-1.86487e-228
9.10728e-62
4.50898e-67
1.59091e-165
9.19929e-23
1.50746e-144
1.2607e-146
3.1987e-38
5.00923e-24
8.05769e-44
2.36245e-274
-8.84362e-234
9.93038e-153
-4.27554e-65
-4.383e-19
-3.74558e-127
-9.35584e-105
3.91399e-79
-3.75264e-126
-8.00125e-103
2.64351e-84
7.87762e-85
-2.42753e-206
1.69843e-43
16.7577
3.63818e-85
-8.61677e-127
-3.67997e-55
9.01273e-152
-1.09064e-32
4.13491e-80
-1.92966e-77
3.57921e-44
7.05879e-30
1.43882e-275
2.8721e-28
-6.43759e-76
1.18653e-54
2.12606e-137
2.2534e-298
1.73954e-29
9.44007e-29
144.454
-1.8582e-18
1.73984e-252
-4.68545e-127
-6.68135e-102
-5.81476e-126
1.10125e-82
4.6222e-33
9.17561e-139
2.32078e-62
1.92088
6.86421e-153
3.92536e-298
1.22079e-80
2.68444e-116
1.47653e-24
4.32211e-124
3.77705e-122
-6.8639e-311
1.18058e-25
2.27844e-72
-5.09981e-106
6.30827e-74
5.76268e-319
9.01566e-53
-4.15093e-105
9.90564e-06
5.96197e-296
4.46564e-103
-3.90123e-113
3.19347e-12
-2.91062e-42
0.000112185
-3.86356e-218
5.2596e-56
-4.33595e-172
6.84171e-85
2.62147e-38
-4.91844e-91
-3.78579e-150
3.00782e-122
0.701633
115.934
5.05117e-318
2.53955e-144
0.70892
136.351
-2.70326e-77
2.26691e-43
3.80091e-27
1.42924e-44
-1.46209e-68
51.5581
0.322624
3.70777e-40
3.48374e-146
5.7362e-60
1.52126e-60
3.99475e-64
5.45111e-58
-1.33927e-124
1.45859e-140
-8.75811e-298
9.77361e-143
3.53774
5.15958e-40
-8.57297e-258
7.72152e-257
8.62559e-45
-2.54162e-148
6.42187e-109
-3.6416e-104
-1.83085e-311
3.06269e-27
5.51167e-256
2.8688e-258
1.89847e-192
8.52633e-63
1.51068e-156
46.0902
-2.25242e-278
-5.47379e-275
1.28978e-104
7.71872e-174
4.67001e-34
-3.20676e-105
1.02461e-181
-1.25009e-266
2.80687
7.41412e-26
2.03099e-267
-3.01838e-126
-5.19638e-107
-1.15567e-170
-1.43671e-188
7.53907e-190
-3.17839e-168
-1.65214e-135
-4.14468e-19
-4.34971e-171
-8.29911e-155
-1.17187e-89
6.1517e-48
0.0756746
-1.77826e-168
-2.75419e-66
8.79475e-08
1.4873e-258
6.81902e-66
-2.73338e-254
2.73478e-83
2.32835e-274
-1.46292e-167
1.67674e-20
2.81601e-61
-2.93578e-20
6.76893e-110
-5.69293e-114
1.15133e-85
4.68021e-82
-8.2596e-113
1.83847e-86
7.29767e-86
-1.84247e-233
1.27132e-206
2.804e-207
4.69903e-205
4.11543e-205
6.87924e-05
-3.66295e-310
1.42389e-31
2.39787e-65
-2.54862e-68
6.07377e-55
3.66486e-60
-1.81768e-104
-3.01455e-87
4.99854e-61
-3.16323e-87
-3.6337e-67
4.73811e-44
8.64511e-43
3.60569e-38
1.93582e-82
4.40176e-19
4.59359e-86
-9.43069e-86
2.33261e-55
1.00228e-24
-1.3017e-153
7.13382e-199
4.50994e-84
9.2015e-201
3.89529e-153
145.968
13.171
3.56481e-153
8.96418e-249
5.35727e-281
-8.12127e-283
2.63506e-62
3.98978e-274
7.73847e-276
0.178978
9.10934e-58
5.84768e-05
1.43943e-153
1.12363e-49
-4.05413e-150
-1.57634e-111
-7.04739e-43
2.84282e-85
-4.43969e-45
4.10535e-87
-1.47927e-155
-3.83868e-256
7.34141e-59
3.30863e-50
-2.24241e-156
4.9133e-14
-5.65931e-41
7.25636e-83
-1.57889e-56
-3.68816e-47
-9.25376e-250
6.4678
6.26494e-18
-1.41504e-151
6.73698e-13
-5.68936e-87
-3.22781e-305
-1.16188e-306
-6.63843e-288
0.000127824
6.44924e-26
-7.35118e-65
7.10576e-68
1.55015e-82
-8.92215e-98
9.28472e-45
-6.41226e-58
2.26962e-22
0.100976
9.69977e-13
-7.92609e-67
2.24098e-39
3.49503e-112
2.70281e-39
4.65985e-91
3.25984e-82
5.88456e-165
1.86552e-92
5.08021e-60
7.26592e-273
125.845
-2.02927e-106
0.00144243
5.79053e-53
2.97821e-119
9.93381e-37
0.572104
3.55159e-58
4.31957e-84
8.17409e-84
2.8585e-51
8.41499e-39
4.38216e-148
-5.42971e-296
4.31625e-31
2.48897e-272
2.81957e-14
-5.08508e-187
1.18322e-61
1.44727e-43
-1.67055e-133
0.00118657
1.26661e-30
-4.29803e-80
3.2331e-143
1.13425e-06
-5.85058e-240
1.56171e-157
1.29064e-21
2.12431e-247
3.10093e-144
7.24865e-159
4.72495e-09
13.3299
-1.78064e-96
-4.67484e-218
-1.00313e-40
-7.31134e-49
1.13251e-66
4.01876e-53
1.37127e-59
-7.49334e-232
-9.77661e-285
-2.5995e-54
8.78155e-264
6.99969e-45
4.2727e-67
2.89356e-40
-2.54613e-148
1.02368e-32
2.33208e-20
1.59659e-163
-1.28473e-98
-2.63955e-154
-6.39645e-36
1.1156e-21
-3.32934e-253
-2.52202e-52
7.8962e-63
1.03135e-114
-1.99274e-50
-4.69404e-186
2.15659e-26
-1.86741e-95
3.0859e-57
3.02275e-41
-7.76627e-230
2.39446e-99
1.83358e-13
6.67672e-10
1.0939e-265
-3.615e-78
1.68753e-12
3.42848e-75
0.378781
-2.82042e-289
-8.38622e-189
-8.78695e-238
3.32081e-54
-1.76366e-78
-1.68672e-88
-3.44334e-184
1.75114e-55
1.78503e-79
-4.5324e-71
-9.21026e-142
1.29462e-05
-4.90585e-268
4.26013e-05
6.94025e-214
138.314
-4.12103e-94
1.70475e-14
-3.34652e-217
2.46602e-150
2.52073e-46
8.38953e-155
2.82212e-183
1.75154e-112
9.01986e-76
-1.43899e-76
6.17724e-15
3.03242e-34
7.03622e-35
0
-5.58893e-156
3.72972e-64
1.36045e-09
0
2.56179e-262
1.37719e-61
-3.44474e-235
-2.62966e-21
0.683592
40.1772
0
-3.62131e-105
5.64762e-37
-1.81477e-85
-2.51683e-166
79.765
2.76455e-266
2.29998e-29
3.83151e-42
5.99439e-106
-1.34509e-169
6.39855e-180
2.34127e-135
1.90507e-66
1.46069e-88
-2.83021e-94
-1.92933e-320
-2.54227e-232
-2.57114e-80
-6.31189e-145
2.09618e-36
7.49578e-55
1.05305e-190
1.24019e-259
4.77193e-43
123.874
-4.02145e-156
4.25305e-23
2.1752e-283
-3.04168e-93
6.65526e-30
2.26379e-77
1.42981e-39
1.40799e-35
-2.51159e-78
9.82529e-60
-1.80788e-301
-2.68905e-224
5.85456e-81
-1.4644e-96
-2.24737e-79
1.45538e-98
2.04593e-279
-7.06957e-259
9.70244e-180
-1.03721e-62
4.33275e-53
-2.4799e-41
-6.88132e-105
-7.55839e-39
-3.80701e-56
5.9763e-80
-1.53481e-37
2.2723e-66
0.00208876
3.02151e-56
-4.77672e-65
1.54624e-38
-6.78521e-227
6.04734e-31
1.07091e-45
0
-4.70035e-246
-5.9829e-234
-1.26923e-222
1.61821e-09
-2.03041e-80
4.53222e-123
-1.92834e-40
2.61459e-111
2.3073e-19
2.28921e-76
2.0854e-65
5.34672e-178
5.62588e-17
2.79804e-280
-3.67349e-62
-4.99926e-144
1.99933e-23
8.07466e-38
-3.00038e-84
2.48678e-81
5.72625
9.59085e-59
2.70795e-18
1.67319e-90
3.39496e-14
0.283333
9.54909e-223
-3.15342e-151
1.26334e-281
2.13719e-11
3.79176e-152
2.48159e-88
0.00115983
7.78811e-264
4.5866e-69
1.38871e-42
7.89143e-85
3.20305e-153
1.44208e-85
-9.67082e-206
-5.38514e-82
-7.62347e-204
-1.53469e-207
-3.14935e-87
9.01006e-61
1.20647e-61
5.06704e-83
-5.30667e-11
9.63441e-79
12.7129
1.8403e-56
-5.759e-104
-1.6063e-84
1.92143e-58
-1.13381e-66
9.16816e-84
0.250256
-3.22667e-44
-1.38248e-69
4.48415e-71
-1.03739e-133
6.90084e-147
8.17699e-44
-1.97926e-294
1.02795
2.67986e-194
-5.74791e-43
7.14031e-29
2.73287e-10
5.97801e-31
3.89189e-48
6.98707e-45
2.73571e-92
9.75272e-31
4.51337e-52
2.2298e-18
1.46501e-72
2.91483e-20
4.25305e-71
-4.7083e-314
1.47088e-66
155.89
2.9295e-16
-1.34884e-122
-6.62393e-305
1.2489e-188
1.25469e-106
2.1663e-63
6.27154e-63
-9.61242e-91
-3.45573e-233
3.00911e-119
-2.96029e-65
1.29495e-124
3.58446e-141
4.51709e-20
8.44405e-121
1.66019e-55
1.81251e-44
-2.50556e-120
3.23551e-114
1.32471e-34
0
-5.03729e-113
39.4035
3.144e-222
4.05188e-24
9.16875e-30
-6.136e-116
7.89607e-41
4.68122e-44
-2.64042e-67
8.51922e-38
-3.60723e-154
-2.18453e-41
1.68813e-166
1.04324e-86
1.54935e-46
-4.75851e-39
-5.19113e-154
1.42189e-58
8.0464e-14
4.73995e-59
4.48409e-90
7.25312e-150
5.3167e-30
4.59005e-08
-3.30761e-137
6.50396e-252
-2.34213e-68
9.74975e-271
0.323088
4.20139e-71
5.00253e-16
3.75188e-93
-2.47602e-92
6.36874
5.13866e-86
0.000310223
1.20759e-64
35.6303
7.39954e-64
-4.70308e-93
7.89766e-88
1.3314e-116
0.000377645
1.36287e-05
-9.61587e-220
1.48056e-216
-3.66487e-36
-3.17482e-203
0.000823434
1.95112e-40
2.1211e-12
7.26734e-150
118.567
0.0366095
6.78135e-71
-7.04643e-313
3.28886e-160
-4.5854e-47
4.99516e-106
-2.51848e-103
-1.09102e-101
3.91022e-60
1.39535e-53
9.00605
-3.4793e-10
-2.22306e-235
2.51687e-46
1.27815e-36
1.4036e-34
7.01566e-93
2.9216e-28
3.47418e-55
-1.02586e-45
3.46686e-154
-1.68391e-310
2.36047e-33
1.02565e-29
-3.18569e-92
-1.02149e-37
3.62478e-17
-1.00275e-105
-5.61957e-69
-1.91506e-142
1.98908e-105
2.62598e-18
6.2e-104
1.78205e-40
4.06589e-52
7.66844e-72
7.4703e-133
-8.1633e-95
1.05304e-14
8.34065e-96
3.41807e-94
9.30371
5.83138e-62
-1.38127e-106
0.00248315
-9.40706e-319
7.15051e-94
-1.44539e-75
-9.04152e-108
-3.5287e-181
1.61471e-70
0
2.6612e-12
-7.04448e-158
-3.54895e-69
3.79615e-31
3.80501e-40
2.25664e-87
2.89879e-91
6.75107e-35
68.0942
-5.40597e-225
8.39997e-118
1.15086e-106
0.00198386
2.00701e-29
-2.43813e-156
1.19924
-3.93796e-310
-6.09388e-161
145.03
-4.42426e-119
-5.19966e-152
-2.95198e-148
4.30763e-53
-5.20163e-50
-9.61134e-220
3.13917e-112
8.74622e-31
1.62668e-76
4.97066e-82
-5.98605e-103
6.71119e-221
-1.65359e-48
3.04339e-09
-1.04721e-82
-4.68659e-39
6.90021e-66
1.04385e-85
1.90538e-13
1.34821e-38
-4.08597e-101
2.73168e-158
3.61793e-05
5.52851e-61
5.29654e-58
8.87184e-142
-1.05789e-220
5.0021e-44
7.86464e-17
5.44413e-99
1.66425e-39
4.25352e-97
-6.23442e-100
1.476e-131
7.94035e-49
131.371
13.6596
9.05589e-48
-2.1704e-81
-2.39706e-133
1.25629e-50
0.00314553
-6.82501e-42
-3.45187e-158
3.34092e-19
1.28662e-10
6.8347
5.64723e-122
57.2111
-4.44333e-223
-2.89921e-98
-4.2586e-219
3.96327e-14
1.45698e-56
55.8239
5.81808e-167
0.00596756
5.51923e-202
-8.60052e-82
1.46176e-48
1.56446e-106
3.78876e-19
0.0015467
-4.92178e-116
-1.49961e-133
-2.50308e-98
2.58157e-122
-6.28048e-118
4.41353e-17
1.4079e-59
1.9945e-90
2.43487e-19
-1.0805e-118
-2.28679e-215
-2.05719e-85
7.16127e-187
2.45298e-33
1.19402e-99
1.7488e-12
2.75061e-14
-5.85458e-53
3.56546e-47
2.57484e-54
3.39987e-88
0.00324131
3.59295e-102
-5.60577e-124
5.32463e-279
7.05259e-18
-1.65924e-43
2.55088e-168
3.06255e-35
1.21087e-105
4.77159e-48
-1.98942e-46
-1.35532e-40
5.38339e-56
78.309
1.02545e-53
-1.82876e-51
0.00111101
2.146e-107
4.83692e-09
8.92623e-39
-4.77626e-208
2.44755e-100
-5.47943e-142
4.85139e-91
-3.04581e-303
1.81885e-150
3.18557e-10
2.95407e-16
4.54825e-154
144.825
5.33263e-36
1.26531e-196
9.00389e-15
3.03088e-20
-4.29258e-201
4.00072e-13
1.26263e-32
1.40982e-14
-8.516e-204
3.61827e-148
3.59455e-127
-5.94369e-202
9.01709e-44
14.5134
-7.22757e-163
7.74314e-15
-1.06619e-320
1.47564
9.18597e-38
1.43184e-56
-3.23325e-268
1.67127e-165
-1.83001e-96
6.73473e-58
7.5603e-19
1.29416e-47
-4.96067e-119
1.17944e-111
-1.50347e-205
3.21176e-40
2.57115e-47
-3.38044e-140
2.05905e-246
3.16908e-78
7.40076e-49
4.99476e-55
2.56776e-178
1.63465e-09
-2.21537e-35
-6.7823e-203
6.81004e-64
8.7495e-113
4.85513e-96
167.033
-1.40199e-120
-4.04036e-196
2.98325e-63
-8.14596e-45
-5.20163e-56
1.50309
1.15091e-70
8.12142e-105
5.8029e-46
-1.13785e-108
2.47346e-110
5.85857e-103
-6.82718e-107
-4.43987e-34
-1.15247e-94
11.7913
-1.97986e-54
8.60899e-12
-4.43323e-109
4.21706e-08
9.67457e-39
7.0738e-19
5.91261e-17
4.76956e-58
3.05258e-108
6.91299e-112
-5.93098e-80
-5.48413e-322
-1.28214e-98
2.18097e-44
4.06103e-26
6.4193e-110
-3.48908e-204
1.07062e-62
1.18222e-53
3.10193e-28
3.61143e-49
5.67694e-19
1.4912e-28
-1.72632e-139
1.15703e-62
0.0226159
7.3061e-46
-4.04632e-308
1.82316e-123
4.7523e-109
-6.32036e-312
3.45696e-64
-3.16197e-225
-8.53478e-97
6.17941e-19
1.52339e-41
2.34817e-09
-2.79619e-221
3.8433e-167
3.78615e-269
-1.68758e-110
-5.43557e-131
1.81857e-18
-3.17457e-130
1.11615e-166
1.05855e-08
5.01622e-52
7.95758e-81
8.25449e-66
4.9564e-22
9.97165e-124
9.19961e-15
5.54719e-113
-2.58846e-217
0.000107641
6.97682e-69
5.03487e-25
-1.98587e-124
42.3557
-2.13909e-49
-1.37677e-59
8.38103e-62
5.49092e-41
7.37149
7.73716e-108
3.99672e-20
2.23401e-54
7.66221e-62
1.51953e-161
1.63053e-97
3.84444e-09
-5.66576e-98
5.99478e-13
-2.42648e-117
-3.46856e-122
1.18595e-15
-1.24395e-190
-7.56801e-144
7.25001e-106
1.51303e-67
1.10908e-13
-2.79096e-118
2.95671e-110
3.09461e-287
5.10887e-53
9.39711e-05
7.91563e-60
-2.70074e-111
9.56537e-81
3.09352e-125
1.39505e-161
8.99777
-4.48825e-59
-3.82274e-255
4.37906e-61
6.28046e-127
-8.89253e-48
-5.32107e-33
1.56636e-79
4.42793e-107
8.28743e-21
1.32156e-15
4.26177e-273
1.08397e-82
2.5238e-16
4.97349e-169
4.04395e-232
-2.41024e-76
8.05314e-72
-1.45569e-100
4.11674e-230
-3.72335e-70
3.09067e-15
1.04132e-198
3.16321e-31
-3.60579e-222
3.48908e-140
4.36025e-69
4.87228e-06
-1.0769e-285
1.23339
-1.72863e-57
9.39536e-30
14.6137
-1.97628e-52
8.0665e-81
0.0108569
-1.09459e-109
1.31976e-06
2.18105e-23
-1.15827e-81
3.82327e-100
5.9487e-102
-1.99869e-122
-2.87959e-129
7.14288e-38
0.00810489
146.254
6.91776e-43
-3.38887e-33
2.86797e-07
1.11677e-45
0.822311
1.8969e-182
-7.01015e-120
4.47551e-24
9.17514e-62
2.5624e-148
2.81244e-43
1.83577e-110
6.44861
-5.05281e-307
1.90046e-151
-3.12868e-176
161.097
1.55595e-42
6.92308e-55
-1.28964e-97
1.71235e-23
-1.44433e-104
3.03968e-170
5.60208e-09
1.78478e-108
6.20768e-09
1.65297e-37
5.88973e-101
1.15603e-20
2.81941e-67
2.20457e-117
-8.96903e-164
1.57791e-159
0.0998457
8.07558e-17
-5.90449e-144
1.06551e-22
5.21416e-82
4.04843e-35
-4.49903e-282
5.03572e-70
3.01636e-09
4.27502e-22
-8.23151e-51
-2.47824e-83
3.09652e-165
3.6338e-27
-7.36238e-105
1.41786e-168
4.47439e-13
3.47882e-25
-1.48002e-135
-1.09944e-36
8.26222e-76
-1.40067e-272
-3.45444e-150
-6.51056e-244
9.95163e-49
51.1321
3.97342e-14
3.0686e-29
-1.37828e-141
-9.83184e-103
1.22847e-67
-2.69204e-260
8.13233e-11
1.62359e-68
40.0517
-1.13741e-31
9.52702e-102
-1.74231e-136
8.29332e-180
3.78599e-110
-6.01082e-108
-9.6384e-146
8.84236
1.01016e-23
-9.61815e-48
2.02332e-21
9.05228e-52
1.02262e-167
1.18576e-322
-2.12083e-146
3.77567e-34
0.163416
-1.68558e-26
9.20151e-63
-1.43623e-60
1.19797e-84
1.15257e-24
0.00989094
0.00726914
3.47841e-105
-9.6032e-86
-1.22279e-42
-2.35715e-128
-3.37664e-236
-7.02142e-148
2.61346e-21
-4.57071e-132
2.12903e-83
-1.6704e-116
2.76987e-50
2.25535e-11
-1.00153e-123
-5.10119e-147
5.70036e-15
1.51064e-26
1.33598e-107
-1.86564e-160
-3.28831e-62
1.14463e-10
3.03228e-34
-7.26653e-34
-2.16178e-65
-3.07488e-91
0.000186712
-1.24786e-101
-1.37563e-26
-2.1139e-161
3.30345e-15
3.51023e-16
-5.04168e-214
7.44611e-176
79.6813
-3.39052e-150
-3.14795e-91
6.83347e-38
1.02965e-129
5.03434e-129
-8.12991e-115
-3.34798e-152
4.96406e-269
2.48326e-36
3.33771e-07
4.28531e-180
0.00464714
4.54309e-114
-1.2806e-152
2.03287e-15
5.91508e-11
5.7308e-35
7.56582e-108
-6.44077e-145
-1.53582e-55
134.375
-1.50568e-131
1.26482e-181
-2.68711e-188
2.49115e-131
-8.63425e-74
8.82051e-44
-3.30711e-135
-4.43405e-89
-2.503e-146
4.12465
2.94699e-11
4.14001e-68
2.36248e-47
3.6947e-112
-3.55368e-152
1.68301e-27
0.633916
-3.54664e-90
7.58641e-186
-3.85181e-154
3.74078e-17
8.21469e-131
3.52407e-164
8.73188e-17
4.39979e-109
5.92948e-151
104.833
1.84066e-14
0.31121
1.34579e-27
1.73655e-132
4.32087e-25
1.16974e-12
0.0573811
-3.28035e-121
8.5325e-47
1.26775e-263
0.0458767
-1.643e-311
-5.85689e-122
2.12292e-115
-3.30291e-186
3.97157e-58
-1.33992e-105
1.94899e-130
3.93441e-122
1.48665
1.76118e-17
1.79694e-61
-3.60926e-146
8.88185e-40
1.42908
5.04769e-13
2.63419e-53
-9.53352e-64
-1.72432e-122
3.53203e-106
-6.56161e-183
2.70669e-137
5.5776e-178
-7.48113e-149
-6.94833e-54
2.03913e-18
3.97236e-25
0.133942
1.23627e-05
5.43815e-11
1.1216e-32
0.0477372
1.37896e-165
1.2142e-06
-3.35841e-155
0.000286355
6.09652e-14
6.93935e-50
3.50461e-134
2.87215e-48
4.99393e-36
3.51731e-90
34.558
2.84639e-15
0.148665
-1.01352e-150
1.93652e-12
1.07059e-08
3.47432e-14
4.69036e-09
6.92959e-14
6.91221e-152
2.23982e-112
2.84786e-66
-6.88499e-140
7.99994e-39
-6.66839e-126
-9.10311e-51
5.0864e-216
-9.86121e-115
2.08096e-36
1.07914e-56
2.83769e-170
-1.01962e-58
0.204845
76.4022
-1.15009e-187
3.53991e-61
3.39899e-110
1.25654e-12
1.52753e-40
3.30364
3.45849e-06
9.71276e-123
3.23534e-56
7.75277e-09
1.37679e-27
3.78443e-07
2.1529e-67
2.02633e-14
-2.46356e-174
0.0607681
1.53988e-15
-5.03354e-158
3.03568e-09
0.000720186
2.22684e-56
0.862326
3.38476e-117
1.11114e-10
7.83185e-99
-2.10195e-193
5.01306e-93
-1.09735e-102
0.0211854
2.7648e-11
0.0067472
-8.89339e-171
1.19801
6.18596e-50
2.2305e-17
-5.22999e-39
5.92677e-59
1.25693e-70
0.00198089
6.44855e-116
1.54254e-131
8.40867e-36
3.94928e-11
8.19764e-39
1.44557e-27
-5.55847e-72
0.0171743
9.84519e-38
2.32111e-39
2.19712e-11
2.85013e-197
2.51965e-09
5.04456e-23
1.04516e-09
-3.21814e-94
2.47614e-05
1.98331e-180
2.5979e-40
1.04491e-69
4.62304e-14
-1.33182e-88
8.31798e-37
2.48214e-10
68.7657
2.67039e-122
9.60239e-63
3.08695e-58
3.39987e-20
8.32536e-31
-8.38915e-121
1.86849e-52
7.72727e-182
9.56472
7.63523e-277
1.29111e-181
-6.92419e-242
4.2591e-10
4.7366e-149
-2.31113e-49
0.108688
1.25445e-73
-4.21622e-72
1.52081e-141
5.41129e-229
9.91804e-12
-4.12239e-187
2.57352e-50
8.96859e-16
-4.68163e-57
1.52057e-07
1.26502e-120
1.41184e-51
1.58753e-09
1.1528e-27
-4.31864e-91
76.2333
-1.55696e-281
4.03781e-223
1.14683e-109
164.293
-4.97322e-96
2.16857e-100
1.90885e-09
-9.02232e-135
1.24595e-118
2.5787e-22
8.89654e-08
8.31647e-43
0.000480939
-7.23882e-133
5.5566e-111
1.73764e-65
1.57002e-69
2.75283e-14
-3.64911e-157
-4.04945e-99
-1.2178e-68
-4.73674e-20
1.4921e-82
3.87599e-172
-1.63116e-52
-1.59219e-22
-5.72999e-238
-4.29273e-234
3.1272e-06
3.94744e-42
7.72192e-06
2.64939e-117
-3.95293e-306
-3.77039e-21
3.01972e-10
6.57316e-167
-7.37487e-130
3.50835e-184
5.09361
1.20172e-237
2.20023e-44
8.16298e-07
1.2626e-231
5.88317e-227
1.54044e-28
-3.72941e-197
-1.39751e-233
1.59494e-63
1.49977e-16
4.07834e-174
5.25379e-29
-1.09252e-188
7.87204e-10
-4.86525e-309
3.102e-09
1.04857e-15
2.27783e-33
-2.42404e-231
9.63592e-23
3.30947
2.45936e-128
1.61629e-59
-4.68257e-201
4.89434e-17
-4.53228e-191
6.67364e-09
8.18877e-14
5.85336e-106
3.77492e-237
2.76754e-16
6.80119e-18
1.10215e-71
1.11308e-70
7.06983e-20
-3.639e-195
1.12e-23
3.74664e-239
2.08397e-08
6.15437e-11
3.08431e-15
2.68854e-32
-5.39252e-28
1.92239
6.03886e-37
3.11796e-69
2.22402e-18
-1.49144e-125
2.21531e-20
1.27354e-19
2.22609e-53
1.10321e-108
0.0212068
-3.83427e-261
0.00637789
96.0659
-4.72329e-138
7.75203e-13
34.7385
6.90071e-44
8.53902e-67
3.45196e-24
-5.99833e-67
1.08593e-179
3.34104e-10
0.00290698
0.398425
-1.10084e-125
6.41789e-29
4.66739e-06
5.38755e-17
3.14779e-147
4.68052e-218
2.17507e-54
0.00172439
8.38298e-11
2.59465e-20
-3.11767e-289
-2.20005e-191
4.55446e-18
-2.71846e-133
1.24665e-60
-4.31579e-128
2.7374e-232
2.97953e-09
9.54453e-118
7.34547e-07
2.01911e-70
4.65744e-208
7.7588e-219
3.89526e-18
-8.51106e-127
8.69491e-44
4.56281e-20
0.0160883
-5.62449e-62
1.35146e-172
7.23065e-08
-7.26566e-108
9.67242e-184
2.6223e-94
1.94446e-17
-5.43773e-127
5.27233e-17
1.74314e-63
164.812
1.12061e-18
2.92222e-164
6.8066e-07
-1.02153e-240
1.30361e-11
8.85913e-51
3.48182e-07
0.000360078
6.67599e-55
3.68571e-06
4.49581e-206
3.67233e-12
-1.13104e-142
1.07864e-62
1.41934e-07
1.21628e-38
8.72546e-08
0.00328636
-7.99747e-24
5.05177e-11
1.16329e-07
5.36187e-169
6.51455e-187
-8.11224e-239
3.4277e-06
-2.66942e-29
3.52268e-167
1.37055e-09
1.44909e-08
5.55076e-58
2.25748e-21
7.73243e-75
5.03321e-43
6.74973e-06
-1.35568e-87
6.85037e-46
3.68512e-46
5.68122e-264
8.17522e-262
-1.70768e-168
-4.34196e-125
5.88964e-72
9.01971e-211
-4.19976e-105
-1.58213e-120
-1.16168e-74
6.43646e-36
7.6586e-148
7.725e-09
-4.83232e-311
5.99128e-15
1.82414e-07
-6.06122e-161
4.9613e-06
5.37035e-19
1.61445e-08
-2.63078e-81
1.00342e-20
-2.86022e-135
6.4339e-52
4.35245e-66
6.55019e-221
-1.1957e-141
1.43976e-112
-5.31771e-159
4.61042e-245
1.41787e-67
4.12316e-247
-7.94978e-38
1.732e-34
0.022173
4.57755e-213
3.23788e-75
9.52202e-209
3.37939e-132
8.67558e-27
2.1929e-78
-3.29415e-165
112.982
2.43822e-17
6.25252e-42
4.50578e-74
2.53468e-19
1.07479e-28
-5.79306e-95
1.06578e-26
8.96542e-17
9.77476e-121
2.77789e-241
-1.64644e-102
3.97132e-11
-9.74593e-187
-9.90617e-170
1.11176e-16
-1.50442e-138
-1.02707e-133
9.5826e-106
3.02526e-172
1.99478e-05
5.36929e-211
-1.0399e-171
1.36451e-33
1.0388e-26
0.554317
3.8276e-16
-1.34706e-72
-9.64032e-163
4.23978e-26
-1.03763e-164
2.37972e-36
5.22059e-81
7.46731e-121
2.32816e-07
7.66607e-227
7.92846e-29
6.39471e-66
1.05271e-18
3.36637e-51
7.69802e-251
-2.46987e-122
-9.63732e-309
3.10532e-33
-1.06596e-189
4.20899e-24
1.47168e-61
-1.39243e-113
-3.025e-70
1.34191e-53
1.52677e-243
4.49665e-28
3.40198e-32
-1.61943e-126
4.57101e-32
4.90769e-10
4.9762e-231
1.86613e-53
6.97889e-14
3.58695e-21
-5.66204e-93
-5.56708e-55
-2.69246e-53
1.22575e-64
-2.39052e-89
6.81208e-18
-3.00381e-89
1.27898e-161
3.29694e-163
1.58093e-05
1.14427e-10
9.85755e-08
7.21371e-08
-1.78225e-43
2.92881e-26
6.23593e-61
3.23882e-27
1.62542e-163
0.152609
-6.64602e-133
1.62488e-07
3.3668e-18
-1.53423e-166
-5.64367e-31
2.24606e-11
2.62986e-09
2.75834e-59
1.26457e-35
1.90106e-165
6.97774e-271
1.02135e-18
1.84972e-241
4.8669e-214
5.1698e-21
1.24753e-133
-5.91657e-83
9.73378e-171
2.48446e-117
5.12584e-19
7.48837
-1.3091e-133
1.46398e-139
3.53162e-12
-3.35021e-47
1.87788e-13
3.77128e-33
6.04108e-32
1.50544e-135
-5.68848e-50
6.7102e-29
2.90961e-21
-3.32822e-37
5.32006e-179
5.57336e-16
2.606e-41
8.25278e-25
-2.46722e-103
1.38742e-168
6.84717e-21
-2.81258e-130
1.83779e-232
3.51135e-30
3.21002e-10
-6.78465e-212
7.49972e-32
2.43288e-64
8.3331e-147
-4.73761e-95
-1.81198e-145
2.76513e-30
1.53958e-161
1.67803e-170
1.62618e-68
6.37292e-31
-1.26067e-49
-5.66663e-35
7.02333
8.63323e-124
9.00535e-76
0.00302013
2.44711e-45
-3.83927e-147
7.26527e-43
5.02461e-09
3.99996e-221
-2.43769e-137
4.5319e-235
9.26653e-35
3.90089e-18
-7.66117e-70
3.38048e-249
-1.41852e-99
-2.21802e-91
3.2524e-112
2.47825e-11
-1.0375e-132
3.66572e-250
5.51453e-243
4.56846e-38
1.93164e-60
1.06115e-06
2.04522e-104
-2.75164e-60
4.11232e-53
1.39404e-24
4.68032e-185
1.20105e-30
3.81182e-225
6.45604e-215
3.27655e-240
8.24658e-13
1.87851e-131
2.30705e-32
2.04693e-39
1.86475e-37
9.22171e-26
3.5554e-37
8.27757e-17
1.83335e-31
1.63889e-128
7.99203e-46
1.67923e-57
6.3525e-48
5.41495e-26
-1.53038e-136
23.6919
1.68647e-20
2.52023e-23
4.0292e-212
0.63956
8.64472e-25
4.55643e-27
1.01368e-36
1.00616e-16
6.994e-77
2.09822e-121
2.79663e-119
2.72577e-127
1.51823e-120
8.74177e-23
1.27388e-27
3.48554e-139
1.19272e-37
4.09753e-114
1.07945e-119
1.61532e-75
1.38955e-56
2.72677e-96
3.17568e-69
-6.81338e-56
3.34626e-44
9.0871e-33
3.40563e-67
-6.29052e-215
-5.93248e-102
-1.0039e-126
1.90955e-13
-1.93665e-189
3.54043e-135
5.2644e-36
0.0341369
-4.28632e-161
2.73265e-06
2.28298e-166
-1.17884e-131
6.95129e-68
1.22074e-39
6.04417e-47
-9.8256e-186
3.97595e-32
7.12319e-33
4.53466e-14
7.17122e-213
1.17448e-41
2.38758e-57
1.46009e-86
1.14739e-238
-1.41021e-287
-6.13095e-36
8.12562e-60
8.86362e-85
17.9888
3.98091e-31
8.28017e-44
-1.74076e-30
9.01832e-70
1.80861e-13
1.71716e-122
-4.55985e-71
-9.81731e-103
-1.04268e-111
9.10238e-06
1.40671e-40
1.71163e-29
1.47259e-49
9.81256e-179
5.47777e-31
6.3612e-30
1.80038e-12
8.2553e-114
1.96171e-44
-3.3952e-06
5.72617e-06
3.11963e-168
6.10109e-10
4.4833e-76
6.15099
2.91927e-230
2.16663e-33
1.48939e-50
8.6913e-258
3.38243e-26
5.20782e-93
-1.18143e-97
6.13328e-21
4.84357e-07
2.0472e-13
-1.22876e-96
6.15096e-37
-2.73982e-228
-2.46999e-129
1.38835e-07
-1.0267e-39
3.35511e-111
4.64938e-31
-3.60299e-26
1.70289e-38
2.57689e-59
2.63039e-54
4.78267e-39
4.16116e-06
1.06439e-176
3.62422e-57
1.24545e-73
2.48576e-35
5.74097e-09
1.53993e-35
8.15397e-45
-9.85005e-99
2.42136e-234
1.4706e-33
4.92312e-43
6.77736e-35
-5.8029e-182
-2.58193e-79
9.38169e-44
3.53833e-37
-1.8291e-29
4.4458e-31
1.97704e-102
1.48875e-40
2.51973e-133
1.54198e-23
1.42848e-75
6.36928e-33
7.00173e-78
-5.98781e-95
2.04597e-37
-1.65462e-79
8.46447e-89
6.64333e-108
1.03803e-177
1.15441e-52
1.10812e-63
9.89108e-77
0.922724
0.000386281
6.52347e-143
3.40071e-113
-7.80673e-58
1.0424e-58
1.19355e-248
2.55796e-37
-4.47749e-45
2.11989e-40
-2.49142e-230
9.83196e-17
2.10915e-32
4.94955e-20
4.30587e-38
-2.13692e-213
-6.44601e-116
1.37976e-86
2.25176e-40
6.71378e-11
4.38133
-3.68801e-173
-7.91365e-83
-3.21285e-94
5.12339e-11
3.46588e-06
3.99382e-13
-1.7912e-65
5.51527e-36
-3.38932e-228
1.22438e-53
-1.04568e-65
-6.5028e-171
-1.10604e-26
-9.52874e-61
1.30793e-48
1.12077e-34
7.12434e-87
4.54039e-60
1.79847e-43
-2.65215e-215
0
8.44738e-58
-8.22331e-84
4.45176e-10
6.32358e-75
-8.18909e-28
1.44957e-16
-2.76181e-51
-5.36804e-172
-2.2148e-74
1.73286e-33
5.87494e-176
0.000191666
9.12369e-06
-2.00829e-143
6.64325e-225
2.64953e-138
2.78338e-178
1.27738e-261
5.02619e-76
-2.85797e-93
5.92387e-38
4.87732e-62
2.82776e-42
3.39162e-60
3.82222e-11
2.17449e-35
1.19953e-40
9.48017e-65
2.83816e-74
-3.70819e-45
-3.00368e-214
-6.56016e-94
3.1884e-96
-2.00604e-39
-6.68061e-32
2.57169e-11
1.38419e-264
-3.49615e-33
3.26622e-52
5.77241e-69
1.36871e-28
3.03107e-48
2.62202e-31
1.7698e-06
2.11483e-55
3.17138e-23
4.68283e-74
1.51959e-115
6.45462e-55
5.34503e-43
2.89282e-178
1.43302e-65
3.93026e-05
-2.33385e-98
5.05404e-07
2.86789e-169
2.53185e-43
1.80742e-114
1.03188e-103
4.67012e-37
-3.38688e-25
8.05898e-30
-5.74447e-93
-6.02127e-69
2.36259e-69
1.14975e-22
1.57303e-27
-1.50493e-57
4.60075e-18
3.7927e-259
2.58773e-58
4.09954
5.91272e-18
4.16881e-98
0.00450514
4.45507e-30
1.18678e-90
7.24467e-199
5.1315e-13
5.63669e-43
3.71387e-71
-1.11521e-47
1.30141e-175
2.32664e-38
1.97062e-103
2.42517e-22
5.07263e-46
7.62784e-44
-1.63639e-35
-3.48181e-316
-1.66127e-133
1.2723e-82
3.17903e-118
1.43221e-120
1.006e-70
-5.18783e-94
6.30129e-89
5.57773e-29
2.75048e-34
-6.31504e-246
6.13876e-26
-1.43193e-130
-3.17278e-213
-5.38677e-34
-9.78155e-163
4.47901e-73
2.32568e-73
3.14773e-180
6.28842e-177
-9.79442e-105
2.84868e-43
-6.1297e-76
6.0705e-40
2.74333e-50
-7.24111e-33
6.86723e-35
2.63293e-72
-3.21398e-60
7.82208e-49
-5.2827e-281
-3.12402e-78
-3.13406e-104
2.26806e-74
0.000117761
1.05385e-45
1.46893e-88
-6.97305e-57
-6.99584e-79
2.62462e-94
-4.70864e-96
-1.23329e-77
4.85509e-101
-1.95263e-40
3.15164e-53
-1.23446e-215
1.71956e-44
1.27889e-62
4.34071e-42
1.03971e-198
-9.39252e-35
1.07548e-07
-7.54359e-126
-2.28554e-50
2.11956e-32
-3.13402e-143
8.54003e-34
2.04527e-21
4.98774e-46
2.12997e-45
7.93227e-25
-4.24141e-57
-1.24461e-63
1.0444e-51
3.26909e-38
1.23944e-159
3.81145e-103
-7.0013e-271
7.2842e-128
-5.36996e-199
1.51329e-66
2.49326e-59
3.01364e-37
3.1425e-52
1.02616
-5.03767e-25
3.76026
2.58359e-51
2.02035e-12
0.309773
1.11914e-20
5.16308
4.36396e-100
3.19524e-62
-5.85845e-73
5.14887e-76
2.66081e-58
5.18486e-135
9.20408e-67
5.73633e-115
1.00704e-200
-2.41564e-65
0.0448828
1.23953e-69
5.67289e-41
-1.71262e-71
-1.33456e-106
4.7836e-54
-5.68679e-59
-1.25106e-125
1.78016e-64
1.24808e-109
5.09157e-30
4.22524e-49
8.22026e-52
-1.68262e-53
8.14773e-05
6.74059e-19
1.61164e-39
4.23041e-75
27.1268
1.28426e-71
5.79214e-69
1.9583e-38
-2.87089e-36
-2.04151e-74
3.59991e-27
6.38667e-174
-1.62049e-46
-2.37537e-34
1.4848e-54
1.9647e-55
-1.58987e-93
-6.04753e-62
-1.7946e-42
1.32504e-98
1.98717e-39
3.43631e-68
8.01631e-89
3.31274e-171
3.15425e-77
2.46016e-55
-5.13755e-102
7.56925e-75
1.03566e-87
-1.42299e-132
-5.72291e-42
2.88052e-105
1.30057e-20
5.70958e-58
-6.35735e-80
5.54805e-181
-1.91596e-126
1.80813e-30
2.22883e-63
-8.04068e-233
7.19526e-58
0.27179
3.79537e-42
-7.65115e-96
1.39113e-75
2.39602e-05
0.00622675
6.51066
3.40213e-123
2.53014e-125
-2.88312e-122
4.38242e-87
2.53451e-41
1.29504e-09
2.08922e-07
3.31686e-18
4.21117e-40
5.85796e-106
3.21712e-195
-6.69856e-192
-6.11576e-34
-5.60886e-97
1.39315e-34
1.57715e-122
5.45771e-15
2.88843e-112
6.07666e-62
1.28416e-14
-9.82714e-53
1.19458e-32
1.49938e-128
5.44117e-67
-5.48987e-212
1.55734e-28
5.97726e-41
1.56737e-97
-5.81911e-201
-1.46375e-84
7.87733e-30
-6.995e-137
-1.1425e-56
1.40322e-05
3.47484e-224
-7.74887e-94
-4.4108e-48
-7.44771e-49
1.29895e-60
-2.46355e-148
-1.30696e-135
1.59616e-131
1.14614e-245
-9.74691e-191
9.27323e-86
2.52603e-49
-4.39685e-212
-3.19192e-92
4.20583e-137
134.436
-1.85728e-35
9.1967e-130
6.35042e-267
5.44883e-39
-5.15213e-70
1.60364e-28
1.07158e-58
-5.182e-68
2.58777e-204
-8.52374e-132
5.76083e-30
4.94884e-269