/*--------------------------------*- C++ -*----------------------------------*\
  =========                 |
  \\      /  F ield         | OpenFOAM: The Open Source CFD Toolbox
   \\    /   O peration     | Website:  https://openfoam.org
    \\  /    A nd           | Version:  7
     \\/     M anipulation  |
\*---------------------------------------------------------------------------*/
FoamFile
{
    version     2.0;
    format      ascii;
    class       volVectorField;
    location    "0.033";
    object      U;
}
// * * * * * * * * * * * * * * * * * * * * * * * * * * * * * * * * * * * * * //

dimensions      [0 1 -1 0 0 0 0];

internalField   nonuniform List<vector> 
12359
(
(0.980444 0.00212169 -2.03605e-17)
(0.972509 -0.000811753 1.35547e-19)
(0.999937 3.7837e-05 0)
(0.934556 -0.00213236 0)
(0.97763 0.00115723 6.60795e-20)
(0.874723 0.000257 0)
(0.833331 -0.00604808 -3.31669e-19)
(0.856593 0.00122473 0)
(0.784223 -0.00864295 1.40607e-17)
(0.888884 8.62186e-06 0)
(0.801493 0.017671 -1.78481e-17)
(0.703353 0.0616854 0)
(0.272727 0.016791 2.36378e-18)
(0.921058 0.00127049 0)
(0.938519 -0.00158309 0)
(0.48242 0.00975997 0)
(0.391921 0.00785992 0)
(0.994606 -1.20873e-05 -1.42785e-20)
(0.995034 -9.52129e-06 -9.88351e-21)
(0.956531 -0.00121876 -1.14238e-19)
(0.912385 0.000269409 0)
(0.729519 0.00638913 3.3994e-18)
(0.964311 -0.000981632 0)
(0.949145 0.00797084 -1.66107e-19)
(0.967285 0.000342198 -1.19141e-19)
(0.960778 -0.0010786 0)
(0.998208 -1.24333e-05 -1.23773e-20)
(0.998326 1.08752e-05 2.15914e-21)
(0.995813 6.46199e-07 0)
(0.997658 4.07368e-05 -7.01334e-22)
(0.997275 -2.79497e-05 -6.70813e-20)
(0.998834 0.000131884 0)
(0.999423 -2.93934e-06 -5.42077e-21)
(0.997888 -1.39496e-05 1.24562e-22)
(0.999709 -1.49422e-05 6.80255e-20)
(0.996902 4.48506e-05 5.32051e-20)
(0.988763 -0.00017912 0)
(0.983359 -0.00138644 1.94528e-17)
(0.97862 0.000570988 -3.06344e-18)
(0.986812 -0.000577859 1.11928e-18)
(0.973895 -0.000760248 -3.88278e-20)
(0.986166 -0.000129638 -2.12922e-18)
(0.991973 -0.000203586 4.08352e-21)
(0.992536 4.52603e-05 1.36456e-18)
(0.996481 -2.84869e-05 0)
(0.996184 -1.70393e-05 0)
(0.9967 -1.48835e-05 1.01184e-21)
(0.997315 -5.39365e-05 1.76873e-20)
(0.995425 -2.75589e-06 -3.11353e-22)
(0.99807 -1.50795e-05 1.04015e-20)
(0.998467 7.4911e-06 1.58421e-22)
(0.998693 -6.37651e-06 0)
(0.999058 -5.90669e-05 0)
(0.994143 -5.35952e-06 -1.52545e-18)
(0.999234 0.000256211 0)
(0.999365 -1.18646e-05 -5.09389e-22)
(0.993107 1.50398e-05 1.8932e-17)
(0.999479 8.41548e-06 -3.71123e-19)
(0.99955 -2.56193e-05 -2.14979e-19)
(0.999595 3.54434e-05 5.27619e-19)
(0.999296 3.15051e-06 9.99087e-22)
(0.999824 8.04723e-05 2.60066e-21)
(0.998624 -6.79895e-06 0)
(0.141065 0.105871 -2.61005e-18)
(0.993642 -5.34871e-06 -1.77657e-17)
(0.901808 0.000247279 0)
(0.989361 0.00171433 0)
(0.998745 -3.86666e-05 0)
(0.988267 0.00026812 0)
(0.559404 0.03207 -5.23568e-19)
(-0.0891907 -0.205777 0)
(0.976596 0.000545281 -1.25137e-19)
(0.999983 -1.18823e-05 0)
(0.987804 -0.000159246 4.50983e-20)
(0.944595 -0.000797042 2.85607e-19)
(0.999788 -4.60444e-05 -9.32055e-22)
(0.999194 -0.000149874 0)
(0.999889 -2.39578e-05 0)
(0.990519 -0.000793813 2.41647e-21)
(0.666435 -0.0281045 1.31195e-19)
(0.918602 0.060988 -8.25174e-18)
(1.00345 0.00289464 -1.27213e-18)
(1.00005 3.52995e-05 5.0893e-19)
(0.997521 0.0120276 1.41436e-19)
(1.09479 0.124521 -1.47462e-20)
(1.02008 0.000176723 -6.13089e-21)
(1.00353 0.00250716 -5.12426e-19)
(1.00149 0.000167161 4.27033e-19)
(1.1149 0.048432 -3.08522e-21)
(1.08115 0.115498 2.21585e-21)
(0.999896 0.000365773 1.54176e-18)
(0.317778 0.377134 -8.21788e-18)
(0.999999 0.000289541 -3.5032e-19)
(1.00032 0.00558709 5.97324e-17)
(0.99934 0.00982393 1.60417e-18)
(1.02868 -0.00234899 -2.32566e-20)
(1.00005 0.00471532 1.70205e-17)
(0.999565 0.00577641 -1.72024e-17)
(0.990149 0.0302347 -3.6573e-19)
(0.995311 0.0167433 1.2584e-18)
(0.945737 0.0627971 5.43692e-18)
(1.00001 4.20372e-05 1.99828e-19)
(1.01906 0.000878473 1.27225e-21)
(1.16605 0.0386372 -2.03082e-17)
(1.00396 0.000255794 -6.10482e-19)
(1.02861 0.0191425 3.25902e-18)
(1.00038 1.87741e-05 -4.66207e-22)
(1.10722 0.117339 4.03166e-20)
(1.01708 -0.000281993 7.81039e-21)
(1.02711 0.015954 -9.97035e-19)
(1.00001 0.00436992 -2.24513e-18)
(1.00292 0.00309481 3.6231e-19)
(0.941607 0.0493247 -4.00276e-19)
(0.970825 0.0710935 -8.30267e-21)
(0.998759 0.00979147 6.67666e-18)
(1.00257 1.59467e-05 7.20572e-23)
(0.945233 0.0645146 -2.55151e-21)
(1.00409 0.00218955 1.5883e-20)
(1.10289 0.0407638 -1.52199e-20)
(1.00001 0.000141109 2.70866e-20)
(0.999972 0.00436354 1.60683e-18)
(0.8763 0.0224939 2.10445e-18)
(1.00169 0.000146099 -5.95826e-19)
(1.03062 0.00309537 7.49734e-18)
(1.00424 0.00223978 -2.25348e-19)
(1.00296 0.00028398 6.79399e-18)
(1.00549 0.0989083 -1.81593e-17)
(0.997873 0.0107089 -4.66174e-19)
(0.999905 5.36576e-05 8.66217e-20)
(1.00372 0.00230571 5.95907e-18)
(1.00237 0.00042805 2.6958e-21)
(1.06124 -0.0016892 -1.93692e-20)
(1.05954 0.00720717 1.04165e-18)
(1.05587 0.0143686 4.82502e-19)
(1.00034 9.31092e-05 2.02435e-23)
(1.02921 0.00420846 9.09442e-18)
(1.00244 0.000574587 4.98683e-21)
(1.03141 0.00323833 8.99932e-19)
(0.999945 0.000254738 -3.31278e-19)
(1.01244 0.0788476 1.15475e-16)
(1.00001 0.000283744 -2.04393e-18)
(0.983741 0.00233721 4.8653e-17)
(1.02728 0.0106231 -1.81509e-17)
(1.00037 7.35545e-05 -1.98672e-23)
(1.03839 0.0319574 -9.07819e-21)
(0.890962 0.0315576 -7.77993e-20)
(1.00004 4.3157e-05 -1.93394e-19)
(1.08545 0.103434 1.18468e-19)
(1.00473 0.000629825 1.65877e-19)
(0.936838 0.050123 1.17666e-17)
(1.03423 0.00116743 -2.27696e-18)
(0.999979 0.000223329 -1.55766e-18)
(1.0268 0.0110133 4.6826e-18)
(1.00141 0.000240462 -2.67851e-19)
(1.00001 4.79332e-05 8.63455e-21)
(0.669525 1.09162 1.70353e-17)
(0.944891 0.0807901 1.68042e-17)
(1.05981 0.000102401 -6.82499e-20)
(0.999993 0.00472168 4.17614e-18)
(0.998979 0.000464428 2.53237e-19)
(1.00486 0.0388728 -1.50117e-17)
(0.998984 0.000504396 -4.46031e-19)
(1.03099 0.00248073 6.26126e-19)
(1.02854 0.00866173 3.11405e-18)
(1.00011 4.46576e-05 5.5624e-20)
(1.00286 0.000295588 -1.42104e-18)
(1.00479 0.0403676 -1.39037e-17)
(0.880859 0.011072 -1.1461e-19)
(1.02714 0.00886712 7.73661e-19)
(1.10552 0.0605535 6.53546e-21)
(0.999847 3.25613e-05 1.54092e-18)
(0.999826 0.000114703 2.973e-19)
(1.0284 0.00713802 -4.1737e-18)
(0.974363 0.00113437 -6.97326e-18)
(1.00402 0.00111308 1.45754e-19)
(1.00381 0.0831322 7.09334e-17)
(0.996535 0.000732521 3.03146e-20)
(0.996555 0.000592869 -2.15939e-20)
(0.948236 0.0333997 -6.47162e-20)
(1.00339 0.0787872 -6.13464e-17)
(0.93963 0.00440079 -1.95764e-20)
(1.00001 0.000349617 -4.87644e-20)
(0.999874 6.13597e-05 -6.27512e-19)
(1.00357 0.00247576 2.20961e-19)
(0.992557 0.0268259 1.91372e-19)
(0.848585 0.114656 3.0872e-16)
(1.00371 0.00549194 1.49223e-20)
(1.00014 0.0097412 3.07853e-17)
(1.02836 0.0019939 -3.70726e-21)
(1.0048 0.0038842 3.38654e-20)
(1.0004 0.00937987 3.12469e-18)
(1.02723 -0.000460697 6.02137e-21)
(1.03269 0.00138096 1.18586e-19)
(1.00193 0.00029032 -1.1074e-19)
(1.03586 0.0131054 -1.43034e-18)
(1.13071 0.027042 -5.70062e-17)
(1.0142 0.0115671 4.51171e-22)
(1.00342 0.00520144 7.82957e-20)
(1.02828 0.0129759 5.03524e-20)
(1.00388 0.0023198 3.46473e-19)
(0.907489 0.0200578 -1.26241e-20)
(1.029 0.00739643 3.08853e-20)
(0.993767 0.0156297 1.43668e-18)
(1.03215 0.0168382 2.44103e-18)
(1.03249 0.0302212 1.72818e-19)
(1.00001 0.000370533 3.58518e-19)
(1.03686 0.0305431 1.07061e-20)
(0.994168 0.018298 6.0098e-17)
(1.03208 0.00184187 -1.97933e-19)
(1.00523 0.00219977 -2.7524e-18)
(1.00003 0.000315528 3.41872e-20)
(1.04139 0.00795057 2.14592e-18)
(1.0434 0.00317289 6.03956e-18)
(1.41339 0.100139 1.95308e-16)
(0.844019 0.0742367 2.13331e-18)
(0.999889 0.000232552 3.88192e-19)
(1.00381 0.0051271 -7.63657e-20)
(0.998235 0.0101106 2.41628e-17)
(1.00412 0.00506075 2.50166e-19)
(0.983961 0.0013714 8.50536e-17)
(0.946299 0.0637905 8.30176e-17)
(1.00521 0.00407584 -8.9567e-18)
(1.03069 0.00412255 7.16629e-19)
(0.285269 0.175191 -1.86334e-18)
(1.00536 0.00279296 2.91658e-19)
(1.00005 0.000343886 -4.29912e-19)
(0.980794 0.00175201 1.66364e-17)
(1.01742 0.00063454 -1.19213e-21)
(1.00483 0.0788855 2.7495e-17)
(1.00304 0.00563534 5.74113e-19)
(1.00277 0.00585206 1.43187e-19)
(1.00011 4.3225e-05 4.81836e-19)
(1.03762 0.0334307 2.05e-21)
(0.9924 0.0243359 -7.9174e-17)
(1.00042 0.00907129 5.44598e-19)
(0.995042 0.0196962 3.29203e-17)
(1.00004 0.00014705 -2.60619e-19)
(1.02855 0.0117519 -1.03875e-19)
(1.00003 0.00972748 1.18003e-17)
(0.622865 0.252684 -5.20127e-18)
(1.00018 9.3426e-05 -1.1057e-24)
(1.01848 -0.00433079 3.24175e-21)
(1.00026 0.00722637 1.66342e-19)
(0.976434 0.140128 2.4241e-18)
(1.00829 0.0386411 -9.16961e-19)
(1.09035 0.0939647 -1.56106e-18)
(0.999572 5.51981e-05 -1.72715e-16)
(1.0293 0.000245525 -1.02192e-18)
(1.00382 0.000590853 8.88699e-21)
(1.02657 0.000241689 6.20855e-19)
(1.0366 0.00231416 -1.89232e-19)
(0.984843 0.00134496 1.83382e-16)
(0.997066 0.000523109 6.27004e-20)
(1.00257 0.00554009 3.30188e-18)
(0.526945 0.355045 1.31151e-16)
(1.48386 0.170962 -2.79919e-18)
(0.999985 0.000154662 2.34421e-21)
(1.00539 0.00201087 3.51648e-18)
(0.479338 0.382524 -2.36352e-18)
(1.08506 -0.00350564 1.29956e-17)
(0.994619 0.0181709 3.04072e-19)
(1.00319 0.044079 -4.51538e-18)
(1.01933 0.0670193 1.56635e-18)
(1.03197 0.0131813 -1.64963e-19)
(0.9706 0.00354718 -4.28053e-17)
(1.44046 0.0943255 -3.57421e-17)
(1.10308 0.0366701 -1.16211e-20)
(1.00079 0.0490344 -5.3204e-19)
(1.0046 0.00209164 8.15739e-18)
(1.03631 0.00275814 -8.37207e-18)
(1.02823 0.00715061 -1.75489e-17)
(0.989469 0.0261318 -3.78749e-18)
(1.02739 0.00968879 5.37857e-18)
(1.00293 0.00617954 1.09585e-17)
(1.00508 0.00265639 -3.03502e-17)
(1.00018 7.16361e-05 -1.65497e-23)
(1.00486 0.00271869 2.26054e-17)
(1.14531 0.0553837 1.14962e-18)
(1.0124 0.0457729 -3.12389e-18)
(1.00048 0.000165505 -2.82711e-19)
(0.999979 0.000231705 6.59653e-17)
(1.03374 0.0128418 4.65353e-19)
(1.00616 -0.000229954 -3.87328e-20)
(0.990756 0.000427516 9.13788e-19)
(1.01988 -0.00059 2.49097e-20)
(1 0.000216374 -2.05883e-19)
(0.996495 0.0789273 1.03175e-18)
(0.999979 0.000149346 -2.92722e-19)
(0.999995 0.000159027 -2.31548e-17)
(0.999027 7.80997e-05 -1.06642e-21)
(1.02939 0.00234022 -1.58163e-18)
(1.00368 0.00216869 -4.79062e-20)
(1.49266 0.381526 1.32498e-17)
(1.00035 3.34749e-05 3.85171e-23)
(1.00039 5.03428e-05 4.73049e-21)
(1.01883 0.00211159 6.57197e-23)
(1.00357 0.000837135 6.98362e-20)
(0.952182 0.0576611 1.20249e-16)
(0.999033 0.0092528 -7.40873e-17)
(0.998627 0.000189362 -2.89218e-18)
(1.00002 0.000231061 -3.47665e-19)
(1.13698 0.0744318 2.20939e-19)
(1.00006 0.0705224 -4.00215e-18)
(0.999967 0.000265708 -1.17076e-19)
(1.00358 0.00547942 -4.34406e-19)
(0.999011 0.00827899 1.45208e-17)
(1.00401 0.000886674 1.05014e-21)
(1.00271 0.000312826 -6.83982e-22)
(1.00242 0.000126679 1.7436e-23)
(1.00356 0.000628236 1.71063e-18)
(0.994973 0.000921704 7.69941e-17)
(0.845033 0.0613027 -2.10487e-18)
(1.00385 0.00115817 2.52822e-23)
(0.997113 0.000389198 1.90399e-17)
(0.985582 -0.000347245 3.10822e-16)
(1.02328 0.0221202 -1.7487e-17)
(1.09608 0.033512 3.90333e-21)
(1.00462 -0.000450707 -4.1929e-19)
(0.990747 0.0238883 -3.38549e-18)
(0.617827 0.0987853 -2.91733e-17)
(0.999962 0.000235305 -2.27963e-16)
(1.02372 0.00951254 1.32316e-20)
(1.00051 0.000173029 3.93058e-19)
(1.01345 0.0114288 2.83268e-21)
(1.00037 6.74116e-05 9.44517e-23)
(1.00726 -0.000325835 1.7953e-18)
(0.825661 0.046371 -1.48196e-16)
(1.02421 0.0118556 -1.63236e-19)
(0.847411 0.0850629 -7.98888e-17)
(0.991119 0.000356582 1.69192e-18)
(1.00105 0.00696482 -4.72242e-19)
(1.02455 0.00284946 3.97054e-20)
(1.02637 -0.00284592 -5.09681e-21)
(1.00077 0.00683714 3.02032e-20)
(1.02633 0.00752856 5.64797e-21)
(1.02736 0.00245212 1.61658e-19)
(1.00079 0.000115242 -1.2476e-19)
(0.999341 0.000478145 9.12539e-18)
(0.999382 0.000462425 1.16639e-18)
(0.999293 0.000439734 1.77753e-18)
(0.999334 0.000464589 -5.7254e-18)
(0.737187 0.231338 -1.47607e-19)
(1.00008 0.000233644 -2.29793e-20)
(0.947325 0.0670314 -5.97835e-17)
(1.03414 0.00135794 -2.5322e-20)
(0.993766 0.0233536 -1.63588e-18)
(1.02804 0.0102229 9.57205e-19)
(1.02373 0.0124726 4.0183e-20)
(1.01905 0.00184408 8.68603e-22)
(1.01278 0.0111501 5.00275e-20)
(1.02517 0.0106135 -3.01823e-20)
(1.01302 0.0115744 2.43292e-19)
(0.993623 0.0247327 -1.16373e-18)
(1.02476 0.0241661 -3.49332e-17)
(1.02414 0.0278418 8.30771e-20)
(0.956912 0.0477459 -1.29103e-16)
(0.981883 0.00196131 9.15186e-18)
(1.03308 0.0681501 -6.53083e-22)
(0.983448 0.00186416 1.81005e-16)
(0.98358 0.00123683 1.2726e-15)
(1.02865 0.0119957 3.99898e-21)
(0.941603 0.104186 2.44556e-19)
(1.00329 0.00269488 -3.46389e-20)
(0.999351 0.000265779 2.02365e-20)
(1.01451 0.01013 -1.23177e-22)
(0.999332 6.20865e-05 2.10725e-19)
(1.0035 0.00333288 -9.32607e-20)
(1.18776 0.00965555 -2.43359e-16)
(0.353661 0.234953 2.63755e-17)
(1.00263 0.00309647 1.77997e-20)
(0.999948 0.000144704 6.00788e-20)
(1.00032 3.54504e-05 -2.67619e-24)
(0.999946 0.000350527 -2.35121e-18)
(1.02576 0.0111466 -1.70652e-19)
(0.999985 0.000230775 -2.18431e-21)
(0.99999 0.000225675 -9.7065e-20)
(1.10239 0.057232 -1.0892e-21)
(1.02934 0.00909391 -2.55159e-17)
(1.09054 0.178066 7.55249e-22)
(1.00101 0.00319564 5.2407e-21)
(1.03196 0.00885803 -1.75662e-17)
(1.00676 0.000281363 -3.10002e-19)
(0.999252 0.00865709 -8.9428e-19)
(1.02811 0.0243572 6.58943e-18)
(1.01492 0.00923317 7.38706e-22)
(0.931464 0.00667654 -8.33175e-20)
(1.01413 0.00860941 7.34767e-21)
(1.00277 0.0024682 -2.51103e-19)
(1.00053 0.00015749 -5.75705e-20)
(1.02861 0.00750028 -8.76293e-18)
(1.0333 0.00749972 1.44079e-17)
(1.00501 0.000903799 -2.08654e-17)
(0.76304 0.0193382 3.77869e-18)
(1.03082 0.028708 1.59194e-17)
(1.03104 -0.00106813 -8.4203e-21)
(0.994598 0.0325336 7.14375e-18)
(1.0036 0.0375544 4.81983e-17)
(0.999936 0.000235804 -8.52129e-18)
(0.3413 0.457344 3.10749e-17)
(1.03143 0.0735871 2.70708e-21)
(1.00035 0.00334148 -2.73825e-20)
(0.983331 0.16834 -4.88321e-19)
(0.984426 0.00070367 1.00292e-15)
(0.999939 0.000329586 9.72335e-18)
(1.00003 0.000297222 -2.40522e-19)
(1.00003 0.000343421 -4.68964e-18)
(1.10985 0.14133 5.95599e-22)
(0.951488 0.101688 -1.05469e-20)
(0.991381 0.0252281 2.21724e-17)
(1.02437 0.00851074 -6.97509e-19)
(1.02819 0.00264196 -6.02503e-19)
(0.998983 0.0110656 4.01465e-19)
(0.93673 0.00928064 1.32984e-18)
(1.00056 0.0335072 4.18495e-18)
(1.05045 0.00141099 -3.99125e-19)
(1.0962 0.0366902 6.91779e-21)
(0.700197 0.0483075 2.0372e-19)
(0.993929 0.022532 -7.34401e-18)
(0.960687 0.0456014 1.80837e-16)
(1.01496 -0.000711107 -1.5389e-19)
(1.02509 0.0360225 -1.08231e-18)
(1.0078 0.00921677 5.29066e-19)
(1.01516 0.0108372 4.85045e-22)
(0.997685 0.000307078 4.05312e-18)
(1.01034 0.0104023 -4.13482e-20)
(1.02689 0.00995841 2.90563e-18)
(1 0.000295099 1.58404e-20)
(1.09721 0.00898807 2.98169e-18)
(0.991014 0.00111732 -2.05474e-18)
(1.0708 -0.000710641 2.05286e-18)
(1.03396 0.00625119 -4.4883e-20)
(0.994134 0.00118843 6.07609e-16)
(0.955952 0.0504499 -3.48237e-16)
(1.17737 0.232543 -3.44525e-19)
(1.02608 0.0132137 -7.03482e-20)
(1.00804 0.0142694 5.86806e-18)
(1.02677 -0.000695431 1.94011e-22)
(1.02914 0.00613467 6.7028e-19)
(1.02756 0.028144 -1.43132e-19)
(1.00389 0.00259729 -1.87308e-17)
(0.999997 0.000191473 -1.02247e-16)
(0.989956 0.0667941 7.31668e-18)
(1.00032 5.83557e-05 1.48423e-22)
(1.05252 0.00646448 1.1931e-19)
(1.0023 0.000358627 4.26339e-20)
(0.9681 0.00349658 -1.28669e-19)
(0.963758 0.0397252 -3.33503e-17)
(1.01074 -0.000323767 -7.90877e-18)
(1.10208 0.085664 -2.09961e-17)
(0.942643 0.0663307 -3.26504e-17)
(0.99522 0.0156844 6.20356e-20)
(1.00069 0.00389435 8.33865e-20)
(0.554778 0.0724747 -3.17774e-18)
(1.00069 5.43096e-05 -1.74859e-19)
(1.00079 0.00304955 3.85839e-19)
(1.04198 0.0357726 -1.1843e-22)
(0.99994 0.000158072 -1.96063e-19)
(1.00196 0.00382931 1.3771e-20)
(1.0012 0.00278031 3.63291e-18)
(0.780073 0.200177 1.15192e-18)
(0.59434 0.577247 7.25738e-16)
(0.998371 0.0116782 2.80086e-19)
(1.00148 -5.79523e-06 -1.47879e-23)
(0.941888 0.0323933 6.49359e-17)
(1.00164 0.0382496 1.56467e-16)
(1.02438 0.00929558 5.65126e-20)
(1.02982 0.0137084 4.94541e-20)
(1.02792 0.00889818 1.45684e-17)
(1.00088 -3.54586e-05 -9.88819e-18)
(0.999983 0.00031507 -4.49365e-18)
(1.00773 0.0306289 6.48827e-17)
(0.999949 0.000262246 -2.14922e-20)
(0.9663 0.0363904 1.09696e-17)
(1.02428 0.0100073 -1.10906e-20)
(1.02569 0.0328475 -8.72004e-20)
(0.996772 0.00057126 -4.09647e-19)
(0.998681 0.0635306 2.05007e-17)
(1.04471 0.0321185 6.23112e-20)
(0.99791 -0.000166887 -2.85922e-17)
(1.00149 0.0106068 1.47704e-19)
(1.00477 0.000673373 3.82373e-17)
(0.931346 0.0433579 3.29885e-16)
(1.04268 0.0334072 3.88684e-21)
(0.999926 0.000244579 6.38327e-18)
(1.00184 0.0360975 -7.87654e-17)
(1.02808 0.00632228 1.73859e-17)
(1.01549 -0.00011731 -2.09035e-20)
(0.994805 0.0383333 -6.14134e-17)
(1.00288 2.88636e-05 -1.53835e-20)
(0.930945 0.0900298 2.10101e-18)
(1.02334 0.00314628 3.689e-20)
(1.03181 0.00204206 -3.5274e-19)
(1.02529 0.0283717 2.08146e-20)
(1.00085 -0.000218963 -1.73273e-18)
(1.00168 0.0107078 3.85248e-19)
(1.05218 0.0502402 7.73581e-18)
(1.05713 0.00841522 -1.52497e-17)
(0.999988 0.000245851 5.1444e-21)
(1.01081 0.0137589 1.64951e-19)
(1.01998 0.158748 -1.6035e-17)
(1.02939 -0.000171685 -5.74946e-23)
(0.61647 0.470975 6.26217e-18)
(0.99998 0.000360758 -7.8096e-19)
(1.00242 0.000553296 4.23038e-19)
(1.00076 4.90703e-05 1.24904e-18)
(1.02833 0.0108144 1.1731e-18)
(0.995334 0.0165208 -5.32654e-18)
(0.996021 0.011992 -1.47628e-19)
(1.00262 0.000646129 9.43145e-20)
(0.9977 0.0359668 -2.3911e-17)
(1.01617 0.011094 2.62418e-20)
(0.974171 0.003496 -1.45522e-18)
(1.00886 0.00167783 -4.10199e-21)
(1.0813 0.0792889 -8.88543e-18)
(1.00047 0.000105198 9.9178e-18)
(1.08767 0.0827231 -3.52851e-17)
(1.00143 0.000151644 -1.12087e-19)
(0.615871 0.871907 -6.17919e-18)
(1.02739 -0.00115487 -1.96291e-19)
(1.05025 0.0542264 -2.4444e-18)
(0.999548 7.20577e-05 -4.03535e-17)
(0.997107 0.000690554 1.59327e-19)
(1.02451 0.0237053 5.15125e-17)
(1.00341 0.0021847 -2.40505e-19)
(0.99873 8.76382e-05 -1.79356e-17)
(0.992705 0.000354289 -8.76901e-19)
(0.997146 0.0164771 -1.22383e-17)
(0.994261 0.0204627 2.24975e-18)
(0.980162 0.142023 3.97526e-21)
(1.03057 0.0264032 1.24525e-17)
(1.03512 0.033069 -3.40138e-17)
(1.00001 6.22828e-05 1.44009e-19)
(1.00366 0.0020995 1.00136e-19)
(1.0243 0.0109594 -6.80795e-20)
(1.06616 -0.00529479 -4.71398e-18)
(1.00002 7.76432e-05 -3.31038e-17)
(1.00056 8.81553e-05 -1.18009e-18)
(1.02834 0.00641178 -3.61309e-18)
(1.00076 0.000149224 1.41264e-20)
(0.843477 0.0418959 7.82373e-17)
(1.18827 0.205518 9.79712e-19)
(1.11373 -0.00310852 -9.0301e-18)
(0.999998 7.46367e-05 2.47557e-17)
(1.00425 0.00877977 3.1916e-19)
(1.03941 0.000760491 6.46579e-19)
(0.995442 0.0130128 1.2278e-18)
(1.004 0.000709159 3.80719e-19)
(0.103211 0.455789 1.20039e-15)
(1.00035 0.000115077 -2.96757e-19)
(0.934214 0.0660737 5.6825e-17)
(0.963544 0.0404796 4.28333e-18)
(1.00604 0.00878064 -1.06037e-18)
(1.00382 0.00087419 1.2142e-19)
(0.998614 0.000243992 1.45582e-18)
(1.01023 -3.83176e-05 -2.631e-17)
(1.03102 0.00173951 1.32147e-19)
(1.01531 0.00754952 4.36354e-19)
(0.997099 0.0105723 1.54349e-18)
(1 9.57997e-05 2.06737e-20)
(0.999854 3.68888e-05 -3.41728e-19)
(0.995075 0.016399 -3.37148e-19)
(0.9965 0.000648123 1.63643e-19)
(0.989652 0.0565994 5.38901e-17)
(1.02884 0.0101799 -5.92083e-18)
(0.998979 0.000132008 -9.48287e-23)
(1.00048 0.000133076 -6.30363e-19)
(1.02486 0.0259793 2.60063e-18)
(1.09998 0.000133151 4.62202e-17)
(0.997894 0.000495338 6.59267e-17)
(1.04526 0.00206351 -4.48132e-20)
(1.0003 6.83254e-05 -5.11958e-24)
(0.996248 0.0109283 -1.35176e-19)
(0.960208 0.0744015 -4.82164e-20)
(1.02982 -0.000580018 -6.83474e-20)
(1.03241 0.00577181 -8.3216e-19)
(0.952814 0.0538118 1.31501e-16)
(1.00243 0.0180807 7.10008e-20)
(1.03204 0.00105743 7.20559e-20)
(0.999981 0.000318629 -3.26899e-19)
(0.999731 5.79839e-05 1.02083e-16)
(1.02989 0.00183061 1.05067e-18)
(1.00778 0.00777445 -8.35709e-21)
(1.00351 0.0175182 -1.6417e-19)
(1.0091 0.00936147 -5.3883e-20)
(0.999991 0.00031072 2.24058e-17)
(1.00045 0.000152689 -2.0748e-20)
(1.00315 0.000168245 1.9777e-17)
(1.00663 0.0255013 2.4861e-18)
(1.03396 -0.000906736 8.5027e-19)
(0.947361 0.0360364 -2.09128e-19)
(0.99015 0.000826717 -5.21424e-19)
(0.934021 0.0332313 -7.00103e-16)
(1.02729 0.0105918 -1.58857e-18)
(1.00847 0.0152589 6.21615e-18)
(0.937291 0.0469248 -1.13247e-17)
(0.988332 0.0215539 4.99546e-17)
(1.07148 -0.00103324 3.52575e-20)
(1.02849 0.0096475 -2.48231e-17)
(0.980368 0.0166851 -8.75797e-17)
(0.996353 0.0565022 -6.1292e-18)
(0.999682 0.000142217 1.11872e-19)
(1.01732 0.0716449 1.47666e-19)
(1.02502 0.0222314 -4.10243e-17)
(1.00004 2.28212e-05 8.09779e-20)
(0.999988 0.000116063 2.42221e-17)
(1.00079 9.98839e-05 -1.6836e-18)
(0.999497 0.00035716 -1.3636e-16)
(1.06335 0.0608352 4.10288e-21)
(1.01059 0.0147688 -6.64931e-20)
(1.01167 0.00262898 -3.68556e-19)
(0.945456 0.0380841 1.99596e-20)
(0.991954 -0.0008252 -4.45188e-18)
(0.796632 0.0120001 2.31647e-15)
(1.02691 0.00446907 -2.88533e-22)
(1.03248 0.00031661 -5.57198e-20)
(1.00404 0.000252465 3.33704e-17)
(1.04906 0.0320389 -1.0285e-19)
(1.00005 0.000333176 -1.07211e-16)
(0.997378 0.0301206 -3.17392e-19)
(1.00029 0.0033543 3.29467e-17)
(0.93577 0.0977409 -1.21103e-18)
(0.93067 0.0404991 -9.34169e-20)
(1.00214 0.0149417 -3.35332e-19)
(1.01513 0.0107532 -3.59046e-21)
(0.56934 0.572707 9.52185e-16)
(1.0276 0.00989125 1.0623e-17)
(1.03517 0.0576953 -3.78668e-21)
(1.00922 0.0113937 3.76229e-20)
(0.977146 0.144696 7.34016e-20)
(1.16111 0.180006 -7.63287e-18)
(1.00116 6.09799e-05 -1.1651e-20)
(0.998354 0.00314572 3.50824e-18)
(1 1.43191e-05 -1.07126e-19)
(1.0567 0.0564078 -1.62001e-19)
(0.998507 0.00300482 -4.02569e-18)
(1.01469 0.00860148 -1.59351e-19)
(1.0994 0.0962138 5.78327e-18)
(1.00043 8.51927e-05 3.1854e-19)
(0.97306 0.00374439 -5.07691e-18)
(0.988861 0.0485254 4.03758e-18)
(1.00643 0.0138731 2.01043e-17)
(0.997474 9.68501e-05 8.3371e-18)
(1.00231 0.0151873 5.83864e-20)
(0.999102 0.000707643 -7.56169e-17)
(0.994984 0.0147764 9.18269e-20)
(0.999082 0.000611495 2.11419e-18)
(0.999137 0.000799843 8.06176e-17)
(0.995569 0.0125553 -7.36154e-20)
(1.03144 0.00362379 -2.31578e-18)
(1.02891 0.00651326 -5.79481e-18)
(1.00695 0.014752 1.95012e-17)
(0.641499 0.0414678 -2.00112e-18)
(1.02659 0.00276339 1.44368e-18)
(0.402463 0.356448 -7.07968e-17)
(1.02324 0.00825937 4.65114e-19)
(1.02052 -0.00157104 1.26973e-19)
(0.995207 0.0137128 -2.40021e-18)
(1.02575 0.0113078 -4.6445e-20)
(0.992257 0.023978 -1.83737e-20)
(1.02914 -0.00105068 -8.95509e-22)
(0.591006 0.382634 -2.0755e-17)
(0.953471 0.0316643 -1.47489e-17)
(0.994285 0.0222284 -8.13135e-18)
(1.00421 0.0212147 1.90736e-19)
(0.995286 0.00114716 1.42238e-17)
(0.996143 0.00092968 4.68377e-18)
(1.02431 0.0262259 -2.20967e-18)
(0.999978 0.000292872 -8.79869e-18)
(1.07406 0.0070193 -1.07163e-19)
(0.999108 2.46222e-05 2.53665e-22)
(0.950502 0.0361837 -2.95781e-18)
(1.00631 0.0640402 5.5959e-18)
(1.06331 0.0484895 4.35397e-20)
(1.0375 0.0188052 1.00695e-17)
(1.02981 0.0111182 1.07175e-19)
(0.994318 0.0489335 3.79106e-17)
(1.00914 0.0119916 1.62235e-19)
(1.03693 0.0202919 1.30453e-17)
(0.972816 0.0289702 -6.8803e-19)
(1.05501 0.0622962 2.93984e-20)
(1.00798 0.0198202 1.27124e-17)
(1.04448 0.0346882 -1.26472e-20)
(1.00586 0.0212916 -3.5176e-18)
(1.00001 0.000184065 -5.63223e-20)
(1.00431 0.021825 1.02708e-18)
(1.19216 0.0139192 -1.37942e-16)
(0.972633 0.129133 4.89198e-20)
(1.00454 0.00401076 -4.11202e-17)
(1.00016 4.75129e-05 7.378e-21)
(0.998956 0.000111226 1.40294e-19)
(0.994827 0.00681007 2.22667e-19)
(0.969101 0.00375766 -4.0829e-18)
(1.02878 0.00478758 3.98139e-18)
(1.0242 -0.00363144 -4.81745e-18)
(1.00088 -8.51099e-05 -2.47029e-17)
(1.00309 0.00616782 -4.63853e-17)
(0.99437 0.0257285 -2.71635e-18)
(1.00549 0.00537991 1.92285e-17)
(1.00786 0.000820618 -1.11141e-19)
(1.04482 0.0292966 1.13261e-18)
(0.994257 0.00147149 -3.18373e-16)
(0.989586 0.0354994 3.64865e-17)
(1.03339 0.0103249 6.84741e-19)
(1.00441 0.00619686 8.21196e-18)
(1.0082 0.00654353 -4.54235e-19)
(0.948545 0.053349 3.2145e-17)
(1.00001 3.949e-05 -1.59719e-20)
(0.993676 0.00527777 1.43707e-18)
(1.26199 0.127648 -8.40125e-18)
(0.999563 5.66602e-05 -3.03296e-16)
(1.04036 0.0333063 1.57505e-20)
(0.99634 0.0695515 8.43151e-19)
(1.0073 0.00661026 -2.38844e-18)
(0.96092 0.0434557 -6.41976e-17)
(1.03315 0.0117104 -1.46807e-19)
(0.997212 0.0256648 2.24298e-18)
(1.02628 0.0283464 -1.47874e-21)
(0.999574 0.00300623 -1.44765e-19)
(0.940269 0.0358968 -5.52246e-17)
(1.00474 0.000601917 7.52872e-22)
(1.0283 0.00283837 2.91146e-18)
(1.02635 0.00837102 8.15259e-21)
(0.938336 0.0406991 -1.6574e-16)
(0.999778 0.00288808 2.82578e-19)
(1.03475 -0.00402669 -5.46917e-20)
(1.055 0.0146003 3.77597e-20)
(0.994588 0.0324478 -2.67504e-18)
(1.00546 0.0123349 -1.65364e-17)
(1.00413 0.00252014 -1.99326e-18)
(1.00717 0.0471929 5.62325e-20)
(0.759445 0.237245 1.45067e-18)
(0.995571 0.000631058 1.53228e-16)
(0.999907 0.000182012 1.34372e-18)
(0.996354 0.0226167 -1.75026e-18)
(0.999936 0.00033415 -1.02613e-19)
(1.16881 0.157099 1.39489e-17)
(1.00629 0.020092 1.33838e-17)
(1.03592 0.0820862 -3.57671e-21)
(1.01418 0.00603006 3.20369e-17)
(1.02178 0.000607065 1.16695e-18)
(0.262134 0.0142972 -2.11621e-15)
(1.00615 0.0137332 -6.10496e-18)
(1.09611 0.171924 -8.08345e-21)
(1.02881 0.00490315 1.39689e-17)
(1.11076 0.0175911 -3.35669e-18)
(1.0247 0.00999643 7.02064e-21)
(0.996818 0.0112958 -3.4849e-18)
(1.00578 0.0130531 -3.06186e-19)
(1.01384 -0.000595987 -9.42936e-20)
(1.09241 0.08358 1.08295e-16)
(1.08264 0.0712848 1.08939e-17)
(1.00143 0.000131017 9.64175e-22)
(1.00151 0.000102133 1.03505e-21)
(0.93153 0.0456964 4.19237e-17)
(1.00217 -0.00025525 -2.37179e-19)
(0.786993 0.355885 -7.1361e-19)
(1.02661 0.0267612 -4.9981e-20)
(0.969751 0.166239 1.82472e-20)
(1.0039 0.00271837 7.54751e-18)
(0.3633 0.458852 -3.38986e-15)
(1.12847 0.206614 -4.03843e-19)
(1.00528 0.0210609 -1.5403e-18)
(1.00003 0.000179873 4.33415e-19)
(0.999854 0.00261928 2.33023e-20)
(0.957593 0.0284031 -1.73515e-16)
(0.994803 0.00749007 -8.10292e-19)
(0.989988 0.000856191 -6.64852e-21)
(0.997246 0.00875189 2.2884e-19)
(1.02805 0.00965528 -2.73249e-18)
(0.974487 0.0265552 4.50574e-19)
(1.08755 -0.00226483 1.91309e-18)
(0.65303 0.0619289 5.63701e-18)
(1.00068 -0.000126366 -3.56814e-17)
(0.967683 0.0350477 -2.89057e-17)
(1.03391 0.0169326 8.89355e-18)
(0.931384 0.0608574 -1.25637e-17)
(1.00432 0.0119289 2.18496e-17)
(0.936218 0.0804088 1.53613e-16)
(1.02776 0.00643745 -9.15036e-20)
(0.955409 0.0328058 -7.35849e-17)
(0.997304 0.000354091 -1.04488e-18)
(1.00013 1.45351e-05 -2.52892e-20)
(1.03601 0.0191389 -2.10846e-18)
(1.03864 0.0182388 -4.61007e-18)
(1.02456 0.00274084 -4.93998e-19)
(0.932147 0.0362856 1.92825e-16)
(1.03264 0.0781721 1.76542e-21)
(1.01641 -0.00152588 -3.32985e-19)
(0.993924 0.0232043 9.22462e-18)
(1.00044 0.00350473 -4.45969e-17)
(1.00814 0.00836856 8.18635e-19)
(0.78249 0.0324106 7.14517e-16)
(1.00706 0.0068582 -8.35632e-18)
(1.03422 0.0175193 1.4473e-17)
(0.984914 0.0378855 -2.65013e-21)
(1.0234 0.00728614 -1.31658e-19)
(1.01159 -0.00151406 3.32423e-17)
(0.996685 0.0102782 3.39425e-20)
(1.05161 0.0129564 2.02092e-22)
(1.01356 0.00586351 -2.44741e-17)
(1.00519 0.0115801 4.89291e-17)
(1.07057 0.00597418 -2.78413e-19)
(0.990714 0.0235883 -1.47682e-19)
(1.01801 0.00150923 6.4796e-21)
(0.75917 0.398302 3.08127e-18)
(1 0.000104173 7.80954e-21)
(1.0142 0.00656127 2.83498e-17)
(1.004 0.0175343 7.64961e-17)
(0.992983 0.00638322 -1.27556e-20)
(1.00258 0.000246304 1.34873e-19)
(0.999335 0.0239231 2.79842e-17)
(1.00002 3.82979e-05 5.19887e-20)
(1.04748 0.0993431 -1.32542e-17)
(1.00508 0.00113547 -5.45648e-19)
(0.973779 0.00425174 -2.21779e-19)
(1.03468 0.0269803 1.03905e-18)
(0.957348 0.0418395 5.33498e-18)
(1.01485 0.00841081 -3.82284e-20)
(1.01452 0.00685109 9.98556e-18)
(1.03467 0.0185415 -4.40721e-19)
(1.19608 0.0399255 -7.00258e-18)
(0.999639 0.000118473 1.46852e-20)
(0.992847 0.00142087 2.68594e-16)
(1.01709 0.00305993 5.96957e-20)
(1.10421 0.186792 3.26021e-20)
(1.03842 0.0197335 -3.6836e-18)
(0.999781 0.00283212 -8.16322e-20)
(0.229614 0.140368 -8.03995e-15)
(1.00012 4.56239e-05 -7.4914e-18)
(1.00423 0.00206829 -6.64741e-18)
(1.16377 0.0190959 -3.4705e-17)
(0.994811 0.00491735 -1.23898e-21)
(0.999589 0.00303635 8.47135e-20)
(0.999541 0.00326701 9.44548e-20)
(0.984601 0.0376606 1.17609e-19)
(0.962528 0.0258022 2.42657e-16)
(0.999622 2.31082e-05 -3.59296e-16)
(0.993931 0.00611536 -5.72299e-21)
(0.939551 0.0707106 -3.75897e-16)
(0.997445 0.0210498 -3.38692e-17)
(0.996467 0.0156122 -9.14325e-18)
(0.996975 0.00851178 -1.02078e-18)
(1.00113 0.00012854 -1.36615e-18)
(0.959985 0.0292616 -2.29432e-16)
(1.06366 0.0504923 6.00064e-20)
(0.99543 0.0143136 -9.81645e-19)
(0.935035 0.0325432 2.16224e-16)
(1.02858 0.00450683 1.53478e-18)
(1.02751 5.09579e-05 8.89452e-22)
(1.04031 0.0927317 3.81013e-18)
(1.02995 0.0300012 4.41284e-18)
(0.996629 0.00905121 2.12622e-18)
(1.00528 0.000760658 1.21682e-17)
(1.08683 0.0931145 1.25492e-17)
(1.03212 0.00353323 8.24697e-19)
(0.977324 0.0238662 -8.39196e-19)
(1.00025 0.00390732 -1.41104e-18)
(0.999447 0.000333862 -4.72934e-17)
(0.931896 0.0108549 -2.90736e-16)
(1.04889 0.0350009 2.81579e-20)
(1.01285 0.00571884 -1.86494e-18)
(1.01091 0.0417857 6.90766e-19)
(1.01356 0.00629436 9.82771e-18)
(0.997017 0.00931734 5.3292e-20)
(1.00416 0.00329317 -8.83307e-20)
(0.967685 0.0307172 -2.33221e-19)
(1.25016 0.0523378 1.59302e-16)
(0.530999 0.466865 2.0891e-15)
(0.969558 0.0325866 7.19123e-18)
(1.00242 0.0151185 9.10625e-19)
(1.00441 0.00454471 2.34604e-20)
(0.971835 0.0294914 1.44952e-19)
(0.534208 0.252111 1.22186e-16)
(0.940892 0.0283861 -7.96391e-17)
(0.999853 0.00268051 -1.38137e-19)
(1.04699 0.0252821 -2.87403e-17)
(1.05934 0.0607536 -1.77533e-21)
(1.24947 0.269976 3.75872e-18)
(1.01105 0.00273468 2.15484e-18)
(1.16545 0.0127808 -6.63265e-18)
(0.999556 0.000193441 -2.7569e-19)
(0.997046 0.00947456 2.05353e-20)
(0.999461 0.000279411 -2.80299e-20)
(1.04097 0.0895473 2.68976e-19)