/*--------------------------------*- C++ -*----------------------------------*\
  =========                 |
  \\      /  F ield         | OpenFOAM: The Open Source CFD Toolbox
   \\    /   O peration     | Website:  https://openfoam.org
    \\  /    A nd           | Version:  7
     \\/     M anipulation  |
\*---------------------------------------------------------------------------*/
FoamFile
{
    version     2.0;
    format      ascii;
    class       surfaceScalarField;
    location    "0.647";
    object      phi;
}
// * * * * * * * * * * * * * * * * * * * * * * * * * * * * * * * * * * * * * //

dimensions      [0 3 -1 0 0 0 0];

internalField   nonuniform List<scalar> 
18389
(
-7.9774e-05
7.9774e-05
4.34751e-05
-4.34751e-05
-5.20441e-05
5.20441e-05
4.00439e-05
-4.00439e-05
-5.18108e-05
5.18108e-05
-3.98693e-05
3.98693e-05
-3.45707e-05
3.45707e-05
3.88743e-05
-3.88743e-05
-3.53208e-05
3.53208e-05
4.15408e-05
-4.15408e-05
4.48484e-05
-4.48484e-05
-3.45025e-05
3.45025e-05
-1.33064e-05
1.33064e-05
-4.28127e-05
4.28127e-05
4.33897e-05
-4.33897e-05
2.33924e-05
-2.33924e-05
1.73065e-05
-1.73065e-05
4.58859e-05
-4.58859e-05
4.59238e-05
-4.59238e-05
4.33561e-05
-4.3356e-05
-4.26145e-05
4.26145e-05
3.54969e-05
-3.54969e-05
4.29567e-05
-4.29567e-05
-5.85029e-05
5.8503e-05
-4.97161e-05
4.97161e-05
-4.1822e-05
4.1822e-05
-4.45335e-05
4.45335e-05
4.56148e-05
-4.56148e-05
4.58431e-05
-4.58431e-05
4.41332e-05
-4.41332e-05
-4.13326e-05
4.13326e-05
-6.30716e-05
6.30716e-05
4.3116e-05
-4.3116e-05
-4.47376e-05
4.47376e-05
4.08602e-05
-4.08602e-05
4.66862e-05
-4.66862e-05
-4.55451e-05
4.55451e-05
5.35872e-05
-5.35872e-05
-5.89067e-05
5.89067e-05
3.78786e-05
-3.78786e-05
4.48694e-05
-4.48694e-05
4.53787e-05
-4.53787e-05
-4.10124e-05
4.10124e-05
4.49027e-05
-4.49027e-05
4.58616e-05
-4.58616e-05
-4.58451e-05
4.58451e-05
-4.5844e-05
4.5844e-05
-4.0655e-05
4.0655e-05
-4.58796e-05
4.58796e-05
4.59306e-05
-4.59306e-05
4.59477e-05
-4.59476e-05
4.46134e-05
-4.46134e-05
3.77315e-05
-3.77315e-05
-4.57637e-05
4.57637e-05
-5.55431e-05
5.55431e-05
-4.38137e-05
4.38137e-05
4.57538e-05
-4.57538e-05
-4.59933e-05
4.59933e-05
4.32271e-05
-4.32271e-05
-5.93204e-05
5.93204e-05
-4.71467e-05
4.71467e-05
4.96051e-05
-4.96051e-05
4.573e-05
-4.573e-05
-8.66761e-06
8.66763e-06
4.57722e-05
-4.57722e-05
4.1578e-05
-4.1578e-05
5.12079e-05
-5.12079e-05
-4.58658e-05
4.58658e-05
4.23142e-05
-4.23142e-05
3.12096e-05
-3.12096e-05
4.75481e-07
-4.75481e-07
-4.41082e-05
4.41082e-05
3.28688e-05
-3.28688e-05
-3.65758e-05
3.65758e-05
3.96928e-05
-3.96928e-05
2.66254e-05
-2.66254e-05
2.61989e-05
-2.61989e-05
2.70495e-05
-2.70495e-05
2.43968e-05
-2.43968e-05
1.29317e-05
-1.29317e-05
0.00107414
-0.000883327
-0.000190806
0.00546626
-0.00207494
-0.00339131
-0.00594645
0.00594644
1.22145e-08
0.00335447
-0.00259976
-0.00075472
-0.0015604
0.00176497
-0.000204567
-0.00676369
0.00284435
0.00391934
0.00121434
0.00425192
0.00725543
-0.00587584
-0.00137959
0.00119165
-0.00191514
0.000723495
-0.000865756
-0.000694645
-0.00144214
-0.000314622
0.00175677
0.000135954
2.57467e-06
-0.000138529
0.000778549
-0.00222069
-0.00360318
0.000122226
0.00348094
-0.00320198
0.00289295
0.000309038
-0.00572017
0.00725588
-0.00153571
-0.00370881
0.00289713
0.00081167
-0.000563494
-0.00303968
-0.00174927
0.00238911
-0.000639842
-0.000463684
0.00255902
-0.00209533
-0.00161367
0.00111494
0.000498722
0.000583522
0.000581838
-0.00159525
-0.00516844
0.00127452
-0.00180519
0.000530671
0.00578044
-0.00386116
-0.00191927
-0.000666269
0.00331325
-0.00264698
-0.00583498
0.00583511
0.000478787
0.00128618
-0.00633209
0.000978625
0.00535346
0.0023215
-0.00298778
-0.0037895
0.00311376
0.000675735
0.00214826
-0.0042232
0.00108775
-0.000201762
-0.000885984
0.00150624
-0.0012883
-0.000217937
-0.0028017
-0.000400281
0.00535254
-0.00534821
0.00036835
0.00113789
0.0052277
-0.00133652
-0.00389119
0.00198796
-0.000796305
0.0030857
0.00190867
-0.00499436
-0.000721231
-0.00306828
-8.86836e-05
-0.000155504
0.000244188
0.00393598
0.00331945
0.00115837
-0.0048821
0.00372373
0.00162604
0.00360166
-0.0049826
0.00632096
-0.00133836
-0.00114262
-0.000589826
0.00173244
0.001338
0.00201647
0.000135292
0.000103626
-0.000238918
0.00502104
-0.003395
0.00645737
-0.000839581
-0.00561778
0.00321596
-0.00266056
-0.0005554
0.0022168
0.000452923
-0.00266973
0.00295178
-0.000734974
0.00650382
-0.00539841
-0.0011054
0.000497132
-0.00386026
0.00336313
6.76243e-05
0.00638975
0.00479771
-0.00430058
-0.000535783
0.00105939
-0.000523604
-0.00176315
0.000620529
0.00191705
0.0022491
-0.00416614
0.000253377
-0.000333632
8.0255e-05
-0.00126118
-0.00284793
0.00410911
-2.62275e-05
0.00653005
-0.00281509
0.00229808
0.00051701
0.000388885
-1.1917e-05
-0.000376968
-0.00569234
-0.000254108
0.00188396
-0.00140517
0.000827254
0.00495319
0.000895137
0.000178999
0.00263353
-0.00645289
0.00381936
-0.0011202
0.000584417
0.0026406
-0.00390178
0.00619688
-0.00226089
0.0010921
0.00117728
-0.000761732
0.00102318
-0.000261448
-0.00111223
-0.000501432
0.00188664
0.00132931
-0.000595039
0.00142966
-0.00123744
-0.00019222
-0.0026568
0.00199224
0.000664564
0.00116681
0.000262861
0.00112933
-0.00496787
0.00383853
-0.00475544
0.00141553
0.0033399
-0.00455439
0.00611808
-0.0015637
-0.00506255
7.99548e-05
-0.00201985
-0.00063695
-0.000215031
0.000126347
-0.00122051
0.00464461
-0.00342411
-0.00121011
-0.000705032
0.000103306
-0.000192023
8.87164e-05
0.000126286
-2.29797e-05
-0.00125613
0.00463508
-0.00337895
-0.000156169
2.45186e-05
0.000131651
-0.00556821
0.00170705
-0.00119643
-0.000566715
-0.000449417
-1.89405e-05
0.000468356
-0.000543232
9.38146e-05
0.0010115
7.62407e-05
-0.00181178
0.000615356
-0.000150192
1.72493e-05
0.000132942
0.00136803
-0.00234447
0.000976443
0.000271104
-0.000135811
-0.00392543
0.00513978
-0.00245712
0.000707858
-9.1722e-05
-0.000417516
0.000509238
0.00568646
-0.00216921
-0.00351725
7.77565e-05
0.00250703
-0.00258479
0.0044638
-0.00561379
0.00114999
0.00263505
0.00305141
0.00291389
-0.00283614
-0.00615273
0.000432564
-0.00645209
0.00362082
0.00283128
0.00229357
0.00390331
-0.00438976
0.00137621
0.00301354
0.00151359
-0.000239065
-0.00102353
0.00401931
-0.00299578
0.00463874
-0.00162542
-0.00301333
-0.00460108
0.00374808
0.000853014
0.0036935
-0.00503003
5.82615e-05
0.000330624
-0.00136388
0.0058277
-9.16887e-05
0.00214924
-0.00205755
-0.00206825
0.00261156
0.0001687
-0.00278025
-0.0012774
0.00264542
-0.000644556
0.00325611
0.00164263
-0.00173431
0.000898674
0.00397222
-0.0048709
-0.00504255
0.003843
0.00119955
0.0025519
-0.00359409
0.00104219
-0.00332048
0.0041163
-0.000795814
0.000349094
-0.00366958
-0.000895503
0.000895503
-0.00045072
0.000358999
-0.000126966
-0.000973461
0.00110043
0.00506978
-0.00184211
-0.00322766
-0.00243285
-0.000368859
0.00290057
0.000157906
1.6517e-05
-0.000174423
-0.0014702
0.00112661
0.000343597
-0.000142929
-0.00489962
0.00504812
-0.00388975
0.000221545
-8.55911e-05
0.00444316
0.000577883
0.0040676
-0.00151569
0.000165002
-7.09595e-06
-0.00633345
-0.000990964
-0.000820821
0.00430013
-0.00190389
-0.00239624
0.00275712
0.00154302
0.00107767
-0.00563204
-0.00226295
-0.000552137
-0.00112169
-0.00095722
0.00207891
4.15382e-05
-0.00272309
0.00268155
-0.00235984
0.00123815
-0.00221808
0.00530378
-0.00461636
0.00159754
0.00301882
0.00254857
0.00067578
-0.000336186
-0.000339594
-0.00601524
0.000582645
0.00543259
-0.00418197
0.00582635
-0.00164438
0.00182572
0.00162944
-0.00345517
-0.00167461
0.000894594
0.000780017
-0.00271704
0.00208192
0.000635117
0.00111717
0.000766789
0.000247199
-0.00032894
8.17425e-05
0.00489165
-0.00399298
-0.00638641
0.00557796
0.00080845
-0.00478837
-0.00166372
0.00334691
0.000633834
-0.00398074
0.00015399
-0.000162198
8.20866e-06
0.000590433
-0.000125259
-0.000465174
-0.00451816
0.00261427
0.000376131
-0.000571261
0.00019513
6.84769e-05
-0.000963982
-0.00257577
0.00448444
-0.00530388
-0.000323129
0.00562702
0.000231346
0.000167928
-0.000399274
0.000926864
-0.000926864
0.00168556
-0.000724797
-0.00211191
0.00181468
0.000297228
0.00439971
-0.00302351
-0.00016241
6.2407e-06
-0.0012169
0.00128537
0.000690122
0.00129784
0.00234727
-0.00026534
-0.00401873
-0.00128515
0.00111923
-0.00497951
0.00321268
-0.0044688
0.000835106
-0.00213599
0.00130088
0.00336021
-0.00458072
-0.00271107
-0.00180709
-0.00483657
0.00469364
-0.000676443
-0.00533879
-0.00515969
0.00147767
-0.00148284
5.16635e-06
0.00223447
0.000112799
-0.00601432
0.00204861
0.00396571
-0.00121934
0.000526008
0.000693329
0.00145093
0.00294878
-0.0046262
-0.00101419
0.0056404
-0.000212836
0.000138542
7.42932e-05
-0.00551142
0.00132945
0.00375313
-0.00493691
0.00118378
-0.00149616
-0.000615747
-0.000536679
-0.000637501
0.000138348
-0.000203811
6.54632e-05
0.00498645
-0.00385713
-0.0013009
0.00512565
-0.00382475
-0.000403665
-0.000813234
-0.0058612
0.000439561
0.00539555
-0.00616483
0.00456957
-0.000921192
-0.00546523
-0.00109459
-0.000375609
-0.00181835
0.00285748
-0.00103913
-0.000419122
0.000322019
9.71037e-05
-0.00173206
0.00141744
0.00161505
-0.000137374
0.000823717
-3.67528e-05
-0.00169531
0.00279663
0.00121685
-0.0030352
0.00605594
-0.000477975
0.00528401
6.85236e-05
-0.00528058
0.00439181
0.00114382
-0.00553563
0.00055649
-0.000768855
0.000212366
-3.85321e-05
-0.000412188
-1.14797e-05
0.00606742
-0.000162174
0.00015682
5.3535e-06
0.000133415
2.05747e-05
0.00254014
-0.00335661
0.000816469
-0.00191159
0.000708486
0.0012031
0.00792399
-0.00345702
-0.00446697
0.00117091
0.00126506
-0.00243598
0.000107322
-0.000173563
6.62407e-05
-0.000805875
0.00133188
0.00115936
0.00318217
-0.00434153
-0.00561449
0.000165661
0.00544883
-0.00401813
0.00299461
0.00173481
0.00479524
0.00459114
0.00333284
-2.13656e-05
0.00019173
-0.000170364
-0.00130446
0.00439452
-0.00309006
0.000300763
-0.000339295
-0.000131345
-8.14908e-05
0.00410162
-0.0022759
0.00475284
-0.00501129
0.000258452
-0.00323111
0.00605996
-0.00282885
0.00252781
0.00157381
0.00575321
-0.00100037
-0.00139047
-0.00562114
0.00137254
0.0042486
0.000654826
0.000520473
-0.0011753
0.0012695
-0.000614676
0.000585505
-0.00111021
0.000524706
0.00110598
0.000272314
0.000403466
-0.000678235
0.00443137
0.00151916
-0.000392554
0.00352835
-0.00611944
0.0025911
0.00153447
-0.0025847
0.00105023
-0.00431768
0.00116211
0.00315557
0.00291644
-0.0042209
-0.00491063
-0.00125419
-0.00409849
0.00126649
0.002832
0.00124545
0.00314907
-0.00326453
-0.000833963
0.00222761
-0.00105671
-0.000677704
-0.00253351
0.00321121
0.00240843
0.000615316
-0.00302374
-0.00158893
0.00120228
0.000386648
0.000269894
0.00149291
-0.00196418
0.000471268
-0.000110933
-0.000222699
-0.000264489
0.000153556
-0.0043526
-0.000248483
-0.000294052
0.00117487
-0.000880821
0.00435146
-0.00464504
0.00029358
-8.84181e-05
0.000117763
-2.93443e-05
0.00097184
0.00338226
-0.0043541
-0.000157001
6.85829e-05
-0.00475195
0.000710424
0.00404153
-0.000740785
0.000109749
0.000631033
8.68573e-05
-8.42825e-05
-0.000400475
0.000864676
-0.000347472
-0.000517205
-0.00603583
0.000637422
-0.00254966
-0.000128201
0.00267785
-0.00317015
0.0044156
0.00218084
-0.00108874
-0.00116719
-0.00117882
-3.12928e-05
-0.00351914
-0.0012363
0.00151425
-0.000408488
-0.00110575
0.00191921
0.00183829
-0.0037575
0.00504327
-0.0016103
-0.00343297
0.000790523
-0.00541672
-0.00137388
0.00300331
0.001957
0.00078479
-0.00274179
-0.00349886
0.00447071
-0.00015296
2.76875e-06
0.000934391
-0.00443325
-0.00449712
-0.00014793
-0.000998185
-0.0046163
0.0046282
0.00148685
0.00355642
0.00415969
0.00114325
-0.00530295
3.64352e-05
5.91135e-05
-9.55487e-05
-0.00140964
0.00336664
0.0037114
0.00354448
-0.00140093
0.00237186
-0.000970916
-0.00248145
0.000461601
-0.000878409
0.000751441
-0.000192435
0.000423781
-0.000207953
0.00170087
0.0037636
-0.00184439
-0.00107465
-0.000599961
-0.000107228
-0.00015726
0.00355046
-0.0016334
-0.00240371
0.00465282
0.000674506
-0.0030959
0.00242139
0.000648487
0.000762445
-0.0010565
0.00210016
-0.001311
-0.00327476
0.00458576
-0.00218905
0.00482258
-0.000552463
0.00344541
0.000239165
-0.000221915
-0.00236388
0.000962954
0.0023145
-0.00386717
0.00155268
-0.00122146
5.80059e-05
-2.15708e-05
0.00214759
-0.00279771
0.000650134
-0.00116921
-0.000419714
-0.00352472
0.00450335
0.00118872
0.00168156
-0.00287027
-0.00169134
0.00366453
-0.00197319
0.00424015
-0.000857887
0.000234335
1.41105e-05
-0.000248446
-0.00372277
0.00203142
-0.00142533
0.00471659
-0.00329126
0.000877983
0.00130286
0.000145
0.000781862
0.000253043
-0.00030075
4.77063e-05
0.00169088
0.000213188
-0.00190407
0.00301985
-0.00458764
0.00156779
-5.28503e-05
0.000374312
-0.000321462
0.00156415
-0.000361872
0.00140692
-0.000608722
-0.000798198
0.00282372
-0.00392374
0.00110002
0.00268115
-0.00374255
0.00106141
-0.00516976
0.00193865
0.00389994
-0.000880095
-0.000630886
-0.00237864
0.00300953
0.00140679
-0.00511792
0.00371113
0.00336054
-0.00145893
-0.00190161
-0.000684338
0.00172833
-0.001044
0.00477145
-0.00303664
-0.000700618
-0.00195994
-0.00598192
0.00514234
3.89353e-06
0.000121785
-0.000125679
-0.001578
0.00120026
0.000377738
-0.00490759
0.00630827
-0.00140068
-0.00188544
0.000717564
0.00116788
0.000406928
0.00268629
-0.00208835
-0.000597943
0.00343458
0.000489767
-0.00392436
0.000127023
-1.97001e-05
0.00517283
0.000336729
-0.00550955
-0.00194082
0.00379762
-0.0018568
0.00276889
-0.000635951
-0.00213294
0.000462547
0.000402129
-0.000437603
0.00387218
0.00202566
-0.00396648
0.000707718
-0.000267487
-0.00044023
-0.000642516
6.51401e-07
0.000641866
-0.00315223
-0.00576567
0.00576503
-0.000275704
0.000951432
-0.000675729
-0.00228945
-0.000192008
-0.0045517
0.00324069
-0.000868288
0.00112548
0.00360778
-0.00501991
0.00141213
0.000410689
-0.00296034
0.00233129
-0.00244013
0.000108831
-0.00157142
0.00148228
8.91378e-05
-0.00121056
-0.000367442
-0.00339234
0.00342739
-0.00223867
0.00045723
0.000133202
-0.00173575
0.00105141
-0.00279279
0.00073883
0.00205396
0.000242346
-8.01027e-06
-0.00347757
0.00102298
0.00245459
-0.00144346
0.00560315
0.000338587
-0.000955058
0.000616472
0.00212218
0.000646703
-0.00127775
0.000304287
0.0011164
0.00121489
-0.00142457
0.00495387
-0.0035293
-0.00484819
0.00576495
-0.000916755
-0.00117304
0.00228381
0.00410594
0.00107502
3.99182e-05
0.00586173
-0.00552704
-0.00033469
0.00354784
-0.00465666
0.00110882
0.00309159
-0.000683162
0.00542699
-0.00181921
-0.00250349
-0.000974077
-0.00218154
-0.000312913
0.00249447
0.00241457
-0.00196165
-0.00160817
-0.00424063
0.00274817
0.00149246
-0.00033418
0.00122877
0.00121052
0.00365653
-0.00486704
-0.000291978
0.00066811
0.00305958
-0.00238507
-0.00472434
-0.00125758
0.00647097
-0.00129814
0.00423814
0.00206147
0.000497547
0.00285545
-0.00212654
-0.000728904
0.00473663
-0.00245282
-6.82783e-05
-0.00332708
-0.000865512
0.0041926
0.000388175
-8.64722e-05
-0.000301703
-0.00514236
0.00610779
-0.000965431
-0.000728832
0.0019078
-0.00117897
-0.000697159
0.00525276
-0.00455561
0.00118565
-0.00191448
-0.000113119
-0.00576272
-0.000761732
0.00203829
0.00382344
-0.000254721
-0.00192682
0.000251401
-4.20181e-06
0.000362576
-0.000487835
0.00336098
-0.00082084
-0.00522634
-0.000271577
-0.000147545
0.000150197
-0.000133581
-1.66157e-05
-0.00248304
0.000123196
-0.00042157
0.00159439
-0.00101687
-0.000577519
0.00246456
0.000599903
-0.00306447
-0.000720021
0.00318458
-0.00520292
-0.000271514
0.00547443
0.003751
0.00137466
0.00440769
-0.00122552
-0.000130094
0.00254466
0.00540385
-0.000206657
-0.0051972
-0.00608736
0.00425261
0.00183475
0.00321051
-0.00126795
-0.00435319
0.000202086
-0.000223451
0.000572968
0.00083395
0.00113923
0.000146891
-0.00128612
0.00421232
0.00119153
-0.000961288
0.00317186
-0.00221057
0.0047279
-0.00138099
-0.00217994
0.00279334
-0.000613398
-0.0011764
-0.000124301
0.000303524
-0.000179223
0.00344636
-0.00414352
0.0013512
-0.00099091
-0.000360291
0.00159796
-0.000397697
-0.00325127
0.00228998
0.00548787
-0.00434406
-3.06359e-05
0.000352656
-0.00535452
0.000446922
0.00543658
-0.00190824
-0.00100007
-0.003615
0.00461507
-0.000645887
0.00288288
-0.002237
0.00549725
-0.00286246
-0.0026348
-8.83968e-05
0.000590962
-0.000677172
0.000660562
1.66101e-05
-0.000693747
0.00173299
-0.00103925
-0.00314988
-0.00116779
0.000155554
-1.72061e-05
-0.00122486
-0.00478946
-0.00307562
0.00239791
-0.000667135
-0.000259727
-7.26191e-05
-8.95543e-05
-0.00121756
-0.000805833
-0.00523
-0.00283854
0.00219266
-0.000817989
0.00118634
0.00112996
0.00436849
-0.00549844
0.00338947
-0.00275563
0.000469556
0.000772284
-0.002884
0.00211172
0.00498362
-0.00492805
-5.55681e-05
-0.00320947
0.00361557
-0.0004061
0.000207788
-9.56042e-05
-0.000112185
-0.00497651
-0.00147639
-0.00175904
0.00369012
-0.00193107
0.00298125
-0.00220896
-0.00378366
0.00202462
0.00139504
-0.00258174
0.00118669
-0.00363295
0.00568156
0.00649963
-0.00219605
-0.00430359
-0.00239916
0.00237505
2.41153e-05
0.00560634
-0.00163412
0.00118563
-0.000925796
-0.00025984
-9.11493e-06
0.000262158
0.000250457
-0.000774212
0.000523754
-0.00304876
0.00365108
-0.000969935
0.000848301
-0.00105006
0.0023639
-0.000632806
-0.00173109
0.00220279
-0.000511911
0.00452231
0.000631011
0.00173289
-0.00175762
0.00106388
0.000408598
-0.000464696
5.60978e-05
0.00221322
-0.00174375
-0.000469469
0.000827472
-0.00514778
-0.000544559
0.000369492
-0.000588345
0.000218853
-0.00410153
0.00547406
0.000942159
-0.00111664
0.000174482
-0.00153017
0.0021638
-0.000633633
-0.00148884
-0.00275179
-0.00538314
-0.000152723
0.00553587
0.000299652
0.000108302
4.18961e-05
0.000127002
-0.000127178
1.75836e-07
0.00410971
-0.0028992
-0.00379843
-0.002321
0.00346673
0.0030329
-0.00259428
0.000723979
0.0018703
-0.000844647
0.00223968
-0.0022979
-0.000101263
0.00272919
-0.00377747
0.00104828
0.00131032
-0.000135445
0.000461384
0.000550121
-0.00327805
0.000963741
0.00231431
0.000913058
-0.000604373
-3.81445e-05
-0.00427326
0.00172203
0.000105403
-0.00182743
-0.00396464
0.00146343
0.00250121
0.000519735
0.00147828
-0.000905316
-0.00024686
-0.00466048
0.00490734
0.000784264
-0.00247671
0.00169244
0.00120221
0.00131231
-0.000463828
-0.00172241
0.00218625
0.00258001
-0.00179575
0.00446855
-0.00353415
-0.000768271
-0.00264101
-0.000227372
0.000251891
-0.000705388
0.0017657
-0.00106031
0.00266049
-0.00366654
0.00100604
0.000136435
2.03858e-05
-0.0023638
-0.000914258
0.00142119
-0.00163629
0.0002151
-0.00277472
0.000686382
0.0012762
-0.00141865
0.000142449
0.00161851
-0.00180775
0.000189242
0.000675513
-0.00372377
-0.00115833
0.00134567
-0.00489529
0.00354962
-0.000913069
0.00357355
0.000118739
-7.9011e-05
-3.9728e-05
0.00475221
-0.00362224
-0.000316735
-0.00152888
-0.00401289
-0.00149854
0.00209287
0.000700466
-0.0010073
-0.000922648
-0.00452344
-0.00162929
-0.000403333
0.00124335
-0.00093185
-0.000311504
-0.00149655
-0.00108816
0.000655766
0.00225846
-0.00291423
-0.000114252
0.000670741
-0.000715986
3.88136e-05
-0.0024603
0.00196647
0.00139407
-0.000684619
0.00162279
-0.000938174
-8.68621e-05
-0.000116949
0.000317559
-0.00194665
0.000450495
0.00161185
-0.00231085
0.000698999
-0.00334014
0.0025843
0.000755823
0.00120226
0.00241077
-0.00361303
-0.00175526
0.00104987
-0.00294155
-0.00102308
-0.000787832
-0.0025523
-0.0016779
0.00125475
0.000423152
0.00176741
-4.53741e-05
-0.000761547
-0.0024353
0.00319684
-0.000670602
0.00291431
-0.00225854
-0.000858548
-0.00394758
0.00480613
-0.00234276
0.00234044
2.32175e-06
-0.000740785
-0.00156246
0.000545595
-0.00240563
0.00381924
-0.00141362
0.00323292
0.00288516
0.000194354
3.62264e-05
-0.000230581
0.00234049
-0.00060259
-0.0017379
0.000188138
-0.000184245
-0.00358941
0.00493508
-0.00328971
0.00523818
-0.00194847
-0.00351027
-0.00150963
-0.000915605
0.00323226
-0.00231666
0.00285545
0.00177412
-0.00417977
-0.00499602
-0.000146334
-0.000786043
0.00284532
-0.00205927
-0.000431658
0.000378807
-0.000530005
0.00167582
-0.00114581
-0.00403126
0.00334319
0.000688075
-0.00326951
0.0023539
-0.003868
0.00067381
0.00319418
0.00141202
-0.00101443
-0.000397586
-0.00589957
0.000696648
0.00184687
-0.00141114
-0.000435724
0.00142882
-0.000404445
-0.00102437
7.83748e-05
0.000129414
0.00293099
-0.0006329
-0.000218322
-0.00348783
-0.000380169
0.000428747
-0.00305614
-0.000975126
-0.00233704
-5.71571e-06
-0.00292442
0.00229353
0.000720591
0.00260205
-0.00332265
0.000585278
-0.000860983
0.0014088
-0.00671695
0.00530815
-0.00577107
0.000982696
-0.0023387
0.00354096
0.000693741
0.000257692
-0.00273304
0.00345363
-9.07308e-05
0.00507435
0.000610867
0.00170852
-0.0023194
-0.00177552
0.00124552
0.0027478
-0.00369502
0.000947212
0.00510029
0.000667885
0.00154533
0.000315471
0.000392246
-0.000364056
-0.000404799
0.000180982
-0.00174748
0.00176684
-0.00088886
0.000870129
0.000608149
-0.000582951
0.00301027
-0.00242731
-0.00150562
0.00184263
-0.000337004
-0.00489344
0.00380348
0.00108996
-0.00479997
0.00151026
-4.12959e-05
3.94392e-05
1.85668e-06
-0.00281204
-0.000854498
0.00107788
-0.00129729
0.000219412
0.00135247
-0.00494189
0.00111831
2.09207e-05
0.00123753
0.00069441
0.00218847
-0.00366734
0.000855311
0.000187702
-0.0050359
0.00190322
0.00122401
0.000683792
-0.00527336
-0.000492313
0.00565191
0.00118689
0.00710818
-0.00218502
-0.00492316
0.00079067
-0.000383782
-0.000406889
0.000712946
-0.00138434
0.000784372
-0.00386075
-0.00125718
0.000303524
-0.00093751
-0.000417987
0.0013555
0.00233136
0.00400853
-0.00486707
0.00270272
0.000834448
-0.00353717
0.00125024
-0.000964112
-0.000286132
0.000745125
0.00159536
-0.00013509
0.000138321
-3.23072e-06
-0.000709526
0.0028835
-0.00217398
0.00362148
0.00109511
-0.00126356
-0.000414348
0.00140088
-0.00152573
0.00012485
4.65827e-05
7.21564e-05
-0.00447811
0.000967838
-0.00165417
0.000443605
-0.0036488
0.00292877
-0.000951416
6.80885e-05
0.000933996
0.00268069
-0.00361469
0.000849771
-0.00126768
0.00418698
-0.0029193
0.000318391
0.000279863
4.65697e-05
-0.000326433
7.83658e-05
-0.00539155
0.00531318
-0.00263492
-0.000776696
0.00341162
-0.00349047
0.00261143
0.000879045
-0.00276168
-0.000261317
-0.00171357
-0.00491219
0.000899295
-0.00145576
-0.000881285
-0.00106269
0.00379188
0.00171059
-0.00372592
0.00201533
0.000104511
2.24913e-05
0.00372644
-0.00201584
0.00286453
0.000954325
-0.00381884
-0.00130412
0.00174082
-0.000436703
0.00357302
0.00109946
-0.00467248
0.00718162
-0.00197122
-0.0052104
-0.00212786
-0.000710684
-0.0017332
0.00234406
0.00377252
-0.00492647
0.00115393
-0.00280297
0.00373696
0.00115877
-5.11222e-05
-0.00110765
0.00148143
0.000907672
-0.00550793
0.00059729
0.000439293
0.000351376
0.00292149
-0.00112092
-0.00252199
0.0024813
4.06909e-05
0.000504629
-0.0018406
0.00133597
-0.00387072
-0.00119183
0.00108973
-0.00254549
-0.00529911
0.000151331
-0.00125709
-0.000518269
0.00177536
0.00563433
-0.00449107
0.000104408
0.000283767
-0.00301838
0.00318709
0.0014415
-0.00107273
-0.000368769
0.00346848
0.00475751
-0.000954035
0.000639604
-0.00327452
0.00112406
-0.00101431
-5.28797e-05
0.000461477
0.000394014
-1.97023e-05
-0.00206783
-0.000462204
0.00154008
-0.00090617
-0.00349727
0.000764233
-2.87872e-05
-1.25088e-05
0.00599845
-0.00492077
0.00522096
-0.0043937
-2.62377e-06
-0.000631033
0.000633657
0.00194888
-0.000458238
-0.00149064
0.00335864
-0.000756584
-0.00256808
0.00336085
-0.000792774
-0.00183476
0.000530646
0.00127815
-0.00095252
-0.000325626
-0.000118767
-0.000210173
0.00205936
-0.00054821
-0.00151115
-0.00138346
-0.00239454
-0.000127446
0.00209039
-0.00274509
0.000654698
0.00280717
-0.000750579
-0.00205659
0.00410302
-0.00434988
0.000314035
0.00224042
-0.000628564
-0.000681859
0.000835736
-0.00367793
0.00503039
0.00122976
0.000463071
-0.00172016
-0.00286401
0.00209764
0.00363298
0.00158797
-0.0011477
-0.00382894
-0.00113894
0.00130486
-0.001718
0.000413137
0.00367586
-0.0031861
-0.000193858
0.00113601
-3.85793e-05
-0.000269749
0.000308329
-0.000693479
-0.00190081
0.0037729
-0.00490813
0.00113524
-0.00186657
0.0023508
-0.000484242
-0.00115357
0.0021328
0.000750698
-0.0022629
0.00375482
-0.00149193
0.00150634
-0.00114304
-0.000363296
-0.00102314
0.000282357
0.000176306
-0.000436503
0.000260197
-0.000425785
-0.00122838
-0.0024786
0.00250525
-2.66464e-05
0.00144837
-0.00371127
0.00162588
-0.000371126
0.000376683
-0.000416485
3.98019e-05
-0.000827515
0.000594158
0.000233357
-0.000794549
-0.00284688
0.000824743
0.00202213
-0.001994
-0.000847955
-0.000713251
0.0015612
-0.00524294
0.0038963
0.00134664
-0.00130145
0.00129883
-0.00057639
-0.000115919
0.000692309
0.00286855
-0.000735755
-0.000770386
-0.000160189
0.000930575
0.00184266
-0.00137959
0.00169843
-0.000393567
-0.000177397
-0.000634199
-0.0042055
0.00483971
-0.00139972
0.00283013
0.00427805
-0.00239952
-7.90791e-05
0.00312269
-0.004733
0.000733155
0.00158195
-0.00231511
0.00201327
-0.00279931
0.0019876
-0.000715016
-0.00127258
-0.00179612
0.000455776
0.00134034
0.00431403
0.00286759
-0.00551876
0.00133634
0.00418241
-0.0012516
-0.00399134
-0.000460043
-0.00133608
-0.00100031
-0.000562154
-0.00129318
-0.000424816
0.00114252
-0.000532577
0.00150929
-0.000976712
-0.00175724
0.00129719
-0.000944343
-0.000207357
0.0011517
0.00217182
-0.00286696
0.000695149
-1.17748e-05
0.000206128
0.00103641
0.0060614
-0.00140789
-0.00465351
-0.00203532
-0.00187456
0.00134264
0.00053192
0.0012714
-0.000979015
-0.000292383
-0.00229502
-0.00102437
0.0033194
-0.00267181
0.00358142
-0.000909608
-0.000919547
0.00111733
1.20462e-05
-0.00112938
0.00376099
-0.004936
0.001175
0.00174764
-0.0013556
-0.000392035
0.00242708
-0.00122486
0.00273725
-0.000636862
-0.000190654
-0.00409121
0.00229573
-0.00180169
-0.000494036
0.000560633
-0.00200945
0.00144881
-0.00251633
-0.000840283
0.000859939
-0.000658774
-0.000201166
-0.000180054
-0.0036435
0.000971687
0.000662238
-0.000485932
0.00259358
0.000987836
0.000318879
0.00131095
0.000676653
-0.00160359
0.00233674
-0.00150295
0.000994093
0.00050886
0.00354928
-0.000684745
-0.00380941
0.00610299
-0.00114714
-0.00248825
0.00683534
-0.00434709
-0.000888093
0.00356879
-0.00414182
0.000932359
-0.00210129
0.00424955
-0.000687636
-0.00162322
-0.00244829
0.00171555
0.000732749
-0.00127903
0.00051332
-0.000526086
1.27673e-05
-0.00137631
-0.000776664
-0.000153589
0.000930253
-0.0015684
0.00136529
0.000203115
0.00203904
0.000806271
6.26001e-05
-0.00130004
-0.000554555
-0.000829778
-0.00241848
-0.000479861
-0.00139469
-0.000171236
0.00159242
-0.000180655
0.00341117
-0.000514039
0.0013388
0.000200586
-0.000789172
-0.00101602
-0.00193016
0.00247687
-0.000546704
-0.00104867
-0.00572891
0.00351083
0.00148401
-0.000613882
0.00288885
-0.0012073
0.000959231
-0.00135917
-0.00453032
0.00588949
0.000620185
-0.00255035
0.000740696
-0.00368809
0.00270087
0.000987216
0.000891657
-0.00142423
0.00222724
-0.00311841
0.000891161
0.00119549
-0.00342963
0.00223414
0.000860771
0.00168809
-0.00254886
-0.000174537
0.00179304
0.00274422
0.00108056
0.00361955
-0.000413523
0.000783013
0.00315986
-0.00402536
0.000980152
-0.00327517
0.000434871
0.00412491
0.00147617
-1.08193e-05
-0.000275721
0.00028654
-0.00619256
0.00385614
0.00233643
-0.000827381
-0.00261594
0.00344333
0.00264
-0.00177923
-0.0036965
0.00089353
-0.00132159
-0.000435656
-0.000152785
0.00131959
0.00372647
0.0012274
0.000223078
0.00130959
-0.000993385
-0.000316203
0.000896058
0.000587955
-0.000313844
0.00376841
-0.00493354
0.00116514
0.00307701
-0.000849778
-0.00139885
0.00190348
0.00125907
-0.00355446
0.0022954
-0.0011676
0.00145641
0.000678108
-0.00213451
0.000192435
-0.000203255
0.00219876
-0.000860762
-0.00125162
0.000330574
0.000926997
-0.000349144
-0.000577853
0.0035328
-0.00227373
-0.000508245
0.00229169
-0.00178345
0.00102179
-0.00296763
0.00208587
0.000881759
0.000105505
-9.94363e-07
0.00466707
0.000536519
-0.00570497
-0.005194
0.00392593
0.00126808
-0.00107711
-0.00269497
0.00377207
0.00222133
0.00372511
0.00282708
-0.00375346
0.000926378
-0.00147055
0.00110311
-0.000951786
0.00337309
-0.00242131
0.00149722
0.000562143
-0.00378484
-0.00240772
0.00107395
-0.00230302
0.00321252
-0.000909509
0.00343271
-0.000821276
0.000397499
-0.00080784
0.00254432
0.000888389
-0.000634912
0.00431077
-0.00130913
0.00171645
-0.000407312
0.00199331
-0.00128482
-0.000389994
0.00607681
-0.00491566
-0.000467478
0.000858286
-0.00246188
-0.0053916
-0.00172281
0.000413678
-0.000678154
0.000101764
-0.000869412
0.000214221
-0.00147043
0.000663769
0.00157664
-0.000905429
0.000135043
0.000804951
0.00251612
-0.00332108
-0.00109512
0.00187367
-0.00194706
-0.000474211
0.00196115
-0.00148694
-0.000880179
-0.00208744
-0.00195173
0.00147752
-0.00265765
0.0034626
-0.00164462
0.000586949
0.00105767
-0.00097825
0.00357183
0.00601291
-0.00230151
-0.00130377
-0.000419043
-0.00173931
0.00110317
0.00063614
0.000904093
-0.00451903
0.00361494
-0.00131833
0.000545574
0.000772755
-0.0040341
-0.00115991
0.000191894
-0.00113623
0.00193657
-0.000712556
-0.00134344
-0.00380358
0.00514703
0.00100464
7.03877e-05
0.00329708
-0.00252828
-0.000768794
0.000137487
0.00129133
0.000877196
-0.000670217
-0.000206979
-0.00134764
-0.00101623
-0.00107928
0.00511676
-0.00403747
0.00063258
-0.00249915
0.000148796
0.00125209
0.00377282
-0.00496118
0.00118836
0.00287755
-0.00205281
0.000101934
-0.000168259
6.63255e-05
0.0010274
0.000138084
0.000104261
0.00235663
0.00370478
-0.000585523
-0.000805353
0.00139088
0.000652812
0.00177182
-0.00242463
0.00240134
-0.00170729
-0.000694051
0.000475517
0.00147336
0.000426059
-0.000515669
-0.000802662
0.000599871
-0.00532422
0.00069032
-2.9758e-05
-0.00116071
-0.0013129
-0.00379088
0.00510378
0.00103111
0.00143727
-0.0018955
0.00254638
-0.000394869
-0.00490883
0.0053037
0.000120744
-1.881e-05
0.000649773
0.00128679
0.00272928
0.000942428
-0.0036717
0.00137528
0.000471588
0.00258794
-0.0036411
0.00454519
0.00277413
0.000843395
-0.00361753
0.00164768
-0.000841748
-0.000805927
0.00132872
-0.00101939
-0.000309329
0.000423264
0.00105881
-0.00469991
0.000218422
-6.79159e-06
0.000199227
0.0060366
-0.0012844
0.00152612
-0.00212871
0.00252669
-0.00182585
-0.000700837
0.000858624
-0.00254451
0.00168589
0.00523479
-0.00281702
-0.000925524
-0.00158967
0.0050099
0.00148631
-0.0017814
0.000295092
0.000499961
-0.000103733
-0.000396227
-0.000993406
-0.00314101
0.00413442
0.000742648
0.00181956
-0.00256221
0.00176761
-0.000281296
0.00224871
0.00140729
-0.000861723
-0.000937311