/*--------------------------------*- C++ -*----------------------------------*\
  =========                 |
  \\      /  F ield         | OpenFOAM: The Open Source CFD Toolbox
   \\    /   O peration     | Website:  https://openfoam.org
    \\  /    A nd           | Version:  7
     \\/     M anipulation  |
\*---------------------------------------------------------------------------*/
FoamFile
{
    version     2.0;
    format      ascii;
    class       volScalarField;
    location    "0.209";
    object      T;
}
// * * * * * * * * * * * * * * * * * * * * * * * * * * * * * * * * * * * * * //

dimensions      [0 2 -2 0 0 0 0];

internalField   nonuniform List<scalar> 
12359
(
-3.84574e-89
1.86489e-71
-1.10305e-246
1.59705e-46
-8.5772e-84
5.15883e-32
6.60466e-27
-2.63958e-29
-1.21039e-20
-5.28429e-35
3.78317e-24
7.38457e-16
0.0099691
-1.28068e-43
-4.2509e-50
-6.6523e-08
-3.3901e-05
7.99917e-135
-2.30705e-139
-3.68288e-59
8.59869e-41
5.39648e-18
-2.35636e-65
7.43916e-56
-4.40041e-69
3.97708e-62
-2.03061e-178
4.30705e-184
1.47325e-144
9.72477e-168
2.15645e-161
1.16951e-198
-1.09388e-219
-3.76633e-171
-3.04119e-233
-1.70811e-158
-3.18063e-110
-5.09842e-93
-8.51161e-85
-1.62215e-100
-1.37207e-74
-5.77338e-98
4.45152e-118
-1.8084e-121
2.32742e-151
-7.18617e-148
-3.13709e-155
-1.70023e-164
-1.83327e-141
1.07947e-174
2.5794e-185
8.37352e-192
-3.79848e-202
-2.2039e-131
1.70276e-210
4.23521e-216
1.09686e-125
3.58994e-223
-2.21157e-226
8.38015e-230
-1.09935e-212
-6.59209e-240
-1.71326e-188
1.94129
3.06502e-128
-9.68887e-39
1.52616e-112
-3.90368e-195
-3.784e-106
3.29684e-10
62.8572
3.75868e-78
-4.21047e-250
6.18994e-103
-1.1135e-52
1.52004e-236
1.37813e-205
3.17028e-243
-2.90516e-115
-1.1372e-12
3.63063e-36
-3.44476e-165
0
4.626e-102
6.41126e-05
-2.53966e-117
1.25633e-163
-3.07252e-228
0.00959808
1.49498e-05
-8.89367e-283
1.23207
1.07166e-285
-2.44347e-133
6.03292e-108
3.69934e-95
1.57551e-139
9.31479e-134
2.26964e-68
-3.75315e-85
7.67535e-31
6.58538e-272
-2.70426e-117
5.77528
1.33123e-174
3.58879e-49
-1.03639e-294
6.65083e-05
7.17195e-127
7.55994e-51
7.32346e-142
2.80064e-164
-3.86596e-42
1.08584e-35
2.40211e-108
-4.82363e-204
-1.9516e-34
1.42925e-163
0.0665971
0
-2.55643e-143
3.62175e-31
-1.73652e-225
2.54002e-71
5.53555e-163
6.65761e-192
7.21624e-24
7.92685e-102
-8.42311e-246
6.8602e-164
1.95257e-203
3.49504e-17
5.50948e-14
1.23266e-14
1.69231e-297
6.73893e-71
-2.92992e-203
-6.74115e-73
-6.74955e-266
3.1179e-25
0
2.2082e-88
-5.69289e-66
2.48186e-295
2.81514e-30
-2.03148e-37
0
1.27442e-05
1.33543e-173
8.10656e-35
1.91524e-94
-1.53437e-268
-1.01297e-64
5.86843e-225
-5.40632e-293
96.0315
3.66497e-32
1.2602e-17
-9.66956e-140
2.81645e-210
-3.41433e-49
1.15874e-208
7.28153e-72
6.75458e-67
0
4.04807e-194
-2.27539e-51
4.77634e-30
1.48103e-69
0.0124405
-2.83487e-241
1.23232e-238
1.32387e-71
-1.33582e-70
1.20115e-176
1.23325e-25
-5.96629e-152
-5.83183e-154
2.41747e-41
4.87755e-27
-2.54396e-46
-2.70743e-290
-3.1936e-244
1.09481e-164
3.69303e-70
-1.03782e-20
1.20454e-136
6.12785e-114
1.47742e-91
-2.33645e-136
2.62121e-111
3.89742e-97
1.93145e-97
2.53162e-222
6.61154e-51
7.44558
-2.08543e-94
-3.76126e-136
-2.18084e-63
3.5196e-162
-1.9857e-35
1.10399e-92
2.55097e-85
1.47862e-51
5.55907e-35
-3.42148e-291
4.60431e-33
2.02667e-83
1.83881e-64
-1.18464e-148
-5.95421e-317
7.54201e-36
6.02858e-35
135.617
-5.46135e-20
7.64977e-264
4.23993e-136
3.09474e-110
6.12525e-135
3.52094e-86
2.78015e-36
-6.50955e-150
3.95994e-73
1.22035
-1.36744e-163
-3.156e-317
1.21661e-84
1.98329e-129
1.48799e-27
1.57076e-132
4.51473e-132
0
4.9642e-30
-4.0003e-78
2.63122e-114
-9.49291e-80
0
-1.00504e-61
-4.76985e-112
2.08887e-06
-1.93581e-315
-9.56246e-114
1.41428e-122
1.32757e-13
-5.58159e-47
1.50633e-05
-2.86498e-228
6.25694e-66
-6.55407e-184
1.48298e-97
4.7838e-46
7.5594e-96
1.48982e-157
3.45641e-131
0.405668
105.124
0
-1.62453e-155
0.419613
115.187
1.80975e-83
-1.78723e-48
1.82334e-30
3.46236e-52
1.07586e-71
44.9315
0.0445481
3.97778e-45
-2.61172e-157
4.98972e-70
3.09975e-70
2.40872e-68
7.36302e-68
-2.97426e-133
-7.50246e-152
-1.33802e-318
-5.83186e-154
1.45278
3.82296e-45
9.9801e-276
-4.67652e-270
1.22099e-52
-2.58996e-160
-5.99196e-114
-7.2474e-116
0
1.40007e-30
-4.9757e-270
-1.63785e-271
2.20399e-201
1.69449e-73
5.87598e-168
36.1849
-5.95317e-297
-6.34504e-293
-1.30137e-115
1.42365e-185
2.57212e-37
6.849e-114
1.51741e-189
8.954e-282
1.0071
5.57533e-29
-4.03179e-283
4.41626e-135
7.31692e-116
-4.47937e-182
-5.77996e-203
-5.96787e-204
-3.46601e-180
2.65349e-142
-6.56786e-21
-5.99936e-183
5.45463e-162
4.30175e-94
1.63482e-56
0.00729954
5.05236e-181
6.10418e-71
7.50521e-09
-1.98139e-271
8.15584e-76
-1.05399e-271
1.04724e-93
3.17469e-293
-1.14549e-179
-1.37213e-22
1.15015e-70
-6.19634e-22
-1.29277e-115
-8.77691e-124
1.35868e-98
1.15792e-94
-6.63342e-122
1.84237e-99
1.26743e-98
-2.73317e-250
-1.03565e-217
-2.09268e-218
9.10035e-215
-6.07992e-216
2.33466e-05
0
1.08338e-34
1.90078e-76
3.29216e-73
2.58557e-64
2.04386e-69
-5.6887e-116
1.73489e-95
2.247e-70
3.16412e-96
7.75628e-72
3.43268e-51
1.16322e-50
1.06157e-41
5.63008e-87
9.75094e-22
9.24991e-90
2.19385e-89
2.64737e-64
2.3749e-27
-2.88351e-165
3.99512e-208
1.00796e-93
-1.95921e-210
9.75607e-164
125.376
9.30229
8.91811e-164
-5.65121e-261
3.90113e-299
3.40827e-299
7.29854e-72
-2.31415e-290
-3.26525e-292
0.027305
1.47175e-67
1.27357e-05
-5.94766e-163
3.51909e-58
-1.90477e-162
9.92249e-121
-9.13076e-46
4.43412e-95
4.29139e-47
5.0508e-97
4.94874e-167
-1.25221e-273
1.79387e-68
6.04544e-59
4.03548e-168
-1.67842e-15
-1.3762e-46
1.51535e-95
-2.70043e-62
-2.32231e-52
4.79891e-262
4.60752
2.04053e-20
-2.96882e-161
2.07588e-14
5.10426e-91
0
0
1.10905e-304
2.9833e-05
1.16631e-28
2.43761e-69
1.22224e-77
1.03794e-95
1.51016e-105
-1.10345e-47
-8.57406e-64
1.36227e-27
0.0113026
-1.89712e-14
6.14724e-73
5.63226e-43
9.04212e-125
5.07849e-45
1.32538e-100
9.58695e-92
-1.52156e-172
-5.90197e-102
-5.4564e-69
-4.40999e-289
102.803
1.98535e-112
7.29815e-05
3.67613e-62
-2.58051e-125
3.71435e-40
0.358656
2.3688e-67
-1.54639e-90
1.48175e-96
3.07762e-60
5.54655e-45
5.27758e-159
2.29465e-313
7.27326e-35
3.51293e-291
5.02141e-18
4.48219e-201
1.14728e-64
2.0131e-47
-2.99995e-145
0.000171182
1.17133e-33
7.80064e-88
-1.6018e-153
1.1964e-07
-5.76867e-257
-5.78604e-168
1.30213e-25
-4.95526e-259
2.1291e-154
-1.77055e-169
5.17085e-10
10.0881
4.22312e-104
6.03543e-234
-1.67475e-44
-4.05041e-54
2.66132e-76
6.39454e-62
9.16804e-70
-1.24056e-248
3.251e-301
1.60571e-60
-4.52452e-279
7.98031e-49
3.5137e-77
3.40563e-46
1.15855e-155
9.68761e-37
1.70169e-24
-6.73599e-171
9.55497e-107
-1.44325e-166
-2.94001e-39
7.45288e-26
8.87652e-266
-2.24328e-58
6.76747e-73
2.32377e-127
-7.19213e-56
5.54503e-200
2.6463e-29
-6.17763e-108
4.95611e-67
-1.19647e-48
-1.46894e-246
-1.34803e-107
5.74927e-16
1.10589e-12
-3.30703e-281
8.74193e-87
5.58335e-14
3.38683e-87
0.195198
3.45989e-306
3.87074e-203
-1.03975e-254
-2.34715e-63
6.18546e-84
-3.88415e-95
6.17957e-198
3.6371e-61
6.9173e-89
6.04911e-75
-9.17629e-154
8.45189e-07
-4.06706e-285
3.68104e-06
-3.07355e-229
122.984
-1.84272e-106
3.71928e-17
-1.39538e-227
-1.93978e-157
-4.49371e-54
1.46694e-166
3.67608e-191
4.44134e-118
-9.34439e-82
1.10672e-81
1.07887e-16
9.74494e-40
1.45521e-40
0
-6.45392e-166
7.23008e-74
3.70053e-12
0
9.44747e-280
1.6861e-71
-4.3626e-252
-8.6913e-23
0.42447
26.1623
0
2.69278e-115
1.5958e-44
-9.55892e-92
-3.48463e-178
69.1592
4.25978e-284
3.50075e-32
6.41477e-46
1.27408e-115
-1.13689e-181
2.00945e-187
-4.64571e-148
8.54799e-78
8.77065e-99
-4.73859e-102
0
-2.27344e-243
-5.4402e-87
6.0556e-152
7.31243e-41
1.82202e-64
-6.19772e-201
4.94799e-278
5.34209e-50
103.879
2.58947e-163
1.76461e-28
1.7228e-301
-1.60799e-100
5.40583e-33
-5.45936e-91
1.89436e-47
5.9808e-39
-3.18864e-85
3.04964e-70
-7.99991e-319
-1.33768e-233
8.51035e-94
5.78559e-106
-1.58474e-86
-3.50802e-109
-2.56536e-295
1.03414e-276
1.25483e-194
-2.18615e-68
9.66433e-63
-4.72277e-45
1.18486e-110
-1.48831e-42
-9.87888e-65
-2.58492e-88
-7.05661e-41
4.88749e-71
9.93098e-05
7.04594e-66
-8.26488e-70
-1.21588e-43
-1.93986e-237
7.17268e-35
1.91852e-53
0
-4.40308e-257
-9.02939e-251
3.12359e-234
1.84251e-11
-5.41719e-89
8.71515e-136
-3.28355e-44
4.21496e-117
-4.11432e-21
1.72324e-88
1.03987e-76
-1.4268e-191
9.3982e-21
-2.69405e-296
-2.32034e-68
2.51937e-154
6.28164e-26
3.31183e-40
-2.09055e-91
6.83671e-91
4.34942
-1.19742e-67
3.56534e-21
-2.33412e-100
8.08925e-16
0.159277
3.52674e-239
9.95362e-161
4.06618e-298
1.28616e-13
-1.57143e-161
2.23917e-98
0.000201293
2.17607e-281
-4.04249e-73
9.52245e-48
-8.92543e-94
-2.52731e-160
1.62164e-92
4.09793e-217
-1.77278e-90
5.12364e-215
1.24513e-219
-5.7591e-94
1.28277e-72
9.21274e-72
-8.4849e-92
-2.4629e-12
1.94043e-93
9.3398
2.56009e-65
4.38788e-117
-4.6512e-91
1.67834e-67
1.44339e-71
1.689e-96
0.127937
-3.36035e-48
3.18456e-74
2.78391e-78
1.98827e-140
1.05244e-155
-3.92572e-51
9.97637e-312
0.25395
2.62966e-203
-6.70156e-47
2.04678e-32
1.24323e-12
6.34751e-37
2.08302e-56
4.77536e-50
-3.23788e-101
1.48812e-36
1.92569e-56
2.18947e-21
1.598e-78
2.96117e-24
-8.55802e-80
0
9.68222e-73
139.227
4.01845e-18
-1.32373e-133
0
3.56253e-197
-8.59179e-115
4.77976e-66
3.29417e-73
-2.44876e-102
-5.33591e-250
2.10046e-130
4.03606e-71
-5.03216e-135
1.6687e-153
2.54124e-24
-6.42412e-127
3.02221e-60
1.52412e-52
3.85498e-131
-2.78404e-124
8.56077e-38
0
-6.8825e-121
33.563
7.04744e-232
1.72907e-28
1.97617e-33
2.08772e-125
1.60649e-44
5.64932e-52
-2.22679e-73
8.20774e-44
1.02212e-164
1.81529e-44
1.6093e-178
1.79357e-99
1.11556e-54
-1.13181e-42
1.34927e-164
9.13849e-69
1.96631e-17
-9.32669e-62
1.12682e-98
2.52529e-160
7.91599e-34
6.74002e-09
4.22499e-144
3.67684e-265
4.40369e-74
-1.13649e-286
0.172054
-7.17494e-79
2.89602e-18
1.42006e-103
-3.45354e-104
3.89793
1.36837e-94
8.98013e-05
4.66084e-75
22.0356
2.67769e-73
1.7008e-101
1.6605e-96
2.11049e-129
4.27436e-05
7.10701e-07
-1.98732e-235
-1.72787e-231
-1.911e-39
-3.0016e-218
0.000245573
7.2313e-47
7.85272e-14
2.18413e-161
108.429
0.0180563
-4.32264e-78
0
1.59577e-170
-2.88284e-51
-1.62133e-113
1.31966e-109
-3.83203e-110
-1.16318e-69
4.58731e-58
3.8761
-1.98372e-11
-2.7343e-252
2.38852e-50
1.86709e-42
2.10873e-37
5.99101e-101
4.09518e-31
8.56577e-65
-7.64959e-50
-1.18566e-160
0
1.60838e-39
1.22853e-35
-2.09137e-104
-2.05831e-41
1.44583e-19
5.91069e-119
-2.67019e-75
1.79121e-152
2.55647e-113
3.20488e-20
-4.97447e-112
1.70772e-47
7.22616e-56
1.284e-82
-5.56281e-146
-3.37183e-102
1.94706e-18
3.81314e-106
2.35211e-102
4.07156
8.695e-67
-3.03714e-118
0.000869308
0
4.72884e-104
-8.38671e-82
-2.28423e-115
1.29502e-194
1.40694e-76
0
5.33588e-14
1.06043e-169
6.08979e-73
2.68421e-36
1.04495e-43
1.81288e-97
1.48784e-101
3.01544e-41
47.9784
-1.94328e-235
-1.48573e-123
-1.60294e-118
0.000711229
3.44387e-35
8.81868e-167
0.615956
0
2.1947e-171
117.008
-1.92893e-127
1.38791e-162
8.85825e-159
2.59344e-58
-1.9098e-54
-5.61616e-230
-1.97225e-119
9.26577e-34
3.7234e-82
-8.27801e-87
-4.11492e-111
1.23756e-237
-7.95826e-53
1.93412e-11
-9.58687e-89
-5.49613e-43
1.92462e-76
1.31569e-98
2.68659e-15
-2.98542e-44
-7.97309e-109
2.79702e-170
3.77981e-06
1.45918e-71
9.89764e-63
-1.487e-151
4.64707e-232
-2.33485e-47
1.78211e-20
1.34976e-109
1.36245e-44
1.28065e-107
-4.13903e-108
-8.50009e-143
6.01595e-53
116.689
10.2561
6.7144e-52
-3.28681e-87
2.12174e-144
6.28479e-55
0.00110424
-7.32776e-46
1.93324e-168
1.48163e-23
1.05885e-12
4.85431
9.96043e-133
35.3458
3.66824e-234
-3.55048e-106
8.35186e-231
4.26013e-16
3.16554e-61
35.9201
1.60118e-178
0.00245479
-1.65302e-216
6.15423e-89
6.66353e-57
-7.52409e-115
3.06107e-23
5.5293e-05
-6.626e-124
4.52786e-145
8.3294e-110
2.82048e-133
-6.38357e-126
4.27307e-19
2.00911e-64
8.54233e-101
1.30695e-21
-8.31275e-127
1.82731e-226
-8.81176e-93
-1.86312e-195
1.85653e-36
-3.02829e-111
7.56755e-15
1.99157e-16
-1.34342e-57
2.07952e-53
-2.54774e-62
1.27048e-96
0.00122026
2.95802e-112
-2.26825e-132
-7.28607e-295
8.31781e-22
-1.25294e-47
2.54927e-180
1.01068e-39
-2.65337e-114
1.00174e-54
-8.99704e-51
-1.40047e-44
-3.3056e-64
70.3964
-1.7213e-61
-5.46744e-56
3.47254e-05
-8.1226e-116
3.72795e-10
1.34176e-45
-7.87281e-223
3.61463e-110
-2.75801e-152
5.79749e-99
-1.07262e-320
2.77056e-162
1.96369e-12
1.75494e-19
-2.72508e-164
126.405
2.76181e-39
6.98232e-206
1.50071e-16
1.26403e-24
4.69641e-212
1.10201e-14
5.67678e-38
1.04843e-16
4.31481e-215
-1.74135e-155
-1.08053e-136
5.19369e-213
7.70493e-46
7.26714
-3.19576e-173
1.42003e-16
0
0.90903
2.32213e-43
1.34196e-66
-1.29403e-285
3.66921e-175
-4.181e-104
1.18733e-65
4.9682e-21
1.27029e-53
5.81449e-128
-2.4852e-120
1.25236e-217
2.03653e-47
2.49718e-51
-6.17323e-151
4.12909e-258
1.76109e-87
2.77324e-55
1.41147e-59
-5.34087e-193
1.40494e-11
3.03092e-37
-8.33536e-218
1.62846e-71
-1.84174e-121
2.39369e-104
143.913
-8.37227e-129
7.72717e-207
1.52232e-73
-5.29927e-49
-7.20787e-61
0.857231
2.74606e-75
4.50936e-115
8.20556e-52
-1.72049e-116
4.01721e-119
5.71433e-113
-8.22769e-115
4.43883e-36
-3.74967e-103
8.74413
-3.69458e-59
5.38952e-13
-1.05798e-117
2.09606e-10
3.34893e-42
1.28918e-23
3.58188e-18
5.34601e-68
-1.13143e-119
1.26497e-123
-2.72675e-89
0
-3.49534e-107
3.28051e-48
4.97592e-32
-1.35299e-117
-2.38035e-219
-8.68342e-75
5.28873e-62
6.03204e-34
2.31421e-53
3.44313e-23
2.05516e-34
5.35958e-150
1.07236e-67
0.0017372
8.57128e-50
0
3.2221e-136
-1.42202e-117
0
2.58582e-69
1.54873e-236
-3.22167e-105
-1.98564e-21
3.48155e-45
1.09765e-11
2.6734e-233
3.73103e-179
-6.02901e-285
-2.07219e-118
-6.13928e-140
4.13291e-23
-6.39722e-139
1.78023e-178
6.52951e-10
-7.80364e-60
2.65012e-93
4.71173e-71
1.21834e-24
-6.51333e-135
1.80778e-16
2.19807e-124
1.34744e-228
7.41253e-06
1.00686e-79
1.30014e-27
6.18507e-134
35.0732
-5.71487e-54
-6.61086e-65
1.71695e-72
3.08889e-46
2.85843
-3.92415e-119
1.24604e-24
-4.85623e-57
-1.25089e-66
-6.95854e-169
-6.35476e-110
3.44102e-10
-2.92186e-105
9.98824e-16
-1.30482e-125
-1.78399e-130
1.74514e-17
4.56214e-205
1.11941e-150
-1.27197e-116
2.30467e-78
2.92197e-15
-1.96629e-126
-7.67185e-119
1.16429e-305
-1.10623e-55
4.99313e-06
1.81361e-67
-4.51527e-119
-4.47144e-85
4.61536e-136
-1.82304e-172
6.76017
-3.87121e-64
1.38176e-267
5.29568e-66
3.95485e-138
-3.42605e-52
-1.04766e-35
5.30032e-93
-2.00442e-115
1.63043e-24
1.49817e-18
6.36401e-291
-2.05589e-91
2.06265e-19
9.73424e-181
-1.75583e-244
2.55418e-81
1.45668e-80
-4.6951e-108
-2.46308e-242
3.86305e-77
4.84328e-17
5.91501e-208
1.23726e-35
-1.61313e-232
-9.80844e-153
1.43919e-74
8.87096e-07
2.89793e-302
0.805302
-1.99437e-62
4.32948e-34
6.07377
-3.00218e-57
3.53107e-90
0.00516247
-2.05444e-117
2.01796e-07
-1.25515e-24
-3.35065e-88
2.5595e-109
2.97499e-111
-1.87665e-132
-3.81048e-138
3.17169e-45
0.00266678
121.994
9.64652e-51
5.87426e-35
1.93361e-09
9.64794e-54
0.175734
-1.20548e-196
1.17196e-128
6.09817e-27
6.11537e-70
-1.12077e-158
2.76509e-51
3.24074e-121
2.57577
0
-1.63673e-158
2.06788e-189
134.49
1.04124e-45
2.15125e-59
5.6118e-105
4.53048e-26
4.78476e-115
-2.7282e-179
2.71301e-10
3.30754e-119
3.899e-10
9.92127e-45
-2.72711e-113
1.68202e-24
-5.40534e-78
-2.15931e-123
1.15635e-175
-2.39573e-170
0.0546888
7.19982e-19
-7.61908e-156
2.07636e-25
1.21106e-94
1.00804e-40
1.91191e-298
1.9335e-80
1.46006e-10
2.60496e-27
-1.81145e-55
-4.17561e-91
6.24124e-177
7.58651e-33
2.9038e-113
1.12336e-180
4.62277e-15
6.63451e-30
-1.40771e-144
1.14743e-38
-3.8211e-88
1.18493e-288
9.45965e-161
-4.74985e-261
-7.80231e-52
29.4097
8.08057e-16
1.53644e-34
-3.81328e-151
8.1663e-111
2.42939e-78
-1.0669e-273
6.39679e-12
-2.6268e-79
27.5649
1.07958e-33
3.05421e-113
3.79052e-146
4.28947e-194
7.72471e-122
-9.90266e-116
5.44376e-156
6.11668
1.83756e-28
-3.02297e-53
-2.57623e-23
-5.271e-55
7.04211e-180
0
7.15685e-157
3.11261e-38
0.0291156
-5.06107e-29
3.07245e-70
-1.03289e-65
6.81642e-88
1.48109e-29
0.00295581
0.0031876
-2.30529e-113
-2.101e-93
-1.88358e-48
-9.96536e-140
-4.32347e-253
-5.21154e-158
1.30596e-25
-6.92216e-141
1.08415e-92
-1.47959e-124
1.73464e-54
9.95583e-14
-2.18876e-132
-6.2866e-157
4.7108e-18
2.45615e-32
3.08715e-113
1.35752e-167
-1.75706e-67
1.61374e-13
1.67905e-38
-1.03103e-35
-7.29712e-71
-2.15486e-102
3.85618e-06
2.54555e-109
-4.73884e-29
1.42149e-172
6.14324e-17
3.89802e-19
-7.54136e-229
6.91791e-189
72.1536
1.20505e-160
9.23214e-99
7.20331e-43
-2.44335e-137
-1.80958e-136
-4.91932e-120
1.14755e-162
-8.43328e-285
7.85841e-44
1.23211e-08
-4.02348e-193
0.00164613
2.90051e-124
-6.45956e-163
5.18819e-17
3.1807e-12
2.60603e-39
9.38684e-117
1.8338e-154
-1.2566e-60
121.89
-5.01658e-140
2.45527e-195
9.91515e-202
-8.89513e-141
-3.5385e-79
-2.72875e-49
-6.314e-145
1.80697e-92
1.35326e-153
2.49267
5.84406e-13
3.73343e-79
-2.03367e-50
3.04469e-122
-2.76171e-162
2.54412e-33
0.312766
-3.63438e-97
-6.12267e-200
-2.10922e-164
3.01787e-19
-1.5933e-138
1.03634e-174
4.66619e-21
2.0112e-118
-1.45455e-161
96.8255
2.77242e-18
0.0494878
1.5537e-33
-4.75316e-140
7.15104e-31
4.00123e-14
0.0206296
-1.43772e-128
5.71417e-55
4.174e-277
0.0219948
0
1.79036e-131
4.33248e-128
1.22169e-199
1.26703e-65
-8.74704e-111
-1.45283e-137
-2.20478e-130
0.346739
1.53829e-19
1.33773e-71
-3.22102e-156
8.99211e-45
0.383556
6.17962e-16
1.05719e-57
-4.24977e-69
7.26713e-132
-1.91986e-114
1.53079e-196
6.14279e-147
-1.15706e-190
-6.9158e-159
-8.45317e-59
1.54709e-20
6.12909e-30
0.061885
2.83802e-06
1.02902e-12
2.40185e-37
0.0228733
5.8184e-177
5.98113e-08
-1.2062e-165
9.42173e-05
3.90805e-17
1.78801e-56
-6.8592e-144
2.33334e-54
1.63483e-42
2.52663e-100
20.4496
7.54954e-17
0.0628633
-7.08235e-161
2.6938e-14
1.16231e-09
4.07624e-17
4.1792e-10
6.86243e-16
2.15424e-163
-1.1364e-118
6.03814e-77
-2.31182e-149
1.12286e-43
1.98093e-135
-1.383e-56
-1.01122e-231
-1.09856e-122
1.41238e-43
9.51791e-67
1.55101e-182
-4.22754e-64
0.0440466
61.9539
1.58253e-201
4.32083e-66
-2.4502e-122
6.97341e-14
6.91133e-46
2.28379
4.90682e-07
-1.76833e-131
7.62488e-64
7.69436e-10
-1.2643e-29
6.12897e-08
9.64921e-73
4.30704e-16
8.4943e-188
0.019364
1.49545e-19
2.88904e-165
2.33977e-10
2.38466e-05
5.70024e-61
0.179609
2.97132e-127
6.49492e-12
-2.73659e-106
1.78486e-207
7.04161e-99
-8.61839e-113
0.00558021
2.92131e-14
0.0012049
3.6549e-181
0.238404
3.53557e-56
2.69344e-20
-1.75975e-42
7.24861e-67
3.22795e-79
0.000222139
4.00224e-125
-2.49249e-144
4.87194e-43
1.88726e-12
6.19933e-44
1.04421e-32
-7.74419e-78
0.00721558
1.9358e-41
1.72201e-44
9.68613e-13
8.09745e-206
2.0781e-10
3.01922e-28
7.201e-11
-3.82612e-101
9.7213e-07
-5.20568e-196
1.34138e-45
6.8001e-81
1.08521e-17
-4.74247e-96
4.21779e-44
1.71089e-11
58.89
-1.28224e-128
1.56761e-73
-1.22484e-61
5.10461e-25
6.63742e-37
2.78614e-130
5.01753e-59
-3.50862e-196
6.87879
-1.619e-292
8.76742e-196
-5.89509e-259
1.42405e-12
-9.65608e-160
-5.29739e-55
0.0146673
1.60918e-82
-2.37053e-77
-8.52061e-152
1.15241e-245
4.10887e-13
6.12125e-200
-1.7289e-53
4.71116e-18
-2.95012e-62
2.08749e-08
-1.17621e-130
2.42959e-58
5.86532e-11
9.61484e-33
-3.21568e-99
66.3966
2.7942e-297
8.21649e-239
-1.29404e-116
144.483
-4.29166e-103
1.04092e-111
1.43832e-10
-7.86317e-144
-1.66389e-128
3.99569e-27
1.91168e-09
2.28065e-48
3.18048e-05
-7.41016e-141
2.24868e-120
-4.48036e-78
2.05705e-79
6.57312e-18
-9.34691e-168
9.55424e-110
-2.62331e-74
-7.41189e-22
-6.79715e-92
1.13963e-184
-1.50363e-58
-1.34087e-24
-1.13904e-250
1.10597e-246
3.76229e-07
1.2448e-47
1.16283e-06
2.50093e-127
0
-3.78544e-23
7.40726e-13
2.87146e-178
-1.67343e-138
1.40212e-196
1.81079
-1.04193e-250
4.42724e-50
1.79505e-08
-4.42751e-244
6.75779e-244
7.81479e-34
2.02322e-211
-6.66422e-247
1.61839e-73
1.55129e-18
4.38941e-187
6.4113e-33
1.70072e-202
2.0946e-11
0
2.65334e-10
1.93376e-17
8.25042e-40
2.71414e-243
3.16539e-27
2.23385
1.50246e-139
2.59548e-64
-1.32448e-216
3.25491e-19
3.72411e-204
1.34357e-10
7.1414e-17
8.89748e-115
9.16935e-254
5.35646e-18
1.85796e-20
-1.7669e-82
1.10153e-81
6.10478e-22
2.55887e-209
2.53746e-28
8.16914e-256
1.32645e-10
1.63713e-12
4.06652e-19
1.41433e-38
-1.16755e-30
0.468223
2.49514e-44
3.43305e-80
1.30531e-20
3.00176e-134
5.10104e-25
1.37211e-21
-1.12216e-56
3.67148e-120
0.00477081
-7.60117e-279
0.000932921
83.9101
3.5724e-148
6.99233e-16
20.4406
7.5598e-48
1.07524e-77
9.48066e-29
-1.69347e-72
2.23626e-193
5.90363e-12
0.000720565
0.233446
-3.60547e-134
2.77954e-35
1.01211e-07
1.04773e-18
-1.03606e-156
-6.65223e-234
5.04139e-64
0.000152615
4.53271e-12
1.19197e-22
4.0374e-306
2.34885e-205
3.60621e-20
-4.16828e-142
1.19875e-68
-2.29839e-136
-1.89298e-249
1.05504e-10
1.18689e-129
8.57206e-09
-4.03089e-81
3.0866e-222
-5.51959e-235
5.81227e-20
-2.67467e-135
1.40704e-47
2.16345e-22
0.00104918
-1.05297e-67
2.07043e-185
4.83434e-09
3.82689e-114
-6.81324e-198
2.37411e-105
1.30664e-19
-2.02483e-138
5.84221e-19
8.84451e-72
141.158
5.23596e-21
-7.68789e-174
1.123e-08
-1.17827e-257
1.82668e-13
3.35015e-57
3.66006e-08
3.25785e-05
-2.96331e-58
1.44069e-07
3.91975e-220
1.17666e-14
2.74716e-149
1.08702e-67
1.69424e-09
1.80899e-46
1.42778e-09
0.000707143
-4.6964e-26
1.64431e-13
1.46081e-08
3.96905e-181
-9.46391e-202
-1.13978e-255
1.02849e-07
-5.20114e-32
6.66192e-179
3.27011e-11
6.7724e-11
-1.26843e-69
4.93144e-26
6.95386e-84
4.50917e-46
6.66407e-08
-7.16958e-94
5.45719e-54
3.2796e-52
5.52057e-278
2.24244e-275
-7.90557e-180
-1.67423e-133
4.18678e-83
-2.43109e-225
2.75669e-114
5.08403e-127
5.03304e-79
2.23641e-43
1.27106e-157
1.20944e-10
0
3.25937e-17
2.26818e-08
-8.70409e-172
9.95879e-07
5.90733e-23
1.42606e-10
7.19581e-90
4.06879e-23
1.55622e-143
1.35283e-58
4.88414e-74
-2.15292e-237
9.41965e-149
-2.19264e-121
-1.05449e-169
-2.31119e-261
6.81486e-73
-1.91418e-263
-1.96681e-41
1.36013e-40
0.00866675
-2.84926e-228
2.14064e-80
-3.95988e-223
-8.72402e-142
1.89649e-29
7.72675e-84
5.37306e-176
105.097
3.71831e-19
2.62984e-47
6.59184e-80
8.48227e-22
2.50944e-31
-2.29908e-107
1.30544e-31
9.57949e-19
-6.20567e-127
5.56492e-258
6.08909e-111
9.52458e-14
1.6041e-200
-2.8698e-181
1.64275e-18
9.36316e-149
-1.30533e-142
2.71305e-118
6.27387e-185
5.92691e-07
-5.43545e-226
-2.12551e-183
3.88369e-40
1.81493e-31
0.0966852
5.51432e-18
-8.96407e-79
-1.09851e-173
3.68661e-31
-8.49749e-176
3.59185e-41
1.63034e-93
-1.73679e-127
2.00493e-08
5.90407e-237
1.25209e-32
3.9597e-71
6.38395e-21
-2.50153e-54
1.16263e-268
7.02249e-129
0
1.37186e-37
1.30886e-203
6.06435e-27
-4.41981e-70
-1.47006e-125
-5.45028e-76
1.97115e-60
2.00014e-260
9.38773e-32
5.24452e-38
-3.295e-135
3.35078e-38
7.11383e-12
1.1141e-247
3.68379e-60
1.70583e-15
1.05222e-25
5.36782e-101
-2.64536e-61
-1.88644e-59
4.32023e-73
1.32178e-96
1.24874e-19
-1.19642e-95
1.39649e-172
1.82625e-174
2.0302e-07
3.01346e-12
6.10607e-10
7.2004e-09
-2.92655e-47
2.20623e-29
1.03736e-68
7.82378e-32
2.87174e-175
0.0188081
-7.7286e-142
2.09822e-08
1.37396e-22
-9.77618e-178
-6.60224e-34
2.82105e-13
8.80022e-12
-2.66245e-67
2.8969e-40
1.88359e-177
1.1126e-288
6.47322e-21
5.83769e-258
-1.30345e-229
3.32436e-23
-8.2446e-143
-2.00966e-89
3.38831e-183
1.55566e-127
2.2531e-21
5.25075
-2.87456e-145
-8.55916e-150
8.27606e-15
-1.09142e-51
4.81923e-15
1.44722e-37
5.98019e-35
-2.66139e-145
-1.30898e-55
5.2704e-35
9.392e-24
-9.66628e-41
-2.57148e-187
4.7291e-20
1.29954e-46
8.48826e-28
-2.29626e-112
9.22441e-181
2.42296e-23
-7.50344e-142
1.16346e-247
3.86292e-34
1.94131e-11
-1.484e-226
1.49807e-37
3.73464e-72
1.57749e-155
2.77193e-102
-1.08908e-155
3.11209e-34
2.25112e-172
5.55844e-183
-7.32954e-80
5.32329e-35
-7.10189e-54
1.12853e-36
5.13737
-2.58446e-130
9.9885e-82
0.000129284
3.5417e-51
-2.03538e-157
2.53552e-48
1.53081e-11
5.83794e-237
-1.82806e-146
1.09987e-251
2.92374e-39
3.19387e-20
-9.97224e-80
-1.2938e-265
5.49148e-107
3.25982e-100
-1.53992e-120
1.25653e-12
1.286e-141
6.63408e-267
-3.11133e-259
5.38998e-43
-1.54166e-68
1.32518e-07
-1.08675e-111
-8.28624e-66
1.16227e-62
1.07078e-29
-1.93201e-199
3.76238e-34
8.01477e-241
-1.02225e-230
-3.98949e-253
8.0989e-15
-3.3707e-139
1.27026e-36
4.91461e-47
1.61678e-43
6.45422e-31
5.79824e-42
8.97685e-19
2.65523e-34
-1.3604e-137
7.65993e-54
-6.73519e-61
4.81805e-54
1.96269e-28
-1.03345e-145
13.5414
1.75066e-22
1.28516e-25
2.39516e-228
0.282117
8.53727e-30
2.78515e-32
-2.3556e-38
6.46559e-21
3.28614e-82
7.18915e-129
1.40343e-129
2.6898e-140
8.39998e-134
-1.5667e-24
8.68677e-31
-4.96572e-147
3.47244e-44
-1.57867e-122
1.12648e-130
-1.24973e-84
-5.67382e-60
-5.71476e-106
1.1777e-74
-1.26037e-60
1.33084e-52
5.6649e-36
2.73875e-75
-5.78139e-225
2.85483e-107
1.77871e-136
4.84467e-15
4.38922e-202
-4.5991e-143
-1.25586e-41
0.00286737
-5.66138e-174
4.86533e-07
1.90467e-178
-3.66047e-143
8.73032e-79
1.02594e-44
6.3623e-53
5.92195e-198
1.70714e-38
9.24198e-39
1.52877e-15
-1.70909e-228
2.22643e-49
8.01573e-65
2.70939e-99
-1.4119e-251
2.8062e-304
1.99787e-36
-3.89994e-68
3.2358e-94
9.1578
3.24993e-35
2.02671e-49
-2.6022e-33
-3.81712e-81
5.5318e-15
-6.76463e-129
-4.12903e-81
1.2011e-112
-5.60188e-122
8.13306e-08
2.40303e-48
1.55447e-33
8.08222e-56
-4.28265e-191
2.75398e-37
4.52888e-36
1.05652e-15
2.6024e-123
4.12383e-50
-1.58635e-06
6.40175e-07
1.02404e-180
6.79909e-13
1.41523e-87
2.05959
-3.69296e-247
5.52554e-38
5.91954e-57
2.46113e-275
7.48093e-32
6.62518e-104
-6.1912e-105
6.60585e-26
2.08456e-09
6.36921e-17
2.9067e-105
6.49094e-42
4.00409e-241
-1.93288e-138
8.87723e-09
-6.90823e-43
5.03132e-124
2.85821e-37
-3.06597e-28
1.19322e-43
2.90143e-69
1.70461e-62
1.51963e-46
3.152e-08
-4.20822e-189
1.76097e-66
-2.23197e-84
9.9593e-39
4.53724e-10
7.91341e-42
2.26158e-50
-1.73843e-111
-6.13523e-252
9.03475e-37
1.207e-48
1.66103e-41
-1.5655e-195
1.00081e-87
4.84216e-52
1.17192e-43
-2.96879e-32
1.02934e-36
4.95107e-114
9.05109e-46
-3.95439e-141
1.25708e-28
8.28079e-85
1.36691e-36
4.61649e-83
5.83051e-104
3.26295e-44
5.12504e-88
8.20965e-98
1.37989e-117
5.366e-191
3.90564e-62
6.78206e-69
7.79161e-86
0.223657
1.96033e-05
-2.88333e-153
3.58835e-126
-1.71445e-66
-4.88889e-67
-1.72369e-265
1.09518e-40
-5.30473e-49
-6.09194e-44
1.67182e-244
1.89364e-18
7.02884e-39
2.21013e-22
9.37321e-42
7.30567e-229
-7.30854e-122
4.10778e-96
1.20048e-45
3.61904e-12
1.35678
1.22064e-185
-2.50674e-89
-1.46703e-102
8.97101e-14
5.59942e-08
1.75443e-16
4.19324e-70
9.35703e-43
2.78417e-242
2.56903e-60
-2.88386e-71
-4.18904e-183
-4.41787e-29
-1.02697e-69
9.06412e-55
2.24212e-41
-1.42718e-91
-5.28431e-69
5.09105e-49
6.49943e-231
0
-1.00628e-64
-2.52463e-90
2.8925e-11
-8.98481e-86
-2.01643e-30
1.74484e-18
-1.09502e-55
-1.9278e-185
-1.00542e-80
4.09415e-40
3.21667e-189
4.67226e-06
9.46486e-08
-4.1497e-153
2.02548e-242
-8.46815e-150
-7.58272e-191
2.95187e-279
6.21295e-82
4.79596e-102
-1.07025e-39
-6.03349e-71
1.52444e-47
-1.84906e-63
2.6425e-14
1.67477e-42
2.09952e-44
6.92657e-75
-2.71327e-83
-7.40716e-49
3.93188e-230
3.64312e-101
2.04927e-107
-3.42848e-43
-8.00629e-35
1.78004e-12
3.11206e-282
-3.09722e-36
9.38462e-59
3.36152e-77
1.43293e-31
-3.04861e-51
1.91905e-34
1.17633e-08
7.39036e-64
5.99068e-26
-3.25841e-84
3.54904e-125
3.70242e-60
9.52969e-47
-2.94257e-192
-2.53856e-74
6.19211e-07
-2.13093e-105
4.35307e-09
-1.85719e-181
2.96376e-47
-3.00687e-122
2.28019e-115
2.74044e-40
-1.64669e-27
7.31761e-34
-3.09336e-101
-1.09144e-77
9.03447e-78
2.76797e-25
1.35046e-33
-1.98474e-62
1.56422e-22
9.39799e-277
-5.99617e-68
2.25288
5.03162e-20
-8.32593e-108
0.000231248
1.47515e-35
1.01891e-99
4.8496e-213
1.63834e-14
1.19048e-46
1.02325e-79
-1.63421e-52
-1.65561e-183
6.3409e-46
-1.00404e-112
6.48971e-27
4.05708e-50
2.954e-49
1.81323e-37
0
-2.71238e-143
1.86366e-95
1.03107e-128
5.6096e-131
2.55036e-76
1.47933e-102
3.60935e-99
-2.33514e-30
2.49598e-37
-3.67914e-263
3.24082e-31
-8.49842e-140
9.64528e-229
-3.38162e-37
1.17826e-173
-9.16126e-83
-5.40603e-83
-4.80575e-194
-6.48926e-189
-2.80233e-113
2.30234e-51
-1.03538e-81
2.19276e-43
1.30437e-56
-6.40947e-36
1.19594e-39
5.70407e-81
-4.94945e-68
4.09972e-53
-1.04418e-296
4.57115e-87
1.48097e-114
1.84073e-83
2.39021e-06
6.71072e-54
-6.92501e-93
1.50086e-63
-6.48526e-87
7.40668e-105
-1.5078e-104
-1.41686e-83
-3.12099e-114
-5.46787e-44
6.56396e-60
-4.89813e-232
1.18064e-52
-3.48985e-65
4.92027e-50
-1.62011e-213
-4.54372e-38
9.50365e-10
-1.89574e-135
-3.87274e-55
5.69907e-39
-5.13509e-151
4.26761e-37
7.76328e-26
6.22838e-50
-1.94939e-48
4.49244e-30
-2.18829e-62
-1.48911e-69
3.52099e-56
7.98105e-45
1.75162e-171
9.19554e-115
5.49269e-288
5.91611e-137
2.29221e-213
7.23161e-77
9.06277e-69
1.42897e-42
1.40462e-56
0.2461
-2.04872e-27
1.26505
8.76815e-58
6.72217e-14
0.0556128
3.74498e-23
1.59516
8.49693e-111
-2.06202e-70
-3.78648e-83
4.86582e-85
1.20379e-63
1.46358e-146
1.16731e-74
-9.20221e-124
-1.21746e-215
-1.58042e-71
0.0043795
2.69476e-80
7.40026e-49
-4.59084e-81
5.05142e-116
8.12729e-61
-8.48822e-68
-1.05192e-132
-2.87416e-73
1.86888e-119
9.61746e-33
3.16006e-53
4.03044e-56
-1.55139e-58
1.8721e-06
2.03294e-23
3.13229e-47
-1.68107e-84
16.658
-6.94034e-83
-1.48821e-74
2.5398e-43
-1.02942e-39
2.82314e-79
1.71549e-32
1.17915e-186
-1.58579e-50
-1.429e-37
4.24746e-59
5.2536e-60
-3.56019e-102
-4.33098e-71
-1.67286e-46
6.51545e-110
1.03394e-44
1.71394e-76
-6.70224e-98
-1.2734e-183
2.07612e-86
3.65982e-62
-9.90391e-111
3.49214e-86
8.21562e-98
-7.71118e-142
-1.18172e-45
-1.14029e-114
2.99103e-23
1.13651e-62
-2.25602e-85
-8.11028e-195
6.87982e-135
4.5213e-37
-2.40082e-72
2.01005e-243
-1.93269e-62
0.0448612
3.5362e-50
3.88782e-104
4.62255e-86
3.61175e-07
0.000340278
2.69539
2.2409e-136
2.9565e-138
1.4443e-128
-2.51758e-96
9.78755e-47
2.95217e-12
1.30234e-09
1.96025e-21
5.00429e-48
2.11481e-116
6.25824e-209
2.60808e-205
-4.94874e-37
2.46344e-104
3.98756e-39
4.88898e-133
9.97106e-19
2.0572e-122
1.18499e-69
4.13153e-16
-3.23426e-57
1.80598e-38
-1.45431e-135
-1.04137e-75
1.04113e-226
6.46685e-34
5.41682e-49
7.21033e-109
1.8978e-215
-2.93443e-91
-9.57418e-32
-9.30229e-148
-5.43953e-62
1.74997e-07
-1.67299e-240
7.76389e-103
-3.20054e-52
-1.65522e-53
8.76858e-65
9.14898e-159
-1.9138e-145
-4.75049e-141
-5.26051e-259
1.17691e-204
-8.91567e-95
2.98606e-58
1.77777e-227
-1.20158e-100
-5.33938e-145
125.674
-8.25853e-39
-4.57552e-139
1.62009e-284
5.67114e-46
-4.3864e-79
2.48804e-32
1.74665e-63
-9.15906e-78
2.5511e-219
6.95182e-142
3.20712e-36
-4.95646e-285
8.16155e-84
4.9474e-40
1.92403e-69
9.74886e-200
8.36148e-75
3.10323e-263
2.51704e-92
-1.48882e-94
-1.13192e-145
1.71003e-21
1.1256e-74
1.60782e-101