/*--------------------------------*- C++ -*----------------------------------*\
  =========                 |
  \\      /  F ield         | OpenFOAM: The Open Source CFD Toolbox
   \\    /   O peration     | Website:  https://openfoam.org
    \\  /    A nd           | Version:  7
     \\/     M anipulation  |
\*---------------------------------------------------------------------------*/
FoamFile
{
    version     2.0;
    format      ascii;
    class       volScalarField;
    location    "3";
    object      rho;
}
// * * * * * * * * * * * * * * * * * * * * * * * * * * * * * * * * * * * * * //

dimensions      [1 -3 0 0 0 0 0];

internalField   nonuniform List<scalar> 
2413
(
1.40001
1.40001
1.40001
1.40001
1.40001
1.40001
1.40001
1.40001
1.40001
1.40001
1.40001
1.40001
1.40001
1.40001
1.40001
1.40001
1.40001
1.40001
1.40001
1.40001
1.40001
1.40001
1.40001
1.40001
1.40001
1.40001
1.40001
1.40001
1.40001
1.40001
1.40001
1.40001
1.40001
1.40001
1.40001
1.40001
1.40001
1.40001
1.40001
1.40001
1.40001
1.40001
1.40001
1.40001
1.40001
1.40001
1.40001
1.40001
1.40001
1.40001
1.40001
1.40001
1.40001
1.40001
1.40001
1.40001
1.40001
1.40001
1.40001
1.40001
1.40001
1.40001
1.40001
1.40001
1.40001
1.40001
1.40001
1.40001
1.40001
1.40001
1.40001
1.40001
1.40001
1.40001
1.40001
1.40001
1.40001
1.40001
1.40001
1.40001
1.40001
1.40001
1.40001
1.40001
1.40001
1.40001
1.40001
1.40001
1.40001
1.40001
1.40001
1.40001
1.40001
1.40001
1.40001
1.40001
1.40001
1.40001
1.40001
1.40001
1.40001
1.40001
1.40001
1.40001
1.40001
1.40001
1.40001
1.40001
1.40001
1.40001
1.40001
1.40001
1.40001
1.40001
1.40001
1.40001
1.40001
1.40001
1.40001
1.40001
1.40001
1.40001
1.40001
1.40001
1.40001
1.40001
1.40001
1.40001
1.40001
1.40001
1.40001
1.40001
1.40001
1.40001
1.40001
1.40001
1.40001
1.40001
1.40001
1.40001
1.40001
1.40001
1.40001
1.40001
1.40001
1.40001
1.40001
1.40001
1.40001
1.40001
1.40001
1.40001
2.4931
2.48226
2.4715
2.45975
2.44667
2.43257
2.41986
2.40964
2.40017
2.39016
2.37885
2.3661
2.35517
2.3455
2.33457
2.32203
2.31122
2.30155
2.29118
2.2808
2.27134
2.26142
2.24977
2.23907
2.22964
2.22009
2.21091
2.20126
2.19091
2.18121
2.17209
2.16246
2.15169
2.14102
2.1316
2.12225
2.1121
2.10254
2.09412
2.0854
2.07561
2.06625
2.05718
2.04764
2.03676
2.02756
2.01889
2.00912
2.00046
1.99219
1.98333
1.97539
1.96738
1.95854
1.94893
1.94012
1.93155
1.92284
1.91344
1.905
1.8974
1.88976
1.88136
1.87362
1.86626
1.8586
1.85004
1.84206
1.83419
1.826
1.81739
1.80974
1.80235
1.79463
1.78691
1.78015
1.77331
1.76592
1.75841
1.75138
1.74427
1.73671
1.72931
1.72266
1.71602
1.70901
1.70216
1.69561
1.68886
1.68172
1.67431
1.66783
1.6616
1.65533
1.64901
1.4
1.4
1.4
1.4
1.4
1.40001
1.40014
1.40259
1.42068
1.51176
1.73962
2.09224
2.40219
2.52794
2.60097
2.62891
2.62931
2.61755
2.60128
2.58778
2.57253
2.55583
2.54282
2.53228
2.52193
2.51116
2.49902
2.48509
2.47164
2.45999
2.44883
2.43778
2.42649
2.41491
2.40479
2.39519
2.38463
2.37276
2.36064
2.35054
2.34081
2.33091
2.31939
2.30833
2.29898
2.28906
2.27798
2.26795
2.25851
2.24819
2.23806
2.2294
2.22028
2.21006
2.2002
2.18993
2.17897
2.16908
2.15979
2.15031
2.14005
2.13082
2.12248
2.11366
2.10379
2.09449
2.08527
2.07541
2.06479
2.05547
2.04658
2.03692
2.02755
2.01968
2.01166
2.00251
1.99413
1.98568
1.97639
1.96762
1.95902
1.94987
1.9403
1.93212
1.9244
1.91643
1.90783
1.90014
1.89271
1.88491
1.87638
1.86856
1.86082
1.85273
1.84413
1.83638
1.82884
1.82093
1.81295
1.80597
1.799
1.79146
1.78397
1.77704
1.77002
1.76245
1.75503
1.74828
1.74154
1.73434
1.72738
1.72073
1.71391
1.70649
1.69927
1.69272
1.68629
1.67965
1.67336
1.6678
1.40001
1.40001
1.4
1.4
1.4
1.4
1.40001
1.40002
1.40031
1.4043
1.43303
1.5478
1.81551
2.14585
2.45618
2.54768
2.58764
2.60264
2.61384
2.61103
2.59844
2.58114
2.56468
2.54922
2.53492
2.52282
2.51238
2.50162
2.49016
2.47787
2.46457
2.4525
2.44263
2.43314
2.42315
2.412
2.40038
2.3896
2.37936
2.36907
2.35785
2.34726
2.33757
2.32767
2.31685
2.30525
2.29578
2.28663
2.27646
2.26688
2.25792
2.24836
2.23783
2.22816
2.21854
2.20742
2.19673
2.18725
2.17751
2.16768
2.15913
2.15062
2.14131
2.13153
2.12247
2.1133
2.10332
2.09277
2.08337
2.07426
2.06449
2.05516
2.04715
2.03898
2.02977
2.02116
2.01296
2.0042
1.99451
1.98585
1.97722
1.9678
1.95939
1.95142
1.94299
1.93425
1.92666
1.91913
1.9111
1.90258
1.89495
1.88732
1.87923
1.87076
1.86308
1.85545
1.84736
1.83914
1.83195
1.82483
1.81711
1.80959
1.80269
1.79567
1.78802
1.78068
1.7739
1.76709
1.75973
1.75272
1.74598
1.73906
1.73148
1.7243
1.71761
1.711
1.70406
1.69785
1.69225
1.6865
1.40001
1.40001
1.40001
1.40001
1.4
1.4
1.4
1.4
1.40001
1.40004
1.40063
1.40694
1.44992
1.58804
1.89333
2.20137
2.47873
2.57316
2.58999
2.59905
2.59566
2.59305
2.58586
2.5733
2.55994
2.54458
2.53024
2.51584
2.50302
2.49289
2.48342
2.47351
2.46281
2.45078
2.439
2.42857
2.41858
2.40835
2.39751
2.38577
2.3751
2.36549
2.35523
2.34399
2.3339
2.32463
2.31481
2.30398
2.29465
2.28613
2.27647
2.2662
2.25641
2.24612
2.2349
2.22466
2.2152
2.20543
2.19504
2.18647
2.17823
2.16872
2.1592
2.15035
2.14094
2.13055
2.12066
2.11145
2.10213
2.09212
2.08274
2.07457
2.06624
2.05697
2.04827
2.04002
2.03132
2.02165
2.01299
2.00461
1.99547
1.98631
1.97828
1.97005
1.96108
1.95315
1.94544
1.93712
1.92868
1.92125
1.91373
1.90559
1.89732
1.88975
1.88208
1.87381
1.86551
1.85813
1.8508
1.84286
1.83526
1.82835
1.82133
1.81363
1.80632
1.7995
1.79258
1.78507
1.77805
1.77128
1.76431
1.75664
1.74945
1.74262
1.73583
1.72862
1.72238
1.71668
1.71079
1.70434
1.40001
1.40001
1.40001
1.40001
1.40001
1.40001
1.4
1.4
1.4
1.4
1.40001
1.40007
1.40123
1.41095
1.46993
1.63345
1.96604
2.25479
2.48062
2.58619
2.59919
2.59926
2.59483
2.58536
2.57311
2.5607
2.55127
2.53996
2.52665
2.51375
2.50018
2.48828
2.47911
2.47021
2.46017
2.44888
2.4364
2.42429
2.41373
2.40406
2.39449
2.38414
2.372
2.36126
2.35212
2.34217
2.33261
2.32376
2.3142
2.30339
2.29343
2.28437
2.27439
2.26292
2.25265
2.24278
2.23222
2.22292
2.21438
2.2055
2.19601
2.18638
2.17775
2.16868
2.15788
2.14795
2.13911
2.12977
2.11965
2.11055
2.10218
2.09345
2.08387
2.07516
2.06696
2.05831
2.04873
2.04008
2.03174
2.02284
2.01354
2.0054
1.99725
1.9881
1.97959
1.97184
1.96368
1.95502
1.94748
1.93999
1.93182
1.92374
1.91632
1.90867
1.90025
1.89195
1.88444
1.8769
1.86869
1.86104
1.85408
1.84699
1.83919
1.83192
1.82507
1.81806
1.81043
1.80342
1.7966
1.78956
1.78188
1.77473
1.76779
1.76082
1.7534
1.74705
1.7412
1.73516
1.72866
1.7226
1.40001
1.40001
1.40001
1.40001
1.40001
1.40001
1.40001
1.40001
1.40001
1.4
1.4
1.40001
1.40001
1.40012
1.40213
1.41648
1.49265
1.68424
2.02148
2.30598
2.47829
2.58213
2.60691
2.60351
2.59504
2.5851
2.57073
2.55286
2.54213
2.53476
2.52442
2.51254
2.50031
2.48669
2.47457
2.46517
2.45607
2.44588
2.43451
2.42151
2.40939
2.40043
2.392
2.38263
2.37157
2.35913
2.35019
2.34184
2.33224
2.32249
2.31213
2.30052
2.28998
2.28077
2.27117
2.26014
2.25041
2.24194
2.23259
2.22304
2.21451
2.20519
2.19498
2.18565
2.1759
2.16651
2.15709
2.14682
2.13773
2.12959
2.12078
2.11098
2.10214
2.09387
2.08514
2.07556
2.06702
2.05882
2.05007
2.0407
2.03247
2.0243
2.01518
2.00632
1.99844
1.99032
1.98142
1.97372
1.96635
1.95832
1.95014
1.94271
1.93508
1.92662
1.91843
1.91083
1.90312
1.89469
1.88701
1.87995
1.87271
1.86478
1.85757
1.85067
1.84352
1.8358
1.82882
1.822
1.81485
1.80716
1.80008
1.79309
1.78591
1.77832
1.7719
1.76587
1.75962
1.75304
1.74699
1.74079
1.40001
1.40001
1.40001
1.40001
1.40001
1.40001
1.40001
1.40001
1.40001
1.40001
1.40001
1.40001
1.40001
1.40001
1.40002
1.40023
1.4033
1.42398
1.51689
1.73467
2.06085
2.35675
2.48216
2.56547
2.60275
2.60622
2.59828
2.58386
2.57022
2.55271
2.53643
2.52813
2.52106
2.51005
2.49806
2.48509
2.47043
2.45978
2.45218
2.44306
2.4324
2.42004
2.40707
2.39851
2.39111
2.38184
2.3707
2.35812
2.3486
2.34038
2.33006
2.31856
2.30819
2.29755
2.28737
2.27876
2.27012
2.2601
2.25026
2.2418
2.23262
2.22228
2.21301
2.20385
2.19333
2.18389
2.17519
2.16536
2.1562
2.14752
2.13807
2.12907
2.12076
2.11196
2.10234
2.09387
2.08582
2.07717
2.06782
2.05953
2.05134
2.04223
2.03316
2.02518
2.01705
2.00804
2.00017
1.99283
1.98485
1.97656
1.9691
1.96152
1.953
1.94476
1.93712
1.92928
1.92071
1.91307
1.90593
1.89848
1.89045
1.88329
1.87634
1.86897
1.86118
1.85427
1.84745
1.84013
1.83254
1.82555
1.81854
1.81112
1.80348
1.79695
1.79071
1.78415
1.7775
1.77148
1.76529
1.75864
1.40001
1.40001
1.40001
1.40001
1.40001
1.40001
1.40001
1.40001
1.40001
1.40001
1.40001
1.40001
1.40001
1.40001
1.40001
1.40001
1.40003
1.40039
1.40479
1.43321
1.54088
1.78018
2.09087
2.39161
2.49471
2.55294
2.58777
2.60043
2.5976
2.58521
2.56877
2.55253
2.53336
2.52101
2.51576
2.50743
2.49544
2.48253
2.46763
2.45637
2.45002
2.44173
2.43091
2.41838
2.40553
2.39755
2.3899
2.37994
2.36793
2.35548
2.34627
2.33752
2.32707
2.31523
2.30606
2.29735
2.28752
2.27842
2.26971
2.25976
2.24941
2.24048
2.23139
2.22082
2.21123
2.20252
2.19281
2.18306
2.17459
2.16572
2.15587
2.14729
2.13885
2.1294
2.12071
2.11268
2.10404
2.09476
2.08654
2.07838
2.06915
2.05999
2.05198
2.04379
2.0347
2.02677
2.01941
2.01135
2.003
1.99553
1.98795
1.97933
1.97106
1.96339
1.95547
1.94681
1.93918
1.93198
1.92431
1.91625
1.90913
1.90212
1.89448
1.8867
1.87982
1.87296
1.86542
1.85795
1.85105
1.84406
1.83637
1.82881
1.82219
1.81573
1.80878
1.80211
1.79606
1.78988
1.78301
1.77594
1.40001
1.40001
1.40001
1.40001
1.40001
1.40001
1.40001
1.40001
1.40001
1.40001
1.40001
1.40001
1.40001
1.40001
1.40001
1.40001
1.40001
1.40001
1.40004
1.40063
1.40659
1.4428
1.56288
1.81956
2.11701
2.409
2.50956
2.55008
2.57335
2.59004
2.59337
2.58462
2.5676
2.54892
2.52902
2.51627
2.51235
2.50532
2.49362
2.47982
2.46519
2.45566
2.44947
2.44037
2.42833
2.41523
2.40394
2.39592
2.38715
2.37629
2.36414
2.35286
2.34438
2.33584
2.32594
2.31488
2.30593
2.29745
2.28733
2.27729
2.26822
2.25843
2.24801
2.23894
2.23009
2.21989
2.21014
2.20178
2.19291
2.1829
2.17425
2.16599
2.15653
2.14759
2.13958
2.13094
2.12169
2.11351
2.10533
2.09589
2.08688
2.07888
2.07049
2.06127
2.05345
2.04607
2.03779
2.02946
2.02202
2.01435
2.00557
1.99738
1.98971
1.9816
1.97286
1.9653
1.95807
1.95015
1.94213
1.93504
1.92796
1.92002
1.91236
1.90549
1.89853
1.89075
1.88345
1.87661
1.86958
1.86165
1.85432
1.8476
1.84086
1.83354
1.82692
1.8208
1.81451
1.80737
1.80052
1.79395
1.40001
1.40001
1.40001
1.40001
1.40001
1.40001
1.40001
1.40001
1.40001
1.40001
1.40001
1.40001
1.40001
1.40001
1.40001
1.40001
1.40001
1.40001
1.40001
1.40001
1.40006
1.40094
1.4086
1.45162
1.58307
1.84946
2.13713
2.41921
2.51731
2.54641
2.56496
2.58274
2.59112
2.58246
2.56418
2.542
2.52357
2.51549
2.51237
2.50378
2.49068
2.4754
2.46267
2.45559
2.4481
2.4374
2.42403
2.41121
2.40265
2.39383
2.38366
2.3732
2.36212
2.35216
2.34399
2.33543
2.32542
2.31428
2.30504
2.29622
2.28592
2.27565
2.26661
2.25714
2.24683
2.23782
2.22922
2.21944
2.20982
2.20167
2.19327
2.18344
2.17466
2.16678
2.15789
2.14858
2.14044
2.13209
2.1225
2.11383
2.10579
2.09688
2.08778
2.08019
2.07267
2.06403
2.05591
2.04854
2.04064
2.03173
2.02373
2.01606
2.0076
1.99893
1.9915
1.98419
1.97596
1.9681
1.96107
1.95383
1.94561
1.93816
1.93129
1.92407
1.91614
1.90906
1.90226
1.89499
1.88698
1.87988
1.87307
1.86595
1.85842
1.85192
1.84572
1.83911
1.83183
1.8252
1.81863
1.81181
1.40001
1.40001
1.40001
1.40001
1.40001
1.40001
1.40001
1.40001
1.40001
1.40001
1.40001
1.40001
1.40001
1.40001
1.40001
1.40001
1.40001
1.40001
1.40001
1.40001
1.40001
1.40001
1.40009
1.40126
1.41066
1.459
1.60094
1.86705
2.15557
2.4281
2.50655
2.54048
2.5666
2.58965
2.59158
2.5791
2.55547
2.53366
2.52255
2.51903
2.51234
2.5004
2.48453
2.46983
2.46158
2.45519
2.4458
2.43335
2.41945
2.40912
2.40174
2.39314
2.3817
2.37136
2.36154
2.35189
2.34329
2.33407
2.32362
2.31243
2.3034
2.29476
2.28461
2.27425
2.26538
2.25625
2.24613
2.23736
2.2291
2.21969
2.21037
2.20233
2.19401
2.18431
2.17554
2.16759
2.15868
2.14904
2.1407
2.13248
2.12306
2.11445
2.10694
2.09893
2.09009
2.08241
2.07504
2.06662
2.05784
2.0501
2.04236
2.03347
2.02511
2.01777
2.01019
2.00166
1.99412
1.98714
1.97954
1.97126
1.96408
1.95716
1.94951
1.94164
1.93475
1.92793
1.92019
1.9124
1.90545
1.89854
1.8909
1.88346
1.87706
1.87073
1.86361
1.85649
1.84998
1.84341
1.83617
1.82873
1.40001
1.40001
1.40001
1.40001
1.40001
1.40001
1.40001
1.40001
1.40001
1.40001
1.40001
1.40001
1.40001
1.40001
1.40001
1.40001
1.40001
1.40001
1.40001
1.40001
1.40001
1.40001
1.40001
1.40001
1.40012
1.40155
1.41264
1.46456
1.6144
1.87468
2.18025
2.41192
2.48803
2.54443
2.58182
2.59262
2.58758
2.56779
2.54575
2.53199
2.52615
2.52085
2.50968
2.4947
2.47837
2.46743
2.46161
2.45409
2.44324
2.42997
2.41704
2.40919
2.40178
2.39251
2.38029
2.36929
2.36056
2.35101
2.34151
2.3319
2.32136
2.31086
2.30228
2.29375
2.28363
2.27325
2.26486
2.2563
2.24646
2.23775
2.22968
2.22047
2.21105
2.20286
2.19444
2.18465
2.17576
2.16766
2.15885
2.14921
2.14114
2.13351
2.12485
2.11626
2.10887
2.10125
2.09234
2.08405
2.07648
2.06836
2.05925
2.05138
2.04404
2.03591
2.02742
2.02023
2.01315
2.00499
1.99701
1.99003
1.98293
1.97479
1.96726
1.96049
1.95341
1.94532
1.93794
1.93103
1.92384
1.91576
1.9087
1.90226
1.89556
1.88808
1.88133
1.87486
1.86816
1.86046
1.85343
1.8471
1.40001
1.40001
1.40001
1.40001
1.40001
1.40001
1.40001
1.40001
1.40001
1.40001
1.40001
1.40001
1.40001
1.40001
1.40001
1.40001
1.40001
1.40001
1.40001
1.40001
1.40001
1.40001
1.40001
1.40001
1.40001
1.40001
1.40015
1.40176
1.41433
1.46781
1.62334
1.8733
2.18692
2.385
2.48525
2.55748
2.58481
2.5874
2.57561
2.55784
2.54392
2.53376
2.52863
2.51922
2.50544
2.48995
2.47555
2.4672
2.46177
2.45295
2.44137
2.42779
2.41614
2.40909
2.40108
2.39084
2.37827
2.36725
2.35922
2.35028
2.33961
2.33
2.32017
2.31029
2.30187
2.29318
2.28314
2.27338
2.2654
2.25713
2.24722
2.23811
2.22992
2.22082
2.21103
2.20261
2.19431
2.18477
2.17567
2.1679
2.15983
2.15067
2.14263
2.13531
2.12716
2.11815
2.11032
2.1027
2.09396
2.08518
2.07768
2.07013
2.06141
2.05338
2.04631
2.03883
2.03029
2.02285
2.01594
2.00836
2.00012
1.99303
1.98619
1.97855
1.9705
1.96345
1.95651
1.94876
1.9408
1.93404
1.92747
1.92017
1.91276
1.90626
1.8998
1.89259
1.88493
1.87833
1.87191
1.86505
1.40001
1.40001
1.40001
1.40001
1.40001
1.40001
1.40001
1.40001
1.40001
1.40001
1.40001
1.40001
1.40001
1.40001
1.40001
1.40001
1.40001
1.40001
1.40001
1.40001
1.40001
1.40001
1.40001
1.40001
1.40001
1.40001
1.40001
1.40001
1.40018
1.40192
1.41528
1.46892
1.6236
1.86703
2.17928
2.37133
2.48151
2.55705
2.57977
2.58004
2.56757
2.55442
2.5431
2.53451
2.52811
2.51677
2.50263
2.48775
2.47434
2.4672
2.46116
2.45132
2.43929
2.42557
2.41512
2.40819
2.39959
2.38877
2.37606
2.36619
2.35862
2.34999
2.33867
2.32883
2.32026
2.31075
2.30177
2.29315
2.28348
2.27403
2.26581
2.25724
2.24716
2.23767
2.22949
2.2209
2.21104
2.20241
2.19459
2.18594
2.17677
2.16914
2.16165
2.15288
2.14423
2.13667
2.12875
2.11953
2.11127
2.10386
2.09581
2.08695
2.07944
2.07229
2.06414
2.05574
2.04867
2.04161
2.03343
2.02557
2.01873
2.0117
2.00352
1.99588
1.98894
1.98176
1.97346
1.966
1.95933
1.95244
1.94466
1.93769
1.93129
1.92465
1.9169
1.90975
1.90324
1.89663
1.88919
1.88232
1.40001
1.40001
1.40001
1.40001
1.40001
1.40001
1.40001
1.40001
1.40001
1.40001
1.40001
1.40001
1.40001
1.40001
1.40001
1.40001
1.40001
1.40001
1.40001
1.40001
1.40001
1.40001
1.40001
1.40001
1.40001
1.40001
1.40001
1.40001
1.40001
1.40001
1.40019
1.40199
1.41532
1.46768
1.61769
1.85587
2.16381
2.35475
2.473
2.55255
2.57468
2.57397
2.56156
2.55081
2.54159
2.53487
2.52776
2.51539
2.50064
2.48519
2.47248
2.46636
2.45973
2.44932
2.43683
2.42325
2.41429
2.40738
2.39823
2.38687
2.37473
2.36659
2.35909
2.34978
2.33816
2.32869
2.32092
2.31162
2.30154
2.29286
2.28382
2.27383
2.26504
2.25657
2.24703
2.23748
2.22951
2.22151
2.21219
2.20327
2.19581
2.18796
2.17874
2.17052
2.16302
2.15459
2.14534
2.13753
2.12998
2.12126
2.11268
2.10543
2.098
2.08929
2.0814
2.07445
2.06697
2.05846
2.05112
2.04432
2.03679
2.02851
2.02132
2.0144
2.00666
1.99835
1.99131
1.98455
1.97705
1.96928
1.96271
1.95632
1.9491
1.94141
1.93475
1.92822
1.92109
1.91347
1.90703
1.90095
1.40001
1.40001
1.40001
1.40001
1.40001
1.40001
1.40001
1.40001
1.40001
1.40001
1.40001
1.40001
1.40001
1.40001
1.40001
1.40001
1.40001
1.40001
1.40001
1.40001
1.40001
1.40001
1.40001
1.40001
1.40001
1.40001
1.40001
1.40001
1.40001
1.40001
1.40001
1.40001
1.40019
1.40192
1.41463
1.46423
1.60787
1.83864
2.14163
2.33778
2.46147
2.5454
2.56849
2.56737
2.5561
2.54711
2.54001
2.53528
2.52684
2.5133
2.49787
2.48186
2.47089
2.46585
2.45835
2.44729
2.43411
2.42181
2.4147
2.40725
2.39734
2.38529
2.37471
2.36765
2.35926
2.34886
2.33778
2.32926
2.32123
2.31156
2.30075
2.29202
2.28368
2.27389
2.26454
2.25658
2.24816
2.23853
2.23031
2.22276
2.2141
2.20492
2.1972
2.18951
2.18031
2.17141
2.16386
2.15596
2.14677
2.13874
2.1315
2.12344
2.11456
2.10717
2.10012
2.09198
2.0837
2.07677
2.06983
2.06167
2.05372
2.04678
2.03967
2.0313
2.02347
2.01663
2.00962
2.00153
1.99421
1.98782
1.98117
1.97336
1.9662
1.95972
1.95304
1.94527
1.93813
1.93191
1.92562
1.91828
1.40001
1.40001
1.40001
1.40001
1.40001
1.40001
1.40001
1.40001
1.40001
1.40001
1.40001
1.40001
1.40001
1.40001
1.40001
1.40001
1.40001
1.40001
1.40001
1.40001
1.40001
1.40001
1.40001
1.40001
1.40001
1.40001
1.40001
1.40001
1.40001
1.40001
1.40001
1.40001
1.40001
1.40001
1.40018
1.40176
1.41346
1.45931
1.59385
1.81564
2.1115
2.31526
2.44484
2.53697
2.56304
2.56116
2.54959
2.542
2.53842
2.53578
2.52576
2.51116
2.49437
2.47852
2.47074
2.46604
2.45723
2.4452
2.43183
2.42237
2.4159
2.40699
2.39555
2.38436
2.37554
2.36757
2.35847
2.34774
2.33743
2.3293
2.32071
2.31083
2.3005
2.29221
2.28433
2.2751
2.26545
2.25758
2.24972
2.24033
2.23161
2.22405
2.21577
2.20626
2.19808
2.19039
2.18158
2.17254
2.16503
2.15755
2.14873
2.14032
2.13317
2.12571
2.11699
2.10927
2.10245
2.09502
2.08655
2.07919
2.07231
2.06466
2.05613
2.04886
2.04198
2.0343
2.02613
2.01939
2.01293
2.0056
1.99786
1.99124
1.98476
1.97744
1.96961
1.96305
1.95678
1.94982
1.94233
1.93586
1.40001
1.40001
1.40001
1.40001
1.40001
1.40001
1.40001
1.40001
1.40001
1.40001
1.40001
1.40001
1.40001
1.40001
1.40001
1.40001
1.40001
1.40001
1.40001
1.40001
1.40001
1.40001
1.40001
1.40001
1.40001
1.40001
1.40001
1.40001
1.40001
1.40001
1.40001
1.40001
1.40001
1.40001
1.40001
1.40001
1.40016
1.40154
1.41182
1.4529
1.57543
1.78657
2.07368
2.28583
2.42628
2.53025
2.55653
2.55073
2.54071
2.53828
2.5419
2.5378
2.52543
2.50798
2.48917
2.47734
2.47288
2.46634
2.45549
2.44209
2.4308
2.42402
2.41611
2.4055
2.39328
2.38416
2.37657
2.36668
2.3566
2.34734
2.33764
2.32886
2.32052
2.31137
2.30159
2.2934
2.28547
2.27644
2.26685
2.25887
2.25106
2.24184
2.23267
2.22486
2.21675
2.20735
2.19894
2.19147
2.18334
2.17423
2.16651
2.15925
2.151
2.14237
2.13522
2.12821
2.12002
2.11182
2.10483
2.09772
2.08933
2.08131
2.07435
2.06719
2.05884
2.05124
2.04468
2.03785
2.02988
2.0227
2.01628
2.00953
2.00158
1.99443
1.98808
1.98147
1.97379
1.96681
1.96056
1.95414
1.40001
1.40001
1.40001
1.40001
1.40001
1.40001
1.40001
1.40001
1.40001
1.40001
1.40001
1.40001
1.40001
1.40001
1.40001
1.40001
1.40001
1.40001
1.40001
1.40001
1.40001
1.40001
1.40001
1.40001
1.40001
1.40001
1.40001
1.40001
1.40001
1.40001
1.40001
1.40001
1.40001
1.40001
1.40001
1.40001
1.40001
1.40001
1.40013
1.40127
1.40987
1.44554
1.55405
1.7533
2.02754
2.24564
2.41134
2.52521
2.54265
2.53433
2.53502
2.54223
2.54907
2.54064
2.52302
2.5013
2.4863
2.4805
2.47517
2.46523
2.45157
2.43895
2.43194
2.42504
2.41519
2.40291
2.3925
2.38506
2.37671
2.36597
2.35554
2.34777
2.33944
2.32944
2.32075
2.31251
2.30303
2.29413
2.28619
2.27755
2.26795
2.25967
2.25178
2.24286
2.23341
2.22557
2.21793
2.20909
2.20031
2.1929
2.1853
2.17641
2.16829
2.16128
2.15377
2.14511
2.13751
2.13056
2.12287
2.11422
2.1068
2.09982
2.09203
2.08361
2.07663
2.06997
2.06243
2.05451
2.04784
2.04134
2.03387
2.02603
2.01945
2.01299
2.00567
1.99806
1.9916
1.9853
1.97816
1.97044
1.40001
1.40001
1.40001
1.40001
1.40001
1.40001
)
;

boundaryField
{
    inlet
    {
        type            calculated;
        value           nonuniform 0();
    }
    outlet
    {
        type            calculated;
        value           nonuniform 0();
    }
    bottom
    {
        type            symmetryPlane;
    }
    top
    {
        type            symmetryPlane;
    }
    obstacle
    {
        type            calculated;
        value           nonuniform 0();
    }
    front
    {
        type            empty;
    }
    back
    {
        type            empty;
    }
    procBoundary45to37
    {
        type            processor;
        value           nonuniform List<scalar> 
129
(
1.40001
1.40001
1.40001
1.40001
1.40001
1.40001
1.4
1.4
2.48171
2.47009
2.45731
2.4438
2.43084
2.41895
2.4075
2.39602
2.38394
2.37185
2.36196
2.35242
2.34107
2.32867
2.3171
2.30547
2.29324
2.28296
2.27373
2.26391
2.2528
2.24199
2.23196
2.22248
2.21221
2.20115
2.19109
2.18197
2.17271
2.16277
2.1529
2.14365
2.13405
2.12364
2.1128
2.10338
2.0941
2.0842
2.07415
2.06548
2.05695
2.04722
2.03781
2.02888
2.01913
2.00977
2.0001
1.98987
1.98159
1.9736
1.96489
1.95592
1.94783
1.93966
1.93125
1.9219
1.91272
1.90422
1.8957
1.88645
1.87788
1.87044
1.86302
1.85475
1.84709
1.83971
1.83192
1.82346
1.81554
1.80755
1.7992
1.79063
1.78318
1.77601
1.76853
1.76109
1.75447
1.74764
1.74025
1.73279
1.72571
1.7185
1.71095
1.70356
1.69708
1.69064
1.68387
1.67698
1.67056
1.66384
1.65698
1.64954
1.64289
1.63686
1.63103
1.4
1.4
1.4
1.40001
1.40007
1.40138
1.41243
1.48083
1.6686
2.02769
2.32798
2.52608
2.62241
2.6373
2.62743
2.6184
2.60901
2.59411
2.57646
2.56458
2.55543
2.54491
2.53261
2.51906
2.50529
2.50529
)
;
    }
    procBoundary45to38
    {
        type            processor;
        value           nonuniform List<scalar> 2(1.64343 1.66217);
    }
    procBoundary45to44
    {
        type            processor;
        value           nonuniform List<scalar> 9(1.40001 1.40001 1.40001 1.40001 1.40001 1.40001 1.40001 1.40001 1.40001);
    }
    procBoundary45to46
    {
        type            processor;
        value           nonuniform List<scalar> 
17
(
1.68013
1.69826
1.71637
1.73424
1.75145
1.76936
1.78731
1.80434
1.82238
1.84075
1.8579
1.87626
1.8944
1.91132
1.92962
1.94649
1.96394
)
;
    }
    procBoundary45to52
    {
        type            processor;
        value           nonuniform List<scalar> 10(1.40001 1.40001 1.40001 1.40001 1.40001 1.40001 1.40001 1.40001 1.40001 1.40001);
    }
    procBoundary45to53
    {
        type            processor;
        value           nonuniform List<scalar> 
129
(
1.40001
1.40001
1.40001
1.40001
1.40001
1.40001
1.40001
1.40001
1.40001
1.40001
1.40001
1.40001
1.40001
1.40001
1.40001
1.40001
1.40001
1.40001
1.40001
1.40001
1.40001
1.40001
1.40001
1.40001
1.40001
1.40001
1.40001
1.40001
1.40001
1.40001
1.40001
1.40001
1.40001
1.40001
1.40001
1.40001
1.40001
1.40001
1.40001
1.40001
1.40001
1.40001
1.4001
1.401
1.40785
1.43757
1.53115
1.71453
1.97184
2.20153
2.40363
2.50287
2.5117
2.52443
2.53861
2.5533
2.55132
2.53719
2.51452
2.49758
2.48978
2.48462
2.47503
2.46155
2.44728
2.43949
2.43374
2.42492
2.41324
2.40138
2.39377
2.38642
2.37671
2.36535
2.35667
2.34922
2.34063
2.33011
2.32097
2.31322
2.30441
2.29469
2.28647
2.27836
2.26894
2.26008
2.25238
2.24422
2.23491
2.22681
2.21947
2.21129
2.2022
2.19461
2.18747
2.17925
2.17065
2.16344
2.15628
2.14786
2.13955
2.13246
2.12521
2.11672
2.10881
2.10207
2.09508
2.08694
2.07956
2.07307
2.06622
2.05817
2.05092
2.04447
2.03765
2.02977
2.02272
2.01642
2.0098
2.00199
1.99494
1.98862
1.40001
1.40001
1.40001
1.40001
1.40001
1.40001
1.40001
)
;
    }
}


// ************************************************************************* //
