/*--------------------------------*- C++ -*----------------------------------*\
  =========                 |
  \\      /  F ield         | OpenFOAM: The Open Source CFD Toolbox
   \\    /   O peration     | Website:  https://openfoam.org
    \\  /    A nd           | Version:  7
     \\/     M anipulation  |
\*---------------------------------------------------------------------------*/
FoamFile
{
    version     2.0;
    format      ascii;
    class       volScalarField;
    location    "4";
    object      T;
}
// * * * * * * * * * * * * * * * * * * * * * * * * * * * * * * * * * * * * * //

dimensions      [0 0 0 1 0 0 0];

internalField   nonuniform List<scalar> 
2413
(
1.2976
1.33407
1.37763
1.42794
1.48633
1.54
1.55934
1.54575
1.25055
1.26386
1.28968
1.32162
1.35482
1.39077
1.41746
1.40827
1.2319
1.2253
1.22923
1.24329
1.26085
1.27581
1.29083
1.28982
1.25384
1.21396
1.19668
1.19462
1.19958
1.20718
1.21309
1.21454
1.32849
1.24283
1.1926
1.16978
1.16368
1.16434
1.16642
1.16761
1.42498
1.31015
1.21854
1.16694
1.14468
1.13824
1.13766
1.13699
1.50362
1.38925
1.27052
1.18379
1.13986
1.12427
1.11947
1.11835
1.56053
1.45368
1.32838
1.2165
1.14617
1.11831
1.11042
1.10825
1.60174
1.50093
1.37659
1.2531
1.16124
1.11829
1.10602
1.10323
1.63342
1.53642
1.41406
1.28547
1.18074
1.12292
1.10474
1.10145
1.64902
1.55433
1.43544
1.30715
1.19647
1.12961
1.10617
1.10215
1.65239
1.55784
1.44069
1.31397
1.20263
1.13412
1.10942
1.10542
1.64199
1.54361
1.42674
1.3053
1.20093
1.13676
1.11394
1.11093
1.60902
1.50557
1.39158
1.28114
1.19183
1.13884
1.12037
1.11823
1.55257
1.44837
1.34249
1.24828
1.17854
1.1404
1.12826
1.12721
1.29016
1.30338
1.31356
1.31939
1.32215
1.32239
1.32153
1.32065
1.29383
1.30759
1.31817
1.32389
1.3257
1.32638
1.32571
1.32501
1.29744
1.31252
1.32474
1.33182
1.33382
1.33449
1.33384
1.33281
1.30002
1.31647
1.33169
1.34165
1.34559
1.34878
1.35004
1.34928
1.30289
1.3204
1.33922
1.35268
1.35918
1.36541
1.36818
1.3686
1.3077
1.32555
1.34675
1.36265
1.37079
1.37801
1.38132
1.38234
1.31363
1.33046
1.35195
1.36866
1.37739
1.38458
1.38774
1.38835
1.3176
1.33272
1.35335
1.36994
1.37901
1.38603
1.38899
1.38931
1.31951
1.33222
1.35122
1.36778
1.37726
1.38441
1.3875
1.38798
1.31853
1.32898
1.34639
1.36254
1.37219
1.37909
1.38258
1.38356
1.31527
1.32267
1.338
1.35432
1.36485
1.37231
1.37633
1.37826
1.30972
1.31522
1.32799
1.34441
1.35643
1.36488
1.36926
1.37257
1.30374
1.30804
1.31782
1.33346
1.34701
1.35667
1.3614
1.3662
1.29816
1.30136
1.30806
1.32158
1.33624
1.34747
1.35287
1.35908
1.29273
1.29465
1.29913
1.3097
1.32435
1.33688
1.34294
1.35038
1.28931
1.28965
1.29231
1.29924
1.31231
1.32595
1.33308
1.3411
1.28629
1.28579
1.28709
1.29091
1.30088
1.31443
1.32316
1.33161
1.28378
1.28263
1.28273
1.28516
1.29186
1.30378
1.31402
1.32244
1.28194
1.28063
1.28022
1.28213
1.28624
1.29593
1.30652
1.31449
1.28137
1.2804
1.28012
1.28151
1.28468
1.29106
1.30043
1.30752
1.28207
1.28168
1.2816
1.28258
1.28504
1.28844
1.29484
1.29989
1.2839
1.28411
1.28436
1.28509
1.28628
1.28628
1.28869
1.29061
1.28645
1.28723
1.28763
1.2879
1.28718
1.28438
1.28191
1.27937
1.2893
1.29046
1.29092
1.29043
1.28695
1.28146
1.27458
1.26781
1.29229
1.29355
1.29364
1.29157
1.28547
1.27704
1.26747
1.25887
1.29502
1.29596
1.29515
1.29048
1.28215
1.27107
1.26135
1.25467
1.2972
1.29724
1.29392
1.28683
1.27638
1.26566
1.25819
1.25363
1.29813
1.29547
1.28941
1.28007
1.27013
1.26284
1.25769
1.25471
1.29573
1.29004
1.28156
1.27266
1.26636
1.26186
1.2592
1.25812
1.28952
1.28134
1.27335
1.26805
1.26477
1.26297
1.26247
1.26252
1.28007
1.27282
1.26848
1.26619
1.26546
1.26578
1.26646
1.26715
1.27137
1.26804
1.26678
1.26684
1.268
1.26948
1.27077
1.27172
1.26648
1.26638
1.26749
1.26949
1.2717
1.27366
1.27505
1.27592
1.26426
1.26691
1.27008
1.2732
1.27589
1.27791
1.27911
1.2798
1.26412
1.26886
1.27338
1.27721
1.28007
1.28198
1.28299
1.28353
1.26521
1.27137
1.27671
1.28095
1.28393
1.28584
1.28678
1.28725
1.26644
1.27332
1.2792
1.28391
1.28727
1.28943
1.29052
1.291
1.26678
1.27397
1.28022
1.28548
1.28949
1.29217
1.29363
1.29424
1.26524
1.27285
1.27991
1.28618
1.29107
1.29435
1.29608
1.29675
1.2582
1.26535
1.27269
1.27943
1.28509
1.28909
1.29129
1.29209
1.24512
1.2489
1.25462
1.26101
1.26683
1.27123
1.27388
1.27493
1.22584
1.22379
1.2249
1.22819
1.23228
1.23598
1.2386
1.23985
1.21117
1.20372
1.20005
1.19848
1.19903
1.20078
1.20262
1.20384
1.22563
1.20941
1.19796
1.19172
1.1893
1.18911
1.18942
1.19006
1.26101
1.23897
1.21961
1.20453
1.19463
1.18913
1.18695
1.18661
1.29679
1.27442
1.25035
1.22838
1.21016
1.1972
1.19
1.18681
1.31789
1.30421
1.28101
1.25476
1.23221
1.21402
1.20182
1.19622
1.32197
1.31696
1.30385
1.28102
1.25554
1.23654
1.2239
1.21752
1.31611
1.31717
1.31116
1.29835
1.27944
1.26181
1.25238
1.24813
1.30418
1.30906
1.30966
1.30555
1.29702
1.28696
1.28146
1.28122
1.29006
1.29919
1.30502
1.3076
1.30746
1.30664
1.30621
1.31023
1.28031
1.29049
1.30131
1.31021
1.31564
1.31928
1.32255
1.32877
1.27787
1.28746
1.3003
1.31258
1.32094
1.3262
1.32898
1.33168
1.28996
1.2943
1.30397
1.31549
1.32344
1.32743
1.32825
1.3273
1.3323
1.31988
1.31904
1.32196
1.32417
1.32427
1.32355
1.32145
1.41812
1.37756
1.3508
1.33507
1.32718
1.32284
1.32129
1.31895
1.52656
1.46769
1.40923
1.36473
1.33905
1.32695
1.32219
1.31948
1.61269
1.56385
1.49352
1.42233
1.36961
1.33978
1.32842
1.3255
1.65606
1.63354
1.58161
1.50525
1.42713
1.37049
1.34449
1.33941
1.66811
1.66326
1.64056
1.58852
1.50821
1.42733
1.37881
1.36626
1.63769
1.66182
1.66204
1.64189
1.58661
1.50471
1.43873
1.41658
1.56008
1.61751
1.65102
1.66031
1.63819
1.585
1.52227
1.49674
1.45874
1.52607
1.58879
1.63136
1.64422
1.6291
1.59922
1.59499
1.36781
1.42356
1.48406
1.55001
1.60696
1.63944
1.65716
1.69813
1.36492
1.29254
1.26663
1.25063
1.24683
1.24968
1.25722
1.2603
1.25985
1.26015
1.26567
1.27806
1.29239
1.29716
1.29944
1.30368
1.31055
1.32291
1.34243
1.35598
1.36728
1.38241
1.42676
1.48227
1.51635
1.54558
1.5616
1.56648
1.56941
1.57311
1.58205
1.58946
1.59012
1.58919
1.58715
1.58569
1.58726
1.59028
1.58813
1.58383
1.58017
1.57788
1.57826
1.58039
1.57929
1.57569
1.57246
1.57156
1.57223
1.57419
1.57349
1.57027
1.56621
1.56326
1.56197
1.56219
1.56016
1.55605
1.55194
1.54859
1.54652
1.54697
1.54712
1.54418
1.5404
1.53689
1.53406
1.53362
1.5345
1.53231
1.52741
1.52272
1.51842
1.51586
1.51622
1.51617
1.5115
1.50539
1.49988
1.49559
1.49387
1.49233
1.48791
1.48279
1.4786
1.476
1.47417
1.47076
1.46628
1.46182
1.45741
1.453
1.44846
1.44374
1.43884
1.43427
1.4302
1.42607
1.42072
1.41254
1.40452
1.40024
1.397
1.39346
1.38918
1.38377
1.37876
1.37479
1.37088
1.36693
1.36312
1.3591
1.35449
1.34964
1.34494
1.34097
1.3384
1.33584
1.33175
1.36587
1.35127
1.34785
1.34281
1.34103
1.34157
1.34414
1.3429
1.33782
1.3335
1.33269
1.33504
1.33564
1.33438
1.33013
1.32842
1.32848
1.33314
1.33574
1.33712
1.33787
1.34013
1.34951
1.37098
1.3965
1.41762
1.43391
1.44481
1.45441
1.46654
1.48144
1.49381
1.50309
1.51079
1.51967
1.52823
1.53788
1.54223
1.54328
1.54292
1.54363
1.54682
1.55176
1.55531
1.55587
1.55486
1.55333
1.55414
1.55673
1.56087
1.56222
1.56193
1.55962
1.55829
1.55768
1.55866
1.55914
1.55827
1.55681
1.55544
1.55439
1.55453
1.55538
1.55436
1.55205
1.54975
1.54771
1.5465
1.54673
1.54635
1.54325
1.53938
1.53567
1.53244
1.5308
1.53
1.52766
1.52352
1.5192
1.51561
1.51323
1.51068
1.50698
1.50316
1.49993
1.4969
1.49356
1.49037
1.48763
1.4845
1.48063
1.47657
1.4725
1.46844
1.46463
1.46101
1.45746
1.45383
1.44991
1.44499
1.43847
1.4323
1.42814
1.42464
1.42079
1.41594
1.40948
1.40333
1.399
1.39484
1.39035
1.38566
1.38087
1.37607
1.37131
1.36665
1.3623
1.35845
1.35497
1.28526
1.28311
1.28142
1.27958
1.27807
1.27685
1.27578
1.27417
1.27214
1.27069
1.27034
1.27045
1.26913
1.26631
1.26452
1.26427
1.26505
1.26525
1.2648
1.26313
1.26275
1.26321
1.26404
1.26454
1.26762
1.27229
1.27754
1.28416
1.29304
1.30404
1.31658
1.3294
1.34332
1.35992
1.37902
1.39756
1.41597
1.43006
1.44091
1.4512
1.46366
1.47644
1.48954
1.49955
1.50529
1.50869
1.51279
1.51902
1.52681
1.53449
1.54052
1.54427
1.54536
1.54745
1.55052
1.55462
1.55896
1.56191
1.56373
1.5639
1.56512
1.56683
1.56885
1.57
1.56985
1.56906
1.56716
1.56588
1.56482
1.56468
1.56509
1.56398
1.56149
1.55885
1.55704
1.5555
1.55445
1.55455
1.55439
1.55181
1.54817
1.54488
1.54203
1.54014
1.5395
1.53745
1.53351
1.52995
1.52708
1.52488
1.52204
1.51858
1.51522
1.51214
1.50921
1.5063
1.50334
1.50029
1.49711
1.49349
1.48913
1.4843
1.4805
1.47752
1.47432
1.47083
1.46614
1.45964
1.45342
1.44885
1.44451
1.43988
1.43518
1.43037
1.42569
1.42115
1.41667
1.4123
1.4082
1.21276
1.21158
1.21035
1.20913
1.20799
1.20686
1.20583
1.20501
1.20442
1.20395
1.20349
1.20293
1.2021
1.20127
1.20093
1.20096
1.20117
1.2011
1.20103
1.20129
1.20245
1.2031
1.20321
1.20291
1.2028
1.20324
1.2047
1.20729
1.21117
1.21611
1.2222
1.22907
1.237
1.24641
1.25715
1.26948
1.28339
1.29639
1.30955
1.3239
1.33892
1.3553
1.37063
1.38354
1.39382
1.40383
1.41593
1.42928
1.44331
1.45495
1.46497
1.47276
1.48106
1.4912
1.50228
1.5149
1.52426
1.53056
1.53479
1.53794
1.54364
1.54916
1.55549
1.55921
1.55996
1.56056
1.55951
1.55873
1.5586
1.55943
1.5621
1.56263
1.56197
1.56089
1.55987
1.56016
1.56097
1.56283
1.56372
1.56309
1.56099
1.55793
1.55609
1.55519
1.55523
1.5556
1.55395
1.55095
1.54789
1.54516
1.5425
1.53993
1.53739
1.53499
1.53279
1.53028
1.52738
1.52434
1.52081
1.51696
1.51384
1.51094
1.50829
1.5058
1.50291
1.49982
1.49645
1.4913
1.48513
1.48152
1.47886
1.47606
1.47316
1.46907
1.46283
1.45794
1.45539
1.45281
1.44992
1.16644
1.1655
1.16466
1.16382
1.16301
1.16216
1.1613
1.16046
1.15967
1.15891
1.15815
1.15741
1.15669
1.15605
1.15551
1.15504
1.15466
1.15446
1.15441
1.15451
1.15494
1.15545
1.15598
1.15687
1.15779
1.15853
1.15952
1.16065
1.16234
1.16479
1.16765
1.17105
1.1749
1.17893
1.18315
1.18847
1.19493
1.20236
1.21077
1.21968
1.22954
1.24096
1.25242
1.26338
1.27512
1.28879
1.30277
1.31736
1.33105
1.34322
1.3544
1.36552
1.37829
1.39258
1.40905
1.42592
1.43965
1.44881
1.45563
1.46338
1.47352
1.4844
1.49517
1.50243
1.50701
1.51025
1.51306
1.51631
1.51912
1.52276
1.52718
1.52826
1.52885
1.52947
1.53025
1.53162
1.53409
1.537
1.53734
1.53624
1.5343
1.53284
1.53208
1.53212
1.53357
1.53511
1.53474
1.53319
1.53107
1.52884
1.52647
1.52423
1.52264
1.52153
1.52085
1.5196
1.51717
1.51437
1.51106
1.5079
1.50565
1.50384
1.50257
1.5012
1.4989
1.49636
1.49311
1.48847
1.48509
1.48365
1.48264
1.48157
1.48015
1.47723
1.47076
1.46481
1.46305
1.4619
1.46028
1.45769
1.13625
1.1357
1.13529
1.13484
1.13439
1.13391
1.13338
1.13279
1.13217
1.13153
1.13089
1.13027
1.12966
1.129
1.12827
1.1275
1.12668
1.12584
1.12518
1.12484
1.12473
1.12481
1.12524
1.12614
1.12716
1.12821
1.12932
1.13062
1.13217
1.1339
1.13588
1.13835
1.14129
1.14392
1.14664
1.14966
1.1529
1.15655
1.16031
1.16432
1.16902
1.17434
1.18024
1.18725
1.19542
1.20445
1.2134
1.22233
1.23144
1.23994
1.24852
1.26054
1.27399
1.28718
1.3002
1.31256
1.32374
1.33594
1.34721
1.35726
1.36784
1.37854
1.38792
1.39644
1.40451
1.41145
1.41801
1.42426
1.43006
1.43481
1.43896
1.44305
1.44757
1.45258
1.45678
1.4599
1.4621
1.46329
1.46386
1.46398
1.46323
1.46294
1.46328
1.46354
1.4645
1.46655
1.46825
1.46727
1.46509
1.46233
1.46062
1.45996
1.45992
1.46081
1.46169
1.46121
1.45977
1.45813
1.45643
1.45556
1.45521
1.45534
1.45516
1.45441
1.45347
1.45187
1.44967
1.44901
1.44903
1.44981
1.44995
1.4498
1.4488
1.44541
1.43887
1.43534
1.43453
1.434
1.43331
1.43245
1.11765
1.11726
1.11693
1.11654
1.11618
1.11586
1.11553
1.11516
1.11479
1.11443
1.11404
1.11365
1.11326
1.1128
1.11218
1.11139
1.11048
1.10948
1.10849
1.10779
1.10741
1.10735
1.1075
1.10801
1.10882
1.10972
1.11075
1.11193
1.11311
1.11439
1.11596
1.1184
1.1216
1.12388
1.12622
1.12866
1.13095
1.13335
1.1355
1.1374
1.13945
1.14198
1.14541
1.14953
1.15387
1.15824
1.16273
1.16701
1.17104
1.17544
1.18142
1.18887
1.197
1.20471
1.2115
1.21746
1.22372
1.23177
1.23957
1.24687
1.25462
1.26186
1.26816
1.27497
1.28195
1.28857
1.29541
1.30228
1.30858
1.31412
1.31977
1.32587
1.33244
1.33904
1.34466
1.34888
1.35237
1.35543
1.35882
1.36377
1.36702
1.36858
1.37015
1.37186
1.37367
1.37637
1.3782
1.37643
1.37313
1.36993
1.36915
1.36909
1.3706
1.37181
1.37126
1.36983
1.36816
1.367
1.36637
1.36614
1.36613
1.36621
1.36624
1.36559
1.36475
1.36482
1.36536
1.36617
1.3669
1.36729
1.36721
1.36472
1.35949
1.35782
1.35779
1.35799
1.35831
1.35928
1.36085
1.36252
1.10721
1.10693
1.10663
1.10631
1.10598
1.10569
1.10543
1.10519
1.10495
1.10476
1.10456
1.10432
1.10409
1.1038
1.10337
1.10279
1.1021
1.10133
1.10052
1.09982
1.09937
1.09923
1.09925
1.09945
1.09991
1.10053
1.10133
1.10225
1.10293
1.10367
1.10489
1.10751
1.10999
1.11163
1.11334
1.11495
1.11645
1.11798
1.11935
1.12053
1.12191
1.12384
1.12614
1.1285
1.1309
1.13311
1.13492
1.13634
1.13767
1.1401
1.14326
1.14662
1.15018
1.15339
1.15511
1.15631
1.15837
1.16032
1.16221
1.1648
1.16784
1.17044
1.17248
1.17477
1.17737
1.18004
1.18306
1.18678
1.19076
1.19459
1.19915
1.20411
1.20894
1.21408
1.21912
1.22352
1.22817
1.23317
1.23842
1.24413
1.24956
1.25379
1.25721
1.26046
1.26419
1.26942
1.27229
1.27258
1.27332
1.27547
1.27885
1.28196
1.28337
1.28285
1.2814
1.27904
1.27671
1.27493
1.27342
1.27222
1.27134
1.27067
1.26998
1.26915
1.26826
1.26741
1.26665
1.26597
1.26486
1.26157
1.25809
1.2578
1.25891
1.26071
1.26258
1.26442
1.26652
1.26899
1.27167
1.2743
1.10213
1.10182
1.10154
1.10127
1.10098
1.10078
1.10059
1.10047
1.10035
1.10031
1.10031
1.10028
1.1002
1.1001
1.0999
1.09959
1.09921
1.09873
1.09819
1.09766
1.09727
1.09711
1.09709
1.09718
1.09746
1.09795
1.09853
1.09903
1.09945
1.1
1.10129
1.1039
1.1045
1.10507
1.10576
1.10634
1.10689
1.10757
1.10827
1.10893
1.10968
1.11044
1.11121
1.11219
1.11334
1.11439
1.11533
1.11621
1.11684
1.11746
1.11847
1.11994
1.12117
1.12152
1.12098
1.11998
1.11939
1.11879
1.11834
1.1179
1.1175
1.11706
1.11643
1.11568
1.11494
1.11427
1.11367
1.11387
1.11426
1.11455
1.11517
1.11615
1.1171
1.11836
1.12001
1.12173
1.12384
1.12669
1.13007
1.13321
1.13686
1.14064
1.14383
1.14731
1.15147
1.157
1.1633
1.16867
1.17399
1.17999
1.18627
1.19215
1.19684
1.19813
1.19748
1.19757
1.19868
1.19996
1.20019
1.19977
1.19952
1.19911
1.19805
1.19538
1.19167
1.18909
1.18734
1.18495
1.18275
1.18263
1.18397
1.1861
1.18817
1.19005
1.19216
1.19482
1.19768
1.20038
1.20326
1.20602
1.10054
1.1003
1.10006
1.09978
1.09953
1.09939
1.09927
1.09919
1.0992
1.09925
1.09939
1.09959
1.09962
1.09961
1.09959
1.09956
1.09944
1.09923
1.09896
1.09873
1.09855
1.09848
1.09849
1.09864
1.09903
1.09949
1.09982
1.10004
1.1004
1.10221
1.10384
1.10354
1.10348
1.10342
1.1031
1.10279
1.10262
1.10254
1.10253
1.10255
1.10248
1.10196
1.10121
1.101
1.1011
1.10146
1.10182
1.10193
1.10174
1.10114
1.10094
1.10095
1.10089
1.1005
1.0994
1.09825
1.09706
1.09594
1.09485
1.09356
1.09221
1.09089
1.08974
1.08862
1.08692
1.08516
1.08337
1.08146
1.07967
1.07798
1.07632
1.07464
1.07309
1.07154
1.07017
1.06903
1.06822
1.06786
1.068
1.06776
1.06733
1.06764
1.06817
1.06903
1.07073
1.07302
1.07604
1.07989
1.08466
1.09058
1.09732
1.10528
1.11448
1.12101
1.12582
1.13131
1.13628
1.14071
1.14471
1.14626
1.14597
1.14521
1.14381
1.14063
1.13606
1.13394
1.13392
1.1347
1.13579
1.1374
1.13954
1.14195
1.14433
1.14687
1.15
1.15351
1.15661
1.15911
1.16242
1.16683
1.1017
1.1016
1.10141
1.10117
1.10092
1.10079
1.10076
1.10076
1.10083
1.101
1.10127
1.10158
1.10184
1.102
1.10213
1.10227
1.10235
1.10236
1.10234
1.10233
1.10234
1.10237
1.10247
1.1028
1.10334
1.10366
1.10378
1.10397
1.10528
1.10729
1.10701
1.10595
1.10479
1.1041
1.10355
1.10283
1.10219
1.10164
1.10115
1.10063
1.09985
1.09839
1.09671
1.09592
1.09549
1.09511
1.09468
1.09406
1.09303
1.09182
1.09092
1.09017
1.08932
1.08832
1.08723
1.08606
1.08487
1.08374
1.08263
1.08138
1.08006
1.07874
1.07755
1.07684
1.07596
1.07438
1.07257
1.07059
1.0687
1.06689
1.06475
1.06243
1.0602
1.05788
1.05538
1.05285
1.05067
1.0485
1.04613
1.04406
1.04232
1.04089
1.03969
1.03874
1.03785
1.03676
1.03494
1.03412
1.0345
1.03563
1.03792
1.04194
1.04747
1.0541
1.06134
1.06892
1.07808
1.08689
1.0932
1.09864
1.1014
1.1009
1.09777
1.09499
1.09523
1.09764
1.10078
1.10327
1.10544
1.10789
1.11053
1.11331
1.11636
1.12029
1.12503
1.12917
1.13224
1.13542
1.14047
1.14613
1.1053
1.10527
1.10516
1.10501
1.10486
1.10482
1.10484
1.10494
1.10514
1.10544
1.10582
1.10622
1.10655
1.10686
1.10716
1.10741
1.1076
1.10774
1.10786
1.108
1.10813
1.10828
1.10851
1.10892
1.10937
1.10966
1.10984
1.1104
1.11142
1.11145
1.11054
1.10927
1.10779
1.10685
1.1059
1.10487
1.10389
1.10295
1.10204
1.10105
1.09973
1.09784
1.09615
1.09519
1.09441
1.09362
1.09271
1.09152
1.09004
1.08887
1.08778
1.0866
1.08538
1.08416
1.08293
1.08168
1.08045
1.0793
1.07822
1.07709
1.07586
1.07461
1.07355
1.0731
1.07259
1.0712
1.06958
1.06789
1.06618
1.0645
1.06265
1.06066
1.05859
1.05658
1.05456
1.05232
1.04992
1.04741
1.04464
1.04167
1.03933
1.03718
1.03485
1.03257
1.03031
1.02806
1.02557
1.0227
1.0213
1.02086
1.02114
1.02194
1.02262
1.02349
1.02529
1.02566
1.02615
1.03282
1.04007
1.04667
1.05188
1.05562
1.05955
1.06294
1.06678
1.07196
1.07627
1.08
1.08273
1.08519
1.08823
1.09124
1.09452
1.09921
1.10495
1.10996
1.11474
1.11972
1.12521
1.13118
1.11092
1.11093
1.1109
1.1109
1.11094
1.11103
1.11122
1.1115
1.11187
1.1123
1.11274
1.11317
1.11358
1.11395
1.11427
1.11454
1.11476
1.11494
1.11513
1.11538
1.11558
1.11573
1.11592
1.11621
1.11653
1.11675
1.1168
1.11663
1.1161
1.11518
1.11405
1.11277
1.11173
1.11069
1.10951
1.10832
1.10713
1.10594
1.10465
1.10311
1.10123
1.09951
1.09832
1.09731
1.0963
1.09518
1.09382
1.09234
1.09111
1.08989
1.08858
1.08726
1.08594
1.08462
1.08331
1.08205
1.08086
1.07977
1.07871
1.07757
1.07637
1.07523
1.07445
1.07424
1.07359
1.07224
1.07073
1.06919
1.06764
1.06598
1.06426
1.06252
1.06083
1.05919
1.0575
1.05573
1.05389
1.05188
1.04936
1.04689
1.04489
1.04286
1.04087
1.03907
1.0373
1.03539
1.03323
1.03017
1.02602
1.02295
1.02094
1.01979
1.01885
1.01739
1.01489
1.00951
1.00554
1.0062
1.00885
1.01157
1.01613
1.02179
1.02719
1.03277
1.03962
1.04624
1.05153
1.05633
1.06064
1.06441
1.06834
1.07204
1.07586
1.08116
1.08698
1.0925
1.09869
1.10504
1.11119
1.11679
1.11825
1.11827
1.11829
1.11837
1.11853
1.11881
1.1192
1.11968
1.12018
1.12067
1.12116
1.12164
1.12208
1.12247
1.12279
1.12304
1.12329
1.12351
1.12367
1.12383
1.12401
1.12412
1.12405
1.12384
1.12362
1.12315
1.12235
1.12145
1.12046
1.11938
1.11828
1.11718
1.11598
1.11479
1.11361
1.11241
1.11116
1.10976
1.10793
1.10578
1.10434
1.10329
1.10226
1.10119
1.10003
1.09869
1.09737
1.09615
1.09489
1.09355
1.0922
1.09089
1.08961
1.08835
1.08714
1.08598
1.0849
1.08387
1.08281
1.08173
1.08069
1.07987
1.07953
1.07889
1.07765
1.07636
1.07507
1.07368
1.07222
1.0707
1.06913
1.06759
1.06612
1.06472
1.0634
1.06215
1.06096
1.0597
1.05835
1.0569
1.05513
1.05254
1.05031
1.04877
1.04719
1.04534
1.04315
1.04012
1.03382
1.02437
1.02069
1.01893
1.01697
1.01452
1.01025
1.00251
0.998805
0.999111
0.999965
1.00202
1.00569
1.00949
1.01311
1.01713
1.02112
1.02516
1.02933
1.03349
1.03788
1.04251
1.04696
1.05132
1.05607
1.06121
1.06717
1.07319
1.07956
1.08676
1.09416
1.10032
1.12728
1.12732
1.12737
1.12753
1.12788
1.12838
1.12887
1.12937
1.1299
1.13041
1.13084
1.13118
1.13148
1.13175
1.13197
1.1321
1.13224
1.13236
1.13216
1.1318
1.13148
1.13117
1.13071
1.13002
1.12919
1.1283
1.12735
1.12637
1.1254
1.1244
1.12328
1.12208
1.12085
1.11963
1.11844
1.11718
1.11564
1.11345
1.11148
1.11035
1.10936
1.10836
1.10729
1.10615
1.10499
1.10384
1.10266
1.10147
1.10024
1.09899
1.09778
1.09661
1.0955
1.09444
1.09344
1.09247
1.09146
1.09041
1.08938
1.08857
1.08825
1.08769
1.08659
1.08537
1.08407
1.08274
1.08146
1.08023
1.07908
1.07805
1.07716
1.07611
1.07496
1.07377
1.07242
1.07069
1.06926
1.06819
1.0671
1.06575
1.06422
1.06229
1.05877
1.05192
1.04675
1.04452
1.04258
1.03958
1.03309
1.02584
1.02254
1.02036
1.01802
1.0146
1.00861
1.00399
1.00352
1.00344
1.00375
1.00433
1.00551
1.00714
1.00912
1.01132
1.01323
)
;

boundaryField
{
    inlet
    {
        type            fixedValue;
        value           nonuniform 0();
    }
    outlet
    {
        type            inletOutlet;
        inletValue      nonuniform 0();
        value           nonuniform 0();
    }
    bottom
    {
        type            symmetryPlane;
    }
    top
    {
        type            symmetryPlane;
    }
    obstacle
    {
        type            zeroGradient;
    }
    front
    {
        type            empty;
    }
    back
    {
        type            empty;
    }
    procBoundary5to4
    {
        type            processor;
        value           nonuniform List<scalar> 
27
(
1.28146
1.28535
1.28893
1.29163
1.29445
1.29895
1.30514
1.31025
1.31319
1.31328
1.31115
1.30681
1.30205
1.29757
1.29329
1.29032
1.2878
1.2857
1.28384
1.28269
1.28259
1.2836
1.28544
1.28779
1.29039
1.29319
1.2959
)
;
    }
    procBoundary5to6
    {
        type            processor;
        value           nonuniform List<scalar> 
15
(
1.32737
1.35118
1.40456
1.44639
1.44639
1.45448
1.43188
1.3639
1.27652
1.20864
1.17156
1.15212
1.13796
1.12355
1.1062
)
;
    }
    procBoundary5to12
    {
        type            processor;
        value           nonuniform List<scalar> 
27
(
1.29799
1.29852
1.29548
1.28828
1.27776
1.2685
1.26287
1.25972
1.2588
1.25891
1.25898
1.25755
1.25205
1.24385
1.23185
1.22374
1.24519
1.28272
1.31291
1.32264
1.32101
1.30995
1.29409
1.2788
1.27139
1.27263
1.297
)
;
    }
    procBoundary5to13
    {
        type            processor;
        value           nonuniform List<scalar> 
129
(
1.47756
1.38066
1.29047
1.21735
1.16857
1.14437
1.1379
1.13767
1.01488
1.01743
1.02065
1.02377
1.02715
1.03086
1.03455
1.03832
1.04241
1.0469
1.05257
1.0591
1.06531
1.07205
1.07835
1.13779
1.13792
1.13818
1.13854
1.13893
1.13935
1.13978
1.14016
1.14048
1.14073
1.1409
1.14095
1.14091
1.14081
1.14062
1.1403
1.13984
1.13937
1.13894
1.13837
1.13767
1.13691
1.13612
1.1353
1.13442
1.13347
1.13247
1.13147
1.13044
1.12934
1.12816
1.12691
1.12568
1.1245
1.12325
1.12156
1.11931
1.11784
1.11693
1.11604
1.11515
1.11421
1.11326
1.11226
1.11121
1.11016
1.10909
1.10799
1.10688
1.10575
1.10469
1.10371
1.10286
1.10224
1.10155
1.10053
1.09943
1.09833
1.09728
1.09645
1.09606
1.09555
1.09465
1.09357
1.09242
1.09125
1.09009
1.08884
1.08741
1.08614
1.08504
1.08436
1.08364
1.08253
1.08115
1.0792
1.07511
1.0693
1.06712
1.0659
1.06436
1.062
1.05684
1.04829
1.04331
1.04148
1.03979
1.03735
1.03339
1.02864
1.02506
1.02239
1.01946
1.01596
1.01402
1.01345
1.01267
1.01161
1.01124
1.01096
1.01017
1.00976
1.01013
1.01064
1.01488
1.01079
)
;
    }
    procBoundary5to20
    {
        type            processor;
        value           nonuniform List<scalar> 
25
(
1.273
1.24923
1.25634
1.32604
1.43502
1.527
1.58958
1.63343
1.67047
1.69955
1.71584
1.72107
1.71578
1.69241
1.64385
1.36333
1.46766
1.57089
1.63435
1.65715
1.64841
1.58652
1.49117
1.39543
1.32145
)
;
    }
}


// ************************************************************************* //
