/*--------------------------------*- C++ -*----------------------------------*\
  =========                 |
  \\      /  F ield         | OpenFOAM: The Open Source CFD Toolbox
   \\    /   O peration     | Website:  https://openfoam.org
    \\  /    A nd           | Version:  7
     \\/     M anipulation  |
\*---------------------------------------------------------------------------*/
FoamFile
{
    version     2.0;
    format      ascii;
    class       surfaceScalarField;
    location    "0.411";
    object      phi;
}
// * * * * * * * * * * * * * * * * * * * * * * * * * * * * * * * * * * * * * //

dimensions      [0 3 -1 0 0 0 0];

internalField   nonuniform List<scalar> 
18389
(
-7.97679e-05
7.97679e-05
4.35297e-05
-4.35297e-05
-5.20446e-05
5.20446e-05
4.00446e-05
-4.00446e-05
-5.17944e-05
5.17944e-05
-3.98734e-05
3.98734e-05
-3.48305e-05
3.48305e-05
3.89276e-05
-3.89276e-05
-3.49183e-05
3.49183e-05
4.13459e-05
-4.13459e-05
4.44338e-05
-4.44338e-05
-3.44884e-05
3.44884e-05
-1.1118e-05
1.1118e-05
-4.27846e-05
4.27846e-05
4.34313e-05
-4.34313e-05
2.43063e-05
-2.43063e-05
1.86526e-05
-1.86526e-05
4.58848e-05
-4.58848e-05
4.59223e-05
-4.59223e-05
4.33444e-05
-4.33444e-05
-4.25826e-05
4.25826e-05
3.53112e-05
-3.53112e-05
4.29609e-05
-4.29609e-05
-5.85288e-05
5.85288e-05
-4.97324e-05
4.97324e-05
-4.17829e-05
4.17829e-05
-4.453e-05
4.453e-05
4.56124e-05
-4.56124e-05
4.58446e-05
-4.58446e-05
4.41276e-05
-4.41276e-05
-4.13287e-05
4.13287e-05
-6.30604e-05
6.30604e-05
4.31145e-05
-4.31145e-05
-4.47327e-05
4.47327e-05
4.086e-05
-4.086e-05
4.66863e-05
-4.66863e-05
-4.55467e-05
4.55467e-05
5.36125e-05
-5.36125e-05
-5.89419e-05
5.89419e-05
3.7874e-05
-3.78739e-05
4.4923e-05
-4.4923e-05
4.54087e-05
-4.54086e-05
-4.1014e-05
4.1014e-05
4.49081e-05
-4.49081e-05
4.58617e-05
-4.58617e-05
-4.58461e-05
4.58461e-05
-4.5839e-05
4.5839e-05
-4.06539e-05
4.06539e-05
-4.58806e-05
4.58806e-05
4.59268e-05
-4.59268e-05
4.59439e-05
-4.59439e-05
4.46068e-05
-4.46068e-05
3.77252e-05
-3.77252e-05
-4.57591e-05
4.57591e-05
-5.55317e-05
5.55317e-05
-4.38111e-05
4.38111e-05
4.57551e-05
-4.57551e-05
-4.59925e-05
4.59925e-05
4.32269e-05
-4.32269e-05
-5.93209e-05
5.93209e-05
-4.71395e-05
4.71395e-05
4.96063e-05
-4.96063e-05
4.57226e-05
-4.57226e-05
-8.42441e-06
8.42444e-06
4.5775e-05
-4.5775e-05
4.14596e-05
-4.14596e-05
5.12127e-05
-5.12127e-05
-4.58591e-05
4.58591e-05
4.23277e-05
-4.23277e-05
3.10604e-05
-3.10604e-05
4.02657e-07
-4.02657e-07
-4.40917e-05
4.40917e-05
3.28685e-05
-3.28685e-05
-3.65732e-05
3.65732e-05
3.97258e-05
-3.97258e-05
2.66255e-05
-2.66255e-05
2.61927e-05
-2.61927e-05
2.70487e-05
-2.70487e-05
2.43962e-05
-2.43962e-05
1.24194e-05
-1.24194e-05
0.00108068
-0.00088733
-0.000193346
0.00546493
-0.00207407
-0.00339085
-0.00594645
0.00594644
9.32324e-09
0.00335504
-0.00260068
-0.00075437
-0.00156513
0.00176995
-0.000204821
-0.0067546
0.00284188
0.00391273
0.00121363
0.0042513
0.00725549
-0.0058757
-0.00137979
0.00120387
-0.00190968
0.000705809
-0.000869637
-0.000695497
-0.00144208
-0.000314637
0.00175672
0.000142512
-3.6977e-07
-0.000142142
0.000778601
-0.00222069
-0.00360341
0.000122515
0.00348088
-0.0032024
0.00289451
0.0003079
-0.0057032
0.00723628
-0.00153308
-0.00370875
0.00289721
0.000811524
-0.000562939
-0.00304047
-0.00175272
0.0023914
-0.000638675
-0.000462437
0.00255861
-0.00209617
-0.00161116
0.001117
0.000494157
0.000583526
0.000581834
-0.00159766
-0.00515694
0.001319
-0.00180898
0.000489981
0.00577829
-0.00385883
-0.00191945
-0.000671163
0.00331111
-0.00263994
-0.00583496
0.00583526
0.000469661
0.00130029
-0.00633924
0.000966647
0.0053726
0.00231606
-0.00298723
-0.00378925
0.0031142
0.000675041
0.00214838
-0.00422244
0.00108902
-0.000201483
-0.000887534
0.00150984
-0.00129277
-0.000217069
-0.00280315
-0.000399254
0.00535014
-0.00535192
0.000376676
0.00113316
0.00522741
-0.00133649
-0.00389093
0.00197436
-0.00077049
0.00308569
0.00190868
-0.00499437
-0.000721054
-0.0030682
-8.82797e-05
-0.000156545
0.000244824
0.0039359
0.0033196
0.00115205
-0.00487256
0.00372051
0.00162542
0.00360199
-0.00498177
0.00632065
-0.00133888
-0.00114738
-0.000582337
0.00172972
0.00133622
0.00201882
0.00013529
0.000103627
-0.000238916
0.00502002
-0.0033946
0.0064589
-0.000840346
-0.00561855
0.00321677
-0.00266575
-0.000551019
0.00221589
0.000456947
-0.00267285
0.00295681
-0.00074091
0.00650401
-0.00539863
-0.00110537
0.000495413
-0.00385449
0.00335908
7.03124e-05
0.00638859
0.00479009
-0.00429467
-0.000535759
0.00105938
-0.000523623
-0.00176618
0.00061879
0.00191704
0.00224912
-0.00416615
0.000253634
-0.000333819
8.01846e-05
-0.00125557
-0.00284936
0.00410494
-2.63522e-05
0.00653037
-0.00281484
0.00230141
0.000513422
0.000389209
-1.24073e-05
-0.000376802
-0.00569234
-0.000254116
0.00188199
-0.00141232
0.000828482
0.00494981
0.000896799
0.00018388
0.00263116
-0.00642908
0.00379793
-0.0011202
0.000584441
0.00264254
-0.00389812
0.00619628
-0.00226037
0.00109211
0.00117727
-0.00078427
0.00104282
-0.000258548
-0.00111438
-0.00049678
0.00188256
0.00133421
-0.000594535
0.00142951
-0.00123737
-0.000192136
-0.00265343
0.00199096
0.000662469
0.00116675
0.00026276
0.00112271
-0.00495636
0.00383364
-0.00474759
0.00140828
0.0033393
-0.00455442
0.00611814
-0.00156373
-0.00506221
8.0442e-05
-0.0020193
-0.000634123
-0.000215402
0.000127122
-0.00121515
0.0046384
-0.00342326
-0.00119335
-0.000716327
0.000103301
-0.000192023
8.87213e-05
0.000126282
-2.29807e-05
-0.00125105
0.0046306
-0.00337954
-0.000156227
2.45067e-05
0.000131721
-0.00556626
0.00170744
-0.00119889
-0.000567285
-0.000449393
-1.89162e-05
0.000468308
-0.000543193
9.37991e-05
0.00101214
7.68718e-05
-0.00181272
0.000613831
-0.000150495
1.7027e-05
0.000133468
0.00136803
-0.00234445
0.000976419
0.0002711
-0.00013581
-0.00392542
0.00513906
-0.0024577
0.000704992
-9.58699e-05
-0.000416994
0.000512864
0.00568527
-0.002168
-0.00351728
7.97884e-05
0.00250581
-0.0025856
0.00444616
-0.00559479
0.00114864
0.00263456
0.00305072
0.0029148
-0.00283501
-0.00613546
0.000432257
-0.00644949
0.00361992
0.00282958
0.00229273
0.00390355
-0.00438675
0.00137083
0.00301592
0.00151345
-0.00019445
-0.00102159
0.00401706
-0.00299546
0.00463903
-0.00162602
-0.00301302
-0.00459576
0.00374594
0.000849827
0.00369274
-0.00502924
5.92394e-05
0.00032997
-0.00137646
0.00582264
-8.98626e-05
0.00214788
-0.00205801
-0.00207069
0.00261341
0.000164141
-0.00277755
-0.0012774
0.00264542
-0.000639889
0.0032533
0.0016423
-0.00173216
0.000887786
0.00396938
-0.00485717
-0.00504173
0.00384156
0.00120017
0.0025519
-0.00359413
0.00104224
-0.00330996
0.00411643
-0.000806469
0.000355859
-0.00366582
-0.000910274
0.000910274
-0.000454234
0.000358364
-0.000126944
-0.000973487
0.00110043
0.00506905
-0.001842
-0.00322705
-0.00243314
-0.000370016
0.00290105
0.000157896
1.6453e-05
-0.000174349
-0.0014742
0.00112811
0.000346088
-0.000141469
-0.00490026
0.00503829
-0.00388624
0.000227737
-8.5225e-05
0.00444217
0.000577842
0.0040676
-0.0015157
0.000165043
-7.14752e-06
-0.00633245
-0.000996112
-0.000816609
0.00430071
-0.00190372
-0.00239699
0.00275667
0.00154404
0.00107757
-0.00563198
-0.00226591
-0.00054892
-0.00112393
-0.000955949
0.00207988
4.2532e-05
-0.00272429
0.00268175
-0.00235836
0.00123443
-0.0022181
0.00530379
-0.00461052
0.00159173
0.00301879
0.00254834
0.000679353
-0.000338818
-0.000340535
-0.00601572
0.000582919
0.0054328
-0.00417895
0.00581533
-0.00163638
0.00182424
0.00163147
-0.00345571
-0.00168366
0.000899224
0.000784431
-0.00271448
0.00208056
0.000633923
0.00112645
0.000755532
0.000247188
-0.00032894
8.17537e-05
0.00487768
-0.0039899
-0.00638791
0.00557639
0.000811528
-0.00478579
-0.0016637
0.00334865
0.000626231
-0.00397488
0.000154004
-0.000162208
8.20399e-06
0.000590448
-0.000125263
-0.000465186
-0.00451835
0.00261463
0.000374852
-0.000590961
0.000216109
2.80715e-05
-0.000938348
-0.00257571
0.0044844
-0.00530368
-0.000322716
0.0056264
0.000202241
0.000205884
-0.000408125
0.00121517
-0.00121517
0.00168544
-0.00072352
-0.00211337
0.00181505
0.000298313
0.00439598
-0.00302516
-0.00016243
6.20248e-06
-0.00124167
0.00126974
0.000673627
0.00130074
0.0023442
-0.000263636
-0.00401715
-0.00128652
0.00111901
-0.00497351
0.00321234
-0.00446339
0.000833379
-0.00213724
0.00130386
0.00335948
-0.00457463
-0.00271032
-0.00180803
-0.00483551
0.00469404
-0.000676834
-0.00533888
-0.00515822
0.00148362
-0.00148706
3.44053e-06
0.00223875
0.00010545
-0.00601453
0.00204871
0.00396582
-0.00121933
0.000526013
0.000693315
0.00144429
0.00295169
-0.00462535
-0.00101584
0.0056412
-0.000212884
0.000138566
7.43172e-05
-0.00550678
0.00132782
0.00375312
-0.00493693
0.00118382
-0.00150177
-0.000611597
-0.000536676
-0.000637496
0.000138327
-0.000203784
6.54562e-05
0.00497742
-0.00385471
-0.00130052
0.00512487
-0.00382435
-0.000426017
-0.000815651
-0.0058613
0.000439644
0.00539561
-0.00616087
0.0045632
-0.00092517
-0.00546275
-0.00109926
-0.000374941
-0.00181863
0.00285863
-0.00104
-0.000419075
0.000321986
9.70902e-05
-0.00173207
0.00141744
0.00162294
-0.00013932
0.00081894
-3.67438e-05
-0.00169533
0.00279703
0.00121706
-0.00303568
0.00605396
-0.000477577
0.00527911
7.1023e-05
-0.0052816
0.00438975
0.00114439
-0.00553414
0.000556537
-0.000768838
0.000212301
-4.05445e-05
-0.000413689
-1.17578e-05
0.00606572
-0.000162173
0.000156816
5.35744e-06
0.000133409
2.0594e-05
0.00254206
-0.00335511
0.000813052
-0.00190026
0.000699518
0.00120074
0.00791779
-0.00345282
-0.00446496
0.00116919
0.00126731
-0.00243651
0.000104933
-0.000171666
6.67329e-05
-0.000805875
0.00133188
0.00115542
0.0031824
-0.00433782
-0.00561472
0.000165752
0.00544896
-0.00401692
0.00299533
0.00173483
0.00479554
0.0045831
0.00333467
-2.27003e-05
0.000192015
-0.000169315
-0.00130019
0.00439036
-0.00309017
0.000302242
-0.000342786
-0.000131409
-8.1475e-05
0.00410088
-0.00227666
0.00476142
-0.00500658
0.00024516
-0.00322649
0.00605295
-0.00282646
0.00252787
0.00157301
0.00574491
-0.000983488
-0.00138665
-0.00562127
0.00137255
0.00424873
0.000654664
0.000520479
-0.00117514
0.00126935
-0.000614683
0.000585372
-0.00111006
0.000524687
0.00110585
0.00027998
0.000399374
-0.000678234
0.00443135
0.0015208
-0.000392686
0.0035184
-0.00610561
0.00258721
0.00153503
-0.00258542
0.00105038
-0.00431459
0.00115698
0.00315761
0.00291671
-0.00421689
-0.00490789
-0.00125298
-0.00409571
0.00126335
0.00283236
0.00124141
0.00314895
-0.00326389
-0.000831831
0.00222658
-0.00105739
-0.000673786
-0.00253582
0.0032096
0.00241131
0.000611048
-0.00302236
-0.00159191
0.00120392
0.000387992
0.000270087
0.00149845
-0.00196743
0.000468981
-0.000110966
-0.000222853
-0.00026449
0.000153523
-0.00434912
-0.000246636
-0.00029208
0.00117468
-0.000882605
0.00435119
-0.00464439
0.000293199
-8.84004e-05
0.00011774
-2.93392e-05
0.000969985
0.0033822
-0.00435218
-0.000156977
6.85765e-05
-0.00475138
0.000709918
0.00404147
-0.000795494
0.000100388
0.000695104
8.09442e-05
-8.13139e-05
-0.000400181
0.00086467
-0.000347469
-0.000517201
-0.00603613
0.000637497
-0.00254967
-0.000128209
0.00267787
-0.00317152
0.00441292
0.00218085
-0.00108873
-0.00116718
-0.00118441
-8.9367e-06
-0.00351767
-0.00122991
0.00152349
-0.000421507
-0.00110198
0.00191962
0.00183837
-0.00375798
0.00503855
-0.00160595
-0.0034326
0.000790706
-0.00541605
-0.00137169
0.00300316
0.0019521
0.000788393
-0.00274049
-0.00349914
0.00446913
-0.000153235
2.73989e-06
0.00093256
-0.0044317
-0.00449685
-0.000147551
-0.000998192
-0.00461653
0.00462062
0.00147955
0.00355899
0.00415851
0.00114133
-0.00529984
3.59101e-05
5.96973e-05
-9.56075e-05
-0.00141054
0.00336264
0.0036993
0.00353698
-0.00140304
0.0023718
-0.000968751
-0.00247993
0.000460633
-0.00087839
0.000751445
-0.000205511
0.000407753
-0.000204173
0.00170263
0.0037635
-0.00184388
-0.00107972
-0.000603944
-0.000107254
-0.000157235
0.00355042
-0.00163337
-0.00240371
0.00465284
0.000674555
-0.00309589
0.00242133
0.000653849
0.000767173
-0.00105925
0.00210069
-0.0013072
-0.00327432
0.00458152
-0.00214595
0.00477711
-0.000551919
0.00344642
0.000238262
-0.000221235
-0.00236326
0.000960222
0.00230673
-0.00386925
0.00156254
-0.00122663
5.7979e-05
-2.2069e-05
0.00215201
-0.00279919
0.000647187
-0.00117128
-0.00042063
-0.0035325
0.00449915
0.00118263
0.0016873
-0.00286993
-0.00169298
0.00366418
-0.0019712
0.00423811
-0.000855915
0.000234313
1.41179e-05
-0.000248431
-0.0037218
0.00202881
-0.00142001
0.00471064
-0.00329064
0.00087795
0.0013029
0.000195028
0.00102014
0.000253061
-0.000300749
4.76871e-05
0.00169782
0.000218398
-0.00191621
0.00301963
-0.00458335
0.00156373
-5.2888e-05
0.000374358
-0.00032147
0.00156517
-0.000361259
0.00140945
-0.000584252
-0.000825203
0.0028275
-0.00392233
0.00109482
0.00268167
-0.00374204
0.00106037
-0.00515106
0.00192458
0.00389483
-0.000875198
-0.000627981
-0.00238025
0.00300823
0.00140665
-0.00511715
0.0037105
0.00336051
-0.00145893
-0.00190158
-0.000689118
0.00172931
-0.00104019
0.00477165
-0.00303683
-0.000705355
-0.00196039
-0.0059815
0.00514116
3.92635e-06
0.000121801
-0.000125727
-0.00158058
0.00120457
0.000376014
-0.00490486
0.00630437
-0.00139952
-0.00188659
0.000705824
0.00118077
0.000406424
0.00268715
-0.00208911
-0.00059804
0.00343458
0.000489965
-0.00392456
0.000123722
-1.87883e-05
0.00517236
0.000336907
-0.00550927
-0.00194105
0.00379763
-0.00185658
0.00276569
-0.00062946
-0.00213624
0.00046254
0.00040213
-0.000437876
0.00387246
0.00202565
-0.0039667
0.000709196
-0.000268265
-0.00044093
-0.000648518
2.3097e-07
0.000648289
-0.0031526
-0.00576641
0.0057659
-0.000275559
0.000953869
-0.000678311
-0.00229137
-0.000188573
-0.00454758
0.00324036
-0.000864588
0.00112073
0.00360795
-0.00501998
0.00141204
0.000410679
-0.00296034
0.00233503
-0.00243993
0.000104889
-0.00157144
0.00148228
8.91571e-05
-0.00121324
-0.000367348
-0.00339215
0.00342346
-0.00224083
0.000457299
0.000133149
-0.00174059
0.00105147
-0.00279149
0.000734835
0.00205665
0.000242336
-8.02287e-06
-0.003477
0.0010219
0.00245511
-0.00144406
0.00560256
0.000337936
-0.000957772
0.000619837
0.00212547
0.000640218
-0.00127776
0.000304272
0.00111937
0.00121567
-0.00142003
0.00494566
-0.00352563
-0.00485593
0.00577237
-0.000916441
-0.00117199
0.00228505
0.00410354
0.00107634
4.06588e-05
0.00585933
-0.00551748
-0.00034185
0.00354136
-0.00465247
0.00111112
0.00308907
-0.000677758
0.00542663
-0.00181868
-0.00250505
-0.000971954
-0.00218332
-0.000307755
0.00249108
0.00242068
-0.00196374
-0.00160818
-0.00423996
0.0027489
0.00149106
-0.000332161
0.00123138
0.00120605
0.00364984
-0.00485589
-0.00032149
0.000696341
0.00305959
-0.00238504
-0.00472397
-0.00125754
0.00647071
-0.00129835
0.00423427
0.00206406
0.000494555
0.00285552
-0.00212691
-0.000728608
0.00473712
-0.00245207
-6.81354e-05
-0.00332788
-0.000863612
0.0041915
0.00038867
-8.66852e-05
-0.000301985
-0.00514129
0.00610452
-0.000963228
-0.000718612
0.00190375
-0.00118514
-0.000697027
0.00525269
-0.00455567
0.00119413
-0.00191274
-0.000113301
-0.0057624
-0.00078427
0.0020316
0.00382773
-0.000257372
-0.00192595
0.000251395
-4.20739e-06
0.000362546
-0.000487808
0.00335893
-0.000816873
-0.00522594
-0.000271556
-0.00014752
0.000150219
-0.000133601
-1.66181e-05
-0.00248424
0.000125874
-0.000420178
0.00159537
-0.00102169
-0.00057368
0.00246064
0.000604444
-0.00306509
-0.000721368
0.003182
-0.00520293
-0.000271529
0.00547446
0.00375106
0.00137381
0.00440398
-0.00122158
-0.000127748
0.00254843
0.00540384
-0.00020664
-0.00519721
-0.00608767
0.00425302
0.00183465
0.00321057
-0.00126809
-0.00435318
0.000203071
-0.000225771
0.000577844
0.000831608
0.00115572
0.00019967
-0.00135539
0.0042123
0.00119154
-0.000961781
0.00317138
-0.00220961
0.00471905
-0.0013704
-0.0021812
0.00279374
-0.000612533
-0.00117651
-0.000100191
0.000287117
-0.000186925
0.0034467
-0.00414373
0.0013462
-0.000989652
-0.00035655
0.00160029
-0.000395724
-0.00324973
0.00228795
0.0054864
-0.00434201
-3.06205e-05
0.000352607
-0.00535328
0.000448415
0.00542471
-0.00190631
-0.000997756
-0.00361515
0.00461291
-0.000645199
0.00288293
-0.00223773
0.00549725
-0.00286244
-0.00263482
-8.8396e-05
0.00059098
-0.000677122
0.000660567
1.65552e-05
-0.000697433
0.00173481
-0.00103738
-0.00315038
-0.00116421
0.000155529
-1.72016e-05
-0.00122479
-0.00478974
-0.00307382
0.00240003
-0.000924415
-0.000290751
-7.26239e-05
-8.95493e-05
-0.00122568
-0.000805909
-0.00523023
-0.00283902
0.00219383
-0.000813053
0.00118973
0.00111841
0.00436534
-0.00548374
0.00337894
-0.00275271
0.000465913
0.000769829
-0.00288336
0.00211354
0.00497734
-0.00491778
-5.95594e-05
-0.00320953
0.0036156
-0.000406072
0.000207789
-9.56031e-05
-0.000112187
-0.00494978
-0.00147931
-0.00176097
0.00368981
-0.00192883
0.00298044
-0.00221061
-0.00378366
0.00202269
0.00139505
-0.00258174
0.00118668
-0.00363302
0.00568173
0.00649932
-0.0021959
-0.00430342
-0.00239896
0.00237626
2.27027e-05
0.00559407
-0.0016247
0.00118481
-0.000924771
-0.000260039
-9.0867e-06
0.000262148
0.000250421
-0.000774304
0.000523883
-0.00304829
0.00364984
-0.000968172
0.00084988
-0.00105136
0.00236389
-0.000632493
-0.0017314
0.00221255
-0.000514734
0.00451646
0.000631036
0.00173286
-0.00175901
0.00106158
0.0004086
-0.000464697
5.60976e-05
0.00221883
-0.00174769
-0.000471142
0.000823119
-0.0051478
-0.000544533
0.000369493
-0.000588349
0.000218856
-0.00410152
0.00547407
0.000941925
-0.00111658
0.000174657
-0.0015353
0.00216383
-0.000628527
-0.00148705
-0.00275291
-0.00537291
-0.000167108
0.00554002
0.000297277
0.000108291
4.19285e-05
0.000127745
-0.000128137
3.92713e-07
0.00410028
-0.00289423
-0.00379507
-0.00231053
0.00346591
0.00303341
-0.00259
0.000718003
0.00187199
-0.000844657
0.0022397
-0.00229849
-0.000100468
0.00272983
-0.00377736
0.00104753
0.00130786
-0.000133172
0.000459937
0.000552207
-0.0032778
0.000962388
0.00231541
0.000910224
-0.000623147
-2.53721e-05
-0.00426937
0.00171585
0.000112318
-0.00182816
-0.00396293
0.00146161
0.00250132
0.000515656
0.00148515
-0.000907311
-0.000245821
-0.00466046
0.00490629
0.000784092
-0.00247672
0.00169263
0.0012022
0.00131232
-0.000458173
-0.00172639
0.00218457
0.00258
-0.00179591
0.00446665
-0.00353409
-0.000760137
-0.00264098
-0.000227238
0.000251744
-0.000708836
0.00176682
-0.00105799
0.00266192
-0.00366636
0.00100444
0.000136426
2.03901e-05
-0.00236562
-0.000912185
0.00142117
-0.00163614
0.000214972
-0.00277469
0.000685587
0.00127616
-0.00141851
0.000142352
0.00161851
-0.00180761
0.000189094
0.000674322
-0.00372101
-0.00115155
0.00133769
-0.00488615
0.00354846
-0.000911064
0.00357297
0.000118395
-7.90564e-05
-3.93381e-05
0.00473441
-0.00361599
-0.000305703
-0.00152163
-0.00401243
-0.00149434
0.00209382
0.000699907
-0.00100562
-0.000922669
-0.00451316
-0.0016223
-0.000385076
0.00124442
-0.000933541
-0.000310879
-0.00149627
-0.00108916
0.000653948
0.0022605
-0.00291444
-0.000114274
0.00067081
-0.000715949
3.88272e-05
-0.00246277
0.00196647
0.00139404
-0.0006867
0.00163382
-0.000947122
-8.68526e-05
-0.000116931
0.00031965
-0.00194759
0.000445825
0.00161683
-0.00230787
0.000691035
-0.00333768
0.00258598
0.00075168
0.00120452
0.00240803
-0.00361255
-0.00175549
0.00104665
-0.00294154
-0.00102139
-0.000781517
-0.00255616
-0.00167824
0.00125491
0.000423333
0.00176635
-5.04928e-05
-0.000759373
-0.0024364
0.00319577
-0.000666008
0.00291327
-0.00225932
-0.000858559
-0.00394761
0.00480618
-0.00234274
0.00234261
1.34304e-07
-0.000795494
-0.00156722
0.000545532
-0.00240637
0.00381872
-0.00141235
0.00323302
0.00288513
0.000194334
3.6214e-05
-0.000230549
0.00234054
-0.000602237
-0.0017383
0.000188126
-0.0001842
-0.00358943
0.00492712
-0.00329189
0.00523632
-0.00194443
-0.00351025
-0.00150973
-0.00091608
0.00323179
-0.00231571
0.00285701
0.0017727
-0.00417908
-0.00499408
-0.000147203
-0.000780077
0.00284272
-0.00206264
-0.000431699
0.000378811
-0.000531519
0.00167598
-0.00114446
-0.00402442
0.00334328
0.00068114
-0.00326891
0.00235283
-0.00386643
0.000673466
0.00319295
0.00141066
-0.0010152
-0.000395463
-0.00589955
0.000696617
0.00184697
-0.00141141
-0.000435563
0.00145647
-0.000448936
-0.00100753
7.8375e-05
0.000129415
0.00292846
-0.000627041
-0.000218286
-0.00348703
-0.000379392
0.000429018
-0.00305648
-0.000967943
-0.00233678
-5.96025e-06
-0.00292499
0.00229701
0.000720221
0.00260215
-0.00332238
0.000585494
-0.000861054
0.00140907
-0.00671626
0.0053072
-0.00577586
0.000990063
-0.00233368
0.0035382
0.00069503
0.00025884
-0.00273324
0.00345346
-8.56431e-05
0.00506298
0.000607142
0.00171111
-0.00231826
-0.00177838
0.00124687
0.00274905
-0.00369522
0.000946168
0.00509939
0.000673531
0.00154529
0.000323102
0.000386093
-0.000363987
-0.00040485
0.000180996
-0.00174881
0.00176684
-0.000888893
0.000873501
0.000611649
-0.000581485
0.00300997
-0.00242848
-0.00150925
0.0018428
-0.000333548
-0.00489187
0.00380323
0.00108864
-0.00479573
0.00150384
-4.12182e-05
3.74788e-05
3.73947e-06
-0.0028125
-0.000853861
0.00110132
-0.00129739
0.000196074
0.001348
-0.00493744
0.00116458
-8.86116e-06
0.00123245
0.000693315
0.00218961
-0.00366665
0.000854163
0.000181437
-0.00503737
0.00189995
0.00123076
0.000672988
-0.00527391
-0.000492502
0.0056526
0.00118782
0.00710726
-0.00218398
-0.00492328
0.000795792
-0.000381847
-0.000413946
0.000708817
-0.0013863
0.000782354
-0.00386088
-0.00125628
0.000287116
-0.000961047
-0.000394571
0.00135562
0.00233179
0.00400853
-0.00486708
0.00270304
0.000834106
-0.00353715
0.0012507
-0.000965257
-0.000285438
0.000744695
0.00159584
-0.000135146
0.000138364
-3.21879e-06
-0.000709083
0.00288362
-0.00217454
0.00362007
0.00109058
-0.00126544
-0.000412804
0.00141665
-0.00151327
9.66238e-05
4.64161e-05
7.19785e-05
-0.00447769
0.000967445
-0.00165658
0.000443343
-0.00364868
0.00292731
-0.000950201
6.28704e-05
0.000933049
0.00268156
-0.00361461
0.000849425
-0.00127057
0.00418305
-0.00291248
0.000317152
0.000279889
4.6549e-05
-0.000326438
7.83941e-05
-0.00539167
0.00531328
-0.00263927
-0.000768749
0.00340802
-0.00348496
0.00261044
0.000874527
-0.00276413
-0.000262742
-0.00171342
-0.0049021
0.000889659
-0.00145708
-0.000879705
-0.00106268
0.00379251
0.00171047
-0.0037243
0.00201384
0.000105688
2.2057e-05
0.00372505
-0.00201458
0.00286753
0.000949227
-0.00381675
-0.00130376
0.00174175
-0.000437991
0.00357429
0.00109483
-0.00466912
0.00717616
-0.00197069
-0.00520546
-0.00212847
-0.000710548
-0.00173788
0.00234502
0.00377308
-0.00492491
0.00115182
-0.00280326
0.00373631
0.00116469
-5.56611e-05
-0.00110903
0.00148002
0.000911366
-0.00550494
0.00059705
0.000432887
0.000362905
0.00292155
-0.00111879
-0.00251935
0.00248063
3.87203e-05
0.000504487
-0.00184085
0.00133636
-0.0038703
-0.00119191
0.00108822
-0.0025453
-0.00529911
0.000151309
-0.00126163
-0.000517089
0.00177872
0.00563308
-0.00449175
0.000104501
0.00028417
-0.00302016
0.0031843
0.00144153
-0.00107542
-0.000366116
0.0034689
0.00475582
-0.000952594
0.000634298
-0.00327356
0.00113725
-0.00103687
-5.28853e-05
0.000461484
0.000394098
-1.97402e-05
-0.00206021
-0.00044158
0.0015429
-0.000898979
-0.00349738
0.000764153
-2.81506e-05
-1.30677e-05
0.00599844
-0.00492085
0.00522215
-0.00439367
-3.42491e-05
-0.000695103
0.000729352
0.00194904
-0.000458084
-0.00149095
0.00335866
-0.00075651
-0.00256847
0.00336105
-0.000792584
-0.0018334
0.000529641
0.00127932
-0.00095286
-0.000326461
-0.000118773
-0.000210168
0.00205941
-0.000547946
-0.00151147
-0.00138234
-0.00239371
-0.00012563
0.00209316
-0.00274642
0.000653267
0.00280683
-0.000749621
-0.00205721
0.0041035
-0.00434932
0.000314065
0.00223666
-0.000619828
-0.000680878
0.000835915
-0.00367469
0.00502268
0.00123174
0.000458381
-0.00172001
-0.00286029
0.00209774
0.00363318
0.00158897
-0.00115721
-0.0038255
-0.00113087
0.00130543
-0.00171798
0.00041255
0.00367578
-0.00318582
-0.000193975
0.0011359
-3.84417e-05
-0.000271705
0.000310147
-0.000684654
-0.00190535
0.00377236
-0.00490628
0.00113392
-0.00186776
0.00234914
-0.000481376
-0.00115255
0.00213324
0.000750375
-0.002264
0.00375478
-0.00149078
0.00150776
-0.00114415
-0.000363605
-0.00110222
0.000306724
0.000213342
-0.000454525
0.000241183
-0.000426136
-0.00123045
-0.00247938
0.00250628
-2.69008e-05
0.00144634
-0.00371035
0.00162637
-0.000371458
0.000370418
-0.000405391
3.49732e-05
-0.000827768
0.000594479
0.000233289
-0.000794345
-0.0028444
0.000818926
0.00202548
-0.00199347
-0.000865497
-0.000750824
0.00161632
-0.00523982
0.00389464
0.00134517
-0.00134641
0.00131216
-0.000576315
-0.000115984
0.000692299
0.00286838
-0.000735146
-0.000770184
-0.000160302
0.000930487
0.00183869
-0.00138031
0.00169924
-0.000393801
-0.000209155
-0.000636514
-0.00420347
0.00483999
-0.00140263
0.00283074
0.00427651
-0.00239879
-8.05849e-05
0.00312403
-0.00472998
0.000732674
0.00158231
-0.00231499
0.00201611
-0.00279618
0.00198068
-0.000707702
-0.00127298
-0.00179622
0.00045561
0.00134061
0.00431464
0.00286152
-0.00551518
0.0013349
0.00418028
-0.00125004
-0.00398977
-0.000459906
-0.00133632
-0.00100792
-0.000559299
-0.00129294
-0.000425048
0.00114068
-0.00053125
0.00151281
-0.000981564
-0.00175735
0.00129745
-0.000944226
-0.000207315
0.00115154
0.002173
-0.00286699
0.000694003
-1.17677e-05
0.000206102
0.00103572
0.00606144
-0.0014091
-0.00465234
-0.00203414
-0.00187334
0.00134655
0.00052679
0.00127155
-0.000979663
-0.000291885
-0.00229829
-0.00102004
0.00331834
-0.00267541
0.00358094
-0.000905534
-0.000917611
0.00112358
1.51501e-05
-0.00113873
0.00376112
-0.00493436
0.00117323
0.00174774
-0.00135581
-0.000391925
0.00242707
-0.00122487
0.00273411
-0.000635987
-0.000191782
-0.00408933
0.0022996
-0.00180344
-0.000496158
0.000560216
-0.00200939
0.00144917
-0.00251727
-0.000837841
0.000860449
-0.000659197
-0.000201252
-0.000179824
-0.00364041
0.000965007
0.000669796
-0.000456453
0.00259333
0.000987612
0.000318689
0.00130913
0.000671555
-0.00160402
0.00233669
-0.00150851
0.0010004
0.000508108
0.00354269
-0.00067515
-0.00380995
0.00610269
-0.00114515
-0.00248683
0.00682972
-0.00434289
-0.000886323
0.00356789
-0.00414182
0.000932301
-0.00210101
0.00424939
-0.000680308
-0.00162756
-0.00244886
0.00171785
0.000731018
-0.00127818
0.000655366
-0.000634235
-2.11292e-05
-0.00137646
-0.000776618
-0.00015353
0.000930148
-0.00156885
0.00136775
0.00020111
0.00204205
0.000800667
6.25259e-05
-0.0012999
-0.000548126
-0.000838172
-0.00241572
-0.000474448
-0.00139889
-0.00017112
0.00159229
-0.000180647
0.00341032
-0.000513106
0.00133868
0.000199821
-0.000771439
-0.00103754
-0.00193028
0.00247681
-0.000546533
-0.0010532
-0.00572891
0.00351082
0.00149965
-0.00062615
0.00288885
-0.00120155
0.000954555
-0.00135919
-0.00453063
0.00588982
0.000619989
-0.00255027
0.00073991
-0.00368542
0.00269987
0.000985544
0.000895245
-0.0014265
0.00223006
-0.00311747
0.000887404
0.0011945
-0.00342922
0.00223472
0.000860193
0.00168862
-0.00254881
-0.0001744
0.00179291
0.00274569
0.00108162
0.00361769
-0.000413525
0.000783016
0.00315906
-0.00402267
0.000976129
-0.00327442
0.000433799
0.00412474
0.00148352
-1.02278e-05
-0.000276603
0.000286831
-0.00619232
0.00385681
0.00233551
-0.000824755
-0.00261733
0.00344209
0.00263995
-0.00177975
-0.003696
0.000892737
-0.0013218
-0.000435558
-0.000152719
0.00131948
0.00372262
0.00122303
0.000224462
0.00130979
-0.000993857
-0.000315931
0.000941195
0.000558458
-0.000313923
0.00376856
-0.00493227
0.00116371
0.00307702
-0.000846975
-0.00139914
0.00190362
0.00125953
-0.00355345
0.00229392
-0.0011658
0.00145669
0.000678128
-0.00213481
0.000192962
-0.000203191
0.00219882
-0.000862601
-0.00129152
0.000330125
0.000926385
-0.000355084
-0.000571301
0.00353156
-0.00227203
-0.000504504
0.00229298
-0.00178848
0.00102091
-0.00296513
0.00209142
0.000873713
0.000106511
-8.22756e-07
0.00466036
0.00054211
-0.00569906
-0.00519282
0.00392666
0.00126616
-0.00107531
-0.00269558
0.00377089
0.00222132
0.00372512
0.00282829
-0.00375291
0.000924625
-0.00147084
0.00110349
-0.000942887
0.00337021
-0.00242733
0.00149744
0.000561968
-0.00378502
-0.0024073
0.00106908
-0.00230493
0.00321164
-0.000906714
0.00342693
-0.000816492
0.000395921
-0.000802363
0.00254613
0.000880795
-0.000634872
0.00431065
-0.00131006
0.00171658
-0.000406516
0.00198224
-0.00128272
-0.000389217
0.00607683
-0.00491329
-0.000459613
0.000858182
-0.00246221
-0.00539145
-0.00172321
0.000413143
-0.000678156
0.000101841
-0.000867708
0.000214073
-0.00147115
0.000657191
0.00157946
-0.000905396
0.000135212
0.00080473
0.0025163
-0.00332104
-0.00109509
0.00187369
-0.00194708
-0.000474092
0.00196124
-0.00148715
-0.000873461
-0.00209166
-0.0019518
0.0014777
-0.00265781
0.00346254
-0.00164336
0.000576791
0.00106657
-0.000973602
0.00356692
0.00599475
-0.00229545
-0.00130409
-0.000419116
-0.00174316
0.00110821
0.000634948
0.000902986
-0.00451793
0.00361494
-0.00131879
0.000546743
0.000772042
-0.00403451
-0.00115831
0.00019187
-0.00113609
0.00193531
-0.00070455
-0.00133977
-0.0038012
0.00514097
0.00100378
7.25533e-05
0.00329697
-0.00252836
-0.000768601
0.000183978
0.00127248
0.000877307
-0.0006706
-0.000206708
-0.00134938
-0.00101388
-0.00106994
0.00509854
-0.00402859
0.000630562
-0.00249833
0.000171944
0.0012447
0.0037726
-0.00495966
0.00118706
0.00287535
-0.00205643
0.000102005
-0.000168423
6.64185e-05
0.00102689
0.00013807
0.000104266
0.00235919
0.00370225
-0.000586466
-0.000810189
0.00139666
0.000652324
0.00177216
-0.00242449
0.00239814
-0.00171156
-0.000686577
0.000475383
0.00147365
0.00042594
-0.000512881
-0.000805904
0.00060035
-0.00532432
0.000690334
-2.97674e-05
-0.00115966
-0.00130761
-0.00378926
0.00509687
0.00103558
0.0014375
-0.00189559
0.0025468
-0.000395077
-0.00490896
0.00530404
0.000120808
-1.88028e-05
0.00064432
0.00129099
0.00273047
0.000940539
-0.003671
0.00137563
0.00047135
0.00258772
-0.00364133
0.00454432
0.00277429
0.000843188
-0.00361747
0.00162709
-0.000867263
-0.000759822
0.00132931
-0.00101988
-0.000309434
0.000423642
0.00105839
-0.00469972
0.00021811
-6.76684e-06
0.000199729
0.00602637
-0.00129197
0.00152665
-0.00212888
0.00252208
-0.00182762
-0.000694467
0.000854646
-0.00254592
0.00169128
0.00523518
-0.00281786
-0.00092417
-0.00159422
0.00500882
0.00148596
-0.00178136
0.000295404
0.000499898
-0.00010374
-0.000396157
-0.000991707
-0.00314097
0.00413268
0.000742258
0.00181998
-0.00256224
0.00176747
-0.000281506
0.00225059
0.00141185
-0.000865108
-0.000937201
0.000160582