/*--------------------------------*- C++ -*----------------------------------*\
  =========                 |
  \\      /  F ield         | OpenFOAM: The Open Source CFD Toolbox
   \\    /   O peration     | Website:  https://openfoam.org
    \\  /    A nd           | Version:  7
     \\/     M anipulation  |
\*---------------------------------------------------------------------------*/
FoamFile
{
    version     2.0;
    format      ascii;
    class       surfaceScalarField;
    location    "0.319";
    object      phi;
}
// * * * * * * * * * * * * * * * * * * * * * * * * * * * * * * * * * * * * * //

dimensions      [0 3 -1 0 0 0 0];

internalField   nonuniform List<scalar> 
79600
(
1.14635e-12
-1.07211e-12
1.28695e-11
-1.1723e-11
3.28489e-11
-1.99795e-11
5.72265e-11
-2.43757e-11
8.29247e-11
-2.56971e-11
1.07624e-10
-2.47013e-11
1.29606e-10
-2.19854e-11
1.47616e-10
-1.80116e-11
1.60741e-10
-1.31248e-11
1.68321e-10
-7.57944e-12
1.69885e-10
-1.56463e-12
1.65107e-10
4.77626e-12
1.53774e-10
1.1332e-11
1.35758e-10
1.80154e-11
1.11001e-10
2.47575e-11
7.94971e-11
3.15035e-11
4.12875e-11
3.82094e-11
-3.55241e-12
4.48397e-11
-5.49179e-11
5.13653e-11
-1.12681e-10
5.77628e-11
-1.76694e-10
6.40127e-11
-2.46793e-10
7.00992e-11
-3.22802e-10
7.60094e-11
-4.04535e-10
8.17326e-11
-4.91796e-10
8.72604e-11
-5.84381e-10
9.25857e-11
-6.82085e-10
9.77031e-11
-7.84694e-10
1.02608e-10
-8.91992e-10
1.07298e-10
-1.00376e-09
1.1177e-10
-1.11978e-09
1.16022e-10
-1.23984e-09
1.20053e-10
-1.3637e-09
1.23863e-10
-1.49115e-09
1.27452e-10
-1.62197e-09
1.3082e-10
-1.75594e-09
1.33968e-10
-1.89284e-09
1.36896e-10
-2.03244e-09
1.39607e-10
-2.17454e-09
1.42102e-10
-2.31893e-09
1.44382e-10
-2.46538e-09
1.4645e-10
-2.61368e-09
1.48308e-10
-2.76364e-09
1.49958e-10
-2.91505e-09
1.51403e-10
-3.06769e-09
1.52645e-10
-3.22138e-09
1.53688e-10
-3.37591e-09
1.54533e-10
-3.5311e-09
1.55184e-10
-3.68674e-09
1.55643e-10
-3.84265e-09
1.55914e-10
-3.99865e-09
1.56e-10
-4.15456e-09
1.55903e-10
-4.31018e-09
1.55628e-10
-4.46536e-09
1.55177e-10
-4.61991e-09
1.54553e-10
-4.77367e-09
1.5376e-10
-4.92648e-09
1.52801e-10
-5.07815e-09
1.51679e-10
-5.22855e-09
1.50398e-10
-5.37751e-09
1.4896e-10
-5.52488e-09
1.4737e-10
-5.67051e-09
1.45631e-10
-5.81426e-09
1.43746e-10
-5.95598e-09
1.41719e-10
-6.09553e-09
1.39552e-10
-6.23278e-09
1.3725e-10
-6.3676e-09
1.34816e-10
-6.49985e-09
1.32252e-10
-6.62941e-09
1.29564e-10
-6.75617e-09
1.26753e-10
-6.87999e-09
1.23824e-10
-7.00077e-09
1.2078e-10
-7.1184e-09
1.17625e-10
-7.23276e-09
1.14361e-10
-7.34375e-09
1.10993e-10
-7.45128e-09
1.07524e-10
-7.55523e-09
1.03957e-10
-7.65553e-09
1.00297e-10
-7.75207e-09
9.65452e-11
-7.84478e-09
9.27069e-11
-7.93357e-09
8.87851e-11
-8.01835e-09
8.47834e-11
-8.09906e-09
8.07053e-11
-8.17561e-09
7.65545e-11
-8.24795e-09
7.23346e-11
-8.31599e-09
6.80491e-11
-8.3797e-09
6.37018e-11
-8.43899e-09
5.92963e-11
-8.49383e-09
5.48363e-11
-8.54416e-09
5.03255e-11
-8.58993e-09
4.57676e-11
-8.63109e-09
4.11665e-11
-8.66762e-09
3.65258e-11
-8.69947e-09
3.18494e-11
-8.72661e-09
2.71411e-11
-8.74901e-09
2.24047e-11
-8.76666e-09
1.76442e-11
-8.77952e-09
1.28634e-11
-8.78759e-09
8.06632e-12
-8.79085e-09
3.25687e-12
-8.78929e-09
-1.56093e-12
-8.7829e-09
-6.38304e-12
-8.7717e-09
-1.12054e-11
-8.75568e-09
-1.60239e-11
-8.73484e-09
-2.08345e-11
-8.70921e-09
-2.56329e-11
-8.67879e-09
-3.0415e-11
-8.64362e-09
-3.51767e-11
-8.6037e-09
-3.99136e-11
-8.55908e-09
-4.46215e-11
-8.50979e-09
-4.92961e-11
-8.45585e-09
-5.39332e-11
-8.39733e-09
-5.85284e-11
-8.33425e-09
-6.30772e-11
-8.26667e-09
-6.75755e-11
-8.19466e-09
-7.20186e-11
-8.11825e-09
-7.64023e-11
-8.03753e-09
-8.0722e-11
-7.95256e-09
-8.49734e-11
-7.86341e-09
-8.91519e-11
-7.77016e-09
-9.32532e-11
-7.67288e-09
-9.72727e-11
-7.57168e-09
-1.01206e-10
-7.46663e-09
-1.05048e-10
-7.35783e-09
-1.08796e-10
-7.24539e-09
-1.12444e-10
-7.1294e-09
-1.15987e-10
-7.00998e-09
-1.19422e-10
-6.88724e-09
-1.22744e-10
-6.76129e-09
-1.25948e-10
-6.63226e-09
-1.29031e-10
-6.50027e-09
-1.31987e-10
-6.36546e-09
-1.34813e-10
-6.22796e-09
-1.37504e-10
-6.0879e-09
-1.40056e-10
-5.94544e-09
-1.42464e-10
-5.80071e-09
-1.44725e-10
-5.65388e-09
-1.46834e-10
-5.50509e-09
-1.48788e-10
-5.35451e-09
-1.50582e-10
-5.2023e-09
-1.52212e-10
-5.04862e-09
-1.53674e-10
-4.89366e-09
-1.54965e-10
-4.73758e-09
-1.56081e-10
-4.58056e-09
-1.57019e-10
-4.42278e-09
-1.57774e-10
-4.26444e-09
-1.58344e-10
-4.10572e-09
-1.58724e-10
-3.9468e-09
-1.58913e-10
-3.7879e-09
-1.58906e-10
-3.6292e-09
-1.58701e-10
-3.4709e-09
-1.58296e-10
-3.31321e-09
-1.57686e-10
-3.15634e-09
-1.5687e-10
-3.0005e-09
-1.55846e-10
-2.84589e-09
-1.5461e-10
-2.69273e-09
-1.53162e-10
-2.54123e-09
-1.51499e-10
-2.39161e-09
-1.49619e-10
-2.24409e-09
-1.47522e-10
-2.09888e-09
-1.45205e-10
-1.95622e-09
-1.42668e-10
-1.8163e-09
-1.39911e-10
-1.67937e-09
-1.36932e-10
-1.54564e-09
-1.33732e-10
-1.41533e-09
-1.3031e-10
-1.28866e-09
-1.26668e-10
-1.16586e-09
-1.22805e-10
-1.04713e-09
-1.18725e-10
-9.32706e-10
-1.14428e-10
-8.22789e-10
-1.09916e-10
-7.17595e-10
-1.05194e-10
-6.17332e-10
-1.00264e-10
-5.22201e-10
-9.51305e-11
-4.32402e-10
-8.97996e-11
-3.48124e-10
-8.42773e-11
-2.69552e-10
-7.85714e-11
-1.96861e-10
-7.26909e-11
-1.30214e-10
-6.66465e-11
-6.97628e-11
-6.04509e-11
-1.56432e-11
-5.41192e-11
3.20265e-11
-4.76693e-11
7.31494e-11
-4.11227e-11
1.07654e-10
-3.45047e-11
1.35501e-10
-2.78465e-11
1.56688e-10
-2.11856e-11
1.71256e-10
-1.4568e-11
1.79306e-10
-8.0497e-12
1.81008e-10
-1.70093e-12
1.76619e-10
4.39033e-12
1.66507e-10
1.0112e-11
1.51187e-10
1.53205e-11
1.31357e-10
1.98286e-11
1.07969e-10
2.33878e-11
8.23086e-11
2.56627e-11
5.61102e-11
2.62043e-11
3.16768e-11
2.44386e-11
1.20087e-11
1.96629e-11
7.7504e-13
1.12122e-11
7.52029e-13
1.17565e-11
-1.28295e-11
4.34953e-11
-4.34617e-11
8.96018e-11
-6.60908e-11
1.43627e-10
-7.84042e-11
1.99568e-10
-8.16375e-11
2.52356e-10
-7.74871e-11
2.97902e-10
-6.75309e-11
3.32993e-10
-5.3106e-11
3.55156e-10
-3.52898e-11
3.62507e-10
-1.49323e-11
3.53644e-10
7.29844e-12
3.27543e-10
3.08759e-11
2.83492e-10
5.5382e-11
2.21024e-10
8.04823e-11
1.39873e-10
1.05908e-10
3.99371e-11
1.31439e-10
-7.87533e-11
1.569e-10
-2.16057e-10
1.82143e-10
-3.71741e-10
2.0705e-10
-5.455e-10
2.31522e-10
-7.36964e-10
2.55476e-10
-9.45712e-10
2.78847e-10
-1.17128e-09
3.01578e-10
-1.41317e-09
3.23622e-10
-1.67085e-09
3.44943e-10
-1.94378e-09
3.65509e-10
-2.23137e-09
3.85294e-10
-2.53304e-09
4.0428e-10
-2.84819e-09
4.22449e-10
-3.17621e-09
4.3979e-10
-3.51648e-09
4.56292e-10
-3.86838e-09
4.71951e-10
-4.23128e-09
4.86761e-10
-4.60455e-09
5.00722e-10
-4.98756e-09
5.13831e-10
-5.37969e-09
5.26091e-10
-5.7803e-09
5.37505e-10
-6.18877e-09
5.48077e-10
-6.60447e-09
5.57811e-10
-7.02681e-09
5.66714e-10
-7.45515e-09
5.74792e-10
-7.88889e-09
5.82053e-10
-8.32744e-09
5.88506e-10
-8.7702e-09
5.9416e-10
-9.21658e-09
5.99023e-10
-9.666e-09
6.03106e-10
-1.01179e-08
6.0642e-10
-1.05717e-08
6.08974e-10
-1.10268e-08
6.1078e-10
-1.14827e-08
6.1185e-10
-1.19389e-08
6.12194e-10
-1.23949e-08
6.11825e-10
-1.285e-08
6.10755e-10
-1.33038e-08
6.08995e-10
-1.37558e-08
6.06559e-10
-1.42055e-08
6.03459e-10
-1.46524e-08
5.99708e-10
-1.50961e-08
5.95318e-10
-1.5536e-08
5.90302e-10
-1.59717e-08
5.84673e-10
-1.64028e-08
5.78445e-10
-1.68288e-08
5.7163e-10
-1.72492e-08
5.64242e-10
-1.76638e-08
5.56294e-10
-1.80721e-08
5.47798e-10
-1.84736e-08
5.3877e-10
-1.8868e-08
5.29221e-10
-1.92549e-08
5.19165e-10
-1.9634e-08
5.08617e-10
-2.00048e-08
4.97588e-10
-2.03671e-08
4.86094e-10
-2.07204e-08
4.74147e-10
-2.10646e-08
4.61761e-10
-2.13992e-08
4.4895e-10
-2.17239e-08
4.35727e-10
-2.20385e-08
4.22107e-10
-2.23426e-08
4.08102e-10
-2.2636e-08
3.93727e-10
-2.29185e-08
3.78996e-10
-2.31897e-08
3.63923e-10
-2.34495e-08
3.48521e-10
-2.36975e-08
3.32805e-10
-2.39336e-08
3.16788e-10
-2.41575e-08
3.00486e-10
-2.43691e-08
2.83911e-10
-2.45681e-08
2.67079e-10
-2.47544e-08
2.50003e-10
-2.49278e-08
2.32699e-10
-2.50882e-08
2.15181e-10
-2.52353e-08
1.97464e-10
-2.53691e-08
1.79561e-10
-2.54894e-08
1.61489e-10
-2.55961e-08
1.43261e-10
-2.56892e-08
1.24894e-10
-2.57685e-08
1.06402e-10
-2.58338e-08
8.77994e-11
-2.58853e-08
6.91029e-11
-2.59228e-08
5.03275e-11
-2.59462e-08
3.14886e-11
-2.59555e-08
1.2602e-11
-2.59508e-08
-6.31661e-12
-2.59319e-08
-2.52513e-11
-2.58989e-08
-4.41861e-11
-2.58519e-08
-6.31048e-11
-2.57907e-08
-8.19913e-11
-2.57155e-08
-1.00829e-10
-2.56263e-08
-1.19602e-10
-2.55232e-08
-1.38293e-10
-2.54062e-08
-1.56886e-10
-2.52755e-08
-1.75364e-10
-2.51311e-08
-1.9371e-10
-2.49731e-08
-2.11908e-10
-2.48017e-08
-2.29939e-10
-2.4617e-08
-2.47787e-10
-2.44191e-08
-2.65436e-10
-2.42083e-08
-2.82866e-10
-2.39846e-08
-3.00062e-10
-2.37483e-08
-3.17006e-10
-2.34996e-08
-3.3368e-10
-2.32387e-08
-3.50067e-10
-2.29658e-08
-3.6615e-10
-2.26812e-08
-3.8191e-10
-2.23851e-08
-3.9733e-10
-2.20777e-08
-4.12393e-10
-2.17594e-08
-4.27082e-10
-2.14305e-08
-4.41378e-10
-2.10912e-08
-4.55265e-10
-2.07419e-08
-4.68724e-10
-2.03829e-08
-4.81739e-10
-2.00146e-08
-4.94292e-10
-1.96372e-08
-5.06366e-10
-1.92513e-08
-5.17944e-10
-1.88571e-08
-5.2901e-10
-1.8455e-08
-5.39545e-10
-1.80456e-08
-5.49535e-10
-1.76291e-08
-5.58962e-10
-1.7206e-08
-5.6781e-10
-1.67768e-08
-5.76063e-10
-1.63418e-08
-5.83705e-10
-1.59017e-08
-5.90721e-10
-1.54568e-08
-5.97095e-10
-1.50077e-08
-6.02813e-10
-1.45548e-08
-6.0786e-10
-1.40986e-08
-6.12221e-10
-1.36398e-08
-6.15883e-10
-1.31787e-08
-6.18832e-10
-1.2716e-08
-6.21055e-10
-1.22522e-08
-6.22539e-10
-1.17878e-08
-6.23272e-10
-1.13235e-08
-6.23242e-10
-1.08598e-08
-6.22438e-10
-1.03972e-08
-6.20849e-10
-9.93644e-09
-6.18465e-10
-9.47803e-09
-6.15277e-10
-9.0226e-09
-6.11275e-10
-8.57076e-09
-6.06452e-10
-8.12312e-09
-6.008e-10
-7.68031e-09
-5.94312e-10
-7.24294e-09
-5.86983e-10
-6.81166e-09
-5.78808e-10
-6.38708e-09
-5.69781e-10
-5.96985e-09
-5.59902e-10
-5.56059e-09
-5.49166e-10
-5.15995e-09
-5.37575e-10
-4.76856e-09
-5.25127e-10
-4.38704e-09
-5.11826e-10
-4.01603e-09
-4.97674e-10
-3.65616e-09
-4.82677e-10
-3.30805e-09
-4.66841e-10
-2.9723e-09
-4.50175e-10
-2.64952e-09
-4.32691e-10
-2.34032e-09
-4.14402e-10
-2.04525e-09
-3.95325e-10
-1.76491e-09
-3.75479e-10
-1.49981e-09
-3.5489e-10
-1.25051e-09
-3.33584e-10
-1.01748e-09
-3.11594e-10
-8.01214e-10
-2.88961e-10
-6.02131e-10
-2.65729e-10
-4.2063e-10
-2.41952e-10
-2.57054e-10
-2.17694e-10
-1.11693e-10
-1.9303e-10
1.52351e-11
-1.68049e-10
1.23589e-10
-1.42858e-10
2.13324e-10
-1.17581e-10
2.84511e-10
-9.23718e-11
3.37357e-10
-6.7413e-11
3.72236e-10
-4.29276e-11
3.89724e-10
-1.91881e-11
3.90646e-10
3.46941e-12
3.76132e-10
2.46276e-11
3.4769e-10
4.37642e-11
3.07298e-10
6.02226e-11
2.57509e-10
7.31749e-11
2.01584e-10
8.15815e-11
1.4362e-10
8.41646e-11
8.863e-11
7.94407e-11
4.24603e-11
6.58676e-11
1.12472e-11
4.24674e-11
1.1984e-11
1.99917e-11
-3.28227e-11
6.61237e-11
-8.95904e-11
1.28838e-10
-1.28806e-10
1.9968e-10
-1.4925e-10
2.70969e-10
-1.52929e-10
3.3603e-10
-1.42549e-10
3.89268e-10
-1.20768e-10
4.2611e-10
-8.9948e-11
4.42897e-10
-5.2079e-11
4.36758e-10
-8.79582e-12
4.05485e-10
3.8571e-11
3.47417e-10
8.8943e-11
2.61354e-10
1.41444e-10
1.46474e-10
1.95362e-10
2.26822e-12
2.50113e-10
-1.71511e-10
3.05218e-10
-3.74895e-10
3.60283e-10
-6.07734e-10
4.14982e-10
-8.69727e-10
4.69043e-10
-1.16045e-09
5.22242e-10
-1.47936e-09
5.74392e-10
-1.82585e-09
6.25334e-10
-2.19921e-09
6.74941e-10
-2.59869e-09
7.23102e-10
-3.02348e-09
7.69728e-10
-3.47272e-09
8.14744e-10
-3.94551e-09
8.5809e-10
-4.44095e-09
8.99715e-10
-4.95808e-09
9.39579e-10
-5.49594e-09
9.77652e-10
-6.05356e-09
1.01391e-09
-6.62994e-09
1.04833e-09
-7.22408e-09
1.0809e-09
-7.83498e-09
1.11163e-09
-8.46164e-09
1.14049e-09
-9.10304e-09
1.16749e-09
-9.75819e-09
1.19265e-09
-1.04261e-08
1.21595e-09
-1.11057e-08
1.23742e-09
-1.1796e-08
1.25706e-09
-1.24961e-08
1.27489e-09
-1.3205e-08
1.29092e-09
-1.39217e-08
1.30518e-09
-1.46452e-08
1.31767e-09
-1.53746e-08
1.32841e-09
-1.61089e-08
1.33744e-09
-1.68472e-08
1.34477e-09
-1.75887e-08
1.35042e-09
-1.83323e-08
1.35441e-09
-1.90772e-08
1.35678e-09
-1.98226e-08
1.35755e-09
-2.05675e-08
1.35673e-09
-2.13111e-08
1.35437e-09
-2.20526e-08
1.35047e-09
-2.27911e-08
1.34508e-09
-2.35259e-08
1.33822e-09
-2.42561e-08
1.32992e-09
-2.4981e-08
1.32019e-09
-2.56998e-08
1.30909e-09
-2.64117e-08
1.29662e-09
-2.71161e-08
1.28282e-09
-2.78122e-08
1.26772e-09
-2.84993e-08
1.25135e-09
-2.91767e-08
1.23373e-09
-2.98438e-08
1.2149e-09
-3.04999e-08
1.19489e-09
-3.11444e-08
1.17372e-09
-3.17767e-08
1.15143e-09
-3.23961e-08
1.12804e-09
-3.30021e-08
1.10359e-09
-3.35941e-08
1.0781e-09
-3.41716e-08
1.0516e-09
-3.4734e-08
1.02413e-09
-3.52807e-08
9.95717e-10
-3.58114e-08
9.66388e-10
-3.63255e-08
9.36175e-10
-3.68225e-08
9.05109e-10
-3.7302e-08
8.73221e-10
-3.77635e-08
8.40541e-10
-3.82067e-08
8.07101e-10
-3.86311e-08
7.72931e-10
-3.90363e-08
7.38062e-10
-3.94221e-08
7.02527e-10
-3.9788e-08
6.66357e-10
-4.01336e-08
6.29582e-10
-4.04588e-08
5.92236e-10
-4.07631e-08
5.54351e-10
-4.10464e-08
5.15957e-10
-4.13083e-08
4.77089e-10
-4.15486e-08
4.37777e-10
-4.17671e-08
3.98057e-10
-4.19636e-08
3.57959e-10
-4.21378e-08
3.17518e-10
-4.22897e-08
2.76766e-10
-4.24191e-08
2.35738e-10
-4.25257e-08
1.94468e-10
-4.26096e-08
1.52989e-10
-4.26706e-08
1.11336e-10
-4.27087e-08
6.95429e-11
-4.27237e-08
2.76454e-11
-4.27157e-08
-1.43217e-11
-4.26846e-08
-5.63232e-11
-4.26305e-08
-9.83234e-11
-4.25533e-08
-1.40286e-10
-4.24531e-08
-1.82176e-10
-4.233e-08
-2.23957e-10
-4.2184e-08
-2.65591e-10
-4.20153e-08
-3.07043e-10
-4.18239e-08
-3.48274e-10
-4.161e-08
-3.89249e-10
-4.13738e-08
-4.29929e-10
-4.11154e-08
-4.70277e-10
-4.08351e-08
-5.10255e-10
-4.05331e-08
-5.49826e-10
-4.02095e-08
-5.8895e-10
-3.98648e-08
-6.2759e-10
-3.94992e-08
-6.65707e-10
-3.91129e-08
-7.03263e-10
-3.87064e-08
-7.40218e-10
-3.82799e-08
-7.76535e-10
-3.78339e-08
-8.12175e-10
-3.73687e-08
-8.47098e-10
-3.68848e-08
-8.81266e-10
-3.63825e-08
-9.1464e-10
-3.58624e-08
-9.47181e-10
-3.5325e-08
-9.78851e-10
-3.47706e-08
-1.00961e-09
-3.41999e-08
-1.03942e-09
-3.36134e-08
-1.06825e-09
-3.30117e-08
-1.09605e-09
-3.23952e-08
-1.12278e-09
-3.17648e-08
-1.14842e-09
-3.11208e-08
-1.17292e-09
-3.04641e-08
-1.19624e-09
-2.97953e-08
-1.21836e-09
-2.91151e-08
-1.23922e-09
-2.84241e-08
-1.25881e-09
-2.77231e-08
-1.27707e-09
-2.70128e-08
-1.29398e-09
-2.6294e-08
-1.30951e-09
-2.55675e-08
-1.32361e-09
-2.4834e-08
-1.33626e-09
-2.40945e-08
-1.34742e-09
-2.33496e-08
-1.35707e-09
-2.26003e-08
-1.36517e-09
-2.18475e-08
-1.37169e-09
-2.10919e-08
-1.37661e-09
-2.03346e-08
-1.37989e-09
-1.95763e-08
-1.38152e-09
-1.88181e-08
-1.38146e-09
-1.80609e-08
-1.37969e-09
-1.73055e-08
-1.37618e-09
-1.65531e-08
-1.37092e-09
-1.58044e-08
-1.36389e-09
-1.50607e-08
-1.35507e-09
-1.43227e-08
-1.34443e-09
-1.35915e-08
-1.33197e-09
-1.28682e-08
-1.31766e-09
-1.21536e-08
-1.30151e-09
-1.1449e-08
-1.28349e-09
-1.07551e-08
-1.2636e-09
-1.00732e-08
-1.24184e-09
-9.40415e-09
-1.21821e-09
-8.74904e-09
-1.19269e-09
-8.10887e-09
-1.1653e-09
-7.48465e-09
-1.13604e-09
-6.8774e-09
-1.10492e-09
-6.28812e-09
-1.07196e-09
-5.7178e-09
-1.03717e-09
-5.1674e-09
-1.00057e-09
-4.6379e-09
-9.62196e-10
-4.13022e-09
-9.22078e-10
-3.64529e-09
-8.80257e-10
-3.18399e-09
-8.3678e-10
-2.74717e-09
-7.91704e-10
-2.33566e-09
-7.45097e-10
-1.95022e-09
-6.97035e-10
-1.59157e-09
-6.4761e-10
-1.26037e-09
-5.96929e-10
-9.572e-10
-5.45118e-10
-6.82571e-10
-4.92322e-10
-4.36886e-10
-4.38715e-10
-2.20437e-10
-3.84498e-10
-3.33819e-11
-3.29912e-10
1.24279e-10
-2.75242e-10
2.52733e-10
-2.20824e-10
3.52386e-10
-1.67065e-10
4.23911e-10
-1.14451e-10
4.68293e-10
-6.35699e-11
4.86898e-10
-1.51345e-11
4.8154e-10
2.99854e-11
4.5458e-10
7.07264e-11
4.09021e-10
1.05786e-10
3.48625e-10
1.33575e-10
2.78025e-10
1.52179e-10
2.02815e-10
1.5936e-10
1.29588e-10
1.52646e-10
6.58362e-11
1.29612e-10
1.96726e-11
8.86571e-11
3.16549e-11
2.4396e-11
-5.72215e-11
7.84974e-11
-1.43691e-10
1.49422e-10
-1.99728e-10
2.26858e-10
-2.26687e-10
3.01868e-10
-2.27943e-10
3.66728e-10
-2.07411e-10
4.14869e-10
-1.6891e-10
4.40808e-10
-1.15887e-10
4.40049e-10
-5.13203e-11
4.08976e-10
2.22755e-11
3.44741e-10
1.02805e-10
2.45154e-10
1.88529e-10
1.08586e-10
2.78012e-10
-6.61156e-11
3.70063e-10
-2.797e-10
4.63696e-10
-5.32574e-10
5.58092e-10
-8.24859e-10
6.52567e-10
-1.15643e-09
7.46552e-10
-1.52696e-09
8.3957e-10
-1.93593e-09
9.3122e-10
-2.38271e-09
1.02117e-09
-2.8665e-09
1.10913e-09
-3.38642e-09
1.19487e-09
-3.94151e-09
1.27818e-09
-4.53069e-09
1.35891e-09
-5.15287e-09
1.43692e-09
-5.80687e-09
1.51209e-09
-6.49147e-09
1.58432e-09
-7.20544e-09
1.65354e-09
-7.94748e-09
1.71969e-09
-8.71629e-09
1.78272e-09
-9.51055e-09
1.84259e-09
-1.03289e-08
1.89927e-09
-1.117e-08
1.95276e-09
-1.20326e-08
2.00303e-09
-1.29152e-08
2.05008e-09
-1.38164e-08
2.09392e-09
-1.47351e-08
2.13456e-09
-1.56696e-08
2.172e-09
-1.66188e-08
2.20627e-09
-1.75813e-08
2.23739e-09
-1.85558e-08
2.26537e-09
-1.95409e-08
2.29025e-09
-2.05353e-08
2.31207e-09
-2.15377e-08
2.33084e-09
-2.25469e-08
2.3466e-09
-2.35615e-08
2.3594e-09
-2.45803e-08
2.36927e-09
-2.56022e-08
2.37625e-09
-2.66258e-08
2.38038e-09
-2.76499e-08
2.38171e-09
-2.86735e-08
2.38027e-09
-2.96952e-08
2.37611e-09
-3.0714e-08
2.36929e-09
-3.17288e-08
2.35983e-09
-3.27384e-08
2.3478e-09
-3.37417e-08
2.33324e-09
-3.47377e-08
2.3162e-09
-3.57253e-08
2.29672e-09
-3.67036e-08
2.27486e-09
-3.76714e-08
2.25067e-09
-3.86279e-08
2.22419e-09
-3.9572e-08
2.19548e-09
-4.05029e-08
2.16458e-09
-4.14195e-08
2.13156e-09
-4.23211e-08
2.09646e-09
-4.32067e-08
2.05932e-09
-4.40755e-08
2.02022e-09
-4.49266e-08
1.97919e-09
-4.57593e-08
1.93628e-09
-4.65728e-08
1.89156e-09
-4.73663e-08
1.84508e-09
-4.8139e-08
1.79688e-09
-4.88903e-08
1.74702e-09
-4.96195e-08
1.69555e-09
-5.03258e-08
1.64253e-09
-5.10087e-08
1.58802e-09
-5.16676e-08
1.53206e-09
-5.23017e-08
1.4747e-09
-5.29106e-08
1.41602e-09
-5.34938e-08
1.35605e-09
-5.40506e-08
1.29485e-09
-5.45805e-08
1.23248e-09
-5.50831e-08
1.169e-09
-5.5558e-08
1.10446e-09
-5.60047e-08
1.03891e-09
-5.64228e-08
9.72413e-10
-5.68118e-08
9.05027e-10
-5.71716e-08
8.36808e-10
-5.75016e-08
7.67812e-10
-5.78016e-08
6.98097e-10
-5.80714e-08
6.27721e-10
-5.83106e-08
5.56743e-10
-5.85191e-08
4.85222e-10
-5.86966e-08
4.13217e-10
-5.88429e-08
3.40787e-10
-5.89579e-08
2.67993e-10
-5.90414e-08
1.94894e-10
-5.90934e-08
1.21552e-10
-5.91138e-08
4.80288e-11
-5.91025e-08
-2.5615e-11
-5.90595e-08
-9.93169e-11
-5.89849e-08
-1.73014e-10
-5.88785e-08
-2.46644e-10
-5.87405e-08
-3.20143e-10
-5.8571e-08
-3.93447e-10
-5.83701e-08
-4.66492e-10
-5.8138e-08
-5.39214e-10
-5.78747e-08
-6.11547e-10
-5.75805e-08
-6.83426e-10
-5.72557e-08
-7.54785e-10
-5.69004e-08
-8.25559e-10
-5.6515e-08
-8.95681e-10
-5.60997e-08
-9.65084e-10
-5.5655e-08
-1.0337e-09
-5.51811e-08
-1.10147e-09
-5.46785e-08
-1.16831e-09
-5.41476e-08
-1.23417e-09
-5.35888e-08
-1.29897e-09
-5.30027e-08
-1.36264e-09
-5.23898e-08
-1.42513e-09
-5.17505e-08
-1.48636e-09
-5.10855e-08
-1.54626e-09
-5.03954e-08
-1.60476e-09
-4.96808e-08
-1.6618e-09
-4.89423e-08
-1.71731e-09
-4.81807e-08
-1.77122e-09
-4.73967e-08
-1.82347e-09
-4.65909e-08
-1.87398e-09
-4.57643e-08
-1.9227e-09
-4.49175e-08
-1.96955e-09
-4.40515e-08
-2.01447e-09
-4.3167e-08
-2.05739e-09
-4.2265e-08
-2.09825e-09
-4.13464e-08
-2.13699e-09
-4.0412e-08
-2.17355e-09
-3.9463e-08
-2.20785e-09
-3.85002e-08
-2.23984e-09
-3.75247e-08
-2.26946e-09
-3.65376e-08
-2.29665e-09
-3.55399e-08
-2.32135e-09
-3.45326e-08
-2.3435e-09
-3.3517e-08
-2.36306e-09
-3.24941e-08
-2.37996e-09
-3.14651e-08
-2.39415e-09
-3.04312e-08
-2.40558e-09
-2.93937e-08
-2.4142e-09
-2.83536e-08
-2.41997e-09
-2.73123e-08
-2.42283e-09
-2.6271e-08
-2.42275e-09
-2.5231e-08
-2.41968e-09
-2.41936e-08
-2.41358e-09
-2.31601e-08
-2.40442e-09
-2.21318e-08
-2.39216e-09
-2.11101e-08
-2.37678e-09
-2.00963e-08
-2.35823e-09
-1.90918e-08
-2.3365e-09
-1.80979e-08
-2.31157e-09
-1.7116e-08
-2.28341e-09
-1.61475e-08
-2.252e-09
-1.51937e-08
-2.21735e-09
-1.42561e-08
-2.17944e-09
-1.33361e-08
-2.13826e-09
-1.24349e-08
-2.09383e-09
-1.15541e-08
-2.04615e-09
-1.06949e-08
-1.99522e-09
-9.85872e-09
-1.94109e-09
-9.04692e-09
-1.88376e-09
-8.26082e-09
-1.82327e-09
-7.50171e-09
-1.75967e-09
-6.77089e-09
-1.69302e-09
-6.0696e-09
-1.62337e-09
-5.39906e-09
-1.5508e-09
-4.76044e-09
-1.4754e-09
-4.15487e-09
-1.39728e-09
-3.58341e-09
-1.31655e-09
-3.04708e-09
-1.23337e-09
-2.5468e-09
-1.14789e-09
-2.0834e-09
-1.06032e-09
-1.65764e-09
-9.70882e-10
-1.27012e-09
-8.79834e-10
-9.2135e-10
-7.87488e-10
-6.11642e-10
-6.94205e-10
-3.41145e-10
-6.00408e-10
-1.0979e-10
-5.06596e-10
8.27439e-11
-4.13358e-10
2.3707e-10
-3.21391e-10
3.54147e-10
-2.31526e-10
4.35333e-10
-1.44755e-10
4.82462e-10
-6.22628e-11
4.9792e-10
1.45272e-11
4.84738e-10
8.39083e-11
4.46689e-10
1.43836e-10
3.88394e-10
1.91876e-10
3.15412e-10
2.25172e-10
2.34318e-10
2.40461e-10
1.52751e-10
2.34205e-10
7.94587e-11
2.02888e-10
2.44361e-11
1.43687e-10
5.6095e-11
2.57544e-11
-8.29779e-11
8.18773e-11
-1.99816e-10
1.53408e-10
-2.71258e-10
2.28606e-10
-3.01883e-10
2.97572e-10
-2.9691e-10
3.51841e-10
-2.61683e-10
3.84199e-10
-2.0127e-10
3.88554e-10
-1.20243e-10
3.59836e-10
-2.26034e-11
2.93899e-10
8.82126e-11
1.87413e-10
2.0929e-10
3.77719e-11
3.38169e-10
-1.57003e-10
4.72786e-10
-3.98345e-10
6.11405e-10
-6.8722e-10
7.52571e-10
-1.02419e-09
8.95061e-10
-1.40947e-09
1.03785e-09
-1.84297e-09
1.18006e-09
-2.32437e-09
1.32097e-09
-2.8531e-09
1.45995e-09
-3.42842e-09
1.59649e-09
-4.04943e-09
1.73014e-09
-4.71509e-09
1.86052e-09
-5.42424e-09
1.98734e-09
-6.17563e-09
2.1103e-09
-6.96792e-09
2.22921e-09
-7.79969e-09
2.34386e-09
-8.66947e-09
2.4541e-09
-9.57573e-09
2.55981e-09
-1.05169e-08
2.66088e-09
-1.14914e-08
2.75723e-09
-1.24976e-08
2.84879e-09
-1.35339e-08
2.93553e-09
-1.45985e-08
3.01739e-09
-1.56899e-08
3.09437e-09
-1.68062e-08
3.16645e-09
-1.79459e-08
3.23363e-09
-1.91073e-08
3.29591e-09
-2.02886e-08
3.35332e-09
-2.14882e-08
3.40588e-09
-2.27044e-08
3.4536e-09
-2.39356e-08
3.49654e-09
-2.51801e-08
3.53472e-09
-2.64362e-08
3.56819e-09
-2.77023e-08
3.59699e-09
-2.89769e-08
3.62119e-09
-3.02583e-08
3.64082e-09
-3.1545e-08
3.65596e-09
-3.28354e-08
3.66665e-09
-3.4128e-08
3.67296e-09
-3.54213e-08
3.67495e-09
-3.67137e-08
3.6727e-09
-3.80038e-08
3.66626e-09
-3.92903e-08
3.65571e-09
-4.05715e-08
3.64111e-09
-4.18463e-08
3.62254e-09
-4.31131e-08
3.60007e-09
-4.43707e-08
3.57377e-09
-4.56177e-08
3.54373e-09
-4.68528e-08
3.51e-09
-4.80748e-08
3.47268e-09
-4.92825e-08
3.43183e-09
-5.04745e-08
3.38754e-09
-5.16498e-08
3.33988e-09
-5.28072e-08
3.28894e-09
-5.39455e-08
3.23478e-09
-5.50637e-08
3.17749e-09
-5.61606e-08
3.11715e-09
-5.72353e-08
3.05384e-09
-5.82867e-08
2.98765e-09
-5.93137e-08
2.91864e-09
-6.03156e-08
2.84691e-09
-6.12912e-08
2.77253e-09
-6.22398e-08
2.69559e-09
-6.31604e-08
2.61616e-09
-6.40522e-08
2.53434e-09
-6.49144e-08
2.45021e-09
-6.57462e-08
2.36384e-09
-6.65468e-08
2.27533e-09
-6.73155e-08
2.18475e-09
-6.80517e-08
2.09219e-09
-6.87546e-08
1.99774e-09
-6.94235e-08
1.90148e-09
-7.0058e-08
1.80349e-09
-7.06575e-08
1.70387e-09
-7.12213e-08
1.60271e-09
-7.17489e-08
1.50007e-09
-7.224e-08
1.39607e-09
-7.26939e-08
1.29077e-09
-7.31104e-08
1.18428e-09
-7.3489e-08
1.07668e-09
-7.38293e-08
9.68063e-10
-7.41311e-08
8.58517e-10
-7.4394e-08
7.48133e-10
-7.46178e-08
6.37003e-10
-7.48022e-08
5.25221e-10
-7.49471e-08
4.12878e-10
-7.50523e-08
3.00067e-10
-7.51176e-08
1.86884e-10
-7.5143e-08
7.34235e-11
-7.51284e-08
-4.022e-11
-7.50738e-08
-1.5395e-10
-7.49791e-08
-2.6767e-10
-7.48445e-08
-3.81282e-10
-7.46699e-08
-4.94689e-10
-7.44556e-08
-6.07791e-10
-7.42016e-08
-7.2049e-10
-7.39081e-08
-8.32686e-10
-7.35754e-08
-9.44278e-10
-7.32037e-08
-1.05517e-09
-7.27932e-08
-1.16525e-09
-7.23443e-08
-1.27442e-09
-7.18574e-08
-1.38259e-09
-7.13329e-08
-1.48964e-09
-7.07711e-08
-1.59547e-09
-7.01726e-08
-1.69998e-09
-6.95378e-08
-1.80307e-09
-6.88674e-08
-1.90464e-09
-6.81618e-08
-2.00457e-09
-6.74217e-08
-2.10276e-09
-6.66477e-08
-2.19911e-09
-6.58405e-08
-2.29351e-09
-6.50009e-08
-2.38587e-09
-6.41296e-08
-2.47606e-09
-6.32274e-08
-2.564e-09
-6.22951e-08
-2.64958e-09
-6.13337e-08
-2.73268e-09
-6.03439e-08
-2.81322e-09
-5.93268e-08
-2.89108e-09
-5.82834e-08
-2.96616e-09
-5.72145e-08
-3.03837e-09
-5.61214e-08
-3.1076e-09
-5.50051e-08
-3.17375e-09
-5.38666e-08
-3.23672e-09
-5.27072e-08
-3.29642e-09
-5.1528e-08
-3.35274e-09
-5.03302e-08
-3.4056e-09
-4.91152e-08
-3.45489e-09
-4.78841e-08
-3.50054e-09
-4.66383e-08
-3.54243e-09
-4.53792e-08
-3.5805e-09
-4.4108e-08
-3.61464e-09
-4.28263e-08
-3.64478e-09
-4.15354e-08
-3.67083e-09
-4.02369e-08
-3.69271e-09
-3.89321e-08
-3.71035e-09
-3.76226e-08
-3.72367e-09
-3.631e-08
-3.73259e-09
-3.49958e-08
-3.73705e-09
-3.36815e-08
-3.73699e-09
-3.23689e-08
-3.73233e-09
-3.10595e-08
-3.72303e-09
-2.97549e-08
-3.70901e-09
-2.84568e-08
-3.69025e-09
-2.71669e-08
-3.66668e-09
-2.58868e-08
-3.63827e-09
-2.46184e-08
-3.60497e-09
-2.33632e-08
-3.56677e-09
-2.2123e-08
-3.52362e-09
-2.08995e-08
-3.47551e-09
-1.96944e-08
-3.42242e-09
-1.85095e-08
-3.36435e-09
-1.73464e-08
-3.30129e-09
-1.6207e-08
-3.23326e-09
-1.50929e-08
-3.16027e-09
-1.40058e-08
-3.08235e-09
-1.29473e-08
-2.99952e-09
-1.19192e-08
-2.91184e-09
-1.09231e-08
-2.81937e-09
-9.96063e-09
-2.72218e-09
-9.03329e-09
-2.62036e-09
-8.14266e-09
-2.514e-09
-7.29021e-09
-2.40325e-09
-6.47738e-09
-2.28823e-09
-5.70553e-09
-2.16913e-09
-4.97595e-09
-2.04613e-09
-4.28985e-09
-1.91947e-09
-3.64833e-09
-1.78941e-09
-3.05239e-09
-1.65627e-09
-2.50288e-09
-1.52039e-09
-2.00053e-09
-1.38219e-09
-1.54587e-09
-1.24215e-09
-1.13924e-09
-1.10083e-09
-7.80765e-10
-9.58885e-10
-4.70288e-10
-8.17073e-10
-2.07356e-10
-6.76289e-10
8.83466e-12
-5.37581e-10
1.79494e-10
-4.02185e-10
3.063e-10
-2.71561e-10
3.9147e-10
-1.47432e-10
4.37838e-10
-3.18389e-11
4.48939e-10
7.28074e-11
4.29103e-10
1.63671e-10
3.83541e-10
2.37435e-10
3.18441e-10
2.90274e-10
2.41048e-10
3.17863e-10
1.59766e-10
3.15493e-10
8.43297e-11
2.78314e-10
2.62257e-11
2.01788e-10
8.23237e-11
2.48262e-11
-1.07804e-10
7.79713e-11
-2.52966e-10
1.43525e-10
-3.36814e-10
2.08871e-10
-3.67229e-10
2.63462e-10
-3.515e-10
2.98332e-10
-2.96555e-10
3.05842e-10
-2.08782e-10
2.79508e-10
-9.39103e-11
2.13883e-10
4.30214e-11
1.04455e-10
1.9764e-10
-5.2442e-11
3.66186e-10
-2.59723e-10
5.45449e-10
-5.19633e-10
7.32696e-10
-8.33833e-10
9.25604e-10
-1.20346e-09
1.1222e-09
-1.62922e-09
1.32082e-09
-2.11141e-09
1.52003e-09
-2.64998e-09
1.71863e-09
-3.24462e-09
1.9156e-09
-3.89472e-09
2.11005e-09
-4.59947e-09
2.30124e-09
-5.35788e-09
2.48854e-09
-6.16877e-09
2.67142e-09
-7.03084e-09
2.84941e-09
-7.94266e-09
3.02212e-09
-8.90268e-09
3.18923e-09
-9.90928e-09
3.35046e-09
-1.09608e-08
3.50558e-09
-1.20553e-08
3.6544e-09
-1.31912e-08
3.79676e-09
-1.43665e-08
3.93253e-09
-1.55794e-08
4.06162e-09
-1.68278e-08
4.18394e-09
-1.81098e-08
4.29944e-09
-1.94235e-08
4.40809e-09
-2.07669e-08
4.50985e-09
-2.2138e-08
4.60471e-09
-2.35348e-08
4.69269e-09
-2.49553e-08
4.77381e-09
-2.63975e-08
4.84807e-09
-2.78594e-08
4.91553e-09
-2.93391e-08
4.97621e-09
-3.08345e-08
5.03019e-09
-3.23439e-08
5.0775e-09
-3.38651e-08
5.11822e-09
-3.53963e-08
5.15241e-09
-3.69356e-08
5.18015e-09
-3.84812e-08
5.20151e-09
-4.00311e-08
5.21658e-09
-4.15836e-08
5.22544e-09
-4.31368e-08
5.22818e-09
-4.4689e-08
5.22489e-09
-4.62384e-08
5.21566e-09
-4.77833e-08
5.20059e-09
-4.9322e-08
5.17978e-09
-5.08528e-08
5.15333e-09
-5.2374e-08
5.12134e-09
-5.38842e-08
5.08391e-09
-5.53816e-08
5.04115e-09
-5.68648e-08
4.99317e-09
-5.83322e-08
4.94007e-09
-5.97823e-08
4.88196e-09
-6.12137e-08
4.81895e-09
-6.2625e-08
4.75115e-09
-6.40147e-08
4.67867e-09
-6.53816e-08
4.60163e-09
-6.67242e-08
4.52013e-09
-6.80413e-08
4.43429e-09
-6.93317e-08
4.34423e-09
-7.05941e-08
4.25005e-09
-7.18274e-08
4.15187e-09
-7.30303e-08
4.04981e-09
-7.42017e-08
3.94399e-09
-7.53407e-08
3.83452e-09
-7.6446e-08
3.72152e-09
-7.75168e-08
3.6051e-09
-7.85519e-08
3.48539e-09
-7.95506e-08
3.3625e-09
-8.05118e-08
3.23655e-09
-8.14347e-08
3.10766e-09
-8.23185e-08
2.97596e-09
-8.31623e-08
2.84156e-09
-8.39655e-08
2.70459e-09
-8.47271e-08
2.56517e-09
-8.54467e-08
2.42341e-09
-8.61234e-08
2.27946e-09
-8.67568e-08
2.13342e-09
-8.73461e-08
1.98542e-09
-8.7891e-08
1.8356e-09
-8.83907e-08
1.68407e-09
-8.8845e-08
1.53097e-09
-8.92534e-08
1.37641e-09
-8.96154e-08
1.22054e-09
-8.99308e-08
1.06348e-09
-9.01991e-08
9.05363e-10
-9.04202e-08
7.46318e-10
-9.05938e-08
5.86478e-10
-9.07197e-08
4.25978e-10
-9.07978e-08
2.6495e-10
-9.08279e-08
1.0353e-10
-9.081e-08
-5.81455e-11
-9.0744e-08
-2.1994e-10
-9.06299e-08
-3.81716e-10
-9.04679e-08
-5.43334e-10
-9.02579e-08
-7.04654e-10
-9.00002e-08
-8.65538e-10
-8.96948e-08
-1.02584e-09
-8.93421e-08
-1.18543e-09
-8.89422e-08
-1.34415e-09
-8.84955e-08
-1.50186e-09
-8.80024e-08
-1.65842e-09
-8.74631e-08
-1.81368e-09
-8.68782e-08
-1.9675e-09
-8.62481e-08
-2.11973e-09
-8.55733e-08
-2.27023e-09
-8.48545e-08
-2.41885e-09
-8.40921e-08
-2.56543e-09
-8.32869e-08
-2.70983e-09
-8.24396e-08
-2.85191e-09
-8.15508e-08
-2.99151e-09
-8.06214e-08
-3.12849e-09
-7.96522e-08
-3.2627e-09
-7.86441e-08
-3.39398e-09
-7.7598e-08
-3.5222e-09
-7.65148e-08
-3.6472e-09
-7.53955e-08
-3.76883e-09
-7.42413e-08
-3.88695e-09
-7.30531e-08
-4.00141e-09
-7.18321e-08
-4.11207e-09
-7.05795e-08
-4.21878e-09
-6.92964e-08
-4.3214e-09
-6.79843e-08
-4.41978e-09
-6.66442e-08
-4.51378e-09
-6.52777e-08
-4.60326e-09
-6.3886e-08
-4.68809e-09
-6.24706e-08
-4.76813e-09
-6.1033e-08
-4.84324e-09
-5.95746e-08
-4.91329e-09
-5.8097e-08
-4.97815e-09
-5.66017e-08
-5.0377e-09
-5.50904e-08
-5.0918e-09
-5.35647e-08
-5.14033e-09
-5.20263e-08
-5.18319e-09
-5.04769e-08
-5.22024e-09
-4.89182e-08
-5.25138e-09
-4.73521e-08
-5.27649e-09
-4.57803e-08
-5.29548e-09
-4.42046e-08
-5.30824e-09
-4.2627e-08
-5.31468e-09
-4.10493e-08
-5.3147e-09
-3.94734e-08
-5.30822e-09
-3.79013e-08
-5.29516e-09
-3.63349e-08
-5.27543e-09
-3.47761e-08
-5.24898e-09
-3.32271e-08
-5.21573e-09
-3.16897e-08
-5.17563e-09
-3.01661e-08
-5.12862e-09
-2.86582e-08
-5.07468e-09
-2.7168e-08
-5.01376e-09
-2.56977e-08
-4.94583e-09
-2.42492e-08
-4.87088e-09
-2.28247e-08
-4.78891e-09
-2.1426e-08
-4.69992e-09
-2.00554e-08
-4.60391e-09
-1.87147e-08
-4.50093e-09
-1.74061e-08
-4.39101e-09
-1.61314e-08
-4.27422e-09
-1.48926e-08
-4.15061e-09
-1.36917e-08