/*--------------------------------*- C++ -*----------------------------------*\
  =========                 |
  \\      /  F ield         | OpenFOAM: The Open Source CFD Toolbox
   \\    /   O peration     | Website:  https://openfoam.org
    \\  /    A nd           | Version:  7
     \\/     M anipulation  |
\*---------------------------------------------------------------------------*/
FoamFile
{
    version     2.0;
    format      ascii;
    class       volScalarField;
    location    "103";
    object      p;
}
// * * * * * * * * * * * * * * * * * * * * * * * * * * * * * * * * * * * * * //

dimensions      [0 2 -2 0 0 0 0];

internalField   nonuniform List<scalar> 
41600
(
-0.416973
-0.428793
-0.441089
-0.441592
-0.454459
-0.467491
-0.459377
-0.417731
-0.35636
-0.294343
-0.245112
-0.213779
-0.199378
-0.200992
-0.211037
-0.21566
-0.203402
-0.178269
-0.150619
-0.130231
-0.117967
-0.112535
-0.115052
-0.119455
-0.118598
-0.421601
-0.435606
-0.447963
-0.4441
-0.448246
-0.452373
-0.439259
-0.397911
-0.340501
-0.283905
-0.240355
-0.214366
-0.205118
-0.212301
-0.226945
-0.231973
-0.215872
-0.186127
-0.154126
-0.129778
-0.11444
-0.106045
-0.104612
-0.10558
-0.104382
-0.426512
-0.442678
-0.455133
-0.446722
-0.44187
-0.436771
-0.418274
-0.37687
-0.323196
-0.272026
-0.234329
-0.213764
-0.209984
-0.223096
-0.242408
-0.247352
-0.226723
-0.192251
-0.1563
-0.128542
-0.110448
-0.099664
-0.0949628
-0.0929745
-0.0912118
-0.431705
-0.449998
-0.462584
-0.449473
-0.435413
-0.420866
-0.396638
-0.354815
-0.304597
-0.258778
-0.226984
-0.211822
-0.213797
-0.233093
-0.256942
-0.261095
-0.235652
-0.196543
-0.15711
-0.126613
-0.106123
-0.0935599
-0.0864241
-0.0821277
-0.079724
-0.437182
-0.45755
-0.470292
-0.452356
-0.42895
-0.404832
-0.37458
-0.331959
-0.284883
-0.244255
-0.218279
-0.208412
-0.216379
-0.24199
-0.270038
-0.272761
-0.242377
-0.19895
-0.15657
-0.124076
-0.10158
-0.0878137
-0.0790992
-0.0732414
-0.0703344
-0.442935
-0.465308
-0.478222
-0.45536
-0.422544
-0.388831
-0.352334
-0.308518
-0.264246
-0.228566
-0.208179
-0.203434
-0.217557
-0.249496
-0.281227
-0.281887
-0.246678
-0.199473
-0.154747
-0.120997
-0.0969283
-0.0824372
-0.0728928
-0.0662391
-0.0631523
-0.448953
-0.473242
-0.486327
-0.45846
-0.416246
-0.373001
-0.32997
-0.284863
-0.242891
-0.211829
-0.196668
-0.19682
-0.217168
-0.255354
-0.290115
-0.288114
-0.248424
-0.198163
-0.151755
-0.117423
-0.0922656
-0.0774044
-0.0675796
-0.0608183
-0.0579728
-0.45522
-0.481316
-0.494549
-0.461617
-0.410094
-0.357466
-0.307845
-0.261048
-0.221022
-0.194165
-0.183749
-0.188538
-0.215068
-0.25933
-0.296359
-0.2912
-0.247583
-0.195116
-0.147749
-0.113389
-0.0876659
-0.0726665
-0.0628762
-0.0565125
-0.0543327
-0.461715
-0.489487
-0.502824
-0.464783
-0.404116
-0.342328
-0.286155
-0.237304
-0.198837
-0.175694
-0.16945
-0.178602
-0.211133
-0.261214
-0.299661
-0.291007
-0.244217
-0.190469
-0.142905
-0.108939
-0.0831574
-0.0681572
-0.0584978
-0.05275
-0.0515804
-0.468413
-0.497709
-0.51108
-0.4679
-0.398323
-0.327674
-0.265074
-0.213852
-0.176525
-0.156537
-0.153835
-0.167072
-0.205284
-0.260836
-0.299773
-0.28752
-0.238483
-0.184402
-0.137406
-0.104139
-0.0787213
-0.0638023
-0.0541951
-0.048928
-0.04894
-0.475284
-0.505932
-0.519244
-0.470906
-0.392721
-0.313574
-0.244761
-0.190903
-0.154266
-0.136821
-0.137005
-0.154059
-0.197505
-0.258099
-0.296558
-0.280863
-0.230626
-0.177135
-0.131417
-0.0990842
-0.074321
-0.0595461
-0.0497932
-0.0445507
-0.0456184
-0.482298
-0.514103
-0.527237
-0.473739
-0.387305
-0.300092
-0.225354
-0.168663
-0.132237
-0.116691
-0.119106
-0.139726
-0.18788
-0.252984
-0.290013
-0.271297
-0.220962
-0.168921
-0.125087
-0.0938937
-0.069945
-0.0553814
-0.0452491
-0.0394453
-0.0409744
-0.48942
-0.522169
-0.534985
-0.47634
-0.382068
-0.287282
-0.206969
-0.147332
-0.110624
-0.0963158
-0.10034
-0.124284
-0.176621
-0.245547
-0.280284
-0.259206
-0.20986
-0.160034
-0.118551
-0.0886849
-0.0656329
-0.0513475
-0.0406759
-0.0339041
-0.0348487
-0.496615
-0.530077
-0.542418
-0.478655
-0.377007
-0.275196
-0.189711
-0.127105
-0.0896327
-0.0758988
-0.0809729
-0.107995
-0.164081
-0.235895
-0.267679
-0.245074
-0.197715
-0.150743
-0.111934
-0.0835547
-0.0614685
-0.0474915
-0.0362609
-0.0284617
-0.0277282
-0.503846
-0.537775
-0.549469
-0.480641
-0.372122
-0.263888
-0.173679
-0.108172
-0.0694995
-0.0556843
-0.0613476
-0.091177
-0.150747
-0.224176
-0.252639
-0.229446
-0.184927
-0.141296
-0.105357
-0.0785724
-0.0575467
-0.0438381
-0.0321699
-0.0235758
-0.0205575
-0.511077
-0.545213
-0.556082
-0.482265
-0.367424
-0.253405
-0.158967
-0.0907149
-0.0504824
-0.0359612
-0.0418942
-0.0742361
-0.13718
-0.21065
-0.235709
-0.212889
-0.171879
-0.131907
-0.0989296
-0.0737888
-0.0539341
-0.0403994
-0.0285227
-0.0194292
-0.0142606
-0.518274
-0.552345
-0.562207
-0.483511
-0.362933
-0.243791
-0.145673
-0.0749029
-0.032851
-0.0170791
-0.0231351
-0.0576947
-0.123893
-0.195665
-0.217527
-0.195961
-0.158915
-0.122757
-0.0927378
-0.0692504
-0.0506447
-0.0372079
-0.0253988
-0.0159851
-0.00924644
-0.525403
-0.559127
-0.567806
-0.484379
-0.358665
-0.235085
-0.133892
-0.0608947
-0.0168839
0.000515325
-0.00567425
-0.042207
-0.111248
-0.179677
-0.198761
-0.17917
-0.146325
-0.113987
-0.0868431
-0.0650002
-0.0476491
-0.0343265
-0.0228101
-0.0131792
-0.00541667
-0.532433
-0.565522
-0.572857
-0.484842
-0.354506
-0.227477
-0.12371
-0.0488379
-0.00286883
0.0162687
0.00983606
-0.0285005
-0.0994125
-0.163203
-0.180044
-0.162946
-0.134336
-0.105703
-0.0812867
-0.0610663
-0.0449103
-0.0318156
-0.0206981
-0.0110101
-0.00258185
-0.539337
-0.571494
-0.577341
-0.484884
-0.350618
-0.220854
-0.11519
-0.038864
0.00889598
0.0306093
0.0227676
-0.0172156
-0.0884065
-0.146769
-0.161941
-0.147628
-0.123114
-0.0979737
-0.0760966
-0.057457
-0.0424096
-0.0296951
-0.0189792
-0.00945382
-0.000601742
-0.546091
-0.577016
-0.581187
-0.484588
-0.347023
-0.215233
-0.108361
-0.0310706
0.0180779
0.0408301
0.0325713
-0.00869988
-0.0781963
-0.130873
-0.144908
-0.133454
-0.112759
-0.0908368
-0.0712888
-0.0541657
-0.0401459
-0.0279392
-0.0176046
-0.00842083
0.000600824
-0.552674
-0.582054
-0.584453
-0.483922
-0.343732
-0.21061
-0.103209
-0.0254964
0.0244634
0.0476135
0.0389974
-0.00293689
-0.0687887
-0.115951
-0.129275
-0.120567
-0.103323
-0.0843044
-0.066868
-0.0511789
-0.0381197
-0.0264983
-0.0165518
-0.00780124
0.00112803
-0.559069
-0.58659
-0.587156
-0.482897
-0.340752
-0.206958
-0.099674
-0.0220992
0.0279925
0.050911
0.0421125
0.000552084
-0.0602653
-0.102348
-0.115243
-0.109023
-0.0948112
-0.0783696
-0.0628292
-0.0484805
-0.0363237
-0.0253224
-0.0157932
-0.00749949
0.00111707
-0.565263
-0.590689
-0.589225
-0.481532
-0.338082
-0.204228
-0.0976522
-0.0207508
0.028805
0.0510381
0.0423217
0.00224959
-0.0527632
-0.0902991
-0.10289
-0.0988104
-0.0871988
-0.0730115
-0.0591605
-0.0460525
-0.0347441
-0.0243688
-0.015288
-0.00744071
0.000710293
-0.571245
-0.594264
-0.590741
-0.479848
-0.335715
-0.202358
-0.0970071
-0.0212487
0.0272243
0.0485561
0.0401974
0.00260838
-0.0464164
-0.0799136
-0.0921938
-0.0898673
-0.0804387
-0.0682006
-0.0558447
-0.043876
-0.0333629
-0.023602
-0.014991
-0.00756716
3.74439e-05
-0.577008
-0.597309
-0.591731
-0.477868
-0.333637
-0.201274
-0.0975811
-0.0233414
0.0236828
0.0440878
0.0363483
0.00194523
-0.0412987
-0.0711829
-0.0830605
-0.0821013
-0.0744715
-0.0639021
-0.0528621
-0.0419319
-0.0321611
-0.0229922
-0.0148591
-0.00783293
-0.000793952
-0.582546
-0.599835
-0.592223
-0.475617
-0.33183
-0.200892
-0.0992065
-0.0267564
0.0186337
0.038199
0.0313101
0.00046983
-0.0373963
-0.0640059
-0.0753505
-0.0754047
-0.069232
-0.0600788
-0.0501908
-0.0402018
-0.0311194
-0.0225149
-0.0148541
-0.00820067
-0.00170147
-0.587852
-0.601856
-0.592243
-0.473124
-0.330269
-0.201126
-0.101714
-0.0312234
0.0124891
0.0313548
0.025507
-0.00165951
-0.034617
-0.0582251
-0.0689062
-0.0696655
-0.0646536
-0.0566928
-0.0478087
-0.0386677
-0.0302197
-0.0221492
-0.0149441
-0.00864127
-0.00263282
-0.592921
-0.603384
-0.591821
-0.470416
-0.328929
-0.201885
-0.104941
-0.0364917
0.0055948
0.02392
0.0192569
-0.00430422
-0.0328224
-0.0536614
-0.0635693
-0.0647754
-0.0606717
-0.0537072
-0.0456934
-0.0373128
-0.0294457
-0.0218773
-0.0151033
-0.0091306
-0.00355782
-0.597751
-0.604434
-0.590982
-0.467524
-0.327782
-0.203083
-0.108733
-0.0423386
-0.00177155
0.0161723
0.0127909
-0.00733834
-0.0318587
-0.050137
-0.0591905
-0.0606331
-0.0572252
-0.0510861
-0.0438232
-0.0361211
-0.0287829
-0.0216842
-0.0153109
-0.00964936
-0.00446098
-0.60232
-0.605031
-0.589743
-0.464478
-0.326796
-0.204635
-0.11295
-0.0485735
-0.00939192
0.00831866
0.00627317
-0.0106508
-0.0315776
-0.0474883
-0.0556347
-0.0571461
-0.0542573
-0.0487955
-0.0421774
-0.0350777
-0.0282183
-0.0215566
-0.0155509
-0.0101822
-0.00533173
-0.606617
-0.605204
-0.588116
-0.461309
-0.325944
-0.206462
-0.117466
-0.0550366
-0.0170979
0.00050968
-0.000181718
-0.0141475
-0.0318464
-0.0455702
-0.0527823
-0.0542312
-0.0517154
-0.0468037
-0.0407363
-0.0341689
-0.0277409
-0.0214836
-0.0158111
-0.0107174
-0.00616098
-0.610631
-0.604985
-0.586107
-0.458045
-0.325196
-0.208493
-0.122172
-0.0615971
-0.0247612
-0.00714701
-0.00649505
-0.0177513
-0.0325507
-0.0442577
-0.0505285
-0.0518145
-0.049552
-0.0450808
-0.0394815
-0.0333815
-0.0273407
-0.0214557
-0.0160827
-0.0112461
-0.00694195
-0.614342
-0.604418
-0.583713
-0.454713
-0.324526
-0.210662
-0.126975
-0.0681494
-0.0322859
-0.0145764
-0.0126139
-0.0214003
-0.0335943
-0.0434439
-0.0487825
-0.0498302
-0.0477234
-0.0435994
-0.0383956
-0.0327037
-0.0270094
-0.0214649
-0.016359
-0.011762
-0.00767224
-0.61773
-0.603555
-0.580932
-0.451336
-0.323908
-0.212911
-0.131796
-0.0746098
-0.0396012
-0.021728
-0.0185038
-0.0250458
-0.0348971
-0.0430382
-0.0474658
-0.0482202
-0.0461903
-0.042334
-0.0374627
-0.0321239
-0.02674
-0.0215044
-0.0166341
-0.0122615
-0.0083534
-0.620776
-0.602458
-0.577757
-0.447934
-0.323319
-0.215189
-0.136569
-0.0809132
-0.0466565
-0.0285691
-0.0241434
-0.0286496
-0.0363929
-0.0429645
-0.0465108
-0.0469334
-0.0449172
-0.0412615
-0.0366674
-0.031632
-0.0265266
-0.0215677
-0.0169041
-0.0127431
-0.00897755
-0.623463
-0.601198
-0.574191
-0.444523
-0.322741
-0.217453
-0.141242
-0.0870102
-0.0534169
-0.0350803
-0.0295206
-0.0321824
-0.0380275
-0.0431583
-0.0458589
-0.0459248
-0.0438718
-0.0403606
-0.0359954
-0.0312187
-0.0263642
-0.0216483
-0.01717
-0.0132054
-0.00951921
-0.625777
-0.599856
-0.570237
-0.441115
-0.322156
-0.219665
-0.145771
-0.0928639
-0.0598592
-0.0412518
-0.0346295
-0.0356218
-0.0397562
-0.0435656
-0.0454601
-0.0451544
-0.0430253
-0.0396119
-0.0354332
-0.030876
-0.0262474
-0.021741
-0.0174401
-0.0136432
-0.00995251
-0.627709
-0.598516
-0.565914
-0.43772
-0.321549
-0.221795
-0.150125
-0.0984481
-0.0659696
-0.0470808
-0.0394693
-0.0389507
-0.0415424
-0.0441406
-0.0452711
-0.0445875
-0.0423517
-0.0389975
-0.0349681
-0.0305968
-0.0261699
-0.0218434
-0.0177229
-0.0140466
-0.0103143
-0.629256
-0.597265
-0.561247
-0.434342
-0.32091
-0.223817
-0.154277
-0.103745
-0.0717413
-0.0525692
-0.0440418
-0.0421567
-0.0433563
-0.0448452
-0.0452547
-0.0441931
-0.0418276
-0.0385011
-0.0345886
-0.0303746
-0.0261252
-0.0219567
-0.0180162
-0.0144114
-0.0107623
-0.630421
-0.596186
-0.556274
-0.430985
-0.32023
-0.225711
-0.15821
-0.108743
-0.0771727
-0.0577224
-0.0483513
-0.0452305
-0.0451734
-0.0456467
-0.0453785
-0.043944
-0.0414322
-0.0381076
-0.0342841
-0.0302025
-0.0261072
-0.0220823
-0.0183066
-0.0147575
-0.0114407
-0.631211
-0.595352
-0.551041
-0.427646
-0.3195
-0.22746
-0.161909
-0.113436
-0.0822658
-0.062548
-0.0524033
-0.0481657
-0.0469737
-0.0465179
-0.045615
-0.0438161
-0.0411464
-0.0378031
-0.0340447
-0.0300742
-0.0261117
-0.0222185
-0.0185867
-0.0151376
-0.012086
-0.631633
-0.594818
-0.545602
-0.424323
-0.318716
-0.229052
-0.165366
-0.117822
-0.0870257
-0.0670551
-0.0562043
-0.0509578
-0.0487409
-0.0474357
-0.04594
-0.0437884
-0.0409536
-0.0375749
-0.0338616
-0.0299831
-0.0261346
-0.0223612
-0.0188584
-0.0155216
-0.0126305
-0.6317
-0.594618
-0.540014
-0.421011
-0.317873
-0.230477
-0.168576
-0.121903
-0.0914594
-0.0712538
-0.0597613
-0.0536041
-0.0504617
-0.0483806
-0.0463327
-0.0438421
-0.0408385
-0.0374115
-0.0337265
-0.0299236
-0.0261724
-0.0225073
-0.0191177
-0.0158918
-0.0131096
-0.631422
-0.594756
-0.534334
-0.417702
-0.316969
-0.23173
-0.171536
-0.125682
-0.0955754
-0.0751547
-0.0630816
-0.0561032
-0.0521252
-0.0493358
-0.0467753
-0.0439607
-0.0407874
-0.0373023
-0.0336318
-0.0298899
-0.0262215
-0.022653
-0.0193634
-0.0162375
-0.013535
-0.630808
-0.595203
-0.528619
-0.414389
-0.316
-0.232805
-0.174247
-0.129164
-0.0993831
-0.0787685
-0.0661727
-0.0584545
-0.0537228
-0.0502875
-0.0472519
-0.0441296
-0.0407883
-0.0372378
-0.0335704
-0.029877
-0.0262786
-0.0227958
-0.0195933
-0.016555
-0.0139173
-0.629866
-0.595897
-0.522918
-0.41106
-0.314965
-0.2337
-0.176711
-0.132357
-0.102892
-0.082106
-0.0690419
-0.0606584
-0.0552473
-0.0512238
-0.0477493
-0.044336
-0.04083
-0.0372091
-0.0335358
-0.0298801
-0.0263405
-0.0229331
-0.0198064
-0.0168436
-0.0142625
-0.628606
-0.596744
-0.517275
-0.407707
-0.313861
-0.234415
-0.17893
-0.135267
-0.106113
-0.0851776
-0.0716967
-0.0627159
-0.0566933
-0.0521347
-0.0482555
-0.0445685
-0.0409026
-0.0372084
-0.033522
-0.0298948
-0.0264042
-0.0230628
-0.0200014
-0.0171043
-0.0145728
-0.627038
-0.597619
-0.511726
-0.40432
-0.312687
-0.234948
-0.180909
-0.137902
-0.109056
-0.0879938
-0.074144
-0.0646283
-0.0580561
-0.0530117
-0.0487604
-0.0448171
-0.0409975
-0.0372283
-0.0335234
-0.0299169
-0.0264669
-0.0231831
-0.020178
-0.0173381
-0.0148514
-0.625177
-0.598378
-0.506297
-0.400887
-0.311439
-0.235303
-0.182653
-0.140271
-0.111731
-0.0905644
-0.0763909
-0.0663974
-0.0593323
-0.0538476
-0.0492553
-0.0450728
-0.0411065
-0.0372623
-0.0335349
-0.0299426
-0.0265262
-0.0232926
-0.0203356
-0.0175462
-0.0150997
-0.623046
-0.598865
-0.501005
-0.397401
-0.310115
-0.23548
-0.184167
-0.142383
-0.114148
-0.092899
-0.0784441
-0.0680254
-0.0605193
-0.0546365
-0.0497325
-0.045328
-0.0412227
-0.0373046
-0.0335519
-0.0299685
-0.0265797
-0.0233897
-0.0204741
-0.0177295
-0.0153193
-0.620677
-0.598927
-0.49586
-0.393853
-0.308714
-0.235482
-0.185456
-0.144247
-0.116316
-0.0950069
-0.0803099
-0.0695143
-0.0616151
-0.0553732
-0.0501853
-0.0455758
-0.0413396
-0.0373496
-0.0335699
-0.0299913
-0.0266251
-0.0234732
-0.0205932
-0.017889
-0.0155115
-0.618115
-0.598423
-0.490862
-0.390237
-0.307232
-0.235311
-0.186528
-0.14587
-0.118247
-0.0968967
-0.0819947
-0.0708668
-0.0626182
-0.0560536
-0.0506082
-0.0458099
-0.0414515
-0.0373925
-0.0335853
-0.0300082
-0.0266606
-0.023542
-0.0206926
-0.0180252
-0.0156773
-0.61542
-0.597241
-0.48601
-0.386547
-0.305668
-0.234972
-0.187388
-0.147261
-0.119947
-0.098577
-0.0835044
-0.0720851
-0.0635279
-0.0566743
-0.0509961
-0.0460252
-0.0415535
-0.037429
-0.0335942
-0.0300163
-0.0266843
-0.0235948
-0.0207722
-0.0181386
-0.0158176
-0.612664
-0.595301
-0.481293
-0.382781
-0.304017
-0.234467
-0.188041
-0.148428
-0.121427
-0.100056
-0.0848447
-0.073172
-0.0643434
-0.0572323
-0.0513449
-0.0462169
-0.041641
-0.0374551
-0.0335935
-0.0300133
-0.0266945
-0.0236307
-0.0208316
-0.0182295
-0.0159332
-0.609931
-0.592568
-0.476702
-0.378937
-0.302278
-0.2338
-0.188494
-0.149379
-0.122694
-0.10134
-0.086021
-0.0741301
-0.0650648
-0.0577253
-0.0516509
-0.046381
-0.0417099
-0.0374672
-0.0335803
-0.0299969
-0.0266896
-0.0236488
-0.0208708
-0.0182984
-0.0160245
-0.607311
-0.589047
-0.472223
-0.375014
-0.30045
-0.232975
-0.188753
-0.150123
-0.123756
-0.102437
-0.0870386
-0.074962
-0.065692
-0.0581515
-0.0519112
-0.0465139
-0.0417568
-0.0374621
-0.0335518
-0.0299649
-0.0266682
-0.0236481
-0.0208894
-0.0183452
-0.0160919
-0.604897
-0.584781
-0.467844
-0.371016
-0.298528
-0.231995
-0.188824
-0.150665
-0.124622
-0.103355
-0.0879026
-0.0756704
-0.0662254
-0.0585093
-0.052123
-0.0466125
-0.0417785
-0.0374369
-0.0335057
-0.0299157
-0.0266289
-0.0236279
-0.0208872
-0.0183701
-0.0161358
-0.60278
-0.579844
-0.463552
-0.366943
-0.296513
-0.230863
-0.188711
-0.151013
-0.125297
-0.104099
-0.0886175
-0.0762579
-0.0666656
-0.0587978
-0.0522842
-0.046674
-0.0417721
-0.0373892
-0.0334397
-0.0298474
-0.0265707
-0.0235874
-0.0208639
-0.0183731
-0.0161565
-0.601039
-0.574329
-0.459335
-0.362798
-0.294401
-0.229584
-0.188421
-0.151174
-0.12579
-0.104675
-0.0891882
-0.0767272
-0.0670132
-0.059016
-0.0523931
-0.0466962
-0.0417354
-0.0373167
-0.0333519
-0.0297586
-0.0264922
-0.0235259
-0.0208194
-0.0183542
-0.016154
-0.599744
-0.56834
-0.455182
-0.358586
-0.292192
-0.22816
-0.187958
-0.151154
-0.126106
-0.105089
-0.0896189
-0.0770809
-0.0672693
-0.0591636
-0.0524481
-0.0466772
-0.0416662
-0.0372174
-0.0332406
-0.0296479
-0.0263925
-0.0234428
-0.0207535
-0.0183133
-0.0161287
-0.598945
-0.56198
-0.451081
-0.35431
-0.289884
-0.226595
-0.187328
-0.15096
-0.126252
-0.105348
-0.0899138
-0.0773216
-0.0674346
-0.05924
-0.052448
-0.0466152
-0.0415627
-0.0370894
-0.0331042
-0.0295142
-0.0262708
-0.0233375
-0.0206658
-0.0182504
-0.0160805
-0.598675
-0.555348
-0.447024
-0.349971
-0.287476
-0.224891
-0.186534
-0.150596
-0.126234
-0.105455
-0.0900769
-0.0774517
-0.0675104
-0.0592453
-0.0523919
-0.0465088
-0.0414233
-0.0369314
-0.0329414
-0.0293562
-0.026126
-0.0232096
-0.0205562
-0.0181655
-0.0160099
-0.598952
-0.548528
-0.442999
-0.345574
-0.284967
-0.223053
-0.185582
-0.150069
-0.126057
-0.105417
-0.0901122
-0.0774739
-0.0674978
-0.0591796
-0.0522792
-0.046357
-0.0412466
-0.0367418
-0.0327509
-0.0291731
-0.0259576
-0.0230586
-0.0204244
-0.0180584
-0.015917
-0.599774
-0.541591
-0.438997
-0.341121
-0.282356
-0.221081
-0.184475
-0.149384
-0.125726
-0.105237
-0.0900233
-0.0773906
-0.067398
-0.0590431
-0.0521093
-0.0461587
-0.0410315
-0.0365197
-0.0325318
-0.0289639
-0.0257648
-0.0228841
-0.0202704
-0.0179291
-0.015802
-0.601124
-0.534594
-0.435008
-0.336611
-0.279641
-0.21898
-0.183219
-0.148545
-0.125247
-0.104921
-0.0898137
-0.0772043
-0.0672124
-0.0588361
-0.051882
-0.0459133
-0.0407772
-0.0362641
-0.0322832
-0.0287281
-0.0255471
-0.0226857
-0.0200939
-0.0177775
-0.0156651
-0.602976
-0.527579
-0.431019
-0.332047
-0.276822
-0.216752
-0.181815
-0.147558
-0.124624
-0.104473
-0.0894868
-0.0769172
-0.0669423
-0.0585593
-0.0515971
-0.0456202
-0.0404828
-0.035974
-0.0320043
-0.0284648
-0.025304
-0.0224633
-0.0198948
-0.0176036
-0.0155066
-0.605288
-0.520576
-0.427022
-0.327429
-0.273897
-0.214398
-0.180269
-0.146426
-0.123861
-0.103896
-0.0890461
-0.0765318
-0.0665891
-0.0582131
-0.0512546
-0.0452791
-0.0401477
-0.0356489
-0.0316944
-0.0281737
-0.0250351
-0.0222166
-0.0196729
-0.0174074
-0.0153266
-0.608012
-0.513604
-0.423003
-0.322755
-0.270865
-0.21192
-0.178583
-0.145155
-0.122963
-0.103195
-0.0884945
-0.0760504
-0.0661543
-0.0577983
-0.0508546
-0.0448896
-0.0397716
-0.0352883
-0.0313531
-0.0278543
-0.0247399
-0.0219454
-0.0194282
-0.0171887
-0.0151254
-0.611093
-0.506674
-0.418951
-0.318023
-0.267725
-0.209321
-0.176761
-0.143747
-0.121934
-0.102373
-0.0878353
-0.0754752
-0.0656394
-0.0573157
-0.0503975
-0.0444517
-0.0393541
-0.0348917
-0.03098
-0.0275061
-0.0244183
-0.0216496
-0.0191604
-0.0169476
-0.014903
-0.61447
-0.499789
-0.414855
-0.313233
-0.264476
-0.206602
-0.174805
-0.142208
-0.120779
-0.101434
-0.0870713
-0.0748086
-0.0650458
-0.0567662
-0.0498836
-0.0439655
-0.038895
-0.0344588
-0.0305748
-0.027129
-0.0240701
-0.021329
-0.0188696
-0.0166842
-0.0146597
-0.618077
-0.492945
-0.410702
-0.308381
-0.261116
-0.203765
-0.172719
-0.140539
-0.119499
-0.100382
-0.0862054
-0.0740526
-0.064375
-0.0561507
-0.0493134
-0.0434311
-0.0383943
-0.0339895
-0.0301373
-0.0267228
-0.0236951
-0.0209837
-0.0185557
-0.0163983
-0.0143957
-0.621847
-0.486137
-0.406479
-0.303465
-0.257645
-0.20081
-0.170506
-0.138746
-0.1181
-0.0992199
-0.0852404
-0.0732095
-0.0636288
-0.0554702
-0.0486874
-0.0428488
-0.037852
-0.0334838
-0.0296673
-0.0262873
-0.0232932
-0.0206136
-0.0182187
-0.0160903
-0.0141111
-0.62571
-0.479354
-0.402175
-0.29848
-0.25406
-0.19774
-0.168167
-0.13683
-0.116585
-0.0979504
-0.084179
-0.0722815
-0.0628085
-0.0547258
-0.0480063
-0.0422188
-0.0372683
-0.0329416
-0.0291649
-0.0258225
-0.0228645
-0.0202188
-0.0178586
-0.0157601
-0.0138061
-0.629596
-0.472582
-0.397775
-0.293422
-0.250361
-0.194555
-0.165706
-0.134796
-0.114956
-0.0965769
-0.0830238
-0.0712706
-0.0619158
-0.0539185
-0.0472709
-0.0415416
-0.0366433
-0.0323631
-0.0286301
-0.0253284
-0.0224089
-0.0197992
-0.0174755
-0.0154082
-0.0134812
-0.633433
-0.465806
-0.393268
-0.288288
-0.246546
-0.191255
-0.163125
-0.132645
-0.113217
-0.0951023
-0.0817775
-0.070179
-0.0609524
-0.0530496
-0.0464818
-0.0408177
-0.0359774
-0.0317484
-0.0280629
-0.0248051
-0.0219265
-0.019355
-0.0170694
-0.0150346
-0.013137
-0.637153
-0.45901
-0.388641
-0.283073
-0.242615
-0.187843
-0.160427
-0.130381
-0.111372
-0.0935293
-0.0804425
-0.0690087
-0.0599197
-0.0521203
-0.04564
-0.0400478
-0.035271
-0.0310978
-0.0274637
-0.0242528
-0.0214176
-0.0188862
-0.0166403
-0.0146394
-0.0127735
-0.640684
-0.452174
-0.383882
-0.277772
-0.238566
-0.184318
-0.157613
-0.128006
-0.109423
-0.0918606
-0.0790212
-0.067762
-0.0588194
-0.0511317
-0.0447464
-0.0392324
-0.0345246
-0.0304117
-0.0268327
-0.0236717
-0.0208822
-0.0183932
-0.0161885
-0.0142226
-0.0123898
-0.64396
-0.445282
-0.37898
-0.27238
-0.234398
-0.18068
-0.154688
-0.125522
-0.107374
-0.0900996
-0.0775159
-0.0664411
-0.0576532
-0.0500851
-0.0438018
-0.0383723
-0.0337386
-0.0296904
-0.0261702
-0.023062
-0.0203205
-0.017876
-0.0157146
-0.0137846
-0.0119827
-0.646919
-0.438312
-0.373922
-0.266892
-0.23011
-0.17693
-0.151654
-0.122932
-0.105225
-0.0882497
-0.0759282
-0.0650482
-0.0564229
-0.0489818
-0.0428073
-0.0374681
-0.0329138
-0.0289343
-0.0254766
-0.022424
-0.019733
-0.0173349
-0.0152195
-0.0133261
-0.0115483
-0.649496
-0.431247
-0.368699
-0.261303
-0.225704
-0.173066
-0.148512
-0.120241
-0.102979
-0.086313
-0.0742612
-0.0635848
-0.0551307
-0.0478226
-0.0417646
-0.0365206
-0.0320511
-0.028144
-0.0247524
-0.0217576
-0.0191203
-0.0167703
-0.0147035
-0.0128475
-0.0110869
-0.651633
-0.424067
-0.363299
-0.255607
-0.22118
-0.169092
-0.14526
-0.11745
-0.100642
-0.0842863
-0.0725218
-0.0620499
-0.053779
-0.0466078
-0.0406756
-0.0355308
-0.0311512
-0.0273201
-0.023998
-0.0210633
-0.0184827
-0.016183
-0.0141665
-0.0123459
-0.0106091
-0.653274
-0.416753
-0.357714
-0.249797
-0.216537
-0.165011
-0.141902
-0.11455
-0.0982326
-0.0821618
-0.0707202
-0.0604419
-0.0523691
-0.0453395
-0.0395414
-0.0345
-0.0302143
-0.0264637
-0.0232137
-0.0203432
-0.0178191
-0.0155743
-0.0136074
-0.0118186
-0.0101244
-0.654367
-0.409287
-0.351936
-0.24387
-0.211773
-0.160816
-0.138464
-0.111513
-0.0957688
-0.0799407
-0.0688552
-0.0587684
-0.0508993
-0.0440252
-0.0383577
-0.0334298
-0.0292407
-0.0255754
-0.0224001
-0.0195966
-0.0171314
-0.0149436
-0.0130258
-0.0112701
-0.00962783
-0.654862
-0.401651
-0.345956
-0.23782
-0.206889
-0.156476
-0.135006
-0.108321
-0.0932395
-0.0776552
-0.0669015
-0.0570426
-0.0493689
-0.0426623
-0.0371289
-0.0323202
-0.0282317
-0.0246555
-0.021558
-0.0188239
-0.0164204
-0.014291
-0.0124225
-0.0107032
-0.00911542
-0.654715
-0.393828
-0.339769
-0.231642
-0.20191
-0.151937
-0.131544
-0.10504
-0.0905764
-0.0753254
-0.0648652
-0.0552623
-0.047783
-0.0412507
-0.0358573
-0.031172
-0.0271884
-0.0237046
-0.0206881
-0.0180258
-0.0156864
-0.0136167
-0.0117984
-0.0101188
-0.00858547
-0.653885
-0.385801
-0.333368
-0.225316
-0.196896
-0.147202
-0.127922
-0.101783
-0.0877957
-0.0729382
-0.0627582
-0.0534239
-0.0461452
-0.0397915
-0.0345445
-0.0299864
-0.0261119
-0.0227237
-0.0197911
-0.0172028
-0.0149299
-0.0129212
-0.0111545
-0.00951686
-0.00803782
-0.652335
-0.377553
-0.326744
-0.218792
-0.191877
-0.142404
-0.124093
-0.0984888
-0.0849187
-0.0704856
-0.0605877
-0.0515276
-0.0444575
-0.0382863
-0.0331915
-0.0287645
-0.0250032
-0.0217136
-0.0188676
-0.0163557
-0.0141515
-0.0122052
-0.0104915
-0.00889741
-0.00747295
-0.650031
-0.369068
-0.3199
-0.212036
-0.186721
-0.137645
-0.120108
-0.095135
-0.0819599
-0.0679649
-0.0583577
-0.049575
-0.0427216
-0.0367369
-0.0317997
-0.0275075
-0.0238631
-0.0206752
-0.0179186
-0.0154853
-0.0133517
-0.0114693
-0.00980989
-0.00826061
-0.00689154
-0.646945
-0.360337
-0.312861
-0.205124
-0.181366
-0.132872
-0.115998
-0.0917089
-0.0789276
-0.0653767
-0.0560709
-0.0475684
-0.040939
-0.0351452
-0.0303703
-0.0262168
-0.0226927
-0.0196094
-0.0169448
-0.0145923
-0.0125312
-0.0107142
-0.00911029
-0.00760681
-0.00629428
-0.643052
-0.351354
-0.30568
-0.198111
-0.17575
-0.128049
-0.111784
-0.088206
-0.075827
-0.0627226
-0.0537293
-0.0455103
-0.0391114
-0.0335128
-0.0289047
-0.0248936
-0.021493
-0.0185173
-0.0159469
-0.0136774
-0.0116906
-0.00994058
-0.00839318
-0.00693648
-0.00568178
-0.638331
-0.342099
-0.298352
-0.190956
-0.169931
-0.123158
-0.107477
-0.0846254
-0.0726615
-0.0600055
-0.0513347
-0.0434029
-0.0372404
-0.0318414
-0.0274042
-0.0235391
-0.0202653
-0.0173997
-0.014926
-0.0127414
-0.0108308
-0.00914904
-0.00765912
-0.00625017
-0.00505465
-0.632765
-0.332499
-0.290731
-0.183807
-0.163942
-0.118187
-0.103085
-0.0809683
-0.0694339
-0.057228
-0.0488891
-0.0412485
-0.0353277
-0.0301327
-0.0258702
-0.0221545
-0.0190105
-0.0162577
-0.013883
-0.0117853
-0.00995244
-0.00834029
-0.00690873
-0.00554848
-0.00441343
-0.626341
-0.322428
-0.282925
-0.176636
-0.157804
-0.113132
-0.0986113
-0.0772368
-0.0661465
-0.054393
-0.0463943
-0.0390494
-0.0333752
-0.0283884
-0.0243042
-0.0207413
-0.0177299
-0.0150924
-0.0128187
-0.0108098
-0.00905634
-0.00751503
-0.00614264
-0.00483206
-0.00375869
-0.619051
-0.31189
-0.274962
-0.169396
-0.15153
-0.10799
-0.0940616
-0.0734336
-0.0628014
-0.0515036
-0.0438524
-0.0368078
-0.0313846
-0.02661
-0.0227077
-0.0193007
-0.0164246
-0.0139048
-0.0117341
-0.00981577
-0.0081433
-0.00667398
-0.00536156
-0.00410156
-0.00309099
-0.610893
-0.301319
-0.266505
-0.162065
-0.145127
-0.102761
-0.089439
-0.0695618
-0.059401
-0.0485624
-0.0412655
-0.0345258
-0.0293579
-0.0247994
-0.0210823
-0.0178341
-0.0150958
-0.0126959
-0.0106302
-0.00880421
-0.00721417
-0.0058179
-0.00456621
-0.00335768
-0.00241087
-0.601865
-0.290583
-0.257674
-0.154626
-0.138602
-0.0974465
-0.0847464
-0.0656246
-0.0559475
-0.0455723
-0.0386359
-0.0322056
-0.0272969
-0.0229581
-0.0194293
-0.0163427
-0.0137448
-0.011467
-0.00950807
-0.00777602
-0.00626978
-0.00494759
-0.00375736
-0.00260115
-0.00171888
-0.591975
-0.279617
-0.248523
-0.147073
-0.131962
-0.0920476
-0.0799868
-0.0616253
-0.0524433
-0.042536
-0.0359658
-0.0298492
-0.0252035
-0.021088
-0.0177504
-0.0148281
-0.0123728
-0.010219
-0.0083687
-0.00673216
-0.00531102
-0.00406385
-0.00293579
-0.00183271
-0.00101563
-0.581249
-0.26837
-0.239082
-0.139402
-0.125212
-0.0865671
-0.075163
-0.0575673
-0.0488909
-0.0394564
-0.0332574
-0.027459
-0.0230797
-0.0191907
-0.0160471
-0.0132917
-0.010981
-0.00895324
-0.00721315
-0.0056736
-0.00433879
-0.00316753
-0.00210233
-0.00105316
-0.000301854
-0.569756
-0.256765
-0.229369
-0.131611
-0.118356
-0.0810078
-0.0702781
-0.0534541
-0.0452929
-0.036336
-0.0305132
-0.025037
-0.0209275
-0.0172681
-0.0143211
-0.0117347
-0.00957084
-0.00767079
-0.00604249
-0.00460135
-0.00335401
-0.00225948
-0.00125782
-0.000263369
0.000421599
-0.557553
-0.244758
-0.219396
-0.123703
-0.1114
-0.0753731
-0.065335
-0.049289
-0.0416521
-0.0331778
-0.0277356
-0.0225854
-0.0187488
-0.0153219
-0.0125738
-0.0101587
-0.00814349
-0.00637287
-0.00485782
-0.0035164
-0.00235762
-0.00134062
-0.000403182
0.000535723
0.00115389
-0.544506
-0.232483
-0.209177
-0.115679
-0.104348
-0.0696667
-0.0603369
-0.0450755
-0.0379711
-0.0299843
-0.0249269
-0.0201065
-0.0165456
-0.0133538
-0.0108069
-0.00856518
-0.0067003
-0.00506065
-0.00366024
-0.00241979
-0.00135059
-0.000411847
0.000460632
0.00134313
0.00189437
-0.530372
-0.220185
-0.198724
-0.107543
-0.097204
-0.0638923
-0.0552871
-0.0408173
-0.034253
-0.0267585
-0.0220896
-0.0176025
-0.0143199
-0.0113657
-0.00902207
-0.00695552
-0.00524261
-0.00373536
-0.00245086
-0.00131257
-0.000333892
0.000525874
0.00133262
0.00215786
0.0026425
-0.515356
-0.207735
-0.188047
-0.0992981
-0.0899742
-0.0580542
-0.0501891
-0.0365177
-0.0305005
-0.023503
-0.0192262
-0.0150756
-0.0120738
-0.00935945
-0.00722088
-0.00533122
-0.00377173
-0.00239821
-0.00123082
-0.000195769
0.000691492
0.0014716
0.00221182
0.00297891
0.00339738
-0.499514
-0.195091
-0.177158
-0.0909484
-0.0826634
-0.0521567
-0.0450464
-0.0321803
-0.0267169
-0.0202207
-0.0163392
-0.012528
-0.0098092
-0.0073368
-0.00540501
-0.00369378
-0.00228903
-0.00105043
-1.24783e-06
0.000929537
0.00172456
0.00242438
0.00309727
0.00380523
0.00415739
-0.482879
-0.182241
-0.166068
-0.0824986
-0.0752769
-0.0462041
-0.0398628
-0.0278089
-0.0229051
-0.0169144
-0.0134312
-0.0099621
-0.00752822
-0.00529963
-0.0035761
-0.00204469
-0.000795861
0.000306731
0.00123671
0.00206228
0.00276431
0.0033833
0.00398806
0.00463562
0.0049205
-0.465483
-0.169183
-0.154787
-0.0739542
-0.0678204
-0.0402013
-0.0346421
-0.023407
-0.0190683
-0.013587
-0.0105046
-0.00738013
-0.00523292
-0.00324979
-0.00173584
-0.000385463
0.000706416
0.00167204
0.0024819
0.00320137
0.00380973
0.0043474
0.00488312
0.00546868
0.00568569
-0.44736
-0.155919
-0.143328
-0.065321
-0.0602996
-0.034153
-0.0293885
-0.0189784
-0.0152097
-0.0102413
-0.00756219
-0.00478442
-0.00292537
-0.00118914
0.000114108
0.0012824
0.00221643
0.00304423
0.00373317
0.00434575
0.00485983
0.00531567
0.00578117
0.00630289
0.0064536
-0.428546
-0.142456
-0.131701
-0.0566054
-0.0527207
-0.0280642
-0.024106
-0.0145269
-0.0113327
-0.00688038
-0.00460645
-0.00217729
-0.000607672
0.000880457
0.00197205
0.00295737
0.0037328
0.00442206
0.00498937
0.00549436
0.00591362
0.00628707
0.00668079
0.00713657
0.00722415
-0.409076
-0.128802
-0.11992
-0.0478141
-0.0450899
-0.02194
-0.018799
-0.0100564
-0.00744045
-0.0035071
-0.00164005
0.000438923
0.00171809
0.00295711
0.0038363
0.00463793
0.00525416
0.00580428
0.00624936
0.00664615
0.00697012
0.00726059
0.00758068
0.00796769
0.00799211
-0.388986
-0.114968
-0.107997
-0.0389546
-0.0374137
-0.0157857
-0.0134718
-0.00557059
-0.00353643
-0.000124441
0.00133436
0.00306186
0.0040498
0.00503893
0.00570516
0.00632255
0.00677911
0.00718964
0.007512
0.00780011
0.0080284
0.00823531