/*--------------------------------*- C++ -*----------------------------------*\
  =========                 |
  \\      /  F ield         | OpenFOAM: The Open Source CFD Toolbox
   \\    /   O peration     | Website:  https://openfoam.org
    \\  /    A nd           | Version:  7
     \\/     M anipulation  |
\*---------------------------------------------------------------------------*/
FoamFile
{
    version     2.0;
    format      ascii;
    class       surfaceScalarField;
    location    "0.965";
    object      phi;
}
// * * * * * * * * * * * * * * * * * * * * * * * * * * * * * * * * * * * * * //

dimensions      [0 3 -1 0 0 0 0];

internalField   nonuniform List<scalar> 
18389
(
-7.97344e-05
7.97344e-05
4.34387e-05
-4.34387e-05
-5.2044e-05
5.2044e-05
4.00737e-05
-4.00737e-05
-5.17886e-05
5.17886e-05
-3.99362e-05
3.99362e-05
-3.47563e-05
3.47563e-05
3.90735e-05
-3.90735e-05
-3.55808e-05
3.55808e-05
4.1401e-05
-4.1401e-05
4.47946e-05
-4.47946e-05
-3.46004e-05
3.46004e-05
-1.40507e-05
1.40507e-05
-4.27909e-05
4.27909e-05
4.34472e-05
-4.34472e-05
2.44533e-05
-2.44532e-05
1.87821e-05
-1.87821e-05
4.58899e-05
-4.58899e-05
4.59252e-05
-4.59252e-05
4.33622e-05
-4.33622e-05
-4.25619e-05
4.25619e-05
3.57065e-05
-3.57065e-05
4.29901e-05
-4.29901e-05
-5.85601e-05
5.85601e-05
-4.96947e-05
4.96947e-05
-4.1805e-05
4.1805e-05
-4.45432e-05
4.45432e-05
4.56261e-05
-4.56261e-05
4.58508e-05
-4.58508e-05
4.4139e-05
-4.41389e-05
-4.13368e-05
4.13368e-05
-6.30738e-05
6.30738e-05
4.31166e-05
-4.31166e-05
-4.47444e-05
4.47444e-05
4.08596e-05
-4.08596e-05
4.6692e-05
-4.6692e-05
-4.55486e-05
4.55486e-05
5.3578e-05
-5.3578e-05
-5.88746e-05
5.88746e-05
3.78646e-05
-3.78646e-05
4.4835e-05
-4.4835e-05
4.53783e-05
-4.53783e-05
-4.10104e-05
4.10104e-05
4.49011e-05
-4.49011e-05
4.58645e-05
-4.58644e-05
-4.58497e-05
4.58497e-05
-4.58501e-05
4.58501e-05
-4.06609e-05
4.0661e-05
-4.58818e-05
4.58819e-05
4.59397e-05
-4.59397e-05
4.59585e-05
-4.59585e-05
4.46225e-05
-4.46225e-05
3.77316e-05
-3.77316e-05
-4.57653e-05
4.57653e-05
-5.5545e-05
5.5545e-05
-4.38138e-05
4.38138e-05
4.5751e-05
-4.5751e-05
-4.59941e-05
4.59941e-05
4.32277e-05
-4.32277e-05
-5.93193e-05
5.93194e-05
-4.71464e-05
4.71464e-05
4.96055e-05
-4.96055e-05
4.57389e-05
-4.57389e-05
-9.34257e-06
9.34258e-06
4.57733e-05
-4.57733e-05
4.15295e-05
-4.15295e-05
5.12038e-05
-5.12038e-05
-4.58732e-05
4.58732e-05
4.23255e-05
-4.23255e-05
3.14721e-05
-3.14721e-05
1.32569e-06
-1.32569e-06
-4.40753e-05
4.40753e-05
3.28685e-05
-3.28685e-05
-3.65719e-05
3.65719e-05
3.98104e-05
-3.98104e-05
2.66259e-05
-2.66259e-05
2.61995e-05
-2.61995e-05
2.70488e-05
-2.70488e-05
2.43959e-05
-2.43959e-05
1.32484e-05
-1.32484e-05
0.00107441
-0.000882285
-0.00019212
0.00546677
-0.00207524
-0.00339152
-0.00594644
0.00594638
5.46745e-08
0.00335462
-0.0025997
-0.000754919
-0.00155083
0.00176584
-0.000215012
-0.00676059
0.00283964
0.00392096
0.00121447
0.00425231
0.00725609
-0.00587635
-0.00137975
0.00118221
-0.00191943
0.00073722
-0.000864212
-0.000686621
-0.00144222
-0.000314612
0.00175683
0.000149525
8.50462e-06
-0.00015803
0.000778508
-0.00222073
-0.00360307
0.00012273
0.00348033
-0.00320284
0.00289208
0.000310767
-0.00571608
0.0072606
-0.00154453
-0.00370899
0.00289693
0.000812051
-0.000563599
-0.00303947
-0.00174862
0.00238942
-0.000640796
-0.00046424
0.00255805
-0.00209381
-0.0016079
0.00110991
0.000497986
0.000583526
0.000581833
-0.00159927
-0.00516132
0.001267
-0.00180182
0.000534818
0.00578099
-0.00386201
-0.00191898
-0.000660414
0.00331052
-0.0026501
-0.00583448
0.00583516
0.000485909
0.00127994
-0.00632896
0.000974937
0.00535403
0.00232592
-0.00298634
-0.00378987
0.00311374
0.000676127
0.00214838
-0.00422362
0.00108706
-0.000202484
-0.000884579
0.00150455
-0.00128975
-0.000214802
-0.00280228
-0.000400554
0.00535069
-0.00535247
0.000370534
0.00113402
0.00522837
-0.00133695
-0.00389143
0.00200706
-0.000824839
0.00308569
0.00190869
-0.00499437
-0.000721641
-0.00306824
-8.90368e-05
-0.000154673
0.000243709
0.00393561
0.00332048
0.00116668
-0.00489216
0.00372548
0.00162653
0.00360184
-0.00498169
0.00632097
-0.00133928
-0.00113745
-0.000591218
0.00172867
0.00133835
0.00201627
0.000135293
0.000103626
-0.000238919
0.00502256
-0.00339603
0.00645859
-0.000840596
-0.005618
0.00321669
-0.0026574
-0.000559293
0.00222012
0.000450104
-0.00267024
0.00295083
-0.000730705
0.00650339
-0.00539832
-0.00110506
0.000504711
-0.00386888
0.00336417
6.99587e-05
0.00638864
0.00480556
-0.00430085
-0.000535779
0.00105938
-0.000523595
-0.00175987
0.00062242
0.00191709
0.00224907
-0.00416615
0.0002534
-0.000333569
8.0169e-05
-0.00126592
-0.00284692
0.00411284
-2.65145e-05
0.00652991
-0.00281703
0.00229447
0.000522554
0.000389646
-1.25928e-05
-0.000377053
-0.00569234
-0.0002541
0.00187876
-0.00139285
0.000828243
0.00495275
0.000891907
0.000182502
0.0026586
-0.00647085
0.00381226
-0.0011202
0.000584422
0.00263982
-0.00390575
0.00619653
-0.00226091
0.0010921
0.00117728
-0.000769581
0.00102535
-0.000255771
-0.0011109
-0.000497002
0.00189037
0.00132632
-0.000595242
0.00142988
-0.00123769
-0.000192185
-0.00265444
0.00198715
0.000667294
0.00116698
0.000262901
0.00113782
-0.00497792
0.0038401
-0.00475931
0.00141903
0.00334027
-0.00455433
0.00611805
-0.00156372
-0.0050629
8.1213e-05
-0.0020191
-0.000635342
-0.000215275
0.000126238
-0.00122717
0.00465065
-0.00342348
-0.00122103
-0.000698399
0.000103309
-0.000192024
8.87145e-05
0.000126288
-2.29796e-05
-0.00126147
0.00464056
-0.00337908
-0.000156147
2.443e-05
0.000131718
-0.00556827
0.00170627
-0.00119242
-0.000567444
-0.00044944
-1.89132e-05
0.000468352
-0.00054328
9.38397e-05
0.00101147
7.55891e-05
-0.00180906
0.000616642
-0.000150316
1.71384e-05
0.000133177
0.001368
-0.00234447
0.000976469
0.000271105
-0.000135812
-0.00392589
0.00514037
-0.0024573
0.000708692
-9.34412e-05
-0.000426862
0.000520303
0.00568651
-0.00216961
-0.0035169
7.70803e-05
0.00250713
-0.00258421
0.00446034
-0.00561427
0.00115394
0.00263451
0.003052
0.00291333
-0.00283625
-0.00614337
0.000427296
-0.0064581
0.00362058
0.00283752
0.00229302
0.00390351
-0.00439138
0.00138034
0.00301103
0.00149732
-0.000230323
-0.00102556
0.00402068
-0.00299512
0.00463955
-0.00162626
-0.0030133
-0.00460806
0.00374886
0.000859203
0.00369375
-0.0050307
5.87988e-05
0.000330847
-0.0013849
0.00584525
-9.27011e-05
0.00214954
-0.00205684
-0.00206546
0.00260863
0.00017295
-0.00278158
-0.00127742
0.00264542
-0.000648463
0.00325709
0.00164079
-0.00173349
0.000908642
0.00397204
-0.00488069
-0.00504195
0.00384378
0.00119818
0.00255188
-0.0035941
0.00104223
-0.00333217
0.00411712
-0.000784943
0.000339888
-0.00367206
-0.00088853
0.00088853
-0.000447645
0.000354204
-0.000126965
-0.000973472
0.00110044
0.00507007
-0.00184304
-0.00322703
-0.00243337
-0.000368927
0.00290046
0.000157872
1.65484e-05
-0.000174421
-0.00147028
0.00112691
0.000343362
-0.000141972
-0.00489998
0.00505743
-0.00389076
0.00024012
-9.05957e-05
0.00444438
0.000578183
0.00406759
-0.0015157
0.000164958
-7.08611e-06
-0.00633941
-0.000985389
-0.000823678
0.00430031
-0.00190405
-0.00239626
0.00275618
0.00154413
0.0010777
-0.00563202
-0.00226041
-0.000556615
-0.00112006
-0.000958176
0.00207823
4.05866e-05
-0.00272291
0.00268232
-0.00235849
0.00123844
-0.0022181
0.00530379
-0.00462065
0.00160267
0.00301798
0.00254772
0.000663241
-0.000333416
-0.000329825
-0.00601495
0.000582899
0.00543206
-0.00418873
0.00582853
-0.0016398
0.0018253
0.00162957
-0.00345488
-0.00167509
0.000903251
0.000771835
-0.00271582
0.00208159
0.000634226
0.00110747
0.000771289
0.000247199
-0.00032894
8.17419e-05
0.00490315
-0.00399451
-0.00638581
0.00557462
0.000811189
-0.00478038
-0.00167772
0.00334208
0.000644095
-0.00398618
0.000153967
-0.000162167
8.19981e-06
0.000590437
-0.000125277
-0.00046516
-0.00451863
0.00261458
0.000369864
-0.000569824
0.000199961
5.90877e-05
-0.00094762
-0.00257574
0.00448443
-0.00530531
-0.000322836
0.00562815
0.0002139
0.000178158
-0.000392057
0.000754678
-0.000754678
0.00168531
-0.000728669
-0.00211027
0.00181344
0.000296824
0.00440234
-0.00302201
-0.000162403
6.25575e-06
-0.00121075
0.00126983
0.000709272
0.00129778
0.00234977
-0.00026817
-0.00402023
-0.00128508
0.00111568
-0.00498457
0.00321284
-0.00447431
0.000835484
-0.00213539
0.00129991
0.00335966
-0.00458684
-0.00271182
-0.00180681
-0.00483739
0.00469541
-0.000676276
-0.00533867
-0.00516022
0.0015047
-0.00146325
-4.14524e-05
0.00223096
0.000118806
-0.0060138
0.00204832
0.00396548
-0.00121933
0.000525999
0.000693332
0.00145371
0.00294864
-0.00462458
-0.00101627
0.00564087
-0.000212816
0.000138518
7.42981e-05
-0.00550789
0.00131916
0.00375307
-0.0049369
0.00118384
-0.00149187
-0.000618393
-0.000536675
-0.0006375
0.00013837
-0.000203838
6.54674e-05
0.00499732
-0.00385951
-0.00130068
0.00512591
-0.00382523
-0.000392888
-0.000817857
-0.00586099
0.0004397
0.00539546
-0.00616668
0.0045674
-0.000920538
-0.00546528
-0.0010927
-0.000377571
-0.00181667
0.00285677
-0.00104009
-0.000419203
0.000322072
9.7132e-05
-0.00173204
0.00141743
0.00161668
-0.000111973
0.000828053
-3.6741e-05
-0.0016953
0.00279651
0.00121779
-0.00303445
0.00605112
-0.000476493
0.00528104
6.96451e-05
-0.0052825
0.0043921
0.00114358
-0.00553568
0.000556466
-0.000768792
0.000212327
-4.02099e-05
-0.000407435
-1.53816e-05
0.0060665
-0.000162193
0.000156839
5.35505e-06
0.000133345
2.0622e-05
0.0025374
-0.00335876
0.000821364
-0.00191969
0.000716588
0.0012031
0.00792576
-0.00345576
-0.00447
0.00117112
0.00126401
-0.00243513
0.000104673
-0.000172222
6.755e-05
-0.000805877
0.00133187
0.00116411
0.00318084
-0.00434495
-0.00561412
0.000166081
0.00544804
-0.00401963
0.00299407
0.00173498
0.00479493
0.00458885
0.00333691
-2.20375e-05
0.000190233
-0.000168196
-0.00130901
0.00439696
-0.00308795
0.00030091
-0.000341119
-0.000131333
-8.14829e-05
0.0041013
-0.002276
0.00476417
-0.00501876
0.000254591
-0.00323966
0.00607533
-0.00283567
0.00252684
0.00157446
0.00576401
-0.000999842
-0.00139817
-0.005621
0.00137255
0.00424846
0.000654567
0.000520753
-0.00117532
0.00126956
-0.000614988
0.000585315
-0.00111024
0.000524924
0.00110607
0.000274071
0.00038917
-0.000678278
0.00443135
0.00152016
-0.000393248
0.00354033
-0.00613071
0.00259039
0.00153373
-0.00258492
0.00105119
-0.00432223
0.00116595
0.00315628
0.0029138
-0.00422281
-0.00491
-0.00125668
-0.00410001
0.00126856
0.00283145
0.00124905
0.00314791
-0.00326506
-0.000834954
0.00222675
-0.00105563
-0.000681706
-0.00253074
0.00321244
0.00240642
0.000619107
-0.00302552
-0.00158955
0.00120147
0.000388075
0.000269948
0.00148865
-0.00196621
0.000477568
-0.00011086
-0.000222709
-0.000264422
0.000153561
-0.00435428
-0.000253776
-0.000292441
0.00117313
-0.000880688
0.00435168
-0.00464551
0.000293822
-8.84225e-05
0.000117769
-2.93457e-05
0.000974609
0.00338157
-0.00435617
-0.000157003
6.85804e-05
-0.00475222
0.000710883
0.00404134
-0.000717359
0.000115891
0.000601466
8.36735e-05
-7.51688e-05
-0.000400523
0.000864675
-0.000347477
-0.000517198
-0.00603565
0.000637323
-0.00254967
-0.000128182
0.00267785
-0.00316971
0.00441875
0.00218083
-0.00108873
-0.00116719
-0.00117652
-4.45148e-05
-0.0035195
-0.0012398
0.00150764
-0.000405789
-0.00110185
0.00191901
0.00183863
-0.00375764
0.00504765
-0.00161683
-0.00343082
0.00079521
-0.00541979
-0.00137396
0.00300353
0.00196119
0.000781021
-0.00274221
-0.00349813
0.00447275
-0.000153033
2.71713e-06
0.00093634
-0.00443447
-0.00449741
-0.000148105
-0.000997913
-0.00461621
0.00463187
0.00149071
0.00355694
0.00416188
0.00114143
-0.00530331
3.67091e-05
5.87816e-05
-9.54907e-05
-0.0014064
0.0033676
0.00371046
0.00355014
-0.00139928
0.00237011
-0.00097082
-0.00248115
0.000462054
-0.000878406
0.000751439
-0.000196441
0.000410342
-0.000212627
0.00170127
0.00376344
-0.00184443
-0.00107126
-0.000603833
-0.000107188
-0.000157233
0.00355043
-0.00163333
-0.00240373
0.0046528
0.000674507
-0.00309589
0.00242138
0.000643426
0.000763515
-0.00105596
0.00209949
-0.00131409
-0.00327492
0.00458901
-0.00215283
0.00481143
-0.000552592
0.00344467
0.000238905
-0.000221766
-0.00236333
0.000964049
0.00232327
-0.00386805
0.00154479
-0.00121041
5.8061e-05
-2.13519e-05
0.00214747
-0.00279717
0.000649705
-0.00116836
-0.00042119
-0.00353001
0.00450495
0.00119297
0.001677
-0.00286996
-0.00168949
0.00366468
-0.00197519
0.00424107
-0.000859503
0.000234377
1.41055e-05
-0.000248482
-0.0037225
0.00203301
-0.00143014
0.00472069
-0.00329055
0.000878006
0.00130282
0.000162568
0.000592109
0.00025304
-0.000300724
4.76835e-05
0.00170065
0.000205831
-0.00190648
0.00301937
-0.00459226
0.0015729
-5.28237e-05
0.000374246
-0.000321423
0.00156269
-0.000361217
0.0013987
-0.000605695
-0.000793007
0.00282364
-0.00392694
0.0011033
0.00267986
-0.00374316
0.0010633
-0.00516267
0.00192301
0.00390431
-0.000884939
-0.00063583
-0.00237518
0.00301101
0.00140742
-0.00511813
0.00371071
0.00336053
-0.00145893
-0.0019016
-0.000681649
0.00172563
-0.00104398
0.00477127
-0.00303629
-0.000696104
-0.00196128
-0.00598225
0.00514165
3.91357e-06
0.000121718
-0.000125632
-0.00157845
0.00119999
0.000378463
-0.00491071
0.00630918
-0.00139848
-0.00188321
0.000722799
0.00116042
0.000409263
0.00268665
-0.00208789
-0.000598756
0.00343514
0.000489567
-0.00392471
0.000126358
-2.16848e-05
0.00517279
0.000336021
-0.0055088
-0.0019408
0.00379761
-0.00185681
0.00277024
-0.000641868
-0.00212837
0.000462556
0.000402119
-0.0004374
0.00387254
0.00202599
-0.00396678
0.000704463
-0.000265457
-0.000439005
-0.000633558
-5.08835e-06
0.000638648
-0.0031523
-0.00576522
0.00576465
-0.000274234
0.000950736
-0.000676503
-0.00228752
-0.000193632
-0.00455536
0.00324126
-0.000871796
0.00113115
0.00360831
-0.00501941
0.0014111
0.000410674
-0.00296034
0.0023303
-0.00244077
0.000110456
-0.00157142
0.00148228
8.91437e-05
-0.00121001
-0.000368439
-0.00339125
0.00342815
-0.00223518
0.000457225
0.000133212
-0.00173357
0.00105192
-0.00279493
0.000745816
0.00204911
0.000242376
-7.99922e-06
-0.00347727
0.00102269
0.00245458
-0.00144386
0.00560575
0.00033949
-0.000953907
0.000614418
0.00211903
0.000651207
-0.00127775
0.000304285
0.00111236
0.00121795
-0.00142861
0.0049577
-0.00352909
-0.00484964
0.00576917
-0.000919531
-0.00117516
0.00228372
0.00410491
0.00107329
3.6617e-05
0.00586704
-0.0055243
-0.00034274
0.00355748
-0.00466152
0.00110404
0.00309276
-0.000686345
0.00542679
-0.00181848
-0.00250296
-0.000974309
-0.00217377
-0.000321371
0.00249515
0.00241286
-0.00196276
-0.00160817
-0.00424163
0.00274668
0.00149496
-0.000324164
0.00122741
0.00121359
0.00365844
-0.00487203
-0.000297488
0.000667352
0.00305957
-0.00238505
-0.00472446
-0.0012578
0.00647096
-0.00129817
0.00424249
0.00206103
0.00049703
0.00285526
-0.00212582
-0.000729439
0.00473655
-0.00245283
-7.06633e-05
-0.00332633
-0.000868557
0.00419489
0.000388281
-8.66085e-05
-0.000301673
-0.00514305
0.00610611
-0.000963059
-0.000736262
0.00190729
-0.00117103
-0.000697048
0.00525251
-0.00455547
0.00117632
-0.00191258
-0.000113147
-0.00576319
-0.000769581
0.00202656
0.00384048
-0.000246057
-0.00192772
0.000251402
-4.20291e-06
0.000362582
-0.000487858
0.00336177
-0.000824376
-0.00522658
-0.000271635
-0.000147569
0.000150188
-0.000133573
-1.66147e-05
-0.00248359
0.000125093
-0.000422567
0.00159112
-0.00101505
-0.000576076
0.00247052
0.00059449
-0.00306501
-0.000714841
0.00318535
-0.00520293
-0.000271478
0.00547441
0.00375121
0.0013747
0.00441133
-0.00123049
-0.000130327
0.00254319
0.00540387
-0.000206674
-0.0051972
-0.00608681
0.00425208
0.00183475
0.00321196
-0.0012679
-0.0043531
0.000203557
-0.000225594
0.000578093
0.000820606
0.00109986
0.00013207
-0.00123193
0.00421231
0.00119157
-0.000960363
0.00317224
-0.00221188
0.00473269
-0.0013906
-0.00217904
0.0027925
-0.00061345
-0.00117617
-0.000117358
0.000310899
-0.000193541
0.00344621
-0.00414326
0.00134441
-0.000986554
-0.000357855
0.00159675
-0.000396754
-0.00325124
0.00229087
0.005488
-0.00434443
-3.06415e-05
0.000352714
-0.005357
0.000446277
0.00544916
-0.00190883
-0.00100244
-0.00361468
0.00461713
-0.000646148
0.00288285
-0.0022367
0.00549726
-0.00286246
-0.0026348
-8.83974e-05
0.000592841
-0.000677162
0.000660552
1.66102e-05
-0.000692081
0.00173184
-0.00103976
-0.00314798
-0.00117424
0.000155571
-1.72008e-05
-0.0012246
-0.0047892
-0.00307654
0.00239483
-0.000524607
-0.00023007
-7.26206e-05
-8.95726e-05
-0.00120817
-0.000805607
-0.00523005
-0.00283837
0.00219222
-0.000818679
0.00118921
0.00112968
0.00437708
-0.00550675
0.00339858
-0.00275448
0.000469984
0.000773723
-0.00288461
0.00211089
0.00499
-0.0049389
-5.10943e-05
-0.00320953
0.00361558
-0.000406046
0.000207794
-9.5608e-05
-0.000112186
-0.00498409
-0.00148678
-0.00175819
0.00369069
-0.00193249
0.0029819
-0.00220817
-0.00378415
0.00202596
0.00139502
-0.00258175
0.00118672
-0.00363277
0.0056811
0.00649842
-0.00219631
-0.00430211
-0.00240094
0.00237485
2.61045e-05
0.00561364
-0.00164161
0.00118496
-0.00092326
-0.000261704
-9.10971e-06
0.00026215
0.000249735
-0.000774126
0.000524391
-0.00304654
0.00365142
-0.00097156
0.000846167
-0.00104865
0.00236306
-0.000631898
-0.00173116
0.00220116
-0.000500505
0.0045256
0.00062984
0.00173322
-0.00175581
0.00106373
0.000408592
-0.000464693
5.60999e-05
0.00221338
-0.00174537
-0.000468011
0.00083104
-0.0051478
-0.000544539
0.000369492
-0.000588346
0.000218853
-0.00410107
0.00547361
0.000942182
-0.00111664
0.00017446
-0.00152424
0.00216443
-0.000640195
-0.00149086
-0.00275077
-0.00538324
-0.000156481
0.00553972
0.000300386
0.000108291
4.18974e-05
0.000127723
-0.000127848
1.2551e-07
0.00411861
-0.00290502
-0.0038031
-0.0023276
0.00346516
0.00303326
-0.00259431
0.000730229
0.00186408
-0.000844673
0.00223968
-0.00229749
-0.000103455
0.00272899
-0.00377746
0.00104846
0.00130856
-0.000135435
0.000459658
0.000551816
-0.00327834
0.000965184
0.00231315
0.00091473
-0.000606783
-2.67773e-05
-0.00427706
0.00172398
0.000100534
-0.0018245
-0.00396554
0.00146515
0.00250039
0.000519868
0.00146871
-0.000890623
-0.000246122
-0.00466033
0.00490646
0.000784482
-0.00247675
0.00169227
0.00120221
0.00131231
-0.000470759
-0.00171598
0.00218675
0.00258007
-0.00179559
0.00447075
-0.00353441
-0.000775744
-0.00264062
-0.000227267
0.000251697
-0.000703768
0.00176478
-0.00106102
0.00266025
-0.00366767
0.0010074
0.000136435
2.04036e-05
-0.00236351
-0.000914834
0.00142137
-0.0016365
0.00021512
-0.00277452
0.000686635
0.00127648
-0.00141879
0.000142308
0.00161867
-0.00180798
0.000189311
0.000676221
-0.00372723
-0.00116493
0.00134978
-0.00490108
0.0035513
-0.000914078
0.00357432
0.000118986
-7.91489e-05
-3.98373e-05
0.00475574
-0.00362606
-0.000313799
-0.00153064
-0.00401112
-0.00149677
0.00209173
0.000700761
-0.00101314
-0.000923575
-0.00451404
-0.00162933
-0.000391667
0.00124188
-0.00093083
-0.000311051
-0.00149606
-0.00108887
0.000657328
0.00225768
-0.002915
-0.000114278
0.000670743
-0.000715936
3.87732e-05
-0.00245743
0.00196647
0.00139406
-0.000720459
0.00164014
-0.000919681
-8.6873e-05
-0.000116964
0.000318622
-0.00194564
0.000453764
0.0016067
-0.00231089
0.000704188
-0.00334413
0.00258156
0.000762562
0.00119681
0.00241586
-0.00361267
-0.00175382
0.00105005
-0.00294146
-0.00102407
-0.000794316
-0.00254982
-0.00167774
0.0012531
0.000424652
0.00176434
-4.03655e-05
-0.000763196
-0.00243423
0.00319742
-0.000675895
0.00291461
-0.00225728
-0.00085853
-0.0039476
0.00480614
-0.00234336
0.00233968
3.68268e-06
-0.000717358
-0.00156201
0.000546969
-0.0024059
0.00381986
-0.00141396
0.00323286
0.0028852
0.000194395
3.62231e-05
-0.000230619
0.00234034
-0.00060279
-0.00173755
0.000187998
-0.000184085
-0.00358977
0.00493955
-0.00328989
0.00524715
-0.00195726
-0.00351001
-0.00150939
-0.000914073
0.00323175
-0.00231768
0.00285617
0.00177502
-0.00418093
-0.00499629
-0.000146756
-0.000791916
0.00284856
-0.00205664
-0.000431681
0.000378857
-0.000529888
0.00167555
-0.00114566
-0.00403517
0.00334183
0.00069334
-0.00326948
0.00235541
-0.00386912
0.000674903
0.00319421
0.00140995
-0.00101261
-0.000397348
-0.00589957
0.000696642
0.00184668
-0.00141082
-0.000435861
0.00141196
-0.000394728
-0.00101724
7.83756e-05
0.000129418
0.00293256
-0.00063808
-0.000220008
-0.00348776
-0.000381365
0.000428389
-0.00305483
-0.000980344
-0.00233628
-7.06951e-06
-0.00292588
0.00229006
0.000720675
0.00260185
-0.00332253
0.000585303
-0.000859537
0.00140954
-0.00671778
0.00530824
-0.00577429
0.000993905
-0.00234331
0.00354012
0.000691738
0.000258999
-0.0027329
0.00345357
-9.45296e-05
0.00508453
0.000616748
0.00170529
-0.00232204
-0.00177617
0.00124629
0.00274778
-0.00369608
0.000948293
0.00510117
0.000668893
0.00154448
0.000315122
0.00038934
-0.000364018
-0.000404774
0.000180972
-0.00174598
0.00176685
-0.000888841
0.000856834
0.000611877
-0.000585848
0.00301155
-0.0024257
-0.00150226
0.00184128
-0.000339013
-0.00489564
0.00380356
0.00109209
-0.0048008
0.00151091
-3.96839e-05
3.94646e-05
2.19266e-07
-0.00281094
-0.000856719
0.00107898
-0.00129482
0.00021584
0.00136042
-0.0049502
0.00106384
3.6021e-05
0.00124161
0.00069538
0.00218747
-0.00366789
0.00085695
0.000187406
-0.00503705
0.00189912
0.00121627
0.00069102
-0.00527345
-0.000491772
0.00565151
0.00118566
0.00710778
-0.00218457
-0.00492321
0.000787018
-0.000380165
-0.000406854
0.00071758
-0.00138176
0.000777922
-0.00386087
-0.00125726
0.000310899
-0.000933303
-0.000418181
0.00135149
0.00232877
0.00400854
-0.00486706
0.00270263
0.000834642
-0.00353728
0.00124919
-0.000963885
-0.000285302
0.000745347
0.00159499
-0.000135063
0.000138286
-3.22292e-06
-0.000709863
0.00288359
-0.00217373
0.00362198
0.00109872
-0.00126216
-0.000415584
0.00142187
-0.00155563
0.000133762
4.76143e-05
7.1372e-05
-0.00447747
0.000967452
-0.00165386
0.000443842
-0.00364731
0.00293246
-0.000948678
6.63923e-05
0.000935357
0.0026801
-0.00361545
0.00084741
-0.00126565
0.00419059
-0.00292495
0.000318356
0.000279898
4.6572e-05
-0.000326471
7.83092e-05
-0.00539168
0.00531337
-0.00263229
-0.000781334
0.00341363
-0.00349274
0.00260768
0.000885064
-0.00277425
-0.000262169
-0.00171489
-0.00490492
0.000893796
-0.00145409
-0.000882199
-0.00106345
0.00379244
0.00170848
-0.00372618
0.0020177
0.000105514
2.22083e-05
0.00372644
-0.00201795
0.00286344
0.000958539
-0.00382196
-0.0013025
0.00174206
-0.00043956
0.00357456
0.00110112
-0.00467569
0.0071851
-0.00197145
-0.00521364
-0.00212714
-0.000711225
-0.00172952
0.00234626
0.00377233
-0.00492824
0.0011559
-0.00280203
0.00373739
0.0011409
5.66479e-06
-0.00114656
0.00148245
0.000906964
-0.00550811
0.000598104
0.000435205
0.000351812
0.00292153
-0.00112331
-0.00252238
0.0024801
4.22836e-05
0.000504716
-0.00184046
0.00133574
-0.00387132
-0.00119159
0.00109069
-0.00254478
-0.00529913
0.000151337
-0.00125285
-0.000523298
0.00177614
0.0056348
-0.00449337
0.000104573
0.000283709
-0.00301608
0.00318903
0.00144054
-0.00107202
-0.000368519
0.0034683
0.00475909
-0.000955535
0.000644307
-0.0032766
0.00108438
-0.000968489
-5.28885e-05
0.00046148
0.000393994
-1.97471e-05
-0.00206528
-0.000455115
0.00153409
-0.000911188
-0.00349752
0.00076463
-2.69094e-05
-1.27745e-05
0.0059985
-0.0049208
0.0052222
-0.00439396
5.64089e-06
-0.000601466
0.000595824
0.00194877
-0.000458365
-0.0014904
0.00335888
-0.000757027
-0.002568
0.00336113
-0.000793125
-0.00183324
0.000530742
0.0012788
-0.000951719
-0.000327078
-0.000118766
-0.000210174
0.00205921
-0.00054836
-0.00151085
-0.0013798
-0.00239448
-0.000127888
0.00209036
-0.0027461
0.000655741
0.00280632
-0.000750607
-0.00205572
0.00410351
-0.00434963
0.000314912
0.00224203
-0.000635329
-0.000682799
0.000835038
-0.00367624
0.00503666
0.00124996
0.000463644
-0.00171649
-0.00286629
0.00209646
0.00363358
0.00158862
-0.0011413
-0.0038331
-0.00114482
0.0013032
-0.00171715
0.000413958
0.00367553
-0.00318597
-0.000193808
0.00113599
-3.86862e-05
-0.000269757
0.000308444
-0.000698336
-0.00189597
0.00377201
-0.00490934
0.00113734
-0.00186018
0.00235259
-0.00049242
-0.00115623
0.00213258
0.000751007
-0.00226325
0.00375582
-0.00149258
0.00150569
-0.00114124
-0.00036445
-0.00100518
0.000287821
0.000182386
-0.000442179
0.000259793
-0.00042665
-0.00122721
-0.00248005
0.0025047
-2.46504e-05
0.00144797
-0.00371122
0.0016235
-0.000370407
0.000376715
-0.000423306
4.65918e-05
-0.000826614
0.00059374
0.000232874
-0.000794895
-0.00285006
0.000831073
0.00201899
-0.00199499
-0.00084957
-0.000708478
0.00155805
-0.00524358
0.00389626
0.00134733
-0.00123654
0.00124218
-0.000576401
-0.000115914
0.000692315
0.00286866
-0.000736088
-0.000770364
-0.000160194
0.000930558
0.00183871
-0.00137507
0.00169733
-0.000394132
-0.000152162
-0.000636783
-0.00420568
0.00484247
-0.00138842
0.00282958
0.00427819
-0.00239885
-8.11957e-05
0.00312026
-0.00473708
0.000733047
0.00158159
-0.00231464
0.00200923
-0.00280115
0.001993
-0.000726702
-0.0012663
-0.00179603
0.000455913
0.00134011
0.00432066
0.00286445
-0.00551977
0.00133839
0.00418137
-0.00125312
-0.00399046
-0.00046019
-0.00133584
-0.00100019
-0.000561821
-0.0012922
-0.000424956
0.00114441
-0.000534648
0.0015079
-0.00097325
-0.00175714
0.00129694
-0.000944511
-0.000207198
0.00115171
0.0021712
-0.00286711
0.000695919
-1.17689e-05
0.000206164
0.00103238
0.00606554
-0.00140938
-0.00465616
-0.00203735
-0.00187346
0.00133535
0.000538107
0.00127054
-0.000977773
-0.000292763
-0.00229237
-0.00102779
0.00332017
-0.00267017
0.00358486
-0.000914692
-0.000920111
0.00111551
9.16462e-06
-0.00112467
0.0037608
-0.00493758
0.00117677
0.00174755
-0.00135542
-0.000392126
0.00242707
-0.00122486
0.00273946
-0.00063526
-0.000191354
-0.00409254
0.0022918
-0.00180184
-0.000489964
0.000560588
-0.00200898
0.00144839
-0.00251501
-0.00084375
0.000859894
-0.000658103
-0.000201792
-0.000180386
-0.00364386
0.000973689
0.000661409
-0.000479023
0.0025918
0.000993055
0.000318819
0.00130323
0.000689772
-0.00160325
0.00233629
-0.00150167
0.000988931
0.000512734
0.00355279
-0.000689346
-0.00380978
0.0061028
-0.00114853
-0.00248808
0.0068314
-0.00434332
-0.000888761
0.00356886
-0.00414181
0.000932291
-0.00210151
0.00424988
-0.000693018
-0.00161787
-0.00245199
0.00171164
0.000740349
-0.00127949
0.000407717
-0.000460814
5.30985e-05
-0.00137383
-0.000776839
-0.000153571
0.00093041
-0.00156384
0.00136125
0.000202591
0.00203604
0.000812516
6.25021e-05
-0.00130019
-0.00055162
-0.000830135
-0.00242159
-0.00048105
-0.0013924
-0.000171279
0.00159265
-0.000180698
0.00341138
-0.000514454
0.00133899
0.000200219
-0.000824988
-0.000976831
-0.00192998
0.00247692
-0.000546938
-0.00104397
-0.00572889
0.0035108
0.00148043
-0.000623599
0.00288675
-0.00120976
0.000964857
-0.00135873
-0.00453025
0.00588897
0.00062043
-0.00255042
0.00074152
-0.00369017
0.00269875
0.000991417
0.000889435
-0.00142408
0.00222437
-0.00311885
0.000894469
0.00119586
-0.00342993
0.00223407
0.000860869
0.00168781
-0.00254868
-0.000174625
0.0017933
0.0027418
0.00107904
0.00361804
-0.000413519
0.00078301
0.00315868
-0.00402723
0.000984024
-0.00327639
0.000435166
0.00412466
0.00147141
-1.04285e-05
-0.000274366
0.000284795
-0.00619293
0.00385653
0.00233641
-0.000830067
-0.00261408
0.00344415
0.00263989
-0.00177901
-0.00369699
0.000894954
-0.00132138
-0.000435757
-0.000152835
0.00131982
0.00372584
0.00123185
0.000224635
0.0013085
-0.000991896
-0.0003166
0.000884323
0.000596112
-0.000313876
0.00376934
-0.0049354
0.00116606
0.0030783
-0.000853933
-0.00139849
0.0019032
0.00125881
-0.00355525
0.00229644
-0.00116824
0.00145588
0.000678645
-0.00213453
0.000193604
-0.000204033
0.0021985
-0.000860153
-0.00124246
0.000330723
0.000925478
-0.000348968
-0.00057651
0.00353292
-0.00227411
-0.000509723
0.00229215
-0.00178243
0.00101935
-0.00296923
0.00208235
0.000886891
0.000106621
-1.10611e-06
0.00467315
0.000537252
-0.00569859
-0.00519709
0.00392772
0.00126938
-0.00107874
-0.00269505
0.00377379
0.0022213
0.00372508
0.00282676
-0.00375413
0.000927377
-0.00146892
0.00110048
-0.000959527
0.00337543
-0.00241591
0.00149673
0.000562478
-0.00378556
-0.00240737
0.00107833
-0.00230229
0.00321565
-0.000913374
0.00343598
-0.00082829
0.000396295
-0.000814032
0.00254291
0.000893062
-0.000635397
0.00431093
-0.00130837
0.00171625
-0.00040788
0.00199382
-0.00127723
-0.000389869
0.00607681
-0.00492143
-0.000461806
0.000858863
-0.00246211
-0.00539163
-0.00172217
0.000413796
-0.000678155
0.000101754
-0.000870227
0.000212442
-0.00146878
0.000671066
0.00157095
-0.000905437
0.000135073
0.000805212
0.00251591
-0.00332113
-0.00109513
0.00187364
-0.00194685
-0.000474395
0.00196116
-0.00148677
-0.000885957
-0.00208327
-0.00195176
0.00147737
-0.00265751
0.00346272
-0.00164304
0.000590005
0.00105303
-0.000980499
0.00357229
0.00601803
-0.00230758
-0.0013024
-0.000419773
-0.00173823
0.00109951
0.00063872
0.000905277
-0.00452009
0.00361482
-0.00131172
0.000546238
0.00076548
-0.0040352
-0.00116189
0.000191694
-0.0011362
0.00193702
-0.000720746
-0.00134814
-0.0038075
0.00515565
0.00100187
7.14248e-05
0.00329735
-0.0025278
-0.000769546
0.000134652
0.00127731
0.000876612
-0.000669847
-0.000206765
-0.00134644
-0.00101688
-0.00108571
0.00512528
-0.00403956
0.000637565
-0.00249774
0.000126117
0.00129575
0.00377197
-0.00496298
0.001191
0.00288013
-0.00204906
0.000101862
-0.00016832
6.64584e-05
0.0010284
0.000138096
0.00010428
0.00235608
0.00370946
-0.000582495
-0.000808444
0.00139094
0.000653671
0.00177103
-0.0024247
0.00240268
-0.00170375
-0.000698928
0.000475685
0.00147308
0.000426169
-0.000511047
-0.000800673
0.000600714
-0.00532518
0.000690388
-2.98365e-05
-0.00116342
-0.00131613
-0.003793
0.00510912
0.00103709
0.00143698
-0.00189535
0.00254668
-0.000394902
-0.00490869
0.0053036
0.000120611
-1.87496e-05
0.000660574
0.00127644
0.00272831
0.000945984
-0.00367429
0.001375
0.000471686
0.00258739
-0.00364157
0.00454684
0.00277391
0.000843726
-0.00361763
0.00163092
-0.000830101
-0.000800823
0.00132787
-0.0010191
-0.00030876
0.000424055
0.00105928
-0.00470085
0.000218508
-6.74716e-06
0.000200351
0.00605777
-0.00130204
0.00152582
-0.00212861
0.00252753
-0.0018233
-0.000704236
0.000865028
-0.00254535
0.00168032
0.00523463
-0.00281546
-0.000927692
-0.00158696
0.00501151
0.00148639
-0.00178138
0.000294997
0.000499621
-0.000103613
-0.000396006
-0.000997258
-0.00314046
0.00413773
0.000742707
0.00181904
-0.00256175
0.00176754
-0.000281151
0.00224835
0.00140621
-0.000859972
-0.000937438
0.000160598