/*--------------------------------*- C++ -*----------------------------------*\
  =========                 |
  \\      /  F ield         | OpenFOAM: The Open Source CFD Toolbox
   \\    /   O peration     | Website:  https://openfoam.org
    \\  /    A nd           | Version:  7
     \\/     M anipulation  |
\*---------------------------------------------------------------------------*/
FoamFile
{
    version     2.0;
    format      ascii;
    class       volScalarField;
    location    "0.428";
    object      p;
}
// * * * * * * * * * * * * * * * * * * * * * * * * * * * * * * * * * * * * * //

dimensions      [0 2 -2 0 0 0 0];

internalField   nonuniform List<scalar> 
40000
(
7.91472e-06
0.000106243
0.000167153
0.000151768
4.57183e-05
-0.000155444
-0.000449572
-0.000830853
-0.00129185
-0.00182453
-0.00242077
-0.00307261
-0.00377245
-0.00451304
-0.00528756
-0.00608962
-0.00691322
-0.00775276
-0.00860299
-0.00945904
-0.0103163
-0.0111707
-0.012018
-0.0128548
-0.0136775
-0.0144829
-0.0152681
-0.0160303
-0.016767
-0.0174757
-0.0181544
-0.0188009
-0.0194134
-0.0199902
-0.0205297
-0.0210305
-0.0214911
-0.0219105
-0.0222875
-0.0226213
-0.0229108
-0.0231554
-0.0233543
-0.023507
-0.023613
-0.0236719
-0.0236834
-0.0236471
-0.0235629
-0.0234307
-0.0232505
-0.0230222
-0.022746
-0.022422
-0.0220503
-0.0216313
-0.0211652
-0.0206524
-0.0200932
-0.0194883
-0.0188379
-0.0181427
-0.0174033
-0.0166203
-0.0157943
-0.014926
-0.0140163
-0.0130657
-0.0120753
-0.0110457
-0.00997784
-0.00887268
-0.00773111
-0.00655409
-0.00534262
-0.0040977
-0.00282038
-0.00151172
-0.000172805
0.00119524
0.00259129
0.00401417
0.00546272
0.00693573
0.00843199
0.00995025
0.0114893
0.0130478
0.0146245
0.016218
0.0178272
0.0194506
0.0210868
0.0227346
0.0243926
0.0260593
0.0277335
0.0294136
0.0310982
0.0327861
0.0344757
0.0361656
0.0378543
0.0395405
0.0412227
0.0428994
0.0445693
0.0462308
0.0478826
0.0495231
0.051151
0.0527648
0.0543632
0.0559446
0.0575077
0.059051
0.0605733
0.062073
0.063549
0.0649997
0.0664239
0.0678203
0.0691876
0.0705244
0.0718296
0.073102
0.0743403
0.0755434
0.0767101
0.0778393
0.0789299
0.0799809
0.0809914
0.0819602
0.0828865
0.0837694
0.0846081
0.0854017
0.0861496
0.0868509
0.087505
0.0881114
0.0886695
0.0891789
0.0896389
0.0900495
0.0904101
0.0907206
0.0909808
0.0911906
0.09135
0.0914591
0.0915179
0.0915267
0.0914858
0.0913955
0.0912563
0.0910688
0.0908336
0.0905515
0.0902233
0.08985
0.0894327
0.0889725
0.0884707
0.0879288
0.0873483
0.0867309
0.0860783
0.0853926
0.0846758
0.0839302
0.0831583
0.0823626
0.0815458
0.0807111
0.0798614
0.0790003
0.0781313
0.0772582
0.0763851
0.0755164
0.0746568
0.0738111
0.0729846
0.0721828
0.0714118
0.0706778
0.0699874
0.0693476
0.0687658
0.0682495
0.0678062
0.0674434
0.0671678
0.0669841
0.0668934
0.0668897
0.0669562
0.06705
-7.87477e-05
1.46219e-05
5.08268e-05
1.41297e-05
-9.90991e-05
-0.000293039
-0.000567512
-0.000918916
-0.00134193
-0.00183036
-0.0023776
-0.00297695
-0.00362179
-0.00430569
-0.00502251
-0.00576637
-0.00653174
-0.00731336
-0.0081063
-0.00890593
-0.00970791
-0.0105082
-0.0113029
-0.0120884
-0.0128616
-0.0136192
-0.0143583
-0.0150763
-0.0157705
-0.0164388
-0.0170789
-0.0176888
-0.0182667
-0.0188108
-0.0193196
-0.0197916
-0.0202255
-0.0206201
-0.0209742
-0.0212871
-0.0215576
-0.0217851
-0.0219688
-0.0221082
-0.0222028
-0.0222521
-0.0222557
-0.0222134
-0.0221249
-0.0219902
-0.0218091
-0.0215817
-0.0213079
-0.020988
-0.020622
-0.0202103
-0.019753
-0.0192504
-0.0187031
-0.0181113
-0.0174756
-0.0167965
-0.0160744
-0.0153101
-0.0145041
-0.0136571
-0.0127698
-0.0118429
-0.0108773
-0.00987364
-0.00883288
-0.00775586
-0.00664346
-0.00549662
-0.0043163
-0.00310346
-0.00185914
-0.000584345
0.000719853
0.00205238
0.00341213
0.00479798
0.00620878
0.00764337
0.00910056
0.0105792
0.0120779
0.0135956
0.015131
0.0166829
0.0182498
0.0198306
0.0214239
0.0230284
0.0246428
0.0262657
0.0278958
0.0295316
0.0311719
0.0328152
0.0344602
0.0361055
0.0377497
0.0393913
0.041029
0.0426614
0.044287
0.0459045
0.0475124
0.0491095
0.0506942
0.0522651
0.053821
0.0553604
0.0568819
0.0583843
0.059866
0.0613259
0.0627626
0.0641748
0.0655611
0.0669204
0.0682514
0.0695529
0.0708235
0.0720623
0.0732679
0.0744393
0.0755754
0.0766751
0.0777374
0.0787612
0.0797457
0.0806898
0.0815926
0.0824534
0.0832713
0.0840456
0.0847755
0.0854603
0.0860995
0.0866925
0.0872388
0.0877379
0.0881895
0.0885931
0.0889485
0.0892556
0.0895141
0.089724
0.0898854
0.0899982
0.0900626
0.090079
0.0900474
0.0899685
0.0898426
0.0896703
0.0894524
0.0891894
0.0888824
0.0885323
0.0881401
0.0877071
0.0872345
0.0867237
0.0861763
0.0855939
0.0849783
0.0843315
0.0836555
0.0829526
0.0822251
0.0814755
0.0807067
0.0799214
0.0791228
0.0783142
0.0774989
0.0766808
0.0758638
0.0750519
0.0742497
0.0734617
0.072693
0.0719487
0.0712343
0.0705555
0.0699184
0.069329
0.0687938
0.068319
0.0679108
0.0675747
0.0673155
0.0671359
0.0670352
0.0670082
0.0670499
0.0671437
-0.000137328
-2.09151e-05
1.51296e-05
-2.7585e-05
-0.000141649
-0.000328993
-0.000589349
-0.00091968
-0.0013156
-0.00177193
-0.00228305
-0.00284312
-0.00344628
-0.00408674
-0.00475889
-0.00545733
-0.0061769
-0.00691267
-0.00766
-0.00841449
-0.00917197
-0.00992855
-0.0106806
-0.0114245
-0.0121573
-0.0128757
-0.013577
-0.0142586
-0.014918
-0.0155528
-0.016161
-0.0167406
-0.0172897
-0.0178066
-0.0182898
-0.0187378
-0.0191493
-0.0195232
-0.0198582
-0.0201535
-0.0204081
-0.0206213
-0.0207922
-0.0209204
-0.0210053
-0.0210465
-0.0210435
-0.0209961
-0.020904
-0.0207671
-0.0205853
-0.0203585
-0.0200868
-0.0197703
-0.0194092
-0.0190035
-0.0185537
-0.0180598
-0.0175225
-0.0169419
-0.0163186
-0.015653
-0.0149456
-0.0141971
-0.0134081
-0.0125791
-0.0117108
-0.0108041
-0.00985949
-0.00887792
-0.00786014
-0.00680701
-0.0057194
-0.0045982
-0.00344434
-0.00225878
-0.0010425
0.000203502
0.00147819
0.00278051
0.0041094
0.00546375
0.00684245
0.00824436
0.00966833
0.0111132
0.0125777
0.0140607
0.015561
0.0170773
0.0186084
0.0201529
0.0217097
0.0232774
0.0248547
0.0264403
0.0280329
0.0296312
0.0312337
0.0328392
0.0344463
0.0360537
0.0376599
0.0392636
0.0408635
0.0424582
0.0440462
0.0456263
0.0471971
0.0487572
0.0503052
0.0518398
0.0533596
0.0548633
0.0563496
0.0578171
0.0592646
0.0606906
0.062094
0.0634735
0.0648278
0.0661557
0.067456
0.0687274
0.0699688
0.0711791
0.0723571
0.0735017
0.0746119
0.0756867
0.076725
0.0777258
0.0786882
0.0796114
0.0804945
0.0813366
0.082137
0.0828949
0.0836096
0.0842806
0.0849072
0.0854889
0.0860253
0.0865158
0.0869601
0.0873579
0.087709
0.0880132
0.0882703
0.0884803
0.0886433
0.0887593
0.0888284
0.0888511
0.0888274
0.088758
0.0886432
0.0884837
0.0882801
0.0880332
0.0877439
0.0874131
0.0870419
0.0866314
0.086183
0.0856981
0.0851781
0.0846248
0.0840398
0.0834252
0.0827828
0.082115
0.081424
0.0807124
0.0799828
0.0792379
0.0784809
0.0777149
0.0769431
0.0761694
0.0753973
0.0746308
0.0738743
0.0731321
0.0724088
0.0717093
0.0710388
0.0704024
0.0698056
0.0692541
0.0687533
0.0683087
0.0679256
0.0676086
0.0673614
0.0671866
0.0670837
0.0670498
0.0670917
0.0672103
-0.000121784
1.60706e-05
5.82303e-05
1.55598e-05
-9.69943e-05
-0.000279024
-0.000529402
-0.000844885
-0.00122135
-0.00165413
-0.0021382
-0.0026683
-0.00323914
-0.00384544
-0.00448205
-0.00514395
-0.00582633
-0.00652459
-0.00723431
-0.00795132
-0.00867168
-0.00939163
-0.0101077
-0.0108164
-0.0115148
-0.0121999
-0.0128689
-0.0135192
-0.0141485
-0.0147546
-0.0153352
-0.0158884
-0.0164126
-0.0169058
-0.0173668
-0.0177939
-0.0181859
-0.0185415
-0.0188598
-0.0191397
-0.0193803
-0.0195808
-0.0197406
-0.0198589
-0.0199353
-0.0199692
-0.0199604
-0.0199084
-0.0198131
-0.0196743
-0.0194918
-0.0192657
-0.0189958
-0.0186824
-0.0183255
-0.0179253
-0.017482
-0.016996
-0.0164674
-0.0158968
-0.0152845
-0.014631
-0.0139368
-0.0132024
-0.0124285
-0.0116156
-0.0107643
-0.00987549
-0.00894975
-0.00798787
-0.00699063
-0.00595885
-0.00489339
-0.00379511
-0.00266493
-0.00150376
-0.000312563
0.000907679
0.00215596
0.00343126
0.00473253
0.00605869
0.00740866
0.00878133
0.0101756
0.0115902
0.0130241
0.0144761
0.0159449
0.0174294
0.0189284
0.0204405
0.0219646
0.0234993
0.0250434
0.0265957
0.0281548
0.0297193
0.0312881
0.0328598
0.034433
0.0360064
0.0375787
0.0391486
0.0407147
0.0422756
0.0438301
0.0453768
0.0469143
0.0484414
0.0499566
0.0514587
0.0529464
0.0544182
0.055873
0.0573095
0.0587263
0.0601222
0.0614959
0.0628463
0.064172
0.0654718
0.0667447
0.0679894
0.0692048
0.0703897
0.0715431
0.0726639
0.0737511
0.0748036
0.0758206
0.076801
0.0777439
0.0786485
0.079514
0.0803395
0.0811243
0.0818677
0.082569
0.0832277
0.0838432
0.0844149
0.0849424
0.0854253
0.0858632
0.0862559
0.0866031
0.0869047
0.0871606
0.0873707
0.087535
0.0876538
0.0877271
0.0877553
0.0877386
0.0876775
0.0875724
0.0874241
0.0872331
0.0870002
0.0867263
0.0864123
0.0860594
0.0856686
0.0852413
0.0847788
0.0842826
0.0837544
0.0831959
0.082609
0.0819957
0.081358
0.0806984
0.0800192
0.079323
0.0786125
0.0778907
0.0771607
0.0764256
0.075689
0.0749544
0.0742256
0.0735067
0.0728019
0.0721155
0.0714521
0.0708165
0.0702135
0.0696482
0.0691255
0.0686505
0.0682283
0.0678633
0.0675599
0.0673217
0.0671514
0.0670495
0.0670158
0.0670647
0.0672069
-1.59752e-05
0.00012944
0.000172635
0.000128563
1.60426e-05
-0.000162863
-0.000406238
-0.000710551
-0.00107177
-0.00148555
-0.00194729
-0.0024522
-0.00299546
-0.00357223
-0.00417776
-0.00480742
-0.00545671
-0.00612132
-0.00679711
-0.00748012
-0.00816661
-0.00885299
-0.0095359
-0.0102121
-0.0108787
-0.0115327
-0.0121716
-0.0127928
-0.0133939
-0.0139728
-0.0145275
-0.015056
-0.0155565
-0.0160274
-0.0164672
-0.0168745
-0.0172479
-0.0175863
-0.0178886
-0.0181538
-0.0183811
-0.0185696
-0.0187185
-0.0188274
-0.0188956
-0.0189227
-0.0189083
-0.018852
-0.0187536
-0.0186129
-0.0184299
-0.0182043
-0.0179363
-0.0176258
-0.017273
-0.0168781
-0.0164412
-0.0159626
-0.0154427
-0.0148817
-0.0142801
-0.0136384
-0.0129569
-0.0122362
-0.0114769
-0.0106796
-0.0098449
-0.00897347
-0.00806601
-0.00712325
-0.00614596
-0.00513494
-0.004091
-0.003015
-0.00190782
-0.000770361
0.000396446
0.00159165
0.00281426
0.00406328
0.00533769
0.00663644
0.00795847
0.00930269
0.010668
0.0120533
0.0134574
0.0148791
0.0163174
0.017771
0.0192387
0.0207193
0.0222115
0.0237142
0.0252261
0.0267459
0.0282724
0.0298042
0.0313402
0.0328789
0.0344192
0.0359596
0.037499
0.039036
0.0405692
0.0420974
0.0436193
0.0451335
0.0466388
0.0481337
0.0496172
0.0510877
0.0525442
0.0539851
0.0554094
0.0568157
0.0582028
0.0595695
0.0609144
0.0622365
0.0635345
0.0648072
0.0660536
0.0672724
0.0684625
0.0696229
0.0707525
0.0718502
0.0729151
0.0739462
0.0749425
0.0759031
0.0768271
0.0777138
0.0785622
0.0793717
0.0801415
0.0808709
0.0815593
0.0822061
0.0828107
0.0833728
0.0838917
0.0843673
0.0847991
0.0851868
0.0855303
0.0858294
0.086084
0.0862941
0.0864598
0.0865812
0.0866584
0.0866918
0.0866817
0.0866285
0.0865328
0.086395
0.086216
0.0859964
0.0857372
0.0854392
0.0851036
0.0847314
0.0843241
0.0838828
0.0834091
0.0829046
0.082371
0.0818102
0.081224
0.0806147
0.0799843
0.0793353
0.0786702
0.0779917
0.0773025
0.0766057
0.0759043
0.0752016
0.0745012
0.0738066
0.0731217
0.0724504
0.0717969
0.0711654
0.0705603
0.0699862
0.0694477
0.0689494
0.0684959
0.0680917
0.0677412
0.0674482
0.0672164
0.0670489
0.0669471
0.0669127
0.0669642
0.0671167
0.00018464
0.000323406
0.00036032
0.000311069
0.00019545
1.6501e-05
-0.000223298
-0.000520221
-0.000870301
-0.00126943
-0.00171333
-0.00219761
-0.00271782
-0.00326952
-0.00384833
-0.00444995
-0.00507021
-0.00570505
-0.0063506
-0.00700312
-0.00765906
-0.00831502
-0.00896777
-0.00961427
-0.0102516
-0.0108771
-0.0114881
-0.0120823
-0.0126573
-0.013211
-0.0137414
-0.0142467
-0.0147252
-0.0151751
-0.0155951
-0.0159837
-0.0163396
-0.0166617
-0.016949
-0.0172003
-0.0174149
-0.017592
-0.0177308
-0.0178307
-0.0178912
-0.0179118
-0.017892
-0.0178316
-0.0177304
-0.017588
-0.0174043
-0.0171794
-0.0169131
-0.0166055
-0.0162567
-0.0158669
-0.0154362
-0.0149649
-0.0144532
-0.0139015
-0.0133103
-0.0126798
-0.0120106
-0.0113032
-0.010558
-0.00977579
-0.00895702
-0.0081024
-0.00721259
-0.00628831
-0.00533029
-0.00433931
-0.00331617
-0.0022617
-0.00117675
-6.22063e-05
0.00108103
0.00225202
0.00344981
0.00467343
0.00592188
0.00719412
0.00848913
0.00980585
0.0111432
0.0125001
0.0138753
0.0152679
0.0166766
0.0181003
0.0195378
0.0209879
0.0224494
0.0239211
0.0254018
0.0268903
0.0283852
0.0298854
0.0313896
0.0328966
0.034405
0.0359136
0.0374212
0.0389263
0.0404278
0.0419244
0.0434148
0.0448977
0.0463718
0.0478358
0.0492886
0.0507287
0.052155
0.0535661
0.054961
0.0563382
0.0576967
0.0590351
0.0603523
0.0616472
0.0629185
0.0641651
0.0653858
0.0665797
0.0677455
0.0688823
0.069989
0.0710645
0.072108
0.0731184
0.0740948
0.0750364
0.0759423
0.0768117
0.0776438
0.0784379
0.0791932
0.0799091
0.0805851
0.0812205
0.0818148
0.0823675
0.0828783
0.0833468
0.0837726
0.0841555
0.0844954
0.0847921
0.0850455
0.0852556
0.0854225
0.0855463
0.0856272
0.0856656
0.0856617
0.085616
0.0855289
0.0854012
0.0852334
0.0850264
0.0847809
0.084498
0.0841787
0.083824
0.0834353
0.0830139
0.0825613
0.0820789
0.0815686
0.081032
0.0804712
0.079888
0.0792848
0.0786637
0.0780273
0.0773781
0.0767188
0.0760522
0.0753814
0.0747096
0.07404
0.073376
0.0727214
0.0720798
0.0714551
0.0708513
0.0702725
0.069723
0.069207
0.0687287
0.0682924
0.0679023
0.0675624
0.0672764
0.067048
0.0668807
0.0667763
0.0667377
0.0667849
0.066934
0.000478081
0.000597946
0.000621157
0.000562076
0.000439425
0.000256701
1.67183e-05
-0.00027674
-0.000619802
-0.00100856
-0.00143902
-0.00190712
-0.00240873
-0.00293977
-0.00349618
-0.00407398
-0.00466927
-0.00527827
-0.00589735
-0.00652297
-0.00715179
-0.00778059
-0.00840629
-0.00902598
-0.00963689
-0.0102364
-0.010822
-0.0113915
-0.0119425
-0.012473
-0.0129812
-0.0134651
-0.0139231
-0.0143536
-0.0147551
-0.0151263
-0.015466
-0.0157729
-0.0160461
-0.0162845
-0.0164873
-0.0166536
-0.0167829
-0.0168744
-0.0169277
-0.0169421
-0.0169174
-0.0168532
-0.0167492
-0.0166053
-0.0164212
-0.0161968
-0.0159323
-0.0156275
-0.0152825
-0.0148976
-0.0144728
-0.0140084
-0.0135047
-0.012962
-0.0123806
-0.011761
-0.0111036
-0.0104088
-0.00967725
-0.00890944
-0.00810597
-0.00726746
-0.00639458
-0.00548801
-0.00454848
-0.00357673
-0.00257354
-0.00153971
-0.000476093
0.000616466
0.00173708
0.00288484
0.00405882
0.00525805
0.00648158
0.00772839
0.00899747
0.0102878
0.0115983
0.0129279
0.0142755
0.01564
0.0170204
0.0184153
0.0198238
0.0212447
0.0226767
0.0241187
0.0255694
0.0270278
0.0284925
0.0299624
0.0314362
0.0329126
0.0343905
0.0358686
0.0373456
0.0388202
0.0402913
0.0417576
0.0432178
0.0446706
0.0461149
0.0475493
0.0489726
0.0503836
0.051781
0.0531637
0.0545303
0.0558797
0.0572108
0.0585222
0.0598129
0.0610817
0.0623275
0.0635491
0.0647454
0.0659154
0.067058
0.0681722
0.069257
0.0703113
0.0713343
0.072325
0.0732825
0.074206
0.0750946
0.0759475
0.076764
0.0775433
0.0782849
0.078988
0.079652
0.0802765
0.080861
0.0814048
0.0819078
0.0823695
0.0827897
0.083168
0.0835044
0.0837987
0.0840509
0.0842609
0.0844289
0.0845549
0.0846393
0.0846822
0.0846841
0.0846453
0.0845665
0.0844481
0.0842908
0.0840954
0.0838628
0.0835939
0.0832896
0.0829512
0.0825799
0.0821769
0.0817437
0.0812818
0.0807929
0.0802787
0.079741
0.0791819
0.0786035
0.0780079
0.0773976
0.0767749
0.0761426
0.0755033
0.07486
0.0742156
0.0735733
0.0729364
0.0723082
0.0716924
0.0710925
0.0705123
0.0699556
0.0694264
0.0689286
0.0684661
0.0680429
0.0676628
0.0673297
0.0670471
0.0668187
0.0666481
0.0665376
0.0664905
0.0665262
0.0666596
0.000858801
0.000949699
0.000952318
0.000878531
0.000744615
0.000554185
0.000310199
1.63646e-05
-0.000323601
-0.000706002
-0.0011271
-0.00158311
-0.00207023
-0.00258467
-0.00312268
-0.00368055
-0.00425467
-0.0048415
-0.00543763
-0.00603975
-0.0066447
-0.00724942
-0.007851
-0.00844668
-0.0090338
-0.00960986
-0.0101725
-0.0107194
-0.0112485
-0.0117579
-0.0122455
-0.0127098
-0.0131489
-0.0135614
-0.0139459
-0.0143011
-0.0146256
-0.0149184
-0.0151785
-0.0154048
-0.0155966
-0.015753
-0.0158734
-0.0159571
-0.0160035
-0.0160123
-0.015983
-0.0159152
-0.0158088
-0.0156634
-0.0154789
-0.0152552
-0.0149923
-0.0146903
-0.0143491
-0.0139688
-0.0135498
-0.0130921
-0.012596
-0.0120618
-0.0114899
-0.0108807
-0.0102345
-0.00955193
-0.00883337
-0.0080794
-0.00729059
-0.00646754
-0.00561088
-0.0047213
-0.00379949
-0.00284618
-0.00186212
-0.000848108
0.000195054
0.00126652
0.00236544
0.00349091
0.00464204
0.00581788
0.00701749
0.00823989
0.00948409
0.0107491
0.0120338
0.0133372
0.0146583
0.015996
0.0173491
0.0187165
0.0200972
0.0214899
0.0228936
0.0243071
0.0257292
0.0271587
0.0285944
0.0300352
0.0314798
0.032927
0.0343756
0.0358244
0.0372721
0.0387176
0.0401595
0.0415967
0.043028
0.0444521
0.0458677
0.0472737
0.0486689
0.050052
0.0514218
0.0527771
0.0541168
0.0554396
0.0567444
0.05803
0.0592954
0.0605392
0.0617606
0.0629583
0.0641313
0.0652785
0.066399
0.0674916
0.0685555
0.0695896
0.070593
0.0715649
0.0725043
0.0734104
0.0742825
0.0751197
0.0759213
0.0766867
0.0774151
0.0781059
0.0787587
0.0793728
0.0799478
0.0804832
0.0809787
0.0814339
0.0818486
0.0822226
0.0825556
0.0828476
0.0830986
0.0833084
0.0834773
0.0836054
0.0836929
0.0837401
0.0837473
0.083715
0.0836437
0.0835339
0.0833864
0.0832019
0.0829811
0.0827252
0.0824349
0.0821116
0.0817562
0.0813702
0.080955
0.0805119
0.0800427
0.0795489
0.0790325
0.0784954
0.0779395
0.077367
0.0767803
0.0761816
0.0755735
0.0749586
0.0743397
0.0737196
0.0731013
0.0724879
0.0718827
0.071289
0.0707102
0.0701497
0.0696113
0.0690984
0.0686148
0.0681642
0.0677502
0.0673764
0.0670464
0.0667636
0.0665317
0.0663541
0.0662335
0.0661732
0.0661905
0.0662984
0.00131969
0.00137364
0.00134968
0.00125656
0.00110722
0.000905205
0.00065349
0.000355594
1.50204e-05
-0.000364762
-0.000780266
-0.00122798
-0.00170439
-0.00220598
-0.00272928
-0.00327084
-0.0038273
-0.00439538
-0.00497186
-0.00555365
-0.00613777
-0.00672134
-0.00730159
-0.0078759
-0.00844175
-0.00899674
-0.00953859
-0.0100652
-0.0105744
-0.0110644
-0.0115334
-0.0119796
-0.0124014
-0.0127974
-0.0131662
-0.0135065
-0.013817
-0.0140968
-0.0143447
-0.0145598
-0.0147414
-0.0148886
-0.0150007
-0.0150771
-0.0151173
-0.0151208
-0.0150872
-0.0150162
-0.0149075
-0.0147608
-0.014576
-0.0143531
-0.0140919
-0.0137925
-0.0134549
-0.0130792
-0.0126656
-0.0122143
-0.0117256
-0.0111996
-0.0106368
-0.0100376
-0.00940224
-0.00873129
-0.0080252
-0.0072845
-0.00650974
-0.00570151
-0.00486041
-0.00398712
-0.0030823
-0.00214667
-0.00118096
-0.000185941
0.000837599
0.00188884
0.00296695
0.00407105
0.00520025
0.00635366
0.00753033
0.00872932
0.00994965
0.0111903
0.0124504
0.0137287
0.0150243
0.0163362
0.0176631
0.0190042
0.0203582
0.021724
0.0231005
0.0244867
0.0258812
0.027283
0.028691
0.0301038
0.0315204
0.0329396
0.0343602
0.0357809
0.0372006
0.0386181
0.0400321
0.0414415
0.0428451
0.0442416
0.0456299
0.0470087
0.0483769
0.0497333
0.0510767
0.0524059
0.0537197
0.0550171
0.0562968
0.0575578
0.0587988
0.0600189
0.061217
0.0623919
0.0635426
0.064668
0.0657673
0.0668394
0.0678833
0.0688981
0.0698828
0.0708368
0.0717589
0.0726486
0.0735049
0.0743271
0.0751145
0.0758665
0.0765824
0.0772616
0.0779035
0.0785077
0.0790737
0.079601
0.0800894
0.0805384
0.0809479
0.0813176
0.0816474
0.0819371
0.0821868
0.0823965
0.0825662
0.0826961
0.0827865
0.0828375
0.0828497
0.0828233
0.082759
0.0826572
0.0825187
0.0823441
0.0821344
0.0818904
0.0816131
0.0813035
0.0809629
0.0805925
0.0801937
0.0797679
0.0793167
0.0788416
0.0783445
0.0778273
0.0772918
0.0767402
0.0761747
0.0755975
0.075011
0.0744177
0.0738204
0.0732216
0.0726243
0.0720313
0.0714457
0.0708707
0.0703094
0.0697652
0.0692413
0.0687411
0.0682681
0.0678257
0.0674173
0.0670462
0.0667158
0.0664294
0.0661904
0.0660021
0.0658673
0.0657894
0.0657825
0.0658567
0.00185312
0.00186393
0.00180841
0.00169179
0.00152318
0.00130592
0.00104295
0.000737504
0.000392846
1.21926e-05
-0.000401224
-0.000844156
-0.00131335
-0.00180556
-0.00231757
-0.0028462
-0.0033883
-0.00394081
-0.00450075
-0.00506521
-0.00563138
-0.00619656
-0.00675813
-0.0073136
-0.00786058
-0.00839678
-0.00892005
-0.00942831
-0.00991961
-0.0103921
-0.0108441
-0.0112738
-0.0116799
-0.0120608
-0.0124152
-0.0127418
-0.0130395
-0.0133072
-0.0135439
-0.0137487
-0.0139208
-0.0140595
-0.0141639
-0.0142336
-0.014268
-0.0142667
-0.0142292
-0.0141552
-0.0140444
-0.0138967
-0.0137117
-0.0134895
-0.01323
-0.0129332
-0.0125991
-0.0122279
-0.0118196
-0.0113745
-0.0108927
-0.0103747
-0.00982064
-0.00923094
-0.00860598
-0.0079462
-0.00725206
-0.00652408
-0.00576278
-0.00496874
-0.00414256
-0.00328487
-0.00239633
-0.00147764
-0.00052951
0.000447307
0.00145204
0.0024839
0.00354206
0.00462568
0.00573388
0.00686578
0.00802047
0.00919702
0.0103945
0.0116119
0.0128482
0.0141025
0.0153737
0.0166608
0.0179628
0.0192785
0.020607
0.021947
0.0232975
0.0246574
0.0260256
0.0274009
0.0287822
0.0301684
0.0315582
0.0329505
0.0343442
0.0357381
0.0371309
0.0385216
0.039909
0.0412917
0.0426688
0.044039
0.0454011
0.0467539
0.0480964
0.0494272
0.0507453
0.0520495
0.0533387
0.0546118
0.0558676
0.057105
0.0583229
0.0595203
0.060696
0.0618491
0.0629786
0.0640833
0.0651624
0.0662148
0.0672397
0.068236
0.0692031
0.0701399
0.0710456
0.0719195
0.0727608
0.0735688
0.0743427
0.0750819
0.0757859
0.0764539
0.0770856
0.0776803
0.0782377
0.0787573
0.0792389
0.079682
0.0800865
0.0804521
0.0807787
0.0810662
0.0813147
0.081524
0.0816944
0.0818259
0.0819188
0.0819734
0.08199
0.0819691
0.0819112
0.0818168
0.0816865
0.0815212
0.0813216
0.0810885
0.0808231
0.0805262
0.0801991
0.079843
0.0794592
0.0790491
0.0786142
0.0781561
0.0776765
0.0771772
0.0766601
0.0761272
0.0755806
0.0750225
0.0744551
0.0738809
0.0733024
0.0727221
0.0721427
0.0715671
0.0709981
0.0704386
0.0698916
0.0693602
0.0688475
0.0683567
0.0678909
0.0674533
0.067047
0.0666753
0.0663412
0.0660478
0.0657984
0.0655959
0.0654432
0.0653435
0.0653073
0.0653415
0.00245144
0.00241439
0.00232325
0.00217956
0.00198822
0.00175237
0.00147486
0.00115864
0.000806668
0.000421907
7.33125e-06
-0.000434067
-0.00089929
-0.00138534
-0.00188925
-0.00240806
-0.00293887
-0.00347882
-0.00402513
-0.00457507
-0.00512602
-0.00567542
-0.00622082
-0.00675985
-0.00729025
-0.00780986
-0.00831661
-0.00880852
-0.00928375
-0.0097405
-0.0101771
-0.010592
-0.0109838
-0.0113509
-0.0116921
-0.0120063
-0.0122922
-0.0125489
-0.0127754
-0.0129707
-0.0131341
-0.0132649
-0.0133623
-0.0134259
-0.013455
-0.0134492
-0.0134081
-0.0133314
-0.0132189
-0.0130702
-0.0128852
-0.0126638
-0.012406
-0.0121117
-0.0117811
-0.0114141
-0.0110109
-0.0105717
-0.0100968
-0.0095863
-0.00904063
-0.0084601
-0.00784508
-0.007196
-0.00651331
-0.00579751
-0.0050491
-0.00426865
-0.00345675
-0.00261399
-0.00174104
-0.000838571
9.27252e-05
0.00105212
0.00203885
0.00305215
0.00409121
0.00515522
0.00624331
0.00735462
0.00848826
0.00964332
0.0108189
0.012014
0.0132277
0.0144589
0.0157068
0.0169702
0.0182482
0.0195397
0.0208437
0.022159
0.0234846
0.0248195
0.0261624
0.0275124
0.0288682
0.0302288
0.031593
0.0329597
0.0343276
0.0356958
0.037063
0.0384281
0.0397899
0.0411472
0.042499
0.043844
0.0451811
0.0465091
0.0478269
0.0491334
0.0504274
0.0517078
0.0529734
0.0542233
0.0554562
0.0566711
0.057867
0.0590427
0.0601972
0.0613296
0.0624387
0.0635237
0.0645835
0.0656172
0.066624
0.0676028
0.0685529
0.0694734
0.0703635
0.0712225
0.0720495
0.0728439
0.0736049
0.074332
0.0750246
0.0756821
0.0763039
0.0768897
0.0774389
0.0779512
0.0784262
0.0788636
0.0792633
0.079625
0.0799485
0.0802339
0.080481
0.08069
0.0808608
0.0809938
0.081089
0.0811468
0.0811675
0.0811515
0.0810994
0.0810117
0.0808891
0.0807321
0.0805417
0.0803187
0.0800641
0.0797788
0.079464
0.0791208
0.0787506
0.0783547
0.0779346
0.0774918
0.0770279
0.0765447
0.076044
0.0755277
0.0749979
0.0744565
0.0739059
0.0733482
0.072786
0.0722215
0.0716574
0.0710963
0.0705409
0.0699939
0.0694581
0.0689365
0.0684319
0.0679472
0.0674854
0.0670495
0.0666423
0.0662668
0.0659259
0.0656224
0.0653593
0.0651394
0.0649654
0.0648403
0.0647708
0.0647602
0.00310722
0.00301879
0.0028888
0.00271499
0.00249791
0.00224048
0.00194548
0.00161552
0.00125328
0.000861429
0.000442705
-1.56044e-07
-0.0004644
-0.000947272
-0.00144603
-0.00195793
-0.00248031
-0.00301049
-0.00354588
-0.00408395
-0.00462223
-0.00515833
-0.00568994
-0.00621482
-0.00673083
-0.00723592
-0.00772814
-0.0082056
-0.00866653
-0.00910924
-0.00953212
-0.00993367
-0.0103125
-0.0106672
-0.0109965
-0.0112994
-0.0115746
-0.0118212
-0.0120383
-0.012225
-0.0123805
-0.0125041
-0.0125951
-0.012653
-0.0126773
-0.0126675
-0.0126232
-0.0125441
-0.01243
-0.0122805
-0.0120956
-0.0118751
-0.011619
-0.0113273
-0.0109999
-0.0106371
-0.0102388
-0.00980539
-0.00933695
-0.00883376
-0.00829613
-0.00772438
-0.00711889
-0.00648006
-0.00580833
-0.00510417
-0.00436811
-0.00360066
-0.00280241
-0.00197395
-0.00111592
-0.000228956
0.000686241
0.00162896
0.00259848
0.00359403
0.00461482
0.00566007
0.00672892
0.00782054
0.00893405
0.0100686
0.0112232
0.0123969
0.0135889
0.0147982
0.0160237
0.0172645
0.0185196
0.0197879
0.0210685
0.0223602
0.023662
0.0249729
0.0262917
0.0276174
0.0289489
0.0302851
0.0316248
0.0329669
0.0343104
0.035654
0.0369967
0.0383373
0.0396747
0.0410078
0.0423354
0.0436563
0.0449695
0.0462739
0.0475682
0.0488515
0.0501225
0.0513801
0.0526234
0.0538511
0.0550622
0.0562558
0.0574306
0.0585856
0.05972
0.0608325
0.0619224
0.0629886
0.0640301
0.065046
0.0660355
0.0669977
0.0679317
0.0688367
0.069712
0.0705567
0.0713701
0.0721516
0.0729004
0.073616
0.0742978
0.0749452
0.0755577
0.0761349
0.0766763
0.0771815
0.0776503
0.0780824
0.0784774
0.0788353
0.0791559
0.0794391
0.0796849
0.0798934
0.0800646
0.0801987
0.080296
0.0803566
0.080381
0.0803695
0.0803227
0.0802411
0.0801253
0.079976
0.079794
0.0795801
0.0793353
0.0790605
0.0787567
0.0784253
0.0780674
0.0776842
0.0772774
0.0768482
0.0763983
0.0759294
0.0754432
0.0749416
0.0744264
0.0738997
0.0733635
0.0728201
0.0722716
0.0717205
0.071169
0.0706197
0.0700752
0.0695379
0.0690105
0.0684958
0.0679963
0.0675149
0.0670542
0.0666169
0.0662059
0.0658237
0.0654731
0.0651566
0.064877
0.0646367
0.0644384
0.0642849
0.0641788
0.0641197
0.00381344
0.00367102
0.00349964
0.00329322
0.00304781
0.00276618
0.00245105
0.00210469
0.00172947
0.00132782
0.000902204
0.000455128
-1.08916e-05
-0.000493329
-0.000989657
-0.00149736
-0.00201395
-0.00253697
-0.003064
-0.00359268
-0.0041207
-0.00464582
-0.00516588
-0.00567876
-0.00618246
-0.00667502
-0.0071546
-0.00761941
-0.00806776
-0.00849804
-0.00890872
-0.00929835
-0.00966559
-0.0100091
-0.0103278
-0.0106204
-0.010886
-0.0111235
-0.0113321
-0.0115109
-0.0116592
-0.0117763
-0.0118616
-0.0119144
-0.0119343
-0.0119209
-0.0118737
-0.0117925
-0.011677
-0.011527
-0.0113422
-0.0111227
-0.0108683
-0.0105791
-0.010255
-0.00989619
-0.00950272
-0.0090748
-0.00861261
-0.00811641
-0.00758649
-0.00702316
-0.00642679
-0.00579776
-0.00513652
-0.00444351
-0.00371924
-0.00296422
-0.00217903
-0.00136423
-0.000520443
0.00035169
0.0012515
0.0021783
0.00313136
0.00410995
0.00511329
0.0061406
0.00719108
0.00826388
0.00935815
0.010473
0.0116076
0.012761
0.0139323
0.0151205
0.0163247
0.0175439
0.0187771
0.0200233
0.0212815
0.0225506
0.0238298
0.0251177
0.0264135
0.0277161
0.0290243
0.0303372
0.0316535
0.0329723
0.0342923
0.0356125
0.0369318
0.0382491
0.0395633
0.0408732
0.0421777
0.0434758
0.0447663
0.046048
0.04732
0.0485811
0.0498302
0.0510662
0.0522881
0.0534948
0.0546852
0.0558584
0.0570132
0.0581486
0.0592638
0.0603575
0.0614291
0.0624773
0.0635015
0.0645005
0.0654737
0.06642
0.0673387
0.068229
0.0690902
0.0699213
0.0707219
0.0714911
0.0722283
0.072933
0.0736045
0.0742424
0.074846
0.0754151
0.075949
0.0764476
0.0769105
0.0773373
0.0777279
0.0780821
0.0783998
0.0786809
0.0789254
0.0791333
0.0793047
0.0794398
0.0795388
0.079602
0.0796297
0.0796222
0.0795802
0.0795041
0.0793945
0.0792521
0.0790777
0.078872
0.0786359
0.0783705
0.0780768
0.0777558
0.0774089
0.0770371
0.076642
0.076225
0.0757875
0.0753312
0.0748577
0.0743687
0.0738662
0.0733521
0.0728282
0.0722968
0.0717598
0.0712196
0.0706783
0.0701384
0.0696021
0.0690719
0.0685503
0.0680397
0.0675427
0.0670618
0.0665994
0.0661582
0.0657406
0.0653491
0.0649861
0.0646541
0.0643553
0.064092
0.0638669
0.0636824
0.0635371
0.0634267
0.00456349
0.00436521
0.00415051
0.00390943
0.00363353
0.00332544
0.00298783
0.00262269
0.00223207
0.00181814
0.00138315
0.000929339
0.000459015
-2.55165e-05
-0.000521937
-0.00102793
-0.00154121
-0.00205949
-0.00258053
-0.00310214
-0.00362216
-0.00413849
-0.00464911
-0.00515204
-0.00564538
-0.0061273
-0.00659604
-0.00704992
-0.00748733
-0.00790673
-0.00830668
-0.00868579
-0.00904277
-0.00937639
-0.00968549
-0.009969
-0.0102259
-0.0104553
-0.0106562
-0.010828
-0.0109698
-0.011081
-0.011161
-0.0112093
-0.0112253
-0.0112087
-0.011159
-0.011076
-0.0109593
-0.0108089
-0.0106245
-0.010406
-0.0101534
-0.00986658
-0.00954569
-0.00919076
-0.00880192
-0.00837931
-0.00792314
-0.00743365
-0.00691111
-0.00635584
-0.00576819
-0.00514855
-0.00449733
-0.00381497
-0.00310197
-0.00235883
-0.00158609
-0.000784339
4.58397e-05
0.000903817
0.00178894
0.00270054
0.0036379
0.00460029
0.00558698
0.00659718
0.00763011
0.00868495
0.00976087
0.010857
0.0119725
0.0131064
0.014258
0.0154261
0.0166099
0.0178085
0.0190208
0.0202459
0.0214828
0.0227304
0.0239879
0.025254
0.0265279
0.0278084
0.0290945
0.0303851
0.0316791
0.0329756
0.0342733
0.0355712
0.0368683
0.0381634
0.0394554
0.0407432
0.0420258
0.0433021
0.0445709
0.0458312
0.0470819
0.048322
0.0495502
0.0507657
0.0519673
0.053154
0.0543247
0.0554785
0.0566143
0.0577311
0.058828
0.059904
0.0609581
0.0619894
0.062997
0.0639801
0.0649377
0.065869
0.0667733
0.0676496
0.0684974
0.0693157
0.0701041
0.0708617
0.0715879
0.0722822
0.072944
0.0735728
0.074168
0.0747293
0.0752563
0.0757485
0.0762057
0.0766275
0.0770139
0.0773646
0.0776795
0.0779585
0.0782016
0.0784088
0.0785803
0.0787162
0.0788167
0.0788821
0.0789126
0.0789088
0.078871
0.0787998
0.0786958
0.0785595
0.0783919
0.0781935
0.0779654
0.0777084
0.0774235
0.0771119
0.0767746
0.076413
0.0760283
0.0756218
0.0751951
0.0747497
0.0742872
0.0738092
0.0733175
0.0728139
0.0723004
0.0717788
0.0712511
0.0707196
0.0701862
0.0696532
0.0691228
0.0685973
0.0680789
0.06757
0.067073
0.06659
0.0661236
0.0656759