/*--------------------------------*- C++ -*----------------------------------*\
  =========                 |
  \\      /  F ield         | OpenFOAM: The Open Source CFD Toolbox
   \\    /   O peration     | Website:  https://openfoam.org
    \\  /    A nd           | Version:  7
     \\/     M anipulation  |
\*---------------------------------------------------------------------------*/
FoamFile
{
    version     2.0;
    format      ascii;
    class       volScalarField;
    location    "10";
    object      p;
}
// * * * * * * * * * * * * * * * * * * * * * * * * * * * * * * * * * * * * * //

dimensions      [1 -1 -2 0 0 0 0];

internalField   nonuniform List<scalar> 
2413
(
1.52756
1.52159
1.516
1.51086
1.50608
1.50137
1.49654
1.49218
1.48806
1.48399
1.4805
1.47711
1.47305
1.46903
1.46613
1.46312
1.45955
1.45769
1.45526
1.45235
1.44912
1.23293
1.23184
1.23037
1.22943
1.22795
1.22579
1.22327
1.22048
1.21768
1.21496
1.21254
1.21083
1.21004
1.20959
1.20918
1.20941
1.20993
1.21011
1.21139
1.21525
1.22114
1.22901
1.23887
1.24404
1.24459
1.24433
1.24341
1.24157
1.23869
1.23495
1.23095
1.2269
1.22293
1.21916
1.21584
1.2127
1.2098
1.20693
1.20415
1.20139
1.19853
1.19598
1.19341
1.19092
1.18863
1.18641
1.18427
1.18222
1.18019
1.17821
1.17652
1.17576
1.17563
1.17566
1.17701
1.18208
1.19522
1.22768
1.28158
1.33202
1.35184
1.3543
1.35496
1.35482
1.35561
1.35817
1.36233
1.36891
1.37628
1.38376
1.38758
1.38833
1.38845
1.38833
1.38781
1.38667
1.38488
1.3824
1.37931
1.3759
1.37207
1.36814
1.36395
1.36035
1.3579
1.35802
1.36176
1.3757
1.40789
1.46688
1.52895
1.59639
1.62944
1.64968
1.65584
1.6543
1.64973
1.64183
1.63092
1.62001
1.60991
1.6007
1.59181
1.58329
1.57523
1.56756
1.56019
1.55303
1.54593
1.53901
1.53245
1.52631
1.52056
1.51501
1.50939
1.50374
1.4984
1.49348
1.48889
1.48438
1.48013
1.476
1.47152
1.46697
1.46319
1.45947
1.45545
1.4519
1.44897
1.44527
1.44223
1.43799
1.2255
1.22462
1.22318
1.2225
1.22139
1.21953
1.21729
1.2147
1.21181
1.20891
1.2062
1.20397
1.20237
1.20135
1.20084
1.20068
1.20107
1.20138
1.20168
1.20376
1.20827
1.21465
1.22339
1.23261
1.23594
1.23611
1.23559
1.23438
1.23226
1.22909
1.22532
1.22137
1.21747
1.21372
1.21033
1.20718
1.20415
1.20122
1.19835
1.19559
1.19276
1.19017
1.18764
1.1851
1.18279
1.18059
1.17845
1.17639
1.17438
1.17251
1.17075
1.16958
1.16934
1.16937
1.16986
1.1731
1.18278
1.20686
1.25547
1.31158
1.34553
1.3528
1.35414
1.35498
1.35599
1.35867
1.36414
1.37112
1.37865
1.38504
1.38724
1.38775
1.38783
1.38763
1.38686
1.38538
1.38325
1.38055
1.37742
1.37398
1.37036
1.36645
1.3624
1.35828
1.35452
1.35181
1.3495
1.35016
1.35564
1.37608
1.41244
1.47395
1.53724
1.58697
1.62635
1.63764
1.63886
1.63787
1.63284
1.62372
1.61421
1.6046
1.59494
1.58588
1.57764
1.56995
1.56245
1.55509
1.54773
1.54061
1.53391
1.52734
1.52083
1.51441
1.50805
1.50175
1.49576
1.49032
1.48542
1.48103
1.47682
1.47234
1.46749
1.4629
1.45857
1.45402
1.44966
1.44591
1.44217
1.43811
1.43481
1.42944
1.21738
1.21662
1.21532
1.21485
1.21404
1.21251
1.21057
1.20832
1.20555
1.20252
1.19958
1.19688
1.19463
1.19294
1.19203
1.19148
1.19152
1.19208
1.1922
1.19307
1.19604
1.20093
1.20798
1.21711
1.2252
1.22749
1.22741
1.22681
1.22549
1.22305
1.21974
1.21601
1.21219
1.20843
1.20488
1.20157
1.19836
1.19538
1.1925
1.18972
1.18693
1.18434
1.18188
1.17924
1.17685
1.17464
1.17248
1.1705
1.16865
1.16681
1.16498
1.16347
1.16296
1.16298
1.16314
1.1649
1.17158
1.18914
1.22861
1.28762
1.33295
1.34979
1.35304
1.35454
1.35624
1.35989
1.36648
1.37391
1.38069
1.38444
1.3856
1.38589
1.38585
1.38556
1.38466
1.38305
1.38073
1.37802
1.37501
1.3717
1.36836
1.36466
1.36093
1.35678
1.35282
1.34871
1.34517
1.34227
1.34124
1.3431
1.35134
1.37494
1.41974
1.47429
1.5401
1.58084
1.60931
1.62521
1.62709
1.62574
1.6205
1.6116
1.60154
1.59216
1.58333
1.57478
1.5661
1.55753
1.54911
1.54106
1.53383
1.52725
1.52091
1.51452
1.50791
1.50132
1.49503
1.48932
1.48384
1.47871
1.47369
1.46855
1.46339
1.45875
1.4542
1.44972
1.4455
1.44131
1.43697
1.43254
1.42906
1.42311
1.20837
1.20766
1.20648
1.20613
1.20553
1.20429
1.20271
1.2008
1.19833
1.19535
1.19229
1.18936
1.18667
1.18443
1.18293
1.18215
1.18176
1.18225
1.18273
1.18292
1.18469
1.18812
1.1933
1.20117
1.21038
1.21719
1.21901
1.21899
1.21839
1.21676
1.21403
1.2106
1.20693
1.20317
1.1994
1.19598
1.19264
1.18956
1.18668
1.18396
1.1813
1.17867
1.17608
1.1734
1.17084
1.16846
1.16624
1.1643
1.16243
1.16061
1.15888
1.15709
1.15634
1.15633
1.15657
1.15751
1.16171
1.1745
1.20423
1.25942
1.3156
1.34411
1.35211
1.35452
1.35686
1.36158
1.36882
1.37644
1.38238
1.38421
1.38457
1.38452
1.38419
1.38362
1.38255
1.38089
1.37851
1.37578
1.37264
1.36916
1.36562
1.36196
1.35825
1.35435
1.35049
1.34637
1.34253
1.33859
1.33553
1.33296
1.33247
1.33499
1.34688
1.37209
1.42138
1.47704
1.53319
1.57556
1.59489
1.60824
1.60944
1.60753
1.60339
1.5965
1.58809
1.57958
1.57061
1.56142
1.55241
1.544
1.53624
1.52885
1.52154
1.51426
1.50701
1.5
1.49345
1.48764
1.48219
1.47692
1.47143
1.46602
1.46074
1.45583
1.45091
1.44609
1.44141
1.4368
1.43236
1.42814
1.42468
1.41833
1.19835
1.19754
1.19628
1.19607
1.19567
1.19457
1.19335
1.19192
1.18993
1.18737
1.18446
1.1815
1.17862
1.176
1.17388
1.17271
1.17207
1.1721
1.17286
1.17299
1.17361
1.17627
1.17969
1.18555
1.19437
1.20291
1.20894
1.21099
1.21092
1.20998
1.20791
1.2049
1.20138
1.19763
1.19365
1.19001
1.18651
1.18343
1.18064
1.178
1.17541
1.1727
1.17002
1.16735
1.16467
1.16209
1.15982
1.15785
1.15609
1.15437
1.1527
1.15081
1.14987
1.14981
1.14991
1.15055
1.15302
1.16163
1.18383
1.22988
1.29276
1.33395
1.3498
1.35476
1.35849
1.36407
1.37092
1.37783
1.38205
1.38311
1.3833
1.383
1.38238
1.38152
1.3802
1.37838
1.37591
1.37316
1.36995
1.36642
1.3627
1.35909
1.35539
1.35182
1.34808
1.34422
1.34045
1.3364
1.33259
1.32865
1.32577
1.32342
1.32387
1.32762
1.34244
1.37267
1.41822
1.47705
1.52429
1.56607
1.58653
1.59147
1.59309
1.59134
1.58583
1.57809
1.56979
1.56103
1.55249
1.5449
1.53785
1.53046
1.5226
1.51471
1.50723
1.50025
1.49349
1.48697
1.48057
1.47439
1.46818
1.4624
1.45719
1.45247
1.44784
1.44312
1.43807
1.43307
1.42851
1.42431
1.42083
1.41433
1.18741
1.1863
1.18502
1.1849
1.18461
1.18338
1.18258
1.18183
1.18042
1.17839
1.17595
1.17324
1.17045
1.16768
1.1652
1.16352
1.16265
1.16228
1.16278
1.16329
1.16329
1.16455
1.16736
1.17091
1.1779
1.18678
1.19488
1.20082
1.20235
1.20203
1.20072
1.19834
1.19527
1.19172
1.18771
1.18389
1.18038
1.1772
1.1744
1.17172
1.16914
1.16644
1.16371
1.1611
1.15849
1.1559
1.15342
1.15143
1.1498
1.14808
1.14646
1.14481
1.14372
1.14326
1.14315
1.14384
1.14547
1.15089
1.1671
1.2031
1.26376
1.31812
1.34571
1.35608
1.36205
1.36782
1.37327
1.37867
1.38149
1.38221
1.38231
1.38187
1.38106
1.37981
1.37805
1.37584
1.37315
1.3703
1.36707
1.36354
1.35979
1.35617
1.35253
1.34903
1.34529
1.34157
1.33786
1.33408
1.3301
1.32611
1.32247
1.31907
1.31635
1.31404
1.31489
1.32051
1.33573
1.37033
1.41454
1.47082
1.51723
1.5483
1.57266
1.58137
1.5814
1.57789
1.57159
1.56366
1.55577
1.54786
1.53946
1.53069
1.52204
1.51374
1.50617
1.49949
1.49317
1.48655
1.47965
1.47286
1.46628
1.46012
1.45428
1.4489
1.44364
1.43837
1.4333
1.4289
1.42501
1.42097
1.41723
1.41035
1.17572
1.17435
1.1731
1.17308
1.1728
1.17153
1.17118
1.17099
1.16996
1.16847
1.16676
1.16462
1.16216
1.15953
1.15693
1.15477
1.15338
1.15262
1.15258
1.15317
1.15319
1.15328
1.15527
1.15774
1.16193
1.16976
1.17802
1.18624
1.19197
1.19306
1.19257
1.19104
1.18851
1.18525
1.18143
1.17757
1.17392
1.17061
1.1679
1.1653
1.16277
1.16011
1.15753
1.15515
1.15271
1.15007
1.14745
1.14559
1.14398
1.14237
1.14078
1.13928
1.13801
1.13716
1.13671
1.13735
1.13855
1.14178
1.15264
1.17997
1.23277
1.29712
1.33845
1.35642
1.36579
1.37118
1.37506
1.37876
1.38039
1.38088
1.38073
1.3799
1.37889
1.37749
1.37562
1.37331
1.37058
1.36759
1.36416
1.36033
1.3565
1.35297
1.34961
1.34627
1.34263
1.33899
1.33536
1.33166
1.32763
1.32377
1.31998
1.31643
1.31259
1.30924
1.30675
1.30566
1.30671
1.31361
1.33063
1.36312
1.41206
1.45859
1.50984
1.53624
1.55365
1.56326
1.56316
1.56181
1.55792
1.55119
1.54209
1.53257
1.52383
1.51577
1.50823
1.501
1.49366
1.48587
1.47809
1.47072
1.46404
1.45792
1.45207
1.4463
1.44043
1.43466
1.4292
1.42451
1.42038
1.41617
1.4124
1.40586
1.16381
1.16227
1.16112
1.16114
1.16082
1.15969
1.15959
1.1595
1.15855
1.15788
1.15697
1.15547
1.15348
1.15119
1.14861
1.14623
1.14451
1.14324
1.1427
1.14291
1.14319
1.14292
1.14349
1.14538
1.14771
1.15284
1.16032
1.16849
1.17764
1.18262
1.18325
1.18272
1.18118
1.17862
1.17526
1.17152
1.16785
1.16447
1.16169
1.15911
1.15663
1.15409
1.1517
1.14948
1.14715
1.14456
1.14191
1.13998
1.13836
1.13681
1.1351
1.13354
1.13232
1.13116
1.13044
1.13096
1.13206
1.13389
1.14083
1.16064
1.20316
1.26891
1.3267
1.35695
1.36951
1.37352
1.3758
1.37808
1.37928
1.37975
1.37951
1.37866
1.37743
1.37565
1.37336
1.3707
1.36777
1.36466
1.36128
1.35751
1.35378
1.35021
1.34677
1.3433
1.33969
1.33605
1.33251
1.32896
1.32512
1.32152
1.31797
1.31438
1.31051
1.30662
1.30282
1.30002
1.29715
1.29666
1.29835
1.30571
1.32595
1.35659
1.40421
1.45174
1.49252
1.52443
1.53492
1.54432
1.54514
1.54215
1.53677
1.53016
1.523
1.51628
1.50935
1.50184
1.49385
1.48573
1.47806
1.47067
1.46365
1.45671
1.44974
1.44288
1.43626
1.43036
1.42549
1.42086
1.41625
1.41129
1.40699
1.40047
1.15202
1.15038
1.14929
1.1494
1.14908
1.148
1.14798
1.148
1.14716
1.147
1.14672
1.14566
1.14413
1.14227
1.14003
1.13774
1.13581
1.13419
1.13289
1.13254
1.13283
1.13279
1.13245
1.13361
1.1351
1.13795
1.14359
1.15076
1.15993
1.16889
1.17348
1.17405
1.17346
1.17177
1.16912
1.16589
1.16235
1.15886
1.156
1.15342
1.1509
1.14837
1.14612
1.14398
1.1417
1.13922
1.13674
1.13479
1.13316
1.13158
1.12986
1.12826
1.12705
1.12564
1.12459
1.1248
1.1258
1.12674
1.13078
1.1441
1.17653
1.23859
1.30938
1.35538
1.37164
1.37457
1.37585
1.37727
1.37838
1.37873
1.37824
1.37709
1.37559
1.37351
1.37099
1.36827
1.3653
1.36196
1.35819
1.35403
1.35039
1.34707
1.34379
1.34058
1.33729
1.33376
1.33012
1.32628
1.32224
1.31864
1.31527
1.31184
1.30814
1.30412
1.30036
1.2968
1.29375
1.29119
1.28912
1.2886
1.29066
1.29818
1.31709
1.3503
1.39118
1.4392
1.47534
1.5073
1.52441
1.52685
1.52555
1.52382
1.51925
1.51312
1.50621
1.4983
1.49002
1.48238
1.47601
1.46953
1.46247
1.45502
1.44768
1.44064
1.43395
1.42785
1.42214
1.41643
1.41084
1.40549
1.40161
1.39543
1.14101
1.13918
1.13806
1.13801
1.13745
1.1365
1.13645
1.13667
1.13598
1.13581
1.13599
1.13506
1.13398
1.1329
1.1312
1.12915
1.12722
1.12549
1.12385
1.12279
1.12276
1.12298
1.12258
1.12277
1.12391
1.12521
1.1288
1.13427
1.14213
1.1521
1.16034
1.16495
1.16556
1.16489
1.1632
1.16084
1.15783
1.15447
1.15137
1.14851
1.1458
1.14323
1.14093
1.13877
1.13655
1.13418
1.13177
1.12973
1.12804
1.12638
1.12462
1.12301
1.12178
1.12038
1.11892
1.11867
1.11953
1.12021
1.12245
1.13118
1.1546
1.20749
1.28549
1.34908
1.37231
1.37543
1.37616
1.37702
1.37794
1.37797
1.37728
1.37616
1.37451
1.372
1.36892
1.36568
1.36228
1.35869
1.35486
1.35106
1.34793
1.34468
1.3411
1.33777
1.33449
1.33092
1.32725
1.3234
1.3196
1.31626
1.31299
1.30951
1.30581
1.30182
1.29797
1.29464
1.29127
1.28791
1.28488
1.28221
1.28053
1.27992
1.28202
1.2904
1.30739
1.33987
1.37794
1.42285
1.45925
1.4823
1.50176
1.51202
1.51229
1.50985
1.50457
1.4978
1.49017
1.48307
1.47585
1.468
1.45969
1.45165
1.44442
1.43783
1.43154
1.42526
1.41888
1.41257
1.4067
1.40116
1.39682
1.38981
1.13089
1.12884
1.12784
1.12751
1.12657
1.12566
1.12565
1.12595
1.12529
1.12511
1.12537
1.12448
1.12383
1.12345
1.12223
1.12046
1.11877
1.11706
1.11537
1.11384
1.1132
1.1135
1.11354
1.11306
1.11394
1.11476
1.11654
1.12063
1.12623
1.13513
1.14453
1.15265
1.15742
1.15794
1.15706
1.15578
1.15375
1.15075
1.14751
1.14443
1.14145
1.13859
1.13616
1.13402
1.13174
1.12944
1.12719
1.12525
1.12354
1.12178
1.1201
1.11848
1.11696
1.11547
1.11375
1.11296
1.11345
1.11406
1.11513
1.12047
1.13651
1.17823
1.25632
1.33549
1.37104
1.37563
1.37627
1.37709
1.37772
1.37753
1.37672
1.37539
1.3733
1.37026
1.36675
1.36317
1.35949
1.35572
1.35181
1.34822
1.34534
1.34206
1.33833
1.33521
1.33223
1.32881
1.32511
1.32104
1.31702
1.31354
1.31005
1.30645
1.30284
1.29896
1.29535
1.29219
1.28889
1.28567
1.28237
1.27945
1.27643
1.27367
1.27106
1.26984
1.27164
1.2792
1.29565
1.32329
1.36332
1.40001
1.44111
1.4646
1.47947
1.49008
1.49203
1.49128
1.48955
1.48497
1.4777
1.46889
1.46041
1.45256
1.44526
1.43792
1.43032
1.42269
1.41533
1.40881
1.40298
1.39741
1.39269
1.38479
1.12211
1.11999
1.1191
1.11829
1.11688
1.11583
1.11582
1.11592
1.11519
1.11504
1.1154
1.11464
1.11427
1.11441
1.11344
1.1119
1.11091
1.10958
1.10791
1.10633
1.10503
1.1049
1.10516
1.10473
1.10484
1.10575
1.10624
1.10868
1.11279
1.11893
1.12819
1.13693
1.14508
1.15011
1.15098
1.15089
1.14985
1.1475
1.14438
1.14112
1.13786
1.13485
1.13225
1.12993
1.12754
1.12527
1.12299
1.12094
1.11899
1.11705
1.11532
1.11364
1.11198
1.11049
1.10899
1.10764
1.10772
1.10833
1.10877
1.1119
1.12252
1.15304
1.22327
1.3139
1.36792
1.37619
1.37687
1.3774
1.37749
1.37706
1.37609
1.37449
1.37194
1.36843
1.36453
1.36061
1.3567
1.35283
1.34897
1.34561
1.34266
1.33913
1.33531
1.33226
1.32929
1.32585
1.32208
1.31794
1.31401
1.31066
1.30712
1.30349
1.29996
1.29627
1.29288
1.28979
1.28654
1.28327
1.27993
1.27682
1.2734
1.26986
1.26598
1.26274
1.25993
1.25857
1.26025
1.26619
1.28251
1.30715
1.3435
1.38305
1.4158
1.44662
1.45726
1.46656
1.47345
1.47241
1.46899
1.46447
1.45979
1.45432
1.44702
1.43892
1.43103
1.4233
1.41592
1.40923
1.40258
1.39558
1.38944
1.38036
1.11444
1.11232
1.11159
1.11072
1.109
1.10761
1.10745
1.10715
1.10641
1.10643
1.1068
1.10605
1.10584
1.10605
1.10508
1.10416
1.10384
1.10258
1.10085
1.09959
1.09805
1.09718
1.09739
1.09732
1.09677
1.09755
1.09806
1.09885
1.10186
1.10595
1.11258
1.12123
1.12983
1.13847
1.14347
1.14498
1.14489
1.14347
1.14088
1.13774
1.1345
1.13149
1.12873
1.12629
1.1238
1.12135
1.11907
1.11686
1.1147
1.11271
1.1109
1.10912
1.10733
1.10585
1.10446
1.10277
1.10222
1.10258
1.10272
1.1043
1.11097
1.13182
1.19017
1.28497
1.35947
1.37627
1.37717
1.37737
1.37717
1.37644
1.37515
1.3731
1.37013
1.36633
1.36224
1.35814
1.35411
1.35017
1.3463
1.34303
1.33996
1.33621
1.33248
1.32962
1.32664
1.32316
1.31931
1.31514
1.31133
1.30802
1.30437
1.30066
1.29714
1.29352
1.29015
1.28696
1.28356
1.28022
1.27693
1.27386
1.27044
1.26672
1.26273
1.25883
1.25493
1.25148
1.24868
1.24694
1.24823
1.25391
1.26698
1.29206
1.32214
1.36029
1.39365
1.42076
1.44429
1.44919
1.45078
1.45185
1.44999
1.44562
1.43984
1.43323
1.4278
1.42268
1.41686
1.41024
1.40298
1.39551
1.38924
1.37972
1.10761
1.10597
1.10536
1.10419
1.10221
1.10092
1.10033
1.09948
1.09884
1.09903
1.09923
1.09829
1.09818
1.09849
1.09748
1.0971
1.09701
1.09565
1.09444
1.09357
1.09215
1.09074
1.0906
1.09057
1.08994
1.09008
1.09085
1.09089
1.09229
1.09522
1.0993
1.10598
1.1141
1.12319
1.13182
1.13716
1.13869
1.13825
1.13663
1.13411
1.13122
1.12826
1.12528
1.1225
1.11986
1.11731
1.11499
1.11257
1.11014
1.10796
1.10606
1.10413
1.10224
1.10092
1.09958
1.09797
1.09688
1.09688
1.09697
1.09764
1.1018
1.11567
1.15981
1.25026
1.34332
1.37546
1.37731
1.37722
1.37682
1.37592
1.37423
1.37167
1.36838
1.36453
1.36041
1.35612
1.35181
1.34765
1.34374
1.34035
1.33692
1.33289
1.32926
1.32646
1.3234
1.31985
1.31601
1.31203
1.30853
1.30526
1.30153
1.29775
1.29419
1.2906
1.28719
1.28384
1.28029
1.27686
1.27359
1.27053
1.26707
1.26333
1.25938
1.2554
1.25142
1.2473
1.24346
1.23982
1.23717
1.2352
1.23571
1.24007
1.25168
1.27268
1.30372
1.33629
1.37064
1.3952
1.41619
1.43356
1.43663
1.43446
1.43126
1.42775
1.42291
1.41748
1.41099
1.40442
1.39858
1.39333
1.38866
1.37944
1.10116
1.10016
1.09965
1.09797
1.09599
1.09525
1.09437
1.09297
1.09245
1.09267
1.09221
1.09127
1.09147
1.09159
1.09059
1.09045
1.09039
1.08904
1.08821
1.08778
1.08648
1.08485
1.08448
1.08433
1.08372
1.08325
1.08401
1.08443
1.08472
1.08665
1.08904
1.09318
1.09936
1.10737
1.11641
1.12501
1.12977
1.131
1.13078
1.12946
1.12727
1.12457
1.12158
1.11861
1.11589
1.11329
1.11083
1.10833
1.10585
1.10374
1.10179
1.09969
1.09775
1.0963
1.09486
1.09324
1.09175
1.09104
1.09104
1.09147
1.0939
1.10275
1.13356
1.21258
1.31668
1.37143
1.3767
1.37662
1.37619
1.37516
1.37313
1.37016
1.36651
1.36251
1.35825
1.35382
1.34946
1.34531
1.34143
1.33787
1.33409
1.32982
1.32627
1.3234
1.32019
1.3166
1.3128
1.30906
1.30581
1.30251
1.29873
1.29491
1.29128
1.28769
1.28417
1.28057
1.27679
1.27314
1.26986
1.2668
1.26332
1.25957
1.25576
1.25208
1.24807
1.24401
1.23973
1.2354
1.23148
1.22778
1.22529
1.22271
1.22328
1.22669
1.23666
1.25434
1.28057
1.31228
1.34412
1.37318
1.3907
1.40513
1.41603
1.41876
1.41757
1.41296
1.40779
1.40236
1.39658
1.39068
1.38502
1.37515
1.09505
1.09449
1.09385
1.09193
1.09057
1.08997
1.08872
1.08712
1.08676
1.08654
1.08533
1.08471
1.08518
1.08494
1.08392
1.08405
1.08392
1.08262
1.08233
1.08224
1.0811
1.07967
1.07917
1.07857
1.07768
1.07696
1.07722
1.07797
1.07769
1.0784
1.07998
1.0821
1.08637
1.09242
1.10024
1.10964
1.1178
1.12242
1.12401
1.12395
1.12301
1.12105
1.11832
1.11526
1.11226
1.10934
1.10665
1.10398
1.10136
1.09931
1.09738
1.09531
1.09336
1.0918
1.09038
1.0887
1.08699
1.08552
1.08505
1.08567
1.08718
1.09259
1.113
1.17595
1.28144
1.36166
1.37536
1.37576
1.3754
1.37423
1.37201
1.36879
1.36499
1.36092
1.35651
1.35185
1.34736
1.34315
1.33914
1.33524
1.33107
1.32658
1.32303
1.32003
1.3167
1.31304
1.30928
1.30594
1.30307
1.29984
1.29609
1.29227
1.28847
1.28463
1.28081
1.27689
1.27289
1.26918
1.26599
1.26286
1.25925
1.25539
1.25174
1.24821
1.24436
1.24041
1.23607
1.23178
1.22739
1.22339
1.21959
1.21593
1.21299
1.21024
1.21036
1.21309
1.22038
1.23565
1.25782
1.28764
1.31772
1.34596
1.3672
1.38119
1.39224
1.3975
1.39898
1.39874
1.39594
1.39062
1.38488
1.37524
1.08832
1.08791
1.08747
1.08569
1.08484
1.08438
1.08284
1.08166
1.08148
1.08068
1.07917
1.07894
1.07913
1.07822
1.07752
1.07776
1.07742
1.07617
1.07597
1.07609
1.07493
1.07374
1.07356
1.07281
1.07141
1.0706
1.07049
1.07109
1.07102
1.07083
1.07204
1.07308
1.07504
1.07951
1.08504
1.09286
1.10273
1.10986
1.11521
1.118
1.11844
1.11761
1.11548
1.11251
1.1093
1.10608
1.10298
1.10011
1.09767
1.09564
1.09369
1.09158
1.0895
1.08772
1.08608
1.08425
1.08226
1.08022
1.07922
1.07966
1.0807
1.08375
1.09663
1.14254
1.2412
1.34213
1.37243
1.37395
1.37381
1.37286
1.37051
1.36715
1.36335
1.35922
1.35467
1.35
1.34564
1.34148
1.33732
1.33309
1.32851
1.32382
1.31998
1.31659
1.31304
1.30938
1.30594
1.30304
1.3002
1.29677
1.29293
1.28903
1.28502
1.28096
1.27696
1.2729
1.26882
1.26517
1.26204
1.25881
1.25511
1.25117
1.24765
1.24421
1.24051
1.23662
1.2323
1.2278
1.22338
1.21919
1.21509
1.21118
1.20728
1.20387
1.20121
1.199
1.19789
1.1993
1.20472
1.21653
1.2363
1.26134
1.29201
1.31916
1.34481
1.35779
1.36742
1.37664
1.38102
1.38019
1.37949
1.37561
1.08118
1.08043
1.08011
1.07911
1.07826
1.07804
1.07689
1.07587
1.0757
1.07467
1.07324
1.07316
1.07293
1.07163
1.07127
1.07145
1.07084
1.06969
1.06961
1.06975
1.0687
1.06789
1.06778
1.06695
1.0654
1.06461
1.06413
1.06412
1.06404
1.06345
1.06386
1.0647
1.06527
1.06795
1.07245
1.07766
1.08594
1.09488
1.10275
1.10923
1.11226
1.11242
1.11128
1.10882
1.10567
1.10239
1.09915
1.09609
1.0934
1.09133
1.08937
1.08734
1.08544
1.08359
1.08179
1.07985
1.0776
1.07529
1.07357
1.0737
1.07451
1.07616
1.0841
1.11532
1.19983
1.31158
1.36659
1.37241
1.37238
1.37167
1.3695
1.36604
1.36193
1.35742
1.35266
1.34802
1.34349
1.33884
1.33415
1.32952
1.32478
1.32024
1.31646
1.31296
1.30938
1.30589
1.30286
1.30018
1.29709
1.29337
1.28947
1.28551
1.28136
1.2772
1.27311
1.26893
1.26485
1.2614
1.25824
1.25482
1.25096
1.24697
1.2434
1.23982
1.23603
1.23203
1.22765
1.22304
1.21889
1.21495
1.21109
1.20719
1.20337
1.19974
1.19635
1.19309
1.19035
1.18802
1.18639
1.18717
1.19056
1.19879
1.21521
1.23724
1.26369
1.29159
1.31607
1.33951
1.34913
1.35357
1.3601
1.36229
1.07265
1.07221
1.07134
1.07158
1.07106
1.07042
1.07031
1.06984
1.0695
1.06875
1.06774
1.06733
1.06668
1.06542
1.06492
1.06476
)
;

boundaryField
{
    inlet
    {
        type            fixedValue;
        value           nonuniform 0();
    }
    outlet
    {
        type            zeroGradient;
    }
    bottom
    {
        type            symmetryPlane;
    }
    top
    {
        type            symmetryPlane;
    }
    obstacle
    {
        type            zeroGradient;
    }
    front
    {
        type            empty;
    }
    back
    {
        type            empty;
    }
    procBoundary31to23
    {
        type            processor;
        value           nonuniform List<scalar> 
133
(
1.52722
1.52216
1.51747
1.51314
1.50937
1.50552
1.50118
1.49701
1.49368
1.48996
1.4859
1.48335
1.48068
1.477
1.47469
1.47311
1.47007
1.46834
1.46723
1.46497
1.46237
1.24009
1.23874
1.23734
1.23605
1.23416
1.23168
1.22893
1.22612
1.22342
1.22096
1.21876
1.21774
1.21763
1.21732
1.21708
1.21773
1.21824
1.21908
1.22204
1.22748
1.23453
1.24373
1.25108
1.25258
1.25252
1.2519
1.25033
1.24776
1.24424
1.24023
1.2362
1.23222
1.22832
1.22466
1.22144
1.21839
1.2155
1.21261
1.20987
1.20709
1.20423
1.20165
1.19904
1.19658
1.19429
1.19209
1.19001
1.18803
1.18602
1.18396
1.18248
1.18195
1.18179
1.18214
1.18452
1.19142
1.20958
1.25061
1.3058
1.3462
1.35432
1.35535
1.35554
1.35497
1.35569
1.35808
1.36119
1.36678
1.37418
1.38176
1.38753
1.38907
1.38918
1.38902
1.38868
1.38795
1.38659
1.38439
1.38129
1.37771
1.37368
1.37002
1.36703
1.3653
1.3666
1.37446
1.40232
1.45131
1.52079
1.59135
1.63499
1.66523
1.67358
1.67352
1.6693
1.65955
1.64731
1.63572
1.62458
1.61402
1.60449
1.59587
1.58763
1.57971
1.57221
1.56512
1.55861
1.5524
1.54607
1.5397
1.53356
1.53356
)
;
    }
    procBoundary31to30
    {
        type            processor;
        value           nonuniform List<scalar> 
18
(
1.23294
1.22538
1.21723
1.20835
1.19856
1.18799
1.17661
1.16488
1.15309
1.14205
1.13207
1.12373
1.11641
1.10983
1.10341
1.09686
1.08975
1.08165
)
;
    }
    procBoundary31to38
    {
        type            processor;
        value           uniform 1.07226;
    }
    procBoundary31to39
    {
        type            processor;
        value           nonuniform List<scalar> 
133
(
1.0639
1.06277
1.0627
1.06274
1.06152
1.06094
1.06125
1.06075
1.05925
1.05868
1.05818
1.05762
1.05745
1.05695
1.05669
1.05723
1.05729
1.05803
1.061
1.06432
1.06953
1.07744
1.08588
1.09363
1.10075
1.10451
1.10481
1.10369
1.10128
1.09841
1.09528
1.09219
1.08956
1.08725
1.08494
1.0827
1.08054
1.07846
1.07645
1.07443
1.07228
1.07009
1.06789
1.06759
1.06811
1.06886
1.07339
1.09345
1.15938
1.27308
1.35447
1.36984
1.37073
1.37024
1.36821
1.36466
1.36034
1.3556
1.35074
1.346
1.3411
1.33596
1.33091
1.326
1.32116
1.3168
1.31312
1.30968
1.30624
1.30296
1.29993
1.29681
1.2931
1.28904
1.28516
1.28126
1.27717
1.27308
1.26905
1.26487
1.26097
1.25768
1.25438
1.25077
1.24682
1.24278
1.23904
1.23521
1.23124
1.22713
1.22269
1.21825
1.21449
1.21094
1.20733
1.20357
1.1999
1.19625
1.19281
1.18939
1.18612
1.1827
1.1795
1.17654
1.17402
1.17349
1.17562
1.18237
1.1949
1.21507
1.23787
1.26477
1.28853
1.30977
1.33038
1.34035
1.06277
1.06301
1.06222
1.06254
1.0629
1.06207
1.06227
1.06267
1.06189
1.0618
1.06158
1.06062
1.06009
1.05921
1.05828
1.0639
1.05789
)
;
    }
}


// ************************************************************************* //
