/*--------------------------------*- C++ -*----------------------------------*\
  =========                 |
  \\      /  F ield         | OpenFOAM: The Open Source CFD Toolbox
   \\    /   O peration     | Website:  https://openfoam.org
    \\  /    A nd           | Version:  7
     \\/     M anipulation  |
\*---------------------------------------------------------------------------*/
FoamFile
{
    version     2.0;
    format      ascii;
    class       surfaceScalarField;
    location    "10";
    object      phi;
}
// * * * * * * * * * * * * * * * * * * * * * * * * * * * * * * * * * * * * * //

dimensions      [0 3 -1 0 0 0 0];

internalField   nonuniform List<scalar> 
710
(
-0.0089442
0.0243139
0.0254959
-0.00881967
0.025558
0.0267988
-0.00868877
0.0267852
0.0280837
-0.0085516
0.0279945
0.0293496
-0.00721753
0.0280215
-0.00840824
0.0291852
0.0305958
-0.0070875
0.0291436
-0.00825881
0.0303565
0.0318213
-0.00695226
0.0302461
-0.00810339
0.0315076
0.0330255
-0.00681191
0.0313282
-0.0079421
0.0326378
0.0342074
-0.00560552
0.0308941
-0.00666655
0.0323892
-0.00777504
0.0337463
-0.00893398
0.0353664
0.0370032
-0.00547702
0.0318905
-0.00651627
0.0334285
-0.00760233
0.0348324
-0.00873749
0.0365015
0.0381923
-0.00534439
0.0328659
-0.00636117
0.0344453
-0.00742408
0.0358953
-0.00853473
0.0376122
0.0393558
-0.00520771
0.0338196
-0.00620136
0.0354389
-0.00724041
0.0369343
-0.00832581
0.0386976
0.0404929
-0.00506708
0.0347511
-0.00603695
0.0364088
-0.00705146
0.0379488
-0.00811089
0.039757
0.041603
-0.00492271
0.0356598
-0.00586819
0.0373543
-0.00685749
0.0389381
-0.00789029
0.0407898
-0.00897254
0.0426852
0.0447379
-0.00388928
0.0354102
-0.00477446
0.036545
-0.00569491
0.0382747
-0.00665835
0.0399016
-0.00766381
0.0417953
-0.00871751
0.0437389
0.0458399
-0.00376143
0.036235
-0.00462255
0.0374061
-0.00551738
0.0391695
-0.00645431
0.0408385
-0.00743177
0.0427727
-0.00845623
0.0447634
0.0469112
-0.00363058
0.0370355
-0.00446708
0.0382426
-0.0053357
0.0400382
-0.0062455
0.0417483
-0.00719434
0.0437216
-0.00818887
0.0457579
-0.00922868
0.047951
0.050263
-0.00349682
0.0378111
-0.00430814
0.0390539
-0.00515002
0.04088
-0.00603209
0.0426304
-0.00695167
0.0446412
-0.00791563
0.0467219
-0.00892327
0.0489587
0.0513194
-0.00336025
0.0385612
-0.00414586
0.0398395
-0.00496044
0.0416946
-0.00581419
0.0434841
-0.00670394
0.0455309
-0.00763668
0.0476546
-0.00861149
0.0499335
0.0523415
-0.00322095
0.0392854
-0.00398033
0.0405989
-0.0047671
0.0424814
-0.00559198
0.044309
-0.0064513
0.0463902
-0.00735221
0.0485555
-0.00829357
0.0508748
-0.00928052
0.0533284
0.0559144
-0.00307902
0.0399833
-0.00381167
0.0413315
-0.00457012
0.0432398
-0.00536558
0.0451045
-0.00619394
0.0472186
-0.00706242
0.049424
-0.0079697
0.0517821
-0.00892091
0.0542796
0.05691
-0.00293454
0.0406545
-0.00363998
0.042037
-0.00436965
0.0439695
-0.00513517
0.04587
-0.00593202
0.0480155
-0.0067675
0.0502595
-0.00764011
0.0526547
-0.00855494
0.0551945
0.0578675
-0.00278763
0.0412984
-0.00346539
0.0427147
-0.00416582
0.0446699
-0.00490088
0.046605
-0.00566573
0.0487803
-0.00646766
0.0510614
-0.00730503
0.0534921
-0.00818287
0.0560723
-0.00910145
0.058786
0.061666
-0.00263837
0.0419148
-0.00328801
0.0433644
-0.00395876
0.0453407
-0.00466289
0.0473092
-0.00539524
0.0495127
-0.00616309
0.0518293
-0.00696468
0.0542937
-0.00780495
0.0569126
-0.00868404
0.0596651
0.0625877
-0.00248687
0.0425033
-0.00310796
0.0439855
-0.00374862
0.0459813
-0.00442135
0.0479819
-0.00512074
0.050212
-0.00585401
0.0525625
-0.00661929
0.055059
-0.00742142
0.0577147
-0.00826044
0.0605042
-0.00913997
0.0634672
0.066572
-0.00177307
-0.00233323
0.0430634
-0.00292536
0.0445776
-0.00353553
0.0465915
-0.00417643
0.0486228
-0.00484242
0.050878
-0.00554062
0.0532607
-0.0062691
0.0557875
-0.00703255
0.0584781
-0.00783094
0.0613026
-0.00866767
0.064304
0.0674474
-0.00954302
-0.00217754
0.0435949
-0.00274033
0.0451404
-0.00331964
0.0471708
-0.00392828
0.0492314
-0.00456046
0.0515102
-0.00522313
0.0539234
-0.00591434
0.0564787
-0.0066386
0.0592024
-0.00739582
0.0620598
-0.00818921
0.0650974
0.0682772
-0.00901907
-0.00201991
0.0440975
-0.002553
0.0456735
-0.0031011
0.0477189
-0.00367709
0.0498074
-0.00427505
0.0521082
-0.00490177
0.0545501
-0.00555525
0.0571322
-0.00623984
0.059887
-0.00695539
0.0627753
-0.00770492
0.0658469
0.0690611
-0.00848876
-0.00186044
-0.00236348
0.0461765
-0.00288005
0.0482355
-0.00342301
0.0503504
-0.0039864
0.0526715
-0.00457675
0.0551405
-0.00519209
0.0577475
-0.00583655
0.0605314
-0.00650995
0.0634487
-0.00721512
0.0665521
0.0697984
-0.00795244
-0.00217192
0.0466492
-0.00265664
0.0487202
-0.00316623
0.05086
-0.00369469
0.0532
-0.00424828
0.0556941
-0.0048251
0.0583243
-0.005429
0.0611353
-0.00605982
0.0640796
-0.00672018
0.0672124
0.0704887
-0.0074105
-0.00197844
0.0470912
-0.00243102
0.0491728
-0.00290691
0.0513359
-0.00340013
0.0536932
-0.00391661
0.0562105
-0.00445453
0.0588623
-0.00501748
0.0616983
-0.0056053
0.0646674
-0.00622043
0.0678276
0.0711316
-0.00686331
-0.00178317
-0.00220335
0.049593
-0.00264523
0.0517777
-0.00310292
0.0541509
-0.00358194
0.0566896
-0.00408064
0.0593609
-0.00460226
0.0622199
-0.00514672
0.0652118
-0.00571622
0.0683971
0.0717266
-0.00631125
-0.00197376
-0.00238137
0.0521854
-0.00280325
0.0545728
-0.00324452
0.0571309
-0.00370368
0.0598201
-0.00418365
0.0626999
-0.0046844
0.0657126
-0.0052079
0.0689206
0.0722734
-0.00575471
-0.00211552
0.0525585
-0.00250133
0.0549586
-0.00290457
0.0575341
-0.00332392
0.0602395
-0.00376193
0.0631379
-0.00421865
0.0661693
-0.00469584
0.0693978
0.0727717
-0.00519408
-0.00184785
-0.00219738
0.0553081
-0.00256233
0.057899
-0.00294163
0.0606187
-0.00333739
0.0635337
-0.00374981
0.0665817
-0.00418039
0.0698283
0.073221
-0.00462975
-0.00189157
-0.00221803
0.0582255
-0.00255706
0.0609578
-0.00291033
0.0638869
-0.00327821
0.0669496
-0.00366191
0.070212
0.0736212
-0.00406211
-0.00187192
-0.00217048
-0.00248106
0.0641975
-0.00280418
0.0672727
-0.00314077
0.0705486
0.073972
-0.00349156
-0.00204986
-0.00232805
-0.00261732
0.0708379
0.0742732
-0.0029185
-0.00209193
-0.00234333
0.0539928
0.0087709
0.0538871
0.00829653
0.0537881
0.00781637
0.0536957
0.00733075
0.0536101
0.00684
0.0535312
0.00634448
0.00584451
0.0533665
0.00888002
0.0532638
0.00839923
0.0531676
0.00791257
0.053078
0.00742037
0.052995
0.00692298
0.0529187
0.00642073
0.0528493
0.00591399
0.0527866
0.00540309
0.0527308
0.00488839
0.052682
0.00437025
0.0526402
0.00384901
0.0526053
0.00332504
0.0525775
0.0027987
0.00227034
0.052746
0.00898594
0.0526464
0.00849882
0.0525532
0.00800574
0.0524666
0.00750705
0.0523864
0.0070031
0.0523129
0.00649423
0.0522461
0.0059808
0.0521861
0.00546317
0.0521328
0.00494168
0.0520863
0.0044167
0.0520467
0.00388859
0.0520141
0.00335771
0.0519883
0.00282443
0.00228912
0.0521309
0.00908847
0.0520347
0.0085951
0.0519447
0.00809569
0.0518612
0.00759059
0.0517841
0.00708017
0.0517136
0.00656477
0.0516496
0.00604475
0.0515923
0.00552046
0.0515417
0.00499227
0.0514979
0.00446055
0.0514608
0.00392566
0.0514305
0.00338797
0.0514071
0.00284785
0.00230568
0.0515206
0.0091874
0.0514278
0.00868784
0.0513414
0.00818216
0.0512612
0.00767073
0.0511875
0.00715391
0.0511202
0.00663205
0.0510594
0.00610552
0.0510052
0.00557467
0.0509576
0.00503988
0.0509167
0.00450151
0.0508824
0.00395994
0.0508548
0.00341554
0.050834
0.00286869
0.00231976
0.0509148
0.00928263
0.0508257
0.00877694
0.0507428
0.00826505
0.0506661
0.00774735
0.0505959
0.00722419
0.050532
0.00669593
0.0504745
0.00616295
0.0504236
0.0056256
0.0503792
0.00508426
0.0503414
0.00453932
0.0503102
0.00399113
0.0502857
0.0034401
0.0502678
0.00288659
0.00233099
0.0503129
0.00937357
0.0502281
0.00886181
0.0501493
0.0083438
0.0500768
0.00781991
0.0500104
0.00729051
0.0499504
0.00675594
0.0498968
0.0062166
0.0498495
0.00567284
0.0498087
0.00512506
0.0497744
0.00457362
0.0497466
0.00401892
0.0497254
0.00346134
0.0497107
0.00290127
0.00233909
0.0497119
0.00946061
0.049631
0.00894272
0.0495562
0.00841854
0.0494877
0.00788843
0.0494255
0.00735275
0.0493695
0.00681187
0.04932
0.00626617
0.0492768
0.00571602
0.04924
0.00516181
0.0492097
0.00460392
0.0491859
0.00404274
0.0491686
0.00347867
0.0491578
0.00291208
0.00234338
0.0491161
0.0490398
0.0489696
0.0489055
0.0488478
0.0487964
0.0487513
0.0487126
0.0486803
0.0486545
0.0486351
0.0486222
0.0486158
)
;

boundaryField
{
    inlet
    {
        type            calculated;
        value           nonuniform 0();
    }
    outlet
    {
        type            calculated;
        value           nonuniform 0();
    }
    cylinder
    {
        type            calculated;
        value           nonuniform 0();
    }
    top
    {
        type            symmetryPlane;
        value           nonuniform 0();
    }
    bottom
    {
        type            symmetryPlane;
        value           nonuniform 0();
    }
    defaultFaces
    {
        type            empty;
        value           nonuniform 0();
    }
    procBoundary18to10
    {
        type            processor;
        value           nonuniform List<scalar> 
15
(
-0.00865876
-0.00819089
-0.00771732
-0.00723837
-0.00675436
-0.00626565
-0.00577255
0.0534593
-0.00534044
-0.00483263
-0.00432141
-0.00380715
-0.00329018
-0.00277088
-0.0022496
)
;
    }
    procBoundary18to11
    {
        type            processor;
        value           nonuniform List<scalar> 
12
(
0.0675509
0.00185016
0.0710797
0.0745246
0.0525567
0.0519696
0.0513906
0.0508199
0.0502566
0.0497026
0.0491535
0.0486159
)
;
    }
    procBoundary18to17
    {
        type            processor;
        value           nonuniform List<scalar> 
31
(
-0.0101478
-0.00992655
-0.00969822
-0.00946296
-0.00922095
-0.0436058
-0.0101047
-0.00981958
-0.00952751
-0.0491728
-0.0103189
-0.00997973
-0.00963354
-0.0548812
-0.0103137
-0.00991655
-0.00951237
-0.0607027
-0.0100647
-0.00960576
-0.0656518
-0.0100602
-0.0541049
-0.0534756
-0.0528519
-0.0522335
-0.0516195
-0.05101
-0.0504039
-0.0497989
-0.0491985
)
;
    }
    procBoundary18to19
    {
        type            processor;
        value           nonuniform List<scalar> 
22
(
0.00121805
0.0413002
0.00164601
0.00151731
0.00138707
0.0445709
0.00169925
0.00153642
0.00137208
0.0475023
0.00158624
0.0499805
0.00174241
0.00150945
0.0528969
0.00157856
0.0556211
0.00158413
0.0585133
0.0612563
0.00178216
0.0644652
)
;
    }
    procBoundary18to25
    {
        type            processor;
        value           nonuniform List<scalar> 10(-0.0241758 -0.0102643 -0.0101226 -0.00997362 -0.00981753 -0.00965441 -0.00948437 -0.00930754 -0.00912403 -0.0357894);
    }
    procBoundary18to26
    {
        type            processor;
        value           nonuniform List<scalar> 
30
(
-0.0230536
0.00768391
0.00757554
0.00746163
0.00734227
-0.0268805
0.00607652
0.00596538
0.00584978
0.0057298
-0.0298774
0.00458881
0.00448064
0.00436899
0.00425395
0.00413558
0.00401406
-0.0345614
0.00304049
0.00293653
0.0028301
0.00272127
0.00261012
0.00249671
0.00238111
0.00226341
0.00214368
0.00202199
0.00189843
-0.0407452
)
;
    }
}


// ************************************************************************* //
