/*--------------------------------*- C++ -*----------------------------------*\
  =========                 |
  \\      /  F ield         | OpenFOAM: The Open Source CFD Toolbox
   \\    /   O peration     | Website:  https://openfoam.org
    \\  /    A nd           | Version:  7
     \\/     M anipulation  |
\*---------------------------------------------------------------------------*/
FoamFile
{
    version     2.0;
    format      ascii;
    class       volScalarField;
    location    "2.9";
    object      p;
}
// * * * * * * * * * * * * * * * * * * * * * * * * * * * * * * * * * * * * * //

dimensions      [1 -1 -2 0 0 0 0];

internalField   nonuniform List<scalar> 
1008
(
1
1
1
1
1
1
1
1
1
1
1
1.07147
6.77323
10.5881
10.7447
10.9437
11.132
11.3117
11.4799
11.6343
11.7731
11.8866
11.9752
12.0388
1
1
1
1
1
1
1
1
1
1
1
1.01363
6.61032
10.5518
10.7206
10.9173
11.1045
11.2801
11.4431
11.591
11.7224
11.8282
11.9088
11.9677
1
1
1
1
1
1
1
1
1
1
1
1.0003
6.26003
10.4931
10.6733
10.8648
11.05
11.2207
11.3781
11.5194
11.6444
11.7452
11.8203
11.8804
1
1
1
1
1
1
1
1
1
1
1
1
5.72715
10.3834
10.6057
10.7911
10.9746
11.1399
11.2915
11.4254
11.5399
11.6254
11.6796
11.7182
1
1
1
1
1
1
1
1
1
1
1
1
5.03889
10.1966
10.5184
10.6936
10.8697
11.0212
11.1554
11.2666
11.3569
11.4262
11.4705
11.5274
1
1
1
1
1
1
1
1
1
1
1
1
4.21921
9.89036
10.41
10.5742
10.7378
10.8712
10.9855
11.0789
11.1521
11.2071
11.2194
11.18
1
1
1
1
1
1
1
1
1
1
1
1
3.31063
9.42198
10.3326
10.479
10.6191
10.7229
10.7974
10.8464
10.8562
10.8106
10.7361
10.6869
1
1
1
1
1
1
1
1
1
1
1
1
2.32067
8.68781
10.2657
10.372
10.4863
10.5604
10.5926
10.5914
10.5293
10.432
10.2868
10.2558
1
1
1
1
1
1
1
1
1
1
1
1
1.38023
7.71895
10.2594
10.2311
10.3078
10.3461
10.3307
10.2773
10.1243
9.84939
9.07045
7.19187
1
1
1
1
1
1
1
1
1
1
1
1
1.01878
6.38526
9.9247
9.91067
10.0061
10.0514
10.017
9.91236
9.6724
9.20015
8.39328
6.33506
1
1
1
1
1
1
1
1
1
1
1
1
0.999973
4.59664
9.44492
9.79912
9.86286
9.83277
9.74721
9.57137
9.2622
8.68986
7.84075
5.90607
1
1
1
1
1
1
1
1
1
1
1
1
0.999991
2.74159
8.60747
9.65629
9.64312
9.60541
9.48703
9.2488
8.87622
8.29869
7.37683
5.7855
1
1
1
1
1
1
1
1
1
1
1
1
0.999998
1.29195
7.43766
9.74692
9.5001
9.36408
9.20288
8.93897
8.53981
7.98603
7.05551
5.84449
1
1
1
1
1
1
1
1
1
1
1
1
1
1.00906
5.5821
9.04278
9.11373
9.07935
8.91913
8.65005
8.27106
7.70473
6.87059
5.91627
1
1
1
1
1
1
1
1
1
1
1
1
1
0.999909
3.05418
8.23886
9.01034
8.93513
8.74694
8.45439
8.07537
7.50729
6.79108
6.01061
1
1
1
1
1
1
1
1
1
1
1
1
1
0.999978
1.31479
6.82574
8.97166
8.78851
8.56699
8.25279
7.88454
7.35512
6.73771
6.07451
1
1
1
1
1
1
1
1
1
1
1
1
1
0.999996
1.00872
4.44583
8.40454
8.54839
8.36527
8.09307
7.72975
7.256
6.71173
6.12885
1
1
1
1
1
1
1
1
1
1
1
1
1
1
0.999958
1.77104
7.39572
8.55129
8.2758
7.98997
7.61279
7.16492
6.6674
6.14691
1
1
1
1
1
1
1
1
1
1
1
1
1
1
0.99999
1.04845
5.23623
8.22477
8.09112
7.84194
7.49546
7.07519
6.62054
6.15537
1
1
1
1
1
1
1
1
1
1
1
1
1
1
0.999998
1.00011
2.20205
7.29688
8.08212
7.77524
7.42754
7.03312
6.62306
6.19483
1
1
1
1
1
1
1
1
1
1
1
1
1
1
1
1
1.10786
5.26329
7.88567
7.66684
7.33796
6.98363
6.60767
6.20393
1
1
1
1
1
1
1
1
1
1
1
1
1
1
1
1
1.0009
2.19236
6.81414
7.65388
7.30771
6.96903
6.60626
6.22432
1
1
1
1
1
1
1
1
1
1
1
1
1
1
1
1
1
1.10449
1.58308
0.377168
0.185865
0.171322
0.201861
0.240388
0.340597
0.478976
0.644732
0.777987
0.896546
1.00347
1.07236
1.12803
1.19324
1.26282
1.30461
1.29686
1.28133
1.26043
1.25857
1.26794
1.29336
1.31755
1.31639
1.31006
1.30672
1.31004
1.31741
1.33186
1.34525
1.34456
1.34038
2.78058
1.42955
0.871309
0.664811
0.578361
0.521062
0.504807
0.501654
0.520187
0.565281
0.632261
0.72082
0.826297
0.924955
1.00011
1.06703
1.14474
1.19996
1.21324
1.22386
1.24121
1.26009
1.28077
1.30364
1.31949
1.3232
1.32109
1.30893
1.30354
1.30818
1.32012
1.33464
1.38344
3.63535
2.41475
1.72112
1.2688
1.00041
0.817887
0.708889
0.648158
0.585838
0.590875
0.629488
0.685102
0.747721
0.802421
0.857645
0.907384
0.97853
1.08494
1.16324
1.21949
1.27118
1.29065
1.29301
1.30188
1.32163
1.33536
1.33892
1.33462
1.31243
1.29287
1.29477
1.35546
1.68325
4.24316
3.12667
2.38762
1.92181
1.51998
1.24003
1.08393
0.970261
0.845835
0.780587
0.759349
0.736393
0.718977
0.718969
0.730568
0.748394
0.792056
0.896205
1.01457
1.09706
1.15823
1.20102
1.22148
1.24525
1.282
1.32693
1.35263
1.35226
1.33567
1.30624
1.33792
1.62887
2.4814
4.71213
3.74162
2.97856
2.46544
2.02901
1.66025
1.46024
1.30195
1.16578
1.04429
0.927056
0.848552
0.805994
0.779249
0.748082
0.737185
0.738654
0.761169
0.819502
0.911167
0.99829
1.07273
1.13718
1.17261
1.21634
1.26518
1.30112
1.31267
1.31981
1.35996
1.64289
2.47981
3.17059
5.00744
4.17658
3.48194
2.92466
2.46778
2.10278
1.84412
1.61136
1.42334
1.31069
1.19953
1.05875
0.988378
0.958017
0.905463
0.837276
0.787124
0.780486
0.788563
0.799422
0.825916
0.871431
0.943051
1.01755
1.07862
1.14253
1.21305
1.24143
1.29721
1.60604
2.41475
3.1587
3.32638
5.24537
4.49164
3.87236
3.35321
2.85127
2.46938
2.19726
1.94774
1.70812
1.54834
1.43365
1.29411
1.15452
1.0908
1.04641
0.992908
0.938407
0.876776
0.817893
0.808974
0.811308
0.827763
0.852763
0.879419
0.905241
0.955233
1.02997
1.11873
1.41585
2.22338
2.98778
3.24013
3.34988
5.40833
4.74378
4.17173
3.67388
3.17671
2.80893
2.52227
2.24406
1.97206
1.79691
1.65719
1.53669
1.40201
1.24647
1.16602
1.14149
1.11029
1.05208
0.961517
0.883633
0.854746
0.850643
0.856975
0.85371
0.848259
0.855698
0.890722
1.13452
1.92467
2.64076
2.89717
3.00516
3.14715
5.53698
4.9458
4.40716
3.93357
3.49158
3.10211
2.78666
2.50225
2.25688
2.0561
1.85222
1.70823
1.61151
1.49825
1.35965
1.24369
1.20753
1.17022
1.11135
1.04719
0.982438
0.916228
0.874446
0.85711
0.85693
0.882092
1.05727
1.68288
2.35641
2.50041
2.53544
2.58113
2.69342
5.61658
5.08453
4.60554
4.15116
3.71211
3.35887
3.04689
2.73175
2.47919
2.28512
2.0887
1.87768
1.75632
1.676
1.5639
1.43835
1.33461
1.26287
1.22348
1.18913
1.14481
1.07065
0.962248
0.924976
0.936857
1.06446
1.58776
2.31705
2.48586
2.4553
2.42026
2.39008
2.38313
5.67864
5.20817
4.76154
4.32961
3.93114
3.57997
3.25257
2.9391
2.7011
2.49541
2.29117
2.07474
1.93814
1.82341
1.7117
1.61494
1.52432
1.42468
1.31494
1.26606
1.24745
1.19702
1.117
1.06467
1.16529
1.67447
2.3645
2.63148
2.58387
2.51192
2.4706
2.4334
2.38509
5.74873
5.3123
4.8921
4.47625
4.10055
3.76718
3.44951
3.14494
2.89332
2.67822
2.47654
2.28498
2.13579
1.992
1.84807
1.7406
1.67016
1.59501
1.49939
1.38453
1.2995
1.26917
1.24666
1.35928
1.92535
2.65244
2.8609
2.78246
2.68635
2.62488
2.58577
2.52968
2.46381
5.79115
5.38894
4.98726
4.60474
4.2648
3.93874
3.6141
3.33543
3.09783
2.86883
2.6397
2.46608
2.31536
2.16531
2.02544
1.89828
1.7753
1.69609
1.63799
1.54357
1.43342
1.38225
1.49698
2.10493
2.97968
3.18407
3.08416
2.94683
2.84442
2.78951
2.72672
2.65694
2.58868
5.84069
5.46807
5.08925
4.73225
4.41228
4.09614
3.77751
3.51466
3.27156
3.04122
2.81284
2.64302
2.47542
2.30756
2.1662
2.06259
1.94567
1.80714
1.70156
1.64208
1.59142
1.72272
2.3871
3.29786
3.53047
3.42987
3.27829
3.11811
3.01044
2.94844
2.88818
2.81896
2.74915
)
;

boundaryField
{
    inlet
    {
        type            fixedValue;
        value           uniform 1;
    }
    outlet
    {
        type            zeroGradient;
    }
    bottom
    {
        type            symmetryPlane;
    }
    top
    {
        type            symmetryPlane;
    }
    obstacle
    {
        type            zeroGradient;
    }
    defaultFaces
    {
        type            empty;
    }
    procBoundary0to1
    {
        type            processor;
        value           nonuniform List<scalar> 
14
(
2.59032
2.40922
2.50081
3.00371
3.27269
3.34732
3.34303
3.18768
2.83537
2.4213
2.31736
2.3758
2.51369
2.66991
)
;
    }
    procBoundary0to2
    {
        type            processor;
        value           nonuniform List<scalar> 
58
(
4.66592
7.4671
7.25068
6.92114
6.57697
6.23071
1
1
1
1
1
1
1
1
1
1
1
1
1
1
1
1
1
4.66592
1.00108
5.88365
5.531
5.17965
4.85519
4.54156
4.22592
3.93518
3.68187
3.43612
3.188
2.98
2.80328
2.63143
2.46009
2.30431
2.18329
2.07971
1.95381
1.82788
1.75907
1.91357
2.61788
3.6308
3.85612
3.72217
3.58009
3.45978
3.31559
3.1796
3.09969
3.03066
2.95737
2.88085
)
;
    }
}


// ************************************************************************* //
