/*--------------------------------*- C++ -*----------------------------------*\
  =========                 |
  \\      /  F ield         | OpenFOAM: The Open Source CFD Toolbox
   \\    /   O peration     | Website:  https://openfoam.org
    \\  /    A nd           | Version:  7
     \\/     M anipulation  |
\*---------------------------------------------------------------------------*/
FoamFile
{
    version     2.0;
    format      ascii;
    class       volVectorField;
    location    "83";
    object      U;
}
// * * * * * * * * * * * * * * * * * * * * * * * * * * * * * * * * * * * * * //

dimensions      [0 1 -1 0 0 0 0];

internalField   nonuniform List<vector> 
41600
(
(-0.0546842 -0.0170102 -2.56894e-20)
(-0.133022 0.0605112 -3.56938e-20)
(-0.202443 0.159887 1.98601e-23)
(-0.231799 0.284148 -2.88965e-20)
(-0.22791 0.399261 3.82266e-20)
(-0.197363 0.454317 -8.1339e-20)
(-0.135823 0.413268 -1.13268e-20)
(-0.0421955 0.262149 8.71732e-20)
(0.0767646 0.0373749 -1.79768e-20)
(0.20075 -0.194075 -2.57668e-20)
(0.306045 -0.379119 -8.64086e-21)
(0.373672 -0.498417 2.16728e-20)
(0.407184 -0.557887 -1.05211e-20)
(0.393579 -0.583438 -9.31871e-21)
(0.329337 -0.596133 -8.43585e-21)
(0.287743 -0.520695 1.96633e-21)
(0.345041 -0.311218 4.46723e-22)
(0.451236 -0.0448031 -1.32026e-20)
(0.562429 0.196851 2.52684e-21)
(0.62873 0.360407 3.13447e-21)
(0.676273 0.444313 -1.32995e-20)
(0.688798 0.480459 1.12379e-20)
(0.640871 0.519041 -3.50085e-21)
(0.564529 0.514863 1.13532e-21)
(0.542238 0.372195 4.76719e-21)
(-0.0531326 -0.00986599 -1.17989e-19)
(-0.129969 0.067504 1.79757e-19)
(-0.197235 0.165219 -3.60643e-20)
(-0.223905 0.285381 1.6187e-20)
(-0.215827 0.396319 -1.1126e-19)
(-0.178538 0.446388 1.2606e-19)
(-0.108623 0.399675 -2.01257e-20)
(-0.00770027 0.242779 -1.1452e-19)
(0.117582 0.0141047 2.82316e-20)
(0.245427 -0.217282 -8.93585e-20)
(0.350361 -0.397354 1.23168e-20)
(0.414559 -0.509123 3.66623e-20)
(0.442859 -0.559496 2.93566e-20)
(0.430685 -0.57233 5.19678e-20)
(0.366855 -0.579231 1.54804e-20)
(0.304247 -0.520202 1.66936e-20)
(0.336014 -0.334277 2.49878e-21)
(0.427539 -0.0781041 3.9264e-20)
(0.529813 0.166532 2.99829e-21)
(0.601808 0.33859 -1.08254e-20)
(0.657219 0.432272 -1.1157e-20)
(0.668233 0.486381 -2.25543e-20)
(0.618304 0.539573 -1.07117e-20)
(0.552037 0.531213 -8.603e-22)
(0.553483 0.364944 -1.0832e-20)
(-0.0516644 -0.00294665 2.63972e-20)
(-0.126474 0.0741975 -6.1209e-20)
(-0.190872 0.17014 -7.92997e-20)
(-0.213935 0.286052 5.02317e-20)
(-0.200761 0.392653 1.03434e-19)
(-0.156169 0.437734 -1.47138e-19)
(-0.0778766 0.385819 8.37884e-20)
(0.0302307 0.223628 5.45277e-21)
(0.162189 -0.00828769 1.27455e-19)
(0.293671 -0.23892 1.56654e-19)
(0.397457 -0.41351 9.61058e-20)
(0.457864 -0.517469 6.22262e-21)
(0.480186 -0.55966 4.68582e-22)
(0.467625 -0.560926 -4.80927e-20)
(0.407695 -0.559174 -4.44691e-20)
(0.328735 -0.513089 -2.17418e-20)
(0.334884 -0.352189 3.02722e-21)
(0.41036 -0.109443 -3.85724e-20)
(0.504118 0.134999 9.08903e-21)
(0.58116 0.313415 -1.20813e-20)
(0.641842 0.418846 1.41777e-20)
(0.648786 0.492138 4.07991e-20)
(0.59814 0.55749 3.13841e-20)
(0.545291 0.54123 -1.11579e-20)
(0.574552 0.353331 -1.2489e-20)
(-0.0502922 0.00371606 -1.96836e-19)
(-0.122585 0.0805527 2.65837e-20)
(-0.183451 0.174614 2.68662e-19)
(-0.202074 0.286142 -1.55576e-19)
(-0.182997 0.388292 9.25846e-20)
(-0.130622 0.428472 3.92175e-19)
(-0.0440185 0.371835 -2.23217e-19)
(0.0713054 0.204878 3.76991e-19)
(0.21033 -0.0296647 1.89718e-19)
(0.345085 -0.25878 1.97546e-19)
(0.446884 -0.427423 4.70109e-20)
(0.502946 -0.523368 -1.48171e-19)
(0.51912 -0.55805 -6.80636e-20)
(0.504015 -0.549489 3.48007e-20)
(0.450037 -0.537111 3.95154e-20)
(0.360493 -0.499686 2.92077e-21)
(0.341813 -0.36431 -1.86179e-20)
(0.400619 -0.138474 2.45811e-20)
(0.486829 0.102589 -6.19427e-20)
(0.56691 0.285761 -3.70151e-20)
(0.629658 0.404818 3.09706e-20)
(0.630691 0.497618 -1.09446e-20)
(0.581124 0.572084 1.28001e-20)
(0.54354 0.544054 2.56363e-20)
(0.603016 0.3371 1.26988e-20)
(-0.0490285 0.0100844 2.7192e-20)
(-0.118357 0.0865293 -3.86686e-19)
(-0.17508 0.178609 3.02455e-19)
(-0.188511 0.285632 -3.31983e-20)
(-0.162817 0.383264 -3.59721e-19)
(-0.102271 0.418717 -3.30131e-19)
(-0.00742914 0.35772 1.04401e-19)
(0.115274 0.18666 -3.33548e-19)
(0.261656 -0.0499042 -2.1383e-19)
(0.399178 -0.276674 -3.18405e-19)
(0.49816 -0.438932 -2.14595e-20)
(0.549135 -0.52681 5.85679e-20)
(0.559375 -0.554406 1.07195e-19)
(0.53982 -0.538036 -5.38091e-20)
(0.492179 -0.514244 5.94782e-20)
(0.398393 -0.480722 -4.35998e-20)
(0.356928 -0.370156 -3.72772e-20)
(0.398577 -0.164893 -1.82176e-20)
(0.478098 0.0699237 -6.25479e-21)
(0.558292 0.256739 4.76956e-20)
(0.619938 0.390795 -5.0559e-20)
(0.614358 0.502544 2.36231e-20)
(0.567981 0.583109 -4.04427e-20)
(0.546061 0.539477 -3.45145e-20)
(0.637629 0.316177 -5.66304e-21)
(-0.0478861 0.016129 9.56005e-20)
(-0.113847 0.0920904 3.5257e-19)
(-0.165866 0.182092 -7.986e-19)
(-0.17344 0.284505 4.20839e-19)
(-0.140505 0.377588 2.19333e-19)
(-0.0714967 0.408554 -6.12882e-20)
(0.0314722 0.343579 3.02691e-19)
(0.161852 0.169023 -4.17353e-20)
(0.315747 -0.0688954 1.06228e-19)
(0.455384 -0.292447 3.2542e-19)
(0.550744 -0.447893 1.6702e-19)
(0.595826 -0.527825 -8.2075e-21)
(0.600415 -0.548601 -5.94373e-20)
(0.575249 -0.526363 1.76048e-19)
(0.532732 -0.491668 -3.06741e-20)
(0.440763 -0.457352 6.39415e-20)
(0.380236 -0.369328 2.45654e-20)
(0.403474 -0.18823 5.36672e-20)
(0.476392 0.0377274 1.58759e-20)
(0.553741 0.227381 -3.87559e-20)
(0.611832 0.377043 3.43878e-20)
(0.600351 0.506497 -4.94044e-20)
(0.559299 0.590739 -1.534e-20)
(0.55375 0.527906 -6.07506e-20)
(0.678991 0.290682 -1.73733e-20)
(-0.0468779 0.0218222 -1.75196e-19)
(-0.109113 0.0972003 -4.78324e-19)
(-0.155925 0.185033 3.01255e-19)
(-0.157056 0.282744 -6.71755e-19)
(-0.116346 0.371282 -2.40511e-19)
(-0.0386615 0.398001 8.20265e-20)
(0.0722614 0.329536 -4.86117e-19)
(0.210708 0.151976 3.25249e-19)
(0.372125 -0.086537 -2.40403e-19)
(0.513086 -0.305979 -1.12914e-19)
(0.604027 -0.454208 -1.32187e-19)
(0.642499 -0.526449 2.02426e-19)
(0.64153 -0.540663 -1.68892e-19)
(0.610558 -0.514129 -7.98695e-20)
(0.570811 -0.470207 -2.66277e-20)
(0.485448 -0.431137 -4.74738e-20)
(0.411458 -0.361574 3.53529e-20)
(0.414236 -0.20759 -1.81407e-20)
(0.479158 0.00667398 1.03085e-20)
(0.551362 0.198356 3.971e-20)
(0.604554 0.363404 2.94198e-20)
(0.589076 0.508893 -6.00971e-20)
(0.555758 0.595054 8.51971e-20)
(0.569679 0.509992 1.21044e-19)
(0.728796 0.261341 -1.34205e-20)
(-0.0460169 0.0271409 7.80267e-19)
(-0.104217 0.101825 4.93987e-19)
(-0.145369 0.187404 1.51622e-19)
(-0.139557 0.280332 7.13577e-19)
(-0.0906264 0.364359 3.4984e-19)
(-0.00412828 0.387096 6.85993e-19)
(0.114522 0.315632 -3.9598e-19)
(0.261468 0.135528 1.08293e-19)
(0.430266 -0.102743 2.91858e-20)
(0.571645 -0.317181 -1.84003e-19)
(0.657361 -0.457834 -5.876e-20)
(0.688696 -0.522716 -2.15842e-19)
(0.681997 -0.530759 2.01857e-19)
(0.645849 -0.500982 1.74612e-20)
(0.606129 -0.450276 -7.65922e-20)
(0.530092 -0.403898 -5.92781e-21)
(0.449649 -0.347083 -3.14092e-20)
(0.430495 -0.221558 -1.53113e-20)
(0.484163 -0.0225589 4.07231e-20)
(0.549649 0.169936 3.03041e-20)
(0.5975 0.349388 2.68571e-21)
(0.580473 0.508866 8.50425e-20)
(0.558213 0.595486 1.4718e-20)
(0.597534 0.486344 4.94741e-21)
(0.787737 0.229731 5.97359e-20)
(-0.0453159 0.0320659 -6.78481e-19)
(-0.0992206 0.105934 3.60819e-19)
(-0.134316 0.189178 -2.99495e-20)
(-0.12114 0.27725 1.29684e-19)
(-0.063629 0.356824 1.63579e-19)
(0.0317182 0.375898 -9.94033e-19)
(0.157834 0.301837 6.33253e-19)
(0.313745 0.119669 -8.73576e-19)
(0.489615 -0.117448 -2.36954e-19)
(0.630411 -0.326 -2.8226e-19)
(0.710096 -0.458791 -3.92258e-19)
(0.733964 -0.516668 4.48516e-21)
(0.721216 -0.519125 -3.5332e-20)
(0.680922 -0.486692 -1.11744e-19)
(0.638958 -0.431843 1.4286e-19)
(0.572569 -0.377417 7.87135e-20)
(0.492893 -0.32684 -2.12358e-20)
(0.45289 -0.228556 -1.65144e-20)
(0.490667 -0.048964 -1.74346e-20)
(0.548055 0.142265 -5.45484e-20)
(0.590355 0.334437 -4.73476e-20)
(0.573984 0.505228 2.45895e-22)
(0.567219 0.590638 -1.43993e-19)
(0.639311 0.45745 -2.89624e-20)
(0.854477 0.197676 -1.68039e-19)
(-0.0447879 0.0365825 7.78841e-19)
(-0.0941861 0.109496 -1.02085e-18)
(-0.122881 0.19033 -6.42163e-19)
(-0.101999 0.27348 -7.89594e-19)
(-0.0356326 0.34868 1.91628e-19)
(0.0684725 0.364443 1.6271e-19)
(0.201779 0.288102 3.07907e-19)
(0.367149 0.104375 7.43735e-20)
(0.549606 -0.130605 1.48344e-19)
(0.688741 -0.332415 -2.6052e-19)
(0.761619 -0.45715 3.87756e-19)
(0.777839 -0.508384 -5.25439e-20)
(0.758786 -0.505997 2.11866e-19)
(0.715292 -0.471228 -3.82417e-20)
(0.669916 -0.414514 3.84022e-20)
(0.611416 -0.353092 -1.28456e-19)
(0.538428 -0.302712 -1.25999e-20)
(0.482286 -0.227447 -3.52567e-20)
(0.499708 -0.0710367 -1.34063e-20)
(0.547058 0.115651 -1.29896e-20)
(0.583193 0.318238 3.3267e-20)
(0.568823 0.496726 -2.17456e-20)
(0.582642 0.578513 3.46177e-20)
(0.694327 0.423655 1.46586e-20)
(0.925732 0.166967 4.99032e-20)
(-0.0444454 0.0406803 8.33203e-20)
(-0.0891763 0.112483 1.11218e-18)
(-0.111179 0.190835 -7.25281e-20)
(-0.0823268 0.269005 3.52345e-19)
(-0.00691294 0.339929 -1.15759e-18)
(0.105706 0.352736 -5.81296e-20)
(0.245954 0.274363 -5.1609e-19)
(0.421309 0.0896107 5.12023e-19)
(0.609681 -0.142189 6.42153e-19)
(0.746008 -0.336443 5.69037e-20)
(0.811375 -0.453022 9.31604e-20)
(0.819856 -0.497998 -7.32637e-20)
(0.794477 -0.491569 -1.34491e-19)
(0.748341 -0.454764 -1.65986e-19)
(0.699627 -0.397727 -2.70678e-20)
(0.646093 -0.331654 3.77503e-20)
(0.583205 -0.277151 8.00095e-20)
(0.518533 -0.218173 9.17877e-21)
(0.51338 -0.086943 1.6392e-20)
(0.547738 0.0909809 2.52445e-20)
(0.576412 0.300958 -5.08195e-20)
(0.564579 0.48247 -7.03713e-21)
(0.604495 0.55718 6.2119e-20)
(0.760247 0.385505 -1.03251e-19)
(0.997203 0.139066 4.09116e-20)
(-0.0443009 0.0443534 -1.80045e-18)
(-0.0842527 0.11487 -9.28837e-19)
(-0.0993228 0.190668 7.70613e-19)
(-0.0623136 0.26381 -3.90707e-19)
(0.0222539 0.33057 1.53081e-18)
(0.142962 0.340755 -4.15665e-19)
(0.290004 0.26053 1.02351e-18)
(0.475897 0.0753332 2.35456e-19)
(0.669301 -0.152187 -5.9247e-19)
(0.801619 -0.338136 5.98876e-19)
(0.858874 -0.446551 2.12021e-19)
(0.859597 -0.485698 -4.50184e-21)
(0.828147 -0.475995 -2.10821e-19)
(0.779545 -0.437596 1.02497e-19)
(0.728406 -0.381003 -1.2027e-19)
(0.676986 -0.313077 4.72462e-20)
(0.624609 -0.252615 -3.29736e-20)
(0.559808 -0.202075 9.21478e-21)
(0.533683 -0.0949537 -1.4482e-22)
(0.551309 0.0696553 1.07132e-21)
(0.570377 0.283119 2.65949e-20)
(0.562209 0.462096 9.87089e-21)
(0.63468 0.525712 -6.55486e-21)
(0.834213 0.34397 -3.83159e-20)
(1.0644 0.114941 -2.08004e-20)
(-0.0443667 0.0476005 1.64538e-18)
(-0.0794756 0.116634 3.77467e-19)
(-0.0874208 0.189802 -1.76067e-19)
(-0.0421411 0.257882 3.44907e-19)
(0.0515886 0.320608 -1.28703e-18)
(0.179763 0.328452 9.81268e-19)
(0.33366 0.246493 -3.8227e-19)
(0.530649 0.0615033 -4.83666e-19)
(0.727961 -0.160598 -1.79347e-19)
(0.855032 -0.337581 -6.25683e-19)
(0.903691 -0.437909 -3.40558e-19)
(0.896731 -0.471713 2.32496e-19)
(0.859662 -0.459416 3.23383e-19)
(0.808616 -0.420019 3.60066e-19)
(0.756149 -0.364126 -8.80553e-20)
(0.705079 -0.296721 3.03469e-20)
(0.661085 -0.230948 2.73588e-20)
(0.602913 -0.18173 2.07634e-20)
(0.561347 -0.094136 4.77392e-21)
(0.559042 0.0535033 5.13052e-21)
(0.565715 0.265304 4.69108e-21)
(0.565251 0.435559 2.12327e-20)
(0.677274 0.484724 -7.42765e-20)
(0.912655 0.3012 1.96909e-19)
(1.12298 0.0955341 1.41367e-20)
(-0.0446542 0.0504247 -2.74986e-19)
(-0.0749029 0.117753 -6.1695e-19)
(-0.0755783 0.188224 -6.14766e-19)
(-0.0219777 0.251202 3.1843e-19)
(0.0808041 0.310051 1.12827e-18)
(0.215634 0.315742 -2.37172e-19)
(0.376789 0.232135 -3.46493e-19)
(0.585366 0.0481018 -5.31392e-19)
(0.785188 -0.167421 -3.65133e-19)
(0.905762 -0.334889 -1.44268e-20)
(0.945469 -0.427299 -8.99697e-20)
(0.931028 -0.456287 -6.28102e-19)
(0.888887 -0.441997 -2.89368e-19)
(0.835511 -0.402248 3.87671e-20)
(0.782484 -0.34717 6.79152e-20)
(0.731395 -0.281706 -7.31301e-20)
(0.692465 -0.212935 -4.21194e-20)
(0.644287 -0.16034 -7.55053e-21)
(0.595334 -0.0849908 -2.36806e-21)
(0.572581 0.0445606 4.3044e-21)
(0.5649 0.248066 3.67722e-21)
(0.580534 0.403114 -3.14816e-20)
(0.736157 0.436669 5.64381e-20)
(0.990453 0.260302 -7.44255e-20)
(1.16889 0.081377 4.39484e-20)
(-0.0451748 0.0528335 8.03361e-19)
(-0.0705886 0.118211 5.63993e-19)
(-0.0638991 0.185927 7.48515e-19)
(-0.00198093 0.24375 -5.07527e-19)
(0.109601 0.298906 -1.37234e-18)
(0.250147 0.302509 -9.39629e-19)
(0.419445 0.21735 3.3405e-19)
(0.639912 0.0351409 6.1324e-20)
(0.840542 -0.172661 1.34162e-18)
(0.953393 -0.330195 4.46963e-19)
(0.983931 -0.414947 2.29244e-19)
(0.962348 -0.439668 6.43582e-19)
(0.915708 -0.423933 -1.53259e-19)
(0.860313 -0.384409 -1.64767e-19)
(0.807066 -0.330369 7.04946e-20)
(0.756508 -0.267331 4.75898e-20)
(0.719775 -0.198237 1.61494e-20)
(0.681206 -0.140793 3.00453e-21)
(0.633007 -0.0698761 3.9461e-21)
(0.594043 0.0439138 -2.05212e-21)
(0.574336 0.232128 -1.48854e-20)
(0.616926 0.366125 -1.13538e-20)
(0.810846 0.385654 -5.56683e-20)
(1.06074 0.223887 5.4082e-20)
(1.19902 0.072348 -1.00835e-19)
(-0.0459389 0.0548389 -1.18793e-18)
(-0.0665818 0.117993 7.24684e-19)
(-0.0524766 0.182895 8.05079e-19)
(0.0177037 0.23552 3.71375e-20)
(0.137665 0.287178 4.35801e-19)
(0.283002 0.288605 3.5028e-19)
(0.461906 0.202073 -1.06841e-18)
(0.694182 0.0226774 7.14043e-19)
(0.893607 -0.176317 -1.16944e-18)
(0.997576 -0.323656 -3.49263e-19)
(1.01888 -0.401097 1.23845e-20)
(0.990627 -0.422105 3.74743e-19)
(0.94008 -0.405431 4.22523e-19)
(0.883116 -0.366592 -6.41961e-20)
(0.829777 -0.313936 9.36492e-20)
(0.780437 -0.253316 2.72408e-20)
(0.744505 -0.185811 1.19455e-20)
(0.712646 -0.124757 1.41308e-21)
(0.670943 -0.0525741 9.25385e-21)
(0.624986 0.0502623 2.86436e-20)
(0.60297 0.218339 4.29647e-20)
(0.679703 0.327757 3.25072e-21)
(0.893373 0.336509 3.84233e-20)
(1.11582 0.193836 6.95607e-20)
(1.21198 0.0676583 -6.65442e-20)
(-0.0469562 0.0564568 6.31303e-19)
(-0.062926 0.11709 -6.68834e-19)
(-0.0413907 0.179112 -1.28587e-18)
(0.036948 0.226527 8.54811e-20)
(0.164674 0.274857 4.17228e-19)
(0.314128 0.273883 -2.17052e-19)
(0.50467 0.18631 1.72819e-19)
(0.748055 0.0108205 4.54975e-19)
(0.943989 -0.178393 -3.32706e-19)
(1.03804 -0.315445 1.62793e-18)
(1.05022 -0.386002 -6.60234e-20)
(1.01587 -0.403839 -2.39783e-19)
(0.962034 -0.386692 -2.81274e-19)
(0.903987 -0.348891 -7.35808e-21)
(0.850707 -0.297975 -1.21576e-19)
(0.80294 -0.239723 -4.96494e-20)
(0.767751 -0.17461 -1.45243e-20)
(0.739374 -0.112321 -2.23923e-21)
(0.706169 -0.0369193 1.78885e-20)
(0.664508 0.0595367 -4.65213e-20)
(0.654928 0.206826 7.56031e-20)
(0.762355 0.291902 -1.0778e-20)
(0.969307 0.293075 -2.08618e-20)
(1.14945 0.170493 -1.07999e-20)
(1.20872 0.0657443 1.28072e-19)
(-0.0482355 0.0577072 -8.55665e-19)
(-0.0596565 0.115494 3.09804e-19)
(-0.0307085 0.174569 5.44553e-19)
(0.0556483 0.216797 -1.20941e-19)
(0.190339 0.261911 3.81882e-19)
(0.343811 0.258234 8.48606e-19)
(0.548395 0.170164 1.28038e-19)
(0.801344 -0.000270203 -8.96816e-19)
(0.99131 -0.178901 1.01152e-18)
(1.07459 -0.305753 -1.35347e-18)
(1.07792 -0.369919 -2.81279e-19)
(1.03813 -0.385107 -2.74141e-19)
(0.981658 -0.367894 4.46631e-20)
(0.922988 -0.331412 2.55901e-20)
(0.870019 -0.28251 2.77843e-20)
(0.823877 -0.226699 1.19417e-20)
(0.789843 -0.164087 -3.18662e-22)
(0.763108 -0.10252 -1.62878e-21)
(0.737458 -0.0252817 -5.54053e-20)
(0.708616 0.0667497 -4.52721e-20)
(0.722338 0.195386 -9.20838e-21)
(0.845693 0.259568 2.83461e-20)
(1.02385 0.255865 -6.06847e-21)
(1.15988 0.15211 -4.87996e-20)
(1.19299 0.0647271 -7.78287e-20)
(-0.0497842 0.0586133 5.52145e-19)
(-0.056799 0.113206 6.5179e-19)
(-0.0204782 0.169264 -3.04871e-19)
(0.0737299 0.206373 4.28921e-20)
(0.214472 0.248289 5.70538e-19)
(0.372777 0.241643 4.29671e-19)
(0.593769 0.153842 1.47239e-18)
(0.853746 -0.0103978 6.85426e-19)
(1.03522 -0.177871 -1.24316e-19)
(1.1071 -0.294784 4.69158e-19)
(1.10203 -0.353099 8.25697e-19)
(1.05754 -0.366128 7.04957e-20)
(0.999079 -0.349195 4.78592e-20)
(0.940212 -0.314259 8.47967e-20)
(0.887847 -0.267552 -8.77539e-20)
(0.843304 -0.214299 4.82011e-21)
(0.810651 -0.154183 -1.54764e-20)
(0.785305 -0.0943349 5.68254e-21)
(0.765544 -0.0180331 1.64766e-20)
(0.752105 0.0686515 -3.25806e-20)
(0.788103 0.180746 -2.81749e-20)
(0.909363 0.22883 -5.94492e-20)
(1.05057 0.222955 2.6747e-21)
(1.15168 0.136322 2.76607e-21)
(1.17043 0.0631682 1.69454e-20)
(-0.0516089 0.0592016 -8.71239e-20)
(-0.054368 0.110229 -1.44623e-18)
(-0.0107226 0.163205 3.39087e-19)
(0.0911589 0.195314 3.18768e-19)
(0.2371 0.233932 -1.30958e-18)
(0.402211 0.224252 3.81875e-19)
(0.641328 0.137652 -1.87202e-19)
(0.904821 -0.0193519 1.20243e-18)
(1.0754 -0.175359 -6.49249e-19)
(1.13556 -0.282754 -1.57309e-18)
(1.12269 -0.335785 -4.9155e-21)
(1.07426 -0.347103 -2.07413e-19)
(1.01444 -0.330735 -2.30893e-19)
(0.955782 -0.297515 -1.188e-19)
(0.904288 -0.253122 1.18279e-20)
(0.861363 -0.202494 -1.84242e-20)
(0.830068 -0.144997 4.39418e-21)
(0.806559 -0.0872661 -4.91577e-21)
(0.791652 -0.0142473 -1.20203e-20)
(0.79101 0.0651492 8.87577e-20)
(0.838674 0.161803 3.16205e-21)
(0.945933 0.198426 6.39739e-20)
(1.05476 0.192876 -3.83262e-21)
(1.13354 0.12166 1.67718e-21)
(1.14652 0.0605284 -4.11189e-20)
(-0.053714 0.0595011 -9.23368e-19)
(-0.0523639 0.106578 4.95607e-19)
(-0.0014318 0.156406 1.2858e-19)
(0.107964 0.183693 -3.10518e-19)
(0.258594 0.21882 1.1522e-18)
(0.433636 0.206389 -9.77962e-19)
(0.691276 0.121966 -1.34244e-18)
(0.954003 -0.0269403 -8.99301e-19)
(1.1116 -0.171454 7.85035e-19)
(1.16001 -0.269885 1.31107e-18)
(1.14007 -0.318205 1.79597e-19)
(1.08848 -0.32821 5.82277e-19)
(1.02792 -0.312633 3.62063e-19)
(0.969831 -0.281245 3.96791e-20)
(0.919438 -0.239244 1.49721e-20)
(0.878167 -0.191249 1.04706e-19)
(0.848169 -0.136555 4.45762e-20)
(0.826851 -0.081214 -4.0754e-21)
(0.816115 -0.0127565 -2.28097e-20)
(0.823459 0.0582581 -5.54712e-20)
(0.872081 0.140345 1.73472e-20)
(0.9624 0.16919 -4.67132e-20)
(1.04785 0.165558 -1.12437e-20)
(1.11342 0.107849 -6.61868e-21)
(1.12468 0.0569821 3.8678e-20)
(-0.0561022 0.0595426 6.22882e-19)
(-0.0507696 0.10227 1.42687e-19)
(0.00744577 0.148898 9.15486e-20)
(0.124274 0.171594 -8.59066e-19)
(0.279771 0.203023 -2.07581e-18)
(0.468658 0.188555 3.6374e-22)
(0.743356 0.107172 1.89878e-18)
(1.00065 -0.0330195 -6.98158e-19)
(1.14363 -0.166282 1.28587e-18)
(1.18059 -0.256398 7.98898e-20)
(1.15441 -0.300564 -5.87623e-19)
(1.10044 -0.309601 -8.20502e-19)
(1.03968 -0.294984 -3.41543e-19)
(0.982495 -0.265499 4.36876e-20)
(0.933395 -0.225931 1.3172e-19)
(0.893793 -0.180547 2.70674e-21)
(0.865095 -0.128803 6.93183e-21)
(0.845982 -0.0761234 -1.81097e-21)
(0.83854 -0.0127284 3.49482e-20)
(0.849778 0.0500723 9.35597e-21)
(0.89404 0.119247 3.26272e-20)
(0.969503 0.142862 -1.01582e-20)
(1.03865 0.141502 2.08724e-20)
(1.09535 0.0951116 -1.65995e-20)
(1.10595 0.0528834 3.08139e-21)
(-0.0587737 0.0593581 -6.73103e-19)
(-0.0495481 0.0973327 9.46768e-19)
(0.0160141 0.140727 2.2847e-19)
(0.140368 0.159108 4.96851e-19)
(0.301923 0.18677 9.89132e-19)
(0.508594 0.171354 -5.20076e-19)
(0.79683 0.0936257 -1.16709e-18)
(1.04412 -0.0375178 9.92076e-19)
(1.17142 -0.160002 -1.42668e-18)
(1.1975 -0.242508 -6.88048e-19)
(1.16598 -0.283044 7.63331e-20)
(1.11036 -0.291403 6.15642e-19)
(1.04991 -0.277865 4.05736e-19)
(0.993903 -0.250315 -1.41909e-19)
(0.946256 -0.213183 1.72182e-20)
(0.908311 -0.170381 -7.93666e-20)
(0.880943 -0.121664 6.13013e-20)
(0.863812 -0.0718562 -2.35073e-21)
(0.858683 -0.0136151 1.61209e-20)
(0.871424 0.041847 -2.10544e-20)
(0.910226 0.100249 -4.26316e-20)
(0.973683 0.120235 -2.56134e-20)
(1.03067 0.120794 -1.3078e-20)
(1.08025 0.0835957 1.38417e-20)
(1.09021 0.0485665 -1.82792e-20)
(-0.061726 0.05898 1.55647e-18)
(-0.048639 0.0918013 5.28275e-19)
(0.0244428 0.131957 8.49473e-20)
(0.156732 0.146349 1.68313e-18)
(0.3267 0.170488 3.78665e-19)
(0.55411 0.155368 -6.9049e-19)
(0.850578 0.0816041 -1.75991e-18)
(1.08383 -0.0404445 -2.07963e-18)
(1.19501 -0.152798 -5.39086e-19)
(1.21101 -0.228415 -4.14439e-19)
(1.17507 -0.2658 1.51364e-19)
(1.11849 -0.273717 3.12513e-19)
(1.05876 -0.261332 -1.34029e-19)
(1.00418 -0.235717 5.39334e-19)
(0.958107 -0.200994 -3.82623e-19)
(0.921789 -0.160738 6.79665e-21)
(0.89576 -0.115064 -5.29909e-20)
(0.880307 -0.0682377 7.1912e-21)
(0.876681 -0.0150195 -2.38276e-20)
(0.889706 0.0341211 4.85698e-20)
(0.923409 0.0837621 4.25687e-20)
(0.97707 0.101121 5.66024e-20)
(1.02443 0.103093 -2.78608e-22)
(1.06784 0.073285 -7.16636e-21)
(1.07707 0.0442358 5.74173e-21)
(-0.0649529 0.0584401 -6.48316e-19)
(-0.0479545 0.0857195 -2.3165e-18)
(0.0329807 0.12267 -1.01451e-18)
(0.1741 0.133471 -1.96941e-18)
(0.355853 0.154782 1.87126e-19)
(0.604994 0.141047 -1.64693e-19)
(0.903284 0.0712799 -2.45707e-19)
(1.11936 -0.0418851 1.70276e-18)
(1.21454 -0.144864 1.10755e-19)
(1.22143 -0.214299 -3.96661e-19)
(1.18197 -0.248958 -2.78108e-19)
(1.12504 -0.256617 -5.92443e-19)
(1.06642 -0.245424 -5.49297e-19)
(1.01344 -0.221717 -2.6432e-19)
(0.969026 -0.189353 -2.19717e-20)
(0.934296 -0.151596 3.31921e-20)
(0.909579 -0.108934 5.18175e-20)
(0.895498 -0.0651103 1.52316e-20)
(0.892799 -0.0166552 3.76282e-21)
(0.905424 0.0270824 -2.65897e-20)
(0.934593 0.0695969 -3.85644e-20)
(0.980122 0.084993 -2.2675e-20)
(1.01968 0.0879505 7.94876e-22)
(1.05768 0.064102 -5.79046e-22)
(1.06613 0.0400256 2.42801e-20)
(-0.0684443 0.0577684 -1.46186e-19)
(-0.047377 0.0791393 -1.39081e-18)
(0.0419712 0.112968 1.19901e-19)
(0.193447 0.1207 1.21613e-18)
(0.390857 0.140351 -5.89187e-19)
(0.660155 0.128635 1.67099e-18)
(0.953646 0.0627115 -1.38343e-18)
(1.15046 -0.0419848 -6.42035e-19)
(1.23023 -0.136395 1.18706e-18)
(1.22911 -0.200313 1.22586e-18)
(1.18698 -0.232617 6.63297e-20)
(1.13024 -0.240159 2.68212e-19)
(1.07302 -0.230163 1.51008e-19)
(1.02179 -0.20832 -3.06337e-19)
(0.979084 -0.178244 -4.23275e-19)
(0.945894 -0.142929 -2.95187e-20)
(0.922437 -0.103207 -3.80968e-21)
(0.90945 -0.0623469 -7.07673e-21)
(0.907279 -0.0183287 -6.30377e-21)
(0.91908 0.0207812 1.32708e-20)
(0.944246 0.0574511 2.07007e-20)
(0.982966 0.0713547 -1.07474e-20)
(1.01613 0.0749757 2.44656e-21)
(1.04939 0.0559563 4.91364e-21)
(1.05703 0.0360207 2.96833e-21)
(-0.0721851 0.0569925 2.42934e-18)
(-0.0467549 0.0721206 3.29857e-18)
(0.0518642 0.102974 8.61162e-19)
(0.21593 0.108355 3.80014e-19)
(0.432534 0.127834 1.50032e-18)
(0.717862 0.118169 -7.82001e-20)
(1.00056 0.0558531 7.57871e-19)
(1.17708 -0.0409262 -1.26753e-19)
(1.24242 -0.127575 -1.15067e-18)
(1.23439 -0.186587 -3.50072e-19)
(1.19038 -0.21685 -2.6401e-19)
(1.13429 -0.224376 8.83906e-19)
(1.07871 -0.21556 3.02488e-19)
(1.02932 -0.195519 1.4215e-19)
(0.988345 -0.167651 6.17705e-20)
(0.956641 -0.134709 3.74167e-20)
(0.934372 -0.0978262 1.60444e-21)
(0.922239 -0.059848 -2.55392e-20)
(0.920323 -0.0199133 -1.20858e-21)
(0.931034 0.0152123 1.43512e-21)
(0.952687 0.0470475 -2.89882e-20)
(0.98566 0.0597993 -7.27269e-23)
(1.01356 0.0638419 -1.39234e-21)
(1.04266 0.0487538 -1.39833e-20)
(1.04949 0.0322753 -1.8189e-20)
(-0.0761549 0.0561357 -2.63088e-18)
(-0.0459002 0.06473 -2.75152e-18)
(0.0632227 0.0928387 -2.07985e-18)
(0.242744 0.0968584 -3.01053e-19)
(0.480791 0.117657 -2.35104e-18)
(0.776116 0.109537 -1.50252e-19)
(1.04322 0.0505792 -7.95117e-19)
(1.19932 -0.038907 4.40978e-20)
(1.25145 -0.118565 1.17265e-18)
(1.23762 -0.17322 4.79734e-20)
(1.19242 -0.201706 4.24288e-19)
(1.13737 -0.209287 -8.39816e-19)
(1.0836 -0.201615 -2.81188e-19)
(1.03612 -0.183304 -7.54568e-20)
(0.996867 -0.157552 2.28073e-19)
(0.966588 -0.126906 -6.38952e-20)
(0.945423 -0.0927408 -4.02433e-21)
(0.933951 -0.0575358 7.25794e-20)
(0.932098 -0.0213281 -1.06621e-20)
(0.941564 0.0103435 3.09866e-21)
(0.960155 0.0381487 1.50817e-20)
(0.98823 0.0499949 1.16869e-20)
(1.01176 0.0542763 1.65705e-21)
(1.0372 0.0424041 1.28677e-20)
(1.04325 0.0288183 -3.05768e-20)
(-0.0803272 0.0552168 1.63474e-18)
(-0.0445856 0.0570405 1.75936e-18)
(0.0767158 0.082755 1.01064e-19)
(0.274916 0.0866989 -2.47615e-19)
(0.534602 0.109939 1.19732e-18)
(0.833006 0.102543 1.1235e-18)
(1.08116 0.0467153 1.49202e-18)
(1.21744 -0.0361208 4.47986e-19)
(1.25773 -0.109505 -5.20368e-19)
(1.23912 -0.160286 5.28236e-19)
(1.19335 -0.187215 -8.27895e-20)
(1.13963 -0.194895 5.13857e-19)
(1.0878 -0.188319 -2.49503e-19)
(1.04226 -0.171659 5.56193e-20)
(1.0047 -0.147924 1.08224e-20)
(0.975785 -0.11949 3.69516e-20)
(0.955633 -0.0879082 -1.13392e-19)
(0.944671 -0.0553498 -7.00581e-20)
(0.942744 -0.0225246 2.67103e-22)
(0.950892 0.0061299 -2.14484e-21)
(0.966827 0.0305533 1.73435e-22)
(0.990684 0.0416692 -3.71705e-21)
(1.01058 0.0460516 -2.60254e-21)
(1.03281 0.0368235 8.15039e-21)
(1.0381 0.0256633 3.92962e-20)
(-0.0846689 0.0542478 6.72565e-19)
(-0.0425426 0.04913 -1.53004e-18)
(0.0930947 0.0729669 9.04893e-19)
(0.313079 0.0783498 -3.90501e-19)
(0.592228 0.104499 6.13982e-19)
(0.886969 0.0969662 -1.6809e-19)
(1.11423 0.0440675 -1.14104e-18)
(1.2318 -0.0327449 5.14931e-20)
(1.26163 -0.100505 -1.14647e-19)
(1.2392 -0.147836 -1.90831e-20)
(1.19337 -0.173389 3.72853e-19)
(1.14121 -0.181193 -4.34523e-19)
(1.0914 -0.175656 2.81565e-19)
(1.04779 -0.160564 3.93999e-20)
(1.0119 -0.138747 1.6145e-19)
(0.984277 -0.112433 7.79221e-20)
(0.965049 -0.0832921 5.96641e-20)
(0.95448 -0.053244 -1.50013e-20)
(0.952378 -0.023477 2.91406e-20)
(0.959205 0.00252137 4.72088e-21)
(0.972837 0.0240903 -1.46973e-21)
(0.993022 0.0345968 -1.2098e-21)
(1.0099 0.0389791 3.69013e-21)
(1.0293 0.0319356 -3.77026e-21)
(1.03386 0.0228112 -2.895e-20)
(-0.08914 0.0532335 -1.01207e-18)
(-0.0394598 0.041083 3.51862e-19)
(0.113142 0.0637826 1.83106e-18)
(0.357288 0.0721614 1.57513e-18)
(0.651602 0.100956 -9.47249e-19)
(0.936905 0.0925935 -9.36453e-19)
(1.14252 0.0424441 -9.22687e-20)
(1.24279 -0.0289331 -3.17518e-19)
(1.26353 -0.0916502 7.9827e-19)
(1.23814 -0.135902 6.29143e-20)
(1.19267 -0.160228 2.30332e-19)
(1.14224 -0.168166 1.26247e-19)
(1.09448 -0.163607 8.0595e-20)
(1.05279 -0.149997 -3.77861e-19)
(1.0185 -0.129995 -2.19504e-19)
(0.992106 -0.105705 -2.39577e-19)
(0.973717 -0.0788624 -5.75757e-20)
(0.963454 -0.0511839 5.53971e-21)
(0.961103 -0.0241752 -5.01773e-20)
(0.966655 -0.000532915 -6.46144e-21)
(0.978281 0.0186136 -2.0713e-21)
(0.995248 0.0285908 -6.43471e-21)
(1.00965 0.0329023 2.23737e-21)
(1.0265 0.0276704 -2.89273e-21)
(1.03039 0.0202532 -1.9185e-21)
(-0.0936934 0.0521694 -1.23009e-18)
(-0.0349824 0.0329929 8.15917e-19)
(0.137594 0.0555731 -4.37326e-20)
(0.406941 0.0682665 -8.27797e-19)
(0.710714 0.0988716 7.26637e-19)
(0.982172 0.0892336 6.44953e-19)
(1.16632 0.0416698 -2.62984e-19)
(1.25085 -0.0248135 -7.17107e-19)
(1.26378 -0.0830047 -2.73336e-19)
(1.23615 -0.124497 -1.24895e-18)
(1.19139 -0.147721 -8.80264e-19)
(1.1428 -0.155794 1.28423e-19)
(1.09711 -0.152148 3.0067e-19)
(1.05729 -0.139935 2.33481e-19)
(1.02454 -0.121646 -2.06797e-19)
(0.999312 -0.0992828 1.33667e-19)
(0.981684 -0.0745944 3.40502e-20)
(0.971662 -0.0491442 -2.5508e-21)
(0.969012 -0.0246197 3.76386e-20)
(0.973368 -0.00308265 -7.93567e-21)
(0.983228 0.0139974 -3.12192e-21)
(0.997372 0.0234959 6.27515e-21)
(1.00975 0.0276914 -3.20289e-21)
(1.02427 0.0239623 2.15008e-20)
(1.02755 0.0179749 -2.32525e-20)
(-0.0982749 0.0510406 4.78765e-19)
(-0.0287139 0.0249694 -1.90263e-18)
(0.167035 0.0487465 -1.74977e-18)
(0.460859 0.0665434 -1.05054e-18)
(0.767889 0.0978464 1.09456e-18)
(1.02252 0.0867234 -7.85222e-19)
(1.18598 0.041592 1.23247e-18)
(1.25638 -0.0204894 8.199e-19)
(1.26268 -0.0746116 -2.20794e-19)
(1.23346 -0.113624 2.06095e-19)
(1.18966 -0.135849 5.38023e-19)
(1.14299 -0.144049 -8.50653e-20)
(1.09933 -0.141254 -9.05097e-20)
(1.06133 -0.130353 -4.28533e-20)
(1.03007 -0.113679 8.32561e-20)
(1.00593 -0.0931413 -1.83056e-19)
(0.988996 -0.0704678 -8.44606e-20)
(0.979165 -0.0471065 6.80076e-20)
(0.976188 -0.0248182 -1.62235e-20)
(0.979445 -0.00517549 -6.40006e-21)
(0.98773 0.0101329 1.5713e-20)
(0.999411 0.0191833 -6.77514e-21)
(1.01013 0.0232376 -2.11576e-20)
(1.02249 0.0207501 -1.87903e-20)
(1.02526 0.0159598 3.94534e-20)
(-0.102822 0.0498203 5.7938e-20)
(-0.0202205 0.0171496 5.46435e-19)
(0.201787 0.04369 5.5681e-19)
(0.517493 0.0666603 1.74228e-18)
(0.82191 0.0975753 -1.73604e-18)
(1.05798 0.0849276 6.0264e-19)
(1.20195 0.0420816 -7.56309e-19)
(1.25978 -0.0160419 2.10741e-19)
(1.26051 -0.0664983 -4.91269e-19)
(1.23024 -0.103276 -3.21537e-19)
(1.1876 -0.124587 -4.555e-19)
(1.14287 -0.132905 -1.90069e-19)
(1.10121 -0.130898 2.09203e-19)
(1.06496 -0.121226 -1.93025e-19)
(1.03511 -0.106072 -1.47923e-19)
(1.01201 -0.087259 3.07942e-19)
(0.995699 -0.0664664 2.14046e-19)
(0.986022 -0.0450584 -1.87079e-20)
(0.982705 -0.0247831 6.61275e-21)
(0.984966 -0.00685658 1.11238e-20)
(0.991834 0.00692622 -1.40867e-20)
(1.00139 0.0155464 1.51507e-20)
(1.01073 0.0194471 1.31234e-20)
(1.02106 0.0179777 -2.60823e-20)
(1.02344 0.0141938 -3.72023e-20)
(-0.107266 0.0484681 5.66611e-19)
(-0.00904307 0.00971174 1.12262e-18)
(0.241811 0.0406936 -1.69406e-18)
(0.575188 0.0681777 -9.97299e-19)
(0.87201 0.0978468 8.48908e-19)
(1.08878 0.0837353 7.94669e-19)
(1.21466 0.0430324 1.08639e-18)
(1.2614 -0.0115333 -7.02768e-19)
(1.2575 -0.0586798 3.82953e-19)
(1.22662 -0.0934365 2.31633e-19)
(1.18529 -0.113908 -6.34198e-20)
(1.14249 -0.122331 -5.4426e-19)
(1.10277 -0.121053 -7.62478e-19)
(1.06821 -0.112532 -2.71104e-19)
(1.0397 -0.0988034 3.84381e-19)
(1.01757 -0.081616 -5.05169e-20)
(1.00183 -0.0625774 -2.8221e-22)
(0.992286 -0.042991 4.00745e-20)
(0.98863 -0.02453 -8.35864e-22)
(0.989994 -0.00816788 2.02591e-20)
(0.99558 0.00429691 -2.20335e-20)
(1.00331 0.0124958 1.40371e-20)
(1.01147 0.016236 4.13999e-20)
(1.01991 0.0155974 2.64704e-20)
(1.02206 0.0126668 8.16136e-23)
(-0.111528 0.0469292 -1.56771e-18)
(0.0052842 0.00288911 -1.03104e-18)
(0.286666 0.0398752 1.02408e-18)
(0.632428 0.0706603 -8.09519e-19)
(0.917802 0.098523 4.62995e-19)
(1.11525 0.0830555 -1.46256e-18)
(1.22453 0.0443571 -1.16837e-18)
(1.26155 -0.00701051 -2.6144e-20)
(1.25385 -0.0511617 3.441e-19)
(1.22273 -0.0840867 -1.34355e-19)
(1.1828 -0.103781 4.81623e-19)
(1.14191 -0.112297 3.09648e-19)