/*--------------------------------*- C++ -*----------------------------------*\
  =========                 |
  \\      /  F ield         | OpenFOAM: The Open Source CFD Toolbox
   \\    /   O peration     | Website:  https://openfoam.org
    \\  /    A nd           | Version:  7
     \\/     M anipulation  |
\*---------------------------------------------------------------------------*/
FoamFile
{
    version     2.0;
    format      ascii;
    class       volVectorField;
    location    "0.5";
    object      U;
}
// * * * * * * * * * * * * * * * * * * * * * * * * * * * * * * * * * * * * * //

dimensions      [0 1 -1 0 0 0 0];

internalField   nonuniform List<vector> 
2413
(
(2.1959 -0.661781 0)
(2.1988 -0.680383 0)
(2.20379 -0.691819 0)
(2.20554 -0.708362 0)
(2.20535 -0.716579 0)
(2.20709 -0.72166 0)
(2.2079 -0.735622 0)
(2.20737 -0.742002 0)
(2.20959 -0.740802 0)
(2.21203 -0.742651 0)
(2.20885 -0.750967 0)
(2.20657 -0.758828 0)
(2.20756 -0.761764 0)
(2.21149 -0.762817 0)
(2.21165 -0.766719 0)
(2.21022 -0.771562 0)
(2.21187 -0.771658 0)
(2.21383 -0.775252 0)
(2.21241 -0.781006 0)
(2.21316 -0.782245 0)
(2.21535 -0.779878 0)
(2.2131 -0.779735 0)
(2.21121 -0.783397 0)
(2.21112 -0.784024 0)
(2.21184 -0.786128 0)
(2.21193 -0.787499 0)
(2.2122 -0.790124 0)
(2.21344 -0.790349 0)
(2.21536 -0.790456 0)
(2.21642 -0.79165 0)
(2.21575 -0.793046 0)
(2.21204 -0.795525 0)
(2.20976 -0.79649 0)
(2.20565 -0.794611 0)
(2.197 -0.793149 0)
(2.18012 -0.79554 0)
(2.15371 -0.789412 0)
(2.10696 -0.767104 0)
(2.02518 -0.746358 0)
(1.94231 -0.720825 0)
(1.89214 -0.683858 0)
(1.86796 -0.637543 0)
(1.84802 -0.59736 0)
(1.83649 -0.576684 0)
(1.82258 -0.553286 0)
(1.80339 -0.524452 0)
(1.79225 -0.49636 0)
(1.78535 -0.477845 0)
(1.77974 -0.457959 0)
(1.77549 -0.437915 0)
(1.77236 -0.42113 0)
(1.76824 -0.404867 0)
(1.76404 -0.388321 0)
(1.76126 -0.37202 0)
(1.75971 -0.355758 0)
(1.75879 -0.339288 0)
(1.75779 -0.323065 0)
(1.75647 -0.307494 0)
(1.75511 -0.292373 0)
(1.75411 -0.277414 0)
(1.75373 -0.262625 0)
(1.75405 -0.248145 0)
(1.75507 -0.234034 0)
(1.75675 -0.220258 0)
(1.75901 -0.206756 0)
(1.76173 -0.193482 0)
(1.76483 -0.180422 0)
(1.76827 -0.167582 0)
(1.77206 -0.154976 0)
(1.77627 -0.142629 0)
(1.78095 -0.130567 0)
(1.78622 -0.118823 0)
(1.79213 -0.107424 0)
(1.79878 -0.0964033 0)
(1.80624 -0.085792 0)
(1.81457 -0.0756217 0)
(1.82383 -0.0659278 0)
(1.83407 -0.056746 0)
(1.8453 -0.0481116 0)
(1.85755 -0.0400652 0)
(1.8708 -0.0326441 0)
(1.88504 -0.0258867 0)
(1.90028 -0.0198308 0)
(1.91656 -0.014503 0)
(1.93395 -0.00992213 0)
(1.95241 -0.00609946 0)
(1.97123 -0.00307604 0)
(1.98772 -0.000990037 0)
(2.15374 -0.382833 0)
(2.16355 -0.424536 0)
(2.1726 -0.449802 0)
(2.1801 -0.479616 0)
(2.18245 -0.518423 0)
(2.18393 -0.528695 0)
(2.18641 -0.535545 0)
(2.19524 -0.572571 0)
(2.19129 -0.601855 0)
(2.19594 -0.602698 0)
(2.20195 -0.604261 0)
(2.20495 -0.629664 0)
(2.20032 -0.643275 0)
(2.20255 -0.639424 0)
(2.20604 -0.647039 0)
(2.20492 -0.665427 0)
(2.20486 -0.66735 0)
(2.20557 -0.666761 0)
(2.2079 -0.680256 0)
(2.20662 -0.687686 0)
(2.20814 -0.686703 0)
(2.20964 -0.693179 0)
(2.20793 -0.70186 0)
(2.20837 -0.701611 0)
(2.20902 -0.700783 0)
(2.2098 -0.70706 0)
(2.20829 -0.715517 0)
(2.20785 -0.717329 0)
(2.20914 -0.720431 0)
(2.21195 -0.725803 0)
(2.21223 -0.729842 0)
(2.20913 -0.732963 0)
(2.20604 -0.737322 0)
(2.20291 -0.73889 0)
(2.19583 -0.739716 0)
(2.18452 -0.740788 0)
(2.16624 -0.739864 0)
(2.13493 -0.726976 0)
(2.08098 -0.701885 0)
(1.99984 -0.679379 0)
(1.92808 -0.661257 0)
(1.89169 -0.623107 0)
(1.87826 -0.579124 0)
(1.86986 -0.555562 0)
(1.85855 -0.540328 0)
(1.84444 -0.517044 0)
(1.82681 -0.494165 0)
(1.81757 -0.470604 0)
(1.81095 -0.452428 0)
(1.80279 -0.431032 0)
(1.79716 -0.41148 0)
(1.7927 -0.394549 0)
(1.78798 -0.377958 0)
(1.78432 -0.361727 0)
(1.78214 -0.345949 0)
(1.78091 -0.330219 0)
(1.77979 -0.314667 0)
(1.77825 -0.299798 0)
(1.77648 -0.285536 0)
(1.77492 -0.271453 0)
(1.77392 -0.257396 0)
(1.77366 -0.243482 0)
(1.77417 -0.229832 0)
(1.77542 -0.216477 0)
(1.77733 -0.203392 0)
(1.77978 -0.190549 0)
(1.78263 -0.177934 0)
(1.78581 -0.165553 0)
(1.78929 -0.15341 0)
(1.79313 -0.14152 0)
(1.79741 -0.129897 0)
(1.80221 -0.118565 0)
(1.80763 -0.107549 0)
(1.81373 -0.0968749 0)
(1.82061 -0.0865687 0)
(1.82832 -0.076657 0)
(1.83692 -0.067171 0)
(1.84644 -0.058143 0)
(1.85692 -0.049609 0)
(1.86835 -0.0416083 0)
(1.88074 -0.0341804 0)
(1.89407 -0.0273658 0)
(1.90835 -0.0212004 0)
(1.92363 -0.0157071 0)
(1.93999 -0.0108992 0)
(1.95737 -0.00678694 0)
(1.97495 -0.00344179 0)
(1.98992 -0.00109763 0)
(2.09142 -0.18191 0)
(2.10961 -0.232747 0)
(2.12383 -0.277751 0)
(2.13353 -0.301401 0)
(2.14597 -0.342598 0)
(2.15321 -0.39448 0)
(2.15987 -0.407207 0)
(2.16721 -0.414034 0)
(2.17491 -0.455902 0)
(2.17256 -0.483266 0)
(2.17822 -0.482084 0)
(2.18534 -0.493839 0)
(2.18688 -0.527322 0)
(2.18615 -0.535948 0)
(2.18853 -0.534201 0)
(2.19382 -0.556711 0)
(2.19183 -0.572945 0)
(2.193 -0.572274 0)
(2.19672 -0.583371 0)
(2.19679 -0.60095 0)
(2.19832 -0.60223 0)
(2.19922 -0.602962 0)
(2.20216 -0.619443 0)
(2.20001 -0.63084 0)
(2.20232 -0.6294 0)
(2.20407 -0.632121 0)
(2.20353 -0.644852 0)
(2.20292 -0.647989 0)
(2.20483 -0.646283 0)
(2.20696 -0.652085 0)
(2.20695 -0.659121 0)
(2.20413 -0.665389 0)
(2.20048 -0.670185 0)
(2.19818 -0.671897 0)
(2.18935 -0.676431 0)
(2.17998 -0.680128 0)
(2.16603 -0.683372 0)
(2.14258 -0.684698 0)
(2.10694 -0.668002 0)
(2.05301 -0.644123 0)
(1.99078 -0.63085 0)
(1.94264 -0.599325 0)
(1.91009 -0.557815 0)
(1.89432 -0.52796 0)
(1.88084 -0.513694 0)
(1.87238 -0.500074 0)
(1.85896 -0.479039 0)
(1.84625 -0.458767 0)
(1.8393 -0.442219 0)
(1.83068 -0.42136 0)
(1.82175 -0.399943 0)
(1.8163 -0.382446 0)
(1.81148 -0.367014 0)
(1.80702 -0.351556 0)
(1.80395 -0.336252 0)
(1.8021 -0.321096 0)
(1.80062 -0.306037 0)
(1.79885 -0.291529 0)
(1.79681 -0.277747 0)
(1.79488 -0.264333 0)
(1.79341 -0.251014 0)
(1.79265 -0.237783 0)
(1.79267 -0.224719 0)
(1.79348 -0.211863 0)
(1.79503 -0.199218 0)
(1.79719 -0.186784 0)
(1.79979 -0.174573 0)
(1.80271 -0.162606 0)
(1.8059 -0.150898 0)
(1.8094 -0.139452 0)
(1.81329 -0.128271 0)
(1.81766 -0.117364 0)
(1.82261 -0.106747 0)
(1.82822 -0.0964396 0)
(1.83457 -0.0864635 0)
(1.84172 -0.076842 0)
(1.84971 -0.0676025 0)
(1.85859 -0.0587756 0)
(1.86838 -0.0503956 0)
(1.87907 -0.042502 0)
(1.89067 -0.0351329 0)
(1.90316 -0.0283281 0)
(1.91656 -0.022117 0)
(1.93093 -0.0165172 0)
(1.94635 -0.0115312 0)
(1.96273 -0.00717173 0)
(1.97906 -0.00356242 0)
(1.99233 -0.00105789 0)
(2.03753 -0.064075 0)
(2.05152 -0.0919377 0)
(2.06874 -0.131503 0)
(2.08432 -0.171717 0)
(2.09547 -0.19217 0)
(2.10919 -0.231187 0)
(2.11914 -0.276227 0)
(2.12774 -0.288558 0)
(2.13662 -0.305466 0)
(2.14561 -0.349579 0)
(2.1481 -0.37289 0)
(2.15355 -0.376591 0)
(2.16318 -0.404241 0)
(2.16494 -0.434247 0)
(2.16792 -0.438528 0)
(2.17418 -0.452276 0)
(2.17734 -0.47767 0)
(2.17857 -0.484666 0)
(2.18103 -0.489999 0)
(2.18478 -0.510809 0)
(2.18476 -0.523188 0)
(2.1869 -0.523477 0)
(2.19052 -0.53409 0)
(2.19069 -0.551441 0)
(2.19203 -0.55508 0)
(2.19401 -0.555463 0)
(2.19622 -0.570411 0)
(2.19348 -0.582047 0)
(2.19538 -0.580781 0)
(2.19792 -0.582467 0)
(2.19916 -0.592228 0)
(2.19725 -0.598907 0)
(2.19323 -0.605928 0)
(2.19096 -0.608636 0)
(2.18223 -0.612461 0)
(2.17276 -0.617881 0)
(2.16221 -0.621895 0)
(2.14334 -0.627374 0)
(2.11585 -0.624915 0)
(2.0788 -0.611197 0)
(2.03213 -0.596973 0)
(1.98867 -0.58005 0)
(1.95837 -0.548882 0)
(1.93245 -0.516822 0)
(1.91376 -0.48766 0)
(1.89578 -0.473121 0)
(1.88228 -0.459376 0)
(1.87089 -0.439354 0)
(1.86348 -0.425241 0)
(1.8559 -0.411805 0)
(1.84637 -0.393166 0)
(1.83916 -0.374151 0)
(1.83426 -0.357245 0)
(1.82941 -0.341166 0)
(1.82535 -0.325661 0)
(1.82259 -0.310904 0)
(1.82051 -0.296583 0)
(1.81841 -0.282698 0)
(1.81612 -0.269452 0)
(1.8139 -0.256649 0)
(1.81209 -0.243985 0)
(1.81093 -0.23138 0)
(1.81054 -0.21888 0)
(1.81097 -0.206525 0)
(1.81216 -0.194329 0)
(1.81401 -0.182304 0)
(1.81633 -0.170483 0)
(1.81899 -0.158909 0)
(1.82189 -0.147612 0)
(1.82506 -0.136596 0)
(1.82858 -0.12585 0)
(1.83255 -0.11537 0)
(1.83707 -0.105159 0)
(1.84222 -0.0952281 0)
(1.84809 -0.0855952 0)
(1.85473 -0.0762809 0)
(1.86218 -0.0673099 0)
(1.87048 -0.058712 0)
(1.87965 -0.0505201 0)
(1.88967 -0.0427718 0)
(1.90053 -0.0355038 0)
(1.91225 -0.0287517 0)
(1.92485 -0.0225375 0)
(1.9384 -0.0168683 0)
(1.95298 -0.0117376 0)
(1.96842 -0.00717187 0)
(1.98342 -0.00337956 0)
(1.99473 -0.000865015 0)
(2.00852 -0.0127915 0)
(2.01647 -0.0263374 0)
(2.02584 -0.0429436 0)
(2.0393 -0.0700422 0)
(2.05283 -0.0989992 0)
(2.06419 -0.120292 0)
(2.07832 -0.156042 0)
(2.09048 -0.192509 0)
(2.10121 -0.212325 0)
(2.11174 -0.236557 0)
(2.12072 -0.273347 0)
(2.12651 -0.290958 0)
(2.13432 -0.304969 0)
(2.1427 -0.336433 0)
(2.14583 -0.35324 0)
(2.1512 -0.363938 0)
(2.15772 -0.386253 0)
(2.16027 -0.40282 0)
(2.16315 -0.410057 0)
(2.16723 -0.425074 0)
(2.16948 -0.444356 0)
(2.17218 -0.450726 0)
(2.17523 -0.458547 0)
(2.17765 -0.479313 0)
(2.1769 -0.489593 0)
(2.17959 -0.487894 0)
(2.183 -0.496324 0)
(2.1846 -0.516418 0)
(2.18354 -0.524208 0)
(2.18626 -0.524326 0)
(2.19059 -0.534788 0)
(2.19093 -0.546025 0)
(2.18969 -0.552551 0)
(2.18523 -0.557459 0)
(2.1773 -0.560973 0)
(2.16655 -0.567168 0)
(2.15999 -0.569687 0)
(2.14529 -0.571789 0)
(2.12358 -0.572481 0)
(2.09472 -0.564912 0)
(2.05834 -0.550687 0)
(2.01802 -0.536855 0)
(1.98607 -0.522131 0)
(1.96603 -0.499022 0)
(1.94299 -0.477021 0)
(1.92736 -0.455246 0)
(1.91249 -0.440663 0)
(1.89558 -0.419014 0)
(1.88265 -0.398103 0)
(1.87457 -0.385716 0)
(1.86748 -0.373218 0)
(1.8604 -0.356908 0)
(1.85508 -0.341949 0)
(1.85059 -0.328516 0)
(1.84619 -0.314764 0)
(1.84263 -0.300777 0)
(1.83987 -0.286927 0)
(1.83727 -0.273431 0)
(1.83459 -0.26056 0)
(1.83205 -0.248236 0)
(1.82993 -0.236157 0)
(1.82846 -0.224155 0)
(1.82774 -0.212218 0)
(1.82785 -0.200364 0)
(1.82873 -0.188616 0)
(1.83028 -0.177004 0)
(1.83232 -0.165582 0)
(1.83469 -0.154412 0)
(1.83728 -0.143535 0)
(1.84012 -0.132957 0)
(1.84327 -0.122656 0)
(1.84686 -0.112613 0)
(1.85098 -0.102819 0)
(1.85571 -0.0932799 0)
(1.86115 -0.0840071 0)
(1.86733 -0.0750205 0)
(1.8743 -0.0663418 0)
(1.88207 -0.0579998 0)
(1.89066 -0.0500252 0)
(1.90007 -0.0424536 0)
(1.91028 -0.0353182 0)
(1.9213 -0.0286476 0)
(1.93318 -0.0224551 0)
(1.94601 -0.0167344 0)
(1.95985 -0.0114754 0)
(1.97436 -0.00674401 0)
(1.98785 -0.0028878 0)
(1.99689 -0.000562598 0)
(2.00086 -0.00117279 0)
(2.00256 -0.00366824 0)
(2.00609 -0.00924092 0)
(2.01138 -0.0179485 0)
(2.01946 -0.0326197 0)
(2.02995 -0.0522976 0)
(2.04033 -0.0718555 0)
(2.05111 -0.0959529 0)
(2.0637 -0.124516 0)
(2.07458 -0.146011 0)
(2.08497 -0.170908 0)
(2.09483 -0.200453 0)
(2.10274 -0.217617 0)
(2.11172 -0.239091 0)
(2.11865 -0.263566 0)
(2.12441 -0.279215 0)
(2.13149 -0.298363 0)
(2.13678 -0.319097 0)
(2.1412 -0.332293 0)
(2.14649 -0.347098 0)
(2.15053 -0.368647 0)
(2.15294 -0.378731 0)
(2.15615 -0.380664 0)
(2.16187 -0.399093 0)
(2.1629 -0.42208 0)
(2.16499 -0.427453 0)
(2.1689 -0.430311 0)
(2.1743 -0.448621 0)
(2.17322 -0.464792 0)
(2.17464 -0.467108 0)
(2.17805 -0.471496 0)
(2.18144 -0.486515 0)
(2.17901 -0.494934 0)
(2.17683 -0.501231 0)
(2.17177 -0.507716 0)
(2.16074 -0.514466 0)
(2.15402 -0.519661 0)
(2.1432 -0.522502 0)
(2.12667 -0.523444 0)
(2.10463 -0.519163 0)
(2.07586 -0.509545 0)
(2.04224 -0.493193 0)
(2.00701 -0.477243 0)
(1.98092 -0.467442 0)
(1.96444 -0.450314 0)
(1.9501 -0.429565 0)
(1.93715 -0.419933 0)
(1.9247 -0.407472 0)
(1.90931 -0.389964 0)
(1.89931 -0.373157 0)
(1.89185 -0.36074 0)
(1.88306 -0.345443 0)
(1.87535 -0.329514 0)
(1.87002 -0.315601 0)
(1.86537 -0.302317 0)
(1.86133 -0.288814 0)
(1.85805 -0.275543 0)
(1.85504 -0.262837 0)
(1.85202 -0.250755 0)
(1.84918 -0.23912 0)
(1.84682 -0.227654 0)
(1.84511 -0.216213 0)
(1.84418 -0.204787 0)
(1.84406 -0.193402 0)
(1.8447 -0.182092 0)
(1.84599 -0.170905 0)
(1.84774 -0.159909 0)
(1.84979 -0.149179 0)
(1.85205 -0.138755 0)
(1.85454 -0.128638 0)
(1.85734 -0.118795 0)
(1.86056 -0.109196 0)
(1.86431 -0.0998253 0)
(1.86868 -0.090683 0)
(1.87372 -0.0817785 0)
(1.87949 -0.0731284 0)
(1.88602 -0.0647537 0)
(1.89332 -0.0566806 0)
(1.9014 -0.048939 0)
(1.91025 -0.0415599 0)
(1.91987 -0.034573 0)
(1.93027 -0.0279978 0)
(1.94152 -0.0218356 0)
(1.95373 -0.0160675 0)
(1.9669 -0.010693 0)
(1.98041 -0.00586499 0)
(1.99205 -0.00213958 0)
(1.99856 -0.000236742 0)
(2.00003 -4.39325e-05 0)
(2.00017 -0.000220615 0)
(2.00062 -0.000854328 0)
(2.00185 -0.0026806 0)
(2.00423 -0.00640178 0)
(2.00839 -0.0132508 0)
(2.01488 -0.0245218 0)
(2.02252 -0.0384241 0)
(2.03161 -0.0561316 0)
(2.04236 -0.0779503 0)
(2.05216 -0.0972584 0)
(2.06257 -0.120519 0)
(2.07267 -0.144586 0)
(2.08185 -0.164325 0)
(2.09126 -0.188329 0)
(2.09852 -0.20763 0)
(2.10587 -0.224509 0)
(2.11386 -0.248317 0)
(2.11906 -0.265573 0)
(2.12383 -0.274037 0)
(2.13091 -0.294637 0)
(2.13516 -0.319785 0)
(2.13915 -0.327236 0)
(2.14484 -0.33448 0)
(2.14949 -0.355674 0)
(2.14997 -0.368464 0)
(2.15337 -0.371475 0)
(2.15768 -0.379461 0)
(2.15988 -0.397424 0)
(2.15977 -0.408238 0)
(2.16229 -0.409657 0)
(2.16504 -0.418428 0)
(2.16649 -0.43513 0)
(2.16371 -0.444168 0)
(2.1609 -0.450443 0)
(2.15271 -0.457319 0)
(2.14452 -0.464489 0)
(2.13746 -0.468696 0)
(2.12356 -0.474729 0)
(2.10748 -0.47706 0)
(2.08695 -0.477267 0)
(2.06241 -0.470985 0)
(2.03351 -0.452649 0)
(2.00543 -0.434384 0)
(1.98302 -0.4182 0)
(1.96593 -0.400818 0)
(1.95364 -0.388553 0)
(1.94208 -0.380928 0)
(1.93115 -0.366977 0)
(1.91724 -0.350506 0)
(1.9089 -0.336741 0)
(1.90133 -0.325233 0)
(1.89335 -0.311989 0)
(1.88711 -0.299127 0)
(1.88245 -0.287272 0)
(1.87844 -0.275215 0)
(1.87485 -0.262928 0)
(1.87147 -0.251093 0)
(1.86819 -0.239867 0)
(1.86517 -0.228976 0)
(1.86266 -0.218151 0)
(1.86084 -0.207288 0)
(1.85979 -0.19639 0)
(1.85953 -0.185495 0)
(1.85999 -0.174652 0)
(1.86104 -0.163932 0)
(1.86251 -0.153421 0)
(1.86422 -0.143193 0)
(1.86614 -0.133279 0)
(1.86828 -0.123664 0)
(1.87075 -0.114308 0)
(1.87364 -0.105171 0)
(1.87706 -0.0962364 0)
(1.88109 -0.0875004 0)
(1.88578 -0.0789712 0)
(1.89119 -0.0706639 0)
(1.89733 -0.0625983 0)
(1.90422 -0.0547991 0)
(1.91184 -0.0472932 0)
(1.92019 -0.0401104 0)
(1.92928 -0.0332727 0)
(1.93915 -0.0267905 0)
(1.94987 -0.0206495 0)
(1.96156 -0.0148256 0)
(1.97408 -0.00935889 0)
(1.98636 -0.00457236 0)
(1.99563 -0.00127594 0)
(1.9996 1.41799e-05 0)
(2 -5.19978e-07 0)
(2 -4.91608e-06 0)
(2.00002 -3.2298e-05 0)
(2.00012 -0.000158771 0)
(2.00044 -0.000619961 0)
(2.00128 -0.00185094 0)
(2.00307 -0.00461321 0)
(2.0063 -0.00989915 0)
(2.01102 -0.0179567 0)
(2.01746 -0.0295835 0)
(2.02523 -0.0440468 0)
(2.03407 -0.0608527 0)
(2.04356 -0.0806391 0)
(2.05198 -0.0979629 0)
(2.06158 -0.117953 0)
(2.07144 -0.141748 0)
(2.07851 -0.157014 0)
(2.08588 -0.173486 0)
(2.09498 -0.199474 0)
(2.10091 -0.214695 0)
(2.1062 -0.222506 0)
(2.11354 -0.245542 0)
(2.11732 -0.263796 0)
(2.12215 -0.270401 0)
(2.12906 -0.285789 0)
(2.13327 -0.306285 0)
(2.13597 -0.319227 0)
(2.14073 -0.326588 0)
(2.14517 -0.339579 0)
(2.1474 -0.358463 0)
(2.1488 -0.366769 0)
(2.15181 -0.369182 0)
(2.155 -0.381916 0)
(2.1542 -0.39583 0)
(2.15177 -0.402974 0)
(2.14698 -0.409253 0)
(2.13612 -0.417941 0)
(2.1312 -0.420993 0)
(2.11939 -0.424756 0)
(2.10536 -0.428225 0)
(2.09051 -0.428323 0)
(2.07064 -0.428554 0)
(2.04784 -0.421882 0)
(2.02488 -0.410277 0)
(2.00575 -0.400154 0)
(1.98842 -0.384698 0)
(1.97161 -0.366473 0)
(1.95924 -0.351873 0)
(1.94743 -0.345142 0)
(1.93703 -0.33539 0)
(1.92768 -0.323354 0)
(1.92051 -0.313404 0)
(1.9126 -0.301562 0)
(1.90513 -0.288009 0)
(1.89974 -0.275098 0)
(1.89537 -0.262948 0)
(1.89124 -0.251121 0)
(1.88731 -0.239895 0)
(1.88369 -0.229271 0)
(1.88047 -0.218888 0)
(1.87783 -0.208493 0)
(1.87591 -0.198029 0)
(1.87476 -0.187524 0)
(1.87437 -0.177031 0)
(1.87465 -0.166616 0)
(1.87545 -0.156361 0)
(1.87659 -0.146353 0)
(1.87796 -0.136653 0)
(1.87952 -0.127271 0)
(1.88133 -0.118174 0)
(1.88348 -0.109309 0)
(1.88607 -0.100636 0)
(1.8892 -0.0921337 0)
(1.89294 -0.0838003 0)
(1.89734 -0.0756406 0)
(1.90244 -0.067669 0)
(1.90824 -0.0599045 0)
(1.91476 -0.0523697 0)
(1.92198 -0.0450921 0)
(1.9299 -0.0380962 0)
(1.93854 -0.0313969 0)
(1.94795 -0.0249912 0)
(1.95825 -0.018851 0)
(1.96948 -0.0129649 0)
(1.98123 -0.00748346 0)
(1.99178 -0.00301521 0)
(1.9982 -0.000512598 0)
(2.00006 0.000139307 0)
(2 -1.96569e-09 0)
(2 -3.41148e-08 0)
(2 -4.16042e-07 0)
(2 -3.58206e-06 0)
(2.00002 -2.2792e-05 0)
(2.00008 -0.00011217 0)
(2.00031 -0.000424769 0)
(2.00091 -0.00130836 0)
(2.00223 -0.00335135 0)
(2.00459 -0.00715521 0)
(2.00844 -0.0136982 0)
(2.0136 -0.0226939 0)
(2.01996 -0.0342838 0)
(2.02805 -0.0499591 0)
(2.03583 -0.064716 0)
(2.04414 -0.0815424 0)
(2.05346 -0.102359 0)
(2.06095 -0.116764 0)
(2.06906 -0.134309 0)
(2.07778 -0.15852 0)
(2.0837 -0.170579 0)
(2.09105 -0.184068 0)
(2.09882 -0.207145 0)
(2.10349 -0.222316 0)
(2.10904 -0.23231 0)
(2.11419 -0.245552 0)
(2.11941 -0.264307 0)
(2.12386 -0.276536 0)
(2.12752 -0.282154 0)
(2.13215 -0.299369 0)
(2.13411 -0.316129 0)
(2.13663 -0.321381 0)
(2.14059 -0.331244 0)
(2.14201 -0.345878 0)
(2.13993 -0.355207 0)
(2.1364 -0.35968 0)
(2.12786 -0.366541 0)
(2.12181 -0.374483 0)
(2.11506 -0.380371 0)
(2.10218 -0.383237 0)
(2.09093 -0.385462 0)
(2.07487 -0.3818 0)
(2.05352 -0.374939 0)
(2.03315 -0.368047 0)
(2.01586 -0.363349 0)
(2.00338 -0.358189 0)
(1.99001 -0.346157 0)
(1.97677 -0.333579 0)
(1.96655 -0.325445 0)
(1.95563 -0.314023 0)
(1.94332 -0.299747 0)
(1.93502 -0.28804 0)
(1.92796 -0.278984 0)
(1.92125 -0.268879 0)
(1.91561 -0.258017 0)
(1.91101 -0.247516 0)
(1.90664 -0.237259 0)
(1.90235 -0.227187 0)
(1.89845 -0.217335 0)
(1.8951 -0.207542 0)
(1.89238 -0.197673 0)
(1.89038 -0.187724 0)
(1.88914 -0.177735 0)
(1.8886 -0.167765 0)
(1.88866 -0.15789 0)
(1.88916 -0.148196 0)
(1.88995 -0.138768 0)
(1.89096 -0.129647 0)
(1.89218 -0.120824 0)
(1.89367 -0.112253 0)
(1.89553 -0.103878 0)
(1.89787 -0.0956598 0)
(1.90075 -0.0875793 0)
(1.90425 -0.0796322 0)
(1.90841 -0.0718243 0)
(1.91325 -0.064168 0)
(1.91877 -0.0566833 0)
(1.92497 -0.0493939 0)
(1.93184 -0.0423248 0)
(1.93939 -0.0354963 0)
(1.94766 -0.0289133 0)
(1.95672 -0.0225549 0)
(1.96667 -0.0163907 0)
(1.97742 -0.0104735 0)
(1.98802 -0.00519282 0)
(1.99609 -0.00150302 0)
(1.9996 -3.9457e-05 0)
(2.00018 0.00016675 0)
(2 -2.14035e-12 0)
(2 -7.29038e-11 0)
(2 -1.64619e-09 0)
(2 -2.61395e-08 0)
(2 -2.95959e-07 0)
(2 -2.45614e-06 0)
(2.00001 -1.56031e-05 0)
(2.00006 -7.5453e-05 0)
(2.00021 -0.00029237 0)
(2.00064 -0.000921177 0)
(2.00159 -0.00236984 0)
(2.00344 -0.00534713 0)
(2.00637 -0.0102079 0)
(2.01058 -0.0174876 0)
(2.01628 -0.0278942 0)
(2.02229 -0.0387758 0)
(2.02991 -0.0533777 0)
(2.03833 -0.0711146 0)
(2.04469 -0.0825539 0)
(2.05252 -0.0988244 0)
(2.0616 -0.12047 0)
(2.06875 -0.134548 0)
(2.075 -0.147366 0)
(2.08144 -0.164134 0)
(2.08844 -0.18125 0)
(2.09445 -0.193317 0)
(2.10037 -0.209285 0)
(2.10483 -0.226684 0)
(2.10817 -0.232256 0)
(2.11339 -0.242936 0)
(2.11825 -0.262542 0)
(2.11956 -0.270062 0)
(2.12271 -0.279012 0)
(2.12475 -0.290591 0)
(2.12501 -0.30304 0)
(2.12525 -0.316279 0)
(2.12109 -0.323054 0)
(2.11206 -0.330587 0)
(2.10785 -0.335924 0)
(2.10029 -0.342847 0)
(2.08784 -0.346226 0)
(2.07773 -0.348147 0)
(2.06387 -0.346689 0)
(2.04668 -0.340359 0)
(2.02745 -0.328915 0)
(2.01079 -0.319091 0)
(1.99748 -0.312357 0)
(1.98706 -0.303563 0)
(1.97826 -0.296568 0)
(1.96986 -0.291853 0)
(1.96032 -0.283506 0)
(1.95101 -0.273622 0)
(1.9442 -0.264782 0)
(1.93739 -0.255112 0)
(1.9307 -0.244113 0)
(1.92512 -0.233489 0)
(1.92028 -0.223651 0)
(1.9158 -0.214175 0)
(1.91183 -0.204841 0)
(1.90851 -0.195536 0)
(1.90586 -0.186177 0)
(1.9039 -0.176754 0)
(1.90263 -0.167311 0)
(1.90198 -0.157912 0)
(1.90182 -0.148638 0)
(1.90202 -0.139569 0)
(1.90248 -0.130771 0)
(1.90315 -0.12226 0)
(1.90406 -0.114008 0)
(1.90529 -0.105959 0)
(1.90692 -0.0980621 0)
(1.90905 -0.09028 0)
(1.91174 -0.082596 0)
(1.91506 -0.0750065 0)
(1.91902 -0.0675183 0)
(1.92365 -0.060146 0)
(1.92894 -0.0529114 0)
(1.93488 -0.0458402 0)
(1.94146 -0.0389557 0)
(1.94871 -0.0322696 0)
(1.95668 -0.0257696 0)
(1.96547 -0.019425 0)
(1.9751 -0.0132399 0)
(1.98511 -0.00744826 0)
(1.99382 -0.00283653 0)
(1.99878 -0.000425648 0)
(2.00008 0.00013083 0)
(2.00018 0.000159637 0)
(2 3.22716e-15 0)
(2 -3.9653e-14 0)
(2 -1.93667e-12 0)
(2 -5.75715e-11 0)
(2 -1.20114e-09 0)
(2 -1.79271e-08 0)
(2 -1.95925e-07 0)
(2 -1.62643e-06 0)
(2.00001 -1.01558e-05 0)
(2.00004 -5.0354e-05 0)
(2.00014 -0.000199868 0)
(2.00044 -0.00062944 0)
(2.00116 -0.00172974 0)
(2.00252 -0.00387326 0)
(2.0048 -0.00763507 0)
(2.00849 -0.0140323 0)
(2.01272 -0.0213617 0)
(2.01823 -0.0314919 0)
(2.02539 -0.0453878 0)
(2.03206 -0.0575989 0)
(2.03898 -0.0713525 0)
(2.04605 -0.0862394 0)
(2.05397 -0.102299 0)
(2.06114 -0.117347 0)
(2.06853 -0.134296 0)
(2.07444 -0.147691 0)
(2.07857 -0.156331 0)
(2.08596 -0.174509 0)
(2.09206 -0.191712 0)
(2.09754 -0.203017 0)
(2.10262 -0.217296 0)
(2.10489 -0.228581 0)
(2.10781 -0.238537 0)
(2.11201 -0.252214 0)
(2.11303 -0.262354 0)
(2.11179 -0.270551 0)
(2.1095 -0.276597 0)
(2.10448 -0.281768 0)
(2.09747 -0.290479 0)
(2.09325 -0.298625 0)
(2.08308 -0.301886 0)
(2.07337 -0.307616 0)
(2.06431 -0.308642 0)
(2.05207 -0.308698 0)
(2.0377 -0.303709 0)
(2.02353 -0.296374 0)
(2.01144 -0.290894 0)
(1.99997 -0.281492 0)
(1.98746 -0.270485 0)
(1.97823 -0.262914 0)
(1.96948 -0.256736 0)
(1.96018 -0.248062 0)
(1.95284 -0.239214 0)
(1.94683 -0.231381 0)
(1.94113 -0.223157 0)
(1.93592 -0.214597 0)
(1.9314 -0.206315 0)
(1.92736 -0.198195 0)
(1.92375 -0.18998 0)
(1.9207 -0.181616 0)
(1.91824 -0.173119 0)
(1.91638 -0.164519 0)
(1.9151 -0.155872 0)
(1.91433 -0.147253 0)
(1.91397 -0.138747 0)
(1.91391 -0.130427 0)
(1.91408 -0.122339 0)
(1.91447 -0.114482 0)
(1.91514 -0.106817 0)
(1.91617 -0.0992896 0)
(1.91764 -0.0918545 0)
(1.91963 -0.0844825 0)
(1.92221 -0.0771612 0)
(1.9254 -0.0698911 0)
(1.92923 -0.0626834 0)
(1.9337 -0.0555585 0)
(1.93881 -0.0485427 0)
(1.94453 -0.0416628 0)
(1.95087 -0.034936 0)
(1.95788 -0.0283594 0)
(1.96564 -0.0219071 0)
(1.9742 -0.0155647 0)
(1.98334 -0.009475 0)
(1.99194 -0.0042495 0)
(1.9978 -0.000994345 0)
(1.99989 4.54063e-05 0)
(2.00015 0.000149614 0)
(2.00016 0.000146929 0)
(2 4.27184e-15 0)
(2 3.3048e-15 0)
(2 1.59695e-15 0)
(2 -3.5933e-14 0)
(2 -1.44318e-12 0)
(2 -3.9734e-11 0)
(2 -7.89968e-10 0)
(2 -1.13875e-08 0)
(2 -1.24662e-07 0)
(2 -1.02312e-06 0)
(2.00001 -6.5283e-06 0)
(2.00002 -3.32687e-05 0)
(2.0001 -0.000131251 0)
(2.00031 -0.00044465 0)
(2.00082 -0.0012197 0)
(2.00183 -0.00279503 0)
(2.00374 -0.00594268 0)
(2.00651 -0.0105926 0)
(2.01021 -0.0170451 0)
(2.0152 -0.0260065 0)
(2.021 -0.0366957 0)
(2.02714 -0.048427 0)
(2.03389 -0.0612629 0)
(2.04096 -0.0752864 0)
(2.04655 -0.0869125 0)
(2.0539 -0.102371 0)
(2.06164 -0.118868 0)
(2.06793 -0.132154 0)
(2.0726 -0.14396 0)
(2.07708 -0.154282 0)
(2.08247 -0.16701 0)
(2.08705 -0.180309 0)
(2.09207 -0.195136 0)
(2.095 -0.205968 0)
(2.09536 -0.214067 0)
(2.09778 -0.227778 0)
(2.09815 -0.239347 0)
(2.09698 -0.24769 0)
(2.0928 -0.254972 0)
(2.08495 -0.258599 0)
(2.0775 -0.260659 0)
(2.06802 -0.264127 0)
(2.05843 -0.26873 0)
(2.05081 -0.268683 0)
(2.0402 -0.268389 0)
(2.0303 -0.265988 0)
(2.02055 -0.262643 0)
(2.0113 -0.258416 0)
(2.00018 -0.251921 0)
(1.99107 -0.245582 0)
(1.98325 -0.241234 0)
(1.97518 -0.235217 0)
(1.96749 -0.227857 0)
(1.96162 -0.221085 0)
(1.95597 -0.213924 0)
(1.95026 -0.205749 0)
(1.94515 -0.197242 0)
(1.94068 -0.188667 0)
(1.93672 -0.179965 0)
(1.93336 -0.17121 0)
(1.93066 -0.162516 0)
(1.92859 -0.153937 0)
(1.92708 -0.145501 0)
(1.92605 -0.137244 0)
(1.92539 -0.129209 0)
(1.92502 -0.121427 0)
(1.9249 -0.113896 0)
(1.92505 -0.106575 0)
(1.92553 -0.0994025 0)
(1.92641 -0.0923171 0)
(1.92778 -0.0852739 0)
(1.92971 -0.078247 0)
(1.93222 -0.0712284 0)
(1.93535 -0.064224 0)
(1.93909 -0.0572523 0)
(1.94345 -0.0503402 0)
(1.94841 -0.0435161 0)
(1.95395 -0.0368032 0)
(1.96011 -0.0302064 0)
(1.96695 -0.023707 0)
(1.97454 -0.0172882 0)
(1.98274 -0.0110486 0)
(1.99082 -0.00547331 0)
(1.99695 -0.00161328 0)
(1.99964 -8.90779e-05 0)
(2.00011 0.000135019 0)
(2.00014 0.000139383 0)
(2.00014 0.000130995 0)
(2 -6.85818e-18 0)
(2 5.89883e-16 0)
(2 1.609e-15 0)
(2 2.1302e-15 0)
(2 2.13478e-15 0)
(2 -2.12309e-14 0)
(2 -9.35593e-13 0)
(2 -2.49453e-11 0)
(2 -4.79396e-10 0)
(2 -6.94925e-09 0)
(2 -7.55054e-08 0)
(2 -6.26914e-07 0)
(2 -4.15583e-06 0)
(2.00002 -2.10528e-05 0)
(2.00006 -8.84e-05 0)
(2.00021 -0.000304383 0)
(2.00058 -0.000850811 0)
(2.00137 -0.00207997 0)
(2.00282 -0.0044238 0)
(2.00507 -0.00818801 0)
(2.00821 -0.0135494 0)
(2.01257 -0.021286 0)
(2.01746 -0.030211 0)
(2.02287 -0.0401807 0)
(2.0295 -0.0529074 0)
(2.03591 -0.0655457 0)
(2.04171 -0.076939 0)
(2.04744 -0.0884573 0)
(2.05432 -0.103383 0)
(2.06059 -0.117648 0)
(2.06696 -0.131909 0)
(2.0718 -0.144493 0)
(2.07461 -0.152703 0)
(2.07865 -0.164355 0)
(2.08135 -0.174185 0)
(2.08438 -0.187025 0)
(2.08503 -0.19933 0)
(2.08223 -0.204058 0)
(2.08045 -0.212263 0)
(2.0785 -0.222733 0)
(2.07438 -0.230793 0)
(2.06831 -0.23558 0)
(2.05854 -0.237526 0)
(2.04986 -0.237861 0)
(2.04269 -0.236627 0)
(2.03282 -0.233854 0)
(2.02358 -0.229815 0)
(2.01458 -0.226622 0)
(2.00627 -0.223013 0)
(1.99686 -0.217802 0)
(1.98919 -0.212556 0)
(1.98198 -0.207728 0)
(1.97403 -0.20086 0)
(1.9673 -0.193672 0)
(1.96187 -0.187274 0)
(1.95685 -0.180877 0)
(1.95243 -0.174282 0)
(1.94872 -0.167659 0)
(1.94559 -0.160991 0)
(1.94296 -0.154195 0)
(1.9408 -0.147254 0)
(1.93908 -0.140191 0)
(1.93773 -0.133054 0)
(1.93669 -0.125912 0)
(1.93589 -0.118842 0)
(1.93531 -0.111891 0)
(1.93498 -0.105063 0)
(1.93495 -0.0983268 0)
(1.9353 -0.0916339 0)
(1.93611 -0.0849437 0)
(1.93745 -0.07823 0)
(1.93936 -0.0714823 0)
(1.94186 -0.0647055 0)
(1.94497 -0.0579182 0)
(1.94866 -0.0511464 0)
(1.95293 -0.0444224 0)
(1.95777 -0.0377715 0)
(1.96317 -0.0312053 0)
(1.9692 -0.0247144 0)
(1.9759 -0.0182881 0)
(1.9832 -0.012011 0)
(1.99054 -0.00629818 0)
(1.99646 -0.00211285 0)
(1.99943 -0.000234766 0)
(2.00007 0.000115157 0)
(2.00012 0.000129849 0)
(2.00012 0.000124316 0)
(2.00012 0.000109219 0)
(2 -8.10871e-16 0)
(2 -1.23479e-15 0)
(2 -5.80342e-16 0)
(2 -2.36301e-17 0)
(2 6.43049e-16 0)
(2 1.71392e-15 0)
(2 2.37619e-15 0)
(2 -1.32648e-14 0)
(2 -5.59652e-13 0)
(2 -1.44674e-11 0)
(2 -2.77445e-10 0)
(2 -4.03861e-09 0)
(2 -4.41227e-08 0)
(2 -3.80981e-07 0)
(2 -2.53186e-06 0)
(2.00001 -1.34728e-05 0)
(2.00004 -5.81269e-05 0)
(2.00015 -0.000205417 0)
(2.00041 -0.000600981 0)
(2.001 -0.00151111 0)
(2.00214 -0.00332804 0)
(2.00392 -0.00624282 0)
(2.00662 -0.0108648 0)
(2.01029 -0.0173197 0)
(2.01454 -0.0248337 0)
(2.01946 -0.0338618 0)
(2.02523 -0.0449114 0)
(2.0312 -0.0564022 0)
(2.03727 -0.0681469 0)
(2.04307 -0.0805251 0)
(2.04732 -0.0895357 0)
(2.05244 -0.101002 0)
(2.05898 -0.116545 0)
(2.06402 -0.130561 0)
(2.06742 -0.141242 0)
(2.06924 -0.148499 0)
(2.07053 -0.157888 0)
(2.07075 -0.167159 0)
(2.07113 -0.177278 0)
(2.06856 -0.184712 0)
(2.06383 -0.188965 0)
(2.05901 -0.19378 0)
(2.05294 -0.198997 0)
(2.04856 -0.204929 0)
(2.04207 -0.207417 0)
(2.03429 -0.207047 0)
(2.02649 -0.205185 0)
(2.01982 -0.202723 0)
(2.01208 -0.200919 0)
(2.0042 -0.197688 0)
(1.99679 -0.193155 0)
(1.9904 -0.189137 0)
(1.98436 -0.18519 0)
(1.97859 -0.180125 0)
(1.97364 -0.175027 0)
(1.96914 -0.169856 0)
(1.96471 -0.16401 0)
(1.96065 -0.157602 0)
(1.95711 -0.150852 0)
(1.95405 -0.143844 0)
(1.95148 -0.136678 0)
(1.94939 -0.129489 0)
(1.94772 -0.122397 0)
(1.94639 -0.115489 0)
(1.94535 -0.108803 0)
(1.94458 -0.102317 0)
(1.94413 -0.0959651 0)
(1.94405 -0.0896673 0)
(1.94441 -0.0833565 0)
(1.94527 -0.0769898 0)
(1.94668 -0.0705477 0)
(1.94865 -0.064033 0)
(1.95119 -0.0574645 0)
(1.95431 -0.0508719 0)
(1.95797 -0.0442894 0)
(1.96217 -0.0377476 0)
(1.9669 -0.0312626 0)
(1.97221 -0.0248359 0)
(1.97811 -0.0184696 0)
(1.98454 -0.0122579 0)
(1.99105 -0.00659139 0)
(1.99644 -0.00235608 0)
(1.99933 -0.000334954 0)
(2.00004 9.44439e-05 0)
(2.0001 0.000118605 0)
(2.0001 0.000115541 0)
(2.0001 0.000102709 0)
(2.00009 8.36127e-05 0)
(2 -2.94623e-15 0)
(2 -3.94607e-15 0)
(2 -3.78371e-15 0)
(2 -3.7734e-15 0)
(2 -3.2522e-15 0)
(2 -1.909e-15 0)
(2 -8.87892e-16 0)
(2 -8.23048e-17 0)
(2 6.44866e-16 0)
(2 -6.75789e-15 0)
(2 -3.09141e-13 0)
(2 -7.94112e-12 0)
(2 -1.54105e-10 0)
(2 -2.24476e-09 0)
(2 -2.54409e-08 0)
(2 -2.22743e-07 0)
(2 -1.53806e-06 0)
(2.00001 -8.43154e-06 0)
(2.00003 -3.78753e-05 0)
(2.0001 -0.000138055 0)
(2.00029 -0.000418219 0)
(2.00074 -0.0011071 0)
(2.00159 -0.00245078 0)
(2.00305 -0.00482986 0)
(2.00532 -0.00865698 0)
(2.00834 -0.0138657 0)
(2.01217 -0.0206484 0)
(2.01671 -0.0290089 0)
(2.02142 -0.0376983 0)
(2.02655 -0.0476141 0)
(2.03281 -0.0605758 0)
(2.03821 -0.0720115 0)
(2.04261 -0.0811178 0)
(2.04614 -0.0901028 0)
(2.05003 -0.101193 0)
(2.05469 -0.114253 0)
(2.05832 -0.126881 0)
(2.05985 -0.136884 0)
(2.05953 -0.143138 0)
(2.05833 -0.149952 0)
(2.05575 -0.156213 0)
(2.05352 -0.163354 0)
(2.05042 -0.169467 0)
(2.04456 -0.171761 0)
(2.0392 -0.175228 0)
(2.0344 -0.178421 0)
(2.02771 -0.179114 0)
(2.02095 -0.177577 0)
(2.01581 -0.176327 0)
(2.00934 -0.174606 0)
(2.00289 -0.172001 0)
(1.9974 -0.168362 0)
(1.99226 -0.165123 0)
(1.98648 -0.160387 0)
(1.98078 -0.154632 0)
(1.976 -0.149082 0)
(1.97152 -0.143459 0)
(1.96751 -0.13768 0)
(1.96415 -0.131883 0)
(1.96137 -0.126038 0)
(1.95909 -0.120124 0)
(1.95724 -0.114208 0)
(1.95574 -0.108382 0)
(1.95452 -0.102686 0)
(1.95354 -0.0970955 0)
(1.95284 -0.0915329 0)
(1.95247 -0.0859138 0)
(1.95251 -0.0801751 0)
(1.953 -0.0742851 0)
(1.95401 -0.0682398 0)
(1.95555 -0.0620567 0)
(1.95763 -0.0557657 0)
(1.96024 -0.0494061 0)
(1.96337 -0.043019 0)
(1.967 -0.0366402 0)
(1.97114 -0.0302949 0)
(1.97579 -0.0239959 0)
(1.98096 -0.0177692 0)
(1.98657 -0.0117359 0)
(1.9922 -0.00629914 0)
(1.99684 -0.00227894 0)
(1.99937 -0.00034942 0)
(2.00002 7.89503e-05 0)
(2.00008 0.000106885 0)
(2.00008 0.000105046 0)
(2.00008 9.41116e-05 0)
(2.00008 7.67362e-05 0)
(2.00006 5.48279e-05 0)
(2 -7.10406e-16 0)
(2 -1.60229e-15 0)
(2 -1.23007e-15 0)
(2 -1.27703e-15 0)
(2 -1.02961e-15 0)
(2 -1.64212e-15 0)
(2 -1.39502e-15 0)
(2 -7.6722e-16 0)
(2 6.12188e-16 0)
(2 1.21704e-15 0)
(2 5.4807e-16 0)