/*--------------------------------*- C++ -*----------------------------------*\
  =========                 |
  \\      /  F ield         | OpenFOAM: The Open Source CFD Toolbox
   \\    /   O peration     | Website:  https://openfoam.org
    \\  /    A nd           | Version:  7
     \\/     M anipulation  |
\*---------------------------------------------------------------------------*/
FoamFile
{
    version     2.0;
    format      ascii;
    class       volScalarField;
    location    "0.026";
    object      T;
}
// * * * * * * * * * * * * * * * * * * * * * * * * * * * * * * * * * * * * * //

dimensions      [0 2 -2 0 0 0 0];

internalField   nonuniform List<scalar> 
12359
(
4.62745e-120
5.90408e-95
0
-7.85767e-63
9.15585e-109
6.13462e-45
-4.34082e-37
4.30038e-41
-3.5401e-29
-3.74332e-48
3.43822e-33
-2.68442e-22
-4.07378e-06
3.65222e-59
1.02563e-66
-9.54564e-13
3.10454e-09
2.21285e-177
-4.56471e-182
2.40857e-79
-2.02191e-55
1.59592e-25
8.66734e-87
5.88842e-76
-7.69575e-91
-5.69039e-83
-3.42145e-235
2.80682e-239
1.21122e-190
-3.91978e-221
-2.81057e-212
-6.24921e-262
1.69156e-289
8.69081e-226
4.7228e-308
7.04658e-208
-9.79984e-144
-1.63319e-123
-4.44245e-113
1.17487e-131
-3.32435e-99
-4.9792e-128
-4.00653e-156
4.72647e-160
4.16405e-199
-8.26184e-195
-1.74793e-203
1.16498e-216
-5.24519e-187
-9.02479e-231
-1.20568e-243
-1.05568e-252
1.80109e-266
-6.67842e-173
7.06866e-276
-4.60325e-285
-3.14367e-164
-4.85471e-294
1.20102e-298
-2.3461e-303
5.26414e-281
1.9631e-317
3.95962e-248
0.00341419
1.61409e-168
9.53919e-52
3.26838e-148
2.78974e-257
1.58989e-139
1.53333e-16
2.7285
5.98332e-104
0
-1.9165e-135
-6.18524e-71
-1.20673e-312
-7.00825e-271
0
-2.55042e-153
2.40696e-19
-7.62406e-54
-1.02055e-232
0
2.66359e-146
1.20847e-14
-1.32193e-183
1.13453e-229
4.65796e-317
2.30377e-11
8.33742e-16
0
0.00183486
0
-4.02578e-189
9.28856e-155
1.91126e-164
1.82416e-196
-2.03108e-190
-4.5611e-105
1.39736e-123
-6.17905e-50
0
2.39497e-182
0.000597412
2.53204e-247
-8.44331e-96
0
8.20073e-16
1.1339e-201
-1.29094e-99
3.64719e-200
4.21643e-231
-1.26812e-62
-7.04451e-61
4.70254e-155
2.23145e-287
1.36338e-57
2.45013e-233
3.83459e-09
0
-2.32278e-205
1.34566e-42
4.84372e-315
1.56199e-130
-4.69763e-231
-8.6896e-272
-2.63868e-44
1.53568e-144
0
-5.34177e-234
1.95376e-286
1.10239e-42
5.81162e-36
8.03e-38
0
-1.90931e-129
3.95463e-285
-6.29461e-133
0
-1.36709e-46
0
-1.66845e-118
-5.42877e-119
0
-8.68209e-67
1.20973e-51
0
1.79229e-17
-8.38681e-246
-2.2122e-51
-1.21484e-163
0
-2.99713e-117
-1.00087e-311
0
24.6181
4.4497e-51
1.19883e-44
-1.80065e-198
8.64943e-284
3.02073e-82
1.62842e-281
4.01317e-131
-3.28673e-121
0
-1.45316e-274
2.61827e-83
9.50584e-42
1.00682e-122
-9.95429e-12
7.0678e-318
7.4206e-316
-9.5753e-128
-6.08387e-94
-9.61738e-251
1.40687e-47
-7.86846e-201
-1.25615e-203
-9.6051e-63
1.36989e-49
1.02163e-62
0
0
4.81098e-232
-2.72081e-107
-1.2672e-34
7.15406e-197
2.07046e-160
5.94578e-157
4.58973e-197
2.85637e-158
-2.63836e-167
4.9741e-167
1.19169e-309
1.24968e-98
0.010336
-6.63954e-149
2.8641e-193
1.43005e-116
1.22384e-231
-2.22916e-50
1.43834e-158
-2.57188e-122
-1.37501e-99
-9.52075e-71
0
2.43415e-68
-6.33988e-120
3.47413e-120
1.24286e-214
0
-1.70796e-73
-6.47158e-72
48.7611
1.37991e-33
0
3.15591e-194
1.55728e-157
3.11965e-195
9.89087e-116
-7.92664e-57
-9.71939e-218
1.19116e-132
0.00281808
-5.10579e-235
0
2.38433e-113
3.48201e-203
2.74067e-52
-8.99918e-188
8.46595e-189
0
-2.76423e-64
5.30647e-115
-1.74597e-162
1.86739e-117
0
-1.35468e-112
-4.41791e-160
-2.50881e-13
0
6.07004e-183
1.199e-174
-6.36538e-28
3.41584e-78
2.56293e-18
5.10135e-302
5.98491e-122
1.11843e-259
-7.30831e-167
7.65503e-92
2.29486e-127
-1.65544e-209
5.34121e-186
0.000699109
32.5835
0
1.26495e-223
0.000656865
23.2769
1.76289e-121
1.55208e-80
1.21678e-55
6.01926e-100
2.59442e-95
2.15703
5.81989e-10
-3.39727e-76
2.0669e-226
-6.05197e-129
-1.01996e-125
-1.73277e-101
1.43158e-120
-4.81369e-188
5.31895e-219
0
8.18939e-222
3.62327e-06
-1.14047e-76
0
0
5.65268e-100
2.26202e-232
3.27049e-150
-2.10487e-185
0
9.36886e-56
0
0
1.63804e-266
8.5176e-134
3.18643e-237
2.59653
0
0
-1.5963e-180
-8.18796e-262
3.36853e-59
-5.4531e-164
3.64413e-250
0
4.54634e-07
1.13938e-53
0
-1.02328e-192
-9.636e-167
3.93868e-257
5.01632e-285
3.40539e-287
1.20932e-255
8.90262e-190
2.55519e-35
6.64242e-259
1.92369e-214
8.12102e-125
-7.66859e-96
3.61548e-12
9.62124e-259
-2.64166e-105
8.95017e-17
0
-1.34499e-128
0
1.47937e-145
0
1.87795e-256
-1.90241e-32
-3.17019e-121
-2.19903e-36
2.07873e-152
-4.57233e-175
-7.23712e-169
4.71014e-162
-9.96721e-174
-4.91012e-171
6.91552e-169
0
1.3867e-292
7.68037e-295
6.36674e-289
4.27101e-290
-4.02131e-12
0
3.88784e-55
6.53036e-136
3.569e-111
4.2343e-116
-2.41309e-119
1.69246e-181
-8.16262e-150
-1.96817e-122
3.1204e-151
-5.29921e-107
-1.63357e-90
1.94204e-87
-2.47256e-64
-1.08032e-115
-2.80584e-46
-5.63128e-121
-3.24636e-120
3.36234e-115
1.65253e-47
3.50322e-233
-1.09944e-274
2.49216e-147
2.92283e-276
6.11786e-231
18.3489
0.129157
2.79277e-231
0
0
0
-8.45369e-125
0
0
-6.65374e-11
3.27894e-122
6.50637e-15
5.48634e-228
-1.6181e-109
4.2874e-235
3.28018e-172
-1.95506e-85
1.88579e-149
-2.31859e-63
7.27729e-152
1.281e-235
0
8.99829e-124
1.75456e-110
-9.08437e-242
8.90671e-23
-1.88086e-87
5.87233e-164
5.95683e-98
8.57883e-87
0
0.0403325
-5.27054e-44
8.73763e-226
3.49388e-29
-3.52832e-122
0
0
0
1.44403e-14
2.38345e-49
-3.76715e-103
6.08462e-133
-2.92906e-163
5.84822e-151
7.91501e-65
4.79879e-100
-4.64021e-59
2.20357e-11
1.82805e-20
8.01875e-111
-6.76331e-67
1.16015e-198
4.93382e-81
-1.73192e-153
8.9208e-145
6.63269e-227
-8.22481e-156
-3.62835e-123
0
10.4818
1.5194e-147
4.25043e-17
3.69868e-117
1.90112e-165
-4.13412e-64
3.82032e-05
-2.1213e-118
2.55216e-137
1.30655e-164
-2.07031e-114
-1.48906e-82
-8.98646e-227
0
-5.55228e-63
0
9.445e-45
-1.90886e-283
-2.92182e-85
-3.66697e-72
9.08468e-213
1.64998e-16
-2.82265e-53
-3.17446e-126
2.39174e-215
5.86777e-16
0
8.08225e-235
2.16985e-58
0
-5.49447e-216
9.14066e-237
1.94786e-18
0.380379
4.1985e-149
0
-4.59038e-67
-3.92928e-87
3.76066e-131
-6.19596e-113
3.00932e-124
0
0
7.0568e-94
0
-1.45737e-74
1.16418e-130
-3.65321e-83
-1.75816e-207
5.39215e-64
1.36434e-56
-4.11048e-226
2.51936e-156
1.18234e-239
-1.35571e-60
-1.77457e-59
0
1.71136e-91
1.1667e-129
-2.22919e-199
-1.69195e-89
-2.55051e-282
3.29694e-47
-6.50962e-176
-2.33162e-125
6.50245e-85
0
-1.75361e-156
-2.10601e-39
1.56919e-33
0
-4.41911e-135
-1.23003e-28
5.78222e-152
5.55234e-05
0
-4.10162e-286
0
5.56913e-114
2.29013e-122
1.59981e-137
-1.26309e-279
-1.10927e-96
3.43353e-143
-4.22534e-101
-2.92965e-224
-4.27453e-22
0
-4.05094e-21
8.83389e-320
49.0986
-5.99972e-174
-2.673e-43
-2.51425e-299
-3.37558e-208
-1.7043e-93
1.14906e-234
3.99286e-252
-6.81991e-156
-1.10735e-120
-5.64e-120
3.27933e-33
4.44135e-77
3.93574e-79
0
6.2233e-237
-7.50446e-126
4.7367e-32
0
0
1.37033e-127
0
-4.10245e-35
1.45192e-05
0.507019
0
-3.24052e-171
-2.31564e-89
5.62252e-133
5.21012e-253
9.25143
0
1.42041e-51
-1.0526e-70
5.82664e-174
1.98397e-257
4.1872e-247
-4.20183e-216
-1.13261e-138
1.77393e-156
3.78166e-146
0
4.49106e-321
6.39158e-126
-2.87909e-201
-1.68622e-69
8.41123e-116
4.75922e-263
0
-7.83681e-89
12.2467
7.47348e-216
-1.29831e-61
0
6.28361e-144
-1.71377e-54
-3.72206e-153
5.48914e-94
-1.26818e-60
8.25004e-130
-1.56957e-127
0
9.09291e-309
-2.25455e-160
8.42971e-160
2.23911e-131
2.32254e-162
0
0
-4.07403e-272
-1.89414e-106
1.12625e-117
-8.60123e-67
2.62405e-145
8.09833e-66
2.18024e-117
-5.16637e-134
-8.18236e-61
-1.9681e-104
1.3399e-15
1.33377e-118
2.75759e-103
2.01225e-71
4.80357e-317
7.24033e-62
-6.10064e-93
0
0
0
-1.78994e-315
-7.9163e-32
-4.04552e-137
3.26198e-205
6.83586e-66
-5.65679e-154
-6.8066e-30
8.93878e-154
4.50271e-137
4.54194e-270
-6.38156e-50
0
1.8964e-106
-5.54446e-217
3.53842e-45
-3.6808e-59
6.59489e-139
1.05956e-145
0.0243327
-4.18212e-121
4.52801e-46
2.33634e-149
-3.52117e-31
1.04819e-06
0
1.25232e-225
0
-1.74636e-35
-2.52047e-224
7.90191e-154
6.58289e-16
0
3.4459e-96
-7.13156e-77
1.16692e-141
3.81558e-212
-4.42731e-140
1.41749e-294
6.1244e-129
1.00488e-290
1.24111e-298
5.44702e-135
6.8442e-130
6.11199e-130
2.13994e-138
-3.17491e-19
-3.66151e-156
0.270211
-2.21966e-115
-7.83864e-184
7.1254e-131
-9.52211e-117
6.40262e-108
-3.07024e-167
1.0159e-05
-7.24201e-72
-2.10764e-111
2.48481e-118
-2.07571e-186
-6.67191e-204
1.73857e-89
0
2.36492e-06
3.03584e-270
4.22141e-69
3.27807e-58
3.05196e-36
2.99822e-77
-1.2259e-106
1.26883e-78
-1.18272e-150
2.22628e-77
-2.19491e-84
6.44474e-47
2.09654e-121
2.6654e-56
1.97927e-120
0
-4.51731e-113
32.5757
-1.37179e-34
1.32519e-194
0
-7.58497e-261
1.29249e-166
-1.5147e-87
3.92109e-132
8.84506e-169
0
-1.22627e-190
9.96445e-109
-3.90051e-197
3.90247e-223
-3.11995e-58
1.48838e-167
9.3265e-95
-1.74668e-102
7.37709e-192
-1.7728e-182
2.65786e-59
0
6.72073e-171
0.414239
-9.37311e-307
-1.68793e-62
-8.77836e-60
5.53001e-185
-3.33033e-68
-9.90175e-101
-2.65718e-113
-6.3594e-81
4.70484e-232
-1.1231e-68
1.4058e-253
-2.08438e-170
7.24023e-105
-1.26558e-64
3.33696e-231
6.39544e-126
4.14294e-43
-4.33044e-96
-3.56973e-149
3.03005e-229
4.81132e-60
1.4757e-16
1.13039e-191
0
-2.95826e-112
0
3.12234e-07
-1.35959e-120
-1.5313e-40
7.47057e-161
3.07958e-171
0.0130225
-1.47634e-142
8.70397e-13
2.43079e-134
0.165398
-1.77532e-127
-5.79508e-144
-2.19666e-145
-3.06028e-201
2.0009e-18
1.16736e-22
0
4.19956e-322
-3.65545e-59
8.10298e-306
3.59418e-10
-6.37627e-85
1.82293e-27
2.31611e-228
35.7454
6.82581e-08
-1.0582e-118
0
6.49562e-239
1.15255e-75
-4.33751e-164
1.69986e-143
1.73989e-156
-3.09485e-122
-7.80169e-87
0.00242356
-7.50854e-18
0
-3.63761e-76
1.0541e-81
-3.21089e-55
-5.97778e-152
1.90685e-49
1.03642e-121
6.05291e-73
1.99026e-211
0
-2.75151e-83
2.24806e-75
-2.82415e-171
-4.81548e-63
-8.86808e-43
-2.75472e-186
-1.02694e-116
2.54615e-215
-6.24679e-170
-3.45209e-29
-5.88662e-167
-1.04292e-93
-1.94578e-86
9.73763e-137
2.56243e-215
1.43892e-146
9.0048e-45
-2.30355e-164
-2.94046e-154
0.00519319
1.74675e-102
4.96419e-184
6.08643e-09
0
-2.17342e-161
-4.65978e-124
-1.12761e-164
-3.28503e-275
2.53481e-117
0
9.49295e-34
-4.2396e-244
-1.55213e-98
7.63637e-73
1.8369e-67
1.73042e-154
3.70817e-158
-6.70401e-85
1.19806
3.27781e-314
6.49408e-163
3.8919e-186
6.47042e-11
2.59589e-75
3.64284e-234
0.00031176
0
-6.62798e-243
18.6786
4.14064e-181
3.53291e-229
3.06528e-224
-1.6958e-88
2.34115e-79
-1.6985e-304
3.97576e-170
2.56472e-53
1.31416e-125
5.95995e-127
-1.59651e-158
0
6.95332e-77
6.05647e-33
1.76033e-128
-1.83771e-66
2.21289e-136
-7.52604e-170
-1.94317e-35
-4.72622e-83
-1.15156e-155
3.11297e-241
-2.58745e-20
-1.27685e-130
-7.94644e-93
9.04136e-213
-7.98808e-313
-7.57772e-65
-9.70388e-50
-1.03336e-168
1.82049e-76
-5.07196e-166
1.21759e-153
-3.8009e-207
5.39724e-80
11.2125
0.276831
-1.24274e-78
-1.35019e-131
1.1748e-209
-1.20274e-82
1.12663e-08
4.25388e-70
3.99679e-236
-4.66222e-55
-6.98116e-34
0.0172748
2.64108e-199
0.551674
2.39352e-313
1.07697e-151
2.84017e-310
-6.59515e-37
-4.80579e-91
0.366094
3.19536e-256
1.00066e-09
1.78713e-302
-2.54526e-132
-2.15908e-107
-2.69978e-165
-1.3741e-54
1.0046e-17
6.39229e-174
-2.30061e-216
7.35224e-174
1.70258e-198
7.85075e-177
-2.35885e-37
-2.65393e-95
5.02392e-159
-8.56962e-41
2.67262e-178
-2.03292e-304
8.88432e-134
1.96891e-257
3.66795e-57
2.44174e-178
-1.15327e-37
8.24138e-38
2.00498e-83
-2.26841e-96
-1.01692e-105
-2.78132e-146
-3.25527e-09
-3.85052e-173
9.11784e-186
0
-7.98348e-52
1.65639e-72
3.86417e-258
-1.53285e-70
1.35073e-162
-5.63394e-96
1.18968e-76
-1.14945e-68
-2.96481e-108
9.37543
-1.33017e-105
4.88525e-81
2.8298e-18
1.48354e-166
-2.84522e-22
-4.88291e-91
-3.11205e-311
-2.27924e-170
-1.33546e-224
-3.5554e-149
0
-6.45002e-229
-9.2964e-35
-8.90363e-48
-1.36444e-233
19.6836
3.84667e-61
-1.1789e-276
1.01171e-32
-5.91005e-57
3.52607e-286
6.52442e-29
1.18844e-74
-4.99651e-39
1.01756e-291
-1.80262e-205
-2.06518e-194
7.18286e-288
-1.37698e-62
0.00201641
8.95603e-239
-1.72745e-32
0
1.31822e-05
2.30474e-78
1.43372e-117
0
-9.50468e-241
1.2388e-148
-3.43755e-112
3.16562e-39
-4.7972e-95
4.93628e-182
-1.51104e-171
8.74327e-296
5.21405e-83
1.11797e-77
2.41716e-222
0
7.58175e-141
-8.8923e-99
-1.34257e-88
-6.72657e-270
-1.95164e-33
9.3122e-52
-8.99657e-307
-3.91098e-116
-2.8271e-174
-4.81828e-157
36.9075
4.35614e-181
4.51714e-279
1.88235e-131
3.69249e-74
1.13183e-87
3.53609e-06
6.75014e-99
-6.43834e-177
-2.64443e-92
-1.05195e-165
1.97251e-177
-3.57461e-174
7.12864e-167
1.10249e-49
3.70506e-146
0.109089
3.21182e-85
7.83397e-24
-2.86604e-174
1.14313e-28
3.31809e-65
1.74383e-54
3.74816e-26
-1.85754e-126
4.46315e-185
1.88545e-188
-1.31677e-134
0
3.05413e-160
2.05844e-73
5.61924e-69
-4.49661e-168
-2.26782e-307
7.50009e-133
-8.52992e-111
-3.99799e-73
-3.21571e-80
-2.325e-54
2.9361e-74
-1.13993e-210
-1.11451e-99
1.14707e-13
1.02351e-75
0
-6.41515e-206
-7.63598e-168
0
-1.06738e-101
1.03294e-316
1.51751e-157
-3.126e-30
2.71764e-69
-9.864e-34
1.23922e-313
4.38357e-252
0
-1.42335e-168
2.81635e-196
4.11943e-54
4.20476e-194
1.02961e-249
5.27155e-25
-3.92106e-103
1.25181e-160
-3.39707e-104
-7.45117e-46
-1.45584e-195
2.36296e-31
1.79964e-190
-2.26314e-307
2.73652e-20
9.97796e-141
1.81851e-47
4.37821e-191
0.637349
8.65574e-81
2.23498e-102
-6.07764e-131
1.97354e-78
0.000562506
-9.79954e-179
-4.41462e-57
-2.20308e-77
-4.44826e-104
-3.24258e-223
-4.24675e-176
3.61934e-22
-5.68503e-151
-3.08285e-41
-2.02847e-178
3.85727e-183
3.77155e-33
-1.88356e-288
-2.12522e-199
-8.04165e-176
8.89862e-140
-1.69475e-30
9.41118e-179
-2.16722e-169
0
-4.86619e-75
6.23709e-21
-3.95631e-116
4.84748e-169
6.60944e-124
-6.04812e-198
-7.49374e-241
0.0039992
6.33489e-92
0
-3.07566e-97
-3.59557e-200
2.65995e-78
8.58039e-49
-1.16156e-157
-6.63348e-166
8.6464e-56
-8.63412e-45
0
-2.17516e-138
-1.42734e-46
-1.90333e-255
0
4.36548e-110
-1.7771e-137
-7.32445e-155
0
3.21963e-119
7.73756e-33
7.57352e-280
9.3106e-63
-2.14714e-311
-9.58893e-224
-5.8399e-109
3.46298e-14
0
0.000380798
1.67462e-89
-4.29992e-67
0.00308966
4.87399e-85
2.11447e-142
1.46521e-07
6.54658e-166
1.86519e-15
-6.80704e-35
9.61938e-130
-4.33737e-162
-8.87295e-165
2.42631e-185
1.98058e-194
1.28853e-92
1.95386e-11
17.7583
-1.69927e-99
-5.51233e-49
6.94068e-27
-4.5609e-103
9.76999e-08
-1.97729e-273
-6.3297e-183
-1.35047e-49
-2.04207e-118
-7.34677e-223
-5.4728e-101
-1.09942e-181
0.000978682
0
2.12817e-209
4.81369e-264
33.4157
1.98322e-60
9.19779e-89
-4.00491e-151
-2.06905e-43
7.5224e-169
1.41066e-247
-1.99592e-25
-8.11548e-179
2.18733e-24
-9.4719e-92
-6.01683e-181
1.80827e-56
2.55869e-134
9.26718e-170
-1.70699e-244
-5.31235e-238
8.5113e-07
1.32137e-35
-2.5359e-225
-3.46984e-47
7.02321e-161
4.71985e-76
0
2.83772e-134
-4.71057e-27
4.23756e-60
1.45575e-82
1.53545e-130
4.35557e-249
-2.9663e-71
-5.2752e-163
1.205e-252
9.98708e-37
-2.71329e-65
1.13426e-201
8.33526e-54
-1.94088e-150
0
8.34054e-227
0
8.5973e-73
0.204779
2.58446e-31
-1.74378e-73
5.10726e-211
-2.90584e-158
1.0438e-138
0
3.90832e-22
2.65407e-136
0.796947
4.37905e-46
7.12892e-179
1.67937e-206
2.30719e-268
3.37758e-186
-8.86239e-165
-2.0531e-220
0.00118409
1.37475e-63
3.45705e-89
-3.53975e-33
4.60762e-77
2.21278e-255
0
1.11585e-221
8.95105e-67
2.3379e-12
-1.8833e-46
-4.07298e-114
8.07473e-94
-4.30995e-118
2.05858e-65
4.47086e-12
9.19929e-08
9.17369e-163
1.26289e-133
-6.56849e-90
8.39992e-203
0
6.23826e-221
1.64565e-58
7.96386e-197
-1.16524e-145
5.33138e-176
5.53409e-82
-1.21685e-36
-2.25283e-187
7.74212e-219
-1.72844e-45
-1.49989e-70
5.21813e-148
4.32055e-222
2.65044e-96
-1.56563e-35
2.64997e-68
-1.65449e-67
9.70767e-101
-2.01528e-168
9.63994e-21
-8.62945e-157
-2.66742e-47
4.25007e-242
9.56161e-32
-1.45668e-45
-2.8269e-313
6.11436e-263
10.0524
1.49599e-227
2.50696e-142
-2.05241e-80
-1.02481e-188
-5.63079e-188
5.81164e-165
3.09489e-230
0
-2.08982e-87
-1.83334e-25
9.90133e-269
1.56609e-09
1.67192e-185
5.42867e-227
-3.20105e-30
7.05509e-24
-2.09619e-67
6.123e-172
6.58495e-219
2.02359e-89
20.675
2.05243e-194
8.40104e-271
6.36524e-280
-3.58015e-196
8.36293e-116
-2.11422e-91
-3.94563e-199
4.13633e-123
-4.65236e-204
9.91528e-05
-4.10084e-31
1.42442e-141
-1.26903e-71
1.39166e-182
2.4547e-225
-2.27692e-72
2.29467e-07
2.11041e-139
2.75595e-277
2.54077e-228
6.34191e-37
-1.43836e-190
9.2356e-246
6.55408e-50
3.65031e-174
-9.76788e-233
27.9432
-2.31657e-45
2.75183e-08
-1.20247e-72
-2.96085e-192
4.34011e-67
1.96109e-27
2.51819e-10
1.44037e-182
-9.30005e-105
0
1.44402e-06
0
-3.26944e-187
2.5246e-201
3.55692e-277
-1.61257e-113
1.20173e-146
-9.29667e-190
2.68274e-185
4.82883e-07
6.34059e-37
4.88384e-129
9.82172e-219
-1.62505e-76
4.97791e-06
-1.53219e-41
2.30193e-86
2.82766e-98
8.5491e-188
-2.68034e-163
-8.66524e-278
-3.33282e-205
7.91309e-266
1.62762e-221
6.76776e-87
-2.34331e-38
-1.54555e-65
1.88901e-08
-5.85928e-14
-1.79647e-31
6.57722e-65
2.19272e-08
7.61851e-249
-5.24228e-24
2.35245e-230
-2.85177e-11
-1.79996e-43
-3.32999e-100
-1.52385e-203
-6.78182e-95
-1.18917e-86
2.61909e-156
0.172552
1.81888e-29
4.91358e-09
3.71294e-224
-8.60889e-34
2.14759e-21
-1.39175e-43
2.34431e-20
-4.59851e-37
2.82932e-231
-3.31931e-162
1.07884e-137
8.25088e-209
-8.83863e-75
1.77817e-192
-2.28655e-91
1.23022e-321
7.52796e-174
3.90342e-89
2.68329e-123
7.21196e-255
6.61643e-94
3.0437e-11
5.4388
-7.94302e-281
6.44899e-98
-1.30551e-188
1.31437e-24
5.57105e-79
0.000561335
3.14102e-18
-4.98367e-187
-1.26258e-109
1.70929e-20
-1.41726e-40
-8.73711e-18
-2.58407e-106
3.93212e-31
4.89406e-261
6.12421e-11
-9.29766e-48
1.18465e-218
-1.44361e-21
1.4936e-18
8.36756e-91
2.56945e-09
2.96315e-188
9.39172e-24
6.73821e-153
-3.37016e-289
-2.57484e-144
5.74487e-166
2.78446e-12
-2.47097e-36
2.41902e-14
-2.76031e-249
8.37599e-08
-7.66927e-98
6.25933e-46
-4.05672e-63
-7.26355e-114
-4.27733e-135
1.79942e-16
1.98632e-185
2.88088e-213
8.41915e-88
2.85214e-25
-3.97511e-82
-5.97998e-70
4.83493e-110
1.40563e-09
-1.74798e-64
1.98013e-75
2.82773e-25
-4.04602e-271
1.60452e-20
-3.24625e-62
9.36595e-22
-8.86872e-146
1.51508e-22
-1.77385e-270
2.6067e-77
3.18098e-144
1.56658e-43
1.02171e-138
7.83332e-90
3.7869e-25
4.81891
4.82388e-170
-1.61879e-133
5.56915e-86
-1.46288e-54
2.54408e-77
-9.78111e-186
4.21819e-99
1.31964e-271
0.133841
0
3.72171e-271
0
-2.9876e-35
-1.76491e-230
4.32822e-91
2.20827e-10
1.95974e-140
2.52222e-113
-6.30324e-219
0
1.51866e-25
6.59074e-279
2.93777e-75
4.82042e-41
2.17977e-91
-5.53914e-19
-1.3292e-191
-8.38713e-103
-4.70984e-27
9.94881e-70
1.93001e-149
6.8852
0
0
3.29902e-168
37.7137
-1.60982e-148
1.81684e-176
1.21975e-21
3.33685e-201
-7.30812e-189
-2.81317e-61
-9.46979e-29
2.12941e-81
8.04202e-19
-2.27165e-194
7.16219e-177
1.29975e-132
4.73032e-135
-1.55923e-42
2.76398e-233
4.95072e-173
2.62423e-105
-1.1189e-36
-6.9736e-141
1.17834e-257
-1.2759e-93
-1.09404e-40
0
0
9.20293e-20
2.17203e-81
5.54082e-18
-4.99961e-187
0
-9.40923e-39
-1.72959e-35
-2.30027e-252
8.5616e-192
9.75008e-274
4.41038e-05
0
7.78335e-84
2.252e-26
0
0
-7.74136e-72
-1.66503e-294
0
-4.06726e-130
4.92148e-36
3.80724e-260
9.29685e-64
3.85653e-282
-6.43602e-29
0
8.23717e-22
4.76233e-32
-2.94081e-82
0
-6.44623e-62
0.000165316
-2.43773e-202
2.28332e-95
-1.20622e-302
9.44553e-36
5.52149e-285
-4.03788e-29
-2.64059e-43
3.39722e-169
0
2.15606e-32
-1.4406e-38
6.16744e-141
3.123e-143
1.4376e-38
-1.16915e-291
-4.17465e-63
0
-2.11987e-31
-3.53249e-30
-7.33731e-47
1.0692e-80
-4.252e-49
2.90454e-06
7.23055e-90
4.70089e-142
5.20364e-39
6.26509e-189
-1.22676e-57
7.71748e-38
1.62945e-79
-1.62881e-184
6.18352e-13
0
4.96449e-15
12.0876
-1.49249e-208
-4.31079e-41
0.159212
2.95564e-73
2.32544e-139
-2.83987e-63
9.00952e-103
1.83305e-268
-5.92058e-31
1.45715e-13
8.2058e-05
4.14539e-188
1.63871e-74
4.37126e-25
5.87729e-33
-7.50425e-221
0
-3.42444e-120
2.5287e-17
-4.23064e-25
-8.51185e-42
0
-2.90291e-286
-2.77857e-38
7.10076e-197
-2.0716e-116
3.05688e-189
0
-3.25699e-27
1.87736e-196
-1.04866e-27
6.01596e-139
2.51673e-301
1.51678e-321
6.7409e-35
2.6447e-189
-1.95659e-72
-1.14185e-41
1.67533e-14
1.49421e-98
9.04863e-260
-3.5184e-23
1.97785e-149
4.04077e-274
-1.40236e-171
6.07433e-37
1.16947e-200
1.77389e-35
-5.38386e-121
36.8452
4.03746e-39
-3.16494e-242
3.32202e-27
0
9.39428e-34
1.58511e-96
1.34107e-20
1.22858e-18
1.80971e-81
2.3888e-24
2.11143e-298
-2.19317e-38
-1.05943e-197
6.01005e-100
7.05898e-29
2.24351e-80
8.62329e-29
3.02238e-14
-6.29473e-43
-1.13234e-37
2.00614e-18
2.78989e-254
4.96964e-278
0
9.50359e-25
-7.67237e-49
2.23541e-251
-2.82735e-29
-1.21928e-31
1.0054e-119
-2.08126e-59
3.50752e-142
1.80771e-71
-1.46771e-24
-5.54459e-136
1.29322e-101
-1.45971e-94
0
0
3.21917e-249
4.64842e-187
2.55846e-145
3.50144e-306
2.72345e-161
-3.72365e-170
-1.3165e-107
-7.49478e-87
8.23869e-221
-3.35169e-30
0
4.38216e-39
6.24672e-19
1.35122e-238
1.15579e-15
8.13047e-55
3.24233e-31
-6.40978e-142
-7.59443e-43
-7.31113e-197
-4.24021e-105
1.76608e-119
0
-2.75792e-197
2.41365e-173
9.31333e-236
0
4.04397e-107
0
4.80483e-64
7.42529e-81
3.76339e-10
3.21079e-311
-1.31363e-118
2.84555e-303
-1.37567e-200
-2.02005e-47
-5.74513e-122
-1.49697e-247
33.8952
3.35829e-34
3.49043e-80
-5.09983e-116
8.51421e-41
2.87193e-50
-3.14591e-176
4.55119e-68
-4.2873e-36
1.3025e-167
0
6.54052e-160
-1.49354e-37
1.30718e-280
1.61274e-251
1.02274e-33
5.6277e-207
5.89666e-199
3.97554e-186
2.06885e-257
1.9023e-23
2.66933e-308
3.63322e-254
-2.43879e-83
-7.77987e-68
2.62845e-08
1.83451e-33
2.4793e-112
5.15131e-241
5.99446e-68
6.67473e-244
2.09761e-79
1.70062e-160
-1.08905e-167
-8.39995e-22
-5.49035e-313
-9.66407e-64
1.15606e-104
-7.91986e-40
2.99128e-75
0
-8.53992e-171
0
-1.44649e-68
-2.79544e-284
-1.55678e-49
-8.18613e-117
1.91757e-179
1.98442e-107
-2.16454e-107
0
7.39165e-63
2.77742e-75
1.18046e-186
1.62472e-79
-2.14847e-31
0
4.58073e-101
1.73567e-29
-5.74512e-59
1.16268e-144
-7.67028e-98
-2.03413e-95
-5.66146e-123
-1.18134e-139
7.11286e-34
-1.31899e-138
3.27003e-242
1.42691e-244
1.35464e-22
-2.03581e-29
-1.87694e-29
-2.97383e-16
-2.09235e-69
-6.00206e-54
-4.21973e-118
1.12133e-66
-4.23515e-246
1.92033e-10
1.79654e-198
3.38545e-17
-2.14073e-50
2.19743e-246
-1.00456e-53
-1.42425e-33
-3.14422e-33
-1.90766e-114
-1.06233e-72
-4.16051e-249
0
-1.92768e-39
0
1.48653e-318
-5.28524e-39
3.24836e-198
2.96244e-127
4.54673e-257
-1.51215e-189
2.07277e-40
0.0474848
1.58735e-210
-2.90875e-216
-1.74734e-39
-2.5598e-78
3.86743e-29
3.84058e-65
2.14648e-55
-3.35495e-205
-1.15533e-89
-2.0048e-75
-5.19717e-44
1.59432e-63
1.75737e-246
-1.97046e-46
2.72652e-79
-1.51906e-51
1.6294e-158
3.89745e-252
-2.69415e-43
1.4031e-205
0
-2.03006e-63
-1.84026e-20
-3.54697e-310
3.2019e-77
6.01199e-117
4.42315e-218
-1.94225e-144
7.72066e-219
-1.87407e-65
3.23456e-241
4.73722e-255
4.22228e-137
-8.95735e-65
-2.89011e-78
-2.94958e-50
0.00548844
4.51127e-173
-1.29246e-118
5.89173e-17
1.17067e-85
5.64013e-221
1.30783e-81
2.49043e-30
3.35965e-322
4.06385e-204
0
-5.75327e-71
-5.13921e-38
3.1197e-138
0
-3.63455e-154
-1.91434e-156
-3.01379e-175
2.92316e-24
-7.30389e-201
0
0
-5.69355e-77
-1.10999e-116
9.71834e-16
1.08059e-155
5.34333e-96
2.37836e-118
-1.32293e-65
2.80697e-275
-3.29496e-53
0
2.59825e-316
0
3.44819e-35
-7.19527e-191
1.15743e-63
8.43102e-95
-6.17787e-79
-9.95878e-68
-3.47596e-75
-7.4337e-36
1.71862e-54
-7.41009e-195
7.4222e-103
3.27549e-84
4.99938e-90
2.73911e-46
1.04548e-203
0.0137443
1.50493e-38
1.20281e-42
-7.626e-319
5.67565e-08
-8.18176e-66
8.28815e-70
1.10895e-52
-6.71511e-48
-1.64613e-119
-7.87121e-170
-1.84511e-192
-4.21413e-211
-3.76198e-204
-3.04025e-35
6.29218e-55
-1.90178e-201
-1.04745e-83
4.46751e-178
-9.36453e-197
1.37642e-139
6.90171e-84
-1.00908e-161
1.46433e-109
-3.00428e-87
1.22118e-102
-5.1117e-57
1.6623e-121
1.25021e-297
1.35487e-141
4.51025e-193
-2.76668e-30
4.23886e-282
4.69976e-196
7.67119e-76
9.96875e-13
-1.1106e-239
1.5926e-14
2.80532e-248
9.65097e-208
5.20542e-141
-1.7854e-79
3.72833e-88
5.47568e-276
6.93411e-81
2.29029e-78
-2.64456e-28
2.25364e-313
-1.48966e-97
7.22141e-106
-4.67902e-169
0
0
4.78052e-50
-3.44207e-114
-6.55519e-148
0.0265667
-4.80071e-67
2.72201e-83
-5.9513e-51
3.85713e-139
3.86563e-28
1.10951e-170
2.60979e-140
3.49533e-168
1.0453e-176
-7.77461e-25
7.05973e-97
8.1296e-65
1.34277e-92
-3.65848e-266
3.96582e-79
3.40794e-77
-1.09139e-38
1.87025e-182
3.00069e-84
5.49111e-12
-6.06928e-20
2.69768e-251
-8.72473e-35
7.16733e-143
0.000212701
0
1.92706e-66
1.68562e-94
0
-1.37725e-69
-1.42172e-169
-9.45343e-151
-1.89965e-56
-8.43061e-28
6.17876e-42
-2.8586e-150
-2.95925e-78
0
-4.72897e-200
-2.33928e-23
-2.1554e-67
-2.95904e-194
1.91923e-78
-3.1911e-44
-1.94018e-81
-1.30354e-119
-8.59253e-109
1.95939e-94
-2.25344e-25
9.23121e-264
-2.24435e-113
1.14488e-143
-1.01567e-60
-2.38862e-18
3.32193e-83
-1.20278e-84
-9.08325e-182
0
-1.6853e-58
3.2007e-83
-1.09235e-84
-6.52951e-271
-1.02427e-139
8.35761e-102
-4.81773e-85
-2.91695e-51
-2.78342e-76
3.25584e-182
-2.84241e-81
-9.61108e-194
-8.42363e-64
-3.21821e-142
7.48664e-63
-2.02273e-120
2.19989e-148
-7.71737e-89
-9.22352e-139
-5.82228e-147
-3.91663e-175
1.54458e-265
-1.73461e-117
5.08597e-102
7.72507e-141
4.71542e-06
6.49396e-20
-3.78123e-221
-7.69228e-197
3.56359e-120
-2.13252e-112
0
2.68594e-63
-6.52313e-72
1.32186e-69
0
-3.24861e-32
7.72762e-82
-4.79995e-42
-6.16515e-65
-8.92643e-319
4.11495e-168
-2.84546e-150
-1.93265e-84
1.32665e-25
1.09719e-05
-9.42997e-257
2.07227e-130
3.32348e-154
-3.94418e-37
-1.3752e-26
-3.40047e-40
-5.66039e-103
-8.65748e-87
0
-1.56979e-104
-1.32761e-101
-3.69965e-254
-1.41352e-44
1.02935e-124
-3.6242e-97
-6.31674e-85
5.22788e-126
-2.50357e-118
1.95921e-82
-4.07505e-320
0
-2.37256e-99
7.99453e-129
3.83003e-22
1.06453e-145
-4.67339e-47
4.75515e-35
-6.72076e-81
3.25633e-252
1.20877e-114
3.66879e-84
8.38757e-263
4.4143e-19
1.77287e-23
8.82619e-214
0
-1.94117e-218
1.04087e-265
0
9.11188e-120
-5.93287e-159
2.5005e-54
-7.19023e-126
-1.76077e-80
2.08809e-88
-6.77684e-38
4.08556e-87
-2.02995e-68
-3.97472e-132
1.2746e-137
3.15484e-77
4.51793e-319
-6.49076e-146
-1.39053e-174
7.81779e-66
-8.99595e-53
4.65012e-22
0
-6.96723e-55
4.75344e-97
4.04104e-124
-6.37784e-51
5.9421e-71
-1.16617e-54
-3.93512e-26
-4.2111e-111
-1.01966e-47
6.94202e-141
6.78311e-185
2.79099e-95
1.35667e-71
9.19009e-270
-2.32507e-131
1.59954e-22
7.55113e-149
-6.15196e-28
1.62454e-252
-1.76372e-72
5.04507e-176
5.89599e-182
1.07257e-62
-6.79279e-45
2.45382e-65
2.82377e-152
-1.56948e-136
-1.97312e-125
-1.98219e-46
5.50316e-70
-8.8809e-90
4.2758e-52
0
-1.00221e-115
2.78615e-05
3.76886e-37
-3.75682e-164
4.7658e-16
-2.36433e-74
-1.0958e-149
3.10078e-297
9.54951e-28
1.541e-71
-4.42192e-128
-1.19256e-84
1.28249e-241
1.59928e-92
-8.49481e-167
3.813e-61
-1.96022e-76
-8.11792e-83
3.3587e-52
0
5.58376e-204
1.5611e-162
2.01424e-190
-1.32181e-194
-3.74731e-111
-9.51288e-147
3.32661e-159
-4.64724e-42
1.14253e-58
0
-3.679e-68
-4.26131e-202
5.90971e-318
-1.73036e-58
7.76852e-244
1.68913e-138
-1.65922e-135
-5.52661e-272
-2.70568e-263
-3.31416e-161
7.05928e-102
-2.47959e-120
5.64895e-67
-2.47888e-100
-6.78751e-57
9.69681e-69
-5.22344e-130
-5.41031e-110
-1.6503e-80
0
-2.03737e-133
1.40843e-170
-4.58488e-140
6.13629e-20
-4.45843e-104
-4.02865e-129
2.34449e-99
-4.36846e-124
1.16168e-162
5.60551e-157
1.86181e-123
-6.9442e-182
-5.50439e-65
5.84506e-99
5.13482e-320
-4.92532e-103
3.42991e-90
8.95551e-100
-1.71872e-295
1.07121e-58
-4.51266e-30
-1.34748e-191
2.32495e-82
1.94279e-82
-1.10782e-206
-2.1626e-58
2.37553e-59
4.62999e-76
2.90188e-67
-2.57739e-66
-1.75953e-97
7.10616e-101
-1.58396e-84
-4.79922e-87
-8.25785e-241
1.91139e-178
0
-5.2195e-194
-4.17273e-297
-1.2066e-134
-9.18867e-120
2.90539e-78
4.9258e-85
3.55786e-07
-4.50322e-44
8.55022e-05
-3.03591e-102
-1.16389e-28
1.25278e-08
-1.22108e-43
5.13491e-05
-1.57981e-170
-1.67391e-119
1.59926e-142
1.22911e-141
4.22838e-95
-4.54541e-212
-1.24578e-120
3.68049e-177
-2.61627e-298
1.85806e-103
7.73051e-12
-2.47522e-139
3.46126e-97
-1.91517e-141
1.23008e-164
-6.24075e-107
3.81922e-122
3.2368e-174
-1.56687e-121
-1.77325e-177
3.06084e-52
1.48284e-80
2.67969e-84
8.13815e-87
4.38317e-19
-4.98165e-52
1.44099e-94
4.08754e-140
0.135025
1.11686e-141
1.98729e-109
3.16814e-74
4.75944e-61
-3.12478e-111
-2.12453e-70
4.3825e-260
-9.49621e-74
-4.20721e-59
-2.48295e-89
1.86836e-89
2.39449e-147
3.49804e-127
-1.01054e-70
6.76983e-178
-1.70877e-82
-1.20655e-123
2.60586e-152
1.47088e-255
7.74854e-144
1.88024e-107
-2.47559e-157
5.65789e-141
3.54526e-157
-7.22788e-205
-2.40097e-67
-1.70396e-169
6.02333e-44
3.31514e-93
-1.09471e-123
4.33e-271
4.44468e-192
1.877e-77
-1.98789e-128
0
-2.69941e-92
4.31849e-09
2.872e-99
-1.77787e-149
1.06067e-143
1.44636e-21
3.89128e-15
0.00251917
-1.81446e-206
5.01252e-209
4.29776e-170
1.72582e-150
-3.02615e-86
2.69785e-32
3.02212e-26
-2.44726e-50
-1.57612e-93
-7.07395e-179
1.47622e-291
8.70612e-287
-3.63286e-59
1.85997e-147
2.5987e-67
-1.98172e-197
-5.68116e-44
5.62496e-179
-1.04417e-120
5.07665e-29
-1.13247e-82
-6.18111e-79
-3.37383e-178
-9.52456e-134
-1.35863e-315
2.4847e-72
-3.06541e-95
-1.70723e-176
-7.26568e-300
5.91355e-133
-8.44735e-44
1.64232e-214
2.41506e-91
1.88207e-22
0
-1.12266e-160
-3.92446e-76
3.65139e-80
8.23503e-96
5.27456e-225
-1.59738e-206
-1.98349e-199
0
5.03535e-285
-5.28955e-143
2.18152e-111
-1.18043e-316
-7.04032e-145
1.79702e-200
27.3973
-1.70725e-57
-4.64308e-197
0
-1.42758e-91
-1.45285e-138
3.06787e-63
8.25296e-94
2.73417e-136
8.39184e-306
-3.75954e-206
-1.18645e-77
0
-3.11243e-144
-1.3137e-62
2.00081e-102
8.4557e-279
4.16534e-132
0
2.26586e-138
1.50572e-144
1.17785e-211
2.57891e-50
-2.53193e-110
-4.11515e-159
1.10824e-154
1.64546e-68
1.07002e-100
0
0
-1.13636e-183
4.2047e-77
1.39835e-134
-3.56847e-184
-5.26242e-144
-2.07038e-67
-4.89959e-98
0
3.01435e-193
1.87918e-109
-1.26613e-227
6.47149e-96
2.42296e-128
-3.89051e-191
-3.5464e-49
-8.78078e-112
3.5547e-62
-3.58838e-53
1.43955e-144
1.19241e-15
-1.22809e-79
7.55463e-30
-1.28123e-215
1.14023e-50
3.54341e-98
-1.10999e-164
-2.42957e-184
-3.82645e-66
1.37824e-102
8.07936e-171
7.27521e-80
1.07162e-85
-2.13388e-179
-1.25179e-147
1.20213e-122
1.20748e-251
-6.97707e-92
-1.20147e-256
2.79598e-111
-4.20884e-85
-5.4797e-186
1.01585e-224
-3.38689e-69
-3.76248e-86
3.38543e-89
3.24847e-180
-1.24344e-111
-2.67036e-87
-7.31139e-112
-1.69074e-95
-5.06046e-276
8.87421e-185
-1.83691e-89
4.70342e-112
-3.26822e-69
2.15421e-277
-4.69623e-151
2.34813e-146
1.73355e-97
-4.62387e-163