/*--------------------------------*- C++ -*----------------------------------*\
  =========                 |
  \\      /  F ield         | OpenFOAM: The Open Source CFD Toolbox
   \\    /   O peration     | Website:  https://openfoam.org
    \\  /    A nd           | Version:  7
     \\/     M anipulation  |
\*---------------------------------------------------------------------------*/
FoamFile
{
    version     2.0;
    format      ascii;
    class       volVectorField;
    location    "3.5";
    object      U;
}
// * * * * * * * * * * * * * * * * * * * * * * * * * * * * * * * * * * * * * //

dimensions      [0 1 -1 0 0 0 0];

internalField   nonuniform List<vector> 
2413
(
(1.82463 -0.0771926 0)
(1.8261 -0.0764134 0)
(1.82753 -0.0752817 0)
(1.82895 -0.0741329 0)
(1.83056 -0.0732697 0)
(1.83204 -0.0718709 0)
(1.83341 -0.0704643 0)
(1.83465 -0.0688559 0)
(1.83563 -0.0667133 0)
(1.83656 -0.0645072 0)
(1.83755 -0.0625526 0)
(1.83874 -0.0608978 0)
(1.84018 -0.0592675 0)
(1.842 -0.0578737 0)
(1.84413 -0.0568637 0)
(1.84638 -0.0560085 0)
(1.84879 -0.0552832 0)
(1.85111 -0.0548637 0)
(1.85298 -0.054873 0)
(1.85467 -0.0552389 0)
(1.85582 -0.0559245 0)
(1.8569 -0.056599 0)
(1.85832 -0.0573241 0)
(1.85957 -0.0580526 0)
(1.86086 -0.0587771 0)
(1.862 -0.059378 0)
(1.86299 -0.0597317 0)
(1.86391 -0.0600526 0)
(1.86478 -0.0604519 0)
(1.86553 -0.0608358 0)
(1.86625 -0.0608864 0)
(1.86698 -0.0606156 0)
(1.86783 -0.0600008 0)
(1.8687 -0.0591478 0)
(1.86974 -0.0585294 0)
(1.87079 -0.0581159 0)
(1.87164 -0.0576297 0)
(1.87223 -0.0572022 0)
(1.87291 -0.0568395 0)
(1.87366 -0.0564306 0)
(1.87447 -0.0561425 0)
(1.8753 -0.0560852 0)
(1.87597 -0.056088 0)
(1.87624 -0.0559869 0)
(1.87607 -0.0558253 0)
(1.87575 -0.0556062 0)
(1.8751 -0.0551784 0)
(1.87395 -0.0547001 0)
(1.87225 -0.0538788 0)
(1.87 -0.0528074 0)
(1.8668 -0.0519923 0)
(1.8627 -0.050245 0)
(1.85802 -0.0473352 0)
(1.85446 -0.0452141 0)
(1.85342 -0.0446109 0)
(1.85187 -0.0434173 0)
(1.85073 -0.0422585 0)
(1.84957 -0.0415384 0)
(1.84818 -0.0400687 0)
(1.847 -0.0389767 0)
(1.84555 -0.0383961 0)
(1.8439 -0.0378999 0)
(1.84213 -0.0372276 0)
(1.84016 -0.0365236 0)
(1.83814 -0.0360744 0)
(1.8363 -0.0359099 0)
(1.83467 -0.0355928 0)
(1.83296 -0.0348094 0)
(1.83137 -0.0342498 0)
(1.83011 -0.0339947 0)
(1.82882 -0.0333804 0)
(1.82749 -0.0324763 0)
(1.82657 -0.0316754 0)
(1.82536 -0.0308479 0)
(1.82447 -0.0301424 0)
(1.82364 -0.0295011 0)
(1.82249 -0.0291043 0)
(1.82141 -0.0286354 0)
(1.82033 -0.0282726 0)
(1.81897 -0.0278487 0)
(1.81791 -0.0273721 0)
(1.81682 -0.0268198 0)
(1.81551 -0.0265563 0)
(1.8144 -0.0262665 0)
(1.81328 -0.0258012 0)
(1.81218 -0.0252277 0)
(1.81119 -0.0247392 0)
(1.81037 -0.0240582 0)
(1.80968 -0.0231412 0)
(1.80896 -0.0224501 0)
(1.80852 -0.0216496 0)
(1.80835 -0.0208372 0)
(1.80785 -0.0203306 0)
(1.80749 -0.0197865 0)
(1.80725 -0.0191897 0)
(1.81519 -0.0589083 0)
(1.81551 -0.0590941 0)
(1.81622 -0.0591034 0)
(1.81733 -0.0588615 0)
(1.81894 -0.058493 0)
(1.82119 -0.0579232 0)
(1.82429 -0.0572731 0)
(1.82833 -0.0568434 0)
(1.83323 -0.0566106 0)
(1.83894 -0.0562128 0)
(1.84556 -0.0554833 0)
(1.85318 -0.054769 0)
(1.86132 -0.0544093 0)
(1.86798 -0.0544139 0)
(1.87016 -0.054788 0)
(1.86899 -0.0551934 0)
(1.86752 -0.0557001 0)
(1.86593 -0.0564231 0)
(1.86362 -0.0571669 0)
(1.85999 -0.0579064 0)
(1.8546 -0.0592586 0)
(1.8473 -0.0619645 0)
(1.8385 -0.0659806 0)
(1.8296 -0.071027 0)
(1.82247 -0.076396 0)
(1.81841 -0.0806701 0)
(1.81732 -0.082998 0)
(1.81768 -0.0836301 0)
(1.8185 -0.083949 0)
(1.81996 -0.0843403 0)
(1.8219 -0.0844972 0)
(1.82358 -0.084206 0)
(1.82483 -0.0837039 0)
(1.82616 -0.083268 0)
(1.82754 -0.0828243 0)
(1.82879 -0.0820667 0)
(1.82994 -0.0810382 0)
(1.83124 -0.080209 0)
(1.83264 -0.079132 0)
(1.83404 -0.0776915 0)
(1.83561 -0.0764934 0)
(1.83747 -0.0757135 0)
(1.83914 -0.0740231 0)
(1.84067 -0.0724761 0)
(1.84193 -0.0710633 0)
(1.843 -0.0693498 0)
(1.84404 -0.0673821 0)
(1.84498 -0.0657048 0)
(1.84591 -0.0644456 0)
(1.847 -0.0631082 0)
(1.84824 -0.0618145 0)
(1.84949 -0.0606568 0)
(1.85084 -0.0599449 0)
(1.85275 -0.0597089 0)
(1.85484 -0.0598585 0)
(1.85596 -0.0602975 0)
(1.85745 -0.0609327 0)
(1.85867 -0.0615019 0)
(1.85986 -0.0619676 0)
(1.86091 -0.0623298 0)
(1.86194 -0.0625626 0)
(1.86311 -0.0628093 0)
(1.86438 -0.0628765 0)
(1.86574 -0.062814 0)
(1.86711 -0.0627378 0)
(1.8685 -0.062486 0)
(1.86968 -0.0622155 0)
(1.87096 -0.0616372 0)
(1.87195 -0.0614533 0)
(1.87252 -0.0612047 0)
(1.87327 -0.0611675 0)
(1.87401 -0.0612087 0)
(1.87458 -0.0611071 0)
(1.87521 -0.0608432 0)
(1.87578 -0.060513 0)
(1.87634 -0.0602039 0)
(1.87711 -0.0600139 0)
(1.87809 -0.0600391 0)
(1.87913 -0.0601821 0)
(1.88008 -0.0601272 0)
(1.88063 -0.0597669 0)
(1.88063 -0.059465 0)
(1.88047 -0.0590966 0)
(1.88004 -0.0583449 0)
(1.87924 -0.057496 0)
(1.87814 -0.0564696 0)
(1.87655 -0.0550487 0)
(1.87397 -0.0537966 0)
(1.87036 -0.0517182 0)
(1.86582 -0.048909 0)
(1.86137 -0.0468643 0)
(1.8596 -0.046073 0)
(1.8583 -0.0452631 0)
(1.85695 -0.044326 0)
(1.85544 -0.043642 0)
(1.85383 -0.0427159 0)
(1.8524 -0.041826 0)
(1.85085 -0.0412892 0)
(1.84921 -0.0410369 0)
(1.84759 -0.0404808 0)
(1.8457 -0.0393775 0)
(1.84363 -0.0387247 0)
(1.84162 -0.0383799 0)
(1.83976 -0.0373341 0)
(1.83765 -0.0358743 0)
(1.8359 -0.0346394 0)
(1.83467 -0.0340555 0)
(1.83323 -0.0331853 0)
(1.83178 -0.0321267 0)
(1.83085 -0.0311925 0)
(1.82945 -0.0302748 0)
(1.82825 -0.0299657 0)
(1.82699 -0.0297962 0)
(1.82566 -0.0295107 0)
(1.82433 -0.0293477 0)
(1.82292 -0.0290027 0)
(1.82153 -0.0286285 0)
(1.82026 -0.0283018 0)
(1.8191 -0.0279996 0)
(1.81809 -0.0276798 0)
(1.81708 -0.0272297 0)
(1.81611 -0.0267137 0)
(1.81537 -0.0258462 0)
(1.81452 -0.0248938 0)
(1.81365 -0.0242174 0)
(1.81288 -0.0234714 0)
(1.81262 -0.0228824 0)
(1.81199 -0.0222085 0)
(1.81159 -0.0216451 0)
(1.81121 -0.0213435 0)
(1.81072 -0.0209113 0)
(1.81037 -0.0204957 0)
(1.83946 -0.0567553 0)
(1.83986 -0.0571531 0)
(1.84051 -0.0572288 0)
(1.84145 -0.0568998 0)
(1.84277 -0.0564655 0)
(1.84464 -0.0560523 0)
(1.84722 -0.0557269 0)
(1.8506 -0.0554451 0)
(1.85482 -0.0551244 0)
(1.86005 -0.0546348 0)
(1.86652 -0.0539981 0)
(1.8741 -0.0536022 0)
(1.88175 -0.0537105 0)
(1.88728 -0.0542826 0)
(1.88804 -0.0552936 0)
(1.88566 -0.0560656 0)
(1.8832 -0.0567886 0)
(1.8808 -0.0578608 0)
(1.87759 -0.0595073 0)
(1.87257 -0.0621304 0)
(1.86517 -0.0655324 0)
(1.85511 -0.0699892 0)
(1.84359 -0.0756803 0)
(1.83338 -0.0814487 0)
(1.82746 -0.0857513 0)
(1.82589 -0.0875672 0)
(1.82608 -0.0878826 0)
(1.82675 -0.0881099 0)
(1.82806 -0.0882501 0)
(1.82968 -0.0883037 0)
(1.83153 -0.087785 0)
(1.83276 -0.0867957 0)
(1.83357 -0.085946 0)
(1.83468 -0.0852424 0)
(1.8358 -0.084635 0)
(1.83674 -0.0837074 0)
(1.83784 -0.0827797 0)
(1.83915 -0.0821417 0)
(1.84051 -0.0811319 0)
(1.84195 -0.0800184 0)
(1.84354 -0.0793011 0)
(1.84507 -0.0788333 0)
(1.8465 -0.07787 0)
(1.84804 -0.0764601 0)
(1.84931 -0.075101 0)
(1.85037 -0.0739243 0)
(1.85139 -0.0723084 0)
(1.85228 -0.0706664 0)
(1.85294 -0.0696745 0)
(1.85353 -0.0683889 0)
(1.85409 -0.0669944 0)
(1.85482 -0.0657761 0)
(1.85607 -0.065154 0)
(1.8577 -0.0650735 0)
(1.85884 -0.0650743 0)
(1.8597 -0.065214 0)
(1.86072 -0.0655427 0)
(1.8618 -0.0657732 0)
(1.86302 -0.0657884 0)
(1.86425 -0.0655681 0)
(1.86544 -0.0653221 0)
(1.8667 -0.0652142 0)
(1.86805 -0.0651987 0)
(1.86966 -0.064935 0)
(1.87119 -0.0647353 0)
(1.87274 -0.0642859 0)
(1.87382 -0.0640678 0)
(1.87473 -0.0642387 0)
(1.87543 -0.0644297 0)
(1.87591 -0.0645437 0)
(1.87658 -0.0648301 0)
(1.87734 -0.0651467 0)
(1.87803 -0.0651743 0)
(1.87867 -0.0649873 0)
(1.87939 -0.0646261 0)
(1.88014 -0.0643551 0)
(1.88098 -0.0642437 0)
(1.88205 -0.0641609 0)
(1.8832 -0.0639994 0)
(1.88425 -0.0633778 0)
(1.88511 -0.0623219 0)
(1.88529 -0.0616523 0)
(1.88534 -0.0608629 0)
(1.88524 -0.0597125 0)
(1.88482 -0.058755 0)
(1.88413 -0.0577832 0)
(1.88281 -0.0564252 0)
(1.8804 -0.0552073 0)
(1.87682 -0.0533905 0)
(1.87214 -0.0512187 0)
(1.86722 -0.0496048 0)
(1.86507 -0.0489776 0)
(1.86358 -0.0485445 0)
(1.86191 -0.0476654 0)
(1.86027 -0.0469522 0)
(1.85881 -0.0463614 0)
(1.85759 -0.0453627 0)
(1.85627 -0.0443685 0)
(1.85478 -0.0440371 0)
(1.85344 -0.0433505 0)
(1.85146 -0.0415822 0)
(1.84957 -0.0400116 0)
(1.8478 -0.0391374 0)
(1.84574 -0.0376548 0)
(1.84365 -0.0359473 0)
(1.84185 -0.0343959 0)
(1.84051 -0.0336177 0)
(1.83875 -0.0327104 0)
(1.837 -0.031967 0)
(1.83542 -0.0315722 0)
(1.83371 -0.0312167 0)
(1.83204 -0.0311263 0)
(1.83046 -0.0310864 0)
(1.82906 -0.0310358 0)
(1.82771 -0.0307799 0)
(1.82632 -0.0304674 0)
(1.82499 -0.0301859 0)
(1.8238 -0.0297607 0)
(1.82266 -0.0292623 0)
(1.82169 -0.0288592 0)
(1.82081 -0.0283199 0)
(1.81996 -0.0277594 0)
(1.81919 -0.0269451 0)
(1.81856 -0.0259402 0)
(1.81763 -0.0249938 0)
(1.81708 -0.0244682 0)
(1.81652 -0.0239737 0)
(1.81589 -0.0233044 0)
(1.81534 -0.0230048 0)
(1.81481 -0.02282 0)
(1.81435 -0.0224347 0)
(1.81406 -0.0222024 0)
(1.86322 -0.0539852 0)
(1.86375 -0.0549138 0)
(1.86438 -0.0553118 0)
(1.86524 -0.055123 0)
(1.86649 -0.054579 0)
(1.86824 -0.0540218 0)
(1.87059 -0.0535317 0)
(1.87357 -0.0530213 0)
(1.87726 -0.0525933 0)
(1.88192 -0.0524044 0)
(1.88794 -0.0524034 0)
(1.89524 -0.0524838 0)
(1.9026 -0.0524271 0)
(1.90676 -0.0528522 0)
(1.90595 -0.0541116 0)
(1.90331 -0.0554008 0)
(1.90063 -0.0569432 0)
(1.89789 -0.0583634 0)
(1.89358 -0.060087 0)
(1.88668 -0.0629176 0)
(1.87593 -0.0672966 0)
(1.86186 -0.0737528 0)
(1.84811 -0.0807861 0)
(1.83963 -0.0856918 0)
(1.83722 -0.0876221 0)
(1.83704 -0.0880253 0)
(1.83738 -0.0884181 0)
(1.83835 -0.0886113 0)
(1.8397 -0.0884732 0)
(1.84107 -0.0883503 0)
(1.84225 -0.0880075 0)
(1.84305 -0.0871744 0)
(1.84369 -0.0866999 0)
(1.84428 -0.0865616 0)
(1.84494 -0.0865983 0)
(1.84581 -0.0866227 0)
(1.84688 -0.0867588 0)
(1.84802 -0.0866972 0)
(1.84899 -0.0865303 0)
(1.85023 -0.0859475 0)
(1.85181 -0.085071 0)
(1.85333 -0.0842986 0)
(1.85484 -0.0833672 0)
(1.85631 -0.0817349 0)
(1.85752 -0.0801616 0)
(1.85854 -0.0791932 0)
(1.85945 -0.0778748 0)
(1.86027 -0.0760238 0)
(1.86095 -0.0748792 0)
(1.86135 -0.073651 0)
(1.86156 -0.0718516 0)
(1.86173 -0.0707424 0)
(1.86232 -0.069894 0)
(1.86318 -0.0690339 0)
(1.86363 -0.0688153 0)
(1.86438 -0.068593 0)
(1.86524 -0.0682208 0)
(1.86619 -0.0679367 0)
(1.86737 -0.067634 0)
(1.86868 -0.0671839 0)
(1.87 -0.0670889 0)
(1.87117 -0.0670752 0)
(1.87235 -0.0676464 0)
(1.8735 -0.0682751 0)
(1.87459 -0.0689197 0)
(1.87538 -0.0690851 0)
(1.87623 -0.06904 0)
(1.87721 -0.0688424 0)
(1.87833 -0.0689813 0)
(1.87947 -0.0694922 0)
(1.88061 -0.0699821 0)
(1.88152 -0.0700737 0)
(1.88221 -0.0697554 0)
(1.88284 -0.0691835 0)
(1.8836 -0.0686905 0)
(1.88448 -0.0681541 0)
(1.88543 -0.0675856 0)
(1.88647 -0.0669695 0)
(1.88763 -0.0662043 0)
(1.88882 -0.0650245 0)
(1.88989 -0.0636666 0)
(1.89053 -0.0624347 0)
(1.89089 -0.0613125 0)
(1.89085 -0.0603529 0)
(1.89046 -0.0596457 0)
(1.88955 -0.0590318 0)
(1.88804 -0.0580588 0)
(1.88558 -0.0568542 0)
(1.88192 -0.0555221 0)
(1.87714 -0.0544075 0)
(1.87202 -0.0534689 0)
(1.86962 -0.0529949 0)
(1.86823 -0.0527002 0)
(1.86652 -0.0516125 0)
(1.86506 -0.050529 0)
(1.86378 -0.0500699 0)
(1.86275 -0.0489021 0)
(1.8615 -0.0468524 0)
(1.86041 -0.0457804 0)
(1.85929 -0.044548 0)
(1.85741 -0.0426283 0)
(1.85572 -0.0407064 0)
(1.85448 -0.0395274 0)
(1.85224 -0.0378504 0)
(1.85001 -0.0364358 0)
(1.84793 -0.035591 0)
(1.84565 -0.0347517 0)
(1.84341 -0.0341094 0)
(1.84142 -0.0336607 0)
(1.83953 -0.0332583 0)
(1.83772 -0.0329425 0)
(1.83601 -0.0328806 0)
(1.83456 -0.0329332 0)
(1.83324 -0.0327655 0)
(1.83186 -0.0322728 0)
(1.83054 -0.0318146 0)
(1.82943 -0.0314438 0)
(1.82833 -0.0308202 0)
(1.82715 -0.0301309 0)
(1.82623 -0.0295067 0)
(1.82544 -0.028906 0)
(1.82461 -0.0282364 0)
(1.82365 -0.0274287 0)
(1.82283 -0.0267252 0)
(1.82207 -0.0263166 0)
(1.82135 -0.0260627 0)
(1.82062 -0.0257014 0)
(1.81989 -0.0251421 0)
(1.8193 -0.0247336 0)
(1.81882 -0.0245627 0)
(1.8185 -0.0242346 0)
(1.81831 -0.0238468 0)
(1.88182 -0.0528024 0)
(1.88198 -0.0541207 0)
(1.8823 -0.0549033 0)
(1.88316 -0.0550832 0)
(1.88488 -0.0545969 0)
(1.88742 -0.0538474 0)
(1.89072 -0.0529385 0)
(1.89466 -0.0517687 0)
(1.89906 -0.0506604 0)
(1.90405 -0.050102 0)
(1.91015 -0.0497187 0)
(1.9176 -0.0491317 0)
(1.92422 -0.0488737 0)
(1.92623 -0.0494479 0)
(1.92462 -0.0500379 0)
(1.92264 -0.0508384 0)
(1.92033 -0.0517807 0)
(1.91658 -0.0528781 0)
(1.90992 -0.055563 0)
(1.89892 -0.0607391 0)
(1.88319 -0.0682777 0)
(1.86624 -0.0770308 0)
(1.85475 -0.0837448 0)
(1.85112 -0.0865491 0)
(1.8502 -0.0876129 0)
(1.84988 -0.088828 0)
(1.85024 -0.0896214 0)
(1.851 -0.0902592 0)
(1.85196 -0.0905411 0)
(1.85289 -0.0906976 0)
(1.85347 -0.090822 0)
(1.8539 -0.0910263 0)
(1.85429 -0.0917052 0)
(1.85468 -0.0924075 0)
(1.85503 -0.0931548 0)
(1.8556 -0.0935226 0)
(1.85655 -0.0931692 0)
(1.85751 -0.0923493 0)
(1.85865 -0.0918631 0)
(1.86016 -0.0912179 0)
(1.86171 -0.0899883 0)
(1.86306 -0.0888786 0)
(1.86432 -0.0879679 0)
(1.86553 -0.0862704 0)
(1.86677 -0.0843736 0)
(1.86788 -0.0832534 0)
(1.86883 -0.0821734 0)
(1.86961 -0.0802677 0)
(1.87022 -0.0787811 0)
(1.87081 -0.0777984 0)
(1.87049 -0.0751799 0)
(1.87036 -0.0729856 0)
(1.87019 -0.0718448 0)
(1.87017 -0.0711114 0)
(1.87016 -0.0708097 0)
(1.8703 -0.070498 0)
(1.8707 -0.0698328 0)
(1.87131 -0.0695874 0)
(1.87224 -0.0695205 0)
(1.87323 -0.0700526 0)
(1.87428 -0.0709829 0)
(1.87487 -0.0720403 0)
(1.87546 -0.0731555 0)
(1.87616 -0.0740371 0)
(1.87702 -0.0746375 0)
(1.8783 -0.0748277 0)
(1.87981 -0.0746263 0)
(1.88124 -0.0743842 0)
(1.88257 -0.0742969 0)
(1.88382 -0.0744752 0)
(1.88514 -0.0741718 0)
(1.88584 -0.0735664 0)
(1.88642 -0.0728279 0)
(1.88719 -0.0718608 0)
(1.88812 -0.0710765 0)
(1.88916 -0.0702684 0)
(1.89027 -0.0693978 0)
(1.89127 -0.0683482 0)
(1.89265 -0.0673253 0)
(1.89396 -0.0657798 0)
(1.89491 -0.0646531 0)
(1.89546 -0.0640308 0)
(1.89554 -0.0634203 0)
(1.89526 -0.0628001 0)
(1.89462 -0.0623913 0)
(1.89358 -0.061884 0)
(1.89195 -0.0613225 0)
(1.88962 -0.0604814 0)
(1.88643 -0.0595765 0)
(1.88223 -0.0588111 0)
(1.87762 -0.0576772 0)
(1.87433 -0.0564841 0)
(1.87317 -0.0561036 0)
(1.8716 -0.0550576 0)
(1.87033 -0.0532195 0)
(1.86946 -0.052309 0)
(1.86856 -0.0507457 0)
(1.86725 -0.0482298 0)
(1.86642 -0.046772 0)
(1.86549 -0.0452364 0)
(1.86342 -0.0431861 0)
(1.86188 -0.0421709 0)
(1.85982 -0.0411479 0)
(1.8573 -0.039682 0)
(1.85497 -0.0388131 0)
(1.85248 -0.0380409 0)
(1.84981 -0.0370676 0)
(1.84755 -0.0366111 0)
(1.84571 -0.0362241 0)
(1.84386 -0.0354035 0)
(1.8421 -0.034762 0)
(1.84047 -0.0346754 0)
(1.83918 -0.034574 0)
(1.83785 -0.0338993 0)
(1.83654 -0.0329604 0)
(1.83553 -0.0322554 0)
(1.83463 -0.0316261 0)
(1.83363 -0.0308885 0)
(1.83256 -0.0301223 0)
(1.83163 -0.0296805 0)
(1.83058 -0.0292537 0)
(1.8295 -0.0288387 0)
(1.82849 -0.0284223 0)
(1.82753 -0.0280397 0)
(1.82659 -0.0279497 0)
(1.8257 -0.0280314 0)
(1.82491 -0.027763 0)
(1.82421 -0.0271326 0)
(1.82372 -0.0266305 0)
(1.82342 -0.0263899 0)
(1.82322 -0.0260375 0)
(1.82298 -0.0254427 0)
(1.90146 -0.049273 0)
(1.90108 -0.0501651 0)
(1.90102 -0.0508208 0)
(1.90195 -0.0511855 0)
(1.9044 -0.0510145 0)
(1.90818 -0.0509026 0)
(1.91286 -0.0508339 0)
(1.91809 -0.0497436 0)
(1.92346 -0.0471763 0)
(1.9289 -0.0443782 0)
(1.93488 -0.0423748 0)
(1.94114 -0.0416296 0)
(1.94568 -0.0419666 0)
(1.9467 -0.0427853 0)
(1.94529 -0.043609 0)
(1.94326 -0.0446071 0)
(1.93971 -0.0467089 0)
(1.9329 -0.0502951 0)
(1.9219 -0.0561919 0)
(1.90556 -0.0650643 0)
(1.88635 -0.0756631 0)
(1.87192 -0.0844184 0)
(1.86669 -0.0883643 0)
(1.86494 -0.0898799 0)
(1.8637 -0.0923826 0)
(1.86347 -0.0941867 0)
(1.8638 -0.09517 0)
(1.86436 -0.0961355 0)
(1.86512 -0.0971818 0)
(1.86598 -0.0977134 0)
(1.86649 -0.0981367 0)
(1.86664 -0.098495 0)
(1.86683 -0.0987925 0)
(1.86698 -0.0985228 0)
(1.86705 -0.0983485 0)
(1.86733 -0.0983222 0)
(1.86793 -0.097421 0)
(1.86871 -0.0957681 0)
(1.86974 -0.0948439 0)
(1.87107 -0.0941735 0)
(1.87251 -0.0927791 0)
(1.87397 -0.0912733 0)
(1.87537 -0.0901703 0)
(1.87659 -0.0886536 0)
(1.87778 -0.0864901 0)
(1.87892 -0.0850565 0)
(1.87999 -0.084443 0)
(1.88052 -0.0825058 0)
(1.88073 -0.0799923 0)
(1.88096 -0.078684 0)
(1.8803 -0.0769877 0)
(1.87948 -0.0757028 0)
(1.87858 -0.0753691 0)
(1.8777 -0.0753111 0)
(1.8767 -0.0748781 0)
(1.87612 -0.0744396 0)
(1.87596 -0.0744208 0)
(1.87591 -0.0748191 0)
(1.87621 -0.0757777 0)
(1.877 -0.0769905 0)
(1.87783 -0.0775976 0)
(1.87848 -0.0780848 0)
(1.87927 -0.0786871 0)
(1.88029 -0.0792982 0)
(1.88157 -0.0796809 0)
(1.88309 -0.0797377 0)
(1.88469 -0.0791449 0)
(1.88594 -0.0783196 0)
(1.88729 -0.0776451 0)
(1.8885 -0.0769449 0)
(1.88943 -0.076 0)
(1.8903 -0.0750053 0)
(1.89117 -0.073932 0)
(1.8923 -0.0728169 0)
(1.89363 -0.0720907 0)
(1.89484 -0.0712345 0)
(1.89597 -0.0702903 0)
(1.8967 -0.0693919 0)
(1.89757 -0.068545 0)
(1.89818 -0.0681768 0)
(1.89872 -0.0678964 0)
(1.89913 -0.0677478 0)
(1.89926 -0.0673995 0)
(1.89888 -0.0670034 0)
(1.89824 -0.0668066 0)
(1.89749 -0.0663867 0)
(1.89627 -0.065739 0)
(1.89433 -0.0649164 0)
(1.89163 -0.0638528 0)
(1.8878 -0.0631469 0)
(1.88333 -0.0617487 0)
(1.87952 -0.0590126 0)
(1.8779 -0.05768 0)
(1.87713 -0.0567278 0)
(1.87601 -0.0547576 0)
(1.8757 -0.0536262 0)
(1.87451 -0.0516795 0)
(1.87332 -0.0494549 0)
(1.87239 -0.0485401 0)
(1.87064 -0.0470931 0)
(1.86858 -0.0455457 0)
(1.86648 -0.0449181 0)
(1.86384 -0.0441012 0)
(1.86135 -0.0431341 0)
(1.85918 -0.0423366 0)
(1.85675 -0.0411078 0)
(1.85428 -0.0399282 0)
(1.85221 -0.0394881 0)
(1.85059 -0.0388459 0)
(1.8487 -0.0374364 0)
(1.84688 -0.0359843 0)
(1.84557 -0.0354676 0)
(1.84438 -0.034964 0)
(1.84312 -0.034 0)
(1.842 -0.0326668 0)
(1.84127 -0.0319283 0)
(1.84014 -0.0311326 0)
(1.83898 -0.0306054 0)
(1.83782 -0.0305071 0)
(1.83668 -0.0304165 0)
(1.83545 -0.0301231 0)
(1.8342 -0.0298288 0)
(1.83308 -0.0297912 0)
(1.83212 -0.0298728 0)
(1.8312 -0.0300187 0)
(1.83045 -0.0299942 0)
(1.82981 -0.0294718 0)
(1.82924 -0.0285781 0)
(1.82891 -0.0279573 0)
(1.82862 -0.0276926 0)
(1.82834 -0.0273345 0)
(1.8279 -0.0267883 0)
(1.92384 -0.0471785 0)
(1.92391 -0.0469377 0)
(1.92428 -0.0473838 0)
(1.92566 -0.0483016 0)
(1.92847 -0.0485821 0)
(1.93237 -0.0476544 0)
(1.93659 -0.0458576 0)
(1.94082 -0.0429094 0)
(1.94572 -0.0386058 0)
(1.95211 -0.0344043 0)
(1.95951 -0.0322487 0)
(1.96562 -0.0328626 0)
(1.96779 -0.0351195 0)
(1.96619 -0.0378876 0)
(1.96344 -0.0405383 0)
(1.95969 -0.0434043 0)
(1.95302 -0.0475725 0)
(1.9424 -0.0541807 0)
(1.9265 -0.0641671 0)
(1.90679 -0.0769321 0)
(1.89019 -0.088502 0)
(1.88322 -0.0944253 0)
(1.88141 -0.0959753 0)
(1.88004 -0.0981099 0)
(1.87937 -0.100108 0)
(1.87935 -0.101272 0)
(1.87984 -0.101636 0)
(1.88037 -0.102172 0)
(1.88075 -0.103119 0)
(1.88095 -0.103247 0)
(1.88077 -0.102716 0)
(1.88032 -0.102305 0)
(1.87997 -0.101792 0)
(1.87977 -0.100397 0)
(1.87993 -0.099104 0)
(1.88044 -0.0985889 0)
(1.88123 -0.0974425 0)
(1.8823 -0.0954039 0)
(1.88363 -0.0941799 0)
(1.8849 -0.0934502 0)
(1.88607 -0.0921979 0)
(1.88733 -0.0906985 0)
(1.88857 -0.0894962 0)
(1.88945 -0.0881929 0)
(1.89006 -0.0865577 0)
(1.89068 -0.0856164 0)
(1.89091 -0.0846625 0)
(1.89062 -0.0837695 0)
(1.89025 -0.0838045 0)
(1.88966 -0.0835364 0)
(1.88853 -0.0827649 0)
(1.88712 -0.0830203 0)
(1.88572 -0.0831285 0)
(1.88419 -0.0825974 0)
(1.88268 -0.0826322 0)
(1.88185 -0.0827452 0)
(1.88173 -0.0825603 0)
(1.88172 -0.082671 0)
(1.88158 -0.0836845 0)
(1.88206 -0.0843342 0)
(1.88274 -0.0838305 0)
(1.88349 -0.0830368 0)
(1.88436 -0.0825623 0)
(1.88542 -0.0824023 0)
(1.88682 -0.0822521 0)
(1.88853 -0.081752 0)
(1.88971 -0.0806773 0)
(1.8909 -0.0795713 0)
(1.89248 -0.0784815 0)
(1.89416 -0.0772752 0)
(1.89536 -0.0761532 0)
(1.8968 -0.0750888 0)
(1.89774 -0.0742545 0)
(1.89876 -0.0737011 0)
(1.8996 -0.0735339 0)
(1.90007 -0.073493 0)
(1.90045 -0.0733893 0)
(1.90063 -0.0732574 0)
(1.90078 -0.0728796 0)
(1.90134 -0.0727524 0)
(1.90226 -0.0728471 0)
(1.90325 -0.0727454 0)
(1.90374 -0.0722743 0)
(1.90326 -0.071873 0)
(1.90268 -0.0715042 0)
(1.90204 -0.0706053 0)
(1.90091 -0.0695997 0)
(1.89935 -0.068532 0)
(1.89708 -0.0670406 0)
(1.89353 -0.0653324 0)
(1.88914 -0.0633137 0)
(1.88538 -0.0602924 0)
(1.88349 -0.0584794 0)
(1.88287 -0.0577204 0)
(1.88174 -0.0561333 0)
(1.8809 -0.0552721 0)
(1.87958 -0.0537972 0)
(1.87837 -0.0522162 0)
(1.87679 -0.0515889 0)
(1.87464 -0.0508909 0)
(1.87259 -0.0497988 0)
(1.87058 -0.0484926 0)
(1.86828 -0.0475491 0)
(1.86619 -0.0470083 0)
(1.86429 -0.0459661 0)
(1.86184 -0.0440407 0)
(1.85946 -0.0422255 0)
(1.85758 -0.0413012 0)
(1.85602 -0.0400458 0)
(1.85419 -0.0382177 0)
(1.85253 -0.0361187 0)
(1.85144 -0.0351504 0)
(1.85016 -0.0343688 0)
(1.84852 -0.0332365 0)
(1.84737 -0.0325609 0)
(1.84625 -0.0319671 0)
(1.84503 -0.0315466 0)
(1.84376 -0.0314443 0)
(1.8425 -0.0316158 0)
(1.84123 -0.031773 0)
(1.83999 -0.0318072 0)
(1.83879 -0.0317795 0)
(1.83775 -0.0318283 0)
(1.83704 -0.0318731 0)
(1.83642 -0.0314169 0)
(1.83588 -0.0309963 0)
(1.83543 -0.0304264 0)
(1.83482 -0.0295248 0)
(1.83439 -0.0288134 0)
(1.834 -0.0284763 0)
(1.83354 -0.0280953 0)
(1.83287 -0.0276356 0)
(1.94563 -0.038772 0)
(1.94717 -0.0366521 0)
(1.94912 -0.0360642 0)
(1.95121 -0.0372239 0)
(1.95332 -0.0376261 0)
(1.95534 -0.0357717 0)
(1.95789 -0.0331328 0)
(1.96179 -0.0310954 0)
(1.96761 -0.0294122 0)
(1.97481 -0.0280215 0)
(1.9814 -0.0281679 0)
(1.98451 -0.0303562 0)
(1.98261 -0.0327306 0)
(1.97935 -0.0354081 0)
(1.97539 -0.0399773 0)
(1.96917 -0.0464317 0)
(1.95977 -0.0555279 0)
(1.94521 -0.0671218 0)
(1.92548 -0.0806622 0)
(1.90733 -0.0928244 0)
(1.89882 -0.0986443 0)
(1.89697 -0.0997148 0)
(1.89548 -0.100635 0)
(1.89479 -0.101157 0)
(1.89473 -0.101604 0)
(1.8951 -0.101778 0)
(1.89566 -0.101184 0)
(1.89605 -0.100895 0)
(1.89606 -0.101096 0)
(1.89568 -0.100694 0)
(1.89517 -0.0995875 0)
(1.89481 -0.098864 0)
(1.89464 -0.0983799 0)
(1.89471 -0.0969747 0)
(1.89522 -0.0957145 0)
(1.89592 -0.0952606 0)
(1.89664 -0.0944641 0)
(1.89743 -0.0930998 0)
(1.89854 -0.0924667 0)
(1.89948 -0.0918305 0)
(1.89998 -0.091027 0)
(1.9002 -0.0909846 0)
(1.90042 -0.0907687 0)
(1.90049 -0.0900089 0)
(1.90012 -0.0901974 0)
(1.89971 -0.0911198 0)
(1.8993 -0.0913593 0)
(1.89853 -0.0917813 0)
(1.89767 -0.092817 0)
(1.89686 -0.0929333 0)
(1.89585 -0.0925272 0)
(1.89457 -0.0932544 0)
(1.89356 -0.0938229 0)
(1.89258 -0.0926706 0)
(1.89155 -0.0917047 0)
(1.89039 -0.0914355 0)
(1.88967 -0.0903384 0)
(1.88937 -0.0890666 0)
(1.88898 -0.0890621 0)
(1.88877 -0.0885768 0)
(1.88902 -0.0872169 0)
(1.88966 -0.0854804 0)
(1.89073 -0.0840749 0)
(1.89188 -0.0829861 0)
(1.8936 -0.0823006 0)
(1.89552 -0.0811017 0)
(1.89672 -0.0800531 0)
(1.8985 -0.0790982 0)
(1.89985 -0.0781961 0)
(1.90107 -0.0775653 0)
(1.90196 -0.0769266 0)
(1.90258 -0.0770795 0)
(1.90298 -0.0772386 0)
(1.90329 -0.077584 0)
(1.90361 -0.0779036 0)
(1.90378 -0.0780974 0)
(1.90397 -0.0782399 0)
(1.90446 -0.0781061 0)
(1.90513 -0.0781859 0)
(1.90606 -0.078249 0)
(1.90711 -0.0779705 0)
(1.90798 -0.0771791 0)
(1.90825 -0.0761491 0)
(1.90811 -0.0754256 0)
(1.90767 -0.0743702 0)
(1.90704 -0.072817 0)
(1.90612 -0.071354 0)
(1.90477 -0.0699256 0)
(1.9028 -0.068094 0)
(1.89964 -0.0661232 0)
(1.89554 -0.0639541 0)
(1.89132 -0.0616468 0)
(1.88853 -0.0606453 0)
(1.88752 -0.06037 0)
(1.88612 -0.0593529 0)
(1.88483 -0.0585271 0)
(1.88339 -0.0578629 0)
(1.88212 -0.056869 0)
(1.88078 -0.0556618 0)
(1.87912 -0.0551836 0)
(1.87758 -0.0543779 0)
(1.87553 -0.0524328 0)
(1.8734 -0.0507267 0)
(1.87156 -0.0498898 0)
(1.8697 -0.0481523 0)
(1.86724 -0.0454523 0)
(1.86547 -0.042994 0)
(1.86396 -0.0416005 0)
(1.86249 -0.0398832 0)
(1.86016 -0.0376751 0)
(1.85851 -0.0361466 0)
(1.85694 -0.0354209 0)
(1.85516 -0.0346427 0)
(1.85346 -0.034098 0)
(1.85197 -0.0336697 0)
(1.85053 -0.0335233 0)
(1.84918 -0.0335847 0)
(1.84802 -0.0338436 0)
(1.84689 -0.0342572 0)
(1.84578 -0.0342485 0)
(1.84483 -0.0338988 0)
(1.84401 -0.0332488 0)
(1.84336 -0.0330276 0)
(1.84285 -0.0326944 0)
(1.84219 -0.0318783 0)
(1.84164 -0.031199 0)
(1.84115 -0.0306954 0)
(1.84043 -0.0299574 0)
(1.83984 -0.0294668 0)
(1.83918 -0.0292472 0)
(1.83844 -0.0290191 0)
(1.8377 -0.0288325 0)
(1.96545 -0.0445347 0)
(1.96902 -0.0431861 0)
(1.97233 -0.0423042 0)
(1.97527 -0.0420973 0)
(1.97785 -0.0414016 0)
(1.98034 -0.0392939 0)
(1.98355 -0.0368178 0)
(1.98821 -0.0359566 0)
(1.99316 -0.0355021 0)
(1.99657 -0.0346713 0)
(1.99649 -0.0343535 0)
(1.9951 -0.0347076 0)
(1.99175 -0.0358062 0)
(1.98801 -0.0403988 0)
(1.98291 -0.0479318 0)
(1.97471 -0.0572257 0)
(1.96156 -0.0682404 0)
(1.94245 -0.0807279 0)
(1.92294 -0.0920036 0)
(1.91298 -0.0974395 0)
(1.91131 -0.0982442 0)
(1.91043 -0.0982685 0)
(1.91043 -0.0980218 0)
(1.9111 -0.0974099 0)
(1.91199 -0.0970726 0)
(1.91259 -0.096815 0)
(1.91281 -0.0960733 0)
(1.91286 -0.0958229 0)
(1.91264 -0.0960694 0)
(1.91216 -0.0959998 0)
(1.91178 -0.0956518 0)
(1.9117 -0.0954738 0)
(1.91161 -0.0957658 0)
(1.9115 -0.095551 0)
(1.91149 -0.0953893 0)
(1.91152 -0.0958007 0)
(1.91154 -0.0955865 0)
(1.91145 -0.0953436 0)
(1.91106 -0.0960736 0)
(1.91089 -0.0965915 0)
(1.91073 -0.0966691 0)
(1.9102 -0.097733 0)
(1.90985 -0.0990439 0)
(1.90988 -0.0993025 0)
(1.90949 -0.100228 0)
(1.90876 -0.101786 0)
(1.90823 -0.102262 0)
(1.90761 -0.102798 0)
(1.90701 -0.10389 0)
(1.90642 -0.103657 0)
(1.90592 -0.102531 0)
(1.90516 -0.102501 0)
(1.90431 -0.102739 0)
(1.90316 -0.100958 0)
(1.90169 -0.097585 0)
(1.90037 -0.096252 0)
(1.89929 -0.0950458 0)
(1.89814 -0.0920499 0)
(1.89791 -0.0906089 0)
(1.89776 -0.0891855 0)
(1.89793 -0.0870031 0)
(1.89864 -0.0845515 0)
(1.8999 -0.0829574 0)
(1.90131 -0.0818824 0)
(1.90279 -0.0814273 0)
(1.90389 -0.080527 0)
(1.90473 -0.0805737 0)
(1.90526 -0.0808951 0)
(1.90557 -0.0810575 0)
(1.90584 -0.0813084 0)
(1.90613 -0.0815326 0)
(1.90659 -0.0818933 0)
(1.90724 -0.0824608 0)
(1.90793 -0.0830282 0)
(1.90846 -0.0833188 0)
(1.90884 -0.0834021 0)
(1.90911 -0.0832895 0)
(1.90964 -0.083074 0)
(1.91041 -0.082818 0)
(1.91123 -0.0820039 0)
(1.91214 -0.0808044 0)
(1.91287 -0.0792411 0)
(1.9134 -0.0778769 0)
(1.9135 -0.0765307 0)
(1.91351 -0.0750326 0)
(1.91337 -0.0734254 0)
(1.91296 -0.0718841 0)
(1.91167 -0.0705422 0)
(1.90914 -0.069262 0)
(1.90547 -0.0679829 0)
(1.90038 -0.0666131 0)
(1.89512 -0.0654463 0)
(1.89317 -0.0650342 0)
(1.8916 -0.0648344 0)
(1.88992 -0.0641613 0)
(1.8886 -0.0630812 0)
(1.8875 -0.0624916 0)
(1.88672 -0.0618292 0)
(1.88559 -0.0598276 0)
(1.88427 -0.0584857 0)
(1.883 -0.0572774 0)
(1.88067 -0.0549156 0)
(1.87888 -0.0523172 0)
(1.87761 -0.0507605 0)
(1.87596 -0.0483523 0)
(1.87361 -0.0453918 0)
(1.87229 -0.043683 0)
(1.87041 -0.0422799 0)
(1.8679 -0.0404101 0)
(1.86552 -0.0391807 0)
(1.86346 -0.0385153 0)
(1.86141 -0.0377552 0)
(1.85937 -0.0371349 0)
(1.8575 -0.0371209 0)
(1.85599 -0.0372402 0)
(1.85467 -0.0369102 0)
(1.85358 -0.0365704 0)
(1.85281 -0.0367486 0)
(1.85196 -0.0361677 0)
(1.85116 -0.0355671 0)
(1.85058 -0.0350063 0)
(1.84987 -0.0340746 0)
(1.84933 -0.033258 0)
(1.84874 -0.0327279 0)
(1.84789 -0.0319592 0)
(1.84722 -0.0314633 0)
(1.84645 -0.0309844 0)
(1.84568 -0.0306255 0)
(1.8449 -0.0304879 0)
(1.84401 -0.0304923 0)
(1.84301 -0.0307224 0)
(1.84214 -0.0308094 0)
(1.97915 -0.0336405 0)
(1.98362 -0.0292653 0)
(1.98777 -0.02635 0)
(1.99151 -0.0250841 0)
(1.99553 -0.0244221 0)
(2.00043 -0.0238202 0)
(2.00472 -0.0248307 0)
(2.00677 -0.0280609 0)
(2.00783 -0.0315262 0)
(2.00726 -0.0330004 0)
(2.00597 -0.034132 0)
(2.00325 -0.036732 0)
(2.00023 -0.0398851 0)
(1.99639 -0.0442434 0)
(1.98979 -0.0525255 0)
(1.97755 -0.0646141 0)
(1.95944 -0.0778353 0)
(1.94032 -0.0882924 0)
(1.93011 -0.0933529 0)
(1.92807 -0.0949064 0)
(1.92747 -0.0953212 0)
(1.92737 -0.0954012 0)
(1.92784 -0.0950017 0)
(1.92861 -0.0947396 0)
(1.92937 -0.0947776 0)
(1.9298 -0.0947138 0)
(1.92981 -0.0946585 0)
(1.92955 -0.0951861 0)
(1.92905 -0.0962412 0)
(1.92863 -0.0969972 0)
(1.92817 -0.0980584 0)
(1.92763 -0.0994522 0)
(1.92701 -0.100763 0)
(1.92617 -0.101219 0)
(1.9252 -0.101586 0)
(1.92437 -0.102412 0)
(1.92379 -0.102429 0)
(1.92339 -0.102296 0)
(1.92277 -0.10384 0)
(1.92244 -0.105433 0)
(1.92249 -0.105873 0)
(1.92198 -0.107223 0)
(1.92126 -0.10898 0)
(1.92087 -0.109448 0)
(1.92055 -0.110004 0)
(1.92001 -0.11099 0)
(1.91943 -0.11106 0)
(1.91887 -0.110663 0)
(1.91828 -0.110688 0)
(1.91766 -0.110003 0)
(1.91685 -0.107806 0)
(1.91632 -0.105702 0)
(1.91567 -0.104967 0)
(1.91489 -0.103115 0)
(1.91344 -0.0987355 0)
(1.91265 -0.0962113 0)
(1.91159 -0.094964 0)
(1.91018 -0.0913266 0)
(1.90988 -0.0892663 0)
(1.90974 -0.0881336 0)
(1.90997 -0.0862747 0)
(1.91015 -0.0844829 0)
(1.91013 -0.0844082 0)
(1.91013 -0.0850565 0)
(1.91024 -0.0852763 0)
(1.91024 -0.0854143 0)
(1.91032 -0.085945 0)
(1.9105 -0.0863992 0)
(1.91069 -0.086909 0)
(1.91108 -0.0872466 0)
(1.91172 -0.0875811 0)
(1.91239 -0.087668 0)
(1.913 -0.0876172 0)
(1.91355 -0.0875697 0)
(1.91377 -0.0871897 0)
(1.91424 -0.0867424 0)
(1.9147 -0.0861013 0)
(1.91528 -0.0852565 0)
(1.91607 -0.0842456 0)
(1.91703 -0.0828606 0)
(1.91841 -0.0810835 0)
(1.9196 -0.0792507 0)
(1.92048 -0.0777342 0)
(1.9212 -0.0762923 0)
(1.92108 -0.0752395 0)
(1.92042 -0.074459 0)
(1.91896 -0.0743548 0)
(1.91676 -0.0737833 0)
(1.91364 -0.0728314 0)
(1.90958 -0.0718914 0)
(1.90457 -0.07132 0)
(1.90003 -0.0708798 0)
(1.89802 -0.0704669 0)
(1.89638 -0.0696666 0)
(1.89471 -0.0690303 0)
(1.89333 -0.0676101 0)
(1.89252 -0.0659474 0)
(1.8921 -0.0648438 0)
(1.89069 -0.0623269 0)
(1.88971 -0.0601067 0)
(1.88896 -0.0583984 0)
(1.88711 -0.0556232 0)
(1.88592 -0.0529068 0)
(1.88508 -0.0513507 0)
(1.88259 -0.0487462 0)
(1.88025 -0.0470832 0)
(1.87799 -0.0465028 0)
(1.87521 -0.0454103 0)
(1.87236 -0.0435233 0)
(1.87 -0.0429346 0)
(1.86788 -0.0429716 0)
(1.86585 -0.0423884 0)
(1.86401 -0.0412922 0)
(1.8624 -0.0408197 0)
(1.86118 -0.040521 0)
(1.86001 -0.039458 0)
(1.85912 -0.0384797 0)
(1.85859 -0.0380091 0)
(1.85778 -0.0369991 0)
(1.85713 -0.0357831 0)
(1.85668 -0.0350349 0)
(1.85577 -0.0340853 0)
(1.85494 -0.0334057 0)
(1.85406 -0.0328446 0)
(1.85312 -0.032298 0)
(1.85222 -0.0321299 0)
(1.85119 -0.0322888 0)
(1.85013 -0.0326003 0)
(1.84916 -0.0329141 0)
(1.8483 -0.0329346 0)
(1.84748 -0.0327133 0)
(1.8468 -0.0325091 0)
(1.99335 -0.0396978 0)
(1.99836 -0.0316002 0)
(2.00317 -0.0244305 0)
(2.00753 -0.0195352 0)
(2.01146 -0.0166955 0)
(2.01555 -0.0153313 0)