/*--------------------------------*- C++ -*----------------------------------*\
  =========                 |
  \\      /  F ield         | OpenFOAM: The Open Source CFD Toolbox
   \\    /   O peration     | Website:  https://openfoam.org
    \\  /    A nd           | Version:  7
     \\/     M anipulation  |
\*---------------------------------------------------------------------------*/
FoamFile
{
    version     2.0;
    format      ascii;
    class       volScalarField;
    location    "1.102";
    object      p;
}
// * * * * * * * * * * * * * * * * * * * * * * * * * * * * * * * * * * * * * //

dimensions      [0 2 -2 0 0 0 0];

internalField   nonuniform List<scalar> 
12359
(
0.0665371
0.0759441
0.0512171
0.108548
0.0701942
0.154639
0.187134
0.169062
0.225422
0.143066
0.207353
0.27763
0.486809
0.115544
0.10339
0.3953
0.442983
0.0552857
0.0549555
0.0886717
0.124542
0.250869
0.0819712
0.0940165
0.0786101
0.0849487
0.0522261
0.0521105
0.0542756
0.0526924
0.0530696
0.051665
0.0513598
0.0524845
0.0512356
0.0532599
0.0602724
0.0650161
0.0684986
0.0625715
0.0739323
0.0637023
0.0579571
0.0572701
0.0537093
0.0539952
0.0534551
0.0529055
0.0546115
0.0523423
0.051994
0.0518795
0.051579
0.0556763
0.051528
0.0513803
0.0566493
0.0513502
0.0513354
0.051286
0.0514194
0.0512374
0.0519234
0.51687
0.0561201
0.132981
0.0595198
0.0517967
0.0609402
0.348823
0.531722
0.0719051
0.0512077
0.0616925
0.0989856
0.0512485
0.0515904
0.0512247
0.0587876
0.317625
0.124649
0.0466063
0.0504078
0.0518086
-0.057217
0.0251832
0.0464545
0.0489817
-0.0698055
-0.0512128
0.0510258
0.474628
0.0509742
0.0506067
0.0505586
0.00533667
0.0501096
0.0506924
0.0590184
0.0556439
0.108963
0.0511134
0.0253898
-0.127739
0.0456867
0.0137126
0.0501492
-0.0557218
0.0277335
0.0140383
0.0501988
0.0466892
0.110435
0.0918809
0.0509235
0.047178
0.0935166
0.0456285
-0.0742691
0.0504375
0.0503342
0.175115
0.0488071
0.00559555
0.0453701
0.0472596
0.0385747
0.0516445
0.0512133
0.0452794
0.0477777
-0.00238469
-0.00369503
-0.00253335
0.0502183
0.00681207
0.0476716
0.00677852
0.0511416
0.0391647
0.0505453
0.0680399
0.0152906
0.0501839
0.00876309
0.147478
0.0504189
-0.0456394
0.0455442
0.127131
0.0036973
0.0511288
0.015365
0.0486936
0.0509333
-0.185178
0.109417
-0.00162993
0.0501984
0.0517295
0.0465284
0.0517756
0.00405068
0.0123107
0.0503973
0.0474023
0.047728
0.174056
0.0137988
-0.0715327
0.0512214
0.0512428
0.0125799
0.0786659
0.04591
0.0429257
0.0542992
0.054093
0.111677
0.043455
0.116056
0.050913
0.0512132
0.0463449
0.0580198
0.206956
0.0454808
0.0497772
0.00440051
0.0452655
0.0500965
0.00709029
0.00880962
0.0486284
0.0127253
-0.137242
0.0334831
0.0464352
0.0158645
0.0457949
0.151756
0.00405194
0.0568353
0.0136241
0.0122629
0.0508933
0.0111074
0.0575129
0.00215739
0.0444484
0.0506736
-5.84662e-05
0.000231061
-0.536307
0.200076
0.0511485
0.045953
0.0509343
0.0457582
0.0686381
0.101997
0.0445214
0.00553863
0.470052
0.0450942
0.0506529
0.0693667
0.0276873
0.0464266
0.0472804
0.0470635
0.0504061
0.0096086
0.0569551
0.0492869
0.0559659
0.050432
0.0147388
0.049398
0.293611
0.0503674
0.023393
0.0498162
0.0554914
0.0454213
-0.0464064
0.0513171
0.00199174
0.046733
0.00980631
0.00168772
0.0644317
0.0537282
0.0475612
0.322071
-0.586135
0.0504421
0.0444684
0.401437
-0.05172
0.0563299
0.046377
0.0461069
0.0126497
0.0771024
-0.451049
-0.0689421
0.0453834
0.0447327
0.00719739
0.0127046
0.0619181
0.0139585
0.0477032
0.0443474
0.0504076
0.0445634
-0.11847
0.0441952
0.0500991
0.0511013
0.0120779
0.0419661
0.0595755
0.024262
0.05049
0.0482955
0.0511209
0.0511016
0.0516898
0.00395071
0.0462916
-0.456453
0.050173
0.0501419
0.0255884
0.0467304
0.101441
0.0507974
0.0520449
0.0510452
-0.107198
0.0453853
0.0510437
0.0462009
0.0503644
0.0466553
0.0472133
0.0474462
0.0464581
0.0552871
0.205044
0.0462951
0.0531553
0.065057
0.0228747
-0.0566697
0.046013
0.0598712
0.372771
0.0510977
0.0196503
0.0500635
0.0338597
0.0501738
0.0458457
0.226837
0.0189039
0.206705
0.0591382
0.0494384
0.00759022
0.00418143
0.0493325
0.00721703
0.00764289
0.0499058
0.0514855
0.0514763
0.0515377
0.0515186
0.290633
0.0504695
0.106123
0.000904608
0.0567935
0.0134485
0.01897
0.0262191
0.0346583
0.0181567
0.0351573
0.058709
0.0207313
0.0220791
0.0938009
0.0688285
0.0154986
0.0671197
0.0668901
0.0165154
0.106002
0.0471504
0.0515788
0.032062
0.0515429
0.046861
-0.185734
0.504367
0.0470706
0.0511789
0.0502335
0.050812
0.0179666
0.050937
0.0509228
-0.0754412
0.0128021
-0.0474112
0.0488911
0.0104763
0.0422911
0.0500645
0.0163297
0.0319145
0.112139
0.03209
0.0473765
0.0500232
0.0121022
0.0100967
0.0447043
0.29526
0.015991
0.00536472
0.0512113
0.0479859
0.0511594
0.388831
0.0135634
0.0490146
0.0635473
0.0660577
0.050562
0.0505336
0.0507555
-0.0559994
0.100005
0.0610116
0.0185311
0.00347481
0.0507744
0.115914
0.0505466
-3.68869e-05
-0.0606722
0.302589
0.0556161
0.0935076
0.0283946
0.0227771
0.0365806
0.0317298
0.0527396
0.0365168
0.0156181
0.0509431
-0.0557544
0.0601077
-0.00677065
0.00877346
0.0571016
0.0971626
-0.146063
0.0176576
0.0406228
0.00426979
0.00837455
0.0194368
0.0457185
0.0507073
0.0533306
0.0501745
-0.00299183
0.0479629
0.0849034
0.0869639
0.0372398
-0.05476
0.105505
0.0553926
0.0493635
0.392956
0.0499975
0.0488644
0.00540743
0.0511819
0.0492288
0.0488365
0.236912
0.206073
0.0513938
0.0490542
0.110965
0.0493292
0.0187488
0.0152058
0.013222
0.0498534
0.0507963
0.0490808
0.0510506
0.0864516
0.0194537
0.022576
0.0539149
0.0524665
0.00294061
0.0528242
0.0483321
0.0444224
0.121006
0.00479766
0.0511283
0.0488216
0.0117717
0.0309269
0.0498205
0.0474245
0.114099
0.0189281
0.0072869
0.0212874
0.0497978
0.0485791
-0.00520713
-0.00438933
0.0510461
0.037828
0.0510584
0.00486951
0.282262
0.0507382
0.0480434
0.0499289
0.0148036
0.055295
0.0545406
0.047384
0.0505393
0.0308048
0.0775727
0.0394944
-0.0346953
0.050121
-0.0403494
0.0490681
-0.120987
0.0185193
-0.00217751
0.0513271
0.0537052
0.022266
0.046403
0.0519726
0.058291
0.0554512
0.0557847
0.0720807
0.0144307
0.0139809
0.0504248
0.0460843
0.0191842
-0.00352739
0.0504233
0.0500866
0.0120378
0.0499198
0.224941
-0.151693
-0.116112
0.0504227
0.0425743
0.00120013
0.0547212
0.0462704
0.449054
0.0501406
0.115158
0.0898593
0.0424288
0.0465937
0.0521059
0.0378326
0.000444595
0.0309905
0.0531776
0.0504463
0.0512122
0.055141
0.0542929
0.0561453
0.0142038
0.0517427
0.0501245
0.0209356
-0.0847726
0.0530263
-8.02673e-05
0.0502615
0.0537207
0.0956893
0.0016954
0.00175106
0.0972178
0.0470592
0.0015665
0.0505934
0.0512708
0.00402672
0.0380023
0.0464968
0.0379908
0.0508582
0.0500897
0.0470503
0.0503357
0.00162678
0.104625
0.0604692
0.119466
0.0158566
0.0405551
0.113669
0.0641873
-0.00540965
0.0133848
0.0651995
0.0549417
0.0512891
0.0383937
0.0213642
0.0504243
0.0511917
0.049908
0.0513205
-0.0155695
0.0382357
0.0342838
0.106186
0.0585845
0.235518
0.00488362
0.00162169
0.0469017
-0.00151915
0.0508419
0.0513092
0.0498185
0.106764
0.115178
0.0475414
0.0311168
0.229468
0.0157717
0.00626126
0.0394409
0.0662076
-0.126766
0.049452
0.0521832
0.0508783
-0.00965306
0.0520715
0.031863
-0.0542587
0.0501214
0.0789255
0.0582528
0.0424032
0.0532528
0.0479093
0.0515837
0.0549015
0.0516319
0.0515211
0.0543665
0.00605947
0.0100913
0.0423415
0.335601
0.00183381
0.412825
0.0171993
0.0245493
0.054627
0.0185267
0.0578186
0.00725043
0.32116
0.0992551
0.0569431
0.0446613
0.0555597
0.0542683
0.0218656
0.050705
-0.00807333
0.0516477
0.100477
0.0493303
-0.0139493
0.00808044
0.0114047
0.0570799
0.0399128
0.00868048
0.0784324
0.00596725
0.0413246
0.00337232
0.0439954
0.050452
0.051197
-0.201198
0.0712516
0.0431052
0.0503819
0.0518271
0.0557591
0.0843554
0.00996184
0.0173892
0.049907
0.0446693
0.056428
0.0430368
0.0399607
0.00222446
0.0570607
0.0584378
0.00932154
0.0445202
0.0413066
0.104834
0.0504269
0.0570525
-0.255951
0.05132
0.00757338
0.0520564
0.0417366
0.0901865
0.0098083
0.0520657
0.0193038
0.050727
0.112342
0.0452227
0.0105972
0.0111766
0.113426
0.0506008
0.00122769
-0.00578935
0.0573622
0.0433889
0.0456439
0.0368398
0.23769
0.055016
0.0511603
0.0558771
0.0509557
-0.124803
0.0427803
0.0108979
0.0320699
0.0180616
0.520733
0.0429407
-0.0541679
0.0105563
-0.0923647
0.018521
0.0530288
0.0428781
0.0313067
-0.0469291
-0.0355066
0.0491324
0.0491023
0.119176
0.0483393
0.208989
0.0203778
0.0710392
0.0460025
0.397449
-0.101263
0.0433578
0.0504564
0.050498
0.0947364
0.0558371
0.0606618
0.0531503
0.0150491
0.0780365
-0.0293223
0.353456
0.0499848
0.0838219
0.0145129
0.120134
0.0447637
0.115227
0.00756336
0.0958091
0.0534869
0.0503904
0.00962614
0.00680326
0.0184548
0.118303
0.0133898
0.0244929
0.0522489
0.0498678
0.0393002
0.244665
0.0393342
0.012156
0.0675102
0.0200922
0.0363833
0.0537439
-0.00495379
0.0330508
0.0443144
-0.0162594
0.0589608
0.0270195
0.194799
0.0504461
0.0327488
0.0510201
0.0579271
0.0474135
0.0516599
0.0504282
0.00261372
0.0447403
0.0788473
0.0127093
0.0957331
0.0312676
0.0317324
0.0104754
-0.186465
0.0513041
0.057592
0.0245225
-0.0679496
0.00723647
0.0505206
0.508772
0.0504108
0.0454823
-0.16399
0.0558952
0.050833
0.0508857
0.0662565
0.0904296
0.0513302
0.0569469
0.10991
0.0516633
0.05416
0.0535505
0.0494571
0.0916077
-0.0168213
0.0551579
0.11723
0.0104027
0.00580724
0.00654259
0.0156303
0.0535278
0.0452793
-0.0399861
0.0047666
0.0737578
0.0495594
0.0513419
0.118561
-0.00121977
0.033655
0.037828
0.0334661
0.0530838
0.044306
0.0848667
-0.220752
0.367672
0.0833593
0.050965
0.0443246
0.0805296
0.352095
0.112013
0.0505717
0.000264926
-0.0119482
-0.243148
0.0362
-0.158638
0.051316
0.0534003
0.051362
0.00725487
0.0754961
-0.15947
0.0457961
-0.0827098
0.0481
0.0515114
0.0106039
0.0551684
0.00120085
-0.0421614
0.0566962
0.0356329
0.0249164
0.0366623
0.056538
0.0757977
0.0735184
0.0311329
0.0797736
0.0566914
0.0513962
0.0537499
0.0518823
0.105338
0.0230978
-0.00675683
0.0036566
0.0866927
0.0248683
0.0231978
0.0433625
-0.00842335
0.0346474
0.0560366
0.0508907
-0.000265153
0.109743
0.0459999
0.0408982
0.0576501
0.0237545
0.103721
0.116703
0.0237902
0.244229
0.0223667
0.0876882
-0.0395379
0.054842
0.0193592
0.0115246
0.0486322
0.0342781
0.0393255
0.0448251
0.0505906
0.0467273
-0.0136253
-0.00111452
0.0460117
-0.140668
0.101162
0.0517681
0.0517514
0.0019039
0.0516882
0.078223
0.0137772
0.00556251
0.0516305
0.0538614
0.050219
0.0516917
0.119362
-0.136775
0.0517427
0.0580908
0.0504279
-0.143173
0.0217946
0.0147592
0.0501819
0.0516489
0.0533334
0.0250195
0.085598
0.0284623
0.0489076
0.0538102
0.0515788
0.0212658
0.0854409
0.0391415
0.0511859
0.0309938
0.0255673
0.0759634
0.0470225
-0.0164197
0.145997
0.048615
0.0331702
0.0535655
0.0442404
-0.178579
0.0565142
0.0518209
0.0111124
0.105945
0.0832837
-0.136536
0.0774382
0.0353323
0.0279252
0.057643
0.040436
0.03518
0.056819
0.147475
0.0510851
-0.32777
0.08429
0.181097
0.0404078
-0.00561757
0.0967046
-0.00185578
0.260816
0.00694731
0.0258453
0.0340037
0.0392823
0.0503958
0.0446483
0.0886783
0.00115905
0.0570687
0.0486197
0.00646396
0.0171225
0.00601421
0.0810123
0.000657156
0.00559542
0.0496904
0.0717135
-0.0505226
0.0879622
0.0503942
0.0348344
0.0544674
0.0504095
0.0701698
0.05131
0.044665
0.245243
0.0925221
-0.0168707
0.0513483
0.0507372
0.050968
0.0571931
0.0546698
-0.00191638
0.0548349
0.0506361
-0.0155391
0.0218155
0.00538921
0.0696616
0.0508233
0.042487
0.0923396
0.0344791
0.0513703
-0.0414104
0.0107492
0.11215
0.0511215
-0.230339
0.0981888
0.0510188
0.00308936
0.0384757
-0.0243785
0.0361449
0.00109943
0.0950328
0.0502873
0.0529135
0.0221292
0.0407881
0.0556227
-0.00674681
0.0560495
0.0561968
0.0972557
0.0480344
0.0543905
0.0358539
0.00957472
0.0507648
0.0561094
0.0541843
0.0503026
0.097034
-0.0411179
0.0264064
0.05726
0.0545838
0.0422752
0.0503219
-0.187537
0.0802104
0.0511176
0.0721008
0.0424218
0.100365
0.153718
0.00125774
0.0560693
0.00561389
-0.00157619
0.0501586
0.0412622
-0.000318471
0.0461913
0.0511616
0.0736956
0.0275783
0.0547526
0.0511865
0.041981
0.0846484
0.0517164
0.032052
0.0513225
0.0389737
0.0680052
0.132997
0.050784
-0.196143
0.0811735
0.0159505
-0.119991
0.0932263
0.0321006
-0.0282306
0.0577271
0.142219
0.208467
0.0544384
0.0450278
0.0449534
0.0529051
0.0547887
0.00692975
-0.0771799
-0.145729
0.00878352
0.149066
-0.00665046
0.0102366
-0.0579361
0.0506122
0.0531231
0.0483348
0.0249792
0.0504159
0.0083151
0.0368419
-0.0122421
0.0504655
0.0536336
0.048527
-0.150953
0.120164
0.0789297
0.0625649
0.122229
0.0452457
0.0516841
-0.0155209
0.0366154
-0.0114538
0.0073601
0.0229644
0.00466946
0.0149319
0.0582204
0.0499877
0.0503821
-0.120442
0.0423236
0.0401572
0.0539797
0.00395485
0.0183525
0.0508213
0.0197409
-0.0124163
-3.85419e-05
0.0951896
0.0541722
0.0508195
0.00480714
0.0572778
0.0505775
0.000209233
0.00772147
0.054333
0.139444
0.00074566
0.0509278
0.0507958
0.0502438
0.107902
-0.139051
0.041917
0.0104128
0.0536833
0.053971
0.0106858
0.0510869
0.180431
0.0149578
-0.0531003
0.154563
0.030367
0.049986
0.0504359
0.0330281
0.0575146
0.0499147
-0.174125
0.0055108
0.0444775
0.219889
0.101994
0.0455322
0.050424
0.0508215
0.0532175
-0.0732768
0.161614
0.0336282
0.0784572
0.0676748
0.0061537
-0.0758824
0.0266477
0.055592
0.0540162
0.0167477
0.0417187
0.0499197
0.0530849
0.00393101
0.0547073
0.0328804
0.0564761
0.0824854
-0.0107932
0.0479086
0.0531933
-0.00319446
0.00339753
0.0599855
0.0529701
0.0777352
-0.00069555
0.0394618
0.0174394
0.0750717
0.0168982
-0.0330622
0.05433
0.159096
0.05005
0.105742
0.000365844
0.051047
0.0505286
0.375546
0.0510753
0.0571309
0.0264105
0.0559381
0.0560349
0.0589835
0.0509533
0.0509587
0.000264221
-0.0251303
0.04881
0.335961
0.037551
0.0528869
0.237352
0.0998185
0.0554129
0.0462954
0.0525564
0.0890097
-0.256815
0.0557595
0.0487469
0.0501814
0.0530446
0.0646996
0.0165101
0.0552953
0.0656065
0.0541241
-0.150334
-0.00520259
0.00777899
0.110962
0.0372982
0.0529792
0.00449969
-0.115033
0.0540475
0.0503906
0.0529152
0.0474856
0.0558611
0.049698
-0.00348989
0.0459438
0.044932
0.311933
-0.00106838
-0.00893678
0.00393802
0.0556922
0.000873524
0.0871014
-0.0869177
0.0486416
0.0102201
0.0510741
0.23627
0.0504592
0.0503981
0.0288265
0.0502096
0.0258586
0.0604486
0.0559606
0.0485246
-0.093166
0.0882594
0.0107226
0.0531517
0.0359637
-0.0579888
-0.00719046
0.0795168
0.0759703
0.0510319
0.0565007
0.0473314
0.052949
0.0487997
0.0531195
0.0907087
0.0751375
0.00720628
-0.104245
0.0258958
-0.00787311
0.0328009
-0.107804
0.049673
-0.0290214
0.053
-0.00994833
-0.00588463
0.0252286
0.050532
0.0294726
0.0106122
0.03209
-0.0154286
0.234622
-0.101705
0.0529459
-0.0011629
0.0473128
-0.00474943
0.0909272
0.00441628
0.0461247
0.0588933
0.00978658
0.0537797
0.0366759
0.0508889
0.0456507
0.0504609
0.0566514
0.00643585
0.00139633
0.050607
0.0850981
-0.0818434
0.494449
0.0500305
0.0741637
0.0244706
0.194048
0.0316425
-0.177408
-0.0336743
0.0483041
0.0245442
0.0682711
0.17632
0.0499868
0.0683965
0.0783628
0.0484851
-0.0858589
-0.00447279
0.0529946
0.0262608
-0.0346098
0.0770539
-0.0883387
0.0382742
0.0794584
0.0552126
0.050028
0.0566464
0.0452898
-0.074196
-0.000475529
-0.0629977
0.051589
-0.0861895
0.0300241
0.00404236
0.111353
0.0248579
0.0278637
-0.0543315
0.0380841
0.0366005
0.00509662
0.070749
0.0258738
0.00883983
0.0705692
-0.0890625
0.0860534
0.034661
0.0885946
0.051607
0.114267
0.000121137
0.101646
0.0542344
-0.0357491
0.0506575
0.0337635
0.00832295
-0.00109673
0.0581992
0.00597097
0.0462267
0.50998
0.0566535
0.00524237
0.092215
-5.70598e-05
0.00715068
0.0505974
0.0315106
0.0503857
0.467364
0.0508827
0.0505468
0.0502441
-0.0140258
0.0450125
0.0445109
-0.0118591
0.027884
0.0650984
0.0449341
0.0505194
0.107662
0.0488917
0.104664
0.00838589
0.0867176
0.0403641
0.0424519
0.0257927
-0.0123022
0.00938099
0.0438953
0.531143
0.0508626
0.050579
0.0567489
-0.136559
0.0542883
0.0305699
0.0797461
0.0547027
0.0420961
0.00300743
-0.0224908
0.0334709
-0.0463022
0.0556053
0.0459395
0.0142655
0.0190013
-0.000660657
0.0529313
0.0254171
0.0725853
0.19546
0.0372987
0.0505454
0.0454725
0.178829
0.0511819
0.0511851
-0.0342144
0.032283
-0.0391359
0.0420715
0.0504685
0.189719
-0.0140944
0.045586
0.0559696
0.0487567
-0.113461
0.0511868
0.0338893
-0.02697
0.0511914
0.0505068
0.0092828
0.0500472
0.0512018
0.0129142
0.0516037
0.0504218
0.0218431
0.0501292
-0.0123514
0.0504602
0.0590988
0.119598
0.00832356
0.0512028
0.00526306
-0.16876
0.0422205
0.074721
0.0484792
0.0345279
0.0491448
-0.0173262
-0.00564912
0.0463207
0.050515
0.132083
0.0305077
0.0150706
0.0108684
0.129683
0.0500669
0.00603695
0.0505028
-0.0196854
-0.00500294
-0.00466967
0.00801952
0.156335
-0.0895225
0.00525123
0.0102271
0.0485319
0.0530968
0.000952852
0.136339
0.0992883
0.0332358
-0.0727305
0.0500547
-0.0620748
0.199768
0.0499014
-0.00773822
-0.0224474
0.0811875
0.00802358
0.00704713
0.0733771
0.0505249
-0.0112112
-0.0634872
0.257306
0.0557218
0.00242017
-0.0308426
0.142589
0.0523733
0.0504778
0.00632605
-0.0531946
0.0414175
0.0691578
0.0507594
0.05004
0.0572542
0.0554796
0.0252767
0.0562742
0.0504635
-0.0148084
0.0356609
-0.0261615
0.0153308
0.050727
0.050516
0.142918
0.0552539
0.0804535
0.061109
-0.0466055
0.0817609
0.0497306
-0.0216948
0.0596976
0.0504221
0.0275062
0.0389579
0.0418773
0.094967
0.0254576
-0.145928
0.0412501
0.0502206
-0.0270906
0.0502055
-0.00563851
0.031089
-0.0249359
-0.0470743
0.0969563
-0.0310355
0.0507613
-0.00853043
0.0544723
0.0726839
-0.0232325
0.0201226
-0.0230637
-0.0627169
0.172823
-0.0113465
0.0647995
0.049685
0.0503261
0.0501818
-0.0311275
0.140494
0.0497334
-0.0139613
-0.0194147
0.0145775
0.00227302
0.0275848
0.110098
-0.0292316
0.0550698
0.0119936
0.0252815
0.0510644
0.0510832
0.0523691
0.0555495
0.0106848
0.0506544
0.0528887
0.0568807
0.0747478
0.000545069
0.0501929
-0.018457
0.0504582
0.0044699
0.0152767
0.0527382
0.042591
0.00155363
-0.0199656
0.0367106
0.0780507
0.0553535
0.0267041
0.032297
0.0505309
0.0545709
0.0547314
0.0527964
0.0505796
0.0701644
0.0505679
0.126566
0.0129172
-0.090232
0.0505812
0.0601446
0.0506843
0.0505068
0.122439
0.0593494
0.0498684
0.318289
0.134703
0.037711
0.0654188
0.0390587
0.120917
0.0201141
0.00884102
0.0563632
0.0567741
0.050515
0.0511156
-0.011583
0.0500905
0.0524275
0.123304
0.0527705
0.0544485
0.0275225
0.0504624
-0.0352964
0.0506099
0.052379
0.00781494
0.00936595
-0.0715884
0.110471
0.0711716
0.0526042
0.00720691
0.0525423
0.0254815
0.0044381
0.0566655
-0.0265521
0.0512584
0.0263259
0.0706408
0.0528403
0.102194
0.0506059
0.0565971
0.0505251
0.0293353
0.0500053
0.0540512
0.0242277
0.0462434
0.0712124
0.0272444
0.0505479
0.0271506
0.0121745
0.0564955
0.0084163
-0.013242
0.0505035
0.0309533
0.10967
0.0027032
0.0571247
0.0444201
0.0444582
0.0251237
0.0576568
0.151664
0.0550894
0.050649
0.0506841
-0.0214833
-0.00756559
-0.0219862
0.284309
0.101167
0.0510527
0.0260519
0.0108516
0.0509963
-0.0601171
0.0548351
0.104347
-0.000202175
0.0524187
0.144496
-0.00705834
-0.0165982
0.0229804
0.0293927
0.0509203
0.0501565
0.0612859
0.0505376
0.0504819
0.137096
0.0528611
0.0647318
0.0497499
0.0386386
0.0455555
0.369715
0.0418303
0.0448014
-0.00880463
0.104539
0.0947578
0.0343417
0.109307
0.0504276
0.0468094
0.00463192
0.0729806
0.125219
0.0520934
-0.000569567
0.0404366
0.0511811
0.0527973
0.0504771
0.0650224
0.0418623
0.0509987
0.0303587
0.257552
0.051087
0.0117398
0.0319302
0.0500957
0.0638673
0.0530911
0.0274966
0.050537
0.0504193
0.0144955
0.0294758
0.0918739
0.142593
-0.229446
0.0564519
0.0651742
-0.0390031
0.0332118
0.0530373
0.0407248
-0.000797211
0.0505665
0.0541021
0.0505015
0.0302523
0.0652789
0.0182126
0.0505775
0.0619232
0.0344402
0.0550016
0.11881
0.0463068
0.0503329
0.0505716
0.0295872
0.0226589
0.309353
0.0612437
0.0829924
0.00525204
0.00466745
0.0502947
0.100788
0.0505597
0.0505212
0.0510667
-0.00217941
0.0557175
0.0349792
0.00660878
0.0199316
0.00609292
0.0302161
0.0647572
0.114323
0.0478331
0.0113652
0.0923447
0.0329316
0.128783
0.0544605
-0.15575
0.142879
0.134637
0.0499891
-0.112346
0.00560683
0.00762819
0.137757
-0.000306535
0.0594466
0.0570542
0.0388533
0.0350675
0.0323729
0.211488
0.0745313
0.0548567
0.0144111
0.0549453
0.0359775
0.023811
0.0944964
0.036073
0.0688445
0.0843559
0.00551615
0.0968443
0.0319099
0.0513363
0.0609709
0.0499067
0.0455284
0.04911
0.0552876
0.0191177
-0.0490892
0.0501615
0.164906
0.0495494
0.041691
0.00896247
0.0302108
0.0335538
0.0488537
0.00711561
0.0121527
0.250957
0.0505428
0.00865412
0.0365308
0.0113434
0.051076
0.0507723
0.151274
0.0237333
0.0326929
-0.125082
0.0268446
0.0395388
0.137407
0.0144974
0.120245
0.0564462
0.0179635
0.0375212
0.0462312
-0.0276833
0.00672379
0.0199924
0.033321
0.0498997
0.00600103
0.00564188
-0.000930384
0.0400379
0.0371165
0.418251
-0.0372868
0.0495236
-0.0134069
0.0201652
-0.106802
0.050476
0.0320128
0.0327024
0.0504861
0.00364634
0.0277757
0.0538798
-4.72977e-05
-0.0229323
-0.00150823
0.0564968
0.0236279
0.0511057
0.0455077
-0.0241159
0.0828679
0.0285721
0.00677079
0.145977
0.0245432
0.0198836
0.0213258
0.00707169
-0.0277604
0.0488852
0.021647
0.0159331
0.0928561
0.277691
0.0131232
0.0352032
0.020571
0.0504779
0.0932695
0.0314296
0.00892994
0.05022
0.0358844
0.00610176
0.01388
0.149094
0.0106093
0.0298266
0.0296898
0.0554669
0.00322216
0.0266844
0.0745155
0.0600079
0.0565786
0.0102128
0.0365239
0.0423982
0.0388543
0.0505633
0.00580304
0.0632541
0.0296175
-0.00379753
-0.0450797
0.0448542
0.029271
0.0164889
0.024045
0.0505963
0.100506
0.099893
0.0729696
0.051051
0.229369
0.0066975
0.0535372
0.090404
0.0500622
0.0585562
0.0330206
0.0266075
0.0543858
-0.10462
0.0517757
0.060155
0.0433718
-0.0117762
-0.0300646
-0.000418861
0.0633162
0.00917765
0.0510812
0.0295894
0.0756672
0.0517929
0.149389
0.0171674
0.0279623
0.00801189
0.067651
0.0218966
0.0381394
0.050231
0.0504246
0.0473843
0.0641705
0.123114
0.0155676
0.147177
0.0836074
0.0904328
0.052428
0.0705635
0.00702335
0.0504568
-0.0245804
-0.0191089
0.0534754
0.0505252
0.0409104
0.0486381
0.050388
0.0658997
0.0346461
0.132153
0.0161831
0.0356271
0.0898508
-0.0107775
0.00547518
0.0870289
0.0129121
0.0240321
0.0711329
0.0501322
0.0637145
0.0280942
0.122825
0.131335
0.22058
0.0504259
0.127642
0.0330995
0.0321584
0.104939
0.108092
0.100592
-0.0244881
0.0210475
0.0675324
0.0212323
0.0401528
0.0465031
0.0916622
0.0498269
0.016746
-0.0294471
0.0604926
-0.0254684
0.0494303
0.0843144
0.0558404
0.0307243
0.103009
0.163802
0.0217273
0.0438767
0.0171761
0.0339505
0.0719707
-2.94193e-05
0.0834586
-0.00237239
0.0504347
0.021454
-0.141452
0.0990531
0.0362255
-0.0420088
0.0103173
0.0423967
0.0494472
0.103847
0.0937103
0.0341832
0.0576591
0.0521168
0.00572211
0.0445339
0.00436873
0.0816098
0.0359544
0.142616
0.0504498
0.0465965
0.00391805
0.0380605
0.0386397
0.0668426
0.0574413
0.02995
0.167679
0.108075
0.0502641
0.00564907
0.0451745
0.0501655
0.134079
0.0497995
0.022015
0.0249116
0.0498116
0.049932
0.0532516
0.00732016
0.0620996
0.0983116
0.0285811
0.130406
0.0327016
0.0337923
0.0376506
0.0792552
0.0506385
0.0399199
0.0377044
0.0269534
-0.0216661
0.00928934
0.0675023
0.0454099
0.0561676
0.0317796
0.0433752
0.0618651
0.0221562
0.106739
0.0325015
0.0501968
0.00834629
0.0879097
0.00723891
0.0503296
0.136173
-0.0229679
0.0467449
0.0989174
0.00586284
0.0545085
0.0965543
0.00355113
0.0899625
0.114873
0.00411955
0.0484626
0.0800207
0.0769764
0.0140215
0.0473955
0.0314476
0.0504054
0.0496469
0.0500871
0.0132529
0.0173986
0.0207114
0.0832364
-0.0634767
0.169236
-0.0625837
0.0280198
0.0432646
-0.0418972
0.0502538
-0.0996881
0.0334496
0.0232272
0.0185329
0.0289542
0.0654917
0.042232
0.033014
0.0552178
0.0503073
0.0790709
-0.0377918
0.0137555
0.00632139
0.0173037
0.0533235
0.0281178
0.0164942
0.0559242
0.0243579
0.0390376
0.11984
0.086421
0.0816749
0.0939114
-0.00189336
-2.01766e-05
0.00588403
0.0231145
-0.0042697
0.0145876
0.0591707
0.0437159
0.131877
0.075105
0.00705758
0.0505772
0.0966786
0.127264
0.0745933
0.0803631
0.0578756
0.0170062
0.115151
0.0288552
0.0240889
0.0344402
0.03352
0.0493948
0.0287113
0.0300141
0.0547425
0.0203233
0.0303467
0.0453136
0.104733
0.044522
0.0410469
0.0765064
0.0563794
0.0497285
0.0521834
0.00240684
0.0160408
0.0512149
0.0726746
-0.0522296
0.00643607
0.0569608
0.0196334
-0.0191898
-0.0402922
-0.00617972
0.0334057
0.0344728
0.0564368
0.033851
0.0260476
-0.00030108
-0.00121867
0.00326977
0.000916291
0.0350217
0.0493572
0.0490827
0.129604
0.0633724
0.0349972
0.0388931
-0.000336124
0.0455703
0.027547
0.149115
0.0878643
0.0114925
0.0554771
0.0165691
0.0500267
0.00863466
0.000644679
0.0278221
0.0500814
0.0600252
0.166406
0.0428579
0.089503
-0.0168252
0.0504603
0.0351778
0.0948961
0.101988
0.070844
0.0510415
0.0465855
0.0476048
0.0510075
0.0501027
0.0417496
0.00700155
0.0501004
0.0575483
0.0550579
-0.334093
0.119336
0.0476501
0.0504231
0.01089
0.0170189
0.024084
0.0777006
0.0177985
0.049591
0.0432841
0.00493165
0.0509355
0.0140156
0.0936649
0.0720525
0.0487504
0.0123564
0.0507038
0.0399366
0.0380117
0.0427345
-0.00308802
0.0603486
0.0354546
0.0337984
0.111631
0.0824614
0.0500401
0.0505367
0.0366103
0.0323793
0.0139315
0.0210599
0.0406598
0.00780707
0.0810658
0.0510264
0.0382546
0.00604914
0.0398977
0.0858407
0.0647037
0.052876
0.151236
0.0225021
0.126011
0.140985
0.0279847
-0.00252443
6.33499e-05
0.12511
0.040611
0.00673657
0.0752225
0.0367371
0.0214768
0.0900742
0.0729152
0.0520288
0.00278797
0.0320246
0.0282157
0.0412869
0.00620118
0.0520353
0.0813474
0.051854
0.0581316
0.0866405
0.0562103
0.0439685
0.10675
0.00769879
0.0919405
0.0286963
0.0732023
0.00874535
0.0625408
0.0120642
0.0515896
0.030517
0.00976282
0.0685469
0.0277266
0.0515478
0.0428495
0.0148458
0.0464253
0.0354695
0.0572748
0.0370382
0.0226055
-0.00114449
0.0962398
0.104957
0.101282
0.0418806
0.0419674
0.0355603
0.0192054
0.0291031
0.0507851
0.0555662
0.0711839
0.0246523
0.059339
0.00495358
0.0312432
0.0580707
0.0335157
0.0326951
0.0444852
0.0300626
0.0381878
0.134944
0.258242
0.0229232
0.0247578
0.0286102
0.0319241
0.0382435
0.0354964
0.0338852
0.0235784
0.0130592
0.0491058
0.0504079
0.0493366
0.00655145
0.0502795
0.0300932
0.0436722
0.031424
0.0606469
0.0343601
0.123455
-0.00707795
0.0499744
0.0355261
0.0916668
0.0424287
0.0616993
0.0894313
0.0548868
0.0501795
0.030395
0.00477353
0.0869918
0.00384694
0.116009
0.0842808
0.00387919
0.0643349
0.0691574
0.0102471
0.043796
0.0495505
0.051611
0.0369823
0.049932
0.0326759
-0.0375768
0.0490657
0.0808296
0.0442147
0.063482
0.0641838
0.160746
0.056194
0.042909
0.00519485
0.0134472
0.0878059
0.0316263
0.0845863
0.0514734
0.0384497
0.0662016
0.0466288
0.033297
0.0510457
0.0515057
0.0316782
0.0498629
0.0351143
0.0623883
0.081627
0.0146025
0.0496384
0.00689842
0.00166897
0.0688787
0.0605353
0.0521198
0.0693706
0.132762
0.0503906
0.0412268
0.0478076
0.0615344
0.0394569
0.0359578
0.0399613
0.0748272
0.0843926
0.0328602
0.0803458
0.0909424
0.0610763
0.109187
0.0587065
0.0790787
0.0285762
0.0433388
0.0219975
0.0511196
0.0655371
0.0518197
0.0841948
0.00215218
0.0559159
-0.0124854
0.0455808
0.0272033
0.118263
0.00783331
0.0479374
0.0500695
0.00530996
0.108084
0.0276392
0.0299704
0.0161494
0.0454048
0.0814886
0.0383494
0.0486994
0.0366542
0.00871139
0.0438868
0.0411054
0.391307
0.0399314
0.0518513
0.060011
0.0656902
0.0437813
0.0320461
0.0504146
0.102663
0.0432727
0.0503998
0.0132032
0.0374388
0.0292127
0.0418116
0.0642063
0.0433609
0.0455721
0.0448864
0.0343451
0.0810172
0.0504381
0.0397092
0.0584557
0.0461414
0.0405924
0.0562429
0.0561178
0.0604452
0.060895
0.0504929
0.0441541
0.0519625
0.0295097
-0.00163367
-0.000749682
0.146373
0.0753962
-0.0096793
0.0308049
0.0497919
0.0529526
0.0593668
0.0747922
0.0507483
0.0280011
0.0766396
0.0575871
0.0264742
-0.0098218
0.0217359
0.0497187
0.0380935
0.0503046
0.0947174
0.232837
0.0401506
0.0580885
0.0434172
0.0065132
0.0500743
0.0733045
0.0282104
0.0463907
0.050902
0.0337908
0.0973102
0.0393966
0.057367
0.0261762
0.0428708
0.0445253
0.0885739
0.0613336
0.0411673
0.0523715
0.0396345
0.0558027
0.0387673
0.0506979
0.0400324
0.0501721
0.0557315
0.0111673
0.0694657
0.0172256
0.074295
0.0745339
0.054211
0.0393879
0.0359559
0.0779419
0.0926516
0.0109146
0.0428358
0.0568382
0.0592487
0.0407363
0.0488672
0.0448874
0.0374952
0.028584
0.0285645
0.0455945
0.0152267
0.0401271
0.0801819
0.041298
0.0437677
0.0397721
0.0243537
0.0850184
0.0546514
-0.000659978
0.0398549
0.0423974
0.0100381
0.0531368
0.000788075
0.0525461
0.0427509
0.047563
0.0481044
0.051276
0.043506
0.0045535
0.0504168
0.0210277
0.0724577
0.052698
0.0587425
0.0333924
0.0966619
0.0615823
0.0507822
0.0353875
-0.0661749
0.0505164
0.00572074
-0.0818528
0.0665057
0.0861823
0.0539827
0.0419404
0.0302284
0.0725232
0.0595496
0.0503398
0.0926823
0.0114034
0.0824429
0.0504395
0.0498919
0.0441762
0.0452406
0.0459644
0.0670153
0.0762602
0.0468696
-0.00144833
0.0474503
0.0542962
0.0424136
0.032882
0.00045845
0.0498961
0.0431591
0.0240835
0.0446496
0.0472406
0.0526884
0.127975
0.0736783
0.0508513
0.0633278
0.054165
0.0429451
0.0755684
0.0605989
0.0448805
0.0637051
0.0372539
0.063437
0.0854565
0.00246075
0.023969
0.0509414
0.0707067
0.0483815
0.0527748
0.0517111
0.0429256
0.00161648
0.000316327
0.0596861
0.0328964
0.0347716
0.028378
0.0494616
0.0490956
0.0508495
0.0716132
0.0350716
0.050479
0.0429313
0.0551547
0.0233854
0.0102868
0.0504752
0.0499902
0.0367713
0.0491437
0.0488498
0.0433567
0.0460975
0.0405802
0.0669725
0.0625485
0.0347411
0.0482486
0.0536449
0.05838
0.0432969
0.050428
0.0437884
0.0312007
0.00135875
0.0054414
0.0356894
0.123855
0.0437004
-0.0599547
0.089077
0.0431353
0.0417698
0.0543691
0.0495539
0.0504764
0.0538189
0.0574342
0.0427616
0.0519598
0.0496553
0.0968367
0.00566162
0.0340899
0.0506248
0.0556081
0.0637454
0.0712047
0.0329139
0.0526006
0.0503673
0.0488327
0.0441789
0.0296164
0.0270457
0.00580119
0.0624294
0.0486626
0.0394512
0.0567583
0.0544326
0.0540333
0.0477449
0.0588543
0.0504994
0.0156983
-0.00225032
0.049739
0.0668622
0.0427114
0.0456289
0.0474183
0.0516604
-0.0466851
0.0642379
-7.12215e-05
0.0441437
0.00832457
0.0530033
0.0695563
0.128418
0.0559865
0.050659
0.0308929
0.0220417
0.111766
0.0436747
0.0675437
0.0459284
0.0500279
0.0655839
0.048003
0.121497
0.000279018
0.079583
0.0535581
0.0488748
0.0504722
0.0485449
-0.0262117
0.0393303
0.0499538
0.0570905
0.0486852
0.0499608
0.0498821
0.0110083
0.00354594
0.0552731
0.0491968
0.0827626
0.0562006
0.102028
0.384432