/*--------------------------------*- C++ -*----------------------------------*\
  =========                 |
  \\      /  F ield         | OpenFOAM: The Open Source CFD Toolbox
   \\    /   O peration     | Website:  https://openfoam.org
    \\  /    A nd           | Version:  7
     \\/     M anipulation  |
\*---------------------------------------------------------------------------*/
FoamFile
{
    version     2.0;
    format      ascii;
    class       volScalarField;
    location    "123";
    object      p;
}
// * * * * * * * * * * * * * * * * * * * * * * * * * * * * * * * * * * * * * //

dimensions      [0 2 -2 0 0 0 0];

internalField   nonuniform List<scalar> 
26800
(
-0.608412
-0.583351
-0.601196
-0.503189
-0.418411
-0.341412
-0.30718
-0.291551
-0.291361
-0.266234
-0.226299
-0.195922
-0.176795
-0.169088
-0.177718
-0.18517
-0.179265
-0.163712
-0.147952
-0.128699
-0.620617
-0.594383
-0.617755
-0.513214
-0.42163
-0.336561
-0.294896
-0.272039
-0.269793
-0.250201
-0.217874
-0.194412
-0.179408
-0.175829
-0.191359
-0.200517
-0.189438
-0.16618
-0.146833
-0.127569
-0.632464
-0.604614
-0.633234
-0.521683
-0.423436
-0.33077
-0.28213
-0.252806
-0.247246
-0.232372
-0.20802
-0.19144
-0.180516
-0.181088
-0.202722
-0.213844
-0.197316
-0.166876
-0.143585
-0.124713
-0.643909
-0.614002
-0.647593
-0.528609
-0.423943
-0.324252
-0.269138
-0.234137
-0.22429
-0.213352
-0.197073
-0.186984
-0.179813
-0.184228
-0.210668
-0.222703
-0.201742
-0.165618
-0.138182
-0.119762
-0.654908
-0.622505
-0.660793
-0.534024
-0.423263
-0.317228
-0.256161
-0.216382
-0.201699
-0.193921
-0.185422
-0.181034
-0.176969
-0.184829
-0.214987
-0.227159
-0.202248
-0.162323
-0.130796
-0.11261
-0.665423
-0.630067
-0.672795
-0.537979
-0.421509
-0.309913
-0.243402
-0.199848
-0.180275
-0.174915
-0.173475
-0.17359
-0.171725
-0.182786
-0.216114
-0.227485
-0.198895
-0.156881
-0.121781
-0.10359
-0.6754
-0.636638
-0.683558
-0.54054
-0.418793
-0.302493
-0.231036
-0.1847
-0.160707
-0.15705
-0.161577
-0.164643
-0.163991
-0.17808
-0.214393
-0.223965
-0.19195
-0.14917
-0.111725
-0.0933751
-0.684713
-0.642263
-0.693036
-0.54179
-0.415233
-0.295113
-0.219224
-0.170903
-0.143448
-0.140757
-0.149919
-0.15414
-0.153739
-0.170477
-0.209609
-0.216551
-0.181766
-0.13921
-0.101314
-0.0827142
-0.69342
-0.646859
-0.701171
-0.541824
-0.410949
-0.287872
-0.208122
-0.158262
-0.128605
-0.126111
-0.138449
-0.14192
-0.140796
-0.159697
-0.201289
-0.205189
-0.168877
-0.127347
-0.0910751
-0.0721329
-0.701499
-0.650396
-0.707893
-0.540746
-0.406066
-0.280823
-0.197854
-0.146521
-0.115892
-0.11284
-0.126776
-0.127672
-0.124852
-0.145976
-0.189247
-0.190246
-0.154023
-0.114369
-0.081184
-0.0619619
-0.70887
-0.652879
-0.713114
-0.538668
-0.400704
-0.273995
-0.188507
-0.135485
-0.104644
-0.100378
-0.114086
-0.110957
-0.105764
-0.130273
-0.174113
-0.172568
-0.138007
-0.101306
-0.0715833
-0.0525605
-0.715451
-0.654329
-0.716738
-0.535702
-0.394976
-0.267413
-0.180111
-0.125084
-0.0939832
-0.0878752
-0.099117
-0.0913168
-0.0838715
-0.113775
-0.156538
-0.15321
-0.121597
-0.0889554
-0.0623513
-0.0442544
-0.721165
-0.654785
-0.718659
-0.531959
-0.388988
-0.261116
-0.172657
-0.115384
-0.0831501
-0.0742529
-0.0804534
-0.0684812
-0.0602712
-0.0973738
-0.137304
-0.133241
-0.105552
-0.0775778
-0.053866
-0.0370514
-0.725939
-0.654316
-0.718776
-0.527547
-0.382833
-0.25516
-0.166105
-0.10657
-0.0719078
-0.0586534
-0.0570362
-0.0428294
-0.0371008
-0.0807513
-0.117308
-0.113644
-0.0905609
-0.0671555
-0.0465029
-0.0308469
-0.729703
-0.653027
-0.717007
-0.522566
-0.3766
-0.249602
-0.160406
-0.0988858
-0.0607152
-0.0412591
-0.0311179
-0.016153
-0.0172013
-0.0655629
-0.0976256
-0.0952724
-0.0770745
-0.0577757
-0.0403068
-0.0255971
-0.732405
-0.651069
-0.713303
-0.517107
-0.370368
-0.244483
-0.155527
-0.0925321
-0.0505293
-0.0239064
-0.00622715
0.00804725
-0.00246756
-0.0512869
-0.0792338
-0.078791
-0.0652815
-0.0496003
-0.0351153
-0.0213563
-0.734009
-0.648644
-0.707666
-0.511252
-0.364211
-0.23982
-0.151459
-0.0875656
-0.0423229
-0.00949526
0.0133401
0.0259659
0.00710375
-0.0383149
-0.0629257
-0.064606
-0.0552112
-0.0426657
-0.0307531
-0.018129
-0.734511
-0.646003
-0.700158
-0.505071
-0.358193
-0.235612
-0.148199
-0.083915
-0.0365909
8.64018e-05
0.0254472
0.0359179
0.0128939
-0.027152
-0.0492266
-0.0528453
-0.0467868
-0.0368781
-0.0270923
-0.0157681
-0.733936
-0.643445
-0.690906
-0.498627
-0.352371
-0.231843
-0.145724
-0.0814715
-0.0332843
0.00478687
0.0306752
0.0392569
0.0160873
-0.0182725
-0.0383268
-0.043393
-0.0398511
-0.0321017
-0.0240411
-0.0140771
-0.732337
-0.641304
-0.6801
-0.491972
-0.346787
-0.228494
-0.143981
-0.0801322
-0.0320503
0.00573976
0.0310799
0.0381944
0.0172744
-0.0118747
-0.0300647
-0.0359691
-0.0342102
-0.0281954
-0.0215229
-0.012888
-0.729792
-0.639932
-0.667986
-0.485151
-0.341475
-0.225538
-0.142895
-0.0797803
-0.0324419
0.0042575
0.0285216
0.034609
0.016791
-0.00775369
-0.0240364
-0.0302334
-0.0296741
-0.0250227
-0.0194701
-0.0120566
-0.726396
-0.639677
-0.654855
-0.478199
-0.336457
-0.222946
-0.14238
-0.0802712
-0.0340493
0.00125273
0.0242159
0.0296938
0.0150297
-0.00545142
-0.0197831
-0.0258681
-0.0260712
-0.0224663
-0.0178197
-0.0114731
-0.722247
-0.640851
-0.641023
-0.471145
-0.331745
-0.220683
-0.142351
-0.0814484
-0.0365423
-0.00272055
0.0189108
0.0241383
0.0123987
-0.0045034
-0.0169078
-0.0226077
-0.0232528
-0.0204276
-0.0165148
-0.0110616
-0.717435
-0.643701
-0.626824
-0.464013
-0.327338
-0.218714
-0.142725
-0.0831624
-0.0396637
-0.0073035
0.0130842
0.0183376
0.0092232
-0.00453997
-0.0150957
-0.0202365
-0.0210914
-0.0188217
-0.0155037
-0.0107754
-0.712034
-0.648363
-0.612583
-0.456816
-0.323228
-0.217
-0.143421
-0.0852796
-0.0432129
-0.0122403
0.00705225
0.012526
0.00573729
-0.00528294
-0.0141
-0.018582
-0.0194768
-0.0175752
-0.0147409
-0.0105815
-0.706087
-0.654829
-0.598609
-0.449564
-0.3194
-0.215506
-0.144364
-0.0876836
-0.0470326
-0.0173431
0.00102404
0.0068453
0.00210488
-0.00652412
-0.0137278
-0.0175065
-0.0183119
-0.0166303
-0.0141877
-0.0104322
-0.699602
-0.662909
-0.585169
-0.442261
-0.315828
-0.214194
-0.145489
-0.0902751
-0.0509984
-0.0224736
-0.00486497
0.00137991
-0.00156147
-0.00810721
-0.0138292
-0.0168982
-0.0175117
-0.0159528
-0.013804
-0.0102595
-0.692544
-0.67221
-0.572467
-0.434907
-0.312483
-0.21303
-0.146734
-0.0929705
-0.0550124
-0.0275308
-0.0105292
-0.00382171
-0.00518507
-0.00991444
-0.0142882
-0.0166621
-0.0170068
-0.0155272
-0.0135418
-0.0100311
-0.684848
-0.682108
-0.560639
-0.427503
-0.309331
-0.211981
-0.148048
-0.0957002
-0.0589977
-0.0324416
-0.015917
-0.00873389
-0.008714
-0.0118573
-0.0150145
-0.0167159
-0.0167481
-0.0153284
-0.0133592
-0.00984634
-0.676426
-0.691755
-0.549754
-0.420053
-0.306334
-0.211014
-0.149386
-0.0984071
-0.0628943
-0.0371544
-0.020999
-0.0133456
-0.0121134
-0.0138698
-0.015936
-0.0169911
-0.0167008
-0.0153029
-0.0132501
-0.00995654
-0.667193
-0.700122
-0.539809
-0.412565
-0.303455
-0.2101
-0.150707
-0.101044
-0.0666559
-0.0416332
-0.0257611
-0.0176548
-0.0153603
-0.0159029
-0.0169938
-0.0174345
-0.0168311
-0.0153915
-0.0132514
-0.0105596
-0.657107
-0.706107
-0.530742
-0.405051
-0.300659
-0.20921
-0.151979
-0.103574
-0.0702472
-0.0458545
-0.030199
-0.0216654
-0.0184399
-0.0179197
-0.0181403
-0.0180046
-0.0171011
-0.0155707
-0.013428
-0.0111616
-0.646215
-0.708687
-0.522446
-0.397525
-0.297914
-0.208321
-0.153174
-0.105967
-0.0736423
-0.0498037
-0.0343148
-0.0253844
-0.0213436
-0.0198927
-0.0193374
-0.0186671
-0.0174755
-0.0158327
-0.0137137
-0.0116174
-0.634702
-0.707105
-0.514785
-0.390005
-0.295192
-0.207409
-0.15427
-0.108199
-0.0768224
-0.0534732
-0.0381148
-0.028821
-0.0240668
-0.021801
-0.0205547
-0.0193928
-0.0179265
-0.0161566
-0.0140544
-0.0120188
-0.622911
-0.701023
-0.507618
-0.382519
-0.292471
-0.206455
-0.155247
-0.110253
-0.0797743
-0.0568602
-0.0416078
-0.0319852
-0.0266078
-0.0236288
-0.021768
-0.0201572
-0.0184284
-0.016527
-0.0144194
-0.0123789
-0.611337
-0.690605
-0.500812
-0.375096
-0.289734
-0.205441
-0.15609
-0.112116
-0.0824897
-0.0599656
-0.044804
-0.0348876
-0.028967
-0.0253644
-0.022958
-0.0209393
-0.0189624
-0.0169256
-0.0147882
-0.0127286
-0.600556
-0.676473
-0.494262
-0.367767
-0.286969
-0.204354
-0.156788
-0.113779
-0.084964
-0.0627928
-0.0477142
-0.0375385
-0.0311462
-0.0269991
-0.0241094
-0.0217217
-0.0195111
-0.0173386
-0.0151552
-0.0130665
-0.591148
-0.659559
-0.487892
-0.360561
-0.284167
-0.203182
-0.157331
-0.115235
-0.0871952
-0.0653473
-0.0503497
-0.0399483
-0.0331482
-0.0285266
-0.0252098
-0.0224897
-0.020061
-0.0177542
-0.0155137
-0.0133923
-0.583603
-0.6409
-0.481658
-0.353498
-0.281322
-0.201914
-0.157711
-0.116481
-0.0891837
-0.0676356
-0.0527214
-0.0421268
-0.0349761
-0.0299423
-0.0262496
-0.0232314
-0.0206003
-0.0181631
-0.01586
-0.0137037
-0.578263
-0.621458
-0.47554
-0.346592
-0.27843
-0.200542
-0.157925
-0.117515
-0.0909315
-0.069665
-0.0548403
-0.0440835
-0.0366338
-0.0312434
-0.027221
-0.0239366
-0.0211194
-0.0185574
-0.0161902
-0.0139958
-0.575306
-0.602001
-0.46953
-0.339849
-0.275488
-0.19906
-0.157967
-0.118337
-0.0924421
-0.0714434
-0.0567167
-0.0458271
-0.0381252
-0.032428
-0.0281179
-0.0245972
-0.0216101
-0.0189308
-0.0165001
-0.0142672
-0.574764
-0.583071
-0.463627
-0.333267
-0.272492
-0.197463
-0.157835
-0.118948
-0.0937197
-0.0729788
-0.0583607
-0.0473663
-0.0394542
-0.0334951
-0.0289358
-0.0252065
-0.0220658
-0.0192778
-0.0167863
-0.0145137
-0.576557
-0.565009
-0.45783
-0.326843
-0.26944
-0.195747
-0.157529
-0.119351
-0.0947695
-0.0742794
-0.0597817
-0.0487089
-0.0406252
-0.0344445
-0.0296709
-0.0257591
-0.0224806
-0.0195937
-0.0170452
-0.0147338
-0.58053
-0.547998
-0.452136
-0.320569
-0.266328
-0.193909
-0.157047
-0.119549
-0.0955967
-0.0753532
-0.0609888
-0.0498624
-0.0416422
-0.0352766
-0.0303207
-0.0262506
-0.0228501
-0.0198744
-0.0172738
-0.0149245
-0.58648
-0.532111
-0.446539
-0.314432
-0.263151
-0.191944
-0.15639
-0.119544
-0.0962073
-0.0762082
-0.0619905
-0.0508341
-0.0425094
-0.0359923
-0.0308834
-0.0266776
-0.0231704
-0.0201166
-0.0174692
-0.0150842
-0.59418
-0.517348
-0.441037
-0.308419
-0.259906
-0.189852
-0.155559
-0.11934
-0.0966071
-0.0768521
-0.0627947
-0.0516305
-0.0432308
-0.0365926
-0.0313577
-0.0270373
-0.0234385
-0.0203174
-0.0176288
-0.0152108
-0.603385
-0.503661
-0.435625
-0.302513
-0.256589
-0.18763
-0.154556
-0.118942
-0.0968021
-0.0772926
-0.0634092
-0.052258
-0.0438105
-0.0370791
-0.0317429
-0.0273278
-0.0236521
-0.0204742
-0.0177505
-0.0153028
-0.613846
-0.490982
-0.430292
-0.296699
-0.253194
-0.185276
-0.153381
-0.118354
-0.0967982
-0.0775369
-0.0638411
-0.0527227
-0.0442525
-0.0374534
-0.0320388
-0.0275475
-0.023809
-0.020585
-0.0178322
-0.0153588
-0.62531
-0.47923
-0.425021
-0.290957
-0.249717
-0.182787
-0.152037
-0.117579
-0.0966013
-0.077592
-0.0640972
-0.0530304
-0.0445607
-0.0377175
-0.0322455
-0.0276955
-0.0239079
-0.0206481
-0.0178725
-0.0153778
-0.637527
-0.468315
-0.419794
-0.285269
-0.246153
-0.180161
-0.150526
-0.116622
-0.0962173
-0.0774646
-0.0641839
-0.0531864
-0.0447388
-0.0378732
-0.0323636
-0.0277713
-0.0239477
-0.0206621
-0.0178698
-0.0153589
-0.650253
-0.458141
-0.41459
-0.279615
-0.242497
-0.177397
-0.148851
-0.115486
-0.095652
-0.0771613
-0.0641075
-0.053196
-0.0447908
-0.0379227
-0.0323936
-0.0277748
-0.0239277
-0.0206258
-0.0178232
-0.0153014
-0.663251
-0.448611
-0.409384
-0.273975
-0.238745
-0.174491
-0.147015
-0.114176
-0.0949109
-0.0766881
-0.0638739
-0.0530642
-0.0447203
-0.0378683
-0.0323367
-0.0277059
-0.0238474
-0.0205385
-0.0177318
-0.0152051
-0.676293
-0.43963
-0.404151
-0.268326
-0.23489
-0.17144
-0.145022
-0.112693
-0.0940004
-0.0760502
-0.0634889
-0.0527958
-0.044531
-0.0377124
-0.032194
-0.0275651
-0.0237067
-0.0203998
-0.0175954
-0.0150696
-0.689164
-0.431099
-0.398865
-0.262649
-0.230932
-0.168239
-0.142876
-0.11104
-0.0929272
-0.0752532
-0.0629579
-0.0523959
-0.0442264
-0.0374573
-0.031967
-0.0273528
-0.0235054
-0.0202093
-0.0174138
-0.0148953
-0.70166
-0.422925
-0.3935
-0.25692
-0.226867
-0.164883
-0.140582
-0.10922
-0.0916964
-0.0743033
-0.0622854
-0.0518687
-0.0438099
-0.0371052
-0.031657
-0.0270699
-0.0232435
-0.0199667
-0.017187
-0.0146831
-0.713591
-0.415014
-0.388031
-0.251115
-0.222697
-0.161369
-0.138141
-0.107239
-0.0903095
-0.0732078
-0.0614763
-0.0512181
-0.0432853
-0.0366584
-0.0312656
-0.0267172
-0.0229215
-0.0196718
-0.0169149
-0.0144336
-0.724781
-0.407278
-0.382433
-0.24521
-0.218419
-0.157695
-0.135554
-0.105106
-0.0887664
-0.0719723
-0.0605365
-0.0504483
-0.0426561
-0.0361197
-0.0307945
-0.026296
-0.0225399
-0.0193247
-0.0165967
-0.0141454
-0.735067
-0.399631
-0.376686
-0.239183
-0.214028
-0.15386
-0.132828
-0.102819
-0.087078
-0.0705942
-0.0594741
-0.0495634
-0.0419257
-0.0354921
-0.030246
-0.0258072
-0.0220999
-0.0189263
-0.0162323
-0.013813
-0.744302
-0.39199
-0.370772
-0.233016
-0.209517
-0.149846
-0.129996
-0.100342
-0.0852851
-0.0690567
-0.058301
-0.048566
-0.0410985
-0.034778
-0.0296229
-0.0252518
-0.0216031
-0.018478
-0.0158231
-0.0134266
-0.752354
-0.384275
-0.364676
-0.226685
-0.204902
-0.145593
-0.127134
-0.0975947
-0.0834597
-0.0673355
-0.057032
-0.0474562
-0.0401791
-0.0339796
-0.028928
-0.0246307
-0.0210509
-0.0179806
-0.0153723
-0.0129795
-0.759104
-0.376407
-0.358381
-0.220142
-0.200259
-0.140996
-0.124337
-0.0945112
-0.0816499
-0.0654312
-0.0556684
-0.0462399
-0.0391695
-0.0331003
-0.0281624
-0.0239465
-0.0204443
-0.0174353
-0.0148772
-0.0124833
-0.764449
-0.368317
-0.351865
-0.213284
-0.195739
-0.135968
-0.121596
-0.0911823
-0.0797578
-0.0634259
-0.0541703
-0.0449417
-0.038065
-0.0321458
-0.0273241
-0.0232041
-0.0197828
-0.0168448
-0.0143223
-0.0119753
-0.7683
-0.359949
-0.345121
-0.205979
-0.191459
-0.130618
-0.11866
-0.0879689
-0.0774805
-0.0614516
-0.0524997
-0.0435737
-0.0368686
-0.0311163
-0.0264163
-0.0224041
-0.0190685
-0.0162053
-0.0137178
-0.0114479
-0.770583
-0.351253
-0.338197
-0.198185
-0.187232
-0.125326
-0.115238
-0.0848935
-0.0749077
-0.0594591
-0.0506956
-0.0421191
-0.0355908
-0.0300123
-0.0254432
-0.0215467
-0.0183031
-0.015516
-0.0130728
-0.0108911
-0.771235
-0.34213
-0.331246
-0.190117
-0.182455
-0.120346
-0.111404
-0.0818741
-0.0721237
-0.057398
-0.0487921
-0.0405691
-0.0342373
-0.0288364
-0.0244079
-0.0206333
-0.0174878
-0.0147792
-0.012391
-0.0102995
-0.770208
-0.332367
-0.324462
-0.181928
-0.177032
-0.115552
-0.107252
-0.0788353
-0.0691937
-0.0552351
-0.0468084
-0.0389246
-0.0328107
-0.027592
-0.0233131
-0.0196659
-0.0166241
-0.0139976
-0.0116732
-0.0096715
-0.767465
-0.321683
-0.317777
-0.173763
-0.171077
-0.110838
-0.102862
-0.0757246
-0.0661584
-0.0529562
-0.0447521
-0.0371916
-0.0313128
-0.0262829
-0.022161
-0.0186466
-0.0157138
-0.0131739
-0.0109193
-0.00900784
-0.762982
-0.310113
-0.310574
-0.166011
-0.164697
-0.106126
-0.09829
-0.0725089
-0.0630419
-0.0505594
-0.0426249
-0.0353777
-0.0297458
-0.0249121
-0.0209541
-0.0175777
-0.0147589
-0.0123102
-0.0101297
-0.00831014
-0.75675
-0.298505
-0.302349
-0.15846
-0.157971
-0.10136
-0.093577
-0.0691704
-0.0598562
-0.0480503
-0.0404266
-0.0334894
-0.0281128
-0.0234828
-0.0196949
-0.0164616
-0.0137616
-0.0114083
-0.00930537
-0.00758033
-0.748777
-0.286834
-0.293192
-0.15098
-0.15096
-0.0965025
-0.0887512
-0.0657018
-0.0566065
-0.0454379
-0.0381572
-0.0315321
-0.026417
-0.0219978
-0.018386
-0.0153007
-0.0127242
-0.0104701
-0.00844775
-0.00682022
-0.739118
-0.274914
-0.283257
-0.143476
-0.143707
-0.0915288
-0.0838315
-0.0621033
-0.053294
-0.0427316
-0.0358179
-0.0295103
-0.0246622
-0.02046
-0.0170301
-0.0140975
-0.0116488
-0.00949729
-0.00755851
-0.00603139
-0.727911
-0.262537
-0.272658
-0.135891
-0.136249
-0.0864232
-0.0788307
-0.0583794
-0.0499189
-0.0399404
-0.0334112
-0.027428
-0.022852
-0.0188726
-0.0156298
-0.0128544
-0.0105377
-0.00849182
-0.00663943
-0.00521553
-0.715302
-0.249549
-0.261473
-0.128184
-0.128613
-0.0811773
-0.0737569
-0.0545375
-0.0464813
-0.0370724
-0.0309404
-0.025289
-0.0209899
-0.0172387
-0.0141879
-0.0115741
-0.00939302
-0.00745551
-0.00569243
-0.00437493
-0.701157
-0.236072
-0.249764
-0.120329
-0.12082
-0.0757882
-0.0686159
-0.0505863
-0.0429816
-0.0341347
-0.0284092
-0.0230967
-0.0190796
-0.0155614
-0.0127072
-0.010259
-0.008217
-0.00639036
-0.00471968
-0.00351253
-0.684891
-0.222593
-0.237581
-0.11231
-0.112889
-0.0702572
-0.0634115
-0.046535
-0.0394215
-0.0311335
-0.025822
-0.0208551
-0.0171246
-0.0138438
-0.0111905
-0.00891177
-0.00701192
-0.00529863
-0.00372371
-0.00263087
-0.666606
-0.209072
-0.224969
-0.104113
-0.104835
-0.0645886
-0.0581471
-0.042393
-0.0358034
-0.0280745
-0.0231832
-0.0185678
-0.0151283
-0.0120893
-0.00964073
-0.00753494
-0.00578018
-0.00418293
-0.0027074
-0.00173112
-0.646504
-0.195367
-0.211963
-0.0957334
-0.0966692
-0.0587889
-0.0528258
-0.0381692
-0.0321307
-0.024963
-0.0204972
-0.0162388
-0.0130944
-0.010301
-0.0080607
-0.00613113
-0.00452427
-0.00304616
-0.001674
-0.000813857
-0.624719
-0.1814
-0.1986
-0.0871682
-0.0884047
-0.0528663
-0.0474509
-0.0338725
-0.0284072
-0.0218042
-0.0177685
-0.013872
-0.0110263
-0.00848208
-0.0064533
-0.00470295
-0.00324671
-0.00189122
-0.000626947
0.000117835
-0.601362
-0.167128
-0.184911
-0.0784198
-0.0800513
-0.0468303
-0.0420263
-0.0295112
-0.0246376
-0.0186033
-0.0150017
-0.0114713
-0.00892767
-0.00663575
-0.0048214
-0.00325303
-0.00194993
-0.000720537
0.00043056
0.00105623
-0.576538
-0.152529
-0.170927
-0.0694933
-0.0716193
-0.040691
-0.0365564
-0.0250935
-0.0208267
-0.0153651
-0.0122014
-0.00904089
-0.00680201
-0.00476521
-0.0031679
-0.00178395
-0.00063609
0.000464056
0.00149587
0.00199213
-0.550347
-0.137597
-0.156679
-0.0603968
-0.0631185
-0.0344592
-0.031046
-0.0206272
-0.0169799
-0.0120949
-0.00937222
-0.00658473
-0.00465294
-0.00287367
-0.0014957
-0.000298251
0.000692772
0.00166077
0.00256664
0.00292322
-0.52289
-0.122335
-0.142196
-0.051141
-0.054559
-0.0281462
-0.0255008
-0.0161201
-0.0131027
-0.00879777
-0.0065187
-0.00410691
-0.00248404
-0.000964359
0.000192267
0.00120151
0.00203458
0.00286724
0.00364063
0.00385975
-0.494269
-0.106752
-0.127508
-0.0417385
-0.0459511
-0.0217634
-0.0199269
-0.0115798
-0.00920085
-0.00547889
-0.00364551
-0.00161152
-0.000298925
0.000959444
0.00189298
0.00271278
0.00338722
0.00408127
0.00471707
0.00481749
-0.464587
-0.0908651
-0.112644
-0.0322037
-0.0373055
-0.0153226
-0.0143311
-0.00701393
-0.00528026
-0.0021435
-0.000757313
0.00089737
0.00189877
0.00289444
0.00360346
0.0042331
0.0047491
0.00530254
0.00579755
0.0057952
-0.433948
-0.0746962
-0.0976334
-0.0225526
-0.0286333
-0.00883564
-0.00872043
-0.00242996
-0.00134697
0.0012031
0.00214121
0.00341564
0.00410541
0.00483731
0.00532083
0.00576052
0.00611983
0.0065323
0.00687957
0.00674995
-0.402457
-0.0582708
-0.0825067
-0.0128025
-0.0199462
-0.00231461
-0.00310259
0.00216453
0.00259288
0.00455555
0.00504536
0.0059392
0.00631731
0.00678478
0.0070425
0.00729398
0.00750017
0.0077686
0.00794102
0.00759781
-0.370222
-0.0416186
-0.0672936
-0.00297172
-0.0112562
0.0042284
0.0025145
0.00676197
0.00653305
0.00790849
0.00795043
0.00846391
0.00853077
0.00873359
0.00876631
0.00883332
0.00889037
0.0090008
0.00893678
0.00828227
-0.337349
-0.0247719
-0.0520247
0.00692044
-0.00257603
0.0107812
0.00812257
0.0113548
0.0104673
0.0112565
0.0108517
0.0109856
0.0107421
0.0106806
0.0104904
0.0103782
0.0102871
0.0102111
0.00983639
0.00887638
-0.303946
-0.00776614
-0.0367308
0.0168539
0.00608129
0.0173315
0.0137131
0.0159353
0.0143892
0.0145942
0.0137444
0.0135002
0.0129475
0.0126229
0.0122131
0.0119263
0.0116812
0.0113849
0.0106793
0.00959733
-0.270124
0.00936115
-0.021443
0.0268079
0.0147022
0.023867
0.0192773
0.0204959
0.0182925
0.0179161
0.0166239
0.0160035
0.0151435
0.0145577
0.0139322
0.0134726
0.0130592
0.0125194
0.0115566
0.0106691
-0.235989
0.0265706
-0.00619264
0.0367613
0.0232729
0.0303755
0.0248063
0.0250289
0.0221707
0.0212167
0.0194854
0.0184914
0.0173265
0.0164823
0.0156451
0.0150107
0.0144116
0.0136268
0.0125181
0.0122064
-0.201652
0.0438212
0.00898874
0.0466926
0.0317792
0.0368446
0.0302911
0.0295267
0.0260175
0.0244908
0.0223242
0.0209598
0.019493
0.0183941
0.0173482
0.0165343
0.0157383
0.0147376
0.0136012
0.0136777
-0.167219
0.0610707
0.0240693
0.0565798
0.0402065
0.0432619
0.0357225
0.0339815
0.0298265
0.0277328
0.0251356
0.0234046
0.0216398
0.0202898
0.0190373
0.0180392
0.017047
0.0158783
0.0147696
0.0149765
-0.132798
0.0782758
0.0390174
0.066401
0.0485403
0.0496152
0.0410914
0.0383857
0.0335914
0.0309373
0.0279149
0.0258219
0.0237634
0.0221664
0.0207085
0.0195228
0.018343
0.0170438
0.0159572
0.0161493
-0.0984957
0.0953923
0.053801
0.076134
0.0567658
0.0558924
0.0463885
0.0427318
0.0373057
0.0340992
0.0306577
0.0282078
0.0258605
0.0240204
0.0223582
0.0209856
0.0196325
0.0182266
0.0171275
0.0172271
-0.0644164
0.112376
0.0683886
0.0857566
0.0648679
0.0620811
0.0516046
0.0470121
0.0409633
0.037213
0.0333592
0.0305584
0.0279276
0.0258484
0.0239834
0.0224267
0.0209139
0.0194121
0.0182719
0.0182538
-0.0306635
0.129181
0.0827485
0.0952469
0.0728318
0.0681695
0.0567306
0.0512192
0.044558
0.0402736
0.0360152
0.03287
0.0299613
0.0276471
0.0255819
0.0238464
0.0221851
0.0205894
0.0193848
0.019243
0.00266164
0.145764
0.0968496
0.104583
0.0806427
0.0741457
0.0617575
0.0553457
0.0480836
0.0432758
0.0386211
0.0351386
0.0319581
0.0294132
0.0271514
0.025243
0.0234419
0.021752
0.0204708
0.0202052
0.0354599
0.162079
0.110661
0.113743
0.0882858
0.079998
0.0666762
0.0593844
0.0515342
0.0462147
0.0411728
0.0373607
0.0339148
0.0311441
0.0286899
0.0266148
0.0246801
0.0228944
0.0215297
0.0211422
0.0676347
0.178082
0.124153
0.122706
0.0957464
0.0857149
0.0714781
0.063328
0.0549038
0.0490852
0.0436659
0.0395326
0.035828
0.0328367
0.0301952
0.0279596
0.0258963
0.0240144
0.0225632
0.0220549
0.0990918
0.19373
0.137294
0.131452
0.10301
0.0912852
0.0761543
0.0671697
0.0581867
0.0518826
0.0460963
0.0416506
0.0376946
0.0344885
0.0316652
0.0292747
0.0270869
0.0251095
0.023571
0.0229426
0.12974
0.208978
0.150057
0.139958
0.110063
0.0966978
0.0806966
0.0709026
0.0613773
0.0546022
0.0484601
0.0437115
0.0395114
0.0360969
0.0330976
0.0305579
0.0282496
0.0261781
0.0245523
0.0238042
0.159492
0.223787
0.162413
0.148207
0.116891
0.101942
0.0850966
0.0745201
0.0644701
0.0572395
0.0507534
0.0457116
0.0412757
0.0376593
0.0344901
0.0318065
0.0293817
0.0272186
0.0255061
0.0246388
0.188263
0.238113
0.174334
0.156178
0.123482
0.107008
0.0893465
0.0780159
0.0674599
0.05979
0.0529724
0.047648
0.0429845
0.0391733
0.0358405
0.0330185
0.0304814
0.0282292
0.0264312
0.0254451
0.215972
0.251919
0.185795
0.163854
0.129821
0.111885
0.0934384
0.0813836
0.0703415
0.0622495
0.0551135
0.0495173
0.0446351
0.0406366
0.0371467
0.0341917
0.0315466
0.0292083
0.0273262
0.0262223
0.242541
0.265165
0.196769
0.171215
0.135897
0.116564
0.0973651
0.0846175
0.0731101
0.064614
0.0571732
0.0513166
0.0462248
0.0420469
0.0384064
0.035324
0.0325754
0.0301545
0.0281899
0.0269694
0.267898
0.277816
0.207232
0.178246
0.141697
0.121036
0.101119
0.0877118
0.075761
0.0668795
0.0591482
0.053043
0.0477513
0.0434019
0.0396178
0.0364136
0.0335662
0.0310662
0.0290209
0.0276858
0.291973
0.289835
0.217162
0.18493
0.147211
0.125292
0.104695
0.0906611
0.0782899
0.0690424
0.0610352
0.0546939
0.0492121
0.0446996
0.0407789
0.0374588
0.0345173
0.0319418
0.0298182
0.0283708
0.314702
0.301192
0.226537
0.191252
0.152427
0.129324
0.108084
0.0934603
0.0806924
0.0710992
0.0628315
0.0562666
0.0506049
0.045938
0.0418878
0.0384578
0.0354272
0.0327799
0.0305806
0.0290239
0.336024
0.311854
0.235336
0.197197
0.157336
0.133123
0.111283
0.0961047
0.0829647
0.0730465
0.064534
0.0577587
0.0519277
0.0471152
0.042943
0.0394091
0.0362942
0.0335792
0.0313072
0.0296446
0.355885
0.321793
0.24354
0.202752
0.161927
0.136684
0.114284
0.0985898
0.0851031
0.0748814
0.0661402
0.059168
0.0531785
0.0482295
0.0439427
0.0403112
0.0371172
0.0343384
0.031997
0.0302326
0.374231
0.330982
0.251133
0.207905
0.166194
0.139999
0.117083
0.100911
0.0871041
0.076601
0.0676477
0.0604923
0.0543553
0.0492792
0.0448856
0.0411628
0.0378948
0.0350564
0.0326492
0.0307875
0.391019
0.339396
0.258097
0.212645
0.170126
0.143062
0.119676
0.103066
0.0889647
0.0782025
0.0690542
0.0617297
0.0554566
0.0502629
0.0457703
0.0419627
0.0386257
0.0357319
0.0332629
0.0313092
0.406207
0.347015
0.26442
0.216961
0.173718
0.145868
0.122057
0.105049
0.090682
0.0796838
0.0703576
0.0628785
0.0564808
0.051179
0.0465956
0.0427097
0.0393089
0.036364
0.0338375
0.0317974
0.419759
0.353819
0.270089
0.220845
0.176963
0.148411
0.124223
0.106859
0.0922535
0.0810426
0.0715562
0.0639371
0.0574264
0.0520266
0.0473603
0.0434027
0.0399433
0.0369517
0.0343724
0.0322521
0.431643
0.35979
0.275092
0.224289
0.179856
0.150689
0.126172
0.108493
0.0936769
0.0822771
0.0726484
0.0649041
0.0582922
0.0528043
0.0480634
0.0440409
0.0405281
0.0374943
0.0348672
0.0326733
0.441835
0.364916
0.279421
0.227286
0.182391
0.152696
0.127899
0.109948
0.0949503
0.0833856
0.0736326
0.0657782
0.0590771
0.0535112
0.0487041
0.0446234
0.0410626
0.0379911
0.0353214
0.0330606
0.450312
0.369185
0.283068
0.229831
0.184566
0.15443
0.129402
0.111222
0.0960722
0.0843668
0.0745078
0.0665583
0.0597802
0.0541466
0.0492816
0.0451496
0.041546
0.0384414
0.0357343
0.033414
0.457061
0.372587
0.286029
0.23192
0.186376
0.155889
0.130681
0.112314
0.0970411
0.0852196
0.0752728
0.0672438
0.0604008
0.0547096
0.0497953
0.0456189
0.0419778
0.0388444
0.0361055
0.0337335
0.46207
0.375118
0.288298
0.23355
0.187821
0.157071
0.131732
0.113222
0.0978562
0.0859431
0.0759271
0.0678337
0.0609381
0.0551998
0.0502446
0.0460307
0.0423573
0.0391997
0.0364351
0.0340202
0.465335
0.376774
0.289876
0.234719
0.188899
0.157974
0.132557
0.113947
0.0985169
0.0865367
0.0764701
0.0683278
0.0613918
0.0556168
0.0506292
0.0463849
0.0426845
0.0395072
0.0367231
0.0342747
0.466857
0.377555
0.29076
0.235427
0.189609
0.1586
0.133153
0.114487
0.0990227
0.0870002
0.0769014
0.0687257
0.0617616
0.0559602
0.0509489
0.0466811
0.0429592
0.0397668
0.0369688
0.0344953
0.466642
0.377463
0.290954
0.235675
0.189952
0.158947
0.133522
0.114843
0.0993736
0.0873334
0.077221
0.0690272
0.0620474
0.05623
0.0512035
0.0469192
0.043181
0.0399781
0.0371712
0.0346788
0.464702
0.376503
0.290461
0.235465
0.18993
0.159017
0.133664
0.115015
0.0995701
0.0875366
0.0774289
0.0692325
0.0622491
0.056426
0.0513929
0.0470993
0.0433501
0.0401411
0.037331
0.0348278
0.461053
0.374683
0.289286
0.2348
0.189545
0.158812
0.13358
0.115004
0.0996126
0.0876102
0.0775256
0.0693418
0.0623669
0.0565485
0.0515174
0.0472213
0.0434665
0.0402558
0.0374484
0.0349435
0.455718
0.372014
0.287437
0.233684
0.188801
0.158333
0.133272
0.114811
0.0995022
0.087555
0.0775115
0.0693555
0.0624012
0.0565978
0.051577
0.0472856
0.0435305
0.0403225
0.0375234
0.0350261
0.448724
0.368508
0.284922
0.232124
0.187701
0.157584
0.132743
0.114437
0.0992401
0.0873718
0.0773875
0.0692743
0.0623526
0.0565741
0.0515722
0.0472925
0.0435425
0.0403414
0.037556
0.0350746
0.440104
0.364182
0.281752
0.230126
0.18625
0.156568
0.131994
0.113886
0.0988279
0.0870621
0.0771546
0.0690989
0.0622215
0.0564781
0.0515033
0.0472425
0.0435028
0.0403129
0.0375464
0.035089
0.429895
0.359053
0.27794
0.227699
0.184454
0.155289
0.131029
0.113159
0.0982674
0.0866271
0.0768139
0.0688304
0.062009
0.0563105
0.0513711
0.0471361
0.0434121
0.0402375
0.0374947
0.0350692
0.418139
0.353142
0.2735
0.224851
0.18232
0.153753
0.129851
0.112259
0.0975608
0.0860688
0.0763668
0.0684699
0.0617159
0.056072
0.0511762
0.0469738
0.0432709
0.0401156
0.0374012
0.035015
0.404885
0.346473
0.268447
0.221594
0.179855
0.151963
0.128465
0.111189
0.0967106
0.0853889
0.075815
0.0680187
0.0613433
0.0557635
0.0509193
0.0467566
0.04308
0.0399478
0.0372662
0.0349264
0.390185
0.339071
0.262799
0.217937
0.177066
0.149927
0.126875
0.109952
0.0957195
0.0845898
0.0751602
0.0674783
0.0608924
0.0553862
0.0506014
0.0464852
0.0428402
0.039735
0.03709
0.0348033
0.374094
0.330963
0.256575
0.213895
0.173964
0.14765
0.125086
0.108553
0.0945905
0.0836737
0.0744044
0.0668503
0.0603647
0.0549412
0.0502235
0.0461606
0.0425525
0.0394779
0.036873
0.0346457
0.356674
0.322179
0.249794
0.209479
0.170558
0.145141
0.123103
0.106995
0.0933268
0.0826434
0.0735498
0.0661365
0.0597617
0.0544297
0.0497867
0.0457839
0.0422179
0.0391773
0.0366159
0.0344536
0.337989
0.312752
0.242478
0.204705
0.166857
0.142405
0.120932
0.105283
0.0919321
0.0815016
0.0725986
0.0653388
0.0590849
0.0538532
0.0492923
0.045356
0.0418373
0.0388343
0.0363192
0.0342271
0.31811
0.302714
0.23465
0.199588
0.162872
0.139451
0.118579
0.103421
0.0904099
0.0802514
0.0715535
0.0644594
0.0583361
0.0532131
0.0487416
0.0448783
0.0414121
0.03845
0.0359836
0.0339665
0.297108
0.292102
0.226334
0.194143
0.158615
0.136287
0.11605
0.101415
0.0887643
0.078896
0.0704169
0.0635004
0.0575173
0.0525111
0.0481359
0.044352
0.0409435
0.0380254
0.03561
0.0336718
0.27506
0.280951
0.217556
0.188387
0.154098
0.132923
0.113353
0.0992692
0.0869995
0.0774387
0.0691918
0.0624641
0.0566303
0.0517489
0.0474767
0.0437786
0.0404329
0.037562
0.0351993
0.0333435
0.252048
0.269301
0.208341
0.182339
0.149333
0.129366
0.110493
0.0969896
0.0851198
0.0758831
0.067881
0.0613531
0.0556772
0.0509281
0.0467658
0.0431595
0.0398815
0.037061
0.0347525
0.0329819
0.228154
0.257191
0.198716
0.176015
0.144333
0.125628
0.107479
0.0945817
0.0831298
0.0742329
0.0664877
0.0601699
0.0546602
0.0500506
0.0460047
0.0424964
0.0392911
0.0365237
0.0342707
0.0325877
0.203464
0.244661
0.18871
0.169434
0.139111
0.121717
0.104318
0.0920515
0.0810343
0.072492
0.065015
0.0589173
0.0535816
0.0491183
0.045195
0.0417909
0.0386632
0.0359517
0.0337551
0.0321615
0.178069
0.231752
0.178352
0.162617
0.133681
0.117644
0.101017
0.089405
0.0788381
0.0706642
0.0634662
0.0575979
0.0524437
0.0481331
0.0443385
0.0410449
0.0379997
0.0353466
0.0332069
0.0317042
0.15206
0.218508
0.16767
0.155582
0.128057
0.11342
0.0975851
0.0866485
0.0765464
0.0687538
0.0618447
0.0562147
0.051249
0.0470969
0.0434368
0.0402603
0.0373027
0.0347098
0.032627
0.0312166
0.12553
0.20497
0.156696
0.148349
0.122253
0.109054
0.0940301
0.0837884
0.0741641
0.0667648
0.060154
0.0547706
0.0500002
0.0460119
0.0424914
0.0394388
0.036575
0.0340439
0.0320166
0.0306997
0.0985764
0.191182
0.145459