/*--------------------------------*- C++ -*----------------------------------*\
  =========                 |
  \\      /  F ield         | OpenFOAM: The Open Source CFD Toolbox
   \\    /   O peration     | Website:  https://openfoam.org
    \\  /    A nd           | Version:  7
     \\/     M anipulation  |
\*---------------------------------------------------------------------------*/
FoamFile
{
    version     2.0;
    format      ascii;
    class       volScalarField;
    location    "6.5";
    object      p;
}
// * * * * * * * * * * * * * * * * * * * * * * * * * * * * * * * * * * * * * //

dimensions      [1 -1 -2 0 0 0 0];

internalField   nonuniform List<scalar> 
2413
(
1.38044
1.37668
1.37252
1.36792
1.36303
1.35809
1.35374
1.34984
1.34604
1.34226
1.33842
1.33445
1.3304
1.32623
1.32203
1.31811
1.31453
1.31109
1.30751
1.30379
1.30016
1.29671
1.29332
1.28999
1.28664
1.28308
1.27927
1.27525
1.27105
1.26664
1.26198
1.25705
1.25201
1.2471
1.24248
1.23807
1.23378
1.22975
1.22586
1.22189
1.2178
1.21366
1.20956
1.20543
1.20111
1.19662
1.19205
1.18738
1.1825
1.17786
1.17379
1.17004
1.16651
1.16346
1.16054
1.15734
1.15423
1.1513
1.14811
1.14451
1.14104
1.13779
1.13424
1.13036
1.12652
1.12295
1.11965
1.11663
1.11391
1.1114
1.10895
1.10647
1.10386
1.10112
1.09784
1.09407
1.09211
1.09067
1.08808
1.08448
1.0816
1.08039
1.07954
1.07736
1.07461
1.07204
1.06958
1.06704
1.06435
1.0616
1.05909
1.05677
1.05436
1.05215
1.05027
1.04856
1.04694
1.04478
1.04244
1.04067
1.03866
1.03682
1.03508
1.03186
1.02854
1.02622
1.02414
1.02165
1.01896
1.01681
1.01472
1.01242
1.00952
1.0067
1.00484
1.00141
1.45201
1.44666
1.44123
1.43592
1.43053
1.42505
1.41956
1.41428
1.40927
1.40444
1.39976
1.39531
1.39126
1.38753
1.38387
1.38019
1.37647
1.3724
1.3678
1.36312
1.35854
1.35412
1.35009
1.34627
1.34251
1.33875
1.33487
1.33088
1.32692
1.32301
1.31906
1.31519
1.3114
1.30756
1.30361
1.29987
1.29655
1.29337
1.29003
1.28658
1.28302
1.27922
1.27518
1.27093
1.26646
1.26172
1.25676
1.25164
1.2465
1.24151
1.23674
1.2322
1.22775
1.22367
1.2199
1.21618
1.21238
1.20854
1.2047
1.2007
1.19631
1.19162
1.18684
1.18204
1.17724
1.17287
1.1691
1.16561
1.16225
1.15932
1.15649
1.15338
1.15014
1.14713
1.14394
1.14047
1.13687
1.13308
1.12898
1.1249
1.12116
1.11784
1.1148
1.11194
1.10921
1.10659
1.10411
1.10195
1.09987
1.09725
1.0937
1.09034
1.08807
1.08561
1.08193
1.07839
1.07733
1.07703
1.07534
1.07272
1.07007
1.06758
1.06509
1.06242
1.05951
1.05675
1.05412
1.05162
1.04977
1.04809
1.04632
1.04455
1.04303
1.04185
1.04004
1.03765
1.03534
1.03424
1.0319
1.02862
1.02586
1.02362
1.02142
1.01875
1.01607
1.01383
1.01176
1.00943
1.00638
1.00388
1.00242
0.999252
1.4462
1.44081
1.43559
1.43042
1.42519
1.41991
1.41469
1.40965
1.40467
1.39991
1.39547
1.39125
1.38737
1.3837
1.37993
1.37607
1.37206
1.36771
1.36305
1.35859
1.35444
1.35055
1.34691
1.34336
1.33977
1.33608
1.33223
1.32828
1.32443
1.32055
1.3164
1.31221
1.30818
1.30424
1.30031
1.29649
1.29305
1.28983
1.28646
1.28292
1.2792
1.27519
1.27085
1.26622
1.26136
1.25629
1.25112
1.24596
1.24078
1.23577
1.231
1.22646
1.22205
1.21806
1.21444
1.21082
1.207
1.2032
1.19954
1.19572
1.19147
1.18693
1.18229
1.17762
1.17295
1.16863
1.16491
1.16145
1.15806
1.15518
1.1524
1.14943
1.14667
1.14394
1.14062
1.13664
1.13242
1.12822
1.12411
1.12027
1.1169
1.11388
1.11108
1.10839
1.10579
1.10333
1.10093
1.09855
1.09595
1.09246
1.08795
1.08556
1.08404
1.08138
1.07778
1.07515
1.07399
1.07273
1.07048
1.06794
1.0655
1.06314
1.06073
1.05812
1.05538
1.05249
1.04944
1.04752
1.04596
1.04427
1.04262
1.04088
1.03889
1.03751
1.03669
1.03541
1.03406
1.03206
1.02914
1.02585
1.02302
1.02096
1.01862
1.01584
1.01316
1.01125
1.0095
1.00733
1.00469
1.00201
1.00007
0.996534
1.44003
1.43482
1.42976
1.42491
1.42028
1.41571
1.41103
1.4062
1.40121
1.39632
1.39173
1.38736
1.3833
1.37945
1.37559
1.37176
1.36773
1.36343
1.35885
1.35431
1.35043
1.34697
1.34367
1.34042
1.33703
1.33338
1.32943
1.32538
1.3216
1.31791
1.31396
1.30987
1.30578
1.30163
1.29749
1.29356
1.29007
1.28672
1.28317
1.27933
1.27524
1.27085
1.26613
1.26109
1.25585
1.25046
1.24508
1.23987
1.23484
1.23016
1.22578
1.22157
1.21717
1.21271
1.20883
1.20523
1.2015
1.19803
1.19481
1.19131
1.1873
1.18282
1.17812
1.17338
1.16876
1.16458
1.16101
1.15773
1.15482
1.15232
1.14958
1.14633
1.1429
1.1396
1.13604
1.1321
1.12816
1.12438
1.1207
1.11714
1.11384
1.11083
1.108
1.10531
1.10272
1.10008
1.09729
1.09436
1.09122
1.08781
1.08527
1.08316
1.0805
1.07685
1.07283
1.07113
1.07059
1.06901
1.06662
1.06405
1.0614
1.0588
1.05631
1.05366
1.05075
1.04761
1.0452
1.04347
1.04177
1.04005
1.03829
1.0368
1.03594
1.03471
1.03288
1.03194
1.0318
1.02946
1.02666
1.02383
1.02138
1.01918
1.01642
1.01309
1.01014
1.00855
1.00705
1.00528
1.00266
0.999905
0.998544
0.995198
1.43475
1.42967
1.425
1.42075
1.41666
1.41241
1.40782
1.40294
1.39793
1.393
1.38829
1.38382
1.37972
1.37591
1.37205
1.36809
1.36399
1.35967
1.3553
1.35117
1.34744
1.34391
1.34045
1.33722
1.33402
1.33059
1.32689
1.32307
1.31932
1.31547
1.31127
1.30684
1.30237
1.29792
1.29355
1.28939
1.28568
1.28213
1.27845
1.27445
1.27008
1.26537
1.26035
1.25509
1.24968
1.24421
1.2389
1.23399
1.22936
1.22487
1.22048
1.21613
1.21143
1.20682
1.20339
1.20031
1.19701
1.19373
1.19046
1.1868
1.18268
1.1783
1.17392
1.16955
1.16549
1.16188
1.15844
1.15504
1.15172
1.14868
1.14556
1.14202
1.1385
1.13551
1.13252
1.12915
1.1255
1.12172
1.11791
1.11413
1.11065
1.1077
1.10509
1.10253
1.09994
1.09751
1.09523
1.09245
1.08863
1.0844
1.08142
1.0787
1.07519
1.07235
1.07115
1.07005
1.06781
1.06491
1.06199
1.05924
1.05661
1.05416
1.05177
1.04911
1.04604
1.0434
1.0416
1.03973
1.03784
1.0361
1.03442
1.03277
1.03111
1.03004
1.03032
1.0294
1.02675
1.02428
1.02207
1.01938
1.01747
1.016
1.01379
1.01112
1.00862
1.00665
1.00484
1.00287
1.00007
0.997543
0.995894
0.992291
1.42961
1.42462
1.42019
1.41616
1.4122
1.40811
1.40391
1.39954
1.39493
1.39021
1.38556
1.38107
1.37681
1.37274
1.36867
1.36476
1.36088
1.35678
1.35232
1.34751
1.34338
1.34011
1.33703
1.33398
1.33107
1.32821
1.32514
1.32178
1.31812
1.31402
1.30953
1.30476
1.29988
1.29506
1.29053
1.28623
1.28206
1.27789
1.27367
1.26924
1.26447
1.25937
1.2541
1.24876
1.24341
1.23805
1.23289
1.22807
1.22336
1.21875
1.21444
1.21033
1.20625
1.20261
1.19944
1.19614
1.19247
1.1889
1.18562
1.18209
1.17834
1.17468
1.17104
1.16708
1.16286
1.15876
1.15502
1.15144
1.14804
1.14503
1.1421
1.13884
1.13557
1.13276
1.12981
1.12635
1.12283
1.11929
1.11576
1.11227
1.10909
1.10617
1.10316
1.10011
1.09731
1.09471
1.09196
1.08833
1.0834
1.08037
1.07896
1.07658
1.07327
1.07052
1.06831
1.06591
1.06309
1.06025
1.05762
1.05523
1.05303
1.05078
1.04818
1.04502
1.04176
1.0398
1.03814
1.03625
1.03424
1.03224
1.03037
1.02895
1.02762
1.02668
1.02626
1.02403
1.02171
1.01985
1.01797
1.01576
1.01439
1.01303
1.01097
1.00829
1.00554
1.00337
1.00163
0.999767
0.997456
0.995347
0.99375
0.990515
1.42711
1.4224
1.41786
1.41333
1.40882
1.40431
1.39992
1.39571
1.39144
1.38718
1.38299
1.37878
1.37469
1.37083
1.36703
1.36312
1.35891
1.35436
1.34961
1.34493
1.34093
1.33739
1.33392
1.33032
1.32672
1.32321
1.31966
1.31599
1.31222
1.30819
1.30385
1.29929
1.29466
1.29009
1.28568
1.28147
1.27723
1.2728
1.26824
1.2635
1.25837
1.25289
1.24737
1.24202
1.23686
1.23177
1.22686
1.22221
1.21763
1.21327
1.20946
1.20591
1.20214
1.19826
1.19484
1.19141
1.18784
1.18478
1.18196
1.17879
1.17534
1.17172
1.16788
1.16382
1.15962
1.15569
1.1523
1.14908
1.14579
1.14258
1.13939
1.13567
1.13198
1.12939
1.12672
1.12366
1.12079
1.11787
1.11467
1.11117
1.10777
1.1045
1.10106
1.09763
1.09467
1.09186
1.08861
1.0847
1.0812
1.07904
1.07659
1.073
1.06962
1.0676
1.06569
1.06314
1.06034
1.05757
1.05481
1.0521
1.04947
1.04674
1.0438
1.04063
1.03827
1.03656
1.03483
1.03295
1.03091
1.02894
1.02749
1.02607
1.02429
1.02345
1.02279
1.02028
1.01837
1.01671
1.01486
1.01241
1.0108
1.00932
1.00735
1.00543
1.00364
1.00148
0.999539
0.997583
0.99518
0.992342
0.990359
0.986793
1.42734
1.42254
1.41768
1.41256
1.40729
1.40199
1.39709
1.39292
1.38933
1.38586
1.38222
1.37818
1.37392
1.36968
1.36556
1.36155
1.35734
1.35288
1.34843
1.34406
1.33978
1.33562
1.33153
1.32745
1.32362
1.32006
1.31656
1.31301
1.30913
1.30471
1.2999
1.29503
1.29021
1.28556
1.28102
1.27664
1.27222
1.26748
1.26244
1.25731
1.25196
1.24643
1.24103
1.23603
1.23124
1.22643
1.22166
1.21711
1.21262
1.2084
1.20483
1.20143
1.19775
1.19412
1.19105
1.18796
1.18478
1.18173
1.17859
1.17519
1.17168
1.16817
1.1646
1.16104
1.15758
1.15412
1.15061
1.14677
1.14285
1.13949
1.13636
1.13262
1.12939
1.1275
1.12517
1.12211
1.11916
1.11615
1.11282
1.10921
1.10594
1.10293
1.09984
1.09643
1.09278
1.08918
1.08528
1.08176
1.0797
1.07729
1.07381
1.07031
1.06829
1.06661
1.06395
1.0607
1.05749
1.05445
1.05151
1.04862
1.04568
1.04283
1.04002
1.03774
1.03599
1.03424
1.03256
1.03073
1.02853
1.02639
1.02473
1.02316
1.02229
1.02144
1.01923
1.01677
1.01495
1.01323
1.01124
1.00888
1.00693
1.00514
1.00325
1.0015
0.999442
0.996988
0.995383
0.993814
0.991815
0.989481
0.98767
0.983762
1.42936
1.4244
1.41937
1.41415
1.40884
1.40343
1.39813
1.39339
1.38931
1.38558
1.38192
1.37827
1.3746
1.37069
1.36626
1.36126
1.35589
1.35066
1.34589
1.34153
1.33739
1.33336
1.32945
1.32571
1.32212
1.31839
1.31436
1.31008
1.30549
1.30061
1.29565
1.29078
1.28596
1.28114
1.27629
1.2715
1.26673
1.26167
1.25624
1.2509
1.2457
1.24059
1.23565
1.23094
1.22622
1.22126
1.21653
1.21237
1.20823
1.20405
1.20082
1.19768
1.19411
1.19083
1.18805
1.1851
1.18199
1.17888
1.17559
1.17221
1.16897
1.16587
1.16273
1.1594
1.15581
1.1519
1.14803
1.14407
1.14003
1.13691
1.13417
1.13078
1.1278
1.12578
1.12315
1.11997
1.11728
1.11459
1.11157
1.1083
1.10525
1.10201
1.09827
1.09377
1.08946
1.08613
1.08333
1.08072
1.0778
1.07434
1.07114
1.06912
1.06745
1.06501
1.06185
1.05844
1.05517
1.05211
1.04915
1.04615
1.04305
1.03976
1.03741
1.03575
1.03407
1.03229
1.03042
1.02862
1.02694
1.02498
1.02274
1.02141
1.02059
1.01816
1.0158
1.01353
1.01157
1.00957
1.00735
1.00521
1.00293
1.00086
0.999286
0.99778
0.995934
0.994127
0.992681
0.9909
0.988619
0.985838
0.983552
0.979114
1.43317
1.42763
1.42252
1.41745
1.4124
1.40751
1.40269
1.3981
1.39381
1.38955
1.38504
1.38041
1.37576
1.37089
1.36573
1.36046
1.35511
1.34994
1.34523
1.34093
1.33686
1.33292
1.329
1.32512
1.32103
1.31646
1.31149
1.30643
1.30123
1.29599
1.29094
1.28612
1.28137
1.27659
1.27171
1.26667
1.26153
1.25624
1.2507
1.2453
1.24038
1.23567
1.23105
1.22651
1.2219
1.21696
1.21269
1.20918
1.2055
1.20175
1.19897
1.19603
1.1926
1.18945
1.18646
1.18333
1.18019
1.17704
1.1737
1.1703
1.16707
1.16386
1.16059
1.15724
1.15375
1.14997
1.14614
1.14227
1.1383
1.13526
1.13254
1.12901
1.12585
1.12371
1.12105
1.118
1.11553
1.11301
1.11023
1.10722
1.10422
1.10081
1.09675
1.09183
1.08747
1.08468
1.08206
1.079
1.07571
1.07271
1.07062
1.06906
1.06677
1.06382
1.06065
1.05733
1.05403
1.05095
1.04795
1.04488
1.04157
1.03864
1.03662
1.03473
1.03285
1.03087
1.02889
1.02721
1.02529
1.02301
1.02152
1.02077
1.0184
1.01557
1.01305
1.0108
1.00865
1.00654
1.0044
1.00239
0.999929
0.997736
0.996391
0.994848
0.992869
0.990773
0.988898
0.986634
0.984111
0.981326
0.978845
0.974006
1.4429
1.43618
1.4299
1.4242
1.41896
1.41433
1.4098
1.4049
1.3997
1.39428
1.38865
1.383
1.37752
1.37205
1.36654
1.3612
1.35611
1.35115
1.34649
1.34223
1.33831
1.3347
1.33096
1.32655
1.32141
1.31581
1.30992
1.30403
1.29829
1.29281
1.28763
1.28267
1.27784
1.27296
1.26796
1.26277
1.2575
1.25214
1.24679
1.24158
1.23669
1.23208
1.22778
1.22363
1.21955
1.21503
1.21103
1.20773
1.204
1.20053
1.19808
1.19515
1.1917
1.18856
1.18543
1.1823
1.17932
1.17623
1.17294
1.16959
1.16632
1.16294
1.15944
1.15589
1.15212
1.14817
1.14443
1.14077
1.13664
1.1334
1.13067
1.12736
1.12464
1.12232
1.1196
1.11654
1.11393
1.11133
1.10857
1.1055
1.10228
1.09886
1.095
1.09007
1.08527
1.08258
1.07998
1.07696
1.07439
1.07271
1.07153
1.06966
1.0668
1.06352
1.06021
1.05683
1.05344
1.05022
1.04724
1.04407
1.04049
1.038
1.03603
1.03393
1.03186
1.02972
1.02751
1.02559
1.02387
1.02266
1.02112
1.01852
1.01567
1.01308
1.01055
1.00821
1.0058
1.00358
1.00139
0.999243
0.996882
0.994753
0.99327
0.99147
0.989393
0.987236
0.984982
0.982202
0.979197
0.976075
0.973275
0.968162
1.45652
1.44945
1.44201
1.43478
1.4281
1.42233
1.41697
1.41137
1.40551
1.39964
1.39379
1.38784
1.38187
1.37604
1.37023
1.36465
1.35957
1.35486
1.35028
1.34564
1.34082
1.33573
1.33035
1.32472
1.31895
1.31317
1.30747
1.30169
1.29597
1.29048
1.28518
1.28002
1.27507
1.27019
1.26531
1.2603
1.25519
1.24992
1.24478
1.23979
1.23484
1.23005
1.22591
1.22217
1.21846
1.21452
1.21118
1.20798
1.20388
1.20024
1.19817
1.19573
1.19302
1.19072
1.18811
1.18494
1.1815
1.17795
1.17433
1.17059
1.16673
1.16268
1.15858
1.15455
1.15044
1.14646
1.143
1.13971
1.13596
1.13254
1.12949
1.12584
1.12289
1.12052
1.11793
1.11513
1.1126
1.11008
1.1073
1.10423
1.10088
1.09722
1.0933
1.08848
1.0849
1.0828
1.08021
1.07717
1.07456
1.07249
1.07035
1.06777
1.06499
1.06215
1.05929
1.05625
1.05303
1.04991
1.04687
1.04344
1.04011
1.03786
1.0357
1.03343
1.03125
1.02947
1.0275
1.0248
1.02272
1.02151
1.01895
1.01619
1.01386
1.01143
1.00864
1.00582
1.00321
1.00091
0.998582
0.99624
0.994009
0.991941
0.990101
0.987928
0.985548
0.983104
0.980441
0.977178
0.97362
0.970088
0.967013
0.961828
1.46417
1.45824
1.45222
1.44604
1.43972
1.43321
1.42668
1.42039
1.4143
1.4084
1.40251
1.39632
1.38974
1.38321
1.37688
1.3708
1.36511
1.35977
1.35463
1.3494
1.3439
1.33815
1.3322
1.32607
1.31986
1.31375
1.30771
1.3016
1.29564
1.29004
1.28468
1.27941
1.27434
1.26943
1.2646
1.25974
1.2548
1.2497
1.24475
1.23993
1.23504
1.23
1.22579
1.22252
1.21916
1.21545
1.21244
1.20948
1.20603
1.20291
1.20005
1.19661
1.1932
1.19015
1.18691
1.18346
1.18015
1.17669
1.17305
1.16921
1.16526
1.16122
1.15715
1.15314
1.14916
1.14534
1.14192
1.13846
1.13425
1.13087
1.12827
1.12544
1.12264
1.12006
1.1173
1.11433
1.11138
1.10841
1.10527
1.10185
1.09785
1.09414
1.09118
1.08888
1.0865
1.08348
1.08064
1.07807
1.07559
1.07303
1.07029
1.06745
1.06467
1.06185
1.05894
1.05594
1.05295
1.04992
1.04674
1.0431
1.04036
1.03821
1.03598
1.03352
1.03107
1.02869
1.02666
1.02549
1.02414
1.02125
1.01774
1.01475
1.0119
1.00901
1.00603
1.00322
1.00061
0.998104
0.995555
0.993104
0.990792
0.988666
0.986522
0.983995
0.981136
0.978257
0.975176
0.971507
0.967489
0.963594
0.960324
0.955187
1.46229
1.45872
1.45514
1.45146
1.44755
1.44275
1.4373
1.43189
1.42656
1.42082
1.41449
1.40758
1.40022
1.39286
1.38577
1.37897
1.37253
1.36645
1.36057
1.35467
1.34864
1.34245
1.33609
1.32946
1.32266
1.316
1.30954
1.30317
1.29707
1.29138
1.28598
1.28071
1.27559
1.27059
1.26573
1.261
1.25633
1.25161
1.2471
1.24278
1.23833
1.23345
1.22944
1.22621
1.22239
1.21827
1.21526
1.2121
1.20857
1.20541
1.20221
1.19852
1.19487
1.19135
1.1877
1.18391
1.18027
1.17662
1.17288
1.16895
1.16493
1.16089
1.1567
1.15246
1.1484
1.14465
1.14117
1.13755
1.13313
1.13005
1.12795
1.12534
1.12248
1.11993
1.11714
1.11429
1.1113
1.10789
1.10435
1.10005
1.09513
1.09289
1.09118
1.08862
1.08491
1.08209
1.08015
1.07792
1.07505
1.0722
1.06968
1.06725
1.06472
1.06196
1.05898
1.05606
1.05325
1.05006
1.04646
1.04373
1.04123
1.03874
1.03627
1.0337
1.03122
1.02923
1.02786
1.02549
1.02224
1.01862
1.01528
1.01239
1.00969
1.00682
1.0037
1.00063
0.997767
0.995035
0.992315
0.989728
0.98715
0.984657
0.982107
0.979198
0.975834
0.972365
0.9688
0.964834
0.960655
0.956687
0.953428
0.948495
1.45466
1.4562
1.45504
1.45224
1.45075
1.44904
1.44614
1.44233
1.43757
1.43161
1.42489
1.41814
1.4114
1.4045
1.39749
1.39046
1.38356
1.37696
1.37066
1.36442
1.358
1.35125
1.34415
1.33679
1.32936
1.32218
1.31543
1.30885
1.3025
1.29671
1.29125
1.28591
1.28063
1.2754
1.27037
1.26555
1.26079
1.25602
1.25168
1.24782
1.24369
1.23896
1.23498
1.23136
1.22689
1.22259
1.21956
1.21624
1.21264
1.20937
1.206
1.20225
1.19854
1.19482
1.1909
1.18669
1.1825
1.17838
1.17415
1.16971
1.16539
1.16128
1.15714
1.15299
1.14916
1.14565
1.14216
1.13843
1.13451
1.13142
1.12864
1.12543
1.12217
1.1193
1.11633
1.11322
1.10975
1.10616
1.10263
1.09853
1.09403
1.09227
1.09106
1.08838
1.08459
1.08233
1.08087
1.07837
1.07519
1.07222
1.0698
1.06765
1.06528
1.06246
1.05949
1.05664
1.05362
1.04996
1.04686
1.04465
1.04217
1.03949
1.03682
1.034
1.03172
1.03041
1.02794
1.02448
1.02116
1.01789
1.01433
1.01068
1.00722
1.00387
1.00053
0.997356
0.994405
0.991474
0.988578
0.98575
0.982784
0.979711
0.976649
0.973304
0.969481
0.965446
0.961433
0.957375
0.953398
0.949695
0.946657
0.94196
1.43506
1.44228
1.44824
1.44948
1.4498
1.45
1.44967
1.44672
1.44194
1.43673
1.43111
1.42567
1.42063
1.41528
1.40926
1.403
1.39672
1.39045
1.38424
1.37783
1.37096
1.36367
1.35605
1.34819
1.34042
1.33285
1.32555
1.31847
1.31175
1.30564
1.30006
1.29476
1.28958
1.28445
1.27956
1.27482
1.26995
1.26494
1.26044
1.25632
1.2517
1.24648
1.24238
1.23851
1.23377
1.2295
1.226
1.22217
1.21817
1.21456
1.21094
1.20697
1.20294
1.19881
1.19446
1.1898
1.18521
1.18076
1.17615
1.17129
1.16676
1.16266
1.15852
1.15436
1.15058
1.14706
1.14356
1.13982
1.13598
1.13258
1.1293
1.12574
1.12218
1.11906
1.11601
1.11273
1.10892
1.10537
1.10223
1.09889
1.09515
1.0928
1.09115
1.08819
1.08461
1.08282
1.08115
1.07841
1.07532
1.07242
1.06978
1.06729
1.06458
1.06176
1.05901
1.05628
1.05333
1.05029
1.04735
1.04488
1.04285
1.04005
1.03697
1.03472
1.03319
1.03036
1.02669
1.02281
1.01897
1.01531
1.01151
1.00767
1.00399
1.00048
0.997041
0.993751
0.990575
0.987313
0.984095
0.980936
0.977528
0.973789
0.970063
0.966167
0.961973
0.957619
0.953397
0.949483
0.94596
0.942714
0.939953
0.935542
1.39074
1.402
1.41377
1.4257
1.43199
1.43734
1.44281
1.44271
1.44061
1.43833
1.43513
1.43096
1.42654
1.42201
1.41645
1.41093
1.40622
1.40147
1.39624
1.39045
1.3838
1.37635
1.36878
1.36112
1.35349
1.3462
1.33903
1.3319
1.32506
1.31881
1.31318
1.30795
1.30284
1.29783
1.29303
1.28828
1.28327
1.27807
1.27311
1.26822
1.26264
1.25672
1.25233
1.24827
1.24361
1.23956
1.23592
1.23177
1.22726
1.22293
1.21854
1.21372
1.20876
1.20379
1.19871
1.19345
1.18847
1.18388
1.17915
1.17411
1.16955
1.16546
1.16123
1.15693
1.15297
1.14922
1.14547
1.14143
1.13742
1.13393
1.13053
1.12687
1.12321
1.11998
1.11667
1.11303
1.10856
1.10488
1.10254
1.09998
1.09637
1.09334
1.09127
1.08832
1.08568
1.0842
1.08196
1.07911
1.07617
1.07323
1.07011
1.06707
1.06418
1.0613
1.05856
1.05588
1.05349
1.05083
1.04785
1.0453
1.04342
1.04052
1.03741
1.03518
1.03237
1.0288
1.02467
1.02045
1.0163
1.0123
1.00815
1.00403
1.00013
0.996454
0.992937
0.989515
0.986055
0.982389
0.978704
0.975112
0.97125
0.966934
0.962537
0.958192
0.953826
0.949482
0.945407
0.941811
0.938745
0.935885
0.93338
0.929237
1.35709
1.36265
1.37053
1.38087
1.39214
1.40074
1.41115
1.4178
1.42103
1.425
1.42487
1.42216
1.42047
1.4182
1.4137
1.40986
1.40696
1.40352
1.39919
1.39433
1.38894
1.38333
1.3775
1.37131
1.36498
1.35837
1.35137
1.3443
1.33737
1.33128
1.32599
1.32106
1.31622
1.3115
1.30682
1.302
1.29692
1.29166
1.28642
1.28102
1.27492
1.26886
1.26422
1.25985
1.25512
1.25089
1.24678
1.24214
1.23702
1.23194
1.22683
1.22127
1.21561
1.21016
1.20461
1.19877
1.19337
1.18854
1.18354
1.17827
1.17361
1.16932
1.16481
1.16015
1.15585
1.15187
1.14787
1.14354
1.13948
1.13599
1.13246
1.12854
1.1247
1.12128
1.11783
1.11406
1.10962
1.10662
1.10448
1.10157
1.09716
1.09379
1.09225
1.0902
1.08738
1.08447
1.08121
1.07808
1.07531
1.07258
1.06963
1.06652
1.06364
1.06083
1.05809
1.05594
1.05374
1.05074
1.04764
1.04491
1.04314
1.04082
1.03755
1.03408
1.03003
1.02587
1.02162
1.0172
1.01267
1.00834
1.00398
0.999766
0.995712
0.991849
0.988171
0.984528
0.980709
0.976593
0.972355
0.968248
0.963967
0.959313
0.95458
0.95001
0.945655
0.941552
0.937757
0.93446
0.931709
0.929084
0.926768
0.922827
1.34393
1.34268
1.34359
1.34557
1.34938
1.35506
1.3614
1.37044
1.37785
1.38513
1.3919
1.39449
1.39838
1.40118
1.4002
1.39997
1.40052
1.39947
1.39649
1.39278
1.3885
1.38372
1.37835
1.37309
1.36772
1.36148
1.35613
1.35103
1.34533
1.3409
1.3371
1.33302
1.32868
1.32411
1.31929
1.3142
1.30878
1.30317
1.2975
1.29162
1.28539
1.27938
1.27427
1.26949
1.26452
1.25987
1.25529
1.25016
1.24453
1.23909
1.23368
1.22779
1.22184
)
;

boundaryField
{
    inlet
    {
        type            fixedValue;
        value           nonuniform 0();
    }
    outlet
    {
        type            zeroGradient;
    }
    bottom
    {
        type            symmetryPlane;
    }
    top
    {
        type            symmetryPlane;
    }
    obstacle
    {
        type            zeroGradient;
    }
    front
    {
        type            empty;
    }
    back
    {
        type            empty;
    }
    procBoundary39to31
    {
        type            processor;
        value           nonuniform List<scalar> 
133
(
1.38426
1.38034
1.37631
1.37202
1.36733
1.36229
1.35763
1.35369
1.34993
1.34613
1.3423
1.33845
1.33453
1.33049
1.32641
1.32236
1.31829
1.31427
1.31077
1.30755
1.30426
1.3009
1.29747
1.29399
1.2905
1.28691
1.28315
1.27931
1.27536
1.27123
1.26686
1.26229
1.25763
1.25304
1.24863
1.24429
1.23999
1.23589
1.23188
1.22779
1.22357
1.21927
1.21496
1.21064
1.20626
1.20185
1.19745
1.19295
1.18816
1.18337
1.17895
1.17484
1.17112
1.16797
1.165
1.16171
1.15842
1.15549
1.15245
1.14908
1.14588
1.14301
1.13988
1.13628
1.13246
1.12868
1.12509
1.12186
1.11891
1.11611
1.11343
1.11083
1.10834
1.10601
1.10343
1.10009
1.09672
1.09509
1.09346
1.09046
1.08662
1.08443
1.08391
1.08241
1.07964
1.07676
1.07412
1.07154
1.06896
1.06643
1.06403
1.06172
1.05932
1.05646
1.05394
1.0521
1.05057
1.04917
1.0467
1.04396
1.04143
1.03889
1.03737
1.03563
1.03209
1.02936
1.02712
1.02466
1.02176
1.0192
1.01698
1.01473
1.01193
1.00943
1.00785
1.00467
1.4567
1.4515
1.44635
1.44121
1.43581
1.4304
1.42489
1.41942
1.41433
1.40946
1.40452
1.3998
1.39547
1.3915
1.38775
1.38409
1.38409
)
;
    }
    procBoundary39to38
    {
        type            processor;
        value           nonuniform List<scalar> 
17
(
1.45766
1.45176
1.44542
1.44005
1.43502
1.43229
1.43243
1.43468
1.4395
1.44994
1.46264
1.46875
1.46535
1.45339
1.42425
1.37775
1.35467
)
;
    }
    procBoundary39to46
    {
        type            processor;
        value           uniform 1.34641;
    }
    procBoundary39to47
    {
        type            processor;
        value           nonuniform List<scalar> 
133
(
1.21626
1.21058
1.20455
1.19913
1.19428
1.18912
1.1837
1.17896
1.17444
1.16954
1.16439
1.1597
1.15541
1.15105
1.14638
1.14224
1.1386
1.1348
1.13062
1.12669
1.12324
1.11979
1.11601
1.11169
1.10864
1.10624
1.103
1.09824
1.09532
1.09446
1.09202
1.08846
1.08502
1.08154
1.07818
1.07517
1.07225
1.06947
1.06661
1.06336
1.06011
1.05768
1.05537
1.05315
1.05031
1.04736
1.04518
1.04293
1.03932
1.03511
1.03076
1.0264
1.02216
1.01772
1.01296
1.00809
1.00353
0.9991
0.994859
0.990694
0.986582
0.98259
0.978617
0.974425
0.969894
0.965196
0.960664
0.956076
0.951375
0.946656
0.942164
0.938025
0.934128
0.930566
0.927448
0.924814
0.922244
0.91995
0.916012
1.33921
1.33544
1.33269
1.33039
1.32878
1.32872
1.32925
1.33104
1.33541
1.33882
1.3428
1.34841
1.35344
1.35953
1.36584
1.36939
1.37408
1.37676
1.37615
1.37658
1.37645
1.37323
1.36918
1.36653
1.36244
1.35695
1.35336
1.34952
1.34443
1.34057
1.33797
1.33463
1.33082
1.32721
1.32337
1.31908
1.3143
1.30917
1.30389
1.29834
1.29246
1.2866
1.2812
1.276
1.27054
1.26543
1.26056
1.25525
1.24955
1.244
1.23834
1.23209
1.21626
1.22592
)
;
    }
}


// ************************************************************************* //
