/*--------------------------------*- C++ -*----------------------------------*\
  =========                 |
  \\      /  F ield         | OpenFOAM: The Open Source CFD Toolbox
   \\    /   O peration     | Website:  https://openfoam.org
    \\  /    A nd           | Version:  7
     \\/     M anipulation  |
\*---------------------------------------------------------------------------*/
FoamFile
{
    version     2.0;
    format      ascii;
    class       volScalarField;
    location    "0.061";
    object      p;
}
// * * * * * * * * * * * * * * * * * * * * * * * * * * * * * * * * * * * * * //

dimensions      [0 2 -2 0 0 0 0];

internalField   nonuniform List<scalar> 
12359
(
0.0864144
0.0937285
0.0720665
0.126297
0.0886006
0.174568
0.209662
0.189193
0.254981
0.163743
0.235215
0.311338
0.533342
0.136839
0.122781
0.435594
0.481591
0.0754826
0.0751612
0.107193
0.144985
0.283544
0.100724
0.113105
0.0976888
0.104005
0.0728399
0.0727644
0.0745613
0.0732143
0.0735015
0.0724812
0.0721887
0.0730103
0.072089
0.0737248
0.0798345
0.0845493
0.0878867
0.0817344
0.0924562
0.0828479
0.0777616
0.0770815
0.0740499
0.074275
0.073888
0.0734729
0.0748636
0.0729325
0.0726764
0.0725616
0.0723375
0.0758407
0.0722722
0.0722003
0.0766245
0.072169
0.0721561
0.0721504
0.0721992
0.0720675
0.0725867
0.551366
0.0762212
0.153801
0.0796508
0.0725432
0.0802414
0.38477
0.590298
0.0899871
0.0720641
0.080761
0.117064
0.0720757
0.0722918
0.0720582
0.0790303
0.354608
0.145857
0.0680972
0.0714666
0.0714937
-0.04063
0.043212
0.0677448
0.0706891
-0.0528125
-0.0343743
0.0719296
0.507894
0.0719034
0.0705148
0.0696329
0.0183529
0.0705714
0.0706533
0.0777509
0.073518
0.123148
0.0719977
0.0441581
-0.10655
0.0677497
0.0233038
0.0713385
-0.0471243
0.0475585
0.0244302
0.0707252
0.0684702
0.126286
0.104078
0.0705354
0.0695746
0.109559
0.0675157
-0.054808
0.0714831
0.0709237
0.198105
0.0706358
0.012178
0.0673837
0.0690001
0.0538054
0.0711149
0.0720656
0.0672094
0.0697013
-0.00337351
-0.0010106
-0.00415463
0.0713399
0.0119777
0.0695465
0.0124914
0.0720248
0.0519818
0.0715719
0.0871859
0.0269366
0.0713142
0.0202085
0.171091
0.0714681
-0.0375535
0.06759
0.14393
0.00761317
0.0720112
0.0271535
0.0705949
0.0718529
-0.0469772
0.124012
-0.00417687
0.070665
0.0724761
0.0624725
0.0724916
0.00940071
0.0224698
0.0714518
0.0691628
0.0629031
0.201512
0.025702
-0.0491692
0.072081
0.0720951
0.0237858
0.0986484
0.0680048
0.0580138
0.0747874
0.0745685
0.127676
0.058741
0.137059
0.0718295
0.0720634
0.0678976
0.0766529
0.229757
0.0665854
0.0691007
0.0146031
0.0661901
0.0688342
0.0199788
0.0214745
0.0705076
0.0214535
-0.100301
0.0514185
0.0670259
0.0260877
0.067542
0.17372
0.0123275
0.0747051
0.0248111
0.0243348
0.0718059
0.0224754
0.0751705
0.00586594
0.0654214
0.071632
-0.00162756
0.0014976
-0.685901
0.211093
0.0720179
0.0666035
0.0704924
0.0664414
0.0875027
0.120936
0.0657545
0.0121573
0.50822
0.0667941
0.0716126
0.0883206
0.0482073
0.0631014
0.0675274
0.0673644
0.0714558
0.0211299
0.0746097
0.0688419
0.0731229
0.0714765
0.0262245
0.0689295
0.30951
0.071418
0.0410199
0.0695325
0.0765985
0.0608005
-0.0333964
0.0721762
0.0050806
0.0685655
0.022695
0.00482488
0.0848318
0.0740478
0.0674883
0.366644
-0.737945
0.0714955
0.0660393
0.434417
-0.0426718
0.0739106
0.0624137
0.0596768
0.0222094
0.0967053
-0.521977
-0.045869
0.0599041
0.0667674
0.0125807
0.0237731
0.0787905
0.0254707
0.0678345
0.0659724
0.0714281
0.0661699
-0.101222
0.0576337
0.071212
0.0719844
0.0219749
0.0647985
0.0800306
0.0415782
0.071517
0.0630272
0.0720093
0.0719869
0.072499
0.00922851
0.0679825
-0.507195
0.0713324
0.0713355
0.0440129
0.0685319
0.120254
0.0706992
0.0727914
0.071912
-0.0932895
0.0606216
0.0719293
0.0667418
0.0702238
0.0685745
0.069348
0.0697073
0.0683582
0.0757287
0.225242
0.0686107
0.0736891
0.0851329
0.0370111
-0.0368701
0.0681563
0.077633
0.408877
0.0719811
0.0338928
0.0711926
0.051589
0.0713008
0.0666847
0.256899
0.0327325
0.229784
0.0789023
0.0692863
0.0243478
0.0154354
0.0689953
0.0230528
0.0219814
0.0711065
0.0722239
0.0722097
0.0722651
0.072232
0.293167
0.0714991
0.124416
0.000725749
0.0740392
0.0243669
0.0324067
0.044636
0.0527963
0.0312295
0.0528776
0.0766646
0.0347577
0.0364062
0.10973
0.0878464
0.0297952
0.0865487
0.0871396
0.0285404
0.122647
0.0682769
0.0723634
0.0501602
0.072315
0.0682015
-0.164375
0.555654
0.0683648
0.0720431
0.0713513
0.0717803
0.0307765
0.0718502
0.0718422
-0.0566378
0.0233537
-0.0363701
0.0699602
0.0187951
0.0650544
0.0699877
0.0291777
0.0499993
0.132188
0.0505989
0.0687426
0.0711947
0.0228526
0.0184794
0.0669208
0.331335
0.0272043
0.0161543
0.0680435
0.0633597
0.0720237
0.416388
0.0286664
0.0701993
0.0846295
0.084805
0.0715992
0.0715549
0.0717087
-0.0493214
0.116927
0.0777675
0.0325985
0.00898508
0.0692305
0.136836
0.0665429
-0.00268004
-0.0402065
0.345295
0.0724575
0.109412
0.0476387
0.0366699
0.0551528
0.0495782
0.0734179
0.055188
0.0278112
0.0718472
-0.0383286
0.0798672
-0.00388641
0.0167482
0.0768624
0.114569
-0.155491
0.0304705
0.0584493
0.0183074
0.0166852
0.0327531
0.0672789
0.0716916
0.0730674
0.0713081
0.00232475
0.0697038
0.10317
0.103705
0.0612068
-0.0427399
0.123739
0.0736451
0.070079
0.427376
0.071151
0.0701345
0.0167007
0.072041
0.0696477
0.0699931
0.262304
0.214771
0.0709229
0.0706279
0.129341
0.0654444
0.0326369
0.0258175
0.0246544
0.0710813
0.0717667
0.0641403
0.0719449
0.103317
0.0335446
0.0355759
0.0742308
0.068189
0.0134933
0.0734978
0.0671595
0.0666225
0.141634
0.0157503
0.0720043
0.064657
0.0228349
0.0515099
0.0674824
0.0693035
0.13041
0.0346688
0.0145478
0.0350343
0.0710492
0.0673881
0.00670155
-0.00010903
0.0719202
0.0551956
0.0628899
0.0127756
0.305361
0.0717092
0.0697484
0.0711122
0.0263776
0.0731302
0.0732635
0.0692029
0.0667651
0.0480702
0.0960323
0.0639946
-0.0229024
0.0712457
-0.0293009
0.0708001
-0.141068
0.0329155
0.0112386
0.0722116
0.0740386
0.0364704
0.0680175
0.0726659
0.0782127
0.072856
0.0734422
0.0926245
0.0259919
0.0230984
0.0714765
0.0678196
0.0331859
-0.0044113
0.0714747
0.0712046
0.0229339
0.0711055
0.24643
-0.149833
-0.0591195
0.0714787
0.0622062
0.00219772
0.0733781
0.0681824
0.481687
0.0712831
0.133406
0.106421
0.0621135
0.0684978
0.0728555
0.0618978
0.000625081
0.0492885
0.0723364
0.071493
0.0720677
0.0732013
0.0748532
0.0744876
0.0251776
0.0725703
0.0712524
0.0351535
-0.043683
0.0733221
-0.00286468
0.0713675
0.0728602
0.113083
0.00451746
0.00513542
0.114594
0.0647892
0.00393524
0.0716047
0.0720962
0.0107533
0.0572845
0.064325
0.0573804
0.071789
0.071199
0.0686535
0.0656244
0.00308668
0.122414
0.0800251
0.13845
0.0264783
0.0583294
0.131345
0.0813057
-0.00357943
0.0244101
0.0846062
0.0703899
0.0721323
0.0525938
0.0353414
0.0714704
0.072043
0.0711053
0.0721582
-0.00392745
0.0557223
0.0566973
0.12363
0.0785735
0.264196
0.0134491
0.00338031
0.0684311
0.00895184
0.0717724
0.0675289
0.070691
0.127963
0.132917
0.0655164
0.0487747
0.246477
0.0277702
0.0191184
0.0577682
0.0871241
-0.122257
0.070914
0.0726239
0.0718149
0.00207758
0.0725363
0.0503693
-0.0414855
0.0712756
0.0987497
0.0758538
0.0606072
0.073895
0.0659545
0.0723622
0.073155
0.0724026
0.0723171
0.0730565
0.0128998
0.0196549
0.0604561
0.371998
0.00531957
0.495638
0.0298139
0.0428335
0.0730854
0.0315302
0.0758169
0.0185755
0.402725
0.117085
0.0739539
0.0621473
0.075934
0.0747474
0.0362596
0.0716971
-0.00832524
0.0723503
0.11872
0.0658544
-0.00334893
0.0176561
0.0200565
0.0724644
0.0583437
0.0184579
0.0956301
0.0139902
0.0585418
0.0141786
0.0614219
0.0714965
0.0668485
-0.21067
0.0883078
0.0645554
0.0714358
0.0725302
0.0753551
0.102571
0.0205867
0.0328239
0.0711299
0.0650853
0.0729413
0.0645054
0.0642668
0.0125971
0.0769245
0.0754863
0.0180112
0.0650097
0.0617649
0.122855
0.0714768
0.076766
-0.261819
0.0721795
0.0188118
0.0693271
0.0626508
0.106414
0.0178229
0.0689796
0.033773
0.071501
0.130896
0.0673581
0.022991
0.0200296
0.132426
0.071399
0.00213126
0.00244457
0.0738579
0.062029
0.0673115
0.0516379
0.255177
0.0751436
0.0720338
0.0729645
0.0718771
-0.119934
0.0604106
0.0256117
0.0510232
0.0349766
0.556765
0.0613301
-0.0467844
0.0209761
-0.054818
0.0319016
0.0721192
0.0614025
0.0522573
-0.0360295
-0.0226788
0.0707101
0.0707616
0.140585
0.0702896
0.220871
0.0341079
0.0906816
0.0674929
0.463585
-0.0950123
0.0607523
0.0714942
0.071319
0.112673
0.0753102
0.0799854
0.0726573
0.0268011
0.0952786
-0.0167141
0.389404
0.0712223
0.100354
0.024899
0.13876
0.0636299
0.132604
0.0142622
0.113743
0.0738307
0.0714378
0.0195351
0.0160162
0.0326701
0.138186
0.0279177
0.0449021
0.0699415
0.0707102
0.0593248
0.271635
0.0591571
0.0208249
0.0839634
0.0346154
0.0603395
0.0729391
0.00260028
0.0521452
0.0632019
-0.00389659
0.0772413
0.0455244
0.212358
0.0714933
0.0516664
0.0675058
0.0773701
0.0693989
0.0686633
0.0714779
0.0149554
0.0667539
0.0974233
0.0240029
0.11204
0.0495835
0.0505855
0.0205534
-0.151937
0.0721423
0.0775755
0.0438807
-0.0629503
0.0167384
0.071344
0.559586
0.0714491
0.0675452
-0.129736
0.0757059
0.0715526
0.0715453
0.0829085
0.108209
0.0721154
0.0764533
0.12776
0.0687765
0.0714861
0.0730388
0.0709135
0.109448
-0.00512637
0.0733814
0.135806
0.0212367
0.0214224
0.0203307
0.0279346
0.0729868
0.0671367
-0.0284915
0.00989159
0.0914388
0.0703895
0.072178
0.138629
0.00927827
0.0533266
0.0533275
0.0528187
0.0725189
0.0659262
0.101854
-0.252335
0.395196
0.100149
0.0682246
0.0662296
0.0978771
0.409657
0.130998
0.0713756
0.0100332
-0.000521787
-0.281713
0.0585311
-0.123306
0.072155
0.0727578
0.0721867
0.0213623
0.0931856
-0.130067
0.0684227
-0.0781035
0.0699789
0.0691166
0.0181743
0.0746557
0.0115896
-0.026238
0.0764
0.0591137
0.0425185
0.0589759
0.0762521
0.0932047
0.0910853
0.0497095
0.0967541
0.0764541
0.0722119
0.0720884
0.0725681
0.124321
0.0402457
0.00431786
0.0153595
0.104684
0.0388245
0.0375184
0.0619049
0.00541153
0.0544417
0.0759413
0.0718138
0.0100823
0.1288
0.0687086
0.0545817
0.0770488
0.0377989
0.122343
0.136117
0.0382173
0.344609
0.0365355
0.105632
-0.0237874
0.0743102
0.0336196
0.0207556
0.0706164
0.0539639
0.0651097
0.0635376
0.0715994
0.0685992
-0.00296907
0.00984829
0.0676728
-0.0789825
0.118002
0.072515
0.06202
0.0120065
0.0724586
0.0989639
0.0262634
0.0179192
0.0724091
0.0742118
0.0707534
0.0724626
0.138499
-0.108494
0.0723658
0.0715858
0.0714807
-0.13676
0.0356917
0.025982
0.0713313
0.0722896
0.072607
0.0398698
0.102738
0.0432746
0.0689656
0.0734906
0.0723718
0.0331182
0.102121
0.0637415
0.0720382
0.0481804
0.0396625
0.0934123
0.0687344
-0.00525905
0.16741
0.0703712
0.0496028
0.0732595
0.063339
-0.146041
0.0763192
0.0725456
0.0214122
0.124562
0.101234
-0.127838
0.0967083
0.0555741
0.0425788
0.0770737
0.0608048
0.0550872
0.0762232
0.167029
0.0700552
-0.297699
0.102144
0.201386
0.0606476
-0.00226691
0.112517
0.00543826
0.294482
0.0126355
0.0456525
0.0550188
0.0566406
0.0714633
0.0639712
0.105393
0.0060523
0.0765354
0.0704938
0.0136865
0.0293048
0.015069
0.0981449
0.0106201
0.0144247
0.0705769
0.0894551
-0.0322361
0.104534
0.0714344
0.0574585
0.0739946
0.0714396
0.0884228
0.0721474
0.0638612
0.272298
0.108779
-0.00487418
0.0721753
0.0715624
0.0718718
0.0767161
0.074738
0.00577435
0.0748842
0.0714857
-0.00336936
0.0358205
0.0158956
0.0879614
0.0669063
0.0636606
0.111594
0.0555822
0.0721864
-0.0273361
0.0216172
0.127486
0.071454
-0.241587
0.116728
0.0679411
0.00691791
0.0533182
-0.0142051
0.0566536
0.0107758
0.115273
0.0660015
0.0732873
0.0377565
0.0563193
0.0748124
0.00388051
0.0758374
0.0760575
0.116586
0.0698438
0.0746112
0.056179
0.0197471
0.0642999
0.0758804
0.0736959
0.0713899
0.118193
-0.0269475
0.0416166
0.0769063
0.0715047
0.063849
0.0711969
-0.175386
0.0983353
0.0719931
0.0895935
0.0640818
0.118785
0.172781
0.00375363
0.0756224
0.0167993
0.00618496
0.0713156
0.0591725
0.01059
0.0683973
0.0720335
0.0924484
0.0437467
0.074017
0.0720544
0.0592049
0.10433
0.0724891
0.0485406
0.0721479
0.063798
0.0862069
0.151403
0.0717615
-0.213672
0.0991359
0.0271676
-0.081376
0.111937
0.0497352
-0.0219266
0.0772789
0.164796
0.233891
0.0721587
0.0644101
0.0644384
0.0729904
0.0748312
0.014668
-0.0662582
-0.0994015
0.0168304
0.168809
-0.000757583
0.0178627
-0.0327169
0.0715211
0.0731561
0.0654658
0.0400624
0.071153
0.0160862
0.0576958
-0.00438704
0.071504
0.0739615
0.069912
-0.115719
0.139866
0.0964322
0.0817669
0.142955
0.0649057
0.0723738
-0.00479339
0.0572319
0.000635154
0.0154652
0.0397587
0.01583
0.0276143
0.078003
0.0709449
0.0712372
-0.123525
0.0589434
0.0644382
0.0698796
0.0119132
0.0328959
0.0717792
0.0339893
-0.000846659
-0.0012217
0.113686
0.0723716
0.0716065
0.0134429
0.0766614
0.0714482
0.0116365
0.0184702
0.0744989
0.159742
0.00212701
0.0718518
0.0714943
0.0713387
0.126843
-0.104915
0.0555315
0.0210542
0.0739537
0.0733735
0.0217653
0.0719742
0.198415
0.027576
-0.0384549
0.173677
0.0497903
0.0706739
0.0713827
0.0537256
0.0769443
0.0707828
-0.167988
0.0156955
0.0599921
0.249991
0.120959
0.0677701
0.0714839
0.071469
0.067746
-0.0643654
0.181875
0.0500217
0.0963906
0.0878039
0.01618
-0.0673087
0.0425363
0.074958
0.0723901
0.0282224
0.06349
0.0710951
0.0734678
0.01438
0.0747879
0.0509343
0.0762215
0.0995631
0.000447327
0.0682552
0.0735674
0.00823044
0.011317
0.0803693
0.0734197
0.0955929
-0.00133048
0.0538079
0.030916
0.0932501
0.0316446
-0.0184725
0.0736233
0.179838
0.070975
0.125265
0.0086135
0.0719247
0.0714364
0.419444
0.0717179
0.0760486
0.0410958
0.0759601
0.0760519
0.0787203
0.0716575
0.0718632
0.000508916
-0.0135467
0.0701813
0.378076
0.0586778
0.0733281
0.28099
0.119415
0.0712317
0.0660259
0.0730001
0.107528
-0.315875
0.075799
0.0701422
0.0712237
0.0732496
0.0829364
0.0268665
0.0753744
0.0838195
0.0744787
-0.140436
0.00584169
0.0168274
0.130106
0.0582269
0.0734103
0.0128751
-0.104474
0.0730401
0.0713679
0.0733628
0.0653331
0.0758925
0.0707121
0.00480082
0.0657605
0.0667251
0.289953
-0.00478691
-0.00898445
0.0116134
0.0757457
0.00586609
0.106844
-0.0784436
0.068767
0.0182365
0.0719719
0.215316
0.0715119
0.0707178
0.0499741
0.0712378
0.0408738
0.0799066
0.0759784
0.0687561
-0.0670842
0.105559
0.0203096
0.0735147
0.0515491
-0.0314955
0.00284344
0.0968784
0.0939435
0.0714203
0.0759083
0.0695147
0.0732249
0.0701385
0.073512
0.109179
0.0924368
0.0178306
-0.0967166
0.047047
0.00324583
0.0483809
-0.101491
0.0707049
-0.0176706
0.0734387
0.00730813
0.00474737
0.0394517
0.0711172
0.0445471
0.0205513
0.0507571
-0.00514036
0.287384
-0.0938767
0.0733743
0.0101675
0.0650906
0.00687355
0.11085
0.0171478
0.0677047
0.0787294
0.0202604
0.0740153
0.0527385
0.0712318
0.0615384
0.0714718
0.0763946
0.0138991
0.00182011
0.0714803
0.103716
-0.0637109
0.520294
0.0710926
0.0918882
0.0451952
0.216
0.0466523
-0.180364
-0.0237535
0.0684165
0.0391666
0.0858731
0.19946
0.062856
0.0864765
0.0996069
0.0698652
-0.0740519
0.0049487
0.0732727
0.0420458
-0.0193113
0.0945541
-0.0669522
0.0596238
0.100604
0.0743752
0.0711218
0.0756017
0.0648128
-0.0616816
-5.78142e-05
-0.0489044
0.0722972
-0.0612736
0.0452156
0.0137428
0.128955
0.0396175
0.0439594
-0.0386015
0.0591983
0.0603057
0.0116148
0.090272
0.0411399
0.0192482
0.0890069
-0.0847096
0.103252
0.0496657
0.109115
0.072337
0.135501
0.00271347
0.121839
0.0734033
-0.0226166
0.0715526
0.0489127
0.0178485
-0.000670143
0.0770514
0.0131931
0.0611968
0.557112
0.0765769
0.0114421
0.110799
-0.000948693
0.0162252
0.0715362
0.0469625
0.0713596
0.50275
0.0718052
0.0714659
0.0713368
-0.00268581
0.0665767
0.0602281
-0.00708934
0.0443544
0.0831881
0.0664536
0.0715299
0.127204
0.070307
0.12346
0.0224306
0.105176
0.0585181
0.0627841
0.0404095
-0.00162528
0.0200306
0.0625624
0.577971
0.0717974
0.0715644
0.0762519
-0.0717949
0.0735279
0.0498614
0.0993248
0.0748045
0.0628784
0.0125268
-0.0105639
0.0487463
-0.0314801
0.0756638
0.0658726
0.025955
0.0331806
-0.000496559
0.0733901
0.0430634
0.0910055
0.225492
0.0554644
0.0714417
0.0615316
0.200311
0.0720491
0.0720506
-0.0245643
0.0473728
-0.0289039
0.0627728
0.0715102
0.214247
-0.00265115
0.0678461
0.0759827
0.0701875
-0.0879583
0.0720548
0.0492313
-0.014505
0.0720491
0.0715186
0.019648
0.0711477
0.0720596
0.0246066
0.0697665
0.0713388
0.0373193
0.0711776
-0.00105009
0.0715006
0.0756782
0.13931
0.0172643
0.0720601
0.0159219
-0.164245
0.0639327
0.092267
0.070309
0.0438103
0.0705033
-0.00578355
0.00481335
0.0659408
0.0715302
0.152526
0.0429285
0.0282452
0.0223065
0.150414
0.0711536
0.0165963
0.0715219
-0.00729719
0.00652946
0.00506505
0.0171035
0.177501
-0.0589423
0.0116678
0.0206295
0.0638498
0.0732284
0.0102354
0.158764
0.118014
0.0537653
-0.0576749
0.0711889
-0.0475667
0.232586
0.0706387
0.00304135
-0.00884484
0.0982226
0.0166544
0.0178464
0.0917179
0.0714382
-6.7404e-05
-0.0553068
0.241341
0.0756906
0.00795241
-0.0170828
0.163439
0.0728242
0.0714847
0.0100852
-0.036624
0.0558836
0.0861821
0.0717226
0.0711266
0.0711261
0.0755416
0.0403506
0.0762502
0.0714914
-0.00392076
0.0574192
-0.012777
0.0283211
0.0716686
0.0715097
0.164228
0.0752622
0.0975038
0.0761887
-0.0289761
0.100281
0.070805
-0.010972
0.0797459
0.0713895
0.0457303
0.0536437
0.0635212
0.113296
0.0406388
-0.0885626
0.0571603
0.0711135
-0.0140725
0.0713082
0.00537674
0.0463761
-0.0163069
-0.034255
0.115717
-0.0184002
0.0716936
0.00200044
0.0746437
0.0904804
-0.010536
0.0321209
-0.0110307
-0.0526473
0.194685
-0.000786338
0.0805091
0.0707568
0.0713194
0.0712917
-0.0185354
0.166633
0.070768
-0.00278857
-0.00720076
0.0259183
0.0119884
0.0441196
0.128405
-0.0153906
0.0737996
0.0222887
0.0394269
0.0719609
0.0719727
0.0729456
0.0755435
0.0221696
0.0716136
0.0725331
0.0767992
0.0934911
0.000696908
0.0709709
-0.00698609
0.0714995
0.0165271
0.034774
0.0732289
0.058903
0.011952
-0.00799695
0.054608
0.0951862
0.0754432
0.041442
0.0486992
0.0715242
0.074943
0.0745156
0.073273
0.0715823
0.0882598
0.0715736
0.145727
0.0236148
-0.0830898
0.0715643
0.0784782
0.0716368
0.0710472
0.143585
0.0773219
0.0708612
0.379087
0.15459
0.0532936
0.0838143
0.0548803
0.137514
0.0358236
0.019564
0.0721057
0.0766528
0.0715314
0.0704871
-0.000821253
0.0711406
0.0729962
0.143052
0.0730673
0.0745894
0.0462506
0.0713723
-0.021558
0.0715835
0.0729561
0.016625
0.0200686
-0.0469293
0.130064
0.0895972
0.073119
0.0174147
0.0730786
0.039786
0.0151879
0.0765971
-0.0138955
0.0720892
0.0405021
0.0887534
0.0676318
0.121297
0.0716017
0.0765732
0.0715544
0.0441154
0.071086
0.0700514
0.0390657
0.0663471
0.0896455
0.0422124
0.0715573
0.0412949
0.0225524
0.0764196
0.0177978
-0.00155515
0.07152
0.0464013
0.129608
0.0126203
0.0760566
0.060657
0.0605524
0.0403555
0.0765568
0.172473
0.0739872
0.071445
0.0714875
-0.0096138
0.00371447
-0.00926618
0.31359
0.118912
0.0670978
0.0412855
0.0219314
0.0717501
-0.0373794
0.0748956
0.13022
-0.00316263
0.0729841
0.165491
0.00385436
-0.00475532
0.0374079
0.0442598
0.0716916
0.0713091
0.0759138
0.0715484
0.0714871
0.159157
0.0731048
0.0833623
0.0708119
0.0601052
0.0605541
0.382281
0.0639745
0.0662755
0.00189862
0.123099
0.113854
0.0488239
0.128387
0.0710875
0.0621506
0.0125153
0.0898257
0.144127
0.0728531
-0.00269322
0.0552923
0.0678739
0.0724217
0.0713729
0.0809787
0.0637558
0.0718969
0.0451154
0.289468
0.0719554
0.022949
0.0482149
0.0708982
0.0830012
0.0734402
0.0418602
0.0713533
0.0713372
0.0267389
0.0441666
0.109702
0.163015
-0.261613
0.0764314
0.0834547
-0.0223198
0.0484438
0.073404
0.0561136
-0.00147725
0.0715498
0.0743144
0.0715211
0.0450242
0.0829852
0.0319088
0.0715807
0.0812357
0.0528609
0.0747767
0.138799
0.0673118
0.0714024
0.0715743
0.044379
0.0371147
0.337599
0.0806445
0.101617
0.0109179
0.0140676
0.0712876
0.119006
0.071553
0.071516
0.0719579
0.00900847
0.0757984
0.0468625
0.0139297
0.0328618
0.0158316
0.0450532
0.0805035
0.132014
0.0680888
0.0198634
0.110862
0.0482453
0.145783
0.0746044
-0.124209
0.161179
0.155174
0.0711344
-0.0948535
0.0154432
0.0177728
0.15841
-0.0032635
0.0772907
0.0776072
0.0605118
0.0583399
0.0541458
0.24254
0.0910045
0.0750675
0.0246753
0.0747436
0.057967
0.0395039
0.112976
0.0551513
0.0870177
0.102403
0.011333
0.113496
0.0482283
0.072183
0.0803726
0.0703195
0.063662
0.0704694
0.0754152
0.0339466
-0.0292302
0.0710638
0.182342
0.070635
0.0637233
0.0186933
0.0452336
0.0489628
0.0702648
0.0158249
0.0228929
0.287989
0.0715348
0.0170473
0.0527043
0.0232772
0.071964
0.0717453
0.174483
0.0383649
0.0509467
-0.0783778
0.041074
0.0548533
0.163412
0.0266183
0.140155
0.0764467
0.0317347
0.0573783
0.0662351
-0.0142839
0.0139713
0.0354614
0.0487666
0.0709658
0.0142486
0.0140509
0.00050128
0.0609203
0.0528034
0.45518
-0.0301378
0.0706267
-0.00261696
0.0350283
-0.0729362
0.0714994
0.0470685
0.0481354
0.0715151
0.0119034
0.0458487
0.0731942
-0.00026916
-0.0104003
-0.00150006
0.0756804
0.0384642
0.0719798
0.0666034
-0.0131205
0.0971957
0.0474103
0.0156373
0.169637
0.0396555
0.0334832
0.0350137
0.0146092
-0.014254
0.070183
0.035735
0.0290084
0.108299
0.308086
0.0239463
0.0505299
0.0364619
0.0715023
0.106958
0.0465824
0.0180814
0.071216
0.0534281
0.0122216
0.0254934
0.170258
0.0210781
0.0490492
0.0446678
0.0755773
0.0123921
0.0430739
0.090312
0.078181
0.075627
0.019795
0.0542399
0.0609405
0.0592713
0.0714675
0.010925
0.08044
0.0466576
-0.00217013
-0.0303214
0.066451
0.0476053
0.0277477
0.0386446
0.0715957
0.116585
0.117696
0.0889835
0.0719377
0.266054
0.0151371
0.0680703
0.105722
0.0711858
0.0783258
0.0513488
0.04173
0.0714956
-0.0744063
0.0724321
0.0787907
0.0622656
-0.000599825
-0.0162322
0.000357728
0.0805955
0.0182468
0.0719611
0.0448402
0.0939747
0.0724331
0.169525
0.0295384
0.042732
0.0168274
0.0866896
0.0361736
0.0536972
0.0713056
0.0714747
0.0641645
0.082861
0.144087
0.0289145
0.167674
0.101141
0.108579
0.0730036
0.0890041
0.0152807
0.0713732
-0.0116316
-0.00810594
0.0737812
0.0715298
0.0638362
0.0700093
0.0714464
0.0841443
0.0534082
0.153364
0.0284654
0.0509365
0.108411
-0.000471333
0.0123644
0.103087
0.0244019
0.0396573
0.0869115
0.0712342
0.0827984
0.0463759
0.141961
0.149936
0.246054
0.0714744
0.147141
0.0486614
0.0486782
0.116469
0.127465
0.118221
-0.011619
0.0347217
0.0841753
0.0360487
0.0612944
0.0625132
0.108096
0.0709092
0.029358
-0.0154378
0.0796967
-0.0121043
0.0705534
0.100843
0.0755434
0.0504031
0.119861
0.185326
0.0371223
0.0626708
0.0301211
0.0507201
0.0885254
-0.00249072
0.101352
0.00476524
0.0714796
0.0354979
-0.124696
0.117282
0.0556336
-0.0248346
0.0206555
0.0610437
0.0707515
0.123506
0.109755
0.0511489
0.0751451
0.0727734
0.0124809
0.0641584
0.0144841
0.0981602
0.0513795
0.162598
0.0714944
0.0675192
0.0114812
0.0595701
0.0604787
0.0852446
0.0765239
0.0479933
0.189344
0.125525
0.0713529
0.0151093
0.0660529
0.0712586
0.154132
0.0707975
0.0370196
0.0407103
0.0709062
0.0709748
0.0728333
0.0149031
0.0804211
0.114181
0.0435322
0.15197
0.0478183
0.0507957
0.0539511
0.0960101
0.0716314
0.0574801
0.0577524
0.0433117
-0.0099267
0.0180779
0.0865809
0.0616306
0.0741412
0.0506626
0.0623674
0.0803101
0.0376562
0.12385
0.048071
0.071281
0.0162618
0.106387
0.0147572
0.0713517
0.155788
-0.0101095
0.0672111
0.117499
0.0136722
0.074766
0.113215
0.0138519
0.106647
0.134456
0.0134053
0.0642899
0.0984599
0.0938404
0.0258714
0.0686609
0.0511547
0.0714616
0.070158
0.0711762
0.0250047
0.0299705
0.0339603
0.100562
-0.0372974
0.190142
-0.0352488
0.0430057
0.0572569
-0.0219089
0.0656099
-0.0649562
0.053089
0.0378114
0.0324996
0.0458305
0.0821393
0.0642356
0.0496011
0.0749853
0.0713403
0.0973016
-0.0201309
0.0256891
0.0132232
0.0308598
0.0729575
0.0432632
0.0285317
0.0760178
0.0394387
0.0596251
0.136553
0.103675
0.0989507
0.112638
-0.00486406
-0.000663152
0.0124429
0.0386768
-0.00550881
0.0273711
0.0762535
0.0586504
0.151
0.0937137
0.0169427
0.0714702
0.11441
0.149077
0.091825
0.0977733
0.0769517
0.0295061
0.133814
0.0477315
0.0376695
0.0510746
0.0518033
0.0705518
0.0455355
0.0453856
0.0741637
0.035124
0.0483255
0.0663724
0.122315
0.0642457
0.0553904
0.0940039
0.0741559
0.0708542
0.0724023
0.00719374
0.0284253
0.0720483
0.0900974
-0.0292834
0.0131955
0.0760982
0.0341729
-0.00835898
-0.0227496
-0.00702719
0.05573
0.0574564
0.0764072
0.051854
0.0402122
-0.000859631
-0.000880779
0.0140125
-1.54611e-05
0.055409
0.0706746
0.0704774
0.151345
0.0825357
0.0505609
0.0609109
-0.000548248
0.0655961
0.0430553
0.169932
0.106041
0.0221981
0.07564
0.0291832
0.0711582
0.0189294
0.00172202
0.046258
0.0711759
0.0787126
0.192165
0.0647398
0.10816
-0.0068391
0.0714823
0.0539549
0.112755
0.120669
0.0885695
0.0716694
0.0675738
0.068337
0.0719108
0.0711681
0.06
0.0130043
0.0712098
0.0765205
0.0752187
-0.372207
0.139394
0.068272
0.0714724
0.0210353
0.0300475
0.0384336
0.0952412
0.0311533
0.0708621
0.0646849
0.0126906
0.0718343
0.0263705
0.109287
0.0900665
0.0702027
0.0234757
0.0716752
0.0577539
0.0564464
0.0645411
0.00441352
0.0780066
0.0537844
0.0522216
0.13098
0.100804
0.071171
0.0715539
0.0576033
0.0474019
0.0258789
0.036601
0.0586968
0.01815
0.0994809
0.0719191
0.0600098
0.0114205
0.0648868
0.104286
0.0834838
0.0730607
0.171993
0.0367408
0.14659
0.163666
0.0446742
-0.00381202
-0.000610122
0.145127
0.0635409
0.0174612
0.0929535
0.0563359
0.0374281
0.106329
0.0909737
0.0719842
0.00790703
0.047132
0.0468768
0.0596857
0.010571
0.0726473
0.0993144
0.0724979
0.0750808
0.104724
0.0761977
0.0654509
0.124561
0.0161447
0.110679
0.0476359
0.0915697
0.0176424
0.0807699
0.0216686
0.0723313
0.0503406
0.0191355
0.0866534
0.0421596
0.0722841
0.0615613
0.0280377
0.0627792
0.0544454
0.0754235
0.0560289
0.0379179
0.00578686
0.114225
0.124351
0.11911
0.0606185
0.0644871
0.0574495
0.0334155
0.0460775
0.0717353
0.0752807
0.0890862
0.0405174
0.0766264
0.013182
0.0510552
0.0763641
0.0521517
0.0512286
0.0621169
0.0496725
0.0583227
0.155518
0.292322
0.0375872
0.0459046
0.0483568
0.0532731
0.0629603
0.0581548
0.0567395
0.0386139
0.0248663
0.0705166
0.0714629
0.0706485
0.0145079
0.0712703
0.0472527
0.064456
0.0469347
0.0788883
0.0532367
0.142385
0.00272231
0.0710808
0.0509721
0.109787
0.0612554
0.0791409
0.106713
0.0750876
0.0712013
0.0453568
0.0143401
0.103378
0.0138224
0.134608
0.100777
0.0100149
0.0835505
0.0869271
0.0212815
0.0629194
0.0700919
0.0724246
0.0568179
0.0710901
0.0518449
-0.0196409
0.0704971
0.099443
0.0635912
0.0827142
0.083379
0.182108
0.076202
0.0619594
0.0109737
0.0255689
0.105827
0.0469667
0.102773
0.0722351
0.0580324
0.0847693
0.0647795
0.0499656
0.0719396
0.0722427
0.051673
0.0710392
0.0544263
0.0797487
0.0980239
0.0272676
0.0708825
0.014011
0.0108262
0.0872989
0.0768412
0.0723307
0.0874034
0.151229
0.0714477
0.0592745
0.0676292
0.0796799
0.0601221
0.0554464
0.0611528
0.093431
0.102309
0.0495564
0.0982693
0.109036
0.0795403
0.127716
0.0767847
0.0959972
0.0461041
0.0627288
0.0386671
0.0719893
0.0833312
0.0725217
0.102692
0.00794825
0.0739572
-0.00199256
0.0667258
0.0427235
0.137347
0.0158576
0.0676013
0.0711999
0.0158136
0.126727
0.0424293
0.0453281
0.028768
0.0632964
0.0986677
0.0587616
0.0701538
0.0566362
0.0166272
0.0650705
0.0607764
0.429515
0.0614172
0.0725438
0.0782293
0.084358
0.0634673
0.0511035
0.0714661
0.121623
0.058782
0.0714557
0.0254101
0.0576133
0.0483104
0.0602822
0.0831154
0.0649268
0.0652912
0.0646264
0.054246
0.0991564
0.071485
0.0598609
0.0756533
0.0645181
0.0624425
0.0762486
0.0751943
0.0788825
0.0794556
0.07152
0.0640116
0.0718359
0.0453058
-0.00140453
-0.000197441
0.167364
0.0938293
0.0012324
0.0508637
0.0708612
0.0734349
0.0781082
0.0931269
0.0716968
0.0450137
0.0936773
0.0760484
0.0418163
-0.000176729
0.035955
0.0708559
0.0586434
0.0713898
0.113283
0.264584
0.0614798
0.0764487
0.0589004
0.0104967
0.0711947
0.0916422
0.0429417
0.0667918
0.0718223
0.0535699
0.116182
0.0569149
0.0756948
0.0415164
0.0617204
0.0644178
0.107087
0.078857
0.0616825
0.0729639
0.0604826
0.0758506
0.0595028
0.0716709
0.0580593
0.0713081
0.0754781
0.0211374
0.0878539
0.0308505
0.0917387
0.0929867
0.0742943
0.0603903
0.0565211
0.0963385
0.111369
0.0216646
0.0642116
0.073491
0.0780482
0.0589143
0.0701464
0.0649038
0.05309
0.0437202
0.0438793
0.0668828
0.0254303
0.0617546
0.0986831
0.0598547
0.0630531
0.055069
0.0383658
0.103296
0.0736242
-0.000179847
0.0617255
0.0642692
0.0204641
0.0736763
0.00107918
0.0730949
0.0642334
0.0665968
0.0684654
0.0721191
0.064012
0.0105576
0.0714691
0.0359123
0.0900123
0.0732387
0.0767592
0.0544005
0.115422
0.0800563
0.0717329
0.05589
-0.0423163
0.0715307
0.011179
-0.0528336
0.0848812
0.104653
0.0743128
0.0607383
0.0452984
0.0908311
0.0782192
0.0710835
0.109256
0.0209318
0.0998295
0.0714824
0.0710925
0.0637301
0.0655213
0.066119
0.085161
0.0928736
0.0657456
-0.00171448
0.0688776
0.0743564
0.0613582
0.0485391
0.000569629
0.0710707
0.0647884
0.0391778
0.0668381
0.0664798
0.0732314
0.148777
0.0895119
0.0717865
0.0812924
0.0731941
0.064316
0.0913545
0.0792603
0.0647513
0.081887
0.0586034
0.0817518
0.102903
0.0140138
0.0387763
0.0718604
0.0883815
0.0690517
0.0732867
0.0724374
0.0620595
0.0059827
0.00120992
0.0785418
0.0551176
0.058386
0.0434752
0.070618
0.0705384
0.0717785
0.0875841
0.0568775
0.0715159
0.0643876
0.0745476
0.0397785
0.0246738
0.0714961
0.0711396
0.0580551
0.0688245
0.0699475
0.0630824
0.0666234
0.0618541
0.0860497
0.080944
0.0519728
0.069494
0.0732777
0.0760723
0.0649987
0.0714779
0.0635197
0.0498791
0.00538145
0.0111193
0.058097
0.143179
0.0653247
-0.0418946
0.106084
0.0649568
0.0642482
0.0739033
0.0695482
0.0714916
0.0702794
0.0759401
0.0644107
0.0725815
0.0709253
0.112767
0.0135463
0.0511912
0.0716167
0.074895
0.0830402
0.0895652
0.0523687
0.0731433
0.0714388
0.0702775
0.0659913
0.0436925
0.0417534
0.0165595
0.0806448
0.0698674
0.0656499
0.075219
0.07425
0.0743519
0.0693079
0.0775905
0.0715309
0.0278312
-0.00573091
0.0709975
0.0855801
0.0647088
0.0661512
0.0679825
0.0723937
-0.0259015
0.0824645
0.00269655
0.0640985
0.0178504
0.0727657
0.0872155
0.147862
0.0753041
0.0716429
0.0492855
0.0379226
0.132168
0.0660682
0.0858562
0.0662785
0.071166
0.082346
0.0694832
0.144457
0.000528054
0.0971161
0.073943
0.0694111
0.0715098
0.0692048
-0.0140876
0.0613204
0.0711187
0.0770198
0.0701758
0.0710787
0.0710879
0.0213563
0.00934049
0.075102
0.0704939
0.101088
0.0747563
0.118362
0.422122
0.0385581
0.0644663
0.0935892
0.0697261
-0.0263114
0.0715007
0.0696342
0.139439
0.389916
0.0168528
0.0713054
0.179919
0.0542735
0.0685926
0.0684841
0.0368749
0.0711089
0.0796142
0.229992
0.0811872
0.0735289
0.070621
0.123118
0.0682038
0.0893211
0.071716
0.0733897
0.0691554
0.000248492
0.0913726