/*--------------------------------*- C++ -*----------------------------------*\
  =========                 |
  \\      /  F ield         | OpenFOAM: The Open Source CFD Toolbox
   \\    /   O peration     | Website:  https://openfoam.org
    \\  /    A nd           | Version:  7
     \\/     M anipulation  |
\*---------------------------------------------------------------------------*/
FoamFile
{
    version     2.0;
    format      ascii;
    class       volVectorField;
    location    "8";
    object      U;
}
// * * * * * * * * * * * * * * * * * * * * * * * * * * * * * * * * * * * * * //

dimensions      [0 1 -1 0 0 0 0];

internalField   nonuniform List<vector> 
2413
(
(1.58755 0.265369 0)
(1.58524 0.257189 0)
(1.5844 0.248463 0)
(1.58659 0.235461 0)
(1.5908 0.220388 0)
(1.59805 0.201973 0)
(1.60711 0.181452 0)
(1.613 0.170072 0)
(1.6588 0.259431 0)
(1.65124 0.255893 0)
(1.64584 0.254392 0)
(1.64192 0.251316 0)
(1.64071 0.24287 0)
(1.64256 0.232896 0)
(1.6484 0.217781 0)
(1.65447 0.204075 0)
(1.74283 0.287078 0)
(1.73497 0.281837 0)
(1.72776 0.282623 0)
(1.71952 0.285877 0)
(1.71272 0.281918 0)
(1.70935 0.27381 0)
(1.70969 0.262741 0)
(1.71171 0.250392 0)
(1.82398 0.283151 0)
(1.81997 0.277355 0)
(1.81496 0.27872 0)
(1.80872 0.284815 0)
(1.80201 0.284366 0)
(1.79688 0.27982 0)
(1.79263 0.277825 0)
(1.78971 0.272688 0)
(1.87744 0.292207 0)
(1.87962 0.283887 0)
(1.87923 0.281875 0)
(1.87859 0.285999 0)
(1.87889 0.282075 0)
(1.877 0.278353 0)
(1.87358 0.281188 0)
(1.86962 0.283139 0)
(1.90053 0.302866 0)
(1.90633 0.296882 0)
(1.90996 0.293934 0)
(1.91413 0.294266 0)
(1.92183 0.287051 0)
(1.92607 0.278946 0)
(1.92719 0.280879 0)
(1.92836 0.28045 0)
(1.90524 0.309989 0)
(1.91175 0.306604 0)
(1.91716 0.304743 0)
(1.92384 0.302663 0)
(1.93292 0.297044 0)
(1.9401 0.291035 0)
(1.94547 0.289409 0)
(1.95331 0.2836 0)
(1.90366 0.316133 0)
(1.90953 0.313495 0)
(1.91674 0.309435 0)
(1.92337 0.306454 0)
(1.93036 0.303619 0)
(1.93857 0.298016 0)
(1.94542 0.294298 0)
(1.95323 0.289838 0)
(1.89914 0.323693 0)
(1.90644 0.319943 0)
(1.91233 0.317641 0)
(1.91834 0.315419 0)
(1.92526 0.311796 0)
(1.93278 0.306703 0)
(1.93848 0.303931 0)
(1.94496 0.299803 0)
(1.89545 0.330983 0)
(1.90307 0.326801 0)
(1.90798 0.324824 0)
(1.91447 0.321908 0)
(1.92095 0.318317 0)
(1.92651 0.315607 0)
(1.93267 0.312021 0)
(1.93882 0.307518 0)
(1.89237 0.343664 0)
(1.89943 0.339398 0)
(1.90453 0.336651 0)
(1.90999 0.333752 0)
(1.91703 0.329448 0)
(1.92126 0.326914 0)
(1.9278 0.322845 0)
(1.93327 0.3183 0)
(1.88978 0.359008 0)
(1.89621 0.35555 0)
(1.90159 0.352843 0)
(1.90735 0.349552 0)
(1.91355 0.34591 0)
(1.91788 0.343043 0)
(1.92345 0.339221 0)
(1.92879 0.334774 0)
(1.8877 0.368607 0)
(1.89358 0.367098 0)
(1.89932 0.365173 0)
(1.90524 0.363193 0)
(1.91089 0.361405 0)
(1.91569 0.359254 0)
(1.9205 0.356645 0)
(1.92525 0.353998 0)
(1.88704 0.367565 0)
(1.89284 0.366924 0)
(1.89878 0.365959 0)
(1.90463 0.365825 0)
(1.90993 0.36568 0)
(1.91482 0.364942 0)
(1.9195 0.364128 0)
(1.92376 0.363629 0)
(1.88662 0.361767 0)
(1.89247 0.36156 0)
(1.89849 0.360811 0)
(1.90444 0.361323 0)
(1.90984 0.361727 0)
(1.91497 0.361515 0)
(1.91974 0.361372 0)
(1.92419 0.361669 0)
(1.88661 0.351791 0)
(1.89257 0.352259 0)
(1.89853 0.352112 0)
(1.90409 0.353855 0)
(1.9097 0.354427 0)
(1.91497 0.354708 0)
(1.91997 0.354601 0)
(1.92438 0.355633 0)
(1.89033 0.329522 0)
(1.89569 0.332478 0)
(1.90072 0.335034 0)
(1.906 0.337704 0)
(1.91103 0.340605 0)
(1.91596 0.341876 0)
(1.92065 0.343034 0)
(1.92491 0.345106 0)
(1.89977 0.284432 0)
(1.90375 0.292009 0)
(1.90797 0.29799 0)
(1.91163 0.304953 0)
(1.91616 0.310103 0)
(1.92045 0.314209 0)
(1.92448 0.318017 0)
(1.92865 0.321396 0)
(1.91379 0.217723 0)
(1.91684 0.227405 0)
(1.91955 0.237011 0)
(1.92236 0.246601 0)
(1.92548 0.255425 0)
(1.92892 0.262671 0)
(1.93231 0.269333 0)
(1.93537 0.2763 0)
(2.02097 -0.0898883 0)
(2.01321 -0.0881774 0)
(2.00536 -0.0869708 0)
(1.99781 -0.0864528 0)
(1.99013 -0.0858914 0)
(1.98275 -0.0849252 0)
(1.97597 -0.0829792 0)
(1.96903 -0.0822055 0)
(1.96201 -0.0809313 0)
(1.95547 -0.0774876 0)
(1.9506 -0.074558 0)
(1.94565 -0.0741338 0)
(1.94088 -0.0724482 0)
(1.9363 -0.0687389 0)
(1.93252 -0.0670144 0)
(1.92852 -0.0663863 0)
(1.92409 -0.064331 0)
(1.92019 -0.0618457 0)
(1.91626 -0.0611628 0)
(1.61986 0.155603 0)
(1.62634 0.141882 0)
(1.63121 0.133458 0)
(1.63658 0.12166 0)
(1.64089 0.115569 0)
(1.64487 0.107688 0)
(1.65254 0.0921902 0)
(1.6578 0.0827997 0)
(1.66453 0.0719407 0)
(1.67425 0.0560643 0)
(1.68003 0.0457534 0)
(1.69059 0.0324258 0)
(1.70055 0.0177138 0)
(1.7082 0.00610855 0)
(1.7222 -0.00900209 0)
(1.7304 -0.0223556 0)
(1.74557 -0.0383075 0)
(1.75633 -0.0535679 0)
(1.7708 -0.0714094 0)
(1.78976 -0.0922295 0)
(1.80105 -0.108365 0)
(1.81912 -0.125763 0)
(1.83301 -0.144074 0)
(1.84857 -0.158343 0)
(1.85807 -0.164757 0)
(1.86418 -0.167191 0)
(1.86699 -0.164854 0)
(1.86736 -0.156343 0)
(1.86498 -0.144043 0)
(1.86096 -0.130275 0)
(1.85841 -0.114144 0)
(1.85839 -0.100319 0)
(1.85953 -0.0870529 0)
(1.86221 -0.0736113 0)
(1.86663 -0.0651494 0)
(1.87169 -0.06133 0)
(1.87709 -0.0597367 0)
(1.8818 -0.0612893 0)
(1.88618 -0.0639199 0)
(1.89139 -0.0635063 0)
(1.89712 -0.0607631 0)
(1.90206 -0.0599396 0)
(1.90642 -0.0599161 0)
(1.91056 -0.0571682 0)
(1.91456 -0.0530711 0)
(1.91848 -0.0506873 0)
(1.92263 -0.048757 0)
(1.92713 -0.045081 0)
(1.93197 -0.0407914 0)
(1.93682 -0.0391885 0)
(1.94162 -0.0385742 0)
(1.9469 -0.0372009 0)
(1.95259 -0.0357326 0)
(1.9582 -0.0344667 0)
(1.96378 -0.0336565 0)
(1.96973 -0.0330141 0)
(1.97631 -0.0322808 0)
(1.98337 -0.0308479 0)
(1.9907 -0.0293614 0)
(1.99808 -0.0284251 0)
(2.00558 -0.0277107 0)
(2.01346 -0.0268428 0)
(2.02148 -0.0280122 0)
(2.02969 -0.0306978 0)
(2.03834 -0.0317959 0)
(2.04728 -0.0322319 0)
(2.05551 -0.0355604 0)
(2.06334 -0.0405687 0)
(2.07146 -0.043714 0)
(2.0794 -0.0467072 0)
(2.08648 -0.0510888 0)
(2.09292 -0.0554454 0)
(2.09865 -0.0604617 0)
(2.10315 -0.0665904 0)
(2.10657 -0.0716266 0)
(2.10916 -0.0759478 0)
(2.11077 -0.0809577 0)
(2.11117 -0.0857089 0)
(2.11063 -0.0893569 0)
(2.10979 -0.0921286 0)
(2.10865 -0.0940375 0)
(2.10678 -0.0958494 0)
(2.10432 -0.0973861 0)
(2.10162 -0.0984582 0)
(2.09878 -0.0993494 0)
(2.09578 -0.0999541 0)
(2.09269 -0.100302 0)
(2.08963 -0.100463 0)
(2.08653 -0.100024 0)
(2.08323 -0.0993266 0)
(2.07957 -0.0992044 0)
(2.0755 -0.0997108 0)
(2.0711 -0.100268 0)
(2.06653 -0.0999356 0)
(2.06224 -0.097879 0)
(2.05889 -0.0951533 0)
(2.05589 -0.0925233 0)
(2.05215 -0.0898295 0)
(2.04768 -0.0871397 0)
(2.04183 -0.0852169 0)
(2.03446 -0.0843895 0)
(2.02678 -0.0838829 0)
(2.01948 -0.0832652 0)
(2.01202 -0.0822974 0)
(2.00445 -0.0816171 0)
(1.99718 -0.0811237 0)
(1.99004 -0.0804426 0)
(1.98347 -0.078462 0)
(1.977 -0.0773167 0)
(1.97027 -0.0763379 0)
(1.96356 -0.0735651 0)
(1.95845 -0.0703068 0)
(1.9535 -0.0694115 0)
(1.94875 -0.0679141 0)
(1.9437 -0.0641829 0)
(1.93977 -0.0619263 0)
(1.93577 -0.0613457 0)
(1.93146 -0.0597313 0)
(1.92767 -0.0574669 0)
(1.92405 -0.0566222 0)
(1.66079 0.191456 0)
(1.66746 0.17623 0)
(1.6718 0.166374 0)
(1.67947 0.150676 0)
(1.68476 0.138944 0)
(1.68876 0.130988 0)
(1.69647 0.116984 0)
(1.70193 0.108779 0)
(1.70677 0.101042 0)
(1.71672 0.0874596 0)
(1.72274 0.0760413 0)
(1.73124 0.0635539 0)
(1.74296 0.0492544 0)
(1.74925 0.0352558 0)
(1.7626 0.0211894 0)
(1.77292 0.00539645 0)
(1.78497 -0.0103739 0)
(1.79541 -0.0253397 0)
(1.81022 -0.0416799 0)
(1.82758 -0.059885 0)
(1.83773 -0.0751468 0)
(1.85511 -0.0933245 0)
(1.87504 -0.112624 0)
(1.88625 -0.130395 0)
(1.90385 -0.143985 0)
(1.9191 -0.157702 0)
(1.93093 -0.171673 0)
(1.94285 -0.177673 0)
(1.95084 -0.177745 0)
(1.95368 -0.173759 0)
(1.95388 -0.165718 0)
(1.9528 -0.155745 0)
(1.95097 -0.144787 0)
(1.94945 -0.130638 0)
(1.95009 -0.116358 0)
(1.95242 -0.104949 0)
(1.95503 -0.0926503 0)
(1.95791 -0.0819129 0)
(1.96077 -0.0775346 0)
(1.96354 -0.0736635 0)
(1.96681 -0.0665498 0)
(1.97105 -0.0625817 0)
(1.97487 -0.0630483 0)
(1.97861 -0.0620226 0)
(1.9823 -0.0587535 0)
(1.9858 -0.0569161 0)
(1.98931 -0.0557927 0)
(1.99312 -0.0526534 0)
(1.99721 -0.047752 0)
(2.00145 -0.0449317 0)
(2.00553 -0.0439339 0)
(2.00979 -0.0413547 0)
(2.01462 -0.0375044 0)
(2.01971 -0.0347493 0)
(2.02466 -0.0336956 0)
(2.02969 -0.0336033 0)
(2.035 -0.0332829 0)
(2.0406 -0.0321389 0)
(2.04655 -0.0316634 0)
(2.05255 -0.0324858 0)
(2.0585 -0.0333921 0)
(2.06463 -0.0338434 0)
(2.07081 -0.0359646 0)
(2.07717 -0.0392285 0)
(2.08374 -0.0399585 0)
(2.09069 -0.0393659 0)
(2.09696 -0.0424719 0)
(2.10256 -0.0484683 0)
(2.10828 -0.0530676 0)
(2.11352 -0.0568707 0)
(2.11782 -0.0615139 0)
(2.12149 -0.0661145 0)
(2.12454 -0.0703647 0)
(2.12646 -0.0746347 0)
(2.12725 -0.078154 0)
(2.12731 -0.0808563 0)
(2.1266 -0.08359 0)
(2.12474 -0.0861737 0)
(2.12192 -0.0882952 0)
(2.1188 -0.0900818 0)
(2.11571 -0.0912113 0)
(2.11249 -0.0917431 0)
(2.10905 -0.0923319 0)
(2.10556 -0.0931832 0)
(2.10217 -0.0937688 0)
(2.09884 -0.0941488 0)
(2.09553 -0.0946597 0)
(2.09225 -0.0950835 0)
(2.089 -0.0952148 0)
(2.08584 -0.0949144 0)
(2.08269 -0.0940349 0)
(2.07927 -0.0929779 0)
(2.07542 -0.0923018 0)
(2.07147 -0.0916443 0)
(2.06804 -0.0900627 0)
(2.0655 -0.0869938 0)
(2.06306 -0.0830376 0)
(2.05906 -0.0803091 0)
(2.0532 -0.0792263 0)
(2.04672 -0.0788669 0)
(2.03991 -0.0788554 0)
(2.03259 -0.0792047 0)
(2.02518 -0.0789601 0)
(2.0172 -0.0784276 0)
(2.0106 -0.0781302 0)
(2.0035 -0.0778575 0)
(1.99659 -0.0773539 0)
(1.99024 -0.0756142 0)
(1.98415 -0.0744684 0)
(1.9778 -0.0736425 0)
(1.9712 -0.071108 0)
(1.96589 -0.0675333 0)
(1.96101 -0.066279 0)
(1.95639 -0.0650557 0)
(1.95118 -0.0615409 0)
(1.94705 -0.0589106 0)
(1.94302 -0.0584198 0)
(1.93878 -0.0570867 0)
(1.93472 -0.0545674 0)
(1.93123 -0.0531281 0)
(1.71501 0.239455 0)
(1.72075 0.224901 0)
(1.7252 0.212236 0)
(1.73267 0.197775 0)
(1.73777 0.186387 0)
(1.74145 0.174397 0)
(1.75208 0.154688 0)
(1.75885 0.140527 0)
(1.76331 0.12871 0)
(1.77468 0.112518 0)
(1.78223 0.0962683 0)
(1.78896 0.0815565 0)
(1.80189 0.0679476 0)
(1.8087 0.0526479 0)
(1.81859 0.0382133 0)
(1.83182 0.0258857 0)
(1.84044 0.0106567 0)
(1.85036 -0.0050115 0)
(1.86527 -0.0165923 0)
(1.87962 -0.0318532 0)
(1.88742 -0.047914 0)
(1.90415 -0.0648841 0)
(1.92228 -0.0803687 0)
(1.93327 -0.0980079 0)
(1.9454 -0.11545 0)
(1.9653 -0.129915 0)
(1.97933 -0.148627 0)
(1.99073 -0.16435 0)
(2.00598 -0.172991 0)
(2.01586 -0.181034 0)
(2.02441 -0.185459 0)
(2.03003 -0.185069 0)
(2.03239 -0.1803 0)
(2.03246 -0.172173 0)
(2.03174 -0.162887 0)
(2.03058 -0.153912 0)
(2.0289 -0.143668 0)
(2.02765 -0.130885 0)
(2.02776 -0.119873 0)
(2.02799 -0.110063 0)
(2.02799 -0.0979965 0)
(2.02937 -0.0877191 0)
(2.03159 -0.0825131 0)
(2.03332 -0.0766086 0)
(2.03513 -0.0684111 0)
(2.03801 -0.0640196 0)
(2.04089 -0.0633666 0)
(2.0437 -0.0612405 0)
(2.04661 -0.0565543 0)
(2.04993 -0.0539628 0)
(2.05292 -0.054144 0)
(2.05609 -0.0543229 0)
(2.0597 -0.052948 0)
(2.06343 -0.0512322 0)
(2.06702 -0.0500515 0)
(2.07072 -0.049399 0)
(2.07468 -0.0492582 0)
(2.07868 -0.04902 0)
(2.08272 -0.0481243 0)
(2.08702 -0.04708 0)
(2.09142 -0.0462811 0)
(2.09607 -0.0454747 0)
(2.10095 -0.0464098 0)
(2.10568 -0.0498356 0)
(2.11049 -0.0522767 0)
(2.11539 -0.0522713 0)
(2.12006 -0.0540717 0)
(2.12389 -0.0586926 0)
(2.12754 -0.061936 0)
(2.13056 -0.0633825 0)
(2.13273 -0.0656577 0)
(2.13436 -0.0688288 0)
(2.13553 -0.0712975 0)
(2.13577 -0.0736215 0)
(2.13495 -0.0766672 0)
(2.13349 -0.0794869 0)
(2.13131 -0.0808737 0)
(2.12817 -0.0815102 0)
(2.12421 -0.0826056 0)
(2.11996 -0.0840748 0)
(2.11585 -0.08521 0)
(2.11188 -0.0860826 0)
(2.1081 -0.0869176 0)
(2.10457 -0.0876488 0)
(2.10127 -0.0883039 0)
(2.09814 -0.0889527 0)
(2.09517 -0.0895268 0)
(2.0923 -0.0898742 0)
(2.08947 -0.0900752 0)
(2.08672 -0.0897373 0)
(2.08407 -0.0885504 0)
(2.08157 -0.0869269 0)
(2.07914 -0.0855775 0)
(2.07667 -0.0843113 0)
(2.07435 -0.0822242 0)
(2.0722 -0.0793296 0)
(2.06816 -0.0771125 0)
(2.06272 -0.0763987 0)
(2.05738 -0.0758938 0)
(2.05126 -0.0747854 0)
(2.04418 -0.0743469 0)
(2.03702 -0.0750524 0)
(2.02985 -0.0750681 0)
(2.0223 -0.0746175 0)
(2.01626 -0.0742602 0)
(2.0094 -0.0738842 0)
(2.00276 -0.0732587 0)
(1.99659 -0.0713461 0)
(1.99072 -0.0702036 0)
(1.98468 -0.0694514 0)
(1.97822 -0.0670113 0)
(1.97292 -0.0635517 0)
(1.96805 -0.0623201 0)
(1.96338 -0.0611585 0)
(1.95798 -0.0577937 0)
(1.95361 -0.0548482 0)
(1.94948 -0.0541034 0)
(1.94534 -0.0528499 0)
(1.94118 -0.050248 0)
(1.93774 -0.0486728 0)
(1.79069 0.263103 0)
(1.79363 0.253541 0)
(1.79782 0.24101 0)
(1.80378 0.22646 0)
(1.80781 0.21738 0)
(1.8115 0.205855 0)
(1.82118 0.185859 0)
(1.82744 0.172393 0)
(1.83121 0.162221 0)
(1.84191 0.145997 0)
(1.85103 0.128681 0)
(1.8557 0.115095 0)
(1.86725 0.10182 0)
(1.87709 0.0856652 0)
(1.8821 0.0692247 0)
(1.89519 0.0570681 0)
(1.90579 0.0411155 0)
(1.91085 0.0231755 0)
(1.92513 0.0116208 0)
(1.93875 -0.00176277 0)
(1.94421 -0.0183648 0)
(1.95692 -0.0351169 0)
(1.97137 -0.044704 0)
(1.98535 -0.060829 0)
(1.9907 -0.0751943 0)
(2.00623 -0.0913867 0)
(2.02172 -0.108033 0)
(2.02752 -0.120181 0)
(2.04336 -0.133686 0)
(2.05377 -0.14704 0)
(2.0646 -0.158522 0)
(2.07422 -0.168001 0)
(2.08073 -0.17463 0)
(2.0861 -0.177534 0)
(2.0894 -0.177511 0)
(2.09037 -0.173742 0)
(2.08962 -0.167831 0)
(2.08771 -0.16096 0)
(2.08532 -0.152742 0)
(2.08253 -0.143613 0)
(2.07941 -0.133085 0)
(2.07742 -0.122005 0)
(2.07676 -0.113359 0)
(2.07601 -0.105359 0)
(2.0752 -0.0953546 0)
(2.076 -0.087035 0)
(2.07755 -0.0820793 0)
(2.07881 -0.0767047 0)
(2.07989 -0.0691476 0)
(2.08204 -0.0639289 0)
(2.08421 -0.0625989 0)
(2.08631 -0.0610843 0)
(2.08824 -0.0565714 0)
(2.09085 -0.0520384 0)
(2.09351 -0.0501706 0)
(2.09615 -0.0496168 0)
(2.09902 -0.0484418 0)
(2.10191 -0.047138 0)
(2.10457 -0.0467699 0)
(2.10733 -0.0468131 0)
(2.11049 -0.0471035 0)
(2.1139 -0.0477552 0)
(2.11722 -0.0493654 0)
(2.12047 -0.0516485 0)
(2.12368 -0.0523828 0)
(2.12718 -0.0513625 0)
(2.13084 -0.052367 0)
(2.1332 -0.0567206 0)
(2.13529 -0.0600915 0)
(2.13676 -0.0618135 0)
(2.1373 -0.0646902 0)
(2.1375 -0.0678569 0)
(2.13734 -0.0692415 0)
(2.13657 -0.070391 0)
(2.13492 -0.0726893 0)
(2.13269 -0.0745441 0)
(2.12963 -0.07474 0)
(2.12597 -0.0742266 0)
(2.12192 -0.0746557 0)
(2.11754 -0.0760272 0)
(2.11319 -0.0772683 0)
(2.10899 -0.078185 0)
(2.10518 -0.079095 0)
(2.10189 -0.0800009 0)
(2.09897 -0.0808179 0)
(2.09632 -0.0817172 0)
(2.09395 -0.082711 0)
(2.09182 -0.0834652 0)
(2.0898 -0.0835386 0)
(2.08784 -0.082888 0)
(2.08606 -0.081636 0)
(2.0846 -0.0797428 0)
(2.08334 -0.0777639 0)
(2.08192 -0.0760242 0)
(2.08009 -0.0742188 0)
(2.07629 -0.072757 0)
(2.07102 -0.0723068 0)
(2.06598 -0.0720142 0)
(2.06019 -0.0714594 0)
(2.05371 -0.0707832 0)
(2.04552 -0.071514 0)
(2.0391 -0.0728571 0)
(2.03257 -0.0727038 0)
(2.02568 -0.0722872 0)
(2.01975 -0.0720503 0)
(2.01335 -0.0716721 0)
(2.0071 -0.07096 0)
(2.00139 -0.0690597 0)
(1.99586 -0.0682781 0)
(1.9902 -0.0674779 0)
(1.98395 -0.0646589 0)
(1.97884 -0.06105 0)
(1.97408 -0.0599127 0)
(1.96943 -0.058638 0)
(1.9641 -0.055389 0)
(1.95974 -0.0527599 0)
(1.95552 -0.0522984 0)
(1.95149 -0.0513726 0)
(1.94701 -0.0485539 0)
(1.94339 -0.0461421 0)
(1.8685 0.280152 0)
(1.8699 0.275587 0)
(1.87151 0.271316 0)
(1.87437 0.263638 0)
(1.87744 0.255863 0)
(1.88059 0.246421 0)
(1.88871 0.228239 0)
(1.89532 0.21149 0)
(1.8988 0.200296 0)
(1.90829 0.181756 0)
(1.91912 0.160679 0)
(1.92281 0.147333 0)
(1.93171 0.130993 0)
(1.94324 0.113764 0)
(1.94648 0.0990348 0)
(1.95581 0.0836735 0)
(1.96751 0.0690906 0)
(1.97102 0.05452 0)
(1.97919 0.0397432 0)
(1.9917 0.0285082 0)
(1.9992 0.0131771 0)
(2.0039 -0.00181778 0)
(2.01611 -0.013746 0)
(2.02885 -0.0271407 0)
(2.03375 -0.0397829 0)
(2.04095 -0.0538734 0)
(2.05407 -0.0668041 0)
(2.06142 -0.0798183 0)
(2.06932 -0.0904911 0)
(2.07682 -0.100935 0)
(2.08777 -0.115267 0)
(2.09674 -0.130318 0)
(2.10074 -0.13719 0)
(2.10842 -0.145379 0)
(2.11523 -0.151227 0)
(2.11866 -0.1582 0)
(2.12127 -0.160459 0)
(2.12227 -0.16013 0)
(2.12149 -0.157156 0)
(2.11947 -0.152107 0)
(2.11664 -0.147187 0)
(2.11358 -0.141648 0)
(2.1106 -0.134357 0)
(2.10777 -0.126045 0)
(2.10526 -0.117446 0)
(2.10368 -0.110122 0)
(2.10262 -0.104772 0)
(2.10143 -0.0993426 0)
(2.10054 -0.0921509 0)
(2.10108 -0.0854989 0)
(2.10207 -0.0822758 0)
(2.10271 -0.0807298 0)
(2.10312 -0.0773382 0)
(2.1042 -0.0730209 0)
(2.10588 -0.0706332 0)
(2.10767 -0.0700587 0)
(2.10971 -0.0691049 0)
(2.11178 -0.0669885 0)
(2.11376 -0.0655817 0)
(2.11572 -0.0653747 0)
(2.11811 -0.0651546 0)
(2.12083 -0.0640322 0)
(2.12342 -0.0640338 0)
(2.12537 -0.0659735 0)
(2.1274 -0.0670505 0)
(2.12973 -0.0666751 0)
(2.13221 -0.0674761 0)
(2.13426 -0.069082 0)
(2.13565 -0.069933 0)
(2.13631 -0.0702312 0)
(2.13655 -0.0707321 0)
(2.13635 -0.0713097 0)
(2.13555 -0.0715442 0)
(2.13413 -0.0720458 0)
(2.13212 -0.0727984 0)
(2.12946 -0.0730415 0)
(2.12615 -0.0726133 0)
(2.12249 -0.0719933 0)
(2.11862 -0.0719175 0)
(2.11453 -0.0723948 0)
(2.1104 -0.0730303 0)
(2.10644 -0.0739756 0)
(2.10299 -0.0749956 0)
(2.10009 -0.0754738 0)
(2.09754 -0.0756367 0)
(2.09536 -0.0758655 0)
(2.09368 -0.0760361 0)
(2.09239 -0.0759081 0)
(2.09132 -0.0752995 0)
(2.09044 -0.0739119 0)
(2.08975 -0.0718478 0)
(2.08911 -0.069825 0)
(2.08814 -0.0684039 0)
(2.08639 -0.067705 0)
(2.08317 -0.0673354 0)
(2.07878 -0.0671339 0)
(2.07403 -0.0671393 0)
(2.0689 -0.0674567 0)
(2.06302 -0.067818 0)
(2.05406 -0.0681822 0)
(2.04533 -0.0694004 0)
(2.03996 -0.0702238 0)
(2.03395 -0.0699655 0)
(2.02772 -0.0694215 0)
(2.02232 -0.0691602 0)
(2.01611 -0.0687008 0)
(2.00987 -0.0676524 0)
(2.00422 -0.0655285 0)
(1.9987 -0.0647516 0)
(1.99336 -0.0637579 0)
(1.98748 -0.060433 0)
(1.98284 -0.0570612 0)
(1.97844 -0.0563731 0)
(1.97416 -0.0552908 0)
(1.96874 -0.0518705 0)
(1.96421 -0.0492133 0)
(1.95981 -0.0488129 0)
(1.95545 -0.0476144 0)
(1.95078 -0.0445719 0)
(1.94722 -0.0422635 0)
(1.93056 0.274756 0)
(1.9317 0.271323 0)
(1.93191 0.271985 0)
(1.93323 0.269954 0)
(1.93668 0.264657 0)
(1.94024 0.259199 0)
(1.94561 0.248073 0)
(1.95147 0.234088 0)
(1.95502 0.225275 0)
(1.9607 0.21192 0)
(1.97093 0.193603 0)
(1.97505 0.180849 0)
(1.97929 0.16723 0)
(1.99023 0.150495 0)
(1.99527 0.134947 0)
(1.99806 0.121826 0)
(2.00896 0.106742 0)
(2.01461 0.0921209 0)
(2.01726 0.0791539 0)
(2.02876 0.0630494 0)
(2.03381 0.0503565 0)
(2.03912 0.0375601 0)
(2.04899 0.021214 0)
(2.05365 0.0102488 0)
(2.05928 0.000126774 0)
(2.06636 -0.012531 0)
(2.07416 -0.0273889 0)
(2.07812 -0.0365108 0)
(2.08193 -0.0431522 0)
(2.09064 -0.0558691 0)
(2.09721 -0.0690826 0)
(2.10159 -0.0781139 0)
(2.10546 -0.0853987 0)
(2.11435 -0.0991533 0)
(2.12099 -0.113958 0)
(2.12363 -0.116665 0)
(2.12655 -0.12164 0)
(2.13178 -0.128533 0)
(2.1334 -0.134979 0)
(2.13382 -0.136734 0)
(2.13317 -0.135894 0)
(2.13157 -0.133289 0)
(2.12977 -0.130076 0)
(2.12791 -0.127136 0)
(2.12582 -0.123609 0)
(2.12348 -0.118395 0)
(2.12121 -0.112529 0)
(2.1191 -0.107638 0)
(2.11738 -0.103143 0)
(2.11636 -0.0978875 0)
(2.11598 -0.0935055 0)
(2.11576 -0.090068 0)
(2.11555 -0.0850827 0)
(2.11608 -0.0789903 0)
(2.11736 -0.0756143 0)
(2.11862 -0.0745138 0)
(2.11965 -0.0721686 0)
(2.12073 -0.0684734 0)
(2.12207 -0.0665498 0)
(2.12331 -0.0665342 0)
(2.12473 -0.0669267 0)
(2.12623 -0.0664718 0)
(2.12768 -0.0657752 0)
(2.1289 -0.0662747 0)
(2.13028 -0.0672542 0)
(2.13195 -0.06764 0)
(2.1335 -0.0680596 0)
(2.1347 -0.068506 0)
(2.13559 -0.0692815 0)
(2.13579 -0.0708716 0)
(2.13547 -0.0724959 0)
(2.13478 -0.0736064 0)
(2.13351 -0.0739732 0)
(2.13172 -0.0736473 0)
(2.12951 -0.0732959 0)
(2.12672 -0.0727893 0)
(2.12341 -0.0716731 0)
(2.11989 -0.0703906 0)
(2.11615 -0.0695557 0)
(2.11221 -0.0692821 0)
(2.10831 -0.0692513 0)
(2.10476 -0.0696415 0)
(2.10177 -0.06986 0)
(2.09928 -0.069108 0)
(2.09729 -0.0681132 0)
(2.09586 -0.0675242 0)
(2.09507 -0.0667226 0)
(2.09478 -0.0654091 0)
(2.09473 -0.0639608 0)
(2.09478 -0.0624325 0)
(2.09469 -0.0607031 0)
(2.09391 -0.05923 0)
(2.09193 -0.0588157 0)
(2.08869 -0.0594464 0)
(2.08492 -0.0605415 0)
(2.08111 -0.0614426 0)
(2.07632 -0.0620347 0)
(2.06915 -0.0631883 0)
(2.0607 -0.0655025 0)
(2.05198 -0.0676562 0)
(2.04544 -0.0685029 0)
(2.04081 -0.0686002 0)
(2.03551 -0.068122 0)
(2.03102 -0.0670581 0)
(2.0262 -0.0666205 0)
(2.021 -0.0661484 0)
(2.01518 -0.0646528 0)
(2.01006 -0.0626201 0)
(2.00478 -0.0622946 0)
(1.99965 -0.0615667 0)
(1.99386 -0.0581216 0)
(1.98929 -0.0550892 0)
(1.98481 -0.0547544 0)
(1.9802 -0.0533556 0)
(1.97472 -0.0496054 0)
(1.97023 -0.0470123 0)
(1.9657 -0.0467899 0)
(1.96142 -0.045896 0)
(1.95674 -0.0429444 0)
(1.95309 -0.0404325 0)
(1.9589 0.275986 0)
(1.96107 0.276359 0)
(1.96261 0.277738 0)
(1.96675 0.274176 0)
(1.97053 0.269986 0)
(1.97331 0.26863 0)
(1.97643 0.264417 0)
(1.98241 0.254971 0)
(1.98588 0.24763 0)
(1.98926 0.239143 0)
(1.99757 0.224521 0)
(2.00236 0.210065 0)
(2.00412 0.200497 0)
(2.01155 0.185389 0)
(2.01886 0.167197 0)
(2.02026 0.156288 0)
(2.02553 0.14278 0)
(2.03459 0.124481 0)
(2.03756 0.111848 0)
(2.04005 0.102501 0)
(2.04881 0.0869864 0)
(2.05514 0.0702665 0)
(2.0572 0.063007 0)
(2.06044 0.0540098 0)
(2.06954 0.0380069 0)
(2.07438 0.0233625 0)
(2.07562 0.0190114 0)
(2.07923 0.0110523 0)
(2.08716 -0.00394317 0)
(2.09157 -0.015323 0)
(2.09311 -0.0197696 0)
(2.09761 -0.0287361 0)
(2.10454 -0.0430068 0)
(2.10866 -0.05126 0)
(2.11062 -0.0549487 0)
(2.11496 -0.0634525 0)
(2.12174 -0.0763173 0)
(2.12628 -0.0889836 0)
(2.12767 -0.0913684 0)
(2.12801 -0.0938323 0)
(2.13287 -0.100419 0)
(2.13437 -0.106766 0)
(2.13454 -0.111607 0)
(2.13465 -0.112073 0)
(2.13373 -0.110624 0)
(2.13252 -0.108666 0)
(2.13122 -0.107294 0)
(2.12996 -0.105976 0)
(2.12874 -0.103826 0)
(2.12741 -0.100069 0)
(2.1263 -0.0965779 0)
(2.12523 -0.0950379 0)
(2.12417 -0.093223 0)
(2.12348 -0.0894831 0)
(2.12384 -0.0864149 0)
(2.12444 -0.0852834 0)
(2.12463 -0.0834747 0)
(2.12465 -0.0797545 0)
(2.12552 -0.0768158 0)
(2.1265 -0.0764673 0)
(2.1274 -0.076091 0)
(2.128 -0.0735634 0)
(2.12908 -0.0715891 0)
(2.12987 -0.0720518 0)
(2.13073 -0.0725476 0)
(2.1317 -0.0718355 0)
(2.13268 -0.0712945 0)
(2.13333 -0.0711981 0)
(2.13392 -0.0713179 0)
(2.13424 -0.0711908 0)
(2.13383 -0.0710229 0)
(2.13283 -0.0709011 0)
(2.13123 -0.0706591 0)
(2.12925 -0.0700513 0)
(2.12702 -0.0692491 0)
(2.12441 -0.0685455 0)
(2.12143 -0.067607 0)
(2.11834 -0.0662701 0)
(2.11515 -0.0651419 0)
(2.11177 -0.0645476 0)
(2.10838 -0.0641177 0)
(2.10532 -0.0640583 0)
(2.10286 -0.06388 0)
(2.10102 -0.0625109 0)
(2.09992 -0.0608388 0)
(2.09946 -0.059502 0)
(2.09944 -0.0576721 0)
(2.09963 -0.0552426 0)
(2.09974 -0.0531533 0)
(2.09947 -0.0517745 0)
(2.09852 -0.0509887 0)
(2.09645 -0.0509739 0)
(2.09378 -0.0514694 0)
(2.09112 -0.0528421 0)
(2.08632 -0.0551785 0)
(2.08017 -0.0577692 0)
(2.07345 -0.0596861 0)
(2.0659 -0.061904 0)
(2.05775 -0.0648802 0)
(2.0513 -0.0664786 0)
(2.0471 -0.0664686 0)
(2.04245 -0.0662515 0)
(2.03811 -0.0659259 0)
(2.03382 -0.0651814 0)
(2.02945 -0.0645202 0)
(2.02469 -0.0642002 0)
(2.01958 -0.0624557 0)
(2.01515 -0.0600142 0)
(2.01054 -0.0596132 0)
(2.00585 -0.0590697 0)
(2.00005 -0.0554925 0)
(1.9954 -0.0523309 0)
(1.99068 -0.0519543 0)
(1.98569 -0.0504923 0)
(1.97999 -0.0465181 0)
(1.97556 -0.0437093 0)
(1.971 -0.0436066 0)
(1.96678 -0.0427453 0)
(1.96188 -0.0394763 0)
(1.95806 -0.0367305 0)
(1.96057 0.283592 0)
(1.96469 0.281127 0)
(1.97057 0.276326 0)
(1.97574 0.270715 0)
(1.97874 0.269758 0)
(1.9824 0.268131 0)
(1.98664 0.263914 0)
(1.99112 0.257928 0)
(1.9943 0.253068 0)
(1.99648 0.248624 0)
(2.00107 0.241299 0)
(2.00495 0.233166 0)
(2.00722 0.225361 0)
(2.01167 0.213763 0)
(2.01464 0.202974 0)
(2.01775 0.192699 0)
(2.02383 0.178832 0)
(2.02762 0.167381 0)
(2.03056 0.157095 0)
(2.03752 0.141367 0)
(2.043 0.126506 0)
(2.04451 0.119711 0)
(2.04848 0.109429 0)
(2.05762 0.0911084 0)
(2.06208 0.077994 0)
(2.06271 0.0741257 0)
(2.06727 0.0644367 0)
(2.07469 0.0483498 0)
(2.07783 0.0399251 0)
(2.07775 0.0379745 0)
(2.08282 0.0280686 0)
(2.08935 0.0130471 0)
(2.09187 0.00617117 0)
(2.09247 0.00221907 0)
(2.0984 -0.00905774 0)
(2.10504 -0.0241813 0)
(2.10879 -0.0318987 0)
(2.10996 -0.0348109 0)
(2.1153 -0.0445742 0)
(2.12238 -0.0592095 0)
(2.12616 -0.0695172 0)
(2.12702 -0.0706889 0)
(2.12835 -0.0742673 0)
(2.13298 -0.0819371 0)
(2.13335 -0.0856646 0)
(2.13375 -0.0885878 0)
(2.13358 -0.0889425 0)
(2.13348 -0.0898701 0)
(2.13339 -0.0904845 0)
(2.13275 -0.0897911 0)
(2.13156 -0.0878742 0)
(2.13017 -0.085627 0)
(2.12899 -0.083515 0)
(2.12836 -0.0816017 0)
(2.12844 -0.0801928 0)
(2.12879 -0.0788161 0)
(2.12892 -0.0767067 0)
(2.12913 -0.0744671 0)
(2.12971 -0.07275 0)
(2.13028 -0.0719439 0)
(2.13062 -0.0715193 0)
(2.13072 -0.0699335 0)
(2.13101 -0.0675707 0)
(2.13134 -0.0668259 0)
(2.13162 -0.067033 0)
(2.13144 -0.0658559 0)
(2.13111 -0.0639359 0)
(2.13107 -0.0631651 0)
(2.131 -0.0629423 0)
(2.13115 -0.0625676 0)
(2.13111 -0.0624225 0)
(2.13058 -0.0625967 0)
(2.12957 -0.0629519 0)
(2.12817 -0.0632181 0)
(2.12644 -0.0630018 0)
(2.12439 -0.0626585 0)
(2.12201 -0.0620748 0)
(2.11938 -0.0607575 0)
(2.11669 -0.0589963 0)
(2.11386 -0.0573625 0)
(2.11087 -0.0559187 0)
(2.108 -0.054695 0)
(2.10556 -0.0532109 0)
(2.10385 -0.0506642 0)
(2.10321 -0.0478213 0)
(2.10325 -0.0458285 0)
(2.10332 -0.0443372 0)
(2.10309 -0.0430978 0)
(2.10242 -0.0426266 0)
(2.1012 -0.042988 0)
(2.09972 -0.043556 0)
(2.09751 -0.044855 0)
(2.09362 -0.0470712 0)
(2.08886 -0.0501785 0)
(2.08315 -0.0537999 0)
(2.07666 -0.0570772 0)
(2.06983 -0.0595596 0)
(2.06235 -0.0618844 0)
(2.05601 -0.0638769 0)
(2.05262 -0.0642787 0)
(2.04824 -0.0640798 0)
(2.0442 -0.0638968 0)
(2.04014 -0.0637109 0)
(2.03598 -0.0628932 0)
(2.03203 -0.0619445 0)
(2.0278 -0.0616585 0)
(2.02325 -0.0601835 0)
(2.01906 -0.0574299 0)
(2.0149 -0.0565049 0)
(2.01029 -0.0561144 0)
(2.00525 -0.0531292 0)
(2.00116 -0.0502979 0)
(1.99678 -0.0500759 0)
(1.9919 -0.0488336 0)
(1.98599 -0.0447055 0)
(1.98159 -0.0414997 0)
(1.97685 -0.0412639 0)
(1.97242 -0.0405143 0)
(1.96751 -0.0371491 0)
(1.96363 -0.0338554 0)
(1.95387 0.291957 0)
(1.95864 0.287243 0)
(1.96397 0.283612 0)
(1.96865 0.2795 0)
(1.97248 0.274701 0)
(1.97938 0.267933 0)
(1.983 0.262793 0)
(1.98499 0.259605 0)
(1.98938 0.255438 0)
(1.99191 0.250733 0)
(1.9934 0.24565 0)
(1.99729 0.239063 0)
(1.99911 0.233373 0)
(1.99937 0.229274 0)
(2.00303 0.221598 0)
(2.00763 0.210301 0)
(2.00935 0.203153 0)
(2.01162 0.196252 0)
(2.01741 0.18476 0)
(2.02172 0.173867 0)
(2.02387 0.167096 0)
(2.02876 0.157107 0)
(2.03645 0.142102 0)
(2.0405 0.132428 0)
(2.04165 0.127974 0)
(2.04718 0.117381 0)
(2.0546 0.101976 0)
(2.05769 0.0941935 0)
(2.05834 0.0899759 0)
(2.0645 0.0784161 0)
(2.07101 0.0638509 0)
(2.07361 0.0569143 0)
(2.07441 0.0529273 0)
(2.08035 0.0421005 0)
(2.08671 0.028129 0)
(2.08931 0.0222874 0)
(2.09068 0.018429 0)
(2.09825 0.00589885 0)
(2.10474 -0.00927665 0)
(2.10782 -0.0136773 0)
(2.10819 -0.0157954 0)
(2.11592 -0.0276 0)
(2.12184 -0.0433317 0)
(2.12444 -0.0490551 0)
(2.12485 -0.0488141 0)
(2.12677 -0.0534889 0)
(2.13117 -0.0616995 0)
(2.13207 -0.0673429 0)
(2.13241 -0.0701663 0)
(2.13255 -0.0704693 0)
(2.13281 -0.0712233 0)
(2.13249 -0.0733594 0)
(2.13304 -0.0754946 0)
(2.13357 -0.0761962 0)
(2.13354 -0.0765962 0)
(2.13359 -0.0772372 0)
(2.13377 -0.0765535 0)
(2.1337 -0.0748753 0)
(2.13365 -0.0732223 0)
(2.13358 -0.0720083 0)
(2.13344 -0.0707101 0)
(2.13289 -0.0684624 0)
(2.13233 -0.0656684 0)
(2.1321 -0.0642017 0)
(2.13186 -0.0637724 0)
(2.13108 -0.0623844 0)
(2.13032 -0.0602675 0)
(2.13 -0.059426 0)
(2.12976 -0.059583 0)
(2.12975 -0.0588138 0)
(2.12921 -0.0573418 0)
(2.12862 -0.0555662 0)
(2.12808 -0.0546084 0)
(2.12685 -0.0539258 0)
(2.12534 -0.0531364 0)
(2.12383 -0.0523378 0)
(2.12221 -0.0513507 0)
(2.1204 -0.0499087 0)
(2.1185 -0.0477899 0)
(2.11657 -0.0454558 0)
(2.11445 -0.0434683 0)
(2.11221 -0.0416677 0)
(2.11024 -0.0393782 0)
(2.10883 -0.0364054 0)
(2.10782 -0.033668 0)
(2.10641 -0.032628 0)
(2.10458 -0.0330501 0)
(2.10308 -0.0338491 0)
(2.10189 -0.0349611 0)
(2.10002 -0.0371314 0)
(2.09743 -0.0401703 0)
(2.09401 -0.0433852 0)
(2.08983 -0.0469301 0)
(2.08474 -0.0506466 0)
(2.07883 -0.0543634 0)
(2.07276 -0.0574238 0)
(2.06665 -0.0595632 0)
(2.0603 -0.0614328 0)
(2.05736 -0.0619863 0)
(2.05347 -0.0619222 0)
(2.04973 -0.0616541 0)
(2.04627 -0.0614225 0)
(2.0426 -0.0612701 0)
(2.03892 -0.0604578 0)
(2.03553 -0.0592877 0)
(2.03203 -0.0590596 0)
(2.02835 -0.0585808 0)
(2.02433 -0.0561595 0)
(2.02059 -0.0545099 0)
(2.01629 -0.0541813 0)
(2.01123 -0.0519401 0)
(2.00654 -0.0482839 0)
(2.00192 -0.0470045 0)
(1.99705 -0.0462532 0)
(1.99144 -0.0426127 0)
(1.9867 -0.0386237 0)
(1.98189 -0.0377847 0)
(1.97714 -0.0370275 0)
(1.97205 -0.0336182 0)
(1.96832 -0.0301548 0)
(1.94557 0.301682 0)
(1.949 0.29924 0)
(1.95363 0.295442 0)
(1.96063 0.287986 0)
(1.96373 0.284079 0)
(1.96807 0.279592 0)
(1.97288 0.273798 0)
(1.97553 0.268919 0)
(1.979 0.263287 0)
(1.98243 0.256961 0)
(1.98512 0.25068 0)
(1.98594 0.247094 0)
(1.98682 0.243614 0)
(1.99 0.236788 0)
(1.99305 0.227467 0)
(1.99275 0.22396 0)
(1.99314 0.221184 0)
(1.99766 0.214258 0)
(2.00078 0.206654 0)
(2.00215 0.202186 0)
(2.00663 0.19467 0)
(2.01292 0.183629 0)
(2.01641 0.176537 0)
(2.01901 0.171282 0)
(2.02543 0.161127 0)
(2.03223 0.148318 0)
(2.03549 0.141207 0)
(2.03763 0.136023 0)
(2.04471 0.124573 0)
(2.05171 0.110395 0)
(2.05425 0.10429 0)
(2.0554 0.099875 0)
(2.06243 0.0881612 0)
(2.06846 0.0756258 0)
(2.07072 0.0709457 0)
(2.0734 0.064785 0)
(2.08013 0.0528604 0)
(2.08549 0.0427988 0)
(2.08817 0.0378224 0)
(2.09206 0.0302803 0)
(2.09917 0.0176954 0)
(2.10511 0.0058731 0)
(2.10792 -0.000134195 0)
(2.11016 -0.00447882 0)
(2.11599 -0.0140498 0)
(2.12218 -0.0272898 0)
(2.12407 -0.0345728 0)
(2.12435 -0.0355638 0)
(2.12593 -0.0387437 0)
(2.13094 -0.0467213 0)
(2.132 -0.0521484 0)
(2.1322 -0.0555904 0)
(2.13249 -0.0561474 0)
(2.13242 -0.0551073 0)
(2.13148 -0.0556682 0)
(2.13091 -0.0567913 0)
(2.13071 -0.0575572 0)
(2.13048 -0.0572173 0)
(2.13018 -0.0568017 0)
(2.12959 -0.0568394 0)
(2.12918 -0.056674 0)
(2.12866 -0.0557015 0)
(2.12802 -0.0545019 0)
(2.12729 -0.0535969 0)
(2.12655 -0.0530759 0)
(2.12579 -0.0520907 0)
(2.12526 -0.0503863 0)
(2.12512 -0.0493968 0)
(2.12495 -0.0491667 0)
(2.12447 -0.0480593 0)
(2.124 -0.0460966 0)
(2.12418 -0.0443609 0)
(2.1245 -0.0433265 0)