/*--------------------------------*- C++ -*----------------------------------*\
  =========                 |
  \\      /  F ield         | OpenFOAM: The Open Source CFD Toolbox
   \\    /   O peration     | Website:  https://openfoam.org
    \\  /    A nd           | Version:  7
     \\/     M anipulation  |
\*---------------------------------------------------------------------------*/
FoamFile
{
    version     2.0;
    format      ascii;
    class       volScalarField;
    location    "0.144";
    object      T;
}
// * * * * * * * * * * * * * * * * * * * * * * * * * * * * * * * * * * * * * //

dimensions      [0 2 -2 0 0 0 0];

internalField   nonuniform List<scalar> 
12359
(
3.0047e-95
-1.23315e-75
-7.01975e-259
-3.17371e-49
1.86006e-85
-3.26446e-34
-8.08046e-28
8.57253e-31
4.79356e-23
-2.00359e-37
4.48257e-25
2.86147e-16
0.000981998
3.84341e-46
7.82798e-53
1.01283e-08
-8.45479e-06
-2.92756e-141
9.16652e-145
3.15155e-62
-5.07351e-43
-6.05015e-19
1.62927e-68
-7.02921e-59
-3.62103e-72
-2.75961e-65
5.10023e-187
-1.81539e-190
1.45395e-152
1.95463e-176
3.19195e-169
7.16173e-209
-4.45923e-230
-1.07553e-180
-5.29602e-245
-1.06587e-165
1.99672e-114
4.02015e-98
2.24319e-89
-1.28592e-104
1.42738e-78
8.23272e-102
2.47237e-124
-1.01024e-127
-8.24188e-159
1.25721e-155
3.23316e-162
-9.34739e-173
-2.00816e-148
-9.1581e-184
4.90957e-194
1.98551e-201
-1.66258e-212
7.22238e-138
5.94503e-220
1.71329e-226
3.54056e-131
9.64979e-234
-1.84077e-237
3.02527e-241
-4.7076e-223
-3.75531e-252
-1.0923e-197
0.815073
-1.56389e-134
4.70406e-40
-2.71544e-118
-3.75457e-205
-6.11822e-111
-2.55977e-13
43.0745
-6.53115e-82
-6.87548e-263
1.30252e-107
1.19877e-55
1.34274e-248
3.85329e-216
1.85457e-255
-1.38576e-121
-1.00129e-13
1.94317e-39
-1.89373e-177
0
-2.7083e-110
6.12191e-06
-1.26042e-129
7.60804e-175
6.45801e-243
0.000435343
1.21401e-06
1.32323e-298
0.631415
-2.80382e-301
8.87036e-144
9.44781e-117
7.04743e-109
-5.2962e-150
-7.70601e-145
1.43435e-74
-3.61627e-91
7.26622e-34
-2.59425e-285
-1.27219e-129
1.70027
8.82614e-188
7.87949e-58
9.51079e-315
4.84729e-06
1.13852e-141
1.1244e-59
-8.96978e-153
-1.45543e-176
-2.94639e-46
2.46441e-39
-4.87233e-117
-2.32502e-218
-3.62991e-38
2.27339e-176
0.00666107
0
6.3939e-155
-1.22534e-32
-9.44653e-241
7.97544e-83
-1.41924e-175
3.59219e-206
1.37592e-27
2.62614e-109
-9.23593e-258
8.10447e-177
1.01282e-217
1.91893e-21
1.46809e-17
2.24866e-18
3.54525e-317
1.75803e-82
-1.47793e-217
-5.18694e-85
-3.40994e-279
4.0871e-29
0
-5.69303e-93
-6.17471e-76
-1.67661e-314
3.16209e-36
-1.02225e-39
0
6.71555e-07
1.21004e-186
-3.36496e-37
-1.807e-108
-1.62592e-281
-1.78312e-74
-2.73318e-238
3.39367e-309
79.8685
2.58189e-35
5.22851e-22
5.79497e-151
-1.92397e-222
-1.41127e-55
-9.56921e-221
2.90563e-83
9.51092e-78
0
2.10545e-208
4.95586e-57
-1.2756e-31
-9.67897e-80
0.000527188
-3.16233e-253
4.23113e-251
6.47892e-83
-1.65156e-75
4.20539e-190
2.15509e-29
8.45909e-161
1.28523e-163
-9.08631e-47
6.07686e-31
-8.64995e-51
2.37526e-306
-8.17055e-257
1.95854e-176
1.67263e-76
-8.44053e-23
-3.81791e-147
1.45485e-121
6.47264e-105
-1.76418e-146
9.08123e-120
4.41504e-111
1.99084e-111
1.02692e-236
7.67136e-60
2.90765
-6.73375e-105
3.46996e-147
-1.06006e-73
7.97714e-175
4.57387e-39
3.70436e-106
-2.62524e-90
1.80658e-60
2.71191e-42
3.56163e-308
3.96183e-39
-1.39421e-88
3.40797e-75
-4.94978e-160
0
4.46554e-43
5.34915e-42
123.564
-5.26848e-22
2.61833e-277
1.40552e-146
-2.19456e-119
1.32392e-145
-5.31386e-91
9.62542e-40
-1.22862e-161
4.84096e-85
0.574954
-1.96864e-176
0
-2.64547e-89
-2.49185e-144
2.44061e-31
5.8514e-143
-1.30388e-141
0
1.63554e-35
-1.98232e-84
1.41291e-121
-2.82469e-86
0
-7.06063e-71
3.83235e-121
1.66232e-07
0
5.11164e-127
-3.77041e-133
1.79091e-15
1.5272e-53
6.14602e-07
-2.81719e-241
8.7044e-77
-1.99079e-198
9.23601e-112
1.31129e-54
-2.88437e-101
-5.6846e-166
-5.83346e-142
0.187898
94.5712
0
-3.17471e-167
0.196769
91.0689
-1.11842e-89
-1.70873e-54
1.32034e-34
1.71306e-61
-1.22159e-75
33.3062
0.00369806
-6.94389e-51
-2.69531e-169
3.13852e-81
2.16504e-81
4.48795e-74
-4.82109e-78
2.79132e-143
-1.95093e-163
0
-1.00804e-165
0.302275
-3.44155e-51
-2.00642e-294
-1.42653e-283
3.0433e-63
1.90327e-174
-9.88772e-120
2.61478e-129
0
7.86718e-35
-8.47367e-283
-6.53819e-285
-1.91383e-211
3.91236e-85
3.4469e-180
28.987
-1.63486e-316
2.15696e-312
-6.90706e-128
4.38711e-200
6.76427e-41
-8.71381e-123
3.0143e-199
-1.14207e-297
0.169764
6.67273e-33
5.08984e-299
3.7362e-145
-5.39036e-125
-6.19586e-196
-2.79406e-217
-2.8845e-218
1.21842e-194
-4.66361e-150
-3.884e-23
-5.80015e-197
-7.85548e-171
-1.54155e-99
-2.38249e-62
0.000383989
7.77427e-196
6.19794e-77
3.05644e-10
-7.44226e-285
7.64919e-88
3.39684e-290
-5.77249e-104
2.98182e-312
1.53226e-193
-4.41066e-25
-7.69022e-81
-3.26134e-24
-1.08122e-121
4.18709e-133
2.00141e-113
3.08768e-108
3.25014e-131
5.18476e-114
9.03575e-113
2.24977e-267
4.41457e-230
5.33525e-231
3.78981e-227
2.21615e-228
2.73997e-06
0
4.69235e-38
7.21215e-89
9.59274e-80
-1.70296e-74
-1.96718e-79
-1.66633e-129
8.83192e-106
-6.43641e-81
-2.53886e-107
4.9317e-78
-1.2115e-57
-7.79619e-56
1.34169e-45
-2.79861e-91
3.54219e-25
-1.39037e-94
-1.84258e-94
-3.51922e-74
1.31999e-30
7.70238e-177
-6.63045e-219
3.4065e-106
-2.36678e-220
1.86062e-176
97.3758
5.5662
4.66221e-176
-2.77744e-274
-1.13139e-318
5.2118e-317
-1.70817e-82
1.47351e-306
2.83402e-308
0.0014802
-1.37494e-78
1.2039e-06
-1.6744e-175
3.80414e-68
9.57401e-177
-2.3461e-130
-7.54732e-53
4.47082e-108
-7.69317e-50
2.61248e-109
3.13096e-179
3.82812e-292
1.23776e-79
3.45453e-69
-5.08147e-182
-2.43981e-16
-6.74209e-54
4.50802e-109
2.68652e-69
4.10116e-59
1.89868e-275
2.75735
1.12043e-23
-5.42743e-174
2.0502e-16
-3.00734e-96
0
0
1.4822e-323
3.14396e-06
4.87536e-32
3.748e-75
3.10481e-89
-7.43685e-110
-2.04754e-114
-9.03387e-52
-2.18433e-70
1.57504e-33
0.000728739
-9.37535e-15
4.57786e-79
5.34803e-47
2.5718e-139
-1.37282e-51
5.62623e-110
-3.23268e-104
8.01438e-181
6.06539e-112
-2.37468e-79
2.78419e-305
77.0989
-8.91483e-118
1.45401e-06
1.09495e-72
-2.55426e-132
5.7589e-44
0.154406
-1.80368e-77
5.13214e-99
2.98329e-110
1.62762e-70
-2.29895e-51
3.46641e-173
0
1.39439e-39
5.09912e-310
1.71884e-22
2.21162e-215
-1.23412e-67
9.57833e-52
-7.09203e-159
7.42492e-06
6.77404e-37
-2.47156e-93
-2.30658e-165
6.22074e-09
1.82272e-274
-1.69651e-180
1.14906e-30
-2.06187e-272
-1.69676e-166
-4.93669e-182
3.00311e-11
6.51098
-1.20087e-112
4.4642e-249
-6.33545e-49
-6.87873e-61
4.17553e-88
-3.76734e-72
-1.85036e-80
1.50789e-265
3.41389e-319
-8.1017e-67
7.17503e-295
2.9257e-53
7.75533e-88
-4.49589e-53
-5.07231e-164
1.62429e-41
9.97618e-30
-6.96551e-180
2.25365e-115
1.46307e-180
-3.1647e-43
3.82717e-31
2.53636e-279
-1.52251e-64
8.21069e-85
-5.39191e-142
-1.68433e-62
2.7408e-214
1.88989e-32
6.59279e-122
5.52585e-78
-6.12458e-54
2.62753e-263
2.66287e-116
2.44148e-19
5.61496e-16
4.39709e-297
7.61151e-96
5.31275e-16
3.21656e-100
0.078668
0
1.97386e-217
5.06277e-272
5.74664e-73
-1.9346e-91
1.18124e-102
3.14929e-212
6.11277e-67
8.50785e-101
-7.6082e-79
-2.29343e-167
1.27452e-08
1.29726e-303
7.90672e-08
-7.54554e-245
115.276
1.25578e-120
9.98047e-21
5.21559e-238
-1.97852e-166
-2.80225e-60
1.53449e-178
7.19311e-201
4.40338e-124
-1.37135e-88
2.36512e-88
5.46115e-19
1.73323e-46
1.70244e-47
0
-9.04231e-179
-1.40346e-84
3.05235e-15
0
-4.185e-298
3.18216e-83
1.54651e-269
-3.33144e-25
0.17625
15.0203
0
2.41543e-125
6.27947e-53
4.67483e-99
3.82197e-192
56.851
-2.2237e-303
1.96578e-35
3.71675e-50
2.11329e-126
8.90433e-197
3.96707e-197
-1.1633e-160
2.96377e-91
5.22095e-112
-7.59935e-111
0
-5.89084e-256
-4.78699e-93
-5.97002e-160
-1.71556e-46
-4.79927e-74
-2.62325e-209
2.13673e-296
-2.30254e-56
80.506
3.94931e-173
1.28421e-34
-2.71242e-321
1.62688e-108
1.12608e-36
-1.17804e-103
3.67127e-56
1.23597e-42
-2.5192e-93
7.26624e-82
0
-8.13947e-246
-7.67149e-108
-1.04349e-115
-7.2129e-95
1.33211e-117
-1.66109e-312
-7.84572e-296
-3.01821e-207
-2.67687e-75
2.44158e-73
-1.62192e-49
-4.53365e-116
-2.90457e-48
-2.03518e-75
2.01911e-96
-5.31277e-45
4.7799e-78
1.91964e-06
-3.92387e-76
2.34062e-77
6.27216e-48
-5.54976e-250
1.10106e-39
-1.44783e-59
0
-3.39433e-270
8.25403e-268
5.8833e-247
3.27971e-14
3.02649e-97
9.15047e-151
-2.95038e-48
9.07145e-123
-2.90859e-22
1.18426e-101
-1.40342e-89
-1.41954e-205
1.49578e-25
-1.16929e-313
5.49967e-75
8.51657e-167
4.85786e-29
-1.54391e-43
-6.75326e-100
1.99867e-103
2.37008
-8.88919e-78
5.76619e-25
-2.43075e-109
5.84479e-18
0.0575242
-4.51298e-255
-1.55791e-172
-2.07237e-314
1.11716e-16
3.11912e-173
6.97555e-111
1.1697e-05
-6.78237e-300
-2.79286e-76
-1.79299e-53
4.95752e-102
-8.5296e-169
4.36663e-101
-1.12531e-229
-1.25402e-95
-1.78419e-227
-2.88151e-232
4.50962e-102
-1.80132e-82
3.04771e-83
4.22204e-100
2.10741e-13
-3.12249e-105
6.25649
-1.13225e-75
2.53311e-129
2.45609e-99
-2.1313e-77
5.90509e-78
1.56598e-110
0.0452774
-6.90727e-53
7.26807e-81
-2.84947e-85
-4.60988e-148
-1.73319e-162
-4.2411e-57
0
0.0482448
-9.71539e-214
-2.8792e-51
4.47877e-37
7.68074e-16
3.44493e-44
2.98718e-66
9.57057e-55
-3.51551e-110
1.25875e-43
2.16182e-61
2.55177e-25
-4.41549e-86
2.54615e-29
-5.18223e-87
0
3.53429e-80
112.243
1.53824e-20
-6.41731e-146
0
-2.28608e-207
-1.51168e-123
-2.81219e-69
7.34724e-85
-1.66641e-117
5.06432e-267
-2.19211e-140
3.3287e-77
-1.41179e-146
-1.14132e-166
1.1879e-29
-2.96261e-134
3.62005e-66
5.05512e-62
2.86e-141
-5.20929e-135
1.98452e-41
0
-9.42342e-130
24.272
3.69733e-244
5.13995e-34
3.59679e-38
2.67958e-136
1.24341e-48
2.61687e-61
-1.01412e-80
-4.55675e-50
4.24413e-178
2.55923e-48
4.0802e-192
9.80898e-114
1.9082e-64
-5.66805e-47
2.02942e-177
6.41825e-80
1.10239e-21
-1.47673e-67
2.19018e-108
8.34274e-173
1.29901e-38
5.24736e-10
-5.63579e-152
-5.37062e-279
1.40408e-80
8.81263e-303
0.0568872
2.54309e-86
2.92926e-21
6.93634e-116
5.98033e-120
1.91721
1.00882e-103
1.26226e-05
7.71296e-87
11.7077
-8.6038e-85
-3.50009e-108
9.30137e-106
-4.84776e-144
1.31297e-06
7.89266e-09
2.14178e-251
1.58921e-247
-1.71162e-43
-1.36446e-233
4.33255e-05
-2.93536e-53
1.01427e-15
1.66318e-173
95.3018
0.00533489
2.85721e-85
0
2.33763e-183
-4.50823e-56
-2.32498e-121
-2.20735e-114
4.1506e-118
-7.71216e-81
3.80037e-63
1.27983
3.3547e-12
1.24882e-269
7.05258e-55
1.51523e-49
-1.86517e-40
2.61891e-110
4.02955e-34
1.01474e-75
-2.12361e-54
-3.15642e-168
0
5.20892e-47
8.53434e-43
1.86083e-118
-8.56871e-47
9.6967e-23
1.79382e-131
-5.27168e-83
-1.27343e-164
1.99954e-123
-4.35628e-21
-6.14698e-122
6.05799e-56
4.66674e-61
1.27144e-92
-5.50053e-159
4.29807e-110
7.90146e-23
9.55384e-118
7.77445e-112
1.51457
2.16526e-73
-1.62067e-130
0.000183028
0
1.85312e-115
-2.06069e-89
-7.20892e-124
6.99696e-209
6.32174e-84
0
2.25655e-16
-9.3594e-184
-7.35792e-77
7.32271e-43
9.43087e-48
-2.04373e-110
5.81998e-114
5.82485e-49
27.0498
-6.31488e-248
-3.68587e-130
-6.68787e-131
0.000133534
3.61426e-42
1.35553e-179
0.239178
0
2.39889e-184
95.01
-5.61493e-137
1.31832e-176
-6.95915e-172
-9.03101e-63
-2.57632e-59
2.82125e-242
-2.14347e-128
4.96073e-37
1.98329e-89
-8.72455e-94
5.28083e-119
-5.11526e-253
-1.57947e-57
1.81144e-14
6.47054e-96
4.21857e-47
2.32281e-88
8.08165e-113
7.50755e-18
-4.62868e-51
1.00528e-116
-2.90213e-183
1.08824e-07
2.87796e-83
4.15326e-68
-1.22906e-164
9.76188e-245
-5.81714e-50
3.89504e-25
2.11618e-121
7.6266e-51
2.9204e-119
3.05125e-116
-5.48148e-154
1.40362e-57
92.6274
6.74097
1.4669e-56
-8.98116e-95
3.79268e-156
8.58694e-60
0.000280004
4.17944e-51
2.93943e-181
5.89573e-29
1.28508e-15
3.06691
1.82223e-146
19.4853
4.56277e-247
3.11073e-114
1.43948e-243
8.53642e-19
1.59995e-66
19.0717
-1.65897e-193
0.000562605
-8.79592e-231
6.168e-96
1.10035e-66
-7.61108e-124
2.13952e-28
9.08002e-07
-9.37986e-133
-3.86806e-159
4.45948e-122
-2.31439e-146
-6.07166e-135
1.1185e-21
6.13465e-70
3.71165e-114
1.7527e-24
-6.10114e-136
1.17398e-241
2.37145e-99
-5.18961e-205
6.05997e-40
-1.99754e-124
4.46285e-18
2.43734e-19
-1.49173e-62
7.97651e-61
-2.07555e-70
3.6599e-106
0.000301011
1.93558e-124
-6.90112e-142
-1.441e-311
9.06497e-27
8.56367e-53
-2.57899e-195
3.59811e-45
-3.73382e-122
1.6108e-62
6.43758e-56
1.13188e-49
-1.1846e-72
58.2761
-2.19384e-69
-8.21537e-61
4.88966e-07
-8.69473e-125
9.2376e-12
7.9992e-54
-1.03683e-237
4.07982e-122
2.8637e-166
3.56548e-108
0
-6.45035e-174
1.71045e-15
1.11312e-23
-6.83887e-177
101.407
5.55031e-43
-4.54761e-218
5.74638e-19
4.40708e-30
-2.67279e-224
9.97651e-17
1.50778e-44
1.34789e-19
-1.6053e-227
-7.26242e-165
1.05268e-147
-2.39894e-225
-1.81332e-48
2.40784
4.61546e-185
7.26515e-19
0
0.368994
-1.7517e-49
-6.52333e-76
-6.93642e-305
-5.51754e-187
3.55935e-112
2.57917e-74
8.41907e-24
9.70098e-61
-2.9806e-138
5.39999e-130
-4.11349e-230
-1.23794e-52
7.71396e-56
8.80685e-165
2.89598e-271
2.13884e-99
5.95246e-63
9.6847e-65
-1.20801e-205
1.78585e-14
3.27324e-41
-1.23179e-232
3.34068e-80
6.12052e-131
5.63474e-114
115.982
-4.25684e-138
-7.68914e-219
8.73347e-86
3.80695e-54
-6.68186e-66
0.307418
-3.6414e-78
8.95998e-128
9.51579e-59
-1.71559e-125
1.11915e-129
1.4207e-125
-1.23911e-123
9.23808e-39
6.66304e-110
6.30917
-4.31637e-64
1.39896e-14
-3.91833e-128
3.44958e-13
4.15407e-46
5.07845e-29
-1.48576e-19
4.20513e-79
-4.32824e-132
2.98888e-137
3.53162e-97
0
-4.81757e-117
1.6296e-52
1.23972e-38
-2.37051e-126
-7.1823e-235
-1.03563e-84
2.20751e-72
7.97133e-41
4.24014e-58
1.86958e-28
1.89435e-41
2.69255e-161
1.95497e-73
6.99412e-05
3.18735e-54
0
-2.12346e-151
-4.3614e-128
0
3.57156e-75
1.37564e-249
-6.1361e-115
-3.66408e-23
2.7231e-49
7.31595e-15
4.20294e-246
5.19592e-192
5.51011e-301
-1.72067e-127
-3.88804e-150
1.82522e-28
-8.04572e-149
1.18148e-191
1.13714e-11
-2.12162e-67
1.34672e-106
4.78776e-77
5.49651e-28
-1.01689e-146
1.11633e-18
-1.81743e-138
-1.80759e-242
1.17451e-07
6.14502e-92
7.92079e-31
-7.07978e-145
24.9632
3.73352e-59
-2.56074e-71
2.64695e-84
7.9266e-53
0.819765
1.39004e-129
3.39078e-30
2.99965e-60
-4.17169e-73
-4.32077e-178
1.76154e-121
1.20532e-11
7.80734e-113
1.9841e-19
-4.55526e-135
-7.53905e-140
7.59787e-20
2.38373e-219
-1.51971e-158
2.641e-127
1.58008e-90
2.04642e-17
-1.09985e-135
5.00888e-129
0
5.61424e-59
5.77388e-08
1.97266e-76
-7.95905e-128
-1.05965e-91
1.47468e-147
-3.34055e-185
3.85946
-2.98764e-69
4.24567e-281
1.32003e-71
7.6954e-150
2.41328e-57
2.01434e-36
-1.65161e-106
-6.92961e-124
3.11287e-29
1.99767e-22
-4.55655e-310
1.29092e-99
1.88746e-23
-7.3669e-196
2.7107e-258
-1.91962e-85
9.90268e-91
5.76381e-116
5.03821e-256
-1.19905e-84
2.24971e-19
8.92031e-221
-2.38868e-41
-4.56957e-245
-2.03184e-166
8.31174e-81
8.59036e-08
2.19909e-320
0.409961
-1.86107e-67
1.69253e-39
2.16788
1.68556e-62
1.50221e-102
0.00204466
-4.24724e-126
1.5195e-08
1.84824e-26
-1.05805e-94
-3.90642e-118
-3.02334e-120
7.48323e-141
-2.65292e-148
8.29913e-54
0.000448131
97.6164
6.39604e-60
-3.34207e-37
4.46895e-12
3.03214e-63
0.0241891
1.94624e-209
-1.96822e-138
1.42797e-30
6.33082e-79
7.24518e-172
1.30951e-60
2.41879e-132
0.856545
0
-1.14416e-166
-9.1716e-203
111.246
-4.25296e-47
1.91675e-64
-1.51909e-113
-9.34915e-30
3.96276e-123
-1.44109e-191
3.33978e-12
4.51921e-130
7.06375e-12
3.3532e-53
3.40182e-125
2.22607e-29
-4.74094e-89
1.0731e-131
-1.45346e-189
-4.51175e-183
0.0191926
1.07367e-21
6.05729e-169
7.45219e-29
3.60741e-108
-8.71748e-47
2.55691e-316
1.01245e-90
1.81742e-12
1.57414e-33
1.13252e-60
-5.14489e-98
8.96817e-190
1.16593e-39
-1.90603e-122
7.04822e-194
8.51278e-18
6.72823e-36
-7.28273e-155
-1.04022e-41
-9.24507e-103
-1.09402e-304
-2.33493e-174
-4.97052e-278
2.54931e-55
15.3076
3.47358e-18
2.51759e-41
-4.89858e-162
-7.0547e-119
1.99961e-90
-6.29007e-287
2.15785e-13
-1.42981e-90
17.0039
1.95967e-35
2.13009e-127
-1.34046e-157
1.10642e-206
3.50827e-135
-4.1992e-125
-4.36617e-169
3.22429
2.34035e-34
2.72909e-60
-4.91374e-25
1.29072e-58
1.191e-193
0
-1.16168e-169
3.87175e-43
0.00171791
-3.04991e-32
9.16399e-79
-7.71683e-71
-7.2539e-93
1.29669e-35
0.000407922
0.00102256
-6.04e-122
-1.06498e-99
-6.36315e-56
-2.46215e-152
2.55436e-270
-1.49065e-169
4.92196e-31
-6.15486e-151
4.01023e-103
-1.12311e-133
3.33493e-59
5.88837e-17
1.10104e-142
-3.13769e-168
4.33825e-22
3.32428e-39
-6.77525e-119
3.86289e-176
-1.10564e-72
5.45385e-17
1.21063e-43
-7.87534e-41
-3.61565e-76
1.81546e-116
3.29821e-08
-6.19112e-117
-5.20168e-32
2.33973e-185
3.56415e-19
4.97014e-23
-1.52497e-244
4.00065e-202
59.9186
1.2789e-174
-2.78235e-106
7.14126e-49
9.0355e-147
8.75048e-146
3.43261e-128
7.16101e-176
7.87056e-301
2.24087e-52
9.06265e-11
-2.84161e-206
0.000373537
-1.90892e-136
-1.12026e-174
5.4438e-19
6.76083e-14
-1.38502e-44
3.88872e-126
-4.11036e-166
5.86581e-66
102.38
4.46434e-149
-6.42513e-208
-2.85821e-216
-1.81094e-151
6.28938e-86
-6.28358e-57
4.35188e-154
-7.17075e-98
-8.44087e-162
1.08418
2.36356e-15
1.65457e-91
7.31125e-54
-7.63078e-135
-7.962e-174
2.86115e-40
0.0904276
3.65228e-105
7.40948e-214
-3.98218e-176
4.63729e-22
1.2498e-148
1.41138e-187
6.29708e-26
8.24287e-128
-2.88689e-174
83.0069
8.06568e-23
0.0051261
1.4746e-40
-4.16168e-149
2.44283e-37
4.81021e-16
0.00370082
2.78775e-138
1.41495e-64
-4.11135e-291
0.00684318
0
-2.02303e-142
8.44221e-143
-2.66958e-213
1.97671e-74
-2.01001e-116
4.38056e-147
2.34808e-140
0.0508366
3.61629e-22
1.74647e-83
-1.12703e-167
1.12017e-50
0.0771181
8.7317e-20
1.25324e-62
-2.49281e-74
-1.31657e-142
-4.76604e-122
7.9719e-211
-2.93594e-157
-6.76101e-204
-2.4565e-170
4.46413e-64
3.08123e-23
5.63374e-36
0.0168742
3.68339e-07
3.65841e-15
-1.26697e-42
0.00647308
7.0816e-190
6.24935e-10
-1.41473e-177
1.70588e-05
2.72708e-21
2.53716e-64
2.81458e-155
1.09071e-61
2.31349e-50
1.53972e-112
10.5933
8.17276e-19
0.0145366
-1.82336e-172
7.16314e-17
5.58183e-11
5.44229e-21
1.67029e-11
1.22883e-18
1.15569e-175
-7.27662e-127
5.76283e-89
-3.65676e-160
1.97347e-49
-2.20855e-146
1.96949e-63
-2.2574e-247
-1.11473e-131
6.23848e-52
9.51293e-78
9.48404e-196
1.63407e-69
0.003406
46.6281
-1.2377e-215
1.37481e-71
-4.00831e-137
1.79468e-15
2.08989e-52
1.1816
2.57903e-08
6.13665e-142
2.30176e-72
3.3861e-11
-6.00975e-31
5.11626e-09
7.89372e-79
2.88147e-18
-2.63399e-200
0.00277225
1.7615e-24
2.52317e-174
5.6409e-12
3.26897e-07
4.14035e-66
0.015785
-5.07522e-138
1.53796e-13
5.62406e-114
1.94276e-222
-2.02788e-106
5.89657e-121
0.000600654
6.96969e-18
7.15956e-05
3.099e-193
0.029872
1.10481e-63
3.87553e-24
-8.7257e-47
1.31352e-75
3.22202e-89
7.0514e-06
-8.57199e-136
-4.98581e-158
2.36636e-51
3.31218e-14
4.2238e-50
3.92955e-39
-2.02587e-83
0.00171088
1.49615e-45
1.54333e-50
1.57825e-14
2.52829e-216
7.44056e-12
2.38643e-34
2.06052e-12
8.66725e-109
7.89238e-09
4.34937e-207
8.3961e-52
2.09153e-93
7.11407e-22
2.71389e-103
1.48769e-52
4.19162e-13
45.3786
3.774e-138
1.86334e-85
1.92421e-65
1.73777e-30
2.71172e-44
-3.78511e-141
6.03668e-67
4.26292e-209
4.29885
-2.17149e-309
1.08971e-208
-7.88702e-276
6.57028e-16
-3.16421e-172
4.13459e-62
0.00100511
7.49463e-93
4.508e-84
-1.3509e-163
-6.82405e-262
6.18133e-15
1.313e-214
4.88693e-57
4.05652e-21
1.28275e-67
1.35821e-09
-5.39224e-142
2.17198e-66
5.08447e-13
3.21719e-39
-1.43633e-108
52.7747
1.8692e-314
-9.1139e-254
-1.01572e-125
119.336
7.84162e-111
1.92621e-125
4.60336e-12
-3.61454e-154
-1.32739e-139
4.99706e-33
7.21781e-12
7.57922e-55
5.20423e-07
3.71619e-151
6.30289e-130
-2.84679e-87
6.25912e-91
4.08807e-22
-7.29763e-180
5.27186e-122
-9.76098e-80
-4.11755e-24
2.17148e-100
6.6664e-198
2.46191e-65
-3.93195e-27
2.42367e-264
4.67895e-260
1.53818e-08
2.51941e-54
6.5997e-08
1.2564e-138
0
-1.3153e-25
2.44831e-16
4.78962e-192
3.68973e-147
-1.62409e-210
0.407084
-3.03429e-263
1.07777e-56
7.06199e-11
1.48686e-257
-1.59851e-259
1.97489e-40
3.22449e-226
2.44967e-259
5.92253e-85
3.32049e-21
4.11365e-200
1.01415e-37
-8.02371e-218
1.10721e-13
0
9.20959e-12
1.13325e-19
1.28954e-47
5.48654e-257
7.09097e-33
1.07606
1.88126e-151
1.12789e-69
1.25168e-230
2.11912e-22
1.12217e-218
4.71827e-13
6.92718e-21
5.30685e-124
1.42518e-270
3.28789e-20
1.70852e-24
-2.6513e-94
4.24704e-94
1.5038e-24
3.6196e-224
3.70106e-34
1.0152e-272
1.30638e-13
9.65319e-15
6.33599e-24
3.40487e-46
-4.43825e-34
0.0849288
8.62514e-53
1.67992e-92
1.37865e-23
-1.56647e-144
1.03989e-30
4.43793e-24
2.4194e-60
4.09288e-133
0.000391397
-2.67476e-298
4.11715e-05
65.9706
4.20726e-160
7.3515e-20
10.6708
2.20018e-52
6.69417e-90
1.46279e-34
-7.59812e-78
1.67431e-206
1.82544e-14
7.48913e-05
0.0951175
-8.43547e-144
1.87946e-42
4.15095e-10
6.70269e-21
2.08845e-168
-1.35778e-249
8.60405e-75
3.53974e-06
7.70508e-14
1.28392e-25
0
-1.11253e-221
6.55642e-23
4.16319e-151
1.58667e-77
4.51624e-145
-4.19426e-265
7.96098e-13
-7.99972e-144
1.76859e-11
-9.28629e-93
-1.9713e-235
-1.18798e-250
2.78641e-22
-5.75477e-145
7.62939e-52
2.21501e-25
3.35492e-05
3.46845e-73
2.22035e-198
8.92714e-11
-2.57928e-119
2.7979e-211
5.36106e-118
1.33968e-22
-1.18793e-150
1.82532e-21
6.53066e-81
116.356
3.47501e-24
-1.36002e-186
3.18383e-11
3.10106e-275
4.52767e-16
6.05751e-65
1.30152e-09
7.37559e-07
5.61194e-62
1.1154e-09
-4.25112e-233
4.88016e-18
-2.49369e-157
2.82735e-73
3.34672e-12
-1.13196e-50
3.88508e-12
5.6681e-05
-9.10334e-29
6.96128e-17
8.61358e-10
4.20825e-194
-1.29056e-215
8.50536e-273
5.79693e-10
-1.89898e-35
7.52376e-192
1.44669e-13
4.77475e-14
-1.16793e-77
8.87319e-32
2.19129e-94
2.79823e-50
1.54562e-10
3.5354e-101
-1.58831e-63
2.1221e-59
-2.25007e-292
-9.73916e-289
-7.64752e-193
-4.56596e-143
1.16829e-95
-5.73506e-239
3.02162e-122
-1.18948e-133
-1.3163e-83
8.27289e-52
-1.30973e-169
3.10204e-13
0
2.87088e-20
1.12982e-09
-3.42475e-184
1.10961e-07
5.70329e-28
1.92153e-13
2.31495e-99
3.96323e-26
-4.23467e-152
1.63061e-66
1.70759e-83
-8.65537e-253
-1.08287e-156
9.11586e-131
-6.1567e-182
1.65159e-277
7.72489e-79
1.04359e-279
-2.56168e-46
1.70114e-48
0.00184065
-1.09299e-242
-3.07569e-87
-1.10188e-236
5.68573e-153
2.44356e-32
-1.071e-90
5.60923e-189
92.0526
1.7325e-21
5.75843e-54
2.0009e-86
3.72532e-25
1.67683e-34
5.4913e-121
7.14868e-38
2.47867e-21
-3.13445e-134
8.22276e-275
-1.32561e-119
2.90085e-17
-8.45304e-215
-1.54866e-194
7.40376e-21
6.64686e-159
-9.561e-153
-1.64501e-131
5.84958e-198
3.48137e-09
-2.10635e-240
-6.76699e-197
5.45098e-48
1.47771e-37
0.0113722
2.36943e-20
-9.43144e-85
-3.30925e-186
2.03026e-37
-1.68992e-188
5.28782e-47
5.59111e-107
1.11146e-133
5.19882e-10
5.78547e-249
2.65658e-37
5.98044e-77
8.1232e-24
7.48557e-58
4.21195e-284
-1.34452e-135
0
5.5458e-43
-1.59578e-218
1.54022e-30
2.3564e-79
-2.60718e-133
-1.77565e-81
1.59247e-68
5.8289e-276
2.70178e-36
-1.236e-45
2.54251e-143
1.17355e-45
1.68864e-14
-2.60512e-264
3.07032e-68
1.36126e-17
2.50722e-31
7.40363e-109
2.73347e-68
2.19031e-66
2.48209e-82
-7.55942e-104
7.90693e-22
4.80218e-103
9.92147e-186
1.28637e-187
9.46375e-10
1.73393e-14
6.32503e-13
1.99689e-10
-4.78951e-52
2.634e-33
8.11517e-78
1.19624e-37
1.25444e-187
0.00141538
-5.0247e-152
1.31769e-09
1.34229e-27
-1.43353e-190
-1.06715e-37
5.86377e-16
4.31709e-15
-2.86922e-76
5.64166e-46
8.2109e-190
-1.20135e-307
9.30099e-24
1.02668e-273
-3.15474e-245
4.08829e-26
2.6867e-153
-7.05124e-96
3.4894e-196
3.83369e-139
1.62255e-24
3.13323
-3.66477e-159
-1.91238e-161
2.38787e-18
5.40663e-57
4.05799e-17
5.79117e-43
2.16838e-38
9.86771e-157
2.60051e-62
3.12302e-42
6.81799e-27
-1.10329e-45
-1.10519e-196
9.98586e-25
-4.77272e-53
1.43715e-31
3.71076e-120
9.52884e-194
1.86006e-26
-1.29242e-154
-1.3959e-262
4.19363e-39
2.74866e-13
-3.19924e-242
6.36584e-45
1.94302e-81
-2.25848e-167
-5.26447e-110
-2.41158e-167
4.58316e-39
3.1597e-185
5.38958e-196
-7.38261e-91
4.44295e-40
-1.36663e-59
-1.16355e-38
2.9833
6.12622e-138
2.15165e-88
2.40328e-06
5.84959e-58
-4.05228e-169
-8.75863e-55
1.18237e-14
-1.77509e-251
-7.23615e-157
7.85205e-269
8.04434e-45
6.36319e-23
6.9173e-92
5.08657e-282
-1.1948e-115
4.61634e-111
-8.94275e-130
2.43388e-14
1.00675e-152
-1.17634e-283
3.30016e-275
4.99972e-49
-7.75744e-78
5.45533e-09
5.25784e-119
2.98555e-71
3.08898e-73
6.149e-36
-2.91995e-212
8.59591e-37
-4.11294e-256
-9.03801e-247
2.11528e-267
1.33334e-17
7.7193e-149
7.3276e-42
7.46497e-56
-1.26796e-49
3.1219e-37
7.65422e-48
2.48632e-21
1.03565e-37
2.67418e-149
1.48932e-63
1.02759e-64
3.76621e-61
2.13979e-31
-3.5455e-156
5.45526
5.67423e-25
1.74757e-28
1.37135e-243
0.0672561
5.95805e-36
1.0503e-38
2.89462e-41
1.00925e-25
-4.34574e-89
3.54414e-135
1.97081e-141
-1.30045e-155
1.67272e-148
-1.30148e-26
1.08945e-34
3.92069e-157
1.00952e-51
-4.74032e-132
1.62587e-143
2.39788e-95
9.93408e-64
2.25589e-116
1.00096e-80
3.32566e-67
4.63058e-62
1.79784e-39
5.5296e-85
4.56541e-237
-3.70139e-113
4.2273e-149
2.92958e-17
1.2378e-216
6.29551e-153
-3.69797e-47
0.000131237
1.78054e-185
4.38546e-08
1.47286e-191
-1.37257e-156
5.09493e-91
6.42471e-51
7.47041e-60
-1.44685e-212
4.00296e-46
2.13123e-46
2.18903e-17
-1.01962e-244
1.96813e-58
-1.05812e-72
8.9399e-114
9.20611e-266
9.38725e-323
1.16751e-38
4.23935e-78
8.38961e-105
4.10667
3.34431e-40
-5.82741e-56
-9.64244e-37
-2.08043e-92
5.85236e-17
2.0104e-137
2.7376e-93
9.08101e-123
-4.24388e-131
2.80115e-10
2.57814e-57
1.6326e-38
4.40275e-63
-2.96649e-204
9.05509e-45
2.15179e-43
1.54678e-19
2.37493e-134
3.51459e-57
-2.22762e-07
2.1365e-08
8.16115e-194
2.27385e-16
3.07316e-97
0.554793
-6.75931e-263
4.37028e-44
2.10589e-64
-4.56172e-293
1.33247e-38
2.2025e-116
9.93221e-113
1.52185e-31
2.41257e-12
5.7604e-21
2.07891e-112
6.42323e-48
-2.55731e-255
-6.82072e-149
1.39568e-10
-5.21099e-47
3.8022e-140
9.95131e-45
-8.93086e-31
7.24757e-50
-4.58587e-79
-6.18324e-71
2.84077e-55
5.97352e-11
-2.5321e-202
-1.71027e-74
-1.5737e-96
1.84234e-42
1.01695e-11
5.97577e-50
7.40905e-57
3.56793e-125
-2.37568e-267
1.87655e-40
1.86639e-55
1.64825e-49
-3.09193e-208
3.11696e-97
1.94498e-61
6.77512e-52
-7.7609e-36
1.04696e-43
2.10204e-127
3.98437e-52
7.43508e-151
8.23557e-35
1.85532e-95
5.27622e-41
-8.78162e-90
2.15421e-110
2.03057e-52
2.15306e-97
1.24945e-106
7.27026e-128
3.2775e-204
1.02881e-72
-1.42701e-74
1.23004e-96
0.0428395
2.31501e-07
-3.20016e-165
2.19777e-141
-2.97456e-77
-9.94484e-77
1.09753e-281
1.59746e-44
-4.842e-54
5.45927e-48
-7.67153e-259
1.46819e-20
1.40333e-46
1.99076e-25
7.11745e-46
5.08693e-244
6.68512e-130
8.54489e-107
5.5946e-52
6.71029e-14
0.26897
1.89399e-200
4.28915e-96
-3.54653e-112
2.05948e-17
1.65401e-10
1.81283e-20
3.75926e-75
6.09797e-51
-1.73032e-256
2.61841e-68
-1.51567e-77
1.86806e-197
-5.62674e-32
-5.68131e-81
4.64828e-62
2.14637e-49
1.92703e-97
-3.79031e-78
4.55426e-56
4.61987e-246
0
4.64929e-71
-8.83837e-97
7.48827e-13
-4.12357e-98
-1.36321e-33
5.98979e-21
-5.35961e-62
1.16236e-196
-1.02833e-86
5.69856e-48
3.14884e-202
4.8662e-08
3.41523e-10
-3.75875e-164
-3.4797e-257
7.35304e-163
-6.70594e-204
-1.7553e-297
1.52606e-88
4.86492e-113
3.80927e-42
-1.51647e-81
9.93568e-54
3.03082e-67
5.42224e-18
9.91954e-51
1.37568e-48
1.78788e-86
6.94306e-94
-1.6331e-53
2.24889e-245
-1.33227e-109
3.05833e-120
-1.34213e-48
-1.94474e-38
6.5455e-14
-1.48871e-300
-5.80239e-40
2.30978e-66
4.32954e-87
7.70167e-35
1.20483e-54
9.23919e-38
2.98452e-11
-2.15528e-72
2.28286e-29
3.85481e-95
2.40115e-136
-5.32416e-67
5.496e-51
3.50116e-205
-1.95447e-85
3.90868e-09
-6.38315e-113
6.45783e-12
-2.62825e-194
1.10369e-51
-4.39039e-132
4.04882e-130
4.00195e-44
-2.6662e-30
8.3766e-39
-9.80335e-111
-2.68992e-89
3.57739e-87
1.42963e-28
9.67244e-41
6.66969e-69
1.3401e-27
-1.04813e-294
-5.02779e-76
0.827959
1.15011e-22
2.3399e-118
5.53841e-06
2.25903e-42
1.07882e-108
8.98188e-228
1.81357e-16
5.82874e-51
3.21132e-89
-3.18945e-58
-1.24149e-192
1.30731e-54
-1.30344e-121
1.29906e-32
9.42621e-55
1.37436e-55
-5.56551e-40
0
-7.72435e-155
2.23423e-109
-1.38194e-139
4.01859e-143
1.25767e-82
1.295e-109
2.50193e-111
2.51383e-32
5.83045e-41
-3.99658e-280
1.20697e-37
-1.87697e-150
7.36553e-244
-2.08774e-41
1.63016e-186
1.27636e-93
9.11931e-93
1.56767e-207
-5.43891e-202
4.3034e-121
1.06465e-60
3.62166e-88
1.90248e-47
4.31287e-64
-1.46936e-39
5.42409e-46
1.35295e-90
4.24822e-74
5.57608e-58
-1.76155e-314
-3.74381e-95
3.13231e-125
5.81044e-94
1.98785e-08
1.81514e-63
5.47889e-99
-3.00628e-70
-6.8858e-92
3.06424e-117
-2.60919e-114
4.15421e-90
1.3929e-125
-2.04963e-48
1.04483e-67
-9.17372e-247
3.81801e-62
5.31475e-69
3.21851e-59
-9.00684e-229
-2.17599e-42
1.34523e-12
-1.16466e-145
1.83367e-60
1.04513e-46
1.70357e-161
1.08576e-40
2.27031e-31
1.75559e-54
-1.3947e-53
1.92238e-36
3.50101e-69
4.70767e-75
3.06086e-61
3.50732e-53
-2.97568e-183
7.51037e-128
-1.26729e-306
-2.31742e-147
3.64719e-228
1.32157e-88
-9.6578e-79
6.86117e-50
1.31358e-61
0.0397481
-1.83778e-30
0.330194
2.00531e-65
5.65281e-16
0.00670343
2.36184e-26
0.381947
9.56925e-123
-4.15689e-80
2.59449e-95
1.68484e-95
-7.41047e-69
-2.19442e-161
1.21596e-83
6.53425e-133
-8.77384e-231
5.05165e-77
0.000235889
2.39053e-92
6.68281e-58
-3.47607e-93
1.77891e-123
8.63779e-69
-8.06489e-79
1.06443e-138
1.68712e-82
8.18894e-130
5.04723e-36
5.17753e-58
5.89493e-61
6.6221e-64
1.49966e-08
1.41236e-28
4.59287e-56
2.2874e-95
9.25301
-1.60344e-94
-2.67455e-80
-2.46771e-49
-3.08143e-44
6.01819e-86
5.30838e-39
6.79193e-200
-1.04619e-55
-2.07469e-41
2.6013e-64
2.73903e-65
1.44559e-108
-9.80904e-83
3.43758e-52
6.1701e-123
4.71688e-51
8.21947e-86
-9.64165e-109
-1.40134e-196
4.80267e-97
2.50087e-70
1.72522e-120
7.24461e-96
8.13911e-110
-1.10867e-152
-2.79174e-50
-9.85565e-124
8.34701e-27
6.22528e-68
3.08949e-92
1.10649e-208
-2.05412e-145
1.9327e-44
-3.34848e-83
1.14253e-255
-2.33897e-67
0.00464242
2.2711e-59
9.26415e-112
2.33499e-97
2.15925e-09
9.07618e-06
0.973114
2.51911e-150
1.95159e-153
-4.49234e-135
-6.15952e-107
3.19077e-53
1.60192e-15
2.18693e-12
1.25925e-25
6.90443e-57
2.68167e-129
1.5869e-223
7.55077e-220
-1.10704e-40
4.55854e-113
1.27954e-44
1.91598e-145
4.52166e-23
1.38513e-131
1.07018e-78
4.6306e-18
-7.66449e-64
1.13577e-45
-2.18252e-142
-4.77554e-87
8.42289e-242
1.54031e-40
5.48576e-58
7.27295e-122
2.89979e-230
4.30757e-98
7.86445e-34
7.73648e-161
2.00742e-67
8.39569e-10
-2.81849e-256
1.35863e-114
-1.09553e-57
7.13612e-59
6.57943e-70
-5.62942e-172
-3.98257e-157
-1.07406e-152
1.38392e-273
1.56185e-219
4.77105e-103
2.3692e-68
1.42515e-242
1.63708e-107
5.74559e-155
112.886
-5.28836e-42
-8.60161e-151
-5.93732e-303
2.1606e-54
-6.53777e-91
4.78088e-37
4.89549e-69
5.29387e-90
2.75284e-234
2.4315e-154
1.32942e-43
6.96168e-301
3.38455e-96
5.63579e-44
3.73142e-75
3.42741e-214
8.13563e-87
-2.45926e-278
1.45788e-101
-3.39444e-103
7.36833e-159
2.01409e-26