/*--------------------------------*- C++ -*----------------------------------*\
  =========                 |
  \\      /  F ield         | OpenFOAM: The Open Source CFD Toolbox
   \\    /   O peration     | Website:  https://openfoam.org
    \\  /    A nd           | Version:  7
     \\/     M anipulation  |
\*---------------------------------------------------------------------------*/
FoamFile
{
    version     2.0;
    format      ascii;
    class       surfaceScalarField;
    location    "1.179";
    object      phi;
}
// * * * * * * * * * * * * * * * * * * * * * * * * * * * * * * * * * * * * * //

dimensions      [0 3 -1 0 0 0 0];

internalField   nonuniform List<scalar> 
18389
(
-7.97325e-05
7.97325e-05
4.34582e-05
-4.34582e-05
-5.20443e-05
5.20443e-05
4.01436e-05
-4.01436e-05
-5.17839e-05
5.17839e-05
-4.00053e-05
4.00054e-05
-3.46833e-05
3.46833e-05
3.9037e-05
-3.9037e-05
-3.57007e-05
3.57007e-05
4.15515e-05
-4.15515e-05
4.49857e-05
-4.49857e-05
-3.44794e-05
3.44794e-05
-1.54676e-05
1.54676e-05
-4.28812e-05
4.28812e-05
4.34333e-05
-4.34333e-05
2.46685e-05
-2.46685e-05
1.95238e-05
-1.95238e-05
4.58915e-05
-4.58915e-05
4.59245e-05
-4.59245e-05
4.32834e-05
-4.32834e-05
-4.26322e-05
4.26322e-05
3.56269e-05
-3.56269e-05
4.30026e-05
-4.30026e-05
-5.84621e-05
5.84621e-05
-4.97233e-05
4.97233e-05
-4.17995e-05
4.17995e-05
-4.45468e-05
4.45468e-05
4.56265e-05
-4.56265e-05
4.58508e-05
-4.58508e-05
4.41464e-05
-4.41463e-05
-4.1341e-05
4.1341e-05
-6.30738e-05
6.30738e-05
4.31162e-05
-4.31162e-05
-4.47505e-05
4.47505e-05
4.08601e-05
-4.08601e-05
4.66975e-05
-4.66975e-05
-4.5543e-05
4.5543e-05
5.35755e-05
-5.35755e-05
-5.88637e-05
5.88637e-05
3.78651e-05
-3.7865e-05
4.48458e-05
-4.48458e-05
4.53767e-05
-4.53767e-05
-4.10135e-05
4.10135e-05
4.48993e-05
-4.48993e-05
4.58701e-05
-4.58701e-05
-4.58529e-05
4.58529e-05
-4.58545e-05
4.58545e-05
-4.06664e-05
4.06664e-05
-4.58837e-05
4.58837e-05
4.59454e-05
-4.59454e-05
4.59577e-05
-4.59577e-05
4.46214e-05
-4.46214e-05
3.77317e-05
-3.77317e-05
-4.57676e-05
4.57676e-05
-5.55453e-05
5.55453e-05
-4.38145e-05
4.38145e-05
4.57517e-05
-4.57517e-05
-4.59943e-05
4.59943e-05
4.3227e-05
-4.3227e-05
-5.93191e-05
5.93192e-05
-4.71471e-05
4.71471e-05
4.96054e-05
-4.96054e-05
4.57374e-05
-4.57374e-05
-1.01141e-05
1.01141e-05
4.57756e-05
-4.57756e-05
4.16072e-05
-4.16072e-05
5.12037e-05
-5.12037e-05
-4.58728e-05
4.58728e-05
4.23182e-05
-4.23182e-05
3.17237e-05
-3.17237e-05
1.93391e-06
-1.93391e-06
-4.40764e-05
4.40764e-05
3.28684e-05
-3.28684e-05
-3.65699e-05
3.65699e-05
3.97166e-05
-3.97166e-05
2.66257e-05
-2.66257e-05
2.61996e-05
-2.61996e-05
2.70488e-05
-2.70488e-05
2.4393e-05
-2.4393e-05
1.33606e-05
-1.33606e-05
0.00107248
-0.000879897
-0.000192578
0.00546681
-0.00207572
-0.00339109
-0.0059464
0.00594631
8.81654e-08
0.00335457
-0.0025984
-0.000756171
-0.00154618
0.00176202
-0.000215844
-0.00676536
0.00284374
0.00392163
0.00121519
0.00425162
0.00725509
-0.00587543
-0.00137966
0.00117725
-0.00191686
0.000739614
-0.000867898
-0.000678282
-0.00144228
-0.000314619
0.0017569
0.000159151
2.50309e-06
-0.000161654
0.000778465
-0.00222075
-0.00360329
0.000123248
0.00348003
-0.00320226
0.00289151
0.000310755
-0.00572137
0.00726287
-0.00154151
-0.00370934
0.00289695
0.00081238
-0.000564199
-0.00303909
-0.00174751
0.00238853
-0.000641015
-0.000465018
0.00255875
-0.00209373
-0.00160799
0.00111013
0.000497852
0.000583527
0.000581832
-0.00160208
-0.00516329
0.00124053
-0.00178657
0.000546042
0.00578028
-0.0038607
-0.00191957
-0.000658787
0.00331007
-0.00265128
-0.00583504
0.00583467
0.000483297
0.00127873
-0.00632862
0.000971568
0.00535705
0.00232677
-0.00298556
-0.00378969
0.00311351
0.000676181
0.002148
-0.00422371
0.00108915
-0.000202938
-0.000886216
0.00150381
-0.00128904
-0.000214769
-0.00280111
-0.00040114
0.00535236
-0.00534892
0.000369678
0.00113413
0.00522813
-0.00133742
-0.00389071
0.00200756
-0.000830308
0.00308568
0.00190869
-0.00499437
-0.000722077
-0.00306762
-8.89225e-05
-0.000154858
0.000243781
0.00393507
0.00332002
0.00116822
-0.0048959
0.00372767
0.0016269
0.00360123
-0.00498319
0.00632196
-0.00133878
-0.00113522
-0.00059324
0.00172846
0.00133792
0.00201664
0.000135293
0.000103626
-0.000238919
0.00502272
-0.00339582
0.00645722
-0.000839973
-0.00561725
0.00321862
-0.00265642
-0.000562201
0.00222446
0.000448088
-0.00267255
0.00295231
-0.00072785
0.0065035
-0.00539832
-0.00110517
0.000505662
-0.00387263
0.00336697
6.82752e-05
0.00638895
0.00480982
-0.00430416
-0.000535785
0.00105937
-0.000523585
-0.0017586
0.000623379
0.00191711
0.00224906
-0.00416616
0.000253452
-0.000333615
8.01621e-05
-0.00126937
-0.00284584
0.00411522
-2.62241e-05
0.00652973
-0.0028177
0.00229182
0.000525874
0.000388771
-1.24731e-05
-0.000376298
-0.00569234
-0.00025406
0.00187557
-0.00139227
0.000826733
0.00495355
0.000894313
0.000178165
0.00265928
-0.00648074
0.00382146
-0.0011202
0.000584417
0.00263888
-0.00390826
0.00619671
-0.00226163
0.00109209
0.00117729
-0.000787998
0.00103623
-0.000248233
-0.00110941
-0.000498576
0.00189346
0.00132515
-0.000595821
0.00142982
-0.00123773
-0.000192089
-0.00265446
0.0019863
0.000668169
0.00116712
0.000262698
0.00114004
-0.00498204
0.00384199
-0.00476298
0.00142213
0.00334084
-0.00455427
0.00611798
-0.00156372
-0.00506335
8.01648e-05
-0.00201755
-0.000636908
-0.000214936
0.000126013
-0.00122923
0.00465267
-0.00342345
-0.00122464
-0.000692229
0.000103311
-0.000192024
8.87124e-05
0.000126291
-2.29797e-05
-0.00126369
0.00464328
-0.00337959
-0.000156074
2.44318e-05
0.000131642
-0.00556817
0.00170747
-0.00119063
-0.000567966
-0.000449465
-1.8929e-05
0.000468394
-0.000543309
9.38426e-05
0.00101247
7.66854e-05
-0.00180931
0.000618684
-0.000150136
1.70056e-05
0.00013313
0.001368
-0.00234447
0.000976469
0.000271104
-0.000135811
-0.00392526
0.00514045
-0.00245681
0.00070931
-9.4449e-05
-0.00042755
0.000521999
0.00568629
-0.00216976
-0.00351654
7.71589e-05
0.0025072
-0.00258436
0.00447214
-0.00562639
0.00115425
0.00263389
0.0030524
0.00291351
-0.00283635
-0.00616226
0.000440898
-0.0064684
0.0036377
0.00283071
0.0022934
0.00390331
-0.00439195
0.00138321
0.00300874
0.00150585
-0.000265316
-0.0010264
0.00402089
-0.0029945
0.00463923
-0.00162686
-0.00301237
-0.00460955
0.00374782
0.000861734
0.00369334
-0.00503076
5.86986e-05
0.000330073
-0.00137391
0.00584606
-9.33541e-05
0.00214931
-0.00205595
-0.00206518
0.00260611
0.000176356
-0.00278246
-0.00127741
0.00264541
-0.000651065
0.00325717
0.00164074
-0.00173409
0.000911499
0.00397406
-0.00488557
-0.00504174
0.00384317
0.00119857
0.00255189
-0.00359409
0.0010422
-0.00333497
0.00411779
-0.000782811
0.000338168
-0.00367314
-0.000869588
0.000869588
-0.000446957
0.000352508
-0.000126974
-0.000973465
0.00110044
0.00506988
-0.00184297
-0.00322691
-0.00243301
-0.000368108
0.00290012
0.000157835
1.65624e-05
-0.000174398
-0.00146842
0.00112318
0.000345237
-0.000140951
-0.00490079
0.00506208
-0.00389386
0.000255815
-9.6664e-05
0.00444344
0.000579276
0.00406759
-0.00151569
0.000164915
-7.0799e-06
-0.00633469
-0.000983921
-0.000825396
0.0043002
-0.00190478
-0.00239542
0.00275593
0.00154427
0.00107775
-0.00563201
-0.00225693
-0.000560767
-0.00111997
-0.000958635
0.0020786
3.89183e-05
-0.00272192
0.002683
-0.00235814
0.00123817
-0.00221812
0.0053038
-0.00462306
0.00160544
0.00301762
0.00254612
0.000669678
-0.000333263
-0.000336415
-0.00601455
0.000582968
0.00543158
-0.00418988
0.00582909
-0.0016392
0.0018254
0.00162914
-0.00345454
-0.00167196
0.000899177
0.000772777
-0.002715
0.00207954
0.000635461
0.00110143
0.000774141
0.000247197
-0.000328938
8.17422e-05
0.00490925
-0.00399775
-0.00638538
0.00557683
0.000808559
-0.00479394
-0.00167446
0.00334206
0.000647975
-0.00399003
0.000153942
-0.000162141
8.19889e-06
0.00059048
-0.000125309
-0.000465171
-0.00451849
0.00261372
0.000382446
-0.000566969
0.000184523
6.00956e-05
-0.000929685
-0.00257572
0.00448442
-0.00530394
-0.000324459
0.00562841
0.000201348
0.000182385
-0.000383733
0.000679527
-0.000679527
0.00168429
-0.000728701
-0.00211036
0.00181069
0.000299673
0.00440468
-0.00302148
-0.000162338
6.26494e-06
-0.00120193
0.00126203
0.000722737
0.00128483
0.00234959
-0.000270047
-0.00401978
-0.00128416
0.00111455
-0.00498719
0.00321307
-0.00447676
0.000835583
-0.00213529
0.00129971
0.00335948
-0.00458871
-0.00271169
-0.00180681
-0.00483578
0.00469483
-0.000676086
-0.00533846
-0.00516024
0.00149822
-0.00145441
-4.38102e-05
0.00223017
0.000119412
-0.00601384
0.00204819
0.00396565
-0.00121933
0.000526002
0.000693328
0.00145753
0.00294716
-0.00462713
-0.00101438
0.00564152
-0.000212797
0.000138505
7.42916e-05
-0.00550998
0.0013201
0.00375307
-0.0049369
0.00118383
-0.00149252
-0.000617838
-0.000536676
-0.000637499
0.000138366
-0.000203833
6.54669e-05
0.00500146
-0.00386143
-0.00130164
0.00512596
-0.00382433
-0.000396133
-0.0008058
-0.00586126
0.000440017
0.00539465
-0.00616927
0.00456718
-0.000920924
-0.00546446
-0.00109227
-0.000376141
-0.00181599
0.00285663
-0.00104064
-0.000419203
0.000322095
9.71087e-05
-0.00173203
0.00141742
0.00160157
-0.000103353
0.000826768
-3.67485e-05
-0.00169529
0.00279626
0.00121845
-0.00303443
0.00606027
-0.00048344
0.00528475
6.76024e-05
-0.00528064
0.00439109
0.00114593
-0.00553702
0.000556432
-0.000768809
0.000212377
-3.98548e-05
-0.000407102
-6.51836e-06
0.00606678
-0.000162208
0.000156852
5.35635e-06
0.000133324
2.06184e-05
0.00253576
-0.00335803
0.000822267
-0.0019291
0.000738644
0.00119046
0.00792815
-0.00345596
-0.00447218
0.00117042
0.00126413
-0.00243456
0.000103093
-0.000174135
7.10422e-05
-0.000805872
0.00133187
0.00116505
0.00318133
-0.00434638
-0.0056128
0.000165325
0.00544747
-0.00402037
0.00299398
0.00173508
0.00479464
0.00459446
0.00333368
-2.21633e-05
0.000190208
-0.000168044
-0.00131122
0.00439884
-0.00308762
0.000302179
-0.000342034
-0.000131315
-8.14811e-05
0.00410086
-0.00227548
0.00475365
-0.00501654
0.000262884
-0.00324204
0.00607909
-0.00283704
0.00252661
0.00157425
0.00575743
-0.00100378
-0.00137883
-0.0056209
0.00137278
0.00424813
0.000654617
0.000520714
-0.00117533
0.00126956
-0.000614938
0.000585326
-0.00111023
0.000524907
0.00110604
0.000274495
0.000395184
-0.000678264
0.00443134
0.00151671
-0.000393532
0.00354532
-0.00613734
0.00259203
0.00153268
-0.00258394
0.00105126
-0.00432387
0.00116881
0.00315505
0.00291221
-0.00422343
-0.00491011
-0.00125915
-0.00410068
0.00126952
0.00283115
0.00125123
0.00314761
-0.00326439
-0.000836293
0.00222587
-0.00105545
-0.000683937
-0.00252905
0.00321298
0.00240507
0.000620686
-0.00302575
-0.00158857
0.0011996
0.000388969
0.000270015
0.00148592
-0.00196426
0.000478339
-0.000110881
-0.000222735
-0.00026441
0.000153529
-0.00435563
-0.000253916
-0.000292793
0.00117225
-0.000879456
0.00435138
-0.00464567
0.000294287
-8.84216e-05
0.000117768
-2.93459e-05
0.000975668
0.00338065
-0.00435631
-0.000157001
6.858e-05
-0.00475252
0.000711481
0.00404105
-0.000727665
0.000123911
0.000603751
7.06589e-05
-6.81558e-05
-0.000401134
0.000864674
-0.000347475
-0.0005172
-0.00603572
0.000637407
-0.00254967
-0.000128185
0.00267785
-0.00316886
0.00442009
0.00218082
-0.00108872
-0.00116718
-0.0011725
-5.21383e-05
-0.00351949
-0.00124348
0.00150556
-0.00040307
-0.00110249
0.00191861
0.00183885
-0.00375746
0.00505029
-0.00161911
-0.00343118
0.000793486
-0.00542061
-0.0013739
0.00300304
0.00196314
0.000779331
-0.00274247
-0.00349794
0.00447361
-0.000152874
2.7376e-06
0.000937295
-0.00443523
-0.00449715
-0.00014853
-0.000997112
-0.00461569
0.0046352
0.00149423
0.00355606
0.00416021
0.00114315
-0.00530336
3.6672e-05
5.88726e-05
-9.55447e-05
-0.00140469
0.00336783
0.00371547
0.00354741
-0.00139814
0.00236941
-0.000971262
-0.00248099
0.000463439
-0.000878413
0.000751438
-0.000204138
0.000405487
-0.000213562
0.00169949
0.00376318
-0.00184457
-0.0010687
-0.000603256
-0.000107167
-0.000157243
0.00355043
-0.00163331
-0.00240371
0.00465278
0.000674532
-0.00309589
0.00242136
0.000637664
0.000762829
-0.00105562
0.00209971
-0.00131687
-0.00327441
0.00459127
-0.00216762
0.00482689
-0.000553645
0.00344515
0.000238246
-0.00022124
-0.00236189
0.000963766
0.00232753
-0.00386962
0.00154211
-0.00120636
5.77908e-05
-2.11188e-05
0.00214654
-0.00279643
0.000649903
-0.00116726
-0.000421301
-0.00353526
0.00450683
0.00119699
0.00167354
-0.00287053
-0.00168874
0.00366476
-0.00197602
0.00424191
-0.000861272
0.000234411
1.41068e-05
-0.000248518
-0.00372285
0.0020341
-0.00143288
0.00472251
-0.00328963
0.000878014
0.00130281
0.000170703
0.000508823
0.00025301
-0.000300691
4.76807e-05
0.00170048
0.000209834
-0.00191031
0.00301884
-0.00459477
0.00157594
-5.28088e-05
0.000374228
-0.000321419
0.00156096
-0.000361363
0.00139909
-0.000608238
-0.000790851
0.00282293
-0.00392818
0.00110525
0.0026792
-0.00374321
0.00106401
-0.00518628
0.00194424
0.00390662
-0.000887777
-0.000637393
-0.00237329
0.00301069
0.00140778
-0.00511816
0.00371038
0.00336053
-0.00145893
-0.0019016
-0.000679785
0.00172311
-0.00104333
0.00477123
-0.00303615
-0.000692662
-0.00196375
-0.00598253
0.00514255
3.939e-06
0.000121696
-0.000125635
-0.00157748
0.00119882
0.00037867
-0.00490829
0.00630893
-0.00140064
-0.00188468
0.000729148
0.00115553
0.000407305
0.00268648
-0.00208764
-0.000598841
0.00343562
0.000489001
-0.00392462
0.000122915
-1.98216e-05
0.00517249
0.000336678
-0.00550916
-0.00194052
0.00379755
-0.00185703
0.00277042
-0.000644468
-0.00212595
0.000462554
0.00040212
-0.000436701
0.00387232
0.00202615
-0.00396668
0.00070209
-0.000265017
-0.000437072
-0.000643018
2.30952e-05
0.000619925
-0.00315205
-0.00576421
0.00576633
-0.000274312
0.000949591
-0.00067528
-0.0022865
-0.000194501
-0.00455655
0.00323968
-0.00087525
0.00113318
0.00360764
-0.00501833
0.00141069
0.000410671
-0.00296034
0.00232948
-0.00244164
0.000112155
-0.00157142
0.00148228
8.91397e-05
-0.00120895
-0.000368531
-0.00339151
0.00342942
-0.00223242
0.000457242
0.000133239
-0.001733
0.00105321
-0.00279619
0.000749735
0.00204646
0.00024241
-7.99907e-06
-0.0034777
0.00102467
0.00245303
-0.00144461
0.00560482
0.000339924
-0.000953401
0.000613478
0.00211658
0.000653839
-0.00127774
0.000304281
0.00111118
0.00121831
-0.00143232
0.00496206
-0.00352974
-0.00484968
0.00576731
-0.000917629
-0.00117531
0.00228213
0.00410681
0.00107262
3.75106e-05
0.00586754
-0.00553007
-0.000337468
0.0035598
-0.00466405
0.00110425
0.00309347
-0.000688399
0.00542694
-0.0018193
-0.00250293
-0.000974765
-0.00217231
-0.000323419
0.00249574
0.00241306
-0.00196498
-0.00160817
-0.00424188
0.00274675
0.00149513
-0.000326814
0.00122599
0.00121746
0.00365934
-0.0048768
-0.000287691
0.000670137
0.00305957
-0.00238503
-0.00472455
-0.00125799
0.00647067
-0.00129819
0.00424432
0.00206064
0.000498106
0.00285513
-0.00212517
-0.000729958
0.00473616
-0.00245403
-7.22472e-05
-0.00332665
-0.000869259
0.00419591
0.000387745
-8.64569e-05
-0.000301288
-0.00514444
0.0061057
-0.000961262
-0.00073918
0.00190498
-0.0011658
-0.00069672
0.00525196
-0.00455524
0.00117094
-0.00191012
-0.00011175
-0.00576368
-0.000787998
0.00203623
0.00383131
-0.000244988
-0.00192733
0.000251398
-4.20146e-06
0.000362595
-0.000487904
0.0033622
-0.000826439
-0.0052269
-0.000271645
-0.000147558
0.000150191
-0.00013357
-1.66207e-05
-0.0024833
0.000125154
-0.00042266
0.00159019
-0.00101236
-0.00057783
0.00247197
0.000592938
-0.00306491
-0.000713282
0.00318524
-0.00520292
-0.000271501
0.00547442
0.00375053
0.00137544
0.00441312
-0.00123179
-0.000132854
0.00254591
0.00540386
-0.000206652
-0.00519722
-0.00608691
0.00425233
0.00183459
0.00321096
-0.00126808
-0.00435282
0.000202438
-0.000224601
0.000580596
0.000818491
0.00107845
0.000115251
-0.0011937
0.00421229
0.00119158
-0.000959468
0.00317176
-0.00221229
0.00473789
-0.00139583
-0.00217856
0.0027923
-0.00061374
-0.00117708
-0.000125044
0.000317507
-0.000192463
0.00344636
-0.00414308
0.00134545
-0.000987095
-0.000358349
0.00159572
-0.000396903
-0.00325089
0.00229142
0.00549091
-0.00434498
-3.0625e-05
0.000352721
-0.00535646
0.000448167
0.00545328
-0.00190797
-0.00100343
-0.00361439
0.00461782
-0.00064687
0.00288274
-0.00223587
0.00549726
-0.00286245
-0.00263481
-8.83975e-05
0.000592757
-0.000677208
0.000660539
1.66685e-05
-0.000689008
0.00172935
-0.00104034
-0.0031482
-0.00117566
0.000155567
-1.72012e-05
-0.00122456
-0.00478928
-0.00307705
0.00239311
-0.000467042
-0.000212484
-7.26281e-05
-8.958e-05
-0.00120406
-0.000805692
-0.00523004
-0.00283806
0.00219119
-0.000818451
0.00118813
0.00113245
0.00438338
-0.00551583
0.00340289
-0.00275492
0.000468681
0.000773552
-0.00288407
0.00211052
0.00499126
-0.00494384
-4.74254e-05
-0.00320956
0.00361559
-0.000406023
0.000207795
-9.56095e-05
-0.000112186
-0.00499365
-0.0014871
-0.00175709
0.00369025
-0.00193316
0.00298166
-0.00220811
-0.00378362
0.00202653
0.001395
-0.00258174
0.00118673
-0.00363291
0.00568111
0.00650037
-0.00219655
-0.00430382
-0.00240062
0.00237376
2.6865e-05
0.00561942
-0.00164537
0.00118628
-0.000924257
-0.000262029
-9.11504e-06
0.000262125
0.000249201
-0.000772902
0.000523701
-0.00304652
0.00365136
-0.000972163
0.000845168
-0.00104811
0.00236274
-0.000632192
-0.00173055
0.00220487
-0.000504398
0.00452829
0.000629837
0.00173291
-0.00175434
0.00106534
0.000408592
-0.000464691
5.60995e-05
0.00221099
-0.00174457
-0.000466421
0.000833157
-0.0051478
-0.000544536
0.000369493
-0.000588344
0.000218851
-0.00410088
0.00547365
0.000942168
-0.00111664
0.000174472
-0.00152136
0.00216476
-0.000643401
-0.00149143
-0.00275045
-0.0053822
-0.000156605
0.00553881
0.000300071
0.000108292
4.18995e-05
0.000127895
-0.000127821
-7.40081e-08
0.00412347
-0.00290601
-0.00380387
-0.00233346
0.00346916
0.0030312
-0.00259596
0.000733584
0.00186238
-0.000844683
0.00223968
-0.00229652
-0.0001041
0.00272897
-0.00377738
0.00104841
0.00130617
-0.000133925
0.000461931
0.000550537
-0.00327805
0.00096493
0.00231312
0.000915255
-0.000596403
-4.66165e-05
-0.00427872
0.00172576
9.71961e-05
-0.00182295
-0.00396567
0.00146556
0.00250012
0.000521488
0.00146452
-0.000883932
-0.000246351
-0.00466078
0.00490713
0.000784709
-0.00247679
0.00169209
0.0012022
0.00131232
-0.000474475
-0.00171277
0.00218724
0.00258007
-0.00179536
0.00447107
-0.00353377
-0.000783244
-0.00264056
-0.000227497
0.000251929
-0.000701899
0.00176254
-0.00106064
0.00265892
-0.0036674
0.00100847
0.000136446
2.04059e-05
-0.00236327
-0.000914782
0.00142158
-0.00163642
0.000214846
-0.00277462
0.000686983
0.0012765
-0.00141878
0.000142283
0.00161901
-0.00180789
0.000188882
0.000676579
-0.00372723
-0.00116866
0.0013538
-0.00490535
0.00355156
-0.000914678
0.00357358
0.000116526
-7.70981e-05
-3.94277e-05
0.00475948
-0.00362702
-0.000329182
-0.0015327
-0.00400927
-0.00150071
0.00209115
0.000701146
-0.00101597
-0.000924134
-0.00452687
-0.0016354
-0.000384584
0.00124257
-0.000931136
-0.000311429
-0.00149503
-0.00108892
0.000658538
0.00225631
-0.00291485
-0.000114283
0.000670714
-0.000715994
3.87865e-05
-0.00245636
0.00196644
0.00139409
-0.000729628
0.001659
-0.000929368
-8.68721e-05
-0.000116961
0.000318309
-0.00194582
0.000453297
0.00160306
-0.00231086
0.000707805
-0.00334522
0.00257923
0.00076598
0.00119411
0.00241802
-0.00361213
-0.00175268
0.00105078
-0.00294071
-0.00102496
-0.000795934
-0.00254929
-0.00167696
0.00125241
0.000424555
0.0017631
-3.73436e-05
-0.000764289
-0.00243296
0.00319724
-0.000679614
0.00291476
-0.00225622
-0.000858519
-0.00394762
0.00480615
-0.00234436
0.00233917
5.19295e-06
-0.000727665
-0.00155919
0.00054683
-0.00240471
0.00381924
-0.00141453
0.00323276
0.00288522
0.000194393
3.62192e-05
-0.000230613
0.00234013
-0.000602815
-0.00173731
0.000188249
-0.00018431
-0.00358978
0.00494357
-0.00329113
0.00524299
-0.00195186
-0.00350911
-0.00150922
-0.000914186
0.00323134
-0.00231715
0.00285585
0.00177588
-0.0041806
-0.00499556
-0.000148877
-0.000795047
0.00284963
-0.00205458
-0.000431676
0.000378867
-0.000528875
0.00167494
-0.00114607
-0.00403717
0.00334218
0.000694984
-0.00326986
0.00235567
-0.00386934
0.000675481
0.00319385
0.0014095
-0.00101264
-0.000396861
-0.00589958
0.000696654
0.00184657
-0.00141061
-0.000435954
0.00140173
-0.000402184
-0.000999547
7.83752e-05
0.00012942
0.00293335
-0.000641524
-0.000222708
-0.00348729
-0.000382049
0.00042846
-0.0030534
-0.000983773
-0.00233552
-8.83981e-06
-0.00292539
0.002288
0.000720963
0.00260159
-0.00332256
0.000585128
-0.00085944
0.00140468
-0.00671494
0.00531027
-0.00577867
0.000984726
-0.00234615
0.00354026
0.000691091
0.000258502
-0.00273264
0.0034536
-9.98146e-05
0.00509108
0.000620488
0.00170265
-0.00232314
-0.00177551
0.00124664
0.0027462
-0.00369605
0.000949847
0.00510111
0.000666046
0.00154494
0.000315192
0.000386897
-0.000364053
-0.000404755
0.000180961
-0.00174517
0.00176684
-0.00088883
0.000852119
0.000612403
-0.000585905
0.00301112
-0.00242521
-0.00149992
0.00184171
-0.000341786
-0.00489565
0.00380282
0.00109283
-0.00480447
0.00151334
-3.90538e-05
3.88831e-05
1.70642e-07
-0.00281013
-0.000857269
0.0010757
-0.00129202
0.000216316
0.00136208
-0.00495186
0.00103489
4.35528e-05
0.00124425
0.000695036
0.0021877
-0.00366716
0.000857042
0.00019411
-0.00504379
0.00190009
0.00120855
0.000696431
-0.0052726
-0.000491612
0.00565458
0.00118509
0.0071079
-0.00218493
-0.00492296
0.000788944
-0.000378975
-0.00040997
0.000720174
-0.00138203
0.000778771
-0.00386022
-0.00125795
0.000317507
-0.000928727
-0.00041976
0.00134849
0.00232886
0.00400856
-0.00486707
0.00270238
0.000834904
-0.00353729
0.00124952
-0.000964194
-0.00028533
0.000745653
0.00159447
-0.00013505
0.000138275
-3.22459e-06
-0.000709977
0.00288348
-0.0021735
0.00362169
0.00110082
-0.00126193
-0.000415032
0.00141428
-0.00154092
0.000126638
4.69147e-05
6.96111e-05
-0.00447771
0.000968602
-0.00165342
0.000444459
-0.00364689
0.0029336
-0.000949925
7.00274e-05
0.000935743
0.0026794
-0.00361515
0.000846872
-0.00126314
0.00419263
-0.00292949
0.000318386
0.000279907
4.65775e-05
-0.000326485
7.82999e-05
-0.00539167
0.00531337
-0.00263135
-0.000782653
0.00341401
-0.00349455
0.00260608
0.000888481
-0.00276824
-0.00026231
-0.00171348
-0.00490746
0.00089819
-0.00145368
-0.000881845
-0.00106357
0.00379254
0.00170763
-0.00372568
0.00201806
0.000105689
2.22062e-05
0.003726
-0.00201837
0.00286219
0.000963291
-0.00382547
-0.00130102
0.00174063
-0.000439613
0.00357401
0.00110265
-0.00467666
0.00718357
-0.00197233
-0.00521123
-0.0021268
-0.000711255
-0.00172697
0.00234745
0.00377176
-0.00492845
0.00115668
-0.0028016
0.00373734
0.00114015
-8.46389e-06
-0.00113169
0.00148192
0.0009066
-0.00551048
0.000600356
0.000433784
0.000355159
0.00292155
-0.00112389
-0.00252159
0.00247945
4.21343e-05
0.000504915
-0.00184031
0.00133539
-0.00387045
-0.00119289
0.00109013
-0.00254381
-0.00529914
0.000151347
-0.00124812
-0.000526066
0.00177419
0.00563612
-0.00449297
0.000104347
0.000283398
-0.00301472
0.00319108
0.00144011
-0.0010713
-0.000368817
0.00346764
0.00475957
-0.000956754
0.00064812
-0.00327947
0.00107662
-0.000952712
-5.28871e-05
0.000461478
0.000393951
-1.97227e-05
-0.00206372
-0.000456526
0.00153222
-0.000915325
-0.00349754
0.00076491
-2.82087e-05
-1.08452e-05
0.00599855
-0.00492079
0.0052214
-0.00439466
2.54623e-05
-0.000603751
0.000578289
0.00194864
-0.000458475
-0.00149016
0.00335888
-0.000757285
-0.00256775
0.00336114
-0.000793394
-0.00183252
0.000531505
0.00127895
-0.000952055
-0.000326893
-0.000118767
-0.000210171
0.00205907
-0.000548571
-0.0015105
-0.00138063
-0.00239393
-0.000127648
0.00208892
-0.00274541
0.000656493
0.00280625
-0.0007509
-0.00205535
0.0041034
-0.00434975
0.000314754
0.00224269
-0.000639629
-0.000683473
0.000834329
-0.0036787
0.00504077
0.00123056
0.000467605
-0.00171573
-0.00286756
0.00209627
0.00363332
0.00158808
-0.00113598
-0.0038334
-0.00114864
0.00130284
-0.00171729
0.000414448
0.00367505
-0.00318606
-0.000193826
0.00113599
-3.87609e-05
-0.000270428
0.000309189
-0.000701935
-0.00189403
0.00377129
-0.00490973
0.00113844
-0.00185924
0.00235235
-0.000493113
-0.00115715
0.00213204
0.000751436
-0.00226187
0.00375513
-0.00149326
0.00150529
-0.00114093
-0.000364362
-0.00100073
0.000273065
0.000187435
-0.000434531
0.000247096
-0.000426583
-0.00122683
-0.00248021
0.00250389
-2.36815e-05
0.00144953
-0.00371141
0.00162339
-0.000370984
0.000368368
-0.000418848
5.04804e-05
-0.000826088
0.000592848
0.00023324
-0.000795165
-0.00285192
0.000835588
0.00201633
-0.00199583
-0.000854187
-0.000713831
0.00156802
-0.0052443
0.00389558
0.00134871
-0.00122102
0.00124648
-0.000576396
-0.000115917
0.000692313
0.00286853
-0.0007365
-0.000770358
-0.000160201
0.000930559
0.00183983
-0.00137223
0.00169726
-0.000394414
-0.000144396
-0.000633667
-0.00420571
0.00483938
-0.00138525
0.00283095
0.00427695
-0.00239854
-8.16689e-05
0.00311917
-0.00473828
0.000733401
0.00158107
-0.00231448
0.0020066
-0.00280164
0.0019951
-0.000737378
-0.00125772
-0.00179595
0.000455977
0.00133997
0.00431627
0.0028673
-0.00552115
0.00133954
0.0041816
-0.00125349
-0.0039908
-0.000460293
-0.00133566
-0.000996971
-0.000562216
-0.00129237
-0.000424921
0.00114519
-0.00053352
0.00150805
-0.000974526
-0.00175705
0.00129675
-0.000944505
-0.000207196
0.0011517
0.00217072
-0.00286705
0.000696341
-1.17705e-05
0.000206164
0.00103336
0.00606242
-0.00140407
-0.00465835
-0.00203618
-0.00187322
0.0013342
0.000539021
0.00127089
-0.000978215
-0.000292678
-0.00229115
-0.00102872
0.00331987
-0.00266907
0.00358448
-0.000915416
-0.000920967
0.00111189
1.12621e-05
-0.00112315
0.00376092
-0.00493794
0.00117701
0.00174751
-0.00135531
-0.000392192
0.00242707
-0.00122487
0.00274018
-0.000634936
-0.000191152
-0.00408963
0.00229074
-0.00180215
-0.000488597
0.000560652
-0.00200883
0.00144818
-0.00251287
-0.000845161
0.000859551
-0.000657824
-0.000201728
-0.000180053
-0.00364453
0.000975462
0.000660421
-0.000472985
0.00259005
0.000994429
0.000318839
0.00129649
0.00069861
-0.00160275
0.00233614
-0.00149832
0.00098527
0.000513052
0.00355317
-0.000690964
-0.00380958
0.00610298
-0.0011488
-0.00248855
0.00682945
-0.0043409
-0.0008895
0.00356891
-0.00414181
0.000932259
-0.00210168
0.00424967
-0.00069718
-0.00161368
-0.00245111
0.0017076
0.000743512
-0.00128024
0.000379443
-0.000435217
5.57743e-05
-0.00137401
-0.000776857
-0.000153525
0.000930382
-0.00156466
0.00135906
0.0002056
0.00203381
0.000815823
6.24498e-05
-0.00130018
-0.000555769
-0.000826258
-0.00242178
-0.000485158
-0.00138806
-0.000170996
0.00159257
-0.000180713
0.00341141
-0.000514464
0.00133895
0.000199485
-0.000825658
-0.000960913
-0.00192982
0.00247699
-0.000547174
-0.00104317
-0.00572889
0.00351078
0.00147396
-0.000621846
0.00288652
-0.00121298
0.000967021
-0.00135877
-0.00453024
0.005889
0.000620668
-0.00255049
0.000741735
-0.00368982
0.00269685
0.000992962
0.000887311
-0.00142083
0.00222398
-0.00311871
0.00089473
0.00119682
-0.00342985
0.00223303
0.00086107
0.00168743
-0.0025485
-0.000174197
0.0017932
0.00274101
0.00107871
0.00361716
-0.000413519
0.00078301
0.003158
-0.00402726
0.00098569
-0.00327683
0.000435325
0.00412541
0.00146758
-1.05587e-05
-0.000275096
0.000285654
-0.0061933
0.0038561
0.00233721
-0.000831403
-0.00261367
0.00344508
0.00263974
-0.00177867
-0.0036971
0.000895497
-0.00132124
-0.000435812
-0.000152635
0.00131976
0.00372868
0.00123337
0.000224615
0.00130882
-0.000991852
-0.00031697
0.000882437
0.00059153
-0.000313954
0.00376864
-0.00493569
0.00116706
0.00307863
-0.000854666
-0.00139813
0.00190304
0.00125757
-0.00355467
0.0022971
-0.00116931
0.00145591
0.000678643
-0.00213455
0.000192702
-0.000203261
0.00219849
-0.00086057
-0.00125032
0.000330607
0.000926203
-0.000348849
-0.000577354
0.0035326
-0.00227503
-0.000512762
0.00229462
-0.00178186
0.00101882
-0.00297219
0.00207971
0.000892486
0.000106837
-1.14744e-06
0.00467434
0.000539951
-0.00570325
-0.00519748
0.00392759
0.0012699
-0.00107911
-0.00269381
0.00377292
0.0022213
0.00372501
0.00282622
-0.00375421
0.000927997
-0.0014685
0.00109996
-0.000962694
0.00337771
-0.00241502
0.00149645
0.000562624
-0.00378538
-0.00240793
0.00108259
-0.00230168
0.0032166
-0.000914923
0.00343715
-0.00083107
0.000396557
-0.000818123
0.00254072
0.000896428
-0.000635755
0.00431081
-0.00130807
0.00171631
-0.000408249
0.00200673
-0.00126809
-0.000389787
0.00607685
-0.00492041
-0.00046179
0.00085917
-0.00246192
-0.00539161
-0.00172179
0.000413726
-0.000678155
0.000101759
-0.000870877
0.000212414
-0.0014682
0.000676614
0.00156607
-0.000905426
0.000135068
0.000805493
0.00251574
-0.00332124
-0.00109514
0.00187361
-0.0019467
-0.000474432
0.00196106
-0.00148662
-0.000891214
-0.00208097
-0.00195164
0.00147721
-0.00265723
0.00346272
-0.00163947
0.000589798
0.00104967
-0.000983772
0.00357382
0.00602781
-0.00231234
-0.00130207
-0.000419719
-0.00173848
0.00109762
0.000640865
0.000906102
-0.00452033
0.00361423
-0.00131148
0.000544446
0.000767033
-0.00403572
-0.00116177
0.000191692
-0.00113619
0.00193632
-0.000727768
-0.00134915
-0.0038091
0.00515826
0.000999844
7.27753e-05
0.00329733
-0.00252745
-0.000769883
0.000141083
0.00126065
0.000876302
-0.000669276
-0.000207027
-0.00134449
-0.00101741
-0.0010886
0.00513094
-0.00404234
0.000637699
-0.00249694
0.000135258
0.00127903
0.00377198
-0.00496275
0.00119077
0.00288181
-0.00204622
0.000101897
-0.000168246
6.63496e-05
0.00102927
0.000138116
0.000104293
0.00235568
0.00370675
-0.000584077
-0.000803656
0.00138773
0.000653697
0.00177082
-0.00242452
0.00240292
-0.00169957
-0.000703352
0.000475819
0.00147282
0.000426274
-0.000512698
-0.000798781
0.000600091
-0.00532464
0.000690398
-2.98595e-05
-0.00116371
-0.00131944
-0.00379421
0.00511364
0.00103225
0.00143682
-0.00189529
0.0025466
-0.000394841
-0.0049088
0.00530364
0.000120642
-1.87454e-05
0.000664696
0.00127162
0.00272727
0.00094737
-0.00367464
0.00137475
0.000471825
0.00258702
-0.00364081
0.00454692
0.00277365
0.000844057
-0.0036177
0.0016349
-0.000832438
-0.000802462
0.0013279
-0.00101855
-0.000309346
0.000423947
0.00106018
-0.004701
0.000218478
-6.77692e-06
0.000199479
0.0060519
-0.00129243
0.00152569
-0.0021285
0.00252852
-0.00182045
-0.00070807
0.00086697
-0.00254396
0.00167699
0.00523466
-0.00281545
-0.000927754
-0.00158414
0.00500747
0.00148636
-0.00178139
0.000295029
0.00049974
-0.000103765
-0.000395974
-0.000997701
-0.00313988
0.00413759
0.000742882
0.00181882
-0.0025617
0.00176754
-0.000281178