/*--------------------------------*- C++ -*----------------------------------*\
  =========                 |
  \\      /  F ield         | OpenFOAM: The Open Source CFD Toolbox
   \\    /   O peration     | Website:  https://openfoam.org
    \\  /    A nd           | Version:  7
     \\/     M anipulation  |
\*---------------------------------------------------------------------------*/
FoamFile
{
    version     2.0;
    format      ascii;
    class       surfaceScalarField;
    location    "5";
    object      phi;
}
// * * * * * * * * * * * * * * * * * * * * * * * * * * * * * * * * * * * * * //

dimensions      [0 3 -1 0 0 0 0];

internalField   nonuniform List<scalar> 
38800
(
-0.000125493
0.000125469
2.41444e-08
0.000160129
-0.000285642
2.00193e-08
0.000660258
-0.000500125
-4.50652e-09
0.00144007
-0.000779809
-6.6577e-09
0.0024685
-0.00102842
-6.59894e-09
0.00376605
-0.00129754
-3.38529e-09
0.00532833
-0.00156228
-2.17265e-09
0.0071291
-0.00180076
-1.17677e-09
0.00911297
-0.00198387
-1.02443e-09
0.0111943
-0.00208131
-1.0208e-09
0.0132972
-0.00210297
-1.02713e-09
0.0153768
-0.00207958
-9.47395e-10
0.0174348
-0.00205799
-8.08986e-10
0.0194848
-0.00205
-6.56427e-10
-0.00208778
-5.2461e-10
0.0215726
-0.000121773
0.000247241
0.000170828
-0.000578242
0.000681083
-0.00101038
0.00147333
-0.00157205
0.00251473
-0.00206983
0.00382319
-0.002606
0.00539061
-0.00312971
0.00718864
-0.00359879
0.00916198
-0.00395721
0.0112285
-0.00414786
0.0133166
-0.00419102
0.015384
-0.00414695
0.0174331
-0.00410718
0.0194774
-0.00409425
-0.00417148
0.0215611
-0.000114359
0.0003616
0.000192085
-0.000884686
0.000722302
-0.0015406
0.00153883
-0.00238858
0.00260528
-0.00313628
0.00393443
-0.00393515
0.00551118
-0.00470646
0.00730338
-0.00539099
0.00925606
-0.00590989
0.011294
-0.00618582
0.0133533
-0.00625027
0.015397
-0.00619073
0.0174292
-0.0061393
0.0194622
-0.0061273
-0.00624718
0.0215379
-0.000103305
0.000464904
0.000223623
-0.00121161
0.000783064
-0.00210004
0.0016346
-0.00324011
0.00273643
-0.00423811
0.00409398
-0.0052927
0.00568251
-0.00629499
0.00746515
-0.00717363
0.00938784
-0.00783258
0.0113851
-0.00818306
0.0134035
-0.00826872
0.0154139
-0.0082011
0.0174217
-0.00814715
0.0194387
-0.00814429
-0.00831129
0.0215028
-8.86887e-05
0.000553593
0.000265036
-0.00156534
0.000862134
-0.00269714
0.00175782
-0.0041358
0.00290296
-0.00538325
0.0042938
-0.00668354
0.00589432
-0.0078955
0.00766292
-0.00894223
0.00954741
-0.00971708
0.0114941
-0.0101298
0.0134624
-0.0102369
0.0154316
-0.0101703
0.0174093
-0.0101249
0.0194062
-0.0101412
-0.0103607
0.0214556
-7.06119e-05
0.000624205
0.000315799
-0.00195175
0.000957924
-0.00333926
0.00190494
-0.00508282
0.00309849
-0.0065768
0.00452432
-0.00810938
0.0061346
-0.00950578
0.00788401
-0.0106916
0.00972348
-0.0115565
0.0116125
-0.0120188
0.013524
-0.0121484
0.0154466
-0.012093
0.0173901
-0.0120684
0.0193637
-0.0121147
-0.0123927
0.0213957
-4.91941e-05
0.000673399
0.000375276
-0.00237622
0.00106855
-0.00403254
0.00207186
-0.00608613
0.00331585
-0.00782079
0.00477517
-0.00956869
0.00639077
-0.0111214
0.00811539
-0.0124163
0.00990454
-0.0133457
0.0117315
-0.0138459
0.0135826
-0.0139994
0.0154557
-0.0139661
0.0173622
-0.0139749
0.0193102
-0.0140627
-0.0144053
0.0213228
-2.45539e-05
0.000697953
0.000442735
-0.00284351
0.0011919
-0.0047817
0.00225412
-0.00714835
0.00354758
-0.00911425
0.00503594
-0.011057
0.00665064
-0.0127361
0.00834478
-0.0141104
0.0100799
-0.0150809
0.0118431
-0.015609
0.0136327
-0.0157891
0.0154554
-0.0157888
0.0173239
-0.0158434
0.019245
-0.0159838
-0.0163969
0.0212366
3.43546e-06
0.000694517
0.000517357
-0.00335743
0.00132565
-0.00558999
0.00244706
-0.00826977
0.00378627
-0.0104535
0.00529688
-0.0125677
0.00690329
-0.0143425
0.00856161
-0.0157687
0.0102407
-0.0167599
0.0119403
-0.0173086
0.0136699
-0.0175187
0.0154432
-0.017562
0.0172737
-0.017674
0.0191672
-0.0178772
-0.0183664
0.0211366
3.34844e-05
0.000661033
0.000598248
-0.00392219
0.00146739
-0.00645913
0.00264602
-0.00944841
0.00402492
-0.0118324
0.00554933
-0.0140921
0.00713964
-0.0159328
0.00875747
-0.0173866
0.0103799
-0.0183823
0.0120181
-0.0189469
0.0136907
-0.0191912
0.0154167
-0.0192881
0.0172104
-0.0194677
0.0190761
-0.0197428
-0.0203128
0.0210225
6.65433e-05
0.00059449
0.000684457
-0.00454011
0.00161463
-0.0073893
0.00284651
-0.0106803
0.00425728
-0.0132431
0.00578612
-0.0156209
0.00735275
-0.0174994
0.00892639
-0.0189602
0.0104928
-0.0199487
0.0120732
-0.0205273
0.0136927
-0.0208107
0.0153747
-0.0209701
0.0171331
-0.0212261
0.0189712
-0.0215809
-0.0222357
0.0208941
0.000102064
0.000492426
0.000774981
-0.00521302
0.00176491
-0.00837923
0.00304433
-0.0119597
0.00447795
-0.0146767
0.00600169
-0.0171446
0.0075378
-0.0190355
0.00906471
-0.0204871
0.0105769
-0.0214609
0.0121036
-0.022054
0.0136747
-0.0223818
0.0153163
-0.0226117
0.0170413
-0.0229512
0.0188523
-0.0233918
-0.0241346
0.0207512
0.000139808
0.000352618
0.000868783
-0.005942
0.00191581
-0.00942625
0.00323568
-0.0132796
0.00468258
-0.0161236
0.00619212
-0.0186542
0.00769199
-0.0205354
0.00917081
-0.0219659
0.0106313
-0.0229214
0.012109
-0.0235317
0.0136365
-0.0239092
0.0152412
-0.0242165
0.0169348
-0.0246447
0.0187191
-0.0251762
-0.0260093
0.0205938
0.000179537
0.000173081
0.000964806
-0.00672727
0.00206503
-0.0105265
0.00341731
-0.0146319
0.00486784
-0.0175742
0.006355
-0.0201413
0.00781424
-0.0219947
0.00924472
-0.0233964
0.0106567
-0.0243334
0.01209
-0.0249651
0.0135783
-0.0253976
0.0151496
-0.0257877
0.0168134
-0.0263085
0.0185716
-0.0269344
-0.0278594
0.0204218
0.000221005
-4.79235e-05
0.00106198
-0.00756825
0.00221043
-0.0116749
0.00358648
-0.0160079
0.00503144
-0.0190191
0.00648922
-0.0215991
0.00790481
-0.0234102
0.00928765
-0.0247792
0.0106544
-0.0257001
0.0120478
-0.0263584
0.0135011
-0.0268509
0.0150418
-0.0273285
0.0166773
-0.027944
0.0184098
-0.0286668
-0.0296848
0.0202352
0.000263957
-0.00031188
0.00115926
-0.00846354
0.00235008
-0.0128658
0.00374105
-0.0173989
0.00517198
-0.0204501
0.00659476
-0.0230219
0.00796496
-0.0247804
0.00930163
-0.0261159
0.0106267
-0.0270253
0.0119841
-0.0277157
0.013406
-0.0282728
0.0149185
-0.028841
0.0165269
-0.0295524
0.0182339
-0.0303738
-0.0314851
0.0200341
0.000308129
-0.000620009
0.00125559
-0.009411
0.00248229
-0.0140925
0.00387943
-0.018796
0.0052889
-0.0218595
0.00667242
-0.0244054
0.00799662
-0.0261046
0.00928913
-0.0274084
0.0105759
-0.0283121
0.0119008
-0.0290406
0.0132941
-0.0296662
0.0147804
-0.0303273
0.0163623
-0.0311343
0.0180439
-0.0320555
-0.0332599
0.0198188
0.000353247
-0.000973256
0.00134998
-0.0104077
0.0026056
-0.0153481
0.00400059
-0.020191
0.00538229
-0.0232412
0.00672359
-0.0257467
0.0080021
-0.0273832
0.0092528
-0.0286591
0.0105044
-0.0295637
0.0117997
-0.0303358
0.0131668
-0.0310333
0.014628
-0.0317885
0.016184
-0.0326902
0.0178403
-0.0337118
-0.0350088
0.0195892
0.00039903
-0.00137229
0.00144149
-0.0114502
0.00271883
-0.0166254
0.00410397
-0.0215762
0.00545276
-0.02459
0.00675005
-0.027044
0.00798389
-0.028617
0.00919528
-0.0298705
0.0104145
-0.0307829
0.0116825
-0.0316038
0.0130251
-0.0323759
0.014462
-0.0332253
0.0159923
-0.0342205
0.0176232
-0.0353428
-0.0367311
0.0193455
0.000445193
-0.00181748
0.00152925
-0.0125343
0.00282108
-0.0179172
0.00418943
-0.0229445
0.00550132
-0.0259019
0.00675377
-0.0282965
0.00794447
-0.0298077
0.00911903
-0.0310451
0.0103083
-0.0319722
0.0115509
-0.0328465
0.0128701
-0.0336951
0.014283
-0.0346382
0.0157877
-0.0357252
0.0173929
-0.036948
-0.038426
0.0190879
0.000491442
-0.00230892
0.00161246
-0.0136553
0.00291171
-0.0192165
0.00425719
-0.02429
0.00552924
-0.0271739
0.00673683
-0.029504
0.0078862
-0.0309571
0.00902631
-0.0321852
0.0101876
-0.0331335
0.0114062
-0.034065
0.0127026
-0.0349915
0.0140915
-0.0360271
0.0155706
-0.0372043
0.0171497
-0.0385271
-0.0400925
0.0188162
0.000537484
-0.0028464
0.00169042
-0.0148082
0.0029903
-0.0205164
0.00430774
-0.0256074
0.00553796
-0.0284042
0.00670124
-0.0306673
0.00781126
-0.0320671
0.00891908
-0.033293
0.010054
-0.0342684
0.0112495
-0.0352605
0.0125234
-0.0362655
0.0138881
-0.0373918
0.0153413
-0.0386575
0.0168936
-0.0400794
-0.0417295
0.0185305
0.000583026
-0.00342943
0.00176254
-0.0159877
0.00305668
-0.0218105
0.00434178
-0.0268925
0.00552897
-0.0295913
0.00664896
-0.0317873
0.00772164
-0.0331398
0.00879906
-0.0343704
0.00990886
-0.0353782
0.0110817
-0.0364333
0.0123331
-0.0375169
0.0136731
-0.0387318
0.0151002
-0.0400846
0.0166248
-0.041604
-0.0433355
0.0182309
0.000627777
-0.00405721
0.00182831
-0.0171883
0.00311086
-0.023093
0.00436016
-0.0281418
0.00550379
-0.030735
0.00658178
-0.0328653
0.00761906
-0.0341771
0.00866769
-0.035419
0.00975323
-0.0364637
0.0109037
-0.0375838
0.0121323
-0.0387456
0.0134471
-0.0400465
0.0148477
-0.0414852
0.0163436
-0.0430999
-0.0449092
0.0179173
0.00067145
-0.00472866
0.00188736
-0.0184042
0.00315302
-0.0243587
0.00436384
-0.0293527
0.0054639
-0.031835
0.00650136
-0.0339028
0.00750504
-0.0351807
0.00852619
-0.0364402
0.00958805
-0.0375256
0.0107161
-0.0387118
0.0119214
-0.0399508
0.0132103
-0.0413355
0.0145839
-0.0428588
0.0160498
-0.0445657
-0.0464492
0.0175898
0.000713765
-0.00544242
0.00193938
-0.0196298
0.00318349
-0.0256028
0.00435381
-0.030523
0.00541072
-0.0328919
0.00640917
-0.0349012
0.00738086
-0.0361524
0.00837558
-0.0374349
0.00941404
-0.038564
0.0105194
-0.0398172
0.0117007
-0.0411322
0.0129633
-0.042598
0.0143092
-0.0442047
0.0157436
-0.0460001
-0.0479542
0.0172486
0.000754452
-0.00619687
0.0019842
-0.0208595
0.00320266
-0.0268213
0.00433109
-0.0316514
0.00534555
-0.0339064
0.00630653
-0.0358622
0.00724764
-0.0370935
0.00821667
-0.0384039
0.00923182
-0.0395792
0.0103141
-0.0408995
0.0114708
-0.0422888
0.0127062
-0.0438335
0.0140237
-0.0455222
0.015425
-0.0474014
-0.0494231
0.0168939
0.000793252
-0.00699013
0.00202171
-0.022088
0.00321105
-0.0280106
0.00429667
-0.032737
0.0052696
-0.0348793
0.00619458
-0.0367872
0.00710631
-0.0380053
0.00805017
-0.0393478
0.00904189
-0.0405709
0.0101006
-0.0419582
0.0112318
-0.0434201
0.0124395
-0.0450411
0.0137277
-0.0468104
0.015094
-0.0487678
-0.0508548
0.0165258
0.000829917
-0.00782004
0.00205191
-0.02331
0.0032092
-0.0291679
0.00425153
-0.0337794
0.00518399
-0.0358118
0.00607432
-0.0376775
0.00695766
-0.0388886
0.00787665
-0.0402668
0.00884467
-0.0415389
0.00987912
-0.0429926
0.0109841
-0.0445251
0.0121634
-0.0462204
0.0134212
-0.0480683
0.014751
-0.0500976
-0.0522489
0.0161451
0.000864214
-0.00868426
0.00207486
-0.0245206
0.00319769
-0.0302907
0.00419659
-0.0347783
0.0050897
-0.0367049
0.00594663
-0.0385344
0.00680235
-0.0397443
0.00769658
-0.041161
0.00864053
-0.0424829
0.00965006
-0.0440021
0.010728
-0.045603
0.0118782
-0.0473706
0.0131046
-0.0492947
0.0143968
-0.0513898
-0.0536083
0.0157562
0.000895937
-0.00958019
0.0020907
-0.0257154
0.00317718
-0.0313772
0.0041328
-0.0357339
0.00498774
-0.0375598
0.00581238
-0.0393591
0.00664109
-0.0405731
0.00751054
-0.0420305
0.00842996
-0.0434023
0.00941387
-0.0449861
0.010464
-0.0466531
0.0115844
-0.0484911
0.0127782
-0.0504884
0.0140353
-0.0526469
-0.0549558
0.0153829
0.000924869
-0.0105051
0.00209955
-0.0268901
0.00314816
-0.0324258
0.00406081
-0.0366465
0.00487868
-0.0383777
0.00567198
-0.0401524
0.00647407
-0.0413751
0.00731854
-0.0428749
0.00821287
-0.0442966
0.00917038
-0.0459436
0.0101919
-0.0476746
0.0112817
-0.0495809
0.0124416
-0.0516483
0.0136665
-0.0538718
-0.0562646
0.0149753
0.000950841
-0.0114559
0.00210167
-0.0280409
0.00311127
-0.0334354
0.00398145
-0.0375167
0.00476335
-0.0391596
0.00552611
-0.0409151
0.00630183
-0.0421509
0.00712104
-0.0436941
0.00798969
-0.0451653
0.00892004
-0.0468739
0.0099121
-0.0486667
0.0109706
-0.0506394
0.0120962
-0.0527739
0.0132864
-0.055062
-0.0575317
0.0145534
0.000973698
-0.0124296
0.00209729
-0.0291645
0.00306708
-0.0344052
0.00389541
-0.0383451
0.00464237
-0.0399066
0.00537524
-0.041648
0.00612472
-0.0429003
0.00691831
-0.0444877
0.00776066
-0.0460076
0.00866308
-0.0477763
0.00962497
-0.0496286
0.0106512
-0.0516657
0.0117419
-0.0538646
0.0128961
-0.0562163
-0.0587584
0.0141229
0.00099331
-0.0134229
0.0020867
-0.0302579
0.00301615
-0.0353347
0.00380331
-0.0391322
0.00451628
-0.0406195
0.00521981
-0.0423515
0.00594305
-0.0436236
0.00671058
-0.0452553
0.00752599
-0.046823
0.00839972
-0.0486501
0.0093307
-0.0505595
0.010324
-0.052659
0.011379
-0.0549195
0.0124963
-0.0573337
-0.0599441
0.013682
0.00100957
-0.0144325
0.00207018
-0.0313185
0.00295901
-0.0362235
0.00370574
-0.0398789
0.00438558
-0.0412994
0.00506016
-0.0430261
0.00575707
-0.0443205
0.00649807
-0.0459963
0.0072859
-0.0476109
0.0081302
-0.0494944
0.00902953
-0.0514589
0.00998908
-0.0536185
0.0110077
-0.0559382
0.0120872
-0.0584131
-0.0610885
0.0132316
0.00102242
-0.0154549
0.00204806
-0.0323441
0.00289615
-0.0370716
0.00360321
-0.040586
0.0042507
-0.0419469
0.00489663
-0.043672
0.00556703
-0.0449909
0.00628099
-0.0467102
0.00704059
-0.0483705
0.00785473
-0.0503085
0.00872172
-0.0523259
0.00964679
-0.0545436
0.0106285
-0.0569199
0.0116693
-0.0594539
-0.062191
0.0127718
0.0010318
-0.0164867
0.00202063
-0.033333
0.00282804
-0.037879
0.0034962
-0.0412542
0.00411203
-0.0425627
0.00472949
-0.0442895
0.00537315
-0.0456346
0.00605953
-0.0473966
0.00679026
-0.0491012
0.00757353
-0.0510918
0.00840751
-0.0531598
0.0092974
-0.0554335
0.0102415
-0.057864
0.0112428
-0.0604552
-0.0632511
0.0123029
0.00103771
-0.0175244
0.00198821
-0.0342835
0.00275512
-0.0386459
0.00338514
-0.0418842
0.00396989
-0.0431474
0.00455899
-0.0448786
0.00517561
-0.0462512
0.00583387
-0.0480549
0.0065351
-0.0498024
0.00728683
-0.0518435
0.00808715
-0.0539602
0.00894118
-0.0562875
0.00984702
-0.0587698
0.0108081
-0.0614162
-0.0642683
0.0118252
0.00104017
-0.0185646
0.00195113
-0.0351944
0.0026778
-0.0393726
0.00327041
-0.0424768
0.00382459
-0.0437016
0.00438535
-0.0454394
0.0049746
-0.0468404
0.00560419
-0.0486845
0.00627531
-0.0504735
0.00699485
-0.052563
0.00776088
-0.0547262
0.0085784
-0.057105
0.00944539
-0.0596368
0.0103655
-0.0623364
-0.0652418
0.0113391
0.00103921
-0.0196038
0.00190967
-0.0360649
0.00259647
-0.0400594
0.00315237
-0.0430327
0.0036764
-0.0442257
0.00420878
-0.0459717
0.00477029
-0.0474019
0.00537066
-0.0492848
0.0060111
-0.051114
0.00669782
-0.0532498
0.00742897
-0.0554573
0.00820935
-0.0578854
0.0090369
-0.0604643
0.00991547
-0.0632149
-0.0661712
0.0108448
0.00103493
-0.0206387
0.00186416
-0.0368941
0.00251148
-0.0407067
0.00303133
-0.0435525
0.00352556
-0.0447199
0.00402946
-0.0464757
0.00456285
-0.0479353
0.00513347
-0.0498555
0.00574265
-0.0517231
0.00639597
-0.0539031
0.00709166
-0.056153
0.00783432
-0.0586281
0.00862185
-0.0612519
0.00945823
-0.0640513
-0.0670557
0.0103428
0.0010274
-0.0216661
0.00181488
-0.0376816
0.00242317
-0.041315
0.0029076
-0.044037
0.00337229
-0.0451846
0.00384756
-0.0469509
0.00435244
-0.0484402
0.00489279
-0.0503958
0.00547018
-0.0523005
0.00608953
-0.0545224
0.00674921
-0.0568127
0.00745357
-0.0593324
0.00820055
-0.0619989
0.00899416
-0.0648449
-0.067895
0.00983342
0.00101676
-0.0226829
0.00176212
-0.038427
0.00233183
-0.0418847
0.00278142
-0.0444866
0.00321678
-0.0456199
0.00366325
-0.0473974
0.00413921
-0.0489162
0.00464879
-0.0509054
0.00519388
-0.0528456
0.00577873
-0.0551073
0.00640189
-0.0574359
0.00706741
-0.059998
0.00777332
-0.0627048
0.00852359
-0.0655952
-0.0686884
0.00931698
0.00100313
-0.023686
0.00170615
-0.03913
0.00223776
-0.0424163
0.00265304
-0.0449018
0.00305923
-0.0460261
0.00347668
-0.0478148
0.00392332
-0.0493628
0.00440165
-0.0513837
0.00491396
-0.0533579
0.00546379
-0.0556571
0.00604994
-0.058022
0.00667612
-0.0606241
0.00734046
-0.0633691
0.00804686
-0.0663016
-0.0694354
0.00879385
0.000986664
-0.0246727
0.00164724
-0.0397905
0.00214122
-0.0429103
0.00252269
-0.0452833
0.00289979
-0.0464032
0.00328799
-0.048203
0.00370493
-0.0497797
0.00415155
-0.0518304
0.00463062
-0.053837
0.00514497
-0.0561715
0.00569363
-0.0585707
0.00627999
-0.0612105
0.00690229
-0.0639914
0.00756431
-0.0669636
-0.0701355
0.00826442
0.000967517
-0.0256402
0.00158563
-0.0404087
0.00204245
-0.0433671
0.00239056
-0.0456314
0.00273863
-0.0467513
0.00309734
-0.0485617
0.00348419
-0.0501666
0.00389867
-0.0522448
0.00434407
-0.0542824
0.00482248
-0.0566499
0.00533323
-0.0590814
0.00587931
-0.0617566
0.00645913
-0.0645712
0.00707631
-0.0675808
-0.0707882
0.00772904
0.000945849
-0.026586
0.00152157
-0.0409844
0.00194169
-0.0437872
0.00225684
-0.0459466
0.0025759
-0.0470704
0.00290485
-0.0488907
0.00326125
-0.050523
0.00364318
-0.0526268
0.00405452
-0.0546937
0.00449658
-0.0570919
0.00496899
-0.0595539
0.00547438
-0.062262
0.00601131
-0.0651082
0.00658319
-0.0681527
-0.0713932
0.00718812
0.000921825
-0.0275079
0.00145527
-0.0415178
0.00183915
-0.0441711
0.00212171
-0.0462291
0.00241173
-0.0473604
0.00271067
-0.0491896
0.00303626
-0.0508486
0.00338528
-0.0529758
0.00376218
-0.0550706
0.00416749
-0.0574973
0.0046012
-0.0599876
0.00506549
-0.0627262
0.00555915
-0.0656018
0.00608531
-0.0686788
-0.0719499
0.00664202
0.000895606
-0.0284035
0.00138696
-0.0420092
0.00173502
-0.0445192
0.00198532
-0.0464794
0.00224625
-0.0476213
0.00251493
-0.0494583
0.00280939
-0.0511431
0.00312514
-0.0532915
0.00346726
-0.0554127
0.00383546
-0.0578654
0.0042301
-0.0603822
0.00465295
-0.0631491
0.00510296
-0.0660518
0.00558302
-0.0691589
-0.072458
0.00609113
0.000867353
-0.0292708
0.00131684
-0.0424587
0.00162949
-0.0448318
0.00184782
-0.0466977
0.00207961
-0.0478531
0.00231776
-0.0496965
0.0025808
-0.0514061
0.00286294
-0.0535737
0.00316998
-0.0557198
0.00350072
-0.0581962
0.00385599
-0.0607375
0.00423705
-0.0635302
0.00464309
-0.0664579
0.00507669
-0.0695925
-0.0729171
0.00553584
0.000837224
-0.0301081
0.00124509
-0.0428665
0.00152273
-0.0451095
0.00170936
-0.0468844
0.00191192
-0.0480557
0.00211931
-0.0499039
0.00235064
-0.0516374
0.00259888
-0.0538219
0.00287054
-0.0559914
0.00316352
-0.0584892
0.00347912
-0.0610531
0.00381809
-0.0638691
0.00417986
-0.0668196
0.00456667
-0.0699793
-0.073327
0.00497654
0.000805368
-0.0309134
0.00117191
-0.0432331
0.00141491
-0.0453525
0.00157007
-0.0470395
0.00174331
-0.0482289
0.00191971
-0.0500803
0.00211907
-0.0518368
0.00233314
-0.054036
0.00256916
-0.0562274
0.00282409
-0.0587441
0.00309977
-0.0613288
0.00339638
-0.0641657
0.0037136
-0.0671369
0.00405332
-0.070319
-0.0736873
0.00441364
0.00077193
-0.0316854
0.00109744
-0.0435586
0.00130617
-0.0455612
0.00143008
-0.0471634
0.0015739
-0.0483727
0.00171908
-0.0502254
0.00188626
-0.052004
0.00206591
-0.0542156
0.00226605
-0.0564276
0.00248269
-0.0589607
0.0027182
-0.0615643
0.00297221
-0.0644198
0.00324464
-0.0674093
0.00353701
-0.0706114
-0.0739978
0.00384751
0.000737049
-0.0324224
0.00102187
-0.0438434
0.00119665
-0.045736
0.0012895
-0.0472563
0.00140381
-0.048487
0.00151757
-0.0503392
0.00165238
-0.0521388
0.00179737
-0.0543606
0.00196144
-0.0565917
0.00213954
-0.0591388
0.0023347
-0.0617594
0.00254589
-0.0646309
0.0027733
-0.0676367
0.0030181
-0.0708562
-0.0742583
0.00327857
0.000700855
-0.0331233
0.000945328
-0.0440879
0.0010865
-0.0458771
0.00114845
-0.0473182
0.00123316
-0.0485717
0.00131529
-0.0504213
0.00141758
-0.0522411
0.00152769
-0.0544707
0.00165555
-0.0567195
0.0017949
-0.0592782
0.00194954
-0.0619141
0.00211771
-0.0647991
0.00229994
-0.0678189
0.00249695
-0.0710532
-0.0744686
0.00270722
0.000663473
-0.0337867
0.000867969
-0.0442924
0.000975831
-0.045985
0.00100704
-0.0473495
0.00106209
-0.0486268
0.00111238
-0.0504716
0.00118206
-0.0523107
0.00125707
-0.0545457
0.0013486
-0.0568111
0.00144897
-0.0593785
0.00156302
-0.0620281
0.00168797
-0.0649241
0.00182487
-0.0679558
0.00197394
-0.0712023
-0.0746285
0.00213386
0.00062502
-0.0344117
0.000789924
-0.0444573
0.000864776
-0.0460599
0.000865372
-0.0473501
0.000890709
-0.0486521
0.00090896
-0.0504899
0.000945993
-0.0523478
0.000985647
-0.0545854
0.00104083
-0.0568662
0.00110201
-0.0594397
0.00117539
-0.0621015
0.00125696
-0.0650056
0.00134845
-0.0680473
0.00144943
-0.0713032
-0.0747379
0.0015589
0.000585609
-0.0349974
0.000711319
-0.044583
0.000753449
-0.046102
0.000723533
-0.0473201
0.000719165
-0.0486477
0.000705117
-0.0504758
0.000709586
-0.0523522
0.000713594
-0.0545894
0.000732463
-0.0568851
0.000754265
-0.0594615
0.000786895
-0.0621341
0.000825005
-0.0650438
0.000870973
-0.0680933
0.000923797
-0.0713561
-0.0747969
0.000982736
0.000545343
-0.0355427
0.000632273
-0.0446699
0.000641965
-0.0461117
0.000581606
-0.0472598
0.000547612
-0.0486138
0.000500933
-0.0504291
0.00047306
-0.0523244
0.000441
-0.0545573
0.000423811
-0.0568679
0.00040587
-0.0594436
0.000397881
-0.0621261
0.000392325
-0.0650382
0.000392822
-0.0680938
0.000397411
-0.0713607
-0.0748053
0.000405783
0.00050434
-0.036047
0.000552942
-0.0447185
0.000530508
-0.0460892
0.000439749
-0.047169
0.000376373
-0.0485504
0.0002965
-0.0503493
0.000237084
-0.052265
0.000167662
-0.0544879
0.000116183
-0.0568164
5.59695e-05
-0.0593834
1.0889e-05
-0.062081
-4.1329e-05
-0.064986
-8.49913e-05
-0.0680501
-0.000128924
-0.0713167
-0.0747631
-0.000171057
0.000462661
-0.0365097
0.000473342
-0.0447292
0.000419045
-0.0460349
0.000297767
-0.0470477
0.000205605
-0.0484582
9.04139e-05
-0.0502341
5.43588e-06
-0.05218
-0.000105101
-0.0543774
-0.000193841
-0.0567277
-0.000290528
-0.0592867
-0.000381024
-0.0619906
-0.000472667
-0.0648943
-0.000564111
-0.0679587
-0.000655471
-0.0712254
-0.0746703
-0.00074831
0.000420413
-0.0369301
0.000393616
-0.0447024
0.00030777
-0.0459491
0.000155469
-0.0468954
3.76e-05
-0.0483403
-0.000112386
-0.0500841
-0.000237043
-0.0520553
-0.000374898
-0.0542395
-0.000504046
-0.0565986
-0.000637878
-0.0591529
-0.000770655
-0.0618578
-0.000905001
-0.06476
-0.00104239
-0.0678213
-0.00118182
-0.0710859
-0.074527
-0.0013251
0.00037768
-0.0373078
0.000313853
-0.0446386
0.000196888
-0.0458321
8.65097e-06
-0.0467072
-0.000136472
-0.0481952
-0.000313151
-0.0499074
-0.000474619
-0.0518938
-0.000645678
-0.0540685
-0.00081305
-0.0564312
-0.000985252
-0.0589807
-0.00115945
-0.0616836
-0.00133698
-0.0645825
-0.00151991
-0.0676384
-0.00170741
-0.0708984
-0.0743334
-0.00190102
0.000334542
-0.0376423
0.000234121
-0.0445382
8.6981e-05
-0.045685
-0.000126039
-0.0464942
-0.0003088
-0.0480125
-0.000514747
-0.0497015
-0.000710981
-0.0516976
-0.000916268
-0.0538632
-0.00112114
-0.0562263
-0.00133208
-0.0587697
-0.00154734
-0.0614683
-0.00176813
-0.0643617
-0.00199639
-0.0674101
-0.00223183
-0.070663
-0.0740896
-0.00247567
0.000291077
-0.0379334
0.000154433
-0.0444015
-2.12485e-05
-0.0455093
-0.000264405
-0.046251
-0.000479611
-0.0477973
-0.000716131
-0.0494649
-0.000946363
-0.0514674
-0.00118625
-0.0536233
-0.00142823
-0.0559843
-0.00167801
-0.0585199
-0.00193411
-0.0612122
-0.00219809
-0.0640977
-0.00247152
-0.0671367
-0.0027547
-0.0703798
-0.0737956
-0.00304865
0.000247357
-0.0381808
7.45741e-05
-0.0442287
-0.000134304
-0.0453004
-0.000402954
-0.0459824
-0.000649407
-0.0475508
-0.000916934
-0.0491974
-0.00118073
-0.0512036
-0.00145535
-0.0533487
-0.00173416
-0.0557055
-0.00202274
-0.0582314
-0.0023195
-0.0609154
-0.00262653
-0.0637907
-0.00294495
-0.0668182
-0.00327565
-0.0700491
-0.0734517
-0.00361955
0.000203457
-0.0383842
-7.59946e-06
-0.0440177
-0.000244487
-0.0450635
-0.000541036
-0.0456858
-0.00081824
-0.0472736
-0.00111692
-0.0488987
-0.00141399
-0.0509065
-0.00172332
-0.0530394
-0.00203876
-0.0553901
-0.002366
-0.0579041
-0.00270324
-0.0605782
-0.00305312
-0.0634408
-0.00341633
-0.066455
-0.00379431
-0.0696711
-0.073058
-0.00418798
0.000159459
-0.0385437
-8.26169e-05
-0.0437756
-0.00035364
-0.0447925
-0.000678417
-0.0453611
-0.000986067
-0.0469659
-0.00131591
-0.0485689
-0.00164601
-0.0505764
-0.00198996
-0.0526954
-0.00234181
-0.0550382
-0.00270755
-0.0575384
-0.00308507
-0.0602007
-0.00347757
-0.0630483
-0.00388533
-0.0660473
-0.00431033
-0.0692461
-0.0726148
-0.00475354
0.000115428
-0.0386591
-0.000160014
-0.0435002
-0.000461942
-0.0444906
-0.000814949
-0.045008
-0.00115281
-0.0466281
-0.00151374
-0.048208
-0.00187664
-0.0502135
-0.00225507
-0.052317
-0.00264313
-0.0546502
-0.00304713
-0.0571344
-0.0034647
-0.0597831
-0.00389955
-0.0626135
-0.00435162
-0.0655952
-0.00482336
-0.0687744
-0.0721224
-0.00531584
7.14561e-05
-0.0387306
-0.000237205
-0.0431915
-0.000569386
-0.0441584
-0.000950515
-0.0446269
-0.00131838
-0.0462602
-0.00171026
-0.0478161
-0.00210574
-0.049818
-0.00251846
-0.0519043
-0.00294249
-0.0542262
-0.00338449
-0.0566924
-0.00384186
-0.0593257
-0.00431876
-0.0621365
-0.00481488
-0.0650991
-0.00533306
-0.0682562
-0.0715809
-0.00587448
2.77863e-05
-0.0387584
-0.000313894
-0.0428498
-0.000675926
-0.0437964
-0.00108501
-0.0442178
-0.00148267
-0.0458626
-0.00190533
-0.0473934
-0.00233316
-0.0493902
-0.00277994
-0.0514575
-0.00323969
-0.0537664
-0.00371941
-0.0562127
-0.00421629
-0.0588289
-0.00473492
-0.0616179
-0.00527477
-0.0645592
-0.00583907
-0.0676919
-0.0709909
-0.00642908
-1.57987e-05
-0.0387426
-0.000389957
-0.0424757
-0.000781506
-0.0434048
-0.00121833
-0.043781
-0.00164559
-0.0454353
-0.00209879
-0.0469402
-0.00255874
-0.0489303
-0.00303932
-0.0509769
-0.00353453
-0.0532712
-0.00405165
-0.0556955
-0.00458774
-0.0582928
-0.00514774
-0.0610579
-0.00573099
-0.063976
-0.00634106
-0.0670818
-0.0703527
-0.00697925
-6.00869e-05
-0.0386825
-0.000465313
-0.0420704
-0.000886059
-0.0429841
-0.0013504
-0.0433167
-0.00180702
-0.0449787
-0.00229053
-0.0464567
-0.00278234
-0.0484384
-0.00329643
-0.0504628
-0.00382681
-0.0527408
-0.00438099
-0.0551413
-0.00495595
-0.0577178
-0.00555695
-0.0604569
-0.00618323
-0.0633497
-0.0068387
-0.0664264
-0.0696668
-0.00752461
-0.000103671
-0.0385788
-0.000539884
-0.0416342
-0.000989522
-0.0425345
-0.00148111
-0.0428251
-0.00196687
-0.0444929
-0.0024804
-0.0459432
-0.00300379
-0.0479151
-0.00355108
-0.0499155
-0.00411632
-0.0521756
-0.0047072
-0.0545505
-0.00532067
-0.0571043
-0.00596227
-0.0598153
-0.00663119
-0.0626808
-0.00733163
-0.0657259
-0.0689337
-0.00806479
-0.000146901
-0.0384319
-0.00061361
-0.0411675
-0.00109183
-0.0420562
-0.00161038
-0.0423065
-0.00212502
-0.0439783
-0.00266827
-0.0453999
-0.00322296
-0.0473604
-0.00380311
-0.0493354
-0.00440287
-0.0515758
-0.00503006
-0.0539233
-0.00568166
-0.0564527
-0.00636343
-0.0591335
-0.00707457
-0.0619696
-0.00781952
-0.064981
-0.0681538
-0.00859941
-0.000189774
-0.0382421
-0.000686432
-0.0406709
-0.00119291
-0.0415498
-0.00173812
-0.0417613
-0.00228138
-0.043435
-0.00285402
-0.0448273
-0.00343968
-0.0467747
-0.00405233
-0.0487227
-0.00468625
-0.0509419
-0.00534935
-0.0532602
-0.00603868
-0.0557634
-0.00676018
-0.058412
-0.00751307
-0.0612168
-0.00830202
-0.064192
-0.0673277
-0.00912808
-0.000232257
-0.0380099
-0.000758296
-0.0401448
-0.00129271
-0.0410153
-0.00186425
-0.0411898
-0.00243584
-0.0428634
-0.00303751
-0.0442256
-0.00365381
-0.0461584
-0.00429857
-0.048078
-0.00496627
-0.0502742
-0.00566485
-0.0525616
-0.00639149
-0.0550368
-0.00715225
-0.0576513
-0.00794639
-0.0604226
-0.0087788
-0.0633596
-0.0664561
-0.00965043
-0.00027431
-0.0377356
-0.000829148
-0.03959
-0.00139115
-0.0404533
-0.00198869
-0.0405922
-0.00258828
-0.0422638
-0.00321862
-0.0435953
-0.00386521
-0.0455118
-0.00454167
-0.0474015
-0.00524273
-0.0495732
-0.00597634
-0.051828
-0.00673984
-0.0542733
-0.00753936
-0.0568518
-0.00837424
-0.0595877
-0.00924951
-0.0624843
-0.0655395
-0.0101661
-0.000315892
-0.0374197
-0.000898939
-0.0390069
-0.00148818
-0.0398641
-0.00211136
-0.0399691
-0.00273863
-0.0416366
-0.00339723
-0.0429367
-0.00407372
-0.0448353
-0.00478145
-0.0466938
-0.00551545
-0.0488392
-0.00628361
-0.0510598
-0.00708349
-0.0534734
-0.00792125
-0.056014
-0.00879632
-0.0587127
-0.00971382
-0.0615668
-0.0645787
-0.0106746
-0.000356961
-0.0370627
-0.00096762
-0.0383963
-0.00158373
-0.039248
-0.00223216
-0.0393206
-0.00288676
-0.040982
-0.00357322
-0.0422502
-0.00427921
-0.0441293
-0.00501776
-0.0459552
-0.00578422
-0.0480727
-0.00658645
-0.0502576
-0.00742219
-0.0526377
-0.00829765
-0.0551385
-0.00921232
-0.057798
-0.0101714
-0.0606077
-0.0635744
-0.0111757
-0.00039748
-0.0366652
-0.00103515
-0.0377586
-0.00167774
-0.0386054
-0.00235104
-0.0386473
-0.00303258
-0.0403004
-0.00374646
-0.0415363
-0.00448153
-0.0433943
-0.00525042
-0.0451864
-0.00604888
-0.0472742
-0.00688463
-0.0494218
-0.0077557
-0.0517666
-0.00866828
-0.054226
-0.00962196
-0.0568443
-0.010622
-0.0596077
-0.0625273
-0.0116691
-0.000437408
-0.0362278
-0.00110147
-0.0370945
-0.00177016
-0.0379367
-0.0024679
-0.0379496
-0.003176
-0.0395923
-0.00391684
-0.0407955
-0.00468055
-0.0426306
-0.00547927
-0.0443876
-0.00630922
-0.0464443
-0.00717796
-0.0485531
-0.0080838
-0.0508607
-0.00903289
-0.0532769
-0.0100249
-0.0558523
-0.0110652
-0.0585675
-0.0614383
-0.0121542
-0.00047671
-0.0357511
-0.00116655
-0.0364047
-0.00186091
-0.0372424
-0.00258268
-0.0372278
-0.00331691
-0.0388581
-0.00408425
-0.0400281
-0.00487612
-0.0418387
-0.00570417
-0.0435596
-0.00656507
-0.0455834
-0.00746623
-0.0476519
-0.00840625
-0.0499207
-0.00939122
-0.0522919
-0.010421
-0.0548225
-0.0115007
-0.0574878
-0.0603083
-0.0126308
-0.000515349
-0.0352358
-0.00123035
-0.0356897
-0.00194995
-0.0365228
-0.00269529
-0.0364825
-0.00345522
-0.0380982
-0.00424856
-0.0392348
-0.00506811
-0.0410191
-0.00592495
-0.0427028
-0.00681626
-0.0446921
-0.00774923
-0.046719
-0.00872282
-0.0489471
-0.00974301
-0.0512717
-0.0108098
-0.0537557
-0.0119284
-0.0563692
-0.0591378
-0.0130988
-0.000553291
-0.0346825
-0.00129282
-0.0349502
-0.00203722
-0.0357784
-0.00280567
-0.035714
-0.00359084
-0.037313
-0.00440967
-0.038416
-0.0052564
-0.0401724
-0.00614146
-0.0418177
-0.0070626
-0.0437709
-0.00802678
-0.0457548
-0.00903329
-0.0479406
-0.010088
-0.050217
-0.0111912
-0.0526525
-0.0123479
-0.0552126
-0.0579275
-0.0135582
-0.000590502
-0.034092
-0.00135393
-0.0341867
-0.00212266
-0.0350096
-0.00291374
-0.0349229
-0.00372368
-0.0365031
-0.00456747
-0.0375722
-0.00544084
-0.039299
-0.00635355
-0.040905
-0.00730394
-0.0428205
-0.00829868
-0.04476
-0.00933745
-0.0469019
-0.010426
-0.0491284
-0.0115649
-0.0515136
-0.0127591
-0.0540184
-0.0566787
-0.0140079
-0.000626951
-0.033465
-0.00141364
-0.0334001
-0.00220621
-0.0342171
-0.00301943
-0.0341097
-0.00385364
-0.0356689
-0.00472185
-0.036704
-0.00562132
-0.0383996
-0.00656107
-0.0399652
-0.00754009