/*--------------------------------*- C++ -*----------------------------------*\
  =========                 |
  \\      /  F ield         | OpenFOAM: The Open Source CFD Toolbox
   \\    /   O peration     | Website:  https://openfoam.org
    \\  /    A nd           | Version:  7
     \\/     M anipulation  |
\*---------------------------------------------------------------------------*/
FoamFile
{
    version     2.0;
    format      ascii;
    class       volScalarField;
    location    "16";
    object      T;
}
// * * * * * * * * * * * * * * * * * * * * * * * * * * * * * * * * * * * * * //

dimensions      [0 0 0 1 0 0 0];

internalField   nonuniform List<scalar> 
2413
(
1.30565
1.31394
1.32326
1.33345
1.34417
1.35505
1.36555
1.3755
1.38498
1.39418
1.40289
1.41149
1.41989
1.42843
1.43735
1.44686
1.45742
1.46914
1.48215
1.49667
1.51289
1.53078
1.55014
1.57023
1.59033
1.60899
1.62497
1.63742
1.64553
1.6493
1.64936
1.64743
1.64221
1.63245
1.61791
1.59754
1.56747
1.52726
1.47949
1.4308
1.38877
1.36003
1.34265
1.32936
1.31175
1.28524
1.25522
1.23461
1.22656
1.22767
1.2375
1.40191
1.40569
1.41068
1.41616
1.42146
1.42583
1.42893
1.43034
1.42973
1.42588
1.41816
1.40692
1.3926
1.37602
1.35823
1.34072
1.3251
1.31259
1.30321
1.29621
1.29019
1.28311
1.27227
1.25846
1.2499
1.24818
1.24929
1.25242
1.25604
1.25962
1.26311
1.26659
1.27016
1.27401
1.27836
1.28344
1.28944
1.29655
1.30485
1.31438
1.32501
1.3365
1.34852
1.36055
1.37223
1.38319
1.39352
1.40346
1.41338
1.423
1.43285
1.44281
1.4532
1.46419
1.47592
1.48863
1.50249
1.51767
1.53407
1.55174
1.56981
1.58726
1.60278
1.61523
1.62403
1.62906
1.63057
1.62921
1.62538
1.61803
1.60686
1.59199
1.57081
1.54135
1.50386
1.46114
1.41875
1.38184
1.3571
1.34365
1.33467
1.32248
1.30216
1.27429
1.24981
1.23701
1.23425
1.23901
1.39658
1.39816
1.40109
1.40478
1.4087
1.41215
1.4147
1.41592
1.41559
1.41272
1.40669
1.39781
1.38639
1.37287
1.35786
1.34208
1.32681
1.31327
1.30205
1.29334
1.28592
1.27796
1.26661
1.25207
1.24251
1.2405
1.24143
1.24433
1.24773
1.2511
1.25439
1.25767
1.26103
1.26468
1.26881
1.27362
1.27932
1.28611
1.29411
1.30341
1.314
1.32572
1.33831
1.3514
1.36458
1.37738
1.38966
1.40127
1.41243
1.4233
1.43437
1.44525
1.45635
1.46777
1.47968
1.4923
1.50566
1.51995
1.53495
1.55066
1.56612
1.5802
1.59217
1.60108
1.60644
1.60849
1.60729
1.60367
1.59721
1.58768
1.57534
1.55906
1.5375
1.50962
1.47614
1.43934
1.40382
1.37411
1.35407
1.34524
1.3405
1.333
1.31855
1.29498
1.26974
1.25228
1.24594
1.24778
1.39395
1.39383
1.39482
1.39682
1.39934
1.40177
1.40362
1.4045
1.40422
1.40202
1.3974
1.39057
1.38169
1.37097
1.35862
1.34511
1.33092
1.31669
1.30354
1.29231
1.28293
1.2734
1.26105
1.24557
1.23491
1.23246
1.23314
1.23574
1.23889
1.24204
1.24512
1.24819
1.25136
1.2548
1.25866
1.26315
1.26844
1.27471
1.28213
1.29083
1.30087
1.31221
1.32468
1.33803
1.35196
1.36607
1.3801
1.39374
1.40683
1.41927
1.43141
1.44318
1.45498
1.46674
1.47869
1.491
1.50364
1.51682
1.53036
1.54388
1.55652
1.56748
1.57608
1.58162
1.5837
1.58267
1.57918
1.57315
1.56441
1.55318
1.53911
1.52187
1.50087
1.47583
1.44726
1.41701
1.38862
1.36635
1.35175
1.34767
1.34695
1.34342
1.33374
1.31549
1.29249
1.273
1.26326
1.26253
1.39312
1.39192
1.39157
1.39207
1.39319
1.39449
1.39556
1.39605
1.39569
1.39387
1.39026
1.38497
1.37808
1.36969
1.35988
1.34892
1.33674
1.32307
1.30837
1.29427
1.28188
1.27006
1.25585
1.23899
1.2271
1.22412
1.22447
1.22674
1.22962
1.23255
1.23543
1.23833
1.24132
1.24454
1.24815
1.25228
1.25709
1.26274
1.26941
1.27724
1.28634
1.29675
1.30842
1.32121
1.3349
1.34922
1.36389
1.37851
1.39286
1.40676
1.42023
1.4331
1.44579
1.45811
1.47027
1.48242
1.49455
1.50663
1.51843
1.52962
1.53969
1.548
1.55362
1.55585
1.55527
1.55248
1.54721
1.53944
1.52927
1.51671
1.50184
1.48485
1.46564
1.44431
1.42107
1.39737
1.37588
1.36039
1.35162
1.35156
1.35296
1.35195
1.34673
1.33439
1.31611
1.29751
1.28555
1.28231
1.39341
1.39151
1.39034
1.38987
1.38987
1.39017
1.39046
1.39049
1.38987
1.38816
1.38517
1.3809
1.37536
1.36868
1.36096
1.35238
1.3426
1.33088
1.31663
1.3004
1.2842
1.26877
1.25158
1.23246
1.21911
1.21554
1.21553
1.21745
1.22007
1.22279
1.2255
1.22822
1.23104
1.23406
1.23741
1.24119
1.24551
1.25051
1.25634
1.26315
1.27108
1.28021
1.29057
1.30215
1.31479
1.32829
1.3424
1.35684
1.37147
1.38584
1.40004
1.41376
1.42716
1.43994
1.4523
1.46431
1.47596
1.48707
1.49745
1.50673
1.51457
1.52063
1.524
1.52445
1.52272
1.51893
1.51284
1.50454
1.49398
1.48143
1.46724
1.45194
1.43565
1.4185
1.40054
1.38287
1.3676
1.35776
1.3537
1.35603
1.35931
1.36027
1.3579
1.35116
1.33929
1.32389
1.31138
1.30607
1.39432
1.39197
1.39028
1.38916
1.38849
1.38809
1.38777
1.38734
1.38642
1.38477
1.38212
1.37848
1.37382
1.36827
1.362
1.3552
1.3475
1.33821
1.32629
1.31067
1.29162
1.27115
1.24936
1.22636
1.21101
1.20679
1.20642
1.20802
1.21039
1.2129
1.21543
1.21798
1.22063
1.22345
1.22655
1.22998
1.23384
1.23821
1.24322
1.24899
1.25566
1.26335
1.27214
1.28208
1.29312
1.30515
1.31796
1.33137
1.34515
1.35929
1.37324
1.38685
1.40016
1.41287
1.42511
1.43668
1.44746
1.45734
1.46634
1.47429
1.48105
1.48621
1.48892
1.48908
1.48727
1.48347
1.47779
1.47008
1.46048
1.44939
1.43731
1.42488
1.41224
1.39949
1.38652
1.37418
1.36418
1.35842
1.35834
1.36223
1.36685
1.36888
1.36845
1.36652
1.36171
1.35155
1.34038
1.33349
1.39582
1.39307
1.39087
1.38931
1.38823
1.38744
1.38673
1.38594
1.38482
1.3832
1.38084
1.37764
1.37359
1.36873
1.3634
1.35767
1.35143
1.34415
1.33501
1.32243
1.30429
1.27976
1.2511
1.22198
1.20291
1.19791
1.19725
1.19858
1.20068
1.20297
1.20531
1.20768
1.21014
1.21275
1.2156
1.2187
1.22212
1.22593
1.2302
1.23501
1.24049
1.24676
1.25392
1.26208
1.27122
1.28135
1.29239
1.30414
1.31631
1.32861
1.3411
1.3538
1.36627
1.37814
1.38955
1.4002
1.41014
1.4193
1.42773
1.43532
1.44197
1.44731
1.45061
1.45153
1.45042
1.44767
1.4433
1.43721
1.42964
1.42108
1.41204
1.40315
1.39452
1.38614
1.37795
1.37028
1.36473
1.36227
1.36475
1.37017
1.37537
1.37797
1.37949
1.38205
1.38496
1.3821
1.37408
1.36555
1.39803
1.39505
1.39235
1.39023
1.38868
1.38759
1.38664
1.38565
1.38444
1.38288
1.38074
1.37786
1.37423
1.37001
1.36529
1.36016
1.35474
1.3488
1.34184
1.33271
1.31873
1.29549
1.26048
1.22143
1.19543
1.18892
1.18805
1.18917
1.19102
1.19308
1.1952
1.19737
1.19961
1.20199
1.20458
1.20737
1.21036
1.21365
1.21726
1.22125
1.22571
1.23075
1.23645
1.24292
1.25019
1.25831
1.26725
1.27706
1.28753
1.29805
1.30861
1.31923
1.32981
1.34039
1.35071
1.36049
1.36975
1.37843
1.38666
1.39429
1.40119
1.40706
1.41143
1.41377
1.4141
1.413
1.41049
1.40659
1.40155
1.39592
1.39024
1.38501
1.38036
1.37628
1.37271
1.36955
1.36797
1.36907
1.37323
1.37926
1.38461
1.3884
1.39309
1.40194
1.4126
1.41638
1.41124
1.40136
1.40052
1.39773
1.39485
1.3923
1.39023
1.38864
1.38727
1.38604
1.38472
1.38315
1.38116
1.37866
1.37554
1.37182
1.36753
1.36278
1.35777
1.35256
1.34697
1.34046
1.33111
1.31398
1.28018
1.22987
1.191
1.17988
1.17875
1.17979
1.18143
1.18324
1.18511
1.18705
1.18905
1.19117
1.19348
1.19594
1.19853
1.20135
1.20438
1.20769
1.21132
1.21537
1.2199
1.22501
1.23074
1.23715
1.24425
1.25202
1.26049
1.26959
1.27861
1.28769
1.29672
1.30564
1.31438
1.3229
1.33129
1.33955
1.3476
1.35527
1.36241
1.36876
1.37404
1.37792
1.38014
1.38079
1.38022
1.37859
1.376
1.37312
1.37051
1.36859
1.36761
1.36775
1.36871
1.37015
1.37273
1.377
1.38293
1.38921
1.3952
1.40207
1.41313
1.43028
1.44642
1.4529
1.44796
1.43672
1.40289
1.40074
1.398
1.39527
1.39289
1.39092
1.38921
1.38761
1.38601
1.38428
1.38229
1.37996
1.37715
1.37375
1.36979
1.36536
1.36063
1.35578
1.35093
1.34599
1.34002
1.3297
1.30533
1.25296
1.19412
1.17151
1.1694
1.17034
1.17187
1.17344
1.17504
1.17671
1.17845
1.18026
1.18226
1.18438
1.18661
1.18898
1.19151
1.19426
1.19727
1.20061
1.20431
1.20844
1.21307
1.21822
1.22395
1.23021
1.23694
1.24411
1.25176
1.25975
1.2678
1.27559
1.28334
1.29111
1.29888
1.3065
1.314
1.32129
1.32826
1.33474
1.34056
1.34553
1.34941
1.35189
1.35311
1.35335
1.35284
1.35213
1.35196
1.35269
1.35466
1.35848
1.36403
1.37047
1.37749
1.38497
1.39262
1.40018
1.40958
1.42395
1.44453
1.46735
1.48262
1.48682
1.48127
1.46928
1.40434
1.4033
1.40126
1.39878
1.39633
1.39411
1.39212
1.3902
1.38831
1.38634
1.38419
1.38175
1.37895
1.37565
1.37187
1.36766
1.36319
1.3586
1.35411
1.35
1.34611
1.34053
1.32728
1.28765
1.21454
1.16746
1.16026
1.16064
1.16222
1.16364
1.16495
1.16632
1.16776
1.16926
1.17091
1.17271
1.17459
1.17657
1.17868
1.18101
1.18358
1.18645
1.18964
1.19318
1.1971
1.20142
1.20616
1.21132
1.21691
1.22288
1.22913
1.23562
1.24239
1.24951
1.2567
1.26398
1.27131
1.27846
1.28553
1.29253
1.29941
1.30604
1.31226
1.31781
1.32247
1.32607
1.32873
1.33059
1.33176
1.33271
1.33409
1.33645
1.34055
1.3475
1.35753
1.36923
1.38043
1.39144
1.40175
1.41397
1.43258
1.45846
1.48495
1.50569
1.51525
1.51561
1.51017
1.49898
1.40478
1.40463
1.40369
1.40199
1.39994
1.3978
1.39577
1.39367
1.39148
1.38918
1.38669
1.384
1.38106
1.37771
1.37393
1.36978
1.36544
1.36107
1.35682
1.35302
1.35004
1.34727
1.34131
1.32015
1.25682
1.17752
1.15248
1.15077
1.15231
1.15373
1.15479
1.15584
1.15696
1.15816
1.15947
1.16099
1.16258
1.16423
1.16603
1.16805
1.17034
1.17292
1.1758
1.17901
1.18253
1.18637
1.1905
1.19492
1.19964
1.20472
1.21014
1.21587
1.22181
1.22797
1.23423
1.24057
1.24703
1.25372
1.26055
1.26739
1.27419
1.28089
1.28735
1.2933
1.29856
1.30304
1.30675
1.30968
1.31205
1.31422
1.31671
1.31987
1.32497
1.33403
1.34806
1.36478
1.38078
1.39603
1.4124
1.43609
1.46861
1.50088
1.52385
1.53723
1.54166
1.54038
1.5356
1.52668
1.40419
1.4048
1.40476
1.4041
1.40289
1.40126
1.39952
1.39757
1.39532
1.39284
1.39004
1.38697
1.38374
1.38017
1.37627
1.37205
1.36771
1.36341
1.35933
1.35576
1.35318
1.35173
1.3493
1.34082
1.30418
1.21657
1.15131
1.14159
1.14209
1.14359
1.14454
1.14529
1.14608
1.147
1.14805
1.14934
1.1507
1.15211
1.15369
1.15554
1.15765
1.16007
1.16277
1.16577
1.16903
1.17255
1.17631
1.18032
1.18458
1.18911
1.19386
1.19888
1.20412
1.20963
1.2153
1.22112
1.22711
1.23324
1.2395
1.24583
1.2522
1.25855
1.26476
1.27075
1.2764
1.28152
1.28603
1.28983
1.2932
1.2962
1.29934
1.30289
1.30802
1.31772
1.33454
1.35491
1.37696
1.40027
1.43057
1.47118
1.5103
1.5374
1.5525
1.5601
1.56278
1.5623
1.55925
1.55295
1.40233
1.40386
1.40464
1.40483
1.40454
1.4038
1.40276
1.40135
1.39942
1.39698
1.3941
1.3908
1.38731
1.38347
1.37932
1.37488
1.37035
1.36601
1.36204
1.35866
1.3561
1.35463
1.35445
1.35122
1.33695
1.27681
1.17642
1.13541
1.13195
1.13318
1.13419
1.13473
1.13524
1.13591
1.13678
1.13789
1.13909
1.14036
1.14183
1.14358
1.14561
1.14793
1.15052
1.15339
1.15647
1.15978
1.16327
1.16696
1.17085
1.17497
1.17932
1.18392
1.18872
1.19373
1.19888
1.20419
1.20963
1.21522
1.22098
1.22688
1.2329
1.23897
1.24501
1.25094
1.25662
1.26183
1.26652
1.27071
1.27466
1.27829
1.28198
1.28573
1.29035
1.29907
1.31647
1.33921
1.36847
1.4092
1.46128
1.51029
1.54225
1.55957
1.56925
1.57574
1.58002
1.58183
1.58096
1.57749
1.39977
1.40179
1.40334
1.40439
1.40489
1.40497
1.40486
1.40434
1.40315
1.40114
1.39849
1.3952
1.39158
1.38762
1.38333
1.37871
1.37396
1.36939
1.3653
1.36193
1.35933
1.35765
1.35706
1.35696
1.35249
1.32624
1.23961
1.14443
1.12377
1.12274
1.1238
1.12434
1.12463
1.12508
1.12582
1.12681
1.12791
1.12912
1.13057
1.1323
1.13428
1.13654
1.13907
1.14184
1.14478
1.1479
1.15113
1.15453
1.15808
1.16184
1.1658
1.17001
1.17443
1.17907
1.18388
1.18884
1.19394
1.19919
1.20458
1.21012
1.21581
1.2216
1.22744
1.23324
1.23888
1.24419
1.24909
1.25338
1.25734
1.2611
1.26499
1.26888
1.27308
1.27991
1.29519
1.31977
1.36199
1.42965
1.49594
1.53716
1.55771
1.56836
1.57683
1.58552
1.59298
1.5984
1.60025
1.59955
1.39717
1.39928
1.40118
1.40289
1.40418
1.40506
1.4057
1.40597
1.40575
1.40459
1.40263
1.39973
1.3962
1.39236
1.38812
1.38351
1.37868
1.37398
1.3697
1.36608
1.36319
1.36111
1.36019
1.36057
1.35978
1.35177
1.30758
1.19754
1.12243
1.11365
1.11365
1.1143
1.11453
1.1148
1.1154
1.11629
1.11735
1.11855
1.11999
1.12174
1.12376
1.12604
1.12854
1.13122
1.13398
1.13683
1.13972
1.14273
1.1459
1.14928
1.15291
1.15681
1.16096
1.16535
1.16992
1.17466
1.17953
1.18456
1.18975
1.1951
1.20062
1.20627
1.21202
1.21781
1.22356
1.22911
1.23436
1.23898
1.2432
1.24693
1.25066
1.25441
1.25821
1.26299
1.27489
1.30161
1.3667
1.45956
1.52088
1.54907
1.56122
1.57008
1.57966
1.59074
1.60142
1.61098
1.61696
1.61944
1.39504
1.39711
1.39897
1.40084
1.40258
1.40415
1.40542
1.40642
1.40694
1.40673
1.40572
1.40359
1.40055
1.39713
1.39328
1.38896
1.38433
1.37965
1.37522
1.3713
1.36801
1.3655
1.36396
1.36351
1.36418
1.36195
1.34781
1.27942
1.15723
1.10827
1.10437
1.10484
1.10518
1.10535
1.1058
1.1066
1.10766
1.1089
1.11041
1.11225
1.11436
1.1167
1.11912
1.12152
1.12381
1.12613
1.12855
1.13116
1.13399
1.13709
1.14049
1.14421
1.14821
1.15247
1.15694
1.16159
1.16641
1.17141
1.17659
1.18194
1.18747
1.19316
1.19899
1.20495
1.21096
1.21688
1.22261
1.22783
1.23264
1.23682
1.24082
1.24463
1.24797
1.25089
1.26021
1.29105
1.38598
1.48898
1.5361
1.55442
1.56148
1.57055
1.58142
1.59395
1.60708
1.62032
1.63084
1.63738
1.39361
1.39566
1.39734
1.39905
1.40084
1.40261
1.40429
1.40583
1.40698
1.40757
1.40744
1.40641
1.40423
1.4014
1.39815
1.39441
1.39023
1.38583
1.38148
1.37744
1.37388
1.37094
1.3687
1.36737
1.36704
1.36697
1.3632
1.33787
1.24223
1.12461
1.09834
1.09645
1.09695
1.09725
1.09762
1.09834
1.09941
1.10077
1.10236
1.10414
1.10595
1.10773
1.10952
1.11137
1.11326
1.11522
1.11735
1.1197
1.12234
1.12529
1.12857
1.13216
1.13607
1.14025
1.14469
1.14938
1.1543
1.15942
1.16474
1.17026
1.17596
1.18184
1.18789
1.19409
1.20038
1.2067
1.21296
1.21891
1.22455
1.22966
1.23446
1.23875
1.24198
1.24366
1.25243
1.29046
1.41137
1.51075
1.54739
1.55928
1.56536
1.57421
1.58546
1.59843
1.61287
1.62841
1.64248
1.65324
1.39278
1.39488
1.39644
1.3979
1.39952
1.40121
1.40288
1.40458
1.40613
1.40728
1.40782
1.40769
1.40661
1.40467
1.40221
1.39922
1.39567
1.39177
1.38774
1.38382
1.38021
1.37712
1.37455
1.3726
1.37161
1.3717
1.37113
1.36419
1.32171
1.1992
1.10301
1.0917
1.09093
1.0913
1.09145
1.09176
1.09237
1.09323
1.09426
1.09548
1.09685
1.09833
1.09977
1.10124
1.10276
1.10436
1.10619
1.10832
1.1108
1.11364
1.11683
1.12035
1.1242
1.12835
1.13282
1.13755
1.14251
1.14765
1.15292
1.15834
1.16396
1.16983
1.17598
1.18231
1.18874
1.19528
1.20191
1.20854
1.21509
1.2214
1.22734
1.23251
1.2361
1.23743
1.24738
1.29366
1.42751
1.52022
1.55353
1.56512
1.57348
1.58372
1.59541
1.60811
1.62229
1.63812
1.65379
1.66768
1.39219
1.39452
1.39609
1.39741
1.39881
1.40032
1.40182
1.40338
1.40495
1.40638
1.40739
1.4078
1.4076
1.40669
1.40512
1.40296
1.40022
1.397
1.39347
1.38987
1.38641
1.3833
1.38065
1.37861
1.37731
1.37687
1.37716
1.37505
1.36244
1.29496
1.15525
1.09134
1.0864
1.08599
1.08592
1.08586
1.08605
1.08653
1.0872
1.08801
1.08883
1.08961
1.09034
1.0912
1.0922
1.09344
1.09494
1.09678
1.09905
1.10167
1.10464
1.10792
1.11152
1.11542
1.11963
1.12407
1.12871
1.13344
1.1382
1.14299
1.14798
1.15328
1.1589
1.16467
1.17026
1.17607
1.18209
1.18847
1.19502
1.20181
1.20901
1.21603
1.22144
1.22422
1.2367
1.28882
1.42846
1.5205
1.5542
1.56897
1.5815
1.59617
1.61056
1.62407
1.63742
1.65194
1.66715
1.68235
1.39149
1.3942
1.396
1.39732
1.39857
1.39996
1.40138
1.40284
1.40426
1.40568
1.40691
1.40772
1.40798
1.40771
1.40689
1.40557
1.40367
1.40119
1.39825
1.39509
1.39192
1.38894
1.38646
1.38447
1.38301
1.38224
1.38224
1.3821
1.37838
1.35424
1.25514
1.11942
1.08722
1.08432
1.08351
1.08267
1.08198
1.08165
1.08154
1.08148
1.08136
1.08119
1.08106
1.08114
1.08153
1.08227
1.08346
1.08498
1.08693
1.08916
1.0916
1.09414
1.09684
1.09968
1.10265
1.10571
1.10884
1.11202
1.11515
1.11815
1.12116
1.12432
1.12771
1.13156
1.13561
1.14014
1.14507
1.15064
1.15677
1.16361
1.17126
1.17922
1.18619
1.19098
1.20481
1.25573
1.39846
1.49969
1.54225
1.56582
1.58472
1.60399
1.6235
1.64067
1.65551
1.66977
1.68404
1.69908
1.39048
1.39362
1.39587
1.39745
1.39874
1.40008
1.40151
1.40298
1.40436
1.4057
1.40692
1.40791
1.40855
1.40874
1.40852
1.40781
1.40649
1.40462
1.40227
1.39959
1.39682
1.39419
1.39186
1.38995
1.38839
1.38736
1.38734
1.3879
1.38684
1.37865
1.33356
1.20383
1.10016
1.08735
1.08483
1.08295
1.08083
1.07902
1.07751
1.07609
1.07468
1.07336
1.07226
1.07152
1.07117
1.07121
1.07171
1.07247
1.07358
1.07488
1.07614
1.07709
1.07782
1.0784
1.07892
1.07935
1.07968
1.08
1.08035
1.0806
1.08084
1.08119
1.08182
1.08326
1.08557
1.08854
1.09197
1.09615
1.10112
1.10702
1.11377
1.121
1.12792
1.13335
1.14333
1.1814
1.31101
1.43524
1.49876
1.54265
1.5736
1.60209
1.62825
1.64977
1.66941
1.6874
1.70342
1.71898
1.38929
1.39287
1.3956
1.39774
1.39941
1.40092
1.40245
1.40402
1.40547
1.4068
1.40799
1.40906
1.40984
1.41032
1.41047
1.41021
1.40944
1.40808
1.40622
1.40405
1.40179
1.39956
1.39747
1.39553
1.39375
1.39188
1.39017
1.38994
1.38999
1.38635
1.36822
1.29257
1.15452
1.09656
1.08932
1.08602
1.08254
1.07868
1.07498
1.07176
1.06875
1.06605
1.06375
1.0618
1.06018
1.05887
1.05772
1.05673
1.0559
1.05499
1.05395
1.05257
1.05067
1.04825
1.04546
1.04246
1.03942
1.03653
1.034
1.03211
1.03055
1.02933
1.02835
1.02768
1.02766
1.02873
1.03082
1.03391
1.03791
1.04281
1.04876
1.05559
1.06271
1.06883
1.07428
1.09612
1.18289
1.33288
1.42679
1.48375
1.53327
1.57818
1.61575
1.64723
1.67372
1.69821
1.72057
1.74003
1.38774
1.39195
1.39534
1.39813
1.40046
1.40247
1.40432
1.40615
1.40784
1.40944
1.41072
1.41175
1.41256
1.41317
1.41348
1.41344
1.41307
1.41215
1.41076
1.40909
1.40727
1.40531
1.40327
1.40113
1.39887
1.39643
1.39317
1.3895
1.38752
1.38544
1.37522
1.33892
1.23445
1.12588
1.09918
1.09133
1.08535
1.07919
1.07316
1.06779
1.06285
1.05837
1.05438
1.05071
1.04739
1.04413
1.0408
1.03727
1.03338
1.02908
1.0246
1.0202
1.01558
1.01069
1.00559
1.00041
0.995418
0.990873
0.98679
0.983223
0.980372
0.978363
0.977322
0.977321
0.978306
0.980494
0.983708
0.987958
0.993189
0.999225
1.00615
1.01381
1.02186
1.02937
1.03563
1.0418
1.0784
1.21211
1.34261
1.41308
1.46745
1.52101
1.57528
1.62563
1.66637
1.69911
1.72863
1.7568
1.38588
1.39083
1.39504
1.39864
1.40174
1.40447
1.4069
1.40917
1.41126
1.41324
1.41482
1.41597
1.41694
1.41759
1.4179
1.41789
1.41761
1.41687
1.4157
1.41429
1.41268
1.41083
1.40872
1.40624
1.40323
1.39972
1.39504
1.38822
1.38085
1.376
1.36914
1.34799
1.28662
1.17815
1.11738
1.10176
1.09162
1.0823
1.07366
1.06561
1.05837
1.05169
1.0455
1.03956
1.0338
1.02782
1.02173
1.01533
1.00852
1.00133
0.993788
0.98598
0.97827
0.970919
0.964342
0.958589
0.953556
0.949151
0.945758
0.943401
0.942006
0.941633
0.942299
0.944334
0.94771
0.952242
0.957761
0.964182
0.971376
0.979013
0.987104
0.995497
1.00398
1.01194
1.01928
1.02465
1.03478
1.10129
1.25256
1.35221
1.40447
1.45066
1.50553
1.56712
1.6272
1.68261
1.72842
1.76463
1.38377
1.38942
1.39447
1.39895
1.40291
1.40647
1.40969
1.41265
1.41536
1.41784
1.41988
1.42129
1.42235
1.42307
1.4234
1.42336
1.42294
1.42199
1.42062
1.41904
1.41719
1.41502
1.41237
1.40925
1.40542
1.40028
1.3935
1.38397
1.37177
1.36064
1.35149
1.33637
1.29897
1.21998
1.14083
1.1106
1.09618
1.08415
1.07262
1.06166
1.05148
1.04192
1.03282
1.02398
1.01502
1.00575
0.996319
0.986863
0.977521
0.968542
0.960011
0.952198
0.945321
0.939273
0.933799
0.92925
0.92575
0.923013
0.921372
0.92094
0.921795
0.924119
0.927644
0.932191
0.937587
0.943901
0.951015
0.958747
0.967025
0.975519
0.984199
0.99299
1.00174
1.01019
1.01856
1.02569
1.0295
1.0454
1.14976
1.29978
1.36871
1.40334
1.44026
1.49561
1.56196
1.63358
1.70071
1.75791
1.38175
1.38801
1.39381
1.39915
1.40402
1.40841
1.41245
1.41619
1.4196
1.42265
1.42533
1.42724
1.42846
1.42919
1.42943
1.42918
1.42829
1.4268
1.42493
1.42278
1.42014
1.41706
1.41354
1.40922
1.40372
1.39624
1.3863
1.37337
1.35675
1.33916
1.3252
1.31089
1.28426
1.23089
1.15927
1.11481
1.09518
1.08052
1.06655
1.05284
1.03985
1.02754
1.01572
1.00438
0.993395
0.982719
0.97239
0.962602
0.953503
0.945428
0.938268
0.932126
0.926959
0.922602
0.918878
0.915949
0.914261
0.914047
0.91482
0.916566
0.919148
0.92265
0.927143
0.932604
0.939089
0.946618
0.955052
0.964148
0.973752
0.983447
0.993006
1.00242
1.01125
1.0195
)
;

boundaryField
{
    inlet
    {
        type            fixedValue;
        value           nonuniform 0();
    }
    outlet
    {
        type            inletOutlet;
        inletValue      nonuniform 0();
        value           nonuniform 0();
    }
    bottom
    {
        type            symmetryPlane;
    }
    top
    {
        type            symmetryPlane;
    }
    obstacle
    {
        type            zeroGradient;
    }
    front
    {
        type            empty;
    }
    back
    {
        type            empty;
    }
    procBoundary12to4
    {
        type            processor;
        value           nonuniform List<scalar> 
89
(
1.31319
1.32114
1.32991
1.33928
1.34888
1.35837
1.3673
1.37606
1.38427
1.39218
1.39958
1.40681
1.41396
1.42145
1.42973
1.43887
1.44949
1.46155
1.47518
1.49062
1.50788
1.52696
1.54783
1.56984
1.59199
1.61305
1.63184
1.64736
1.65822
1.66465
1.66642
1.66498
1.66064
1.65147
1.63713
1.61703
1.58635
1.54381
1.49218
1.43872
1.39348
1.36177
1.34122
1.3236
1.30068
1.26918
1.23964
1.22358
1.21956
1.22683
1.24204
1.41046
1.41665
1.42388
1.43122
1.43781
1.44284
1.44621
1.44761
1.44642
1.44137
1.43175
1.41805
1.40077
1.38117
1.36083
1.34191
1.3262
1.31459
1.30639
1.30027
1.29516
1.28849
1.27787
1.26472
1.25705
1.2555
1.25675
1.26001
1.26378
1.26752
1.27119
1.27485
1.27858
1.2826
1.2871
1.29233
1.29846
1.29846
)
;
    }
    procBoundary12to5
    {
        type            processor;
        value           nonuniform List<scalar> 
27
(
1.25376
1.25221
1.25716
1.26884
1.28598
1.30727
1.33191
1.36021
1.39156
1.42346
1.45438
1.48425
1.51349
1.54202
1.56939
1.59475
1.61772
1.63898
1.65916
1.67796
1.6955
1.71339
1.73339
1.75581
1.77795
1.79421
1.7998
)
;
    }
    procBoundary12to11
    {
        type            processor;
        value           nonuniform List<scalar> 
26
(
1.39976
1.39639
1.39508
1.39518
1.39591
1.39709
1.39865
1.40053
1.40231
1.40373
1.40437
1.40408
1.4025
1.39991
1.39701
1.39427
1.39205
1.39053
1.3896
1.38878
1.3877
1.38638
1.38474
1.38264
1.38016
1.37749
)
;
    }
    procBoundary12to19
    {
        type            processor;
        value           uniform 1.37501;
    }
    procBoundary12to20
    {
        type            processor;
        value           nonuniform List<scalar> 
89
(
1.02722
1.03409
1.0382
1.03881
1.06696
1.2167
1.34989
1.38966
1.40938
1.43989
1.49267
1.56346
1.64599
1.72634
1.37994
1.38681
1.39331
1.39942
1.4051
1.41034
1.4152
1.41965
1.42369
1.42725
1.43041
1.43284
1.43433
1.43509
1.43531
1.4349
1.43354
1.43133
1.42857
1.42525
1.42136
1.41693
1.41175
1.40523
1.39675
1.38589
1.37239
1.35576
1.33551
1.31399
1.29542
1.27848
1.256
1.21728
1.16246
1.11536
1.08976
1.07191
1.05588
1.04073
1.02638
1.01291
1.0002
0.988475
0.977603
0.967687
0.958602
0.950345
0.942818
0.936098
0.930544
0.925805
0.921742
0.918677
0.916979
0.916279
0.916047
0.916555
0.917992
0.920383
0.923645
0.927791
0.932916
0.93905
0.946311
0.954624
0.963937
0.974139
0.984868
0.995851
1.00644
1.01642
1.0252
1.02722
1.03267
)
;
    }
}


// ************************************************************************* //
