/*--------------------------------*- C++ -*----------------------------------*\
  =========                 |
  \\      /  F ield         | OpenFOAM: The Open Source CFD Toolbox
   \\    /   O peration     | Website:  https://openfoam.org
    \\  /    A nd           | Version:  7
     \\/     M anipulation  |
\*---------------------------------------------------------------------------*/
FoamFile
{
    version     2.0;
    format      ascii;
    class       volVectorField;
    location    "58";
    object      U;
}
// * * * * * * * * * * * * * * * * * * * * * * * * * * * * * * * * * * * * * //

dimensions      [0 1 -1 0 0 0 0];

internalField   nonuniform List<vector> 
34000
(
(-0.0698621 -0.000258201 4.22718e-20)
(-0.12068 -0.00748058 5.86631e-20)
(-0.171787 -0.0164801 -1.97494e-20)
(-0.201674 -0.0277429 9.49393e-21)
(-0.219308 -0.0366685 -4.49152e-20)
(-0.236463 -0.0388877 -1.22442e-20)
(-0.24392 -0.0297676 -5.28467e-21)
(-0.252583 -0.00665681 -6.25941e-20)
(-0.253501 0.0287311 5.29159e-20)
(-0.25393 0.0700454 8.14691e-21)
(-0.247158 0.106127 -1.99087e-20)
(-0.239867 0.124114 1.31279e-20)
(-0.223727 0.112474 -1.68234e-20)
(-0.20013 0.0697426 3.86459e-21)
(-0.17025 0.000432245 -1.32945e-20)
(-0.128912 -0.0776103 1.50272e-20)
(-0.113654 -0.136745 -8.05387e-21)
(-0.0790581 -0.175068 1.58136e-20)
(-0.0742643 -0.162916 1.20105e-20)
(-0.0320821 -0.109696 5.32055e-21)
(-0.0701541 0.00553726 4.07217e-21)
(-0.120887 -0.00325129 -9.7731e-20)
(-0.171915 -0.0124102 -1.5334e-20)
(-0.201645 -0.0250846 -3.2009e-20)
(-0.218959 -0.0343004 1.12603e-19)
(-0.235578 -0.0372081 1.23957e-20)
(-0.242266 -0.0284639 -3.4579e-20)
(-0.249968 -0.00596604 9.18137e-20)
(-0.249637 0.0287478 -5.41978e-20)
(-0.248318 0.0692456 5.68195e-20)
(-0.238612 0.104272 5.70226e-20)
(-0.226628 0.121225 1.29251e-20)
(-0.203102 0.107437 2.91346e-20)
(-0.170181 0.0628774 -2.0814e-20)
(-0.12969 -0.00810269 3.58632e-20)
(-0.077594 -0.0850047 1.00035e-20)
(-0.0607034 -0.141505 2.08111e-20)
(-0.0218105 -0.178574 -5.10311e-20)
(-0.0350615 -0.166298 -5.6996e-21)
(-0.00620228 -0.118664 -7.03041e-21)
(-0.0705986 0.0113245 -9.24279e-20)
(-0.120881 0.000975196 1.19868e-19)
(-0.171409 -0.00832929 1.95875e-19)
(-0.200454 -0.0224145 -2.01638e-19)
(-0.216804 -0.0319395 -6.72738e-20)
(-0.232103 -0.0355718 6.9624e-20)
(-0.237074 -0.0272554 2.02551e-20)
(-0.242667 -0.00543297 -1.24513e-21)
(-0.239709 0.0285213 7.25395e-20)
(-0.23507 0.0680624 -1.2186e-20)
(-0.220581 0.10182 -5.48856e-20)
(-0.202108 0.117445 -7.80437e-20)
(-0.169063 0.101283 3.81232e-20)
(-0.125189 0.0548288 4.85608e-20)
(-0.0724516 -0.0177929 2.85782e-20)
(-0.00739874 -0.0920808 -9.55794e-20)
(0.0132885 -0.145847 -9.53397e-21)
(0.0627927 -0.178367 8.82896e-21)
(0.0360172 -0.164459 -8.72706e-21)
(0.0614592 -0.12111 -4.27042e-21)
(-0.0711945 0.0170824 -1.56914e-19)
(-0.120658 0.00517665 -1.49582e-19)
(-0.170266 -0.0042563 2.0583e-21)
(-0.198097 -0.0197509 6.83529e-20)
(-0.212842 -0.0296045 1.85757e-19)
(-0.226055 -0.0339987 -1.9195e-19)
(-0.228396 -0.0261661 1.13763e-19)
(-0.23079 -0.00508897 5.33948e-20)
(-0.223907 0.0280189 -8.34304e-20)
(-0.214497 0.0664622 -3.12942e-20)
(-0.193554 0.0987674 2.40925e-20)
(-0.1671 0.112797 9.28126e-20)
(-0.122836 0.0941249 -1.19787e-19)
(-0.0670277 0.0458067 -1.38824e-19)
(-0.00120954 -0.0286073 -3.53843e-21)
(0.0773169 -0.0989783 3.24924e-20)
(0.102898 -0.149967 -6.51079e-22)
(0.167037 -0.175836 1.91057e-20)
(0.132079 -0.158759 -2.49471e-20)
(0.163755 -0.117751 4.86185e-21)
(-0.0719406 0.02279 2.9685e-20)
(-0.12022 0.00933082 3.21254e-19)
(-0.168481 -0.00020983 -3.12916e-19)
(-0.194567 -0.017111 1.95628e-19)
(-0.207074 -0.0273118 -2.13412e-19)
(-0.21745 -0.0325047 2.85261e-19)
(-0.216292 -0.0252143 -1.15407e-19)
(-0.214468 -0.0049565 -1.25087e-19)
(-0.202471 0.0272166 -3.85567e-20)
(-0.186992 0.0644229 4.68184e-20)
(-0.158149 0.0951376 1.18862e-20)
(-0.122565 0.107341 -3.61422e-20)
(-0.0658351 0.0861223 1.33076e-19)
(0.00234486 0.0360224 1.97534e-19)
(0.0813881 -0.040105 3.13017e-21)
(0.172275 -0.105948 1.84247e-19)
(0.203041 -0.153876 6.25853e-20)
(0.281594 -0.1723 4.36214e-21)
(0.243837 -0.151032 9.61446e-21)
(0.288643 -0.11029 -8.25479e-22)
(-0.0728353 0.0284267 2.19328e-19)
(-0.119564 0.0134153 -1.6968e-20)
(-0.166051 0.00379147 -1.37034e-20)
(-0.18986 -0.0145113 -2.68397e-19)
(-0.199496 -0.0250756 -3.69385e-20)
(-0.206302 -0.0311005 -3.24318e-19)
(-0.200821 -0.0244105 9.67333e-21)
(-0.193842 -0.00504853 2.23648e-19)
(-0.175673 0.0261032 1.8865e-19)
(-0.15301 0.0619371 -1.61456e-19)
(-0.115072 0.0909856 -3.47446e-20)
(-0.0695275 0.101168 8.67399e-20)
(0.000468353 0.0773941 1.4292e-19)
(0.0811073 0.0257189 -1.28999e-20)
(0.173082 -0.0516272 1.5459e-19)
(0.273402 -0.112753 -7.35565e-20)
(0.309995 -0.15743 1.50717e-20)
(0.39779 -0.168573 -2.30211e-20)
(0.361856 -0.142988 5.47232e-20)
(0.421657 -0.101124 -1.06058e-20)
(-0.0738771 0.0339721 -1.95573e-19)
(-0.118692 0.0174077 -4.24766e-19)
(-0.162974 0.00772888 6.60354e-19)
(-0.183965 -0.0119672 4.06442e-19)
(-0.190099 -0.0229073 7.8745e-20)
(-0.192611 -0.0297907 2.47503e-19)
(-0.182028 -0.023755 1.70504e-19)
(-0.169043 -0.00536394 -1.97004e-19)
(-0.143788 0.0246841 -3.72138e-20)
(-0.113023 0.0590162 4.46759e-20)
(-0.0650663 0.0863961 3.64842e-20)
(-0.00898416 0.0943458 -8.95216e-20)
(0.0746681 0.0680643 -1.05304e-19)
(0.167637 0.0151741 -1.68141e-19)
(0.272002 -0.062584 -2.40353e-19)
(0.37738 -0.119072 -3.95756e-20)
(0.42061 -0.159962 -1.24052e-20)
(0.509367 -0.164833 -1.69231e-20)
(0.478597 -0.135659 -1.49864e-20)
(0.549396 -0.0925362 3.99729e-21)
(-0.0750639 0.0394063 -1.57628e-19)
(-0.117604 0.0212853 -2.96501e-19)
(-0.159245 0.0115835 -9.70483e-19)
(-0.17687 -0.00949346 3.07847e-19)
(-0.178861 -0.0208157 3.85317e-19)
(-0.176357 -0.0285727 -2.08028e-19)
(-0.159929 -0.0232348 4.90485e-20)
(-0.140171 -0.00588214 -2.73665e-20)
(-0.107066 0.0229875 -1.35295e-20)
(-0.0674714 0.0556954 -2.20316e-19)
(-0.00887121 0.0814231 -1.77061e-19)
(0.0581935 0.0869635 3.06894e-20)
(0.155516 0.0583586 1.19673e-20)
(0.260482 0.00463925 3.19879e-19)
(0.376045 -0.0723516 2.14327e-19)
(0.481767 -0.124518 5.96803e-20)
(0.531259 -0.160773 -5.16409e-20)
(0.61272 -0.160726 1.27912e-19)
(0.588976 -0.129183 -1.95453e-20)
(0.662795 -0.0858495 2.70017e-20)
(-0.0763935 0.0447097 4.20943e-19)
(-0.116302 0.0250254 1.10179e-18)
(-0.154859 0.0153362 9.86018e-19)
(-0.168556 -0.00710359 -1.74796e-19)
(-0.165752 -0.0188064 -7.93896e-19)
(-0.157495 -0.0274355 1.8185e-19)
(-0.134501 -0.0228211 -1.79831e-19)
(-0.107267 -0.0065578 -3.34965e-19)
(-0.065692 0.0210703 2.46134e-19)
(-0.0167107 0.0520463 2.73014e-19)
(0.0528726 0.0760899 4.22824e-20)
(0.131321 0.0792258 -1.39796e-19)
(0.241967 0.0485212 5.74081e-21)
(0.358306 -0.00561461 -1.27023e-19)
(0.482511 -0.0804127 -3.30392e-19)
(0.584558 -0.128575 -1.10739e-19)
(0.637637 -0.15946 -6.96876e-20)
(0.706012 -0.155806 -2.85808e-20)
(0.689469 -0.123172 -1.30445e-20)
(0.758003 -0.0810371 1.34986e-20)
(-0.0778636 0.0498636 -3.65692e-19)
(-0.114785 0.0286049 -3.64733e-19)
(-0.149809 0.0189672 -5.63666e-19)
(-0.158997 -0.00481032 1.12685e-19)
(-0.150721 -0.0168821 2.72754e-19)
(-0.135948 -0.0263592 2.21968e-19)
(-0.105669 -0.0224685 8.03214e-20)
(-0.0702922 -0.00731899 5.07576e-20)
(-0.0197502 0.01903 -6.04972e-19)
(0.039045 0.0481937 4.89638e-20)
(0.11966 0.0704802 1.5317e-19)
(0.209907 0.0713532 4.48647e-20)
(0.333133 0.03881 -3.75048e-19)
(0.459645 -0.0152098 3.35576e-20)
(0.588279 -0.0864279 -2.5174e-20)
(0.683506 -0.130685 1.9375e-19)
(0.735559 -0.155953 4.19795e-20)
(0.788221 -0.149812 -4.59098e-20)
(0.777286 -0.117255 -4.33756e-20)
(0.834757 -0.0773807 -5.46385e-20)
(-0.0794715 0.05485 7.2768e-19)
(-0.113057 0.0320006 -2.66308e-19)
(-0.144087 0.0224562 2.03711e-19)
(-0.148156 -0.00262539 -3.89529e-19)
(-0.133702 -0.0150427 -3.80455e-19)
(-0.111601 -0.0253147 -1.5534e-19)
(-0.0732954 -0.0221153 2.42252e-19)
(-0.029112 -0.00806854 2.76217e-19)
(0.0307944 0.0170183 3.37397e-20)
(0.0997547 0.0443259 -3.42986e-19)
(0.191169 0.0647538 -9.65219e-20)
(0.293565 0.0635537 -2.76816e-20)
(0.428127 0.0295605 1.50732e-19)
(0.562505 -0.0236414 -9.82365e-20)
(0.690169 -0.0901759 -8.42251e-20)
(0.77583 -0.130451 -2.84321e-19)
(0.821876 -0.150432 1.28859e-19)
(0.858698 -0.142703 1.05348e-20)
(0.850599 -0.111276 3.24956e-20)
(0.894469 -0.0742474 1.76526e-20)
(-0.0812141 0.0596516 -1.44604e-19)
(-0.111117 0.035189 -4.6225e-19)
(-0.13768 0.0257819 8.88293e-20)
(-0.135987 -0.000559433 3.98636e-19)
(-0.114604 -0.0132847 4.80604e-19)
(-0.0843026 -0.0242637 -1.64128e-19)
(-0.0371898 -0.0216844 -6.85083e-19)
(0.0164891 -0.00863978 -6.13086e-20)
(0.086106 0.0151982 2.45844e-19)
(0.165511 0.0406928 1.44857e-19)
(0.267288 0.0591339 2.57759e-19)
(0.38185 0.0560848 1.97167e-19)
(0.525747 0.0211909 -3.52224e-19)
(0.664137 -0.0304086 -1.43353e-19)
(0.785129 -0.0915308 1.9766e-19)
(0.858647 -0.127764 3.53662e-19)
(0.894866 -0.143241 -1.79069e-19)
(0.917163 -0.134638 -3.44961e-20)
(0.909083 -0.105213 -2.30156e-20)
(0.939389 -0.0713086 -1.75281e-21)
(-0.0830884 0.0642519 -4.54398e-19)
(-0.108965 0.0381466 5.58928e-19)
(-0.130574 0.0289221 -9.37674e-20)
(-0.122431 0.00137823 -6.03636e-19)
(-0.0933145 -0.0116012 7.20859e-19)
(-0.0538654 -0.0231584 1.61724e-19)
(0.00288561 -0.0210716 1.32505e-19)
(0.0667696 -0.00885235 3.22376e-19)
(0.146401 0.0137632 1.70416e-20)
(0.236428 0.0375831 7.55037e-20)
(0.34799 0.0539241 -1.0415e-19)
(0.473993 0.0492693 -8.87089e-21)
(0.624083 0.0141514 2.65246e-19)
(0.761203 -0.0351335 4.02255e-19)
(0.870382 -0.0905207 8.12828e-20)
(0.929703 -0.122825 -2.93395e-19)
(0.954156 -0.134813 1.80982e-19)
(0.963908 -0.125914 1.24154e-19)
(0.953902 -0.0991047 2.35526e-20)
(0.972293 -0.0684412 6.07662e-20)
(-0.0850908 0.0686357 -2.45126e-19)
(-0.106602 0.0408494 -6.89351e-19)
(-0.122748 0.0318533 -2.54333e-20)
(-0.107413 0.00318001 4.50581e-19)
(-0.0696976 -0.00998197 8.33439e-19)
(-0.020076 -0.0219408 -7.08758e-20)
(0.0471776 -0.0201573 -6.03022e-22)
(0.121981 -0.0085481 -2.116e-19)
(0.211851 0.0129615 2.02273e-19)
(0.312446 0.0352777 2.10301e-19)
(0.433016 0.0494854 -8.01755e-20)
(0.568554 0.0434643 4e-19)
(0.720321 0.0088148 4.72544e-19)
(0.850258 -0.0376494 -3.15813e-19)
(0.943738 -0.0873795 -4.25184e-19)
(0.98789 -0.116073 3.26014e-19)
(1.00045 -0.125607 -1.66253e-19)
(0.999918 -0.11688 -6.80931e-21)
(0.987176 -0.0930304 2.1601e-20)
(0.996062 -0.0655885 -2.59498e-20)
(-0.0872176 0.0727886 1.4806e-18)
(-0.104024 0.0432736 7.83486e-19)
(-0.114176 0.0345509 7.39791e-20)
(-0.0908413 0.00484082 -3.02517e-19)
(-0.0435917 -0.00841226 -3.69435e-19)
(0.017292 -0.0205429 -2.37485e-19)
(0.0959101 -0.0188254 -1.14207e-19)
(0.182254 -0.00755247 -9.2085e-20)
(0.282424 0.0130244 -4.72206e-19)
(0.393105 0.0340041 -6.89764e-20)
(0.521449 0.0461541 1.03113e-19)
(0.66314 0.0389775 -6.46032e-19)
(0.810989 0.00535853 1.20661e-20)
(0.928352 -0.038046 7.21493e-20)
(1.00398 -0.0825263 -2.82416e-19)
(1.03334 -0.108064 -1.05143e-19)
(1.03523 -0.116058 7.94981e-20)
(1.02674 -0.107851 -3.49307e-20)
(1.01136 -0.0870791 -9.58418e-20)
(1.01321 -0.0627095 1.76406e-21)
(-0.0894644 0.0766973 -1.45975e-18)
(-0.101228 0.0453954 -1.21506e-18)
(-0.104826 0.0369888 -3.58388e-19)
(-0.0726041 0.00635967 2.72895e-19)
(-0.0148123 -0.00686695 2.92085e-19)
(0.0584584 -0.0188898 -4.45487e-19)
(0.149229 -0.016958 1.47311e-20)
(0.247496 -0.00571041 1.35308e-19)
(0.357698 0.014134 2.12662e-19)
(0.477346 0.0338988 1.19389e-19)
(0.611391 0.0441386 2.88889e-19)
(0.754466 0.0359532 1.15327e-19)
(0.892633 0.00370443 -3.21818e-19)
(0.993584 -0.0366469 -1.84832e-19)
(1.05109 -0.0764805 -1.05264e-19)
(1.06719 -0.0993593 -2.23567e-19)
(1.06039 -0.106527 -2.12234e-20)
(1.04617 -0.0990662 1.06103e-20)
(1.02874 -0.081323 1.03827e-19)
(1.02572 -0.0597887 7.27839e-20)
(-0.0918267 0.0803497 5.82003e-19)
(-0.0982053 0.0471913 1.10594e-18)
(-0.0946556 0.0391403 -2.87233e-19)
(-0.0525685 0.00774223 3.842e-19)
(0.0168428 -0.00530542 -1.73842e-19)
(0.103608 -0.0169025 6.69725e-19)
(0.207134 -0.0144371 2.27753e-19)
(0.317288 -0.0029147 4.02026e-19)
(0.436718 0.0163859 -1.15512e-19)
(0.563392 0.0349791 1.05561e-19)
(0.699987 0.0434447 -8.40767e-20)
(0.838915 0.0343063 3.90737e-19)
(0.962617 0.00355131 -1.54035e-19)
(1.04539 -0.033916 -1.02761e-19)
(1.0861 -0.0697579 2.67496e-19)
(1.09122 -0.0904384 3.24747e-19)
(1.07797 -0.0972776 -1.95523e-19)
(1.05996 -0.0906816 1.69441e-19)
(1.04122 -0.0758074 -2.06331e-20)
(1.03501 -0.0568199 3.47126e-22)
(-0.0942995 0.0837349 -5.50306e-19)
(-0.0949451 0.0486386 -1.09075e-18)
(-0.0836111 0.0409781 -3.18656e-19)
(-0.0305766 0.00900049 -3.0624e-19)
(0.0515882 -0.00367307 4.43533e-20)
(0.152853 -0.0144901 4.49432e-20)
(0.269411 -0.011155 1.14132e-19)
(0.390814 0.000880542 3.95563e-20)
(0.517931 0.0197596 3.65487e-19)
(0.648814 0.037126 2.97242e-20)
(0.783874 0.0438681 1.24855e-19)
(0.913389 0.0337577 -2.67969e-19)
(1.01967 0.00448116 2.39842e-19)
(1.0845 -0.0303382 1.26978e-19)
(1.11078 -0.0627901 -8.62271e-20)
(1.10745 -0.0816604 -1.61562e-19)
(1.08984 -0.0884724 2.3129e-19)
(1.0696 -0.0827788 2.73263e-19)
(1.05026 -0.0705516 1.57838e-19)
(1.04208 -0.0538116 -1.3052e-19)
(-0.096877 0.0868431 -6.12168e-19)
(-0.0914306 0.0497154 1.73003e-19)
(-0.0716227 0.0424746 6.77361e-20)
(-0.00644215 0.0101515 -3.63738e-19)
(0.0896387 -0.00189297 7.52157e-19)
(0.206184 -0.0115513 -7.67072e-19)
(0.335564 -0.00702962 -9.29133e-19)
(0.466833 0.00564995 -1.28067e-18)
(0.599285 0.0241126 -3.25064e-19)
(0.730815 0.040091 -5.56311e-19)
(0.859935 0.0450608 -5.18841e-19)
(0.976016 0.0339446 -3.21633e-19)
(1.06398 0.00608069 4.10639e-19)
(1.11253 -0.0263263 -1.25401e-19)
(1.12717 -0.0558882 -1.73698e-19)
(1.11779 -0.0732576 3.43851e-20)
(1.09756 -0.0801944 2.3437e-19)
(1.07629 -0.0753863 -7.60832e-20)
(1.0569 -0.065559 -2.1373e-20)
(1.04758 -0.0507765 4.84737e-20)
(-0.0995528 0.0896655 1.2472e-18)
(-0.0876383 0.0504015 9.00079e-19)
(-0.0586008 0.0436036 6.03016e-19)
(0.0200475 0.0112298 -6.72654e-20)
(0.131191 0.000135463 -8.15585e-19)
(0.26343 -0.00798699 1.37383e-19)
(0.404773 -0.00202183 3.96321e-19)
(0.543731 0.0112906 1.36062e-18)
(0.678444 0.0291989 2.38619e-19)
(0.806707 0.04354 5.35879e-20)
(0.925975 0.046642 3.76266e-19)
(1.02638 0.0345347 4.14732e-19)
(1.09682 0.00802335 -6.51201e-19)
(1.13154 -0.0221791 3.34515e-19)
(1.13729 -0.0492455 -1.05399e-19)
(1.12387 -0.0653573 -6.25767e-20)
(1.10237 -0.0724684 -2.65906e-19)
(1.08089 -0.0684997 4.32131e-20)
(1.06187 -0.0608214 -1.39828e-19)
(1.05196 -0.0477295 -9.21921e-20)
(-0.10232 0.0921942 -1.64546e-19)
(-0.0835361 0.0506788 5.14473e-19)
(-0.0444313 0.0443477 -1.42733e-19)
(0.0491274 0.0122896 -2.97162e-19)
(0.176386 0.00253182 1.14376e-19)
(0.324199 -0.00371085 4.02256e-19)
(0.475891 0.0038479 -4.05176e-19)
(0.619647 0.0176241 -4.93222e-19)
(0.753122 0.0347087 -3.39869e-19)
(0.87441 0.0471273 -3.57774e-20)
(0.981059 0.0482983 -9.21973e-20)
(1.06527 0.0352917 -3.55999e-19)
(1.12008 0.0100939 1.22416e-19)
(1.14361 -0.0180848 -2.05092e-19)
(1.14286 -0.0429623 3.95487e-19)
(1.12701 -0.0580119 -3.25502e-19)
(1.10516 -0.0652834 1.19329e-20)
(1.08404 -0.0620967 1.73204e-20)
(1.06566 -0.0563245 2.14885e-19)
(1.0555 -0.0446862 1.26739e-19)
(-0.10517 0.0944223 -1.13476e-18)
(-0.0790802 0.0505321 -1.0553e-19)
(-0.0289705 0.0447035 -7.09384e-19)
(0.0810489 0.0134015 2.04392e-19)
(0.225263 0.00543379 -4.84191e-19)
(0.387842 0.00133464 8.25052e-19)
(0.547501 0.0104889 8.28384e-19)
(0.692676 0.0244131 1.49676e-19)
(0.821413 0.0403219 7.667e-19)
(0.93276 0.0505696 2.34249e-19)
(1.02541 0.0498317 -2.28159e-19)
(1.09422 0.0360833 -1.45839e-19)
(1.13575 0.0121722 3.20864e-19)
(1.15054 -0.0141465 1.27997e-19)
(1.14527 -0.0370766 2.61136e-19)
(1.12815 -0.0512253 8.91931e-19)
(1.1066 -0.0586086 -8.22648e-20)
(1.08618 -0.0561469 -1.99557e-19)
(1.06859 -0.0520512 -1.47482e-19)
(1.0584 -0.0416613 -7.08933e-20)
(-0.108094 0.0963434 7.96525e-19)
(-0.0742134 0.0499513 1.29033e-19)
(-0.0120338 0.0446784 1.81276e-18)
(0.116059 0.0146641 -2.29655e-20)
(0.277703 0.00898186 -2.75425e-19)
(0.453444 0.00715934 -6.90757e-19)
(0.618034 0.0177418 5.48534e-19)
(0.761102 0.031391 -8.11488e-19)
(0.882047 0.0457614 -6.55711e-19)
(0.981534 0.0536865 -3.31151e-19)
(1.06004 0.0511554 2.77507e-19)
(1.11505 0.0368554 -1.13374e-20)
(1.14569 0.0142027 -1.30337e-19)
(1.15384 -0.0104101 -3.96011e-19)
(1.14555 -0.0315886 3.86688e-19)
(1.12798 -0.0449741 -7.53769e-19)
(1.10712 -0.0524039 7.82687e-20)
(1.08761 -0.0506178 -1.4816e-19)
(1.07089 -0.0479831 8.45769e-20)
(1.06078 -0.038668 1.70299e-20)
(-0.111082 0.0979511 1.87632e-19)
(-0.0688625 0.0489338 -1.52973e-19)
(0.00661198 0.0442971 -1.69263e-18)
(0.154374 0.0162043 6.17165e-19)
(0.33337 0.0132957 1.75991e-18)
(0.519855 0.0137107 -3.02073e-19)
(0.685935 0.0253956 -4.59336e-21)
(0.823599 0.0383012 2.53654e-19)
(0.934464 0.0508293 4.39744e-20)
(1.02125 0.0564006 -1.51251e-19)
(1.08637 0.0522605 1.64302e-19)
(1.12947 0.0376 2.76619e-20)
(1.15141 0.016167 -7.33176e-20)
(1.15463 -0.00688735 1.84114e-19)
(1.14446 -0.0264788 -6.23676e-19)
(1.12697 -0.0392208 3.9127e-19)
(1.10702 -0.0466266 3.52385e-19)
(1.08853 -0.0454775 2.3293e-19)
(1.07271 -0.0441023 -1.00687e-19)
(1.06274 -0.0357183 6.45574e-20)
(-0.11412 0.0992388 -6.51763e-19)
(-0.0629327 0.047481 -4.82932e-19)
(0.0272482 0.0436209 8.57075e-19)
(0.196139 0.0181691 -9.99034e-19)
(0.391681 0.0184481 -2.49071e-20)
(0.585781 0.0208706 1.67893e-19)
(0.749833 0.0332167 -4.38239e-19)
(0.879347 0.044932 1.95763e-19)
(0.978738 0.0554163 -4.70689e-19)
(1.05288 0.0587114 4.05212e-19)
(1.10589 0.0531797 -8.2545e-20)
(1.13903 0.03833 5.10033e-19)
(1.15413 0.0180647 -1.73557e-19)
(1.15376 -0.00357118 -4.50359e-19)
(1.1425 -0.0217186 -2.18815e-19)
(1.12545 -0.0339223 4.49542e-20)
(1.10652 -0.0412348 2.2584e-20)
(1.08907 -0.0406963 3.53947e-20)
(1.07413 -0.0403911 -8.41719e-20)
(1.06434 -0.0328229 -8.56828e-20)
(-0.117196 0.100199 1.50175e-18)
(-0.0562962 0.045589 1.23282e-18)
(0.0501959 0.0427693 -6.53699e-19)
(0.241376 0.020712 8.52831e-19)
(0.451801 0.0244432 -3.324e-19)
(0.649908 0.0284673 -2.56581e-19)
(0.808681 0.0409819 3.68466e-19)
(0.928038 0.0511357 8.63004e-19)
(1.0154 0.0594891 2.67804e-19)
(1.07757 0.0606624 2.53043e-19)
(1.11999 0.0539607 -2.5812e-20)
(1.14494 0.0390641 -4.26226e-19)
(1.15476 0.0199029 -5.03303e-20)
(1.15182 -0.000445152 5.44661e-19)
(1.14005 -0.0172776 8.34956e-20)
(1.12362 -0.0290345 -3.90389e-19)
(1.10575 -0.0361895 -8.04659e-20)
(1.08934 -0.0362471 1.25366e-21)
(1.07522 -0.0368329 1.51873e-20)
(1.06564 -0.0299916 7.87251e-20)
(-0.120293 0.100822 -1.15066e-18)
(-0.0487925 0.0432685 -2.15343e-18)
(0.0758173 0.0419111 -4.3578e-19)
(0.28993 0.0239708 6.0365e-19)
(0.512699 0.0312075 -3.18414e-19)
(0.711045 0.0363003 9.26801e-19)
(0.861819 0.0485053 -1.29468e-19)
(0.969792 0.0568308 -3.46593e-19)
(1.04524 0.0630663 -6.01049e-20)
(1.0965 0.0623158 5.77522e-20)
(1.12986 0.0546514 -3.34496e-19)
(1.14821 0.0398201 9.96792e-20)
(1.15396 0.0216907 -6.11017e-20)
(1.14923 0.00251084 2.66307e-19)
(1.13732 -0.0131262 7.51671e-19)
(1.12161 -0.024515 4.14574e-19)
(1.1048 -0.0314556 8.74401e-20)
(1.08937 -0.0321052 1.6501e-19)
(1.07605 -0.0334117 5.05516e-20)
(1.06666 -0.0272337 1.34718e-19)
(-0.123395 0.101096 -3.81533e-20)
(-0.0402313 0.0405583 7.75301e-19)
(0.104489 0.0412576 1.70818e-18)
(0.341421 0.0280414 -4.9947e-19)
(0.573237 0.0385986 4.155e-20)
(0.768232 0.0441691 -1.38909e-18)
(0.908965 0.0556525 1.15793e-19)
(1.00503 0.0619904 -5.30839e-19)
(1.06915 0.0661964 -1.76712e-20)
(1.11074 0.0637356 2.34994e-19)
(1.13648 0.0552931 3.28604e-19)
(1.14956 0.0406119 2.12446e-19)
(1.15222 0.0234369 -2.9905e-19)
(1.14627 0.00531728 5.39433e-20)
(1.13447 -0.00923777 -2.13609e-19)
(1.11952 -0.0203233 -4.28069e-19)
(1.10373 -0.0270023 -1.84408e-19)
(1.08923 -0.0282482 -2.30051e-19)
(1.07663 -0.0301122 4.42365e-20)
(1.06746 -0.024559 -1.99006e-19)
(-0.12648 0.101003 1.25829e-18)
(-0.0303788 0.0375151 -6.63702e-19)
(0.136549 0.0410672 -4.77578e-19)
(0.395239 0.0329533 -4.20559e-19)
(0.632298 0.0464289 1.11524e-18)
(0.820799 0.0518974 -2.27377e-19)
(0.950162 0.0623413 -9.43981e-19)
(1.03436 0.0666264 7.23383e-19)
(1.08805 0.0689399 3.97084e-20)
(1.12122 0.0649804 -7.33278e-19)
(1.14066 0.0559189 -1.37113e-19)
(1.14955 0.0414487 -2.53387e-19)
(1.14988 0.0251486 -1.13467e-19)
(1.14314 0.0079933 4.80086e-21)
(1.13159 -0.00558862 -1.94083e-19)
(1.11739 -0.0164222 4.59831e-19)
(1.10258 -0.0228034 -3.25065e-20)
(1.08893 -0.0246551 1.56862e-20)
(1.077 -0.0269196 -1.75582e-20)
(1.06805 -0.0219766 -8.27225e-22)
(-0.129526 0.100522 -5.4222e-19)
(-0.0189526 0.0342236 9.05664e-19)
(0.172235 0.0416213 -3.57251e-19)
(0.450568 0.0386583 -1.09187e-18)
(0.688889 0.0544974 -2.2568e-19)
(0.86838 0.0593478 -4.81413e-19)
(0.985681 0.0685338 1.00538e-18)
(1.05847 0.0707739 -5.41186e-19)
(1.10275 0.0713593 2.0178e-19)
(1.12872 0.0660996 3.22792e-19)
(1.143 0.0565534 -2.78308e-19)
(1.14861 0.042336 2.22842e-19)
(1.14719 0.0268314 1.67859e-19)
(1.13995 0.0105558 -6.23277e-19)
(1.12874 -0.00215828 2.91342e-19)
(1.11527 -0.0127772 2.16643e-19)
(1.10138 -0.0188369 2.18655e-19)
(1.08849 -0.0213057 5.23802e-20)
(1.0772 -0.0238207 -4.78944e-20)
(1.06846 -0.0194956 4.08207e-20)
(-0.132504 0.0996215 -2.26258e-19)
(-0.00562339 0.0308087 -9.88072e-21)
(0.211618 0.0431825 1.37397e-18)
(0.506463 0.0450377 2.67845e-18)
(0.742225 0.0626166 -1.42764e-18)
(0.910868 0.066425 1.82659e-19)
(1.01595 0.0742259 -7.88784e-19)
(1.07804 0.0744801 -2.66776e-19)
(1.114 0.0735131 -2.81372e-19)
(1.13389 0.0671331 2.25845e-20)
(1.14398 0.0572145 1.64631e-19)
(1.14703 0.0432754 6.57914e-19)
(1.1443 0.0284896 3.25349e-19)
(1.13678 0.0130191 1.63817e-19)
(1.12594 0.00107121 -2.27565e-19)
(1.11318 -0.00935667 1.1952e-19)
(1.10013 -0.015085 -2.95316e-20)
(1.08793 -0.0181802 -1.56766e-19)
(1.07724 -0.0208034 1.34859e-19)
(1.06872 -0.0171258 4.59907e-20)
(-0.135383 0.0982633 -7.83881e-19)
(0.00997866 0.0274481 7.02131e-19)
(0.254543 0.0459453 -3.00546e-18)
(0.56194 0.0519263 -2.56705e-18)
(0.791758 0.0706312 6.29131e-19)
(0.948365 0.0730724 5.56215e-19)
(1.04146 0.0794353 -2.56496e-19)
(1.09373 0.0777962 7.81714e-19)
(1.12244 0.0754532 5.3482e-19)
(1.13725 0.0681124 -5.519e-20)
(1.14397 0.0579139 -1.71583e-19)
(1.14503 0.0442661 -5.83526e-19)
(1.14132 0.0301265 4.27987e-20)
(1.13368 0.015395 -2.86618e-20)
(1.12322 0.00411582 1.90065e-19)
(1.11112 -0.0061319 -4.63566e-19)
(1.09885 -0.0115339 3.96548e-19)
(1.08727 -0.0152587 1.26109e-19)
(1.07714 -0.0178574 -2.36516e-19)
(1.06884 -0.0148782 -2.10674e-20)
(-0.138122 0.0963963 6.28197e-19)
(0.0282472 0.0243806 -1.01496e-18)
(0.300597 0.0499932 7.78565e-20)
(0.616083 0.0591437 1.42782e-18)
(0.837173 0.0784238 1.20005e-18)
(0.981117 0.079264 -6.48819e-19)
(1.06275 0.0841937 4.50809e-19)
(1.10615 0.0807728 -5.99212e-19)
(1.12861 0.0772244 -5.13346e-19)
(1.13923 0.0690614 -2.06351e-19)
(1.14324 0.0586588 3.21333e-19)
(1.14275 0.0453051 -8.90263e-19)
(1.13832 0.0317444 -4.7771e-20)
(1.13066 0.0176926 3.45025e-19)
(1.12057 0.00699008 -3.06687e-19)
(1.10911 -0.00307708 -9.90968e-20)
(1.09753 -0.00817275 1.51508e-20)
(1.08652 -0.012521 -2.05651e-19)
(1.07693 -0.0149748 3.93834e-20)
(1.06883 -0.012765 1.01885e-19)
(-0.140672 0.0939571 -2.15791e-19)
(0.0495704 0.021906 -2.84039e-19)
(0.349124 0.0552761 1.76505e-18)
(0.66811 0.0665204 -1.07779e-18)
(0.878356 0.0859145 -5.44365e-19)
(1.00946 0.0849962 -1.962e-19)
(1.08033 0.0885393 1.02159e-18)
(1.11582 0.0834577 6.52709e-19)
(1.13297 0.0788639 4.83786e-19)
(1.14013 0.0699978 -6.86621e-19)
(1.142 0.059453 -5.51171e-19)
(1.14032 0.0463882 2.85309e-19)
(1.13536 0.0333453 -3.89436e-19)
(1.12774 0.0199191 -6.81906e-19)
(1.11801 0.00970762 -5.92992e-20)
(1.10714 -0.000169356 -9.14683e-20)
(1.09618 -0.00499327 -2.08875e-19)
(1.0857 -0.00994582 2.7951e-19)
(1.07661 -0.012151 -9.34871e-20)
(1.06871 -0.0107996 -3.81761e-20)
(-0.142972 0.090876 -1.49201e-18)
(0.0742946 0.0203634 -1.09217e-18)
(0.399283 0.0616193 -5.0182e-19)
(0.717422 0.0739137 -9.33574e-19)
(0.915344 0.0930541 -2.96268e-19)
(1.03378 0.0902812 -4.61345e-19)
(1.0947 0.0925132 -8.8792e-19)
(1.12322 0.0858939 -1.08159e-18)
(1.13587 0.0804028 2.53162e-19)
(1.14023 0.0709343 -4.89088e-20)
(1.1404 0.0602974 1.41484e-19)
(1.13779 0.0475105 5.79569e-19)
(1.13245 0.0349305 2.11338e-19)
(1.12492 0.0220797 6.80441e-19)
(1.11552 0.0122815 2.49068e-19)
(1.10521 0.00261098 5.10432e-19)
(1.09479 -0.00198916 1.10449e-19)
(1.08482 -0.00751115 1.73891e-19)
(1.0762 -0.00938296 2.70259e-19)
(1.06848 -0.00899455 4.43618e-20)
(-0.144957 0.087085 4.90966e-19)
(0.102676 0.0200926 6.65832e-19)
(0.450147 0.068763 1.29879e-18)
(0.763605 0.0812124 2.16318e-18)
(0.948289 0.0998178 -4.81917e-19)
(1.05447 0.0951407 4.03859e-19)
(1.1063 0.0961564 6.24353e-19)
(1.12874 0.0881197 8.63756e-19)
(1.13763 0.0818659 -1.56301e-19)
(1.13972 0.0718794 8.53295e-19)
(1.13854 0.061191 4.10801e-19)
(1.13522 0.0486664 -5.38292e-19)
(1.1296 0.0365011 -4.00284e-19)
(1.12219 0.0241779 7.09956e-21)
(1.11311 0.0147246 -2.83497e-19)
(1.10332 0.00528021 -3.18259e-19)
(1.09338 0.000844347 2.11404e-19)
(1.08389 -0.00519232 3.69881e-19)
(1.07568 -0.00666559 -1.14959e-19)
(1.06814 -0.00736085 -1.93066e-19)
(-0.146541 0.0825144 1.72062e-18)
(0.134815 0.0213952 1.42128e-18)
(0.500803 0.0764194 9.5135e-19)
(0.806423 0.088335 -1.91959e-18)
(0.977415 0.106198 3.9217e-19)
(1.07194 0.0996024 2.06968e-19)
(1.11554 0.099508 -1.35534e-19)
(1.13272 0.0901686 -1.03089e-19)
(1.13848 0.0832732 3.66085e-19)
(1.13875 0.0728389 -5.24682e-19)
(1.13652 0.0621314 -6.73594e-20)
(1.13264 0.0498505 7.12711e-19)
(1.12684 0.0380579 7.23873e-19)
(1.11955 0.0262162 -1.58439e-19)
(1.11078 0.0170497 4.32964e-19)
(1.10146 0.00785078 2.13347e-19)
(1.09194 0.00351089 -1.78573e-19)
(1.08292 -0.00295942 -2.95887e-19)
(1.07505 -0.00398824 3.14859e-20)
(1.06769 -0.00591433 4.27096e-21)
(-0.147614 0.0771015 -1.10023e-18)
(0.170619 0.0244806 4.03946e-19)
(0.550437 0.084325 -3.3191e-18)
(0.845782 0.0952247 6.5953e-19)
(1.00299 0.112201 -1.90264e-19)
(1.08655 0.103697 -5.39581e-19)
(1.12277 0.102604 -1.09958e-18)
(1.13544 0.0920695 -4.53392e-19)
(1.13863 0.0846405 -8.84956e-19)
(1.13744 0.0738159 4.55158e-19)
(1.13438 0.0631153 -2.19283e-19)
(1.13008 0.0510576 -7.7574e-19)
(1.12415 0.0396012 -8.14766e-19)
(1.11699 0.0281963 2.22005e-19)
(1.10851 0.0192693 -2.02471e-19)
(1.09963 0.0103307 -1.31418e-19)
(1.09049 0.0060147 9.18692e-20)
(1.08191 -0.000774616 2.06396e-19)
(1.07429 -0.00134268 -8.88433e-20)
(1.06713 -0.00467471 1.38594e-19)
(-0.148044 0.0708159 -1.21588e-18)
(0.209787 0.0294089 1.59705e-18)
(0.598383 0.0922751 1.46833e-18)
(0.881703 0.101845 -1.7506e-18)
(1.0253 0.117838 1.18712e-18)
(1.09865 0.107455 -9.9353e-19)
(1.12832 0.105479 -5.22149e-19)
(1.13714 0.093847 5.6447e-19)
(1.13822 0.08598 -1.64893e-19)
(1.13588 0.0748118 -2.43145e-19)
(1.13216 0.0641388 1.89672e-19)
(1.12754 0.0522827 -1.84676e-19)
(1.12153 0.041131 5.33591e-20)
(1.11451 0.0301197 -3.4452e-19)
(1.1063 0.0213952 -1.02432e-19)
(1.09782 0.0127235 9.40074e-20)
(1.08903 0.0083645 -4.80703e-20)
(1.08087 0.00140452 -3.04796e-19)
(1.07337 0.00125076 1.42615e-19)
(1.06648 -0.00369799 4.34636e-20)
(-0.147671 0.0636769 1.01956e-18)
(0.251818 0.0360643 -7.54116e-19)
(0.644144 0.100134 2.61021e-19)
(0.914287 0.108174 1.3366e-18)
(1.04463 0.123129 -2.36526e-19)
(1.10858 0.110909 5.44205e-19)
(1.13243 0.108161 -2.18808e-19)
(1.13802 0.0955218 -5.88383e-19)
(1.13737 0.0873007 -7.55493e-20)
(1.13413 0.0758265 2.85464e-19)
(1.12991 0.0651974 -2.12543e-19)
(1.12504 0.0535211 7.59406e-19)
(1.11898 0.0426469 1.39204e-19)
(1.1121 0.0319878 2.48841e-19)
(1.10416 0.0234382 2.65482e-19)
(1.09604 0.0150293 -4.30872e-19)
(1.08758 0.0105774 -1.29046e-19)
(1.0798 0.00360983 1.48732e-19)
(1.07234 0.00369827 1.84784e-19)
(1.06576 -0.00297331 -1.89717e-19)
(-0.14631 0.0557717 -1.04021e-18)
(0.296062 0.0441616 -1.91828e-18)
(0.687375 0.107823 -2.07908e-19)
(0.943688 0.114202 5.41339e-19)
(1.06128 0.128096 2.21206e-19)
(1.1166 0.114088 6.08473e-19)
(1.13536 0.110677 2.71354e-19)
(1.13823 0.0971113 6.24575e-19)
(1.1362 0.0886096 -5.59484e-19)
(1.13224 0.0768593 -2.12056e-19)
(1.12762 0.0662868 1.73201e-19)
(1.12257 0.0547688 -7.48306e-19)
(1.1165 0.0441483 4.69083e-19)
(1.10975 0.0338022 -2.66698e-19)
(1.10206 0.0254072 -2.77319e-19)
(1.09427 0.0172476 1.07651e-19)
(1.08613 0.0126785 1.37445e-19)
(1.07869 0.00583574 9.65861e-20)
(1.0713 0.0058521 -9.46498e-20)
(1.06491 -0.00259813 1.68319e-19)
(-0.143743 0.0472705 1.22101e-18)
(0.341784 0.0532868 1.05213e-18)
(0.727869 0.115307 8.33213e-19)
(0.970093 0.119925 -1.98024e-18)
(1.07551 0.132763 -1.15333e-18)
(1.12299 0.11702 -1.24341e-18)
(1.1373 0.113052 2.21829e-19)
(1.13792 0.0986302 -5.70967e-19)
(1.13476 0.0899116 2.07037e-19)
(1.13025 0.0779088 -2.57324e-19)
(1.12533 0.0674028 -1.61159e-19)
(1.12014 0.0560223 1.73159e-19)
(1.11407 0.0456345 -6.42619e-19)
(1.10746 0.0355651 3.73976e-19)
(1.10002 0.0273091 8.95041e-20)
(1.09252 0.01938 2.07941e-19)
(1.08469 0.0146921 -1.76268e-19)
(1.07755 0.00802856 5.25357e-20)
(1.07031 0.00760506 -1.26417e-19)
(1.06428 0.000307338 -4.33496e-20)
(-0.139726 0.0384366 1.1081e-18)
(0.388243 0.0629623 -3.58983e-19)
(0.765528 0.122569 -1.33586e-18)
(0.993702 0.125346 1.17978e-18)
(1.08758 0.137152 2.0076e-19)
(1.12798 0.119733 1.60824e-18)
(1.1384 0.115305 -8.18431e-19)
(1.13717 0.10009 4.1815e-19)
(1.13312 0.09121 8.31949e-19)
(1.1282 0.0789727 9.29016e-20)
(1.12303 0.0685407 1.7204e-19)
(1.11775 0.057278 7.15892e-19)
(1.1117 0.0471044 1.94211e-19)
(1.10523 0.0372781 -2.1043e-19)
(1.09801 0.029149 -1.72798e-19)
(1.09079 0.0214298 -2.48624e-19)
(1.08326 0.0166304 1.96553e-19)
(1.07639 0.0101196 -1.72809e-19)
(1.06939 0.00957923 8.43817e-20)
(1.06349 0.00199873 1.33454e-19)
(-0.133987 0.0296284 -1.78499e-18)
(0.434769 0.0727211 -1.39412e-18)
(0.800344 0.129608 -1.95307e-18)
(1.01472 0.13047 1.81474e-18)
(1.09773 0.141288 1.04483e-18)
(1.13175 0.12225 -1.26775e-18)
(1.13883 0.117454 1.01124e-18)
(1.13609 0.101501 6.29687e-19)
(1.13133 0.0925069 -8.85419e-19)
(1.12609 0.0800489 4.73025e-19)
(1.12074 0.0696967 3.81068e-20)
(1.1154 0.0585329 -6.44162e-19)