/*--------------------------------*- C++ -*----------------------------------*\
  =========                 |
  \\      /  F ield         | OpenFOAM: The Open Source CFD Toolbox
   \\    /   O peration     | Website:  https://openfoam.org
    \\  /    A nd           | Version:  7
     \\/     M anipulation  |
\*---------------------------------------------------------------------------*/
FoamFile
{
    version     2.0;
    format      ascii;
    class       surfaceScalarField;
    location    "0.451";
    object      phi;
}
// * * * * * * * * * * * * * * * * * * * * * * * * * * * * * * * * * * * * * //

dimensions      [0 3 -1 0 0 0 0];

internalField   nonuniform List<scalar> 
18389
(
-7.98078e-05
7.98078e-05
4.35006e-05
-4.35006e-05
-5.2044e-05
5.2044e-05
4.00441e-05
-4.00441e-05
-5.18145e-05
5.18145e-05
-3.98593e-05
3.98593e-05
-3.47204e-05
3.47204e-05
3.91261e-05
-3.91261e-05
-3.49882e-05
3.49882e-05
4.13554e-05
-4.13554e-05
4.42709e-05
-4.42709e-05
-3.42099e-05
3.42099e-05
-1.15296e-05
1.15295e-05
-4.28005e-05
4.28005e-05
4.34391e-05
-4.34391e-05
2.40783e-05
-2.40783e-05
1.84418e-05
-1.84418e-05
4.58834e-05
-4.58834e-05
4.59215e-05
-4.59215e-05
4.3327e-05
-4.3327e-05
-4.25572e-05
4.25572e-05
3.5383e-05
-3.5383e-05
4.29626e-05
-4.29626e-05
-5.84603e-05
5.84603e-05
-4.97719e-05
4.97719e-05
-4.17988e-05
4.17988e-05
-4.45325e-05
4.45325e-05
4.56119e-05
-4.56119e-05
4.58442e-05
-4.58442e-05
4.41276e-05
-4.41276e-05
-4.13301e-05
4.13301e-05
-6.30632e-05
6.30632e-05
4.31164e-05
-4.31164e-05
-4.47332e-05
4.47332e-05
4.086e-05
-4.086e-05
4.66847e-05
-4.66846e-05
-4.55493e-05
4.55493e-05
5.36099e-05
-5.36098e-05
-5.89085e-05
5.89085e-05
3.78765e-05
-3.78765e-05
4.488e-05
-4.488e-05
4.53766e-05
-4.53766e-05
-4.10079e-05
4.10079e-05
4.49091e-05
-4.49091e-05
4.5861e-05
-4.5861e-05
-4.58472e-05
4.58472e-05
-4.5839e-05
4.58391e-05
-4.06544e-05
4.06544e-05
-4.58791e-05
4.58791e-05
4.59276e-05
-4.59276e-05
4.59423e-05
-4.59423e-05
4.46087e-05
-4.46087e-05
3.77246e-05
-3.77246e-05
-4.57613e-05
4.57613e-05
-5.55346e-05
5.55346e-05
-4.38121e-05
4.38121e-05
4.57533e-05
-4.57533e-05
-4.59933e-05
4.59933e-05
4.32263e-05
-4.32263e-05
-5.93191e-05
5.93191e-05
-4.71411e-05
4.71411e-05
4.96056e-05
-4.96056e-05
4.57236e-05
-4.57236e-05
-8.28169e-06
8.28171e-06
4.57751e-05
-4.57751e-05
4.14544e-05
-4.14544e-05
5.12114e-05
-5.12114e-05
-4.58586e-05
4.58586e-05
4.23258e-05
-4.23258e-05
3.07938e-05
-3.07938e-05
3.46739e-07
-3.46739e-07
-4.41003e-05
4.41003e-05
3.28688e-05
-3.28687e-05
-3.65779e-05
3.65779e-05
3.97259e-05
-3.97259e-05
2.66257e-05
-2.66257e-05
2.61935e-05
-2.61935e-05
2.70491e-05
-2.70491e-05
2.43968e-05
-2.43968e-05
1.26892e-05
-1.26892e-05
0.00107416
-0.000885076
-0.000189083
0.00546558
-0.00207491
-0.00339067
-0.00594648
0.00594644
3.93887e-08
0.00335543
-0.00260166
-0.000753765
-0.00156951
0.00177091
-0.000201397
-0.00675675
0.00284266
0.0039141
0.0012137
0.00425189
0.00725571
-0.00587642
-0.00137929
0.00120147
-0.00191076
0.000709288
-0.000865717
-0.000703797
-0.00144211
-0.000314612
0.00175672
0.000141406
-1.56031e-06
-0.000139845
0.000778583
-0.00222069
-0.00360249
0.000121298
0.00348118
-0.00320311
0.00289455
0.000308562
-0.00570381
0.00723547
-0.00153166
-0.00370831
0.0028969
0.000811396
-0.000562746
-0.00303975
-0.00175004
0.00238981
-0.00063977
-0.000461813
0.00255867
-0.00209686
-0.00161103
0.00111665
0.000494382
0.000583532
0.000581827
-0.00159671
-0.00516005
0.00132351
-0.00181333
0.000489827
0.00577824
-0.00385915
-0.00191908
-0.00067289
0.0033104
-0.00263751
-0.00583514
0.00583528
0.000472869
0.00129804
-0.00633532
0.000974594
0.00536073
0.00231671
-0.0029896
-0.00378941
0.003114
0.000675412
0.00214799
-0.00422289
0.00108832
-0.000201984
-0.000886336
0.0015061
-0.00128969
-0.000216413
-0.0028037
-0.000399403
0.00534986
-0.00534953
0.000373294
0.00113281
0.00522731
-0.0013367
-0.00389061
0.00197929
-0.000777819
0.00308568
0.00190869
-0.00499437
-0.000721007
-0.00306841
-8.80568e-05
-0.000156286
0.000244343
0.00393575
0.00331995
0.00115298
-0.00487518
0.00372219
0.00162447
0.00360284
-0.00498234
0.00632086
-0.00133852
-0.00114642
-0.000586954
0.00173338
0.00133784
0.00201758
0.000135291
0.000103626
-0.000238917
0.00501977
-0.00339531
0.00645743
-0.000840386
-0.00561704
0.00321713
-0.00266438
-0.000552749
0.00221617
0.000454506
-0.00267068
0.00295586
-0.000739691
0.0065041
-0.00539874
-0.00110535
0.000495389
-0.003855
0.00335961
6.83466e-05
0.00638909
0.00479099
-0.0042956
-0.000535769
0.00105939
-0.000523618
-0.00176611
0.000619683
0.00191705
0.00224911
-0.00416615
0.000253547
-0.000333801
8.02547e-05
-0.00125681
-0.00284871
0.00410552
-2.62425e-05
0.00653034
-0.00281432
0.00229919
0.00051513
0.000389024
-1.24359e-05
-0.000376588
-0.00569236
-0.000254124
0.00188255
-0.00140968
0.000827377
0.00495086
0.000900344
0.000173819
0.00264305
-0.00643976
0.00379672
-0.00112021
0.000584442
0.00264203
-0.00389884
0.00619676
-0.002261
0.0010921
0.00117728
-0.000776785
0.00101823
-0.000241442
-0.00111373
-0.000497301
0.00188148
0.00133565
-0.000594299
0.00142953
-0.00123738
-0.000192147
-0.00265495
0.0019886
0.000666351
0.00116675
0.000262784
0.00112317
-0.0049591
0.00383592
-0.00474889
0.00141066
0.00333823
-0.00455442
0.00611814
-0.00156372
-0.00506239
8.00573e-05
-0.00202356
-0.000631391
-0.000215164
0.000127107
-0.00121701
0.00463963
-0.00342262
-0.00119785
-0.00071291
0.000103304
-0.000192023
8.87187e-05
0.000126284
-2.29798e-05
-0.00125216
0.00463067
-0.00337851
-0.000156122
2.44832e-05
0.000131639
-0.0055664
0.00170726
-0.00120135
-0.000564755
-0.000449387
-1.89248e-05
0.000468311
-0.000543199
9.38115e-05
0.00101249
7.58289e-05
-0.00181063
0.000609281
-0.000150405
1.69962e-05
0.000133408
0.00136803
-0.00234447
0.00097644
0.000271101
-0.00013581
-0.00392556
0.00513926
-0.0024572
0.000707166
-9.42902e-05
-0.000417032
0.000511322
0.00568551
-0.00216839
-0.00351712
7.86807e-05
0.00250633
-0.00258501
0.00444816
-0.0055955
0.00114735
0.00263474
0.00305077
0.00291421
-0.00283553
-0.00612997
0.000426169
-0.0064511
0.00361832
0.00283278
0.00229289
0.00390387
-0.00438687
0.00137268
0.00301418
0.00151636
-0.000192857
-0.00102121
0.00401687
-0.00299565
0.00463878
-0.00162563
-0.00301315
-0.00459632
0.00374616
0.000850166
0.00369283
-0.00502953
5.81982e-05
0.000330826
-0.00137339
0.00582156
-8.99503e-05
0.00214782
-0.00205786
-0.00207016
0.00261368
0.000165273
-0.00277895
-0.0012774
0.00264542
-0.000639023
0.0032527
0.00164268
-0.00173263
0.000888354
0.0039687
-0.00485706
-0.00504198
0.00384311
0.00119888
0.00255194
-0.00359411
0.00104218
-0.00331165
0.00411529
-0.000803634
0.000354998
-0.00366665
-0.000888576
0.000888577
-0.000452504
0.000358214
-0.000126958
-0.00097347
0.00110043
0.00506901
-0.00184188
-0.00322712
-0.00243364
-0.000370071
0.00290062
0.000157884
1.64916e-05
-0.000174375
-0.0014725
0.00112756
0.000344939
-0.00014267
-0.00489931
0.00503909
-0.00388611
0.000223618
-8.22132e-05
0.00444265
0.000577126
0.0040676
-0.00151566
0.000164978
-7.09407e-06
-0.00633722
-0.000990665
-0.000819969
0.00430033
-0.00190308
-0.00239725
0.00275679
0.00154355
0.0010776
-0.00563201
-0.00226616
-0.000548163
-0.00112086
-0.000957484
0.00207835
4.26014e-05
-0.00272393
0.00268133
-0.00235913
0.00123827
-0.00221809
0.00530378
-0.00461126
0.00159254
0.00301872
0.00254893
0.000669767
-0.000337098
-0.000332669
-0.00601564
0.000582869
0.00543277
-0.00418312
0.00581923
-0.00163611
0.00182452
0.00163097
-0.00345549
-0.00168046
0.00090137
0.000779093
-0.00271272
0.00208124
0.00063149
0.00111819
0.000764364
0.000247199
-0.000328944
8.17467e-05
0.00488112
-0.00399278
-0.00638751
0.00557515
0.000812366
-0.0047833
-0.0016678
0.00334882
0.000626974
-0.0039758
0.000153973
-0.000162206
8.23341e-06
0.000590481
-0.000125281
-0.000465199
-0.00451795
0.00261487
0.000374747
-0.000579492
0.000204745
9.12433e-05
-0.000979822
-0.00257574
0.00448443
-0.00530376
-0.000322716
0.00562648
0.00019734
0.000212312
-0.000409652
0.00117121
-0.00117121
0.00168601
-0.000724123
-0.00211152
0.00181684
0.000294677
0.00439559
-0.00302292
-0.000162393
6.2711e-06
-0.0012194
0.00131064
0.000676798
0.00130249
0.00234824
-0.000266998
-0.00401846
-0.00128529
0.00111913
-0.00497414
0.00321183
-0.00446398
0.000835022
-0.00213784
0.00130283
0.00335928
-0.00457629
-0.00271045
-0.0018075
-0.0048361
0.00469343
-0.000676765
-0.00533887
-0.00515882
0.00149358
-0.00147535
-1.82305e-05
0.00223378
0.00011446
-0.00601448
0.00204862
0.00396586
-0.00121933
0.000526012
0.000693311
0.00144439
0.00295121
-0.00462728
-0.00101504
0.00564232
-0.000212853
0.000138571
7.4281e-05
-0.00550723
0.00132411
0.00375316
-0.0049369
0.00118375
-0.00149893
-0.000612585
-0.000536679
-0.000637497
0.000138328
-0.000203786
6.54568e-05
0.00497764
-0.00385448
-0.00130055
0.00512519
-0.00382465
-0.000401804
-0.000817597
-0.00586138
0.000439552
0.00539573
-0.00616093
0.00456422
-0.000923557
-0.00546396
-0.00109823
-0.000374263
-0.00181846
0.00285851
-0.00104005
-0.000419083
0.00032198
9.71032e-05
-0.00173206
0.00141745
0.00162724
-0.000133662
0.000826178
-3.67513e-05
-0.00169531
0.00279689
0.00121698
-0.00303543
0.00605224
-0.000477091
0.00528015
6.97022e-05
-0.00528118
0.00439045
0.00114469
-0.00553515
0.000556535
-0.000768871
0.000212336
-4.00055e-05
-0.000412499
-1.22575e-05
0.00606449
-0.00016217
0.000156816
5.35436e-06
0.000133407
2.05657e-05
0.00254194
-0.00335541
0.000813464
-0.00190345
0.000698583
0.00120487
0.00791996
-0.00345423
-0.00446572
0.00117009
0.00126543
-0.00243553
0.000105193
-0.000171782
6.65896e-05
-0.000805876
0.00133188
0.00115556
0.00318279
-0.00433835
-0.0056148
0.000165789
0.00544901
-0.00401628
0.00299507
0.00173487
0.00479548
0.00458437
0.00333558
-2.13199e-05
0.000191489
-0.000170169
-0.0013003
0.00438968
-0.00308937
0.000301522
-0.000341528
-0.00013137
-8.14822e-05
0.00410147
-0.00227696
0.00475697
-0.00500876
0.000251787
-0.00323187
0.00605893
-0.00282706
0.00252784
0.00157363
0.00574653
-0.000989558
-0.00139043
-0.00562137
0.0013726
0.00424878
0.000654688
0.000520473
-0.00117516
0.00126937
-0.000614679
0.000585395
-0.00111008
0.000524685
0.00110587
0.000277922
0.000391845
-0.000678211
0.00443137
0.00152145
-0.000393896
0.00351911
-0.00610737
0.00258827
0.00153491
-0.00258528
0.00105037
-0.00431465
0.00115832
0.00315633
0.00291596
-0.00421626
-0.00490542
-0.00125551
-0.00409689
0.00126537
0.00283151
0.00124106
0.00314861
-0.00326484
-0.000832054
0.0022277
-0.00105761
-0.000674597
-0.00253535
0.00320994
0.00241283
0.00061113
-0.00302396
-0.0015905
0.00120537
0.000385127
0.000270038
0.00149548
-0.00196685
0.000471379
-0.000110938
-0.000222864
-0.000264415
0.000153476
-0.00435003
-0.000246284
-0.000293427
0.00117667
-0.000883244
0.00435143
-0.00464458
0.000293149
-8.84046e-05
0.000117746
-2.93412e-05
0.00097042
0.00338164
-0.00435206
-0.000156977
6.85722e-05
-0.00475173
0.000710126
0.00404161
-0.00079794
0.000118541
0.000679397
8.11862e-05
-8.27464e-05
-0.00040029
0.00086467
-0.000347477
-0.000517194
-0.00603613
0.00063739
-0.00254967
-0.000128169
0.00267784
-0.00317129
0.00441234
0.00218084
-0.00108874
-0.00116719
-0.00118408
-1.37616e-05
-0.00351835
-0.00123053
0.00152275
-0.000413915
-0.00110884
0.00191941
0.00183815
-0.00375756
0.00503955
-0.00160808
-0.00343147
0.000789923
-0.0054172
-0.00137245
0.00300342
0.0019534
0.000788804
-0.0027422
-0.0034988
0.00446923
-0.000153161
2.75642e-06
0.000933
-0.0044318
-0.00449685
-0.000147741
-0.000998202
-0.0046166
0.00462249
0.00148106
0.00355849
0.00415974
0.00114127
-0.00530102
3.63624e-05
5.93771e-05
-9.57396e-05
-0.00140896
0.00336236
0.00369967
0.0035358
-0.00140298
0.00237183
-0.000968839
-0.00248082
0.000457266
-0.000878395
0.000751436
-0.000210003
0.000407343
-0.000205629
0.00170111
0.00376397
-0.00184456
-0.00108108
-0.00059939
-0.000107209
-0.000157205
0.00355046
-0.0016334
-0.0024037
0.00465281
0.000674522
-0.00309589
0.00242137
0.000657035
0.000764841
-0.00105827
0.00210045
-0.00130872
-0.00327404
0.00458276
-0.00216322
0.00480627
-0.000550576
0.00344512
0.000238337
-0.00022134
-0.00236333
0.000960353
0.00230902
-0.0038685
0.00155949
-0.00122665
5.78831e-05
-2.15207e-05
0.00214985
-0.00279882
0.000648969
-0.00117042
-0.000420072
-0.00352714
0.00450174
0.00119149
0.00167666
-0.00286815
-0.00169245
0.00366395
-0.0019715
0.00423802
-0.000856387
0.000234313
1.41211e-05
-0.000248435
-0.00372302
0.00203056
-0.00142147
0.00471124
-0.00328977
0.000877979
0.00130287
0.000175936
0.000995273
0.000253024
-0.000300738
4.77144e-05
0.00169528
0.000216355
-0.00191164
0.00301897
-0.00458313
0.00156417
-5.28644e-05
0.000374349
-0.000321485
0.0015668
-0.00036143
0.00140407
-0.000606399
-0.00079767
0.00282622
-0.00392287
0.00109665
0.00268162
-0.00374167
0.00106006
-0.00515163
0.00191976
0.00389527
-0.000876295
-0.000630861
-0.00237852
0.00300938
0.00140663
-0.0051172
0.00371057
0.00336054
-0.00145893
-0.00190162
-0.000690372
0.00173135
-0.00104098
0.00477164
-0.00303678
-0.000704014
-0.00196036
-0.00598165
0.00514126
4.03868e-06
0.000121734
-0.000125773
-0.00158133
0.00120332
0.000378009
-0.00490536
0.0063054
-0.00140005
-0.00188811
0.000703577
0.00118453
0.000407725
0.00268709
-0.00208899
-0.000598101
0.00343462
0.000489716
-0.00392434
0.000124331
-1.91384e-05
0.00517233
0.000337163
-0.00550949
-0.00194052
0.00379751
-0.00185699
0.00276576
-0.00063232
-0.00213345
0.000462554
0.000402116
-0.000438006
0.00387262
0.00202588
-0.00396639
0.000703984
-0.000269665
-0.000434318
-0.000663193
4.17736e-06
0.000659017
-0.00315225
-0.00576659
0.00576415
-0.000275602
0.000954082
-0.000678481
-0.00228864
-0.00019219
-0.00454755
0.00323882
-0.000865107
0.00112127
0.00360813
-0.00502009
0.00141196
0.000410685
-0.00296035
0.00233407
-0.00244044
0.000106361
-0.00157143
0.00148227
8.91605e-05
-0.00121357
-0.000367764
-0.00339199
0.00342663
-0.00223514
0.000457244
0.000133237
-0.00173911
0.00104874
-0.002791
0.000735645
0.00205536
0.000242334
-8.02025e-06
-0.00347717
0.00102253
0.00245464
-0.00144287
0.00560261
0.00033851
-0.000956423
0.000617914
0.00212555
0.000640207
-0.00127775
0.000304285
0.00111802
0.00121605
-0.0014207
0.00494728
-0.00352657
-0.00485151
0.00576953
-0.000918024
-0.00117061
0.00228396
0.00410513
0.00107554
4.11008e-05
0.00585871
-0.00551911
-0.000339593
0.00354252
-0.00465323
0.00111071
0.00308832
-0.000675493
0.00542699
-0.00181886
-0.0025049
-0.000972273
-0.00218441
-0.000307437
0.00249186
0.00241795
-0.00196345
-0.00160818
-0.00424
0.00274869
0.00149131
-0.000334438
0.00123581
0.00120359
0.00365159
-0.00485518
-0.000316222
0.000690969
0.00305958
-0.00238505
-0.00472431
-0.00125735
0.00647059
-0.00129826
0.00423457
0.00206231
0.000496368
0.00285578
-0.00212726
-0.000728521
0.00473626
-0.0024523
-6.8615e-05
-0.00332706
-0.000864823
0.00419189
0.000388543
-8.65112e-05
-0.000302032
-0.00514122
0.00610574
-0.000964516
-0.000719339
0.00190738
-0.00118804
-0.000697222
0.00525293
-0.00455572
0.00119532
-0.00191465
-0.000113957
-0.00576245
-0.000776785
0.00203023
0.00382848
-0.000258004
-0.00192641
0.000251402
-4.20313e-06
0.000362539
-0.00048782
0.00335949
-0.000817554
-0.00522611
-0.000271562
-0.000147521
0.000150213
-0.000133601
-1.66112e-05
-0.00248307
0.000123932
-0.000420762
0.00159722
-0.00102131
-0.000575907
0.0024627
0.000599732
-0.00306244
-0.000722155
0.00318485
-0.00520292
-0.000271511
0.00547443
0.00375106
0.00137414
0.0044057
-0.00122291
-0.000128743
0.0025467
0.00540385
-0.000206642
-0.00519721
-0.00608752
0.00425279
0.00183473
0.00320997
-0.00126827
-0.00435311
0.000203738
-0.000225058
0.000554979
0.000849088
0.00115034
0.000200017
-0.00135036
0.00421231
0.00119154
-0.000961595
0.003171
-0.00220941
0.0047211
-0.00137228
-0.00218055
0.00279313
-0.000612576
-0.00117595
-0.000102957
0.000290525
-0.000187568
0.00344659
-0.00414382
0.00134729
-0.000987481
-0.000359811
0.00160005
-0.000396727
-0.00325046
0.00228886
0.00548708
-0.00434239
-3.0626e-05
0.000352607
-0.00535618
0.000450817
0.00542886
-0.00190975
-0.000998291
-0.00361484
0.00461314
-0.000645562
0.00288309
-0.00223753
0.00549727
-0.00286244
-0.00263483
-8.83964e-05
0.000590236
-0.000677163
0.000660543
1.66195e-05
-0.000695471
0.0017356
-0.00104013
-0.00314984
-0.00116481
0.000155533
-1.72049e-05
-0.00122482
-0.00478966
-0.00307392
0.00239932
-0.000865137
-0.000306073
-7.26202e-05
-8.95499e-05
-0.00122301
-0.000805977
-0.00523016
-0.00283894
0.00219338
-0.000818328
0.00119162
0.00112108
0.00436918
-0.00549025
0.00338255
-0.00275558
0.000468565
0.000770878
-0.00288389
0.00211302
0.00497773
-0.00491923
-5.84932e-05
-0.00320949
0.00361557
-0.000406071
0.000207787
-9.56034e-05
-0.000112184
-0.00496672
-0.00147305
-0.00176056
0.00368985
-0.00192928
0.00298053
-0.00220965
-0.00378382
0.00202326
0.00139503
-0.00258174
0.00118671
-0.00363309
0.00568172
0.00649992
-0.00219593
-0.00430398
-0.00239867
0.00237607
2.26081e-05
0.00559525
-0.00162657
0.00118545
-0.000925361
-0.000260093
-9.10821e-06
0.000262132
0.000250431
-0.000773737
0.000523307
-0.00304867
0.00364993
-0.000968309
0.000848951
-0.00105094
0.00236405
-0.000632556
-0.0017315
0.00221244
-0.000517152
0.00451759
0.000631878
0.00173218
-0.00175752
0.00106205
0.000408605
-0.000464694
5.6089e-05
0.00222186
-0.00174523
-0.000476637
0.000824144
-0.0051478
-0.000544557
0.000369497
-0.000588347
0.00021885
-0.00410145
0.00547404
0.000941937
-0.00111661
0.000174676
-0.00153465
0.00216312
-0.00062847
-0.00148751
-0.00275249
-0.00537658
-0.000160854
0.00553744
0.000299119
0.000108297
4.19165e-05
0.000127357
-0.000127751
3.94595e-07
0.00410404
-0.00290045
-0.00379535
-0.00231202
0.00346702
0.00303289
-0.00259096
0.000718414
0.00187254
-0.000844652
0.00223968
-0.00229883
-9.98422e-05
0.00272992
-0.00377762
0.0010477
0.00131193
-0.000135258
0.000460326
0.000552165
-0.00327747
0.000962595
0.00231487
0.000910955
-0.000617371
-4.5823e-05
-0.00427018
0.00171853
0.000109401
-0.00182793
-0.00396388
0.0014632
0.00250068
0.000516143
0.00146575
-0.000910778
-0.000246555
-0.00466016
0.00490672
0.000784128
-0.00247671
0.00169258
0.0012022
0.00131232
-0.000457675
-0.00172706
0.00218474
0.00258
-0.00179587
0.00446691
-0.00353391
-0.000769918
-0.00264093
-0.000227332
0.000251815
-0.000706095
0.00176622
-0.00106013
0.00266161
-0.00366633
0.00100471
0.000136423
2.03929e-05
-0.0023655
-0.000911974
0.00142116
-0.00163616
0.000214995
-0.00277505
0.000686066
0.00127616
-0.00141852
0.000142363
0.00161851
-0.00180762
0.000189115
0.000675238
-0.00372233
-0.00115285
0.00133908
-0.00488758
0.0035485
-0.000911497
0.00357309
0.000118491
-7.87123e-05
-3.97786e-05
0.00473449
-0.0036134
-0.00031296
-0.00152381
-0.00400934
-0.00149789
0.00209362
0.000699505
-0.00100691
-0.000922293
-0.00450543
-0.00162454
-0.000367179
0.00124276
-0.00093259
-0.000310174
-0.00149707
-0.00108822
0.000654751
0.00225941
-0.00291416
-0.000114204
0.000670738
-0.000715986
3.88223e-05
-0.00246279
0.00196645
0.00139409
-0.000686006
0.0016316
-0.00094559
-8.68498e-05
-0.000116936
0.000317404
-0.00194854
0.000449606
0.0016166
-0.00230851
0.000691913
-0.00333767
0.00258687
0.000750791
0.00120443
0.00240802
-0.00361244
-0.00175428
0.00104818
-0.00294276
-0.00102112
-0.00078378
-0.00255389
-0.00167803
0.00125537
0.000422657
0.00176687
-4.8335e-05
-0.000760175
-0.00243584
0.00319601
-0.000665445
0.00291337
-0.00225862
-0.000858532
-0.00394761
0.00480615
-0.00234299
0.00234192
1.07073e-06
-0.00079794
-0.00156571
0.000544402
-0.00240568
0.00381805
-0.00141238
0.00323294
0.0028852
0.000194337
3.62141e-05
-0.000230552
0.00234054
-0.000602306
-0.00173823
0.000188208
-0.000184169
-0.00358854
0.00492763
-0.00329009
0.00523798
-0.00194789
-0.00351036
-0.00150973
-0.000916337
0.00323156
-0.00231523
0.00285703
0.00177372
-0.00417941
-0.00499331
-0.0001479
-0.000780578
0.00284403
-0.00206344
-0.000431644
0.000378779
-0.000532072
0.00167653
-0.00114445
-0.00402509
0.00334154
0.00068355
-0.00326982
0.00235348
-0.00386697
0.000673214
0.00319375
0.00140988
-0.00101501
-0.000394865
-0.00589957
0.000696645
0.00184694
-0.00141134
-0.000435596
0.00143208
-0.000416648
-0.00101543
7.83774e-05
0.00012941
0.00292974
-0.000630544
-0.000217184
-0.00348745
-0.000379512
0.00042963
-0.00305691
-0.000968187
-0.00233686
-6.13089e-06
-0.00292276
0.0022919
0.000720207
0.00260214
-0.00332235
0.000585529
-0.000861131
0.00141048
-0.00671725
0.00530677
-0.00577216
0.000988856
-0.00233339
0.00353782
0.000696059
0.000258024
-0.00273319
0.0034534
-8.71294e-05
0.00506485
0.000606303
0.00171257
-0.00231887
-0.00177677
0.0012447
0.00274858
-0.00369493
0.00094634
0.00509945
0.0006741
0.00154776
0.000319843
0.000384141
-0.000364035
-0.000404835
0.000180996
-0.00174844
0.00176684
-0.000888858
0.000873152
0.0005926
-0.000581444
0.00300992
-0.00242847
-0.00150842
0.00184205
-0.000333623
-0.00489204
0.00380315
0.00108889
-0.00479482
0.00150473
-4.15407e-05
3.78848e-05
3.6559e-06
-0.0028124
-0.000853922
0.0010824
-0.00129632
0.000213928
0.00134954
-0.00493808
0.00116597
-1.5629e-05
0.0012344
0.000693835
0.00218926
-0.00366682
0.000854425
0.000185029
-0.00503654
0.00189889
0.00123025
0.000677135
-0.00527406
-0.000492526
0.0056502
0.00118746
0.0071075
-0.00218461
-0.00492289
0.000793378
-0.000382781
-0.000410597
0.000709804
-0.00138541
0.000786022
-0.00386078
-0.00125642
0.000290525
-0.00093866
-0.000426818
0.00136548
0.00233193
0.00400854
-0.00486707
0.00270296
0.000834216
-0.00353718
0.00125122
-0.000965892
-0.000285328
0.000744788
0.00159575
-0.000135125
0.000138348
-3.22336e-06
-0.000709358
0.00288357
-0.00217421
0.0036206
0.00109064
-0.00126385
-0.000414184
0.0014134
-0.00151186
9.84506e-05
4.60232e-05
7.24678e-05
-0.00447764
0.000967284
-0.00165568
0.000442109
-0.00364922
0.00292705
-0.00095259
6.75133e-05
0.000933119
0.00268137
-0.00361449
0.000849993
-0.00126966
0.00418286
-0.0029132
0.000318627
0.000279885
4.65579e-05
-0.000326444
7.84317e-05
-0.00539163
0.0053132
-0.00263717
-0.000772621
0.0034098
-0.00348657
0.00261152
0.000875062
-0.00276459
-0.000260364
-0.00171405
-0.00490695
0.000897608
-0.00145711
-0.000879748
-0.00106265
0.00379256
0.00171043
-0.0037254
0.00201497
0.000105701
2.16552e-05
0.00372464
-0.00201421
0.0028653
0.000952332
-0.00381762
-0.00130364
0.00174104
-0.00043739
0.00357353
0.00109636
-0.00466989
0.00717801
-0.00197403
-0.00520398
-0.00212856
-0.000710378
-0.00173784
0.00234413
0.00377268
-0.00492505
0.00115236
-0.00280346
0.00373657
0.00116147
-5.39933e-05
-0.00110747
0.00148087
0.000908936
-0.00550501
0.000599587
0.000436869
0.000356508
0.00292154
-0.00111936
-0.00252036
0.00248072
3.96432e-05
0.000504535
-0.00184082
0.00133628
-0.00387048
-0.00119191
0.00108804
-0.00254515
-0.00529912
0.000151322
-0.00126084
-0.000517517
0.00177836
0.00563315
-0.00449188
0.000104419
0.000284124
-0.00301829
0.00318357
0.00144073
-0.00107392
-0.000366812
0.00346862
0.004756
-0.00095286
0.000634354
-0.00327152
0.00115586
-0.00103732
-5.28766e-05
0.000461481
0.000394062
-1.97126e-05
-0.00206428
-0.000455684
0.00153808
-0.000899708
-0.0034974
0.000764218
-2.80744e-05
-1.34663e-05
0.00599844
-0.00492083
0.00522091
-0.00439353
-3.15389e-05
-0.000679397
0.000710935
0.00194901
-0.000458123
-0.00149088
0.00335874
-0.000756602
-0.00256854
0.00336117
-0.00079263
-0.00183426
0.00053062
0.0012794
-0.00095294
-0.000326457
-0.000118771
-0.000210173
0.00205933
-0.000547965
-0.00151137
-0.00138138
-0.00239416
-0.000126198
0.00209105
-0.00274638
0.000655336
0.00280692
-0.000749959
-0.00205697
0.00410332
-0.00434987
0.000313506
0.00223738
-0.000620782
-0.000681439
0.000835959
-0.00367429
0.00502382
0.00124108
0.000458437
-0.00171928
-0.00286041
0.00209756
0.00363279
0.00158812
-0.00115029
-0.00382486
-0.00113424
0.00130485
-0.00171794
0.000413088
0.00367574
-0.00318603
-0.000193991
0.00113593
-3.86022e-05
-0.00027143
0.000310033
-0.000687911
-0.00190305
0.00377218
-0.0049064
0.00113423
-0.00186237
0.00235277
-0.000490411
-0.00115288
0.00213341
0.000750157
-0.00226361
0.00375438
-0.00149077
0.00150706
-0.00114352
-0.000363546
-0.0010609
0.000262965
0.000215362
-0.000445596
0.000230235
-0.000425136
-0.00123054
-0.00247864
0.00250591
-2.72676e-05
0.00144618
-0.0037098
0.00162666
-0.000371286
0.000367384
-0.000417796
5.04125e-05
-0.00082742
0.000593769
0.000233652
-0.000794448
-0.00284468
0.000820837
0.00202385
-0.00199232
-0.000853423
-0.000725548
0.00157897
-0.00523997
0.00389414
0.00134583
-0.00132819
0.00129666
-0.000576344
-0.000115968
0.000692312
0.00286868
-0.000735274
-0.000770201
-0.000160313
0.000930514
0.00183979
-0.00138136
0.00169816
-0.000393303
-0.000172339
-0.000636258
-0.00420367
0.00483994
-0.00139435
0.00283078
0.00427673
-0.002399
-7.96377e-05
0.00312284
-0.00473092
0.000732671
0.00158222
-0.00231489
0.00201652
-0.00279709
0.00198085
-0.000705546
-0.0012753
-0.00179619
0.000455645
0.00134054
0.0043151
0.00286292
-0.00551405
0.0013345
0.00417955
-0.00125059
-0.00398937
-0.000459935
-0.00133626
-0.00100434
-0.000561367
-0.00129361
-0.000424335
0.00114117
-0.000531741
0.00151266
-0.000980921
-0.00175732
0.00129739
-0.000944233
-0.000207334
0.00115157
0.00217203
-0.00286731
0.000695283
-1.17659e-05
0.000206103
0.00103562
0.00605792
-0.00140782
-0.0046501
-0.00203449
-0.00187294
0.00134413
0.000528814
0.00127155
-0.000979055
-0.000292491
-0.00229583
-0.00102179
0.00331763
-0.00267345
0.00357904
-0.00090559
-0.000918246
0.00112684
6.61905e-06
-0.00113346
0.00376078
-0.00493453
0.00117375
0.0017477
-0.00135575
-0.00039195
0.00242707
-0.00122487
0.00273493
-0.000635932
-0.000191488
-0.00409049
0.00229561
-0.00180011
-0.000495492
0.000560234
-0.00200933
0.00144909
-0.00251799
-0.000837417
0.00086052
-0.000658809
-0.000201712
-0.000179968
-0.00364171
0.00096826
0.000672379
-0.000457016
0.00259384
0.000985195
0.000318607
0.00130882
0.000672029
-0.00160392
0.00233658
-0.00150842
0.000997189
0.000511232
0.00354457
-0.000679257
-0.00380985
0.00610274
-0.00114562
-0.00249051
0.00683149
-0.00434098
-0.000886745
0.00356812
-0.00414181
0.000932327
-0.00210105
0.00424904
-0.000682309
-0.0016262
-0.00244782
0.00171822
0.000729608
-0.00127847
0.000615932
-0.000611688
-4.24259e-06
-0.00137645
-0.000776626
-0.000153533
0.00093016
-0.00156612
0.00136812
0.000197997
0.0020415
0.000802521
6.25364e-05
-0.00129992
-0.000551907
-0.000833505
-0.00241856
-0.000472706
-0.00140023
-0.00017114
0.0015923
-0.000180659
0.00341115
-0.00051425
0.0013387
0.000199735
-0.000795942
-0.00101739
-0.00193025
0.00247681
-0.000546565
-0.00104997
-0.00572891
0.00351082
0.00150669
-0.000633535
0.00288953
-0.00121287
0.000955688
-0.0013592
-0.00453056
0.00588976
0.000620025
-0.00255028
0.000740119
-0.00368591
0.00270195
0.00098396
0.000894328
-0.00142607
0.00222949
-0.00311785
0.000888354
0.00119444
-0.0034293
0.00223486
0.000860343
0.00168844
-0.00254879
-0.000174423
0.00179293
0.00275113
0.00108193
0.00361523
-0.000413516
0.000783012
0.00315893
-0.00402375
0.000979098
-0.00327493
0.000434312
0.00412493
0.00148081
-1.04246e-05
-0.00027643
0.000286854
-0.00619241
0.00385633
0.0023361
-0.000825082
-0.0026168
0.00344188
0.00263995
-0.0017796
-0.003696
0.000892545
-0.00132174
-0.000435582
-0.00015273
0.00131948
0.00372406
0.00122321
0.000224588
0.00130944
-0.000993606
-0.000315836
0.000912004
0.000594685
-0.000313843
0.0037682
-0.0049324
0.0011642
0.00307537
-0.000845884
-0.00139906
0.00190359
0.00125951
-0.00355345
0.00229393
-0.00116634
0.00145656
0.000678204
-0.00213477
0.000192756
-0.000203181
0.00219911
-0.000861264
-0.00125523
0.000330386
0.000932844
-0.000352905
-0.000579939
0.00353196
-0.00227245
-0.000505506
0.00229265
-0.00178714
0.00102066
-0.00296563
0.0020888
0.000876833
0.000106874
-1.17303e-06
0.00466164
0.000540199
-0.00570026
-0.00519324
0.00392638
0.00126687
-0.00107589
-0.00269528
0.00377117
0.00222131
0.00372513
0.00282766
-0.00375282
0.000925164
-0.00147127
0.0011035
-0.000945828
0.00336939
-0.00242357
0.00149733
0.000562005
-0.00378506
-0.00240736
0.00106866
-0.00230534
0.00320979
-0.000904456
0.00342711
-0.000815594
0.000396118
-0.000803191
0.00254458
0.000882536
-0.000634807
0.00431055
-0.00130939
0.00171677
-0.000407388
0.00198534
-0.00128675
-0.00038934
0.00607687
-0.00491514
-0.000461438
0.000858298
-0.00246221
-0.00539151
-0.00172284
0.00041345
-0.000678163
0.000101819
-0.00086834
0.000213144
-0.00147064
0.000658854
0.00157852
-0.000905421
0.00013522
0.000804769
0.00251627
-0.00332104
-0.00109512
0.0018737
-0.00194702
-0.000474121
0.00196121
-0.00148709
-0.000873886
-0.00209173
-0.00195177
0.00147765
-0.00265778
0.00346254
-0.00164428
0.00057644
0.00106784
-0.000977262
0.0035711
0.00599977
-0.00230011
-0.00130394
-0.000418895
-0.00174059
0.00110188
0.000638708
0.000903559
-0.00451853
0.00361497
-0.00131462
0.000544114
0.000770507
-0.00403432
-0.00115892
0.000191892
-0.00113612
0.0019343
-0.000704051
-0.00134087
-0.00380119
0.00514205
0.00100319
7.235e-05
0.00329685
-0.00252827
-0.000768586
0.000164126
0.00126795
0.000877143
-0.000670491
-0.000206652
-0.00134814
-0.00101519
-0.00107141
0.00510379
-0.00403237
0.000632014
-0.00249438
0.000168573
0.00124483
0.00377247
-0.00495973
0.00118726
0.00287587
-0.00205504
0.000102092
-0.0001684
6.63087e-05
0.00102792
0.000138076
0.000104257
0.00235676
0.00370117
-0.000584205
-0.000812782
0.00139699
0.000652351
0.00177221
-0.00242456
0.00239858
-0.00171159
-0.000686988
0.000475431
0.00147358
0.000425965
-0.000511731
-0.000802891
0.000599963
-0.00532428
0.000690285
-2.9742e-05
-0.00115992
-0.0013071
-0.00378996
0.00509706
0.00103368
0.00143743
-0.00189555
0.00254674
-0.000395066
-0.00490885
0.00530392
0.000120826
-1.87343e-05
0.000644299
0.00129
0.00272927
0.000941076
-0.00367034
0.00137555
0.000471388
0.00258742
-0.00364164
0.0045452
0.00277417
0.000843305
-0.00361747
0.00166489
-0.000844109
-0.000820776
0.00132895
-0.00101977
-0.000309181
0.000423165
0.00105845
-0.00470009
0.000218333
-6.67731e-06
0.000199434
0.00602579
-0.00129131
0.00152654
-0.00212885
0.00252377
-0.0018291
-0.000694676
0.000854347
-0.00254465
0.0016903
0.00523502
-0.00281696
-0.000924699
-0.00159347
0.00500999
0.00148596
-0.0017814
0.000295435
0.000499847
-0.000103737
-0.00039611
-0.000991992
-0.00314084
0.00413284
0.000742562
0.00181962
-0.00256218
0.0017675
-0.000281537