/*--------------------------------*- C++ -*----------------------------------*\
  =========                 |
  \\      /  F ield         | OpenFOAM: The Open Source CFD Toolbox
   \\    /   O peration     | Website:  https://openfoam.org
    \\  /    A nd           | Version:  7
     \\/     M anipulation  |
\*---------------------------------------------------------------------------*/
FoamFile
{
    version     2.0;
    format      ascii;
    class       volScalarField;
    location    "100";
    object      p;
}
// * * * * * * * * * * * * * * * * * * * * * * * * * * * * * * * * * * * * * //

dimensions      [0 2 -2 0 0 0 0];

internalField   nonuniform List<scalar> 
15200
(
-0.693135
-0.590061
-0.445773
-0.422155
-0.358002
-0.32314
-0.260132
-0.218283
-0.203598
-0.221099
-0.222217
-0.203499
-0.167859
-0.145799
-0.171401
-0.711792
-0.603949
-0.435198
-0.393207
-0.331931
-0.31198
-0.257193
-0.220324
-0.214525
-0.237767
-0.228056
-0.198819
-0.16468
-0.147959
-0.17897
-0.730121
-0.616704
-0.421969
-0.365272
-0.302978
-0.298061
-0.250889
-0.219133
-0.221782
-0.252047
-0.230167
-0.189677
-0.155195
-0.141055
-0.175158
-0.748038
-0.628422
-0.406974
-0.339544
-0.272712
-0.282336
-0.241196
-0.213392
-0.222817
-0.257703
-0.226402
-0.176206
-0.138684
-0.124683
-0.15722
-0.765451
-0.639248
-0.390859
-0.316934
-0.242876
-0.265717
-0.22782
-0.201795
-0.218359
-0.255548
-0.216639
-0.159881
-0.116903
-0.100858
-0.125846
-0.782258
-0.649344
-0.374312
-0.297576
-0.214796
-0.248441
-0.210267
-0.18422
-0.210986
-0.246898
-0.202045
-0.142686
-0.0936164
-0.0738903
-0.0851326
-0.798326
-0.658851
-0.358216
-0.280728
-0.189331
-0.229657
-0.188257
-0.161421
-0.201814
-0.232568
-0.184027
-0.125885
-0.0736359
-0.0500058
-0.0448565
-0.813486
-0.667852
-0.343412
-0.264827
-0.16669
-0.207173
-0.161609
-0.134382
-0.189954
-0.213056
-0.164108
-0.109563
-0.0599735
-0.0342561
-0.0174317
-0.827562
-0.67627
-0.330414
-0.247908
-0.14543
-0.177649
-0.129653
-0.105775
-0.174107
-0.189736
-0.14388
-0.0940583
-0.0509157
-0.0254668
-0.00487147
-0.840289
-0.683925
-0.319415
-0.2287
-0.122367
-0.138819
-0.09161
-0.0807026
-0.15475
-0.164602
-0.124418
-0.0806438
-0.0446749
-0.0206492
-0.0023259
-0.851371
-0.690452
-0.310508
-0.207803
-0.0955628
-0.0921589
-0.0491226
-0.0626734
-0.133369
-0.139687
-0.10647
-0.0697702
-0.0401073
-0.0179693
-0.00231507
-0.860497
-0.695288
-0.303801
-0.187607
-0.0673098
-0.0465914
-0.00950858
-0.0504469
-0.112096
-0.11673
-0.0908207
-0.0610332
-0.0366456
-0.0171707
-0.00351223
-0.867371
-0.697663
-0.299351
-0.171043
-0.0442861
-0.0121157
0.0176298
-0.0407513
-0.092514
-0.096951
-0.0778225
-0.054123
-0.0340262
-0.0173103
-0.00544721
-0.871776
-0.696678
-0.297134
-0.159679
-0.0312764
0.00799208
0.0283348
-0.0321733
-0.0756778
-0.080939
-0.0673934
-0.048746
-0.0321378
-0.0178195
-0.00744728
-0.873666
-0.691498
-0.297072
-0.153276
-0.0281277
0.0151438
0.0281082
-0.0253611
-0.0623472
-0.0686192
-0.059271
-0.0445782
-0.0308049
-0.0185224
-0.00937044
-0.873252
-0.681626
-0.298993
-0.150719
-0.0317727
0.0138478
0.0218201
-0.0212881
-0.0526717
-0.05948
-0.0530668
-0.0413851
-0.0298914
-0.0192234
-0.0112186
-0.871045
-0.66712
-0.3026
-0.150811
-0.0393546
0.00773531
0.0128542
-0.0201118
-0.0461879
-0.0528855
-0.0483903
-0.0389902
-0.0292792
-0.0199012
-0.0129055
-0.867799
-0.648634
-0.307525
-0.152634
-0.0491662
-0.00107757
0.00293738
-0.02123
-0.0422237
-0.0482571
-0.0449405
-0.0372425
-0.0288496
-0.0206121
-0.0143881
-0.864387
-0.627276
-0.313388
-0.155572
-0.0601864
-0.0113084
-0.00709285
-0.0239073
-0.0401762
-0.045145
-0.0424786
-0.0359984
-0.0285835
-0.0213555
-0.0155035
-0.86163
-0.60437
-0.319787
-0.15923
-0.0717211
-0.0221059
-0.0168247
-0.0275522
-0.0395488
-0.0432036
-0.0408046
-0.0351392
-0.0285122
-0.0220752
-0.0163645
-0.860175
-0.5812
-0.326283
-0.163342
-0.0832828
-0.0329024
-0.026055
-0.0317281
-0.0399434
-0.04216
-0.0397489
-0.0345985
-0.0286043
-0.0226991
-0.0175027
-0.860437
-0.558789
-0.332489
-0.167717
-0.0945106
-0.0433354
-0.0346929
-0.0361316
-0.0410455
-0.0417969
-0.0391721
-0.0343228
-0.0287924
-0.0233083
-0.0185343
-0.862615
-0.537703
-0.338262
-0.172133
-0.105167
-0.0531783
-0.0427095
-0.0405568
-0.0426109
-0.0419367
-0.0389634
-0.0342502
-0.0290473
-0.0239036
-0.019406
-0.866736
-0.518174
-0.343592
-0.176395
-0.115104
-0.0622978
-0.0501057
-0.0448668
-0.0444535
-0.0424344
-0.039028
-0.0343337
-0.0293437
-0.024453
-0.0201553
-0.872698
-0.500282
-0.348468
-0.180362
-0.124241
-0.0706146
-0.0568889
-0.0489692
-0.0464328
-0.0431712
-0.039289
-0.0345274
-0.0296556
-0.0249617
-0.0208313
-0.880302
-0.484019
-0.352866
-0.183936
-0.132536
-0.0780887
-0.0630656
-0.0528014
-0.048444
-0.0440509
-0.0396813
-0.0347886
-0.0299752
-0.025424
-0.0213976
-0.889283
-0.469309
-0.356753
-0.187053
-0.139973
-0.0847105
-0.0686421
-0.0563209
-0.0504087
-0.0449963
-0.0401485
-0.0350869
-0.0302828
-0.0258301
-0.0218971
-0.899324
-0.456031
-0.360095
-0.189667
-0.146551
-0.0904892
-0.073626
-0.0594988
-0.052268
-0.0459451
-0.0406445
-0.0353888
-0.0305698
-0.0261822
-0.0222995
-0.910078
-0.444034
-0.362862
-0.191744
-0.152279
-0.0954455
-0.0780258
-0.0623146
-0.0539775
-0.0468485
-0.0411281
-0.0356727
-0.0308192
-0.0264681
-0.0226277
-0.921175
-0.43314
-0.365022
-0.19326
-0.157175
-0.0996065
-0.0818514
-0.0647544
-0.0555045
-0.0476673
-0.0415672
-0.035914
-0.0310212
-0.0266859
-0.0228673
-0.932242
-0.42316
-0.366547
-0.194193
-0.161258
-0.103002
-0.0851149
-0.0668098
-0.0568243
-0.0483713
-0.0419333
-0.0360962
-0.0311616
-0.0268283
-0.0230261
-0.942906
-0.413895
-0.367412
-0.194522
-0.164556
-0.10566
-0.0878305
-0.0684761
-0.0579183
-0.0489347
-0.0422046
-0.0362025
-0.0312327
-0.0268898
-0.0230995
-0.952801
-0.40514
-0.3676
-0.194222
-0.167104
-0.107605
-0.0900143
-0.0697505
-0.0587722
-0.0493374
-0.042362
-0.0362215
-0.0312235
-0.0268678
-0.0230883
-0.96158
-0.396686
-0.367101
-0.193266
-0.168938
-0.108857
-0.0916845
-0.0706327
-0.0593754
-0.0495644
-0.0423917
-0.0361414
-0.0311272
-0.0267568
-0.0229965
-0.968918
-0.388332
-0.365911
-0.191634
-0.170085
-0.109444
-0.0928569
-0.0711277
-0.0597192
-0.0496054
-0.0422826
-0.035953
-0.0309336
-0.0265574
-0.0228259
-0.974511
-0.379891
-0.364013
-0.18933
-0.170549
-0.10941
-0.0935363
-0.0712481
-0.059797
-0.0494503
-0.0420269
-0.035647
-0.0306358
-0.0262646
-0.0225808
-0.978089
-0.371197
-0.361371
-0.186365
-0.170331
-0.10879
-0.0937245
-0.0710029
-0.0596103
-0.0490878
-0.0416203
-0.0352145
-0.0302263
-0.0258775
-0.0222549
-0.979413
-0.362077
-0.357961
-0.182684
-0.169517
-0.107548
-0.0934832
-0.0703682
-0.0591809
-0.048506
-0.0410646
-0.0346455
-0.0297053
-0.02539
-0.0218401
-0.978282
-0.352277
-0.353882
-0.178074
-0.168378
-0.105511
-0.0929954
-0.0692613
-0.0585516
-0.0476913
-0.040365
-0.0339302
-0.0290799
-0.024796
-0.0213179
-0.974517
-0.341407
-0.349473
-0.172212
-0.167287
-0.102461
-0.0924555
-0.0675979
-0.057754
-0.0466379
-0.0395188
-0.0330669
-0.0283566
-0.0240868
-0.0206797
-0.967965
-0.329067
-0.345211
-0.164952
-0.166307
-0.0984308
-0.0917635
-0.0654739
-0.0567281
-0.0453872
-0.0384965
-0.0320768
-0.0275214
-0.0232648
-0.0199364
-0.958495
-0.315291
-0.341107
-0.156747
-0.164747
-0.0940258
-0.0904015
-0.0632633
-0.0552731
-0.0440517
-0.0372422
-0.0310021
-0.0265325
-0.0223474
-0.0191242
-0.946059
-0.300918
-0.335973
-0.14847
-0.16156
-0.0901028
-0.0881067
-0.0611412
-0.053364
-0.0426173
-0.0357916
-0.0298163
-0.0254052
-0.0213348
-0.0182385
-0.930766
-0.286302
-0.328434
-0.140907
-0.156915
-0.0864773
-0.0849711
-0.0590303
-0.0510934
-0.0410202
-0.034189
-0.0284969
-0.0241554
-0.0202259
-0.017271
-0.912869
-0.271177
-0.318711
-0.133792
-0.151022
-0.0829708
-0.0811552
-0.0568136
-0.0485687
-0.0392096
-0.0324604
-0.0270357
-0.0227939
-0.0190198
-0.0162132
-0.892472
-0.255372
-0.30709
-0.126883
-0.1441
-0.0794128
-0.0768228
-0.0543876
-0.0458683
-0.0371683
-0.0306108
-0.0254376
-0.0213286
-0.0177199
-0.0150637
-0.869018
-0.239209
-0.293831
-0.119978
-0.13634
-0.0756747
-0.072112
-0.0516808
-0.0430335
-0.0349077
-0.0286352
-0.0237135
-0.0197677
-0.0163365
-0.0138338
-0.841441
-0.223319
-0.279148
-0.112929
-0.127905
-0.0716593
-0.067125
-0.0486597
-0.0400751
-0.0324551
-0.0265293
-0.0218749
-0.0181194
-0.014882
-0.0125389
-0.81003
-0.207448
-0.263224
-0.10562
-0.118931
-0.0673025
-0.0619362
-0.0453196
-0.0369875
-0.0298397
-0.0242952
-0.0199304
-0.0163884
-0.0133599
-0.0111862
-0.77515
-0.191362
-0.24623
-0.0979679
-0.109535
-0.0625669
-0.0565933
-0.0416783
-0.0337619
-0.0270851
-0.0219411
-0.0178872
-0.0145749
-0.0117625
-0.00976789
-0.737133
-0.174884
-0.22832
-0.0899107
-0.0998112
-0.0574389
-0.0511247
-0.0377667
-0.0303939
-0.0242081
-0.0194785
-0.0157529
-0.012682
-0.0100848
-0.00827266
-0.696283
-0.157904
-0.20964
-0.0814116
-0.0898376
-0.0519231
-0.0455459
-0.0336213
-0.0268859
-0.0212202
-0.0169187
-0.0135367
-0.0107215
-0.0083412
-0.00670532
-0.652897
-0.140354
-0.190325
-0.0724526
-0.0796783
-0.0460388
-0.0398645
-0.0292789
-0.0232462
-0.0181303
-0.0142708
-0.011248
-0.00871149
-0.00656449
-0.00510017
-0.607271
-0.122205
-0.170502
-0.0630334
-0.0693858
-0.0398161
-0.034086
-0.0247735
-0.0194876
-0.0149466
-0.0115427
-0.00889486
-0.00666497
-0.00478205
-0.00351491
-0.559704
-0.103451
-0.150289
-0.0531687
-0.0590032
-0.0332923
-0.0282164
-0.0201355
-0.0156249
-0.0116788
-0.00874426
-0.0064861
-0.00458428
-0.0029961
-0.00199764
-0.510501
-0.0841112
-0.129798
-0.0428864
-0.0485673
-0.0265094
-0.0222646
-0.0153913
-0.0116741
-0.008338
-0.00588853
-0.00403434
-0.00247256
-0.00119973
-0.000546053
-0.459969
-0.0642229
-0.109135
-0.0322254
-0.03811
-0.0195121
-0.0162427
-0.0105642
-0.00765109
-0.00493724
-0.00298945
-0.00155298
-0.000343101
0.000589508
0.000881965
-0.408416
-0.0438411
-0.0883976
-0.0212337
-0.0276605
-0.0123457
-0.0101661
-0.00567527
-0.0035723
-0.00149057
-5.87643e-05
0.000951474
0.00179428
0.00234902
0.00234574
-0.356153
-0.0230354
-0.0676809
-0.00996611
-0.0172466
-0.00505526
-0.00405289
-0.000744617
0.000545312
0.0019865
0.00289289
0.00347778
0.00394778
0.00411879
0.00393455
-0.303491
-0.00188795
-0.0470742
0.00151673
-0.00689563
0.00231555
0.00207671
0.0042084
0.00468428
0.00547788
0.00585339
0.00601728
0.00612133
0.00597474
0.00585429
-0.250738
0.0195085
-0.0266629
0.0131506
0.00336451
0.00972469
0.00820099
0.00916448
0.00882717
0.00896875
0.00881133
0.00855406
0.00829458
0.00789475
0.00821496
-0.198199
0.0410524
-0.00652899
0.0248688
0.0135051
0.0171321
0.0142972
0.0141042
0.0129567
0.0124458
0.0117587
0.0110819
0.0104675
0.00989139
0.0104365
-0.146172
0.0626343
0.0132491
0.0366031
0.0234962
0.0244995
0.0203421
0.0190079
0.0170558
0.0158956
0.0146864
0.0136032
0.0126722
0.0119504
0.0124204
-0.094949
0.0841394
0.0325959
0.0482852
0.0333071
0.0317909
0.0263121
0.0238562
0.021108
0.0193051
0.0175827
0.0161045
0.0148819
0.0140046
0.0142793
-0.0448141
0.105449
0.0514386
0.0598474
0.0429059
0.0389718
0.0321838
0.0286298
0.025098
0.0226636
0.0204412
0.0185826
0.0170799
0.0160132
0.0160332
0.00396001
0.12644
0.0697074
0.0712232
0.0522605
0.0460095
0.0379341
0.0333099
0.0290104
0.0259591
0.0232526
0.0210299
0.019255
0.0179769
0.0177235
0.051112
0.146992
0.0873351
0.0823485
0.0613385
0.0528731
0.0435404
0.0378781
0.0328309
0.0291798
0.0260053
0.0234312
0.0213867
0.019884
0.0193522
0.0963939
0.16698
0.104257
0.0931616
0.0701077
0.059533
0.0489812
0.0423172
0.0365459
0.0323158
0.0286911
0.025778
0.0234658
0.0217325
0.0209243
0.139572
0.186284
0.120413
0.103604
0.0785367
0.0659614
0.0542354
0.0466102
0.040142
0.0353557
0.0312999
0.0280609
0.025485
0.0235194
0.0224367
0.180429
0.204786
0.135743
0.11362
0.0865948
0.072132
0.0592834
0.0507414
0.0436066
0.0382887
0.033821
0.0302687
0.0274346
0.0252397
0.0238879
0.218764
0.222372
0.150194
0.123159
0.0942529
0.0780203
0.0641065
0.054696
0.0469281
0.0411056
0.0362466
0.0323945
0.0293095
0.0268898
0.0252745
0.254393
0.238934
0.163713
0.132173
0.101483
0.0836034
0.0686874
0.05846
0.0500949
0.0437962
0.0385672
0.0344292
0.0311021
0.028465
0.0265948
0.287153
0.25437
0.176255
0.140619
0.108261
0.0888601
0.0730099
0.0620206
0.0530967
0.0463519
0.0407752
0.0363666
0.0328075
0.0299613
0.0278467
0.316902
0.268583
0.187775
0.148457
0.114561
0.0937714
0.0770594
0.0653661
0.0559238
0.0487644
0.042863
0.0381995
0.0344197
0.0313753
0.0290288
0.343521
0.281486
0.198236
0.155653
0.120364
0.0983199
0.0808227
0.0684857
0.0585673
0.0510262
0.044824
0.0399223
0.0359339
0.0327033
0.0301402
0.366904
0.293001
0.207606
0.162178
0.12565
0.10249
0.0842881
0.0713701
0.0610192
0.0531306
0.0466523
0.0415295
0.0373455
0.0339426
0.0311806
0.386963
0.303066
0.215856
0.168005
0.130403
0.10627
0.0874454
0.0740107
0.0632727
0.0550715
0.0483423
0.0430162
0.0386504
0.0350911
0.03215
0.40363
0.311629
0.222967
0.173114
0.134611
0.109647
0.0902859
0.0764005
0.0653215
0.0568437
0.0498893
0.0443782
0.0398455
0.0361469
0.0330467
0.416854
0.318653
0.228922
0.177489
0.138262
0.112614
0.0928024
0.0785335
0.0671606
0.0584427
0.0512893
0.045612
0.0409281
0.0371081
0.0338726
0.426607
0.32411
0.233713
0.181119
0.141351
0.115163
0.0949894
0.0804048
0.0687858
0.0598649
0.0525392
0.0467147
0.0418944
0.0379711
0.0346267
0.432884
0.327988
0.237334
0.183998
0.14387
0.117291
0.0968428
0.082011
0.070194
0.0611078
0.0536367
0.0476848
0.0427442
0.0387352
0.0353045
0.435693
0.330286
0.23979
0.186124
0.14582
0.118994
0.0983606
0.08335
0.0713832
0.0621693
0.0545801
0.0485208
0.043477
0.0394029
0.0359083
0.435081
0.331016
0.241088
0.187499
0.147202
0.120273
0.0995418
0.0844205
0.0723519
0.0630481
0.0553682
0.0492217
0.0440912
0.0399713
0.0364383
0.431102
0.330202
0.241242
0.18813
0.148018
0.12113
0.100387
0.0852226
0.0731001
0.063744
0.0560008
0.0497876
0.0445867
0.040439
0.0368916
0.423837
0.32788
0.240274
0.18803
0.148277
0.121568
0.100899
0.0857578
0.0736283
0.0642573
0.0564783
0.0502195
0.0449647
0.0408059
0.0372662
0.413389
0.324099
0.238208
0.187213
0.147986
0.121594
0.101081
0.0860285
0.0739383
0.0645893
0.0568021
0.050519
0.0452268
0.0410725
0.0375604
0.399879
0.318919
0.235076
0.1857
0.14716
0.121215
0.100939
0.0860383
0.0740324
0.064742
0.0569738
0.0506879
0.0453743
0.0412389
0.0377733
0.383451
0.312411
0.230914
0.183516
0.145811
0.120441
0.100479
0.0857919
0.0739141
0.0647179
0.0569958
0.0507286
0.0454091
0.0413059
0.0379037
0.364266
0.304654
0.225764
0.180687
0.143957
0.119284
0.099709
0.085295
0.0735875
0.0645205
0.0568714
0.0506442
0.0453335
0.041274
0.0379508
0.342503
0.295741
0.219673
0.177246
0.141617
0.117757
0.0986381
0.0845542
0.0730572
0.0641535
0.0566038
0.050438
0.0451499
0.0411448
0.0379143
0.318356
0.28577
0.212691
0.173228
0.138812
0.115875
0.0972766
0.0835772
0.0723289
0.0636219
0.0561982
0.0501148
0.044862
0.0409199
0.037794
0.292033
0.274853
0.204873
0.16867
0.135564
0.113654
0.0956356
0.0823724
0.0714086
0.0629301
0.055658
0.0496776
0.044472
0.0406017
0.0375913
0.263761
0.263101
0.196277
0.163614
0.131897
0.111112
0.0937273
0.080949
0.0703027
0.0620835
0.0549901
0.0491348
0.0439868
0.0401932
0.0373059
0.233786
0.250631
0.186963
0.158104
0.127837
0.108266
0.0915648
0.0793173
0.0690192
0.0610879
0.0541992
0.0484899
0.0434065
0.0396942
0.0369406
0.20237
0.23756
0.176995
0.152186
0.12341
0.105137
0.0891614
0.0774876
0.0675651
0.0599473
0.0532891
0.0477519
0.0427435
0.0391127
0.0364955
0.169789
0.22401
0.166437
0.145907
0.118642
0.101746
0.0865315
0.0754713
0.0659495
0.0586689
0.0522677
0.0469314
0.0420046
0.0384449
0.0359713
0.136328
0.210098
0.155356
0.139316
0.113561
0.0981125
0.0836895
0.0732799
0.0641818
0.0572577
0.0511349
0.0460305
0.0411997
0.0376983
0.0353661
0.102286
0.195944
0.143818
0.132465
0.108192
0.0942602
0.0806499
0.0709252
0.0622715
0.0557204
0.0498939
0.0450598
0.0403541
0.03689
0.0346896
0.0679675
0.181662
0.131891
0.125405
0.102562
0.0902115
0.0774277
0.0684189
0.060229
0.0540657
0.0485468
0.0440192
0.0394772
0.0360246
0.0339099
0.0336859
0.167362
0.119644
0.118185
0.0966947
0.0859898
0.0740372
0.065773
0.0580646
0.0523031
0.0470946
0.0429011
0.0385799
0.0351517
0.0330828
-0.000242386
0.153148
0.107144
0.110856
0.0906143
0.0816192
0.0704927
0.0629992
0.0557881
0.0504436
0.0455426
0.0417001
0.037672
0.0343171
0.0321422
-0.0334989
0.139115
0.094462
0.103467
0.0843422
0.0771248
0.0668076
0.0601098
0.0534085
0.0484982
0.0439
0.0404048
0.0367243
0.0334855
0.0310025
-0.0657652
0.125347
0.0816656
0.0960637
0.0778983
0.0725318
0.0629943
0.0571174
0.0509342
0.0464769
0.0421797
0.0390095
0.0357018
0.0327147
0.0300707
-0.0967259
0.111917
0.068825
0.0886876
0.0713006
0.0678664
0.0590631
0.0540354
0.0483729
0.0443873
0.0403969
0.037528
0.0345873
0.031972
0.0294778
-0.126071
0.0988809
0.056011
0.0813759
0.0645655
0.063155
0.0550224
0.0508786
0.0457324
0.0422352
0.0385657
0.035986
0.0333799
0.0311479
0.0289455
-0.153496
0.0862785
0.0432959
0.0741588
0.0577085
0.0584239
0.050878
0.0476628
0.04302
0.0400252
0.0366943
0.0344034
0.0320903
0.0301775
0.0282313
-0.178709
0.0741255
0.0307549
0.0670577
0.0507452
0.0536987
0.0466329
0.044406
0.0402426
0.0377628
0.0347854
0.0327882
0.0307372
0.0290815
0.0273204
-0.201424
0.0624095
0.0184669
0.060083
0.0436927
0.0490026
0.0422878
0.0411277
0.0374045
0.0354553
0.0328406
0.0311419
0.0293421
0.0279183
0.0263179
-0.221365
0.0510801
0.00651654
0.0532318
0.0365713
0.044355
0.0378419
0.0378494
0.034507
0.0331132
0.0308645
0.0294666
0.0279199
0.0267254
0.0252988
-0.238251
0.0400362
-0.00500334
0.0464844
0.0294074
0.0397683
0.033295
0.0345935
0.0315473
0.030751
0.0288651
0.0277661
0.026476
0.0255075
0.0242707
-0.251804
0.0291272
-0.0159875
0.0398013
0.022236
0.0352448
0.0286506
0.0313816
0.0285194
0.0283874
0.0268499
0.0260449
0.025012
0.0242601
0.0232205
-0.26195
0.0183171
-0.0263143
0.0331177
0.0151046
0.0307727
0.0239196
0.0282304
0.0254163
0.026044
0.0248222
0.0243076
0.0235338
0.0229899
0.0221506
-0.269276
0.00799698
-0.0358313
0.0263399
0.00807677
0.0263212
0.0191258
0.025147
0.0222347
0.023744
0.0227789
0.0225614
0.0220539
0.0217139
0.0210768
-0.273898
-0.00180965
-0.0443664
0.0193331
0.00123763
0.0218356
0.0143107
0.0221217
0.0189818
0.0215064
0.020711
0.020819
0.020587
0.0204467
0.0200117
-0.275683
-0.0113096
-0.0517779
0.011925
-0.00530429
0.0172343
0.00954075
0.0191211
0.0156832
0.0193388
0.0186075
0.0191012
0.0191423
0.0191933
0.0189575
-0.274549
-0.0201466
-0.0584405
0.00393213
-0.0114103
0.0124045
0.00490742
0.016084
0.0123903
0.0172283
0.0164648
0.0174336
0.0177204
0.0179516
0.0179143
-0.270557
-0.0280483
-0.0650948
-0.00444801
-0.0169307
0.00721424
0.000530459
0.0129158
0.00918504
0.015134
0.0143039
0.0158345
0.0163147
0.0167222
0.0168855
-0.263879
-0.0351626
-0.0720975
-0.0130642
-0.0217439
0.00155379
-0.00346495
0.00950709
0.00617644
0.0129845
0.012182
0.0142992
0.0149215
0.0155137
0.0158796
-0.254752
-0.0418087
-0.0793991
-0.0212778
-0.0265599
-0.00446479
-0.00701734
0.0057635
0.00347948
0.0106922
0.0101838
0.0127931
0.0135537
0.0143427
0.0149042
-0.243473
-0.0482935
-0.0868541
-0.0290225
-0.0317362
-0.010491
-0.0103649
0.00173286
0.0011507
0.00820344
0.00838559
0.0112682
0.0122415
0.013226
0.013956
-0.230406
-0.0548838
-0.0943892
-0.0364879
-0.0372951
-0.0163066
-0.0137746
-0.00226854
-0.00107
0.00566636
0.00674363
0.00973291
0.0110031
0.0121747
0.0130227
-0.215987
-0.0618446
-0.102017
-0.0438651
-0.0431478
-0.021874
-0.0173975
-0.00604279
-0.00332795
0.00322379
0.00517553
0.00824543
0.00983288
0.0111787
0.0121465
-0.200734
-0.0694722
-0.109792
-0.0512736
-0.049208
-0.0272621
-0.0212375
-0.0095763
-0.00564986
0.000944456
0.00363641
0.00684903
0.00872881
0.0102389
0.0113355
-0.185248
-0.0781064
-0.117777
-0.0587807
-0.0554252
-0.0325727
-0.0251963
-0.0129367
-0.00801015
-0.00115948
0.00212645
0.00555818
0.0076964
0.0093623
0.0105835
-0.170216
-0.088133
-0.126022
-0.0664347
-0.0617918
-0.0378837
-0.0291805
-0.0161746
-0.0103657
-0.00310541
0.000676595
0.00437033
0.00674175
0.00855567
0.0098913
-0.156411
-0.0999863
-0.134559
-0.0742854
-0.0683336
-0.0432309
-0.0331542
-0.0193123
-0.012671
-0.00491756
-0.000676284
0.00328529
0.00587057
0.00782557
0.00925768
-0.144698
-0.114156
-0.143394
-0.0823887
-0.0750909
-0.0486253
-0.0371174
-0.0223617
-0.0148876
-0.00660914
-0.0019072
0.00231174
0.0050928
0.00717331
0.00868585
-0.136039
-0.131193
-0.152504
-0.0908059
-0.0821032
-0.0540767
-0.0410728
-0.0253299
-0.0169896
-0.00817534
-0.00300397
0.00146224
0.00441876
0.00660512
0.00817526
-0.131504
-0.151692
-0.161821
-0.0996053
-0.089407
-0.059599
-0.0450167
-0.0282158
-0.0189631
-0.00959956
-0.00395604
0.00074754
0.00385905
0.00612573
0.00773486
-0.132278
-0.176153
-0.171215
-0.108867
-0.097039
-0.0652075
-0.048945
-0.0310118
-0.0207999
-0.0108632
-0.00474878
0.000179424
0.0034212
0.00574398
0.00736899
-0.139579
-0.204556
-0.180496
-0.118691
-0.105038
-0.070917
-0.0528578
-0.0337098
-0.0224897
-0.0119502
-0.00536349
-0.000230115
0.00311561
0.0054647
0.00708339
-0.154216
-0.235528
-0.189459
-0.129193
-0.11344
-0.0767431
-0.0567589
-0.0363043
-0.0240175
-0.0128443
-0.00578252
-0.000465467
0.00295203
0.00529262
0.00687973
-0.175739
-0.265463
-0.197953
-0.140505
-0.122277
-0.0827048
-0.0606533
-0.038793
-0.0253665
-0.0135275
-0.00598754
-0.000511193
0.00294298
0.00523243
0.00675151
-0.202035
-0.288759
-0.205904
-0.152752
-0.13157
-0.0888256
-0.0645471
-0.041174
-0.0265208
-0.0139796
-0.00595981
-0.000346763
0.00309876
0.00528224
0.00670287
-0.231214
-0.299981
-0.213426
-0.166025
-0.141335
-0.0951368
-0.068449
-0.0434461
-0.0274666
-0.0141809
-0.00567649
4.71118e-05
0.00343109
0.00544683
0.00670625
-0.257942
-0.296912
-0.220998
-0.180352
-0.151587
-0.101679
-0.0723729
-0.0456093
-0.028192
-0.0141122
-0.00511319
0.000696406
0.00394728
0.00571729
0.00676685
-0.282246
-0.281934
-0.229496
-0.195696
-0.162358
-0.108503
-0.0763385
-0.0476674
-0.0286881
-0.013756
-0.00424247
0.00162604
0.00465693
0.00609297
0.00682171
-0.304155
-0.260812
-0.23992
-0.212013
-0.173712
-0.115672
-0.0803712
-0.0496292
-0.0289534
-0.013097
-0.00303302
0.00286728
0.00556367
0.00655634
0.00687188
-0.324322
-0.239912
-0.252965
-0.229282
-0.185753
-0.123255
-0.0845041
-0.0515116
-0.0289975
-0.0121211
-0.00145323
0.00445057
0.00668286
0.00707964
0.00684932
-0.343357
-0.224135
-0.268488
-0.247533
-0.198625
-0.131326
-0.0887798
-0.0533422
-0.0288425
-0.0108232
0.000530713
0.00640046
0.00803747
0.00763012
0.00677112
-0.361416
-0.216202
-0.285306
-0.266854
-0.212491
-0.139956
-0.0932514
-0.0551653
-0.028524
-0.00920952
0.00295044
0.00874414
0.00966344
0.00818107
0.00668509
-0.378172
-0.216758
-0.3014
-0.287375
-0.227502
-0.1492
-0.0979871
-0.0570466
-0.0280978
-0.00731213
0.00582285
0.0114891
0.0116047
0.00868247
0.00670765
-0.393043
-0.224938
-0.314191
-0.30927
-0.243755
-0.159097
-0.10307
-0.0590804
-0.02765
-0.0051953
0.00915232
0.0146612
0.0138307
0.00916169
0.00634982
-0.405681
-0.238955
-0.321082
-0.3328
-0.261233
-0.16966
-0.1086
-0.0613948
-0.027307
-0.00295807
0.0128665
0.0183044
0.0162239
0.00954982
0.00542142
-0.416317
-0.256673
-0.320545
-0.358397
-0.279779
-0.180887
-0.114698
-0.0641557
-0.0272576
-0.000775299
0.0167981
0.0224276
0.0187003
0.00960902
0.00391736
-0.425184
-0.277349
-0.31349
-0.386701
-0.29908
-0.192769
-0.121499
-0.0675789
-0.0277699
0.00111246
0.0207072
0.026937
0.0211806
0.00900517
0.00169852
-0.434943
-0.299312
-0.303646
-0.418386
-0.318687
-0.205291
-0.129151
-0.0719126
-0.0292126
0.00229037
0.0240378
0.0314836
0.0234111
0.0073069
-0.00154102
-0.447119
-0.322482
-0.296522
-0.453255
-0.338062
-0.218432
-0.137796
-0.0774222
-0.0321077
0.00201036
0.0259506
0.0355171
0.0249369
0.00389681
-0.00614538
-0.46222
-0.346681
-0.296138
-0.489448
-0.35662
-0.23218
-0.147478
-0.0844621
-0.0370366
-0.000771207
0.0254679
0.0377611
0.0247745
-0.00235495
-0.0131452
-0.479802
-0.371427
-0.305813
-0.52359
-0.373793
-0.246455
-0.158236
-0.0932515
-0.0445058
-0.00870366
0.0186315
0.0341461
0.0214687
-0.0122668
-0.0234274
-0.498945
-0.395929
-0.323531
-0.551835
-0.38908
-0.261012
-0.170207
-0.103473
-0.0556425
-0.0268522
-0.00405298
0.0157724
0.0124499
-0.0254407
-0.0373837
-0.518774
-0.419616
-0.346444
-0.571179
-0.402049
-0.275539
-0.183262
-0.114976
-0.0722673
-0.0572366
-0.0454001
-0.0226074
-0.0056197
-0.0408487
-0.0544675
-0.538715
-0.442283
-0.371379
-0.580292
-0.412321
-0.289764
-0.196775
-0.128389
-0.0941291
-0.0921854
-0.0950414
-0.0686716
-0.0336315
-0.0571779
-0.0733849
-0.558506
-0.463947
-0.395633
-0.579512
-0.419556
-0.303328
-0.20995
-0.143761
-0.117561
-0.121166
-0.137831
-0.110105
-0.0682199
-0.0748712
-0.0928735
-0.578088
-0.484684
-0.417157
-0.570169
-0.423447
-0.31558
-0.222163
-0.159892
-0.138955
-0.141832
-0.168291
-0.142233
-0.101718
-0.0924055
-0.111294
-0.597498
-0.504548
-0.434478
-0.553895
-0.423633
-0.325625
-0.233064
-0.17513
-0.155694
-0.156881
-0.187147
-0.165561
-0.125929
-0.105823
-0.124782
-0.616794
-0.523554
-0.446718
-0.532315
-0.419669
-0.332564
-0.242515
-0.188239
-0.167391
-0.16957
-0.196683
-0.182289
-0.141288
-0.113942
-0.132365
-0.636018
-0.541679
-0.453649
-0.507076
-0.411171
-0.335816
-0.250386
-0.198882
-0.175854
-0.181238
-0.203697
-0.194102
-0.151961
-0.120289
-0.137666
-0.655176
-0.558863
-0.455532
-0.479688
-0.39798
-0.335244
-0.256322
-0.207323
-0.183664
-0.192649
-0.209465
-0.201379
-0.160317
-0.128303
-0.14619
-0.674236
-0.575018
-0.452767
-0.451175
-0.38018
-0.330971
-0.259748
-0.213819
-0.192755
-0.20554
-0.215489
-0.204339
-0.165976
-0.137732
-0.158392
-0.187206
-0.156879
-0.130341
-0.154542
-0.160046
-0.140706
-0.143619
-0.151554
-0.106439
-0.073348
-0.0597712
-0.035253
-0.0262394
-0.0221545
-0.0187787
-0.0156574
-0.015422
-0.015087
-0.0140672
-0.0145657
-0.0194588
-0.0189991
-0.016539
-0.0187881
-0.0237363
-0.019794
-0.00993189
-0.00206886
-0.0063126
-0.0190396
-0.0271361
-0.0247532
-0.0149794
-0.00562164
-0.00011002
0.00206624
0.00232871
0.00192693
0.00119818
0.000428518
-0.193083
-0.155376
-0.121281
-0.142843
-0.148567
-0.1302
-0.141055
-0.150221
-0.105316
-0.0750226
-0.0602297
-0.0329655
-0.0238161
-0.0226147
-0.0202776
-0.0153836
-0.0149743
-0.0158297
-0.013613
-0.0131969
-0.020364
-0.021051
-0.0146353
-0.0146444
-0.0234388
-0.0230724
-0.0117757
-0.000626909
-0.00394992
-0.018499
-0.0282603
-0.026003
-0.0155609
-0.00568686
-2.10265e-05
0.00212621
0.00233364
0.00191158
0.00118424
0.000421135
-0.186206
-0.144572
-0.107052
-0.126848
-0.133281
-0.114605
-0.130947
-0.140349
-0.0999475
-0.0745797
-0.0594445
-0.0304214
-0.0212663
-0.0230182
-0.0217667
-0.015146
-0.0144627
-0.0164584
-0.0131258
-0.0117783
-0.0209918
-0.0226931
-0.0124851
-0.0105281
-0.023028
-0.0259589
-0.0131891
0.00091424
-0.00167259
-0.0180754
-0.0294625
-0.0272632
-0.0161603
-0.00577673
5.08871e-05
0.0021787
0.00233623
0.00189568
0.00116977
0.000413361
-0.165427
-0.125597
-0.0905118
-0.109513
-0.116686
-0.0965568
-0.114365
-0.122841
-0.090713
-0.0722204
-0.0576335
-0.0277688
-0.018624
-0.0233088
-0.0232219
-0.0149707
-0.013864
-0.0168966
-0.0126626
-0.0104177
-0.0213082
-0.02391
-0.0102876
-0.00676954
-0.0225485
-0.0283487
-0.0141994
0.00243359
0.000494736
-0.0177769
-0.0307018
-0.0285026
-0.0167591
-0.00589665
8.90581e-05
0.0022113
0.00233153
0.00187956
0.00115791
0.000405499
-0.13292
-0.100964
-0.0741758
-0.0934675
-0.100397
-0.078297
-0.0932856
-0.100179
-0.0782876
-0.0682119
-0.0550201
-0.0251269
-0.0160051
-0.0234583
-0.0245448
-0.0148739
-0.0131745
-0.0171548
-0.0122944
-0.00921853
-0.0213285
-0.0247137
-0.00825331
-0.00358989
-0.0220356
-0.030191
-0.0148694
0.00382046
0.00234053
-0.0176155
-0.0319423
-0.0297599
-0.0173521
-0.00605278
7.94754e-05
0.00221223
0.00231245
0.00185682
0.00114178
0.000397743
-0.0906262
-0.0724555
-0.0594624
-0.0801062
-0.085786
-0.0614104
-0.0703197
-0.0748746
-0.0639699
-0.0628329
-0.0518107
-0.0225869
-0.0134556
-0.0234457
-0.0263265
-0.0148691
-0.0124229
-0.0172526
-0.0120711
-0.008237
-0.0210954
-0.025145
-0.00657755
-0.00109342
-0.0215137
-0.0314721
-0.0152818
0.00496532
0.00378759
-0.0175915
-0.0331477
-0.0309489
-0.0179369
-0.00625067
1.31562e-05
0.00217255
0.00227385
0.00182595
0.00112303
0.000389839
-0.0463498
-0.0420377
-0.0463639
-0.0690413
-0.0727026
-0.0463445
-0.04817
-0.0496602
-0.0489846
-0.0563263
-0.0481693
-0.0202263
-0.0111099
-0.0231854
-0.0269972
-0.0149321
-0.0116548
-0.0172071
-0.0120108
-0.00749464
-0.020655
-0.0252703
-0.00536604
0.000705029
-0.0209806
-0.0322142
-0.0155293
0.00578032
0.00480765
-0.0176863
-0.0342768
-0.0320451
-0.0185098
-0.00649352
-0.00011375
0.00208734
0.00221149
0.0017833
0.0010996
0.000381278
-0.0103032
-0.0140364
-0.0342194
-0.0588512
-0.0605677
-0.0338431
-0.0285383
-0.0274065
-0.0343704
-0.0490604
-0.0442432
-0.0181008
-0.00908827
-0.0226619
-0.027427
-0.0150827
-0.0109263
-0.0170366
-0.0121094
-0.0069883
-0.0200479
-0.0251408
-0.00464988
0.00185287
-0.0204049
-0.032623
-0.0156924
0.00621689
0.00539774
-0.0178653
-0.0352776
-0.0330218
-0.0190625
-0.00678053
-0.000300282
0.00195597
0.0021236
0.00172702
0.00107025
0.000371581
0.00720743
0.00454946
-0.0228347
-0.0481082
-0.0491229
-0.0242263
-0.0126673
-0.00943024
-0.0204163
-0.0417016
-0.0403135
-0.0162866
-0.00747983
-0.021888
-0.0275784
-0.0153265
-0.0102923
-0.0167585
-0.012343
-0.00669667
-0.0193045
-0.0247887
-0.00440979
0.00243377
-0.0197413
-0.0324766
-0.0158172
0.0062664
0.00558049
-0.0180811
-0.0360911
-0.0338408
-0.01958
-0.00710619
-0.000541244
0.00178169
0.00201085
0.00165676
0.00103438
0.000360389
0.00764271
0.0114784
-0.0123208
-0.0360964
-0.0380962
-0.0170028
-0.00123916
0.00414981
-0.00736332
-0.0348043
-0.0365957
-0.0148537
-0.0063507
-0.0208992
-0.0274032
-0.0156552
-0.00979723
-0.0163914
-0.0126695
-0.0065925
-0.0184465
-0.0242336
-0.00458873
0.00254821
-0.0189508
-0.0318286
-0.0159219
0.00594906
0.00539942
-0.0182802
-0.0366609
-0.0344633
-0.020044
-0.0074607
-0.000828146
0.00157051
0.00187582
0.00157355
0.000992137
0.000347535
0.00553356
0.0117948
-0.00378398
-0.0240806
-0.0278164
-0.0117012
0.00542289
0.0139405
0.00421556
-0.0283032
-0.0327755
-0.0137633
-0.00570176
-0.0197274
-0.0268544
-0.0160415
-0.0094717
-0.0159593
-0.0130353
-0.00664946
-0.0174952
-0.0234914
-0.00510452
0.0022978
-0.0180122
-0.0307211
-0.0160024
0.00530733
0.00491522
-0.0184094
-0.0369437
-0.0348583
-0.0204363