/*--------------------------------*- C++ -*----------------------------------*\
  =========                 |
  \\      /  F ield         | OpenFOAM: The Open Source CFD Toolbox
   \\    /   O peration     | Website:  https://openfoam.org
    \\  /    A nd           | Version:  7
     \\/     M anipulation  |
\*---------------------------------------------------------------------------*/
FoamFile
{
    version     2.0;
    format      ascii;
    class       volScalarField;
    location    "1.219";
    object      p;
}
// * * * * * * * * * * * * * * * * * * * * * * * * * * * * * * * * * * * * * //

dimensions      [0 2 -2 0 0 0 0];

internalField   nonuniform List<scalar> 
12359
(
0.0643065
0.0735443
0.0480021
0.10678
0.0679034
0.15369
0.185186
0.168286
0.225004
0.141559
0.206169
0.277003
0.485617
0.114134
0.10143
0.395392
0.439934
0.0524415
0.0520626
0.0866808
0.122461
0.250479
0.0797223
0.0921051
0.0763155
0.0828798
0.0491495
0.0490106
0.0513767
0.0496484
0.0500637
0.0485111
0.0481662
0.0494347
0.0480354
0.0502423
0.0575714
0.0625368
0.066191
0.0600169
0.0715242
0.0611304
0.055169
0.0544792
0.0507557
0.0510449
0.0505152
0.0498957
0.0517081
0.049281
0.0488867
0.0487536
0.0484357
0.0528235
0.0483501
0.048197
0.0538848
0.0481491
0.0481399
0.0480744
0.0482427
0.0480312
0.048806
0.515335
0.053342
0.131345
0.0568418
0.0486672
0.0582878
0.34815
0.530363
0.0696591
0.0479934
0.0591515
0.09685
0.0480408
0.0484252
0.0480081
0.0561205
0.317216
0.124219
0.0437308
0.0470011
0.0494439
-0.0578991
0.0230709
0.043562
0.0455974
-0.0693544
-0.0523155
0.0477789
0.477088
0.0477205
0.0479182
0.0481936
0.00406408
0.0473148
0.047994
0.0570841
0.0535411
0.106494
0.047885
0.0242221
-0.123169
0.0427948
0.0124895
0.0467062
-0.0564487
0.0273218
0.0129519
0.0474058
0.0438062
0.108866
0.0900807
0.0485272
0.0442905
0.0919622
0.0427992
-0.0747826
0.0470425
0.047526
0.173991
0.0454362
0.00465984
0.0425208
0.0440744
0.0370619
0.0492807
0.0479955
0.0423704
0.044638
-0.00236762
-0.00405208
-0.00281213
0.0467658
0.00560809
0.0443927
0.00556827
0.0479174
0.0375019
0.0471986
0.0655128
0.0138882
0.0467262
0.00777882
0.14606
0.0470124
-0.0462901
0.0425548
0.12568
0.000608599
0.0478998
0.013975
0.0453873
0.0476722
-0.161365
0.107539
-0.00151193
0.0474423
0.0485918
0.0449443
0.0486407
0.0032808
0.0108992
0.0469811
0.0441388
0.0460808
0.172818
0.0125631
-0.0711332
0.0480094
0.0480349
0.0112316
0.0763817
0.0430147
0.0413767
0.0513738
0.0511543
0.110296
0.0419689
0.114118
0.0476502
0.0479971
0.0434308
0.0560114
0.205133
0.0429249
0.0473508
0.00119023
0.0426738
0.0476235
0.00348743
0.00713502
0.0453133
0.0117093
-0.131585
0.031755
0.0438639
0.0145357
0.0429135
0.150117
0.000533279
0.0546528
0.0126282
0.011163
0.0476282
0.0101273
0.0551935
0.00181526
0.0417252
0.0473568
0.000140744
0.000239745
-0.530909
0.201937
0.0479217
0.0434099
0.0484812
0.0432213
0.0664121
0.100379
0.0418265
0.00444772
0.468497
0.0422207
0.0473333
0.0672051
0.0289335
0.0449834
0.0446467
0.0444672
0.0469907
0.00861877
0.0547481
0.0467484
0.0539561
0.0470361
0.0134181
0.0469652
0.291898
0.0469399
0.0213494
0.047213
0.0539638
0.0437952
-0.0468852
0.0481193
0.00165467
0.0432198
0.00778677
0.00150881
0.0618057
0.0507845
0.0449615
0.324234
-0.576736
0.0470508
0.041793
0.399955
-0.0531963
0.0542049
0.0448465
0.0448011
0.0113863
0.07469
-0.459541
-0.0695425
0.0437525
0.0420457
0.0059736
0.0113437
0.0599361
0.0125973
0.045063
0.0417338
0.0469909
0.0418346
-0.115783
0.0425911
0.0466132
0.0478719
0.0108069
0.0394013
0.0569255
0.0213855
0.0471215
0.0469709
0.0478929
0.0478728
0.0485578
0.00324141
0.0433851
-0.456009
0.0467143
0.0466786
0.0243481
0.0433084
0.100181
0.0482767
0.0489364
0.0478011
-0.104719
0.0440582
0.0478003
0.0436278
0.0478955
0.0433196
0.0439645
0.0445547
0.0434294
0.0524413
0.203605
0.0431068
0.0501354
0.0624129
0.0214579
-0.0569895
0.0429643
0.0578827
0.371197
0.0478624
0.0180923
0.0465174
0.0320109
0.046691
0.0424362
0.227523
0.0173749
0.205344
0.0564477
0.046938
0.00598338
0.000850659
0.0468137
0.0059368
0.0071001
0.0462887
0.0483153
0.0483106
0.048378
0.0483607
0.291635
0.0470972
0.104001
0.000754231
0.0548846
0.0123191
0.017575
0.0249
0.0327465
0.0166318
0.0333016
0.0567451
0.0193883
0.0207737
0.0917971
0.0664465
0.0142695
0.0646506
0.0644572
0.0151932
0.103984
0.0442224
0.0484119
0.0303404
0.0483737
0.0439462
-0.186588
0.502782
0.0441387
0.0479572
0.0467799
0.0475292
0.016438
0.0476791
0.0476601
-0.0758335
0.0114049
-0.0481008
0.0459476
0.00932897
0.0394457
0.0474803
0.0150185
0.0300091
0.11005
0.0303636
0.0444322
0.0465863
0.0109691
0.00872498
0.041772
0.296196
0.0147766
0.00258792
0.049293
0.0463321
0.0479359
0.384654
0.0123542
0.0460546
0.0619415
0.063509
0.0472179
0.0471843
0.047461
-0.0567267
0.0984596
0.0589436
0.0171096
-0.000900471
0.0483146
0.113939
0.0487435
-0.000138941
-0.0617513
0.303125
0.0536128
0.0912893
0.0275212
0.0215241
0.0346776
0.0299858
0.0497133
0.0346144
0.0142736
0.0476847
-0.0541557
0.0574621
-0.00686083
0.00761455
0.0543251
0.0958399
-0.145929
0.0162426
0.0386168
0.00125005
0.00732815
0.0180733
0.0429624
0.0474015
0.0518788
0.0467053
-0.00316619
0.0445676
0.0824569
0.0851834
0.0350423
-0.055293
0.104061
0.0532248
0.0463921
0.393998
0.0464012
0.045844
0.00453661
0.0479651
0.0463123
0.0458271
0.235961
0.2068
0.0490348
0.0455734
0.109253
0.0475873
0.0173278
0.0139322
0.0120192
0.0462106
0.0475117
0.0472742
0.0478123
0.0847071
0.0179411
0.0212272
0.0509857
0.0509245
0.00202281
0.0498005
0.0459775
0.0415917
0.119807
0.00385076
0.0478988
0.046981
0.0105071
0.0293533
0.0480416
0.0442101
0.112387
0.017429
0.00626419
0.01994
0.046208
0.046176
-0.00608964
-0.00454259
0.0478071
0.0359144
0.0492281
0.00251619
0.281213
0.0474403
0.0447526
0.0463366
0.0134669
0.0531671
0.0521455
0.0442854
0.0486643
0.0289021
0.0751782
0.0370228
-0.0355024
0.0467112
-0.0410456
0.0457096
-0.115191
0.0161881
-0.00318283
0.0481307
0.0507727
0.0208623
0.0435044
0.048864
0.0555581
0.0533855
0.0536838
0.0705912
0.0132011
0.012893
0.0470205
0.0431941
0.0177616
-0.00358925
0.0470225
0.046571
0.0106282
0.046314
0.223383
-0.150821
-0.11911
0.047021
0.0403201
0.00102296
0.0525356
0.0432214
0.451327
0.0466607
0.113034
0.0879914
0.0401845
0.0434433
0.0490018
0.0353435
0.00041805
0.0291095
0.0507725
0.0470571
0.0479998
0.0529662
0.0513707
0.0547019
0.0128649
0.0486084
0.0466445
0.0196274
-0.0868684
0.0500279
1.26318e-05
0.0468105
0.0513059
0.0939446
0.000714003
0.00143602
0.09602
0.0450247
0.0012669
0.0472598
0.0480734
0.000617547
0.0359582
0.0444596
0.0358861
0.047585
0.0466003
0.0436152
0.0484668
0.00129425
0.102719
0.0578326
0.117597
0.0144667
0.0385829
0.112437
0.0620992
-0.00545395
0.0121195
0.0631291
0.0533164
0.048085
0.0369971
0.0199719
0.0470105
0.0479741
0.0462718
0.0481247
-0.016379
0.0363404
0.0326931
0.103944
0.0558391
0.233546
0.00226022
0.00128566
0.0433778
-0.0022229
0.0475669
0.0494204
0.0469331
0.104924
0.113515
0.0454042
0.0293657
0.227942
0.0145213
0.00504721
0.0373723
0.065064
-0.127797
0.0459842
0.0492674
0.0476082
-0.0106298
0.0491457
0.0300556
-0.0548303
0.0466049
0.0765521
0.0564451
0.0403829
0.0502769
0.0457054
0.048428
0.0527273
0.0484818
0.048361
0.052061
0.00496462
0.0086823
0.0404214
0.336545
0.000291798
0.415235
0.0158358
0.0220771
0.0523596
0.0170246
0.0558384
0.00396687
0.31938
0.0977564
0.0550306
0.0427364
0.0527218
0.0513477
0.0205233
0.0473986
-0.00893437
0.0484917
0.0989022
0.0478596
-0.0147938
0.00708981
0.0103093
0.055158
0.0378314
0.00757742
0.0765885
0.00487085
0.0393933
0.00245088
0.0420604
0.0470703
0.0490376
-0.204306
0.0699919
0.0406529
0.0469688
0.0487044
0.0533135
0.0819733
0.00860012
0.0150028
0.0462465
0.0421695
0.0543784
0.0405986
0.0374315
0.00136442
0.0542983
0.0565769
0.00824312
0.041972
0.039021
0.103255
0.0470209
0.0544897
-0.257386
0.0481141
0.0065935
0.0505522
0.0394015
0.088215
0.00881459
0.0499004
0.0179288
0.0477895
0.110584
0.0424008
0.00829364
0.00995902
0.111811
0.047655
0.000705968
-0.00614146
0.0554854
0.0412848
0.0428244
0.0354656
0.237799
0.0521445
0.0479375
0.0539227
0.0476985
-0.125153
0.0408749
0.00968553
0.0303356
0.0152391
0.518077
0.0408501
-0.0555814
0.00873679
-0.094805
0.0170142
0.0507187
0.0408174
0.0299845
-0.0477631
-0.0360859
0.0458265
0.0454124
0.117449
0.045074
0.211368
0.0189657
0.0694218
0.0431672
0.405074
-0.102134
0.0414494
0.0470767
0.0474824
0.0926955
0.0533816
0.0580388
0.0506156
0.0135089
0.0760524
-0.0305004
0.355131
0.0462792
0.0819779
0.0132976
0.119801
0.0426161
0.113363
0.00655031
0.0941225
0.0505256
0.0469665
0.00866519
0.00593976
0.0152845
0.11684
0.0122519
0.0227388
0.0501544
0.0470046
0.037178
0.24284
0.0372093
0.0108446
0.0657046
0.0184711
0.0339906
0.051371
-0.00529213
0.0309871
0.0420821
-0.0155012
0.0570349
0.0251597
0.199636
0.0470572
0.0308145
0.0489595
0.0553607
0.0442292
0.049646
0.0470154
0.00137099
0.041703
0.0764806
0.0114435
0.0940656
0.0294549
0.0300369
0.0094331
-0.18263
0.0480987
0.0548321
0.02327
-0.0690397
0.00635206
0.0475618
0.506136
0.0469801
0.0425895
-0.154457
0.0532692
0.0478852
0.0479668
0.064348
0.0883889
0.0481254
0.054295
0.10806
0.0495662
0.0519516
0.0511335
0.0460078
0.0894571
-0.0175595
0.0528785
0.115416
0.00869912
0.00501906
0.00527499
0.0144289
0.0510416
0.0424682
-0.0406052
0.00363165
0.071965
0.0466895
0.0481547
0.11711
-0.00202363
0.0319762
0.0363563
0.0315907
0.0505786
0.0417343
0.0828909
-0.228955
0.359196
0.0816005
0.0487965
0.0416799
0.0788176
0.348958
0.110402
0.0475702
-0.000383047
-0.0128721
-0.239966
0.0343132
-0.149829
0.0481207
0.0510214
0.0481694
0.00612287
0.0737218
-0.157183
0.0426088
-0.0837796
0.0448165
0.0493067
0.00954535
0.0525903
0.000336128
-0.0431347
0.0540219
0.0334784
0.0226289
0.0346898
0.05383
0.0753422
0.071445
0.0294329
0.0782488
0.054057
0.0482088
0.0515912
0.0487502
0.103852
0.0204035
-0.00778317
0.00252566
0.0847349
0.023415
0.0217114
0.0413068
-0.0119229
0.0326126
0.0533193
0.0476231
-0.000991247
0.108085
0.0427796
0.0392599
0.0550805
0.0223369
0.101752
0.115141
0.0222232
0.242045
0.0208949
0.0857211
-0.0399841
0.0522657
0.0180973
0.010228
0.045266
0.0325041
0.0366538
0.0427165
0.0472541
0.0438399
-0.0143889
-0.00208841
0.0431155
-0.139248
0.0995058
0.0486427
0.0503914
0.00103193
0.048542
0.0774097
0.0125207
0.00446553
0.0484861
0.0509469
0.0474717
0.0485483
0.117733
-0.133165
0.0487533
0.0567325
0.0470305
-0.143473
0.0204715
0.0132181
0.0467296
0.0486449
0.0509416
0.0235536
0.0843243
0.0269105
0.0462819
0.0512297
0.048428
0.0200342
0.0836793
0.0367285
0.0479654
0.0292331
0.0240639
0.074109
0.0438317
-0.0171346
0.144307
0.0453555
0.0314282
0.0509658
0.0420635
-0.173588
0.0538809
0.0486974
0.00984597
0.103805
0.0813165
-0.136512
0.0751751
0.0334312
0.0263911
0.0550652
0.0382263
0.0330928
0.0542819
0.145621
0.0487414
-0.323635
0.0822824
0.180632
0.0382494
-0.00574091
0.0946541
-0.00217895
0.260731
0.00590233
0.024966
0.0321758
0.0373367
0.0469869
0.0424343
0.0871368
0.000818501
0.0544423
0.045346
0.00506615
0.015733
0.00511802
0.0792074
-0.00020373
0.00479368
0.0468303
0.0692974
-0.051
0.0863011
0.0469694
0.0331103
0.051842
0.0469774
0.0679537
0.0481046
0.0425144
0.243477
0.0908492
-0.017601
0.0481438
0.0477076
0.0477159
0.0546054
0.0519197
-0.00247137
0.0520471
0.0476108
-0.016617
0.0203702
0.00278179
0.0676512
0.0494575
0.0400344
0.0905875
0.0326561
0.0481776
-0.0419206
0.00877575
0.110912
0.0483746
-0.233413
0.0963816
0.0492457
0.00211295
0.0369994
-0.0249721
0.0341373
0.000396029
0.09315
0.0483945
0.0499003
0.0201013
0.0394046
0.0531734
-0.007674
0.0534182
0.0535187
0.096288
0.0449766
0.0515017
0.0339388
0.00808685
0.0490078
0.0534541
0.0515003
0.0468651
0.0950226
-0.0416709
0.0248057
0.0547035
0.0524541
0.0398413
0.0472862
-0.190237
0.0783149
0.0478856
0.069715
0.0399431
0.0982825
0.151755
9.35781e-05
0.0535645
0.00468104
-0.00249007
0.046671
0.0391777
-0.00132449
0.0435041
0.0479434
0.0713416
0.0257385
0.0522596
0.0479732
0.0400991
0.0836438
0.0485864
0.0306569
0.0481211
0.0363489
0.0659317
0.131143
0.0474966
-0.196175
0.0791359
0.0147416
-0.11796
0.0915926
0.0302305
-0.0320296
0.0551704
0.141074
0.208229
0.0522674
0.0427661
0.0426758
0.0501975
0.0520579
0.00605416
-0.0777585
-0.140424
0.00777724
0.14717
-0.00690708
0.00928624
-0.0585786
0.0474863
0.0504501
0.0469339
0.0234769
0.0475027
0.00719134
0.034784
-0.0112006
0.0470884
0.0506635
0.0453766
-0.144706
0.118286
0.0770415
0.0600644
0.121082
0.0429201
0.0486643
-0.0165452
0.0345766
-0.0122924
0.0065146
0.0203501
0.00378848
0.0135869
0.0555412
0.0469435
0.0473701
-0.121243
0.0410468
0.0378225
0.0525966
-0.000333658
0.0171599
0.0475403
0.018042
-0.0135707
-0.000165938
0.0934064
0.0519719
0.047783
0.00401821
0.0547905
0.0475269
-0.000787708
0.00671527
0.0515458
0.137417
0.000452719
0.0476655
0.0478591
0.0468581
0.106185
-0.133769
0.0403215
0.00927189
0.0508336
0.0514921
0.00923128
0.0478515
0.179623
0.0133393
-0.0534564
0.152516
0.0286904
0.0471939
0.0473149
0.0312533
0.0549098
0.0470267
-0.17644
0.00462088
0.0428542
0.220256
0.100202
0.0422986
0.0470201
0.0479277
0.05147
-0.073816
0.159748
0.0319211
0.0763374
0.0654244
0.00524116
-0.0763165
0.0215152
0.0530196
0.0516855
0.0154427
0.0392145
0.0462899
0.0501979
0.00300974
0.0519177
0.0311495
0.053833
0.0804852
-0.0115731
0.0452517
0.0503197
-0.00408133
0.00265926
0.0573354
0.0499459
0.0753565
-0.00072618
0.0379053
0.0162517
0.0728394
0.0140134
-0.0337423
0.0518726
0.157482
0.0470211
0.104638
-0.000479852
0.0478469
0.0474227
0.372676
0.0481315
0.0547192
0.025009
0.0531178
0.0532842
0.0563254
0.0480278
0.0477056
0.000178948
-0.0257693
0.0456706
0.330546
0.0355208
0.0499702
0.236284
0.0984836
0.05381
0.0438908
0.0496909
0.08714
-0.265222
0.0529683
0.045574
0.0470205
0.0502792
0.0625299
0.0151716
0.0525119
0.0631682
0.0511936
-0.151168
-0.00627108
0.00633697
0.109379
0.0352873
0.0500635
0.00367071
-0.115934
0.0517103
0.0472234
0.0499871
0.0459981
0.0530658
0.0466627
-0.00383767
0.0435471
0.0421897
0.310804
-0.00101351
-0.00902658
0.00313965
0.052915
0.000577495
0.0862722
-0.0874882
0.0460034
0.00911129
0.0478377
0.242392
0.0470859
0.0477361
0.030229
0.047068
0.024341
0.0577419
0.05319
0.0458585
-0.0926498
0.0862222
0.00929137
0.0502827
0.0344294
-0.0582721
-0.00796004
0.0777012
0.0736517
0.0483671
0.0539953
0.0441803
0.0501327
0.0456551
0.0502294
0.0888925
0.0742949
0.0061463
-0.104323
0.0236308
-0.00871777
0.0314169
-0.10869
0.0465973
-0.0299753
0.0500803
-0.0121421
-0.00663317
0.0237228
0.0478034
0.0280149
0.00957963
0.0302595
-0.0157091
0.233041
-0.102176
0.0500428
-0.00235076
0.0456272
-0.00562106
0.089779
0.00335318
0.0432226
0.0562179
0.00822223
0.0509289
0.0350905
0.0481551
0.0438656
0.0471912
0.0540343
0.00555236
0.000889434
0.0475422
0.0832757
-0.0822553
0.495142
0.0468354
0.0720989
0.0264393
0.193031
0.0302387
-0.177213
-0.0344802
0.0456179
0.0230192
0.0662543
0.175486
0.0481949
0.0662969
0.0776744
0.0453882
-0.0864135
-0.00519067
0.0499788
0.0247888
-0.0352039
0.0750357
-0.0886838
0.0359902
0.0785854
0.0527147
0.0468151
0.0542747
0.0429925
-0.0738908
-0.000534525
-0.0636342
0.0485549
-0.0850363
0.028517
0.00311868
0.109941
0.0233019
0.0260414
-0.0547803
0.0358869
0.0344683
0.0043645
0.0693734
0.0245592
0.00782097
0.0685232
-0.0895415
0.0842741
0.0331818
0.0877071
0.0484374
0.112758
-0.000249653
0.1005
0.0518426
-0.0361953
0.0475485
0.0322596
0.0064386
-0.0010462
0.0557908
0.00518358
0.0447028
0.507114
0.0539261
0.00388838
0.090163
-0.000142619
0.00633986
0.0480306
0.0299019
0.0472654
0.463486
0.047615
0.047415
0.0468625
-0.0148494
0.042245
0.0428312
-0.0122324
0.0262012
0.0627264
0.0422
0.0472362
0.106207
0.0457038
0.102964
0.00720949
0.0848083
0.0386226
0.0400468
0.0242841
-0.0132791
0.0083025
0.0417287
0.526764
0.0475896
0.0473127
0.0541401
-0.13651
0.0518441
0.0288006
0.0783421
0.051916
0.039696
0.00217311
-0.0233708
0.0319191
-0.0466546
0.0528484
0.0435156
0.0124351
0.0174822
-0.000742721
0.050003
0.023089
0.0707048
0.193166
0.0354141
0.0474715
0.0437458
0.176989
0.0479652
0.0479728
-0.0354464
0.0307201
-0.0400991
0.0397027
0.047094
0.188346
-0.0147077
0.04297
0.0531875
0.0455861
-0.110347
0.0479696
0.0324295
-0.0276555
0.0479701
0.0472246
0.00827576
0.0468223
0.0479815
0.0116342
0.050155
0.0473121
0.0205253
0.0469346
-0.0132759
0.047081
0.0573442
0.118577
0.00725909
0.0479854
0.00430696
-0.169332
0.0397462
0.0726188
0.0451955
0.0331001
0.0459053
-0.0180537
-0.00632461
0.043966
0.0472101
0.131323
0.0290746
0.0138691
0.0096029
0.128821
0.0468448
0.00501193
0.0471916
-0.0204314
-0.00605157
-0.00523422
0.00696093
0.154584
-0.0879726
0.00453156
0.00809199
0.0469628
0.0503849
4.90435e-05
0.135105
0.0973506
0.0313865
-0.072427
0.0466098
-0.0627307
0.201503
0.0470713
-0.00841665
-0.0226236
0.0791652
0.00633254
0.00596712
0.0714186
0.0473863
-0.0122656
-0.0645023
0.261284
0.0529874
0.00199013
-0.0314665
0.141379
0.0494927
0.0472067
0.00499056
-0.0534223
0.0398483
0.0680951
0.0474668
0.0468499
0.0558373
0.0526954
0.0237607
0.0535074
0.0471564
-0.0157579
0.0335801
-0.0267128
0.0140369
0.0475177
0.0472484
0.142493
0.0525201
0.0787693
0.0599653
-0.0474606
0.079778
0.0466217
-0.022646
0.0570573
0.0472846
0.0259581
0.0378001
0.0393998
0.0936055
0.0238198
-0.142745
0.0397829
0.0471705
-0.027641
0.0468144
-0.00671523
0.0294862
-0.0257877
-0.0476978
0.0949146
-0.0317067
0.0475631
-0.00944132
0.0516157
0.070454
-0.0240022
0.0188423
-0.0237665
-0.0634242
0.171575
-0.0121702
0.062889
0.0466282
0.0471595
0.0467929
-0.0318101
0.139595
0.0466573
-0.0150338
-0.0201332
0.0130804
0.00155119
0.025888
0.108333
-0.0296221
0.0527303
0.0106657
0.0237898
0.0478242
0.0478484
0.0493673
0.0528631
0.0093177
0.0474278
0.0503933
0.054088
0.0725097
0.000442124
0.0472264
-0.0193421
0.0470799
0.00340875
0.0137162
0.0497729
0.0407528
0.000603208
-0.0207204
0.0347912
0.0763934
0.0525703
0.0251948
0.030572
0.047263
0.0516626
0.0521587
0.0498516
0.0472772
0.0680722
0.0472591
0.124824
0.0117984
-0.0909534
0.0473457
0.0579257
0.0474681
0.0477171
0.121115
0.0571416
0.0468345
0.31547
0.132936
0.0361979
0.063233
0.0376208
0.119321
0.0179236
0.00771152
0.0549666
0.0539851
0.0472029
0.0486935
-0.0123363
0.0468996
0.0494269
0.121972
0.0499306
0.0516697
0.0258484
0.0473781
-0.0358867
0.0473829
0.049364
0.00695908
0.00825793
-0.0725216
0.109008
0.0690954
0.0496169
0.00629959
0.0495506
0.0241574
0.0026999
0.0539072
-0.0276578
0.0480531
0.0250001
0.0685778
0.0514381
0.100351
0.0472997
0.0538538
0.0471723
0.0280465
0.0468087
0.0524612
0.0226847
0.0437852
0.0692677
0.0256533
0.047241
0.0258817
0.011067
0.0537638
0.0072985
-0.0139886
0.0472111
0.0294169
0.108899
0.00191558
0.0545987
0.042645
0.0427142
0.0235668
0.0553367
0.150103
0.0527991
0.0476287
0.047654
-0.022247
-0.00857486
-0.0225948
0.282369
0.0996353
0.0495905
0.0245007
0.00984521
0.0479827
-0.059843
0.0520552
0.103315
-0.000446886
0.0494228
0.143088
-0.008318
-0.0171634
0.0214699
0.0279521
0.0478893
0.0466792
0.0599891
0.0472305
0.0472163
0.135587
0.0500601
0.062286
0.0466767
0.0364391
0.0440456
0.366237
0.0393771
0.0420848
-0.00980992
0.102761
0.0931515
0.0328958
0.108021
0.0476415
0.0450305
0.0037917
0.0720221
0.122899
0.0489902
-0.000674567
0.038962
0.0494797
0.0503479
0.0474238
0.0633775
0.0393516
0.0477681
0.0289488
0.258406
0.0478953
0.0106022
0.0302765
0.0471619
0.0614263
0.0502231
0.0262271
0.0475141
0.0473555
0.0127209
0.0281377
0.0899933
0.140852
-0.226934
0.0537321
0.062819
-0.0398402
0.0315948
0.0501503
0.0391473
-0.00089237
0.0473002
0.051296
0.0472001
0.0288789
0.0636719
0.0166718
0.0472669
0.0594893
0.0324647
0.0524103
0.117741
0.0436823
0.0469678
0.0472683
0.0280598
0.0212362
0.308229
0.0587779
0.0812711
0.00447043
0.00378242
0.0471236
0.0982517
0.0472876
0.0472603
0.0478399
-0.00307762
0.0529181
0.0335356
0.00578057
0.0186106
0.0051306
0.0288095
0.0632845
0.112533
0.0451903
0.0100257
0.0904072
0.0313588
0.126515
0.0516627
-0.153815
0.141637
0.133627
0.0466725
-0.112463
0.00469307
0.00678096
0.136145
-0.000342072
0.0571341
0.0543274
0.0367048
0.0336323
0.030455
0.211269
0.0729195
0.0520356
0.0130637
0.0523191
0.0340303
0.0221834
0.0923118
0.0340535
0.0667969
0.0823702
0.00484634
0.0953066
0.0300854
0.0481455
0.0584061
0.0472053
0.044111
0.0459008
0.0524512
0.0178543
-0.049409
0.0471434
0.165233
0.0465168
0.0391935
0.0074864
0.0288139
0.0320083
0.045677
0.00625385
0.0109725
0.2507
0.0472952
0.00779595
0.0349316
0.00892407
0.0478492
0.0474827
0.14951
0.0222003
0.0308751
-0.121776
0.0254525
0.03792
0.136552
0.0125358
0.119522
0.0536615
0.0164885
0.0354518
0.0438436
-0.0283268
0.005877
0.0187501
0.0316745
0.0467781
0.00517981
0.00486216
-0.00106139
0.0378178
0.0356739
0.416738
-0.0383191
0.0464582
-0.013896
0.0185357
-0.107732
0.0471777
0.0305788
0.0311249
0.0471421
0.00291231
0.0261521
0.0514234
-5.22382e-05
-0.0233965
-0.00158775
0.054022
0.0222366
0.0478914
0.0429777
-0.0250202
0.0810584
0.0258907
0.00593048
0.145583
0.0231831
0.0183896
0.0199152
0.00617623
-0.0282336
0.045739
0.0201569
0.0141841
0.0914925
0.278814
0.0120595
0.0335759
0.0182516
0.0471685
0.0915764
0.0300126
0.00789622
0.0470713
0.0340223
0.00518984
0.0127074
0.147739
0.00951897
0.0279408
0.0281881
0.0526635
0.00242601
0.0249593
0.0728799
0.0578014
0.0540873
0.00911215
0.0346005
0.0403315
0.0367584
0.0474448
0.00483463
0.0612817
0.0279612
-0.00428295
-0.0454503
0.0420737
0.0256026
0.0152178
0.0224888
0.0472933
0.0983335
0.0977648
0.0712623
0.0478289
0.227664
0.00586226
0.0519806
0.0883591
0.046749
0.0558965
0.0311125
0.0251918
0.0530282
-0.103421
0.0487444
0.0578404
0.0412089
-0.0124352
-0.0307205
-0.000521133
0.0613488
0.0081843
0.0478673
0.027952
0.0736767
0.0487726
0.148741
0.0156698
0.0264396
0.00717343
0.0653559
0.0204463
0.0365723
0.0469375
0.04702
0.0455208
0.0618731
0.122046
0.0141251
0.14611
0.0821424
0.0887801
0.0494179
0.0683256
0.00612086
0.0473386
-0.0250198
-0.0198395
0.0506214
0.0472509
0.038423
0.0454672
0.0470159
0.0634611
0.0327259
0.131251
0.0149636
0.0340551
0.0878816
-0.0113711
0.00464749
0.0853819
0.0112805
0.022401
0.0694024
0.0468238
0.0611932
0.0261959
0.121313
0.128858
0.217977
0.0470619
0.125775
0.0314835
0.0303808
0.103263
0.106375
0.0986285
-0.0251007
0.0196006
0.0663497
0.0194932
0.0379461
0.0447492
0.090079
0.0466878
0.0151994
-0.0299522
0.057936
-0.0261622
0.0463408
0.0826197
0.0531971
0.0290462
0.101268
0.162674
0.0203656
0.0416631
0.0153495
0.032193
0.0705275
-2.98436e-05
0.0811277
-0.00278022
0.0470791
0.0199158
-0.142763
0.0979158
0.0342872
-0.0421805
0.00922138
0.0402882
0.0461591
0.102638
0.0921596
0.0325105
0.0558279
0.0490301
0.00497367
0.0423019
0.00340165
0.0799003
0.0343468
0.140734
0.0470662
0.04388
-0.000524067
0.0357806
0.0364817
0.0646897
0.0550004
0.028187
0.166612
0.106522
0.0468772
0.00466207
0.0426602
0.0468672
0.132443
0.0467871
0.020431
0.0232808
0.0466561
0.046818
0.0507705
0.00648707
0.0598535
0.0964407
0.0269653
0.128986
0.0312619
0.0320702
0.0358395
0.0772609
0.0473195
0.0379718
0.035631
0.0252407
-0.0223799
0.00816734
0.0652289
0.043531
0.0540344
0.029963
0.0411388
0.0596918
0.0198881
0.105423
0.0309104
0.0468927
0.00719102
0.0859307
0.00642051
0.0471065
0.134245
-0.0236578
0.0441595
0.097122
0.00506493
0.0516491
0.0954698
0.00261726
0.0881537
0.113097
0.00339683
0.0467407
0.0779571
0.0748677
0.0128727
0.0443633
0.0297757
0.0470324
0.0469583
0.0468547
0.0118187
0.0160824
0.0193699
0.0812987
-0.0654129
0.168366
-0.0644348
0.026548
0.0418838
-0.0428112
0.0489073
-0.100773
0.0315971
0.0216388
0.0168196
0.0272335
0.0635669
0.0396801
0.0312916
0.052559
0.0470763
0.0765115
-0.0391404
0.0120376
0.00547919
0.015784
0.0507559
0.0265633
0.0151518
0.0531093
0.022808
0.0368247
0.118021
0.0845439
0.0798037
0.0922808
-0.00176579
-0.000220644
0.00501372
0.0215129
-0.00466593
0.0130486
0.0570119
0.0422215
0.130054
0.0727975
0.006103
0.0474862
0.094326
0.125951
0.0728107
0.0783077
0.0554735
0.0155851
0.11334
0.0271903
0.022707
0.0326779
0.0317239
0.0463053
0.0269303
0.0283225
0.05227
0.0187716
0.028519
0.0427001
0.103457
0.0422502
0.0397734
0.0743404
0.0543361
0.0465793
0.0494431
0.00193053
0.0147608
0.0480048
0.0707692
-0.0533271
0.00561052
0.0544383
0.0178565
-0.0196816
-0.0409509
-0.00549814
0.0320859
0.0327959
0.0536485
0.0320357
0.0246378
-0.000285757
-0.00128809
0.00225957
0.000660162
0.0332133
0.0461077
0.045827
0.128088
0.0608998
0.0335579
0.0366216
-0.000422679
0.0432002
0.0259296
0.148298
0.0860907
0.0104262
0.052662
0.0150575
0.0467161
0.00771836
0.000653266
0.0261268
0.0468295
0.0576062
0.165738
0.0402451
0.0877713
-0.0172004
0.0471732
0.0333143
0.0928697
0.100299
0.0688525
0.0481097
0.0438339
0.0449249
0.0477685
0.0469092
0.0397927
0.00604846
0.0467887
0.0550736
0.0522132
-0.341578
0.118158
0.0449628
0.0470538
0.00973977
0.015156
0.0226877
0.0756009
0.0161457
0.0462756
0.0407065
0.00418041
0.0476814
0.0123909
0.0915232
0.0699726
0.0455329
0.0106932
0.0474203
0.0379851
0.0360604
0.0401564
-0.00351018
0.0583072
0.0336662
0.0319716
0.109648
0.0802256
0.0466864
0.0472048
0.0345204
0.0309051
0.0124437
0.0195787
0.0386457
0.00674804
0.0790088
0.047805
0.036035
0.00507375
0.0381137
0.0837464
0.0623465
0.0501614
0.150394
0.0209299
0.12431
0.139426
0.0262438
-0.00263428
0.000102726
0.124242
0.0382328
0.00575362
0.0731362
0.0348261
0.0195631
0.0884321
0.0710145
0.0494697
0.00230854
0.0305094
0.026392
0.0392247
0.00486794
0.0490187
0.0790825
0.0488241
0.0559669
0.0847174
0.0533952
0.041337
0.105202
0.00665266
0.0902077
0.0269788
0.0709305
0.00782205
0.0602406
0.0109002
0.0484942
0.0288515
0.00876737
0.0661844
0.026328
0.0484496
0.0407566
0.0134063
0.0446079
0.033518
0.0550897
0.0351332
0.0210922
-0.00155659
0.0942884
0.103179
0.0993501
0.0398721
0.0393828
0.0334344
0.0174646
0.027339
0.0475163
0.052913
0.0688132
0.0230471
0.0572403
0.00406439
0.0295705
0.0558321
0.0316755
0.0309142
0.0425199
0.0281895
0.0361044
0.133032
0.258759
0.0213812
0.0246322
0.0259738
0.0294252
0.0355398
0.0336213
0.0326689
0.0222117
0.0116328
0.0458647
0.047037
0.0461051
0.00571229
0.0471482
0.0282734
0.0411828
0.0298014
0.0583388
0.0324041
0.122132
-0.00768876
0.0467509
0.0338586
0.08987
0.0402692
0.0594267
0.088244
0.0520465
0.0470327
0.028966
0.00201325
0.085518
0.00304156
0.114128
0.0823765
0.00325538
0.0618676
0.0671495
0.0085342
0.041577
0.0467943
0.0484519
0.0349596
0.0465772
0.0308445
-0.0382645
0.0457988
0.0788128
0.0419883
0.0610461
0.0617358
0.158973
0.0533622
0.0407135
0.00428574
0.0118473
0.0858102
0.030065
0.0820643
0.0483642
0.0363911
0.0637347
0.0445319
0.0315021
0.0478093
0.0483972
0.0299125
0.0465596
0.0332662
0.0602919
0.0796112
0.0128497
0.0463296
0.00605831
0.000864924
0.0663002
0.0590202
0.0494409
0.0669124
0.130813
0.0470228
0.0391979
0.0453466
0.059318
0.0372509
0.0339111
0.0377136
0.0724774
0.0820536
0.0311206
0.0780096
0.0888361
0.0588022
0.107111
0.0564809
0.0770729
0.0259565
0.0411474
0.0196365
0.0478993
0.0633545
0.0487428
0.0821185
0.00169401
0.0536211
-0.0129494
0.0429657
0.0256047
0.116689
0.00690634
0.0454672
0.0467181
0.00433432
0.106461
0.0262199
0.02846
0.0135132
0.0433756
0.0799621
0.0363227
0.0455244
0.0347298
0.0076517
0.0412175
0.0389198
0.392461
0.037656
0.0487834
0.0576702
0.0631862
0.041519
0.0303369
0.0470516
0.101276
0.0416435
0.0470311
0.0114086
0.035343
0.0274842
0.039848
0.0619715
0.0408149
0.0432476
0.0425537
0.0324061
0.0789046
0.0470694
0.0375496
0.0563821
0.0440503
0.0381085
0.0534655
0.0536799
0.0581744
0.0586165
0.0471555
0.0418806
0.0493788
0.0278912
-0.00164458
-0.000705884
0.144763
0.0734485
-0.0102401
0.0294048
0.0466685
0.0499676
0.0569113
0.0728044
0.0475054
0.0263631
0.0747534
0.0554946
0.0248789
-0.0103357
0.0202005
0.0465428
0.0360109
0.0468808
0.0928242
0.232006
0.0378951
0.0557997
0.0417497
0.00543927
0.0467168
0.0712385
0.0267893
0.0439779
0.0476625
0.0318843
0.0957309
0.0374491
0.0550967
0.0244974
0.0407634
0.0421669
0.0864042
0.0592844
0.0388593
0.0493557
0.0373988
0.0530604
0.0366243
0.0474149
0.0381103
0.0467048
0.0530789
0.0100573
0.0670149
0.0145307
0.0726603
0.0724275
0.0514065
0.0371468
0.0338654
0.0761124
0.0906869
0.00971689
0.0403846
0.0555918
0.0567599
0.0386175
0.0457473
0.0425098
0.0360112
0.0270836
0.0270418
0.0429843
0.0139088
0.0378381
0.078181
0.039327
0.0415706
0.0381587
0.0229061
0.0825609
0.0523006
-0.00060447
0.0376777
0.0398763
0.00803788
0.0501229
0.000492075
0.0495405
0.0402824
0.0452444
0.0454068
0.048065
0.0411236
0.00317267
0.0470406
0.0193534
0.0704696
0.0496665
0.0564616
0.0315832
0.0949761
0.0591271
0.0475176
0.0334368
-0.0672949
0.0472215
0.00460101
-0.0808312
0.0642783
0.084071
0.0510864
0.0398322
0.0287287
0.0699984
0.0572942
0.0474126
0.091031
0.0101962
0.0804556
0.0470885
0.0464254
0.0419486
0.0428665
0.0434704
0.0645022
0.0751271
0.0446353
-0.00164494
0.0444183
0.0515055
0.0402642
0.0312892
0.000154775
0.0465335
0.0406306
0.0225412
0.0414502
0.0449138
0.0496477
0.126962
0.0720344
0.047593
0.061257
0.0517714
0.040484
0.0739653
0.0581788
0.0425262
0.0615655
0.0353205
0.0612794
0.0837116
0.00127356
0.0223133
0.0476967
0.0685841
0.0456823
0.0497922
0.0486295
0.0407236
0.00125322
0.000369272
0.0573575
0.0314856
0.0332295
0.0269714
0.0463868
0.0458168
0.0476098
0.0698593
0.0331423
0.0471224
0.0403942
0.0526258
0.0212837
0.00914907
0.0471877
0.0466686
0.034835
0.0466851
0.0458128
0.0411359
0.0436406
0.0382746
0.0646219
0.0603285
0.0329518
0.0452014
0.0510883
0.0567278
0.0407172
0.0470574
0.0414933
0.0293456
0.000893042
0.00486819
0.0337254
0.122022
0.041078
-0.0599417
0.0870172
0.0405225
0.0391631
0.0518327
0.0468882
0.0471977
0.0524197
0.055116
0.0401887
0.0489401
0.0462814
0.0953543
0.00479901
0.0322534
0.0473255
0.0531193
0.061322
0.0687771
0.0310631
0.0496
0.0469735
0.0456258
0.0415057
0.028274
0.025564
0.00478889
0.060146
0.0456293
0.0375261
0.0544877
0.0517902
0.0511235
0.0445986
0.0564177
0.0471472
0.0144168
-0.00264145
0.0462318
0.0648437
0.0401325
0.0431593
0.0448252
0.0485737
-0.0477934
0.0618449
-0.000542297
0.0418339
0.00622923
0.0504175
0.0683873
0.126436
0.0535489
0.04737
0.029129
0.0204006
0.109734
0.0408078
0.0653697
0.0434106
0.0466994
0.0635604
0.0448891
0.120072
0.000133014
0.0775194
0.050611
0.0461571
0.047115
0.0458685
-0.0268271
0.0370224
0.0465722
0.0543804
0.0454586
0.0467271
0.0463966
0.00993865
0.00305899