/*--------------------------------*- C++ -*----------------------------------*\
  =========                 |
  \\      /  F ield         | OpenFOAM: The Open Source CFD Toolbox
   \\    /   O peration     | Website:  https://openfoam.org
    \\  /    A nd           | Version:  7
     \\/     M anipulation  |
\*---------------------------------------------------------------------------*/
FoamFile
{
    version     2.0;
    format      ascii;
    class       volVectorField;
    location    "3";
    object      U;
}
// * * * * * * * * * * * * * * * * * * * * * * * * * * * * * * * * * * * * * //

dimensions      [0 1 -1 0 0 0 0];

internalField   nonuniform List<vector> 
2413
(
(2.12421 -0.232677 0)
(2.12488 -0.233589 0)
(2.12612 -0.235148 0)
(2.12692 -0.236863 0)
(2.12729 -0.237622 0)
(2.12793 -0.238649 0)
(2.12848 -0.240101 0)
(2.12869 -0.241717 0)
(2.12876 -0.242522 0)
(2.12874 -0.243675 0)
(2.12823 -0.245717 0)
(2.12737 -0.246995 0)
(2.12689 -0.248447 0)
(2.12749 -0.249456 0)
(2.12794 -0.24998 0)
(2.12823 -0.250782 0)
(2.12902 -0.251605 0)
(2.12962 -0.252664 0)
(2.12992 -0.253809 0)
(2.13048 -0.25465 0)
(2.13111 -0.255882 0)
(2.13129 -0.2572 0)
(2.13138 -0.257597 0)
(2.13164 -0.258685 0)
(2.13147 -0.260105 0)
(2.13089 -0.261216 0)
(2.1303 -0.262454 0)
(2.12982 -0.263771 0)
(2.12966 -0.265026 0)
(2.13018 -0.266032 0)
(2.13078 -0.267643 0)
(2.13103 -0.268652 0)
(2.13232 -0.270672 0)
(2.13379 -0.27277 0)
(2.13404 -0.27501 0)
(2.13406 -0.27691 0)
(2.13349 -0.276868 0)
(2.13188 -0.275164 0)
(2.12901 -0.272456 0)
(2.1236 -0.267112 0)
(2.11149 -0.253433 0)
(2.09128 -0.224082 0)
(2.06749 -0.206008 0)
(2.03908 -0.177577 0)
(2.01171 -0.126451 0)
(1.99987 -0.111819 0)
(1.99365 -0.11694 0)
(1.99302 -0.11497 0)
(1.98997 -0.109446 0)
(1.98802 -0.10553 0)
(1.98837 -0.104087 0)
(1.98989 -0.104094 0)
(1.99114 -0.105012 0)
(1.99215 -0.10656 0)
(1.99274 -0.106959 0)
(1.99283 -0.105327 0)
(1.99339 -0.103793 0)
(1.9937 -0.103715 0)
(1.99408 -0.103807 0)
(1.99455 -0.102717 0)
(1.99511 -0.101951 0)
(1.99548 -0.101805 0)
(1.99584 -0.100729 0)
(1.99651 -0.0990356 0)
(1.99705 -0.0984117 0)
(1.99718 -0.0987485 0)
(1.99741 -0.0984977 0)
(1.9978 -0.096994 0)
(1.99831 -0.0958258 0)
(1.99855 -0.095193 0)
(1.99879 -0.0942445 0)
(1.99936 -0.0933032 0)
(1.99987 -0.0926726 0)
(1.99997 -0.0917215 0)
(2.00002 -0.0907878 0)
(2.00033 -0.0903245 0)
(2.00076 -0.0897745 0)
(2.00098 -0.0884683 0)
(2.00124 -0.087567 0)
(2.00154 -0.0872449 0)
(2.00197 -0.0867818 0)
(2.00221 -0.0851887 0)
(2.00259 -0.0835941 0)
(2.00288 -0.0832197 0)
(2.00312 -0.0831613 0)
(2.00335 -0.0823574 0)
(2.0037 -0.0814529 0)
(2.00409 -0.0808008 0)
(2.00442 -0.0799379 0)
(2.00468 -0.0786386 0)
(2.00501 -0.0775571 0)
(2.00536 -0.0770685 0)
(2.00565 -0.0765962 0)
(2.00588 -0.0759183 0)
(2.00617 -0.0753251 0)
(2.00654 -0.0746643 0)
(2.00692 -0.0738381 0)
(2.00724 -0.0728425 0)
(2.00753 -0.0722052 0)
(2.0078 -0.071691 0)
(2.00813 -0.0713774 0)
(2.00849 -0.0707571 0)
(2.00889 -0.0695978 0)
(2.00945 -0.0683968 0)
(2.01009 -0.067538 0)
(2.01062 -0.0669959 0)
(2.0109 -0.0660853 0)
(2.01112 -0.065427 0)
(2.01132 -0.0652346 0)
(2.0115 -0.0648222 0)
(2.01175 -0.0642774 0)
(2.01205 -0.0632539 0)
(2.01254 -0.0626336 0)
(2.01295 -0.0616915 0)
(2.01329 -0.0609466 0)
(2.01357 -0.0602036 0)
(2.11313 -0.20312 0)
(2.11414 -0.204564 0)
(2.11469 -0.20607 0)
(2.11536 -0.206977 0)
(2.11677 -0.208388 0)
(2.11752 -0.210372 0)
(2.11796 -0.211123 0)
(2.11865 -0.211995 0)
(2.11924 -0.214282 0)
(2.11922 -0.215827 0)
(2.11918 -0.216466 0)
(2.11965 -0.218072 0)
(2.12041 -0.219871 0)
(2.12088 -0.220657 0)
(2.12143 -0.221661 0)
(2.12263 -0.223163 0)
(2.12346 -0.224691 0)
(2.12408 -0.225387 0)
(2.12494 -0.226583 0)
(2.12605 -0.228234 0)
(2.1265 -0.229524 0)
(2.12693 -0.230111 0)
(2.12738 -0.23117 0)
(2.12749 -0.232548 0)
(2.12741 -0.233899 0)
(2.12715 -0.234613 0)
(2.12656 -0.23618 0)
(2.12591 -0.237861 0)
(2.1255 -0.238912 0)
(2.12597 -0.239888 0)
(2.1267 -0.240447 0)
(2.12718 -0.241275 0)
(2.12785 -0.242197 0)
(2.12873 -0.243468 0)
(2.12884 -0.244488 0)
(2.12931 -0.245447 0)
(2.1299 -0.246554 0)
(2.13015 -0.248178 0)
(2.13015 -0.248737 0)
(2.13031 -0.249579 0)
(2.13028 -0.251289 0)
(2.12967 -0.252658 0)
(2.12902 -0.253782 0)
(2.12875 -0.254961 0)
(2.12863 -0.256014 0)
(2.12882 -0.256938 0)
(2.12947 -0.257969 0)
(2.12986 -0.259196 0)
(2.13017 -0.260175 0)
(2.13136 -0.26185 0)
(2.13187 -0.263395 0)
(2.13251 -0.264616 0)
(2.13352 -0.266313 0)
(2.13264 -0.266459 0)
(2.13181 -0.265854 0)
(2.12994 -0.265353 0)
(2.12664 -0.264674 0)
(2.12059 -0.258168 0)
(2.10997 -0.246758 0)
(2.09034 -0.230335 0)
(2.05919 -0.184416 0)
(2.03692 -0.150666 0)
(2.02372 -0.14818 0)
(2.00646 -0.12877 0)
(1.99721 -0.10761 0)
(1.99188 -0.104047 0)
(1.99023 -0.105618 0)
(1.99224 -0.105976 0)
(1.99375 -0.107069 0)
(1.9943 -0.107161 0)
(1.9938 -0.105801 0)
(1.99428 -0.103929 0)
(1.99524 -0.102984 0)
(1.99568 -0.103636 0)
(1.99641 -0.104767 0)
(1.99679 -0.103665 0)
(1.99736 -0.101728 0)
(1.9979 -0.101072 0)
(1.99831 -0.100393 0)
(1.99887 -0.0988946 0)
(1.99947 -0.098019 0)
(1.9996 -0.0983231 0)
(1.99976 -0.0985401 0)
(1.99992 -0.0971441 0)
(2.00038 -0.0953806 0)
(2.00069 -0.0945651 0)
(2.00091 -0.0942897 0)
(2.00146 -0.0936631 0)
(2.00196 -0.0924703 0)
(2.00218 -0.0911612 0)
(2.00221 -0.0904064 0)
(2.00246 -0.0902269 0)
(2.00292 -0.0895418 0)
(2.00324 -0.0879615 0)
(2.00352 -0.0869825 0)
(2.0037 -0.0868791 0)
(2.00407 -0.0866562 0)
(2.00426 -0.0850361 0)
(2.00467 -0.0832582 0)
(2.00502 -0.0827256 0)
(2.0053 -0.0826364 0)
(2.00557 -0.0818349 0)
(2.00591 -0.0808494 0)
(2.00623 -0.0802369 0)
(2.00646 -0.079495 0)
(2.00669 -0.0782467 0)
(2.00707 -0.077149 0)
(2.00747 -0.0765502 0)
(2.00773 -0.0759063 0)
(2.00792 -0.0751924 0)
(2.00817 -0.0748029 0)
(2.00849 -0.0743211 0)
(2.0088 -0.0735146 0)
(2.00908 -0.0724297 0)
(2.00941 -0.0717127 0)
(2.00977 -0.0711344 0)
(2.01014 -0.0706748 0)
(2.01045 -0.0700401 0)
(2.01076 -0.069055 0)
(2.01125 -0.0681024 0)
(2.01184 -0.0671919 0)
(2.01235 -0.0664296 0)
(2.01265 -0.0654089 0)
(2.01291 -0.0646726 0)
(2.01312 -0.0645755 0)
(2.01325 -0.0641624 0)
(2.0134 -0.0638009 0)
(2.01361 -0.063048 0)
(2.01403 -0.0624264 0)
(2.01442 -0.0614914 0)
(2.01478 -0.060483 0)
(2.01515 -0.0595689 0)
(2.11182 -0.194572 0)
(2.11326 -0.195901 0)
(2.11414 -0.197774 0)
(2.11459 -0.198622 0)
(2.11564 -0.199694 0)
(2.11674 -0.201504 0)
(2.11705 -0.202998 0)
(2.11745 -0.203395 0)
(2.11782 -0.204883 0)
(2.11793 -0.207196 0)
(2.11798 -0.208059 0)
(2.11812 -0.208878 0)
(2.11915 -0.210556 0)
(2.11976 -0.211945 0)
(2.12032 -0.212662 0)
(2.12122 -0.214036 0)
(2.12239 -0.21547 0)
(2.12304 -0.216647 0)
(2.12371 -0.217477 0)
(2.1248 -0.219014 0)
(2.12552 -0.220799 0)
(2.12583 -0.221574 0)
(2.12621 -0.222377 0)
(2.12642 -0.22393 0)
(2.12617 -0.225479 0)
(2.12579 -0.226815 0)
(2.12499 -0.227942 0)
(2.12471 -0.229937 0)
(2.12477 -0.231155 0)
(2.12496 -0.231763 0)
(2.12577 -0.232638 0)
(2.12657 -0.233558 0)
(2.12709 -0.234544 0)
(2.12799 -0.235914 0)
(2.12822 -0.236918 0)
(2.1286 -0.237796 0)
(2.12904 -0.238732 0)
(2.1293 -0.240227 0)
(2.12918 -0.241058 0)
(2.1292 -0.241653 0)
(2.1292 -0.243296 0)
(2.12867 -0.244902 0)
(2.12801 -0.245835 0)
(2.12781 -0.246837 0)
(2.12789 -0.247841 0)
(2.12797 -0.248926 0)
(2.12842 -0.249759 0)
(2.12904 -0.250809 0)
(2.12915 -0.251877 0)
(2.12983 -0.25318 0)
(2.13032 -0.254835 0)
(2.13054 -0.256024 0)
(2.13134 -0.257792 0)
(2.13209 -0.2603 0)
(2.13212 -0.263591 0)
(2.13201 -0.265154 0)
(2.13082 -0.264525 0)
(2.12895 -0.262381 0)
(2.12606 -0.259527 0)
(2.12066 -0.254323 0)
(2.10795 -0.239977 0)
(2.08765 -0.208868 0)
(2.06609 -0.190576 0)
(2.0398 -0.165831 0)
(2.01552 -0.121441 0)
(2.00456 -0.110246 0)
(1.99972 -0.115099 0)
(1.99765 -0.112304 0)
(1.99557 -0.107925 0)
(1.99449 -0.10534 0)
(1.99511 -0.10358 0)
(1.99642 -0.102671 0)
(1.99762 -0.102803 0)
(1.99823 -0.104285 0)
(1.99905 -0.105285 0)
(1.99898 -0.103753 0)
(1.99938 -0.101164 0)
(2.00001 -0.100184 0)
(2.00056 -0.100324 0)
(2.00114 -0.0993379 0)
(2.0018 -0.0980104 0)
(2.00206 -0.0979131 0)
(2.00218 -0.0981562 0)
(2.00223 -0.0969935 0)
(2.00259 -0.0950108 0)
(2.00297 -0.0940395 0)
(2.00312 -0.0942658 0)
(2.00363 -0.094139 0)
(2.00393 -0.092542 0)
(2.00428 -0.0906748 0)
(2.00443 -0.0898958 0)
(2.00464 -0.0900228 0)
(2.0051 -0.0893523 0)
(2.00543 -0.0875055 0)
(2.00578 -0.0863011 0)
(2.00586 -0.0862742 0)
(2.00615 -0.0863065 0)
(2.00629 -0.0848015 0)
(2.0067 -0.0829255 0)
(2.0071 -0.0822618 0)
(2.00741 -0.0822128 0)
(2.00773 -0.0814409 0)
(2.00807 -0.0803026 0)
(2.00834 -0.0796117 0)
(2.0085 -0.0790164 0)
(2.00871 -0.0779468 0)
(2.00913 -0.0768753 0)
(2.00955 -0.0761174 0)
(2.00979 -0.0752744 0)
(2.00996 -0.0745843 0)
(2.01018 -0.0743368 0)
(2.01044 -0.073868 0)
(2.01068 -0.0730488 0)
(2.01092 -0.0719953 0)
(2.0113 -0.0713941 0)
(2.01172 -0.0707599 0)
(2.01212 -0.0699651 0)
(2.01241 -0.0691828 0)
(2.01266 -0.0683346 0)
(2.01309 -0.0677296 0)
(2.01359 -0.0669486 0)
(2.01404 -0.0660755 0)
(2.01434 -0.0650805 0)
(2.01463 -0.0642214 0)
(2.01488 -0.0639971 0)
(2.01496 -0.0634031 0)
(2.01504 -0.0630345 0)
(2.01518 -0.0625643 0)
(2.01548 -0.0619878 0)
(2.01586 -0.0611712 0)
(2.0162 -0.0600388 0)
(2.01667 -0.0589158 0)
(2.11065 -0.185312 0)
(2.11188 -0.18669 0)
(2.11305 -0.188124 0)
(2.11369 -0.189824 0)
(2.11436 -0.19039 0)
(2.11548 -0.191908 0)
(2.11602 -0.194081 0)
(2.11617 -0.195045 0)
(2.11624 -0.195798 0)
(2.11658 -0.1982 0)
(2.1168 -0.199942 0)
(2.11709 -0.200502 0)
(2.11783 -0.201833 0)
(2.11888 -0.203653 0)
(2.11942 -0.204627 0)
(2.12009 -0.205694 0)
(2.12139 -0.207127 0)
(2.12225 -0.208598 0)
(2.12287 -0.209475 0)
(2.12363 -0.210493 0)
(2.1245 -0.212127 0)
(2.12485 -0.213597 0)
(2.12508 -0.21416 0)
(2.12516 -0.215109 0)
(2.12479 -0.216754 0)
(2.12413 -0.218117 0)
(2.12344 -0.219397 0)
(2.12294 -0.22074 0)
(2.12346 -0.221784 0)
(2.12381 -0.222548 0)
(2.12434 -0.223243 0)
(2.12538 -0.224241 0)
(2.12588 -0.225236 0)
(2.12658 -0.226523 0)
(2.12706 -0.227919 0)
(2.1273 -0.228543 0)
(2.12781 -0.22953 0)
(2.1281 -0.23112 0)
(2.12788 -0.232276 0)
(2.1278 -0.2329 0)
(2.12777 -0.234453 0)
(2.12744 -0.236321 0)
(2.1269 -0.237218 0)
(2.12665 -0.238297 0)
(2.12692 -0.239256 0)
(2.12725 -0.240199 0)
(2.12722 -0.241182 0)
(2.12766 -0.241996 0)
(2.12827 -0.243165 0)
(2.12821 -0.243928 0)
(2.12868 -0.245186 0)
(2.12886 -0.246906 0)
(2.12883 -0.247489 0)
(2.12947 -0.249353 0)
(2.12993 -0.251646 0)
(2.13005 -0.252437 0)
(2.13053 -0.253793 0)
(2.13037 -0.253961 0)
(2.12945 -0.253059 0)
(2.12763 -0.252444 0)
(2.12432 -0.251533 0)
(2.118 -0.24374 0)
(2.10718 -0.231265 0)
(2.08864 -0.217351 0)
(2.05777 -0.173907 0)
(2.03599 -0.137773 0)
(2.02163 -0.137318 0)
(2.00898 -0.124839 0)
(2.00118 -0.10778 0)
(1.99834 -0.103418 0)
(1.99723 -0.104563 0)
(1.99854 -0.104342 0)
(2.00009 -0.104393 0)
(2.00075 -0.105298 0)
(2.001 -0.104904 0)
(2.00084 -0.102944 0)
(2.00148 -0.100815 0)
(2.00206 -0.100393 0)
(2.00274 -0.10129 0)
(2.00338 -0.100567 0)
(2.00388 -0.0984346 0)
(2.00437 -0.0975831 0)
(2.00453 -0.0976842 0)
(2.00466 -0.096845 0)
(2.005 -0.0949946 0)
(2.00546 -0.093942 0)
(2.00557 -0.0942819 0)
(2.00594 -0.0944627 0)
(2.00605 -0.092819 0)
(2.00641 -0.0905184 0)
(2.00671 -0.0895506 0)
(2.00688 -0.0899322 0)
(2.00732 -0.0895169 0)
(2.00757 -0.0875124 0)
(2.00801 -0.0859916 0)
(2.00807 -0.0859668 0)
(2.0083 -0.0862237 0)
(2.0084 -0.0848058 0)
(2.00878 -0.082778 0)
(2.0092 -0.0819798 0)
(2.00953 -0.0820248 0)
(2.00988 -0.0812849 0)
(2.01018 -0.079808 0)
(2.01043 -0.0789065 0)
(2.01055 -0.0784869 0)
(2.01077 -0.0777025 0)
(2.0112 -0.076682 0)
(2.0116 -0.0757193 0)
(2.01181 -0.0747323 0)
(2.01196 -0.074039 0)
(2.01219 -0.0738614 0)
(2.01242 -0.0734177 0)
(2.01259 -0.0725298 0)
(2.01281 -0.071524 0)
(2.01319 -0.0709773 0)
(2.01365 -0.0702697 0)
(2.01405 -0.0691987 0)
(2.01435 -0.0683109 0)
(2.01459 -0.0676792 0)
(2.01496 -0.0673201 0)
(2.01534 -0.0665611 0)
(2.01568 -0.0655536 0)
(2.01597 -0.0646238 0)
(2.01626 -0.0637071 0)
(2.01654 -0.0633748 0)
(2.01664 -0.06269 0)
(2.0167 -0.0623274 0)
(2.01679 -0.0621171 0)
(2.01699 -0.0616027 0)
(2.01733 -0.0609139 0)
(2.01764 -0.0597652 0)
(2.01817 -0.0584553 0)
(2.10988 -0.177177 0)
(2.11057 -0.178066 0)
(2.11203 -0.179519 0)
(2.11296 -0.181486 0)
(2.11341 -0.182478 0)
(2.11421 -0.183207 0)
(2.11494 -0.185266 0)
(2.11496 -0.187062 0)
(2.11492 -0.187687 0)
(2.11491 -0.189029 0)
(2.11557 -0.191248 0)
(2.116 -0.192212 0)
(2.11649 -0.192853 0)
(2.11758 -0.194418 0)
(2.11837 -0.196065 0)
(2.11895 -0.19674 0)
(2.11995 -0.198025 0)
(2.12112 -0.199489 0)
(2.12169 -0.200582 0)
(2.12242 -0.201548 0)
(2.12312 -0.202825 0)
(2.12362 -0.204561 0)
(2.12375 -0.205731 0)
(2.12369 -0.206329 0)
(2.12335 -0.208012 0)
(2.12261 -0.21008 0)
(2.1219 -0.211295 0)
(2.12165 -0.212665 0)
(2.12236 -0.213672 0)
(2.12303 -0.214685 0)
(2.12344 -0.2154 0)
(2.12437 -0.216454 0)
(2.12512 -0.217525 0)
(2.12565 -0.218685 0)
(2.12619 -0.220383 0)
(2.12635 -0.220915 0)
(2.12689 -0.221817 0)
(2.12716 -0.22331 0)
(2.12689 -0.224646 0)
(2.12669 -0.225281 0)
(2.12657 -0.226547 0)
(2.12635 -0.228312 0)
(2.12587 -0.229117 0)
(2.12564 -0.230159 0)
(2.12589 -0.231161 0)
(2.12641 -0.232127 0)
(2.12636 -0.232981 0)
(2.12664 -0.2339 0)
(2.12718 -0.235025 0)
(2.12738 -0.236329 0)
(2.12735 -0.236994 0)
(2.12771 -0.238315 0)
(2.12765 -0.239863 0)
(2.12729 -0.240516 0)
(2.12795 -0.24255 0)
(2.12855 -0.244837 0)
(2.12887 -0.245923 0)
(2.13006 -0.247946 0)
(2.13001 -0.250555 0)
(2.13023 -0.251851 0)
(2.12922 -0.251032 0)
(2.12737 -0.248731 0)
(2.12427 -0.2455 0)
(2.11823 -0.240114 0)
(2.10393 -0.224495 0)
(2.08325 -0.193663 0)
(2.0628 -0.179245 0)
(2.03838 -0.156169 0)
(2.01649 -0.115883 0)
(2.00754 -0.104554 0)
(2.00118 -0.110287 0)
(2.0019 -0.110258 0)
(2.00176 -0.106089 0)
(2.00216 -0.104386 0)
(2.00247 -0.103387 0)
(2.00306 -0.10183 0)
(2.00409 -0.100863 0)
(2.00458 -0.101482 0)
(2.00528 -0.102703 0)
(2.00558 -0.101813 0)
(2.00561 -0.0991455 0)
(2.00621 -0.0974673 0)
(2.0065 -0.0975412 0)
(2.00695 -0.0970704 0)
(2.00744 -0.0951963 0)
(2.00811 -0.0938482 0)
(2.00826 -0.0939822 0)
(2.00845 -0.0943058 0)
(2.00843 -0.0929309 0)
(2.00868 -0.0905611 0)
(2.00907 -0.0894329 0)
(2.00917 -0.0898926 0)
(2.00956 -0.0897419 0)
(2.00969 -0.0876762 0)
(2.0102 -0.085767 0)
(2.01036 -0.0855511 0)
(2.01057 -0.0858877 0)
(2.01065 -0.0845677 0)
(2.01099 -0.0824572 0)
(2.0114 -0.0815818 0)
(2.01172 -0.0817608 0)
(2.01205 -0.0810737 0)
(2.01226 -0.0793363 0)
(2.01254 -0.0782007 0)
(2.01265 -0.0779462 0)
(2.01289 -0.0775239 0)
(2.01327 -0.0765004 0)
(2.01361 -0.0752859 0)
(2.01379 -0.0742086 0)
(2.01395 -0.0736246 0)
(2.01422 -0.0734634 0)
(2.01442 -0.0728433 0)
(2.01454 -0.0718344 0)
(2.01474 -0.0709732 0)
(2.01513 -0.0706599 0)
(2.0156 -0.0699812 0)
(2.01594 -0.0686165 0)
(2.01625 -0.0675652 0)
(2.01649 -0.0670269 0)
(2.0168 -0.0667817 0)
(2.01709 -0.0661194 0)
(2.01733 -0.0650917 0)
(2.01761 -0.0643418 0)
(2.01787 -0.0634162 0)
(2.01815 -0.0628422 0)
(2.01826 -0.0619689 0)
(2.01833 -0.0614123 0)
(2.01841 -0.0613143 0)
(2.01853 -0.0608477 0)
(2.01882 -0.0602897 0)
(2.01912 -0.0593176 0)
(2.01965 -0.0579184 0)
(2.10888 -0.168148 0)
(2.10945 -0.169315 0)
(2.11042 -0.170243 0)
(2.11175 -0.171957 0)
(2.11223 -0.173837 0)
(2.11272 -0.174357 0)
(2.11329 -0.175671 0)
(2.11351 -0.178207 0)
(2.11342 -0.179494 0)
(2.11335 -0.180291 0)
(2.11414 -0.182177 0)
(2.11489 -0.183897 0)
(2.11548 -0.184579 0)
(2.11622 -0.185802 0)
(2.11745 -0.187581 0)
(2.11806 -0.188838 0)
(2.11874 -0.189606 0)
(2.12008 -0.191093 0)
(2.12086 -0.192696 0)
(2.12135 -0.193464 0)
(2.12204 -0.194586 0)
(2.12241 -0.195967 0)
(2.1225 -0.197546 0)
(2.12237 -0.198619 0)
(2.12173 -0.199357 0)
(2.1209 -0.2014 0)
(2.12037 -0.202992 0)
(2.12024 -0.203683 0)
(2.12084 -0.204766 0)
(2.12172 -0.205438 0)
(2.12238 -0.206582 0)
(2.12287 -0.207359 0)
(2.12383 -0.208456 0)
(2.1243 -0.209487 0)
(2.12488 -0.211097 0)
(2.12504 -0.212109 0)
(2.12527 -0.212645 0)
(2.12577 -0.21413 0)
(2.12561 -0.215939 0)
(2.12522 -0.216708 0)
(2.12503 -0.217862 0)
(2.12496 -0.219553 0)
(2.12457 -0.220416 0)
(2.12445 -0.221518 0)
(2.12478 -0.222614 0)
(2.12535 -0.223764 0)
(2.12531 -0.224452 0)
(2.12554 -0.225358 0)
(2.12599 -0.226415 0)
(2.12626 -0.22803 0)
(2.12615 -0.228578 0)
(2.12624 -0.229615 0)
(2.12639 -0.231116 0)
(2.12607 -0.232088 0)
(2.12582 -0.232923 0)
(2.12651 -0.234519 0)
(2.12675 -0.235685 0)
(2.1273 -0.236874 0)
(2.12822 -0.238797 0)
(2.12886 -0.239895 0)
(2.12941 -0.240941 0)
(2.12911 -0.240808 0)
(2.12798 -0.239685 0)
(2.12573 -0.239484 0)
(2.12169 -0.238082 0)
(2.11423 -0.228839 0)
(2.10212 -0.215016 0)
(2.08279 -0.201297 0)
(2.05329 -0.161336 0)
(2.03354 -0.129045 0)
(2.02009 -0.129931 0)
(2.01266 -0.122621 0)
(2.00671 -0.110696 0)
(2.00568 -0.103567 0)
(2.00467 -0.103684 0)
(2.00516 -0.103553 0)
(2.00671 -0.102552 0)
(2.00762 -0.102864 0)
(2.00822 -0.103343 0)
(2.00787 -0.101836 0)
(2.00781 -0.0990823 0)
(2.00834 -0.0975319 0)
(2.00863 -0.0979551 0)
(2.00932 -0.0978597 0)
(2.00974 -0.0957606 0)
(2.01048 -0.0938437 0)
(2.0108 -0.0935237 0)
(2.01088 -0.0938459 0)
(2.01086 -0.0929058 0)
(2.01106 -0.0907186 0)
(2.01153 -0.0894899 0)
(2.01156 -0.0899595 0)
(2.01182 -0.0901608 0)
(2.01185 -0.0882244 0)
(2.01239 -0.0859649 0)
(2.01271 -0.0854909 0)
(2.01297 -0.0858233 0)
(2.01303 -0.0845237 0)
(2.01332 -0.0822802 0)
(2.01373 -0.08132 0)
(2.01401 -0.0815765 0)
(2.01428 -0.0809498 0)
(2.01438 -0.0789829 0)
(2.01469 -0.0775954 0)
(2.01481 -0.0774741 0)
(2.01506 -0.0773432 0)
(2.01534 -0.0762554 0)
(2.01558 -0.0747839 0)
(2.01575 -0.0737293 0)
(2.01593 -0.0732834 0)
(2.01624 -0.0730089 0)
(2.01643 -0.0722052 0)
(2.01655 -0.0711103 0)
(2.01672 -0.0704297 0)
(2.01708 -0.0702459 0)
(2.01749 -0.0694911 0)
(2.01777 -0.0679756 0)
(2.01809 -0.0668932 0)
(2.01835 -0.0665325 0)
(2.01864 -0.0662864 0)
(2.01884 -0.0655451 0)
(2.01899 -0.0644607 0)
(2.01924 -0.0638336 0)
(2.01945 -0.0629651 0)
(2.01971 -0.0622713 0)
(2.01985 -0.0613463 0)
(2.01999 -0.0607071 0)
(2.0201 -0.0606972 0)
(2.0202 -0.0602665 0)
(2.02043 -0.0597847 0)
(2.02069 -0.0589827 0)
(2.02116 -0.0575282 0)
(2.10769 -0.159162 0)
(2.10854 -0.161209 0)
(2.10924 -0.161894 0)
(2.11039 -0.163184 0)
(2.11124 -0.165486 0)
(2.11143 -0.166784 0)
(2.11169 -0.167294 0)
(2.11197 -0.169388 0)
(2.11201 -0.171616 0)
(2.11214 -0.172304 0)
(2.11253 -0.173366 0)
(2.1137 -0.175142 0)
(2.11433 -0.176383 0)
(2.11496 -0.177088 0)
(2.116 -0.178523 0)
(2.11701 -0.180203 0)
(2.11764 -0.180959 0)
(2.11852 -0.181885 0)
(2.11965 -0.183586 0)
(2.12009 -0.184819 0)
(2.12053 -0.185515 0)
(2.12099 -0.186917 0)
(2.12096 -0.188519 0)
(2.12067 -0.189948 0)
(2.12009 -0.191184 0)
(2.11903 -0.192702 0)
(2.11901 -0.194712 0)
(2.11908 -0.195539 0)
(2.1195 -0.196294 0)
(2.12072 -0.197452 0)
(2.12157 -0.198616 0)
(2.12196 -0.199767 0)
(2.12257 -0.200733 0)
(2.12336 -0.201782 0)
(2.1239 -0.203127 0)
(2.12406 -0.204711 0)
(2.1242 -0.205047 0)
(2.12454 -0.206172 0)
(2.12453 -0.208134 0)
(2.12403 -0.209208 0)
(2.12378 -0.210179 0)
(2.12358 -0.211251 0)
(2.12333 -0.212273 0)
(2.12344 -0.213509 0)
(2.12393 -0.214695 0)
(2.1242 -0.21568 0)
(2.12425 -0.216243 0)
(2.12453 -0.217185 0)
(2.12499 -0.218417 0)
(2.12519 -0.21992 0)
(2.12508 -0.220576 0)
(2.12498 -0.221579 0)
(2.12503 -0.222948 0)
(2.12517 -0.224293 0)
(2.12485 -0.225004 0)
(2.12508 -0.22609 0)
(2.12559 -0.227501 0)
(2.12559 -0.228345 0)
(2.12611 -0.229636 0)
(2.12738 -0.232052 0)
(2.12796 -0.233454 0)
(2.12899 -0.235243 0)
(2.12891 -0.237814 0)
(2.12881 -0.238785 0)
(2.12727 -0.237754 0)
(2.12484 -0.235392 0)
(2.12102 -0.231007 0)
(2.11359 -0.225135 0)
(2.09674 -0.20804 0)
(2.07503 -0.17573 0)
(2.05631 -0.163503 0)
(2.03583 -0.144373 0)
(2.01796 -0.112023 0)
(2.01235 -0.100335 0)
(2.00552 -0.10503 0)
(2.00693 -0.108581 0)
(2.00894 -0.105798 0)
(2.00999 -0.103298 0)
(2.01041 -0.103026 0)
(2.01007 -0.10151 0)
(2.01042 -0.0992416 0)
(2.01101 -0.0984087 0)
(2.01132 -0.0992826 0)
(2.01192 -0.0992381 0)
(2.01188 -0.0969983 0)
(2.01232 -0.0945908 0)
(2.01276 -0.0935217 0)
(2.01297 -0.0936116 0)
(2.01318 -0.0930595 0)
(2.0134 -0.0909529 0)
(2.01404 -0.0892558 0)
(2.01412 -0.0893876 0)
(2.01423 -0.0898551 0)
(2.01418 -0.0883127 0)
(2.01465 -0.0859525 0)
(2.01509 -0.0852568 0)
(2.01537 -0.0855821 0)
(2.01545 -0.0843924 0)
(2.01571 -0.0821121 0)
(2.01611 -0.0810752 0)
(2.01635 -0.0813606 0)
(2.01655 -0.0807802 0)
(2.01657 -0.0787077 0)
(2.01691 -0.0771559 0)
(2.01705 -0.0771017 0)
(2.01731 -0.0771711 0)
(2.01743 -0.0759707 0)
(2.01757 -0.0742475 0)
(2.01775 -0.0732479 0)
(2.01795 -0.0730147 0)
(2.01828 -0.072649 0)
(2.01845 -0.0715541 0)
(2.01857 -0.0703408 0)
(2.01871 -0.0698492 0)
(2.01903 -0.0698853 0)
(2.01938 -0.0691896 0)
(2.01958 -0.0675722 0)
(2.0199 -0.0664275 0)
(2.02019 -0.0661045 0)
(2.02044 -0.0656636 0)
(2.02059 -0.0648525 0)
(2.02069 -0.063822 0)
(2.0209 -0.063362 0)
(2.02107 -0.0626123 0)
(2.02128 -0.0617649 0)
(2.02144 -0.0607865 0)
(2.0216 -0.0599409 0)
(2.02177 -0.0597903 0)
(2.02187 -0.0593278 0)
(2.02205 -0.0588137 0)
(2.02229 -0.0582549 0)
(2.02267 -0.0568997 0)
(2.10627 -0.150346 0)
(2.10744 -0.152172 0)
(2.10797 -0.153604 0)
(2.10878 -0.154138 0)
(2.10971 -0.155918 0)
(2.10993 -0.158201 0)
(2.10995 -0.159062 0)
(2.10986 -0.16001 0)
(2.11034 -0.162605 0)
(2.11069 -0.164097 0)
(2.11112 -0.164658 0)
(2.11213 -0.166142 0)
(2.11316 -0.167967 0)
(2.11379 -0.168832 0)
(2.11457 -0.169959 0)
(2.11589 -0.171502 0)
(2.11665 -0.173041 0)
(2.11732 -0.173657 0)
(2.11834 -0.174982 0)
(2.11909 -0.176867 0)
(2.11936 -0.177787 0)
(2.11962 -0.178591 0)
(2.11961 -0.180256 0)
(2.11908 -0.181884 0)
(2.1184 -0.183198 0)
(2.11755 -0.184629 0)
(2.11748 -0.185962 0)
(2.11785 -0.187088 0)
(2.11825 -0.187603 0)
(2.11919 -0.188658 0)
(2.12022 -0.189655 0)
(2.12093 -0.191106 0)
(2.12114 -0.191919 0)
(2.12188 -0.192904 0)
(2.12241 -0.193963 0)
(2.12274 -0.195708 0)
(2.12268 -0.196474 0)
(2.12276 -0.197067 0)
(2.12293 -0.198949 0)
(2.12256 -0.20077 0)
(2.12218 -0.201595 0)
(2.12209 -0.202443 0)
(2.1221 -0.203672 0)
(2.12221 -0.205017 0)
(2.12264 -0.20618 0)
(2.12301 -0.2073 0)
(2.12313 -0.207833 0)
(2.12347 -0.208835 0)
(2.12387 -0.210136 0)
(2.124 -0.211659 0)
(2.12387 -0.212295 0)
(2.12384 -0.213242 0)
(2.12374 -0.214696 0)
(2.12396 -0.215844 0)
(2.12393 -0.216812 0)
(2.12379 -0.217655 0)
(2.12416 -0.218581 0)
(2.12446 -0.219693 0)
(2.12444 -0.22032 0)
(2.12513 -0.221597 0)
(2.1257 -0.223099 0)
(2.12636 -0.224596 0)
(2.12713 -0.225988 0)
(2.12792 -0.227666 0)
(2.12761 -0.228354 0)
(2.12692 -0.227921 0)
(2.12538 -0.226623 0)
(2.12248 -0.226407 0)
(2.11755 -0.223832 0)
(2.10827 -0.212235 0)
(2.09413 -0.195524 0)
(2.07451 -0.183018 0)
(2.04787 -0.149056 0)
(2.03184 -0.12045 0)
(2.02114 -0.120922 0)
(2.01728 -0.117716 0)
(2.01391 -0.111265 0)
(2.01324 -0.103788 0)
(2.01227 -0.102632 0)
(2.01206 -0.102693 0)
(2.01295 -0.100924 0)
(2.0141 -0.0998989 0)
(2.01478 -0.10051 0)
(2.01494 -0.0998063 0)
(2.01445 -0.0972456 0)
(2.0146 -0.0952937 0)
(2.01486 -0.0943599 0)
(2.01519 -0.0938863 0)
(2.01561 -0.0933581 0)
(2.01583 -0.0915736 0)
(2.01643 -0.0893538 0)
(2.01674 -0.0889239 0)
(2.01674 -0.0894613 0)
(2.01662 -0.0883683 0)
(2.01693 -0.0859488 0)
(2.01745 -0.0850231 0)
(2.01775 -0.0853767 0)
(2.01785 -0.0843737 0)
(2.01806 -0.082072 0)
(2.01849 -0.0809393 0)
(2.01869 -0.0812222 0)
(2.01886 -0.0807123 0)
(2.01882 -0.0785881 0)
(2.01919 -0.076903 0)
(2.01936 -0.0768573 0)
(2.0196 -0.076956 0)
(2.01956 -0.0755975 0)
(2.01964 -0.0737048 0)
(2.01982 -0.072833 0)
(2.02003 -0.0727945 0)
(2.02032 -0.0722315 0)
(2.02044 -0.0708625 0)
(2.0206 -0.0696091 0)
(2.02072 -0.0693264 0)
(2.021 -0.0694518 0)
(2.02123 -0.0686167 0)
(2.02139 -0.0669647 0)
(2.0217 -0.0659162 0)
(2.02202 -0.0657242 0)
(2.02224 -0.0651226 0)
(2.02236 -0.0641291 0)
(2.02244 -0.0631097 0)
(2.02259 -0.06274 0)
(2.02271 -0.0620927 0)
(2.02286 -0.0611995 0)
(2.02303 -0.060285 0)
(2.02324 -0.0594272 0)
(2.02348 -0.0592231 0)
(2.02362 -0.0587359 0)
(2.02378 -0.0581889 0)
(2.02399 -0.0577622 0)
(2.02426 -0.0564452 0)
(2.10467 -0.141491 0)
(2.1062 -0.143193 0)
(2.10693 -0.14543 0)
(2.10742 -0.146244 0)
(2.1081 -0.147154 0)
(2.10854 -0.149649 0)
(2.10839 -0.151526 0)
(2.10827 -0.152193 0)
(2.10851 -0.153802 0)
(2.10937 -0.155963 0)
(2.10993 -0.156819 0)
(2.11056 -0.157589 0)
(2.11183 -0.159255 0)
(2.11258 -0.160773 0)
(2.11326 -0.161405 0)
(2.11435 -0.162666 0)
(2.11543 -0.164225 0)
(2.11603 -0.165332 0)
(2.11674 -0.166028 0)
(2.11757 -0.167592 0)
(2.1179 -0.169268 0)
(2.11796 -0.169974 0)
(2.11783 -0.171123 0)
(2.11728 -0.173242 0)
(2.11649 -0.174783 0)
(2.11586 -0.176095 0)
(2.11608 -0.177505 0)
(2.11669 -0.178478 0)
(2.11709 -0.179539 0)
(2.11778 -0.180253 0)
(2.11911 -0.181638 0)
(2.11986 -0.182934 0)
(2.12033 -0.184457 0)
(2.12056 -0.185098 0)
(2.1213 -0.18617 0)
(2.12168 -0.187738 0)
(2.12153 -0.189093 0)
(2.12152 -0.189626 0)
(2.1215 -0.190894 0)
(2.12136 -0.192912 0)
(2.121 -0.193952 0)
(2.12094 -0.194622 0)
(2.12108 -0.195674 0)
(2.12113 -0.196942 0)
(2.12139 -0.197971 0)
(2.1219 -0.199286 0)
(2.12204 -0.199814 0)
(2.12242 -0.200731 0)
(2.12266 -0.201945 0)
(2.12288 -0.203539 0)
(2.12269 -0.204267 0)
(2.1227 -0.205093 0)
(2.12263 -0.20651 0)
(2.12277 -0.207687 0)
(2.12304 -0.208857 0)
(2.12287 -0.209558 0)
(2.12308 -0.210596 0)
(2.12355 -0.211673 0)
(2.12358 -0.212565 0)
(2.12382 -0.213472 0)
(2.12431 -0.214921 0)
(2.12431 -0.215612 0)
(2.12502 -0.217183 0)
(2.12601 -0.219636 0)
(2.1266 -0.221519 0)
(2.12706 -0.224103 0)
(2.12725 -0.225794 0)
(2.12645 -0.22548 0)
(2.12457 -0.224172 0)
(2.12135 -0.221312 0)
(2.11629 -0.214659 0)
(2.10677 -0.20766 0)
(2.08784 -0.190838 0)
(2.06497 -0.155828 0)
(2.04833 -0.143185 0)
(2.03561 -0.13392 0)
(2.02133 -0.113762 0)
(2.01855 -0.101005 0)
(2.01352 -0.101886 0)
(2.0132 -0.105745 0)
(2.0153 -0.104522 0)
(2.01681 -0.10176 0)
(2.01781 -0.101523 0)
(2.01757 -0.100026 0)
(2.01718 -0.0970029 0)
(2.01735 -0.0958456 0)
(2.01751 -0.0959212 0)
(2.01779 -0.0950546 0)
(2.01812 -0.094131 0)
(2.01834 -0.0927875 0)
(2.01857 -0.0901384 0)
(2.01913 -0.0885897 0)
(2.01926 -0.0888199 0)
(2.0192 -0.0881931 0)
(2.0193 -0.0857974 0)
(2.01984 -0.0845491 0)
(2.0201 -0.084894 0)
(2.0202 -0.0841653 0)
(2.02033 -0.0818731 0)
(2.02079 -0.0806081 0)
(2.02096 -0.0808887 0)
(2.02113 -0.0805115 0)
(2.02109 -0.0784397 0)
(2.02148 -0.0767267 0)
(2.02168 -0.0766427 0)
(2.0219 -0.0766697 0)
(2.02175 -0.0751931 0)
(2.02178 -0.0732287 0)
(2.02194 -0.0724582 0)
(2.02214 -0.0725645 0)
(2.02236 -0.0719411 0)
(2.02243 -0.0703829 0)
(2.02262 -0.0690338 0)
(2.02273 -0.0688129 0)
(2.02297 -0.0690093 0)
(2.02313 -0.0681786 0)
(2.02325 -0.0665191 0)
(2.02353 -0.0654536 0)
(2.02385 -0.0652826 0)
(2.02402 -0.0644879 0)
(2.02413 -0.0633195 0)
(2.02421 -0.0623426 0)
(2.02431 -0.0620431 0)
(2.02439 -0.0615441 0)
(2.02447 -0.0605708 0)
(2.02465 -0.0597193 0)
(2.02485 -0.0588646 0)
(2.0251 -0.0584038 0)
(2.02528 -0.0578126 0)
(2.02543 -0.0570948 0)
(2.02563 -0.0567363 0)
(2.02584 -0.0555834 0)
(2.1035 -0.133301 0)
(2.10461 -0.134221 0)
(2.10574 -0.136379 0)
(2.10599 -0.138148 0)
(2.10633 -0.138612 0)
(2.1066 -0.140124 0)
(2.10662 -0.142853 0)
(2.10656 -0.144076 0)
(2.10661 -0.144876 0)
(2.10765 -0.146723 0)
(2.10848 -0.148431 0)
(2.10916 -0.149104 0)
(2.11007 -0.150375 0)
(2.11132 -0.152171 0)
(2.11196 -0.153294 0)
(2.11277 -0.154066 0)
(2.11411 -0.155646 0)
(2.11478 -0.157164 0)
(2.11537 -0.158096 0)
(2.11605 -0.159181 0)
(2.11652 -0.160939 0)
(2.11657 -0.162564 0)
(2.11624 -0.163262 0)
(2.11552 -0.164832 0)
(2.11486 -0.166996 0)
(2.11447 -0.168017 0)
(2.11453 -0.169025 0)
(2.11534 -0.16995 0)
(2.116 -0.171182 0)
(2.11653 -0.171866 0)
(2.11755 -0.172931 0)
(2.11859 -0.174179 0)
(2.11916 -0.175818 0)
(2.11926 -0.176544 0)
(2.11969 -0.177339 0)
(2.12016 -0.178712 0)
(2.12013 -0.180399 0)
(2.11997 -0.181246 0)
(2.11981 -0.182097 0)
(2.11974 -0.183899 0)
(2.11968 -0.18546 0)
(2.11955 -0.186075 0)
(2.11974 -0.186954 0)
(2.1199 -0.188313 0)
(2.12012 -0.189517 0)
(2.12066 -0.190909 0)
(2.12081 -0.191596 0)
(2.12116 -0.192339 0)
(2.12149 -0.193688 0)
(2.12176 -0.195425 0)
(2.12153 -0.196333 0)
(2.12153 -0.197021 0)
(2.12156 -0.198271 0)
(2.12164 -0.19951 0)
(2.12204 -0.200704 0)
(2.12196 -0.201411 0)
(2.12208 -0.202336 0)
(2.12239 -0.203236 0)
(2.12264 -0.204395 0)
(2.12258 -0.204922 0)
(2.12291 -0.205837 0)
(2.12304 -0.207168 0)
(2.1229 -0.207772 0)
(2.12326 -0.209102 0)
(2.12421 -0.211465 0)
(2.12481 -0.212911 0)
(2.12553 -0.214014 0)
(2.12621 -0.215648 0)
(2.12597 -0.215703 0)
(2.12464 -0.214557 0)
(2.12234 -0.212937 0)
(2.11839 -0.211877 0)
(2.11209 -0.208152 0)
(2.09972 -0.194076 0)
(2.08352 -0.172465 0)
(2.06541 -0.162423 0)
(2.04389 -0.139674 0)
(2.03141 -0.114204 0)
(2.02428 -0.111983 0)
(2.02257 -0.112311 0)
(2.02119 -0.108531 0)
(2.02086 -0.103374 0)
(2.02047 -0.102227 0)
(2.0198 -0.101374 0)
(2.01975 -0.0982926 0)
(2.02042 -0.0969198 0)
(2.02095 -0.0974805 0)
(2.02104 -0.0960852 0)
(2.02111 -0.0941411 0)
(2.02113 -0.0934671 0)
(2.02101 -0.0916046 0)
(2.02144 -0.0892589 0)
(2.02184 -0.0888127 0)
(2.02197 -0.0883885 0)
(2.02183 -0.0860275 0)
(2.02231 -0.0842769 0)
(2.02251 -0.0844662 0)
(2.02259 -0.0840541 0)
(2.02256 -0.0817432 0)
(2.02303 -0.0801887 0)
(2.02317 -0.0804394 0)
(2.02334 -0.0802642 0)
(2.02331 -0.0782536 0)
(2.02373 -0.076507 0)
(2.02397 -0.0764026 0)
(2.02417 -0.0763172 0)
(2.02392 -0.0746851 0)
(2.02395 -0.0727248 0)
(2.02407 -0.0721243 0)
(2.02425 -0.0723493 0)
(2.02437 -0.0715802 0)
(2.02439 -0.0698481 0)
(2.02461 -0.068513 0)
(2.02475 -0.0683618 0)
(2.02497 -0.0684833 0)
(2.02502 -0.0674645 0)
(2.02514 -0.0658308 0)
(2.0254 -0.0649058 0)
(2.02569 -0.0648188 0)
(2.02582 -0.0639971 0)
(2.0259 -0.0626822 0)
(2.02602 -0.061688 0)
(2.02608 -0.0613876 0)
(2.0261 -0.0609543 0)
(2.02612 -0.0599949 0)
(2.02628 -0.0591994 0)
(2.02647 -0.0584322 0)
(2.02673 -0.0579093 0)
(2.02696 -0.057286 0)
(2.02716 -0.0565135 0)
(2.02738 -0.0561724 0)
(2.02753 -0.0550474 0)
(2.10227 -0.125134 0)
(2.10313 -0.125739 0)
(2.10422 -0.127223 0)
(2.10474 -0.129778 0)
(2.10476 -0.131086 0)
(2.10475 -0.131719 0)
(2.1049 -0.134129 0)
(2.10504 -0.136379 0)
(2.10531 -0.13705 0)
(2.10588 -0.138186 0)
(2.10716 -0.140025 0)
(2.10784 -0.141323 0)
(2.10856 -0.142034 0)
(2.10977 -0.143485 0)
(2.11074 -0.145231 0)
(2.11142 -0.145879 0)