/*--------------------------------*- C++ -*----------------------------------*\
  =========                 |
  \\      /  F ield         | OpenFOAM: The Open Source CFD Toolbox
   \\    /   O peration     | Website:  https://openfoam.org
    \\  /    A nd           | Version:  7
     \\/     M anipulation  |
\*---------------------------------------------------------------------------*/
FoamFile
{
    version     2.0;
    format      ascii;
    class       volScalarField;
    location    "1.5";
    object      p;
}
// * * * * * * * * * * * * * * * * * * * * * * * * * * * * * * * * * * * * * //

dimensions      [1 -1 -2 0 0 0 0];

internalField   nonuniform List<scalar> 
2413
(
0.882265
0.883025
0.883918
0.8843
0.884424
0.885004
0.887145
0.89087
0.889722
0.890214
0.891073
0.891807
0.892317
0.892669
0.89273
0.893535
0.896997
0.897318
0.897929
0.898835
0.899521
0.900009
0.900608
0.901067
0.904687
0.904926
0.905202
0.905887
0.906645
0.907127
0.907712
0.908428
0.912317
0.912598
0.912722
0.913085
0.913773
0.914304
0.914753
0.915352
0.919895
0.920164
0.920336
0.920474
0.920988
0.921579
0.921947
0.922426
0.927749
0.927858
0.927995
0.927998
0.92821
0.928743
0.92918
0.929524
0.935542
0.935571
0.935685
0.935776
0.935777
0.936082
0.936551
0.936878
0.943456
0.943389
0.943389
0.943448
0.943428
0.943533
0.943917
0.944263
0.951445
0.951332
0.951279
0.951288
0.951297
0.951242
0.951447
0.951782
0.959514
0.959328
0.95921
0.959165
0.959156
0.959086
0.959169
0.959436
0.967686
0.967449
0.967276
0.967172
0.96712
0.967043
0.967039
0.967223
0.975838
0.975559
0.975345
0.975202
0.975116
0.97503
0.974995
0.975112
0.98378
0.983488
0.983255
0.983089
0.982977
0.98288
0.982843
0.982917
0.990969
0.990709
0.990496
0.99034
0.990229
0.99014
0.99012
0.990166
0.996415
0.996244
0.996102
0.995994
0.995915
0.995863
0.99586
0.995884
0.999217
0.999154
0.999101
0.999059
0.999028
0.999014
0.999015
0.999023
0.999935
0.999926
0.999919
0.999912
0.999908
0.999907
0.999907
0.999908
0.999999
0.999998
0.999998
0.999998
0.999998
0.999998
0.999998
0.999998
1.74191
1.73091
1.71149
1.69434
1.68412
1.66693
1.64754
1.63739
1.62248
1.60369
1.59459
1.58265
1.5651
1.55632
1.54661
1.53063
1.52208
1.5136
1.49872
1.49091
1.48357
1.46895
1.46086
1.45447
1.44003
1.4301
1.42302
1.40825
1.39576
1.38807
1.37418
1.36022
1.35281
1.34131
1.3266
1.31933
1.31068
1.29661
1.28867
1.28203
1.27046
1.26025
1.25371
1.24517
1.23573
1.22683
1.21737
1.21077
1.20433
1.19347
1.18298
1.1777
1.17029
1.15888
1.1533
1.14963
1.14134
0.908041
0.992347
1.24039
1.74881
2.27389
2.80698
2.99866
3.10042
3.14877
3.15742
3.13883
3.10863
3.07522
3.04209
3.00374
2.96738
2.93536
2.89746
2.86685
2.8417
2.80805
2.77758
2.74972
2.71717
2.68942
2.65915
2.62699
2.60285
2.57545
2.54391
2.51932
2.49113
2.45792
2.4334
2.40611
2.37283
2.35088
2.32813
2.29993
2.27956
2.25752
2.22882
2.20594
2.18264
2.15228
2.13014
2.11024
2.0843
2.06649
2.05028
2.02555
2.00584
1.98857
1.96227
1.94121
1.92627
1.90297
1.88374
1.87084
1.84955
1.82963
1.81759
1.7986
1.77805
1.76727
1.75143
1.73083
1.71937
1.70482
1.68367
1.67213
1.65993
1.64043
1.62919
1.61986
1.60261
1.59139
1.58337
1.56755
1.55666
1.54999
1.53569
1.52462
1.5188
1.50548
1.49399
1.48801
1.47465
1.46133
1.45419
1.44069
1.42496
1.41715
1.40484
1.389
1.3815
1.37145
1.35582
1.34809
1.34008
1.32556
1.31718
1.31103
1.29834
1.28808
1.28257
1.27287
1.26082
1.25502
1.24729
1.235
1.22826
1.22218
1.21068
1.20087
1.19579
1.1876
1.17763
1.17389
1.16952
0.89564
0.898522
0.910135
0.974528
1.17283
1.60897
2.12324
2.63362
2.93572
3.02135
3.08982
3.11192
3.10541
3.0776
3.04475
3.01139
2.97922
2.94297
2.90778
2.87586
2.83854
2.8092
2.78499
2.75415
2.72606
2.69981
2.66765
2.64037
2.61524
2.58261
2.5546
2.52895
2.49488
2.46703
2.44504
2.4146
2.38873
2.36867
2.34116
2.31606
2.29569
2.26817
2.24098
2.2196
2.19228
2.16714
2.15047
2.12757
2.10469
2.08926
2.06716
2.04224
2.02526
2.00218
1.97721
1.96334
1.94451
1.92113
1.90778
1.89103
1.8675
1.85352
1.83817
1.81594
1.8029
1.7898
1.76821
1.75394
1.74205
1.72174
1.70636
1.69641
1.67868
1.66443
1.65652
1.64112
1.62652
1.61948
1.60629
1.59147
1.58491
1.57338
1.559
1.55286
1.54241
1.52709
1.52002
1.50962
1.49274
1.48361
1.4727
1.4548
1.44513
1.43584
1.41928
1.40932
1.40159
1.38657
1.37573
1.36927
1.3563
1.34436
1.33901
1.32883
1.31508
1.30927
1.30187
1.28811
1.28013
1.27498
1.26416
1.25214
1.24705
1.23952
1.22692
1.21998
1.2151
1.20559
1.19755
1.19476
0.901051
0.90155
0.903454
0.905891
0.914127
0.958033
1.11303
1.45804
1.96075
2.42363
2.84371
2.94668
3.03242
3.05953
3.0623
3.04447
3.01597
2.98585
2.95341
2.92104
2.88421
2.84874
2.81755
2.7852
2.76063
2.7365
2.70521
2.67566
2.65206
2.62262
2.59067
2.56524
2.53479
2.50357
2.48244
2.45627
2.42669
2.40622
2.38173
2.35317
2.33178
2.30706
2.2773
2.25618
2.23371
2.20678
2.18903
2.16973
2.14429
2.12632
2.10696
2.07959
2.06045
2.04202
2.0161
1.99916
1.98471
1.96149
1.94422
1.92995
1.90665
1.88881
1.87637
1.85571
1.83709
1.82612
1.80828
1.78872
1.77748
1.7604
1.74187
1.73247
1.71834
1.70028
1.69163
1.68064
1.66357
1.65441
1.64433
1.62771
1.61912
1.61068
1.59462
1.5854
1.57796
1.56213
1.55078
1.54239
1.52557
1.51159
1.50295
1.48722
1.47248
1.46513
1.45196
1.43735
1.43039
1.41913
1.40374
1.3968
1.38781
1.37305
1.36543
1.35832
1.34463
1.33492
1.32909
1.31791
1.30592
1.30053
1.29244
1.27941
1.272
1.26588
1.25464
1.24482
1.2411
1.23444
1.22364
1.21863
0.908935
0.909231
0.909148
0.909567
0.911085
0.913172
0.919067
0.946518
1.05795
1.31585
1.78144
2.231
2.68055
2.86381
2.95281
3.01244
3.02309
3.01102
2.98349
2.95821
2.93192
2.89982
2.86796
2.83265
2.79622
2.76596
2.73868
2.71269
2.6855
2.65509
2.62742
2.6038
2.57485
2.54224
2.52023
2.4967
2.46581
2.44274
2.42032
2.39034
2.36649
2.34498
2.3164
2.29317
2.27373
2.24765
2.22685
2.20958
2.18445
2.16239
2.14455
2.1185
2.09579
2.08021
2.05668
2.03625
2.02331
2.00241
1.98023
1.96679
1.94727
1.92442
1.91189
1.89521
1.87395
1.86185
1.84661
1.82483
1.81264
1.79965
1.77957
1.76687
1.75687
1.73933
1.72702
1.71832
1.70146
1.68916
1.68169
1.6664
1.65246
1.64569
1.63221
1.61806
1.61115
1.59799
1.58126
1.57255
1.55929
1.54067
1.53126
1.51949
1.50222
1.49363
1.48397
1.46755
1.45819
1.44962
1.43427
1.42428
1.41698
1.40333
1.39255
1.38603
1.37428
1.36206
1.35574
1.34618
1.33344
1.32682
1.31935
1.30669
1.29814
1.2922
1.28236
1.27124
1.26675
1.26157
1.25155
1.24301
0.915935
0.916467
0.916962
0.917212
0.91719
0.917598
0.918795
0.920776
0.924834
0.940947
1.01263
1.20378
1.58347
2.02869
2.47404
2.77003
2.86553
2.95346
2.97876
2.9758
2.95308
2.92776
2.90683
2.88292
2.85051
2.81581
2.77968
2.74377
2.71721
2.69343
2.66318
2.63303
2.61122
2.58593
2.55727
2.53389
2.50714
2.47927
2.45747
2.43016
2.40223
2.38178
2.35602
2.33093
2.31281
2.28862
2.26478
2.24746
2.22361
2.19895
2.18129
2.15727
2.1326
2.11794
2.09779
2.07446
2.06022
2.04206
2.01772
2.0026
1.98535
1.96161
1.94801
1.93369
1.91154
1.8968
1.88417
1.86391
1.84765
1.83675
1.81829
1.80321
1.79469
1.77857
1.76244
1.75492
1.74197
1.72469
1.71615
1.70465
1.68788
1.67971
1.66914
1.65151
1.64221
1.63211
1.61383
1.60164
1.59047
1.57153
1.55979
1.55062
1.534
1.5224
1.51415
1.49869
1.48669
1.47888
1.46449
1.45255
1.44565
1.43295
1.42071
1.41397
1.40253
1.38969
1.3832
1.37389
1.36082
1.35391
1.34642
1.33372
1.32516
1.31885
1.30914
1.29895
1.29306
1.28716
1.27928
1.26962
0.923027
0.923476
0.923977
0.924456
0.924988
0.925212
0.925263
0.925524
0.926352
0.928319
0.931154
0.940214
0.981619
1.11606
1.40061
1.82056
2.23442
2.63292
2.76377
2.88031
2.93231
2.93558
2.9185
2.8955
2.88113
2.86424
2.83594
2.80141
2.76337
2.72783
2.69924
2.67251
2.6457
2.61675
2.59249
2.57307
2.54657
2.51623
2.49519
2.47082
2.44096
2.42003
2.39713
2.37006
2.3509
2.32834
2.30254
2.28442
2.26165
2.23551
2.21798
2.19556
2.17094
2.15614
2.13674
2.11348
2.09794
2.07958
2.05517
2.03855
2.02285
2.00084
1.9844
1.97056
1.95032
1.93429
1.92143
1.90143
1.88397
1.87377
1.85875
1.8403
1.82996
1.81806
1.80109
1.79086
1.77949
1.76107
1.751
1.74175
1.72377
1.71197
1.70396
1.68746
1.67333
1.66377
1.64601
1.63039
1.62085
1.60412
1.58884
1.58077
1.56616
1.55191
1.54405
1.52995
1.51489
1.50753
1.49492
1.4807
1.474
1.46277
1.44854
1.44173
1.43157
1.41726
1.41047
1.40191
1.38834
1.38112
1.37378
1.36053
1.35232
1.3462
1.335
1.3265
1.32121
1.31244
1.30416
1.29782
0.929958
0.930427
0.930936
0.931409
0.931952
0.932504
0.933003
0.933333
0.933477
0.933569
0.934184
0.935931
0.938016
0.943471
0.965711
1.04989
1.24399
1.60575
1.9979
2.42891
2.64179
2.78153
2.88298
2.8938
2.88286
2.86245
2.85086
2.84203
2.8206
2.78763
2.75167
2.71509
2.68397
2.65938
2.62978
2.60244
2.58201
2.55517
2.53001
2.50845
2.48105
2.45856
2.43715
2.40974
2.38925
2.36775
2.34032
2.32102
2.2992
2.2723
2.25505
2.23375
2.20934
2.19454
2.17428
2.15176
2.13625
2.11463
2.09316
2.07787
2.05782
2.03788
2.02436
2.00831
1.98906
1.97119
1.95658
1.94233
1.92541
1.90715
1.89395
1.8821
1.86872
1.85411
1.838
1.82735
1.81689
1.80009
1.78432
1.77514
1.76026
1.74543
1.73716
1.72215
1.70394
1.69414
1.67943
1.65945
1.64963
1.63653
1.61915
1.61067
1.59905
1.58131
1.57225
1.56119
1.54404
1.53536
1.52568
1.50963
1.50133
1.49275
1.4773
1.46847
1.4604
1.44571
1.43711
1.43022
1.41678
1.40759
1.40127
1.3886
1.37843
1.37329
1.36292
1.35221
1.34786
1.34038
1.32847
1.32255
0.937187
0.937556
0.937956
0.93842
0.938867
0.939377
0.939913
0.940477
0.940993
0.941348
0.941662
0.941797
0.942315
0.94359
0.945613
0.949073
0.9599
1.0058
1.13175
1.40052
1.76445
2.16888
2.49233
2.65818
2.81215
2.84243
2.84164
2.83096
2.82176
2.81861
2.80141
2.77413
2.73942
2.70664
2.67483
2.64512
2.61948
2.58829
2.5624
2.54404
2.51823
2.4934
2.47491
2.44977
2.42537
2.40596
2.37978
2.35762
2.33729
2.31024
2.29207
2.27238
2.24769
2.23221
2.21212
2.1884
2.17315
2.15212
2.12958
2.11554
2.09518
2.07697
2.06357
2.04335
2.02626
2.0132
1.99411
1.97716
1.9641
1.9464
1.93359
1.92059
1.90239
1.8906
1.8805
1.86489
1.84865
1.83613
1.82271
1.80983
1.7948
1.77704
1.76732
1.75616
1.73731
1.72358
1.71072
1.69015
1.67794
1.66861
1.6512
1.63895
1.63008
1.61328
1.59995
1.59099
1.5747
1.56209
1.55492
1.54089
1.52836
1.52129
1.50783
1.49493
1.48828
1.4762
1.46337
1.45738
1.4469
1.43371
1.42754
1.41829
1.40471
1.39875
1.39189
1.37952
1.37252
1.36727
1.35625
1.34576
0.944536
0.944852
0.945209
0.9456
0.94602
0.946478
0.946981
0.947502
0.948075
0.948652
0.949196
0.949635
0.949962
0.95019
0.95044
0.951232
0.953261
0.955688
0.961337
0.983178
1.05823
1.23205
1.5346
1.89577
2.28667
2.50006
2.69961
2.78913
2.79119
2.79315
2.78999
2.79337
2.78106
2.75642
2.72739
2.69733
2.66958
2.63906
2.60388
2.57816
2.55505
2.52845
2.50724
2.48584
2.46085
2.44063
2.41829
2.39411
2.37476
2.35044
2.32997
2.31144
2.2865
2.26928
2.25017
2.22573
2.20992
2.18915
2.16672
2.1538
2.13492
2.11362
2.10084
2.08334
2.06391
2.05096
2.03146
2.01471
2.00398
1.98593
1.96861
1.9588
1.94373
1.92687
1.91625
1.89976
1.88457
1.87417
1.85782
1.83922
1.82911
1.81546
1.79777
1.78509
1.76864
1.75288
1.74176
1.72481
1.70606
1.69748
1.68417
1.66789
1.65913
1.64575
1.62774
1.61886
1.60692
1.59054
1.58267
1.57219
1.55657
1.5486
1.5385
1.52283
1.51489
1.50585
1.49152
1.48388
1.47583
1.4619
1.45338
1.44608
1.43321
1.42429
1.41864
1.40808
1.39772
1.39223
1.38352
1.37094
0.952029
0.952274
0.952585
0.952925
0.953301
0.953702
0.954143
0.954627
0.955148
0.95572
0.956322
0.956958
0.957554
0.958132
0.958501
0.958792
0.959029
0.959678
0.961112
0.963307
0.96677
0.97641
1.01444
1.1148
1.33125
1.64204
2.01845
2.29744
2.57409
2.68706
2.71796
2.75087
2.77089
2.77136
2.75209
2.72733
2.71097
2.6933
2.66564
2.63305
2.60012
2.5713
2.54604
2.51988
2.49608
2.47558
2.45115
2.42832
2.41141
2.38768
2.36598
2.3497
2.32551
2.30639
2.28836
2.26309
2.24689
2.22898
2.20521
2.1911
2.1732
2.15338
2.14011
2.12063
2.10049
2.08898
2.07264
2.05232
2.04003
2.02546
2.00795
1.99642
1.98081
1.96232
1.95186
1.93875
1.91898
1.90538
1.89249
1.87408
1.86149
1.84865
1.82817
1.81502
1.80295
1.78277
1.7679
1.75672
1.73897
1.7268
1.71619
1.69793
1.68587
1.67621
1.65895
1.6465
1.63718
1.62081
1.6101
1.60202
1.58675
1.57583
1.56737
1.55223
1.54213
1.53439
1.5204
1.51073
1.50334
1.48998
1.48018
1.47326
1.46097
1.45117
1.44527
1.43512
1.42415
1.41777
1.40914
1.39641
0.95967
0.959883
0.960142
0.960447
0.960784
0.961157
0.961561
0.961999
0.962469
0.96298
0.963524
0.964118
0.964751
0.96541
0.966089
0.966703
0.967221
0.967639
0.967954
0.968415
0.969382
0.971565
0.974029
0.978775
0.995315
1.0472
1.17988
1.40946
1.74681
2.05789
2.38216
2.535
2.6334
2.72341
2.73957
2.72852
2.71134
2.70218
2.6977
2.68293
2.65778
2.62754
2.5983
2.57004
2.54021
2.51354
2.49001
2.46332
2.44364
2.42387
2.40022
2.38393
2.36247
2.34154
2.32566
2.30194
2.28392
2.26826
2.24474
2.22983
2.21384
2.19146
2.17759
2.16034
2.14082
2.12726
2.10846
2.09078
2.07974
2.06435
2.04485
2.03152
2.01901
2.00288
1.98517
1.96959
1.95453
1.94069
1.9264
1.90689
1.89078
1.87971
1.8634
1.84439
1.83207
1.81456
1.79694
1.78738
1.77227
1.75421
1.74515
1.73121
1.71426
1.70458
1.68976
1.67426
1.66635
1.65301
1.63831
1.63048
1.61695
1.60333
1.59573
1.58222
1.56934
1.56229
1.54942
1.53777
1.53088
1.51817
1.50671
1.50041
1.48891
1.4779
1.47212
1.46203
1.45001
1.44357
1.43476
1.42194
0.967428
0.967614
0.967834
0.968099
0.968402
0.96874
0.969116
0.969527
0.969975
0.970455
0.970977
0.97153
0.972131
0.972768
0.973459
0.974177
0.97492
0.975634
0.976282
0.976791
0.977206
0.977545
0.978346
0.979743
0.982161
0.985178
0.992094
1.015
1.08531
1.23332
1.49079
1.79237
2.12961
2.35155
2.52982
2.65313
2.66609
2.68218
2.68546
2.68759
2.6751
2.65637
2.63953
2.62245
2.59895
2.5696
2.54058
2.51197
2.48523
2.46292
2.43881
2.41744
2.39856
2.37669
2.35993
2.34028
2.32018
2.30608
2.28531
2.26754
2.25273
2.23103
2.21659
2.20098
2.1785
2.16499
2.1492
2.13094
2.11687
2.09872
2.08379
2.07138
2.05297
2.03509
2.02118
2.00593
1.98932
1.97035
1.95507
1.94269
1.92654
1.90777
1.8915
1.87531
1.86225
1.84781
1.82722
1.81486
1.80331
1.78552
1.77398
1.76212
1.74317
1.7325
1.72168
1.70421
1.69416
1.68351
1.66715
1.65839
1.64785
1.6314
1.62285
1.6124
1.59722
1.58951
1.57947
1.56451
1.55706
1.54749
1.53343
1.52652
1.51793
1.50458
1.49772
1.48976
1.47634
1.46863
1.46097
1.44799
0.975277
0.975437
0.975628
0.97586
0.976132
0.976441
0.976786
0.977169
0.977587
0.978043
0.978533
0.97906
0.979621
0.980222
0.980862
0.981548
0.982274
0.983047
0.983835
0.984628
0.985366
0.985984
0.986527
0.986962
0.987442
0.988379
0.9903
0.992326
0.995467
1.00438
1.03545
1.11635
1.28317
1.53232
1.83896
2.12776
2.34049
2.5363
2.57945
2.63256
2.65709
2.65332
2.64216
2.63059
2.6217
2.60906
2.59212
2.56995
2.54483
2.51853
2.49162
2.4641
2.44192
2.41814
2.39611
2.37922
2.35876
2.3402
2.32361
2.30488
2.28938
2.27119
2.25272
2.2386
2.21955
2.20309
2.18753
2.16779
2.15426
2.13922
2.1191
2.10464
2.08819
2.07102
2.05634
2.03634
2.01929
2.0064
1.98825
1.97113
1.95665
1.93763
1.92322
1.90844
1.88855
1.87527
1.86101
1.84646
1.83383
1.81528
1.8008
1.79144
1.77536
1.76078
1.75149
1.73513
1.72207
1.7137
1.6981
1.68493
1.67658
1.66144
1.6496
1.64166
1.62692
1.6151
1.60779
1.59416
1.58232
1.57548
1.56301
1.55128
1.54515
1.53414
1.52223
1.51576
1.5049
1.49279
1.48657
1.47688
0.983037
0.98317
0.983333
0.983535
0.983774
0.984051
0.984363
0.984712
0.985095
0.985514
0.985967
0.986452
0.986969
0.987517
0.988095
0.988703
0.989341
0.990009
0.990707
0.991432
0.992169
0.992894
0.993575
0.994178
0.994608
0.99497
0.995206
0.995691
0.996475
0.997625
0.998789
1.00164
1.01279
1.04952
1.13742
1.31184
1.54567
1.85123
2.10444
2.33135
2.46014
2.55598
2.59452
2.60979
2.61679
2.60813
2.59946
2.59067
2.57926
2.56463
2.54791
2.52528
2.50073
2.47505
2.44906
2.42632
2.40349
2.3816
2.36294
2.3437
2.32449
2.30777
2.29091
2.27387
2.25644
2.23889
2.22337
2.20682
2.18944
2.17248
2.15509
2.14017
2.12336
2.10246
2.08704
2.07128
2.05248
2.03678
2.01828
2.00104
1.98844
1.97052
1.95001
1.9376
1.92105
1.90502
1.89276
1.87516
1.86126
1.84868
1.83209
1.81935
1.80501
1.78897
1.78023
1.76827
1.75053
1.74097
1.72907
1.71286
1.70413
1.69269
1.67672
1.66825
1.65756
1.64256
1.63413
1.624
1.60902
1.60109
1.59271
1.57888
1.57036
1.56265
1.54924
1.53997
1.53268
1.51998
1.51074
1.50479
0.990246
0.990346
0.990477
0.99064
0.990835
0.991062
0.99132
0.991607
0.991922
0.992264
0.992632
0.993023
0.993435
0.993864
0.994309
0.994765
0.995229
0.995698
0.996167
0.996633
0.997093
0.997538
0.997961
0.998346
0.998673
0.998922
0.999099
0.999166
0.999161
0.99916
0.999316
0.99961
0.999847
1.00052
1.0037
1.01696
1.05576
1.14643
1.31214
1.54212
1.809
2.06651
2.27657
2.39572
2.52346
2.5444
2.57119
2.57668
2.57807
2.57078
2.5577
2.54878
2.53812
2.52413
2.50642
2.48526
2.46192
2.43732
2.4147
2.39167
2.3685
2.34909
2.32918
2.30964
2.29226
2.27534
2.25754
2.23852
2.22314
2.20699
2.18807
2.1715
2.15394
2.136
2.12051
2.10174
2.08182
2.06783
2.05186
2.03163
2.01602
1.99994
1.98198
1.9687
1.95256
1.93276
1.92186
1.90882
1.89038
1.87801
1.86302
1.84699
1.83653
1.82177
1.80615
1.79649
1.78155
1.76861
1.75886
1.74277
1.72995
1.72127
1.7072
1.69528
1.68602
1.67159
1.6598
1.65171
1.63916
1.62673
1.61919
1.6089
1.59626
1.58808
1.57876
1.56572
1.5574
1.54898
1.53686
1.5295
0.995928
0.99599
0.996072
0.996177
0.996302
0.996447
0.99661
0.99679
0.996984
0.99719
0.997406
0.997629
0.997856
0.998085
0.998311
0.998532
0.998743
0.998943
0.999129
0.999297
0.999448
0.999579
0.999691
0.999784
0.999856
0.999908
0.999944
0.999961
0.999959
0.999942
0.999923
0.999897
0.99992
0.999957
0.999987
1.00011
1.00083
1.0043
1.01791
1.05434
1.14217
1.28679
1.50842
1.73707
1.99939
2.186
2.34653
2.43383
2.50062
2.52722
2.54234
2.54043
2.53708
2.53181
2.52007
2.50952
2.49762
2.48362
2.46664
2.44761
2.42517
2.40192
2.37847
2.35524
2.33446
2.31401
2.29375
2.27468
2.25573
2.23767
2.21925
2.20201
2.18524
2.16516
2.14848
2.13252
2.11372
2.09733
2.08004
2.06132
2.04682
2.03157
2.01228
1.9968
1.98315
1.96614
1.95167
1.93808
1.91941
1.90685
1.89562
1.87762
1.86395
1.85262
1.83629
1.82478
1.81253
1.79555
1.78544
1.77352
1.75854
1.74884
1.73696
1.72192
1.71242
1.7025
1.68861
1.67675
1.66752
1.65673
1.64462
1.63533
1.62602
1.61386
1.60413
1.59467
1.58285
1.57468
1.56643
1.55494
0.999039
0.999062
0.999093
0.999132
0.999179
0.999231
0.999289
0.99935
0.999414
0.999479
0.999544
0.999608
0.999668
0.999725
0.999777
0.999823
0.999863
0.999897
0.999925
0.999947
0.999964
0.999977
0.999986
0.999992
0.999996
0.999998
1
1
1
1
1
0.999996
0.999993
0.99999
0.999993
0.999997
1
1.00001
1.00013
1.00081
1.00421
1.0156
1.04878
1.11936
1.24627
1.43242
1.65248
1.87899
2.08993
2.24313
2.35676
2.43593
2.46636
2.50685
2.50249
2.50354
2.49772
2.49035
2.47987
2.46739
2.45482
2.44192
2.42568
2.40631
2.3855
2.36329
2.3404
2.31798
2.29571
2.27422
2.25437
2.2343
2.21518
2.19644
2.17829
2.16083
2.14206
2.12537
2.10961
2.09201
2.07504
2.05898
2.04281
2.0285
2.01269
1.99574
1.98107
1.96746
1.95218
1.9364
1.92305
1.90783
1.89364
1.88262
1.86741
1.85112
1.84107
1.82715
1.81256
1.80237
1.78812
1.77493
1.76523
1.75298
1.73998
1.72779
1.71671
1.70698
1.69481
1.68238
1.67378
1.66318
1.65068
1.6413
1.63126
1.62141
1.61091
1.59971
1.59189
1.58402
0.999911
0.999914
0.999919
0.999924
0.999931
0.999938
0.999945
0.999952
0.99996
0.999967
0.999973
0.999979
0.999984
0.999988
0.999991
0.999994
0.999996
0.999998
0.999999
0.999999
1
1
1
1
1
1
1
1
1
1
1
1
1
1
1
1
1
1
1
1
1.00002
1.00011
1.00068
1.00318
1.01182
1.03656
1.08926
1.19129
1.33761
1.53642
1.73455
1.95258
2.10681
2.25656
2.34162
2.40457
2.43787
2.45472
2.46444
2.46244
2.45384
2.44512
2.43544
2.42251
2.40991
2.39528
2.37974
2.36194
2.34235
2.32147
2.29956
2.27681
2.25499
2.23385
2.2128
2.19325
2.17461
2.15654
2.13859
2.12095
2.1047
2.08902
2.07162
2.0558
2.04101
2.02565
2.01138
1.99558
1.97942
1.96679
1.95304
1.93762
1.92333
1.90945
1.89665
1.88248
1.86878
1.85618
1.84094
1.8296
1.81863
1.80416
1.79257
1.78059
1.76738
1.75726
1.74531
1.73236
1.72302
1.71158
1.69967
1.68996
1.6785
1.66842
1.65822
1.64611
1.63741
1.6295
1.61782
1.60764
0.999998
0.999998
0.999998
0.999998
0.999999
0.999999
0.999999
0.999999
0.999999
1
1
1
1
1
1
1
1
1
1
1
1
1
1
1
1
1
1
1
1
1
1
1
1
1
1
1
1
1
1
1
1
1
1
1.00001
)
;

boundaryField
{
    inlet
    {
        type            fixedValue;
        value           nonuniform 0();
    }
    outlet
    {
        type            zeroGradient;
    }
    bottom
    {
        type            symmetryPlane;
    }
    top
    {
        type            symmetryPlane;
    }
    obstacle
    {
        type            zeroGradient;
    }
    front
    {
        type            empty;
    }
    back
    {
        type            empty;
    }
    procBoundary29to21
    {
        type            processor;
        value           nonuniform List<scalar> 
129
(
0.875134
0.87598
0.876525
0.876679
0.87808
0.880925
0.89583
1.00435
1.70556
1.69266
1.67191
1.65882
1.64766
1.62775
1.61277
1.60255
1.58437
1.56832
1.5598
1.54478
1.52914
1.5217
1.50922
1.49431
1.48753
1.47711
1.46291
1.45645
1.44788
1.43383
1.42723
1.41999
1.40585
1.39802
1.39085
1.37631
1.36594
1.35826
1.34417
1.33145
1.32385
1.31203
1.29749
1.29018
1.28178
1.26808
1.25962
1.25332
1.24306
1.2313
1.22502
1.2185
1.20843
1.1971
1.19166
1.18675
1.177
1.16511
1.15958
1.15377
1.14252
1.13339
1.1297
1.12301
1.11337
1.32082
1.86052
2.43104
2.93953
3.06212
3.16201
3.19689
3.20157
3.17801
3.14229
3.10385
3.06653
3.0325
3.00117
2.96182
2.92487
2.89759
2.86572
2.83667
2.80751
2.77166
2.74347
2.71293
2.67881
2.65025
2.61739
2.58949
2.56479
2.53316
2.50662
2.48349
2.45183
2.42279
2.39912
2.36647
2.33419
2.31239
2.28482
2.259
2.2409
2.21658
2.19086
2.17061
2.14438
2.11473
2.09367
2.06869
2.04297
2.02806
2.00869
1.98469
1.9689
1.94914
1.92275
1.90632
1.88811
1.86274
1.84741
1.83232
1.80881
1.79298
1.77962
1.75779
1.75779
)
;
    }
    procBoundary29to22
    {
        type            processor;
        value           nonuniform List<scalar> 3(1.13343 1.16018 1.18891);
    }
    procBoundary29to30
    {
        type            processor;
        value           nonuniform List<scalar> 
16
(
1.21516
1.23944
1.26285
1.28853
1.31611
1.34036
1.36405
1.38897
1.41517
1.44101
1.46594
1.49404
1.52268
1.54685
1.57243
1.60003
)
;
    }
    procBoundary29to36
    {
        type            processor;
        value           nonuniform List<scalar> 
19
(
0.881935
0.889297
0.89666
0.904367
0.91201
0.919732
0.927734
0.935556
0.943577
0.951613
0.959769
0.967987
0.976179
0.984127
0.991273
0.996611
0.999286
0.999943
0.999999
)
;
    }
    procBoundary29to37
    {
        type            processor;
        value           nonuniform List<scalar> 
129
(
1
1
1
1
1
1
1
1
1.00007
1.00043
1.00194
1.00753
1.02262
1.05913
1.12709
1.2403
1.39435
1.57505
1.7732
1.94583
2.10159
2.22323
2.29901
2.36159
2.39227
2.40557
2.42003
2.41129
2.40486
2.39815
2.38694
2.37328
2.35948
2.34611
2.33231
2.31642
2.29869
2.27927
2.25821
2.23725
2.21717
2.1964
2.17596
2.15661
2.13831
2.12048
2.10295
2.08688
2.07088
2.05431
2.03888
2.02429
2.009
1.99451
1.98067
1.96514
1.95219
1.93923
1.92362
1.9103
1.89746
1.8839
1.87103
1.85788
1.84524
1.83296
1.82062
1.80905
1.79663
1.78377
1.77238
1.76138
1.75062
1.73834
1.72679
1.71735
1.70608
1.69374
1.68458
1.67551
1.66383
1.65337
1.64514
1.63503
1
1
1
1
1
1
1
1
1
1
1
1
1
1
1
1
1
1
1
1
1
1
1
1
1
1
1
1
1
1
1
1
1
1
1
1
1
1
1
1
1
1
1
1.00007
1
)
;
    }
}


// ************************************************************************* //
