/*--------------------------------*- C++ -*----------------------------------*\
  =========                 |
  \\      /  F ield         | OpenFOAM: The Open Source CFD Toolbox
   \\    /   O peration     | Website:  https://openfoam.org
    \\  /    A nd           | Version:  7
     \\/     M anipulation  |
\*---------------------------------------------------------------------------*/
FoamFile
{
    version     2.0;
    format      ascii;
    class       volVectorField;
    location    "10.5";
    object      U;
}
// * * * * * * * * * * * * * * * * * * * * * * * * * * * * * * * * * * * * * //

dimensions      [0 1 -1 0 0 0 0];

internalField   nonuniform List<vector> 
2413
(
(2 4.78775e-16 0)
(2 9.39345e-16 0)
(2 8.18088e-16 0)
(2 7.53408e-16 0)
(2 9.98897e-16 0)
(2 1.19847e-15 0)
(2 1.37481e-15 0)
(2 1.68507e-15 0)
(2 2.28422e-15 0)
(2 2.46296e-15 0)
(2 2.23025e-15 0)
(2 2.23526e-15 0)
(2 2.01722e-15 0)
(2 1.56493e-15 0)
(2 7.3247e-16 0)
(2 1.80183e-16 0)
(2 -1.32928e-16 0)
(2 -5.30272e-16 0)
(2 -6.9333e-16 0)
(2 -8.75339e-16 0)
(2 -1.09898e-15 0)
(2 -1.49909e-15 0)
(2 -1.84929e-15 0)
(2 -1.98541e-15 0)
(2 -2.0174e-15 0)
(2 -2.19777e-15 0)
(2 -2.55098e-15 0)
(2 -2.89008e-15 0)
(2 -2.91071e-15 0)
(2 -1.7273e-15 0)
(2 -9.31434e-16 0)
(2 2.09105e-16 0)
(2 1.65722e-16 0)
(2 7.31267e-17 0)
(2 -4.20016e-17 0)
(2 1.56871e-16 0)
(2 5.18551e-16 0)
(2 8.99684e-16 0)
(2 1.03999e-15 0)
(2 1.64216e-15 0)
(2 2.33207e-15 0)
(2 2.69664e-15 0)
(2 2.82143e-15 0)
(2 2.85033e-15 0)
(2 2.74811e-15 0)
(2 3.20277e-15 0)
(2 3.46507e-15 0)
(2 3.78712e-15 0)
(2 4.08939e-15 0)
(2 4.01833e-15 0)
(2 3.66878e-15 0)
(2 3.1903e-15 0)
(2 2.87912e-15 0)
(2 6.95019e-16 0)
(2 1.02244e-15 0)
(2 1.25055e-15 0)
(2 1.45656e-15 0)
(2 1.65612e-15 0)
(2 1.91036e-15 0)
(2 2.05209e-15 0)
(2 1.89562e-15 0)
(2 1.26767e-15 0)
(2 1.12488e-15 0)
(2 9.09246e-16 0)
(2 5.63984e-16 0)
(2 7.07157e-16 0)
(2 8.05366e-16 0)
(2 8.19939e-16 0)
(2 1.17487e-15 0)
(2 1.39229e-15 0)
(2 1.30206e-15 0)
(2 1.24347e-15 0)
(2 8.62282e-16 0)
(2 -3.79694e-18 0)
(2 -3.1684e-16 0)
(2 1.15693e-16 0)
(2 7.8487e-16 0)
(2 1.00086e-15 0)
(2 1.01027e-15 0)
(2 8.02736e-16 0)
(2 8.27716e-16 0)
(2 9.58745e-16 0)
(2 9.98946e-16 0)
(2 6.88593e-16 0)
(2 5.93342e-16 0)
(2 6.19917e-16 0)
(2 4.39111e-16 0)
(2 5.49367e-16 0)
(2 1.02682e-15 0)
(2 1.57785e-15 0)
(2 1.66159e-15 0)
(2 1.62294e-15 0)
(2 1.56482e-15 0)
(2 1.66321e-15 0)
(2 1.76264e-15 0)
(2 1.93596e-15 0)
(2 1.86934e-15 0)
(2 1.66336e-15 0)
(2 1.46787e-15 0)
(2 1.64081e-15 0)
(2 1.87246e-15 0)
(2 1.71994e-15 0)
(2 1.19826e-15 0)
(2 1.2247e-15 0)
(2 8.30516e-16 0)
(2 5.58268e-16 0)
(2 3.45622e-16 0)
(2 3.25926e-16 0)
(2 6.4727e-16 0)
(2 1.38005e-15 0)
(2 1.54542e-15 0)
(2 1.77811e-15 0)
(2 2.04045e-15 0)
(2 2.11277e-15 0)
(2 2.01421e-15 0)
(2 1.84225e-15 0)
(2 1.90017e-15 0)
(2 1.9988e-15 0)
(2 1.97554e-15 0)
(2 1.94272e-15 0)
(2 1.89693e-15 0)
(2 1.94245e-15 0)
(2 1.9692e-15 0)
(2 2.04962e-15 0)
(2 2.18954e-15 0)
(2 2.54827e-15 0)
(2 2.8215e-15 0)
(2 2.77603e-15 0)
(2 2.76068e-15 0)
(2 2.43049e-15 0)
(2 1.89787e-15 0)
(2 1.30673e-15 0)
(2 1.1579e-15 0)
(2 1.14129e-15 0)
(2 9.1182e-16 0)
(2 2.48555e-16 0)
(2 -5.56206e-16 0)
(2 -8.5745e-16 0)
(2 -1.16292e-15 0)
(2 -1.93932e-15 0)
(2 -2.20207e-15 0)
(2 -2.45049e-15 0)
(2 -2.55745e-15 0)
(2 -2.58641e-15 0)
(2 -2.5087e-15 0)
(2 -2.40992e-15 0)
(2 -2.30711e-15 0)
(2 -2.29396e-15 0)
(2 -2.31931e-15 0)
(2 -2.1051e-15 0)
(2 -1.94896e-15 0)
(2 -1.66777e-15 0)
(2 -1.41406e-15 0)
(2 -1.2642e-15 0)
(2 -9.99283e-16 0)
(2 -8.32014e-16 0)
(2 -6.07065e-16 0)
(2 -4.28811e-16 0)
(2 -2.7374e-16 0)
(2 2.23306e-16 0)
(2 6.46878e-16 0)
(2 6.84954e-16 0)
(2 9.03728e-16 0)
(2 1.08577e-15 0)
(2 1.37194e-15 0)
(2 1.90888e-15 0)
(2 2.16766e-15 0)
(2 2.12454e-15 0)
(2 2.15614e-15 0)
(2 2.25685e-15 0)
(2 2.78815e-15 0)
(2 2.25202e-15 0)
(2 1.93747e-15 0)
(2 5.03922e-16 0)
(2 5.23474e-16 0)
(2 6.16885e-16 0)
(2 6.769e-16 0)
(2 6.68409e-16 0)
(2 6.29796e-16 0)
(2 6.54261e-16 0)
(2 7.52959e-16 0)
(2 7.34321e-16 0)
(2 5.94445e-16 0)
(2 6.33892e-16 0)
(2 5.05493e-16 0)
(2 1.59548e-16 0)
(2 1.46283e-16 0)
(2 1.59802e-16 0)
(2 2.5886e-16 0)
(2 4.30007e-16 0)
(2 6.64895e-16 0)
(2 1.27833e-15 0)
(2 1.62359e-15 0)
(2 2.12794e-15 0)
(2 2.08574e-15 0)
(2 1.80979e-15 0)
(2 1.64195e-15 0)
(2 1.42612e-15 0)
(2 1.19096e-15 0)
(2 1.06204e-15 0)
(2 1.03062e-15 0)
(2 1.18763e-15 0)
(2 1.44364e-15 0)
(2 1.97583e-15 0)
(2 2.22535e-15 0)
(2 2.25244e-15 0)
(2 1.40694e-15 0)
(2 1.09074e-15 0)
(2 8.74929e-16 0)
(2 7.45352e-16 0)
(2 6.05881e-16 0)
(2 4.99292e-16 0)
(2 3.64577e-16 0)
(2 7.1574e-16 0)
(2 1.26144e-15 0)
(2 1.23164e-15 0)
(2 1.04345e-15 0)
(2 5.75475e-16 0)
(2 5.18659e-16 0)
(2 9.07179e-17 0)
(2 1.10978e-17 0)
(2 2.70817e-16 0)
(2 7.00263e-16 0)
(2 7.63497e-16 0)
(2 8.26299e-16 0)
(2 1.00445e-15 0)
(2 9.78976e-16 0)
(2 1.27691e-15 0)
(2 1.6083e-15 0)
(2 1.96697e-15 0)
(2 2.08012e-15 0)
(2 2.48495e-15 0)
(2 2.51651e-15 0)
(2 2.92585e-15 0)
(2 3.34073e-15 0)
(2 3.67894e-15 0)
(2 3.63851e-15 0)
(2 3.6574e-15 0)
(2 3.66109e-15 0)
(2 3.58233e-15 0)
(2 3.79305e-15 0)
(2 3.92124e-15 0)
(2 3.97234e-15 0)
(2 4.40704e-15 0)
(2 4.40378e-15 0)
(2 4.18482e-15 0)
(2 4.17684e-15 0)
(2 3.45971e-15 0)
(2 3.08194e-15 0)
(2 2.64686e-15 0)
(2 2.28268e-15 0)
(2 1.77046e-15 0)
(2 1.4243e-15 0)
(2 1.34642e-15 0)
(2 1.23966e-15 0)
(2 9.70759e-16 0)
(2 8.24944e-16 0)
(2 5.03029e-16 0)
(2 -1.97515e-16 0)
(2 -7.23019e-16 0)
(2 -1.09371e-15 0)
(2 -1.52265e-15 0)
(2 -1.96126e-15 0)
(2 -2.40452e-15 0)
(2 -2.42629e-15 0)
(2 -2.41815e-15 0)
(2 -2.33766e-15 0)
(2 -2.2457e-15 0)
(2 -2.1569e-15 0)
(2 -2.21284e-15 0)
(2 -2.22361e-15 0)
(2 -2.05654e-15 0)
(2 -1.76669e-15 0)
(2 -1.85211e-15 0)
(2 -1.75574e-15 0)
(2 -1.35993e-15 0)
(2 -1.10225e-15 0)
(2 -1.02321e-15 0)
(2 -9.63076e-16 0)
(2 -2.59576e-16 0)
(2 1.2142e-15 0)
(2 1.28263e-15 0)
(2 1.57896e-15 0)
(2 1.92026e-15 0)
(2 1.90634e-15 0)
(2 1.82147e-15 0)
(2 1.88162e-15 0)
(2 1.9678e-15 0)
(2 1.70807e-15 0)
(2 1.23076e-15 0)
(2 1.01983e-15 0)
(2 9.71654e-16 0)
(2 9.16626e-16 0)
(2 1.59604e-15 0)
(2 1.50409e-15 0)
(2 1.56181e-15 0)
(2 1.18981e-15 0)
(2 9.74049e-16 0)
(2 8.29048e-16 0)
(2 3.7662e-16 0)
(2 1.58829e-16 0)
(2 2.61892e-17 0)
(2 -6.98649e-16 0)
(2 -8.61582e-16 0)
(2 -8.19515e-16 0)
(2 -1.70986e-16 0)
(2 -6.73719e-17 0)
(2 -6.72903e-17 0)
(2 -1.76351e-16 0)
(2 5.21836e-17 0)
(2 2.50632e-16 0)
(2 5.4702e-16 0)
(2 9.58366e-16 0)
(2 1.24907e-15 0)
(2 1.39869e-15 0)
(2 1.27048e-15 0)
(2 9.88057e-16 0)
(2 9.2528e-16 0)
(2 8.5144e-16 0)
(2 1.30584e-15 0)
(2 1.10213e-15 0)
(2 1.42056e-15 0)
(2 1.82093e-15 0)
(2 2.03162e-15 0)
(2 2.19831e-15 0)
(2 2.39156e-15 0)
(2 2.55729e-15 0)
(2 2.5786e-15 0)
(2 2.41684e-15 0)
(2 2.32014e-15 0)
(2 2.15192e-15 0)
(2 2.10918e-15 0)
(2 1.58077e-15 0)
(2 1.19311e-15 0)
(2 8.57047e-16 0)
(2 5.49478e-16 0)
(2 2.37519e-16 0)
(2 2.60917e-16 0)
(2 2.92658e-16 0)
(2 3.14034e-16 0)
(2 3.87715e-16 0)
(2 6.64702e-16 0)
(2 1.05524e-15 0)
(2 1.39089e-15 0)
(2 1.24753e-15 0)
(2 1.56573e-15 0)
(2 1.73789e-15 0)
(2 1.7879e-15 0)
(2 1.78643e-15 0)
(2 1.64241e-15 0)
(2 1.35016e-15 0)
(2 1.36838e-15 0)
(2 2.10401e-15 0)
(2 2.31186e-15 0)
(2 2.62397e-15 0)
(2 2.76291e-15 0)
(2 2.84507e-15 0)
(2 2.83019e-15 0)
(2 2.93367e-15 0)
(2 2.89441e-15 0)
(2 2.68852e-15 0)
(2 2.62389e-15 0)
(2 2.83036e-15 0)
(2 3.15755e-15 0)
(2 3.27621e-15 0)
(2 3.20317e-15 0)
(2 2.93008e-15 0)
(2 2.68728e-15 0)
(2 1.72223e-15 0)
(2 1.31188e-15 0)
(2 1.12871e-15 0)
(2 9.10056e-16 0)
(2 7.31388e-16 0)
(2 6.10852e-16 0)
(2 1.67501e-16 0)
(2 -7.46693e-17 0)
(2 -3.24603e-16 0)
(2 -4.83492e-16 0)
(2 -6.82745e-16 0)
(2 -8.01424e-16 0)
(2 -8.53662e-16 0)
(2 -8.5419e-16 0)
(2 -8.99989e-16 0)
(2 -1.04566e-15 0)
(2 -1.08281e-15 0)
(2 -1.0708e-15 0)
(2 -1.064e-15 0)
(2 -1.0195e-15 0)
(2 -1.04394e-15 0)
(2 -9.14586e-16 0)
(2 -4.30416e-16 0)
(2 -4.50186e-16 0)
(2 -7.29221e-16 0)
(2 -7.41046e-16 0)
(2 -5.48537e-16 0)
(2 -4.2738e-16 0)
(2 -1.21448e-16 0)
(2 3.62484e-16 0)
(2 7.80809e-16 0)
(2 1.14263e-15 0)
(2 1.30054e-15 0)
(2 1.85361e-15 0)
(2 2.13007e-15 0)
(2 2.50494e-15 0)
(2 2.77916e-15 0)
(2 3.12101e-15 0)
(2 3.45336e-15 0)
(2 3.31943e-15 0)
(2 3.0094e-15 0)
(2 2.64014e-15 0)
(2 1.9405e-15 0)
(2 1.66567e-15 0)
(2 1.54889e-15 0)
(2 2.48613e-15 0)
(2 3.02365e-15 0)
(2 3.04986e-15 0)
(2 2.98358e-15 0)
(2 3.05315e-15 0)
(2 3.20994e-15 0)
(2 2.47266e-15 0)
(2 1.66101e-15 0)
(2 1.26699e-15 0)
(2 9.01184e-16 0)
(2 8.71042e-16 0)
(2 9.61583e-16 0)
(2 1.09521e-15 0)
(2 1.13392e-15 0)
(2 1.56731e-15 0)
(2 1.78084e-15 0)
(2 1.97042e-15 0)
(2 1.97083e-15 0)
(2 1.84763e-15 0)
(2 1.87261e-15 0)
(2 1.65471e-15 0)
(2 1.6563e-15 0)
(2 2.62824e-15 0)
(2 2.78211e-15 0)
(2 2.95812e-15 0)
(2 2.8503e-15 0)
(2 2.86698e-15 0)
(2 3.51794e-15 0)
(2 3.63183e-15 0)
(2 3.58826e-15 0)
(2 3.17083e-15 0)
(2 3.08555e-15 0)
(2 3.11521e-15 0)
(2 3.3083e-15 0)
(2 3.45869e-15 0)
(2 3.4024e-15 0)
(2 3.18978e-15 0)
(2 2.7763e-15 0)
(2 2.14662e-15 0)
(2 2.12992e-15 0)
(2 1.69632e-15 0)
(2 1.15531e-15 0)
(2 9.58939e-16 0)
(2 1.07609e-15 0)
(2 1.08312e-15 0)
(2 1.13626e-15 0)
(2 1.21854e-15 0)
(2 1.21254e-15 0)
(2 1.12897e-15 0)
(2 1.21161e-15 0)
(2 1.8441e-15 0)
(2 2.34378e-15 0)
(2 2.28881e-15 0)
(2 2.30608e-15 0)
(2 2.39634e-15 0)
(2 2.4765e-15 0)
(2 2.36025e-15 0)
(2 2.25597e-15 0)
(2 2.08168e-15 0)
(2 2.06405e-15 0)
(2 2.10996e-15 0)
(2 1.8621e-15 0)
(2 1.90496e-15 0)
(2 2.06544e-15 0)
(2 1.88867e-15 0)
(2 1.55654e-15 0)
(2 1.15e-15 0)
(2 3.29627e-16 0)
(2 1.19487e-17 0)
(2 -1.59941e-16 0)
(2 -3.31306e-16 0)
(2 -6.7142e-16 0)
(2 -8.72611e-16 0)
(2 -7.86395e-16 0)
(2 -4.04655e-16 0)
(2 -1.24841e-16 0)
(2 -5.1588e-16 0)
(2 -8.49501e-16 0)
(2 -9.34338e-16 0)
(2 -1.25888e-15 0)
(2 -1.54885e-15 0)
(2 -1.36375e-15 0)
(2 -1.20475e-15 0)
(2 -8.83439e-16 0)
(2 -1.48559e-16 0)
(2 4.57715e-17 0)
(2 2.51952e-16 0)
(2 3.38944e-16 0)
(2 2.21274e-16 0)
(2 1.81058e-16 0)
(2 2.63245e-16 0)
(2 4.09425e-16 0)
(2 7.32936e-16 0)
(2 7.90172e-16 0)
(2 7.45686e-16 0)
(2 6.37992e-16 0)
(2 2.99402e-16 0)
(2 9.93836e-17 0)
(2 3.76562e-17 0)
(2 7.6768e-17 0)
(2 4.9433e-16 0)
(2 6.43751e-16 0)
(2 8.7846e-16 0)
(2 8.5989e-16 0)
(2 8.56685e-16 0)
(2 8.23786e-16 0)
(2 7.34236e-16 0)
(2 7.24464e-16 0)
(2 5.34357e-16 0)
(2 4.3497e-16 0)
(2 6.86282e-16 0)
(2 1.00244e-15 0)
(2 1.43277e-15 0)
(2 1.46541e-15 0)
(2 2.15771e-15 0)
(2 2.77103e-15 0)
(2 3.3587e-15 0)
(2 3.62769e-15 0)
(2 3.46825e-15 0)
(2 3.01328e-15 0)
(2 3.06711e-16 0)
(2 9.6916e-16 0)
(2 1.30754e-15 0)
(2 1.76406e-15 0)
(2 1.96509e-15 0)
(2 2.10456e-15 0)
(2 2.1954e-15 0)
(2 2.40082e-15 0)
(2 2.84886e-15 0)
(2 2.97905e-15 0)
(2 3.17073e-15 0)
(2 3.35073e-15 0)
(2 3.39261e-15 0)
(2 3.23648e-15 0)
(2 3.37769e-15 0)
(2 3.55109e-15 0)
(2 3.82188e-15 0)
(2 3.80068e-15 0)
(2 3.50291e-15 0)
(2 3.16105e-15 0)
(2 3.2343e-15 0)
(2 3.42902e-15 0)
(2 3.98317e-15 0)
(2 3.91738e-15 0)
(2 3.67185e-15 0)
(2 3.6498e-15 0)
(2 3.59625e-15 0)
(2 3.5077e-15 0)
(2 3.33461e-15 0)
(2 3.28127e-15 0)
(2 3.15955e-15 0)
(2 3.3942e-15 0)
(2 3.50383e-15 0)
(2 3.50138e-15 0)
(2 3.41899e-15 0)
(2 3.2472e-15 0)
(2 2.96441e-15 0)
(2 2.76811e-15 0)
(2 2.58934e-15 0)
(2 2.70372e-15 0)
(2 2.73974e-15 0)
(2 2.53262e-15 0)
(2 1.77413e-15 0)
(2 1.69492e-15 0)
(2 1.62665e-15 0)
(2 1.6053e-15 0)
(2 1.60692e-15 0)
(2 1.71903e-15 0)
(2 1.82589e-15 0)
(2 1.77948e-15 0)
(2 1.63517e-15 0)
(2 1.83803e-15 0)
(2 1.97526e-15 0)
(2 1.97251e-15 0)
(2 1.78783e-15 0)
(2 1.49486e-15 0)
(2 1.14689e-15 0)
(2 1.52338e-15 0)
(2 2.01014e-15 0)
(2 1.64948e-15 0)
(2 1.18298e-15 0)
(2 9.90358e-16 0)
(2 9.02422e-16 0)
(2 7.86455e-16 0)
(2 5.97465e-16 0)
(2 5.31273e-16 0)
(2 3.4837e-16 0)
(2 2.90295e-16 0)
(2 3.26937e-16 0)
(2 2.24538e-16 0)
(2 -2.21991e-16 0)
(2 -5.08106e-16 0)
(2 -6.599e-16 0)
(2 -6.41664e-16 0)
(2 -5.45947e-16 0)
(2 -5.04598e-16 0)
(2 -2.75942e-16 0)
(2 -1.6285e-16 0)
(2 -1.57362e-16 0)
(2 -2.03721e-16 0)
(2 -3.32257e-16 0)
(2 -4.36365e-16 0)
(2 -4.45884e-16 0)
(2 -3.3619e-16 0)
(2 -1.75306e-16 0)
(2 1.41096e-17 0)
(2 4.56591e-16 0)
(2 7.41598e-16 0)
(2 1.25006e-15 0)
(2 1.65243e-15 0)
(2 2.00229e-15 0)
(2 2.18518e-15 0)
(2 2.31652e-15 0)
(2 2.39418e-15 0)
(2 2.45948e-15 0)
(2 2.51315e-15 0)
(2 2.74953e-15 0)
(2 2.82733e-15 0)
(2 2.91123e-15 0)
(2 2.92268e-15 0)
(2 2.8906e-15 0)
(2 2.85179e-15 0)
(2 3.05084e-15 0)
(2 2.71038e-15 0)
(2 1.96778e-15 0)
(2 1.15543e-15 0)
(2 1.10113e-15 0)
(2 1.13614e-15 0)
(2 1.20691e-15 0)
(2 9.25141e-16 0)
(2 4.78283e-16 0)
(2 3.0599e-16 0)
(2 6.02477e-16 0)
(2 8.88979e-16 0)
(2 1.78808e-15 0)
(2 2.4993e-15 0)
(2 2.74016e-15 0)
(2 2.75355e-15 0)
(2 2.48173e-15 0)
(2 3.21991e-15 0)
(2 1.85893e-16 0)
(2 5.44568e-16 0)
(2 6.27727e-16 0)
(2 1.15208e-15 0)
(2 1.3499e-15 0)
(2 1.44736e-15 0)
(2 1.55252e-15 0)
(2 1.79655e-15 0)
(2 2.55008e-15 0)
(2 2.95082e-15 0)
(2 2.96172e-15 0)
(2 2.91841e-15 0)
(2 2.91381e-15 0)
(2 3.04674e-15 0)
(2 3.04187e-15 0)
(2 3.00091e-15 0)
(2 3.30537e-15 0)
(2 3.52993e-15 0)
(2 3.47518e-15 0)
(2 3.23487e-15 0)
(2 3.15013e-15 0)
(2 3.18642e-15 0)
(2 3.32406e-15 0)
(2 3.63451e-15 0)
(2 3.83644e-15 0)
(2 3.9789e-15 0)
(2 3.89093e-15 0)
(2 3.86235e-15 0)
(2 3.96441e-15 0)
(2 3.92849e-15 0)
(2 3.79316e-15 0)
(2 3.61801e-15 0)
(2 3.43718e-15 0)
(2 3.20034e-15 0)
(2 3.30535e-15 0)
(2 3.59867e-15 0)
(2 4.08575e-15 0)
(2 4.77066e-15 0)
(2 4.13622e-15 0)
(2 3.60282e-15 0)
(2 3.48975e-15 0)
(2 2.38891e-15 0)
(2 2.16121e-15 0)
(2 1.73731e-15 0)
(2 1.21444e-15 0)
(2 1.02875e-15 0)
(2 9.49491e-16 0)
(2 9.79593e-16 0)
(2 9.61091e-16 0)
(2 9.30423e-16 0)
(2 6.9809e-16 0)
(2 6.15964e-16 0)
(2 7.32909e-16 0)
(2 1.17936e-15 0)
(2 1.56264e-15 0)
(2 1.87795e-15 0)
(2 1.80685e-15 0)
(2 1.70481e-15 0)
(2 1.60476e-15 0)
(2 1.47823e-15 0)
(2 1.45259e-15 0)
(2 1.35184e-15 0)
(2 1.00776e-15 0)
(2 9.1089e-16 0)
(2 8.13629e-16 0)
(2 7.5003e-16 0)
(2 8.85907e-16 0)
(2 8.2686e-16 0)
(2 7.64133e-16 0)
(2 6.0546e-16 0)
(2 5.88548e-16 0)
(2 6.6045e-16 0)
(2 8.56709e-16 0)
(2 9.61696e-16 0)
(2 8.53734e-16 0)
(2 7.62595e-16 0)
(2 1.01839e-15 0)
(2 1.11101e-15 0)
(2 1.2016e-15 0)
(2 1.14219e-15 0)
(2 1.11741e-15 0)
(2 1.11617e-15 0)
(2 1.06993e-15 0)
(2 9.29364e-16 0)
(2 1.02981e-15 0)
(2 1.20233e-15 0)
(2 1.50506e-15 0)
(2 1.76011e-15 0)
(2 2.4253e-15 0)
(2 2.94638e-15 0)
(2 3.29211e-15 0)
(2 3.38429e-15 0)
(2 3.3838e-15 0)
(2 3.44046e-15 0)
(2 3.51851e-15 0)
(2 3.55737e-15 0)
(2 3.70159e-15 0)
(2 3.52873e-15 0)
(2 3.1836e-15 0)
(2 3.17402e-15 0)
(2 2.99077e-15 0)
(2 2.94319e-15 0)
(2 2.60723e-15 0)
(2 2.21251e-15 0)
(2 1.98937e-15 0)
(2 2.05165e-15 0)
(2 2.14887e-15 0)
(2 2.22054e-15 0)
(2 2.4852e-15 0)
(2 2.94576e-15 0)
(2 3.1622e-15 0)
(2 3.12835e-15 0)
(2 3.13679e-15 0)
(2 3.0566e-15 0)
(2 2.16855e-15 0)
(2 1.9408e-15 0)
(2 1.86735e-15 0)
(2 1.88888e-15 0)
(2 1.93615e-15 0)
(2 2.38869e-15 0)
(2 3.55186e-15 0)
(2 3.35648e-15 0)
(2 3.02492e-15 0)
(2 3.11174e-15 0)
(2 3.26978e-15 0)
(2 3.32874e-15 0)
(2 3.28801e-15 0)
(2 3.29957e-15 0)
(2 3.24546e-15 0)
(2 3.21321e-15 0)
(2 2.86108e-15 0)
(2 2.71516e-15 0)
(2 2.84363e-15 0)
(2 2.8294e-15 0)
(2 2.64671e-15 0)
(2 2.40746e-15 0)
(2 2.62427e-15 0)
(2 3.10908e-15 0)
(2 3.58262e-15 0)
(2 3.96392e-15 0)
(2 4.8201e-15 0)
(2 4.91859e-15 0)
(2 4.87848e-15 0)
(2 4.9138e-15 0)
(2 4.93279e-15 0)
(2 4.86963e-15 0)
(2 5.11213e-15 0)
(2 5.73527e-15 0)
(2 5.7314e-15 0)
(2 5.68077e-15 0)
(2 5.66848e-15 0)
(2 5.30314e-15 0)
(2 4.56447e-15 0)
(2 4.48126e-15 0)
(2 4.34539e-15 0)
(2 4.27699e-15 0)
(2 4.17722e-15 0)
(2 4.03339e-15 0)
(2 3.77845e-15 0)
(2 3.26088e-15 0)
(2 3.11125e-15 0)
(2 2.97884e-15 0)
(2 2.72132e-15 0)
(2 2.25258e-15 0)
(2 2.12575e-15 0)
(2 2.4178e-15 0)
(2 2.34166e-15 0)
(2 1.76922e-15 0)
(2 1.61336e-15 0)
(2 1.69225e-15 0)
(2 1.71874e-15 0)
(2 1.45648e-15 0)
(2 1.50714e-15 0)
(2 1.57533e-15 0)
(2 1.76929e-15 0)
(2 2.17861e-15 0)
(2 2.56835e-15 0)
(2 2.68926e-15 0)
(2 2.66838e-15 0)
(2 2.61371e-15 0)
(2 2.23954e-15 0)
(2 1.88606e-15 0)
(2 1.54678e-15 0)
(2 1.26304e-15 0)
(2 1.26442e-15 0)
(2 1.34983e-15 0)
(2 1.59778e-15 0)
(2 2.08436e-15 0)
(2 2.25033e-15 0)
(2 2.22559e-15 0)
(2 2.37656e-15 0)
(2 2.56667e-15 0)
(2 2.66308e-15 0)
(2 2.64945e-15 0)
(2 2.65671e-15 0)
(2 2.75112e-15 0)
(2 2.83449e-15 0)
(2 2.81828e-15 0)
(2 2.85796e-15 0)
(2 2.99847e-15 0)
(2 3.32348e-15 0)
(2 3.5329e-15 0)
(2 3.79095e-15 0)
(2 3.99611e-15 0)
(2 4.14507e-15 0)
(2 4.24411e-15 0)
(2 4.37902e-15 0)
(2 4.51312e-15 0)
(2 4.67419e-15 0)
(2 4.64472e-15 0)
(2 4.91977e-15 0)
(2 5.41757e-15 0)
(2 5.47439e-15 0)
(2 5.54511e-15 0)
(2 5.70108e-15 0)
(2 5.49005e-15 0)
(2 4.9091e-15 0)
(2 4.29427e-15 0)
(2 3.26235e-15 0)
(2 3.01267e-15 0)
(2 3.11168e-15 0)
(2 3.31032e-15 0)
(2 2.62332e-15 0)
(2 2.17041e-15 0)
(2 2.10173e-15 0)
(2 2.21523e-15 0)
(2 2.7679e-15 0)
(2 2.84698e-15 0)
(2 2.94541e-15 0)
(2 3.04531e-15 0)
(2 3.21203e-15 0)
(2 3.25629e-15 0)
(2 2.44741e-15 0)
(2 2.32251e-15 0)
(2 1.77205e-15 0)
(2 1.50242e-15 0)
(2 1.52947e-15 0)
(2 1.7711e-15 0)
(2 1.96423e-15 0)
(2 2.13025e-15 0)
(2 3.34577e-15 0)
(2 3.28949e-15 0)
(2 3.14947e-15 0)
(2 3.1073e-15 0)
(2 3.15026e-15 0)
(2 3.13549e-15 0)
(2 3.48001e-15 0)
(2 3.41539e-15 0)
(2 3.33548e-15 0)
(2 3.03705e-15 0)
(2 2.91702e-15 0)
(2 2.91608e-15 0)
(2 2.94962e-15 0)
(2 2.82809e-15 0)
(2 2.651e-15 0)
(2 2.44936e-15 0)
(2 2.41203e-15 0)
(2 2.89003e-15 0)
(2 3.53688e-15 0)
(2 3.71046e-15 0)
(2 3.6527e-15 0)
(2 3.95956e-15 0)
(2 4.12844e-15 0)
(2 3.99341e-15 0)
(2 3.99721e-15 0)
(2 3.93242e-15 0)
(2 3.69257e-15 0)
(2 3.60255e-15 0)
(2 3.5498e-15 0)
(2 3.52593e-15 0)
(2 3.48714e-15 0)
(2 3.46696e-15 0)
(2 3.27318e-15 0)
(2 3.08501e-15 0)
(2 2.95269e-15 0)
(2 2.92942e-15 0)
(2 3.19081e-15 0)
(2 3.59412e-15 0)
(2 3.83688e-15 0)
(2 3.96263e-15 0)
(2 4.09482e-15 0)
(2 4.2856e-15 0)
(2 4.26715e-15 0)
(2 4.33779e-15 0)
(2 4.42555e-15 0)
(2 4.10208e-15 0)
(2 3.84707e-15 0)
(2 3.43581e-15 0)
(2 3.33673e-15 0)
(2 3.24493e-15 0)
(2 3.24035e-15 0)
(2 3.22072e-15 0)
(2 2.53008e-15 0)
(2 1.43951e-15 0)
(2 1.02037e-15 0)
(2 8.60738e-16 0)
(2 9.99192e-16 0)
(2 1.10487e-15 0)
(2 1.34228e-15 0)
(2 1.40044e-15 0)
(2 1.38352e-15 0)
(2 1.75449e-15 0)
(2 2.58817e-15 0)
(2 3.02398e-15 0)
(2 3.14842e-15 0)
(2 3.25464e-15 0)
(2 3.36672e-15 0)
(2 3.40647e-15 0)
(2 3.37211e-15 0)
(2 3.38406e-15 0)
(2 3.32844e-15 0)
(2 3.2976e-15 0)
(2 3.2e-15 0)
(2 3.04181e-15 0)
(2 3.06311e-15 0)
(2 3.21382e-15 0)
(2 3.41088e-15 0)
(2 3.64315e-15 0)
(2 4.01519e-15 0)
(2 4.44028e-15 0)
(2 4.49484e-15 0)
(2 4.49149e-15 0)
(2 4.43288e-15 0)
(2 4.34133e-15 0)
(2 4.35896e-15 0)
(2 4.44341e-15 0)
(2 4.56473e-15 0)
(2 4.78197e-15 0)
(2 4.83871e-15 0)
(2 4.41702e-15 0)
(2 4.13074e-15 0)
(2 4.13741e-15 0)
(2 4.28766e-15 0)
(2 4.0811e-15 0)
(2 3.59668e-15 0)
(2 2.98628e-15 0)
(2 2.84198e-15 0)
(2 2.99625e-15 0)
(2 3.46482e-15 0)
(2 3.68363e-15 0)
(2 4.12754e-15 0)
(2 4.03681e-15 0)
(2 3.56886e-15 0)
(2 3.59802e-15 0)
(2 3.77488e-15 0)
(2 3.65478e-15 0)
(2 3.29888e-15 0)
(2 2.62957e-15 0)
(2 2.3078e-15 0)
(2 2.19793e-15 0)
(2 2.1751e-15 0)
(2 2.18712e-15 0)
(2 1.98759e-15 0)
(2 1.67602e-15 0)
(2 1.5238e-15 0)
(2 1.59974e-15 0)
(2 1.7159e-15 0)
(2 1.79565e-15 0)
(2 1.70965e-15 0)
(2 1.61795e-15 0)
(2 6.52142e-17 0)
(2 -1.24013e-16 0)
(2 -2.46912e-16 0)
(2 -2.66717e-16 0)
(2 -2.56494e-16 0)
(2 -2.47509e-16 0)
(2 -1.91943e-16 0)
(2 -2.87198e-16 0)
(2 -2.11379e-17 0)
(2 1.36997e-16 0)
(2 4.09126e-16 0)
(2 5.33935e-16 0)
(2 6.29818e-16 0)
(2 6.92508e-16 0)
(2 9.98168e-16 0)
(2 1.37923e-15 0)
(2 9.58516e-16 0)
(2 2.73729e-16 0)
(2 -1.75501e-17 0)
(2 -1.41377e-16 0)
(2 -3.83135e-16 0)
(2 -5.43462e-17 0)
(2 5.82387e-16 0)
(2 9.94552e-16 0)
(2 9.84613e-16 0)
(2 8.88484e-16 0)
(2 4.9102e-16 0)
(2 4.27185e-16 0)
(2 4.34844e-16 0)
(2 9.62858e-17 0)
(2 4.22001e-17 0)
(2 1.14749e-16 0)
(2 2.78716e-16 0)
(2 4.20432e-16 0)
(2 5.02694e-16 0)
(2 4.58751e-16 0)
(2 7.65749e-16 0)
(2 1.18019e-15 0)
(2 1.34467e-15 0)
(2 1.445e-15 0)
(2 1.93457e-15 0)
(2 2.8028e-15 0)
(2 3.271e-15 0)
(2 3.759e-15 0)
(2 3.36314e-15 0)
(2 2.83448e-15 0)
(2 2.61359e-15 0)
(2 2.80986e-15 0)
(2 2.54746e-15 0)
(2 2.22741e-15 0)
(2 2.12028e-15 0)
(2 2.26887e-15 0)
(2 1.47592e-15 0)
(2 9.88374e-16 0)
(2 9.55422e-16 0)
(2 8.45072e-16 0)
(2 5.2052e-16 0)
(2 5.26771e-16 0)
(2 6.30701e-16 0)
(2 7.81004e-16 0)
(2 9.74556e-16 0)
(2 1.452e-15 0)
(2 1.94442e-15 0)
(2 2.16937e-15 0)
(2 2.7292e-15 0)
(2 2.76169e-15 0)
(2 2.74716e-15 0)
(2 2.63352e-15 0)
(2 2.62734e-15 0)
(2 2.67976e-15 0)
(2 2.70671e-15 0)
(2 2.97467e-15 0)
(2 3.15296e-15 0)
(2 3.58887e-15 0)
(2 3.83748e-15 0)
(2 3.9085e-15 0)
(2 3.98839e-15 0)
(2 3.97711e-15 0)
(2 3.42033e-15 0)
(2 2.81208e-15 0)
(2 2.61168e-15 0)
(2 2.89412e-15 0)
(2 3.20434e-15 0)
(2 3.4986e-15 0)
(2 3.49573e-15 0)
(2 3.70609e-15 0)
(2 3.74427e-15 0)
(2 3.91045e-15 0)
(2 3.51253e-15 0)
(2 2.47845e-15 0)
(2 2.31004e-15 0)
(2 2.33953e-15 0)
(2 2.36814e-15 0)
(2 2.50058e-15 0)
(2 2.49591e-15 0)
(2 2.16341e-15 0)
(2 1.79282e-15 0)
(2 1.75394e-15 0)
(2 1.64448e-15 0)
(2 1.63147e-15 0)
(2 1.79323e-15 0)
(2 1.63425e-15 0)
(2 1.57355e-15 0)
(2 1.62139e-15 0)
(2 1.59869e-15 0)
(2 1.6536e-15 0)
(2 1.22454e-15 0)
(2 6.58606e-16 0)
(2 4.35432e-16 0)
(2 4.94216e-16 0)
(2 5.41162e-16 0)
(2 7.08385e-16 0)
(2 7.99376e-16 0)
(2 7.9048e-16 0)
(2 7.10509e-16 0)
(2 6.91318e-16 0)
(2 6.84823e-16 0)
(2 7.38596e-16 0)
(2 8.46502e-16 0)
(2 9.60861e-16 0)
(2 -8.59824e-16 0)
(2 -1.21281e-15 0)
(2 -1.3797e-15 0)
(2 -1.56529e-15 0)
(2 -1.6522e-15 0)
(2 -1.8163e-15 0)
(2 -1.89228e-15 0)
(2 -1.81931e-15 0)
(2 -1.6753e-15 0)
(2 -1.63242e-15 0)
(2 -1.01528e-15 0)
(2 -7.17749e-16 0)
(2 1.20238e-16 0)
(2 8.85483e-16 0)
(2 5.651e-16 0)
(2 4.63563e-17 0)
(2 -2.44025e-16 0)
(2 -5.99744e-16 0)
(2 -1.00518e-15 0)
(2 -1.40996e-15 0)
(2 -1.53797e-15 0)
(2 -1.30113e-15 0)
(2 -1.0133e-15 0)
(2 -8.72292e-16 0)
(2 -1.08222e-15 0)
(2 -1.38286e-15 0)
(2 -1.20926e-15 0)
(2 -1.48285e-15 0)
(2 -1.87216e-15 0)
(2 -2.09478e-15 0)
(2 -1.67728e-15 0)
(2 -1.1527e-15 0)
(2 -6.9589e-16 0)
(2 -6.4459e-16 0)
(2 -6.33341e-16 0)
(2 -6.22166e-16 0)
(2 -4.07312e-16 0)
(2 2.02928e-16 0)
(2 1.02412e-15 0)
(2 1.45874e-15 0)
(2 2.23418e-15 0)
(2 2.82274e-15 0)
(2 2.97416e-15 0)
(2 2.79038e-15 0)
(2 2.76638e-15 0)
(2 2.66838e-15 0)
(2 2.01919e-15 0)
(2 1.85033e-15 0)
(2 1.69765e-15 0)
(2 1.44184e-15 0)
(2 1.1253e-15 0)
(2 1.10614e-15 0)
(2 1.35803e-15 0)
(2 1.65001e-15 0)
(2 1.92107e-15 0)
(2 1.77329e-15 0)
(2 1.55522e-15 0)
(2 1.62373e-15 0)
(2 1.6685e-15 0)
(2 1.66006e-15 0)
(2 1.74413e-15 0)
(2 1.92307e-15 0)
(2 1.98514e-15 0)
(2 2.0448e-15 0)
(2 2.46929e-15 0)
(2 2.61668e-15 0)
(2 2.75604e-15 0)
(2 2.87109e-15 0)
(2 2.87785e-15 0)
(2 2.88999e-15 0)
(2 2.97937e-15 0)
(2 3.22489e-15 0)
(2 3.61679e-15 0)
(2 3.64085e-15 0)
(2 3.4862e-15 0)
(2 3.21983e-15 0)
(2 3.04666e-15 0)
(2 2.63785e-15 0)
(2 2.51705e-15 0)
(2 2.37292e-15 0)
(2 2.42781e-15 0)
(2 2.60157e-15 0)
(2 3.02926e-15 0)
(2 3.30078e-15 0)
(2 3.4863e-15 0)
(2 3.586e-15 0)
(2 3.53956e-15 0)
(2 3.54473e-15 0)
(2 3.89199e-15 0)
(2 3.88205e-15 0)
(2 3.29553e-15 0)
(2 3.07846e-15 0)
(2 2.99626e-15 0)
(2 2.95187e-15 0)
(2 2.95369e-15 0)
(2 3.05322e-15 0)
(2 3.14444e-15 0)
(2 3.23031e-15 0)
(2 3.00177e-15 0)
(2 2.555e-15 0)
(2 2.05005e-15 0)
(2 1.52292e-15 0)
(2 1.45358e-15 0)
(2 1.24725e-15 0)
(2 8.94657e-16 0)
(2 8.67719e-16 0)
(2 8.19061e-16 0)
(2 6.52655e-16 0)
(2 3.72771e-16 0)
(2 3.72706e-16 0)
(2 3.65725e-16 0)
(2 3.86656e-16 0)
(2 5.72479e-16 0)
(2 7.51501e-16 0)
(2 9.39912e-16 0)
(2 1.03118e-15 0)
(2 1.08311e-15 0)
(2 1.10485e-15 0)
(2 1.13043e-15 0)
(2 9.55247e-16 0)
(2 -1.51797e-15 0)
(2 -1.66158e-15 0)
(2 -1.74085e-15 0)
(2 -1.78831e-15 0)
(2 -1.75097e-15 0)
(2 -1.75703e-15 0)
(2 -1.5889e-15 0)
(2 -1.42092e-15 0)
(2 -1.41942e-15 0)
(2 -1.35851e-15 0)
(2 -1.21496e-15 0)
(2 -1.23927e-15 0)
(2 -6.84564e-16 0)
(2 -3.31749e-16 0)
(2 -2.08768e-16 0)
(2 -2.65738e-16 0)
(2 -3.21203e-16 0)
(2 -2.37305e-16 0)
(2 -4.5491e-16 0)
(2 -4.33032e-16 0)
(2 -2.94797e-16 0)
(2 -1.98805e-16 0)
(2 -7.38781e-16 0)
(2 -2.02433e-15 0)
(2 -2.24956e-15 0)
(2 -2.15163e-15 0)
(2 -2.22027e-15 0)
(2 -2.65379e-15 0)
(2 -2.80782e-15 0)
(2 -2.72959e-15 0)
(2 -2.46874e-15 0)
(2 -1.77322e-15 0)
(2 -1.02956e-15 0)
(2 -8.91021e-17 0)
(2 1.71708e-16 0)
(2 2.75645e-16 0)
(2 4.10219e-16 0)
(2 5.63404e-16 0)
(2 9.3522e-16 0)
(2 1.15806e-15 0)
(2 1.13004e-15 0)
(2 8.77036e-16 0)
(2 7.29822e-16 0)
(2 5.82487e-16 0)
(2 4.61211e-16 0)
(2 5.03076e-16 0)
(2 7.17995e-16 0)
(2 8.25831e-16 0)
(2 8.64327e-16 0)
(2 7.93884e-16 0)
(2 6.03871e-16 0)
(2 5.83089e-16 0)
(2 7.48708e-16 0)
(2 8.98614e-16 0)
(2 1.04314e-15 0)
(2 1.16332e-15 0)
(2 1.38469e-15 0)
(2 1.43111e-15 0)
(2 1.48457e-15 0)
(2 1.51933e-15 0)
(2 1.51389e-15 0)
(2 1.66007e-15 0)
(2 1.79204e-15 0)
(2 2.08561e-15 0)
(2 2.22678e-15 0)
(2 2.39932e-15 0)
(2 2.24609e-15 0)
(2 2.04795e-15 0)
(2 2.04018e-15 0)
(2 2.19973e-15 0)
(2 2.32475e-15 0)
(2 2.50256e-15 0)
(2 2.49965e-15 0)
(2 2.21988e-15 0)
(2 2.0883e-15 0)
(2 1.27108e-15 0)
(2 8.7952e-16 0)
(2 1.0104e-15 0)
(2 1.34665e-15 0)
(2 1.96404e-15 0)
(2 2.01803e-15 0)
(2 2.00187e-15 0)
(2 1.89542e-15 0)
(2 1.85815e-15 0)
(2 1.9451e-15 0)
(2 2.0566e-15 0)
(2 2.10199e-15 0)
(2 2.24247e-15 0)
(2 2.80581e-15 0)
(2 3.62787e-15 0)
(2 3.23724e-15 0)
(2 3.04562e-15 0)
(2 2.92973e-15 0)
(2 2.88999e-15 0)
(2 2.9279e-15 0)
(2 2.9803e-15 0)
(2 2.97957e-15 0)
(2 2.86613e-15 0)
(2 2.7328e-15 0)
(2 2.46923e-15 0)
(2 1.95688e-15 0)
(2 1.75845e-15 0)
(2 1.59809e-15 0)
(2 1.4776e-15 0)
(2 1.39573e-15 0)
(2 1.38845e-15 0)
(2 1.25184e-15 0)
(2 9.48601e-16 0)
(2 6.97228e-16 0)
(2 6.33964e-16 0)
(2 6.22746e-16 0)
(2 5.56951e-16 0)
(2 6.11631e-16 0)
(2 9.50939e-16 0)
(2 1.1497e-15 0)
(2 1.18021e-15 0)
(2 1.72406e-15 0)
(2 1.81288e-15 0)
(2 1.93306e-15 0)
(2 2.26021e-15 0)
(2 -2.69014e-15 0)
(2 -2.78037e-15 0)
(2 -2.81306e-15 0)
(2 -2.78013e-15 0)
(2 -2.35645e-15 0)
(2 -2.26679e-15 0)
(2 -1.85904e-15 0)
(2 -1.65329e-15 0)
(2 -1.50318e-15 0)
(2 -1.55499e-15 0)
(2 -1.48022e-15 0)
(2 -1.4789e-15 0)
(2 -1.84547e-15 0)
(2 -1.59018e-15 0)
(2 -1.35076e-15 0)
(2 -1.05829e-15 0)
(2 -1.21145e-15 0)
(2 -1.4796e-15 0)
(2 -1.63569e-15 0)
(2 -1.51437e-15 0)
(2 -1.40926e-15 0)
(2 -1.49799e-15 0)
(2 -1.53294e-15 0)
(2 -1.4961e-15 0)
(2 -1.49387e-15 0)
(2 -1.40627e-15 0)
(2 -1.65763e-15 0)
(2 -2.02604e-15 0)
(2 -1.93241e-15 0)
(2 -1.93165e-15 0)
(2 -1.89519e-15 0)
(2 -1.70997e-15 0)
(2 -1.36985e-15 0)
(2 -1.05331e-15 0)
(2 -6.89727e-16 0)
(2 2.52171e-16 0)
(2 5.93689e-16 0)
(2 6.04529e-16 0)
(2 -5.80942e-17 0)
(2 -5.19629e-16 0)
(2 -7.18533e-16 0)
(2 -1.00282e-15 0)
(2 -1.35457e-15 0)
(2 -1.32136e-15 0)
(2 -1.24329e-15 0)
(2 -1.09413e-15 0)
(2 -1.02219e-15 0)
(2 -9.23325e-16 0)
(2 -7.34719e-16 0)
(2 -6.25713e-16 0)
(2 -5.53659e-16 0)
(2 -5.96029e-16 0)
(2 -6.7202e-16 0)
(2 -7.15045e-16 0)
(2 -7.26131e-16 0)
(2 -6.0136e-16 0)
(2 -3.20696e-16 0)
(2 -4.04913e-17 0)
(2 1.99039e-16 0)
(2 5.51789e-16 0)
(2 8.79921e-16 0)
(2 8.62169e-16 0)
(2 6.61359e-16 0)
(2 4.3879e-16 0)
(2 3.22951e-16 0)
(2 3.02972e-16 0)
(2 -1.20334e-16 0)
(2 -3.50864e-16 0)
(2 -3.12662e-16 0)
(2 8.0139e-17 0)
(2 3.77288e-16 0)
(2 3.89e-16 0)
(2 4.15027e-16 0)
(2 2.58522e-17 0)
(2 -1.55478e-16 0)
(2 4.14658e-16 0)
(2 7.4369e-16 0)
(2 1.16308e-15 0)
(2 1.38091e-15 0)
(2 1.50838e-15 0)
(2 1.44631e-15 0)
(2 1.27995e-15 0)
(2 1.20152e-15 0)
(2 9.432e-16 0)
(2 4.77288e-16 0)
(2 4.45838e-16 0)
(2 6.54106e-16 0)
(2 3.47541e-16 0)
(2 8.71316e-16 0)
(2 1.01788e-15 0)
(2 1.20205e-15 0)
(2 1.34222e-15 0)
(2 1.40989e-15 0)
(2 1.45772e-15 0)
(2 1.47063e-15 0)
(2 1.49805e-15 0)
(2 1.39344e-15 0)
(2 1.17413e-15 0)
(2 9.64269e-16 0)
(2 8.33293e-16 0)
(2 7.65422e-16 0)
(2 8.7059e-16 0)
(2 1.0057e-15 0)
(2 3.17831e-16 0)
(2 1.65909e-16 0)
(2 4.2124e-17 0)
(2 5.34092e-18 0)
(2 -2.83655e-17 0)
(2 -5.78973e-17 0)
(2 -2.64908e-16 0)
(2 -1.5306e-16 0)
(2 4.27985e-16 0)
(2 8.27287e-16 0)
(2 1.14738e-15 0)
(2 1.28329e-15 0)
(2 1.4046e-15 0)
(2 1.85813e-15 0)
(2 2.13634e-15 0)
(2 2.49486e-15 0)
(2 2.89282e-15 0)
(2 -3.17217e-15 0)
(2 -2.91849e-15 0)
(2 -2.45084e-15 0)
(2 -2.18579e-15 0)
(2 -2.21087e-15 0)
(2 -2.14114e-15 0)
(2 -1.94128e-15 0)
(2 -1.83746e-15 0)
(2 -2.01077e-15 0)
(2 -2.34214e-15 0)
(2 -2.58452e-15 0)
(2 -2.42284e-15 0)
(2 -2.4535e-15 0)
(2 -2.64185e-15 0)
(2 -2.53272e-15 0)
(2 -2.63169e-15 0)
(2 -1.66743e-15 0)
(2 -8.80422e-16 0)
(2 -2.64614e-16 0)
(2 -2.05491e-16 0)
(2 -3.63534e-16 0)
(2 -5.03032e-16 0)
(2 -6.00337e-16 0)
(2 -6.38318e-16 0)
(2 -5.86799e-16 0)
(2 -5.62271e-16 0)
(2 -8.9372e-16 0)
(2 -1.14247e-15 0)
(2 -1.15893e-15 0)
(2 -1.24439e-15 0)
(2 -1.37814e-15 0)
(2 -1.49552e-15 0)
(2 -1.68112e-15 0)
(2 -1.8748e-15 0)
(2 -1.75382e-15 0)
(2 -1.32865e-15 0)
(2 -1.24701e-15 0)
(2 -1.48379e-15 0)
(2 -2.22343e-15 0)
(2 -2.84698e-15 0)
(2 -2.89043e-15 0)
(2 -2.79797e-15 0)
(2 -2.93164e-15 0)
(2 -2.54042e-15 0)
(2 -2.11526e-15 0)
(2 -1.88105e-15 0)
(2 -1.66058e-15 0)
(2 -1.63377e-15 0)
(2 -1.5636e-15 0)
(2 -1.41794e-15 0)
(2 -1.28562e-15 0)
(2 -1.17685e-15 0)
(2 -1.03648e-15 0)
(2 -6.29837e-16 0)
(2 -2.16718e-16 0)
(2 2.32168e-16 0)
(2 4.31128e-16 0)
(2 5.41642e-16 0)
(2 1.11744e-15 0)
(2 1.54855e-15 0)
(2 1.81845e-15 0)
(2 1.74153e-15 0)
(2 1.66511e-15 0)
(2 1.58105e-15 0)
(2 1.21267e-15 0)
(2 8.70106e-16 0)
(2 3.63122e-16 0)
(2 2.35246e-16 0)
(2 -7.72067e-17 0)
(2 -3.92714e-16 0)
(2 -5.15652e-16 0)
(2 -7.44676e-16 0)
(2 -9.50491e-16 0)
(2 -7.20583e-16 0)
(2 -6.18546e-16 0)
(2 -2.15978e-16 0)
(2 -6.42646e-17 0)
(2 -8.24695e-17 0)
(2 -1.47485e-16 0)
(2 -6.20351e-16 0)
(2 -8.93814e-16 0)
(2 -9.33994e-16 0)
(2 -7.29014e-16 0)
(2 -4.48648e-16 0)
(2 -3.51824e-16 0)
(2 -3.06187e-16 0)
(2 -1.87591e-17 0)
(2 9.0783e-17 0)
(2 7.45538e-17 0)
(2 -1.97652e-16 0)
(2 -5.14572e-17 0)
(2 2.17431e-17 0)
(2 4.84377e-17 0)
(2 -2.34748e-17 0)
(2 -2.95276e-17 0)
(2 8.21245e-17 0)
(2 1.78999e-17 0)
(2 6.67239e-17 0)
(2 2.78484e-16 0)
(2 6.9993e-16 0)
(2 5.27508e-16 0)
(2 5.2611e-16 0)
(2 1.71294e-17 0)
(2 -2.2824e-16 0)
(2 -4.39816e-16 0)
(2 -6.11648e-16 0)
(2 -6.41596e-16 0)
(2 -5.49627e-16 0)
(2 -3.22599e-16 0)
(2 -3.57573e-16 0)
(2 -2.28044e-16 0)
(2 6.94808e-16 0)
(2 1.20404e-15 0)
(2 1.41232e-15 0)
(2 1.84902e-15 0)
(2 2.51338e-15 0)
(2 2.87459e-15 0)
(2 3.06692e-15 0)
(2 3.11005e-15 0)
(2 3.23767e-15 0)
(2 -4.94807e-16 0)
(2 -1.98969e-16 0)
(2 -9.11793e-17 0)
(2 -1.16386e-16 0)
(2 -7.65544e-17 0)
(2 6.11627e-17 0)