/*--------------------------------*- C++ -*----------------------------------*\
  =========                 |
  \\      /  F ield         | OpenFOAM: The Open Source CFD Toolbox
   \\    /   O peration     | Website:  https://openfoam.org
    \\  /    A nd           | Version:  7
     \\/     M anipulation  |
\*---------------------------------------------------------------------------*/
FoamFile
{
    version     2.0;
    format      ascii;
    class       volVectorField;
    location    "14.5";
    object      U;
}
// * * * * * * * * * * * * * * * * * * * * * * * * * * * * * * * * * * * * * //

dimensions      [0 1 -1 0 0 0 0];

internalField   nonuniform List<vector> 
2413
(
(1.4949 -0.0398355 0)
(1.47359 -0.0380156 0)
(1.45141 -0.0369208 0)
(1.42857 -0.0345496 0)
(1.40561 -0.0299122 0)
(1.38304 -0.0223344 0)
(1.36058 -0.011915 0)
(1.3382 -0.000452288 0)
(1.31672 0.0115169 0)
(1.29745 0.0225872 0)
(1.28198 0.0318046 0)
(1.26965 0.0394423 0)
(1.25882 0.0477471 0)
(1.2478 0.0585069 0)
(1.2379 0.0714608 0)
(1.22543 0.0848697 0)
(1.20878 0.099711 0)
(1.19393 0.122814 0)
(1.18048 0.147897 0)
(1.17119 0.169073 0)
(1.16471 0.183898 0)
(1.16108 0.194311 0)
(1.15971 0.201767 0)
(1.16085 0.206737 0)
(1.16509 0.208708 0)
(1.17191 0.208964 0)
(1.18084 0.208423 0)
(1.19178 0.206505 0)
(1.20533 0.203583 0)
(1.22162 0.199359 0)
(1.24131 0.193074 0)
(1.26335 0.184617 0)
(1.28779 0.174208 0)
(1.31446 0.162419 0)
(1.34362 0.14967 0)
(1.37439 0.13545 0)
(1.40761 0.122113 0)
(1.44115 0.107542 0)
(1.47579 0.092963 0)
(1.51162 0.0787763 0)
(1.54703 0.0621525 0)
(1.58314 0.0472834 0)
(1.61874 0.0308947 0)
(1.65388 0.0149838 0)
(1.6885 0.000326882 0)
(1.72156 -0.0150262 0)
(1.75269 -0.0310513 0)
(1.7828 -0.0448245 0)
(1.8105 -0.0596497 0)
(1.83582 -0.0740885 0)
(1.85929 -0.0869371 0)
(1.88038 -0.099186 0)
(1.89918 -0.109644 0)
(1.91566 -0.119914 0)
(1.93031 -0.127824 0)
(1.94307 -0.133362 0)
(1.9529 -0.141407 0)
(1.96168 -0.146266 0)
(1.96925 -0.148855 0)
(1.97511 -0.152212 0)
(1.97966 -0.15531 0)
(1.98289 -0.157715 0)
(1.98526 -0.15796 0)
(1.98702 -0.157549 0)
(1.98753 -0.158031 0)
(1.98671 -0.157125 0)
(1.98476 -0.155505 0)
(1.98152 -0.154448 0)
(1.97675 -0.152077 0)
(1.97036 -0.149673 0)
(1.96217 -0.147167 0)
(1.95169 -0.144166 0)
(1.93709 -0.141233 0)
(1.91795 -0.135415 0)
(1.89306 -0.132748 0)
(1.85975 -0.132358 0)
(1.82128 -0.130477 0)
(1.78207 -0.133269 0)
(1.74447 -0.144412 0)
(1.72117 -0.158985 0)
(1.70526 -0.170331 0)
(1.69292 -0.17767 0)
(1.68154 -0.185216 0)
(1.67087 -0.194126 0)
(1.65745 -0.194591 0)
(1.63784 -0.187812 0)
(1.6146 -0.175084 0)
(1.56643 -0.127504 0)
(1.65391 -0.00342005 0)
(1.64172 0.000593738 0)
(1.62826 0.0045525 0)
(1.61365 0.0085318 0)
(1.59885 0.0111688 0)
(1.58476 0.0130186 0)
(1.57152 0.0144079 0)
(1.55848 0.0161127 0)
(1.54427 0.0179911 0)
(1.52885 0.0225905 0)
(1.51437 0.0314523 0)
(1.50237 0.0416476 0)
(1.49176 0.0488915 0)
(1.48255 0.0548074 0)
(1.47467 0.0604066 0)
(1.4686 0.0669369 0)
(1.46527 0.0822715 0)
(1.45977 0.0915494 0)
(1.45057 0.100323 0)
(1.44131 0.112541 0)
(1.43858 0.1244 0)
(1.43986 0.135892 0)
(1.44137 0.147246 0)
(1.44568 0.156532 0)
(1.45326 0.162336 0)
(1.46345 0.165083 0)
(1.47605 0.166353 0)
(1.49114 0.165514 0)
(1.50919 0.162746 0)
(1.52905 0.156284 0)
(1.55099 0.148857 0)
(1.57451 0.140787 0)
(1.59892 0.132088 0)
(1.62362 0.121133 0)
(1.65022 0.110313 0)
(1.67767 0.0968253 0)
(1.70655 0.0849039 0)
(1.73497 0.0711466 0)
(1.7632 0.0570982 0)
(1.79091 0.0428804 0)
(1.81832 0.0287227 0)
(1.84445 0.0131224 0)
(1.87037 -0.000551859 0)
(1.89441 -0.0158579 0)
(1.91724 -0.0287319 0)
(1.93832 -0.0400173 0)
(1.95629 -0.0532617 0)
(1.9728 -0.0631371 0)
(1.9869 -0.0722197 0)
(1.9983 -0.0831412 0)
(2.00798 -0.0919466 0)
(2.01557 -0.099704 0)
(2.02149 -0.107851 0)
(2.02587 -0.115194 0)
(2.02953 -0.120728 0)
(2.03212 -0.125171 0)
(2.03329 -0.130824 0)
(2.03347 -0.134924 0)
(2.03347 -0.13828 0)
(2.03324 -0.140956 0)
(2.03221 -0.14272 0)
(2.03047 -0.145055 0)
(2.02861 -0.146903 0)
(2.02635 -0.145716 0)
(2.02355 -0.145024 0)
(2.01991 -0.14502 0)
(2.01543 -0.143759 0)
(2.01014 -0.142687 0)
(2.00365 -0.139828 0)
(1.99595 -0.137232 0)
(1.98673 -0.135713 0)
(1.97527 -0.131318 0)
(1.96039 -0.12796 0)
(1.94091 -0.123244 0)
(1.91524 -0.117471 0)
(1.87928 -0.115 0)
(1.83597 -0.111123 0)
(1.79013 -0.110434 0)
(1.74909 -0.120634 0)
(1.7229 -0.133984 0)
(1.70823 -0.142408 0)
(1.6967 -0.148172 0)
(1.68693 -0.156087 0)
(1.67587 -0.161565 0)
(1.66607 -0.165995 0)
(1.65564 -0.168215 0)
(1.64346 -0.160849 0)
(1.62864 -0.152387 0)
(1.75004 0.0242656 0)
(1.74603 0.0282676 0)
(1.74197 0.0318718 0)
(1.73748 0.0354027 0)
(1.73258 0.0389574 0)
(1.7277 0.0433684 0)
(1.72358 0.04832 0)
(1.72043 0.0532252 0)
(1.71725 0.0580499 0)
(1.7129 0.0609301 0)
(1.70773 0.061416 0)
(1.70372 0.0664285 0)
(1.70123 0.0764781 0)
(1.69785 0.0816181 0)
(1.69468 0.0777015 0)
(1.69487 0.0713945 0)
(1.69941 0.0734088 0)
(1.70554 0.0839293 0)
(1.7073 0.0936479 0)
(1.70327 0.092548 0)
(1.7073 0.0924041 0)
(1.7146 0.0944671 0)
(1.72172 0.101061 0)
(1.73024 0.109297 0)
(1.73802 0.113656 0)
(1.74677 0.114776 0)
(1.75827 0.11504 0)
(1.77312 0.114565 0)
(1.79013 0.113486 0)
(1.80831 0.110155 0)
(1.82772 0.106746 0)
(1.8484 0.100958 0)
(1.86928 0.0942601 0)
(1.88923 0.0858951 0)
(1.90879 0.0783389 0)
(1.92848 0.0674743 0)
(1.94928 0.0595208 0)
(1.96933 0.0508144 0)
(1.9881 0.0433363 0)
(2.00518 0.0336949 0)
(2.02172 0.0262059 0)
(2.03639 0.0169441 0)
(2.04951 0.010369 0)
(2.06061 0.00282406 0)
(2.06967 -0.00369288 0)
(2.07702 -0.00836825 0)
(2.08169 -0.0175388 0)
(2.08511 -0.0228114 0)
(2.0867 -0.0292793 0)
(2.08697 -0.0366467 0)
(2.08603 -0.0429702 0)
(2.08391 -0.0498416 0)
(2.0817 -0.0551286 0)
(2.07821 -0.0632188 0)
(2.07532 -0.0676145 0)
(2.07198 -0.0730682 0)
(2.06902 -0.0781977 0)
(2.06383 -0.0846255 0)
(2.06017 -0.0897542 0)
(2.05759 -0.0944101 0)
(2.05285 -0.0984745 0)
(2.04923 -0.102793 0)
(2.04659 -0.107414 0)
(2.04205 -0.110424 0)
(2.03754 -0.113108 0)
(2.03361 -0.114318 0)
(2.02868 -0.116256 0)
(2.02294 -0.118141 0)
(2.01639 -0.118163 0)
(2.00862 -0.117373 0)
(1.99952 -0.118012 0)
(1.9882 -0.114914 0)
(1.97423 -0.11243 0)
(1.95587 -0.110219 0)
(1.93017 -0.101459 0)
(1.89333 -0.0983811 0)
(1.84638 -0.093158 0)
(1.79351 -0.0863163 0)
(1.74646 -0.0944252 0)
(1.71636 -0.102889 0)
(1.70309 -0.108728 0)
(1.69222 -0.11351 0)
(1.68184 -0.119441 0)
(1.67174 -0.12499 0)
(1.66473 -0.131759 0)
(1.65807 -0.133948 0)
(1.65564 -0.13983 0)
(1.6448 -0.133847 0)
(1.80064 0.0463871 0)
(1.80186 0.0497669 0)
(1.80379 0.0527755 0)
(1.80589 0.0566989 0)
(1.80813 0.0605194 0)
(1.81072 0.063147 0)
(1.81393 0.0646347 0)
(1.81808 0.0664098 0)
(1.82326 0.0684721 0)
(1.82876 0.0691696 0)
(1.83408 0.0658862 0)
(1.83913 0.0617992 0)
(1.84596 0.0643638 0)
(1.85361 0.073103 0)
(1.85866 0.0754899 0)
(1.86317 0.0656758 0)
(1.86967 0.058904 0)
(1.8821 0.0619557 0)
(1.89532 0.070272 0)
(1.9045 0.0692513 0)
(1.91808 0.0541717 0)
(1.9283 0.0448853 0)
(1.93966 0.0458794 0)
(1.95061 0.0481844 0)
(1.96114 0.0498743 0)
(1.97137 0.0484119 0)
(1.98265 0.0419639 0)
(1.99579 0.0384132 0)
(2.00988 0.0409508 0)
(2.0237 0.0394846 0)
(2.03596 0.0318704 0)
(2.04886 0.0257218 0)
(2.06332 0.0259791 0)
(2.07763 0.023927 0)
(2.08994 0.0196023 0)
(2.1016 0.0131822 0)
(2.11305 0.00849382 0)
(2.12308 0.00534304 0)
(2.13095 0.00231609 0)
(2.13688 -0.00360984 0)
(2.14215 -0.00792402 0)
(2.14587 -0.0134696 0)
(2.14773 -0.0188757 0)
(2.14823 -0.02374 0)
(2.14765 -0.0264475 0)
(2.14595 -0.0282239 0)
(2.14279 -0.032263 0)
(2.13852 -0.0351871 0)
(2.13338 -0.0387841 0)
(2.12758 -0.0411912 0)
(2.12104 -0.044457 0)
(2.11442 -0.0452968 0)
(2.10753 -0.0483715 0)
(2.10089 -0.0485001 0)
(2.09404 -0.0516913 0)
(2.0874 -0.0508087 0)
(2.08069 -0.0526683 0)
(2.07403 -0.054353 0)
(2.06742 -0.056421 0)
(2.06172 -0.0573042 0)
(2.05644 -0.0589701 0)
(2.05188 -0.0617614 0)
(2.04735 -0.0656943 0)
(2.04292 -0.0683285 0)
(2.03838 -0.0707769 0)
(2.03383 -0.073796 0)
(2.02971 -0.077729 0)
(2.02336 -0.0804498 0)
(2.01781 -0.0827445 0)
(2.01086 -0.0845701 0)
(2.00265 -0.0864128 0)
(1.99235 -0.0861501 0)
(1.97984 -0.0849169 0)
(1.96315 -0.0844704 0)
(1.93917 -0.0771289 0)
(1.90419 -0.0754249 0)
(1.85498 -0.0690702 0)
(1.79651 -0.057162 0)
(1.74117 -0.066403 0)
(1.71019 -0.076132 0)
(1.69732 -0.0813298 0)
(1.68665 -0.0853336 0)
(1.67684 -0.0904654 0)
(1.6702 -0.0992885 0)
(1.66327 -0.103165 0)
(1.65886 -0.107612 0)
(1.6566 -0.110584 0)
(1.65556 -0.114069 0)
(1.82533 0.0586479 0)
(1.82829 0.0632968 0)
(1.83251 0.0681601 0)
(1.83814 0.0719605 0)
(1.84467 0.074594 0)
(1.85154 0.0774477 0)
(1.85882 0.0803964 0)
(1.86697 0.0825943 0)
(1.87605 0.0848636 0)
(1.88564 0.086735 0)
(1.89599 0.084554 0)
(1.90714 0.078168 0)
(1.91928 0.0742579 0)
(1.93324 0.0772896 0)
(1.94595 0.0801279 0)
(1.95796 0.0705261 0)
(1.968 0.0564451 0)
(1.98085 0.0544416 0)
(1.99621 0.0611449 0)
(2.00992 0.0601639 0)
(2.02991 0.0438531 0)
(2.04414 0.0269255 0)
(2.0584 0.0237847 0)
(2.07081 0.0215308 0)
(2.08547 0.0128332 0)
(2.10009 0.00408367 0)
(2.11299 -0.00581027 0)
(2.12391 -0.0150496 0)
(2.13459 -0.0236158 0)
(2.14448 -0.0269531 0)
(2.15507 -0.0290951 0)
(2.161 -0.0399701 0)
(2.16761 -0.0479588 0)
(2.17609 -0.0494294 0)
(2.18299 -0.0552055 0)
(2.18754 -0.0646666 0)
(2.19154 -0.0704587 0)
(2.19397 -0.0721408 0)
(2.19441 -0.0746491 0)
(2.194 -0.078981 0)
(2.19359 -0.0810651 0)
(2.1909 -0.0832105 0)
(2.1861 -0.086291 0)
(2.18045 -0.0892605 0)
(2.17497 -0.0904472 0)
(2.1698 -0.0901295 0)
(2.16418 -0.0896137 0)
(2.15754 -0.0899261 0)
(2.15002 -0.0897919 0)
(2.14202 -0.089014 0)
(2.13397 -0.0885402 0)
(2.12568 -0.0857858 0)
(2.118 -0.0851198 0)
(2.10973 -0.0808695 0)
(2.10242 -0.080358 0)
(2.09394 -0.0756576 0)
(2.08689 -0.0741246 0)
(2.07912 -0.0708166 0)
(2.07159 -0.0683647 0)
(2.06505 -0.0668028 0)
(2.05842 -0.0621667 0)
(2.05312 -0.0614669 0)
(2.04764 -0.0601848 0)
(2.04196 -0.0578422 0)
(2.03725 -0.0564331 0)
(2.03228 -0.0560689 0)
(2.02712 -0.0567746 0)
(2.02163 -0.0557653 0)
(2.01575 -0.0562839 0)
(2.00916 -0.0558155 0)
(2.00169 -0.057478 0)
(1.99244 -0.0572698 0)
(1.98146 -0.0558522 0)
(1.96728 -0.0566914 0)
(1.94599 -0.0506075 0)
(1.91474 -0.0475705 0)
(1.86515 -0.0435196 0)
(1.8029 -0.0259485 0)
(1.73619 -0.0359752 0)
(1.6996 -0.0407075 0)
(1.68676 -0.0454549 0)
(1.6764 -0.0501847 0)
(1.66955 -0.0586063 0)
(1.66297 -0.0664381 0)
(1.65758 -0.07069 0)
(1.65412 -0.0741448 0)
(1.65251 -0.0785279 0)
(1.65249 -0.0814947 0)
(1.8354 0.0751625 0)
(1.83955 0.077492 0)
(1.84522 0.0789132 0)
(1.85256 0.0809938 0)
(1.86079 0.0839341 0)
(1.86962 0.0857839 0)
(1.87918 0.0859434 0)
(1.88887 0.0867454 0)
(1.89874 0.0900633 0)
(1.90901 0.0938652 0)
(1.92055 0.0938296 0)
(1.93361 0.0888589 0)
(1.94724 0.0843649 0)
(1.96247 0.0850181 0)
(1.97809 0.0862218 0)
(1.9947 0.0773338 0)
(2.00921 0.0603822 0)
(2.02191 0.0524045 0)
(2.03662 0.0553449 0)
(2.05105 0.0523169 0)
(2.07214 0.0341122 0)
(2.0861 0.014632 0)
(2.0989 0.00950325 0)
(2.1103 0.00588257 0)
(2.12644 -0.0083594 0)
(2.14157 -0.0258187 0)
(2.15043 -0.034469 0)
(2.16031 -0.0435588 0)
(2.17345 -0.0557409 0)
(2.17877 -0.0674291 0)
(2.18608 -0.0787371 0)
(2.19432 -0.0867628 0)
(2.19653 -0.0937564 0)
(2.20055 -0.102516 0)
(2.20633 -0.11031 0)
(2.21002 -0.119025 0)
(2.20752 -0.124033 0)
(2.20665 -0.126827 0)
(2.20548 -0.129388 0)
(2.20381 -0.134396 0)
(2.20101 -0.137661 0)
(2.1972 -0.138858 0)
(2.19216 -0.140377 0)
(2.186 -0.141941 0)
(2.17878 -0.143546 0)
(2.17249 -0.142784 0)
(2.16729 -0.139926 0)
(2.16138 -0.1374 0)
(2.15349 -0.134978 0)
(2.14485 -0.132084 0)
(2.13628 -0.128459 0)
(2.128 -0.124542 0)
(2.1203 -0.119391 0)
(2.11258 -0.114124 0)
(2.10513 -0.108432 0)
(2.09713 -0.102717 0)
(2.08998 -0.0979923 0)
(2.08238 -0.0919976 0)
(2.07538 -0.0873212 0)
(2.0691 -0.0838552 0)
(2.06236 -0.0775649 0)
(2.0577 -0.0761639 0)
(2.05177 -0.0721443 0)
(2.04672 -0.0695498 0)
(2.04162 -0.0662594 0)
(2.03613 -0.0627052 0)
(2.03104 -0.0619164 0)
(2.02443 -0.058197 0)
(2.01825 -0.0551283 0)
(2.01107 -0.0532799 0)
(2.00296 -0.0508705 0)
(1.99385 -0.048627 0)
(1.98265 -0.0443278 0)
(1.96957 -0.043556 0)
(1.94971 -0.0365425 0)
(1.92057 -0.0290822 0)
(1.87381 -0.025972 0)
(1.807 -0.00185863 0)
(1.73849 0.000234722 0)
(1.68768 -0.00590718 0)
(1.67737 -0.0127065 0)
(1.66935 -0.020209 0)
(1.66287 -0.028979 0)
(1.65737 -0.0371459 0)
(1.65326 -0.0415831 0)
(1.65129 -0.0459536 0)
(1.65035 -0.050498 0)
(1.65042 -0.0532069 0)
(1.84055 0.0868796 0)
(1.84525 0.0895328 0)
(1.85035 0.092208 0)
(1.85672 0.0954311 0)
(1.86489 0.0972285 0)
(1.87473 0.0972606 0)
(1.88539 0.096984 0)
(1.89627 0.0968407 0)
(1.90712 0.0971673 0)
(1.91817 0.0977048 0)
(1.93 0.0961612 0)
(1.94265 0.0913375 0)
(1.95525 0.0872428 0)
(1.969 0.0872362 0)
(1.98387 0.0874335 0)
(2.00076 0.0803081 0)
(2.01609 0.066974 0)
(2.02865 0.0593524 0)
(2.04242 0.0597788 0)
(2.05728 0.0560163 0)
(2.07658 0.0401968 0)
(2.08989 0.0230492 0)
(2.1013 0.0172308 0)
(2.11288 0.0138811 0)
(2.12789 -0.000380506 0)
(2.1414 -0.0194065 0)
(2.14883 -0.0287811 0)
(2.15659 -0.0349696 0)
(2.16963 -0.050292 0)
(2.17685 -0.0645649 0)
(2.17992 -0.0730136 0)
(2.18905 -0.0877158 0)
(2.19221 -0.097395 0)
(2.1945 -0.107122 0)
(2.20122 -0.12103 0)
(2.20308 -0.130969 0)
(2.20324 -0.136414 0)
(2.20253 -0.146609 0)
(2.20293 -0.152777 0)
(2.20164 -0.161315 0)
(2.19887 -0.164748 0)
(2.19448 -0.168666 0)
(2.19078 -0.173765 0)
(2.18683 -0.174982 0)
(2.18082 -0.178775 0)
(2.17522 -0.183434 0)
(2.17002 -0.184944 0)
(2.16336 -0.185452 0)
(2.15632 -0.185805 0)
(2.1485 -0.185938 0)
(2.14098 -0.184749 0)
(2.13419 -0.182341 0)
(2.1279 -0.178849 0)
(2.12166 -0.173769 0)
(2.11524 -0.167788 0)
(2.10839 -0.161214 0)
(2.10122 -0.153224 0)
(2.09401 -0.144865 0)
(2.08745 -0.136977 0)
(2.07976 -0.125285 0)
(2.0741 -0.118869 0)
(2.06674 -0.107239 0)
(2.06115 -0.100744 0)
(2.05438 -0.0910542 0)
(2.04855 -0.083967 0)
(2.04258 -0.076777 0)
(2.03656 -0.0715273 0)
(2.03066 -0.0682588 0)
(2.02308 -0.0591502 0)
(2.01636 -0.0590012 0)
(2.00806 -0.0549358 0)
(1.99859 -0.047491 0)
(1.98917 -0.0463441 0)
(1.9765 -0.0401041 0)
(1.95936 -0.0321335 0)
(1.93481 -0.0220637 0)
(1.89319 -0.0101201 0)
(1.82103 0.0108368 0)
(1.74763 0.0302529 0)
(1.6815 0.0221165 0)
(1.66736 0.0171437 0)
(1.66016 0.01072 0)
(1.65372 0.00251246 0)
(1.64893 -0.0058572 0)
(1.64586 -0.0112342 0)
(1.64509 -0.0166442 0)
(1.64516 -0.0219501 0)
(1.64554 -0.0249229 0)
(1.83978 0.101561 0)
(1.84612 0.102661 0)
(1.85236 0.104114 0)
(1.85871 0.106239 0)
(1.86588 0.108269 0)
(1.87514 0.107889 0)
(1.88605 0.105918 0)
(1.89726 0.104824 0)
(1.90853 0.104876 0)
(1.91978 0.10511 0)
(1.93115 0.104377 0)
(1.94285 0.10111 0)
(1.95453 0.0972554 0)
(1.96673 0.0962733 0)
(1.98021 0.0950385 0)
(1.99647 0.0881043 0)
(2.0119 0.0761693 0)
(2.02427 0.0679984 0)
(2.03658 0.0654011 0)
(2.05117 0.0587134 0)
(2.06815 0.0442027 0)
(2.08096 0.0294773 0)
(2.09143 0.0213343 0)
(2.10314 0.0152214 0)
(2.11604 0.00355751 0)
(2.12828 -0.0136004 0)
(2.13546 -0.0260903 0)
(2.14252 -0.0318201 0)
(2.15156 -0.0412621 0)
(2.16245 -0.058361 0)
(2.16657 -0.0701192 0)
(2.17032 -0.0775605 0)
(2.17605 -0.0886506 0)
(2.17919 -0.0993536 0)
(2.18233 -0.111038 0)
(2.1843 -0.122013 0)
(2.18515 -0.128029 0)
(2.18598 -0.135334 0)
(2.18665 -0.145921 0)
(2.18672 -0.155152 0)
(2.18488 -0.162118 0)
(2.18281 -0.167871 0)
(2.17941 -0.174431 0)
(2.17417 -0.180311 0)
(2.17211 -0.18305 0)
(2.16935 -0.18786 0)
(2.16359 -0.195427 0)
(2.15787 -0.199632 0)
(2.15362 -0.200095 0)
(2.14765 -0.202121 0)
(2.14188 -0.204903 0)
(2.1368 -0.2066 0)
(2.13169 -0.207926 0)
(2.12686 -0.207788 0)
(2.12195 -0.20721 0)
(2.1167 -0.206007 0)
(2.11122 -0.203488 0)
(2.10565 -0.199844 0)
(2.09992 -0.19447 0)
(2.09434 -0.188063 0)
(2.08835 -0.179376 0)
(2.08246 -0.170281 0)
(2.07656 -0.160385 0)
(2.06926 -0.146817 0)
(2.06361 -0.136944 0)
(2.05634 -0.124011 0)
(2.04885 -0.110644 0)
(2.04337 -0.104754 0)
(2.03347 -0.0889839 0)
(2.02697 -0.0817538 0)
(2.01817 -0.073999 0)
(2.00962 -0.06512 0)
(1.99988 -0.0559412 0)
(1.98961 -0.0496098 0)
(1.97556 -0.0398537 0)
(1.95636 -0.0283778 0)
(1.92596 -0.0157277 0)
(1.85797 0.01565 0)
(1.76626 0.0403826 0)
(1.69032 0.0513611 0)
(1.65636 0.045452 0)
(1.649 0.0393723 0)
(1.64336 0.03128 0)
(1.63959 0.0232657 0)
(1.63773 0.0173623 0)
(1.63792 0.0109645 0)
(1.6389 0.00463536 0)
(1.63984 0.00158411 0)
(1.83775 0.116741 0)
(1.8451 0.11579 0)
(1.85248 0.115468 0)
(1.85945 0.117089 0)
(1.86648 0.118863 0)
(1.87429 0.118807 0)
(1.8831 0.117709 0)
(1.89316 0.11677 0)
(1.90446 0.115662 0)
(1.91653 0.113422 0)
(1.92869 0.109894 0)
(1.94049 0.105815 0)
(1.95171 0.102938 0)
(1.96305 0.101605 0)
(1.97603 0.0981967 0)
(1.99096 0.0908308 0)
(2.00411 0.0832628 0)
(2.0158 0.0796796 0)
(2.02751 0.0764067 0)
(2.04186 0.0672106 0)
(2.05535 0.056308 0)
(2.06602 0.0490722 0)
(2.07636 0.0407685 0)
(2.08876 0.029159 0)
(2.09958 0.0201873 0)
(2.10759 0.0130102 0)
(2.11641 -0.000335346 0)
(2.1256 -0.0151399 0)
(2.13293 -0.0227836 0)
(2.13854 -0.0285092 0)
(2.14655 -0.0424704 0)
(2.1532 -0.0584589 0)
(2.15681 -0.0667475 0)
(2.15972 -0.0718396 0)
(2.16283 -0.0829152 0)
(2.16751 -0.0972216 0)
(2.16909 -0.108666 0)
(2.17007 -0.114805 0)
(2.1705 -0.121502 0)
(2.17124 -0.131848 0)
(2.17175 -0.14223 0)
(2.17064 -0.151609 0)
(2.1688 -0.158896 0)
(2.16569 -0.164876 0)
(2.16134 -0.172325 0)
(2.16049 -0.17688 0)
(2.15684 -0.184046 0)
(2.1509 -0.188683 0)
(2.14859 -0.193497 0)
(2.14406 -0.196803 0)
(2.13822 -0.200087 0)
(2.13471 -0.202231 0)
(2.13042 -0.204393 0)
(2.12519 -0.206239 0)
(2.12104 -0.206827 0)
(2.1168 -0.208071 0)
(2.11266 -0.209215 0)
(2.10847 -0.210015 0)
(2.10434 -0.210251 0)
(2.10028 -0.210072 0)
(2.09664 -0.208771 0)
(2.09279 -0.206777 0)
(2.0884 -0.203733 0)
(2.08356 -0.199249 0)
(2.07822 -0.19236 0)
(2.07244 -0.184581 0)
(2.06581 -0.174377 0)
(2.05851 -0.162121 0)
(2.05122 -0.150626 0)
(2.04227 -0.133129 0)
(2.03573 -0.124496 0)
(2.02346 -0.103344 0)
(2.01646 -0.0956773 0)
(2.00419 -0.0801815 0)
(1.99208 -0.0654587 0)
(1.97873 -0.0563868 0)
(1.95282 -0.0329823 0)
(1.90947 -0.0124412 0)
(1.81276 0.0343939 0)
(1.71264 0.0676004 0)
(1.64887 0.0725428 0)
(1.63614 0.0667828 0)
(1.63272 0.0583124 0)
(1.63 0.0503669 0)
(1.62796 0.0458193 0)
(1.62661 0.040635 0)
(1.6262 0.034869 0)
(1.62752 0.0310092 0)
(1.83533 0.132345 0)
(1.84091 0.132028 0)
(1.84823 0.131382 0)
(1.85686 0.130188 0)
(1.86569 0.128832 0)
(1.87375 0.128773 0)
(1.88156 0.128819 0)
(1.89046 0.127401 0)
(1.90055 0.125683 0)
(1.91164 0.123534 0)
(1.92356 0.12025 0)
(1.93542 0.116324 0)
(1.94656 0.112514 0)
(1.95749 0.10976 0)
(1.96909 0.107518 0)
(1.98217 0.101767 0)
(1.99537 0.0925212 0)
(2.00634 0.0869683 0)
(2.01764 0.0844708 0)
(2.03102 0.0763238 0)
(2.04473 0.0628001 0)
(2.05431 0.0546924 0)
(2.06381 0.0507553 0)
(2.07595 0.0404161 0)
(2.08777 0.0257394 0)
(2.09506 0.0167333 0)
(2.10192 0.0118523 0)
(2.11134 0.00032951 0)
(2.12069 -0.0147322 0)
(2.12574 -0.0239363 0)
(2.13068 -0.0286979 0)
(2.13758 -0.0396777 0)
(2.14472 -0.0542348 0)
(2.14738 -0.0639528 0)
(2.14979 -0.0685788 0)
(2.15238 -0.0766258 0)
(2.15716 -0.0885719 0)
(2.15879 -0.0995794 0)
(2.15911 -0.106368 0)
(2.15932 -0.111558 0)
(2.15932 -0.119215 0)
(2.15983 -0.128171 0)
(2.15952 -0.137302 0)
(2.1575 -0.14471 0)
(2.15428 -0.149645 0)
(2.14967 -0.155056 0)
(2.1475 -0.161283 0)
(2.14592 -0.168893 0)
(2.14212 -0.174567 0)
(2.13811 -0.178654 0)
(2.1324 -0.183291 0)
(2.12984 -0.188892 0)
(2.12751 -0.194753 0)
(2.12324 -0.197137 0)
(2.11894 -0.199983 0)
(2.11716 -0.203568 0)
(2.11238 -0.205284 0)
(2.10823 -0.206269 0)
(2.10539 -0.206953 0)
(2.10145 -0.207073 0)
(2.09772 -0.207011 0)
(2.09417 -0.206672 0)
(2.09044 -0.206518 0)
(2.0868 -0.206187 0)
(2.08316 -0.205228 0)
(2.07948 -0.204058 0)
(2.07548 -0.201565 0)
(2.07091 -0.199322 0)
(2.0655 -0.194659 0)
(2.05967 -0.188521 0)
(2.05271 -0.180184 0)
(2.0446 -0.170268 0)
(2.03466 -0.154529 0)
(2.02586 -0.144419 0)
(2.01213 -0.122643 0)
(2.0007 -0.108941 0)
(1.98399 -0.0917233 0)
(1.9501 -0.0509615 0)
(1.89657 -0.0293607 0)
(1.7585 0.0601802 0)
(1.66241 0.0921764 0)
(1.62043 0.0903425 0)
(1.61699 0.0843618 0)
(1.6155 0.0766753 0)
(1.61553 0.0712606 0)
(1.61585 0.0665699 0)
(1.61689 0.0605835 0)
(1.6189 0.0566338 0)
(1.83766 0.142388 0)
(1.84172 0.144615 0)
(1.8479 0.143239 0)
(1.855 0.142446 0)
(1.86257 0.14191 0)
(1.87162 0.139974 0)
(1.88089 0.137437 0)
(1.8893 0.13715 0)
(1.89758 0.137441 0)
(1.90776 0.134678 0)
(1.9189 0.130418 0)
(1.92941 0.127993 0)
(1.93967 0.125728 0)
(1.9517 0.119826 0)
(1.96377 0.112832 0)
(1.97501 0.109628 0)
(1.98553 0.10558 0)
(1.99817 0.096813 0)
(2.00931 0.0897693 0)
(2.02027 0.0867941 0)
(2.03127 0.079119 0)
(2.04367 0.066516 0)
(2.0527 0.0586727 0)
(2.06176 0.0562302 0)
(2.07086 0.0479777 0)
(2.08273 0.0332138 0)
(2.08959 0.0225311 0)
(2.09582 0.0193044 0)
(2.10161 0.0117514 0)
(2.11209 -0.00255291 0)
(2.11758 -0.0146919 0)
(2.12184 -0.0187622 0)
(2.12493 -0.0252856 0)
(2.13284 -0.0381951 0)
(2.13705 -0.0508494 0)
(2.13925 -0.0563573 0)
(2.14012 -0.061225 0)
(2.14401 -0.0714268 0)
(2.14742 -0.0831331 0)
(2.1478 -0.0908346 0)
(2.14794 -0.095268 0)
(2.14764 -0.102089 0)
(2.14828 -0.11087 0)
(2.14836 -0.120103 0)
(2.14612 -0.12747 0)
(2.14321 -0.13305 0)
(2.13954 -0.138887 0)
(2.13777 -0.144742 0)
(2.13634 -0.151347 0)
(2.13308 -0.15764 0)
(2.12882 -0.161679 0)
(2.1238 -0.165038 0)
(2.12058 -0.17063 0)
(2.11827 -0.176274 0)
(2.11478 -0.177837 0)
(2.11197 -0.1814 0)
(2.10881 -0.186798 0)
(2.10469 -0.188557 0)
(2.10063 -0.190928 0)
(2.09914 -0.194258 0)
(2.09664 -0.19767 0)
(2.09348 -0.198413 0)
(2.09027 -0.200253 0)
(2.08797 -0.201131 0)
(2.0847 -0.201598 0)
(2.08121 -0.200662 0)
(2.07746 -0.200175 0)
(2.07339 -0.200303 0)
(2.06913 -0.199495 0)
(2.06477 -0.198373 0)
(2.05992 -0.197824 0)
(2.05437 -0.195424 0)
(2.04838 -0.192312 0)
(2.04122 -0.187235 0)
(2.03247 -0.179941 0)
(2.02206 -0.168964 0)
(2.00958 -0.15694 0)
(1.99066 -0.13449 0)
(1.95714 -0.102935 0)
(1.87087 -0.0436758 0)
(1.71786 0.0707385 0)
(1.63524 0.0933992 0)
(1.60508 0.0990856 0)
(1.60336 0.0964875 0)
(1.60194 0.0932093 0)
(1.60176 0.090319 0)
(1.60249 0.0851024 0)
(1.60664 0.0787369 0)
(1.83651 0.154911 0)
(1.84333 0.150811 0)
(1.84877 0.152967 0)
(1.85351 0.155811 0)
(1.86106 0.153348 0)
(1.86937 0.150549 0)
(1.87724 0.149797 0)
(1.88668 0.147879 0)
(1.89691 0.144685 0)
(1.90619 0.142683 0)
(1.91499 0.141229 0)
(1.92505 0.138132 0)
(1.93583 0.134492 0)
(1.94598 0.131015 0)
(1.95675 0.12527 0)
(1.96754 0.119712 0)
(1.97806 0.117061 0)
(1.98871 0.111402 0)
(2.00115 0.10126 0)
(2.01143 0.094581 0)
(2.02083 0.0919117 0)
(2.03061 0.0839244 0)
(2.04297 0.0714405 0)
(2.052 0.0626784 0)
(2.06035 0.0590174 0)
(2.06771 0.0514477 0)
(2.07876 0.0383689 0)
(2.08566 0.027349 0)
(2.09171 0.0225272 0)
(2.09705 0.0160853 0)
(2.10642 0.00386483 0)
(2.11186 -0.00793307 0)
(2.11578 -0.0136043 0)
(2.11915 -0.0193905 0)
(2.12615 -0.0305477 0)
(2.13027 -0.0422583 0)
(2.13196 -0.0484313 0)
(2.13341 -0.0527988 0)
(2.13683 -0.0616257 0)
(2.13997 -0.0719305 0)
(2.14005 -0.079551 0)
(2.13996 -0.0839163 0)
(2.13923 -0.0891614 0)
(2.13891 -0.0965177 0)
(2.13856 -0.104504 0)
(2.13638 -0.111529 0)
(2.13327 -0.116136 0)
(2.12948 -0.119834 0)
(2.12626 -0.125185 0)
(2.12546 -0.131106 0)
(2.12277 -0.137938 0)
(2.11911 -0.141765 0)
(2.11429 -0.144967 0)
(2.11168 -0.150538 0)
(2.11002 -0.156337 0)
(2.10682 -0.158242 0)
(2.10471 -0.163147 0)
(2.10222 -0.169775 0)
(2.09842 -0.171929 0)
(2.09543 -0.174569 0)
(2.09404 -0.179727 0)
(2.09176 -0.183699 0)
(2.08917 -0.184333 0)
(2.08611 -0.186946 0)
(2.0845 -0.190713 0)
(2.08097 -0.192664 0)
(2.07713 -0.193937 0)
(2.0742 -0.194636 0)
(2.07032 -0.194948 0)
(2.06596 -0.194534 0)
(2.06117 -0.194839 0)
(2.05636 -0.195638 0)
(2.05162 -0.194706 0)
(2.04626 -0.193224 0)
(2.03968 -0.191568 0)
(2.03243 -0.189848 0)
(2.02365 -0.186666 0)
(2.01225 -0.179968 0)
(1.99629 -0.17172 0)
(1.95737 -0.145654 0)
(1.85042 -0.0551114 0)
(1.70661 0.0479699 0)
(1.62669 0.0902715 0)
(1.59111 0.110638 0)
(1.58691 0.113871 0)
(1.58721 0.110419 0)
(1.59274 0.102053 0)
(1.59894 0.0942238 0)
(1.82464 0.183764 0)
(1.83309 0.17754 0)
(1.84532 0.167357 0)
(1.85383 0.15985 0)
(1.86076 0.160623 0)
(1.86647 0.163047 0)
(1.87552 0.159304 0)
(1.88452 0.155807 0)
(1.89282 0.155698 0)
(1.9024 0.153676 0)
(1.91263 0.148989 0)
(1.92178 0.145453 0)
(1.93104 0.143715 0)
(1.94056 0.142052 0)
(1.95097 0.137022 0)
(1.96211 0.129312 0)
(1.97174 0.125231 0)
(1.98104 0.122711 0)
(1.99239 0.115352 0)
(2.00338 0.106742 0)
(2.0128 0.101591 0)
(2.02177 0.0958366 0)
(2.03082 0.0882963 0)
(2.04066 0.0796686 0)
(2.05053 0.0703643 0)
(2.05804 0.0635956 0)
(2.06373 0.0584648 0)
(2.07273 0.0483062 0)
(2.08147 0.0363723 0)
(2.08707 0.0299534 0)
(2.09107 0.0260324 0)
(2.09863 0.0157116 0)
(2.10564 0.00299009 0)
(2.10947 -0.00361777 0)
(2.11184 -0.00730362 0)
(2.11695 -0.0166719 0)
(2.12243 -0.028433 0)
(2.12457 -0.0356357 0)
(2.12581 -0.0391203 0)
(2.12705 -0.0461741 0)
(2.1304 -0.0556774 0)
(2.13145 -0.0643999 0)
(2.1313 -0.0698065 0)
(2.13023 -0.074165 0)
(2.12861 -0.0805593 0)
(2.12837 -0.0877447 0)
(2.12762 -0.0957585 0)
(2.12459 -0.10107 0)
(2.12094 -0.104599 0)
(2.11729 -0.109284 0)
(2.11623 -0.114246 0)
(2.11424 -0.12083 0)
(2.11108 -0.124962 0)
(2.10673 -0.127091 0)
(2.10416 -0.131963 0)
(2.10217 -0.13706 0)
(2.09905 -0.139321 0)
(2.09641 -0.14296 0)
(2.0937 -0.147068 0)
(2.09057 -0.14994 0)
(2.0877 -0.153487 0)
(2.08622 -0.158671 0)
(2.08424 -0.162763 0)
(2.08168 -0.164198 0)
(2.08 -0.168352 0)
(2.07655 -0.172121 0)
(2.07317 -0.175815 0)
(2.07188 -0.180112 0)
(2.06856 -0.182531 0)
(2.06444 -0.183596 0)
(2.06033 -0.185599 0)
(2.0565 -0.185618 0)
(2.05089 -0.185819 0)
(2.04564 -0.185422 0)
(2.03991 -0.186051 0)
(2.03363 -0.185598 0)
(2.02596 -0.185267 0)
(2.01609 -0.182357 0)
(2.00343 -0.181049 0)
(1.98809 -0.179486 0)
(1.95197 -0.156003 0)
(1.86484 -0.0905648 0)
(1.69878 0.0442766 0)
(1.61519 0.109029 0)
(1.58082 0.123346 0)
(1.57976 0.123126 0)
(1.58605 0.117833 0)
(1.59388 0.110182 0)
(1.81828 0.20407 0)
(1.82609 0.198272 0)
(1.83395 0.193598 0)
(1.84152 0.188446 0)
(1.85449 0.178515 0)
(1.86514 0.168626 0)
(1.87327 0.168205 0)
(1.88033 0.168424 0)
(1.89054 0.162856 0)
(1.89951 0.159793 0)
(1.90749 0.159416 0)
(1.91714 0.155701 0)
(1.92798 0.149186 0)
(1.93698 0.145676 0)
(1.94622 0.144835 0)
(1.95644 0.140915 0)
(1.96529 0.136551 0)
(1.97501 0.130727 0)
(1.98582 0.12263 0)
(1.99466 0.11928 0)
(2.00245 0.116936 0)
(2.01422 0.107278 0)
(2.02324 0.0963302 0)
(2.03042 0.0934979 0)
(2.0379 0.0887063 0)
(2.04941 0.077041 0)
(2.05635 0.0671088 0)
(2.06219 0.0638159 0)
(2.06952 0.0564472 0)
(2.07877 0.0445849 0)
(2.08378 0.0364319 0)
(2.08801 0.0326087 0)
(2.09433 0.023758 0)
(2.10124 0.0120938 0)
(2.10472 0.00513447 0)
(2.10763 0.000850906 0)
(2.11197 -0.00742649 0)
(2.11679 -0.0173861 0)
(2.11895 -0.0252163 0)
(2.1202 -0.0302825 0)
(2.12079 -0.035612 0)
(2.12324 -0.0437362 0)
(2.12489 -0.0522599 0)
(2.12429 -0.0585765 0)
(2.1229 -0.0624556 0)
(2.12067 -0.0665205 0)
(2.11904 -0.0725977 0)
(2.11872 -0.0798314 0)
(2.11632 -0.086231 0)
(2.11269 -0.0894597 0)
(2.10878 -0.0926082 0)
(2.10643 -0.0973232 0)
(2.10553 -0.103089 0)
(2.10284 -0.107925 0)
(2.09907 -0.10972 0)
(2.09595 -0.113529 0)
(2.09428 -0.11879 0)
(2.09205 -0.123058 0)
(2.08917 -0.125533 0)
(2.08649 -0.128282 0)
(2.08415 -0.132301 0)
(2.0815 -0.136246 0)
(2.07963 -0.140529 0)
(2.07752 -0.144098 0)
(2.07507 -0.146458 0)
(2.07255 -0.149798 0)
(2.0691 -0.152897 0)
(2.06602 -0.157303 0)
(2.06407 -0.16203 0)
(2.0606 -0.164093 0)
(2.05743 -0.167818 0)
(2.05411 -0.171604 0)
(2.04842 -0.173473 0)
(2.044 -0.176846 0)
(2.04035 -0.17871 0)
(2.03448 -0.181444 0)
(2.02762 -0.181336 0)
(2.01854 -0.180544 0)
(2.00679 -0.178954 0)
(1.99215 -0.176263 0)
(1.97799 -0.178726 0)
(1.94816 -0.160006 0)
(1.85976 -0.088741 0)
(1.74001 0.0110926 0)
(1.61723 0.119407 0)
(1.57733 0.129694 0)
(1.58001 0.126233 0)
(1.58499 0.125488 0)
(1.82072 0.207184 0)
(1.82321 0.208788 0)
(1.82886 0.209948 0)
(1.83618 0.206335 0)
(1.84444 0.201824 0)
(1.85273 0.197586 0)
(1.86495 0.189146 0)
(1.87681 0.178051 0)
(1.88516 0.176058 0)
(1.89387 0.172848 0)
(1.90467 0.164554 0)
(1.9132 0.163074 0)
(1.91988 0.162608 0)
(1.93172 0.156332 0)
(1.94265 0.147974 0)
(1.95155 0.145509 0)
(1.95986 0.144904 0)
(1.96961 0.139847 0)
(1.97993 0.131203 0)
(1.98793 0.126272 0)
(1.99624 0.124676 0)
(2.00563 0.119007 0)
(2.01565 0.108304 0)
(2.02282 0.101861 0)
(2.03018 0.0993987 0)
(2.0384 0.0925826 0)
(2.04811 0.0814704 0)
(2.05452 0.0737925 0)
(2.06064 0.0707204 0)
(2.06702 0.0640513 0)
(2.07555 0.0527087 0)
(2.08049 0.0441616 0)
(2.08473 0.0401679 0)
(2.08939 0.0336584 0)
(2.09595 0.0237617 0)
(2.10039 0.0146752 0)
(2.10331 0.00943405 0)
(2.10501 0.00519681 0)
(2.1093 -0.00342192 0)
(2.11305 -0.0136988 0)
(2.11387 -0.0198292 0)
(2.11394 -0.022772 0)
(2.11447 -0.0285346 0)
(2.1163 -0.0363947 0)
(2.11648 -0.0443782 0)
(2.11471 -0.0494499 0)
(2.11231 -0.0525787 0)
(2.10963 -0.0573377 0)
(2.1089 -0.0633652 0)
(2.10766 -0.0703584 0)
(2.10465 -0.074505 0)
(2.10104 -0.077154 0)
(2.09813 -0.0814987 0)
(2.09733 -0.0866068 0)
(2.09508 -0.0917298 0)
(2.09198 -0.0938141 0)
(2.08849 -0.0960067 0)
(2.0861 -0.100519 0)
(2.08438 -0.105104 0)
(2.08198 -0.108007 0)
(2.07942 -0.110673 0)
(2.07683 -0.113545 0)
(2.07377 -0.116067 0)
(2.07128 -0.119775 0)
(2.06955 -0.124272 0)
(2.06729 -0.128138 0)
(2.06411 -0.130661 0)
(2.06012 -0.132887 0)
(2.0568 -0.136869 0)
(2.05527 -0.141592 0)
(2.05229 -0.14567 0)
(2.04878 -0.148307 0)
(2.04393 -0.150367 0)
(2.03872 -0.15548 0)
(2.03663 -0.159114 0)
(2.03049 -0.161392 0)
(2.02354 -0.163551 0)
(2.01695 -0.165605 0)
(2.00691 -0.165696 0)
(1.99335 -0.166515 0)
(1.97827 -0.16558 0)
(1.96394 -0.166042 0)
(1.94133 -0.152781 0)
(1.87438 -0.0966664 0)
(1.73539 0.0289922 0)
(1.63754 0.0947516 0)
(1.59506 0.116916 0)
(1.58977 0.133243 0)
(1.82545 0.198557 0)
(1.83108 0.200533 0)
(1.83534 0.206699 0)
(1.83693 0.20913 0)
(1.8421 0.212144 0)
(1.84847 0.211595 0)
(1.85604 0.208796 0)
(1.86478 0.204831 0)
(1.87592 0.197811 0)
(1.88755 0.188626 0)
(1.89757 0.182029 0)
(1.90682 0.177482 0)
(1.91778 0.169301 0)
(1.92646 0.165762 0)
(1.93285 0.163946 0)
(1.94492 0.156654 0)
(1.95593 0.147484 0)
(1.96413 0.145228 0)
(1.9715 0.143199 0)