/*--------------------------------*- C++ -*----------------------------------*\
  =========                 |
  \\      /  F ield         | OpenFOAM: The Open Source CFD Toolbox
   \\    /   O peration     | Website:  https://openfoam.org
    \\  /    A nd           | Version:  7
     \\/     M anipulation  |
\*---------------------------------------------------------------------------*/
FoamFile
{
    version     2.0;
    format      ascii;
    class       volScalarField;
    location    "10";
    object      rho;
}
// * * * * * * * * * * * * * * * * * * * * * * * * * * * * * * * * * * * * * //

dimensions      [1 -3 0 0 0 0 0];

internalField   nonuniform List<scalar> 
2413
(
1.40001
1.40001
1.40001
1.40001
1.40001
1.40001
1.40001
1.40001
1.40001
1.40001
1.40001
1.40001
1.40001
1.40001
1.40001
1.40001
1.40001
1.40001
1.40001
1.40001
1.40001
1.40001
1.40001
1.40001
1.40001
1.40001
1.40001
1.40001
1.40001
1.40001
1.40001
1.40001
1.40001
1.40001
1.40001
1.40001
1.40001
1.40001
1.40001
1.40001
1.40001
1.40001
1.40001
1.40001
1.40001
1.40001
1.40001
1.40001
1.40001
1.40001
1.40001
1.40001
1.40001
1.40001
1.40001
1.40001
1.40001
1.40001
1.40001
1.40001
1.40001
1.40001
1.40001
1.40001
1.40001
1.40001
1.40001
1.40001
1.40001
1.40001
1.40001
1.40001
1.40001
1.40001
1.40001
1.40001
1.40001
1.40001
1.40001
1.40001
1.40001
1.40001
1.40001
1.40001
1.40001
1.40001
1.40001
1.40001
1.40001
1.40001
1.40001
1.40001
1.40001
1.40001
1.40001
1.40001
1.40001
1.40001
1.40001
1.40001
1.40001
1.40001
1.40001
1.40001
1.40001
1.40001
1.40001
1.40001
1.40001
1.40001
1.40001
1.40001
1.40001
1.40001
1.40001
1.40001
1.40001
1.40001
1.40001
1.40001
1.40001
1.40001
1.40001
1.40001
1.40001
1.40001
1.40001
1.40001
1.40001
1.40001
1.40001
1.40001
1.40001
1.40001
1.40001
1.40001
1.40001
1.40001
1.40001
1.40001
1.40001
1.40001
1.40001
1.40001
1.40001
1.40001
1.40001
1.40001
1.40001
1.40001
1.40001
1.40001
1.60482
1.60172
1.5971
1.59014
1.58461
1.57932
1.57442
1.57118
1.56801
1.56441
1.56156
1.55934
1.55657
1.55288
1.54953
1.54659
1.54332
1.54041
1.53752
1.53486
1.53207
1.52878
1.52551
1.52266
1.52023
1.51805
1.51459
1.51181
1.50976
1.50691
1.50407
1.50169
1.49912
1.49626
1.49384
1.49179
1.48974
1.48681
1.48464
1.48285
1.48057
1.47829
1.47591
1.4731
1.47007
1.46657
1.46384
1.46187
1.46077
1.4613
1.46243
1.46505
1.47258
1.49331
1.53211
1.58823
1.65499
1.70833
1.75032
1.78317
1.79633
1.80083
1.80314
1.80225
1.80064
1.79806
1.7935
1.78736
1.78099
1.77508
1.77026
1.76551
1.76046
1.7548
1.74905
1.74532
1.74659
1.75805
1.80546
1.89746
2.02208
2.13657
2.18322
2.20097
2.20079
2.19029
2.17895
2.1694
2.16011
2.15065
2.14128
2.1323
2.1238
2.11563
2.10769
1.40001
1.40001
1.40001
1.40001
1.40001
1.40001
1.40001
1.40002
1.40003
1.40004
1.40006
1.4001
1.40013
1.4002
1.40029
1.40045
1.40091
1.40197
1.40495
1.41469
1.43764
1.48256
1.54896
1.59822
1.61109
1.61278
1.61191
1.6097
1.60401
1.59734
1.59064
1.5852
1.58121
1.57707
1.57321
1.57121
1.56908
1.56563
1.56171
1.55866
1.55556
1.55203
1.54866
1.54596
1.54342
1.54017
1.53668
1.53354
1.5307
1.52846
1.52578
1.52227
1.52009
1.51772
1.51472
1.51196
1.5093
1.5068
1.50396
1.50104
1.49886
1.49641
1.49334
1.49132
1.48931
1.48694
1.48494
1.48316
1.48086
1.47845
1.47532
1.47215
1.46917
1.46591
1.46425
1.46369
1.46416
1.4655
1.46839
1.47603
1.49542
1.53419
1.58791
1.6541
1.70766
1.74775
1.77662
1.79455
1.80089
1.80312
1.80293
1.80119
1.79797
1.79315
1.78696
1.78035
1.77292
1.76582
1.7613
1.76004
1.76505
1.78959
1.85367
1.9824
2.09364
2.18071
2.22454
2.22874
2.22303
2.20712
2.19238
2.18025
2.17042
2.1623
2.15476
2.14717
2.1391
2.13045
2.12135
2.11222
1.40001
1.40001
1.40001
1.40001
1.40001
1.40001
1.40001
1.40001
1.40001
1.40001
1.40002
1.40003
1.40005
1.40007
1.40011
1.40018
1.40034
1.40079
1.4019
1.40572
1.41716
1.44255
1.49774
1.5657
1.60639
1.61859
1.62037
1.61974
1.61548
1.60876
1.60178
1.59593
1.59074
1.58538
1.58217
1.58082
1.57826
1.57427
1.57069
1.56779
1.56428
1.56028
1.557
1.55456
1.55168
1.54806
1.54473
1.54187
1.53921
1.53655
1.53312
1.53057
1.52842
1.52546
1.52235
1.51959
1.51703
1.51485
1.51157
1.50841
1.50622
1.50337
1.50055
1.49827
1.49585
1.49341
1.49136
1.48972
1.48787
1.48553
1.48307
1.48054
1.47768
1.47426
1.47117
1.46888
1.4671
1.46662
1.46739
1.46878
1.47129
1.47884
1.49705
1.53494
1.58804
1.65239
1.70856
1.74527
1.77249
1.78962
1.79929
1.80203
1.80197
1.80042
1.7971
1.79171
1.78458
1.77624
1.77544
1.78457
1.82879
1.91864
2.04702
2.17293
2.22544
2.24357
2.241
2.22876
2.21575
2.20258
2.19063
2.18119
2.17365
2.16707
2.16023
2.152
2.14238
2.13264
2.12398
2.11629
1.40001
1.40001
1.40001
1.40001
1.40001
1.40001
1.40001
1.40001
1.40001
1.40001
1.40001
1.40001
1.40001
1.40002
1.40003
1.40006
1.40011
1.40026
1.40069
1.40197
1.40669
1.4191
1.44962
1.51501
1.57698
1.61552
1.62579
1.62657
1.62391
1.61864
1.6126
1.60679
1.60037
1.59398
1.59158
1.59009
1.58679
1.58275
1.57968
1.57661
1.57271
1.56866
1.56574
1.5631
1.55967
1.55596
1.55296
1.55024
1.54744
1.54416
1.5412
1.53915
1.53644
1.53309
1.53
1.52726
1.52502
1.52251
1.51866
1.51609
1.5137
1.51065
1.50792
1.50533
1.5029
1.50047
1.49804
1.49628
1.49438
1.49178
1.48984
1.48775
1.48517
1.48249
1.47963
1.47704
1.47425
1.4715
1.4704
1.46985
1.47033
1.47151
1.47387
1.48142
1.49938
1.53529
1.58828
1.64767
1.71088
1.7462
1.77004
1.78496
1.79398
1.79873
1.79851
1.79595
1.79261
1.79499
1.81498
1.87988
1.99929
2.12119
2.21868
2.25129
2.26189
2.25637
2.24254
2.22646
2.2113
2.19999
2.192
2.18523
2.17814
2.17018
2.16154
2.15262
2.14376
2.13532
2.12762
2.12033
1.40001
1.40001
1.40001
1.40001
1.40001
1.40001
1.40001
1.40001
1.40001
1.40001
1.40001
1.40001
1.40001
1.40001
1.40001
1.40002
1.40003
1.40007
1.40021
1.40064
1.4022
1.40742
1.42139
1.46019
1.52797
1.58835
1.62436
1.63151
1.63063
1.62803
1.6239
1.61843
1.61068
1.60355
1.60126
1.59887
1.59487
1.59124
1.58842
1.58507
1.58098
1.57741
1.57472
1.57159
1.56772
1.56424
1.56139
1.55838
1.55511
1.55199
1.54978
1.5474
1.54414
1.54085
1.53796
1.53538
1.53295
1.52943
1.52626
1.52403
1.5211
1.51794
1.51521
1.51262
1.51054
1.50779
1.50498
1.50317
1.50092
1.49833
1.4963
1.49414
1.49186
1.48956
1.48745
1.48531
1.48283
1.47965
1.47713
1.47494
1.47317
1.4726
1.47312
1.47433
1.47663
1.48383
1.50232
1.53622
1.58928
1.64592
1.70482
1.75017
1.76851
1.78382
1.78627
1.78928
1.80296
1.84517
1.93389
2.0797
2.18882
2.25661
2.28601
2.28354
2.27365
2.25949
2.24354
2.22853
2.21542
2.2051
2.19701
2.18885
2.17985
2.17065
2.16176
2.15324
2.1451
2.13729
2.12997
2.12286
1.40001
1.40001
1.40001
1.40001
1.40001
1.40001
1.40001
1.40001
1.40001
1.40001
1.40001
1.40001
1.40001
1.40001
1.40001
1.40001
1.40001
1.40002
1.40006
1.40019
1.40067
1.40245
1.40804
1.42498
1.47074
1.53636
1.59791
1.6325
1.6373
1.63674
1.63429
1.62962
1.62173
1.61437
1.61118
1.6075
1.60309
1.59993
1.59706
1.59333
1.58933
1.58636
1.58355
1.57989
1.57591
1.57277
1.56975
1.56618
1.56267
1.56018
1.55798
1.55502
1.55155
1.54861
1.54591
1.54324
1.54016
1.53666
1.53438
1.53174
1.5284
1.52534
1.52267
1.52043
1.51828
1.51481
1.51237
1.51041
1.5077
1.50506
1.50277
1.50051
1.49843
1.496
1.49429
1.49262
1.4904
1.48801
1.48548
1.48289
1.47983
1.47718
1.47592
1.47543
1.47587
1.47717
1.47977
1.48684
1.50495
1.5377
1.58883
1.64499
1.696
1.74854
1.77075
1.80096
1.87178
1.98149
2.11958
2.25053
2.29125
2.30466
2.30158
2.2888
2.27048
2.25469
2.24071
2.229
2.2195
2.20994
2.20025
2.19023
2.18025
2.17126
2.16306
2.15538
2.14774
2.13986
2.13195
2.12411
1.40001
1.40001
1.40001
1.40001
1.40001
1.40001
1.40001
1.40001
1.40001
1.40001
1.40001
1.40001
1.40001
1.40001
1.40001
1.40001
1.40001
1.40001
1.40002
1.40006
1.40019
1.40075
1.40258
1.40892
1.42976
1.4765
1.54333
1.60951
1.64097
1.64295
1.64215
1.6387
1.63267
1.62644
1.62189
1.61678
1.61208
1.60896
1.60568
1.60142
1.59773
1.59509
1.59193
1.58786
1.58409
1.58106
1.57772
1.57387
1.57084
1.56863
1.56596
1.56249
1.55923
1.55653
1.55358
1.55049
1.54707
1.54441
1.54215
1.53902
1.5357
1.53291
1.53049
1.52838
1.52542
1.52208
1.52009
1.51761
1.51452
1.51179
1.50939
1.5073
1.50514
1.50235
1.50078
1.49926
1.49714
1.49518
1.49321
1.49085
1.48797
1.48492
1.48226
1.48018
1.47857
1.4784
1.47913
1.48071
1.48347
1.49013
1.50646
1.53958
1.58818
1.65296
1.72874
1.84165
2.00183
2.1356
2.24347
2.32453
2.33862
2.33023
2.31374
2.29125
2.26793
2.24995
2.23892
2.23221
2.22586
2.2168
2.20629
2.19546
2.18555
2.17711
2.1695
2.16188
2.15375
2.14506
2.13614
2.12755
1.40001
1.40001
1.40001
1.40001
1.40001
1.40001
1.40001
1.40001
1.40001
1.40001
1.40001
1.40001
1.40001
1.40001
1.40001
1.40001
1.40001
1.40001
1.40001
1.40002
1.40005
1.40021
1.4008
1.40275
1.41029
1.43354
1.4801
1.55494
1.62245
1.64445
1.64641
1.64574
1.64366
1.63939
1.6333
1.62656
1.62127
1.61758
1.61363
1.609
1.60599
1.6035
1.59989
1.59566
1.59216
1.58896
1.58513
1.58135
1.57892
1.57666
1.57353
1.56999
1.56721
1.56427
1.56103
1.55778
1.55464
1.55227
1.54957
1.5462
1.54323
1.54057
1.5382
1.5357
1.53229
1.52976
1.52757
1.52454
1.52132
1.51859
1.51633
1.51441
1.51168
1.50901
1.5076
1.50574
1.50351
1.50171
1.49991
1.49797
1.49549
1.49276
1.4904
1.48781
1.48521
1.48315
1.48198
1.48173
1.48246
1.48413
1.48718
1.4947
1.51529
1.5695
1.69664
1.90198
2.08029
2.19477
2.26659
2.31805
2.32655
2.32054
2.30165
2.28463
2.2688
2.25736
2.24803
2.23838
2.22612
2.21349
2.20184
2.19171
2.18299
2.17511
2.16724
2.15911
2.15085
2.14244
2.13437
2.12648
1.40001
1.40001
1.40001
1.40001
1.40001
1.40001
1.40001
1.40001
1.40001
1.40001
1.40001
1.40001
1.40001
1.40001
1.40001
1.40001
1.40001
1.40001
1.40001
1.40001
1.40002
1.40006
1.40023
1.40083
1.40302
1.41209
1.43548
1.4868
1.57127
1.62511
1.64865
1.65229
1.65253
1.64988
1.6432
1.63566
1.62986
1.62529
1.6204
1.6161
1.61412
1.61161
1.60761
1.60354
1.60027
1.59681
1.59258
1.58909
1.58688
1.5843
1.58084
1.57765
1.57499
1.57155
1.56839
1.56542
1.56254
1.55995
1.55685
1.5538
1.55113
1.54799
1.54546
1.5426
1.53943
1.53719
1.53454
1.53133
1.52831
1.52559
1.52345
1.52132
1.51817
1.51609
1.51447
1.5122
1.50986
1.50797
1.50628
1.50451
1.50234
1.5
1.498
1.4959
1.49338
1.49083
1.48816
1.48554
1.48548
1.48655
1.49098
1.50731
1.56049
1.65853
1.79637
1.93045
2.03993
2.13147
2.1994
2.23869
2.26025
2.2702
2.26992
2.27241
2.27091
2.26585
2.25683
2.24385
2.22807
2.21431
2.20368
2.19495
2.18663
2.17802
2.16879
2.15962
2.15104
2.14301
2.1352
2.12712
1.40001
1.40001
1.40001
1.40001
1.40001
1.40001
1.40001
1.40001
1.40001
1.40001
1.40001
1.40001
1.40001
1.40001
1.40001
1.40001
1.40001
1.40001
1.40001
1.40001
1.40001
1.40002
1.40006
1.40023
1.40085
1.40354
1.41314
1.43757
1.49856
1.57882
1.63071
1.65287
1.65701
1.65536
1.65032
1.64421
1.63892
1.63336
1.62699
1.62343
1.62199
1.61906
1.61482
1.61119
1.60812
1.60443
1.60011
1.59713
1.59484
1.59186
1.58832
1.58548
1.58253
1.57865
1.57585
1.57316
1.57018
1.56727
1.56415
1.56163
1.5587
1.55512
1.55272
1.54977
1.54675
1.5443
1.54137
1.53843
1.53562
1.53263
1.53051
1.52809
1.52503
1.52319
1.52118
1.51866
1.51626
1.51426
1.51253
1.51079
1.50866
1.50664
1.50498
1.50307
1.50089
1.49859
1.4962
1.494
1.49423
1.49932
1.51983
1.58119
1.69339
1.81259
1.89574
1.92846
1.96794
2.01325
2.06484
2.11516
2.16233
2.20463
2.23262
2.25538
2.26376
2.26137
2.25405
2.24174
2.22844
2.21854
2.21026
2.20159
2.19176
2.18101
2.1701
2.16061
2.15263
2.14517
2.13706
2.12792
1.40001
1.40001
1.40001
1.40001
1.40001
1.40001
1.40001
1.40001
1.40001
1.40001
1.40001
1.40001
1.40001
1.40001
1.40001
1.40001
1.40001
1.40001
1.40001
1.40001
1.40001
1.40001
1.40002
1.40006
1.40023
1.40094
1.40397
1.41345
1.44199
1.50901
1.58356
1.63818
1.65872
1.65905
1.65744
1.65431
1.64991
1.64252
1.63441
1.63168
1.6298
1.626
1.62192
1.61898
1.616
1.61179
1.60788
1.60541
1.60273
1.59937
1.59601
1.59331
1.58997
1.58589
1.58343
1.58073
1.57743
1.57428
1.57141
1.56896
1.56546
1.56197
1.55985
1.55689
1.55372
1.5511
1.5483
1.54579
1.54278
1.53961
1.53764
1.53513
1.5323
1.53024
1.5279
1.52536
1.52282
1.52064
1.51883
1.51685
1.51478
1.51305
1.51122
1.50918
1.50741
1.50571
1.50519
1.50633
1.51388
1.54774
1.61933
1.74644
1.84848
1.90816
1.93413
1.93597
1.9395
1.94784
1.96462
1.99715
2.0386
2.09626
2.14413
2.19152
2.21577
2.2277
2.2294
2.22813
2.22687
2.22414
2.21738
2.20692
2.19497
2.18267
2.17127
2.16229
2.15481
2.1471
2.13828
2.12857
1.40001
1.40001
1.40001
1.40001
1.40001
1.40001
1.40001
1.40001
1.40001
1.40001
1.40001
1.40001
1.40001
1.40001
1.40001
1.40001
1.40001
1.40001
1.40001
1.40001
1.40001
1.40001
1.40001
1.40002
1.40006
1.40023
1.40105
1.40397
1.41433
1.44837
1.51198
1.587
1.64641
1.66386
1.66425
1.66214
1.6584
1.6524
1.64528
1.64161
1.63775
1.63318
1.6298
1.62721
1.62369
1.61914
1.61625
1.6137
1.61029
1.60672
1.60372
1.60091
1.59697
1.59325
1.59108
1.58813
1.58455
1.58141
1.57879
1.57609
1.57214
1.56904
1.56688
1.56381
1.56046
1.55782
1.5554
1.55299
1.54955
1.54664
1.54472
1.54217
1.53942
1.53721
1.5348
1.53232
1.52971
1.52731
1.52514
1.52308
1.52099
1.51904
1.51697
1.5151
1.51398
1.51411
1.51744
1.53178
1.57702
1.67644
1.79056
1.89588
1.93318
1.94145
1.94076
1.93622
1.93046
1.92617
1.92573
1.93125
1.94657
1.97764
2.02017
2.07495
2.12478
2.16348
2.19529
2.20711
2.21753
2.21779
2.21426
2.20501
2.19333
2.18253
2.17407
2.16646
2.15837
2.14922
2.13941
2.12986
1.40001
1.40001
1.40001
1.40001
1.40001
1.40001
1.40001
1.40001
1.40001
1.40001
1.40001
1.40001
1.40001
1.40001
1.40001
1.40001
1.40001
1.40001
1.40001
1.40001
1.40001
1.40001
1.40001
1.40001
1.40002
1.40006
1.40025
1.40104
1.40405
1.41646
1.44982
1.51073
1.5977
1.65077
1.66593
1.66727
1.66637
1.66277
1.65644
1.65067
1.64505
1.64055
1.63767
1.63448
1.63071
1.6273
1.62462
1.62142
1.61753
1.61398
1.61128
1.60806
1.60352
1.60041
1.59814
1.59493
1.59134
1.58833
1.58582
1.58283
1.57899
1.57634
1.57383
1.57067
1.56733
1.56471
1.56255
1.55998
1.55639
1.55382
1.55166
1.54897
1.54621
1.54395
1.54174
1.53924
1.53656
1.53419
1.53195
1.52944
1.52705
1.52473
1.52287
1.52201
1.523
1.52802
1.552
1.61473
1.72534
1.84665
1.9144
1.94761
1.95104
1.94754
1.94096
1.93369
1.92655
1.92059
1.91731
1.91568
1.91609
1.92049
1.93354
1.95954
2.00147
2.04777
2.10226
2.13725
2.16837
2.18259
2.18858
2.18806
2.1864
2.18414
2.17982
2.17245
2.16293
2.15211
2.14153
2.13222
1.40001
1.40001
1.40001
1.40001
1.40001
1.40001
1.40001
1.40001
1.40001
1.40001
1.40001
1.40001
1.40001
1.40001
1.40001
1.40001
1.40001
1.40001
1.40001
1.40001
1.40001
1.40001
1.40001
1.40001
1.40001
1.40002
1.40006
1.40025
1.40102
1.40458
1.41709
1.44795
1.51946
1.60352
1.65099
1.66756
1.67072
1.66882
1.66429
1.65883
1.65338
1.6493
1.6447
1.64068
1.63812
1.63512
1.63174
1.62827
1.62498
1.62125
1.61801
1.61469
1.6105
1.60752
1.60486
1.60176
1.59844
1.59531
1.59261
1.5894
1.586
1.58345
1.58061
1.57759
1.57428
1.57147
1.56941
1.56676
1.56344
1.56093
1.55856
1.55581
1.5529
1.55059
1.54839
1.54587
1.54321
1.54098
1.53867
1.53597
1.53319
1.53096
1.53049
1.53197
1.54202
1.57354
1.6564
1.77405
1.88491
1.94547
1.96252
1.96116
1.95678
1.95083
1.9436
1.93609
1.92898
1.92219
1.91646
1.91177
1.90873
1.90735
1.90666
1.90902
1.91959
1.94201
1.98087
2.02384
2.07521
2.1125
2.14082
2.16068
2.17079
2.1762
2.17516
2.17156
2.16437
2.15415
2.1439
2.13439
1.40001
1.40001
1.40001
1.40001
1.40001
1.40001
1.40001
1.40001
1.40001
1.40001
1.40001
1.40001
1.40001
1.40001
1.40001
1.40001
1.40001
1.40001
1.40001
1.40001
1.40001
1.40001
1.40001
1.40001
1.40001
1.40001
1.40002
1.40006
1.40024
1.40112
1.40478
1.41626
1.45234
1.52741
1.60398
1.65486
1.67254
1.67288
1.67162
1.66827
1.66389
1.65728
1.65089
1.64795
1.64508
1.64152
1.63802
1.6351
1.63222
1.62781
1.62448
1.62131
1.61741
1.61414
1.61146
1.60881
1.60556
1.60234
1.59946
1.59623
1.59311
1.59049
1.58763
1.58483
1.5814
1.57843
1.57623
1.57341
1.57016
1.56766
1.56524
1.56258
1.55954
1.55716
1.55492
1.55228
1.5495
1.54726
1.54491
1.54238
1.54029
1.53999
1.54256
1.55628
1.60707
1.69877
1.82313
1.91822
1.95679
1.96795
1.9651
1.95956
1.95479
1.94963
1.94405
1.9381
1.93187
1.92563
1.9198
1.91431
1.90928
1.90441
1.90054
1.89709
1.89482
1.89674
1.90649
1.92579
1.95832
1.99978
2.04409
2.08611
2.11106
2.136
2.14346
2.14902
2.15022
2.14863
2.14373
2.13666
1.40001
1.40001
1.40001
1.40001
1.40001
1.40001
1.40001
1.40001
1.40001
1.40001
1.40001
1.40001
1.40001
1.40001
1.40001
1.40001
1.40001
1.40001
1.40001
1.40001
1.40001
1.40001
1.40001
1.40001
1.40001
1.40001
1.40001
1.40002
1.40005
1.40025
1.40117
1.4045
1.41755
1.45761
1.5258
1.6046
1.66264
1.67697
1.67675
1.67418
1.67173
1.66654
1.66075
1.65602
1.65152
1.64779
1.64474
1.64162
1.63799
1.63465
1.63139
1.62792
1.62435
1.62099
1.61837
1.61571
1.61254
1.60942
1.60635
1.60311
1.60011
1.59744
1.59472
1.59197
1.58853
1.58567
1.58329
1.58032
1.57692
1.57419
1.57178
1.56904
1.56609
1.56367
1.56136
1.55852
1.55541
1.55267
1.55063
1.54934
1.54982
1.55537
1.57668
1.63673
1.75488
1.86469
1.9401
1.97365
1.97466
1.97168
1.96734
1.96176
1.95615
1.9505
1.94476
1.93932
1.93369
1.92791
1.92243
1.91724
1.91202
1.90644
1.9003
1.89413
1.8893
1.88703
1.8864
1.888
1.89386
1.90918
1.93517
1.97358
2.01183
2.05737
2.08553
2.10782
2.12327
2.13163
2.13305
2.1308
1.40001
1.40001
1.40001
1.40001
1.40001
1.40001
1.40001
1.40001
1.40001
1.40001
1.40001
1.40001
1.40001
1.40001
1.40001
1.40001
1.40001
1.40001
1.40001
1.40001
1.40001
1.40001
1.40001
1.40001
1.40001
1.40001
1.40001
1.40001
1.40001
1.40005
1.40026
1.40109
1.40463
1.41929
1.45555
1.52304
1.61463
1.66313
1.67812
1.67928
1.67871
1.67537
1.66918
1.66281
1.65793
1.65454
1.65084
1.64711
1.64467
1.64179
1.63808
1.63471
1.6316
1.62818
1.62534
1.62266
1.61956
1.6163
1.61322
1.61002
1.60717
1.60444
1.6016
1.59869
1.59528
1.59241
1.59002
1.58714
1.58375
1.58083
1.57833
1.57557
1.57276
1.57036
1.56781
1.56483
1.56158
1.55864
1.55789
1.55923
1.56747
1.60322
1.67615
1.79527
1.91125
1.96084
1.97787
1.97793
1.97526
1.97055
1.96735
1.96414
1.95894
1.95219
1.94561
1.94022
1.93579
1.93176
1.92723
1.9216
1.91474
1.9074
1.90013
1.89395
1.88894
1.88497
1.88158
1.87917
1.87707
1.87713
1.88053
1.89269
1.91329
1.94533
1.98155
2.02048
2.05501
2.07481
2.09552
2.10213
1.40001
1.40001
1.40001
1.40001
1.40001
1.40001
1.40001
1.40001
1.40001
1.40001
1.40001
1.40001
1.40001
1.40001
1.40001
1.40001
1.40001
1.40001
1.40001
1.40001
1.40001
1.40001
1.40001
1.40001
1.40001
1.40001
1.40001
1.40001
1.40001
1.40001
1.40005
1.40024
1.40104
1.4049
1.41853
1.45224
1.5303
1.61513
1.66229
1.67894
1.68239
1.68027
1.6754
1.67017
1.66602
1.66141
1.6562
1.6538
1.65172
1.64823
1.64462
1.64183
1.63868
1.63514
1.63249
1.62974
1.62637
1.6231
1.62006
1.61677
1.61414
1.61135
1.60829
1.60516
1.60173
1.59867
1.59617
1.5934
1.59019
1.58729
1.58473
1.58201
1.5793
1.57666
1.57385
1.57093
1.56846
1.56762
1.57014
1.58266
1.62707
1.72855
1.83638
1.93352
1.98201
1.98761
1.98484
1.98214
1.9786
1.97354
1.9679
1.96234
1.95666
1.95145
1.94751
1.94362
1.93919
1.93403
1.92815
1.92195
1.91558
1.90952
1.9038
1.89841
1.89274
1.88689
1.88099
1.87579
1.87198
1.8696
1.86819
1.86764
1.86971
1.87618
1.89126
1.91574
1.94984
1.98331
2.02241
2.04711
1.40001
1.40001
1.40001
1.40001
1.40001
1.40001
1.40001
1.40001
1.40001
1.40001
1.40001
1.40001
1.40001
1.40001
1.40001
1.40001
1.40001
1.40001
1.40001
1.40001
1.40001
1.40001
1.40001
1.40001
1.40001
1.40001
1.40001
1.40001
1.40001
1.40001
1.40001
1.40005
1.40022
1.40104
1.40482
1.41706
1.45431
1.53404
1.61158
1.66333
1.68298
1.68348
1.682
1.67949
1.67525
1.66779
1.66302
1.6612
1.65799
1.65416
1.65146
1.64891
1.64529
1.64213
1.63959
1.63643
1.63288
1.6298
1.62648
1.62328
1.62076
1.61786
1.61462
1.61146
1.60807
1.60492
1.60232
1.59952
1.59643
1.59362
1.59111
1.58841
1.58557
1.58247
1.57964
1.5776
1.57778
1.58202
1.60349
1.65656
1.77028
1.8877
1.9543
1.98848
1.995
1.9927
1.98927
1.98472
1.97793
1.97231
1.96729
1.96248
1.95833
1.95429
1.94955
1.94406
1.93843
1.933
1.92806
1.9235
1.91873
1.91341
1.90753
1.90144
1.8953
1.88924
1.88332
1.87741
1.87174
1.86713
1.86355
1.86073
1.85962
1.85733
1.85662
1.85977
1.87048
1.88929
1.91871
1.9503
1.40001
1.40001
1.40001
1.40001
1.40001
1.40001
)
;

boundaryField
{
    inlet
    {
        type            calculated;
        value           nonuniform 0();
    }
    outlet
    {
        type            calculated;
        value           nonuniform 0();
    }
    bottom
    {
        type            symmetryPlane;
    }
    top
    {
        type            symmetryPlane;
    }
    obstacle
    {
        type            calculated;
        value           nonuniform 0();
    }
    front
    {
        type            empty;
    }
    back
    {
        type            empty;
    }
    procBoundary45to37
    {
        type            processor;
        value           nonuniform List<scalar> 
129
(
1.40001
1.40001
1.40001
1.40001
1.40001
1.40001
1.40001
1.40001
1.59448
1.5904
1.58469
1.57667
1.572
1.5684
1.56417
1.56108
1.5584
1.55527
1.55225
1.54946
1.54703
1.54399
1.5406
1.5375
1.53437
1.53205
1.52958
1.52628
1.52369
1.52087
1.51763
1.51475
1.51216
1.50972
1.50669
1.50388
1.50183
1.49926
1.49614
1.49411
1.49191
1.48925
1.48706
1.48507
1.48288
1.4804
1.47819
1.47591
1.47352
1.47049
1.46741
1.46454
1.46142
1.45941
1.45857
1.45872
1.45982
1.46229
1.46999
1.49153
1.52983
1.58995
1.6539
1.70889
1.75939
1.78666
1.79353
1.7999
1.8016
1.80173
1.80119
1.79901
1.79428
1.78855
1.7825
1.77655
1.77098
1.76586
1.76081
1.75589
1.75146
1.74672
1.74101
1.7367
1.73412
1.73384
1.73921
1.764
1.82775
1.94938
2.05753
2.14319
2.18265
2.18674
2.18301
2.17232
2.16096
2.14988
2.13962
2.12982
2.11995
2.11077
2.10256
1.40001
1.40001
1.40001
1.40001
1.40002
1.40003
1.40004
1.40006
1.40008
1.40011
1.40016
1.40022
1.40029
1.40041
1.40059
1.401
1.40206
1.40459
1.41207
1.43231
1.47219
1.52939
1.58492
1.60407
1.60624
1.60624
)
;
    }
    procBoundary45to38
    {
        type            processor;
        value           nonuniform List<scalar> 2(2.09996 2.10353);
    }
    procBoundary45to44
    {
        type            processor;
        value           nonuniform List<scalar> 9(1.40001 1.40001 1.40001 1.40001 1.40001 1.40001 1.40001 1.40001 1.40001);
    }
    procBoundary45to46
    {
        type            processor;
        value           nonuniform List<scalar> 
17
(
2.10889
2.1129
2.11551
2.11637
2.11955
2.11845
2.11865
2.11825
2.11877
2.12106
2.12406
2.12477
2.127
2.12614
2.10695
2.06627
1.98402
)
;
    }
    procBoundary45to52
    {
        type            processor;
        value           nonuniform List<scalar> 10(1.40001 1.40001 1.40001 1.40001 1.40001 1.40001 1.40001 1.40001 1.40001 1.40001);
    }
    procBoundary45to53
    {
        type            processor;
        value           nonuniform List<scalar> 
129
(
1.40001
1.40001
1.40001
1.40001
1.40001
1.40001
1.40001
1.40001
1.40001
1.40001
1.40001
1.40001
1.40001
1.40001
1.40001
1.40001
1.40001
1.40001
1.40001
1.40001
1.40001
1.40001
1.40001
1.40001
1.40001
1.40001
1.40001
1.40001
1.40001
1.40001
1.40001
1.40001
1.40001
1.40001
1.40004
1.4002
1.40105
1.40443
1.41672
1.45751
1.52877
1.60595
1.66772
1.68753
1.68807
1.68656
1.68175
1.67593
1.6727
1.66909
1.66424
1.66084
1.65854
1.65521
1.6515
1.64907
1.64629
1.6427
1.63931
1.6362
1.63254
1.62959
1.62697
1.62385
1.62059
1.61747
1.61419
1.61117
1.6086
1.60579
1.60279
1.60001
1.59737
1.59466
1.59166
1.58875
1.58711
1.58804
1.59457
1.62535
1.69902
1.80318
1.92657
1.97965
1.99838
1.9998
1.9973
1.9921
1.98572
1.98181
1.97833
1.97431
1.96991
1.96485
1.95966
1.95475
1.94989
1.94496
1.94004
1.93482
1.92923
1.92369
1.91892
1.9148
1.91059
1.90555
1.89945
1.89254
1.88567
1.87946
1.87412
1.86962
1.86526
1.86053
1.856
1.85175
1.84868
1.8461
1.844
1.84549
1.85199
1.86553
1.40001
1.40001
1.40001
1.40001
1.40001
1.40001
1.40001
)
;
    }
}


// ************************************************************************* //
