/*--------------------------------*- C++ -*----------------------------------*\
  =========                 |
  \\      /  F ield         | OpenFOAM: The Open Source CFD Toolbox
   \\    /   O peration     | Website:  https://openfoam.org
    \\  /    A nd           | Version:  7
     \\/     M anipulation  |
\*---------------------------------------------------------------------------*/
FoamFile
{
    version     2.0;
    format      ascii;
    class       volVectorField;
    location    "61";
    object      U;
}
// * * * * * * * * * * * * * * * * * * * * * * * * * * * * * * * * * * * * * //

dimensions      [0 1 -1 0 0 0 0];

internalField   nonuniform List<vector> 
41600
(
(-0.0340598 0.0117097 -3.45614e-20)
(-0.0813995 0.00246471 -5.96481e-20)
(-0.126976 -0.0118587 4.47788e-23)
(-0.156044 -0.0320716 -6.92901e-20)
(-0.177805 -0.0569934 1.06006e-19)
(-0.193965 -0.0846653 -2.48159e-19)
(-0.204168 -0.110158 -3.61246e-20)
(-0.211587 -0.127816 2.85394e-19)
(-0.215709 -0.131293 -6.32057e-20)
(-0.218282 -0.115014 -1.03343e-19)
(-0.217996 -0.0752894 -4.21416e-20)
(-0.213881 -0.0120498 1.31739e-19)
(-0.204913 0.0695128 -7.71159e-20)
(-0.191924 0.158872 -7.9003e-20)
(-0.177946 0.242062 -7.69423e-20)
(-0.163122 0.305477 1.83292e-20)
(-0.144394 0.333501 3.83537e-21)
(-0.114539 0.314867 -1.2446e-19)
(-0.0629479 0.238598 2.58272e-20)
(-0.00262769 0.122896 3.99814e-20)
(0.0811832 -0.0204636 -1.82892e-19)
(0.131937 -0.153784 1.54186e-19)
(0.193553 -0.261859 -4.40843e-20)
(0.193781 -0.339125 1.05618e-20)
(0.186094 -0.385154 3.41745e-20)
(-0.0344725 0.0161441 -1.61103e-19)
(-0.0818225 0.00701998 3.04115e-19)
(-0.127497 -0.00757959 -7.41023e-20)
(-0.156817 -0.0287206 3.79971e-20)
(-0.178953 -0.0541113 -3.12071e-19)
(-0.19559 -0.0824596 3.8474e-19)
(-0.206321 -0.108484 -6.18694e-20)
(-0.214321 -0.126664 -3.71668e-19)
(-0.219124 -0.130582 9.63882e-20)
(-0.222582 -0.114832 -3.28571e-19)
(-0.223482 -0.0759101 6.01227e-20)
(-0.220758 -0.0138552 1.95033e-19)
(-0.212918 0.0663938 2.06319e-19)
(-0.199828 0.154608 4.25832e-19)
(-0.182969 0.236968 1.40926e-19)
(-0.161476 0.298923 1.64756e-19)
(-0.131334 0.323961 2.68814e-20)
(-0.0876885 0.300875 4.18603e-19)
(-0.0206637 0.219494 3.91996e-20)
(0.0483969 0.100018 -1.51466e-19)
(0.144582 -0.0425079 -1.96024e-19)
(0.197292 -0.171826 -3.26329e-19)
(0.266116 -0.271448 -1.37006e-19)
(0.267879 -0.33602 -1.13178e-20)
(0.265035 -0.369615 -7.34353e-20)
(-0.0349976 0.0205809 3.4015e-20)
(-0.0821487 0.0115917 -1.0174e-19)
(-0.127637 -0.00324939 -1.6772e-19)
(-0.156853 -0.0252784 1.2509e-19)
(-0.178936 -0.0510979 2.92785e-19)
(-0.195547 -0.0800944 -4.49357e-19)
(-0.206216 -0.106643 2.59873e-19)
(-0.214108 -0.125356 2.01715e-20)
(-0.218771 -0.129739 4.00888e-19)
(-0.222118 -0.114547 5.81878e-19)
(-0.223011 -0.0764737 4.02464e-19)
(-0.220294 -0.0156998 6.35062e-21)
(-0.212039 0.0629513 -8.09347e-21)
(-0.197159 0.149498 -3.92497e-19)
(-0.17581 0.230236 -4.09214e-19)
(-0.146329 0.289869 -2.14576e-19)
(-0.104176 0.311349 4.46345e-20)
(-0.0474417 0.283946 -4.61628e-19)
(0.0338121 0.198719 1.57083e-19)
(0.109282 0.0764411 -2.36322e-19)
(0.216104 -0.0643737 2.0628e-19)
(0.26998 -0.189214 6.36675e-19)
(0.343516 -0.28055 3.94784e-19)
(0.345574 -0.333317 -9.58976e-20)
(0.352347 -0.35121 -5.93739e-20)
(-0.0356315 0.0249859 -2.76491e-19)
(-0.0823699 0.0161512 4.86382e-20)
(-0.127381 0.00111072 5.70167e-19)
(-0.15613 -0.0217644 -3.97143e-19)
(-0.177716 -0.0479712 2.71039e-19)
(-0.193787 -0.0775864 1.20299e-18)
(-0.203798 -0.10465 -6.7692e-19)
(-0.210904 -0.123911 1.10758e-18)
(-0.214637 -0.128795 5.52155e-19)
(-0.216927 -0.114204 6.51002e-19)
(-0.216678 -0.0770366 1.58512e-19)
(-0.212641 -0.017673 -7.39193e-19)
(-0.202518 0.0591404 -4.18522e-19)
(-0.184324 0.14354 2.63129e-19)
(-0.157143 0.221974 3.6144e-19)
(-0.11876 0.278637 2.60018e-20)
(-0.0644869 0.296486 -2.35752e-19)
(0.00416629 0.264612 3.49915e-19)
(0.0983316 0.177181 -1.10702e-18)
(0.179234 0.0530788 -8.3023e-19)
(0.294422 -0.085352 5.93442e-19)
(0.349665 -0.205099 -1.61837e-19)
(0.424746 -0.28812 1.59563e-19)
(0.424696 -0.331109 2.12718e-19)
(0.439939 -0.333283 7.2627e-20)
(-0.0363725 0.0293509 3.31779e-20)
(-0.0824817 0.0206827 -6.83798e-19)
(-0.12672 0.00548323 6.66665e-19)
(-0.154626 -0.0181975 -9.45848e-20)
(-0.17526 -0.0447492 -1.06064e-18)
(-0.190258 -0.0749508 -1.01523e-18)
(-0.199005 -0.102518 3.14719e-19)
(-0.204655 -0.12234 -9.82757e-19)
(-0.20671 -0.127767 -6.57167e-19)
(-0.20707 -0.113834 -1.04988e-18)
(-0.204641 -0.0776437 -1.1206e-19)
(-0.198066 -0.019807 2.8778e-19)
(-0.184764 0.0549345 6.2284e-19)
(-0.161942 0.136769 -3.96403e-19)
(-0.127884 0.212346 5.56206e-19)
(-0.0800211 0.265611 -5.34232e-19)
(-0.0140473 0.279896 -6.13208e-19)
(0.065035 0.243759 -3.5311e-19)
(0.170774 0.155513 -3.14104e-19)
(0.257685 0.0306055 9.75459e-19)
(0.378353 -0.104893 -1.06674e-18)
(0.435547 -0.2188 4.49542e-19)
(0.508634 -0.293143 -5.08748e-19)
(0.505321 -0.328023 -2.52189e-19)
(0.522798 -0.317551 4.7862e-21)
(-0.0372178 0.0336531 1.31776e-19)
(-0.0824788 0.0251629 6.27814e-19)
(-0.125643 0.00984788 -1.75659e-18)
(-0.152321 -0.0145976 1.11723e-18)
(-0.17153 -0.0414501 6.49995e-19)
(-0.184902 -0.0722015 -1.8997e-19)
(-0.191761 -0.100253 8.96116e-19)
(-0.195288 -0.120643 -1.1927e-19)
(-0.194959 -0.126655 2.85472e-19)
(-0.19261 -0.113447 9.89839e-19)
(-0.187093 -0.0783223 5.62086e-19)
(-0.176917 -0.0221292 -2.96077e-20)
(-0.159319 0.0503267 -3.34148e-19)
(-0.130797 0.129247 1.22921e-18)
(-0.0891336 0.201553 -2.79911e-19)
(-0.0316032 0.25111 8.02592e-19)
(0.045538 0.26188 3.17938e-19)
(0.133673 0.222372 1.22687e-18)
(0.249079 0.133928 2.17357e-19)
(0.343628 0.00945182 -1.12546e-18)
(0.466606 -0.122517 7.85256e-19)
(0.52587 -0.229753 -8.95829e-19)
(0.593076 -0.295194 -2.24483e-19)
(0.58703 -0.322387 -4.65016e-19)
(0.599648 -0.303646 -6.30584e-20)
(-0.038165 0.037876 -2.5613e-19)
(-0.0823574 0.0295712 -8.72697e-19)
(-0.12414 0.0141848 6.6892e-19)
(-0.149195 -0.0109853 -1.82414e-18)
(-0.166485 -0.0380924 -7.39003e-19)
(-0.177652 -0.0693515 2.54391e-19)
(-0.181974 -0.0978579 -1.43025e-18)
(-0.182701 -0.118807 8.87765e-19)
(-0.179315 -0.125436 -6.7293e-19)
(-0.173573 -0.113025 -3.58017e-19)
(-0.164222 -0.0790702 -4.86235e-19)
(-0.149588 -0.0246451 8.17549e-19)
(-0.126808 0.0453332 -8.50876e-19)
(-0.0917838 0.121061 -5.68025e-19)
(-0.0421157 0.189786 -2.4686e-19)
(0.024982 0.235405 -6.49096e-19)
(0.112513 0.243128 6.77689e-19)
(0.208857 0.201027 -3.17901e-19)
(0.331727 0.112519 1.43673e-19)
(0.435366 -0.0101867 1.18126e-18)
(0.557735 -0.137769 8.48826e-19)
(0.618014 -0.237407 -1.25222e-18)
(0.675774 -0.294172 1.07595e-18)
(0.667219 -0.313473 8.0024e-19)
(0.67138 -0.289875 -5.11737e-20)
(-0.0392115 0.0420016 1.13375e-18)
(-0.0821139 0.0338859 9.05018e-19)
(-0.122204 0.0184731 3.48374e-19)
(-0.145227 -0.00738189 1.96978e-18)
(-0.160085 -0.0346957 1.07741e-18)
(-0.168434 -0.0664132 2.15675e-18)
(-0.169532 -0.09533 -1.15534e-18)
(-0.166757 -0.116807 2.77828e-19)
(-0.159656 -0.124062 7.96334e-20)
(-0.149924 -0.112511 -5.31887e-19)
(-0.136165 -0.0798389 -2.02376e-19)
(-0.116451 -0.0273174 -8.54111e-19)
(-0.0878814 0.0399963 1.00993e-18)
(-0.0458461 0.11232 9.11399e-20)
(0.0119246 0.177245 -7.35788e-19)
(0.0882222 0.218865 -9.3805e-20)
(0.185025 0.224036 -7.53838e-19)
(0.28929 0.180147 -4.08924e-19)
(0.417885 0.0915176 1.60122e-18)
(0.530724 -0.0282023 1.31441e-18)
(0.650051 -0.150193 2.06607e-19)
(0.708788 -0.241354 1.71067e-18)
(0.754854 -0.289814 1.85991e-19)
(0.742147 -0.301646 5.78753e-20)
(0.738475 -0.274651 1.96306e-19)
(-0.0403545 0.0460126 -9.95305e-19)
(-0.0817455 0.0380852 6.80637e-19)
(-0.119826 0.0226915 -6.56637e-20)
(-0.140395 -0.00380991 3.87283e-19)
(-0.152283 -0.0312807 5.24667e-19)
(-0.157163 -0.0633992 -3.13011e-18)
(-0.154306 -0.0926636 1.85488e-18)
(-0.147282 -0.114607 -2.34672e-18)
(-0.135794 -0.122459 -6.17059e-19)
(-0.121531 -0.111799 -7.74149e-19)
(-0.102941 -0.0805187 -1.20712e-18)
(-0.0777826 -0.0300487 1.67321e-20)
(-0.0431157 0.0343862 -1.6945e-19)
(0.00610451 0.103196 -7.06251e-19)
(0.071793 0.164158 1.42528e-18)
(0.156687 0.201869 1.34291e-18)
(0.261334 0.204738 -7.0952e-19)
(0.373448 0.159902 -6.81691e-19)
(0.507059 0.0712884 -8.55219e-19)
(0.627439 -0.0444148 -2.3915e-18)
(0.741446 -0.159334 -1.54045e-18)
(0.794969 -0.241444 6.55991e-20)
(0.828441 -0.281812 -1.91953e-18)
(0.809087 -0.287582 -2.23632e-19)
(0.799714 -0.257516 -5.21725e-19)
(-0.0415912 0.0498919 1.15884e-18)
(-0.08125 0.0421471 -1.93446e-18)
(-0.116998 0.0268177 -1.53402e-18)
(-0.134678 -0.000292919 -2.27487e-18)
(-0.143031 -0.0278697 6.31919e-19)
(-0.143749 -0.0603233 5.12591e-19)
(-0.136148 -0.0898515 8.99555e-19)
(-0.124071 -0.112161 2.00584e-19)
(-0.107482 -0.120529 3.87431e-19)
(-0.0881541 -0.110739 -6.80766e-19)
(-0.0644179 -0.0809268 1.18919e-18)
(-0.0336802 -0.0326511 -1.88814e-19)
(0.00709836 0.0287327 9.34661e-19)
(0.0633461 0.0938748 -2.31783e-19)
(0.136469 0.150788 4.09565e-19)
(0.229143 0.184775 -2.28203e-18)
(0.340162 0.185389 -6.26935e-19)
(0.459955 0.140207 -2.20169e-18)
(0.598601 0.0521968 -1.24414e-18)
(0.723342 -0.0584786 -1.13039e-18)
(0.829288 -0.16481 1.29356e-18)
(0.873865 -0.23768 -6.0879e-19)
(0.89433 -0.270247 4.2621e-19)
(0.867059 -0.27169 7.65186e-20)
(0.853009 -0.239064 1.42197e-19)
(-0.0429188 0.0536234 1.3428e-19)
(-0.0806254 0.0460492 2.13369e-18)
(-0.113714 0.0308288 -2.00289e-19)
(-0.128054 0.00314433 1.02492e-18)
(-0.132277 -0.0244866 -3.78908e-18)
(-0.128093 -0.0572005 -1.98649e-19)
(-0.114901 -0.0868866 -1.5173e-18)
(-0.096899 -0.109418 1.36503e-18)
(-0.0744314 -0.118158 1.64069e-18)
(-0.049466 -0.109139 1.72849e-19)
(-0.0202911 -0.0808045 2.76814e-19)
(0.0160171 -0.0348085 -2.44288e-19)
(0.0626669 0.0233704 -5.96741e-19)
(0.125462 0.0846311 -9.9778e-19)
(0.205316 0.137464 -2.3073e-19)
(0.304727 0.16795 6.3107e-19)
(0.420982 0.166272 2.91738e-18)
(0.54815 0.121011 -1.63671e-20)
(0.691427 0.0346163 1.1275e-18)
(0.816181 -0.0698817 1.5375e-18)
(0.910645 -0.166414 -2.84067e-18)
(0.943403 -0.230166 -3.06062e-19)
(0.950609 -0.255685 9.01716e-19)
(0.916038 -0.254221 -6.48336e-19)
(0.897073 -0.22025 1.77274e-19)
(-0.0443345 0.0571915 -2.73675e-18)
(-0.0798705 0.0497692 -1.80388e-18)
(-0.109966 0.0347011 1.88499e-18)
(-0.1205 0.00647589 -1.18517e-18)
(-0.119968 -0.0211571 5.09817e-18)
(-0.110093 -0.0540478 -1.37254e-18)
(-0.0904029 -0.0837638 3.02609e-18)
(-0.0655406 -0.106332 6.35155e-19)
(-0.0363496 -0.115231 -1.50186e-18)
(-0.00510574 -0.106792 1.58521e-18)
(0.0298524 -0.0798269 6.07996e-19)
(0.0716947 -0.0361233 -2.54684e-21)
(0.123881 0.0187147 -8.93569e-19)
(0.192507 0.0759587 6.33376e-19)
(0.278238 0.124654 -1.23871e-18)
(0.38319 0.151804 9.93383e-19)
(0.50407 0.147779 -1.30294e-18)
(0.638065 0.102558 3.90585e-19)
(0.783878 0.0190469 -7.11603e-19)
(0.903325 -0.078062 -5.08276e-19)
(0.982748 -0.164163 1.42327e-18)
(1.00201 -0.219232 3.12845e-19)
(0.996395 -0.238921 -2.55371e-20)
(0.956187 -0.235584 -3.26704e-19)
(0.932167 -0.201837 -1.28384e-19)
(-0.0458354 0.0605814 2.51716e-18)
(-0.0789844 0.0532844 7.38305e-19)
(-0.105748 0.0384102 -4.3717e-19)
(-0.111991 0.00967475 1.04275e-18)
(-0.106045 -0.0179085 -4.3572e-18)
(-0.0896426 -0.0508836 3.25087e-18)
(-0.062501 -0.0804802 -1.12265e-18)
(-0.029799 -0.102861 -1.29304e-18)
(0.00700236 -0.111646 -4.58996e-19)
(0.0452257 -0.103495 -1.63921e-18)
(0.0864019 -0.0776746 -9.80923e-19)
(0.133823 -0.0361716 7.65025e-19)
(0.191271 0.0153196 1.33084e-18)
(0.26497 0.0684725 2.17261e-18)
(0.355663 0.112985 -9.89637e-19)
(0.464966 0.136833 7.0665e-19)
(0.590166 0.130423 1.45542e-18)
(0.729513 0.0854525 2.96961e-18)
(0.873451 0.0061385 1.47163e-18)
(0.981757 -0.0826072 2.69493e-18)
(1.0434 -0.158316 6.92998e-19)
(1.04877 -0.205523 2.10363e-18)
(1.03191 -0.220773 -1.72608e-18)
(0.987871 -0.216415 1.5047e-18)
(0.959647 -0.184227 3.9762e-20)
(-0.0474189 0.0637794 -4.21141e-19)
(-0.0779662 0.0565723 -1.239e-18)
(-0.101052 0.0419309 -1.57651e-18)
(-0.102501 0.0127131 1.00169e-18)
(-0.0904491 -0.014769 3.89997e-18)
(-0.0666382 -0.047727 -7.87576e-19)
(-0.0310583 -0.0770355 -1.03069e-18)
(0.0104682 -0.0989765 -1.44009e-18)
(0.0557478 -0.107313 -9.49124e-19)
(0.101652 -0.0991015 -4.62102e-20)
(0.149534 -0.0740987 -2.59174e-19)
(0.20269 -0.0345661 -2.06956e-18)
(0.265268 0.0137262 -1.21962e-18)
(0.343403 0.0628193 2.6998e-19)
(0.438151 0.103144 7.39795e-19)
(0.550723 0.123618 -1.72783e-18)
(0.679554 0.11484 -2.58654e-18)
(0.820848 0.0705163 -1.97601e-18)
(0.95663 -0.00350355 4.65875e-19)
(1.04852 -0.0834481 -1.99517e-18)
(1.09126 -0.149426 -1.88724e-18)
(1.08376 -0.189911 -3.81009e-18)
(1.05811 -0.20202 9.354e-19)
(1.01194 -0.197403 -6.25838e-19)
(0.981124 -0.167594 2.71397e-19)
(-0.0490821 0.0667727 1.26627e-18)
(-0.0768154 0.0596101 1.13108e-18)
(-0.0958692 0.0452376 1.9245e-18)
(-0.0919986 0.0155625 -1.61178e-18)
(-0.0731148 -0.0117669 -4.83561e-18)
(-0.0409758 -0.0445956 -3.22698e-18)
(0.00403462 -0.07343 1.02907e-18)
(0.05532 -0.0946469 1.42015e-19)
(0.109842 -0.102187 3.46853e-18)
(0.164009 -0.0935445 1.17144e-18)
(0.219016 -0.0689661 6.551e-19)
(0.278074 -0.0310772 2.13664e-18)
(0.345717 0.0142903 -6.37173e-19)
(0.427762 0.0594895 -1.01335e-18)
(0.525627 0.0956782 8.0329e-19)
(0.640313 0.112678 1.21567e-18)
(0.770763 0.101654 1.07308e-18)
(0.908379 0.0584467 1.05345e-18)
(1.02938 -0.00962562 -8.42138e-19)
(1.10148 -0.0809576 5.30251e-19)
(1.12615 -0.138306 1.74886e-18)
(1.10801 -0.17334 4.24775e-18)
(1.07644 -0.183362 -1.88058e-18)
(1.02967 -0.179114 5.23715e-19)
(0.997997 -0.152036 -4.55394e-19)
(-0.0508225 0.0695497 -1.87161e-18)
(-0.0755313 0.0623753 1.48835e-18)
(-0.0901907 0.0483038 2.13528e-18)
(-0.0804507 0.0181951 1.09222e-19)
(-0.0539707 -0.00892885 1.52307e-18)
(-0.0125537 -0.041503 1.18153e-18)
(0.0428526 -0.0696569 -3.31681e-18)
(0.104706 -0.0898505 1.96996e-18)
(0.169023 -0.0962635 -3.04838e-18)
(0.231772 -0.086829 -9.48813e-19)
(0.294053 -0.0623016 4.24629e-20)
(0.358994 -0.0257151 1.27667e-18)
(0.43146 0.0170488 1.82442e-18)
(0.516767 0.0586074 -4.01972e-19)
(0.616582 0.090755 1.15104e-18)
(0.731669 0.104242 7.90836e-19)
(0.859876 0.0911932 8.8322e-19)
(0.987073 0.0494887 3.76268e-19)
(1.08827 -0.0124979 -9.12373e-19)
(1.1399 -0.0758942 -1.71619e-18)
(1.14911 -0.125897 -2.59856e-18)
(1.12329 -0.156662 8.82334e-19)
(1.0885 -0.165361 2.53782e-18)
(1.04251 -0.16192 9.65131e-19)
(1.01134 -0.137602 -4.66557e-19)
(-0.0526376 0.0721 1.00883e-18)
(-0.0741128 0.0648453 -1.37496e-18)
(-0.0840044 0.0511031 -3.41545e-18)
(-0.0678156 0.0205834 2.72924e-19)
(-0.0329365 -0.00627831 1.51973e-18)
(0.0187277 -0.0384551 -7.8936e-19)
(0.0854239 -0.0657011 5.15065e-19)
(0.158457 -0.0845778 1.29582e-18)
(0.232791 -0.0895547 -9.12398e-19)
(0.304044 -0.0790385 4.44799e-18)
(0.37328 -0.0542847 -2.07668e-19)
(0.443646 -0.0187391 -7.77346e-19)
(0.520221 0.0216815 -1.21027e-18)
(0.607699 0.0598355 -5.00287e-20)
(0.707787 0.0880515 -1.46838e-18)
(0.820569 0.0980759 -1.29574e-18)
(0.941354 0.0832753 -8.94702e-19)
(1.05232 0.0433242 -6.13002e-20)
(1.13168 -0.0128294 -1.30117e-18)
(1.16477 -0.0691986 2.76387e-18)
(1.16213 -0.113079 -3.53094e-18)
(1.13168 -0.14054 1.03548e-18)
(1.09591 -0.148403 -1.02159e-18)
(1.05178 -0.146008 1.65473e-19)
(1.02198 -0.124311 9.94393e-19)
(-0.0545248 0.0744145 -1.37819e-18)
(-0.072558 0.066998 6.50215e-19)
(-0.0772948 0.0536087 1.47038e-18)
(-0.0540428 0.0227023 -4.16719e-19)
(-0.00991936 -0.00383259 1.44984e-18)
(0.0529642 -0.035446 3.06679e-18)
(0.131723 -0.0615372 3.99905e-19)
(0.216259 -0.078812 -2.54071e-18)
(0.300422 -0.0820974 2.73056e-18)
(0.379556 -0.0703184 -3.73273e-18)
(0.454849 -0.0452117 -8.84353e-19)
(0.529574 -0.010598 -9.34456e-19)
(0.608879 0.0275914 2.03898e-19)
(0.696805 0.06247 1.74398e-19)
(0.794829 0.0868505 3.91137e-19)
(0.901724 0.0935431 3.46453e-19)
(1.01009 0.077293 -4.90648e-20)
(1.10163 0.0392593 2.79171e-19)
(1.16024 -0.0114978 4.38e-18)
(1.17835 -0.0617507 2.17039e-18)
(1.16766 -0.100534 4.94227e-19)
(1.1352 -0.125399 -1.24202e-18)
(1.10006 -0.1327 -4.63092e-19)
(1.05851 -0.131432 -8.27769e-19)
(1.03055 -0.112143 -6.75825e-19)
(-0.0564819 0.0764853 8.95583e-19)
(-0.0708641 0.0688115 1.39102e-18)
(-0.0700418 0.055794 -8.37036e-19)
(-0.0390691 0.0245301 1.3276e-19)
(0.0151889 -0.00159973 2.21114e-18)
(0.0902445 -0.0324533 1.60982e-18)
(0.181655 -0.0571231 4.83778e-18)
(0.277646 -0.0725332 2.00677e-18)
(0.370936 -0.0739492 -3.32253e-19)
(0.456785 -0.0608548 1.37787e-18)
(0.536623 -0.0354424 2.55129e-18)
(0.614012 -0.00183243 2.60991e-19)
(0.694036 0.0340636 2.30172e-19)
(0.780129 0.0656679 6.45224e-19)
(0.873267 0.0862943 -1.07022e-18)
(0.970628 0.0898606 1.03148e-19)
(1.0633 0.0725152 -1.06125e-18)
(1.13529 0.036548 -3.18164e-18)
(1.17635 -0.00927825 -1.42948e-18)
(1.18352 -0.0542095 1.25769e-18)
(1.16803 -0.0886944 9.85383e-19)
(1.13552 -0.111454 2.49822e-18)
(1.10204 -0.118322 -1.42105e-18)
(1.06347 -0.118157 2.7747e-19)
(1.03753 -0.101037 2.17919e-19)
(-0.0585065 0.0783062 -1.41607e-19)
(-0.0690264 0.0702647 -3.08409e-18)
(-0.0622189 0.0576329 9.47603e-19)
(-0.0228152 0.0260497 1.10595e-18)
(0.0425149 0.000426053 -5.03299e-18)
(0.130642 -0.0294342 1.48432e-18)
(0.235035 -0.0523999 -5.5588e-19)
(0.341988 -0.0657186 3.64165e-18)
(0.443183 -0.0651855 -1.88511e-18)
(0.534022 -0.0508602 -4.61858e-18)
(0.616402 -0.0253488 2.24663e-20)
(0.69429 0.00702539 -7.85558e-19)
(0.77264 0.040431 -1.15033e-18)
(0.854394 0.0686833 -8.65325e-19)
(0.939864 0.085657 1.88058e-19)
(1.02502 0.0863973 -4.57478e-19)
(1.1011 0.0683742 4.58297e-19)
(1.1557 0.0346243 1.84918e-18)
(1.18319 -0.0067077 8.73484e-19)
(1.18305 -0.0469765 -3.9557e-18)
(1.16521 -0.0777775 -1.2416e-19)
(1.1339 -0.0987624 -2.61973e-18)
(1.10264 -0.10525 7.20345e-19)
(1.06717 -0.106105 2.93258e-19)
(1.04327 -0.0909196 -6.99939e-19)
(-0.060596 0.079872 -1.53341e-18)
(-0.0670378 0.0713369 1.0637e-18)
(-0.0537907 0.0591 3.73095e-19)
(-0.0051807 0.0272509 -1.10245e-18)
(0.0722043 0.002269 4.5337e-18)
(0.174201 -0.0263234 -3.68175e-18)
(0.291567 -0.0472985 -4.52713e-18)
(0.408506 -0.0583534 -2.6528e-18)
(0.515846 -0.0559003 2.26684e-18)
(0.609534 -0.0405599 3.95312e-18)
(0.692149 -0.0152793 6.35894e-19)
(0.768173 0.0155255 2.31042e-18)
(0.842455 0.046189 1.8476e-18)
(0.917581 0.0710146 3.22725e-19)
(0.993282 0.0845077 2.1039e-19)
(1.06513 0.082828 2.58251e-18)
(1.12572 0.0645706 2.96347e-18)
(1.16615 0.0331567 3.09915e-18)
(1.18379 -0.00409063 1.79095e-18)
(1.17914 -0.0402447 2.49471e-18)
(1.16059 -0.0678477 -6.08272e-19)
(1.13119 -0.0872856 1.87372e-18)
(1.10238 -0.0934076 1.35608e-18)
(1.06996 -0.0951774 -1.72901e-19)
(1.04803 -0.0817042 7.32006e-19)
(-0.062748 0.0811794 1.03156e-18)
(-0.0648882 0.0720087 3.12753e-19)
(-0.0447107 0.0601709 2.74377e-19)
(0.0139592 0.0281347 -3.12308e-18)
(0.10442 0.00397572 -8.28459e-18)
(0.220913 -0.0230332 -1.22081e-20)
(0.35081 -0.041743 6.56903e-18)
(0.47622 -0.0504459 -2.14434e-18)
(0.58754 -0.0462133 3.9363e-18)
(0.681685 -0.0301811 3.14695e-19)
(0.762174 -0.00553278 -1.99813e-18)
(0.834097 0.0233405 -3.34513e-18)
(0.902277 0.0510402 -1.81056e-18)
(0.969103 0.0724387 3.58487e-19)
(1.03401 0.0827259 1.73754e-18)
(1.09296 0.0791051 -3.38146e-22)
(1.14026 0.0610179 6.50967e-19)
(1.1698 0.031989 -1.57235e-18)
(1.18059 -0.00156958 -2.69645e-18)
(1.17337 -0.0340746 -2.99251e-19)
(1.15511 -0.058881 -1.33066e-18)
(1.12795 -0.0769358 4.75829e-19)
(1.10158 -0.0826987 -2.05319e-18)
(1.07207 -0.0852697 -1.4426e-18)
(1.05198 -0.0733045 4.70684e-20)
(-0.0649596 0.0822262 -1.13931e-18)
(-0.0625631 0.0722616 2.0951e-18)
(-0.0349182 0.0608258 6.83423e-19)
(0.0347596 0.0287141 1.76781e-18)
(0.139331 0.00561918 3.95944e-18)
(0.270687 -0.0194599 -2.07146e-18)
(0.412197 -0.0356654 -4.05537e-18)
(0.544054 -0.0420328 3.20495e-18)
(0.656889 -0.0362696 -4.37743e-18)
(0.749071 -0.019942 -2.20073e-18)
(0.825272 0.0036572 2.75463e-19)
(0.891251 0.0302755 2.61419e-18)
(0.951904 0.0548807 2.25525e-18)
(1.00958 0.072962 -1.17611e-18)
(1.06375 0.0804108 2.60547e-19)
(1.11118 0.0753366 -1.88475e-18)
(1.1477 0.0577349 3.33169e-18)
(1.16913 0.0310594 3.62243e-19)
(1.17528 0.000804737 -2.11824e-18)
(1.16677 -0.0284542 1.30316e-18)
(1.14935 -0.0508104 1.78263e-18)
(1.1245 -0.0676048 1.36247e-18)
(1.10047 -0.0730198 1.36348e-18)
(1.07366 -0.0762802 1.59424e-18)
(1.05526 -0.06564 -6.04046e-19)
(-0.0672277 0.0830116 2.63507e-18)
(-0.0600431 0.0720792 1.19783e-18)
(-0.0243349 0.0610482 2.74668e-19)
(0.0574061 0.0290199 6.21942e-18)
(0.177097 0.00730128 1.55141e-18)
(0.32331 -0.0154923 -2.79106e-18)
(0.474944 -0.0290276 -6.30466e-18)
(0.610831 -0.0331892 -6.7798e-18)
(0.722634 -0.0262332 -1.78246e-18)
(0.810622 -0.0100378 -1.43211e-18)
(0.880772 0.0121306 5.72768e-19)
(0.939528 0.0362578 1.3784e-18)
(0.991931 0.057754 -7.28813e-19)
(1.04041 0.0727351 4.43466e-18)
(1.08469 0.0777603 -4.9559e-18)
(1.12237 0.07167 2.12248e-19)
(1.15043 0.0547648 -2.60938e-18)
(1.16594 0.0303449 1.71432e-18)
(1.16897 0.00302613 2.68193e-18)
(1.15996 -0.0233388 -2.99119e-18)
(1.14366 -0.0435521 -2.15036e-18)
(1.12104 -0.0591814 -3.16656e-18)
(1.09917 -0.0642703 -6.19015e-20)
(1.07484 -0.0681134 -7.67686e-19)
(1.05797 -0.0586354 9.88809e-20)
(-0.0695485 0.0835362 -1.10237e-18)
(-0.0573019 0.0714473 -5.1685e-18)
(-0.0128581 0.0608256 -2.99249e-18)
(0.0821155 0.029107 -7.34348e-18)
(0.217841 0.00915059 7.78252e-19)
(0.378427 -0.0110252 -7.34169e-19)
(0.53816 -0.0218292 -8.23693e-19)
(0.675394 -0.024028 5.66905e-18)
(0.783734 -0.0162741 2.91083e-19)
(0.865663 -0.000626693 -1.46768e-18)
(0.928518 0.0198017 -1.08803e-18)
(0.979381 0.0413101 -2.78153e-18)
(1.02346 0.0597939 -3.26533e-18)
(1.06331 0.0719663 -2.15939e-18)
(1.09894 0.0749811 -3.0286e-19)
(1.12866 0.0682291 6.90192e-19)
(1.15019 0.0521392 2.24478e-18)
(1.1614 0.029833 1.75559e-18)
(1.16234 0.00510716 -1.49755e-18)
(1.1533 -0.0186729 2.11415e-18)
(1.13819 -0.0370196 2.15376e-18)
(1.11765 -0.05156 1.31045e-18)
(1.09775 -0.0563563 -1.05468e-19)
(1.07569 -0.0606815 1.10748e-20)
(1.06019 -0.0522237 1.16954e-18)
(-0.0719177 0.0838018 -2.52341e-19)
(-0.0543044 0.0703521 -3.15361e-18)
(-0.000359069 0.0601566 3.53618e-19)
(0.109131 0.0290578 4.56977e-18)
(0.261605 0.0113145 -2.4566e-18)
(0.435499 -0.00597346 6.79123e-18)
(0.600827 -0.0141162 -5.0645e-18)
(0.736689 -0.0146869 -2.1652e-18)
(0.839429 -0.00655266 4.0515e-18)
(0.913917 0.00817886 4.40545e-18)
(0.968782 0.0266505 2.51384e-19)
(1.01163 0.0455192 1.2438e-18)
(1.0478 0.0611734 9.02299e-19)
(1.07994 0.0708605 -2.61022e-18)
(1.10829 0.0722416 -5.41911e-18)
(1.13165 0.0650953 -6.49678e-19)
(1.14818 0.0498705 -4.11733e-19)
(1.15625 0.029512 -1.30169e-18)
(1.15578 0.0070667 2.01991e-18)
(1.14698 -0.0144009 -9.77313e-19)
(1.13304 -0.0311312 -1.54921e-18)
(1.11439 -0.0446445 9.98978e-19)
(1.09628 -0.0491919 -2.27744e-19)
(1.07625 -0.0539056 7.17396e-19)
(1.06199 -0.0463431 2.6406e-19)
(-0.0743298 0.0838109 4.20978e-18)
(-0.0510044 0.0687825 7.47123e-18)
(0.0133243 0.0590534 2.60326e-18)
(0.138708 0.028986 1.45882e-18)
(0.308317 0.0139437 6.33036e-18)
(0.493848 -0.000291388 -3.14671e-19)
(0.661921 -0.00597682 2.8342e-18)
(0.793845 -0.00531674 -4.51564e-19)
(0.889278 0.00279505 -4.0658e-18)
(0.955458 0.0163145 -1.29427e-18)
(1.00214 0.0327086 -1.15439e-18)
(1.0373 0.0490048 4.4972e-18)
(1.0663 0.0620657 1.90926e-18)
(1.09178 0.0695903 1.27006e-18)
(1.11415 0.0696597 8.19446e-19)
(1.13247 0.0623108 6.97441e-19)
(1.14517 0.0479549 -7.9156e-20)
(1.15092 0.0293683 -1.88782e-18)
(1.14949 0.00892439 -1.15358e-18)
(1.14107 -0.0104726 4.02735e-19)
(1.12823 -0.0258121 2.91402e-18)
(1.11128 -0.0383485 2.73353e-19)
(1.09478 -0.0427004 6.85836e-19)
(1.07659 -0.0477137 -2.27578e-18)
(1.06342 -0.0409394 -1.00075e-18)
(-0.0767783 0.0835671 -4.56611e-18)
(-0.0473438 0.0667318 -6.27971e-18)
(0.0283925 0.0575458 -6.32158e-18)
(0.171092 0.029037 -1.13892e-18)
(0.357742 0.0171734 -9.94946e-18)
(0.552603 0.0060085 -6.07775e-19)
(0.72048 0.0024684 -3.03968e-18)
(0.846226 0.00393542 1.57611e-19)
(0.933139 0.0116661 4.2729e-18)
(0.990635 0.0237594 1.93732e-19)
(1.02934 0.0380412 1.82727e-18)
(1.05742 0.0518955 -4.28414e-18)
(1.08014 0.0626212 -1.86811e-18)
(1.10005 0.068286 -6.34451e-19)
(1.11757 0.0673091 2.87642e-18)
(1.13191 0.059889 -1.21831e-18)
(1.14166 0.0463771 -2.83043e-19)
(1.14568 0.0293859 4.42871e-18)
(1.14358 0.0106985 -1.40208e-18)
(1.13561 -0.00684481 9.69953e-19)
(1.12374 -0.0209953 -1.78749e-18)
(1.10833 -0.0325954 -2.12315e-18)
(1.09326 -0.036814 -2.05274e-18)
(1.07672 -0.0420405 2.04811e-18)
(1.06452 -0.0359651 -1.89009e-18)
(-0.0792553 0.083074 2.86226e-18)
(-0.0432486 0.0641976 4.02812e-18)
(0.0450869 0.0556895 2.8317e-19)
(0.206484 0.0293828 -9.48418e-19)
(0.409466 0.0211029 5.07696e-18)
(0.610854 0.0128617 4.72819e-18)
(0.775675 0.0110778 5.78279e-18)
(0.893453 0.0129391 1.67821e-18)
(0.97113 0.0199936 -1.92762e-18)
(1.01998 0.0305273 2.16882e-18)
(1.05122 0.0427314 -3.91942e-19)
(1.07299 0.0543159 2.7904e-18)
(1.09036 0.062963 -1.68911e-18)
(1.10566 0.067038 5.20199e-19)
(1.11931 0.0652294 1.56232e-19)
(1.13051 0.057824 7.01635e-19)
(1.13796 0.0451147 -3.28152e-18)
(1.14065 0.029548 -3.72825e-18)
(1.13809 0.0124052 7.39445e-19)
(1.13056 -0.00348151 -3.07802e-18)
(1.11957 -0.0166206 -8.4516e-19)
(1.10555 -0.027318 4.50673e-20)
(1.09175 -0.0314741 2.21036e-20)
(1.07667 -0.036825 9.54763e-19)
(1.06534 -0.0313807 2.40147e-18)
(-0.0817508 0.0823355 1.19454e-18)
(-0.0386252 0.0611821 -3.53091e-18)
(0.0636887 0.0535751 2.76786e-18)
(0.244997 0.030208 -1.50619e-18)
(0.462883 0.0257817 2.61091e-18)
(0.667662 0.0201608 -6.74973e-19)
(0.826871 0.0197083 -4.4434e-18)
(0.935391 0.0215899 2.45763e-19)
(1.00356 0.0277442 -4.40828e-19)
(1.04412 0.0366561 1.70455e-21)
(1.06858 0.0468676 1.76403e-18)
(1.08488 0.0563755 -2.34887e-18)
(1.09778 0.063187 1.91774e-18)
(1.10936 0.0659059 3.7759e-19)
(1.1199 0.0634357 1.97425e-18)
(1.12861 0.0560985 1.37909e-18)
(1.13426 0.0441416 1.80867e-18)
(1.1359 0.0298375 -4.35619e-19)
(1.13301 0.0140585 2.4038e-18)
(1.12591 -0.000353302 1.54008e-18)
(1.11569 -0.0126336 9.35164e-19)
(1.10292 -0.0224579 9.07198e-19)
(1.09023 -0.0266292 1.1938e-18)
(1.07647 -0.0320102 -4.49049e-19)
(1.06591 -0.0271539 -1.81146e-18)
(-0.0842528 0.0813548 -1.7764e-18)
(-0.0333568 0.0576942 8.05507e-19)
(0.084512 0.051335 5.6511e-18)
(0.286611 0.0316877 6.09125e-18)
(0.517264 0.0311975 -4.03983e-18)
(0.722182 0.0277742 -3.93918e-18)
(0.873654 0.0282293 -3.6395e-19)
(0.972115 0.0298132 -1.18053e-18)
(1.03089 0.0349127 3.21793e-18)
(1.06373 0.0421985 3.43124e-19)
(1.08219 0.0505354 1.16968e-18)
(1.09386 0.058165 7.2507e-19)
(1.10309 0.0633654 5.50861e-19)
(1.11167 0.0649259 -3.38753e-18)
(1.11973 0.0619274 -2.66956e-18)
(1.12644 0.0546889 -4.06886e-18)
(1.13064 0.0434303 -1.35958e-18)
(1.13144 0.0302386 3.69086e-19)
(1.12833 0.0156698 -3.31285e-18)
(1.12162 0.00256357 -7.6981e-19)
(1.11208 -0.00898434 -5.02269e-19)
(1.10043 -0.0179661 -1.18141e-18)
(1.08871 -0.0222334 1.9463e-19)
(1.07614 -0.027543 -3.00682e-19)
(1.06627 -0.0232593 -1.38308e-19)
(-0.0867467 0.0801339 -2.17731e-18)
(-0.027299 0.0537527 1.892e-18)
(0.107887 0.0491482 -1.22834e-19)
(0.331129 0.033962 -3.20054e-18)
(0.571736 0.0372727 3.09508e-18)
(0.773712 0.0355636 2.7335e-18)
(0.915815 0.036532 -1.08839e-18)
(1.00386 0.0375628 -2.85231e-18)
(1.05361 0.0415151 -1.05595e-18)
(1.07946 0.0472139 -5.53041e-18)
(1.09273 0.0538141 -4.36655e-18)
(1.10055 0.059757 7.68157e-19)
(1.10681 0.0635487 2.13482e-18)
(1.11298 0.0641175 2.14292e-18)
(1.11905 0.0606939 -2.48865e-18)
(1.12414 0.0535691 2.22672e-18)
(1.12717 0.0429533 8.74125e-19)
(1.12728 0.0307365 7.37492e-20)
(1.12401 0.0172484 2.31558e-18)
(1.11764 0.00528859 -5.07772e-19)
(1.10872 -0.0056268 -2.19259e-19)
(1.09807 -0.0138026 1.2202e-18)
(1.08719 -0.0182443 -4.31568e-19)
(1.0757 -0.0233754 1.76853e-18)
(1.06645 -0.0196774 -1.34768e-18)
(-0.0892146 0.0786725 8.50342e-19)
(-0.0202753 0.0493907 -4.43084e-18)
(0.134131 0.0472376 -5.41492e-18)
(0.378169 0.0371131 -4.05706e-18)
(0.625455 0.0438865 4.65222e-18)
(0.821723 0.0433948 -3.33683e-18)
(0.953331 0.0445323 5.04915e-18)
(1.03097 0.0448175 3.33025e-18)
(1.07228 0.0475817 -8.9456e-19)
(1.09191 0.0517637 8.71183e-19)
(1.10077 0.0567733 2.7296e-18)
(1.10544 0.0612099 -5.02675e-19)
(1.10932 0.0637693 -6.60124e-19)
(1.11356 0.0634891 -3.83788e-19)
(1.11803 0.0597181 1.01103e-18)
(1.1218 0.0527125 -2.8701e-18)
(1.12386 0.0426843 -1.82577e-18)
(1.1234 0.0313189 2.22194e-18)
(1.12002 0.0188012 -7.19228e-19)
(1.11394 0.00783827 -2.71411e-19)
(1.10559 -0.00251879 1.45519e-18)
(1.09581 -0.00993537 -6.53626e-19)
(1.08567 -0.0146214 -1.78784e-18)
(1.07517 -0.0194647 -1.52355e-18)
(1.06647 -0.0163944 2.2852e-18)
(-0.0916346 0.0769673 1.04092e-19)
(-0.0120734 0.0446622 1.26869e-18)
(0.16351 0.0458565 1.72609e-18)
(0.42716 0.0411496 6.71076e-18)
(0.677601 0.0508949 -7.36854e-18)
(0.865872 0.0511501 2.56733e-18)
(0.986328 0.0521713 -3.10848e-18)
(1.05385 0.0515756 9.18314e-19)
(1.08743 0.0531518 -2.1247e-18)
(1.10164 0.0559071 -1.5743e-18)
(1.10682 0.0594725 -2.3878e-18)
(1.10894 0.062569 -1.13798e-18)
(1.11092 0.0640487 1.56207e-18)
(1.11364 0.0630377 -1.7248e-18)
(1.11679 0.0589806 -1.70346e-18)
(1.11946 0.0520926 4.76367e-18)
(1.12072 0.0425984 4.4772e-18)
(1.11978 0.0319749 -5.76001e-19)
(1.11632 0.0203327 2.61894e-19)
(1.1105 0.0102273 7.45998e-19)
(1.10266 0.000378127 -1.09123e-18)
(1.09364 -0.00633965 1.20574e-18)
(1.08415 -0.0113247 1.27932e-18)
(1.07456 -0.0157737 -1.66739e-18)
(1.06635 -0.0134036 -2.01115e-18)
(-0.0939796 0.0750103 1.01296e-18)
(-0.00244419 0.039651 2.61865e-18)
(0.196189 0.0452632 -5.2412e-18)
(0.477397 0.0460083 -3.84007e-18)
(0.727496 0.0581533 3.61024e-18)
(0.905993 0.0587344 3.41489e-18)
(1.01503 0.0594133 4.5833e-18)
(1.07295 0.05785 -2.95564e-18)
(1.09957 0.0582692 1.68602e-18)
(1.10911 0.0596989 1.02665e-18)
(1.11127 0.0619619 -3.82559e-19)
(1.11137 0.0638681 -3.41838e-18)
(1.11186 0.0644011 -5.6534e-18)
(1.11334 0.0627538 -2.46559e-18)
(1.11541 0.05846 4.45969e-18)
(1.11717 0.0516848 -8.27395e-19)
(1.11774 0.0426727 -9.38566e-20)
(1.1164 0.0326956 1.08413e-18)
(1.11288 0.0218455 -2.73975e-20)
(1.10727 0.0124697 9.28618e-19)
(1.09991 0.00309823 -1.19971e-18)