/*--------------------------------*- C++ -*----------------------------------*\
  =========                 |
  \\      /  F ield         | OpenFOAM: The Open Source CFD Toolbox
   \\    /   O peration     | Website:  https://openfoam.org
    \\  /    A nd           | Version:  7
     \\/     M anipulation  |
\*---------------------------------------------------------------------------*/
FoamFile
{
    version     2.0;
    format      ascii;
    class       volScalarField;
    location    "1.192";
    object      T;
}
// * * * * * * * * * * * * * * * * * * * * * * * * * * * * * * * * * * * * * //

dimensions      [0 2 -2 0 0 0 0];

internalField   nonuniform List<scalar> 
12359
(
3.5305e-74
3.01002e-61
-1.07489e-198
-3.62911e-41
2.78491e-69
-4.91829e-27
3.1916e-22
-2.32943e-24
7.41771e-17
6.96872e-30
3.39825e-19
-1.04229e-12
0.257934
-4.07696e-37
-1.12533e-42
1.56045e-05
0.00266551
-1.74556e-109
6.16171e-113
2.26245e-51
-1.40735e-34
1.26219e-14
-5.38676e-56
8.16981e-48
1.47477e-58
-5.17599e-53
5.73629e-144
-8.71464e-147
-1.93775e-117
6.13654e-136
3.49368e-131
1.80633e-161
-7.65392e-177
-4.40416e-139
4.9619e-188
2.22327e-128
-3.81244e-90
8.04715e-77
1.76269e-71
-3.74249e-82
-9.98284e-64
5.95222e-80
1.35056e-96
4.8169e-99
6.38515e-123
1.16839e-120
-1.96553e-125
-2.39098e-133
7.0491e-115
-1.50296e-141
-1.24641e-150
-7.1055e-155
-2.68304e-163
6.40408e-107
-4.99516e-169
3.04022e-174
-1.55425e-101
1.22051e-179
-4.40454e-183
-1.62291e-185
-7.38509e-172
1.23463e-193
3.2815e-152
9.76693
4.44372e-105
8.1085e-33
9.21589e-92
8.55312e-158
-9.73486e-87
3.83674e-08
107.275
-3.58234e-66
1.57197e-201
3.64372e-84
5.50854e-46
-9.72745e-191
7.97244e-166
2.69014e-196
-4.17704e-94
-1.2166e-10
-1.84514e-26
-1.13313e-110
-1.04957e-239
-1.07789e-71
0.00185257
4.09459e-65
-4.52711e-109
1.04735e-154
1.19398
0.00060553
4.17333e-212
3.20073
1.37254e-213
1.43816e-92
-4.4689e-75
5.91782e-43
2.40394e-97
5.80417e-93
7.84411e-47
3.17567e-59
4.93042e-22
6.39696e-211
1.13769e-65
30.7007
-4.60874e-117
1.46119e-25
-2.6091e-204
0.00243846
2.19243e-73
1.48004e-26
1.02474e-99
-1.8436e-110
-2.31498e-30
2.15177e-25
-9.42261e-76
-4.68121e-138
1.6525e-24
-1.03417e-109
4.10279
-1.89897e-237
4.93577e-100
4.24035e-22
3.27839e-153
3.67377e-30
-7.50343e-109
-5.71762e-129
5.32796e-16
-5.16665e-71
2.91953e-197
-1.10828e-109
1.7862e-138
4.42882e-05
0.00116529
0.000856535
-2.88157e-205
6.50516e-31
-3.37033e-137
5.32949e-32
1.57906e-207
7.81433e-17
-1.75068e-228
-4.18029e-71
2.27258e-33
2.01838e-204
6.20762e-17
6.27394e-27
2.32679e-239
0.000791741
-1.8955e-116
5.9428e-26
3.7918e-40
-8.05796e-209
8.04162e-33
1.08687e-151
2.35269e-218
116.313
9.88453e-23
4.49567e-05
9.10349e-98
-2.49419e-159
4.76761e-32
-2.3855e-158
9.8978e-30
3.37656e-32
2.44622e-226
-2.59029e-130
1.05105e-32
7.6363e-23
6.71327e-34
1.05611
-1.05858e-193
-3.03405e-192
1.44571e-34
-2.55111e-58
-1.69124e-118
3.17992e-17
-1.08896e-118
-4.3594e-120
-3.76452e-30
4.08852e-18
-1.3213e-36
2.36614e-216
7.65843e-197
-6.49356e-110
5.19169e-48
1.81813e-15
-1.23928e-92
-1.75897e-78
1.1805e-39
-6.3287e-93
-3.58987e-77
3.80226e-44
5.34956e-46
1.79646e-150
6.81006e-26
44.1302
1.74326e-55
-2.74285e-92
6.17323e-33
-7.85994e-109
9.14577e-26
5.59151e-40
-1.44122e-59
1.35003e-26
1.02529e-19
7.0788e-216
9.13746e-19
3.35595e-59
2.03554e-25
-2.89524e-99
1.13197e-222
5.45367e-12
8.09183e-12
158.1
5.16893e-15
-5.45824e-204
-2.15984e-92
-6.99005e-77
-6.54437e-92
-2.97347e-71
9.42536e-26
-1.33416e-100
6.33443e-31
3.11597
-1.06262e-109
3.49957e-222
-5.74107e-70
1.19491e-74
1.38436e-18
-2.63552e-90
-1.33116e-89
4.82315e-228
3.12214e-17
3.1471e-54
-1.07312e-78
2.2758e-55
-1.48757e-235
4.8607e-31
-1.79471e-77
0.000100051
-3.61585e-219
3.31546e-62
-1.36772e-85
6.40422e-10
2.36347e-30
0.00119228
4.37101e-184
3.52183e-26
6.60464e-124
2.89905e-46
6.93754e-17
-6.7421e-79
-6.95613e-123
-8.52562e-90
1.40608
129.552
-2.52959e-235
-5.2857e-104
1.4732
195.688
2.39654e-58
9.06486e-31
2.31905e-20
2.29953e-26
-8.49431e-60
62.464
4.12115
4.61544e-29
-2.9044e-105
3.75919e-31
5.95679e-34
7.36165e-48
3.00528e-33
-3.82078e-91
-1.2568e-101
2.10534e-220
-5.42514e-103
9.13781
7.99791e-29
-5.06601e-188
-1.07484e-208
4.64737e-26
-2.42544e-103
1.94986e-94
1.94692e-63
1.78217e-231
1.60092e-20
1.05381e-209
5.23552e-210
2.0461e-162
1.74631e-30
-2.6701e-112
55.6902
-2.52031e-206
1.25359e-203
7.85074e-65
-2.78082e-124
1.35134e-26
-7.76441e-80
-1.6789e-152
1.01461e-211
8.43171
1.49982e-19
8.06392e-213
-1.02881e-91
-4.42841e-81
-2.16221e-122
-1.96208e-136
-3.09885e-140
-1.82294e-120
-2.66241e-111
-9.00254e-16
-8.94417e-123
3.1114e-131
-2.0185e-77
1.52512e-31
1.99772
-5.18161e-122
9.61758e-51
6.77137e-06
-5.20514e-209
1.56006e-40
1.45642e-187
9.73606e-55
5.60611e-203
6.04459e-123
1.1572e-15
1.41449e-37
4.2522e-16
4.64721e-94
-1.74819e-85
5.99185e-46
1.11943e-41
-2.13738e-84
3.41302e-46
2.17196e-46
-5.28143e-171
1.0932e-165
4.61248e-166
1.77707e-165
7.16917e-165
0.000394812
-5.40017e-231
1.16324e-24
7.43419e-31
3.73361e-50
1.89125e-31
4.75513e-37
2.86768e-65
1.07834e-56
4.75028e-37
1.96073e-57
1.88381e-50
4.21729e-29
1.91667e-28
1.00349e-29
-4.05035e-70
3.08497e-14
-1.84846e-72
-1.93501e-73
1.90349e-33
9.70741e-20
-1.47522e-113
2.03175e-167
4.60604e-55
9.39238e-169
-1.2301e-110
170.672
20.7716
-2.48572e-111
2.10634e-205
1.91675e-207
-1.13121e-216
1.4459e-37
5.93846e-217
3.65166e-217
1.44268
1.75357e-32
0.000463793
-1.03819e-113
1.264e-27
-6.83599e-105
-1.37953e-84
1.37263e-25
9.69262e-56
-6.01718e-38
5.19917e-57
-5.05023e-114
-8.2905e-188
8.39454e-33
1.72338e-27
-7.01591e-112
2.54736e-11
8.44639e-26
9.62478e-43
5.06593e-40
6.30568e-34
1.79402e-204
9.92024
1.83418e-13
-1.65725e-112
2.11286e-10
-8.36071e-75
-7.88155e-227
9.33713e-228
-3.5485e-218
0.000863157
1.33418e-20
9.17973e-49
3.61029e-41
1.21712e-40
-9.5152e-74
-7.571e-37
2.87998e-41
1.36504e-08
1.97154
8.25157e-11
1.06868e-49
1.10263e-30
5.18109e-72
1.05219e-26
1.24755e-60
8.82016e-54
2.25756e-139
5.85515e-62
3.24204e-35
5.24708e-216
185.921
-8.22011e-91
1.97031
3.41045e-28
1.85391e-100
1.18702e-28
1.1266
2.26508e-35
2.13884e-55
7.77943e-43
3.35834e-27
6.27678e-26
-1.55395e-106
-3.49996e-222
3.00911e-23
-1.46326e-201
1.85896e-05
3.86453e-137
-9.91307e-53
6.87039e-34
5.49442e-87
0.0103754
6.80722e-24
-1.53539e-61
-2.36488e-107
6.07736e-05
-3.56978e-176
-6.60458e-117
2.09073e-14
3.75707e-204
-3.41923e-107
-7.30718e-118
1.32007e-07
17.7075
-5.72188e-73
5.16116e-159
-8.73385e-32
9.45619e-35
1.25418e-40
1.3196e-31
1.22631e-33
-6.00451e-170
-3.8581e-218
2.97396e-38
1.48662e-210
6.55777e-35
3.85627e-41
3.80681e-27
-1.35758e-121
2.76969e-24
5.94967e-13
-8.88507e-138
-1.61321e-74
-1.6988e-110
-2.06448e-28
3.85695e-14
-1.0851e-205
5.50087e-37
7.94687e-35
2.14966e-74
7.40228e-36
-1.7537e-135
8.48358e-21
9.02438e-57
1.40338e-29
1.8631e-27
-2.0733e-168
-1.55285e-74
1.11795e-09
0.00379653
6.81712e-212
6.31364e-53
4.8905e-10
1.33037e-37
0.849023
-3.73984e-218
6.73396e-138
-1.66e-174
1.44462e-31
3.79086e-58
7.79924e-69
-4.496e-134
5.19636e-39
5.22084e-52
-3.76304e-58
4.72402e-95
0.000337041
-1.65052e-196
0.000757485
5.46522e-156
148.202
1.0132e-55
2.21065e-10
3.236e-182
-1.01328e-122
1.60957e-30
-1.89567e-111
-9.03105e-154
1.28621e-96
1.66166e-56
9.29503e-57
5.65638e-12
1.66748e-22
1.48265e-22
5.58998e-240
-3.14839e-111
2.45168e-39
0.00530047
1.11359e-239
1.03413e-192
3.29004e-34
-3.30838e-172
3.3102e-16
1.33285
110.55
2.7681e-238
-1.67226e-73
4.46618e-16
-2.14352e-66
-5.27207e-119
88.3656
6.10602e-195
2.82592e-23
8.42392e-33
1.4783e-74
-2.3084e-121
-4.11588e-151
2.16343e-88
3.01756e-31
7.77657e-58
7.38139e-73
9.15677e-237
-2.41719e-195
1.08576e-60
-4.36528e-118
7.4352e-27
1.03586e-31
8.28331e-161
-1.08469e-189
1.42977e-28
177.522
2.31864e-132
8.09704e-09
-2.2666e-208
6.93699e-72
2.15991e-23
4.34264e-37
1.52386e-17
1.02042e-27
1.69369e-57
5.01067e-28
-1.2235e-223
6.89683e-190
2.95781e-40
4.52899e-65
7.46741e-59
1.53275e-66
8.64246e-219
-1.08475e-188
-1.43461e-128
2.9863e-45
1.88898e-24
-2.57149e-32
-1.05968e-89
-1.05922e-30
1.00696e-33
3.87321e-54
-9.39866e-30
4.54945e-54
2.50925
4.43663e-32
5.1609e-52
5.85407e-28
-6.14367e-189
1.6169e-22
3.76102e-30
-1.31198e-240
7.22818e-206
-1.51283e-171
-9.64783e-180
6.56048e-07
1.20149e-53
2.26574e-80
-1.41306e-31
7.635e-96
1.43635e-15
3.12865e-38
5.95768e-31
-1.19432e-127
1.74616e-10
-6.36826e-219
-1.17141e-45
-9.4364e-109
9.71192e-19
-4.12207e-29
2.82286e-62
2.88138e-53
8.98139
1.22228e-34
2.41356e-13
2.39597e-61
1.95239e-11
0.617532
-5.78961e-163
-1.41384e-113
1.38459e-219
3.06252e-08
-5.72383e-114
1.03581e-57
0.00848073
2.77569e-193
-5.15455e-58
9.62733e-31
2.99792e-58
-3.47244e-130
2.3426e-63
-8.17392e-159
-5.69646e-63
4.94076e-162
-1.24923e-157
-1.50524e-67
2.65266e-30
2.75134e-33
5.77368e-57
3.01167e-08
7.6663e-38
16.1674
2.59223e-34
7.53014e-64
-3.6909e-65
6.67434e-36
6.04542e-49
3.02574e-44
0.58659
-2.15262e-34
2.98839e-51
6.41244e-49
-1.58566e-110
-3.19401e-119
5.25182e-29
-1.09395e-220
25.9993
-6.18878e-164
-1.75296e-33
1.06022e-21
4.86254e-07
4.4635e-18
2.26685e-27
7.44172e-32
3.79845e-62
2.60754e-18
2.09001e-40
3.13204e-13
1.93241e-48
3.50893e-13
1.42448e-49
2.77824e-232
4.60728e-50
176.734
4.94492e-13
-7.54441e-88
3.89536e-225
-1.86099e-158
1.87721e-81
-1.42122e-52
6.18386e-34
1.34485e-52
-5.68301e-171
-1.91232e-86
1.82706e-48
-1.79713e-90
1.90203e-95
2.58797e-12
-1.77133e-101
9.50185e-42
3.92927e-24
1.26974e-87
-1.7772e-79
2.29922e-27
1.49367e-241
-3.45335e-84
52.8207
-2.83013e-186
5.99104e-16
2.59199e-22
7.97305e-81
8.77133e-32
2.79348e-24
3.13935e-50
2.07613e-25
1.71755e-115
-7.66922e-32
-4.39575e-119
1.58916e-47
2.34349e-26
-1.1793e-30
5.34617e-115
1.63863e-27
7.11804e-06
6.33254e-43
6.27859e-63
-2.29567e-107
5.77626e-22
7.68735e-07
-1.92444e-112
1.70166e-205
1.75227e-50
2.64566e-214
0.720579
5.41041e-49
3.92443e-12
6.05368e-61
8.91991e-54
14.7592
2.82082e-59
0.00175301
4.52355e-35
105.728
8.36731e-39
-7.96173e-72
1.40553e-60
1.08538e-75
0.00458956
0.000456106
5.87304e-160
2.28045e-157
-1.23428e-28
8.69814e-148
0.00375251
5.30754e-27
4.51353e-10
-2.33715e-107
126.774
0.100688
2.24138e-48
8.91567e-232
6.44845e-120
-1.63503e-36
6.13428e-80
-6.58847e-89
3.78041e-77
8.07007e-35
1.55861e-41
57.253
2.72965e-07
-1.59354e-172
5.14535e-36
9.46064e-24
-1.54534e-27
1.88729e-66
2.69542e-22
9.11242e-29
-1.56131e-35
-7.06941e-128
-4.90304e-230
7.60174e-20
6.28789e-17
2.19246e-54
-1.55382e-29
6.47211e-13
4.73466e-65
2.7262e-51
1.39271e-107
1.59293e-71
1.5544e-14
6.39653e-70
3.89189e-24
3.9875e-38
3.99055e-44
4.96238e-87
1.38874e-72
2.68401e-06
8.55049e-63
1.51141e-66
59.3576
4.20017e-46
1.19921e-66
0.00993387
1.90055e-235
1.76708e-61
3.27529e-56
-2.54003e-80
-1.97976e-131
9.92446e-53
-9.43718e-243
1.59927e-09
-7.09519e-113
-7.20409e-57
1.45472e-20
1.19638e-31
3.70011e-57
1.1807e-59
7.78185e-21
92.7665
-1.14489e-187
2.39224e-99
1.44485e-65
0.0083526
4.16777e-17
1.3541e-116
3.75335
2.90067e-229
-7.86844e-115
187.809
-2.70394e-88
8.27877e-114
1.02713e-110
2.7227e-39
-1.0938e-38
-5.62662e-186
-4.84951e-82
2.47258e-24
1.80602e-56
1.92928e-60
8.15121e-78
-6.28858e-162
-1.24086e-37
2.96595e-06
-6.93538e-64
-1.34269e-30
1.02391e-35
1.54836e-45
2.44169e-10
1.56829e-24
1.24879e-76
-2.51353e-113
0.000536176
9.02683e-30
6.29558e-45
-6.76153e-106
-1.80709e-178
1.10733e-35
1.1632e-10
1.03072e-64
6.87927e-28
2.2332e-63
3.71284e-76
-6.97788e-95
2.51298e-38
149.908
19.2882
4.24865e-37
-3.91894e-61
-9.35766e-97
2.75467e-39
0.0129457
-5.67528e-33
3.93617e-118
4.02461e-11
9.76469e-08
10.0795
1.25093e-79
92.8807
-5.34647e-184
8.03179e-75
-1.85583e-180
8.46934e-11
8.30062e-44
84.3326
-2.45855e-119
0.0214468
1.01121e-146
-1.15438e-61
4.17388e-27
8.48155e-82
7.78253e-12
0.161587
-9.36264e-87
3.33704e-86
7.58486e-61
1.35357e-80
-4.26296e-88
1.28766e-13
4.1861e-46
4.03595e-59
2.56438e-15
-3.27798e-88
2.60055e-173
-1.52483e-65
-4.228e-157
2.34058e-26
2.08922e-60
5.05465e-09
8.43482e-11
-6.77657e-41
1.18565e-31
2.9492e-35
1.22397e-61
0.0150559
9.73296e-67
-3.72009e-92
5.94164e-218
5.75276e-11
-3.8839e-34
-1.46914e-120
2.48023e-25
-3.84348e-78
7.43736e-32
-2.31979e-36
-6.75746e-32
2.44024e-36
90.4792
7.27449e-35
-7.90044e-40
0.171891
1.34466e-81
2.61868e-07
4.76188e-23
9.75821e-151
2.21253e-65
6.66205e-94
4.05551e-65
-4.28932e-225
-5.88391e-109
3.49182e-07
4.87625e-11
-9.96141e-110
209.635
1.94496e-28
-5.69225e-158
1.00343e-11
3.9564e-12
-1.4769e-160
1.31618e-10
2.02169e-21
4.81849e-11
-2.35609e-157
-2.52021e-121
1.14443e-95
1.17743e-160
-1.13804e-35
30.3786
-1.77784e-122
7.54037e-12
6.40594e-238
2.7998
9.95531e-26
7.09284e-33
-2.44074e-196
-5.41732e-124
6.47678e-74
8.25697e-38
4.79621e-15
1.71049e-32
-4.30369e-89
2.91254e-85
-3.5949e-156
6.49201e-27
3.78084e-37
1.41137e-93
2.77112e-204
2.56324e-51
9.73418e-33
1.16681e-42
-6.17524e-128
9.63907e-07
6.9864e-28
3.60879e-147
1.28303e-42
8.98368e-85
6.76253e-68
196.592
-1.48611e-89
-3.62304e-157
1.26351e-34
-3.3774e-35
-3.75901e-43
2.9675
-4.53578e-59
6.77392e-69
2.05114e-31
-1.74579e-80
1.22791e-76
1.60588e-67
-4.59136e-80
-1.25152e-28
-3.62274e-71
16.8578
-4.86519e-42
6.93771e-10
7.56017e-75
0.0230451
1.44631e-30
1.00771e-08
1.9123e-13
9.19492e-30
4.50728e-67
4.99622e-73
7.40258e-54
-3.96843e-238
1.64495e-70
6.53427e-35
1.41027e-11
-9.03036e-81
2.35218e-148
1.44137e-31
6.99451e-33
5.31461e-16
3.42078e-38
2.87517e-11
7.61041e-16
-9.56039e-105
1.87411e-48
0.959865
4.78185e-36
-1.52977e-228
1.32201e-80
2.99611e-84
-1.1989e-231
1.29632e-49
2.66824e-186
3.88434e-69
1.51129e-14
9.98389e-33
3.84191e-06
-1.12603e-182
-5.16729e-124
5.5354e-213
-7.57948e-82
-1.61577e-97
9.22327e-09
-2.31501e-97
-3.31789e-124
6.43629e-07
8.86497e-34
2.26968e-41
7.68242e-51
5.20801e-17
-4.69189e-88
5.57356e-12
9.87547e-74
1.66278e-175
0.00245811
1.59853e-37
4.76903e-20
3.32316e-93
56.5375
-1.30539e-38
1.96509e-42
1.58307e-29
6.08279e-29
54.9797
3.24401e-71
1.38905e-11
-4.79533e-47
8.90296e-44
-2.28166e-136
1.91463e-59
1.83845e-07
5.05071e-74
8.74484e-09
-5.28239e-87
-7.51642e-91
1.2207e-12
2.13717e-139
-5.24351e-117
7.80238e-70
2.91021e-36
5.15312e-11
-3.8765e-88
4.26644e-83
-6.15018e-212
5.63173e-46
0.00287881
2.45293e-39
-6.32853e-83
4.76602e-59
6.52631e-89
-2.56027e-121
14.5821
-1.97834e-45
-7.91977e-207
2.91968e-47
1.03772e-91
-1.92844e-37
-2.70421e-27
4.14523e-38
7.33481e-82
3.17988e-14
6.25015e-11
4.39387e-201
2.50188e-56
2.57385e-11
-7.13815e-121
-1.76942e-182
-4.67447e-61
7.49573e-47
1.02671e-75
-5.76687e-181
6.82809e-48
2.97056e-12
-1.35609e-159
2.12191e-22
6.69798e-187
5.72207e-93
2.64504e-53
5.25159e-05
-7.91293e-218
2.23957
-2.6226e-44
7.73063e-21
43.9383
-6.81585e-41
4.91543e-53
0.0389788
-1.2272e-81
1.74749e-05
2.08786e-18
2.17018e-61
9.89698e-72
4.06433e-73
-5.35163e-92
-3.23381e-96
6.79027e-20
0.0307327
199.696
3.55206e-23
-3.97572e-28
0.0564406
2.29874e-25
16.325
-1.75284e-135
-1.31863e-90
2.10395e-18
4.69164e-40
4.96149e-111
5.14979e-23
1.35667e-73
51.35
3.7508e-227
-1.67277e-125
-3.06471e-129
209.075
-2.48919e-35
4.72453e-43
-4.96038e-73
9.33025e-19
9.99973e-76
-9.18168e-126
4.42033e-07
3.39349e-72
4.09828e-07
4.88538e-20
1.07817e-61
7.00438e-14
1.04967e-38
-1.74869e-90
-1.88446e-121
-1.81295e-121
0.244872
3.55213e-13
4.32235e-97
1.66685e-17
2.15492e-41
9.10193e-24
-1.95784e-217
6.14185e-43
2.69252e-07
1.23355e-08
-1.01424e-39
-5.29436e-64
-1.52252e-122
5.8469e-15
-1.40206e-78
-1.18299e-125
6.16524e-10
3.34669e-16
-2.16509e-101
3.52577e-29
5.68401e-36
-2.36733e-214
3.66026e-112
-1.06494e-179
-7.97651e-39
91.1852
2.86884e-11
1.06131e-18
-1.3681e-105
1.66285e-77
7.28065e-37
3.46973e-210
3.97925e-09
2.48976e-39
101.608
-6.76096e-27
5.18378e-66
3.60271e-103
-3.23289e-134
8.52503e-72
-1.87178e-79
-1.78521e-110
14.6087
1.25554e-14
2.94091e-34
1.31289e-16
-4.05321e-41
-8.25572e-120
4.42387e-237
3.04418e-109
2.34134e-25
1.00723
-1.70495e-21
4.95618e-42
-1.3616e-46
-1.0864e-72
4.20592e-15
0.0392594
0.0270798
5.27611e-80
-8.00265e-66
5.14666e-27
-5.81038e-90
-2.74899e-173
-6.2691e-110
1.87954e-13
-1.03374e-98
7.26052e-55
-8.6209e-87
2.03104e-39
4.85318e-08
-1.73542e-91
-1.00257e-109
4.12551e-10
7.1859e-14
-4.34582e-95
1.73873e-135
-9.56621e-48
0.00299841
9.20707e-25
1.20943e-21
-4.29285e-50
6.2762e-52
0.0826165
4.56675e-76
-1.42349e-21
-5.05293e-120
2.13068e-12
2.04669e-11
-2.63981e-159
-3.40504e-131
90.7535
-7.67755e-112
7.08238e-70
1.97158e-26
-5.01177e-102
-5.28835e-100
-6.38173e-88
-3.15211e-113
3.10175e-213
4.33061e-15
2.08364e-05
-4.78836e-132
0.0187804
4.6754e-76
-6.40395e-114
1.96769e-12
5.24123e-09
7.40592e-26
-2.48414e-80
-5.67995e-109
-3.29259e-43
152.537
-1.73164e-98
-9.26959e-133
-3.0963e-139
1.2379e-98
6.10513e-57
5.2332e-27
-2.98948e-101
-4.94082e-76
-3.53546e-120
7.51368
1.12271e-08
1.16059e-35
-1.20417e-37
1.19441e-74
-6.14372e-114
7.983e-15
1.42795
1.65223e-70
-1.22523e-138
-2.24664e-115
2.05975e-13
-1.84019e-101
-8.05248e-121
8.66677e-08
7.13027e-80
-1.26437e-108
116.45
3.2694e-05
17.3355
2.18988e-14
-5.79861e-101
4.26589e-11
2.54246e-10
0.179538
3.35103e-90
5.93172e-26
5.26445e-213
0.123936
1.05884e-231
9.07893e-92
1.2161e-74
-1.01466e-137
3.32635e-38
-2.47065e-90
-1.59936e-99
2.28766e-91
8.10777
5.67153e-14
1.76564e-33
-1.31929e-108
6.23848e-28
22.4671
1.31161e-08
9.61281e-42
-6.24216e-49
5.5901e-92
2.26202e-80
-5.52423e-133
1.01502e-102
-1.53567e-130
-4.26577e-111
-5.1138e-42
1.12734e-14
7.06534e-16
0.339012
0.000126937
1.89972e-08
2.50138e-23
0.129313
-2.86466e-122
4.92763e-05
-1.14497e-115
0.00188701
6.80685e-09
3.01309e-33
2.56595e-100
6.75471e-33
1.93322e-21
5.38752e-59
104.612
2.3297e-12
0.392715
-1.61077e-112
1.57609e-09
3.84586e-07
1.14262e-09
1.87133e-07
1.39092e-10
-7.40334e-109
-3.66724e-92
1.35701e-35
-2.79774e-104
1.94848e-27
1.70439e-94
3.61861e-36
1.12897e-162
-1.68322e-85
5.53273e-19
2.64549e-26
-5.96035e-127
-1.47006e-45
1.03373
84.9716
-1.84923e-138
1.82489e-48
3.27962e-68
1.47447e-10
3.77429e-28
5.34538
4.9751e-05
2.66604e-92
1.06646e-36
2.95756e-07
-1.14039e-23
6.97824e-06
5.02908e-52
1.18006e-11
-9.95308e-128
0.207467
3.36265e-08
1.99041e-133
1.65464e-07
0.209291
3.9717e-44
4.65142
1.55835e-78
9.65928e-09
2.61821e-74
-8.27779e-143
3.74174e-70
2.31046e-74
0.0907681
0.00171545
0.0447068
-2.18292e-127
8.1482
5.5384e-34
1.53974e-12
-9.30156e-31
2.39633e-38
3.18424e-46
0.0228531
4.20249e-77
3.29061e-86
6.86631e-18
4.95305e-09
6.6819e-27
2.37971e-17
-6.62161e-55
0.0540036
1.14782e-28
1.51411e-27
2.82416e-09
2.00666e-166
9.992e-08
2.41714e-09
5.72695e-08
5.58943e-72
0.00118965
-5.7932e-134
4.86449e-28
9.63358e-37
8.15351e-05
2.37502e-68
7.1985e-19
1.95768e-08
83.5879
3.16414e-103
7.49723e-31
-1.13665e-45
1.40461e-07
1.83735e-17
9.05666e-91
1.70408e-35
-1.03505e-135
11.9952
2.80839e-216
-1.70418e-135
-3.92774e-178
1.39938e-06
-2.35778e-107
2.05885e-35
10.212
4.57663e-48
8.87668e-56
-1.26879e-102
6.35349e-170
1.31631e-09
-8.06901e-137
-6.16603e-40
6.78848e-12
-2.3109e-44
3.54509e-06
-4.64206e-85
2.42407e-34
1.89512e-07
1.0912e-17
4.75281e-64
94.1171
-6.77616e-220
1.5456e-165
-2.89659e-81
231.231
6.18516e-73
2.81368e-65
1.02182e-07
-2.98302e-100
-1.61141e-83
6.78205e-13
1.19079e-05
1.43237e-29
0.0108983
-2.20335e-100
2.58929e-81
3.47934e-37
2.03342e-42
8.75075e-05
-4.16838e-117
2.9058e-61
-1.78016e-52
2.14402e-17
2.14053e-55
-2.19038e-128
2.2584e-37
-1.13969e-18
9.53949e-194
-1.53752e-187
5.064e-05
3.49935e-29
9.44375e-05
2.78779e-82
7.85668e-227
-1.67304e-17
1.78675e-06
-2.25542e-119
-4.16619e-97
-2.8271e-134
16.5083
1.33034e-193
1.27847e-30
9.63648e-05
-1.82213e-184
1.74003e-168
7.81398e-18
-1.15186e-145
-3.83657e-188
1.01484e-35
5.04995e-13
-4.78429e-130
7.70573e-21
-1.54448e-139
1.34565e-07
9.43666e-229
1.55834e-07
7.11079e-13
6.01211e-19
-9.33585e-184
2.02295e-14
5.6162
-2.56332e-91
1.32824e-46
8.609e-147
2.66751e-13
-9.38345e-140
1.15735e-06
4.74659e-09
-3.07182e-79
7.28877e-176
2.0482e-13
1.10437e-13
3.4066e-41
1.08082e-38
3.81968e-16
-3.69053e-144
6.85405e-15
2.24228e-177
2.0003e-05
1.65312e-08
2.7809e-08
1.9999e-18
-1.21842e-22
13.5293
1.86777e-18
2.26431e-37
2.6107e-14
-2.82493e-94
1.90302e-11
4.72005e-16
-3.32324e-42
4.98923e-71
0.104871
4.50414e-192
0.0518126
107.189
-2.99861e-104
4.19812e-08
102.743
1.82155e-33
5.80983e-35
1.1381e-15
-2.75439e-51
-4.53593e-134
9.38575e-08
0.0144949
0.853311
-1.77617e-93
1.59854e-13
0.000545349
4.84887e-14
-1.68956e-110
3.30548e-163
2.68099e-27
0.0258161
9.44336e-09
4.91413e-16
-1.49827e-219
-2.6966e-141
2.9432e-14
-8.07848e-100
1.754e-39
-8.79146e-96
4.58386e-173
3.23799e-07
2.60243e-77
0.000240478
1.48887e-40
-1.86606e-155
8.90436e-163
6.87727e-15
-9.71732e-95
1.05279e-32
8.97486e-16
0.972375
-6.07138e-48
-1.12778e-127
3.0142e-06
-4.24682e-92
-4.11622e-137
1.90299e-60
1.45e-13
-7.34813e-90
1.02631e-13
3.24223e-41
222.893
1.97848e-14
-3.16259e-121
0.000119689
-5.68499e-177
7.56059e-09
2.14175e-34
8.44112e-06
0.00554991
-2.19299e-43
0.000191494
-8.3328e-154
1.55896e-08
-1.15039e-115
3.1293e-49
4.44548e-05
5.8514e-26
1.65774e-05
0.0183748
-1.7579e-19
1.77333e-07
2.86052e-06
-5.90277e-125
-7.35055e-139
-1.60756e-175
0.000245211
-4.3152e-24
-1.66219e-123
2.33672e-07
2.4122e-05
1.37743e-33
2.00906e-12
1.0592e-48
-5.14648e-33
0.00360696
8.48114e-68
1.56592e-26
3.58239e-31
7.46871e-214
1.57385e-211
-1.05235e-125
-2.06631e-93
2.29177e-39
-3.2723e-157
1.43618e-79
1.35902e-101
-8.40665e-60
4.15657e-15
2.90432e-110
1.7828e-06
2.82587e-230
3.2113e-11
4.6472e-06
-5.75862e-120
6.19645e-05
5.02413e-12
8.33719e-06
1.16342e-54
2.15534e-16
-7.44943e-102
9.61746e-35
6.78177e-44
3.77569e-164
-7.80185e-117
5.30983e-86
-1.56438e-118
2.98193e-182
-1.71217e-52
9.06552e-184
-4.89742e-30
9.03301e-22
0.0700985
5.16988e-159
7.65567e-59
-2.04898e-155
4.77514e-99
3.5629e-21
6.15373e-61
-1.0149e-121
122.347
3.28989e-14
1.98493e-29
5.27782e-57
8.15186e-15
3.98746e-23
6.54374e-57
3.3044e-17
2.86225e-13
1.34906e-101
6.90903e-179
-1.17487e-77
2.42549e-07
-3.68498e-138
-5.0857e-126
1.28596e-13
1.88218e-104
-4.94309e-100
5.04539e-67
-1.26709e-128
0.00137828
-1.56614e-157
-1.74547e-127
9.75678e-19
1.58171e-17
7.17432
4.19149e-13
-4.31392e-55
-2.21752e-121
4.59452e-16
-7.86605e-123
2.06156e-25
3.56486e-41
1.3173e-102
6.78177e-06
1.48027e-192
6.02577e-21
-1.22346e-52
1.25401e-14
-6.75116e-42
-1.38171e-187
6.58319e-103
2.88315e-229
8.91903e-24
-5.66846e-140
1.47294e-18
1.1134e-39
-3.2265e-84
-1.08178e-53
7.53489e-36
1.74613e-180
1.58189e-20
1.24049e-20
-2.13632e-94
1.19337e-18
1.59306e-07
2.00855e-171
5.00288e-36
2.51283e-11
1.34389e-12
4.6152e-71
5.35304e-39
8.43811e-38
8.33909e-42
1.49439e-68
9.23437e-15
1.59817e-68
-2.37857e-120
-1.59105e-121
0.0779989
2.74415e-08
0.000104715
1.81931e-06
-4.15112e-34
5.35661e-20
6.53436e-40
3.41859e-18
-6.48465e-121
3.87603
-6.95143e-99
3.28613e-06
1.01769e-06
-2.95567e-124
-6.5576e-25
1.29332e-08
8.91998e-06
3.71689e-38
3.03001e-25
-2.23813e-122
1.37355e-199
9.78399e-15
5.91766e-179
-1.2205e-160
5.47979e-17
3.97282e-100
-1.93422e-62
-3.17175e-126
1.15007e-79
1.08974e-14
11.4758
-1.57669e-93
-2.84486e-101
2.45322e-08
-7.95391e-37
6.41292e-11
1.11294e-23
2.68108e-25
1.26477e-101
9.62718e-36
3.25842e-15
1.10481e-16
-1.62995e-29
5.16053e-151
1.36079e-05
1.91659e-29
6.29696e-19
1.78141e-78
-6.17101e-126
2.36835e-16
-1.78215e-91
-1.71209e-173
6.27278e-22
2.24393e-08
-9.81964e-158
3.14275e-20
1.01198e-42
4.94931e-109
-6.87174e-71
-1.4543e-107
6.19619e-22
-4.28625e-121
-2.33927e-127
5.45224e-39
2.52632e-22
-1.31374e-38
-2.43009e-29
10.5312
9.04387e-104
2.31711e-58
0.47062
4.07414e-31
-7.09129e-109
1.60293e-30
0.0151099
4.03405e-164
-9.1101e-103
2.22039e-174
8.6977e-25
2.13845e-14
2.94747e-42
2.44571e-185
-2.46255e-74
1.92708e-59
1.89841e-85
2.26531e-09
-9.0928e-96
-2.04641e-184
1.07689e-180
9.91381e-27
9.89139e-39
1.82782e-05
-2.34637e-77
-9.85799e-47
4.22268e-26
2.99904e-14
-1.93446e-137
1.59336e-23
5.39405e-167
3.57751e-160
-3.18592e-186
1.04899e-09
-1.86741e-103
2.87733e-23
2.34671e-20
3.31037e-25
2.33308e-15
2.92282e-26
2.33007e-13
2.76149e-25
-2.0103e-95
3.15113e-26
-3.6218e-46
1.08418e-32
5.56556e-21
-1.2673e-101
41.2132
9.57743e-17
7.57723e-19
-6.94867e-156
1.52886
7.16454e-15
1.51242e-16
-1.65359e-30
6.85253e-06
4.33104e-60
-1.5446e-100
4.13358e-81
2.4131e-83
1.95216e-78
1.10046e-17
2.35891e-21
-4.99165e-109
8.112e-24
7.81834e-87
3.44171e-78
1.30914e-47
-1.76845e-44
4.02909e-64
-7.24429e-54
-3.53948e-43
8.10505e-22
2.82955e-25
1.7521e-44
6.25843e-181
-6.5427e-88
3.13396e-95
8.92212e-11
-3.18536e-138
-3.12049e-106
2.75233e-24
1.92348
-5.61424e-120
2.8479e-05
-9.34631e-123
-4.89033e-92
3.84506e-36
9.31418e-28
3.49688e-32
-2.71285e-135
8.45527e-18
1.01534e-20
2.3355e-11
4.39386e-159
1.64377e-22
4.48063e-39
8.80678e-48
-1.01853e-184
-3.67946e-219
1.00854e-26
1.51282e-38
1.36065e-55
58.7424
2.18602e-22
5.50789e-31
-1.38999e-24
1.24808e-39
4.2643e-11
6.91694e-103
7.90672e-43
6.90038e-69
-3.99053e-83
0.0122935
6.13952e-21
5.24854e-21
8.9506e-34
-1.96429e-131
9.85259e-17
3.26436e-16
0.000542934
6.21594e-79
5.52215e-31
0.000266744
9.03915e-05
-3.25788e-124
0.000114305
1.40964e-46
25.3196
1.45127e-171
9.0788e-24
2.7132e-34
2.31337e-191
5.48026e-14
9.52982e-60
2.96223e-74
7.52377e-08
0.0017277
0.000136409
1.35185e-73
1.42396e-25
-7.20315e-171
-4.34635e-94
5.34873e-06
8.77681e-30
1.06957e-70
2.80568e-17
6.47749e-22
1.44616e-26
6.15323e-37
5.82843e-35
1.70058e-20
0.00389868
-7.75197e-130
1.30264e-36
1.95323e-42
3.24898e-27
2.46807e-07
2.81502e-22
4.98719e-31
1.67788e-59
1.66439e-174
7.3025e-26
1.1306e-29
6.06827e-20
-7.86691e-135
9.46054e-53
6.69392e-22
2.42447e-23
-9.13613e-24
2.47767e-19
3.46171e-66
3.07798e-28
-8.49456e-105
3.14414e-13
7.2634e-49
3.23647e-25
1.76674e-60
2.07542e-72
8.49274e-22
2.19707e-53
7.00542e-61
6.55839e-74
-1.40543e-132
3.63189e-26
1.85243e-48
3.04159e-50
26.0098
0.012166
-2.01145e-103
4.76744e-72
4.98962e-35
5.75148e-38
-8.79255e-187
1.77778e-29
-3.26786e-35
1.55811e-29
-4.63347e-172
1.95196e-13
1.25678e-17
1.23805e-15
2.94123e-29
-7.24119e-157
-3.79659e-89
6.94327e-57
6.19472e-28
7.79579e-09
16.6871
-1.08105e-127
1.99081e-64
1.10411e-65
6.50695e-07
0.000625689
0.000305021
2.04951e-49
1.78976e-20
-1.76826e-170
3.82433e-36
-3.11653e-50
-2.92464e-126
9.55588e-22
7.59805e-37
5.3575e-33
2.86297e-19
-5.7169e-68
2.56217e-38
1.69083e-30
-9.03293e-159
2.99304e-239
1.08249e-40
-1.48268e-62
2.52083e-08
4.31323e-43
-6.73441e-23
2.57935e-13
-9.53682e-40
-8.40462e-128
-2.63881e-56
3.6786e-18
-2.23921e-131
0.344111
0.0788068
-5.51352e-107
5.34408e-167
1.35697e-95
-3.09532e-130
5.91363e-193
-2.95292e-58
9.27777e-61
-1.06586e-31
1.64869e-36
1.78446e-29
-8.67456e-47
4.20102e-05
5.41911e-18
2.82206e-31
2.42849e-36
5.56243e-47
6.72483e-34
-6.64229e-158
-1.87887e-70
9.24021e-62
-3.2243e-31
-1.09698e-25
1.91672e-09
2.1333e-195
-1.7609e-26
2.15805e-35
1.13598e-45
2.53516e-22
1.41057e-40
3.22351e-24
0.0050308
1.75044e-35
4.72405e-18
9.51243e-46
1.6381e-80
2.01907e-38
7.7197e-34
-9.2322e-132
2.23253e-38
0.0345976
-8.8829e-74
0.000275597
-8.92672e-125
2.49796e-33
-3.75253e-85
2.30238e-67
1.2107e-29
-1.3401e-20
2.75282e-21
2.2788e-65
2.98149e-40
4.40646e-46
9.34573e-18
5.95303e-11
-2.49855e-44
3.69067e-08
6.23311e-192
3.54693e-37
7.648
2.03301e-14
1.5251e-65
0.466646
7.68254e-19
3.40022e-62
-1.14721e-145
1.15585e-10
3.31289e-34
2.74192e-47
6.81523e-35
1.40946e-148
2.49832e-19
2.44528e-73
1.07285e-13
2.10227e-35
1.55135e-30
-9.10959e-30
7.67922e-234
-1.70663e-96
2.11076e-41
4.20748e-79
1.16314e-81
1.67354e-54
4.3708e-72
6.05448e-58
-1.84624e-24
1.79136e-27
-3.35781e-181
3.80041e-15
-5.59775e-95
-1.57861e-157
-3.50813e-27
-2.01916e-120
1.49641e-45
8.96202e-47
-3.0376e-133
-5.73651e-130
3.66555e-79
1.74518e-22
1.44429e-59
7.2251e-32
4.33351e-34
-3.30932e-26
9.7915e-25
6.93278e-48
9.00312e-41
1.53921e-37
-1.84782e-207
3.04217e-53
2.51855e-70
3.10823e-48
0.343467
8.19464e-25
-1.83785e-67
6.05637e-40
-1.00643e-60
1.29196e-61
4.91721e-67
1.03913e-60
1.27431e-61
-6.90563e-32
6.37595e-36
-4.73768e-159
1.241e-23
-5.442e-48
6.88967e-22
-1.07447e-147
-8.67615e-28
5.41783e-05
-1.25969e-91
-4.05636e-39
4.01818e-17
-7.95404e-112
4.48063e-26
3.16778e-13
1.08133e-36
5.29849e-37
4.44545e-14
1.74842e-40
-3.77912e-49
1.03919e-39
7.23868e-24
-1.609e-117
3.66963e-67
4.94766e-199
7.02388e-96
-4.80138e-147
1.67472e-37
7.90916e-36
2.13539e-25
-5.27117e-41
16.5349
-2.34503e-20
36.4125
1.28206e-34
5.43132e-10
12.7041
5.40585e-16
25.201
2.20621e-65
7.08733e-40
4.10737e-44
9.2407e-50
6.07895e-44
-8.58462e-95
2.19906e-44
-1.16805e-87
-3.28962e-149
-2.2704e-50
4.84667
2.51078e-39
8.12853e-21
3.82736e-42
2.4439e-80
2.89027e-36
1.4781e-35
-4.04021e-107
2.02314e-41
1.54292e-75
3.49623e-24
-6.78066e-40
1.21155e-40
-2.04467e-41
0.732256
5.74723e-07
6.63212e-20
3.54821e-47
84.9481
7.71552e-41
3.96279e-52
7.18797e-28
-5.92753e-29
-5.74908e-57
2.71304e-16
-1.00133e-129
-2.42505e-36
-3.20651e-27
6.26817e-42
-5.64204e-43
5.49436e-72
2.47197e-37
-1.88663e-33
1.34829e-63
4.70343e-27
1.71942e-45
1.71776e-57
-3.01594e-126
2.10877e-50
2.93104e-37
6.25121e-77
6.00062e-46
2.80757e-57
-2.78872e-96
-6.01046e-33
9.91674e-75
1.01412e-15
1.49133e-45
-3.51115e-62
-1.14537e-133
7.65985e-94
5.36904e-14
4.16339e-37
1.08379e-196
3.48686e-44
9.1994
2.09888e-21
2.11856e-73
4.76849e-46
0.154703
0.899812
51.993
2.7968e-80
7.31962e-82
2.13868e-104
8.48846e-57
2.00595e-28
0.00876375
0.0735563
9.16555e-13
1.85469e-17
1.55462e-69
-6.53798e-143
-1.79951e-140
-4.29983e-27
-3.47861e-72
1.27777e-24
4.08675e-83
4.61315e-05
2.13359e-81
6.47837e-41
3.67762e-12
-6.98515e-41
2.35048e-20
-4.11148e-109
5.57036e-39
-2.00993e-155
1.59051e-17
8.82798e-18
1.80119e-62
-1.50895e-148
1.26404e-65
1.05764e-24
-5.38328e-97
-9.73169e-44
0.154274
2.66474e-167
1.3985e-61
-1.93692e-37
-5.14874e-38
1.79735e-46
-7.07018e-111
-6.82824e-98
-2.15985e-97
1.84055e-190
-4.72608e-141
1.46759e-58
3.8412e-25
-2.06981e-156
7.21535e-71
-1.3818e-107
151.297
-6.01521e-28
-6.7371e-96
5.36322e-197
8.6443e-23
7.26725e-41
1.12312e-20
-4.29851e-45
5.66127e-41
-9.75373e-150
7.0657e-94
9.82132e-16
-8.42925e-212
3.45147e-41
4.50643e-28
-1.44528e-50
-1.40328e-136
5.18255e-36
-8.09451e-184
6.14166e-56
1.60523e-57
-1.65244e-95
9.61363e-08
2.1839e-52
5.59774e-61
8.6704e-59
1.76994e-38
-1.82956e-48
-1.98343e-160
1.6523e-194
3.49827e-74
1.15024e-27
8.33291e-38
8.10776e-61
4.26048e-58
2.373e-16
-2.94346e-53
-6.54121e-172
1.52753e-80
5.23695e-24