/*--------------------------------*- C++ -*----------------------------------*\
  =========                 |
  \\      /  F ield         | OpenFOAM: The Open Source CFD Toolbox
   \\    /   O peration     | Website:  https://openfoam.org
    \\  /    A nd           | Version:  7
     \\/     M anipulation  |
\*---------------------------------------------------------------------------*/
FoamFile
{
    version     2.0;
    format      ascii;
    class       volScalarField;
    location    "18";
    object      p;
}
// * * * * * * * * * * * * * * * * * * * * * * * * * * * * * * * * * * * * * //

dimensions      [1 -1 -2 0 0 0 0];

internalField   nonuniform List<scalar> 
2413
(
1.13529
1.13493
1.13346
1.131
1.13004
1.13015
1.13022
1.13075
1.13312
1.13834
1.14725
1.15903
1.17056
1.18033
1.18903
1.20203
1.21861
1.23306
1.23766
1.23687
1.23291
1.22618
1.21753
1.20708
1.19669
1.1867
1.1777
1.16958
1.16249
1.15624
1.15028
1.14475
1.13999
1.13537
1.13063
1.12656
1.12265
1.11873
1.1149
1.11127
1.10806
1.10531
1.10273
1.09976
1.09619
1.09262
1.08908
1.08539
1.08154
1.07755
1.07344
1.06908
1.06489
1.06124
1.05715
1.05317
1.05035
1.04731
1.04408
1.04152
1.03868
1.03531
1.03151
1.02732
1.02264
1.0173
1.01127
1.00467
0.997481
0.989865
0.982333
0.975693
0.970554
0.966913
0.964165
0.962149
0.960878
0.95966
0.959023
0.958253
0.957603
0.957853
0.95965
0.964117
0.972898
0.988531
1.0097
1.03833
1.06927
1.10154
1.13337
1.15407
1.17307
1.18896
1.20432
1.21232
1.21447
1.21432
1.21451
1.2157
1.21832
1.21943
1.21848
1.2164
1.21326
1.20896
1.20577
1.20373
1.20167
1.1996
1.19755
1.19545
1.19373
1.19259
1.19186
1.19196
1.17809
1.17438
1.16999
1.16552
1.1611
1.15652
1.15227
1.14969
1.1478
1.1456
1.14507
1.14551
1.14414
1.14325
1.14408
1.14345
1.14195
1.14065
1.13774
1.13485
1.13259
1.13078
1.12911
1.12731
1.12734
1.12923
1.13437
1.14382
1.15684
1.16979
1.185
1.20362
1.2246
1.23417
1.23398
1.23084
1.22439
1.21582
1.20599
1.19543
1.18594
1.17703
1.1691
1.16225
1.156
1.15088
1.14628
1.14165
1.1374
1.13331
1.12851
1.12493
1.12217
1.1191
1.11596
1.11303
1.10989
1.10628
1.10307
1.09987
1.09621
1.09262
1.08925
1.08556
1.08133
1.07682
1.07231
1.06771
1.06322
1.05969
1.05626
1.05258
1.04932
1.04579
1.04197
1.03852
1.03489
1.0307
1.02582
1.0204
1.01433
1.00752
1.00002
0.992503
0.985159
0.978206
0.97245
0.968089
0.965047
0.962971
0.961384
0.960542
0.95957
0.958471
0.958562
0.960114
0.964583
0.973441
0.989298
1.01079
1.03879
1.07048
1.10128
1.13613
1.15826
1.17519
1.19036
1.20388
1.21554
1.22004
1.22042
1.21852
1.21815
1.21936
1.22196
1.22316
1.22266
1.22122
1.21843
1.21444
1.21125
1.20887
1.20652
1.20404
1.20151
1.19888
1.19605
1.19371
1.19235
1.1913
1.19117
1.19145
1.17437
1.16979
1.16532
1.16106
1.1574
1.15393
1.15097
1.14986
1.14909
1.14786
1.14811
1.1497
1.14856
1.1478
1.148
1.14645
1.14473
1.14284
1.13972
1.13572
1.13258
1.12923
1.12505
1.12117
1.11937
1.11983
1.12233
1.12863
1.14
1.15573
1.17615
1.20185
1.22459
1.22761
1.22587
1.22124
1.21413
1.20556
1.1962
1.18646
1.17807
1.17031
1.16312
1.15705
1.15148
1.14684
1.14304
1.13913
1.1351
1.13153
1.12817
1.12431
1.12033
1.11695
1.11373
1.11064
1.10762
1.10443
1.10145
1.09837
1.09475
1.09086
1.08716
1.08329
1.07896
1.0745
1.07021
1.06588
1.06146
1.05768
1.05406
1.0501
1.04637
1.04241
1.03812
1.03389
1.02936
1.02413
1.01802
1.01133
1.00408
0.996371
0.988461
0.981425
0.97546
0.970522
0.967275
0.965099
0.963525
0.962229
0.961275
0.960837
0.96223
0.966773
0.975667
0.991748
1.01494
1.04316
1.07691
1.10723
1.14009
1.16869
1.1829
1.19589
1.20682
1.21791
1.22486
1.22676
1.22558
1.2221
1.22165
1.22256
1.22471
1.22582
1.22537
1.22432
1.22202
1.21879
1.21656
1.21459
1.21212
1.20942
1.20643
1.20334
1.2003
1.19696
1.19397
1.1928
1.19188
1.19126
1.19142
1.19119
1.16453
1.16142
1.1589
1.15665
1.155
1.15308
1.15187
1.15169
1.15082
1.14973
1.15022
1.15211
1.15104
1.14989
1.14881
1.1465
1.14389
1.14059
1.1366
1.13246
1.12789
1.12255
1.11694
1.11276
1.11072
1.1101
1.11112
1.11541
1.12521
1.14145
1.16459
1.19456
1.21609
1.21714
1.21549
1.21133
1.20524
1.19766
1.18917
1.18032
1.17282
1.16604
1.15957
1.15395
1.14883
1.14441
1.14089
1.13739
1.13355
1.12974
1.12598
1.12171
1.11825
1.11558
1.1126
1.10938
1.10637
1.10308
1.0996
1.09626
1.0926
1.08858
1.08466
1.08061
1.07614
1.07158
1.06726
1.06297
1.05858
1.05466
1.05082
1.04661
1.04226
1.03753
1.03245
1.02716
1.02148
1.01513
1.00799
1.00063
0.993288
0.986131
0.979492
0.974423
0.970795
0.968327
0.966352
0.964762
0.964157
0.965482
0.970376
0.979927
0.996427
1.02149
1.05035
1.08595
1.1179
1.14713
1.1808
1.19663
1.20621
1.21541
1.22397
1.23134
1.23379
1.23384
1.23026
1.22601
1.22553
1.22584
1.2275
1.22822
1.22753
1.22645
1.22419
1.22146
1.22027
1.21914
1.21739
1.21514
1.2125
1.20946
1.20565
1.2019
1.19897
1.19605
1.19448
1.19352
1.1925
1.19197
1.1915
1.19067
1.15087
1.14927
1.14815
1.14739
1.14728
1.14733
1.14806
1.1485
1.14799
1.14817
1.14883
1.14946
1.1489
1.14721
1.14495
1.14217
1.13887
1.13488
1.1301
1.12515
1.11976
1.11352
1.10737
1.10311
1.10144
1.10037
1.10087
1.1049
1.11422
1.13052
1.15395
1.18318
1.20406
1.20536
1.20466
1.20252
1.19809
1.19166
1.18398
1.176
1.16936
1.16332
1.15739
1.15196
1.14709
1.1427
1.13879
1.1351
1.13123
1.12728
1.12356
1.11987
1.11604
1.11263
1.10925
1.10569
1.10244
1.0991
1.09555
1.09213
1.08843
1.08431
1.08019
1.07602
1.07152
1.06692
1.06257
1.05822
1.05374
1.04963
1.04547
1.04087
1.03583
1.03033
1.02444
1.01818
1.01162
1.00477
0.99759
0.990878
0.984882
0.979569
0.975319
0.971568
0.969581
0.968824
0.970342
0.97565
0.986436
1.00385
1.03068
1.06116
1.0971
1.13184
1.15928
1.19111
1.21337
1.22025
1.22752
1.23388
1.23968
1.24338
1.24353
1.24182
1.23611
1.23168
1.23045
1.23017
1.23098
1.23057
1.22962
1.22841
1.22583
1.2235
1.22287
1.22194
1.2207
1.21929
1.21732
1.2148
1.21185
1.20874
1.20568
1.20288
1.19999
1.19779
1.19655
1.19479
1.19362
1.19274
1.19162
1.19079
1.13361
1.13461
1.13581
1.13698
1.13817
1.13964
1.1412
1.14246
1.14379
1.14452
1.14384
1.14265
1.14121
1.13867
1.13565
1.13261
1.12913
1.12513
1.12087
1.1162
1.11046
1.10429
1.09883
1.09582
1.0945
1.09397
1.0956
1.10076
1.1105
1.1263
1.147
1.17105
1.1901
1.19519
1.19452
1.19248
1.19001
1.18567
1.17942
1.17265
1.16688
1.16128
1.1556
1.15018
1.14511
1.14054
1.13649
1.13261
1.12861
1.12452
1.12055
1.11655
1.11246
1.10884
1.10526
1.10143
1.09786
1.09432
1.09054
1.08682
1.08289
1.07855
1.07418
1.06982
1.06519
1.06048
1.05598
1.05143
1.04671
1.04227
1.03766
1.03257
1.02679
1.02067
1.01434
1.00789
1.00148
0.995255
0.98926
0.984587
0.979907
0.976081
0.973989
0.975691
0.981665
0.994621
1.01378
1.04253
1.07567
1.11111
1.14827
1.17535
1.20166
1.22975
1.23813
1.24192
1.24678
1.25025
1.25397
1.25503
1.25376
1.24974
1.24348
1.23924
1.23741
1.2362
1.23537
1.23389
1.23225
1.23025
1.22745
1.2258
1.22453
1.2237
1.22273
1.22125
1.21998
1.21818
1.21522
1.21337
1.21167
1.20925
1.20703
1.20477
1.20217
1.20032
1.1984
1.19625
1.19529
1.19392
1.19299
1.19242
1.11475
1.11809
1.12117
1.12381
1.12628
1.12886
1.13096
1.13255
1.1339
1.13392
1.13316
1.13305
1.13223
1.13015
1.12744
1.1243
1.12036
1.11605
1.11165
1.10644
1.10088
1.09596
1.09274
1.09138
1.09107
1.09234
1.09586
1.10247
1.11306
1.12645
1.14222
1.159
1.17506
1.18306
1.18302
1.1812
1.18067
1.17871
1.17417
1.16901
1.16435
1.15913
1.15356
1.14808
1.14276
1.13784
1.13334
1.12902
1.12474
1.12051
1.11638
1.11227
1.1081
1.10416
1.10021
1.09605
1.09211
1.08829
1.08423
1.08008
1.07571
1.07101
1.06631
1.06172
1.05692
1.05203
1.04734
1.04243
1.03734
1.03254
1.02748
1.0219
1.01598
1.00985
1.00398
0.998595
0.994111
0.989421
0.984512
0.981212
0.983424
0.990742
1.00555
1.02644
1.0566
1.09269
1.12791
1.16693
1.19426
1.21645
1.24341
1.25649
1.25803
1.26131
1.2629
1.26482
1.26706
1.26636
1.26335
1.25811
1.25229
1.24826
1.24563
1.24356
1.24162
1.23906
1.23637
1.2334
1.22989
1.22806
1.22694
1.22505
1.22345
1.22269
1.22133
1.21879
1.2175
1.21615
1.21357
1.21259
1.21146
1.20948
1.20758
1.20541
1.20328
1.20135
1.19905
1.19775
1.19682
1.19537
1.19528
1.19465
1.09874
1.10333
1.10813
1.11285
1.11722
1.12093
1.12371
1.12589
1.12697
1.1268
1.12665
1.12627
1.12458
1.12215
1.11954
1.11649
1.11269
1.10848
1.10351
1.09834
1.09421
1.09128
1.08998
1.0898
1.09076
1.09381
1.09939
1.10753
1.11708
1.1268
1.137
1.14681
1.15803
1.16835
1.17008
1.16992
1.17106
1.17058
1.16756
1.1646
1.16133
1.1565
1.15089
1.14526
1.13965
1.13436
1.12945
1.12479
1.1202
1.1157
1.11132
1.10705
1.10275
1.09851
1.09416
1.08959
1.0852
1.08091
1.07638
1.07164
1.06662
1.06136
1.05617
1.05126
1.04618
1.04109
1.03613
1.03092
1.02579
1.02094
1.01614
1.01104
1.00604
1.00182
0.997514
0.992956
0.989603
0.992122
1.0003
1.01673
1.04032
1.0723
1.11126
1.14713
1.18675
1.21457
1.23475
1.25672
1.27378
1.27599
1.27645
1.2769
1.27625
1.27749
1.27829
1.27605
1.27187
1.26681
1.26156
1.25746
1.25449
1.25196
1.24914
1.24567
1.24199
1.23827
1.23459
1.23139
1.22907
1.22742
1.22551
1.22298
1.22133
1.22026
1.21783
1.21543
1.21513
1.21377
1.21143
1.21126
1.21048
1.2081
1.20656
1.20551
1.20375
1.20145
1.20004
1.19927
1.19769
1.19672
1.19682
1.19591
1.10199
1.10601
1.10944
1.1128
1.11581
1.11781
1.11939
1.12108
1.12166
1.12121
1.12112
1.12022
1.11799
1.11516
1.11252
1.10928
1.10524
1.10075
1.09593
1.0923
1.08988
1.08898
1.08907
1.09
1.09251
1.09789
1.10523
1.11387
1.12106
1.12609
1.13151
1.13615
1.14186
1.151
1.15578
1.15775
1.16097
1.16156
1.16019
1.15927
1.15716
1.15268
1.14699
1.14116
1.13535
1.12987
1.12468
1.11969
1.11475
1.10991
1.10524
1.10078
1.09634
1.09174
1.08688
1.0818
1.07686
1.072
1.06687
1.06144
1.05564
1.04968
1.04402
1.03879
1.03358
1.0286
1.02373
1.0191
1.01499
1.0107
1.00814
1.00379
0.999352
0.997185
1.00114
1.01143
1.03049
1.05721
1.09029
1.13087
1.16747
1.20704
1.23538
1.25371
1.27149
1.28859
1.29356
1.29286
1.29114
1.28935
1.28832
1.28932
1.28779
1.28403
1.27977
1.27501
1.26993
1.26615
1.2632
1.26022
1.25678
1.25294
1.24899
1.24462
1.24033
1.23685
1.23345
1.23019
1.22794
1.22579
1.22296
1.21975
1.21826
1.21665
1.21377
1.21255
1.21249
1.21069
1.20883
1.20913
1.20841
1.20611
1.20571
1.20528
1.2032
1.20111
1.20053
1.19963
1.19772
1.19735
1.19721
1.19634
1.10568
1.10901
1.1117
1.11383
1.11527
1.11578
1.11623
1.11719
1.117
1.11598
1.11517
1.11359
1.11078
1.10782
1.10541
1.10193
1.09797
1.09376
1.08966
1.08785
1.08748
1.08766
1.08902
1.09152
1.09612
1.10335
1.11151
1.11966
1.12274
1.12435
1.12597
1.12731
1.12873
1.13386
1.14055
1.14408
1.14861
1.15179
1.15186
1.1519
1.151
1.14747
1.1421
1.13635
1.13055
1.12481
1.11916
1.11374
1.10839
1.10315
1.09808
1.09323
1.08843
1.08332
1.07779
1.072
1.06634
1.06086
1.05513
1.04912
1.0429
1.0368
1.03114
1.0263
1.02168
1.01756
1.0137
1.0117
1.00738
1.0038
1.00392
1.01015
1.02377
1.04558
1.07607
1.11079
1.15311
1.18985
1.22793
1.25693
1.27262
1.2884
1.30283
1.30917
1.3095
1.30658
1.30251
1.30015
1.29991
1.29896
1.29561
1.29152
1.28727
1.28229
1.27747
1.27411
1.2709
1.26753
1.26402
1.26026
1.25606
1.25161
1.24717
1.24267
1.239
1.23574
1.23205
1.22847
1.22566
1.22283
1.21903
1.21639
1.21504
1.2127
1.20943
1.20879
1.20847
1.20631
1.20513
1.20575
1.20468
1.20305
1.20358
1.20328
1.20097
1.20022
1.20025
1.19893
1.19718
1.19733
1.19697
1.19629
1.11126
1.1132
1.11458
1.1153
1.1151
1.11493
1.11494
1.11373
1.1122
1.11075
1.1088
1.10682
1.10401
1.10173
1.09897
1.0953
1.09144
1.08713
1.08514
1.08505
1.08541
1.08691
1.08987
1.09417
1.10123
1.10911
1.11729
1.12193
1.12238
1.12213
1.12075
1.11887
1.11792
1.11928
1.12459
1.12952
1.13454
1.14023
1.14223
1.1428
1.14286
1.1408
1.13621
1.13062
1.12467
1.1185
1.11232
1.10652
1.10088
1.09527
1.08964
1.08414
1.07874
1.07299
1.06679
1.06031
1.05403
1.04819
1.04241
1.0364
1.03086
1.02586
1.02099
1.01783
1.01402
1.01017
1.00773
1.0093
1.01794
1.03387
1.05859
1.09455
1.13236
1.17703
1.21362
1.2492
1.28061
1.29202
1.30497
1.31682
1.3236
1.32451
1.32334
1.31724
1.31268
1.3112
1.31005
1.3069
1.30296
1.29886
1.29427
1.2889
1.28463
1.28118
1.27758
1.2743
1.27083
1.26694
1.26246
1.25792
1.25355
1.24925
1.2449
1.24076
1.2368
1.23278
1.22836
1.22442
1.22132
1.21799
1.21396
1.21147
1.20966
1.20659
1.20307
1.20251
1.20184
1.19969
1.19893
1.19975
1.19887
1.19749
1.19821
1.19798
1.19617
1.19615
1.19689
1.1961
1.19618
1.19687
1.19618
1.19565
1.11707
1.11714
1.11665
1.11607
1.1144
1.11272
1.1111
1.10877
1.10716
1.10503
1.10288
1.10062
1.09832
1.09585
1.09257
1.08906
1.08476
1.08229
1.08218
1.0826
1.08397
1.08681
1.09116
1.09794
1.10636
1.11437
1.12072
1.12185
1.1213
1.11927
1.11514
1.1099
1.10748
1.10759
1.11097
1.11575
1.12052
1.12675
1.13097
1.13235
1.13305
1.13197
1.12832
1.12307
1.11709
1.11057
1.10388
1.0977
1.09175
1.08569
1.07932
1.07301
1.06688
1.06064
1.05422
1.04771
1.0417
1.03634
1.03139
1.02676
1.02362
1.01854
1.01478
1.01372
1.01757
1.02897
1.04787
1.07478
1.11371
1.15292
1.19951
1.23668
1.26942
1.3034
1.31279
1.32196
1.33122
1.33703
1.33753
1.33725
1.33308
1.32642
1.32354
1.32192
1.31854
1.31474
1.3108
1.30636
1.30093
1.2956
1.29109
1.28731
1.28406
1.28062
1.27666
1.27187
1.26717
1.2625
1.25759
1.25303
1.24884
1.24452
1.23994
1.23556
1.23125
1.22651
1.22179
1.2179
1.21448
1.2109
1.20667
1.20379
1.20149
1.19796
1.19471
1.19423
1.19332
1.19136
1.19097
1.19187
1.19121
1.18979
1.19043
1.19061
1.18931
1.1897
1.19085
1.1907
1.19182
1.19291
1.19346
1.19467
1.12226
1.12052
1.11821
1.11566
1.11278
1.11048
1.10765
1.10524
1.103
1.10033
1.09785
1.09544
1.09317
1.09009
1.08678
1.08293
1.07952
1.07908
1.07934
1.08046
1.08292
1.08697
1.09328
1.10215
1.11098
1.11801
1.12051
1.1203
1.11865
1.11485
1.10888
1.10161
1.09771
1.09726
1.09947
1.10358
1.10718
1.11213
1.11736
1.11997
1.12118
1.12075
1.11821
1.11369
1.10798
1.10138
1.09432
1.08763
1.08118
1.07471
1.06786
1.06117
1.05502
1.04897
1.04336
1.03792
1.03351
1.02908
1.02453
1.02146
1.02174
1.02671
1.03918
1.06043
1.0897
1.13175
1.17298
1.22073
1.25851
1.28831
1.32347
1.33392
1.33927
1.34646
1.35046
1.35074
1.35014
1.3471
1.34055
1.3355
1.33308
1.32964
1.32626
1.32274
1.31856
1.31328
1.30733
1.30187
1.29664
1.29233
1.28897
1.28485
1.27999
1.27513
1.26997
1.26469
1.25998
1.25532
1.25054
1.24636
1.24232
1.23749
1.23253
1.22824
1.22365
1.21867
1.21436
1.21061
1.20684
1.20256
1.19782
1.19494
1.19238
1.18868
1.18655
1.18602
1.18463
1.18257
1.18212
1.18281
1.18235
1.18098
1.18162
1.1822
1.18134
1.18202
1.18362
1.1841
1.18533
1.18717
1.18834
1.18981
1.12657
1.12307
1.11923
1.11522
1.11177
1.1085
1.10518
1.10247
1.09954
1.09678
1.09396
1.09157
1.08888
1.08545
1.08175
1.07805
1.0766
1.07674
1.0776
1.07955
1.08292
1.08834
1.09697
1.10661
1.11481
1.11898
1.11914
1.118
1.11473
1.10948
1.10253
1.09461
1.08871
1.08739
1.08871
1.09194
1.09417
1.09743
1.10211
1.10552
1.10712
1.10715
1.10569
1.10235
1.09757
1.09153
1.0847
1.0778
1.071
1.06426
1.05745
1.05102
1.04554
1.0404
1.03505
1.0313
1.02896
1.03117
1.03816
1.05223
1.07617
1.10734
1.15099
1.19335
1.23979
1.27871
1.30629
1.34052
1.35411
1.35599
1.36156
1.36393
1.36397
1.3633
1.36078
1.35502
1.34852
1.34467
1.34047
1.33683
1.33364
1.32963
1.32419
1.31782
1.3121
1.30652
1.30097
1.29643
1.29208
1.28737
1.28225
1.27667
1.27144
1.26668
1.26155
1.25684
1.25298
1.24871
1.24367
1.23893
1.2342
1.22869
1.22413
1.22043
1.21608
1.21154
1.20749
1.20338
1.19867
1.19355
1.18984
1.18732
1.18403
1.18097
1.17939
1.17768
1.17557
1.17348
1.1728
1.17354
1.17345
1.17228
1.17302
1.17378
1.17298
1.17391
1.17571
1.17657
1.17831
1.18055
1.18254
1.18472
1.12985
1.12524
1.12037
1.11571
1.11173
1.10779
1.10426
1.1009
1.09768
1.09456
1.09153
1.08885
1.08558
1.08191
1.07791
1.07559
1.07526
1.07563
1.07709
1.07989
1.08452
1.09228
1.10215
1.11129
1.11737
1.11832
1.11765
1.11518
1.1103
1.10382
1.0965
1.08865
1.08171
1.07835
1.07894
1.08056
1.08162
1.08367
1.08695
1.08943
1.09181
1.0929
1.09267
1.09104
1.088
1.08329
1.07752
1.0712
1.06448
1.05782
1.05048
1.04513
1.04115
1.04018
1.04367
1.05235
1.06687
1.09193
1.12402
1.16823
1.21215
1.25738
1.29836
1.32368
1.35469
1.37273
1.37375
1.37743
1.37816
1.3773
1.37622
1.37396
1.36905
1.36248
1.3571
1.35248
1.34749
1.34338
1.33949
1.33381
1.32715
1.32101
1.31512
1.3088
1.30377
1.29955
1.2952
1.2903
1.28464
1.27898
1.27356
1.26787
1.26317
1.25931
1.25515
1.25093
1.24658
1.24119
1.23532
1.23071
1.22607
1.22108
1.21757
1.21408
1.20939
1.20433
1.19998
1.1955
1.1903
1.18659
1.18409
1.18065
1.17662
1.17389
1.17122
1.16854
1.16705
1.16547
1.16413
1.16457
1.16486
1.16375
1.16397
1.1651
1.16455
1.16534
1.16785
1.16916
1.17119
1.17404
1.17697
1.17964
1.13315
1.12774
1.12224
1.11713
1.1125
1.10821
1.10436
1.10064
1.0971
1.09361
1.0906
1.08744
1.08355
1.07921
1.07595
1.07494
1.07514
1.07609
1.07837
1.0825
1.0892
1.09857
1.10839
1.11595
1.11773
1.11757
1.11594
1.11183
1.10564
1.09853
1.09115
1.08405
1.07752
1.07246
1.07015
1.07036
1.07077
1.07263
1.07509
1.07641
1.07872
1.08201
1.08376
1.08378
1.08286
1.0799
1.07385
1.0673
1.0617
1.05847
1.05845
1.06077
1.06856
1.08322
1.10956
1.14208
1.18534
1.23023
1.27311
1.31542
1.33978
1.3673
1.38923
1.39084
1.39253
1.39308
1.3913
1.3902
1.38782
1.38332
1.37672
1.3701
1.36411
1.35763
1.35207
1.34738
1.34211
1.33578
1.32945
1.32362
1.31725
1.31153
1.30705
1.30294
1.29865
1.29346
1.28772
1.28208
1.27626
1.27084
1.26621
1.26205
1.2582
1.25376
1.24818
1.24294
1.23831
1.23283
1.22786
1.22453
1.22065
1.2162
1.21176
1.2068
1.20114
1.19644
1.19283
1.18869
1.18466
1.18154
1.1779
1.17262
1.16875
1.16664
1.16392
1.16148
1.15991
1.15799
1.15559
1.15503
1.15581
1.15538
1.15479
1.1564
1.15666
1.15713
1.16002
1.16215
1.16438
1.16753
1.17112
1.17465
1.13708
1.13118
1.12532
1.11974
1.11454
1.10978
1.1055
1.10154
1.09785
1.09441
1.09115
1.08747
1.08303
1.07806
1.07581
1.07569
1.07641
1.07857
1.08216
1.08771
1.09578
1.10576
1.11524
1.11806
1.11824
1.11747
1.11429
1.10875
1.10197
1.09479
1.08762
1.08101
1.07519
1.07017
1.06575
1.06417
1.06417
1.0656
1.06752
1.06903
1.07128
1.07414
1.07584
1.07716
1.07771
1.0788
1.08012
1.08134
1.08406
1.09163
1.10469
1.12829
1.15859
1.19903
1.24467
1.28551
1.33002
1.35472
1.37911
1.40329
1.40691
1.40747
1.40796
1.40598
1.40457
1.40257
1.39876
1.39254
1.38513
1.37726
1.36906
1.3614
1.35567
1.35058
1.34481
1.33829
1.33181
1.32541
1.31938
1.31454
1.31061
1.30698
1.30246
1.29688
1.29109
1.28545
1.27979
1.27446
1.2702
1.2666
1.26228
1.25675
1.25101
1.2455
1.23964
1.23493
1.2309
1.22709
1.22382
1.21975
1.21422
1.20884
1.20417
1.19888
1.19412
1.19119
1.18791
1.18303
1.17817
1.17447
1.1701
1.16507
1.1631
1.16145
1.15846
1.15502
1.15255
1.15009
1.14743
1.14621
1.14697
1.14732
1.14643
1.14757
1.14917
1.1495
1.15186
1.15497
1.15784
1.16133
1.16564
1.17006
1.14165
1.13544
1.1293
1.12337
1.11781
1.1127
1.108
1.10371
1.09987
1.09644
1.09296
1.08875
1.08379
1.07929
1.07856
1.07927
1.08109
1.08367
1.08781
1.09433
1.10329
1.1136
1.11876
1.11966
1.11956
1.11791
1.11369
1.10743
1.10041
1.09338
1.08679
1.08041
1.0744
1.06928
1.0651
1.0625
1.06271
1.06296
1.06476
1.06925
1.07473
1.08108
1.0875
1.09321
1.09844
1.10383
1.11304
1.12574
1.14689
1.17544
1.21185
1.25659
1.29516
1.33965
1.36591
1.38928
1.41552
1.42217
1.42244
1.42278
1.42082
1.41908
1.41729
1.41403
1.40854
1.40084
1.39197
1.38306
1.37408
1.36622
1.36001
1.35431
1.34803
1.34121
1.33462
1.32825
1.32216
1.31756
1.31439
1.31078
1.3058
1.30007
1.29451
1.28892
1.2832
1.27869
1.27525
1.27138
1.26629
1.26041
1.25464
1.24893
1.2432
1.23799
1.23423
1.23081
1.22622
1.22096
1.21627
1.21136
1.20562
1.20146
1.19813
1.19423
1.1901
1.18592
1.18096
1.175
1.17087
1.16798
1.16451
1.16131
1.15901
1.15622
1.15183
1.1475
1.14543
1.14336
1.14074
1.13874
1.13878
1.13952
1.13892
1.13897
1.14137
1.14241
1.14401
1.14714
1.15077
1.15458
1.15931
1.16491
1.14711
1.14058
1.13421
1.12816
1.1224
1.11697
1.11177
1.10701
1.10275
1.09884
1.09473
1.09009
1.0847
1.08263
1.08279
1.08464
1.08689
1.08986
1.09499
1.1028
1.11331
1.12066
1.12243
1.12288
1.12233
1.11949
1.11426
1.10741
1.1
1.09299
1.08722
1.08288
1.07982
1.07716
1.07789
1.07907
1.08041
1.08283
1.0861
1.08975
1.09433
1.10067
1.10886
1.11987
1.13329
1.15331
1.18165
1.21601
1.26175
1.30144
1.3469
1.37549
1.39828
)
;

boundaryField
{
    inlet
    {
        type            fixedValue;
        value           nonuniform 0();
    }
    outlet
    {
        type            zeroGradient;
    }
    bottom
    {
        type            symmetryPlane;
    }
    top
    {
        type            symmetryPlane;
    }
    obstacle
    {
        type            zeroGradient;
    }
    front
    {
        type            empty;
    }
    back
    {
        type            empty;
    }
    procBoundary39to31
    {
        type            processor;
        value           nonuniform List<scalar> 
133
(
1.12778
1.12779
1.12615
1.12488
1.12569
1.12716
1.12868
1.13208
1.13822
1.14713
1.15952
1.17147
1.17902
1.18571
1.19135
1.19845
1.21094
1.22424
1.23454
1.23756
1.23739
1.23477
1.22887
1.21973
1.20939
1.19897
1.18898
1.17963
1.17136
1.16362
1.15613
1.14967
1.14417
1.13875
1.13339
1.1284
1.12368
1.11935
1.11552
1.11181
1.10788
1.10441
1.10151
1.09872
1.09592
1.0931
1.08977
1.08611
1.08243
1.07859
1.07456
1.07045
1.06668
1.06305
1.05849
1.05426
1.05166
1.04883
1.046
1.04403
1.04159
1.03866
1.03565
1.03249
1.02904
1.02511
1.02064
1.01554
1.00967
1.00291
0.995321
0.987589
0.980363
0.974189
0.969477
0.965903
0.96386
0.962579
0.961181
0.960151
0.959225
0.958844
0.958807
0.958769
0.959242
0.961002
0.966068
0.976111
0.992354
1.01368
1.04202
1.07223
1.10439
1.13206
1.15359
1.17198
1.18955
1.20309
1.20712
1.20901
1.20992
1.21084
1.21295
1.21402
1.21293
1.21071
1.20789
1.20416
1.20086
1.19908
1.19758
1.19598
1.19455
1.19383
1.19326
1.19304
1.17986
1.17545
1.17073
1.16595
1.16116
1.15642
1.15171
1.14822
1.14504
1.14175
1.14025
1.14002
1.13845
1.1375
1.13834
1.1373
1.1373
)
;
    }
    procBoundary39to38
    {
        type            processor;
        value           nonuniform List<scalar> 
17
(
1.18118
1.179
1.16857
1.15317
1.13279
1.11083
1.09418
1.09724
1.10147
1.10831
1.11587
1.12281
1.12907
1.13406
1.13847
1.14298
1.14789
)
;
    }
    procBoundary39to46
    {
        type            processor;
        value           uniform 1.15364;
    }
    procBoundary39to47
    {
        type            processor;
        value           nonuniform List<scalar> 
133
(
1.42599
1.43523
1.43626
1.43782
1.43619
1.4347
1.43279
1.42957
1.4243
1.41643
1.4073
1.39792
1.38834
1.37914
1.37155
1.36521
1.359
1.35209
1.34479
1.33795
1.33129
1.32541
1.32165
1.31861
1.3145
1.30906
1.30329
1.29777
1.29183
1.28677
1.28347
1.28024
1.27569
1.27002
1.26436
1.25874
1.25263
1.2471
1.2432
1.23952
1.23496
1.22961
1.22394
1.21816
1.21286
1.20828
1.20396
1.20056
1.19746
1.19322
1.18759
1.18272
1.17852
1.17344
1.16919
1.16713
1.16458
1.16038
1.15559
1.15238
1.14924
1.14478
1.14145
1.14013
1.13825
1.13562
1.13275
1.13117
1.13146
1.13147
1.1308
1.13211
1.1347
1.13652
1.13926
1.1434
1.1475
1.15224
1.15866
1.1533
1.14627
1.13957
1.13342
1.12774
1.12233
1.11715
1.1122
1.10782
1.10344
1.0985
1.09312
1.08833
1.08704
1.08729
1.08958
1.09222
1.09591
1.10198
1.11152
1.12227
1.12565
1.12588
1.12611
1.12502
1.12109
1.11536
1.10959
1.10452
1.10091
1.10009
1.1012
1.10209
1.10361
1.1052
1.10562
1.10608
1.10727
1.10972
1.11335
1.11949
1.12911
1.14474
1.16942
1.2001
1.24536
1.29017
1.33911
1.37803
1.4061
1.43739
1.44782
1.42599
1.44868
)
;
    }
}


// ************************************************************************* //
