/*--------------------------------*- C++ -*----------------------------------*\
  =========                 |
  \\      /  F ield         | OpenFOAM: The Open Source CFD Toolbox
   \\    /   O peration     | Website:  https://openfoam.org
    \\  /    A nd           | Version:  7
     \\/     M anipulation  |
\*---------------------------------------------------------------------------*/
FoamFile
{
    version     2.0;
    format      ascii;
    class       volScalarField;
    location    "4";
    object      T;
}
// * * * * * * * * * * * * * * * * * * * * * * * * * * * * * * * * * * * * * //

dimensions      [0 0 0 1 0 0 0];

internalField   nonuniform List<scalar> 
2413
(
1.09357
1.09182
1.09009
1.08836
1.0866
1.08479
1.08294
1.08107
1.07919
1.0773
1.07541
1.07356
1.07177
1.06999
1.06823
1.06648
1.06472
1.06291
1.06102
1.0591
1.05724
1.05545
1.05369
1.05196
1.05025
1.04854
1.04685
1.04523
1.04368
1.04215
1.04046
1.03853
1.03646
1.03435
1.03223
1.03013
1.02805
1.02584
1.02327
1.02049
1.01786
1.01583
1.01417
1.01284
1.01175
1.01075
1.00962
1.00835
1.00688
1.0052
1.00345
1.00182
1.00037
0.999097
0.997952
0.99681
0.995527
0.99411
0.992618
0.991024
0.989311
0.987586
0.986101
0.984907
0.983797
0.982643
0.981352
0.979889
0.978307
0.976695
0.975136
0.97369
0.972544
0.97162
0.970697
0.96968
0.968447
0.966888
0.965214
0.96374
0.962437
0.961128
0.959776
0.958633
0.957752
0.956826
0.955654
0.954346
0.952997
0.951434
0.949562
0.947862
0.946542
0.945559
0.944988
0.944478
0.943725
0.94292
0.942996
0.94408
0.947725
0.954956
0.967348
0.986529
1.00723
1.02751
1.04866
1.0646
1.07412
1.08111
1.08373
1.08548
1.08626
1.08616
1.0857
1.08373
1.12064
1.11894
1.11725
1.11558
1.11391
1.11223
1.11052
1.10877
1.10698
1.10514
1.10326
1.10139
1.09953
1.09769
1.09587
1.0941
1.09238
1.09066
1.08895
1.08724
1.0855
1.08372
1.08189
1.08002
1.07814
1.07628
1.07444
1.07266
1.07092
1.06917
1.06739
1.0656
1.06381
1.06202
1.06022
1.0584
1.05659
1.05482
1.05308
1.05137
1.04969
1.04802
1.04632
1.04457
1.0428
1.04108
1.0395
1.03807
1.03659
1.03483
1.03257
1.02978
1.02686
1.02403
1.02105
1.0187
1.01751
1.01644
1.01518
1.01374
1.0122
1.01059
1.009
1.00769
1.00662
1.00551
1.00426
1.0029
1.00139
0.999643
0.997817
0.996078
0.994456
0.992916
0.991534
0.990318
0.989144
0.98786
0.986348
0.984683
0.983208
0.982061
0.981032
0.979973
0.978825
0.977631
0.976372
0.974916
0.973251
0.971555
0.970004
0.968668
0.967608
0.966666
0.965671
0.964542
0.963408
0.962281
0.960997
0.95949
0.957918
0.956485
0.955136
0.953904
0.952935
0.952042
0.950983
0.94973
0.948436
0.946989
0.945239
0.943681
0.942474
0.941655
0.941154
0.940591
0.939652
0.939248
0.93965
0.941546
0.946568
0.955893
0.971008
0.992389
1.01225
1.03145
1.04955
1.06036
1.06785
1.07379
1.07719
1.07686
1.11931
1.11765
1.11596
1.11427
1.11257
1.11085
1.1091
1.10734
1.10555
1.10373
1.10189
1.10004
1.09822
1.09641
1.09461
1.09286
1.09117
1.08948
1.08779
1.08609
1.08437
1.0826
1.08081
1.07898
1.07716
1.07535
1.07355
1.0718
1.07011
1.06842
1.06669
1.06492
1.06309
1.06122
1.05935
1.05752
1.05576
1.05411
1.0525
1.05089
1.04929
1.04769
1.0461
1.0445
1.04283
1.04103
1.03913
1.03716
1.0351
1.033
1.03101
1.02896
1.02654
1.02383
1.02096
1.01848
1.01671
1.01532
1.01407
1.01295
1.01197
1.01094
1.00973
1.00831
1.00663
1.00485
1.00317
1.00179
1.00065
0.999548
0.998307
0.996929
0.99554
0.994035
0.992316
0.990511
0.988841
0.987421
0.986218
0.985078
0.983838
0.98243
0.980939
0.979465
0.977998
0.976661
0.975605
0.974645
0.973644
0.972506
0.971225
0.969727
0.968073
0.966513
0.965129
0.963793
0.962514
0.961469
0.960587
0.959683
0.9586
0.957454
0.956385
0.955188
0.953727
0.952154
0.950691
0.949327
0.948244
0.947346
0.946355
0.945225
0.944071
0.942861
0.941326
0.939787
0.938532
0.937867
0.937464
0.936857
0.936048
0.936107
0.937082
0.940201
0.947448
0.959354
0.978017
1.00125
1.01974
1.03882
1.05085
1.06081
1.11792
1.11623
1.11453
1.11286
1.11119
1.1095
1.10777
1.10601
1.10423
1.10242
1.10059
1.09878
1.09701
1.09527
1.09353
1.09182
1.09013
1.08843
1.08673
1.08502
1.08329
1.08154
1.07977
1.07798
1.07623
1.0745
1.07276
1.07101
1.06927
1.0675
1.06571
1.06394
1.06221
1.06047
1.05873
1.05696
1.05518
1.05347
1.05181
1.05016
1.04849
1.0468
1.04515
1.04355
1.04201
1.04053
1.03902
1.03726
1.0351
1.03258
1.02994
1.02727
1.02434
1.0217
1.0201
1.01894
1.01779
1.01648
1.01495
1.01332
1.01178
1.01027
1.00877
1.00762
1.00661
1.00552
1.00421
1.00262
1.00083
0.999058
0.997377
0.995771
0.994342
0.993116
0.99196
0.990722
0.989344
0.987938
0.986614
0.985377
0.98416
0.982931
0.981715
0.980483
0.979122
0.977586
0.975964
0.974405
0.972937
0.971567
0.970468
0.969528
0.968542
0.967429
0.966273
0.965032
0.963628
0.962128
0.960672
0.959314
0.957937
0.956587
0.955533
0.954694
0.953857
0.952896
0.951848
0.950735
0.949407
0.947892
0.946408
0.945045
0.943878
0.942907
0.941996
0.941071
0.940087
0.938912
0.937418
0.935946
0.934956
0.934492
0.934112
0.93323
0.932863
0.933326
0.935253
0.940783
0.950235
0.966008
0.985428
1.01976
1.11655
1.11486
1.11316
1.11147
1.1098
1.10812
1.10643
1.10472
1.10299
1.10124
1.09946
1.09766
1.0959
1.09417
1.09245
1.09077
1.08911
1.08743
1.08573
1.08402
1.08228
1.08053
1.07877
1.077
1.07527
1.07357
1.07189
1.07023
1.06855
1.06681
1.06498
1.0631
1.06122
1.05938
1.05765
1.05604
1.05456
1.05317
1.05176
1.05025
1.04858
1.04675
1.0449
1.04303
1.04113
1.03919
1.03729
1.0355
1.03377
1.03187
1.02958
1.02688
1.02393
1.02135
1.0194
1.01795
1.01675
1.01569
1.01468
1.01359
1.01244
1.01117
1.00966
1.00794
1.00619
1.00456
1.00321
1.0021
1.001
0.999748
0.998366
0.996905
0.995279
0.99349
0.991748
0.990209
0.988869
0.987644
0.986426
0.985122
0.983692
0.982177
0.980742
0.979589
0.978614
0.977641
0.976545
0.975365
0.974136
0.972711
0.971059
0.969429
0.967986
0.966651
0.965497
0.964544
0.963623
0.962593
0.961435
0.960287
0.959117
0.957815
0.956359
0.954873
0.953516
0.952226
0.951008
0.950058
0.949242
0.948383
0.947451
0.946505
0.945418
0.944056
0.942519
0.941104
0.939962
0.938982
0.938127
0.937283
0.936349
0.935129
0.933624
0.932276
0.93162
0.931355
0.930704
0.929999
0.930154
0.93155
0.935007
0.952087
1.11522
1.11354
1.11186
1.11018
1.10853
1.10687
1.1052
1.10352
1.10183
1.10013
1.09841
1.09665
1.09492
1.09319
1.09148
1.08979
1.08811
1.08643
1.08472
1.08299
1.08126
1.07952
1.07782
1.07612
1.07444
1.07273
1.07099
1.06925
1.06752
1.06578
1.06408
1.06245
1.06082
1.05915
1.05742
1.05566
1.05394
1.05232
1.05081
1.0494
1.04808
1.04673
1.04523
1.04354
1.04162
1.03943
1.03712
1.03483
1.03254
1.03005
1.0273
1.0248
1.02316
1.0219
1.02059
1.01914
1.01761
1.01605
1.01447
1.01289
1.01142
1.01019
1.0091
1.00807
1.00697
1.0056
1.00385
1.00202
1.00035
0.998753
0.997216
0.995901
0.994773
0.993629
0.992316
0.990943
0.989647
0.988413
0.987185
0.985931
0.984611
0.983194
0.981687
0.980138
0.978637
0.977239
0.97585
0.974508
0.97342
0.972499
0.971535
0.970444
0.969269
0.967932
0.966384
0.964807
0.963408
0.962083
0.960746
0.959586
0.958658
0.957793
0.95684
0.955758
0.954668
0.953536
0.952191
0.950658
0.94923
0.94798
0.946792
0.945804
0.945026
0.944281
0.943467
0.942594
0.941561
0.940209
0.93866
0.937331
0.936265
0.935334
0.934482
0.933654
0.932723
0.931468
0.929978
0.928988
0.928688
0.928469
0.927765
0.928432
1.11399
1.11233
1.11068
1.10902
1.10737
1.10572
1.10405
1.10238
1.10072
1.09906
1.09739
1.0957
1.094
1.09229
1.09057
1.08885
1.08716
1.08549
1.08383
1.08216
1.08044
1.07866
1.07687
1.07514
1.07349
1.07191
1.07034
1.06875
1.06707
1.06525
1.06336
1.06149
1.05968
1.05806
1.05671
1.0555
1.05423
1.0528
1.05119
1.04939
1.04759
1.04581
1.04397
1.04214
1.04042
1.03876
1.03695
1.03483
1.03237
1.02962
1.02674
1.02415
1.02216
1.02074
1.01958
1.01858
1.01761
1.01654
1.01535
1.014
1.01241
1.01067
1.00889
1.00722
1.00587
1.00477
1.00374
1.00263
1.00134
0.99988
0.998219
0.996437
0.994709
0.993136
0.991682
0.990325
0.989026
0.987724
0.986399
0.985125
0.98397
0.98288
0.981772
0.980588
0.979388
0.978233
0.977024
0.975627
0.974052
0.972473
0.971015
0.969631
0.968446
0.96752
0.966622
0.965602
0.964483
0.963271
0.961898
0.96045
0.959082
0.957814
0.956534
0.955198
0.954006
0.953086
0.952282
0.951397
0.95039
0.949292
0.948051
0.946704
0.945395
0.944161
0.942941
0.941915
0.941156
0.940463
0.939715
0.938881
0.937888
0.936564
0.935024
0.933688
0.932642
0.931728
0.930884
0.930042
0.929184
0.928114
0.926972
0.926376
1.11278
1.11111
1.10946
1.10784
1.10624
1.10465
1.10304
1.1014
1.09974
1.09808
1.09641
1.09474
1.09309
1.09145
1.0898
1.08812
1.0864
1.08464
1.08288
1.08116
1.0795
1.07789
1.07623
1.07451
1.07276
1.071
1.06929
1.06768
1.06622
1.06486
1.06344
1.06184
1.06003
1.05809
1.05628
1.05463
1.05308
1.05172
1.05053
1.04936
1.04803
1.04646
1.04457
1.0423
1.03992
1.0376
1.03525
1.03279
1.0303
1.02807
1.02633
1.02476
1.02321
1.02166
1.02009
1.01854
1.01705
1.01562
1.0143
1.01318
1.01212
1.01105
1.00979
1.00823
1.00645
1.00471
1.00311
1.00157
1.00017
0.998959
0.997842
0.996638
0.995246
0.993854
0.992584
0.991376
0.990123
0.988762
0.987315
0.985813
0.984287
0.982815
0.981435
0.980066
0.978676
0.977427
0.976454
0.975565
0.974578
0.973396
0.972121
0.970752
0.969258
0.967739
0.966314
0.964951
0.963694
0.962678
0.961789
0.960854
0.959836
0.958756
0.957578
0.956314
0.955025
0.953713
0.952333
0.950905
0.949689
0.948827
0.94808
0.947314
0.946449
0.945448
0.944278
0.942935
0.941545
0.940289
0.939179
0.938196
0.937436
0.936808
0.936114
0.935299
0.934349
0.933061
0.931488
0.930069
0.928982
0.928036
0.927337
0.926125
1.11182
1.11013
1.10844
1.10678
1.10516
1.10356
1.10196
1.10033
1.0987
1.09708
1.09546
1.09386
1.09224
1.09061
1.08897
1.08735
1.08574
1.08408
1.08235
1.08054
1.07869
1.0769
1.07523
1.07371
1.07231
1.0709
1.06933
1.06754
1.06569
1.06388
1.06213
1.06055
1.05921
1.05797
1.05668
1.05533
1.0538
1.05204
1.05022
1.04847
1.04669
1.04492
1.04329
1.04172
1.0399
1.03771
1.03522
1.03249
1.02964
1.02703
1.02491
1.02349
1.02242
1.02148
1.02047
1.01937
1.01816
1.01676
1.01512
1.01336
1.0116
1.00997
1.00867
1.00759
1.00657
1.00543
1.00405
1.00245
1.00079
0.99923
0.997696
0.996144
0.994609
0.993162
0.991821
0.990594
0.98949
0.988468
0.987397
0.986179
0.984832
0.98351
0.982327
0.981165
0.979872
0.978426
0.97692
0.975469
0.974045
0.972602
0.971403
0.970474
0.969556
0.968511
0.967357
0.966105
0.964718
0.96325
0.961811
0.960413
0.959122
0.958117
0.957296
0.956483
0.955605
0.954612
0.953436
0.95211
0.950732
0.949367
0.948045
0.946797
0.945766
0.945001
0.944306
0.94352
0.942544
0.941501
0.94046
0.939277
0.937953
0.936705
0.935608
0.934609
0.933776
0.933125
0.932458
0.931651
0.930798
0.929772
0.928521
0.926369
1.11086
1.1092
1.10753
1.10587
1.10424
1.10265
1.10109
1.0995
1.09786
1.09619
1.09451
1.09285
1.09125
1.08968
1.08812
1.08654
1.0849
1.0832
1.08151
1.07986
1.07822
1.07652
1.07475
1.07299
1.07136
1.06987
1.06851
1.06726
1.06595
1.06445
1.06272
1.06079
1.05887
1.05706
1.05539
1.05393
1.05275
1.05166
1.05047
1.04902
1.0473
1.04518
1.04279
1.04043
1.03807
1.03562
1.03308
1.03074
1.02891
1.02728
1.02566
1.02405
1.02252
1.0211
1.01971
1.01838
1.01724
1.01621
1.01519
1.01404
1.0126
1.01083
1.00898
1.00729
1.00574
1.00429
1.00301
1.00187
1.00076
0.999457
0.997973
0.996532
0.995304
0.994189
0.993017
0.991678
0.990173
0.98862
0.98714
0.985717
0.984282
0.982823
0.981548
0.980567
0.979695
0.978759
0.977619
0.976381
0.975142
0.973762
0.972185
0.970608
0.969198
0.967841
0.966638
0.965717
0.96487
0.963949
0.962891
0.961703
0.960389
0.958994
0.957635
0.956341
0.95508
0.953989
0.953121
0.952306
0.951421
0.950416
0.949274
0.94801
0.94669
0.945433
0.944313
0.943233
0.942073
0.940934
0.94002
0.939284
0.938531
0.937666
0.936735
0.935781
0.934631
0.9333
0.932077
0.931038
0.930205
0.929597
0.929111
0.927905
1.11001
1.10835
1.10669
1.10501
1.10331
1.10162
1.09995
1.09834
1.09683
1.0954
1.09396
1.09239
1.0907
1.08897
1.08729
1.08568
1.0841
1.08247
1.08075
1.07899
1.0773
1.07573
1.07431
1.07298
1.0716
1.07001
1.06824
1.06647
1.06473
1.0631
1.06168
1.06039
1.05907
1.05764
1.05615
1.05447
1.05265
1.0509
1.04917
1.04739
1.04569
1.04413
1.0425
1.04051
1.03814
1.03542
1.03243
1.02961
1.02742
1.02611
1.0251
1.02415
1.02313
1.02205
1.02085
1.01945
1.01783
1.01615
1.01449
1.01289
1.01157
1.01046
1.00937
1.00811
1.00659
1.00489
1.00319
1.00153
0.999937
0.998612
0.997449
0.996286
0.99498
0.993606
0.992403
0.991369
0.99033
0.989113
0.987772
0.986507
0.985317
0.984036
0.982611
0.981138
0.979738
0.978399
0.976993
0.975634
0.974567
0.973671
0.972693
0.971548
0.97035
0.969041
0.96756
0.966039
0.964673
0.963386
0.962226
0.961389
0.960645
0.959812
0.95882
0.957691
0.956392
0.954934
0.953495
0.952188
0.950936
0.949829
0.948969
0.948188
0.947335
0.946361
0.945325
0.944281
0.943211
0.942082
0.940886
0.939669
0.93852
0.937422
0.936324
0.935327
0.934521
0.933812
0.933026
0.932189
0.931264
0.930084
0.929026
0.927568
1.10917
1.10753
1.10593
1.10438
1.10282
1.1012
1.09948
1.09771
1.09592
1.09418
1.09256
1.09106
1.08969
1.08836
1.08689
1.08523
1.08344
1.08168
1.07999
1.07839
1.07681
1.07519
1.07357
1.07204
1.07067
1.06944
1.06823
1.06688
1.06535
1.06354
1.06153
1.05961
1.05778
1.05617
1.05488
1.05374
1.05258
1.05121
1.04961
1.04767
1.04538
1.04305
1.0408
1.03843
1.03588
1.03341
1.03151
1.02983
1.02814
1.02649
1.02498
1.02361
1.02229
1.02106
1.02
1.01905
1.01808
1.01695
1.01551
1.01368
1.01168
1.00991
1.00838
1.00707
1.00596
1.00494
1.00381
1.00231
1.00042
0.998683
0.997525
0.99663
0.99575
0.994765
0.993492
0.991847
0.990128
0.988575
0.987122
0.985739
0.984577
0.983654
0.982737
0.981672
0.980515
0.979366
0.978124
0.976705
0.975173
0.973682
0.972233
0.97083
0.969727
0.968847
0.967952
0.966917
0.965815
0.964626
0.963288
0.961884
0.960584
0.959378
0.958183
0.957175
0.956375
0.955553
0.954551
0.95339
0.952108
0.950719
0.949369
0.948174
0.946992
0.945755
0.944607
0.943646
0.942847
0.942049
0.941108
0.940101
0.939241
0.938448
0.937616
0.936626
0.935358
0.933971
0.932741
0.93173
0.930926
0.930233
0.929641
0.928476
1.10845
1.10671
1.10499
1.10329
1.10167
1.10014
1.0987
1.09732
1.09585
1.09419
1.09236
1.09051
1.08872
1.08703
1.08543
1.08392
1.08247
1.08095
1.07929
1.07762
1.07615
1.07489
1.07364
1.07224
1.07063
1.06894
1.06723
1.06553
1.06403
1.06274
1.06147
1.06006
1.05852
1.05679
1.05488
1.05307
1.05133
1.04955
1.04784
1.04632
1.04483
1.04304
1.04082
1.03822
1.03526
1.03234
1.03001
1.02864
1.02764
1.02671
1.0257
1.02462
1.02345
1.02209
1.02054
1.01894
1.0174
1.01591
1.01456
1.01337
1.01219
1.01086
1.0093
1.00756
1.00585
1.00429
1.003
1.00203
1.00116
1.00009
0.998585
0.996807
0.995256
0.993978
0.992873
0.991855
0.990768
0.989562
0.988269
0.986853
0.985339
0.983862
0.982481
0.981157
0.979866
0.978689
0.977738
0.976836
0.975796
0.974615
0.973372
0.971999
0.970481
0.96899
0.967625
0.966303
0.9652
0.964341
0.963529
0.96261
0.961583
0.960488
0.959236
0.957845
0.956483
0.955213
0.95393
0.952744
0.951796
0.950946
0.950053
0.949069
0.94793
0.946613
0.945218
0.943849
0.9428
0.942147
0.941558
0.940772
0.939596
0.938258
0.937152
0.936352
0.935689
0.934975
0.93415
0.933199
0.932017
0.930676
0.929628
0.928181
1.10773
1.10617
1.10462
1.10297
1.1012
1.09937
1.09757
1.09585
1.09427
1.09282
1.0915
1.09018
1.0887
1.08701
1.08518
1.08334
1.08161
1.07999
1.07842
1.07692
1.07542
1.07393
1.07257
1.0714
1.07033
1.06918
1.06779
1.06608
1.0641
1.06214
1.06029
1.05855
1.05709
1.05588
1.0547
1.05331
1.05166
1.04969
1.04749
1.04534
1.04326
1.04104
1.0386
1.03617
1.03416
1.03242
1.03062
1.0289
1.02742
1.02612
1.02486
1.0237
1.02269
1.02178
1.02085
1.01974
1.0184
1.01689
1.01507
1.01301
1.01112
1.00974
1.00876
1.00791
1.00691
1.00549
1.00376
1.00203
1.00059
0.999493
0.998535
0.99757
0.996433
0.994957
0.993192
0.991558
0.990131
0.988756
0.987543
0.986549
0.985592
0.984526
0.983367
0.982202
0.980965
0.979578
0.978115
0.97667
0.975276
0.973919
0.972759
0.971847
0.970945
0.969908
0.968781
0.967528
0.966088
0.964621
0.963326
0.962101
0.960957
0.960049
0.959257
0.958387
0.957356
0.956214
0.954926
0.953505
0.952111
0.950811
0.949537
0.94852
0.947828
0.947214
0.94653
0.945541
0.944102
0.94256
0.941532
0.940901
0.940251
0.93952
0.938638
0.937506
0.936099
0.934792
0.933724
0.932853
0.932208
0.931568
0.930902
0.929535
1.1068
1.10511
1.10349
1.10194
1.10048
1.09909
1.0976
1.09596
1.09416
1.09232
1.09055
1.08884
1.08719
1.08568
1.08426
1.08287
1.08142
1.0799
1.07835
1.0769
1.07553
1.07408
1.07253
1.07097
1.06939
1.06778
1.06634
1.06511
1.06391
1.06254
1.06094
1.05911
1.05715
1.0553
1.0535
1.05166
1.04996
1.04852
1.0471
1.04535
1.04321
1.04078
1.03807
1.03526
1.03272
1.03111
1.03012
1.0292
1.02819
1.02715
1.02603
1.0247
1.0232
1.02168
1.0202
1.01869
1.01714
1.01569
1.01446
1.01331
1.01196
1.01027
1.00847
1.00709
1.00607
1.00518
1.00432
1.00319
1.0016
0.999809
0.998166
0.99675
0.995532
0.994538
0.993581
0.992483
0.99124
0.989785
0.988131
0.986578
0.985249
0.983954
0.98268
0.981663
0.980803
0.979894
0.978805
0.97757
0.976305
0.97495
0.973473
0.972012
0.970654
0.969339
0.968142
0.967202
0.966363
0.965428
0.964402
0.963306
0.962049
0.960639
0.959282
0.958034
0.95679
0.955689
0.954836
0.953998
0.953055
0.952023
0.950837
0.949496
0.948198
0.947107
0.946231
0.945548
0.944941
0.944219
0.9433
0.942115
0.940598
0.939206
0.938132
0.937314
0.936644
0.935942
0.935108
0.933993
0.932679
0.93145
0.930584
0.929345
1.10639
1.10483
1.10319
1.10141
1.09956
1.0978
1.0962
1.09477
1.09347
1.09218
1.09075
1.08921
1.08755
1.08574
1.08386
1.08207
1.08038
1.07878
1.07725
1.07591
1.0748
1.07374
1.07264
1.07138
1.06995
1.06827
1.0664
1.06454
1.06273
1.06092
1.05944
1.05826
1.05708
1.05565
1.05387
1.05172
1.0496
1.04764
1.04566
1.04351
1.0412
1.03889
1.0369
1.03513
1.03328
1.03148
1.02992
1.02859
1.02736
1.02626
1.02529
1.02438
1.02341
1.02227
1.02091
1.01946
1.01792
1.01614
1.01422
1.01251
1.01112
1.00998
1.00896
1.0078
1.00639
1.00489
1.00356
1.00244
1.00145
1.00041
0.999095
0.997595
0.996015
0.994509
0.993096
0.991705
0.990446
0.989399
0.98838
0.987274
0.986183
0.985055
0.983768
0.982311
0.980873
0.979566
0.978243
0.976893
0.975782
0.974891
0.973953
0.972859
0.971703
0.970466
0.969064
0.967596
0.966242
0.964994
0.963814
0.96282
0.96201
0.961195
0.960258
0.959213
0.958004
0.956571
0.955068
0.953709
0.952569
0.951755
0.951113
0.950416
0.949544
0.948615
0.947568
0.946282
0.944951
0.943802
0.942738
0.941756
0.940976
0.940265
0.939415
0.938177
0.936723
0.93559
0.93477
0.934066
0.933391
0.932657
0.931929
0.930304
1.10542
1.10379
1.10229
1.10095
1.09962
1.09815
1.09648
1.09464
1.09283
1.09112
1.08949
1.088
1.08665
1.08535
1.08396
1.08243
1.08089
1.07938
1.07776
1.0761
1.0746
1.07316
1.07167
1.07016
1.06884
1.06768
1.0665
1.06504
1.06331
1.06136
1.05934
1.0575
1.05581
1.05418
1.05283
1.05161
1.05008
1.04806
1.04583
1.04348
1.04089
1.03819
1.03575
1.03382
1.03256
1.03158
1.03065
1.02967
1.02862
1.02743
1.02603
1.02452
1.02303
1.02155
1.02004
1.01847
1.01693
1.01553
1.01425
1.01304
1.01191
1.01085
1.00975
1.00848
1.00704
1.00551
1.00398
1.00248
1.00101
0.999545
0.998335
0.997401
0.996474
0.995383
0.994131
0.99271
0.991105
0.989488
0.987994
0.986641
0.985491
0.98449
0.983625
0.982705
0.981609
0.980465
0.979282
0.977941
0.976425
0.974926
0.973572
0.972273
0.971106
0.970178
0.969325
0.968332
0.96725
0.96616
0.964925
0.963526
0.962168
0.960957
0.959798
0.958693
0.957775
0.956959
0.956074
0.955101
0.953994
0.95268
0.951303
0.950082
0.948991
0.948106
0.947353
0.94661
0.945739
0.944779
0.94379
0.942597
0.941229
0.939978
0.939024
0.938342
0.937728
0.936994
0.935981
0.934604
0.933313
0.9323
0.931533
0.930416
1.10576
1.10399
1.1021
1.10025
1.09852
1.09693
1.09557
1.09435
1.09311
1.09176
1.09032
1.08874
1.08697
1.08513
1.08331
1.08153
1.07982
1.07836
1.0772
1.07612
1.07497
1.07373
1.07236
1.07079
1.06903
1.06727
1.06552
1.06374
1.06216
1.06081
1.05949
1.05797
1.05626
1.05433
1.05225
1.05028
1.04829
1.04615
1.04392
1.04176
1.03974
1.03794
1.03627
1.03451
1.03269
1.03124
1.03008
1.02893
1.0278
1.02676
1.0258
1.02477
1.02355
1.0222
1.02086
1.01944
1.01774
1.01583
1.01412
1.01273
1.01149
1.01032
1.00925
1.00824
1.00721
1.00598
1.00452
1.00312
1.00181
1.00042
0.998891
0.997363
0.996
0.994663
0.99334
0.99219
0.991177
0.990111
0.988956
0.987773
0.986505
0.985101
0.983703
0.982373
0.981064
0.979816
0.978676
0.977701
0.976764
0.975728
0.974632
0.973471
0.972132
0.970632
0.969176
0.967846
0.966649
0.965686
0.964889
0.964075
0.963097
0.962067
0.960986
0.959683
0.95821
0.956855
0.955657
0.954547
0.953609
0.952842
0.952047
0.951172
0.950244
0.949186
0.9479
0.946547
0.9453
0.944172
0.943273
0.942546
0.941863
0.941058
0.940066
0.938807
0.937434
0.936344
0.935598
0.935009
0.934383
0.933513
0.932453
0.930709
1.10488
1.10353
1.1022
1.10076
1.09925
1.09762
1.09581
1.09403
1.0924
1.09083
1.08934
1.088
1.08676
1.08542
1.08389
1.08228
1.08068
1.07898
1.07723
1.07558
1.07404
1.07261
1.07137
1.07029
1.06914
1.0677
1.06607
1.06425
1.06224
1.06026
1.05838
1.05648
1.05467
1.05303
1.05146
1.04978
1.04791
1.04575
1.04344
1.04118
1.03895
1.03681
1.03509
1.03392
1.03294
1.03203
1.03114
1.03011
1.02884
1.02738
1.0259
1.02449
1.02305
)
;

boundaryField
{
    inlet
    {
        type            fixedValue;
        value           nonuniform 0();
    }
    outlet
    {
        type            inletOutlet;
        inletValue      uniform 1;
        value           nonuniform List<scalar> 
18
(
1.0837
1.0769
1.06086
1.02005
0.952288
0.928464
0.926396
0.926155
0.926365
0.927923
0.927581
0.928499
0.928197
0.929547
0.929372
0.930301
0.93045
0.930711
)
;
    }
    bottom
    {
        type            symmetryPlane;
    }
    top
    {
        type            symmetryPlane;
    }
    obstacle
    {
        type            zeroGradient;
    }
    front
    {
        type            empty;
    }
    back
    {
        type            empty;
    }
    procBoundary39to31
    {
        type            processor;
        value           nonuniform List<scalar> 
133
(
1.09485
1.09308
1.09132
1.08956
1.08777
1.08595
1.08408
1.08218
1.08025
1.07831
1.07637
1.07449
1.07267
1.07086
1.06906
1.06727
1.06548
1.06367
1.06182
1.05995
1.0581
1.05625
1.05438
1.05255
1.0508
1.04913
1.0475
1.04583
1.04407
1.04223
1.04038
1.0386
1.03694
1.03538
1.03371
1.03182
1.02946
1.02661
1.02362
1.02057
1.01784
1.0162
1.01498
1.01377
1.01246
1.01091
1.00913
1.00762
1.00647
1.00531
1.00406
1.00279
1.00148
0.999991
0.998301
0.996529
0.994815
0.993163
0.99155
0.990033
0.988689
0.987465
0.986204
0.98478
0.983222
0.981659
0.980174
0.978833
0.977715
0.976698
0.975657
0.97454
0.973305
0.97185
0.97016
0.968507
0.967122
0.966058
0.965142
0.964185
0.963071
0.96179
0.960466
0.959102
0.957594
0.95583
0.953894
0.952219
0.950914
0.949792
0.949127
0.948597
0.947906
0.946983
0.946936
0.947571
0.950016
0.955738
0.965644
0.982727
1.00545
1.02563
1.04732
1.06102
1.06971
1.07898
1.08192
1.08457
1.08791
1.0893
1.08945
1.0888
1.08802
1.08728
1.08635
1.08451
1.12206
1.12031
1.11859
1.11691
1.11525
1.11357
1.11185
1.1101
1.1083
1.10647
1.10461
1.10275
1.10088
1.09899
1.09713
1.09533
1.09533
)
;
    }
    procBoundary39to38
    {
        type            processor;
        value           nonuniform List<scalar> 
17
(
1.12233
1.12098
1.11962
1.11826
1.11693
1.11568
1.11449
1.11352
1.11256
1.1117
1.11087
1.11019
1.10933
1.10854
1.10792
1.10714
1.10741
)
;
    }
    procBoundary39to46
    {
        type            processor;
        value           uniform 1.10636;
    }
    procBoundary39to47
    {
        type            processor;
        value           nonuniform List<scalar> 
133
(
1.02157
1.02006
1.01864
1.0174
1.01622
1.01503
1.01389
1.01277
1.01156
1.01014
1.00854
1.00696
1.0054
1.0038
1.00233
1.00113
1.00017
0.999219
0.998104
0.996931
0.995672
0.994171
0.992488
0.990918
0.989531
0.98824
0.987149
0.986256
0.985378
0.984361
0.98324
0.982086
0.980821
0.979362
0.977862
0.976498
0.97523
0.974014
0.972924
0.972004
0.97109
0.970066
0.969007
0.967904
0.966624
0.965207
0.963863
0.962632
0.961531
0.960612
0.959808
0.95892
0.95788
0.956824
0.95568
0.95433
0.952958
0.951796
0.950733
0.949664
0.948665
0.947827
0.947025
0.946185
0.945292
0.944256
0.943014
0.941798
0.940728
0.93968
0.938669
0.93779
0.93692
0.935883
0.934827
0.934042
0.933424
0.9329
0.931752
1.105
1.10327
1.10152
1.09973
1.09811
1.0968
1.09566
1.09446
1.09316
1.09174
1.09013
1.08833
1.08652
1.08475
1.08293
1.08119
1.07981
1.07864
1.07749
1.0762
1.07482
1.07332
1.07161
1.06988
1.06816
1.06639
1.06469
1.06321
1.06184
1.06037
1.05867
1.05663
1.05438
1.05223
1.05018
1.04816
1.04626
1.04446
1.04258
1.0406
1.03878
1.03722
1.03573
1.03424
1.03279
1.03154
1.03047
1.02944
1.02846
1.02752
1.02645
1.02521
1.02157
1.02386
)
;
    }
}


// ************************************************************************* //
