/*--------------------------------*- C++ -*----------------------------------*\
  =========                 |
  \\      /  F ield         | OpenFOAM: The Open Source CFD Toolbox
   \\    /   O peration     | Website:  https://openfoam.org
    \\  /    A nd           | Version:  7
     \\/     M anipulation  |
\*---------------------------------------------------------------------------*/
FoamFile
{
    version     2.0;
    format      ascii;
    class       surfaceScalarField;
    location    "1.326";
    object      phi;
}
// * * * * * * * * * * * * * * * * * * * * * * * * * * * * * * * * * * * * * //

dimensions      [0 3 -1 0 0 0 0];

internalField   nonuniform List<scalar> 
18389
(
-7.97423e-05
7.97423e-05
4.3456e-05
-4.3456e-05
-5.20444e-05
5.20444e-05
4.01749e-05
-4.01749e-05
-5.18178e-05
5.18178e-05
-4.0037e-05
4.0037e-05
-3.4712e-05
3.4712e-05
3.90842e-05
-3.90842e-05
-3.57039e-05
3.57039e-05
4.15528e-05
-4.15528e-05
4.5044e-05
-4.5044e-05
-3.46182e-05
3.46182e-05
-1.60176e-05
1.60176e-05
-4.28552e-05
4.28552e-05
4.34796e-05
-4.34796e-05
2.45541e-05
-2.45541e-05
1.94512e-05
-1.94512e-05
4.58944e-05
-4.58944e-05
4.5928e-05
-4.5928e-05
4.33509e-05
-4.33509e-05
-4.2564e-05
4.2564e-05
3.55768e-05
-3.55768e-05
4.29457e-05
-4.29457e-05
-5.84873e-05
5.84873e-05
-4.96919e-05
4.96919e-05
-4.17726e-05
4.17726e-05
-4.45456e-05
4.45456e-05
4.56275e-05
-4.56275e-05
4.58558e-05
-4.58558e-05
4.41465e-05
-4.41465e-05
-4.13477e-05
4.13477e-05
-6.3075e-05
6.3075e-05
4.31161e-05
-4.31161e-05
-4.47503e-05
4.47504e-05
4.08605e-05
-4.08605e-05
4.67025e-05
-4.67025e-05
-4.55509e-05
4.55509e-05
5.3576e-05
-5.3576e-05
-5.88837e-05
5.88837e-05
3.78685e-05
-3.78685e-05
4.48756e-05
-4.48756e-05
4.53739e-05
-4.53739e-05
-4.10091e-05
4.10091e-05
4.48993e-05
-4.48993e-05
4.58735e-05
-4.58735e-05
-4.58565e-05
4.58565e-05
-4.58582e-05
4.58582e-05
-4.067e-05
4.067e-05
-4.58872e-05
4.58872e-05
4.59446e-05
-4.59446e-05
4.59595e-05
-4.59595e-05
4.46198e-05
-4.46197e-05
3.7733e-05
-3.7733e-05
-4.5767e-05
4.5767e-05
-5.55456e-05
5.55456e-05
-4.38146e-05
4.38146e-05
4.57575e-05
-4.57575e-05
-4.5994e-05
4.5994e-05
4.32271e-05
-4.32271e-05
-5.9319e-05
5.9319e-05
-4.71476e-05
4.71476e-05
4.96054e-05
-4.96054e-05
4.57375e-05
-4.57375e-05
-1.13697e-05
1.13697e-05
4.5778e-05
-4.5778e-05
4.15639e-05
-4.15639e-05
5.12088e-05
-5.12088e-05
-4.58722e-05
4.58723e-05
4.23224e-05
-4.23224e-05
3.16347e-05
-3.16347e-05
2.54927e-06
-2.54927e-06
-4.41284e-05
4.41284e-05
3.28687e-05
-3.28687e-05
-3.65743e-05
3.65743e-05
3.97679e-05
-3.97679e-05
2.66257e-05
-2.66257e-05
2.61993e-05
-2.61993e-05
2.70487e-05
-2.70486e-05
2.43934e-05
-2.43934e-05
1.3494e-05
-1.3494e-05
0.00107378
-0.000881422
-0.000192356
0.00546707
-0.00207594
-0.00339112
-0.00594631
0.00594626
5.26176e-08
0.00335433
-0.00259822
-0.000756114
-0.0015452
0.00176236
-0.00021716
-0.00676401
0.00284169
0.00392233
0.0012152
0.00425188
0.00725559
-0.00587616
-0.00137943
0.0011688
-0.00191735
0.000748557
-0.000869517
-0.000675688
-0.00144233
-0.000314613
0.00175695
0.000160128
3.48293e-07
-0.000160476
0.000778425
-0.00222076
-0.00360338
0.000123309
0.00348006
-0.00320239
0.00289148
0.000310918
-0.00572717
0.0072747
-0.00154754
-0.00370939
0.00289687
0.000812516
-0.00056442
-0.00303896
-0.00174716
0.0023882
-0.000641039
-0.000465366
0.00255843
-0.00209306
-0.00160743
0.00110861
0.00049881
0.000583526
0.000581833
-0.00160008
-0.00516394
0.0012505
-0.00180267
0.000552175
0.00578013
-0.0038609
-0.00191922
-0.000656741
0.00330993
-0.00265319
-0.00583525
0.00583485
0.000487223
0.00127514
-0.00633021
0.000975079
0.00535514
0.00232866
-0.0029854
-0.00378987
0.00311348
0.000676393
0.00214813
-0.00422406
0.00109032
-0.000204221
-0.000886102
0.00150365
-0.00128938
-0.000214271
-0.00280106
-0.000401326
0.00535067
-0.00535123
0.000368678
0.00113497
0.00522907
-0.00133785
-0.00389123
0.00200516
-0.000836359
0.00308567
0.0019087
-0.00499436
-0.000722112
-0.00306777
-8.90455e-05
-0.000154966
0.000244011
0.00393525
0.00332034
0.00117141
-0.00489931
0.0037279
0.0016273
0.00360177
-0.00498177
0.00632144
-0.00133967
-0.00113265
-0.00059493
0.00172759
0.00133835
0.00201597
0.000135294
0.000103626
-0.00023892
0.00502363
-0.00339632
0.00645778
-0.000839524
-0.00561826
0.00322027
-0.00265576
-0.000564514
0.00222705
0.00044587
-0.00267293
0.00295367
-0.000726616
0.00650381
-0.00539844
-0.00110535
0.000508627
-0.00387525
0.00336663
6.98886e-05
0.0063879
0.0048132
-0.00430457
-0.000535791
0.00105937
-0.000523573
-0.00175759
0.000624937
0.00191713
0.00224904
-0.00416617
0.000253469
-0.000333675
8.02059e-05
-0.00127109
-0.00284527
0.00411635
-2.60821e-05
0.0065299
-0.00281828
0.00228985
0.000528437
0.000388047
-1.24854e-05
-0.000375561
-0.00569227
-0.000254045
0.00187649
-0.00138927
0.000826848
0.00495328
0.000894082
0.0001797
0.00266727
-0.00648661
0.00381934
-0.0011202
0.000584411
0.00263799
-0.00390908
0.00619658
-0.00226131
0.00109209
0.00117729
-0.000771845
0.00101116
-0.000239316
-0.0011095
-0.000497919
0.00189699
0.00132328
-0.000595907
0.00142982
-0.00123774
-0.000192076
-0.00265478
0.00198532
0.000669467
0.00116712
0.000262698
0.00114278
-0.00498492
0.00384213
-0.00476342
0.00142351
0.0033399
-0.00455428
0.00611796
-0.00156369
-0.00506279
8.10322e-05
-0.00201759
-0.000637186
-0.00021444
0.000125394
-0.00123114
0.00465477
-0.00342363
-0.00122925
-0.0006881
0.000103315
-0.000192024
8.8709e-05
0.000126294
-2.29796e-05
-0.00126401
0.00464465
-0.00338064
-0.00015601
2.43949e-05
0.000131615
-0.0055689
0.001708
-0.00118891
-0.000568681
-0.00044949
-1.89502e-05
0.000468439
-0.000543353
9.38627e-05
0.00101311
7.72106e-05
-0.00180827
0.000619365
-0.000150249
1.7177e-05
0.000133072
0.00136799
-0.00234448
0.000976485
0.000271106
-0.000135811
-0.00392568
0.00514088
-0.00245655
0.000709403
-9.37498e-05
-0.000428447
0.000522197
0.00568652
-0.00217007
-0.00351645
7.64073e-05
0.00250782
-0.00258423
0.00446947
-0.00562121
0.00115176
0.0026339
0.00305261
0.00291329
-0.00283688
-0.00615529
0.000428125
-0.00647052
0.00363777
0.00283275
0.00229332
0.00390326
-0.00439266
0.00138511
0.00300754
0.00149563
-0.000245134
-0.00102793
0.00402202
-0.00299409
0.00463935
-0.00162711
-0.00301224
-0.00461069
0.00374738
0.000863318
0.00369316
-0.00503101
5.90184e-05
0.000329028
-0.00138463
0.00585411
-9.35371e-05
0.00214937
-0.00205583
-0.00206399
0.00260509
0.000177873
-0.00278295
-0.00127742
0.00264541
-0.00065287
0.00325795
0.00164044
-0.00173397
0.000914243
0.00397371
-0.00488796
-0.00504215
0.00384398
0.00119818
0.00255188
-0.00359409
0.00104222
-0.0033406
0.00412011
-0.000779506
0.000334541
-0.00367514
-0.000886341
0.000886341
-0.000447365
0.000353616
-0.000126979
-0.000973471
0.00110045
0.00507025
-0.00184313
-0.00322712
-0.00243321
-0.00036786
0.00290018
0.000157752
1.65299e-05
-0.000174282
-0.00146822
0.00112265
0.000345565
-0.000140865
-0.00490129
0.00506424
-0.00389284
0.00025913
-9.90029e-05
0.00444381
0.000579815
0.00406758
-0.0015157
0.000164818
-7.06599e-06
-0.00634584
-0.000982604
-0.000825671
0.00430054
-0.00190508
-0.00239546
0.00275601
0.00154453
0.00107771
-0.00563198
-0.00225557
-0.000562708
-0.00111937
-0.000958684
0.00207805
3.82414e-05
-0.00272162
0.00268337
-0.00235777
0.0012384
-0.00221813
0.0053038
-0.00462442
0.00160764
0.00301677
0.00254606
0.000665674
-0.000332969
-0.000332706
-0.00601422
0.000583067
0.00543116
-0.0041877
0.00582941
-0.00164171
0.00182584
0.00162881
-0.00345465
-0.0016712
0.000900169
0.000771027
-0.00271518
0.00207928
0.000635893
0.00109691
0.000779586
0.000247198
-0.000328938
8.17408e-05
0.00491273
-0.00399849
-0.0063863
0.00557536
0.00081094
-0.00479542
-0.0016751
0.00334134
0.000651228
-0.00399257
0.000153927
-0.00016213
8.20223e-06
0.00059052
-0.000125324
-0.000465196
-0.00451865
0.00261358
0.000361271
-0.000558957
0.000197687
5.29543e-05
-0.000939297
-0.00257572
0.00448442
-0.00530497
-0.000324211
0.00562919
0.000200322
0.000184919
-0.000385241
0.00063901
-0.00063901
0.00168401
-0.000729862
-0.00210968
0.00181079
0.000298885
0.00440533
-0.00302023
-0.000162245
6.23576e-06
-0.00120161
0.00125456
0.000724716
0.00128044
0.00234878
-0.000269489
-0.00402015
-0.00128481
0.00111424
-0.00498951
0.00321329
-0.00447729
0.000835992
-0.00213497
0.00129898
0.00335887
-0.00459001
-0.00271186
-0.00180679
-0.00483622
0.00469535
-0.000675838
-0.00533838
-0.00516042
0.00150687
-0.00146113
-4.57424e-05
0.00222883
0.000119944
-0.00601368
0.00204818
0.0039655
-0.00121933
0.000525995
0.000693335
0.00145875
0.00294658
-0.00462633
-0.00101685
0.00564319
-0.000212792
0.000138486
7.43052e-05
-0.00551904
0.00133134
0.00375305
-0.0049369
0.00118386
-0.00149085
-0.000618829
-0.000536677
-0.000637499
0.000138368
-0.000203834
6.54653e-05
0.00500716
-0.00386438
-0.00130138
0.00512607
-0.0038247
-0.000409217
-0.000792391
-0.00586133
0.000439965
0.00539488
-0.00616811
0.00456802
-0.000921148
-0.00546516
-0.00109206
-0.000376155
-0.0018161
0.00285703
-0.00104093
-0.000419204
0.000322093
9.71122e-05
-0.00173202
0.00141741
0.00160517
-9.82982e-05
0.000828188
-3.67478e-05
-0.00169528
0.00279622
0.00121826
-0.00303436
0.00605732
-0.000481954
0.00528091
6.97526e-05
-0.00528134
0.00439123
0.00114587
-0.00553711
0.000556436
-0.000768841
0.000212405
-4.01546e-05
-0.00040721
-9.9064e-06
0.00606722
-0.000162218
0.000156864
5.3546e-06
0.000133312
2.06148e-05
0.00253501
-0.00335903
0.000824023
-0.00192667
0.000738915
0.00118775
0.00792768
-0.00345772
-0.00446996
0.0011712
0.00126335
-0.00243456
0.000105638
-0.00017627
7.0633e-05
-0.00080587
0.00133186
0.00116564
0.003181
-0.00434664
-0.00561352
0.000166523
0.00544699
-0.0040214
0.00299348
0.00173544
0.00479446
0.00459424
0.00333343
-2.24778e-05
0.000189461
-0.000166983
-0.00131353
0.00440059
-0.00308705
0.00030162
-0.000341774
-0.000131303
-8.14891e-05
0.00410122
-0.00227539
0.00476316
-0.00502029
0.000257139
-0.0032319
0.006077
-0.0028451
0.0025267
0.00157452
0.00577119
-0.00100804
-0.00138251
-0.00562084
0.00137277
0.00424807
0.000654628
0.000520695
-0.00117532
0.00126957
-0.000614939
0.000585364
-0.00111024
0.000524876
0.00110606
0.000275091
0.000390584
-0.000678277
0.00443133
0.00151649
-0.000393845
0.00355086
-0.00614425
0.0025934
0.00153243
-0.00258396
0.00105153
-0.00432578
0.00117038
0.0031554
0.00291121
-0.00422474
-0.00490933
-0.00125877
-0.00410152
0.0012709
0.00283062
0.00125271
0.00314787
-0.00326439
-0.000837136
0.00222589
-0.00105469
-0.000684979
-0.00252823
0.00321321
0.00240376
0.000622713
-0.00302647
-0.00158753
0.00119866
0.000388864
0.000269998
0.00148235
-0.00196307
0.000480724
-0.000110909
-0.000222766
-0.000264333
0.000153424
-0.00435539
-0.000255302
-0.00029171
0.00117054
-0.000878828
0.00435145
-0.00464591
0.00029446
-8.84228e-05
0.00011777
-2.93465e-05
0.000975841
0.00338145
-0.00435729
-0.000157002
6.85791e-05
-0.00475258
0.000711342
0.00404125
-0.000706769
0.000122151
0.000584616
6.40166e-05
-6.36682e-05
-0.00040112
0.00086467
-0.000347474
-0.000517197
-0.00603572
0.000637278
-0.00254968
-0.000128174
0.00267785
-0.00316874
0.00442145
0.00218082
-0.00108872
-0.00116719
-0.00117219
-5.706e-05
-0.00351954
-0.00124387
0.00150472
-0.000401728
-0.00110299
0.0019186
0.00183893
-0.00375753
0.00505197
-0.00162102
-0.00343095
0.000794262
-0.00542059
-0.00137418
0.00300299
0.00196459
0.000777953
-0.00274254
-0.00349687
0.00447271
-0.000152929
2.68032e-06
0.000939215
-0.00443608
-0.00449745
-0.000148479
-0.000997262
-0.00461626
0.0046368
0.00149611
0.00355586
0.00416139
0.00114217
-0.00530357
3.59362e-05
5.91976e-05
-9.51338e-05
-0.00140364
0.00336823
0.00371753
0.00355718
-0.00139719
0.00236895
-0.000971757
-0.00248175
0.000464157
-0.000878415
0.000751435
-0.000210178
0.000410501
-0.000217089
0.00169944
0.00376336
-0.00184476
-0.00106776
-0.000603442
-0.000107146
-0.000157186
0.00355042
-0.00163328
-0.00240372
0.00465277
0.000674522
-0.00309588
0.00242136
0.000635199
0.000762956
-0.00105467
0.00209934
-0.00131765
-0.00327477
0.00459242
-0.00214604
0.00481331
-0.000553805
0.00344528
0.00023804
-0.000220863
-0.00236194
0.00096476
0.00233007
-0.00386968
0.00153962
-0.00120195
5.70603e-05
-2.11242e-05
0.002146
-0.00279665
0.000650656
-0.00116643
-0.000421097
-0.00352924
0.00450432
0.00119799
0.0016728
-0.0028708
-0.00168858
0.00366528
-0.0019767
0.0042427
-0.000861253
0.00023441
1.41148e-05
-0.000248525
-0.00372281
0.00203423
-0.00143505
0.00472395
-0.0032889
0.00087804
0.00130278
0.00017321
0.000465798
0.000253012
-0.000300711
4.76984e-05
0.00169827
0.000212356
-0.00191063
0.0030188
-0.00459537
0.00157657
-5.27934e-05
0.000374232
-0.000321438
0.00156081
-0.000362152
0.0013939
-0.000605018
-0.000788881
0.00282155
-0.00392798
0.00110642
0.00267855
-0.00374343
0.00106489
-0.0051777
0.0019458
0.00390843
-0.000889619
-0.000638929
-0.00237256
0.00301149
0.00140809
-0.00511875
0.00371065
0.00336053
-0.00145893
-0.00190161
-0.000679011
0.00172254
-0.00104353
0.00477143
-0.003036
-0.000690644
-0.00196511
-0.00598229
0.00514277
3.89618e-06
0.000121664
-0.00012556
-0.00157709
0.00119823
0.000378866
-0.00490757
0.00630979
-0.00140223
-0.00188243
0.000726834
0.00115559
0.000406992
0.00268631
-0.00208723
-0.000599086
0.00343577
0.000488953
-0.00392473
0.000125798
-2.01602e-05
0.00517248
0.000335878
-0.00550836
-0.00194048
0.00379757
-0.00185709
0.00277101
-0.000646489
-0.00212453
0.000462558
0.000402112
-0.000436612
0.00387238
0.00202622
-0.0039667
0.000699698
-0.000265232
-0.000434465
-0.000637072
-3.47364e-06
0.000640548
-0.00315203
-0.00576456
0.00576533
-0.000274405
0.000949376
-0.000674972
-0.00228628
-0.000195469
-0.00455729
0.00323963
-0.000877048
0.00113523
0.0036078
-0.00501884
0.00141104
0.000410665
-0.00296034
0.00232923
-0.00244115
0.000111909
-0.00157142
0.00148228
8.91385e-05
-0.00120801
-0.000369078
-0.00339164
0.00342995
-0.00223196
0.000457265
0.000133255
-0.00173235
0.00105334
-0.00279751
0.000751836
0.00204567
0.00024243
-8.01963e-06
-0.00347788
0.00102477
0.00245311
-0.00144464
0.00560603
0.000339167
-0.000952833
0.000613667
0.00211655
0.000654459
-0.00127775
0.000304278
0.00111052
0.00121872
-0.00143439
0.00496449
-0.0035301
-0.00485084
0.00576964
-0.000918804
-0.00117576
0.00228221
0.00410569
0.00107213
3.64821e-05
0.00586892
-0.00553403
-0.000334892
0.00356338
-0.0046648
0.00110142
0.00309384
-0.000690089
0.00542686
-0.00181906
-0.00250274
-0.000975142
-0.0021703
-0.000324777
0.00249509
0.00241248
-0.00196662
-0.00160816
-0.00424256
0.00274614
0.00149643
-0.000325612
0.00122578
0.00121406
0.00366485
-0.0048789
-0.000303173
0.000664444
0.00305956
-0.00238504
-0.00472435
-0.00125795
0.00647028
-0.0012978
0.00424563
0.00206041
0.000498028
0.00285515
-0.00212512
-0.000730028
0.00473667
-0.00245447
-7.22059e-05
-0.0033254
-0.000870455
0.00419586
0.000387914
-8.65609e-05
-0.000301354
-0.00514767
0.00611048
-0.000962808
-0.000739022
0.00190321
-0.00116418
-0.000697071
0.00525267
-0.0045556
0.00117124
-0.00191026
-0.000113082
-0.00576307
-0.000771845
0.00203746
0.00383147
-0.000242795
-0.00192751
0.0002514
-4.20177e-06
0.000362618
-0.000487942
0.00336285
-0.000827837
-0.00522706
-0.000271645
-0.00014756
0.000150191
-0.000133575
-1.6616e-05
-0.00248347
0.000125694
-0.000423062
0.0015897
-0.00101183
-0.000577867
0.00247336
0.000591593
-0.00306495
-0.00071188
0.00318523
-0.00520293
-0.000271513
0.00547444
0.00375083
0.00137525
0.00441408
-0.00123308
-0.000136196
0.00254868
0.00540386
-0.000206643
-0.00519722
-0.0060865
0.00425176
0.00183474
0.00321026
-0.00126786
-0.00435299
0.000201918
-0.000224396
0.00057982
0.000814077
0.00107515
0.000110414
-0.00118556
0.00421229
0.00119157
-0.000959116
0.00317188
-0.00221276
0.00474094
-0.00139959
-0.00217847
0.00279264
-0.000614163
-0.00117767
-0.000126755
0.00031202
-0.000185264
0.00344603
-0.00414311
0.0013454
-0.000986235
-0.000359165
0.00159474
-0.00039651
-0.00325109
0.00229196
0.00549043
-0.00434457
-3.06318e-05
0.000352725
-0.00535951
0.000451936
0.00545496
-0.00190411
-0.00100444
-0.00361331
0.00461776
-0.00064708
0.0028828
-0.00223572
0.00549726
-0.00286245
-0.00263481
-8.83978e-05
0.000593254
-0.000677262
0.000660593
1.66681e-05
-0.000688704
0.0017293
-0.0010406
-0.00314873
-0.00117704
0.000155571
-1.7203e-05
-0.00122449
-0.0047892
-0.00307734
0.00239236
-0.000439575
-0.000199433
-7.26334e-05
-8.95845e-05
-0.00120252
-0.00080575
-0.00522998
-0.00283833
0.00219126
-0.000817216
0.00118589
0.00113266
0.00438675
-0.00551941
0.00340524
-0.00275401
0.00046875
0.000773933
-0.00288469
0.00211076
0.0049935
-0.00494738
-4.61149e-05
-0.00320957
0.00361559
-0.000406009
0.000207796
-9.56097e-05
-0.000112187
-0.00499674
-0.00148989
-0.00175613
0.00369044
-0.00193431
0.00298202
-0.00220808
-0.00378406
0.00202793
0.00139499
-0.00258174
0.00118675
-0.00363266
0.00568084
0.00649908
-0.00219586
-0.00430322
-0.00240062
0.00237286
2.77652e-05
0.00562257
-0.00164888
0.00118611
-0.000924194
-0.000261914
-9.11396e-06
0.000262126
0.000249437
-0.000773121
0.000523684
-0.00304575
0.00365152
-0.000972968
0.00084444
-0.00104866
0.00236224
-0.000631812
-0.00173043
0.00220689
-0.00050862
0.00452924
0.000629675
0.00173257
-0.00175388
0.00106518
0.000408594
-0.000464692
5.60979e-05
0.00221102
-0.00174522
-0.000465806
0.000834615
-0.00514776
-0.000544512
0.000369492
-0.000588342
0.00021885
-0.00410061
0.00547339
0.000942161
-0.00111663
0.000174471
-0.00151928
0.00216569
-0.000646401
-0.00149239
-0.00275018
-0.00538376
-0.000156016
0.00553978
0.000300006
0.000108304
4.1887e-05
0.000128293
-0.000128166
-1.27372e-07
0.00412414
-0.00291008
-0.00380874
-0.00233551
0.003467
0.00303207
-0.00259659
0.000736109
0.00186048
-0.000844697
0.00223968
-0.00229618
-0.000104443
0.00272889
-0.00377757
0.00104868
0.00130489
-0.000134356
0.000462387
0.000550726
-0.00327851
0.000965822
0.00231268
0.000917294
-0.000599337
-3.77363e-05
-0.00428032
0.00172712
9.67953e-05
-0.00182391
-0.00396619
0.0014662
0.00249999
0.000521939
0.00146204
-0.000882227
-0.000246518
-0.00466012
0.00490664
0.000784832
-0.00247684
0.00169201
0.0012022
0.00131232
-0.000476152
-0.00171034
0.00218649
0.00258017
-0.00179534
0.00447247
-0.00353326
-0.000785521
-0.00264047
-0.000227529
0.000251924
-0.000701686
0.00176268
-0.001061
0.00265885
-0.00366802
0.00100915
0.000136464
2.04e-05
-0.00236303
-0.000915484
0.00142158
-0.00163642
0.000214847
-0.00277441
0.000687181
0.00127655
-0.00141877
0.000142223
0.00161892
-0.00180789
0.000188972
0.000676682
-0.00372953
-0.00116978
0.0013557
-0.00490616
0.00355046
-0.000915557
0.0035744
0.000116052
-7.71323e-05
-3.89198e-05
0.00476305
-0.00363038
-0.000336933
-0.00153383
-0.00401771
-0.00150133
0.00209103
0.000701598
-0.00101677
-0.000924123
-0.00452619
-0.0016291
-0.000374037
0.00124278
-0.00093138
-0.000311401
-0.00149489
-0.00108908
0.000658731
0.00225604
-0.00291477
-0.000114279
0.000670715
-0.000716034
3.87717e-05
-0.00245463
0.00196645
0.00139408
-0.000723877
0.00165487
-0.00093099
-8.68722e-05
-0.000116961
0.000318589
-0.00194545
0.000454604
0.00160132
-0.00231149
0.000710169
-0.00334581
0.00257836
0.000767438
0.0011925
0.00241949
-0.00361199
-0.00175232
0.00105063
-0.00294064
-0.00102555
-0.000798143
-0.00254767
-0.00167645
0.00125197
0.000424477
0.00176243
-3.53103e-05
-0.000764341
-0.00243256
0.00319689
-0.000680954
0.0029147
-0.00225597
-0.000858513
-0.00394762
0.00480614
-0.00234401
0.00233857
5.44501e-06
-0.000706769
-0.00155887
0.000547048
-0.00240471
0.00381959
-0.00141489
0.00323276
0.0028852
0.000194395
3.62207e-05
-0.000230617
0.00234028
-0.000603119
-0.00173716
0.000188191
-0.000184295
-0.00359151
0.00494721
-0.00328962
0.00524599
-0.00195637
-0.00350958
-0.00150926
-0.000913397
0.00323158
-0.00231819
0.00285541
0.00177613
-0.00418086
-0.00499784
-0.000149822
-0.000797374
0.00284985
-0.00205247
-0.000431678
0.000378884
-0.000528042
0.00167443
-0.00114639
-0.00403833
0.0033415
0.000696828
-0.00326978
0.00235638
-0.00387004
0.00067613
0.0031939
0.00140872
-0.0010119
-0.000396826
-0.00589956
0.000696628
0.00184657
-0.00141052
-0.000436047
0.00140599
-0.000395649
-0.00101035
7.83761e-05
0.000129421
0.00293328
-0.000643431
-0.000222913
-0.00348772
-0.000382322
0.000428313
-0.00305316
-0.000985174
-0.00233527
-8.7404e-06
-0.00292637
0.00228745
0.000721167
0.00260153
-0.0033227
0.000584335
-0.00085874
0.00140602
-0.00671649
0.00531046
-0.00578566
0.000990232
-0.00234746
0.00353996
0.000690583
0.000258794
-0.00273251
0.00345368
-0.000100137
0.00509363
0.000624482
0.00170111
-0.0023256
-0.00177486
0.00124682
0.00274639
-0.00369641
0.000950015
0.00510125
0.000666661
0.00154436
0.000313678
0.000386018
-0.000364084
-0.000404757
0.000180953
-0.00174512
0.00176685
-0.000888809
0.000849608
0.000612433
-0.000586622
0.0030109
-0.00242427
-0.00149629
0.00184157
-0.000345278
-0.00489648
0.00380311
0.00109337
-0.00480241
0.00151279
-3.98036e-05
3.92527e-05
5.50939e-07
-0.00281003
-0.000857976
0.00107409
-0.00128987
0.000215787
0.00136138
-0.0049529
0.00101839
5.67574e-05
0.00124533
0.000695474
0.00218732
-0.00366768
0.000857652
0.000192171
-0.00504301
0.00189807
0.00120526
0.000697943
-0.00527269
-0.00049187
0.00565226
0.00118361
0.00710754
-0.00218448
-0.00492305
0.000782148
-0.000377847
-0.000404302
0.000721282
-0.00138067
0.000777229
-0.00386069
-0.00125806
0.00031202
-0.000929488
-0.000418638
0.00134813
0.00232808
0.00400856
-0.00486707
0.00270229
0.000835109
-0.0035374
0.00124948
-0.000963611
-0.000285863
0.00074561
0.00159467
-0.000135031
0.000138259
-3.22826e-06
-0.000710159
0.00288333
-0.00217317
0.00362238
0.00110157
-0.00126127
-0.000415178
0.00142115
-0.00153948
0.000118329
4.7502e-05
6.85501e-05
-0.00447695
0.00096737
-0.0016525
0.000444483
-0.00364628
0.00293439
-0.000950473
6.90505e-05
0.000936093
0.00267902
-0.00361511
0.000847483
-0.00126178
0.00419376
-0.00293198
0.000318092
0.000279937
4.65844e-05
-0.000326522
7.83315e-05
-0.00539167
0.00531334
-0.00263037
-0.000784799
0.00341518
-0.00349599
0.00260525
0.000890748
-0.00276495
-0.00026225
-0.00171338
-0.00491085
0.000893133
-0.00145301
-0.000882256
-0.00106361
0.0037925
0.00170732
-0.00372627
0.00201895
0.000105511
2.27824e-05
0.00372614
-0.00201882
0.00286203
0.000964839
-0.00382686
-0.00130093
0.00174066
-0.000439731
0.00357465
0.00110398
-0.00467863
0.00718411
-0.00197456
-0.00520954
-0.0021267
-0.000711627
-0.00172504
0.00234951
0.00377181
-0.0049286
0.00115678
-0.00280147
0.00373756
0.00113462
-8.90853e-06
-0.00112571
0.00148204
0.000906152
-0.00550982
0.000600489
0.000432295
0.000349852
0.00292155
-0.00112467
-0.0025217
0.00247903
4.26722e-05
0.000504892
-0.00184037
0.00133548
-0.00387165
-0.00119115
0.00109095
-0.00254396
-0.00529911
0.000151354
-0.00124492
-0.00052851
0.00177343
0.00563677
-0.0044946
0.000104455
0.00028346
-0.00301422
0.0031921
0.00143942
-0.00107127
-0.000368158
0.00346804
0.00476073
-0.000957627
0.00064998
-0.00328035
0.00106444
-0.000942294
-5.28869e-05
0.00046148
0.000393968
-1.97361e-05
-0.00206914
-0.000455355
0.00152944
-0.00091763
-0.00349756
0.000765059
-2.86299e-05
-1.11738e-05
0.0059985
-0.00492077
0.00522145
-0.0043946
1.07079e-05
-0.000584616
0.000573908
0.00194881
-0.000458692
-0.00149012
0.00335896
-0.000757425
-0.00256765
0.00336109
-0.000793436
-0.00183259
0.000531665
0.00127843
-0.000951551
-0.000326875
-0.000118766
-0.000210172
0.00205895
-0.000548443
-0.00151051
-0.00138008
-0.00239363
-0.000128067
0.00208903
-0.00274564
0.000656611
0.00280632
-0.00075103
-0.0020553
0.00410337
-0.00434988
0.000314816
0.0022424
-0.00064107
-0.000683375
0.000833772
-0.00368066
0.00504203
0.00124499
0.000470768
-0.00171569
-0.00286832
0.00209616
0.00363338
0.00158806
-0.00113067
-0.00383504
-0.00114987
0.00130279
-0.00171745
0.000414658
0.0036751
-0.00318615
-0.000193829
0.00113599
-3.87582e-05
-0.000270658
0.000309416
-0.000703285
-0.00189331
0.00377138
-0.00491081
0.00113944
-0.00185884
0.00235223
-0.000493393
-0.00115722
0.00213169
0.000751638
-0.00226241
0.00375586
-0.00149346
0.00150506
-0.00114057
-0.000364488
-0.000998054
0.000291288
0.000191671
-0.000434065
0.000242394
-0.000426403
-0.0012261
-0.00248059
0.00250391
-2.33198e-05
0.00144905
-0.00371146
0.00162309
-0.000371116
0.00036537
-0.000421383
5.60139e-05
-0.000825985
0.000592908
0.000233077
-0.000795279
-0.00285261
0.000838507
0.00201411
-0.00199543
-0.000840193
-0.00071444
0.00155463
-0.00524493
0.00389517
0.00134976
-0.00120173
0.00121244
-0.000576392
-0.000115918
0.000692309
0.0028684
-0.000736718
-0.000770355
-0.000160199
0.000930555
0.00183902
-0.00136825
0.00169714
-0.000394349
-0.000137286
-0.000632704
-0.00420701
0.00483971
-0.00138485
0.0028307
0.00427684
-0.00239843
-8.21608e-05
0.00311842
-0.00473944
0.000733635
0.00158091
-0.00231455
0.00200533
-0.0028027
0.00199731
-0.000742645
-0.00125466
-0.00179585
0.000456048
0.0013398
0.00431938
0.00286472
-0.00552205
0.00133888
0.00418317
-0.00125489
-0.00399004
-0.000460296
-0.00133555
-0.000996601
-0.000562273
-0.00129174
-0.000425704
0.00114742
-0.000535926
0.00150706
-0.00097113
-0.00175709
0.00129679
-0.000944492
-0.000207202
0.00115169
0.00217053
-0.00286728
0.00069676
-1.17694e-05
0.000206164
0.00103257
0.00606625
-0.00140397
-0.00466228
-0.0020351
-0.00187263
0.00133019
0.000542437
0.00127084
-0.000978122
-0.000292714
-0.00228982
-0.0010302
0.00332003
-0.00266796
0.00358529
-0.000917332
-0.000921291
0.00111325
1.1074e-05
-0.00112432
0.0037604
-0.00493837
0.00117796
0.00174751
-0.00135517
-0.000392341
0.00242707
-0.00122486
0.00274144
-0.000634481
-0.000191504
-0.00409042
0.00228969
-0.0018024
-0.00048729
0.00056102
-0.00200894
0.00144792
-0.00251284
-0.000846191
0.000858801
-0.000657465
-0.000201338
-0.000180213
-0.00364486
0.000976898
0.000677813
-0.000486142
0.00258963
0.000995661
0.000319285
0.00129435
0.000702953
-0.0016029
0.00233653
-0.00149981
0.00098511
0.000514699
0.00355489
-0.000692849
-0.00380933
0.00610265
-0.00115041
-0.00249093
0.00683375
-0.00434282
-0.000890452
0.00356948
-0.0041418
0.000932237
-0.00210183
0.00424995
-0.000700611
-0.00161088
-0.00245062
0.00170465
0.000745972
-0.00128019
0.000368262
-0.00043647
6.82094e-05
-0.00137405
-0.000776889
-0.000153496
0.000930385
-0.00156385
0.00135902
0.000204827
0.00203154
0.000818314
6.24065e-05
-0.00130015
-0.000555741
-0.00082493
-0.00242263
-0.000483035
-0.00138959
-0.000171022
0.0015926
-0.000180735
0.0034116
-0.000514732
0.00133895
0.000199283
-0.000836569
-0.000966105
-0.00192974
0.00247704
-0.000547301
-0.00104191
-0.0057289
0.00351077
0.00146866
-0.000619053
0.00288641
-0.00121361
0.000967624
-0.00135895
-0.00453018
0.00588912
0.000620808
-0.00255056
0.000741698
-0.00369089
0.00269668
0.000994206
0.000885972
-0.0014219
0.00222338
-0.00311916
0.000895779
0.00119698
-0.00343018
0.0022332
0.000861482
0.00168739
-0.00254887
-0.00017432
0.00179324
0.00273985
0.00107866
0.00361955
-0.000413521
0.000783011
0.00315757
-0.00402802
0.000987122
-0.00327693
0.000435865
0.00412558
0.00146507
-1.06387e-05
-0.000275592
0.00028623
-0.00619338
0.00385624
0.00233714
-0.000832274
-0.00261336
0.00344564
0.00263985
-0.00177837
-0.00369721
0.000895738
-0.00132123
-0.000435865
-0.000152677
0.0013198
0.00372886
0.00123562
0.00022432
0.00130859
-0.000991549
-0.000317043
0.000875737
0.000592925
-0.000314089
0.0037676
-0.00493627
0.00116867
0.00307858
-0.000855217
-0.00139818
0.00190307
0.00125673
-0.00355444
0.00229772
-0.00117078
0.00145565
0.00067865
-0.0021343
0.000192102
-0.000202741
0.00219837
-0.000860017
-0.00124941
0.00033047
0.000926108
-0.000348232
-0.000577876
0.0035324
-0.00227568
-0.000517145
0.00229905
-0.00178191
0.00101833
-0.00297314
0.00207833
0.000894811
0.00010647
-9.58523e-07
0.00467762
0.000541213
-0.00570516
-0.00519816
0.00392697
0.0012712
-0.00107977
-0.0026937
0.00377347
0.00222129
0.00372497
0.00282616
-0.00375448
0.000928322
-0.00146869
0.00109962
-0.000965585
0.00337947
-0.00241389
0.00149634
0.000562609
-0.00378544
-0.00240794
0.00108367
-0.00230101
0.00321689
-0.000915885
0.0034387
-0.000833449
0.000396994
-0.000821084
0.00253968
0.000899012
-0.000635793
0.0043109
-0.00130783
0.00171555
-0.000407728
0.00200496
-0.00126604
-0.000390032
0.00607682
-0.00491951
-0.000464245
0.000858919
-0.00246182
-0.00539159
-0.00172217
0.000414343
-0.000678152
0.00010176
-0.000871047
0.000212244
-0.00146778
0.000678922
0.00156347
-0.000905428
0.000135073
0.000805689
0.00251566
-0.00332136
-0.00109516
0.00187358
-0.00194662
-0.000474607
0.00196116
-0.00148655
-0.000893891
-0.00207924
-0.00195169
0.00147709
-0.00265716
0.00346284
-0.00163791
0.000588362
0.00104955
-0.000984677
0.0035743
0.00603108
-0.00231356
-0.00130213
-0.000420044
-0.00173794
0.00109648
0.000641456
0.000906577
-0.004521
0.00361442
-0.00130982
0.000544862
0.000764953
-0.00403466
-0.0011635
0.000191711
-0.0011362
0.00193463
-0.000729371
-0.00135168
-0.00380605
0.00515773
0.00100002
7.21113e-05
0.00329732
-0.00252754
-0.000769778
0.000129485
0.00127651
0.000875977
-0.000668975
-0.000207002
-0.00134353
-0.00101841
-0.00108957
0.00513429
-0.00404471
0.000638292
-0.00249713
0.000146737
0.00127441
0.00377241
-0.0049637
0.00119129
0.00288253
-0.00204403
0.000101881
-0.000168281
6.64e-05
0.00102933
0.000138136
0.000104294
0.00235705
0.0037092
-0.000584406
-0.000803636
0.00138804
0.000653746
0.00177067
-0.00242441
0.00240279
-0.00169768
-0.00070511
0.000476038
0.00147277
0.00042629
-0.000511835
-0.000797981
0.000601094
-0.00532545
0.000690473
-2.98802e-05
-0.00116385
-0.00132274
-0.00379415
0.00511688
0.00103341
0.00143666
-0.00189535
0.00254631
-0.000394768
-0.00490873
0.0053035
0.000120601
-1.87193e-05
0.000664422
0.00127021
0.00272676
0.000948233
-0.00367498
0.00137479
0.000471785
0.00258706
-0.00364101
0.00454759
0.00277355
0.000844164
-0.00361771
0.00161599
-0.00082333
-0.000792661
0.00132731
-0.00101809
-0.000309223
0.000423812
0.00106061
-0.00470162
0.000218512
-6.73444e-06
0.000198837
0.00606676
-0.00130371
0.00152552
-0.00212864
0.00252942
-0.0018191
-0.000710319
0.000869474
-0.00254404
0.00167457
0.00523442
-0.00281493
-0.000928497
-0.00158115
0.00500848
0.00148635
-0.00178137
0.000295024
0.000499441
-0.00010357
-0.00039587
-0.000999007
-0.00313902
0.00413803
0.00074323
0.00181855
-0.00256178
0.00176752
-0.000281175
0.00224655
0.00140279
-0.000857934