/*--------------------------------*- C++ -*----------------------------------*\
  =========                 |
  \\      /  F ield         | OpenFOAM: The Open Source CFD Toolbox
   \\    /   O peration     | Website:  https://openfoam.org
    \\  /    A nd           | Version:  7
     \\/     M anipulation  |
\*---------------------------------------------------------------------------*/
FoamFile
{
    version     2.0;
    format      ascii;
    class       volScalarField;
    location    "1.326";
    object      T;
}
// * * * * * * * * * * * * * * * * * * * * * * * * * * * * * * * * * * * * * //

dimensions      [0 2 -2 0 0 0 0];

internalField   nonuniform List<scalar> 
12359
(
-7.6882e-74
-4.28443e-61
9.5638e-197
-5.05922e-40
-8.6828e-69
-8.54845e-27
5.54479e-22
-3.19315e-24
8.94846e-17
7.64422e-30
4.61561e-19
-1.16244e-12
0.234962
-8.35982e-37
-2.0517e-42
1.65466e-05
0.00255591
6.4412e-109
-5.85785e-112
-1.09425e-50
-2.08425e-34
1.3983e-14
-1.2654e-55
1.5182e-47
-1.0075e-58
-1.16949e-52
-6.14365e-143
5.27158e-146
8.73953e-117
-4.51905e-135
-3.5964e-130
-2.11086e-159
1.15876e-175
-6.52924e-140
-8.54678e-187
-1.09769e-127
-5.61223e-89
-2.51632e-76
-2.66946e-71
-8.09996e-82
-1.9962e-63
-5.61661e-79
-4.8053e-96
-5.53668e-99
-3.5589e-122
-6.66974e-120
1.13621e-124
1.99801e-132
-2.54351e-114
2.32195e-140
1.60296e-148
7.61698e-154
5.71789e-162
-1.21576e-106
-1.70561e-167
-1.30901e-172
3.9897e-101
1.06976e-178
-9.0649e-181
1.3608e-183
7.1085e-170
1.53026e-191
-5.96277e-151
8.8657
-4.94985e-104
2.07921e-32
-1.20015e-91
3.74314e-158
2.1294e-86
5.11415e-08
100.614
-3.26843e-66
1.88506e-199
2.13735e-84
3.35008e-45
-3.2622e-189
-6.85399e-165
-5.65547e-194
1.01436e-93
-7.1747e-11
-1.78818e-26
-1.99937e-108
1.87604e-235
-6.45632e-71
0.00202546
2.40555e-63
-6.59549e-107
-5.23634e-151
1.18967
0.000662286
-2.28534e-208
3.50099
-6.8522e-210
8.45365e-91
-3.94931e-74
2.7854e-41
3.36335e-95
2.93022e-91
2.90899e-46
2.67665e-58
5.78041e-22
-3.82058e-208
6.93699e-64
31.1596
-2.03989e-114
3.01544e-25
-9.60035e-199
0.00262684
2.0615e-71
3.21013e-26
2.49319e-97
-3.03083e-108
-2.94953e-30
2.71979e-25
-8.06064e-75
-1.16194e-134
2.04424e-24
-2.01057e-107
4.04269
-4.07076e-232
5.97353e-98
5.70105e-22
-2.53413e-150
4.21383e-29
-1.24986e-106
-6.27862e-126
5.86975e-16
-1.99674e-70
1.55399e-195
-2.13343e-107
-8.33159e-135
5.74092e-05
0.0014407
0.00108013
-1.19832e-199
6.27212e-30
-9.01639e-134
5.93774e-31
-1.01197e-204
8.7664e-17
-5.29216e-223
-4.76391e-70
9.41498e-33
3.46228e-199
7.90209e-17
9.16642e-27
-1.4849e-234
0.000839302
-8.02091e-114
8.10001e-26
2.36431e-38
1.71811e-207
3.07167e-32
-2.72473e-148
5.11421e-214
117.547
1.1814e-22
5.93003e-05
9.23928e-96
-2.96688e-156
8.33807e-32
-8.02586e-155
1.36886e-28
1.79129e-31
-7.88457e-221
-3.11146e-127
1.8851e-32
1.07524e-22
3.52832e-33
1.05789
2.929e-192
-1.42435e-190
9.94825e-34
-1.49342e-57
-8.51422e-116
3.56147e-17
1.02821e-117
3.14238e-119
-4.61666e-30
4.67249e-18
-2.27522e-36
3.07575e-212
1.96034e-194
-1.08489e-107
2.05891e-47
1.99589e-15
-8.48586e-92
-1.93435e-77
5.48706e-38
6.19718e-90
-3.84115e-76
1.9751e-42
2.20318e-44
3.17955e-148
1.52312e-25
42.9668
2.53304e-54
-1.03647e-90
2.25752e-32
-1.32398e-106
1.28395e-25
2.87863e-38
-8.13092e-59
3.05003e-26
1.44589e-19
-1.58869e-211
1.23934e-18
3.30568e-58
2.04157e-24
-3.93953e-97
9.94719e-218
1.32212e-11
1.84799e-11
155.855
5.66061e-15
1.19041e-201
-8.73554e-91
-6.40809e-76
-1.65223e-90
-3.30915e-70
1.17664e-25
-1.98804e-98
8.06243e-30
3.23607
-1.82177e-107
2.85374e-217
-5.04247e-69
1.29353e-72
1.58252e-18
-7.32333e-89
-3.71073e-88
-1.43614e-222
3.99088e-17
1.95519e-53
-1.36602e-77
1.53684e-54
-2.34021e-230
1.60531e-30
-2.23321e-76
9.85294e-05
-3.81545e-213
1.64578e-60
4.60804e-85
6.87705e-10
3.88549e-30
0.00123932
-1.35163e-181
3.91022e-25
3.62417e-121
1.14411e-44
2.45687e-16
-3.624e-77
6.02907e-123
-2.14963e-88
1.35516
126.818
-2.81089e-230
9.4916e-102
1.41091
198.614
1.71148e-57
1.50027e-30
2.76243e-20
5.42624e-26
-6.31119e-59
59.7145
4.08976
7.12555e-29
3.13394e-103
3.3108e-30
3.75008e-33
2.54974e-47
1.44093e-32
-1.05583e-89
-6.05907e-100
-4.81601e-215
-3.10473e-101
9.7396
1.24059e-28
-4.13218e-183
3.84455e-206
1.13087e-25
-2.41578e-100
1.07524e-92
1.08078e-61
2.66765e-226
1.88861e-20
-5.81202e-207
-1.80203e-207
-1.04039e-160
2.67724e-29
-5.70591e-110
52.9727
-1.49964e-200
-3.2971e-198
4.26541e-63
-2.23258e-121
1.70991e-26
-3.45867e-79
1.68802e-151
-5.75646e-208
8.83815
1.74984e-19
-4.65321e-209
-3.92369e-90
-1.84989e-80
-1.72474e-119
-4.31655e-133
-7.12141e-136
-9.48122e-118
-7.92042e-109
-9.19387e-16
-8.55469e-120
3.38489e-131
-6.24623e-76
3.95678e-31
2.04107
-9.35483e-118
8.37627e-50
7.66127e-06
1.82444e-206
9.68687e-40
2.12482e-182
1.27498e-53
-1.08786e-198
-2.42971e-116
1.43164e-15
6.88013e-37
4.80932e-16
-6.31543e-94
-1.61111e-84
2.81864e-44
6.08186e-40
-2.637e-83
1.7725e-44
9.93859e-45
-1.65769e-166
-8.64212e-164
-5.93575e-164
-1.15311e-163
-9.90023e-163
0.000395454
-1.43569e-226
1.42807e-24
1.67089e-29
1.65437e-49
7.72892e-31
2.14315e-36
1.55453e-63
1.61789e-55
2.28587e-36
3.14462e-56
1.08133e-49
9.2714e-29
3.99203e-28
1.34461e-29
-4.72043e-69
3.49153e-14
-2.39183e-71
-2.76424e-72
6.84125e-33
1.09028e-19
-5.99566e-111
-1.58157e-166
6.90214e-54
-1.81425e-167
-2.10131e-108
172.751
22.8513
-5.11512e-109
-3.68699e-203
-1.86919e-202
-8.98168e-212
7.605e-37
2.97883e-213
8.45951e-213
1.45254
8.93695e-32
0.00051003
-6.68285e-112
4.46499e-27
-8.77038e-102
1.70178e-83
2.59319e-25
1.58055e-54
-1.08891e-37
9.3063e-56
-1.99012e-111
-1.07999e-182
4.88432e-32
6.47913e-27
5.89599e-110
3.23581e-11
1.649e-25
4.90539e-41
1.31265e-39
1.18469e-33
3.06611e-202
9.55848
2.04544e-13
-8.40046e-111
2.2626e-10
-1.4415e-73
-1.75621e-221
-2.53814e-222
-2.95477e-213
0.000949631
1.51024e-20
4.15384e-48
2.69296e-40
8.40245e-39
-7.40642e-73
-8.14604e-37
8.09013e-41
2.4977e-08
1.98563
1.21075e-10
4.67834e-49
1.50739e-30
4.43014e-70
1.87858e-26
2.52589e-59
1.20344e-52
4.08134e-138
1.34646e-60
1.56348e-34
-6.7825e-212
188.509
-1.01911e-89
2.24811
1.65993e-27
-3.36579e-99
1.55919e-28
1.09176
9.23268e-35
2.06508e-54
4.67076e-41
1.52063e-26
1.11758e-25
-2.06004e-104
-3.79127e-217
3.76607e-23
-8.03106e-196
2.41658e-05
-9.1834e-134
-3.17223e-52
1.00894e-33
1.31544e-84
0.0106992
8.25242e-24
-9.40793e-61
1.54732e-105
6.84869e-05
-2.10925e-171
-5.38096e-115
2.49071e-14
-5.22723e-202
1.64951e-105
-6.44916e-116
1.30296e-07
19.0239
-3.90759e-72
-5.69925e-156
-1.19749e-31
1.83724e-34
8.5281e-40
4.3555e-31
6.79389e-33
-2.15133e-165
-3.30864e-213
6.94151e-38
-1.2047e-206
9.88235e-35
2.59938e-40
7.10338e-27
6.49038e-121
3.57819e-24
7.01343e-13
3.30712e-136
1.09364e-72
1.13845e-107
-2.55627e-28
4.60087e-14
3.32101e-203
1.20307e-36
6.21748e-34
2.02992e-72
1.51928e-35
-3.79236e-132
9.78791e-21
3.93589e-55
1.03642e-28
3.6541e-27
-6.18504e-164
-2.16396e-73
1.25476e-09
0.00464902
-4.7607e-208
5.70964e-52
5.27771e-10
4.56125e-36
0.804967
-3.21915e-213
-7.1172e-136
-7.99144e-170
5.18443e-31
2.83928e-57
1.26575e-67
-8.87411e-131
1.28434e-38
6.38241e-51
-1.39997e-57
2.50621e-92
0.000336049
-9.7491e-192
0.000762382
-9.04572e-153
150.215
4.07131e-54
2.51198e-10
-2.87753e-180
2.36611e-122
3.89811e-30
-3.51321e-109
7.04056e-153
-6.52441e-96
1.20242e-55
6.28318e-56
6.08528e-12
2.6445e-22
2.40504e-22
5.02891e-235
-6.20908e-109
1.40259e-38
0.00655741
2.13367e-234
9.61734e-188
2.34438e-33
-1.11332e-167
3.98946e-16
1.32483
114.02
4.76783e-233
-6.05262e-72
1.49846e-15
-8.97611e-66
-2.4572e-116
87.1138
1.25404e-189
3.37023e-23
1.20718e-32
5.14446e-73
-1.35735e-118
6.42511e-150
5.76834e-86
7.49494e-30
1.59601e-56
1.60287e-71
2.3599e-231
1.44182e-193
1.02903e-59
-2.01651e-116
1.02542e-26
4.05224e-31
-2.82299e-159
-1.0725e-184
3.01372e-28
180.211
-4.0985e-132
1.55261e-08
-1.48772e-202
9.23019e-71
2.59218e-23
2.20788e-35
5.85265e-17
1.31654e-27
7.42776e-57
7.18622e-27
-1.97975e-218
1.49891e-186
1.70501e-38
1.3538e-63
-8.95511e-58
5.51752e-65
3.08756e-213
-1.14323e-183
-1.49236e-125
1.24907e-44
1.74229e-23
-3.49937e-32
-2.5497e-89
-1.36817e-30
4.13158e-33
3.45353e-53
-1.16606e-29
2.94654e-53
2.878
1.97226e-31
1.12779e-51
8.41197e-28
2.85326e-187
2.15455e-22
8.87785e-30
1.10567e-235
-4.69353e-204
-5.52505e-167
1.12325e-176
6.8907e-07
1.15055e-52
3.2426e-78
-1.86443e-31
-2.72266e-95
1.85022e-15
1.1725e-36
1.27778e-29
-1.13329e-124
1.99873e-10
-2.5819e-213
-2.68681e-45
8.14607e-106
1.0814e-18
-4.71879e-29
4.19582e-61
3.86288e-52
9.34396
5.40041e-34
2.84116e-13
4.2449e-60
2.10277e-11
0.633515
-1.01182e-158
-3.05775e-111
1.00296e-214
3.33116e-08
-1.42861e-111
2.01765e-56
0.00891806
4.55968e-188
-2.53501e-57
1.50211e-30
3.53866e-57
5.88787e-129
3.91182e-62
-2.04378e-155
-3.39528e-62
-2.37844e-158
-2.34769e-154
-7.85393e-67
2.81307e-29
2.21422e-32
6.27128e-56
3.52235e-08
4.30436e-36
15.6551
9.7839e-34
4.19919e-62
-2.37691e-64
2.7587e-35
2.52464e-48
1.41011e-42
0.568524
-3.14766e-34
1.46121e-50
3.27197e-48
-1.45929e-107
-1.16561e-117
1.14407e-28
-1.07764e-215
28.5799
-1.79397e-162
-2.46303e-33
1.28409e-21
5.31028e-07
6.84786e-18
6.82403e-27
1.22324e-31
7.20307e-61
3.93143e-18
3.67244e-40
3.69917e-13
1.06981e-47
4.12052e-13
8.32286e-49
5.07253e-227
6.67093e-50
179.559
5.33638e-13
-1.1106e-85
-1.23651e-219
3.48808e-157
1.97158e-80
-3.95204e-52
5.47276e-33
4.46746e-51
-2.20886e-166
-1.65251e-84
7.49721e-48
-7.39348e-88
1.11844e-92
3.07711e-12
-3.37591e-99
2.05798e-41
1.12196e-23
1.44971e-85
-1.00289e-77
2.90762e-27
1.90112e-236
-7.35271e-83
53.2776
4.81446e-185
7.41072e-16
3.16889e-22
2.42567e-79
1.22657e-31
7.5731e-24
1.14233e-49
3.55233e-25
1.9744e-112
-1.05068e-31
-2.39722e-116
6.93377e-46
6.59072e-26
-1.55456e-30
2.42426e-112
2.22272e-26
8.6312e-06
1.59406e-42
1.04018e-61
-3.46453e-105
7.5403e-22
7.5493e-07
-3.33668e-110
-1.84932e-203
8.1512e-50
-1.66562e-210
0.757643
3.0501e-48
4.21959e-12
1.54273e-59
3.25778e-52
14.7882
3.62679e-58
0.00190501
4.36556e-34
109.339
4.77661e-38
-1.18243e-71
1.97744e-59
1.13586e-73
0.00464541
0.000452928
-3.11689e-156
-3.59774e-154
-1.50052e-28
1.26339e-144
0.0038546
1.00505e-26
4.78278e-10
-3.28976e-105
125.192
0.102845
1.13919e-47
1.45464e-226
1.76161e-116
-2.56799e-36
6.06819e-79
7.3059e-88
5.33295e-76
4.0376e-34
2.82667e-41
60.2274
3.15258e-07
-7.55593e-168
7.97558e-36
1.59902e-23
-1.55134e-27
3.83734e-65
3.17551e-22
5.52761e-28
-2.35302e-35
-3.06679e-125
-3.32045e-224
1.22999e-19
9.53619e-17
8.01163e-53
-2.0043e-29
7.05418e-13
2.92912e-63
1.22726e-50
1.93916e-104
9.28375e-70
1.98412e-14
2.94163e-68
7.83112e-24
8.83342e-38
3.4812e-43
1.24408e-84
1.63868e-71
3.33131e-06
2.47274e-61
3.23178e-65
63.3351
1.51765e-45
7.34509e-65
0.010405
4.46696e-230
4.62053e-60
2.60418e-55
-4.24647e-79
-2.79249e-128
5.98769e-52
3.29489e-237
1.64371e-09
-2.39458e-110
-2.46147e-56
2.12081e-20
1.63534e-31
7.00193e-56
2.72622e-58
1.30822e-20
95.4841
2.23928e-186
-6.80381e-98
9.33531e-64
0.00894055
6.18904e-17
8.71009e-114
3.77746
-1.09425e-223
-2.80607e-112
187.805
-7.82371e-87
5.31994e-111
2.75882e-108
6.35201e-39
-1.86002e-38
-7.61542e-183
-1.03684e-80
2.98862e-24
1.29827e-55
1.86111e-59
1.12627e-76
-9.06518e-158
-2.01095e-37
3.20457e-06
-4.24587e-63
-1.77203e-30
1.08485e-34
7.98168e-44
2.52141e-10
2.80999e-24
1.58378e-75
-6.78956e-111
0.000549159
1.14395e-28
1.26667e-44
6.80214e-104
2.76971e-175
3.24162e-35
1.32839e-10
3.41028e-63
1.10177e-27
6.69176e-62
5.10417e-75
-5.01136e-93
3.95228e-38
152.702
18.9437
6.79289e-37
6.89114e-61
-1.27135e-94
4.67989e-39
0.0125028
-7.73664e-33
4.53872e-115
4.80873e-11
1.04142e-07
9.42491
1.49704e-77
92.1385
1.61927e-181
1.02023e-73
-1.45588e-177
8.84214e-11
1.60638e-43
85.8652
-1.99874e-116
0.0223698
1.18423e-143
-3.93392e-61
1.373e-26
1.33782e-80
9.10651e-12
0.170429
-2.23588e-85
7.59252e-84
2.89405e-59
1.81098e-78
-1.11509e-86
1.39062e-13
8.62637e-46
9.09464e-58
2.79083e-15
-8.49501e-87
2.22069e-170
1.15275e-64
7.09436e-156
2.9115e-26
9.16856e-59
5.57829e-09
9.02753e-11
-1.25137e-40
2.9404e-31
1.03029e-34
1.86276e-60
0.0141283
3.70326e-65
-1.22232e-90
2.96534e-213
6.6578e-11
-5.44863e-34
-1.41803e-117
3.56518e-25
-6.45625e-77
1.93429e-31
-3.45862e-36
-8.96788e-32
9.20282e-36
89.4536
2.47153e-34
-1.3906e-39
0.183313
2.05747e-80
2.82844e-07
9.12272e-23
9.23539e-148
7.63658e-64
3.02926e-91
7.49581e-64
-7.43258e-220
-8.26817e-107
3.77712e-07
5.58178e-11
-1.78246e-107
210.504
2.50117e-28
8.71034e-156
1.08202e-11
4.74795e-12
-1.43298e-157
1.39273e-10
3.06799e-21
5.11119e-11
-5.30216e-154
1.40791e-120
1.03187e-93
-6.41361e-157
-9.71761e-36
31.5907
-6.35905e-120
8.13832e-12
1.41574e-233
2.90455
1.68278e-25
2.98112e-32
-5.12988e-191
-2.10379e-121
8.35666e-73
3.39878e-37
5.19637e-15
4.22357e-32
-4.1593e-88
9.74287e-84
-6.14198e-153
1.21994e-26
5.85308e-37
6.34882e-91
-1.90455e-202
2.88973e-50
2.58743e-32
2.19414e-42
-5.83954e-125
1.02378e-06
1.0901e-27
2.71471e-144
6.12522e-42
1.84859e-83
1.59237e-66
197.902
-4.20376e-88
-1.54015e-153
1.05021e-33
-4.87361e-35
-7.6197e-43
3.14779
-2.13106e-58
3.01547e-67
4.73017e-31
-3.14191e-79
1.14233e-74
6.48618e-66
-1.16361e-78
-9.5265e-29
-1.97561e-70
15.6355
-9.33474e-42
7.06182e-10
5.1716e-73
0.0274775
1.93352e-30
1.32346e-08
2.42383e-13
7.41924e-29
3.07221e-65
3.54278e-71
6.76447e-53
3.76384e-232
4.73884e-69
9.5948e-35
2.46234e-11
-1.78228e-79
1.76471e-145
1.67375e-30
2.30264e-32
7.81357e-16
5.63096e-38
3.40199e-11
1.14419e-15
1.45793e-102
4.09422e-48
0.996631
7.17526e-36
-1.07277e-222
1.87064e-78
1.88806e-82
-7.63972e-226
2.97362e-49
4.01547e-183
1.00987e-67
1.84334e-14
1.39594e-32
4.19517e-06
-2.40118e-179
-7.89278e-122
-2.78004e-209
-1.4798e-80
-7.8958e-96
1.18552e-08
-1.05307e-95
-9.81408e-123
6.68655e-07
2.78223e-33
1.03817e-39
1.75298e-50
5.68692e-17
5.76121e-86
5.90812e-12
7.37644e-72
8.3966e-172
0.00244583
2.03832e-36
5.39311e-20
1.5451e-91
57.8973
-2.07987e-38
6.06391e-42
2.44555e-28
1.00463e-28
58.2474
1.75744e-69
1.69228e-11
-1.11276e-46
3.10436e-43
8.46021e-135
7.70765e-58
1.9345e-07
4.80903e-73
9.83022e-09
-1.40552e-85
-2.28049e-89
1.29796e-12
-3.60088e-137
-2.58704e-115
3.83963e-68
3.64636e-35
5.56301e-11
-1.04409e-86
7.41259e-82
-1.08364e-205
1.03228e-45
0.00286452
1.10887e-38
-1.24152e-81
4.07954e-58
2.2087e-86
4.61576e-118
14.9082
-4.42242e-45
2.40693e-204
6.29338e-47
6.96628e-88
-2.96349e-37
-2.5134e-27
2.5332e-36
-3.84472e-81
3.76903e-14
7.15452e-11
8.49921e-196
2.61696e-55
2.95969e-11
-4.59515e-118
-1.72567e-178
-2.00964e-60
6.38073e-46
1.13053e-74
-6.15232e-177
3.46804e-47
3.17844e-12
1.74273e-157
2.9126e-22
-2.23579e-184
2.30232e-90
6.11569e-53
5.26193e-05
-6.26491e-213
2.11179
-5.53891e-44
1.05488e-20
42.5851
-1.16957e-40
6.12824e-52
0.0361643
-2.25242e-80
1.77092e-05
2.74169e-18
2.34145e-60
3.13928e-70
1.43624e-71
-6.37795e-91
-1.45435e-94
1.52957e-19
0.0336927
199.323
9.58624e-23
-5.76593e-28
0.0660315
6.60274e-25
17.5233
-9.13982e-133
-1.21285e-89
2.36197e-18
2.36428e-39
1.46205e-108
1.46311e-22
9.03331e-72
55.1934
4.64479e-222
-5.8373e-124
-1.85002e-126
208.755
-4.16645e-35
7.54587e-43
-4.47551e-72
1.0526e-18
4.41519e-74
-3.66627e-123
4.5001e-07
2.04128e-70
4.30381e-07
1.05469e-19
5.16229e-60
8.2501e-14
8.40542e-38
-5.13562e-89
4.07133e-119
1.30044e-116
0.24212
3.78444e-13
3.10691e-94
1.82919e-17
1.22093e-39
1.43089e-23
-2.33392e-212
4.89432e-42
2.7596e-07
2.17551e-08
-1.67272e-39
-9.36431e-65
-2.0344e-120
8.54689e-15
-3.17754e-77
-5.71407e-124
6.49762e-10
4.24651e-16
-1.25788e-99
5.83484e-29
2.60848e-34
-5.66137e-210
1.16819e-109
-1.80534e-175
-8.35024e-39
89.5496
3.08749e-11
1.4717e-18
-1.08656e-103
2.16844e-76
8.43301e-36
-1.31685e-207
4.04323e-09
2.18911e-38
105.056
-9.48879e-27
2.31969e-64
2.86849e-100
-5.28853e-132
5.79448e-70
-3.43619e-78
7.60337e-107
15.3281
1.5805e-14
5.94263e-34
1.64729e-16
-4.59697e-41
-5.02186e-117
6.29223e-232
5.83955e-107
3.1108e-25
1.0271
-1.85149e-21
2.19838e-41
-3.18032e-46
-1.46994e-71
5.42232e-15
0.0429283
0.0257961
6.44555e-79
-4.37666e-65
1.05977e-26
-1.02158e-87
-1.21429e-168
-6.93682e-108
2.25306e-13
-5.13369e-97
1.01054e-53
-2.1479e-85
3.31276e-39
5.32297e-08
-4.581e-90
-1.01889e-107
4.69383e-10
1.07481e-13
1.07823e-90
7.65438e-134
-2.37693e-47
0.00389545
1.30267e-24
1.71908e-21
-1.19188e-49
2.08191e-50
0.0898656
5.40036e-75
-1.53895e-21
1.38209e-117
2.24758e-12
2.36448e-11
-6.4065e-156
-6.73609e-129
87.1506
3.01138e-110
5.02349e-69
3.2998e-26
-3.30209e-100
-2.83707e-98
-1.60847e-86
1.0906e-111
-8.93992e-209
1.53519e-14
2.08256e-05
-2.85568e-129
0.0182177
4.00426e-74
-8.46594e-112
2.02394e-12
5.33492e-09
9.93782e-26
3.38752e-78
-8.1515e-107
-6.14142e-43
154.715
-7.49838e-97
-6.76121e-130
-6.88001e-137
7.5085e-97
1.90682e-56
1.09182e-26
-1.53865e-99
-1.19675e-74
2.7518e-119
8.04597
1.15108e-08
1.75813e-34
-1.31888e-37
9.22005e-73
-7.73274e-112
1.19509e-14
1.54137
5.13867e-69
-4.29071e-136
-3.11392e-113
2.20341e-13
-1.09371e-99
4.29174e-119
1.08216e-07
5.53673e-78
-1.30037e-106
116.242
4.41368e-05
19.2328
3.39968e-14
-3.22828e-99
7.10912e-11
2.65474e-10
0.196033
1.1832e-88
1.82784e-25
-4.2084e-210
0.126538
1.7542e-226
6.18597e-90
1.22122e-72
-1.66302e-135
1.38776e-37
2.0407e-89
-8.04763e-98
6.84566e-90
7.97069
6.12039e-14
1.33991e-32
-1.34619e-106
1.03717e-27
24.0798
1.4755e-08
1.6337e-41
-1.62698e-48
2.37943e-90
-1.13327e-79
-9.73422e-130
-2.26066e-101
-7.83711e-128
-4.72998e-109
-9.1198e-42
1.22092e-14
9.02085e-16
0.364351
0.00012364
1.94969e-08
3.53753e-23
0.135257
8.2198e-121
4.91117e-05
-1.64333e-113
0.00179266
7.67356e-09
8.44416e-33
2.46871e-98
1.69712e-32
3.38627e-21
1.15209e-57
109.32
2.39153e-12
0.426555
-1.94338e-110
1.63267e-09
3.97548e-07
1.29494e-09
1.87418e-07
1.45462e-10
-1.15463e-106
-2.40694e-90
1.54285e-34
-2.05419e-102
3.12574e-27
8.64905e-93
7.90846e-36
-1.64254e-157
-3.85294e-84
1.19145e-18
3.18532e-25
-5.78634e-125
-3.00342e-45
1.07018
86.5662
-4.73223e-136
-4.33262e-48
2.50445e-66
1.4998e-10
6.72293e-28
5.23081
5.40241e-05
9.10827e-91
4.06286e-36
2.99944e-07
-1.12959e-23
6.94292e-06
1.21396e-51
1.26068e-11
-5.01933e-125
0.225446
3.90622e-08
-5.02418e-133
1.7762e-07
0.228556
6.81098e-44
4.63855
1.72343e-76
9.9384e-09
2.64266e-73
-3.82408e-140
2.81483e-69
9.2084e-73
0.0976476
0.00227915
0.0463828
-9.84827e-125
7.96548
1.4909e-33
1.7972e-12
-1.20566e-30
1.04622e-37
2.52396e-45
0.0230208
4.15124e-75
7.30926e-84
1.55133e-17
5.18005e-09
1.15974e-26
3.20237e-17
-2.35698e-54
0.0580356
1.59246e-28
2.5209e-27
2.91006e-09
3.9513e-165
1.00064e-07
4.23659e-09
5.76301e-08
5.73264e-71
0.00119095
-2.62143e-131
8.40055e-28
1.56698e-35
0.000111528
1.47578e-67
1.62171e-18
2.09103e-08
88.0863
-1.24632e-100
1.03556e-29
-1.80679e-45
2.3606e-07
2.89034e-17
5.37515e-89
4.95795e-35
-2.13104e-133
12.0607
1.19874e-211
-6.47694e-133
-5.91311e-174
1.54594e-06
-1.41888e-105
4.37025e-35
11.2914
4.26783e-47
2.72819e-55
-7.21783e-101
-1.64132e-166
1.35013e-09
-8.35792e-134
-6.95149e-40
7.33264e-12
-4.49991e-44
3.59116e-06
-2.36376e-84
7.31107e-34
1.92315e-07
1.46138e-17
8.52897e-63
96.5218
1.14423e-214
-6.34305e-162
-7.21672e-80
232.602
6.4722e-72
1.15134e-63
1.0352e-07
-1.61448e-98
-1.24798e-82
8.59469e-13
1.21221e-05
2.68698e-29
0.0108679
-1.11864e-98
2.3363e-79
2.68807e-36
1.64521e-41
0.000122442
-6.58012e-115
1.11592e-59
-5.56828e-52
3.1033e-17
2.5674e-54
-2.55231e-126
5.19467e-37
-1.15015e-18
-9.65711e-193
1.1022e-184
5.36069e-05
6.54503e-29
0.000101723
1.44388e-80
8.90745e-222
-1.69042e-17
1.98337e-06
-1.28069e-116
-1.65001e-95
-2.40965e-131
16.5757
-1.26465e-191
2.51468e-30
9.81625e-05
3.76318e-182
-5.37867e-165
1.08133e-17
-7.35692e-143
2.45642e-185
7.57484e-35
5.4199e-13
7.96095e-129
1.02146e-20
-3.93321e-137
1.36429e-07
1.28622e-223
1.60858e-07
7.48836e-13
1.01726e-18
6.05567e-181
2.47077e-14
5.66349
4.85454e-89
2.04999e-46
9.43933e-144
2.82076e-13
-1.08366e-136
1.18164e-06
5.35824e-09
8.3168e-77
-7.51437e-173
2.15823e-13
1.16832e-13
3.59984e-40
1.51097e-37
4.15313e-16
-1.99891e-141
8.55188e-15
-1.50703e-174
2.16956e-05
1.68159e-08
3.20121e-08
3.25291e-18
-1.34275e-22
13.2485
4.49151e-18
3.09443e-36
2.79526e-14
-3.627e-93
2.34806e-11
5.11767e-16
-4.21685e-42
3.06983e-69
0.110976
4.5832e-187
0.0528357
110.31
1.06939e-101
4.71754e-08
107.295
2.91758e-33
7.95748e-34
1.41318e-15
-8.04547e-51
-1.36666e-131
9.68497e-08
0.0157229
0.856775
-6.30536e-92
2.9447e-13
0.0005605
5.13418e-14
-2.70478e-108
-5.63891e-159
1.83786e-26
0.0257877
1.01708e-08
5.32016e-16
-1.34248e-214
-1.02759e-138
3.16664e-14
-3.77806e-98
8.28378e-39
-3.22566e-94
-1.26644e-169
3.27119e-07
2.53761e-75
0.000255624
1.42961e-39
-1.21006e-151
-6.051e-159
7.35631e-15
-3.79719e-93
1.68103e-32
9.67665e-16
1.02583
-1.37287e-47
-5.07752e-126
3.09327e-06
-1.96625e-91
-1.1927e-134
5.73588e-59
1.54574e-13
-1.61533e-87
1.1007e-13
1.77263e-40
223.004
2.1169e-14
1.77849e-118
0.000123619
-8.02567e-173
7.85419e-09
5.82696e-34
9.03538e-06
0.00555223
-2.91378e-43
0.000191103
-3.78315e-150
1.7334e-08
-8.44621e-114
1.54501e-49
4.67795e-05
1.03327e-25
1.70587e-05
0.0196485
-1.83745e-19
1.96125e-07
2.85342e-06
-2.46383e-124
-1.97449e-136
-2.00199e-171
0.000246426
-3.11674e-24
3.78463e-122
2.37496e-07
2.6408e-05
6.30871e-33
2.48831e-12
1.06275e-47
-7.30909e-33
0.00389956
8.4096e-67
4.0431e-26
8.44658e-31
-2.06894e-209
-7.39493e-209
-2.83958e-123
-7.48966e-92
3.53889e-38
-5.74362e-153
2.3264e-78
-3.24156e-101
-3.33497e-59
1.38785e-14
1.29239e-107
1.83617e-06
4.27497e-225
3.50753e-11
4.88176e-06
-1.08843e-117
6.04291e-05
5.84446e-12
8.85577e-06
1.31691e-53
2.35206e-16
-4.22309e-100
2.94399e-34
3.74996e-43
-1.95357e-160
1.0853e-115
1.12131e-84
-2.6941e-116
-5.24238e-179
-8.39748e-52
-9.24573e-181
-5.81267e-30
1.43365e-21
0.0763101
-1.93247e-154
3.49102e-58
-1.77593e-151
4.1392e-97
4.13863e-21
2.89219e-60
1.13763e-119
119.429
3.50595e-14
3.40591e-29
1.27037e-56
8.77591e-15
4.68277e-23
2.69824e-55
4.31381e-17
3.08397e-13
-1.63152e-100
-1.56974e-176
-9.10715e-77
2.69649e-07
-7.00391e-136
-1.39889e-123
1.36503e-13
-1.28535e-102
-2.63088e-98
2.9709e-65
5.06059e-127
0.00139386
-6.26328e-153
-5.28095e-125
1.69438e-18
2.06106e-17
7.21077
4.44182e-13
-1.58361e-54
-4.55543e-119
6.06919e-16
-1.77706e-120
3.28877e-25
1.74647e-39
1.02554e-102
7.05354e-06
-3.4128e-189
7.96538e-21
-4.20796e-51
1.34732e-14
9.91452e-42
-1.03437e-182
-5.90761e-103
-4.36434e-224
1.29245e-23
-1.82931e-137
1.63853e-18
5.52805e-39
2.84549e-82
-3.57821e-53
2.48751e-35
5.2315e-179
2.06122e-20
1.8536e-20
-7.14593e-93
1.8992e-18
1.65186e-07
-4.41741e-168
1.54556e-35
2.62289e-11
1.64521e-12
3.52527e-70
1.37648e-38
2.04918e-37
4.87179e-41
9.82322e-68
9.81401e-15
1.43207e-67
3.53301e-118
7.02568e-120
0.0851554
2.78952e-08
0.000114238
1.76914e-06
-5.94578e-34
6.17153e-20
3.14479e-39
4.52393e-18
-9.17837e-119
4.02808
-3.44804e-97
3.24523e-06
1.60531e-06
-7.264e-122
-7.47712e-25
1.35398e-08
9.8574e-06
1.65303e-37
4.67544e-25
-3.58918e-120
2.26412e-194
1.05351e-14
-1.95729e-176
-5.10386e-156
6.014e-17
2.86215e-98
-1.08713e-61
-4.67783e-125
1.51444e-77
1.16775e-14
10.8044
-3.92705e-91
-1.35426e-99
2.73858e-08
-1.14551e-36
6.72735e-11
1.58249e-23
3.28524e-25
1.36808e-99
2.00126e-35
5.20014e-15
1.20563e-16
-2.04044e-29
-3.30819e-149
1.9859e-05
3.14067e-29
7.1091e-19
2.71369e-77
1.03087e-123
2.56662e-16
-3.64692e-89
-9.34894e-170
8.49855e-22
2.20517e-08
-2.16046e-154
4.65834e-20
5.17108e-42
2.00178e-106
-5.50777e-70
-1.50561e-105
8.41836e-22
7.85337e-118
3.00939e-125
5.02886e-38
3.48076e-22
-2.21037e-38
-3.5899e-29
10.0503
-4.79404e-102
3.76703e-58
0.509165
8.39883e-31
-7.95415e-107
2.73799e-30
0.01897
-2.00433e-160
-5.73208e-101
-3.19435e-171
1.30906e-24
2.30807e-14
2.55374e-41
-3.98712e-182
-2.41462e-73
3.88801e-58
2.47698e-84
2.30487e-09
-4.56196e-94
-1.17575e-179
-1.48474e-177
1.6511e-26
4.67049e-38
1.7815e-05
-2.77406e-76
-2.11379e-46
2.8963e-25
3.98006e-14
-3.43462e-135
1.93052e-23
-1.86749e-163
-5.28563e-156
-3.83589e-182
1.11017e-09
-1.34644e-101
3.99984e-23
5.89837e-20
5.61363e-25
3.12332e-15
4.71654e-26
2.5142e-13
3.33999e-25
-7.59562e-94
8.3098e-26
-4.0271e-46
2.4841e-32
6.37864e-21
-7.46096e-100
43.2582
1.03975e-16
8.43762e-19
-1.71595e-152
1.65965
9.34481e-15
2.0527e-16
-2.50239e-30
1.03526e-05
2.10799e-59
-2.61009e-98
6.1388e-79
4.1761e-81
2.49158e-76
1.40453e-17
2.69592e-21
-4.90093e-107
1.40406e-23
9.43279e-86
3.72323e-76
1.36685e-46
-2.63369e-44
1.2317e-62
-4.42035e-53
-7.17831e-43
3.0066e-21
3.55074e-25
1.04326e-43
-5.67004e-179
1.47555e-86
4.80941e-93
9.62782e-11
-3.17831e-135
-2.63058e-104
4.42112e-24
2.0633
3.63397e-117
2.92842e-05
-1.5612e-121
-1.04962e-89
5.16887e-35
1.63205e-27
7.60064e-32
-2.41693e-132
1.41787e-17
1.55346e-20
2.3876e-11
-1.72901e-154
4.1492e-22
1.42109e-38
3.57634e-46
-1.16734e-180
-3.12965e-214
1.51191e-26
6.90804e-38
2.08521e-54
57.538
3.02413e-22
9.79499e-31
-1.42591e-24
1.26478e-38
4.41731e-11
-5.94488e-102
7.47897e-42
3.36119e-67
8.20311e-81
0.0134785
1.64903e-20
7.05648e-21
2.17403e-33
-9.59381e-130
1.64229e-16
5.22306e-16
0.000729373
7.69553e-77
1.02852e-30
0.000290352
9.41389e-05
-1.38763e-122
0.000127197
1.60858e-45
24.5287
-4.62868e-168
1.31014e-23
6.97422e-34
1.15479e-187
7.99816e-14
2.63435e-58
3.33446e-73
1.31859e-07
0.00190358
0.000181671
1.20047e-72
2.33267e-25
-3.42764e-167
4.65097e-93
5.43221e-06
1.27208e-29
8.66131e-69
4.5186e-17
8.87078e-22
2.49465e-26
2.63112e-36
2.00097e-34
4.07329e-20
0.00424897
-3.27388e-127
5.13069e-36
2.25967e-41
4.23066e-27
2.414e-07
4.62536e-22
9.76677e-31
8.54539e-58
-3.52949e-171
9.37292e-26
2.20504e-29
1.06659e-19
-3.66028e-133
9.38651e-52
2.32912e-21
4.15142e-23
-1.02509e-23
3.65458e-19
1.63018e-64
5.60126e-28
-6.56909e-103
4.14872e-13
7.61016e-48
3.96739e-25
7.41161e-60
1.71867e-71
1.59243e-21
2.27416e-52
1.02799e-59
5.51855e-72
-3.65699e-130
2.30942e-25
6.34076e-48
3.31049e-49
28.6764
0.0121649
-1.31773e-101
4.31123e-70
2.19824e-34
2.47649e-37
-2.76475e-181
2.32853e-29
-4.90207e-35
2.1735e-29
-2.29705e-168
2.03583e-13
2.16685e-17
1.33365e-15
4.00778e-29
-1.73445e-153
-1.02002e-87
1.16744e-55
1.13561e-27
8.29674e-09
16.4651
-4.29109e-125
9.43035e-64
2.31878e-64
7.26172e-07
0.000652754
0.00042063
7.07258e-49
3.28918e-20
-7.93523e-167
1.23899e-35
-8.82661e-50
-1.04785e-123
1.30321e-21
3.95386e-36
1.39201e-32
5.19837e-19
-4.029e-67
1.16714e-37
3.01593e-30
-2.24796e-155
3.48467e-234
3.07056e-40
-8.84005e-62
2.54948e-08
5.49873e-42
-4.95625e-23
2.77896e-13
-1.69146e-39
-2.5458e-125
-1.03949e-55
6.63765e-18
-1.30361e-129
0.373479
0.0860871
-4.75401e-105
-1.92613e-163
1.43985e-92
-1.86119e-127
-1.50579e-189
-1.70826e-57
2.04517e-59
-1.63892e-31
8.63376e-36
3.20169e-29
-1.5327e-46
4.73587e-05
1.16894e-17
4.01669e-31
1.98908e-35
5.3899e-46
1.17485e-33
-1.59703e-154
-1.45279e-69
3.07448e-60
-3.86492e-31
-1.13979e-25
1.91384e-09
1.33014e-191
-1.9904e-26
5.91007e-35
7.34127e-45
3.00042e-22
4.9443e-39
3.95636e-24
0.00554257
6.33581e-35
5.18755e-18
9.13643e-45
2.57531e-78
4.97278e-38
1.10555e-33
-1.09683e-129
1.39666e-37
0.0379183
-9.63082e-73
0.00029633
-7.85978e-123
3.73588e-33
-1.14928e-83
1.14024e-65
1.57026e-29
-1.41453e-20
3.71333e-21
4.47609e-64
2.24e-39
2.6966e-45
1.02463e-17
1.40649e-10
-5.36741e-44
4.82728e-08
2.42274e-188
1.48149e-36
8.28481
2.19001e-14
5.32229e-64
0.499445
1.09886e-18
5.46521e-61
-1.95327e-142
1.19727e-10
4.66155e-34
1.82625e-46
1.26062e-34
-5.84465e-147
6.29318e-19
9.20776e-72
1.32335e-13
3.31797e-35
2.90251e-30
-7.66139e-30
1.55221e-228
-8.47903e-95
1.3314e-39
4.93795e-77
1.81437e-79
4.15165e-54
3.32695e-71
1.30151e-56
-2.36741e-24
2.24507e-27
-6.61151e-177
5.16237e-15
1.15123e-93
-3.39606e-154
-4.16799e-27
2.32527e-118
1.34935e-44
8.23781e-46
-4.92009e-131
-6.69963e-129
5.45338e-78
5.30395e-22
5.41039e-59
9.76716e-32
1.21043e-33
-3.86044e-26
1.46357e-24
4.99418e-47
3.14374e-40
2.58588e-37
-1.09647e-202
2.51534e-52
1.44178e-68
3.02592e-47
0.373127
2.51299e-24
-1.25844e-66
1.65361e-39
-6.43574e-60
3.56927e-60
1.13566e-65
4.09233e-60
6.52258e-60
-9.17659e-32
1.85621e-35
-1.21836e-155
3.78483e-23
-1.03266e-47
1.95046e-21
-1.01047e-144
-9.80743e-28
5.78495e-05
-4.278e-90
-6.36568e-39
7.21841e-17
-9.04627e-110
5.69701e-26
3.82802e-13
1.4976e-36
1.9222e-36
5.99518e-14
4.88207e-40
-9.03427e-49
1.86913e-39
1.28599e-23
-1.57462e-114
1.72171e-65
3.52625e-195
1.35564e-93
-3.59162e-144
1.49129e-36
3.50692e-35
3.58004e-25
-1.13277e-40
17.7316
-2.50432e-20
38.8925
3.78149e-34
5.87703e-10
13.6123
5.84751e-16
24.5112
7.93704e-64
3.651e-39
4.2552e-43
9.74427e-49
1.63068e-43
-2.12231e-92
1.2243e-43
-1.27271e-85
-3.53234e-146
-5.74702e-50
5.22289
2.68315e-38
2.30269e-20
3.47141e-41
3.94735e-79
9.73409e-36
7.07548e-35
9.07559e-106
1.1652e-40
1.81741e-73
4.15826e-24
-3.06416e-39
1.96678e-40
-3.51016e-41
0.862071
9.40669e-07
1.78561e-19
3.60424e-46
89.7897
8.54246e-40
1.95733e-51
1.07377e-27
-6.68847e-29
-2.07706e-56
3.72638e-16
-1.69579e-127
-3.75151e-36
-3.8724e-27
1.2126e-41
-1.25929e-42
3.72228e-71
1.39115e-36
-2.39814e-33
5.08939e-62
8.4445e-27
9.74866e-45
3.02926e-56
-3.60206e-124
2.39692e-49
1.02296e-36
7.52258e-76
6.25277e-45
5.57265e-56
-1.36599e-95
-8.3475e-33
4.15476e-73
1.10392e-15
1.89566e-45
-1.79884e-61
-2.67708e-131
3.97079e-92
1.09119e-13
2.38655e-36
-3.40809e-194
7.28084e-44
9.91461
6.38487e-21
1.74679e-72
5.50143e-45
0.169217
0.98295
56.0544
4.06417e-78
1.17807e-79
1.97145e-103
1.35284e-55
3.83335e-28
0.0112307
0.0898567
1.07383e-12
7.83954e-17
7.54868e-68
-8.7875e-140
-2.46606e-137
-5.17993e-27
-3.00978e-71
1.87357e-24
7.19152e-81
6.64994e-05
1.69805e-79
3.25007e-40
3.82741e-12
-1.28553e-40
3.5961e-20
3.25787e-108
3.81953e-38
-4.21592e-152
2.21998e-17
4.02072e-17
6.53938e-61
-1.30725e-145
6.23624e-65
1.73093e-24
-1.17689e-94
-1.83986e-43
0.169468
-1.62331e-163
3.29773e-60
-3.13825e-37
-7.65621e-38
4.07856e-46
1.34173e-108
-3.71455e-96
-1.0808e-95
-2.14196e-185
-1.52508e-138
1.81039e-57
1.78072e-24
-4.25212e-153
5.16349e-70
-1.24981e-105
150.042
-6.88544e-28
-2.9436e-94
4.15614e-193
1.69605e-22
6.00223e-40
1.47494e-20
-1.03963e-44
4.48977e-40
-2.33341e-146
6.86359e-92
1.63291e-15
-1.44929e-207
4.44874e-40
5.98111e-28
-9.48383e-50
-1.78911e-133
4.4189e-35
-1.18092e-179
6.48687e-55
2.29e-56
-3.12154e-93
1.22523e-07
9.53356e-52
1.2098e-59
1.67299e-57
1.01232e-37
-4.2762e-48
-7.16535e-157
9.79588e-191
2.51177e-72
1.9744e-27
7.04755e-37
4.59918e-59
5.27929e-57
3.106e-16
-7.5997e-53