/*--------------------------------*- C++ -*----------------------------------*\
  =========                 |
  \\      /  F ield         | OpenFOAM: The Open Source CFD Toolbox
   \\    /   O peration     | Website:  https://openfoam.org
    \\  /    A nd           | Version:  7
     \\/     M anipulation  |
\*---------------------------------------------------------------------------*/
FoamFile
{
    version     2.0;
    format      ascii;
    class       volVectorField;
    location    "8.5";
    object      U;
}
// * * * * * * * * * * * * * * * * * * * * * * * * * * * * * * * * * * * * * //

dimensions      [0 1 -1 0 0 0 0];

internalField   nonuniform List<vector> 
135168
(
(1.4 1.62207e-17 0)
(1.4 -5.29895e-17 0)
(1.4 -1.45396e-16 0)
(1.4 -1.95673e-16 0)
(1.4 -1.61476e-16 0)
(1.4 -1.10514e-16 0)
(1.4 -4.23187e-17 0)
(1.4 -4.89458e-18 0)
(1.4 7.13863e-17 0)
(1.4 1.55222e-16 0)
(1.4 2.25707e-16 0)
(1.4 2.23148e-16 0)
(1.4 2.10843e-16 0)
(1.4 1.04846e-16 0)
(1.4 8.52744e-17 0)
(1.4 1.09374e-16 0)
(1.4 2.03669e-16 0)
(1.4 3.00693e-16 0)
(1.4 2.35808e-16 0)
(1.4 1.93883e-16 0)
(1.4 1.93004e-16 0)
(1.4 5.61136e-17 0)
(1.4 -7.24845e-17 0)
(1.4 -1.21569e-16 0)
(1.4 -1.03427e-16 0)
(1.4 -3.39543e-17 0)
(1.4 1.01268e-16 0)
(1.4 1.47704e-16 0)
(1.4 1.76856e-16 0)
(1.4 2.16321e-16 0)
(1.4 1.88687e-16 0)
(1.4 1.82371e-16 0)
(1.4 7.44694e-17 0)
(1.4 -8.31199e-17 0)
(1.4 -2.73653e-17 0)
(1.4 8.52761e-17 0)
(1.4 1.4142e-16 0)
(1.4 2.63509e-16 0)
(1.4 4.13023e-16 0)
(1.4 6.16719e-16 0)
(1.4 9.22564e-16 0)
(1.4 1.02025e-15 0)
(1.4 1.06974e-15 0)
(1.4 1.22596e-15 0)
(1.4 1.29577e-15 0)
(1.4 1.14936e-15 0)
(1.4 9.4054e-16 0)
(1.4 7.78424e-16 0)
(1.4 6.31013e-16 0)
(1.4 5.42487e-16 0)
(1.4 4.66888e-16 0)
(1.4 4.42913e-16 0)
(1.4 3.96444e-16 0)
(1.4 4.16568e-16 0)
(1.4 5.82114e-16 0)
(1.4 6.85395e-16 0)
(1.4 6.45931e-16 0)
(1.4 2.96997e-16 0)
(1.4 1.67237e-16 0)
(1.4 -5.87727e-17 0)
(1.4 -3.07827e-16 0)
(1.4 -3.98969e-16 0)
(1.4 -4.82285e-16 0)
(1.4 -6.23164e-16 0)
(1.4 -8.31343e-16 0)
(1.4 -1.06367e-15 0)
(1.4 -1.10442e-15 0)
(1.4 -1.02933e-15 0)
(1.4 -1.16821e-15 0)
(1.4 -1.1718e-15 0)
(1.4 -1.09671e-15 0)
(1.4 -1.00472e-15 0)
(1.4 -9.837e-16 0)
(1.4 -9.26616e-16 0)
(1.4 -8.10411e-16 0)
(1.4 -7.26152e-16 0)
(1.4 -7.03799e-16 0)
(1.4 -6.78565e-16 0)
(1.4 -8.91641e-16 0)
(1.4 -1.06326e-15 0)
(1.4 -1.11257e-15 0)
(1.4 -9.93179e-16 0)
(1.4 -9.15553e-16 0)
(1.4 -8.31585e-16 0)
(1.4 -8.03166e-16 0)
(1.4 -8.39066e-16 0)
(1.4 -9.47706e-16 0)
(1.4 -9.66986e-16 0)
(1.4 -9.67984e-16 0)
(1.4 -9.84113e-16 0)
(1.4 -1.13192e-15 0)
(1.4 -1.37678e-15 0)
(1.4 -1.38664e-15 0)
(1.4 -1.36361e-15 0)
(1.4 -1.32122e-15 0)
(1.4 -1.2267e-15 0)
(1.4 -1.10768e-15 0)
(1.4 -9.3059e-16 0)
(1.4 -8.03428e-16 0)
(1.4 -6.91845e-16 0)
(1.4 -8.10585e-16 0)
(1.4 -8.19003e-16 0)
(1.4 -6.68173e-16 0)
(1.4 -4.15263e-16 0)
(1.4 -4.01178e-16 0)
(1.4 -4.19113e-16 0)
(1.4 -4.63489e-16 0)
(1.4 -5.27285e-16 0)
(1.4 -5.87925e-16 0)
(1.4 -4.82953e-16 0)
(1.4 -3.60328e-16 0)
(1.4 -3.04285e-16 0)
(1.4 -2.74526e-16 0)
(1.4 -2.84275e-16 0)
(1.4 -8.39616e-17 0)
(1.4 3.17337e-16 0)
(1.4 5.50851e-16 0)
(1.4 7.19736e-16 0)
(1.4 7.0621e-16 0)
(1.4 6.99868e-16 0)
(1.4 7.38599e-16 0)
(1.4 8.38466e-16 0)
(1.4 1.05028e-15 0)
(1.4 1.26565e-15 0)
(1.4 1.43864e-15 0)
(1.4 1.48254e-15 0)
(1.4 1.3808e-15 0)
(1.4 1.26861e-15 0)
(1.4 1.25032e-15 0)
(1.4 1.14155e-15 0)
(1.4 8.29089e-16 0)
(1.4 4.04811e-16 0)
(1.4 3.86382e-16 0)
(1.4 5.98425e-16 0)
(1.4 8.31979e-16 0)
(1.4 1.14799e-15 0)
(1.4 1.28909e-15 0)
(1.4 1.29094e-15 0)
(1.4 1.25061e-15 0)
(1.4 1.46191e-15 0)
(1.4 1.6215e-15 0)
(1.4 1.77442e-15 0)
(1.4 1.90175e-15 0)
(1.4 2.17022e-15 0)
(1.4 1.96026e-15 0)
(1.4 1.84277e-15 0)
(1.4 1.40071e-15 0)
(1.4 1.41141e-15 0)
(1.4 9.11419e-16 0)
(1.4 7.76911e-16 0)
(1.4 6.83389e-16 0)
(1.4 4.98684e-16 0)
(1.4 3.81433e-16 0)
(1.4 3.97783e-16 0)
(1.4 4.59695e-16 0)
(1.4 5.43733e-16 0)
(1.4 7.93349e-16 0)
(1.4 9.28714e-16 0)
(1.4 9.67041e-16 0)
(1.4 1.21512e-15 0)
(1.4 1.48465e-15 0)
(1.4 1.63687e-15 0)
(1.4 1.6528e-15 0)
(1.4 1.68171e-15 0)
(1.4 1.56423e-15 0)
(1.4 1.31843e-15 0)
(1.4 1.2592e-15 0)
(1.4 1.09199e-15 0)
(1.4 1.00348e-15 0)
(1.4 8.41424e-16 0)
(1.4 5.13863e-16 0)
(1.4 3.44344e-17 0)
(1.4 -1.27032e-16 0)
(1.4 -9.3461e-17 0)
(1.4 9.73777e-17 0)
(1.4 5.80651e-16 0)
(1.4 6.94259e-16 0)
(1.4 7.81349e-16 0)
(1.4 9.42822e-16 0)
(1.4 9.50618e-16 0)
(1.4 1.41235e-15 0)
(1.4 1.48241e-15 0)
(1.4 1.46144e-15 0)
(1.4 1.52081e-15 0)
(1.4 1.6007e-15 0)
(1.4 1.69484e-15 0)
(1.4 1.79313e-15 0)
(1.4 1.78874e-15 0)
(1.4 1.7538e-15 0)
(1.4 1.79217e-15 0)
(1.4 1.84229e-15 0)
(1.4 1.91749e-15 0)
(1.4 1.91957e-15 0)
(1.4 1.94557e-15 0)
(1.4 1.93414e-15 0)
(1.4 2.02728e-15 0)
(1.4 1.77842e-15 0)
(1.4 1.56222e-15 0)
(1.4 1.46415e-15 0)
(1.4 1.33398e-15 0)
(1.4 9.73921e-16 0)
(1.4 9.2592e-16 0)
(1.4 6.22916e-16 0)
(1.4 4.27927e-16 0)
(1.4 2.47901e-16 0)
(1.4 2.30079e-16 0)
(1.4 2.0058e-16 0)
(1.4 1.8897e-16 0)
(1.4 1.99104e-16 0)
(1.4 1.91513e-16 0)
(1.4 1.98662e-16 0)
(1.4 1.54949e-16 0)
(1.4 1.98091e-16 0)
(1.4 3.09755e-16 0)
(1.4 3.65628e-16 0)
(1.4 3.54417e-16 0)
(1.4 5.20225e-16 0)
(1.4 3.66531e-16 0)
(1.4 2.09996e-16 0)
(1.4 -2.64953e-16 0)
(1.4 -3.08169e-16 0)
(1.4 -3.53326e-16 0)
(1.4 -5.30747e-16 0)
(1.4 -6.42082e-16 0)
(1.4 -8.9072e-16 0)
(1.4 -1.06343e-15 0)
(1.4 -9.6629e-16 0)
(1.4 -9.41156e-16 0)
(1.4 -5.54809e-16 0)
(1.4 -5.9341e-16 0)
(1.4 -2.64687e-16 0)
(1.4 -1.00108e-16 0)
(1.4 -3.0325e-16 0)
(1.4 -7.01462e-16 0)
(1.4 -8.7509e-16 0)
(1.4 -9.68287e-16 0)
(1.4 -1.04822e-15 0)
(1.4 -8.6352e-16 0)
(1.4 -5.50887e-16 0)
(1.4 -2.4349e-16 0)
(1.4 6.69038e-17 0)
(1.4 2.17888e-16 0)
(1.4 2.09165e-16 0)
(1.4 2.19102e-16 0)
(1.4 1.88328e-16 0)
(1.4 1.20022e-16 0)
(1.4 2.53422e-16 0)
(1.4 2.26103e-16 0)
(1.4 3.17612e-16 0)
(1.4 3.99044e-16 0)
(1.4 4.14584e-16 0)
(1.4 3.42464e-16 0)
(1.4 1.01576e-16 0)
(1.4 1.43695e-16 0)
(1.4 3.22589e-16 0)
(1.4 3.232e-16 0)
(1.4 2.46473e-16 0)
(1.4 1.60521e-16 0)
(1.4 -1.17501e-16 0)
(1.4 -1.09625e-16 0)
(1.4 -1.56762e-16 0)
(1.4 -1.97661e-16 0)
(1.4 -3.74971e-16 0)
(1.4 -6.92858e-16 0)
(1.4 -1.12601e-15 0)
(1.4 -1.51805e-15 0)
(1.4 -1.65211e-15 0)
(1.4 -1.61585e-15 0)
(1.4 -1.40343e-15 0)
(1.4 -1.37683e-15 0)
(1.4 -1.26722e-15 0)
(1.4 -1.15938e-15 0)
(1.4 -1.12516e-15 0)
(1.4 -1.09313e-15 0)
(1.4 -1.02296e-15 0)
(1.4 -1.4106e-15 0)
(1.4 -1.59572e-15 0)
(1.4 -1.6736e-15 0)
(1.4 -1.67127e-15 0)
(1.4 -1.39462e-15 0)
(1.4 -1.3149e-15 0)
(1.4 -1.31449e-15 0)
(1.4 -1.31402e-15 0)
(1.4 -1.31229e-15 0)
(1.4 -1.30413e-15 0)
(1.4 -1.35192e-15 0)
(1.4 -1.45968e-15 0)
(1.4 -1.66089e-15 0)
(1.4 -1.25496e-15 0)
(1.4 -9.14109e-16 0)
(1.4 -9.17924e-16 0)
(1.4 -9.12987e-16 0)
(1.4 -8.7276e-16 0)
(1.4 -8.34615e-16 0)
(1.4 -8.28741e-16 0)
(1.4 -1.05627e-15 0)
(1.4 -1.31345e-15 0)
(1.4 -1.27126e-15 0)
(1.4 -1.2672e-15 0)
(1.4 -1.28026e-15 0)
(1.4 -1.0088e-15 0)
(1.4 -7.72603e-16 0)
(1.4 -8.40623e-16 0)
(1.4 -1.33651e-15 0)
(1.4 -2.03488e-15 0)
(1.4 -2.19493e-15 0)
(1.4 -2.20307e-15 0)
(1.4 -2.16642e-15 0)
(1.4 -1.99403e-15 0)
(1.4 -1.99627e-15 0)
(1.4 -1.56464e-15 0)
(1.4 -9.33579e-16 0)
(1.4 -8.15726e-16 0)
(1.4 -6.63285e-16 0)
(1.4 -7.40844e-16 0)
(1.4 -9.03024e-16 0)
(1.4 -6.7303e-16 0)
(1.4 -6.06154e-16 0)
(1.4 -5.11444e-16 0)
(1.4 -4.19321e-16 0)
(1.4 -2.83628e-16 0)
(1.4 -1.18876e-16 0)
(1.4 1.52495e-16 0)
(1.4 2.91897e-16 0)
(1.4 5.4628e-16 0)
(1.4 8.2113e-16 0)
(1.4 7.92672e-16 0)
(1.4 8.46812e-16 0)
(1.4 8.55735e-16 0)
(1.4 7.26402e-16 0)
(1.4 6.89974e-16 0)
(1.4 5.80365e-16 0)
(1.4 5.49596e-16 0)
(1.4 5.24773e-16 0)
(1.4 4.2936e-16 0)
(1.4 3.20112e-16 0)
(1.4 2.26734e-16 0)
(1.4 6.42511e-17 0)
(1.4 1.88164e-16 0)
(1.4 1.88251e-16 0)
(1.4 9.96164e-17 0)
(1.4 1.37701e-16 0)
(1.4 1.35559e-16 0)
(1.4 8.4459e-17 0)
(1.4 8.66374e-17 0)
(1.4 2.0789e-16 0)
(1.4 2.97658e-16 0)
(1.4 1.7917e-16 0)
(1.4 5.48932e-18 0)
(1.4 1.22908e-17 0)
(1.4 7.03629e-17 0)
(1.4 2.63555e-17 0)
(1.4 5.59669e-17 0)
(1.4 6.31164e-17 0)
(1.4 3.09187e-16 0)
(1.4 6.21051e-16 0)
(1.4 6.64568e-16 0)
(1.4 7.76068e-16 0)
(1.4 8.81783e-16 0)
(1.4 8.80914e-16 0)
(1.4 8.3719e-16 0)
(1.4 1.00985e-15 0)
(1.4 1.03949e-15 0)
(1.4 9.99301e-16 0)
(1.4 9.87929e-16 0)
(1.4 1.059e-15 0)
(1.4 8.29123e-16 0)
(1.4 6.85993e-16 0)
(1.4 6.79003e-16 0)
(1.4 1.98644e-16 0)
(1.4 2.05228e-16 0)
(1.4 3.77107e-16 0)
(1.4 6.89933e-16 0)
(1.4 1.01059e-15 0)
(1.4 9.93576e-16 0)
(1.4 9.26173e-16 0)
(1.4 9.68648e-16 0)
(1.4 1.09331e-15 0)
(1.4 1.37307e-15 0)
(1.4 1.44256e-15 0)
(1.4 1.14282e-15 0)
(1.4 9.70978e-16 0)
(1.4 9.11475e-16 0)
(1.4 -1.53674e-11 0)
(1.4 2.30593e-18 0)
(1.4 -3.37903e-17 0)
(1.4 6.2297e-17 0)
(1.4 9.85663e-17 0)
(1.4 8.61883e-17 0)
(1.4 1.53713e-16 0)
(1.4 3.5676e-16 0)
(1.4 5.58267e-16 0)
(1.4 6.28546e-16 0)
(1.4 7.1909e-16 0)
(1.4 8.42237e-16 0)
(1.4 9.08396e-16 0)
(1.4 8.68412e-16 0)
(1.4 6.83009e-16 0)
(1.4 3.41246e-16 0)
(1.4 1.02918e-16 0)
(1.4 2.33014e-16 0)
(1.4 4.31961e-16 0)
(1.4 4.57183e-16 0)
(1.4 4.87229e-16 0)
(1.4 4.6735e-16 0)
(1.4 4.3771e-16 0)
(1.4 3.42038e-16 0)
(1.4 3.79899e-16 0)
(1.4 4.59602e-16 0)
(1.4 5.37541e-16 0)
(1.4 4.41596e-16 0)
(1.4 3.26824e-16 0)
(1.4 2.84455e-16 0)
(1.4 2.61001e-16 0)
(1.4 -1.0084e-16 0)
(1.4 -2.74461e-16 0)
(1.4 -2.56095e-16 0)
(1.4 -2.43761e-16 0)
(1.4 -1.42626e-16 0)
(1.4 -7.82329e-17 0)
(1.4 -3.15547e-17 0)
(1.4 2.08406e-16 0)
(1.4 3.93357e-16 0)
(1.4 6.07974e-16 0)
(1.4 7.28362e-16 0)
(1.4 7.87462e-16 0)
(1.4 9.32227e-16 0)
(1.4 9.72078e-16 0)
(1.4 7.52318e-16 0)
(1.4 6.69332e-16 0)
(1.4 4.5358e-16 0)
(1.4 -7.08324e-17 0)
(1.4 -3.64541e-16 0)
(1.4 -7.1964e-16 0)
(1.4 -1.06239e-15 0)
(1.4 -1.14713e-15 0)
(1.4 -8.5353e-16 0)
(1.4 -6.09144e-16 0)
(1.4 -5.74556e-16 0)
(1.4 -6.89009e-16 0)
(1.4 -1.11384e-15 0)
(1.4 -1.37924e-15 0)
(1.4 -1.54361e-15 0)
(1.4 -1.80579e-15 0)
(1.4 -1.73775e-15 0)
(1.4 -1.78042e-15 0)
(1.4 -1.85774e-15 0)
(1.4 -1.97672e-15 0)
(1.4 -2.18219e-15 0)
(1.4 -2.6655e-15 0)
(1.4 -2.86401e-15 0)
(1.4 -2.8917e-15 0)
(1.4 -3.03935e-15 0)
(1.4 -2.91053e-15 0)
(1.4 -2.87946e-15 0)
(1.4 -2.88832e-15 0)
(1.4 -2.89925e-15 0)
(1.4 -2.69289e-15 0)
(1.4 -2.61206e-15 0)
(1.4 -2.25864e-15 0)
(1.4 -2.28641e-15 0)
(1.4 -2.45627e-15 0)
(1.4 -2.69302e-15 0)
(1.4 -2.76811e-15 0)
(1.4 -2.82705e-15 0)
(1.4 -2.83089e-15 0)
(1.4 -2.93415e-15 0)
(1.4 -2.52998e-15 0)
(1.4 -2.45038e-15 0)
(1.4 -2.48403e-15 0)
(1.4 -2.33296e-15 0)
(1.4 -1.90901e-15 0)
(1.4 -1.61545e-15 0)
(1.4 -1.14802e-15 0)
(1.4 -1.13513e-15 0)
(1.4 -1.11794e-15 0)
(1.4 -1.4255e-15 0)
(1.4 -1.57057e-15 0)
(1.4 -1.57063e-15 0)
(1.4 -1.63347e-15 0)
(1.4 -1.63869e-15 0)
(1.4 -1.55294e-15 0)
(1.4 -1.47351e-15 0)
(1.4 -1.32866e-15 0)
(1.4 -1.3152e-15 0)
(1.4 -1.2859e-15 0)
(1.4 -1.35698e-15 0)
(1.4 -1.44727e-15 0)
(1.4 -1.4289e-15 0)
(1.4 -1.61515e-15 0)
(1.4 -1.68917e-15 0)
(1.4 -1.67153e-15 0)
(1.4 -1.81042e-15 0)
(1.4 -1.68492e-15 0)
(1.4 -1.44753e-15 0)
(1.4 -1.47453e-15 0)
(1.4 -1.19027e-15 0)
(1.4 -1.05566e-15 0)
(1.4 -7.82193e-16 0)
(1.4 -4.15379e-16 0)
(1.4 1.04397e-16 0)
(1.4 2.95543e-16 0)
(1.4 3.17123e-17 0)
(1.4 -1.14467e-16 0)
(1.4 -9.21565e-17 0)
(1.4 4.30201e-16 0)
(1.4 7.11355e-16 0)
(1.4 6.64626e-16 0)
(1.4 6.80758e-16 0)
(1.4 8.34622e-16 0)
(1.4 4.75475e-16 0)
(1.4 1.72508e-16 0)
(1.4 1.38782e-16 0)
(1.4 8.21709e-17 0)
(1.4 2.08802e-16 0)
(1.4 4.47073e-16 0)
(1.4 3.78499e-16 0)
(1.4 4.52174e-16 0)
(1.4 7.46563e-16 0)
(1.4 1.49548e-15 0)
(1.4 2.22593e-15 0)
(1.4 2.19556e-15 0)
(1.4 2.12606e-15 0)
(1.4 2.22613e-15 0)
(1.4 2.27237e-15 0)
(1.4 2.3762e-15 0)
(1.4 2.39049e-15 0)
(1.4 2.58221e-15 0)
(1.4 2.18905e-15 0)
(1.4 1.9472e-15 0)
(1.4 1.55573e-15 0)
(1.4 1.44299e-15 0)
(1.4 1.28559e-15 0)
(1.4 1.10492e-15 0)
(1.4 9.56095e-16 0)
(1.4 6.78892e-16 0)
(1.4 5.38772e-16 0)
(1.4 5.60652e-16 0)
(1.4 7.92544e-16 0)
(1.4 8.6893e-16 0)
(1.4 9.55053e-16 0)
(1.4 9.50652e-16 0)
(1.4 1.06366e-15 0)
(1.4 1.29943e-15 0)
(1.4 1.70251e-15 0)
(1.4 1.87873e-15 0)
(1.4 1.78819e-15 0)
(1.4 1.63203e-15 0)
(1.4 1.44603e-15 0)
(1.4 1.31317e-15 0)
(1.4 1.27524e-15 0)
(1.4 1.07588e-15 0)
(1.4 1.02876e-15 0)
(1.4 1.04039e-15 0)
(1.4 9.43524e-16 0)
(1.4 6.03082e-16 0)
(1.4 6.20588e-16 0)
(1.4 7.38596e-16 0)
(1.4 1.07243e-15 0)
(1.4 1.75432e-15 0)
(1.4 2.10853e-15 0)
(1.4 2.13887e-15 0)
(1.4 2.27421e-15 0)
(1.4 2.11338e-15 0)
(1.4 2.17298e-15 0)
(1.4 1.95557e-15 0)
(1.4 1.86378e-15 0)
(1.4 1.83363e-15 0)
(1.4 1.87338e-15 0)
(1.4 2.03829e-15 0)
(1.4 2.25188e-15 0)
(1.4 2.50479e-15 0)
(1.4 2.52975e-15 0)
(1.4 2.36351e-15 0)
(1.4 2.26543e-15 0)
(1.4 2.30625e-15 0)
(1.4 2.29633e-15 0)
(1.4 1.89789e-15 0)
(1.4 1.63934e-15 0)
(1.4 1.549e-15 0)
(1.4 1.56842e-15 0)
(1.4 1.64195e-15 0)
(1.4 1.65385e-15 0)
(1.4 1.48557e-15 0)
(1.4 1.28444e-15 0)
(1.4 1.13828e-15 0)
(1.4 8.69111e-16 0)
(1.4 4.63884e-16 0)
(1.4 1.91565e-17 0)
(1.4 -6.10431e-16 0)
(1.4 -7.58306e-16 0)
(1.4 -1.2129e-15 0)
(1.4 -1.29282e-15 0)
(1.4 -1.21536e-15 0)
(1.4 -1.34659e-15 0)
(1.4 -1.31665e-15 0)
(1.4 -1.14916e-15 0)
(1.4 -1.16797e-15 0)
(1.4 -1.24806e-15 0)
(1.4 -1.56668e-15 0)
(1.4 -1.7778e-15 0)
(1.4 -1.92615e-15 0)
(1.4 -2.24904e-15 0)
(1.4 -2.61451e-15 0)
(1.4 -2.48855e-15 0)
(1.4 -2.1098e-15 0)
(1.4 -2.0023e-15 0)
(1.4 -1.79859e-15 0)
(1.4 -1.55842e-15 0)
(1.4 -1.47277e-15 0)
(1.4 -1.28394e-15 0)
(1.4 -1.06002e-15 0)
(1.4 -8.15022e-16 0)
(1.4 -7.41377e-16 0)
(1.4 -6.11263e-16 0)
(1.4 1.17438e-17 0)
(1.4 3.85933e-16 0)
(1.4 2.97679e-16 0)
(1.4 1.09172e-16 0)
(1.4 -8.09889e-17 0)
(1.4 -2.65172e-16 0)
(1.4 -3.85577e-16 0)
(1.4 -1.60436e-16 0)
(1.4 -2.22567e-16 0)
(1.4 -3.14782e-16 0)
(1.4 -4.4838e-16 0)
(1.4 -7.55372e-16 0)
(1.4 -9.43862e-16 0)
(1.4 -1.1533e-15 0)
(1.4 -7.42412e-16 0)
(1.4 -5.99005e-16 0)
(1.4 -5.75586e-16 0)
(1.4 -3.94644e-16 0)
(1.4 -1.56796e-16 0)
(1.4 -5.69676e-17 0)
(1.4 -1.52666e-16 0)
(1.4 -2.24755e-16 0)
(1.4 -3.35921e-16 0)
(1.4 -2.62608e-16 0)
(1.4 -1.16564e-15 0)
(1.4 -1.49563e-15 0)
(1.4 -1.56051e-15 0)
(1.4 -1.96264e-15 0)
(1.4 -2.21594e-15 0)
(1.4 -2.0017e-15 0)
(1.4 -1.9192e-15 0)
(1.4 -1.8402e-15 0)
(1.4 -2.22033e-15 0)
(1.4 -2.45784e-15 0)
(1.4 -2.77229e-15 0)
(1.4 -3.15499e-15 0)
(1.4 -3.17469e-15 0)
(1.4 -2.68724e-15 0)
(1.4 -2.3708e-15 0)
(1.4 -2.09747e-15 0)
(1.4 -1.68155e-15 0)
(1.4 -1.17774e-15 0)
(1.4 -1.25255e-15 0)
(1.4 -2.054e-15 0)
(1.4 -2.5488e-15 0)
(1.4 -2.89857e-15 0)
(1.4 -3.15288e-15 0)
(1.4 -3.16514e-15 0)
(1.4 -3.05964e-15 0)
(1.4 -2.91702e-15 0)
(1.4 -2.79213e-15 0)
(1.4 -2.65155e-15 0)
(1.4 -2.57206e-15 0)
(1.4 -2.72095e-15 0)
(1.4 -3.05303e-15 0)
(1.4 -3.26908e-15 0)
(1.4 -3.41499e-15 0)
(1.4 -3.23751e-15 0)
(1.4 -3.28642e-15 0)
(1.4 -3.38476e-15 0)
(1.4 -3.15877e-15 0)
(1.4 -2.60347e-15 0)
(1.4 -2.59048e-15 0)
(1.4 -2.53209e-15 0)
(1.4 -2.56557e-15 0)
(1.4 -2.67111e-15 0)
(1.4 -2.85793e-15 0)
(1.4 -2.90756e-15 0)
(1.4 -3.07607e-15 0)
(1.4 -2.72461e-15 0)
(1.4 -2.3957e-15 0)
(1.4 -2.11915e-15 0)
(1.4 -2.3981e-15 0)
(1.4 -2.58898e-15 0)
(1.4 -2.68704e-15 0)
(1.4 -2.48902e-15 0)
(1.4 -2.32871e-15 0)
(1.4 -2.28197e-15 0)
(1.4 -2.28956e-15 0)
(1.4 -1.87311e-15 0)
(1.4 -1.48941e-15 0)
(1.4 -1.28274e-15 0)
(1.4 -1.23167e-15 0)
(1.4 -1.05998e-15 0)
(1.4 -7.62145e-16 0)
(1.4 -3.07645e-16 0)
(1.4 -2.13838e-16 0)
(1.4 -9.67397e-17 0)
(1.4 -7.07851e-17 0)
(1.4 3.4465e-16 0)
(1.4 1.14592e-15 0)
(1.4 1.45878e-15 0)
(1.4 1.65898e-15 0)
(1.4 2.31566e-15 0)
(1.4 2.74517e-15 0)
(1.4 2.74355e-15 0)
(1.4 2.75352e-15 0)
(1.4 2.69345e-15 0)
(1.4 2.29722e-15 0)
(1.4 2.00238e-15 0)
(1.4 1.72902e-15 0)
(1.4 1.63668e-15 0)
(1.4 1.41734e-15 0)
(1.4 1.04381e-15 0)
(1.4 7.97333e-16 0)
(1.4 -5.21843e-17 0)
(1.4 -5.27573e-16 0)
(1.4 -4.48483e-16 0)
(1.4 -3.19629e-16 0)
(1.4 -2.7783e-16 0)
(1.4 -1.77635e-16 0)
(1.4 -1.79193e-16 0)
(1.4 -3.5428e-16 0)
(1.4 -3.9112e-16 0)
(1.4 -2.4748e-16 0)
(1.4 -9.73384e-17 0)
(1.4 -3.61005e-16 0)
(1.4 -7.18467e-16 0)
(1.4 -6.01043e-16 0)
(1.4 -6.68061e-16 0)
(1.4 -6.90374e-16 0)
(1.4 -3.82959e-16 0)
(1.4 -3.97596e-16 0)
(1.4 -3.36197e-17 0)
(1.4 4.12626e-16 0)
(1.4 5.51897e-16 0)
(1.4 6.39194e-16 0)
(1.4 8.92e-16 0)
(1.4 1.21771e-15 0)
(1.4 1.45933e-15 0)
(1.4 1.63066e-15 0)
(1.4 2.06918e-15 0)
(1.4 2.28343e-15 0)
(1.4 2.49671e-15 0)
(1.4 2.67589e-15 0)
(1.4 2.54508e-15 0)
(1.4 2.26128e-15 0)
(1.4 2.26909e-15 0)
(1.4 1.89303e-15 0)
(1.4 1.85269e-15 0)
(1.4 1.89954e-15 0)
(1.4 2.03873e-15 0)
(1.4 2.02497e-15 0)
(1.4 1.94519e-15 0)
(1.4 1.829e-15 0)
(1.4 1.92495e-15 0)
(1.4 2.01118e-15 0)
(1.4 2.29309e-15 0)
(1.4 2.20655e-15 0)
(1.4 2.0807e-15 0)
(1.4 2.18075e-15 0)
(1.4 2.51887e-15 0)
(1.4 -6.93096e-11 0)
(1.4 2.5439e-17 0)
(1.4 9.81543e-17 0)
(1.4 2.09716e-16 0)
(1.4 2.77248e-16 0)
(1.4 2.86678e-16 0)
(1.4 3.33587e-16 0)
(1.4 2.65946e-16 0)
(1.4 2.19723e-16 0)
(1.4 2.8239e-16 0)
(1.4 2.68506e-16 0)
(1.4 2.22597e-16 0)
(1.4 2.18089e-16 0)
(1.4 2.69997e-16 0)
(1.4 2.82804e-16 0)
(1.4 -7.33959e-17 0)
(1.4 -1.78233e-16 0)
(1.4 -1.17339e-16 0)
(1.4 -2.66708e-17 0)
(1.4 -2.94553e-17 0)
(1.4 1.90042e-16 0)
(1.4 3.18587e-16 0)
(1.4 6.13996e-16 0)
(1.4 1.00361e-15 0)
(1.4 1.1967e-15 0)
(1.4 1.19393e-15 0)
(1.4 1.14889e-15 0)
(1.4 1.12282e-15 0)
(1.4 1.06884e-15 0)
(1.4 8.607e-16 0)
(1.4 5.97675e-16 0)
(1.4 5.02918e-16 0)
(1.4 4.67937e-16 0)
(1.4 5.23962e-16 0)
(1.4 5.57042e-16 0)
(1.4 5.01663e-16 0)
(1.4 4.49783e-16 0)
(1.4 5.53176e-16 0)
(1.4 6.13318e-16 0)
(1.4 5.07021e-16 0)
(1.4 4.97499e-16 0)
(1.4 4.94144e-16 0)
(1.4 5.01277e-16 0)
(1.4 4.47554e-16 0)
(1.4 7.05267e-17 0)
(1.4 -6.21401e-16 0)
(1.4 -1.25943e-15 0)
(1.4 -1.74432e-15 0)
(1.4 -1.98099e-15 0)
(1.4 -2.10394e-15 0)
(1.4 -1.8212e-15 0)
(1.4 -1.6913e-15 0)
(1.4 -1.85911e-15 0)
(1.4 -1.94843e-15 0)
(1.4 -2.20041e-15 0)
(1.4 -2.21865e-15 0)
(1.4 -1.95728e-15 0)
(1.4 -1.77835e-15 0)
(1.4 -1.65084e-15 0)
(1.4 -1.59043e-15 0)
(1.4 -1.28212e-15 0)
(1.4 -1.14329e-15 0)
(1.4 -1.79347e-15 0)
(1.4 -2.28259e-15 0)
(1.4 -2.59411e-15 0)
(1.4 -3.02315e-15 0)
(1.4 -3.27531e-15 0)
(1.4 -4.08543e-15 0)
(1.4 -4.59072e-15 0)
(1.4 -4.44154e-15 0)
(1.4 -4.28347e-15 0)
(1.4 -4.14633e-15 0)
(1.4 -4.02605e-15 0)
(1.4 -3.82421e-15 0)
(1.4 -3.69178e-15 0)
(1.4 -3.80571e-15 0)
(1.4 -3.6651e-15 0)
(1.4 -3.53342e-15 0)
(1.4 -3.25936e-15 0)
(1.4 -3.31002e-15 0)
(1.4 -3.42302e-15 0)
(1.4 -3.68255e-15 0)
(1.4 -4.03364e-15 0)
(1.4 -3.67712e-15 0)
(1.4 -3.41467e-15 0)
(1.4 -3.07452e-15 0)
(1.4 -2.92139e-15 0)
(1.4 -2.56531e-15 0)
(1.4 -1.8184e-15 0)
(1.4 -1.16357e-15 0)
(1.4 -9.12165e-16 0)
(1.4 -5.00237e-16 0)
(1.4 -3.61751e-16 0)
(1.4 -4.16141e-16 0)
(1.4 -3.86797e-16 0)
(1.4 -4.98632e-16 0)
(1.4 -5.28953e-16 0)
(1.4 -6.81452e-16 0)
(1.4 -6.5722e-16 0)
(1.4 -6.33905e-16 0)
(1.4 -7.72843e-16 0)
(1.4 -1.29291e-15 0)
(1.4 -1.68013e-15 0)
(1.4 -1.88744e-15 0)
(1.4 -2.22682e-15 0)
(1.4 -2.26837e-15 0)
(1.4 -2.29671e-15 0)
(1.4 -2.32624e-15 0)
(1.4 -2.29531e-15 0)
(1.4 -2.38531e-15 0)
(1.4 -2.4998e-15 0)
(1.4 -2.4989e-15 0)
(1.4 -2.33337e-15 0)
(1.4 -2.14642e-15 0)
(1.4 -1.71788e-15 0)
(1.4 -1.40611e-15 0)
(1.4 -1.09546e-15 0)
(1.4 -6.77239e-16 0)
(1.4 -2.69844e-16 0)
(1.4 2.39721e-16 0)
(1.4 2.98436e-16 0)
(1.4 3.45715e-16 0)
(1.4 3.61272e-16 0)
(1.4 -3.87595e-16 0)
(1.4 -5.76958e-16 0)
(1.4 -1.17935e-15 0)
(1.4 -1.68182e-15 0)
(1.4 -1.80309e-15 0)
(1.4 -2.06475e-15 0)
(1.4 -2.06574e-15 0)
(1.4 -1.94873e-15 0)
(1.4 -1.52362e-15 0)
(1.4 -1.19427e-15 0)
(1.4 -9.20215e-16 0)
(1.4 -3.57273e-16 0)
(1.4 -9.95244e-17 0)
(1.4 2.21627e-16 0)
(1.4 3.34223e-16 0)
(1.4 5.0334e-16 0)
(1.4 1.29083e-15 0)
(1.4 1.65292e-15 0)
(1.4 1.70373e-15 0)
(1.4 1.79704e-15 0)
(1.4 1.8633e-15 0)
(1.4 1.96049e-15 0)
(1.4 1.85504e-15 0)
(1.4 1.53255e-15 0)
(1.4 1.2646e-15 0)
(1.4 1.12122e-15 0)
(1.4 1.13949e-15 0)
(1.4 1.28554e-15 0)
(1.4 1.27354e-15 0)
(1.4 1.09393e-15 0)
(1.4 1.07022e-15 0)
(1.4 9.89745e-16 0)
(1.4 1.25299e-15 0)
(1.4 1.45174e-15 0)
(1.4 1.4569e-15 0)
(1.4 1.57302e-15 0)
(1.4 1.68248e-15 0)
(1.4 1.8245e-15 0)
(1.4 1.79989e-15 0)
(1.4 1.87313e-15 0)
(1.4 2.02457e-15 0)
(1.4 2.09875e-15 0)
(1.4 2.06506e-15 0)
(1.4 2.06124e-15 0)
(1.4 2.15673e-15 0)
(1.4 2.40842e-15 0)
(1.4 2.93519e-15 0)
(1.4 3.5715e-15 0)
(1.4 3.84244e-15 0)
(1.4 4.23034e-15 0)
(1.4 4.23468e-15 0)
(1.4 3.74425e-15 0)
(1.4 3.59471e-15 0)
(1.4 3.08963e-15 0)
(1.4 2.81154e-15 0)
(1.4 2.64866e-15 0)
(1.4 2.47969e-15 0)
(1.4 2.21281e-15 0)
(1.4 1.91255e-15 0)
(1.4 1.75739e-15 0)
(1.4 1.68516e-15 0)
(1.4 1.72026e-15 0)
(1.4 1.99372e-15 0)
(1.4 2.21008e-15 0)
(1.4 2.34106e-15 0)
(1.4 2.35652e-15 0)
(1.4 2.42534e-15 0)
(1.4 2.54944e-15 0)
(1.4 2.56279e-15 0)
(1.4 2.32512e-15 0)
(1.4 2.19038e-15 0)
(1.4 2.5541e-15 0)
(1.4 2.81795e-15 0)
(1.4 3.2559e-15 0)
(1.4 3.31642e-15 0)
(1.4 3.23331e-15 0)
(1.4 3.31165e-15 0)
(1.4 3.51897e-15 0)
(1.4 3.57745e-15 0)
(1.4 3.61054e-15 0)
(1.4 3.63986e-15 0)
(1.4 3.46153e-15 0)
(1.4 3.23063e-15 0)
(1.4 2.58514e-15 0)
(1.4 2.15706e-15 0)
(1.4 1.44786e-15 0)
(1.4 4.50824e-16 0)
(1.4 -5.34569e-17 0)
(1.4 -1.32984e-15 0)
(1.4 -1.67811e-15 0)
(1.4 -1.50062e-15 0)
(1.4 -1.32181e-15 0)
(1.4 -1.08629e-15 0)
(1.4 -1.05401e-15 0)
(1.4 -1.48342e-15 0)
(1.4 -1.62038e-15 0)
(1.4 -1.75401e-15 0)
(1.4 -1.62798e-15 0)
(1.4 -1.44801e-15 0)
(1.4 -1.21185e-15 0)
(1.4 -1.19697e-15 0)
(1.4 -1.30428e-15 0)
(1.4 -1.09519e-15 0)
(1.4 -7.22928e-16 0)
(1.4 -5.02561e-17 0)
(1.4 4.40065e-16 0)
(1.4 7.79726e-16 0)
(1.4 1.233e-15 0)
(1.4 1.2498e-15 0)
(1.4 1.27933e-15 0)
(1.4 1.75403e-15 0)
(1.4 2.11624e-15 0)
(1.4 2.0775e-15 0)
(1.4 1.9682e-15 0)
(1.4 1.95273e-15 0)
(1.4 1.91268e-15 0)
(1.4 1.68266e-15 0)
(1.4 8.78609e-16 0)
(1.4 3.43091e-16 0)
(1.4 3.64238e-17 0)
(1.4 -1.71276e-16 0)
(1.4 -4.35142e-16 0)
(1.4 -5.40068e-16 0)
(1.4 -8.96068e-16 0)
(1.4 -1.21789e-15 0)
(1.4 -1.26439e-15 0)
(1.4 -1.30466e-15 0)
(1.4 -1.5181e-15 0)
(1.4 -1.42654e-15 0)
(1.4 -1.18882e-15 0)
(1.4 -9.2543e-16 0)
(1.4 -1.17353e-15 0)
(1.4 -1.3611e-15 0)
(1.4 -1.22836e-15 0)
(1.4 -1.46566e-15 0)
(1.4 -1.74705e-15 0)
(1.4 -1.79003e-15 0)
(1.4 -1.86729e-15 0)
(1.4 -2.03574e-15 0)
(1.4 -1.82941e-15 0)
(1.4 -1.5859e-15 0)
(1.4 -1.57285e-15 0)
(1.4 -1.47526e-15 0)
(1.4 -1.45352e-15 0)
(1.4 -1.59047e-15 0)
(1.4 -1.83303e-15 0)
(1.4 -1.92152e-15 0)
(1.4 -1.83676e-15 0)
(1.4 -1.87733e-15 0)
(1.4 -1.81789e-15 0)
(1.4 -1.84185e-15 0)
(1.4 -1.77503e-15 0)
(1.4 -1.83532e-15 0)
(1.4 -1.80194e-15 0)
(1.4 -1.8074e-15 0)
(1.4 -1.84917e-15 0)
(1.4 -1.94876e-15 0)
(1.4 -2.18707e-15 0)
(1.4 -2.37026e-15 0)
(1.4 -2.37283e-15 0)
(1.4 -2.38021e-15 0)
(1.4 -2.39653e-15 0)
(1.4 -2.68576e-15 0)
(1.4 -2.5939e-15 0)
(1.4 -3.00814e-15 0)
(1.4 -3.36542e-15 0)
(1.4 -3.79426e-15 0)
(1.4 -4.32531e-15 0)
(1.4 -4.57572e-15 0)
(1.4 -4.46668e-15 0)
(1.4 -3.84982e-15 0)
(1.4 -3.51323e-15 0)
(1.4 -3.02609e-15 0)
(1.4 -2.90026e-15 0)
(1.4 -2.94611e-15 0)
(1.4 -2.9994e-15 0)
(1.4 -3.05849e-15 0)
(1.4 -3.06424e-15 0)
(1.4 -3.0562e-15 0)
(1.4 -2.85682e-15 0)
(1.4 -2.46199e-15 0)
(1.4 -2.12417e-15 0)
(1.4 -1.81984e-15 0)
(1.4 -1.67325e-15 0)
(1.4 -1.84015e-15 0)
(1.4 -2.11516e-15 0)
(1.4 -2.17144e-15 0)
(1.4 -2.46238e-15 0)
(1.4 -2.85552e-15 0)
(1.4 -3.056e-15 0)
(1.4 -3.13752e-15 0)
(1.4 -3.16936e-15 0)
(1.4 -3.05965e-15 0)
(1.4 -2.94276e-15 0)
(1.4 -3.11104e-15 0)
(1.4 -3.04729e-15 0)
(1.4 -2.23758e-15 0)
(1.4 -1.75833e-15 0)
(1.4 -1.21365e-15 0)
(1.4 1.00224e-16 0)
(1.4 1.01492e-15 0)
(1.4 1.20025e-15 0)
(1.4 1.46302e-15 0)
(1.4 1.95596e-15 0)
(1.4 2.2115e-15 0)
(1.4 2.29749e-15 0)
(1.4 2.47486e-15 0)
(1.4 2.61931e-15 0)
(1.4 2.67913e-15 0)
(1.4 2.44778e-15 0)
(1.4 2.24817e-15 0)
(1.4 1.74987e-15 0)
(1.4 1.28147e-15 0)
(1.4 9.80198e-16 0)
(1.4 5.91722e-16 0)
(1.4 1.47126e-16 0)
(1.4 -8.53835e-16 0)
(1.4 -8.65717e-16 0)
(1.4 -9.55257e-16 0)
(1.4 -1.11992e-15 0)
(1.4 -1.22703e-15 0)
(1.4 -1.27282e-15 0)
(1.4 -1.49715e-15 0)
(1.4 -1.46154e-15 0)
(1.4 -1.28466e-15 0)
(1.4 -9.47754e-16 0)
(1.4 -4.90705e-16 0)
(1.4 -3.8881e-16 0)
(1.4 -4.22295e-16 0)
(1.4 -1.46287e-16 0)
(1.4 3.0414e-16 0)
(1.4 5.74161e-16 0)
(1.4 4.89737e-16 0)
(1.4 5.74029e-16 0)
(1.4 7.26701e-16 0)
(1.4 1.15136e-15 0)
(1.4 1.43923e-15 0)
(1.4 1.80868e-15 0)
(1.4 2.15182e-15 0)
(1.4 2.20278e-15 0)
(1.4 2.29471e-15 0)
(1.4 2.53336e-15 0)
(1.4 2.68021e-15 0)
(1.4 2.89069e-15 0)
(1.4 3.48327e-15 0)
(1.4 3.63438e-15 0)
(1.4 3.67742e-15 0)
(1.4 3.41335e-15 0)
(1.4 3.15502e-15 0)
(1.4 2.98344e-15 0)
(1.4 2.82812e-15 0)
(1.4 2.80461e-15 0)
(1.4 2.65835e-15 0)
(1.4 1.96699e-15 0)
(1.4 1.92311e-15 0)
(1.4 1.93671e-15 0)
(1.4 2.03527e-15 0)
(1.4 2.36079e-15 0)
(1.4 2.80165e-15 0)
(1.4 3.16901e-15 0)
(1.4 3.60816e-15 0)
(1.4 -2.45269e-11 0)
(1.4 -3.95515e-17 0)
(1.4 -1.76601e-16 0)
(1.4 -3.00507e-16 0)
(1.4 -3.79848e-16 0)
(1.4 -4.09743e-16 0)
(1.4 -4.79174e-16 0)
(1.4 -5.08736e-16 0)
(1.4 -5.42478e-16 0)
(1.4 -5.58521e-16 0)
(1.4 -5.37081e-16 0)
(1.4 -5.10797e-16 0)
(1.4 -5.19978e-16 0)
(1.4 -4.99348e-16 0)
(1.4 -4.08961e-16 0)
(1.4 -2.41371e-16 0)
(1.4 -1.6336e-16 0)
(1.4 -3.53434e-17 0)
(1.4 7.37663e-17 0)
(1.4 1.30653e-16 0)
(1.4 5.41962e-16 0)
(1.4 7.39515e-16 0)
(1.4 8.54171e-16 0)
(1.4 1.16851e-15 0)
(1.4 1.33757e-15 0)
(1.4 1.57471e-15 0)
(1.4 1.66511e-15 0)
(1.4 1.67052e-15 0)
(1.4 1.81704e-15 0)
(1.4 1.88319e-15 0)
(1.4 1.88851e-15 0)
(1.4 2.083e-15 0)
(1.4 2.08974e-15 0)
(1.4 2.07491e-15 0)
(1.4 2.03393e-15 0)
(1.4 1.91035e-15 0)
(1.4 1.82993e-15 0)
(1.4 1.54721e-15 0)
(1.4 1.41726e-15 0)
(1.4 1.39459e-15 0)
(1.4 1.70816e-15 0)
(1.4 1.88065e-15 0)
(1.4 2.09502e-15 0)
(1.4 1.90088e-15 0)
(1.4 1.4129e-15 0)
(1.4 9.48835e-16 0)
(1.4 4.27854e-16 0)
(1.4 2.1066e-16 0)
(1.4 1.08453e-17 0)
(1.4 1.72923e-16 0)
(1.4 4.22742e-16 0)
(1.4 5.70832e-16 0)
(1.4 8.67509e-16 0)
(1.4 7.47161e-16 0)
(1.4 6.53185e-16 0)
(1.4 4.37501e-16 0)
(1.4 2.54851e-16 0)
(1.4 -1.20797e-16 0)
(1.4 -2.71649e-18 0)
(1.4 1.20862e-16 0)
(1.4 1.62048e-16 0)
(1.4 1.90901e-16 0)
(1.4 2.91857e-16 0)
(1.4 2.12885e-16 0)
(1.4 -2.05735e-16 0)
(1.4 -9.00093e-16 0)
(1.4 -1.20144e-15 0)
(1.4 -1.512e-15 0)
(1.4 -2.10299e-15 0)
(1.4 -2.5598e-15 0)
(1.4 -2.85047e-15 0)
(1.4 -3.31086e-15 0)
(1.4 -3.38304e-15 0)
(1.4 -3.74666e-15 0)
(1.4 -3.72615e-15 0)
(1.4 -3.27088e-15 0)
(1.4 -3.07085e-15 0)
(1.4 -2.41921e-15 0)
(1.4 -2.20648e-15 0)
(1.4 -2.22365e-15 0)
(1.4 -2.34315e-15 0)
(1.4 -2.4108e-15 0)
(1.4 -2.44471e-15 0)
(1.4 -2.15797e-15 0)
(1.4 -1.91176e-15 0)
(1.4 -1.5437e-15 0)
(1.4 -1.03155e-15 0)
(1.4 -8.39887e-16 0)
(1.4 -1.05444e-15 0)
(1.4 -9.04107e-16 0)
(1.4 -9.80941e-16 0)
(1.4 -9.82217e-16 0)
(1.4 -8.59601e-16 0)
(1.4 -6.62114e-16 0)
(1.4 -4.50812e-16 0)
(1.4 -2.23635e-16 0)
(1.4 -1.29305e-16 0)
(1.4 -2.10258e-16 0)
(1.4 -3.33137e-16 0)
(1.4 -6.39998e-16 0)
(1.4 -7.75852e-16 0)
(1.4 -1.02469e-15 0)
(1.4 -1.34226e-15 0)
(1.4 -1.68403e-15 0)
(1.4 -1.99407e-15 0)
(1.4 -2.26285e-15 0)
(1.4 -2.32143e-15 0)
(1.4 -2.46526e-15 0)
(1.4 -2.73135e-15 0)
(1.4 -2.77635e-15 0)
(1.4 -2.85159e-15 0)
(1.4 -2.99023e-15 0)
(1.4 -2.89942e-15 0)
(1.4 -2.79967e-15 0)
(1.4 -2.67828e-15 0)
(1.4 -1.97419e-15 0)
(1.4 -1.6998e-15 0)
(1.4 -1.47571e-15 0)
(1.4 -1.24955e-15 0)
(1.4 -1.04517e-15 0)
(1.4 -8.10518e-16 0)
(1.4 -8.40972e-16 0)
(1.4 -8.8271e-16 0)
(1.4 -1.05178e-15 0)
(1.4 -1.23753e-15 0)
(1.4 -1.93117e-15 0)
(1.4 -2.07793e-15 0)
(1.4 -2.2424e-15 0)
(1.4 -2.61525e-15 0)
(1.4 -2.87744e-15 0)
(1.4 -2.87661e-15 0)
(1.4 -2.6782e-15 0)
(1.4 -2.36188e-15 0)
(1.4 -1.81364e-15 0)
(1.4 -1.38624e-15 0)
(1.4 -8.31782e-16 0)
(1.4 -6.47851e-18 0)
(1.4 1.42888e-16 0)
(1.4 4.26819e-16 0)
(1.4 4.48868e-16 0)
(1.4 2.2676e-16 0)
(1.4 1.92386e-16 0)
(1.4 1.4392e-16 0)
(1.4 2.82675e-16 0)
(1.4 2.88082e-16 0)
(1.4 3.42061e-16 0)
(1.4 3.0479e-16 0)
(1.4 1.97004e-16 0)
(1.4 8.69528e-17 0)
(1.4 3.37432e-17 0)
(1.4 1.25704e-16 0)
(1.4 2.14269e-16 0)
(1.4 5.7514e-16 0)
(1.4 6.74655e-16 0)
(1.4 9.98491e-16 0)
(1.4 1.11469e-15 0)
(1.4 1.09635e-15 0)
(1.4 1.04667e-15 0)
(1.4 1.18586e-15 0)
(1.4 1.54805e-15 0)
(1.4 1.82269e-15 0)
(1.4 1.89258e-15 0)
(1.4 1.72341e-15 0)
(1.4 2.09557e-15 0)
(1.4 2.68231e-15 0)
(1.4 3.20376e-15 0)
(1.4 3.62095e-15 0)
(1.4 3.71999e-15 0)
(1.4 3.66364e-15 0)
(1.4 3.56669e-15 0)
(1.4 3.0407e-15 0)
(1.4 2.97968e-15 0)
(1.4 2.82832e-15 0)
(1.4 2.4615e-15 0)
(1.4 2.34037e-15 0)
(1.4 1.91352e-15 0)
(1.4 1.95625e-15 0)
(1.4 1.40476e-15 0)
(1.4 9.19218e-16 0)
(1.4 8.69784e-16 0)
(1.4 1.07062e-16 0)
(1.4 -3.09046e-17 0)
(1.4 1.05085e-16 0)
(1.4 1.05708e-16 0)
(1.4 2.3993e-16 0)
(1.4 3.76779e-16 0)
(1.4 5.8688e-16 0)
(1.4 6.22919e-16 0)
(1.4 5.25334e-16 0)
(1.4 5.10746e-16 0)
(1.4 5.07052e-16 0)
(1.4 8.93498e-16 0)
(1.4 1.09813e-15 0)
(1.4 1.22406e-15 0)
(1.4 1.33713e-15 0)
(1.4 1.6752e-15 0)
(1.4 1.90678e-15 0)
(1.4 1.99232e-15 0)
(1.4 2.20146e-15 0)
(1.4 2.5007e-15 0)
(1.4 2.64026e-15 0)
(1.4 2.84756e-15 0)
(1.4 3.14773e-15 0)
(1.4 3.36915e-15 0)
(1.4 3.40922e-15 0)
(1.4 2.99102e-15 0)
(1.4 2.60996e-15 0)
(1.4 2.03895e-15 0)
(1.4 1.22878e-15 0)
(1.4 5.55797e-16 0)
(1.4 3.84822e-16 0)
(1.4 1.02989e-16 0)
(1.4 -3.48418e-19 0)
(1.4 -2.12128e-16 0)
(1.4 -2.88762e-16 0)
(1.4 -4.31859e-16 0)
(1.4 -5.60297e-16 0)
(1.4 -5.09554e-16 0)
(1.4 -4.92462e-16 0)
(1.4 -5.82344e-16 0)
(1.4 -2.98612e-16 0)
(1.4 -2.76877e-16 0)
(1.4 -5.26632e-16 0)
(1.4 -6.6612e-16 0)
(1.4 -7.16506e-16 0)
(1.4 -6.09422e-16 0)
(1.4 -4.57298e-16 0)
(1.4 8.60295e-16 0)
(1.4 1.64698e-15 0)
(1.4 1.87697e-15 0)
(1.4 2.0504e-15 0)
(1.4 2.11323e-15 0)
(1.4 2.13204e-15 0)
(1.4 2.18453e-15 0)
(1.4 2.23348e-15 0)
(1.4 2.35762e-15 0)
(1.4 2.54744e-15 0)
(1.4 2.79927e-15 0)
(1.4 2.90822e-15 0)
(1.4 2.85606e-15 0)
(1.4 2.64335e-15 0)
(1.4 2.25481e-15 0)
(1.4 1.65891e-15 0)
(1.4 1.32091e-15 0)
(1.4 1.12628e-15 0)
(1.4 8.13975e-16 0)
(1.4 3.10019e-16 0)
(1.4 -1.75898e-16 0)
(1.4 -4.23946e-16 0)
(1.4 -7.68305e-16 0)
(1.4 -9.2857e-16 0)
(1.4 -1.10551e-15 0)
(1.4 -7.73122e-16 0)
(1.4 -7.23311e-16 0)
(1.4 -6.3937e-16 0)
(1.4 -5.63791e-16 0)
(1.4 -4.5568e-16 0)
(1.4 -7.19522e-16 0)
(1.4 -6.43943e-16 0)
(1.4 -6.99341e-16 0)
(1.4 -6.24042e-16 0)
(1.4 -6.15646e-16 0)
(1.4 -7.0354e-16 0)
(1.4 -7.3454e-16 0)
(1.4 -7.61878e-16 0)
(1.4 -6.77127e-16 0)
(1.4 -4.67996e-16 0)
(1.4 -3.80975e-16 0)
(1.4 -3.83222e-16 0)
(1.4 -6.19099e-16 0)
(1.4 -7.91852e-16 0)
(1.4 -1.06511e-15 0)
(1.4 -1.06557e-15 0)
(1.4 -9.34087e-16 0)
(1.4 -8.93543e-16 0)
(1.4 -3.93968e-16 0)
(1.4 -2.14717e-16 0)
(1.4 6.63414e-17 0)
(1.4 1.63814e-16 0)
(1.4 1.00559e-16 0)
(1.4 9.7604e-17 0)
(1.4 -2.40219e-17 0)
(1.4 -4.04454e-16 0)
(1.4 -6.90138e-16 0)
(1.4 -1.07121e-15 0)
(1.4 -1.24237e-15 0)