/*--------------------------------*- C++ -*----------------------------------*\
  =========                 |
  \\      /  F ield         | OpenFOAM: The Open Source CFD Toolbox
   \\    /   O peration     | Website:  https://openfoam.org
    \\  /    A nd           | Version:  7
     \\/     M anipulation  |
\*---------------------------------------------------------------------------*/
FoamFile
{
    version     2.0;
    format      ascii;
    class       volVectorField;
    location    "1.488";
    object      U;
}
// * * * * * * * * * * * * * * * * * * * * * * * * * * * * * * * * * * * * * //

dimensions      [0 1 -1 0 0 0 0];

internalField   nonuniform List<vector> 
12359
(
(0.982849 0.000131818 -2.14384e-17)
(0.970864 -0.000412731 -9.31474e-17)
(0.999961 -9.53427e-06 -1.8819e-17)
(0.93845 -0.000287493 -3.36959e-17)
(0.978106 -0.00129404 -3.83719e-17)
(0.888151 -0.00128715 1.14016e-16)
(0.85415 -0.000438351 1.29604e-17)
(0.872727 -0.000916321 6.39133e-17)
(0.810015 0.0106741 -1.516e-17)
(0.901338 -0.000403595 1.64355e-16)
(0.832829 0.00923277 -1.19846e-17)
(0.750983 0.0287865 -5.06334e-17)
(0.362846 0.0180785 -3.31715e-16)
(0.931332 0.000296045 -7.60165e-17)
(0.944759 -0.000847218 -5.68291e-18)
(0.563307 0.0283933 -8.87538e-18)
(0.48096 0.0265687 -1.04811e-16)
(0.994805 6.36398e-05 -6.03077e-17)
(0.995259 9.87757e-05 -9.48666e-18)
(0.959253 -0.000447633 -1.11779e-16)
(0.923047 -0.000159071 4.326e-17)
(0.780552 0.0209791 2.12771e-17)
(0.966752 -0.00080107 1.78393e-17)
(0.954395 0.000729509 1.00084e-16)
(0.969847 -2.47617e-06 -3.56714e-17)
(0.962359 -0.000607766 3.17385e-17)
(0.998639 -0.000122272 -2.51931e-17)
(0.998814 -0.000116189 -7.01081e-19)
(0.996145 -2.19602e-05 -2.05974e-17)
(0.998138 -4.54119e-05 4.01515e-18)
(0.997613 -0.000123431 -5.45012e-17)
(0.999388 2.8881e-05 -2.49939e-17)
(0.999764 -2.19096e-05 1.47012e-17)
(0.998443 -3.08501e-05 5.59101e-18)
(0.999914 6.22211e-07 -1.62719e-17)
(0.997445 -7.60051e-05 9.48426e-18)
(0.98887 -0.000487508 3.99455e-17)
(0.984056 0.000113345 1.04501e-16)
(0.98064 -0.00108231 -4.26655e-18)
(0.986321 -0.000338311 9.89719e-17)
(0.972601 -0.0011284 3.01563e-18)
(0.985119 -3.42452e-05 4.84704e-17)
(0.991384 -0.000328852 -4.21068e-17)
(0.992329 -0.000219672 3.2641e-17)
(0.996855 -0.000115722 -7.3559e-18)
(0.996552 -7.36524e-05 5.09018e-17)
(0.997187 -0.00015693 1.56403e-17)
(0.997815 -9.95045e-05 -2.8861e-17)
(0.99569 5.74907e-05 2.05457e-17)
(0.998556 -7.04627e-05 -1.23688e-17)
(0.998976 -6.16597e-05 7.17092e-18)
(0.999109 -5.86777e-05 -5.35614e-17)
(0.999435 -3.11993e-05 -1.22035e-17)
(0.994157 1.44746e-05 9.29143e-18)
(0.999584 2.16205e-05 -1.17614e-17)
(0.999731 -8.79638e-06 -1.07876e-18)
(0.993068 -6.29346e-05 -3.35108e-17)
(0.999795 -2.8971e-05 2.13207e-17)
(0.999801 -3.25138e-05 -1.17377e-17)
(0.999883 2.11674e-05 7.40158e-19)
(0.999692 -1.38156e-05 -1.07143e-17)
(0.999922 2.6154e-05 3.34442e-17)
(0.999058 -7.50742e-05 -3.89208e-17)
(0.230513 0.0765711 -1.26512e-15)
(0.993549 3.82378e-05 -5.25777e-17)
(0.913212 -0.000494255 1.42214e-16)
(0.989874 -0.000165741 1.09084e-16)
(0.999221 -1.34517e-05 3.97125e-18)
(0.98778 -0.000599081 6.5316e-17)
(0.636953 0.0329818 1.7239e-17)
(0.0782295 0.0564572 6.64416e-16)
(0.975038 -0.00169619 -5.03907e-17)
(0.99996 -1.63208e-05 2.92721e-17)
(0.986995 -0.000573439 1.00085e-16)
(0.950011 -0.00112844 6.14895e-17)
(0.999883 9.45614e-06 -9.83179e-18)
(0.999418 -3.96011e-05 -1.66501e-18)
(0.99992 -8.5797e-06 -1.26376e-17)
(0.989574 -0.000422819 -5.91072e-17)
(0.700219 0.0023956 -1.05674e-17)
(0.921074 0.0604299 -1.32178e-16)
(1.00377 0.00292931 9.71849e-19)
(1.00004 -1.22999e-05 2.80491e-18)
(0.998019 0.0128717 1.37738e-17)
(1.09365 0.150951 -3.32818e-18)
(1.02271 0.000587439 8.44683e-18)
(1.0039 0.00265587 -9.62743e-19)
(1.00151 -7.98775e-05 6.88253e-18)
(1.10987 0.0793057 1.12743e-18)
(1.08403 0.160215 1.12102e-17)
(0.999934 0.000216245 3.41214e-17)
(0.242939 0.191978 -4.99701e-16)
(1 -1.50894e-05 -7.55029e-18)
(0.999524 0.0064722 -2.66193e-18)
(0.999342 0.0111675 3.38055e-18)
(1.04012 0.00431712 -3.02654e-18)
(1.00013 0.00538411 1.74282e-18)
(0.999319 0.00638901 -5.55931e-18)
(0.990267 0.0301727 -9.83619e-18)
(0.993824 0.0191773 2.62455e-17)
(0.937578 0.0780424 2.42723e-17)
(1 2.57161e-05 -1.97333e-18)
(1.02246 0.0014325 2.22856e-18)
(1.27159 0.104654 -1.10083e-17)
(1.00483 0.00122851 -4.71557e-19)
(1.03414 0.0242941 4.27377e-18)
(1.00034 0.000196628 -5.25239e-19)
(1.08902 0.153679 -2.17653e-18)
(1.02067 -0.00121378 -1.66412e-18)
(1.03377 0.0229223 5.85106e-18)
(1.00005 0.00507182 -7.47786e-19)
(1.00367 0.00287387 -5.72775e-18)
(0.940226 0.0475668 6.50465e-17)
(0.956403 0.0752418 -1.32293e-17)
(0.999032 0.0112122 -9.08222e-18)
(1.00366 0.000307933 1.6529e-19)
(0.951923 0.0789635 -5.10295e-17)
(1.00466 0.00260316 -5.25406e-18)
(1.1259 0.0661487 -1.10282e-17)
(1 1.18015e-05 -2.52968e-20)
(1.00002 0.00520726 6.40277e-18)
(0.854281 0.0255515 8.90675e-17)
(1.00166 0.000209696 8.82358e-19)
(1.04066 0.00781591 2.36571e-18)
(1.00516 0.00227905 1.04268e-18)
(1.00343 0.0012987 4.92288e-18)
(1.00701 0.0950264 -1.28326e-17)
(0.998136 0.0131243 -9.10948e-18)
(0.999986 6.59131e-06 -4.81131e-18)
(1.00505 0.00219382 1.25383e-17)
(1.0026 -0.000424434 -5.28477e-18)
(1.0514 0.0230157 -2.14856e-18)
(1.05329 0.022418 1.04308e-17)
(1.05184 0.0211727 5.73401e-18)
(1.00026 0.000112322 -1.86794e-18)
(1.03992 0.00831888 2.15097e-18)
(1.0029 0.000977563 8.77268e-18)
(1.03916 0.00869431 -1.09118e-18)
(1 9.43804e-05 -4.76924e-17)
(1.00678 0.0932678 1.4759e-17)
(1 2.13229e-05 -3.06907e-19)
(0.982008 0.00198356 -7.39381e-17)
(1.03209 0.0149565 -1.01199e-18)
(1.00027 0.000145117 -1.45704e-18)
(1.03925 0.0430241 6.09022e-18)
(0.896378 0.0273324 3.51415e-17)
(1.00002 7.05444e-06 3.04334e-18)
(1.08607 0.127977 3.84447e-18)
(1.00492 0.00123497 -5.55188e-18)
(0.921041 0.0617296 4.20512e-17)
(1.04255 0.00502957 6.86343e-19)
(0.999995 2.36479e-05 1.32238e-17)
(1.03235 0.015475 -5.47669e-18)
(1.00179 6.19442e-05 -2.15533e-18)
(1.00001 -3.3428e-06 3.02444e-18)
(0.564819 1.30649 -7.88683e-17)
(0.934859 0.0876679 -2.18845e-17)
(1.05072 0.0233569 1.76862e-19)
(1.00011 0.00557973 -4.3196e-18)
(0.999278 0.000415778 8.96078e-18)
(1.00233 0.0456584 -2.98365e-18)
(0.999241 0.000619862 8.66199e-19)
(1.04217 0.00720817 7.62712e-19)
(1.03483 0.0129072 -3.1606e-18)
(1.00004 7.64077e-05 5.54579e-20)
(1.0034 0.000416867 4.23008e-18)
(1.00093 0.0457795 1.16751e-19)
(0.872187 0.0153485 4.04084e-17)
(1.03349 0.0124564 -7.81687e-18)
(1.11894 0.0765903 6.00229e-18)
(0.999979 1.33034e-05 -4.2641e-17)
(0.999987 6.82019e-05 3.5263e-17)
(1.03452 0.0100965 -1.64708e-18)
(0.971069 0.00239356 -2.56424e-17)
(1.0049 0.00109027 4.50252e-18)
(1.0034 0.0921367 -1.1289e-18)
(0.99676 0.000517594 -1.26443e-16)
(0.99681 0.000874045 -5.52393e-17)
(0.935689 0.051355 4.69127e-17)
(1.00308 0.0889259 -6.11453e-19)
(0.932103 0.00670204 2.02444e-16)
(1.00001 2.5474e-05 -1.63676e-18)
(0.999991 2.22071e-05 1.73902e-17)
(1.0041 0.00289322 3.59397e-18)
(0.991249 0.0285029 -1.02174e-17)
(0.864344 0.106978 1.85516e-16)
(1.00437 0.0058271 8.58037e-18)
(1.00011 0.010911 -1.48498e-17)
(1.03901 0.00238024 -2.49149e-20)
(1.00473 0.00601657 -9.41534e-18)
(0.999791 0.0103428 -1.59704e-17)
(1.03895 0.00403846 -3.15883e-18)
(1.03643 0.000999142 -6.96881e-19)
(1.00194 9.11004e-05 2.59051e-18)
(1.03513 0.0217795 -3.53699e-18)
(1.07769 0.0981053 -7.50449e-18)
(1.01515 0.0131579 5.71699e-18)
(1.0035 0.00625727 3.23006e-18)
(1.03178 0.0167554 -8.82631e-18)
(1.00461 0.00255198 5.18891e-18)
(0.888102 0.0293 1.25346e-16)
(1.04272 0.00133396 -4.92193e-19)
(0.992874 0.0191354 1.64229e-18)
(1.0344 0.021796 -3.41853e-18)
(1.03592 0.0399023 1.15613e-18)
(1.00001 3.01237e-05 4.05388e-18)
(1.03694 0.0395775 8.05353e-19)
(0.992205 0.0183821 5.22256e-18)
(1.04378 0.00885172 2.02893e-18)
(1.00577 0.00408853 -4.79592e-18)
(1.00001 2.90922e-05 -1.70205e-19)
(1.04691 0.0186851 -1.36495e-19)
(1.04707 0.0190794 1.08136e-18)
(1.03367 0.116467 -5.38794e-17)
(0.828664 0.0870413 1.6071e-17)
(0.999966 2.14149e-05 -6.53597e-19)
(1.00395 0.00607564 4.84402e-18)
(0.998992 0.0108477 1.17575e-17)
(1.00426 0.00621411 -1.34958e-18)
(0.980577 0.00122805 -1.22819e-16)
(0.94511 0.0624284 1.85045e-17)
(1.00544 0.00389245 6.79201e-18)
(1.03986 0.00808155 -4.18653e-18)
(0.467672 0.372464 -4.9365e-17)
(1.00512 0.00296568 9.28012e-18)
(1.00001 3.66561e-05 -1.24617e-19)
(0.981575 0.000846363 2.54367e-18)
(1.01766 6.47423e-05 -4.96507e-18)
(1.00014 0.0885726 4.80082e-18)
(1.00279 0.00678617 2.03889e-18)
(1.003 0.00650746 -3.59244e-18)
(1.00003 -2.62764e-05 -9.60312e-19)
(1.03844 0.0425279 3.78157e-19)
(0.992714 0.0242221 1.02711e-17)
(1.00058 0.0107906 -3.92187e-18)
(0.99345 0.0217118 -4.52254e-18)
(1.00001 2.34948e-05 -1.35821e-18)
(1.03283 0.0173422 -5.56265e-18)
(1.00048 0.0107558 -5.68771e-18)
(0.637751 0.256655 -2.41185e-17)
(1.00008 4.32797e-05 -4.2585e-19)
(1.0243 0.0019482 -2.13643e-18)
(1.00028 0.00800919 -4.76973e-18)
(0.982785 0.163733 -1.1005e-17)
(1.00284 0.0505123 -1.03779e-17)
(1.08472 0.129678 -9.8521e-18)
(0.999863 5.53545e-05 -1.42173e-18)
(1.04309 0.00831292 5.29702e-18)
(1.00425 0.00139051 5.49497e-19)
(1.03509 0.00324976 -2.10082e-18)
(1.04509 0.0154959 7.0269e-18)
(0.985161 0.000244634 -1.72717e-17)
(0.99709 0.000708278 1.63866e-17)
(1.00252 0.00648113 2.88893e-18)
(0.488316 0.435627 4.46353e-17)
(1.21601 0.130095 -2.65154e-17)
(0.99999 -6.71469e-07 2.49678e-18)
(1.00579 0.00313788 -2.72459e-18)
(0.34742 0.296331 1.77452e-16)
(0.395304 0.0317484 2.25323e-17)
(0.993237 0.0192125 -8.2305e-18)
(1.0019 0.0487529 -9.54369e-18)
(1.00085 0.0820584 1.03121e-17)
(1.03511 0.0206052 -7.27391e-19)
(0.973389 0.000832239 6.72454e-17)
(1.33024 0.356986 -1.20833e-17)
(1.11548 0.0669653 -1.28572e-17)
(1.0032 0.0509804 3.21385e-18)
(1.00552 0.00284923 -8.52228e-18)
(1.03921 0.00896292 -1.47123e-18)
(1.03438 0.0116637 -3.45266e-18)
(0.987347 0.0273704 1.5141e-17)
(1.03346 0.0139536 -6.51122e-18)
(1.00239 0.00679747 1.45151e-18)
(1.00573 0.00344255 -1.2727e-20)
(1 1.9918e-06 -3.14029e-19)
(1.00559 0.00319572 6.33098e-18)
(1.14844 0.11357 1.23916e-17)
(1.00463 0.0523919 -9.82984e-18)
(1.00038 0.00015644 -4.13896e-19)
(1 5.68673e-05 6.63348e-18)
(1.03579 0.020457 -4.73008e-19)
(1.00767 0.00192032 1.90078e-18)
(0.991216 0.000591233 -2.54131e-17)
(1.02424 0.000436105 -1.11407e-18)
(1.00002 3.03051e-05 -2.49449e-18)
(0.998696 0.0788221 -9.21124e-18)
(1 9.22706e-06 -6.45051e-21)
(0.999998 -1.97633e-05 2.69354e-18)
(0.999415 0.000114891 -5.44615e-17)
(1.04115 0.00711096 3.12774e-19)
(1.00414 0.00235088 8.39507e-18)
(1.41175 0.431159 -1.00309e-17)
(1.00035 0.00011137 -2.15881e-19)
(1.00017 -0.000261502 2.40857e-18)
(1.02226 0.00171821 4.95523e-18)
(1.00447 -0.000810279 -3.3854e-18)
(0.943826 0.0683617 -9.35145e-18)
(0.99933 0.00989946 -3.80614e-18)
(0.999058 0.00024691 -1.47748e-17)
(0.999948 6.46822e-05 -8.51524e-18)
(1.13968 0.103535 2.54291e-17)
(1.00149 0.0806526 1.42424e-17)
(0.999954 5.89993e-05 -1.00154e-17)
(1.0038 0.00613585 7.22267e-18)
(0.999631 0.00904183 -4.34811e-18)
(1.0043 0.00257321 1.52814e-17)
(1.00284 0.000521181 -2.02506e-18)
(1.00299 -0.000544859 -7.38414e-18)
(1.00434 0.00107357 3.64698e-18)
(0.995519 0.00168375 1.48555e-17)
(0.831725 0.0641018 8.00225e-18)
(1.00466 -0.00184027 -1.81074e-17)
(0.997943 3.0761e-05 6.29711e-17)
(0.985764 0.00104958 4.868e-17)
(1.02539 0.0285931 -1.67193e-18)
(1.10324 0.0578132 -7.81254e-18)
(1.00561 0.000730774 2.77838e-18)
(0.989678 0.0258414 5.92295e-19)
(0.575457 0.0743545 1.19895e-17)
(0.99999 5.83669e-06 2.77926e-18)
(1.0281 0.0135449 1.1913e-19)
(1.00035 0.000634061 -3.53992e-18)
(1.01488 0.01368 2.03677e-18)
(1.00021 -7.57672e-05 3.70161e-18)
(1.00587 0.00300489 1.03013e-17)
(0.770459 0.0336566 1.91409e-16)
(1.02888 0.0157808 -3.81073e-18)
(0.828301 0.0893306 -1.38667e-16)
(0.99102 0.000420041 -4.76604e-17)
(1.00058 0.00847177 -1.11304e-18)
(1.03693 -0.000787825 -4.19916e-18)
(1.04036 0.0024227 -4.63271e-18)
(1.00067 0.00802922 -3.00731e-18)
(1.0393 0.00158248 -2.86594e-18)
(1.03709 0.000325194 -2.33925e-18)
(1.00066 8.08024e-05 -6.00298e-19)
(0.999563 0.000507522 -3.90556e-18)
(0.999564 0.000407995 4.91469e-18)
(0.999531 0.000475358 -2.41719e-17)
(0.999521 0.000363536 -1.89611e-17)
(0.695085 0.281575 2.19594e-17)
(1.00003 5.00801e-05 6.31565e-19)
(0.938798 0.0794201 2.23216e-18)
(1.04431 0.00562132 2.27348e-18)
(0.992589 0.0262097 -9.87772e-19)
(1.03382 0.0146834 -1.12068e-17)
(1.02885 0.016554 -4.88538e-18)
(1.02179 0.00148511 1.5425e-20)
(1.01402 0.0130324 -2.81358e-18)
(1.02954 0.0153208 -1.99894e-18)
(1.0136 0.0131602 -3.19831e-18)
(0.990789 0.0273619 -7.55202e-18)
(1.02741 0.0301756 2.44183e-18)
(1.02626 0.0342423 -3.44478e-18)
(0.954902 0.0505752 2.00363e-17)
(0.98141 0.00256498 -8.08567e-17)
(1.03091 0.0833152 7.63828e-18)
(0.983169 0.00211087 -1.53077e-16)
(0.982244 0.000945657 -9.22445e-17)
(1.03137 0.0167311 -3.87333e-18)
(0.938277 0.096404 1.46307e-17)
(1.00323 0.00281017 -9.98899e-19)
(0.999638 9.32345e-05 4.45249e-18)
(1.01642 0.0123522 2.30442e-18)
(0.999612 4.3759e-05 2.21665e-17)
(1.00341 0.00328135 -3.16206e-18)
(0.714146 0.0271678 3.12356e-17)
(0.0564129 0.0787011 -3.08101e-16)
(1.00329 0.00301365 1.92477e-18)
(0.999974 7.12684e-06 -1.55817e-17)
(1.00022 -6.662e-05 4.44022e-19)
(0.99999 1.69884e-05 -9.29123e-18)
(1.02966 0.0144163 -5.59369e-19)
(1 2.11046e-05 -8.34853e-18)
(0.999995 2.50822e-05 -2.70683e-18)
(1.11626 0.0824674 1.2037e-17)
(1.0342 0.0128627 -5.61243e-18)
(1.07944 0.178851 1.86198e-17)
(1.00149 0.00346255 1.50539e-18)
(1.03675 0.0147481 -1.70609e-18)
(1.00769 0.00101642 -1.91114e-18)
(0.999963 0.00899843 1.12416e-17)
(1.03184 0.0305915 4.00272e-18)
(1.01673 0.0114575 -2.39416e-18)
(0.938027 0.00355607 -1.83043e-16)
(1.01628 0.0108661 -6.90578e-18)
(1.00304 0.00274347 -1.66672e-19)
(1.00055 -0.000104747 4.33432e-19)
(1.03499 0.0111552 -6.11795e-19)
(1.03722 0.0147932 7.83469e-19)
(1.00589 0.000964997 -4.2502e-19)
(0.708225 0.0231559 3.72996e-16)
(1.03226 0.0300866 2.97927e-18)
(1.0406 0.00255541 -2.32476e-18)
(0.997987 0.0357976 -1.13679e-18)
(1.00075 0.043726 3.38369e-18)
(0.999984 0.000140804 -3.13156e-17)
(0.411133 0.559138 -1.21919e-16)
(1.03281 0.0852688 2.26387e-18)
(1.00132 0.0036384 -1.65448e-18)
(0.969361 0.182647 -1.49644e-18)
(0.984735 0.00109399 -4.43951e-17)
(0.99997 6.54679e-05 1.13385e-18)
(1.00001 2.19778e-05 2.16877e-19)
(0.999989 4.9096e-05 1.76218e-18)
(1.0892 0.176382 1.39948e-17)
(0.943919 0.096109 -1.92511e-17)
(0.988201 0.0289328 2.09556e-18)
(1.02887 0.0116143 1.18747e-18)
(1.03876 0.00207481 -4.65265e-19)
(0.999207 0.0118387 5.95071e-18)
(0.92595 0.00848124 6.73018e-17)
(0.998484 0.035489 -3.33964e-18)
(1.04789 0.0209462 -4.32682e-19)
(1.1133 0.0576317 -3.81358e-18)
(0.708752 0.0435999 1.86736e-16)
(0.993933 0.0260647 -5.06677e-18)
(0.953413 0.0536884 -2.87279e-17)
(1.01901 0.00135715 -8.68416e-19)
(1.02532 0.039196 -7.44535e-18)
(1.01224 0.0116076 1.05868e-18)
(1.01685 0.0130111 6.6781e-18)
(0.99837 0.000207278 1.22902e-16)
(1.01235 0.011704 -1.25651e-18)
(1.03172 0.0137539 2.56625e-18)
(0.999985 1.15806e-05 3.86809e-18)
(0.491731 0.0251885 -1.30438e-17)
(0.990313 0.00105704 1.30798e-17)
(1.05805 0.0125961 1.03684e-17)
(1.03805 0.0122917 -2.30798e-18)
(0.993367 0.00117714 5.62715e-17)
(0.948656 0.0604505 7.90398e-18)
(1.16563 0.254112 3.16511e-17)
(1.0301 0.0167675 -7.15161e-18)
(1.00861 0.016558 4.9477e-18)
(1.03935 0.00126002 -5.05353e-18)
(1.03858 0.0124454 9.24158e-19)
(1.02897 0.0350508 1.61877e-18)
(1.0046 0.00281556 7.52579e-18)
(1.00001 7.89368e-07 -6.28128e-18)
(0.993755 0.0711275 1.45379e-18)
(1.00028 8.53115e-05 -5.30491e-19)
(1.05193 0.0235622 -4.54942e-18)
(1.00263 0.00011656 2.72511e-18)
(0.964778 0.00296323 -6.68708e-17)
(0.96221 0.0413254 5.48218e-18)
(1.01152 0.00102997 -1.10791e-17)
(1.09215 0.123046 3.59269e-18)
(0.941231 0.0694999 -1.01048e-17)
(0.994316 0.0175652 3.3727e-18)
(1.00104 0.00400302 1.84548e-18)
(0.585812 0.107573 -4.82386e-16)
(1.00053 -0.000214312 -9.24606e-19)
(1.00156 0.00313364 1.45691e-18)
(1.04255 0.045626 6.88409e-18)
(0.999976 3.18166e-05 2.28357e-17)
(1.00109 0.0043139 3.60471e-18)
(1.00162 0.00291527 7.57343e-19)
(0.734272 0.223073 -5.7799e-17)
(0.66566 0.455141 -3.67962e-17)
(0.998422 0.0120514 6.97436e-18)
(1.00161 -1.84428e-05 -1.54415e-18)
(0.93223 0.0344912 -2.19742e-18)
(0.999399 0.043291 -4.21836e-18)
(1.02898 0.0126382 4.72128e-18)
(1.03228 0.0176718 -8.54943e-18)
(1.0339 0.0127356 -1.1099e-17)
(1.00069 -0.000159836 -2.02923e-18)
(0.999997 3.79609e-05 8.06434e-19)
(0.999845 0.0381496 5.15339e-19)
(0.999977 7.41105e-06 1.75677e-19)
(0.961397 0.0433059 5.47313e-18)
(1.02835 0.0124493 1.15576e-18)
(1.02587 0.0375111 -7.29403e-18)
(0.99702 0.000731649 -8.01513e-18)
(0.995067 0.0690598 -1.63567e-17)
(1.04555 0.0449012 1.45958e-17)
(0.998234 5.12839e-05 -5.55922e-17)
(1.00139 0.0123426 -6.93047e-18)
(1.00612 0.00122112 -1.47716e-19)
(0.928969 0.0463862 -1.67922e-18)
(1.04324 0.0457605 9.55353e-18)
(0.999977 6.98923e-05 3.04569e-17)
(1.00002 0.0399842 -3.80596e-18)
(1.0351 0.00934583 3.17746e-18)
(1.0172 0.000476194 7.80068e-19)
(0.998997 0.0411804 -4.09726e-18)
(1.00322 0.000676229 9.08756e-19)
(0.92907 0.0949739 -1.55042e-17)
(1.02833 -0.000890187 -3.60336e-18)
(1.0394 0.0100043 -4.83041e-18)
(1.02706 0.0348225 -2.10734e-18)
(1.0008 -0.000370481 -1.11568e-18)
(1.00119 0.0125327 5.07576e-19)
(1.05228 0.0660193 3.71696e-18)
(1.05431 0.0218621 5.02662e-18)
(0.999994 1.61411e-05 9.29391e-19)
(1.01111 0.0171469 -3.01326e-18)
(0.983843 0.176711 1.7235e-17)
(1.04092 0.00218838 3.34904e-18)
(0.499453 0.466779 -4.37795e-17)
(1 2.69914e-05 4.97607e-18)
(1.0023 0.000412957 -1.26263e-18)
(1.00065 -9.35522e-05 2.98769e-18)
(1.03273 0.016237 -6.25491e-18)
(0.994379 0.0194332 1.05106e-17)
(0.995278 0.0138737 1.99547e-17)
(1.00303 0.000265568 -1.01526e-18)
(0.998478 0.0380323 1.44528e-18)
(1.0178 0.013538 5.62105e-18)
(0.97308 0.00406647 -8.75775e-17)
(1.01003 0.00127339 -5.16192e-18)
(1.07845 0.0979981 3.15919e-19)
(1.00071 -7.96138e-05 1.42439e-18)
(1.08141 0.113149 -2.18312e-18)
(1.00139 -0.000213531 -9.0965e-18)
(0.642148 0.638725 -2.25334e-17)
(1.02757 -0.000181293 -3.35728e-18)
(1.04931 0.0695748 1.83434e-19)
(0.99987 3.89273e-05 5.10938e-17)
(0.99725 0.000758903 -2.89203e-17)
(1.02607 0.0298398 -2.50372e-18)
(1.00403 0.00224528 2.99666e-18)
(0.999133 0.00015082 -2.80547e-17)
(0.992509 0.000235445 2.27576e-16)
(0.994192 0.0213902 -2.46552e-18)
(0.993779 0.0206067 7.48751e-18)
(0.964422 0.160425 5.02382e-18)
(1.03381 0.0350223 2.516e-19)
(1.03423 0.0344725 -2.45663e-19)
(1.00001 1.71625e-05 4.76996e-18)
(1.00436 0.00222136 -5.34628e-18)
(1.02855 0.0139915 1.15861e-18)
(1.05382 0.0213176 6.86211e-18)
(1.00001 1.70456e-06 -5.74013e-19)
(1.0003 -0.000213926 6.045e-19)
(1.03502 0.0106543 1.15682e-18)
(1.00072 2.70117e-05 2.06183e-18)
(0.790057 0.0440303 -1.9966e-16)
(1.15448 0.259482 2.23278e-18)
(1.02454 0.0236602 -1.53103e-17)
(1.00001 7.04948e-06 2.79111e-19)
(1.00686 0.00982723 6.57195e-19)
(1.04558 0.0154923 9.46522e-18)
(0.994963 0.0151043 7.73929e-18)
(1.00443 0.000900571 -6.58626e-19)
(0.374642 0.643133 1.56594e-16)
(1.00031 3.72417e-06 5.98612e-19)
(0.928472 0.0780213 -1.00231e-17)
(0.957518 0.0482353 1.17375e-18)
(1.00705 0.00980317 2.89606e-18)
(1.00498 0.00115907 7.39828e-19)
(0.999001 0.000143921 -4.12304e-17)
(1.01115 0.000731055 -3.51228e-18)
(1.04428 0.00544997 7.49794e-19)
(1.01755 0.00949612 -5.88199e-18)
(0.996785 0.0120865 3.6582e-18)
(0.999995 1.06849e-05 1.05976e-18)
(1.00001 2.81941e-05 -1.4138e-18)
(0.994589 0.0179043 -7.02178e-18)
(0.996693 0.00167682 -4.62666e-17)
(0.99129 0.0617546 2.29244e-18)
(1.03366 0.0147854 -6.66444e-18)
(0.999473 -1.90857e-05 4.74468e-17)
(1.00035 0.000127629 8.25392e-20)
(1.02731 0.0318298 -1.38618e-18)
(0.550219 0.00133117 2.25221e-18)
(0.998025 0.000206521 -1.23536e-16)
(1.0477 0.0202686 -1.08436e-18)
(1.00019 4.15517e-05 1.28802e-18)
(0.99626 0.011951 4.04917e-18)
(0.948811 0.0833521 1.56863e-17)
(1.04279 0.0023926 -1.67081e-18)
(1.04434 0.0149605 3.2269e-18)
(0.950097 0.056163 -2.39544e-17)
(1.00236 0.0196521 -8.4646e-19)
(1.04385 0.00734234 4.36705e-18)
(1.00001 3.0792e-05 1.21811e-20)
(0.999917 2.079e-05 1.24166e-16)
(1.0431 0.00389894 -2.75834e-18)
(1.01108 0.010288 -1.80058e-18)
(1.00302 0.0199841 -8.92799e-19)
(1.0111 0.0103412 3.36863e-19)
(0.999997 5.20829e-05 1.72158e-18)
(1.00032 0.000249442 5.231e-19)
(1.00364 0.000930914 -8.66216e-18)
(0.99899 0.031474 2.08353e-18)
(1.0442 0.00935526 1.9075e-18)
(0.945248 0.0401207 2.5831e-17)
(0.990302 0.00115747 1.26125e-16)
(0.930951 0.0367653 -8.28139e-17)
(1.03173 0.0158643 -5.11576e-18)
(1.00864 0.0182906 9.98881e-18)
(0.935036 0.0461076 -2.60034e-17)
(0.9855 0.02196 1.39315e-17)
(1.05807 0.0091285 -2.25501e-18)
(1.03395 0.0140873 -1.04e-17)
(0.98437 0.0216027 -7.98331e-18)
(0.993084 0.0599659 -2.49001e-19)
(0.999885 9.48563e-05 2.46159e-17)
(1.00919 0.0686787 3.41129e-18)
(1.02696 0.0291738 2.85002e-18)
(1.00003 -1.21368e-05 -3.95957e-19)
(0.999996 -2.11655e-06 3.7498e-19)
(1.00069 0.000136104 4.21465e-18)
(0.999757 0.000319838 -1.113e-17)
(1.06253 0.0756693 7.70218e-18)
(1.01073 0.0176816 3.56497e-18)
(1.01371 -0.00165687 5.11714e-18)
(0.942061 0.0425024 -6.17921e-17)
(0.992061 0.000342758 -4.10645e-17)
(0.799267 0.018559 3.48827e-17)
(1.0412 0.00312151 3.90261e-18)
(1.04407 0.00498461 -1.29568e-18)
(1.00373 0.00115765 -5.07441e-19)
(1.0497 0.045752 -9.41975e-18)
(1.00001 3.03813e-05 -4.59939e-18)
(0.997978 0.0309173 -8.44181e-18)
(1.00051 0.00388379 -1.86479e-18)
(0.933628 0.112739 1.48997e-17)
(0.933891 0.0486513 -7.15094e-17)
(1.00202 0.0169678 1.56302e-18)
(1.01733 0.0126621 8.15505e-18)
(0.426776 0.646739 8.52358e-17)
(1.03167 0.0145905 -5.94445e-19)
(1.04126 0.0663019 -9.95436e-18)
(1.00975 0.0133537 -6.48909e-18)
(0.973537 0.149537 -1.56587e-17)
(1.14205 0.214939 1.47079e-17)
(1.00123 0.000101883 2.07917e-18)
(0.998319 0.00360006 -8.81022e-18)
(1 1.89689e-05 1.59309e-18)
(1.05677 0.0707717 1.18108e-17)
(0.998467 0.00344015 -3.66004e-19)
(1.01678 0.0101325 -8.56066e-18)
(1.09497 0.118967 -9.82599e-18)
(1.00017 0.000411882 1.35538e-18)
(0.97256 0.00306926 -1.54076e-16)
(0.989963 0.0528923 -1.36508e-17)
(1.00701 0.0161487 2.96203e-18)
(0.997811 0.000227977 -2.98938e-17)
(1.00165 0.017673 2.62891e-19)
(0.999363 0.000754364 3.3178e-18)
(0.994811 0.0161894 7.15611e-18)
(0.999376 0.000615326 6.02097e-18)
(0.999387 0.000842208 -7.44576e-18)
(0.995589 0.013739 1.80756e-18)
(1.04035 0.00780492 -3.65571e-20)
(1.03663 0.00999714 -2.0896e-18)
(1.00693 0.0176065 5.60033e-18)
(0.657079 0.0461181 1.15375e-16)
(1.04256 0.000563136 -1.60502e-18)
(0.312885 0.297797 -1.87123e-16)
(1.03051 0.0165969 -4.51253e-18)
(1.0233 0.00113171 -4.25989e-18)
(0.995145 0.0152044 6.85587e-18)
(1.02919 0.0167164 2.33173e-18)
(0.99159 0.0273797 4.19714e-18)
(1.03731 -0.00175092 -3.72245e-18)
(0.547729 0.381457 -1.24465e-16)
(0.950871 0.0354181 -2.96511e-17)
(0.992421 0.0255513 6.57984e-18)
(1.00467 0.0237125 -8.80355e-18)
(0.995071 0.00101315 3.38847e-17)
(0.996594 0.00108288 4.28464e-17)
(1.0264 0.0319814 -4.49602e-18)
(0.999998 2.26988e-05 1.98653e-18)
(1.06966 -0.0177236 -1.34137e-17)
(0.99956 7.13072e-06 -4.276e-17)
(0.947262 0.0395989 2.6358e-17)
(0.997773 0.0759489 -1.13796e-17)
(1.0607 0.0693517 1.81776e-17)
(1.03999 0.0292126 -7.02578e-18)
(1.03604 0.0169745 -3.81936e-18)
(0.991635 0.0516552 2.71159e-18)
(1.00935 0.0136848 -4.77587e-18)
(1.0394 0.0293666 3.56529e-19)
(0.970964 0.030732 -1.37025e-17)
(1.04118 0.0668796 -1.30572e-17)
(1.00777 0.0229308 7.34797e-18)
(1.0448 0.0444118 1.83091e-17)
(1.00511 0.0241418 -1.45108e-17)
(1.00001 1.75182e-05 -2.16802e-19)
(0.998305 0.0269043 2.28943e-18)
(0.659943 0.0584702 7.87236e-18)
(0.96948 0.135857 1.09083e-17)
(1.00661 0.00575452 -5.96145e-18)
(1.00006 -4.70753e-05 1.18992e-18)
(0.999296 0.000171524 -1.38338e-17)
(0.994311 0.00800761 8.25682e-18)
(0.966417 0.00303453 -2.66083e-16)
(1.03679 0.00835455 -1.12818e-18)
(1.02886 0.00236343 1.77704e-18)
(1.00058 -3.96641e-05 -1.66087e-18)
(1.00499 0.00720621 -7.95276e-18)
(0.992654 0.0281458 3.23562e-18)
(1.0067 0.00565138 1.24201e-18)
(1.00964 0.00168764 3.87444e-18)
(1.04598 0.0397041 -8.94431e-18)
(0.993737 0.00166029 -2.7399e-17)
(0.990714 0.0361098 3.91277e-18)
(1.03836 0.0177182 -1.02602e-19)
(1.00523 0.00678184 8.66299e-18)
(1.00807 0.00712624 -1.88216e-18)
(0.940363 0.0638177 -5.63234e-18)
(1 -3.46871e-05 -3.61993e-19)
(0.99328 0.00575111 2.21588e-18)
(1.28361 0.183639 2.8702e-17)
(0.999887 3.2175e-05 -1.11253e-16)
(1.04041 0.0428312 1.06397e-17)
(0.995171 0.075129 4.40547e-18)
(1.00774 0.00713176 -3.99019e-19)
(0.958648 0.0457355 -9.1132e-18)
(1.03764 0.0176506 -1.89862e-18)
(0.997376 0.0269279 3.19552e-18)
(1.02913 0.0367495 5.10293e-18)
(0.999656 0.00335003 5.88838e-19)
(0.938224 0.038235 -1.32485e-17)
(1.00561 -0.00043946 -9.896e-19)
(1.03606 0.00219896 -2.03373e-18)
(1.03631 0.0175686 -2.1229e-18)
(0.937128 0.0419576 -4.16406e-17)
(0.999815 0.00338723 6.3402e-18)
(1.04442 0.00754098 3.66843e-18)
(1.05483 0.0286043 2.97946e-18)
(0.99153 0.0353952 -3.55371e-18)
(1.00611 0.0141674 -2.56323e-18)
(1.0046 0.00325702 1.69151e-18)
(1.01071 0.0679084 8.84423e-18)
(0.778704 0.205099 -4.72599e-17)
(0.995694 0.000964449 1.89527e-17)
(0.999961 3.02206e-05 4.6195e-17)
(0.993496 0.0260174 -1.03084e-17)
(0.99999 -2.73759e-05 5.71191e-19)
(1.14261 0.212546 8.35615e-19)
(1.00631 0.0236845 5.07547e-19)
(1.03491 0.0932249 -1.12428e-17)
(1.01656 0.0080023 -6.53795e-18)
(1.02924 0.00273592 3.99735e-18)
(0.26236 0.135288 -6.52003e-16)
(1.00642 0.016577 3.05942e-18)
(1.07894 0.208336 1.30803e-17)
(1.03658 0.00832095 3.41765e-18)
(0.92448 0.0196031 -2.95267e-17)
(1.02926 0.0139042 1.30657e-18)
(0.996894 0.0123597 1.4135e-17)
(1.00649 0.0150094 7.66365e-18)
(1.01598 -0.00161755 2.99948e-18)
(1.0895 0.103639 -9.01928e-18)
(1.07888 0.0970094 -3.38596e-18)
(1.00114 -0.000286801 -5.46087e-18)
(1.00135 0.000245032 -5.62443e-18)
(0.924604 0.0464185 -9.29753e-17)
(1.00221 3.54602e-05 2.51643e-19)
(0.694571 0.394237 -3.10787e-17)
(1.02784 0.0342943 -2.02932e-18)
(0.966148 0.170744 3.70532e-17)
(1.00439 0.00314646 -5.4058e-18)
(0.0821188 0.303368 -4.50419e-16)
(1.11605 0.235601 4.50132e-18)
(1.0057 0.0236195 -6.89928e-18)
(0.999993 7.28825e-06 2.17925e-18)
(0.999911 0.00298451 1.0079e-18)
(0.955465 0.0321286 -2.05906e-17)
(0.99424 0.0082469 -1.93168e-18)
(0.9889 0.000163206 -8.11366e-17)
(0.996982 0.0100264 -7.38925e-18)
(1.03253 0.0131337 5.37665e-18)
(0.970982 0.0313127 4.68186e-18)
(1.0801 -0.00881967 -4.19324e-18)
(0.605982 0.0394794 8.89311e-17)
(1.00056 -5.42984e-05 -3.29584e-18)
(0.965159 0.0372629 2.01241e-17)
(1.03368 0.0321157 8.49741e-21)
(0.927783 0.0579469 -1.0285e-16)
(1.00481 0.0134151 4.40871e-18)
(0.930152 0.0779375 -2.01549e-17)
(1.03882 0.0110428 -6.51683e-18)
(0.951992 0.0347733 3.50628e-17)
(0.997516 0.000628367 -4.89684e-17)
(1.00006 2.03481e-05 3.8719e-18)
(1.03819 0.0272585 -1.34779e-17)
(1.04111 0.0288783 -2.11228e-18)
(1.02967 0.000734657 7.45416e-19)
(0.922149 0.0388 3.21835e-17)
(1.03223 0.0917745 -1.09412e-17)
(1.02189 0.000813495 -2.41025e-18)
(0.997178 0.0253484 6.58307e-18)
(1.00049 0.00423467 7.48321e-19)
(1.00991 0.00922009 -1.31465e-18)
(0.79188 0.0258222 -1.34636e-17)
(1.00975 0.00913358 1.35104e-18)
(1.03565 0.024095 7.13885e-18)
(0.981204 0.0421544 -7.1245e-18)
(1.02782 0.0107302 -6.48154e-18)
(1.01193 0.000576847 5.86889e-18)
(0.996177 0.0118119 4.15959e-18)
(1.05403 0.027038 4.77865e-18)
(1.01568 0.00790071 -5.25471e-18)
(1.00523 0.0137755 1.45387e-18)
(1.0658 -0.0230753 -2.2248e-17)
(0.990303 0.0307019 1.60056e-17)
(1.02106 0.00150926 3.07821e-18)
(0.790384 0.33466 -2.82513e-17)
(1 7.59074e-06 -3.32535e-19)
(1.01606 0.00853425 -7.01529e-18)
(0.998457 0.0219724 8.31669e-18)
(0.992338 0.00718323 1.54504e-17)
(1.00337 0.000186886 3.94024e-18)
(0.997706 0.0251174 -5.46365e-19)
(1.00002 -3.02712e-05 -2.41969e-18)
(1.04071 0.112451 4.47208e-18)
(1.00603 0.000991953 4.93727e-18)
(0.970008 0.0050688 -1.01995e-16)
(1.03553 0.0366801 8.05146e-19)
(0.950647 0.0499677 3.70668e-18)
(1.01718 0.0101222 -5.6491e-18)
(1.01676 0.00893091 -5.24689e-18)
(1.03742 0.0276859 -1.33808e-17)
(1.00126 0.114521 -6.7185e-18)
(0.999879 7.35793e-05 5.14976e-18)
(0.993049 0.000548469 -6.78698e-17)
(1.02304 0.00109497 3.34229e-18)
(1.09557 0.206772 3.67008e-18)
(1.04089 0.028674 -1.54134e-18)
(0.999876 0.0031945 -9.26102e-19)
(0.246981 0.0691449 -1.25501e-15)
(1.00004 3.38294e-05 -1.52478e-18)
(1.00501 0.00173919 8.19545e-19)
(0.639142 0.0191471 1.13378e-17)
(0.994524 0.00531125 -1.06879e-17)
(0.999581 0.00358202 2.60901e-18)
(0.999494 0.00376411 -1.29745e-18)
(0.983186 0.039056 -6.13081e-18)
(0.959618 0.0290375 4.77824e-17)
(0.999854 3.03944e-05 1.00864e-17)
(0.993306 0.00674011 -3.6074e-18)
(0.936467 0.0681548 -2.2418e-17)
(0.997878 0.0216778 -3.86843e-18)
(0.995633 0.0180183 1.17197e-17)
(0.996397 0.00979071 1.6086e-18)
(1.00103 5.57252e-05 -1.07411e-18)
(0.956391 0.0309397 -2.40294e-17)
(1.06459 0.0644683 1.57859e-17)
(0.994679 0.0162387 3.50966e-18)
(0.923897 0.0320812 -2.24929e-17)
(1.03593 0.0083844 2.87261e-19)
(1.03844 0.00239721 -3.8448e-18)
(1.03772 0.109653 -6.51645e-18)
(1.03249 0.0329517 4.61766e-18)
(0.996592 0.00996977 -1.10564e-17)
(1.00516 0.00199901 6.67879e-18)
(1.082 0.111635 1.64108e-18)
(1.0418 0.00689858 1.46013e-18)
(0.975481 0.0256193 -1.5684e-18)
(1.00074 0.00426971 2.90984e-19)
(0.999721 0.000228319 -1.33291e-17)
(0.929754 0.0128129 9.30217e-18)
(1.04923 0.0458541 -7.27263e-18)
(1.01493 0.00715536 -1.00433e-18)
(1.01022 0.0511061 2.76053e-18)
(1.01518 0.0080699 -1.25351e-18)
(0.996955 0.0103054 1.8431e-18)
(1.00567 0.00471891 6.06244e-19)
(0.963046 0.0364505 -8.08751e-18)
(0.781925 0.0137655 -4.71023e-17)
(0.306301 0.42919 4.44865e-17)
(0.96506 0.0384214 1.51258e-17)
(0.998663 0.0187842 4.61006e-18)
(1.00558 0.00471361 2.40351e-18)
(0.967951 0.0344279 1.19096e-17)
(0.569005 0.305933 -8.94854e-19)
(0.938898 0.0327688 2.08727e-18)
(0.999918 0.00319422 -2.20013e-18)
(1.04793 0.0384793 -1.72846e-17)
(1.05846 0.0800806 -3.40029e-20)