/*--------------------------------*- C++ -*----------------------------------*\
  =========                 |
  \\      /  F ield         | OpenFOAM: The Open Source CFD Toolbox
   \\    /   O peration     | Website:  https://openfoam.org
    \\  /    A nd           | Version:  7
     \\/     M anipulation  |
\*---------------------------------------------------------------------------*/
FoamFile
{
    version     2.0;
    format      ascii;
    class       volScalarField;
    location    "5";
    object      T;
}
// * * * * * * * * * * * * * * * * * * * * * * * * * * * * * * * * * * * * * //

dimensions      [0 0 0 1 0 0 0];

internalField   nonuniform List<scalar> 
2413
(
1.61614
1.61566
1.61515
1.61462
1.61407
1.6135
1.61291
1.6123
1.61169
1.61105
1.6104
1.60973
1.60906
1.60837
1.60766
1.60695
1.60624
1.60552
1.60481
1.60409
1.60337
1.60264
1.60191
1.60117
1.60042
1.59967
1.59891
1.59815
1.5974
1.59667
1.59595
1.59522
1.59448
1.59372
1.59293
1.59212
1.5913
1.59047
1.58963
1.58879
1.58794
1.58709
1.58623
1.58537
1.5845
1.58361
1.58271
1.58177
1.5808
1.57981
1.5788
1.57779
1.57678
1.57575
1.57467
1.57352
1.57227
1.57094
1.56954
1.56809
1.56663
1.56518
1.56374
1.56229
1.56081
1.55929
1.55774
1.55616
1.55459
1.55302
1.55147
1.54994
1.5484
1.54686
1.54532
1.5438
1.54233
1.54091
1.53955
1.53818
1.53675
1.53523
1.5336
1.5319
1.53017
1.52848
1.52684
1.52523
1.52363
1.52203
1.52045
1.51891
1.51747
1.51611
1.51481
1.51353
1.51222
1.51084
1.50937
1.5078
1.50611
1.50431
1.50239
1.50036
1.49824
1.49602
1.49373
1.49137
1.48898
1.48659
1.48425
1.48205
1.48007
1.47838
1.47701
1.47594
1.4751
1.47439
1.47377
1.4732
1.47269
1.47226
1.47187
1.47147
1.47097
1.4703
1.46942
1.46835
1.46706
1.46557
1.46398
1.46231
1.61308
1.61264
1.61218
1.61171
1.61123
1.61071
1.61017
1.60961
1.60905
1.60848
1.6079
1.60732
1.60673
1.60615
1.60556
1.60495
1.60432
1.60366
1.60299
1.60234
1.6017
1.60107
1.60043
1.59978
1.59913
1.59847
1.59779
1.59707
1.5963
1.59551
1.59474
1.59403
1.59338
1.59277
1.59218
1.59156
1.59092
1.59025
1.58956
1.58887
1.58816
1.58744
1.58672
1.58601
1.58531
1.58462
1.58394
1.58327
1.58259
1.5819
1.58118
1.58044
1.57967
1.57889
1.57811
1.57734
1.57657
1.5758
1.57498
1.57406
1.57304
1.57195
1.57084
1.56974
1.56866
1.5676
1.56655
1.56544
1.56423
1.56291
1.5615
1.56006
1.55866
1.55731
1.55601
1.55472
1.5534
1.55203
1.55066
1.54934
1.5481
1.54694
1.54579
1.54455
1.54314
1.54157
1.53989
1.53818
1.53651
1.53494
1.53348
1.53213
1.53088
1.52971
1.52864
1.52764
1.5267
1.52578
1.5248
1.52371
1.52244
1.52098
1.51936
1.51762
1.51581
1.51394
1.51203
1.51008
1.50812
1.50616
1.50425
1.50243
1.50076
1.49926
1.49793
1.49676
1.49572
1.49481
1.49405
1.49342
1.4929
1.49249
1.49218
1.49189
1.49153
1.49108
1.49055
1.48988
1.48905
1.48798
1.48663
1.48511
1.60657
1.6061
1.60559
1.60508
1.60461
1.60417
1.60373
1.60327
1.60279
1.60229
1.60179
1.60127
1.60075
1.60025
1.5998
1.5994
1.59901
1.59858
1.59809
1.59755
1.59701
1.59651
1.59603
1.59557
1.59512
1.59472
1.59438
1.5941
1.59375
1.59321
1.59246
1.59163
1.59086
1.59021
1.58971
1.58931
1.58896
1.5886
1.58821
1.58779
1.58736
1.58694
1.58653
1.58612
1.58569
1.58525
1.58482
1.58442
1.58408
1.58378
1.5835
1.58318
1.58279
1.58232
1.58184
1.58139
1.58103
1.58078
1.58065
1.58062
1.58061
1.58055
1.58036
1.58009
1.57978
1.57947
1.57918
1.57888
1.57853
1.57808
1.57749
1.57677
1.57598
1.57517
1.57437
1.57358
1.57277
1.5719
1.57096
1.56999
1.56907
1.56826
1.56761
1.56706
1.56653
1.56595
1.56531
1.56461
1.56388
1.56315
1.56244
1.56176
1.56114
1.56058
1.56009
1.5597
1.55942
1.55922
1.55908
1.55894
1.55872
1.55835
1.55779
1.55705
1.55615
1.55515
1.55409
1.55299
1.55187
1.55075
1.54963
1.54853
1.54745
1.54642
1.54547
1.54466
1.54401
1.54352
1.54315
1.5428
1.54242
1.542
1.54159
1.54123
1.54095
1.54076
1.54065
1.54055
1.5404
1.54011
1.53952
1.53861
1.59271
1.59201
1.5913
1.59052
1.5897
1.58897
1.58838
1.58789
1.58744
1.587
1.58658
1.58615
1.58567
1.58512
1.58459
1.58416
1.58387
1.5837
1.58355
1.58329
1.5829
1.58249
1.58213
1.58183
1.58155
1.58132
1.58121
1.58124
1.5815
1.58189
1.58199
1.58164
1.58092
1.58026
1.57975
1.57942
1.57921
1.57912
1.5791
1.57906
1.57897
1.57886
1.57876
1.57868
1.57862
1.57856
1.57851
1.57849
1.5785
1.57858
1.57872
1.57891
1.57911
1.57928
1.5794
1.57948
1.57962
1.57985
1.58023
1.58077
1.58144
1.58212
1.58267
1.58306
1.58329
1.5834
1.58345
1.58348
1.58354
1.58362
1.58368
1.58367
1.58355
1.58325
1.5828
1.58226
1.58171
1.58122
1.58076
1.58018
1.57951
1.57892
1.57846
1.57819
1.57813
1.57822
1.5785
1.57891
1.57934
1.57975
1.5801
1.5804
1.58066
1.58093
1.58122
1.58154
1.58189
1.5823
1.58276
1.58329
1.58387
1.58446
1.585
1.58546
1.58581
1.58605
1.5862
1.58629
1.58633
1.58632
1.58631
1.58628
1.58617
1.58598
1.58572
1.58546
1.58526
1.58517
1.58517
1.58521
1.58525
1.58525
1.58517
1.58503
1.58488
1.58481
1.58481
1.58488
1.58507
1.58532
1.58553
1.58563
1.57407
1.57305
1.57212
1.57098
1.56969
1.56851
1.56753
1.56675
1.56611
1.56562
1.56534
1.56515
1.5647
1.56389
1.56308
1.56248
1.56216
1.56212
1.56216
1.56197
1.56148
1.56101
1.56068
1.56042
1.56017
1.55994
1.5598
1.55979
1.55996
1.56044
1.56108
1.56138
1.56129
1.5609
1.56052
1.56025
1.56012
1.56009
1.56012
1.56016
1.56014
1.56006
1.56
1.56
1.56006
1.56024
1.56052
1.56092
1.5614
1.56194
1.56251
1.56312
1.56381
1.56461
1.56551
1.56647
1.56748
1.56856
1.56968
1.57074
1.57172
1.57262
1.57346
1.5742
1.57482
1.57533
1.57575
1.57613
1.57653
1.57696
1.57738
1.57781
1.57817
1.57841
1.57854
1.57864
1.57877
1.579
1.57929
1.57951
1.57966
1.57961
1.57948
1.57945
1.57949
1.5797
1.58012
1.58073
1.58149
1.58229
1.58308
1.58386
1.58465
1.58546
1.58627
1.58706
1.58781
1.58851
1.5892
1.58989
1.59062
1.59141
1.59224
1.59312
1.59399
1.59482
1.59556
1.59623
1.59684
1.59745
1.5981
1.59871
1.59911
1.59928
1.59932
1.59932
1.59935
1.59942
1.59951
1.59962
1.59977
1.59999
1.60029
1.60065
1.60101
1.60136
1.60174
1.60213
1.60257
1.60304
1.60353
1.60407
1.55752
1.55602
1.55487
1.55381
1.5525
1.55104
1.54965
1.54838
1.54726
1.54634
1.54577
1.54568
1.54575
1.54522
1.54411
1.54313
1.54248
1.54217
1.5422
1.54228
1.54191
1.54126
1.54074
1.54041
1.54019
1.53995
1.5396
1.53926
1.53904
1.53899
1.53909
1.5395
1.54012
1.54051
1.54055
1.54045
1.54034
1.54031
1.54034
1.54043
1.54048
1.54046
1.5404
1.54037
1.54039
1.54049
1.5407
1.54103
1.5415
1.54207
1.54269
1.54333
1.54399
1.54473
1.54559
1.54658
1.54768
1.54878
1.54986
1.55087
1.55182
1.55274
1.55366
1.55458
1.55552
1.55644
1.55729
1.55805
1.55876
1.55946
1.56018
1.56096
1.56179
1.56265
1.5635
1.56431
1.56511
1.56592
1.56677
1.56771
1.56876
1.56988
1.57074
1.5712
1.57158
1.5719
1.57224
1.57265
1.57313
1.57368
1.57428
1.57493
1.57564
1.57642
1.57729
1.57824
1.57923
1.5802
1.58113
1.58203
1.58291
1.58377
1.5846
1.58539
1.58618
1.587
1.58779
1.58853
1.58926
1.59004
1.59096
1.59209
1.59327
1.594
1.59433
1.59457
1.59479
1.59506
1.59541
1.59581
1.59627
1.59677
1.59733
1.59794
1.59861
1.59936
1.60023
1.60122
1.60216
1.6029
1.60359
1.60425
1.54353
1.54214
1.54089
1.53979
1.53883
1.53797
1.53698
1.53577
1.53451
1.53337
1.53245
1.53183
1.53166
1.53173
1.53138
1.53051
1.52969
1.52915
1.52891
1.52893
1.52905
1.52886
1.52837
1.52792
1.5276
1.52739
1.52723
1.52699
1.52669
1.5264
1.5262
1.52613
1.52616
1.52629
1.52652
1.52678
1.52699
1.5271
1.52714
1.52717
1.52717
1.52713
1.52704
1.52693
1.52683
1.52679
1.5268
1.52689
1.52709
1.52736
1.52767
1.52802
1.5284
1.52884
1.52937
1.52999
1.5307
1.53145
1.53217
1.53282
1.53344
1.53408
1.53476
1.53551
1.53637
1.53734
1.53831
1.53913
1.53984
1.54052
1.5412
1.54194
1.54275
1.54366
1.54465
1.54567
1.54663
1.54751
1.54834
1.54921
1.55016
1.55126
1.55253
1.55392
1.55525
1.5562
1.55681
1.55731
1.55776
1.5582
1.55868
1.55917
1.55965
1.56014
1.56066
1.56126
1.56196
1.56278
1.5637
1.56471
1.56581
1.56696
1.56805
1.56895
1.56969
1.5703
1.57087
1.57143
1.57201
1.57263
1.57333
1.57417
1.57536
1.57684
1.57831
1.57907
1.57956
1.57997
1.58035
1.58076
1.58125
1.58183
1.5825
1.58328
1.58416
1.58515
1.58623
1.58738
1.5886
1.58984
1.59103
1.59203
1.53068
1.52994
1.5291
1.52829
1.52759
1.52706
1.52677
1.52649
1.52583
1.52488
1.52392
1.5232
1.52265
1.52237
1.5224
1.52245
1.52208
1.52151
1.52108
1.52086
1.52082
1.52096
1.52118
1.52119
1.52096
1.52064
1.52038
1.52022
1.52021
1.52025
1.52014
1.51984
1.51964
1.5195
1.51944
1.51943
1.51947
1.51958
1.51976
1.52001
1.52022
1.52031
1.52031
1.52028
1.52023
1.5202
1.5202
1.52022
1.52028
1.52038
1.52051
1.52069
1.52092
1.5212
1.52154
1.52193
1.52238
1.52289
1.52342
1.52389
1.52419
1.52434
1.52452
1.52482
1.5253
1.52594
1.52668
1.52742
1.52801
1.52845
1.52883
1.5292
1.52962
1.53012
1.53072
1.53142
1.53221
1.53301
1.53365
1.53415
1.53459
1.53504
1.53558
1.53632
1.53729
1.53844
1.53964
1.5406
1.54112
1.54151
1.54186
1.54222
1.5426
1.54292
1.54312
1.54322
1.5433
1.54341
1.54358
1.54388
1.54438
1.54519
1.5462
1.5473
1.54828
1.54888
1.54921
1.54946
1.54972
1.55005
1.55044
1.5508
1.55116
1.55169
1.55268
1.55413
1.55549
1.55593
1.55619
1.5564
1.55656
1.5568
1.55714
1.5576
1.55821
1.55896
1.55985
1.56092
1.56209
1.56324
1.56414
1.56484
1.51961
1.51941
1.51907
1.51866
1.51831
1.51815
1.51813
1.51829
1.51842
1.51825
1.51784
1.51731
1.51689
1.51658
1.51644
1.51652
1.51669
1.51657
1.51625
1.51601
1.51591
1.5159
1.51599
1.51624
1.51655
1.5167
1.5167
1.51664
1.51659
1.51661
1.51672
1.51676
1.51663
1.5164
1.51621
1.5161
1.51605
1.51607
1.51614
1.51623
1.51631
1.51639
1.51647
1.51656
1.51664
1.5167
1.51673
1.51672
1.51664
1.51653
1.51644
1.51643
1.51648
1.51664
1.51686
1.5171
1.51736
1.51768
1.51807
1.51853
1.51893
1.51909
1.51905
1.51898
1.51896
1.51901
1.51924
1.51969
1.52045
1.52123
1.52144
1.52146
1.52147
1.5215
1.5216
1.52179
1.52217
1.52273
1.52339
1.52392
1.52411
1.52416
1.52419
1.52425
1.52446
1.52493
1.52566
1.52665
1.52758
1.52801
1.52801
1.528
1.52802
1.52825
1.52866
1.52892
1.52889
1.52866
1.52829
1.52792
1.52762
1.52744
1.52741
1.5277
1.52838
1.52923
1.52985
1.52998
1.52978
1.52943
1.52911
1.52887
1.52868
1.52859
1.5286
1.52881
1.52952
1.53076
1.53165
1.53156
1.53113
1.53056
1.53006
1.52973
1.52946
1.52928
1.52921
1.52925
1.52972
1.53067
1.53167
1.53192
1.51073
1.51064
1.51031
1.51008
1.51
1.51003
1.51027
1.51081
1.5113
1.51144
1.51149
1.5115
1.51149
1.51146
1.51149
1.51166
1.51194
1.51206
1.512
1.51186
1.5118
1.5118
1.51183
1.51191
1.51212
1.51246
1.51281
1.51303
1.51319
1.51341
1.51372
1.51379
1.51366
1.51349
1.51335
1.51325
1.5132
1.51324
1.51339
1.51352
1.51351
1.51338
1.5132
1.51311
1.51309
1.51317
1.51336
1.51355
1.5136
1.51353
1.5133
1.51304
1.51282
1.51267
1.51257
1.51253
1.51252
1.5126
1.51284
1.51329
1.51401
1.51469
1.5148
1.51441
1.51388
1.51353
1.51331
1.51325
1.51335
1.51381
1.5146
1.51501
1.51469
1.5141
1.51364
1.51332
1.51315
1.51319
1.51345
1.51386
1.51412
1.514
1.51355
1.5131
1.5127
1.51248
1.51244
1.51268
1.51347
1.51432
1.51448
1.51393
1.5131
1.51237
1.51189
1.51183
1.51204
1.51253
1.51274
1.51229
1.5114
1.51045
1.50955
1.50874
1.50808
1.50791
1.50817
1.50893
1.50924
1.50861
1.50738
1.50617
1.50499
1.50393
1.50319
1.50264
1.50222
1.50198
1.502
1.50253
1.5031
1.50275
1.50138
1.50003
1.49889
1.4979
1.49695
1.49603
1.4952
1.49476
1.49475
1.49518
1.50418
1.50413
1.50368
1.50321
1.50298
1.503
1.50351
1.50435
1.5047
1.50488
1.50503
1.50517
1.50539
1.50562
1.50603
1.50671
1.50709
1.50714
1.50711
1.50703
1.50699
1.507
1.50712
1.50736
1.50765
1.50786
1.508
1.50809
1.5082
1.50843
1.50893
1.5096
1.50987
1.50981
1.50951
1.50912
1.5089
1.5088
1.5088
1.50904
1.50943
1.50959
1.50943
1.50891
1.50844
1.50816
1.50803
1.50801
1.50816
1.50838
1.50845
1.50831
1.50789
1.50742
1.507
1.5066
1.50612
1.50554
1.50502
1.50472
1.50468
1.50503
1.50578
1.50608
1.5057
1.50493
1.50416
1.50346
1.50289
1.50264
1.50272
1.50341
1.50393
1.50354
1.50239
1.50132
1.5004
1.49972
1.49942
1.49941
1.49968
1.4999
1.49949
1.49846
1.49744
1.49647
1.49563
1.49506
1.49487
1.49506
1.49561
1.49569
1.49471
1.49304
1.4915
1.49012
1.48892
1.48814
1.48797
1.48833
1.48874
1.4883
1.48676
1.48513
1.48363
1.48233
1.48117
1.4806
1.48057
1.48086
1.48072
1.47933
1.47748
1.47567
1.47384
1.47198
1.47029
1.46874
1.46735
1.46642
1.46627
1.46662
1.4662
1.4638
1.46111
1.459
1.45728
1.45601
1.45482
1.45335
1.4518
1.45045
1.4974
1.49777
1.49774
1.49717
1.49657
1.49629
1.4963
1.49687
1.49772
1.49805
1.49817
1.49818
1.49819
1.49835
1.49866
1.49933
1.50016
1.50036
1.50029
1.50008
1.49991
1.49981
1.49984
1.5002
1.501
1.50132
1.50123
1.50098
1.50069
1.50043
1.50033
1.50054
1.50135
1.50206
1.50211
1.50174
1.50115
1.50052
1.5
1.49979
1.49986
1.50038
1.50059
1.50014
1.4993
1.49858
1.49797
1.49751
1.49731
1.49738
1.4977
1.49773
1.49726
1.49651
1.49597
1.49572
1.49544
1.49457
1.4934
1.49223
1.49113
1.49025
1.48978
1.48975
1.48997
1.48987
1.48883
1.48743
1.48619
1.48519
1.48447
1.48416
1.48434
1.48463
1.48419
1.48264
1.48079
1.47901
1.4774
1.47612
1.4754
1.47529
1.47553
1.47543
1.47422
1.47262
1.47107
1.4696
1.46813
1.46681
1.46596
1.46577
1.46589
1.46551
1.46363
1.46117
1.45874
1.45637
1.4541
1.45219
1.45111
1.45102
1.45138
1.45083
1.44868
1.44629
1.4442
1.44243
1.44085
1.43972
1.43934
1.43953
1.43937
1.43766
1.43523
1.43267
1.43012
1.42757
1.42485
1.4222
1.42036
1.41998
1.41974
1.41686
1.41234
1.40842
1.40525
1.40328
1.4023
1.4008
1.39871
1.39662
1.48977
1.48962
1.48988
1.49013
1.48982
1.48913
1.48863
1.48838
1.4884
1.4889
1.48967
1.48983
1.4897
1.48951
1.48947
1.48945
1.48963
1.49009
1.49034
1.49021
1.48971
1.4891
1.48869
1.48861
1.48888
1.48965
1.48989
1.48957
1.48888
1.48805
1.48746
1.487
1.48673
1.48682
1.48758
1.48821
1.48803
1.48698
1.48569
1.48466
1.48385
1.48345
1.48345
1.48358
1.48315
1.48196
1.48069
1.47972
1.47922
1.47912
1.47919
1.47877
1.47748
1.47619
1.47512
1.47435
1.47412
1.47423
1.47402
1.47266
1.47087
1.46909
1.46718
1.46528
1.46346
1.46205
1.46143
1.46096
1.45935
1.45726
1.45546
1.45401
1.45276
1.45203
1.45201
1.45215
1.45115
1.44859
1.44577
1.44296
1.44025
1.43796
1.43672
1.43671
1.43721
1.43659
1.4348
1.4327
1.43047
1.42848
1.42641
1.42435
1.42282
1.42242
1.42261
1.42152
1.41824
1.41465
1.41105
1.40747
1.40397
1.4011
1.39973
1.39991
1.40007
1.39816
1.39522
1.39226
1.38962
1.38755
1.3859
1.38506
1.38523
1.38566
1.38464
1.38213
1.37908
1.37594
1.37312
1.37004
1.36721
1.36554
1.36424
1.36085
1.35564
1.35032
1.34534
1.3413
1.33916
1.33807
1.33604
1.33369
1.47929
1.47799
1.47696
1.47647
1.47653
1.47685
1.47669
1.47595
1.47525
1.47482
1.47463
1.47475
1.47531
1.47554
1.47526
1.47459
1.47407
1.47371
1.47346
1.47335
1.47311
1.47223
1.4711
1.47017
1.4695
1.46926
1.46947
1.46981
1.46945
1.46828
1.46673
1.46541
1.4643
1.46329
1.46263
1.46245
1.46259
1.46268
1.462
1.46034
1.45858
1.45697
1.45559
1.45462
1.45388
1.45279
1.45125
1.44986
1.44904
1.44895
1.44887
1.44743
1.44536
1.44333
1.44144
1.43974
1.43848
1.43812
1.43878
1.43926
1.43834
1.43635
1.43369
1.43091
1.42844
1.4258
1.42345
1.4223
1.42187
1.41972
1.41609
1.41282
1.41008
1.40805
1.40666
1.40641
1.40669
1.40584
1.40303
1.39953
1.39573
1.39165
1.38761
1.38482
1.38438
1.38499
1.38433
1.38235
1.38019
1.37732
1.3745
1.37235
1.37002
1.36833
1.36815
1.36845
1.36675
1.3627
1.3583
1.35375
1.3494
1.34485
1.34103
1.33965
1.33997
1.33896
1.33585
1.33261
1.32924
1.32644
1.32421
1.32249
1.32205
1.32252
1.32219
1.32023
1.31754
1.31464
1.31206
1.30918
1.3063
1.30431
1.3024
1.29854
1.29344
1.28809
1.28259
1.27737
1.27362
1.27202
1.2703
1.26765
1.46163
1.46027
1.45831
1.45638
1.4553
1.45474
1.45485
1.45514
1.45442
1.45289
1.45159
1.45085
1.45053
1.45067
1.451
1.4506
1.44941
1.4482
1.44719
1.44619
1.44555
1.44507
1.44365
1.4417
1.43997
1.43855
1.43741
1.43679
1.43677
1.4366
1.4351
1.43312
1.43122
1.42944
1.42765
1.42591
1.42438
1.42355
1.42364
1.42381
1.42214
1.41904
1.41627
1.41379
1.41143
1.40922
1.40721
1.40568
1.40529
1.40581
1.40549
1.40302
1.39999
1.39691
1.3941
1.39142
1.38909
1.38774
1.38794
1.38926
1.38902
1.38746
1.38464
1.38111
1.3786
1.37656
1.37466
1.37378
1.37366
1.37206
1.36778
1.36327
1.35905
1.35486
1.35118
1.34965
1.34987
1.34939
1.34712
1.34403
1.33997
1.33605
1.33149
1.32677
1.3238
1.32343
1.3225
1.32
1.31782
1.31506
1.3121
1.31026
1.30831
1.30678
1.30665
1.30704
1.30545
1.30158
1.29723
1.29266
1.28867
1.28418
1.27989
1.27765
1.27693
1.2746
1.27137
1.26825
1.26502
1.26249
1.26007
1.25807
1.25735
1.25711
1.25571
1.25363
1.25138
1.24921
1.24719
1.24478
1.24238
1.24045
1.23799
1.23399
1.22955
1.22507
1.22046
1.21593
1.21246
1.21068
1.20856
1.20557
1.42898
1.42909
1.4277
1.42555
1.42313
1.42137
1.42022
1.41987
1.41967
1.41811
1.4158
1.41396
1.41279
1.41211
1.41182
1.41124
1.41001
1.40859
1.40704
1.40549
1.4045
1.40396
1.40212
1.39904
1.39595
1.39337
1.39153
1.38992
1.389
1.38909
1.38922
1.38764
1.38495
1.38211
1.37918
1.37676
1.37438
1.37226
1.37131
1.37153
1.37106
1.36776
1.36366
1.35968
1.35591
1.35284
1.3503
1.34849
1.34821
1.34886
1.34804
1.34493
1.34111
1.33724
1.33373
1.33007
1.32698
1.32555
1.3259
1.32642
1.32497
1.32254
1.31938
1.31575
1.31404
1.31354
1.3135
1.31427
1.31445
1.313
1.31021
1.307
1.30353
1.29892
1.29362
1.28972
1.28757
1.28456
1.28177
1.27885
1.27528
1.27238
1.26933
1.26573
1.26282
1.26098
1.25718
1.25281
1.24963
1.24663
1.24464
1.24364
1.24255
1.24223
1.24265
1.24213
1.23922
1.23564
1.23166
1.22831
1.2255
1.22227
1.21941
1.21779
1.21523
1.21108
1.20783
1.20488
1.2026
1.20074
1.19871
1.19712
1.19601
1.19412
1.19182
1.18974
1.18795
1.18653
1.18491
1.18317
1.1814
1.17926
1.17607
1.17239
1.1689
1.16565
1.16261
1.15999
1.15825
1.15674
1.15398
1.15117
1.38187
1.38304
1.38248
1.38021
1.37736
1.37429
1.3718
1.37005
1.36888
1.36843
1.36748
1.36487
1.36236
1.36024
1.35833
1.35676
1.35544
1.35402
1.35263
1.35176
1.35153
1.35055
1.34699
1.34272
1.33852
1.33505
1.33271
1.33093
1.3302
1.33062
1.33087
1.32929
1.3265
1.32328
1.32001
1.31732
1.31456
1.31221
1.31115
1.31116
1.30998
1.30604
1.30143
1.29689
1.29282
1.28941
1.28687
1.28583
1.28607
1.28581
1.28324
1.27977
1.27581
1.27207
1.26833
1.26471
1.26194
1.26087
1.26044
1.2583
1.25494
1.25155
1.24821
1.24592
1.24473
1.24458
1.2456
1.24707
1.24786
1.24805
1.24724
1.24585
1.2447
1.24246
1.23848
1.23292
1.22662
1.21925
1.21437
1.21092
1.20862
1.20731
1.20597
1.20469
1.20359
1.20081
1.19454
1.18874
1.18432
1.18183
1.18105
1.18052
1.18046
1.18091
1.18042
1.178
1.17496
1.17152
1.16872
1.16696
1.16534
1.16401
1.16312
1.16142
1.15726
1.15312
1.15015
1.14786
1.1464
1.14502
1.14364
1.14231
1.14036
1.13785
1.13559
1.13383
1.13247
1.13131
1.13031
1.12917
1.12739
1.12492
1.12208
1.11923
1.11675
1.11487
1.11369
1.11304
1.11203
1.1101
1.10803
1.10616
1.32459
1.32513
1.32411
1.32091
1.31723
1.31336
1.31031
1.30832
1.30664
1.3061
1.3062
1.30457
1.30096
1.29735
1.29373
1.29121
1.28975
1.28851
1.28777
1.28771
1.28724
1.28457
1.2805
1.27621
1.27206
1.26816
1.26543
1.26444
1.26466
1.2648
1.26357
1.26164
1.25936
1.25701
1.2547
1.25209
1.24966
1.24801
1.24714
1.24533
1.24172
1.2378
1.23394
1.23032
1.22703
1.2245
1.22333
1.22322
1.22239
1.21992
1.21701
1.21406
1.21084
1.20741
1.20413
1.20161
1.20034
1.19906
1.19655
1.19369
1.19067
1.18718
1.18334
1.18058
1.18019
1.1806
1.18115
1.18204
1.18353
1.18517
1.18646
1.18785
1.18809
1.18768
1.18588
1.18112
1.1729
1.16233
1.15456
1.15151
1.15078
1.15069
1.15109
1.15111
1.14941
1.1457
1.14107
1.13616
1.13227
1.1303
1.12975
1.12995
1.13
1.12888
1.12681
1.12412
1.12102
1.11891
1.11753
1.11653
1.11622
1.11613
1.11508
1.11239
1.10914
1.1062
1.10391
1.10232
1.10122
1.10014
1.09889
1.0973
1.09538
1.09336
1.09157
1.0902
1.08926
1.08841
1.0873
1.086
1.08446
1.08254
1.08039
1.07845
1.07724
1.07685
1.07656
1.07584
1.07494
1.07377
1.07227
1.07107
1.2643
1.26345
1.26018
1.25629
1.25221
1.24874
1.24668
1.24505
1.24396
1.24383
1.24353
1.24103
1.23713
1.23256
1.22885
1.22634
1.22453
1.22365
1.22313
1.22193
1.22001
1.21707
1.21365
1.21048
1.2069
1.2038
1.20198
1.20074
1.19893
1.1972
1.19547
1.19382
1.19267
1.19136
1.18981
1.18824
1.18687
)
;

boundaryField
{
    inlet
    {
        type            fixedValue;
        value           nonuniform 0();
    }
    outlet
    {
        type            inletOutlet;
        inletValue      nonuniform 0();
        value           nonuniform 0();
    }
    bottom
    {
        type            symmetryPlane;
    }
    top
    {
        type            symmetryPlane;
    }
    obstacle
    {
        type            zeroGradient;
    }
    front
    {
        type            empty;
    }
    back
    {
        type            empty;
    }
    procBoundary6to5
    {
        type            processor;
        value           nonuniform List<scalar> 
15
(
1.61661
1.6135
1.607
1.59354
1.57542
1.57542
1.55936
1.54499
1.53123
1.51959
1.51052
1.50381
1.49711
1.4904
1.48111
)
;
    }
    procBoundary6to7
    {
        type            processor;
        value           nonuniform List<scalar> 
19
(
1.46058
1.4835
1.53756
1.58563
1.58563
1.60469
1.60493
1.59288
1.5655
1.53173
1.49529
1.44967
1.39469
1.33131
1.26526
1.20314
1.14898
1.1046
1.07038
)
;
    }
    procBoundary6to13
    {
        type            processor;
        value           nonuniform List<scalar> 5(1.46172 1.42774 1.38143 1.32466 1.26435);
    }
    procBoundary6to14
    {
        type            processor;
        value           nonuniform List<scalar> 
133
(
1.18456
1.181
1.17758
1.17424
1.17096
1.16807
1.1658
1.16439
1.16366
1.1625
1.16056
1.15827
1.15624
1.15408
1.15163
1.14904
1.14658
1.14472
1.14315
1.1412
1.13932
1.13759
1.13589
1.13394
1.13135
1.12837
1.12534
1.12327
1.12299
1.12301
1.12337
1.12465
1.12726
1.13128
1.13465
1.13524
1.13503
1.13382
1.13032
1.12343
1.11375
1.10602
1.10385
1.10376
1.10368
1.10353
1.10294
1.10123
1.09885
1.09685
1.09439
1.09221
1.09115
1.09045
1.08923
1.08778
1.08601
1.0836
1.08154
1.08007
1.07889
1.07825
1.07811
1.07789
1.07689
1.07536
1.07358
1.07164
1.06987
1.06849
1.06747
1.06656
1.06555
1.06451
1.06326
1.06187
1.06055
1.05957
1.05872
1.05779
1.05691
1.05589
1.05473
1.05364
1.05231
1.05105
1.05035
1.05025
1.05009
1.04965
1.04917
1.04856
1.04754
1.04638
1.04593
1.19499
1.19221
1.18939
1.18676
1.18477
1.18343
1.18233
1.18189
1.182
1.18163
1.17983
1.17736
1.17452
1.17173
1.16922
1.16723
1.1661
1.16511
1.16379
1.16236
1.16047
1.15865
1.15678
1.15463
1.15263
1.15089
1.14851
1.1458
1.14327
1.14119
1.13987
1.13906
1.13843
1.13797
1.1373
1.13583
1.18456
1.13355
)
;
    }
}


// ************************************************************************* //
