/*--------------------------------*- C++ -*----------------------------------*\
  =========                 |
  \\      /  F ield         | OpenFOAM: The Open Source CFD Toolbox
   \\    /   O peration     | Website:  https://openfoam.org
    \\  /    A nd           | Version:  7
     \\/     M anipulation  |
\*---------------------------------------------------------------------------*/
FoamFile
{
    version     2.0;
    format      ascii;
    class       surfaceScalarField;
    location    "0.622";
    object      phi;
}
// * * * * * * * * * * * * * * * * * * * * * * * * * * * * * * * * * * * * * //

dimensions      [0 3 -1 0 0 0 0];

internalField   nonuniform List<scalar> 
18389
(
-7.97428e-05
7.97428e-05
4.34696e-05
-4.34696e-05
-5.20441e-05
5.20441e-05
4.00624e-05
-4.00624e-05
-5.18223e-05
5.18223e-05
-3.99725e-05
3.99725e-05
-3.4531e-05
3.4531e-05
3.88115e-05
-3.88115e-05
-3.5317e-05
3.5317e-05
4.15661e-05
-4.15661e-05
4.48839e-05
-4.48839e-05
-3.44789e-05
3.44789e-05
-1.32309e-05
1.32309e-05
-4.28096e-05
4.28096e-05
4.33862e-05
-4.33862e-05
2.34235e-05
-2.34235e-05
1.73189e-05
-1.73189e-05
4.58861e-05
-4.58861e-05
4.59248e-05
-4.59248e-05
4.33603e-05
-4.33603e-05
-4.25896e-05
4.25896e-05
3.52926e-05
-3.52926e-05
4.29692e-05
-4.29692e-05
-5.84934e-05
5.84934e-05
-4.97036e-05
4.97036e-05
-4.18353e-05
4.18353e-05
-4.45325e-05
4.45325e-05
4.56142e-05
-4.56142e-05
4.58425e-05
-4.58425e-05
4.41328e-05
-4.41328e-05
-4.13308e-05
4.13308e-05
-6.30712e-05
6.30713e-05
4.31162e-05
-4.31162e-05
-4.47384e-05
4.47384e-05
4.08602e-05
-4.08602e-05
4.66869e-05
-4.66869e-05
-4.55486e-05
4.55486e-05
5.35852e-05
-5.35852e-05
-5.89281e-05
5.89281e-05
3.78786e-05
-3.78786e-05
4.48824e-05
-4.48824e-05
4.53863e-05
-4.53862e-05
-4.10072e-05
4.10072e-05
4.49062e-05
-4.49061e-05
4.58618e-05
-4.58618e-05
-4.5846e-05
4.5846e-05
-4.58438e-05
4.58438e-05
-4.0655e-05
4.0655e-05
-4.58782e-05
4.58782e-05
4.59302e-05
-4.59302e-05
4.59478e-05
-4.59478e-05
4.46128e-05
-4.46128e-05
3.77307e-05
-3.77307e-05
-4.57644e-05
4.57644e-05
-5.55434e-05
5.55434e-05
-4.38141e-05
4.38141e-05
4.575e-05
-4.575e-05
-4.59924e-05
4.59924e-05
4.32273e-05
-4.32273e-05
-5.93205e-05
5.93205e-05
-4.71468e-05
4.71468e-05
4.96055e-05
-4.96055e-05
4.57284e-05
-4.57284e-05
-8.53649e-06
8.53651e-06
4.57742e-05
-4.57742e-05
4.15505e-05
-4.15505e-05
5.12067e-05
-5.12067e-05
-4.58654e-05
4.58654e-05
4.23191e-05
-4.23191e-05
3.12348e-05
-3.12348e-05
4.26079e-07
-4.2608e-07
-4.40989e-05
4.40989e-05
3.28689e-05
-3.28689e-05
-3.65733e-05
3.65733e-05
3.9675e-05
-3.9675e-05
2.66256e-05
-2.66256e-05
2.61984e-05
-2.61984e-05
2.70494e-05
-2.70494e-05
2.4399e-05
-2.4399e-05
1.28785e-05
-1.28785e-05
0.00107531
-0.00088289
-0.000192418
0.00546634
-0.00207499
-0.00339134
-0.00594645
0.00594645
-2.48589e-09
0.00335424
-0.00259965
-0.000754594
-0.00155815
0.00176853
-0.000210376
-0.00676322
0.00284575
0.00391748
0.0012144
0.00425195
0.00725558
-0.00587596
-0.00137962
0.00119528
-0.00191499
0.00071971
-0.000867402
-0.000690754
-0.00144214
-0.000314619
0.00175676
0.000136786
1.60646e-06
-0.000138393
0.000778545
-0.00222069
-0.003603
0.000121804
0.00348119
-0.00320236
0.00289371
0.000308656
-0.00572284
0.00725863
-0.0015358
-0.0037087
0.00289722
0.000811469
-0.000563413
-0.00303959
-0.00174977
0.00239016
-0.000640381
-0.00046351
0.00255887
-0.00209535
-0.00161182
0.00111423
0.000497591
0.000583523
0.000581836
-0.00159663
-0.0051666
0.0012782
-0.00182392
0.000545727
0.00578034
-0.00386114
-0.00191919
-0.000668731
0.00331301
-0.00264428
-0.00583485
0.00583518
0.000476348
0.00129218
-0.00633589
0.000977717
0.00535818
0.00232008
-0.00298881
-0.00378955
0.00311382
0.000675723
0.00214826
-0.00422325
0.00108775
-0.000201248
-0.000886506
0.00150719
-0.00128991
-0.000217277
-0.00280214
-0.000400215
0.0053516
-0.00535001
0.000370067
0.00113712
0.00522784
-0.00133648
-0.00389136
0.00198573
-0.000790447
0.00308568
0.0019087
-0.00499437
-0.000721325
-0.00306823
-8.84617e-05
-0.000155858
0.000244319
0.00393575
0.00331983
0.00115818
-0.00488096
0.00372277
0.00162616
0.00360168
-0.00498234
0.00632101
-0.00133867
-0.00114485
-0.000585203
0.00173006
0.00133826
0.00201597
0.000135293
0.000103625
-0.000238918
0.00502115
-0.00339499
0.00645812
-0.000839774
-0.00561835
0.00321626
-0.00266105
-0.000555209
0.00221736
0.000452003
-0.00266937
0.00295229
-0.000734925
0.00650377
-0.00539837
-0.00110539
0.000497395
-0.00385851
0.00336112
6.86527e-05
0.00638948
0.00479717
-0.00429977
-0.000535782
0.0010594
-0.000523611
-0.00176458
0.000619727
0.00191707
0.0022491
-0.00416616
0.000253425
-0.000333625
8.02002e-05
-0.00126056
-0.0028477
0.00410826
-2.62997e-05
0.00653008
-0.00281493
0.00229738
0.000517554
0.000389035
-1.19048e-05
-0.000377131
-0.00569233
-0.000254119
0.00188302
-0.00140667
0.000827578
0.00495276
0.000896715
0.000178597
0.00264508
-0.00645762
0.00381254
-0.0011202
0.000584419
0.00264068
-0.00390124
0.00619676
-0.002261
0.0010921
0.00117728
-0.000771458
0.00103615
-0.000264693
-0.00111263
-0.000499189
0.00188631
0.00132995
-0.000594868
0.00142965
-0.00123743
-0.000192212
-0.00265694
0.00199097
0.000665974
0.0011668
0.000262847
0.00112923
-0.00496645
0.00383722
-0.00475477
0.00141456
0.0033402
-0.0045544
0.00611807
-0.00156367
-0.00506277
8.04317e-05
-0.00202203
-0.000634908
-0.0002151
0.000126638
-0.00122035
0.00464385
-0.00342351
-0.00120996
-0.000705032
0.000103304
-0.000192022
8.87178e-05
0.000126284
-2.29798e-05
-0.00125605
0.00463492
-0.00337887
-0.000156221
2.45527e-05
0.000131668
-0.00556833
0.00170719
-0.00119701
-0.000567566
-0.000449428
-1.89253e-05
0.000468352
-0.000543232
9.38031e-05
0.00101219
7.55645e-05
-0.00181203
0.000615013
-0.000150243
1.72753e-05
0.000132967
0.001368
-0.00234447
0.000976467
0.000271105
-0.000135811
-0.00392551
0.00513991
-0.0024567
0.000706937
-9.32974e-05
-0.000416519
0.000509817
0.00568643
-0.00216905
-0.00351738
7.87034e-05
0.00250628
-0.00258499
0.00445939
-0.00560893
0.00114954
0.00263518
0.00305124
0.0029141
-0.0028354
-0.0061453
0.000422464
-0.00644978
0.0036176
0.00283219
0.00229319
0.00390357
-0.00438855
0.00137561
0.00301293
0.001499
-0.000220802
-0.00102336
0.00401917
-0.00299581
0.00463878
-0.00162528
-0.00301351
-0.00460012
0.00374787
0.000852259
0.0036935
-0.00502999
5.8694e-05
0.000330342
-0.00137191
0.00583131
-9.09199e-05
0.00214873
-0.0020578
-0.00206847
0.00261178
0.000169236
-0.00278101
-0.00127741
0.00264541
-0.000643037
0.00325481
0.0016429
-0.00173382
0.00089858
0.00397182
-0.00487041
-0.0050419
0.00384274
0.00119916
0.00255191
-0.00359409
0.00104219
-0.00332064
0.0041159
-0.000795257
0.000348847
-0.00366949
-0.000897281
0.000897281
-0.000451979
0.000358681
-0.000126962
-0.000973464
0.00110042
0.00506975
-0.00184234
-0.00322741
-0.00243252
-0.000369634
0.00290071
0.000157904
1.64989e-05
-0.000174403
-0.00147041
0.00112637
0.000344038
-0.00014217
-0.00489973
0.00504777
-0.00388959
0.000220187
-8.34009e-05
0.00444337
0.000577785
0.00406759
-0.00151567
0.00016501
-7.10581e-06
-0.0063318
-0.000991216
-0.000820811
0.00430041
-0.00190386
-0.00239655
0.00275685
0.00154356
0.00107762
-0.00563201
-0.00226426
-0.000550664
-0.0011215
-0.000957291
0.00207879
4.24789e-05
-0.00272359
0.00268111
-0.00235975
0.00123824
-0.00221809
0.00530377
-0.00461617
0.00159751
0.00301867
0.00254876
0.000678742
-0.000338243
-0.0003405
-0.00601527
0.000582726
0.00543255
-0.00418564
0.00582578
-0.00164014
0.00182532
0.00162999
-0.00345531
-0.00167623
0.000901604
0.000774621
-0.00271573
0.00208396
0.000631766
0.00111733
0.000765688
0.000247199
-0.000328941
8.17435e-05
0.00489139
-0.00399281
-0.00638785
0.00557804
0.000809819
-0.00478575
-0.00166404
0.00334697
0.000633615
-0.00398058
0.000154005
-0.000162205
8.19909e-06
0.000590435
-0.000125263
-0.000465171
-0.0045181
0.00261424
0.000382737
-0.000566776
0.000184039
4.83256e-05
-0.000945609
-0.00257574
0.00448445
-0.00530478
-0.000322445
0.00562723
0.000235268
0.000168206
-0.000403473
0.00094919
-0.00094919
0.00168522
-0.000724758
-0.00211056
0.0018171
0.000293452
0.00439884
-0.00302323
-0.000162454
6.2338e-06
-0.00122895
0.00127727
0.000688889
0.00129685
0.00235031
-0.000266337
-0.00401858
-0.00128619
0.00112022
-0.00497875
0.00321235
-0.0044684
0.000834299
-0.00213579
0.0013015
0.00335984
-0.00458019
-0.00271065
-0.00180746
-0.00483662
0.00469444
-0.000676396
-0.00533887
-0.00515906
0.00148195
-0.00147852
-3.42992e-06
0.00223275
0.000117549
-0.00601436
0.00204861
0.00396576
-0.00121934
0.000526011
0.000693326
0.00144977
0.00294908
-0.00462604
-0.00101401
0.00564006
-0.00021284
0.000138545
7.42941e-05
-0.00551158
0.00132593
0.00375314
-0.00493691
0.00118377
-0.0014938
-0.000616754
-0.000536678
-0.000637503
0.000138344
-0.00020381
6.54648e-05
0.00498675
-0.00385753
-0.00130079
0.00512565
-0.00382486
-0.000396768
-0.000832178
-0.00586114
0.00043951
0.00539566
-0.00616573
0.0045691
-0.000922456
-0.0054654
-0.00109555
-0.000374864
-0.00181812
0.00285739
-0.00103928
-0.000419114
0.000322016
9.70978e-05
-0.00173206
0.00141744
0.00161624
-0.000134292
0.000825885
-3.67508e-05
-0.00169531
0.00279644
0.00121715
-0.00303526
0.00605419
-0.000476148
0.00528184
6.97584e-05
-0.00528135
0.00439139
0.00114373
-0.00553512
0.000556516
-0.000768825
0.00021231
-3.8827e-05
-0.000413152
-1.26817e-05
0.00606687
-0.000162177
0.000156821
5.35592e-06
0.000133412
2.0593e-05
0.00254004
-0.00335663
0.000816593
-0.00191147
0.000707379
0.00120409
0.00792201
-0.00345695
-0.00446506
0.00117034
0.0012657
-0.00243604
0.000107123
-0.00017307
6.59469e-05
-0.000805871
0.00133188
0.00115897
0.00318277
-0.00434174
-0.0056144
0.000165602
0.00544879
-0.00401816
0.00299481
0.00173476
0.00479531
0.00458778
0.00333422
-2.14282e-05
0.000191853
-0.000170424
-0.00130391
0.00439436
-0.00309045
0.000300683
-0.00033951
-0.000131348
-8.14911e-05
0.00410156
-0.00227626
0.00475928
-0.00501265
0.000253367
-0.00322642
0.00605639
-0.00282997
0.00252781
0.00157375
0.00575691
-0.000997627
-0.00139504
-0.00562099
0.00137242
0.00424857
0.000654805
0.00052048
-0.00117528
0.00126948
-0.000614677
0.000585484
-0.00111019
0.00052471
0.00110597
0.000274659
0.000404083
-0.00067822
0.00443137
0.00151962
-0.000393246
0.00352583
-0.00611709
0.00259127
0.00153436
-0.00258513
0.00105077
-0.00431789
0.00116245
0.00315543
0.00291603
-0.00421994
-0.00491254
-0.00125319
-0.00409811
0.00126613
0.00283198
0.00124565
0.00314871
-0.0032646
-0.000833515
0.00222727
-0.00105694
-0.00067745
-0.00253368
0.00321112
0.00240898
0.000615588
-0.00302457
-0.00158963
0.00120203
0.000387592
0.000269924
0.00149132
-0.00196457
0.000473255
-0.00011093
-0.000222696
-0.000264518
0.000153589
-0.00435213
-0.000247993
-0.00029266
0.00117335
-0.000880691
0.00435144
-0.00464504
0.000293598
-8.84132e-05
0.000117759
-2.93452e-05
0.000971942
0.00338188
-0.00435382
-0.000156999
6.8586e-05
-0.00475194
0.000710353
0.0040416
-0.000750067
0.000118747
0.000631318
8.64841e-05
-8.48775e-05
-0.000400488
0.000864672
-0.000347471
-0.000517201
-0.00603589
0.000637514
-0.00254967
-0.000128177
0.00267784
-0.00316961
0.00441525
0.00218084
-0.00108874
-0.00116719
-0.0011789
-3.10587e-05
-0.00351921
-0.00123555
0.00151818
-0.000416901
-0.00110127
0.00191924
0.00183842
-0.00375767
0.00504291
-0.00161054
-0.00343237
0.000790085
-0.00541613
-0.00137333
0.00300332
0.00195672
0.000785545
-0.00274226
-0.0034988
0.00447074
-0.00015299
2.74721e-06
0.000934288
-0.00443308
-0.00449722
-0.000147829
-0.000998069
-0.00461632
0.00462691
0.00148602
0.00355689
0.00415965
0.0011422
-0.00530185
3.64526e-05
5.93268e-05
-9.57794e-05
-0.00140934
0.00336606
0.00370728
0.00355136
-0.00140169
0.00237135
-0.000969658
-0.00248221
0.00046018
-0.000878403
0.00075144
-0.000191034
0.000426302
-0.000210661
0.00170198
0.00376365
-0.00184441
-0.00107938
-0.000596853
-0.000107255
-0.000157263
0.00355047
-0.00163339
-0.0024037
0.0046528
0.000674503
-0.00309589
0.00242139
0.000650774
0.000764349
-0.00105701
0.0021
-0.00131058
-0.00327445
0.00458502
-0.00216734
0.00481242
-0.000552371
0.00344608
0.000238925
-0.00022165
-0.00236413
0.000962447
0.00231508
-0.00386758
0.00155251
-0.00122259
5.80529e-05
-2.16004e-05
0.00214791
-0.00279845
0.00065055
-0.00116975
-0.000419874
-0.00352469
0.00450241
0.00118871
0.00168071
-0.00286942
-0.0016912
0.00366433
-0.00197313
0.0042399
-0.000858025
0.000234331
1.41127e-05
-0.000248443
-0.00372247
0.00203127
-0.00142531
0.00471627
-0.00329096
0.000877994
0.00130284
0.000139058
0.00081013
0.000253051
-0.000300758
4.77071e-05
0.00169115
0.000214658
-0.00190581
0.00302021
-0.00458691
0.0015667
-5.28554e-05
0.000374308
-0.000321453
0.00156417
-0.00036214
0.00141093
-0.000608001
-0.000802924
0.00282459
-0.00392464
0.00110005
0.00268136
-0.00374266
0.00106131
-0.00515828
0.00193187
0.00390003
-0.00087982
-0.000631742
-0.00237844
0.00301018
0.001407
-0.00511769
0.00371068
0.00336053
-0.00145892
-0.00190162
-0.000686235
0.00173025
-0.00104401
0.00477149
-0.00303673
-0.000701265
-0.00195977
-0.00598196
0.00514219
3.89075e-06
0.000121773
-0.000125663
-0.00157807
0.00120134
0.000376735
-0.00490817
0.00630904
-0.00140088
-0.00188525
0.000717381
0.00116787
0.000406993
0.00268622
-0.00208788
-0.000598337
0.00343455
0.000489867
-0.00392442
0.000126669
-1.95458e-05
0.00517275
0.000336502
-0.00550925
-0.00194079
0.00379766
-0.00185688
0.00276806
-0.00063543
-0.00213264
0.000462546
0.000402126
-0.000437554
0.0038721
0.00202573
-0.00396652
0.000707241
-0.000265991
-0.00044125
-0.000643937
4.77333e-07
0.000643462
-0.00315202
-0.00576623
0.00576511
-0.000275681
0.000951093
-0.000675414
-0.00228912
-0.000193091
-0.00455104
0.00324045
-0.000868309
0.00112464
0.00360815
-0.00501976
0.00141161
0.000410683
-0.00296035
0.0023319
-0.00244018
0.000108268
-0.00157142
0.00148228
8.91484e-05
-0.00121101
-0.000367058
-0.00339207
0.00342721
-0.0022385
0.000457228
0.000133206
-0.00173569
0.00104945
-0.00279281
0.000738615
0.00205419
0.000242347
-8.01661e-06
-0.00347731
0.00102253
0.00245478
-0.00144362
0.00560327
0.000338624
-0.000955461
0.000616838
0.00212272
0.000645344
-0.00127774
0.000304283
0.00111621
0.0012157
-0.00142398
0.00495288
-0.00352889
-0.00485002
0.00576649
-0.000916471
-0.00117291
0.00228434
0.00410514
0.00107666
3.75605e-05
0.0058616
-0.00551907
-0.000342532
0.0035474
-0.00465692
0.00110952
0.00309047
-0.000681489
0.00542692
-0.00181877
-0.00250418
-0.000973124
-0.00218103
-0.000313595
0.00249464
0.00241412
-0.00196213
-0.00160818
-0.00424074
0.00274838
0.00149236
-0.000330704
0.00123231
0.00120944
0.00365547
-0.0048649
-0.000286041
0.000668778
0.00305957
-0.00238506
-0.00472431
-0.00125765
0.00647105
-0.0012983
0.00423818
0.00206213
0.000496739
0.00285526
-0.00212649
-0.000728769
0.00473688
-0.00245255
-6.88338e-05
-0.00332756
-0.000864924
0.00419249
0.000388211
-8.65264e-05
-0.000301684
-0.00514281
0.00610948
-0.000966661
-0.000728944
0.00190739
-0.00117845
-0.000697114
0.00525259
-0.00455548
0.00118579
-0.00191473
-0.000113666
-0.00576229
-0.000771458
0.00203456
0.00382704
-0.0002543
-0.00192674
0.000251402
-4.20236e-06
0.00036257
-0.000487833
0.00336061
-0.000820569
-0.0052263
-0.00027157
-0.000147544
0.000150206
-0.000133597
-1.66084e-05
-0.00248339
0.000123638
-0.00042126
0.00159583
-0.00101557
-0.000580261
0.00246538
0.000598543
-0.00306393
-0.000720115
0.00318549
-0.00520293
-0.000271505
0.00547443
0.0037509
0.00137475
0.00440715
-0.00122438
-0.000130562
0.00254469
0.00540385
-0.000206656
-0.0051972
-0.00608747
0.00425268
0.0018348
0.00321094
-0.00126783
-0.00435316
0.000202005
-0.000223433
0.000570009
0.000840914
0.00114034
0.00015028
-0.00129062
0.00421232
0.00119153
-0.000961072
0.00317169
-0.00221062
0.00472723
-0.00138027
-0.00217987
0.00279356
-0.000613685
-0.00117694
-0.000126525
0.000304767
-0.000178242
0.00344644
-0.00414356
0.00135175
-0.000990031
-0.000361712
0.00159859
-0.000397256
-0.00325119
0.00229011
0.00548697
-0.00434325
-3.06339e-05
0.000352651
-0.00535517
0.000446996
0.00543558
-0.00190975
-0.000999706
-0.00361511
0.00461482
-0.000646
0.00288258
-0.00223658
0.00549726
-0.00286245
-0.00263481
-8.83968e-05
0.000590867
-0.000677125
0.000660553
1.65712e-05
-0.000693819
0.00173353
-0.00103971
-0.00315001
-0.00116788
0.000155551
-1.72062e-05
-0.00122485
-0.0047895
-0.00307584
0.00239838
-0.000682199
-0.000266989
-7.26226e-05
-8.95541e-05
-0.00121695
-0.00080583
-0.00523006
-0.00283886
0.00219286
-0.000815747
0.00118581
0.00112478
0.0043696
-0.00549438
0.00338839
-0.00275477
0.000468622
0.000771807
-0.00288421
0.00211241
0.00498153
-0.00492752
-5.40072e-05
-0.00320948
0.00361556
-0.000406078
0.000207789
-9.56042e-05
-0.000112185
-0.00498067
-0.00147696
-0.00175946
0.0036902
-0.00193074
0.00298117
-0.00220936
-0.00378355
0.0020241
0.00139503
-0.00258173
0.00118669
-0.00363297
0.00568158
0.00649955
-0.00219618
-0.00430338
-0.00239893
0.00237533
2.36005e-05
0.00560533
-0.00163352
0.00118578
-0.000925585
-0.000260198
-9.10324e-06
0.000262154
0.000250744
-0.000774348
0.000523604
-0.00304898
0.0036508
-0.000969442
0.000848426
-0.00104967
0.00236401
-0.000632844
-0.00173117
0.00220376
-0.000512614
0.00452229
0.000631083
0.00173293
-0.00175802
0.00106421
0.000408599
-0.000464694
5.6095e-05
0.00221423
-0.00174518
-0.000469055
0.000826931
-0.00514777
-0.000544561
0.000369492
-0.000588346
0.000218853
-0.00410158
0.005474
0.000942123
-0.00111665
0.000174533
-0.00153011
0.00216428
-0.000634163
-0.00148875
-0.00275199
-0.00537715
-0.000157249
0.0055344
0.000299277
0.000108299
4.19079e-05
0.000127142
-0.000127117
-2.45889e-08
0.00410882
-0.00289939
-0.00379822
-0.00231887
0.00346657
0.00303299
-0.00259297
0.000721975
0.001871
-0.000844661
0.00223969
-0.00229776
-0.000101166
0.00272925
-0.00377736
0.00104811
0.0013094
-0.000136045
0.000461771
0.000550418
-0.00327788
0.000963335
0.00231455
0.000912333
-0.000605736
-3.82027e-05
-0.004273
0.00172169
0.000106141
-0.00182782
-0.00396488
0.00146342
0.00250145
0.000516458
0.00147616
-0.000906155
-0.000246633
-0.00466032
0.00490696
0.000784249
-0.00247672
0.00169247
0.00120221
0.00131231
-0.000463896
-0.00172247
0.00218637
0.00258003
-0.00179578
0.00446838
-0.00353409
-0.000767924
-0.00264104
-0.000227309
0.000251862
-0.000704929
0.00176613
-0.0010612
0.00266078
-0.0036664
0.00100561
0.000136432
2.03891e-05
-0.00236395
-0.000913941
0.00142119
-0.00163627
0.000215084
-0.0027749
0.000687019
0.0012762
-0.00141864
0.000142437
0.00161851
-0.00180773
0.000189222
0.000675389
-0.00372387
-0.00115708
0.00134457
-0.00489444
0.00354986
-0.000912796
0.00357357
0.00011889
-7.91933e-05
-3.96967e-05
0.00474649
-0.00362171
-0.000317559
-0.00152754
-0.00401179
-0.00149979
0.00209361
0.000699948
-0.00100861
-0.00092234
-0.00452229
-0.00162301
-0.00039857
0.00124379
-0.000931389
-0.000312406
-0.00149648
-0.00108867
0.00065598
0.00225821
-0.00291419
-0.000114278
0.000670793
-0.00071598
3.88552e-05
-0.00246025
0.00196645
0.00139408
-0.000683632
0.00162374
-0.000940105
-8.68611e-05
-0.000116948
0.000318211
-0.00194722
0.000453425
0.00161348
-0.00231084
0.000697361
-0.00333956
0.00258516
0.000754388
0.00120269
0.00241036
-0.00361305
-0.00175446
0.00104953
-0.0029419
-0.00102297
-0.000787038
-0.00255252
-0.00167781
0.00125462
0.00042319
0.00176668
-4.49893e-05
-0.000761651
-0.00243507
0.00319672
-0.000670087
0.00291417
-0.00225818
-0.000858531
-0.0039476
0.00480614
-0.00234241
0.00234024
2.16639e-06
-0.000750067
-0.00156167
0.000546104
-0.00240591
0.00381938
-0.00141347
0.00323294
0.00288512
0.000194352
3.62252e-05
-0.000230578
0.00234057
-0.000602606
-0.00173796
0.000188121
-0.00018423
-0.00358916
0.00493374
-0.00328932
0.0052401
-0.00195078
-0.00351008
-0.00150968
-0.000915281
0.00323215
-0.00231687
0.00285485
0.00177372
-0.00417964
-0.00499663
-0.000146178
-0.000785921
0.00284491
-0.00205899
-0.000431658
0.000378803
-0.000530669
0.00167597
-0.0011453
-0.00403037
0.0033428
0.000687563
-0.00326909
0.0023538
-0.00386811
0.00067408
0.00319402
0.00141139
-0.00101437
-0.000397019
-0.00589957
0.00069664
0.0018469
-0.00141117
-0.000435726
0.00142249
-0.000399061
-0.00102343
7.83754e-05
0.000129414
0.00293094
-0.000633556
-0.000216975
-0.00348771
-0.0003804
0.000428845
-0.00305666
-0.000973705
-0.00233694
-5.4664e-06
-0.00292415
0.00229241
0.000720546
0.00260213
-0.00332268
0.00058532
-0.000861001
0.00141031
-0.00671802
0.00530771
-0.00576969
0.000983935
-0.00233762
0.00354032
0.000693307
0.000257787
-0.00273301
0.00345355
-9.12301e-05
0.00507276
0.000610447
0.00170902
-0.00231947
-0.00177627
0.00124561
0.00274827
-0.00369518
0.000946899
0.0051005
0.000670383
0.00154384
0.000314829
0.000392411
-0.000364039
-0.000404786
0.000180994
-0.00174767
0.00176685
-0.000888858
0.000860003
0.000616156
-0.000582871
0.00301052
-0.00242764
-0.00150361
0.00184274
-0.000339123
-0.00489339
0.00380326
0.00109013
-0.00479807
0.00150875
-4.14644e-05
3.9293e-05
2.17138e-06
-0.00281173
-0.000854658
0.00108613
-0.00130015
0.000214028
0.00135277
-0.00494194
0.00112298
1.73589e-05
0.00123753
0.000694269
0.00218831
-0.00366733
0.000855606
0.000183867
-0.00503389
0.00190317
0.00122735
0.00068004
-0.00527359
-0.000492644
0.00565145
0.00118705
0.00710794
-0.00218515
-0.00492278
0.000792059
-0.000384344
-0.000407716
0.00071203
-0.00138289
0.000786038
-0.00386082
-0.00125687
0.000304767
-0.00094633
-0.00041197
0.0013583
0.0023313
0.00400854
-0.00486707
0.00270283
0.000834388
-0.00353722
0.00124958
-0.000964508
-0.000285072
0.000745102
0.00159546
-0.0001351
0.000138329
-3.22937e-06
-0.000709286
0.00288356
-0.00217427
0.00362193
0.00109434
-0.00126402
-0.000413787
0.00140389
-0.00152166
0.000117764
4.68773e-05
7.20128e-05
-0.00447791
0.000967828
-0.0016549
0.000443882
-0.00364871
0.00292858
-0.000950621
6.77305e-05
0.000933832
0.00268092
-0.00361475
0.000852558
-0.00126774
0.00418699
-0.00291925
0.000318189
0.00027987
4.65629e-05
-0.000326434
7.83762e-05
-0.00539154
0.00531316
-0.00263517
-0.000776311
0.00341149
-0.00348994
0.00261097
0.000878979
-0.00276351
-0.000262154
-0.00171427
-0.00490934
0.000897553
-0.00145643
-0.000880509
-0.00106278
0.00379203
0.00171045
-0.00372583
0.00201539
0.000104583
2.25594e-05
0.00372626
-0.00201581
0.00286389
0.000955541
-0.00381942
-0.00130422
0.00174166
-0.000437439
0.00357336
0.00109881
-0.00467217
0.00718203
-0.00197211
-0.00520992
-0.00212824
-0.000710613
-0.00173411
0.00234455
0.0037728
-0.00492616
0.00115335
-0.00280294
0.00373677
0.00115881
-5.22825e-05
-0.00110653
0.0014813
0.000908849
-0.00550787
0.000595328
0.00043591
0.000356148
0.00292152
-0.00112059
-0.00252166
0.0024815
4.01691e-05
0.000504661
-0.00184067
0.001336
-0.00387124
-0.00119153
0.00108947
-0.0025459
-0.00529911
0.000151343
-0.00125555
-0.000518475
0.00177403
0.00563326
-0.00449107
0.000104412
0.000283799
-0.00301735
0.00318659
0.00144142
-0.00107349
-0.000367925
0.00346867
0.00475734
-0.000954083
0.000639356
-0.00327452
0.00114096
-0.00102222
-5.28806e-05
0.000461479
0.000394027
-1.97186e-05
-0.00206358
-0.000449821
0.00153595
-0.000904792
-0.00349728
0.000764279
-2.877e-05
-1.26945e-05
0.00599843
-0.0049208
0.00522151
-0.00439393
-1.01105e-05
-0.000631318
0.000641428
0.00194891
-0.000458227
-0.00149068
0.00335874
-0.000756611
-0.00256817
0.00336082
-0.000792644
-0.00183427
0.000530049
0.00127855
-0.000952802
-0.000325752
-0.000118768
-0.000210173
0.00205932
-0.000548161
-0.00151116
-0.00138328
-0.00239459
-0.000127065
0.00209025
-0.0027458
0.000655553
0.00280706
-0.000750567
-0.0020565
0.00410309
-0.00434972
0.000314046
0.00223949
-0.000626015
-0.000681294
0.000836064
-0.00367636
0.00502912
0.0012346
0.000464455
-0.00172001
-0.00286316
0.00209778
0.00363311
0.0015884
-0.00114905
-0.0038291
-0.00113736
0.0013048
-0.0017179
0.000413096
0.00367599
-0.00318612
-0.000193898
0.00113602
-3.84268e-05
-0.0002701
0.000308528
-0.000691668
-0.00190131
0.00377228
-0.00490786
0.00113558
-0.00186436
0.00235365
-0.000489295
-0.00115388
0.00213268
0.000750868
-0.00226371
0.00375489
-0.00149119
0.00150706
-0.00114345
-0.000363617
-0.00102518
0.000275118
0.000172223
-0.000430657
0.000258434
-0.000426791
-0.00122811
-0.00247864
0.00250505
-2.64051e-05
0.00144774
-0.00371146
0.00162548
-0.000370858
0.000371716
-0.000418335
4.66185e-05
-0.000827327
0.000595072
0.000232255
-0.000794453
-0.00284723
0.000824291
0.00202294
-0.00199401
-0.000856137
-0.000713431
0.00156957
-0.00524294
0.00389537
0.00134757
-0.00129842
0.00128831
-0.000576398
-0.00011591
0.000692309
0.00286861
-0.000735933
-0.000770362
-0.000160217
0.000930579
0.00184171
-0.00137726
0.00169867
-0.000393866
-0.000157458
-0.000634792
-0.00420516
0.00483996
-0.00139615
0.00283101
0.00427693
-0.00239952
-7.91172e-05
0.00312233
-0.00473287
0.000733119
0.00158199
-0.00231511
0.00201368
-0.0027996
0.00198649
-0.000713668
-0.00127282
-0.00179614
0.000455749
0.00134039
0.00431589
0.00286615
-0.00551934
0.00133749
0.00418185
-0.00125171
-0.00399123
-0.000460034
-0.00133611
-0.00100308
-0.000558594
-0.00129303
-0.00042487
0.00114224
-0.000534651
0.00151096
-0.000976307
-0.00175726
0.00129723
-0.000944313
-0.000207373
0.00115169
0.00217118
-0.00286695
0.000695773
-1.17734e-05
0.000206125
0.00103653
0.00606181
-0.00140617
-0.00465564
-0.00203606
-0.00187473
0.00134505
0.00052968
0.00127164
-0.000979108
-0.000292527
-0.0022935
-0.00102588
0.00331939
-0.00267267
0.00358174
-0.000909071
-0.000919064
0.00112157
1.01524e-05
-0.00113172
0.00376145
-0.00493604
0.00117458
0.00174766
-0.00135563
-0.000392025
0.00242708
-0.00122486
0.00273566
-0.000636385
-0.000190942
-0.00409173
0.00229307
-0.00180254
-0.000490533
0.000560598
-0.00200949
0.00144889
-0.00251757
-0.000839058
0.000859793
-0.000658568
-0.000201226
-0.000179276
-0.00364361
0.000970934
0.000656674
-0.000484451
0.00259342
0.000988315
0.000318835
0.00131
0.00067649
-0.00160359
0.0023367
-0.00150592
0.000989489
0.000516433
0.00354793
-0.000684033
-0.00380973
0.00610292
-0.0011464
-0.00248894
0.00683515
-0.0043462
-0.00088777
0.00356869
-0.00414181
0.000932339
-0.00210128
0.00424954
-0.000687436
-0.0016234
-0.00244933
0.00171598
0.000733346
-0.00127909
0.000523988
-0.000538218
1.42306e-05
-0.00137652
-0.000776649
-0.00015359
0.00093024
-0.0015652
0.00136459
0.000200606
0.00204053
0.000804381
6.25926e-05
-0.00130003
-0.000554568
-0.000828323
-0.00241881
-0.000478197
-0.00139653
-0.000171221
0.00159241
-0.000180662
0.00341146
-0.000514244
0.00133879
0.000200499
-0.000813429
-0.00101049
-0.00193019
0.00247687
-0.000546685
-0.00104874
-0.00572891
0.00351082
0.00149204
-0.000632039
0.00288709
-0.00120638
0.000958257
-0.00135913
-0.00453038
0.0058895
0.00062016
-0.00255035
0.000740373
-0.0036872
0.00270045
0.000986752
0.00088981
-0.00142446
0.0022271
-0.00311856
0.000891446
0.0011953
-0.00342965
0.00223435
0.000860725
0.00168822
-0.00254894
-0.000174519
0.00179303
0.00274571
0.00108027
0.00362054
-0.000413525
0.000783016
0.00315975
-0.00402467
0.000981596
-0.00327509
0.000434648
0.00412483
0.00147684
-1.06537e-05
-0.000275905
0.000286558
-0.00619258
0.00385618
0.0023364
-0.000827354
-0.00261649
0.00344385
0.00263995
-0.00177922
-0.00369652
0.000893578
-0.00132161
-0.000435651
-0.000152776
0.00131958
0.00372589
0.00122698
0.000223408
0.00130962
-0.00099354
-0.000316079
0.000909178
0.000582865
-0.000313836
0.00376807
-0.00493339
0.00116533
0.00307698
-0.000849881
-0.0013989
0.00190356
0.00125955
-0.00355479
0.00229525
-0.00116798
0.00145641
0.00067808
-0.00213449
0.000192455
-0.000203109
0.0021985
-0.000860237
-0.00125291
0.00033051
0.000927392
-0.000349809
-0.000577583
0.00353275
-0.0022732
-0.000507496
0.00229186
-0.00178437
0.00102155
-0.00296681
0.00208599
0.000880827
0.000105396
-8.13679e-07
0.00466761
0.00053779
-0.0057044
-0.00519381
0.00392654
0.00126728
-0.00107719
-0.00269504
0.00377222
0.00222133
0.00372512
0.00282735
-0.00375363
0.000926287
-0.00146968
0.00110262
-0.000951322
0.00337297
-0.00242165
0.00149724
0.000562082
-0.00378475
-0.00240783
0.0010733
-0.00230398
0.00321202
-0.000908044
0.00343278
-0.000821803
0.000397373
-0.000806708
0.00254434
0.000888434
-0.000634843
0.00431083
-0.00130941
0.00171642
-0.000407012
0.0019925
-0.00128512
-0.000389398
0.0060768
-0.00491255
-0.000464594
0.000858261
-0.00246185
-0.00539157
-0.00172304
0.000413623
-0.000678149
0.00010175
-0.000869165
0.000214412
-0.00147075
0.000662233
0.00157726
-0.000905438
0.000135075
0.00080495
0.00251614
-0.0033211
-0.00109513
0.00187367
-0.00194706
-0.000474201
0.00196116
-0.00148696
-0.000878782
-0.00208802
-0.00195175
0.00147755
-0.00265769
0.00346263
-0.00164598
0.000586227
0.00105976
-0.000977774
0.0035712
0.00601168
-0.0023044
-0.00130403
-0.000419001
-0.00173961
0.00110194
0.000637671
0.000904218
-0.00451912
0.00361491
-0.00131719
0.000543282
0.000773901
-0.0040338
-0.00116002
0.000191924
-0.00113623
0.00193537
-0.000708023
-0.00134487
-0.00380115
0.00514602
0.00100544
7.12203e-05
0.0032971
-0.00252831
-0.000768784
0.000145036
0.00127745
0.000877413
-0.0006701
-0.000207313
-0.00134757
-0.00101656
-0.00107692
0.00511414
-0.00403721
0.000632184
-0.00249655
0.00015549
0.0012484
0.00377297
-0.00496103
0.00118806
0.00287673
-0.00205244
0.000101942
-0.000168257
6.63155e-05
0.00102776
0.000138078
0.000104269
0.00235756
0.00370425
-0.000581573
-0.000811053
0.00139263
0.00065309
0.00177169
-0.00242478
0.00240127
-0.00170828
-0.000692985
0.000475514
0.00147339
0.000426046
-0.000516353
-0.000800831
0.000600188
-0.0053245
0.000690328
-2.97748e-05
-0.00116041
-0.0013114
-0.00379232
0.00510371
0.00103389
0.00143729
-0.00189551
0.00254648
-0.000394967
-0.0049088
0.00530377
0.00012076
-1.88183e-05
0.000652032
0.00128334
0.00272954
0.000942473
-0.003672
0.00137534
0.000471564
0.00258699
-0.00364119
0.00454541
0.00277419
0.000843298
-0.00361749
0.00165035
-0.000831153
-0.000819199
0.00132868
-0.00101918
-0.000309497
0.00042339
0.00105852
-0.00469972
0.000218845
-6.78283e-06
0.000199238
0.00603835
-0.00129186
0.00152619
-0.0021288
0.00252628
-0.00182662
-0.000699659
0.000858642
-0.00254451
0.00168587
0.00523482
-0.00281696
-0.000925689
-0.00159068
0.00501082
0.00148624
-0.00178143
0.000295198
0.000499965
-0.000103786
-0.000396178
-0.000993263
-0.00314158
0.00413485
0.000742302
0.00181965
-0.00256196
0.00176762
-0.000281386
0.00224886
0.00140858