/*--------------------------------*- C++ -*----------------------------------*\
  =========                 |
  \\      /  F ield         | OpenFOAM: The Open Source CFD Toolbox
   \\    /   O peration     | Website:  https://openfoam.org
    \\  /    A nd           | Version:  7
     \\/     M anipulation  |
\*---------------------------------------------------------------------------*/
FoamFile
{
    version     2.0;
    format      ascii;
    class       volScalarField;
    location    "80";
    object      p;
}
// * * * * * * * * * * * * * * * * * * * * * * * * * * * * * * * * * * * * * //

dimensions      [0 2 -2 0 0 0 0];

internalField   nonuniform List<scalar> 
34000
(
-0.445328
-0.450091
-0.468035
-0.475183
-0.478935
-0.428197
-0.357717
-0.286533
-0.237784
-0.21002
-0.202181
-0.20811
-0.203043
-0.180343
-0.159953
-0.141299
-0.126281
-0.126801
-0.134806
-0.137348
-0.441932
-0.444022
-0.4685
-0.485364
-0.495034
-0.44253
-0.366331
-0.288963
-0.234611
-0.202024
-0.189221
-0.19169
-0.189734
-0.173732
-0.158708
-0.143117
-0.131918
-0.136225
-0.143118
-0.141079
-0.438794
-0.438158
-0.468906
-0.494995
-0.510032
-0.455429
-0.373581
-0.290412
-0.230725
-0.193819
-0.176415
-0.175329
-0.17589
-0.166472
-0.156574
-0.144267
-0.137745
-0.146275
-0.151863
-0.144263
-0.435886
-0.432479
-0.469209
-0.503939
-0.523826
-0.466806
-0.379456
-0.290931
-0.226267
-0.185526
-0.164072
-0.159506
-0.162018
-0.158778
-0.153549
-0.144622
-0.143324
-0.156177
-0.160308
-0.146561
-0.433173
-0.426959
-0.46936
-0.512093
-0.536309
-0.476589
-0.383959
-0.290566
-0.221379
-0.177239
-0.152433
-0.144598
-0.148558
-0.15085
-0.149626
-0.144001
-0.148019
-0.164918
-0.167439
-0.147568
-0.430622
-0.421574
-0.469309
-0.519358
-0.547384
-0.484725
-0.387114
-0.289368
-0.216194
-0.16903
-0.141625
-0.130844
-0.13583
-0.142846
-0.144791
-0.142189
-0.151196
-0.171579
-0.172331
-0.146926
-0.4282
-0.416295
-0.469007
-0.525631
-0.556972
-0.491182
-0.388958
-0.287389
-0.210827
-0.16096
-0.131653
-0.118345
-0.124006
-0.134854
-0.139018
-0.138993
-0.152439
-0.175649
-0.174439
-0.14443
-0.425876
-0.411092
-0.468397
-0.53082
-0.565009
-0.495947
-0.389543
-0.284693
-0.205368
-0.153082
-0.122421
-0.107077
-0.113109
-0.126865
-0.13226
-0.134284
-0.151617
-0.177094
-0.17365
-0.140061
-0.423619
-0.405934
-0.46742
-0.534857
-0.571445
-0.499027
-0.388933
-0.281351
-0.199879
-0.145447
-0.113772
-0.096903
-0.103015
-0.118752
-0.124425
-0.127989
-0.148793
-0.176113
-0.170141
-0.133967
-0.421404
-0.400796
-0.466025
-0.537683
-0.576247
-0.500453
-0.387202
-0.277442
-0.194395
-0.138102
-0.105533
-0.0876001
-0.0934828
-0.110279
-0.115366
-0.120009
-0.144046
-0.172818
-0.164167
-0.126393
-0.419205
-0.395712
-0.464117
-0.539259
-0.579397
-0.500275
-0.384432
-0.273053
-0.188935
-0.131093
-0.0975592
-0.0788912
-0.0841914
-0.101115
-0.104879
-0.11016
-0.137417
-0.167123
-0.15597
-0.117648
-0.417006
-0.390591
-0.461713
-0.53957
-0.580893
-0.498564
-0.380711
-0.26827
-0.183509
-0.124457
-0.0897625
-0.0704826
-0.0747773
-0.0908577
-0.0927436
-0.09829
-0.129052
-0.158944
-0.145826
-0.108081
-0.414794
-0.385417
-0.458766
-0.538628
-0.580747
-0.495407
-0.376133
-0.263176
-0.178133
-0.118219
-0.0821292
-0.0620967
-0.0648449
-0.0790561
-0.0787643
-0.0845067
-0.119303
-0.148445
-0.13413
-0.0980593
-0.412548
-0.38019
-0.455232
-0.536468
-0.57899
-0.490908
-0.370795
-0.257845
-0.172837
-0.112389
-0.0747143
-0.0535146
-0.053982
-0.0652826
-0.0628238
-0.0693476
-0.108614
-0.136023
-0.121389
-0.0879401
-0.41021
-0.374943
-0.45108
-0.533157
-0.57567
-0.485181
-0.364797
-0.252345
-0.167663
-0.106965
-0.0676277
-0.0446412
-0.0418449
-0.0493414
-0.0449662
-0.0537409
-0.0972811
-0.122184
-0.108151
-0.0780483
-0.407834
-0.36962
-0.446296
-0.52879
-0.570849
-0.478349
-0.358242
-0.246736
-0.162662
-0.101939
-0.0610153
-0.0355827
-0.0283332
-0.0314385
-0.0256121
-0.0388247
-0.0854739
-0.10752
-0.0949409
-0.0686568
-0.405415
-0.364223
-0.440876
-0.52349
-0.564612
-0.470541
-0.351227
-0.241072
-0.157882
-0.0973098
-0.0550311
-0.0266859
-0.0138481
-0.00469903
-0.00584991
-0.0256636
-0.0734002
-0.0926921
-0.082228
-0.0599644
-0.402947
-0.358767
-0.434827
-0.517403
-0.557056
-0.461889
-0.34385
-0.235401
-0.153363
-0.0930882
-0.0497966
-0.0184882
9.35343e-05
0.0127407
0.0120452
-0.0148511
-0.0613385
-0.0783421
-0.0703968
-0.0520882
-0.400432
-0.353265
-0.428171
-0.510694
-0.548297
-0.452521
-0.336201
-0.229768
-0.149127
-0.0892994
-0.0453694
-0.0115366
0.0120206
0.0271016
0.0262188
-0.00627287
-0.0496535
-0.065022
-0.0597207
-0.0450734
-0.397876
-0.347736
-0.420943
-0.503537
-0.538464
-0.442565
-0.328366
-0.224212
-0.145183
-0.0859711
-0.0417465
-0.00619066
0.0207905
0.0371136
0.0356676
0.000586983
-0.0387659
-0.0531399
-0.0503466
-0.0389117
-0.39529
-0.342203
-0.413191
-0.496096
-0.527701
-0.432142
-0.32042
-0.218768
-0.141534
-0.0831177
-0.0388982
-0.00253073
0.0261078
0.0426925
0.0405778
0.00610605
-0.02911
-0.0429268
-0.0422997
-0.0335566
-0.392687
-0.336697
-0.404979
-0.48852
-0.516157
-0.421366
-0.312435
-0.213462
-0.138175
-0.0807322
-0.0367908
-0.000418271
0.0284238
0.0446797
0.0420775
0.0103407
-0.0210181
-0.0344249
-0.0355063
-0.0289382
-0.390085
-0.33125
-0.396386
-0.480918
-0.503992
-0.410344
-0.30447
-0.208315
-0.135098
-0.0787879
-0.0353822
0.00040353
0.0285495
0.0441578
0.0412815
0.0132401
-0.0145994
-0.0275129
-0.0298318
-0.0249765
-0.387504
-0.325897
-0.387508
-0.473351
-0.491363
-0.399174
-0.296578
-0.20334
-0.13229
-0.077247
-0.0346087
0.000217401
0.0272286
0.0420185
0.0390784
0.0148715
-0.00973149
-0.0219757
-0.0251212
-0.0215926
-0.384975
-0.320667
-0.378465
-0.465822
-0.478425
-0.387942
-0.288804
-0.198548
-0.129738
-0.0760665
-0.0343861
-0.000724624
0.0249823
0.0388853
0.0360731
0.0154501
-0.00616565
-0.0175807
-0.0212274
-0.0187139
-0.382531
-0.315585
-0.3694
-0.458279
-0.465324
-0.37673
-0.281182
-0.193943
-0.12742
-0.0752018
-0.034622
-0.00221989
0.0221448
0.0351713
0.0326503
0.0152346
-0.00364027
-0.0141206
-0.0180222
-0.0162756
-0.380217
-0.310667
-0.360484
-0.450632
-0.452189
-0.365605
-0.273742
-0.189526
-0.125317
-0.0746083
-0.0352269
-0.00411127
0.0189383
0.0311505
0.0290479
0.0144506
-0.00193117
-0.0114236
-0.0153971
-0.0142205
-0.378086
-0.30592
-0.351911
-0.442774
-0.439132
-0.354629
-0.266506
-0.185295
-0.123407
-0.0742426
-0.0361196
-0.00627696
0.0155211
0.0270081
0.0254131
0.0132733
-0.000857914
-0.00934987
-0.013261
-0.0124982
-0.376192
-0.301342
-0.34389
-0.43461
-0.426248
-0.343855
-0.259488
-0.181245
-0.121667
-0.0740636
-0.0372291
-0.00862169
0.0120091
0.02287
0.0218377
0.0118335
-0.000277235
-0.00778518
-0.0115371
-0.011064
-0.374593
-0.296927
-0.336632
-0.426084
-0.413613
-0.333327
-0.2527
-0.177369
-0.120076
-0.0740336
-0.0384942
-0.0110704
0.00848779
0.0188202
0.0183778
0.0102276
-7.54713e-05
-0.0066363
-0.0101605
-0.00987843
-0.373336
-0.29267
-0.330312
-0.417192
-0.401284
-0.323081
-0.246148
-0.173658
-0.118614
-0.0741183
-0.0398631
-0.0135638
0.00501955
0.0149137
0.0150663
0.0085264
-0.00016243
-0.00582671
-0.00907651
-0.00890706
-0.372447
-0.288571
-0.325047
-0.407983
-0.389307
-0.313144
-0.239833
-0.170103
-0.11726
-0.0742872
-0.0412925
-0.016055
0.00164892
0.0111848
0.0119212
0.00678119
-0.000466556
-0.00529338
-0.00823806
-0.0081209
-0.371923
-0.284637
-0.320865
-0.398546
-0.377712
-0.303538
-0.233757
-0.166694
-0.115997
-0.0745132
-0.0427463
-0.0185074
-0.00159303
0.00765358
0.00895084
0.00502952
-0.00093107
-0.00498402
-0.00760461
-0.00749549
-0.371726
-0.280883
-0.317693
-0.388989
-0.366518
-0.294275
-0.227915
-0.16342
-0.114808
-0.0747729
-0.0441949
-0.0208923
-0.00468543
0.0043301
0.00615713
0.00329861
-0.00151093
-0.00485532
-0.0071397
-0.00699174
-0.371776
-0.277343
-0.315359
-0.379424
-0.355739
-0.285362
-0.222302
-0.160272
-0.113679
-0.0750464
-0.0456146
-0.0231879
-0.00761505
0.00121772
0.00353796
0.00160832
-0.00217053
-0.00487246
-0.00681191
-0.00658384
-0.371967
-0.274067
-0.313624
-0.369944
-0.345378
-0.276802
-0.216911
-0.157238
-0.112595
-0.0753164
-0.0469861
-0.0253781
-0.0103743
-0.00168484
0.0010886
-2.674e-05
-0.00288218
-0.00500738
-0.00659302
-0.00625361
-0.372171
-0.271134
-0.312215
-0.360627
-0.335434
-0.26859
-0.211735
-0.154309
-0.111544
-0.0755687
-0.0482943
-0.027451
-0.0129598
-0.00438204
-0.00119713
-0.00159564
-0.00362534
-0.00523679
-0.00645528
-0.00599171
-0.372264
-0.268654
-0.310878
-0.351525
-0.325903
-0.260719
-0.206764
-0.151475
-0.110517
-0.0757914
-0.0495274
-0.0293986
-0.0153711
-0.00688043
-0.00332604
-0.00309042
-0.00438574
-0.00553853
-0.00637423
-0.00580187
-0.372135
-0.266764
-0.309409
-0.342676
-0.316778
-0.253181
-0.201988
-0.148727
-0.109504
-0.075975
-0.0506767
-0.0312158
-0.01761
-0.00918791
-0.00530492
-0.00450588
-0.0051536
-0.00588944
-0.00633481
-0.00569891
-0.371704
-0.265622
-0.307676
-0.334101
-0.30805
-0.245963
-0.197396
-0.146058
-0.108497
-0.0761117
-0.0517358
-0.0328998
-0.01968
-0.0113132
-0.00714024
-0.00583953
-0.00592084
-0.00626778
-0.00633917
-0.00567649
-0.370922
-0.265385
-0.305624
-0.325812
-0.299707
-0.239052
-0.192979
-0.143458
-0.10749
-0.0761953
-0.0527
-0.0344497
-0.0215853
-0.0132652
-0.00883808
-0.00709102
-0.00667894
-0.00665883
-0.00640143
-0.00569639
-0.369767
-0.266192
-0.303261
-0.317812
-0.291738
-0.232432
-0.188724
-0.140921
-0.106475
-0.076221
-0.0535663
-0.035866
-0.0233312
-0.0150527
-0.0104043
-0.00826125
-0.00741906
-0.00705641
-0.00652951
-0.00573721
-0.36824
-0.268142
-0.300639
-0.310099
-0.284129
-0.22609
-0.184622
-0.138439
-0.105448
-0.0761852
-0.0543333
-0.0371504
-0.0249232
-0.0166845
-0.0118446
-0.00935166
-0.00813354
-0.00745714
-0.00670722
-0.00579976
-0.366345
-0.271268
-0.297837
-0.302664
-0.276865
-0.220008
-0.180662
-0.136006
-0.104406
-0.0760857
-0.0550004
-0.0383053
-0.0263675
-0.0181687
-0.0131645
-0.0103638
-0.00881655
-0.0078562
-0.00691348
-0.00589653
-0.36409
-0.275527
-0.294939
-0.295495
-0.269931
-0.214173
-0.176833
-0.133617
-0.103343
-0.0759207
-0.055568
-0.0393339
-0.02767
-0.0195133
-0.0143696
-0.0112994
-0.00946361
-0.00824851
-0.0071355
-0.00601223
-0.361473
-0.280787
-0.292025
-0.288573
-0.263309
-0.208569
-0.173126
-0.131266
-0.102258
-0.0756892
-0.0560373
-0.0402399
-0.0288368
-0.0207256
-0.0154649
-0.0121601
-0.0100716
-0.00862919
-0.00736075
-0.00614338
-0.358488
-0.286831
-0.28916
-0.28188
-0.256983
-0.20318
-0.169531
-0.128949
-0.101149
-0.0753911
-0.0564098
-0.0410269
-0.0298742
-0.0218124
-0.0164556
-0.0129475
-0.0106381
-0.00899336
-0.00758367
-0.00627912
-0.35512
-0.293358
-0.28639
-0.275395
-0.250933
-0.197991
-0.166039
-0.12666
-0.100012
-0.0750264
-0.0566875
-0.0416992
-0.0307878
-0.0227803
-0.0173463
-0.0136635
-0.0111617
-0.00933724
-0.00779824
-0.00641494
-0.351358
-0.300006
-0.283745
-0.269094
-0.245141
-0.192989
-0.16264
-0.124395
-0.0988462
-0.0745957
-0.0568728
-0.0422609
-0.0315836
-0.0236353
-0.0181416
-0.0143097
-0.0116411
-0.00965741
-0.00800138
-0.00654563
-0.347201
-0.306371
-0.281234
-0.262957
-0.239587
-0.188159
-0.159328
-0.122151
-0.0976509
-0.0740998
-0.0569682
-0.0427163
-0.0322669
-0.0243831
-0.0188457
-0.014888
-0.0120758
-0.00995134
-0.00818982
-0.00666797
-0.342673
-0.312049
-0.278854
-0.256963
-0.234253
-0.183489
-0.156093
-0.119924
-0.0964248
-0.0735399
-0.0569764
-0.0430695
-0.0328431
-0.025029
-0.0194627
-0.0154003
-0.0124652
-0.0102169
-0.00836136
-0.00677939
-0.337816
-0.316668
-0.276586
-0.251096
-0.22912
-0.178966
-0.152928
-0.117711
-0.0951671
-0.0729172
-0.0569002
-0.0433247
-0.0333172
-0.025578
-0.0199964
-0.0158483
-0.0128091
-0.0104526
-0.008514
-0.00687762
-0.332722
-0.31993
-0.274406
-0.24534
-0.224171
-0.174578
-0.149826
-0.115509
-0.0938774
-0.0722331
-0.0567424
-0.043486
-0.0336942
-0.0260348
-0.0204502
-0.0162339
-0.0131078
-0.0106572
-0.00864613
-0.00696107
-0.327517
-0.321637
-0.272286
-0.239685
-0.219388
-0.170315
-0.146781
-0.113315
-0.0925552
-0.0714892
-0.0565059
-0.0435573
-0.0339784
-0.0264037
-0.0208278
-0.0165589
-0.0133613
-0.0108298
-0.00875646
-0.0070281
-0.32236
-0.321713
-0.270201
-0.234123
-0.214757
-0.166164
-0.143787
-0.111126
-0.0912003
-0.0706871
-0.0561934
-0.0435424
-0.0341743
-0.0266888
-0.0211321
-0.0168251
-0.0135701
-0.0109699
-0.0088439
-0.00707755
-0.317435
-0.320204
-0.268126
-0.228648
-0.210262
-0.162118
-0.140837
-0.108941
-0.0898126
-0.0698283
-0.0558079
-0.0434451
-0.0342859
-0.0268941
-0.0213664
-0.0170343
-0.0137346
-0.0110771
-0.0089076
-0.00710823
-0.312934
-0.317258
-0.266043
-0.223257
-0.20589
-0.158166
-0.137927
-0.106757
-0.088392
-0.0689145
-0.0553519
-0.043269
-0.0343172
-0.0270231
-0.0215334
-0.0171882
-0.0138555
-0.0111513
-0.00894687
-0.00711926
-0.309039
-0.313101
-0.26394
-0.21795
-0.201629
-0.1543
-0.135052
-0.104572
-0.0869386
-0.0679473
-0.0548281
-0.0430173
-0.0342718
-0.0270792
-0.0216359
-0.0172886
-0.0139334
-0.0111924
-0.00896119
-0.00710982
-0.305909
-0.307995
-0.26181
-0.212727
-0.197467
-0.150512
-0.132206
-0.102384
-0.0854525
-0.0669283
-0.054239
-0.0426934
-0.0341532
-0.0270658
-0.0216766
-0.0173369
-0.0139691
-0.0112005
-0.00895016
-0.00707931
-0.303666
-0.30221
-0.25965
-0.207587
-0.193394
-0.146794
-0.129386
-0.100192
-0.0839338
-0.0658592
-0.0535872
-0.0423004
-0.0339647
-0.0269858
-0.0216578
-0.017335
-0.0139635
-0.0111759
-0.00891352
-0.00702717
-0.302396
-0.295995
-0.257459
-0.202531
-0.189401
-0.14314
-0.126587
-0.0979933
-0.0823828
-0.0647414
-0.0528751
-0.0418412
-0.0337093
-0.0268422
-0.021582
-0.0172843
-0.0139173
-0.011119
-0.00885109
-0.00695303
-0.302139
-0.289557
-0.255238
-0.197559
-0.185479
-0.139543
-0.123806
-0.0957874
-0.0807997
-0.0635764
-0.0521048
-0.0413187
-0.0333901
-0.0266376
-0.0214514
-0.0171864
-0.0138314
-0.01103
-0.0087628
-0.0068566
-0.302905
-0.283062
-0.252989
-0.192669
-0.181619
-0.135996
-0.121039
-0.0935726
-0.0791848
-0.0623657
-0.0512786
-0.0407356
-0.0330097
-0.0263747
-0.0212682
-0.0170429
-0.0137069
-0.0109095
-0.00864865
-0.00673775
-0.304672
-0.276629
-0.250713
-0.18786
-0.177814
-0.132495
-0.118283
-0.0913475
-0.0775383
-0.0611107
-0.0503987
-0.0400945
-0.0325709
-0.0260559
-0.0210343
-0.0168551
-0.0135447
-0.010758
-0.00850872
-0.00659647
-0.307395
-0.27034
-0.248413
-0.183129
-0.174057
-0.129032
-0.115535
-0.0891109
-0.0758607
-0.0598127
-0.0494669
-0.0393977
-0.0320761
-0.0256836
-0.0207518
-0.0166245
-0.0133457
-0.010576
-0.00834318
-0.00643286
-0.311013
-0.264245
-0.246087
-0.178473
-0.17034
-0.125604
-0.112792
-0.0868617
-0.0741521
-0.058473
-0.0484854
-0.0386477
-0.0315278
-0.0252599
-0.0204225
-0.0163526
-0.0131109
-0.0103642
-0.00815223
-0.0062471
-0.315454
-0.258372
-0.243734
-0.173888
-0.166658
-0.122206
-0.110051
-0.0845986
-0.072413
-0.0570928
-0.0474558
-0.0378465
-0.0309281
-0.0247871
-0.0200483
-0.0160406
-0.0128414
-0.0101232
-0.00793615
-0.00603943
-0.320637
-0.252732
-0.241352
-0.169369
-0.163004
-0.118831
-0.107311
-0.0823207
-0.0706437
-0.0556733
-0.0463801
-0.0369963
-0.0302792
-0.0242672
-0.0196308
-0.01569
-0.0125381
-0.00985357
-0.00769524
-0.00581014
-0.326474
-0.247325
-0.238936
-0.164911
-0.159373
-0.115477
-0.104567
-0.0800269
-0.0688447
-0.0542155
-0.0452599
-0.0360992
-0.0295831
-0.023702
-0.0191717
-0.015302
-0.0122021
-0.00955598
-0.00742988
-0.00555958
-0.332876
-0.24214
-0.236483
-0.160508
-0.155758
-0.112139
-0.101819
-0.0777163
-0.0670164
-0.0527205
-0.0440969
-0.0351569
-0.0288419
-0.0230935
-0.0186727
-0.014878
-0.0118343
-0.00923111
-0.00714045
-0.00528815
-0.339751
-0.237165
-0.233985
-0.156154
-0.152155
-0.108812
-0.0990645
-0.0753878
-0.0651592
-0.0511893
-0.0428926
-0.0341713
-0.0280574
-0.0224434
-0.0181352
-0.0144192
-0.0114357
-0.00887963
-0.00682743
-0.00499626
-0.347006
-0.23238
-0.231437
-0.151841
-0.148558
-0.105492
-0.0963016
-0.0730405
-0.0632736
-0.0496229
-0.0416487
-0.0331442
-0.0272314
-0.0217535
-0.0175607
-0.0139267
-0.0110074
-0.00850229
-0.00649131
-0.00468433
-0.354549
-0.227764
-0.228832
-0.147564
-0.144963
-0.102176
-0.0935289
-0.0706735
-0.0613602
-0.0480218
-0.0403667
-0.032077
-0.0263656
-0.0210254
-0.0169508
-0.0134019
-0.0105503
-0.00809982
-0.00613266
-0.00435284
-0.36229
-0.223295
-0.226162
-0.143314
-0.141366
-0.0988589
-0.0907448
-0.0682858
-0.0594197
-0.0463868
-0.0390484
-0.0309713
-0.0254618
-0.0202605
-0.0163068
-0.0128459
-0.0100655
-0.00767292
-0.00575207
-0.00400237
-0.370137
-0.218947
-0.223418
-0.139085
-0.137761
-0.0955382
-0.0879483
-0.0658761
-0.0574532
-0.0447183
-0.0376955
-0.0298286
-0.0245216
-0.0194606
-0.0156301
-0.0122599
-0.0095537
-0.00722223
-0.00535014
-0.00363368
-0.378005
-0.214698
-0.220592
-0.13487
-0.134146
-0.0922096
-0.0851386
-0.0634426
-0.055462
-0.0430172
-0.0363089
-0.0286505
-0.0235462
-0.0186271
-0.014922
-0.011645
-0.00901604
-0.00674836
-0.00492737
-0.00324756
-0.385808
-0.21052
-0.217676
-0.13066
-0.130516
-0.0888691
-0.0823158
-0.0609839
-0.0534465
-0.0412849
-0.0348892
-0.0274386
-0.0225371
-0.0177618
-0.0141836
-0.0110026
-0.00845345
-0.00625207
-0.0044844
-0.00284445
-0.393466
-0.20639
-0.214662
-0.126448
-0.126869
-0.0855123
-0.0794803
-0.0584998
-0.0514063
-0.0395229
-0.0334368
-0.0261944
-0.0214961
-0.0168657
-0.0134163
-0.0103335
-0.00786685
-0.00573422
-0.00402237
-0.00242367
-0.400902
-0.202282
-0.21154
-0.122226
-0.123201
-0.082134
-0.0766319
-0.0559914
-0.0493409
-0.0377307
-0.0319549
-0.0249174
-0.0204266
-0.0159388
-0.0126222
-0.00963856
-0.00725714
-0.00519561
-0.00354331
-0.00198285
-0.40804
-0.198171
-0.208304
-0.117987
-0.119511
-0.0787306
-0.0737684
-0.0534581
-0.0472548
-0.035901
-0.0304545
-0.0236015
-0.0193346
-0.0149791
-0.0118044
-0.00891737
-0.00662577
-0.00463683
-0.00304976
-0.0015188
-0.414811
-0.194035
-0.204944
-0.113722
-0.1158
-0.0753013
-0.0708867
-0.0508894
-0.0451657
-0.0340152
-0.0289573
-0.0222346
-0.0182266
-0.0139852
-0.0109658
-0.00816942
-0.00597464
-0.00405872
-0.00254212
-0.00103173
-0.421151
-0.189849
-0.201455
-0.109422
-0.112066
-0.0718443
-0.0679954
-0.048256
-0.0431076
-0.0320497
-0.0274827
-0.0208093
-0.017101
-0.0129628
-0.0101044
-0.00739775
-0.00530402
-0.00346374
-0.00201471
-0.000530775
-0.426998
-0.185592
-0.197829
-0.105078
-0.108305
-0.0683445
-0.0651316
-0.0455172
-0.0411094
-0.0300072
-0.0260078
-0.0193529
-0.0159375
-0.0119301
-0.00920992
-0.00661353
-0.00460905
-0.00285559
-0.00145958
-2.70825e-05
-0.432294
-0.181241
-0.19406
-0.100686
-0.104513
-0.0647606
-0.0623551
-0.0426639
-0.0391324
-0.0279601
-0.0244294
-0.017943
-0.0147203
-0.0108883
-0.00828769
-0.0058113
-0.00389547
-0.00223082
-0.000883283
0.000483553
-0.436988
-0.176777
-0.190145
-0.0962396
-0.100702
-0.0610331
-0.0596841
-0.0397828
-0.0370328
-0.0259955
-0.0227642
-0.0165467
-0.0134656
-0.00982905
-0.00734415
-0.00498897
-0.00316564
-0.00158824
-0.000290899
0.00100493
-0.441033
-0.17218
-0.18608
-0.0917214
-0.0969307
-0.0571438
-0.0570008
-0.0369882
-0.0348042
-0.024076
-0.0210416
-0.0151426
-0.0121863
-0.0087476
-0.00638266
-0.00414687
-0.00242034
-0.000928358
0.000314938
0.00153872
-0.444384
-0.16743
-0.181857
-0.0870837
-0.0932934
-0.0531956
-0.0541451
-0.0342924
-0.0324834
-0.0221721
-0.0192841
-0.0137183
-0.0108896
-0.00764306
-0.00540454
-0.00328634
-0.00165987
-0.000252411
0.000933169
0.00208501
-0.447003
-0.162508
-0.177472
-0.0822583
-0.0897886
-0.0492553
-0.051122
-0.0316561
-0.0301013
-0.0202634
-0.0175047
-0.0122688
-0.00957856
-0.00651661
-0.00441033
-0.00240884
-0.000884671
0.000438327
0.00156333
0.00264313
-0.448856
-0.1574
-0.172932
-0.0772418
-0.0861246
-0.0455377
-0.0479781
-0.0290482
-0.0276788
-0.0183383
-0.015711
-0.0107931
-0.00825412
-0.00537018
-0.00340047
-0.00151573
-9.53764e-05
0.00114273
0.00220509
0.00321215
-0.449914
-0.152093
-0.168278
-0.0722
-0.0822309
-0.0419228
-0.044748
-0.0264472
-0.0252294
-0.016391
-0.0139065
-0.00929254
-0.00691643
-0.00420578
-0.00237553
-0.000608165
0.000707222
0.00185984
0.00285802
0.00379115
-0.450151
-0.14657
-0.163575
-0.0671069
-0.07811
-0.03836
-0.0414552
-0.0238396
-0.0227615
-0.0144189
-0.0120928
-0.00776923
-0.00556551
-0.00302522
-0.00133629
0.000312799
0.00152227
0.00258882
0.00352159
0.00437927
-0.449544
-0.140792
-0.158824
-0.0619442
-0.0738216
-0.0348161
-0.0381153
-0.0212168
-0.0202805
-0.0124219
-0.0102702
-0.00622564
-0.00420154
-0.00183005
-0.000283631
0.00124618
0.00234889
0.00332888
0.00419518
0.00497578
-0.448078
-0.134672
-0.153848
-0.0568787
-0.0694036
-0.0312725
-0.0347391
-0.0185737
-0.0177895
-0.010401
-0.0084389
-0.00466412
-0.00282493
-0.000621661
0.000781476
0.00219101
0.00318621
0.00407925
0.0048781
0.00557996
-0.44574
-0.128148
-0.148698
-0.0518904
-0.06488
-0.0277163
-0.031334
-0.0159077
-0.0152903
-0.00835785
-0.0065988
-0.00308686
-0.00143631
0.000598724
0.00185802
0.00314636
0.00403338
0.00483917
0.00556965
0.00619109
-0.442521
-0.121358
-0.143302
-0.0469229
-0.0602663
-0.0241394
-0.0279053
-0.0132174
-0.0127839
-0.00629454
-0.00474996
-0.00149579
-3.65104e-05
0.00182995
0.00294497
0.00411126
0.00488956
0.00560787
0.00626911
0.00680844
-0.43842
-0.114538
-0.137491
-0.0419421
-0.0555735
-0.020536
-0.0244567
-0.0105031
-0.0102709
-0.00421319
-0.00289264
0.000107333
0.00137354
0.00307092
0.00404129
0.00508479
0.00575389
0.00638456
0.00697571
0.00743136
-0.433434
-0.10758
-0.131361
-0.0369268
-0.05081
-0.0169026
-0.020991
-0.00776531
-0.00775172
-0.00211592
-0.00102727
0.00172093
0.00279282
0.00432055
0.00514597
0.00606599
0.00662554
0.00716847
0.00768873
0.00805936
-0.427573
-0.100433
-0.124955
-0.0318636
-0.0459821
-0.0132373
-0.0175102
-0.0050054
-0.0052268
-4.80639e-06
0.000845552
0.00334352
0.00422024
0.00557776
0.00625797
0.00705391
0.00750368
0.00795879
0.00840745
0.00869217
-0.420881
-0.0930346
-0.118301
-0.026744
-0.0410953
-0.009539
-0.0140161
-0.00222491
-0.00269656
0.00211819
0.00272504
0.00497373
0.00565468
0.00684148
0.00737628
0.00804763
0.00838748
0.00875478
0.00913119
0.00932943
-0.413431
-0.0853173
-0.111417
-0.0215629
-0.0361538
-0.0058077
-0.01051
0.000574324
-0.000161529
0.00425119
0.00461029
0.00661023
0.00709502
0.00811064
0.00849988
0.0090462
0.00927612
0.00955567
0.00985928
0.00997044
-0.40522
-0.0772921
-0.104315
-0.0163174
-0.0311619
-0.00204403
-0.00699327
0.00339037
0.00237763
0.00639238
0.00650029
0.0082517
0.00854011
0.00938416
0.00962774
0.0100487
0.0101688
0.0103607
0.0105909
0.0106141
-0.396006
-0.0691658
-0.0970101
-0.011006
-0.0261229
0.00175085
-0.00346716
0.00622117
0.00492012
0.00854002
0.00839394
0.00989688
0.00998878
0.0106609
0.0107588
0.0110541
0.0110646
0.0111691
0.0113253
0.0112596
-0.385812
-0.0609502
-0.0895118
-0.00562813
-0.0210405
0.00557536
6.70096e-05
0.00906463
0.007465
0.0106924
0.0102901
0.0115445
0.0114399
0.0119399
0.0118922
0.0120616
0.0119628
0.0119801
0.0120617
0.0119073
-0.374742
-0.0525774
-0.08183
-0.000184311
-0.0159179
0.00942754
0.00360788
0.0119186
0.0100112
0.0128479
0.0121875
0.0131933
0.0128922
0.01322
0.0130267
0.0130702
0.0128625
0.0127926
0.0127993
0.0125588
-0.362837
-0.0440272
-0.0739742
0.00532422
-0.0107586
0.0133052
0.00715396
0.0147809
0.0125575
0.0150048
0.0140848
0.0148419
0.0143446
0.0145001
0.0141614
0.014079
0.0137628
0.013606
0.0135378
0.0132141
-0.350128
-0.0352924
-0.0659538
0.0108955
-0.00556601
0.0172058
0.0107037
0.0176493
0.0151027
0.0171615
0.0159808
0.0164892
0.0157959
0.0157791
0.0152953
0.015087
0.014663
0.0144196
0.0142762
0.0138695
-0.336647
-0.0263719
-0.0577783
0.0165269
-0.000343578
0.0211266
0.0142552
0.0205217
0.0176452
0.0193165
0.0178741
0.0181339
0.0172449
0.0170559
0.0164272
0.0160932
0.0155623
0.0152327
0.0150133
0.0145195
-0.322428
-0.0172682
-0.0494574
0.0222152
0.00490499
0.0250648
0.0178068
0.0233957
0.0201837
0.0214679
0.0197633
0.0197745
0.0186904
0.0183294
0.0175563
0.0170969
0.0164599
0.0160445
0.0157483
0.015165
-0.307503
-0.00798623
-0.041001
0.0279566
0.0101759
0.0290173
0.0213564
0.026269
0.0227165
0.0236143
0.021647
0.0214099
0.0201312
0.0195985
0.0186814
0.0180968
0.0173546
0.0168541
0.0164814
0.015819
-0.291906
0.00146719
-0.0324192
0.0337469
0.0154652
0.032981
0.0249019
0.0291394
0.0252419
0.025754
0.0235238
0.0230388
0.0215661
0.0208621
0.0198014
0.0190921
0.0182456
0.0176605
0.0172144
0.0164944
-0.275673
0.0110836
-0.0237225
0.0395815
0.0207687
0.0369524
0.028441
0.0320046
0.0277583
0.0278852
0.0253922
0.0246598
0.022994
0.0221192
0.0209154
0.0200817
0.019132
0.018463
0.0179455
0.0171772
-0.25884
0.0208533
-0.0149217
0.0454552
0.0260821
0.0409282
0.0319713
0.0348621
0.0302637
0.0300064
0.0272508
0.0262716
0.0244135
0.0233685
0.0220223
0.021065
0.0200134
0.0192603
0.0186654
0.0178166
-0.241446
0.0307655
-0.00602792
0.0513626
0.0314009
0.0449047
0.0354903
0.0377096
0.0327565
0.0321157
0.029098
0.0278729
0.0258236
0.024609
0.0231212
0.0220412
0.0208894
0.0200501
0.0193609
0.0183777
-0.223528
0.0408086
0.00294744
0.0572979
0.0367205
0.0488783
0.0389954
0.0405446
0.0352346
0.0342116
0.0309324
0.0294623
0.0272229
0.0258396
0.0242111
0.0230095
0.0217585
0.0208298
0.0200328
0.0189259
-0.205126
0.0509698
0.0119927
0.0632551
0.0420361
0.0528452
0.0424839
0.0433647
0.0376961
0.0362922
0.0327525
0.0310385
0.0286104
0.0270592
0.0252909
0.0239684
0.0226184
0.0215995
0.0207117
0.0196127
-0.186282
0.0612358
0.0210958
0.0692277
0.0473425
0.0568016
0.0459529
0.0461674
0.040139
0.0383558
0.0345566
0.0326003
0.0299848
0.0282668
0.0263596
0.0249161
0.023467
0.0223652
0.0214386
0.0204996
-0.167036
0.0715926
0.0302444
0.075209
0.0526348
0.0607434
0.0493995
0.0489501
0.0425612
0.0404006
0.0363434
0.0341461
0.0313448
0.0294613
0.0274157
0.0258511
0.0243046
0.0231339
0.022207
0.0213797
-0.147431
0.0820254
0.0394261
0.0811922
0.0579076
0.0646667
0.0528207
0.0517103
0.0449608
0.0424249
0.0381112
0.0356748
0.0326895
0.0306415
0.0284582
0.026773
0.0251345
0.0239039
0.0229297
0.0218829
-0.127509
0.0925195
0.0486281
0.0871703
0.0631555
0.0685673
0.0562136
0.0544455
0.0473357
0.0444269
0.0398586
0.037185
0.0340175
0.0318063
0.029486
0.0276828
0.0259595
0.0246587
0.0235044
0.021926
-0.107314
0.103059
0.0578373
0.0931358
0.0683729
0.0724412
0.0595749
0.0571531
0.0496836
0.0464049
0.0415839
0.0386754
0.0353277
0.0329546
0.0304986
0.0285816
0.0267781
0.0253751
0.0239213
0.0218609
-0.0868895
0.113628
0.0670407
0.0990814
0.0735543
0.076284
0.0629016
0.0598304
0.0520026
0.0483569
0.0432857
0.0401447
0.0366189
0.0340853
0.0314959
0.0294699
0.027584
0.0260408
0.0242805
0.022409
-0.0662794
0.124209
0.0762249
0.104999
0.0786939
0.0800916
0.0661903
0.0624748
0.0542904
0.0502812
0.0449624
0.0415914
0.0378898
0.0351974
0.0324776
0.0303465
0.0283699
0.0266672
0.0246999
0.0230784
-0.0455278
0.134787
0.0853764
0.110882
0.0837858
0.0838597
0.0694377
0.0650836
0.0565449
0.0521761
0.0466124
0.0430144
0.0391392
0.0362902
0.0334434
0.0312093
0.0291329
0.0272728
0.0251893
0.0237523
-0.0246791
0.145344
0.0944818
0.116722
0.0888243
0.087584
0.0726407
0.0676543
0.0587639
0.0540396
0.0482343
0.0444123
0.0403661
0.0373628
0.0343925
0.0320559
0.029873
0.0278717
0.0257294
0.0243945
-0.0037776
0.155864
0.103527
0.122511
0.0938033
0.09126
0.0757959
0.0701841
0.0609453
0.0558701
0.0498264
0.0457837
0.0415692
0.0384145
0.0353239
0.0328844
0.0305925
0.0284702
0.0262968
0.025003
0.0171324
0.166328
0.1125
0.12824
0.0987169
0.0948834
0.0788999
0.0726704
0.0630869
0.0576657
0.0513873
0.0471274
0.0427475
0.0394444
0.0362364
0.0336936
0.0312938
0.0290692
0.0268744
0.0255824
0.0380067
0.176719
0.121384
0.133903
0.103559
0.0984499
0.0819493
0.0751106
0.0651865
0.0594246
0.0529154
0.048442
0.0438999
0.0404517
0.0371289
0.0344828
0.0319787
0.0296668
0.0274509
0.0261375
0.0588016
0.187021
0.130169
0.13949
0.108324
0.101955
0.0849409
0.0775019
0.067242
0.0611451
0.0544092
0.0497263
0.0450253
0.0414353
0.0380003
0.0352516
0.0326481
0.0302599
0.02802
0.0266717
0.0794734
0.197214
0.138838
0.144994
0.113005
0.105395
0.0878713
0.0798419
0.0692512
0.0628254
0.0558673
0.050979
0.0461227
0.0423943
0.0388494
0.0359996
0.0333023
0.0308453
0.0285779
0.0271868
0.0999791
0.207283
0.14738
0.150407
0.117597
0.108764
0.0907371
0.0821278
0.071212
0.0644638
0.0572882
0.0521989
0.047191
0.0433277
0.0396754
0.0367266
0.0339408
0.0314205
0.0291226
0.0276836
0.120276
0.217209
0.15578
0.15572
0.122093
0.11206
0.0935351
0.084357
0.0731223
0.0660585
0.0586704
0.0533847
0.0482292
0.0442345
0.0404775
0.0374323
0.0345628
0.0319833
0.0296526
0.0281627
0.140322
0.226975
0.164025
0.160926
0.126487
0.115276
0.0962619
0.0865271
0.0749801
0.067608
0.0600124
0.0545353
0.0492363
0.0451138
0.0412547
0.0381162
0.0351675
0.0325317
0.0301669
0.0286238
0.160076
0.236564
0.172101
0.166017
0.130775
0.11841
0.0989143
0.0886355
0.0767833
0.0691104
0.0613129
0.0556495
0.0502111
0.0459646
0.0420065
0.0387777
0.0357539
0.0330645
0.0306647
0.029067
0.179496
0.245959
0.179997
0.170985
0.134949
0.121457
0.101489
0.0906797
0.0785298
0.0705642
0.0625706
0.0567261
0.0511528
0.046786
0.042732
0.0394162
0.0363212
0.0335805
0.0311452
0.029492
0.198544
0.255143
0.187699
0.175822
0.139005
0.124413
0.103983
0.0926573
0.0802177
0.0719677
0.0637839
0.057764
0.0520603
0.0475772
0.0434306
0.0400312
0.0368684
0.0340785
0.0316078
0.0298985
0.217179
0.2641
0.195194
0.180521
0.142936
0.127274
0.106393
0.0945658
0.081845
0.0733194
0.0649517
0.058762
0.0529326
0.0483373
0.0441015
0.0406218
0.0373946
0.0345578
0.0320519
0.0302863
0.235364
0.272814
0.20247
0.185073
0.146737
0.130036
0.108716
0.0964029
0.0834099
0.0746178
0.0660725
0.0597192
0.0537688
0.0490655
0.044744
0.0411876
0.0378991
0.0350175
0.0324768
0.0306552
0.253061
0.281268
0.209516
0.189473
0.150402
0.132695
0.11095
0.0981663
0.0849105
0.0758613
0.0671453
0.0606344
0.054568
0.0497609
0.0453575
0.0417277
0.0383811
0.0354569
0.0328822
0.0310049
0.270236
0.289447
0.216318
0.193713
0.153927
0.135247
0.11309
0.0998538
0.086345
0.0770485
0.0681687
0.0615067
0.0553293
0.050423
0.0459413
0.0422416
0.0388401
0.0358753
0.0332674
0.0313353
0.286852
0.297337
0.222867
0.197785
0.157306
0.137689
0.115135
0.101463
0.0877116
0.078178
0.0691416
0.062335
0.0560518
0.0510507
0.0464947
0.0427286
0.0392752
0.0362722
0.0336321
0.0316461
0.302876
0.304922
0.22915
0.201683
0.160534
0.140017
0.117082
0.102992
0.0890087
0.0792484
0.0700628
0.0631184
0.0567347
0.0516436
0.0470171
0.0431881
0.0396859
0.036647
0.0339757
0.0319371
0.318275
0.312188
0.235157