/*--------------------------------*- C++ -*----------------------------------*\
  =========                 |
  \\      /  F ield         | OpenFOAM: The Open Source CFD Toolbox
   \\    /   O peration     | Website:  https://openfoam.org
    \\  /    A nd           | Version:  7
     \\/     M anipulation  |
\*---------------------------------------------------------------------------*/
FoamFile
{
    version     2.0;
    format      ascii;
    class       volVectorField;
    location    "0.53";
    object      U;
}
// * * * * * * * * * * * * * * * * * * * * * * * * * * * * * * * * * * * * * //

dimensions      [0 1 -1 0 0 0 0];

internalField   nonuniform List<vector> 
12359
(
(0.981612 -0.000732859 5.65545e-17)
(0.968368 -0.00118945 -1.20612e-16)
(0.99998 6.12077e-06 -3.16146e-17)
(0.931018 0.000296978 -6.93148e-17)
(0.978052 -0.000302711 -1.10594e-16)
(0.888147 0.00254246 -1.1595e-17)
(0.831548 -0.00702015 9.38898e-17)
(0.865999 -0.00745624 1.0154e-16)
(0.786611 0.0168559 -2.2674e-16)
(0.897595 0.00204039 -2.64003e-17)
(0.808456 0.0180934 -4.22913e-17)
(0.713755 0.0304595 2.44508e-16)
(0.28598 0.0788591 -1.08946e-16)
(0.921894 -0.00208424 -5.9167e-17)
(0.935978 -0.000888453 2.85936e-17)
(0.528319 0.00266082 9.20117e-17)
(0.403934 0.00440517 1.48722e-16)
(0.9948 2.61092e-05 -1.1323e-16)
(0.99487 2.97699e-05 1.04786e-17)
(0.95318 -0.00141199 -1.39134e-16)
(0.910899 -0.00101994 -5.6121e-17)
(0.746747 0.0151425 -1.97613e-16)
(0.963188 -0.00019854 -6.41087e-17)
(0.94994 -0.000683941 6.95578e-17)
(0.966749 -0.000697355 -4.18739e-18)
(0.958607 -0.000989068 -1.61807e-16)
(0.998334 -0.000100469 -8.16821e-18)
(0.99852 -3.52564e-05 -1.33159e-17)
(0.995853 7.00458e-06 -6.1088e-18)
(0.997764 -1.78648e-05 -1.21276e-17)
(0.997234 -0.000115502 -4.68884e-17)
(0.999187 9.28218e-06 -3.87277e-17)
(0.999748 -2.9922e-06 -7.96398e-18)
(0.99802 7.64328e-05 2.91469e-18)
(0.999905 -3.46875e-05 -3.27904e-17)
(0.997034 3.2203e-05 -4.02625e-17)
(0.989188 8.68189e-05 2.40556e-16)
(0.98334 -0.000268422 2.36542e-16)
(0.978764 -7.55901e-05 7.5409e-17)
(0.985534 -0.000380878 1.6807e-16)
(0.971223 -0.00107439 -6.014e-19)
(0.984692 0.000492081 2.42326e-16)
(0.991601 -0.000388262 -3.68155e-17)
(0.992043 3.41586e-05 -8.81486e-17)
(0.996502 -9.74126e-05 4.87802e-17)
(0.996168 -4.82116e-05 3.49994e-17)
(0.996806 -7.57219e-05 -1.49529e-17)
(0.997416 -7.89485e-05 -2.69429e-17)
(0.995267 -4.26066e-06 6.30124e-17)
(0.998218 -5.42609e-05 -2.33549e-18)
(0.998668 -3.40786e-05 -2.13952e-17)
(0.998864 -9.64186e-05 -1.5233e-17)
(0.99931 2.14359e-06 -1.01264e-19)
(0.994272 8.24073e-05 -1.20326e-16)
(0.999568 9.87923e-05 -2.71699e-17)
(0.999717 3.89329e-06 2.75652e-17)
(0.99293 -0.000327881 1.57212e-16)
(0.999841 -2.27247e-05 -2.58883e-17)
(0.999772 -1.05346e-05 -7.12804e-17)
(0.999816 3.65966e-07 7.83253e-17)
(0.999674 -2.01528e-05 2.31897e-17)
(0.999963 2.89376e-05 -6.38487e-17)
(0.998746 -7.92377e-05 -2.00966e-17)
(0.205108 0.102962 -8.4573e-16)
(0.993596 -9.24023e-05 -8.38198e-17)
(0.904951 0.000526031 -3.11661e-17)
(0.989975 0.000279398 -1.57675e-16)
(0.999071 -2.60586e-07 -2.22741e-17)
(0.988075 -0.000223928 2.57837e-17)
(0.615877 0.028062 9.38452e-17)
(-0.0450583 -0.0802848 3.69554e-15)
(0.975221 -0.00152295 1.91721e-17)
(0.999961 -1.99604e-05 -1.06495e-16)
(0.986766 -0.000540882 -2.05447e-16)
(0.940463 -0.0026776 3.11415e-18)
(0.999946 -5.84155e-06 6.56963e-17)
(0.999322 2.41274e-05 -3.67287e-17)
(0.999933 -2.91825e-05 -1.66569e-17)
(0.989799 -0.000161195 4.60861e-17)
(0.657406 0.00380708 1.57e-16)
(0.928116 0.0638024 -6.83187e-17)
(1.00382 0.00269378 5.92e-18)
(1.00002 -7.45168e-06 1.85735e-19)
(0.997954 0.011671 -2.97545e-18)
(1.09977 0.141815 5.65807e-18)
(1.02116 0.000958398 4.36443e-18)
(1.00362 0.00266082 -2.85134e-18)
(1.00154 -8.05062e-05 1.06049e-17)
(1.11633 0.0556659 1.43296e-17)
(1.09617 0.150163 2.43475e-17)
(0.999975 0.000123698 1.8623e-17)
(0.263572 0.190751 -4.15259e-16)
(1.00001 3.7194e-05 -1.38187e-17)
(0.999617 0.00615887 -1.9601e-18)
(0.999787 0.0108328 1.40736e-18)
(1.03459 0.00174351 -8.33837e-19)
(1.00006 0.0051348 2.89685e-18)
(0.99964 0.00614923 -7.438e-18)
(0.991231 0.0293895 -1.99771e-17)
(0.994641 0.0176686 4.90183e-17)
(0.939402 0.0766762 -4.72105e-17)
(0.999998 1.63524e-05 -7.79406e-18)
(1.02121 0.00153521 -4.31641e-18)
(1.21845 0.0607855 1.52574e-18)
(1.00474 0.000901638 -3.76919e-18)
(1.03248 0.0213291 -1.10171e-18)
(1.00035 2.71938e-05 8.27852e-18)
(1.10184 0.143726 4.94869e-18)
(1.01881 0.00137204 -9.41474e-18)
(1.03282 0.0197636 -4.06502e-18)
(0.999886 0.0045038 -1.11429e-17)
(1.0036 0.00272435 7.35274e-18)
(0.936559 0.044076 7.19668e-17)
(0.95833 0.0726046 -3.14331e-17)
(0.999485 0.0104278 3.18441e-17)
(1.00271 -0.000653109 2.84734e-18)
(0.954857 0.0763267 -6.75135e-17)
(1.00449 0.00228726 -2.00245e-17)
(1.12078 0.0375186 -2.38966e-17)
(0.999998 1.44821e-05 -5.92286e-20)
(1.00015 0.00480322 1.66622e-17)
(0.871715 0.0307283 -2.7624e-17)
(1.00168 1.04729e-05 3.0434e-18)
(1.03695 0.00565986 4.90909e-18)
(1.00464 0.00250135 -2.4575e-18)
(1.00341 0.000320904 3.99457e-19)
(1.00834 0.0897626 -1.27853e-17)
(0.99813 0.0125638 -2.53339e-18)
(0.999982 6.20021e-06 -1.5366e-16)
(1.00424 0.00256231 2.13409e-17)
(1.0026 0.000767602 5.96897e-18)
(1.05055 0.0164385 3.21243e-18)
(1.05328 0.0160894 -7.16195e-18)
(1.05108 0.0155124 -2.97052e-18)
(1.00029 1.88693e-05 -8.24894e-18)
(1.03611 0.00566272 4.02805e-18)
(1.00275 -0.000538286 -1.59624e-17)
(1.0353 0.00611493 -5.6829e-18)
(0.999996 7.47031e-05 -2.50379e-17)
(1.0104 0.0881958 -1.48238e-17)
(0.999995 2.53829e-05 -4.72227e-18)
(0.983528 0.00214231 2.5583e-16)
(1.03027 0.0127394 -4.24017e-18)
(1.00031 0.000139205 -8.45101e-18)
(1.03913 0.0367891 6.02213e-18)
(0.902859 0.028495 1.01867e-16)
(1.00002 -1.70286e-06 -4.85005e-18)
(1.0926 0.113895 -4.3353e-18)
(1.00483 0.00117105 -9.95502e-19)
(0.915628 0.0647024 -2.94978e-17)
(1.0376 -0.00028058 -9.52048e-19)
(1 2.46506e-05 -1.46368e-17)
(1.03036 0.0131881 -2.93809e-18)
(1.00155 0.00011869 -3.1738e-18)
(1.00001 -1.59009e-06 -3.39514e-18)
(0.584128 1.3345 1.81205e-16)
(0.94164 0.0864271 5.4779e-18)
(1.05105 0.0166055 3.25312e-18)
(1.00017 0.00543625 -2.41212e-18)
(0.99907 0.000556895 2.96659e-17)
(1.00308 0.0432672 -6.64009e-18)
(0.999032 0.000639396 -2.57335e-18)
(1.03747 0.00444476 1.38266e-18)
(1.03227 0.0101907 -2.60716e-18)
(1.00003 4.4111e-05 -3.60031e-18)
(1.00319 0.000299074 -1.54166e-17)
(1.00206 0.0440266 5.53671e-18)
(0.863981 0.011722 5.59685e-16)
(1.03111 0.00981537 -3.52698e-18)
(1.119 0.0521973 1.605e-17)
(0.999988 8.07148e-06 7.57597e-17)
(0.999957 4.65364e-05 4.87626e-17)
(1.03174 0.00825109 -7.03679e-18)
(0.972316 0.00208635 7.42423e-17)
(1.00446 0.000954811 1.65443e-18)
(1.00424 0.087365 1.18093e-17)
(0.996396 0.000554656 6.72732e-17)
(0.996442 0.000647516 -1.50983e-17)
(0.938018 0.0499952 9.7536e-17)
(1.0071 0.0852252 1.57121e-17)
(0.932713 0.00852044 -4.17968e-16)
(1.00001 3.43006e-05 1.62401e-18)
(0.999983 2.25048e-05 2.28246e-18)
(1.00394 0.00268276 -1.21919e-17)
(0.99206 0.0268741 -1.46419e-18)
(0.812514 0.10284 1.21853e-16)
(1.00419 0.00538375 -1.17556e-17)
(1.00026 0.010321 -8.88016e-18)
(1.03601 -0.000392003 4.97159e-19)
(1.00454 0.00563791 2.08317e-18)
(0.999433 0.0100229 8.67505e-18)
(1.03604 0.000455415 -8.36024e-19)
(1.0333 0.00149273 -4.43379e-18)
(1.0019 6.63268e-05 2.9058e-18)
(1.03393 0.0180013 -8.59935e-18)
(1.16413 0.048837 1.39114e-17)
(1.01451 0.0121224 1.27049e-17)
(1.00318 0.00593231 5.70418e-18)
(1.02945 0.0139001 1.93164e-18)
(1.00448 0.00225672 -1.72625e-18)
(0.891064 0.0279633 1.21801e-16)
(1.03683 0.00217627 -6.54215e-19)
(0.993325 0.0185092 -1.34175e-17)
(1.03281 0.0190453 -8.33352e-18)
(1.03526 0.0352217 -5.93073e-18)
(1.00001 4.96461e-05 -1.52012e-18)
(1.03674 0.0351324 3.23711e-18)
(0.992631 0.0180617 -4.43723e-17)
(1.03894 0.00548613 -5.0387e-18)
(1.00529 0.00338368 3.14321e-18)
(1.00001 2.82777e-05 2.92184e-18)
(1.04455 0.0119471 -3.23066e-18)
(1.04563 0.0121795 -1.36944e-19)
(1.09669 0.115757 1.7924e-17)
(0.833631 0.09562 -2.19034e-16)
(0.99997 3.40128e-05 4.1271e-17)
(1.0036 0.00552959 -9.06363e-18)
(0.999629 0.0106427 -2.69172e-17)
(1.00398 0.00575136 1.53187e-17)
(0.98185 0.00202226 -4.56819e-17)
(0.948175 0.0617105 3.88253e-17)
(1.00509 0.00378563 6.03633e-18)
(1.03592 0.00515876 4.94676e-18)
(0.388763 0.304416 7.30187e-17)
(1.00529 0.00200796 1.40506e-18)
(1.00002 4.33658e-05 -8.59998e-18)
(0.981338 0.00130349 -3.95585e-16)
(1.01967 -0.00197155 -4.69156e-18)
(1.00384 0.0850525 4.9922e-18)
(1.00259 0.00664804 -1.2381e-17)
(1.0026 0.0061978 -6.52248e-18)
(1.00004 4.66707e-06 -2.94827e-18)
(1.03855 0.0386521 -6.84186e-18)
(0.992563 0.0231978 -2.78929e-19)
(1.00079 0.0102355 -1.02378e-17)
(0.994336 0.0203824 4.99056e-17)
(1.00001 3.18294e-05 -1.18552e-18)
(1.03096 0.0144198 -2.70547e-18)
(1.00044 0.0106231 1.01205e-18)
(0.612467 0.275132 -1.93881e-17)
(1.00006 4.03962e-05 4.62284e-19)
(1.02273 0.000775023 1.91775e-18)
(1.00014 0.00743704 -8.02367e-18)
(0.990052 0.153465 2.07455e-17)
(1.0034 0.0481894 -1.77717e-18)
(1.09383 0.114132 -1.97224e-17)
(0.999861 2.48387e-05 7.07101e-17)
(1.03801 0.00523066 -2.95466e-18)
(1.0041 0.000415479 5.5078e-18)
(1.03236 0.00240914 -1.92921e-18)
(1.04124 0.0106677 1.28864e-18)
(0.986127 0.00074197 1.76249e-16)
(0.996715 0.000573832 3.58378e-17)
(1.00242 0.00611798 7.94703e-18)
(0.476957 0.458652 4.13843e-17)
(1.25257 0.133983 5.1338e-17)
(0.999989 2.28046e-05 2.35562e-18)
(1.00561 0.00286884 8.64936e-18)
(0.406775 0.349946 4.76696e-16)
(0.711077 -0.0191818 4.14507e-17)
(0.993701 0.0193238 1.23028e-17)
(1.00482 0.0453891 -3.90034e-18)
(1.00215 0.0815207 1.83607e-17)
(1.0331 0.0169339 -6.85902e-18)
(0.973675 0.00106885 1.51911e-16)
(1.34298 0.353712 2.12025e-17)
(1.11267 0.0379179 -3.26067e-17)
(1.00487 0.0478027 -2.39103e-17)
(1.00544 0.00276626 -1.28535e-17)
(1.03511 0.00804307 -2.38346e-18)
(1.03183 0.00946338 3.29306e-18)
(0.988879 0.0256137 2.23256e-17)
(1.03206 0.0119938 4.20871e-18)
(1.00238 0.00663077 -1.64199e-18)
(1.00579 0.00338768 5.58777e-19)
(1.00006 4.35465e-05 -1.0675e-19)
(1.0055 0.00300067 -2.67227e-18)
(1.17582 0.076891 3.71036e-18)
(1.00616 0.047703 -2.80047e-17)
(1.00045 0.000149242 -1.20395e-18)
(0.999996 5.12229e-05 6.12689e-18)
(1.03435 0.0173166 -3.84895e-18)
(1.00689 0.000715701 -4.31391e-18)
(0.990819 0.000437451 -1.24236e-16)
(1.02221 0.000199577 -8.15553e-19)
(1 2.30153e-05 3.33755e-18)
(1.00185 0.0759838 -1.12222e-17)
(1.00001 1.52593e-05 1.80496e-17)
(0.999994 -4.82296e-06 3.8745e-18)
(0.999259 8.81248e-05 -5.4413e-17)
(1.03692 0.0047649 8.33917e-19)
(1.00402 0.00222506 2.92224e-18)
(1.41238 0.395687 3.94503e-18)
(1.00031 -1.00148e-05 -5.54679e-18)
(1.0003 3.47343e-05 -2.68727e-18)
(1.02064 0.0022894 2.08095e-18)
(1.00434 0.000245602 1.55672e-20)
(0.94715 0.0671162 -6.49045e-17)
(0.999067 0.00952465 -4.89634e-19)
(0.998758 0.0002115 -1.2258e-16)
(0.999976 4.31261e-05 1.52481e-17)
(1.16837 0.0612803 5.92024e-17)
(1.00438 0.0749729 2.18407e-17)
(0.999983 3.38632e-05 -4.59003e-18)
(1.00368 0.00566269 3.98307e-18)
(0.999605 0.00846766 -4.77487e-18)
(1.00464 0.00100443 1.6672e-18)
(1.00361 -0.000294462 -3.12248e-18)
(1.00301 0.000248529 -4.34147e-18)
(1.00424 0.00113651 1.07087e-17)
(0.995389 0.00137051 7.90176e-17)
(0.84212 0.0585834 1.22592e-16)
(1.00466 0.00144113 -3.81511e-18)
(0.99739 5.76931e-05 4.32406e-16)
(0.985921 0.0012666 2.24008e-16)
(1.02527 0.0254702 1.18613e-18)
(1.10122 0.033664 2.74608e-17)
(1.00426 -0.000415273 -2.80259e-18)
(0.989938 0.024264 -2.23403e-17)
(0.576007 0.100712 -2.72008e-16)
(0.999991 1.03606e-05 -4.40075e-18)
(1.02686 0.0118207 2.93608e-18)
(1.00052 0.000168017 -1.74088e-18)
(1.01402 0.0124185 3.6553e-18)
(1.0003 3.27243e-05 -2.7215e-18)
(1.00539 0.000267812 3.20992e-18)
(0.817196 0.0464233 1.818e-16)
(1.02731 0.0142165 2.21115e-18)
(0.814006 0.0946083 -8.32109e-17)
(0.991573 0.000628125 -3.67128e-16)
(1.0006 0.0080723 -2.05145e-17)
(1.03404 -0.000187542 3.79896e-19)
(1.03681 -0.00031291 -1.60084e-18)
(1.00051 0.00765622 -1.81261e-17)
(1.0339 -0.00135191 2.70237e-18)
(1.03354 0.00142534 -1.19501e-18)
(1.00078 0.00017776 -4.42435e-18)
(0.99942 0.000597957 -1.95309e-17)
(0.999411 0.000571124 -1.54801e-17)
(0.999387 0.00055222 -5.05311e-18)
(0.999382 0.000513685 -3.71363e-18)
(0.712331 0.285418 2.31516e-17)
(1.00003 4.22001e-05 1.50181e-18)
(0.943372 0.0743051 6.29696e-17)
(1.03951 0.00347032 1.97929e-19)
(0.992485 0.0245905 -3.25466e-17)
(1.03167 0.0116155 -3.69517e-18)
(1.0274 0.0144645 1.51765e-18)
(1.02029 0.00262225 -3.43991e-18)
(1.01323 0.0118272 6.68862e-18)
(1.02786 0.0123823 -3.35539e-18)
(1.01313 0.0119876 -7.24333e-18)
(0.991031 0.0263639 -5.39436e-17)
(1.02699 0.027181 -9.61385e-18)
(1.0255 0.0302605 -1.38629e-17)
(0.955089 0.0507687 2.09653e-17)
(0.980526 0.00244598 -2.11846e-16)
(1.03352 0.0766403 4.47874e-18)
(0.982473 0.00181636 2.32774e-16)
(0.982886 0.000991385 1.79045e-16)
(1.03036 0.0150143 2.38144e-18)
(0.94084 0.0919586 -4.74109e-17)
(1.00308 0.00255676 -3.92959e-18)
(0.999491 9.4162e-05 -3.94063e-18)
(1.01573 0.010797 3.16889e-20)
(0.999456 3.77264e-05 8.10944e-17)
(1.00331 0.00302733 -2.10508e-18)
(0.806637 0.00984992 4.57917e-17)
(0.212826 0.212819 -4.7607e-16)
(1.00318 0.00286604 -5.61747e-18)
(0.99999 -4.86622e-06 2.33623e-17)
(1.00025 4.93719e-05 -5.37376e-18)
(0.999993 3.45754e-05 -2.93617e-18)
(1.02752 0.0124385 -2.4951e-18)
(0.999993 2.2904e-05 3.49901e-18)
(0.999992 1.47228e-05 3.03222e-18)
(1.12213 0.0574017 2.71057e-17)
(1.03163 0.0100605 1.05736e-18)
(1.08878 0.162093 2.8727e-17)
(1.00151 0.00306688 -4.28111e-19)
(1.03493 0.0112507 1.09181e-18)
(1.00747 0.000960865 1.55763e-17)
(1.00012 0.00872201 3.2963e-18)
(1.03122 0.0269264 -7.76199e-18)
(1.01591 0.0104933 2.56085e-19)
(0.938393 0.00275609 9.15366e-17)
(1.01569 0.00966981 6.61812e-19)
(1.00295 0.00260041 -2.64567e-18)
(1.00048 5.65294e-05 1.01577e-18)
(1.03252 0.00892865 3.34867e-19)
(1.03514 0.0114156 -4.05645e-18)
(1.00553 0.00139343 1.69117e-17)
(0.725469 0.0339515 2.53638e-17)
(1.03227 0.0261413 1.72451e-18)
(1.03312 -0.000164647 1.30827e-18)
(0.999084 0.0342446 -2.53895e-18)
(1.00106 0.0418233 -2.42789e-17)
(1.00001 0.000118894 -2.10574e-17)
(0.407889 0.595686 -2.48779e-16)
(1.0345 0.0788909 1.37904e-17)
(1.00117 0.0034811 -4.12322e-18)
(0.975556 0.179696 -2.23221e-17)
(0.984546 0.00132573 -1.71916e-17)
(0.999975 7.00675e-05 9.60089e-18)
(1 3.37064e-05 3.87431e-18)
(0.99999 6.40171e-05 -3.36279e-18)
(1.09594 0.159936 4.60133e-17)
(0.947238 0.0924946 -3.04353e-17)
(0.98875 0.0288388 5.03672e-17)
(1.02658 0.009223 9.07186e-19)
(1.03583 -0.000559516 -1.54409e-18)
(0.999398 0.0111628 -2.20141e-17)
(0.938444 0.00541286 -2.54148e-16)
(0.999176 0.0338683 3.05995e-18)
(1.04714 0.0128925 -4.17918e-18)
(1.107 0.0349659 6.72709e-18)
(0.715631 0.0352697 1.48852e-16)
(0.994152 0.0230427 -6.56338e-18)
(0.959254 0.0508298 -4.82815e-17)
(1.0185 -0.00156158 -2.05924e-18)
(1.02568 0.0357108 -1.36082e-17)
(1.01122 0.0105341 1.06454e-17)
(1.01594 0.0117454 -7.03689e-19)
(0.998012 0.00019257 1.01844e-17)
(1.01192 0.0106733 -1.7207e-18)
(1.03039 0.0117266 1.38689e-18)
(0.999992 2.10418e-05 7.08305e-18)
(0.923063 -0.0310608 3.24735e-17)
(0.990781 0.00100879 2.16253e-16)
(1.05535 0.0113011 -1.35257e-18)
(1.03499 0.00931918 -6.92511e-18)
(0.993884 0.00107661 -9.09207e-17)
(0.952539 0.0551208 -3.21672e-17)
(1.18204 0.243129 -8.33744e-18)
(1.02798 0.013969 -2.65152e-18)
(1.00813 0.0157972 3.47681e-18)
(1.03599 -0.00233185 -3.22089e-18)
(1.03639 0.00965472 -4.58881e-18)
(1.02834 0.0310226 -1.02669e-17)
(1.00426 0.00277652 1.10244e-17)
(1 1.19142e-05 1.11623e-18)
(0.995744 0.0702299 -7.44105e-18)
(1.00031 6.96332e-05 -1.93196e-18)
(1.05179 0.0163183 3.31622e-18)
(1.00276 -0.000150404 1.51616e-19)
(0.965938 0.0037422 2.75946e-16)
(0.963623 0.0419144 2.65905e-17)
(1.01073 0.00162194 -5.55895e-18)
(1.10293 0.111079 -1.6738e-18)
(0.942768 0.0704433 -1.48898e-19)
(0.995298 0.0159898 4.36272e-19)
(1.00096 0.00377515 1.04528e-17)
(0.588244 0.0792215 -6.27373e-16)
(1.00066 0.000121907 4.61674e-19)
(1.00126 0.00293283 -1.51429e-18)
(1.04278 0.0394084 1.07053e-17)
(0.999988 3.37196e-05 1.49135e-17)
(1.001 0.00393747 -1.38228e-17)
(1.00148 0.00260372 4.76223e-18)
(0.716809 0.241873 6.6012e-17)
(0.720566 0.456165 3.0654e-17)
(0.998365 0.0122186 -1.19018e-17)
(1.00117 -0.000670862 5.57141e-18)
(0.939805 0.0281712 -6.11374e-17)
(1.00153 0.0404276 -8.57218e-18)
(1.02725 0.0108736 -2.59449e-18)
(1.03125 0.0144002 -2.4944e-18)
(1.0318 0.0109745 2.97462e-18)
(1.00079 -4.51682e-05 -6.83922e-19)
(0.999992 3.27428e-05 9.77376e-18)
(1.0009 0.0360905 -3.04755e-17)
(0.999991 1.03852e-05 -1.35645e-17)
(0.965931 0.0392784 -4.17572e-17)
(1.02608 0.0105854 1.47974e-18)
(1.02612 0.0325815 -8.17414e-18)
(0.996772 0.000611963 -1.18028e-17)
(0.997633 0.066276 -2.52359e-17)
(1.04501 0.0390085 1.95432e-17)
(0.997893 0.000116111 -5.49043e-16)
(1.00167 0.0117645 -7.99816e-18)
(1.00554 0.00122409 1.3216e-17)
(0.927992 0.0453772 -9.2704e-17)
(1.04314 0.0404075 3.06647e-18)
(0.999984 7.55099e-05 8.24788e-18)
(1.00055 0.0384593 -4.36523e-18)
(1.03204 0.00703554 1.65863e-18)
(1.0161 -0.000142983 -3.53237e-18)
(1.00039 0.0386854 -1.94249e-17)
(1.0033 -0.00016904 1.21054e-17)
(0.93232 0.0955675 -4.64878e-17)
(1.02606 0.00120933 -3.84082e-18)
(1.03566 0.00718752 8.60288e-19)
(1.02675 0.032326 1.58961e-17)
(1.00093 5.178e-05 2.99343e-18)
(1.00116 0.0117353 1.92942e-17)
(1.05373 0.0585413 -1.14082e-17)
(1.05304 0.0148717 7.32038e-18)
(1 1.78273e-05 4.08956e-19)
(1.01088 0.0159385 -1.99499e-17)
(0.989024 0.170021 -2.53834e-17)
(1.03575 0.00253237 1.34235e-18)
(0.526717 0.470324 -1.30585e-16)
(1 2.95718e-05 6.38067e-18)
(1.00263 0.000471358 -1.0364e-18)
(1.00075 0.000224123 8.40267e-18)
(1.03045 0.0133548 3.27325e-18)
(0.995262 0.0182745 -1.16523e-17)
(0.995672 0.0130647 -1.10159e-17)
(1.00319 0.000367853 -2.39835e-18)
(0.999486 0.0360855 1.5034e-17)
(1.0171 0.0123718 -6.22688e-18)
(0.972301 0.00330227 1.58632e-16)
(1.00926 0.00103013 -1.40523e-18)
(1.08203 0.086901 1.16325e-17)
(1.00038 -2.41147e-05 -5.88784e-18)
(1.08613 0.100472 -1.12105e-18)
(1.00144 0.000133893 9.32337e-18)
(0.619081 0.621345 1.38107e-16)
(1.02686 0.00216343 2.84566e-18)
(1.05129 0.0612227 -9.96299e-18)
(0.999862 3.64153e-05 5.12702e-17)
(0.996924 0.000668761 4.85306e-17)
(1.02537 0.0269627 2.98365e-18)
(1.0038 0.00216664 9.94992e-18)
(0.998894 0.000189022 1.22306e-16)
(0.992132 0.000432833 4.46702e-16)
(0.994015 0.0203538 -1.33494e-17)
(0.994166 0.0205349 -4.04179e-18)
(0.967929 0.158541 -1.08622e-18)
(1.03313 0.0301778 -7.39154e-18)
(1.03325 0.0302282 -4.6066e-18)
(1.00001 1.38407e-05 1.03192e-18)
(1.00407 0.0021397 -1.18518e-17)
(1.02667 0.0119143 -3.01982e-18)
(1.05269 0.0150345 6.87104e-18)
(1.00001 -8.36158e-07 7.11113e-18)
(1.00042 0.000173305 -1.73916e-18)
(1.03173 0.00856701 2.81249e-18)
(1.00071 0.000199123 3.40346e-18)
(0.807153 0.0537129 -6.18757e-16)
(1.18822 0.246349 -1.41909e-17)
(1.12754 -0.0346557 7.38042e-17)
(1.00001 5.66477e-06 2.38252e-18)
(1.00591 0.00913823 9.36191e-19)
(1.04335 0.0091013 6.30894e-19)
(0.995081 0.0142945 8.03108e-18)
(1.00454 0.000956987 7.74358e-18)
(0.361825 0.679607 5.10339e-16)
(1.00042 8.41709e-05 3.5636e-19)
(0.933184 0.0745137 2.19802e-17)
(0.96076 0.0447204 3.37976e-17)
(1.00708 0.0090505 -1.27109e-18)
(1.00457 0.000939795 2.16283e-17)
(0.998741 0.000259978 1.28182e-16)
(1.01082 0.00100429 -3.31315e-18)
(1.03879 0.00330582 6.94261e-19)
(1.01678 0.00864066 -1.67709e-18)
(0.996825 0.0114762 2.49834e-17)
(0.999995 1.08879e-06 4.86332e-19)
(0.999986 2.42517e-05 -5.24914e-17)
(0.994555 0.0177732 -1.67437e-17)
(0.99652 0.00122086 -8.96952e-17)
(0.992882 0.0598991 1.76582e-17)
(1.03114 0.0119744 4.39542e-18)
(0.999213 3.32452e-05 -1.58501e-16)
(1.00044 0.000203792 -8.09439e-19)
(1.02672 0.0281731 2.24964e-18)
(0.891343 -0.0412448 4.2456e-17)
(0.997842 0.000236547 -1.6913e-16)
(1.04679 0.012583 -4.86091e-18)
(1.00022 9.76409e-05 -4.68577e-19)
(0.996311 0.0112929 -1.22088e-17)
(0.952941 0.0837599 9.51938e-17)
(1.0386 0.000869816 -6.00928e-19)
(1.04079 0.00882792 -1.65742e-18)
(0.952702 0.055755 1.78574e-17)
(1.00248 0.0184771 1.8511e-17)
(1.03834 0.00387972 1.1909e-19)
(1 5.07349e-05 1.54132e-18)
(0.999944 1.1624e-05 2.11888e-16)
(1.03727 0.00237932 -8.66885e-19)
(1.01039 0.00960964 -1.50618e-17)
(1.0032 0.0192921 8.39221e-18)
(1.01031 0.00956864 -2.92201e-18)
(0.999998 4.01924e-05 9.72973e-18)
(1.00046 0.000200249 -1.63969e-18)
(1.00371 0.000307178 -4.76269e-18)
(0.999798 0.0300175 2.40394e-17)
(1.03894 0.00399148 -2.652e-18)
(0.9457 0.0389386 2.72979e-17)
(0.99009 0.00110828 2.35053e-16)
(0.928582 0.0342402 -2.78004e-17)
(1.03043 0.0138748 -9.18298e-19)
(1.0085 0.0173152 2.13772e-17)
(0.936104 0.0469471 4.22446e-17)
(0.98577 0.0216276 4.55134e-17)
(1.05311 0.0103315 2.39461e-18)
(1.0315 0.0108985 6.69858e-19)
(0.986358 0.0203117 -6.06306e-17)
(0.993733 0.0573988 3.9903e-18)
(0.999885 9.5782e-05 2.4237e-17)
(1.00981 0.0650046 -2.52613e-17)
(1.0268 0.0261125 1.4104e-17)
(1.00001 -8.14342e-06 3.65091e-18)
(0.999995 -3.65187e-07 -3.32976e-17)
(1.00078 4.15169e-05 5.69952e-18)
(0.99974 0.000454307 -7.44449e-17)
(1.06367 0.0658862 4.56395e-18)
(1.01066 0.0165071 -1.5131e-17)
(1.01236 0.00212935 2.01127e-20)
(0.944 0.0446985 9.18809e-18)
(0.992215 4.13588e-05 6.81482e-17)
(0.794676 0.0201057 -1.37634e-16)
(1.03626 0.00265208 2.31613e-18)
(1.03846 0.00243284 1.44625e-18)
(1.00425 0.000181899 6.46565e-18)
(1.04892 0.04003 -3.63349e-18)
(1.00001 5.09633e-05 -9.50291e-18)
(0.998979 0.029393 1.26756e-17)
(1.00041 0.00375217 1.41782e-18)
(0.938372 0.109754 -2.79776e-17)
(0.933868 0.0493535 -3.30621e-17)
(1.00188 0.0161855 1.65722e-17)
(1.01639 0.0113039 -4.35407e-18)
(0.443983 0.648279 -1.26766e-16)
(1.0298 0.0117105 3.1139e-19)
(1.04187 0.0596988 -1.23397e-17)
(1.00958 0.0120594 9.51542e-18)
(0.978883 0.148731 3.30511e-17)
(1.17269 0.195359 -6.46807e-17)
(1.00108 -9.59778e-05 1.04443e-18)
(0.998276 0.00332582 -4.73821e-18)
(1 1.24044e-05 -1.6693e-18)
(1.05818 0.0628013 -1.10726e-18)
(0.998455 0.00309608 6.99706e-18)
(1.01583 0.00913902 -4.05236e-18)
(1.10266 0.102503 -1.65228e-18)
(1.0004 9.49232e-05 -1.03628e-18)
(0.972121 0.00226992 -3.52154e-16)
(0.992683 0.0512684 6.72956e-19)
(1.00669 0.0147914 5.31076e-18)
(0.997666 0.000249379 -3.55279e-16)
(1.00183 0.0167903 2.56976e-17)
(0.999196 0.000838854 1.61608e-17)
(0.995178 0.0156439 2.48274e-17)
(0.999194 0.000698954 1.42311e-18)
(0.999236 0.000911771 3.27902e-18)
(0.996225 0.0130383 8.63992e-18)
(1.03598 0.00578302 1.78613e-19)
(1.03371 0.0083131 -3.12753e-19)
(1.00672 0.0165309 -5.8928e-18)
(0.669656 0.0406737 5.24207e-16)
(1.03732 0.000371074 -2.82918e-19)
(0.273353 0.253923 6.58475e-17)
(1.02884 0.0139252 -1.36073e-17)
(1.0234 0.000388883 -6.39565e-18)
(0.995625 0.0143027 -3.35194e-17)
(1.02818 0.0139371 2.64288e-18)
(0.992752 0.0263501 2.34388e-17)
(1.03487 0.00112868 7.83985e-20)
(0.523543 0.393472 -2.02235e-16)
(0.950016 0.0350832 8.25359e-17)
(0.992933 0.0240718 -1.40789e-18)
(1.00478 0.022164 -5.18631e-18)
(0.995256 0.001102 1.38479e-16)
(0.996256 0.00102024 -1.07331e-16)
(1.0262 0.0294348 -2.83163e-18)
(1 1.50659e-05 -1.31954e-19)
(1.05345 0.00399795 4.96208e-18)
(0.999359 8.49432e-05 -1.61516e-17)
(0.946062 0.038567 2.56506e-17)
(1.0018 0.0707231 -2.63705e-18)
(1.06224 0.0590017 1.2757e-17)
(1.03873 0.0251335 -5.71701e-18)
(1.03457 0.0142222 2.01046e-19)
(0.991705 0.0489991 -7.74497e-18)
(1.00941 0.012847 8.65146e-18)
(1.03806 0.0242646 -4.15369e-18)
(0.971484 0.0305483 -1.16844e-18)
(1.04245 0.0602461 -1.88944e-17)
(1.00791 0.0217092 3.86263e-18)
(1.04476 0.0394378 1.18309e-17)
(1.00558 0.0226286 -1.91824e-17)
(1 2.97666e-05 -9.81525e-19)
(0.998808 0.0255543 -2.06636e-17)
(0.648836 0.0485178 -4.41507e-17)
(0.978037 0.132749 5.28315e-17)
(1.00641 0.00542044 -4.96293e-19)
(1.00005 4.30172e-06 -1.37847e-19)
(0.999068 0.000194769 -7.69347e-17)
(0.994686 0.00735326 7.68122e-18)
(0.963729 0.00218145 -1.8578e-16)
(1.03373 0.00696173 3.75084e-19)
(1.02826 -0.000239813 -6.66491e-19)
(1.00077 -0.000166539 7.49809e-18)
(1.00473 0.00682912 -2.56409e-18)
(0.993348 0.0283171 1.15061e-17)
(1.0064 0.00527447 1.17094e-17)
(1.00923 0.00162914 -8.66218e-19)
(1.04577 0.033404 1.75219e-17)
(0.9937 0.00128579 -2.91752e-17)
(0.992822 0.0338229 1.82997e-17)
(1.03562 0.0136243 -5.37417e-18)
(1.00533 0.00621226 -1.53957e-17)
(1.00806 0.00639578 7.9906e-18)
(0.947499 0.0593901 3.96517e-17)
(1 -1.29014e-05 -2.01212e-18)
(0.993486 0.00544034 -7.01768e-18)
(1.30683 0.172292 3.03789e-17)
(0.999885 4.4571e-05 1.82227e-16)
(1.04024 0.0363539 -1.6814e-18)
(0.997154 0.0717918 -1.35465e-17)
(1.00759 0.0067692 -7.36684e-18)
(0.959333 0.0454371 4.21363e-17)
(1.03539 0.0147746 -9.32373e-18)
(0.997815 0.0257464 -1.67403e-18)
(1.02917 0.0322538 1.12405e-17)
(0.999684 0.00310365 3.88737e-18)
(0.934892 0.0390693 -1.58042e-16)
(1.0052 0.000588283 1.37426e-17)
(1.03204 0.000317064 4.65035e-19)
(1.03499 0.0146272 8.08487e-18)
(0.934974 0.0460825 -6.28799e-17)
(0.99971 0.0030131 3.0139e-18)
(1.03955 0.00329879 8.6797e-19)
(1.05166 0.0214652 -4.32086e-18)
(0.991922 0.0343605 -2.30337e-17)
(1.00582 0.0133019 2.94632e-18)
(1.00467 0.00282857 -1.653e-18)
(1.01246 0.0655132 -4.04385e-17)
(0.798349 0.189124 8.58857e-17)
(0.995686 0.000910011 -7.26182e-17)
(0.999979 3.64025e-05 4.93208e-17)
(0.993704 0.0249391 -1.31931e-17)
(1 3.05636e-05 4.80617e-19)
(1.16565 0.20874 -4.55216e-17)
(1.00671 0.0222599 6.32968e-18)
(1.03852 0.0867819 1.78498e-17)
(1.01543 0.00719306 1.69438e-17)
(1.02608 0.0001713 5.51114e-18)
(0.250274 0.09835 -5.18187e-16)
(1.00654 0.0153123 3.45552e-17)
(1.08493 0.205553 6.18538e-17)
(1.03324 0.0070053 -1.49144e-18)
(1.06097 -0.0351534 5.70217e-17)
(1.02832 0.0120263 2.70633e-18)
(0.997016 0.0117842 -1.56637e-17)
(1.00609 0.0141638 7.59108e-18)
(1.01572 -9.90942e-05 -2.46615e-18)
(1.09553 0.0944517 -6.76672e-18)
(1.08388 0.0878488 -8.37805e-18)
(1.00097 -2.45935e-05 -7.4725e-18)
(1.00192 0.000229242 5.48488e-19)
(0.929048 0.04869 -2.1038e-16)
(1.00201 -0.000126653 -1.10156e-17)
(0.68613 0.384036 1.79717e-17)
(1.02816 0.0310436 -1.53686e-17)
(0.969916 0.172457 -6.50824e-17)
(1.00408 0.00300729 -1.81536e-17)
(0.0595604 0.252176 -3.21143e-16)
(1.13753 0.224352 1.53081e-17)
(1.00571 0.0221816 -5.44588e-18)
(0.999994 1.5404e-05 2.0789e-18)
(0.999994 0.00268488 5.47201e-18)
(0.95307 0.0304206 6.10688e-17)
(0.994477 0.00802978 -8.41676e-18)
(0.989716 0.00039228 -1.91034e-16)
(0.997268 0.00992764 2.4244e-17)
(1.03032 0.0110603 1.07686e-18)
(0.971673 0.0322424 1.96522e-17)
(1.06292 0.0069215 7.33604e-18)
(0.619464 0.0502834 -5.85044e-16)
(1.00065 -9.15413e-05 1.02098e-17)
(0.964615 0.0372826 7.84059e-17)
(1.03339 0.0292252 6.28386e-18)
(0.922953 0.0560753 2.8178e-17)
(1.00451 0.0126935 1.43324e-17)
(0.930446 0.0768301 1.14311e-17)
(1.03604 0.00780628 -2.61321e-19)
(0.954838 0.0350224 -5.21421e-17)
(0.997168 0.000555374 -2.22644e-17)
(1.00005 3.7411e-06 1.39464e-18)
(1.03624 0.0228761 7.47694e-18)
(1.04024 0.0241759 4.29255e-18)
(1.02789 0.00177782 3.28157e-18)
(0.931337 0.0330737 1.33177e-16)
(1.03597 0.0837004 1.99442e-17)
(1.02133 0.000682203 -5.41374e-18)
(0.997406 0.0238249 1.14637e-17)
(1.00065 0.00371826 -4.53813e-18)
(1.00925 0.00855284 -2.98186e-18)
(0.7741 0.0313906 4.54774e-16)
(1.00907 0.00827703 -1.76032e-20)
(1.03359 0.0199259 -1.48683e-17)
(0.983301 0.0408283 2.7015e-17)
(1.02624 0.00937439 -2.00394e-19)
(1.01063 0.000434765 -1.79967e-17)
(0.996634 0.0112522 -1.33196e-17)
(1.05184 0.0205906 5.68063e-18)
(1.01487 0.00685899 1.45224e-18)
(1.00513 0.0129233 -2.56023e-18)
(1.05635 0.00377711 -3.73086e-17)
(0.990366 0.0299553 9.63785e-18)
(1.02055 0.00185716 -2.73315e-18)
(0.808619 0.333686 7.10423e-18)
(1 -2.80915e-07 1.76447e-19)
(1.01526 0.00780221 1.46166e-17)
(0.999341 0.0210071 1.33245e-17)
(0.99252 0.00708537 -1.05506e-17)
(1.00318 0.000501606 6.0308e-18)
(0.998002 0.0241927 -3.88401e-17)
(1.00001 -3.24528e-06 -9.88128e-19)
(1.04555 0.105529 2.08252e-17)
(1.00539 0.000832242 -1.08315e-17)
(0.972912 0.00567103 2.03992e-16)
(1.03542 0.0323452 -9.36505e-18)
(0.956967 0.0473997 6.61621e-17)
(1.01651 0.00891045 -1.12138e-17)
(1.01597 0.00814332 1.5264e-17)
(1.03642 0.0227692 2.17031e-18)
(1.13951 0.0795611 -3.70833e-17)
(0.999869 7.26355e-05 -2.45776e-17)
(0.992815 0.000822924 -1.45682e-16)
(1.02186 0.0011483 -7.63091e-18)
(1.10875 0.197284 2.28182e-17)
(1.03898 0.0237345 -4.07072e-18)
(0.999946 0.00300587 -2.52949e-18)
(0.261541 0.141465 -1.25204e-15)
(1.00004 2.80525e-05 1.99317e-18)
(1.00503 0.00134789 2.52482e-18)
(0.77718 0.00297687 1.79714e-16)
(0.994622 0.00509324 5.10256e-18)
(0.999565 0.00321535 -7.20595e-18)
(0.999478 0.00337507 -6.30075e-19)
(0.98382 0.0375678 2.18316e-17)
(0.959829 0.0276679 1.51941e-17)
(0.999859 1.03466e-05 -1.12318e-16)
(0.99361 0.00638544 -3.11656e-18)
(0.936231 0.0664736 6.24882e-17)
(0.998484 0.0204038 3.18209e-18)
(0.996432 0.0162801 -3.0811e-17)
(0.996489 0.009516 9.17146e-19)
(1.0012 9.16574e-05 -4.36131e-18)
(0.959347 0.0321096 5.46597e-17)
(1.0649 0.0554452 4.69909e-18)
(0.994825 0.0161481 1.41016e-17)
(0.93741 0.0282478 4.94584e-17)
(1.03354 0.00573787 -3.64472e-18)
(1.03431 8.98325e-05 1.4938e-18)
(1.04218 0.102772 3.72321e-17)
(1.03273 0.0296604 -5.86497e-18)
(0.996655 0.00909477 -4.87277e-18)
(1.00477 0.00169937 1.52916e-17)
(1.0882 0.0960265 -1.0428e-17)
(1.03702 0.00549086 1.45759e-18)
(0.976309 0.0244301 -4.02177e-17)
(1.00065 0.00417969 -8.32903e-19)
(0.999683 0.000417338 -6.59024e-17)
(0.926723 0.0138012 -3.67772e-17)
(1.0487 0.0386232 1.431e-17)
(1.01389 0.00650639 1.34489e-18)
(1.01152 0.0479044 -1.26381e-17)
(1.01443 0.0074074 -5.24802e-18)
(0.996859 0.00981244 1.44341e-17)
(1.00537 0.00449673 2.71062e-18)
(0.966141 0.0349409 8.54921e-18)
(0.849411 0.00927353 -1.12343e-16)
(0.294797 0.424167 2.04152e-16)
(0.969688 0.0363998 2.97131e-17)
(0.999112 0.0177892 -1.63931e-17)
(1.00495 0.00447336 -5.82001e-19)
(0.970291 0.0335074 5.27154e-17)
(0.625397 0.277345 1.51164e-16)
(0.93806 0.0298991 4.62789e-17)
(0.999779 0.00286187 -1.14222e-18)
(1.04814 0.0314712 1.39726e-18)
(1.06061 0.070274 -3.33144e-18)