/*--------------------------------*- C++ -*----------------------------------*\
  =========                 |
  \\      /  F ield         | OpenFOAM: The Open Source CFD Toolbox
   \\    /   O peration     | Website:  https://openfoam.org
    \\  /    A nd           | Version:  7
     \\/     M anipulation  |
\*---------------------------------------------------------------------------*/
FoamFile
{
    version     2.0;
    format      ascii;
    class       surfaceScalarField;
    location    "109";
    object      phi;
}
// * * * * * * * * * * * * * * * * * * * * * * * * * * * * * * * * * * * * * //

dimensions      [0 3 -1 0 0 0 0];

internalField   nonuniform List<scalar> 
82640
(
-0.000135075
0.0021776
-0.00204252
-0.000275396
0.000498588
-0.000358267
-0.000367107
-0.00257981
0.00267152
-0.000390565
-0.00643577
0.00645922
-0.000397067
-0.0092913
0.00929781
-0.000327402
-0.0105815
0.0105118
-4.8495e-05
-0.00957375
0.00929485
0.000479517
-0.00582166
0.00529365
0.00114132
-0.00064828
-1.35192e-05
0.00181238
0.00425272
-0.00492378
0.00237828
0.0079834
-0.00854931
0.00280729
0.0103629
-0.0107919
0.00309127
0.0115835
-0.0118675
0.00312246
0.0122843
-0.0123155
0.00298551
0.0130235
-0.0128866
0.00314215
0.0117852
-0.0119418
0.00383719
0.00685324
-0.00754829
0.0048113
0.000160044
-0.00113415
0.00573658
-0.00588612
0.00496083
0.00646256
-0.00977605
0.00905008
0.00703684
-0.0117624
0.0111881
0.0072842
-0.0124975
0.0122502
0.00714955
-0.0133192
0.0134538
0.00698562
-0.0136658
0.0138297
-0.0111439
0.0108115
0.007318
-0.000132005
0.0023096
-0.000268125
0.000634709
-0.000355162
-0.00249277
-0.000378631
-0.0064123
-0.000397893
-0.00927204
-0.000363836
-0.0106156
-0.000130285
-0.00980731
0.000365391
-0.00631733
0.00101441
-0.0012973
0.0016908
0.00357633
0.00227567
0.00739852
0.00273663
0.00990192
0.00303955
0.0112806
0.00307018
0.0122536
0.00296914
0.0131246
0.00322181
0.0115325
0.00400235
0.0060727
0.00501678
-0.000854385
0.00592858
-0.00679792
0.0065896
-0.0104371
0.00711521
-0.012288
0.00734316
-0.0127255
0.00720437
-0.0131804
0.00702838
-0.0134898
-0.0114448
0.0073293
-0.000128031
0.00243763
-0.000258508
0.000765185
-0.000338777
-0.0024125
-0.000359155
-0.00639192
-0.000386577
-0.00924462
-0.000383897
-0.0106182
-0.000197548
-0.00999365
0.000263522
-0.0067784
0.000898193
-0.00193197
0.00157685
0.00289767
0.00218039
0.00679499
0.00267306
0.00940925
0.00299204
0.0109616
0.0030284
0.0122173
0.00297762
0.0131753
0.00333428
0.0111759
0.00419529
0.00521169
0.00523927
-0.00189836
0.00613381
-0.00769247
0.00673173
-0.011035
0.00720483
-0.0127611
0.00741448
-0.0129351
0.00728147
-0.0130474
0.00711685
-0.0133252
-0.0117333
0.00740535
-0.000123192
0.00256083
-0.000246648
0.000888641
-0.000318177
-0.00234097
-0.000332543
-0.00637755
-0.000363478
-0.00921368
-0.0003869
-0.0105948
-0.000248305
-0.0101322
0.00017448
-0.00720119
0.000793055
-0.00255054
0.0014715
0.00221922
0.0020938
0.0061727
0.00261677
0.00888628
0.00294927
0.0106291
0.00299895
0.0121676
0.00301311
0.0131612
0.00348254
0.0107064
0.00442135
0.00427287
0.00548023
-0.00295724
0.00634839
-0.00856063
0.00688661
-0.0115732
0.00730248
-0.013177
0.00749397
-0.0131266
0.00737691
-0.0129303
0.0072353
-0.0131836
-0.0120221
0.00752405
-0.000117533
0.00267836
-0.000232669
0.00100378
-0.000293623
-0.00228002
-0.000299294
-0.00637188
-0.000329206
-0.00918377
-0.000372588
-0.0105514
-0.000281036
-0.0102238
9.90221e-05
-0.00758125
0.000699293
-0.00315081
0.00137583
0.00154269
0.00201699
0.00553154
0.00256757
0.0083357
0.00291181
0.0102848
0.00298316
0.0120963
0.0030772
0.0130671
0.00366801
0.0101156
0.0046821
0.00325878
0.00574011
-0.00401525
0.00656823
-0.00938875
0.00705092
-0.0120559
0.00740514
-0.0135312
0.00757592
-0.0132974
0.00748736
-0.0128417
0.00736987
-0.0130661
-0.01231
0.00765782
-0.000111111
0.00278947
-0.000216709
0.00110937
-0.000265399
-0.00223133
-0.000259977
-0.00637731
-0.000284602
-0.00915915
-0.000341199
-0.0104948
-0.000294325
-0.0102707
3.82553e-05
-0.00791383
0.000617255
-0.00372981
0.00129093
0.000869009
0.00195054
0.00487193
0.0025249
0.00776134
0.00288017
0.00992957
0.00298186
0.0119946
0.00317071
0.0128783
0.00388892
0.00939741
0.00497386
0.00217384
0.00601636
-0.00505775
0.00678918
-0.0101616
0.00721998
-0.0124867
0.00751019
-0.0138214
0.00765427
-0.0134415
0.00760899
-0.0127965
0.00751116
-0.0129682
-0.0125775
0.00777869
-0.000103994
0.00289346
-0.000198922
0.0012043
-0.000233797
-0.00219645
-0.000215199
-0.0063959
-0.000230699
-0.00914365
-0.000293488
-0.0104321
-0.000286906
-0.0102773
-7.13087e-06
-0.0081936
0.000547382
-0.00428433
0.00121765
0.00019874
0.00189432
0.00419526
0.00248795
0.00716772
0.00285472
0.00956279
0.00299561
0.0118537
0.00329388
0.01258
0.00414226
0.00854903
0.00528866
0.00102744
0.00630326
-0.00607234
0.00700713
-0.0108654
0.00738787
-0.0128674
0.00761523
-0.0140488
0.00772438
-0.0135506
0.00773567
-0.0128078
0.00765382
-0.0128864
-0.0127899
0.00786616
-9.62536e-05
0.00298972
-0.000179466
0.00128752
-0.000199107
-0.00217681
-0.000165566
-0.00642944
-0.000168665
-0.00914055
-0.000230713
-0.01037
-0.000257833
-0.0102501
-3.19647e-05
-0.00841947
0.000490233
-0.00480652
0.00115617
-0.000467195
0.00184738
0.00350405
0.00245569
0.0065594
0.00283564
0.00918284
0.00302496
0.0116644
0.003447
0.012158
0.00442504
0.00757099
0.00561832
-0.000165841
0.00659314
-0.00704716
0.00721813
-0.0114904
0.0075483
-0.0131976
0.00771751
-0.014218
0.00778487
-0.013618
0.00785828
-0.0128812
0.00779362
-0.0128217
-0.0129073
0.00791111
-8.79727e-05
0.00307769
-0.000158507
0.00135805
-0.000161609
-0.00217371
-0.000111651
-0.0064794
-9.97135e-05
-0.00915249
-0.000154578
-0.0103151
-0.000206838
-0.0101979
-3.68401e-05
-0.00858947
0.000446442
-0.00528981
0.00110585
-0.0011266
0.00180807
0.00280183
0.00242709
0.00594039
0.00282288
0.00878705
0.00307069
0.0114166
0.00363064
0.011598
0.00473479
0.00646684
0.00595582
-0.00138687
0.00687771
-0.00796905
0.00741818
-0.0120309
0.00769566
-0.0134751
0.00781358
-0.0143359
0.00783848
-0.0136429
0.0079665
-0.0130092
0.00792466
-0.0127799
-0.0129007
0.00791801
-7.92381e-05
0.00315693
-0.000136209
0.00141502
-0.000121562
-0.00218836
-5.39231e-05
-0.00654704
-2.48591e-05
-0.00918155
-6.71322e-05
-0.0102729
-0.000134515
-0.0101305
-1.90649e-05
-0.00870492
0.000417122
-0.00572599
0.00106538
-0.00177486
0.00177435
0.00209285
0.00240113
0.00531361
0.00281611
0.00837207
0.00313399
0.0110987
0.00384538
0.0108866
0.00506796
0.00524426
0.00629428
-0.00261319
0.00714879
-0.00882355
0.00760298
-0.0124851
0.00782583
-0.0136979
0.00789936
-0.0144094
0.00789101
-0.0136345
0.00805241
-0.0131706
0.00803903
-0.0127665
-0.0127664
0.00790477
-7.01415e-05
0.00322707
-0.000112744
0.00145762
-7.92085e-05
-0.00222189
8.70346e-06
-0.00663495
5.44152e-05
-0.00922726
2.97296e-05
-0.0102482
-4.25032e-05
-0.0100583
2.33794e-05
-0.0087708
0.00040416
-0.00610677
0.00103348
-0.00240418
0.00174434
0.001382
0.00237697
0.00468098
0.00281481
0.00793423
0.00321665
0.0106968
0.00409126
0.010012
0.00541823
0.00391728
0.00662557
-0.00382052
0.00739867
-0.00959665
0.00776801
-0.0128544
0.00793628
-0.0138662
0.00797114
-0.0144443
0.00794827
-0.0136117
0.00811321
-0.0133355
0.00812924
-0.0127825
-0.0125352
0.00789799
-6.07788e-05
0.00328785
-8.8279e-05
0.00148512
-3.47793e-05
-0.00227539
7.03772e-05
-0.00674011
0.000136085
-0.00929297
0.000132378
-0.0102445
6.64866e-05
-0.00999237
9.19044e-05
-0.00879622
0.000410441
-0.00642531
0.00100979
-0.00300353
0.00171676
0.000675035
0.0023539
0.00404384
0.00281845
0.00746968
0.00332123
0.010194
0.00436721
0.00896604
0.00577654
0.00250795
0.00693998
-0.00498396
0.00762035
-0.010277
0.00790896
-0.0131431
0.00802549
-0.0139827
0.00802711
-0.0144459
0.00801209
-0.0135966
0.00815181
-0.0134753
0.00819231
-0.012823
-0.0122686
0.00792572
-5.12488e-05
0.0033391
-6.29922e-05
0.00149687
1.19354e-05
-0.00235032
0.000135697
-0.00686387
0.000220602
-0.00937788
0.000239521
-0.0102634
0.000189073
-0.00994192
0.000186094
-0.00879324
0.000439643
-0.00667886
0.000995733
-0.00355962
0.0016914
-2.0633e-05
0.00233132
0.00340391
0.00282712
0.00697388
0.00345116
0.00957001
0.00467053
0.00774667
0.00613216
0.00104631
0.00722728
-0.00607908
0.00780796
-0.0108577
0.00802218
-0.0133573
0.00809262
-0.0140532
0.00806839
-0.0144217
0.00807793
-0.0136062
0.00817465
-0.013572
0.00823163
-0.01288
-0.0120418
0.00800481
-4.16511e-05
0.00338075
-3.70962e-05
0.00149231
5.92729e-05
-0.00244669
0.000203037
-0.00700764
0.000306846
-0.00948168
0.000348992
-0.0103055
0.000321084
-0.00991401
0.000304399
-0.00877656
0.000495578
-0.00687004
0.00099495
-0.00405899
0.00166928
-0.000694959
0.00230875
0.00276444
0.00284253
0.0064401
0.00361085
0.00880169
0.00499594
0.00636159
0.00647351
-0.000431262
0.00747781
-0.00708337
0.00795706
-0.0113369
0.00810515
-0.0135054
0.00813753
-0.0140856
0.00809836
-0.0143825
0.00813641
-0.0136442
0.00819027
-0.0136258
0.00825614
-0.0129459
-0.0119177
0.00813209
-3.20852e-05
0.00341283
-1.10659e-05
0.00147129
0.000108439
-0.00256619
0.000271853
-0.00717105
0.000394041
-0.00960387
0.00045899
-0.0103705
0.000458365
-0.00991339
0.00044324
-0.00876143
0.000581152
-0.00700795
0.00101308
-0.00449092
0.00165281
-0.00133469
0.00228648
0.00213077
0.00286959
0.00585699
0.0038054
0.00786587
0.00533547
0.00483153
0.00678785
-0.00188364
0.00768339
-0.00797891
0.00806486
-0.0117184
0.00815683
-0.0135973
0.00816126
-0.01409
0.00812008
-0.0143413
0.00817845
-0.0137026
0.00820778
-0.0136552
0.00827865
-0.0130168
-0.0119224
0.0082833
-2.26446e-05
0.00343548
1.58939e-05
0.00143275
0.00015885
-0.00270915
0.000341694
-0.00735389
0.00048152
-0.0097437
0.000568127
-0.0104571
0.000597005
-0.00994227
0.000597304
-0.00876173
0.000697197
-0.00710784
0.00105688
-0.00485061
0.00164648
-0.00192429
0.0022674
0.00150985
0.00291802
0.00520637
0.00403945
0.00674444
0.00567716
0.00319381
0.00706296
-0.00326943
0.007838
-0.00875396
0.00813034
-0.0120108
0.00817787
-0.0136449
0.00816601
-0.0140781
0.00813385
-0.0143092
0.00820081
-0.0137696
0.00823238
-0.0136867
0.00831116
-0.0130955
-0.0120374
0.00842619
-1.34223e-05
0.0034489
4.39804e-05
0.00137535
0.000210264
-0.00287543
0.000412118
-0.00755575
0.000568664
-0.00990024
0.000675361
-0.0105638
0.0007337
-0.0100006
0.00076017
-0.0087882
0.000841521
-0.00718919
0.00113282
-0.00514191
0.00165793
-0.0024494
0.00226038
0.0009074
0.00300324
0.00446352
0.00431476
0.00543292
0.00600625
0.00150232
0.00728746
-0.00455064
0.00793832
-0.00940482
0.00815438
-0.0122268
0.00817065
-0.0136611
0.00815446
-0.0140619
0.00813724
-0.0142919
0.00820765
-0.01384
0.00826165
-0.0137407
0.00835772
-0.0131916
-0.0122229
0.00854318
-4.50207e-06
0.0034534
7.18103e-05
0.00129904
0.000262458
-0.00306608
0.000482681
-0.00777597
0.000654868
-0.0100724
0.000779888
-0.0106888
0.000865963
-0.0100867
0.000925196
-0.00884743
0.00100855
-0.00727255
0.00124523
-0.00537858
0.00169884
-0.002903
0.00228332
0.000322911
0.00314437
0.00360248
0.00462683
0.00395045
0.00630555
-0.0001764
0.00745238
-0.00569746
0.007984
-0.00993645
0.00813987
-0.0123827
0.00813888
-0.0136601
0.00812872
-0.0140518
0.00812813
-0.0142913
0.00820618
-0.013918
0.00828885
-0.0138234
0.00841076
-0.0133135
-0.0124488
0.00863669
4.05341e-06
0.00344935
9.96399e-05
0.00120345
0.000315215
-0.00328165
0.000552941
-0.0080137
0.000739543
-0.010259
0.000881057
-0.0108303
0.000992149
-0.0101978
0.00108645
-0.00894173
0.00118985
-0.00737595
0.00139434
-0.00558308
0.00178339
-0.00329205
0.00236202
-0.000255717
0.00335755
0.00260695
0.00496082
0.00234718
0.00655755
-0.00177313
0.00755231
-0.00669223
0.00797789
-0.010362
0.00809152
-0.0124963
0.00808685
-0.0136555
0.00809018
-0.0140551
0.00810729
-0.0143085
0.00820039
-0.0140111
0.00830874
-0.0139318
0.00845945
-0.0134642
-0.0127043
0.00871491
1.21779e-05
0.00343717
0.000127463
0.00108817
0.000368313
-0.0035225
0.000622458
-0.00826784
0.00082212
-0.0104587
0.000978289
-0.0109865
0.00111131
-0.0103308
0.00123941
-0.00906983
0.00137545
-0.007512
0.00157471
-0.00578234
0.00192302
-0.00364037
0.00252062
-0.000853314
0.00364466
0.00148291
0.0052905
0.000701344
0.00674637
-0.003229
0.00758633
-0.00753219
0.00792571
-0.0107014
0.00801539
-0.012586
0.0080187
-0.0136588
0.00804021
-0.0140766
0.00807751
-0.0143458
0.00818932
-0.0141229
0.00832033
-0.0140628
0.008498
-0.0136419
-0.0129879
0.00878161
1.98633e-05
0.00341731
0.000155257
0.000952773
0.00042152
-0.00378877
0.000690801
-0.00853712
0.000902059
-0.01067
0.00107105
-0.0111555
0.00122294
-0.0104827
0.00138126
-0.00922815
0.00155577
-0.0076865
0.00177509
-0.00600166
0.00211943
-0.0039847
0.00276445
-0.00149833
0.00398349
0.000263869
0.00558238
-0.000897543
0.00686072
-0.00450735
0.00755856
-0.00823002
0.00783556
-0.0109784
0.00791803
-0.0126685
0.00793811
-0.0136788
0.00798071
-0.0141192
0.0080408
-0.0144058
0.00817095
-0.0142531
0.00832469
-0.0142165
0.00852685
-0.0138441
-0.0132967
0.00883568
2.71099e-05
0.0033902
0.000183018
0.000796865
0.000474596
-0.00408035
0.000757554
-0.00882008
0.000978863
-0.0108913
0.00115886
-0.0113355
0.00132678
-0.0106506
0.00151075
-0.00941213
0.00172336
-0.00789911
0.00198053
-0.00625884
0.00235807
-0.00436224
0.00306974
-0.00221
0.00432821
-0.00099461
0.00580475
-0.00237408
0.00689719
-0.00559978
0.00747798
-0.00881082
0.0077169
-0.0112173
0.00780571
-0.0127573
0.00784824
-0.0137214
0.00791371
-0.0141847
0.00799757
-0.0144897
0.00814522
-0.0144007
0.00832168
-0.014393
0.00854663
-0.014069
-0.0136258
0.00887577
3.3956e-05
0.00335624
0.00021077
0.000620051
0.000527289
-0.00439686
0.000822321
-0.00911511
0.00105209
-0.011121
0.0012413
-0.0115247
0.00142265
-0.0108319
0.00162768
-0.00961716
0.00187385
-0.00814528
0.00217629
-0.00656128
0.00261109
-0.00479704
0.0033879
-0.00298681
0.00462548
-0.00223219
0.00593787
-0.00368646
0.00686209
-0.006524
0.00735721
-0.00930595
0.00757929
-0.0114394
0.00768385
-0.0128619
0.00775175
-0.0137893
0.00784076
-0.0142737
0.00794788
-0.0145968
0.00811301
-0.0145659
0.0083104
-0.0145904
0.00855662
-0.0143152
-0.0139706
0.00890137
4.04773e-05
0.00331577
0.000238574
0.000421954
0.000579342
-0.00473763
0.000884734
-0.00942051
0.00112134
-0.0113576
0.00131803
-0.0117214
0.00151041
-0.0110243
0.00173235
-0.0098391
0.00200579
-0.00841872
0.00235152
-0.00690701
0.00284748
-0.00529299
0.00366739
-0.00380672
0.00483676
-0.00340155
0.00598064
-0.00483034
0.00677034
-0.00731371
0.00721017
-0.00974578
0.00743111
-0.0116603
0.00755667
-0.0129874
0.00765067
-0.0138833
0.00776289
-0.0143859
0.00789215
-0.0147261
0.00807455
-0.0147483
0.00829035
-0.0148062
0.0085564
-0.0145813
-0.0143272
0.00891299
4.67863e-05
0.00326898
0.000266524
0.000202217
0.000630487
-0.0051016
0.000944458
-0.00973448
0.0011863
-0.0115995
0.00138882
-0.0119239
0.00159002
-0.0112255
0.00182527
-0.0100744
0.00211966
-0.00871311
0.00250071
-0.00728807
0.00304458
-0.00583687
0.00387594
-0.00463807
0.00495234
-0.00447795
0.00594909
-0.00582709
0.00664109
-0.00800571
0.00704946
-0.0101542
0.00727875
-0.0118896
0.00742713
-0.0131358
0.00754647
-0.0140026
0.00768088
-0.0145203
0.00783082
-0.014876
0.00802976
-0.0149472
0.00826178
-0.0150382
0.00854588
-0.0148654
-0.0146925
0.00891123
5.30284e-05
0.00321595
0.000294741
-3.94965e-05
0.000680455
-0.00548731
0.00100119
-0.0100552
0.00124671
-0.011845
0.0014535
-0.0121307
0.00166149
-0.0114335
0.00190694
-0.0103198
0.00221672
-0.00902288
0.0026228
-0.00769415
0.00319381
-0.00640788
0.00400838
-0.00545265
0.00498766
-0.00545722
0.0058676
-0.00670704
0.00649224
-0.00863034
0.00688451
-0.0105464
0.00712645
-0.0121316
0.00729712
-0.0133065
0.00744013
-0.0141456
0.00759525
-0.0146755
0.00776419
-0.0150449
0.0079787
-0.0151617
0.0082251
-0.0152846
0.0085249
-0.0151652
-0.0150645
0.00889685
5.93733e-05
0.00315658
0.00032337
-0.000303493
0.000728977
-0.00589292
0.00105468
-0.0103809
0.00130236
-0.0120927
0.001512
-0.0123403
0.00172496
-0.0116465
0.00197792
-0.0105728
0.00229837
-0.00934334
0.00271951
-0.00811528
0.00329835
-0.00698672
0.00407839
-0.0062327
0.00496845
-0.00634728
0.00575892
-0.00749751
0.00633678
-0.0092082
0.00672114
-0.0109308
0.00697655
-0.012387
0.0071677
-0.0134976
0.00733231
-0.0143102
0.00750637
-0.0148495
0.00769258
-0.0152312
0.00792155
-0.0153907
0.0081806
-0.0155436
0.00849354
-0.0154781
-0.0154415
0.00887057
6.60013e-05
0.00309058
0.000352554
-0.000590046
0.000775787
-0.00631615
0.00110469
-0.0107098
0.00135313
-0.0123411
0.00156431
-0.0125515
0.00178063
-0.0118628
0.00203876
-0.0108309
0.00236596
-0.00967053
0.0027939
-0.00854323
0.00336699
-0.0075598
0.00410492
-0.00697063
0.00491763
-0.00715999
0.0056388
-0.00821868
0.00618227
-0.00975167
0.00656229
-0.0113108
0.00683016
-0.0126548
0.00703944
-0.0137069
0.00722342
-0.0144942
0.00741448
-0.0150406
0.00761632
-0.015433
0.00785847
-0.0156329
0.0081285
-0.0158137
0.00845214
-0.0158018
-0.0158224
0.00883308
7.30857e-05
0.00301749
0.000382423
-0.000899383
0.000820635
-0.00675436
0.00115106
-0.0110402
0.00139893
-0.012589
0.00161052
-0.0127631
0.00182879
-0.0120811
0.00209011
-0.0110922
0.00242076
-0.0100012
0.00284937
-0.00897184
0.00340881
-0.00811924
0.00410354
-0.00766536
0.00485034
-0.00790679
0.00551599
-0.00888433
0.00603226
-0.0102679
0.0064091
-0.0116876
0.00668766
-0.0129334
0.00691258
-0.0139318
0.00711368
-0.0146953
0.00731977
-0.0152467
0.00753574
-0.015649
0.00778963
-0.0158867
0.00806903
-0.0160931
0.00840119
-0.0161339
-0.0162063
0.00878504
8.07734e-05
0.00293672
0.000413062
-0.00123167
0.000863285
-0.00720458
0.00119365
-0.0113706
0.00143976
-0.0128351
0.00165075
-0.0129741
0.00186977
-0.0123001
0.0021326
-0.011355
0.00246406
-0.0103326
0.00288908
-0.00939686
0.0034309
-0.00866106
0.00408442
-0.00831889
0.00477493
-0.0085973
0.0053946
-0.009504
0.00588802
-0.0107614
0.00626173
-0.0120614
0.00654899
-0.0132207
0.00678719
-0.01417
0.00700321
-0.0149113
0.00722242
-0.0154659
0.00745111
-0.0158776
0.00771516
-0.0161508
0.00800241
-0.0163803
0.00834133
-0.0164728
-0.0165921
0.0087271
8.91659e-05
0.00284755
0.000444492
-0.001587
0.000903523
-0.00766362
0.00123236
-0.0116994
0.00147565
-0.0130784
0.00168517
-0.0131836
0.00190394
-0.0125189
0.00216691
-0.011618
0.00249708
-0.0106628
0.00291566
-0.00981544
0.00343819
-0.00918358
0.00405359
-0.00893429
0.00469566
-0.00923936
0.00527628
-0.0100846
0.00574971
-0.0112348
0.00611992
-0.0124316
0.00641393
-0.0135147
0.0066632
-0.0144193
0.00689205
-0.0151402
0.00712261
-0.0156965
0.00736265
-0.0161177
0.00763518
-0.0164233
0.007929
-0.0166741
0.0082732
-0.016817
-0.0169787
0.00865989
9.83049e-05
0.00274925
0.000476646
-0.00196534
0.000941159
-0.00812813
0.00126714
-0.0120254
0.00150667
-0.0133179
0.00171401
-0.013391
0.00193169
-0.0127365
0.00219368
-0.01188
0.00252099
-0.0109901
0.00293129
-0.0102257
0.00343408
-0.00968637
0.00401466
-0.00951488
0.00461468
-0.00983938
0.00516151
-0.0106314
0.00561698
-0.0116903
0.00598318
-0.0127978
0.00628216
-0.0138137
0.0065405
-0.0146776
0.00678021
-0.0153799
0.00702048
-0.0159367
0.00727053
-0.0163677
0.00754985
-0.0167026
0.00784921
-0.0169735
0.00819743
-0.0171653
-0.0173652
0.00858391
0.000108165
0.00264108
0.000509359
-0.00236653
0.000976034
-0.0085948
0.00129797
-0.0123474
0.00153294
-0.0135529
0.0017375
-0.0135955
0.00195342
-0.0129525
0.00221355
-0.0121401
0.00253681
-0.0113134
0.00293768
-0.0106266
0.00342095
-0.0101696
0.00396986
-0.0100638
0.00453306
-0.0104026
0.00505024
-0.0111486
0.00548928
-0.0121293
0.00585094
-0.0131594
0.00615331
-0.014116
0.00641892
-0.0149432
0.00666766
-0.0156286
0.00691617
-0.0161853
0.00717486
-0.0166264
0.00745938
-0.0169872
0.00776353
-0.0172776
0.00811449
-0.0175162
-0.0177503
0.00849956
0.000118658
0.00252242
0.000542366
-0.00279024
0.00100801
-0.00906045
0.00132485
-0.0126642
0.0015546
-0.0137826
0.00175591
-0.0137968
0.00196956
-0.0131661
0.00222711
-0.0123977
0.00254545
-0.0116317
0.00293621
-0.0110174
0.00340054
-0.010634
0.00392063
-0.0105839
0.00445132
-0.0109333
0.00494218
-0.0116395
0.00536601
-0.0125531
0.00572265
-0.0135161
0.00602701
-0.0144204
0.00629828
-0.0152145
0.00655438
-0.0158847
0.0068098
-0.0164407
0.00707571
-0.0168923
0.00736405
-0.0172755
0.00767238
-0.017586
0.00802475
-0.0178686
-0.0181326
0.00840708
0.000129646
0.00239278
0.00057532
-0.00323591
0.001037
-0.00952213
0.00134784
-0.012975
0.00157184
-0.0140066
0.00176953
-0.0139945
0.00198048
-0.013377
0.00223493
-0.0126521
0.00254772
-0.0119445
0.002928
-0.0113976
0.00337412
-0.0110801
0.00386793
-0.0110777
0.00436969
-0.011435
0.00483695
-0.0121067
0.00524656
-0.0129628
0.00559776
-0.0138673
0.0059029
-0.0147255
0.00617841
-0.01549
0.00644034
-0.0161467
0.00670142
-0.0167017
0.00697318
-0.0171641
0.00726416
-0.0175665
0.00757614
-0.0178979
0.00792841
-0.0182209
-0.0185109
0.00830671
0.000140965
0.00225181
0.000607809
-0.00370276
0.00106292
-0.00997724
0.001367
-0.0132791
0.00158483
-0.0142245
0.00177864
-0.0141883
0.00198658
-0.013585
0.00223751
-0.0129031
0.0025443
-0.0122513
0.00291395
-0.0117673
0.00334266
-0.0115088
0.00381243
-0.0115475
0.00428824
-0.0119108
0.00473414
-0.0125526
0.00513036
-0.013359
0.00547578
-0.0142127
0.00578064
-0.0150304
0.00605911
-0.0157685
0.0063255
-0.016413
0.00659111
-0.0169674
0.00686738
-0.0174404
0.00716005
-0.0178592
0.00747508
-0.018213
0.00782552
-0.0185713
-0.0188843
0.00819886
0.00015245
0.00209936
0.000639398
-0.00418971
0.00108574
-0.0104236
0.00138241
-0.0135758
0.00159379
-0.0144358
0.00178353
-0.0143781
0.00198823
-0.0137897
0.00223532
-0.0131502
0.00253578
-0.0125517
0.00289479
-0.0121263
0.0033069
-0.0119209
0.00375459
-0.0119952
0.00420694
-0.0123632
0.00463337
-0.0129791
0.0050169
-0.0137425
0.00535625
-0.014552
0.00565993
-0.015334
0.00594022
-0.0160488
0.00620981
-0.0166826
0.00647891
-0.0172365
0.00675841
-0.0177199
0.00705208
-0.0181528
0.00736942
-0.0185303
0.00771595
-0.0189178
-0.0192526
0.00808427
0.000163971
0.00193539
0.000669657
-0.00469539
0.00110545
-0.0108594
0.0013942
-0.0138645
0.00159894
-0.0146406
0.00178447
-0.0145636
0.00198577
-0.013991
0.00222877
-0.0133932
0.00252269
-0.0128457
0.00287112
-0.0124747
0.0032674
-0.0123172
0.00369473
-0.0124225
0.00412572
-0.0127942
0.00453426
-0.0133876
0.00490573
-0.014114
0.00523876
-0.0148851
0.00554047
-0.0156358
0.00582156
-0.0163299
0.00609323
-0.0169543
0.00636486
-0.0175081
0.00664636
-0.0180014
0.00694061
-0.0184471
0.0072593
-0.018849
0.00759988
-0.0192584
-0.0196162
0.00796353
0.00017545
0.00175994
0.000698198
-0.00521814
0.00112207
-0.0112832
0.0014025
-0.014145
0.00160047
-0.0148385
0.00178174
-0.0147449
0.00197951
-0.0141888
0.00221823
-0.0136319
0.00250546
-0.0131329
0.00284344
-0.0128127
0.00322464
-0.0126984
0.00363308
-0.0128309
0.00404451
-0.0132056
0.0044365
-0.0137796
0.00479643
-0.0144739
0.00512294
-0.0152116
0.005422
-0.0159348
0.00570297
-0.0166108
0.00597573
-0.0172271
0.00624896
-0.0177813
0.00653136
-0.0182838
0.00682594
-0.0187417
0.00714468
-0.0191678
0.00747837
-0.0195921
-0.0199737
0.00783581
0.00018688
0.00157306
0.0007247
-0.00575596
0.00113566
-0.0116942
0.00140744
-0.0144168
0.00159863
-0.0150297
0.0017756
-0.0149218
0.00196975
-0.0143829
0.00220404
-0.0138662
0.00248447
-0.0134133
0.00281215
-0.0131404
0.00317896
-0.0130652
0.00356983
-0.0132218
0.00396321
-0.013599
0.0043398
-0.0141562
0.00468866
-0.0148228
0.00500848
-0.0155314
0.0053043
-0.0162306
0.00558433
-0.0168909
0.00585728
-0.0175
0.00613121
-0.0180552
0.0064136
-0.0185662
0.00670818
-0.0190362
0.00702522
-0.0194848
0.00735333
-0.0199202
-0.020324
0.00770364
0.000198326
0.00137473
0.000748904
-0.00630654
0.00114627
-0.0120916
0.00140915
-0.0146796
0.00159357
-0.0152142
0.00176623
-0.0150945
0.00195671
-0.0145734
0.00218643
-0.0140959
0.00245998
-0.0136869
0.00277753
-0.0134579
0.00313057
-0.0134183
0.003505
-0.0135962
0.00388162
-0.0139756
0.00424378
-0.0145184
0.00458195
-0.0151609
0.00489493
-0.0158444
0.00518698
-0.0165227
0.00546532
-0.0171692
0.00573765
-0.0177723
0.00601141
-0.018329
0.00629305
-0.0188478
0.00658704
-0.0193302
0.00690038
-0.0197981
0.00722344
-0.0202433
-0.0206963
0.00759572
0.000209926
0.00116481
0.000770674
-0.00686729
0.00115405
-0.0124749
0.00140787
-0.0149335
0.00158561
-0.0153919
0.00175401
-0.0152629
0.00194075
-0.0147601
0.0021658
-0.014321
0.00243242
-0.0139535
0.00274003
-0.0137656
0.0030799
-0.0137581
0.00343888
-0.0139552
0.00379988
-0.0143366
0.00414845
-0.0148669
0.00447632
-0.0154888
0.00478235
-0.0161504
0.00507018
-0.0168105
0.00534618
-0.0174452
0.00561718
-0.0180433
0.00588998
-0.0186018
0.00617027
-0.0191281
0.0064628
-0.0196227
0.00677187
-0.0201072
0.00709811
-0.0205695
-0.0210559
0.00745775
0.000221865
0.000942944
0.000789909
-0.00743533
0.0011591
-0.0128441
0.00140372
-0.0151781
0.0015749
-0.0155631
0.00173907
-0.0154271
0.00192204
-0.0149431
0.00214232
-0.0145412
0.00240198
-0.0142131
0.00269983
-0.0140634
0.00302705
-0.0140854
0.00337146
-0.0142996
0.00371781
-0.0146829
0.00405353
-0.0152027
0.00437138
-0.0158067
0.00467036
-0.0164494
0.00495358
-0.0170938
0.00522665
-0.0177183
0.00549564
-0.0183123
0.00576678
-0.018873
0.00604511
-0.0194064
0.00633527
-0.0199129
0.00664106
-0.020413
0.00696433
-0.0208928
-0.0214023
0.00731076
0.000234355
0.000708589
0.000806588
-0.00800756
0.00116155
-0.0131991
0.00139689
-0.0154134
0.00156164
-0.0157278
0.00172163
-0.0155871
0.00190078
-0.0151222
0.0021162
-0.0147567
0.00236887
-0.0144658
0.00265713
-0.0143517
0.00297219
-0.0144004
0.00330281
-0.0146302
0.00363533
-0.0150154
0.00395882
-0.0155262
0.00426694
-0.0161148
0.00455877
-0.0167412
0.00483702
-0.017372
0.00510662
-0.0179879
0.005373
-0.0185787
0.00564183
-0.0191418
0.00591759
-0.0196822
0.00620488
-0.0202002
0.00650644
-0.0207146
0.0068257
-0.021212
-0.0217421
0.00716547
0.000247606
0.000460983
0.000820738
-0.0085807
0.00116153
-0.0135399
0.00138753
-0.0156394
0.00154602
-0.0158863
0.00170187
-0.0157429
0.00187715
-0.0152975
0.00208763
-0.0149671
0.00233328
-0.0147115
0.00261212
-0.0146305
0.00291546
-0.0147038
0.00323298
-0.0149478
0.0035524
-0.0153349
0.0038642
-0.015838
0.00416282
-0.0164134
0.00444742
-0.0170258
0.00472037
-0.0176449
0.00498602
-0.0182535
0.00524924
-0.0188419
0.00551516
-0.0194077
0.00578784
-0.0199549
0.00607152
-0.0204839
0.00636878
-0.0210118
0.00668297
-0.0215262
-0.022073
0.00701391
0.0002618
0.000199183
0.000832421
-0.00915132
0.00115917
-0.0138666
0.00137582
-0.0158561
0.0015282
-0.0160387
0.00167997
-0.0158947
0.00185133
-0.0154689
0.00205676
-0.0151726
0.0022954
-0.0149501
0.00256497
-0.0149001
0.002857
-0.0149958
0.003162
-0.0152528
0.00346896
-0.0156418
0.00376955
-0.0161385
0.00405885
-0.0167027
0.00433616
-0.0173031
0.00460351
-0.0179123
0.00486479
-0.0185148
0.00512434
-0.0191015
0.0053868
-0.0196702
0.00565585
-0.0202239
0.0059355
-0.0207635
0.00622785
-0.0213042
0.00653599
-0.0218344
-0.0223972
0.00686012
0.000277052
-7.78688e-05
0.000841723
-0.00971599
0.00115462
-0.0141795
0.00136192
-0.0160634
0.00150837
-0.0161851
0.00165608
-0.0160424
0.00182347
-0.0156363
0.00202377
-0.0153729
0.00225537
-0.0151817
0.00251583
-0.0151605
0.0027969
-0.0152769
0.00308992
-0.0155458
0.00338497
-0.0159369
0.00367475
-0.0164283
0.00395491
-0.0169829
0.00422486
-0.0175731
0.00448636
-0.0181738
0.00474286
-0.0187713
0.00499827
-0.0193569
0.00525678
-0.0199287
0.00552173
-0.0204889
0.00579681
-0.0210386
0.00608384
-0.0215912
0.0063859
-0.0221364
-0.0227134
0.00670209
0.000293393
-0.000371262
0.000848738
-0.0102713
0.001148
-0.0144788
0.00134597
-0.0162613
0.00148667
-0.0163258
0.00163034
-0.0161861
0.00179369
-0.0157996
0.00198878
-0.015568
0.00221333
-0.0154062
0.00246482
-0.015412
0.00273527
-0.0155473
0.00301678
-0.0158273
0.00330039
-0.0162205
0.00357971
-0.0167077
0.00385089
-0.017254
0.00411341
-0.0178356
0.00436882
-0.0184292
0.00462019
-0.0190227
0.00487104
-0.0196077
0.00512514
-0.0201828
0.00538553
-0.0207493
0.00565562
-0.0213087
0.00593697
-0.0218725
0.00623229
-0.0224317
-0.0230221
0.00654104
0.000310746
-0.000682008
0.000853567
-0.0108142
0.00113943
-0.0147647
0.00132814
-0.01645
0.00146324
-0.0164609
0.0016029
-0.0163257
0.00176214
-0.0159589
0.00195192
-0.0157577
0.00216941
-0.0156237
0.00241207
-0.0156547
0.00267219
-0.0158074
0.0029426
-0.0160977
0.00321519
-0.0164931
0.00348437
-0.0169768
0.00374669
-0.0175164
0.00400172
-0.0180906
0.00425082
-0.0186783
0.00449674
-0.0192686
0.00474263
-0.0198536
0.00499191
-0.0204321
0.00524733
-0.0210047
0.00551201
-0.0215734
0.00578725
-0.0221478
0.00607579
-0.0227203
-0.0233229
0.00637662
0.000328916
-0.00101092
0.000856308
-0.0113415
0.00112903
-0.0150374
0.00130856
-0.0166296
0.00143822
-0.0165906
0.00157387
-0.0164614
0.00172891
-0.0161139
0.0019133
-0.0159421
0.00212372
-0.0158342
0.00235767
-0.0158886
0.00260774
-0.0160575
0.00286742
-0.0163574
0.00312936
-0.016755
0.00338865
-0.0172361
0.00364222
-0.0177699
0.00388971
-0.0183381
0.0041323
-0.0189209
0.00437247
-0.0195088
0.00461305
-0.0200942
0.00485711
-0.0206761
0.00510718
-0.0212547
0.00536607
-0.0218323
0.00563495
-0.0224167
0.00591629
-0.0230016
-0.0236159
0.00620922
0.00034759
-0.00135851
0.000857048
-0.011851
0.00111689
-0.0152972
0.00128736
-0.0168
0.00141172
-0.016715
0.00154336
-0.016593
0.00169412
-0.0162647
0.00187302
-0.016121
0.00207638
-0.0160375
0.00230173
-0.016114
0.00254199
-0.0162978
0.00279127
-0.0166067
0.00304288
-0.0170066
0.00329251
-0.0174857
0.00353742
-0.0180148
0.0037773
-0.018578
0.00401321
-0.0191568
0.00424736
-0.0197429
0.00448229
-0.0203291
0.00472079
-0.0209146
0.00496514
-0.0214991
0.00521791
-0.022085
0.00548009
-0.0226789
0.00575409
-0.0232756
-0.0239007
0.00603891
0.000366359
-0.00172487
0.000855867
-0.0123405
0.00110312
-0.0155445
0.00126466
-0.0169616
0.00138387
-0.0168342
0.00151146
-0.0167206
0.00165786
-0.0164111
0.00183119
-0.0162944
0.00202747
-0.0162338
0.00224433
-0.0163308
0.00247501
-0.0165285
0.00271416
-0.0168458
0.00295573
-0.0172482
0.00319591
-0.0177259
0.00343222
-0.0182511
0.00366446
-0.0188102
0.00389351
-0.0193858
0.00412138
-0.0199708
0.00435037
-0.0205581
0.00458298
-0.0211472
0.00482129
-0.0217374
0.00506761
-0.0223314
0.00532285
-0.0229341
0.00558923
-0.023542
-0.0241773
0.00586583
0.000384737
-0.00210961
0.000852831
-0.0128086
0.0010878
-0.0157795
0.00124058