/*--------------------------------*- C++ -*----------------------------------*\
  =========                 |
  \\      /  F ield         | OpenFOAM: The Open Source CFD Toolbox
   \\    /   O peration     | Website:  https://openfoam.org
    \\  /    A nd           | Version:  7
     \\/     M anipulation  |
\*---------------------------------------------------------------------------*/
FoamFile
{
    version     2.0;
    format      ascii;
    class       volVectorField;
    location    "5";
    object      U;
}
// * * * * * * * * * * * * * * * * * * * * * * * * * * * * * * * * * * * * * //

dimensions      [0 1 -1 0 0 0 0];

internalField   nonuniform List<vector> 
2413
(
(1.4 -2.47172e-15 0)
(1.4 -2.34143e-15 0)
(1.4 -2.18273e-15 0)
(1.4 -2.1508e-15 0)
(1.4 -1.88466e-15 0)
(1.4 -1.62992e-15 0)
(1.4 -9.57014e-16 0)
(1.4 -6.1251e-16 0)
(1.4 -2.41712e-16 0)
(1.4 1.18336e-16 0)
(1.4 5.53722e-16 0)
(1.4 1.11384e-15 0)
(1.4 1.70897e-15 0)
(1.4 2.04472e-15 0)
(1.4 2.23189e-15 0)
(1.4 2.23196e-15 0)
(1.4 2.2171e-15 0)
(1.4 2.05538e-15 0)
(1.4 1.61706e-15 0)
(1.4 1.24668e-15 0)
(1.4 4.29497e-16 0)
(1.4 -8.59253e-17 0)
(1.4 -1.02324e-15 0)
(1.4 -1.64957e-15 0)
(1.4 -2.15365e-15 0)
(1.4 -2.35139e-15 0)
(1.4 -2.46119e-15 0)
(1.4 -2.53032e-15 0)
(1.4 -2.51881e-15 0)
(1.4 -2.6161e-15 0)
(1.4 -2.69899e-15 0)
(1.4 -2.8103e-15 0)
(1.4 -2.6914e-15 0)
(1.4 -2.6122e-15 0)
(1.4 -1.29667e-15 0)
(1.4 -9.19067e-16 0)
(1.4 -4.86196e-16 0)
(1.4 3.001e-16 0)
(1.4 9.99216e-16 0)
(1.4 1.51565e-15 0)
(1.4 2.21108e-15 0)
(1.4 2.30268e-15 0)
(1.4 2.55336e-15 0)
(1.4 2.8225e-15 0)
(1.4 2.86129e-15 0)
(1.4 2.90819e-15 0)
(1.4 2.90148e-15 0)
(1.4 2.94562e-15 0)
(1.4 2.97794e-15 0)
(1.4 2.99871e-15 0)
(1.4 2.88352e-15 0)
(1.4 2.74527e-15 0)
(1.4 2.58277e-15 0)
(1.4 2.5525e-15 0)
(1.4 2.51239e-15 0)
(1.4 2.55707e-15 0)
(1.4 2.67171e-15 0)
(1.4 2.79529e-15 0)
(1.4 2.99134e-15 0)
(1.4 3.24227e-15 0)
(1.4 2.9923e-15 0)
(1.4 2.59088e-15 0)
(1.4 2.2306e-15 0)
(1.4 1.94374e-15 0)
(1.4 1.47476e-15 0)
(1.4 1.36178e-15 0)
(1.4 1.33883e-15 0)
(1.4 1.44678e-15 0)
(1.4 1.56158e-15 0)
(1.4 1.7304e-15 0)
(1.4 1.86152e-15 0)
(1.4 2.07586e-15 0)
(1.4 2.39215e-15 0)
(1.4 2.77622e-15 0)
(1.4 3.55308e-15 0)
(1.4 3.97334e-15 0)
(1.4 4.66485e-15 0)
(1.4 4.87093e-15 0)
(1.4 4.8876e-15 0)
(1.4 4.87595e-15 0)
(1.4 4.76761e-15 0)
(1.4 4.69045e-15 0)
(1.4 4.67257e-15 0)
(1.4 4.67668e-15 0)
(1.4 4.47896e-15 0)
(1.4 4.17269e-15 0)
(1.4 4.04053e-15 0)
(1.4 3.98069e-15 0)
(1.4 4.02951e-15 0)
(1.4 3.88977e-15 0)
(1.4 3.73051e-15 0)
(1.4 3.57518e-15 0)
(1.4 3.42034e-15 0)
(1.4 3.24707e-15 0)
(1.4 3.20406e-15 0)
(1.4 2.65566e-15 0)
(1.4 2.21105e-15 0)
(1.4 2.199e-15 0)
(1.4 2.43483e-15 0)
(1.4 2.63433e-15 0)
(1.4 2.71449e-15 0)
(1.4 2.75758e-15 0)
(1.4 2.37125e-15 0)
(1.4 2.27566e-15 0)
(1.4 1.66402e-15 0)
(1.4 1.24641e-15 0)
(1.4 7.46238e-16 0)
(1.4 1.67679e-16 0)
(1.4 -1.20549e-16 0)
(1.4 -5.37073e-16 0)
(1.4 -1.14944e-15 0)
(1.4 -1.49226e-15 0)
(1.4 -2.0596e-15 0)
(1.4 -2.28101e-15 0)
(1.4 -2.31724e-15 0)
(1.4 -2.12815e-15 0)
(1.4 -2.27743e-15 0)
(1.4 -2.57799e-15 0)
(1.4 -3.17062e-15 0)
(1.4 -3.91128e-15 0)
(1.4 -4.1297e-15 0)
(1.4 -4.20869e-15 0)
(1.4 -3.95191e-15 0)
(1.4 -3.61508e-15 0)
(1.4 -3.50273e-15 0)
(1.4 -3.13697e-15 0)
(1.4 -2.85035e-15 0)
(1.4 -2.30821e-15 0)
(1.4 -2.14563e-15 0)
(1.4 -1.72561e-15 0)
(1.4 -1.60288e-15 0)
(1.4 -7.95195e-16 0)
(1.4 -6.42356e-17 0)
(1.4 4.89435e-16 0)
(1.4 6.20151e-16 0)
(1.4 5.14692e-16 0)
(1.4 6.12423e-16 0)
(1.4 4.69954e-16 0)
(1.4 2.87731e-16 0)
(1.4 -4.53583e-16 0)
(1.4 -8.35828e-16 0)
(1.4 -8.52877e-16 0)
(1.4 -7.86513e-16 0)
(1.4 -7.63427e-16 0)
(1.4 -6.38372e-16 0)
(1.4 -8.46079e-16 0)
(1.4 -1.31822e-15 0)
(1.4 -1.43512e-15 0)
(1.4 -1.2667e-15 0)
(1.4 -9.52732e-16 0)
(1.4 -7.57698e-16 0)
(1.4 -5.3901e-16 0)
(1.4 -1.67123e-16 0)
(1.4 6.6677e-17 0)
(1.4 3.94621e-16 0)
(1.4 9.94393e-16 0)
(1.4 1.56927e-15 0)
(1.4 1.95856e-15 0)
(1.4 2.49357e-15 0)
(1.4 3.03692e-15 0)
(1.4 3.35662e-15 0)
(1.4 3.77977e-15 0)
(1.4 4.22644e-15 0)
(1.4 4.58979e-15 0)
(1.4 4.82553e-15 0)
(1.4 5.32769e-15 0)
(1.4 5.36772e-15 0)
(1.4 5.75289e-15 0)
(1.4 5.95615e-15 0)
(1.4 6.15627e-15 0)
(1.4 6.15453e-15 0)
(1.4 6.12068e-15 0)
(1.4 6.06366e-15 0)
(1.4 6.15156e-15 0)
(1.4 5.94061e-15 0)
(1.4 6.04752e-15 0)
(1.4 5.66921e-15 0)
(1.4 5.60677e-15 0)
(1.4 5.34538e-15 0)
(1.4 4.8601e-15 0)
(1.4 4.5557e-15 0)
(1.4 4.60333e-15 0)
(1.4 4.30625e-15 0)
(1.4 4.17053e-15 0)
(1.4 4.05682e-15 0)
(1.4 3.95371e-15 0)
(1.4 3.82502e-15 0)
(1.4 3.71904e-15 0)
(1.4 3.59018e-15 0)
(1.4 3.33121e-15 0)
(1.4 3.28179e-15 0)
(1.4 3.32979e-15 0)
(1.4 3.46666e-15 0)
(1.4 3.63649e-15 0)
(1.4 3.86385e-15 0)
(1.4 4.08222e-15 0)
(1.4 4.21524e-15 0)
(1.4 4.20537e-15 0)
(1.4 4.12432e-15 0)
(1.4 3.90647e-15 0)
(1.4 3.8677e-15 0)
(1.4 3.76581e-15 0)
(1.4 3.7153e-15 0)
(1.4 3.90503e-15 0)
(1.4 4.16981e-15 0)
(1.4 4.32718e-15 0)
(1.4 4.41201e-15 0)
(1.4 4.24673e-15 0)
(1.4 4.16312e-15 0)
(1.4 3.54502e-15 0)
(1.4 3.08252e-15 0)
(1.4 2.73155e-15 0)
(1.4 2.37747e-15 0)
(1.4 2.03784e-15 0)
(1.4 1.73723e-15 0)
(1.4 1.55729e-15 0)
(1.4 1.55813e-15 0)
(1.4 1.72827e-15 0)
(1.4 1.65594e-15 0)
(1.4 1.56522e-15 0)
(1.4 1.59169e-15 0)
(1.4 1.56905e-15 0)
(1.4 1.52674e-15 0)
(1.4 1.05443e-15 0)
(1.4 6.48965e-16 0)
(1.4 4.68484e-16 0)
(1.4 4.71033e-16 0)
(1.4 2.70744e-16 0)
(1.4 -3.02014e-16 0)
(1.4 -7.88588e-16 0)
(1.4 -8.86576e-16 0)
(1.4 -1.04711e-15 0)
(1.4 -1.02659e-15 0)
(1.4 -7.27719e-16 0)
(1.4 -7.6128e-16 0)
(1.4 -8.78697e-16 0)
(1.4 -1.22104e-15 0)
(1.4 -1.49528e-15 0)
(1.4 -1.90408e-15 0)
(1.4 -2.28854e-15 0)
(1.4 -2.74053e-15 0)
(1.4 -3.03823e-15 0)
(1.4 -3.23695e-15 0)
(1.4 -3.29998e-15 0)
(1.4 -3.47514e-15 0)
(1.4 -3.54906e-15 0)
(1.4 -3.61952e-15 0)
(1.4 -3.6429e-15 0)
(1.4 -3.56158e-15 0)
(1.4 -3.45702e-15 0)
(1.4 -3.23156e-15 0)
(1.4 -3.0807e-15 0)
(1.4 -2.60769e-15 0)
(1.4 -2.70136e-15 0)
(1.4 -2.78477e-15 0)
(1.4 -2.24291e-15 0)
(1.4 -2.09114e-15 0)
(1.4 -1.97405e-15 0)
(1.4 -1.90422e-15 0)
(1.4 -1.82097e-15 0)
(1.4 -1.67261e-15 0)
(1.4 -1.39436e-15 0)
(1.4 -9.38218e-16 0)
(1.4 -1.55435e-16 0)
(1.4 1.0089e-16 0)
(1.4 7.50878e-17 0)
(1.4 -8.32225e-17 0)
(1.4 -1.63741e-16 0)
(1.4 -1.04534e-16 0)
(1.4 -4.7802e-17 0)
(1.4 -1.70952e-18 0)
(1.4 2.29757e-17 0)
(1.4 1.11872e-16 0)
(1.4 9.32518e-17 0)
(1.4 8.6174e-16 0)
(1.4 1.19373e-15 0)
(1.4 1.41041e-15 0)
(1.4 1.70862e-15 0)
(1.4 2.07874e-15 0)
(1.4 2.24338e-15 0)
(1.4 2.39712e-15 0)
(1.4 2.61857e-15 0)
(1.4 3.08107e-15 0)
(1.4 3.20535e-15 0)
(1.4 3.59155e-15 0)
(1.4 3.843e-15 0)
(1.4 4.06493e-15 0)
(1.4 4.42945e-15 0)
(1.4 5.57166e-15 0)
(1.4 6.07817e-15 0)
(1.4 6.63128e-15 0)
(1.4 7.17008e-15 0)
(1.4 7.39519e-15 0)
(1.4 7.70985e-15 0)
(1.4 7.89541e-15 0)
(1.4 7.93553e-15 0)
(1.4 7.78138e-15 0)
(1.4 7.57155e-15 0)
(1.4 7.2526e-15 0)
(1.4 6.9895e-15 0)
(1.4 6.74292e-15 0)
(1.4 6.63803e-15 0)
(1.4 6.53765e-15 0)
(1.4 6.38891e-15 0)
(1.4 6.38345e-15 0)
(1.4 6.11783e-15 0)
(1.4 5.67951e-15 0)
(1.4 5.49581e-15 0)
(1.4 5.16758e-15 0)
(1.4 4.8698e-15 0)
(1.4 4.63439e-15 0)
(1.4 4.41363e-15 0)
(1.4 4.12434e-15 0)
(1.4 3.88477e-15 0)
(1.4 3.68971e-15 0)
(1.4 3.6539e-15 0)
(1.4 3.51206e-15 0)
(1.4 3.31586e-15 0)
(1.4 3.11276e-15 0)
(1.4 3.14813e-15 0)
(1.4 3.21277e-15 0)
(1.4 3.31336e-15 0)
(1.4 3.54186e-15 0)
(1.4 3.58278e-15 0)
(1.4 3.59873e-15 0)
(1.4 3.63658e-15 0)
(1.4 3.73545e-15 0)
(1.4 3.664e-15 0)
(1.4 3.53218e-15 0)
(1.4 3.3265e-15 0)
(1.4 3.24546e-15 0)
(1.4 3.1115e-15 0)
(1.4 2.94094e-15 0)
(1.4 2.75056e-15 0)
(1.4 2.32001e-15 0)
(1.4 2.15988e-15 0)
(1.4 2.08456e-15 0)
(1.4 1.91954e-15 0)
(1.4 1.12616e-15 0)
(1.4 9.08288e-16 0)
(1.4 5.85964e-16 0)
(1.4 5.0858e-16 0)
(1.4 3.69641e-16 0)
(1.4 1.58716e-16 0)
(1.4 8.75542e-17 0)
(1.4 2.42191e-16 0)
(1.4 6.55737e-16 0)
(1.4 9.46088e-16 0)
(1.4 9.88934e-16 0)
(1.4 1.07287e-15 0)
(1.4 1.13813e-15 0)
(1.4 1.23329e-15 0)
(1.4 1.52372e-15 0)
(1.4 1.59797e-15 0)
(1.4 1.37533e-15 0)
(1.4 1.0442e-15 0)
(1.4 4.93834e-16 0)
(1.4 3.60175e-16 0)
(1.4 2.48068e-17 0)
(1.4 -2.55803e-16 0)
(1.4 -5.30555e-16 0)
(1.4 -8.1603e-16 0)
(1.4 -1.2635e-15 0)
(1.4 -1.68672e-15 0)
(1.4 -2.02112e-15 0)
(1.4 -2.39237e-15 0)
(1.4 -2.7541e-15 0)
(1.4 -2.84956e-15 0)
(1.4 -2.98414e-15 0)
(1.4 -3.1299e-15 0)
(1.4 -3.32779e-15 0)
(1.4 -3.68307e-15 0)
(1.4 -3.74283e-15 0)
(1.4 -4.21328e-15 0)
(1.4 -4.19883e-15 0)
(1.4 -3.92738e-15 0)
(1.4 -3.63313e-15 0)
(1.4 -3.38854e-15 0)
(1.4 -3.1352e-15 0)
(1.4 -2.61655e-15 0)
(1.4 -2.32974e-15 0)
(1.4 -2.1717e-15 0)
(1.4 -1.63038e-15 0)
(1.4 -1.19967e-15 0)
(1.4 -9.56695e-16 0)
(1.4 -8.02852e-16 0)
(1.4 1.09122e-16 0)
(1.4 5.19055e-16 0)
(1.4 5.69361e-16 0)
(1.4 5.78715e-16 0)
(1.4 7.04369e-16 0)
(1.4 8.47692e-16 0)
(1.4 7.92104e-16 0)
(1.4 8.05263e-16 0)
(1.4 7.1107e-16 0)
(1.4 7.30867e-16 0)
(1.4 7.77095e-16 0)
(1.4 9.01006e-16 0)
(1.4 9.74191e-16 0)
(1.4 1.10128e-15 0)
(1.4 1.21394e-15 0)
(1.4 1.3089e-15 0)
(1.4 1.13415e-15 0)
(1.4 1.04589e-15 0)
(1.4 9.60282e-16 0)
(1.4 1.03063e-15 0)
(1.4 1.13992e-15 0)
(1.4 1.34045e-15 0)
(1.4 1.53732e-15 0)
(1.4 1.74092e-15 0)
(1.4 2.51477e-15 0)
(1.4 3.3881e-15 0)
(1.4 4.04545e-15 0)
(1.4 4.3961e-15 0)
(1.4 4.68849e-15 0)
(1.4 5.15001e-15 0)
(1.4 5.40528e-15 0)
(1.4 5.61229e-15 0)
(1.4 5.80466e-15 0)
(1.4 5.8948e-15 0)
(1.4 6.05196e-15 0)
(1.4 6.11717e-15 0)
(1.4 6.20703e-15 0)
(1.4 6.29816e-15 0)
(1.4 6.3885e-15 0)
(1.4 6.3227e-15 0)
(1.4 6.22641e-15 0)
(1.4 6.1712e-15 0)
(1.4 5.97512e-15 0)
(1.4 5.85186e-15 0)
(1.4 5.71027e-15 0)
(1.4 5.46714e-15 0)
(1.4 4.91168e-15 0)
(1.4 4.37396e-15 0)
(1.4 3.94624e-15 0)
(1.4 3.27448e-15 0)
(1.4 3.0412e-15 0)
(1.4 3.44275e-15 0)
(1.4 3.31419e-15 0)
(1.4 3.30825e-15 0)
(1.4 3.04793e-15 0)
(1.4 3.0013e-15 0)
(1.4 2.94116e-15 0)
(1.4 2.91347e-15 0)
(1.4 3.11368e-15 0)
(1.4 3.02664e-15 0)
(1.4 2.62235e-15 0)
(1.4 2.30131e-15 0)
(1.4 2.10908e-15 0)
(1.4 2.05281e-15 0)
(1.4 2.13478e-15 0)
(1.4 2.28647e-15 0)
(1.4 2.15456e-15 0)
(1.4 1.94119e-15 0)
(1.4 1.82801e-15 0)
(1.4 1.73287e-15 0)
(1.4 1.55585e-15 0)
(1.4 1.25221e-15 0)
(1.4 1.19684e-15 0)
(1.4 9.65065e-16 0)
(1.4 4.99275e-16 0)
(1.4 3.13616e-16 0)
(1.4 3.6413e-16 0)
(1.4 3.65489e-16 0)
(1.4 4.17622e-16 0)
(1.4 4.26126e-16 0)
(1.4 4.88581e-16 0)
(1.4 6.361e-16 0)
(1.4 1.07742e-15 0)
(1.4 1.44396e-15 0)
(1.4 1.68575e-15 0)
(1.4 1.8547e-15 0)
(1.4 1.72338e-15 0)
(1.4 1.51995e-15 0)
(1.4 1.55027e-15 0)
(1.4 1.69001e-15 0)
(1.4 1.75716e-15 0)
(1.4 1.53928e-15 0)
(1.4 1.02145e-15 0)
(1.4 7.06577e-16 0)
(1.4 6.42256e-16 0)
(1.4 3.43382e-16 0)
(1.4 5.19521e-17 0)
(1.4 1.68253e-17 0)
(1.4 1.7813e-17 0)
(1.4 -8.5326e-17 0)
(1.4 -4.85383e-16 0)
(1.4 -7.28839e-16 0)
(1.4 -1.05005e-15 0)
(1.4 -1.57697e-15 0)
(1.4 -2.27933e-15 0)
(1.4 -2.8286e-15 0)
(1.4 -3.03795e-15 0)
(1.4 -3.12414e-15 0)
(1.4 -3.0694e-15 0)
(1.4 -3.1087e-15 0)
(1.4 -3.08351e-15 0)
(1.4 -2.95481e-15 0)
(1.4 -2.7074e-15 0)
(1.4 -2.37354e-15 0)
(1.4 -1.65852e-15 0)
(1.4 -1.42517e-15 0)
(1.4 -8.16115e-16 0)
(1.4 -4.91308e-16 0)
(1.4 2.37129e-16 0)
(1.4 7.06294e-16 0)
(1.4 1.01525e-15 0)
(1.4 1.22917e-15 0)
(1.4 1.61661e-15 0)
(1.4 1.82487e-15 0)
(1.4 2.04256e-15 0)
(1.4 2.45941e-15 0)
(1.4 2.52058e-15 0)
(1.4 2.41318e-15 0)
(1.4 7.81003e-16 0)
(1.4 4.24364e-16 0)
(1.4 1.12408e-16 0)
(1.4 -2.60669e-17 0)
(1.4 -9.78142e-17 0)
(1.4 1.91738e-16 0)
(1.4 3.71922e-16 0)
(1.4 3.52758e-16 0)
(1.4 2.4833e-16 0)
(1.4 2.4465e-16 0)
(1.4 1.90719e-16 0)
(1.4 1.66596e-16 0)
(1.4 2.54016e-16 0)
(1.4 5.43128e-16 0)
(1.4 6.15521e-16 0)
(1.4 2.75643e-16 0)
(1.4 1.51129e-16 0)
(1.4 1.91963e-16 0)
(1.4 2.71264e-16 0)
(1.4 4.00767e-16 0)
(1.4 7.41726e-16 0)
(1.4 9.35649e-16 0)
(1.4 1.23639e-15 0)
(1.4 1.52439e-15 0)
(1.4 2.07707e-15 0)
(1.4 2.85373e-15 0)
(1.4 3.43126e-15 0)
(1.4 3.69915e-15 0)
(1.4 3.90782e-15 0)
(1.4 4.161e-15 0)
(1.4 4.4959e-15 0)
(1.4 4.64607e-15 0)
(1.4 4.46055e-15 0)
(1.4 4.4616e-15 0)
(1.4 4.54144e-15 0)
(1.4 4.58267e-15 0)
(1.4 4.81758e-15 0)
(1.4 4.73619e-15 0)
(1.4 4.56191e-15 0)
(1.4 4.06165e-15 0)
(1.4 3.24876e-15 0)
(1.4 2.85593e-15 0)
(1.4 2.63655e-15 0)
(1.4 1.82848e-15 0)
(1.4 1.51513e-15 0)
(1.4 1.13708e-15 0)
(1.4 6.19434e-16 0)
(1.4 2.12941e-16 0)
(1.4 -1.52391e-16 0)
(1.4 -4.56986e-16 0)
(1.4 -5.00125e-16 0)
(1.4 -5.48975e-16 0)
(1.4 -7.21677e-16 0)
(1.4 -7.38339e-16 0)
(1.4 -7.09165e-16 0)
(1.4 -5.73253e-16 0)
(1.4 -4.7043e-16 0)
(1.4 -2.12254e-16 0)
(1.4 5.58884e-17 0)
(1.4 3.60515e-16 0)
(1.4 5.99538e-16 0)
(1.4 7.53055e-16 0)
(1.4 8.78362e-16 0)
(1.4 7.86118e-16 0)
(1.4 8.87781e-16 0)
(1.4 5.99813e-16 0)
(1.4 4.24353e-16 0)
(1.4 3.77992e-16 0)
(1.4 1.15822e-16 0)
(1.4 -2.03981e-16 0)
(1.4 -2.86974e-16 0)
(1.4 -2.71961e-16 0)
(1.4 -2.81708e-16 0)
(1.4 1.73282e-16 0)
(1.4 3.84568e-16 0)
(1.4 5.07417e-16 0)
(1.4 6.23058e-16 0)
(1.4 6.66268e-16 0)
(1.4 6.58572e-16 0)
(1.4 6.14647e-16 0)
(1.4 7.49265e-16 0)
(1.4 7.22573e-16 0)
(1.4 7.34303e-16 0)
(1.4 4.01282e-16 0)
(1.4 2.47689e-16 0)
(1.4 2.46193e-16 0)
(1.4 -1.74176e-16 0)
(1.4 -4.58596e-16 0)
(1.4 -7.07601e-16 0)
(1.4 -9.42142e-16 0)
(1.4 -1.08391e-15 0)
(1.4 -1.09375e-15 0)
(1.4 -1.25872e-15 0)
(1.4 -1.30957e-15 0)
(1.4 -1.56333e-15 0)
(1.4 -1.86427e-15 0)
(1.4 -2.15877e-15 0)
(1.4 -2.38799e-15 0)
(1.4 -2.64647e-15 0)
(1.4 -3.12293e-15 0)
(1.4 -3.53048e-15 0)
(1.4 -3.99551e-15 0)
(1.4 -4.17807e-15 0)
(1.4 -4.24393e-15 0)
(1.4 -4.27835e-15 0)
(1.4 -4.2439e-15 0)
(1.4 -4.12516e-15 0)
(1.4 -3.86465e-15 0)
(1.4 -2.86969e-15 0)
(1.4 -2.40524e-15 0)
(1.4 -1.57903e-15 0)
(1.4 -1.06935e-15 0)
(1.4 -5.3191e-16 0)
(1.4 2.13647e-16 0)
(1.4 1.08161e-15 0)
(1.4 2.03846e-15 0)
(1.4 2.14946e-15 0)
(1.4 2.51898e-15 0)
(1.4 2.79959e-15 0)
(1.4 2.39931e-15 0)
(1.4 1.16351e-15 0)
(1.4 1.52127e-15 0)
(1.4 1.30531e-15 0)
(1.4 8.3118e-16 0)
(1.4 6.21417e-16 0)
(1.4 4.67135e-16 0)
(1.4 3.55502e-16 0)
(1.4 1.51348e-16 0)
(1.4 1.24501e-16 0)
(1.4 -2.67924e-18 0)
(1.4 -1.4803e-16 0)
(1.4 -3.57981e-16 0)
(1.4 -3.61593e-16 0)
(1.4 -3.74172e-16 0)
(1.4 -4.61224e-16 0)
(1.4 -6.69579e-16 0)
(1.4 -8.595e-16 0)
(1.4 -1.14801e-15 0)
(1.4 -1.42181e-15 0)
(1.4 -1.73618e-15 0)
(1.4 -1.74635e-15 0)
(1.4 -1.41551e-15 0)
(1.4 -1.19581e-15 0)
(1.4 -8.46278e-16 0)
(1.4 -7.99561e-16 0)
(1.4 5.33045e-17 0)
(1.4 6.0554e-16 0)
(1.4 1.14756e-15 0)
(1.4 1.22664e-15 0)
(1.4 1.46366e-15 0)
(1.4 1.71028e-15 0)
(1.4 1.78402e-15 0)
(1.4 2.67142e-15 0)
(1.4 3.20887e-15 0)
(1.4 3.40387e-15 0)
(1.4 3.49321e-15 0)
(1.4 3.56789e-15 0)
(1.4 3.00285e-15 0)
(1.4 2.57116e-15 0)
(1.4 2.38482e-15 0)
(1.4 2.24054e-15 0)
(1.4 1.70277e-15 0)
(1.4 7.48635e-16 0)
(1.4 -3.27773e-16 0)
(1.4 -1.09857e-15 0)
(1.4 -1.53311e-15 0)
(1.4 -2.13767e-15 0)
(1.4 -2.49578e-15 0)
(1.4 -2.63434e-15 0)
(1.4 -2.61744e-15 0)
(1.4 -2.60648e-15 0)
(1.4 -2.25016e-15 0)
(1.4 -1.85532e-15 0)
(1.4 -1.75244e-15 0)
(1.4 -1.70423e-15 0)
(1.4 -1.53121e-15 0)
(1.4 -1.15107e-15 0)
(1.4 -1.01381e-15 0)
(1.4 -9.82359e-16 0)
(1.4 -7.9588e-16 0)
(1.4 -4.9605e-16 0)
(1.4 1.59462e-16 0)
(1.4 5.28072e-16 0)
(1.4 6.26391e-16 0)
(1.4 4.95165e-16 0)
(1.4 5.21885e-16 0)
(1.4 3.38737e-16 0)
(1.4 5.41806e-17 0)
(1.4 -5.27634e-17 0)
(1.4 -1.98615e-16 0)
(1.4 -2.2815e-16 0)
(1.4 -1.96452e-16 0)
(1.4 -1.58423e-16 0)
(1.4 9.75426e-17 0)
(1.4 1.07327e-16 0)
(1.4 1.78645e-16 0)
(1.4 3.51901e-16 0)
(1.4 3.5252e-16 0)
(1.4 4.02511e-16 0)
(1.4 2.43036e-16 0)
(1.4 2.57634e-16 0)
(1.4 2.96804e-16 0)
(1.4 1.34635e-16 0)
(1.4 1.34997e-16 0)
(1.4 1.25116e-16 0)
(1.4 1.13121e-16 0)
(1.4 7.49645e-17 0)
(1.4 -3.42936e-17 0)
(1.4 -1.94386e-16 0)
(1.4 -4.46427e-16 0)
(1.4 -6.75347e-16 0)
(1.4 -1.2537e-15 0)
(1.4 -1.60894e-15 0)
(1.4 -1.6865e-15 0)
(1.4 -1.80156e-15 0)
(1.4 -1.73963e-15 0)
(1.4 -2.1158e-15 0)
(1.4 -2.24714e-15 0)
(1.4 -2.76386e-15 0)
(1.4 -3.70505e-15 0)
(1.4 -4.10799e-15 0)
(1.4 -4.71133e-15 0)
(1.4 -4.84953e-15 0)
(1.4 -4.75391e-15 0)
(1.4 -4.20675e-15 0)
(1.4 -3.50096e-15 0)
(1.4 -2.69411e-15 0)
(1.4 -2.45467e-15 0)
(1.4 -2.72887e-15 0)
(1.4 -2.58655e-15 0)
(1.4 -2.28961e-15 0)
(1.4 -1.75734e-15 0)
(1.4 -9.36089e-16 0)
(1.4 -4.23862e-16 0)
(1.4 3.25428e-16 0)
(1.4 1.35873e-15 0)
(1.4 2.15617e-15 0)
(1.4 2.25077e-15 0)
(1.4 2.89368e-15 0)
(1.4 3.02172e-15 0)
(1.4 -3.71483e-16 0)
(1.4 1.07438e-16 0)
(1.4 3.02691e-16 0)
(1.4 5.02631e-16 0)
(1.4 2.56055e-16 0)
(1.4 -1.1233e-16 0)
(1.4 -3.16293e-16 0)
(1.4 -5.02133e-16 0)
(1.4 -5.23317e-16 0)
(1.4 -9.57027e-16 0)
(1.4 -1.43297e-15 0)
(1.4 -1.61739e-15 0)
(1.4 -1.98311e-15 0)
(1.4 -2.15491e-15 0)
(1.4 -2.10909e-15 0)
(1.4 -1.94406e-15 0)
(1.4 -1.84966e-15 0)
(1.4 -1.89092e-15 0)
(1.4 -1.76198e-15 0)
(1.4 -1.75192e-15 0)
(1.4 -1.65708e-15 0)
(1.4 -1.56841e-15 0)
(1.4 -1.43058e-15 0)
(1.4 -1.42253e-15 0)
(1.4 -1.36827e-15 0)
(1.4 -1.10081e-15 0)
(1.4 -8.60037e-16 0)
(1.4 -4.63874e-16 0)
(1.4 -4.82626e-16 0)
(1.4 -4.93436e-16 0)
(1.4 -4.35606e-16 0)
(1.4 -3.49144e-16 0)
(1.4 -1.62366e-16 0)
(1.4 4.396e-17 0)
(1.4 2.2262e-16 0)
(1.4 -1.22106e-16 0)
(1.4 -4.8414e-16 0)
(1.4 -5.67725e-16 0)
(1.4 -5.74271e-16 0)
(1.4 -4.4917e-16 0)
(1.4 -6.1969e-16 0)
(1.4 -9.00452e-16 0)
(1.4 -1.14552e-15 0)
(1.4 -1.35274e-15 0)
(1.4 -1.61878e-15 0)
(1.4 -1.82559e-15 0)
(1.4 -1.98268e-15 0)
(1.4 -2.17957e-15 0)
(1.4 -2.39196e-15 0)
(1.4 -2.69928e-15 0)
(1.4 -2.77975e-15 0)
(1.4 -2.80084e-15 0)
(1.4 -2.66881e-15 0)
(1.4 -2.53765e-15 0)
(1.4 -2.30042e-15 0)
(1.4 -2.06405e-15 0)
(1.4 -1.61312e-15 0)
(1.4 -1.60743e-15 0)
(1.4 -1.46707e-15 0)
(1.4 -1.12144e-15 0)
(1.4 -6.94355e-16 0)
(1.4 -1.66781e-16 0)
(1.4 3.95158e-16 0)
(1.4 7.11663e-16 0)
(1.4 6.58199e-16 0)
(1.4 5.4415e-16 0)
(1.4 4.39154e-16 0)
(1.4 3.95705e-16 0)
(1.4 4.79252e-16 0)
(1.4 4.84083e-16 0)
(1.4 5.66404e-16 0)
(1.4 5.43453e-16 0)
(1.4 4.48914e-16 0)
(1.4 4.48672e-16 0)
(1.4 4.02052e-16 0)
(1.4 4.27719e-16 0)
(1.4 6.30115e-16 0)
(1.4 7.86551e-16 0)
(1.4 9.26694e-16 0)
(1.4 1.0962e-15 0)
(1.4 1.12768e-15 0)
(1.4 1.0214e-15 0)
(1.4 1.06988e-15 0)
(1.4 1.1967e-15 0)
(1.4 1.20678e-15 0)
(1.4 1.14541e-15 0)
(1.4 1.1147e-15 0)
(1.4 1.18956e-15 0)
(1.4 9.99601e-16 0)
(1.4 7.68826e-16 0)
(1.4 4.51846e-16 0)
(1.4 -5.01735e-17 0)
(1.4 -9.936e-16 0)
(1.4 -1.31195e-15 0)
(1.4 -1.37121e-15 0)
(1.4 -1.60524e-15 0)
(1.4 -2.0267e-15 0)
(1.4 -2.63921e-15 0)
(1.4 -3.15484e-15 0)
(1.4 -3.46552e-15 0)
(1.4 -3.65286e-15 0)
(1.4 -3.29836e-15 0)
(1.4 -3.16485e-15 0)
(1.4 -2.84893e-15 0)
(1.4 -2.37527e-15 0)
(1.4 -1.76558e-15 0)
(1.4 -1.23462e-15 0)
(1.4 -8.7252e-16 0)
(1.4 -9.74328e-16 0)
(1.4 -1.01793e-15 0)
(1.4 -9.24851e-16 0)
(1.4 -4.13505e-16 0)
(1.4 1.20199e-16 0)
(1.4 3.40662e-16 0)
(1.4 4.86521e-16 0)
(1.4 5.88162e-16 0)
(1.4 5.62282e-16 0)
(1.4 7.49113e-16 0)
(1.4 1.11638e-15 0)
(1.4 1.53526e-15 0)
(1.4 -1.17448e-15 0)
(1.4 -5.83594e-16 0)
(1.4 -2.55082e-16 0)
(1.4 -2.91894e-16 0)
(1.4 -2.76371e-16 0)
(1.4 -5.58863e-16 0)
(1.4 -6.90007e-16 0)
(1.4 -9.02663e-16 0)
(1.4 -9.25641e-16 0)
(1.4 -1.17039e-15 0)
(1.4 -1.20849e-15 0)
(1.4 -1.13432e-15 0)
(1.4 -1.09725e-15 0)
(1.4 -1.26057e-15 0)
(1.4 -1.45345e-15 0)
(1.4 -1.41461e-15 0)
(1.4 -1.42456e-15 0)
(1.4 -1.44753e-15 0)
(1.4 -1.44065e-15 0)
(1.4 -1.47493e-15 0)
(1.4 -1.5699e-15 0)
(1.4 -1.4071e-15 0)
(1.4 -1.33138e-15 0)
(1.4 -1.10883e-15 0)
(1.4 -1.00826e-15 0)
(1.4 -1.14867e-15 0)
(1.4 -1.29856e-15 0)
(1.4 -1.38555e-15 0)
(1.4 -1.35209e-15 0)
(1.4 -1.46307e-15 0)
(1.4 -1.61205e-15 0)
(1.4 -1.81866e-15 0)
(1.4 -2.08372e-15 0)
(1.4 -2.20329e-15 0)
(1.4 -2.11985e-15 0)
(1.4 -2.15143e-15 0)
(1.4 -2.10086e-15 0)
(1.4 -2.02398e-15 0)
(1.4 -2.03953e-15 0)
(1.4 -1.93335e-15 0)
(1.4 -1.78076e-15 0)
(1.4 -1.56968e-15 0)
(1.4 -1.52716e-15 0)
(1.4 -1.6214e-15 0)
(1.4 -1.74853e-15 0)
(1.4 -1.91392e-15 0)
(1.4 -1.86397e-15 0)
(1.4 -1.77657e-15 0)
(1.4 -1.70072e-15 0)
(1.4 -1.69472e-15 0)
(1.4 -1.71405e-15 0)
(1.4 -1.6895e-15 0)
(1.4 -1.46093e-15 0)
(1.4 -1.28547e-15 0)
(1.4 -1.34561e-15 0)
(1.4 -1.35586e-15 0)
(1.4 -1.17624e-15 0)
(1.4 -1.02733e-15 0)
(1.4 -8.19041e-16 0)
(1.4 -5.66376e-16 0)
(1.4 -3.18404e-16 0)
(1.4 -1.25961e-16 0)
(1.4 2.58257e-16 0)
(1.4 4.36781e-16 0)
(1.4 5.84712e-16 0)
(1.4 6.10903e-16 0)
(1.4 7.18184e-16 0)
(1.4 7.6091e-16 0)
(1.4 7.71651e-16 0)
(1.4 8.20989e-16 0)
(1.4 9.05373e-16 0)
(1.4 1.03715e-15 0)
(1.4 1.24351e-15 0)
(1.4 1.32499e-15 0)
(1.4 1.45168e-15 0)
(1.4 1.56216e-15 0)
(1.4 1.66492e-15 0)
(1.4 1.69909e-15 0)
(1.4 1.64907e-15 0)
(1.4 1.90046e-15 0)
(1.4 2.13194e-15 0)
(1.4 2.28475e-15 0)
(1.4 2.42882e-15 0)
(1.4 2.57855e-15 0)
(1.4 2.57219e-15 0)
(1.4 2.49917e-15 0)
(1.4 2.42239e-15 0)
(1.4 2.07568e-15 0)
(1.4 1.8354e-15 0)
(1.4 1.66873e-15 0)
(1.4 1.33483e-15 0)
(1.4 1.00272e-15 0)
(1.4 5.80053e-16 0)
(1.4 1.03093e-16 0)
(1.4 -1.41621e-16 0)
(1.4 -7.94841e-16 0)
(1.4 -1.08931e-15 0)
(1.4 -1.89254e-15 0)
(1.4 -2.28236e-15 0)
(1.4 -2.24407e-15 0)
(1.4 -1.88584e-15 0)
(1.4 -1.39547e-15 0)
(1.4 -9.69607e-16 0)
(1.4 -4.69414e-16 0)
(1.4 -2.49479e-16 0)
(1.4 -3.03951e-16 0)
(1.4 9.19317e-17 0)
(1.4 2.2274e-16 0)
(1.4 8.90369e-16 0)
(1.4 1.23963e-15 0)
(1.4 1.54858e-15 0)
(1.4 1.67195e-15 0)
(1.4 1.51337e-15 0)
(1.4 1.48076e-15 0)
(1.4 1.26547e-15 0)
(1.4 6.16191e-16 0)
(1.4 3.65916e-16 0)
(1.4 5.53303e-16 0)
(1.4 5.8829e-16 0)
(1.4 1.88074e-16 0)
(1.4 -1.78951e-15 0)
(1.4 -1.1624e-15 0)
(1.4 -6.76203e-16 0)
(1.4 -3.07036e-16 0)
(1.4 -4.32601e-17 0)
(1.4 -7.08563e-17 0)
(1.4 -2.42681e-16 0)
(1.4 -5.22006e-16 0)
(1.4 -6.41607e-16 0)
(1.4 -7.68443e-16 0)
(1.4 -5.49481e-16 0)
(1.4 -4.18546e-16 0)
(1.4 -4.22479e-16 0)
(1.4 -4.69299e-16 0)
(1.4 -5.35025e-16 0)
(1.4 -5.22681e-16 0)
(1.4 -4.55644e-16 0)
(1.4 -4.27497e-16 0)
(1.4 -3.06366e-16 0)
(1.4 -5.16224e-16 0)
(1.4 -8.83946e-16 0)
(1.4 -1.08343e-15 0)
(1.4 -1.27239e-15 0)
(1.4 -1.34132e-15 0)
(1.4 -1.42813e-15 0)
(1.4 -1.61642e-15 0)
(1.4 -1.74939e-15 0)
(1.4 -1.98437e-15 0)
(1.4 -2.13391e-15 0)
(1.4 -2.12405e-15 0)
(1.4 -2.08206e-15 0)
(1.4 -2.14117e-15 0)
(1.4 -2.52264e-15 0)
(1.4 -2.92427e-15 0)
(1.4 -3.08491e-15 0)
(1.4 -3.03039e-15 0)
(1.4 -2.99573e-15 0)
(1.4 -2.99547e-15 0)
(1.4 -3.05207e-15 0)
(1.4 -3.19454e-15 0)
(1.4 -3.434e-15 0)
(1.4 -3.21125e-15 0)
(1.4 -3.02741e-15 0)
(1.4 -2.93883e-15 0)
(1.4 -2.89245e-15 0)
(1.4 -2.79827e-15 0)
(1.4 -2.24059e-15 0)
(1.4 -1.94447e-15 0)
(1.4 -1.43468e-15 0)
(1.4 -6.35081e-16 0)
(1.4 -1.32464e-16 0)
(1.4 -9.84282e-17 0)
(1.4 -2.24672e-17 0)
(1.4 4.08928e-17 0)
(1.4 5.28315e-17 0)
(1.4 5.69941e-17 0)
(1.4 1.25459e-16 0)
(1.4 1.6258e-16 0)
(1.4 -3.86413e-17 0)
(1.4 -3.96069e-16 0)
(1.4 -6.79876e-16 0)
(1.4 -8.23464e-16 0)
(1.4 -8.55166e-16 0)
(1.4 -8.22459e-16 0)
(1.4 -6.50995e-16 0)
(1.4 -2.14193e-16 0)
(1.4 1.80617e-16 0)
(1.4 3.38538e-16 0)
(1.4 4.64518e-16 0)
(1.4 7.03902e-16 0)
(1.4 8.71026e-16 0)
(1.4 1.3018e-15 0)
(1.4 2.18948e-15 0)
(1.4 2.52081e-15 0)
(1.4 3.1703e-15 0)
(1.4 3.48493e-15 0)
(1.4 3.47782e-15 0)
(1.4 3.54351e-15 0)
(1.4 3.56967e-15 0)
(1.4 3.5946e-15 0)
(1.4 3.6495e-15 0)
(1.4 3.47472e-15 0)
(1.4 3.33199e-15 0)
(1.4 3.01443e-15 0)
(1.4 2.73737e-15 0)
(1.4 2.70035e-15 0)
(1.4 2.62137e-15 0)
(1.4 2.5872e-15 0)
(1.4 2.55989e-15 0)
(1.4 2.45312e-15 0)
(1.4 2.37113e-15 0)
(1.4 2.18051e-15 0)
(1.4 1.64819e-15 0)
(1.4 1.56049e-15 0)
(1.4 9.94249e-16 0)
(1.4 3.03894e-16 0)
(1.4 1.22551e-16 0)
(1.4 2.34679e-16 0)
(1.4 4.01106e-16 0)
(1.4 7.98728e-16 0)
(1.4 1.3788e-15 0)
(1.4 1.45719e-15 0)
(1.4 1.47951e-15 0)
(1.4 1.60105e-15 0)
(1.4 1.79428e-15 0)
(1.4 1.78312e-15 0)
(1.4 1.93306e-15 0)
(1.4 2.21549e-15 0)
(1.4 2.28251e-15 0)
(1.4 2.66548e-15 0)
(1.4 2.7671e-15 0)
(1.4 2.78455e-15 0)
(1.4 2.83632e-15 0)
(1.4 2.40258e-15 0)
(1.4 2.24714e-15 0)
(1.4 1.86446e-15 0)
(1.4 1.69567e-15 0)
(1.4 1.56286e-15 0)
(1.4 1.64179e-15 0)
(1.4 1.63908e-15 0)
(1.4 -1.4442e-15 0)
(1.4 -1.1034e-15 0)
(1.4 -7.65802e-16 0)
(1.4 -9.74711e-18 0)
(1.4 3.96121e-16 0)
(1.4 6.27141e-16 0)
(1.4 6.12317e-16 0)
(1.4 5.58971e-16 0)
(1.4 6.97813e-16 0)
(1.4 9.21144e-16 0)
(1.4 1.09428e-15 0)
(1.4 7.74858e-16 0)
(1.4 6.68237e-16 0)
(1.4 2.51901e-16 0)
(1.4 6.05042e-18 0)
(1.4 -9.75367e-17 0)
(1.4 -2.33642e-16 0)
(1.4 -3.18147e-16 0)
(1.4 -4.72582e-16 0)
(1.4 -6.43464e-16 0)
(1.4 -7.26152e-16 0)
(1.4 -9.74214e-16 0)
(1.4 -1.30727e-15 0)
(1.4 -1.77583e-15 0)
(1.4 -2.03206e-15 0)
(1.4 -3.15508e-15 0)
(1.4 -3.44834e-15 0)
(1.4 -3.45292e-15 0)
(1.4 -3.55573e-15 0)
(1.4 -3.57865e-15 0)
(1.4 -3.8644e-15 0)
(1.4 -4.06028e-15 0)
(1.4 -4.39041e-15 0)
(1.4 -4.94175e-15 0)
(1.4 -5.18209e-15 0)
(1.4 -5.4305e-15 0)
(1.4 -5.64796e-15 0)
(1.4 -5.67784e-15 0)
(1.4 -5.56683e-15 0)
(1.4 -5.5224e-15 0)
(1.4 -5.57234e-15 0)
(1.4 -5.2752e-15 0)
(1.4 -4.60114e-15 0)
(1.4 -4.06866e-15 0)
(1.4 -3.58994e-15 0)
(1.4 -2.87365e-15 0)
(1.4 -1.50112e-15 0)
(1.4 -1.05451e-15 0)
(1.4 -8.73984e-16 0)
(1.4 -3.69562e-16 0)
(1.4 -1.76334e-16 0)
(1.4 -2.91177e-16 0)
(1.4 -4.25756e-16 0)
(1.4 -4.16069e-16 0)
(1.4 -4.63257e-16 0)
(1.4 -5.31748e-16 0)
(1.4 -4.11214e-16 0)
(1.4 -4.33034e-16 0)
(1.4 -4.29764e-16 0)
(1.4 -2.603e-16 0)
(1.4 -6.00248e-16 0)
(1.4 -7.50842e-16 0)
(1.4 -7.41408e-16 0)
(1.4 -5.38641e-16 0)
(1.4 -1.17439e-16 0)
(1.4 2.09e-16 0)
(1.4 4.78665e-16 0)
(1.4 5.56742e-16 0)
(1.4 7.23328e-16 0)
(1.4 9.15386e-16 0)
(1.4 1.37187e-15 0)
(1.4 1.62159e-15 0)
(1.4 1.94622e-15 0)
(1.4 2.26385e-15 0)
(1.4 2.59408e-15 0)
(1.4 2.76119e-15 0)
(1.4 2.83164e-15 0)
(1.4 2.81367e-15 0)
(1.4 2.85227e-15 0)
(1.4 2.76568e-15 0)
(1.4 2.58257e-15 0)
(1.4 2.51142e-15 0)
(1.4 2.29634e-15 0)
(1.4 2.229e-15 0)
(1.4 2.35657e-15 0)
(1.4 2.35541e-15 0)
(1.4 2.36925e-15 0)
(1.4 2.53488e-15 0)
(1.4 2.50188e-15 0)
(1.4 2.39496e-15 0)
(1.4 2.26208e-15 0)
(1.4 1.97475e-15 0)
(1.4 1.92635e-15 0)
(1.4 2.06067e-15 0)
(1.4 2.42112e-15 0)
(1.4 2.78381e-15 0)
(1.4 2.75641e-15 0)
(1.4 2.83741e-15 0)
(1.4 2.91521e-15 0)
(1.4 2.97683e-15 0)
(1.4 2.79705e-15 0)
(1.4 2.62979e-15 0)
(1.4 2.4008e-15 0)
(1.4 2.37533e-15 0)
(1.4 2.47193e-15 0)
(1.4 2.47673e-15 0)
(1.4 2.38655e-15 0)
(1.4 2.29783e-15 0)
(1.4 2.21735e-15 0)
(1.4 2.08812e-15 0)
(1.4 1.97689e-15 0)
(1.4 1.92714e-15 0)
(1.4 1.88495e-15 0)
(1.4 1.9516e-15 0)
(1.4 2.19147e-15 0)
(1.4 2.3175e-15 0)
(1.4 2.40236e-15 0)
(1.4 2.52323e-15 0)
(1.4 2.63031e-15 0)
(1.4 2.76941e-15 0)
(1.4 1.32638e-16 0)
(1.4 6.96259e-17 0)
(1.4 2.10769e-16 0)
(1.4 7.79634e-16 0)
(1.4 1.15293e-15 0)
(1.4 1.41463e-15 0)
(1.4 1.45239e-15 0)
(1.4 1.72409e-15 0)
(1.4 1.991e-15 0)
(1.4 2.27828e-15 0)
(1.4 2.21052e-15 0)
(1.4 1.97961e-15 0)
(1.4 1.71605e-15 0)
(1.4 9.87307e-16 0)
(1.4 4.36116e-16 0)
(1.4 1.53962e-16 0)
(1.4 -3.95612e-16 0)
(1.4 -9.51925e-16 0)
(1.4 -1.39225e-15 0)
(1.4 -1.97418e-15 0)
(1.4 -2.28385e-15 0)
(1.4 -2.42627e-15 0)
(1.4 -2.53623e-15 0)
(1.4 -2.59627e-15 0)
(1.4 -2.82269e-15 0)
(1.4 -3.13072e-15 0)
(1.4 -3.63422e-15 0)
(1.4 -3.96459e-15 0)
(1.4 -4.62552e-15 0)
(1.4 -5.14383e-15 0)
(1.4 -5.59413e-15 0)
(1.4 -5.76018e-15 0)
(1.4 -6.08452e-15 0)
(1.4 -6.42294e-15 0)
(1.4 -7.0198e-15 0)
(1.4 -6.82551e-15 0)
(1.4 -6.68143e-15 0)
(1.4 -6.59342e-15 0)
(1.4 -6.50406e-15 0)
(1.4 -6.24476e-15 0)
(1.4 -5.8299e-15 0)
(1.4 -5.66539e-15 0)
(1.4 -5.67061e-15 0)
(1.4 -4.61543e-15 0)
(1.4 -3.71772e-15 0)
(1.4 -2.64929e-15 0)
(1.4 -2.47676e-15 0)
(1.4 -2.29545e-15 0)
(1.4 -2.27322e-15 0)
(1.4 -2.18173e-15 0)
(1.4 -2.00108e-15 0)
(1.4 -1.49479e-15 0)
(1.4 -1.3216e-15 0)
(1.4 -1.09963e-15 0)
(1.4 -1.05722e-15 0)
(1.4 -1.19084e-15 0)
(1.4 -1.10639e-15 0)
(1.4 -1.10385e-15 0)
(1.4 -6.33485e-16 0)
(1.4 -3.35906e-16 0)
(1.4 1.46087e-17 0)
(1.4 4.20297e-16 0)
(1.4 9.63626e-16 0)
(1.4 1.13861e-15 0)
(1.4 1.28973e-15 0)
(1.4 1.08202e-15 0)
(1.4 6.98391e-16 0)
(1.4 4.55425e-16 0)
(1.4 3.78128e-16 0)
(1.4 3.56001e-16 0)
(1.4 3.46593e-16 0)
(1.4 5.2291e-16 0)
(1.4 6.00745e-16 0)
(1.4 5.67634e-16 0)
(1.4 4.67877e-16 0)
(1.4 4.37853e-16 0)
(1.4 4.83477e-16 0)
(1.4 4.80148e-16 0)
(1.4 5.07867e-16 0)
(1.4 3.06238e-16 0)
(1.4 2.75917e-16 0)
(1.4 3.5528e-16 0)
(1.4 5.01666e-16 0)
(1.4 6.06592e-16 0)
(1.4 7.89181e-16 0)
(1.4 7.35031e-16 0)
(1.4 6.79745e-16 0)
(1.4 6.24406e-16 0)
(1.4 5.1199e-16 0)
(1.4 4.16507e-16 0)
(1.4 3.91128e-16 0)
(1.4 4.71003e-16 0)
(1.4 4.57739e-16 0)
(1.4 3.8196e-16 0)
(1.4 3.86523e-16 0)
(1.4 5.13845e-16 0)
(1.4 5.28317e-16 0)
(1.4 3.34698e-16 0)
(1.4 1.38115e-16 0)
(1.4 -4.49768e-17 0)
(1.4 -1.22047e-16 0)
(1.4 -3.58746e-17 0)
(1.4 1.34565e-16 0)
(1.4 2.31379e-16 0)
(1.4 1.45255e-16 0)
(1.4 2.23325e-16 0)
(1.4 1.52574e-16 0)
(1.4 -1.85068e-17 0)
(1.4 3.66845e-17 0)
(1.4 4.19369e-17 0)
(1.4 1.40381e-17 0)
(1.4 -6.59416e-17 0)
(1.4 -6.63607e-17 0)
(1.4 -1.7464e-17 0)
(1.4 6.43561e-17 0)
(1.4 3.85439e-16 0)
(1.4 5.49272e-16 0)
(1.4 7.35438e-16 0)
(1.4 8.30673e-16 0)
(1.4 1.47798e-15 0)
(1.4 6.37418e-16 0)
(1.4 9.40823e-16 0)
(1.4 1.00559e-15 0)
(1.4 9.98063e-16 0)
(1.4 9.2352e-16 0)
(1.4 1.16668e-15 0)
(1.4 1.43144e-15 0)
(1.4 1.61409e-15 0)
(1.4 1.76991e-15 0)
(1.4 1.86755e-15 0)
(1.4 1.73946e-15 0)
(1.4 1.57033e-15 0)
(1.4 1.49739e-15 0)
(1.4 1.32414e-15 0)
(1.4 7.45816e-16 0)
(1.4 2.98767e-16 0)
(1.4 -2.57867e-16 0)
(1.4 -5.23058e-16 0)
(1.4 -6.53495e-16 0)
(1.4 -7.96388e-16 0)
(1.4 -1.02817e-15 0)
(1.4 -1.11901e-15 0)
(1.4 -1.12078e-15 0)
(1.4 -1.0897e-15 0)
(1.4 -1.08812e-15 0)
(1.4 -1.27404e-15 0)
(1.4 -1.4879e-15 0)
(1.4 -1.80588e-15 0)
(1.4 -2.38917e-15 0)
(1.4 -2.53278e-15 0)
(1.4 -2.77523e-15 0)
(1.4 -3.18963e-15 0)
(1.4 -3.38692e-15 0)
(1.4 -3.65962e-15 0)
(1.4 -4.05608e-15 0)
(1.4 -4.30299e-15 0)
(1.4 -4.59514e-15 0)
(1.4 -4.6687e-15 0)
(1.4 -4.73005e-15 0)
(1.4 -4.8434e-15 0)
(1.4 -4.86998e-15 0)
(1.4 -4.81708e-15 0)
(1.4 -4.66668e-15 0)
(1.4 -4.6347e-15 0)
(1.4 -4.30492e-15 0)
(1.4 -4.12254e-15 0)
(1.4 -4.03677e-15 0)
(1.4 -4.00365e-15 0)
(1.4 -3.98164e-15 0)
(1.4 -3.6027e-15 0)
(1.4 -3.36929e-15 0)
(1.4 -3.05983e-15 0)
(1.4 -2.76367e-15 0)
(1.4 -2.38757e-15 0)
(1.4 -2.14826e-15 0)
(1.4 -1.69142e-15 0)
(1.4 -1.30591e-15 0)
(1.4 -5.75219e-16 0)
(1.4 -3.3746e-16 0)
(1.4 -1.46489e-16 0)
(1.4 3.89512e-17 0)
(1.4 7.57594e-17 0)
(1.4 1.39642e-16 0)
(1.4 1.73869e-16 0)
(1.4 5.92654e-17 0)
(1.4 3.04337e-16 0)
(1.4 7.95883e-16 0)
(1.4 1.31622e-15 0)
(1.4 1.33636e-15 0)
(1.4 1.31604e-15 0)
(1.4 1.14659e-15 0)
(1.4 1.01829e-15 0)
(1.4 7.94142e-16 0)
(1.4 5.58391e-16 0)
(1.4 3.60088e-16 0)
(1.4 1.38665e-16 0)
(1.4 1.53634e-16 0)
(1.4 3.87853e-16 0)
(1.4 3.89686e-16 0)
(1.4 4.38077e-16 0)
(1.4 4.50423e-16 0)
(1.4 4.7248e-16 0)
(1.4 5.8506e-16 0)
(1.4 5.52349e-16 0)
(1.4 4.63027e-16 0)
(1.4 4.29434e-16 0)
(1.4 4.05819e-16 0)
(1.4 3.82303e-16 0)