/*--------------------------------*- C++ -*----------------------------------*\
  =========                 |
  \\      /  F ield         | OpenFOAM: The Open Source CFD Toolbox
   \\    /   O peration     | Website:  https://openfoam.org
    \\  /    A nd           | Version:  7
     \\/     M anipulation  |
\*---------------------------------------------------------------------------*/
FoamFile
{
    version     2.0;
    format      ascii;
    class       surfaceScalarField;
    location    "25";
    object      phi;
}
// * * * * * * * * * * * * * * * * * * * * * * * * * * * * * * * * * * * * * //

dimensions      [0 3 -1 0 0 0 0];

internalField   nonuniform List<scalar> 
53160
(
-0.000170963
0.00017086
1.0229e-07
-0.000336273
0.000165502
-1.91335e-07
-0.000529878
0.000194281
-6.76457e-07
-0.000714444
0.000185939
-1.37365e-06
-0.000910621
0.000198321
-2.14349e-06
-0.00111166
0.000203733
-2.69078e-06
-0.00132067
0.000211679
-2.67554e-06
-0.00153682
0.000217941
-1.79124e-06
-0.00175746
0.000220592
5.381e-08
-0.00197962
0.000219535
2.62532e-06
-0.00218797
0.000203007
5.33644e-06
-0.00237322
0.000177925
7.32388e-06
-0.00249089
0.000110059
7.6141e-06
-0.00252062
2.37113e-05
6.01463e-06
-0.00238557
-0.000137695
2.65377e-06
-0.00206155
-0.000322587
-1.43658e-06
-0.00148308
-0.000573595
-4.87058e-06
-0.000621082
-0.000855151
-6.85029e-06
0.000382515
-0.000996719
-6.8787e-06
-0.00128641
-5.36244e-06
0.00167428
-0.000170124
0.000340985
-0.000333572
0.00032895
-0.00052415
0.000384859
-0.000703894
0.000365684
-0.00089266
0.000387086
-0.00108273
0.000393808
-0.00127577
0.000404715
-0.00146913
0.000411304
-0.00165783
0.000409289
-0.00183609
0.000397796
-0.00198555
0.000352472
-0.00209376
0.000286133
-0.00211469
0.000130982
-0.00202645
-6.45214e-05
-0.00175101
-0.000413137
-0.00128384
-0.000789759
-0.000531525
-0.00132591
0.000449545
-0.00183622
0.00160589
-0.00215306
-0.00270358
0.00302306
-0.000168463
0.000509448
-0.00032821
0.000488697
-0.000512775
0.000569424
-0.000682968
0.000535876
-0.000857102
0.000561221
-0.00102565
0.000562358
-0.0011876
0.000566665
-0.00133706
0.000560765
-0.00146499
0.000537215
-0.0015609
0.000493711
-0.00160198
0.000393546
-0.00157073
0.000254879
-0.00142067
-1.90704e-05
-0.00113027
-0.000354924
-0.000619306
-0.000924101
7.32589e-05
-0.00148232
0.00107645
-0.0023291
0.00226596
-0.00302574
0.00361792
-0.00350501
-0.0042671
0.00518144
-0.000166009
0.000675456
-0.000320254
0.000642943
-0.000495887
0.000745057
-0.000651948
0.000691936
-0.00080456
0.000713833
-0.000941743
0.00069954
-0.00105895
0.000683877
-0.00114621
0.000648024
-0.00118972
0.00058072
-0.00117359
0.000477582
-0.00107134
0.000291296
-0.000859984
4.35239e-05
-0.000497944
-0.00038111
3.59929e-05
-0.000888862
0.00081025
-0.00169836
0.00177431
-0.00244638
0.0029971
-0.00355189
0.00438121
-0.00440985
0.00589426
-0.00501806
-0.00588946
0.00751661
-0.000162802
0.000838258
-0.000309803
0.000789944
-0.000473673
0.000908926
-0.000611221
0.000829485
-0.000735839
0.00083845
-0.000832689
0.000796391
-0.00089325
0.000744438
-0.000903243
0.000658017
-0.000844379
0.000521856
-0.000695747
0.00032895
-0.000429659
2.52084e-05
-1.81338e-05
-0.000368002
0.000571341
-0.000970585
0.0013509
-0.00166842
0.00237024
-0.0027177
0.0035769
-0.00365304
0.00496906
-0.00494405
0.00646768
-0.00590847
0.00805705
-0.00660742
-0.00745585
0.00962344
-0.000158897
0.000997156
-0.000296981
0.000928028
-0.00044636
0.0010583
-0.000561237
0.000944362
-0.000651822
0.000929035
-0.00070025
0.00084482
-0.000693907
0.000738095
-0.000614506
0.000578616
-0.000440208
0.000347558
-0.000146063
3.48042e-05
0.00029382
-0.000414674
0.000906336
-0.000980518
0.00172113
-0.00178538
0.00272851
-0.0026758
0.00394954
-0.00393872
0.0053347
-0.0050382
0.00681752
-0.00642688
0.00833201
-0.00742296
0.00988904
-0.00816445
-0.00888217
0.0113154
-0.000154361
0.00115152
-0.000281937
0.0010556
-0.000414201
0.00119057
-0.000502456
0.00103262
-0.000553351
0.000979929
-0.000545986
0.000837455
-0.000463763
0.000655872
-0.000285011
0.000399864
1.4202e-05
4.83456e-05
0.000461275
-0.000412269
0.00107955
-0.00103295
0.00188693
-0.00178789
0.00290433
-0.00280278
0.00410519
-0.00387666
0.00546879
-0.00530232
0.00694511
-0.00651451
0.00842862
-0.00791039
0.00986755
-0.00886189
0.0112927
-0.00958957
-0.0101266
0.012537
-0.000149267
0.00130078
-0.000264834
0.00117117
-0.000377453
0.00130319
-0.000435302
0.00109047
-0.000441105
0.000985732
-0.000371022
0.000767372
-0.000204681
0.000489531
8.20705e-05
0.000113112
0.000514458
-0.000384042
0.00111781
-0.00101562
0.00191137
-0.00182651
0.00289984
-0.00277637
0.00408547
-0.00398841
0.00542616
-0.00521736
0.00685856
-0.00673472
0.00832924
-0.0079852
0.009727
-0.00930815
0.011022
-0.0101569
0.0122576
-0.0108252
-0.0111909
0.013322
-0.0001437
0.00144448
-0.00024585
0.00127332
-0.000336358
0.0013937
-0.000360106
0.00111421
-0.000315493
0.000941119
-0.000175903
0.000627781
8.25596e-05
0.000231069
0.000485163
-0.000289491
0.00105657
-0.000955448
0.00181648
-0.00177554
0.00277469
-0.00278472
0.0039189
-0.00392057
0.00522341
-0.00529292
0.00663208
-0.00662603
0.00805049
-0.00815313
0.00942835
-0.00936306
0.0106783
-0.0105581
0.0117982
-0.0112768
0.0128427
-0.0118698
-0.01211
0.0137618
-0.000137746
0.00158223
-0.000225165
0.00136074
-0.000291117
0.00145965
-0.000277048
0.00110014
-0.000176549
0.00084062
3.94226e-05
0.00041181
0.000397928
-0.000127437
0.000923498
-0.000815061
0.001637
-0.00166895
0.00254732
-0.00268585
0.00364779
-0.00388519
0.00490631
-0.0051791
0.00626596
-0.00665257
0.00766179
-0.00802186
0.00899091
-0.00948224
0.0102188
-0.010591
0.0112991
-0.0116383
0.0122544
-0.0122321
0.0131465
-0.0127618
-0.0129301
0.0139666
-0.000131498
0.00171373
-0.000202956
0.0014322
-0.000241864
0.00149856
-0.00018611
0.00104439
-2.36171e-05
0.000678126
0.000276092
0.000112101
0.00074209
-0.000593435
0.00139553
-0.0014685
0.00224828
-0.0025217
0.00329246
-0.00373003
0.00449821
-0.00509094
0.00581377
-0.00649466
0.0071582
-0.00799699
0.00846978
-0.00933344
0.00966115
-0.0106736
0.0107233
-0.0116531
0.0116498
-0.0125649
0.0124779
-0.0130601
0.0132677
-0.0135517
-0.0136913
0.0140289
-0.000125045
0.00183877
-0.000179387
0.00148654
-0.000188632
0.0015078
-8.70533e-05
0.000942812
0.000143143
0.00044793
0.000534808
-0.000279564
0.00111487
-0.0011735
0.00189675
-0.00225038
0.00287641
-0.00350136
0.00402413
-0.00487775
0.00528484
-0.00635165
0.00659308
-0.0078029
0.00786066
-0.00926457
0.00904348
-0.0105163
0.0100842
-0.0117143
0.0109991
-0.012568
0.0118082
-0.013374
0.012551
-0.013803
0.0132802
-0.0142809
-0.0144206
0.0140095
-0.000118475
0.00195725
-0.000154594
0.00152266
-0.000131314
0.00148452
2.05605e-05
0.000790937
0.000325854
0.000142636
0.000816679
-0.000770389
0.00151417
-0.00187099
0.00241746
-0.00315367
0.00349959
-0.00458349
0.0047075
-0.00608566
0.00596696
-0.0076111
0.00721093
-0.00904687
0.00836303
-0.0104167
0.00940532
-0.0115586
0.010311
-0.01262
0.0111134
-0.0133704
0.0118425
-0.0141031
0.0125337
-0.0144942
0.01323
-0.0149772
-0.0151337
0.0139431
-0.000111863
0.00206911
-0.000128673
0.00153947
-6.95835e-05
0.00142543
0.000138798
0.000582556
0.000525695
-0.000244261
0.00112165
-0.00136635
0.00193433
-0.00268367
0.00294157
-0.0041609
0.00409002
-0.00573195
0.0053082
-0.00730384
0.00651599
-0.0088189
0.00765867
-0.0101895
0.00868397
-0.011442
0.00959893
-0.0124735
0.0103981
-0.0134192
0.0111228
-0.0140951
0.0118013
-0.0147816
0.0124633
-0.0151562
0.0131428
-0.0156567
-0.015839
0.0138481
-0.000105273
0.00217438
-0.00010166
0.00153586
-1.90427e-06
0.00132568
0.000267816
0.000312835
0.000743767
-0.000720212
0.00144748
-0.00207006
0.00236489
-0.00360108
0.00344763
-0.00524365
0.00461929
-0.00690361
0.00580134
-0.00848588
0.00692304
-0.0099406
0.007951
-0.0112175
0.00885903
-0.01235
0.00967127
-0.0132858
0.0103931
-0.014141
0.0110673
-0.0147693
0.0117147
-0.015429
0.0123611
-0.0158026
0.0130326
-0.0163282
-0.0165405
0.0137341
-9.87448e-05
0.00227313
-7.35146e-05
0.00151063
6.87632e-05
0.0011834
0.000409441
-2.78421e-05
0.000980286
-0.00129106
0.00178853
-0.0028783
0.00279064
-0.00460319
0.00391253
-0.00636554
0.00506529
-0.00805637
0.00617725
-0.00959785
0.00719785
-0.0109612
0.00811613
-0.0121358
0.00892657
-0.0131604
0.00966155
-0.0140207
0.0103296
-0.014809
0.0109722
-0.0154119
0.0116006
-0.0160574
0.0122391
-0.016441
0.0129065
-0.0169956
-0.0172396
0.0136056
-9.22863e-05
0.00236541
-4.40857e-05
0.00146243
0.000147017
0.000992296
0.000565129
-0.000445954
0.00123363
-0.00195956
0.00213534
-0.00378002
0.00319367
-0.00566151
0.00431659
-0.00748846
0.00541708
-0.00915686
0.00644112
-0.0106219
0.00736152
-0.0118816
0.00818503
-0.0129593
0.00891926
-0.0138947
0.00959827
-0.0146997
0.0102298
-0.0154406
0.0108527
-0.0160347
0.0114689
-0.0166737
0.0121035
-0.0170757
0.0127683
-0.0176604
-0.0179363
0.013465
-8.58642e-05
0.00245128
-1.32992e-05
0.00138986
0.000233095
0.000745901
0.000735641
-0.000948499
0.00149952
-0.00272344
0.00247525
-0.00475575
0.00355692
-0.00674317
0.00464777
-0.00857932
0.00567541
-0.0101845
0.00660783
-0.0115543
0.00743834
-0.0127121
0.00818478
-0.0137057
0.00886157
-0.0145715
0.00950057
-0.0153387
0.0101074
-0.0160474
0.0107174
-0.0166447
0.0113251
-0.0172814
0.0119578
-0.0177083
0.0126197
-0.0183223
-0.01863
0.0133135
-7.93909e-05
0.00253067
2.06574e-05
0.00128981
0.000328282
0.000438276
0.000920415
-0.00154063
0.00177074
-0.00357376
0.0027945
-0.00577951
0.00386775
-0.00781642
0.00490299
-0.00961457
0.00584952
-0.011131
0.00669594
-0.0124007
0.00745052
-0.0134667
0.00813637
-0.0143916
0.00877053
-0.0152056
0.00938072
-0.0159489
0.0099703
-0.016637
0.0105713
-0.0172457
0.0111722
-0.0178823
0.0118034
-0.0183395
0.0124615
-0.0189804
-0.0193202
0.0131517
-7.27154e-05
0.00260339
5.82385e-05
0.00115886
0.000433783
6.27315e-05
0.00111698
-0.00222383
0.00203782
-0.00449461
0.00308092
-0.00682262
0.00411987
-0.00885537
0.00508649
-0.0105812
0.00595274
-0.0119973
0.00672339
-0.0131714
0.00741603
-0.0141593
0.00805497
-0.0150305
0.00865747
-0.0158081
0.00924632
-0.0165378
0.00982332
-0.017214
0.0104169
-0.0178392
0.0110117
-0.0184772
0.0116412
-0.018969
0.0122942
-0.0196333
-0.020006
0.01298
-6.56035e-05
0.00266899
0.000100085
0.000993171
0.000550324
-0.000387508
0.00132072
-0.00299423
0.00229059
-0.00546447
0.00332611
-0.00785814
0.00431309
-0.00984235
0.00520687
-0.011475
0.00599903
-0.0127894
0.0067054
-0.0138777
0.0073484
-0.0148023
0.0079511
-0.0156332
0.00852968
-0.0163867
0.00910192
-0.01711
0.00966904
-0.0177811
0.0102556
-0.0184258
0.0108445
-0.0190662
0.0114715
-0.019596
0.0121178
-0.0202796
-0.020687
0.0127988
-5.77171e-05
0.00272671
0.000147814
0.00078764
0.000677709
-0.000917402
0.00152528
-0.0038418
0.00252004
-0.00645924
0.00352622
-0.00886431
0.00445162
-0.0107678
0.00527437
-0.0122977
0.00600098
-0.013516
0.00665399
-0.0145307
0.00725744
-0.0154058
0.00783182
-0.0162076
0.00839171
-0.0169466
0.00895023
-0.0176685
0.0095089
-0.0183398
0.0100883
-0.0190052
0.010671
-0.0196489
0.0112944
-0.0202193
0.0119327
-0.0209179
-0.0213627
0.0126083
-4.85949e-05
0.0027753
0.000202885
0.00053616
0.00081448
-0.001529
0.00172345
-0.00475077
0.00271978
-0.00745557
0.00368145
-0.00982598
0.00454205
-0.0116284
0.005299
-0.0130547
0.00596909
-0.0141861
0.00657827
-0.0151399
0.00715001
-0.0159775
0.00770178
-0.0167594
0.00824635
-0.0174912
0.0087928
-0.018215
0.00934367
-0.0188907
0.0099152
-0.0195767
0.0104915
-0.0202252
0.0111098
-0.0208377
0.0117389
-0.0215469
-0.0220327
0.0124088
-3.76334e-05
0.00281293
0.000266414
0.000232113
0.000957823
-0.00222041
0.00190839
-0.00570133
0.0028865
-0.00843368
0.00379482
-0.0107343
0.00459171
-0.0124252
0.00528963
-0.0137526
0.00591168
-0.0148082
0.00648488
-0.0157131
0.00703082
-0.0165235
0.00756396
-0.0172925
0.00809526
-0.0180225
0.00863055
-0.0187503
0.00917372
-0.0194338
0.00973657
-0.0201396
0.010306
-0.0207946
0.010918
-0.0214497
0.0115366
-0.0221655
-0.0226966
0.0122005
-2.40657e-05
0.002837
0.000338865
-0.000130818
0.00110375
-0.00298529
0.00207465
-0.00667223
0.0030197
-0.00937874
0.00387084
-0.0115854
0.00460768
-0.0131621
0.00525366
-0.0143986
0.00583514
-0.0153896
0.0063786
-0.0162566
0.00690306
-0.0170479
0.00742025
-0.0178097
0.00793943
-0.0185416
0.00846399
-0.0192748
0.00899924
-0.0199691
0.00955249
-0.0206928
0.0101147
-0.0213568
0.0107188
-0.0220538
0.0113261
-0.0227728
-0.0233542
0.0119837
-6.74368e-06
0.00284374
0.000419866
-0.000557427
0.00124755
-0.00381298
0.00221872
-0.0076434
0.00312088
-0.0102809
0.00391456
-0.0123791
0.00459629
-0.0138438
0.00519708
-0.0149994
0.00574427
-0.0159368
0.00626281
-0.0167751
0.00676884
-0.017554
0.00727184
-0.0183127
0.00777943
-0.0190492
0.00829345
-0.0197888
0.00882028
-0.0204959
0.00936307
-0.0212356
0.0099178
-0.0219115
0.0105124
-0.0226484
0.0111074
-0.0233677
-0.0240056
0.0117587
1.36188e-05
0.00283012
0.000508227
-0.00105204
0.0013844
-0.00468915
0.00233907
-0.00859806
0.00319272
-0.0111345
0.00393091
-0.0131173
0.00456291
-0.0144758
0.00512459
-0.015561
0.00564261
-0.0164548
0.00613985
-0.0172724
0.00662955
-0.0180437
0.00711943
-0.0188026
0.00761561
-0.0195454
0.00811909
-0.0202923
0.00863683
-0.0210137
0.00916849
-0.0217672
0.00971548
-0.0224585
0.0102987
-0.0232316
0.0108807
-0.0239498
-0.0246505
0.0115255
3.82292e-05
0.0027919
0.000602137
-0.00161594
0.00151008
-0.0055971
0.00243572
-0.0095237
0.00323848
-0.0119373
0.00392442
-0.0138032
0.00451199
-0.0150634
0.00503981
-0.0160889
0.00553275
-0.0169478
0.00601132
-0.017751
0.00648612
-0.0185185
0.00696346
-0.0192799
0.00744818
-0.0200301
0.00794101
-0.0207851
0.00844886
-0.0215215
0.00896908
-0.0222875
0.00950794
-0.0229974
0.0100776
-0.0238013
0.0106464
-0.0245185
-0.0252876
0.0112836
6.74563e-05
0.00272444
0.000699333
-0.00224782
0.00162151
-0.00651927
0.00250978
-0.010412
0.00326147
-0.012689
0.00389904
-0.0144408
0.00444715
-0.0156115
0.00494552
-0.0165872
0.00541655
-0.0174188
0.00587834
-0.0182127
0.00633912
-0.0189792
0.0068042
-0.019745
0.00727729
-0.0205032
0.00775926
-0.0212671
0.00825642
-0.0220187
0.00876508
-0.0227961
0.00929525
-0.0235276
0.00984928
-0.0243553
0.0104051
-0.0250744
-0.0259136
0.0110311
0.000100491
0.00262395
0.000797188
-0.00294452
0.00171699
-0.00743907
0.00256298
-0.011258
0.00326489
-0.0133909
0.00385814
-0.0150341
0.00437125
-0.0161246
0.00484382
-0.0170598
0.00529533
-0.0178703
0.00574164
-0.0186591
0.00618895
-0.0194266
0.00664182
-0.0201979
0.00710306
-0.0209645
0.00757384
-0.0217379
0.00805959
-0.0225044
0.0085567
-0.0232932
0.00907697
-0.0240478
0.00961362
-0.024892
0.0101567
-0.0256174
-0.0265285
0.0107716
0.000136159
0.00248779
0.000892789
-0.00370115
0.001796
-0.00834228
0.00259729
-0.0120592
0.00325157
-0.0140452
0.00380446
-0.015587
0.00428647
-0.0166066
0.00473614
-0.0175095
0.00516992
-0.0183041
0.00560159
-0.0190907
0.00603569
-0.0198607
0.00647623
-0.0206384
0.00692534
-0.0214136
0.00738454
-0.0221971
0.00785824
-0.0229781
0.00834371
-0.0237787
0.00885257
-0.0245567
0.00937247
-0.0254119
0.00990899
-0.0261539
-0.0271203
0.0105008
0.000173107
0.00231468
0.000983179
-0.00451122
0.00185897
-0.00921807
0.00261485
-0.0128151
0.00322421
-0.0146545
0.0037405
-0.0161033
0.00419479
-0.0170609
0.0046239
-0.0179386
0.00504125
-0.0187215
0.00545884
-0.0195083
0.00587986
-0.0202817
0.00630791
-0.0210665
0.00674464
-0.0218503
0.00719185
-0.0226443
0.00765305
-0.0234393
0.00812662
-0.0242523
0.00862257
-0.0250526
0.00912782
-0.0259171
0.00966652
-0.0266926
-0.0276727
0.0102188
0.000210191
0.00210449
0.00106567
-0.00536669
0.00190676
-0.0100592
0.00261763
-0.013526
0.00318498
-0.0152219
0.0036681
-0.0165864
0.00409748
-0.0174903
0.00450783
-0.0183489
0.00490966
-0.0191233
0.00531349
-0.0199121
0.00572139
-0.0206896
0.00613675
-0.0214818
0.00656079
-0.0222744
0.00699558
-0.0230791
0.00744387
-0.0238876
0.00790505
-0.0247135
0.00838715
-0.0255347
0.00888102
-0.026411
0.0094059
-0.0272175
-0.0282042
0.00993747
0.000246818
0.00185767
0.00113825
-0.00625812
0.00194056
-0.0108615
0.00260748
-0.0141929
0.00313578
-0.0157502
0.00358881
-0.0170394
0.00399562
-0.0178971
0.00438857
-0.0187419
0.00477551
-0.0195102
0.00516571
-0.0203023
0.00556041
-0.0210843
0.00596281
-0.0218842
0.00637387
-0.0226854
0.00679581
-0.023501
0.00723081
-0.0243226
0.00767903
-0.0251617
0.00814727
-0.026003
0.00862724
-0.026891
0.00913889
-0.0277292
-0.0287263
0.00966096
0.000283113
0.00157456
0.00119983
-0.00717484
0.00196167
-0.0116233
0.00258612
-0.0148174
0.00307825
-0.0162423
0.00350387
-0.017465
0.00389004
-0.0182833
0.00426659
-0.0191184
0.00463902
-0.0198827
0.00501564
-0.020679
0.00539698
-0.0214656
0.00578616
-0.0222734
0.00618393
-0.0230832
0.00659262
-0.0239097
0.00701395
-0.024744
0.00744877
-0.0255965
0.00790225
-0.0264565
0.00836923
-0.0273579
0.00886511
-0.028225
-0.0292311
0.00936987
0.000319822
0.00125474
0.00125021
-0.00810523
0.00197142
-0.0123445
0.00255508
-0.015401
0.00301375
-0.016701
0.00341431
-0.0178656
0.00378135
-0.0186503
0.00414224
-0.0194793
0.0045004
-0.0202408
0.00486337
-0.0210419
0.00523117
-0.0218334
0.00560687
-0.0226491
0.00599104
-0.0234674
0.00638609
-0.0243048
0.00679339
-0.0251512
0.00721421
-0.0260173
0.007653
-0.0268952
0.00810516
-0.0278101
0.00858461
-0.0287045
-0.0297221
0.00907568
0.000358042
0.000896696
0.00128987
-0.00903705
0.00197111
-0.0130258
0.00251571
-0.0159456
0.00294343
-0.0171287
0.00332092
-0.0182431
0.00367005
-0.0189994
0.00401579
-0.0198251
0.00435979
-0.0205848
0.00470901
-0.0213912
0.00506307
-0.0221875
0.00542501
-0.023011
0.00579529
-0.0238376
0.00617632
-0.0246858
0.0065692
-0.0255441
0.00697567
-0.0264238
0.00739895
-0.0273185
0.00783631
-0.0282475
0.00829933
-0.0291675
-0.0301951
0.00877225
0.00039884
0.000497856
0.00131964
-0.00995785
0.00196189
-0.013668
0.00246919
-0.0164529
0.00286824
-0.0175278
0.00322436
-0.0185992
0.00355651
-0.0193316
0.00388743
-0.020156
0.0042173
-0.0209147
0.00455264
-0.0217265
0.00489275
-0.0225276
0.00524066
-0.0233589
0.00559674
-0.0241937
0.00596339
-0.0250525
0.00634154
-0.0259223
0.00673309
-0.0268153
0.00714074
-0.0277262
0.00756239
-0.0286691
0.00800773
-0.0296128
-0.0306516
0.00846428
0.000442887
5.4969e-05
0.0013405
-0.0108555
0.00194482
-0.0142724
0.00241656
-0.0169247
0.00278898
-0.0179002
0.00312512
-0.0189353
0.00344102
-0.0196475
0.00375733
-0.0204723
0.00407303
-0.0212304
0.00439434
-0.0220478
0.00472027
-0.0228535
0.0050539
-0.0236926
0.00539548
-0.0245353
0.00574741
-0.0254044
0.00611046
-0.0262853
0.00648675
-0.0271916
0.00687817
-0.0281176
0.00728372
-0.0290747
0.00771165
-0.0300408
-0.0310897
0.00814978
0.000490147
-0.000435178
0.00135337
-0.0117187
0.00192078
-0.0148398
0.0023587
-0.0173626
0.00270632
-0.0182478
0.00302363
-0.0192526
0.00332382
-0.0199477
0.00362562
-0.0207741
0.00392708
-0.0215318
0.00423417
-0.0223549
0.00454572
-0.0231651
0.00486482
-0.0240117
0.00519162
-0.0248621
0.00552849
-0.0257413
0.00587612
-0.026633
0.00623666
-0.0275522
0.0066116
-0.0284925
0.00700055
-0.0294636
0.00741001
-0.0304502
-0.0315101
0.00783035
0.000539697
-0.000974874
0.00135899
-0.012538
0.00189054
-0.0153713
0.00229636
-0.0177684
0.0026208
-0.0185722
0.00292021
-0.0195521
0.00320508
-0.0202325
0.0034924
-0.0210614
0.00377952
-0.021819
0.00407223
-0.0226476
0.00436918
-0.023462
0.00467349
-0.024316
0.00498524
-0.0251738
0.00530675
-0.0260628
0.00563862
-0.0269648
0.00598305
-0.0278966
0.00634107
-0.0288505
0.00671291
-0.0298355
0.00710403
-0.0308414
-0.0319116
0.00750553
0.000589747
-0.00156462
0.00135794
-0.0133062
0.00185472
-0.0158681
0.00223018
-0.0181439
0.00253286
-0.0188749
0.00281512
-0.0198343
0.00308494
-0.0205024
0.00335778
-0.0213343
0.00363045
-0.0220916
0.00390858
-0.0229258
0.00419074
-0.0237442
0.00448003
-0.0246053
0.00477644
-0.0254703
0.00508229
-0.0263686
0.00539809
-0.0272806
0.00572601
-0.0282245
0.0060668
-0.0291913
0.00642117
-0.0301898
0.00679317
-0.0312133
-0.0322943
0.00717586
0.000637826
-0.00220245
0.00135069
-0.014019
0.0018139
-0.0163313
0.0021607
-0.0184906
0.0024429
-0.0191571
0.00270857
-0.0201
0.00296355
-0.0207573
0.00322184
-0.0215925
0.00347993
-0.0223497
0.00374332
-0.0231891
0.00401048
-0.0240113
0.00428451
-0.0248793
0.00456534
-0.0257511
0.00485523
-0.0266585
0.00515466
-0.0275801
0.00546573
-0.0285356
0.00578894
-0.0295145
0.00612534
-0.0305262
0.00647819
-0.0315662
-0.0326575
0.00684146
0.00068119
-0.00288364
0.00133761
-0.0146755
0.00176858
-0.0167623
0.00208839
-0.0188105
0.0023512
-0.01942
0.00260075
-0.0203495
0.002841
-0.0209976
0.00308466
-0.0218362
0.00332806
-0.0225931
0.00357652
-0.0234376
0.00382849
-0.0242633
0.00408704
-0.0251378
0.00435204
-0.0260161
0.00462571
-0.0269322
0.00490847
-0.0278628
0.00520233
-0.0288295
0.00550766
-0.0298199
0.00582579
-0.0308444
0.00615893
-0.0318993
-0.0330011
0.00650255
0.000717346
-0.00360098
0.00131905
-0.0152772
0.00171922
-0.0171624
0.00201365
-0.0191049
0.00225805
-0.0196643
0.0024918
-0.0205833
0.0027174
-0.0212232
0.00294633
-0.0220651
0.0031749
-0.0228217
0.00340827
-0.023671
0.00364486
-0.0244999
0.00388773
-0.0253807
0.00413667
-0.026265
0.00439385
-0.0271894
0.00465965
-0.0281286
0.004936
-0.0291058
0.00522315
-0.030107
0.00552255
-0.0311438
0.00583586
-0.0322127
-0.0333247
0.00615939
0.000744541
-0.00434553
0.00129541
-0.015828
0.00166629
-0.0175333
0.00193684
-0.0193754
0.00216364
-0.0198911
0.00238184
-0.0208015
0.00259282
-0.0214342
0.00280692
-0.0222792
0.00302055
-0.0230353
0.00323866
-0.0238891
0.0034597
-0.0247209
0.00368667
-0.0256077
0.00391932
-0.0264977
0.00415978
-0.0274298
0.00440836
-0.0283772
0.00466689
-0.0293643
0.00493556
-0.0303757
0.00521595
-0.0314242
0.00550902
-0.0325057
-0.0336278
0.00581217
0.000762048
-0.00510757
0.00126712
-0.0163331
0.00161026
-0.0178765
0.00185827
-0.0196235
0.00206818
-0.0201011
0.002271
-0.0210043
0.00246735
-0.0216305
0.00266651
-0.0224784
0.00286508
-0.0232339
0.00306777
-0.0240918
0.00327311
-0.0249263
0.00348399
-0.0258186
0.00370014
-0.0267139
0.00392363
-0.0276533
0.00415473
-0.0286083
0.00439518
-0.0296048
0.00464511
-0.0306256
0.0049061
-0.0316852
0.00517875
-0.0327784
-0.0339103
0.00546119
0.000770153
-0.00587773
0.00123469
-0.0167976
0.00155153
-0.0181933
0.0017782
-0.0198501
0.00197181
-0.0202947
0.00215936
-0.0211918
0.00234108
-0.0218122
0.00252519
-0.0226625
0.00270858
-0.0234173
0.00289571
-0.0242789
0.00308517
-0.0251157
0.00327979
-0.0260132
0.00347925
-0.0269133
0.00368555
-0.0278596
0.00389893
-0.0288217
0.00412103
-0.0298269
0.00435194
-0.0308565
0.00459328
-0.0319265
0.00484519
-0.0330303
-0.0341717
0.00510663
0.0007699
-0.00664763
0.00119863
-0.0172264
0.0014905
-0.0184852
0.00169686
-0.0200565
0.00187466
-0.0204725
0.00204703
-0.0213642
0.00221408
-0.0219793
0.00238303
-0.0228315
0.00255114
-0.0235854
0.00272256
-0.0244503
0.00289601
-0.0252892
0.00307418
-0.0261913
0.00325676
-0.0270959
0.00344567
-0.0280485
0.00364111
-0.0290171
0.00384462
-0.0300304
0.00405629
-0.0310682
0.00427765
-0.0321479
0.00450864
-0.0332613
-0.0344119
0.00474878
0.000762711
-0.00741034
0.00115944
-0.0176231
0.00142753
-0.0187533
0.00161449
-0.0202434
0.00177687
-0.0206349
0.00193408
-0.0215214
0.00208642
-0.0221316
0.00224012
-0.0229852
0.00239284
-0.0237381
0.00254843
-0.0246059
0.00270573
-0.0254465
0.0028673
-0.0263529
0.00303282
-0.0272614
0.00320415
-0.0282198
0.00338143
-0.0291944
0.00356612
-0.0302151
0.00375831
-0.0312604
0.00395946
-0.032349
0.00416927
-0.0334711
-0.0346304
0.00438785
0.00075005
-0.00816039
0.00111754
-0.0179906
0.00136295
-0.0189987
0.00153124
-0.0204117
0.00167854
-0.0207821
0.00182059
-0.0216635
0.00195819
-0.0222692
0.00209652
-0.0231235
0.00223378
-0.0238754
0.00237341
-0.0247456
0.00251443
-0.0255875
0.00265924
-0.0264977
0.00280755
-0.0274097
0.00296112
-0.0283734
0.00312005
-0.0293534
0.00328572
-0.0303808
0.00345822
-0.0314329
0.0036389
-0.0325297
0.00382735
-0.0336595
-0.0348272
0.00402414
0.000733189
-0.00889358
0.00107333
-0.0183307
0.00129702
-0.0192223
0.0014473
-0.020562
0.00157975
-0.0209146
0.00170665
-0.0217904
0.00182946
-0.022392
0.00195234
-0.0232464
0.00207404
-0.0239971
0.0021976
-0.0248691
0.00232223
-0.0257121
0.00245015
-0.0266256
0.0025811
-0.0275407
0.00271673
-0.028509
0.00285715
-0.0294938
0.00300361
-0.0305272
0.00315622
-0.0315855
0.00331621
-0.0326897
0.00348313
-0.0338264
-0.0350019
0.00365786
0.000713125
-0.0096067
0.00102719
-0.0186448
0.00123
-0.0194252
0.00136281
-0.0206948
0.00148061
-0.0210324
0.00159233
-0.0219021
0.00170031
-0.0225
0.00180765
-0.0233537
0.00191372
-0.0241031
0.0020211
-0.0249765
0.00212924
-0.0258203
0.00224014
-0.0267365
0.00235359
-0.0276541
0.00247115
-0.0286266
0.00259288
-0.0296155
0.00271996
-0.0306543
0.0028525
-0.031718
0.00299162
-0.0328288
0.00313685
-0.0339717
-0.0351544
0.00328931
0.000690593
-0.0102973
0.000979412
-0.0189336
0.00116212
-0.0196079
0.0012779
-0.0208106
0.00138119
-0.0211357
0.0014777
-0.0219986
0.00157081
-0.0225931
0.00166254
-0.0234454
0.00175291
-0.0241935
0.00184402
-0.0250676
0.00193557
-0.0259118
0.00202934
-0.0268303
0.00212518
-0.02775
0.00222452
-0.0287259
0.00232741
-0.0297184
0.00243497
-0.0307619
0.00254728
-0.0318303
0.00266537
-0.0329469
0.00278875
-0.0340951
-0.0352844
0.00291873
0.000666124
-0.0109634
0.000930291
-0.0191978
0.00109355
-0.0197711
0.00119267
-0.0209097
0.00128158
-0.0212246
0.00136284
-0.0220799
0.00144105
-0.0226713
0.00151708
-0.0235215
0.0015917
-0.0242681
0.00166647
-0.0251424
0.00174134
-0.0259867
0.00181788
-0.0269068
0.001896
-0.0278281
0.001977
-0.0288069
0.00206093
-0.0298023
0.00214882
-0.0308498
0.00224075
-0.0319222
0.00233765
-0.0330438
0.00243909
-0.0341965
-0.0353917
0.0025464
0.000640107
-0.0116035
0.000880072
-0.0194377
0.00102448
-0.0199155
0.00110724
-0.0209925
0.00118184
-0.0212992
0.00124781
-0.0221458
0.00131109
-0.0227346
0.00137138
-0.0235818
0.0014302
-0.0243269
0.00148854
-0.0252007
0.00154667
-0.0260448
0.00160589
-0.0269661
0.00166619
-0.0278884
0.00172875
-0.0288695
0.00179361
-0.0298672
0.0018617
-0.0309178
0.00193311
-0.0319937
0.0020087
-0.0331194
0.00208811
-0.0342759
-0.0354762
0.00217258
0.000612837
-0.0122164
0.000828973
-0.0196539
0.000955054
-0.0200416
0.0010217
-0.0210591
0.00108205
-0.0213595
0.00113269
-0.0221965
0.00118103
-0.022783
0.00122551
-0.0236263
0.00126849
-0.0243699
0.00131035
-0.0252426
0.00135167
-0.0260862
0.00139349
-0.0270079
0.0014359
-0.0279308
0.00147992
-0.0289135
0.00152561
-0.0299129
0.00157381
-0.030966
0.00162458
-0.0320444
0.00167873
-0.0331736
0.00173601
-0.0343332
-0.0355376
0.00179743
0.000584549
-0.0128009
0.000777191
-0.0198465
0.000885403
-0.0201498
0.000936132
-0.0211099
0.000982274
-0.0214057
0.00101755
-0.0222318
0.00105093
-0.0228163
0.00107957
-0.0236549
0.00110668
-0.024397
0.00113199
-0.0252679
0.00115647
-0.0261106
0.00118083
-0.0270322
0.00120527
-0.0279552
0.00123068
-0.0289389
0.00125713
-0.0299393
0.00128533
-0.0309942
0.00131539
-0.0320745
0.00134797
-0.0332061
0.00138298
-0.0343682
-0.0355758
0.00142119
0.000555437
-0.0133563
0.000724899
-0.020016
0.000815651
-0.0202406
0.000850614
-0.0211448
0.000882589
-0.0214377
0.000902457
-0.0222516
0.000920888
-0.0228348
0.000933621
-0.0236676
0.000944862
-0.0244083
0.000953577
-0.0252766
0.000961183
-0.0261182
0.000968017
-0.0270391
0.000974456
-0.0279616
0.000981192
-0.0289457
0.000988327
-0.0299465
0.000996475
-0.0310024
0.00100575
-0.0320838
0.00101671
-0.0332171
0.00102916
-0.0343806
-0.0355908
0.00104416
0.000525666
-0.013882
0.00067225
-0.0201626
0.000745905
-0.0203142
0.000765215
-0.0211641
0.000783062
-0.0214555
0.000787473
-0.022256
0.000790983
-0.0228383
0.000787755
-0.0236644
0.000783154
-0.0244037
0.00077521
-0.0252687
0.000765935
-0.026109
0.000755204
-0.0270283
0.000743597
-0.02795
0.000731615
-0.0289337
0.000719385
-0.0299342
0.000707419
-0.0309904
0.00069587
-0.0320722
0.000685287
-0.0332065
0.000674855
-0.0343702
-0.0355823
0.000666405
0.000495358
-0.0143774
0.000619334
-0.0202865
0.000676196
-0.0203711
0.000679913
-0.0211679
0.00068366
-0.0214593
0.00067253
-0.0222449
0.000661166
-0.0228269
0.000641877
-0.0236451
0.000621455
-0.0243832
0.000596799
-0.025244
0.000570586
-0.0260828
0.000542265
-0.027
0.000512536
-0.0279203
0.000481805
-0.028903
0.000450126
-0.0299025
0.00041799
-0.0309583
0.000385528
-0.0320397
0.000353405
-0.0331744
0.00032042
-0.0343372
-0.035549
0.000287106
0.000464683
-0.0148421
0.000566363
-0.0203882
0.000606747
-0.0204115
0.000594933
-0.021156
0.000584672
-0.021449
0.000557927
-0.0222182
0.000531819
-0.0228008
0.000496424
-0.0236097
0.000460214
-0.024347
0.000418909
-0.0252027
0.000375708
-0.0260396
0.000329869
-0.0269542
0.000282004
-0.0278724
0.000232541
-0.0288535
0.000181434
-0.0298514
0.000129125
-0.030906
7.5719e-05
-0.0319863
2.13031e-05
-0.03312
-3.16893e-05
-0.0342842
-0.0354885
-9.22404e-05
0.000433732
-0.0152758
0.000513395
-0.0204679
0.000537574
-0.0204357
0.000510228
-0.0211287
0.000486079
-0.0214248
0.000443592
-0.0221757
0.000402861
-0.0227601
0.000351326
-0.0235582
0.000299325
-0.024295
0.000241384
-0.0251448
0.000181256
-0.0259794
0.000117742
-0.0268907
5.19965e-05
-0.0278067
-1.66157e-05
-0.0287849
-8.68318e-05
-0.0297812
-0.000159298
-0.0308335
-0.00023349
-0.0319121
-0.000308844
-0.0330446
-0.000387487
-0.0342056
-0.0354086
-0.00046737
0.000402604
-0.0156784
0.000460521
-0.0205258
0.000468763
-0.0204439
0.000425828
-0.0210858
0.000387963
-0.021387
0.000329584
-0.0221173
0.000274384
-0.0227049
0.000206554
-0.0234903
0.000139143
-0.0242276
6.37946e-05
-0.0250694
-1.1928e-05
-0.0259037
-9.37074e-05
-0.0268089
-0.000177666
-0.0277227
-0.000264571
-0.028698
-0.000354567
-0.0296912
-0.000447101
-0.030741
-0.000542082
-0.0318172
-0.000639376
-0.0329473
-0.000740971
-0.034104
-0.0353064
-0.000843112
0.000371387
-0.0160498
0.000407815
-0.0205622
0.000400395
-0.0204365
0.000341754
-0.0210271
0.000290402
-0.0213356
0.000215876
-0.0220428
0.000146732
-0.0226357
6.13824e-05
-0.023405
-1.93788e-05
-0.0241469
-0.000112049
-0.0249767
-0.000206141
-0.0258096
-0.000304209
-0.0267108
-0.000406488
-0.0276205
-0.000512134
-0.0285923
-0.000621481
-0.0295819
-0.000734121
-0.0306283
-0.000849957
-0.0317013
-0.000969322
-0.032828
-0.00109307
-0.0339802
-0.0351811
-0.00121837