/*--------------------------------*- C++ -*----------------------------------*\
  =========                 |
  \\      /  F ield         | OpenFOAM: The Open Source CFD Toolbox
   \\    /   O peration     | Website:  https://openfoam.org
    \\  /    A nd           | Version:  7
     \\/     M anipulation  |
\*---------------------------------------------------------------------------*/
FoamFile
{
    version     2.0;
    format      ascii;
    class       volScalarField;
    location    "110";
    object      p;
}
// * * * * * * * * * * * * * * * * * * * * * * * * * * * * * * * * * * * * * //

dimensions      [0 2 -2 0 0 0 0];

internalField   nonuniform List<scalar> 
15200
(
-0.667713
-0.582877
-0.432786
-0.400788
-0.365023
-0.359849
-0.279867
-0.22341
-0.188806
-0.176079
-0.196107
-0.206588
-0.181712
-0.141985
-0.134289
-0.647561
-0.562668
-0.437563
-0.408665
-0.390683
-0.370971
-0.282212
-0.2184
-0.183058
-0.167887
-0.190956
-0.204271
-0.178376
-0.132955
-0.122815
-0.627149
-0.541277
-0.439461
-0.414519
-0.411772
-0.37715
-0.281536
-0.210493
-0.175026
-0.159732
-0.185751
-0.198955
-0.169919
-0.122054
-0.114986
-0.606543
-0.518595
-0.437641
-0.418947
-0.427583
-0.378372
-0.277696
-0.200186
-0.163764
-0.150214
-0.177335
-0.189558
-0.157067
-0.110648
-0.111577
-0.585796
-0.494539
-0.431074
-0.422127
-0.437289
-0.37464
-0.270509
-0.188203
-0.149029
-0.138744
-0.164171
-0.175903
-0.140258
-0.0961889
-0.108332
-0.564949
-0.469081
-0.418671
-0.424221
-0.440231
-0.366297
-0.260101
-0.175346
-0.131484
-0.12351
-0.144559
-0.155738
-0.116419
-0.0751231
-0.0972619
-0.544019
-0.442278
-0.399577
-0.425907
-0.436355
-0.353991
-0.247096
-0.162282
-0.112632
-0.102001
-0.115752
-0.122628
-0.0817649
-0.0494331
-0.0780237
-0.523
-0.414305
-0.373459
-0.428204
-0.426432
-0.338459
-0.232514
-0.14937
-0.0945735
-0.0754888
-0.0772951
-0.0747654
-0.0389334
-0.0277099
-0.0590707
-0.501861
-0.385485
-0.340661
-0.431921
-0.411899
-0.320447
-0.217391
-0.13668
-0.0795392
-0.0492239
-0.0352174
-0.0233937
0.00158713
-0.0120517
-0.0415055
-0.480551
-0.356319
-0.302211
-0.4367
-0.394442
-0.300791
-0.202362
-0.124403
-0.0681471
-0.0301782
-0.00414183
0.0140174
0.0287036
-0.0006419
-0.0262037
-0.459103
-0.327499
-0.259742
-0.440201
-0.375469
-0.280391
-0.187667
-0.113169
-0.0590227
-0.0188224
0.011381
0.0307956
0.0390168
0.00793894
-0.013636
-0.437399
-0.299796
-0.215527
-0.438398
-0.355838
-0.260038
-0.173491
-0.103412
-0.0515907
-0.0128197
0.0161569
0.0336298
0.039274
0.0137953
-0.00441898
-0.416017
-0.273818
-0.172851
-0.427181
-0.335892
-0.240322
-0.160149
-0.0949578
-0.0460281
-0.00973997
0.0170329
0.032125
0.0359365
0.0168148
0.00163558
-0.396042
-0.249884
-0.136351
-0.405077
-0.31573
-0.22167
-0.147855
-0.0875975
-0.0420851
-0.00854407
0.0158572
0.0290368
0.0317129
0.0177569
0.00551794
-0.378985
-0.22821
-0.110971
-0.374694
-0.295492
-0.204344
-0.13665
-0.0812429
-0.0392875
-0.00848735
0.0135225
0.0251687
0.0274348
0.0175297
0.00798444
-0.365983
-0.209113
-0.101685
-0.340808
-0.275404
-0.18842
-0.126519
-0.0757337
-0.0372932
-0.00904437
0.0107667
0.02124
0.0234543
0.0166365
0.00947342
-0.356909
-0.192868
-0.10142
-0.307375
-0.255702
-0.173845
-0.117396
-0.0709025
-0.0358195
-0.00991364
0.00795069
0.0176139
0.0199104
0.0154668
0.0102501
-0.350193
-0.179721
-0.106628
-0.276442
-0.236621
-0.160516
-0.109169
-0.0666106
-0.0346539
-0.0108806
0.00529865
0.0143648
0.0168051
0.0142567
0.0104192
-0.343654
-0.170302
-0.112294
-0.248647
-0.21841
-0.148312
-0.101718
-0.0627311
-0.0336509
-0.0118018
0.00296581
0.0115252
0.0142038
0.0131162
0.0101891
-0.335556
-0.166239
-0.116135
-0.224041
-0.201289
-0.137118
-0.0949213
-0.0591573
-0.0327073
-0.0125836
0.000989785
0.00909309
0.0121124
0.0120539
0.00998863
-0.325796
-0.168747
-0.118223
-0.202426
-0.185391
-0.126831
-0.0886661
-0.0558044
-0.0317525
-0.0131635
-0.000624132
0.00707725
0.0104404
0.0111116
0.0102076
-0.31453
-0.178292
-0.119637
-0.183482
-0.170731
-0.117353
-0.0828548
-0.0526063
-0.0307361
-0.0135157
-0.00188451
0.00546587
0.00910223
0.010375
0.010445
-0.301791
-0.193651
-0.121355
-0.166835
-0.157239
-0.108587
-0.0774052
-0.0495132
-0.0296226
-0.0136303
-0.00281452
0.00422513
0.00805323
0.00979247
0.0104974
-0.287253
-0.211519
-0.123772
-0.152095
-0.144806
-0.100441
-0.0722501
-0.0464881
-0.0283892
-0.0135096
-0.0034366
0.00332357
0.00725502
0.00934171
0.010473
-0.270359
-0.226906
-0.126694
-0.138908
-0.133332
-0.0928293
-0.0673353
-0.0435032
-0.0270253
-0.013162
-0.003776
0.00272077
0.00668618
0.00902118
0.0104107
-0.250864
-0.234716
-0.129525
-0.127017
-0.122716
-0.0856746
-0.062617
-0.0405384
-0.0255287
-0.0125977
-0.00385761
0.00238478
0.00632912
0.00881989
0.0103747
-0.229553
-0.231922
-0.131591
-0.11628
-0.112871
-0.0789106
-0.0580602
-0.0375788
-0.0239021
-0.0118309
-0.00370333
0.00228549
0.00616657
0.00874094
0.0104009
-0.208434
-0.218914
-0.132403
-0.106611
-0.103728
-0.07248
-0.0536365
-0.0346134
-0.0221508
-0.0108762
-0.00333485
0.00239793
0.00618229
0.00878255
0.0105006
-0.190102
-0.199026
-0.131791
-0.0978973
-0.0952237
-0.0663346
-0.0493225
-0.0316331
-0.0202824
-0.00974993
-0.00277045
0.00270015
0.00636139
0.00894071
0.0106871
-0.176618
-0.176541
-0.129849
-0.0899451
-0.0872939
-0.0604337
-0.0450972
-0.0286299
-0.0183064
-0.00846717
-0.00202702
0.00317319
0.00668803
0.00921411
0.0109581
-0.168801
-0.154749
-0.126782
-0.0825653
-0.0798703
-0.0547425
-0.0409432
-0.0255987
-0.0162323
-0.00704117
-0.00112093
0.00380065
0.00714993
0.00959411
0.0113163
-0.166374
-0.135278
-0.12285
-0.0756044
-0.0728837
-0.0492291
-0.0368476
-0.0225373
-0.0140672
-0.00548408
-6.94668e-05
0.00456864
0.00773353
0.0100767
0.0117579
-0.168522
-0.118523
-0.118304
-0.0689462
-0.066268
-0.0438639
-0.0328025
-0.0194448
-0.0118159
-0.00380923
0.00111162
0.00546477
0.0084299
0.0106517
0.012276
-0.17431
-0.104302
-0.113336
-0.0625034
-0.0599607
-0.0386203
-0.0288003
-0.0163176
-0.0094844
-0.00203098
0.00241075
0.00647837
0.0092277
0.0113124
0.0128631
-0.182844
-0.0922492
-0.108078
-0.0562063
-0.0539042
-0.033477
-0.0248273
-0.0131502
-0.00708363
-0.000159382
0.00381861
0.00759759
0.0101165
0.0120509
0.0135102
-0.193298
-0.0819756
-0.102615
-0.049997
-0.0480474
-0.0284144
-0.0208693
-0.00993871
-0.00463121
0.00180512
0.00532151
0.00881118
0.011085
0.0128624
0.0142133
-0.204912
-0.073111
-0.096998
-0.0438281
-0.0423463
-0.0234074
-0.0169301
-0.00667785
-0.00214969
0.00387234
0.00689682
0.0101127
0.0121275
0.0137414
0.014966
-0.216993
-0.0653125
-0.0912511
-0.0376659
-0.0367613
-0.0184187
-0.0130427
-0.00334186
0.000334939
0.00605821
0.00851613
0.011503
0.0132395
0.0146814
0.0157671
-0.228917
-0.0582657
-0.0853773
-0.0314836
-0.0312645
-0.0133956
-0.00925428
0.000123968
0.00278882
0.00837725
0.0101556
0.0129828
0.0144143
0.0156765
0.0166215
-0.240127
-0.0516865
-0.0793589
-0.0252325
-0.0258719
-0.00826515
-0.00560576
0.00377207
0.0051707
0.0108289
0.0118109
0.0145403
0.0156439
0.016722
0.0175414
-0.25014
-0.045325
-0.0731674
-0.0188101
-0.0206714
-0.00294324
-0.00211981
0.00759921
0.00747351
0.01337
0.0135139
0.0161406
0.0169291
0.0178181
0.0185191
-0.258542
-0.0389595
-0.0667993
-0.0120607
-0.0157755
0.00260593
0.0012518
0.0114819
0.00982099
0.0158804
0.0153389
0.0177283
0.018278
0.0189738
0.0194919
-0.264987
-0.0323659
-0.0603364
-0.00484221
-0.0111686
0.00824539
0.00472454
0.0151193
0.0125109
0.0182011
0.0173441
0.0192833
0.019679
0.0201792
0.0204848
-0.269187
-0.0252741
-0.0539622
0.00282231
-0.00654844
0.0136142
0.00859296
0.0184571
0.0154785
0.0203824
0.0194646
0.0208495
0.0211035
0.0214183
0.0215047
-0.270908
-0.0173821
-0.0478069
0.0105875
-0.00142879
0.0185698
0.012799
0.0215807
0.0186138
0.0225063
0.0216239
0.0224625
0.0225364
0.0226758
0.0225456
-0.269979
-0.0085315
-0.0415986
0.0181356
0.0042427
0.023211
0.0172294
0.0245961
0.021816
0.0246392
0.0237673
0.0241314
0.0239781
0.0239411
0.0235988
-0.266333
0.00102933
-0.034578
0.0251963
0.0103585
0.0276612
0.0217774
0.0275861
0.0250127
0.0268184
0.0258712
0.0258436
0.0254342
0.0252118
0.0246604
-0.26005
0.0109435
-0.0264038
0.0319252
0.0167934
0.0320247
0.0263597
0.0306052
0.02816
0.0290548
0.0279361
0.0275773
0.0269057
0.0264896
0.0257326
-0.25126
0.0214059
-0.0172161
0.0384822
0.0234392
0.0363774
0.0309186
0.0336807
0.0312377
0.0313408
0.0299714
0.0293135
0.0283861
0.0277714
0.026814
-0.239813
0.0323588
-0.00719017
0.0449909
0.0302121
0.040768
0.0354191
0.0368175
0.0342421
0.0336584
0.0319858
0.0310399
0.0298637
0.0290442
0.027888
-0.225044
0.0433452
0.00351836
0.0515372
0.0370478
0.0452217
0.0398425
0.0400061
0.0371774
0.035987
0.0339825
0.0327488
0.0313265
0.0302921
0.0289344
-0.207153
0.0545039
0.0147848
0.0581791
0.0438984
0.049746
0.0441816
0.0432283
0.0400504
0.0383071
0.0359588
0.0344347
0.0327678
0.0315102
0.0299554
-0.186403
0.0659746
0.0265
0.0649498
0.0507285
0.0543347
0.0484349
0.0464627
0.0428659
0.0406023
0.0379081
0.0360931
0.0341861
0.0327075
0.0309794
-0.163056
0.0778483
0.0385679
0.0718633
0.0575112
0.0589725
0.052603
0.049688
0.0456249
0.0428599
0.0398231
0.0377202
0.035577
0.0338835
0.0320123
-0.137375
0.0901649
0.0509008
0.0789177
0.0642252
0.0636381
0.0566859
0.0528841
0.0483248
0.04507
0.0416993
0.0393132
0.0369253
0.035002
0.0329829
-0.109629
0.10293
0.0634172
0.0860981
0.0708526
0.0683071
0.0606815
0.0560333
0.0509602
0.0472262
0.0435344
0.0408679
0.038207
0.0360021
0.0337739
-0.0800999
0.116121
0.0760398
0.0933795
0.0773762
0.0729533
0.0645849
0.0591192
0.053524
0.0493235
0.0453252
0.0423746
0.0393995
0.0368528
0.0343696
-0.0490803
0.129697
0.0886944
0.100728
0.083779
0.0775503
0.0683884
0.0621272
0.0560085
0.0513575
0.0470631
0.0438133
0.0404885
0.0375958
0.0349528
-0.0168693
0.143597
0.101308
0.108105
0.0900427
0.0820719
0.0720818
0.0650437
0.0584062
0.0533222
0.0487346
0.0451608
0.0414728
0.0383158
0.0357473
0.0162272
0.157745
0.113811
0.115466
0.0961474
0.0864925
0.075653
0.067856
0.0607094
0.05521
0.0503251
0.0464062
0.0423741
0.0390589
0.0366717
0.0499002
0.172056
0.126131
0.122763
0.102071
0.0907868
0.0790882
0.0705522
0.0629097
0.057011
0.0518227
0.0475566
0.0432328
0.0398152
0.0375329
0.0838396
0.186432
0.1382
0.129947
0.107791
0.0949304
0.0823729
0.0731202
0.0649981
0.0587137
0.0532183
0.0486216
0.0440782
0.0406243
0.038325
0.117736
0.20077
0.149947
0.136966
0.113281
0.0988993
0.0854922
0.0755486
0.0669648
0.0603073
0.0545067
0.0496072
0.0448999
0.0414259
0.0390645
0.151286
0.214957
0.161304
0.143769
0.118516
0.10267
0.0884309
0.0778256
0.0687992
0.0617822
0.0556875
0.0505219
0.0456921
0.042178
0.0396997
0.184188
0.228879
0.172202
0.150304
0.123468
0.106221
0.0911737
0.0799393
0.0704911
0.0631299
0.0567584
0.0513648
0.0464434
0.0428745
0.0402689
0.216152
0.242416
0.182573
0.156521
0.128109
0.109528
0.0937057
0.081878
0.0720306
0.0643438
0.0577169
0.052127
0.0471288
0.0434915
0.0407518
0.246897
0.255449
0.19235
0.16237
0.132411
0.112572
0.096012
0.08363
0.0734083
0.0654187
0.0585627
0.0528066
0.0477399
0.0440261
0.0411564
0.276152
0.267859
0.201469
0.167803
0.136348
0.115331
0.0980782
0.0851839
0.0746153
0.0663478
0.0592885
0.0533926
0.0482675
0.0444765
0.0414782
0.30366
0.279527
0.209865
0.172775
0.139892
0.117786
0.0998905
0.0865293
0.0756443
0.0671272
0.059891
0.0538771
0.0487006
0.0448366
0.0417189
0.32918
0.290337
0.217478
0.177242
0.143017
0.119917
0.101436
0.0876557
0.0764874
0.0677512
0.0603653
0.054256
0.0490377
0.0451047
0.0418755
0.352491
0.300175
0.224249
0.181163
0.145698
0.121709
0.102702
0.0885542
0.0771384
0.0682145
0.0607048
0.0545212
0.0492723
0.0452785
0.0419489
0.373384
0.308934
0.230123
0.184501
0.147914
0.123144
0.103677
0.0892162
0.0775912
0.0685129
0.0609062
0.0546696
0.0494015
0.0453551
0.0419383
0.391668
0.316514
0.23505
0.18722
0.149642
0.124208
0.104352
0.0896341
0.0778401
0.0686414
0.0609645
0.0546961
0.0494221
0.0453332
0.0418444
0.407164
0.322827
0.238982
0.189289
0.150863
0.124887
0.104716
0.0898012
0.0778806
0.0685965
0.0608764
0.0545976
0.0493312
0.0452116
0.0416678
0.419712
0.327794
0.241879
0.190681
0.151561
0.12517
0.104763
0.089712
0.0777086
0.0683748
0.0606388
0.0543712
0.049127
0.0449894
0.0414094
0.429171
0.331345
0.243704
0.191372
0.151721
0.125048
0.104484
0.0893618
0.0773207
0.0679738
0.0602494
0.0540143
0.0488074
0.0446661
0.0410701
0.435419
0.333422
0.244425
0.191343
0.15133
0.124512
0.103876
0.0887471
0.0767146
0.0673916
0.0597064
0.053525
0.0483709
0.0442412
0.0406513
0.438356
0.333979
0.244016
0.190579
0.15038
0.123557
0.102934
0.0878655
0.0758888
0.0666272
0.0590088
0.0529016
0.0478163
0.0437149
0.0401546
0.437902
0.332981
0.242458
0.189067
0.148863
0.122179
0.101656
0.0867157
0.0748426
0.0656801
0.0581559
0.0521434
0.0471425
0.0430875
0.0395818
0.434
0.330409
0.239737
0.186803
0.146776
0.120377
0.100042
0.0852976
0.0735763
0.0645509
0.0571482
0.0512503
0.0463501
0.0423607
0.0389354
0.426613
0.326246
0.235842
0.183782
0.144118
0.118149
0.0980915
0.0836126
0.0720913
0.0632408
0.055987
0.0502234
0.0454404
0.0415362
0.0382158
0.415728
0.320499
0.230773
0.180009
0.14089
0.1155
0.0958079
0.0816629
0.07039
0.0617521
0.0546741
0.0490644
0.0444144
0.0406136
0.0374222
0.401352
0.313182
0.224534
0.17549
0.137097
0.112434
0.093195
0.0794522
0.0684755
0.0600873
0.0532117
0.0477748
0.0432726
0.0395935
0.0365576
0.383516
0.304325
0.217132
0.170238
0.132747
0.108956
0.0902584
0.0769852
0.066352
0.0582503
0.0516031
0.0463574
0.042018
0.0384776
0.0356202
0.362268
0.293966
0.208585
0.164268
0.127851
0.105078
0.0870053
0.0742682
0.0640248
0.0562457
0.0498524
0.0448162
0.040654
0.0372683
0.0346091
0.337679
0.282161
0.198914
0.157602
0.122421
0.100809
0.0834446
0.0713083
0.0615001
0.0540788
0.0479647
0.0431554
0.0391845
0.0359687
0.0335253
0.309836
0.268974
0.188146
0.150268
0.116473
0.0961629
0.0795865
0.068114
0.0587851
0.0517558
0.0459454
0.0413798
0.0376135
0.0345814
0.0323697
0.278843
0.254485
0.176314
0.142294
0.110027
0.0911559
0.0754428
0.0646951
0.0558877
0.0492837
0.0438008
0.0394953
0.0359456
0.033109
0.0311427
0.244823
0.238784
0.163456
0.133718
0.103104
0.0858053
0.071027
0.0610623
0.052817
0.04667
0.0415378
0.0375078
0.0341862
0.031555
0.0298447
0.20792
0.221967
0.149616
0.124578
0.0957266
0.0801305
0.0663538
0.0572276
0.0495828
0.0439233
0.0391642
0.0354249
0.0323416
0.0299236
0.028477
0.168304
0.204136
0.13484
0.114921
0.0879208
0.0741532
0.0614395
0.0532039
0.0461954
0.0410524
0.0366879
0.0332533
0.0304172
0.028219
0.0270418
0.126159
0.185402
0.119181
0.104793
0.0797139
0.0678966
0.0563015
0.0490055
0.0426665
0.0380672
0.0341186
0.0310024
0.0284209
0.0264458
0.0255411
0.0816904
0.16588
0.102692
0.0942483
0.0711348
0.0613857
0.0509585
0.0446473
0.0390078
0.0349773
0.0314648
0.0286805
0.0263591
0.0246085
0.023978
0.0351202
0.145688
0.0854335
0.0833422
0.0622136
0.0546474
0.0454302
0.0401453
0.0352321
0.0317933
0.0287367
0.0262983
0.0242409
0.0227109
0.0223541
-0.0133139
0.124948
0.0674657
0.0721344
0.0529812
0.0477103
0.0397376
0.0355164
0.0313529
0.0285264
0.0259451
0.0238681
0.0220778
0.0207583
0.0206726
-0.0633592
0.103783
0.0488539
0.0606876
0.0434689
0.0406043
0.0339022
0.0307782
0.0273842
0.025187
0.0230978
0.0213983
0.0198796
0.01875
0.0189271
-0.114749
0.0823175
0.0296657
0.0490667
0.0337083
0.0333616
0.0279464
0.0259489
0.0233403
0.0217862
0.0202042
0.0189026
0.0176702
0.0167024
0.0171145
-0.167205
0.0606729
0.00997156
0.0373386
0.0237305
0.0260156
0.0218929
0.0210474
0.0192369
0.018337
0.0172749
0.016391
0.0154685
0.0146207
0.0151811
-0.220436
0.0389687
-0.0101551
0.0255714
0.013566
0.0186019
0.0157646
0.0160929
0.0150897
0.0148508
0.0143146
0.0138602
0.0132867
0.0125575
0.0131055
-0.274145
0.0173198
-0.0306381
0.0138338
0.00324433
0.011158
0.00958434
0.0111048
0.010915
0.0113411
0.0113349
0.0113202
0.0111508
0.0106001
0.0107704
-0.328025
-0.00416479
-0.0513978
0.00219381
-0.00720576
0.00372329
0.00337447
0.00610296
0.00672979
0.0078221
0.00834772
0.00876751
0.00902033
0.00876992
0.00837201
-0.381763
-0.0253838
-0.0723515
-0.0092824
-0.0177567
-0.00366094
-0.00284367
0.00110696
0.00255122
0.00430752
0.00536331
0.00620762
0.00687576
0.00704031
0.00669034
-0.435043
-0.0462453
-0.0934127
-0.0205314
-0.0283816
-0.0109515
-0.00905016
-0.0038632
-0.0016034
0.000811283
0.00239397
0.00365959
0.00473303
0.00537213
0.00535678
-0.487544
-0.0666682
-0.114491
-0.0314941
-0.0390537
-0.0181037
-0.0152271
-0.00878706
-0.00571655
-0.00265161
-0.000547532
0.00113876
0.00259961
0.00367598
0.00404346
-0.538946
-0.0865846
-0.13549
-0.0421172
-0.0497455
-0.0250722
-0.0213589
-0.0136431
-0.00977084
-0.0060664
-0.00345084
-0.001351
0.000471897
0.00191773
0.00265578
-0.588928
-0.105942
-0.15631
-0.0523553
-0.0604275
-0.0318118
-0.0274334
-0.0184079
-0.0137494
-0.00941963
-0.00630637
-0.00380633
-0.00164436
0.00012557
0.00119878
-0.63717
-0.124705
-0.176845
-0.0621725
-0.0710671
-0.0382787
-0.0334414
-0.0230552
-0.0176363
-0.0126991
-0.0091026
-0.00621638
-0.00373361
-0.0016696
-0.000324202
-0.683357
-0.142858
-0.196981
-0.0715443
-0.0816264
-0.0444327
-0.0393765
-0.0275555
-0.0214161
-0.0158935
-0.011827
-0.00856734
-0.00578334
-0.00345646
-0.00189742
-0.727173
-0.160412
-0.2166
-0.0804599
-0.0920604
-0.0502392
-0.045234
-0.0318749
-0.0250756
-0.0189931
-0.0144685
-0.0108483
-0.00778575
-0.0052246
-0.00347563
-0.768308
-0.177404
-0.235573
-0.0889243
-0.102315
-0.0556723
-0.0510082
-0.0359765
-0.0286044
-0.0219887
-0.0170176
-0.0130506
-0.00973027
-0.00695109
-0.00500958
-0.806446
-0.193909
-0.253764
-0.0969603
-0.112323
-0.0607176
-0.0566885
-0.0398223
-0.0319973
-0.0248706
-0.0194639
-0.0151653
-0.0116024
-0.00860976
-0.00647267
-0.84126
-0.210049
-0.271029
-0.104611
-0.122004
-0.0653767
-0.062255
-0.0433769
-0.0352557
-0.0276254
-0.0217951
-0.0171834
-0.0133911
-0.0101869
-0.0078633
-0.872395
-0.226018
-0.28721
-0.111941
-0.131261
-0.06967
-0.0676725
-0.0466141
-0.0383867
-0.030233
-0.0239981
-0.0190972
-0.0150925
-0.0116844
-0.00918993
-0.899462
-0.242067
-0.302139
-0.119042
-0.139977
-0.0736424
-0.0728859
-0.049523
-0.0414004
-0.032665
-0.0260627
-0.0209005
-0.0167059
-0.0131074
-0.0104551
-0.922232
-0.258402
-0.315634
-0.126033
-0.148013
-0.0773661
-0.0778147
-0.0521164
-0.0443006
-0.034887
-0.0279861
-0.0225856
-0.0182271
-0.0144526
-0.0116495
-0.941827
-0.274347
-0.32748
-0.133066
-0.155205
-0.080944
-0.0823489
-0.0544368
-0.047071
-0.0368678
-0.0297744
-0.0241416
-0.0196469
-0.0157082
-0.0127574
-0.958774
-0.289605
-0.337424
-0.140339
-0.161363
-0.0845151
-0.0863473
-0.0565612
-0.0496598
-0.0385957
-0.031438
-0.0255546
-0.0209559
-0.0168634
-0.0137678
-0.972937
-0.304376
-0.345197
-0.148082
-0.166277
-0.0882443
-0.0896424
-0.0586008
-0.0519753
-0.0400915
-0.0329781
-0.0268139
-0.022146
-0.0179152
-0.0146813
-0.984045
-0.318969
-0.350641
-0.156499
-0.169746
-0.0923025
-0.0920538
-0.0606877
-0.0538899
-0.0414172
-0.0343695
-0.0279219
-0.0232081
-0.018865
-0.0155068
-0.991973
-0.333128
-0.354792
-0.165117
-0.171687
-0.0967789
-0.0934636
-0.0629174
-0.0552802
-0.0426569
-0.0355574
-0.028901
-0.0241262
-0.019715
-0.0162546
-0.996759
-0.345845
-0.359038
-0.173192
-0.172706
-0.10125
-0.0940042
-0.0651958
-0.0561227
-0.0438525
-0.0364816
-0.029789
-0.024878
-0.0204672
-0.0169426
-0.998526
-0.356993
-0.36361
-0.179973
-0.173757
-0.10486
-0.0943336
-0.0670346
-0.0567219
-0.0448323
-0.0372116
-0.0305418
-0.0255091
-0.0211015
-0.0175203
-0.997428
-0.366986
-0.368109
-0.185425
-0.175029
-0.107377
-0.0946648
-0.0682541
-0.0571716
-0.0455341
-0.037778
-0.0311371
-0.0260364
-0.0216154
-0.0179776
-0.993641
-0.376277
-0.372144
-0.189857
-0.176211
-0.109006
-0.094862
-0.0689202
-0.0574213
-0.0459703
-0.0381813
-0.0315751
-0.026454
-0.0220186
-0.0183273
-0.987371
-0.385175
-0.375552
-0.193549
-0.176966
-0.109979
-0.0947094
-0.0691416
-0.0574085
-0.0461602
-0.0384154
-0.0318636
-0.0267538
-0.0223203
-0.0185886
-0.978861
-0.393887
-0.378337
-0.196627
-0.177136
-0.110391
-0.0940768
-0.0689651
-0.057101
-0.0461115
-0.0384771
-0.0320116
-0.0269345
-0.022526
-0.018773
-0.968393
-0.4026
-0.380553
-0.199121
-0.1767
-0.110234
-0.0929317
-0.0683836
-0.0564877
-0.0458285
-0.0383685
-0.032027
-0.0270018
-0.0226385
-0.0188842
-0.956285
-0.411521
-0.382237
-0.201037
-0.175669
-0.109469
-0.0912754
-0.0673747
-0.0555663
-0.0453172
-0.0380954
-0.0319188
-0.0269644
-0.0226596
-0.0189207
-0.942884
-0.420885
-0.383408
-0.202394
-0.17404
-0.108067
-0.0890961
-0.0659197
-0.0543375
-0.0445845
-0.0376667
-0.0316965
-0.0268317
-0.0225927
-0.0188778
-0.928569
-0.430934
-0.384085
-0.203226
-0.17179
-0.106016
-0.0863675
-0.064005
-0.0528024
-0.0436392
-0.0370938
-0.0313717
-0.0266139
-0.0224395
-0.0187543
-0.913742
-0.441918
-0.38429
-0.203574
-0.168895
-0.103304
-0.083062
-0.0616183
-0.0509635
-0.0424945
-0.0363927
-0.0309574
-0.0263214
-0.0222084
-0.0185475
-0.898821
-0.454084
-0.384053
-0.203471
-0.16534
-0.0999181
-0.0791551
-0.0587468
-0.0488257
-0.0411691
-0.0355843
-0.0304704
-0.0259668
-0.0219032
-0.0182641
-0.884241
-0.467677
-0.383404
-0.202952
-0.161119
-0.0958424
-0.0746231
-0.0553773
-0.0463978
-0.039687
-0.0346955
-0.0299304
-0.0255644
-0.0215358
-0.0179018
-0.870439
-0.482934
-0.382371
-0.20205
-0.156235
-0.0910636
-0.069442
-0.0514977
-0.043694
-0.038079
-0.0337592
-0.0293628
-0.0251313
-0.0211112
-0.01747
-0.857843
-0.500079
-0.380974
-0.200804
-0.150697
-0.0855744
-0.063587
-0.0470987
-0.040736
-0.0363856
-0.0328165
-0.0287974
-0.0246874
-0.0206398
-0.0169648
-0.846866
-0.519313
-0.379226
-0.199264
-0.144528
-0.0793784
-0.0570328
-0.0421759
-0.0375564
-0.0346596
-0.0319182
-0.0282698
-0.0242539
-0.0201323
-0.0163897
-0.837881
-0.540798
-0.377122
-0.197491
-0.137762
-0.0724939
-0.0497538
-0.0367326
-0.0342021
-0.0329698
-0.0311239
-0.0278259
-0.0238561
-0.0195915
-0.0157446
-0.831209
-0.564644
-0.37463
-0.195572
-0.130454
-0.0649638
-0.0417272
-0.0307847
-0.0307391
-0.0314034
-0.0305076
-0.0275172
-0.0235237
-0.0190504
-0.0149821
-0.827083
-0.590872
-0.37168
-0.193627
-0.122683
-0.0568664
-0.0329423
-0.024365
-0.0272597
-0.0300726
-0.0301558
-0.027415
-0.0232855
-0.0185317
-0.0141125
-0.825618
-0.619331
-0.368145
-0.191833
-0.114561
-0.0483254
-0.0234085
-0.0175329
-0.0238919
-0.0291187
-0.0301791
-0.0275936
-0.023192
-0.0181171
-0.0129579
-0.826744
-0.649401
-0.363985
-0.19043
-0.106247
-0.0395226
-0.01318
-0.0103885
-0.0208108
-0.028722
-0.0307159
-0.0281465
-0.023274
-0.0179283
-0.011723
-0.830141
-0.679877
-0.359321
-0.189691
-0.0979654
-0.0307212
-0.00240201
-0.00308767
-0.0182545
-0.0291138
-0.031943
-0.029174
-0.0236134
-0.0178174
-0.0111325
-0.835171
-0.709093
-0.354503
-0.18978
-0.0900372
-0.0223089
0.00861046
0.00413719
-0.0165494
-0.0305962
-0.0340941
-0.0307705
-0.0243364
-0.0177351
-0.0107151
-0.840888
-0.735102
-0.349938
-0.190863
-0.0829431
-0.0148449
0.0192521
0.010952
-0.0161441
-0.0335754
-0.0374606
-0.0330705
-0.0255081
-0.0177346
-0.0100065
-0.846187
-0.755982
-0.345991
-0.193185
-0.077356
-0.0091043
0.0284794
0.0168746
-0.0176618
-0.0385972
-0.0423938
-0.0362806
-0.0271428
-0.0178912
-0.00899565
-0.850012
-0.770295
-0.342988
-0.197016
-0.0742294
-0.00630517
0.0344588
0.0211638
-0.0219103
-0.0464055
-0.0493218
-0.040655
-0.0293337
-0.0182524
-0.00783388
-0.851559
-0.777456
-0.341234
-0.2026
-0.0749954
-0.00883829
0.0336773
0.0226217
-0.029491
-0.0578336
-0.0587849
-0.0464916
-0.0322726
-0.0188094
-0.00673356
-0.850394
-0.777815
-0.340984
-0.210233
-0.0814107
-0.021233
0.0207224
0.0187698
-0.0401363
-0.073327
-0.0713594
-0.054138
-0.0361545
-0.0197017
-0.00597485
-0.846437
-0.77245
-0.342383
-0.220381
-0.0944834
-0.0469746
-0.00880449
0.00631405
-0.05267
-0.0925659
-0.0873416
-0.063983
-0.0412556
-0.0211533
-0.005772
-0.839853
-0.762779
-0.345424
-0.233491
-0.113111
-0.0839575
-0.0519612
-0.02106
-0.0659429
-0.114511
-0.106558
-0.0763835
-0.0477104
-0.0234951
-0.0066767
-0.830933
-0.750193
-0.34997
-0.249369
-0.133476
-0.122675
-0.0978847
-0.0585294
-0.0802099
-0.137693
-0.128329
-0.0914283
-0.055451
-0.027577
-0.00932913
-0.819999
-0.735811
-0.35581
-0.26698
-0.151964
-0.155885
-0.137537
-0.0975784
-0.0973663
-0.160593
-0.151391
-0.108938
-0.0648395
-0.0339119
-0.0135702
-0.807346
-0.720415
-0.362702
-0.284948
-0.167365
-0.18305
-0.168758
-0.131446
-0.117995
-0.181045
-0.174151
-0.128289
-0.0764868
-0.0422802
-0.0219518
-0.793226
-0.704473
-0.370435
-0.302149
-0.181475
-0.206447
-0.192887
-0.158793
-0.140114
-0.196844
-0.194925
-0.14789
-0.090507
-0.0535087
-0.0386785
-0.777841
-0.688222
-0.378887
-0.318127
-0.197374
-0.228439
-0.212288
-0.180728
-0.161744
-0.20783
-0.212171
-0.165993
-0.107474
-0.0698912
-0.06572
-0.761357
-0.671738
-0.388008
-0.333206
-0.217434
-0.250807
-0.228687
-0.197872
-0.180835
-0.214656
-0.224681
-0.181674
-0.126834
-0.0912548
-0.097233
-0.743922
-0.654987
-0.397689
-0.348047
-0.242554
-0.274604
-0.243052
-0.210419
-0.193888
-0.216231
-0.230666
-0.194118
-0.145998
-0.113518
-0.12494
-0.7257
-0.637904
-0.407604
-0.362947
-0.27202
-0.299319
-0.255673
-0.218885
-0.198796
-0.210678
-0.228216
-0.202428
-0.162237
-0.131972
-0.143047
-0.706889
-0.620294
-0.417194
-0.377405
-0.303871
-0.323106
-0.266322
-0.22376
-0.197413
-0.199205
-0.21824
-0.206465
-0.173727
-0.143311
-0.149399
-0.687526
-0.602028
-0.425797
-0.390325
-0.335614
-0.343755
-0.274522
-0.225244
-0.193412
-0.186456
-0.205561
-0.207316
-0.180116
-0.146326
-0.145094
-0.154971
-0.158048
-0.139392
-0.122332
-0.129636
-0.15063
-0.149679
-0.124809
-0.105834
-0.118042
-0.122719
-0.102823
-0.103808
-0.120023
-0.109871
-0.0764327
-0.0646757
-0.0440677
-0.0249986
-0.0190291
-0.013807
-0.0104851
-0.00859477
-0.00780124
-0.00758994
-0.0069657
-0.00838123
-0.00947295
-0.0114243
-0.0114826
-0.0143816
-0.0173173
-0.0140004
-0.00739188
-0.00374927
0.00314077
0.00726567
0.00502877
-0.00302023
-0.0045749
-0.140306
-0.144868
-0.130341
-0.115443
-0.125096
-0.148614
-0.147771
-0.121012
-0.0982681
-0.108916
-0.114287
-0.0968177
-0.101667
-0.120663
-0.110407
-0.0743226
-0.0627622
-0.0424152
-0.0225051
-0.0180177
-0.0145898
-0.0108574
-0.00823201
-0.00786586
-0.0073569
-0.00615236
-0.00888107
-0.0104779
-0.00991482
-0.00881952
-0.0149321
-0.020075
-0.0139154
-0.00443879
-0.00136316
0.00282643
0.00578565
0.00456951
-0.00280973
-0.00443028
-0.128303
-0.13124
-0.11837
-0.102812
-0.111824
-0.136279
-0.13694
-0.110441
-0.0869343
-0.0969725
-0.103199
-0.0879027
-0.093999
-0.114837
-0.105412
-0.0697149
-0.0594788
-0.040028
-0.019732
-0.0169457
-0.0153315
-0.0112454
-0.00781267
-0.00787182
-0.00709705
-0.00527333
-0.00915113
-0.0112041
-0.00813513
-0.0058976
-0.01494
-0.0221379
-0.013481
-0.00154014
0.000973444
0.00259647
0.00441277
0.00413823
-0.00270197
-0.00437513
-0.117916
-0.117889
-0.104315
-0.0863104
-0.0915042
-0.114714
-0.118054
-0.0945806
-0.0737383
-0.0839394
-0.0909356
-0.0772877
-0.0817483
-0.103277
-0.0952871
-0.0631965
-0.0552301
-0.0370548
-0.0167534
-0.0157784
-0.0160001
-0.0116571
-0.00733444
-0.00779606
-0.00683089
-0.00437781
-0.0091626
-0.0116416
-0.00621899
-0.00291578
-0.014472
-0.0235059
-0.012763
0.00119823
0.00317279
0.00244976
0.00319886
0.00374951
-0.00269848
-0.00440545
-0.117419
-0.104869
-0.0889204
-0.0682262
-0.067821
-0.087182
-0.0943724
-0.0759547
-0.0601613
-0.0709778
-0.078613
-0.0659631
-0.0665186
-0.0876878
-0.0811491
-0.0553955
-0.0505366
-0.03365
-0.013666
-0.0144963
-0.0165626
-0.0120937
-0.00681081
-0.00764133
-0.00658236
-0.003531
-0.00892217
-0.0118223
-0.0043083
-8.9788e-05
-0.0136611
-0.0242427
-0.0118541
0.00367652
0.00515771
0.00237526
0.00218024
0.00340829
-0.00278741
-0.00450795
-0.101233
-0.0890161
-0.0729425
-0.0507937
-0.0445734
-0.0587183
-0.0697455
-0.0571766
-0.0472119
-0.0588501
-0.0670514
-0.0546238
-0.0501636
-0.0700056
-0.0647161
-0.046921
-0.0462067
-0.0299725
-0.0105651
-0.0131024
-0.0169731
-0.0125416
-0.00627308
-0.00740766
-0.00637231
-0.00279094
-0.00846922
-0.011793
-0.00255269
0.00241341
-0.0126521
-0.0244477
-0.0108522
0.00581277
0.00686264
0.00236076
0.00137235
0.00311241
-0.00294778
-0.0046608
-0.0804216
-0.0710342
-0.0574364
-0.0352917
-0.0243422
-0.0329777
-0.0468161
-0.0399139
-0.0354197
-0.0480873
-0.0565327
-0.0435541
-0.0344015
-0.0519506
-0.0475648
-0.0381868
-0.0404453
-0.0261683
-0.00755691
-0.0115526
-0.0171839
-0.0129763
-0.0057779
-0.00709737
-0.00621375
-0.00219319
-0.00786067
-0.0115937
-0.00107044
0.0044893
-0.0115668
-0.0242298
-0.00984306
0.00755204
0.00824071
0.00239199
0.000770129
0.00285707
-0.00314842
-0.00483922
-0.0594139
-0.0530284
-0.0430621
-0.0230198
-0.00848212
-0.0115696
-0.0258802
-0.0244626
-0.0249282
-0.0389256
-0.0469397
-0.0332566
-0.0204584
-0.0348164
-0.0307875
-0.0295787
-0.0347119
-0.0224553
-0.00476896
-0.0098269
-0.0171653
-0.0133687
-0.00548722
-0.00671333
-0.00610595
-0.00174977
-0.00715589
-0.0112667
7.49515e-05
0.00609459
-0.0104887
-0.0236868
-0.00888816
0.00886823
0.00927243
0.00245129
0.000353283
0.00263492
-0.00335294
-0.00501695
-0.0401723
-0.0366738
-0.0303931
-0.0138761
0.00265283
0.00454012
-0.00764956
-0.0108497
-0.0157614
-0.0310931
-0.0381011
-0.0241276
-0.00877742
-0.01947
-0.0153374
-0.021377
-0.029345
-0.0189779
-0.00229683
-0.0079759
-0.016907
-0.0136827
-0.00504827
-0.00625834
-0.00604042
-0.0014555
-0.00640656
-0.0108471
0.000872196
0.00723653
-0.00945655
-0.0228905
-0.00802177
0.00976406
0.0099661
0.00252304
9.23993e-05
0.00243544
-0.00352425
-0.00515324
-0.0250629
-0.0230708
-0.0198769
-0.00709969
0.0089325
0.0150266
0.00696417
0.000449519
-0.00792132
-0.0238704
-0.0297566
-0.0162529
0.000250615
-0.00641949
-0.00199682
-0.0135679
-0.0243066
-0.0157784
-0.000200346
-0.00609091
-0.0164161
-0.0138868
-0.00468759
-0.00576034
-0.00602418
-0.0012895
-0.00564989
-0.0103688
0.00134829
0.00795535
-0.00847089
-0.0218838
-0.00725461
0.0102675
0.0103519
0.00259699
-4.51629e-05
0.00225227
-0.00362972
-0.00521708
-0.011856
-0.0124167
-0.011679
-0.00224966
0.0116721
0.0203463
0.0162684
0.00869044
-0.00122461
-0.0165505
-0.0216161
-0.009649
0.00648065
0.00406901
0.00895167
-0.00612556
-0.0195598
-0.0128228
0.0014977
-0.00426241
-0.0156941
-0.0139574
-0.00445328
-0.00524404
-0.00591888
-0.00122844
-0.00491
-0.0098533
0.00155598
0.00830884
-0.00751023
-0.0206889
-0.00657859
0.0104256
0.0104746
0.0026689
-8.91468e-05
0.00208246