/*--------------------------------*- C++ -*----------------------------------*\
  =========                 |
  \\      /  F ield         | OpenFOAM: The Open Source CFD Toolbox
   \\    /   O peration     | Website:  https://openfoam.org
    \\  /    A nd           | Version:  7
     \\/     M anipulation  |
\*---------------------------------------------------------------------------*/
FoamFile
{
    version     2.0;
    format      ascii;
    class       volVectorField;
    location    "16";
    object      U;
}
// * * * * * * * * * * * * * * * * * * * * * * * * * * * * * * * * * * * * * //

dimensions      [0 1 -1 0 0 0 0];

internalField   nonuniform List<vector> 
2413
(
(2 -8.39484e-15 0)
(2 -5.57154e-15 0)
(2 -5.26797e-15 0)
(2 -6.20085e-15 0)
(2 -6.98362e-15 0)
(2 -8.63411e-15 0)
(2 -9.61453e-15 0)
(2 -1.13008e-14 0)
(2 -1.14184e-14 0)
(2 -1.15531e-14 0)
(2 -1.13054e-14 0)
(2 -1.08964e-14 0)
(2 -1.06799e-14 0)
(2 -1.10797e-14 0)
(2 -1.10058e-14 0)
(2 -1.15899e-14 0)
(2 -1.23078e-14 0)
(2 -1.40416e-14 0)
(2 -1.42634e-14 0)
(2 -1.30848e-14 0)
(2 -1.09288e-14 0)
(2 -1.07661e-14 0)
(2 -9.52162e-15 0)
(2 -7.37302e-15 0)
(2 -6.54068e-15 0)
(2 -7.08784e-15 0)
(2 -7.94092e-15 0)
(2 -8.58734e-15 0)
(2 -9.11925e-15 0)
(2 -1.26155e-14 0)
(2 -2.24845e-14 0)
(2 -5.2465e-14 0)
(2 -1.22009e-13 0)
(2 -5.06548e-13 0)
(2 -7.80995e-13 0)
(2 -2.89732e-12 0)
(2 -5.00393e-12 0)
(2 -9.20516e-12 0)
(2 -2.15286e-11 0)
(2 -2.3653e-11 0)
(2 -4.35698e-11 0)
(2 -6.98066e-11 0)
(2 1.18195e-11 0)
(2 1.03738e-09 0)
(2 1.05606e-08 0)
(2 7.96905e-08 0)
(2 4.83405e-07 0)
(2 2.44672e-06 0)
(1.99999 1.0192e-05 0)
(1.99998 3.62966e-05 0)
(1.99993 0.000107094 0)
(1.99984 0.000280025 0)
(1.99965 0.000617543 0)
(1.99933 0.00122933 0)
(1.99885 0.0021978 0)
(1.99828 0.00347356 0)
(1.99753 0.00520967 0)
(1.99691 0.00683533 0)
(1.99606 0.00888653 0)
(1.99552 0.0105991 0)
(1.99483 0.0127804 0)
(1.99459 0.0145423 0)
(1.99458 0.0155975 0)
(1.99487 0.0157621 0)
(1.99538 0.0154799 0)
(1.99615 0.0156886 0)
(1.99639 0.0157339 0)
(1.99674 0.0160173 0)
(1.99709 0.0160824 0)
(1.99786 0.0153672 0)
(1.99897 0.0142344 0)
(1.99978 0.0130617 0)
(2.00057 0.0123752 0)
(2.0014 0.0116539 0)
(2.00227 0.0105057 0)
(2.00309 0.00924551 0)
(2.004 0.00792137 0)
(2.00509 0.0063637 0)
(2.0063 0.0043861 0)
(2 -7.47904e-15 0)
(2 -9.78385e-15 0)
(2 -1.06671e-14 0)
(2 -1.11934e-14 0)
(2 -1.13937e-14 0)
(2 -1.18156e-14 0)
(2 -1.21969e-14 0)
(2 -1.21368e-14 0)
(2 -1.18447e-14 0)
(2 -1.0578e-14 0)
(2 -9.69617e-15 0)
(2 -9.22695e-15 0)
(2 -1.02966e-14 0)
(2 -1.20968e-14 0)
(2 -1.29395e-14 0)
(2 -1.45723e-14 0)
(2 -1.5643e-14 0)
(2 -1.39193e-14 0)
(2 -1.40856e-14 0)
(2 -1.28412e-14 0)
(2 -1.22383e-14 0)
(2 -1.16099e-14 0)
(2 -1.10793e-14 0)
(2 -9.94929e-15 0)
(2 -9.32005e-15 0)
(2 -1.00028e-14 0)
(2 -1.15546e-14 0)
(2 -1.35104e-14 0)
(2 -1.31232e-14 0)
(2 -1.25179e-14 0)
(2 -1.23149e-14 0)
(2 -1.04538e-14 0)
(2 -8.09759e-15 0)
(2 -6.63664e-15 0)
(2 -4.32017e-15 0)
(2 -2.52975e-15 0)
(2 -2.84537e-15 0)
(2 -3.75847e-15 0)
(2 -4.60315e-15 0)
(2 -5.23779e-15 0)
(2 -8.56928e-15 0)
(2 -2.96524e-14 0)
(2 -1.11405e-13 0)
(2 -4.10999e-13 0)
(2 -7.91324e-13 0)
(2 -3.23609e-12 0)
(2 -4.85894e-12 0)
(2 -1.38304e-11 0)
(2 -2.47984e-11 0)
(2 -4.11539e-11 0)
(2 -8.90982e-11 0)
(2 -9.49809e-11 0)
(2 -1.62905e-10 0)
(2 -2.44088e-10 0)
(2 -3.95549e-12 0)
(2 2.75744e-09 0)
(2 2.55076e-08 0)
(2 1.71406e-07 0)
(2 9.20903e-07 0)
(2 4.18295e-06 0)
(1.99999 1.55807e-05 0)
(1.99997 5.06046e-05 0)
(1.99992 0.000138845 0)
(1.99982 0.000331758 0)
(1.99963 0.00070369 0)
(1.99935 0.00129314 0)
(1.99893 0.00221534 0)
(1.99843 0.00337031 0)
(1.99783 0.0048849 0)
(1.99731 0.00639235 0)
(1.99678 0.00807258 0)
(1.99655 0.00926991 0)
(1.99595 0.0110635 0)
(1.99582 0.0121607 0)
(1.99581 0.0134443 0)
(1.99596 0.013879 0)
(1.99653 0.01352 0)
(1.99725 0.0130938 0)
(1.99762 0.0128988 0)
(1.99808 0.0128879 0)
(1.99865 0.0128162 0)
(1.99923 0.0123784 0)
(2.00012 0.0113932 0)
(2.00096 0.0102265 0)
(2.00168 0.00920897 0)
(2.00248 0.00841071 0)
(2.00332 0.00740987 0)
(2.00412 0.00623003 0)
(2 -6.69461e-15 0)
(2 -7.73638e-15 0)
(2 -8.14633e-15 0)
(2 -1.02989e-14 0)
(2 -1.02046e-14 0)
(2 -7.90683e-15 0)
(2 -6.42363e-15 0)
(2 -7.44046e-15 0)
(2 -7.90256e-15 0)
(2 -8.27302e-15 0)
(2 -9.89179e-15 0)
(2 -1.19479e-14 0)
(2 -1.27631e-14 0)
(2 -1.3903e-14 0)
(2 -1.61694e-14 0)
(2 -1.83487e-14 0)
(2 -1.85471e-14 0)
(2 -1.81515e-14 0)
(2 -1.7356e-14 0)
(2 -1.50546e-14 0)
(2 -1.39161e-14 0)
(2 -1.32434e-14 0)
(2 -1.23805e-14 0)
(2 -1.23165e-14 0)
(2 -1.20948e-14 0)
(2 -1.16088e-14 0)
(2 -1.09464e-14 0)
(2 -9.86931e-15 0)
(2 -1.06208e-14 0)
(2 -1.16389e-14 0)
(2 -1.2113e-14 0)
(2 -1.16081e-14 0)
(2 -9.96157e-15 0)
(2 -8.07964e-15 0)
(2 -4.67184e-15 0)
(2 -1.79696e-15 0)
(2 -1.02553e-15 0)
(2 -1.1982e-15 0)
(2 -2.81034e-15 0)
(2 -1.826e-16 0)
(2 1.97985e-15 0)
(2 4.00812e-15 0)
(2 -1.68284e-15 0)
(2 -5.62477e-14 0)
(2 -2.21613e-13 0)
(2 -7.40505e-13 0)
(2 -2.46866e-12 0)
(2 -4.67645e-12 0)
(2 -1.579e-11 0)
(2 -2.27134e-11 0)
(2 -5.91726e-11 0)
(2 -9.74335e-11 0)
(2 -1.54774e-10 0)
(2 -3.08197e-10 0)
(2 -3.46027e-10 0)
(2 -5.51601e-10 0)
(2 -7.82445e-10 0)
(2 -3.60566e-10 0)
(2 4.8494e-09 0)
(2 4.37258e-08 0)
(2 2.70747e-07 0)
(2 1.33295e-06 0)
(2 5.52882e-06 0)
(1.99999 1.92771e-05 0)
(1.99997 5.71258e-05 0)
(1.99992 0.000148684 0)
(1.99983 0.000333794 0)
(1.99966 0.000680376 0)
(1.99943 0.00121946 0)
(1.9991 0.00200615 0)
(1.99871 0.00299983 0)
(1.99828 0.00419639 0)
(1.99783 0.00550363 0)
(1.99757 0.00661441 0)
(1.99721 0.00799757 0)
(1.99723 0.00880904 0)
(1.99697 0.00998842 0)
(1.99708 0.0105977 0)
(1.9971 0.0111864 0)
(1.99771 0.0110613 0)
(1.99814 0.0107178 0)
(1.99867 0.0102379 0)
(1.99919 0.0097869 0)
(1.99971 0.0096209 0)
(2.00037 0.00914494 0)
(2.00125 0.00814382 0)
(2.00197 0.0072709 0)
(2.00273 0.00634397 0)
(2 -9.84903e-15 0)
(2 -9.92815e-15 0)
(2 -9.5028e-15 0)
(2 -1.01933e-14 0)
(2 -1.08521e-14 0)
(2 -9.79582e-15 0)
(2 -9.87799e-15 0)
(2 -1.18041e-14 0)
(2 -1.22557e-14 0)
(2 -1.23573e-14 0)
(2 -1.45142e-14 0)
(2 -1.89136e-14 0)
(2 -2.03229e-14 0)
(2 -1.97176e-14 0)
(2 -1.84795e-14 0)
(2 -1.78984e-14 0)
(2 -1.8268e-14 0)
(2 -1.79619e-14 0)
(2 -1.70276e-14 0)
(2 -1.59759e-14 0)
(2 -1.50445e-14 0)
(2 -1.52137e-14 0)
(2 -1.53937e-14 0)
(2 -1.54709e-14 0)
(2 -1.49885e-14 0)
(2 -1.32408e-14 0)
(2 -1.2155e-14 0)
(2 -1.11177e-14 0)
(2 -1.12607e-14 0)
(2 -1.20656e-14 0)
(2 -1.14781e-14 0)
(2 -1.06881e-14 0)
(2 -1.02649e-14 0)
(2 -8.46356e-15 0)
(2 -9.14569e-15 0)
(2 -7.96027e-15 0)
(2 -5.57843e-15 0)
(2 -4.51839e-15 0)
(2 -4.67488e-15 0)
(2 -1.63165e-15 0)
(2 1.65025e-15 0)
(2 7.58744e-15 0)
(2 1.16625e-14 0)
(2 1.68587e-14 0)
(2 4.4071e-15 0)
(2 -6.61488e-14 0)
(2 -4.39901e-13 0)
(2 -1.34631e-12 0)
(2 -4.08719e-12 0)
(2 -1.20803e-11 0)
(2 -2.0605e-11 0)
(2 -6.49568e-11 0)
(2 -9.04137e-11 0)
(2 -2.12711e-10 0)
(2 -3.34496e-10 0)
(2 -5.2764e-10 0)
(2 -9.37852e-10 0)
(2 -1.12123e-09 0)
(2 -1.71323e-09 0)
(2 -2.3441e-09 0)
(2 -2.01634e-09 0)
(2 4.65129e-09 0)
(2 5.40298e-08 0)
(2 3.17909e-07 0)
(2 1.47624e-06 0)
(2 5.7245e-06 0)
(1.99999 1.90367e-05 0)
(1.99997 5.40328e-05 0)
(1.99993 0.000134307 0)
(1.99986 0.000292293 0)
(1.99974 0.000566373 0)
(1.99955 0.00100392 0)
(1.99932 0.00160351 0)
(1.99904 0.00240863 0)
(1.99873 0.00333701 0)
(1.99849 0.00425062 0)
(1.99818 0.00533352 0)
(1.99816 0.0060189 0)
(1.99797 0.00696684 0)
(1.99811 0.00747175 0)
(1.9981 0.00803013 0)
(1.9984 0.00830872 0)
(1.99863 0.00821417 0)
(1.99905 0.00792087 0)
(1.99957 0.00748896 0)
(2.00005 0.0070426 0)
(2.00075 0.00619899 0)
(2.00137 0.00554715 0)
(2 -7.84575e-15 0)
(2 -8.3621e-15 0)
(2 -9.32726e-15 0)
(2 -9.41797e-15 0)
(2 -1.0303e-14 0)
(2 -1.51671e-14 0)
(2 -1.68797e-14 0)
(2 -1.75868e-14 0)
(2 -1.86519e-14 0)
(2 -1.98299e-14 0)
(2 -1.92233e-14 0)
(2 -1.80241e-14 0)
(2 -1.81e-14 0)
(2 -1.7715e-14 0)
(2 -1.627e-14 0)
(2 -1.5444e-14 0)
(2 -1.52441e-14 0)
(2 -1.50282e-14 0)
(2 -1.3908e-14 0)
(2 -1.26975e-14 0)
(2 -1.19699e-14 0)
(2 -1.21341e-14 0)
(2 -1.20464e-14 0)
(2 -1.17168e-14 0)
(2 -1.05193e-14 0)
(2 -1.02014e-14 0)
(2 -1.04391e-14 0)
(2 -1.06119e-14 0)
(2 -1.16748e-14 0)
(2 -1.12568e-14 0)
(2 -9.98288e-15 0)
(2 -9.27103e-15 0)
(2 -1.10028e-14 0)
(2 -1.12664e-14 0)
(2 -1.11337e-14 0)
(2 -1.05811e-14 0)
(2 -1.00708e-14 0)
(2 -8.94969e-15 0)
(2 -5.70971e-15 0)
(2 -1.70912e-15 0)
(2 -8.77409e-16 0)
(2 6.34928e-15 0)
(2 9.9578e-15 0)
(2 2.09268e-14 0)
(2 3.78739e-14 0)
(2 4.82754e-14 0)
(2 3.02312e-14 0)
(2 -1.15387e-13 0)
(2 -5.31143e-13 0)
(2 -2.43057e-12 0)
(2 -6.62169e-12 0)
(2 -1.74982e-11 0)
(2 -4.68976e-11 0)
(2 -8.36571e-11 0)
(2 -2.16261e-10 0)
(2 -3.1583e-10 0)
(2 -6.72226e-10 0)
(2 -1.04645e-09 0)
(2 -1.48648e-09 0)
(2 -2.67751e-09 0)
(2 -3.45803e-09 0)
(2 -4.63388e-09 0)
(2 -6.49942e-09 0)
(2 -7.77656e-09 0)
(2 -1.99226e-09 0)
(2 4.2416e-08 0)
(2 2.81007e-07 0)
(2 1.27612e-06 0)
(2 4.73757e-06 0)
(1.99999 1.5013e-05 0)
(1.99998 4.16206e-05 0)
(1.99995 0.000100369 0)
(1.9999 0.000217738 0)
(1.99982 0.000416214 0)
(1.9997 0.000719129 0)
(1.99954 0.00116311 0)
(1.99937 0.00169067 0)
(1.99919 0.00235396 0)
(1.999 0.00307631 0)
(1.99893 0.00365427 0)
(1.99878 0.0043831 0)
(1.99887 0.00478471 0)
(1.99887 0.0052157 0)
(1.99908 0.005519 0)
(1.99927 0.00548185 0)
(1.99952 0.00538108 0)
(1.9998 0.00519862 0)
(2.00027 0.0046567 0)
(2 -1.08448e-14 0)
(2 -9.95473e-15 0)
(2 -9.34546e-15 0)
(2 -8.34147e-15 0)
(2 -9.03289e-15 0)
(2 -1.09955e-14 0)
(2 -1.30458e-14 0)
(2 -1.40012e-14 0)
(2 -1.47573e-14 0)
(2 -1.68684e-14 0)
(2 -1.65887e-14 0)
(2 -1.58442e-14 0)
(2 -1.49204e-14 0)
(2 -1.47218e-14 0)
(2 -1.41956e-14 0)
(2 -1.29739e-14 0)
(2 -1.15901e-14 0)
(2 -1.08169e-14 0)
(2 -1.06016e-14 0)
(2 -1.01738e-14 0)
(2 -9.11459e-15 0)
(2 -6.61e-15 0)
(2 -5.34438e-15 0)
(2 -5.62514e-15 0)
(2 -7.02595e-15 0)
(2 -7.76893e-15 0)
(2 -8.95411e-15 0)
(2 -1.0372e-14 0)
(2 -1.07086e-14 0)
(2 -1.05986e-14 0)
(2 -1.08885e-14 0)
(2 -1.08705e-14 0)
(2 -1.15106e-14 0)
(2 -1.22741e-14 0)
(2 -1.18479e-14 0)
(2 -1.13052e-14 0)
(2 -1.07501e-14 0)
(2 -9.57882e-15 0)
(2 -7.06922e-15 0)
(2 -4.91801e-15 0)
(2 -5.32988e-15 0)
(2 -2.31263e-16 0)
(2 4.09033e-15 0)
(2 1.26916e-14 0)
(2 3.01194e-14 0)
(2 5.89018e-14 0)
(2 6.38318e-14 0)
(2 9.317e-14 0)
(2 8.30532e-14 0)
(2 -4.09259e-14 0)
(2 -7.90867e-13 0)
(2 -2.67953e-12 0)
(2 -9.97998e-12 0)
(2 -2.53318e-11 0)
(2 -6.48963e-11 0)
(2 -1.56018e-10 0)
(2 -2.655e-10 0)
(2 -6.76349e-10 0)
(2 -9.64269e-10 0)
(2 -1.77208e-09 0)
(2 -3.19025e-09 0)
(2 -3.88179e-09 0)
(2 -7.00211e-09 0)
(2 -9.53216e-09 0)
(2 -1.17352e-08 0)
(2 -1.69136e-08 0)
(2 -1.97226e-08 0)
(2 -2.13737e-08 0)
(2 4.14111e-09 0)
(2 1.57255e-07 0)
(2 8.06261e-07 0)
(2 3.06621e-06 0)
(2 9.59059e-06 0)
(1.99999 2.60646e-05 0)
(1.99997 6.25457e-05 0)
(1.99994 0.00013202 0)
(1.9999 0.000256339 0)
(1.99983 0.000443213 0)
(1.99975 0.000700281 0)
(1.99965 0.00104916 0)
(1.99955 0.00142587 0)
(1.99947 0.00185841 0)
(1.9994 0.00229746 0)
(1.99944 0.00259091 0)
(1.99943 0.00293759 0)
(1.99958 0.00315009 0)
(1.99975 0.00307121 0)
(1.99989 0.0030026 0)
(2 -1.08969e-14 0)
(2 -9.593e-15 0)
(2 -8.60071e-15 0)
(2 -7.37922e-15 0)
(2 -7.6048e-15 0)
(2 -8.23613e-15 0)
(2 -8.39024e-15 0)
(2 -8.62214e-15 0)
(2 -9.03971e-15 0)
(2 -1.11115e-14 0)
(2 -1.34346e-14 0)
(2 -1.33859e-14 0)
(2 -1.25073e-14 0)
(2 -1.25789e-14 0)
(2 -1.26555e-14 0)
(2 -1.16101e-14 0)
(2 -1.0326e-14 0)
(2 -8.99058e-15 0)
(2 -8.95703e-15 0)
(2 -8.79212e-15 0)
(2 -7.39333e-15 0)
(2 -6.10848e-15 0)
(2 -5.45187e-15 0)
(2 -4.96463e-15 0)
(2 -5.47926e-15 0)
(2 -5.85353e-15 0)
(2 -7.24307e-15 0)
(2 -8.35167e-15 0)
(2 -8.58531e-15 0)
(2 -9.33698e-15 0)
(2 -9.63261e-15 0)
(2 -1.04831e-14 0)
(2 -1.15549e-14 0)
(2 -1.09793e-14 0)
(2 -1.12006e-14 0)
(2 -1.19756e-14 0)
(2 -1.16989e-14 0)
(2 -1.09277e-14 0)
(2 -1.07205e-14 0)
(2 -9.79019e-15 0)
(2 -8.00413e-15 0)
(2 -6.04941e-15 0)
(2 -1.81215e-15 0)
(2 5.41915e-15 0)
(2 1.38532e-14 0)
(2 4.10133e-14 0)
(2 5.21957e-14 0)
(2 9.06853e-14 0)
(2 1.36887e-13 0)
(2 1.65222e-13 0)
(2 2.08218e-13 0)
(2 9.38182e-14 0)
(2 -4.93853e-13 0)
(2 -3.39364e-12 0)
(2 -1.00289e-11 0)
(2 -3.33613e-11 0)
(2 -8.91415e-11 0)
(2 -1.76296e-10 0)
(2 -4.99122e-10 0)
(2 -7.67752e-10 0)
(2 -1.66406e-09 0)
(2 -2.978e-09 0)
(2 -4.16904e-09 0)
(2 -8.21099e-09 0)
(2 -1.02257e-08 0)
(2 -1.62328e-08 0)
(2 -2.34709e-08 0)
(2 -2.82639e-08 0)
(2 -3.90513e-08 0)
(2 -4.81081e-08 0)
(2 -5.86365e-08 0)
(2 -6.11069e-08 0)
(2 -5.16482e-10 0)
(2 2.99494e-07 0)
(2 1.36416e-06 0)
(2 4.52446e-06 0)
(1.99999 1.24174e-05 0)
(1.99999 2.98488e-05 0)
(1.99997 6.40049e-05 0)
(1.99995 0.000122237 0)
(1.99992 0.000216303 0)
(1.99989 0.000345677 0)
(1.99985 0.000509852 0)
(1.99981 0.000710442 0)
(1.99978 0.00090107 0)
(1.99979 0.00110251 0)
(1.99982 0.00126858 0)
(1.99992 0.00129912 0)
(2 -8.80837e-15 0)
(2 -8.84074e-15 0)
(2 -9.66914e-15 0)
(2 -1.15328e-14 0)
(2 -1.12808e-14 0)
(2 -1.07149e-14 0)
(2 -1.05817e-14 0)
(2 -1.0699e-14 0)
(2 -1.07873e-14 0)
(2 -1.02581e-14 0)
(2 -1.08584e-14 0)
(2 -1.11623e-14 0)
(2 -1.12954e-14 0)
(2 -1.14588e-14 0)
(2 -1.16617e-14 0)
(2 -1.11492e-14 0)
(2 -1.05587e-14 0)
(2 -9.16178e-15 0)
(2 -7.36239e-15 0)
(2 -6.82342e-15 0)
(2 -8.24548e-15 0)
(2 -8.70181e-15 0)
(2 -9.18764e-15 0)
(2 -8.68666e-15 0)
(2 -8.04577e-15 0)
(2 -8.51827e-15 0)
(2 -8.73545e-15 0)
(2 -9.39767e-15 0)
(2 -1.07539e-14 0)
(2 -1.0748e-14 0)
(2 -1.07866e-14 0)
(2 -1.13901e-14 0)
(2 -1.25332e-14 0)
(2 -1.22671e-14 0)
(2 -1.26151e-14 0)
(2 -1.29265e-14 0)
(2 -1.38885e-14 0)
(2 -1.50368e-14 0)
(2 -1.52426e-14 0)
(2 -1.36512e-14 0)
(2 -1.13031e-14 0)
(2 -9.47374e-15 0)
(2 -6.56995e-15 0)
(2 -2.80554e-15 0)
(2 7.57809e-16 0)
(2 9.81116e-15 0)
(2 3.4419e-14 0)
(2 4.93893e-14 0)
(2 1.17719e-13 0)
(2 1.63235e-13 0)
(2 2.37543e-13 0)
(2 3.29522e-13 0)
(2 3.88646e-13 0)
(2 3.83895e-13 0)
(2 -8.76142e-14 0)
(2 -2.06189e-12 0)
(2 -1.04129e-11 0)
(2 -3.51491e-11 0)
(2 -8.41048e-11 0)
(2 -2.67655e-10 0)
(2 -4.73588e-10 0)
(2 -1.19013e-09 0)
(2 -2.17204e-09 0)
(2 -3.688e-09 0)
(2 -7.5585e-09 0)
(2 -9.7706e-09 0)
(2 -1.82092e-08 0)
(2 -2.42695e-08 0)
(2 -3.48679e-08 0)
(2 -4.96068e-08 0)
(2 -6.7214e-08 0)
(2 -8.04352e-08 0)
(2 -1.07219e-07 0)
(2 -1.33851e-07 0)
(2 -1.4709e-07 0)
(2 -1.68582e-07 0)
(2 -1.06205e-07 0)
(2 2.16661e-07 0)
(2 1.23322e-06 0)
(2 3.89906e-06 0)
(2 9.86196e-06 0)
(1.99999 2.16567e-05 0)
(1.99999 4.24405e-05 0)
(1.99998 7.40821e-05 0)
(1.99997 0.000119371 0)
(1.99996 0.000175641 0)
(1.99995 0.000237578 0)
(1.99997 0.000285243 0)
(2 -1.29954e-14 0)
(2 -1.35617e-14 0)
(2 -1.35055e-14 0)
(2 -1.36121e-14 0)
(2 -1.30785e-14 0)
(2 -1.22527e-14 0)
(2 -1.19943e-14 0)
(2 -1.22316e-14 0)
(2 -1.38184e-14 0)
(2 -1.33457e-14 0)
(2 -1.12106e-14 0)
(2 -1.08803e-14 0)
(2 -1.13814e-14 0)
(2 -1.19099e-14 0)
(2 -1.08099e-14 0)
(2 -9.31598e-15 0)
(2 -8.20167e-15 0)
(2 -8.80205e-15 0)
(2 -9.48637e-15 0)
(2 -9.98404e-15 0)
(2 -1.04658e-14 0)
(2 -1.05808e-14 0)
(2 -9.82027e-15 0)
(2 -8.41124e-15 0)
(2 -8.02858e-15 0)
(2 -7.01263e-15 0)
(2 -6.88517e-15 0)
(2 -7.50452e-15 0)
(2 -9.22634e-15 0)
(2 -9.98317e-15 0)
(2 -1.16317e-14 0)
(2 -1.31717e-14 0)
(2 -1.41302e-14 0)
(2 -1.43628e-14 0)
(2 -1.37924e-14 0)
(2 -1.39788e-14 0)
(2 -1.55538e-14 0)
(2 -1.67807e-14 0)
(2 -1.66591e-14 0)
(2 -1.58491e-14 0)
(2 -1.62701e-14 0)
(2 -1.58566e-14 0)
(2 -1.38786e-14 0)
(2 -1.1826e-14 0)
(2 -7.50332e-15 0)
(2 -3.32911e-15 0)
(2 3.23063e-15 0)
(2 2.22929e-14 0)
(2 3.65954e-14 0)
(2 1.15576e-13 0)
(2 1.64909e-13 0)
(2 2.67009e-13 0)
(2 4.32336e-13 0)
(2 5.96543e-13 0)
(2 7.37101e-13 0)
(2 9.60764e-13 0)
(2 8.43972e-13 0)
(2 -4.96526e-13 0)
(2 -6.98095e-12 0)
(2 -2.4364e-11 0)
(2 -9.39237e-11 0)
(2 -2.07515e-10 0)
(2 -5.88187e-10 0)
(2 -1.22959e-09 0)
(2 -2.36227e-09 0)
(2 -5.35855e-09 0)
(2 -7.70268e-09 0)
(2 -1.55551e-08 0)
(2 -2.27359e-08 0)
(2 -3.35417e-08 0)
(2 -5.46088e-08 0)
(2 -7.02843e-08 0)
(2 -9.35933e-08 0)
(2 -1.38772e-07 0)
(2 -1.58887e-07 0)
(2 -1.94573e-07 0)
(2 -2.60714e-07 0)
(2 -2.85214e-07 0)
(2 -3.26581e-07 0)
(2 -3.75585e-07 0)
(2 -3.65621e-07 0)
(2 -1.97258e-07 0)
(2 3.40383e-07 0)
(2 1.57491e-06 0)
(2 3.98699e-06 0)
(2 8.22104e-06 0)
(1.99999 1.45485e-05 0)
(1.99999 1.94142e-05 0)
(2 -1.20807e-14 0)
(2 -1.17171e-14 0)
(2 -1.10027e-14 0)
(2 -1.03306e-14 0)
(2 -1.00284e-14 0)
(2 -9.84045e-15 0)
(2 -9.76613e-15 0)
(2 -1.04713e-14 0)
(2 -1.17407e-14 0)
(2 -1.19032e-14 0)
(2 -1.14686e-14 0)
(2 -1.04328e-14 0)
(2 -8.81617e-15 0)
(2 -8.43551e-15 0)
(2 -7.12056e-15 0)
(2 -7.02992e-15 0)
(2 -6.54181e-15 0)
(2 -6.24979e-15 0)
(2 -6.26895e-15 0)
(2 -6.82939e-15 0)
(2 -6.18797e-15 0)
(2 -5.73908e-15 0)
(2 -5.37761e-15 0)
(2 -5.00067e-15 0)
(2 -5.23541e-15 0)
(2 -5.36916e-15 0)
(2 -6.01047e-15 0)
(2 -5.79802e-15 0)
(2 -5.45989e-15 0)
(2 -5.80284e-15 0)
(2 -7.80528e-15 0)
(2 -1.10036e-14 0)
(2 -1.14842e-14 0)
(2 -1.11776e-14 0)
(2 -1.14017e-14 0)
(2 -1.19115e-14 0)
(2 -1.39239e-14 0)
(2 -1.47878e-14 0)
(2 -1.45902e-14 0)
(2 -1.60794e-14 0)
(2 -1.64559e-14 0)
(2 -1.62998e-14 0)
(2 -1.60238e-14 0)
(2 -1.45401e-14 0)
(2 -1.33651e-14 0)
(2 -1.14434e-14 0)
(2 -8.85353e-15 0)
(2 -1.22701e-15 0)
(2 1.20431e-14 0)
(2 2.54277e-14 0)
(2 8.90679e-14 0)
(2 1.41396e-13 0)
(2 2.78838e-13 0)
(2 5.08073e-13 0)
(2 6.71534e-13 0)
(2 9.70792e-13 0)
(2 1.43107e-12 0)
(2 1.76927e-12 0)
(2 2.14677e-12 0)
(2 1.92743e-12 0)
(2 -7.99498e-13 0)
(2 -1.51011e-11 0)
(2 -5.28905e-11 0)
(2 -1.7615e-10 0)
(2 -4.74271e-10 0)
(2 -1.03811e-09 0)
(2 -2.65822e-09 0)
(2 -4.63421e-09 0)
(2 -9.49933e-09 0)
(2 -1.68664e-08 0)
(2 -2.57106e-08 0)
(2 -4.5494e-08 0)
(2 -6.40131e-08 0)
(2 -9.29614e-08 0)
(2 -1.34085e-07 0)
(2 -1.66787e-07 0)
(2 -2.35494e-07 0)
(2 -2.69902e-07 0)
(2 -3.27485e-07 0)
(2 -3.85249e-07 0)
(2 -4.34881e-07 0)
(2 -4.70218e-07 0)
(2 -4.67898e-07 0)
(2 -4.38872e-07 0)
(2 -4.06054e-07 0)
(2 -2.12465e-07 0)
(2 2.6131e-07 0)
(2 5.1104e-07 0)
(2 -8.59741e-15 0)
(2 -8.00595e-15 0)
(2 -8.56741e-15 0)
(2 -9.62379e-15 0)
(2 -8.8824e-15 0)
(2 -7.73463e-15 0)
(2 -7.94567e-15 0)
(2 -8.55254e-15 0)
(2 -8.97201e-15 0)
(2 -9.36605e-15 0)
(2 -9.00217e-15 0)
(2 -8.68949e-15 0)
(2 -8.80741e-15 0)
(2 -5.35109e-15 0)
(2 -5.14974e-15 0)
(2 -6.07255e-15 0)
(2 -6.71507e-15 0)
(2 -5.31858e-15 0)
(2 -4.18992e-15 0)
(2 -3.76576e-15 0)
(2 -4.34364e-15 0)
(2 -4.68534e-15 0)
(2 -5.32846e-15 0)
(2 -6.05182e-15 0)
(2 -6.69145e-15 0)
(2 -7.60956e-15 0)
(2 -7.2336e-15 0)
(2 -5.99316e-15 0)
(2 -4.59276e-15 0)
(2 -5.75561e-15 0)
(2 -7.26165e-15 0)
(2 -9.31094e-15 0)
(2 -1.07452e-14 0)
(2 -1.19972e-14 0)
(2 -1.26783e-14 0)
(2 -1.3314e-14 0)
(2 -1.34233e-14 0)
(2 -1.27626e-14 0)
(2 -1.28604e-14 0)
(2 -1.38125e-14 0)
(2 -1.40621e-14 0)
(2 -1.43041e-14 0)
(2 -1.52597e-14 0)
(2 -1.55363e-14 0)
(2 -1.59878e-14 0)
(2 -1.56815e-14 0)
(2 -1.42294e-14 0)
(2 -1.29727e-14 0)
(2 -1.09086e-14 0)
(2 -3.13426e-15 0)
(2 1.15562e-14 0)
(2 5.49823e-14 0)
(2 1.11859e-13 0)
(2 2.28542e-13 0)
(2 4.76846e-13 0)
(2 7.24342e-13 0)
(2 1.06613e-12 0)
(2 1.86723e-12 0)
(2 2.29581e-12 0)
(2 3.04209e-12 0)
(2 4.08925e-12 0)
(2 4.98677e-12 0)
(2 4.91952e-12 0)
(2 4.73798e-13 0)
(2 -2.00813e-11 0)
(2 -9.18482e-11 0)
(2 -2.72881e-10 0)
(2 -7.9715e-10 0)
(2 -1.81348e-09 0)
(2 -3.95969e-09 0)
(2 -8.3535e-09 0)
(2 -1.46212e-08 0)
(2 -2.72314e-08 0)
(2 -4.4222e-08 0)
(2 -6.87257e-08 0)
(2 -1.03714e-07 0)
(2 -1.47004e-07 0)
(2 -2.0627e-07 0)
(2 -2.54922e-07 0)
(2 -3.20236e-07 0)
(2 -3.6828e-07 0)
(2 -3.97211e-07 0)
(2 -3.97916e-07 0)
(2 -3.9186e-07 0)
(2 -3.10424e-07 0)
(2 -2.1049e-07 0)
(2 9.74643e-08 0)
(2 6.68035e-07 0)
(2 -1.17652e-14 0)
(2 -1.13404e-14 0)
(2 -1.10069e-14 0)
(2 -1.09489e-14 0)
(2 -1.01023e-14 0)
(2 -9.85713e-15 0)
(2 -9.51203e-15 0)
(2 -8.53726e-15 0)
(2 -8.14473e-15 0)
(2 -7.64758e-15 0)
(2 -7.56691e-15 0)
(2 -7.02941e-15 0)
(2 -7.11689e-15 0)
(2 -5.94314e-15 0)
(2 -6.29148e-15 0)
(2 -5.65235e-15 0)
(2 -5.5482e-15 0)
(2 -5.74586e-15 0)
(2 -5.35942e-15 0)
(2 -4.81584e-15 0)
(2 -7.11864e-15 0)
(2 -7.30135e-15 0)
(2 -7.24419e-15 0)
(2 -6.11591e-15 0)
(2 -4.38374e-15 0)
(2 -4.71459e-15 0)
(2 -4.30008e-15 0)
(2 -3.9382e-15 0)
(2 -6.1119e-15 0)
(2 -7.88534e-15 0)
(2 -9.11921e-15 0)
(2 -9.62262e-15 0)
(2 -1.02907e-14 0)
(2 -1.08733e-14 0)
(2 -1.22821e-14 0)
(2 -1.29615e-14 0)
(2 -1.20502e-14 0)
(2 -1.16113e-14 0)
(2 -1.21877e-14 0)
(2 -1.15748e-14 0)
(2 -1.22456e-14 0)
(2 -1.4835e-14 0)
(2 -1.67708e-14 0)
(2 -1.76692e-14 0)
(2 -1.82374e-14 0)
(2 -1.76745e-14 0)
(2 -1.61741e-14 0)
(2 -1.66325e-14 0)
(2 -1.69052e-14 0)
(2 -1.53662e-14 0)
(2 -1.22764e-14 0)
(2 -5.18739e-15 0)
(2 1.67675e-14 0)
(2 6.60043e-14 0)
(2 1.39651e-13 0)
(2 3.71457e-13 0)
(2 6.20525e-13 0)
(2 1.02504e-12 0)
(2 1.91079e-12 0)
(2 2.61915e-12 0)
(2 3.70077e-12 0)
(2 5.62235e-12 0)
(2 7.34265e-12 0)
(2 8.72763e-12 0)
(2 1.17927e-11 0)
(2 1.37067e-11 0)
(2 9.67409e-12 0)
(2 -1.32086e-11 0)
(2 -9.87338e-11 0)
(2 -3.4084e-10 0)
(2 -9.40561e-10 0)
(2 -2.37131e-09 0)
(2 -5.10147e-09 0)
(2 -1.05589e-08 0)
(2 -1.97295e-08 0)
(2 -3.48283e-08 0)
(2 -5.73781e-08 0)
(2 -8.90582e-08 0)
(2 -1.31705e-07 0)
(2 -1.83217e-07 0)
(2 -2.35821e-07 0)
(2 -2.83676e-07 0)
(2 -2.91156e-07 0)
(2 -2.72261e-07 0)
(2 -1.94726e-07 0)
(2 9.47813e-09 0)
(2 2.8613e-07 0)
(2 8.4561e-07 0)
(2 -1.31076e-14 0)
(2 -1.40013e-14 0)
(2 -1.41286e-14 0)
(2 -1.50141e-14 0)
(2 -1.61848e-14 0)
(2 -1.51851e-14 0)
(2 -1.35156e-14 0)
(2 -1.17986e-14 0)
(2 -1.0069e-14 0)
(2 -7.51232e-15 0)
(2 -7.57168e-15 0)
(2 -7.73815e-15 0)
(2 -6.90516e-15 0)
(2 -7.28994e-15 0)
(2 -6.93551e-15 0)
(2 -6.88367e-15 0)
(2 -6.85055e-15 0)
(2 -7.53067e-15 0)
(2 -8.87139e-15 0)
(2 -8.3671e-15 0)
(2 -8.66443e-15 0)
(2 -8.49306e-15 0)
(2 -8.50081e-15 0)
(2 -6.56952e-15 0)
(2 -3.76663e-15 0)
(2 -3.79825e-15 0)
(2 -4.92597e-15 0)
(2 -8.51235e-15 0)
(2 -1.13605e-14 0)
(2 -1.28512e-14 0)
(2 -1.20943e-14 0)
(2 -1.11712e-14 0)
(2 -1.1084e-14 0)
(2 -1.1018e-14 0)
(2 -1.16037e-14 0)
(2 -1.1751e-14 0)
(2 -1.18222e-14 0)
(2 -1.20168e-14 0)
(2 -1.21921e-14 0)
(2 -1.18764e-14 0)
(2 -1.18743e-14 0)
(2 -1.17887e-14 0)
(2 -1.33391e-14 0)
(2 -1.46124e-14 0)
(2 -1.53252e-14 0)
(2 -1.50087e-14 0)
(2 -1.51567e-14 0)
(2 -1.53709e-14 0)
(2 -1.60395e-14 0)
(2 -1.62113e-14 0)
(2 -1.55379e-14 0)
(2 -1.5095e-14 0)
(2 -1.34927e-14 0)
(2 -7.44612e-15 0)
(2 1.7436e-14 0)
(2 5.59837e-14 0)
(2 2.03628e-13 0)
(2 4.25436e-13 0)
(2 7.3351e-13 0)
(2 1.67378e-12 0)
(2 2.36964e-12 0)
(2 3.80484e-12 0)
(2 6.39573e-12 0)
(2 8.22597e-12 0)
(2 1.15295e-11 0)
(2 1.74528e-11 0)
(2 1.96594e-11 0)
(2 2.58759e-11 0)
(2 3.46755e-11 0)
(2 3.91275e-11 0)
(2 2.95064e-11 0)
(2 -2.73789e-11 0)
(2 -2.20307e-10 0)
(2 -7.35787e-10 0)
(2 -1.96825e-09 0)
(2 -4.51412e-09 0)
(2 -9.31563e-09 0)
(2 -1.76027e-08 0)
(2 -3.06394e-08 0)
(2 -5.09054e-08 0)
(2 -7.55881e-08 0)
(2 -1.05182e-07 0)
(2 -1.13347e-07 0)
(2 -9.91573e-08 0)
(2 -5.34442e-08 0)
(2 1.45278e-07 0)
(2 5.10342e-07 0)
(2 9.09089e-07 0)
(2 -1.21103e-14 0)
(2 -1.27404e-14 0)
(2 -1.38214e-14 0)
(2 -1.52446e-14 0)
(2 -1.76679e-14 0)
(2 -1.77032e-14 0)
(2 -1.71651e-14 0)
(2 -1.5424e-14 0)
(2 -1.30292e-14 0)
(2 -1.05493e-14 0)
(2 -9.87973e-15 0)
(2 -9.38449e-15 0)
(2 -8.81112e-15 0)
(2 -9.02749e-15 0)
(2 -9.62166e-15 0)
(2 -1.01567e-14 0)
(2 -1.05876e-14 0)
(2 -1.03698e-14 0)
(2 -9.69699e-15 0)
(2 -8.00192e-15 0)
(2 -7.20525e-15 0)
(2 -7.58027e-15 0)
(2 -7.16711e-15 0)
(2 -7.42207e-15 0)
(2 -7.8322e-15 0)
(2 -7.82949e-15 0)
(2 -9.4503e-15 0)
(2 -9.77347e-15 0)
(2 -8.96826e-15 0)
(2 -9.28503e-15 0)
(2 -9.26548e-15 0)
(2 -9.91811e-15 0)
(2 -1.09385e-14 0)
(2 -1.12795e-14 0)
(2 -1.08105e-14 0)
(2 -1.11472e-14 0)
(2 -1.20355e-14 0)
(2 -1.20338e-14 0)
(2 -1.22999e-14 0)
(2 -1.20967e-14 0)
(2 -1.26851e-14 0)
(2 -1.25771e-14 0)
(2 -1.22504e-14 0)
(2 -1.28949e-14 0)
(2 -1.22622e-14 0)
(2 -1.22602e-14 0)
(2 -1.33867e-14 0)
(2 -1.34981e-14 0)
(2 -1.42226e-14 0)
(2 -1.51592e-14 0)
(2 -1.54744e-14 0)
(2 -1.43475e-14 0)
(2 -1.40639e-14 0)
(2 -1.33169e-14 0)
(2 -1.29689e-14 0)
(2 -8.77806e-15 0)
(2 6.87373e-15 0)
(2 6.2542e-14 0)
(2 2.17361e-13 0)
(2 4.01897e-13 0)
(2 1.05918e-12 0)
(2 1.88591e-12 0)
(2 2.92964e-12 0)
(2 6.04771e-12 0)
(2 7.96901e-12 0)
(2 1.22481e-11 0)
(2 2.02209e-11 0)
(2 2.40309e-11 0)
(2 3.7197e-11 0)
(2 5.04414e-11 0)
(2 6.01681e-11 0)
(2 8.8496e-11 0)
(2 1.10764e-10 0)
(2 1.39978e-10 0)
(2 1.95281e-10 0)
(2 1.50143e-10 0)
(2 9.47399e-11 0)
(2 -2.12482e-10 0)
(2 -9.87982e-10 0)
(2 -2.17966e-09 0)
(2 -4.32618e-09 0)
(2 -5.34264e-09 0)
(2 -3.03417e-09 0)
(2 1.26043e-08 0)
(2 8.3058e-08 0)
(2 1.64712e-07 0)
(2 3.87893e-07 0)
(2 9.01773e-07 0)
(2 -9.75778e-15 0)
(2 -1.10887e-14 0)
(2 -1.29497e-14 0)
(2 -1.44995e-14 0)
(2 -1.5212e-14 0)
(2 -1.63346e-14 0)
(2 -1.72304e-14 0)
(2 -1.69647e-14 0)
(2 -1.58902e-14 0)
(2 -1.54573e-14 0)
(2 -1.42637e-14 0)
(2 -1.25413e-14 0)
(2 -1.26622e-14 0)
(2 -1.15568e-14 0)
(2 -1.01261e-14 0)
(2 -9.9108e-15 0)
(2 -9.43086e-15 0)
(2 -8.44688e-15 0)
(2 -7.75723e-15 0)
(2 -7.18708e-15 0)
(2 -6.0979e-15 0)
(2 -6.80416e-15 0)
(2 -7.24041e-15 0)
(2 -9.87209e-15 0)
(2 -1.07278e-14 0)
(2 -1.03215e-14 0)
(2 -1.04828e-14 0)
(2 -7.22152e-15 0)
(2 -6.49322e-15 0)
(2 -5.62775e-15 0)
(2 -6.11892e-15 0)
(2 -6.30774e-15 0)
(2 -7.99926e-15 0)
(2 -9.42806e-15 0)
(2 -9.66248e-15 0)
(2 -1.1081e-14 0)
(2 -1.17632e-14 0)
(2 -1.29022e-14 0)
(2 -1.30968e-14 0)
(2 -1.35326e-14 0)
(2 -1.47092e-14 0)
(2 -1.468e-14 0)
(2 -1.39966e-14 0)
(2 -1.24992e-14 0)
(2 -1.11804e-14 0)
(2 -1.17669e-14 0)
(2 -1.24853e-14 0)
(2 -1.34538e-14 0)
(2 -1.35501e-14 0)
(2 -1.34959e-14 0)
(2 -1.25723e-14 0)
(2 -1.09571e-14 0)
(2 -1.04841e-14 0)
(2 -1.06636e-14 0)
(2 -1.10637e-14 0)
(2 -1.23203e-14 0)
(2 -1.28481e-14 0)
(2 -1.10175e-14 0)
(2 -1.53892e-16 0)
(2 5.56521e-14 0)
(2 1.60693e-13 0)
(2 4.42143e-13 0)
(2 1.08704e-12 0)
(2 1.7817e-12 0)
(2 4.0739e-12 0)
(2 6.54004e-12 0)
(2 1.00103e-11 0)
(2 1.93674e-11 0)
(2 2.36747e-11 0)
(2 4.03886e-11 0)
(2 5.83739e-11 0)
(2 7.58913e-11 0)
(2 1.25506e-10 0)
(2 1.6934e-10 0)
(2 2.26042e-10 0)
(2 3.85266e-10 0)
(2 4.85772e-10 0)
(2 7.90658e-10 0)
(2 1.27115e-09 0)
(2 1.95741e-09 0)
(2 3.53374e-09 0)
(2 6.5426e-09 0)
(2 1.51512e-08 0)
(2 3.31543e-08 0)
(2 6.21969e-08 0)
(2 1.36691e-07 0)
(2 2.35311e-07 0)
(2 4.06644e-07 0)
(2 -1.22791e-14 0)
(2 -1.34441e-14 0)
(2 -1.44365e-14 0)
(2 -1.51284e-14 0)
(2 -1.56215e-14 0)
(2 -1.60201e-14 0)
(2 -1.72969e-14 0)
(2 -1.84859e-14 0)
(2 -1.92648e-14 0)
(2 -1.82133e-14 0)
(2 -1.67632e-14 0)
(2 -1.59058e-14 0)
(2 -1.43427e-14 0)
(2 -1.17219e-14 0)
(2 -8.949e-15 0)
(2 -7.2309e-15 0)
(2 -6.67713e-15 0)
(2 -7.05401e-15 0)
(2 -7.5283e-15 0)
(2 -8.40065e-15 0)
(2 -9.61102e-15 0)
(2 -1.14914e-14 0)
(2 -1.18742e-14 0)
(2 -1.19399e-14 0)
(2 -1.15806e-14 0)
(2 -1.08007e-14 0)
(2 -1.03532e-14 0)
(2 -9.79362e-15 0)
(2 -9.27169e-15 0)
(2 -8.94853e-15 0)
(2 -9.65991e-15 0)
(2 -8.95032e-15 0)
(2 -8.92275e-15 0)
(2 -9.73981e-15 0)
(2 -1.13903e-14 0)
(2 -1.35184e-14 0)
(2 -1.49492e-14 0)
(2 -1.42068e-14 0)
(2 -1.23227e-14 0)
(2 -1.4257e-14 0)
(2 -1.49362e-14 0)
(2 -1.44102e-14 0)
(2 -1.17865e-14 0)
(2 -1.04613e-14 0)
(2 -1.10333e-14 0)
(2 -1.14171e-14 0)
(2 -1.25518e-14 0)
(2 -1.35979e-14 0)
(2 -1.44033e-14 0)
(2 -1.44519e-14 0)
(2 -1.23089e-14 0)
(2 -1.22931e-14 0)
(2 -1.2177e-14 0)
(2 -1.23534e-14 0)
(2 -1.29192e-14 0)
(2 -1.28411e-14 0)
(2 -1.29421e-14 0)
(2 -1.25622e-14 0)
(2 -1.14209e-14 0)
(2 -9.83525e-15 0)
(2 -4.68751e-16 0)
(2 3.15304e-14 0)
(2 1.1664e-13 0)
(2 3.73735e-13 0)
(2 7.90751e-13 0)
(2 1.81105e-12 0)
(2 3.80019e-12 0)
(2 6.13576e-12 0)
(2 1.29052e-11 0)
(2 1.88857e-11 0)
(2 3.18254e-11 0)
(2 5.33637e-11 0)
(2 7.43669e-11 0)
(2 1.18758e-10 0)
(2 1.94925e-10 0)
(2 2.62853e-10 0)
(2 4.65964e-10 0)
(2 7.03635e-10 0)
(2 1.1454e-09 0)
(2 1.98688e-09 0)
(2 3.39918e-09 0)
(2 6.10673e-09 0)
(2 1.06849e-08 0)
(2 1.93906e-08 0)
(2 3.45359e-08 0)
(2 5.55124e-08 0)
(2 9.78567e-08 0)
(2 1.699e-07 0)
(2 -1.63044e-14 0)
(2 -1.48318e-14 0)
(2 -1.20443e-14 0)
(2 -1.09985e-14 0)
(2 -1.13788e-14 0)
(2 -1.22368e-14 0)
(2 -1.34823e-14 0)
(2 -1.3758e-14 0)
(2 -1.40638e-14 0)
(2 -1.33891e-14 0)
(2 -1.30333e-14 0)
(2 -1.24083e-14 0)
(2 -1.21234e-14 0)
(2 -1.20161e-14 0)
(2 -1.20448e-14 0)
(2 -1.1262e-14 0)
(2 -1.05739e-14 0)
(2 -1.03995e-14 0)
(2 -1.05958e-14 0)
(2 -1.06535e-14 0)
(2 -1.00804e-14 0)
(2 -1.13993e-14 0)
(2 -1.19427e-14 0)
(2 -1.13903e-14 0)
(2 -1.13287e-14 0)
(2 -1.14366e-14 0)
(2 -1.13525e-14 0)
(2 -1.1959e-14 0)
(2 -1.29784e-14 0)
(2 -1.38757e-14 0)
(2 -1.33575e-14 0)
(2 -1.3643e-14 0)
(2 -1.28721e-14 0)
(2 -1.29254e-14 0)
(2 -1.3528e-14 0)
(2 -1.43933e-14 0)
(2 -1.47204e-14 0)
(2 -1.42457e-14 0)
(2 -1.41931e-14 0)
(2 -1.38634e-14 0)
(2 -1.32114e-14 0)
(2 -1.2162e-14 0)
(2 -1.22158e-14 0)
(2 -1.33358e-14 0)
(2 -1.45936e-14 0)
(2 -1.53103e-14 0)
(2 -1.48081e-14 0)
(2 -1.48882e-14 0)
(2 -1.48615e-14 0)
(2 -1.53982e-14 0)
(2 -1.55469e-14 0)
(2 -1.46493e-14 0)
(2 -1.45248e-14 0)
(2 -1.43237e-14 0)
(2 -1.41151e-14 0)
(2 -1.31215e-14 0)
(2 -1.09734e-14 0)
(2 -1.04947e-14 0)
(2 -9.36103e-15 0)
(2 -9.69373e-15 0)
(2 -1.05091e-14 0)
(2 -9.8618e-15 0)
(2 -6.37039e-15 0)
(2 6.75192e-15 0)
(2 5.76586e-14 0)
(2 1.91217e-13 0)
(2 4.99568e-13 0)
(2 1.25446e-12 0)
(2 2.50893e-12 0)
(2 5.38194e-12 0)
(2 9.91416e-12 0)
(2 1.72506e-11 0)
(2 3.13056e-11 0)
(2 5.14463e-11 0)
(2 8.20423e-11 0)
(2 1.43206e-10 0)
(2 2.19993e-10 0)
(2 3.66262e-10 0)
(2 6.01246e-10 0)
(2 9.78316e-10 0)
(2 1.63282e-09 0)
(2 2.71039e-09 0)
(2 4.4732e-09 0)
(2 6.95411e-09 0)
(2 1.03826e-08 0)
(2 1.56087e-08 0)
(2 2.27611e-08 0)
(2 3.42289e-08 0)
(2 -1.79276e-14 0)
(2 -1.72515e-14 0)
(2 -1.47849e-14 0)
(2 -1.25184e-14 0)
(2 -1.14887e-14 0)
(2 -1.15035e-14 0)
(2 -1.16309e-14 0)
(2 -1.18869e-14 0)
(2 -1.17165e-14 0)
(2 -1.35814e-14 0)
(2 -1.36289e-14 0)
(2 -1.31097e-14 0)
(2 -1.33359e-14 0)
(2 -1.37721e-14 0)
(2 -1.53161e-14 0)
(2 -1.55757e-14 0)
(2 -1.52907e-14 0)
(2 -1.4069e-14 0)
(2 -1.35648e-14 0)
(2 -1.24637e-14 0)
(2 -1.13906e-14 0)
(2 -1.08154e-14 0)
(2 -1.20484e-14 0)
(2 -1.25434e-14 0)
(2 -1.40902e-14 0)
(2 -1.45793e-14 0)
(2 -1.42674e-14 0)
(2 -1.4685e-14 0)
(2 -1.60142e-14 0)
(2 -1.58795e-14 0)
(2 -1.5969e-14 0)
(2 -1.60874e-14 0)
(2 -1.5351e-14 0)
(2 -1.63278e-14 0)
(2 -1.57202e-14 0)
(2 -1.40907e-14 0)
(2 -1.31689e-14 0)
(2 -1.34865e-14 0)
(2 -1.39313e-14 0)
(2 -1.30175e-14 0)
(2 -1.35017e-14 0)
(2 -1.20921e-14 0)
(2 -1.32373e-14 0)