/*--------------------------------*- C++ -*----------------------------------*\
  =========                 |
  \\      /  F ield         | OpenFOAM: The Open Source CFD Toolbox
   \\    /   O peration     | Website:  https://openfoam.org
    \\  /    A nd           | Version:  7
     \\/     M anipulation  |
\*---------------------------------------------------------------------------*/
FoamFile
{
    version     2.0;
    format      ascii;
    class       volScalarField;
    location    "7";
    object      p;
}
// * * * * * * * * * * * * * * * * * * * * * * * * * * * * * * * * * * * * * //

dimensions      [1 -1 -2 0 0 0 0];

internalField   nonuniform List<scalar> 
2418
(
1.62042
1.61415
1.6064
1.60186
1.59858
1.59511
1.59135
1.58719
1.62339
1.61451
1.60529
1.60093
1.5967
1.59248
1.58896
1.58509
1.6264
1.61631
1.60808
1.60266
1.59696
1.59175
1.5881
1.58423
1.61982
1.61701
1.6126
1.60616
1.59927
1.59327
1.58883
1.58445
1.61425
1.61849
1.61661
1.61178
1.60474
1.59711
1.59058
1.58524
1.56105
1.59394
1.60815
1.60949
1.6081
1.60238
1.59475
1.58767
1.37031
1.50871
1.58973
1.6116
1.61312
1.60985
1.6024
1.59334
1.13724
1.30178
1.47979
1.56013
1.59698
1.60555
1.60327
1.59715
1.02505
1.09253
1.24259
1.4134
1.54081
1.59923
1.60453
1.60244
1.00221
1.01337
1.0603
1.18487
1.35189
1.51184
1.56939
1.59616
1.00009
1.0009
1.00705
1.04032
1.12374
1.29563
1.45295
1.54954
1
1.00003
1.00041
1.00405
1.02084
1.08644
1.23246
1.3811
1
1
1.00001
1.00018
1.00169
1.01163
1.05855
1.15796
1
1
1
1
1.00006
1.00076
1.00657
1.03205
1
1
1
1
1
1.00002
1.00033
1.00296
1
1
1
1
1
1
1.00001
1.00013
1
1
1
1
1
1
1
1
1
1
1
1
1
1
1
1
1.56016
1.55629
1.55186
1.54664
1.5415
1.53675
1.5322
1.52768
1.52387
1.52035
1.51633
1.51165
1.50676
1.50218
1.49767
1.4927
1.48795
1.48411
1.48008
1.47566
1.47068
1.46606
1.46153
1.45642
1.45126
1.44668
1.4421
1.43721
1.43198
1.42689
1.4218
1.41735
1.4134
1.41104
1.4165
1.43731
1.48729
1.5831
1.68597
1.81463
1.90064
1.95356
1.99354
1.99797
1.99633
1.99329
1.98707
1.97636
1.96456
1.95441
1.94422
1.93459
1.92588
1.9157
1.90517
1.89528
1.8851
1.87453
1.86425
1.85455
1.84584
1.83809
1.83047
1.8221
1.81292
1.80325
1.7932
1.78351
1.77477
1.76687
1.75944
1.75201
1.74421
1.73608
1.72758
1.71866
1.70998
1.70213
1.69484
1.68777
1.68088
1.67408
1.66719
1.66002
1.65255
1.64487
1.63726
1.63001
1.62307
1.61636
1.60997
1.60367
1.59722
1.59056
1.58363
1.5766
1.56958
1.56257
1.55571
1.54904
1.54251
1.53612
1.5298
1.5235
1.51714
1.5107
1.50429
1.49794
1.49165
1.48529
1.47875
1.47214
1.46542
1.4586
1.58242
1.57712
1.57266
1.56879
1.56505
1.56185
1.55882
1.55529
1.55127
1.54675
1.54192
1.53708
1.53227
1.5275
1.52413
1.52093
1.51712
1.51284
1.50844
1.50385
1.49903
1.49386
1.48952
1.48607
1.48232
1.47797
1.4735
1.46937
1.46509
1.46008
1.45518
1.45103
1.44671
1.44207
1.43749
1.43357
1.42822
1.42763
1.43409
1.45907
1.52434
1.6152
1.74722
1.86142
1.93857
2.00359
2.01583
2.02436
2.0228
2.01767
2.01081
2.00277
1.99357
1.98374
1.97254
1.96065
1.94867
1.93728
1.92643
1.91597
1.90573
1.89606
1.88725
1.87864
1.86947
1.85969
1.84968
1.83954
1.82959
1.82018
1.81118
1.80233
1.7938
1.78556
1.7775
1.76938
1.761
1.75253
1.74416
1.7358
1.72738
1.71895
1.71074
1.70288
1.69522
1.68769
1.68024
1.67289
1.66564
1.65837
1.65093
1.6433
1.63556
1.62794
1.62053
1.61328
1.60629
1.59939
1.59245
1.58552
1.57852
1.5715
1.56453
1.55758
1.55075
1.54402
1.53731
1.53064
1.52396
1.51731
1.51071
1.50418
1.49781
1.4916
1.48549
1.47937
1.47313
1.46681
1.46039
1.45382
1.58057
1.57578
1.57127
1.5669
1.56268
1.55956
1.5568
1.55357
1.54991
1.54601
1.54166
1.53691
1.53181
1.52687
1.52371
1.52055
1.5168
1.51293
1.50919
1.50502
1.50032
1.49491
1.49073
1.48714
1.48338
1.47933
1.47528
1.47121
1.46679
1.46191
1.45718
1.45285
1.44851
1.44445
1.43974
1.44037
1.44863
1.48196
1.5464
1.6592
1.79022
1.89332
1.99395
2.02236
2.04448
2.05132
2.0492
2.04598
2.03835
2.02693
2.01451
2.00198
1.98997
1.9785
1.96722
1.95624
1.9457
1.93565
1.92626
1.91699
1.90736
1.8973
1.88698
1.87685
1.86721
1.85795
1.84875
1.8395
1.83024
1.82105
1.81188
1.80272
1.79374
1.78497
1.77648
1.76819
1.75991
1.7516
1.74325
1.7348
1.72634
1.71789
1.70954
1.70143
1.69351
1.68572
1.67802
1.6704
1.66281
1.65518
1.64743
1.63958
1.6317
1.62392
1.61623
1.60857
1.60108
1.59368
1.58636
1.57921
1.57216
1.56519
1.55838
1.55158
1.54479
1.53798
1.53105
1.52405
1.51701
1.51004
1.50323
1.49666
1.49039
1.4844
1.47856
1.47276
1.46683
1.46073
1.45448
1.44806
1.57982
1.57525
1.57067
1.56599
1.56127
1.55798
1.55513
1.55177
1.5482
1.54477
1.54089
1.53636
1.53111
1.5261
1.523
1.51977
1.51608
1.51258
1.50925
1.50546
1.50104
1.49593
1.49168
1.48784
1.48396
1.48011
1.4763
1.47242
1.46807
1.46324
1.45856
1.45393
1.44934
1.45012
1.46126
1.49599
1.57265
1.69662
1.81579
1.9499
2.01253
2.05119
2.0748
2.07417
2.071
2.06207
2.0526
2.04321
2.03288
2.02086
2.00801
1.99577
1.98469
1.9745
1.9647
1.9547
1.94423
1.93361
1.92347
1.91373
1.90426
1.89482
1.88526
1.8758
1.86648
1.85719
1.84779
1.8382
1.82847
1.81885
1.8095
1.8004
1.79158
1.78293
1.77436
1.76587
1.75736
1.74884
1.74041
1.73201
1.72369
1.7154
1.70704
1.69871
1.69041
1.68214
1.67394
1.66581
1.65778
1.64988
1.64203
1.63422
1.62645
1.61871
1.61098
1.60314
1.59535
1.58766
1.58009
1.57277
1.5656
1.55855
1.5517
1.54484
1.53794
1.53098
1.52387
1.51674
1.50966
1.50275
1.49608
1.48967
1.48349
1.4775
1.4716
1.46573
1.45979
1.45379
1.44778
1.44174
1.58
1.57548
1.57082
1.56625
1.56137
1.55792
1.55489
1.55109
1.54703
1.54356
1.53984
1.53559
1.53064
1.52596
1.52276
1.51935
1.5155
1.51212
1.50899
1.50537
1.5011
1.49646
1.49214
1.48802
1.48389
1.48015
1.47635
1.47257
1.46849
1.46393
1.45834
1.4594
1.47032
1.50803
1.59741
1.71134
1.86348
1.972
2.04055
2.08726
2.09397
2.08908
2.08501
2.0787
2.06871
2.05816
2.04727
2.03573
2.02473
2.0139
2.00293
1.99193
1.98102
1.97065
1.96079
1.95086
1.94064
1.93024
1.91995
1.91004
1.90052
1.8912
1.88194
1.87263
1.86323
1.85374
1.84414
1.83441
1.82462
1.815
1.80568
1.79665
1.78789
1.7793
1.7707
1.76213
1.75346
1.74472
1.7361
1.72763
1.71933
1.71116
1.70289
1.69454
1.68607
1.6775
1.6689
1.66033
1.65192
1.6438
1.6359
1.62818
1.62056
1.61293
1.60525
1.59741
1.58954
1.58171
1.57399
1.56651
1.55918
1.55197
1.54492
1.53788
1.5308
1.52374
1.51665
1.50965
1.50281
1.49616
1.48971
1.48338
1.47716
1.47101
1.46493
1.45891
1.45297
1.44719
1.44154
1.43598
1.5808
1.57659
1.57222
1.56775
1.56317
1.55945
1.55579
1.55164
1.54713
1.54328
1.53944
1.53522
1.53051
1.5267
1.5233
1.51949
1.51535
1.51191
1.50856
1.50496
1.50075
1.49653
1.49215
1.4878
1.48335
1.47966
1.47582
1.47227
1.46727
1.46837
1.47915
1.52293
1.60472
1.74231
1.88635
1.9912
2.07874
2.0986
2.10916
2.10738
2.1029
2.09514
2.08664
2.07638
2.06461
2.05183
2.03913
2.02768
2.01754
2.00777
1.99789
1.9876
1.97708
1.96687
1.95699
1.94705
1.93684
1.92637
1.9158
1.90554
1.89573
1.88625
1.87694
1.86761
1.85818
1.84863
1.83897
1.8293
1.81971
1.81034
1.80124
1.79234
1.78361
1.77499
1.76628
1.75751
1.74859
1.73953
1.73062
1.72198
1.7136
1.70549
1.69736
1.68914
1.68079
1.67224
1.66357
1.65488
1.64631
1.63806
1.6301
1.6224
1.61482
1.60718
1.5995
1.59166
1.58372
1.5758
1.56793
1.56025
1.55276
1.54543
1.53834
1.5313
1.52432
1.51744
1.5106
1.50384
1.49721
1.49069
1.48427
1.47786
1.47149
1.46516
1.45893
1.45287
1.447
1.44143
1.43605
1.43074
1.58256
1.57849
1.57417
1.5699
1.56578
1.56201
1.55795
1.55334
1.54826
1.54423
1.54043
1.53616
1.53164
1.52799
1.52428
1.52013
1.51576
1.51228
1.50857
1.50478
1.50048
1.49636
1.49189
1.48746
1.48289
1.47898
1.47457
1.47539
1.48811
1.52862
1.61861
1.76243
1.89587
2.03617
2.08726
2.1207
2.13303
2.13013
2.12618
2.11667
2.10394
2.09171
2.07912
2.06716
2.05579
2.0441
2.03245
2.02137
2.01123
2.00187
1.99266
1.98313
1.9731
1.96274
1.95232
1.94188
1.93145
1.92103
1.91057
1.90027
1.8903
1.88064
1.87125
1.86195
1.85258
1.8431
1.83354
1.82405
1.81473
1.80557
1.79657
1.78763
1.77874
1.7699
1.76094
1.75196
1.74292
1.73379
1.72488
1.71625
1.70781
1.69968
1.6916
1.68348
1.67529
1.66691
1.65833
1.64964
1.64096
1.63253
1.62439
1.61652
1.60883
1.60115
1.59352
1.58579
1.57795
1.57007
1.56221
1.55449
1.54697
1.53965
1.53264
1.52578
1.51903
1.51238
1.50574
1.49913
1.49258
1.48607
1.47963
1.47314
1.46666
1.46023
1.45391
1.44788
1.44213
1.43673
1.43156
1.42643
1.58543
1.58024
1.57614
1.57215
1.56857
1.56486
1.56066
1.55574
1.55004
1.54562
1.54168
1.53747
1.53347
1.53015
1.52628
1.52197
1.51745
1.51369
1.50953
1.50533
1.50093
1.4966
1.49188
1.48761
1.48265
1.48334
1.49402
1.53296
1.63135
1.76055
1.92915
2.04416
2.11211
2.15401
2.15397
2.1474
2.13716
2.12858
2.11891
2.10756
2.09527
2.08243
2.07061
2.05976
2.04941
2.03913
2.02849
2.01747
2.00669
1.99647
1.98663
1.97695
1.96708
1.95691
1.94656
1.93611
1.92575
1.91556
1.90544
1.89543
1.88559
1.87588
1.86633
1.85684
1.84729
1.83774
1.82821
1.81882
1.80959
1.80044
1.79136
1.78229
1.77325
1.76428
1.75525
1.74623
1.73723
1.72822
1.7194
1.71076
1.70215
1.69382
1.6856
1.67747
1.66941
1.66124
1.65286
1.64432
1.63565
1.62706
1.61865
1.6105
1.60266
1.59503
1.5876
1.58021
1.57273
1.56516
1.55755
1.54995
1.54246
1.53513
1.52812
1.52136
1.51476
1.50826
1.50175
1.49522
1.48869
1.48215
1.47566
1.46912
1.46261
1.45622
1.44996
1.44402
1.43843
1.43312
1.42799
1.42283
1.58969
1.58428
1.58037
1.57676
1.57301
1.56876
1.56427
1.55918
1.55287
1.54794
1.54382
1.53938
1.53544
1.53238
1.52873
1.5246
1.51998
1.51555
1.5106
1.50587
1.5009
1.49708
1.49215
1.4922
1.49999
1.5397
1.62407
1.77264
1.9392
2.05568
2.14522
2.16515
2.16896
2.16674
2.15869
2.14641
2.1339
2.12221
2.1104
2.09924
2.08803
2.07668
2.06564
2.05502
2.04477
2.03458
2.024
2.0129
2.00168
1.99082
1.98047
1.97059
1.96086
1.95105
1.94119
1.93125
1.92129
1.91133
1.90128
1.89119
1.88117
1.87123
1.86141
1.85164
1.84186
1.83216
1.8226
1.81323
1.80403
1.79485
1.78572
1.77666
1.76768
1.75881
1.74992
1.74102
1.73209
1.72315
1.71432
1.70556
1.69675
1.68813
1.67965
1.67135
1.66327
1.65521
1.64704
1.63878
1.6304
1.62198
1.6136
1.60541
1.59755
1.59001
1.58279
1.57574
1.56862
1.56136
1.55398
1.54652
1.53907
1.53168
1.52456
1.51773
1.51113
1.50475
1.49842
1.49206
1.48563
1.47909
1.47252
1.46593
1.45942
1.45312
1.44695
1.44103
1.43541
1.42995
1.42468
1.4194
1.59802
1.59393
1.58856
1.5818
1.57584
1.57164
1.5675
1.56241
1.55611
1.55091
1.54653
1.54232
1.5388
1.53565
1.53211
1.52794
1.52317
1.51774
1.51179
1.50679
1.50134
1.50036
1.50776
1.53982
1.62236
1.77707
1.92918
2.09033
2.15409
2.18723
2.1923
2.18904
2.18259
2.17145
2.1587
2.14529
2.13111
2.11768
2.10537
2.09382
2.08243
2.07119
2.06018
2.04965
2.03961
2.02974
2.01968
2.00919
1.99829
1.98721
1.97619
1.96555
1.95536
1.94546
1.9358
1.92622
1.91654
1.90666
1.89651
1.8862
1.87593
1.86582
1.85592
1.84617
1.83646
1.82687
1.81742
1.80807
1.79883
1.78957
1.78037
1.77133
1.76241
1.75361
1.74486
1.73607
1.72725
1.71843
1.70961
1.70073
1.69177
1.68297
1.67439
1.66605
1.65802
1.65009
1.64212
1.63413
1.62605
1.61788
1.60968
1.60151
1.5936
1.58608
1.57891
1.57202
1.56515
1.55821
1.5512
1.544
1.53662
1.52911
1.52168
1.51458
1.50785
1.50151
1.49542
1.48937
1.48325
1.47688
1.47028
1.46354
1.45684
1.45046
1.44435
1.43849
1.43289
1.42734
1.42188
1.41647
1.59941
1.59864
1.59471
1.58783
1.58113
1.57716
1.57299
1.56734
1.56122
1.5556
1.55048
1.54601
1.54267
1.53927
1.53536
1.53069
1.52553
1.51966
1.51322
1.50954
1.51385
1.53914
1.6223
1.75523
1.94638
2.09323
2.17155
2.22309
2.22569
2.22121
2.20646
2.1901
2.17595
2.16273
2.15063
2.13857
2.12602
2.11375
2.10171
2.08971
2.07788
2.0664
2.05559
2.04558
2.036
2.02642
2.01654
2.00617
1.99528
1.984
1.9725
1.96121
1.95046
1.94024
1.93051
1.92103
1.91149
1.90171
1.8916
1.88127
1.87096
1.86085
1.85103
1.8414
1.83186
1.82242
1.81301
1.80358
1.79422
1.78488
1.77567
1.76669
1.75783
1.74904
1.74033
1.73161
1.72288
1.71416
1.70534
1.6964
1.68739
1.67856
1.67005
1.66185
1.65398
1.64623
1.63841
1.63056
1.6226
1.61452
1.60642
1.59839
1.59067
1.58333
1.57624
1.56937
1.5625
1.55555
1.54861
1.54154
1.53435
1.52705
1.51971
1.51254
1.50561
1.49899
1.49267
1.48657
1.48065
1.47471
1.46859
1.4622
1.45558
1.44894
1.44236
1.43601
1.43016
1.4246
1.4192
1.41388
1.59664
1.602
1.6016
1.59659
1.59086
1.58586
1.57915
1.57234
1.56699
1.56197
1.55662
1.5511
1.54731
1.54371
1.5391
1.5333
1.52894
1.52278
1.52334
1.54193
1.60453
1.74188
1.93698
2.08721
2.21249
2.24674
2.24127
2.23747
2.22631
2.21217
2.19772
2.18415
2.17048
2.15718
2.14507
2.13379
2.12251
2.11116
2.09976
2.08816
2.07632
2.06436
2.05274
2.042
2.03212
2.02264
2.01303
2.00306
1.99248
1.98127
1.96957
1.95787
1.94667
1.93613
1.9262
1.91664
1.90709
1.89734
1.88732
1.8771
1.86685
1.85673
1.84694
1.83737
1.82798
1.81869
1.80929
1.79973
1.79024
1.78083
1.77164
1.76272
1.75389
1.7451
1.73638
1.72771
1.71914
1.71058
1.70186
1.69302
1.68409
1.67523
1.66665
1.65836
1.65047
1.64288
1.63542
1.62804
1.62052
1.6127
1.60467
1.5965
1.58847
1.58084
1.5736
1.56682
1.56023
1.55363
1.54698
1.54002
1.53271
1.52523
1.51778
1.51062
1.50381
1.49729
1.49101
1.48477
1.47858
1.4724
1.46632
1.46038
1.45438
1.44811
1.44156
1.43497
1.42873
1.42267
1.41664
1.41079
1.52222
1.57665
1.59324
1.59885
1.59714
1.59179
1.58515
1.57901
1.57468
1.56991
1.56453
1.55835
1.55233
1.54657
1.54209
1.53654
1.53674
1.54842
1.59652
1.72848
1.90423
2.10866
2.21523
2.26557
2.28306
2.28002
2.2675
2.24665
2.22597
2.2076
2.19294
2.18137
2.16994
2.15729
2.14399
2.13137
2.11982
2.10904
2.09836
2.08728
2.07556
2.06321
2.05068
2.03889
2.02837
2.0187
2.0092
1.9996
1.98952
1.97867
1.96713
1.95539
1.94403
1.93329
1.92308
1.91322
1.90342
1.89357
1.88363
1.87359
1.86349
1.8535
1.84377
1.83426
1.82489
1.81553
1.80598
1.79626
1.78668
1.77732
1.76826
1.75951
1.75084
1.74216
1.73347
1.72473
1.71604
1.70739
1.69872
1.69013
1.68155
1.67302
1.6646
1.6563
1.64827
1.64055
1.6331
1.62585
1.61859
1.61115
1.60345
1.59551
1.58757
1.57982
1.57229
1.56517
1.55832
1.55164
1.5451
1.53842
1.53141
1.52407
1.51657
1.50924
1.5023
1.49578
1.48963
1.48359
1.47754
1.47141
1.46514
1.45878
1.45246
1.44631
1.4403
1.43406
1.42764
1.42125
1.41502
1.40915
1.30913
1.46227
1.53718
1.58389
1.59338
1.59238
1.59106
1.58875
1.58365
1.57765
1.57099
1.56368
1.55703
1.55055
1.54933
1.55635
1.59528
1.69633
1.87902
2.09474
2.22758
2.30747
2.31029
2.30521
2.28931
2.27534
2.26039
2.244
2.22651
2.20932
2.19432
2.18122
2.16849
2.15519
2.14182
2.12915
2.11761
2.10703
2.09685
2.08646
2.07518
2.06279
2.04967
2.03701
2.02571
2.01543
2.00559
1.99583
1.98579
1.97535
1.96447
1.95325
1.94214
1.93142
1.9211
1.91106
1.90109
1.89108
1.88093
1.87065
1.86042
1.85048
1.84093
1.8317
1.82263
1.81341
1.80388
1.7941
1.78431
1.77469
1.76543
1.75657
1.74796
1.73954
1.73128
1.72304
1.71465
1.70602
1.69714
1.68824
1.67949
1.67102
1.66286
1.65489
1.64715
1.63969
1.63248
1.62531
1.61794
1.61025
1.60229
1.59426
1.58637
1.57872
1.57129
1.56417
1.55728
1.55056
1.54398
1.53732
1.5305
1.52354
1.51636
1.50903
1.50176
1.49474
1.48815
1.48193
1.476
1.47027
1.46452
1.45868
1.45262
1.4461
1.43922
1.43216
1.42515
1.41842
1.412
1.40618
1.09421
1.22595
1.36038
1.47944
1.56239
1.58951
1.59211
1.59221
1.59058
1.58642
1.57999
1.57345
1.56712
1.5695
1.59371
1.66666
1.84241
2.04513
2.23707
2.33327
2.35501
2.35185
2.33615
2.30843
2.28384
2.26504
2.2514
2.2387
2.22568
2.21167
2.19678
2.18178
2.16729
2.15357
2.14072
2.12858
2.11703
2.10604
2.09523
2.08418
2.0727
2.06089
2.04875
2.03647
2.02478
2.01407
2.0041
1.9943
1.98421
1.97372
1.96268
1.9512
1.9397
1.9286
1.91818
1.90836
1.89876
1.88909
1.87922
1.86914
1.85903
1.84913
1.83949
1.83005
1.82059
1.81096
1.80123
1.79157
1.78213
1.77301
1.76415
1.75549
1.74697
1.7385
1.73009
1.72168
1.71325
1.70482
1.69637
1.68797
1.67965
1.67137
1.66315
1.65502
1.64707
1.63944
1.63208
1.62485
1.61762
1.61023
1.60266
1.59495
1.5871
1.57924
1.57159
1.56431
1.55737
1.55064
1.54396
1.53709
1.53002
1.52295
1.51593
1.50897
1.50209
1.49525
1.4886
1.48218
1.47584
1.46946
1.46298
1.45645
1.45006
1.44375
1.43748
1.43105
1.42437
1.41774
1.41123
1.40493
1.01351
1.05093
1.13397
1.25775
1.40104
1.52424
1.56648
1.57839
1.58406
1.58484
1.58506
1.58849
1.60572
1.66498
1.7947
1.99059
2.2251
2.33748
2.37895
2.37506
2.3612
2.34378
2.32603
2.30699
2.28587
2.26703
2.25122
2.23833
2.22689
2.21489
2.20027
2.18392
2.16777
2.15335
2.14115
2.13059
2.12032
2.10949
2.09786
2.08576
2.07335
2.06048
2.0474
2.03513
2.02417
2.01443
2.00538
1.99619
1.98626
1.97548
1.96405
1.95216
1.94015
1.92827
1.91679
1.906
1.89596
1.88645
1.87721
1.86791
1.85834
1.8486
1.83889
1.82926
1.81959
1.80969
1.79964
1.78972
1.78028
1.77155
1.76325
1.75504
1.74682
1.73851
1.73016
1.72173
1.71315
1.70448
1.69589
1.68757
1.67957
1.6717
1.66385
1.65595
1.64808
1.64044
1.63294
1.62549
1.618
1.6104
1.6028
1.59529
1.58778
1.58027
1.57285
1.56562
1.5587
1.55197
1.54523
1.53829
1.53107
1.52362
1.5161
1.5088
1.50201
1.49551
1.48909
1.48267
1.47618
1.46969
1.46313
1.45642
1.44954
1.44248
1.4355
1.42887
1.42253
1.41643
1.41024
1.40391
1.00089
1.00501
1.02106
1.06728
1.16464
1.30832
1.44261
1.52354
1.56458
1.57827
1.60481
1.66761
1.77282
1.95479
2.15181
2.31807
2.42554
2.44816
2.43506
2.39872
2.35615
2.32749
2.313
2.30148
2.28653
2.26972
2.25312
2.23808
2.22422
2.21126
2.19777
2.18344
2.1688
2.15479
2.14196
2.12996
2.11838
2.10693
2.09555
2.084
2.07206
2.05961
2.04694
2.03461
2.02308
2.01244
2.00247
1.99268
1.98277
1.9726
1.962
1.95078
1.93915
1.92756
1.91645
1.90607
1.89635
1.88691
1.87749
1.86797
1.8583
1.84862
1.83895
1.82934
1.81977
1.81012
1.80047
1.79102
1.78184
1.77304
1.76453
1.75615
1.7479
1.73965
1.73133
1.72296
1.71455
1.7062
1.69797
1.68986
1.68181
1.67371
1.66561
1.65758
1.64969
1.64206
1.6346
1.62724
1.61992
1.61251
1.60502
1.59741
1.58959
1.58178
1.5742
1.56694
1.56006
1.55336
1.54664
1.53974
1.53262
1.52535
1.51803
1.51077
1.50367
1.49668
1.48985
1.4832
1.4766
1.47002
1.46338
1.4566
1.4498
1.44302
1.43635
1.42984
1.42333
1.41683
1.41034
1.40386
1.00003
1.00021
1.00132
1.00719
1.03002
1.08995
1.20303
1.34368
1.47215
1.58009
1.7237
1.90946
2.10306
2.30267
2.38981
2.43877
2.43375
2.42607
2.4063
2.37851
2.35377
2.33174
2.31401
2.30031
2.28748
2.27429
2.25983
2.24341
2.22591
2.20946
2.1948
2.18179
2.17013
2.1583
2.14572
2.13283
2.12016
2.10787
2.09605
2.08448
2.07293
2.06096
2.04839
2.03569
2.02356
2.0122
2.00162
1.99162
1.9818
1.97206
1.96224
1.95196
1.94118
1.93018
1.91933
1.90912
1.89953
1.89021
1.88101
1.87177
1.86241
1.85304
1.84364
1.83427
1.82501
1.81577
1.80653
1.79733
1.78814
1.77917
1.77052
1.76212
1.75393
1.74574
1.73748
1.72927
1.72113
1.71306
1.70498
1.69682
1.68857
1.68027
1.67204
1.66392
1.65598
1.64831
1.64088
1.63363
1.62646
1.61917
1.61163
1.60377
1.59567
1.58764
1.57994
1.57267
1.56578
1.55904
1.5523
1.54546
1.53847
1.5313
1.52393
1.51637
1.50882
1.50144
1.49433
1.48751
1.48081
1.47419
1.4676
1.46097
1.45436
1.44771
1.44097
1.43417
1.42729
1.42047
1.41379
1.40725
1
1
1.00004
1.00035
1.00236
1.01253
1.04972
1.14256
1.32167
1.58697
1.88346
2.13399
2.39751
2.62212
2.62122
2.57655
2.49569
2.42743
2.38387
2.36465
2.34925
2.33088
2.31354
2.29788
2.28448
2.2726
2.25952
2.24351
2.22537
2.20764
2.19265
2.18
2.1682
2.15652
2.14452
2.13207
2.11941
2.10677
2.09419
2.08167
2.06919
2.05675
2.04445
2.03251
2.02118
2.01047
2.00026
1.99048
1.98083
1.97092
1.96028
1.9487
1.9367
1.92504
1.91412
1.90407
1.89452
1.88498
1.8754
1.86582
1.85623
1.84672
1.83721
1.82768
1.81829
1.80904
1.79998
1.79099
1.7819
1.77292
1.76416
1.75571
1.74765
1.73963
1.73147
1.72323
1.715
1.70696
1.699
1.69094
1.68276
1.67442
1.66613
1.65807
1.65021
1.64261
1.63521
1.6279
1.62067
1.61337
1.60585
1.59806
1.58999
1.58193
1.57417
1.56688
1.56004
1.5534
1.54673
1.53995
1.53294
1.52572
1.51828
1.51062
1.50302
1.4956
1.48842
1.48156
1.47483
1.46819
1.46164
1.45503
1.44846
1.44182
1.43501
1.42818
1.42125
1.41438
1.40773
1.40113
)
;

boundaryField
{
    inlet
    {
        type            fixedValue;
        value           nonuniform 0();
    }
    outlet
    {
        type            zeroGradient;
    }
    bottom
    {
        type            symmetryPlane;
    }
    top
    {
        type            symmetryPlane;
    }
    obstacle
    {
        type            zeroGradient;
    }
    front
    {
        type            empty;
    }
    back
    {
        type            empty;
    }
    procBoundary53to45
    {
        type            processor;
        value           nonuniform List<scalar> 
129
(
1.61977
1.61396
1.60785
1.60351
1.60064
1.5976
1.59368
1.58922
1.5605
1.55641
1.55172
1.54611
1.54067
1.53618
1.53179
1.52718
1.52272
1.51883
1.51467
1.50986
1.5047
1.49991
1.49516
1.49011
1.4848
1.48008
1.4754
1.47041
1.46468
1.45966
1.45517
1.45025
1.44482
1.43989
1.43496
1.42958
1.42359
1.41826
1.41328
1.40851
1.40295
1.39864
1.39528
1.39217
1.39498
1.41151
1.45235
1.52892
1.64541
1.74417
1.85555
1.91257
1.94535
1.97103
1.9721
1.96818
1.96201
1.95312
1.94162
1.93033
1.91981
1.90757
1.89643
1.88724
1.87763
1.86809
1.85899
1.85007
1.84137
1.83257
1.82339
1.81434
1.80589
1.79808
1.79034
1.78228
1.77396
1.76558
1.757
1.74822
1.73949
1.73135
1.72438
1.71806
1.71128
1.70368
1.69593
1.68824
1.68035
1.6724
1.66483
1.65764
1.65066
1.64381
1.6372
1.63093
1.62447
1.61764
1.61082
1.60451
1.59868
1.59273
1.58648
1.57985
1.57287
1.56583
1.55898
1.55243
1.54613
1.53994
1.53391
1.52791
1.52169
1.51519
1.50855
1.50201
1.49562
1.48919
1.48257
1.47596
1.46924
1.46241
1.58435
1.57918
1.57474
1.57085
1.56701
1.56354
1.56354
)
;
    }
    procBoundary53to46
    {
        type            processor;
        value           uniform 1.45201;
    }
    procBoundary53to52
    {
        type            processor;
        value           nonuniform List<scalar> 
18
(
1.62553
1.6289
1.63069
1.62042
1.57558
1.42917
1.1844
1.03765
1.0036
1.00017
1
1
1
1
1
1
1
1
)
;
    }
    procBoundary53to54
    {
        type            processor;
        value           nonuniform List<scalar> 
18
(
1.44738
1.44167
1.43573
1.43039
1.42543
1.42131
1.41761
1.41405
1.41095
1.40842
1.40505
1.40339
1.40074
1.39874
1.39766
1.39757
1.40095
1.39482
)
;
    }
}


// ************************************************************************* //
