/*--------------------------------*- C++ -*----------------------------------*\
  =========                 |
  \\      /  F ield         | OpenFOAM: The Open Source CFD Toolbox
   \\    /   O peration     | Website:  https://openfoam.org
    \\  /    A nd           | Version:  7
     \\/     M anipulation  |
\*---------------------------------------------------------------------------*/
FoamFile
{
    version     2.0;
    format      ascii;
    class       volScalarField;
    location    "20";
    object      p;
}
// * * * * * * * * * * * * * * * * * * * * * * * * * * * * * * * * * * * * * //

dimensions      [0 2 -2 0 0 0 0];

internalField   nonuniform List<scalar> 
21600
(
-0.329974
-0.21697
-0.198238
-0.130874
-0.119505
-0.0842576
-0.0747397
-0.0572868
-0.0488538
-0.0402123
-0.0333255
-0.0288742
-0.0233452
-0.0209998
-0.0167305
-0.330199
-0.217035
-0.198318
-0.130936
-0.119574
-0.084323
-0.0748073
-0.0573566
-0.0489229
-0.0402867
-0.0333961
-0.0289598
-0.02341
-0.0211137
-0.016762
-0.330648
-0.217164
-0.198476
-0.131058
-0.119711
-0.0844532
-0.074942
-0.057496
-0.0490609
-0.0404342
-0.033538
-0.0291255
-0.0235423
-0.0213277
-0.0168327
-0.331315
-0.217354
-0.198711
-0.131238
-0.119915
-0.084647
-0.0751429
-0.057704
-0.0492668
-0.0406522
-0.0337515
-0.0293614
-0.0237456
-0.0216176
-0.016955
-0.332191
-0.217602
-0.199018
-0.131475
-0.120183
-0.0849023
-0.0754081
-0.0579788
-0.0495383
-0.0409365
-0.0340349
-0.0296548
-0.024021
-0.0219532
-0.0171403
-0.333266
-0.217904
-0.199392
-0.131764
-0.120512
-0.0852158
-0.0757344
-0.0583171
-0.0498707
-0.0412808
-0.0343823
-0.029992
-0.0243641
-0.0223051
-0.0173943
-0.334529
-0.218256
-0.199827
-0.1321
-0.120898
-0.085583
-0.0761166
-0.0587132
-0.0502568
-0.0416769
-0.0347834
-0.0303594
-0.0247637
-0.0226495
-0.0177142
-0.33598
-0.218641
-0.200317
-0.132478
-0.121335
-0.0859979
-0.0765479
-0.0591594
-0.0506871
-0.0421141
-0.0352243
-0.0307445
-0.0252025
-0.0229717
-0.018089
-0.337611
-0.219046
-0.200852
-0.132891
-0.121815
-0.0864524
-0.0770191
-0.0596454
-0.0511495
-0.0425795
-0.0356887
-0.0311356
-0.0256607
-0.0232653
-0.0185015
-0.339304
-0.219528
-0.201423
-0.133331
-0.122331
-0.0869373
-0.0775193
-0.0601588
-0.0516307
-0.0430587
-0.0361605
-0.0315216
-0.0261188
-0.02353
-0.0189313
-0.341141
-0.220018
-0.202022
-0.13379
-0.122871
-0.0874414
-0.0780362
-0.0606855
-0.0521172
-0.0435369
-0.0366253
-0.0318928
-0.026561
-0.0237686
-0.0193581
-0.343092
-0.220513
-0.202639
-0.134257
-0.123426
-0.0879525
-0.0785564
-0.0612106
-0.0525958
-0.0439996
-0.0370708
-0.0322408
-0.0269753
-0.0239851
-0.0197646
-0.34512
-0.221014
-0.203264
-0.134724
-0.123983
-0.0884574
-0.0790663
-0.0617194
-0.0530541
-0.0444344
-0.0374875
-0.0325595
-0.0273536
-0.024183
-0.0201404
-0.347203
-0.221514
-0.203887
-0.135177
-0.124531
-0.0889427
-0.0795528
-0.0621982
-0.0534816
-0.044831
-0.037868
-0.0328446
-0.027691
-0.0243636
-0.0204806
-0.349318
-0.222003
-0.204498
-0.135607
-0.125057
-0.0893951
-0.0800036
-0.0626347
-0.0538695
-0.045182
-0.0382072
-0.0330937
-0.0279845
-0.0245267
-0.0207712
-0.351442
-0.222473
-0.205089
-0.136
-0.125548
-0.0898019
-0.0804078
-0.0630187
-0.0542106
-0.0454822
-0.0385014
-0.0333055
-0.0282331
-0.0246725
-0.0210086
-0.353556
-0.222917
-0.205649
-0.136346
-0.125994
-0.0901512
-0.0807559
-0.0633421
-0.0544997
-0.0457284
-0.0387486
-0.0334795
-0.0284366
-0.0247995
-0.0211957
-0.355636
-0.223326
-0.206172
-0.136632
-0.126382
-0.0904328
-0.0810406
-0.0635987
-0.0547333
-0.0459192
-0.0389478
-0.0336153
-0.028596
-0.0249063
-0.0213359
-0.357662
-0.223693
-0.20665
-0.136848
-0.126704
-0.0906376
-0.0812558
-0.0637846
-0.0549092
-0.0460542
-0.0390989
-0.033713
-0.0287127
-0.0249913
-0.0214317
-0.359616
-0.224011
-0.207076
-0.136981
-0.12695
-0.0907586
-0.0813975
-0.0638974
-0.0550262
-0.0461337
-0.0392024
-0.0337723
-0.0287885
-0.0250526
-0.0214859
-0.361479
-0.224273
-0.207442
-0.137023
-0.127113
-0.0907901
-0.081463
-0.063936
-0.055084
-0.0461584
-0.0392592
-0.0337931
-0.0288253
-0.0250883
-0.0215006
-0.363238
-0.22447
-0.207745
-0.136964
-0.127187
-0.0907283
-0.0814506
-0.0639004
-0.0550829
-0.0461296
-0.0392701
-0.0337752
-0.0288252
-0.0250964
-0.0214778
-0.36488
-0.224597
-0.207976
-0.136794
-0.127166
-0.0905708
-0.08136
-0.0637914
-0.0550236
-0.0460482
-0.0392363
-0.0337183
-0.0287901
-0.025075
-0.0214191
-0.366395
-0.224645
-0.208132
-0.136508
-0.127046
-0.0903164
-0.0811914
-0.0636104
-0.0549068
-0.0459156
-0.0391586
-0.0336223
-0.0287218
-0.0250221
-0.0213263
-0.367778
-0.224606
-0.208207
-0.136099
-0.126825
-0.0899651
-0.0809455
-0.0633591
-0.0547335
-0.0457329
-0.0390379
-0.0334872
-0.028622
-0.0249355
-0.0212016
-0.369028
-0.224471
-0.208194
-0.135562
-0.126501
-0.0895177
-0.0806235
-0.0630393
-0.0545047
-0.0455014
-0.0388748
-0.0333131
-0.0284919
-0.0248124
-0.0210452
-0.370145
-0.224232
-0.208089
-0.134894
-0.126073
-0.0889759
-0.0802268
-0.0626527
-0.0542211
-0.045222
-0.0386701
-0.0331006
-0.0283331
-0.0246483
-0.020852
-0.371136
-0.223876
-0.207886
-0.134093
-0.125542
-0.0883415
-0.0797568
-0.0622013
-0.0538838
-0.0448959
-0.038424
-0.0328505
-0.028147
-0.0244359
-0.0206157
-0.372009
-0.223393
-0.207579
-0.133157
-0.124907
-0.0876169
-0.079215
-0.0616869
-0.0534935
-0.044524
-0.0381368
-0.0325646
-0.0279353
-0.0241673
-0.0203534
-0.372777
-0.22277
-0.207165
-0.132087
-0.124169
-0.0868044
-0.0786027
-0.0611109
-0.053051
-0.0441072
-0.0378088
-0.0322449
-0.0276977
-0.0238489
-0.0201222
-0.373456
-0.221994
-0.206638
-0.130883
-0.123331
-0.0859067
-0.0779215
-0.0604751
-0.052557
-0.0436464
-0.0374403
-0.0318934
-0.0274307
-0.0235106
-0.0199975
-0.374064
-0.221052
-0.205994
-0.129547
-0.122393
-0.0849261
-0.0771725
-0.0597807
-0.0520122
-0.0431423
-0.0370315
-0.0315111
-0.0271302
-0.0231753
-0.019893
-0.37462
-0.219932
-0.205228
-0.128082
-0.121356
-0.0838652
-0.0763569
-0.0590291
-0.0514175
-0.0425956
-0.036583
-0.0310986
-0.026796
-0.0228362
-0.0197257
-0.375145
-0.218621
-0.204339
-0.126489
-0.120223
-0.0827263
-0.0754759
-0.0582214
-0.0507734
-0.0420066
-0.0360955
-0.0306559
-0.0264284
-0.0224858
-0.0195068
-0.375659
-0.217108
-0.203322
-0.124772
-0.118995
-0.0815115
-0.0745304
-0.0573589
-0.0500807
-0.0413762
-0.0355696
-0.0301829
-0.0260279
-0.0221196
-0.0192423
-0.37618
-0.215385
-0.202175
-0.122934
-0.117674
-0.0802229
-0.0735214
-0.0564426
-0.0493401
-0.0407046
-0.035006
-0.0296794
-0.0255956
-0.0217344
-0.0189388
-0.376728
-0.213445
-0.200895
-0.12098
-0.11626
-0.0788624
-0.0724498
-0.0554733
-0.0485521
-0.0399925
-0.0344054
-0.0291454
-0.0251323
-0.0213281
-0.0186013
-0.377316
-0.211282
-0.199481
-0.118911
-0.114756
-0.0774318
-0.0713163
-0.0544522
-0.0477176
-0.0392403
-0.0337685
-0.0285809
-0.024639
-0.0208993
-0.0182332
-0.377956
-0.208894
-0.197931
-0.116732
-0.113163
-0.0759328
-0.0701219
-0.0533801
-0.0468372
-0.0384487
-0.033096
-0.0279859
-0.0241165
-0.0204473
-0.017837
-0.378655
-0.20628
-0.196243
-0.114446
-0.111481
-0.0743668
-0.0688671
-0.0522579
-0.0459117
-0.0376181
-0.0323887
-0.0273605
-0.0235656
-0.0199718
-0.0174145
-0.379415
-0.203443
-0.194415
-0.112057
-0.109712
-0.0727353
-0.0675529
-0.0510865
-0.0449416
-0.0367493
-0.031647
-0.0267051
-0.022987
-0.0194725
-0.016967
-0.380236
-0.200386
-0.192445
-0.109567
-0.107856
-0.0710397
-0.0661799
-0.0498667
-0.0439278
-0.0358427
-0.0308719
-0.0260199
-0.0223814
-0.0189497
-0.0164955
-0.381108
-0.197113
-0.190334
-0.10698
-0.105915
-0.0692812
-0.0647489
-0.0485996
-0.042871
-0.0348992
-0.0300638
-0.0253054
-0.0217495
-0.0184035
-0.0160009
-0.38202
-0.193631
-0.188078
-0.1043
-0.10389
-0.0674611
-0.0632606
-0.0472859
-0.041772
-0.0339194
-0.0292234
-0.024562
-0.0210918
-0.0178342
-0.0154838
-0.382955
-0.189946
-0.185677
-0.101527
-0.10178
-0.0655804
-0.0617159
-0.0459265
-0.0406314
-0.0329039
-0.0283515
-0.0237902
-0.0204091
-0.0172421
-0.0149448
-0.38389
-0.186065
-0.183129
-0.0986661
-0.099587
-0.0636405
-0.0601157
-0.0445224
-0.0394503
-0.0318537
-0.0274488
-0.0229907
-0.019702
-0.0166278
-0.0143847
-0.384798
-0.181996
-0.180432
-0.0957185
-0.0973116
-0.0616422
-0.0584606
-0.0430744
-0.0382293
-0.0307694
-0.0265159
-0.0221639
-0.018971
-0.0159916
-0.0138039
-0.385649
-0.177745
-0.177585
-0.0926864
-0.0949544
-0.0595867
-0.0567517
-0.0415836
-0.0369694
-0.029652
-0.0255536
-0.0213106
-0.0182169
-0.015334
-0.013203
-0.386409
-0.173317
-0.174586
-0.089572
-0.092516
-0.0574751
-0.0549899
-0.0400508
-0.0356714
-0.0285021
-0.0245625
-0.0204315
-0.0174403
-0.0146555
-0.0125826
-0.387039
-0.168718
-0.171434
-0.086377
-0.0899972
-0.0553083
-0.0531762
-0.0384771
-0.0343364
-0.0273208
-0.0235436
-0.0195272
-0.0166418
-0.0139567
-0.0119434
-0.387501
-0.163953
-0.168127
-0.0831031
-0.0873988
-0.0530874
-0.0513117
-0.0368635
-0.0329653
-0.0261089
-0.0224975
-0.0185986
-0.0158223
-0.013238
-0.0112859
-0.387752
-0.159024
-0.164664
-0.0797519
-0.0847217
-0.0508135
-0.0493975
-0.0352108
-0.0315591
-0.0248673
-0.0214251
-0.0176463
-0.0149822
-0.0125001
-0.0106108
-0.387749
-0.153935
-0.161042
-0.0763246
-0.0819667
-0.0484875
-0.0474348
-0.0335203
-0.0301189
-0.023597
-0.0203272
-0.0166713
-0.0141225
-0.0117436
-0.0099187
-0.38745
-0.148687
-0.157261
-0.0728225
-0.079135
-0.0461105
-0.045425
-0.0317928
-0.0286459
-0.0222989
-0.0192048
-0.0156742
-0.0132438
-0.010969
-0.00921032
-0.386809
-0.143282
-0.153319
-0.0692468
-0.0762278
-0.0436834
-0.0433694
-0.0300293
-0.0271414
-0.0209738
-0.0180588
-0.014656
-0.0123469
-0.010177
-0.00848635
-0.385784
-0.137719
-0.149215
-0.0655986
-0.0732462
-0.041207
-0.0412701
-0.0282305
-0.0256068
-0.0196226
-0.0168903
-0.0136176
-0.0114325
-0.00936836
-0.00774751
-0.384332
-0.131998
-0.144947
-0.0618788
-0.0701921
-0.038682
-0.0391291
-0.0263973
-0.0240431
-0.018247
-0.0156996
-0.01256
-0.0105013
-0.00854366
-0.00699464
-0.382411
-0.126119
-0.140516
-0.0580882
-0.0670676
-0.036109
-0.0369476
-0.0245317
-0.022451
-0.016849
-0.0144871
-0.011484
-0.00955435
-0.00770364
-0.00622856
-0.379981
-0.120081
-0.135921
-0.0542272
-0.063875
-0.0334899
-0.0347247
-0.0226365
-0.0208329
-0.0154292
-0.0132545
-0.0103896
-0.00859281
-0.00684909
-0.00544999
-0.377004
-0.113883
-0.131163
-0.0502965
-0.0606149
-0.0308261
-0.0324629
-0.0207085
-0.0191976
-0.0139791
-0.0120099
-0.00927556
-0.0076184
-0.0059809
-0.00465936
-0.373445
-0.107523
-0.12624
-0.0462988
-0.057288
-0.0281113
-0.0301851
-0.0187264
-0.017562
-0.0124806
-0.0107675
-0.00814103
-0.00663212
-0.00510006
-0.00385715
-0.369272
-0.101001
-0.121156
-0.042236
-0.0539077
-0.0253181
-0.0279435
-0.0166573
-0.0159298
-0.0109367
-0.0095244
-0.00699292
-0.00563161
-0.00420783
-0.00304441
-0.364453
-0.0943152
-0.115909
-0.0380949
-0.0505185
-0.022417
-0.0257448
-0.0145324
-0.0142472
-0.00943284
-0.00822075
-0.00584516
-0.00461503
-0.00330456
-0.00222237
-0.358963
-0.0874652
-0.110501
-0.0338307
-0.0471622
-0.0194712
-0.0233886
-0.0125049
-0.0125013
-0.00793446
-0.00689159
-0.00468908
-0.00358664
-0.00239057
-0.00139196
-0.352777
-0.0804533
-0.104949
-0.0294252
-0.0437277
-0.0166053
-0.0209379
-0.010487
-0.0107199
-0.00642901
-0.00554634
-0.00352233
-0.00254863
-0.00146663
-0.000553997
-0.345876
-0.0732821
-0.0992893
-0.0250604
-0.0400873
-0.013758
-0.0184357
-0.0084621
-0.00891481
-0.00491165
-0.00418983
-0.00234472
-0.00150234
-0.000533683
0.000290729
-0.338243
-0.0659361
-0.0935183
-0.0206434
-0.0363548
-0.0108993
-0.0158962
-0.00642408
-0.00709223
-0.00338144
-0.00282418
-0.00115715
-0.000448747
0.000407242
0.0011414
-0.329866
-0.0583626
-0.0875152
-0.0162779
-0.0325588
-0.00802301
-0.0133273
-0.00437103
-0.00525589
-0.00183889
-0.00145084
3.91528e-05
0.000611254
0.00135512
0.00199715
-0.320734
-0.0505597
-0.0814219
-0.0118702
-0.0287053
-0.00512687
-0.0107344
-0.00230284
-0.00340844
-0.0002852
-7.09773e-05
0.00124282
0.00167677
0.00230893
0.00285714
-0.310844
-0.0428125
-0.0750438
-0.00741768
-0.0248005
-0.00221042
-0.00812164
-0.000220398
-0.00155197
0.00127813
0.00131434
0.00245249
0.00274685
0.00326765
0.00372046
-0.300195
-0.0348907
-0.0685344
-0.00292587
-0.0208504
0.000725644
-0.00549245
0.00187486
0.000311705
0.00284945
0.002704
0.00366679
0.00382055
0.00423025
0.00458621
-0.288803
-0.0267932
-0.0618992
0.0016034
-0.01686
0.00367986
-0.00284979
0.00398115
0.00218087
0.00442703
0.00409687
0.00488438
0.00489685
0.0051957
0.00545347
-0.276681
-0.0185407
-0.055135
0.00616808
-0.0128339
0.00665028
-0.000196459
0.00609646
0.00405387
0.00600914
0.00549176
0.00610392
0.00597471
0.00616294
0.00632133
-0.263782
-0.0101785
-0.0482485
0.0107653
-0.00877678
0.00963458
0.00246489
0.00821867
0.00592905
0.00759402
0.00688742
0.00732409
0.00705307
0.00713092
0.00718882
-0.250139
-0.00170316
-0.041248
0.0153917
-0.00469314
0.0126302
0.00513165
0.0103456
0.0078047
0.00917992
0.00828255
0.00854357
0.00813086
0.00809856
0.00805499
-0.235798
0.00689483
-0.0341419
0.0200435
-0.000587465
0.0156343
0.00780119
0.0124748
0.00967911
0.0107651
0.00967582
0.00976106
0.00920697
0.00906477
0.00891885
-0.220775
0.0156052
-0.026939
0.0247167
0.00353566
0.0186439
0.0104709
0.0146041
0.0115505
0.0123478
0.0110659
0.0109752
0.0102803
0.0100285
0.00977939
-0.205091
0.024417
-0.0196486
0.0294068
0.00767158
0.0216561
0.013138
0.0167311
0.0134171
0.0139263
0.0124513
0.0121848
0.0113497
0.0109885
0.0106355
-0.188773
0.0333203
-0.0122801
0.0341091
0.0118156
0.0246674
0.0158
0.0188534
0.0152771
0.0154988
0.0138306
0.0133884
0.012414
0.0119437
0.0114859
-0.171855
0.0423047
-0.00484384
0.0388188
0.0159627
0.0276747
0.0184539
0.0209687
0.0171285
0.0170637
0.0152024
0.0145848
0.0134722
0.0128929
0.0123296
-0.154371
0.0513587
0.00264973
0.0435306
0.0201082
0.0306746
0.021097
0.0230744
0.0189695
0.0186192
0.0165652
0.0157726
0.0145231
0.0138349
0.0131651
-0.13636
0.0604705
0.0101897
0.0482392
0.0242468
0.0336636
0.0237264
0.0251681
0.0207982
0.0201635
0.0179176
0.0169505
0.0155655
0.0147684
0.0139903
-0.11786
0.0696273
0.0177645
0.0529389
0.0283735
0.0366381
0.0263393
0.0272476
0.0226125
0.021695
0.0192581
0.0181172
0.0165983
0.0156918
0.0148023
-0.0989173
0.0788158
0.0253627
0.057624
0.032483
0.0395946
0.0289326
0.0293102
0.0244105
0.023212
0.0205852
0.0192715
0.0176203
0.0166036
0.0155999
-0.0795759
0.0880221
0.0329719
0.0622884
0.0365699
0.0425295
0.0315033
0.0313535
0.0261902
0.0247127
0.0218974
0.020412
0.0186305
0.0175035
0.0163839
-0.0598843
0.0972317
0.0405798
0.0669261
0.0406289
0.0454391
0.0340486
0.0333752
0.0279496
0.0261955
0.0231931
0.0215374
0.0196282
0.0183915
0.0171499
-0.0398924
0.10643
0.0481736
0.0715308
0.0446544
0.0483196
0.0365652
0.0353728
0.0296867
0.0276586
0.0244711
0.0226465
0.0206131
0.0192649
0.0178787
-0.019652
0.115601
0.0557404
0.0760961
0.0486408
0.0511674
0.0390502
0.0373438
0.0313995
0.0291004
0.0257296
0.0237385
0.0215845
0.0201152
0.0185501
0.000783558
0.124729
0.063267
0.0806155
0.0525827
0.0539787
0.0415005
0.0392859
0.033086
0.0305192
0.0269674
0.0248126
0.0225407
0.0209336
0.019174
0.0213595
0.133798
0.0707399
0.0850824
0.0564744
0.0567498
0.0439129
0.0411966
0.0347442
0.0319133
0.0281831
0.025868
0.023479
0.0217189
0.0197906
0.04202
0.142792
0.0781457
0.0894903
0.0603101
0.0594769
0.0462845
0.0430736
0.0363721
0.0332811
0.0293755
0.0269035
0.0243956
0.0224717
0.0205058
0.062708
0.151695
0.0854706
0.0938324
0.0640843
0.0621563
0.0486121
0.0449144
0.0379677
0.0346209
0.0305432
0.0279175
0.0252882
0.0232182
0.0212216
0.083366
0.160488
0.092701
0.098102
0.0677914
0.0647842
0.0508928
0.0467168
0.0395291
0.0359312
0.0316851
0.0289085
0.0261573
0.0239585
0.0219217
0.103936
0.169156
0.0998231
0.102292
0.0714256
0.067357
0.0531234
0.0484783
0.0410544
0.0372105
0.0327997
0.0298754
0.0270036
0.02469
0.022608
0.12436
0.177682
0.106823
0.106397
0.0749815
0.0698709
0.0553009
0.0501968
0.0425416
0.0384572
0.0338858
0.0308169
0.027827
0.025409
0.0232765
0.144578
0.186048
0.113687
0.110408
0.0784534
0.0723224
0.0574225
0.05187
0.0439888
0.0396698
0.0349422
0.031732
0.0286273
0.0261133
0.0239264
0.164534
0.194238
0.120403
0.114321
0.0818359
0.0747079
0.0594852
0.0534956
0.0453943
0.0408468
0.0359674
0.0326197
0.029404
0.0268005
0.0245567
0.184169
0.202235
0.126955
0.118128
0.0851236
0.0770238
0.061486
0.0550715
0.0467563
0.0419868
0.0369604
0.0334789
0.0301563
0.0274687
0.0251662
0.203426
0.210022
0.133331
0.121822
0.0883112
0.0792668
0.0634223
0.0565956
0.0480729
0.0430884
0.0379197
0.0343087
0.0308835
0.0281165
0.0257541
0.222249
0.217582
0.139519
0.125398
0.0913935
0.0814334
0.0652913
0.0580659
0.0493424
0.0441501
0.0388443
0.0351081
0.0315845
0.0287424
0.0263196
0.240581
0.224901
0.145505
0.128848
0.0943655
0.0835203
0.0670902
0.0594802
0.0505632
0.0451708
0.039733
0.0358762
0.0322586
0.0293452
0.0268621
0.25837
0.231962
0.151276
0.132168
0.0972222
0.0855244
0.0688166
0.0608368
0.0517337
0.0461489
0.0405846
0.036612
0.0329048
0.0299238
0.0273807
0.275562
0.23875
0.156821
0.135351
0.0999588
0.0874425
0.0704678
0.0621337
0.0528523
0.0470834
0.0413982
0.0373147
0.0335224
0.0304771
0.027875
0.292106
0.24525
0.162129
0.138391
0.102571
0.0892717
0.0720415
0.063369
0.0539175
0.047973
0.0421725
0.0379834
0.0341104
0.0310043
0.0283445
0.307953
0.251448
0.167187
0.141284
0.105054
0.0910091
0.0735354
0.0645412
0.0549279
0.0488166
0.0429067
0.0386173
0.0346681
0.0315046
0.0287886
0.323055
0.25733
0.171984
0.144022
0.107403
0.0926519
0.0749472
0.0656484
0.0558821
0.049613
0.0435998
0.0392156
0.0351947
0.0319771
0.0292069
0.337367
0.262883
0.176512
0.146603
0.109615
0.0941976
0.0762748
0.0666892
0.0567787
0.0503612
0.0442509
0.0397775
0.0356895
0.0324213
0.0295991
0.350846
0.268094
0.180759
0.14902
0.111686
0.0956437
0.0775163
0.0676621
0.0576167
0.0510602
0.0448591
0.0403024
0.0361519
0.0328363
0.0299647
0.363451
0.272952
0.184716
0.151269
0.113612
0.0969878
0.0786697
0.0685657
0.0583948
0.0517091
0.0454237
0.0407895
0.0365812
0.0332217
0.0303035
0.375145
0.277445
0.188375
0.153346
0.115389
0.0982277
0.0797334
0.0693987
0.0591119
0.0523071
0.0459439
0.0412383
0.0369767
0.0335768
0.0306151
0.385892
0.281564
0.191728
0.155247
0.117016
0.0993616
0.0807056
0.0701599
0.059767
0.0528533
0.0464191
0.0416481
0.0373381
0.0339013
0.0308993
0.395659
0.285299
0.194768
0.156969
0.118488
0.100387
0.081585
0.0708481
0.0603593
0.053347
0.0468485
0.0420185
0.0376647
0.0341945
0.0311558
0.404417
0.28864
0.197487
0.158508
0.119803
0.101304
0.0823701
0.0714624
0.060888
0.0537875
0.0472317
0.0423489
0.0379561
0.0344562
0.0313845
0.41214
0.291581
0.199879
0.159861
0.120959
0.102109
0.0830597
0.072002
0.0613521
0.0541743
0.0475681
0.042639
0.038212
0.034686
0.0315851
0.418803
0.294115
0.20194
0.161026
0.121953
0.102801
0.0836528
0.0724659
0.0617512
0.0545068
0.0478573
0.0428883
0.038432
0.0348835
0.0317572
0.424387
0.296236
0.203665
0.162
0.122785
0.10338
0.0841485
0.0728536
0.0620847
0.0547846
0.0480989
0.0430966
0.0386158
0.0350485
0.0319008
0.428875
0.297939
0.205049
0.162782
0.123452
0.103844
0.084546
0.0731644
0.062352
0.0550073
0.0482925
0.0432636
0.0387631
0.0351808
0.0320159
0.432253
0.299219
0.20609
0.163369
0.123954
0.104193
0.0848447
0.0733979
0.0625528
0.0551746
0.048438
0.043389
0.0388738
0.0352802
0.0321022
0.434511
0.300074
0.206785
0.163761
0.124289
0.104426
0.0850441
0.0735538
0.0626869
0.0552862
0.0485351
0.0434727
0.0389476
0.0353465
0.0321597
0.435641
0.300502
0.207133
0.163958
0.124456
0.104542
0.0851438
0.0736318
0.0627539
0.0553421
0.0485837
0.0435145
0.0389846
0.0353797
0.0321885
0.435641
0.300502
0.207133
0.163958
0.124456
0.104542
0.0851438
0.0736318
0.0627539
0.0553421
0.0485837
0.0435145
0.0389846
0.0353797
0.0321885
0.434511
0.300074
0.206785
0.163761
0.124289
0.104426
0.0850441
0.0735538
0.0626869
0.0552862
0.0485351
0.0434727
0.0389476
0.0353465
0.0321597
0.432253
0.299219
0.20609
0.163369
0.123954
0.104193
0.0848447
0.0733979
0.0625528
0.0551746
0.048438
0.043389
0.0388738
0.0352802
0.0321022
0.428875
0.297939
0.205049
0.162782
0.123452
0.103844
0.084546
0.0731644
0.062352
0.0550073
0.0482925
0.0432636
0.0387631
0.0351808
0.0320159
0.424387
0.296236
0.203664
0.162
0.122785
0.10338
0.0841485
0.0728536
0.0620847
0.0547846
0.0480989
0.0430966
0.0386158
0.0350485
0.0319008
0.418803
0.294115
0.20194
0.161026
0.121953
0.102801
0.0836528
0.0724659
0.0617512
0.0545068
0.0478573
0.0428883
0.038432
0.0348835
0.0317572
0.41214
0.291581
0.199879
0.159861
0.120959
0.102109
0.0830597
0.072002
0.0613521
0.0541743
0.0475681
0.042639
0.038212
0.034686
0.0315851
0.404417
0.28864
0.197487
0.158508
0.119803
0.101304
0.0823701
0.0714624
0.060888
0.0537875
0.0472317
0.0423489
0.0379561
0.0344562
0.0313845
0.395659
0.285299
0.194768
0.156969
0.118488
0.100387
0.081585
0.0708481
0.0603593
0.053347
0.0468485
0.0420185
0.0376647
0.0341945
0.0311558
0.385892
0.281564
0.191728
0.155247
0.117016
0.0993616
0.0807056
0.0701599
0.059767
0.0528533
0.0464191
0.0416481
0.0373381
0.0339013
0.0308993
0.375145
0.277445
0.188375
0.153346
0.115389
0.0982277
0.0797334
0.0693987
0.0591119
0.0523071
0.0459439
0.0412383
0.0369767
0.0335768
0.0306151
0.363451
0.272952
0.184716
0.151269
0.113612
0.0969878
0.0786697
0.0685657
0.0583948
0.0517091
0.0454237
0.0407895
0.0365812
0.0332217
0.0303035
0.350846
0.268094
0.180759
0.14902
0.111686
0.0956437
0.0775163
0.0676621
0.0576167
0.0510602
0.0448591
0.0403024
0.0361519
0.0328363
0.0299647
0.337367
0.262883
0.176512
0.146603
0.109615
0.0941976
0.0762748
0.0666892
0.0567787
0.0503612
0.0442509
0.0397775
0.0356895
0.0324213
0.0295991
0.323055
0.25733
0.171984
0.144022
0.107403
0.0926519
0.0749472
0.0656484
0.0558821
0.049613
0.0435998
0.0392156
0.0351947
0.0319771
0.0292069
0.307953
0.251448
0.167187
0.141284
0.105054
0.0910091
0.0735354
0.0645412
0.0549279
0.0488166
0.0429067
0.0386173
0.0346681
0.0315046
0.0287886
0.292106
0.245251
0.162129
0.138391
0.102571
0.0892717
0.0720415
0.063369
0.0539175
0.047973
0.0421725
0.0379834
0.0341104
0.0310043
0.0283445
0.275562
0.23875
0.156821
0.135351
0.0999588
0.0874425
0.0704678
0.0621337
0.0528523
0.0470834
0.0413982
0.0373147
0.0335224
0.0304771
0.027875
0.25837
0.231962
0.151276
0.132168
0.0972222
0.0855244
0.0688166
0.0608368
0.0517337
0.0461489
0.0405846
0.036612
0.0329048
0.0299238
0.0273807
0.240581
0.224901
0.145505
0.128848
0.0943655
0.0835203
0.0670902
0.0594802
0.0505632
0.0451708
0.039733
0.0358762
0.0322586
0.0293452
0.0268621
0.222249
0.217582
0.139519
0.125398
0.0913935
0.0814334
0.0652913
0.0580659
0.0493424
0.0441501
0.0388443
0.0351081
0.0315845
0.0287424
0.0263196
0.203426
0.210022
0.133331
0.121822
0.0883112
0.0792668
0.0634223
0.0565956
0.0480729
0.0430884
0.0379197
0.0343087
0.0308835
0.0281165
0.0257541
0.184169
0.202235
0.126955
0.118128
0.0851236
0.0770239
0.061486
0.0550715
0.0467563
0.0419868
0.0369604
0.0334789
0.0301563
0.0274687
0.0251662
0.164534
0.194238
0.120403
0.114321
0.0818359
0.0747079
0.0594851
0.0534956
0.0453943
0.0408468
0.0359674
0.0326197
0.029404
0.0268005
0.0245567
0.144578
0.186048
0.113687
0.110408
0.0784534
0.0723224
0.0574225
0.05187
0.0439888
0.0396698
0.0349422
0.031732
0.0286273
0.0261133
0.0239264
0.12436
0.177682
0.106823
0.106397
0.0749814
0.0698709
0.0553009
0.0501968
0.0425416
0.0384572
0.0338858
0.0308169
0.027827
0.025409
0.0232765
0.103936
0.169156
0.099823
0.102292
0.0714256
0.067357
0.0531234
0.0484783
0.0410544
0.0372105
0.0327997
0.0298754
0.0270036
0.02469
0.022608
0.083366
0.160488
0.0927009
0.098102
0.0677914
0.0647842
0.0508928
0.0467168
0.0395291
0.0359313
0.0316851
0.0289085
0.0261573
0.0239585
0.0219217
0.062708
0.151695
0.0854706
0.0938324
0.0640843
0.0621563
0.0486121
0.0449144
0.0379677
0.0346209
0.0305432
0.0279175
0.0252882
0.0232182
0.0212216
0.04202
0.142793
0.0781456
0.0894904
0.0603101
0.059477
0.0462845
0.0430736
0.0363721
0.0332811
0.0293755
0.0269035
0.0243956
0.0224717
0.0205058
0.0213595
0.133798
0.0707398
0.0850825
0.0564743
0.0567498
0.0439129
0.0411966
0.0347442
0.0319133
0.0281831
0.025868
0.023479
0.0217189
0.0197906
0.000783495
0.124729
0.0632669
0.0806155
0.0525827
0.0539788
0.0415005
0.0392859
0.033086
0.0305192
0.0269674
0.0248126
0.0225407
0.0209336
0.019174
-0.0196521
0.115601
0.0557403
0.0760961
0.0486408
0.0511674
0.0390502
0.0373439
0.0313995
0.0291004
0.0257296
0.0237385
0.0215845
0.0201152
0.0185501
-0.0398925
0.10643
0.0481735
0.0715308
0.0446543
0.0483196
0.0365652
0.0353728
0.0296867
0.0276586
0.0244711
0.0226465
0.0206131
0.0192649
0.0178787
-0.0598844
0.0972318
0.0405797
0.0669261
0.0406289
0.0454391
0.0340486
0.0333752
0.0279496
0.0261955
0.0231931
0.0215374
0.0196282
0.0183915
0.0171499
-0.079576
0.0880222
0.0329718
0.0622884
0.0365699
0.0425295
0.0315033
0.0313535
0.0261902
0.0247127
0.0218974
0.020412
0.0186305
0.0175035
0.0163839
-0.0989174
0.078816
0.0253626
0.057624
0.032483
0.0395947
0.0289326
0.0293102
0.0244105
0.023212
0.0205852
0.0192715
0.0176203
0.0166036
0.0155999
-0.11786
0.0696275
0.0177645
0.052939
0.0283735
0.0366381
0.0263393
0.0272476
0.0226125
0.021695
0.0192581
0.0181172
0.0165983
0.0156918
0.0148023
-0.13636
0.0604707
0.0101896
0.0482392
0.0242468
0.0336636
0.0237264
0.0251681
0.0207982
0.0201635
0.0179176
0.0169505
0.0155655
0.0147684
0.0139903
-0.154371
0.0513589
0.00264968
0.0435307
0.0201082
0.0306746
0.021097
0.0230744
0.0189695
0.0186192
0.0165652
0.0157726
0.0145231
0.0138349
0.0131651
-0.171855
0.0423048
-0.00484388
0.0388188
0.0159627
0.0276748
0.0184539
0.0209687
0.0171285
0.0170637
0.0152024
0.0145848
0.0134722
0.0128929
0.0123296
-0.188773
0.0333204
-0.0122801
0.0341092
0.0118156
0.0246674
0.0158
0.0188534
0.0152771
0.0154988
0.0138306
0.0133884
0.012414
0.0119437
0.0114859
-0.205091
0.0244171
-0.0196486
0.0294068
0.00767157
0.0216561
0.013138
0.0167311
0.0134171
0.0139263
0.0124513
0.0121848
0.0113497
0.0109885
0.0106355
-0.220775
0.0156053
-0.0269391
0.0247167
0.00353565
0.018644
0.0104709
0.0146041
0.0115505
0.0123478
0.0110659
0.0109752
0.0102803
0.0100285
0.00977938
-0.235798
0.00689491
-0.0341419
0.0200435
-0.000587474
0.0156343
0.00780118
0.0124748
0.00967911
0.0107651
0.00967582
0.00976106
0.00920697
0.00906477
0.00891885
-0.250139
-0.00170309
-0.041248
0.0153917
-0.00469315
0.0126302
0.00513164
0.0103456
0.0078047
0.00917992
0.00828255
0.00854357
0.00813086
0.00809856
0.00805499
-0.263782
-0.0101784
-0.0482485
0.0107653
-0.00877679
0.0096346
0.00246489
0.00821868
0.00592904
0.00759402
0.00688742
0.00732409
0.00705307
0.00713092
0.00718882
-0.276681
-0.0185406
-0.0551351
0.0061681
-0.0128339
0.0066503
-0.000196462
0.00609647
0.00405387
0.00600914
0.00549176
0.00610392
0.00597471
0.00616294
0.00632133
-0.288803
-0.0267932
-0.0618992
0.00160343
-0.01686
0.00367988
-0.0028498
0.00398115
0.00218087
0.00442703
0.00409687
0.00488438
0.00489685
0.0051957
0.00545347
-0.300195
-0.0348907
-0.0685344
-0.00292584
-0.0208504
0.000725656
-0.00549245
0.00187486
0.000311703
0.00284945
0.002704
0.00366679
0.00382055
0.00423025
0.00458621
-0.310844
-0.0428124
-0.0750438
-0.00741766
-0.0248006
-0.00221041
-0.00812164
-0.000220393
-0.00155197
0.00127813
0.00131434
0.00245249
0.00274685
0.00326765
0.00372045
-0.320734
-0.0505596
-0.0814219
-0.0118701
-0.0287053
-0.00512686
-0.0107344
-0.00230284
-0.00340844
-0.000285199
-7.09781e-05
0.00124282
0.00167676
0.00230893
0.00285714
-0.329866
-0.0583626
-0.0875152
-0.0162779
-0.0325588
-0.008023
-0.0133273
-0.00437102
-0.00525589
-0.00183889
-0.00145084
3.91529e-05
0.000611253
0.00135512
0.00199715
-0.338244
-0.065936
-0.0935183
-0.0206433
-0.0363548
-0.0108993
-0.0158962
-0.00642408
-0.00709223
-0.00338144
-0.00282418
-0.00115715
-0.000448748
0.000407241
0.00114139
-0.345876
-0.0732821
-0.0992894
-0.0250604
-0.0400874
-0.013758
-0.0184357
-0.00846209
-0.00891481
-0.00491165
-0.00418983
-0.00234472
-0.00150234
-0.000533683
0.000290728
-0.352777
-0.0804533
-0.104949
-0.0294252
-0.0437278
-0.0166053
-0.0209379
-0.010487
-0.0107199
-0.00642901
-0.00554635
-0.00352233
-0.00254863
-0.00146663
-0.000553998
-0.358963
-0.0874651
-0.110501
-0.0338307
-0.0471622
-0.0194712
-0.0233886
-0.0125049
-0.0125013
-0.00793446
-0.00689159
-0.00468908
-0.00358664
-0.00239057
-0.00139196
-0.364453
-0.0943151
-0.115909
-0.0380949
-0.0505185
-0.022417
-0.0257448
-0.0145324
-0.0142472
-0.00943284
-0.00822075
-0.00584516
-0.00461503
-0.00330456
-0.00222237
-0.369272
-0.101001
-0.121156
-0.042236
-0.0539077
-0.0253181
-0.0279435
-0.0166573
-0.0159298
-0.0109367
-0.0095244
-0.00699292
-0.00563161
-0.00420783
-0.00304441
-0.373445
-0.107523
-0.12624
-0.0462988
-0.057288
-0.0281113
-0.0301851
-0.0187264
-0.017562
-0.0124806
-0.0107676
-0.00814103
-0.00663213
-0.00510006
-0.00385715
-0.377004
-0.113883
-0.131163
-0.0502965
-0.0606149
-0.0308261
-0.0324629
-0.0207085
-0.0191976
-0.0139791
-0.0120099
-0.00927556
-0.0076184
-0.0059809
-0.00465936
-0.379981
-0.120081
-0.135921
-0.0542272
-0.063875
-0.0334899
-0.0347247
-0.0226365
-0.0208329
-0.0154292
-0.0132545
-0.0103896
-0.00859281
-0.00684909
-0.00544999
-0.382411
-0.126119
-0.140516
-0.0580882
-0.0670677
-0.036109
-0.0369476
-0.0245317
-0.022451
-0.016849
-0.0144871
-0.011484
-0.00955435
-0.00770364
-0.00622857
-0.384332
-0.131998
-0.144947
-0.0618788
-0.0701921
-0.038682
-0.0391291
-0.0263973
-0.0240431
-0.018247
-0.0156996
-0.01256
-0.0105013
-0.00854366
-0.00699464
-0.385784
-0.137719
-0.149215
-0.0655986
-0.0732462
-0.041207
-0.0412701
-0.0282305
-0.0256068
-0.0196226
-0.0168903
-0.0136176
-0.0114325
-0.00936836
-0.00774751
-0.386809
-0.143282
-0.153319
-0.0692468
-0.0762278
-0.0436833
-0.0433694
-0.0300293
-0.0271414
-0.0209738
-0.0180588
-0.014656
-0.0123469
-0.010177
-0.00848635
-0.38745
-0.148687
-0.157261
-0.0728225
-0.079135
-0.0461105
-0.045425
-0.0317928
-0.0286459
-0.0222989
-0.0192048
-0.0156742
-0.0132438
-0.010969
-0.00921033
-0.387749
-0.153935
-0.161042
-0.0763246
-0.0819667
-0.0484875
-0.0474348
-0.0335203
-0.0301189
-0.023597
-0.0203272
-0.0166713
-0.0141225
-0.0117436
-0.0099187
-0.387752
-0.159024
-0.164664
-0.0797519
-0.0847217
-0.0508135
-0.0493975
-0.0352108
-0.0315591
-0.0248673
-0.0214251
-0.0176463
-0.0149822
-0.0125001
-0.0106108
-0.387501
-0.163953
-0.168127
-0.0831031
-0.0873988
-0.0530874
-0.0513117
-0.0368635
-0.0329653
-0.0261089
-0.0224975
-0.0185986
-0.0158223
-0.013238
-0.0112859
-0.387039
-0.168718