/*--------------------------------*- C++ -*----------------------------------*\
  =========                 |
  \\      /  F ield         | OpenFOAM: The Open Source CFD Toolbox
   \\    /   O peration     | Website:  https://openfoam.org
    \\  /    A nd           | Version:  7
     \\/     M anipulation  |
\*---------------------------------------------------------------------------*/
FoamFile
{
    version     2.0;
    format      ascii;
    class       volVectorField;
    location    "0.4";
    object      U;
}
// * * * * * * * * * * * * * * * * * * * * * * * * * * * * * * * * * * * * * //

dimensions      [0 1 -1 0 0 0 0];

internalField   nonuniform List<vector> 
10000
(
(3.04179e-06 -3.07987e-06 0)
(1.52186e-05 -7.90999e-06 0)
(3.46947e-05 -9.14222e-06 0)
(5.30621e-05 -7.90368e-06 0)
(6.51765e-05 -5.35228e-06 0)
(6.85454e-05 -2.16011e-06 0)
(6.18706e-05 1.29888e-06 0)
(4.45545e-05 4.81227e-06 0)
(1.64685e-05 8.25939e-06 0)
(-2.22152e-05 1.15709e-05 0)
(-7.11302e-05 1.47067e-05 0)
(-0.000129782 1.76428e-05 0)
(-0.000197592 2.03653e-05 0)
(-0.000273924 2.28667e-05 0)
(-0.000358106 2.51438e-05 0)
(-0.000449445 2.71967e-05 0)
(-0.000547236 2.9027e-05 0)
(-0.00065077 3.06376e-05 0)
(-0.000759341 3.20322e-05 0)
(-0.00087225 3.32154e-05 0)
(-0.000988806 3.41928e-05 0)
(-0.00110833 3.49701e-05 0)
(-0.00123017 3.55533e-05 0)
(-0.00135368 3.59484e-05 0)
(-0.00147822 3.61617e-05 0)
(-0.0016032 3.61993e-05 0)
(-0.00172801 3.6068e-05 0)
(-0.00185211 3.57742e-05 0)
(-0.00197492 3.53246e-05 0)
(-0.00209594 3.47257e-05 0)
(-0.00221466 3.39839e-05 0)
(-0.00233059 3.31057e-05 0)
(-0.00244327 3.20976e-05 0)
(-0.00255226 3.09661e-05 0)
(-0.00265714 2.97177e-05 0)
(-0.00275752 2.83587e-05 0)
(-0.00285303 2.68956e-05 0)
(-0.00294331 2.53348e-05 0)
(-0.00302803 2.36827e-05 0)
(-0.00310689 2.19458e-05 0)
(-0.0031796 2.01306e-05 0)
(-0.0032459 1.82434e-05 0)
(-0.00330555 1.6291e-05 0)
(-0.00335834 1.42798e-05 0)
(-0.00340407 1.22165e-05 0)
(-0.00344258 1.01079e-05 0)
(-0.00347372 7.96076e-06 0)
(-0.00349737 5.78201e-06 0)
(-0.00351344 3.57865e-06 0)
(-0.00352185 1.35784e-06 0)
(-0.00352255 -8.73212e-07 0)
(-0.00351553 -3.10713e-06 0)
(-0.0035008 -5.33643e-06 0)
(-0.00347838 -7.5535e-06 0)
(-0.00344833 -9.75061e-06 0)
(-0.00341074 -1.19199e-05 0)
(-0.00336572 -1.40535e-05 0)
(-0.00331341 -1.61433e-05 0)
(-0.00325399 -1.81811e-05 0)
(-0.00318764 -2.01588e-05 0)
(-0.0031146 -2.2068e-05 0)
(-0.00303511 -2.39002e-05 0)
(-0.00294947 -2.56472e-05 0)
(-0.00285799 -2.73005e-05 0)
(-0.00276099 -2.88518e-05 0)
(-0.00265886 -3.02926e-05 0)
(-0.00255199 -3.16148e-05 0)
(-0.00244081 -3.281e-05 0)
(-0.00232576 -3.38701e-05 0)
(-0.00220732 -3.47873e-05 0)
(-0.00208601 -3.55537e-05 0)
(-0.00196235 -3.61619e-05 0)
(-0.0018369 -3.66045e-05 0)
(-0.00171023 -3.68744e-05 0)
(-0.00158294 -3.6965e-05 0)
(-0.00145566 -3.68699e-05 0)
(-0.00132902 -3.65832e-05 0)
(-0.00120368 -3.60994e-05 0)
(-0.00108031 -3.54133e-05 0)
(-0.000959604 -3.45205e-05 0)
(-0.00084225 -3.3417e-05 0)
(-0.000728953 -3.20997e-05 0)
(-0.000620423 -3.05662e-05 0)
(-0.000517368 -2.88147e-05 0)
(-0.000420494 -2.68446e-05 0)
(-0.000330499 -2.46565e-05 0)
(-0.000248064 -2.2253e-05 0)
(-0.000173846 -1.96389e-05 0)
(-0.000108467 -1.6822e-05 0)
(-5.25022e-05 -1.38138e-05 0)
(-6.4527e-06 -1.06327e-05 0)
(2.92782e-05 -7.30771e-06 0)
(5.44285e-05 -3.88487e-06 0)
(6.89422e-05 -4.38917e-07 0)
(7.30748e-05 2.90446e-06 0)
(6.75578e-05 5.92911e-06 0)
(5.38267e-05 8.2615e-06 0)
(3.44938e-05 9.23963e-06 0)
(1.4748e-05 7.74825e-06 0)
(2.82356e-06 2.82233e-06 0)
(7.88734e-06 -1.52722e-05 0)
(3.20486e-05 -3.20736e-05 0)
(6.45624e-05 -3.43392e-05 0)
(9.0725e-05 -2.63304e-05 0)
(0.000100778 -1.19769e-05 0)
(8.90714e-05 6.05302e-06 0)
(5.2128e-05 2.60132e-05 0)
(-1.19775e-05 4.67611e-05 0)
(-0.000104006 6.75486e-05 0)
(-0.000223893 8.78802e-05 0)
(-0.000370988 0.000107425 0)
(-0.000544231 0.00012596 0)
(-0.000742267 0.000143333 0)
(-0.000963534 0.000159445 0)
(-0.00120633 0.00017423 0)
(-0.00146884 0.000187652 0)
(-0.00174921 0.00019969 0)
(-0.00204555 0.000210341 0)
(-0.00235592 0.00021961 0)
(-0.00267843 0.000227511 0)
(-0.00301117 0.000234066 0)
(-0.00335226 0.0002393 0)
(-0.00369987 0.000243243 0)
(-0.00405218 0.000245929 0)
(-0.00440744 0.000247393 0)
(-0.00476392 0.000247671 0)
(-0.00511997 0.000246804 0)
(-0.00547398 0.00024483 0)
(-0.00582437 0.000241792 0)
(-0.00616967 0.000237731 0)
(-0.00650842 0.00023269 0)
(-0.00683924 0.00022671 0)
(-0.00716082 0.000219835 0)
(-0.00747189 0.000212109 0)
(-0.00777125 0.000203575 0)
(-0.00805778 0.000194276 0)
(-0.00833039 0.000184257 0)
(-0.00858807 0.000173562 0)
(-0.0088299 0.000162235 0)
(-0.00905497 0.000150321 0)
(-0.00926247 0.000137866 0)
(-0.00945166 0.000124913 0)
(-0.00962185 0.000111509 0)
(-0.00977243 9.77009e-05 0)
(-0.00990283 8.35343e-05 0)
(-0.0100126 6.90567e-05 0)
(-0.0101013 5.4316e-05 0)
(-0.0101686 3.93605e-05 0)
(-0.0102142 2.42394e-05 0)
(-0.0102379 9.00252e-06 0)
(-0.0102396 -6.29969e-06 0)
(-0.0102193 -2.16159e-05 0)
(-0.0101769 -3.68941e-05 0)
(-0.0101126 -5.20815e-05 0)
(-0.0100266 -6.71247e-05 0)
(-0.00991897 -8.19695e-05 0)
(-0.0097902 -9.6561e-05 0)
(-0.00964065 -0.000110844 0)
(-0.00947083 -0.000124763 0)
(-0.00928129 -0.000138261 0)
(-0.00907269 -0.000151281 0)
(-0.00884576 -0.000163768 0)
(-0.00860132 -0.000175663 0)
(-0.00834026 -0.00018691 0)
(-0.00806356 -0.000197454 0)
(-0.00777227 -0.000207237 0)
(-0.00746753 -0.000216205 0)
(-0.00715056 -0.000224303 0)
(-0.00682263 -0.000231477 0)
(-0.00648513 -0.000237675 0)
(-0.00613947 -0.000242847 0)
(-0.00578718 -0.000246944 0)
(-0.00542981 -0.000249919 0)
(-0.00506901 -0.000251727 0)
(-0.00470647 -0.000252327 0)
(-0.00434394 -0.000251681 0)
(-0.00398321 -0.000249752 0)
(-0.00362614 -0.00024651 0)
(-0.00327458 -0.000241926 0)
(-0.00293047 -0.000235979 0)
(-0.00259572 -0.000228652 0)
(-0.00227229 -0.000219933 0)
(-0.00196211 -0.000209819 0)
(-0.00166713 -0.000198314 0)
(-0.00138925 -0.000185434 0)
(-0.00113034 -0.000171205 0)
(-0.000892189 -0.000155671 0)
(-0.000676513 -0.000138896 0)
(-0.000484881 -0.00012097 0)
(-0.000318689 -0.000102018 0)
(-0.000179094 -8.22186e-05 0)
(-6.69246e-05 -6.1819e-05 0)
(1.74308e-05 -4.11758e-05 0)
(7.41911e-05 -2.08056e-05 0)
(0.000104417 -1.47166e-06 0)
(0.000110335 1.56823e-05 0)
(9.57015e-05 2.89345e-05 0)
(6.63794e-05 3.569e-05 0)
(3.22101e-05 3.22062e-05 0)
(7.74238e-06 1.47339e-05 0)
(9.1596e-06 -3.47376e-05 0)
(3.44694e-05 -6.46167e-05 0)
(6.35914e-05 -6.33334e-05 0)
(7.89439e-05 -3.98774e-05 0)
(6.87467e-05 -1.59926e-06 0)
(2.56755e-05 4.6005e-05 0)
(-5.51173e-05 9.89789e-05 0)
(-0.000176531 0.000154523 0)
(-0.000339899 0.000210667 0)
(-0.000545369 0.000266023 0)
(-0.000792207 0.00031961 0)
(-0.00107902 0.000370733 0)
(-0.00140392 0.000418901 0)
(-0.00176467 0.00046377 0)
(-0.00215876 0.000505105 0)
(-0.00258351 0.000542753 0)
(-0.00303609 0.000576619 0)
(-0.00351362 0.000606658 0)
(-0.00401314 0.000632858 0)
(-0.00453169 0.000655237 0)
(-0.00506632 0.000673835 0)
(-0.0056141 0.000688708 0)
(-0.00617211 0.000699927 0)
(-0.00673753 0.000707575 0)
(-0.00730757 0.000711743 0)
(-0.00787949 0.00071253 0)
(-0.00845067 0.000710039 0)
(-0.00901853 0.00070438 0)
(-0.00958059 0.000695666 0)
(-0.0101345 0.000684011 0)
(-0.0106778 0.000669535 0)
(-0.0112085 0.000652358 0)
(-0.0117243 0.0006326 0)
(-0.0122233 0.000610386 0)
(-0.0127034 0.00058584 0)
(-0.013163 0.000559086 0)
(-0.0136003 0.000530252 0)
(-0.0140136 0.000499465 0)
(-0.0144015 0.000466852 0)
(-0.0147624 0.000432543 0)
(-0.0150952 0.000396668 0)
(-0.0153985 0.000359359 0)
(-0.0156714 0.000320749 0)
(-0.0159127 0.000280971 0)
(-0.0161217 0.000240162 0)
(-0.0162976 0.000198457 0)
(-0.0164396 0.000155997 0)
(-0.0165472 0.000112922 0)
(-0.0166201 6.93743e-05 0)
(-0.0166578 2.54987e-05 0)
(-0.0166603 -1.85582e-05 0)
(-0.0166273 -6.26478e-05 0)
(-0.016559 -0.00010662 0)
(-0.0164556 -0.000150321 0)
(-0.0163172 -0.000193597 0)
(-0.0161443 -0.000236292 0)
(-0.0159375 -0.000278247 0)
(-0.0156974 -0.000319304 0)
(-0.0154248 -0.000359302 0)
(-0.0151206 -0.000398078 0)
(-0.0147859 -0.000435471 0)
(-0.0144219 -0.000471317 0)
(-0.0140299 -0.000505456 0)
(-0.0136113 -0.000537723 0)
(-0.0131676 -0.00056796 0)
(-0.0127006 -0.000596006 0)
(-0.0122122 -0.000621703 0)
(-0.0117041 -0.000644899 0)
(-0.0111786 -0.000665441 0)
(-0.0106378 -0.000683183 0)
(-0.0100839 -0.000697983 0)
(-0.00951941 -0.000709705 0)
(-0.0089468 -0.000718219 0)
(-0.00836866 -0.000723401 0)
(-0.0077877 -0.00072514 0)
(-0.00720667 -0.000723329 0)
(-0.00662843 -0.000717875 0)
(-0.00605588 -0.000708696 0)
(-0.00549198 -0.000695723 0)
(-0.00493973 -0.000678904 0)
(-0.00440217 -0.000658203 0)
(-0.00388231 -0.000633603 0)
(-0.00338319 -0.000605112 0)
(-0.0029078 -0.000572765 0)
(-0.00245906 -0.00053663 0)
(-0.00203983 -0.000496814 0)
(-0.00165282 -0.000453474 0)
(-0.00130057 -0.000406832 0)
(-0.000985375 -0.00035719 0)
(-0.000709242 -0.00030496 0)
(-0.000473755 -0.000250698 0)
(-0.000279972 -0.000195162 0)
(-0.000128252 -0.000139386 0)
(-1.8044e-05 -8.48027e-05 0)
(5.24067e-05 -3.34024e-05 0)
(8.64108e-05 1.20319e-05 0)
(8.91852e-05 4.76245e-05 0)
(6.83308e-05 6.80704e-05 0)
(3.58073e-05 6.64043e-05 0)
(9.24907e-06 3.44814e-05 0)
(7.99391e-06 -5.32308e-05 0)
(2.67784e-05 -9.10493e-05 0)
(4.08246e-05 -7.8826e-05 0)
(3.21974e-05 -3.09999e-05 0)
(-1.14654e-05 4.14448e-05 0)
(-9.82489e-05 0.00013002 0)
(-0.000233684 0.000228324 0)
(-0.000421207 0.000331618 0)
(-0.000662504 0.000436422 0)
(-0.000957875 0.00054018 0)
(-0.00130654 0.000641021 0)
(-0.00170687 0.000737575 0)
(-0.0021566 0.000828843 0)
(-0.00265297 0.000914106 0)
(-0.00319284 0.000992855 0)
(-0.00377281 0.00106474 0)
(-0.00438927 0.00112952 0)
(-0.00503849 0.00118708 0)
(-0.00571664 0.00123736 0)
(-0.00641985 0.00128035 0)
(-0.00714425 0.00131611 0)
(-0.00788597 0.00134472 0)
(-0.00864118 0.0013663 0)
(-0.0094061 0.001381 0)
(-0.010177 0.00138896 0)
(-0.0109503 0.00139038 0)
(-0.0117225 0.00138545 0)
(-0.0124901 0.00137436 0)
(-0.0132497 0.00135733 0)
(-0.0139982 0.00133458 0)
(-0.0147325 0.00130633 0)
(-0.0154495 0.00127281 0)
(-0.0161465 0.00123426 0)
(-0.0168207 0.00119092 0)
(-0.0174695 0.00114302 0)
(-0.0180904 0.00109081 0)
(-0.0186811 0.00103453 0)
(-0.0192395 0.00097444 0)
(-0.0197634 0.000910777 0)
(-0.0202509 0.0008438 0)
(-0.0207004 0.000773763 0)
(-0.02111 0.000700923 0)
(-0.0214785 0.000625541 0)
(-0.0218043 0.00054788 0)
(-0.0220864 0.000468206 0)
(-0.0223236 0.000386789 0)
(-0.0225152 0.0003039 0)
(-0.0226603 0.000219815 0)
(-0.0227584 0.000134816 0)
(-0.022809 4.91843e-05 0)
(-0.0228119 -3.67917e-05 0)
(-0.022767 -0.000122821 0)
(-0.0226744 -0.000208609 0)
(-0.0225343 -0.000293857 0)
(-0.022347 -0.000378263 0)
(-0.0221131 -0.000461522 0)
(-0.0218334 -0.000543325 0)
(-0.0215088 -0.000623361 0)
(-0.0211404 -0.000701318 0)
(-0.0207294 -0.00077688 0)
(-0.0202772 -0.000849732 0)
(-0.0197854 -0.000919559 0)
(-0.0192558 -0.000986045 0)
(-0.0186904 -0.00104888 0)
(-0.0180913 -0.00110774 0)
(-0.0174607 -0.00116233 0)
(-0.0168011 -0.00121235 0)
(-0.0161152 -0.00125749 0)
(-0.0154056 -0.00129747 0)
(-0.0146754 -0.001332 0)
(-0.0139276 -0.00136081 0)
(-0.0131654 -0.00138365 0)
(-0.0123922 -0.00140026 0)
(-0.0116115 -0.00141042 0)
(-0.0108268 -0.00141392 0)
(-0.0100419 -0.00141055 0)
(-0.00926049 -0.00140015 0)
(-0.0084865 -0.00138257 0)
(-0.00772383 -0.00135769 0)
(-0.00697647 -0.00132543 0)
(-0.0062484 -0.00128573 0)
(-0.00554362 -0.00123858 0)
(-0.00486608 -0.00118403 0)
(-0.00421968 -0.00112216 0)
(-0.00360825 -0.00105315 0)
(-0.00303543 -0.000977235 0)
(-0.0025047 -0.000894763 0)
(-0.00201929 -0.000806207 0)
(-0.00158207 -0.000712202 0)
(-0.00119549 -0.000613589 0)
(-0.000861465 -0.000511483 0)
(-0.00058119 -0.00040736 0)
(-0.000354991 -0.000303182 0)
(-0.000182075 -0.000201567 0)
(-6.0249e-05 -0.000106021 0)
(1.4421e-05 -2.12394e-05 0)
(4.79142e-05 4.65219e-05 0)
(4.86702e-05 8.90804e-05 0)
(2.93773e-05 9.60073e-05 0)
(8.33228e-06 5.39229e-05 0)
(5.54875e-06 -6.569e-05 0)
(1.2879e-05 -0.000101788 0)
(3.51492e-06 -6.92513e-05 0)
(-3.87519e-05 1.24153e-05 0)
(-0.000125765 0.00012871 0)
(-0.000265728 0.000268247 0)
(-0.000464331 0.000422202 0)
(-0.000725158 0.000583843 0)
(-0.00105 0.000748066 0)
(-0.00143919 0.000911012 0)
(-0.00189184 0.00106977 0)
(-0.00240613 0.00122216 0)
(-0.00297948 0.00136655 0)
(-0.00360868 0.00150172 0)
(-0.0042901 0.00162681 0)
(-0.00501973 0.00174119 0)
(-0.0057933 0.00184443 0)
(-0.00660638 0.00193627 0)
(-0.00745438 0.00201656 0)
(-0.00833264 0.00208527 0)
(-0.0092365 0.00214244 0)
(-0.0101612 0.00218818 0)
(-0.0111022 0.00222264 0)
(-0.0120549 0.00224604 0)
(-0.0130146 0.00225861 0)
(-0.013977 0.00226062 0)
(-0.0149377 0.00225237 0)
(-0.0158924 0.00223418 0)
(-0.0168372 0.00220637 0)
(-0.017768 0.0021693 0)
(-0.018681 0.00212331 0)
(-0.0195724 0.00206878 0)
(-0.0204389 0.00200607 0)
(-0.0212769 0.00193558 0)
(-0.0220833 0.00185769 0)
(-0.022855 0.00177279 0)
(-0.0235892 0.00168127 0)
(-0.024283 0.00158355 0)
(-0.024934 0.00148003 0)
(-0.0255398 0.00137112 0)
(-0.0260982 0.00125723 0)
(-0.0266071 0.00113878 0)
(-0.0270647 0.0010162 0)
(-0.0274694 0.000889919 0)
(-0.0278196 0.000760369 0)
(-0.0281141 0.000627989 0)
(-0.0283518 0.000493225 0)
(-0.0285317 0.000356526 0)
(-0.0286532 0.00021835 0)
(-0.0287158 7.91582e-05 0)
(-0.028719 -6.05806e-05 0)
(-0.0286628 -0.000200392 0)
(-0.0285473 -0.000339796 0)
(-0.0283728 -0.000478306 0)
(-0.0281398 -0.000615432 0)
(-0.0278489 -0.000750676 0)
(-0.0275011 -0.000883539 0)
(-0.0270975 -0.00101352 0)
(-0.0266395 -0.0011401 0)
(-0.0261286 -0.00126278 0)
(-0.0255666 -0.00138104 0)
(-0.0249555 -0.00149438 0)
(-0.0242975 -0.00160228 0)
(-0.023595 -0.00170424 0)
(-0.0228507 -0.00179976 0)
(-0.0220673 -0.00188834 0)
(-0.0212479 -0.0019695 0)
(-0.0203958 -0.00204275 0)
(-0.0195143 -0.00210764 0)
(-0.0186072 -0.00216371 0)
(-0.0176781 -0.00221053 0)
(-0.0167311 -0.00224769 0)
(-0.0157702 -0.00227479 0)
(-0.0147998 -0.00229149 0)
(-0.0138243 -0.00229743 0)
(-0.0128482 -0.00229233 0)
(-0.0118761 -0.00227591 0)
(-0.0109128 -0.00224797 0)
(-0.00996301 -0.00220832 0)
(-0.00903164 -0.00215684 0)
(-0.00812351 -0.00209349 0)
(-0.00724346 -0.00201827 0)
(-0.00639625 -0.00193128 0)
(-0.0055866 -0.00183271 0)
(-0.00481904 -0.00172287 0)
(-0.00409796 -0.00160219 0)
(-0.00342745 -0.00147128 0)
(-0.0028113 -0.00133096 0)
(-0.00225287 -0.00118229 0)
(-0.00175499 -0.00102667 0)
(-0.00131983 -0.000865887 0)
(-0.000948739 -0.000702298 0)
(-0.000642059 -0.000538936 0)
(-0.000398911 -0.000379747 0)
(-0.00021692 -0.000229861 0)
(-9.19298e-05 -9.5945e-05 0)
(-1.77188e-05 1.33785e-05 0)
(1.43651e-05 8.71167e-05 0)
(1.66733e-05 0.000111435 0)
(6.1115e-06 6.79928e-05 0)
(2.48568e-06 -6.96813e-05 0)
(-4.62889e-06 -9.12758e-05 0)
(-4.30348e-05 -2.73616e-05 0)
(-0.00012579 9.84214e-05 0)
(-0.000263388 0.000268417 0)
(-0.000463649 0.000468569 0)
(-0.000732004 0.000687759 0)
(-0.00107185 0.000917312 0)
(-0.00148486 0.00115049 0)
(-0.00197122 0.00138206 0)
(-0.00252988 0.00160802 0)
(-0.00315879 0.00182527 0)
(-0.00385504 0.00203145 0)
(-0.00461507 0.00222479 0)
(-0.00543478 0.00240396 0)
(-0.00630966 0.002568 0)
(-0.00723488 0.00271624 0)
(-0.00820537 0.00284822 0)
(-0.0092159 0.00296369 0)
(-0.0102611 0.00306253 0)
(-0.0113357 0.00314477 0)
(-0.0124341 0.00321052 0)
(-0.0135511 0.00325997 0)
(-0.0146812 0.0032934 0)
(-0.0158192 0.00331112 0)
(-0.0169599 0.00331351 0)
(-0.0180982 0.00330097 0)
(-0.0192293 0.00327396 0)
(-0.0203482 0.00323293 0)
(-0.0214503 0.00317838 0)
(-0.0225312 0.00311081 0)
(-0.0235864 0.00303077 0)
(-0.0246119 0.00293878 0)
(-0.0256037 0.0028354 0)
(-0.0265579 0.00272118 0)
(-0.027471 0.00259672 0)
(-0.0283396 0.00246257 0)
(-0.0291604 0.00231933 0)
(-0.0299305 0.0021676 0)
(-0.030647 0.00200797 0)
(-0.0313074 0.00184106 0)
(-0.0319092 0.00166747 0)
(-0.0324502 0.00148784 0)
(-0.0329286 0.00130279 0)
(-0.0333426 0.00111296 0)
(-0.0336907 0.000918993 0)
(-0.0339714 0.000721543 0)
(-0.0341839 0.000521273 0)
(-0.0343273 0.000318853 0)
(-0.0344008 0.000114961 0)
(-0.0344043 -8.97154e-05 0)
(-0.0343375 -0.00029448 0)
(-0.0342005 -0.000498629 0)
(-0.0339938 -0.000701451 0)
(-0.0337178 -0.000902225 0)
(-0.0333734 -0.00110023 0)
(-0.0329618 -0.00129472 0)
(-0.0324843 -0.00148497 0)
(-0.0319424 -0.00167023 0)
(-0.031338 -0.00184977 0)
(-0.0306732 -0.00202283 0)
(-0.0299504 -0.00218867 0)
(-0.0291721 -0.00234656 0)
(-0.0283413 -0.00249574 0)
(-0.0274609 -0.0026355 0)
(-0.0265344 -0.00276512 0)
(-0.0255653 -0.00288389 0)
(-0.0245574 -0.00299112 0)
(-0.0235148 -0.00308614 0)
(-0.0224416 -0.0031683 0)
(-0.0213424 -0.00323697 0)
(-0.0202218 -0.00329158 0)
(-0.0190847 -0.00333156 0)
(-0.0179359 -0.0033564 0)
(-0.0167808 -0.00336562 0)
(-0.0156245 -0.00335881 0)
(-0.0144725 -0.0033356 0)
(-0.0133303 -0.0032957 0)
(-0.0122034 -0.00323887 0)
(-0.0110975 -0.00316498 0)
(-0.0100181 -0.00307397 0)
(-0.00897089 -0.0029659 0)
(-0.00796128 -0.00284095 0)
(-0.00699468 -0.00269944 0)
(-0.00607632 -0.00254185 0)
(-0.00521115 -0.00236889 0)
(-0.00440385 -0.00218147 0)
(-0.00365869 -0.00198084 0)
(-0.00297943 -0.00176856 0)
(-0.00236927 -0.00154668 0)
(-0.00183062 -0.00131777 0)
(-0.00136503 -0.00108516 0)
(-0.000972965 -0.000853026 0)
(-0.000653607 -0.000626707 0)
(-0.000404655 -0.000412976 0)
(-0.000222056 -0.000220431 0)
(-9.97592e-05 -5.99499e-05 0)
(-2.93882e-05 5.48545e-05 0)
(2.52417e-07 0.000107056 0)
(3.24221e-06 7.41956e-05 0)
(-8.38262e-07 -6.39252e-05 0)
(-2.40937e-05 -5.60192e-05 0)
(-9.51165e-05 5.17902e-05 0)
(-0.000222984 0.000232754 0)
(-0.000416267 0.000466579 0)
(-0.000682006 0.000736858 0)
(-0.00102504 0.00103039 0)
(-0.00144831 0.00133668 0)
(-0.00195313 0.00164741 0)
(-0.00253942 0.001956 0)
(-0.00320583 0.0022573 0)
(-0.00395003 0.00254726 0)
(-0.00476878 0.00282276 0)
(-0.00565815 0.00308138 0)
(-0.00661363 0.00332131 0)
(-0.00763025 0.00354118 0)
(-0.00870267 0.00374002 0)
(-0.00982528 0.00391716 0)
(-0.0109923 0.0040722 0)
(-0.0121977 0.00420492 0)
(-0.0134355 0.00431529 0)
(-0.0146997 0.00440343 0)
(-0.0159843 0.00446955 0)
(-0.0172831 0.00451399 0)
(-0.0185902 0.00453715 0)
(-0.0198999 0.00453949 0)
(-0.0212064 0.00452157 0)
(-0.0225041 0.00448394 0)
(-0.0237874 0.00442724 0)
(-0.0250513 0.00435212 0)
(-0.0262905 0.00425927 0)
(-0.0275001 0.00414938 0)
(-0.0286755 0.00402318 0)
(-0.029812 0.00388144 0)
(-0.0309053 0.00372489 0)
(-0.0319515 0.00355434 0)
(-0.0329464 0.00337055 0)
(-0.0338866 0.00317433 0)
(-0.0347686 0.0029665 0)
(-0.0355891 0.00274788 0)
(-0.0363453 0.00251929 0)
(-0.0370343 0.00228158 0)
(-0.0376538 0.00203561 0)
(-0.0382014 0.00178223 0)
(-0.0386752 0.00152232 0)
(-0.0390734 0.00125677 0)
(-0.0393946 0.000986465 0)
(-0.0396376 0.000712319 0)
(-0.0398014 0.000435249 0)
(-0.0398853 0.000156185 0)
(-0.039889 -0.000123932 0)
(-0.0398121 -0.000404148 0)
(-0.039655 -0.000683501 0)
(-0.0394179 -0.000961014 0)
(-0.0391017 -0.00123571 0)
(-0.0387071 -0.00150658 0)
(-0.0382356 -0.00177264 0)
(-0.0376886 -0.00203288 0)
(-0.037068 -0.00228628 0)
(-0.0363758 -0.00253184 0)
(-0.0356145 -0.00276853 0)
(-0.0347868 -0.00299534 0)
(-0.0338956 -0.00321127 0)
(-0.0329442 -0.00341532 0)
(-0.031936 -0.00360649 0)
(-0.030875 -0.00378382 0)
(-0.0297651 -0.00394634 0)
(-0.0286107 -0.00409312 0)
(-0.0274164 -0.00422326 0)
(-0.0261869 -0.00433588 0)
(-0.0249274 -0.00443016 0)
(-0.0236432 -0.00450529 0)
(-0.0223396 -0.00456053 0)
(-0.0210224 -0.00459521 0)
(-0.0196973 -0.00460869 0)
(-0.0183704 -0.00460043 0)
(-0.0170478 -0.00456996 0)
(-0.0157356 -0.0045169 0)
(-0.0144401 -0.00444096 0)
(-0.0131676 -0.004342 0)
(-0.0119244 -0.00421997 0)
(-0.0107167 -0.00407499 0)
(-0.00955063 -0.00390736 0)
(-0.00843227 -0.00371755 0)
(-0.00736736 -0.00350629 0)
(-0.00636141 -0.00327456 0)
(-0.0054196 -0.00302366 0)
(-0.00454664 -0.00275531 0)
(-0.0037467 -0.00247165 0)
(-0.0030233 -0.00217543 0)
(-0.00237915 -0.00187009 0)
(-0.00181606 -0.00155993 0)
(-0.00133471 -0.00125034 0)
(-0.00093453 -0.000948044 0)
(-0.000613498 -0.000661407 0)
(-0.000367946 -0.000400852 0)
(-0.00019232 -0.000179328 0)
(-7.89031e-05 -1.27731e-05 0)
(-1.82342e-05 7.92627e-05 0)
(8.54236e-08 7.11844e-05 0)
(-4.22876e-06 -4.77923e-05 0)
(-4.4477e-05 6.05792e-06 0)
(-0.000150209 0.000171405 0)
(-0.000326119 0.000419321 0)
(-0.0005785 0.000727429 0)
(-0.000913325 0.00107735 0)
(-0.00133458 0.00145406 0)
(-0.00184452 0.00184541 0)
(-0.00244392 0.00224161 0)
(-0.00313225 0.00263478 0)
(-0.00390782 0.00301866 0)
(-0.00476788 0.00338824 0)
(-0.00570887 0.00373961 0)
(-0.00672645 0.00406968 0)
(-0.00781571 0.0043761 0)
(-0.00897124 0.00465707 0)
(-0.0101872 0.00491129 0)
(-0.0114576 0.00513784 0)
(-0.012776 0.00533613 0)
(-0.0141359 0.00550583 0)
(-0.0155308 0.00564685 0)
(-0.016954 0.00575926 0)
(-0.0183989 0.00584332 0)
(-0.0198589 0.0058994 0)
(-0.0213274 0.005928 0)
(-0.022798 0.00592968 0)
(-0.0242643 0.00590511 0)
(-0.0257202 0.00585502 0)
(-0.0271596 0.00578019 0)
(-0.0285768 0.00568144 0)
(-0.0299659 0.00555966 0)
(-0.0313216 0.00541575 0)
(-0.0326387 0.00525063 0)
(-0.033912 0.00506528 0)
(-0.0351368 0.00486068 0)
(-0.0363085 0.00463783 0)
(-0.0374227 0.00439776 0)
(-0.0384755 0.0041415 0)
(-0.039463 0.00387012 0)
(-0.0403816 0.00358467 0)
(-0.0412281 0.00328625 0)
(-0.0419993 0.00297596 0)
(-0.0426926 0.0026549 0)
(-0.0433054 0.0023242 0)
(-0.0438355 0.00198501 0)
(-0.044281 0.00163847 0)
(-0.0446403 0.00128576 0)
(-0.0449121 0.000928054 0)
(-0.0450951 0.000566561 0)
(-0.0451888 0.000202491 0)
(-0.0451926 -0.000162927 0)
(-0.0451063 -0.000528451 0)
(-0.0449302 -0.000892824 0)
(-0.0446647 -0.00125478 0)
(-0.0443105 -0.00161303 0)
(-0.0438688 -0.00196628 0)
(-0.0433409 -0.00231324 0)
(-0.0427286 -0.00265259 0)
(-0.0420338 -0.00298302 0)
(-0.0412591 -0.00330321 0)
(-0.0404069 -0.00361185 0)
(-0.0394804 -0.00390762 0)
(-0.0384827 -0.00418921 0)
(-0.0374177 -0.00445533 0)
(-0.036289 -0.0047047 0)
(-0.0351011 -0.00493606 0)
(-0.0338584 -0.00514818 0)
(-0.0325656 -0.00533985 0)
(-0.031228 -0.0055099 0)
(-0.0298508 -0.00565723 0)
(-0.0284396 -0.00578074 0)
(-0.0270003 -0.00587945 0)
(-0.0255389 -0.00595239 0)
(-0.0240617 -0.00599869 0)
(-0.0225752 -0.00601758 0)
(-0.0210859 -0.00600837 0)
(-0.0196005 -0.00597047 0)
(-0.0181259 -0.00590342 0)
(-0.016669 -0.0058069 0)
(-0.0152366 -0.00568073 0)
(-0.0138358 -0.00552492 0)
(-0.0124732 -0.00533966 0)
(-0.0111557 -0.00512538 0)
(-0.00988973 -0.00488274 0)
(-0.0086817 -0.00461273 0)
(-0.00753759 -0.00431666 0)
(-0.00646303 -0.00399627 0)
(-0.00546317 -0.00365376 0)
(-0.00454256 -0.00329193 0)
(-0.00370508 -0.00291425 0)
(-0.00295379 -0.00252503 0)
(-0.00229083 -0.00212962 0)
(-0.00171723 -0.00173456 0)
(-0.00123279 -0.00134791 0)
(-0.000835966 -0.000979563 0)
(-0.000523692 -0.000641601 0)
(-0.000291176 -0.000348808 0)
(-0.000131644 -0.000119101 0)
(-3.77339e-05 2.58684e-05 0)
(-3.1584e-06 5.82718e-05 0)
(-7.58352e-06 -2.10633e-05 0)
(-6.5139e-05 9.60129e-05 0)
(-0.000206635 0.000333336 0)
(-0.00043226 0.000660565 0)
(-0.000745843 0.00105376 0)
(-0.0011521 0.00149296 0)
(-0.00165397 0.00196158 0)
(-0.00225283 0.00244602 0)
(-0.00294879 0.00293516 0)
(-0.00374073 0.00341992 0)
(-0.00462646 0.00389295 0)
(-0.00560282 0.00434834 0)
(-0.0066658 0.00478136 0)
(-0.00781067 0.00518827 0)
(-0.0090321 0.00556614 0)
(-0.0103242 0.00591275 0)
(-0.0116808 0.00622642 0)
(-0.0130953 0.00650595 0)
(-0.0145609 0.00675057 0)
(-0.0160706 0.00695979 0)
(-0.0176173 0.00713344 0)
(-0.0191938 0.00727157 0)
(-0.0207929 0.00737445 0)
(-0.0224076 0.00744249 0)
(-0.0240307 0.00747625 0)
(-0.0256551 0.00747644 0)
(-0.0272742 0.00744383 0)
(-0.028881 0.00737932 0)
(-0.0304692 0.00728385 0)
(-0.0320322 0.00715844 0)
(-0.033564 0.00700416 0)
(-0.0350585 0.00682214 0)
(-0.03651 0.00661354 0)
(-0.0379131 0.00637955 0)
(-0.0392625 0.0061214 0)
(-0.0405532 0.00584034 0)
(-0.0417805 0.00553765 0)
(-0.04294 0.00521464 0)
(-0.0440273 0.00487262 0)
(-0.0450387 0.00451295 0)
(-0.0459706 0.00413698 0)
(-0.0468196 0.00374609 0)
(-0.0475826 0.00334168 0)
(-0.0482571 0.00292517 0)
(-0.0488405 0.002498 0)
(-0.0493307 0.00206161 0)
(-0.049726 0.00161748 0)
(-0.0500249 0.0011671 0)
(-0.0502262 0.000711971 0)
(-0.0503292 0.000253631 0)
(-0.0503332 -0.000206379 0)
(-0.0502381 -0.000666496 0)
(-0.0500442 -0.00112514 0)
(-0.0497519 -0.00158072 0)
(-0.049362 -0.00203161 0)
(-0.0488758 -0.00247621 0)
(-0.0482948 -0.00291287 0)
(-0.0476208 -0.00333995 0)
(-0.0468561 -0.0037558 0)
(-0.0460034 -0.00415878 0)
(-0.0450654 -0.00454723 0)
(-0.0440455 -0.00491951 0)
(-0.0429473 -0.00527399 0)
(-0.0417748 -0.00560904 0)
(-0.0405322 -0.00592308 0)
(-0.0392241 -0.00621452 0)
(-0.0378555 -0.00648184 0)
(-0.0364316 -0.00672353 0)
(-0.034958 -0.00693815 0)
(-0.0334404 -0.0071243 0)
(-0.0318851 -0.00728066 0)
(-0.0302983 -0.00740599 0)
(-0.0286866 -0.00749911 0)
(-0.0270568 -0.00755896 0)
(-0.025416 -0.00758458 0)
(-0.0237713 -0.00757515 0)
(-0.02213 -0.00752995 0)
(-0.0204994 -0.00744845 0)
(-0.0188871 -0.00733028 0)
(-0.0173006 -0.00717527 0)
(-0.0157472 -0.00698345 0)
(-0.0142344 -0.00675513 0)
(-0.0127694 -0.00649087 0)
(-0.0113593 -0.00619156 0)
(-0.0100109 -0.00585846 0)
(-0.00873069 -0.00549326 0)
(-0.00752475 -0.00509812 0)
(-0.00639865 -0.00467582 0)
(-0.00535736 -0.00422977 0)
(-0.00440514 -0.00376421 0)
(-0.00354547 -0.00328435 0)
(-0.00278087 -0.00279651 0)
(-0.00211284 -0.00230838 0)
(-0.0015417 -0.0018293 0)
(-0.00106651 -0.00137052 0)
(-0.000685016 -0.000945621 0)
(-0.000393356 -0.000570972 0)
(-0.000185904 -0.000266108 0)
(-5.75884e-05 -5.42831e-05 0)
(-6.38108e-06 3.51929e-05 0)
(-1.08505e-05 1.62365e-05 0)
(-8.56906e-05 0.000214222 0)
(-0.000263295 0.000538471 0)
(-0.000539395 0.000957826 0)
(-0.000915295 0.00144724 0)
(-0.00139434 0.00198551 0)
(-0.00197829 0.00255479 0)
(-0.00266752 0.00314022 0)
(-0.00346131 0.00372951 0)
(-0.00435788 0.00431247 0)
(-0.00535444 0.00488076 0)
(-0.00644732 0.0054276 0)
(-0.00763204 0.00594748 0)
(-0.0089034 0.006436 0)
(-0.0102556 0.00688969 0)
(-0.0116825 0.00730584 0)
(-0.0131772 0.00768242 0)
(-0.0147329 0.00801795 0)
(-0.0163421 0.00831142 0)
(-0.0179976 0.00856221 0)
(-0.0196916 0.00877004 0)
(-0.0214165 0.00893494 0)
(-0.0231647 0.00905715 0)
(-0.0249285 0.00913715 0)
(-0.0267004 0.00917557 0)
(-0.0284728 0.00917323 0)
(-0.0302383 0.00913104 0)
(-0.0319899 0.00905004 0)
(-0.0337203 0.00893137 0)
(-0.0354228 0.00877624 0)
(-0.0370907 0.00858595 0)
(-0.0387177 0.00836183 0)
(-0.0402975 0.0081053 0)
(-0.0418242 0.00781779 0)
(-0.0432923 0.0075008 0)
(-0.0446962 0.00715584 0)
(-0.046031 0.00678448 0)
(-0.0472917 0.0063883 0)
(-0.048474 0.00596891 0)
(-0.0495736 0.00552795 0)
(-0.0505865 0.00506709 0)
(-0.0515093 0.00458801 0)
(-0.0523387 0.00409242 0)
(-0.0530716 0.00358205 0)
(-0.0537056 0.00305866 0)
(-0.0542384 0.00252403 0)
(-0.0546679 0.00197996 0)
(-0.0549926 0.00142827 0)
(-0.0552114 0.000870807 0)
(-0.0553232 0.000309438 0)
(-0.0553276 -0.000253946 0)
(-0.0552243 -0.000817433 0)
(-0.0550136 -0.00137909 0)
(-0.054696 -0.00193698 0)
(-0.0542725 -0.00248912 0)
(-0.0537442 -0.00303354 0)
(-0.053113 -0.00356824 0)
(-0.0523807 -0.00409121 0)
(-0.0515499 -0.00460046 0)
(-0.0506233 -0.00509396 0)
(-0.0496041 -0.0055697 0)
(-0.0484957 -0.0060257 0)
(-0.0473021 -0.00645996 0)
(-0.0460276 -0.0068705 0)
(-0.0446767 -0.0072554 0)
(-0.0432545 -0.00761275 0)
(-0.0417662 -0.00794068 0)
(-0.0402175 -0.00823738 0)
(-0.0386143 -0.00850109 0)
(-0.0369629 -0.00873014 0)
(-0.0352699 -0.00892294 0)
(-0.0335421 -0.00907797 0)
(-0.0317865 -0.00919383 0)
(-0.0300106 -0.00926927 0)
(-0.0282217 -0.00930313 0)
(-0.0264275 -0.00929443 0)
(-0.024636 -0.00924235 0)
(-0.0228549 -0.00914627 0)
(-0.0210924 -0.00900578 0)
(-0.0193563 -0.00882071 0)
(-0.0176547 -0.00859115 0)
(-0.0159954 -0.0083175 0)
(-0.0143862 -0.00800049 0)
(-0.0128347 -0.00764125 0)
(-0.0113482 -0.00724134 0)
(-0.00993357 -0.00680282 0)
(-0.00859735 -0.00632833 0)
(-0.00734555 -0.00582118 0)
(-0.00618358 -0.00528545 0)
(-0.00511616 -0.00472614 0)
(-0.0041472 -0.00414931 0)
(-0.00327973 -0.00356225 0)
(-0.00251577 -0.00297372 0)
(-0.00185629 -0.00239423 0)
(-0.00130111 -0.00183627 0)
(-0.000848874 -0.00131473 0)
(-0.000496814 -0.000847298 0)
(-0.000240557 -0.000454799 0)
(-7.73939e-05 -0.000161652 0)
(-9.52661e-06 1.93766e-06 0)
(-1.4006e-05 6.39419e-05 0)
(-0.000105903 0.00036062 0)
(-0.000319487 0.000787032 0)
(-0.000646178 0.00131164 0)
(-0.00108478 0.00190867 0)
(-0.00163721 0.00255599 0)
(-0.00230397 0.00323474 0)
(-0.00308434 0.00392904 0)
(-0.00397668 0.00462552 0)
(-0.00497844 0.00531306 0)
(-0.00608617 0.00598241 0)
(-0.0072956 0.00662595 0)
(-0.00860171 0.00723745 0)
(-0.00999884 0.00781189 0)
(-0.0114807 0.00834524 0)
(-0.0130407 0.00883436 0)
(-0.0146715 0.00927683 0)
(-0.0163658 0.00967088 0)
(-0.0181158 0.0100153 0)
(-0.0199136 0.0103092 0)
(-0.0217512 0.0105524 0)
(-0.0236205 0.0107447 0)
(-0.0255133 0.0108865 0)
(-0.0274216 0.0109782 0)
(-0.0293373 0.0110205 0)
(-0.0312524 0.0110144 0)
(-0.0331592 0.0109609 0)
(-0.0350499 0.0108613 0)
(-0.0369171 0.0107168 0)
(-0.0387535 0.0105289 0)
(-0.040552 0.0102991 0)
(-0.0423059 0.0100289 0)
(-0.0440084 0.00972011 0)
(-0.0456534 0.00937434 0)
(-0.0472349 0.00899338 0)
(-0.048747 0.00857905 0)
(-0.0501844 0.00813319 0)
(-0.0515419 0.00765769 0)
(-0.0528147 0.00715447 0)
(-0.0539983 0.00662549 0)
(-0.0550886 0.00607274 0)
(-0.0560818 0.00549823 0)
(-0.0569743 0.004904 0)
(-0.0577631 0.00429213 0)
(-0.0584453 0.00366471 0)
(-0.0590186 0.00302388 0)
(-0.0594808 0.00237177 0)
(-0.0598303 0.00171059 0)
(-0.0600658 0.00104253 0)
(-0.0601862 0.000369825 0)
(-0.0601911 -0.000305261 0)
(-0.0600802 -0.000980445 0)
(-0.0598538 -0.00165342 0)
(-0.0595124 -0.00232186 0)
(-0.059057 -0.00298341 0)
(-0.058489 -0.00363571 0)
(-0.0578102 -0.00427637 0)
(-0.0570227 -0.00490301 0)
(-0.0561291 -0.00551324 0)
(-0.0551323 -0.00610464 0)
(-0.0540359 -0.00667484 0)
(-0.0528434 -0.00722144 0)
(-0.051559 -0.00774209 0)
(-0.0501874 -0.00823444 0)
(-0.0487334 -0.00869619 0)
(-0.0472022 -0.00912507 0)
(-0.0455996 -0.00951887 0)
(-0.0439316 -0.00987545 0)
(-0.0422045 -0.0101927 0)
(-0.0404249 -0.0104687 0)
(-0.0385999 -0.0107015 0)
(-0.0367367 -0.0108894 0)
(-0.0348428 -0.0110306 0)