/*--------------------------------*- C++ -*----------------------------------*\
  =========                 |
  \\      /  F ield         | OpenFOAM: The Open Source CFD Toolbox
   \\    /   O peration     | Website:  https://openfoam.org
    \\  /    A nd           | Version:  7
     \\/     M anipulation  |
\*---------------------------------------------------------------------------*/
FoamFile
{
    version     2.0;
    format      ascii;
    class       volScalarField;
    location    "87";
    object      p;
}
// * * * * * * * * * * * * * * * * * * * * * * * * * * * * * * * * * * * * * //

dimensions      [0 2 -2 0 0 0 0];

internalField   nonuniform List<scalar> 
15200
(
-0.682989
-0.565568
-0.446258
-0.382297
-0.314902
-0.355533
-0.31191
-0.25095
-0.208957
-0.174022
-0.167272
-0.192949
-0.200548
-0.165706
-0.132656
-0.664495
-0.544712
-0.441423
-0.384067
-0.323209
-0.380764
-0.32422
-0.2508
-0.20281
-0.168956
-0.162943
-0.191014
-0.201292
-0.160179
-0.118853
-0.645062
-0.523428
-0.433852
-0.38262
-0.329333
-0.399661
-0.331366
-0.248017
-0.193316
-0.161095
-0.156145
-0.186161
-0.196791
-0.148367
-0.103368
-0.62495
-0.501721
-0.423501
-0.37724
-0.334694
-0.411438
-0.333189
-0.242642
-0.181129
-0.150448
-0.146852
-0.177345
-0.186299
-0.131447
-0.0888397
-0.604396
-0.479699
-0.410412
-0.367209
-0.340001
-0.4155
-0.32968
-0.234503
-0.167001
-0.136367
-0.134741
-0.163991
-0.169677
-0.110408
-0.0760668
-0.583602
-0.457469
-0.394691
-0.351854
-0.345043
-0.411931
-0.321172
-0.223549
-0.151912
-0.118311
-0.116968
-0.142565
-0.143923
-0.0835163
-0.0621421
-0.562717
-0.435096
-0.376424
-0.330745
-0.349624
-0.401784
-0.308481
-0.210194
-0.137059
-0.0978279
-0.0913756
-0.108391
-0.104984
-0.049554
-0.0457528
-0.541819
-0.412505
-0.355346
-0.304445
-0.353132
-0.386543
-0.292637
-0.19533
-0.123303
-0.0781599
-0.0610145
-0.0628716
-0.0530834
-0.0155239
-0.0292053
-0.52093
-0.389427
-0.33067
-0.274172
-0.354031
-0.367271
-0.274542
-0.180067
-0.11072
-0.0626613
-0.0337306
-0.0186481
-0.00109506
0.00837607
-0.0152826
-0.500077
-0.365405
-0.301029
-0.24167
-0.349573
-0.344823
-0.255
-0.165302
-0.099057
-0.051659
-0.0166183
0.00795211
0.0272056
0.0194552
-0.00465864
-0.479388
-0.339324
-0.264791
-0.209578
-0.337234
-0.320032
-0.234893
-0.151387
-0.0886747
-0.0433836
-0.00784842
0.0173453
0.0361217
0.0233059
0.00273446
-0.459214
-0.310462
-0.220967
-0.181749
-0.316541
-0.293711
-0.215046
-0.138372
-0.0799685
-0.0372658
-0.00390724
0.0185871
0.0349909
0.0236283
0.00721301
-0.440204
-0.278908
-0.170431
-0.162674
-0.290058
-0.266787
-0.196008
-0.126428
-0.0727681
-0.0331224
-0.00261014
0.0175885
0.031139
0.0224449
0.00939628
-0.423297
-0.246986
-0.116365
-0.158112
-0.262269
-0.240299
-0.178107
-0.115676
-0.0667987
-0.0304547
-0.00293426
0.0152263
0.0263268
0.0205473
0.0102736
-0.409519
-0.21916
-0.0641117
-0.160387
-0.236722
-0.215211
-0.161557
-0.106046
-0.0618799
-0.0287458
-0.00405698
0.0122494
0.0214142
0.0182578
0.0104057
-0.399598
-0.199216
-0.0192986
-0.165147
-0.214549
-0.192232
-0.146454
-0.0974359
-0.0577783
-0.0276589
-0.00552853
0.00921984
0.0169891
0.0158332
0.0100894
-0.393539
-0.186961
0.0132369
-0.166521
-0.195557
-0.171748
-0.132828
-0.0897424
-0.0542761
-0.0269538
-0.00707873
0.00632478
0.0131449
0.0134648
0.00945616
-0.3904
-0.181734
0.0328791
-0.162606
-0.179239
-0.153863
-0.120672
-0.0828434
-0.0512187
-0.0264527
-0.00851613
0.00368821
0.00989843
0.0112511
0.00858527
-0.388584
-0.182129
0.040994
-0.154737
-0.165146
-0.138469
-0.109911
-0.0766344
-0.0484831
-0.0260291
-0.00975992
0.00137647
0.00726179
0.00923413
0.00768687
-0.386497
-0.187338
0.04026
-0.144865
-0.152897
-0.125323
-0.100428
-0.0710226
-0.0459797
-0.0255922
-0.0107812
-0.000580251
0.00513276
0.00743482
0.00694084
-0.383039
-0.196987
0.0332502
-0.134444
-0.142162
-0.114121
-0.0920832
-0.0659261
-0.0436405
-0.0250901
-0.0115663
-0.00216033
0.00340482
0.00594641
0.00632701
-0.377898
-0.210099
0.0218676
-0.124322
-0.132648
-0.104545
-0.0847261
-0.0612742
-0.0414125
-0.0244938
-0.0121166
-0.00339011
0.00201675
0.00478209
0.00578794
-0.370796
-0.224656
0.00755356
-0.114907
-0.124085
-0.0962942
-0.0782101
-0.0570032
-0.0392579
-0.0237877
-0.0124399
-0.00429884
0.000932217
0.0038704
0.005285
-0.361326
-0.237652
-0.00845041
-0.106358
-0.116237
-0.0890971
-0.0723987
-0.0530559
-0.0371492
-0.0229671
-0.0125482
-0.00492027
0.000117322
0.00317136
0.00485746
-0.349281
-0.245785
-0.0250022
-0.0987171
-0.10891
-0.0827174
-0.0671684
-0.049381
-0.0350679
-0.0220309
-0.0124562
-0.0052897
-0.000453879
0.002662
0.00450169
-0.335082
-0.246706
-0.0410969
-0.0919598
-0.101988
-0.0769598
-0.0624111
-0.0459325
-0.0330002
-0.0209828
-0.0121791
-0.0054339
-0.000802752
0.00231032
0.00425245
-0.319978
-0.240031
-0.0559569
-0.0860018
-0.0954545
-0.0716733
-0.0580333
-0.0426693
-0.0309354
-0.0198282
-0.0117319
-0.00537822
-0.00095622
0.00211856
0.0041052
-0.305773
-0.227371
-0.0690701
-0.0807627
-0.0893174
-0.0667462
-0.0539553
-0.0395538
-0.0288655
-0.018574
-0.0111289
-0.00514345
-0.000930658
0.0020642
0.00406939
-0.294166
-0.211394
-0.0801448
-0.0761847
-0.0835719
-0.0620964
-0.0501104
-0.0365524
-0.0267843
-0.0172272
-0.0103819
-0.00474766
-0.000748445
0.00214788
0.00413844
-0.286185
-0.194599
-0.089041
-0.0722075
-0.0781997
-0.0576618
-0.0464434
-0.0336359
-0.0246868
-0.0157932
-0.00950271
-0.00420651
-0.000423829
0.00235343
0.00431199
-0.282058
-0.178636
-0.0957565
-0.0687333
-0.0731703
-0.0533932
-0.0429108
-0.0307797
-0.022568
-0.0142767
-0.00850341
-0.00353335
2.75209e-05
0.00267588
0.00458278
-0.281468
-0.164258
-0.100471
-0.0655898
-0.06844
-0.0492507
-0.0394779
-0.0279624
-0.020422
-0.0126824
-0.00739614
-0.00273947
0.000594263
0.00310366
0.00494695
-0.283855
-0.151579
-0.103513
-0.0625643
-0.0639535
-0.0452013
-0.0361145
-0.0251634
-0.0182435
-0.0110158
-0.00619009
-0.001835
0.00126647
0.00362895
0.00539348
-0.288591
-0.140455
-0.105173
-0.0595034
-0.0596515
-0.0412162
-0.0327933
-0.0223657
-0.0160305
-0.00928185
-0.00489238
-0.000828675
0.00203313
0.00424216
0.00591611
-0.29505
-0.130661
-0.105676
-0.0563053
-0.0554768
-0.0372682
-0.0294935
-0.0195575
-0.0137846
-0.00748265
-0.00350945
0.000268965
0.00288492
0.00493548
0.00650496
-0.302625
-0.121948
-0.105192
-0.0529032
-0.0513752
-0.0333322
-0.0262023
-0.0167303
-0.0115063
-0.00561608
-0.0020512
0.00144944
0.00381357
0.00570348
0.00715626
-0.31074
-0.11407
-0.10385
-0.0492526
-0.0472955
-0.0293865
-0.0229117
-0.0138714
-0.009194
-0.00367534
-0.000531643
0.00270797
0.00481613
0.00654088
0.00786312
-0.318859
-0.106784
-0.101751
-0.0453257
-0.0431928
-0.0254107
-0.0196178
-0.0109572
-0.00685592
-0.00164857
0.00103055
0.00404632
0.0058876
0.00744276
0.00862589
-0.326488
-0.0998605
-0.0989642
-0.0411068
-0.0390373
-0.0213712
-0.016334
-0.00794299
-0.00453082
0.000481088
0.00261619
0.00546687
0.00702043
0.00840427
0.00944831
-0.333186
-0.0930883
-0.095533
-0.0365756
-0.0348361
-0.0171978
-0.0131052
-0.00477119
-0.00227609
0.00272886
0.00421566
0.00696519
0.00820511
0.00942264
0.0103348
-0.338562
-0.0862799
-0.0914823
-0.0316698
-0.0306587
-0.0127807
-0.00999019
-0.00142973
-9.27382e-05
0.00507843
0.00584858
0.00851571
0.00944197
0.0104971
0.0112748
-0.342281
-0.0792617
-0.0868659
-0.0262547
-0.0266215
-0.00804312
-0.00697962
0.00198144
0.00214699
0.0074318
0.00758057
0.0100663
0.0107437
0.0116285
0.0122427
-0.344061
-0.0718328
-0.0818361
-0.0201754
-0.0227588
-0.0030999
-0.00388049
0.005267
0.00465034
0.00962729
0.00947853
0.0115859
0.0121052
0.0128088
0.0132319
-0.343664
-0.0637208
-0.0766421
-0.0134634
-0.0188066
0.00165622
-0.000378175
0.00833841
0.00739692
0.0117123
0.0114907
0.0131112
0.0134991
0.0140252
0.0142423
-0.340897
-0.0546456
-0.0714051
-0.00655933
-0.0142389
0.00610031
0.00346756
0.0112632
0.0103004
0.013763
0.0135504
0.0146771
0.0149091
0.0152637
0.0152737
-0.335637
-0.044611
-0.0657069
0.000195032
-0.00905238
0.0103298
0.00754675
0.0141318
0.0132755
0.0158396
0.0156107
0.016297
0.0163332
0.0165172
0.0163251
-0.327887
-0.0341763
-0.0587294
0.00667731
-0.00336216
0.0144614
0.0117585
0.0170199
0.0162575
0.0179741
0.01765
0.0179634
0.0177758
0.017784
0.0173964
-0.317752
-0.0232748
-0.0505107
0.0130095
0.00270489
0.0185897
0.0160279
0.0199723
0.0192115
0.0201732
0.0196672
0.0196594
0.0192367
0.0190614
0.018484
-0.305236
-0.0118339
-0.0412169
0.0193172
0.00904316
0.0227799
0.0203049
0.0230077
0.0221241
0.0224269
0.0216695
0.0213681
0.0207083
0.02034
0.0195762
-0.289948
-0.000109168
-0.0310273
0.0256975
0.0155684
0.0270704
0.0245611
0.0261243
0.0249954
0.0247177
0.0236637
0.0230771
0.0221803
0.0216073
0.0206591
-0.271546
0.0117059
-0.0200907
0.0322167
0.0222163
0.0314772
0.0287829
0.0293076
0.0278309
0.0270263
0.0256511
0.0247787
0.0236455
0.0228588
0.021731
-0.250295
0.0237684
-0.0085353
0.0389164
0.0289379
0.0359998
0.0329654
0.0325372
0.0306358
0.0293354
0.0276278
0.0264675
0.025101
0.0241006
0.0228091
-0.22644
0.0361907
0.00352521
0.045817
0.0356958
0.0406256
0.0371079
0.0357913
0.033412
0.031631
0.0295877
0.0281389
0.0265426
0.0253351
0.0239048
-0.200226
0.0490391
0.0159885
0.0529216
0.0424604
0.0453342
0.0412098
0.0390491
0.0361574
0.0339024
0.0315258
0.0297894
0.0279582
0.0265388
0.0249814
-0.171903
0.0623378
0.0287603
0.0602193
0.0492076
0.0501005
0.0452684
0.042292
0.0388667
0.0361422
0.0334396
0.0314161
0.0293285
0.0276633
0.0259468
-0.14173
0.0760821
0.0417527
0.0676878
0.0559156
0.0548972
0.0492785
0.0455032
0.0415323
0.038345
0.0353262
0.0330132
0.0306358
0.028673
0.0267309
-0.109979
0.0902435
0.0548823
0.0752955
0.062564
0.059696
0.0532314
0.0486674
0.0441459
0.0405055
0.0371789
0.0345667
0.0318694
0.0295863
0.0274057
-0.0769293
0.104775
0.0680691
0.0830036
0.0691317
0.0644688
0.057116
0.0517706
0.0466988
0.0426177
0.0389847
0.0360541
0.0330232
0.0304709
0.0282261
-0.0428695
0.119612
0.0812357
0.0907679
0.0755969
0.0691879
0.0609186
0.0547996
0.0491828
0.0446737
0.0407283
0.0374566
0.0341003
0.0313894
0.0293483
-0.00809369
0.134679
0.0943066
0.0985403
0.0819361
0.0738264
0.0646244
0.0577416
0.0515891
0.0466637
0.0423965
0.0387732
0.0351265
0.0323445
0.030547
0.0271006
0.149887
0.107208
0.10627
0.0881241
0.0783578
0.0682172
0.0605843
0.0539079
0.0485761
0.0439796
0.0400157
0.0361382
0.0332909
0.03148
0.0624151
0.165139
0.119866
0.113903
0.0941342
0.0827564
0.0716805
0.063315
0.0561286
0.0503989
0.0454706
0.0411906
0.0371407
0.0342437
0.0322929
0.0975525
0.18033
0.132209
0.121387
0.0999383
0.0869973
0.0749974
0.0659213
0.0582402
0.0521215
0.046867
0.0423001
0.0381084
0.0351352
0.0330378
0.132219
0.195349
0.144166
0.128668
0.105508
0.091056
0.0781512
0.0683902
0.0602312
0.0537349
0.0481679
0.0433489
0.0390387
0.0359667
0.0337016
0.166127
0.210081
0.155667
0.135693
0.110812
0.0949087
0.0811252
0.070709
0.0620906
0.0552307
0.0493694
0.0443287
0.0399147
0.0367394
0.0343184
0.198996
0.224409
0.166642
0.142408
0.115823
0.0985323
0.0839031
0.0728649
0.0638082
0.0566028
0.0504691
0.0452316
0.0407174
0.0374319
0.0348562
0.230554
0.238213
0.177024
0.148764
0.120509
0.101904
0.0864689
0.0748451
0.0653738
0.057845
0.0514635
0.0460536
0.0414454
0.0380516
0.0353291
0.260542
0.251375
0.186747
0.154712
0.124843
0.105003
0.0888069
0.0766378
0.0667784
0.0589505
0.0523449
0.0467834
0.0420881
0.0385899
0.0357259
0.288712
0.263779
0.195746
0.160204
0.128795
0.107809
0.0909025
0.0782313
0.068014
0.0599145
0.0531094
0.0474149
0.0426397
0.0390443
0.0360492
0.314834
0.275309
0.203962
0.165196
0.132338
0.110301
0.0927415
0.0796149
0.0690721
0.0607303
0.0537508
0.0479436
0.0430977
0.039411
0.0362946
0.338693
0.285852
0.211335
0.169647
0.135448
0.112462
0.0943107
0.0807788
0.0699459
0.0613923
0.0542629
0.0483621
0.0434567
0.0396882
0.0364626
0.360091
0.295303
0.217811
0.173519
0.138099
0.114275
0.0955981
0.0817139
0.0706288
0.0618956
0.0546418
0.0486672
0.0437135
0.0398723
0.0365518
0.378841
0.303565
0.223339
0.176777
0.140271
0.115724
0.0965924
0.082412
0.0711144
0.0622348
0.0548823
0.0488544
0.0438652
0.0399622
0.0365624
0.394772
0.310552
0.227873
0.17939
0.141943
0.116795
0.0972839
0.082866
0.0713976
0.0624058
0.0549808
0.0489199
0.0439085
0.039956
0.0364949
0.407732
0.316186
0.231373
0.181329
0.143098
0.117477
0.097664
0.0830697
0.0714738
0.062405
0.0549338
0.0488609
0.0438415
0.039853
0.0363498
0.417584
0.3204
0.233802
0.182572
0.14372
0.11776
0.0977255
0.0830179
0.0713392
0.0622292
0.0547389
0.0486745
0.0436621
0.0396525
0.0361278
0.424213
0.323138
0.235129
0.183098
0.143797
0.117635
0.0974625
0.0827066
0.070991
0.0618763
0.054394
0.0483588
0.0433688
0.0393541
0.0358306
0.427526
0.324356
0.235328
0.182893
0.14332
0.117095
0.0968708
0.0821329
0.070427
0.0613448
0.0538976
0.047912
0.0429599
0.0389572
0.0354587
0.427446
0.32402
0.234381
0.181946
0.14228
0.116137
0.0959475
0.0812951
0.0696463
0.0606339
0.0532489
0.0473328
0.0424344
0.0384626
0.0350139
0.423923
0.322112
0.232275
0.18025
0.140675
0.114759
0.0946915
0.0801927
0.0686488
0.0597436
0.0524478
0.046621
0.0417926
0.0378713
0.0344983
0.416924
0.318622
0.229
0.177803
0.138502
0.112959
0.0931031
0.0788263
0.0674353
0.0586749
0.0514953
0.0457777
0.0410357
0.0371832
0.0339072
0.406442
0.313556
0.224556
0.174608
0.135763
0.110742
0.0911843
0.077198
0.0660077
0.0574295
0.0503929
0.0448038
0.040164
0.0363987
0.033243
0.392489
0.30693
0.218948
0.170673
0.132462
0.108109
0.0889386
0.0753108
0.0643688
0.0560097
0.0491424
0.0437008
0.0391784
0.0355188
0.0325083
0.375099
0.298775
0.212185
0.166009
0.128608
0.105069
0.0863711
0.0731691
0.0625223
0.0544189
0.047747
0.0424716
0.0380818
0.0345445
0.0317001
0.354325
0.289132
0.204283
0.160633
0.124209
0.10163
0.0834885
0.0707786
0.0604731
0.0526613
0.0462103
0.0411198
0.0368778
0.0334784
0.0308186
0.330242
0.278055
0.195266
0.154568
0.119279
0.0978034
0.080299
0.0681461
0.0582269
0.0507418
0.0445368
0.0396491
0.0355695
0.032323
0.0298644
0.302941
0.265614
0.185159
0.147839
0.113834
0.0936014
0.0768126
0.0652795
0.0557904
0.048666
0.0427317
0.0380643
0.034161
0.0310805
0.028838
0.272529
0.251886
0.173999
0.140476
0.107891
0.0890397
0.0730404
0.0621882
0.0531711
0.0464408
0.040801
0.0363708
0.0326566
0.0297535
0.0277398
0.239136
0.236963
0.161822
0.132517
0.101472
0.0841354
0.0689953
0.0588825
0.0503775
0.0440729
0.0387509
0.0345743
0.0310617
0.0283456
0.0265707
0.202913
0.220941
0.148674
0.123999
0.0945986
0.0789077
0.0646915
0.055374
0.0474189
0.0415707
0.0365891
0.0326817
0.0293818
0.0268606
0.0253323
0.164033
0.203922
0.134601
0.114969
0.0872961
0.0733776
0.0601445
0.0516752
0.0443052
0.0389424
0.0343228
0.0306995
0.0276223
0.0253026
0.024027
0.122689
0.186017
0.119655
0.105472
0.0795909
0.067568
0.0553709
0.0477996
0.0410476
0.0361974
0.0319613
0.0286363
0.0257898
0.0236755
0.0226569
0.0790911
0.167339
0.103892
0.095562
0.0715109
0.0615035
0.0503886
0.0437617
0.0376575
0.0333454
0.0295132
0.0265006
0.0238911
0.0219836
0.0212254
0.0334672
0.148008
0.0873709
0.0852934
0.0630848
0.0552105
0.0452165
0.0395767
0.034147
0.0303958
0.0269872
0.0243016
0.021933
0.0202286
0.0197336
-0.0139383
0.128144
0.0701534
0.0747248
0.0543425
0.048717
0.0398743
0.0352609
0.030529
0.0273596
0.0243942
0.0220526
0.0199286
0.0184165
0.0181846
-0.0628655
0.107871
0.0523045
0.0639172
0.0453138
0.0420527
0.0343826
0.0308311
0.0268173
0.0242475
0.0217422
0.0197617
0.0178853
0.0165411
0.0165685
-0.113041
0.0873107
0.0338922
0.0529342
0.0360286
0.035249
0.0287622
0.0263047
0.0230255
0.0210695
0.0190379
0.0174397
0.0158265
0.0146204
0.014884
-0.164177
0.0665841
0.014987
0.0418407
0.0265163
0.0283391
0.0230344
0.0216997
0.0191685
0.0178387
0.0162931
0.0151001
0.013776
0.0126565
0.0130691
-0.215978
0.0458091
-0.00433798
0.0307026
0.0168058
0.0213579
0.0172204
0.0170346
0.0152613
0.014567
0.013512
0.0127358
0.0117412
0.0106987
0.0111113
-0.268135
0.0250989
-0.0240066
0.019586
0.0069249
0.0143421
0.0113411
0.0123281
0.0113193
0.011267
0.0107052
0.010354
0.00975074
0.00884258
0.0089129
-0.320333
0.00456058
-0.0439401
0.00855606
-0.00309962
0.00733026
0.0054163
0.0075997
0.00735827
0.0079527
0.00788628
0.0079526
0.00776842
0.0071061
0.00662511
-0.372252
-0.0157069
-0.0640565
-0.00232414
-0.0132419
0.000362673
-0.000535252
0.00286901
0.00339442
0.00463701
0.00506718
0.00553464
0.00576595
0.00546884
0.00487188
-0.423563
-0.0356145
-0.0842705
-0.0129948
-0.0234766
-0.00651895
-0.00649685
-0.00184351
-0.000555722
0.00133211
0.00226045
0.00311979
0.00375493
0.00392962
0.00356342
-0.473937
-0.0550843
-0.104493
-0.0234006
-0.0337787
-0.0132718
-0.0124541
-0.00651645
-0.00447532
-0.00194923
-0.000521108
0.000731133
0.00174817
0.0023906
0.00240284
-0.523043
-0.0740525
-0.124631
-0.0334928
-0.0441222
-0.0198526
-0.0183954
-0.0111268
-0.00834747
-0.00519377
-0.00326803
-0.00162137
-0.000252104
0.000779181
0.00119371
-0.570549
-0.0924712
-0.144587
-0.0432303
-0.0544792
-0.026219
-0.0243119
-0.0156494
-0.0121561
-0.00838896
-0.0059736
-0.00393675
-0.00223772
-0.000883973
-0.000107983
-0.616124
-0.110311
-0.164256
-0.0525822
-0.0648185
-0.0323304
-0.0301979
-0.0200561
-0.0158869
-0.0115232
-0.00862928
-0.00621066
-0.00419241
-0.00254875
-0.00148475
-0.659438
-0.127566
-0.183532
-0.0615295
-0.0751041
-0.0381507
-0.036049
-0.0243154
-0.0195281
-0.0145855
-0.011223
-0.00843315
-0.006106
-0.00419614
-0.00291535
-0.700165
-0.144255
-0.202297
-0.0700671
-0.0852925
-0.0436496
-0.0418613
-0.0283926
-0.0230709
-0.0175655
-0.0137419
-0.010594
-0.00797776
-0.00582993
-0.00436746
-0.737976
-0.16043
-0.22043
-0.0782059
-0.0953315
-0.0488065
-0.0476277
-0.0322514
-0.0265111
-0.0204529
-0.0161741
-0.0126845
-0.0098046
-0.00744351
-0.00580152
-0.772537
-0.176185
-0.237799
-0.0859754
-0.105157
-0.0536128
-0.053335
-0.0358569
-0.0298499
-0.023235
-0.0185082
-0.0146955
-0.0115733
-0.00901143
-0.00718437
-0.80349
-0.191679
-0.254264
-0.0934253
-0.114691
-0.0580763
-0.0589594
-0.0391799
-0.0330945
-0.0258932
-0.0207318
-0.0166172
-0.0132669
-0.010507
-0.00849831
-0.830447
-0.207134
-0.269673
-0.100629
-0.123838
-0.0622246
-0.0644616
-0.0422023
-0.0362554
-0.0283999
-0.0228323
-0.0184413
-0.0148751
-0.0119192
-0.00974142
-0.852994
-0.222854
-0.283864
-0.107686
-0.132484
-0.0661091
-0.0697822
-0.0449233
-0.0393415
-0.0307196
-0.0248012
-0.0201625
-0.0163959
-0.0132514
-0.0109188
-0.871667
-0.238501
-0.296646
-0.114729
-0.140495
-0.0698087
-0.0748367
-0.0473657
-0.042347
-0.0328153
-0.0266393
-0.0217756
-0.0178281
-0.0145079
-0.0120316
-0.887303
-0.253572
-0.3078
-0.121923
-0.147707
-0.0734341
-0.079512
-0.0495818
-0.0452392
-0.0346605
-0.0283578
-0.0232708
-0.0191656
-0.015684
-0.013072
-0.900036
-0.268063
-0.317044
-0.129499
-0.153936
-0.0771291
-0.0836622
-0.0516595
-0.0479459
-0.0362557
-0.029971
-0.0246305
-0.0203978
-0.0167682
-0.0140278
-0.909627
-0.282288
-0.324087
-0.137732
-0.158971
-0.0810705
-0.0871131
-0.053721
-0.0503538
-0.0376408
-0.0314819
-0.0258331
-0.0215146
-0.0177509
-0.0148919
-0.915862
-0.296474
-0.328774
-0.146855
-0.162617
-0.0854464
-0.0896745
-0.0559147
-0.0523141
-0.0389016
-0.0328563
-0.0268714
-0.0225071
-0.0186293
-0.0156663
-0.918694
-0.30961
-0.333107
-0.156075
-0.1648
-0.0903722
-0.0911985
-0.0583647
-0.053676
-0.0401479
-0.0340164
-0.0277699
-0.0233612
-0.0194054
-0.0163606
-0.918199
-0.321238
-0.337982
-0.164654
-0.166243
-0.0954474
-0.091785
-0.0610122
-0.0543848
-0.0414372
-0.0348735
-0.0285809
-0.0240513
-0.0200876
-0.0169865
-0.914521
-0.331579
-0.34325
-0.172063
-0.167797
-0.0997922
-0.0922045
-0.0632575
-0.0548674
-0.0425079
-0.0355346
-0.0292544
-0.0246163
-0.0206537
-0.0175092
-0.907832
-0.341078
-0.348491
-0.178311
-0.169666
-0.103107
-0.0927476
-0.0648493
-0.0552817
-0.0432571
-0.0360338
-0.0297694
-0.0250712
-0.0211
-0.0179146
-0.898338
-0.350124
-0.353434
-0.183666
-0.171633
-0.105525
-0.0932956
-0.0658388
-0.0555603
-0.0437053
-0.036362
-0.0301232
-0.0254117
-0.0214319
-0.0182088
-0.886285
-0.359005
-0.357999
-0.188388
-0.173405
-0.107291
-0.0936193
-0.0663586
-0.0555954
-0.0438885
-0.0365077
-0.0303189
-0.0256289
-0.0216569
-0.0184088
-0.871966
-0.367963
-0.362215
-0.192626
-0.1748
-0.108559
-0.0935608
-0.0664866
-0.0553286
-0.0438174
-0.0364653
-0.0303604
-0.0257193
-0.0217811
-0.0185255
-0.855723
-0.377245
-0.366139
-0.196444
-0.175763
-0.109369
-0.093056
-0.0662308
-0.0547415
-0.0434873
-0.0362322
-0.0302527
-0.0256859
-0.0218082
-0.0185657
-0.837944
-0.387127
-0.369821
-0.199868
-0.176299
-0.109697
-0.0920916
-0.0655661
-0.0538255
-0.0428933
-0.0358087
-0.0300016
-0.0255354
-0.0217412
-0.018528
-0.819062
-0.39791
-0.373299
-0.202925
-0.176424
-0.109519
-0.0906631
-0.0644655
-0.0525708
-0.0420338
-0.0351979
-0.0296141
-0.0252769
-0.0215822
-0.0184128
-0.79955
-0.409918
-0.376607
-0.205655
-0.176134
-0.108827
-0.0887538
-0.0629078
-0.0509671
-0.0409086
-0.0344041
-0.0290986
-0.0249192
-0.0213372
-0.0182192
-0.779924
-0.423489
-0.37978
-0.208103
-0.17542
-0.10762
-0.0863366
-0.0608729
-0.0490038
-0.039518
-0.0334348
-0.0284651
-0.0244736
-0.0210112
-0.017951
-0.760733
-0.438983
-0.382846
-0.210311
-0.174275
-0.105902
-0.0833846
-0.0583379
-0.0466703
-0.0378653
-0.0323012
-0.0277276
-0.0239504
-0.0206145
-0.0176137
-0.742557
-0.45677
-0.385828
-0.212322
-0.172699
-0.103673
-0.0798757
-0.0552769
-0.043956
-0.0359579
-0.0310204
-0.026903
-0.023367
-0.020154
-0.0172114
-0.726
-0.477239
-0.388727
-0.214175
-0.170706
-0.100932
-0.075792
-0.0516619
-0.0408508
-0.033807
-0.0296147
-0.0260146
-0.0227394
-0.019644
-0.0167541
-0.711677
-0.500791
-0.391517
-0.21591
-0.168316
-0.0976849
-0.0711177
-0.0474636
-0.0373465
-0.0314285
-0.0281137
-0.0250901
-0.0220933
-0.0190911
-0.0162427
-0.700206
-0.527835
-0.394128
-0.217576
-0.16556
-0.0939434
-0.0658417
-0.0426537
-0.0334377
-0.0288449
-0.0265565
-0.0241658
-0.0214529
-0.0185141
-0.0156882
-0.692187
-0.558775
-0.396426
-0.219237
-0.162477
-0.0897312
-0.0599599
-0.0372067
-0.0291223
-0.0260889
-0.0249931
-0.0232866
-0.0208559
-0.0179178
-0.0150841
-0.688177
-0.593942
-0.398191
-0.220979
-0.159122
-0.0850873
-0.053481
-0.0311025
-0.0244039
-0.0232063
-0.0234873
-0.0225112
-0.0203383
-0.0173401
-0.0144125
-0.688631
-0.633325
-0.39921
-0.222929
-0.155567
-0.0800722
-0.0464353
-0.0243305
-0.0192946
-0.0202604
-0.0221204
-0.0219137
-0.0199526
-0.0168119
-0.0136418
-0.693773
-0.676092
-0.399395
-0.225264
-0.151899
-0.0747764
-0.0388873
-0.0168962
-0.0138221
-0.0173388
-0.0209961
-0.0215917
-0.0197476
-0.0164372
-0.012665
-0.70344
-0.720394
-0.398669
-0.228211
-0.148227
-0.0693306
-0.03095
-0.00883148
-0.00803881
-0.0145629
-0.0202519
-0.0216648
-0.0197842
-0.0162848
-0.0115865
-0.716851
-0.763328
-0.397055
-0.231928
-0.144684
-0.0639202
-0.0228043
-0.00022428
-0.00203473
-0.0121019
-0.0200736
-0.0222749
-0.0201474
-0.0163194
-0.0110338
-0.732554
-0.801217
-0.394824
-0.236378
-0.141444
-0.0588007
-0.0147252
0.00874045
0.00404611
-0.0101907
-0.0207198
-0.0235859
-0.0209803
-0.0165756
-0.0106696
-0.748691
-0.830387
-0.392375
-0.241459
-0.138738
-0.0543285
-0.00712336
0.0176951
0.00997835
-0.0091714
-0.022549
-0.0257968
-0.0224437
-0.0171074
-0.0102583
-0.763433
-0.848249
-0.390141
-0.247112
-0.136875
-0.0510121
-0.000621049
0.0259699
0.0154295
-0.00954366
-0.0260347
-0.0291865
-0.0246892
-0.0179723
-0.00976669
-0.77555
-0.854096
-0.38856
-0.253358
-0.136251
-0.0495754
0.00388453
0.0324069
0.019877
-0.0120665
-0.031798
-0.0341385
-0.0278813
-0.019269
-0.00930086
-0.784495
-0.849145
-0.388039
-0.260243
-0.137322
-0.0511326
0.0048426
0.0348137
0.0224981
-0.0177519
-0.0406502
-0.0411507
-0.0323053
-0.0210794
-0.00901704
-0.79027
-0.835885
-0.388898
-0.26777
-0.140495
-0.0576529
-0.00123899
0.0288029
0.0218015
-0.0271392
-0.0533477
-0.0508576
-0.0383085
-0.0235256
-0.00919696
-0.79318
-0.817163
-0.391311
-0.275901
-0.146162
-0.0713546
-0.019727
0.00794231
0.014557
-0.0397548
-0.0699656
-0.0638393
-0.0462982
-0.0268772
-0.0101514
-0.793602
-0.795469
-0.395294
-0.284507
-0.154925
-0.0927461
-0.0521291
-0.0306731
-0.00413378
-0.0544259
-0.0896245
-0.0803676
-0.0566505
-0.0314991
-0.0122098
-0.791869
-0.77262
-0.400703
-0.293455
-0.167146
-0.118137
-0.0918247
-0.0773592
-0.0351266
-0.0700596
-0.110789
-0.100229
-0.0692252
-0.0379852
-0.0157985
-0.78822
-0.749759
-0.407256
-0.302734
-0.182149
-0.1417
-0.127778
-0.120046
-0.072911
-0.0866699
-0.13202
-0.12245
-0.0837511
-0.0470441
-0.0210521
-0.782811
-0.727489
-0.414557
-0.312412
-0.198495
-0.160597
-0.156009
-0.153975
-0.109193
-0.104725
-0.15204
-0.145398
-0.10037
-0.0584923
-0.0285383
-0.775733
-0.706036
-0.422139
-0.322507
-0.21481
-0.176029
-0.177697
-0.179541
-0.139982
-0.124113
-0.169493
-0.167108
-0.118298
-0.0717358
-0.0403048
-0.767036
-0.685371
-0.429519
-0.332946
-0.230391
-0.191952
-0.195918
-0.198664
-0.164715
-0.144351
-0.183495
-0.185541
-0.136256
-0.0873463
-0.0586026
-0.756747
-0.665314
-0.436235
-0.343532
-0.245377
-0.21152
-0.21336
-0.213371
-0.183215
-0.162886
-0.192476
-0.198983
-0.153494
-0.105689
-0.0824458
-0.744878
-0.645609
-0.441863
-0.353866
-0.26026
-0.235769
-0.232542
-0.225273
-0.196045
-0.175095
-0.193933
-0.205736
-0.168778
-0.124896
-0.10683
-0.731456
-0.625979
-0.446011
-0.363387
-0.275275
-0.264062
-0.253348
-0.235117
-0.204582
-0.179557
-0.188008
-0.205385
-0.180817
-0.14245
-0.126774
-0.716572
-0.606176
-0.448323
-0.37155
-0.290072
-0.294839
-0.274798
-0.242909
-0.209667
-0.178941
-0.178983
-0.200296
-0.189709
-0.156137
-0.138674
-0.700366
-0.586058
-0.44849
-0.377965
-0.30368
-0.326131
-0.294992
-0.248305
-0.211261
-0.176941
-0.171801
-0.195269
-0.196242
-0.164288
-0.140484
-0.152064
-0.168088
-0.14406
-0.137873
-0.155054
-0.132115
-0.0769245
-0.0586805
-0.0392608
-0.0270754
-0.0256546
-0.0257598
-0.025837
-0.0271322
-0.0263338
-0.0242336
-0.025395
-0.0312241
-0.0308869
-0.0219698
-0.0185917
-0.0303794
-0.0401354
-0.0421515
-0.0367198
-0.02289
-0.00999455
-0.00287213
1.08145e-05
0.00127602
0.00145288
0.0011029
0.000818594
0.000469278
0.000297529
0.000234139
0.000142457
0.000166361
0.000192399
0.000161177
-0.135235
-0.15272
-0.132774
-0.130747
-0.147486
-0.130332
-0.0826637
-0.065569
-0.0405428
-0.023586
-0.0243648
-0.025296
-0.0243846
-0.0281912
-0.0287298
-0.0217914
-0.0198028
-0.0306359
-0.035688
-0.0241248
-0.0145311
-0.0245893
-0.0388964
-0.0450318
-0.0401722
-0.0244797
-0.00992822
-0.00214024
0.000478056
0.00130364
0.00132038
0.00102162
0.000804845
0.000471928
0.000295029
0.000228571
0.000137257
0.000162202
0.000189631
0.000159612
-0.118701
-0.136492
-0.118149
-0.115247
-0.130438
-0.121086
-0.0852722
-0.0702369
-0.0420728
-0.0203496
-0.0232075
-0.0250715
-0.0229131
-0.0286909
-0.0304095
-0.0194076
-0.014496
-0.0296371
-0.0391228
-0.0251998
-0.0100409
-0.0185558
-0.0376609
-0.0478538
-0.0433245
-0.0258973
-0.0098553
-0.00147352
0.000914539
0.00133311
0.00120591
0.000953583
0.000791181
0.000469424
0.000288028
0.000219802
0.000129038
0.000154951
0.000184764
0.000156942
-0.105425
-0.120966
-0.101964
-0.0936771
-0.106578
-0.104718
-0.0847699
-0.0894434
-0.0441149
-0.0174337
-0.0221152
-0.0251855
-0.0215447
-0.0284896
-0.0313271
-0.0173601
-0.00999992
-0.0281526
-0.0410225
-0.0253289
-0.00550532
-0.0127805
-0.0365676
-0.0506446
-0.0462681
-0.0272041
-0.00984111
-0.000958451
0.00124652
0.00134619
0.00111091
0.000901084
0.000777281
0.000461973
0.000277177
0.000208511
0.000118776
0.00014546
0.000178127
0.000153027
-0.0943746
-0.106526
-0.0850415
-0.0691723
-0.0796084
-0.0832764
-0.0797229
-0.0869655
-0.045357
-0.0148962
-0.0211371
-0.025666
-0.020475
-0.0275735
-0.0314886
-0.0159124
-0.00660246
-0.0262427
-0.0414157
-0.0247381
-0.00127194
-0.00761833
-0.0357094
-0.0533861
-0.0492223
-0.0284617
-0.00993514
-0.000654941
0.00144023
0.00132656
0.00106331
0.000859006
0.000760123
0.000449588
0.000263213
0.000195377
0.000107452
0.000134631
0.000170062
0.000147754
-0.0818153
-0.0913763
-0.0677058
-0.0450088
-0.0534035
-0.0590906
-0.0709259
-0.082303
-0.0460446
-0.0128499
-0.0202672
-0.0263475
-0.0198526
-0.0260697
-0.0310111
-0.0151166
-0.00435561
-0.0240507
-0.0404641
-0.0236393
0.00240641
-0.00329235
-0.0350882
-0.0559767
-0.0520043
-0.0296865
-0.0101708
-0.000581703
0.00148395
0.0012652
0.000986566
0.000817959
0.000735474
0.000431992
0.000246707
0.000180888
9.57958e-05
0.000123205
0.000160861
0.00014112
-0.065661
-0.0744473
-0.0514121
-0.0235512
-0.0307958
-0.034195
-0.059088
-0.0753598
-0.0460874
-0.0114162
-0.0194498
-0.0270136
-0.0197233
-0.024201
-0.0300683
-0.0148874
-0.0031628
-0.0217391
-0.040325
-0.0222614
0.00531546
8.37669e-05
-0.0346285
-0.0582393
-0.0544216
-0.0308505
-0.0105616
-0.000731331
0.00138616
0.00115663
0.000903014
0.000768989
0.000699765
0.000408775
0.000227921
0.000165297
8.4195e-05
0.000111657
0.00015076
0.000133264
-0.0481474
-0.0568877
-0.0372262
-0.00687145
-0.0124888
-0.0113115
-0.0453928
-0.0667523
-0.0453702
-0.0106403
-0.0186341
-0.0274088
-0.0200135
-0.0222319
-0.0287758
-0.0150634
-0.00282652
-0.0193912
-0.0377955
-0.0207488
0.00733405
0.00248166
-0.0342158
-0.0599631
-0.0563186
-0.0319046
-0.011099
-0.00107992
0.00116466
0.00100497
0.000804153
0.00070616
0.000651417
0.000379737
0.00020689
0.000148671
7.2729e-05
0.000100203
0.000139962
0.00012445
-0.0316015
-0.0401144
-0.0252608
0.00389642
0.00229721
0.00801441
-0.0309903
-0.0576136
-0.0438958
-0.0105239
-0.0177976
-0.0273687
-0.0205984
-0.0203753
-0.0270097
-0.0154582
-0.00312066
-0.017156
-0.0348102
-0.0192707
0.00843929
0.00394522
-0.0337266
-0.0609801
-0.0575803
-0.0327984
-0.0117556
-0.00159405
0.000840665
0.00081276
0.000686666
0.000627852
0.000591039
0.000345115
0.000183598
0.000130986
6.12811e-05
8.88771e-05
0.000128662
0.000115008
-0.0170702
-0.0252965
-0.0155553
0.00922337
0.0137501
0.0224446
-0.0161893
-0.0485462
-0.041373
-0.011068
-0.0169563
-0.0268247
-0.0214023
-0.018792
-0.0251558
-0.0159108
-0.00382979
-0.0151445
-0.0316238
-0.0179326
0.00868752
0.00457674
-0.0330477
-0.0612121
-0.0581565
-0.0334923
-0.0124913
-0.00223528
0.000436191
0.000585184
0.000550899
0.000535477
0.000520728
0.000305558
0.000158104
0.00011222
4.96663e-05
7.76183e-05
0.000117056
0.000105274
-0.0059644
-0.0137853
-0.00814899
0.0112182
0.0205619
0.0304998
-0.00188824
-0.0391508
-0.0370735
-0.0120108
-0.0160672
-0.0258142
-0.0218172
-0.0175858
-0.0234123
-0.0162933
-0.00476636
-0.0134207