/*--------------------------------*- C++ -*----------------------------------*\
  =========                 |
  \\      /  F ield         | OpenFOAM: The Open Source CFD Toolbox
   \\    /   O peration     | Website:  https://openfoam.org
    \\  /    A nd           | Version:  7
     \\/     M anipulation  |
\*---------------------------------------------------------------------------*/
FoamFile
{
    version     2.0;
    format      ascii;
    class       volScalarField;
    location    "6";
    object      p;
}
// * * * * * * * * * * * * * * * * * * * * * * * * * * * * * * * * * * * * * //

dimensions      [1 -1 -2 0 0 0 0];

internalField   nonuniform List<scalar> 
2413
(
1.12833
1.12763
1.12678
1.12567
1.12417
1.12282
1.12201
1.12139
1.12089
1.12028
1.11952
1.11855
1.11705
1.11539
1.11453
1.11384
1.11304
1.11208
1.11112
1.11032
1.10964
1.10898
1.10825
1.10737
1.10612
1.10432
1.10298
1.10224
1.10172
1.10123
1.10055
1.09973
1.09856
1.09697
1.096
1.09538
1.09472
1.09393
1.09298
1.09167
1.09029
1.08948
1.08892
1.08849
1.08806
1.08747
1.08667
1.08553
1.08382
1.08243
1.0817
1.08112
1.08075
1.08032
1.0796
1.07879
1.07779
1.07651
1.07534
1.07462
1.074
1.07334
1.07254
1.07151
1.07028
1.0693
1.06865
1.06817
1.06768
1.0671
1.06632
1.06515
1.06384
1.06311
1.06263
1.06225
1.0617
1.06099
1.06007
1.05866
1.05723
1.05653
1.0561
1.05577
1.05541
1.05492
1.0543
1.05339
1.05184
1.05025
1.04947
1.04897
1.04887
1.04899
1.04854
1.04796
1.04722
1.04593
1.04395
1.04281
1.04232
1.04196
1.04187
1.0417
1.04117
1.04055
1.03969
1.03821
1.03685
1.03626
1.03587
1.03559
1.03523
1.03475
1.0341
1.03304
1.15544
1.15463
1.15363
1.1523
1.15079
1.1497
1.14889
1.14811
1.14735
1.14663
1.14589
1.14502
1.14395
1.14248
1.14083
1.13982
1.13915
1.13857
1.13794
1.13714
1.13611
1.13471
1.13349
1.13269
1.13204
1.1314
1.13065
1.12972
1.12833
1.12655
1.12554
1.12491
1.12447
1.1238
1.12294
1.12195
1.12101
1.12019
1.11934
1.11831
1.11684
1.1154
1.11458
1.11394
1.11335
1.11269
1.11197
1.11109
1.10973
1.10809
1.10722
1.10665
1.10611
1.10528
1.10418
1.10275
1.10174
1.10115
1.10063
1.1001
1.09947
1.09866
1.09745
1.09571
1.09456
1.09384
1.0933
1.09316
1.09252
1.09161
1.09061
1.08937
1.0882
1.08739
1.08677
1.08618
1.08551
1.08466
1.08338
1.08187
1.08101
1.08051
1.08013
1.07967
1.07905
1.0782
1.07679
1.07521
1.07443
1.07389
1.07354
1.07317
1.07245
1.07157
1.07029
1.06856
1.0676
1.06708
1.06672
1.06638
1.06589
1.06525
1.06438
1.06295
1.06116
1.06025
1.05969
1.05937
1.05922
1.05877
1.05818
1.05742
1.05614
1.05414
1.05295
1.0524
1.05199
1.05185
1.05155
1.05099
1.05032
1.04932
1.04761
1.04627
1.04582
1.0456
1.04563
1.04569
1.04551
1.04518
1.04455
1.0433
1.16739
1.16636
1.16487
1.1634
1.1626
1.16196
1.16126
1.16041
1.15925
1.15786
1.15696
1.15625
1.15543
1.15443
1.15311
1.15167
1.15075
1.15011
1.14952
1.14883
1.14795
1.14672
1.14535
1.14444
1.14374
1.14304
1.14225
1.14124
1.13972
1.13818
1.13736
1.13675
1.13633
1.13567
1.13478
1.13361
1.13242
1.13147
1.13056
1.12948
1.12824
1.12724
1.12643
1.12565
1.12491
1.12422
1.12346
1.12249
1.12095
1.11943
1.1186
1.11809
1.11762
1.11676
1.11574
1.11445
1.11332
1.11257
1.11193
1.11132
1.11068
1.10984
1.10853
1.10701
1.10605
1.1052
1.10468
1.10445
1.10361
1.10275
1.10159
1.10012
1.09897
1.09824
1.09765
1.09705
1.09631
1.09533
1.09387
1.09253
1.09187
1.0914
1.09089
1.09025
1.08945
1.08826
1.08648
1.08531
1.0846
1.08399
1.08361
1.08301
1.08221
1.08126
1.07985
1.07823
1.07739
1.07683
1.07631
1.07576
1.0751
1.0743
1.07313
1.07142
1.07023
1.0696
1.06912
1.06877
1.06834
1.06776
1.067
1.06578
1.06415
1.0633
1.06288
1.06264
1.06263
1.06264
1.06245
1.06209
1.06154
1.06045
1.05954
1.05943
1.05959
1.06021
1.06128
1.06259
1.06344
1.06391
1.065
1.06661
1.17986
1.17845
1.17686
1.17595
1.17532
1.17476
1.17403
1.1731
1.17167
1.16996
1.16907
1.16844
1.16776
1.16687
1.16572
1.16424
1.16315
1.16246
1.1618
1.16105
1.16007
1.15868
1.15736
1.15657
1.15593
1.15524
1.15439
1.15323
1.15161
1.15046
1.14976
1.14923
1.14864
1.14778
1.14666
1.14535
1.14419
1.14326
1.14239
1.1415
1.14056
1.13949
1.13829
1.13723
1.13651
1.13588
1.13517
1.13415
1.13259
1.13126
1.13044
1.12982
1.12901
1.12829
1.12748
1.12644
1.12502
1.12359
1.12277
1.1222
1.12167
1.12092
1.1198
1.11864
1.11752
1.11651
1.11563
1.11471
1.11407
1.11335
1.11234
1.11101
1.10944
1.10844
1.10782
1.10721
1.10643
1.10542
1.10405
1.1029
1.10216
1.10144
1.1007
1.09988
1.09883
1.09729
1.09591
1.09507
1.09428
1.09345
1.09255
1.09163
1.09074
1.08987
1.08902
1.08819
1.08727
1.08618
1.0853
1.08471
1.08414
1.0835
1.08273
1.08169
1.08094
1.08055
1.08036
1.08022
1.07989
1.07967
1.07943
1.07928
1.07935
1.0794
1.07951
1.07976
1.08053
1.08236
1.08469
1.0868
1.08997
1.09296
1.09688
1.10184
1.10673
1.11397
1.12146
1.12937
1.13967
1.14932
1.15914
1.17071
1.19319
1.19146
1.19022
1.18946
1.1889
1.18827
1.18742
1.18623
1.18443
1.18311
1.18242
1.1818
1.18103
1.18005
1.17872
1.17716
1.17619
1.17552
1.17482
1.17395
1.17273
1.17111
1.17001
1.16935
1.16881
1.16809
1.16715
1.1658
1.16426
1.16343
1.16281
1.16209
1.16117
1.1601
1.15888
1.15772
1.15673
1.15584
1.15493
1.15395
1.15277
1.15134
1.14994
1.14909
1.14845
1.14784
1.14707
1.14583
1.14444
1.14338
1.14218
1.1412
1.14042
1.13968
1.13888
1.13785
1.13633
1.13451
1.13361
1.13288
1.13225
1.13169
1.13102
1.12991
1.12849
1.12709
1.12578
1.12484
1.12413
1.12342
1.12252
1.12137
1.11967
1.11818
1.11736
1.11666
1.11596
1.11507
1.114
1.11271
1.11155
1.11068
1.10985
1.10896
1.10787
1.10693
1.10616
1.1053
1.10441
1.10336
1.10215
1.10134
1.10094
1.10081
1.10089
1.10081
1.10048
1.09992
1.0992
1.09883
1.09901
1.09975
1.10083
1.10179
1.10245
1.10352
1.10543
1.10746
1.11038
1.11452
1.11923
1.12605
1.13218
1.13847
1.14623
1.15318
1.16217
1.17251
1.18287
1.19549
1.21051
1.22333
1.23667
1.25218
1.26623
1.27994
1.29651
1.3128
1.32553
1.34177
1.35766
1.372
1.20694
1.2055
1.20468
1.20409
1.20348
1.20262
1.20145
1.19966
1.19812
1.19736
1.19676
1.19613
1.19528
1.19423
1.19275
1.19094
1.18991
1.18925
1.18855
1.18766
1.18641
1.18466
1.18339
1.18265
1.1821
1.1814
1.18047
1.17932
1.17805
1.17695
1.17584
1.17444
1.1731
1.17223
1.17143
1.17057
1.16966
1.16873
1.16767
1.16628
1.16446
1.16278
1.16181
1.16113
1.16058
1.15989
1.15875
1.15762
1.15639
1.15491
1.15371
1.15275
1.15182
1.15093
1.14996
1.14875
1.14704
1.1454
1.14435
1.14364
1.14302
1.14245
1.14179
1.14028
1.13874
1.13727
1.13579
1.13466
1.13403
1.13341
1.13263
1.1316
1.13006
1.12853
1.12769
1.12709
1.12664
1.12625
1.12573
1.12497
1.12383
1.12261
1.12218
1.12193
1.12179
1.12195
1.12239
1.12236
1.12193
1.12168
1.12177
1.12237
1.12381
1.12642
1.12965
1.13308
1.13612
1.1399
1.14413
1.14934
1.15643
1.16388
1.17328
1.18266
1.19077
1.20148
1.21175
1.22247
1.23776
1.25128
1.26572
1.2824
1.29404
1.30898
1.32352
1.33797
1.35423
1.36939
1.38502
1.39763
1.40952
1.4215
1.43405
1.44898
1.46536
1.47731
1.48432
1.48857
1.4937
1.5015
1.51193
1.52337
1.22213
1.22132
1.22063
1.21988
1.21896
1.21774
1.21586
1.21403
1.21313
1.21246
1.21185
1.21106
1.21006
1.20879
1.20687
1.20489
1.20391
1.20327
1.20265
1.2018
1.20066
1.199
1.19717
1.1961
1.19533
1.19467
1.19388
1.19299
1.19203
1.19086
1.18913
1.18688
1.18564
1.18495
1.1843
1.18345
1.18248
1.18144
1.18009
1.1782
1.17618
1.17493
1.17414
1.1735
1.17281
1.17171
1.17049
1.16922
1.16764
1.16636
1.16544
1.16448
1.1635
1.16248
1.16128
1.15956
1.15803
1.15694
1.15618
1.15566
1.15509
1.15478
1.15392
1.15244
1.15123
1.14996
1.14868
1.14807
1.14801
1.14804
1.14772
1.14718
1.1464
1.14575
1.14554
1.14581
1.14662
1.14785
1.14909
1.14999
1.1507
1.15248
1.15503
1.15804
1.16269
1.16779
1.17417
1.18051
1.18671
1.19437
1.2012
1.21038
1.22077
1.23137
1.24543
1.25761
1.27005
1.28514
1.29674
1.31079
1.32729
1.3403
1.35659
1.37148
1.3822
1.39688
1.41041
1.42336
1.43973
1.45269
1.46502
1.47668
1.48502
1.49261
1.5004
1.51007
1.52231
1.53317
1.5386
1.54124
1.54285
1.54637
1.55171
1.56043
1.57091
1.5753
1.57678
1.57482
1.5717
1.57314
1.57666
1.58276
1.23806
1.23732
1.23643
1.23541
1.23412
1.23223
1.23032
1.22932
1.2286
1.22794
1.22714
1.22614
1.22493
1.22327
1.22099
1.21929
1.21837
1.21767
1.21699
1.21611
1.21497
1.21335
1.21125
1.20985
1.2089
1.20805
1.20723
1.20635
1.20532
1.20385
1.20156
1.19996
1.19918
1.19842
1.19751
1.19645
1.19514
1.19348
1.19192
1.19063
1.18957
1.18877
1.18812
1.18746
1.18656
1.18521
1.18401
1.18275
1.18142
1.18071
1.18015
1.17951
1.17879
1.17789
1.17656
1.17538
1.17503
1.17473
1.17448
1.17445
1.1747
1.17531
1.175
1.17489
1.17524
1.17545
1.17671
1.17831
1.18079
1.18358
1.18668
1.19068
1.19462
1.20006
1.20566
1.21291
1.22071
1.22851
1.2384
1.24675
1.25677
1.26846
1.27883
1.29266
1.30616
1.3182
1.33432
1.34706
1.36096
1.37791
1.38952
1.40412
1.41797
1.42881
1.44331
1.45519
1.46745
1.48363
1.49509
1.50503
1.51399
1.52009
1.52796
1.53647
1.54487
1.55336
1.55922
1.5633
1.5673
1.57199
1.57864
1.58537
1.58836
1.58921
1.58856
1.59004
1.5935
1.59858
1.60142
1.60229
1.6015
1.60088
1.60187
1.60366
1.60791
1.6113
1.61188
1.61117
1.60772
1.60402
1.60299
1.60273
1.25184
1.25089
1.24985
1.24865
1.2471
1.24538
1.24415
1.24328
1.24246
1.2416
1.24062
1.23949
1.23807
1.23611
1.23408
1.23283
1.23193
1.23121
1.2305
1.22955
1.22832
1.22657
1.22494
1.22396
1.22312
1.22236
1.22156
1.22067
1.21946
1.21769
1.21638
1.21578
1.21531
1.21466
1.2138
1.21258
1.21101
1.21
1.20938
1.20902
1.20873
1.20852
1.20832
1.2079
1.2071
1.20635
1.20601
1.20579
1.20621
1.2071
1.20758
1.20813
1.20918
1.20979
1.21095
1.21349
1.21592
1.21956
1.22319
1.22768
1.23302
1.23822
1.24523
1.25166
1.25944
1.26816
1.27659
1.28772
1.29788
1.30852
1.32156
1.33196
1.34506
1.35938
1.37176
1.38875
1.40245
1.41424
1.42915
1.43956
1.45207
1.46604
1.47698
1.49157
1.50545
1.51507
1.52597
1.53359
1.54102
1.54998
1.5595
1.56956
1.57621
1.58014
1.58308
1.58631
1.59121
1.59868
1.6064
1.60987
1.61069
1.60975
1.61125
1.6144
1.61922
1.62206
1.62292
1.6221
1.62189
1.62297
1.62504
1.62886
1.63065
1.63055
1.62899
1.62556
1.62353
1.62311
1.62398
1.62535
1.62487
1.6237
1.62092
1.61787
1.61671
1.61612
1.61619
1.61595
1.61531
1.61376
1.60989
1.60686
1.26011
1.25925
1.25836
1.25739
1.25621
1.25495
1.25408
1.2534
1.2528
1.25218
1.25144
1.25056
1.24943
1.248
1.24687
1.24611
1.24553
1.24511
1.24466
1.24393
1.24279
1.24144
1.2406
1.24007
1.2397
1.23937
1.23893
1.23825
1.2374
1.23684
1.23671
1.23707
1.23745
1.23758
1.23749
1.23721
1.23766
1.23856
1.24026
1.2422
1.24444
1.24711
1.24895
1.25197
1.25494
1.25883
1.26346
1.26838
1.27513
1.28119
1.28858
1.29577
1.30276
1.31207
1.3211
1.33108
1.34351
1.35345
1.36431
1.37761
1.38834
1.40173
1.41701
1.42809
1.44229
1.45497
1.46499
1.47901
1.49068
1.50294
1.51796
1.52704
1.53665
1.54618
1.55415
1.56462
1.57533
1.58444
1.59127
1.59576
1.59952
1.60316
1.60773
1.61428
1.62324
1.62943
1.63205
1.63211
1.63112
1.63285
1.63597
1.64155
1.64551
1.64641
1.6458
1.64361
1.64342
1.6446
1.64744
1.65087
1.65151
1.651
1.64904
1.64787
1.64772
1.64808
1.64768
1.64655
1.64437
1.64268
1.64189
1.64152
1.6416
1.64092
1.63968
1.63728
1.63319
1.63068
1.62962
1.62907
1.6294
1.6289
1.62777
1.62583
1.62245
1.62032
1.61927
1.61857
1.61824
1.61743
1.61636
1.61425
1.26171
1.26113
1.26053
1.25985
1.25899
1.25811
1.25757
1.25726
1.2572
1.2571
1.25676
1.25641
1.25624
1.25631
1.25645
1.25684
1.25766
1.25865
1.26035
1.2613
1.26245
1.26391
1.26517
1.26737
1.26938
1.27199
1.27512
1.27782
1.28138
1.2846
1.28861
1.29317
1.29741
1.30308
1.30804
1.31322
1.31998
1.32568
1.33235
1.34059
1.34834
1.35692
1.36764
1.37634
1.38506
1.39638
1.40535
1.41606
1.42969
1.44068
1.45431
1.46711
1.47661
1.48948
1.50055
1.51088
1.52475
1.53509
1.54509
1.55543
1.56339
1.57302
1.5845
1.59574
1.60438
1.60965
1.61348
1.61762
1.62265
1.63007
1.63966
1.64507
1.64743
1.64741
1.64769
1.65023
1.65412
1.66031
1.66427
1.66541
1.66492
1.66288
1.66269
1.66411
1.66729
1.67202
1.6737
1.6738
1.67204
1.66976
1.66911
1.66929
1.67102
1.67167
1.6708
1.66849
1.66488
1.6632
1.66254
1.66259
1.66337
1.66278
1.66147
1.65864
1.65565
1.65443
1.65374
1.6534
1.65259
1.6515
1.64957
1.64789
1.6468
1.6459
1.64501
1.64362
1.64188
1.63924
1.63623
1.6346
1.63339
1.63265
1.63171
1.63037
1.6287
1.62628
1.62427
1.62313
1.62222
1.62142
1.62051
1.61938
1.26918
1.27027
1.27153
1.2728
1.27435
1.2761
1.27799
1.28043
1.28314
1.28614
1.28989
1.29351
1.29735
1.30173
1.30565
1.31023
1.31548
1.32048
1.32645
1.333
1.3388
1.34508
1.35151
1.35666
1.36288
1.37007
1.3765
1.38482
1.39422
1.40114
1.40958
1.41755
1.42428
1.43363
1.44371
1.45267
1.46346
1.47325
1.48085
1.49092
1.5009
1.51068
1.5239
1.53576
1.54478
1.55466
1.56189
1.56954
1.5781
1.58689
1.59811
1.61043
1.61868
1.62374
1.6273
1.63205
1.63868
1.64673
1.65195
1.65439
1.65624
1.6595
1.66443
1.67157
1.67563
1.67687
1.67641
1.67569
1.67639
1.67809
1.68204
1.68586
1.68679
1.68638
1.68381
1.68193
1.682
1.683
1.68589
1.68733
1.68709
1.68571
1.68301
1.68154
1.68112
1.68158
1.68354
1.68417
1.68362
1.68215
1.6793
1.67762
1.67684
1.67691
1.67725
1.67624
1.67475
1.67207
1.6697
1.66836
1.66717
1.66584
1.66411
1.66187
1.65939
1.65775
1.65651
1.65555
1.65443
1.65324
1.65141
1.64861
1.64688
1.64584
1.64511
1.64494
1.64416
1.643
1.64135
1.63839
1.63584
1.63459
1.63365
1.63345
1.63313
1.63206
1.63082
1.62879
1.62591
1.62431
1.62345
1.62275
1.319
1.3249
1.33217
1.3384
1.34532
1.35274
1.35869
1.36602
1.37318
1.37947
1.38764
1.3953
1.40246
1.41138
1.4183
1.42441
1.43187
1.43788
1.44427
1.45275
1.46043
1.46828
1.47728
1.48305
1.4888
1.49599
1.50217
1.50951
1.51936
1.52802
1.53616
1.54419
1.55046
1.5577
1.56623
1.57542
1.58551
1.59381
1.59993
1.60577
1.61143
1.61793
1.62616
1.63681
1.64559
1.65
1.6525
1.65363
1.65578
1.65943
1.66491
1.67354
1.67907
1.68093
1.68071
1.68073
1.68239
1.6854
1.68902
1.69021
1.68982
1.6895
1.69028
1.69195
1.69435
1.6952
1.69477
1.69367
1.69347
1.69401
1.6953
1.69704
1.69736
1.69705
1.69576
1.69297
1.69116
1.69075
1.69145
1.69333
1.69329
1.69231
1.69024
1.68742
1.68588
1.68486
1.6846
1.68514
1.68434
1.68291
1.68047
1.67768
1.67629
1.67533
1.67505
1.67443
1.67335
1.67183
1.66897
1.66588
1.66428
1.66299
1.66193
1.66113
1.66001
1.65874
1.65736
1.65575
1.65355
1.6502
1.64742
1.64625
1.64538
1.64473
1.64459
1.64477
1.64423
1.64346
1.64232
1.63983
1.63632
1.63468
1.63381
1.63328
1.63335
1.63299
1.6321
1.63106
1.62932
1.6263
1.62412
1.62319
1.43336
1.4407
1.44978
1.45704
1.4645
1.47307
1.47889
1.48526
1.49167
1.4962
1.5019
1.50773
1.51251
1.51844
1.52445
1.52936
1.53483
1.53893
1.54244
1.547
1.55202
1.5585
1.56709
1.57407
1.5787
1.58296
1.58687
1.59157
1.59756
1.60537
1.61466
1.62137
1.62588
1.63001
1.63467
1.64045
1.64813
1.65541
1.65936
1.66163
1.6633
1.66584
1.66906
1.67403
1.68116
1.68521
1.6865
1.68598
1.68426
1.68457
1.6858
1.68864
1.69308
1.69486
1.69523
1.69446
1.69403
1.69471
1.69642
1.69722
1.69693
1.69584
1.69483
1.69464
1.69513
1.69595
1.69547
1.69439
1.69406
1.69398
1.69428
1.6941
1.69361
1.69293
1.69176
1.68937
1.68701
1.68594
1.68519
1.68517
1.68472
1.68374
1.68243
1.68
1.67695
1.67519
1.67389
1.67285
1.67182
1.67066
1.66935
1.66747
1.66521
1.6639
1.66311
1.6624
1.66169
1.66091
1.65979
1.65781
1.65577
1.65474
1.65394
1.65345
1.65321
1.65252
1.65162
1.6505
1.6487
1.64585
1.6438
1.64284
1.64204
1.64156
1.6417
1.64164
1.64099
1.64017
1.63898
1.63669
1.63357
1.63202
1.63121
1.63062
1.63048
1.63023
1.62946
1.62856
1.62727
1.62491
1.62234
1.62109
1.52954
1.53292
1.53731
1.54116
1.54512
1.54841
1.55007
1.55214
1.55451
1.55751
1.56161
1.56487
1.56696
1.56934
1.57232
1.57677
1.58249
1.58647
1.58939
1.59241
1.596
1.60069
1.60743
1.61555
1.6208
1.62431
1.62697
1.63013
1.63449
1.64023
1.64831
1.65451
1.65771
1.65941
1.66117
1.66397
1.66781
1.67347
1.67746
1.67928
1.6799
1.67967
1.68064
1.68232
1.68532
1.68992
1.69196
1.69221
1.6911
1.68872
1.68794
1.68808
1.68929
1.69179
1.6925
1.69217
1.69115
1.6907
1.69063
1.69087
1.69049
1.68978
1.68835
1.68612
1.68455
1.68365
1.6833
1.68329
1.68265
1.68177
1.68043
1.67813
1.6758
1.67449
1.6734
1.67229
1.6712
1.6702
1.66945
1.6688
1.66821
1.66774
1.66708
1.66606
1.66466
1.66256
1.66073
1.65984
1.65919
1.65875
1.65819
1.6574
1.65641
1.65504
1.65341
1.65241
1.65175
1.65111
1.6504
1.64947
1.64817
1.64674
1.64575
1.64503
1.64457
1.64393
1.6431
1.64208
1.64059
1.63844
1.63683
1.63588
1.63502
1.63437
1.63401
1.63335
1.63248
1.63144
1.62999
1.62761
1.62502
1.62372
1.62284
1.62201
1.62138
1.62085
1.62007
1.61919
1.61812
1.6164
1.61406
1.61255
1.56054
1.5613
1.5636
1.56739
1.56909
1.56958
1.56935
1.56977
1.57136
1.57422
1.57836
1.58123
1.58343
1.58594
1.58916
1.59356
1.59945
1.60437
1.60791
1.61108
1.61458
1.61877
1.62411
1.63147
1.63765
1.64128
1.6436
1.64545
1.6484
1.65207
1.65748
1.66263
1.66496
1.66596
1.6658
1.66654
1.66802
1.67059
1.6744
1.67611
1.67665
1.67617
1.67464
1.67441
1.67504
1.6768
1.68012
1.68165
1.68168
1.6808
1.67822
1.67621
1.67559
1.67536
1.67616
1.67625
1.6755
1.67441
1.67308
1.67234
1.67162
1.67071
1.66959
1.66796
1.66604
1.66504
1.66442
1.66423
1.66475
1.66451
1.66372
1.66251
1.6603
1.65795
1.65684
1.65635
1.65639
1.656
1.65534
1.65469
1.65396
1.65323
1.65246
1.65157
1.6506
1.64922
1.64752
1.64655
1.64593
1.64548
1.64524
1.64474
1.6439
1.64286
1.64125
1.63946
1.6385
1.63776
1.63709
1.63651
1.63566
1.63465
1.63338
1.63195
1.63091
1.63001
1.62912
1.62819
1.62715
1.62591
1.62464
1.62362
1.62266
1.62171
1.62075
1.61976
1.61869
1.61744
1.61585
1.61403
1.61261
1.61156
1.61056
1.60948
1.60823
1.6071
1.6062
1.60529
1.60433
1.60321
1.60174
1.60006
1.56242
1.56273
1.56449
1.56822
1.5707
1.57188
1.57278
1.5734
1.57513
1.57785
1.58192
1.58758
1.59205
1.59572
1.5997
1.60424
1.60918
1.61374
1.61749
1.62078
1.62412
1.62787
1.63237
1.63827
1.64325
1.64605
1.64763
1.64796
1.64907
1.65093
1.65355
1.65755
1.65983
1.66066
1.66048
1.65919
1.65901
1.65942
1.66054
1.66284
1.66363
1.66326
1.66231
1.66013
1.65851
1.65822
1.65845
1.65998
1.66127
1.66103
1.66034
1.65849
1.65641
1.65567
1.65529
1.6556
1.65595
1.65547
1.65478
1.65391
1.65308
1.65226
1.65138
1.65032
1.64885
1.6475
1.64674
1.64621
1.6461
1.64637
1.64598
1.64517
1.64399
1.64195
1.64026
1.63948
1.63904
1.63906
1.63903
1.63852
1.63767
1.6366
1.63525
1.63392
1.63278
1.63165
1.63058
1.62982
1.62911
1.62845
1.62791
1.62723
1.62636
1.62539
1.624
1.62224
1.62117
1.62038
1.61962
1.61903
1.61847
1.61753
1.6165
1.61515
1.61351
1.61237
1.61149
1.61069
1.61
1.60916
1.60824
1.60732
1.60626
1.60502
1.60379
1.60262
1.60141
1.60023
1.59916
1.59815
1.59718
1.5962
1.59518
1.59392
1.59217
1.59064
1.58968
1.58878
1.58791
1.58698
1.58597
1.58485
1.56534
1.56667
1.56894
1.57249
1.57625
1.579
1.58125
1.58315
1.5859
1.58961
1.59418
1.60009
1.60631
1.61079
1.61437
1.61745
1.62026
1.62315
1.62623
1.62933
1.63238
1.63559
1.63932
1.64285
1.64472
1.64561
1.64557
1.6449
1.64525
1.64602
1.64725
1.64977
1.65184
1.652
1.65163
1.65003
1.64754
1.64674
1.64655
1.647
1.6488
1.64963
1.64913
1.64823
1.64621
1.64408
1.64339
1.64305
1.64354
1.6445
1.64425
1.64359
1.64231
1.64021
1.63902
1.63847
1.63815
1.63817
1.6379
1.63726
1.63655
1.63575
1.63479
1.6336
1.63206
1.63065
1.62981
1.62913
1.62862
1.62849
1.62828
1.62757
1.62673
1.62546
1.62367
1.62255
1.62185
1.62138
1.62137
1.62125
1.62049
1.61957
1.61828
1.61665
1.61551
1.6147
1.61395
1.61324
1.61257
1.61194
1.61112
1.61019
1.60925
1.60814
1.60666
1.6053
1.60445
1.60363
1.60288
1.60232
1.60163
1.60067
1.59965
1.59833
1.59666
1.59547
1.59453
1.59367
1.593
1.59219
1.59126
1.59031
1.58912
1.58773
1.58653
1.58552
1.58456
1.5836
1.58261
1.5816
1.58057
1.5795
1.57833
1.57687
1.57509
1.57375
1.57281
1.57195
1.57114
1.5702
1.56921
1.56814
1.57424
1.57697
1.58039
1.58471
1.58968
1.59432
1.59827
1.60173
1.60496
1.60836
1.6122
1.61675
1.62249
1.62778
1.63067
1.63227
1.63279
1.6342
1.63651
1.6398
1.64219
1.64322
1.64411
1.64508
1.64573
1.64581
1.64547
1.64483
1.64424
1.64392
1.64374
1.64416
1.64503
1.64495
1.64444
1.64348
1.64148
1.63967
1.63907
1.63872
1.63901
1.64015
1.64029
1.63974
1.63878
1.63674
1.6349
1.63421
1.63377
1.63401
1.63445
1.63397
1.63323
)
;

boundaryField
{
    inlet
    {
        type            fixedValue;
        value           nonuniform 0();
    }
    outlet
    {
        type            zeroGradient;
    }
    bottom
    {
        type            symmetryPlane;
    }
    top
    {
        type            symmetryPlane;
    }
    obstacle
    {
        type            zeroGradient;
    }
    front
    {
        type            empty;
    }
    back
    {
        type            empty;
    }
    procBoundary38to30
    {
        type            processor;
        value           nonuniform List<scalar> 
133
(
1.11789
1.117
1.11576
1.11397
1.11242
1.11159
1.11098
1.11065
1.1102
1.10949
1.1086
1.10728
1.10549
1.10443
1.10374
1.10301
1.10212
1.10098
1.09969
1.09882
1.09819
1.0976
1.09699
1.09628
1.0954
1.0941
1.0922
1.09094
1.09026
1.08974
1.08915
1.08839
1.08738
1.08593
1.08478
1.08408
1.0834
1.08266
1.08184
1.08081
1.07933
1.07797
1.07722
1.07666
1.07623
1.07588
1.07538
1.07468
1.07374
1.07227
1.07036
1.06932
1.06874
1.06835
1.06812
1.06755
1.0668
1.06587
1.06443
1.06295
1.06222
1.0617
1.06125
1.06071
1.06001
1.05907
1.05763
1.05636
1.05575
1.05532
1.05492
1.05438
1.05362
1.05246
1.05127
1.05061
1.05013
1.04962
1.04896
1.04812
1.04696
1.04578
1.04502
1.0445
1.04409
1.04368
1.04321
1.04264
1.04181
1.04044
1.03901
1.03822
1.03772
1.03763
1.03759
1.03716
1.03668
1.03607
1.03504
1.03334
1.03209
1.03159
1.03121
1.03096
1.03084
1.0305
1.03001
1.02943
1.02862
1.02755
1.02651
1.02582
1.02535
1.02493
1.02448
1.02388
1.14381
1.14318
1.14242
1.1415
1.14027
1.13852
1.13711
1.13637
1.13584
1.13538
1.13468
1.13377
1.13255
1.13094
1.12974
1.12899
1.12899
)
;
    }
    procBoundary38to31
    {
        type            processor;
        value           uniform 1.03139;
    }
    procBoundary38to37
    {
        type            processor;
        value           nonuniform List<scalar> 
16
(
1.15616
1.16821
1.18084
1.19444
1.20871
1.22345
1.23882
1.25262
1.26085
1.26233
1.26857
1.31378
1.42516
1.52622
1.56052
1.56265
)
;
    }
    procBoundary38to39
    {
        type            processor;
        value           nonuniform List<scalar> 
17
(
1.04229
1.06883
1.18414
1.38856
1.52993
1.58526
1.60362
1.6059
1.61111
1.61754
1.62208
1.62247
1.62021
1.61157
1.59884
1.58352
1.56683
)
;
    }
    procBoundary38to45
    {
        type            processor;
        value           nonuniform List<scalar> 2(1.56475 1.57196);
    }
    procBoundary38to46
    {
        type            processor;
        value           nonuniform List<scalar> 
133
(
1.63184
1.62964
1.62834
1.62766
1.62714
1.62699
1.62668
1.62595
1.62511
1.62411
1.62277
1.62114
1.61998
1.61919
1.61845
1.61776
1.61725
1.61681
1.6161
1.61528
1.61428
1.6128
1.61118
1.61027
1.60953
1.60905
1.60879
1.60813
1.60736
1.60638
1.60487
1.60345
1.60252
1.60168
1.60096
1.60026
1.59934
1.59836
1.59732
1.59612
1.59469
1.59337
1.59248
1.59163
1.59078
1.59002
1.58929
1.58835
1.58738
1.58626
1.58472
1.58314
1.5821
1.58112
1.58025
1.57946
1.57852
1.57757
1.57651
1.57515
1.57387
1.57295
1.57206
1.57114
1.57018
1.56914
1.56804
1.56684
1.56552
1.56413
1.56279
1.56158
1.56055
1.55958
1.55858
1.55755
1.55648
1.55539
1.55423
1.59451
1.59898
1.60338
1.60806
1.61341
1.61915
1.6238
1.62708
1.6292
1.63075
1.63315
1.63621
1.64027
1.64414
1.64573
1.6462
1.64547
1.64513
1.64538
1.64627
1.64778
1.64806
1.64771
1.64634
1.64451
1.64381
1.64355
1.64363
1.64317
1.64244
1.64134
1.64044
1.63988
1.63961
1.63943
1.63894
1.6383
1.63717
1.63572
1.63498
1.63449
1.63433
1.63452
1.63417
1.63352
1.63251
1.63069
1.62922
1.62852
1.62803
1.62795
1.62769
1.63184
1.62702
)
;
    }
}


// ************************************************************************* //
