/*--------------------------------*- C++ -*----------------------------------*\
  =========                 |
  \\      /  F ield         | OpenFOAM: The Open Source CFD Toolbox
   \\    /   O peration     | Website:  https://openfoam.org
    \\  /    A nd           | Version:  7
     \\/     M anipulation  |
\*---------------------------------------------------------------------------*/
FoamFile
{
    version     2.0;
    format      ascii;
    class       volScalarField;
    location    "0.292";
    object      T;
}
// * * * * * * * * * * * * * * * * * * * * * * * * * * * * * * * * * * * * * //

dimensions      [0 2 -2 0 0 0 0];

internalField   nonuniform List<scalar> 
12359
(
6.8083e-85
-3.41497e-68
3.10612e-236
-1.67448e-44
-1.43306e-77
-1.53689e-30
3.25677e-25
5.07829e-29
9.35688e-20
2.79896e-33
-2.28588e-22
-2.61958e-14
0.0401363
8.96016e-42
6.20846e-48
-6.07925e-07
-1.709e-05
-1.93784e-128
-3.4229e-132
1.16665e-56
-3.44504e-39
8.83143e-17
7.80018e-64
-1.81217e-53
2.25633e-65
-1.45556e-59
6.44627e-171
3.25816e-175
-6.57965e-138
-1.02266e-160
-8.57786e-155
2.42657e-191
1.86351e-210
5.92022e-164
-3.09538e-223
-2.2026e-152
1.36502e-103
3.6678e-88
-2.00688e-82
-2.49751e-94
1.48832e-71
1.4355e-91
-7.17607e-113
-3.38966e-116
-1.33901e-144
3.42482e-141
3.50622e-148
1.17456e-157
8.69777e-135
-2.47486e-167
-1.67856e-177
-3.79712e-184
-3.19469e-194
6.38937e-125
-2.06443e-200
-5.99289e-207
1.17735e-118
6.48485e-214
-1.41824e-216
7.54211e-220
9.72262e-204
-1.0607e-230
1.10101e-180
3.6469
-1.14309e-121
-9.15652e-37
-7.04848e-107
4.08608e-188
-1.88454e-100
1.38086e-09
82.7864
1.34233e-74
-1.09132e-239
3.02154e-97
1.96076e-50
1.18897e-226
4.11295e-197
-4.37372e-233
5.66263e-110
3.8414e-12
-5.36934e-34
-7.29499e-154
0
-7.52224e-95
0.000276368
6.07513e-106
1.32526e-151
-1.32302e-212
0.0859556
7.30788e-05
1.38679e-267
1.7845
7.13781e-270
-1.1717e-125
-4.31821e-100
7.26704e-83
2.81546e-130
-1.76129e-124
-1.32059e-63
-4.85385e-79
4.45265e-28
1.56257e-258
2.07437e-106
12.7505
9.64642e-164
2.94385e-42
-5.14693e-279
0.000330023
1.68062e-114
8.54098e-44
-2.82484e-133
-1.30386e-153
-9.54213e-39
1.00319e-32
-1.72382e-100
2.6648e-190
-1.30026e-31
1.09312e-154
0.398085
-1.66895e-320
9.13586e-134
-8.53958e-29
6.12743e-211
3.83971e-61
7.29099e-152
-3.56563e-179
3.4908e-21
-2.57294e-94
1.86191e-234
1.77053e-153
-2.48998e-189
1.04946e-13
5.05646e-11
1.52254e-11
2.37769e-279
7.71428e-61
-4.3269e-189
-3.79025e-63
4.13447e-253
2.11013e-22
-3.95671e-308
2.23862e-84
2.88041e-57
-3.21039e-278
8.67073e-26
-2.33776e-34
0
7.87713e-05
-6.82575e-163
8.54215e-32
8.39798e-82
3.94739e-255
4.57057e-56
2.23111e-209
7.07484e-277
102.147
2.93951e-29
4.87781e-14
2.22773e-130
-1.00095e-199
-2.07257e-44
-3.58458e-198
1.15432e-61
8.59585e-58
-2.921e-308
-2.8857e-181
-2.41453e-46
8.33242e-29
1.27233e-59
0.0965231
-1.51841e-230
-4.40321e-229
4.77322e-62
3.65329e-67
8.66445e-166
7.70109e-23
6.84219e-145
4.8707e-147
2.65016e-38
4.15568e-24
7.86477e-44
8.86468e-275
-5.26649e-234
3.53345e-153
-2.54606e-65
-3.97828e-19
-1.71419e-127
-4.27525e-105
1.6898e-79
-1.71946e-126
-4.11039e-103
1.11949e-84
3.40048e-85
-8.38459e-207
1.05525e-43
16.4278
1.74112e-85
-4.40577e-127
-2.19661e-55
4.56317e-152
-9.19662e-33
1.76537e-80
-1.27678e-77
2.2281e-44
5.13921e-30
5.54629e-276
2.12848e-28
-4.28961e-76
6.13803e-55
9.87628e-138
5.7633e-299
1.14054e-29
6.25876e-29
144.293
-1.69822e-18
-1.42048e-252
-2.18864e-127
-3.68168e-102
-2.75628e-126
1.46235e-83
3.72231e-33
4.20858e-139
1.1352e-62
1.90101
2.37393e-153
9.90165e-299
6.7216e-81
1.12898e-116
1.22657e-24
-7.04756e-128
1.86379e-122
-1.88028e-311
8.98686e-26
1.52137e-72
-3.40685e-106
4.14905e-74
1.65542e-319
5.06898e-53
1.12836e-105
9.55879e-06
7.78e-297
-1.00868e-102
-2.07719e-113
2.9369e-12
-2.2026e-42
0.000106941
-2.27085e-218
2.69717e-56
-2.11085e-172
2.95261e-85
1.56319e-38
-3.7832e-91
-1.97455e-150
1.34303e-122
0.692912
115.793
1.05532e-318
1.16513e-144
0.699
135.79
-1.57172e-77
1.53977e-43
3.08892e-27
8.76585e-45
-1.31233e-68
51.436
0.306502
2.71098e-40
1.54814e-146
2.94601e-60
8.05474e-61
3.22238e-64
2.93668e-58
-6.84392e-125
6.69376e-141
-2.20987e-298
4.3945e-143
3.4595
3.75416e-40
-2.8609e-258
3.83926e-257
5.22064e-45
-1.14525e-148
1.28953e-108
-3.08207e-104
-4.42379e-312
2.48509e-27
2.38375e-256
1.48745e-258
1.17992e-192
4.1562e-63
1.98104e-157
46.0509
-3.9969e-279
-5.85206e-276
7.56022e-105
3.73188e-174
3.76075e-34
-1.81032e-105
6.50967e-182
-5.03657e-267
2.73813
6.10858e-26
7.65084e-268
-1.55824e-126
-2.89591e-107
-5.98818e-171
-5.41252e-189
3.03327e-190
-1.48451e-168
-1.02324e-135
-3.70338e-19
-2.07606e-171
-4.89957e-155
-9.795e-90
3.95304e-48
0.0710782
-5.90223e-169
-1.71491e-66
8.23937e-08
1.07324e-258
3.64261e-66
-6.94816e-255
1.42386e-83
6.10764e-275
-6.253e-168
1.42362e-20
1.5499e-61
-2.67047e-20
6.81285e-110
-2.90188e-114
4.87758e-86
1.99396e-82
-4.04808e-113
7.73517e-87
3.11682e-86
-5.61711e-234
6.13563e-207
1.31321e-207
2.11587e-205
2.02845e-205
6.72735e-05
-9.61233e-311
1.15858e-31
1.13596e-65
-1.21333e-68
3.35205e-55
2.03769e-60
-7.30711e-105
-1.51609e-87
2.74591e-61
-1.43141e-87
-2.17124e-67
3.1268e-44
5.78256e-43
2.8442e-38
1.27659e-82
3.74436e-19
1.10729e-86
-1.19468e-85
1.32534e-55
8.50248e-25
-3.68212e-154
4.71655e-199
2.37724e-84
5.85059e-201
-3.53418e-153
145.452
13.0654
-2.31351e-153
4.82792e-249
7.7532e-282
-2.76504e-283
1.42779e-62
1.44528e-274
2.80311e-276
0.171355
4.86786e-58
5.64513e-05
2.43259e-153
6.45903e-50
-1.75959e-150
-8.51831e-112
-2.08677e-41
1.48479e-85
-4.22693e-45
2.12624e-87
-9.51231e-156
-9.45053e-257
3.91524e-59
1.87393e-50
-8.4049e-157
4.45104e-14
-4.14118e-41
3.08433e-83
-1.09238e-56
-2.66953e-47
-4.81756e-250
6.40943
5.3897e-18
1.01358e-152
6.14423e-13
-5.4422e-87
-9.38698e-306
-3.60678e-307
-2.15268e-288
0.000123591
5.42771e-26
-4.5755e-65
3.76793e-68
6.4151e-83
-4.97249e-98
8.53832e-45
-4.38372e-58
1.61334e-22
0.0952886
8.97038e-13
-5.24146e-67
1.76331e-39
1.51476e-112
1.89395e-39
2.59848e-91
1.73324e-82
4.6276e-165
9.41531e-93
2.63499e-60
2.63722e-273
125.217
-1.30723e-106
0.00133208
3.16985e-53
2.53339e-119
7.9099e-37
0.567217
1.98396e-58
6.22423e-83
3.44859e-84
1.58852e-51
5.78621e-39
2.11319e-148
-1.64518e-296
3.40652e-31
6.83061e-273
2.21563e-14
-2.05008e-187
5.33742e-62
1.11739e-43
-7.47299e-134
0.00113364
1.03322e-30
-2.8039e-80
1.5096e-143
1.06899e-06
-1.68774e-240
1.02659e-157
1.00805e-21
1.37717e-247
1.13845e-144
4.38198e-159
4.47461e-09
13.2934
-1.01153e-96
-1.71043e-218
-7.84944e-41
-5.31913e-49
6.0623e-67
2.29843e-53
7.21942e-60
-2.31185e-232
-3.28687e-285
-1.71674e-54
3.42733e-264
5.37989e-45
2.25779e-67
2.00137e-40
-1.33354e-148
7.94651e-33
1.80474e-20
7.73064e-164
-7.37599e-99
-1.09169e-154
-5.15979e-36
8.61545e-22
-1.97989e-253
-1.73165e-52
4.08519e-63
4.47588e-115
-1.42172e-50
-1.91382e-186
1.79907e-26
-8.35753e-96
1.61511e-57
2.04071e-41
-2.44017e-230
1.35837e-99
1.58029e-13
5.57464e-10
4.1845e-266
-1.95756e-78
1.54378e-12
1.52633e-75
0.372955
-9.00194e-290
-3.29262e-189
-2.5954e-238
1.8144e-54
-1.06064e-78
-1.13545e-88
-1.42838e-184
1.19805e-55
9.64111e-80
-3.1536e-71
-4.166e-142
1.21226e-05
-3.63372e-268
4.01726e-05
2.91261e-214
137.763
-1.86844e-94
1.45461e-14
-2.95229e-217
1.4563e-151
1.63643e-46
2.57764e-155
1.75705e-183
6.00239e-113
5.83792e-76
-9.11608e-77
5.54582e-15
2.14155e-34
4.89907e-35
0
-5.23587e-156
2.01257e-64
1.15099e-09
0
6.86192e-263
7.2003e-62
-1.03346e-235
-2.50164e-21
0.674358
39.7214
0
-1.85808e-105
3.40994e-37
-1.24669e-85
-1.18828e-166
79.4422
6.49447e-267
1.91597e-29
2.97864e-42
3.16679e-106
-6.20726e-170
4.31359e-180
9.76147e-136
8.89411e-67
7.47372e-89
-1.80183e-94
-3.52269e-321
-1.07902e-232
-1.4617e-80
-3.81007e-145
1.58324e-36
4.14575e-55
6.56728e-191
3.5719e-260
3.17866e-43
123.369
-2.21561e-156
2.99229e-23
1.54515e-284
-1.97829e-93
5.46071e-30
9.46118e-78
8.44304e-40
1.12259e-35
-1.61845e-78
4.85685e-60
-4.90804e-302
-3.82305e-224
2.47464e-81
-7.2769e-97
-1.42039e-79
8.12824e-99
7.39046e-280
-1.29287e-259
4.81233e-180
-7.26232e-63
2.26609e-53
-1.94783e-41
-4.63691e-105
-5.98152e-39
-2.19812e-56
3.62271e-80
-1.23607e-37
1.68974e-66
0.00192633
1.64506e-56
-3.52069e-65
1.11382e-38
-3.11839e-227
4.72718e-31
6.98623e-46
0
-2.31231e-246
-1.82376e-234
-6.02333e-223
1.44668e-09
-6.08966e-81
1.92954e-123
-1.51047e-40
1.45863e-111
2.07554e-19
1.01054e-76
9.79632e-66
2.50238e-178
4.45647e-17
9.95708e-281
-2.49775e-62
-2.30033e-144
1.70975e-23
8.35212e-38
-1.90592e-84
1.32983e-81
5.68403
5.07434e-59
2.27365e-18
8.52255e-91
3.07391e-14
0.278636
3.18959e-223
-1.56219e-151
3.77377e-282
1.87681e-11
7.68799e-153
1.27403e-88
0.00111305
2.00232e-264
4.02576e-69
9.78693e-43
4.01851e-85
1.66239e-153
9.49402e-86
-4.08826e-206
-3.46484e-82
-3.48485e-204
-5.55092e-208
-2.10865e-87
4.41874e-61
6.20229e-62
2.6187e-83
-5.00812e-11
3.99204e-79
12.6068
1.04387e-56
-2.82814e-104
-1.0813e-84
1.07971e-58
-5.93654e-67
3.91842e-84
0.24642
-2.49227e-44
-5.7454e-70
3.00333e-71
-6.64385e-134
3.113e-147
5.41209e-44
-6.07861e-295
0.988622
1.62629e-194
-4.45842e-43
5.72395e-29
2.38219e-10
4.08692e-31
2.27874e-48
4.83605e-45
1.49329e-92
6.73763e-31
3.36754e-52
1.85729e-18
5.61164e-72
2.2778e-20
2.53079e-71
-9.86849e-315
9.90912e-67
155.5
2.61188e-16
-6.54694e-123
-5.36992e-306
7.58411e-189
7.35264e-107
6.33359e-66
3.18813e-63
-4.98664e-91
-1.05531e-233
1.5305e-119
-1.96163e-65
5.96158e-125
1.56067e-141
3.46703e-20
6.93566e-121
1.25166e-55
1.07323e-44
-1.27454e-120
1.50242e-114
1.07593e-34
0
-2.89539e-113
39.0644
2.78334e-222
3.08842e-24
7.29642e-30
-2.31952e-116
6.16306e-41
2.80185e-44
-1.79512e-67
5.91684e-38
-8.14076e-155
-1.51081e-41
7.57259e-167
4.46728e-87
9.15985e-47
-3.7657e-39
-1.28996e-154
7.15335e-59
6.35483e-14
-2.1906e-58
2.5371e-90
3.59752e-150
4.18358e-30
4.38194e-08
-2.00466e-137
2.78082e-252
-1.47779e-68
3.61593e-271
0.317675
2.49932e-71
4.37493e-16
1.87872e-93
-1.2199e-92
6.29209
2.77489e-86
0.000301178
6.08154e-65
35.182
4.01478e-64
-2.97908e-93
4.23154e-88
5.72062e-117
0.000358437
1.2692e-05
-2.37465e-220
9.21431e-217
-2.96284e-36
-1.05407e-203
0.000799276
1.32672e-40
1.94476e-12
3.2226e-150
118.282
0.0360024
5.01104e-71
-1.53792e-313
4.95749e-160
-3.49262e-47
4.13879e-106
-1.55697e-103
-6.76081e-102
2.03111e-60
1.03372e-53
8.80571
-3.3545e-10
-6.58954e-236
1.92204e-46
8.80357e-37
1.20108e-34
4.17991e-93
2.42632e-28
1.84786e-55
-7.85686e-46
-4.22128e-154
-2.54389e-310
1.59327e-33
7.03129e-30
-1.46179e-92
-8.08036e-38
3.13609e-17
-4.75627e-106
-3.75558e-69
-9.35383e-143
6.39521e-105
2.39377e-18
-5.52689e-104
1.13592e-40
3.49762e-52
3.92437e-72
3.19104e-133
-5.28024e-95
8.24888e-15
4.16598e-96
2.02327e-94
9.09171
4.58654e-62
-5.51596e-107
0.00241856
-1.76278e-319
3.60902e-94
-9.82541e-76
-5.25649e-108
-1.51283e-181
1.10436e-70
0
2.40797e-12
-2.55622e-158
-2.64235e-69
2.74746e-31
3.01345e-40
1.16459e-87
1.46514e-91
4.50275e-35
67.6084
-2.59876e-225
8.91527e-118
6.15547e-107
0.00193751
1.3903e-29
-1.06342e-158
1.17953
-1.47854e-310
-1.45687e-161
144.155
-2.49263e-119
-1.64962e-152
-1.12145e-148
3.20331e-53
-3.9034e-50
-5.54799e-220
1.5469e-112
7.20414e-31
1.23582e-76
3.47458e-82
-3.75108e-103
2.30155e-221
-1.25062e-48
2.67734e-09
-7.26893e-83
-3.67289e-39
3.44081e-66
4.41073e-86
1.7071e-13
8.5052e-39
-2.62354e-101
1.35541e-158
3.42739e-05
2.7314e-61
3.8584e-58
4.87999e-142
-5.22395e-221
4.7484e-44
6.28456e-17
2.65076e-99
1.20363e-39
2.08134e-97
-3.89747e-100
7.03169e-132
6.04727e-49
131.183
13.564
6.87192e-48
-1.67959e-81
-1.11679e-133
9.42259e-51
0.00305265
-5.31231e-42
1.26105e-158
2.54517e-19
1.13992e-10
6.82105
3.3015e-124
56.6412
-2.17879e-223
-1.83244e-98
-1.97658e-219
3.52532e-14
1.06636e-56
55.3462
3.39888e-167
0.00583782
2.40654e-202
-5.44943e-82
8.49562e-49
8.96291e-107
2.93893e-19
0.00141588
-2.8249e-116
-1.37593e-133
-1.31171e-98
9.33031e-123
-3.58704e-118
3.89977e-17
1.01788e-59
1.01073e-90
2.11563e-19
-6.06964e-119
-1.09927e-215
-1.25131e-85
4.30051e-187
2.00045e-33
2.46759e-100
1.5214e-12
2.42272e-14
-4.33419e-53
2.38268e-47
1.56758e-54
1.94931e-88
0.00315732
1.8898e-102
-3.12087e-124
1.89934e-279
5.52996e-18
-1.27898e-43
1.21908e-168
2.30611e-35
6.94117e-106
3.11787e-48
-1.51239e-46
-1.05632e-40
3.24322e-56
78.0421
6.26127e-54
-1.36418e-51
0.00101208
1.21441e-107
4.5302e-09
5.76249e-39
-2.37504e-209
1.32568e-100
-3.57968e-142
2.92078e-91
-7.99057e-304
6.30597e-151
2.80024e-10
2.42924e-16
7.3346e-155
144.31
4.30026e-36
4.90808e-197
8.08125e-15
2.30579e-20
-2.02287e-201
3.63769e-13
9.00768e-33
1.24279e-14
-3.61634e-204
1.22632e-148
1.84932e-127
-2.75961e-202
9.68711e-44
14.2767
-4.55402e-163
6.95764e-15
-3.07803e-321
1.45225
6.50653e-38
7.83718e-57
-2.17654e-269
1.79283e-165
-1.16885e-96
4.08776e-58
6.60845e-19
8.77092e-48
-2.85904e-119
6.4259e-112
-5.48792e-206
2.19276e-40
1.97239e-47
-1.58186e-140
1.10742e-246
1.72937e-78
4.88523e-49
3.68242e-55
1.21684e-178
1.45051e-09
-1.94126e-35
-1.63499e-203
4.11349e-64
4.76746e-113
2.84461e-96
166.458
-7.84827e-121
-1.96757e-196
1.52106e-63
-6.25307e-45
-3.79442e-56
1.48338
9.27619e-71
4.53193e-105
3.97526e-46
-6.56864e-109
2.24116e-110
3.43631e-103
-3.82097e-107
-4.08114e-34
-6.46619e-95
11.8019
-1.45667e-54
8.00464e-12
-4.75318e-109
3.63018e-08
7.71034e-39
5.2049e-19
5.53445e-17
2.46932e-58
1.4421e-108
3.13487e-112
-2.82002e-80
-1.77864e-322
-7.34728e-99
1.69529e-44
2.74797e-26
3.49545e-110
-1.00874e-204
5.18204e-63
6.91159e-54
2.1552e-28
2.72648e-49
4.36543e-19
1.02559e-28
-7.80393e-140
8.26089e-63
0.0211016
5.63857e-46
-1.88645e-308
7.74748e-124
2.62453e-109
-2.69292e-312
2.45377e-64
-1.49767e-225
-4.94081e-97
5.36286e-19
1.19917e-41
2.04789e-09
-1.2396e-221
2.03273e-167
1.42017e-269
-9.70772e-111
-2.96872e-131
1.34908e-18
-1.75617e-130
6.23819e-167
9.87523e-09
3.09961e-52
3.42517e-81
5.81395e-66
4.21933e-22
4.72009e-124
8.29123e-15
2.61727e-113
-1.2119e-217
0.000100952
3.4111e-69
4.28252e-25
-1.01985e-124
42.1224
-1.60337e-49
-9.78807e-60
4.09282e-62
3.93297e-41
7.1892
3.37221e-108
3.01323e-20
1.57769e-54
3.7861e-62
7.98657e-162
6.64372e-98
3.61155e-09
-3.24792e-98
5.07821e-13
-1.37362e-117
-1.93849e-122
1.06055e-15
-4.84925e-191
-4.95059e-144
3.17578e-106
7.40615e-68
1.00846e-13
-1.58529e-118
1.61665e-110
1.3116e-288
3.66174e-53
8.75903e-05
4.81326e-60
-1.55833e-111
9.33918e-81
1.48256e-125
4.79604e-162
8.86458
-3.2275e-59
-2.59462e-255
3.15006e-61
2.9742e-127
-6.72961e-48
-5.63374e-33
6.45803e-80
2.61118e-107
6.59418e-21
1.10645e-15
9.55233e-274
5.88928e-83
2.09307e-16
2.45352e-169
1.61453e-232
-1.50464e-76
4.53805e-72
-9.26119e-101
1.70886e-230
-1.60152e-70
2.76812e-15
2.86788e-199
2.41599e-31
-1.88625e-222
1.47467e-140
3.02387e-69
4.66888e-06
-3.58021e-286
1.22547
-1.2537e-57
7.1574e-30
14.2836
-1.4596e-52
4.34093e-81
0.010675
-6.32843e-110
1.25876e-06
1.68174e-23
-6.35998e-82
2.19285e-100
3.37269e-102
-1.02266e-122
-1.57971e-129
4.43438e-38
0.00790857
145.425
4.15364e-43
-2.91384e-33
2.4927e-07
6.61829e-46
0.788848
8.29974e-183
-3.8477e-120
3.74957e-24
5.40641e-62
1.15227e-148
1.671e-43
8.20537e-111
6.28605
-1.16712e-307
8.69585e-152
-1.37029e-176
160.217
1.80712e-42
5.13172e-55
-6.81646e-98
1.4626e-23
-8.03717e-105
-2.72905e-169
5.19536e-09
8.12932e-109
5.79034e-09
1.03579e-37
2.16455e-101
9.12625e-21
1.40401e-67
1.55677e-117
-3.47948e-164
5.98473e-160
0.0984413
7.13837e-17
-2.65335e-144
9.00735e-23
2.21418e-82
2.87862e-35
-1.53066e-282
2.6099e-70
2.79552e-09
3.04981e-22
-6.13714e-51
-1.56015e-83
1.73088e-165
2.52877e-27
-4.24815e-105
7.49456e-169
3.98006e-13
2.59263e-25
-8.04711e-136
-9.51153e-37
3.38827e-76
-5.16828e-273
-1.2173e-150
-1.77543e-244
8.02482e-49
50.4913
3.59251e-14
2.20333e-29
-7.26155e-142
-5.95189e-103
6.06393e-68
-2.9588e-261
7.60221e-11
7.99359e-69
39.6511
-1.07135e-31
4.46882e-102
-9.02053e-137
3.75804e-180
1.72787e-110
-3.57675e-108
-4.51083e-146
8.76695
7.50554e-24
-6.79346e-48
1.73688e-21
6.92422e-52
4.67071e-168
-1.77864e-322
-8.49849e-147
2.91523e-34
0.157016
-1.43857e-26
5.61371e-63
-1.02666e-60
-7.01621e-85
8.47658e-25
0.0096317
0.00710576
2.05932e-105
-6.29153e-86
-8.73176e-43
-1.10848e-128
-1.00725e-236
-3.56843e-148
2.00036e-21
-2.51252e-132
1.142e-83
-9.52733e-117
2.09683e-50
1.96411e-11
-4.11719e-124
-2.62982e-147
4.73364e-15
1.04243e-26
2.70759e-107
-6.80298e-161
-2.32946e-62
9.52949e-11
2.31711e-34
-6.38587e-33
-1.50848e-65
-2.87297e-91
0.00016789
-8.22043e-102
-1.1758e-26
-8.46289e-162
2.97321e-15
2.93725e-16
-1.87503e-214
3.54143e-176
79.5472
-1.18538e-150
-1.91045e-91
4.97123e-38
5.59787e-130
2.65726e-129
-2.96099e-115
-1.00403e-152
1.86716e-269
1.50539e-36
3.0804e-07
1.23644e-180
0.00453091
2.04244e-114
-6.44068e-153
1.84031e-15
5.47874e-11
4.36474e-35
4.071e-108
-2.94048e-145
-1.11669e-55
134.407
-9.08758e-132
1.75929e-182
-1.4217e-188
8.95755e-132
-6.15491e-74
3.68826e-44
-1.94961e-135
-8.23687e-89
-1.37069e-146
4.10052
2.66823e-11
1.99193e-68
1.9411e-47
1.69581e-112
-1.80897e-152
1.15982e-27
0.624688
-2.3436e-90
3.24987e-186
-1.94189e-154
3.28845e-17
4.11396e-131
6.34831e-164
6.61567e-17
2.34007e-109
2.09378e-151
104.595
1.43855e-14
0.296237
9.19194e-28
4.98147e-133
2.95133e-25
1.06995e-12
0.0561243
3.59606e-121
5.01616e-47
6.22231e-264
0.0449723
-3.97301e-312
-3.00858e-122
9.1451e-116
-1.82485e-186
2.43891e-58
-9.1397e-107
6.88204e-131
3.12481e-122
1.4365
1.55205e-17
9.26195e-62
-1.84422e-146
6.44526e-40
1.37813
4.23807e-13
1.96742e-53
-6.71181e-64
-9.02475e-123
2.39178e-106
-2.7601e-183
1.62408e-137
1.87072e-178
-3.8265e-149
-5.10158e-54
1.78881e-18
2.94002e-25
0.131571
1.18954e-05
4.91924e-11
8.45859e-33
0.0468375
1.06681e-165
1.12864e-06
-1.67351e-155
0.000275178
5.022e-14
4.53126e-50
1.77261e-134
1.93711e-48
3.29895e-36
1.79115e-90
34.0639
2.57995e-15
0.145972
-5.14358e-151
1.73651e-12
1.01062e-08
2.91348e-14
4.40604e-09
6.15671e-14
2.96571e-152
1.70995e-112
1.40803e-66
-3.64667e-140
5.86406e-39
-3.41173e-126
-6.31122e-51
1.78404e-216
-5.64861e-115
1.30749e-36
5.48301e-57
1.46237e-170
-7.29359e-59
0.197657
76.0077
-5.07903e-188
2.55107e-61
1.38659e-110
1.16365e-12
1.08712e-40
3.25683
3.30115e-06
6.23671e-123
1.98272e-56
7.29404e-09
1.30586e-27
3.61048e-07
1.50602e-67
1.829e-14
-1.09561e-174
0.0592675
1.19771e-15
-2.60657e-158
2.84369e-09
0.000655586
1.64067e-56
0.831761
2.57913e-117
1.0316e-10
5.20024e-99
-8.86986e-194
6.0074e-93
-6.18778e-103
0.0205623
2.28355e-11
0.00648159
-5.11577e-172
1.15197
4.12893e-50
1.86985e-17
-4.17432e-39
3.56049e-59
7.15662e-71
0.00188214
1.16843e-115
6.54742e-132
5.249e-36
3.6471e-11
5.90631e-39
1.04664e-27
-3.75577e-72
0.0167954
7.65817e-38
1.67566e-39
2.0241e-11
1.86801e-197
2.36231e-09
3.58328e-23
9.74984e-10
-2.14932e-94
2.2901e-05
8.84199e-181
1.85585e-40
4.97929e-70
3.64315e-14
-8.46674e-89
5.17854e-37
2.31568e-10
68.5307
2.00828e-122
4.67876e-63
1.8106e-58
2.47906e-20
5.64197e-31
-4.33114e-121
1.22037e-52
3.42986e-182
9.48775
2.86424e-277
5.79946e-182
-1.92601e-242
3.67869e-10
1.86582e-149
-1.6167e-49
0.103074
6.9976e-74
-3.02716e-72
6.65736e-142
1.72725e-229
9.1254e-12
-3.14355e-187
2.02373e-50
7.82848e-16
-3.3816e-57
1.44468e-07
5.57211e-121
9.11325e-52
1.46192e-09
8.39322e-28
-2.56403e-91
75.9915
-5.85972e-282
1.38485e-223
8.34362e-110
163.759
-3.32181e-96
1.02899e-100
1.7848e-09
-4.88505e-135
5.41276e-119
1.90477e-22
8.09156e-08
5.82661e-43
0.000450858
-4.86905e-133
2.92179e-111
8.75112e-66
8.26056e-70
2.16847e-14
-1.80108e-157
-2.49506e-99
-8.36524e-69
-4.23581e-20
8.55555e-83
1.93264e-172
-1.11722e-52
-1.39705e-22
-1.16746e-238
-1.58671e-234
2.97295e-06
2.77973e-42
7.38361e-06
1.38246e-117
-9.4804e-307
-3.32614e-21
2.58495e-10
3.40472e-167
-4.46088e-130
-2.25303e-184
4.97348
5.84691e-238
1.52637e-44
7.43286e-07
4.03902e-232
1.90163e-227
1.10387e-28
-1.53304e-197
-4.89752e-234
8.26715e-64
1.32714e-16
1.96599e-174
4.10527e-29
-4.91183e-189
7.18793e-10
-1.10311e-309
2.90647e-09
9.43001e-16
1.50896e-33
-1.34068e-231
7.28938e-23
3.25996
1.15626e-128
1.17422e-59
-1.69272e-201
4.30331e-17
-3.02136e-191
6.0594e-09
6.80502e-14
3.18241e-106
1.14033e-237
2.49108e-16
5.84906e-18
5.26007e-72
5.38282e-71
6.22131e-20
-1.5199e-195
8.38096e-24
1.11609e-239
1.83272e-08
5.61527e-11
2.42133e-15
1.80058e-32
-4.56097e-28
1.85054
3.73129e-37
1.51144e-69
1.93811e-18
-8.45122e-126
1.65486e-20
1.12714e-19
1.6479e-53
5.10285e-109
0.0204972
-8.21788e-262
0.00609762
95.9934
-2.24326e-138
6.44858e-13
34.2435
5.26593e-44
4.15028e-67
2.60046e-24
-4.15874e-67
4.9622e-180
3.01951e-10
0.00281565
0.392126
-6.10973e-126
4.23321e-29
4.24716e-06
4.84912e-17
1.51495e-147
1.6208e-218
1.15046e-54
0.00162903
7.77116e-11
2.24419e-20
-9.98947e-290
-9.44674e-192
4.00185e-18
-1.61437e-133
7.42619e-61
-2.64842e-128
8.67334e-233
2.74146e-09
4.44662e-118
6.56893e-07
9.75432e-71
2.05061e-208
2.63848e-219
3.47896e-18
-4.75332e-127
6.84691e-44
3.95173e-20
0.0149377
-3.9537e-62
7.09218e-173
6.76703e-08
-4.43093e-108
4.22854e-184
1.26157e-94
1.70724e-17
-2.56872e-127
4.677e-17
1.01788e-63
164.025
9.73621e-19
-1.29957e-163
6.15004e-07
-2.97914e-241
1.16962e-11
5.84581e-51
3.29597e-07
0.000340026
4.73314e-55
3.40565e-06
2.0222e-206
3.16812e-12
-7.3214e-143
7.72724e-63
1.27075e-07
8.39859e-39
7.88077e-08
0.00317178
-6.94439e-24
4.36212e-11
1.10151e-07
3.14422e-169
2.5968e-187
-2.43711e-239
3.14691e-06
-2.24358e-29
2.34319e-167
1.24872e-09
1.26315e-08
2.99404e-58
1.68466e-21
4.26836e-75
4.46464e-43
5.99317e-06
-9.37542e-88
4.0902e-46
2.4924e-46
2.19693e-264
4.82743e-262
-8.01745e-169
-2.43514e-125
2.82008e-72
3.41782e-211
-2.54119e-105
-1.15708e-120
-8.11458e-75
3.91221e-36
1.09838e-148
6.96758e-09
-1.07423e-311
5.23481e-15
1.72893e-07
-2.94178e-161
4.76208e-06
4.20362e-19
1.43371e-08
-1.38698e-81
8.64812e-21
-2.13974e-135
4.17337e-52
2.58032e-66
2.19738e-221
-6.97917e-142
7.6339e-113
-2.60489e-159
1.43197e-245
9.93776e-68
1.265e-247
-6.32637e-38
1.18156e-34
0.021695
1.62084e-213
2.35569e-75
3.64601e-209
1.73712e-132
7.28334e-27
1.57538e-78
1.87119e-165
112.842
2.18046e-17
4.43827e-42
3.04943e-74
2.18722e-19
9.08282e-29
-2.59606e-95
7.84542e-27
7.94209e-17
7.76316e-121
8.13134e-242
-9.38816e-103
3.3992e-11
-4.41568e-187
-4.59199e-170
9.93437e-17
-5.28193e-139
-5.62237e-134
4.18288e-106
1.49559e-172
1.83127e-05
1.92478e-211
-4.76901e-172
8.96823e-34
7.72481e-27
0.528313
3.4188e-16
-9.04112e-73
-4.64659e-163
3.08339e-26
-4.95387e-165
1.74962e-36
2.24069e-81
5.45664e-121
2.1926e-07
4.69982e-227
6.24185e-29
4.51522e-66
9.18381e-19
2.67183e-51
2.2831e-251
-1.71333e-122
-2.87692e-309
2.35812e-33
-4.62002e-190
3.52637e-24
8.4892e-62
-7.25857e-114
-2.06371e-70
8.61303e-54
4.63507e-244
3.56916e-28
2.3779e-32
-1.0204e-126
3.09117e-32
4.4155e-10
1.56689e-231
1.20781e-53
6.32988e-14
2.70071e-21
-3.41384e-93
-3.73574e-55
-1.8259e-53
7.08049e-65
-1.46798e-89
6.11354e-18
-2.07316e-89
9.82725e-162
2.17033e-163
1.40193e-05
1.04397e-10
8.65619e-08
6.79953e-08
-1.39374e-43
2.40863e-26
3.75581e-61
2.42842e-27
8.30541e-164
0.144027
-3.62078e-133
1.54221e-07
2.52535e-18
-7.2703e-167
-4.6909e-31
2.01073e-11
2.27023e-09
1.6071e-59
9.41753e-36
9.46568e-166
1.69724e-271
8.91878e-19
5.69842e-242
1.72718e-214
4.5132e-21
4.70111e-134
-3.74797e-83
5.38851e-171
1.2067e-117
4.43303e-19
7.43388
-5.99698e-134
6.56257e-140
3.02094e-12
-2.52236e-47
1.70523e-13
2.85707e-33
4.96903e-32
7.536e-136
-3.99591e-50
4.53351e-29
2.49159e-21
-2.66167e-37
2.99482e-179
4.26949e-16
1.87274e-41
6.8513e-25
-1.51189e-103
7.31094e-169
5.88072e-21
-1.30814e-130
6.75556e-233
2.73901e-30
2.98617e-10
-2.55061e-212
5.24959e-32
1.45639e-64
-1.24005e-146
-2.42254e-95
-9.17302e-146
2.15518e-30
1.32424e-161
8.49339e-171
8.00116e-69
4.93083e-31
-9.5676e-50
-4.25117e-35
6.96524
6.06603e-124
6.04533e-76
0.00277007
1.68109e-45
-1.9341e-147
5.16992e-43
4.28003e-09
1.37399e-221
-1.31767e-137
1.38968e-235
6.96687e-35
3.43002e-18
-4.04565e-70
1.02e-249
-7.18557e-100
-9.35783e-92
1.84887e-112
2.29278e-11
8.46818e-135
1.1382e-250
1.74274e-243
3.33606e-38
1.11044e-60
1.00607e-06
1.70982e-104
-1.95372e-60
2.18361e-53
1.00877e-24
1.79578e-185
9.41279e-31
1.28963e-225
2.24435e-215
1.14028e-240
7.32638e-13
9.80633e-132
1.76583e-32
1.24684e-39
1.3017e-37
6.65814e-26
2.62112e-37
7.3353e-17
1.52829e-31
1.0032e-128
4.76961e-46
1.18465e-57
4.27837e-48
4.63525e-26
-8.23994e-137
23.3764
1.48906e-20
2.18256e-23
1.35437e-212
0.629105
6.30618e-25
3.27944e-27
1.04518e-36
7.64078e-17
5.03288e-77
1.21224e-121
1.33413e-119
1.13981e-127
6.37515e-121
7.35506e-23
1.04365e-27
9.3838e-140
7.90645e-38
2.29311e-114
2.33206e-120
7.92427e-76
9.19772e-57
1.2747e-96
2.2087e-69
-5.01453e-56
1.92642e-44
7.29806e-33
1.99997e-67
-3.88818e-215
-4.67311e-102
-4.94412e-127
1.73534e-13
-2.02187e-189
1.63359e-135
3.67301e-36
0.0318717
-2.95399e-161
2.61647e-06
1.3859e-166
-5.45846e-132
3.37982e-68
8.82459e-40
4.11058e-47
-1.8775e-185
2.64388e-32
4.92602e-33
4.13764e-14
2.52589e-213
7.11878e-42
1.50488e-57
6.28103e-87
4.55489e-239
-4.61533e-288
5.24854e-36
4.7365e-60
4.70567e-85
17.6162
3.07416e-31
5.8351e-44
-1.4506e-30
4.38805e-70
1.6505e-13
1.25751e-122
-2.38285e-71
-4.20111e-103
-5.49982e-112
8.00982e-06
8.48152e-41
1.32684e-29
9.81768e-50
5.42428e-179
3.65521e-31
4.289e-30
1.45764e-12
4.89583e-114
1.36537e-44
-3.41361e-06
5.43137e-06
1.73599e-168
5.05479e-10
2.22256e-76
5.98072
9.36887e-231
1.62891e-33
9.83445e-51
2.16723e-258
2.35629e-26
2.53152e-93
-7.75565e-98
4.42927e-21
4.19084e-07
1.62646e-13
-7.26057e-97
4.472e-37
-1.02338e-228
-1.05252e-129
1.29769e-07
-8.75831e-40
1.43237e-111
3.12465e-31
-3.15521e-26
1.22358e-38
1.45251e-59
1.59424e-54
2.93927e-39
3.66432e-06
3.81972e-177
2.14115e-57
5.80289e-74
1.97068e-35
5.37569e-09
1.03787e-35
5.68504e-45
-4.31178e-99
7.56627e-235
1.18613e-33
3.43856e-43
4.43947e-35
-3.13982e-182
-1.37178e-79
5.44832e-44
2.35462e-37
-1.53433e-29
3.114e-31
9.17504e-103
1.06585e-40
1.2592e-133
1.11724e-23
7.7832e-76
5.04301e-33
5.24323e-78
-3.56102e-95
1.32341e-37
-8.84015e-80
4.3996e-89
3.66265e-108
4.84613e-178
6.17361e-53
8.00115e-64
5.44665e-77
0.886625
0.00035963
2.80091e-143
1.43737e-113
-4.481e-58
6.14782e-59
3.59648e-249
2.05266e-37
-3.4695e-45
1.07583e-40
-8.86596e-231
8.82857e-17
1.39107e-32
4.28271e-20
3.36445e-38
-7.95141e-214
-4.23078e-116
7.27851e-87
1.60572e-40
6.21812e-11
4.26303
-1.57926e-173
-5.27779e-83
-1.89556e-94
4.34263e-11
3.1283e-06
3.2075e-13
-1.31443e-65
3.57414e-36
-1.21769e-228
7.93522e-54
-7.30843e-66
-2.89623e-171
-9.48608e-27
-5.3534e-61
8.77348e-49
7.28965e-35
6.57164e-87
2.61703e-60
1.26345e-43
-1.08368e-215
0
5.66116e-58
-5.06624e-84
4.14714e-10
2.90504e-75
-6.92614e-28
1.2884e-16
-2.07602e-51
-2.41141e-172
-1.46956e-74
1.1312e-33
2.77125e-176
0.000172879
8.04351e-06
-1.05001e-143
2.17647e-225
1.12107e-138
6.92089e-179
1.90413e-262
3.38571e-76
-1.03255e-93
5.31258e-38
2.43967e-62
2.01208e-42
1.0124e-60
3.11671e-11
1.36983e-35
9.30322e-41
4.86553e-65
1.42136e-74
-2.96546e-45
-1.07457e-214
-3.64761e-94
1.51843e-96
-1.58035e-39
-5.5326e-32
2.39895e-11
1.82775e-265
-2.87113e-33
2.13496e-52
3.3567e-69
1.12624e-28
2.53233e-48
2.11687e-31
1.54324e-06
1.26655e-55
2.67479e-23
2.3463e-74
8.6158e-116
5.026e-55
4.17804e-43
1.3777e-178
5.97557e-66
3.50493e-05
-1.39816e-98
4.48073e-07
1.46614e-169
1.9429e-43
1.02003e-114
4.78899e-104
3.79236e-37
-2.92395e-25
6.24235e-30
-3.3794e-93
-4.42349e-69
1.36174e-69
9.76371e-23
1.05836e-27
-1.09753e-57
3.43138e-18
8.22481e-260
1.51091e-58
4.06787
5.2043e-18
1.86492e-98
0.00415302
3.15374e-30
6.09804e-91
2.18284e-199
4.68718e-13
4.44293e-43
2.118e-71
-8.15191e-48
6.6963e-176
1.42086e-38
1.11315e-103
1.82191e-22
3.8513e-46
5.37196e-44
-1.40083e-35
-7.02132e-317
-6.37654e-134
5.34562e-83
1.95799e-118
6.7849e-121
6.92235e-71
-3.17787e-94
3.21286e-89
4.70422e-29
2.26196e-34
-1.67221e-246
4.39439e-26
-6.25198e-131
-1.16049e-213
-4.3996e-34
-8.83376e-164
2.27118e-73
1.22421e-73
1.45955e-180
4.01166e-177
-6.05722e-105
1.68033e-43
-4.25195e-76
4.86047e-40
1.82013e-50
-5.95329e-33
5.10772e-35
1.48818e-72
-2.10881e-60
5.86892e-49
-3.28551e-281
-1.64122e-78
-1.44068e-104
1.24836e-74
0.000105696
6.18648e-46
5.93596e-88
-4.47811e-57
-4.6183e-79
1.30367e-94
-2.74324e-96
-8.47551e-78
1.99275e-101
-1.55032e-40
2.04051e-53
-4.3688e-216
1.01075e-44
-3.77013e-62
2.58685e-42
3.9667e-199
-7.61593e-35
9.54803e-08
-5.13893e-126
-1.69137e-50
1.38754e-32
-4.05093e-143
6.82122e-34
1.55242e-21
3.87104e-46
1.91764e-45
5.68749e-25
-3.19511e-57
-8.67128e-64
7.73926e-52
2.15563e-38
4.95931e-160
1.77999e-103
-1.11376e-270
3.0066e-128
-2.18197e-199
7.66918e-67
1.37579e-59
2.15562e-37
2.36657e-52
0.987226
-4.33609e-25
3.65114
1.69707e-51
1.84994e-12
0.295293
9.60802e-21
5.00422
2.11364e-100
1.81192e-62
-3.03187e-73
2.84524e-76
1.90822e-58
2.35229e-135
5.4534e-67
3.07481e-115
3.79231e-201
-1.66569e-65
0.0420953
6.13693e-70
3.3906e-41
-9.71599e-72
-8.06496e-107
3.07895e-54
-3.22731e-59
-5.74082e-126
1.00359e-64
6.58711e-110
4.27679e-30
3.23018e-49
6.17817e-52
-1.22586e-53
7.36429e-05
5.01001e-19
9.74201e-40
2.10807e-75
26.7549
6.1622e-72
3.97938e-69
1.44663e-38
-2.30814e-36
-1.44859e-74
2.57068e-27
3.11605e-174
-1.24886e-46
-1.93136e-34
1.09376e-54
1.45774e-55
-9.91728e-94
-3.35857e-62
-1.38983e-42
6.2696e-99
1.41541e-39
2.00032e-68
3.19663e-89
1.62983e-171
1.72466e-77
1.57836e-55
-3.1907e-102
3.79121e-75
5.33174e-88
-6.12094e-133
-4.5042e-42
1.60662e-105
1.10965e-20
4.1755e-58
-4.65831e-80
2.49852e-181
-1.1409e-126
1.17125e-30
1.07734e-63
-2.38988e-233
4.96002e-58
0.258718
2.24567e-42
-4.63007e-96
7.02671e-76
2.13223e-05
0.00574543
6.35065
1.42132e-123
1.06231e-125
-2.36415e-122
2.03861e-87
1.78975e-41
1.09441e-09
1.81855e-07
2.7245e-18
2.4764e-40
3.15691e-106
8.63241e-196
-3.62287e-192
-5.01212e-34
-2.59968e-97
1.04619e-34
7.36237e-123
4.26503e-15
1.49435e-112
3.67382e-62
1.17209e-14
-7.34761e-53
8.2652e-33
8.61332e-129
1.91162e-67
-2.4587e-212
1.1085e-28
3.48678e-41
7.38833e-98
-2.33033e-201
-9.66445e-85
7.34348e-30
-3.30095e-137
-8.19105e-57
1.24223e-05
1.1582e-224
-2.3876e-94
-3.37104e-48
-5.55094e-49
9.92463e-61
-9.3599e-149
-3.85723e-136
8.89886e-132
3.46917e-246
-4.28012e-191
4.77953e-86
1.40472e-49
-1.61808e-212
-1.97989e-92
1.74846e-137
133.944
-1.48959e-35
5.41582e-130
3.42247e-268
3.48112e-39
-3.38071e-70
1.26266e-28
7.84048e-59
-2.76152e-68
8.44039e-205
-3.42555e-132
3.85223e-30
1.83223e-269