/*--------------------------------*- C++ -*----------------------------------*\
  =========                 |
  \\      /  F ield         | OpenFOAM: The Open Source CFD Toolbox
   \\    /   O peration     | Website:  https://openfoam.org
    \\  /    A nd           | Version:  7
     \\/     M anipulation  |
\*---------------------------------------------------------------------------*/
FoamFile
{
    version     2.0;
    format      ascii;
    class       volVectorField;
    location    "10.5";
    object      U;
}
// * * * * * * * * * * * * * * * * * * * * * * * * * * * * * * * * * * * * * //

dimensions      [0 1 -1 0 0 0 0];

internalField   nonuniform List<vector> 
34000
(
(-0.0998294 0.0044542 5.41462e-20)
(-0.189976 0.00407003 7.70167e-20)
(-0.295062 0.00485027 -2.72738e-20)
(-0.383683 0.00492867 1.41376e-20)
(-0.467008 0.00540066 -7.27809e-20)
(-0.549514 0.00453604 -2.19402e-20)
(-0.594703 0.00124651 -9.97386e-21)
(-0.574725 -0.00463445 -1.10851e-19)
(-0.482211 -0.0103517 7.5178e-20)
(-0.350998 -0.0139947 8.0156e-21)
(-0.20237 -0.0155255 -1.12349e-20)
(-0.0572815 -0.0153727 3.15755e-21)
(0.074403 -0.0146197 -2.86323e-22)
(0.192864 -0.0132037 -5.25194e-22)
(0.289915 -0.0117625 2.67606e-21)
(0.379168 -0.0105452 -3.95396e-21)
(0.448096 -0.00913598 2.39246e-21)
(0.514171 -0.00842125 -5.7744e-21)
(0.565094 -0.00719991 -5.01004e-21)
(0.614168 -0.00692107 -2.55363e-21)
(-0.0998673 0.0133416 5.19184e-21)
(-0.189104 0.0121896 -1.28294e-19)
(-0.292998 0.0145256 -2.11498e-20)
(-0.379771 0.0147507 -4.77061e-20)
(-0.46061 0.016158 1.82741e-19)
(-0.539984 0.0135561 2.22072e-20)
(-0.581302 0.00368605 -6.63672e-20)
(-0.556692 -0.0139077 1.6396e-19)
(-0.459807 -0.0309755 -7.65504e-20)
(-0.325078 -0.0417718 5.73826e-20)
(-0.174181 -0.0462425 3.26318e-20)
(-0.0277254 -0.0457329 3.19437e-21)
(0.104674 -0.0433239 4.54941e-22)
(0.223323 -0.0390476 2.40807e-21)
(0.320102 -0.0347379 -6.91635e-21)
(0.409596 -0.0309961 -2.11864e-21)
(0.477116 -0.0268618 -6.03847e-21)
(0.544291 -0.0245966 1.84054e-20)
(0.592619 -0.0210543 2.15536e-21)
(0.64372 -0.0200869 3.55992e-21)
(-0.0999432 0.0221534 -1.18365e-19)
(-0.18737 0.0202246 1.57203e-19)
(-0.288899 0.0240891 2.70213e-19)
(-0.372012 0.0244211 -3.00378e-19)
(-0.447941 0.0267404 -1.09514e-19)
(-0.521175 0.0224 1.26585e-19)
(-0.554984 0.0059817 3.82452e-20)
(-0.52155 -0.0231473 -4.37313e-22)
(-0.416624 -0.0513068 1.0962e-19)
(-0.275709 -0.0688822 -1.18558e-20)
(-0.121099 -0.0759579 -3.31032e-20)
(0.0273305 -0.0749244 -1.95603e-20)
(0.160472 -0.0705526 1.13249e-21)
(0.278817 -0.0633356 -4.92609e-21)
(0.374791 -0.0561879 -4.20152e-21)
(0.463803 -0.0497371 2.18005e-20)
(0.528919 -0.0430973 2.79219e-21)
(0.596775 -0.0390199 -3.3405e-21)
(0.640914 -0.0334512 4.05998e-21)
(0.694145 -0.0315012 3.39949e-21)
(-0.100061 0.0308401 -2.00916e-19)
(-0.184801 0.0281196 -1.96077e-19)
(-0.282825 0.0334673 2.5353e-21)
(-0.360535 0.0338406 1.01751e-19)
(-0.429253 0.0370357 3.03132e-19)
(-0.493567 0.030963 -3.51622e-19)
(-0.51665 0.00805994 2.25363e-19)
(-0.470946 -0.0323626 1.0429e-19)
(-0.355464 -0.0711093 -1.25714e-19)
(-0.207038 -0.0949084 -3.15303e-20)
(-0.0485372 -0.104095 1.50049e-20)
(0.101293 -0.10227 2.34909e-20)
(0.234199 -0.095638 -4.62759e-21)
(0.350826 -0.0854035 1.19284e-20)
(0.445005 -0.0754385 1.48921e-21)
(0.531644 -0.0661673 -8.01013e-21)
(0.593759 -0.0572493 2.61285e-22)
(0.660106 -0.0511585 -6.51084e-21)
(0.699663 -0.0438903 1.26715e-20)
(0.752868 -0.0406967 -3.23298e-21)
(-0.100225 0.0393536 3.7975e-20)
(-0.18143 0.0358197 4.20659e-19)
(-0.274861 0.0425884 -4.31229e-19)
(-0.345529 0.0429122 2.91012e-19)
(-0.404905 0.0469377 -3.47838e-19)
(-0.45783 0.0391549 5.26762e-19)
(-0.467499 0.00988122 -2.29991e-19)
(-0.406941 -0.0414644 -2.4074e-19)
(-0.279631 -0.0901135 -6.2366e-20)
(-0.123764 -0.119446 5.45975e-20)
(0.0375827 -0.130165 9.00758e-21)
(0.187147 -0.127258 -8.81131e-21)
(0.317937 -0.118138 7.81891e-21)
(0.430773 -0.104905 -1.41868e-20)
(0.521643 -0.0921469 1.85132e-22)
(0.603472 -0.080126 -3.41421e-20)
(0.661987 -0.0691094 -1.40603e-20)
(0.723899 -0.0609931 -1.31422e-21)
(0.7591 -0.0522991 -4.38601e-21)
(0.809104 -0.0477596 1.64803e-21)
(-0.100439 0.0476478 2.8092e-19)
(-0.177303 0.0432718 -2.2373e-20)
(-0.26512 0.0513828 -1.86021e-20)
(-0.327234 0.0515422 -3.9895e-19)
(-0.375347 0.056346 -6.09202e-20)
(-0.414769 0.0468998 -6.03406e-19)
(-0.408895 0.0114357 1.92719e-20)
(-0.331738 -0.0502489 4.49365e-19)
(-0.192404 -0.108047 3.14709e-19)
(-0.0302562 -0.142055 -1.84698e-19)
(0.132009 -0.153759 -2.30768e-20)
(0.278942 -0.149515 2.56608e-20)
(0.405204 -0.137785 1.33515e-20)
(0.511995 -0.121692 2.2723e-21)
(0.597666 -0.106224 -1.5816e-20)
(0.672519 -0.0916949 1.48432e-20)
(0.726536 -0.0787463 -1.52817e-21)
(0.781606 -0.0687764 7.20219e-21)
(0.812653 -0.058876 -2.73272e-20)
(0.856776 -0.0530519 1.01001e-20)
(-0.10071 0.055679 -2.50539e-19)
(-0.172476 0.0504241 -5.55649e-19)
(-0.253732 0.0597838 9.07929e-19)
(-0.305935 0.0596397 6.04714e-19)
(-0.341105 0.0651658 1.29355e-19)
(-0.365292 0.0541315 4.63944e-19)
(-0.342271 0.0127237 3.57512e-19)
(-0.247492 -0.0585727 -3.98935e-19)
(-0.096731 -0.124633 -5.79569e-20)
(0.0698173 -0.162277 4.5903e-20)
(0.230565 -0.174549 2.4191e-20)
(0.37225 -0.168766 -2.63911e-20)
(0.491466 -0.154429 -6.22994e-21)
(0.590163 -0.135717 4.75533e-21)
(0.668705 -0.117731 2.39977e-20)
(0.735119 -0.101034 7.20593e-21)
(0.78355 -0.0863627 4.30087e-21)
(0.830492 -0.0748194 3.6215e-21)
(0.857353 -0.0639125 7.77173e-21)
(0.894185 -0.0569713 -3.76908e-21)
(-0.101044 0.0634064 -2.02096e-19)
(-0.16701 0.0572272 -3.87315e-19)
(-0.240849 0.0677283 -1.33385e-18)
(-0.281957 0.0671183 4.56742e-19)
(-0.302764 0.0733059 6.33727e-19)
(-0.310377 0.0607864 -3.94869e-19)
(-0.26907 0.0137455 1.09691e-19)
(-0.156239 -0.0663556 -5.96112e-20)
(0.00478323 -0.139434 -2.05428e-20)
(0.173516 -0.179857 -2.81608e-19)
(0.330031 -0.19227 -1.31001e-19)
(0.463927 -0.184824 1.12921e-20)
(0.573817 -0.168017 3.4444e-21)
(0.66276 -0.147 -1.42498e-21)
(0.732574 -0.126805 -1.4005e-20)
(0.789793 -0.108323 -5.5204e-21)
(0.831703 -0.0922007 1.01928e-20)
(0.87027 -0.0794046 -3.32101e-20)
(0.892837 -0.0676923 9.02995e-21)
(0.92219 -0.0598501 -2.26111e-20)
(-0.101449 0.0707922 5.39546e-19)
(-0.160977 0.0636338 1.43861e-18)
(-0.226633 0.0751573 1.35345e-18)
(-0.255651 0.0738955 -2.60791e-19)
(-0.260959 0.0806781 -1.30542e-18)
(-0.251047 0.0667966 3.45966e-19)
(-0.190722 0.014488 -3.83773e-19)
(-0.0598665 -0.0735843 -7.32187e-19)
(0.109718 -0.151964 4.61354e-19)
(0.278267 -0.194665 3.48453e-19)
(0.427904 -0.206729 3.12496e-20)
(0.551725 -0.197605 -5.26712e-20)
(0.650448 -0.178585 1.24986e-21)
(0.728445 -0.155638 2.11545e-21)
(0.788484 -0.133636 1.67662e-20)
(0.836303 -0.113761 1.21974e-20)
(0.871181 -0.096507 1.02037e-20)
(0.901818 -0.0827776 8.7438e-21)
(0.920108 -0.0704629 4.68935e-21)
(0.942607 -0.0619437 -5.84997e-21)
(-0.101934 0.0778027 -4.6891e-19)
(-0.154451 0.0695992 -4.76445e-19)
(-0.211259 0.0820171 -7.7303e-19)
(-0.227391 0.079895 1.66113e-19)
(-0.216357 0.0871955 4.50088e-19)
(-0.188364 0.0720881 4.28406e-19)
(-0.108628 0.0149172 1.77102e-19)
(0.0398326 -0.0799935 9.66463e-20)
(0.216109 -0.162321 -1.13442e-18)
(0.381792 -0.206546 6.84046e-20)
(0.52217 -0.21786 1.18685e-19)
(0.634014 -0.207144 1.25541e-20)
(0.720269 -0.186264 -6.50738e-20)
(0.78663 -0.161809 5.04052e-21)
(0.836443 -0.138447 -3.08666e-21)
(0.875079 -0.11757 -1.17934e-20)
(0.902901 -0.0995217 -5.20256e-21)
(0.926433 -0.0851555 1.00697e-20)
(0.940662 -0.0724345 1.16242e-20)
(0.957328 -0.0634435 3.16222e-20)
(-0.102505 0.0844077 9.33251e-19)
(-0.147509 0.0750818 -3.47156e-19)
(-0.194902 0.0882597 2.786e-19)
(-0.197554 0.0850478 -5.77244e-19)
(-0.169651 0.0927748 -6.25958e-19)
(-0.123409 0.076591 -2.96635e-19)
(-0.0240803 0.0149605 5.39911e-19)
(0.140946 -0.0853284 6.14043e-19)
(0.321907 -0.170606 5.70745e-20)
(0.482172 -0.215416 -4.7684e-19)
(0.611215 -0.225714 -8.29213e-20)
(0.709661 -0.213584 -1.29101e-20)
(0.782713 -0.191263 2.59001e-20)
(0.837242 -0.165749 -4.0243e-21)
(0.876908 -0.14149 -5.04279e-21)
(0.906906 -0.119983 1.59016e-20)
(0.928057 -0.10147 -1.1097e-20)
(0.945473 -0.086727 -2.05563e-21)
(0.956024 -0.0737806 -1.08714e-20)
(0.967978 -0.0644892 -8.63075e-21)
(-0.103173 0.0905814 -1.85471e-19)
(-0.140231 0.0800426 -6.01615e-19)
(-0.177739 0.0938437 1.20582e-19)
(-0.166519 0.089296 5.89041e-19)
(-0.121538 0.0973426 7.87738e-19)
(-0.0572578 0.0802165 -3.18589e-19)
(0.0617085 0.0145127 -1.52324e-18)
(0.241953 -0.089749 -1.41452e-19)
(0.4253 -0.176709 4.78258e-19)
(0.577771 -0.221318 2.00782e-19)
(0.69381 -0.23045 2.31101e-19)
(0.777967 -0.217159 9.42561e-20)
(0.837627 -0.193856 -8.66099e-20)
(0.880581 -0.167735 -1.34636e-20)
(0.910596 -0.143023 1.39722e-21)
(0.932739 -0.12123 -7.63502e-21)
(0.947878 -0.102553 1.33341e-20)
(0.960187 -0.0876496 3.13112e-21)
(0.967533 -0.0746382 3.2147e-21)
(0.97582 -0.0651808 1.85302e-22)
(-0.103944 0.0963022 -5.8282e-19)
(-0.132698 0.0844461 7.27074e-19)
(-0.159939 0.098735 -1.28427e-19)
(-0.134639 0.0925969 -8.88999e-19)
(-0.0727063 0.100839 1.17918e-18)
(0.00910647 0.0827286 3.1256e-19)
(0.147607 0.0136067 2.93962e-19)
(0.341516 -0.093321 7.39848e-19)
(0.524752 -0.18065 3.4379e-20)
(0.667284 -0.224394 1.09881e-19)
(0.769109 -0.23231 -8.24427e-20)
(0.838624 -0.218167 -1.0639e-21)
(0.885186 -0.194348 5.37714e-20)
(0.917194 -0.168054 5.08549e-20)
(0.938356 -0.143297 4.6917e-21)
(0.953573 -0.121523 2.94757e-21)
(0.963499 -0.102942 -6.04122e-21)
(0.971635 -0.0880508 -1.01703e-20)
(0.976273 -0.0751115 -3.93026e-21)
(0.981779 -0.0655903 -1.23097e-20)
(-0.104828 0.101553 -3.14292e-19)
(-0.124988 0.0882595 -8.94526e-19)
(-0.141662 0.102907 -3.50029e-20)
(-0.102234 0.0949281 6.6212e-19)
(-0.0238087 0.103183 1.36387e-18)
(0.0748945 0.083912 -1.37154e-19)
(0.232814 0.0122527 -1.45901e-21)
(0.438486 -0.0960587 -4.87706e-19)
(0.619003 -0.182521 4.00183e-19)
(0.749745 -0.224854 3.0722e-19)
(0.836631 -0.231596 -6.78745e-20)
(0.891649 -0.216947 2.18734e-19)
(0.925813 -0.193061 1.34834e-19)
(0.947777 -0.16699 -4.28905e-20)
(0.96107 -0.142544 -3.66298e-20)
(0.970353 -0.121048 1.15065e-20)
(0.975891 -0.102775 4.46198e-21)
(0.980667 -0.0880305 2.66491e-21)
(0.98307 -0.0752776 -1.77027e-21)
(0.9865 -0.0657687 6.67127e-21)
(-0.105832 0.106321 1.89804e-18)
(-0.117176 0.0914534 1.01583e-18)
(-0.123051 0.10634 9.9887e-20)
(-0.0695711 0.0962928 -4.42254e-19)
(0.024602 0.104299 -6.00145e-19)
(0.139521 0.0837292 -4.59254e-19)
(0.316835 0.0103859 -2.55938e-19)
(0.531936 -0.0979614 -2.10984e-19)
(0.707065 -0.182445 -9.44665e-19)
(0.824518 -0.222957 -1.04462e-19)
(0.896223 -0.228649 9.67189e-20)
(0.937327 -0.213849 -3.5271e-19)
(0.960093 -0.190307 1.22659e-20)
(0.973095 -0.164808 1.53126e-20)
(0.979594 -0.140969 -2.24864e-20)
(0.983919 -0.119963 7.10637e-22)
(0.98584 -0.102162 2.13981e-21)
(0.987937 -0.0876663 1.34172e-21)
(0.988531 -0.0751942 5.04231e-21)
(0.990419 -0.0657494 -1.35985e-21)
(-0.106964 0.110599 -1.8709e-18)
(-0.109331 0.0940016 -1.57076e-18)
(-0.104227 0.109019 -4.84227e-19)
(-0.0368461 0.0967229 3.9691e-19)
(0.0720996 0.104175 4.71898e-19)
(0.202797 0.0821555 -8.4631e-19)
(0.399442 0.00803962 3.71928e-20)
(0.621114 -0.099002 3.11945e-19)
(0.788207 -0.180564 4.28506e-19)
(0.891274 -0.218997 1.74824e-19)
(0.948009 -0.223824 2.80253e-19)
(0.976139 -0.20922 6.32869e-20)
(0.988709 -0.18638 -1.04615e-19)
(0.993917 -0.161743 -3.85345e-20)
(0.994709 -0.138746 -1.34625e-20)
(0.994976 -0.118394 -1.708e-20)
(0.993961 -0.101189 6.91583e-22)
(0.993937 -0.0870184 4.82258e-22)
(0.993087 -0.0749027 -2.22198e-21)
(0.993822 -0.0655556 -2.61751e-21)
(-0.10823 0.114381 7.45339e-19)
(-0.101517 0.0958807 1.42896e-18)
(-0.0852854 0.110935 -3.85055e-19)
(-0.00416622 0.0962841 5.53234e-19)
(0.11847 0.102826 -2.80444e-19)
(0.265014 0.0792615 1.27939e-18)
(0.480585 0.00536464 5.06053e-19)
(0.705383 -0.0991268 9.11115e-19)
(0.861924 -0.177039 -2.21592e-19)
(0.94995 -0.213281 1.56944e-19)
(0.992337 -0.217472 -7.16194e-20)
(1.00869 -0.203385 2.46502e-19)
(1.01238 -0.181542 -5.74327e-20)
(1.01098 -0.157999 -3.00517e-20)
(1.0071 -0.136019 4.54024e-20)
(1.0041 -0.116444 3.9057e-20)
(1.00072 -0.0999215 -1.66154e-20)
(0.999029 -0.0861327 1.08985e-20)
(0.997035 -0.0744332 -2.12431e-21)
(0.996887 -0.0652025 1.88004e-21)
(-0.109636 0.117669 -7.04103e-19)
(-0.093786 0.0970707 -1.4034e-18)
(-0.0662931 0.112083 -4.24861e-19)
(0.0284618 0.0950698 -4.45631e-19)
(0.163796 0.100306 7.24209e-20)
(0.326934 0.0752865 8.35128e-20)
(0.560226 0.00260243 2.48339e-19)
(0.784159 -0.0982735 7.57474e-20)
(0.927918 -0.172052 7.19935e-19)
(1.00072 -0.206126 4.37689e-20)
(1.02973 -0.209931 1.25708e-19)
(1.03568 -0.196638 -1.64668e-19)
(1.03182 -0.176022 9.55209e-20)
(1.02494 -0.153747 2.85693e-20)
(1.01732 -0.132906 -1.12834e-20)
(1.01172 -0.114193 -1.71053e-20)
(1.00646 -0.0984113 2.24149e-20)
(1.00348 -0.0850448 1.96831e-20)
(1.00057 -0.0738073 9.04514e-21)
(0.999718 -0.0646991 -5.25119e-21)
(-0.111187 0.120467 -7.8157e-19)
(-0.0861819 0.0975557 2.25494e-19)
(-0.0472827 0.11247 9.51671e-20)
(0.0611394 0.0931895 -5.22968e-19)
(0.208532 0.0967469 1.19281e-18)
(0.389607 0.0706467 -1.43034e-18)
(0.638148 4.73604e-05 -1.99525e-18)
(0.856892 -0.0963974 -2.82546e-18)
(0.986087 -0.165805 -6.28645e-19)
(1.04394 -0.197843 -8.16428e-19)
(1.0608 -0.201508 -5.21145e-19)
(1.0578 -0.189237 -2.18414e-19)
(1.04769 -0.170011 1.86629e-19)
(1.03638 -0.149126 -4.1635e-20)
(1.02586 -0.129497 -3.68796e-20)
(1.0182 -0.111704 8.55409e-21)
(1.01145 -0.0966979 3.31363e-20)
(1.00746 -0.0837833 -6.70844e-21)
(1.00382 -0.0730386 5.68417e-22)
(1.00238 -0.0640589 1.3859e-21)
(-0.112888 0.122781 1.5926e-18)
(-0.0787337 0.0973282 1.15488e-18)
(-0.0282413 0.112094 8.05447e-19)
(0.0940814 0.0907695 -9.42913e-20)
(0.253523 0.0923941 -1.29291e-18)
(0.454031 0.0658785 2.66381e-19)
(0.713817 -0.00200568 8.62112e-19)
(0.923083 -0.0934961 2.96042e-18)
(1.03652 -0.158519 4.56072e-19)
(1.08015 -0.188724 8.17326e-20)
(1.08627 -0.192477 3.83727e-19)
(1.07576 -0.181397 2.86908e-19)
(1.0606 -0.163668 -2.99571e-19)
(1.04579 -0.144247 1.08957e-19)
(1.03306 -0.125865 -2.8029e-20)
(1.02378 -0.109026 -1.76075e-20)
(1.01588 -0.0948127 -4.24892e-20)
(1.01112 -0.0823708 6.94286e-21)
(1.00684 -0.0721373 -1.64598e-20)
(1.0049 -0.0632965 -1.16773e-20)
(-0.11474 0.124624 -2.10261e-19)
(-0.0714551 0.0963866 6.56684e-19)
(-0.00910126 0.110949 -1.88047e-19)
(0.127628 0.0879431 -4.20954e-19)
(0.299933 0.0876333 1.80191e-19)
(0.520756 0.0615253 7.46737e-19)
(0.786384 -0.00331648 -8.26966e-19)
(0.982347 -0.0896248 -1.06554e-18)
(1.07951 -0.150423 -6.28932e-19)
(1.10997 -0.179038 -4.44095e-20)
(1.10684 -0.18307 -9.51779e-20)
(1.0902 -0.173296 -2.56052e-19)
(1.07107 -0.157117 5.52264e-20)
(1.05359 -0.139197 -7.56148e-20)
(1.03922 -0.122065 1.14472e-19)
(1.02866 -0.106198 -8.41714e-20)
(1.01987 -0.0927811 -8.04629e-22)
(1.01451 -0.0808255 4.64491e-21)
(1.00968 -0.0711145 3.14321e-20)
(1.00731 -0.0624191 1.45221e-20)
(-0.116746 0.126009 -1.44337e-18)
(-0.0643306 0.0947138 -1.36494e-19)
(0.0102575 0.109061 -9.33007e-19)
(0.162255 0.0848463 2.90571e-19)
(0.34903 0.08298 -7.55564e-19)
(0.589574 0.0580129 1.49383e-18)
(0.854805 -0.00373927 1.72177e-18)
(1.03447 -0.084895 3.04905e-19)
(1.11548 -0.141744 1.39006e-18)
(1.1341 -0.169018 3.3088e-19)
(1.12321 -0.173478 -2.3833e-19)
(1.10172 -0.165074 -1.10587e-19)
(1.07957 -0.150459 1.70954e-19)
(1.0601 -0.134043 5.1278e-20)
(1.04454 -0.118142 7.61185e-20)
(1.03299 -0.103254 2.27e-19)
(1.02354 -0.0906236 -2.16559e-20)
(1.01768 -0.0791629 -3.86365e-20)
(1.01237 -0.0699809 -2.38361e-20)
(1.00961 -0.0614336 -1.22239e-20)
(-0.118905 0.12695 1.01323e-18)
(-0.0573149 0.092302 1.61901e-19)
(0.0300375 0.106471 2.38229e-18)
(0.198574 0.0816289 -3.05589e-20)
(0.401865 0.0790101 -4.23587e-19)
(0.65948 0.0555698 -1.2474e-18)
(0.918047 -0.00323571 1.101e-18)
(1.07947 -0.0794599 -1.64376e-18)
(1.14502 -0.132695 -1.17977e-18)
(1.15327 -0.158861 -4.66316e-19)
(1.13604 -0.163855 2.9055e-19)
(1.11083 -0.15684 -1.54772e-20)
(1.08647 -0.143768 -6.96881e-20)
(1.06558 -0.128836 -1.65365e-19)
(1.0492 -0.114128 1.36632e-19)
(1.03686 -0.100217 -2.13097e-19)
(1.02693 -0.0883575 1.56935e-20)
(1.02066 -0.0773973 -3.71265e-20)
(1.01491 -0.0687456 1.69618e-20)
(1.01182 -0.06035 1.5566e-21)
(-0.121216 0.127462 2.3806e-19)
(-0.0503413 0.0891715 -1.95843e-19)
(0.0505422 0.103222 -2.21381e-18)
(0.237294 0.0784857 8.63771e-19)
(0.458919 0.0762365 2.71112e-18)
(0.728886 0.0542244 -5.33206e-19)
(0.975283 -0.00186125 -2.93229e-20)
(1.11758 -0.0734926 5.25956e-19)
(1.16879 -0.123466 8.01515e-20)
(1.16818 -0.148724 -2.11085e-19)
(1.14594 -0.154315 1.71094e-19)
(1.11797 -0.148676 1.79277e-20)
(1.09208 -0.137102 -4.00799e-20)
(1.07024 -0.123614 8.12501e-20)
(1.05331 -0.110053 -2.29382e-19)
(1.04036 -0.0971116 1.17778e-19)
(1.0301 -0.0859968 9.8696e-20)
(1.02347 -0.0755418 5.28134e-20)
(1.01732 -0.0674174 -2.19765e-20)
(1.01393 -0.0591774 1.26961e-20)
(-0.123674 0.127563 -8.24028e-19)
(-0.0433029 0.0853488 -6.10726e-19)
(0.072182 0.0993988 1.11876e-18)
(0.279148 0.0756768 -1.39273e-18)
(0.519869 0.0749768 -5.01795e-20)
(0.796007 0.0538631 3.00787e-19)
(1.02601 0.000265701 -8.66452e-19)
(1.14923 -0.0671653 3.94052e-19)
(1.1875 -0.114211 -7.92752e-19)
(1.17951 -0.138729 5.65631e-19)
(1.15341 -0.144947 -8.52839e-20)
(1.12353 -0.140641 4.1548e-19)
(1.09664 -0.130503 -1.10228e-19)
(1.07423 -0.118406 -2.22315e-19)
(1.05695 -0.105938 -9.67432e-20)
(1.04354 -0.0939546 1.36805e-20)
(1.03307 -0.0835534 1.41867e-20)
(1.0261 -0.0736085 8.62446e-21)
(1.0196 -0.0660039 -2.19528e-20)
(1.01596 -0.0579242 -2.08938e-20)
(-0.126272 0.127265 1.89597e-18)
(-0.0360449 0.0808684 1.55095e-18)
(0.0954821 0.0951471 -8.47216e-19)
(0.324743 0.0735168 1.18416e-18)
(0.583593 0.0752789 -5.15596e-19)
(0.85923 0.0543066 -4.41476e-19)
(1.07009 0.00299805 6.94413e-19)
(1.17499 -0.060633 1.62404e-18)
(1.20187 -0.105056 4.64965e-19)
(1.18786 -0.128965 3.53346e-19)
(1.15891 -0.13581 -1.96773e-20)
(1.12781 -0.132777 -3.48125e-19)
(1.10037 -0.124002 -2.58621e-20)
(1.07766 -0.113233 2.73926e-19)
(1.0602 -0.101802 2.37615e-20)
(1.04644 -0.0907617 -1.48847e-19)
(1.03585 -0.081037 -1.97949e-20)
(1.02855 -0.0716093 2.02023e-22)
(1.02176 -0.0645115 2.34492e-21)
(1.01791 -0.056598 1.85579e-20)
(-0.129 0.126581 -1.45073e-18)
(-0.0283569 0.0757794 -2.70538e-18)
(0.121076 0.090687 -5.5889e-19)
(0.37439 0.0723272 8.31333e-19)
(0.64841 0.0769442 -4.89682e-19)
(0.917352 0.0553667 1.59125e-18)
(1.10769 0.00618733 -2.57511e-19)
(1.19553 -0.0540256 -6.65012e-19)
(1.21255 -0.0960933 -8.97912e-20)
(1.19377 -0.119494 7.55428e-20)
(1.16284 -0.126945 -3.60284e-19)
(1.13105 -0.125112 8.27561e-20)
(1.10341 -0.117621 -3.67616e-20)
(1.08064 -0.10811 1.48792e-19)
(1.06311 -0.0976622 3.40202e-19)
(1.04911 -0.0875453 1.56098e-19)
(1.03847 -0.0784556 3.64076e-20)
(1.03085 -0.0695561 5.43235e-20)
(1.02382 -0.0629456 1.36696e-20)
(1.01978 -0.0552063 3.82357e-20)
(-0.131843 0.125515 -4.7203e-20)
(-0.0199638 0.0701515 9.73287e-19)
(0.149665 0.0863294 2.2004e-18)
(0.42794 0.0723545 -6.92211e-19)
(0.712457 0.0796295 5.71939e-20)
(0.969652 0.0568771 -2.35546e-18)
(1.13922 0.00970011 1.98517e-19)
(1.21152 -0.0474455 -9.64524e-19)
(1.22017 -0.0873875 -1.72695e-20)
(1.19771 -0.110355 3.13939e-19)
(1.16549 -0.118378 3.57744e-19)
(1.13347 -0.117662 1.83694e-19)
(1.1059 -0.111376 -2.08326e-19)
(1.08324 -0.103049 4.09185e-20)
(1.06571 -0.0935322 -9.56576e-20)
(1.05155 -0.0843151 -1.84392e-19)
(1.04091 -0.0758168 -6.36863e-20)
(1.03298 -0.0674607 -7.64852e-20)
(1.02578 -0.0613101 1.39342e-20)
(1.02158 -0.0537562 -5.80059e-20)
(-0.134784 0.124066 1.57735e-18)
(-0.0105176 0.0640825 -8.27339e-19)
(0.181946 0.0824705 -6.14529e-19)
(0.484723 0.0736923 -5.77903e-19)
(0.774049 0.0829687 1.66989e-18)
(1.01586 0.0587038 -3.65241e-19)
(1.16521 0.0134254 -1.70539e-18)
(1.22361 -0.0409692 1.27634e-18)
(1.22527 -0.0789817 7.57492e-20)
(1.20005 -0.101571 -9.84497e-19)
(1.16713 -0.110121 -1.49318e-19)
(1.13523 -0.110439 -2.20096e-19)
(1.10792 -0.105275 -8.54737e-20)
(1.08549 -0.0980585 1.26422e-20)
(1.06802 -0.0894247 -9.64569e-20)
(1.05381 -0.081078 1.98358e-19)
(1.0432 -0.0731286 -1.07129e-20)
(1.03495 -0.0653341 4.99567e-21)
(1.02766 -0.0596079 -5.4768e-21)
(1.0233 -0.0522553 -1.33004e-21)
(-0.137797 0.122224 -6.80545e-19)
(0.000409081 0.0577107 1.12972e-18)
(0.218489 0.0795567 -4.5674e-19)
(0.543615 0.0762513 -1.4928e-18)
(0.831892 0.0866566 -3.39501e-19)
(1.05606 0.0607437 -8.12289e-19)
(1.18629 0.0172756 1.77926e-18)
(1.23242 -0.0346506 -9.52441e-19)
(1.22832 -0.0709007 3.20796e-19)
(1.20114 -0.0931531 4.33043e-19)
(1.16798 -0.102178 -3.05704e-19)
(1.13645 -0.103447 2.00763e-19)
(1.10956 -0.0993252 1.19058e-19)
(1.08744 -0.0931459 -3.81207e-19)
(1.07009 -0.08535 1.5676e-19)
(1.0559 -0.0778394 1.04298e-19)
(1.04532 -0.0703996 9.55537e-20)
(1.03678 -0.0631863 2.02683e-20)
(1.02946 -0.0578411 -1.77172e-20)
(1.02493 -0.0507117 1.29693e-20)
(-0.140851 0.119961 -2.83378e-19)
(0.0133202 0.0512317 -1.21543e-20)
(0.259601 0.0780132 1.74964e-18)
(0.603228 0.0797939 3.65305e-18)
(0.885147 0.0904786 -2.11304e-18)
(1.09056 0.0629202 2.87261e-19)
(1.20307 0.0211841 -1.37617e-18)
(1.2385 -0.0285258 -4.51669e-19)
(1.22974 -0.0631555 -4.28763e-19)
(1.20124 -0.0851005 3.05477e-20)
(1.16819 -0.0945466 1.83464e-19)
(1.13724 -0.0966856 6.04846e-19)
(1.11086 -0.0935298 2.46419e-19)
(1.08913 -0.0883163 1.0211e-19)
(1.07194 -0.0813165 -1.21896e-19)
(1.05782 -0.0746035 6.68926e-20)
(1.04727 -0.0676398 -1.91598e-20)
(1.03847 -0.0610253 -6.40054e-20)
(1.03119 -0.0560115 5.02591e-20)
(1.02647 -0.0491349 1.64082e-20)
(-0.143904 0.117235 -9.76194e-19)
(0.0287821 0.0449175 8.70323e-19)
(0.305208 0.0781514 -3.81912e-18)
(0.662142 0.0840133 -3.49461e-18)
(0.933391 0.0943015 9.31775e-19)
(1.1198 0.0651777 8.82824e-19)
(1.21614 0.0251018 -4.26261e-19)
(1.24233 -0.0226164 1.30047e-18)
(1.22984 -0.0557472 8.14227e-19)
(1.20056 -0.0774068 -7.07516e-20)
(1.16791 -0.0872209 -1.92397e-19)
(1.13766 -0.0901525 -5.3182e-19)
(1.11188 -0.0878898 3.98525e-20)
(1.09058 -0.0835738 -2.09109e-20)
(1.07358 -0.0773311 1.12638e-19)
(1.05959 -0.0713744 -2.33099e-19)
(1.04905 -0.0648593 1.81149e-19)
(1.04005 -0.0588567 5.20898e-20)
(1.03284 -0.0541218 -9.41024e-20)
(1.02791 -0.0475359 -7.0876e-21)
(-0.146905 0.113984 7.8184e-19)
(0.0473968 0.0391211 -1.25715e-18)
(0.354796 0.0800871 1.04568e-19)
(0.71911 0.088616 1.93983e-18)
(0.97652 0.0980505 1.75583e-18)
(1.14431 0.0674758 -1.05737e-18)
(1.22605 0.0289937 7.65998e-19)
(1.24434 -0.0169333 -9.90924e-19)
(1.22893 -0.0486697 -7.68484e-19)
(1.19929 -0.0700612 -2.68183e-19)
(1.16724 -0.080191 3.56673e-19)
(1.1378 -0.0838433 -8.40101e-19)
(1.11266 -0.0824049 -3.56829e-20)
(1.0918 -0.0789216 2.35877e-19)
(1.07503 -0.0733992 -1.81391e-19)
(1.06121 -0.068156 -5.53934e-20)
(1.05067 -0.0620677 8.98103e-21)
(1.04152 -0.056684 -9.40237e-20)
(1.03441 -0.052176 1.38563e-20)
(1.02924 -0.0459267 4.0766e-20)
(-0.1498 0.110146 -2.67625e-19)
(0.0697625 0.0342553 -3.50341e-19)
(0.407444 0.0837062 2.23475e-18)
(0.773166 0.0933715 -1.45943e-18)
(1.01466 0.101688 -7.97467e-19)
(1.1646 0.0697856 -3.19012e-19)
(1.2333 0.0328357 1.67524e-18)
(1.24487 -0.0114795 1.04419e-18)
(1.22723 -0.0419119 7.15351e-19)
(1.19757 -0.0630497 -8.90214e-19)
(1.16626 -0.0734456 -6.11834e-19)
(1.13768 -0.0777525 2.64627e-19)
(1.11321 -0.0770737 -3.16452e-19)
(1.09283 -0.0743621 -4.79545e-19)
(1.07631 -0.0695254 -3.87916e-20)
(1.06267 -0.0649523 -5.57289e-20)
(1.05214 -0.0592738 -1.05904e-19)
(1.0429 -0.05451 1.28074e-19)
(1.03588 -0.050179 -4.25036e-20)
(1.03046 -0.044317 -1.3945e-20)
(-0.152524 0.105638 -1.84558e-18)
(0.0963794 0.0307818 -1.34609e-18)
(0.461961 0.088697 -6.32996e-19)
(0.823661 0.0981234 -1.26137e-18)
(1.04806 0.1052 -4.31917e-19)
(1.1812 0.0720865 -7.27602e-19)
(1.23831 0.036612 -1.45429e-18)
(1.24422 -0.00625235 -1.71672e-18)
(1.22492 -0.0354598 3.64012e-19)
(1.1955 -0.0563567 -6.21768e-20)
(1.16504 -0.0669724 1.54442e-19)
(1.13736 -0.0718735 5.53915e-19)
(1.11357 -0.0718938 1.74094e-19)
(1.09368 -0.0698968 4.90242e-19)
(1.07744 -0.0657136 1.5949e-19)
(1.06399 -0.0617668 2.93561e-19)
(1.05345 -0.0564853 5.65611e-20)
(1.04418 -0.0523374 8.60467e-20)
(1.03725 -0.0481336 1.20196e-19)
(1.03156 -0.0427125 2.01796e-20)
(-0.154979 0.10035 6.1002e-19)
(0.127568 0.0291618 8.23017e-19)
(0.51706 0.0946365 1.63613e-18)
(0.870227 0.102776 2.91321e-18)
(1.07708 0.108583 -6.9332e-19)
(1.19458 0.0743639 6.2494e-19)
(1.24147 0.0403131 9.90907e-19)
(1.24264 -0.00124532 1.35241e-18)
(1.22215 -0.0292975 -2.32063e-19)
(1.19318 -0.0499658 1.10102e-18)
(1.16363 -0.0607586 4.60296e-19)
(1.13687 -0.0661995 -5.25808e-19)
(1.11376 -0.0668623 -3.38148e-19)
(1.09436 -0.0655272 1.14911e-20)
(1.07841 -0.061967 -1.871e-19)
(1.06516 -0.0586022 -1.87596e-19)
(1.05464 -0.0537105 1.15815e-19)
(1.04538 -0.0501688 1.84854e-19)
(1.03851 -0.0460366 -5.28052e-20)
(1.03253 -0.0411156 -8.41909e-20)
(-0.157049 0.0941801 2.12371e-18)
(0.163403 0.0297588 1.7508e-18)
(0.571533 0.101096 1.19475e-18)
(0.912729 0.107274 -2.58317e-18)
(1.1021 0.111841 5.64899e-19)
(1.20518 0.0766084 3.11218e-19)
(1.2431 0.043934 -2.26549e-19)
(1.24035 0.00355058 -1.65643e-19)
(1.21905 -0.0234083 5.18166e-19)
(1.19067 -0.0438605 -6.73805e-19)
(1.16207 -0.0547914 -7.51274e-20)
(1.13621 -0.0607234 7.01982e-19)
(1.11378 -0.0619758 6.25733e-19)
(1.09488 -0.0612541 -1.15997e-19)
(1.07924 -0.058288 2.93079e-19)
(1.0662 -0.0554607 1.31186e-19)
(1.0557 -0.050959 -9.8235e-20)
(1.04649 -0.0480032 -1.52878e-19)
(1.03964 -0.0438782 1.54676e-20)
(1.03335 -0.039532 7.42601e-22)
(-0.158591 0.0870493 -1.35525e-18)
(0.203661 0.0327546 4.96721e-19)
(0.624381 0.107728 -4.17051e-18)
(0.951197 0.111591 8.83393e-19)
(1.1235 0.114981 -2.70698e-19)
(1.21339 0.0788139 -8.24126e-19)
(1.24347 0.047473 -1.71213e-18)
(1.2375 0.0081459 -6.90773e-19)
(1.21572 -0.0177755 -1.25612e-18)
(1.18802 -0.0380243 5.80529e-19)
(1.16038 -0.0490583 -2.48716e-19)
(1.13543 -0.0554382 -7.70061e-19)
(1.11367 -0.0572305 -7.12724e-19)
(1.09527 -0.0570784 1.73134e-19)
(1.07993 -0.0546782 -1.3911e-19)
(1.0671 -0.052345 -8.11456e-20)
(1.05664 -0.0482414 5.43313e-20)
(1.04752 -0.0458322 1.10074e-19)
(1.04065 -0.0416485 -4.47056e-20)
(1.03404 -0.0379841 6.44038e-20)
(-0.159436 0.0789258 -1.49265e-18)
(0.247818 0.0380937 1.96321e-18)
(0.674859 0.114299 1.84426e-18)
(0.98578 0.115714 -2.34426e-18)
(1.14166 0.118014 1.68238e-18)
(1.21957 0.0809771 -1.49114e-18)
(1.24282 0.0509308 -8.09309e-19)
(1.23424 0.0125519 8.46015e-19)
(1.21221 -0.0123827 -2.33829e-19)
(1.18528 -0.0324417 -3.08774e-19)
(1.1586 -0.0435472 2.15787e-19)
(1.13453 -0.0503367 -1.8814e-19)
(1.11342 -0.0526228 4.50296e-20)
(1.09552 -0.0530007 -2.69477e-19)
(1.08049 -0.051138 -7.35186e-20)
(1.06787 -0.049259 6.30717e-20)
(1.05748 -0.0455665 -2.77713e-20)
(1.04846 -0.0436392 -1.69665e-19)
(1.04152 -0.0393539 7.33953e-20)
(1.03463 -0.0365269 2.21244e-20)
(-0.159384 0.0698486 1.25408e-18)
(0.295091 0.0454712 -9.27662e-19)
(0.722469 0.120688 3.27562e-19)
(1.0167 0.119642 1.78641e-18)
(1.15694 0.120949 -3.40552e-19)
(1.22401 0.0830967 8.22137e-19)
(1.24135 0.0543091 -3.32756e-19)
(1.23067 0.0167801 -8.7564e-19)
(1.2086 -0.00721424 -1.05296e-19)
(1.18248 -0.0270977 3.61604e-19)
(1.15674 -0.0382467 -2.4144e-19)
(1.13352 -0.045412 7.66767e-19)
(1.11305 -0.0481486 1.2201e-19)
(1.09565 -0.0490215 2.00791e-19)
(1.08093 -0.0476672 1.94822e-19)
(1.06852 -0.0462082 -2.86974e-19)
(1.05822 -0.0429379 -8.00683e-20)
(1.04932 -0.0414054 8.17484e-20)
(1.04227 -0.03704 9.87661e-20)
(1.0352 -0.0352809 -9.31959e-20)
(-0.158192 0.0599526 -1.27196e-18)
(0.344541 0.0543744 -2.35839e-18)
(0.76692 0.126851 -2.60259e-19)
(1.0442 0.12338 7.19976e-19)
(1.16967 0.123796 3.06189e-19)
(1.22698 0.0851729 9.03594e-19)
(1.23922 0.0576114 4.0806e-19)
(1.22688 0.0208417 9.1567e-19)
(1.20492 -0.00225516 -7.68597e-19)
(1.17963 -0.021978 -2.68416e-19)
(1.15481 -0.0331457 1.9585e-19)
(1.13242 -0.040657 -7.63418e-19)
(1.11258 -0.0438043 4.27904e-19)
(1.09566 -0.0451405 -2.1825e-19)
(1.08125 -0.0442652 -2.05059e-19)
(1.06906 -0.0431985 7.0296e-20)
(1.05888 -0.0403527 8.60423e-20)
(1.05009 -0.0391244 5.62713e-20)
(1.04292 -0.0348136 -5.01271e-20)
(1.03582 -0.0343549 8.63854e-20)
(-0.155585 0.0494858 1.49595e-18)
(0.395185 0.0641703 1.29409e-18)
(0.808082 0.132784 1.04256e-18)
(1.06855 0.126934 -2.63403e-18)
(1.18015 0.126567 -1.61767e-18)
(1.22871 0.0872074 -1.82134e-18)
(1.23657 0.0608416 3.27156e-19)
(1.22295 0.024748 -8.33424e-19)
(1.20121 0.00250881 2.88267e-19)
(1.17676 -0.017069 -3.22905e-19)
(1.15283 -0.0282336 -1.83246e-19)
(1.13124 -0.0360649 1.74102e-19)
(1.112 -0.0395856 -5.92623e-19)
(1.09556 -0.0413568 3.14022e-19)
(1.08146 -0.0409315 6.74703e-20)
(1.06949 -0.0402345 1.44348e-19)
(1.05944 -0.0378036 -1.15119e-19)
(1.05077 -0.0368195 3.21462e-20)
(1.04354 -0.0327942 -7.14355e-20)
(1.03679 -0.0324368 -2.1416e-20)
(-0.15125 0.0388175 1.35296e-18)
(0.446112 0.0742142 -4.41161e-19)
(0.845949 0.138503 -1.67152e-18)
(1.09002 0.130312 1.56891e-18)
(1.18865 0.12927 2.80908e-19)
(1.22941 0.089202 2.34835e-18)
(1.23351 0.0640033 -1.20506e-18)
(1.21892 0.028509 6.01666e-19)
(1.19749 0.00709017 1.13104e-18)
(1.17388 -0.0123586 1.16239e-19)
(1.1508 -0.0235011 1.96181e-19)
(1.12999 -0.0316293 7.39327e-19)
(1.11133 -0.0354895 1.78746e-19)
(1.09536 -0.0376698 -1.76055e-19)
(1.08156 -0.0376661 -1.35443e-19)
(1.06983 -0.0373194 -1.78207e-19)
(1.05992 -0.0352875 1.28973e-19)
(1.05137 -0.0345372 -1.0703e-19)
(1.04418 -0.0307467 4.82977e-20)
(1.03745 -0.0308121 7.272e-20)
(-0.144844 0.0284335 -2.17529e-18)
(0.496568 0.0839506 -1.71789e-18)
(0.880604 0.144027 -2.44232e-18)
(1.10886 0.13352 2.404e-18)
(1.19542 0.131914 1.44797e-18)
(1.22925 0.0911593 -1.8337e-18)
(1.23014 0.0671007 1.47559e-18)
(1.21484 0.0321343 9.00547e-19)
(1.19378 0.0115009 -1.19842e-18)
(1.171 -0.00783527 5.92799e-19)
(1.14874 -0.018939 4.42116e-20)
(1.12867 -0.0273439 -6.68913e-19)
(1.11058 -0.031512 4.2262e-19)
(1.09506 -0.0340781 1.16587e-19)
(1.08157 -0.0344687 1.24103e-20)
(1.07007 -0.0344551 3.10801e-19)
(1.06032 -0.0328078 1.06536e-19)
(1.05189 -0.0322606 1.69934e-19)