/*--------------------------------*- C++ -*----------------------------------*\
  =========                 |
  \\      /  F ield         | OpenFOAM: The Open Source CFD Toolbox
   \\    /   O peration     | Website:  https://openfoam.org
    \\  /    A nd           | Version:  7
     \\/     M anipulation  |
\*---------------------------------------------------------------------------*/
FoamFile
{
    version     2.0;
    format      ascii;
    class       volVectorField;
    location    "2";
    object      U;
}
// * * * * * * * * * * * * * * * * * * * * * * * * * * * * * * * * * * * * * //

dimensions      [0 1 -1 0 0 0 0];

internalField   nonuniform List<vector> 
2413
(
(2 -3.09315e-18 0)
(2 -2.9406e-17 0)
(2 -6.12662e-17 0)
(2 -1.1334e-16 0)
(2 -2.09009e-16 0)
(2 -2.26878e-16 0)
(2 -1.18585e-16 0)
(2 -7.69959e-17 0)
(2 -1.07261e-16 0)
(2 -2.77489e-16 0)
(2 -2.62565e-16 0)
(2 -6.51165e-17 0)
(2 -3.20268e-17 0)
(2 -2.01061e-16 0)
(2 -1.48151e-16 0)
(2 -1.50593e-16 0)
(2 -1.96668e-16 0)
(2 -1.28893e-16 0)
(2 2.05535e-16 0)
(2 2.7354e-16 0)
(2 -2.58286e-16 0)
(2 -5.14405e-16 0)
(2 -5.7293e-16 0)
(2 -8.29895e-16 0)
(2 -9.41675e-16 0)
(2 -7.36654e-16 0)
(2 -3.88763e-16 0)
(2 -1.65724e-16 0)
(2 -8.15794e-17 0)
(2 -2.89823e-16 0)
(2 -3.37903e-16 0)
(2 -3.75173e-16 0)
(2 -4.43264e-16 0)
(2 -3.9896e-16 0)
(2 -4.00781e-16 0)
(2 -4.30718e-16 0)
(2 -4.68492e-16 0)
(2 -4.86495e-16 0)
(2 -5.36041e-16 0)
(2 -5.75856e-16 0)
(2 -5.61802e-16 0)
(2 -4.71915e-16 0)
(2 -2.85897e-16 0)
(2 -2.17439e-16 0)
(2 -1.83715e-16 0)
(2 -1.53391e-16 0)
(2 -9.2564e-17 0)
(2 -6.84936e-17 0)
(2 -3.70049e-18 0)
(2 2.08114e-16 0)
(2 5.5475e-16 0)
(2 6.56097e-16 0)
(2 7.5559e-16 0)
(2 7.55767e-16 0)
(2 8.53246e-16 0)
(2 8.4474e-16 0)
(2 7.85868e-16 0)
(2 4.74525e-16 0)
(2 1.99517e-16 0)
(2 9.04134e-18 0)
(2 -1.35434e-16 0)
(2 -2.66112e-16 0)
(2 -4.18791e-16 0)
(2 -4.36553e-16 0)
(2 -4.22494e-16 0)
(2 -1.86364e-16 0)
(2 -1.88642e-16 0)
(2 -2.64418e-16 0)
(2 -2.00074e-16 0)
(2 2.00303e-17 0)
(2 -4.44829e-16 0)
(2 -1.44239e-15 0)
(2 -1.81591e-15 0)
(2 -1.46373e-15 0)
(2 -1.16452e-15 0)
(2 -7.36828e-16 0)
(2 -4.16437e-16 0)
(2 -2.94898e-16 0)
(2 -3.90349e-16 0)
(2 -5.38236e-16 0)
(2 -5.15048e-16 0)
(2 -2.44319e-16 0)
(2 3.43001e-16 0)
(2 4.81231e-16 0)
(2 5.32891e-16 0)
(2 5.81166e-16 0)
(2 5.25324e-16 0)
(2 4.72169e-16 0)
(2 4.25693e-16 0)
(2 2.11312e-16 0)
(2 1.97565e-16 0)
(2 7.04173e-17 0)
(2 -1.35897e-17 0)
(2 9.50577e-18 0)
(2 4.25332e-17 0)
(2 -5.15706e-17 0)
(2 -1.67136e-17 0)
(2 -2.51067e-16 0)
(2 -4.24376e-17 0)
(2 7.55182e-17 0)
(2 1.68898e-16 0)
(2 2.86092e-16 0)
(2 3.75226e-16 0)
(2 4.53413e-16 0)
(2 5.46042e-16 0)
(2 6.01141e-16 0)
(2 6.96419e-16 0)
(2 8.053e-16 0)
(2 9.33127e-16 0)
(2 1.01526e-15 0)
(2 1.03744e-15 0)
(2 1.03485e-15 0)
(2 1.03589e-15 0)
(2 9.01244e-16 0)
(2 8.80495e-16 0)
(2 8.84605e-16 0)
(2 7.71122e-16 0)
(2 8.56455e-16 0)
(2 9.07933e-16 0)
(2 8.84545e-16 0)
(2 9.14886e-16 0)
(2 7.8289e-16 0)
(2 6.36944e-16 0)
(2 4.46194e-16 0)
(2 3.06559e-16 0)
(2 1.46697e-17 0)
(2 -1.02306e-16 0)
(2 -2.54926e-16 0)
(2 -2.85777e-16 0)
(2 -3.41799e-16 0)
(2 -2.48228e-16 0)
(2 1.41146e-17 0)
(2 3.47721e-17 0)
(2 6.5293e-17 0)
(2 4.63928e-17 0)
(2 -4.6429e-17 0)
(2 -7.18562e-17 0)
(2 -1.75507e-17 0)
(2 5.53088e-17 0)
(2 5.94196e-17 0)
(2 1.34302e-18 0)
(2 3.23513e-19 0)
(2 5.25467e-17 0)
(2 7.22914e-17 0)
(2 2.281e-17 0)
(2 -5.02143e-17 0)
(2 -1.0084e-16 0)
(2 1.36288e-16 0)
(2 3.5091e-16 0)
(2 5.10132e-16 0)
(2 4.40618e-16 0)
(2 1.90266e-16 0)
(2 -1.44301e-16 0)
(2 -1.77039e-16 0)
(2 -1.49681e-16 0)
(2 -1.22776e-17 0)
(2 1.22383e-16 0)
(2 1.63166e-16 0)
(2 2.72516e-16 0)
(2 2.96734e-16 0)
(2 1.25455e-16 0)
(2 -6.60299e-18 0)
(2 -3.68505e-16 0)
(2 -6.5667e-16 0)
(2 -7.93184e-16 0)
(2 -8.15238e-16 0)
(2 -8.52205e-16 0)
(2 -8.79466e-16 0)
(2 -8.7712e-16 0)
(2 -8.43986e-16 0)
(2 -7.28706e-16 0)
(2 -6.4241e-16 0)
(2 -5.7328e-16 0)
(2 -8.94822e-16 0)
(2 -1.08566e-15 0)
(2 -5.69588e-16 0)
(2 -1.41099e-16 0)
(2 1.39815e-17 0)
(2 9.20976e-17 0)
(2 3.1767e-16 0)
(2 3.74798e-16 0)
(2 5.15518e-16 0)
(2 6.51006e-16 0)
(2 6.4506e-16 0)
(2 5.8595e-16 0)
(2 5.79338e-16 0)
(2 6.36455e-16 0)
(2 7.03318e-16 0)
(2 7.69191e-16 0)
(2 4.09654e-16 0)
(2 -4.24338e-17 0)
(2 -3.39057e-16 0)
(2 -2.98244e-16 0)
(2 -2.34864e-16 0)
(2 -1.6206e-16 0)
(2 -3.66969e-16 0)
(2 -4.34127e-16 0)
(2 -6.41459e-16 0)
(2 -7.12331e-16 0)
(2 -7.40445e-16 0)
(2 -1.13627e-15 0)
(2 -1.49068e-15 0)
(2 -1.53379e-15 0)
(2 -1.5607e-15 0)
(2 -1.42712e-15 0)
(2 -1.24118e-15 0)
(2 -8.13086e-16 0)
(2 -5.08804e-16 0)
(2 -4.30724e-16 0)
(2 -3.66211e-16 0)
(2 -1.20469e-16 0)
(2 7.95796e-17 0)
(2 4.27601e-16 0)
(2 7.40158e-16 0)
(2 1.17278e-15 0)
(2 1.32106e-15 0)
(2 1.1974e-15 0)
(2 1.13753e-15 0)
(2 1.28841e-15 0)
(2 1.30737e-15 0)
(2 1.13745e-15 0)
(2 8.69374e-16 0)
(2 6.43961e-16 0)
(2 4.3224e-16 0)
(2 4.24166e-16 0)
(2 5.13566e-16 0)
(2 6.61517e-16 0)
(2 7.77522e-16 0)
(2 5.17175e-16 0)
(2 3.31248e-16 0)
(2 1.48306e-16 0)
(2 -1.37727e-17 0)
(2 -1.1758e-16 0)
(2 -1.62332e-16 0)
(2 -1.17024e-16 0)
(2 -1.92467e-17 0)
(2 1.29431e-16 0)
(2 3.64273e-16 0)
(2 5.30939e-16 0)
(2 6.17214e-16 0)
(2 6.92258e-16 0)
(2 7.33324e-16 0)
(2 7.56924e-16 0)
(2 9.34706e-16 0)
(2 1.00099e-15 0)
(2 9.72151e-16 0)
(2 1.33506e-15 0)
(2 1.87249e-15 0)
(2 2.01856e-15 0)
(2 2.15774e-15 0)
(2 2.07527e-15 0)
(2 1.79349e-15 0)
(2 1.44675e-15 0)
(2 1.10656e-15 0)
(2 8.08766e-16 0)
(2 6.16506e-16 0)
(2 6.00667e-16 0)
(2 2.52233e-16 0)
(2 -5.67053e-17 0)
(2 -7.21647e-17 0)
(2 -1.10499e-16 0)
(2 5.17482e-18 0)
(2 -2.34171e-17 0)
(2 -1.93795e-17 0)
(2 -2.53324e-17 0)
(2 -2.92226e-17 0)
(2 2.65173e-18 0)
(2 -7.80828e-18 0)
(2 -3.09289e-17 0)
(2 -8.0732e-17 0)
(2 -8.49909e-17 0)
(2 -6.78945e-17 0)
(2 -8.41657e-17 0)
(2 -1.30585e-16 0)
(2 3.66332e-17 0)
(2 1.95595e-16 0)
(2 1.33534e-16 0)
(2 1.37829e-16 0)
(2 2.84085e-16 0)
(2 3.94564e-16 0)
(2 3.01575e-16 0)
(2 2.92385e-16 0)
(2 3.47443e-16 0)
(2 3.44131e-16 0)
(2 3.30333e-16 0)
(2 2.18218e-16 0)
(2 6.79301e-16 0)
(2 6.74186e-16 0)
(2 5.98094e-16 0)
(2 3.54956e-16 0)
(2 2.89092e-16 0)
(2 3.54248e-16 0)
(2 2.29691e-16 0)
(2 1.65153e-16 0)
(2 1.69574e-16 0)
(2 1.30621e-16 0)
(2 3.4015e-17 0)
(2 -9.93449e-17 0)
(2 -3.0297e-16 0)
(2 -3.64616e-16 0)
(2 -4.35249e-16 0)
(2 -3.6264e-16 0)
(2 -2.38418e-16 0)
(2 -7.0958e-16 0)
(2 -1.04129e-15 0)
(2 -9.78407e-16 0)
(2 -5.24167e-16 0)
(2 -2.59669e-16 0)
(2 -4.67566e-16 0)
(2 -5.47517e-16 0)
(2 -5.82753e-16 0)
(2 -8.69636e-16 0)
(2 -1.18136e-15 0)
(2 -1.32827e-15 0)
(2 -1.83538e-15 0)
(2 -1.90131e-15 0)
(2 -1.94313e-15 0)
(2 -1.82831e-15 0)
(2 -1.76167e-15 0)
(2 -1.58182e-15 0)
(2 -1.23048e-15 0)
(2 -1.14292e-15 0)
(2 -7.03834e-16 0)
(2 -3.7482e-16 0)
(2 -6.54944e-16 0)
(2 -9.30022e-16 0)
(2 -1.52597e-15 0)
(2 -2.01264e-15 0)
(2 -2.44977e-15 0)
(2 -1.90571e-15 0)
(2 -1.85791e-15 0)
(2 -2.05154e-15 0)
(2 -1.53113e-15 0)
(2 -1.17621e-15 0)
(2 -9.71613e-16 0)
(2 -9.38345e-16 0)
(2 -8.25201e-16 0)
(2 -7.86251e-16 0)
(2 -6.84762e-16 0)
(2 -6.60257e-16 0)
(2 -6.68271e-16 0)
(2 -3.27608e-16 0)
(2 -1.65393e-16 0)
(2 2.23489e-16 0)
(2 5.45476e-16 0)
(2 4.90479e-16 0)
(2 -1.23985e-16 0)
(2 5.64434e-17 0)
(2 4.2019e-16 0)
(2 4.98393e-16 0)
(2 2.96124e-16 0)
(2 -1.48568e-16 0)
(2 -2.77208e-16 0)
(2 -3.81455e-16 0)
(2 -4.01475e-16 0)
(2 -4.77084e-16 0)
(2 -5.88798e-16 0)
(2 -9.59567e-16 0)
(2 -8.27012e-16 0)
(2 -6.87947e-16 0)
(2 -5.15685e-16 0)
(2 -3.25932e-16 0)
(2 -5.79246e-16 0)
(2 -6.70322e-16 0)
(2 -6.58651e-16 0)
(2 -6.75733e-16 0)
(2 -6.95184e-16 0)
(2 -6.71287e-16 0)
(2 -7.14981e-16 0)
(2 -8.73686e-16 0)
(2 -8.62226e-16 0)
(2 -7.71958e-16 0)
(2 -5.33678e-16 0)
(2 -7.78972e-17 0)
(2 2.69099e-16 0)
(2 5.23838e-16 0)
(2 6.49492e-16 0)
(2 8.40828e-16 0)
(2 9.27014e-16 0)
(2 1.00689e-15 0)
(2 9.17899e-16 0)
(2 7.99662e-16 0)
(2 6.58099e-16 0)
(2 4.80402e-16 0)
(2 6.41806e-16 0)
(2 9.68894e-16 0)
(2 1.06396e-15 0)
(2 9.37954e-16 0)
(2 1.2801e-15 0)
(2 1.16254e-15 0)
(2 1.06964e-15 0)
(2 1.02985e-15 0)
(2 9.76496e-16 0)
(2 -1.85447e-17 0)
(2 -9.84701e-17 0)
(2 -1.69957e-16 0)
(2 -2.01044e-16 0)
(2 -9.81112e-17 0)
(2 -1.73815e-17 0)
(2 1.27425e-16 0)
(2 1.51422e-16 0)
(2 9.48284e-17 0)
(2 -6.34856e-18 0)
(2 -8.91525e-17 0)
(2 -1.06189e-16 0)
(2 -1.43867e-18 0)
(2 5.18892e-17 0)
(2 4.81608e-17 0)
(2 4.13416e-17 0)
(2 -4.47051e-17 0)
(2 -1.43899e-16 0)
(2 -4.00809e-17 0)
(2 1.47662e-16 0)
(2 3.10836e-16 0)
(2 4.69156e-16 0)
(2 5.72788e-16 0)
(2 4.52435e-16 0)
(2 2.78661e-16 0)
(2 3.55032e-16 0)
(2 5.50641e-16 0)
(2 3.55548e-16 0)
(2 5.52029e-17 0)
(2 -9.27746e-17 0)
(2 -1.45072e-16 0)
(2 6.40213e-18 0)
(2 2.56037e-16 0)
(2 3.99601e-16 0)
(2 4.25816e-16 0)
(2 4.28395e-16 0)
(2 3.82421e-16 0)
(2 3.05548e-16 0)
(2 2.78377e-16 0)
(2 3.37899e-16 0)
(2 3.67621e-16 0)
(2 2.47458e-16 0)
(2 1.7716e-16 0)
(2 3.43452e-18 0)
(2 -3.30217e-17 0)
(2 4.06419e-17 0)
(2 6.51923e-17 0)
(2 8.13187e-17 0)
(2 3.83351e-17 0)
(2 -2.6806e-16 0)
(2 -4.51553e-16 0)
(2 -8.22488e-16 0)
(2 -1.25491e-15 0)
(2 -1.69726e-15 0)
(2 -1.60578e-15 0)
(2 -1.45421e-15 0)
(2 -1.45822e-15 0)
(2 -1.35089e-15 0)
(2 -1.2428e-15 0)
(2 -1.15222e-15 0)
(2 -1.13612e-15 0)
(2 -1.18096e-15 0)
(2 -1.2914e-15 0)
(2 -1.39122e-15 0)
(2 -1.42321e-15 0)
(2 -1.1595e-15 0)
(2 -8.1182e-16 0)
(2 -7.23256e-16 0)
(2 -6.70127e-16 0)
(2 -6.16295e-16 0)
(2 -4.97084e-16 0)
(2 -2.97238e-16 0)
(2 -4.2412e-17 0)
(2 1.04302e-16 0)
(2 1.27155e-16 0)
(2 9.74818e-18 0)
(2 1.30613e-16 0)
(2 1.57082e-15 0)
(2 1.82575e-15 0)
(2 1.89601e-15 0)
(2 1.55383e-15 0)
(2 1.04052e-15 0)
(2 8.46908e-16 0)
(2 6.39559e-16 0)
(2 5.7905e-16 0)
(2 6.56816e-16 0)
(2 6.99602e-16 0)
(2 8.20574e-16 0)
(2 4.32789e-16 0)
(2 5.83983e-17 0)
(2 -1.27166e-16 0)
(2 -6.93465e-16 0)
(2 -1.10083e-15 0)
(2 -1.23098e-15 0)
(2 -1.11091e-15 0)
(2 -9.19273e-16 0)
(2 -3.42496e-16 0)
(2 1.18094e-16 0)
(2 2.24825e-16 0)
(2 4.86835e-16 0)
(2 5.8514e-16 0)
(2 7.23129e-16 0)
(2 7.36523e-16 0)
(2 6.00909e-16 0)
(2 5.908e-16 0)
(2 1.44915e-16 0)
(2 -3.63314e-16 0)
(2 -4.0343e-16 0)
(2 -7.68623e-16 0)
(2 -8.9113e-16 0)
(2 -1.00882e-15 0)
(2 -3.23604e-16 0)
(2 4.68617e-16 0)
(2 7.11092e-16 0)
(2 8.12496e-16 0)
(2 1.0041e-15 0)
(2 1.14657e-15 0)
(2 1.20787e-15 0)
(2 1.21882e-15 0)
(2 1.10855e-15 0)
(2 1.23536e-15 0)
(2 1.80851e-15 0)
(2 1.86209e-15 0)
(2 1.72676e-15 0)
(2 1.73365e-15 0)
(2 1.686e-15 0)
(2 1.3623e-15 0)
(2 1.16872e-15 0)
(2 1.1049e-15 0)
(2 1.02231e-15 0)
(2 9.77513e-16 0)
(2 5.86683e-18 0)
(2 3.66015e-18 0)
(2 -1.07624e-17 0)
(2 2.5542e-18 0)
(2 -3.07938e-17 0)
(2 -3.3342e-17 0)
(2 -8.09246e-17 0)
(2 -9.31211e-18 0)
(2 1.52372e-16 0)
(2 2.21456e-16 0)
(2 1.33312e-16 0)
(2 9.39549e-17 0)
(2 6.8921e-18 0)
(2 -4.44751e-17 0)
(2 4.98249e-17 0)
(2 2.92057e-17 0)
(2 -1.28821e-16 0)
(2 -2.7646e-16 0)
(2 -1.90915e-16 0)
(2 2.38111e-18 0)
(2 8.93597e-17 0)
(2 1.35735e-16 0)
(2 2.00841e-16 0)
(2 2.31966e-16 0)
(2 2.51775e-16 0)
(2 1.90189e-16 0)
(2 1.36259e-16 0)
(2 -6.45624e-17 0)
(2 -1.63238e-16 0)
(2 -1.66968e-16 0)
(2 -1.36298e-16 0)
(2 -5.84301e-17 0)
(2 1.51429e-17 0)
(2 9.41187e-17 0)
(2 1.15104e-16 0)
(2 1.61041e-16 0)
(2 2.36715e-16 0)
(2 3.24726e-16 0)
(2 3.399e-16 0)
(2 3.7223e-16 0)
(2 4.6205e-16 0)
(2 4.77945e-16 0)
(2 4.34944e-16 0)
(2 5.94679e-16 0)
(2 6.31285e-16 0)
(2 6.29949e-16 0)
(2 6.5581e-16 0)
(2 7.45075e-16 0)
(2 7.65009e-16 0)
(2 8.05839e-16 0)
(2 9.235e-16 0)
(2 1.36619e-15 0)
(2 1.67354e-15 0)
(2 1.65718e-15 0)
(2 1.59901e-15 0)
(2 1.24913e-15 0)
(2 1.12253e-15 0)
(2 1.15439e-15 0)
(2 1.13577e-15 0)
(2 8.55921e-16 0)
(2 5.8053e-16 0)
(2 4.58805e-16 0)
(2 4.19496e-16 0)
(2 5.88226e-16 0)
(2 7.715e-16 0)
(2 9.26307e-16 0)
(2 1.15694e-15 0)
(2 1.19416e-15 0)
(2 1.1949e-15 0)
(2 1.0779e-15 0)
(2 9.74243e-16 0)
(2 8.25482e-16 0)
(2 8.20524e-16 0)
(2 8.7802e-16 0)
(2 8.28917e-16 0)
(2 7.86686e-16 0)
(2 7.18215e-16 0)
(2 5.43473e-16 0)
(2 4.16182e-16 0)
(2 5.54977e-16 0)
(2 5.76135e-16 0)
(2 7.0828e-16 0)
(2 1.15636e-15 0)
(2 1.57468e-15 0)
(2 1.66878e-15 0)
(2 1.60997e-15 0)
(2 1.54927e-15 0)
(2 1.18419e-15 0)
(2 1.06011e-15 0)
(2 1.04716e-15 0)
(2 9.69444e-16 0)
(2 7.02728e-16 0)
(2 5.43452e-16 0)
(2 5.60491e-16 0)
(2 5.99645e-16 0)
(2 7.72264e-16 0)
(2 8.52219e-16 0)
(2 8.60826e-16 0)
(2 8.6425e-16 0)
(2 8.83523e-16 0)
(2 9.93133e-16 0)
(2 1.0189e-15 0)
(2 1.1237e-15 0)
(2 1.20961e-15 0)
(2 1.1529e-15 0)
(2 5.69073e-16 0)
(2 4.05475e-16 0)
(2 1.99303e-16 0)
(2 -3.44314e-18 0)
(2 1.03062e-17 0)
(2 5.15308e-17 0)
(2 1.34018e-16 0)
(2 2.52567e-16 0)
(2 -3.46392e-18 0)
(2 -1.16857e-16 0)
(2 -3.37618e-17 0)
(2 1.8916e-16 0)
(2 4.48404e-16 0)
(2 6.43393e-16 0)
(2 8.29849e-16 0)
(2 9.41524e-16 0)
(2 1.28427e-15 0)
(2 1.25747e-15 0)
(2 1.1116e-15 0)
(2 1.0798e-15 0)
(2 1.00509e-15 0)
(2 4.22622e-16 0)
(2 1.48534e-16 0)
(2 1.21947e-16 0)
(2 -3.95708e-17 0)
(2 -2.43397e-16 0)
(2 -4.2473e-16 0)
(2 -2.25861e-18 0)
(2 2.01766e-17 0)
(2 9.3447e-17 0)
(2 1.54624e-16 0)
(2 7.66082e-17 0)
(2 -4.65879e-17 0)
(2 -2.24814e-16 0)
(2 -2.7917e-16 0)
(2 -1.79485e-16 0)
(2 -8.76225e-17 0)
(2 -4.71955e-17 0)
(2 6.08163e-18 0)
(2 8.37295e-17 0)
(2 2.6925e-16 0)
(2 4.26405e-16 0)
(2 3.82686e-16 0)
(2 3.02054e-16 0)
(2 2.15871e-16 0)
(2 8.19241e-17 0)
(2 -1.92879e-18 0)
(2 -1.24676e-16 0)
(2 -1.74022e-16 0)
(2 -1.53008e-16 0)
(2 -1.5501e-16 0)
(2 -1.68399e-16 0)
(2 -1.42625e-16 0)
(2 2.44983e-17 0)
(2 2.35376e-16 0)
(2 2.58095e-16 0)
(2 3.07556e-16 0)
(2 3.08919e-16 0)
(2 2.83512e-16 0)
(2 2.83498e-16 0)
(2 2.88652e-16 0)
(2 2.71481e-16 0)
(2 2.17822e-16 0)
(2 1.71813e-16 0)
(2 9.62269e-17 0)
(2 1.16833e-16 0)
(2 -5.64785e-17 0)
(2 -6.55369e-17 0)
(2 5.03483e-18 0)
(2 3.90909e-16 0)
(2 5.708e-16 0)
(2 7.88072e-16 0)
(2 8.66224e-16 0)
(2 7.93414e-16 0)
(2 6.99224e-16 0)
(2 4.76276e-16 0)
(2 3.47264e-16 0)
(2 1.66412e-16 0)
(2 7.39575e-16 0)
(2 1.43258e-15 0)
(2 1.53067e-15 0)
(2 1.51748e-15 0)
(2 1.74876e-15 0)
(2 2.11296e-15 0)
(2 2.63696e-15 0)
(2 3.28329e-15 0)
(2 2.53734e-15 0)
(2 1.50808e-15 0)
(2 7.74515e-16 0)
(2 6.79953e-16 0)
(2 8.92898e-16 0)
(2 1.1939e-15 0)
(2 1.32809e-15 0)
(2 1.34687e-15 0)
(2 1.35729e-15 0)
(2 1.33826e-15 0)
(2 1.29147e-15 0)
(2 1.33648e-15 0)
(2 1.21584e-15 0)
(2 1.20028e-15 0)
(2 1.13549e-15 0)
(2 1.03199e-15 0)
(2 8.56847e-16 0)
(2 6.0687e-16 0)
(2 -5.64119e-17 0)
(2 -7.30237e-16 0)
(2 -7.45346e-16 0)
(2 -6.32798e-16 0)
(2 -5.67392e-16 0)
(2 -3.61241e-16 0)
(2 -2.16785e-16 0)
(2 -1.06725e-16 0)
(2 1.23862e-18 0)
(2 3.02152e-17 0)
(2 7.73307e-17 0)
(2 1.47346e-16 0)
(2 1.74964e-16 0)
(2 1.8881e-16 0)
(2 1.34315e-16 0)
(2 5.18313e-17 0)
(2 7.38873e-17 0)
(2 -1.38098e-18 0)
(2 -1.068e-16 0)
(2 -1.87539e-16 0)
(2 3.02968e-16 0)
(2 4.68142e-16 0)
(2 3.85104e-16 0)
(2 2.93273e-16 0)
(2 2.87676e-16 0)
(2 3.19328e-16 0)
(2 6.22555e-16 0)
(2 8.0663e-16 0)
(2 8.85102e-16 0)
(2 6.26951e-16 0)
(2 4.39287e-16 0)
(2 2.33383e-16 0)
(2 -2.36943e-16 0)
(2 -4.18483e-16 0)
(2 -5.41511e-16 0)
(2 -8.03579e-16 0)
(2 -9.18475e-16 0)
(2 -8.3658e-16 0)
(2 -7.36355e-16 0)
(2 -5.76007e-16 0)
(2 -4.85188e-16 0)
(2 -6.69592e-16 0)
(2 -9.40996e-16 0)
(2 -1.26013e-15 0)
(2 -1.66099e-15 0)
(2 -1.69341e-15 0)
(2 -1.61403e-15 0)
(2 -1.58151e-15 0)
(2 -1.58985e-15 0)
(2 -1.60805e-15 0)
(2 -1.42017e-15 0)
(2 -1.28571e-15 0)
(2 -1.28755e-15 0)
(2 -1.21056e-15 0)
(2 -1.15134e-15 0)
(2 2.00903e-17 0)
(2 3.2182e-17 0)
(2 8.61499e-18 0)
(2 -4.03549e-17 0)
(2 -2.92851e-17 0)
(2 2.74283e-17 0)
(2 6.5802e-17 0)
(2 2.61191e-16 0)
(2 -6.9443e-17 0)
(2 -2.22021e-16 0)
(2 -3.65958e-16 0)
(2 -1.46767e-16 0)
(2 1.66845e-16 0)
(2 2.33476e-16 0)
(2 2.72015e-16 0)
(2 5.50014e-16 0)
(2 6.93891e-16 0)
(2 7.49462e-16 0)
(2 7.4695e-16 0)
(2 8.86308e-16 0)
(2 6.31989e-16 0)
(2 2.02938e-16 0)
(2 -1.35433e-17 0)
(2 2.40738e-17 0)
(2 3.97414e-16 0)
(2 4.07194e-16 0)
(2 4.75951e-16 0)
(2 5.54965e-16 0)
(2 5.93036e-16 0)
(2 5.6871e-16 0)
(2 4.92321e-16 0)
(2 3.95634e-16 0)
(2 3.28157e-16 0)
(2 2.80444e-16 0)
(2 2.32413e-16 0)
(2 2.23357e-16 0)
(2 1.84232e-16 0)
(2 6.5751e-17 0)
(2 2.06131e-17 0)
(2 -6.26295e-17 0)
(2 -6.61939e-17 0)
(2 3.66622e-18 0)
(2 -1.94406e-17 0)
(2 -1.58247e-16 0)
(2 -2.25968e-16 0)
(2 -2.13869e-16 0)
(2 -1.78312e-16 0)
(2 -2.68772e-17 0)
(2 2.35227e-16 0)
(2 3.74521e-16 0)
(2 4.12974e-16 0)
(2 6.90414e-16 0)
(2 1.39556e-15 0)
(2 1.64835e-15 0)
(2 1.65211e-15 0)
(2 1.67564e-15 0)
(2 1.8744e-15 0)
(2 1.8652e-15 0)
(2 1.28359e-15 0)
(2 9.05287e-16 0)
(2 1.43911e-15 0)
(2 1.71371e-15 0)
(2 1.99637e-15 0)
(2 1.62743e-15 0)
(2 1.18567e-15 0)
(2 8.15567e-16 0)
(2 6.22264e-16 0)
(2 4.50448e-16 0)
(2 3.53889e-16 0)
(2 3.6964e-16 0)
(2 3.33398e-16 0)
(2 4.99755e-16 0)
(2 4.83397e-16 0)
(2 3.09321e-16 0)
(2 2.3e-16 0)
(2 1.74451e-16 0)
(2 5.29622e-17 0)
(2 -4.3245e-17 0)
(2 -4.05169e-17 0)
(2 8.01754e-17 0)
(2 1.67151e-16 0)
(2 2.53523e-16 0)
(2 -3.51825e-16 0)
(2 -5.84427e-16 0)
(2 -5.92792e-16 0)
(2 -5.69621e-16 0)
(2 -4.60793e-16 0)
(2 -3.66929e-16 0)
(2 -3.5673e-16 0)
(2 -3.48259e-16 0)
(2 -3.00262e-16 0)
(2 -2.37323e-16 0)
(2 -4.62489e-16 0)
(2 -5.14729e-16 0)
(2 -7.07685e-16 0)
(2 -9.59954e-16 0)
(2 -1.1516e-15 0)
(2 -1.31447e-15 0)
(2 -1.28317e-15 0)
(2 -1.15809e-15 0)
(2 -1.13576e-15 0)
(2 -8.93119e-16 0)
(2 -4.93483e-16 0)
(2 1.44318e-16 0)
(2 3.47434e-16 0)
(2 5.42953e-16 0)
(2 1.09103e-15 0)
(2 1.3639e-15 0)
(2 1.58191e-15 0)
(2 1.63241e-15 0)
(2 1.6269e-15 0)
(2 1.24018e-15 0)
(2 1.201e-15 0)
(2 1.18761e-15 0)
(2 1.24444e-15 0)
(2 1.18983e-15 0)
(2 1.02136e-15 0)
(2 7.29011e-16 0)
(2 4.18891e-16 0)
(2 2.92075e-16 0)
(2 1.60321e-16 0)
(2 -1.94491e-16 0)
(2 -3.32989e-16 0)
(2 -4.70274e-16 0)
(2 -5.07028e-16 0)
(2 -4.93473e-16 0)
(2 -4.0843e-16 0)
(2 9.10605e-17 0)
(2 4.32061e-16 0)
(2 5.53247e-16 0)
(2 5.18066e-16 0)
(2 3.9347e-16 0)
(2 3.69099e-19 0)
(2 4.66366e-18 0)
(2 -2.34874e-17 0)
(2 1.73296e-18 0)
(2 4.64054e-17 0)
(2 9.38386e-17 0)
(2 1.48746e-16 0)
(2 1.05921e-16 0)
(2 -9.22627e-17 0)
(2 -2.04251e-16 0)
(2 -5.73096e-17 0)
(2 -3.89945e-17 0)
(2 -2.41877e-16 0)
(2 -3.76294e-16 0)
(2 -3.79338e-16 0)
(2 -4.27448e-16 0)
(2 -2.38787e-16 0)
(2 -2.00735e-16 0)
(2 -1.13398e-16 0)
(2 -4.48555e-17 0)
(2 -7.88774e-17 0)
(2 -1.37087e-16 0)
(2 -2.01188e-16 0)
(2 -2.95543e-16 0)
(2 -2.95557e-16 0)
(2 -2.60028e-16 0)
(2 -1.69983e-16 0)
(2 -1.56212e-16 0)
(2 -1.486e-16 0)
(2 -1.8732e-16 0)
(2 -1.8297e-16 0)
(2 -1.40198e-16 0)
(2 -1.01388e-16 0)
(2 -7.10972e-17 0)
(2 -1.84867e-16 0)
(2 -2.30054e-16 0)
(2 -2.61816e-16 0)
(2 -2.58749e-16 0)
(2 -2.30262e-16 0)
(2 -2.07555e-16 0)
(2 -1.91083e-16 0)
(2 -3.17592e-16 0)
(2 -8.77698e-16 0)
(2 -1.54695e-15 0)
(2 -1.50832e-15 0)
(2 -1.42083e-15 0)
(2 -1.09783e-15 0)
(2 -2.96003e-16 0)
(2 2.45475e-16 0)
(2 2.35179e-16 0)
(2 4.28968e-16 0)
(2 8.00972e-16 0)
(2 1.00546e-15 0)
(2 1.10904e-15 0)
(2 1.32144e-15 0)
(2 1.24582e-15 0)
(2 9.10366e-16 0)
(2 2.81652e-16 0)
(2 1.2615e-16 0)
(2 1.50411e-16 0)
(2 4.55186e-16 0)
(2 7.92288e-16 0)
(2 9.66555e-16 0)
(2 8.61573e-16 0)
(2 7.79111e-16 0)
(2 5.70111e-16 0)
(2 2.75482e-16 0)
(2 1.7659e-16 0)
(2 1.79004e-16 0)
(2 2.49904e-16 0)
(2 2.63618e-16 0)
(2 5.15745e-16 0)
(2 6.30967e-16 0)
(2 7.77335e-16 0)
(2 8.9437e-16 0)
(2 9.37993e-16 0)
(2 1.00705e-15 0)
(2 1.08077e-15 0)
(2 1.01444e-15 0)
(2 1.12159e-15 0)
(2 1.21815e-15 0)
(2 3.97986e-16 0)
(2 1.07076e-16 0)
(2 -1.33399e-16 0)
(2 -2.74034e-16 0)
(2 -4.60481e-16 0)
(2 -6.32281e-16 0)
(2 -6.84846e-16 0)
(2 -7.46667e-16 0)
(2 -5.79944e-16 0)
(2 -2.82793e-16 0)
(2 -8.03753e-17 0)
(2 2.45702e-16 0)
(2 3.01382e-16 0)
(2 1.66045e-16 0)
(2 -8.99262e-17 0)
(2 -1.89536e-16 0)
(2 -3.52363e-16 0)
(2 -3.95792e-16 0)
(2 -5.06532e-16 0)
(2 -2.80198e-16 0)
(2 1.24846e-16 0)
(2 1.4013e-16 0)
(2 1.32163e-16 0)
(2 5.78038e-17 0)
(2 1.92329e-17 0)
(2 8.3243e-17 0)
(2 2.30869e-16 0)
(2 5.63181e-16 0)
(2 1.04093e-15 0)
(2 1.31232e-15 0)
(2 1.41849e-15 0)
(2 1.54454e-15 0)
(2 1.44956e-15 0)
(2 1.36018e-15 0)
(2 1.33148e-15 0)
(2 1.29803e-15 0)
(2 1.34551e-15 0)
(2 1.55687e-15 0)
(2 2.10482e-15 0)
(2 2.72526e-15 0)
(2 3.01565e-15 0)
(2 3.09904e-15 0)
(2 2.88312e-15 0)
(2 2.73195e-15 0)
(2 2.75581e-15 0)
(2 2.51499e-15 0)
(2 1.88252e-15 0)
(2 1.25945e-15 0)
(2 7.01224e-16 0)
(2 4.05399e-16 0)
(2 1.78787e-16 0)
(2 -3.03877e-17 0)
(2 -4.31662e-17 0)
(2 -3.24629e-17 0)
(2 1.03092e-16 0)
(2 1.99669e-16 0)
(2 1.80426e-16 0)
(2 1.09771e-16 0)
(2 2.1188e-17 0)
(2 -2.59524e-17 0)
(2 1.03279e-17 0)
(2 1.5521e-16 0)
(2 5.99547e-17 0)
(2 -5.5663e-17 0)
(2 -5.01923e-17 0)
(2 -1.25722e-16 0)
(2 -2.75596e-16 0)
(2 -5.17743e-16 0)
(2 -6.3154e-16 0)
(2 -7.59475e-16 0)
(2 -7.56095e-16 0)
(2 -7.07382e-16 0)
(2 -7.18895e-16 0)
(2 -7.86965e-16 0)
(2 -7.93895e-16 0)
(2 -6.97093e-16 0)
(2 -6.35161e-16 0)
(2 -6.47289e-16 0)
(2 -4.44625e-16 0)
(2 -2.81199e-16 0)
(2 -1.83544e-16 0)
(2 -1.35233e-16 0)
(2 -8.66905e-17 0)
(2 -8.21471e-17 0)
(2 -5.29623e-17 0)
(2 3.14963e-17 0)
(2 -6.36351e-17 0)
(2 -1.5949e-16 0)
(2 -1.38259e-16 0)
(2 -6.32599e-17 0)
(2 1.62925e-16 0)
(2 1.79568e-16 0)
(2 -6.97568e-17 0)
(2 -4.1696e-16 0)
(2 -3.46354e-16 0)
(2 -3.00957e-16 0)
(2 -2.33531e-16 0)
(2 -1.33782e-16 0)
(2 -1.05287e-16 0)
(2 -3.42738e-16 0)
(2 -3.34814e-16 0)
(2 -4.80552e-16 0)
(2 -6.54092e-16 0)
(2 -6.06238e-16 0)
(2 -4.22099e-16 0)
(2 -4.01933e-16 0)
(2 -7.91856e-16 0)
(2 -9.57486e-16 0)
(2 -1.05028e-15 0)
(2 -1.01185e-15 0)
(2 -9.52341e-16 0)
(2 -9.19676e-16 0)
(2 -8.57042e-16 0)
(2 -7.70185e-16 0)
(2 -5.77171e-16 0)
(2 -3.38929e-16 0)
(2 -1.74046e-16 0)
(2 5.31464e-16 0)
(2 9.74799e-16 0)
(2 1.42356e-15 0)
(2 1.82661e-15 0)
(2 1.77447e-15 0)
(2 1.73785e-15 0)
(2 1.68217e-15 0)
(2 1.63251e-15 0)
(2 1.63702e-15 0)
(2 1.46522e-15 0)
(2 1.3731e-15 0)
(2 1.21147e-15 0)
(2 9.75228e-16 0)
(2 7.63672e-16 0)
(2 5.06664e-16 0)
(2 3.21492e-16 0)
(2 1.33977e-16 0)
(2 4.62237e-17 0)
(2 1.63753e-17 0)
(2 -3.27401e-17 0)
(2 -1.23451e-16 0)
(2 -2.58567e-16 0)
(2 -5.4519e-16 0)
(2 -9.24018e-16 0)
(2 -6.90371e-16 0)
(2 -1.40795e-16 0)
(2 6.18426e-17 0)
(2 1.81386e-16 0)
(2 5.38824e-16 0)
(2 7.87497e-16 0)
(2 1.02296e-15 0)
(2 1.12058e-15 0)
(2 1.08343e-15 0)
(2 5.39408e-16 0)
(2 -2.78641e-16 0)
(2 -7.56986e-16 0)
(2 -7.81388e-16 0)
(2 -8.26197e-16 0)
(2 -8.41003e-16 0)
(2 -7.59586e-16 0)
(2 -6.53154e-16 0)
(2 -8.2069e-16 0)
(2 -1.0769e-15 0)
(2 -1.15678e-15 0)
(2 -7.77206e-16 0)
(2 -6.45622e-16 0)
(2 -3.43358e-16 0)
(2 -1.94929e-16 0)
(2 -1.51118e-16 0)
(2 -2.05442e-18 0)
(2 2.68427e-17 0)
(2 1.07165e-16 0)
(2 2.01693e-16 0)
(2 3.86808e-16 0)
(2 5.48762e-16 0)
(2 4.55988e-16 0)
(2 4.63177e-16 0)
(2 8.15055e-16 0)
(2 1.02297e-15 0)
(2 1.31261e-15 0)
(2 8.5576e-16 0)
(2 5.94284e-16 0)
(2 9.28872e-17 0)
(2 -1.99864e-16 0)
(2 -2.06263e-16 0)
(2 -1.2672e-16 0)
(2 1.03222e-17 0)
(2 -2.80448e-17 0)
(2 -1.71831e-17 0)
(2 -7.04601e-17 0)
(2 -9.7483e-17 0)
(2 -1.8175e-16 0)
(2 -1.06293e-16 0)
(2 1.16682e-16 0)
(2 2.14321e-16 0)
(2 1.97754e-16 0)
(2 1.42448e-16 0)
(2 1.74981e-16 0)
(2 2.83291e-16 0)
(2 2.76626e-16 0)
(2 2.03919e-16 0)
(2 7.75086e-17 0)
(2 -4.12411e-17 0)
(2 -1.37446e-16 0)
(2 -1.27145e-16 0)
(2 -8.45532e-17 0)
(2 1.09977e-16 0)
(2 1.66879e-16 0)
(2 2.62918e-16 0)
(2 2.8145e-16 0)
(2 2.79822e-16 0)
(2 1.70309e-16 0)
(2 1.29514e-16 0)
(2 1.50795e-16 0)
(2 1.75876e-16 0)
(2 2.48861e-16 0)
(2 2.05968e-16 0)
(2 9.3065e-17 0)
(2 -3.46741e-17 0)
(2 -3.49658e-17 0)
(2 4.01547e-17 0)
(2 1.23097e-16 0)
(2 1.16222e-16 0)
(2 -9.93785e-17 0)
(2 -2.13357e-16 0)
(2 -1.97916e-16 0)
(2 -1.42222e-16 0)
(2 -3.01658e-16 0)
(2 -4.35662e-16 0)
(2 -5.20195e-16 0)
(2 -3.90817e-16 0)
(2 -3.33454e-16 0)
(2 -6.40317e-16 0)
(2 -8.18845e-16 0)
(2 -1.0611e-15 0)
(2 -1.16762e-15 0)
(2 -1.03643e-15 0)
(2 -1.00271e-15 0)
(2 -9.78645e-16 0)
(2 -8.2455e-16 0)
(2 -8.12866e-16 0)
(2 -9.6164e-16 0)
(2 -9.98288e-16 0)
(2 -9.75975e-16 0)
(2 -9.62735e-16 0)
(2 -8.23133e-16 0)
(2 -8.07573e-16 0)
(2 -7.77158e-16 0)
(2 -6.75373e-16 0)
(2 -5.03086e-16 0)
(2 -1.99662e-16 0)
(2 1.31754e-16 0)
(2 2.95885e-16 0)
(2 3.86098e-16 0)
(2 4.38059e-16 0)
(2 4.26487e-16 0)
(2 3.93143e-16 0)
(2 2.3282e-16 0)
(2 1.66656e-17 0)
(2 -3.83065e-17 0)
(2 -5.6788e-17 0)
(2 -1.21989e-16 0)
(2 -4.24629e-16 0)
(2 -4.86083e-16 0)
(2 -4.35233e-16 0)
(2 -2.72173e-16 0)
(2 -1.70085e-16 0)
(2 -1.37984e-16 0)
(2 -9.69446e-17 0)
(2 1.69612e-18 0)
(2 1.55802e-16 0)
(2 3.24003e-16 0)
(2 4.92119e-16 0)
(2 6.71296e-16 0)
(2 8.84147e-16 0)
(2 6.20454e-16 0)
(2 -4.85968e-16 0)
(2 -7.46453e-16 0)
(2 -7.3115e-16 0)
(2 -4.52462e-16 0)
(2 4.25428e-17 0)
(2 6.07889e-16 0)
(2 7.04562e-16 0)
(2 7.32276e-16 0)
(2 8.35257e-16 0)
(2 7.84368e-16 0)
(2 4.47596e-16 0)
(2 -5.99454e-16 0)
(2 -1.13159e-15 0)
(2 -1.266e-15 0)
(2 -1.47917e-15 0)
(2 -1.41493e-15 0)
(2 -1.06322e-15 0)
(2 -8.17485e-16 0)
(2 -8.79008e-16 0)
(2 -9.97764e-16 0)
(2 -1.00322e-15 0)
(2 -1.02162e-15 0)
(2 -9.94512e-16 0)
(2 -9.65409e-16 0)
(2 -9.74929e-16 0)
(2 -9.11539e-16 0)
(2 -8.41694e-16 0)
(2 -6.43124e-16 0)
(2 -4.40186e-16 0)
(2 -3.27074e-16 0)
(2 -2.73894e-16 0)
(2 -8.27899e-17 0)
(2 -1.42353e-16 0)
(2 1.42114e-16 0)
(2 2.44853e-16 0)
(2 3.19511e-16 0)
(2 4.56171e-16 0)
(2 5.04294e-16 0)
(2 7.09535e-16 0)
(2 8.13777e-16 0)
(2 6.2723e-17 0)
(2 -1.80145e-16 0)
(2 1.60758e-17 0)
(2 1.12322e-16 0)
(2 1.41862e-16 0)
(2 1.02698e-16 0)
(2 -3.77871e-17 0)
(2 -3.64499e-17 0)
(2 2.14778e-16 0)
(2 2.93631e-16 0)
(2 2.06185e-16 0)
(2 3.43634e-17 0)
(2 -1.39361e-16 0)
(2 -2.25075e-16 0)
(2 -1.8828e-16 0)
(2 -1.57914e-16 0)
(2 -1.58281e-16 0)
(2 -2.09062e-16 0)
(2 -1.31958e-16 0)
(2 8.78965e-18 0)
(2 2.07759e-16 0)
(2 2.11609e-16 0)
(2 2.21659e-16 0)
(2 2.23743e-16 0)
(2 3.93595e-16 0)
(2 5.23847e-16 0)
(2 4.74227e-16 0)
(2 4.80732e-16 0)
(2 4.82918e-16 0)
(2 4.62803e-16 0)
(2 3.72858e-16 0)
(2 2.86958e-16 0)
(2 2.15575e-16 0)
(2 8.70765e-17 0)
(2 8.76411e-17 0)
(2 -5.53139e-17 0)
(2 -1.41458e-16 0)
(2 -1.95347e-16 0)
(2 -1.97933e-16 0)
(2 -2.49689e-16 0)
(2 -2.93797e-16 0)
(2 -2.05158e-16 0)
(2 1.51671e-16 0)
(2 3.31836e-16 0)
(2 1.56834e-16 0)
(2 -2.07897e-16 0)
(2 -3.09275e-16 0)
(2 -3.00265e-16 0)
(2 -4.49754e-16 0)
(2 -6.16628e-16 0)
(2 -7.83226e-16 0)
(2 -8.28184e-16 0)
(2 -8.33918e-16 0)
(2 -7.3533e-16 0)
(2 -7.0276e-16 0)
(2 -6.5009e-16 0)
(2 -5.76904e-16 0)
(2 1.01783e-16 0)
(2 2.78058e-16 0)
(2 4.42049e-16 0)
(2 4.60478e-16 0)
(2 4.52101e-16 0)
(2 4.76412e-16 0)
(2 5.05142e-16 0)
(2 4.65844e-16 0)
(2 4.54258e-16 0)
(2 3.37417e-16 0)
(2 3.11428e-16 0)
(2 2.86809e-16 0)
(2 2.39035e-16 0)
(2 2.13144e-16 0)
(2 2.25759e-16 0)
(2 5.39367e-17 0)
(2 -3.46334e-17 0)
(2 -8.08356e-17 0)
(2 -1.52893e-16 0)
(2 -1.92733e-16 0)
(2 -2.33199e-16 0)
(2 -2.0755e-16 0)
(2 -2.29335e-16 0)
(2 -1.9906e-16 0)
(2 1.37531e-17 0)
(2 1.42279e-17 0)
(2 7.5662e-18 0)
(2 8.59333e-17 0)
(2 1.31194e-16 0)
(2 1.51304e-16 0)
(2 1.89033e-16 0)
(2 2.65344e-16 0)
(2 4.88238e-16 0)
(2 6.2373e-16 0)
(2 2.94945e-16 0)
(2 -4.23143e-16 0)
(2 -6.23699e-16 0)
(2 -6.82943e-16 0)
(2 -8.02153e-16 0)
(2 -8.00689e-16 0)
(2 -4.35287e-16 0)
(2 -2.37827e-16 0)
(2 -1.12244e-16 0)
(2 -7.33976e-17 0)
(2 1.42882e-16 0)
(2 2.25333e-16 0)
(2 2.59962e-16 0)
(2 3.2935e-16 0)
(2 3.1051e-16 0)
(2 2.29045e-16 0)
(2 9.13411e-17 0)
(2 -1.43678e-16 0)
(2 -1.45607e-16 0)
(2 -3.81967e-16 0)
(2 -1.06922e-15 0)
(2 -1.15585e-15 0)
(2 -1.31497e-15 0)
(2 -1.64138e-15 0)
(2 -1.72113e-15 0)
(2 -1.50661e-15 0)
(2 -1.35844e-15 0)
(2 -1.01845e-15 0)
(2 -8.33831e-16 0)
(2 -3.31757e-16 0)
(2 -1.82287e-16 0)
(2 -7.43948e-17 0)
(2 1.81991e-16 0)
(2 4.45541e-16 0)
(2 4.76973e-16 0)
(2 5.44709e-16 0)
(2 6.59611e-16 0)
(2 7.99497e-16 0)
(2 1.16197e-15 0)
(2 1.50154e-15 0)
(2 1.4753e-15 0)
(2 1.30393e-15 0)
(2 1.11496e-15 0)
(2 -3.25233e-18 0)
(2 3.66866e-17 0)
(2 3.26729e-17 0)
(2 6.18564e-17 0)
(2 -3.20579e-18 0)
(2 -2.27148e-18 0)
(2 -2.42917e-17 0)
(2 -9.76104e-17 0)
(2 -6.82629e-17 0)
(2 8.24718e-17 0)
(2 1.22325e-16 0)
(2 1.259e-16 0)
(2 7.58274e-17 0)
(2 4.6568e-17 0)
(2 1.51014e-16 0)
(2 2.54307e-16 0)
(2 1.85382e-16 0)
(2 1.13226e-16 0)
(2 -8.26652e-17 0)
(2 -1.12847e-16 0)
(2 -1.69907e-16 0)
(2 -2.2509e-16 0)
(2 -2.73412e-16 0)
(2 1.6645e-16 0)
(2 2.92089e-16 0)
(2 3.21103e-16 0)
(2 3.04121e-16 0)
(2 2.62357e-16 0)
(2 2.0617e-16 0)
(2 1.20273e-16 0)
(2 1.235e-16 0)
(2 1.44343e-16 0)
(2 1.34022e-16 0)
(2 8.72372e-17 0)
(2 -7.73031e-17 0)
(2 -2.09631e-16 0)
(2 -3.45749e-16 0)
(2 -1.09949e-16 0)
(2 -2.40514e-17 0)
(2 -7.21492e-17 0)
(2 -1.48758e-16 0)
(2 2.14597e-16 0)
(2 7.02324e-16 0)
(2 9.77472e-16 0)
(2 9.3378e-16 0)
(2 8.58893e-16 0)
(2 7.57929e-16 0)
(2 7.16874e-16 0)
(2 6.98297e-16 0)
(2 6.70107e-16 0)
(2 6.34687e-16 0)
(2 5.523e-16 0)
(2 3.66193e-16 0)
(2 2.584e-16 0)
(2 2.12852e-16 0)
(2 4.26303e-16 0)
(2 5.23491e-16 0)
(2 6.93016e-16 0)
(2 9.08924e-16 0)
(2 8.65728e-16 0)
(2 7.74612e-16 0)
(2 5.10654e-16 0)
(2 4.72654e-16 0)
(2 4.67169e-16 0)
(2 4.96537e-16 0)
(2 5.11196e-16 0)
(2 2.73386e-16 0)
(2 1.11678e-16 0)
(2 8.83478e-17 0)
(2 7.0272e-17 0)
(2 3.60669e-17 0)
(2 -1.04084e-16 0)
(2 -3.74567e-16 0)
(2 -5.96229e-16 0)
(2 -7.41543e-16 0)
(2 -4.556e-16 0)
(2 -1.79094e-16 0)
(2 -8.76109e-17 0)
(2 1.42783e-17 0)
(2 1.52475e-17 0)
(2 -1.25833e-17 0)
(2 -1.21673e-16 0)
(2 -2.24713e-16 0)
(2 -3.0352e-16 0)
(2 -3.33664e-16 0)
(2 -5.09108e-16 0)
(2 -6.48272e-16 0)
(2 -6.9787e-16 0)
(2 -7.0273e-16 0)
(2 -5.98988e-16 0)
(2 -2.78148e-16 0)
(2 -2.78343e-16 0)
(2 -3.49145e-16 0)
(2 -5.61295e-16 0)
(2 -1.06145e-15 0)
(2 -1.54571e-15 0)
(2 -1.88445e-15 0)
(2 -1.60821e-15 0)
(2 -1.15115e-15 0)
(2 -1.02951e-15 0)
(2 -7.38784e-16 0)
(2 -5.37742e-16 0)
(2 -1.65895e-18 0)
(2 6.94204e-16 0)
(2 8.4198e-16 0)
(2 9.12052e-16 0)
(2 8.61054e-16 0)
(2 6.90786e-16 0)
(2 5.44021e-16 0)
(2 3.08073e-16 0)
(2 2.36965e-16 0)
(2 2.52651e-16 0)
(2 3.09338e-16 0)
(2 3.86668e-16 0)
(2 5.56401e-16 0)
(2 6.47823e-16 0)
(2 4.17739e-16 0)
(2 -1.34128e-16 0)
(2 -3.61086e-16 0)
(2 -3.44961e-16 0)
(2 -2.99087e-16 0)
(2 -1.68652e-16 0)
(2 -5.30386e-17 0)
(2 4.62595e-17 0)
(2 2.14687e-16 0)
(2 3.5282e-16 0)
(2 5.76815e-16 0)
(2 8.91789e-16 0)
(2 9.3645e-16 0)
(2 1.25587e-15 0)
(2 1.58595e-15 0)
(2 2.0967e-15 0)
(2 -1.47389e-17 0)
(2 -4.66859e-17 0)
(2 -5.74968e-17 0)
(2 -1.60479e-16 0)
(2 -4.68458e-17 0)
(2 -4.94461e-17 0)
(2 -8.05181e-17 0)
(2 -1.844e-16 0)
(2 -6.03211e-17 0)
(2 5.30688e-17 0)
(2 1.02541e-16 0)
(2 1.90354e-16 0)
(2 1.77074e-16 0)
(2 2.45715e-16 0)
(2 3.47729e-16 0)
(2 4.24484e-16 0)
(2 4.57425e-16 0)
(2 3.62529e-16 0)
(2 2.86732e-16 0)