/*--------------------------------*- C++ -*----------------------------------*\
  =========                 |
  \\      /  F ield         | OpenFOAM: The Open Source CFD Toolbox
   \\    /   O peration     | Website:  https://openfoam.org
    \\  /    A nd           | Version:  7
     \\/     M anipulation  |
\*---------------------------------------------------------------------------*/
FoamFile
{
    version     2.0;
    format      ascii;
    class       volVectorField;
    location    "38.5";
    object      U;
}
// * * * * * * * * * * * * * * * * * * * * * * * * * * * * * * * * * * * * * //

dimensions      [0 1 -1 0 0 0 0];

internalField   nonuniform List<vector> 
135168
(
(3 5.13708e-17 0)
(3 -4.42226e-17 0)
(3 -3.94599e-17 0)
(3 -1.07373e-16 0)
(3 -1.31582e-16 0)
(3 -1.06671e-16 0)
(3 -7.11487e-17 0)
(3 -1.07655e-16 0)
(3 -5.26069e-17 0)
(3 -2.5222e-17 0)
(3 -3.59879e-19 0)
(3 -6.88266e-17 0)
(3 -1.27633e-16 0)
(3 2.56582e-16 0)
(3 4.86323e-16 0)
(3 2.08538e-17 0)
(3 -1.96801e-16 0)
(3 -4.2083e-16 0)
(3 -6.83975e-16 0)
(3 -6.53672e-17 0)
(3 1.9595e-16 0)
(3 1.9418e-16 0)
(3 2.55789e-16 0)
(3 2.02078e-16 0)
(3 -2.22628e-16 0)
(3 -3.60507e-16 0)
(3 -3.24981e-16 0)
(3 3.02294e-17 0)
(3 4.75254e-16 0)
(3 3.7617e-16 0)
(3 7.05836e-16 0)
(3 1.85956e-15 0)
(3 2.27171e-15 0)
(3 1.83034e-15 0)
(3 1.47738e-15 0)
(3 1.19076e-15 0)
(3 8.92816e-16 0)
(3 6.25985e-16 0)
(3 -1.09654e-16 0)
(3 -3.50392e-16 0)
(3 -3.99285e-16 0)
(3 4.08729e-16 0)
(3 1.93716e-15 0)
(3 1.96431e-15 0)
(3 9.71031e-16 0)
(3 -1.40051e-15 0)
(3 -2.10354e-15 0)
(3 -2.11902e-15 0)
(3 -1.79825e-15 0)
(3 -8.85075e-16 0)
(3 -9.75138e-17 0)
(3 2.08885e-16 0)
(3 -5.04817e-16 0)
(3 -9.25252e-16 0)
(3 -9.96019e-16 0)
(3 -1.24239e-15 0)
(3 -1.31813e-15 0)
(3 -1.31674e-15 0)
(3 -9.21795e-16 0)
(3 -7.16823e-16 0)
(3 -5.45803e-16 0)
(3 -4.83525e-16 0)
(3 -5.19317e-16 0)
(3 -2.4421e-16 0)
(3 5.73904e-16 0)
(3 6.40554e-16 0)
(3 7.72563e-16 0)
(3 9.30214e-16 0)
(3 9.72937e-16 0)
(3 1.04913e-15 0)
(3 1.0949e-15 0)
(3 1.11417e-15 0)
(3 1.05168e-15 0)
(3 1.01232e-15 0)
(3 1.37669e-15 0)
(3 1.47778e-15 0)
(3 1.43582e-15 0)
(3 7.25373e-16 0)
(3 3.03281e-16 0)
(3 4.0051e-16 0)
(3 -4.22128e-16 0)
(3 -1.37435e-15 0)
(3 -1.70755e-15 0)
(3 -1.74185e-15 0)
(3 -1.18045e-15 0)
(3 -1.54061e-15 0)
(3 -1.82609e-15 0)
(3 -1.76978e-15 0)
(3 -1.86413e-15 0)
(3 -1.97286e-15 0)
(3 -1.9774e-15 0)
(3 -1.94114e-15 0)
(3 -1.30799e-15 0)
(3 -2.02418e-15 0)
(3 -2.60831e-15 0)
(3 -2.03622e-15 0)
(3 -9.19615e-16 0)
(3 -6.1614e-16 0)
(3 -3.22627e-16 0)
(3 -2.00494e-16 0)
(3 -3.13653e-16 0)
(3 -3.48265e-16 0)
(3 -5.44755e-16 0)
(3 -1.11909e-15 0)
(3 -1.47791e-15 0)
(3 -1.44345e-15 0)
(3 2.63497e-16 0)
(3 5.03703e-16 0)
(3 6.18845e-16 0)
(3 5.39362e-16 0)
(3 3.92018e-16 0)
(3 -7.46997e-16 0)
(3 -1.10291e-15 0)
(3 -1.3298e-15 0)
(3 -1.08208e-15 0)
(3 -9.12667e-16 0)
(3 -9.09505e-16 0)
(3 -8.56665e-16 0)
(3 -1.60786e-16 0)
(3 -3.60736e-17 0)
(3 2.15435e-16 0)
(3 2.20793e-16 0)
(3 1.78938e-16 0)
(3 1.48605e-15 0)
(3 1.84225e-15 0)
(3 2.28994e-15 0)
(3 1.75253e-15 0)
(3 1.55213e-15 0)
(3 3.81289e-16 0)
(3 -1.17331e-15 0)
(3 -1.65969e-15 0)
(3 -1.37708e-15 0)
(3 -1.09648e-15 0)
(3 -7.80021e-16 0)
(3 -2.73239e-16 0)
(3 5.05166e-16 0)
(3 7.33714e-16 0)
(3 6.68808e-16 0)
(3 -2.39865e-17 0)
(3 -6.93964e-16 0)
(3 -1.2623e-15 0)
(3 -1.86498e-15 0)
(3 -2.02875e-15 0)
(3 -2.07216e-15 0)
(3 -1.8543e-15 0)
(3 -1.58877e-15 0)
(3 -1.966e-15 0)
(3 -2.64074e-15 0)
(3 -2.86136e-15 0)
(3 -2.97628e-15 0)
(3 -2.56133e-15 0)
(3 -1.11376e-15 0)
(3 -6.81709e-16 0)
(3 -4.78939e-16 0)
(3 -1.7441e-16 0)
(3 -1.5312e-16 0)
(3 -1.64878e-16 0)
(3 -2.67643e-17 0)
(3 1.48722e-16 0)
(3 9.97496e-18 0)
(3 -2.13901e-16 0)
(3 1.76667e-16 0)
(3 7.35234e-17 0)
(3 -1.4122e-15 0)
(3 -2.64197e-15 0)
(3 -2.89667e-15 0)
(3 -2.96538e-15 0)
(3 -2.77997e-15 0)
(3 -2.53008e-15 0)
(3 -2.5211e-15 0)
(3 -2.34573e-15 0)
(3 -1.98116e-15 0)
(3 -1.49268e-15 0)
(3 -1.8777e-15 0)
(3 -2.23972e-15 0)
(3 -1.97105e-15 0)
(3 -1.87842e-15 0)
(3 -3.62391e-15 0)
(3 -4.43667e-15 0)
(3 -4.24718e-15 0)
(3 -2.64573e-15 0)
(3 -2.55977e-15 0)
(3 -2.88113e-15 0)
(3 -3.3385e-15 0)
(3 -4.24817e-15 0)
(3 -3.93691e-15 0)
(3 -3.76306e-15 0)
(3 -3.52139e-15 0)
(3 -3.52223e-15 0)
(3 -3.73046e-15 0)
(3 -3.91385e-15 0)
(3 -4.00883e-15 0)
(3 -3.86972e-15 0)
(3 -3.54812e-15 0)
(3 -3.48159e-15 0)
(3 -2.9025e-15 0)
(3 -2.37384e-15 0)
(3 -2.30134e-15 0)
(3 -3.20432e-15 0)
(3 -3.55924e-15 0)
(3 -3.70223e-15 0)
(3 -3.63107e-15 0)
(3 -3.20414e-15 0)
(3 -2.88319e-15 0)
(3 -2.42488e-15 0)
(3 -2.21297e-15 0)
(3 -2.26275e-15 0)
(3 -5.92708e-16 0)
(3 3.82571e-16 0)
(3 6.43777e-16 0)
(3 9.13e-16 0)
(3 9.7473e-16 0)
(3 8.16879e-16 0)
(3 5.75073e-16 0)
(3 4.26701e-16 0)
(3 2.58674e-16 0)
(3 -3.3839e-16 0)
(3 -7.73828e-16 0)
(3 -1.34032e-15 0)
(3 -8.64122e-16 0)
(3 -6.70657e-16 0)
(3 -5.72969e-16 0)
(3 -5.84485e-16 0)
(3 -6.21041e-16 0)
(3 -8.33131e-16 0)
(3 -8.11801e-16 0)
(3 -7.61997e-16 0)
(3 -9.94086e-16 0)
(3 -1.59071e-15 0)
(3 -1.98077e-15 0)
(3 -2.35387e-15 0)
(3 -1.80704e-15 0)
(3 -2.01643e-16 0)
(3 2.52505e-16 0)
(3 4.63328e-16 0)
(3 3.60687e-16 0)
(3 1.93583e-16 0)
(3 1.0696e-15 0)
(3 1.51159e-15 0)
(3 1.54813e-15 0)
(3 1.47199e-15 0)
(3 1.52216e-15 0)
(3 1.40781e-15 0)
(3 1.15534e-15 0)
(3 9.92999e-16 0)
(3 8.46278e-16 0)
(3 1.06999e-15 0)
(3 1.63988e-15 0)
(3 1.85849e-15 0)
(3 -1.0613e-15 0)
(3 -1.64396e-15 0)
(3 -1.84039e-15 0)
(3 -1.81226e-15 0)
(3 -1.83452e-15 0)
(3 -1.8165e-15 0)
(3 -1.8153e-15 0)
(3 -1.64371e-15 0)
(3 -1.7682e-15 0)
(3 -8.4977e-16 0)
(3 -5.91394e-16 0)
(3 -1.89037e-16 0)
(3 -9.867e-17 0)
(3 2.05397e-16 0)
(3 8.95512e-16 0)
(3 1.93597e-15 0)
(3 2.15217e-15 0)
(3 2.26101e-15 0)
(3 2.44912e-15 0)
(3 2.94614e-15 0)
(3 4.09348e-15 0)
(3 5.36377e-15 0)
(3 4.79497e-15 0)
(3 4.01988e-15 0)
(3 2.5628e-15 0)
(3 1.38381e-15 0)
(3 9.12434e-16 0)
(3 3.34432e-16 0)
(3 -4.42144e-16 0)
(3 -7.95922e-16 0)
(3 -8.53426e-16 0)
(3 -1.171e-15 0)
(3 -4.61505e-16 0)
(3 -1.14016e-15 0)
(3 6.89401e-17 0)
(3 4.11323e-16 0)
(3 4.69197e-16 0)
(3 1.23837e-15 0)
(3 1.53356e-15 0)
(3 1.5405e-15 0)
(3 1.0862e-15 0)
(3 1.0292e-15 0)
(3 1.17323e-15 0)
(3 -1.40491e-16 0)
(3 -5.04653e-16 0)
(3 -3.69101e-16 0)
(3 -3.69556e-17 0)
(3 3.91871e-17 0)
(3 1.32771e-16 0)
(3 9.89377e-16 0)
(3 1.03748e-15 0)
(3 -1.01993e-15 0)
(3 -1.65183e-15 0)
(3 -1.25727e-15 0)
(3 -8.01244e-16 0)
(3 -2.94723e-16 0)
(3 6.31596e-16 0)
(3 1.92283e-15 0)
(3 2.19762e-15 0)
(3 2.26564e-15 0)
(3 2.382e-15 0)
(3 1.92708e-15 0)
(3 1.78269e-15 0)
(3 1.4136e-15 0)
(3 1.16176e-15 0)
(3 1.08871e-15 0)
(3 1.60343e-15 0)
(3 3.8169e-15 0)
(3 5.79689e-15 0)
(3 3.71939e-15 0)
(3 6.70622e-16 0)
(3 -7.32103e-16 0)
(3 -1.12065e-15 0)
(3 -1.28502e-15 0)
(3 -1.31197e-15 0)
(3 -1.61681e-15 0)
(3 -3.03368e-15 0)
(3 -3.16026e-15 0)
(3 -2.88966e-15 0)
(3 -2.8642e-15 0)
(3 -2.95201e-15 0)
(3 -3.03793e-15 0)
(3 -2.98112e-15 0)
(3 -3.44887e-15 0)
(3 -4.22539e-15 0)
(3 -4.8691e-15 0)
(3 -4.98308e-15 0)
(3 -4.93865e-15 0)
(3 -4.8591e-15 0)
(3 -4.80108e-15 0)
(3 -4.87769e-15 0)
(3 -4.96673e-15 0)
(3 -4.32687e-15 0)
(3 -3.93262e-15 0)
(3 -3.11838e-15 0)
(3 -2.46125e-15 0)
(3 -2.99889e-15 0)
(3 -3.27957e-15 0)
(3 -2.75391e-15 0)
(3 -2.49759e-15 0)
(3 -2.3455e-15 0)
(3 -2.31301e-15 0)
(3 -1.45899e-15 0)
(3 -6.59611e-16 0)
(3 -5.79541e-16 0)
(3 -5.08357e-16 0)
(3 -6.34441e-16 0)
(3 -1.56792e-15 0)
(3 -3.56197e-15 0)
(3 -4.19271e-15 0)
(3 -4.0756e-15 0)
(3 -4.06195e-15 0)
(3 -5.06852e-15 0)
(3 -4.80742e-15 0)
(3 -2.4819e-15 0)
(3 -2.07356e-17 0)
(3 6.32884e-16 0)
(3 7.43312e-16 0)
(3 7.96101e-16 0)
(3 1.14068e-15 0)
(3 -9.41076e-16 0)
(3 -1.85739e-15 0)
(3 -2.09858e-15 0)
(3 -2.30718e-15 0)
(3 -2.47829e-15 0)
(3 -2.27019e-15 0)
(3 -1.70949e-15 0)
(3 -1.33531e-15 0)
(3 -9.67554e-16 0)
(3 -9.00849e-16 0)
(3 -9.18765e-16 0)
(3 -9.19028e-16 0)
(3 -1.09255e-15 0)
(3 -1.22042e-15 0)
(3 -3.65297e-16 0)
(3 1.78882e-17 0)
(3 9.54977e-18 0)
(3 3.16778e-18 0)
(3 -4.25499e-17 0)
(3 -2.12974e-16 0)
(3 -2.46054e-16 0)
(3 -1.69374e-16 0)
(3 -1.76879e-16 0)
(3 -2.47298e-16 0)
(3 -2.83299e-16 0)
(3 -2.54261e-16 0)
(3 -3.4331e-16 0)
(3 6.11914e-17 0)
(3 4.54206e-16 0)
(3 3.83034e-16 0)
(3 9.26219e-17 0)
(3 -3.35363e-16 0)
(3 -5.16432e-16 0)
(3 -6.32735e-16 0)
(3 -6.37095e-16 0)
(3 -6.59499e-16 0)
(3 6.69992e-17 0)
(3 5.63733e-16 0)
(3 8.42782e-16 0)
(3 3.02622e-16 0)
(3 -4.4544e-17 0)
(3 -2.12133e-17 0)
(3 1.46439e-16 0)
(3 2.54298e-16 0)
(3 1.5876e-15 0)
(3 2.03693e-15 0)
(3 2.33436e-15 0)
(3 2.70437e-15 0)
(3 1.81062e-15 0)
(3 1.41919e-15 0)
(3 1.41745e-15 0)
(3 1.33529e-15 0)
(3 9.95479e-16 0)
(3 8.21332e-16 0)
(3 5.81011e-16 0)
(3 5.5457e-16 0)
(3 5.89582e-16 0)
(3 7.78745e-16 0)
(3 5.6285e-16 0)
(3 4.79784e-17 0)
(3 -1.56763e-16 0)
(3 -1.41018e-16 0)
(3 -3.51261e-16 0)
(3 -1.01625e-15 0)
(3 -1.14449e-15 0)
(3 -1.04093e-15 0)
(3 -1.15222e-15 0)
(3 -1.59647e-15 0)
(3 -1.79079e-15 0)
(3 -1.84519e-15 0)
(3 -1.13872e-15 0)
(3 -9.06441e-16 0)
(3 5.0361e-16 0)
(3 9.57063e-16 0)
(3 -1.42744e-16 0)
(3 -8.24306e-16 0)
(3 -7.26604e-16 0)
(3 -4.91184e-16 0)
(3 -1.4931e-16 0)
(3 3.00154e-17 0)
(3 7.30423e-16 0)
(3 8.61503e-16 0)
(3 1.19897e-15 0)
(3 1.39534e-15 0)
(3 1.95489e-15 0)
(3 2.17962e-15 0)
(3 1.81621e-15 0)
(3 1.33003e-15 0)
(3 1.75496e-15 0)
(3 2.56632e-15 0)
(3 3.47719e-15 0)
(3 3.48389e-15 0)
(3 3.36341e-15 0)
(3 3.6707e-15 0)
(3 1.69545e-15 0)
(3 -1.02721e-15 0)
(3 -1.1888e-15 0)
(3 -1.45533e-15 0)
(3 -1.5655e-15 0)
(3 -1.47718e-15 0)
(3 -1.44852e-15 0)
(3 -1.62375e-15 0)
(3 -1.75752e-15 0)
(3 -2.2737e-15 0)
(3 -2.59712e-15 0)
(3 -2.6373e-15 0)
(3 -1.31311e-15 0)
(3 -3.67992e-16 0)
(3 -2.73548e-16 0)
(3 -3.26656e-16 0)
(3 -5.71128e-16 0)
(3 -7.12936e-16 0)
(3 -5.17668e-16 0)
(3 -6.35961e-17 0)
(3 2.04543e-16 0)
(3 5.29549e-16 0)
(3 1.43033e-15 0)
(3 2.20408e-15 0)
(3 2.16728e-15 0)
(3 2.02135e-15 0)
(3 2.05033e-15 0)
(3 2.1923e-15 0)
(3 3.09197e-15 0)
(3 3.81573e-15 0)
(3 2.25162e-15 0)
(3 1.3688e-15 0)
(3 9.93907e-16 0)
(3 8.12771e-16 0)
(3 6.75223e-16 0)
(3 7.84979e-16 0)
(3 1.16824e-15 0)
(3 1.49869e-15 0)
(3 1.84296e-15 0)
(3 2.94258e-15 0)
(3 3.1964e-15 0)
(3 3.47898e-15 0)
(3 3.67379e-15 0)
(3 3.94281e-15 0)
(3 4.4928e-15 0)
(3 5.21738e-15 0)
(3 5.48627e-15 0)
(3 4.84999e-15 0)
(3 4.46919e-15 0)
(3 3.69969e-15 0)
(3 2.9849e-15 0)
(3 2.57123e-15 0)
(3 2.07283e-15 0)
(3 4.99928e-16 0)
(3 -3.63114e-16 0)
(3 8.57797e-17 0)
(3 1.13308e-15 0)
(3 2.20958e-15 0)
(3 1.94856e-16 0)
(3 -5.62077e-16 0)
(3 -1.11647e-15 0)
(3 -1.49304e-15 0)
(3 -1.36216e-15 0)
(3 -1.2635e-15 0)
(3 -1.07496e-15 0)
(3 -7.77885e-16 0)
(3 -1.08032e-16 0)
(3 -1.04906e-16 0)
(3 -3.07586e-16 0)
(3 -4.44683e-16 0)
(3 -1.25858e-16 0)
(3 9.76191e-16 0)
(3 1.41149e-15 0)
(3 6.44784e-16 0)
(3 1.90661e-15 0)
(3 2.57316e-15 0)
(3 2.6797e-15 0)
(3 2.7307e-15 0)
(3 2.50581e-15 0)
(3 1.60348e-15 0)
(3 4.28686e-16 0)
(3 -3.15078e-17 0)
(3 -2.17088e-16 0)
(3 -2.13177e-16 0)
(3 -4.3853e-16 0)
(3 -1.85965e-15 0)
(3 -4.08406e-15 0)
(3 -4.33553e-15 0)
(3 -4.53772e-15 0)
(3 -4.50727e-15 0)
(3 -4.2435e-15 0)
(3 -4.60413e-15 0)
(3 -5.10526e-15 0)
(3 -5.28004e-15 0)
(3 -5.70309e-15 0)
(3 -6.24512e-15 0)
(3 -6.39402e-15 0)
(3 -7.52674e-15 0)
(3 -9.06274e-15 0)
(3 -9.26148e-15 0)
(3 -9.11206e-15 0)
(3 -8.61321e-15 0)
(3 -8.50372e-15 0)
(3 -8.32459e-15 0)
(3 -8.57042e-15 0)
(3 -9.45189e-15 0)
(3 -1.15724e-14 0)
(3 -1.13046e-14 0)
(3 -9.53756e-15 0)
(3 -8.55795e-15 0)
(3 -8.40518e-15 0)
(3 -7.78638e-15 0)
(3 -7.29808e-15 0)
(3 -7.09009e-15 0)
(3 -7.36549e-15 0)
(3 -6.12726e-15 0)
(3 -4.80795e-15 0)
(3 -4.62036e-15 0)
(3 -5.58733e-15 0)
(3 -5.99726e-15 0)
(3 -6.33277e-15 0)
(3 -5.66497e-15 0)
(3 -7.31658e-15 0)
(3 -6.91442e-15 0)
(3 -6.74614e-15 0)
(3 -6.30661e-15 0)
(3 -5.36422e-15 0)
(3 -1.83441e-15 0)
(3 -1.33633e-15 0)
(3 -1.03368e-15 0)
(3 -6.40232e-16 0)
(3 -4.5313e-16 0)
(3 1.29804e-15 0)
(3 2.61477e-15 0)
(3 2.5123e-15 0)
(3 1.18778e-15 0)
(3 7.66401e-16 0)
(3 1.51809e-15 0)
(3 6.88296e-16 0)
(3 -1.25464e-15 0)
(3 -1.31687e-15 0)
(3 -1.04611e-15 0)
(3 -8.56351e-16 0)
(3 -6.80274e-17 0)
(3 1.77199e-16 0)
(3 4.74088e-16 0)
(3 3.23216e-16 0)
(3 4.59576e-16 0)
(3 1.30487e-15 0)
(3 9.19201e-16 0)
(3 1.10898e-17 0)
(3 -5.57435e-16 0)
(3 -3.5408e-16 0)
(3 2.28581e-16 0)
(3 8.40101e-16 0)
(3 1.47551e-15 0)
(3 1.08638e-15 0)
(3 5.46896e-16 0)
(3 -2.98743e-16 0)
(3 8.55102e-16 0)
(3 4.94839e-15 0)
(3 5.76006e-15 0)
(3 4.03582e-15 0)
(3 2.69837e-15 0)
(3 8.95406e-16 0)
(3 6.95023e-16 0)
(3 8.67021e-16 0)
(3 1.38671e-15 0)
(3 1.78089e-15 0)
(3 1.63905e-15 0)
(3 6.25745e-16 0)
(3 -5.91258e-16 0)
(3 -6.42036e-16 0)
(3 -2.87238e-16 0)
(3 -7.46901e-16 0)
(3 -1.17357e-15 0)
(3 -1.4163e-15 0)
(3 -1.56001e-15 0)
(3 -1.53871e-15 0)
(3 -1.50341e-15 0)
(3 -1.61123e-15 0)
(3 -1.87678e-15 0)
(3 -2.14661e-15 0)
(3 -2.45776e-15 0)
(3 -1.58868e-15 0)
(3 3.53408e-16 0)
(3 2.0184e-15 0)
(3 2.13168e-15 0)
(3 2.69759e-15 0)
(3 3.1957e-15 0)
(3 3.21015e-15 0)
(3 3.94628e-15 0)
(3 5.10823e-15 0)
(3 3.88319e-15 0)
(3 2.75291e-15 0)
(3 1.81693e-15 0)
(3 7.88637e-16 0)
(3 2.13427e-16 0)
(3 5.80926e-17 0)
(3 2.23124e-16 0)
(3 3.34738e-16 0)
(3 5.11627e-16 0)
(3 1.93158e-16 0)
(3 1.19758e-16 0)
(3 -7.94614e-17 0)
(3 -6.99142e-16 0)
(3 -9.24822e-16 0)
(3 -6.81477e-16 0)
(3 -2.85516e-16 0)
(3 1.63934e-16 0)
(3 6.73847e-16 0)
(3 8.02773e-16 0)
(3 1.06132e-15 0)
(3 -1.7253e-16 0)
(3 -1.04374e-15 0)
(3 -1.75491e-15 0)
(3 -2.36003e-15 0)
(3 -2.62747e-15 0)
(3 -2.61746e-15 0)
(3 -2.68661e-15 0)
(3 -2.74342e-15 0)
(3 -3.27347e-15 0)
(3 -3.53532e-15 0)
(3 -2.31835e-15 0)
(3 -1.50978e-15 0)
(3 -4.62172e-16 0)
(3 -1.12238e-15 0)
(3 -1.72676e-15 0)
(3 -1.751e-15 0)
(3 -1.26607e-15 0)
(3 -8.8785e-16 0)
(3 -8.58056e-16 0)
(3 -1.18326e-15 0)
(3 -5.27077e-16 0)
(3 -2.81907e-16 0)
(3 3.12193e-16 0)
(3 1.64705e-15 0)
(3 2.33464e-15 0)
(3 2.18583e-15 0)
(3 1.19962e-15 0)
(3 5.32865e-16 0)
(3 -2.96599e-15 0)
(3 -5.89506e-15 0)
(3 -6.24287e-15 0)
(3 -6.42981e-15 0)
(3 -7.8779e-15 0)
(3 -9.62929e-15 0)
(3 -1.0299e-14 0)
(3 -6.54472e-15 0)
(3 -5.04523e-15 0)
(3 -4.1796e-15 0)
(3 -4.25163e-15 0)
(3 -4.50845e-15 0)
(3 -4.47477e-15 0)
(3 -4.99996e-15 0)
(3 -5.29329e-15 0)
(3 -5.24419e-15 0)
(3 -5.0782e-15 0)
(3 -5.94231e-15 0)
(3 -6.60505e-15 0)
(3 -6.54775e-15 0)
(3 -7.03305e-15 0)
(3 -7.14967e-15 0)
(3 -7.07642e-15 0)
(3 -6.95855e-15 0)
(3 -6.76772e-15 0)
(3 -6.6832e-15 0)
(3 -6.73663e-15 0)
(3 -7.09983e-15 0)
(3 -7.61012e-15 0)
(3 -6.51676e-15 0)
(3 -3.31598e-15 0)
(3 -5.45337e-16 0)
(3 -9.50854e-16 0)
(3 -1.2425e-15 0)
(3 -1.36353e-15 0)
(3 -1.47096e-15 0)
(3 -1.67559e-15 0)
(3 -2.6603e-15 0)
(3 -4.22718e-15 0)
(3 -4.91913e-15 0)
(3 -5.12125e-15 0)
(3 -4.97203e-15 0)
(3 -3.80098e-15 0)
(3 -1.75459e-15 0)
(3 -6.60672e-16 0)
(3 4.72314e-16 0)
(3 1.81528e-15 0)
(3 1.82999e-15 0)
(3 1.42634e-15 0)
(3 8.0221e-16 0)
(3 -3.51068e-16 0)
(3 -9.58393e-16 0)
(3 -1.40895e-15 0)
(3 -1.92381e-15 0)
(3 -2.35981e-15 0)
(3 -2.28397e-15 0)
(3 -1.85692e-15 0)
(3 -1.15682e-15 0)
(3 -8.90306e-16 0)
(3 -1.00385e-15 0)
(3 -6.48666e-16 0)
(3 -2.14804e-16 0)
(3 7.7157e-17 0)
(3 3.44648e-16 0)
(3 -1.34815e-17 0)
(3 2.70032e-17 0)
(3 9.60674e-18 0)
(3 -4.55293e-17 0)
(3 -9.57446e-17 0)
(3 -1.03135e-16 0)
(3 7.53152e-17 0)
(3 2.89264e-16 0)
(3 3.38915e-16 0)
(3 5.08042e-17 0)
(3 1.13032e-17 0)
(3 6.66001e-17 0)
(3 1.54557e-16 0)
(3 1.03413e-16 0)
(3 -8.81371e-17 0)
(3 5.38757e-16 0)
(3 5.83287e-16 0)
(3 3.71985e-16 0)
(3 1.53726e-16 0)
(3 8.52103e-17 0)
(3 7.76397e-18 0)
(3 -7.42516e-17 0)
(3 -9.8537e-17 0)
(3 1.58264e-16 0)
(3 1.27737e-16 0)
(3 -4.11433e-16 0)
(3 -5.79238e-16 0)
(3 -8.39538e-16 0)
(3 -9.07685e-16 0)
(3 -6.90811e-16 0)
(3 -1.7403e-16 0)
(3 -5.86378e-17 0)
(3 -5.40919e-17 0)
(3 9.68805e-17 0)
(3 3.08056e-16 0)
(3 8.20809e-16 0)
(3 4.71415e-16 0)
(3 2.32304e-16 0)
(3 -2.85955e-16 0)
(3 -5.93391e-16 0)
(3 -7.84278e-16 0)
(3 -9.03948e-16 0)
(3 -1.00901e-15 0)
(3 -1.29116e-15 0)
(3 -5.87934e-16 0)
(3 4.00779e-16 0)
(3 5.13045e-16 0)
(3 4.40814e-16 0)
(3 -4.83408e-17 0)
(3 -2.50302e-16 0)
(3 -4.98431e-16 0)
(3 -6.61566e-16 0)
(3 -5.8537e-16 0)
(3 -4.79355e-16 0)
(3 7.69752e-17 0)
(3 4.38959e-16 0)
(3 1.30857e-15 0)
(3 2.12692e-15 0)
(3 1.57315e-15 0)
(3 1.36034e-15 0)
(3 9.96696e-16 0)
(3 1.02037e-15 0)
(3 1.77698e-15 0)
(3 1.91903e-15 0)
(3 1.97792e-15 0)
(3 2.11733e-15 0)
(3 2.19711e-15 0)
(3 2.39923e-15 0)
(3 2.72721e-15 0)
(3 2.79469e-15 0)
(3 2.84628e-15 0)
(3 3.07703e-15 0)
(3 3.04393e-15 0)
(3 2.57209e-15 0)
(3 1.75923e-15 0)
(3 1.35422e-15 0)
(3 1.49738e-15 0)
(3 1.92212e-15 0)
(3 1.59119e-15 0)
(3 1.06585e-15 0)
(3 6.94614e-16 0)
(3 4.53997e-16 0)
(3 6.39598e-16 0)
(3 9.22325e-16 0)
(3 8.13599e-16 0)
(3 6.31167e-16 0)
(3 6.46933e-16 0)
(3 9.52767e-17 0)
(3 -1.3381e-16 0)
(3 -3.36493e-16 0)
(3 -5.20936e-16 0)
(3 -5.31264e-16 0)
(3 -2.09285e-16 0)
(3 -6.83646e-16 0)
(3 -6.66679e-16 0)
(3 -2.4853e-16 0)
(3 5.05204e-16 0)
(3 1.24099e-15 0)
(3 1.64718e-15 0)
(3 2.28442e-15 0)
(3 2.69868e-15 0)
(3 2.73217e-15 0)
(3 3.28896e-15 0)
(3 4.19642e-15 0)
(3 4.28067e-15 0)
(3 4.30028e-15 0)
(3 4.79901e-15 0)
(3 5.09991e-15 0)
(3 5.49932e-15 0)
(3 4.96047e-15 0)
(3 3.71251e-15 0)
(3 2.9719e-15 0)
(3 2.7972e-15 0)
(3 2.80369e-15 0)
(3 2.77015e-15 0)
(3 2.85694e-15 0)
(3 2.82955e-15 0)
(3 3.01875e-15 0)
(3 3.70158e-15 0)
(3 4.49921e-15 0)
(3 5.03016e-15 0)
(3 6.06811e-15 0)
(3 6.34196e-15 0)
(3 5.94108e-15 0)
(3 5.72164e-15 0)
(3 5.04843e-15 0)
(3 4.82993e-15 0)
(3 3.8872e-15 0)
(3 2.959e-15 0)
(3 2.63839e-15 0)
(3 1.95501e-15 0)
(3 1.62027e-15 0)
(3 1.69892e-15 0)
(3 3.04205e-15 0)
(3 2.9642e-15 0)
(3 1.56099e-15 0)
(3 2.60658e-16 0)
(3 5.39101e-17 0)
(3 5.16699e-16 0)
(3 1.62525e-15 0)
(3 1.97833e-15 0)
(3 1.71014e-15 0)
(3 1.91323e-15 0)
(3 2.36797e-15 0)
(3 4.22529e-15 0)
(3 5.32473e-15 0)
(3 5.98056e-15 0)
(3 6.01699e-15 0)
(3 5.37605e-15 0)
(3 5.19042e-15 0)
(3 5.05395e-15 0)
(3 4.41922e-15 0)
(3 3.3141e-15 0)
(3 2.23016e-15 0)
(3 1.6994e-15 0)
(3 1.64464e-15 0)
(3 1.9161e-15 0)
(3 1.72762e-15 0)
(3 1.17117e-15 0)
(3 1.0661e-15 0)
(3 4.88362e-16 0)
(3 -1.3688e-16 0)
(3 1.14157e-15 0)
(3 2.98933e-15 0)
(3 3.29471e-15 0)
(3 3.10579e-15 0)
(3 2.1984e-15 0)
(3 4.47874e-16 0)
(3 3.77753e-16 0)
(3 1.7609e-15 0)
(3 -5.36584e-16 0)
(3 -4.12322e-15 0)
(3 -5.68302e-15 0)
(3 -5.44429e-15 0)
(3 -5.58357e-15 0)
(3 -5.75749e-15 0)
(3 -5.78773e-15 0)
(3 -5.36074e-15 0)
(3 -5.32529e-15 0)
(3 -5.38536e-15 0)
(3 -5.68383e-15 0)
(3 -7.27452e-15 0)
(3 -7.70899e-15 0)
(3 -7.672e-15 0)
(3 -7.48608e-15 0)
(3 -7.1852e-15 0)
(3 -6.82049e-15 0)
(3 -6.32435e-15 0)
(3 -4.18565e-15 0)
(3 -3.59426e-15 0)
(3 -3.52648e-15 0)
(3 -3.9869e-15 0)
(3 -4.29844e-15 0)
(3 -4.4858e-15 0)
(3 -4.5219e-15 0)
(3 -4.64999e-15 0)
(3 -4.66987e-15 0)
(3 -4.30354e-15 0)
(3 -4.50285e-15 0)
(3 -4.21465e-15 0)
(3 -3.22609e-15 0)
(3 -2.39139e-15 0)
(3 -3.3448e-15 0)
(3 -5.85649e-15 0)
(3 -6.70725e-15 0)
(3 -5.14811e-15 0)
(3 -1.82435e-15 0)
(3 -6.23865e-16 0)
(3 -3.46378e-16 0)
(3 -4.80537e-16 0)
(3 -6.50876e-16 0)
(3 -9.44713e-16 0)
(3 -1.529e-15 0)
(3 -2.60455e-15 0)
(3 -2.09538e-15 0)
(3 -1.74259e-15 0)
(3 -1.22632e-15 0)
(3 -8.52947e-16 0)
(3 -1.35864e-15 0)
(3 -1.584e-15 0)
(3 -1.38448e-15 0)
(3 -7.37857e-16 0)
(3 -1.6612e-17 0)
(3 1.07215e-15 0)
(3 1.48759e-15 0)
(3 1.75931e-15 0)
(3 1.73696e-15 0)
(3 1.39924e-15 0)
(3 1.86398e-15 0)
(3 2.68076e-15 0)
(3 2.9921e-15 0)
(3 2.88046e-15 0)
(3 2.21354e-15 0)
(3 2.08264e-15 0)
(3 1.6985e-15 0)
(3 8.77713e-16 0)
(3 5.18034e-16 0)
(3 -2.05878e-16 0)
(3 -1.24797e-15 0)
(3 8.36876e-16 0)
(3 5.17527e-15 0)
(3 5.37983e-15 0)
(3 4.24125e-15 0)
(3 1.92041e-15 0)
(3 5.66801e-16 0)
(3 3.19568e-16 0)
(3 7.44407e-16 0)
(3 8.66866e-16 0)
(3 1.04427e-15 0)
(3 9.61222e-16 0)
(3 9.68512e-16 0)
(3 2.35781e-16 0)
(3 -2.90723e-16 0)
(3 -1.18476e-15 0)
(3 -2.01947e-15 0)
(3 -2.46096e-15 0)
(3 -2.48996e-15 0)
(3 -2.48392e-15 0)
(3 -2.44316e-15 0)
(3 -3.00243e-15 0)
(3 -3.73733e-15 0)
(3 -4.42825e-15 0)
(3 -4.6946e-15 0)
(3 -4.77523e-15 0)
(3 -5.2165e-15 0)
(3 -5.29395e-15 0)
(3 -4.79041e-15 0)
(3 -4.03604e-15 0)
(3 -3.13621e-15 0)
(3 -2.76662e-15 0)
(3 -2.73429e-15 0)
(3 -2.57393e-15 0)
(3 -2.48693e-15 0)
(3 -3.09629e-15 0)
(3 -4.33583e-15 0)
(3 -4.24614e-15 0)
(3 -3.65362e-15 0)
(3 -2.52445e-15 0)
(3 -2.128e-15 0)
(3 -2.23879e-15 0)
(3 -2.40627e-15 0)
(3 -2.33116e-15 0)
(3 -2.18607e-15 0)
(3 -2.31715e-15 0)
(3 -2.74793e-15 0)
(3 -2.86761e-15 0)
(3 -2.90413e-15 0)
(3 -2.44832e-15 0)
(3 -2.44256e-15 0)
(3 -1.80757e-15 0)
(3 -4.33809e-16 0)
(3 -1.76699e-16 0)
(3 1.0208e-16 0)
(3 9.48088e-17 0)
(3 -4.30661e-16 0)
(3 -1.57077e-15 0)
(3 -2.12625e-15 0)
(3 -4.32339e-15 0)
(3 -4.84403e-15 0)
(3 -4.65688e-15 0)
(3 -5.07181e-15 0)
(3 -6.32824e-15 0)
(3 -6.24332e-15 0)
(3 -4.57169e-15 0)
(3 -2.12046e-15 0)
(3 -2.86609e-15 0)
(3 -6.07633e-15 0)
(3 -7.4061e-15 0)
(3 -8.10298e-15 0)
(3 -6.90297e-15 0)
(3 -2.54695e-15 0)
(3 -2.44563e-16 0)
(3 -2.53457e-16 0)
(3 -1.00755e-15 0)
(3 -2.71299e-15 0)
(3 -3.6676e-15 0)
(3 -4.43606e-15 0)
(3 -4.19817e-15 0)
(3 -3.68235e-15 0)
(3 -4.50829e-15 0)
(3 -5.30442e-15 0)
(3 -5.73354e-15 0)
(3 -7.17348e-15 0)
(3 -7.86328e-15 0)
(3 -8.01641e-15 0)
(3 -7.99516e-15 0)
(3 -8.74931e-15 0)
(3 -6.96123e-15 0)
(3 -6.2457e-15 0)
(3 -5.67855e-15 0)
(3 -6.23383e-15 0)
(3 -8.20519e-15 0)
(3 -7.37607e-15 0)
(3 -3.12524e-15 0)
(3 -1.90759e-15 0)
(3 -1.7529e-15 0)
(3 -1.1952e-15 0)
(3 -2.21605e-15 0)
(3 -2.85414e-15 0)
(3 -3.65215e-15 0)
(3 -4.81731e-15 0)
(3 -5.2166e-15 0)
(3 -5.793e-15 0)
(3 -6.67142e-15 0)
(3 -7.31766e-15 0)
(3 -7.22379e-15 0)
(3 -7.12183e-15 0)
(3 -7.3294e-15 0)
(3 -7.65329e-15 0)
(3 -7.55498e-15 0)
(3 -6.85271e-15 0)
(3 -5.75625e-15 0)
(3 -5.33314e-15 0)
(3 -4.73421e-15 0)
(3 -3.63059e-15 0)
(3 -3.08763e-15 0)
(3 -2.83658e-15 0)
(3 -2.86546e-15 0)
(3 -3.24469e-15 0)
(3 -3.08521e-15 0)
(3 -2.64535e-15 0)
(3 -2.17737e-15 0)
(3 -8.52767e-16 0)
(3 -1.72938e-16 0)
(3 -4.9815e-16 0)
(3 -7.62721e-16 0)
(3 3.54013e-15 0)
(3 3.97041e-15 0)
(3 3.59088e-15 0)
(3 2.67562e-15 0)
(3 2.08083e-15 0)
(3 1.43557e-15 0)
(3 2.75523e-16 0)
(3 -7.45739e-16 0)
(3 -8.49351e-16 0)
(3 -6.64989e-16 0)
(3 -5.54851e-16 0)
(3 -8.18474e-16 0)
(3 -6.44426e-16 0)
(3 -3.9076e-16 0)
(3 -1.53548e-16 0)
(3 4.53475e-17 0)
(3 1.01462e-16 0)
(3 -1.69872e-16 0)
(3 -3.80244e-17 0)
(3 4.38681e-17 0)
(3 4.36587e-17 0)
(3 7.39491e-17 0)
(3 1.44582e-16 0)
(3 3.04958e-16 0)
(3 -7.15361e-18 0)
(3 -8.7875e-17 0)
(3 -1.2806e-16 0)
(3 -6.89008e-17 0)
(3 -1.70403e-16 0)
(3 -3.00423e-16 0)
(3 -5.08633e-16 0)
(3 -7.10189e-16 0)
(3 -6.43542e-16 0)
(3 -7.55231e-16 0)
(3 -1.88298e-16 0)
(3 9.61919e-17 0)
(3 2.90454e-16 0)
(3 3.02757e-16 0)
(3 4.22497e-16 0)
(3 4.75842e-16 0)
(3 1.4613e-16 0)
(3 -5.27406e-16 0)
(3 -6.52349e-16 0)
(3 -6.30998e-16 0)
(3 -4.51867e-16 0)
(3 -6.90715e-16 0)
(3 -1.20053e-15 0)
(3 -1.28749e-15 0)
(3 -1.33041e-15 0)
(3 -1.1699e-15 0)
(3 -8.66946e-16 0)
(3 -5.41255e-16 0)
(3 -4.43474e-16 0)
(3 -2.33297e-16 0)
(3 -3.30929e-16 0)
(3 -2.74165e-16 0)
(3 -9.8295e-17 0)
(3 -5.85886e-17 0)
(3 -3.57226e-16 0)
(3 -7.89422e-16 0)
(3 -9.37501e-16 0)
(3 -5.01431e-16 0)
(3 -2.70233e-16 0)
(3 -2.34746e-16 0)
(3 -2.33176e-16 0)
(3 -3.80508e-17 0)
(3 4.98959e-16 0)
(3 8.14413e-16 0)
(3 1.04175e-15 0)
(3 1.50232e-15 0)
(3 1.99608e-15 0)
(3 2.26657e-15 0)
(3 2.16008e-15 0)
(3 1.2382e-15 0)
(3 9.97423e-16 0)
(3 8.22953e-16 0)
(3 6.94919e-16 0)
(3 6.07526e-16 0)
(3 5.1311e-16 0)
(3 6.22852e-16 0)
(3 1.00548e-15 0)
(3 1.54205e-15 0)
(3 2.85352e-15 0)
(3 3.45665e-15 0)
(3 2.77012e-15 0)
(3 1.22033e-15 0)
(3 5.12238e-16 0)
(3 -1.36175e-16 0)
(3 -1.31411e-16 0)
(3 -5.51177e-17 0)
(3 -5.46853e-17 0)
(3 -4.16872e-16 0)
(3 -1.03139e-15 0)
(3 -1.06491e-15 0)
(3 -1.01612e-15 0)
(3 -1.03738e-15 0)
(3 -6.45908e-16 0)
(3 -6.83953e-16 0)
(3 -6.58267e-16 0)
(3 -1.15668e-15 0)
(3 -1.12542e-15 0)
(3 -1.06006e-15 0)
(3 -1.00007e-15 0)
(3 -3.91469e-16 0)
(3 4.91294e-16 0)
(3 8.39142e-16 0)
(3 1.03278e-15 0)
(3 1.85019e-15 0)
(3 1.98244e-15 0)
(3 1.46592e-15 0)
(3 1.06173e-15 0)
(3 8.14376e-16 0)
(3 9.82102e-16 0)
(3 1.27222e-15 0)
(3 1.64268e-15 0)
(3 2.16905e-15 0)
(3 2.29059e-15 0)
(3 2.50543e-15 0)
(3 3.01926e-15 0)
(3 3.20413e-15 0)
(3 3.30289e-15 0)
(3 3.84525e-15 0)
(3 3.9419e-15 0)
(3 4.23676e-15 0)
(3 5.49399e-15 0)
(3 6.40861e-15 0)
(3 6.92195e-15 0)
(3 7.3351e-15 0)
(3 6.13137e-15 0)
(3 5.85983e-15 0)
(3 5.59738e-15 0)
(3 5.34605e-15 0)
(3 5.02514e-15 0)
(3 4.45203e-15 0)
(3 4.28428e-15 0)
(3 4.24958e-15 0)
(3 4.05352e-15 0)
(3 3.66024e-15 0)
(3 2.29677e-15 0)
(3 8.04652e-16 0)
(3 9.23087e-16 0)
(3 1.12467e-15 0)
(3 1.28592e-15 0)
(3 1.50535e-15 0)
(3 1.22083e-15 0)
(3 6.62598e-16 0)
(3 4.55165e-16 0)
(3 5.01779e-16 0)
(3 1.42026e-15 0)
(3 2.46671e-15 0)
(3 2.74469e-15 0)
(3 2.90622e-15 0)
(3 3.4579e-15 0)
(3 3.73066e-15 0)
(3 4.3651e-15 0)
(3 4.98999e-15 0)
(3 5.74849e-15 0)
(3 5.87124e-15 0)
(3 6.09042e-15 0)
(3 5.62901e-15 0)
(3 5.53133e-15 0)
(3 5.27656e-15 0)
(3 4.83598e-15 0)
(3 5.03195e-15 0)
(3 5.46468e-15 0)
(3 6.08228e-15 0)
(3 5.41989e-15 0)
(3 2.9971e-15 0)
(3 1.40711e-15 0)
(3 -2.34288e-16 0)
(3 -4.99726e-16 0)
(3 -2.16969e-16 0)
(3 7.96051e-17 0)
(3 1.21327e-16 0)
(3 -4.16585e-16 0)
(3 -4.22261e-16 0)
(3 -2.68869e-16 0)
(3 -8.22932e-17 0)
(3 5.49109e-16 0)
(3 1.16949e-15 0)
(3 1.20046e-15 0)
(3 7.51719e-16 0)
(3 7.59769e-16 0)
(3 4.95842e-16 0)
(3 3.22129e-16 0)
(3 1.35517e-16 0)
(3 7.28844e-16 0)
(3 1.66955e-15 0)
(3 1.44637e-15 0)
(3 6.75916e-16 0)
(3 -2.03503e-16 0)
(3 -3.7205e-16 0)
(3 -3.85903e-16 0)
(3 -4.92236e-16 0)
(3 -8.4049e-16 0)
(3 -9.85821e-16 0)
(3 -1.49388e-15 0)
(3 -1.78999e-15 0)
(3 -1.88594e-15 0)
(3 -2.31217e-15 0)
(3 -2.55597e-15 0)
(3 -1.98367e-15 0)
(3 -8.12218e-16 0)
(3 -6.24895e-16 0)
(3 -6.82211e-17 0)
(3 4.41329e-17 0)
(3 -3.0405e-16 0)
(3 -7.7257e-16 0)
(3 -1.73145e-15 0)
(3 -2.45755e-15 0)
(3 -3.57949e-15 0)
(3 -4.52907e-15 0)
(3 -4.77531e-15 0)
(3 -4.6657e-15 0)
(3 -4.18042e-15 0)
(3 -3.11462e-15 0)
(3 -2.18067e-15 0)
(3 -2.15233e-15 0)
(3 -1.28739e-16 0)
(3 8.25142e-16 0)
(3 7.43769e-16 0)
(3 -1.99411e-16 0)
(3 -8.74297e-16 0)
(3 1.19638e-15 0)
(3 1.61221e-15 0)
(3 2.05379e-15 0)
(3 2.25481e-15 0)
(3 2.04366e-15 0)
(3 1.98057e-15 0)
(3 1.15316e-15 0)
(3 1.11605e-15 0)
(3 6.68845e-16 0)
(3 1.32489e-16 0)
(3 1.50468e-17 0)
(3 6.15268e-17 0)
(3 3.74528e-17 0)
(3 -1.013e-16 0)
(3 -2.66233e-16 0)
(3 -9.75081e-16 0)
(3 -1.58985e-15 0)
(3 -1.66009e-15 0)
(3 -1.67608e-15 0)
(3 -1.42592e-15 0)
(3 -1.15817e-15 0)
(3 -1.24008e-15 0)
(3 -2.27063e-15 0)
(3 -6.71439e-16 0)
(3 1.24975e-15 0)
(3 2.07234e-15 0)
(3 1.97047e-15 0)
(3 1.51276e-15 0)
(3 1.46853e-15 0)
(3 1.56757e-15 0)
(3 1.55116e-15 0)
(3 1.42434e-15 0)
(3 1.14801e-15 0)
(3 1.24623e-15 0)
(3 1.2071e-15 0)
(3 4.33719e-16 0)
(3 6.28233e-17 0)
(3 6.7674e-16 0)
(3 2.4713e-15 0)
(3 2.33918e-15 0)
(3 1.30818e-15 0)
(3 -6.52328e-16 0)
(3 -1.54369e-15 0)
(3 -1.90364e-15 0)
(3 -1.76079e-15 0)
(3 -2.5644e-15 0)
(3 -3.2641e-15 0)
(3 -4.03055e-15 0)
(3 -4.63239e-15 0)
(3 -4.8822e-15 0)
(3 -5.14405e-15 0)
(3 -5.327e-15 0)
(3 -6.45415e-15 0)
(3 -7.11963e-15 0)
(3 -7.4138e-15 0)
(3 -7.62424e-15 0)
(3 -7.95145e-15 0)
(3 -8.05913e-15 0)
(3 -8.42738e-15 0)
(3 -8.18795e-15 0)
(3 -8.96639e-15 0)
(3 -9.85364e-15 0)
(3 -1.04249e-14 0)
(3 -9.9497e-15 0)
(3 -8.37731e-15 0)
(3 -7.66448e-15 0)
(3 -7.54646e-15 0)
(3 -9.09882e-15 0)
(3 -1.04247e-14 0)
(3 -1.07388e-14 0)
(3 -9.58267e-15 0)
(3 -8.47291e-15 0)
(3 -6.86281e-15 0)
(3 -6.06576e-15 0)
(3 -5.53768e-15 0)
(3 -5.51578e-15 0)
(3 -5.80923e-15 0)
(3 -6.02997e-15 0)
(3 -6.00994e-15 0)
(3 -5.25378e-15 0)
(3 -5.08664e-15 0)
(3 -4.86403e-15 0)
(3 -4.76133e-15 0)
(3 -2.97031e-15 0)
(3 -1.87735e-15 0)
(3 -1.8753e-15 0)
(3 -9.18647e-16 0)
(3 -4.55314e-17 0)
(3 1.75761e-16 0)
(3 2.0319e-16 0)
(3 4.62764e-16 0)
(3 -6.20249e-16 0)
(3 -4.07744e-15 0)
(3 -5.77226e-15 0)
(3 -5.86412e-15 0)
(3 -5.55043e-15 0)
(3 -6.05827e-15 0)
(3 -6.73145e-15 0)
(3 -7.64435e-15 0)
(3 -7.80748e-15 0)
(3 -8.18545e-15 0)
(3 -8.80678e-15 0)
(3 -7.73944e-15 0)
(3 -5.19568e-15 0)
(3 -4.62369e-15 0)
(3 -4.26254e-15 0)
(3 -3.65416e-15 0)
(3 -4.69804e-15 0)
(3 -6.26561e-15 0)
(3 -6.39483e-15 0)
(3 -6.26296e-15 0)
(3 -5.67313e-15 0)
(3 -4.84752e-15 0)
(3 -4.44509e-15 0)
(3 -3.56497e-15 0)
(3 -4.63836e-15 0)
(3 -5.94788e-15 0)
(3 -6.19175e-15 0)
(3 -5.58907e-15 0)
(3 -4.67752e-15 0)
(3 -4.19583e-15 0)
(3 -3.43112e-15 0)
(3 -4.27e-15 0)
(3 -4.67472e-15 0)
(3 -4.4943e-15 0)
(3 -4.37904e-15 0)
(3 -4.43723e-15 0)
(3 -4.69328e-15 0)
(3 -4.85233e-15 0)
(3 -5.08587e-15 0)
(3 -5.31813e-15 0)
(3 -5.0905e-15 0)
(3 -4.94512e-15 0)
(3 -4.79342e-15 0)
(3 -4.58431e-15 0)
(3 -4.51216e-15 0)
(3 -4.31967e-15 0)
(3 -4.07367e-15 0)
(3 -3.64314e-15 0)
(3 -3.30315e-15 0)
(3 -3.19542e-15 0)
(3 -3.35954e-15 0)
(3 -4.33448e-15 0)
(3 -4.68302e-15 0)
(3 -5.54136e-15 0)
(3 -6.38538e-15 0)
(3 -6.53905e-15 0)
(3 -5.6838e-15 0)
(3 -5.59862e-15 0)
(3 -5.04459e-15 0)
(3 -2.98976e-15 0)
(3 -2.66354e-15 0)
(3 -2.19664e-15 0)
(3 -2.13943e-15 0)
(3 -2.26197e-15 0)
(3 -2.55342e-15 0)
(3 -9.67784e-16 0)
(3 1.46614e-16 0)
(3 1.04928e-16 0)
(3 4.45326e-16 0)
(3 1.66701e-15 0)
(3 1.72755e-15 0)
(3 1.39017e-15 0)
(3 6.8664e-16 0)
(3 1.81852e-16 0)
(3 5.72634e-16 0)
(3 2.99955e-15 0)
(3 4.69736e-15 0)
(3 2.13403e-15 0)
(3 1.30254e-15 0)
(3 -8.13056e-16 0)
(3 -1.93921e-15 0)
(3 -2.28727e-15 0)
(3 -2.40391e-15 0)
(3 -2.48663e-15 0)
(3 -2.74815e-15 0)
(3 -3.53048e-15 0)
(3 -2.79294e-15 0)
(3 -6.61586e-16 0)
(3 3.81493e-17 0)
(3 1.54836e-17 0)
(3 1.85808e-17 0)
(3 1.09415e-16 0)
(3 1.35822e-16 0)
(3 1.9271e-16 0)
(3 8.22686e-17 0)
(3 -4.98633e-16 0)
(3 -5.75426e-16 0)
(3 -6.23015e-16 0)
(3 -7.74062e-16 0)
(3 -9.03379e-16 0)
(3 -9.27625e-16 0)
(3 -8.74279e-16 0)
(3 -8.73138e-16 0)
(3 -8.68107e-16 0)
(3 -7.76629e-16 0)
(3 -7.88618e-16 0)
(3 -8.51586e-16 0)
(3 -1.03233e-15 0)
(3 -1.03875e-15 0)
(3 -8.34877e-16 0)
(3 -7.49183e-16 0)
(3 -6.89837e-16 0)
(3 -5.17595e-16 0)
(3 -3.1984e-16 0)
(3 9.14546e-17 0)
(3 4.37891e-16 0)
(3 4.72473e-16 0)
(3 2.59949e-17 0)
(3 -3.38427e-16 0)
(3 -6.17262e-16 0)
(3 -5.75992e-16 0)
(3 1.43604e-16 0)
(3 3.09845e-16 0)
(3 3.22274e-16 0)
(3 1.93212e-16 0)
(3 1.59777e-16 0)
(3 5.67069e-16 0)
(3 9.82243e-16 0)
(3 9.70472e-16 0)
(3 8.71549e-16 0)
(3 8.04886e-16 0)
(3 6.52612e-16 0)
(3 4.62896e-16 0)
(3 3.92337e-17 0)
(3 -2.28772e-17 0)
(3 1.21007e-16 0)
(3 7.25725e-16 0)
(3 1.28054e-15 0)