/*--------------------------------*- C++ -*----------------------------------*\
  =========                 |
  \\      /  F ield         | OpenFOAM: The Open Source CFD Toolbox
   \\    /   O peration     | Website:  https://openfoam.org
    \\  /    A nd           | Version:  7
     \\/     M anipulation  |
\*---------------------------------------------------------------------------*/
FoamFile
{
    version     2.0;
    format      ascii;
    class       volVectorField;
    location    "5";
    object      U;
}
// * * * * * * * * * * * * * * * * * * * * * * * * * * * * * * * * * * * * * //

dimensions      [0 1 -1 0 0 0 0];

internalField   nonuniform List<vector> 
2413
(
(1.4 -1.1331e-15 0)
(1.4 -2.14245e-15 0)
(1.4 -2.52614e-15 0)
(1.4 -2.82073e-15 0)
(1.4 -2.81842e-15 0)
(1.4 -2.65654e-15 0)
(1.4 -2.64284e-15 0)
(1.4 -2.54155e-15 0)
(1.4 -2.30522e-15 0)
(1.4 -1.97791e-15 0)
(1.4 -1.72215e-15 0)
(1.4 -1.6823e-15 0)
(1.4 -1.60717e-15 0)
(1.4 -1.33199e-15 0)
(1.4 -1.09169e-15 0)
(1.4 -8.14602e-16 0)
(1.4 -7.11781e-16 0)
(1.4 -4.21028e-16 0)
(1.4 -2.64248e-16 0)
(1.4 -2.49602e-16 0)
(1.4 -2.10806e-16 0)
(1.4 -4.4028e-16 0)
(1.4 -6.20258e-16 0)
(1.4 -1.00891e-15 0)
(1.4 -1.35788e-15 0)
(1.4 -2.05744e-15 0)
(1.4 -2.52634e-15 0)
(1.4 -3.12758e-15 0)
(1.4 -3.55391e-15 0)
(1.4 -4.04154e-15 0)
(1.4 -4.33658e-15 0)
(1.4 -4.51858e-15 0)
(1.4 -4.36912e-15 0)
(1.4 -4.28266e-15 0)
(1.4 -4.17351e-15 0)
(1.4 -3.98456e-15 0)
(1.4 -3.92314e-15 0)
(1.4 -3.79451e-15 0)
(1.4 -3.48655e-15 0)
(1.4 -3.10336e-15 0)
(1.4 -2.78867e-15 0)
(1.4 -2.76086e-15 0)
(1.4 -2.64516e-15 0)
(1.4 -2.52097e-15 0)
(1.4 -2.58847e-15 0)
(1.4 -2.58727e-15 0)
(1.4 -2.53934e-15 0)
(1.4 -2.5178e-15 0)
(1.4 -2.62382e-15 0)
(1.4 -2.43052e-15 0)
(1.4 -1.96578e-15 0)
(1.4 -1.45266e-15 0)
(1.4 -9.92392e-16 0)
(1.4 -6.74402e-16 0)
(1.4 -6.8968e-16 0)
(1.4 -1.81546e-16 0)
(1.4 7.5172e-18 0)
(1.4 5.04366e-16 0)
(1.4 6.40953e-16 0)
(1.4 4.43944e-16 0)
(1.4 2.60527e-16 0)
(1.4 1.61167e-16 0)
(1.4 -4.81468e-16 0)
(1.4 -6.98505e-16 0)
(1.4 -7.65246e-16 0)
(1.4 -7.84246e-16 0)
(1.4 -1.15119e-15 0)
(1.4 -1.38279e-15 0)
(1.4 -1.66954e-15 0)
(1.4 -1.74303e-15 0)
(1.4 -1.61187e-15 0)
(1.4 -1.42479e-15 0)
(1.4 -1.08416e-15 0)
(1.4 -9.29641e-16 0)
(1.4 -8.38843e-16 0)
(1.4 -5.92527e-16 0)
(1.4 -5.25708e-16 0)
(1.4 -4.11634e-16 0)
(1.4 -2.41717e-16 0)
(1.4 -2.5602e-16 0)
(1.4 -4.01742e-16 0)
(1.4 -1.06801e-16 0)
(1.4 5.44045e-17 0)
(1.4 -1.16186e-16 0)
(1.4 -2.21831e-16 0)
(1.4 -2.11693e-16 0)
(1.4 -2.59305e-16 0)
(1.4 -2.8102e-16 0)
(1.4 -1.1027e-16 0)
(1.4 -2.08591e-17 0)
(1.4 -8.11027e-18 0)
(1.4 -3.98498e-16 0)
(1.4 -6.14193e-16 0)
(1.4 -9.16886e-16 0)
(1.4 -1.13217e-15 0)
(1.4 -9.92985e-16 0)
(1.4 -9.38777e-16 0)
(1.4 -7.9392e-16 0)
(1.4 -6.37673e-16 0)
(1.4 -1.65378e-16 0)
(1.4 3.80384e-16 0)
(1.4 4.92572e-16 0)
(1.4 5.17215e-16 0)
(1.4 3.46058e-16 0)
(1.4 -1.44832e-16 0)
(1.4 -7.10188e-16 0)
(1.4 -1.17113e-15 0)
(1.4 -1.58343e-15 0)
(1.4 -2.00769e-15 0)
(1.4 -2.16256e-15 0)
(1.4 -2.71128e-15 0)
(1.4 -3.10039e-15 0)
(1.4 -3.29016e-15 0)
(1.4 -3.39069e-15 0)
(1.4 -3.49508e-15 0)
(1.4 -3.4834e-15 0)
(1.4 -3.32882e-15 0)
(1.4 -2.99501e-15 0)
(1.4 -2.51785e-15 0)
(1.4 -1.92592e-15 0)
(1.4 -1.81107e-15 0)
(1.4 -1.30065e-15 0)
(1.4 -1.01241e-15 0)
(1.4 -8.73212e-16 0)
(1.4 -9.26607e-16 0)
(1.4 -6.93803e-16 0)
(1.4 -5.60778e-16 0)
(1.4 -3.81021e-16 0)
(1.4 -3.27944e-16 0)
(1.4 -4.02765e-16 0)
(1.4 -3.91138e-16 0)
(1.4 -5.67405e-16 0)
(1.4 -9.93696e-16 0)
(1.4 -9.61315e-16 0)
(1.4 -9.36012e-16 0)
(1.4 -8.88319e-16 0)
(1.4 -8.42319e-16 0)
(1.4 -9.0815e-16 0)
(1.4 -7.84464e-16 0)
(1.4 -5.63287e-16 0)
(1.4 -2.82855e-16 0)
(1.4 -1.41213e-16 0)
(1.4 -2.03672e-16 0)
(1.4 -1.71416e-16 0)
(1.4 -4.39895e-17 0)
(1.4 1.04276e-16 0)
(1.4 2.63252e-16 0)
(1.4 4.0269e-16 0)
(1.4 5.38186e-16 0)
(1.4 6.23637e-16 0)
(1.4 5.29723e-16 0)
(1.4 3.99036e-16 0)
(1.4 2.65121e-17 0)
(1.4 -5.03488e-16 0)
(1.4 -1.06843e-15 0)
(1.4 -1.49384e-15 0)
(1.4 -2.08876e-15 0)
(1.4 -2.68728e-15 0)
(1.4 -3.55658e-15 0)
(1.4 -4.3113e-15 0)
(1.4 -4.70728e-15 0)
(1.4 -5.03597e-15 0)
(1.4 -5.38845e-15 0)
(1.4 -5.65589e-15 0)
(1.4 -6.16596e-15 0)
(1.4 -6.47395e-15 0)
(1.4 -6.60376e-15 0)
(1.4 -6.46715e-15 0)
(1.4 -6.14353e-15 0)
(1.4 -5.81536e-15 0)
(1.4 -5.49582e-15 0)
(1.4 -5.04199e-15 0)
(1.4 -4.54894e-15 0)
(1.4 -4.3145e-15 0)
(1.4 -4.21371e-15 0)
(1.4 -4.12954e-15 0)
(1.4 -3.91074e-15 0)
(1.4 -3.69073e-15 0)
(1.4 -3.30004e-15 0)
(1.4 -2.84932e-15 0)
(1.4 -2.47763e-15 0)
(1.4 -1.90698e-15 0)
(1.4 -1.17823e-15 0)
(1.4 -7.61239e-16 0)
(1.4 -2.64145e-16 0)
(1.4 8.3207e-17 0)
(1.4 3.06203e-16 0)
(1.4 7.32029e-16 0)
(1.4 8.74115e-16 0)
(1.4 7.49096e-16 0)
(1.4 2.76522e-16 0)
(1.4 -2.17883e-16 0)
(1.4 -1.12445e-15 0)
(1.4 -1.36855e-15 0)
(1.4 -1.17001e-15 0)
(1.4 -1.1728e-15 0)
(1.4 -1.16627e-15 0)
(1.4 -1.34287e-15 0)
(1.4 -1.38287e-15 0)
(1.4 -1.24892e-15 0)
(1.4 -1.17046e-15 0)
(1.4 -1.02038e-15 0)
(1.4 -6.65135e-16 0)
(1.4 -3.22682e-16 0)
(1.4 4.51634e-17 0)
(1.4 1.5926e-16 0)
(1.4 -2.97272e-16 0)
(1.4 -2.50285e-16 0)
(1.4 -2.00937e-16 0)
(1.4 -1.93101e-16 0)
(1.4 -1.78118e-16 0)
(1.4 -1.6549e-16 0)
(1.4 -1.52476e-16 0)
(1.4 -2.59406e-16 0)
(1.4 -3.08481e-16 0)
(1.4 -5.14449e-16 0)
(1.4 -7.57483e-16 0)
(1.4 -9.85985e-16 0)
(1.4 -9.25113e-16 0)
(1.4 -1.10829e-15 0)
(1.4 -1.17581e-15 0)
(1.4 -1.0919e-15 0)
(1.4 -1.27171e-15 0)
(1.4 -1.42364e-15 0)
(1.4 -1.64556e-15 0)
(1.4 -1.53603e-15 0)
(1.4 -7.82155e-16 0)
(1.4 -5.05665e-16 0)
(1.4 -4.77986e-16 0)
(1.4 -4.37549e-16 0)
(1.4 -4.382e-16 0)
(1.4 -2.98114e-16 0)
(1.4 -2.35849e-16 0)
(1.4 -3.0004e-16 0)
(1.4 -1.34024e-16 0)
(1.4 -1.28101e-16 0)
(1.4 -2.74301e-16 0)
(1.4 -6.30275e-16 0)
(1.4 -8.90077e-16 0)
(1.4 -1.40544e-15 0)
(1.4 -2.02537e-15 0)
(1.4 -2.39496e-15 0)
(1.4 -2.76608e-15 0)
(1.4 -2.94079e-15 0)
(1.4 -3.13964e-15 0)
(1.4 -3.25777e-15 0)
(1.4 -3.27591e-15 0)
(1.4 -3.24875e-15 0)
(1.4 -3.10759e-15 0)
(1.4 -3.02913e-15 0)
(1.4 -2.83181e-15 0)
(1.4 -2.69393e-15 0)
(1.4 -2.66012e-15 0)
(1.4 -2.50729e-15 0)
(1.4 -2.42741e-15 0)
(1.4 -2.26651e-15 0)
(1.4 -2.17579e-15 0)
(1.4 -2.02103e-15 0)
(1.4 -1.67148e-15 0)
(1.4 -1.20703e-15 0)
(1.4 -7.76727e-16 0)
(1.4 -5.69199e-16 0)
(1.4 -3.70267e-16 0)
(1.4 -3.09732e-16 0)
(1.4 -5.87165e-17 0)
(1.4 1.45817e-16 0)
(1.4 4.93124e-16 0)
(1.4 6.80295e-16 0)
(1.4 5.8333e-16 0)
(1.4 3.2934e-16 0)
(1.4 2.50734e-16 0)
(1.4 2.566e-16 0)
(1.4 3.27691e-16 0)
(1.4 5.31589e-16 0)
(1.4 6.83971e-16 0)
(1.4 9.74804e-16 0)
(1.4 9.56466e-16 0)
(1.4 1.07362e-15 0)
(1.4 1.3731e-15 0)
(1.4 1.33961e-15 0)
(1.4 1.31236e-15 0)
(1.4 1.1571e-15 0)
(1.4 6.74367e-16 0)
(1.4 2.77756e-16 0)
(1.4 -5.64495e-16 0)
(1.4 -1.24049e-15 0)
(1.4 -2.09644e-15 0)
(1.4 -2.81756e-15 0)
(1.4 -3.39191e-15 0)
(1.4 -4.32628e-15 0)
(1.4 -5.08225e-15 0)
(1.4 -5.72931e-15 0)
(1.4 -6.16048e-15 0)
(1.4 -6.43166e-15 0)
(1.4 -7.12312e-15 0)
(1.4 -7.29461e-15 0)
(1.4 -7.38591e-15 0)
(1.4 -7.40843e-15 0)
(1.4 -7.4316e-15 0)
(1.4 -7.45648e-15 0)
(1.4 -7.28939e-15 0)
(1.4 -6.9876e-15 0)
(1.4 -6.46178e-15 0)
(1.4 -6.03759e-15 0)
(1.4 -5.49054e-15 0)
(1.4 -4.97078e-15 0)
(1.4 -4.72835e-15 0)
(1.4 -4.29439e-15 0)
(1.4 -3.3199e-15 0)
(1.4 -2.89353e-15 0)
(1.4 -2.18085e-15 0)
(1.4 -1.66604e-15 0)
(1.4 -1.16913e-15 0)
(1.4 -1.12211e-15 0)
(1.4 -7.79499e-16 0)
(1.4 -6.25367e-16 0)
(1.4 -1.55707e-16 0)
(1.4 -4.44576e-17 0)
(1.4 3.24572e-16 0)
(1.4 6.91914e-16 0)
(1.4 1.04374e-15 0)
(1.4 1.13522e-15 0)
(1.4 -1.02301e-15 0)
(1.4 -1.69762e-15 0)
(1.4 -1.84793e-15 0)
(1.4 -1.78893e-15 0)
(1.4 -1.3475e-15 0)
(1.4 -9.79553e-16 0)
(1.4 -8.9468e-16 0)
(1.4 -8.64926e-16 0)
(1.4 -6.47123e-16 0)
(1.4 -3.76957e-16 0)
(1.4 -2.24012e-16 0)
(1.4 -4.68262e-16 0)
(1.4 -3.49697e-16 0)
(1.4 1.94006e-16 0)
(1.4 3.76531e-16 0)
(1.4 4.34169e-16 0)
(1.4 3.37688e-16 0)
(1.4 1.54175e-16 0)
(1.4 2.07709e-16 0)
(1.4 2.75913e-17 0)
(1.4 -1.18524e-16 0)
(1.4 -3.78021e-16 0)
(1.4 -6.07881e-16 0)
(1.4 -8.59541e-16 0)
(1.4 -1.08794e-15 0)
(1.4 -1.20425e-15 0)
(1.4 -1.37201e-15 0)
(1.4 -1.49636e-15 0)
(1.4 -1.4775e-15 0)
(1.4 -1.38208e-15 0)
(1.4 -1.32642e-15 0)
(1.4 -1.40937e-15 0)
(1.4 -1.5568e-15 0)
(1.4 -1.63879e-15 0)
(1.4 -1.63222e-15 0)
(1.4 -1.40894e-15 0)
(1.4 -1.09743e-15 0)
(1.4 -3.21008e-16 0)
(1.4 1.60604e-17 0)
(1.4 9.82834e-17 0)
(1.4 1.67853e-16 0)
(1.4 1.4327e-16 0)
(1.4 1.16686e-16 0)
(1.4 7.41617e-17 0)
(1.4 1.12556e-16 0)
(1.4 1.61681e-16 0)
(1.4 5.60655e-17 0)
(1.4 -4.15083e-17 0)
(1.4 -1.67418e-16 0)
(1.4 -2.80428e-16 0)
(1.4 -4.19659e-16 0)
(1.4 -7.35029e-16 0)
(1.4 -9.44157e-16 0)
(1.4 -1.31151e-15 0)
(1.4 -1.42437e-15 0)
(1.4 -1.69587e-15 0)
(1.4 -1.69678e-15 0)
(1.4 -1.78506e-15 0)
(1.4 -1.84279e-15 0)
(1.4 -1.95342e-15 0)
(1.4 -2.08024e-15 0)
(1.4 -2.13517e-15 0)
(1.4 -2.07991e-15 0)
(1.4 -1.99959e-15 0)
(1.4 -1.87033e-15 0)
(1.4 -1.96703e-15 0)
(1.4 -2.01966e-15 0)
(1.4 -1.97478e-15 0)
(1.4 -1.84183e-15 0)
(1.4 -1.74e-15 0)
(1.4 -1.83898e-15 0)
(1.4 -1.53554e-15 0)
(1.4 -1.31e-15 0)
(1.4 -1.18345e-15 0)
(1.4 -7.45912e-16 0)
(1.4 -9.06995e-16 0)
(1.4 -1.27403e-15 0)
(1.4 -1.36659e-15 0)
(1.4 -1.61322e-15 0)
(1.4 -1.71642e-15 0)
(1.4 -1.47474e-15 0)
(1.4 -1.27631e-15 0)
(1.4 -1.02582e-15 0)
(1.4 -8.12927e-16 0)
(1.4 -3.95891e-16 0)
(1.4 4.89712e-17 0)
(1.4 3.43677e-16 0)
(1.4 6.72324e-16 0)
(1.4 6.64275e-16 0)
(1.4 4.60082e-16 0)
(1.4 -6.50935e-17 0)
(1.4 -2.10503e-16 0)
(1.4 -3.96157e-16 0)
(1.4 -4.82842e-16 0)
(1.4 -7.47018e-16 0)
(1.4 -1.41797e-15 0)
(1.4 -2.06783e-15 0)
(1.4 -2.82103e-15 0)
(1.4 -2.93872e-15 0)
(1.4 -3.23163e-15 0)
(1.4 -3.52029e-15 0)
(1.4 -4.20859e-15 0)
(1.4 -4.46824e-15 0)
(1.4 -5.25969e-15 0)
(1.4 -6.19859e-15 0)
(1.4 -6.73256e-15 0)
(1.4 -7.11381e-15 0)
(1.4 -6.57255e-15 0)
(1.4 -6.19448e-15 0)
(1.4 -5.70853e-15 0)
(1.4 -5.62789e-15 0)
(1.4 -5.53176e-15 0)
(1.4 -5.3161e-15 0)
(1.4 -5.22454e-15 0)
(1.4 -5.13436e-15 0)
(1.4 -4.84442e-15 0)
(1.4 -4.31823e-15 0)
(1.4 -3.5671e-15 0)
(1.4 -2.53972e-15 0)
(1.4 -2.1667e-15 0)
(1.4 -1.71754e-15 0)
(1.4 -1.47282e-15 0)
(1.4 -1.45321e-15 0)
(1.4 -1.41482e-15 0)
(1.4 -1.27388e-15 0)
(1.4 -8.80887e-16 0)
(1.4 -6.39205e-16 0)
(1.4 -3.86658e-16 0)
(1.4 -3.33805e-16 0)
(1.4 -7.15208e-17 0)
(1.4 2.15851e-16 0)
(1.4 5.81585e-16 0)
(1.4 -1.79788e-15 0)
(1.4 -1.91601e-15 0)
(1.4 -1.83569e-15 0)
(1.4 -1.49956e-15 0)
(1.4 -1.57447e-15 0)
(1.4 -1.30432e-15 0)
(1.4 -1.17334e-15 0)
(1.4 -8.23936e-16 0)
(1.4 -1.0566e-16 0)
(1.4 2.38344e-16 0)
(1.4 4.30016e-16 0)
(1.4 6.04592e-16 0)
(1.4 5.63383e-16 0)
(1.4 1.21987e-18 0)
(1.4 -2.44162e-16 0)
(1.4 -5.26198e-16 0)
(1.4 -5.76495e-16 0)
(1.4 -6.83436e-16 0)
(1.4 -6.96783e-16 0)
(1.4 -6.96837e-16 0)
(1.4 -7.19514e-16 0)
(1.4 -5.78464e-16 0)
(1.4 -5.61108e-16 0)
(1.4 -2.88762e-16 0)
(1.4 -2.20022e-16 0)
(1.4 -5.91524e-17 0)
(1.4 3.57449e-16 0)
(1.4 7.43617e-16 0)
(1.4 1.08022e-15 0)
(1.4 1.11506e-15 0)
(1.4 1.30761e-15 0)
(1.4 1.55673e-15 0)
(1.4 1.57518e-15 0)
(1.4 1.51766e-15 0)
(1.4 1.6663e-15 0)
(1.4 1.51644e-15 0)
(1.4 1.28092e-15 0)
(1.4 1.13668e-15 0)
(1.4 8.20252e-16 0)
(1.4 4.98386e-16 0)
(1.4 -2.14677e-17 0)
(1.4 -2.59551e-16 0)
(1.4 -6.65817e-16 0)
(1.4 -1.13933e-15 0)
(1.4 -1.46596e-15 0)
(1.4 -1.56833e-15 0)
(1.4 -1.71066e-15 0)
(1.4 -1.73188e-15 0)
(1.4 -1.64115e-15 0)
(1.4 -1.31306e-15 0)
(1.4 -1.13544e-15 0)
(1.4 -1.03459e-15 0)
(1.4 -1.00311e-15 0)
(1.4 -1.04529e-15 0)
(1.4 -1.05665e-15 0)
(1.4 -1.05899e-15 0)
(1.4 -1.22881e-15 0)
(1.4 -1.69114e-15 0)
(1.4 -1.90983e-15 0)
(1.4 -2.01649e-15 0)
(1.4 -1.94492e-15 0)
(1.4 -1.8597e-15 0)
(1.4 -1.74965e-15 0)
(1.4 -1.51463e-15 0)
(1.4 -1.32896e-15 0)
(1.4 -1.2519e-15 0)
(1.4 -9.76548e-16 0)
(1.4 -1.15962e-15 0)
(1.4 -1.21088e-15 0)
(1.4 -1.40184e-15 0)
(1.4 -1.49266e-15 0)
(1.4 -1.42317e-15 0)
(1.4 -1.25206e-15 0)
(1.4 -1.09435e-15 0)
(1.4 -1.15184e-15 0)
(1.4 -1.4152e-15 0)
(1.4 -1.31422e-15 0)
(1.4 -1.10985e-15 0)
(1.4 -1.02363e-15 0)
(1.4 -6.40155e-16 0)
(1.4 -3.00234e-16 0)
(1.4 2.20334e-16 0)
(1.4 3.69584e-16 0)
(1.4 7.51952e-16 0)
(1.4 8.1914e-16 0)
(1.4 8.08913e-16 0)
(1.4 6.67311e-16 0)
(1.4 2.02287e-16 0)
(1.4 -2.36287e-16 0)
(1.4 -5.07784e-16 0)
(1.4 -6.36786e-16 0)
(1.4 -8.31228e-16 0)
(1.4 -9.07424e-16 0)
(1.4 -9.92927e-16 0)
(1.4 -9.3054e-16 0)
(1.4 -5.32384e-16 0)
(1.4 -3.74408e-16 0)
(1.4 -7.20714e-16 0)
(1.4 -7.49594e-16 0)
(1.4 -8.05776e-16 0)
(1.4 -1.12361e-15 0)
(1.4 -1.56862e-15 0)
(1.4 -2.37099e-15 0)
(1.4 -3.05391e-15 0)
(1.4 -3.41749e-15 0)
(1.4 -3.7773e-15 0)
(1.4 -3.95435e-15 0)
(1.4 -3.92756e-15 0)
(1.4 -3.9283e-15 0)
(1.4 -3.95008e-15 0)
(1.4 -3.97366e-15 0)
(1.4 -3.96254e-15 0)
(1.4 -4.10188e-15 0)
(1.4 -4.11917e-15 0)
(1.4 -4.083e-15 0)
(1.4 -3.83751e-15 0)
(1.4 -3.39782e-15 0)
(1.4 -3.09966e-15 0)
(1.4 -2.48812e-15 0)
(1.4 -2.19048e-15 0)
(1.4 -2.11134e-15 0)
(1.4 -2.44882e-15 0)
(1.4 -2.69605e-15 0)
(1.4 -2.79691e-15 0)
(1.4 -2.87039e-15 0)
(1.4 -2.8207e-15 0)
(1.4 -2.68459e-15 0)
(1.4 -2.43082e-15 0)
(1.4 -2.06876e-15 0)
(1.4 -1.83639e-15 0)
(1.4 -1.20881e-15 0)
(1.4 -8.32883e-16 0)
(1.4 -1.00232e-15 0)
(1.4 -7.75189e-16 0)
(1.4 -5.12131e-16 0)
(1.4 -2.0374e-16 0)
(1.4 5.87896e-17 0)
(1.4 6.38741e-16 0)
(1.4 1.23104e-15 0)
(1.4 1.37877e-15 0)
(1.4 1.56413e-15 0)
(1.4 1.65132e-15 0)
(1.4 1.6968e-15 0)
(1.4 1.83689e-15 0)
(1.4 1.94357e-15 0)
(1.4 2.01734e-15 0)
(1.4 2.05697e-15 0)
(1.4 2.11554e-15 0)
(1.4 2.37043e-15 0)
(1.4 2.56765e-15 0)
(1.4 2.5314e-15 0)
(1.4 2.3202e-15 0)
(1.4 2.27254e-15 0)
(1.4 2.26795e-15 0)
(1.4 2.27953e-15 0)
(1.4 2.31068e-15 0)
(1.4 2.77648e-15 0)
(1.4 2.82597e-15 0)
(1.4 3.38229e-15 0)
(1.4 3.54954e-15 0)
(1.4 3.45508e-15 0)
(1.4 3.36662e-15 0)
(1.4 3.48612e-15 0)
(1.4 3.57521e-15 0)
(1.4 3.42298e-15 0)
(1.4 2.95445e-15 0)
(1.4 2.64234e-15 0)
(1.4 2.14603e-15 0)
(1.4 1.15581e-15 0)
(1.4 9.85242e-16 0)
(1.4 6.49847e-16 0)
(1.4 4.13801e-17 0)
(1.4 -5.60829e-16 0)
(1.4 -1.23522e-15 0)
(1.4 -1.6657e-15 0)
(1.4 -2.09812e-15 0)
(1.4 -2.40003e-15 0)
(1.4 -2.63257e-15 0)
(1.4 -2.85834e-15 0)
(1.4 -2.95819e-15 0)
(1.4 -2.94115e-15 0)
(1.4 -2.73994e-15 0)
(1.4 -2.71053e-15 0)
(1.4 -2.6289e-15 0)
(1.4 -2.48413e-15 0)
(1.4 -2.42618e-15 0)
(1.4 -2.374e-15 0)
(1.4 -2.46999e-15 0)
(1.4 -2.48925e-15 0)
(1.4 -2.34201e-15 0)
(1.4 -2.18194e-15 0)
(1.4 -2.08096e-15 0)
(1.4 -2.26887e-15 0)
(1.4 -2.44041e-15 0)
(1.4 -2.58047e-15 0)
(1.4 -2.60655e-15 0)
(1.4 -2.54158e-15 0)
(1.4 -2.33913e-15 0)
(1.4 -1.5486e-15 0)
(1.4 -1.3871e-15 0)
(1.4 -1.22556e-15 0)
(1.4 -9.89626e-16 0)
(1.4 -8.5302e-16 0)
(1.4 -7.61363e-16 0)
(1.4 -6.37112e-16 0)
(1.4 -5.18844e-16 0)
(1.4 -1.02882e-16 0)
(1.4 7.16445e-17 0)
(1.4 3.23093e-16 0)
(1.4 8.7261e-16 0)
(1.4 1.70121e-15 0)
(1.4 2.14791e-15 0)
(1.4 2.36101e-15 0)
(1.4 2.56605e-15 0)
(1.4 2.60912e-15 0)
(1.4 2.72615e-15 0)
(1.4 2.52714e-15 0)
(1.4 2.35256e-15 0)
(1.4 2.22063e-15 0)
(1.4 1.92094e-15 0)
(1.4 1.47953e-15 0)
(1.4 1.1568e-15 0)
(1.4 1.05713e-15 0)
(1.4 7.18332e-16 0)
(1.4 4.82901e-16 0)
(1.4 2.82232e-16 0)
(1.4 3.21948e-16 0)
(1.4 5.97062e-16 0)
(1.4 9.24607e-16 0)
(1.4 8.91713e-16 0)
(1.4 8.74107e-16 0)
(1.4 7.78078e-16 0)
(1.4 4.92682e-16 0)
(1.4 1.0343e-16 0)
(1.4 -4.64019e-16 0)
(1.4 -6.91094e-16 0)
(1.4 -6.7964e-16 0)
(1.4 -8.38164e-16 0)
(1.4 -1.25996e-15 0)
(1.4 -1.53911e-15 0)
(1.4 -1.96813e-15 0)
(1.4 -2.38953e-15 0)
(1.4 -2.62557e-15 0)
(1.4 -2.61059e-15 0)
(1.4 -2.50075e-15 0)
(1.4 -2.52183e-15 0)
(1.4 -2.63644e-15 0)
(1.4 -2.91953e-15 0)
(1.4 -2.93959e-15 0)
(1.4 -2.7232e-15 0)
(1.4 -2.66069e-15 0)
(1.4 -2.57564e-15 0)
(1.4 -2.40767e-15 0)
(1.4 -2.5926e-15 0)
(1.4 -2.74375e-15 0)
(1.4 -2.84287e-15 0)
(1.4 -2.88038e-15 0)
(1.4 -2.87888e-15 0)
(1.4 -2.83029e-15 0)
(1.4 -2.79656e-15 0)
(1.4 -2.64288e-15 0)
(1.4 -2.05344e-15 0)
(1.4 -1.713e-15 0)
(1.4 -1.30797e-15 0)
(1.4 1.60741e-15 0)
(1.4 1.67531e-15 0)
(1.4 1.62454e-15 0)
(1.4 1.43895e-15 0)
(1.4 1.53224e-15 0)
(1.4 1.56482e-15 0)
(1.4 1.64276e-15 0)
(1.4 1.95136e-15 0)
(1.4 2.33487e-15 0)
(1.4 2.34312e-15 0)
(1.4 2.24985e-15 0)
(1.4 2.44376e-15 0)
(1.4 2.9673e-15 0)
(1.4 3.46245e-15 0)
(1.4 3.72989e-15 0)
(1.4 4.09261e-15 0)
(1.4 4.17615e-15 0)
(1.4 4.24136e-15 0)
(1.4 4.17426e-15 0)
(1.4 4.11463e-15 0)
(1.4 4.06887e-15 0)
(1.4 3.89806e-15 0)
(1.4 3.4435e-15 0)
(1.4 2.84931e-15 0)
(1.4 3.03149e-15 0)
(1.4 3.18856e-15 0)
(1.4 3.07547e-15 0)
(1.4 2.86567e-15 0)
(1.4 2.61417e-15 0)
(1.4 2.6013e-15 0)
(1.4 2.44573e-15 0)
(1.4 2.28132e-15 0)
(1.4 2.06154e-15 0)
(1.4 1.90262e-15 0)
(1.4 1.78051e-15 0)
(1.4 1.51865e-15 0)
(1.4 9.40666e-16 0)
(1.4 8.9352e-16 0)
(1.4 7.53662e-16 0)
(1.4 3.52927e-16 0)
(1.4 2.61241e-16 0)
(1.4 5.87163e-17 0)
(1.4 -8.99996e-17 0)
(1.4 8.54524e-17 0)
(1.4 -2.24345e-17 0)
(1.4 -9.143e-16 0)
(1.4 -1.46658e-15 0)
(1.4 -1.56917e-15 0)
(1.4 -1.57834e-15 0)
(1.4 -1.89253e-15 0)
(1.4 -1.97568e-15 0)
(1.4 -1.96644e-15 0)
(1.4 -1.83012e-15 0)
(1.4 -1.51778e-15 0)
(1.4 -1.40375e-15 0)
(1.4 -1.17614e-15 0)
(1.4 -1.11432e-15 0)
(1.4 -1.03207e-15 0)
(1.4 -9.84629e-16 0)
(1.4 -9.44535e-16 0)
(1.4 -6.2486e-16 0)
(1.4 -7.86636e-16 0)
(1.4 -9.86192e-16 0)
(1.4 -1.06181e-15 0)
(1.4 -1.5055e-15 0)
(1.4 -1.68677e-15 0)
(1.4 -1.93056e-15 0)
(1.4 -1.91011e-15 0)
(1.4 -1.88203e-15 0)
(1.4 -1.36458e-15 0)
(1.4 -7.90569e-16 0)
(1.4 -5.85892e-16 0)
(1.4 -6.32168e-16 0)
(1.4 -2.36561e-16 0)
(1.4 2.25886e-16 0)
(1.4 6.70514e-16 0)
(1.4 1.44891e-15 0)
(1.4 2.14442e-15 0)
(1.4 2.69821e-15 0)
(1.4 3.18415e-15 0)
(1.4 3.50438e-15 0)
(1.4 3.67411e-15 0)
(1.4 3.6327e-15 0)
(1.4 3.38549e-15 0)
(1.4 3.25147e-15 0)
(1.4 3.06523e-15 0)
(1.4 3.04334e-15 0)
(1.4 2.95003e-15 0)
(1.4 2.81745e-15 0)
(1.4 2.64875e-15 0)
(1.4 2.58058e-15 0)
(1.4 2.44578e-15 0)
(1.4 2.34525e-15 0)
(1.4 2.39608e-15 0)
(1.4 2.42581e-15 0)
(1.4 2.36345e-15 0)
(1.4 2.28733e-15 0)
(1.4 2.21285e-15 0)
(1.4 2.14313e-15 0)
(1.4 2.01092e-15 0)
(1.4 1.7491e-15 0)
(1.4 1.5353e-15 0)
(1.4 1.54817e-15 0)
(1.4 1.47183e-15 0)
(1.4 1.58301e-15 0)
(1.4 1.45656e-15 0)
(1.4 1.14489e-15 0)
(1.4 8.40714e-16 0)
(1.4 6.7579e-16 0)
(1.4 2.7486e-16 0)
(1.4 1.32197e-16 0)
(1.4 -3.2524e-16 0)
(1.4 -5.25189e-16 0)
(1.4 -8.99249e-16 0)
(1.4 -9.87875e-16 0)
(1.4 -1.08226e-15 0)
(1.4 -1.38617e-15 0)
(1.4 -1.91743e-15 0)
(1.4 -2.32113e-15 0)
(1.4 -2.44749e-15 0)
(1.4 -2.65369e-15 0)
(1.4 -2.61955e-15 0)
(1.4 -2.217e-15 0)
(1.4 -1.84371e-15 0)
(1.4 -1.72599e-15 0)
(1.4 -1.61621e-15 0)
(1.4 -1.69597e-15 0)
(1.4 -1.94696e-15 0)
(1.4 -2.04238e-15 0)
(1.4 -2.31863e-15 0)
(1.4 -2.33291e-15 0)
(1.4 -2.10359e-15 0)
(1.4 6.56697e-16 0)
(1.4 1.3286e-15 0)
(1.4 1.72706e-15 0)
(1.4 1.75312e-15 0)
(1.4 1.55397e-15 0)
(1.4 1.46824e-15 0)
(1.4 1.33923e-15 0)
(1.4 1.36848e-15 0)
(1.4 1.24648e-15 0)
(1.4 1.29852e-15 0)
(1.4 1.50357e-15 0)
(1.4 1.83406e-15 0)
(1.4 2.12426e-15 0)
(1.4 2.34601e-15 0)
(1.4 2.26822e-15 0)
(1.4 2.08281e-15 0)
(1.4 1.81922e-15 0)
(1.4 1.31357e-15 0)
(1.4 8.9689e-16 0)
(1.4 4.73317e-16 0)
(1.4 8.09346e-17 0)
(1.4 1.67897e-16 0)
(1.4 1.14608e-16 0)
(1.4 1.03163e-16 0)
(1.4 -6.69976e-17 0)
(1.4 8.4931e-17 0)
(1.4 4.15357e-16 0)
(1.4 6.64696e-16 0)
(1.4 8.05233e-16 0)
(1.4 9.3383e-16 0)
(1.4 1.20275e-15 0)
(1.4 1.95077e-15 0)
(1.4 2.44984e-15 0)
(1.4 2.59427e-15 0)
(1.4 2.60985e-15 0)
(1.4 2.65071e-15 0)
(1.4 2.72897e-15 0)
(1.4 2.67873e-15 0)
(1.4 2.53619e-15 0)
(1.4 2.57062e-15 0)
(1.4 2.46094e-15 0)
(1.4 2.36333e-15 0)
(1.4 2.183e-15 0)
(1.4 2.08033e-15 0)
(1.4 1.74069e-15 0)
(1.4 1.56062e-15 0)
(1.4 1.34442e-15 0)
(1.4 1.32772e-15 0)
(1.4 1.29552e-15 0)
(1.4 8.8782e-16 0)
(1.4 6.09579e-16 0)
(1.4 4.37104e-16 0)
(1.4 2.84445e-16 0)
(1.4 3.87065e-16 0)
(1.4 3.37719e-16 0)
(1.4 4.83875e-16 0)
(1.4 6.67734e-16 0)
(1.4 7.4589e-16 0)
(1.4 6.13605e-16 0)
(1.4 5.65209e-16 0)
(1.4 7.66525e-16 0)
(1.4 8.43036e-16 0)
(1.4 8.17427e-16 0)
(1.4 5.91411e-16 0)
(1.4 3.61667e-16 0)
(1.4 3.26072e-16 0)
(1.4 4.51574e-17 0)
(1.4 -8.36154e-17 0)
(1.4 2.74588e-17 0)
(1.4 -2.59554e-16 0)
(1.4 2.07489e-17 0)
(1.4 3.55395e-16 0)
(1.4 6.34174e-16 0)
(1.4 9.20439e-16 0)
(1.4 1.93239e-15 0)
(1.4 2.43329e-15 0)
(1.4 2.7793e-15 0)
(1.4 2.97748e-15 0)
(1.4 3.04209e-15 0)
(1.4 3.06194e-15 0)
(1.4 2.97071e-15 0)
(1.4 2.8903e-15 0)
(1.4 2.74066e-15 0)
(1.4 2.4049e-15 0)
(1.4 2.02079e-15 0)
(1.4 1.51621e-15 0)
(1.4 1.0227e-15 0)
(1.4 7.46713e-16 0)
(1.4 5.17429e-16 0)
(1.4 3.79076e-16 0)
(1.4 3.87146e-16 0)
(1.4 6.26283e-16 0)
(1.4 1.05446e-15 0)
(1.4 1.71805e-15 0)
(1.4 2.13441e-15 0)
(1.4 2.17324e-15 0)
(1.4 2.13166e-15 0)
(1.4 2.04112e-15 0)
(1.4 1.83401e-15 0)
(1.4 1.70071e-15 0)
(1.4 1.74034e-15 0)
(1.4 1.82815e-15 0)
(1.4 2.05529e-15 0)
(1.4 2.18791e-15 0)
(1.4 2.35133e-15 0)
(1.4 2.29216e-15 0)
(1.4 2.0555e-15 0)
(1.4 1.98426e-15 0)
(1.4 1.9444e-15 0)
(1.4 1.75934e-15 0)
(1.4 1.62383e-15 0)
(1.4 1.54271e-15 0)
(1.4 1.20425e-15 0)
(1.4 6.47856e-16 0)
(1.4 5.07313e-16 0)
(1.4 2.98669e-16 0)
(1.4 2.6576e-16 0)
(1.4 -2.48504e-16 0)
(1.4 -3.70423e-16 0)
(1.4 -5.78215e-16 0)
(1.4 -2.38759e-16 0)
(1.4 1.54866e-17 0)
(1.4 2.64837e-16 0)
(1.4 3.73376e-16 0)
(1.4 2.69696e-16 0)
(1.4 -2.85305e-18 0)
(1.4 -3.51778e-16 0)
(1.4 -5.58051e-16 0)
(1.4 -9.31319e-16 0)
(1.4 -1.20757e-15 0)
(1.4 -1.47962e-15 0)
(1.4 -1.55745e-15 0)
(1.4 -6.48704e-16 0)
(1.4 -2.72146e-16 0)
(1.4 -7.36288e-17 0)
(1.4 1.51778e-16 0)
(1.4 1.18279e-16 0)
(1.4 -1.00787e-17 0)
(1.4 -1.24732e-16 0)
(1.4 -4.36974e-16 0)
(1.4 -6.07411e-16 0)
(1.4 -4.56194e-16 0)
(1.4 -2.04366e-16 0)
(1.4 -4.31885e-17 0)
(1.4 3.50144e-17 0)
(1.4 -2.02565e-16 0)
(1.4 -3.39451e-16 0)
(1.4 -5.63454e-16 0)
(1.4 -7.68192e-16 0)
(1.4 -1.22778e-15 0)
(1.4 -1.74317e-15 0)
(1.4 -1.92603e-15 0)
(1.4 -2.06005e-15 0)
(1.4 -2.24184e-15 0)
(1.4 -2.14422e-15 0)
(1.4 -2.13193e-15 0)
(1.4 -2.15981e-15 0)
(1.4 -2.20936e-15 0)
(1.4 -1.95016e-15 0)
(1.4 -9.6204e-16 0)
(1.4 -3.7204e-16 0)
(1.4 -3.3338e-17 0)
(1.4 1.25355e-16 0)
(1.4 7.40423e-16 0)
(1.4 1.70483e-15 0)
(1.4 2.77686e-15 0)
(1.4 3.59003e-15 0)
(1.4 4.01635e-15 0)
(1.4 4.30874e-15 0)
(1.4 4.37282e-15 0)
(1.4 4.31086e-15 0)
(1.4 4.19204e-15 0)
(1.4 3.91168e-15 0)
(1.4 3.6607e-15 0)
(1.4 3.33406e-15 0)
(1.4 3.0164e-15 0)
(1.4 2.79701e-15 0)
(1.4 2.46581e-15 0)
(1.4 2.17517e-15 0)
(1.4 1.89369e-15 0)
(1.4 1.36006e-15 0)
(1.4 9.45323e-16 0)
(1.4 1.08794e-15 0)
(1.4 3.2082e-16 0)
(1.4 -1.10941e-16 0)
(1.4 -8.65851e-17 0)
(1.4 1.23544e-16 0)
(1.4 5.89943e-16 0)
(1.4 9.33799e-16 0)
(1.4 1.0854e-15 0)
(1.4 1.20693e-15 0)
(1.4 1.28417e-15 0)
(1.4 1.29529e-15 0)
(1.4 1.41563e-15 0)
(1.4 1.56431e-15 0)
(1.4 1.72637e-15 0)
(1.4 2.1175e-15 0)
(1.4 2.63754e-15 0)
(1.4 3.01478e-15 0)
(1.4 3.08293e-15 0)
(1.4 3.20827e-15 0)
(1.4 2.96277e-15 0)
(1.4 2.83511e-15 0)
(1.4 2.70055e-15 0)
(1.4 2.63724e-15 0)
(1.4 2.80528e-15 0)
(1.4 2.79772e-15 0)
(1.4 2.70185e-15 0)
(1.4 2.4519e-15 0)
(1.4 2.11462e-15 0)
(1.4 2.05785e-15 0)
(1.4 2.04248e-15 0)
(1.4 2.00997e-15 0)
(1.4 1.82253e-15 0)
(1.4 1.69247e-15 0)
(1.4 1.50373e-15 0)
(1.4 1.33858e-15 0)
(1.4 1.11567e-15 0)
(1.4 7.28704e-16 0)
(1.4 6.26733e-16 0)
(1.4 6.53537e-16 0)
(1.4 7.21819e-16 0)
(1.4 6.80313e-16 0)
(1.4 4.36957e-16 0)
(1.4 1.44999e-16 0)
(1.4 -6.24206e-17 0)
(1.4 -2.64868e-16 0)
(1.4 -2.90086e-16 0)
(1.4 -4.2403e-16 0)
(1.4 -6.25923e-16 0)
(1.4 -7.63766e-16 0)
(1.4 -7.3578e-16 0)
(1.4 -6.92925e-16 0)
(1.4 -3.18437e-16 0)
(1.4 -1.2559e-16 0)
(1.4 1.10703e-16 0)
(1.4 7.32132e-16 0)
(1.4 1.42269e-15 0)
(1.4 1.68588e-15 0)
(1.4 1.89137e-15 0)
(1.4 2.05918e-15 0)
(1.4 2.18691e-15 0)
(1.4 2.34624e-15 0)
(1.4 2.30237e-15 0)
(1.4 2.19436e-15 0)
(1.4 2.08295e-15 0)
(1.4 1.92272e-15 0)
(1.4 1.88019e-15 0)
(1.4 1.78878e-15 0)
(1.4 1.51538e-15 0)
(1.4 1.18148e-15 0)
(1.4 8.85807e-16 0)
(1.4 6.7382e-16 0)
(1.4 5.35264e-16 0)
(1.4 3.62216e-16 0)
(1.4 2.81198e-16 0)
(1.4 1.28739e-16 0)
(1.4 -1.09602e-17 0)
(1.4 -2.93231e-16 0)
(1.4 -4.92643e-16 0)
(1.4 -4.66337e-16 0)
(1.4 -3.39861e-16 0)
(1.4 -1.48575e-16 0)
(1.4 7.32715e-17 0)
(1.4 -4.81542e-16 0)
(1.4 -1.15772e-15 0)
(1.4 -1.53181e-15 0)
(1.4 -1.73132e-15 0)
(1.4 -1.76995e-15 0)
(1.4 -1.76535e-15 0)
(1.4 -1.7726e-15 0)
(1.4 -1.66491e-15 0)
(1.4 -1.69917e-15 0)
(1.4 -1.17511e-15 0)
(1.4 -8.36059e-16 0)
(1.4 -8.16127e-16 0)
(1.4 -9.71907e-16 0)
(1.4 -1.08347e-15 0)
(1.4 -1.29443e-15 0)
(1.4 -1.49817e-15 0)
(1.4 -1.51249e-15 0)
(1.4 -1.44067e-15 0)
(1.4 -1.35549e-15 0)
(1.4 -1.24057e-15 0)
(1.4 -1.13056e-15 0)
(1.4 -1.24668e-15 0)
(1.4 -1.24435e-15 0)
(1.4 -1.13283e-15 0)
(1.4 -1.14463e-15 0)
(1.4 -1.13699e-15 0)
(1.4 -8.86429e-16 0)
(1.4 -1.74865e-16 0)
(1.4 6.83584e-16 0)
(1.4 1.73901e-15 0)
(1.4 1.76378e-15 0)
(1.4 2.16876e-15 0)
(1.4 2.36392e-15 0)
(1.4 2.96103e-15 0)
(1.4 3.76247e-15 0)
(1.4 4.19402e-15 0)
(1.4 4.3564e-15 0)
(1.4 4.4209e-15 0)
(1.4 4.40282e-15 0)
(1.4 4.00877e-15 0)
(1.4 3.56234e-15 0)
(1.4 2.68317e-15 0)
(1.4 2.41848e-15 0)
(1.4 2.19274e-15 0)
(1.4 2.04296e-15 0)
(1.4 1.7397e-15 0)
(1.4 1.57216e-15 0)
(1.4 1.46065e-15 0)
(1.4 1.55025e-15 0)
(1.4 1.62958e-15 0)
(1.4 1.62961e-15 0)
(1.4 1.50483e-15 0)
(1.4 1.49333e-15 0)
(1.4 1.52217e-15 0)
(1.4 1.31634e-15 0)
(1.4 1.25971e-15 0)
(1.4 1.63105e-15 0)
(1.4 1.90055e-15 0)
(1.4 2.09765e-15 0)
(1.4 2.21571e-15 0)
(1.4 2.28424e-15 0)
(1.4 2.57477e-15 0)
(1.4 2.88614e-15 0)
(1.4 3.29894e-15 0)
(1.4 3.74838e-15 0)
(1.4 3.92024e-15 0)
(1.4 4.08529e-15 0)
(1.4 4.59062e-15 0)
(1.4 4.56022e-15 0)
(1.4 4.40496e-15 0)
(1.4 4.10509e-15 0)
(1.4 3.52781e-15 0)
(1.4 3.07074e-15 0)
(1.4 2.4305e-15 0)
(1.4 1.77008e-15 0)
(1.4 1.61741e-15 0)
(1.4 8.1451e-16 0)
(1.4 1.75054e-16 0)
(1.4 -2.11552e-16 0)
(1.4 -1.7919e-16 0)
(1.4 -9.64386e-17 0)
(1.4 3.7429e-17 0)
(1.4 5.93076e-17 0)
(1.4 8.43345e-17 0)
(1.4 -9.68659e-17 0)
(1.4 -2.3723e-17 0)
(1.4 -2.51616e-17 0)
(1.4 1.87057e-17 0)
(1.4 1.6151e-16 0)
(1.4 2.1671e-16 0)
(1.4 4.15955e-16 0)
(1.4 5.23213e-16 0)
(1.4 4.40044e-16 0)
(1.4 4.5762e-16 0)
(1.4 -2.85104e-16 0)
(1.4 -4.70932e-16 0)
(1.4 -6.98467e-16 0)
(1.4 -9.46064e-16 0)
(1.4 -1.09238e-15 0)
(1.4 -1.06862e-15 0)
(1.4 -9.77704e-16 0)
(1.4 -8.99164e-16 0)
(1.4 -6.7831e-16 0)
(1.4 -4.24635e-16 0)
(1.4 -2.26938e-16 0)
(1.4 5.26704e-17 0)
(1.4 3.55398e-16 0)
(1.4 5.00615e-16 0)
(1.4 9.65542e-16 0)
(1.4 1.49128e-15 0)
(1.4 1.88228e-15 0)
(1.4 1.89472e-15 0)
(1.4 1.95608e-15 0)
(1.4 2.21445e-15 0)
(1.4 2.46216e-15 0)
(1.4 2.50627e-15 0)
(1.4 2.44152e-15 0)
(1.4 2.4219e-15 0)
(1.4 2.43778e-15 0)
(1.4 1.7979e-15 0)
(1.4 9.7759e-16 0)
(1.4 5.34823e-16 0)
(1.4 3.34895e-16 0)
(1.4 6.1933e-17 0)
(1.4 -1.66215e-16 0)
(1.4 -2.03363e-16 0)
(1.4 -2.09286e-16 0)
(1.4 -1.46719e-16 0)
(1.4 -1.79723e-17 0)
(1.4 3.27474e-16 0)
(1.4 4.58185e-16 0)
(1.4 4.06174e-16 0)
(1.4 5.6965e-16 0)
(1.4 2.92452e-16 0)
(1.4 1.30217e-16 0)
(1.4 -1.55374e-16 0)
(1.4 -7.23644e-16 0)
(1.4 -8.88448e-16 0)
(1.4 -7.92736e-16 0)
(1.4 -4.83048e-16 0)
(1.4 -3.70155e-16 0)
(1.4 -4.48667e-16 0)
(1.4 -3.55594e-16 0)
(1.4 -3.08316e-16 0)
(1.4 -2.7301e-16 0)
(1.4 -2.20493e-16 0)
(1.4 6.71448e-17 0)
(1.4 2.94088e-16 0)
(1.4 5.0097e-16 0)
(1.4 8.63984e-16 0)
(1.4 1.15792e-15 0)
(1.4 1.88407e-15 0)
(1.4 2.27263e-15 0)
(1.4 2.24005e-15 0)
(1.4 2.14869e-15 0)
(1.4 2.01806e-15 0)
(1.4 1.95072e-15 0)
(1.4 1.98564e-15 0)
(1.4 2.11938e-15 0)
(1.4 2.15704e-15 0)
(1.4 2.12759e-15 0)
(1.4 2.18179e-15 0)
(1.4 2.29195e-15 0)
(1.4 2.16801e-15 0)
(1.4 1.98641e-15 0)
(1.4 2.08575e-15 0)
(1.4 2.31372e-15 0)
(1.4 2.61849e-15 0)
(1.4 2.76966e-15 0)
(1.4 2.72429e-15 0)
(1.4 2.57294e-15 0)
(1.4 2.24676e-15 0)
(1.4 2.03518e-15 0)
(1.4 2.02435e-15 0)
(1.4 1.90119e-15 0)
(1.4 1.9873e-15 0)
(1.4 1.90309e-15 0)
(1.4 1.66785e-15 0)
(1.4 1.5716e-15 0)
(1.4 1.57507e-15 0)
(1.4 1.58919e-15 0)
(1.4 2.03357e-15 0)
(1.4 2.13299e-15 0)
(1.4 2.5824e-15 0)
(1.4 2.6341e-15 0)
(1.4 2.44113e-15 0)
(1.4 2.32241e-15 0)
(1.4 2.04538e-15 0)
(1.4 1.98189e-15 0)
(1.4 1.95689e-15 0)
(1.4 1.99644e-15 0)
(1.4 2.00813e-15 0)
(1.4 2.14273e-15 0)
(1.4 2.24935e-15 0)
(1.4 2.44006e-15 0)
(1.4 2.57684e-15 0)
(1.4 2.63204e-15 0)
(1.4 2.26815e-15 0)
(1.4 2.36984e-15 0)
(1.4 2.44739e-15 0)
(1.4 2.78172e-15 0)
(1.4 3.09721e-15 0)
(1.4 3.24885e-15 0)
(1.4 3.36008e-15 0)
(1.4 3.11052e-15 0)
(1.4 2.74413e-15 0)
(1.4 1.81167e-15 0)
(1.4 6.20016e-16 0)
(1.4 2.23199e-16 0)
(1.4 2.36304e-16 0)
(1.4 -3.36902e-16 0)
(1.4 -6.63597e-16 0)
(1.4 -8.25661e-16 0)
(1.4 -1.43337e-15 0)
(1.4 -1.64745e-15 0)
(1.4 -1.65327e-15 0)
(1.4 -1.56539e-15 0)
(1.4 -1.51302e-15 0)
(1.4 -1.33196e-15 0)
(1.4 -9.40628e-16 0)
(1.4 -5.42373e-16 0)
(1.4 -1.72159e-16 0)
(1.4 2.36617e-16 0)
(1.4 7.1586e-16 0)
(1.4 9.18909e-16 0)
(1.4 1.21634e-15 0)
(1.4 1.28077e-15 0)
(1.4 1.26857e-15 0)
(1.4 1.10014e-15 0)
(1.4 9.32815e-16 0)
(1.4 1.0475e-15 0)
(1.4 1.36424e-15 0)
(1.4 1.32221e-15 0)
(1.4 1.18263e-15 0)
(1.4 1.14237e-15 0)
(1.4 1.22205e-15 0)
(1.4 1.21384e-15 0)
(1.4 1.19285e-15 0)
(1.4 1.18356e-15 0)
(1.4 1.21171e-15 0)
(1.4 9.19497e-16 0)
(1.4 7.82839e-16 0)
(1.4 8.87371e-16 0)
(1.4 1.32912e-15 0)
(1.4 2.20577e-15 0)
(1.4 2.86559e-15 0)
(1.4 3.05382e-15 0)
(1.4 3.08455e-15 0)
(1.4 3.1027e-15 0)
(1.4 3.07903e-15 0)
(1.4 2.91563e-15 0)
(1.4 2.56881e-15 0)
(1.4 2.16632e-15 0)
(1.4 1.95154e-15 0)
(1.4 1.84517e-15 0)
(1.4 1.62315e-15 0)
(1.4 1.52505e-15 0)
(1.4 1.44557e-15 0)
(1.4 1.443e-15 0)
(1.4 1.39759e-15 0)
(1.4 1.32965e-15 0)
(1.4 1.27147e-15 0)
(1.4 1.09483e-15 0)
(1.4 9.37165e-16 0)
(1.4 9.05815e-16 0)
(1.4 1.43817e-15 0)
(1.4 1.80736e-15 0)
(1.4 2.13885e-15 0)
(1.4 1.80262e-15 0)
(1.4 1.63703e-15 0)
(1.4 1.10989e-15 0)
(1.4 2.87669e-16 0)
(1.4 -4.73619e-16 0)
(1.4 -9.41789e-16 0)
(1.4 -1.2945e-15 0)
(1.4 -1.33785e-15 0)
(1.4 -1.21184e-15 0)
(1.4 -8.86929e-16 0)
(1.4 -4.08083e-16 0)
(1.4 2.58687e-16 0)
(1.4 9.11577e-16 0)
(1.4 1.45667e-15 0)
(1.4 1.9541e-15 0)
(1.4 2.15331e-15 0)
(1.4 2.31302e-15 0)
(1.4 2.328e-15 0)
(1.4 2.18273e-15 0)
(1.4 2.00774e-15 0)
(1.4 1.86191e-15 0)
(1.4 1.72873e-15 0)
(1.4 1.75899e-15 0)
(1.4 1.80103e-15 0)
(1.4 1.59439e-15 0)
(1.4 1.44853e-15 0)
(1.4 9.02059e-16 0)
(1.4 7.19423e-16 0)
(1.4 2.54657e-16 0)
(1.4 1.39988e-16 0)
(1.4 4.01453e-16 0)
(1.4 7.85762e-16 0)
(1.4 8.95327e-16 0)
(1.4 1.08933e-15 0)
(1.4 1.14978e-15 0)
(1.4 1.08991e-15 0)
(1.4 1.29223e-15 0)
(1.4 1.38795e-15 0)
(1.4 1.36094e-15 0)
(1.4 1.3307e-15 0)
(1.4 1.51099e-15 0)
(1.4 1.54895e-15 0)
(1.4 1.65103e-15 0)
(1.4 1.59219e-15 0)
(1.4 1.48744e-15 0)
(1.4 1.27772e-15 0)
(1.4 1.06737e-15 0)
(1.4 9.27025e-16 0)
(1.4 1.14508e-15 0)
(1.4 1.53974e-15 0)
(1.4 1.61549e-15 0)
(1.4 1.84775e-15 0)
(1.4 1.68909e-15 0)
(1.4 1.55391e-15 0)