/*--------------------------------*- C++ -*----------------------------------*\
  =========                 |
  \\      /  F ield         | OpenFOAM: The Open Source CFD Toolbox
   \\    /   O peration     | Website:  https://openfoam.org
    \\  /    A nd           | Version:  7
     \\/     M anipulation  |
\*---------------------------------------------------------------------------*/
FoamFile
{
    version     2.0;
    format      ascii;
    class       surfaceScalarField;
    location    "3";
    object      phi;
}
// * * * * * * * * * * * * * * * * * * * * * * * * * * * * * * * * * * * * * //

dimensions      [0 3 -1 0 0 0 0];

internalField   nonuniform List<scalar> 
28816
(
-9.72742e-07
9.72741e-07
-5.30254e-07
5.30254e-07
6.23624e-06
-6.23625e-06
-0.00019863
0.00019863
-0.000129568
0.000129568
-0.000180651
0.000180651
9.85218e-07
-9.85219e-07
6.74121e-06
-6.74121e-06
6.29169e-06
-6.2917e-06
-2.66203e-07
2.66203e-07
2.93497e-07
-2.93498e-07
6.09102e-05
-6.09103e-05
-5.38879e-05
5.38879e-05
4.75577e-05
-4.75577e-05
4.13271e-05
-4.13271e-05
3.62496e-05
-3.62496e-05
-3.01298e-05
3.01298e-05
1.71362e-07
-1.71362e-07
1.19568e-07
-1.19568e-07
-7.89894e-08
7.89894e-08
-2.38715e-07
2.38715e-07
4.69505e-08
-4.69505e-08
2.43845e-08
-2.43845e-08
3.07839e-07
-3.07839e-07
3.57709e-07
-3.57709e-07
-5.5898e-07
5.5898e-07
0.000100824
-0.000100824
-9.4052e-07
9.40519e-07
0.000113203
-0.000113203
6.68929e-07
-6.68929e-07
-1.09576e-06
1.09576e-06
1.26453e-06
-1.26453e-06
-6.17911e-09
6.1791e-09
-0.000102986
0.000102986
1.278e-06
-1.278e-06
0.000166731
-0.000166731
-1.73699e-06
1.73699e-06
2.17716e-06
-2.17716e-06
2.0995e-06
-2.0995e-06
2.81308e-06
-2.81309e-06
8.44457e-05
-8.44457e-05
3.18246e-06
-3.18246e-06
-3.40515e-06
3.40515e-06
-4.02981e-06
4.0298e-06
0.000215183
-0.000215183
5.71992e-06
-5.71992e-06
6.39846e-06
-6.39846e-06
5.45187e-06
-5.45187e-06
6.88733e-06
-6.88733e-06
-1.47473e-07
1.47473e-07
-1.00834e-07
1.00834e-07
-2.07253e-07
2.07253e-07
-1.14168e-06
1.14168e-06
-1.16549e-06
1.16549e-06
-1.4773e-08
1.4773e-08
-1.29311e-06
1.29311e-06
-1.74082e-06
1.74082e-06
-9.74723e-05
9.74722e-05
-1.95723e-06
1.95723e-06
7.81726e-05
-7.81726e-05
-2.4771e-06
2.4771e-06
-2.97034e-06
2.97034e-06
0.000156403
-0.000156403
-6.39414e-06
6.39413e-06
-3.34982e-06
3.34981e-06
5.13422e-07
-5.13423e-07
-6.62436e-07
6.62435e-07
7.21316e-06
-7.21317e-06
6.51398e-05
-6.51398e-05
-6.28321e-05
6.28321e-05
5.40271e-05
-5.40272e-05
8.07754e-06
-8.07754e-06
-8.6595e-05
8.6595e-05
4.83747e-05
-4.83748e-05
6.89449e-06
-6.89449e-06
-3.50347e-06
3.50347e-06
4.26293e-05
-4.26293e-05
-6.25963e-05
6.25963e-05
3.62443e-05
-3.62443e-05
7.27336e-06
-7.27336e-06
-1.03148e-05
1.03147e-05
-3.03876e-05
3.03876e-05
2.87626e-05
-2.87626e-05
1.37912e-05
-1.37912e-05
2.92686e-05
-2.92686e-05
1.31435e-05
-1.31435e-05
-4.3336e-05
4.33359e-05
2.61268e-05
-2.61268e-05
1.43504e-05
-1.43504e-05
-1.82445e-05
1.82445e-05
1.90078e-05
-1.90078e-05
-3.72272e-05
3.72272e-05
1.56439e-05
-1.56439e-05
-3.26403e-05
3.26403e-05
1.27454e-05
-1.27454e-05
1.41665e-05
-1.41665e-05
1.38458e-05
-1.38458e-05
-2.21765e-05
2.21765e-05
-4.63354e-07
4.63354e-07
0.000116455
-0.000116455
1.29045e-06
-1.29045e-06
-5.08452e-05
5.08452e-05
-5.44762e-05
5.44762e-05
-3.41033e-08
3.41032e-08
-1.6002e-05
1.6002e-05
-6.38881e-06
6.38881e-06
-3.04454e-05
3.04454e-05
-3.92684e-07
3.92684e-07
-3.09833e-05
3.09833e-05
5.79968e-05
-5.79968e-05
-5.43527e-06
5.43526e-06
5.87427e-08
-5.87427e-08
-8.89508e-05
8.89508e-05
-7.33908e-08
7.33907e-08
1.58379e-05
-1.58379e-05
-8.10267e-05
8.10267e-05
-0.00012409
0.00012409
-1.01308e-06
1.01308e-06
-1.08047e-05
1.08046e-05
-3.93151e-06
3.93151e-06
-1.11258e-05
1.11258e-05
-4.43634e-07
4.43633e-07
-6.86357e-05
6.86356e-05
8.31757e-07
-8.31758e-07
7.12792e-06
-7.12792e-06
-1.02787e-05
1.02787e-05
-6.26155e-10
6.26155e-10
1.59627e-07
-7.36264e-06
7.20302e-06
-3.85156e-06
2.99802e-06
8.53527e-07
0.00469645
-0.000270457
-0.00442599
-9.66339e-06
9.95262e-06
-2.89233e-07
0.000349634
-7.37797e-05
-0.000275854
0.00188388
0.000263642
-0.00214752
-0.000123797
-0.000190426
0.000314223
-6.68944e-05
4.55345e-05
2.13597e-05
8.54875e-05
-0.000738577
0.00065309
-0.0059899
0.00850636
-0.00251648
5.01348e-05
-0.000142195
9.20606e-05
-0.000461195
0.000792783
-0.000331587
6.6362e-05
-1.86489e-05
-4.77131e-05
-0.000113674
9.72765e-05
1.63973e-05
-0.00750266
0.00121656
0.0062861
0.000160669
-0.000262764
0.000102095
-0.00108464
0.000925513
0.000159129
4.73666e-06
-3.678e-07
-4.36884e-06
6.1628e-05
4.91683e-05
-0.000110796
-0.00103178
0.00644382
-0.00541204
-0.000191722
0.000176275
1.54461e-05
-3.96836e-05
2.5999e-05
1.36845e-05
0.0023561
-0.00296075
0.000604654
0.00315711
-0.000801018
0.00546769
-0.0060674
0.00059971
0.000260543
8.90914e-05
0.00190625
-0.0014843
-0.000421947
0.000412712
-0.000472028
5.93159e-05
0.00688188
-0.00748337
0.000601493
7.33115e-06
-7.18887e-05
6.45576e-05
0.000306113
-0.000428583
0.000122469
0.000166165
0.000830667
-0.000996832
1.52317e-05
5.67981e-05
-7.20297e-05
4.17167e-05
2.95023e-05
-7.1219e-05
-2.06684e-05
1.93206e-05
1.34779e-06
7.56915e-05
-0.000102585
2.68929e-05
7.18128e-05
0.000194915
-0.000266729
-0.000251652
0.000309667
-5.80143e-05
7.38606e-05
-3.87306e-06
-6.99878e-05
0.00017807
-0.000561515
0.000383446
-4.13225e-05
5.21086e-05
-1.07861e-05
0.000427739
-0.000406816
-2.0924e-05
5.52612e-05
-2.24553e-05
-3.28061e-05
0.000331845
0.00436462
-8.98823e-05
-8.37993e-06
9.82621e-05
-8.29447e-05
0.000141906
-5.89611e-05
0.000274354
-0.000321523
4.71702e-05
-0.000217011
0.000426471
-0.000209461
5.9201e-05
-4.10191e-05
-1.81819e-05
2.78395e-05
0.000278274
0.000250418
-0.000228476
-2.19421e-05
0.000635581
0.00133839
-0.00197397
0.00140493
-0.00104719
-0.000357746
0.000112955
-1.98156e-05
-9.31393e-05
-0.011299
0.0115867
-0.000287746
-1.52831e-05
-5.16111e-05
-0.00119366
0.00135982
-0.000809524
0.00034833
0.000176741
-0.000168473
-8.26761e-06
-0.00514324
0.00689364
-0.0017504
0.000194967
0.000156963
-0.000351931
4.76421e-05
-0.000388425
0.000340784
-5.33325e-05
1.20101e-05
-2.49339e-06
3.46292e-07
2.1471e-06
-0.000146537
6.35923e-05
0.00025742
-0.0028225
0.00256508
-4.10613e-05
0.00020173
-9.33506e-05
0.000109903
-1.65529e-05
-0.000514564
-0.000929476
0.00144404
0.00767453
-0.000792652
2.63499e-05
-4.92507e-05
2.29008e-05
-0.000324348
7.26957e-05
-0.000314148
-7.81846e-05
0.000392333
-0.000107051
6.87779e-05
3.82727e-05
-0.000501789
0.000788344
-0.000286555
0.00122883
0.00216305
-0.00339187
-2.04135e-05
1.79423e-05
2.47122e-06
0.000628963
0.000935993
-0.00156495
-0.00837192
0.00238202
5.99964e-05
-8.36966e-06
-5.16266e-05
-7.72095e-06
-9.24072e-06
1.69617e-05
-9.78533e-05
0.000147988
1.99192e-05
-2.26914e-05
2.77216e-06
9.54704e-06
6.43135e-05
-0.000210581
-0.00235367
0.00256426
-2.03627e-05
9.62642e-06
1.07363e-05
-2.19743e-05
-1.77093e-05
4.91061e-06
-1.4574e-05
0.00206516
-0.00242817
0.000363004
0.000177826
0.000288888
-0.000466713
-0.00486489
0.00546053
-0.000595641
0.00245809
-0.00154206
-0.000916034
-0.0108361
0.00471572
0.00612043
-0.000228253
-0.000769903
0.000998155
-6.56378e-05
0.000173705
-0.000108067
-1.07391e-06
-8.88086e-05
-7.95531e-06
-1.05688e-06
9.0122e-06
3.09817e-05
-8.85411e-05
5.75594e-05
-4.91047e-05
4.3406e-05
5.69871e-06
-0.00396155
0.00484337
-0.000881819
-1.46584e-05
0.000126179
-0.000111521
-4.89869e-06
-7.56081e-06
1.24595e-05
-0.000134778
0.000869108
-0.000734329
0.0013781
-0.00166215
0.000284042
0.00353888
-0.00454001
0.00100113
0.000254342
-0.00018253
-9.62086e-06
2.95401e-05
-0.000132382
-0.000148976
0.000281359
-5.72622e-06
-8.4321e-06
1.41583e-05
-0.000120695
-0.000173376
0.000294071
1.00478e-05
-7.90566e-06
-2.14213e-06
0.000120433
-0.000124986
4.55309e-06
0.00225229
-0.000368407
-2.21764e-05
0.000198917
0.0002163
-0.000433311
-0.000119152
-6.43555e-06
0.000125587
-0.00146663
-0.00603603
-3.91759e-06
0.000677664
-0.000673746
-0.000508706
0.000291924
0.000216782
-0.000154692
0.000212601
-5.79088e-05
-1.46757e-05
0.000228409
-0.000213733
-9.52417e-05
0.000106677
-1.14349e-05
8.14559e-05
-7.05331e-05
-1.09228e-05
-2.94829e-05
3.68831e-05
-7.40019e-06
1.01239e-05
-1.05139e-05
3.89937e-07
0.000159736
-0.000191733
3.19979e-05
-0.000104157
3.47481e-05
6.9409e-05
-0.000114788
7.73754e-06
-8.61445e-06
-1.53074e-05
2.39219e-05
-0.0125827
0.00900608
0.00357659
5.46995e-05
-0.000205813
0.000151114
4.95328e-05
-8.16149e-05
3.2082e-05
3.86462e-05
1.66152e-05
-0.000126863
1.17479e-05
0.000115115
-9.30888e-05
8.43503e-05
8.73859e-06
-0.00236658
0.002624
0.000124034
-0.00013871
-0.00555145
-0.0033171
0.00886857
-0.00162891
0.00111434
1.12939e-06
3.60727e-06
4.53086e-05
6.79992e-06
-0.000114392
0.00011941
-5.01842e-06
-9.6103e-05
8.6127e-07
0.000204156
-0.000247978
4.38227e-05
0.000797308
-0.00071182
-5.18918e-05
7.91483e-05
-2.72565e-05
1.41642e-06
-9.45054e-05
-0.000124429
5.27784e-06
2.30633e-05
-8.90413e-05
6.59782e-05
8.7122e-05
-0.00051242
0.000425298
-0.00737515
0.000324261
0.00705089
-0.000294666
0.000307692
-1.3026e-05
0.000247762
-4.36064e-05
-2.84435e-05
-0.000126746
0.000155189
0.000491314
0.000111687
-0.000603002
-8.79231e-05
-1.62341e-05
-6.4227e-05
8.17497e-05
-1.75226e-05
-0.000106926
-7.46583e-06
0.000129604
-0.000292179
0.000162575
-5.23515e-05
-0.000770187
0.000822537
3.91307e-05
-3.8574e-05
-5.56791e-07
-2.68362e-06
-8.53051e-06
1.12141e-05
-7.98852e-05
0.000209489
-0.00741434
-0.000198088
0.00761245
0.00443685
-0.000897976
-4.76497e-06
3.51547e-06
1.24949e-06
0.000105157
-0.00015781
5.26528e-05
-0.000321297
0.00036894
0.000204624
0.000223116
0.000285377
-0.000409175
0.000285132
-1.0778e-05
1.97659e-05
0.000230652
0.00287897
-0.00148756
-0.00139141
-0.000170909
-0.000414393
0.000585301
0.000175567
0.000291713
-0.000467281
1.04704e-05
-1.53691e-05
1.79735e-05
-1.5767e-05
-2.20645e-06
4.27641e-05
-0.00116422
0.00112146
-2.12251e-05
2.6935e-06
1.85316e-05
-9.6857e-06
-3.86107e-05
4.82964e-05
7.88252e-05
-3.71085e-05
-0.000178745
0.000616047
-0.000437301
0.00453977
-0.00479535
0.00025558
-0.000260721
0.000135523
0.000125198
-0.0057637
0.000620452
0.0044489
-0.00451568
6.67774e-05
4.32655e-06
-8.07305e-06
3.74652e-06
0.000115602
4.83142e-06
6.43974e-07
8.61391e-06
-9.25788e-06
-0.000329923
0.000470066
-0.000140142
1.27237e-05
-1.54073e-05
0.000740079
-0.000688618
-5.14614e-05
-0.000902717
0.000400929
-0.0001549
-9.54786e-05
0.000250379
3.09487e-06
2.93374e-05
-3.24323e-05
4.39699e-05
-0.000137321
-6.68971e-06
-4.00863e-05
4.6776e-05
-0.000236861
0.000241702
-4.84023e-06
0.00425882
-0.00981027
2.13476e-05
-7.32395e-05
1.4734e-07
-2.64074e-06
-0.000122565
-4.29832e-06
9.53553e-06
4.82796e-05
-5.7815e-05
-9.64788e-05
8.18201e-05
-0.000561183
8.06231e-05
0.000480559
0.000235496
-0.000252267
1.67712e-05
0.00113554
-0.000579105
-0.00055643
-0.000127179
-0.000135584
0.000940267
-0.00107504
-1.06215e-05
8.63131e-05
-2.4287e-06
4.81444e-06
-2.38574e-06
-0.000233761
0.000123646
0.000110115
0.000224929
-0.000330461
0.000105532
-1.95206e-05
0.000177347
-0.000157826
0.00231154
-0.000930983
-0.00138056
0.000583368
0.000552165
-0.000193737
8.02245e-05
0.000113513
-0.000605761
0.00075515
-0.000149389
0.000120434
-0.000218003
9.75696e-05
-7.34103e-05
6.45736e-06
6.6953e-05
-0.000895356
-0.000189288
-0.000111274
-1.51494e-05
0.000126423
5.523e-05
1.11322e-05
-0.00291154
0.000742863
0.00216868
-0.000193626
0.000393809
-0.000200183
2.41032e-06
0.000114885
-0.000117295
0.000372529
2.96441e-05
-0.000402172
0.000271759
-0.000483012
0.000211252
-5.30807e-05
-1.16737e-05
6.47544e-05
0.00170962
-0.000331516
0.000117523
-0.000114482
-3.04153e-06
-0.000396845
0.000710655
-0.000313809
-1.74814e-05
-6.92983e-07
1.81743e-05
-0.000742495
-7.81604e-05
1.39334e-05
3.05809e-05
-3.32529e-05
2.67209e-06
0.00156461
0.00378324
-0.00534784
0.00012517
-0.00064901
0.00052384
-0.000378042
8.33748e-05
-0.000698484
0.00136679
-0.000668303
-0.000171945
-0.000389238
3.01468e-05
8.9839e-06
5.35898e-05
-8.28124e-06
0.000147954
7.00114e-05
-0.000217966
-0.000195969
-0.000203752
0.00039972
-0.00118704
0.000758224
0.00042882
-0.000588272
3.69228e-05
0.000551349
-4.25419e-05
0.000140909
-9.83675e-05
-0.00673369
-0.000641463
-0.000116112
-0.000394298
0.00051041
1.27325e-05
0.000127117
-0.000139849
0.000185587
-2.58512e-05
1.95912e-05
3.96097e-05
-9.13454e-05
-0.000145125
0.000236471
-0.00140209
-0.000240959
0.00164305
1.37314e-06
6.47445e-06
-7.84758e-06
0.000451767
-0.000273941
-0.00402526
0.00419294
-0.000167678
-0.000473866
0.000178481
0.000295385
-2.98967e-06
2.95745e-06
3.22248e-08
5.45539e-06
6.4394e-06
-1.18948e-05
-0.00189998
0.00312881
4.46064e-05
-1.82567e-05
0.000416568
-0.000144811
-0.00015459
-3.91468e-05
0.00117853
-0.000613837
-0.000564688
-0.00055558
0.000384672
-1.46488e-05
1.5657e-05
-1.00819e-06
-0.000148278
-8.54838e-05
-0.000144002
-3.31086e-05
0.000177111
9.92081e-06
8.05265e-06
2.66852e-06
-1.03895e-05
-0.000162283
9.66451e-05
-8.1622e-05
8.89532e-05
-0.00259856
0.00302495
-0.000426384
-0.00991717
-0.000918979
-1.31533e-05
1.46338e-05
-1.48051e-06
-0.000564357
-0.000622687
-3.72663e-05
4.03612e-05
-8.31683e-06
9.68998e-06
3.47028e-06
-3.29532e-05
2.42985e-05
5.60665e-07
-2.48593e-05
-0.00662942
-0.000297523
0.00692694
0.000417587
-5.51578e-05
-0.000362429
-0.000211187
-0.000684918
0.000896105
-0.00281237
0.000631572
0.0021808
0.00222861
-0.00016345
-0.00410789
-0.000757002
1.39061e-07
-3.12874e-06
-0.000389031
-0.000119675
0.000407399
0.000761583
-0.00116898
0.000177132
-0.000122432
-6.52655e-06
-3.87544e-06
1.0402e-05
-2.72631e-06
-2.03867e-06
-7.13342e-06
7.7774e-06
0.00017556
0.00056452
-2.16803e-05
0.000136983
-0.000115302
1.10944e-05
-5.63893e-06
0.000348839
0.000208568
-0.000557408
-3.29775e-05
-7.43331e-05
0.00010731
-0.000777804
0.0007376
4.02046e-05
0.000373237
0.00416654
-0.00160135
0.00223693
-0.000183757
9.00929e-05
9.36634e-05
0.000288276
0.00175795
-0.00204622
-1.60211e-06
-2.24944e-06
-1.38972e-06
-3.75051e-06
5.14023e-06
0.000288811
-0.00135988
0.00107107
-0.000765941
-0.00204643
-0.00132614
6.02459e-06
0.00132012
0.000390579
-0.000264991
-0.000125589
-5.51361e-06
0.000687232
-0.000269754
-0.000417477
-6.90374e-06
6.90375e-06
-3.7568e-05
3.99986e-05
-2.43062e-06
4.82908e-05
-9.10159e-06
-3.91891e-05
-8.90178e-06
-3.88672e-05
4.77691e-05
0.000257456
-0.000389837
-0.00392901
-9.62496e-05
9.14576e-05
-6.94029e-05
-2.20546e-05
3.20665e-05
1.62243e-05
-1.06981e-05
1.47473e-05
-4.04913e-06
3.71504e-05
6.46854e-05
-0.000101836
-4.42356e-06
3.272e-05
-2.82965e-05
2.58208e-05
-1.52228e-06
-4.49759e-05
-6.86979e-05
0.000213908
-0.000477934
0.000264026
0.00121648
0.000151078
-0.00136757
-0.000489465
0.000310721
-0.00204265
0.00213595
-9.33076e-05
-0.000192444
0.000164
-0.00104572
3.25409e-05
0.00101318
-0.000227243
0.000142307
8.49364e-05
-0.00599858
-0.000630831
0.00923671
0.00120251
-0.0104392
-8.9394e-05
-9.43627e-05
-0.00135923
-0.000233285
0.00159252
-8.46012e-05
2.00956e-06
8.25916e-05
1.001e-05
-1.57362e-05
-1.44811e-06
-5.45561e-06
-1.58513e-05
2.34308e-05
-7.57959e-06
-1.47114e-05
1.9038e-05
-9.49032e-06
0.00010457
-9.508e-05
0.00157766
0.000880426
0.000373344
-0.00318196
0.00280862
0.000806242
-0.000585193
-0.000221051
0.00107407
-0.000961753
-0.000112318
-6.25779e-05
6.25779e-05
-0.00112859
0.000900337
-0.000132587
2.13136e-05
9.92125e-05
-0.000256325
0.000157113
-8.70924e-05
-9.80689e-05
0.000185161
0.00147688
3.10587e-07
1.42314e-05
-1.4542e-05
-0.000367431
-0.000144218
0.000511649
9.57941e-05
-6.92983e-05
-2.64956e-05
5.3648e-06
7.12028e-07
-6.07683e-06
6.25602e-06
-7.64573e-06
0.000269206
0.000192798
-0.000462003
0.00091662
-0.000128277
-9.32501e-06
1.3697e-06
-0.000719794
0.000322949
-2.35174e-05
4.97886e-05
-2.62711e-05
-0.000119507
0.00139183
-0.00127232
-0.0044827
0.00301607
0.00296457
-0.0023855
-0.000579069
0.000605013
-0.000483429
-0.000121585
-0.00128285
-4.32954e-05
-0.00114241
0.000260187
0.000882221
4.87964e-05
-5.19045e-05
3.10805e-06
0.00216664
-0.00195955
-0.00020709
0.00115139
-0.000715261
-0.000436134
2.46416e-06
-2.28268e-05
-0.000248398
-0.000180184
-0.000174524
3.05229e-05
0.00704217
-0.000703951
-0.00633822
-0.000786075
0.000929915
-0.00014384
0.000178741
-0.000437067
0.000258326
0.00109202
0.00218154
-0.0024225
2.89239e-07
-1.01039e-07
-1.88201e-07
-0.000101364
-1.88529e-05
0.000120217
-1.86078e-05
-2.61729e-06
-0.000125449
8.29073e-05
-0.000425772
9.58482e-05
0.00132963
0.00477771
-0.00610733
-0.000442944
9.75676e-05
0.000345376
-2.90061e-05
2.03916e-05
0.000109764
-8.30001e-05
-2.67641e-05
0.000400163
0.000287068
-0.000418544
0.00059411
0.000162779
-0.000160125
-2.65306e-06
0.000320784
-0.00017283
-9.45759e-06
-1.75953e-05
2.70528e-05
-0.000119519
3.97466e-05
7.9772e-05
0.000178919
-0.000134642
-4.42768e-05
-0.000542818
-3.68359e-05
0.000579653
0.00301897
-0.00264562
0.00121502
-0.00133235
0.000117325
0.000241002
-0.000120569
6.83431e-05
-1.00994e-05
-5.82436e-05
-5.26145e-05
0.000114243
0.000135625
-0.000157306
-0.0127942
0.000651223
-0.00117945
1.53661e-05
0.00116408
-1.36492e-06
-4.54718e-05
0.000330849
0.00167302
-0.00134487
-0.000328145
-0.0103797
-0.00091922
-0.001171
0.00179997
-0.00025545
3.18261e-06
-0.000117823
0.000122769
-4.94567e-06
0.00142592
-0.00101852
3.59013e-05
6.86978e-05
-0.000104599
-0.00053092
-0.00233486
0.00286578
6.80794e-05
4.16849e-05
-4.58207e-06
8.90632e-07
3.69143e-06
0.000572091
-0.000856683
0.000284594
-0.000298865
0.000477607
-0.00310532
0.000506758
-0.000642554
0.000868417
-0.000225864
8.19859e-05
-7.24502e-05
-2.51903e-05
2.55458e-05
-3.5553e-07
9.37012e-05
-9.32717e-05
-4.29452e-07
-1.88403e-05
6.83731e-05
-9.75836e-05
0.000292551
-0.00480182
0.00157763
0.00322418
0.000420727
-0.000389611
-3.11162e-05
-9.18988e-05
9.4309e-05
-0.0014858
0.00177407
-0.000903422
0.00126094
-0.000357522
-0.00154093
0.000181697
-4.20066e-05
4.43854e-06
-0.000397019
8.8765e-05
0.000308255
-0.00364031
0.00835604
-0.000146578
-4.51439e-05
0.00122991
0.00751194
-0.00874185
-0.00113976
0.00101001
0.000129753
-1.88071e-05
2.95583e-06
0.00158474
0.00137983
9.34435e-05
-0.000115879
2.24354e-05
-0.000146377
0.000136886
-0.000704975
9.9213e-05
0.000376987
3.57256e-05
4.09608e-05
-4.42184e-05
3.25756e-06
0.000181685
-0.000824239
7.04963e-06
-1.86694e-06
-5.18269e-06
0.000681947
0.000496577
0.000205523
-3.18179e-05
-0.012821
-2.22363e-06
6.21519e-07
0.00051955
-2.82354e-05
0.000239686
-0.000194307
-4.53782e-05
-0.00015987
-0.000760874
0.000920743
-0.000237933
0.000289709
-5.1776e-05
-3.33759e-05
2.68494e-05
-0.000428241
0.000114093
7.32389e-05
-0.000106217
0.00928698
-5.02783e-05
-9.90793e-05
7.82167e-05
2.08626e-05
-0.000115274
-7.29181e-06
0.00601976
-0.00480321
5.02943e-05
-5.998e-05
0.000469887
-5.22983e-05
-0.000535866
1.47663e-05
0.0005211
-0.00612661
0.00745624
-4.07346e-05
-4.08801e-05
-9.52208e-05
9.00276e-05
5.19324e-06
0.000461947
-0.000170234
0.000398104
-0.000128897
3.5361e-07
0.000140444
-0.000140798
-6.80039e-05
-1.08847e-05
7.88887e-05
0.000228386
0.00681379
7.34487e-05
-0.000396751
0.000323302
-8.32556e-05
9.59883e-05
8.97694e-08
1.9947e-07
-2.49211e-05
-4.84892e-05
-0.000128136
1.2863e-05
0.000881765
-0.000839
0.000198712
0.000717907
-0.000314977
0.000198097
4.15885e-05
-1.54498e-05
8.01045e-07
-3.95311e-05
7.05127e-05
2.65035e-05
-1.09004e-05
-1.56031e-05
-0.000558709
1.58899e-05
0.000536671
-0.000589024
4.39562e-05
6.89987e-05
-0.000212217
0.000120872
3.25085e-05
-1.92762e-06
-7.38431e-05
9.17446e-05
-1.79016e-05
-0.000298685
0.00017799
0.00209964
-0.00303263
0.000932989
-4.58207e-06
7.31531e-05
-0.000960328
0.000887174
0.0011275
8.75295e-05
0.000182414
7.70686e-05
-0.000259483
1.65713e-08
-9.85295e-06
9.83637e-06
-0.00100568
0.000875848
-0.00113111
0.000255263
-0.000268459
1.30086e-05
-0.000119387
-0.000107856
-1.33427e-05
7.622e-07
1.25805e-05
5.30603e-05
-6.56907e-05
-0.00906681
0.00491528
0.00415154
-9.67179e-06
-6.67154e-05
7.63872e-05
-0.000165486
-0.000241331
0.00455855
-0.000639547
-0.003919
-3.09821e-05
8.01502e-05
0.000235463
-0.000637855
0.000402393
-0.00013698
9.20041e-05
-0.000907946
-0.000176522
0.00108447
-0.000118264
8.35059e-05
3.47586e-05
-0.000276929
0.000490835
-0.000202083
0.00065051
-0.000448428
-0.000577788
4.19236e-05
6.84466e-05
-0.000117605
4.91587e-05
0.00630476
-0.00525267
-0.00105208
-0.000355501
-0.000118365
0.000183925
-0.000203445
-0.00231543
-0.000645315
-4.38262e-06
2.09001e-05
-1.65175e-05
6.71163e-05
1.46334e-05
-0.000146023
-0.000589579
-0.000856676
0.00144625
-0.000708019
0.000996829
-6.87757e-05
-3.03036e-05
9.03086e-05
-0.000100862
1.0554e-05
-0.000145737
-5.0197e-07
0.000146239
-0.000190054
0.000136411
5.36426e-05
-7.49172e-05
-0.00521846
0.0036977
0.00152075
-1.62877e-05
-4.12583e-06
0.0103095
0.00184061
-0.0121501
-0.000471593
0.000571155
-9.95625e-05
4.34472e-06
5.77919e-06
-0.00147291
-0.0033289
-6.36756e-05
-0.000379268
-0.000203645
5.79073e-05
-0.000952914
0.000166838
0.000117889
0.000129873
-6.54009e-07
-7.66684e-06
8.32086e-06
-3.17457e-05
3.66342e-05
-4.88854e-06
-0.00428912
0.00861783
-0.00999408
0.00137627
-3.13452e-05
-4.10837e-06
3.54535e-05
0.00147789
0.000688744
-0.000291054
0.000669026
-0.000377971
-7.75191e-05
2.05594e-05
5.69596e-05
-0.000697682
0.000226089
0.000877429
0.00102882
4.86574e-05
1.38998e-07
3.82921e-05
-1.81148e-05
-2.01773e-05
1.86613e-05
-6.09429e-07
-1.80519e-05
-6.41824e-06
-1.13819e-05
1.78002e-05
-1.86733e-05
1.97511e-05
-1.07782e-06
3.39579e-05
0.000119237
-0.000153196
-1.79523e-06
2.09231e-06
-2.97079e-07
-7.46296e-06
-1.28479e-05
1.28645e-05
-2.146e-05
1.20024e-05
-3.36574e-06
1.45521e-05
-1.11864e-05
7.81133e-05
-1.0997e-05
-0.000110882
-1.22528e-05
0.000123135
-0.00427462
-0.0016119
0.00588652
0.000327274
-0.00014486
-1.35951e-05
2.89696e-06
-9.52008e-05
8.93913e-06
8.62617e-05
0.000108561
-7.35292e-06
-0.000101208
-0.000143191
-4.68624e-05
0.000460128
-0.000120418
-0.00033971
-9.27036e-05
1.91652e-05
7.35387e-05
8.31139e-05
4.73777e-05
-0.000130492
1.42048e-05
-1.46712e-05
4.66385e-07
-0.000264642
2.67096e-05
-0.00377016
0.00533477
9.30621e-05
-0.000102734
-5.32315e-05
-0.000104251
0.000157482
1.15265e-05
-1.12159e-05
-2.82732e-06
-1.0326e-05
-2.61133e-05
-2.81367e-05
5.42501e-05
-0.000434733
0.000241106
-0.000905834
-0.0020057
-0.000234394
-4.98805e-05
2.95736e-06
4.69231e-05
0.000324993
-0.000309775
0.00280021
-0.00249043
0.00023138
9.63023e-05
-8.66015e-06
6.23145e-06
-0.000430923
0.000486875
-5.59524e-05
4.98903e-05
-7.34075e-05
0.000343143
0.000116985
-0.00611023
0.00117837
0.00493187
0.00397145
-0.0040323
6.08531e-05
0.000716193
0.00096348
-0.00167967
-0.000816516
-2.56736e-05
0.000842189
0.00520495
-0.000955508
-0.00424944
8.61017e-05
0.000323274
0.000289375
-0.000612649
-1.08785e-06
-1.6468e-05
1.75558e-05
0.000380214
0.000199601
-0.000579816
-0.000167935
0.000279743
-0.000111808
-7.34e-05
-0.000160994
1.35246e-07
6.91437e-06
-0.00144116
0.010059
4.88323e-06
1.1537e-06
-6.03692e-06
0.00034635
-0.000391822
-0.000189386
0.000300762
-0.000111375
8.97125e-06
-9.22607e-06
2.54803e-07
0.000410225
-0.00110871
1.55345e-05
-1.33083e-06
-1.42036e-05
1.16307e-05
1.48729e-05
-0.000162374
7.52812e-05
-2.91741e-06
0.000117802
0.000121425
8.40977e-05
0.000208735
0.000222858
-0.000431593
-0.000714309
-6.34962e-05
-1.96472e-05
-1.02126e-06
0.00425854
-0.00474848
0.000489946
-0.00396238
-0.0059548
0.00263625
-0.00316717
0.000102987
0.000877183
-0.00098017
3.73403e-05
-3.76089e-05
2.68699e-07
-5.30583e-05
2.18311e-05
3.12271e-05
0.00064943
0.00166211
0.000109176
5.78337e-05
-0.00016701
0.000236345
-0.00113977
-2.53405e-05
9.16364e-05
-6.62958e-05
-0.00725497
0.000438588
-0.000229852
0.000538007
0.000254776
-6.33386e-05
-7.36415e-05
-0.00065443
0.00612211
0.000198051
-0.000111335
-8.67165e-05
-0.00118455
-0.00301797
0.00420252
0.000374264
-0.000652798
0.000278534
-0.000486565
0.000321739
0.000164825
0.000150837
-4.22768e-05
0.00963658
0.0012997
-0.0109363
-2.98235e-05
0.000321747
-0.000154244
-0.0018884
-1.95127e-05
-1.78959e-05
3.74086e-05
0.000103147
-8.7915e-05
0.000689658
-0.000564489
0.00060472
-0.000592606
-1.21144e-05
-3.82072e-05
-6.40623e-05
0.00010227
0.00607079
0.00294872
-0.00901951
4.30848e-05
-4.69087e-05
3.82387e-06
0.000637438
-0.000152047
-0.000114279
0.000266326
-0.00047553
0.000369086
0.000106444
-0.00168792
0.00196323
-0.000275316
0.000262744
-3.7815e-05
-0.00657121
0.00553943
0.000176185
-0.000390559
0.000214373
3.99535e-05
-9.31851e-05
-2.89928e-05
8.626e-05
-5.72673e-05
-1.15587e-05
1.8021e-06
9.75655e-06
-0.000933069
2.51252e-05
-0.000484028
0.0107935
0.0125134
-0.000926666
3.79691e-05
-2.80764e-06
-3.51615e-05
-0.00101629
-2.94252e-05
-0.00610728
0.00183265
0.000209313
0.00376214
-1.59244e-05
-0.00016749
0.000183415
-3.77952e-05
-1.13095e-05
9.82521e-05
0.000482042
-0.000580294
-0.000171581
-3.42327e-05
3.70348e-06
-1.10223e-05
7.31885e-06
-0.0113465
0.0105687
0.000777752
0.000587037
0.000109007
-0.000292184
0.000183177
4.00094e-05
-4.91244e-06
-0.000902251
-0.000129428
0.00103168
-8.94639e-05
1.45342e-06
8.80104e-05
6.07793e-07
-2.40302e-06
0.00224563
0.00259774
-6.56985e-05
0.00162488
-0.000610163
-0.00101472
0.00485244
-0.000593909
5.45049e-06
-5.67251e-07
0.00197097
-1.65954e-06
6.77481e-06
-5.11527e-06
-0.00106725
0.000105496
-0.000453349
2.09723e-05
0.000432377
0.000403967
-0.000606051
4.73341e-06
-8.61199e-06
3.87858e-06
-0.00193516
1.5097e-06
0.00193365
2.53914e-05
0.000150369
-0.00017576
-3.42379e-05
5.38057e-05
-1.95677e-05
-0.000380632
0.000535398
-0.000154767
2.49619e-06
-1.83295e-06
-6.63246e-07
1.53835e-05
-3.2144e-06
-1.21691e-05
-9.2783e-05
-2.95174e-06
9.57346e-05
-9.28935e-06
1.93371e-05
-1.92705e-05
1.98996e-05
-6.29137e-07
1.08754e-05
2.70937e-05
-0.00127017
0.0005584
0.000711774
0.0100613
-0.000424733
-1.04577e-06
0.000107683
-0.000175186
6.75032e-05
0.000978923
-0.00148282
0.000503901
0.0104906
-0.00203959
-0.00845096
0.000289926
-0.000190713
-0.00140571
0.00319452
-0.0017888
-4.9064e-07
1.44135e-06
-9.50712e-07
-5.02311e-05
-6.92873e-05
0.00674041
-0.00114129
-0.00559912
0.000116425
-0.00101868
-1.31482e-06
-3.7296e-05
-1.77311e-05
-3.15195e-05
-4.52341e-05
1.66128e-05
2.86213e-05
-0.000549104
-6.65512e-05
0.000615653
-0.00041987
0.00059794
-8.06202e-06
-3.49663e-06
2.1062e-05
1.72301e-05
-0.000112308
0.00019928
-8.69726e-05
-7.10831e-06
-2.18106e-06
2.125e-05
4.39246e-06
-4.87541e-06
4.82948e-07
6.57744e-07
-7.30668e-08
-5.84678e-07
-5.8679e-05
0.000661453
-0.000602773
-0.000375061
0.00171407
-0.00133901
0.000134905
-0.00030284
-1.5205e-05
-1.38813e-05
2.90862e-05
-4.62011e-06
6.46164e-05
-0.000101368
-1.68966e-05
-1.28038e-05
4.37168e-06
0.0072442
-0.00848145
0.00123727
-0.000528881
-0.000190912
1.88043e-05
5.16328e-07
-7.6404e-06
-1.26766e-05
2.0317e-05
-7.49078e-05
4.06698e-05
0.000276328
-0.000802491
0.000526164
0.000163878
0.00109805
-0.00126193
1.31124e-05
-1.64782e-05
0.000787494
0.000351208
-0.0011387
0.00036504
0.000589967
-0.000955008
4.12072e-05
4.02485e-05
-8.98035e-06
3.16639e-05
-2.26835e-05
-0.000227421
-0.000914988
-0.000195664
0.000174443
2.12208e-05
-2.11512e-06
-0.000582138
0.000584253
8.3927e-06
-6.48952e-05
5.65024e-05
-0.000423718
-5.18117e-05
-3.03184e-05
1.30573e-05
1.72611e-05
2.69328e-05
3.94225e-06
-8.98546e-06
5.0432e-06
-1.81518e-06
-7.1127e-07
2.52645e-06
4.3382e-05
-4.3382e-05
0.000370532
-0.000261525
-9.08171e-05
4.15718e-05
4.92454e-05
1.62469e-05
7.52108e-05
0.0116672
-0.0118173
0.00015003
6.55936e-05
-0.000457507
0.000391914
-5.14716e-05
4.13723e-05
-2.18811e-05
-5.26926e-06
2.71503e-05
5.40547e-06
-3.82647e-05
3.28592e-05
5.79631e-07
1.49549e-05
2.97444e-05
-3.07412e-06
0.000685022
0.000231935
-0.000760817
0.000142961
-0.000171296
2.83346e-05
-0.00283126
0.00047758
0.00178155
-0.00318727
-1.66539e-05
-2.61653e-06
3.30324e-06
-3.05225e-07
0.0122319
0.00028145
7.84066e-06
-1.39286e-05
6.08791e-06
-0.000743363
0.000666195
0.00563857
-2.72932e-05
1.83128e-05
-0.000391401
0.000852391
-0.000460992
0.000118056
-2.46127e-05
0.000354149
0.000452094
0.000773631
0.00165959
-0.00243322
-5.24121e-06
9.97464e-06
-0.000315938
-1.3742e-05
0.000329681
-0.000143
-0.000482639
0.000625639
-8.68342e-05
7.84647e-05
-0.00455219
0.00336764
0.00126994
0.000156817
-0.00142676
-0.000125143
1.06615e-05
0.00030589
3.75153e-06
-0.000309642
-0.000221291
-0.000137057
0.000358348
0.0057591
-0.00649018
0.000731092
-0.000168085
0.000339828
-0.000171741
-0.000167554
6.65413e-05
0.000101012
1.03671e-05
-0.000183004
0.000172637
0.000237888
-0.000540242
0.000302353
-0.00127837
9.89232e-05
-0.000145775
0.000156142
0.00117403
-0.000911323
-0.000262711
-0.000509355
7.84316e-05
0.00606381
-0.00537925
-0.000684562
-0.000362226
-3.47937e-05
0.000324065
-0.000440177
0.00692342
0.00313788
-9.57745e-05
7.98501e-05
-3.27892e-05
2.32356e-05
9.55365e-06
-0.00132998
-0.000258404
0.00158839
0.000400508
-0.000334986
-6.5522e-05
0.000960391
0.000664489
0.000742744
0.00585419
-0.00659692
-0.000598485
1.02127e-05
0.00619307
-0.00043398
-2.19067e-05
0.000273215
-0.000251308
-0.000391095
-9.54703e-05
6.8748e-06
9.65864e-07
-0.000586016
0.000218584
5.13741e-06
9.3313e-06
6.05215e-06
-0.000242326
-4.73487e-05
0.000289675
0.000919607
-4.37592e-05
-2.09702e-05
3.38521e-05
-1.28819e-05
-0.000580281
0.000521602
0.000101738
2.44408e-05
0.000686993
-0.000571225
-0.000115769
-2.02924e-05
0.000732754
-0.000380528
-0.000352227
0.00177943
-8.73662e-05
-0.00169206
0.000134771
-2.55951e-05
-3.58583e-05
4.08293e-05
-4.97107e-06
0.000125701
0.000217563
-0.000343264
-3.11656e-05
-5.96517e-05
0.000355453
-0.00191259
0.00155714
-1.46494e-06
0.000203884
-0.00020242
-1.04173e-05
1.05769e-05
0.000353295
-0.000401969
4.86738e-05
-8.77414e-06
-1.90553e-05
2.78295e-05
-0.00815046
-0.00184365
8.11066e-05
-0.000593895
-9.4722e-05
-0.00211881
0.00174375
0.00063503
2.03147e-05
-2.14025e-05
6.45635e-05
-0.000117178
-6.48793e-06
0.000154865
0.000452246
-0.000607109
2.31721e-05
-2.4941e-05
1.76893e-06
-4.79374e-06
-0.000187649
-2.70491e-06
4.40188e-05
-4.13139e-05
4.34415e-05
-3.56014e-08
0.000759455
-0.00134903
5.60202e-06
-9.91214e-06
-1.52781e-05
2.60883e-06
-1.59516e-05
0.00767721
-0.000432998
-1.70217e-05
1.84737e-05
-1.45204e-06
0.00727393
-0.00604401
-5.29571e-05
-0.00489517
0.00342227
5.97794e-06
-6.13133e-07
8.10403e-05