/*--------------------------------*- C++ -*----------------------------------*\
  =========                 |
  \\      /  F ield         | OpenFOAM: The Open Source CFD Toolbox
   \\    /   O peration     | Website:  https://openfoam.org
    \\  /    A nd           | Version:  7
     \\/     M anipulation  |
\*---------------------------------------------------------------------------*/
FoamFile
{
    version     2.0;
    format      ascii;
    class       volScalarField;
    location    "1.427";
    object      p;
}
// * * * * * * * * * * * * * * * * * * * * * * * * * * * * * * * * * * * * * //

dimensions      [0 2 -2 0 0 0 0];

internalField   nonuniform List<scalar> 
12359
(
0.0694515
0.0783116
0.0546515
0.110757
0.0727608
0.157104
0.188715
0.171448
0.229145
0.145382
0.209407
0.27944
0.486064
0.117889
0.105507
0.397398
0.441071
0.0584148
0.0580904
0.091164
0.12624
0.254076
0.0844506
0.0963584
0.0810881
0.0874141
0.0555563
0.0554489
0.0574608
0.0559842
0.0563431
0.0550483
0.0547658
0.0558001
0.0546689
0.056496
0.0630138
0.0677787
0.0712132
0.065399
0.0763008
0.0664875
0.0608656
0.0602486
0.0569376
0.0571835
0.0567165
0.0561952
0.0577625
0.0556747
0.0553492
0.0552457
0.0549901
0.0587716
0.0549343
0.0547912
0.0597031
0.0547685
0.0547606
0.0547021
0.0548269
0.0546786
0.0552828
0.515832
0.0591926
0.135082
0.0623877
0.0551831
0.0637117
0.35179
0.535598
0.0744305
0.0546438
0.0645483
0.101169
0.0546858
0.0549907
0.0546587
0.0617475
0.320337
0.12779
0.0502047
0.0539237
0.0542801
-0.0545229
0.0240379
0.0500119
0.0529928
-0.0674703
-0.0489081
0.0544889
0.4789
0.054425
0.0535821
0.0531098
0.00329813
0.0531858
0.0537375
0.0609548
0.0578778
0.109766
0.0545562
0.025118
-0.120132
0.0498631
0.0137529
0.0536417
-0.0532314
0.0285956
0.0141257
0.0533189
0.050272
0.112513
0.0934451
0.053468
0.0513156
0.0953544
0.0493302
-0.0724879
0.0539457
0.0534649
0.177184
0.0528381
0.00498235
0.0490275
0.051491
0.0397469
0.0540949
0.0546443
0.0489406
0.0519464
-0.00222094
-0.00373745
-0.00252184
0.0537287
0.00582168
0.0518077
0.00568528
0.0545836
0.0403972
0.0540421
0.0707494
0.0147717
0.053679
0.0093709
0.149678
0.0539381
-0.0435302
0.0496064
0.129435
0.00299472
0.0545687
0.0148842
0.0527641
0.0543964
-0.173198
0.110665
-0.00143053
0.0533138
0.0551121
0.0479862
0.0551551
0.00352479
0.0116149
0.0539108
0.0516683
0.0491218
0.176655
0.0132485
-0.0690698
0.0546516
0.0546807
0.0117874
0.0809998
0.0502539
0.0441638
0.0574874
0.0572839
0.113845
0.044556
0.118009
0.0543776
0.0546447
0.0499563
0.0598769
0.208102
0.0483173
0.0522994
0.00213467
0.0480196
0.0526269
0.00435436
0.00582647
0.05274
0.0126374
-0.129558
0.0343555
0.0493463
0.0156123
0.0494182
0.153817
0.00187855
0.0590626
0.0135876
0.0128274
0.0543587
0.0117435
0.0596577
0.00189764
0.0474486
0.0541669
0.000172235
0.000313195
-0.524049
0.203174
0.0545917
0.0488433
0.0534818
0.0485976
0.0714482
0.103867
0.0476315
0.00467643
0.471359
0.0487295
0.0541463
0.0721621
0.0296797
0.0474691
0.0501371
0.0498739
0.0539222
0.0102696
0.0589529
0.0517618
0.0581039
0.0539414
0.0143492
0.0518645
0.294594
0.053887
0.0222047
0.0525568
0.0577513
0.0467368
-0.0441409
0.0547404
0.00173747
0.051574
0.00680722
0.00152702
0.0671568
0.0569432
0.0504383
0.326772
-0.574384
0.0539519
0.0477869
0.403752
-0.0529212
0.0586097
0.0478422
0.0474837
0.0124391
0.0793257
-0.446852
-0.0672355
0.0465236
0.0481137
0.00628673
0.0119313
0.0639031
0.0133818
0.0505828
0.0475403
0.0539529
0.0477813
-0.112809
0.0452734
0.0536514
0.0545449
0.0117992
0.0448
0.0624652
0.022939
0.0539966
0.0496883
0.0545618
0.0545465
0.0550825
0.00342485
0.0500625
-0.448418
0.0537174
0.0535824
0.0253322
0.0514072
0.103605
0.053472
0.0554064
0.0545086
-0.101069
0.04688
0.0545046
0.0490756
0.0531022
0.0516396
0.0512808
0.0517265
0.0509215
0.0584044
0.206342
0.0512865
0.0564038
0.0677597
0.023283
-0.0557329
0.0513454
0.0618973
0.373849
0.0545397
0.0192835
0.0536092
0.034714
0.0536743
0.0510625
0.232316
0.0185917
0.208241
0.0620337
0.0522588
0.00454387
0.0013255
0.0521098
0.00485697
0.00478437
0.0535471
0.0548831
0.0548784
0.0549322
0.0549138
0.293332
0.053974
0.107776
0.000916662
0.0588365
0.0130665
0.0187541
0.0260367
0.0355929
0.0177601
0.0361902
0.0607567
0.0211346
0.0225796
0.0955558
0.0715248
0.0167432
0.0698978
0.0697342
0.0162835
0.107458
0.0507401
0.0549873
0.0327548
0.0549478
0.0504169
-0.176795
0.500463
0.0506115
0.0546214
0.0537638
0.0542846
0.0174962
0.0543998
0.0543882
-0.0734339
0.0120852
-0.0448311
0.052298
0.0100559
0.045204
0.0527997
0.0165817
0.0324374
0.1141
0.0327516
0.0509574
0.0535948
0.0115291
0.0094624
0.0485434
0.299248
0.0162445
0.00268219
0.0527696
0.0494375
0.0546043
0.387162
0.0149159
0.0524037
0.0654743
0.0688015
0.0540605
0.0540333
0.0542348
-0.0536456
0.101631
0.0629475
0.018079
0.000643357
0.0532061
0.117881
0.0521348
-0.000108551
-0.0597897
0.305223
0.0575172
0.0951224
0.0289309
0.023552
0.0378419
0.0323707
0.0560379
0.0377538
0.0150891
0.0544045
-0.0558987
0.0629992
-0.00708765
0.00812469
0.0600863
0.0992934
-0.142269
0.0173847
0.0420463
0.00113599
0.00786683
0.0198569
0.0492775
0.054194
0.0551083
0.0537038
-0.00296042
0.0520754
0.0871164
0.0889403
0.0386188
-0.0523531
0.10744
0.0576929
0.0526292
0.394594
0.0536754
0.0523344
0.00605848
0.0546261
0.0525115
0.0523446
0.238466
0.207549
0.0538921
0.0529294
0.113063
0.0508734
0.0183057
0.0149223
0.0126249
0.0535359
0.0542712
0.050677
0.0545115
0.0884387
0.0190281
0.0231925
0.0571265
0.0540285
0.00342644
0.0561187
0.0506077
0.048182
0.123362
0.00541779
0.054571
0.0503427
0.0109754
0.0312278
0.0513655
0.0516185
0.115444
0.0174058
0.0065613
0.0217872
0.0535532
0.0509394
-0.00417429
-0.00443158
0.0545074
0.0390218
0.0523144
0.00305173
0.28461
0.0542195
0.052173
0.0536029
0.0143864
0.0574819
0.0569322
0.0516983
0.0521013
0.0312402
0.0799113
0.0413234
-0.0332445
0.0537943
-0.0383494
0.053087
-0.115984
0.0163946
-0.00126034
0.0547475
0.0569336
0.0226722
0.0501267
0.0553336
0.0612272
0.0576207
0.0579766
0.0739721
0.0148164
0.0143626
0.0539402
0.0498329
0.0189038
-0.00353427
0.0539335
0.053532
0.0111624
0.0535623
0.226583
-0.147273
-0.122287
0.0539315
0.0445915
0.00113889
0.0571932
0.0505743
0.455362
0.0537292
0.11703
0.0917744
0.0444802
0.0511961
0.0554581
0.0390378
0.00048723
0.0314144
0.0556954
0.0539555
0.0546439
0.057406
0.0574425
0.0579429
0.0137148
0.0551243
0.0536785
0.0214109
-0.0850498
0.0563024
2.50988e-05
0.0537905
0.0562374
0.0973748
0.00172174
0.00157566
0.099408
0.0488821
0.00129662
0.05409
0.0547037
0.00319151
0.0393655
0.0482787
0.0393366
0.0543285
0.0536167
0.0513784
0.0519754
0.00142699
0.106644
0.0633199
0.121559
0.015506
0.0420071
0.115234
0.0663731
-0.00566975
0.0128191
0.0673122
0.0567621
0.0547205
0.0399182
0.0217419
0.0539389
0.0546325
0.0535529
0.0547433
-0.0143699
0.0395594
0.0355633
0.108112
0.0615202
0.23612
0.00307645
0.00154703
0.0513348
-0.000812473
0.0543124
0.0529958
0.0531356
0.108249
0.117362
0.049519
0.0316647
0.230147
0.0153907
0.0071457
0.0409323
0.0683248
-0.122633
0.0533182
0.0554106
0.054348
-0.00857234
0.0552998
0.0324961
-0.0519482
0.0535909
0.0812529
0.0597482
0.0440182
0.0565254
0.049867
0.0549795
0.0572093
0.0550251
0.054924
0.0567719
0.00541879
0.00904587
0.0440179
0.340308
0.0011659
0.412042
0.0169478
0.0234604
0.057002
0.0182108
0.0597891
0.00420511
0.321986
0.101451
0.0589993
0.0461936
0.0586673
0.0574281
0.0223367
0.0541913
-0.0102966
0.0550356
0.1027
0.0507527
-0.012874
0.00816425
0.0110744
0.0587078
0.0414495
0.00876239
0.0805945
0.00680478
0.0426782
0.00397113
0.0455231
0.0539609
0.0528106
-0.194718
0.0730246
0.0455907
0.0538942
0.0552106
0.0586387
0.0866191
0.00902521
0.0152237
0.0535495
0.0472005
0.0583169
0.0455595
0.0418852
0.00266069
0.0600892
0.0602143
0.0090137
0.0470777
0.0434226
0.106789
0.0539404
0.0599328
-0.252506
0.0547482
0.00818356
0.0535897
0.0438633
0.0920434
0.00956652
0.0537459
0.0198056
0.0540638
0.114475
0.049536
0.00785823
0.0108425
0.115462
0.0539314
0.000852265
-0.00565886
0.0591763
0.045163
0.0491891
0.0383869
0.239856
0.0581287
0.0546076
0.0578757
0.0544158
-0.12076
0.0442076
0.0122359
0.0327148
0.0160368
0.519671
0.0446045
-0.051541
0.00916069
-0.0917757
0.0180974
0.0555761
0.0446249
0.0318249
-0.0453037
-0.0337155
0.0530987
0.053028
0.121187
0.0529132
0.211687
0.020809
0.0726847
0.0495447
0.408429
-0.0982293
0.0448185
0.0539639
0.0538804
0.0965892
0.0586782
0.0634298
0.0558139
0.0143259
0.0801447
-0.0331677
0.357925
0.0536577
0.085749
0.0148353
0.122859
0.0467342
0.117167
0.00707525
0.0978596
0.0567193
0.0538962
0.00974416
0.0069316
0.0157336
0.120478
0.014753
0.0235798
0.054067
0.053145
0.0409583
0.24635
0.0409232
0.0119931
0.0693129
0.019481
0.0376805
0.0563204
-0.00477793
0.0336767
0.046228
-0.0182854
0.0608763
0.0262354
0.199095
0.0539555
0.0333942
0.0529889
0.0607544
0.0516577
0.0535158
0.0539422
0.00409129
0.0486741
0.0811943
0.0131282
0.0977327
0.0318096
0.0324227
0.0105908
-0.178086
0.0547331
0.0605603
0.0238212
-0.0650082
0.00741189
0.0538817
0.50641
0.0539197
0.0495119
-0.152565
0.0588124
0.0541363
0.0541578
0.0680859
0.0924979
0.0547532
0.0597723
0.111679
0.0536111
0.0563106
0.0562986
0.0533079
0.0935261
-0.0158638
0.0574647
0.119333
0.00903768
0.00293442
0.00805305
0.0159711
0.0561933
0.0492545
-0.0378462
0.00403227
0.0760468
0.0528243
0.0547679
0.12069
-0.000636927
0.0346323
0.0391539
0.0343044
0.0557425
0.04719
0.0869003
-0.217057
0.365625
0.0853456
0.0529924
0.0472109
0.0827141
0.350987
0.114122
0.0539316
0.000749142
-0.0107773
-0.236168
0.0376294
-0.148407
0.0547415
0.0560756
0.0547776
0.00872767
0.0777646
-0.152801
0.0506915
-0.0798595
0.0526881
0.0535325
0.0102512
0.0579375
0.0017662
-0.0413845
0.0595949
0.0370393
0.0240316
0.0381428
0.0594448
0.0780796
0.0757032
0.0317362
0.081387
0.0596461
0.0548072
0.0561256
0.0552549
0.107534
0.0216215
-0.00576681
0.00471536
0.0888466
0.0254218
0.0234352
0.0451297
-0.00684364
0.0355922
0.0590208
0.0543589
0.000345023
0.111593
0.0509614
0.0419283
0.0604457
0.0241852
0.105417
0.118849
0.0239981
0.243696
0.0225546
0.0898667
-0.0389992
0.0576341
0.0214792
0.0114167
0.0527881
0.0352958
0.0406319
0.0467733
0.0540887
0.0502583
-0.0124043
-0.000365373
0.0496648
-0.129849
0.103083
0.055147
0.0534709
0.00233658
0.0550749
0.0805118
0.0142825
0.0068008
0.0550256
0.0570815
0.0532588
0.0550832
0.121286
-0.129969
0.0550527
0.0593193
0.0539386
-0.138729
0.0225619
0.0141044
0.0537305
0.0549721
0.0559558
0.025414
0.0872731
0.0292257
0.0517057
0.0567045
0.0549781
0.0218481
0.087504
0.0409761
0.0546266
0.0315646
0.0260778
0.0781588
0.0512748
-0.0152731
0.148002
0.0529018
0.03403
0.056455
0.0462397
-0.168743
0.0595135
0.0552018
0.0102911
0.107602
0.0853896
-0.132212
0.0797375
0.0364991
0.028565
0.0604867
0.042344
0.0361825
0.0596516
0.149189
0.0534997
-0.32103
0.0864036
0.183068
0.0423024
-0.00567312
0.0983082
-0.00160636
0.265172
0.00620678
0.0257232
0.0349625
0.0406102
0.053904
0.046706
0.0908172
0.00113541
0.0598736
0.0529129
0.00538808
0.0169217
0.00613127
0.0830211
0.00107315
0.00576647
0.0529335
0.0737351
-0.0493703
0.0900304
0.0539049
0.0361962
0.0572654
0.0539104
0.0723946
0.0547335
0.0467353
0.24594
0.094577
-0.0159918
0.0547629
0.0541422
0.0544251
0.0600641
0.0577413
-0.00177909
0.0578649
0.0540587
-0.0136769
0.022056
0.00380882
0.0720831
0.0521692
0.0449101
0.0939173
0.0355564
0.0547839
-0.039281
0.00912367
0.114029
0.054126
-0.226947
0.100226
0.0526593
0.00236684
0.0398434
-0.0277734
0.0373709
0.0015232
0.097501
0.0518707
0.0562105
0.0207457
0.0424834
0.0582525
-0.00593494
0.0589452
0.059194
0.0992093
0.0522938
0.0575396
0.037086
0.00842398
0.0524552
0.0590258
0.0569691
0.0538341
0.0993495
-0.039228
0.0267581
0.0601394
0.0567514
0.0447154
0.0537249
-0.182977
0.0823696
0.0545581
0.0740706
0.0449037
0.102153
0.155319
0.000785641
0.0589603
0.0063394
-0.000516236
0.053687
0.0427077
0.0004863
0.0508362
0.0545985
0.0762102
0.0277563
0.0574351
0.0546224
0.0434074
0.0865312
0.0551001
0.0331718
0.0547457
0.0400645
0.0703382
0.134192
0.05426
-0.191559
0.083245
0.0166033
-0.114401
0.0954435
0.0327013
-0.0260954
0.0605771
0.143946
0.211792
0.056662
0.0471051
0.0470734
0.055876
0.0578487
0.00680797
-0.0740076
-0.137949
0.00848091
0.150855
-0.00686779
0.0099914
-0.0583446
0.0540751
0.0561058
0.0496372
0.0252131
0.0537277
0.00788357
0.0381948
-0.0131011
0.0539738
0.0568462
0.0523116
-0.141872
0.122041
0.0811587
0.0652785
0.123683
0.0474756
0.0550202
-0.0138313
0.0379269
-0.00927701
0.00730382
0.0214943
0.0054319
0.0141062
0.0611537
0.0534431
0.053774
-0.117134
0.0438842
0.0424647
0.0553754
0.00075814
0.0190128
0.0542921
0.0191196
-0.0108057
-9.78572e-05
0.0971609
0.0564771
0.0541962
0.00493891
0.0601549
0.0540057
0.00154844
0.00812514
0.0574658
0.141131
0.000478484
0.0543886
0.0540882
0.0537984
0.110106
-0.12874
0.0428712
0.0107758
0.056832
0.0566908
0.00958367
0.0545309
0.182115
0.0139888
-0.0528303
0.156136
0.0306955
0.0531918
0.0539251
0.0337531
0.0603028
0.0532467
-0.169428
0.0058772
0.0459232
0.224852
0.104368
0.0501812
0.0539328
0.0540851
0.0547324
-0.0714194
0.163488
0.0345168
0.080562
0.0706026
0.00653271
-0.0732555
0.0264958
0.0583207
0.0563372
0.0169434
0.044109
0.0535789
0.0562874
0.00443718
0.0577729
0.0337103
0.0593644
0.084538
-0.00966866
0.0507677
0.0563695
-0.00242443
0.0034937
0.0628408
0.056264
0.0796889
-0.000633147
0.0405881
0.0181608
0.0772482
0.0144153
-0.0326357
0.0570393
0.161104
0.0534926
0.107672
0.00146243
0.0544901
0.0539872
0.37898
0.0543443
0.0597336
0.0271779
0.058969
0.0590936
0.061853
0.0542598
0.054421
0.000205775
-0.0235692
0.0525913
0.33421
0.0390873
0.0561328
0.239363
0.101422
0.0570879
0.0486718
0.0557432
0.091281
-0.253114
0.0587826
0.0525624
0.0537272
0.056117
0.0671102
0.0166447
0.0583835
0.0683209
0.057325
-0.14593
-0.00405636
0.00665597
0.113053
0.0387749
0.0562072
0.0045484
-0.111962
0.0565308
0.053895
0.0561554
0.0487484
0.0589073
0.0531917
-0.00325113
0.0483326
0.0485288
0.31512
-0.000870431
-0.0102215
0.00391591
0.0587455
0.000908262
0.0891069
-0.0846208
0.0514431
0.00992441
0.0545187
0.240408
0.0539658
0.0533658
0.0313423
0.0537435
0.0262565
0.0631987
0.0589964
0.0513568
-0.0896468
0.0896652
0.00969151
0.0563417
0.0370755
-0.0584306
-0.00627117
0.081724
0.0780098
0.0540393
0.0593489
0.0515227
0.0560607
0.0525426
0.0563141
0.0927896
0.0770133
0.00759945
-0.100531
0.0273711
-0.00605421
0.0339287
-0.104132
0.0531692
-0.0275249
0.0562308
-0.00791933
-0.00509673
0.0257392
0.0537541
0.030307
0.0107064
0.0327029
-0.018178
0.235826
-0.0982193
0.0561791
-0.000110715
0.0486258
-0.00391503
0.0929573
0.00591556
0.0497136
0.0618276
0.00857984
0.0569135
0.0377596
0.0539344
0.0469538
0.0539807
0.0595261
0.00623445
0.000983174
0.0540306
0.0875444
-0.0800183
0.500383
0.053586
0.0763834
0.0255797
0.195828
0.0325962
-0.172735
-0.031387
0.051154
0.0248796
0.0698742
0.178582
0.0515752
0.07073
0.0806336
0.0522733
-0.0831867
-0.00415429
0.0562721
0.0279969
-0.0346019
0.0791998
-0.085695
0.0398218
0.0815918
0.0578402
0.0536031
0.0592732
0.047471
-0.0707424
-0.000509353
-0.0607737
0.0549328
-0.0831287
0.030791
0.00500835
0.113297
0.0251079
0.0281084
-0.0521909
0.0396027
0.0379125
0.00497388
0.0724929
0.0266202
0.0092519
0.0730428
-0.0855712
0.0877891
0.0357124
0.0908001
0.0550092
0.11588
6.26475e-05
0.103545
0.0568002
-0.0342989
0.0541184
0.0348425
0.00681762
-0.00100152
0.0607408
0.00578476
0.0475658
0.506616
0.05975
0.0041993
0.0945788
-8.2915e-05
0.00726411
0.0536819
0.0323643
0.0538943
0.466907
0.0543508
0.0540132
0.0537997
-0.0130601
0.0485677
0.045911
-0.0126665
0.028184
0.067363
0.0481686
0.0540346
0.109231
0.0527366
0.106959
0.0096047
0.0889743
0.0419457
0.0448302
0.0262774
-0.0110813
0.00979135
0.0456957
0.526932
0.0543324
0.0540834
0.0595577
-0.12795
0.0568855
0.0308542
0.0815221
0.0577881
0.0443204
0.00332704
-0.0211251
0.0345284
-0.0444382
0.0586738
0.0483415
0.0132041
0.0184739
-0.000704047
0.0561772
0.024488
0.0751086
0.196879
0.0385364
0.0539904
0.0468309
0.180639
0.0546171
0.0546222
-0.0326717
0.0331633
-0.0371345
0.0443006
0.0539758
0.191553
-0.0132144
0.0499685
0.0589697
0.0525803
-0.106482
0.0546215
0.0349712
-0.0257212
0.0546206
0.0540206
0.00967413
0.0536391
0.0546327
0.0120856
0.0531712
0.0538792
0.0226487
0.0536768
-0.010574
0.0539686
0.0608209
0.121492
0.00826251
0.0546342
0.00572829
-0.164043
0.0447229
0.0769048
0.0528205
0.0360065
0.0529297
-0.0158195
-0.00475791
0.0486697
0.0540302
0.134191
0.0315575
0.0141924
0.00972867
0.132019
0.0536399
0.00644483
0.054019
-0.01867
-0.00327703
-0.00419788
0.00801957
0.158199
-0.0860755
0.00504535
0.0084845
0.0499625
0.0561057
0.00122755
0.13826
0.101549
0.0339551
-0.0694826
0.0536029
-0.0602735
0.204463
0.0531272
-0.00697612
-0.0262983
0.0829069
0.0067137
0.00754253
0.0757173
0.0539872
-0.010045
-0.061205
0.26031
0.0587258
0.0024351
-0.0293841
0.144362
0.0555714
0.0539964
0.00555942
-0.050843
0.0428497
0.0707738
0.0542383
0.0536144
0.0587028
0.0585378
0.0256209
0.0592561
0.0539851
-0.0132766
0.0367978
-0.0251381
0.0144091
0.0542018
0.0540284
0.145155
0.0582731
0.0823092
0.0628819
-0.0461873
0.0841913
0.0532824
-0.0201661
0.0626205
0.053927
0.0274512
0.0406798
0.0442871
0.0966683
0.0256532
-0.134597
0.0425133
0.0536357
-0.025625
0.0537622
-0.00419145
0.0319058
-0.0228759
-0.045491
0.0992298
-0.0292384
0.0542324
-0.00747373
0.057632
0.0748474
-0.022019
0.0206719
-0.021927
-0.0602624
0.174639
-0.0104808
0.0664321
0.0532473
0.0538342
0.0537478
-0.0297462
0.14234
0.0532409
-0.0126409
-0.0183435
0.0139454
0.00262404
0.0278466
0.112238
-0.0284845
0.0575273
0.0116474
0.0258478
0.0545091
0.0545283
0.0556705
0.0585865
0.00945304
0.0541469
0.0556528
0.0599142
0.0773099
0.000463888
0.0534784
-0.0170393
0.0539656
0.0059254
0.0172294
0.0559828
0.0442764
0.00205047
-0.0186687
0.0378249
0.079781
0.0584313
0.0272357
0.0330278
0.0540407
0.0577397
0.0576343
0.056042
0.0540872
0.0724878
0.0540742
0.128402
0.0132139
-0.0870721
0.0540823
0.0624215
0.0541712
0.0536538
0.124372
0.0617666
0.0533675
0.320994
0.136209
0.0388799
0.0678251
0.0405593
0.122815
0.0185203
0.00923072
0.057924
0.0597934
0.0540283
0.0537254
-0.0105837
0.0536367
0.0557209
0.125001
0.0558949
0.0575579
0.0269627
0.0539157
-0.0338538
0.0541072
0.0556724
0.00785281
0.00987964
-0.0697509
0.11226
0.0736793
0.0558656
0.00758736
0.0558203
0.0263154
0.00344314
0.0597291
-0.0247928
0.0546972
0.0273733
0.0729584
0.0544415
0.104422
0.0541054
0.0596652
0.0540251
0.0304425
0.0535706
0.0553971
0.0243866
0.0487633
0.0736581
0.0278003
0.0540595
0.0282651
0.0126608
0.0594742
0.00846343
-0.0118105
0.054023
0.0317656
0.111781
0.00312136
0.0596913
0.0457825
0.0458061
0.0253177
0.0602504
0.153285
0.0576241
0.0540237
0.0540706
-0.021849
-0.00616193
-0.0210343
0.285039
0.103371
0.0525028
0.0264038
0.0114983
0.0543497
-0.0585994
0.0579091
0.106329
-0.000327532
0.0557133
0.146806
-0.00608819
-0.01571
0.0231018
0.0304373
0.0542912
0.0537035
0.0627543
0.0540487
0.0539967
0.138758
0.0559392
0.0671743
0.0533064
0.0403518
0.0467673
0.370917
0.0444205
0.0479774
-0.00802924
0.106447
0.0962793
0.0355198
0.111599
0.0536356
0.0481314
0.00463456
0.0747527
0.126816
0.0554436
-0.000615737
0.041845
0.0523841
0.0555472
0.0539217
0.0667063
0.0443269
0.0544515
0.0313703
0.260026
0.0545284
0.012072
0.0327002
0.0533865
0.0665419
0.0562656
0.0285764
0.0539309
0.0538791
0.0134564
0.0304896
0.0939438
0.144385
-0.223077
0.0595809
0.0674663
-0.0384493
0.0341603
0.0562208
0.0419473
-0.000810259
0.0540735
0.0572346
0.0540205
0.0312413
0.0669508
0.0174849
0.0540805
0.0646894
0.0353066
0.0579273
0.120763
0.0493232
0.0538736
0.0540799
0.0305179
0.022749
0.310612
0.0640099
0.0854407
0.00474348
0.00490352
0.0538018
0.101996
0.054065
0.0540337
0.0545152
-0.000449741
0.0587884
0.0363116
0.00639344
0.0205753
0.00636621
0.031205
0.0661875
0.116214
0.0508434
0.0110676
0.0948258
0.0337776
0.130582
0.0575579
-0.148131
0.1451
0.136834
0.0536007
-0.108531
0.00595382
0.00799581
0.139756
-0.000293267
0.0617415
0.0600578
0.0406438
0.0361384
0.0321616
0.215673
0.0761154
0.0579899
0.0144892
0.0578866
0.0372842
0.0236024
0.0966217
0.037183
0.0712014
0.0864749
0.00528278
0.0986457
0.0325557
0.0547521
0.0637449
0.0529239
0.0467637
0.0528791
0.0583553
0.0197608
-0.0486999
0.0535923
0.166862
0.0531007
0.044183
0.00777754
0.0312465
0.0345685
0.0526657
0.00716532
0.0123669
0.254087
0.0540516
0.00850872
0.0376333
0.00885595
0.0545214
0.0542493
0.153068
0.023954
0.0334312
-0.118852
0.0277477
0.0407929
0.139347
0.0132154
0.122262
0.0594935
0.0172652
0.0389132
0.0487052
-0.0273134
0.00647351
0.0208318
0.0342732
0.0534584
0.00602328
0.00570381
-0.000998667
0.0419291
0.0383386
0.41918
-0.0356765
0.0530722
-0.0129913
0.0194575
-0.102945
0.0539984
0.0331049
0.0335266
0.0539965
0.00376686
0.0277642
0.0565082
-8.26017e-05
-0.0224924
-0.00148947
0.059162
0.0243861
0.0545461
0.0484054
-0.0226339
0.0845895
0.0272533
0.00687052
0.148144
0.025367
0.0197734
0.0214577
0.0068345
-0.0269006
0.0526189
0.0216868
0.0147219
0.0948692
0.280079
0.0134326
0.0361452
0.0182008
0.0539955
0.0949075
0.032386
0.00890743
0.0537266
0.036964
0.00573896
0.0140317
0.151316
0.0108799
0.0300635
0.0305653
0.0585506
0.00345268
0.026729
0.0762426
0.0624301
0.0591841
0.010152
0.0376118
0.0441037
0.0405056
0.0540227
0.00524336
0.0653953
0.030084
-0.00481592
-0.0433628
0.0481032
0.0270742
0.0163084
0.0242321
0.0540998
0.102026
0.101723
0.0746995
0.0544969
0.231324
0.00674701
0.0548334
0.0919998
0.0536591
0.0614489
0.0337361
0.0273239
0.05621
-0.0996111
0.0551046
0.0626538
0.0452306
-0.0108913
-0.0289016
-0.000477302
0.0654772
0.00914096
0.0545265
0.0302371
0.0780066
0.0551172
0.151492
0.0166909
0.0285619
0.00802837
0.0703275
0.0219829
0.0393398
0.0537918
0.0539365
0.0488561
0.0665898
0.124879
0.0143185
0.148943
0.0852975
0.092747
0.055729
0.0729382
0.00699336
0.0539144
-0.0249962
-0.0193139
0.056632
0.0540373
0.0432866
0.052409
0.0539115
0.0681263
0.0356091
0.134682
0.015858
0.0366707
0.0922502
-0.0105951
0.00533892
0.0890095
0.0118753
0.0239056
0.0729643
0.0537179
0.0663664
0.0279741
0.12481
0.132669
0.221211
0.0539442
0.129662
0.0340106
0.0328417
0.106516
0.110229
0.102139
-0.0239948
0.0211896
0.0690522
0.0207688
0.0421318
0.0479148
0.0937733
0.053397
0.0160338
-0.029103
0.0631733
-0.0244221
0.0529943
0.0863474
0.0587401
0.0310804
0.104762
0.165947
0.0225107
0.0457156
0.0162061
0.0348476
0.0737626
4.30287e-05
0.0853321
-0.00222851
0.0539537
0.0214733
-0.137286
0.100937
0.0374843
-0.0411602
0.0106297
0.0441477
0.0531865
0.105634
0.0959368
0.0351571
0.0593203
0.055466
0.00555714
0.0467017
0.00476214
0.0836646
0.0370266
0.144441
0.0539594
0.0496183
0.00197023
0.0395629
0.0404224
0.0691755
0.0601005
0.0302549
0.170026
0.109781
0.0538119
0.00587234
0.0481206
0.0537456
0.136117
0.0533001
0.0216876
0.0249272
0.0533936
0.0534598
0.0560349
0.00703825
0.0645309
0.100232
0.0291919
0.132731
0.0337945
0.0347474
0.038738
0.081147
0.0541327
0.0413264
0.0391138
0.0271406
-0.0221662
0.00887848
0.0701513
0.0467431
0.0584376
0.0323004
0.0452414
0.0643614
0.0209243
0.109034
0.0333258
0.0537664
0.00791455
0.0903658
0.00702975
0.0538681
0.13797
-0.022032
0.0496484
0.101013
0.00583841
0.0576552
0.0987564
0.00396714
0.0920714
0.11682
0.00440715
0.0500403
0.0823649
0.0788108
0.0142351
0.0510781
0.0320006
0.0539249
0.0526884
0.0536702
0.0120883
0.0172282
0.021458
0.0853765
-0.0644217
0.171256
-0.0645579
0.0286819
0.0445104
-0.0435106
0.0517904
-0.0965847
0.0342796
0.0232628
0.0176429
0.0293391
0.0674832
0.044819
0.0338372
0.0581379
0.0538517
0.0812451
-0.0387327
0.0124762
0.00607494
0.0165185
0.056085
0.0287573
0.0161942
0.0590212
0.0245046
0.0406784
0.121538
0.0884136
0.0838293
0.0963009
-0.00194729
-0.000161092
0.00564091
0.0228992
-0.00571259
0.0135129
0.061181
0.0448384
0.133682
0.0774364
0.00729073
0.0540271
0.0984213
0.129458
0.0767952
0.0825072
0.0605177
0.0165196
0.117068
0.0288503
0.0248625
0.0353301
0.0343827
0.0529927
0.0289939
0.0306852
0.0574798
0.0197465
0.0306633
0.0482874
0.107156
0.0467166
0.0425218
0.07861
0.0587382
0.0533312
0.0551821
0.00235515
0.0156442
0.0546496
0.0748951
-0.0523985
0.00616813
0.0596147
0.0187799
-0.0193253
-0.0402985
-0.00652936
0.0349176
0.0357906
0.0594788
0.0347324
0.0267444
-0.000286756
-0.00125864
0.0042064
0.000771787
0.0361953
0.0531074
0.052878
0.131746
0.0660229
0.0360963
0.0406795
-0.00038055
0.0480108
0.0279957
0.151237
0.0901774
0.0117675
0.0586127
0.0159347
0.0536255
0.00899419
0.000702418
0.027664
0.0536662
0.0624887
0.169338
0.0456656
0.0918562
-0.0171432
0.0539842
0.0362739
0.0968987
0.104067
0.0729758
0.0543104
0.0496662
0.0506943
0.0544613
0.0536689
0.0434053
0.00654422
0.0536879
0.0601466
0.0581421
-0.330853
0.121999
0.050657
0.05394
0.0108255
0.0159606
0.0250956
0.0797924
0.0169721
0.053309
0.0459937
0.00493498
0.0543967
0.0128993
0.0951645
0.0743513
0.0526227
0.0113501
0.0541926
0.0414133
0.039335
0.0454391
-0.00295903
0.0624876
0.0366539
0.034686
0.113516
0.0847966
0.0536377
0.0540422
0.0379194
0.0333892
0.0128839
0.0197894
0.0421326
0.00812461
0.0835644
0.0544792
0.0398717
0.00558247
0.0423011
0.0880595
0.067341
0.0559054
0.152951
0.0225068
0.128097
0.142663
0.0282253
-0.00261166
8.65674e-05
0.127146
0.0429519
0.00759168
0.0774017
0.0381029
0.0198925
0.0920742
0.0753114
0.0548941
0.00274008
0.03288
0.0280078
0.0429061
0.00541592
0.0553508
0.0832797
0.0551782
0.0601588
0.0887894
0.0592165
0.0472861
0.109042
0.00757782
0.094446
0.0285572
0.07547
0.00870846
0.0647652
0.0119514
0.0549636
0.0307532
0.00974864
0.0707329
0.0287373
0.0549255
0.0446328
0.0135018
0.0478331
0.0365304
0.0596213
0.0384191
0.0224
-0.00097295
0.0983447
0.107186
0.103288
0.0436224
0.0446647
0.0366248
0.0184119
0.0294298
0.0542634
0.0584317
0.0733209
0.0246311
0.0614205
0.00494349
0.0317476
0.0604489
0.0343784
0.0334167
0.0460645
0.0300851
0.0396945
0.136935
0.261112
0.0229492
0.0237858
0.0276312
0.0310191
0.0391967
0.0366517
0.0356344
0.0245928
0.0119001
0.0529441
0.0539268
0.0530892
0.0064927
0.0537981
0.030511
0.0464693
0.0322396
0.0630678
0.0352377
0.125749
-0.00666685
0.0535661
0.0365209
0.09398
0.0442106
0.063944
0.091167
0.0580169
0.0537098
0.0313348
0.00278819
0.0891937
0.00433579
0.117955
0.0861745
0.00378897
0.0669522
0.0714583
0.00876745
0.0457391
0.0525824
0.0550121
0.0383334
0.0535509
0.0333964
-0.0389107
0.0529076
0.0833368
0.0462511
0.0661251
0.0667876
0.162608
0.0592354
0.0447516
0.00452416
0.01204
0.0898098
0.0324931
0.0866769
0.0548618
0.0400207
0.0686055
0.0485251
0.0341007
0.0544949
0.0548906
0.0321801
0.053513
0.0362451
0.0644582
0.0834773
0.0134133
0.0533384
0.00661258
0.00191031
0.0711348
0.062111
0.0551254
0.071489
0.134577
0.0539157
0.0427773
0.0503229
0.0638913
0.0411969
0.0370912
0.0418806
0.0771387
0.0862334
0.0336071
0.0823196
0.0934231
0.0635644
0.111032
0.0611244
0.0809926
0.027067
0.0453489
0.0203514
0.0545605
0.0677425
0.0551732
0.0865978
0.00217832
0.0582516
-0.0121934
0.0486017
0.0275774
0.120291
0.00751582
0.0504239
0.0536691
0.00619662
0.110201
0.028522
0.0307161
0.0138937
0.0471586
0.0830548
0.0399489
0.0525398
0.0380159
0.00832928
0.0466937
0.0428625
0.392723
0.0418723
0.055205
0.0623816
0.0681498
0.0458232
0.0327149
0.0539348
0.105119
0.0444469
0.0539221
0.0116021
0.0388026
0.0293317
0.0434597
0.0669892
0.046162
0.0478776
0.0470923
0.0352865
0.0831896
0.0539546
0.0415004
0.0606304
0.0480425
0.0426341
0.0592778
0.0587532
0.0629652
0.0633533
0.054004
0.0463538
0.0547708
0.0301407
-0.00168303
-0.000700292
0.148495
0.0777865
-0.00882807
0.0314514
0.0533364
0.0562128
0.0618635
0.0771486
0.0542299
0.0282335
0.0786911
0.0597179
0.0267478
-0.00963382
0.0216894
0.0533253
0.0396379
0.0538486
0.0971801
0.234818
0.0421149
0.0604795
0.0446631
0.0059028
0.0536624
0.0756927
0.0290634
0.0490137
0.0543666
0.0345988
0.0997351
0.0407821
0.0597361
0.026402
0.0446908
0.046794
0.0908578
0.0634888
0.0432636
0.0556852
0.0414325
0.0588574
0.040444
0.054188
0.0415259
0.0537027
0.0586542
0.0107823
0.0717529
0.014766
0.0766155
0.0769232
0.0572268
0.0411472
0.037086
0.080391
0.0949602
0.0111255
0.045346
0.0584398
0.061789
0.0422439
0.0525714
0.0472496
0.0386765
0.0292134
0.0291878
0.0487026
0.0154052
0.0421754
0.0825923
0.0429966
0.0457815
0.0409557
0.0248139
0.0871592
0.0571744
-0.000600926
0.041943
0.0450026
0.00837589
0.0563915
0.000669216
0.0558264
0.0453261
0.049861
0.0511112
0.0547077
0.0458359
0.00355695
0.0539331
0.0205132
0.0745628
0.0559926
0.0610301
0.0341716
0.0989812
0.0639242
0.0542621
0.0365116
-0.0653989
0.0540327
0.00503402
-0.0787894
0.0688049
0.0885131
0.0571554
0.0436796
0.0311595
0.0747479
0.0620978
0.053627
0.0948675
0.0113075
0.0845965
0.0539592
0.0535371
0.0462534
0.0477178
0.0484282
0.0690857
0.0782297
0.0489938
-0.00190143
0.0511765
0.0572962
0.0442332
0.0337462
0.000248634
0.0535275
0.0459806
0.0241802
0.048631
0.0495112
0.0559674
0.1304
0.0754654
0.0543218
0.0657177
0.0566531
0.0455264
0.0772823
0.063097
0.0471397
0.0661607
0.0388335
0.0658797
0.087659
0.00387576
0.0240666
0.0544043
0.0728585
0.0513613
0.056042
0.0550741
0.0448308
0.00155629
0.0004113
0.06228
0.0338677
0.0357434
0.0292288
0.0530637
0.0529549
0.0543193
0.0734236
0.0361407
0.0539904
0.0455723
0.0578619
0.0223921
0.0117508
0.0539969
0.0536078
0.0382318
0.0517486
0.0524278
0.0453661
0.0487311
0.0425849
0.0696719
0.0649799
0.0356686
0.051897
0.0563933
0.0601225
0.0461924
0.0539451
0.0458916
0.0317194
0.00124393
0.00524363
0.0369545
0.125739
0.0465464
-0.0577048
0.0909319
0.0460168
0.0443332
0.0570996
0.0523494
0.0539973
0.0553183
0.0597964
0.0453636
0.0552751
0.0533632
0.0990191
0.00561548
0.0349492
0.054123
0.0582498
0.0664592
0.0734932
0.0336764
0.0558772
0.0538893
0.0527039
0.0470565
0.0306117
0.0276987
0.00629899
0.064711
0.0522744
0.0417542
0.0591476
0.0573169
0.0572059
0.0516677
0.0613417
0.0540081
0.0157311
-0.00248815
0.0534462
0.0690947
0.0455587
0.0481726
0.0504372
0.0550241
-0.0477169
0.0664989
-0.000155222
0.0463965
0.00671139
0.0557947
0.0714081
0.130239
0.0586994
0.0541546
0.0314057
0.0204603
0.113609
0.0472681
0.0698566
0.0484639
0.0536379
0.0675719
0.0518766
0.123951
0.000137388
0.0816982
0.0567612
0.0518495
0.053985
0.0515954
-0.02444
0.0411598
0.0535842
0.0600795
0.0525909
0.0535678
0.0535381
0.0109538
0.00349139
0.0582056
0.0527204
0.0852574