/*--------------------------------*- C++ -*----------------------------------*\
  =========                 |
  \\      /  F ield         | OpenFOAM: The Open Source CFD Toolbox
   \\    /   O peration     | Website:  https://openfoam.org
    \\  /    A nd           | Version:  7
     \\/     M anipulation  |
\*---------------------------------------------------------------------------*/
FoamFile
{
    version     2.0;
    format      ascii;
    class       volScalarField;
    location    "5.5";
    object      rho;
}
// * * * * * * * * * * * * * * * * * * * * * * * * * * * * * * * * * * * * * //

dimensions      [1 -3 0 0 0 0 0];

internalField   nonuniform List<scalar> 
2413
(
1.40001
1.40001
1.40001
1.40001
1.40001
1.40001
1.40001
1.40001
1.40001
1.40001
1.40001
1.40001
1.40001
1.40001
1.40001
1.40001
1.40001
1.40001
1.40001
1.40001
1.40001
1.40001
1.40001
1.40001
1.40001
1.40001
1.40001
1.40001
1.40001
1.40001
1.40001
1.40006
1.40111
1.41261
1.4776
1.61929
1.73993
1.77568
1.77594
1.77049
1.76249
1.75758
1.75451
1.75246
1.74983
1.74628
1.74201
1.73642
1.73031
1.72609
1.72293
1.72003
1.71683
1.71322
1.70895
1.70371
1.69864
1.69502
1.69188
1.68869
1.68528
1.68149
1.67713
1.67236
1.66822
1.66494
1.66186
1.65871
1.65536
1.65171
1.64765
1.64344
1.63969
1.63651
1.63359
1.63061
1.62747
1.62408
1.62041
1.40001
1.40001
1.40001
1.40001
1.40001
1.40001
1.40001
1.40001
1.40001
1.40001
1.40001
1.40001
1.40001
1.40001
1.40001
1.40001
1.40001
1.40001
1.40001
1.40001
1.40001
1.40001
1.40001
1.40001
1.40001
1.40001
1.40001
1.40001
1.40001
1.40001
1.40001
1.40001
1.40001
1.40001
1.40001
1.40001
1.40001
1.40001
1.40001
1.40001
1.40001
1.40008
1.40137
1.4148
1.48351
1.62658
1.7476
1.77553
1.77319
1.76669
1.76242
1.75949
1.75759
1.75473
1.75111
1.74644
1.74022
1.73438
1.73072
1.72782
1.72508
1.72184
1.71813
1.71366
1.70824
1.70337
1.69991
1.69679
1.69357
1.6901
1.68621
1.68169
1.67692
1.673
1.66982
1.66675
1.66357
1.66017
1.6564
1.6522
1.64795
1.64432
1.6413
1.63837
1.63533
1.63211
1.62857
1.62481
1.40001
1.40001
1.40001
1.40001
1.40001
1.40001
1.40001
1.40001
1.40001
1.40001
1.40001
1.40001
1.40001
1.40001
1.40001
1.40001
1.40001
1.40001
1.40001
1.40001
1.40001
1.40001
1.40001
1.40001
1.40001
1.40001
1.40001
1.40001
1.40001
1.40001
1.40001
1.40001
1.40001
1.40001
1.40001
1.40001
1.40001
1.40001
1.40001
1.40001
1.40001
1.40001
1.4001
1.4016
1.41673
1.48695
1.63592
1.74926
1.77125
1.76982
1.76723
1.7645
1.76239
1.75931
1.75558
1.75053
1.744
1.73874
1.73546
1.73283
1.73019
1.72689
1.72296
1.71805
1.71242
1.708
1.70474
1.70167
1.69844
1.69491
1.69089
1.68624
1.68157
1.67788
1.67473
1.67164
1.66841
1.66493
1.66105
1.65676
1.65254
1.64912
1.64613
1.64315
1.64005
1.63672
1.63308
1.62923
1.40001
1.40001
1.40001
1.40001
1.40001
1.40001
1.40001
1.40001
1.40001
1.40001
1.40001
1.40001
1.40001
1.40001
1.40001
1.40001
1.40001
1.40001
1.40001
1.40001
1.40001
1.40001
1.40001
1.40001
1.40001
1.40001
1.40001
1.40001
1.40001
1.40001
1.40001
1.40001
1.40001
1.40001
1.40001
1.40001
1.40001
1.40001
1.40001
1.40001
1.40001
1.40001
1.40001
1.40011
1.40184
1.41771
1.49047
1.64206
1.74214
1.76837
1.77139
1.77123
1.76821
1.7645
1.76032
1.75473
1.74816
1.74351
1.74036
1.73774
1.73501
1.73159
1.72746
1.7223
1.71678
1.71275
1.7096
1.70653
1.70328
1.69968
1.69556
1.69084
1.68634
1.68284
1.67973
1.67658
1.67326
1.66964
1.6656
1.66125
1.6573
1.65407
1.65105
1.648
1.6448
1.64135
1.63758
1.63361
1.40001
1.40001
1.40001
1.40001
1.40001
1.40001
1.40001
1.40001
1.40001
1.40001
1.40001
1.40001
1.40001
1.40001
1.40001
1.40001
1.40001
1.40001
1.40001
1.40001
1.40001
1.40001
1.40001
1.40001
1.40001
1.40001
1.40001
1.40001
1.40001
1.40001
1.40001
1.40001
1.40001
1.40001
1.40001
1.40001
1.40001
1.40001
1.40001
1.40001
1.40001
1.40001
1.40001
1.40001
1.40012
1.40197
1.41827
1.49348
1.63699
1.73774
1.77136
1.77615
1.77415
1.76953
1.76343
1.75698
1.75197
1.7487
1.74585
1.74313
1.73997
1.7363
1.73185
1.72637
1.72139
1.71793
1.71482
1.71164
1.70822
1.7044
1.7
1.69521
1.69109
1.68781
1.68472
1.68153
1.67813
1.67436
1.67013
1.6658
1.66216
1.65904
1.65601
1.65291
1.6496
1.64599
1.64206
1.63812
1.40001
1.40001
1.40001
1.40001
1.40001
1.40001
1.40001
1.40001
1.40001
1.40001
1.40001
1.40001
1.40001
1.40001
1.40001
1.40001
1.40001
1.40001
1.40001
1.40001
1.40001
1.40001
1.40001
1.40001
1.40001
1.40001
1.40001
1.40001
1.40001
1.40001
1.40001
1.40001
1.40001
1.40001
1.40001
1.40001
1.40001
1.40001
1.40001
1.40001
1.40001
1.40001
1.40001
1.40001
1.40001
1.40013
1.40203
1.41846
1.49236
1.63212
1.73523
1.77469
1.77753
1.77388
1.76658
1.76019
1.75673
1.7543
1.7519
1.74875
1.74506
1.74048
1.73492
1.7298
1.72626
1.7232
1.72005
1.71673
1.71319
1.70923
1.70464
1.69996
1.6962
1.69298
1.6898
1.68648
1.68289
1.6789
1.67455
1.67046
1.66705
1.66398
1.66095
1.65778
1.65437
1.6506
1.64658
1.64282
1.40001
1.40001
1.40001
1.40001
1.40001
1.40001
1.40001
1.40001
1.40001
1.40001
1.40001
1.40001
1.40001
1.40001
1.40001
1.40001
1.40001
1.40001
1.40001
1.40001
1.40001
1.40001
1.40001
1.40001
1.40001
1.40001
1.40001
1.40001
1.40001
1.40001
1.40001
1.40001
1.40001
1.40001
1.40001
1.40001
1.40001
1.40001
1.40001
1.40001
1.40001
1.40001
1.40001
1.40001
1.40001
1.40001
1.40013
1.40199
1.41812
1.49021
1.62255
1.74035
1.77473
1.77558
1.77016
1.76468
1.76119
1.7591
1.75697
1.75373
1.74968
1.74422
1.73826
1.7343
1.7315
1.72869
1.72544
1.7218
1.71765
1.71294
1.70832
1.70452
1.7013
1.69815
1.69491
1.69146
1.68768
1.68347
1.67913
1.67535
1.67211
1.66905
1.66592
1.6626
1.65901
1.6551
1.65118
1.64768
1.40001
1.40001
1.40001
1.40001
1.40001
1.40001
1.40001
1.40001
1.40001
1.40001
1.40001
1.40001
1.40001
1.40001
1.40001
1.40001
1.40001
1.40001
1.40001
1.40001
1.40001
1.40001
1.40001
1.40001
1.40001
1.40001
1.40001
1.40001
1.40001
1.40001
1.40001
1.40001
1.40001
1.40001
1.40001
1.40001
1.40001
1.40001
1.40001
1.40001
1.40001
1.40001
1.40001
1.40001
1.40001
1.40001
1.40001
1.40013
1.40189
1.41749
1.48337
1.61851
1.73784
1.77001
1.772
1.76912
1.76698
1.76521
1.76236
1.75878
1.75406
1.74775
1.74219
1.73893
1.73635
1.73386
1.73065
1.72694
1.72245
1.71716
1.71264
1.70942
1.70642
1.70328
1.69988
1.69614
1.69196
1.68758
1.68365
1.68036
1.67731
1.67421
1.67095
1.6674
1.66351
1.65949
1.65577
1.65251
1.40001
1.40001
1.40001
1.40001
1.40001
1.40001
1.40001
1.40001
1.40001
1.40001
1.40001
1.40001
1.40001
1.40001
1.40001
1.40001
1.40001
1.40001
1.40001
1.40001
1.40001
1.40001
1.40001
1.40001
1.40001
1.40001
1.40001
1.40001
1.40001
1.40001
1.40001
1.40001
1.40001
1.40001
1.40001
1.40001
1.40001
1.40001
1.40001
1.40001
1.40001
1.40001
1.40001
1.40001
1.40001
1.40001
1.40001
1.40001
1.40012
1.40173
1.41578
1.47755
1.6113
1.72944
1.76246
1.77102
1.77216
1.77132
1.76757
1.76325
1.75789
1.75159
1.74695
1.74392
1.74133
1.73868
1.73536
1.73149
1.72661
1.72126
1.71742
1.71449
1.7116
1.70845
1.70499
1.70103
1.69647
1.69203
1.68854
1.6855
1.68247
1.67928
1.67584
1.67205
1.66795
1.66396
1.66049
1.65746
1.40001
1.40001
1.40001
1.40001
1.40001
1.40001
1.40001
1.40001
1.40001
1.40001
1.40001
1.40001
1.40001
1.40001
1.40001
1.40001
1.40001
1.40001
1.40001
1.40001
1.40001
1.40001
1.40001
1.40001
1.40001
1.40001
1.40001
1.40001
1.40001
1.40001
1.40001
1.40001
1.40001
1.40001
1.40001
1.40001
1.40001
1.40001
1.40001
1.40001
1.40001
1.40001
1.40001
1.40001
1.40001
1.40001
1.40001
1.40001
1.40001
1.4001
1.40151
1.41411
1.4704
1.59962
1.71646
1.76038
1.77252
1.77464
1.77215
1.76784
1.76191
1.75556
1.75152
1.74859
1.7463
1.74366
1.74039
1.73642
1.73121
1.72607
1.72262
1.71963
1.71656
1.71326
1.70959
1.70534
1.70076
1.69684
1.6937
1.69071
1.68763
1.68434
1.68072
1.67667
1.67241
1.66862
1.6655
1.66257
1.40001
1.40001
1.40001
1.40001
1.40001
1.40001
1.40001
1.40001
1.40001
1.40001
1.40001
1.40001
1.40001
1.40001
1.40001
1.40001
1.40001
1.40001
1.40001
1.40001
1.40001
1.40001
1.40001
1.40001
1.40001
1.40001
1.40001
1.40001
1.40001
1.40001
1.40001
1.40001
1.40001
1.40001
1.40001
1.40001
1.40001
1.40001
1.40001
1.40001
1.40001
1.40001
1.40001
1.40001
1.40001
1.40001
1.40001
1.40001
1.40001
1.40001
1.40008
1.40131
1.41182
1.46342
1.58458
1.70143
1.76164
1.77705
1.77698
1.77229
1.76589
1.7602
1.75673
1.75391
1.7511
1.74797
1.74433
1.73984
1.73482
1.73083
1.72775
1.72478
1.72169
1.71833
1.71448
1.70995
1.70542
1.70189
1.6988
1.6957
1.69247
1.68903
1.68526
1.68113
1.67709
1.67373
1.67076
1.66775
1.40001
1.40001
1.40001
1.40001
1.40001
1.40001
1.40001
1.40001
1.40001
1.40001
1.40001
1.40001
1.40001
1.40001
1.40001
1.40001
1.40001
1.40001
1.40001
1.40001
1.40001
1.40001
1.40001
1.40001
1.40001
1.40001
1.40001
1.40001
1.40001
1.40001
1.40001
1.40001
1.40001
1.40001
1.40001
1.40001
1.40001
1.40001
1.40001
1.40001
1.40001
1.40001
1.40001
1.40001
1.40001
1.40001
1.40001
1.40001
1.40001
1.40001
1.40001
1.40007
1.40101
1.41
1.45548
1.56287
1.69512
1.75883
1.77302
1.77191
1.76836
1.76475
1.76187
1.75914
1.75614
1.75288
1.7489
1.74395
1.73937
1.73598
1.73291
1.72984
1.72653
1.7228
1.71853
1.71404
1.71026
1.70715
1.70412
1.70095
1.69754
1.69379
1.68968
1.68551
1.68189
1.6788
1.67583
1.67278
1.40001
1.40001
1.40001
1.40001
1.40001
1.40001
1.40001
1.40001
1.40001
1.40001
1.40001
1.40001
1.40001
1.40001
1.40001
1.40001
1.40001
1.40001
1.40001
1.40001
1.40001
1.40001
1.40001
1.40001
1.40001
1.40001
1.40001
1.40001
1.40001
1.40001
1.40001
1.40001
1.40001
1.40001
1.40001
1.40001
1.40001
1.40001
1.40001
1.40001
1.40001
1.40001
1.40001
1.40001
1.40001
1.40001
1.40001
1.40001
1.40001
1.40001
1.40001
1.40001
1.40005
1.4008
1.40805
1.44555
1.54868
1.67565
1.75483
1.77087
1.7729
1.77172
1.7686
1.76459
1.76066
1.75656
1.75175
1.74729
1.74401
1.74106
1.73814
1.73513
1.73178
1.7278
1.72315
1.71868
1.7152
1.71213
1.70905
1.70579
1.70226
1.69841
1.69431
1.69044
1.68715
1.68408
1.68096
1.67768
1.40001
1.40001
1.40001
1.40001
1.40001
1.40001
1.40001
1.40001
1.40001
1.40001
1.40001
1.40001
1.40001
1.40001
1.40001
1.40001
1.40001
1.40001
1.40001
1.40001
1.40001
1.40001
1.40001
1.40001
1.40001
1.40001
1.40001
1.40001
1.40001
1.40001
1.40001
1.40001
1.40001
1.40001
1.40001
1.40001
1.40001
1.40001
1.40001
1.40001
1.40001
1.40001
1.40001
1.40001
1.40001
1.40001
1.40001
1.40001
1.40001
1.40001
1.40001
1.40001
1.40001
1.40004
1.40059
1.40609
1.43822
1.52598
1.66351
1.7392
1.76681
1.77171
1.77222
1.76942
1.76558
1.76092
1.75568
1.75201
1.74914
1.74622
1.74311
1.73964
1.73572
1.73146
1.72721
1.72354
1.72041
1.71736
1.71418
1.71075
1.70697
1.70281
1.69875
1.69539
1.69237
1.68933
1.68614
1.68272
1.40001
1.40001
1.40001
1.40001
1.40001
1.40001
1.40001
1.40001
1.40001
1.40001
1.40001
1.40001
1.40001
1.40001
1.40001
1.40001
1.40001
1.40001
1.40001
1.40001
1.40001
1.40001
1.40001
1.40001
1.40001
1.40001
1.40001
1.40001
1.40001
1.40001
1.40001
1.40001
1.40001
1.40001
1.40001
1.40001
1.40001
1.40001
1.40001
1.40001
1.40001
1.40001
1.40001
1.40001
1.40001
1.40001
1.40001
1.40001
1.40001
1.40001
1.40001
1.40001
1.40001
1.40001
1.40003
1.40041
1.4047
1.42879
1.51159
1.63587
1.72954
1.76674
1.77489
1.77372
1.76985
1.76443
1.75934
1.75591
1.75324
1.75065
1.74769
1.74415
1.74
1.73555
1.7316
1.72838
1.72535
1.72222
1.71891
1.71536
1.71142
1.70733
1.70375
1.70063
1.6976
1.69446
1.69105
1.68734
1.40001
1.40001
1.40001
1.40001
1.40001
1.40001
1.40001
1.40001
1.40001
1.40001
1.40001
1.40001
1.40001
1.40001
1.40001
1.40001
1.40001
1.40001
1.40001
1.40001
1.40001
1.40001
1.40001
1.40001
1.40001
1.40001
1.40001
1.40001
1.40001
1.40001
1.40001
1.40001
1.40001
1.40001
1.40001
1.40001
1.40001
1.40001
1.40001
1.40001
1.40001
1.40001
1.40001
1.40001
1.40001
1.40001
1.40001
1.40001
1.40001
1.40001
1.40001
1.40001
1.40001
1.40001
1.40001
1.40002
1.40028
1.40318
1.42291
1.49067
1.60917
1.71887
1.76217
1.7725
1.77092
1.76763
1.76395
1.76085
1.75796
1.75505
1.75187
1.7482
1.74389
1.73972
1.73651
1.73354
1.73045
1.72723
1.72369
1.71973
1.71567
1.71197
1.70874
1.70571
1.70264
1.6994
1.6959
1.69212
1.40001
1.40001
1.40001
1.40001
1.40001
1.40001
1.40001
1.40001
1.40001
1.40001
1.40001
1.40001
1.40001
1.40001
1.40001
1.40001
1.40001
1.40001
1.40001
1.40001
1.40001
1.40001
1.40001
1.40001
1.40001
1.40001
1.40001
1.40001
1.40001
1.40001
1.40001
1.40001
1.40001
1.40001
1.40001
1.40001
1.40001
1.40001
1.40001
1.40001
1.40001
1.40001
1.40001
1.40001
1.40001
1.40001
1.40001
1.40001
1.40001
1.40001
1.40001
1.40001
1.40001
1.40001
1.40001
1.40001
1.40001
1.40018
1.40224
1.41649
1.47178
1.58604
1.69551
1.75845
1.771
1.77121
1.76982
1.7669
1.76322
1.75941
1.75523
1.75106
1.74747
1.74424
1.74121
1.7382
1.73506
1.73174
1.72817
1.72431
1.72043
1.71691
1.71373
1.71066
1.7075
1.70412
1.7005
1.69669
1.40001
1.40001
1.40001
1.40001
1.40001
1.40001
1.40001
1.40001
1.40001
1.40001
1.40001
1.40001
1.40001
1.40001
1.40001
1.40001
1.40001
1.40001
1.40001
1.40001
1.40001
1.40001
1.40001
1.40001
1.40001
1.40001
1.40001
1.40001
1.40001
1.40001
1.40001
1.40001
1.40001
1.40001
1.40001
1.40001
1.40001
1.40001
1.40001
1.40001
1.40001
1.40001
1.40001
1.40001
1.40001
1.40001
1.40001
1.40001
1.40001
1.40001
1.40001
1.40001
1.40001
1.40001
1.40001
1.40001
1.40001
1.40001
1.40011
1.40142
1.41154
1.45647
1.55265
1.68038
1.74356
1.7655
1.76967
1.77002
1.76741
1.76375
1.75935
1.75505
1.75183
1.74904
1.74599
1.74266
1.7393
1.73585
1.73224
1.72856
1.72499
1.72173
1.71868
1.71557
1.71231
1.70882
1.70503
1.70131
1.40001
1.40001
1.40001
1.40001
1.40001
1.40001
1.40001
1.40001
1.40001
1.40001
1.40001
1.40001
1.40001
1.40001
1.40001
1.40001
1.40001
1.40001
1.40001
1.40001
1.40001
1.40001
1.40001
1.40001
1.40001
1.40001
1.40001
1.40001
1.40001
1.40001
1.40001
1.40001
1.40001
1.40001
1.40001
1.40001
1.40001
1.40001
1.40001
1.40001
1.40001
1.40001
1.40001
1.40001
1.40001
1.40001
1.40001
1.40001
1.40001
1.40001
1.40001
1.40001
1.40001
1.40001
1.40001
1.40001
1.40001
1.40001
1.40001
1.40006
1.40087
1.40793
1.43974
1.53105
1.64552
1.73196
1.765
1.77193
1.7705
1.76777
1.76368
1.75924
1.75552
1.75263
1.74984
1.74674
1.74349
1.74009
1.73642
1.73289
1.72973
1.72663
1.72346
1.72018
1.71669
1.71312
1.70962
1.70626
1.40001
1.40001
1.40001
1.40001
1.40001
1.40001
1.40001
1.40001
1.40001
1.40001
1.40001
1.40001
1.40001
1.40001
1.40001
1.40001
1.40001
1.40001
1.40001
1.40001
1.40001
1.40001
1.40001
1.40001
1.40001
1.40001
1.40001
1.40001
1.40001
1.40001
1.40001
1.40001
1.40001
1.40001
1.40001
1.40001
1.40001
1.40001
1.40001
1.40001
1.40001
1.40001
1.40001
1.40001
1.40001
1.40001
1.40001
1.40001
1.40001
1.40001
1.40001
1.40001
1.40001
1.40001
1.40001
1.40001
1.40001
1.40001
1.40001
1.40001
1.40004
1.40052
1.40481
1.42965
1.49953
1.61794
1.71527
1.75566
1.76818
1.76964
1.76806
1.76492
1.76102
1.75717
1.7538
1.75072
1.74745
1.74379
1.7404
1.73724
1.73416
1.73111
1.72791
1.72451
1.72108
1.71766
1.71434
1.71111
1.40001
1.40001
1.40001
1.40001
1.40001
1.40001
1.40001
1.40001
1.40001
1.40001
1.40001
1.40001
1.40001
1.40001
1.40001
1.40001
1.40001
1.40001
1.40001
1.40001
1.40001
1.40001
1.40001
1.40001
1.40001
1.40001
1.40001
1.40001
1.40001
1.40001
1.40001
1.40001
1.40001
1.40001
1.40001
1.40001
1.40001
1.40001
1.40001
1.40001
1.40001
1.40001
1.40001
1.40001
1.40001
1.40001
1.40001
1.40001
1.40001
1.40001
1.40001
1.40001
1.40001
1.40001
1.40001
1.40001
1.40001
1.40001
1.40001
1.40001
1.40001
1.40002
1.40027
1.40305
1.4191
1.47675
1.58405
1.68789
1.75082
1.766
1.76909
1.76827
1.76532
1.76113
1.75696
1.7539
1.75102
1.74784
1.74463
1.74156
1.73843
1.73522
1.73205
1.72879
1.72545
1.7221
1.71881
1.71571
1.40001
1.40001
1.40001
1.40001
1.40001
1.40001
1.40001
1.40001
1.40001
1.40001
1.40001
1.40001
1.40001
1.40001
1.40001
1.40001
1.40001
1.40001
1.40001
1.40001
1.40001
1.40001
1.40001
1.40001
1.40001
1.40001
1.40001
1.40001
1.40001
1.40001
1.40001
1.40001
1.40001
1.40001
1.40001
1.40001
1.40001
1.40001
1.40001
1.40001
1.40001
1.40001
1.40001
1.40001
1.40001
1.40001
1.40001
1.40001
1.40001
1.40001
1.40001
1.40001
1.40001
1.40001
1.40001
1.40001
1.40001
1.40001
1.40001
1.40001
1.40001
1.40001
1.40001
1.40015
1.40167
1.4124
1.45534
1.5455
1.66572
1.73161
1.7608
1.76942
1.76918
1.76616
1.76234
1.75859
1.75515
1.75178
1.74832
1.74503
1.74214
1.73917
1.73602
1.73287
1.72959
1.72633
1.72331
1.72032
1.40001
1.40001
1.40001
1.40001
1.40001
1.40001
1.40001
1.40001
1.40001
1.40001
1.40001
1.40001
1.40001
1.40001
1.40001
1.40001
1.40001
1.40001
1.40001
1.40001
1.40001
1.40001
1.40001
1.40001
1.40001
1.40001
1.40001
1.40001
1.40001
1.40001
1.40001
1.40001
1.40001
1.40001
1.40001
1.40001
1.40001
1.40001
1.40001
1.40001
1.40001
1.40001
1.40001
1.40001
1.40001
1.40001
1.40001
1.40001
1.40001
1.40001
1.40001
1.40001
1.40001
1.40001
1.40001
1.40001
1.40001
1.40001
1.40001
1.40001
1.40001
1.40001
1.40001
1.40001
1.40007
1.4009
1.40753
1.43626
1.51747
1.62354
1.71715
1.75474
1.76567
1.76682
1.76592
1.76268
1.75849
1.75497
1.7519
1.74895
1.74602
1.74312
1.74004
1.73679
1.73367
1.73062
1.72757
1.72455
1.40001
1.40001
1.40001
1.40001
1.40001
1.40001
1.40001
1.40001
1.40001
1.40001
1.40001
1.40001
1.40001
1.40001
1.40001
1.40001
1.40001
1.40001
1.40001
1.40001
1.40001
1.40001
1.40001
1.40001
1.40001
1.40001
1.40001
1.40001
1.40001
1.40001
1.40001
1.40001
1.40001
1.40001
1.40001
1.40001
1.40001
1.40001
1.40001
1.40001
1.40001
1.40001
1.40001
1.40001
1.40001
1.40001
1.40001
1.40001
1.40001
1.40001
1.40001
1.40001
1.40001
1.40001
1.40001
1.40001
1.40001
1.40001
1.40001
1.40001
1.40001
1.40001
1.40001
1.40001
1.40001
1.40003
1.40045
1.40406
1.42454
1.4823
1.59154
1.6879
1.74184
1.76419
1.76914
1.76766
1.76365
1.75988
1.75649
1.75304
1.7494
1.74615
1.7434
1.74056
1.7376
1.73467
1.73162
1.72853
1.40001
1.40001
1.40001
1.40001
1.40001
1.40001
1.40001
1.40001
1.40001
1.40001
1.40001
1.40001
1.40001
1.40001
1.40001
1.40001
1.40001
1.40001
1.40001
1.40001
1.40001
1.40001
1.40001
1.40001
1.40001
1.40001
1.40001
1.40001
1.40001
1.40001
1.40001
1.40001
1.40001
1.40001
1.40001
1.40001
1.40001
1.40001
1.40001
1.40001
1.40001
1.40001
1.40001
1.40001
1.40001
1.40001
1.40001
1.40001
1.40001
1.40001
1.40001
1.40001
1.40001
1.40001
1.40001
1.40001
1.40001
1.40001
1.40001
1.40001
1.40001
1.40001
1.40001
1.40001
1.40001
1.40001
1.40002
1.4002
1.40225
1.41397
1.45916
1.54908
1.65459
1.73191
1.75646
1.76448
1.76372
1.76249
1.76005
1.75698
1.75353
1.75025
1.7473
1.74446
1.74144
1.73829
1.73535
1.73242
1.40001
1.40001
1.40001
1.40001
1.40001
1.40001
1.40001
1.40001
1.40001
1.40001
1.40001
1.40001
1.40001
1.40001
1.40001
1.40001
1.40001
1.40001
1.40001
1.40001
1.40001
1.40001
1.40001
1.40001
1.40001
1.40001
1.40001
1.40001
1.40001
1.40001
1.40001
1.40001
1.40001
1.40001
1.40001
1.40001
1.40001
1.40001
1.40001
1.40001
1.40001
1.40001
1.40001
1.40001
1.40001
1.40001
1.40001
1.40001
1.40001
1.40001
1.40001
1.40001
1.40001
1.40001
1.40001
1.40001
1.40001
1.40001
1.40001
1.40001
1.40001
1.40001
1.40001
1.40001
1.40001
1.40001
1.40001
1.40001
1.40009
1.40104
1.40814
1.43772
1.51052
1.62113
1.70132
1.75043
1.76397
1.76615
1.76422
1.76161
1.75833
1.75447
1.75063
1.7474
1.74466
1.74186
1.73905
1.73628
1.40001
1.40001
1.40001
1.40001
1.40001
1.40001
1.40001
1.40001
1.40001
1.40001
1.40001
1.40001
1.40001
1.40001
1.40001
1.40001
1.40001
1.40001
1.40001
1.40001
1.40001
1.40001
1.40001
1.40001
1.40001
1.40001
1.40001
1.40001
1.40001
1.40001
1.40001
1.40001
1.40001
1.40001
1.40001
1.40001
1.40001
1.40001
1.40001
1.40001
1.40001
1.40001
1.40001
1.40001
1.40001
1.40001
1.40001
1.40001
1.40001
1.40001
1.40001
1.40001
1.40001
1.40001
1.40001
1.40001
1.40001
1.40001
1.40001
1.40001
1.40001
1.40001
1.40001
1.40001
1.40001
1.40001
1.40001
1.40001
1.40001
1.40004
1.40048
1.40418
1.42231
1.48003
1.5713
1.67894
1.73411
1.75602
1.76216
1.76309
1.76212
1.75943
1.75563
1.7518
1.74856
1.74561
1.74254
1.73948
1.40001
1.40001
1.40001
1.40001
1.40001
1.40001
1.40001
1.40001
1.40001
1.40001
1.40001
1.40001
1.40001
1.40001
1.40001
1.40001
1.40001
1.40001
1.40001
1.40001
1.40001
1.40001
1.40001
1.40001
1.40001
1.40001
1.40001
1.40001
1.40001
1.40001
1.40001
1.40001
1.40001
1.40001
1.40001
1.40001
1.40001
1.40001
1.40001
1.40001
1.40001
1.40001
1.40001
1.40001
1.40001
1.40001
)
;

boundaryField
{
    inlet
    {
        type            calculated;
        value           nonuniform 0();
    }
    outlet
    {
        type            calculated;
        value           nonuniform 0();
    }
    bottom
    {
        type            symmetryPlane;
    }
    top
    {
        type            symmetryPlane;
    }
    obstacle
    {
        type            calculated;
        value           nonuniform 0();
    }
    front
    {
        type            empty;
    }
    back
    {
        type            empty;
    }
    procBoundary43to34
    {
        type            processor;
        value           nonuniform List<scalar> 
16
(
1.40001
1.40001
1.40001
1.40001
1.40001
1.40001
1.40001
1.40001
1.40001
1.40001
1.40001
1.40001
1.40001
1.40001
1.40001
1.40001
)
;
    }
    procBoundary43to35
    {
        type            processor;
        value           nonuniform List<scalar> 
89
(
1.40001
1.40001
1.40001
1.40001
1.40001
1.40001
1.40001
1.40001
1.40001
1.40001
1.40001
1.40001
1.40001
1.40001
1.40001
1.40001
1.40001
1.40001
1.40001
1.40001
1.40001
1.40001
1.40001
1.40001
1.40001
1.40001
1.40001
1.40001
1.40001
1.40001
1.40005
1.40087
1.41034
1.46935
1.61226
1.73135
1.77344
1.77569
1.77255
1.76607
1.7583
1.75316
1.74998
1.74767
1.74512
1.74162
1.73745
1.73207
1.72588
1.72132
1.71803
1.71503
1.71182
1.70825
1.7041
1.69905
1.6939
1.69015
1.68699
1.68382
1.68044
1.67673
1.67251
1.66783
1.66352
1.66007
1.65695
1.65382
1.65055
1.64701
1.64312
1.63896
1.63512
1.63183
1.62884
1.62591
1.62287
1.61963
1.61611
1.40001
1.40001
1.40001
1.40001
1.40001
1.40001
1.40001
1.40001
1.40001
1.40001
)
;
    }
    procBoundary43to36
    {
        type            processor;
        value           uniform 1.61681;
    }
    procBoundary43to42
    {
        type            processor;
        value           nonuniform List<scalar> 
11
(
1.40001
1.40001
1.40001
1.40001
1.40001
1.40001
1.40001
1.40001
1.40001
1.40001
1.40001
)
;
    }
    procBoundary43to44
    {
        type            processor;
        value           nonuniform List<scalar> 
26
(
1.62116
1.62551
1.63005
1.63478
1.63958
1.6445
1.6495
1.6545
1.65956
1.66457
1.66955
1.67417
1.67892
1.68343
1.68823
1.69294
1.69799
1.7031
1.70793
1.71268
1.71724
1.72145
1.72554
1.72939
1.73327
1.73663
)
;
    }
    procBoundary43to51
    {
        type            processor;
        value           nonuniform List<scalar> 
89
(
1.40001
1.40001
1.40001
1.40001
1.40001
1.40001
1.40001
1.40001
1.40001
1.40001
1.40001
1.40001
1.40001
1.40001
1.40001
1.40001
1.40001
1.40001
1.40001
1.40001
1.40001
1.40001
1.40001
1.40001
1.40002
1.4002
1.40194
1.413
1.4494
1.53556
1.63423
1.71283
1.751
1.76065
1.76319
1.76241
1.75966
1.75575
1.75193
1.74891
1.74603
1.74312
1.40001
1.40001
1.40001
1.40001
1.40001
1.40001
1.40001
1.40001
1.40001
1.40001
1.40001
1.40001
1.40001
1.40001
1.40001
1.40001
1.40001
1.40001
1.40001
1.40001
1.40001
1.40001
1.40001
1.40001
1.40001
1.40001
1.40001
1.40001
1.40001
1.40001
1.40001
1.40001
1.40001
1.40001
1.40001
1.40001
1.40001
1.40001
1.40001
1.40001
1.40001
1.40001
1.40001
1.40001
1.40001
1.40001
1.40001
)
;
    }
}


// ************************************************************************* //
