/*--------------------------------*- C++ -*----------------------------------*\
  =========                 |
  \\      /  F ield         | OpenFOAM: The Open Source CFD Toolbox
   \\    /   O peration     | Website:  https://openfoam.org
    \\  /    A nd           | Version:  7
     \\/     M anipulation  |
\*---------------------------------------------------------------------------*/
FoamFile
{
    version     2.0;
    format      ascii;
    class       volScalarField;
    location    "101";
    object      p;
}
// * * * * * * * * * * * * * * * * * * * * * * * * * * * * * * * * * * * * * //

dimensions      [0 2 -2 0 0 0 0];

internalField   nonuniform List<scalar> 
41600
(
-0.446335
-0.455147
-0.473101
-0.449776
-0.410125
-0.375695
-0.366327
-0.372442
-0.372009
-0.345967
-0.298333
-0.244625
-0.197858
-0.164124
-0.144743
-0.138949
-0.145182
-0.156539
-0.1596
-0.150324
-0.131745
-0.113174
-0.0989128
-0.0908383
-0.0906065
-0.43799
-0.445307
-0.459814
-0.436159
-0.40037
-0.373091
-0.372899
-0.387142
-0.390253
-0.362832
-0.311065
-0.252662
-0.20156
-0.163978
-0.141099
-0.13154
-0.13394
-0.142085
-0.145022
-0.138056
-0.123418
-0.108872
-0.0978784
-0.0927271
-0.0957634
-0.429761
-0.435518
-0.446531
-0.422344
-0.390207
-0.369953
-0.378823
-0.400847
-0.407003
-0.377895
-0.321987
-0.259131
-0.204049
-0.162976
-0.136851
-0.123862
-0.122694
-0.127681
-0.130092
-0.125023
-0.114129
-0.103482
-0.0957185
-0.0936036
-0.10008
-0.421683
-0.425823
-0.43332
-0.408415
-0.379711
-0.366295
-0.383998
-0.413347
-0.422013
-0.390953
-0.330999
-0.264027
-0.205386
-0.161237
-0.132168
-0.116101
-0.111658
-0.113643
-0.115197
-0.111623
-0.104144
-0.0971045
-0.0923927
-0.0932921
-0.103187
-0.413777
-0.416263
-0.420249
-0.39446
-0.368958
-0.362131
-0.388344
-0.42443
-0.435067
-0.401844
-0.338039
-0.267376
-0.20565
-0.158878
-0.127212
-0.108424
-0.10102
-0.100249
-0.100709
-0.0982391
-0.0937332
-0.0898567
-0.087894
-0.0916432
-0.104736
-0.40607
-0.406876
-0.40738
-0.38056
-0.358022
-0.35759
-0.391668
-0.433904
-0.445979
-0.410449
-0.343087
-0.269232
-0.204937
-0.156008
-0.122127
-0.100972
-0.0909334
-0.0877088
-0.0869366
-0.0852103
-0.0831462
-0.0818697
-0.0822496
-0.0885527
-0.104445
-0.398581
-0.397695
-0.39477
-0.366794
-0.346974
-0.352543
-0.394019
-0.441613
-0.454606
-0.4167
-0.346162
-0.269673
-0.203351
-0.152731
-0.11704
-0.0938647
-0.0815107
-0.0761456
-0.0740954
-0.072789
-0.0725898
-0.0732777
-0.0755199
-0.0839741
-0.102139
-0.391331
-0.388752
-0.382471
-0.353237
-0.335882
-0.347023
-0.395306
-0.447436
-0.46085
-0.42058
-0.347321
-0.268799
-0.201006
-0.149147
-0.112049
-0.0871929
-0.0728264
-0.0655991
-0.0622982
-0.061126
-0.0622071
-0.0642103
-0.0677901
-0.0779292
-0.0977629
-0.384333
-0.380073
-0.370528
-0.339954
-0.324808
-0.341075
-0.395453
-0.451294
-0.464666
-0.422122
-0.346659
-0.266726
-0.198017
-0.145348
-0.107232
-0.0810242
-0.0649234
-0.0560519
-0.0515652
-0.0502651
-0.05207
-0.0547814
-0.0591631
-0.0704833
-0.0914314
-0.377602
-0.37168
-0.358979
-0.327007
-0.313809
-0.33472
-0.394417
-0.45315
-0.466063
-0.421411
-0.344301
-0.263582
-0.194497
-0.141422
-0.102644
-0.075401
-0.0578214
-0.0474641
-0.0418526
-0.0401842
-0.0421843
-0.0450806
-0.0497515
-0.0617337
-0.0834208
-0.371147
-0.363591
-0.347854
-0.314446
-0.302938
-0.327985
-0.392184
-0.453017
-0.465101
-0.418572
-0.340398
-0.259506
-0.190553
-0.137448
-0.0983207
-0.0703426
-0.0515236
-0.0398011
-0.0330852
-0.0308255
-0.0325104
-0.0351675
-0.0396776
-0.05186
-0.0740714
-0.364977
-0.355821
-0.337177
-0.302316
-0.292243
-0.3209
-0.388765
-0.450948
-0.461895
-0.41377
-0.335118
-0.254638
-0.186286
-0.133496
-0.0942911
-0.0658473
-0.0460205
-0.0330428
-0.0251917
-0.0221179
-0.0229983
-0.0250781
-0.0290966
-0.0411766
-0.0638447
-0.359097
-0.34838
-0.326966
-0.290653
-0.281768
-0.313502
-0.384201
-0.447043
-0.4566
-0.407199
-0.328646
-0.24912
-0.181787
-0.129621
-0.0905747
-0.0618979
-0.041293
-0.0271825
-0.0181379
-0.0140003
-0.0136339
-0.0148599
-0.0182478
-0.0301983
-0.0533848
-0.353511
-0.341274
-0.31723
-0.279485
-0.271557
-0.305836
-0.378565
-0.441441
-0.449411
-0.399074
-0.32117
-0.243089
-0.177139
-0.125866
-0.0871851
-0.0584689
-0.0373112
-0.0222224
-0.01195
-0.00647594
-0.00450794
-0.00466364
-0.00753038
-0.0196536
-0.0433334
-0.348219
-0.334506
-0.307973
-0.268834
-0.261646
-0.297957
-0.371959
-0.434313
-0.440547
-0.389625
-0.312879
-0.236675
-0.172417
-0.122265
-0.0841282
-0.0555332
-0.0340325
-0.0181638
-0.00671236
0.000306215
0.00408622
0.00512662
0.00242784
-0.010345
-0.0341748
-0.343222
-0.328077
-0.299196
-0.258715
-0.252075
-0.289925
-0.36451
-0.425859
-0.430245
-0.379086
-0.303957
-0.229995
-0.167683
-0.118838
-0.0814011
-0.0530641
-0.0314025
-0.0149887
-0.00252364
0.00603311
0.0115898
0.0136844
0.0108127
-0.0028789
-0.0261242
-0.33852
-0.321985
-0.290894
-0.249135
-0.24288
-0.28181
-0.356374
-0.416288
-0.418748
-0.367687
-0.29458
-0.223158
-0.16299
-0.115598
-0.0789918
-0.0510338
-0.0293624
-0.0126441
0.000571271
0.0103666
0.0173456
0.0201096
0.0169047
0.00258653
-0.0191588
-0.334111
-0.316225
-0.283061
-0.240095
-0.234097
-0.273686
-0.347724
-0.405814
-0.406294
-0.355653
-0.284907
-0.216259
-0.15838
-0.112553
-0.0768824
-0.0494098
-0.0278569
-0.0110463
0.00261782
0.0131481
0.0209668
0.0239302
0.0204635
0.00633106
-0.0132023
-0.329992
-0.310791
-0.275674
-0.231605
-0.225764
-0.265632
-0.338746
-0.394639
-0.393115
-0.343191
-0.275085
-0.209377
-0.153888
-0.109703
-0.0750509
-0.0481538
-0.0268345
-0.0101012
0.00372832
0.014475
0.0225398
0.0253505
0.0218371
0.00876803
-0.00829465
-0.326163
-0.305678
-0.268728
-0.223653
-0.217915
-0.257729
-0.329629
-0.382944
-0.379428
-0.330495
-0.265241
-0.202581
-0.149537
-0.107043
-0.0734726
-0.0472239
-0.0262432
-0.00971818
0.00403979
0.014618
0.0225048
0.025033
0.0216647
0.0101786
-0.0045146
-0.322623
-0.300879
-0.262215
-0.216231
-0.210586
-0.250061
-0.320549
-0.370884
-0.365433
-0.317735
-0.255484
-0.195924
-0.145345
-0.104567
-0.0721215
-0.0465779
-0.0260275
-0.0098105
0.00369475
0.0138937
0.0213835
0.0236501
0.0205334
0.0107424
-0.00182037
-0.319372
-0.296388
-0.256121
-0.209339
-0.203812
-0.242718
-0.311651
-0.358595
-0.351311
-0.305064
-0.245906
-0.189449
-0.141321
-0.102262
-0.0709706
-0.0461745
-0.0261293
-0.010294
0.00283514
0.0125765
0.0195932
0.0216698
0.01886
0.0106499
-3.72728e-05
-0.316412
-0.292201
-0.250435
-0.202982
-0.197619
-0.235795
-0.303032
-0.34619
-0.337226
-0.292607
-0.23658
-0.183187
-0.137471
-0.100118
-0.0699933
-0.0459745
-0.0264909
-0.0110882
0.00159266
0.0108685
0.0174131
0.0193739
0.0169107
0.0100968
0.00104492
-0.313746
-0.288315
-0.245153
-0.197174
-0.19203
-0.229397
-0.294731
-0.333772
-0.323322
-0.280471
-0.22756
-0.177161
-0.133796
-0.0981192
-0.0691633
-0.0459411
-0.0270579
-0.0121192
7.96395e-05
0.00891182
0.0150232
0.0169308
0.0148435
0.00924089
0.00160545
-0.311379
-0.284731
-0.240276
-0.191938
-0.187061
-0.223624
-0.286732
-0.321438
-0.309721
-0.268738
-0.218888
-0.171383
-0.130292
-0.0962524
-0.0684561
-0.0460399
-0.0277805
-0.0133222
-0.00161297
0.0068091
0.0125432
0.0144467
0.0127514
0.00819546
0.00178244
-0.30932
-0.28145
-0.235813
-0.187307
-0.182723
-0.218554
-0.278987
-0.309279
-0.296529
-0.257471
-0.210592
-0.165861
-0.126955
-0.094503
-0.0678487
-0.0462396
-0.0286146
-0.0146416
-0.00341298
0.00463695
0.0100542
0.011991
0.0106905
0.00703988
0.00168065
-0.307578
-0.27848
-0.231781
-0.18331
-0.179031
-0.214221
-0.27144
-0.297381
-0.283827
-0.246712
-0.202685
-0.160595
-0.123776
-0.0928575
-0.0673202
-0.0465122
-0.0295221
-0.016031
-0.00526377
0.00245263
0.00761045
0.00960839
0.00869528
0.00582878
0.00137888
-0.306165
-0.275828
-0.228205
-0.179968
-0.176007
-0.210591
-0.264048
-0.285822
-0.271678
-0.236488
-0.195174
-0.155582
-0.120747
-0.0913027
-0.0668518
-0.0468334
-0.0304706
-0.0174521
-0.00712133
0.000298597
0.0052479
0.00732682
0.00678587
0.00459962
0.000935996
-0.305093
-0.273506
-0.22511
-0.177286
-0.173673
-0.207567
-0.256798
-0.27467
-0.260125
-0.22681
-0.188057
-0.150815
-0.117859
-0.0898261
-0.0664271
-0.0471818
-0.0314329
-0.0188737
-0.00895191
-0.00179429
0.00298938
0.00516267
0.00497338
0.00337828
0.00039716
-0.304375
-0.271528
-0.222518
-0.17525
-0.172048
-0.205011
-0.249697
-0.263979
-0.249192
-0.217678
-0.181326
-0.146285
-0.115103
-0.0884163
-0.0660314
-0.0475393
-0.0323866
-0.020271
-0.01073
-0.00380411
0.000848815
0.00312461
0.00326301
0.00218278
-0.000204355
-0.304024
-0.269904
-0.220435
-0.173841
-0.171116
-0.202775
-0.24277
-0.253788
-0.238886
-0.209082
-0.174967
-0.141981
-0.112468
-0.0870633
-0.0656524
-0.0478909
-0.0333135
-0.0216246
-0.0124365
-0.00571592
-0.00116603
0.00121615
0.00165625
0.00102567
-0.000844531
-0.30405
-0.268644
-0.218852
-0.173038
-0.170825
-0.200733
-0.236047
-0.244122
-0.229203
-0.201006
-0.168965
-0.137891
-0.109946
-0.0857578
-0.0652795
-0.048224
-0.0341992
-0.0229196
-0.0140578
-0.00752012
-0.00305164
-0.000562683
0.000152438
-8.46198e-05
-0.00150464
-0.304461
-0.267748
-0.217741
-0.172821
-0.171077
-0.198794
-0.22956
-0.234992
-0.220128
-0.193426
-0.163302
-0.134002
-0.107527
-0.0844915
-0.0649041
-0.0485283
-0.0350326
-0.0241447
-0.0155841
-0.00921122
-0.00480741
-0.00221414
-0.00125035
-0.00114243
-0.00216904
-0.30526
-0.267206
-0.217065
-0.173164
-0.171749
-0.196897
-0.223331
-0.226398
-0.211636
-0.186317
-0.157958
-0.130302
-0.105202
-0.0832569
-0.0645189
-0.0487957
-0.0358052
-0.0252918
-0.0170093
-0.0107868
-0.0064346
-0.00374206
-0.00255516
-0.00214387
-0.00282491
-0.306446
-0.266994
-0.216786
-0.174025
-0.17271
-0.19501
-0.217376
-0.218327
-0.2037
-0.179651
-0.152914
-0.126779
-0.102963
-0.0820477
-0.0641179
-0.0490198
-0.036511
-0.0263553
-0.0183297
-0.0122468
-0.00793557
-0.00515147
-0.00376592
-0.00308652
-0.00346306
-0.308008
-0.267067
-0.216878
-0.175342
-0.173843
-0.193116
-0.211705
-0.210762
-0.196286
-0.173399
-0.148149
-0.123418
-0.100803
-0.0808585
-0.0636964
-0.0491957
-0.037146
-0.0273313
-0.019544
-0.0135923
-0.00931339
-0.0064484
-0.00488612
-0.00397025
-0.00408123
-0.309929
-0.26737
-0.21732
-0.177025
-0.175051
-0.191208
-0.206316
-0.203677
-0.189361
-0.167532
-0.143643
-0.12021
-0.0987147
-0.0796843
-0.0632509
-0.0493198
-0.0377074
-0.0282176
-0.0206526
-0.0148253
-0.0105719
-0.00763908
-0.005917
-0.0047992
-0.00468507
-0.312177
-0.267841
-0.218099
-0.178974
-0.17626
-0.189284
-0.201206
-0.197046
-0.18289
-0.162022
-0.139377
-0.117141
-0.0966908
-0.078521
-0.0627785
-0.04939
-0.0381941
-0.0290136
-0.0216572
-0.0159483
-0.0117161
-0.00872857
-0.00685756
-0.00558165
-0.00527578
-0.31471
-0.268419
-0.219196
-0.181084
-0.177415
-0.187345
-0.196362
-0.190837
-0.176837
-0.156839
-0.135333
-0.114201
-0.0947253
-0.077365
-0.0622769
-0.0494047
-0.0386058
-0.0297194
-0.0225603
-0.0169642
-0.0127519
-0.00971988
-0.00770853
-0.0063221
-0.00582818
-0.317469
-0.26906
-0.220577
-0.183263
-0.178475
-0.185392
-0.191773
-0.18502
-0.171169
-0.151958
-0.131494
-0.11138
-0.0928127
-0.0762133
-0.0617448
-0.0493634
-0.0389427
-0.0303364
-0.023365
-0.0178764
-0.0136856
-0.0106151
-0.0084766
-0.00700745
-0.00628589
-0.32038
-0.269735
-0.22219
-0.185438
-0.179409
-0.183426
-0.187422
-0.179564
-0.165853
-0.147353
-0.127842
-0.108668
-0.0909475
-0.0750633
-0.0611812
-0.049266
-0.039206
-0.0308663
-0.0240745
-0.0186889
-0.0145225
-0.0114178
-0.00917217
-0.00760786
-0.00660968
-0.323358
-0.270443
-0.223958
-0.187551
-0.180197
-0.181449
-0.183293
-0.174438
-0.160858
-0.143001
-0.124362
-0.106055
-0.0891247
-0.0739125
-0.0605852
-0.049113
-0.0393968
-0.0313115
-0.024692
-0.019406
-0.0152675
-0.0121337
-0.00980157
-0.00812092
-0.00686813
-0.326302
-0.271205
-0.225792
-0.189563
-0.180824
-0.17946
-0.179367
-0.169612
-0.156156
-0.138879
-0.121039
-0.103533
-0.0873398
-0.072759
-0.0599566
-0.0489052
-0.039517
-0.0316748
-0.0252213
-0.0200321
-0.0159249
-0.0127683
-0.0103641
-0.00857429
-0.0071518
-0.329122
-0.27206
-0.227597
-0.191442
-0.181282
-0.17746
-0.175628
-0.16506
-0.151719
-0.134966
-0.11786
-0.101094
-0.0855886
-0.0716013
-0.0592954
-0.0486439
-0.0395687
-0.0319591
-0.0256659
-0.0205716
-0.016499
-0.0133261
-0.0108644
-0.00897772
-0.00743262
-0.331726
-0.273065
-0.229285
-0.193164
-0.181568
-0.175447
-0.172058
-0.160755
-0.147522
-0.131244
-0.114811
-0.0987299
-0.0838672
-0.0704379
-0.0586017
-0.0483304
-0.0395541
-0.0321675
-0.0260294
-0.0210287
-0.0169938
-0.013812
-0.0113041
-0.00933682
-0.00770863
-0.334038
-0.274286
-0.230787
-0.194711
-0.181681
-0.173421
-0.16864
-0.156671
-0.143541
-0.127693
-0.111882
-0.0964339
-0.082172
-0.0692675
-0.057876
-0.0479662
-0.0394756
-0.032303
-0.0263156
-0.0214074
-0.0174134
-0.0142296
-0.0116864
-0.00965427
-0.00796489
-0.335998
-0.27579
-0.232057
-0.196067
-0.181625
-0.171379
-0.165358
-0.152787
-0.139755
-0.124299
-0.109059
-0.0941993
-0.0804997
-0.068089
-0.0571187
-0.0475528
-0.0393355
-0.0323687
-0.026528
-0.0217116
-0.0177617
-0.0145829
-0.0120133
-0.00993078
-0.00819628
-0.337566
-0.277637
-0.233075
-0.19722
-0.181404
-0.169321
-0.162197
-0.149081
-0.136145
-0.121044
-0.106334
-0.09202
-0.0788471
-0.0669016
-0.0563303
-0.047092
-0.0391364
-0.0323678
-0.02667
-0.0219451
-0.0180422
-0.0148746
-0.0122873
-0.0101668
-0.00839821
-0.338718
-0.279866
-0.233844
-0.198159
-0.181026
-0.167243
-0.159143
-0.145534
-0.13269
-0.117916
-0.103697
-0.0898902
-0.0772113
-0.0657042
-0.0555115
-0.0465854
-0.0388805
-0.0323033
-0.0267449
-0.0221112
-0.0182585
-0.015108
-0.0125103
-0.0103628
-0.00856844
-0.339443
-0.28249
-0.234383
-0.198876
-0.180497
-0.165143
-0.156182
-0.142128
-0.129376
-0.114902
-0.101138
-0.0878046
-0.0755896
-0.0644963
-0.0546629
-0.0460346
-0.0385703
-0.032178
-0.0267561
-0.0222133
-0.0184136
-0.0152856
-0.0126844
-0.0105192
-0.00870599
-0.339742
-0.285485
-0.23472
-0.199367
-0.179825
-0.163021
-0.153302
-0.138847
-0.126186
-0.111989
-0.0986499
-0.085758
-0.0739796
-0.0632771
-0.0537851
-0.0454413
-0.0382081
-0.0319947
-0.0267065
-0.0222545
-0.0185107
-0.0154099
-0.0128113
-0.0106367
-0.00881036
-0.339621
-0.288786
-0.234889
-0.199625
-0.179017
-0.160873
-0.150492
-0.135675
-0.123107
-0.109166
-0.0962248
-0.0837459
-0.0723788
-0.062046
-0.052879
-0.044807
-0.0377961
-0.0317562
-0.0265991
-0.0222379
-0.0185525
-0.0154832
-0.0128929
-0.010716
-0.0088817
-0.339091
-0.292292
-0.234918
-0.199649
-0.17808
-0.158697
-0.147741
-0.132599
-0.120126
-0.106424
-0.0938556
-0.0817639
-0.0707851
-0.0608024
-0.051945
-0.0441333
-0.0373365
-0.031465
-0.0264366
-0.0221663
-0.0185417
-0.0155077
-0.0129309
-0.0107581
-0.00892029
-0.338169
-0.295863
-0.234835
-0.199436
-0.17702
-0.156491
-0.145038
-0.129606
-0.11723
-0.103753
-0.0915357
-0.0798079
-0.0691964
-0.059546
-0.0509839
-0.0434216
-0.0368314
-0.0311236
-0.0262217
-0.0220422
-0.0184807
-0.0154855
-0.0129268
-0.0107639
-0.00892664
-0.336879
-0.299336
-0.234659
-0.198985
-0.175842
-0.154254
-0.142376
-0.126686
-0.11441
-0.101145
-0.0892591
-0.0778742
-0.0676109
-0.0582761
-0.0499963
-0.0426735
-0.0362826
-0.0307342
-0.0259568
-0.0218683
-0.0183718
-0.0154185
-0.0128823
-0.0107344
-0.00890135
-0.335256
-0.302536
-0.234401
-0.198298
-0.174552
-0.151983
-0.139745
-0.123827
-0.111655
-0.0985909
-0.0870202
-0.0759593
-0.0660267
-0.0569925
-0.0489828
-0.0418901
-0.0356922
-0.0302992
-0.0256443
-0.0216468
-0.0182173
-0.0153086
-0.0127989
-0.0106705
-0.00884504
-0.333345
-0.305288
-0.234068
-0.197377
-0.173152
-0.149676
-0.137137
-0.12102
-0.108956
-0.0960848
-0.0848137
-0.07406
-0.0644423
-0.0556947
-0.047944
-0.0410729
-0.0350619
-0.0298205
-0.0252864
-0.02138
-0.0180191
-0.0151575
-0.012678
-0.0105733
-0.00875843
-0.331209
-0.307437
-0.23366
-0.196226
-0.171645
-0.147332
-0.134546
-0.118256
-0.106306
-0.0936196
-0.0826349
-0.0721732
-0.062856
-0.0543823
-0.0468805
-0.040223
-0.0343933
-0.0293001
-0.0248851
-0.0210701
-0.0177793
-0.014967
-0.0125212
-0.0104437
-0.0086422
-0.328924
-0.308861
-0.233173
-0.194852
-0.170035
-0.144948
-0.131966
-0.115528
-0.103696
-0.0911894
-0.0804794
-0.070296
-0.0612664
-0.0530551
-0.0457927
-0.0393416
-0.0336881
-0.0287399
-0.0244426
-0.0207189
-0.0174996
-0.0147386
-0.0123297
-0.0102828
-0.00849712
-0.326582
-0.309479
-0.232601
-0.193262
-0.168324
-0.142524
-0.12939
-0.112829
-0.10112
-0.0887884
-0.078343
-0.0684261
-0.0596723
-0.0517128
-0.0446812
-0.0384297
-0.0329477
-0.0281417
-0.0239605
-0.0203283
-0.0171817
-0.014474
-0.012105
-0.0100915
-0.00832391
-0.324286
-0.309262
-0.231937
-0.191466
-0.166514
-0.140058
-0.126814
-0.110151
-0.0985714
-0.0864116
-0.076222
-0.0665608
-0.0580722
-0.050355
-0.0435465
-0.0374885
-0.0321737
-0.0275071
-0.0234408
-0.0199003
-0.0168273
-0.0141745
-0.0118482
-0.00987071
-0.00812334
-0.322143
-0.308228
-0.231175
-0.189474
-0.164605
-0.137548
-0.124231
-0.10749
-0.0960448
-0.0840543
-0.074113
-0.064698
-0.0564652
-0.0489817
-0.042389
-0.0365189
-0.0313673
-0.0268376
-0.0228851
-0.0194363
-0.016438
-0.0138416
-0.0115606
-0.00962137
-0.00789619
-0.32026
-0.306434
-0.23031
-0.187298
-0.162601
-0.134994
-0.121638
-0.104839
-0.0935348
-0.0817122
-0.0720127
-0.0628357
-0.0548502
-0.0475925
-0.0412091
-0.0355218
-0.0305298
-0.0261348
-0.022295
-0.0189381
-0.0160153
-0.0134768
-0.0112435
-0.00934439
-0.00764324
-0.318735
-0.303967
-0.229337
-0.18495
-0.160502
-0.132394
-0.119031
-0.102193
-0.0910366
-0.0793814
-0.0699181
-0.0609719
-0.0532261
-0.0461872
-0.0400074
-0.0344982
-0.0296626
-0.0254
-0.0216719
-0.018407
-0.0155605
-0.0130812
-0.010898
-0.00904066
-0.00736526
-0.317652
-0.300936
-0.228255
-0.182442
-0.15831
-0.129747
-0.116406
-0.0995495
-0.0885458
-0.0770582
-0.0678266
-0.059105
-0.0515922
-0.0447658
-0.0387842
-0.0334489
-0.0287666
-0.0246347
-0.0210175
-0.0178447
-0.015075
-0.0126563
-0.0105251
-0.00871104
-0.00706307
-0.317079
-0.297455
-0.227063
-0.179785
-0.156026
-0.127052
-0.113759
-0.0969027
-0.0860586
-0.0747393
-0.0657357
-0.0572333
-0.0499475
-0.0433281
-0.0375399
-0.0323747
-0.027843
-0.0238401
-0.0203329
-0.0172523
-0.0145601
-0.0122031
-0.0101261
-0.0083564
-0.00673747
-0.31706
-0.293633
-0.22576
-0.176992
-0.153651
-0.124309
-0.111088
-0.0942493
-0.0835713
-0.0724217
-0.0636431
-0.0553554
-0.0482915
-0.041874
-0.036275
-0.0312764
-0.0268929
-0.0230173
-0.0196195
-0.0166313
-0.014017
-0.0117231
-0.00970177
-0.00797757
-0.00638925
-0.317621
-0.289565
-0.224345
-0.174073
-0.151186
-0.121516
-0.10839
-0.0915861
-0.0810805
-0.0701027
-0.0615467
-0.0534699
-0.0466233
-0.0404034
-0.0349898
-0.0301547
-0.0259173
-0.0221676
-0.0188786
-0.0159829
-0.0134471
-0.0112172
-0.00925329
-0.0075754
-0.00601926
-0.318766
-0.285334
-0.22282
-0.171035
-0.148633
-0.118673
-0.105662
-0.08891
-0.0785834
-0.0677798
-0.0594448
-0.0515758
-0.0449425
-0.0389163
-0.0336846
-0.0290104
-0.024917
-0.021292
-0.0181114
-0.0153083
-0.0128513
-0.0106866
-0.00878158
-0.0071507
-0.00562829
-0.320482
-0.281003
-0.221183
-0.167888
-0.145991
-0.115779
-0.102902
-0.0862181
-0.0760771
-0.0654506
-0.0573354
-0.0496719
-0.0432485
-0.0374127
-0.03236
-0.0278441
-0.0238931
-0.0203917
-0.017319
-0.0146086
-0.0122309
-0.0101324
-0.00828759
-0.00670429
-0.00521717
-0.32274
-0.276619
-0.219433
-0.164638
-0.14326
-0.112833
-0.100107
-0.083508
-0.0735592
-0.0631132
-0.0552172
-0.0477572
-0.0415408
-0.0358926
-0.0310162
-0.0266566
-0.0228465
-0.0194676
-0.0165025
-0.0138849
-0.0115868
-0.00955562
-0.00777223
-0.00623697
-0.00478672
-0.325499
-0.272216
-0.217568
-0.161291
-0.140442
-0.109834
-0.0972758
-0.0807775
-0.0710274
-0.0607657
-0.0530887
-0.0458309
-0.0398192
-0.0343561
-0.0296537
-0.0254485
-0.0217779
-0.0185208
-0.0156629
-0.0131383
-0.0109203
-0.00895736
-0.0072364
-0.00574953
-0.00433773
-0.328709
-0.267814
-0.215586
-0.157851
-0.137536
-0.106782
-0.0944066
-0.0780244
-0.0684798
-0.0584063
-0.0509487
-0.0438922
-0.0380833
-0.0328033
-0.0282729
-0.0242205
-0.0206882
-0.0175521
-0.0148013
-0.0123698
-0.0102323
-0.00833858
-0.00668097
-0.0052428
-0.00387103
-0.33231
-0.263422
-0.213482
-0.154321
-0.134542
-0.103675
-0.0914977
-0.075247
-0.0659147
-0.0560337
-0.0487961
-0.0419405
-0.0363328
-0.0312342
-0.0268743
-0.0229733
-0.0195782
-0.0165626
-0.0139187
-0.0115804
-0.00952373
-0.00770026
-0.00610682
-0.00471765
-0.00338753
-0.336237
-0.259042
-0.211252
-0.150703
-0.13146
-0.100514
-0.0885476
-0.0724436
-0.0633304
-0.0536465
-0.0466299
-0.0399753
-0.0345675
-0.029649
-0.0254581
-0.0217074
-0.0184488
-0.0155531
-0.0130161
-0.0107712
-0.00879567
-0.00704333
-0.00551479
-0.00417499
-0.0028882
-0.340422
-0.254672
-0.20889
-0.147
-0.128289
-0.0972959
-0.0855547
-0.0696125
-0.0607253
-0.0512434
-0.0444493
-0.037996
-0.0327873
-0.0280479
-0.0240249
-0.0204235
-0.0173006
-0.0145245
-0.0120943
-0.00994291
-0.00804902
-0.00636868
-0.0049057
-0.0036157
-0.00237403
-0.344793
-0.250302
-0.20639
-0.14321
-0.125028
-0.094021
-0.0825176
-0.0667523
-0.0580982
-0.0488233
-0.0422534
-0.0360023
-0.0309922
-0.0264311
-0.0225751
-0.0191223
-0.0161346
-0.0134777
-0.0111543
-0.00909662
-0.00728471
-0.00567722
-0.00428034
-0.00304049
-0.00184579
-0.349281
-0.245922
-0.203745
-0.139334
-0.121676
-0.0906879
-0.0794349
-0.0638615
-0.0554478
-0.0463852
-0.0400418
-0.0339938
-0.0291821
-0.024799
-0.0211091
-0.0178042
-0.0149513
-0.0124136
-0.010197
-0.00823323
-0.00650365
-0.00496988
-0.00363953
-0.00244983
-0.00130352
-0.353806
-0.241517
-0.200949
-0.135371
-0.118234
-0.0872975
-0.076307
-0.0609404
-0.0527742
-0.0439289
-0.0378141
-0.0319707
-0.0273572
-0.0231517
-0.0196275
-0.0164701
-0.0137516
-0.0113328
-0.00922323
-0.00735363
-0.00570679
-0.00424762
-0.00298422
-0.00184409
-0.000746124
-0.358293
-0.237069
-0.197993
-0.131321
-0.1147
-0.0838492
-0.0731334
-0.057988
-0.0500766
-0.0414542
-0.0355699
-0.0299329
-0.0255172
-0.0214894
-0.0181308
-0.0151207
-0.0125362
-0.0102364
-0.00823388
-0.0064586
-0.00489511
-0.00351141
-0.00231545
-0.00122395
-0.000171971
-0.362671
-0.232562
-0.194871
-0.12718
-0.111072
-0.0803402
-0.0699114
-0.055002
-0.0473532
-0.0389595
-0.0333086
-0.0278796
-0.0236626
-0.0198126
-0.0166196
-0.0137565
-0.0113059
-0.00912497
-0.00722973
-0.00554886
-0.00406956
-0.00276213
-0.00163407
-0.000590581
0.000418133
-0.366867
-0.227979
-0.191574
-0.122947
-0.10735
-0.0767698
-0.066641
-0.0519824
-0.0446031
-0.0364447
-0.0310306
-0.0258102
-0.0217942
-0.0181217
-0.0150944
-0.012378
-0.0100614
-0.00799939
-0.00621157
-0.00462536
-0.00323094
-0.00200062
-0.000940386
5.53666e-05
0.00101607
-0.370816
-0.2233
-0.188095
-0.11862
-0.103533
-0.0731382
-0.0633225
-0.04893
-0.0418261
-0.0339093
-0.0287367
-0.0237248
-0.0199126
-0.0164175
-0.0135559
-0.0109858
-0.0088034
-0.00686049
-0.00518026
-0.00368916
-0.00238004
-0.00122795
-0.000234337
0.000713869
0.00161264
-0.374452
-0.218506
-0.184426
-0.114196
-0.0996214
-0.0694456
-0.0599536
-0.0458439
-0.0390246
-0.0313501
-0.0264266
-0.0216244
-0.0180174
-0.0147007
-0.0120039
-0.00958117
-0.00753255
-0.00570902
-0.00413659
-0.00274101
-0.00151778
-0.000444518
0.000482896
0.00138147
0.00221356
-0.377712
-0.213581
-0.18056
-0.109672
-0.0956134
-0.0656944
-0.0565321
-0.0427208
-0.0362106
-0.0287592
-0.0240989
-0.0195116
-0.0161072
-0.0129714
-0.0104395
-0.0081644
-0.00624969
-0.00454574
-0.00308138
-0.00178165
-0.000645021
0.000349007
0.00121001
0.00205676
0.00282145
-0.380537
-0.208505
-0.176491
-0.105045
-0.0915084
-0.0618848
-0.0530618
-0.0395536
-0.0333918
-0.0261365
-0.0217503
-0.0173861
-0.0141837
-0.0112299
-0.0088634
-0.00673613
-0.00495558
-0.00337142
-0.0020154
-0.0008119
0.000237462
0.0011518
0.00194591
0.00273924
0.0034365
-0.38287
-0.203262
-0.172211
-0.100314
-0.087304
-0.0580032
-0.0495615
-0.0363392
-0.0305124
-0.0235316
-0.0193842
-0.015247
-0.0122477
-0.00947671
-0.00727626
-0.00529706
-0.00365094
-0.00218683
-0.000939426
0.000167465
0.0011289
0.00196299
0.00268967
0.0034285
0.0040578
-0.384662
-0.197835
-0.167716
-0.0954773
-0.0830002
-0.0540193
-0.0460526
-0.0330995
-0.0275897
-0.0209107
-0.0170026
-0.0130943
-0.0102999
-0.00771245
-0.00567872
-0.00384793
-0.00233651
-0.000992722
0.000145789
0.00115566
0.00202851
0.00278176
0.00344055
0.00412397
0.00468414
-0.385862
-0.19221
-0.163001
-0.0905337
-0.0786044
-0.0499262
-0.0425064
-0.0298501
-0.0246376
-0.0182696
-0.0146063
-0.0109284
-0.00834094
-0.00593783
-0.00407147
-0.00238948
-0.00101305
0.000210136
0.00123949
0.00215193
0.00293554
0.00360731
0.00419781
0.00482486
0.00531421
-0.38643
-0.186372
-0.158059
-0.0854718
-0.0741317
-0.0458291
-0.0388435
-0.0265732
-0.0216613
-0.0156068
-0.0121956
-0.00874999
-0.00637133
-0.00415357
-0.00245518
-0.000922462
0.000318708
0.00142099
0.00234092
0.00315552
0.00384922
0.00443893
0.00496075
0.00553028
0.00594667
-0.386325
-0.180307
-0.152883
-0.08027
-0.0695826
-0.0416904
-0.0351169
-0.0232641
-0.0186622
-0.0129234
-0.00977079
-0.00655983
-0.00439168
-0.00236041
-0.000830606
0.000552374
0.00165799
0.00263908
0.00344934
0.00416568
0.00476883
0.00527593
0.00572865
0.00623929
0.00658026
-0.385513
-0.174005
-0.147471
-0.0749224
-0.0649452
-0.0375127
-0.0313387
-0.0199216
-0.0156408
-0.0102206
-0.00733228
-0.00435865
-0.00240271
-0.000559115
0.000801498
0.00203425
0.00300403
0.00386366
0.00456402
0.0051817
0.00569367
0.00611764
0.00650081
0.00695098
0.00721403
-0.383964
-0.167456
-0.141836
-0.0694898
-0.0601663
-0.0332811
-0.0275146
-0.0165461
-0.0125975
-0.00749977
-0.00488071
-0.00214725
-0.000405148
0.00124954
0.00244034
0.00352238
0.00435604
0.00509397
0.00568422
0.00620284
0.00662306
0.00696342
0.0072765
0.0076646
0.00784757
-0.381651
-0.160654
-0.136005
-0.0639239
-0.0552669
-0.0289919
-0.0236466
-0.0131389
-0.00953281
-0.00476204
-0.00241681
7.35507e-05
0.00160018
0.00306473
0.0040851
0.00501594
0.00571325
0.00632926
0.00680923
0.00722841
0.00755631
0.00781261
0.008055
0.00837957
0.00848096
-0.378553
-0.15359
-0.129974
-0.0582175
-0.0502616
-0.0246443
-0.019736
-0.00970111
-0.00644739
-0.00200862
5.85669e-05
0.00230285
0.00361242
0.00488559
0.00573494
0.00651411
0.00707487
0.00756877
0.00793832
0.00825772
0.00849278
0.00866456
0.00883564
0.00909533
0.00911408
-0.374653
-0.146239
-0.123635
-0.0524705
-0.0451586
-0.0202386
-0.0157842
-0.00623426
-0.00334212
0.000759248
0.00254445
0.00453971
0.00563066
0.00671125
0.007389
0.00801608
0.00844008
0.00881176
0.00907079
0.00929012
0.0094319
0.00951877
0.00961785
0.00981111
0.00974538
-0.369936
-0.138561
-0.117087
-0.0466229
-0.0399614
-0.0157763
-0.0117926
-0.00273988
-0.00021803
0.00354032
0.00503981
0.00678314
0.00765394
0.00854078
0.00904637
0.00952097
0.00980808
0.0100574
0.0102059
0.010325
0.0103731
0.0103748
0.0104011
0.0105257
0.0103712
-0.364394
-0.130563
-0.110329
-0.0406678
-0.0346731
-0.0112588
-0.00776246
0.000780419
0.00292368
0.00633331
0.00754351
0.00903207
0.00968126
0.0103732
0.0107061
0.0110279
0.011178
0.0113051
0.011343
0.0113616
0.0113161
0.0112325
0.0111851
0.0112375
0.0109871
-0.358022
-0.122371
-0.103264
-0.0346018
-0.0292961
-0.00668804
-0.00369556
0.00432492
0.00608169
0.00913685
0.0100544
0.0112854
0.0117116
0.0122076
0.0123674
0.012536
0.0125491
0.0125539
0.0124814
0.0123995
0.0122602
0.0120914
0.0119693
0.0119457
0.0115925
-0.350817
-0.113921
-0.0959457
-0.0284252
-0.0238335
-0.00206626
0.000406294
0.0078918
0.00925452
0.0119495
0.0125711
0.013542
0.0137438
0.0140428
0.0140291
0.0140444
0.0139205
0.0138031
0.0136203
0.0134381
0.0132052
0.0129511
0.012753
0.0126511
0.012195
-0.342788
-0.105193
-0.088391
-0.0221394
-0.0182881
0.00260417
0.0045411
0.0114792
0.0124406
0.0147698
0.0150923
0.0158006
0.0157767
0.0158779
0.0156903
0.015552
0.0152913
0.0150519
0.0147592
0.0144766
0.0141502
0.0138106
0.0135359
0.0133567
0.0128091
-0.333957
-0.0961669
-0.0806079
-0.0157469
-0.0126633
0.00732065
0.00870666
0.015085
0.0156382
0.0175962
0.0176168
0.0180599
0.0178093
0.0177118
0.01735
0.0170581
0.0166607
0.0162996
0.0158972
0.0155146
0.0150948
0.0146695
0.0143179
0.014066
0.0134433
-0.324353
-0.0868282
-0.0726032
-0.00925109
-0.00696264
0.0120804
0.0129006
0.0187072
0.0188455
0.0204271
0.0201428
0.0203187
0.0198402
0.0195432
0.0190072
0.0185615
0.0180277
0.0175453
0.0170337
0.0165515
0.0160386
0.0155279
0.0151001
0.0147784
0.0140818
-0.313944
-0.0772201
-0.0643842
-0.00265567
-0.00118989
0.0168803
0.0171203
0.0223434
0.0220606
0.0232608
0.0226691
0.0225755
0.0218683
0.0213711
0.0206606
0.0200613
0.0193914
0.0187882
0.018168
0.0175867
0.0169816
0.0163869
0.0158833
0.0154856
0.0146808
-0.302689
-0.0674034
-0.0559591
0.00403515
0.00465078
0.0217173
0.0213632
0.0259915
0.0252815
0.0260954
0.0251939
0.024829
0.0238922
0.0231943
0.0223094
0.0215566
0.0207511
0.0200276
0.0192994
0.0186198
0.0179241
0.0172477
0.0166671
0.0161755
0.0152027
-0.290646
-0.0573574
-0.0473362
0.0108168
0.0105549
0.0265878
0.0256263
0.0296489
0.0285061
0.0289292
0.0277156
0.0270776
0.0259106
0.0250116
0.0239523
0.0230462
0.0221056
0.0212625
0.0204272
0.0196503
0.0188662
0.0181099
0.0174492
0.0168454
0.0156787
-0.277849
-0.047075
-0.0385244
0.0176841
0.0165178
0.0314883
0.0299065
0.0333131
0.0317322
0.0317603
0.0302327
0.02932
0.0279221
0.0268217
0.0255882
0.0245291
0.023454
0.022492
0.0215505
0.0206777
0.0198068
0.0189714
0.0182271
0.0175158
0.016233
-0.264324
-0.0365615
-0.029533
0.0246317
0.0225345
0.0364151
0.0342007
0.0369814
0.0349574
0.0345867
0.0327432
0.0315545
0.0299254
0.0286234
0.0272159
0.0260043
0.0247954
0.0237153
0.0226687
0.0217013
0.0207446
0.0198292
0.0190035
0.0182254
0.0169904
-0.250096
-0.0258254
-0.0203722
0.0316536
0.0285996
0.041364
0.0385055
0.0406511
0.0381795
0.0374063
0.0352454
0.0337795
0.031919
0.0304153
0.0288343
0.0274706
0.0261287
0.0249316
0.0237809
0.0227202
0.0216786
0.0206841
0.0197877
0.0189951
0.0178949
-0.235196
-0.0148773
-0.0110527
0.0387436
0.0347075
0.0463311
0.0428174
0.0443193
0.0413959
0.0402172
0.0377375
0.0359936
0.0339015
0.0321962
0.0304422
0.028927
0.027453
0.0261397
0.0248863
0.0237336
0.0226094
0.0215414
0.0205885
0.0197832
0.0186306
-0.219654
-0.0037292
-0.00158581
0.0458948
0.0408525
0.0513118
0.0471327
0.047983
0.0446042
0.043017
0.0402176
0.0381949
0.0358713
0.0339647
0.0320382
0.0303723
0.0287671
0.0273388
0.025984
0.0247412
0.0235386
0.0224066
0.0214
0.0204939
0.0188854
-0.203503
0.0076057
0.00801651
0.0531002
0.0470284
0.0563018
0.0514478
0.0516393
0.0478017
0.0458037
0.0426838
0.0403818
0.0378271