/*--------------------------------*- C++ -*----------------------------------*\
  =========                 |
  \\      /  F ield         | OpenFOAM: The Open Source CFD Toolbox
   \\    /   O peration     | Website:  https://openfoam.org
    \\  /    A nd           | Version:  7
     \\/     M anipulation  |
\*---------------------------------------------------------------------------*/
FoamFile
{
    version     2.0;
    format      ascii;
    class       volScalarField;
    location    "14.5";
    object      p;
}
// * * * * * * * * * * * * * * * * * * * * * * * * * * * * * * * * * * * * * //

dimensions      [1 -1 -2 0 0 0 0];

internalField   nonuniform List<scalar> 
2413
(
1.47537
1.45644
1.43634
1.41502
1.39262
1.37031
1.3512
1.34053
1.33762
1.3392
1.34115
1.34004
1.32588
1.31237
1.31859
1.33955
1.36673
1.40777
1.49214
1.56474
1.4116
0.796795
0.576499
0.588285
0.601177
0.614824
0.62904
0.643055
0.656388
0.668768
0.67922
0.688535
0.696833
0.705452
0.714248
0.724493
0.735297
0.746617
0.75807
0.76924
0.779873
0.790055
0.799478
0.8079
0.815438
0.822076
0.82762
0.832131
0.835971
0.839184
0.843475
0.849045
0.855347
0.863719
0.873086
0.883892
0.896685
0.909593
0.922051
0.934841
0.946886
0.958496
0.968883
0.977152
0.983899
0.989599
0.994279
0.998071
1.00076
1.0019
1.00098
0.99869
0.994277
0.98761
0.979624
0.970795
0.961916
0.95401
0.947061
0.940853
0.934483
0.927755
0.920674
0.913362
0.905363
0.895975
0.886284
0.879036
1.46918
1.45059
1.4305
1.40902
1.38663
1.36472
1.34581
1.33411
1.33008
1.33061
1.33255
1.33127
1.31924
1.30345
1.30786
1.3246
1.3518
1.3911
1.47668
1.5531
1.41261
0.821367
0.587146
0.595011
0.605601
0.616659
0.628703
0.640863
0.652801
0.664307
0.675064
0.685199
0.694276
0.703191
0.712491
0.722561
0.733289
0.74437
0.755492
0.766359
0.776769
0.786703
0.796026
0.804539
0.812142
0.818822
0.824437
0.829011
0.832941
0.836519
0.840759
0.846419
0.853409
0.861686
0.871257
0.88294
0.896719
0.910342
0.923405
0.937069
0.950952
0.963934
0.973412
0.981146
0.988327
0.993755
0.99785
1.00112
1.00333
1.00419
1.00285
0.99985
0.995091
0.988367
0.980424
0.971971
0.963245
0.955096
0.947662
0.940842
0.934184
0.927418
0.920129
0.9123
0.904219
0.89546
0.88587
0.877614
1.45989
1.44124
1.42093
1.39937
1.37743
1.35637
1.33818
1.32528
1.31972
1.31942
1.32133
1.32015
1.30959
1.29151
1.29453
1.30797
1.33026
1.36531
1.44925
1.52492
1.38927
0.846628
0.61344
0.615562
0.623627
0.632149
0.641503
0.651438
0.661447
0.670886
0.679721
0.688139
0.696109
0.704238
0.712876
0.722166
0.732192
0.742427
0.752837
0.763001
0.77286
0.782325
0.791325
0.799767
0.807377
0.814067
0.819844
0.824703
0.828991
0.833059
0.837545
0.842779
0.850425
0.859259
0.868846
0.881431
0.896922
0.911615
0.926226
0.941029
0.955681
0.968746
0.979409
0.988011
0.995159
1.00069
1.00371
1.00559
1.00589
1.00488
1.00244
0.998939
0.994296
0.988403
0.981233
0.973684
0.965648
0.957222
0.949126
0.941114
0.932772
0.924208
0.91566
0.907361
0.899575
0.892233
0.884306
0.87641
1.44597
1.42743
1.40725
1.38577
1.36389
1.34256
1.32373
1.30917
1.30138
1.30023
1.30197
1.30169
1.29217
1.26983
1.26601
1.27536
1.29738
1.33129
1.40149
1.45944
1.3196
0.859238
0.650103
0.641608
0.643472
0.647333
0.652786
0.659673
0.667432
0.675107
0.682586
0.689772
0.697105
0.704448
0.712513
0.720966
0.730152
0.739558
0.749297
0.758765
0.768055
0.776825
0.785258
0.793414
0.801026
0.807925
0.8142
0.819533
0.824176
0.828738
0.833511
0.839066
0.846468
0.855515
0.866582
0.879577
0.895771
0.91171
0.928889
0.945038
0.961677
0.976302
0.988323
0.997674
1.00468
1.01009
1.01276
1.01378
1.01339
1.01158
1.00783
1.00243
0.995911
0.988605
0.981074
0.973585
0.965772
0.957513
0.94898
0.940506
0.931828
0.922767
0.913465
0.90465
0.897015
0.890122
0.883016
0.875583
1.42673
1.40832
1.38842
1.36735
1.34546
1.32381
1.30412
1.28849
1.27884
1.27628
1.27853
1.28039
1.27381
1.25227
1.2403
1.24343
1.25983
1.29067
1.33351
1.35811
1.21981
0.842885
0.687313
0.670519
0.668073
0.669274
0.67222
0.676326
0.681122
0.686071
0.691296
0.696528
0.702327
0.708201
0.714743
0.721834
0.729523
0.737774
0.746278
0.755007
0.763725
0.772167
0.78054
0.788553
0.795986
0.802677
0.808799
0.814457
0.819888
0.825064
0.829976
0.835565
0.842463
0.852311
0.864256
0.878205
0.895922
0.91238
0.929688
0.947423
0.966141
0.982714
0.996425
1.00736
1.0155
1.02043
1.02312
1.02342
1.02166
1.01809
1.01297
1.00687
0.999915
0.99221
0.984243
0.975965
0.967814
0.959696
0.950829
0.941256
0.931183
0.920434
0.909806
0.900289
0.892344
0.885566
0.878645
0.871343
1.40366
1.38539
1.36575
1.34474
1.32278
1.30066
1.2801
1.26293
1.25132
1.24658
1.24797
1.25112
1.24741
1.22956
1.21022
1.20605
1.21372
1.22979
1.24481
1.22373
1.08497
0.818355
0.714522
0.691133
0.684876
0.683225
0.684094
0.686322
0.689588
0.693353
0.697763
0.702369
0.70738
0.712401
0.717732
0.723565
0.729845
0.736844
0.744195
0.752039
0.760134
0.768192
0.776137
0.783487
0.790466
0.797378
0.804548
0.811116
0.816994
0.822369
0.827666
0.833995
0.840918
0.849101
0.861414
0.877574
0.895238
0.913536
0.931679
0.950214
0.969646
0.988309
1.00408
1.0161
1.02493
1.03131
1.03389
1.03405
1.03139
1.02719
1.02073
1.01301
1.00405
0.995238
0.986355
0.977316
0.968196
0.959239
0.950272
0.940754
0.930811
0.920222
0.909422
0.899439
0.89066
0.883111
0.875768
0.868293
1.37679
1.35796
1.33804
1.31719
1.29528
1.27296
1.25153
1.23279
1.21877
1.21142
1.21119
1.21512
1.2141
1.20122
1.17912
1.16445
1.16133
1.16207
1.14804
1.09001
0.952327
0.79026
0.72463
0.698485
0.688441
0.684824
0.685118
0.68743
0.691055
0.695363
0.700353
0.705618
0.710926
0.716121
0.721223
0.726499
0.731884
0.737715
0.743768
0.750136
0.756849
0.764136
0.771869
0.779261
0.786936
0.794753
0.802514
0.809208
0.815521
0.821508
0.827391
0.833692
0.840117
0.848051
0.859908
0.874236
0.891667
0.912933
0.933008
0.951436
0.970959
0.99022
1.00773
1.02281
1.03331
1.03979
1.04439
1.04518
1.04241
1.03691
1.03008
1.02138
1.01111
1.00031
0.989551
0.97959
0.970156
0.960778
0.951044
0.940689
0.929698
0.91834
0.906954
0.896351
0.887038
0.878727
0.870787
0.862663
1.34667
1.32747
1.30718
1.28587
1.26365
1.24086
1.21877
1.19855
1.18219
1.17166
1.16824
1.17084
1.17176
1.16236
1.14127
1.1174
1.09773
1.07806
1.04316
0.974738
0.870229
0.774803
0.723061
0.694322
0.678252
0.671562
0.672278
0.674902
0.680188
0.686541
0.693901
0.70151
0.708984
0.71605
0.722751
0.72911
0.735249
0.741187
0.74693
0.752361
0.757933
0.763861
0.770095
0.777064
0.78506
0.793462
0.801901
0.809606
0.816403
0.82279
0.828516
0.834701
0.841373
0.849494
0.85934
0.872041
0.889313
0.909239
0.929378
0.950955
0.971232
0.99035
1.0096
1.02578
1.03873
1.04717
1.0523
1.05445
1.05347
1.04742
1.03986
1.03034
1.01963
1.00752
0.995039
0.983458
0.972267
0.960883
0.949899
0.939286
0.928603
0.917517
0.906463
0.896004
0.886425
0.877663
0.869259
0.860479
1.31394
1.29425
1.27327
1.25128
1.22845
1.20548
1.18262
1.16098
1.14208
1.12837
1.12117
1.12057
1.12063
1.11352
1.09504
1.06599
1.03121
0.992152
0.944966
0.885103
0.819437
0.763471
0.722328
0.692476
0.672488
0.660461
0.658918
0.659669
0.664083
0.670473
0.678557
0.68759
0.697028
0.70675
0.71645
0.72598
0.735035
0.743419
0.750951
0.757518
0.763382
0.768845
0.774168
0.780206
0.78719
0.794931
0.802722
0.810444
0.818162
0.825814
0.832697
0.839448
0.845075
0.851653
0.859356
0.870494
0.885257
0.905843
0.926059
0.945967
0.966742
0.987995
1.00825
1.02633
1.04061
1.05156
1.05806
1.06126
1.06119
1.05823
1.05118
1.03979
1.02863
1.01592
1.00258
0.988031
0.97362
0.960738
0.949227
0.937927
0.926538
0.915343
0.904533
0.894173
0.884353
0.87514
0.866349
0.857054
1.27889
1.25924
1.23752
1.2148
1.19124
1.16715
1.14325
1.12021
1.09956
1.08342
1.07268
1.0677
1.06483
1.05824
1.04149
1.01101
0.968386
0.919035
0.8683
0.819727
0.777482
0.742417
0.712139
0.686461
0.667199
0.653268
0.649384
0.648403
0.651205
0.656585
0.66389
0.67271
0.682323
0.692905
0.703971
0.715581
0.727267
0.738817
0.749691
0.759652
0.768419
0.776023
0.782162
0.787987
0.793879
0.799718
0.806118
0.814002
0.822155
0.82981
0.836625
0.843611
0.849817
0.855772
0.862689
0.871619
0.882654
0.898875
0.91859
0.941257
0.962302
0.981392
1.00236
1.0228
1.0402
1.05348
1.06191
1.06713
1.06731
1.065
1.06007
1.05221
1.03865
1.02445
1.01039
0.996751
0.982258
0.967834
0.951627
0.936419
0.923592
0.912125
0.901417
0.891237
0.881556
0.872554
0.863313
0.853996
1.24204
1.22232
1.20044
1.17675
1.15229
1.12784
1.10322
1.0792
1.05706
1.03842
1.02385
1.01379
1.00664
0.998535
0.982978
0.954739
0.912881
0.862812
0.814463
0.774633
0.743415
0.71752
0.694306
0.673915
0.657587
0.645371
0.640132
0.638739
0.640655
0.64534
0.65201
0.660432
0.669815
0.680452
0.691777
0.703997
0.716639
0.729662
0.742682
0.75547
0.767632
0.778699
0.788386
0.796525
0.802883
0.80822
0.813729
0.81932
0.825648
0.832757
0.840857
0.84811
0.854755
0.860955
0.866806
0.873785
0.881413
0.893642
0.910243
0.931483
0.954196
0.976435
0.996585
1.01439
1.03365
1.05092
1.06336
1.07
1.07304
1.07205
1.0667
1.0587
1.04939
1.03674
1.01965
1.00444
0.986309
0.971103
0.955483
0.940944
0.927145
0.913535
0.900528
0.889095
0.879411
0.871392
0.863645
0.854832
1.20393
1.18432
1.16243
1.13868
1.11396
1.08857
1.06276
1.03759
1.014
0.993744
0.976972
0.963638
0.952973
0.942304
0.926417
0.900983
0.864593
0.819937
0.776342
0.741404
0.71487
0.693366
0.674394
0.657936
0.644653
0.634835
0.629968
0.628712
0.630447
0.63494
0.641543
0.649918
0.659459
0.670203
0.681707
0.694052
0.706913
0.72029
0.733958
0.747819
0.761672
0.775227
0.788148
0.799688
0.809118
0.81633
0.822421
0.82701
0.832146
0.837985
0.844354
0.851026
0.858722
0.865057
0.870376
0.876844
0.883152
0.891642
0.903457
0.920957
0.942262
0.965185
0.98694
1.00746
1.02662
1.04261
1.05751
1.06902
1.0755
1.07576
1.07307
1.06714
1.05719
1.0446
1.03175
1.01545
0.995798
0.979957
0.961129
0.943637
0.929187
0.915105
0.902132
0.890484
0.880027
0.870626
0.861076
0.850488
1.16508
1.14575
1.12399
1.10039
1.07559
1.04985
1.02355
0.997845
0.973527
0.952204
0.933383
0.916666
0.902261
0.889121
0.873175
0.851045
0.821528
0.785241
0.747833
0.715651
0.690391
0.670646
0.65427
0.640712
0.630092
0.622141
0.618589
0.617717
0.619548
0.624146
0.630899
0.63949
0.649491
0.660674
0.672765
0.685582
0.698922
0.712612
0.726553
0.740666
0.754922
0.769228
0.783421
0.797078
0.809551
0.820159
0.828525
0.834831
0.839952
0.844483
0.84942
0.855642
0.862025
0.868239
0.875152
0.880216
0.884742
0.890812
0.899981
0.912403
0.929208
0.95038
0.973763
0.995051
1.01517
1.03409
1.05093
1.0627
1.0711
1.07583
1.07644
1.07213
1.06408
1.05395
1.04054
1.02491
1.00697
0.989869
0.970489
0.952724
0.935964
0.919064
0.903787
0.890647
0.879496
0.869451
0.859977
0.851131
1.12659
1.10751
1.08602
1.06266
1.03795
1.01232
0.986344
0.96084
0.936173
0.913499
0.892816
0.873983
0.857225
0.842348
0.826335
0.807066
0.783466
0.755187
0.724749
0.695603
0.670648
0.650879
0.6354
0.623565
0.615052
0.608565
0.606246
0.606142
0.608226
0.613118
0.620053
0.628956
0.63938
0.65104
0.663722
0.677117
0.691101
0.705359
0.719819
0.734249
0.748644
0.762917
0.777175
0.791399
0.805297
0.8183
0.829678
0.838838
0.846274
0.85184
0.856158
0.860582
0.865781
0.872298
0.878692
0.883989
0.889676
0.893538
0.898676
0.905587
0.918582
0.935954
0.956827
0.978449
1.00101
1.02035
1.03688
1.05285
1.06565
1.07249
1.07413
1.07306
1.06865
1.06041
1.04839
1.0331
1.01616
0.999625
0.981376
0.964681
0.946231
0.927648
0.91157
0.89716
0.884286
0.872493
0.861194
0.850422
1.08881
1.07003
1.049
1.02616
1.00189
0.976498
0.950384
0.924511
0.899542
0.876616
0.855643
0.836059
0.817735
0.801212
0.784652
0.767138
0.748258
0.726495
0.702544
0.677651
0.654072
0.634149
0.618696
0.607561
0.600492
0.595365
0.594055
0.594917
0.597448
0.602702
0.609746
0.61888
0.62956
0.641638
0.654838
0.668843
0.683501
0.69843
0.713535
0.728488
0.743303
0.757777
0.77206
0.786189
0.800246
0.814012
0.827094
0.838844
0.848613
0.856658
0.862708
0.867249
0.871304
0.876066
0.881718
0.887999
0.893136
0.897265
0.90139
0.90482
0.911567
0.922561
0.939267
0.960307
0.981409
1.00147
1.02149
1.03863
1.05081
1.06188
1.06986
1.07235
1.06925
1.06279
1.05395
1.04233
1.02703
1.00813
0.989753
0.972355
0.956835
0.939314
0.92371
0.908355
0.893702
0.880198
0.867472
0.855333
1.0521
1.03391
1.01365
0.991483
0.967796
0.942968
0.917523
0.892384
0.867997
0.845089
0.823618
0.803428
0.784209
0.76679
0.750115
0.733724
0.717572
0.700466
0.681839
0.661514
0.640778
0.621505
0.60572
0.594043
0.58697
0.582319
0.581557
0.583119
0.586306
0.592184
0.599643
0.609204
0.620219
0.632706
0.646329
0.660844
0.676054
0.691592
0.707304
0.722847
0.738199
0.753097
0.767636
0.781716
0.795586
0.809292
0.822863
0.835968
0.84804
0.858347
0.866568
0.872782
0.877181
0.881052
0.885571
0.891089
0.896532
0.901334
0.904458
0.907427
0.910766
0.915985
0.925088
0.940487
0.959601
0.981644
1.00105
1.01824
1.03435
1.04794
1.0566
1.06193
1.06523
1.06452
1.0585
1.0479
1.03477
1.01973
1.0031
0.983559
0.96496
0.948492
0.933645
0.919996
0.907365
0.894149
0.879689
0.864853
1.01779
1.00023
0.980597
0.958959
0.935951
0.911914
0.887266
0.862647
0.838471
0.815517
0.793944
0.773978
0.75486
0.737038
0.720267
0.704474
0.689688
0.675423
0.66079
0.644643
0.627372
0.610022
0.594842
0.583002
0.575861
0.571483
0.571136
0.57323
0.576975
0.58343
0.591365
0.601411
0.612829
0.625748
0.63974
0.654629
0.670188
0.686085
0.702183
0.718122
0.733864
0.749167
0.764044
0.778329
0.792208
0.805739
0.819144
0.832427
0.845402
0.85743
0.867717
0.876089
0.882042
0.886108
0.889587
0.893725
0.898638
0.903884
0.908233
0.911049
0.912478
0.91466
0.917814
0.925438
0.937835
0.95576
0.976833
0.997468
1.01396
1.02735
1.03977
1.04939
1.05431
1.0551
1.05391
1.05073
1.043
1.03022
1.01433
0.997654
0.981266
0.963536
0.945977
0.930912
0.918409
0.906151
0.892888
0.878825
0.98523
0.968333
0.949574
0.928899
0.90685
0.883633
0.859832
0.836096
0.812783
0.790485
0.769204
0.749362
0.7303
0.712346
0.695801
0.680837
0.667175
0.654622
0.642457
0.629614
0.615814
0.601164
0.587513
0.57597
0.568357
0.563351
0.562563
0.564525
0.568236
0.574848
0.582993
0.593337
0.60509
0.618394
0.63281
0.648143
0.664178
0.680582
0.697201
0.713664
0.729918
0.745741
0.761106
0.775742
0.789681
0.803041
0.816211
0.829357
0.842454
0.855212
0.866912
0.876765
0.884579
0.889831
0.893438
0.896771
0.900798
0.905469
0.909889
0.9134
0.915445
0.916233
0.91705
0.919299
0.924497
0.934418
0.949677
0.968064
0.988062
1.0064
1.01995
1.02936
1.0378
1.0438
1.04582
1.04386
1.03863
1.03196
1.02344
1.01124
0.995933
0.9802
0.965853
0.952399
0.937483
0.920755
0.903667
0.8876
0.955783
0.939592
0.921607
0.901718
0.880479
0.858216
0.835439
0.812561
0.789906
0.76808
0.747045
0.727449
0.708964
0.691726
0.675762
0.66139
0.648232
0.636336
0.625481
0.614893
0.60413
0.592417
0.58077
0.570338
0.562777
0.55767
0.556767
0.558956
0.56287
0.569725
0.578231
0.588974
0.601177
0.614894
0.629775
0.645511
0.661891
0.678489
0.695164
0.711484
0.727437
0.742922
0.758098
0.772878
0.787248
0.801003
0.814241
0.82704
0.839736
0.852349
0.864663
0.87568
0.885031
0.892049
0.896344
0.898969
0.901593
0.90545
0.910027
0.914166
0.916924
0.918321
0.918607
0.91848
0.919584
0.922681
0.929638
0.941148
0.957177
0.974826
0.992893
1.00841
1.01921
1.02503
1.02945
1.03272
1.03344
1.03006
1.02266
1.01345
1.00448
0.994675
0.984041
0.971395
0.95745
0.942451
0.926011
0.908115
0.928718
0.913254
0.896109
0.877336
0.857239
0.836
0.81419
0.792348
0.770686
0.749647
0.72922
0.710075
0.692111
0.675446
0.659878
0.645919
0.633524
0.622619
0.612967
0.603964
0.59514
0.585928
0.576352
0.567535
0.560616
0.555556
0.554086
0.555941
0.559564
0.566097
0.574541
0.585226
0.597496
0.611194
0.626163
0.641994
0.658549
0.675394
0.692368
0.709084
0.725447
0.741284
0.75665
0.771434
0.785685
0.799315
0.812386
0.825014
0.837476
0.849954
0.862086
0.873596
0.883503
0.891454
0.897062
0.900511
0.902731
0.905409
0.909019
0.913177
0.916697
0.918923
0.919738
0.919466
0.918916
0.918676
0.920048
0.924034
0.931898
0.944431
0.960093
0.976258
0.991741
1.00448
1.01324
1.01705
1.01836
1.01908
1.01852
1.01549
1.00995
1.00239
0.994413
0.986501
0.976523
0.963371
0.947267
0.927815
0.905202
0.89041
0.874118
0.856304
0.837171
0.817094
0.796443
0.77548
0.754527
0.734142
0.714421
0.695907
0.678587
0.662759
0.648152
0.634948
0.623224
0.612911
0.603609
0.595221
0.587489
0.58027
0.572969
0.566105
0.560245
0.55548
0.553641
0.555236
0.558905
0.565268
0.573933
0.584772
0.597382
0.611397
0.626763
0.642936
0.659748
0.67668
0.693593
0.710128
0.726195
0.741631
0.756557
0.771048
0.785124
0.798676
0.811645
0.824088
0.836181
0.848033
0.859782
0.871212
0.881859
0.890815
0.89702
0.900183
0.901757
0.903569
0.906428
0.910523
0.914663
0.917828
0.919451
0.919784
0.919299
0.91835
0.917289
0.917001
0.918173
0.922956
0.931775
0.944102
0.958505
0.972671
0.985606
0.996122
1.00319
1.00676
1.007
1.00722
1.00731
1.00701
1.00475
0.999723
0.992482
0.981303
0.965807
0.945398
0.884867
0.870869
0.855383
0.838543
0.820568
0.801566
0.781907
0.761832
0.741598
0.721784
0.702698
0.684837
0.668244
0.653138
0.639291
0.626685
0.615369
0.605625
0.597118
0.589822
0.583245
0.577513
0.57186
0.566734
0.562412
0.558588
0.556943
0.558319
0.561899
0.567859
0.576416
0.587047
0.599614
0.613616
0.628999
0.645168
0.661902
0.678753
0.695496
0.711802
0.727576
0.742738
0.757413
0.771623
0.785408
0.798703
0.811438
0.823581
0.835206
0.846509
0.857902
0.86924
0.879664
0.888348
0.895225
0.899745
0.901897
0.902654
0.903386
0.905966
0.909896
0.913717
0.916447
0.917964
0.918445
0.917965
0.917013
0.915487
0.913961
0.913176
0.914569
0.919407
0.928275
0.939962
0.952903
0.96509
0.975698
0.985173
0.992304
0.997722
1.00127
1.0043
1.00734
1.00807
1.0054
0.99755
0.982723
0.962994
0.868053
0.854728
0.840154
0.824399
0.80743
0.789472
0.770554
0.751359
0.732403
0.713984
0.696236
0.679324
0.663296
0.648427
0.634733
0.622395
0.611332
0.601874
0.593901
0.58756
0.582094
0.577593
0.573328
0.569533
0.566479
0.563477
0.562075
0.563244
0.566794
0.572517
0.580877
0.591135
0.603376
0.617066
0.632145
0.648091
0.664699
0.681517
0.698267
0.714609
0.730389
0.745428
0.759712
0.773349
0.786481
0.799166
0.811402
0.823107
0.834342
0.845314
0.856179
0.866812
0.876823
0.885735
0.892807
0.897036
0.898813
0.899155
0.899802
0.902234
0.905931
0.909659
0.912614
0.914721
0.915941
0.916357
0.916231
0.915272
0.913729
0.911197
0.908855
0.90797
0.909171
0.91344
0.92163
0.932201
0.94392
0.955384
0.965558
0.976135
0.986631
0.996697
1.00578
1.01076
1.01137
1.00772
0.997023
0.979784
0.85466
0.842149
0.828378
0.813423
0.797259
0.780254
0.76278
0.745007
0.727099
0.709361
0.692154
0.675722
0.660216
0.645939
0.632918
0.621387
0.611092
0.602223
0.594578
0.588533
0.583776
0.580261
0.577265
0.574727
0.572862
0.570997
0.570379
0.571739
0.575288
0.580787
0.58877
0.598578
0.610383
0.623666
0.63833
0.653884
0.670061
0.68645
0.702741
0.718619
0.733937
0.74859
0.762623
0.776068
0.788931
0.801155
0.812729
0.823682
0.834158
0.844343
0.854443
0.864519
0.874253
0.882776
0.889669
0.894162
0.895991
0.895804
0.894899
0.896112
0.899354
0.9035
0.90723
0.910035
0.911947
0.913245
0.91419
0.914272
0.913696
0.911958
0.908991
0.90554
0.902726
0.900941
0.901679
0.905106
0.912277
0.922228
0.934315
0.94777
0.961309
0.976378
0.992482
1.00575
1.0134
1.01424
1.00491
0.987418
0.844249
0.832563
0.8196
0.805511
0.790573
0.774949
0.758592
0.741757
0.724849
0.708168
0.691959
0.676443
0.66173
0.648124
0.635533
0.624273
0.614227
0.605714
0.598772
0.593503
0.589803
0.587359
0.585545
0.584019
0.582797
0.581566
0.581362
0.582635
0.585855
0.590984
0.598464
0.607752
0.618938
0.631546
0.645465
0.660303
0.675829
0.691693
0.707607
0.723264
0.73847
0.753039
0.766888
0.779961
0.79231
0.804036
0.815205
0.825807
0.835822
0.845292
0.854429
0.863399
0.872038
0.879887
0.886443
0.891111
0.893081
0.892653
0.891384
0.891412
0.893255
0.896993
0.900923
0.90432
0.907099
0.909205
0.911029
0.912149
0.912663
0.912177
0.9106
0.907206
0.903227
0.898808
0.8951
0.892523
0.892574
0.895515
0.902669
0.913902
0.92923
0.948711
0.969239
0.988253
1.00451
1.01232
1.00885
0.99476
0.837197
0.826257
0.814289
0.801395
0.787529
0.772912
0.75769
0.742061
0.726194
0.710445
0.695098
0.68043
0.666396
0.65331
0.641079
0.63009
0.620364
0.612137
0.605656
0.600869
0.597994
0.596563
0.595988
0.595836
0.595328
0.594552
0.594848
0.596502
0.599809
0.604812
0.611813
0.620465
0.630818
0.642547
0.655552
0.66951
0.68417
0.699216
0.714389
0.729398
0.744018
0.758068
0.771493
0.784261
0.79637
0.807818
0.818621
0.82882
0.838448
0.847505
0.856059
0.864201
0.871876
0.878757
0.88435
0.888012
0.889286
0.88871
0.887682
0.887418
0.888875
0.892168
0.89584
0.899197
0.902123
0.904673
0.907123
0.909159
0.910704
0.911318
0.911185
0.909426
0.906118
0.901517
0.896307
0.890908
0.886368
0.883471
0.883836
0.888051
0.897497
0.913513
0.93529
0.961245
0.984307
0.998377
1.0026
0.99589
0.833007
0.822932
0.81186
0.799937
0.787175
0.773729
0.759639
0.74522
0.730628
0.716104
0.7017
0.687807
0.674419
0.661875
0.650066
0.639344
0.629878
0.62198
0.616136
0.612302
0.610815
0.610906
0.611656
0.612579
0.612647
0.611931
0.612017
0.61342
0.616194
0.620558
0.626783
0.634601
0.643989
0.654674
0.666548
0.679349
0.692874
0.706895
0.721242
0.735659
0.749885
0.763665
0.776855
0.789368
0.80121
0.812413
0.823011
0.833032
0.842421
0.851107
0.859121
0.866512
0.873218
0.879026
0.883614
0.886482
0.887063
0.885599
0.883344
0.882255
0.883688
0.887266
0.891159
0.894631
0.897586
0.900309
0.903072
0.905735
0.908075
0.909757
0.910546
0.910344
0.908588
0.905153
0.900518
0.894631
0.88851
0.882795
0.878665
0.877347
0.879999
0.887953
0.902846
0.925099
0.949797
0.971371
0.984923
0.986103
0.831136
0.821963
0.811906
0.80105
0.789439
0.777246
0.764497
0.751342
0.737803
0.724374
0.711073
0.698149
0.68548
0.673394
0.6619
0.651412
0.642177
0.634638
0.629374
0.626506
0.626473
0.628108
0.630312
0.632138
0.632642
0.631817
0.631479
0.632633
0.635123
0.639021
0.644535
0.65139
0.659599
0.669006
0.679567
0.691091
0.703423
)
;

boundaryField
{
    inlet
    {
        type            fixedValue;
        value           nonuniform 0();
    }
    outlet
    {
        type            zeroGradient;
    }
    bottom
    {
        type            symmetryPlane;
    }
    top
    {
        type            symmetryPlane;
    }
    obstacle
    {
        type            zeroGradient;
    }
    front
    {
        type            empty;
    }
    back
    {
        type            empty;
    }
    procBoundary3to2
    {
        type            processor;
        value           nonuniform List<scalar> 
28
(
1.49265
1.48601
1.47658
1.46259
1.44362
1.42063
1.39405
1.36416
1.33141
1.29624
1.25911
1.22086
1.18173
1.14309
1.10507
1.06817
1.0332
1.00013
0.970093
0.942418
0.918318
0.897314
0.87994
0.865806
0.854474
0.846945
0.841987
0.839407
)
;
    }
    procBoundary3to4
    {
        type            processor;
        value           nonuniform List<scalar> 
27
(
0.875309
0.87242
0.870178
0.86885
0.864133
0.860298
0.854138
0.851124
0.847413
0.844237
0.845538
0.840179
0.842397
0.840412
0.844288
0.850984
0.86457
0.87223
0.888704
0.906037
0.922407
0.940793
0.956919
0.966343
0.974465
0.978748
0.975552
)
;
    }
    procBoundary3to11
    {
        type            processor;
        value           nonuniform List<scalar> 
89
(
0.71639
0.729868
0.743606
0.757287
0.770585
0.783304
0.795375
0.806858
0.817793
0.828184
0.838014
0.84719
0.855608
0.863222
0.870032
0.875989
0.880898
0.8844
0.886042
0.885495
0.883227
0.880514
0.879129
0.880176
0.883261
0.886993
0.890504
0.89357
0.896413
0.899337
0.902358
0.905245
0.907721
0.909429
0.910097
0.909771
0.907812
0.904542
0.899679
0.893943
0.88766
0.881949
0.877843
0.876661
0.878894
0.885728
0.898724
0.916398
0.935475
0.950556
0.959552
0.831334
0.823025
0.814009
0.804344
0.794002
0.783096
0.771642
0.759873
0.747742
0.735425
0.722907
0.710694
0.698735
0.687264
0.676272
0.66615
0.657222
0.650034
0.645467
0.643897
0.645792
0.649511
0.653515
0.656247
0.656967
0.65571
0.65451
0.65477
0.656397
0.659303
0.663692
0.669231
0.676008
0.683942
0.693033
0.703132
0.71639
0.71413
)
;
    }
}


// ************************************************************************* //
