/*--------------------------------*- C++ -*----------------------------------*\
  =========                 |
  \\      /  F ield         | OpenFOAM: The Open Source CFD Toolbox
   \\    /   O peration     | Website:  https://openfoam.org
    \\  /    A nd           | Version:  7
     \\/     M anipulation  |
\*---------------------------------------------------------------------------*/
FoamFile
{
    version     2.0;
    format      ascii;
    class       volScalarField;
    location    "0.933";
    object      p;
}
// * * * * * * * * * * * * * * * * * * * * * * * * * * * * * * * * * * * * * //

dimensions      [0 2 -2 0 0 0 0];

internalField   nonuniform List<scalar> 
12359
(
0.0675013
0.076485
0.0520296
0.10924
0.070821
0.156135
0.187227
0.17053
0.227547
0.14436
0.209404
0.276721
0.488342
0.116734
0.104188
0.397254
0.442944
0.0560521
0.0557447
0.0893725
0.12528
0.251476
0.0827392
0.0946516
0.0794473
0.0857208
0.0530517
0.0529178
0.0550477
0.0534929
0.0538605
0.0524747
0.0521664
0.053281
0.0520532
0.0540413
0.0610743
0.0658453
0.0693728
0.063368
0.0745053
0.0645249
0.0586753
0.058028
0.0545349
0.0547811
0.0542578
0.0537033
0.0553947
0.0531512
0.05279
0.0526868
0.0524064
0.056482
0.052345
0.0521922
0.057438
0.0521639
0.052152
0.0520958
0.0522355
0.0520571
0.0527251
0.516362
0.0569
0.133612
0.0603207
0.0526088
0.0616875
0.348846
0.533115
0.0725038
0.0520198
0.0624479
0.0997293
0.0520545
0.0523857
0.0520335
0.0596066
0.317873
0.126464
0.0474447
0.051222
0.0524874
-0.0577871
0.0270684
0.0472634
0.0497491
-0.0700322
-0.05195
0.0518372
0.472825
0.0517932
0.0514046
0.051227
0.00913954
0.0508682
0.0514206
0.0596531
0.0564087
0.109289
0.0519293
0.0274603
-0.127002
0.0465566
0.0144947
0.0510166
-0.0568574
0.0296954
0.0147849
0.0509507
0.0475436
0.111482
0.0925217
0.0516552
0.0479987
0.0943205
0.0464949
-0.0734576
0.051256
0.0510884
0.176793
0.0495691
0.00683867
0.0462686
0.0480838
0.0383006
0.0523612
0.0520265
0.0461311
0.0486295
-0.0022256
-0.00354694
-0.00242691
0.0510596
0.00785046
0.0484766
0.00794989
0.0519595
0.0384093
0.0513694
0.0688928
0.0163861
0.0510253
0.00919138
0.148749
0.0512303
-0.0463019
0.0464012
0.127791
0.00419173
0.0519418
0.0163316
0.0495069
0.0517495
-0.160612
0.109398
-0.00159186
0.0509839
0.0525365
0.0470315
0.0525861
0.00494906
0.0134462
0.0512078
0.0482057
0.0481109
0.1754
0.0148623
-0.0722055
0.0520345
0.0520541
0.0139
0.0793406
0.0467997
0.0426967
0.0550926
0.0548715
0.112457
0.0432468
0.116574
0.0517284
0.0520272
0.0471851
0.0586688
0.207885
0.0463206
0.0505567
0.00670358
0.0460722
0.0508627
0.011157
0.0124111
0.0494241
0.0135567
-0.132771
0.0343975
0.047256
0.0168684
0.0465928
0.152607
0.00626655
0.0576392
0.014485
0.0127764
0.0517091
0.011631
0.0582078
0.00251276
0.0452103
0.0514913
0.00021504
0.000449335
-0.53405
0.203592
0.0519598
0.0467711
0.0516677
0.0465548
0.0695894
0.103259
0.0453352
0.00685962
0.474411
0.045925
0.0514712
0.0702783
0.0299186
0.0459528
0.0480408
0.0478415
0.0512194
0.0100101
0.0575856
0.0500126
0.0565981
0.0512503
0.0157614
0.0501551
0.294052
0.0511847
0.0251746
0.0506548
0.0544083
0.0457164
-0.0465133
0.0521274
0.00233232
0.0477349
0.0124852
0.001886
0.0652259
0.0545173
0.0483414
0.330327
-0.590275
0.0512612
0.045272
0.40057
-0.0501937
0.0571089
0.0467986
0.0460571
0.0134481
0.0777943
-0.462436
-0.0681491
0.0453879
0.0455163
0.00835134
0.0139642
0.0625906
0.0149365
0.0484734
0.045154
0.0512098
0.045329
-0.116551
0.0441053
0.0509621
0.0519177
0.0128541
0.0428943
0.0603509
0.0260394
0.0513099
0.0482825
0.0519351
0.0519185
0.0525135
0.00490469
0.0471496
-0.460554
0.0510358
0.0509914
0.0272777
0.0476776
0.102921
0.0516258
0.0528555
0.0518549
-0.103137
0.0455672
0.0518564
0.0470417
0.0511697
0.0475964
0.0480971
0.0482163
0.0473584
0.0560518
0.205793
0.0473334
0.0539154
0.0658928
0.0235021
-0.0554111
0.0470046
0.0606368
0.373586
0.05191
0.020646
0.0509367
0.03475
0.0509957
0.0466707
0.227965
0.019937
0.206483
0.0598538
0.0503015
0.011794
0.00638374
0.050119
0.0120869
0.0117602
0.05072
0.0522984
0.0522827
0.0523505
0.0523246
0.295277
0.0512906
0.106717
0.00154312
0.0574365
0.0143453
0.0199892
0.0277435
0.0355593
0.0192159
0.0360427
0.0593906
0.0214324
0.0226374
0.0943097
0.0697003
0.0153158
0.0679538
0.0678552
0.0175133
0.106427
0.0479602
0.0523758
0.0330961
0.0523348
0.0476493
-0.196993
0.50384
0.047853
0.0519887
0.0510772
0.0516319
0.018986
0.0517537
0.0517385
-0.0761859
0.013963
-0.0481746
0.0497061
0.0113991
0.0431713
0.0508618
0.0170006
0.0329044
0.112331
0.0331828
0.0481829
0.0509249
0.0133976
0.0109507
0.0455749
0.294897
0.0166682
0.00873367
0.051703
0.0484181
0.0519732
0.385503
0.0132869
0.0498387
0.063176
0.0669126
0.0513842
0.0513573
0.0515747
-0.0568923
0.100583
0.0617195
0.0197692
0.00462729
0.0514253
0.116432
0.0510505
1.65225e-05
-0.060187
0.300559
0.0563066
0.0937449
0.029853
0.0234212
0.0374483
0.0327247
0.0535533
0.0373979
0.0167398
0.0517575
-0.0507893
0.0608656
-0.00649579
0.00974409
0.05788
0.0978469
-0.146599
0.0186263
0.0413986
0.00739081
0.00943064
0.020025
0.0465629
0.0515258
0.053742
0.0510132
-0.00280058
0.0487686
0.0854051
0.0874837
0.0378762
-0.0554282
0.105697
0.05613
0.0501344
0.389947
0.0509325
0.0496816
0.00574406
0.0519923
0.05
0.0496475
0.23723
0.209386
0.0520865
0.0499634
0.111949
0.0498431
0.0198758
0.0162004
0.014361
0.0506312
0.0516149
0.0496766
0.0518644
0.086989
0.0204909
0.0230108
0.0547105
0.0525028
0.00334564
0.053648
0.0490411
0.0453045
0.122459
0.00518793
0.0519399
0.0492562
0.013243
0.0320343
0.0503403
0.0482675
0.114588
0.0201228
0.00830143
0.0219059
0.0506052
0.0493668
-0.0050874
-0.00415632
0.0518595
0.0386273
0.0492295
0.00685082
0.283637
0.0515579
0.0488201
0.0508412
0.0158428
0.0560509
0.0551852
0.0481905
0.0511051
0.031729
0.0780114
0.0401793
-0.0350682
0.0509551
-0.0411054
0.0498723
-0.101448
0.0194645
-0.00222338
0.0521392
0.0544987
0.0228753
0.0472588
0.0527765
0.0590534
0.0561545
0.0565306
0.0721068
0.015048
0.0146733
0.0512417
0.0469274
0.0202835
-0.00330355
0.0512403
0.0509916
0.0133112
0.0507544
0.227409
-0.150638
-0.10704
0.0512398
0.0433962
0.00151893
0.0555232
0.0471626
0.452439
0.0509905
0.116467
0.0902738
0.0432412
0.0474563
0.0529078
0.0382955
0.00108124
0.0320484
0.0538521
0.0512655
0.0520252
0.0558402
0.0550619
0.056675
0.0151402
0.0525488
0.0509851
0.0215933
-0.0804755
0.0538209
8.36376e-06
0.0510965
0.0544059
0.0965486
0.00214005
0.00182947
0.0982965
0.0477939
0.00203592
0.0514145
0.0520839
0.0054372
0.0388646
0.0471854
0.0387903
0.0516756
0.0509535
0.047862
0.0509672
0.0019851
0.105739
0.0611876
0.120526
0.0167557
0.0412967
0.114439
0.0649307
-0.00518299
0.0143328
0.0657674
0.0552981
0.0521016
0.0390292
0.0220591
0.0512355
0.0520031
0.0507348
0.0521327
-0.0156915
0.0390283
0.0351679
0.107225
0.0593578
0.236747
0.00691836
0.002262
0.0477243
-0.00110619
0.0516603
0.0519031
0.0506271
0.107247
0.115723
0.0482341
0.0321289
0.231634
0.0168748
0.00643495
0.0401881
0.0669626
-0.12856
0.0502874
0.0529738
0.0516948
-0.00973582
0.0528533
0.0328311
-0.0550521
0.0509961
0.0796094
0.0586742
0.0431698
0.0540514
0.0485747
0.0523874
0.0556507
0.0524399
0.0523264
0.0551104
0.00729031
0.0113283
0.0431833
0.333736
0.00231585
0.42213
0.0181988
0.0262542
0.0553838
0.0194279
0.0584622
0.0111732
0.320096
0.0998478
0.0575605
0.045322
0.0563348
0.0550721
0.0225057
0.0515244
-0.00724641
0.0524574
0.101351
0.0495256
-0.013992
0.00859907
0.0122451
0.0574092
0.0406855
0.00919193
0.0791011
0.00615284
0.0419853
0.00372639
0.0446559
0.0512725
0.0517599
-0.211671
0.0710892
0.043887
0.051197
0.0526382
0.0565899
0.0850047
0.0114209
0.0186788
0.0507128
0.0454541
0.0570779
0.0438189
0.0405171
0.00253584
0.0577887
0.0590382
0.0101771
0.0452738
0.0421577
0.105142
0.0512408
0.057831
-0.256966
0.0521304
0.00798397
0.0522798
0.0425268
0.0905034
0.010533
0.0526053
0.0199084
0.0515377
0.113753
0.0462633
0.0130789
0.0119361
0.114614
0.0514138
0.00159713
-0.00547564
0.0579481
0.0441185
0.0464908
0.037376
0.240259
0.0557932
0.0519793
0.056578
0.0517704
-0.127073
0.043483
0.0104905
0.0329279
0.0191883
0.52324
0.0436267
-0.0557463
0.0118222
-0.0890596
0.0196737
0.0538178
0.0436335
0.0323473
-0.0480843
-0.0358161
0.0500406
0.0500027
0.119558
0.0491635
0.213828
0.0210076
0.0707545
0.046813
0.39682
-0.102862
0.0439857
0.0512775
0.0512843
0.0954128
0.0566395
0.0614638
0.0539158
0.0162206
0.0787741
-0.0249906
0.352256
0.0508127
0.0843094
0.0151731
0.121813
0.0455407
0.115932
0.00874885
0.0964076
0.0542936
0.0511884
0.0102587
0.00731282
0.0189937
0.119639
0.0131106
0.0265985
0.0528731
0.0506903
0.0400791
0.248138
0.0401519
0.0129157
0.0681009
0.0212514
0.0370708
0.0544981
-0.00469919
0.0340564
0.0450569
-0.0146829
0.059567
0.0283457
0.203035
0.0512656
0.0337325
0.0517225
0.0586943
0.0482497
0.0523174
0.0512402
0.00216168
0.0456327
0.079275
0.013228
0.0964772
0.0322376
0.0326389
0.0111371
-0.19364
0.0521189
0.0583441
0.0274817
-0.0698578
0.0077378
0.051325
0.51121
0.0512158
0.0463275
-0.165697
0.0566689
0.0516402
0.0516541
0.0668718
0.0913265
0.0521377
0.0576819
0.11109
0.05234
0.0548533
0.0543156
0.0503009
0.092356
-0.0167477
0.055875
0.118563
0.011754
0.0110568
0.00641646
0.0163149
0.0542921
0.0461461
-0.0403427
0.0055268
0.0744935
0.0503377
0.0521569
0.119767
-0.000910767
0.0345909
0.0388843
0.0344354
0.053839
0.0450498
0.0856305
-0.232075
0.364115
0.0841017
0.0517216
0.0450716
0.0812162
0.349647
0.11271
0.0513529
0.000659433
-0.0123015
-0.241263
0.0370662
-0.156943
0.0521294
0.0541947
0.0521716
0.0067958
0.0763453
-0.16535
0.0467381
-0.0844541
0.0489433
0.0522341
0.0116315
0.0559264
0.00148316
-0.041981
0.057432
0.0363969
0.0260414
0.037416
0.0572839
0.0759729
0.07412
0.0322982
0.0794954
0.0574717
0.0522012
0.0545581
0.0526909
0.106057
0.0243864
-0.00696105
0.00287705
0.0876021
0.0255546
0.0240444
0.0441291
-0.0116781
0.0355651
0.0568068
0.0517059
-3.43734e-05
0.110162
0.0469709
0.0405076
0.0584235
0.0244095
0.104073
0.117377
0.024625
0.240802
0.0231688
0.0886463
-0.0389071
0.0555791
0.0185854
0.0121502
0.0493484
0.0351961
0.039585
0.0456057
0.0514103
0.0475827
-0.0136469
-0.00110477
0.0468344
-0.144444
0.1015
0.0525831
0.050756
0.00223194
0.0524936
0.0783471
0.0142634
0.00511145
0.0524406
0.0546435
0.0509866
0.0524989
0.120341
-0.137889
0.0525439
0.0572433
0.0512461
-0.145694
0.0223322
0.0158909
0.0510382
0.0524487
0.0541049
0.025916
0.0857304
0.0290601
0.049705
0.0546148
0.0523829
0.0218036
0.0861786
0.0396894
0.0519962
0.0319105
0.0262526
0.0769694
0.0478899
-0.0164295
0.147068
0.049377
0.0339292
0.0543288
0.0450495
-0.184218
0.0572999
0.0526359
0.0126956
0.106177
0.0840861
-0.138729
0.0779572
0.0362254
0.0285283
0.058417
0.0411636
0.0360474
0.0576252
0.148592
0.0518623
-0.332754
0.0851092
0.182522
0.0411871
-0.00524085
0.0969511
-0.00144756
0.263607
0.0079865
0.0280174
0.0348345
0.0400061
0.0512149
0.0453697
0.0896058
0.00151108
0.0578153
0.0494258
0.00761786
0.0179889
0.00650727
0.0817215
0.000946088
0.00612965
0.0504611
0.0723964
-0.0497044
0.0886299
0.0512049
0.035696
0.0551971
0.0512054
0.0708276
0.0521157
0.045448
0.246215
0.0932968
-0.0167663
0.0521539
0.0515638
0.0517847
0.0579461
0.0554554
-0.00155957
0.0555847
0.0514438
-0.0166216
0.0225713
0.00849024
0.0705265
0.0505858
0.0432611
0.0920891
0.0352852
0.0521797
-0.0418709
0.0122791
0.112848
0.0518769
-0.235606
0.0990176
0.05154
0.0037568
0.0391632
-0.0213421
0.0369831
0.00148087
0.096231
0.0508416
0.0537254
0.0234439
0.0397322
0.0563929
-0.00674163
0.056826
0.0569707
0.0978985
0.0489046
0.0551826
0.0367197
0.0113269
0.049684
0.0568822
0.0549154
0.0511332
0.0982525
-0.0413771
0.0271478
0.0580328
0.0553214
0.0431117
0.0511187
-0.192589
0.0807447
0.0519295
0.0726164
0.0431877
0.100807
0.153914
0.00174041
0.0568795
0.00589438
-0.00138913
0.0509919
0.0419918
-0.000264592
0.0470627
0.0519748
0.0743208
0.0284454
0.0554844
0.0519988
0.0427172
0.0844975
0.0525296
0.0323273
0.0521361
0.039307
0.0689145
0.133311
0.0516038
-0.201231
0.0817972
0.0160359
-0.119741
0.0942016
0.0330063
-0.0319888
0.0585048
0.142707
0.208828
0.0551157
0.0458182
0.0457753
0.0536611
0.0555667
0.00750867
-0.0770877
-0.140633
0.0095989
0.149636
-0.00620916
0.0110073
-0.0554781
0.0514263
0.0538909
0.0480732
0.0259087
0.0512196
0.00904446
0.0377294
-0.0108662
0.0512864
0.0544311
0.0493225
-0.151684
0.120986
0.0795617
0.0632291
0.123076
0.0460107
0.0524843
-0.0165265
0.0374855
-0.0116629
0.00795432
0.0243843
0.00505646
0.0164462
0.0589957
0.0507855
0.0511721
-0.122108
0.041644
0.0408801
0.0537923
0.0065541
0.0190503
0.0516396
0.0207448
-0.0133976
-5.87764e-05
0.0959554
0.0549032
0.0516284
0.00520434
0.0580887
0.0513825
1.02773e-05
0.0081444
0.0551245
0.139988
0.00127377
0.0517424
0.0516076
0.0510771
0.108721
-0.139685
0.040641
0.0108236
0.0544525
0.0547263
0.0124351
0.0519001
0.181076
0.0164364
-0.0501284
0.155156
0.0314805
0.0507696
0.0512492
0.0339667
0.0582749
0.0507187
-0.17933
0.00587995
0.0450075
0.220971
0.102625
0.0465139
0.0512407
0.0515877
0.053251
-0.0754898
0.16237
0.0343537
0.0787979
0.0686218
0.00650519
-0.0759294
0.0225064
0.0563334
0.0547298
0.0174589
0.0424325
0.0508167
0.0538823
0.00423594
0.0554712
0.0338525
0.0572343
0.0832718
-0.0108283
0.0486874
0.0539859
-0.00311494
0.0037918
0.0607712
0.0537686
0.0780461
-0.000672601
0.0390955
0.0175913
0.0757632
0.0180055
-0.0325604
0.0550321
0.159408
0.0508404
0.106206
0.000553163
0.0518588
0.0513342
0.376318
0.0518481
0.0578768
0.0268016
0.0566895
0.0568193
0.0597249
0.0517672
0.0517737
0.000314224
-0.0252517
0.0496275
0.330299
0.0382799
0.0536885
0.237453
0.0999705
0.0557878
0.0470528
0.053342
0.0899887
-0.267819
0.056518
0.0495737
0.0510027
0.0538138
0.0655707
0.0171513
0.0560801
0.0665113
0.0549023
-0.153135
-0.00609513
0.00947583
0.111918
0.0381393
0.0537794
0.00498377
-0.116639
0.0547723
0.0512101
0.0537155
0.0468231
0.0566461
0.0505026
-0.00317131
0.0466647
0.0458329
0.312523
-0.00102683
-0.00832053
0.00426364
0.0564667
0.00119244
0.0872809
-0.088137
0.0494504
0.0110474
0.051887
0.245049
0.0512811
0.051212
0.030908
0.0510381
0.0266211
0.0611599
0.0567405
0.0492992
-0.0937854
0.087999
0.0119699
0.0539479
0.0365175
-0.0550779
-0.00705555
0.0802562
0.0764957
0.0517685
0.0573175
0.048168
0.0537236
0.0496184
0.0539155
0.0914258
0.0751964
0.00754462
-0.105463
0.0231332
-0.00777644
0.03308
-0.108544
0.0504696
-0.0297772
0.053801
-0.0123375
-0.00570574
0.0259444
0.0514052
0.030152
0.0112568
0.0330421
-0.00983418
0.234047
-0.102597
0.0537502
-0.00203519
0.046006
-0.00477649
0.0899162
0.00402743
0.0469836
0.0596609
0.0111907
0.0545439
0.0373478
0.0516893
0.046035
0.0512742
0.0574117
0.0069615
0.00178769
0.0514147
0.0861723
-0.0837476
0.491104
0.0508343
0.0749725
0.0275528
0.194384
0.0321818
-0.178789
-0.0348952
0.0490805
0.0253836
0.0676615
0.177705
0.048391
0.0692252
0.0784853
0.0493017
-0.0874098
-0.00411898
0.0538032
0.0250684
-0.0339321
0.0777324
-0.0889537
0.0390874
0.0786316
0.0559673
0.0508434
0.0573818
0.0460795
-0.0742158
-0.000493995
-0.0646816
0.0523883
-0.0871799
0.0307243
0.00429095
0.112352
0.0257079
0.0287187
-0.0550609
0.0387994
0.0372294
0.00552731
0.0707639
0.0263998
0.00937421
0.0713707
-0.0897634
0.0865254
0.0351445
0.0881618
0.0524144
0.114392
0.000266701
0.101537
0.0549902
-0.0360085
0.0514768
0.0343109
0.0100156
-0.000957665
0.0590467
0.00671405
0.0455679
0.508738
0.0574429
0.00623483
0.093098
9.89332e-06
0.00762958
0.0514237
0.0321993
0.0512187
0.465743
0.0516985
0.051351
0.0510786
-0.0139089
0.0458618
0.045102
-0.0110086
0.0288794
0.0657982
0.0457043
0.0513413
0.107958
0.0497012
0.105413
0.00816365
0.087663
0.0393126
0.0432777
0.0264968
-0.0135593
0.0097816
0.0446102
0.535541
0.0516795
0.0513946
0.0575286
-0.139509
0.0550159
0.0316539
0.0789901
0.0554677
0.042862
0.00353184
-0.0229299
0.033998
-0.0465976
0.0564073
0.0467132
0.0153759
0.0200622
-0.000657076
0.0537325
0.0266182
0.0734982
0.196036
0.038171
0.051365
0.0459421
0.179256
0.0519954
0.0519991
-0.0364492
0.0327505
-0.0408945
0.0428473
0.0512906
0.191055
-0.013938
0.0465357
0.0567164
0.0495752
-0.112249
0.0520016
0.0345625
-0.027085
0.0520004
0.0513273
0.00975213
0.0508788
0.0520092
0.0142864
0.0513377
0.0512072
0.0220047
0.0509434
-0.012358
0.0512819
0.0578075
0.119878
0.00886237
0.0520122
0.00560631
-0.171665
0.042977
0.0754314
0.0492604
0.0336239
0.0499411
-0.0176045
-0.00541852
0.0471236
0.0513379
0.132682
0.0291509
0.016661
0.0127101
0.130263
0.0508836
0.0063269
0.0513271
-0.0197077
-0.00563794
-0.00438649
0.00849601
0.157523
-0.0895348
0.00562156
0.0117028
0.0480346
0.0538698
0.00137596
0.137592
0.0997924
0.0342229
-0.0730054
0.0509616
-0.063966
0.210343
0.0506598
-0.00750967
-0.0190053
0.0816152
0.00943146
0.00744572
0.0742458
0.0513153
-0.0116852
-0.0658662
0.267985
0.0564976
0.00272994
-0.0308026
0.142759
0.0531636
0.0512926
0.0071734
-0.0535216
0.0400279
0.0692136
0.051579
0.0508595
0.0568672
0.0562503
0.026201
0.0570267
0.0512885
-0.0151716
0.0364651
-0.0261173
0.0166581
0.0515403
0.0513289
0.144366
0.0560125
0.0810353
0.0608339
-0.045977
0.0823105
0.0505383
-0.0233877
0.0604653
0.0512508
0.0287372
0.0386293
0.0426172
0.0953523
0.0263263
-0.148733
0.0409543
0.0510149
-0.0270278
0.0510376
-0.0060182
0.0317259
-0.0261389
-0.0480636
0.0976569
-0.0315358
0.0515751
-0.00862361
0.0552988
0.073435
-0.0232924
0.0207695
-0.0232954
-0.0645777
0.173495
-0.011328
0.0635882
0.0504966
0.0511388
0.0510148
-0.0315415
0.141651
0.0505286
-0.0148653
-0.0192473
0.0156816
0.00267297
0.0285141
0.111104
-0.0289721
0.0558284
0.0128031
0.0258954
0.0518778
0.0518975
0.0531629
0.0563338
0.0127917
0.0514666
0.0536812
0.0576517
0.0755086
0.000559307
0.0509574
-0.0189613
0.0512799
0.00448495
0.0139306
0.0535241
0.0408611
0.00188725
-0.0199406
0.0375593
0.0779727
0.0561444
0.0274371
0.0330408
0.0513453
0.0553661
0.0554893
0.0535844
0.0514026
0.0709038
0.0513896
0.127374
0.0135553
-0.0917815
0.0514027
0.0609724
0.0514973
0.051337
0.122941
0.0600422
0.0506842
0.321296
0.134758
0.0384158
0.0661772
0.038835
0.12158
0.0214711
0.0093029
0.0558888
0.0575435
0.0513383
0.0518665
-0.0115274
0.0508991
0.0532259
0.123644
0.0535423
0.055233
0.0289572
0.0512679
-0.0352994
0.0514285
0.053172
0.00843495
0.00987518
-0.0718692
0.110019
0.0718618
0.0534055
0.00769851
0.0533506
0.0260658
0.0070304
0.0574173
-0.0276583
0.052066
0.026401
0.0715002
0.052726
0.102619
0.0514269
0.057386
0.0513483
0.0298576
0.0508148
0.0538342
0.0251673
0.0470182
0.0720407
0.0279908
0.0513712
0.0274691
0.0128119
0.0572556
0.00892374
-0.0131997
0.0513268
0.0317029
0.110101
0.00305173
0.0578182
0.0449199
0.0449096
0.0260942
0.0584783
0.151968
0.0559108
0.0514485
0.0514788
-0.0207698
-0.00856006
-0.0218429
0.285364
0.101913
0.0511137
0.0269476
0.0113721
0.0517995
-0.0588162
0.0555926
0.104615
-0.000230998
0.0532196
0.146087
-0.007989
-0.0163871
0.0238023
0.0297877
0.0517276
0.051003
0.0610295
0.0513613
0.0512942
0.137279
0.053645
0.065389
0.0505583
0.0395125
0.0448517
0.374049
0.0426827
0.0456467
-0.00889158
0.105146
0.0946671
0.0345706
0.110494
0.0512568
0.0471356
0.00504865
0.0729959
0.125685
0.0528895
-0.000588416
0.0409136
0.0508528
0.0536134
0.0513027
0.0650149
0.0426308
0.051813
0.0305497
0.260655
0.0519
0.0122945
0.0327312
0.0508685
0.0646063
0.0538853
0.0278199
0.0513251
0.0512448
0.0159133
0.0298875
0.0928733
0.143657
-0.227487
0.0572578
0.0657834
-0.0382529
0.0337453
0.0538267
0.0411691
-0.000803756
0.0513807
0.0549011
0.0513263
0.0306625
0.0650153
0.0193655
0.0513992
0.0626422
0.0352924
0.0557977
0.118868
0.047118
0.0511631
0.0513933
0.0300117
0.0235904
0.310713
0.0620349
0.0838352
0.00604845
0.00513023
0.0511038
0.101755
0.0513755
0.0513353
0.0518853
-0.00182494
0.0564781
0.0351758
0.0072168
0.0206101
0.00656477
0.0306748
0.0643104
0.114963
0.0486159
0.012217
0.0933231
0.0335665
0.12944
0.0552305
-0.158988
0.143148
0.135095
0.0508188
-0.112913
0.00601776
0.00807062
0.13887
-0.000320282
0.0600349
0.0578721
0.0396741
0.0360655
0.0331067
0.212782
0.0747519
0.0556722
0.0149978
0.0557223
0.0368758
0.0249001
0.0950104
0.0368896
0.0696138
0.0847666
0.00624257
0.0979264
0.0325999
0.0521519
0.0617701
0.0506797
0.0446742
0.0499124
0.05607
0.0199128
-0.0479404
0.0509659
0.166357
0.0503691
0.0424268
0.0107538
0.030786
0.0341675
0.0496624
0.00757827
0.0127209
0.253245
0.0513616
0.00934938
0.0373298
0.0135968
0.0518927
0.0515919
0.153049
0.0246433
0.0336119
-0.12372
0.026963
0.0399862
0.139627
0.0157563
0.120746
0.0572202
0.0192917
0.0383121
0.0470672
-0.0272046
0.00727378
0.0202844
0.0339436
0.0507233
0.00656232
0.00613987
-0.000919002
0.0408134
0.0377975
0.418227
-0.0394903
0.0503512
-0.0130429
0.0213834
-0.107197
0.0513001
0.0322671
0.0333244
0.0513084
0.00412228
0.0290109
0.0546091
3.79083e-05
-0.02239
-0.00135969
0.0573238
0.0241375
0.0519184
0.0463418
-0.0253069
0.083477
0.0292325
0.00727903
0.147708
0.0251395
0.02077
0.0221408
0.00773663
-0.0273314
0.0496981
0.0225675
0.0171291
0.0931608
0.281437
0.0137882
0.0358079
0.0209562
0.0513016
0.0941376
0.0320495
0.00954804
0.0510237
0.0366826
0.00678368
0.0145291
0.150825
0.0110172
0.0308514
0.0302204
0.0562444
0.00358772
0.0276761
0.0748177
0.0607364
0.0573768
0.0107361
0.0372924
0.0431823
0.0396411
0.0513607
0.00660769
0.0639268
0.030461
-0.00368741
-0.0451259
0.0456311
0.0297871
0.0175357
0.0249409
0.0514182
0.100718
0.100576
0.0735423
0.0518654
0.230881
0.00725234
0.0531328
0.091054
0.050886
0.0593272
0.0338097
0.0270431
0.0535874
-0.104306
0.0525782
0.0609602
0.0441494
-0.0116216
-0.0300436
-0.000455776
0.0639273
0.00988108
0.0518957
0.0302699
0.0764926
0.0525952
0.150143
0.0181325
0.0286429
0.008677
0.0684789
0.0228575
0.0386788
0.0510563
0.051242
0.0478215
0.064858
0.123285
0.0168137
0.147268
0.0833288
0.0914846
0.0532329
0.0711749
0.00759509
0.0512432
-0.0236537
-0.0184087
0.0542495
0.0513437
0.0416499
0.0494334
0.0512158
0.0664602
0.0355102
0.133805
0.0174401
0.0361765
0.0906616
-0.0103661
0.00604795
0.0879777
0.014249
0.0251235
0.0715847
0.0509511
0.0644082
0.0292058
0.123449
0.132419
0.219451
0.0512506
0.128176
0.0337614
0.0329582
0.105833
0.108778
0.101687
-0.0238266
0.0218721
0.067565
0.0222971
0.040975
0.0470163
0.0925738
0.0506399
0.017844
-0.0289052
0.0611762
-0.0252514
0.0502494
0.0851027
0.0565928
0.0318502
0.10346
0.164255
0.0218013
0.0446156
0.0182937
0.0347702
0.0718395
-0.000120619
0.0836311
-0.00205564
0.0512599
0.0223648
-0.144388
0.0993613
0.0370821
-0.0410794
0.010865
0.0431829
0.0502895
0.104177
0.0945125
0.035041
0.0581159
0.0529272
0.00624604
0.0453471
0.00468721
0.0822069
0.0365247
0.143629
0.0512701
0.0473581
0.00693653
0.0387788
0.0394601
0.0677478
0.058135
0.0308511
0.169422
0.10841
0.0510945
0.00606179
0.0459904
0.0509881
0.134845
0.0506242
0.0231978
0.0259953
0.0506248
0.0507407
0.0540149
0.00796841
0.0629017
0.0992167
0.029222
0.131516
0.0330104
0.0346385
0.038196
0.0794626
0.0514577
0.0406171
0.0385183
0.0279966
-0.0206462
0.0102774
0.0683557
0.0459878
0.0569521
0.0326118
0.0441161
0.0627079
0.0239695
0.108093
0.0330918
0.0510189
0.00897868
0.0886131
0.00783491
0.0511459
0.136654
-0.0230429
0.0475474
0.0996593
0.00635163
0.0552948
0.0970368
0.00378249
0.0907146
0.115913
0.00460415
0.0490082
0.0804509
0.0774622
0.0145913
0.0481822
0.0324949
0.0512324
0.0504357
0.0509115
0.0144959
0.0184618
0.0213464
0.0840483
-0.0617103
0.170884
-0.0592715
0.0287297
0.0419984
-0.0395558
0.0502214
-0.099638
0.0344345
0.0241198
0.0196545
0.0299107
0.0661194
0.0430212
0.0338056
0.0560092
0.0511258
0.0793238
-0.0362758
0.0150485
0.00695672
0.01869
0.0540719
0.0288598
0.0175084
0.0567526
0.025323
0.0398613
0.119855
0.0873207
0.0825662
0.0951275
-0.00165515
4.20852e-06
0.00645875
0.0242299
-0.00538245
0.0161631
0.0598248
0.0437572
0.132519
0.0757556
0.00753284
0.0513887
0.0972355
0.128257
0.0753785
0.0810641
0.0585899
0.0181667
0.115389
0.0300568
0.0248178
0.0351719
0.0344367
0.0502235
0.0296797
0.0307206
0.0555285
0.0214765
0.0312518
0.0461464
0.105728
0.0453004
0.0404843
0.0772172
0.0571593
0.0505582
0.0529443
0.00274666
0.0172283
0.0520285
0.0733201
-0.0502134
0.00718353
0.0576468
0.0207904
-0.0184626
-0.0394026
-0.00580417
0.0343402
0.0354807
0.0571804
0.0347808
0.0266012
-0.000290407
-0.00116186
0.00341439
0.00108474
0.0360093
0.0501647
0.0498868
0.130358
0.0640683
0.0352897
0.039715
-0.000315427
0.046346
0.0284226
0.150017
0.0886905
0.0121056
0.0562446
0.0177367
0.0508512
0.00906917
0.000812884
0.0290727
0.0509013
0.0607945
0.168155
0.0436898
0.0905018
-0.0162196
0.051282
0.0361202
0.0958879
0.102812
0.0716048
0.0518101
0.047374
0.0484468
0.0518208
0.0509205
0.0425353
0.0078549
0.050918
0.0582496
0.0558468
-0.344084
0.119895
0.0484535
0.0512479
0.0114979
0.0180794
0.0242955
0.0784244
0.0190173
0.0504103
0.0440984
0.00550693
0.0517524
0.015705
0.0941964
0.0729381
0.0495325
0.0136593
0.0515228
0.0406641
0.0388503
0.0435315
-0.00267036
0.0610761
0.0363751
0.0347982
0.112428
0.0828859
0.0508546
0.0513573
0.0374799
0.0328229
0.0151898
0.0228829
0.0414737
0.00832498
0.0819672
0.0518428
0.0389611
0.0068448
0.0408328
0.0863632
0.0654983
0.0536454
0.151242
0.0233543
0.126731
0.141591
0.0288291
-0.00249028
0.000223174
0.125871
0.0413907
0.00684765
0.0760734
0.037677
0.0236331
0.0911823
0.0736753
0.0528104
0.00320484
0.032632
0.0294507
0.0420589
0.00718947
0.0528349
0.0819144
0.052655
0.0587543
0.0871645
0.0569623
0.0448234
0.107596
0.0082468
0.0931182
0.0299243
0.073751
0.00942472
0.0631617
0.0128385
0.0523963
0.0316831
0.0103625
0.06904
0.0280006
0.0523544
0.043634
0.016211
0.0469081
0.0363668
0.0580019
0.0379871
0.0238158
-0.000852154
0.0973204
0.105283
0.102179
0.0427085
0.0427725
0.0363168
0.020321
0.0301735
0.0516034
0.0563428
0.0715453
0.0257846
0.0600205
0.0053778
0.0323631
0.0587736
0.0344616
0.0335974
0.0451603
0.0312166
0.0390446
0.135819
0.260959
0.0238498
0.0277701
0.0300503
0.0323479
0.0386668
0.0363621
0.0352925
0.024082
0.0144235
0.0499275
0.0512342
0.0501621
0.00710334
0.0511077
0.030925
0.044488
0.0321641
0.0613844
0.0352067
0.124501
-0.00683161
0.0507888
0.0360116
0.0923761
0.043185
0.0623972
0.0898029
0.0556823
0.0509946
0.0307179
0.00679176
0.0877791
0.00427253
0.116268
0.0847521
0.00437377
0.0651308
0.0700125
0.0123437
0.0445665
0.0503077
0.0524283
0.0378709
0.0507518
0.0337076
-0.0356932
0.0498808
0.0818201
0.0449103
0.0642835
0.0649721
0.160911
0.0569485
0.0436145
0.00609732
0.0148347
0.0881124
0.0322054
0.0847012
0.052279
0.0393152
0.0667762
0.0473431
0.0341338
0.051859
0.0523116
0.0327152
0.0506921
0.0360818
0.0629465
0.0819279
0.0162379
0.0504516
0.00777799
0.00204545
0.0694526
0.0606075
0.0529065
0.0698143
0.13339
0.0512179
0.0419805
0.0485917
0.0622445
0.040289
0.0368188
0.0407873
0.0754949
0.0847768
0.0337426
0.0809679
0.0917894
0.0618337
0.109818
0.0594887
0.0794776
0.0287429
0.0441574
0.0234373
0.051932
0.0661154
0.0526205
0.0850325
0.0024524
0.0565255
-0.0119981
0.0463944
0.0280005
0.11857
0.00851304
0.0487122
0.0508955
0.0056031
0.108713
0.0281726
0.0306721
0.0175163
0.0461512
0.0816073
0.0391681
0.0495164
0.0375384
0.00943887
0.0446475
0.0418658
0.396468
0.0407024
0.0526551
0.0607213
0.0663635
0.0445679
0.0329822
0.051241
0.103814
0.0434978
0.0512267
0.0147032
0.0382299
0.0302734
0.0426195
0.0650416
0.0441741
0.0463273
0.0456342
0.0352276
0.0817842
0.0512639
0.0405189
0.0592311
0.0468328
0.0412796
0.056982
0.0568765
0.0612587
0.0616621
0.0513149
0.0449109
0.0527349
0.0303131
-0.00151908
-0.000700035
0.147041
0.0762358
-0.00939225
0.032033
0.0506085
0.0537428
0.0600646
0.0756963
0.0515646
0.0290624
0.0773195
0.0583531
0.0273482
-0.00947588
0.0226847
0.0505373
0.0389414
0.0511375
0.0957765
0.234084
0.0409111
0.0588407
0.0437504
0.00740387
0.0508877
0.0741421
0.0287727
0.0472395
0.0517186
0.0346693
0.0983282
0.0401179
0.0580534
0.0270533
0.043654
0.0452966
0.0889526
0.0619959
0.04196
0.0531691
0.040384
0.0566063
0.0396006
0.0515179
0.0408257
0.0510158
0.0564835
0.01208
0.0700242
0.0181838
0.0752356
0.0752489
0.054962
0.0401343
0.0366996
0.0789689
0.0933123
0.011468
0.0436074
0.0569516
0.0599089
0.0415126
0.0496545
0.0457048
0.038123
0.0293036
0.0293859
0.0464174
0.0158266
0.0409563
0.0810202
0.042127
0.0445305
0.0402366
0.0250756
0.0852203
0.0554391
-0.000662663
0.0407409
0.0431713
0.0116943
0.0539213
0.00100808
0.0533577
0.0435551
0.0483211
0.0488834
0.0520853
0.0442796
0.00547317
0.0512416
0.0221021
0.0731537
0.0534975
0.0594511
0.0344037
0.0977008
0.0622585
0.0515997
0.0362151
-0.0654606
0.0513394
0.0065778
-0.0811174
0.0672819
0.0869543
0.0547709
0.04272
0.030733
0.0729759
0.0603347
0.0511092
0.0933479
0.0120379
0.0832883
0.0512654
0.0507354
0.0449294
0.0460612
0.0467113
0.067496
0.0764805
0.0475869
-0.00140974
0.0482923
0.0550532
0.0431772
0.0335091
0.000372747
0.0507154
0.0440186
0.0251005
0.0453335
0.0479555
0.053489
0.129254
0.0740913
0.0516685
0.0641596
0.0548801
0.043783
0.0759529
0.0612455
0.0456595
0.0645507
0.0381297
0.064256
0.0863067
0.00243165
0.0248431
0.0517567
0.0713501
0.0491312
0.0535639
0.0525166
0.0436714
0.00198387
0.000455853
0.0603798
0.0334779
0.0357222
0.0290067
0.0502837
0.0499098
0.051666
0.0722215
0.0359231
0.0513041
0.043724
0.0559765
0.024478
0.0101162
0.0512988
0.0508223
0.0377208
0.0499208
0.0496583
0.0441653
0.0469494
0.0413155
0.0677621
0.063385
0.0355729
0.0490429
0.0544072
0.0589576
0.0441021
0.0512532
0.0445472
0.0322347
0.00157745
0.00622701
0.0365319
0.124421
0.0444362
-0.0593059
0.0900157
0.0439309
0.0425247
0.0551027
0.0503073
0.0512957
0.0539016
0.0581775
0.0435348
0.0527572
0.0504964
0.0978133
0.00619289
0.0348843
0.0514462
0.0563966
0.0645401
0.0717986
0.0340062
0.0534058
0.0512001
0.0496272
0.0449502
0.0297973
0.0277772
0.00625322
0.0630538
0.0494906
0.0406266
0.0575436
0.0551586
0.0548114
0.0485726
0.0595592
0.0513216
0.0163859
-0.00229662
0.0505559
0.0675112
0.0435231
0.0464125
0.0482652
0.0524633
-0.0449177
0.0648458
0.000149363
0.0449243
0.0100309
0.0537615
0.0696923
0.129141
0.056758
0.0514812
0.0320959
0.0234925
0.11226
0.0444339
0.068199
0.0467172
0.0508537
0.0662103
0.0488018
0.121584
0.000246621
0.0802684
0.0543446
0.0496913
0.0513
0.0493522
-0.0265667
0.0400549
0.0507742
0.0578796
0.0494946
0.0507771
0.0507315
0.0117724
0.00401136
0.0560538
0.0500206
0.0835396
0.0569219
0.102722
0.384995
0.0232253
0.0452982
0.0757808