/*--------------------------------*- C++ -*----------------------------------*\
  =========                 |
  \\      /  F ield         | OpenFOAM: The Open Source CFD Toolbox
   \\    /   O peration     | Website:  https://openfoam.org
    \\  /    A nd           | Version:  7
     \\/     M anipulation  |
\*---------------------------------------------------------------------------*/
FoamFile
{
    version     2.0;
    format      ascii;
    class       surfaceScalarField;
    location    "0.933";
    object      phi;
}
// * * * * * * * * * * * * * * * * * * * * * * * * * * * * * * * * * * * * * //

dimensions      [0 3 -1 0 0 0 0];

internalField   nonuniform List<scalar> 
18389
(
-7.97539e-05
7.97539e-05
4.34283e-05
-4.34283e-05
-5.2044e-05
5.2044e-05
4.01052e-05
-4.01052e-05
-5.17848e-05
5.17848e-05
-3.99051e-05
3.99051e-05
-3.47937e-05
3.47937e-05
3.90518e-05
-3.90518e-05
-3.55917e-05
3.55917e-05
4.14093e-05
-4.14093e-05
4.47925e-05
-4.47925e-05
-3.46131e-05
3.46131e-05
-1.38766e-05
1.38766e-05
-4.27628e-05
4.27628e-05
4.34519e-05
-4.34519e-05
2.42386e-05
-2.42386e-05
1.86178e-05
-1.86178e-05
4.58915e-05
-4.58915e-05
4.59239e-05
-4.59239e-05
4.33478e-05
-4.33478e-05
-4.25086e-05
4.25086e-05
3.56536e-05
-3.56536e-05
4.29933e-05
-4.29933e-05
-5.85558e-05
5.85558e-05
-4.97069e-05
4.97069e-05
-4.1802e-05
4.1802e-05
-4.45415e-05
4.45415e-05
4.56247e-05
-4.56247e-05
4.58498e-05
-4.58498e-05
4.41369e-05
-4.41369e-05
-4.13352e-05
4.13352e-05
-6.30742e-05
6.30742e-05
4.31163e-05
-4.31163e-05
-4.47439e-05
4.47439e-05
4.08599e-05
-4.08599e-05
4.66911e-05
-4.66911e-05
-4.55439e-05
4.55439e-05
5.35783e-05
-5.35783e-05
-5.88658e-05
5.88658e-05
3.78663e-05
-3.78663e-05
4.48372e-05
-4.48372e-05
4.53702e-05
-4.53702e-05
-4.10068e-05
4.10068e-05
4.49019e-05
-4.49019e-05
4.5866e-05
-4.5866e-05
-4.58479e-05
4.58479e-05
-4.58497e-05
4.58497e-05
-4.06604e-05
4.06604e-05
-4.588e-05
4.588e-05
4.59392e-05
-4.59391e-05
4.59576e-05
-4.59576e-05
4.46236e-05
-4.46236e-05
3.77317e-05
-3.77317e-05
-4.57631e-05
4.57631e-05
-5.55444e-05
5.55444e-05
-4.38139e-05
4.38139e-05
4.57497e-05
-4.57497e-05
-4.59937e-05
4.59937e-05
4.32276e-05
-4.32276e-05
-5.93193e-05
5.93193e-05
-4.7147e-05
4.7147e-05
4.96053e-05
-4.96053e-05
4.57378e-05
-4.57378e-05
-9.33088e-06
9.33089e-06
4.57748e-05
-4.57748e-05
4.15289e-05
-4.15289e-05
5.12013e-05
-5.12013e-05
-4.58726e-05
4.58726e-05
4.23261e-05
-4.23261e-05
3.14007e-05
-3.14007e-05
1.24515e-06
-1.24515e-06
-4.40819e-05
4.40819e-05
3.28685e-05
-3.28684e-05
-3.65739e-05
3.65739e-05
3.97959e-05
-3.97959e-05
2.66255e-05
-2.66255e-05
2.61986e-05
-2.61986e-05
2.7049e-05
-2.7049e-05
2.43988e-05
-2.43988e-05
1.32658e-05
-1.32658e-05
0.0010763
-0.000881173
-0.000195125
0.00546667
-0.00207533
-0.00339134
-0.00594645
0.0059464
5.06299e-08
0.00335451
-0.00259976
-0.000754754
-0.0015474
0.00176494
-0.000217532
-0.00675975
0.00283697
0.00392278
0.00121447
0.00425221
0.00725618
-0.00587616
-0.00138002
0.0011832
-0.00192123
0.000738034
-0.000867477
-0.00067993
-0.0014422
-0.000314617
0.00175682
0.000148132
8.36889e-06
-0.000156501
0.000778519
-0.00222072
-0.00360311
0.000122864
0.00348024
-0.00320303
0.00289291
0.000310125
-0.00571256
0.00725756
-0.001545
-0.00370909
0.00289697
0.000812115
-0.000563604
-0.00303951
-0.00174826
0.0023891
-0.000640839
-0.000464148
0.00255825
-0.0020941
-0.00160897
0.00110978
0.000499182
0.000583528
0.000581831
-0.0016
-0.00515975
0.00126288
-0.00179846
0.000535576
0.00578116
-0.0038622
-0.00191896
-0.000662111
0.00331067
-0.00264856
-0.00583451
0.005835
0.000478634
0.00128631
-0.0063332
0.000973237
0.00535997
0.00232437
-0.00298648
-0.00378979
0.00311384
0.000675943
0.00214834
-0.00422367
0.00108697
-0.000202904
-0.000884065
0.00150519
-0.00128983
-0.000215358
-0.00280228
-0.000400743
0.00535043
-0.00535376
0.00037106
0.00113413
0.00522858
-0.00133715
-0.00389143
0.00199872
-0.000815516
0.00308568
0.00190869
-0.00499437
-0.000721719
-0.00306807
-8.90942e-05
-0.000154481
0.000243576
0.00393584
0.00332033
0.00116526
-0.00488952
0.00372425
0.00162699
0.00360159
-0.00498172
0.00632107
-0.00133935
-0.00113672
-0.000591023
0.00172774
0.00133876
0.00201575
0.000135292
0.000103627
-0.000238918
0.00502222
-0.00339523
0.00645983
-0.000841604
-0.00561823
0.00321579
-0.00265725
-0.000558533
0.00221912
0.00045066
-0.00266979
0.00295038
-0.000731258
0.00650332
-0.00539836
-0.00110496
0.000506097
-0.00386888
0.00336278
7.10058e-05
0.00638883
0.00480645
-0.00430036
-0.000535782
0.00105938
-0.000523594
-0.0017605
0.000623779
0.00191708
0.00224908
-0.00416615
0.000253396
-0.000333584
8.01875e-05
-0.00126721
-0.00284579
0.00411301
-2.6487e-05
0.00652982
-0.00281655
0.00229521
0.000521337
0.000389707
-1.26482e-05
-0.000377059
-0.00569233
-0.000254123
0.00187656
-0.00139793
0.000828487
0.00495268
0.000892206
0.000184096
0.00264637
-0.00645937
0.00381301
-0.0011202
0.000584422
0.00263869
-0.0039059
0.00619644
-0.00226059
0.0010921
0.00117728
-0.000782601
0.00103778
-0.00025518
-0.00111271
-0.00049626
0.00188967
0.00132611
-0.000595243
0.00142988
-0.00123764
-0.000192238
-0.00265456
0.00198771
0.000666856
0.00116694
0.000262939
0.00113921
-0.00497654
0.00383732
-0.00475759
0.00141875
0.00333883
-0.00455434
0.00611806
-0.00156373
-0.00506268
8.09586e-05
-0.00201911
-0.000635451
-0.000215264
0.00012617
-0.00122743
0.00465102
-0.00342359
-0.0012207
-0.000700537
0.00010331
-0.000192024
8.87144e-05
0.000126289
-2.29798e-05
-0.00126032
0.00463971
-0.00337938
-0.0001561
2.43389e-05
0.000131761
-0.00556829
0.0017061
-0.00119221
-0.000568284
-0.000449442
-1.89095e-05
0.000468351
-0.000543274
9.38312e-05
0.00101143
7.55343e-05
-0.00180896
0.000616751
-0.000150338
1.72362e-05
0.000133102
0.00136801
-0.00234447
0.000976458
0.000271105
-0.000135812
-0.00392584
0.00514032
-0.00245721
0.000708961
-9.27988e-05
-0.000426263
0.000519062
0.00568641
-0.00216984
-0.00351657
7.7389e-05
0.00250714
-0.00258452
0.00446445
-0.00561488
0.00115044
0.00263523
0.00305118
0.00291369
-0.00283631
-0.00614435
0.000431798
-0.00646173
0.00362028
0.00284145
0.00229346
0.00390299
-0.00438998
0.00137928
0.00301069
0.00149147
-0.000228592
-0.00102618
0.00402096
-0.00299479
0.00463971
-0.00162648
-0.00301323
-0.00460666
0.00374854
0.000858125
0.00369372
-0.00503087
5.90572e-05
0.00033065
-0.00137943
0.00584388
-9.25283e-05
0.00214929
-0.00205676
-0.00206561
0.0026089
0.000172501
-0.0027814
-0.00127742
0.00264543
-0.000648338
0.00325723
0.00164083
-0.00173335
0.000905807
0.00397246
-0.00487827
-0.00504202
0.00384327
0.00119876
0.00255189
-0.0035941
0.00104221
-0.00333022
0.00411675
-0.000786532
0.000340877
-0.00367109
-0.000886674
0.000886674
-0.000448246
0.000355447
-0.00012697
-0.000973466
0.00110044
0.00507022
-0.00184325
-0.00322696
-0.00243315
-0.000369136
0.00290037
0.000157861
1.6572e-05
-0.000174433
-0.00146956
0.00112424
0.000345316
-0.000141488
-0.00490054
0.0050556
-0.00389035
0.000236299
-8.81667e-05
0.00444489
0.000577332
0.00406759
-0.00151569
0.000164942
-7.08105e-06
-0.00633777
-0.000985162
-0.000823802
0.00430039
-0.00190424
-0.00239615
0.00275626
0.00154414
0.00107771
-0.00563204
-0.00226024
-0.000556307
-0.00112018
-0.000958305
0.00207848
4.0247e-05
-0.00272297
0.00268272
-0.00235835
0.00123818
-0.00221811
0.00530379
-0.00462076
0.00160305
0.00301771
0.00254738
0.000665896
-0.000333473
-0.000332423
-0.00601502
0.000582868
0.00543215
-0.0041845
0.00583048
-0.00164599
0.00182566
0.00162942
-0.00345508
-0.0016741
0.00089811
0.00077599
-0.00271578
0.0020804
0.000635383
0.00110513
0.000771431
0.000247199
-0.000328938
8.17397e-05
0.00490139
-0.00399559
-0.00638738
0.00557588
0.000811503
-0.00478391
-0.00167782
0.00334189
0.00064263
-0.00398452
0.000153962
-0.00016217
8.20825e-06
0.00059043
-0.000125281
-0.000465149
-0.00451858
0.00261435
0.00037994
-0.000569776
0.000189836
5.56924e-05
-0.000942368
-0.00257573
0.00448443
-0.00530533
-0.00032256
0.00562789
0.000217189
0.000174373
-0.000391561
0.00076939
-0.00076939
0.00168514
-0.000728077
-0.00211091
0.00181163
0.000299276
0.00440128
-0.003022
-0.000162378
6.27836e-06
-0.00121339
0.00126908
0.000699205
0.00129952
0.00234949
-0.000269086
-0.00402027
-0.00128505
0.00111563
-0.00498452
0.00321309
-0.00447341
0.000835705
-0.00213549
0.00129979
0.00335901
-0.00458645
-0.00271166
-0.00180692
-0.00483728
0.00469579
-0.000676325
-0.00533869
-0.00515984
0.00150276
-0.00146788
-3.48828e-05
0.00223209
0.0001174
-0.00601387
0.00204835
0.00396552
-0.00121933
0.000526006
0.000693326
0.00145336
0.00294793
-0.00462449
-0.00101631
0.00564081
-0.000212815
0.000138522
7.4293e-05
-0.00550974
0.00132524
0.00375309
-0.0049369
0.00118381
-0.00149424
-0.00061667
-0.000536677
-0.000637502
0.000138369
-0.000203836
6.54664e-05
0.00499733
-0.00385812
-0.00130087
0.00512589
-0.00382502
-0.000405565
-0.000807825
-0.005861
0.000439764
0.00539523
-0.00616575
0.00456574
-0.000922737
-0.00546465
-0.00109411
-0.000375449
-0.00181701
0.00285691
-0.0010399
-0.000419192
0.000322063
9.71298e-05
-0.00173204
0.00141742
0.00161443
-0.000111669
0.000826472
-3.67414e-05
-0.0016953
0.00279646
0.00121766
-0.00303466
0.00604966
-0.000473782
0.00527958
7.08506e-05
-0.00528275
0.00439196
0.00114352
-0.00553549
0.000556464
-0.000768814
0.00021235
-4.06144e-05
-0.000407631
-1.6897e-05
0.00606655
-0.000162192
0.000156836
5.35568e-06
0.000133354
2.06074e-05
0.00253802
-0.00335832
0.000820308
-0.00191528
0.000719028
0.00119625
0.00792434
-0.00345509
-0.00446925
0.00117114
0.00126362
-0.00243477
0.000105576
-0.000172659
6.70835e-05
-0.00080587
0.00133187
0.00116318
0.0031815
-0.00434468
-0.00561442
0.000166123
0.00544829
-0.00401949
0.00299332
0.00173487
0.00479495
0.00458506
0.00333927
-2.19495e-05
0.000190347
-0.000168398
-0.00130794
0.00439656
-0.00308862
0.000300433
-0.000341048
-0.000131327
-8.14876e-05
0.00410116
-0.00227551
0.00477664
-0.0050212
0.000244564
-0.00324608
0.00608036
-0.00283428
0.00252733
0.00157383
0.00576185
-0.000985213
-0.00140091
-0.00562107
0.00137244
0.00424863
0.000654578
0.000520738
-0.00117531
0.00126957
-0.000614994
0.000585335
-0.00111024
0.00052491
0.00110607
0.000272727
0.000393169
-0.00067826
0.00443135
0.00151988
-0.00039564
0.00353848
-0.00612962
0.00259115
0.00153407
-0.00258521
0.00105115
-0.00432136
0.00116525
0.00315611
0.00291443
-0.00422237
-0.00490883
-0.00125692
-0.00409985
0.00126832
0.00283153
0.00124984
0.00314672
-0.00326519
-0.000834671
0.00222675
-0.00105562
-0.000681562
-0.00253048
0.00321203
0.00240705
0.000618975
-0.00302602
-0.00159005
0.00120176
0.000388283
0.000269968
0.00148908
-0.0019666
0.000477525
-0.000110857
-0.000222728
-0.000264402
0.000153545
-0.00435426
-0.000252404
-0.000292166
0.00117374
-0.000881575
0.00435157
-0.00464539
0.000293826
-8.84233e-05
0.000117769
-2.93459e-05
0.000974447
0.00338164
-0.00435609
-0.000157004
6.85807e-05
-0.00475242
0.000710908
0.00404152
-0.000720916
0.00011357
0.000607344
8.46796e-05
-7.63107e-05
-0.00040084
0.000864674
-0.000347472
-0.000517202
-0.00603575
0.000637392
-0.00254967
-0.000128184
0.00267785
-0.00316887
0.0044187
0.00218083
-0.00108873
-0.00116719
-0.00117872
-4.19802e-05
-0.00351944
-0.00123815
0.00150871
-0.000408265
-0.00110044
0.001919
0.00183878
-0.00375778
0.00504705
-0.00161562
-0.00343143
0.000793754
-0.00541824
-0.00137417
0.00300358
0.0019605
0.000781535
-0.00274203
-0.00349745
0.00447191
-0.000152995
2.65752e-06
0.000937552
-0.004435
-0.00449744
-0.000147966
-0.000998249
-0.00461617
0.00463184
0.00149109
0.00355595
0.00416081
0.00114239
-0.0053032
3.66525e-05
5.87909e-05
-9.54434e-05
-0.00140645
0.00336696
0.00371375
0.00354381
-0.00139952
0.00236983
-0.000970301
-0.00248096
0.000461856
-0.000878408
0.000751436
-0.000194521
0.000411711
-0.000211642
0.00170072
0.00376346
-0.00184445
-0.0010687
-0.000605403
-0.000107179
-0.000157223
0.00355044
-0.00163336
-0.00240372
0.0046528
0.000674513
-0.00309589
0.00242138
0.000641233
0.000764118
-0.00105628
0.00209933
-0.0013142
-0.00327472
0.00458891
-0.00215515
0.00480153
-0.000552204
0.00344511
0.000239011
-0.000221775
-0.00236354
0.00096403
0.00232282
-0.00386788
0.00154507
-0.00121607
5.79997e-05
-2.13473e-05
0.00214753
-0.002797
0.000649469
-0.00116858
-0.000421462
-0.00352905
0.00450229
0.00119481
0.0016741
-0.00286891
-0.00168955
0.00366477
-0.00197522
0.00424088
-0.000859244
0.00023437
1.41068e-05
-0.000248477
-0.00372228
0.00203273
-0.00143018
0.00472034
-0.00329016
0.000878002
0.00130283
0.00016352
0.000605869
0.00025304
-0.000300715
4.76746e-05
0.0016999
0.000206511
-0.00190641
0.00301901
-0.00459132
0.00157232
-5.28332e-05
0.00037426
-0.000321426
0.00156316
-0.000361398
0.00140364
-0.000607639
-0.000796001
0.00282248
-0.00392635
0.00110387
0.00267959
-0.00374297
0.00106338
-0.00515578
0.00190969
0.00390435
-0.000885335
-0.000635707
-0.00237527
0.00301098
0.00140729
-0.00511815
0.00371086
0.00336053
-0.00145892
-0.00190161
-0.000681722
0.00172483
-0.00104311
0.00477121
-0.00303635
-0.000696089
-0.00196116
-0.00598277
0.00514116
3.89618e-06
0.000121697
-0.000125593
-0.00157878
0.00119975
0.000379032
-0.00491118
0.00630922
-0.00139805
-0.00188355
0.000723065
0.00116049
0.000407175
0.0026867
-0.00208759
-0.000599108
0.00343537
0.00048926
-0.00392463
0.000127237
-2.16603e-05
0.00517235
0.000336532
-0.00550887
-0.00194093
0.0037977
-0.00185677
0.00277
-0.000641145
-0.00212886
0.000462547
0.000402127
-0.000437334
0.0038727
0.00202593
-0.00396686
0.000706556
-0.000265296
-0.000441259
-0.000639933
1.11654e-05
0.00062877
-0.00315197
-0.00576611
0.00576482
-0.000274564
0.00095095
-0.000676387
-0.00228752
-0.000193444
-0.00455469
0.00324048
-0.000872225
0.00113158
0.00360775
-0.00501946
0.00141171
0.000410674
-0.00296034
0.00233052
-0.00244076
0.000110238
-0.00157143
0.00148228
8.91456e-05
-0.00120984
-0.000368942
-0.00339151
0.00342837
-0.00223356
0.000457234
0.000133195
-0.00173432
0.0010526
-0.00279479
0.000745956
0.00204884
0.00024237
-7.9995e-06
-0.00347669
0.0010225
0.00245419
-0.00144425
0.00560506
0.000339792
-0.000954043
0.000614252
0.00211961
0.000650388
-0.00127775
0.000304284
0.00111277
0.00121775
-0.00142903
0.00495771
-0.00352867
-0.00484982
0.00577271
-0.000922895
-0.00117475
0.00228595
0.00410288
0.00107325
3.65321e-05
0.00586536
-0.00552333
-0.000342037
0.00355694
-0.00466052
0.00110358
0.00309229
-0.000685252
0.00542626
-0.00181851
-0.00250373
-0.000972962
-0.00217449
-0.00031901
0.00249351
0.00241257
-0.00196192
-0.00160817
-0.00424197
0.00274714
0.00149483
-0.000328192
0.0012263
0.00121205
0.00365983
-0.00487188
-0.000289072
0.000669012
0.00305957
-0.00238505
-0.0047245
-0.00125827
0.00647068
-0.00129834
0.00424174
0.00206123
0.00049702
0.00285514
-0.00212578
-0.000729359
0.0047377
-0.00245175
-7.09399e-05
-0.00332565
-0.000868674
0.00419433
0.000388263
-8.65658e-05
-0.000301698
-0.0051424
0.00610685
-0.000964449
-0.000735253
0.00190498
-0.00116972
-0.000697112
0.00525242
-0.00455531
0.00117784
-0.00191309
-0.000113631
-0.00576253
-0.000782601
0.00202283
0.00384253
-0.000246697
-0.00192779
0.000251401
-4.20142e-06
0.000362572
-0.000487852
0.00336169
-0.000823673
-0.00522672
-0.000271626
-0.000147567
0.000150184
-0.000133575
-1.66082e-05
-0.00248358
0.000125216
-0.000422344
0.00159162
-0.0010156
-0.000576015
0.00246958
0.000595591
-0.00306517
-0.000715775
0.00318534
-0.00520292
-0.000271494
0.00547441
0.00375137
0.00137452
0.00441096
-0.00122946
-0.000130323
0.00254289
0.00540386
-0.000206669
-0.0051972
-0.00608697
0.0042522
0.00183478
0.00321068
-0.00126809
-0.00435298
0.000203474
-0.000225423
0.000583267
0.00082037
0.00109862
0.000135612
-0.00123423
0.00421231
0.00119155
-0.00096066
0.00317226
-0.0022116
0.00473212
-0.00139023
-0.00217889
0.00279251
-0.00061361
-0.00117633
-0.000119147
0.000312509
-0.000193361
0.00344623
-0.00414335
0.00134403
-0.000985748
-0.000358277
0.00159621
-0.000396459
-0.00325159
0.00229093
0.00548657
-0.00434305
-3.06456e-05
0.000352709
-0.00535729
0.000446102
0.00544712
-0.00190865
-0.00100144
-0.00361518
0.00461662
-0.000646407
0.0028829
-0.0022365
0.00549726
-0.00286246
-0.0026348
-8.83976e-05
0.000592601
-0.000677135
0.000660552
1.65826e-05
-0.000691325
0.00173031
-0.00103899
-0.00314847
-0.00117288
0.000155572
-1.72019e-05
-0.00122474
-0.00478913
-0.00307666
0.00239509
-0.000537024
-0.000232364
-7.262e-05
-8.95717e-05
-0.00120849
-0.000805692
-0.00523006
-0.00283849
0.00219209
-0.000817832
0.00118889
0.0011202
0.0043805
-0.0055007
0.0033974
-0.00275477
0.000469046
0.000773329
-0.00288437
0.00211104
0.00498709
-0.00493696
-5.01241e-05
-0.00320951
0.00361559
-0.000406074
0.000207793
-9.56079e-05
-0.000112185
-0.00496563
-0.00149376
-0.00175785
0.00369021
-0.00193236
0.00298174
-0.00220841
-0.0037841
0.00202626
0.00139502
-0.00258174
0.00118672
-0.00363293
0.00568128
0.00649878
-0.00219619
-0.0043026
-0.0023998
0.00237451
2.53007e-05
0.0056128
-0.00164036
0.00118488
-0.000923354
-0.000261524
-9.11621e-06
0.000262156
0.000249565
-0.00077409
0.000524525
-0.00304777
0.00365152
-0.000971924
0.000845655
-0.00104856
0.00236338
-0.000632401
-0.00173098
0.00220056
-0.000500662
0.00452426
0.000630241
0.00173314
-0.00175568
0.00106436
0.000408595
-0.000464692
5.60961e-05
0.00221243
-0.00174499
-0.000467446
0.000831213
-0.0051478
-0.00054452
0.00036949
-0.000588346
0.000218855
-0.00410141
0.00547386
0.000942179
-0.00111663
0.000174451
-0.00152644
0.00216516
-0.000638726
-0.00149095
-0.00275102
-0.00538159
-0.000155309
0.0055369
0.000300813
0.00010829
4.1894e-05
0.000127749
-0.000127811
6.16614e-08
0.00411775
-0.00290571
-0.00380205
-0.00232757
0.00346439
0.0030344
-0.00259387
0.000729592
0.00186428
-0.000844669
0.00223968
-0.00229783
-0.000101976
0.00272916
-0.00377744
0.00104827
0.0013076
-0.000133856
0.000460172
0.000551262
-0.00327799
0.000964013
0.00231398
0.000915222
-0.000608039
-3.18957e-05
-0.00427598
0.00172214
0.000102536
-0.00182467
-0.0039655
0.00146505
0.00250044
0.000522917
0.00147318
-0.000889912
-0.000245978
-0.00466048
0.00490646
0.000784469
-0.00247674
0.00169227
0.00120221
0.00131231
-0.000468798
-0.00171732
0.00218612
0.00258006
-0.00179559
0.00447063
-0.00353308
-0.00077842
-0.00264075
-0.000227316
0.000251655
-0.000703732
0.00176482
-0.00106109
0.00265967
-0.00366752
0.00100784
0.000136438
2.03988e-05
-0.00236302
-0.000914977
0.00142132
-0.0016365
0.00021518
-0.00277427
0.000686687
0.00127642
-0.00141881
0.000142384
0.00161861
-0.00180798
0.000189366
0.000676249
-0.00372657
-0.00116294
0.00135079
-0.00490106
0.00355027
-0.000914404
0.00357407
0.000119057
-7.91922e-05
-3.98649e-05
0.00475416
-0.00363395
-0.000313668
-0.00153178
-0.00401412
-0.00149562
0.00209195
0.000700546
-0.00101192
-0.000923151
-0.00451525
-0.00162911
-0.000395403
0.0012418
-0.000931064
-0.00031074
-0.00149636
-0.00108887
0.000657453
0.00225739
-0.00291484
-0.000114267
0.000670731
-0.000715935
3.88e-05
-0.00245768
0.00196646
0.00139407
-0.000720553
0.00163501
-0.000914455
-8.68724e-05
-0.000116964
0.000318451
-0.00194566
0.000451418
0.00160801
-0.00231157
0.00070356
-0.00334293
0.00258153
0.000761384
0.00119683
0.00241547
-0.0036123
-0.00175417
0.00105044
-0.00294139
-0.0010241
-0.000793314
-0.00254961
-0.00167724
0.00125319
0.00042406
0.00176429
-4.21567e-05
-0.000763418
-0.00243386
0.00319727
-0.000675178
0.00291467
-0.00225721
-0.000858536
-0.0039476
0.00480615
-0.00234315
0.00233967
3.47793e-06
-0.000720915
-0.0015627
0.000547097
-0.00240572
0.00381967
-0.00141396
0.0032329
0.00288516
0.000194393
3.6226e-05
-0.000230619
0.00234038
-0.000602845
-0.00173754
0.000187958
-0.000184062
-0.00358831
0.00493911
-0.00329617
0.00525022
-0.00195405
-0.00350981
-0.00150964
-0.000914394
0.00323169
-0.0023173
0.0028565
0.00177508
-0.0041808
-0.00499528
-0.000147117
-0.000790745
0.00284786
-0.00205711
-0.000431673
0.00037884
-0.000529792
0.00167554
-0.00114574
-0.00403499
0.0033427
0.000692291
-0.00326939
0.002355
-0.00386884
0.000674578
0.00319425
0.00140962
-0.00101274
-0.000396888
-0.00589957
0.000696645
0.00184671
-0.00141085
-0.00043586
0.00141128
-0.00039753
-0.00101375
7.83754e-05
0.000129418
0.00293299
-0.000637775
-0.000220822
-0.00348775
-0.000381091
0.000427633
-0.00305456
-0.000980436
-0.00233649
-6.65163e-06
-0.00292547
0.00228976
0.000720711
0.00260181
-0.00332252
0.000585224
-0.000859788
0.00141111
-0.00671889
0.00530778
-0.00578268
0.00099876
-0.00234248
0.00353932
0.00069246
0.000258491
-0.00273288
0.00345359
-9.57911e-05
0.00508288
0.000616683
0.00170456
-0.00232125
-0.00177627
0.00124648
0.00274743
-0.00369607
0.000948634
0.005101
0.000668395
0.00154403
0.000316346
0.000390209
-0.000364015
-0.000404799
0.000180971
-0.00174584
0.00176684
-0.000888842
0.000857673
0.000615501
-0.000585314
0.00301132
-0.002426
-0.0015021
0.0018416
-0.000339499
-0.00489496
0.00380339
0.00109157
-0.0048006
0.00150443
-3.98984e-05
3.96809e-05
2.1758e-07
-0.00281132
-0.000856202
0.00108308
-0.00129323
0.000210149
0.00136042
-0.00494874
0.0010709
2.77194e-05
0.00124208
0.000695212
0.00218769
-0.00366785
0.00085654
0.000186509
-0.00503633
0.00190091
0.00121664
0.000688339
-0.00527376
-0.000492357
0.00565119
0.00118545
0.00710751
-0.0021848
-0.00492271
0.000789812
-0.000381855
-0.000407958
0.000717024
-0.00138288
0.000777475
-0.00386081
-0.00125734
0.000312508
-0.000935326
-0.000415586
0.00135091
0.00232936
0.00400854
-0.00486707
0.00270263
0.000834653
-0.00353729
0.00124942
-0.000963559
-0.000285859
0.000745337
0.00159504
-0.000135063
0.00013828
-3.21764e-06
-0.00070995
0.00288363
-0.00217368
0.00362191
0.00109843
-0.00126171
-0.00041554
0.00142422
-0.00155978
0.000135566
4.76191e-05
7.1438e-05
-0.00447671
0.000966891
-0.00165324
0.000443396
-0.00364759
0.0029318
-0.000947568
6.6395e-05
0.000935283
0.00267991
-0.0036152
0.000847769
-0.0012645
0.00419041
-0.00292592
0.000318352
0.000279897
4.65649e-05
-0.000326463
7.8302e-05
-0.00539173
0.00531342
-0.00263142
-0.000781615
0.00341304
-0.00349308
0.00260827
0.000884821
-0.00277777
-0.000261583
-0.00171374
-0.00490334
0.000889218
-0.00145438
-0.000882109
-0.00106324
0.0037924
0.00170862
-0.00372617
0.00201755
0.000105318
2.24319e-05
0.00372626
-0.00201764
0.0028623
0.000959992
-0.00382228
-0.00130248
0.0017419
-0.000439419
0.00357441
0.00110108
-0.00467548
0.0071856
-0.00197284
-0.00521275
-0.00212745
-0.000711045
-0.00172876
0.00234544
0.00377223
-0.00492807
0.00115582
-0.00280219
0.00373747
0.00113663
8.51519e-06
-0.00114515
0.00148169
0.000907402
-0.00550729
0.000598452
0.000434296
0.000355516
0.00292153
-0.00112273
-0.0025215
0.00247981
4.16874e-05
0.00050472
-0.00184045
0.00133573
-0.00387058
-0.0011921
0.00109042
-0.00254481
-0.00529914
0.000151339
-0.00124905
-0.000526891
0.00177594
0.00563562
-0.00449324
0.000104479
0.000283785
-0.00301644
0.00318895
0.00144083
-0.0010719
-0.000368938
0.0034692
0.00475965
-0.000956267
0.000644902
-0.00327632
0.00108562
-0.000972053
-5.28867e-05
0.000461482
0.000394004
-1.97448e-05
-0.00206637
-0.000453391
0.00153647
-0.000911556
-0.00349748
0.000764614
-2.67976e-05
-1.31009e-05
0.00599851
-0.00492079
0.0052226
-0.00439411
5.58222e-06
-0.000607344
0.000601761
0.00194879
-0.000458351
-0.00149044
0.00335883
-0.000757018
-0.00256805
0.0033611
-0.000793049
-0.00183337
0.000530894
0.00127834
-0.000951478
-0.000326863
-0.000118766
-0.000210172
0.0020592
-0.000548354
-0.00151085
-0.00138139
-0.00239449
-0.000127002
0.00209014
-0.00274623
0.000656091
0.00280636
-0.000750446
-0.00205592
0.00410349
-0.00434946
0.000314783
0.00224143
-0.000633413
-0.00068232
0.000834789
-0.00367644
0.00503685
0.0012466
0.000468355
-0.00171741
-0.00286605
0.00209641
0.00363392
0.00158868
-0.00114166
-0.00383254
-0.001144
0.00130342
-0.00171752
0.000414097
0.00367532
-0.00318607
-0.000193813
0.00113599
-3.86046e-05
-0.000269774
0.000308379
-0.000697697
-0.00189618
0.00377208
-0.00490955
0.00113748
-0.00186171
0.00235217
-0.000490463
-0.00115599
0.00213252
0.000751103
-0.0022635
0.00375573
-0.00149223
0.00150525
-0.00114099
-0.000364262
-0.00100466
0.000283744
0.000177518
-0.000439325
0.000261807
-0.000425873
-0.00122737
-0.0024796
0.0025044
-2.48021e-05
0.00144793
-0.00371144
0.00162414
-0.000370949
0.000375998
-0.000421603
4.56057e-05
-0.000826713
0.000593754
0.000232959
-0.000794858
-0.00284985
0.000830588
0.00201927
-0.00199523
-0.000845046
-0.000715216
0.00156026
-0.005244
0.00389674
0.00134725
-0.00124239
0.00124797
-0.000576402
-0.000115914
0.000692316
0.00286867
-0.000736161
-0.000770382
-0.000160184
0.000930566
0.00184116
-0.0013728
0.00169707
-0.00039365
-0.000156773
-0.000637521
-0.00420493
0.00484246
-0.00138872
0.00282992
0.00427759
-0.00239913
-8.04678e-05
0.00312039
-0.00473601
0.000733218
0.00158145
-0.00231467
0.00200985
-0.00280059
0.00199255
-0.000725483
-0.00126707
-0.001796
0.000455874
0.00134012
0.00431974
0.00286587
-0.00551831
0.00133767
0.00418063
-0.00125301
-0.00399098
-0.000460167
-0.00133583
-0.00100042
-0.000562273
-0.00129224
-0.000425279
0.00114448
-0.000532454
0.00150721
-0.000974759
-0.00175714
0.00129697
-0.000944487
-0.00020722
0.00115171
0.00217106
-0.00286712
0.000696063
-1.17681e-05
0.000206161
0.00103418
0.00606314
-0.00141163
-0.00465152
-0.00203632
-0.00187508
0.00133849
0.00053659
0.00127043
-0.000977859
-0.000292571
-0.0022929
-0.00102722
0.00332013
-0.00266957
0.00358413
-0.000914564
-0.000920427
0.00111467
1.09006e-05
-0.00112557
0.00376088
-0.00493726
0.00117637
0.00174752
-0.00135541
-0.000392112
0.00242707
-0.00122486
0.00273944
-0.000635185
-0.000191527
-0.0040926
0.00229354
-0.00180147
-0.000492067
0.000560688
-0.00200907
0.00144838
-0.00251426
-0.000844062
0.000860092
-0.000658591
-0.000201502
-0.000180336
-0.00364326
0.000973691
0.000652248
-0.00047473
0.00259188
0.000992249
0.000318953
0.00130369
0.000688864
-0.00160326
0.00233648
-0.00150078
0.0009876
0.000513178
0.00355189
-0.000689588
-0.00380973
0.00610319
-0.00114866
-0.00248708
0.00683174
-0.00434465
-0.000888506
0.00356842
-0.00414181
0.000932307
-0.00210141
0.00424974
-0.000694488
-0.00161708
-0.00245211
0.00171184
0.000740271
-0.0012795
0.000412683
-0.000461354
4.86726e-05
-0.00137414
-0.000776802
-0.000153595
0.000930397
-0.00156669
0.00136076
0.000205935
0.00203623
0.000811632
6.25655e-05
-0.0013002
-0.000552873
-0.000830004
-0.00242085
-0.000483607
-0.00139147
-0.000171323
0.00159264
-0.000180702
0.00341135
-0.000514381
0.00133899
0.000200407
-0.000815457
-0.000983001
-0.00192999
0.00247691
-0.000546916
-0.00104378
-0.0057289
0.0035108
0.00148206
-0.000624388
0.00288708
-0.00121298
0.000964537
-0.00135878
-0.00453029
0.00588907
0.000620411
-0.0025504
0.000741229
-0.00369034
0.00269872
0.000991615
0.00089047
-0.00142292
0.00222554
-0.00311886
0.000893314
0.00119617
-0.00342985
0.00223367
0.000861037
0.00168774
-0.00254878
-0.00017467
0.00179328
0.00274312
0.00107938
0.00361977
-0.000413523
0.000783012
0.00315855
-0.00402722
0.000983033
-0.00327593
0.000435363
0.00412488
0.00147067
-1.0613e-05
-0.00027445
0.000285063
-0.00619329
0.00385682
0.00233648
-0.000829658
-0.00261425
0.00344391
0.00263998
-0.00177894
-0.00369699
0.000894801
-0.0013214
-0.000435739
-0.000152861
0.00131981
0.00372661
0.00123109
0.000224907
0.00130863
-0.000992459
-0.00031617
0.000891359
0.000590703
-0.000313882
0.00376877
-0.00493526
0.00116649
0.00307826
-0.000852732
-0.00139852
0.00190323
0.00125841
-0.00355501
0.0022966
-0.0011685
0.00145595
0.000678523
-0.00213447
0.000193448
-0.000204061
0.00219854
-0.000859782
-0.00125061
0.00033077
0.000925195
-0.000349725
-0.000575471
0.00353264
-0.00227423
-0.000508972
0.00229183
-0.00178286
0.00101938
-0.00296805
0.00208191
0.000886151
0.000106358
-1.04046e-06
0.00467256
0.000540685
-0.00570044
-0.0051972
0.00392728
0.00126993
-0.00107833
-0.00269501
0.00377334
0.0022213
0.00372509
0.00282672
-0.00375414
0.000927421
-0.00146947
0.00110052
-0.000959148
0.00337504
-0.0024159
0.00149679
0.000562408
-0.0037849
-0.0024084
0.00107988
-0.00230184
0.00321501
-0.000913175
0.00343528
-0.000827009
0.000396769
-0.000813633
0.00254243
0.000892846
-0.000635476
0.0043108
-0.00130848
0.00171617
-0.000407685
0.00199424
-0.00127521
-0.000390084
0.00607681
-0.00492202
-0.000459565
0.000858731
-0.002462
-0.00539155
-0.00172225
0.000413765
-0.000678151
0.000101749
-0.000870264
0.000212779
-0.00146836
0.000669739
0.00157168
-0.000905435
0.000135053
0.000805222
0.00251592
-0.00332115
-0.00109513
0.00187365
-0.00194687
-0.000474363
0.00196112
-0.00148676
-0.000884264
-0.00208378
-0.00195173
0.00147737
-0.00265754
0.00346275
-0.00164157
0.000585777
0.00105579
-0.000980806
0.00357269
0.00601604
-0.00230229
-0.00130252
-0.000419728
-0.00173932
0.00109893
0.000640388
0.000905433
-0.0045202
0.00361477
-0.00131272
0.000546126
0.000766589
-0.004035
-0.0011622
0.000191718
-0.0011362
0.00193796
-0.00072132
-0.0013477
-0.00380622
0.00515392
0.00100097
7.22858e-05
0.00329719
-0.00252776
-0.000769431
0.000135565
0.00127571
0.000876502
-0.000669871
-0.000206632
-0.00134568
-0.00101786
-0.00108345
0.00512387
-0.00404041
0.000636075
-0.00249778
0.000128591
0.00129563
0.00377287
-0.00496274
0.00118987
0.0028801
-0.00204952
0.000101824
-0.000168325
6.65017e-05
0.00102883
0.000138093
0.000104276
0.00235527
0.00370787
-0.000584471
-0.000806224
0.0013907
0.000653452
0.00177113
-0.00242458
0.00240249
-0.00170432
-0.00069817
0.000475719
0.00147307
0.000426124
-0.000512143
-0.000800572
0.000600509
-0.00532502
0.000690418
-2.98669e-05
-0.00116238
-0.00131616
-0.0037915
0.00510765
0.00103257
0.00143699
-0.00189534
0.00254647
-0.000394837
-0.0049087
0.00530353
0.000120583
-1.87598e-05
0.000660735
0.00127722
0.00272859
0.000945168
-0.00367375
0.00137499
0.000471719
0.00258717
-0.00364109
0.00454652
0.0027739
0.000843664
-0.00361756
0.00163163
-0.000833015
-0.000798611
0.00132804
-0.001019
-0.000309041
0.000423927
0.00105969
-0.00470078
0.000217911
-6.85667e-06
0.000200304
0.00605644
-0.00130229
0.00152581
-0.00212866
0.00252726
-0.00182227
-0.00070499
0.000864232
-0.00254584
0.00168161
0.00523471
-0.00281593
-0.000927034
-0.00158787
0.00501279
0.00148639
-0.00178138
0.000294987
0.000499699
-0.000103712
-0.000395985
-0.000997398
-0.00314021
0.00413762
0.000743028
0.00181888
-0.00256191
0.00176754
-0.000281151
0.00224789
0.00140602
-0.000859893