/*--------------------------------*- C++ -*----------------------------------*\
  =========                 |
  \\      /  F ield         | OpenFOAM: The Open Source CFD Toolbox
   \\    /   O peration     | Website:  https://openfoam.org
    \\  /    A nd           | Version:  7
     \\/     M anipulation  |
\*---------------------------------------------------------------------------*/
FoamFile
{
    version     2.0;
    format      ascii;
    class       volVectorField;
    location    "98";
    object      U;
}
// * * * * * * * * * * * * * * * * * * * * * * * * * * * * * * * * * * * * * //

dimensions      [0 1 -1 0 0 0 0];

internalField   nonuniform List<vector> 
41600
(
(-0.0363537 0.342954 -3.48709e-20)
(-0.0925797 0.340292 -4.81355e-20)
(-0.119041 0.237596 3.46549e-23)
(-0.0887322 0.00253674 -4.37994e-20)
(-0.00478847 -0.267756 5.55211e-20)
(0.0726941 -0.484868 -1.0101e-19)
(0.122838 -0.617709 -1.1372e-20)
(0.126517 -0.684956 6.89443e-20)
(0.092189 -0.69005 -1.27512e-20)
(0.109251 -0.566477 -1.86143e-20)
(0.233878 -0.291912 -7.13268e-21)
(0.390144 0.020614 2.09423e-20)
(0.529479 0.276653 -1.11348e-20)
(0.618437 0.445648 -1.00638e-20)
(0.66236 0.533524 -8.7356e-21)
(0.683579 0.562088 1.90266e-21)
(0.659635 0.576713 3.78931e-22)
(0.585364 0.591988 -1.16284e-20)
(0.542409 0.501697 2.43663e-21)
(0.586203 0.269963 3.86215e-21)
(0.673437 -0.0192915 -1.80097e-20)
(0.748593 -0.246966 1.49463e-20)
(0.801404 -0.381364 -4.23472e-21)
(0.828734 -0.425576 1.0644e-21)
(0.808791 -0.45883 3.83057e-21)
(-0.0375198 0.347396 -1.64483e-19)
(-0.0865479 0.343886 2.4725e-19)
(-0.104956 0.237575 -5.44598e-20)
(-0.0661878 -0.00442334 2.35402e-20)
(0.0252624 -0.278355 -1.65868e-19)
(0.106282 -0.494112 1.57476e-19)
(0.156837 -0.621347 -1.95728e-20)
(0.160229 -0.681008 -8.99916e-20)
(0.11988 -0.686484 1.94002e-20)
(0.112131 -0.580447 -5.69587e-20)
(0.214191 -0.323912 1.01749e-20)
(0.359061 -0.01627 2.97243e-20)
(0.495691 0.245826 2.95268e-20)
(0.586516 0.425696 5.44591e-20)
(0.638352 0.522348 1.60482e-20)
(0.666213 0.561662 1.72903e-20)
(0.640964 0.590677 2.59118e-21)
(0.568004 0.608972 3.88521e-20)
(0.540694 0.499468 3.66214e-21)
(0.604349 0.248805 -1.43663e-20)
(0.702427 -0.0453021 -1.86474e-20)
(0.780502 -0.267575 -3.11988e-20)
(0.82478 -0.394157 -1.284e-20)
(0.845004 -0.426204 -1.06283e-21)
(0.826882 -0.441915 -8.28781e-21)
(-0.0387918 0.351097 3.31994e-20)
(-0.0802661 0.346944 -8.19021e-20)
(-0.0901633 0.2373 -1.25512e-19)
(-0.0423315 -0.0112786 8.14186e-20)
(0.057157 -0.288367 1.56991e-19)
(0.141836 -0.502433 -1.87618e-19)
(0.192714 -0.623994 8.30785e-20)
(0.196082 -0.675762 5.21196e-21)
(0.152547 -0.67941 7.81385e-20)
(0.122782 -0.589581 1.01221e-19)
(0.200934 -0.353351 6.34589e-20)
(0.333359 -0.0529684 -6.05862e-22)
(0.46532 0.213628 -1.3217e-21)
(0.557448 0.403162 -5.00358e-20)
(0.617326 0.508426 -4.73181e-20)
(0.649825 0.560132 -2.26594e-20)
(0.623215 0.603754 4.30215e-21)
(0.553332 0.623131 -4.26081e-20)
(0.544021 0.492736 1.44563e-20)
(0.626634 0.225126 -2.24128e-20)
(0.735124 -0.0713161 2.00384e-20)
(0.81679 -0.285268 5.98451e-20)
(0.85065 -0.402831 3.71255e-20)
(0.86296 -0.425572 -9.56691e-21)
(0.846913 -0.424864 -7.44068e-21)
(-0.0401556 0.354038 -2.87803e-19)
(-0.0737605 0.349443 4.09643e-20)
(-0.0747364 0.236756 4.27139e-19)
(-0.017222 -0.0180329 -2.62862e-19)
(0.0908253 -0.297779 1.49946e-19)
(0.17923 -0.509771 5.10305e-19)
(0.230276 -0.625631 -2.16674e-19)
(0.233572 -0.669471 2.66397e-19)
(0.189164 -0.669264 1.03936e-19)
(0.141145 -0.593603 1.06386e-19)
(0.194085 -0.379525 2.12782e-20)
(0.312904 -0.0889044 -1.08868e-19)
(0.438644 0.180407 -5.77771e-20)
(0.531928 0.378144 3.33583e-20)
(0.59947 0.492103 4.19783e-20)
(0.634387 0.557648 2.87915e-21)
(0.606777 0.615606 -2.28387e-20)
(0.541815 0.634127 3.22677e-20)
(0.553 0.481891 -1.02046e-19)
(0.653727 0.199503 -7.89414e-20)
(0.771673 -0.0972164 5.66935e-20)
(0.855992 -0.29994 -1.53977e-20)
(0.878803 -0.406885 1.48118e-20)
(0.881853 -0.423716 2.11319e-20)
(0.868521 -0.407667 8.6084e-21)
(-0.0415973 0.356203 3.14575e-20)
(-0.0670596 0.351366 -5.67876e-19)
(-0.0587515 0.235926 5.09464e-19)
(0.00908967 -0.024699 -6.66741e-20)
(0.12619 -0.306565 -5.90312e-19)
(0.218326 -0.516072 -4.32937e-19)
(0.269339 -0.626219 9.86022e-20)
(0.272282 -0.662336 -2.37841e-19)
(0.228676 -0.656601 -1.26891e-19)
(0.166873 -0.592401 -1.71677e-19)
(0.193734 -0.401695 -2.02358e-20)
(0.297681 -0.123562 4.2277e-20)
(0.41617 0.146451 8.38778e-20)
(0.510576 0.350829 -4.98187e-20)
(0.584777 0.473812 6.42216e-20)
(0.619889 0.554299 -5.67234e-20)
(0.591997 0.625891 -5.83609e-20)
(0.53386 0.641611 -3.21833e-20)
(0.568812 0.467333 -2.91471e-20)
(0.686913 0.172687 9.26531e-20)
(0.812827 -0.1223 -1.01841e-19)
(0.896279 -0.311555 4.15293e-20)
(0.909154 -0.405971 -4.74874e-20)
(0.901088 -0.420558 -2.58772e-20)
(0.890967 -0.390383 -1.34723e-21)
(-0.0431037 0.357579 1.35808e-19)
(-0.0601971 0.352706 5.2328e-19)
(-0.0422866 0.234775 -1.33995e-18)
(0.0365575 -0.0312896 7.55109e-19)
(0.163162 -0.314704 3.6294e-19)
(0.258961 -0.521291 -8.20949e-20)
(0.309713 -0.625706 2.87454e-19)
(0.311895 -0.654495 -2.89597e-20)
(0.270062 -0.642043 5.09031e-20)
(0.199251 -0.586078 1.53131e-19)
(0.200119 -0.419144 7.31374e-20)
(0.287818 -0.15641 -3.29542e-21)
(0.398517 0.112053 -4.40277e-20)
(0.493819 0.321528 1.48692e-19)
(0.573041 0.454026 -3.29412e-20)
(0.606365 0.550112 8.50828e-20)
(0.579055 0.634257 3.13772e-20)
(0.529871 0.645082 1.11934e-19)
(0.592504 0.449313 1.99443e-20)
(0.726984 0.145408 -1.08634e-19)
(0.859238 -0.145291 7.50415e-20)
(0.935871 -0.320036 -8.2719e-20)
(0.941403 -0.400032 -2.03782e-20)
(0.920422 -0.415788 -4.65887e-20)
(0.91311 -0.373177 -8.5057e-21)
(-0.0446611 0.358153 -2.71698e-19)
(-0.0532147 0.353491 -7.32799e-19)
(-0.0254197 0.233228 5.12703e-19)
(0.0651405 -0.0378106 -1.24546e-18)
(0.201637 -0.322176 -4.2092e-19)
(0.300953 -0.525386 1.09944e-19)
(0.351187 -0.62404 -4.583e-19)
(0.352168 -0.646014 2.0742e-19)
(0.312399 -0.62622 -1.25582e-19)
(0.237196 -0.575007 -5.82846e-20)
(0.213568 -0.431234 -7.02385e-20)
(0.283471 -0.186888 9.99392e-20)
(0.386158 0.0775418 -1.00337e-19)
(0.481746 0.290681 -7.10872e-20)
(0.563871 0.4332 -2.81643e-20)
(0.593886 0.545075 -6.74378e-20)
(0.567916 0.640329 6.35302e-20)
(0.530287 0.643882 -2.96197e-20)
(0.624238 0.427907 1.33305e-20)
(0.773513 0.118136 1.14503e-19)
(0.910556 -0.164724 8.14929e-20)
(0.973517 -0.325172 -1.14534e-19)
(0.974723 -0.389421 9.98989e-20)
(0.939951 -0.408831 8.32548e-20)
(0.933583 -0.356294 -6.87593e-21)
(-0.0462555 0.357925 1.19889e-18)
(-0.0461498 0.353658 7.60256e-19)
(-0.00824498 0.231291 2.69511e-19)
(0.0948085 -0.0442765 1.35303e-18)
(0.241494 -0.328957 6.12686e-19)
(0.344098 -0.528322 9.36162e-19)
(0.393524 -0.621183 -3.67558e-19)
(0.392912 -0.636896 6.12828e-20)
(0.35492 -0.609707 1.42131e-20)
(0.279332 -0.55984 -7.86613e-20)
(0.234341 -0.43746 -2.78517e-20)
(0.284708 -0.214389 -1.03987e-19)
(0.379141 0.0432931 1.18284e-19)
(0.47403 0.258801 6.6389e-21)
(0.556737 0.411708 -7.76935e-20)
(0.582505 0.539145 -8.37735e-21)
(0.55841 0.643705 -6.73545e-20)
(0.53564 0.637359 -3.75717e-20)
(0.663307 0.403211 1.49682e-19)
(0.825176 0.0913099 1.28641e-19)
(0.964998 -0.179456 1.97618e-20)
(1.00877 -0.326601 1.56749e-19)
(1.00768 -0.374889 1.6596e-20)
(0.959884 -0.398957 4.89253e-21)
(0.951142 -0.339929 2.69117e-20)
(-0.0478824 0.356909 -1.05575e-18)
(-0.0390295 0.353117 5.75908e-19)
(0.00915119 0.228977 -5.02443e-20)
(0.125526 -0.0507083 2.71205e-19)
(0.282595 -0.335027 3.01407e-19)
(0.388173 -0.530072 -1.35759e-18)
(0.436464 -0.617112 5.93712e-19)
(0.43395 -0.627104 -5.42777e-19)
(0.397054 -0.59297 -1.06286e-19)
(0.324118 -0.541478 -1.04626e-19)
(0.262413 -0.437537 -1.39996e-19)
(0.291538 -0.238198 1.24395e-21)
(0.376976 0.00973536 -1.83994e-20)
(0.469951 0.226387 -7.43379e-20)
(0.551028 0.389797 1.45934e-19)
(0.572194 0.532249 1.26857e-19)
(0.550372 0.643955 -5.76682e-20)
(0.546661 0.625061 -6.03348e-20)
(0.708893 0.375586 -8.04046e-20)
(0.880661 0.065438 -2.33896e-19)
(1.01964 -0.188964 -1.47432e-19)
(1.0419 -0.323878 5.98014e-21)
(1.03846 -0.357441 -1.75098e-19)
(0.980249 -0.385525 -2.22077e-20)
(0.965007 -0.324118 -7.11314e-20)
(-0.0495377 0.355112 1.23361e-18)
(-0.0319001 0.351877 -1.63645e-18)
(0.0266957 0.226211 -1.19868e-18)
(0.157265 -0.0571271 -1.57879e-18)
(0.324788 -0.340365 3.62083e-19)
(0.432942 -0.530617 2.22279e-19)
(0.479735 -0.611827 2.83294e-19)
(0.475084 -0.616582 4.7975e-20)
(0.438441 -0.576322 6.79179e-20)
(0.370003 -0.520984 -8.21573e-20)
(0.297258 -0.431495 1.3525e-19)
(0.304078 -0.257451 -1.89743e-20)
(0.37881 -0.022655 8.26375e-20)
(0.468535 0.193847 -1.82712e-20)
(0.54611 0.367569 3.20112e-20)
(0.562786 0.524257 -2.02489e-19)
(0.543765 0.640583 -4.34256e-20)
(0.564394 0.606809 -1.84216e-19)
(0.760415 0.345677 -1.15909e-19)
(0.938983 0.0413034 -1.10006e-19)
(1.07134 -0.193279 1.22614e-19)
(1.07339 -0.316605 -5.53052e-20)
(1.06528 -0.338087 3.99329e-20)
(1.00066 -0.368238 7.98543e-21)
(0.975124 -0.308718 2.07444e-20)
(-0.0512158 0.352542 1.44411e-19)
(-0.0248138 0.349947 1.80647e-18)
(0.0443201 0.222921 -1.58636e-19)
(0.190006 -0.0635507 7.1222e-19)
(0.367909 -0.344951 -2.17436e-18)
(0.478155 -0.529945 -8.6266e-20)
(0.523059 -0.605342 -4.76107e-19)
(0.516085 -0.605283 3.09614e-19)
(0.478909 -0.559918 2.68838e-19)
(0.415595 -0.499458 2.95992e-20)
(0.33773 -0.4198 2.76733e-20)
(0.322645 -0.27117 -1.96432e-20)
(0.383832 -0.0532504 -5.64377e-20)
(0.468793 0.161502 -7.12346e-20)
(0.541391 0.345002 -2.91446e-20)
(0.55393 0.514949 6.12549e-20)
(0.538793 0.632961 2.26455e-19)
(0.590093 0.582636 5.22653e-21)
(0.81729 0.314251 1.0409e-19)
(0.998848 0.020112 1.50145e-19)
(1.1176 -0.192756 -2.66319e-19)
(1.10325 -0.304622 -2.6196e-20)
(1.0869 -0.317618 8.02192e-20)
(1.02028 -0.347353 -6.51065e-20)
(0.982223 -0.293417 2.00859e-20)
(-0.0529126 0.349212 -2.92082e-18)
(-0.0178254 0.347317 -1.52666e-18)
(0.0619661 0.219039 1.47619e-18)
(0.223733 -0.0699934 -8.24722e-19)
(0.411778 -0.348764 2.92336e-18)
(0.523557 -0.528054 -5.83336e-19)
(0.566165 -0.597687 9.35044e-19)
(0.556691 -0.593192 1.40802e-19)
(0.518405 -0.543767 -2.40202e-19)
(0.459798 -0.477894 1.97686e-19)
(0.382123 -0.403396 5.40739e-20)
(0.347628 -0.278441 3.35637e-21)
(0.391728 -0.0811129 -6.17797e-20)
(0.46994 0.129665 6.10571e-20)
(0.536351 0.322014 -9.62629e-20)
(0.545073 0.503969 7.555e-20)
(0.5361 0.620283 -9.12894e-20)
(0.624878 0.552718 4.00851e-20)
(0.878449 0.282154 -6.22412e-20)
(1.05802 0.0029851 -4.70855e-20)
(1.15702 -0.187857 1.33735e-19)
(1.13059 -0.288178 2.80352e-20)
(1.103 -0.296505 -2.8653e-21)
(1.03794 -0.323695 -2.8534e-20)
(0.987617 -0.277792 -1.1413e-20)
(-0.054626 0.345142 2.68677e-18)
(-0.0109935 0.343971 6.25074e-19)
(0.0795935 0.2145 -3.42112e-19)
(0.258434 -0.0764648 7.26497e-19)
(0.456206 -0.351784 -2.49199e-18)
(0.568887 -0.52495 1.38506e-18)
(0.608789 -0.588902 -3.4953e-19)
(0.596628 -0.58033 -2.85113e-19)
(0.556915 -0.527783 -7.20827e-20)
(0.501913 -0.457049 -1.87735e-19)
(0.428399 -0.383652 -8.98212e-20)
(0.379107 -0.278694 5.31743e-20)
(0.402935 -0.104949 7.47619e-20)
(0.471544 0.098797 1.24681e-19)
(0.530519 0.298551 -5.15864e-20)
(0.535543 0.490774 3.88902e-20)
(0.537074 0.601678 8.75451e-20)
(0.669398 0.51747 2.1635e-19)
(0.942148 0.250488 1.32845e-19)
(1.11342 -0.0094007 2.51718e-19)
(1.18914 -0.179014 6.18483e-20)
(1.15372 -0.268011 1.75231e-19)
(1.11422 -0.274929 -1.40146e-19)
(1.05248 -0.298501 1.36802e-19)
(0.992756 -0.261426 5.76701e-21)
(-0.0563561 0.340358 -4.49722e-19)
(-0.00438193 0.33989 -1.04567e-18)
(0.0971896 0.209237 -1.22989e-18)
(0.294099 -0.0829686 6.95163e-19)
(0.500996 -0.353993 2.21494e-18)
(0.613887 -0.520652 -3.38702e-19)
(0.65068 -0.579033 -3.11814e-19)
(0.635636 -0.566753 -3.06049e-19)
(0.59439 -0.511845 -1.46431e-19)
(0.541653 -0.437366 4.80103e-22)
(0.474515 -0.362169 -1.98065e-20)
(0.416436 -0.272017 -1.20891e-19)
(0.418536 -0.123194 -5.81786e-20)
(0.473639 0.0697071 -5.29295e-21)
(0.52345 0.274677 5.05351e-20)
(0.524892 0.474586 -8.41256e-20)
(0.544162 0.576429 -1.37336e-19)
(0.723628 0.477802 -1.34833e-19)
(1.00603 0.220467 3.96589e-20)
(1.16193 -0.0169065 -1.81965e-19)
(1.21396 -0.166644 -1.62072e-19)
(1.17093 -0.245254 -3.1116e-19)
(1.12175 -0.252914 8.10639e-20)
(1.06312 -0.273097 -5.63947e-20)
(0.998667 -0.244076 2.36299e-20)
(-0.0581047 0.33489 1.3473e-18)
(0.00194016 0.335049 9.5579e-19)
(0.114778 0.203188 1.50185e-18)
(0.330719 -0.0895009 -1.11376e-18)
(0.545941 -0.355372 -2.72653e-18)
(0.658303 -0.515187 -1.33998e-18)
(0.691601 -0.568138 3.06095e-19)
(0.673488 -0.552534 3.41512e-20)
(0.630712 -0.495859 5.21698e-19)
(0.579075 -0.418966 1.31116e-19)
(0.518766 -0.340512 5.06636e-20)
(0.458085 -0.259328 1.12845e-19)
(0.439788 -0.134307 -1.47407e-20)
(0.476878 0.0437405 -4.25386e-20)
(0.514923 0.250681 3.01125e-20)
(0.513678 0.454452 5.23215e-20)
(0.560982 0.544281 5.12961e-20)
(0.786615 0.435121 6.69538e-20)
(1.06711 0.193261 -6.98593e-20)
(1.20124 -0.0197903 4.69922e-20)
(1.23138 -0.151287 1.45697e-19)
(1.1814 -0.221189 3.31361e-19)
(1.12667 -0.230538 -1.45126e-19)
(1.06975 -0.248537 4.31192e-20)
(1.00558 -0.225831 -4.60767e-20)
(-0.0598765 0.328776 -1.99138e-18)
(0.00789858 0.329419 1.24904e-18)
(0.13243 0.196298 1.65159e-18)
(0.368277 -0.0960489 7.76263e-20)
(0.590832 -0.355905 8.61088e-19)
(0.701892 -0.508596 4.96036e-19)
(0.731332 -0.556284 -9.72854e-19)
(0.709996 -0.537754 4.15015e-19)
(0.665713 -0.47979 -4.51e-19)
(0.614417 -0.401724 -9.75673e-20)
(0.560037 -0.319936 1.11615e-21)
(0.501841 -0.242329 4.63522e-20)
(0.467462 -0.137259 3.95339e-20)
(0.482773 0.0228188 -8.46041e-21)
(0.505696 0.227201 9.85419e-21)
(0.504757 0.42958 1.22769e-20)
(0.591859 0.50579 1.903e-20)
(0.856142 0.391273 1.63221e-20)
(1.12197 0.169906 -6.69291e-20)
(1.23002 -0.0185601 -1.33673e-19)
(1.24117 -0.133756 -2.0185e-19)
(1.18557 -0.196942 7.25794e-20)
(1.12944 -0.208113 1.81416e-19)
(1.07302 -0.225404 7.01383e-20)
(1.01296 -0.20708 -3.80974e-20)
(-0.0616784 0.322056 1.06935e-18)
(0.0134156 0.322959 -1.15099e-18)
(0.150272 0.188533 -2.63753e-18)
(0.406748 -0.102589 1.87633e-19)
(0.635455 -0.355579 8.46947e-19)
(0.744424 -0.500924 -3.07756e-19)
(0.769675 -0.543548 1.60818e-19)
(0.745009 -0.522491 2.63156e-19)
(0.699215 -0.46366 -1.27575e-19)
(0.647928 -0.385391 4.48732e-19)
(0.597907 -0.301187 -1.00775e-20)
(0.545305 -0.223192 -3.82709e-20)
(0.501263 -0.132084 -1.92418e-20)
(0.493743 0.00912263 5.52803e-22)
(0.498802 0.205375 -1.4542e-20)
(0.504537 0.400034 -1.15163e-20)
(0.64042 0.462602 -2.27179e-20)
(0.928232 0.348775 -6.55993e-22)
(1.16721 0.151029 -8.07617e-20)
(1.24778 -0.0139401 2.12393e-19)
(1.24337 -0.115126 -2.58752e-19)
(1.18471 -0.173317 7.63683e-20)
(1.12998 -0.186207 -7.63658e-20)
(1.07405 -0.203838 5.8827e-21)
(1.01986 -0.188367 7.66644e-20)
(-0.0635209 0.314778 -1.45691e-18)
(0.0184129 0.315616 5.40098e-19)
(0.168496 0.179882 1.12775e-18)
(0.446088 -0.109088 -2.80544e-19)
(0.679597 -0.354383 7.93183e-19)
(0.785686 -0.49223 1.24522e-18)
(0.806457 -0.530015 1.27571e-19)
(0.778404 -0.506825 -5.12466e-19)
(0.731078 -0.447529 3.9273e-19)
(0.679752 -0.369726 -3.73446e-19)
(0.632545 -0.284464 -4.91082e-20)
(0.58647 -0.204069 -3.35375e-20)
(0.539659 -0.120215 5.90467e-22)
(0.512578 0.00425343 -1.86202e-21)
(0.500463 0.18674 -4.49474e-21)
(0.522438 0.367491 1.40575e-21)
(0.707171 0.417646 1.40896e-23)
(0.997346 0.309874 9.90371e-21)
(1.2001 0.136649 2.78473e-19)
(1.25474 -0.00690358 1.49858e-19)
(1.23875 -0.0965196 4.02246e-20)
(1.18021 -0.150861 -7.53961e-20)
(1.12822 -0.165446 -3.28457e-20)
(1.07391 -0.183722 -5.78823e-20)
(1.02548 -0.17029 -4.94831e-20)
(-0.0654181 0.306993 9.44088e-19)
(0.0228167 0.307323 1.14669e-18)
(0.187357 0.170367 -6.39967e-19)
(0.486235 -0.115497 9.22946e-20)
(0.723047 -0.352312 1.17663e-18)
(0.825483 -0.482579 6.28124e-19)
(0.841532 -0.515775 1.36668e-18)
(0.810086 -0.490832 4.04808e-19)
(0.761219 -0.431464 -4.83201e-20)
(0.709905 -0.354579 1.345e-19)
(0.664443 -0.26955 1.56117e-19)
(0.624153 -0.186594 5.97387e-21)
(0.580197 -0.104326 -1.61746e-21)
(0.541139 0.00808014 -1.77815e-20)
(0.518411 0.173453 3.1533e-20)
(0.566511 0.335298 -3.25489e-21)
(0.786913 0.374442 5.58033e-21)
(1.0571 0.275965 -1.02589e-19)
(1.21918 0.126235 -8.40288e-20)
(1.25189 0.00138921 6.79247e-20)
(1.22879 -0.0788779 6.25862e-20)
(1.17309 -0.130004 1.54264e-19)
(1.12452 -0.146256 -8.36228e-20)
(1.07319 -0.164916 1.46823e-20)
(1.02953 -0.153347 1.32748e-20)
(-0.0673887 0.29876 -1.49202e-19)
(0.0265659 0.297999 -2.54633e-18)
(0.207175 0.160046 7.15454e-19)
(0.527096 -0.121757 7.38894e-19)
(0.765599 -0.349365 -2.71136e-18)
(0.863647 -0.472044 5.60417e-19)
(0.874787 -0.500924 -1.6514e-19)
(0.839984 -0.474592 7.17027e-19)
(0.789606 -0.415521 -2.64632e-19)
(0.738345 -0.339899 -4.44676e-19)
(0.694106 -0.256046 -2.15275e-21)
(0.658114 -0.171575 -1.68569e-20)
(0.620221 -0.0875944 1.15453e-20)
(0.579134 0.0181357 2.54928e-20)
(0.557711 0.166286 -1.40214e-21)
(0.636277 0.306815 1.3321e-20)
(0.868698 0.335699 6.86002e-21)
(1.10168 0.247532 6.16423e-20)
(1.22453 0.11877 4.13544e-20)
(1.24106 0.00976204 -2.26901e-19)
(1.21525 -0.0628578 -9.73627e-21)
(1.16414 -0.11108 -1.44962e-19)
(1.11959 -0.128787 4.23909e-20)
(1.07202 -0.147407 1.37311e-20)
(1.03224 -0.137762 -3.91455e-20)
(-0.0694565 0.29014 -1.59765e-18)
(0.0296245 0.287548 8.74744e-19)
(0.228319 0.149022 2.73504e-19)
(0.568548 -0.127798 -7.30134e-19)
(0.807058 -0.345551 2.38381e-18)
(0.900031 -0.460702 -1.43668e-18)
(0.906134 -0.485559 -1.24644e-18)
(0.868053 -0.458185 -5.25473e-19)
(0.816241 -0.399747 3.15418e-19)
(0.765041 -0.325687 3.77182e-19)
(0.721865 -0.243596 3.90933e-20)
(0.688799 -0.159034 4.64741e-20)
(0.657711 -0.0727043 -2.08285e-20)
(0.623374 0.0302329 -1.08955e-20)
(0.615952 0.163315 -8.42457e-21)
(0.719858 0.282884 -9.16809e-20)
(0.939456 0.302035 -2.60769e-20)
(1.12789 0.223693 7.80414e-20)
(1.21803 0.112917 6.73992e-20)
(1.22474 0.0172534 1.25882e-19)
(1.19976 -0.0488363 -3.30011e-20)
(1.15408 -0.0942603 1.0203e-19)
(1.11406 -0.113004 6.86674e-20)
(1.07034 -0.131279 -1.19882e-20)
(1.03409 -0.123484 3.8744e-20)
(-0.0716507 0.281196 1.07663e-18)
(0.0319977 0.275869 2.53781e-19)
(0.251184 0.137434 1.94242e-19)
(0.610431 -0.133537 -2.0367e-18)
(0.847239 -0.340882 -4.32106e-18)
(0.934515 -0.448639 -1.62921e-20)
(0.935516 -0.469776 1.77651e-18)
(0.894279 -0.441689 -4.17238e-19)
(0.841146 -0.38418 5.44417e-19)
(0.790011 -0.311957 2.60471e-20)
(0.747865 -0.231984 -1.15851e-19)
(0.716885 -0.148546 -6.68241e-20)
(0.691825 -0.0611055 2.23244e-20)
(0.669227 0.0402775 -1.37563e-20)
(0.682482 0.161035 -7.92873e-20)
(0.799161 0.261341 -3.84737e-21)
(0.989719 0.272071 -1.50723e-21)
(1.13646 0.202846 -2.25277e-20)
(1.20308 0.10748 -1.03963e-19)
(1.20554 0.023279 -2.10861e-20)
(1.18362 -0.0369314 -5.95623e-20)
(1.1436 -0.0795396 2.27054e-20)
(1.10827 -0.098809 -9.81578e-20)
(1.06815 -0.116597 -6.97082e-20)
(1.03549 -0.110355 1.74249e-21)
(-0.0740062 0.271994 -1.17258e-18)
(0.0337523 0.262864 1.69274e-18)
(0.276159 0.125456 4.91812e-19)
(0.652549 -0.138884 1.17174e-18)
(0.885972 -0.335383 2.05953e-18)
(0.967007 -0.435942 -7.7993e-19)
(0.962905 -0.453672 -1.1067e-18)
(0.918669 -0.42518 6.17116e-19)
(0.864357 -0.368856 -6.03507e-19)
(0.813315 -0.29871 -2.10185e-19)
(0.772168 -0.221109 1.15139e-20)
(0.742908 -0.139623 5.42779e-20)
(0.722733 -0.0529597 -2.54073e-20)
(0.712592 0.045847 4.20574e-20)
(0.744465 0.155752 -9.24112e-21)
(0.86031 0.239236 7.24581e-20)
(1.01758 0.243978 -4.57352e-20)
(1.13179 0.183632 1.07779e-20)
(1.18365 0.101744 -5.39956e-20)
(1.18566 0.0276552 4.50101e-20)
(1.16775 -0.0270478 7.74296e-20)
(1.13319 -0.0667932 5.77262e-20)
(1.10241 -0.0860915 6.18337e-20)
(1.06562 -0.103347 7.12568e-20)
(1.03659 -0.0982707 -2.55779e-20)
(-0.0765625 0.262595 2.71132e-18)
(0.0350402 0.248457 9.4999e-19)
(0.303589 0.113279 1.84989e-19)
(0.694675 -0.143744 3.99427e-18)
(0.923107 -0.329085 7.89562e-19)
(0.997443 -0.4227 -1.0141e-18)
(0.988297 -0.43734 -1.67178e-18)
(0.941255 -0.408726 -1.30228e-18)
(0.885926 -0.353808 -2.50748e-19)
(0.835035 -0.285935 -1.38366e-19)
(0.794838 -0.21092 3.30811e-20)
(0.767162 -0.131923 3.03617e-20)
(0.750959 -0.0476606 1.15493e-20)
(0.750979 0.0466851 -1.42309e-19)
(0.793932 0.145856 2.08914e-19)
(0.900003 0.215281 -6.70592e-21)
(1.02811 0.216973 3.90359e-20)
(1.1198 0.165481 1.54206e-20)
(1.16317 0.095536 7.49903e-20)
(1.16658 0.0305019 -1.06969e-19)
(1.15272 -0.0189646 -8.19918e-20)
(1.12315 -0.0558371 -1.30192e-19)
(1.09656 -0.0747415 -3.94195e-21)
(1.06294 -0.0914466 -3.30361e-20)
(1.03733 -0.0871941 5.01931e-21)
(-0.0793616 0.253056 -1.13053e-18)
(0.0361218 0.232618 -4.14386e-18)
(0.333734 0.101098 -2.16578e-18)
(0.736557 -0.148023 -4.67701e-18)
(0.95851 -0.32203 3.75867e-19)
(1.02578 -0.409005 -2.47855e-19)
(1.01171 -0.420869 -2.29585e-19)
(0.962086 -0.392393 1.07991e-18)
(0.905919 -0.339065 3.97187e-20)
(0.855256 -0.273619 -1.43544e-19)
(0.815967 -0.201367 -6.49326e-20)
(0.789783 -0.125233 -6.65258e-20)
(0.776844 -0.0444272 1.80933e-20)
(0.783609 0.0439351 6.87904e-20)
(0.830056 0.132292 2.30634e-20)
(0.92323 0.190468 -2.34245e-20)
(1.02886 0.191459 -3.25856e-20)
(1.10548 0.148445 9.05301e-21)
(1.14376 0.0890068 -2.85807e-20)
(1.14906 0.032085 6.57185e-20)
(1.13876 -0.0124257 7.81197e-20)
(1.11366 -0.0464664 5.23619e-20)
(1.09081 -0.0646511 -5.09643e-21)
(1.06025 -0.0807873 6.68486e-22)
(1.03769 -0.0771062 4.3453e-20)
(-0.0824448 0.243421 -2.55591e-19)
(0.0373865 0.215387 -2.49372e-18)
(0.366734 0.0890903 2.55602e-19)
(0.777924 -0.151632 2.88146e-18)
(0.992073 -0.314265 -1.21192e-18)
(1.05202 -0.394945 2.45384e-18)
(1.03319 -0.40434 -1.32394e-18)
(0.981228 -0.376237 -4.13134e-19)
(0.924411 -0.324653 5.62971e-19)
(0.874066 -0.261749 4.25873e-19)
(0.835659 -0.192392 1.17558e-20)
(0.81085 -0.119396 2.79661e-20)
(0.800501 -0.0426175 -1.16895e-20)
(0.810984 0.0390566 6.07807e-20)
(0.856239 0.117139 1.84929e-19)
(0.936981 0.166566 2.02687e-20)
(1.02575 0.168115 3.68571e-21)
(1.09165 0.132728 -9.0344e-21)
(1.12634 0.0823855 4.05544e-20)
(1.13334 0.0326875 -3.08242e-20)
(1.12595 -0.00718827 -5.0676e-20)
(1.1048 -0.0384794 3.51929e-20)
(1.08524 -0.0557147 -8.70967e-21)
(1.0576 -0.0712554 2.55661e-20)
(1.03767 -0.067984 7.3649e-21)
(-0.0858478 0.233721 4.25087e-18)
(0.0393634 0.196902 5.91062e-18)
(0.402581 0.0774056 1.83628e-18)
(0.818504 -0.154494 8.93411e-19)
(1.02371 -0.305847 3.05373e-18)
(1.07616 -0.380609 -1.17405e-19)
(1.05279 -0.387832 7.34018e-19)
(0.998757 -0.36031 -8.95383e-20)
(0.941487 -0.310589 -5.67907e-19)
(0.891553 -0.25031 -1.25849e-19)
(0.854018 -0.183939 -7.31888e-20)
(0.830439 -0.114264 1.3168e-19)
(0.822018 -0.0417688 3.42226e-22)
(0.834166 0.0332032 -1.35183e-20)
(0.876246 0.102118 -3.68489e-20)
(0.946182 0.144757 -1.72897e-20)
(1.02187 0.147267 2.35538e-21)
(1.07942 0.118425 -6.0516e-21)
(1.1111 0.0758552 -1.95271e-20)
(1.11937 0.0325536 7.29493e-21)
(1.11428 -0.00303887 8.8097e-20)
(1.09663 -0.0316886 7.28843e-21)
(1.07987 -0.0478297 2.26327e-20)
(1.05501 -0.0627437 -7.77667e-20)
(1.03735 -0.0597842 -3.39316e-20)
(-0.0895948 0.223963 -4.6043e-18)
(0.0427182 0.177427 -4.93177e-18)
(0.441116 0.0661527 -4.43013e-18)
(0.858031 -0.156548 -7.14339e-19)
(1.05336 -0.296839 -4.76032e-18)
(1.09825 -0.36608 -2.13385e-19)
(1.07059 -0.371413 -7.9012e-19)
(1.01476 -0.344654 2.9392e-20)
(0.957234 -0.29689 6.00272e-19)
(0.907807 -0.239288 1.85856e-20)
(0.871138 -0.17595 1.11613e-19)
(0.848636 -0.109699 -1.34308e-19)
(0.841564 -0.0415453 -1.0271e-20)
(0.854167 0.027093 2.17511e-20)
(0.892519 0.0881182 -7.06555e-20)
(0.953267 0.125407 2.75305e-20)
(1.01838 0.128864 3.70458e-21)
(1.06896 0.105502 1.49782e-20)
(1.09791 0.0695378 -1.93197e-20)
(1.10704 0.0318805 2.01325e-20)
(1.1037 0.000205319 -5.27467e-20)
(1.08914 -0.0259234 -6.67677e-20)
(1.07475 -0.0408989 -6.73598e-20)
(1.05251 -0.0551516 6.87261e-20)
(1.03679 -0.0524487 -5.78969e-20)
(-0.0936922 0.214132 2.86234e-18)
(0.0482279 0.157356 3.1494e-18)
(0.482034 0.0554029 2.17778e-19)
(0.896265 -0.157753 -5.83292e-19)
(1.08098 -0.287308 2.40402e-18)
(1.11833 -0.351437 1.64458e-18)
(1.08668 -0.355146 1.48435e-18)
(1.02933 -0.329308 3.15284e-19)
(0.971742 -0.283564 -2.73608e-19)
(0.922914 -0.228666 2.22523e-19)
(0.887107 -0.168375 -2.45132e-20)
(0.865536 -0.105577 1.00237e-19)
(0.859356 -0.0417002 -1.0981e-20)
(0.871716 0.0211153 8.60484e-21)
(0.90633 0.0754295 1.74364e-21)
(0.959234 0.108422 -1.21386e-20)
(1.01556 0.112682 2.57577e-20)
(1.06015 0.0938709 -1.25145e-20)
(1.08658 0.0635106 1.3347e-20)
(1.09618 0.0308243 -6.79443e-20)
(1.09418 0.00270033 -2.14197e-20)
(1.08233 -0.0210319 3.04479e-21)
(1.06987 -0.0348309 1.77734e-21)
(1.0501 -0.0483856 2.95739e-20)
(1.03609 -0.0459107 7.10003e-20)
(-0.0981222 0.20418 1.17705e-18)
(0.0567325 0.137209 -2.73342e-18)
(0.52491 0.0451997 1.92297e-18)
(0.932995 -0.158089 -9.04512e-19)
(1.10656 -0.277324 1.19737e-18)
(1.13648 -0.336755 -2.40239e-19)
(1.10114 -0.339085 -1.1371e-18)
(1.04256 -0.314301 4.83616e-20)
(0.985098 -0.270618 -5.64399e-20)
(0.936958 -0.218427 4.18976e-21)
(0.902004 -0.161166 1.19056e-19)
(0.881238 -0.101798 -9.21436e-20)
(0.875604 -0.0420555 3.18051e-20)
(0.887303 0.0154689 1.33481e-20)
(0.918344 0.064073 -1.50477e-20)
(0.964506 0.0935576 -1.29063e-20)
(1.01342 0.0984627 -1.29302e-20)
(1.0528 0.0834252 -3.00581e-21)
(1.07687 0.0578207 3.39951e-20)
(1.08663 0.0295071 3.40571e-20)
(1.08564 0.00457954 2.51954e-20)
(1.07615 -0.0168813 2.67752e-20)
(1.06525 -0.0295408 3.62617e-20)
(1.04782 -0.0423574 -1.39086e-20)
(1.03528 -0.0401001 -5.22742e-20)
(-0.102839 0.194033 -1.77236e-18)
(0.0690626 0.117602 6.33039e-19)
(0.569241 0.0355752 3.86945e-18)
(0.968054 -0.157556 3.60263e-18)
(1.13011 -0.266957 -1.85927e-18)
(1.15278 -0.3221 -1.34502e-18)
(1.11408 -0.323277 -8.67106e-20)
(1.05456 -0.299656 -2.21369e-19)
(0.99739 -0.258054 4.63298e-19)
(0.950016 -0.208553 4.18149e-20)
(0.915908 -0.154282 8.80631e-20)
(0.895834 -0.0982783 2.91296e-20)
(0.890486 -0.0424855 5.4278e-21)
(0.901271 0.0102529 8.94607e-22)
(0.928962 0.0539756 2.88853e-20)
(0.969292 0.0805561 3.40509e-20)
(1.01189 0.0859644 -1.11029e-22)
(1.04669 0.0740593 1.61718e-22)
(1.06858 0.0524945 -4.73159e-20)
(1.07824 0.0280238 -1.57802e-20)
(1.07802 0.00595681 -1.26026e-20)
(1.07055 -0.013357 -3.25789e-20)
(1.0609 -0.0249489 5.23745e-21)
(1.04568 -0.0369842 -8.76531e-21)
(1.03442 -0.0349487 -3.81399e-21)
(-0.107764 0.183587 -2.15158e-18)
(0.0859514 0.0991925 1.45471e-18)
(0.614477 0.0265672 -9.81718e-20)
(1.00132 -0.156174 -1.90391e-18)
(1.15166 -0.256275 1.39762e-18)
(1.16734 -0.307533 9.19127e-19)
(1.12561 -0.30776 -2.78048e-19)
(1.06541 -0.285392 -5.46728e-19)
(1.0087 -0.24587 -1.48531e-19)
(0.962161 -0.199026 -5.89775e-19)
(0.928887 -0.147684 -3.24659e-19)
(0.909409 -0.0949521 3.77614e-20)
(0.904154 -0.0429023 5.36787e-20)
(0.913875 0.00551269 1.6723e-20)
(0.938456 0.0450375 1.66023e-21)
(0.97371 0.0691825 -1.49869e-20)
(1.01088 0.0749742 -4.37371e-21)
(1.04165 0.0656725 -1.18428e-21)
(1.06151 0.0475433 3.57692e-20)
(1.07089 0.0264473 -9.97207e-21)
(1.07127 0.0069293 -5.43561e-21)
(1.06546 -0.0103615 3.36786e-20)
(1.05684 -0.0209802 -1.25043e-20)
(1.04369 -0.0321886 5.0587e-20)
(1.03352 -0.0303924 -3.61584e-20)
(-0.112789 0.172719 8.36888e-19)
(0.107943 0.0826024 -3.35893e-18)
(0.660066 0.018231 -3.68205e-18)
(1.0327 -0.153975 -2.34945e-18)
(1.17125 -0.245346 2.07644e-18)
(1.18025 -0.293107 -1.12035e-18)
(1.13584 -0.292566 1.27973e-18)
(1.07521 -0.27152 6.39717e-19)
(1.01911 -0.234063 -1.32603e-19)
(0.973462 -0.189828 8.60146e-20)
(0.941006 -0.141339 2.09224e-19)
(0.922041 -0.0917671 -1.91369e-20)
(0.916735 -0.0432454 -9.64691e-21)
(0.92531 0.00126319 3.72234e-21)
(0.947019 0.0371543 -5.09171e-21)
(0.977834 0.0592316 -8.24861e-21)
(1.01032 0.0653073 -1.30056e-20)
(1.03751 0.0581713 2.04481e-20)
(1.0555 0.0429689 -1.00905e-20)
(1.06446 0.0248332 -5.80291e-21)
(1.06529 0.00757985 3.58098e-20)
(1.06084 -0.00781273 -1.76905e-20)
(1.05309 -0.0175635 -4.96401e-20)
(1.04187 -0.0279001 -4.32976e-20)
(1.03259 -0.0263747 6.13893e-20)
(-0.117773 0.161297 1.00845e-19)
(0.135313 0.0683432 9.77091e-19)
(0.705472 0.0106425 1.16821e-18)
(1.06216 -0.151003 3.83383e-18)
(1.18896 -0.23423 -3.2563e-18)
(1.19162 -0.278868 8.50559e-19)
(1.14486 -0.277721 -7.84652e-19)
(1.08405 -0.258048 1.8087e-19)
(1.02869 -0.222625 -3.14388e-19)
(0.98398 -0.180942 -1.83255e-19)
(0.952324 -0.135219 -1.94591e-19)
(0.933799 -0.0886823 -6.40343e-20)
(0.928336 -0.0434735 5.89535e-20)
(0.935732 -0.00249899 -2.72831e-20)
(0.954798 0.0302259 -2.33659e-20)
(0.981711 0.0505265 2.03954e-20)
(1.01011 0.0568042 2.89681e-20)
(1.03415 0.0514703 -7.40706e-21)
(1.05039 0.0387661 4.44827e-21)
(1.05885 0.0232229 1.6233e-20)
(1.06003 0.00797888 -2.65233e-20)
(1.05664 -0.00564083 3.2515e-20)
(1.04966 -0.0146306 3.57645e-20)
(1.04018 -0.0240564 -4.66222e-20)
(1.03163 -0.0228451 -5.32343e-20)
(-0.122549 0.149198 9.8532e-19)
(0.168023 0.0567428 1.97632e-18)
(0.750203 0.00389072 -3.53408e-18)
(1.08968 -0.147308 -2.19339e-18)
(1.20485 -0.222985 1.59946e-18)
(1.20157 -0.264854 1.12328e-18)
(1.15278 -0.263242 1.15504e-18)
(1.09202 -0.244978 -5.72915e-19)
(1.03751 -0.211548 2.5352e-19)
(0.993771 -0.17235 1.1164e-19)
(0.962893 -0.129298 -3.55413e-20)
(0.944748 -0.0856655 -2.07166e-19)
(0.939049 -0.0435597 -2.08713e-19)
(0.945264 -0.00578821 -6.07325e-20)
(0.961905 0.0241593 5.34399e-20)
(0.985377 0.0429159 -8.27973e-22)
(1.01021 0.0493277 5.00478e-21)
(1.03144 0.0454919 1.57861e-20)
(1.04607 0.0349251 -1.57137e-22)
(1.05397 0.0216463 2.08184e-20)
(1.0554 0.00818645 -3.01787e-20)
(1.05282 -0.00378639 2.07206e-20)
(1.04655 -0.0121184 7.29566e-20)
(1.03861 -0.0206024 4.64136e-20)
(1.03065 -0.0197518 1.82568e-21)
(-0.126918 0.13633 -2.72335e-18)
(0.205711 0.0479002 -1.79024e-18)
(0.793816 -0.00193606 2.13837e-18)
(1.11529 -0.142949 -1.72062e-18)
(1.21901 -0.211663 8.37075e-19)
(1.21019 -0.251097 -2.06609e-18)
(1.1597 -0.249142 -1.24181e-18)
(1.09919 -0.232309 -1.92793e-20)
(1.04562 -0.200822 2.48191e-19)
(1.00289 -0.164036 -9.1773e-20)
(0.972764 -0.123554 2.25757e-19)
(0.954943 -0.0826917 1.04727e-19)
(0.948956 -0.0434874 1.45634e-19)