0.05 	0.00025 	0.005 	0.00316395
0.05 	0.00075 	0.005 	0.0031668
0.05 	0.00125 	0.005 	0.00316885
0.05 	0.00175 	0.005 	0.00317046
0.05 	0.00225 	0.005 	0.0031718
0.05 	0.00275 	0.005 	0.00317285
0.05 	0.00325 	0.005 	0.00317357
0.05 	0.00375 	0.005 	0.00317398
0.05 	0.00425 	0.005 	0.00317406
0.05 	0.00475 	0.005 	0.0031738
0.05 	0.00525 	0.005 	0.0031732
0.05 	0.00575 	0.005 	0.00317226
0.05 	0.00625 	0.005 	0.00317096
0.05 	0.00675 	0.005 	0.0031693
0.05 	0.00725 	0.005 	0.00316727
0.05 	0.00775 	0.005 	0.00316487
0.05 	0.00825 	0.005 	0.00316209
0.05 	0.00875 	0.005 	0.00315892
0.05 	0.00925 	0.005 	0.00315536
0.05 	0.00975 	0.005 	0.0031514
0.05 	0.01025 	0.005 	0.00314703
0.05 	0.01075 	0.005 	0.00314226
0.05 	0.01125 	0.005 	0.00313707
0.05 	0.01175 	0.005 	0.00313146
0.05 	0.01225 	0.005 	0.00312543
0.05 	0.01275 	0.005 	0.00311896
0.05 	0.01325 	0.005 	0.00311206
0.05 	0.01375 	0.005 	0.00310471
0.05 	0.01425 	0.005 	0.00309691
0.05 	0.01475 	0.005 	0.00308865
0.05 	0.01525 	0.005 	0.00307992
0.05 	0.01575 	0.005 	0.00307072
0.05 	0.01625 	0.005 	0.00306102
0.05 	0.01675 	0.005 	0.00305083
0.05 	0.01725 	0.005 	0.00304014
0.05 	0.01775 	0.005 	0.00302892
0.05 	0.01825 	0.005 	0.00301717
0.05 	0.01875 	0.005 	0.00300488
0.05 	0.01925 	0.005 	0.00299202
0.05 	0.01975 	0.005 	0.00297859
0.05 	0.02025 	0.005 	0.00296456
0.05 	0.02075 	0.005 	0.00294993
0.05 	0.02125 	0.005 	0.00293466
0.05 	0.02175 	0.005 	0.00291875
0.05 	0.02225 	0.005 	0.00290217
0.05 	0.02275 	0.005 	0.0028849
0.05 	0.02325 	0.005 	0.00286691
0.05 	0.02375 	0.005 	0.00284819
0.05 	0.02425 	0.005 	0.0028287
0.05 	0.02475 	0.005 	0.00280843
0.05 	0.02525 	0.005 	0.00278734
0.05 	0.02575 	0.005 	0.00276541
0.05 	0.02625 	0.005 	0.00274261
0.05 	0.02675 	0.005 	0.0027189
0.05 	0.02725 	0.005 	0.00269425
0.05 	0.02775 	0.005 	0.00266864
0.05 	0.02825 	0.005 	0.00264201
0.05 	0.02875 	0.005 	0.00261435
0.05 	0.02925 	0.005 	0.00258561
0.05 	0.02975 	0.005 	0.00255576
0.05 	0.03025 	0.005 	0.00252474
0.05 	0.03075 	0.005 	0.00249253
0.05 	0.03125 	0.005 	0.00245907
0.05 	0.03175 	0.005 	0.00242433
0.05 	0.03225 	0.005 	0.00238826
0.05 	0.03275 	0.005 	0.0023508
0.05 	0.03325 	0.005 	0.00231192
0.05 	0.03375 	0.005 	0.00227155
0.05 	0.03425 	0.005 	0.00222965
0.05 	0.03475 	0.005 	0.00218616
0.05 	0.03525 	0.005 	0.00214103
0.05 	0.03575 	0.005 	0.0020942
0.05 	0.03625 	0.005 	0.00204561
0.05 	0.03675 	0.005 	0.00199519
0.05 	0.03725 	0.005 	0.00194289
0.05 	0.03775 	0.005 	0.00188864
0.05 	0.03825 	0.005 	0.00183237
0.05 	0.03875 	0.005 	0.00177401
0.05 	0.03925 	0.005 	0.0017135
0.05 	0.03975 	0.005 	0.00165075
0.05 	0.04025 	0.005 	0.0015857
0.05 	0.04075 	0.005 	0.00151826
0.05 	0.04125 	0.005 	0.00144836
0.05 	0.04175 	0.005 	0.00137593
0.05 	0.04225 	0.005 	0.00130086
0.05 	0.04275 	0.005 	0.00122309
0.05 	0.04325 	0.005 	0.00114252
0.05 	0.04375 	0.005 	0.00105907
0.05 	0.04425 	0.005 	0.000972635
0.05 	0.04475 	0.005 	0.000883135
0.05 	0.04525 	0.005 	0.000790472
0.05 	0.04575 	0.005 	0.000694549
0.05 	0.04625 	0.005 	0.000595267
0.05 	0.04675 	0.005 	0.000492528
0.05 	0.04725 	0.005 	0.00038623
0.05 	0.04775 	0.005 	0.00027627
0.05 	0.04825 	0.005 	0.000162542
0.05 	0.04875 	0.005 	4.49423e-05
0.05 	0.04925 	0.005 	-7.6638e-05
0.05 	0.04975 	0.005 	-0.000202307
0.05 	0.05025 	0.005 	-0.000332175
0.05 	0.05075 	0.005 	-0.00046635
0.05 	0.05125 	0.005 	-0.000604945
0.05 	0.05175 	0.005 	-0.000748069
0.05 	0.05225 	0.005 	-0.000895833
0.05 	0.05275 	0.005 	-0.00104835
0.05 	0.05325 	0.005 	-0.00120573
0.05 	0.05375 	0.005 	-0.00136808
0.05 	0.05425 	0.005 	-0.00153551
0.05 	0.05475 	0.005 	-0.00170813
0.05 	0.05525 	0.005 	-0.00188606
0.05 	0.05575 	0.005 	-0.00206938
0.05 	0.05625 	0.005 	-0.00225821
0.05 	0.05675 	0.005 	-0.00245264
0.05 	0.05725 	0.005 	-0.00265278
0.05 	0.05775 	0.005 	-0.00285871
0.05 	0.05825 	0.005 	-0.00307053
0.05 	0.05875 	0.005 	-0.00328832
0.05 	0.05925 	0.005 	-0.00351217
0.05 	0.05975 	0.005 	-0.00374214
0.05 	0.06025 	0.005 	-0.00397832
0.05 	0.06075 	0.005 	-0.00422076
0.05 	0.06125 	0.005 	-0.00446952
0.05 	0.06175 	0.005 	-0.00472465
0.05 	0.06225 	0.005 	-0.0049862
0.05 	0.06275 	0.005 	-0.0052542
0.05 	0.06325 	0.005 	-0.00552867
0.05 	0.06375 	0.005 	-0.00580963
0.05 	0.06425 	0.005 	-0.00609709
0.05 	0.06475 	0.005 	-0.00639103
0.05 	0.06525 	0.005 	-0.00669144
0.05 	0.06575 	0.005 	-0.00699829
0.05 	0.06625 	0.005 	-0.00731154
0.05 	0.06675 	0.005 	-0.00763113
0.05 	0.06725 	0.005 	-0.00795699
0.05 	0.06775 	0.005 	-0.00828904
0.05 	0.06825 	0.005 	-0.00862717
0.05 	0.06875 	0.005 	-0.00897127
0.05 	0.06925 	0.005 	-0.0093212
0.05 	0.06975 	0.005 	-0.00967681
0.05 	0.07025 	0.005 	-0.0100379
0.05 	0.07075 	0.005 	-0.0104044
0.05 	0.07125 	0.005 	-0.0107759
0.05 	0.07175 	0.005 	-0.0111523
0.05 	0.07225 	0.005 	-0.0115334
0.05 	0.07275 	0.005 	-0.0119188
0.05 	0.07325 	0.005 	-0.0123082
0.05 	0.07375 	0.005 	-0.0127013
0.05 	0.07425 	0.005 	-0.0130978
0.05 	0.07475 	0.005 	-0.0134973
0.05 	0.07525 	0.005 	-0.0138994
0.05 	0.07575 	0.005 	-0.0143036
0.05 	0.07625 	0.005 	-0.0147094
0.05 	0.07675 	0.005 	-0.0151165
0.05 	0.07725 	0.005 	-0.0155241
0.05 	0.07775 	0.005 	-0.0159318
0.05 	0.07825 	0.005 	-0.0163389
0.05 	0.07875 	0.005 	-0.0167447
0.05 	0.07925 	0.005 	-0.0171487
0.05 	0.07975 	0.005 	-0.01755
0.05 	0.08025 	0.005 	-0.0179479
0.05 	0.08075 	0.005 	-0.0183416
0.05 	0.08125 	0.005 	-0.0187301
0.05 	0.08175 	0.005 	-0.0191126
0.05 	0.08225 	0.005 	-0.0194881
0.05 	0.08275 	0.005 	-0.0198557
0.05 	0.08325 	0.005 	-0.0202141
0.05 	0.08375 	0.005 	-0.0205625
0.05 	0.08425 	0.005 	-0.0208995
0.05 	0.08475 	0.005 	-0.0212242
0.05 	0.08525 	0.005 	-0.0215352
0.05 	0.08575 	0.005 	-0.0218313
0.05 	0.08625 	0.005 	-0.0221114
0.05 	0.08675 	0.005 	-0.0223742
0.05 	0.08725 	0.005 	-0.0226186
0.05 	0.08775 	0.005 	-0.0228432
0.05 	0.08825 	0.005 	-0.0230472
0.05 	0.08875 	0.005 	-0.0232293
0.05 	0.08925 	0.005 	-0.0233887
0.05 	0.08975 	0.005 	-0.0235246
0.05 	0.09025 	0.005 	-0.0236362
0.05 	0.09075 	0.005 	-0.0237232
0.05 	0.09125 	0.005 	-0.0237853
0.05 	0.09175 	0.005 	-0.0238223
0.05 	0.09225 	0.005 	-0.0238346
0.05 	0.09275 	0.005 	-0.0238225
0.05 	0.09325 	0.005 	-0.0237867
0.05 	0.09375 	0.005 	-0.0237284
0.05 	0.09425 	0.005 	-0.0236487
0.05 	0.09475 	0.005 	-0.0235491
0.05 	0.09525 	0.005 	-0.0234314
0.05 	0.09575 	0.005 	-0.0232976
0.05 	0.09625 	0.005 	-0.0231495
0.05 	0.09675 	0.005 	-0.0229893
0.05 	0.09725 	0.005 	-0.022819
0.05 	0.09775 	0.005 	-0.0226403
0.05 	0.09825 	0.005 	-0.0224561
0.05 	0.09875 	0.005 	-0.0222699
0.05 	0.09925 	0.005 	-0.0220697
0.05 	0.09975 	0.005 	-0.0218282
