/*--------------------------------*- C++ -*----------------------------------*\
  =========                 |
  \\      /  F ield         | OpenFOAM: The Open Source CFD Toolbox
   \\    /   O peration     | Website:  https://openfoam.org
    \\  /    A nd           | Version:  7
     \\/     M anipulation  |
\*---------------------------------------------------------------------------*/
FoamFile
{
    version     2.0;
    format      ascii;
    class       volScalarField;
    location    "5.5";
    object      rho;
}
// * * * * * * * * * * * * * * * * * * * * * * * * * * * * * * * * * * * * * //

dimensions      [1 -3 0 0 0 0 0];

internalField   nonuniform List<scalar> 
2413
(
0.981694
1.0215
1.06432
1.09859
1.12061
1.12374
1.04736
0.880491
0.938309
0.969262
1.00778
1.04018
1.06076
1.06518
1.02789
0.945058
0.909228
0.924709
0.946801
0.971595
0.994659
1.00728
0.999745
0.987183
0.891455
0.900246
0.90782
0.918065
0.932012
0.948556
0.961224
0.969015
0.876033
0.885416
0.889426
0.891758
0.895154
0.901528
0.911612
0.924698
0.873148
0.877923
0.8804
0.882422
0.881272
0.879545
0.881784
0.88696
0.892043
0.889603
0.887258
0.882271
0.87785
0.874326
0.872731
0.870593
0.936964
0.922822
0.912858
0.9039
0.893415
0.883569
0.873687
0.868538
0.969809
0.966321
0.957867
0.941033
0.926485
0.912353
0.897608
0.884649
0.959609
0.980166
0.989236
0.984283
0.974265
0.955088
0.936335
0.918811
0.941238
0.961828
0.981705
0.998921
1.00476
0.99874
0.986276
0.965788
0.93947
0.945481
0.961332
0.981349
1.00035
1.01448
1.01592
1.00847
0.955454
0.950797
0.953379
0.964066
0.981067
0.999764
1.01455
1.02383
0.986108
0.97414
0.965487
0.965422
0.969701
0.981703
0.997193
1.0116
1.02205
1.00805
0.994949
0.983934
0.977423
0.980407
0.985192
0.996061
0.43832
0.438561
0.438773
0.438956
0.439105
0.439222
0.439299
0.439348
0.437195
0.437404
0.437587
0.437742
0.437868
0.437965
0.438028
0.438069
0.435859
0.435993
0.436109
0.436206
0.436283
0.43634
0.436376
0.436401
0.433649
0.433778
0.433887
0.433976
0.434043
0.434093
0.434123
0.434142
0.430645
0.430734
0.430809
0.430871
0.430918
0.430954
0.430976
0.430991
0.427299
0.427355
0.4274
0.427437
0.427465
0.427486
0.427498
0.427508
0.423793
0.42383
0.423858
0.423881
0.423899
0.423912
0.423921
0.423927
0.419976
0.419997
0.420013
0.420025
0.420034
0.420043
0.420049
0.420053
0.415686
0.415698
0.415707
0.415714
0.415722
0.415729
0.415735
0.415738
0.410951
0.410956
0.410962
0.410968
0.410975
0.410982
0.410989
0.410992
0.405889
0.405889
0.405891
0.405895
0.405901
0.405908
0.405915
0.405919
0.400676
0.40067
0.400666
0.400666
0.400668
0.400672
0.400678
0.400681
0.395481
0.395473
0.395467
0.395463
0.395461
0.39546
0.395462
0.395461
0.390489
0.39048
0.390474
0.390469
0.390464
0.39046
0.390458
0.390453
0.385904
0.385882
0.385869
0.385862
0.385856
0.385851
0.385849
0.385843
0.381896
0.381846
0.381812
0.381791
0.381781
0.381776
0.381775
0.381772
0.378483
0.378453
0.378404
0.378362
0.378333
0.378316
0.37831
0.378305
0.375492
0.375597
0.375625
0.375606
0.375567
0.375529
0.375506
0.375492
0.372976
0.373145
0.373321
0.373427
0.373457
0.373448
0.373427
0.373406
0.371978
0.371625
0.371641
0.371806
0.371981
0.372095
0.372147
0.372155
0.377482
0.372719
0.371427
0.371117
0.371145
0.371333
0.371528
0.371638
0.450237
0.40255
0.380142
0.373654
0.372095
0.372014
0.372111
0.372232
0.58223
0.525855
0.461503
0.410955
0.385491
0.3772
0.374707
0.374272
0.639317
0.620453
0.589558
0.542664
0.487898
0.444188
0.420915
0.411093
0.653956
0.654342
0.657853
0.659912
0.653658
0.635283
0.615022
0.598273
0.678466
0.694263
0.715102
0.737783
0.757247
0.768375
0.771145
0.771016
0.732897
0.753985
0.774131
0.792936
0.808267
0.81885
0.823834
0.828076
0.789036
0.803969
0.816247
0.827586
0.835757
0.842108
0.843512
0.847367
0.830263
0.83888
0.846207
0.851975
0.854439
0.854619
0.850791
0.853021
0.86023
0.864629
0.868254
0.869877
0.869726
0.869954
0.867516
0.870958
0.884178
0.886432
0.888217
0.889589
0.890682
0.892031
0.891646
0.893449
0.906446
0.909033
0.912227
0.915823
0.918962
0.921175
0.922067
0.923031
0.930652
0.934473
0.938537
0.94226
0.94509
0.946871
0.947755
0.948625
0.954721
0.958333
0.961702
0.964496
0.966668
0.968255
0.969373
0.970372
0.976532
0.979494
0.982196
0.984488
0.986425
0.988125
0.989531
0.990421
0.996568
0.999209
1.00183
1.00423
1.00619
1.00777
1.00885
1.00937
1.01582
1.01843
1.02104
1.02349
1.02545
1.02704
1.02805
1.02859
1.03466
1.03726
1.03981
1.04228
1.04439
1.04629
1.04763
1.04849
1.05271
1.0557
1.05863
1.06137
1.06369
1.06576
1.0673
1.06838
1.07035
1.0743
1.0779
1.08074
1.08269
1.08408
1.08509
1.08599
1.08461
1.08966
1.09392
1.09676
1.09807
1.09828
1.09807
1.09852
1.08631
1.09362
1.10088
1.10631
1.10842
1.10785
1.10657
1.10628
1.05799
1.06688
1.08038
1.09393
1.10318
1.10744
1.10812
1.10867
0.963351
0.974547
0.997775
1.03123
1.06454
1.08786
1.09812
1.10181
0.829804
0.840715
0.870281
0.921453
0.985738
1.0428
1.07393
1.08417
0.718566
0.727006
0.74935
0.798797
0.877522
0.969626
1.03604
1.06015
0.652653
0.656823
0.671665
0.705778
0.777458
0.88263
0.981012
1.0232
0.633602
0.636224
0.64262
0.660074
0.708862
0.805866
0.917713
0.974284
0.627086
0.627983
0.631384
0.638771
0.669922
0.749047
0.85622
0.919647
0.625141
0.625529
0.626129
0.62818
0.646078
0.712339
0.811101
0.87294
0.630127
0.632374
0.629147
0.62418
0.638653
0.694242
0.781141
0.835997
0.638903
0.649958
0.647156
0.643688
0.658097
0.70796
0.775222
0.816255
0.652812
0.676162
0.685829
0.695638
0.714061
0.756275
0.804219
0.831671
0.666949
0.699593
0.726213
0.750927
0.778605
0.81399
0.845947
0.863589
0.678528
0.706927
0.751911
0.791188
0.822743
0.850739
0.871507
0.880962
0.688639
0.702077
0.737555
0.777351
0.814064
0.839839
0.856872
0.863946
0.704329
0.707533
0.717013
0.739273
0.767268
0.78408
0.795823
0.801173
0.74579
0.719216
0.715038
0.718735
0.725566
0.736413
0.740625
0.743008
0.839524
0.774377
0.73563
0.722006
0.719055
0.719766
0.717444
0.7181
0.947277
0.881672
0.814752
0.771224
0.74626
0.739317
0.735606
0.738546
1.01767
0.989912
0.936251
0.87818
0.826074
0.79933
0.780894
0.79522
1.0401
1.04963
1.03838
1.00658
0.954105
0.905311
0.860277
0.866324
1.03707
1.06462
1.08532
1.09213
1.06837
1.02531
0.963116
0.954077
1.01991
1.05387
1.0912
1.12546
1.14294
1.13567
1.07454
1.05667
0.602541
0.568088
0.592125
0.611843
0.629061
0.644414
0.658295
0.670718
0.68178
0.691325
0.699466
0.706367
0.711868
0.716117
0.718958
0.720079
0.719338
0.716943
0.71273
0.706764
0.699285
0.690729
0.681535
0.672199
0.663389
0.655891
0.650349
0.646931
0.645602
0.645775
0.64668
0.648653
0.652102
0.656991
0.66264
0.668469
0.674015
0.678968
0.683161
0.686701
0.689711
0.69227
0.694466
0.696401
0.698196
0.699911
0.701457
0.702649
0.70335
0.703647
0.703841
0.704234
0.704865
0.70537
0.705433
0.705007
0.704231
0.703454
0.702769
0.701919
0.700521
0.698449
0.696207
0.694569
0.693705
0.693213
0.692653
0.691736
0.690415
0.688888
0.687407
0.686072
0.684825
0.683548
0.682122
0.680418
0.678318
0.675856
0.673542
0.672233
0.671957
0.672116
0.6723
0.672101
0.671009
0.668615
0.665321
0.662277
0.660108
0.658411
0.656466
0.653674
0.649898
0.645755
0.642103
0.639098
0.636182
0.632526
0.627192
0.619296
0.608572
0.596076
0.583752
0.573166
0.564647
0.557822
0.552403
0.548412
0.545888
0.544607
0.544091
0.543943
0.543927
0.54397
0.54413
0.544576
0.545443
0.546565
0.547932
0.874732
0.870685
0.874801
0.874448
0.874318
0.872938
0.87079
0.867725
0.863888
0.859292
0.854078
0.848372
0.842119
0.835379
0.828084
0.820042
0.81113
0.801341
0.790605
0.778896
0.766288
0.753057
0.739775
0.727054
0.715013
0.70384
0.693871
0.685207
0.677781
0.671561
0.667123
0.664565
0.663194
0.663043
0.664644
0.668258
0.673131
0.67784
0.681888
0.68511
0.687545
0.68939
0.690896
0.692312
0.693809
0.695431
0.697047
0.698298
0.698956
0.699094
0.698999
0.698987
0.699191
0.699411
0.699374
0.698971
0.698246
0.697455
0.696742
0.695979
0.694853
0.693125
0.690943
0.68886
0.687311
0.686235
0.685299
0.684192
0.68277
0.681103
0.67938
0.677739
0.676195
0.67467
0.673064
0.67126
0.669144
0.666688
0.66414
0.662066
0.660876
0.660386
0.660146
0.659734
0.65871
0.656733
0.653932
0.651072
0.648847
0.647164
0.645475
0.643252
0.640268
0.636848
0.633672
0.631044
0.628635
0.625805
0.62182
0.615964
0.607828
0.597755
0.586937
0.576757
0.567966
0.560618
0.554565
0.549761
0.546243
0.543859
0.542297
0.541234
0.540454
0.539873
0.539511
0.539387
0.539425
0.539797
0.540601
0.981004
0.978568
0.97355
0.966491
0.958862
0.950552
0.94218
0.9337
0.925197
0.916711
0.908156
0.899556
0.890852
0.882133
0.873323
0.86426
0.855008
0.845767
0.836524
0.827123
0.817479
0.807529
0.797178
0.786434
0.775462
0.76431
0.752987
0.741709
0.730484
0.719231
0.708143
0.697872
0.688742
0.680784
0.676037
0.674532
0.673973
0.674614
0.67618
0.677905
0.679478
0.680923
0.681957
0.683001
0.684226
0.685613
0.686479
0.686685
0.686318
0.685532
0.684544
0.68364
0.683014
0.682533
0.681929
0.681073
0.680051
0.679074
0.678333
0.677783
0.677117
0.676029
0.674407
0.67241
0.670377
0.668582
0.667051
0.665622
0.664107
0.662404
0.660533
0.658598
0.656705
0.654888
0.653111
0.651296
0.649354
0.647212
0.644857
0.642402
0.640077
0.638091
0.63647
0.635052
0.633567
0.631749
0.62945
0.626772
0.624033
0.621501
0.619162
0.61679
0.614144
0.611158
0.608016
0.605032
0.602367
0.599908
0.597349
0.594327
0.590489
0.585573
0.57971
0.573297
0.566821
0.560655
0.554987
0.549886
0.545405
0.541558
0.538349
0.535702
0.53351
0.531692
0.530188
0.528922
0.527826
0.526931
0.526342
0.973495
0.973371
0.972101
0.97031
0.96826
0.965876
0.9633
0.960621
0.95791
0.954729
0.951227
0.947222
0.942798
0.938117
0.933244
0.92817
0.922834
0.917367
0.911839
0.906078
0.899972
0.893471
0.886592
0.879243
0.871486
0.863249
0.854369
0.844813
0.834557
0.823408
0.811167
0.79773
0.783523
0.768818
0.754156
0.740355
0.728004
0.717614
0.709336
0.703041
0.698128
0.694445
0.691612
0.689269
0.687189
0.685397
0.683494
0.681276
0.678774
0.67614
0.673753
0.671924
0.670437
0.669125
0.667784
0.666284
0.664668
0.663171
0.661873
0.660595
0.659152
0.657388
0.65522
0.652721
0.650062
0.647434
0.644904
0.64251
0.64022
0.637924
0.6355
0.632904
0.630209
0.62754
0.624998
0.62263
0.620395
0.6182
0.615981
0.613696
0.611301
0.608769
0.606136
0.603486
0.600884
0.598323
0.595728
0.593016
0.590173
0.587256
0.584351
0.581504
0.578679
0.575788
0.572763
0.569604
0.566375
0.563169
0.560057
0.557075
0.554203
0.551367
0.548466
0.545418
0.542202
0.538859
0.535452
0.532047
0.528671
0.525385
0.522255
0.519335
0.516658
0.51424
0.512075
0.51013
0.50836
0.506724
0.505216
0.93278
0.935486
0.938014
0.940049
0.941806
0.943076
0.943925
0.944407
0.944696
0.944884
0.944938
0.944837
0.944749
0.94465
0.943666
0.942238
0.941741
0.94103
0.939262
0.937232
0.934655
0.931689
0.9286
0.924923
0.920923
0.916525
0.911613
0.906262
0.900656
0.894821
0.888403
0.880749
0.871537
0.860752
0.848401
0.834577
0.819853
0.80483
0.789999
0.775702
0.762149
0.749548
0.738151
0.727956
0.718812
0.710664
0.703391
0.696652
0.690195
0.68405
0.678349
0.673246
0.668818
0.664994
0.661554
0.658317
0.655082
0.65183
0.648944
0.646307
0.643796
0.641318
0.63875
0.636019
0.633127
0.63001
0.626747
0.623472
0.620318
0.617334
0.614462
0.611632
0.60874
0.605674
0.60239
0.599091
0.595994
0.593189
0.590658
0.588303
0.585952
0.583414
0.58062
0.577624
0.57458
0.571627
0.568777
0.565932
0.563
0.559936
0.556762
0.553639
0.550664
0.547815
0.545048
0.542323
0.539548
0.536629
0.533598
0.530536
0.527525
0.524621
0.521837
0.519146
0.516521
0.513954
0.511448
0.509005
0.506639
0.504357
0.50215
0.499999
0.49791
0.495913
0.49403
0.492275
0.490662
0.489175
0.487763
0.48637
0.889767
0.891328
0.893217
0.895302
0.897646
0.900184
0.902872
0.90566
0.908502
0.911333
0.914074
0.916592
0.918752
0.920774
0.922669
0.924174
0.925358
0.9263
0.926972
0.927327
0.927497
0.927481
0.926882
0.926019
0.925575
0.924944
0.922928
0.920693
0.919611
0.919127
0.917158
0.913669
0.909376
0.904982
0.900236
0.89484
0.888578
0.881233
0.872478
0.862186
0.850661
0.838516
0.82648
0.814793
0.803133
0.791403
0.779526
0.767477
0.755407
0.743658
0.732799
0.723003
0.714057
0.705579
0.697508
0.689709
0.682
0.674434
0.66741
0.660946
0.654872
0.64898
0.643479
0.63834
0.633518
0.62896
0.624626
0.620327
0.615873
0.611252
0.606718
0.602624
0.599159
0.596211
0.593433
0.590363
0.5867
0.58258
0.578351
0.574705
0.572026
0.569751
0.567292
0.564386
0.560822
0.556817
0.553179
0.550272
0.547714
0.545157
0.542394
0.539168
0.535487
0.531769
0.528365
0.52534
0.522595
0.519982
0.517387
0.51475
0.512033
0.509223
0.506383
0.503647
0.501117
0.498782
0.496559
0.494334
0.492015
0.489659
0.487467
0.485598
0.484051
0.482701
0.48134
0.479846
0.478273
0.476721
0.475261
0.473941
0.8684
0.867958
0.867836
0.867919
0.868166
0.868647
0.869388
0.870383
0.871623
0.87307
0.874649
0.8764
0.878396
0.880625
0.883096
0.885775
0.888482
0.891107
0.893603
0.895916
0.898003
0.89989
0.901525
0.90276
0.903842
0.904792
0.905418
0.905733
0.905683
0.905303
0.904975
0.905019
0.904317
0.902079
0.899497
0.897624
0.89689
0.896404
0.893716
0.889389
0.884907
0.881144
0.876822
0.871834
0.86614
0.859551
0.851852
0.842971
0.833228
0.823338
0.813667
0.804048
0.794165
0.783702
0.772637
0.761192
0.749676
0.738596
0.728275
0.718721
0.709706
0.700829
0.691873
0.682873
0.674219
0.666899
0.660993
0.655674
0.650394
0.644697
0.63804
0.630622
0.622978
0.616433
0.613162
0.61036
0.606597
0.602367
0.596579
0.588843
0.582455
0.577146
0.573286
0.570147
0.566955
0.564026
0.560123
0.554728
0.548236
0.542457
0.539535
0.537691
0.535684
0.533294
0.529963
0.525599
0.520436
0.515987
0.513046
0.511024
0.509088
0.506747
0.503867
0.500839
0.498129
0.495877
0.494054
0.492537
0.490831
0.488573
0.48562
0.482645
0.480642
0.479476
0.478698
0.478054
0.477266
0.476019
0.474221
0.472145
0.865584
0.864344
0.863282
0.862223
0.861087
0.859884
0.858736
0.857705
0.856734
0.855847
0.855113
0.85453
0.854207
0.854127
0.854221
0.854576
0.855235
0.856113
0.857154
0.858341
0.859652
0.861116
0.862736
0.86446
0.866319
0.868303
0.870311
0.87231
0.874234
0.87606
0.877842
0.879406
0.88059
0.881579
0.882227
0.88218
0.881859
0.881352
0.880533
0.879253
0.877482
0.875426
0.873199
0.871042
0.869046
0.866797
0.864264
0.860889
0.856927
0.853199
0.850033
0.846444
0.842051
0.836978
0.831249
0.824868
0.818109
0.811273
0.804439
0.797552
0.790374
0.782723
0.774402
0.765321
0.755737
0.746582
0.738426
0.731018
0.723663
0.715809
0.707102
0.697298
0.686692
0.676702
0.668762
0.662266
0.656059
0.649791
0.64334
0.635817
0.626696
0.617472
0.610457
0.604509
0.599443
0.59669
0.594249
0.589558
0.583299
0.575005
0.565676
0.560354
0.55928
0.558354
0.556067
0.553386
0.549524
0.543965
0.53804
0.533444
0.530408
0.528108
0.526671
0.525434
0.522498
0.51834
0.513595
0.509859
0.509033
0.509052
0.507986
0.50635
0.50426
0.500848
0.495982
0.492455
0.490853
0.490029
0.489789
0.489567
0.876792
0.87377
0.871043
0.868413
0.865886
0.863631
0.861408
0.859246
0.857203
0.855297
0.85359
0.852219
0.851054
0.849715
0.848471
0.847317
0.846189
0.845158
0.844232
0.843455
0.842795
0.842203
0.84174
0.841491
0.841469
0.841593
0.841826
0.842198
0.84273
0.843428
0.84424
0.845101
0.84605
0.847063
0.848116
0.848957
0.849571
0.850116
0.850606
0.850889
0.851054
0.85122
0.851334
0.851371
0.851013
0.850104
0.848921
0.847555
0.846046
0.844302
0.842242
0.839979
0.837848
0.835971
0.834194
0.832131
0.829636
0.826918
0.824119
0.821242
0.818634
0.815556
0.81161
0.807428
0.802785
0.798028
0.793234
0.788434
0.783501
0.778142
0.772271
0.765879
0.758985
0.751753
0.744346
0.737079
0.730207
0.723654
0.717049
0.709762
0.701339
0.693376
0.686929
0.680872
0.674938
0.670045
0.665678
0.660459
0.653554
0.644298
0.63523
0.629507
0.625053
0.620652
0.616927
0.614013
0.610321
0.604514
0.596676
0.588822
0.584592
0.582615
0.581108
0.578731
0.575672
0.571451
0.564245
0.556381
0.553714
0.553638
0.553805
0.552266
0.550314
0.548061
0.544498
0.536739
0.528148
0.52592
0.525222
0.524815
0.907789
0.903915
0.900125
0.896405
0.892753
0.889116
0.885551
0.881884
0.878283
0.874661
0.871072
0.867376
0.863741
0.860438
0.857277
0.854304
0.85156
0.849076
0.847114
0.845254
0.843442
0.841855
0.840367
0.839106
0.837941
0.836759
0.835498
0.834183
0.832917
0.831715
0.830552
0.829463
0.828477
0.82762
0.826873
0.826196
0.825358
0.824657
0.824198
0.823806
0.823459
0.82325
0.823004
0.822853
0.82261
0.822273
0.8221
0.82193
0.821842
0.821836
0.821356
0.82092
0.820611
0.820224
0.819615
0.818898
0.818231
0.817476
0.816325
0.814652
0.812574
0.810227
0.807834
0.805857
0.804507
0.802939
0.800019
0.796459
0.792929
0.789449
0.785895
0.782452
0.779471
0.776535
0.772704
0.768666
0.764709
0.761053
0.757385
0.753196
0.748084
0.742901
0.738925
0.73524
0.731621
0.727921
0.72389
0.719209
0.713447
0.706805
0.701011
0.696131
0.691642
0.687734
0.684205
0.680527
0.676153
0.670049
0.662662
0.657583
0.654467
0.651855
0.64912
0.64609
0.642648
0.637962
0.630476
0.62397
0.621376
0.620043
0.619659
0.618362
0.616207
0.613398
0.608828
0.599864
0.591828
0.589401
0.588056
0.587503
0.953727
0.949474
0.944936
0.939953
0.93483
0.929607
0.924488
0.919632
0.91471
0.910005
0.905135
0.900566
0.895922
0.891277
0.886899
0.882491
0.878537
0.874648
0.871041
0.86772
0.864315
0.861096
0.857826
0.854524
0.851357
0.848187
0.845136
0.842362
0.839477
0.836848
0.834434
0.83197
0.829976
0.8281
0.826032
0.824148
0.822311
0.820344
0.818696
0.817075
0.815469
0.813983
0.812402
0.810821
0.809233
0.807724
0.806254
0.804911
0.803879
0.80302
0.801809
0.800703
0.799686
0.798728
0.797995
0.797347
0.796906
0.796643
0.796429
0.796072
0.795329
0.794293
0.793229
0.792209
0.791214
0.79067
0.790359
0.788755
0.786551
0.78428
0.781768
0.779167
0.776786
0.775207
0.774171
0.771963
0.769323
0.766718
0.764598
0.762115
0.758878
0.755222
0.751316
0.747742
0.744485
0.74187
0.739047
0.735773
0.732343
0.728472
0.724227
0.720519
0.717607
0.715509
0.713966
0.711604
0.70849
0.704217
0.699315
0.696352
0.694284
0.692773
0.69109
0.688836
0.686143
0.682445
0.677516
0.674075
0.672066
0.670677
0.6696
0.667925
0.665758
0.662854
0.65825
0.652403
0.64914
0.647285
0.645848
0.644741
1.00218
0.998943
0.994938
0.990108
0.98471
0.979273
0.974078
0.969015
0.964239
0.95937
0.954654
0.949433
0.944337
0.939113
0.933713
0.928821
0.923565
0.918459
0.913292
0.907693
0.902631
0.897273
0.892032
0.887555
0.882814
0.878598
0.874492
0.870033
0.865906
0.86184
0.857902
0.854241
0.850865
0.847766
0.84465
0.841359
0.837929
0.834463
0.831096
0.827804
0.824573
0.821482
0.818659
0.815967
0.813328
0.811012
0.808687
0.806394
0.804145
0.801831
0.799474
0.797195
0.795034
0.793113
0.791505
0.790174
0.789109
0.787873
0.786458
0.784876
0.783168
0.781818
0.780605
0.779569
0.778927
0.778627
0.777402
0.775666
0.773668
0.771725
0.769921
0.768137
0.766541
0.765515
0.764975
0.763529
0.761399
0.758933
0.755927
0.753126
0.750898
0.749468
0.74827
0.746035
0.743263
0.74017
0.737845
0.736253
0.735389
0.733579
0.73102
0.728218
0.725982
0.724444
0.723416
0.721704
0.719257
0.715905
0.712144
0.709685
0.707784
0.706416
0.705583
0.704023
0.701862
0.69911
0.695105
0.691737
0.689875
0.688632
0.687989
0.686775
0.685052
0.682554
0.679367
0.677716
0.67679
0.676109
0.67493
0.67346
1.02572
1.02406
1.02334
1.02218
1.01973
1.01765
1.01575
1.01333
1.01069
1.00781
1.00426
1.00001
0.995254
0.990366
0.985311
0.98028
0.975145
0.969903
0.964867
0.959253
0.953895
0.948419
0.942759
0.937752
0.932547
0.927637
0.922857
0.917894
0.913142
0.908401
0.903394
0.898245
0.892888
0.888016
0.883835
0.879551
0.875573
0.871507
0.867077
0.862191
0.856156
0.849295
0.844731
0.841247
0.837838
0.834821
0.832066
0.829041
0.825594
0.821229
0.815855
0.810937
0.807904
0.805819
0.803941
0.801929
0.799842
0.797503
0.794401
0.790433
0.7875
0.785741
0.784347
0.783045
0.781456
0.779554
0.777307
0.774891
0.772551
0.770096
0.767303
0.764879
0.763007
0.761281
0.759693
0.758126
0.756311
0.75426
0.75193
0.748997
0.745923
0.743863
0.742254
0.741164
0.740327
0.738926
0.737197
0.735079
0.733057
0.73132
0.72962
0.727983
0.726524
0.725354
0.72456
0.723609
0.722015
0.719837
0.71677
0.713762
0.711896
0.710485
0.709734
0.708961
0.707462
0.705565
0.702814
0.699875
0.69821
0.697067
0.696387
0.695376
0.693889
0.691678
0.689183
0.687939
0.687351
0.687304
0.686841
0.685875
1.01994
1.02407
1.028
1.02821
1.02895
1.03037
1.03041
1.03202
1.03341
1.03302
1.03283
1.03227
1.0308
1.02865
1.02561
1.02155
1.01822
1.01561
1.01293
1.00997
1.0065
1.00228
0.997232
0.990874
0.983761
0.978156
0.973897
0.969875
0.965795
0.961573
0.956689
0.950397
0.942792
0.936866
0.933245
0.929787
0.926452
0.922831
0.918641
0.912954
0.904462
0.897214
0.893275
0.88964
0.886025
0.882476
0.878855
0.874842
0.869464
0.861663
0.85433
0.850066
0.846925
0.843949
0.840941
0.837739
0.834081
0.829111
0.821808
0.816165
0.813324
0.810895
0.808455
0.805846
0.802813
0.798246
0.792598
0.789256
0.786946
0.784704
0.782438
0.780026
0.776788
0.772056
0.768861
0.767044
0.765479
0.763699
0.761656
0.759373
0.756389
0.752052
0.749137
0.747676
0.746999
0.746801
0.745737
0.744134
0.741828
0.738637
0.736069
0.734297
0.732793
0.731504
0.730445
0.72929
0.727754
0.725926
0.72382
0.721112
0.717117
0.714111
0.7125
0.711297
0.710294
0.708919
0.707407
0.70576
0.703665
0.701318
0.699884
0.698842
0.697894
0.696808
0.695482
0.694126
0.693406
0.693103
0.693072
0.692783
1.00447
1.00727
1.01133
1.01623
1.01884
1.0235
1.02654
1.02847
1.03049
1.0313
1.03346
1.03674
1.03973
1.04182
1.04227
1.04117
1.03941
1.03813
1.03785
1.03871
1.03885
1.03772
1.03557
1.03135
1.02608
1.0234
1.02136
1.01893
1.01609
1.01278
1.00847
1.0023
0.995628
0.990998
0.98728
0.983661
0.979928
0.975865
0.970969
0.964514
0.957365
0.951991
0.94786
0.943955
0.940006
0.935924
0.931547
0.926228
0.918741
0.910966
0.906756
0.903656
0.900565
0.897399
0.894022
0.889867
0.88332
0.875184
0.870236
0.86696
0.863829
0.860677
0.857325
0.853358
0.847246
0.839184
0.83456
0.831724
0.82912
0.826505
0.823728
0.820611
0.815878
0.808095
0.803075
0.800437
0.79798
0.795583
0.793173
0.790646
0.78765
0.782478
0.775566
0.772235
0.770341
0.769191
0.767926
0.765959
0.763719
0.760859
0.756418
0.751441
0.748884
0.747173
0.745758
0.744403
0.742768
0.740953
0.738971
0.736645
0.733044
0.727559
0.72455
0.723086
0.721969
)
;

boundaryField
{
    inlet
    {
        type            calculated;
        value           nonuniform 0();
    }
    outlet
    {
        type            calculated;
        value           nonuniform 0();
    }
    bottom
    {
        type            symmetryPlane;
    }
    top
    {
        type            symmetryPlane;
    }
    obstacle
    {
        type            calculated;
        value           nonuniform List<scalar> 
183
(
0.602541
0.568088
0.592125
0.611843
0.629061
0.644414
0.658295
0.670718
0.68178
0.691325
0.699466
0.706367
0.711868
0.716117
0.718958
0.720079
0.719338
0.716943
0.71273
0.706764
0.699285
0.690729
0.681535
0.672199
0.663389
0.655891
0.650349
0.646931
0.645602
0.645775
0.64668
0.648653
0.652102
0.656991
0.66264
0.668469
0.674015
0.678968
0.683161
0.686701
0.689711
0.69227
0.694466
0.696401
0.698196
0.699911
0.701457
0.702649
0.70335
0.703647
0.703841
0.704234
0.704865
0.70537
0.705433
0.705007
0.704231
0.703454
0.702769
0.701919
0.700521
0.698449
0.696207
0.694569
0.693705
0.693213
0.692653
0.691736
0.690415
0.688888
0.687407
0.686072
0.684825
0.683548
0.682122
0.680418
0.678318
0.675856
0.673542
0.672233
0.671957
0.672116
0.6723
0.672101
0.671009
0.668615
0.665321
0.662277
0.660108
0.658411
0.656466
0.653674
0.649898
0.645755
0.642103
0.639098
0.636182
0.632526
0.627192
0.619296
0.608572
0.596076
0.583752
0.573166
0.564647
0.557822
0.552403
0.548412
0.545888
0.544607
0.544091
0.543943
0.543927
0.54397
0.54413
0.544576
0.545443
0.546565
0.547932
0.439348
0.438069
0.436401
0.434142
0.430991
0.427508
0.423927
0.420053
0.415738
0.410992
0.405919
0.400681
0.395461
0.390453
0.385843
0.381772
0.378305
0.375492
0.373406
0.372155
0.371638
0.372232
0.374272
0.411093
0.598273
0.771016
0.828076
0.847367
0.853021
0.870958
0.893449
0.923031
0.948625
0.970372
0.990421
1.00937
1.02859
1.04849
1.06838
1.08599
1.09852
1.10628
1.10867
1.10181
1.08417
1.06015
1.0232
0.974284
0.919647
0.87294
0.835997
0.816255
0.831671
0.863589
0.880962
0.863946
0.801173
0.743008
0.7181
0.738546
0.79522
0.866324
0.954077
1.05667
)
;
    }
    front
    {
        type            empty;
    }
    back
    {
        type            empty;
    }
    procBoundary5to4
    {
        type            processor;
        value           nonuniform List<scalar> 
27
(
0.438051
0.436961
0.435706
0.433501
0.430545
0.427235
0.423749
0.419947
0.415669
0.410943
0.40589
0.400684
0.395492
0.390505
0.385943
0.381955
0.378467
0.375291
0.372975
0.372976
0.395183
0.515956
0.619664
0.651197
0.656782
0.671251
0.713718
)
;
    }
    procBoundary5to6
    {
        type            processor;
        value           nonuniform List<scalar> 
15
(
0.549535
0.541625
0.526117
0.503856
0.503856
0.484979
0.472756
0.470383
0.488941
0.524565
0.587292
0.643456
0.671507
0.684253
0.692127
)
;
    }
    procBoundary5to12
    {
        type            processor;
        value           nonuniform List<scalar> 
27
(
0.770974
0.820153
0.855081
0.881389
0.904458
0.92749
0.951081
0.973313
0.993835
1.01322
1.03197
1.04957
1.06608
1.079
1.07978
1.05176
0.95858
0.828258
0.717823
0.650812
0.630004
0.622712
0.617062
0.618046
0.627644
0.63911
0.652737
)
;
    }
    procBoundary5to13
    {
        type            processor;
        value           nonuniform List<scalar> 
129
(
1.05791
1.04412
1.03058
1.01698
1.00471
0.995762
0.990747
0.993017
0.721289
0.720459
0.719239
0.717767
0.715552
0.712243
0.710493
0.709744
0.709452
0.709271
0.708884
0.708247
0.707048
0.705154
0.704213
0.995869
0.997045
0.998495
1.00227
1.00449
1.00744
1.01199
1.01349
1.01699
1.02011
1.02172
1.02654
1.0289
1.03131
1.03572
1.03647
1.03773
1.04002
1.04044
1.04217
1.0445
1.04693
1.04924
1.04972
1.04835
1.04663
1.04638
1.04718
1.04679
1.04482
1.04277
1.0419
1.04033
1.03841
1.03625
1.03334
1.02965
1.02562
1.02137
1.01692
1.01248
1.00826
1.00401
0.999738
0.995413
0.990874
0.985888
0.980038
0.97368
0.968709
0.965005
0.961503
0.957912
0.954072
0.949379
0.942588
0.935758
0.931753
0.92852
0.92524
0.921787
0.918029
0.913337
0.906327
0.898963
0.894674
0.891459
0.888359
0.885279
0.882085
0.878546
0.873779
0.866155
0.8596
0.856212
0.853207
0.850141
0.846948
0.843695
0.840396
0.836675
0.83075
0.822778
0.818628
0.816114
0.814013
0.812134
0.80998
0.80753
0.804627
0.799885
0.792797
0.788627
0.786422
0.784648
0.783155
0.781329
0.779195
0.776798
0.77372
0.768301
0.76135
0.758045
0.756169
0.721289
0.754717
)
;
    }
    procBoundary5to20
    {
        type            processor;
        value           nonuniform List<scalar> 
25
(
0.949621
0.917837
0.897046
0.877427
0.862954
0.868921
0.899869
0.943423
0.955479
0.938501
0.928951
0.939182
0.966349
1.00008
1.03625
0.669355
0.687533
0.726875
0.811019
0.916513
0.993501
1.02182
1.02277
1.01216
0.986517
)
;
    }
}


// ************************************************************************* //
