/*--------------------------------*- C++ -*----------------------------------*\
  =========                 |
  \\      /  F ield         | OpenFOAM: The Open Source CFD Toolbox
   \\    /   O peration     | Website:  https://openfoam.org
    \\  /    A nd           | Version:  7
     \\/     M anipulation  |
\*---------------------------------------------------------------------------*/
FoamFile
{
    version     2.0;
    format      ascii;
    class       surfaceScalarField;
    location    "35";
    object      phi;
}
// * * * * * * * * * * * * * * * * * * * * * * * * * * * * * * * * * * * * * //

dimensions      [0 3 -1 0 0 0 0];

internalField   nonuniform List<scalar> 
38800
(
-0.00010112
0.000101119
7.09059e-10
0.000113158
-0.000214278
6.50964e-10
0.000452106
-0.000338948
-1.42716e-10
0.000944494
-0.000492387
-2.40106e-10
0.0015417
-0.000597202
-2.57471e-10
0.00224789
-0.000706192
-1.53743e-10
0.00305075
-0.000802861
-1.0943e-10
0.00394797
-0.000897216
-9.67832e-11
0.00493635
-0.000988383
-1.9365e-10
0.00601684
-0.00108049
-4.03108e-10
0.00719292
-0.00117608
-5.77734e-10
0.00844886
-0.00125594
-6.98522e-10
0.00983364
-0.00138478
-3.82806e-10
0.0112628
-0.00142913
6.26008e-10
-0.00161375
1.4596e-09
0.0128765
-9.8225e-05
0.000199344
0.00012139
-0.000433893
0.00046827
-0.000685828
0.000971322
-0.000995439
0.00158207
-0.00120795
0.00230487
-0.00142899
0.00312754
-0.00162553
0.00404805
-0.00181773
0.00506311
-0.00200345
0.00617488
-0.00219225
0.00738443
-0.00238563
0.00868193
-0.00255345
0.0101068
-0.0028096
0.0115889
-0.00291127
-0.00327661
0.0132518
-9.24504e-05
0.000291794
0.000137782
-0.000664126
0.000500392
-0.00104844
0.0010245
-0.00151954
0.00166186
-0.00184531
0.00241711
-0.00218425
0.00327825
-0.00248667
0.0042437
-0.00278317
0.00530991
-0.00306966
0.00648102
-0.00336336
0.00775382
-0.00365842
0.00912876
-0.00392839
0.0106277
-0.00430859
0.0122069
-0.00449039
-0.00502842
0.0139587
-8.38241e-05
0.000375618
0.00016219
-0.000910141
0.00054806
-0.00143431
0.00110306
-0.00207455
0.00177917
-0.00252141
0.00258124
-0.00298632
0.00349731
-0.00340274
0.00452616
-0.00381202
0.00566378
-0.00420729
0.0069163
-0.00461587
0.00827523
-0.00501736
0.009753
-0.00540615
0.0113497
-0.00590525
0.0130535
-0.00619425
-0.00689237
0.0149175
-7.23885e-05
0.000448007
0.000194403
-0.00117693
0.000610664
-0.00185057
0.00120561
-0.00266949
0.00193124
-0.00324704
0.00279235
-0.00384743
0.00377666
-0.00438706
0.00488296
-0.00491832
0.00610645
-0.00543077
0.00745435
-0.00596378
0.00891317
-0.00647619
0.0105056
-0.00699858
0.01221
-0.00760964
0.0140464
-0.00803069
-0.00887127
0.0160253
-5.81983e-05
0.000506205
0.000234144
-0.00146928
0.000687401
-0.00230382
0.00133031
-0.0033124
0.00211448
-0.00403122
0.00304418
-0.00477713
0.00410619
-0.00544908
0.00529868
-0.00611081
0.00661562
-0.00674771
0.00806377
-0.00741192
0.00962593
-0.00803835
0.0113305
-0.00870319
0.0131388
-0.00941792
0.015096
-0.0099879
-0.0109484
0.0171732
-4.13188e-05
0.000547524
0.000281074
-0.00179167
0.000777285
-0.00280004
0.00147493
-0.00401004
0.00232464
-0.00488093
0.00332937
-0.00578186
0.00447421
-0.00659392
0.00575587
-0.00739247
0.00716661
-0.00815845
0.00871079
-0.00895609
0.0103696
-0.00969713
0.0121711
-0.0105047
0.0140671
-0.0113139
0.0161175
-0.0120383
-0.0130928
0.0182619
-2.18121e-05
0.000569336
0.000334791
-0.00214827
0.000879159
-0.0033444
0.00163689
-0.00476777
0.00255683
-0.00580086
0.00363974
-0.00686477
0.00486802
-0.0078222
0.0062361
-0.00876056
0.00773404
-0.00965639
0.0093621
-0.0105842
0.0111019
-0.011437
0.0129758
-0.0123786
0.0149346
-0.0132727
0.0170413
-0.014145
-0.0152672
0.0192157
8.27558e-07
0.000568508
0.000394835
-0.00254228
0.000991705
-0.00394128
0.00181334
-0.00558941
0.00280575
-0.00679327
0.00396656
-0.00802558
0.0052745
-0.00913014
0.00672105
-0.0102071
0.0082936
-0.0112289
0.00998741
-0.012278
0.0117863
-0.0132359
0.013703
-0.0142953
0.0156951
-0.0152648
0.0178192
-0.0162692
-0.0174362
0.0199883
2.45268e-05
0.000543982
0.000460685
-0.00297844
0.00111347
-0.00459406
0.00200116
-0.0064771
0.00306582
-0.00785793
0.00430097
-0.00926073
0.00568083
-0.01051
0.00719355
-0.0117198
0.00882366
-0.012859
0.0105615
-0.0140158
0.0123942
-0.0150685
0.014324
-0.0162252
0.0163202
-0.017261
0.018427
-0.018376
-0.0195722
0.020563
5.11428e-05
0.000492839
0.000531774
-0.00345907
0.00124287
-0.00530516
0.00219707
-0.0074313
0.00333133
-0.00899219
0.00463426
-0.0105637
0.00607503
-0.0119508
0.0076385
-0.0132833
0.00930652
-0.0145271
0.0110657
-0.015775
0.0129067
-0.0169095
0.0148233
-0.0181418
0.0167983
-0.0192359
0.0188621
-0.0204398
-0.0216576
0.0209475
7.99429e-05
0.000412896
0.000607479
-0.0039866
0.00137823
-0.00607591
0.00239768
-0.00845075
0.00359663
-0.0101911
0.00495825
-0.0119253
0.00644652
-0.013439
0.00804359
-0.0148804
0.00972926
-0.0162127
0.0114882
-0.017534
0.0133148
-0.0187361
0.0151978
-0.0200248
0.0171329
-0.021171
0.0191382
-0.0224451
-0.0236846
0.0211653
0.00011077
0.000302126
0.00068713
-0.00456296
0.00151779
-0.00690657
0.00259958
-0.00953254
0.00385634
-0.0114479
0.0052656
-0.0133345
0.0067866
-0.01496
0.00839975
-0.0164935
0.010084
-0.0178969
0.0118241
-0.0192741
0.0136184
-0.0205304
0.015454
-0.0218604
0.0173376
-0.0230546
0.0192784
-0.0243859
-0.0256541
0.0212479
0.000143471
0.000158655
0.000770015
-0.00518951
0.00165973
-0.00779628
0.00279945
-0.0106723
0.00410549
-0.0127539
0.00555007
-0.0147791
0.00708865
-0.0164986
0.00870132
-0.0181062
0.0103675
-0.0195631
0.0120743
-0.0209809
0.0138239
-0.02228
0.0156046
-0.0236412
0.017432
-0.024882
0.0193094
-0.0262633
-0.0275694
0.0212247
0.000177885
-1.92297e-05
0.000855382
-0.005867
0.00180224
-0.00874314
0.00299408
-0.0118641
0.00433968
-0.0140995
0.00580671
-0.0162461
0.00734832
-0.0180402
0.00894582
-0.0197037
0.0105807
-0.021198
0.012244
-0.0226441
0.0139418
-0.0239778
0.0156657
-0.0253651
0.0174369
-0.0266532
0.0192562
-0.0280825
-0.0294365
0.0211232
0.000213842
-0.000233072
0.000942449
-0.00659561
0.00194349
-0.00974418
0.00318051
-0.0131011
0.00455521
-0.0154742
0.00603196
-0.0177229
0.00756336
-0.0195716
0.00913363
-0.0212739
0.0107278
-0.0227922
0.0123416
-0.024258
0.013985
-0.0256212
0.0156537
-0.0270339
0.0173721
-0.0283716
0.01914
-0.0298504
-0.0312613
0.0209649
0.00025116
-0.000484232
0.00103041
-0.00737486
0.00208171
-0.0107955
0.00335611
-0.0143755
0.00474917
-0.0168673
0.00622362
-0.0191973
0.00773349
-0.0210815
0.00926731
-0.0228078
0.0108147
-0.0243396
0.0123767
-0.02582
0.0139664
-0.0272109
0.0155837
-0.0286512
0.0172542
-0.030042
0.0189774
-0.0315737
-0.0330489
0.0207651
0.000289646
-0.000773878
0.00111843
-0.00820364
0.00221525
-0.0118923
0.0035186
-0.0156789
0.00491948
-0.0182682
0.00638082
-0.0206587
0.00786001
-0.0225607
0.00935102
-0.0242988
0.0108487
-0.0258372
0.0123591
-0.0273304
0.0138979
-0.0287496
0.0154686
-0.0302219
0.017096
-0.0316695
0.0187802
-0.0332579
-0.0348031
0.0205344
0.000329094
-0.00110297
0.00120568
-0.00908023
0.00234253
-0.0130291
0.00366613
-0.0170025
0.00506485
-0.0196669
0.0065038
-0.0220976
0.0079454
-0.0240023
0.00938983
-0.0257432
0.0108371
-0.0272846
0.012298
-0.0287913
0.0137897
-0.0302413
0.0153184
-0.0317506
0.0169074
-0.0332585
0.0185566
-0.0349071
-0.0365264
0.02028
0.000369288
-0.00147226
0.00129135
-0.0100023
0.00246216
-0.0142
0.00379729
-0.0183376
0.00518475
-0.0210544
0.00659372
-0.0235066
0.00799298
-0.0254016
0.00938915
-0.0271394
0.0107872
-0.0286826
0.0122016
-0.0302057
0.0136502
-0.0316899
0.0151409
-0.0332413
0.016695
-0.0348125
0.0183121
-0.0365243
-0.0382204
0.0200061
0.00041
-0.00188226
0.00137462
-0.0109669
0.00257294
-0.0153983
0.00391115
-0.0196758
0.00527934
-0.0224226
0.00665244
-0.0248797
0.00800648
-0.0267556
0.00935437
-0.0284873
0.0107054
-0.0300337
0.0120765
-0.0315768
0.0134858
-0.0330992
0.0149419
-0.0346975
0.0164636
-0.0363341
0.0180502
-0.038111
-0.0398858
0.0197156
0.000450992
-0.00233325
0.00145473
-0.0119707
0.00267386
-0.0166174
0.00400718
-0.0210091
0.0053493
-0.0237647
0.00668226
-0.0262127
0.00798977
-0.0280631
0.00929049
-0.029788
0.0105971
-0.0313403
0.0119283
-0.032908
0.0133014
-0.0344723
0.0147253
-0.0361214
0.0162162
-0.037825
0.0177733
-0.039668
-0.0415229
0.0194103
0.000492016
-0.00282527
0.00153096
-0.0130096
0.00276413
-0.0178506
0.00408524
-0.0223302
0.00539575
-0.0250752
0.00668576
-0.0275027
0.00794661
-0.029324
0.00920199
-0.0310434
0.010467
-0.0326053
0.0117611
-0.0342021
0.0131006
-0.0358118
0.0144939
-0.0375147
0.0159551
-0.0392862
0.0174827
-0.0411956
-0.0431312
0.0190911
0.000532819
-0.00335809
0.00160265
-0.0140794
0.00284318
-0.0190911
0.00414556
-0.0236326
0.00542013
-0.0263498
0.00666556
-0.0287481
0.00788052
-0.0305389
0.00909275
-0.0322556
0.0103188
-0.0338314
0.0115783
-0.0354616
0.0128861
-0.0371196
0.0142497
-0.0388783
0.0156815
-0.0407179
0.0171795
-0.0426936
-0.0447104
0.0187587
0.000573141
-0.00393123
0.0016692
-0.0151755
0.00291066
-0.0203326
0.00418863
-0.0249106
0.00542405
-0.0275852
0.00662429
-0.0299483
0.00779468
-0.0317093
0.00896603
-0.0334269
0.0101556
-0.0350209
0.0113823
-0.0366883
0.0126596
-0.0383968
0.0139941
-0.0402128
0.0153965
-0.0421204
0.0168644
-0.0441615
-0.0462597
0.0184137
0.000612721
-0.00454395
0.00173013
-0.0162929
0.00296641
-0.0215689
0.00421516
-0.0261593
0.00540922
-0.0287793
0.00656439
-0.0311035
0.00769188
-0.0328368
0.00882455
-0.0345596
0.00997954
-0.0361759
0.011175
-0.0378838
0.0124225
-0.0396443
0.0137279
-0.0415181
0.0151006
-0.0434932
0.0165377
-0.0455986
-0.0477783
0.0180562
0.000651297
-0.00519525
0.001785
-0.0174266
0.00301046
-0.0227943
0.00422603
-0.0273749
0.00537735
-0.0299306
0.00648813
-0.0322143
0.00757451
-0.0339232
0.0086705
-0.0356556
0.00979255
-0.037298
0.0109577
-0.039049
0.0121758
-0.0408624
0.0134518
-0.0427941
0.0147945
-0.0448359
0.0161997
-0.0470038
-0.0492654
0.0176868
0.000688613
-0.00588386
0.00183349
-0.0185715
0.00304298
-0.0240038
0.00422222
-0.0285541
0.00533012
-0.0310385
0.00639755
-0.0332817
0.00744461
-0.0349703
0.00850564
-0.0367166
0.00959597
-0.0383883
0.0107314
-0.0401844
0.0119201
-0.0420511
0.0131665
-0.0440405
0.0144785
-0.0461479
0.0158507
-0.0483759
-0.0507199
0.0173053
0.000724418
-0.00660828
0.00187537
-0.0197224
0.00306429
-0.0251927
0.00420477
-0.0296946
0.00526912
-0.0321028
0.00629445
-0.034307
0.0073039
-0.0359797
0.0083314
-0.0377441
0.00939088
-0.0394478
0.0104969
-0.0412904
0.011656
-0.0432103
0.0128723
-0.0452568
0.014153
-0.0474286
0.015491
-0.0497139
-0.0521408
0.0169119
0.00075847
-0.00736675
0.00191049
-0.0208744
0.00307479
-0.026357
0.00417472
-0.0307945
0.00519583
-0.0331239
0.0061804
-0.0352916
0.00715377
-0.0369531
0.00814888
-0.0387392
0.00917809
-0.040477
0.0102547
-0.042367
0.0113839
-0.0443395
0.0125696
-0.0464425
0.0138181
-0.0486771
0.0151214
-0.0510173
-0.0535273
0.0165078
0.000790548
-0.0081573
0.00193879
-0.0220227
0.00307503
-0.0274933
0.0041332
-0.0318527
0.00511167
-0.0341024
0.00605689
-0.0362368
0.00699555
-0.0378917
0.00795916
-0.0397028
0.00895844
-0.0414763
0.0100055
-0.0434141
0.0111044
-0.0454383
0.0122589
-0.0475971
0.0134742
-0.0498923
0.0147444
-0.0522875
-0.0548835
0.0161006
0.000820421
-0.00897772
0.00196024
-0.0231625
0.00306545
-0.0285985
0.00408106
-0.0328683
0.0050177
-0.035039
0.00592485
-0.037144
0.0068299
-0.0387968
0.00776261
-0.0406356
0.00873206
-0.0424457
0.00974932
-0.0444313
0.0108172
-0.0465062
0.01194
-0.0487199
0.0131209
-0.0510733
0.0143593
-0.0535258
-0.0561961
0.0156719
0.000847899
-0.00982562
0.00197493
-0.0242895
0.00304666
-0.0296702
0.00401934
-0.033841
0.00491507
-0.0359348
0.00578538
-0.0380143
0.00665777
-0.0396692
0.00755998
-0.0415378
0.00849954
-0.0433853
0.00948658
-0.0454184
0.010523
-0.0475426
0.0116132
-0.0498101
0.0127593
-0.0522194
0.0139634
-0.0547299
-0.0574663
0.0152336
0.000872802
-0.0106984
0.00198299
-0.0253997
0.00301925
-0.0307065
0.00394893
-0.0347707
0.00480476
-0.0367906
0.00563933
-0.0388489
0.00647979
-0.0405096
0.00735171
-0.0424097
0.00826122
-0.0442948
0.00921757
-0.0463747
0.0102219
-0.0485469
0.0112788
-0.050867
0.0123895
-0.05333
0.0135579
-0.0558983
-0.0586951
0.0147866
0.00089497
-0.0115934
0.0019846
-0.0264894
0.00298382
-0.0317057
0.00387066
-0.0356575
0.00468762
-0.0376076
0.00548742
-0.0396487
0.0062965
-0.0413187
0.00713821
-0.0432514
0.00801739
-0.045174
0.00894254
-0.0472999
0.00991416
-0.0495185
0.0109371
-0.0518899
0.0120116
-0.0544045
0.013143
-0.0570297
-0.0598824
0.0143303
0.000914268
-0.0125077
0.00197997
-0.0275551
0.00294094
-0.0326667
0.00378529
-0.0365019
0.00456439
-0.0383867
0.00533025
-0.0404145
0.00610834
-0.0420968
0.00691979
-0.0440628
0.0077683
-0.0460225
0.00866171
-0.0481933
0.00960004
-0.0504569
0.0105882
-0.0528781
0.0116259
-0.0554423
0.0127192
-0.0581231
-0.0610282
0.013865
0.000930584
-0.0134382
0.00196934
-0.0285938
0.00289118
-0.0335885
0.00369353
-0.0373042
0.00443572
-0.0391289
0.00516834
-0.0411471
0.00591571
-0.0428442
0.00669673
-0.0448439
0.00751418
-0.0468399
0.0083753
-0.0490544
0.00927974
-0.0513613
0.0102324
-0.0538307
0.0112327
-0.0564426
0.012287
-0.0591773
-0.0621322
0.0133909
0.00094383
-0.0143821
0.00195298
-0.029603
0.00283508
-0.0344706
0.003596
-0.0380651
0.00430219
-0.0398351
0.00500213
-0.0418471
0.00571891
-0.0435609
0.00646928
-0.0455942
0.00725526
-0.0476259
0.00808353
-0.0498827
0.00895348
-0.0522313
0.00986999
-0.0547472
0.0108322
-0.0574048
0.0118466
-0.0601917
-0.0631938
0.0129082
0.000953947
-0.015336
0.00193117
-0.0305802
0.00277314
-0.0353126
0.00349329
-0.0387853
0.00416429
-0.040506
0.004832
-0.0425148
0.00551822
-0.0442472
0.00623767
-0.0463137
0.00699173
-0.0483799
0.0077866
-0.0506775
0.0086215
-0.0530662
0.0095012
-0.0556269
0.0104247
-0.0583283
0.0113984
-0.0611654
-0.0642125
0.0124171
0.000960898
-0.0162969
0.00190422
-0.0315235
0.00270587
-0.0361142
0.00338592
-0.0394653
0.00402246
-0.0411426
0.00465828
-0.0431506
0.0053139
-0.0449028
0.0060021
-0.0470019
0.00672379
-0.0491016
0.00748474
-0.0514385
0.00828401
-0.0538654
0.00912629
-0.0564692
0.0100105
-0.0592125
0.0109428
-0.0620977
-0.0651878
0.0119181
0.000964678
-0.0172616
0.00187241
-0.0324312
0.0026337
-0.0368755
0.00327435
-0.040106
0.0038771
-0.0417453
0.00448125
-0.0437548
0.00510617
-0.0455277
0.00576277
-0.0476585
0.00645165
-0.0497905
0.00717814
-0.052165
0.00794125
-0.0546285
0.00874551
-0.0572735
0.00958979
-0.0600568
0.01048
-0.062988
-0.0661191
0.0114113
0.000965304
-0.0182269
0.00183605
-0.033302
0.00255707
-0.0375965
0.00315901
-0.0407079
0.00372852
-0.0423149
0.00430117
-0.0443274
0.00489523
-0.0461218
0.00551987
-0.0482831
0.00617549
-0.0504461
0.00686703
-0.0528565
0.00759346
-0.055355
0.00835914
-0.0580391
0.00916292
-0.0608605
0.0100105
-0.0638356
-0.0670058
0.0108972
0.000962819
-0.0191897
0.00179543
-0.0341346
0.00247638
-0.0382775
0.00304027
-0.0412718
0.00357705
-0.0428516
0.00411827
-0.0448686
0.00468127
-0.0466848
0.00527358
-0.0488754
0.00589552
-0.0510681
0.00655162
-0.0535126
0.00724087
-0.0560442
0.00796743
-0.0587657
0.00873017
-0.0616233
0.00953449
-0.0646399
-0.0678472
0.010376
0.000957286
-0.020147
0.00175085
-0.0349282
0.00239199
-0.0389186
0.00291849
-0.0417983
0.00342293
-0.0433561
0.00393275
-0.0453784
0.00446447
-0.0472165
0.00502409
-0.0494351
0.00561193
-0.0516559
0.00623213
-0.0541328
0.00688372
-0.0566958
0.00757065
-0.0594526
0.00829184
-0.0623445
0.00905235
-0.0654004
-0.0686429
0.00984806
0.000948792
-0.0210958
0.00170259
-0.035682
0.00230425
-0.0395203
0.00279398
-0.042288
0.00326643
-0.0438285
0.00374481
-0.0458568
0.00424501
-0.0477167
0.00477157
-0.0499616
0.00532492
-0.0522093
0.00590878
-0.0547167
0.00652227
-0.0573093
0.00716909
-0.0600994
0.00784822
-0.0630236
0.0085644
-0.0661166
-0.0693923
0.0093138
0.000937439
-0.0220332
0.00165093
-0.0363955
0.00221347
-0.0400828
0.00266702
-0.0427416
0.00310774
-0.0442692
0.00355463
-0.0463037
0.00402306
-0.0481851
0.0045162
-0.0504548
0.00503468
-0.0527277
0.00558179
-0.0552638
0.00615675
-0.0578843
0.006763
-0.0607057
0.00739961
-0.0636602
0.00807097
-0.0667879
-0.0700949
0.00877356
0.000923343
-0.0229566
0.00159613
-0.0370682
0.00211996
-0.0406066
0.00253786
-0.0431595
0.00294708
-0.0446785
0.00336237
-0.046719
0.00379877
-0.0486215
0.00425817
-0.0509142
0.00474141
-0.053211
0.00525139
-0.0557737
0.00578742
-0.0584203
0.00635269
-0.061271
0.00694633
-0.0642539
0.00757241
-0.067414
-0.0707502
0.0082277
0.000906631
-0.0238632
0.00153845
-0.0377001
0.00202398
-0.0410922
0.00240674
-0.0435423
0.00278462
-0.0450563
0.0031682
-0.0471026
0.00357232
-0.0490257
0.00399765
-0.0513395
0.00444533
-0.0536587
0.0049178
-0.0562462
0.00541453
-0.058917
0.00593842
-0.0617949
0.00648868
-0.0648041
0.00706907
-0.0679944
-0.0713577
0.00767659
0.000887442
-0.0247506
0.00147813
-0.0382907
0.00192578
-0.0415398
0.00227387
-0.0438903
0.00262053
-0.045403
0.00297226
-0.0474543
0.00334387
-0.0493973
0.00373482
-0.0517304
0.00414663
-0.0540705
0.00458126
-0.0566809
0.00503834
-0.0593741
0.00552048
-0.062277
0.00602699
-0.0653106
0.00656127
-0.0685287
-0.0719171
0.00712061
0.000865916
-0.0256166
0.00141542
-0.0388402
0.00182561
-0.04195
0.00213946
-0.0442042
0.00245498
-0.0457185
0.00277472
-0.0477741
0.00311357
-0.0497361
0.00346987
-0.0520867
0.00384551
-0.0544461
0.00424199
-0.0570773
0.0046591
-0.0597912
0.00509915
-0.062717
0.00556155
-0.065773
0.00604937
-0.0690165
-0.0724278
0.00656013
0.000842198
-0.0264588
0.00135052
-0.0393486
0.00172368
-0.0423232
0.00200368
-0.0444842
0.00228812
-0.046003
0.00257572
-0.0480617
0.00288159
-0.050042
0.00320297
-0.0524081
0.00354219
-0.0547854
0.00390023
-0.0574354
0.00427708
-0.0601681
0.00467474
-0.0631147
0.0050927
-0.066191
0.00553372
-0.0694575
-0.0728897
0.00599554
0.000816435
-0.0272752
0.00128365
-0.0398158
0.0016202
-0.0426597
0.00186671
-0.0447307
0.00212009
-0.0462563
0.00237541
-0.048317
0.0026481
-0.0503147
0.00293432
-0.0526943
0.00323688
-0.0550879
0.00355621
-0.0577547
0.00389254
-0.0605044
0.00424752
-0.0634697
0.00462076
-0.0665642
0.00501467
-0.0698514
-0.0733022
0.00542722
0.00078877
-0.028064
0.00121501
-0.040242
0.00151535
-0.0429601
0.0017287
-0.044944
0.00195103
-0.0464787
0.00217393
-0.0485399
0.00241325
-0.050554
0.00266409
-0.0529452
0.00292978
-0.0553536
0.00321017
-0.0580351
0.00350574
-0.0608
0.00381779
-0.0637817
0.00414604
-0.0668925
0.00449258
-0.070198
-0.0736652
0.00485556
0.000759346
-0.0288233
0.00114479
-0.0406275
0.00140931
-0.0432246
0.0015898
-0.0451245
0.00178107
-0.0466699
0.00197141
-0.0487302
0.00217721
-0.0507598
0.00239247
-0.0531604
0.0026211
-0.0555822
0.00286234
-0.0582763
0.00311695
-0.0610546
0.00338585
-0.0640506
0.00366888
-0.0671755
0.00396781
-0.0704969
-0.0739783
0.00428096
0.000728301
-0.0295516
0.00107316
-0.0409723
0.00130225
-0.0434537
0.00145015
-0.0452724
0.00161036
-0.0468301
0.00176801
-0.0488879
0.00194013
-0.0509319
0.00211965
-0.0533399
0.00231106
-0.0557736
0.00251297
-0.0584782
0.00272643
-0.061268
0.00295199
-0.0642762
0.0031896
-0.0674131
0.00344071
-0.070748
-0.0742414
0.00370381
0.000695769
-0.0302474
0.0010003
-0.0412769
0.00119433
-0.0436477
0.00130989
-0.045388
0.00143901
-0.0469593
0.00156386
-0.0490127
0.0017022
-0.0510703
0.0018458
-0.0534836
0.00199988
-0.0559277
0.0021623
-0.0586407
0.00233446
-0.0614402
0.00251651
-0.0644582
0.00270853
-0.0676052
0.00291164
-0.0709511
-0.0744543
0.0031245
0.000661878
-0.0309093
0.000926361
-0.0415413
0.00108568
-0.043807
0.00116914
-0.0454714
0.00126716
-0.0470573
0.0013591
-0.0491047
0.00146357
-0.0511747
0.00157112
-0.0535911
0.00168776
-0.0560444
0.00181055
-0.0587634
0.0019413
-0.0615709
0.0020797
-0.0645966
0.002226
-0.0677515
0.00238097
-0.0711061
-0.0746168
0.00254344
0.000626751
-0.031536
0.000851493
-0.0417661
0.000976458
-0.043932
0.00102802
-0.045523
0.00109494
-0.0471242
0.00115386
-0.0491636
0.00122441
-0.0512453
0.00129578
-0.0536625
0.00137494
-0.0561235
0.00145796
-0.0588465
0.00154723
-0.0616602
0.00164187
-0.0646913
0.00174234
-0.0678519
0.00184907
-0.0712128
-0.0747287
0.00196101
0.000590506
-0.0321265
0.000775838
-0.0419514
0.000866782
-0.0440229
0.000886644
-0.0455429
0.00092247
-0.04716
0.000948267
-0.0491894
0.000984915
-0.0512819
0.00101996
-0.0536975
0.00106163
-0.0561652
0.00110476
-0.0588896
0.00115253
-0.061708
0.0012033
-0.064742
0.00125788
-0.0679065
0.00131629
-0.0712712
-0.0747901
0.00137764
0.000553253
-0.0326798
0.00069953
-0.0420977
0.000756782
-0.0440802
0.000745113
-0.0455312
0.000749901
-0.0471648
0.000742438
-0.0491819
0.000745266
-0.0512847
0.000743804
-0.0536961
0.000748071
-0.0561695
0.000751214
-0.0588927
0.000757444
-0.0617142
0.000764313
-0.0647489
0.000772949
-0.0679151
0.000782991
-0.0712813
-0.0748008
0.000793693
0.000515115
-0.0331949
0.000622738
-0.0422053
0.000646648
-0.0441041
0.000603619
-0.0454882
0.000577499
-0.0471387
0.000536618
-0.049141
0.000505857
-0.051254
0.000467671
-0.0536579
0.000434771
-0.0561366
0.000397766
-0.0588557
0.000362611
-0.0616791
0.000325509
-0.0647118
0.000288283
-0.0678779
0.000250013
-0.071243
-0.0747607
0.000209918
0.000476163
-0.0336711
0.000545496
-0.0422747
0.000536361
-0.044095
0.000462048
-0.0454139
0.000405194
-0.0470818
0.000330506
-0.0490664
0.000266699
-0.0511902
0.000190896
-0.0535821
0.000122057
-0.0560677
4.29336e-05
-0.0587766
-3.15199e-05
-0.0616046
-0.000113623
-0.0646297
-0.000196599
-0.0677949
-0.000283179
-0.0711564
-0.0746698
-0.000374005
0.000436508
-0.0341076
0.000467957
-0.0423061
0.000426106
-0.0440531
0.000320534
-0.0453083
0.000233427
-0.0469947
0.000123658
-0.0489566
3.01867e-05
-0.0510967
-8.56098e-05
-0.0534663
-0.000191743
-0.0559616
-0.000308588
-0.0586598
-0.000427302
-0.0614859
-0.000551564
-0.0645054
-0.000680963
-0.0676655
-0.000815818
-0.0710215
-0.0745285
-0.000957163
0.000396241
-0.0345038
0.000390226
-0.0423001
0.000316005
-0.0439789
0.000178931
-0.0451712
6.3509e-05
-0.0468793
-8.19087e-05
-0.0488112
-0.000211806
-0.0509668
-0.00035877
-0.0533193
-0.000505326
-0.055815
-0.000660515
-0.0585046
-0.000821376
-0.061325
-0.000989114
-0.0643377
-0.00116441
-0.0674903
-0.00134749
-0.0708385
-0.0743367
-0.00153933
0.00035545
-0.0348592
0.000312401
-0.042257
0.000206234
-0.0438727
3.55433e-05
-0.0450005
-0.000109223
-0.0467345
-0.000283954
-0.0486364
-0.00045131
-0.0507995
-0.000632559
-0.0531381
-0.000817565
-0.05563
-0.00101188
-0.0583103
-0.00121434
-0.0611226
-0.00142565
-0.0641264
-0.00164665
-0.0672692
-0.00187784
-0.0706073
-0.0740944
-0.00212006
0.000314217
-0.0351735
0.000234564
-0.0421774
9.72087e-05
-0.0437354
-0.000102319
-0.044801
-0.000281919
-0.0465549
-0.000486826
-0.0484315
-0.000689444
-0.0505968
-0.000905807
-0.0529217
-0.00112864
-0.0554072
-0.00136223
-0.0580767
-0.00160602
-0.0608788
-0.00186081
-0.0638716
-0.00212737
-0.0670027
-0.0024065
-0.0703282
-0.073802
-0.00269896
0.00027262
-0.0354461
0.000156754
-0.0420615
-8.80733e-06
-0.0435698
-0.000240225
-0.0445696
-0.000452939
-0.0463422
-0.000689294
-0.0481952
-0.000926431
-0.0503597
-0.00117813
-0.05267
-0.00143844
-0.0551469
-0.00171127
-0.0578038
-0.00199618
-0.0605939
-0.0022943
-0.0635735
-0.00260623
-0.0666907
-0.00293311
-0.0700013
-0.0734595
-0.00327562
0.000230735
-0.0356768
7.88464e-05
-0.0419096
-0.000121294
-0.0433697
-0.000378322
-0.0443125
-0.000622861
-0.0460977
-0.000890991
-0.047927
-0.00116222
-0.0500885
-0.00144928
-0.0523829
-0.00174679
-0.0548494
-0.00205872
-0.0574919
-0.00238456
-0.060268
-0.0027258
-0.0632322
-0.00308291
-0.0663336
-0.00345731
-0.0696269
-0.0730671
-0.00384964
0.000188636
-0.0358655
-2.3984e-06
-0.0417186
-0.000230181
-0.0431419
-0.000515879
-0.0440269
-0.000791734
-0.0458218
-0.00109169
-0.0476271
-0.00139671
-0.0497834
-0.00171902
-0.0520606
-0.00205349
-0.0545149
-0.00240435
-0.057141
-0.0027709
-0.0599015
-0.00315503
-0.0628481
-0.00355708
-0.0659316
-0.00397874
-0.0692052
-0.0726252
-0.00442063
0.000146409
-0.0360119
-7.51116e-05
-0.0414971
-0.000338051
-0.042879
-0.000652667
-0.0437122
-0.000959505
-0.045515
-0.00129123
-0.0472954
-0.00162977
-0.0494449
-0.00198717
-0.0517032
-0.00235836
-0.0541437
-0.00274791
-0.0567515
-0.00315493
-0.0594945
-0.00358168
-0.0624214
-0.0040284
-0.0654849
-0.00449704
-0.0687366
-0.0721341
-0.00498819
0.000104117
-0.036116
-0.000150951
-0.041242
-0.000445078
-0.0425848
-0.000788538
-0.0433688
-0.00112609
-0.0451774
-0.00148943
-0.046932
-0.00186123
-0.0490731
-0.00225351
-0.051311
-0.00266119
-0.053736
-0.00308917
-0.0563235
-0.00353639
-0.0590472
-0.00400547
-0.0619523
-0.00449657
-0.0649938
-0.00501186
-0.0682213
-0.071594
-0.00555193
6.18548e-05
-0.0361778
-0.000226578
-0.0409536
-0.00055124
-0.0422602
-0.000923377
-0.0429966
-0.00129139
-0.0448094
-0.00168616
-0.0465373
-0.00209097
-0.0486683
-0.00251788
-0.050884
-0.00296176
-0.0532922
-0.00342788
-0.0558574
-0.00391502
-0.0585601
-0.00442611
-0.0614412
-0.00496125
-0.0644586
-0.00552284
-0.0676597
-0.0710054
-0.00611146
1.99015e-05
-0.0361977
-0.000301711
-0.040632
-0.000656483
-0.0419054
-0.00105708
-0.042596
-0.00145531
-0.0444112
-0.00188127
-0.0461113
-0.00231881
-0.0482307
-0.00278008
-0.0504228
-0.00325988
-0.0528124
-0.00376383
-0.0553534
-0.00429056
-0.0580334
-0.00484331
-0.0608884
-0.00542213
-0.0638798
-0.00602963
-0.0670522
-0.0703686
-0.0066664
-2.23623e-05
-0.0361754
-0.000376234
-0.0402781
-0.000760744
-0.0415209
-0.00118954
-0.0421672
-0.00161775
-0.043983
-0.00207462
-0.0456544
-0.00254462
-0.0477607
-0.00303994
-0.0499275
-0.00355535
-0.0522969
-0.00409677
-0.054812
-0.00466275
-0.0574674
-0.00525678
-0.0602944
-0.00587889
-0.0632577
-0.00653188
-0.0663992
-0.0696841
-0.00721635
-6.47202e-05
-0.0361107
-0.00045006
-0.0398928
-0.000863954
-0.041107
-0.00132068
-0.0417105
-0.00177858
-0.0435251
-0.00226608
-0.0451669
-0.00276824
-0.0472586
-0.00329727
-0.0493984
-0.00384796
-0.0517463
-0.00442649
-0.0542335
-0.00503135
-0.0568625
-0.00566624
-0.0596595
-0.00633122
-0.0625927
-0.00702925
-0.0657012
-0.0689525
-0.00776094
-0.000106631
-0.036004
-0.000523117
-0.0394763
-0.000966047
-0.0406641
-0.0014504
-0.0412262
-0.00193772
-0.0430378
-0.00245552
-0.0446491
-0.00298952
-0.0467246
-0.0035519
-0.048836
-0.00413752
-0.0511606
-0.00475275
-0.0536183
-0.00539608
-0.0562192
-0.00607142
-0.0589842
-0.00677882
-0.0618853
-0.0075214
-0.0649586
-0.0681741
-0.00829979
-0.000148234
-0.0358558
-0.00059534
-0.0390292
-0.00106695
-0.0401924
-0.0015786
-0.0407145
-0.00209505
-0.0425213
-0.00264281
-0.0441014
-0.00320831
-0.0461591
-0.00380366
-0.0482407
-0.00442381
-0.0505405
-0.00507534
-0.0529667
-0.00575672
-0.0555378
-0.00647203
-0.0582689
-0.00722138
-0.061136
-0.008008
-0.064172
-0.0673495
-0.00883253
-0.000189506
-0.0356663
-0.000666669
-0.038552
-0.0011666
-0.0396925
-0.00170521
-0.0401759
-0.00225046
-0.0419761
-0.00282782
-0.043524
-0.00342445
-0.0455625
-0.00405237
-0.0476128
-0.00470666
-0.0498862
-0.00539403
-0.0522794
-0.00611301
-0.0548188
-0.00686781
-0.0575141
-0.00765859
-0.0603452
-0.00848871
-0.0633419
-0.0664795
-0.00935879
-0.000230409
-0.0354359
-0.000737046
-0.0380454
-0.00126493
-0.0391646
-0.00183015
-0.0396107
-0.00240386
-0.0414024
-0.00301042
-0.0429174
-0.00363781
-0.0449351
-0.00429787
-0.0469527
-0.00498587
-0.0491982
-0.00570862
-0.0515566
-0.0064647
-0.0540628
-0.00725849
-0.0567203
-0.00809017
-0.0595135
-0.00896321
-0.0624688
-0.0655645
-0.00987819
-0.000270899
-0.035165
-0.000806418
-0.0375098
-0.00136187
-0.0386092
-0.00195331
-0.0390192
-0.00255514
-0.0408005
-0.00319049
-0.0422821
-0.00384824
-0.0442773
-0.00453999
-0.046261
-0.00526124
-0.0484769
-0.00601888
-0.050799
-0.00681157
-0.0532701
-0.0076438
-0.0558881
-0.00851582
-0.0586415
-0.00943118
-0.0615535
-0.0646052
-0.0103904
-0.000310934
-0.034854
-0.000874731
-0.036946
-0.00145736
-0.0380266
-0.00207463
-0.038402
-0.00270419
-0.040171
-0.00336791
-0.0416184
-0.00405559
-0.0435896
-0.00477855
-0.045538
-0.0055326
-0.0477229
-0.0063246
-0.050007
-0.00715337
-0.0524413
-0.00802348
-0.055018
-0.00893526
-0.0577297
-0.00989232
-0.0605964
-0.0636024
-0.0108951
-0.000350471
-0.0345036
-0.000941936
-0.0363546
-0.00155133
-0.0374172
-0.00219402
-0.0377593
-0.00285092
-0.0395141
-0.00354256
-0.0409267
-0.00425972
-0.0428725
-0.00501341
-0.0447843
-0.00579974
-0.0469366
-0.00662558
-0.0491811
-0.00748987
-0.051577
-0.00839727
-0.0541106
-0.00934821
-0.0567788
-0.0103463
-0.0595983
-0.0625568
-0.011392
-0.000389471
-0.0341141
-0.00100798
-0.0357361
-0.00164372
-0.0367814
-0.00231141
-0.0370916
-0.00299523
-0.0388302
-0.00371431
-0.0402077
-0.0044605
-0.0421263
-0.00524441
-0.0440004
-0.0060625
-0.0461185
-0.00692162
-0.048322
-0.00782085
-0.0506778
-0.00876493
-0.0531665
-0.0097544
-0.0557893
-0.0107929
-0.0585598
-0.0614692
-0.0118805
-0.000427893
-0.0336862
-0.00107283
-0.0350911
-0.00173447
-0.0361198
-0.00242671
-0.0363994
-0.00313703
-0.0381199
-0.00388306
-0.0394616
-0.00465779
-0.0413516
-0.00547137
-0.0431868
-0.00632069
-0.0452692
-0.0072125
-0.0474302
-0.00814607
-0.0497442
-0.0091262
-0.0521864
-0.0101536
-0.0547619
-0.0112318
-0.0574816
-0.0603405
-0.0123605
-0.000465699
-0.0332205
-0.00113643
-0.0344204
-0.00182353
-0.0354327
-0.00253985
-0.035683
-0.0032762
-0.0373836
-0.00404868
-0.0386891
-0.00485144
-0.0405488
-0.00569416
-0.0423441
-0.00657414
-0.0443892
-0.00749804
-0.0465063
-0.00846532
-0.0487769
-0.00948083
-0.0511708
-0.0105454
-0.0536973
-0.0116627
-0.0563643
-0.0591711
-0.0128321
-0.000502854
-0.0327177
-0.00119873
-0.0337245
-0.00191082
-0.0347206
-0.00265076
-0.0349431
-0.00341266
-0.0366217
-0.00421108
-0.0378907
-0.00504134
-0.0397185
-0.00591261
-0.0414728
-0.00682268
-0.0434791
-0.00777803
-0.045551
-0.00877838
-0.0477766
-0.00982859
-0.0501206
-0.0109297
-0.0525962
-0.0120855
-0.0552085
-0.0579616
-0.013295
-0.00053932
-0.0321783
-0.00125971
-0.0330041
-0.0019963
-0.033984
-0.00275936
-0.03418
-0.00354633
-0.0358347
-0.00437013
-0.0370669
-0.00522735
-0.0388613
-0.00612659
-0.0405736
-0.00706613
-0.0425396
-0.0080523
-0.0445648
-0.00908504
-0.0467438
-0.0101692
-0.0490364
-0.0113062
-0.0514592
-0.0124997
-0.054015
-0.0567133
-0.013748
-0.000575065
-0.0316033
-0.00131931
-0.0322599
-0.0020799
-0.0332234
-0.00286557
-0.0333944
-0.00367709
-0.0350232
-0.00452572
-0.0362183
-0.00540934
-0.0379777
-0.00633594