/*--------------------------------*- C++ -*----------------------------------*\
  =========                 |
  \\      /  F ield         | OpenFOAM: The Open Source CFD Toolbox
   \\    /   O peration     | Website:  https://openfoam.org
    \\  /    A nd           | Version:  7
     \\/     M anipulation  |
\*---------------------------------------------------------------------------*/
FoamFile
{
    version     2.0;
    format      ascii;
    class       volVectorField;
    location    "28.5";
    object      U;
}
// * * * * * * * * * * * * * * * * * * * * * * * * * * * * * * * * * * * * * //

dimensions      [0 1 -1 0 0 0 0];

internalField   nonuniform List<vector> 
34000
(
(-0.0720417 0.00303585 4.45404e-20)
(-0.124199 0.00224417 6.18091e-20)
(-0.177178 0.00219321 -2.0819e-20)
(-0.208832 0.00149186 1.00251e-20)
(-0.228417 0.00135176 -4.75447e-20)
(-0.247817 0.000970761 -1.30104e-20)
(-0.257318 0.000735659 -5.63961e-21)
(-0.268361 0.000418897 -6.71997e-20)
(-0.27246 0.000148367 5.71849e-20)
(-0.277019 -0.000112596 8.83363e-21)
(-0.275343 -0.000406258 -2.15298e-20)
(-0.273089 -0.000596704 1.39184e-20)
(-0.263438 -0.00108738 -1.71676e-20)
(-0.251694 -0.00145712 3.76035e-21)
(-0.230977 -0.00246579 -1.23735e-20)
(-0.202308 -0.00346635 1.39184e-20)
(-0.173427 -0.00514372 -7.42076e-21)
(-0.112458 -0.00752021 1.43903e-20)
(-0.0707505 -0.00841983 1.07404e-20)
(0.00860764 -0.0109297 4.00197e-21)
(-0.0721964 0.00898873 4.26507e-21)
(-0.123971 0.00658945 -1.02937e-19)
(-0.176508 0.00642485 -1.61295e-20)
(-0.207593 0.0043418 -3.37898e-20)
(-0.226465 0.00399297 1.19299e-19)
(-0.24497 0.00298762 1.31717e-20)
(-0.253353 0.0024657 -3.7356e-20)
(-0.263005 0.00170411 9.90652e-20)
(-0.265367 0.00102182 -5.85834e-20)
(-0.267811 0.000238712 6.2997e-20)
(-0.263465 -0.000810072 6.20824e-20)
(-0.258138 -0.00172493 1.34535e-20)
(-0.244479 -0.00363032 2.93344e-20)
(-0.228568 -0.00516995 -1.95065e-20)
(-0.202339 -0.00848027 3.21894e-20)
(-0.167961 -0.0114061 7.93125e-21)
(-0.133779 -0.0163412 1.87775e-20)
(-0.064638 -0.0224997 -4.69505e-20)
(-0.0219249 -0.0253156 -4.35544e-21)
(0.0686791 -0.0317974 -5.55914e-21)
(-0.0725057 0.0149088 -9.73119e-20)
(-0.123519 0.0108997 1.26118e-19)
(-0.175171 0.0106252 2.0613e-19)
(-0.20512 0.00715796 -2.12706e-19)
(-0.222568 0.00659487 -7.13253e-20)
(-0.239293 0.00495625 7.47386e-20)
(-0.245457 0.00413215 2.16551e-20)
(-0.252358 0.00290234 -8.23952e-22)
(-0.251308 0.00177705 8.16043e-20)
(-0.249623 0.000423648 -1.24994e-20)
(-0.240107 -0.00142641 -6.01286e-20)
(-0.228912 -0.0031503 -8.1589e-20)
(-0.207653 -0.00649926 3.61943e-20)
(-0.184063 -0.00930632 4.37148e-20)
(-0.147808 -0.0149805 2.27911e-20)
(-0.103292 -0.0195374 -8.10717e-20)
(-0.0599369 -0.0282298 -8.54883e-21)
(0.0226753 -0.0364946 7.56838e-21)
(0.0668263 -0.0421361 -8.79439e-21)
(0.174593 -0.0512389 -5.77371e-21)
(-0.0729692 0.0207745 -1.65046e-19)
(-0.122843 0.0151517 -1.57273e-19)
(-0.173172 0.0147733 1.99712e-21)
(-0.201422 0.00991804 7.21911e-20)
(-0.216742 0.0091318 1.97466e-19)
(-0.230816 0.0068459 -2.06793e-19)
(-0.233695 0.00569564 1.25119e-19)
(-0.236551 0.00396158 6.07822e-20)
(-0.230527 0.00234631 -9.43406e-20)
(-0.222897 0.000349728 -3.49936e-20)
(-0.20603 -0.00236353 2.67432e-20)
(-0.186683 -0.00502169 9.62857e-20)
(-0.15498 -0.00983719 -1.13508e-19)
(-0.121248 -0.0140338 -1.19397e-19)
(-0.0720534 -0.0221375 -4.45539e-21)
(-0.0150124 -0.0277492 2.81975e-20)
(0.0396261 -0.040782 -6.39272e-22)
(0.136851 -0.0495511 1.74908e-20)
(0.182606 -0.0580319 -3.13994e-20)
(0.305912 -0.0687645 4.96717e-21)
(-0.0735864 0.0265646 3.13292e-20)
(-0.121948 0.0193221 3.37385e-19)
(-0.170514 0.0188485 -3.28775e-19)
(-0.196506 0.0126001 2.06225e-19)
(-0.209008 0.0115791 -2.2685e-19)
(-0.219581 0.00862825 3.08697e-19)
(-0.218155 0.0071216 -1.27396e-19)
(-0.215752 0.00483886 -1.41814e-19)
(-0.203345 0.00267803 -4.55305e-20)
(-0.188201 -4.94386e-05 5.50814e-20)
(-0.162192 -0.00368469 1.36539e-20)
(-0.133006 -0.0074232 -3.70827e-20)
(-0.0889031 -0.0136971 1.23519e-19)
(-0.0436266 -0.0193642 1.66839e-19)
(0.019738 -0.0299384 1.58901e-21)
(0.0895982 -0.0361227 1.47143e-19)
(0.15592 -0.0531886 5.36636e-20)
(0.264732 -0.0618764 3.7915e-21)
(0.313048 -0.0723165 9.34401e-21)
(0.444497 -0.0836857 -2.97938e-21)
(-0.0743566 0.0322582 2.30574e-19)
(-0.120838 0.0233877 -1.80352e-20)
(-0.167205 0.02283 -1.42176e-20)
(-0.190385 0.015183 -2.82636e-19)
(-0.199387 0.0139134 -3.94107e-20)
(-0.205636 0.0102782 -3.52487e-19)
(-0.198933 0.00838166 1.05854e-20)
(-0.190153 0.00550266 2.59539e-19)
(-0.170114 0.00274041 2.243e-19)
(-0.146141 -0.000808772 -1.90861e-19)
(-0.109601 -0.00540266 -3.93902e-20)
(-0.0694316 -0.0103791 8.85589e-20)
(-0.0118779 -0.0180322 1.27717e-19)
(0.0455275 -0.0251747 -1.18731e-20)
(0.122828 -0.0381382 1.16902e-19)
(0.204182 -0.0447541 -5.91563e-20)
(0.28161 -0.0647111 1.30693e-20)
(0.39579 -0.0731951 -2.4459e-20)
(0.447616 -0.0845747 7.71392e-20)
(0.577793 -0.0953537 -2.38058e-20)
(-0.0752788 0.0378352 -2.05418e-19)
(-0.119518 0.0273252 -4.45449e-19)
(-0.163252 0.0266972 6.92204e-19)
(-0.183071 0.0176459 4.27896e-19)
(-0.187905 0.0161131 8.39428e-20)
(-0.189026 0.0117746 2.7004e-19)
(-0.176129 0.00945473 1.93282e-19)
(-0.159937 0.00593474 -2.29666e-19)
(-0.131172 0.00252337 -4.23338e-20)
(-0.0972825 -0.00192897 5.18565e-20)
(-0.0492003 -0.00748177 4.13969e-20)
(0.002698 -0.0138168 -9.12061e-20)
(0.0739131 -0.0227603 -9.63258e-20)
(0.143439 -0.0312221 -1.35123e-19)
(0.233359 -0.0463196 -1.82356e-19)
(0.323631 -0.0533446 -3.12737e-20)
(0.410551 -0.0748347 -1.02816e-20)
(0.523158 -0.0830216 -1.80391e-20)
(0.577815 -0.094491 -1.96409e-20)
(0.697908 -0.103436 6.70016e-21)
(-0.0763519 0.0432758 -1.65345e-19)
(-0.117995 0.0311114 -3.1033e-19)
(-0.158662 0.0304294 -1.0165e-18)
(-0.174575 0.0199694 3.2354e-19)
(-0.174582 0.0181584 4.11354e-19)
(-0.169792 0.0131008 -2.28306e-19)
(-0.149825 0.010328 5.7617e-20)
(-0.125259 0.00613146 -3.29478e-20)
(-0.0868085 0.00203903 -1.48165e-20)
(-0.0420929 -0.00337477 -2.70923e-19)
(0.018198 -0.00985457 -2.03332e-19)
(0.0822994 -0.0175477 3.13062e-20)
(0.166654 -0.0277446 9.41741e-21)
(0.2478 -0.0372214 2.52082e-19)
(0.348091 -0.0539871 1.6e-19)
(0.444103 -0.0614439 4.65838e-20)
(0.53709 -0.0831057 -4.46016e-20)
(0.642274 -0.0908114 1.36683e-19)
(0.697026 -0.101765 -2.88596e-20)
(0.800169 -0.108015 6.31303e-20)
(-0.0775747 0.0485613 4.41741e-19)
(-0.116274 0.0347231 1.15322e-18)
(-0.153442 0.0340061 1.03162e-18)
(-0.164904 0.0221347 -1.84137e-19)
(-0.159433 0.0200316 -8.47748e-19)
(-0.147956 0.0142455 2.00009e-19)
(-0.120078 0.0109975 -2.05702e-19)
(-0.0862285 0.00610546 -4.06797e-19)
(-0.037242 0.00132134 3.09929e-19)
(0.0190793 -0.00506772 3.35396e-19)
(0.0919216 -0.0124302 4.89071e-20)
(0.168474 -0.0213324 -1.42071e-19)
(0.264759 -0.0327247 3.12211e-21)
(0.356429 -0.0428696 -1.00927e-19)
(0.463895 -0.060668 -2.46379e-19)
(0.562182 -0.0684867 -8.6462e-20)
(0.65607 -0.0892215 -6.12063e-20)
(0.749481 -0.09618 -3.01862e-20)
(0.800342 -0.106233 -1.93963e-20)
(0.882465 -0.109525 2.64555e-20)
(-0.0789457 0.0536738 -3.83419e-19)
(-0.114363 0.0381372 -3.8186e-19)
(-0.147599 0.0374065 -5.89345e-19)
(-0.154062 0.0241245 1.17965e-19)
(-0.14246 0.0217176 2.91474e-19)
(-0.12352 0.0152031 2.46042e-19)
(-0.0869057 0.0114697 9.3614e-20)
(-0.0428936 0.00588788 5.7271e-20)
(0.0173849 0.000424842 -7.63485e-19)
(0.0859803 -0.00688497 6.16802e-20)
(0.171375 -0.0150766 1.76245e-19)
(0.2603 -0.0249165 4.45511e-20)
(0.366669 -0.0373634 -3.2696e-19)
(0.466869 -0.0478235 2.61442e-20)
(0.577443 -0.0659799 -1.99968e-20)
(0.674136 -0.0739479 1.51808e-19)
(0.763085 -0.093051 3.54037e-20)
(0.841759 -0.0990324 -5.03632e-20)
(0.884868 -0.108015 -6.08444e-20)
(0.94502 -0.108618 -1.12994e-19)
(-0.0804631 0.0585964 7.62488e-19)
(-0.112267 0.0413305 -2.78371e-19)
(-0.141137 0.0406099 2.12586e-19)
(-0.142044 0.0259232 -4.08924e-19)
(-0.123654 0.0232041 -4.06909e-19)
(-0.0964563 0.0159754 -1.71201e-19)
(-0.0502832 0.0117616 2.8396e-19)
(0.00475758 0.00552969 3.37335e-19)
(0.0769914 -0.000571289 3.9274e-20)
(0.158383 -0.00866941 -4.34281e-19)
(0.25594 -0.0176115 -1.12765e-19)
(0.356562 -0.0280418 -2.71395e-20)
(0.470529 -0.0412958 1.32544e-19)
(0.576134 -0.0517526 -7.66159e-20)
(0.685164 -0.0696576 -6.48257e-20)
(0.776027 -0.0775097 -2.25305e-19)
(0.854858 -0.0946688 1.15894e-19)
(0.917247 -0.0995709 1.23079e-20)
(0.950085 -0.107519 4.86559e-20)
(0.99002 -0.106013 3.43253e-20)
(-0.082125 0.0633132 -1.51709e-19)
(-0.109995 0.0442798 -4.82275e-19)
(-0.134057 0.0435952 9.23804e-20)
(-0.128834 0.0275168 4.17732e-19)
(-0.102983 0.0244825 5.13522e-19)
(-0.0667003 0.0165747 -1.82554e-19)
(-0.0101336 0.0119037 -8.04012e-19)
(0.0567895 0.00510249 -7.77279e-20)
(0.141522 -0.00155942 3.15887e-19)
(0.235967 -0.0102391 1.82842e-19)
(0.344825 -0.0198063 3.0265e-19)
(0.455549 -0.0304705 2.00509e-19)
(0.573933 -0.0441903 -3.06883e-19)
(0.680765 -0.0544072 -1.12561e-19)
(0.783499 -0.0715931 1.49358e-19)
(0.864493 -0.0791238 2.85235e-19)
(0.929696 -0.0943537 -1.60994e-19)
(0.975762 -0.0982169 -3.61267e-20)
(0.997667 -0.105311 -2.85463e-20)
(1.02083 -0.102344 -2.74564e-21)
(-0.0839292 0.0678094 -4.7563e-19)
(-0.10755 0.0469624 5.8306e-19)
(-0.126357 0.046341 -9.79002e-20)
(-0.114404 0.0288942 -6.32077e-19)
(-0.0803901 0.0255483 7.70764e-19)
(-0.0341479 0.0170273 1.80263e-19)
(0.0336679 0.0119411 1.54394e-19)
(0.11329 0.00470226 4.03469e-19)
(0.21088 -0.00240084 2.21108e-20)
(0.318174 -0.0114009 9.67264e-20)
(0.436862 -0.0214051 -1.1955e-19)
(0.554984 -0.0320051 -9.02727e-21)
(0.67391 -0.0458217 2.28434e-19)
(0.777227 -0.0556737 3.19309e-19)
(0.86945 -0.0718657 6.23833e-20)
(0.937553 -0.0789809 -2.37918e-19)
(0.987702 -0.0925183 1.64717e-19)
(1.0188 -0.0954818 1.31304e-19)
(1.03069 -0.101961 3.02028e-20)
(1.04109 -0.0980941 9.09564e-20)
(-0.0858732 0.0720716 -2.56189e-19)
(-0.104938 0.0493553 -7.17963e-19)
(-0.118029 0.0488256 -2.66005e-20)
(-0.0987075 0.030047 4.71293e-19)
(-0.0557867 0.0264025 8.91327e-19)
(0.00135028 0.0173624 -7.88906e-20)
(0.081279 0.011951 -1.80872e-21)
(0.174321 0.00445124 -2.66547e-19)
(0.284832 -0.00292418 2.65173e-19)
(0.404071 -0.0119676 2.70106e-19)
(0.530338 -0.0221724 -9.24609e-20)
(0.652102 -0.0325128 4.06423e-19)
(0.767248 -0.0461205 4.15496e-19)
(0.862511 -0.0555989 -2.51839e-19)
(0.941184 -0.0707172 -3.35126e-19)
(0.994965 -0.077424 2.69523e-19)
(1.03053 -0.0896069 -1.53261e-19)
(1.04896 -0.0918467 -8.679e-21)
(1.05264 -0.097942 2.71028e-20)
(1.05401 -0.0935852 -4.1208e-20)
(-0.0879542 0.0760875 1.54714e-18)
(-0.10216 0.0514362 8.15711e-19)
(-0.109061 0.0510266 7.66593e-20)
(-0.0816774 0.0309714 -3.16029e-19)
(-0.0290492 0.0270543 -3.94807e-19)
(0.0399908 0.0176253 -2.66099e-19)
(0.132879 0.0120357 -1.36888e-19)
(0.239848 0.0044929 -1.16702e-19)
(0.362868 -0.00293737 -6.20042e-19)
(0.492251 -0.0117772 -8.92187e-20)
(0.622971 -0.0219507 1.19747e-19)
(0.743915 -0.0319582 -6.5526e-19)
(0.851049 -0.0451785 1.27569e-20)
(0.9347 -0.0543679 5.96357e-20)
(0.998358 -0.0684794 -2.21681e-19)
(1.03801 -0.0748436 -8.55461e-20)
(1.06077 -0.0860115 7.32152e-20)
(1.06921 -0.0876947 -3.63306e-20)
(1.06672 -0.093591 -1.14518e-19)
(1.06206 -0.0890127 4.40212e-21)
(-0.0901688 0.079846 -1.52483e-18)
(-0.0992156 0.0531829 -1.26311e-18)
(-0.099427 0.0529213 -3.71794e-19)
(-0.0632209 0.0316717 2.84565e-19)
(-1.2414e-05 0.0275282 3.11879e-19)
(0.0819996 0.017887 -4.98246e-19)
(0.188621 0.0123155 1.66474e-20)
(0.309645 0.00498532 1.70906e-19)
(0.44408 -0.00225564 2.79303e-19)
(0.580809 -0.0107184 1.51582e-19)
(0.7121 -0.0207003 3.34897e-19)
(0.827645 -0.0304217 1.16996e-19)
(0.923281 -0.0432114 -2.85357e-19)
(0.993241 -0.0522453 -1.52356e-19)
(1.04198 -0.0654909 -8.50513e-20)
(1.06893 -0.0715956 -1.88613e-19)
(1.08127 -0.0820315 -1.94671e-20)
(1.08228 -0.0832968 1.06781e-20)
(1.07546 -0.089128 1.21131e-19)
(1.06701 -0.0844867 9.05443e-20)
(-0.0925135 0.0833376 6.07459e-19)
(-0.0961009 0.0545743 1.14944e-18)
(-0.0890942 0.0544867 -2.9718e-19)
(-0.0432159 0.0321619 3.99623e-19)
(0.0315326 0.0278597 -1.85756e-19)
(0.127614 0.0182397 7.49981e-19)
(0.248567 0.0129408 2.71775e-19)
(0.383196 0.00608818 5.10424e-19)
(0.527069 -0.000739788 -1.51644e-19)
(0.667454 -0.00876142 1.33395e-19)
(0.795066 -0.0185078 -9.76502e-20)
(0.901191 -0.028082 4.0093e-19)
(0.983093 -0.0404935 -1.38367e-19)
(1.03884 -0.0495066 -8.86682e-20)
(1.07395 -0.0620384 2.22943e-19)
(1.09026 -0.067961 2.79693e-19)
(1.09462 -0.0778718 -1.81176e-19)
(1.09037 -0.0788289 1.72862e-19)
(1.08071 -0.0846843 -2.18513e-20)
(1.07004 -0.0800645 -2.17008e-21)
(-0.0949839 0.0865536 -5.73901e-19)
(-0.0928062 0.0555901 -1.13168e-18)
(-0.0780126 0.0556999 -3.28979e-19)
(-0.021502 0.0324502 -3.19337e-19)
(0.065833 0.028116 4.75069e-20)
(0.177051 0.0188039 5.03244e-20)
(0.312596 0.0140804 1.36739e-19)
(0.459596 0.00793918 4.98486e-20)
(0.609976 0.00166715 4.78441e-19)
(0.74976 -0.00597559 3.512e-20)
(0.869654 -0.0155591 1.41288e-19)
(0.963443 -0.0251684 -2.72914e-19)
(1.03079 -0.0372936 2.18422e-19)
(1.07306 -0.0463894 1.05583e-19)
(1.0965 -0.0583353 -6.997e-20)
(1.1044 -0.0641404 -1.38591e-19)
(1.10296 -0.0736622 2.1544e-19)
(1.09514 -0.0743975 2.76199e-19)
(1.08374 -0.0803323 1.72658e-19)
(1.07188 -0.0757733 -1.50524e-19)
(-0.0975751 0.089487 -6.37552e-19)
(-0.0893156 0.0562115 1.80275e-19)
(-0.0661145 0.0565354 7.09643e-20)
(0.00212376 0.0325602 -3.78265e-19)
(0.103176 0.0283933 8.02022e-19)
(0.230449 0.0197212 -8.59277e-19)
(0.380304 0.0158991 -1.11088e-18)
(0.537509 0.0106225 -1.62516e-18)
(0.690652 0.0049194 -4.23373e-19)
(0.825521 -0.00252078 -7.01571e-19)
(0.934436 -0.0120899 -5.99434e-19)
(1.01433 -0.0219069 -3.31523e-19)
(1.06754 -0.0338329 3.81797e-19)
(1.09786 -0.0430728 -1.10686e-19)
(1.11182 -0.0545257 -1.48437e-19)
(1.11337 -0.0602668 3.22055e-20)
(1.10787 -0.0694787 2.19277e-19)
(1.09774 -0.0700634 -7.66634e-20)
(1.0854 -0.076108 -2.48367e-20)
(1.07301 -0.0716235 5.63812e-20)
(-0.100281 0.0921315 1.29912e-18)
(-0.0856053 0.0564217 9.32911e-19)
(-0.053307 0.0569689 6.23046e-19)
(0.027897 0.0325478 -6.95567e-20)
(0.143867 0.0288069 -8.69803e-19)
(0.287801 0.0211487 1.54104e-19)
(0.450921 0.0185275 4.74112e-19)
(0.615224 0.0141399 1.72229e-18)
(0.766939 0.00887427 3.0916e-19)
(0.893084 0.00138947 6.91056e-20)
(0.988897 -0.00833249 4.30975e-19)
(1.05463 -0.0184838 4.27862e-19)
(1.09496 -0.0302707 -6.0679e-19)
(1.11523 -0.0396798 2.93938e-19)
(1.12179 -0.0506999 -9.34355e-20)
(1.11873 -0.0564232 -5.68078e-20)
(1.1105 -0.0653627 -2.49715e-19)
(1.09897 -0.0658594 4.30968e-20)
(1.08622 -0.0720254 -1.47632e-19)
(1.0737 -0.0676164 -9.88031e-20)
(-0.103096 0.094482 -1.71455e-19)
(-0.0816412 0.0562063 5.32252e-19)
(-0.0394728 0.0569967 -1.46965e-19)
(0.056102 0.0324692 -3.08014e-19)
(0.18818 0.0295081 1.219e-19)
(0.348869 0.0232425 4.51213e-19)
(0.523282 0.0220294 -4.81825e-19)
(0.690825 0.0183986 -6.23299e-19)
(0.83699 0.0133239 -4.3532e-19)
(0.951541 0.00553539 -4.16043e-20)
(1.03334 -0.00447908 -1.07815e-19)
(1.08562 -0.0150316 -3.68812e-19)
(1.11481 -0.0267098 1.13754e-19)
(1.12694 -0.0362883 -1.83979e-19)
(1.12792 -0.0469111 3.51239e-19)
(1.12163 -0.0526579 -2.96549e-19)
(1.11166 -0.0613348 1.14943e-20)
(1.09934 -0.0618014 1.7266e-20)
(1.08653 -0.0680864 2.24124e-19)
(1.07411 -0.0637493 1.37098e-19)
(-0.106011 0.0965339 -1.17994e-18)
(-0.0773757 0.055555 -1.09579e-19)
(-0.0244614 0.0566239 -7.29955e-19)
(0.0870511 0.0324014 2.11976e-19)
(0.236309 0.0306781 -5.15908e-19)
(0.413101 0.026131 9.23575e-19)
(0.595881 0.0263784 9.88125e-19)
(0.762441 0.0232253 1.87623e-19)
(0.899511 0.0180405 9.74921e-19)
(1.00073 0.00972925 2.88407e-19)
(1.06864 -0.000666314 -2.60757e-19)
(1.1088 -0.0116329 -1.51628e-19)
(1.12871 -0.0232103 3.07486e-19)
(1.13446 -0.032944 1.16662e-19)
(1.13137 -0.0431882 2.32429e-19)
(1.12289 -0.0489966 8.13886e-19)
(1.11186 -0.057403 -7.84021e-20)
(1.09918 -0.0578961 -1.97492e-19)
(1.08654 -0.064286 -1.5261e-19)
(1.07435 -0.0600175 -7.39351e-20)
(-0.109017 0.0982831 8.28266e-19)
(-0.072747 0.0544643 1.32949e-19)
(-0.00806849 0.0558524 1.86523e-18)
(0.121067 0.0324641 -2.35131e-20)
(0.288282 0.0325082 -2.93342e-19)
(0.479594 0.0298827 -7.73039e-19)
(0.667029 0.0314547 6.50716e-19)
(0.828505 0.0284029 -1.01033e-18)
(0.953857 0.0228179 -8.30444e-19)
(1.04111 0.0138341 -4.02619e-19)
(1.09598 0.00302166 3.14233e-19)
(1.12567 -0.00833258 -1.3148e-20)
(1.13807 -0.0198034 -1.24963e-19)
(1.13895 -0.0296713 -3.64135e-19)
(1.13297 -0.0395462 3.54244e-19)
(1.12309 -0.0454514 -6.94204e-19)
(1.11145 -0.0535685 7.41448e-20)
(1.09871 -0.0541454 -1.46034e-19)
(1.08637 -0.0606157 8.63224e-20)
(1.07445 -0.0564154 1.85831e-20)
(-0.112103 0.0997256 1.94938e-19)
(-0.0676757 0.0529382 -1.58332e-19)
(0.00996227 0.0547082 -1.73982e-18)
(0.158461 0.0328046 6.38217e-19)
(0.343882 0.0351709 1.87211e-18)
(0.547124 0.0344814 -3.3734e-19)
(0.735069 0.0370672 -7.5651e-21)
(0.887932 0.0337129 3.18153e-19)
(0.99999 0.0274961 5.62458e-20)
(1.07351 0.0177646 -1.8029e-19)
(1.11667 0.00654174 1.83551e-19)
(1.13757 -0.00514951 2.84985e-20)
(1.14405 -0.0165027 -7.06108e-20)
(1.14129 -0.0264806 1.71437e-19)
(1.13333 -0.0359914 -5.7493e-19)
(1.12258 -0.0420256 3.62959e-19)
(1.11068 -0.0498295 3.37065e-19)
(1.09805 -0.0505483 2.29819e-19)
(1.08608 -0.0570651 -1.02175e-19)
(1.07446 -0.0529388 6.6267e-20)
(-0.115257 0.100857 -6.76387e-19)
(-0.0620541 0.0509747 -4.98469e-19)
(0.0299356 0.0532659 8.80565e-19)
(0.19948 0.0335945 -1.03266e-18)
(0.402581 0.0387838 -2.74024e-20)
(0.614256 0.0398201 1.884e-19)
(0.798591 0.0429914 -5.19109e-19)
(0.940178 0.038969 2.42314e-19)
(1.03833 0.0319689 -5.80252e-19)
(1.09897 0.0214775 4.89326e-19)
(1.13192 0.00987892 -9.44137e-20)
(1.14564 -0.00208702 5.36835e-19)
(1.14754 -0.0133109 -1.72177e-19)
(1.14213 -0.0233741 -4.27638e-19)
(1.13287 -0.0325264 -2.07588e-19)
(1.12164 -0.0387176 4.18158e-20)
(1.10968 -0.0461822 2.27614e-20)
(1.09728 -0.0471024 3.50046e-20)
(1.08571 -0.0536229 -8.44197e-20)
(1.07439 -0.0495845 -8.64297e-20)
(-0.118464 0.10167 1.55795e-18)
(-0.0557415 0.0485763 1.27092e-18)
(0.052213 0.0516507 -6.70695e-19)
(0.244245 0.0350177 8.81088e-19)
(0.463526 0.0433786 -3.53974e-19)
(0.679517 0.0457192 -2.85912e-19)
(0.856574 0.0490104 4.32035e-19)
(0.985184 0.0440339 1.05232e-18)
(1.0696 0.0361771 3.34052e-19)
(1.11856 0.0249596 3.02615e-19)
(1.14284 0.0130356 -2.87486e-20)
(1.1508 0.00086026 -4.48186e-19)
(1.14923 -0.0102258 -4.80682e-20)
(1.14195 -0.0203492 5.19293e-19)
(1.13188 -0.0291517 7.48865e-20)
(1.12042 -0.0355229 -3.70857e-19)
(1.10855 -0.0426231 -7.65768e-20)
(1.09646 -0.0438047 1.29264e-21)
(1.08527 -0.0502781 1.55067e-20)
(1.07425 -0.0463502 7.98796e-20)
(-0.121707 0.102158 -1.19329e-18)
(-0.0485699 0.0457691 -2.21924e-18)
(0.0772076 0.0500306 -4.46417e-19)
(0.29268 0.0372455 6.23113e-19)
(0.525591 0.0488854 -3.39212e-19)
(0.741577 0.051962 1.03326e-18)
(0.908438 0.0549431 -1.53594e-19)
(1.02326 0.0488201 -4.25412e-19)
(1.09465 0.0400981 -7.01779e-20)
(1.13332 0.0282165 6.67001e-20)
(1.15038 0.0160236 -3.76151e-19)
(1.15381 0.00370175 1.0506e-19)
(1.14965 -0.0072422 -6.00325e-20)
(1.14107 -0.0174008 2.59106e-19)
(1.13055 -0.0258675 7.15875e-19)
(1.11903 -0.0324351 3.93586e-19)
(1.10735 -0.0391487 8.5336e-20)
(1.09559 -0.0406515 1.62069e-19)
(1.08479 -0.0470196 5.06253e-20)
(1.07405 -0.0432346 1.34557e-19)
(-0.124968 0.102308 -3.94053e-20)
(-0.0403334 0.0425961 7.98839e-19)
(0.105349 0.0486306 1.75114e-18)
(0.344449 0.0404024 -5.16064e-19)
(0.587502 0.0551437 4.36576e-20)
(0.799388 0.0583331 -1.54521e-18)
(0.954011 0.0606571 1.33356e-19)
(1.05497 0.0532826 -6.40549e-19)
(1.11437 0.0437332 -1.80228e-20)
(1.14415 0.031264 2.73973e-19)
(1.15529 0.0188594 3.67582e-19)
(1.15522 0.00644813 2.24857e-19)
(1.14917 -0.00435411 -3.02122e-19)
(1.13975 -0.0145229 5.59245e-20)
(1.129 -0.0226739 -2.0278e-19)
(1.11754 -0.0294467 -4.11883e-19)
(1.10611 -0.0357566 -1.78284e-19)
(1.0947 -0.0376387 -2.26119e-19)
(1.08426 -0.0438371 4.3919e-20)
(1.0738 -0.0402381 -1.98061e-19)
(-0.128225 0.102104 1.3033e-18)
(-0.0307799 0.039118 -6.83028e-19)
(0.137035 0.04773 -4.89512e-19)
(0.398934 0.044534 -4.34094e-19)
(0.647983 0.0619358 1.18536e-18)
(0.852253 0.0646474 -2.51471e-19)
(0.993437 0.0660685 -1.09745e-18)
(1.08098 0.0574076 8.63888e-19)
(1.12962 0.0470989 5.10613e-20)
(1.15185 0.034123 -8.5784e-19)
(1.15822 0.0215608 -1.54203e-19)
(1.15548 0.00910973 -2.68494e-19)
(1.14807 -0.00155538 -1.16287e-19)
(1.13813 -0.0117097 7.72602e-21)
(1.12732 -0.0195712 -1.873e-19)
(1.116 -0.0265493 4.42956e-19)
(1.10485 -0.0324454 -3.13741e-20)
(1.09379 -0.0347615 1.53451e-20)
(1.08368 -0.0407204 -1.74949e-20)
(1.0735 -0.0373624 -5.14853e-22)
(-0.131451 0.101523 -5.61747e-19)
(-0.0196075 0.0354246 9.32145e-19)
(0.172559 0.0476356 -3.65953e-19)
(0.455261 0.0495893 -1.12758e-18)
(0.705911 0.0690292 -2.3956e-19)
(0.899818 0.0707642 -5.35136e-19)
(1.02708 0.0711333 1.16319e-18)
(1.10201 0.0612019 -6.45527e-19)
(1.14117 0.0502191 2.42217e-19)
(1.15708 0.0368158 3.76416e-19)
(1.15964 0.0241451 -3.10716e-19)
(1.15491 0.0116957 2.37257e-19)
(1.14655 0.00115992 1.70153e-19)
(1.13633 -0.00895581 -6.16185e-19)
(1.12556 -0.0165601 2.84759e-19)
(1.11442 -0.0237339 2.11314e-19)
(1.10358 -0.0292154 2.14006e-19)
(1.09284 -0.0320142 5.15115e-20)
(1.08307 -0.03766 -4.7359e-20)
(1.07315 -0.0346112 4.04767e-20)
(-0.134617 0.100534 -2.34322e-19)
(-0.00646539 0.0316466 -1.0226e-20)
(0.212039 0.0486376 1.40707e-18)
(0.512387 0.0554288 2.7656e-18)
(0.760405 0.0762127 -1.51708e-18)
(0.94202 0.0765882 2.00938e-19)
(1.05545 0.0758376 -9.09313e-19)
(1.11878 0.0646851 -3.13989e-19)
(1.14969 0.0531213 -3.30643e-19)
(1.16037 0.0393638 2.61245e-20)
(1.15995 0.026628 1.83156e-19)
(1.15375 0.0142137 7.01785e-19)
(1.14475 0.00379739 3.33598e-19)
(1.13442 -0.00625685 1.62543e-19)
(1.12376 -0.0136408 -2.2238e-19)
(1.11284 -0.0209912 1.18364e-19)
(1.10231 -0.0260682 -2.97879e-20)
(1.09188 -0.0293899 -1.54285e-19)
(1.08242 -0.034647 1.33264e-19)
(1.07276 -0.0319901 4.51638e-20)
(-0.137689 0.0990952 -8.11002e-19)
(0.00903981 0.0279677 7.22061e-19)
(0.255342 0.0509551 -3.07781e-18)
(0.569214 0.0618553 -2.65144e-18)
(0.810869 0.0833167 6.68428e-19)
(0.979014 0.0820635 6.12907e-19)
(1.07908 0.0801876 -2.92163e-19)
(1.13193 0.0678836 9.16689e-19)
(1.15576 0.055833 6.28632e-19)
(1.16217 0.0417867 -6.31107e-20)
(1.15943 0.0290236 -1.91588e-19)
(1.15217 0.0166697 -6.22026e-19)
(1.14277 0.00636224 4.55978e-20)
(1.13245 -0.00360963 -2.92081e-20)
(1.12193 -0.0108133 1.88445e-19)
(1.11127 -0.0183122 -4.54073e-19)
(1.10103 -0.0230069 3.89277e-19)
(1.09089 -0.02688 1.24131e-19)
(1.08174 -0.0316743 -2.33451e-19)
(1.07234 -0.0295071 -2.06878e-20)
(-0.140624 0.0971536 6.49913e-19)
(0.0273263 0.0246345 -1.0437e-18)
(0.302046 0.0546847 7.9765e-20)
(0.624718 0.0686542 1.47543e-18)
(0.856976 0.0902192 1.27483e-18)
(1.0111 0.0871648 -7.18368e-19)
(1.09855 0.0842022 5.1706e-19)
(1.14204 0.0708263 -7.00536e-19)
(1.15987 0.0583805 -5.98583e-19)
(1.16282 0.0441019 -2.3552e-19)
(1.15831 0.0313436 3.55535e-19)
(1.15031 0.0190686 -9.52621e-19)
(1.14068 0.0088594 -4.89686e-20)
(1.13045 -0.00101212 3.47838e-19)
(1.12009 -0.00807685 -3.03898e-19)
(1.1097 -0.0156881 -9.8204e-20)
(1.09974 -0.0200356 1.51355e-20)
(1.08988 -0.024474 -2.0287e-19)
(1.08103 -0.0287372 3.89561e-20)
(1.07187 -0.0271718 9.98758e-20)
(-0.14337 0.0946414 -2.23136e-19)
(0.0488054 0.0219575 -2.92007e-19)
(0.351454 0.0597734 1.8075e-18)
(0.678031 0.0756284 -1.11449e-18)
(0.898621 0.096841 -5.78178e-19)
(1.03867 0.0918882 -2.16783e-19)
(1.1144 0.0879072 1.16073e-18)
(1.14965 0.0735426 7.56007e-19)
(1.16242 0.0607877 5.61538e-19)
(1.1626 0.0463244 -7.82106e-19)
(1.15676 0.0335981 -6.09684e-19)
(1.14827 0.0214137 3.04634e-19)
(1.13852 0.0112934 -4.04054e-19)
(1.12843 0.00153657 -6.90657e-19)
(1.11825 -0.00542962 -5.95827e-20)
(1.10814 -0.0131108 -9.14405e-20)
(1.09844 -0.0171591 -2.06447e-19)
(1.08886 -0.0221597 2.75777e-19)
(1.08029 -0.0258339 -9.2223e-20)
(1.07138 -0.0249943 -3.74121e-20)
(-0.145864 0.0914815 -1.5424e-18)
(0.0738406 0.0202906 -1.12299e-18)
(0.402662 0.0660263 -5.14052e-19)
(0.728497 0.0826176 -9.65575e-19)
(0.935872 0.103137 -3.14997e-19)
(1.06214 0.0962439 -5.08442e-19)
(1.12713 0.0913316 -1.00843e-18)
(1.15518 0.0760606 -1.24878e-18)
(1.16374 0.0630757 2.90082e-19)
(1.16173 0.0484668 -5.39275e-20)
(1.1549 0.0357952 1.55948e-19)
(1.14609 0.0237077 6.20175e-19)
(1.13632 0.0136686 2.19673e-19)
(1.12641 0.00403636 6.91832e-19)
(1.11641 -0.00286871 2.49595e-19)
(1.10659 -0.0105736 5.07322e-19)
(1.09712 -0.0143828 1.09255e-19)
(1.08782 -0.0199233 1.72035e-19)
(1.07952 -0.0229632 2.66655e-19)
(1.07083 -0.0229829 4.33233e-20)
(-0.148036 0.0876018 5.07803e-19)
(0.102702 0.0199843 6.84549e-19)
(0.454662 0.0731517 1.3305e-18)
(0.775675 0.0895022 2.2396e-18)
(0.968912 0.109088 -5.11756e-19)
(1.08195 0.100251 4.43548e-19)
(1.1372 0.0945054 7.03552e-19)
(1.15901 0.0784061 9.92548e-19)
(1.16409 0.0652632 -1.81621e-19)
(1.16037 0.0505395 9.65804e-19)
(1.15282 0.0379415 4.52708e-19)
(1.14383 0.0259525 -5.77484e-19)
(1.13411 0.0159887 -4.17634e-19)
(1.12439 0.00648642 8.56923e-21)
(1.11459 -0.00038991 -2.85322e-19)
(1.10505 -0.00807148 -3.17158e-19)
(1.09578 -0.0117128 2.10135e-19)
(1.08677 -0.0177475 3.66079e-19)
(1.07871 -0.0201199 -1.13439e-19)
(1.07025 -0.0211439 -1.88772e-19)
(-0.149802 0.0829294 1.77833e-18)
(0.135494 0.0213458 1.46147e-18)
(0.506467 0.0808264 9.75227e-19)
(0.819318 0.0961991 -1.98732e-18)
(0.997998 0.11469 4.16718e-19)
(1.09853 0.103934 2.25995e-19)
(1.14502 0.0974576 -1.54533e-19)
(1.16147 0.0806028 -1.19483e-19)
(1.1637 0.0673658 4.16086e-19)
(1.15865 0.0525513 -5.9195e-19)
(1.1506 0.0400421 -7.46978e-20)
(1.14153 0.0281495 7.64773e-19)
(1.1319 0.0182572 7.57853e-19)
(1.12238 0.00888542 -1.61516e-19)
(1.11277 0.00201217 4.37293e-19)
(1.10351 -0.00560203 2.13628e-19)
(1.09443 -0.00915528 -1.77532e-19)
(1.08572 -0.015608 -2.93272e-19)
(1.07783 -0.017292 3.10748e-20)
(1.0696 -0.0194882 4.19203e-21)
(-0.151047 0.0773949 -1.13691e-18)
(0.172106 0.0245862 4.15507e-19)
(0.5572 0.0887564 -3.40208e-18)
(0.859342 0.102654 6.83515e-19)
(1.02343 0.119952 -2.01977e-19)
(1.11225 0.107318 -5.9072e-19)
(1.15093 0.100216 -1.23337e-18)
(1.16282 0.0826715 -5.16567e-19)
(1.16272 0.0693967 -1.00776e-18)
(1.15667 0.0545091 5.11213e-19)
(1.14828 0.042101 -2.41708e-19)
(1.1392 0.0302998 -8.32682e-19)
(1.12969 0.0204771 -8.54323e-19)
(1.12038 0.0112319 2.28429e-19)
(1.11097 0.00434382 -2.04862e-19)
(1.10198 -0.00316662 -1.31653e-19)
(1.09307 -0.00671487 9.18229e-20)
(1.08465 -0.0134708 2.04869e-19)
(1.07685 -0.0144702 -8.77399e-20)
(1.06889 -0.0180437 1.35359e-19)
(-0.151634 0.0709625 -1.25612e-18)
(0.212209 0.0297557 1.64291e-18)
(0.606153 0.0967162 1.50533e-18)
(0.89578 0.108834 -1.81607e-18)
(1.04551 0.124891 1.25989e-18)
(1.12349 0.110431 -1.08463e-18)
(1.15525 0.102805 -5.84845e-19)
(1.16328 0.0846306 6.39313e-19)
(1.16131 0.0713671 -1.87706e-19)
(1.1545 0.0564185 -2.72703e-19)
(1.14589 0.0441213 2.08243e-19)
(1.13686 0.0324044 -1.98329e-19)
(1.1275 0.0226505 5.58145e-20)
(1.11839 0.0135245 -3.54646e-19)
(1.10919 0.00661156 -1.04249e-19)
(1.10045 -0.000770377 9.50152e-20)
(1.09171 -0.00438991 -4.79612e-20)
(1.08358 -0.0112949 -3.03243e-19)
(1.07578 -0.0116805 1.40895e-19)
(1.06815 -0.0168666 4.24833e-20)
(-0.151399 0.0636505 1.05345e-18)
(0.255264 0.0367162 -7.75348e-19)
(0.652802 0.104559 2.67883e-19)
(0.928755 0.114723 1.38672e-18)
(1.06457 0.129525 -2.51425e-19)
(1.13259 0.1133 5.94656e-19)
(1.15824 0.105248 -2.43778e-19)
(1.16302 0.0864958 -6.65034e-19)
(1.15955 0.0732858 -8.56109e-20)
(1.15219 0.0582838 3.18459e-19)
(1.14347 0.0461051 -2.33429e-19)
(1.13452 0.0344642 8.15808e-19)
(1.12532 0.0247793 1.45997e-19)
(1.11641 0.0157625 2.57264e-19)
(1.10742 0.00882138 2.70958e-19)
(1.09891 0.00157902 -4.35157e-19)
(1.09036 -0.00216812 -1.29479e-19)
(1.08249 -0.00905079 1.47816e-19)
(1.07463 -0.00902666 1.82704e-19)
(1.06739 -0.0159881 -1.85369e-19)
(-0.150151 0.0555484 -1.07428e-18)
(0.300572 0.0451511 -1.97371e-18)
(0.696798 0.112205 -2.1324e-19)
(0.958439 0.120314 5.62421e-19)
(1.08089 0.133878 2.34773e-19)
(1.13982 0.115949 6.63071e-19)
(1.16013 0.107565 3.01731e-19)
(1.16221 0.0882808 7.02088e-19)
(1.15754 0.0751603 -6.28555e-19)
(1.14979 0.0601087 -2.36731e-19)
(1.14102 0.0480543 1.89356e-19)
(1.13218 0.0364799 -8.0408e-19)
(1.12315 0.0268648 4.94314e-19)
(1.11444 0.0179458 -2.76268e-19)
(1.10566 0.010978 -2.83319e-19)
(1.09737 0.00387423 1.08503e-19)
(1.08902 -2.77873e-05 1.38013e-19)
(1.08139 -0.00674903 9.63566e-20)
(1.07353 -0.00667951 -9.35335e-20)
(1.06657 -0.0154976 1.64715e-19)
(-0.147665 0.0468339 1.26122e-18)
(0.347354 0.054611 1.08302e-18)
(0.737934 0.119618 8.55581e-19)
(0.985036 0.125609 -2.05794e-18)
(1.09478 0.137972 -1.22404e-18)
(1.14545 0.118403 -1.35139e-18)
(1.1611 0.109774 2.45364e-19)
(1.16094 0.0899973 -6.40637e-19)
(1.15535 0.0769965 2.33482e-19)
(1.14733 0.061896 -2.85624e-19)
(1.13856 0.0499701 -1.76526e-19)
(1.12985 0.0384528 1.85924e-19)
(1.12099 0.0289083 -6.77972e-19)
(1.11248 0.0200749 3.88699e-19)
(1.10391 0.0130847 9.16572e-20)
(1.09584 0.0061111 2.10933e-19)
(1.08769 0.00205261 -1.77626e-19)
(1.08026 -0.00445359 5.25598e-20)
(1.07251 -0.00475737 -1.25305e-19)
(1.06588 -0.0122293 -4.23686e-20)
(-0.143687 0.0377824 1.14427e-18)
(0.394833 0.0645858 -3.69412e-19)
(0.776123 0.126788 -1.37212e-18)
(1.00876 0.130612 1.22649e-18)
(1.10649 0.14183 2.13106e-19)
(1.14972 0.120683 1.74711e-18)
(1.16132 0.111892 -9.04945e-19)
(1.15933 0.0916547 4.6734e-19)
(1.15301 0.0787988 9.29521e-19)
(1.14483 0.0636478 1.03373e-19)
(1.1361 0.0518533 1.87805e-19)
(1.12754 0.0403832 7.69336e-19)
(1.11885 0.0309102 2.04869e-19)
(1.11054 0.0221504 -2.18599e-19)
(1.10217 0.0151434 -1.77812e-19)
(1.09431 0.00828837 -2.53061e-19)
(1.08636 0.00408178 1.98153e-19)
(1.07913 -0.0022428 -1.73085e-19)
(1.07158 -0.00259048 8.36613e-20)
(1.06511 -0.0103786 1.31057e-19)
(-0.137937 0.0287698 -1.84289e-18)
(0.442309 0.0745844 -1.43622e-18)
(0.811367 0.133717 -2.00729e-18)
(1.02984 0.135332 1.88885e-18)
(1.11627 0.145474 1.10836e-18)
(1.15283 0.122811 -1.37467e-18)
(1.16093 0.113932 1.11561e-18)
(1.15745 0.0932611 7.01702e-19)