/*--------------------------------*- C++ -*----------------------------------*\
  =========                 |
  \\      /  F ield         | OpenFOAM: The Open Source CFD Toolbox
   \\    /   O peration     | Website:  https://openfoam.org
    \\  /    A nd           | Version:  7
     \\/     M anipulation  |
\*---------------------------------------------------------------------------*/
FoamFile
{
    version     2.0;
    format      ascii;
    class       volScalarField;
    location    "88";
    object      p;
}
// * * * * * * * * * * * * * * * * * * * * * * * * * * * * * * * * * * * * * //

dimensions      [0 2 -2 0 0 0 0];

internalField   nonuniform List<scalar> 
34000
(
-0.514134
-0.512782
-0.505718
-0.483468
-0.465375
-0.405266
-0.335278
-0.272848
-0.235991
-0.218927
-0.220972
-0.231695
-0.221599
-0.190905
-0.165381
-0.145211
-0.127908
-0.125029
-0.133782
-0.140491
-0.519961
-0.520589
-0.503634
-0.470717
-0.447504
-0.390445
-0.326408
-0.270071
-0.237992
-0.225441
-0.231888
-0.245134
-0.231393
-0.195116
-0.164947
-0.142901
-0.124408
-0.119859
-0.129596
-0.137663
-0.526103
-0.528521
-0.50139
-0.457738
-0.428872
-0.374522
-0.316424
-0.266381
-0.239095
-0.231305
-0.242168
-0.257281
-0.239554
-0.198231
-0.16369
-0.139961
-0.120969
-0.115377
-0.126032
-0.134627
-0.532562
-0.536557
-0.499009
-0.444686
-0.409653
-0.35763
-0.305391
-0.26173
-0.23922
-0.23639
-0.251829
-0.26799
-0.245959
-0.200135
-0.161641
-0.136383
-0.117434
-0.111301
-0.1228
-0.131305
-0.539339
-0.544664
-0.496516
-0.431678
-0.39002
-0.339913
-0.293392
-0.256079
-0.238294
-0.240569
-0.260885
-0.277192
-0.250558
-0.200743
-0.158859
-0.13217
-0.113658
-0.107427
-0.119693
-0.127656
-0.546423
-0.552806
-0.493935
-0.418809
-0.370138
-0.321527
-0.28052
-0.249392
-0.236252
-0.243695
-0.269246
-0.28478
-0.253316
-0.200001
-0.155415
-0.127344
-0.109506
-0.103625
-0.116568
-0.123667
-0.553801
-0.560941
-0.491286
-0.406166
-0.350194
-0.302638
-0.266881
-0.24164
-0.233034
-0.245576
-0.276682
-0.290561
-0.254194
-0.197896
-0.151376
-0.121947
-0.104845
-0.0997584
-0.11324
-0.119279
-0.561451
-0.569022
-0.488588
-0.393818
-0.330392
-0.283413
-0.252585
-0.232803
-0.228595
-0.246009
-0.282875
-0.294282
-0.253168
-0.194459
-0.146788
-0.116048
-0.0995577
-0.0955721
-0.109365
-0.114275
-0.569347
-0.576997
-0.485855
-0.381813
-0.310939
-0.264014
-0.237739
-0.222868
-0.222889
-0.244835
-0.287506
-0.295716
-0.250254
-0.189774
-0.141666
-0.109735
-0.0935785
-0.0906424
-0.104375
-0.108174
-0.577453
-0.584814
-0.483094
-0.370184
-0.292028
-0.244594
-0.222444
-0.211826
-0.215872
-0.241993
-0.290303
-0.294729
-0.245529
-0.183973
-0.136011
-0.103118
-0.0869125
-0.0844399
-0.097555
-0.1003
-0.585733
-0.592421
-0.480307
-0.358946
-0.273821
-0.225288
-0.206782
-0.199676
-0.207484
-0.237538
-0.291058
-0.291293
-0.239124
-0.177228
-0.129843
-0.0963257
-0.079636
-0.0765005
-0.0882381
-0.0895421
-0.594144
-0.599766
-0.477489
-0.348104
-0.25644
-0.206218
-0.190814
-0.186422
-0.197651
-0.231621
-0.289604
-0.285471
-0.231216
-0.169739
-0.123228
-0.0894982
-0.0719061
-0.0666459
-0.0761384
-0.0756865
-0.602638
-0.606801
-0.47463
-0.337659
-0.239954
-0.187495
-0.174575
-0.172082
-0.186293
-0.224456
-0.285808
-0.277403
-0.222014
-0.161711
-0.116297
-0.0827754
-0.0639782
-0.0551827
-0.0616114
-0.0589935
-0.611168
-0.613485
-0.471714
-0.327618
-0.224381
-0.169227
-0.158059
-0.156692
-0.173342
-0.216312
-0.279602
-0.267298
-0.211756
-0.153335
-0.109231
-0.0762861
-0.0562009
-0.0429551
-0.0457541
-0.0405611
-0.619682
-0.61978
-0.468729
-0.317997
-0.20969
-0.151513
-0.141223
-0.140314
-0.158785
-0.207483
-0.271014
-0.255433
-0.200704
-0.144783
-0.102232
-0.0701378
-0.0489612
-0.0312416
-0.0303157
-0.0223445
-0.628129
-0.625658
-0.465665
-0.308822
-0.195816
-0.134437
-0.123979
-0.123039
-0.14272
-0.198239
-0.260206
-0.242141
-0.189132
-0.136203
-0.0954753
-0.0644151
-0.0425668
-0.0213816
-0.0171219
-0.00676078
-0.636456
-0.631096
-0.462519
-0.30013
-0.182676
-0.118042
-0.106206
-0.104985
-0.125416
-0.188749
-0.247466
-0.227794
-0.177307
-0.127732
-0.0890799
-0.0591901
-0.0371052
-0.0142113
-0.00721288
0.00441356
-0.644616
-0.636093
-0.459278
-0.291958
-0.170194
-0.102321
-0.0877889
-0.0862938
-0.107374
-0.179022
-0.23317
-0.21278
-0.165477
-0.119495
-0.0831038
-0.0545239
-0.0325068
-0.00968505
-0.000503626
0.0109474
-0.652559
-0.640672
-0.455912
-0.284347
-0.158329
-0.0872131
-0.0686932
-0.0671349
-0.0893461
-0.168913
-0.217743
-0.197483
-0.15386
-0.111598
-0.0775698
-0.0504421
-0.0287226
-0.00722529
0.00359467
0.0138166
-0.660241
-0.644822
-0.452428
-0.277327
-0.14712
-0.0726427
-0.049094
-0.0477538
-0.0722854
-0.158223
-0.201618
-0.182266
-0.14264
-0.104123
-0.0724892
-0.0469203
-0.0257461
-0.00609761
0.005776
0.0144598
-0.66762
-0.648514
-0.448875
-0.270948
-0.136629
-0.0586011
-0.0294754
-0.0285583
-0.0571713
-0.146837
-0.185228
-0.167447
-0.131965
-0.0971243
-0.0678664
-0.0439064
-0.0235271
-0.00573221
0.00659885
0.0139253
-0.674661
-0.651824
-0.445286
-0.265252
-0.127
-0.0452391
-0.0106302
-0.0102009
-0.0447369
-0.134834
-0.168983
-0.153292
-0.121942
-0.090631
-0.0636925
-0.0413448
-0.0219501
-0.00581633
0.00646776
0.0127958
-0.68133
-0.654779
-0.441667
-0.260277
-0.118412
-0.0329253
0.00620452
0.00642396
-0.035223
-0.122506
-0.153261
-0.140004
-0.112645
-0.0846557
-0.0599462
-0.039182
-0.0208794
-0.00619148
0.00569203
0.0113434
-0.687598
-0.657411
-0.438038
-0.256051
-0.111046
-0.0222012
0.0201179
0.0203378
-0.0283258
-0.110264
-0.138386
-0.127724
-0.104108
-0.0791953
-0.0565991
-0.0373643
-0.0201958
-0.00676444
0.00451144
0.00970542
-0.693435
-0.659784
-0.434418
-0.252586
-0.105049
-0.0136348
0.0304909
0.0307734
-0.0233535
-0.0985268
-0.124618
-0.116531
-0.0963401
-0.0742349
-0.0536192
-0.0358403
-0.0198044
-0.00747087
0.0031018
0.00797116
-0.698827
-0.661962
-0.430825
-0.24988
-0.100503
-0.00763066
0.0371866
0.0374239
-0.0196907
-0.0876518
-0.112136
-0.106453
-0.0893261
-0.0697513
-0.0509738
-0.034564
-0.0196309
-0.00826323
0.00158514
0.00620414
-0.703875
-0.663881
-0.427282
-0.247912
-0.0974186
-0.00430184
0.04048
0.0405392
-0.0169346
-0.0779011
-0.101034
-0.0974741
-0.0830339
-0.0657163
-0.0486302
-0.0334957
-0.0196178
-0.0091052
4.34896e-05
0.00445207
-0.708442
-0.665693
-0.42381
-0.246648
-0.0957353
-0.00346818
0.0408695
0.040703
-0.0149278
-0.0694305
-0.0913268
-0.0895453
-0.0774208
-0.0620986
-0.0465579
-0.0326019
-0.0197204
-0.0099687
-0.0014704
0.00275072
-0.712525
-0.667462
-0.420428
-0.24604
-0.0953449
-0.00475886
0.0389125
0.0386139
-0.0136525
-0.0622898
-0.0829629
-0.0825974
-0.0724378
-0.0588664
-0.0447286
-0.0318546
-0.0199048
-0.0108322
-0.00292453
0.00112507
-0.716138
-0.669241
-0.417159
-0.246033
-0.0961075
-0.00774221
0.0351319
0.034906
-0.0131186
-0.0564397
-0.0758471
-0.0765492
-0.0680341
-0.055988
-0.0431169
-0.0312306
-0.0201448
-0.0116794
-0.00430118
-0.000409021
-0.719286
-0.67108
-0.414024
-0.246564
-0.0978695
-0.0120157
0.029981
0.0300846
-0.0133038
-0.0517796
-0.0698604
-0.0713158
-0.0641587
-0.0534331
-0.0416996
-0.0307107
-0.0204214
-0.0124985
-0.00559236
-0.00184318
-0.721968
-0.673019
-0.411045
-0.247564
-0.100477
-0.017242
0.0238369
0.02453
-0.0141441
-0.0481773
-0.0648762
-0.0668135
-0.0607626
-0.051173
-0.0404565
-0.030279
-0.02072
-0.0132813
-0.00679619
-0.00317428
-0.724184
-0.675081
-0.408243
-0.248962
-0.103784
-0.0231496
0.0170049
0.018523
-0.015549
-0.0454921
-0.0607711
-0.0629627
-0.0577994
-0.0491809
-0.0393692
-0.0299222
-0.0210306
-0.0140227
-0.00791449
-0.00440162
-0.725929
-0.67727
-0.405636
-0.250685
-0.107659
-0.0295227
0.00972778
0.0122691
-0.0174196
-0.0435889
-0.0574306
-0.05969
-0.055226
-0.0474319
-0.0384212
-0.0296295
-0.021346
-0.0147199
-0.0089519
-0.00553068
-0.727197
-0.679568
-0.403243
-0.252661
-0.111982
-0.0361888
0.00219609
0.00591837
-0.0196602
-0.0423449
-0.0547509
-0.056928
-0.0530023
-0.0459033
-0.0375978
-0.0293923
-0.0216612
-0.0153713
-0.0099153
-0.00657229
-0.727979
-0.681931
-0.401077
-0.254822
-0.11665
-0.0430101
-0.00544164
-0.000420371
-0.0221848
-0.0416517
-0.05264
-0.0546157
-0.0510916
-0.0445739
-0.0368857
-0.0292037
-0.0219722
-0.0159764
-0.0108122
-0.00752176
-0.728261
-0.684284
-0.399151
-0.257102
-0.121571
-0.0498763
-0.0130705
-0.00666892
-0.0249184
-0.0414149
-0.0510164
-0.0526983
-0.0494603
-0.0434243
-0.0362729
-0.0290584
-0.0222749
-0.0165378
-0.0116512
-0.00837191
-0.728029
-0.686524
-0.39747
-0.25944
-0.126664
-0.0567
-0.0206022
-0.0127717
-0.0277973
-0.0415532
-0.0498091
-0.0511266
-0.0480778
-0.0424364
-0.0357486
-0.028952
-0.0225655
-0.0170626
-0.0124381
-0.00910946
-0.727269
-0.688518
-0.396036
-0.26178
-0.13186
-0.0634122
-0.0279701
-0.0186901
-0.0307684
-0.0419968
-0.0489557
-0.0498565
-0.0469164
-0.0415934
-0.0353037
-0.0288799
-0.0228409
-0.0175606
-0.013169
-0.00974091
-0.725968
-0.69011
-0.394845
-0.26407
-0.137099
-0.0699592
-0.0351244
-0.0243975
-0.0337872
-0.0426862
-0.0484019
-0.0488489
-0.0459506
-0.0408799
-0.0349299
-0.0288374
-0.023101
-0.0180384
-0.0138301
-0.0103523
-0.724119
-0.691126
-0.393889
-0.266267
-0.142327
-0.0762996
-0.0420286
-0.0298769
-0.0368174
-0.0435704
-0.0481005
-0.0480686
-0.0451575
-0.0402816
-0.0346197
-0.0288196
-0.0233476
-0.0184949
-0.0144219
-0.011034
-0.721726
-0.691384
-0.393153
-0.26833
-0.147501
-0.0824019
-0.048657
-0.0351174
-0.0398294
-0.0446062
-0.0480101
-0.0474843
-0.0445161
-0.0397853
-0.034366
-0.0288221
-0.0235827
-0.0189259
-0.0149736
-0.0116928
-0.718807
-0.69071
-0.392616
-0.270226
-0.15258
-0.0882433
-0.0549922
-0.0401132
-0.042799
-0.0457566
-0.0480947
-0.0470682
-0.0440074
-0.0393789
-0.0341625
-0.0288412
-0.0238072
-0.01933
-0.0154864
-0.0123027
-0.7154
-0.688947
-0.392255
-0.271929
-0.157532
-0.0938075
-0.0610232
-0.0448621
-0.0457064
-0.04699
-0.0483227
-0.0467953
-0.043614
-0.0390513
-0.0340028
-0.0288736
-0.0240216
-0.0197058
-0.0159618
-0.0128647
-0.711566
-0.685978
-0.392043
-0.273418
-0.16233
-0.0990836
-0.0667443
-0.049364
-0.0485361
-0.0482795
-0.0486668
-0.0466435
-0.0433201
-0.0387922
-0.0338813
-0.0289164
-0.0242257
-0.020053
-0.0163997
-0.0133808
-0.707387
-0.681731
-0.391952
-0.274678
-0.166949
-0.104065
-0.0721535
-0.0536211
-0.0512753
-0.0496024
-0.0491029
-0.0465929
-0.0431113
-0.0385923
-0.0337923
-0.028967
-0.024419
-0.0203721
-0.0168022
-0.0138494
-0.702971
-0.676194
-0.391951
-0.275698
-0.171371
-0.108749
-0.077252
-0.0576363
-0.0539141
-0.0509391
-0.0496099
-0.0466259
-0.0429747
-0.0384429
-0.0337307
-0.0290229
-0.0246011
-0.020664
-0.0171697
-0.0142756
-0.698444
-0.669414
-0.392014
-0.276476
-0.175579
-0.113136
-0.082043
-0.0614138
-0.0564447
-0.0522731
-0.0501695
-0.0467266
-0.0428982
-0.0383359
-0.0336915
-0.029082
-0.0247711
-0.0209295
-0.0175044
-0.0146604
-0.693944
-0.661493
-0.392114
-0.27701
-0.179562
-0.117226
-0.0865317
-0.0649581
-0.0588608
-0.0535903
-0.0507654
-0.046881
-0.0428712
-0.038264
-0.0336703
-0.029142
-0.0249285
-0.0211696
-0.0178071
-0.0150079
-0.689612
-0.652581
-0.392228
-0.277304
-0.18331
-0.121025
-0.0907243
-0.0682743
-0.0611578
-0.0548786
-0.0513837
-0.0470764
-0.0428837
-0.0382204
-0.0336627
-0.0292008
-0.0250726
-0.0213851
-0.0180795
-0.01532
-0.685587
-0.642857
-0.392335
-0.277365
-0.186815
-0.124536
-0.0946278
-0.0713677
-0.0633323
-0.0561278
-0.052012
-0.0473014
-0.0429269
-0.0381986
-0.0336647
-0.0292565
-0.0252026
-0.0215766
-0.0183228
-0.0155991
-0.68199
-0.632514
-0.392418
-0.277202
-0.190073
-0.127766
-0.0982499
-0.0742436
-0.0653816
-0.0573294
-0.0526394
-0.0475461
-0.0429926
-0.0381931
-0.0336726
-0.0293072
-0.0253178
-0.0217448
-0.0185384
-0.015847
-0.678926
-0.621742
-0.392462
-0.276825
-0.193082
-0.13072
-0.101599
-0.0769077
-0.067304
-0.0584759
-0.0532564
-0.0478013
-0.0430735
-0.0381983
-0.0336828
-0.029351
-0.0254177
-0.0218902
-0.0187274
-0.0160653
-0.676475
-0.610717
-0.392455
-0.276243
-0.19584
-0.133406
-0.104682
-0.0793652
-0.0690986
-0.0595612
-0.0538549
-0.0480591
-0.0431628
-0.0382093
-0.0336922
-0.0293862
-0.0255015
-0.0220131
-0.0188906
-0.0162553
-0.674691
-0.599592
-0.392386
-0.275469
-0.198348
-0.135831
-0.107508
-0.0816217
-0.0707647
-0.0605802
-0.0544275
-0.0483123
-0.0432545
-0.0382217
-0.0336976
-0.0294111
-0.0255685
-0.0221139
-0.0190291
-0.016418
-0.673607
-0.588492
-0.392248
-0.274513
-0.200607
-0.138001
-0.110084
-0.0836826
-0.0723024
-0.0615284
-0.0549679
-0.0485544
-0.043343
-0.0382312
-0.0336963
-0.029424
-0.025618
-0.0221927
-0.0191433
-0.0165544
-0.673233
-0.577513
-0.392031
-0.273387
-0.202621
-0.139925
-0.112419
-0.0855529
-0.0737119
-0.0624023
-0.0554707
-0.0487799
-0.0434235
-0.0382341
-0.0336856
-0.0294235
-0.0256494
-0.0222498
-0.019234
-0.016665
-0.673561
-0.566729
-0.391729
-0.272099
-0.204391
-0.141609
-0.114521
-0.0872379
-0.0749939
-0.063199
-0.055931
-0.0489835
-0.0434913
-0.0382267
-0.0336632
-0.0294081
-0.025662
-0.0222853
-0.0193014
-0.0167504
-0.674569
-0.556188
-0.391335
-0.270658
-0.205923
-0.143061
-0.116396
-0.0887425
-0.0761493
-0.0639159
-0.0563449
-0.0491609
-0.0435425
-0.038206
-0.0336266
-0.0293765
-0.0256552
-0.0222992
-0.0193459
-0.0168112
-0.676223
-0.545924
-0.390842
-0.269073
-0.207219
-0.144288
-0.118051
-0.0900715
-0.077179
-0.0645512
-0.0567086
-0.0493079
-0.0435734
-0.0381691
-0.033574
-0.0293272
-0.0256284
-0.0222915
-0.0193678
-0.0168477
-0.678478
-0.535956
-0.390244
-0.26735
-0.208284
-0.145296
-0.119495
-0.0912296
-0.0780845
-0.0651033
-0.0570191
-0.0494212
-0.0435807
-0.0381132
-0.0335033
-0.0292592
-0.0255809
-0.0222622
-0.0193673
-0.0168605
-0.681283
-0.526291
-0.389535
-0.265496
-0.209122
-0.146093
-0.120733
-0.0922213
-0.078867
-0.0655711
-0.0572739
-0.0494976
-0.0435616
-0.038036
-0.0334129
-0.0291713
-0.0255122
-0.0222112
-0.0193445
-0.0168497
-0.684583
-0.51693
-0.388709
-0.263514
-0.209738
-0.146684
-0.121771
-0.0930509
-0.0795281
-0.0659537
-0.0574708
-0.0495345
-0.0435133
-0.0379353
-0.033301
-0.0290624
-0.0254219
-0.0221385
-0.0192994
-0.016816
-0.688315
-0.507866
-0.387759
-0.261409
-0.210137
-0.147075
-0.122617
-0.0937227
-0.0800694
-0.0662507
-0.0576078
-0.0495293
-0.0434336
-0.0378092
-0.0331663
-0.0289315
-0.0253094
-0.0220439
-0.0192322
-0.0167597
-0.692415
-0.499088
-0.386681
-0.259184
-0.210322
-0.147273
-0.123274
-0.0942408
-0.0804926
-0.0664616
-0.0576836
-0.0494802
-0.0433204
-0.037656
-0.0330075
-0.0287778
-0.0251742
-0.0219274
-0.0191429
-0.016681
-0.696817
-0.490579
-0.385467
-0.256843
-0.210298
-0.147282
-0.12375
-0.0946089
-0.0807994
-0.0665864
-0.0576968
-0.0493854
-0.0431719
-0.037474
-0.0328232
-0.0286005
-0.025016
-0.0217887
-0.0190314
-0.0165805
-0.701454
-0.482323
-0.38411
-0.254386
-0.210069
-0.147109
-0.12405
-0.094831
-0.0809915
-0.0666252
-0.0576465
-0.0492433
-0.0429866
-0.0372619
-0.0326126
-0.0283987
-0.0248344
-0.0216278
-0.0188978
-0.0164583
-0.706256
-0.4743
-0.382606
-0.251816
-0.20964
-0.146757
-0.124177
-0.0949106
-0.0810709
-0.0665782
-0.0575319
-0.0490526
-0.0427631
-0.0370185
-0.0323745
-0.0281719
-0.024629
-0.0214446
-0.018742
-0.0163147
-0.711154
-0.466488
-0.380946
-0.249133
-0.209014
-0.146232
-0.124138
-0.0948512
-0.0810394
-0.0664458
-0.0573526
-0.0488125
-0.0425002
-0.0367428
-0.0321081
-0.0279194
-0.0243996
-0.0212388
-0.018564
-0.01615
-0.716081
-0.458865
-0.379123
-0.246336
-0.208195
-0.145538
-0.123937
-0.0946562
-0.0808989
-0.0662286
-0.0571083
-0.048522
-0.042197
-0.0364338
-0.0318128
-0.0276408
-0.0241459
-0.0210104
-0.0183638
-0.0159643
-0.720968
-0.451407
-0.377133
-0.243426
-0.207186
-0.144679
-0.123579
-0.0943288
-0.0806513
-0.0659271
-0.0567987
-0.0481805
-0.0418527
-0.0360908
-0.0314879
-0.0273356
-0.0238676
-0.0207592
-0.0181414
-0.0157578
-0.725749
-0.44409
-0.374966
-0.240402
-0.205993
-0.143658
-0.123068
-0.0938721
-0.0802985
-0.0655422
-0.0564239
-0.0477875
-0.0414667
-0.0357131
-0.0311329
-0.0270035
-0.0235647
-0.0204852
-0.0178968
-0.0155307
-0.73036
-0.43689
-0.372619
-0.237262
-0.204617
-0.14248
-0.122407
-0.0932892
-0.0798424
-0.0650746
-0.0559841
-0.0473426
-0.0410384
-0.0353002
-0.0307473
-0.0266441
-0.0232369
-0.0201882
-0.0176302
-0.0152833
-0.734738
-0.429783
-0.370083
-0.234005
-0.203064
-0.141147
-0.121602
-0.092583
-0.0792851
-0.0645251
-0.0554797
-0.0468457
-0.0405676
-0.0348516
-0.0303307
-0.0262572
-0.0228842
-0.0198682
-0.0173416
-0.0150158
-0.738822
-0.422745
-0.367353
-0.230629
-0.201336
-0.139662
-0.120657
-0.0917562
-0.0786287
-0.0638944
-0.0549113
-0.0462966
-0.040054
-0.0343671
-0.0298831
-0.0258428
-0.0225066
-0.0195252
-0.0170312
-0.0147285
-0.742554
-0.415751
-0.364423
-0.227131
-0.199436
-0.138028
-0.119575
-0.0908108
-0.0778757
-0.0631833
-0.0542793
-0.0456953
-0.0394977
-0.0338467
-0.029404
-0.0254007
-0.0221038
-0.0191593
-0.0166991
-0.014422
-0.745879
-0.408778
-0.361288
-0.223508
-0.19737
-0.136246
-0.118363
-0.0897485
-0.0770286
-0.0623929
-0.0535843
-0.0450426
-0.0388981
-0.0332902
-0.0288935
-0.0249308
-0.0216759
-0.0187706
-0.0163456
-0.0140963
-0.748745
-0.401803
-0.357944
-0.219757
-0.195142
-0.134316
-0.117025
-0.0885722
-0.0760879
-0.0615257
-0.0528263
-0.0443396
-0.0382547
-0.0326974
-0.0283516
-0.0244333
-0.0212229
-0.018359
-0.0159712
-0.0137507
-0.751102
-0.394803
-0.354386
-0.215874
-0.192758
-0.13224
-0.115565
-0.0872877
-0.0750523
-0.0605846
-0.0520062
-0.0435861
-0.0375688
-0.0320672
-0.027779
-0.0239076
-0.0207456
-0.0179242
-0.0155771
-0.0133827
-0.752904
-0.387756
-0.350612
-0.211854
-0.190224
-0.130023
-0.11398
-0.0859013
-0.073923
-0.0595676
-0.051129
-0.042778
-0.0368448
-0.031398
-0.0271775
-0.0233524
-0.0202451
-0.0174656
-0.0151657
-0.0129886
-0.754108
-0.380641
-0.346618
-0.207692
-0.187541
-0.127671
-0.112275
-0.0844064
-0.0727154
-0.0584606
-0.0502067
-0.041907
-0.0360882
-0.0306883
-0.0265487
-0.0227662
-0.0197229
-0.0169837
-0.0147372
-0.0125682
-0.754674
-0.373437
-0.342405
-0.203387
-0.184707
-0.125174
-0.110484
-0.082763
-0.0714681
-0.0572438
-0.0492535
-0.0409678
-0.0352992
-0.0299406
-0.025891
-0.0221513
-0.0191773
-0.0164812
-0.0142859
-0.01213
-0.754566
-0.366124
-0.337973
-0.198929
-0.181741
-0.122474
-0.108679
-0.0809117
-0.0702203
-0.0559228
-0.0482603
-0.0399756
-0.0344649
-0.0291659
-0.0251953
-0.0215186
-0.0186004
-0.0159634
-0.013803
-0.0116844
-0.753751
-0.358678
-0.333321
-0.194288
-0.178727
-0.119481
-0.106906
-0.0788806
-0.068921
-0.0545646
-0.0471649
-0.0389749
-0.0335695
-0.0283675
-0.024463
-0.020863
-0.0179981
-0.0154252
-0.0132948
-0.0112272
-0.752199
-0.351083
-0.328444
-0.189403
-0.175794
-0.116195
-0.105037
-0.0768265
-0.0674707
-0.0532074
-0.0459765
-0.0379488
-0.0326236
-0.0275393
-0.0236992
-0.0201813
-0.0173734
-0.0148643
-0.0127662
-0.0107544
-0.749885
-0.343324
-0.323354
-0.184235
-0.172912
-0.112837
-0.102885
-0.0748173
-0.0658498
-0.0518283
-0.0447138
-0.0368846
-0.031636
-0.0266771
-0.0229069
-0.0194725
-0.0167272
-0.0142804
-0.0122194
-0.0102641
-0.746786
-0.335384
-0.318114
-0.17888
-0.169653
-0.109635
-0.100495
-0.0728097
-0.0640999
-0.0504074
-0.0433915
-0.0357753
-0.0306116
-0.0257797
-0.0220874
-0.0187372
-0.0160595
-0.0136744
-0.0116551
-0.0097561
-0.742883
-0.32722
-0.312843
-0.173387
-0.166023
-0.106476
-0.0979149
-0.0707691
-0.0622508
-0.048932
-0.0420181
-0.0346182
-0.0295528
-0.0248475
-0.0212411
-0.0179762
-0.0153702
-0.0130475
-0.0110733
-0.00923091
-0.738159
-0.31873
-0.307558
-0.167771
-0.162097
-0.103308
-0.0951824
-0.0686748
-0.0603192
-0.0473959
-0.0405983
-0.0334137
-0.0284603
-0.0238817
-0.0203681
-0.0171905
-0.0146594
-0.0124004
-0.0104741
-0.00868922
-0.732601
-0.309828
-0.301907
-0.162343
-0.157929
-0.100095
-0.0923211
-0.0665141
-0.0583166
-0.045797
-0.0391345
-0.0321631
-0.0273345
-0.0228838
-0.0194687
-0.016381
-0.0139276
-0.011734
-0.00985774
-0.00813172
-0.726202
-0.300665
-0.295911
-0.156946
-0.153555
-0.0968187
-0.0893484
-0.0642804
-0.0562501
-0.0441354
-0.037628
-0.0308684
-0.0261756
-0.0218552
-0.0185434
-0.0155483
-0.0131752
-0.0110488
-0.00922446
-0.00755908
-0.718959
-0.291518
-0.289408
-0.151525
-0.148999
-0.093466
-0.0862767
-0.0619703
-0.0541243
-0.0424128
-0.0360796
-0.0295317
-0.0249841
-0.0207969
-0.0175928
-0.0146934
-0.0124028
-0.0103455
-0.00857474
-0.00697193
-0.710871
-0.282287
-0.282496
-0.146045
-0.144278
-0.09003
-0.0831153
-0.0595832
-0.0519427
-0.0406316
-0.03449
-0.0281551
-0.0237605
-0.0197101
-0.0166175
-0.0138168
-0.011611
-0.00962463
-0.0079091
-0.00637085
-0.70194
-0.272914
-0.275228
-0.140487
-0.139407
-0.0865061
-0.0798714
-0.0571196
-0.0497076
-0.0387945
-0.03286
-0.0267405
-0.0225058
-0.0185959
-0.0156183
-0.0129192
-0.0108004
-0.00888678
-0.0072281
-0.00575648
-0.692195
-0.263345
-0.267638
-0.134836
-0.134397
-0.0828923
-0.0765506
-0.0545817
-0.047421
-0.0369042
-0.0311905
-0.0252896
-0.0212208
-0.0174554
-0.0145962
-0.0120015
-0.00997187
-0.0081326
-0.00653237
-0.00512952
-0.681702
-0.253502
-0.25975
-0.129085
-0.129257
-0.0791881
-0.0731575
-0.0519717
-0.0450847
-0.0349635
-0.0294826
-0.0238041
-0.0199067
-0.0162895
-0.0135519
-0.0110644
-0.00912596
-0.00736273
-0.00582258
-0.00449067
-0.670524
-0.243333
-0.251581
-0.12323
-0.123997
-0.0753943
-0.0696963
-0.0492927
-0.0427004
-0.0329751
-0.0277377
-0.0222857
-0.0185646
-0.0150993
-0.0124865
-0.0101087
-0.00826342
-0.00657788
-0.00509941
-0.00384054
-0.658538
-0.232943
-0.243146
-0.117268
-0.118622
-0.0715125
-0.0661703
-0.0465479
-0.0402698
-0.0309418
-0.0259571
-0.0207359
-0.0171957
-0.0138859
-0.0114008
-0.00913527
-0.007385
-0.00577876
-0.00436355
-0.00317947
-0.645469
-0.222566
-0.234461
-0.111198
-0.113139
-0.067545
-0.0625828
-0.0437406
-0.0377948
-0.028866
-0.0241424
-0.0191564
-0.0158013
-0.0126504
-0.0102958
-0.0081449
-0.00649148
-0.00496608
-0.00361562
-0.0025078
-0.63147
-0.212098
-0.225535
-0.105021
-0.107556
-0.0634948
-0.058937
-0.0408743
-0.0352771
-0.0267503
-0.0222951
-0.0175487
-0.0143827
-0.0113939
-0.00917262
-0.00713848
-0.00558362
-0.00414055
-0.0028562
-0.00182623
-0.616614
-0.201489
-0.216382
-0.0987362
-0.101877
-0.059365
-0.0552358
-0.0379525
-0.0327189
-0.0245971
-0.0204171
-0.0159144
-0.0129413
-0.0101175
-0.00803215
-0.00611691
-0.00466221
-0.00330282
-0.00208599
-0.00113618
-0.600935
-0.190719
-0.207011
-0.0923463
-0.0961081
-0.0551593
-0.0514823
-0.0349786
-0.0301222
-0.0224088
-0.0185101
-0.0142552
-0.0114784
-0.0088226
-0.00687549
-0.0050811
-0.00372803
-0.00245363
-0.00130587
-0.000439134
-0.584467
-0.179777
-0.197433
-0.0858537
-0.0902549
-0.0508817
-0.0476795
-0.0319562
-0.0274892
-0.0201879
-0.0165758
-0.0125725
-0.00999536
-0.00751023
-0.00570369
-0.00403197
-0.00278192
-0.00159383
-0.000516777
0.000264781
-0.56724
-0.168659
-0.18766
-0.0792616
-0.0843228
-0.0465361
-0.0438305
-0.0288887
-0.0248223
-0.0179367
-0.0146162
-0.0108682
-0.00849364
-0.00618167
-0.00451784
-0.00297048
-0.00182477
-0.000724361
0.000280508
0.000977359
-0.549285
-0.157364
-0.177702
-0.0725737
-0.0783171
-0.0421269
-0.0399384
-0.0257795
-0.0221238
-0.0156575
-0.0126331
-0.0091438
-0.00697467
-0.00483817
-0.00331901
-0.00189757
-0.000857454
0.00015392
0.0010856
0.00169988
-0.530634
-0.145895
-0.16757
-0.0657943
-0.0722434
-0.0376585
-0.0360064
-0.0226322
-0.0193962
-0.0133528
-0.0106286
-0.00740104
-0.00543988
-0.003481
-0.00210832
-0.000814204
0.000119188
0.00104048
0.00189826
0.0024293
-0.511318
-0.134255
-0.157275
-0.0589284
-0.0661072
-0.0331353
-0.032038
-0.0194502
-0.0166421
-0.0110248
-0.00860445
-0.00564161
-0.00389077
-0.00211145
-0.000886902
0.00027861
0.0011044
0.00193503
0.00271791
0.00315912
-0.49137
-0.122451
-0.146828
-0.051981
-0.059914
-0.028562
-0.0280364
-0.0162368
-0.0138638
-0.00867592
-0.00656275
-0.00386722
-0.0023288
-0.000730818
0.000344075
0.00137983
0.00209738
0.00283716
0.0035439
0.0038888
-0.470825
-0.110489
-0.136242
-0.044958
-0.0536694
-0.0239433
-0.0240053
-0.0129955
-0.0110643
-0.00630857
-0.00450549
-0.0020796
-0.000755501
0.000659572
0.00158342
0.00248837
0.00309717
0.00374597
0.00437645
0.00463178
-0.449717
-0.0983788
-0.125528
-0.0378651
-0.0473793
-0.019284
-0.0199482
-0.00972971
-0.008246
-0.00392511
-0.00243467
-0.000280508
0.000827628
0.00205838
0.00282992
0.00360314
0.00410268
0.00466023
0.00521656
0.00540328
-0.428083
-0.0861296
-0.114697
-0.030709
-0.0410495
-0.014589
-0.0158688
-0.00644288
-0.00541174
-0.00152791
-0.000352327
0.00152832
0.00241905
0.00346426
0.00408239
0.00472315
0.00511299
0.00557871
0.00606232
0.00618918
-0.405959
-0.0737521
-0.103764
-0.0234961
-0.034686
-0.00986308
-0.0117709
-0.00313842
-0.00256426
0.000880614
0.00173948
0.0033451
0.00401723
0.00487585
0.00533971
0.00584755
0.0061275
0.00650008
0.00690485
0.00693755
-0.383383
-0.0612579
-0.0927388
-0.0162335
-0.028295
-0.00511136
-0.00765816
0.000180259
0.000293673
0.00329807
0.0038387
0.00516808
0.00562061
0.0062918
0.00660075
0.00697553
0.00714555
0.00742254
0.00773322
0.00761801
-0.360394
-0.0486593
-0.081636
-0.00892835
-0.0218825
-0.000338804
-0.00353459
0.00350971
0.00315925
0.00572204
0.00594327
0.00699546
0.00722762
0.00771076
0.00786437
0.00810594
0.00816567
0.00834471
0.00855267
0.00830591
-0.337032
-0.0359694
-0.070468
-0.00158813
-0.0154549
0.00444951
0.000595901
0.00684651
0.00602965
0.00815011
0.00805111
0.00882545
0.00883672
0.00913139
0.00912927
0.00923697
0.00918542
0.00926862
0.00939749
0.00915312
-0.313336
-0.0232018
-0.0592483
0.0057795
-0.00901864
0.00924848
0.00472931
0.0101872
0.00890204
0.0105799
0.0101601
0.0106563
0.0104463
0.0105523
0.010394
0.0103664
0.0102027
0.0102009
0.0103069
0.0102017
-0.289348
-0.0103707
-0.0479902
0.0131667
-0.00258012
0.014053
0.00886162
0.0135284
0.0117735
0.0130089
0.0122683
0.0124861
0.012055
0.0119722
0.0116569
0.0114922
0.0112176
0.0111472
0.0112647
0.0112231
-0.265109
0.00250916
-0.0367074
0.0205654
0.00385406
0.0188578
0.0129887
0.0168665
0.0146413
0.0154347
0.0143735
0.0143133
0.013661
0.0133896
0.0129164
0.0126138
0.0122333
0.0121028
0.0121734
0.01186
-0.24066
0.0154221
-0.0254135
0.0279674
0.0102773
0.0236577
0.0171066
0.0201983
0.0175025
0.017855
0.0164736
0.0161359
0.0152631
0.014803
0.0141713
0.0137319
0.0132525
0.0130492
0.01293
0.0120723
-0.216044
0.0283526
-0.0141227
0.0353643
0.0166828
0.0284476
0.021211
0.0235202
0.0203542
0.0202673
0.0185666
0.0179522
0.0168595
0.016211
0.0154206
0.0148476
0.0142737
0.0139642
0.0135364
0.0122286
-0.191303
0.0412848
-0.00284876
0.0427478
0.023064
0.0332223
0.0252978
0.0268288
0.0231936
0.0226691
0.0206505
0.0197605
0.0184487
0.0176122
0.0166639
0.015961
0.0152901
0.0148358
0.0141015
0.0130529
-0.166479
0.0542021
0.0083942
0.0501094
0.029414
0.0379764
0.029363
0.0301206
0.0260179
0.0250582
0.0227231
0.0215591
0.0200291
0.0190053
0.0179006
0.0170707
0.0162945
0.0156745
0.0147352
0.0139812
-0.141615
0.0670882
0.019592
0.0574404
0.0357261
0.0427048
0.0334023
0.0333924
0.0288241
0.0274321
0.0247824
0.0233461
0.0215993
0.0203891
0.0191301
0.0181746
0.0172836
0.0164996
0.0154441
0.0148829
-0.116754
0.079926
0.0307305
0.0647322
0.0419933
0.0474024
0.0374115
0.0366407
0.0316094
0.0297885
0.0268264
0.0251198
0.0231575
0.0217625
0.0203513
0.0192702
0.0182573
0.0173238
0.016205
0.0157368
-0.0919385
0.0926986
0.0417955
0.071976
0.0482089
0.0520637
0.0413866
0.039862
0.034371
0.0321249
0.0288531
0.0268785
0.0247025
0.0231243
0.021563
0.0203553
0.0192173
0.0181526
0.0169931
0.0165479
-0.0672107
0.105389
0.0527728
0.0791632
0.0543661
0.0566838
0.0453234
0.0430532
0.0371061
0.0344391
0.0308605
0.0286205
0.0262327
0.0244734
0.0227638
0.0214287
0.0201657
0.0189862
0.0177911
0.0173251
-0.042613
0.11798
0.0636484
0.086285
0.060458
0.0612575
0.0492177
0.0462107
0.039812
0.0367287
0.0328466
0.030344
0.0277467
0.0258086
0.0239523
0.0224893
0.0211037
0.0198222
0.0185887
0.0180769
-0.0181872
0.130454
0.0744081
0.0933327
0.066478
0.0657796
0.0530656
0.0493314
0.0424859
0.0389915
0.0348094
0.0320474
0.029243
0.0271286
0.0251272
0.0235364
0.022032
0.0206574
0.0193802
0.018808
0.00602501
0.142794
0.085038
0.100298
0.0724191
0.0702451
0.0568629
0.0524121
0.045125
0.0412252
0.036747
0.0337291
0.0307203
0.0284322
0.0262873
0.0245694
0.0229503
0.0214887
0.0201625
0.0195218
0.0299826
0.154983
0.0955242
0.107171
0.0782749
0.074649
0.0606056
0.0554493
0.0477267
0.0434276
0.0386575
0.0353874
0.0321772
0.029718
0.0274312
0.0255879
0.0238581
0.0223134
0.0209338
0.0202197
0.0536451
0.167003
0.105853
0.113945
0.0840386
0.0789864
0.0642899
0.0584401
0.0502884
0.0455964
0.0405389
0.0370207
0.0336123
0.0309848
0.0285581
0.0265912
0.0247545
0.0231294
0.0216932
0.0209028
0.0769723
0.178838
0.116011
0.12061
0.0897038
0.0832523
0.0679117
0.0613813
0.0528073
0.0477295
0.0423895
0.0386274
0.0350242
0.0322315
0.0296668
0.0275785
0.0256383
0.023935
0.0224397
0.0215712
0.0999248
0.190471
0.125985
0.127159
0.0952641
0.0874419
0.0714674
0.0642698
0.0552811
0.0498248
0.0442075
0.0402061
0.0364117
0.0334567
0.0307563
0.0285492
0.0265086
0.0247285
0.0231728
0.0222252
0.122464
0.201886
0.135762
0.133582
0.100713
0.0915506
0.074953
0.0671026
0.057707
0.0518802
0.0459909
0.0417551
0.0377733
0.0346593
0.0318256
0.0295023
0.0273643
0.0255089
0.0238918
0.0228644
0.144553
0.213066
0.145329
0.139873
0.106044
0.0955737
0.0783648
0.0698767
0.0600828
0.0538936
0.0477382
0.043273
0.0391077
0.0358382
0.0328739
0.0304371
0.0282043
0.0262751
0.0245961
0.0234888
0.166155
0.223994
0.154672
0.146022
0.111252
0.0995066
0.0816994
0.0725893
0.062406
0.0558631
0.0494476
0.0447584
0.0404138
0.0369923
0.0339001
0.0313527
0.0290277
0.0270261
0.025285
0.0240981
0.187233
0.234656
0.163781
0.152023
0.116331
0.103345
0.084953
0.0752376
0.0646742
0.0577867
0.0511174
0.0462098
0.0416903
0.0381203
0.0349033
0.0322482
0.0298335
0.027761
0.025958
0.024692
0.207752
0.245036
0.172643
0.157867
0.121273
0.107085
0.0881224
0.0778187
0.0668852
0.0596626
0.0527459
0.0476259
0.0429359
0.0392214
0.0358827
0.0331228
0.030621
0.028479
0.0266146
0.0252702
0.227678
0.255118
0.181247
0.163548
0.126075
0.110721
0.091204
0.0803301
0.0690367
0.0614887
0.0543318
0.0490053
0.0441494
0.0402945
0.0368373
0.0339757
0.0313892
0.0291794
0.0272542
0.0258324
0.246978
0.264889
0.18958
0.169057
0.130731
0.11425
0.0941948
0.0827691
0.0711265
0.0632635
0.0558733
0.0503467
0.0453298
0.0413386
0.0377663
0.034806
0.0321374
0.0298615
0.0278763
0.0263783
0.265622
0.274335
0.197633
0.174389
0.135234
0.117668
0.0970915