/*--------------------------------*- C++ -*----------------------------------*\
  =========                 |
  \\      /  F ield         | OpenFOAM: The Open Source CFD Toolbox
   \\    /   O peration     | Website:  https://openfoam.org
    \\  /    A nd           | Version:  7
     \\/     M anipulation  |
\*---------------------------------------------------------------------------*/
FoamFile
{
    version     2.0;
    format      ascii;
    class       volScalarField;
    location    "1.268";
    object      T;
}
// * * * * * * * * * * * * * * * * * * * * * * * * * * * * * * * * * * * * * //

dimensions      [0 2 -2 0 0 0 0];

internalField   nonuniform List<scalar> 
12359
(
9.33637e-75
1.17605e-61
3.37261e-198
-2.41373e-40
-5.67755e-69
-6.94064e-27
4.47577e-22
-2.83562e-24
8.34386e-17
7.61792e-30
4.10825e-19
-1.12186e-12
0.245081
-6.45359e-37
-1.47715e-42
1.61452e-05
0.00260638
1.68883e-109
-9.79484e-112
-3.51419e-51
-1.80981e-34
1.33534e-14
-9.59816e-56
1.10166e-47
2.3479e-59
-8.1369e-53
-9.11669e-144
4.92871e-146
2.44416e-117
-1.5176e-135
2.45775e-130
5.84653e-160
5.13511e-176
5.43766e-138
-4.13687e-187
-1.26112e-127
-6.5899e-89
8.02386e-77
-3.01716e-72
-1.58253e-81
-6.92274e-64
4.52912e-79
-2.83795e-96
6.75899e-99
1.45296e-122
-1.17601e-119
2.40564e-125
-1.08013e-133
1.10837e-114
-6.25721e-141
-8.52926e-149
2.96373e-154
5.89235e-163
1.05124e-106
9.05539e-168
1.13494e-174
5.78275e-102
-1.42331e-178
1.93206e-181
-3.30385e-185
-1.09245e-170
-3.15663e-192
1.10261e-152
9.31874
-6.458e-104
1.54809e-32
2.73944e-92
-8.01852e-157
1.41351e-86
4.5539e-08
103.794
-3.73801e-66
-3.80576e-200
1.69123e-84
1.67339e-45
1.45763e-189
-5.05256e-165
2.90975e-195
3.45132e-94
-9.06352e-11
-1.86319e-26
-2.46326e-109
-1.7092e-236
-3.42715e-71
0.00193875
4.63831e-64
-8.76094e-108
-3.73696e-153
1.18049
0.000633251
-2.17016e-210
3.36218
-1.89108e-212
1.71218e-91
-1.72152e-74
5.9334e-42
5.25956e-96
6.16697e-92
1.74501e-46
1.16217e-58
5.44132e-22
2.47717e-209
1.31429e-64
30.2265
-1.72846e-115
2.28542e-25
-6.22243e-201
0.00250816
3.25008e-72
2.3876e-26
3.42947e-98
-3.85167e-109
-2.70784e-30
2.49297e-25
-3.55593e-75
-4.77433e-136
1.88871e-24
-2.37928e-108
4.05022
-2.89041e-234
9.28433e-99
5.0775e-22
1.32128e-151
1.61274e-29
-1.58266e-107
-3.65399e-127
5.67729e-16
-1.41998e-70
-5.08552e-196
-2.54541e-108
-1.70602e-136
5.21337e-05
0.00133248
0.000991517
-6.66098e-202
2.57871e-30
-3.68509e-135
2.30662e-31
5.42951e-206
8.43884e-17
-2.83992e-225
-1.85114e-70
5.43937e-33
3.04937e-201
7.21844e-17
7.92948e-27
3.20126e-236
0.000801873
-6.93699e-115
7.15063e-26
4.48585e-39
3.39797e-207
1.83273e-32
-3.19632e-153
9.66656e-216
115.957
1.10544e-22
5.35178e-05
1.53666e-96
-5.9166e-159
6.74353e-32
-7.0198e-157
4.84722e-29
9.38377e-32
1.74726e-224
-1.74156e-128
1.51222e-32
9.39661e-23
1.85345e-33
1.04102
9.58092e-193
5.1382e-191
4.68801e-34
-7.87094e-58
-6.84106e-117
3.43173e-17
-8.44951e-119
-9.29982e-120
-4.31926e-30
4.47419e-18
-1.85352e-36
5.33756e-214
-3.07348e-195
-1.36306e-108
1.20195e-47
1.92867e-15
-8.05546e-92
-7.56155e-78
1.17869e-38
5.21259e-91
-1.52235e-76
4.03649e-43
4.95848e-45
9.33819e-149
1.12134e-25
42.7442
8.69955e-55
-2.37121e-91
1.36865e-32
-1.66279e-107
1.12768e-25
5.92477e-39
-4.13159e-59
2.23531e-26
1.27146e-19
-1.77747e-214
1.10422e-18
1.39783e-58
8.24806e-25
-6.15359e-98
8.95377e-220
9.46e-12
1.35367e-11
157.084
5.48796e-15
1.11918e-202
-1.97497e-91
-2.7315e-76
-5.12693e-91
-1.231e-70
1.08285e-25
-2.90951e-99
2.9563e-30
3.16494
-2.39125e-108
2.67882e-219
-1.97695e-69
1.91826e-73
1.51447e-18
-1.90108e-89
-9.58544e-89
1.20649e-225
3.62717e-17
9.58195e-54
-5.00283e-78
7.28779e-55
-1.83085e-232
1.01446e-30
-8.26462e-77
9.89307e-05
-1.7241e-215
3.40733e-61
-2.34387e-85
6.7313e-10
3.21635e-30
0.00119206
1.50459e-182
1.51462e-25
2.8797e-122
2.62757e-45
1.51407e-16
-1.04868e-77
-3.50239e-122
-5.80744e-89
1.38283
127.747
-2.63603e-232
-5.49256e-104
1.43342
197.328
7.92588e-58
1.23791e-30
2.60792e-20
3.9118e-26
-3.09513e-59
61.2519
4.12231
6.05317e-29
-1.82779e-104
1.41142e-30
1.83216e-33
1.57379e-47
7.85599e-33
-2.76043e-90
-1.92302e-100
7.0268e-218
-8.61688e-102
9.32195
1.05042e-28
-4.27055e-185
1.63218e-208
8.05924e-26
-1.78245e-101
-4.27541e-92
2.13319e-62
1.97485e-228
1.78897e-20
2.25011e-208
-2.72039e-209
2.28226e-161
9.08161e-30
-6.48295e-111
54.1283
-8.75218e-203
-1.11783e-200
8.47937e-64
-1.47499e-122
1.56676e-26
-2.29366e-79
-1.25924e-152
-7.62417e-210
8.47537
1.66328e-19
-5.89058e-211
-8.97717e-91
-1.29178e-80
-1.12821e-120
-1.87871e-134
-1.85506e-137
-7.47725e-119
-5.42241e-110
-9.15274e-16
-5.22564e-121
6.89781e-131
-1.95879e-76
2.73987e-31
2.04775
-4.6007e-119
3.86439e-50
7.30112e-06
-1.93353e-207
4.7176e-40
2.04357e-184
4.57058e-54
3.99386e-200
-1.38499e-117
1.31314e-15
3.70231e-37
4.57985e-16
-2.57358e-93
-7.01712e-85
6.01369e-45
1.22143e-40
-9.72708e-84
3.63924e-45
2.13619e-45
-2.61253e-168
1.90445e-164
5.9556e-165
3.30464e-164
4.83138e-164
0.000392767
-3.07955e-228
1.32223e-24
4.84368e-30
9.23337e-50
4.49164e-31
1.18847e-36
3.08134e-64
5.48906e-56
1.23884e-36
1.04027e-56
5.51624e-50
6.85748e-29
3.0221e-28
1.20574e-29
-1.82403e-69
3.36875e-14
-8.8512e-72
-1.00269e-72
4.17827e-33
1.04328e-19
-5.67198e-112
-1.42596e-166
2.33798e-54
-4.35581e-168
-2.65007e-109
171.494
21.9276
-6.13921e-110
-3.29588e-204
1.14182e-204
-8.43759e-214
3.98077e-37
1.40873e-214
1.2748e-214
1.42493
4.75533e-32
0.000493658
-1.62514e-112
2.75149e-27
-6.0956e-103
2.79879e-86
2.03746e-25
5.16715e-55
-8.70513e-38
2.9274e-56
-2.0159e-112
-9.71261e-185
2.46468e-32
3.89615e-27
-1.49518e-110
2.94929e-11
1.27829e-25
1.01106e-41
9.13181e-40
9.33004e-34
-1.32781e-202
9.62507
1.98751e-13
-2.38864e-111
2.21616e-10
-5.0384e-74
-1.05593e-223
-4.9166e-225
-2.70088e-215
0.000914134
1.43963e-20
2.32023e-48
1.22289e-40
1.51276e-39
-3.4406e-73
-8.30789e-37
5.44994e-41
1.99274e-08
1.99543
1.04941e-10
2.62354e-49
1.34142e-30
7.27219e-71
1.51037e-26
7.61465e-60
4.23754e-53
1.83396e-140
3.85513e-61
8.49227e-35
3.8616e-214
187.329
-2.74225e-90
2.13991
9.01088e-28
-5.32895e-100
1.40823e-28
1.14673
5.34862e-35
8.4524e-55
8.99415e-42
8.49938e-27
8.99654e-26
-2.85591e-105
-3.10234e-219
3.47635e-23
-4.30799e-198
2.19084e-05
-1.50108e-135
-2.05095e-52
8.74149e-34
1.41807e-85
0.0103232
7.68073e-24
-4.63726e-61
-1.09105e-107
6.55622e-05
-2.67687e-173
-1.15069e-115
2.32517e-14
-7.29658e-203
-7.94367e-107
-1.2818e-116
1.30975e-07
18.4144
-1.93859e-72
2.8789e-157
-1.06835e-31
1.42606e-34
4.01823e-40
2.74882e-31
3.49551e-33
-3.30264e-167
-3.0089e-215
5.02941e-38
-2.83799e-208
8.47985e-35
1.22498e-40
5.61419e-27
-4.34944e-121
3.26509e-24
6.58283e-13
5.06375e-137
1.50691e-73
1.92783e-109
-2.37314e-28
4.30026e-14
1.05282e-204
8.93617e-37
2.77858e-34
3.19442e-73
1.15552e-35
-1.68707e-133
9.25768e-21
8.61269e-56
4.74833e-29
2.83288e-27
-1.01226e-165
-7.91719e-74
1.20797e-09
0.00431517
-9.21056e-210
2.3968e-52
5.13363e-10
1.10889e-36
0.828996
-2.90169e-215
2.02629e-136
-1.08578e-171
3.17154e-31
1.28765e-57
4.39519e-68
-4.10645e-132
9.10526e-39
2.34806e-51
-8.52467e-58
1.98828e-93
0.000332105
-1.43147e-193
0.000746249
1.81591e-154
148.795
9.26262e-55
2.40182e-10
6.08627e-182
-4.6465e-122
2.7746e-30
-4.23098e-110
-1.1789e-153
-4.96729e-96
5.54058e-56
2.96784e-56
5.92639e-12
2.22401e-22
2.00467e-22
8.47086e-237
-7.28739e-110
7.06646e-39
0.00605519
1.73145e-236
1.04207e-189
1.08901e-33
-1.69941e-169
3.70183e-16
1.37922
112.807
4.03393e-235
-1.46438e-72
9.42816e-16
-5.28268e-66
-2.02806e-117
87.0629
9.61647e-192
3.15289e-23
1.05559e-32
1.25326e-73
-1.01592e-119
-9.47612e-152
5.94666e-87
2.08388e-30
4.73077e-57
4.93539e-72
1.40061e-233
1.47499e-194
4.27719e-60
-2.16606e-117
9.13543e-27
2.39478e-31
4.33962e-160
-1.02501e-186
2.26708e-28
179.074
5.00486e-132
1.21687e-08
-7.16797e-205
3.30986e-71
2.42039e-23
4.55956e-36
3.49129e-17
1.19771e-27
4.21855e-57
2.50541e-27
-1.37085e-220
-1.55369e-187
3.35691e-39
3.49624e-64
-1.63592e-58
1.32394e-65
2.61375e-215
-1.08327e-185
-8.83334e-127
7.22154e-45
7.28712e-24
-3.13395e-32
-1.50179e-89
-1.24939e-30
2.39355e-33
1.46048e-53
-1.08248e-29
1.67809e-53
2.72725
1.10831e-31
7.94641e-52
7.36914e-28
8.4991e-188
1.94031e-22
6.38029e-30
-1.63434e-237
-5.39453e-204
-8.30885e-169
5.41109e-178
6.83275e-07
4.7234e-53
4.28998e-79
-1.68869e-31
-2.18031e-95
1.67484e-15
2.75411e-37
3.77551e-30
-6.96468e-126
1.89176e-10
-1.52032e-215
-2.00664e-45
7.11595e-107
1.03875e-18
-4.54681e-29
1.45568e-61
1.36779e-52
9.45232
3.04e-34
2.67219e-13
1.35716e-60
2.04705e-11
0.649116
-1.95166e-160
-3.40706e-112
1.07705e-216
3.25641e-08
-1.48133e-112
6.12622e-57
0.00854226
3.77229e-190
-1.40274e-57
1.27345e-30
1.3367e-57
1.79238e-129
1.2608e-62
-8.43868e-157
-1.69982e-62
-4.37561e-160
-1.05689e-155
-4.17395e-67
1.11051e-29
9.79328e-33
2.45091e-56
3.31308e-08
8.49811e-37
15.7795
5.84754e-34
8.26811e-63
-1.14364e-64
1.58513e-35
1.44334e-48
3.0194e-43
0.571041
-2.74219e-34
7.84297e-51
1.73762e-48
-9.53647e-109
-1.47846e-118
8.50321e-29
-9.1788e-218
27.4449
1.46879e-162
-2.17952e-33
1.20429e-21
5.17271e-07
5.83123e-18
4.47688e-27
1.01638e-31
2.24111e-61
3.37055e-18
2.97254e-40
3.4642e-13
5.49497e-48
3.86959e-13
4.1879e-49
3.47495e-229
6.00527e-50
178.533
5.17142e-13
-1.75448e-86
3.54013e-223
1.08381e-157
8.07224e-81
-2.69901e-52
2.32704e-33
1.09719e-51
-3.28433e-168
-2.66796e-85
4.31606e-48
-7.8677e-89
8.60437e-94
2.88518e-12
-5.16408e-100
1.51267e-41
7.52155e-24
2.15802e-86
-2.02985e-78
2.66201e-27
2.52857e-238
-2.14551e-83
54.6733
2.45679e-185
6.83726e-16
2.94757e-22
6.86169e-80
1.0824e-31
5.17972e-24
6.95008e-50
2.90389e-25
1.74584e-113
-9.37218e-32
-1.8723e-117
1.52659e-46
4.44133e-26
-1.40807e-30
2.402e-113
7.92267e-27
8.04683e-06
1.1091e-42
3.42246e-62
-4.55637e-106
6.84339e-22
7.5966e-07
-2.09789e-111
-5.75942e-204
4.46153e-50
2.20256e-212
0.766273
1.55624e-48
4.14873e-12
4.18768e-60
7.68938e-53
14.8441
1.32346e-58
0.00188386
1.79167e-34
107.965
2.41694e-38
-1.59455e-71
6.9541e-60
1.71206e-74
0.00452728
0.000451082
-5.18869e-159
9.03585e-156
-1.40326e-28
7.2604e-146
0.00385888
7.89378e-27
4.72241e-10
-4.43269e-106
125.333
0.106012
6.0607e-48
1.04317e-228
1.36284e-117
-2.17515e-36
2.51205e-79
-6.29468e-90
1.83683e-76
2.16343e-34
2.26013e-41
59.3005
2.97952e-07
-1.04987e-169
6.77281e-36
1.31135e-23
-1.59665e-27
1.16308e-65
2.98862e-22
2.74443e-28
-2.02592e-35
-1.08007e-125
-5.00413e-227
1.02664e-19
8.15662e-17
1.89675e-53
-1.83052e-29
6.90071e-13
5.52296e-64
6.84095e-51
1.98368e-105
1.8406e-70
1.80201e-14
6.38721e-69
6.00147e-24
6.52682e-38
1.47681e-43
1.313e-85
6.10253e-72
3.07702e-06
6.37122e-62
9.58672e-66
61.7179
9.19629e-46
1.38539e-65
0.0102715
2.76101e-232
1.24128e-60
1.1458e-55
-1.36989e-79
-1.47024e-129
2.99212e-52
-3.28453e-240
1.61665e-09
-3.17441e-111
-1.55247e-56
1.83891e-20
1.45502e-31
2.14816e-56
7.71185e-59
1.07511e-20
93.5063
2.16246e-186
-1.32892e-98
1.73021e-64
0.00894899
5.33687e-17
7.99112e-115
3.78986
8.24718e-227
-2.5984e-113
187.285
-2.00979e-87
5.11457e-112
3.18005e-109
4.59612e-39
-1.52624e-38
1.21637e-183
-3.02456e-81
2.78353e-24
5.93898e-56
7.64944e-60
3.9078e-77
-1.87335e-159
-1.68251e-37
3.13916e-06
-2.08176e-63
-1.6042e-30
4.28734e-35
1.63937e-44
2.48579e-10
2.25506e-24
5.69213e-76
-7.04609e-112
0.000531668
4.19934e-29
9.72011e-45
2.52545e-105
1.70058e-176
2.20277e-35
1.25723e-10
8.32432e-64
9.21031e-28
1.7018e-62
1.7792e-75
-1.03741e-93
3.3385e-38
152.109
19.2696
5.70098e-37
-4.06439e-61
-2.12006e-95
3.83729e-39
0.0127684
-6.91848e-33
3.81518e-116
4.49979e-11
1.02752e-07
9.85762
2.15369e-78
91.0488
-9.93663e-183
3.67244e-74
1.42471e-178
8.73752e-11
1.25167e-43
83.8777
-1.35193e-117
0.0228185
7.70781e-145
-2.81701e-61
8.70296e-27
4.52253e-81
8.57316e-12
0.167978
-6.22053e-86
8.33033e-85
6.66105e-60
2.49208e-79
-2.98732e-87
1.34813e-13
6.56235e-46
2.59394e-58
2.69318e-15
-2.28678e-87
3.28682e-171
5.02088e-66
3.06626e-156
2.68249e-26
1.99625e-59
5.41811e-09
8.88696e-11
-9.93968e-41
2.07615e-31
6.31743e-35
6.34496e-61
0.0143924
8.53875e-66
-2.98092e-91
3.54907e-215
6.2902e-11
-4.82028e-34
-9.07183e-119
3.10509e-25
-2.08337e-77
1.33932e-31
-2.98735e-36
-8.10213e-32
5.46939e-36
90.7138
1.53123e-34
-1.12552e-39
0.179811
6.91962e-81
2.77595e-07
7.12939e-23
6.93694e-149
1.83357e-64
2.53892e-92
2.36131e-64
-5.00053e-222
-1.11813e-107
3.70138e-07
5.2649e-11
-2.17788e-108
210.386
2.27605e-28
1.96987e-158
1.04611e-11
4.43743e-12
-5.21512e-161
1.37158e-10
2.62508e-21
5.04497e-11
-2.28811e-155
-7.54231e-121
1.80833e-94
-1.43789e-158
-1.1152e-35
30.3797
-5.70769e-121
7.88892e-12
4.56281e-235
2.95914
1.38128e-25
1.71191e-32
-3.6432e-193
-1.8245e-122
3.00217e-73
1.9494e-37
5.03394e-15
2.99028e-32
-1.86645e-88
2.48261e-84
-2.87762e-154
9.62489e-27
4.97149e-37
5.37622e-92
-7.56548e-203
1.0994e-50
1.77631e-32
1.72891e-42
-3.60045e-126
1.01216e-06
9.21639e-28
2.23488e-145
3.32683e-42
5.46292e-84
4.54205e-67
196.793
-1.09127e-88
-1.34419e-155
4.5837e-34
-4.26326e-35
-5.83415e-43
3.16112
-1.19023e-58
6.52744e-68
3.44194e-31
-9.83437e-80
1.87638e-75
1.46182e-66
-3.22157e-79
-1.08849e-28
-1.13713e-70
16.206
-7.30478e-42
7.04298e-10
9.53737e-74
0.0257381
1.73443e-30
1.1964e-08
2.20709e-13
3.27902e-29
5.55751e-66
6.29022e-72
2.83236e-53
7.45366e-235
1.24651e-69
8.30927e-35
1.99868e-11
-5.37637e-80
1.48308e-146
6.37105e-31
1.4514e-32
6.76406e-16
4.67287e-38
3.19205e-11
9.82016e-16
9.23504e-104
3.04576e-48
0.991407
6.16326e-36
-3.08856e-225
2.48479e-79
4.43386e-83
-1.13346e-228
2.16866e-49
-5.32377e-184
2.76877e-68
1.70076e-14
1.23156e-32
4.08212e-06
2.75939e-180
-1.09568e-122
3.1358e-211
-4.47772e-81
-1.63015e-96
1.08009e-08
-2.23995e-96
-4.39989e-123
6.47143e-07
1.78023e-33
2.23585e-40
1.2849e-50
5.5008e-17
2.50253e-87
5.80155e-12
1.28413e-72
9.19578e-173
0.00242175
7.46933e-37
5.15177e-20
3.33461e-92
58.7801
-1.75005e-38
3.93617e-42
8.27702e-29
8.30731e-29
57.1417
3.51581e-70
1.57248e-11
-8.21886e-47
1.92273e-43
2.24947e-135
1.73988e-58
1.92254e-07
1.95297e-73
9.38237e-09
-3.73865e-86
-5.74887e-90
1.27283e-12
6.59341e-138
-2.61853e-116
7.9928e-69
1.34414e-35
5.38684e-11
-2.76222e-87
2.35045e-82
-4.15992e-208
8.22596e-46
0.00286504
6.12421e-39
-3.74781e-82
1.75594e-58
2.46856e-87
3.03251e-119
15.3332
-3.2563e-45
7.71503e-206
4.70151e-47
6.2117e-89
-2.52885e-37
-2.59297e-27
4.84727e-37
1.10224e-81
3.51213e-14
6.76747e-11
6.61085e-198
1.03731e-55
2.78959e-11
-3.33189e-119
-2.73022e-180
-1.15021e-60
2.71781e-46
4.31382e-75
-9.9888e-179
1.84443e-47
3.1111e-12
-7.97712e-159
2.58499e-22
2.81735e-185
2.0188e-91
4.49238e-53
5.17607e-05
-5.85806e-215
2.22303
-4.17169e-44
9.37537e-21
42.7957
-9.55984e-41
2.23989e-52
0.0368224
-6.99156e-81
1.73969e-05
2.46197e-18
9.25493e-61
7.94215e-71
3.47895e-72
-2.58049e-91
-3.10811e-95
1.12478e-19
0.0327454
199.537
6.5709e-23
-4.989e-28
0.0623124
4.41538e-25
16.9796
-7.59852e-134
-5.65539e-90
2.27189e-18
1.24845e-39
1.65645e-109
9.82959e-23
1.6649e-72
53.6252
3.75249e-224
-3.06513e-124
-1.51351e-127
208.566
-3.42859e-35
6.37348e-43
-1.86378e-72
1.00482e-18
9.79402e-75
-3.1478e-124
4.41592e-07
3.92287e-71
4.13545e-07
7.878e-20
1.08376e-60
7.71716e-14
3.72257e-38
-1.31792e-89
6.93538e-121
9.56063e-118
0.25289
3.657e-13
2.2126e-95
1.76608e-17
2.41039e-40
1.20894e-23
-1.92977e-214
2.15573e-42
2.69479e-07
1.75988e-08
-1.38842e-39
-8.12124e-64
-2.98905e-121
7.41391e-15
-9.216e-78
-1.77924e-124
6.41402e-10
3.89758e-16
-2.41591e-100
4.82881e-29
5.62029e-35
-8.45179e-212
1.27895e-110
-3.4669e-177
-8.75786e-39
89.3297
2.96929e-11
1.30505e-18
-1.83145e-104
7.70834e-77
3.21181e-36
-5.67872e-209
4.03313e-09
9.33613e-39
103.169
-8.31438e-27
4.96868e-65
3.30657e-101
-8.07826e-133
1.04606e-70
-1.06824e-78
6.90371e-108
15.5262
1.45285e-14
4.55133e-34
1.50285e-16
-4.69036e-41
-3.7324e-118
6.03119e-234
7.39524e-108
2.80949e-25
1.00364
-1.8077e-21
1.23034e-41
-2.30069e-46
-5.36601e-72
4.93943e-15
0.0413828
0.025703
2.3976e-79
-2.30944e-65
8.04247e-27
-1.3249e-88
-1.70996e-170
-1.01817e-108
2.10363e-13
-1.05281e-97
3.52844e-54
-5.87043e-86
2.75907e-39
5.17796e-08
-1.23812e-90
-1.54908e-108
4.43903e-10
9.2482e-14
-5.15504e-91
7.33805e-134
-1.67707e-47
0.00352635
1.14383e-24
1.50667e-21
-8.03835e-50
5.12416e-51
0.0871736
1.99889e-75
-1.50329e-21
4.51555e-119
2.2131e-12
2.23371e-11
-2.57877e-157
-8.74012e-130
88.7405
-2.62289e-111
2.30936e-69
2.71965e-26
-6.01765e-101
-5.6427e-99
-4.40218e-87
-1.35765e-112
-4.15375e-211
9.45906e-15
2.08037e-05
-2.28066e-130
0.0184154
6.68353e-75
-1.15316e-112
2.00541e-12
5.32887e-09
8.94807e-26
3.08195e-79
-1.07279e-107
-4.8577e-43
154.776
-1.62912e-97
-4.97044e-131
-9.51563e-138
1.55773e-97
1.23463e-56
8.23516e-27
-3.11041e-100
-3.90305e-75
-6.39099e-120
8.04343
1.14304e-08
5.99264e-35
-1.33718e-37
1.606e-73
-1.07497e-112
1.02788e-14
1.52338
1.53785e-69
-4.36543e-137
-4.15807e-114
2.12893e-13
-2.08269e-100
-6.40512e-120
9.97409e-08
9.89367e-79
-2.37058e-107
117.172
3.94806e-05
18.4382
2.88374e-14
-6.32387e-100
5.87291e-11
2.6331e-10
0.190373
2.62862e-89
1.18862e-25
1.67755e-211
0.12855
1.24658e-228
1.23027e-90
1.86575e-73
-2.77464e-136
7.92241e-38
-4.6724e-90
-1.64426e-98
1.62967e-90
7.87807
5.94397e-14
6.07249e-33
-2.04395e-107
8.55709e-28
23.3428
1.40586e-08
1.34041e-41
-1.12572e-48
5.32905e-91
2.96873e-80
-4.70797e-131
4.18888e-102
-6.70232e-129
-6.93433e-110
-7.34144e-42
1.18161e-14
8.25142e-16
0.363334
0.00012632
1.94213e-08
3.10197e-23
0.137484
-2.95521e-121
4.87512e-05
-2.16573e-114
0.00183964
7.28571e-09
5.67089e-33
4.07329e-99
1.1936e-32
2.73777e-21
3.36453e-58
107.379
2.37474e-12
0.419702
-2.75007e-111
1.62097e-09
3.98683e-07
1.22984e-09
1.88541e-07
1.43899e-10
-1.49183e-107
-4.83565e-91
5.92498e-35
-3.5778e-103
2.61355e-27
1.8068e-93
5.88139e-36
-4.28562e-159
-1.09076e-84
8.91618e-19
1.19317e-25
-1.10296e-125
-2.2908e-45
1.03862
85.8571
-6.04718e-137
-6.24329e-49
4.32916e-67
1.495e-10
5.40435e-28
5.45088
5.17177e-05
1.81636e-91
2.40521e-36
3.01929e-07
-1.14968e-23
7.0519e-06
8.69773e-52
1.23418e-11
-4.42272e-126
0.216959
3.69052e-08
1.79695e-132
1.74781e-07
0.222813
5.58618e-44
4.54949
2.60704e-77
9.9495e-09
1.04583e-73
-3.55751e-141
1.26066e-69
2.12851e-73
0.093577
0.00204548
0.0447024
-8.03649e-126
7.95579
1.02024e-33
1.69179e-12
-1.10013e-30
5.8596e-38
1.10663e-45
0.0225191
6.57299e-76
8.11256e-85
1.1403e-17
5.15194e-09
9.43442e-27
2.8722e-17
-1.4382e-54
0.0577667
1.41323e-28
2.07697e-27
2.89823e-09
-2.75153e-165
9.97489e-08
3.43355e-09
5.7612e-08
2.25576e-71
0.00120072
-2.30392e-132
6.82695e-28
5.18748e-36
9.91655e-05
7.1863e-68
1.19341e-18
2.0587e-08
86.1256
-1.78592e-101
3.66973e-30
-1.5826e-45
1.94403e-07
2.43754e-17
1.11175e-89
3.29134e-35
-2.86868e-134
11.9779
1.49973e-213
-6.1752e-134
-1.19183e-175
1.4919e-06
-3.75979e-106
3.28616e-35
10.9265
1.75035e-47
1.77299e-55
-1.43694e-101
2.25364e-170
1.34028e-09
-5.27139e-135
-7.04536e-40
7.19743e-12
-3.49802e-44
3.63061e-06
-2.89114e-84
4.76571e-34
1.90245e-07
1.31397e-17
2.71604e-63
95.4195
7.23819e-217
-8.353e-164
-1.99093e-80
232.206
2.52157e-72
2.56019e-64
1.04178e-07
-3.19765e-99
-9.96409e-83
7.87421e-13
1.21159e-05
2.1165e-29
0.0108968
-2.27632e-99
3.9479e-80
1.20766e-36
7.22019e-42
0.000107929
-8.33433e-116
2.5608e-60
-3.58055e-52
2.74041e-17
9.60229e-55
-4.41375e-127
3.78546e-37
-1.15168e-18
9.36513e-193
-3.93911e-187
5.13494e-05
5.16563e-29
9.71214e-05
3.11509e-81
7.45647e-224
-1.69638e-17
1.90633e-06
-9.78761e-118
-3.72073e-96
-1.65809e-132
16.1395
4.79996e-193
1.94625e-30
9.86251e-05
-1.88392e-182
-2.75993e-167
9.58939e-18
-5.82749e-144
-3.88095e-187
3.45225e-35
5.22502e-13
-6.34061e-129
9.15131e-21
-5.05972e-138
1.36076e-07
9.96968e-226
1.61381e-07
7.37572e-13
8.33642e-19
-1.38613e-182
2.2946e-14
5.8419
2.05924e-90
1.77747e-46
6.20229e-145
2.74304e-13
-6.50207e-138
1.18121e-06
5.09418e-09
9.3282e-78
3.58934e-174
2.12194e-13
1.14207e-13
1.42292e-40
5.32851e-38
4.03234e-16
-1.7165e-142
7.8832e-15
1.3385e-175
2.11886e-05
1.65868e-08
3.03131e-08
2.70768e-18
-1.30307e-22
13.4125
3.22131e-18
1.10103e-36
2.70409e-14
-1.40625e-93
2.17274e-11
4.98081e-16
-4.07076e-42
5.77694e-70
0.10638
4.66488e-189
0.0512899
109.941
9.49693e-103
4.48436e-08
105.361
2.4496e-33
2.8271e-34
1.30514e-15
-5.31669e-51
-1.4492e-132
9.63315e-08
0.0150445
0.880516
-1.4888e-92
2.34091e-13
0.000560993
5.03965e-14
-3.40275e-109
-1.28317e-160
8.68155e-27
0.0255332
9.91969e-09
5.132e-16
-1.1901e-216
-1.05608e-139
3.06269e-14
-7.94838e-99
4.49113e-39
-7.51002e-95
4.53385e-172
3.24482e-07
3.9615e-76
0.000252491
5.87732e-40
-4.46668e-153
-1.18496e-160
7.20041e-15
-8.60619e-94
1.41151e-32
9.36336e-16
1.01585
-1.00636e-47
-1.96984e-126
3.0151e-06
-1.27158e-91
-1.32921e-135
1.44872e-59
1.49531e-13
-1.97678e-88
1.07518e-13
9.04996e-41
223.16
2.05446e-14
9.02899e-120
0.000123685
-1.65239e-174
7.82971e-09
3.97223e-34
8.64826e-06
0.0054596
-2.76957e-43
0.000190742
-1.50676e-151
1.67095e-08
-7.33134e-115
2.85421e-49
4.64225e-05
8.35804e-26
1.70651e-05
0.0187871
-1.81334e-19
1.89485e-07
2.88446e-06
-8.10487e-124
-2.37159e-137
-4.33664e-173
0.000247539
-3.67306e-24
-1.88743e-122
2.36791e-07
2.56323e-05
3.50265e-33
2.29964e-12
4.22733e-48
-6.42725e-33
0.00381183
3.40835e-67
2.81554e-26
6.08643e-31
-6.87865e-211
1.01507e-210
-2.87354e-124
-1.75177e-92
1.19636e-38
-1.9089e-154
7.57107e-79
1.81e-101
-1.97281e-59
8.75599e-15
1.38069e-108
1.83328e-06
3.16695e-227
3.41737e-11
4.88683e-06
-1.27853e-118
6.15716e-05
5.50326e-12
8.75718e-06
5.03501e-54
2.2636e-16
-8.20957e-101
1.90885e-34
1.91698e-43
-3.15174e-162
1.12675e-116
3.45048e-85
-3.29004e-117
1.79921e-180
-4.63205e-52
6.89167e-182
-5.50125e-30
1.20496e-21
0.0751472
-5.55101e-156
1.92322e-58
-6.42311e-153
7.1316e-98
3.91916e-21
1.56735e-60
-4.18895e-121
121.041
3.43242e-14
2.77577e-29
9.31998e-57
8.51421e-15
4.40909e-23
6.00978e-56
3.91521e-17
2.98331e-13
-1.76959e-101
4.95509e-177
-4.23455e-77
2.59224e-07
-1.07659e-136
-1.40542e-124
1.33726e-13
1.69045e-104
-5.24071e-99
5.69747e-66
-1.41435e-127
0.0014022
-1.98621e-154
-5.09867e-126
1.37618e-18
1.86644e-17
7.30149
4.36146e-13
-9.54938e-55
-5.16712e-120
5.47829e-16
-1.93721e-121
2.76237e-25
3.66587e-40
4.9143e-102
6.80683e-06
3.60467e-190
7.14213e-21
-1.78177e-51
1.30421e-14
-1.19549e-43
-1.3199e-184
1.67217e-102
-5.50179e-228
1.12084e-23
-2.05391e-138
1.57736e-18
2.93542e-39
1.9216e-83
-2.24936e-53
1.56371e-35
1.38203e-178
1.86078e-20
1.59425e-20
-1.72898e-93
1.59343e-18
1.64465e-07
2.66089e-170
1.00157e-35
2.59481e-11
1.52703e-12
1.57347e-70
9.61134e-39
1.4631e-37
2.42086e-41
4.66109e-68
9.62193e-15
5.98251e-68
2.17805e-120
-1.13691e-120
0.0818374
2.76788e-08
0.000111136
1.79427e-06
-5.21921e-34
5.88444e-20
1.69212e-39
4.0691e-18
-1.28378e-119
4.03518
-7.08175e-98
3.24641e-06
1.35316e-06
-7.64356e-123
-7.16562e-25
1.34461e-08
9.51138e-06
9.17709e-38
3.96143e-25
-4.77048e-121
1.86047e-196
1.01886e-14
4.05793e-177
-1.44591e-157
5.82086e-17
5.57637e-99
-5.50282e-62
-4.77118e-125
2.148e-78
1.13314e-14
11.1266
-4.46661e-92
-2.92532e-100
2.62964e-08
-1.00511e-36
6.64461e-11
1.38457e-23
3.04512e-25
2.17152e-100
1.51661e-35
4.36388e-15
1.16212e-16
-1.88753e-29
1.15782e-149
1.72353e-05
2.60766e-29
6.82191e-19
9.06069e-78
-1.06376e-125
2.47613e-16
-4.46563e-90
-2.67988e-171
7.57034e-22
2.23073e-08
-9.06157e-156
4.02335e-20
2.7303e-42
2.21681e-107
-2.41099e-70
-2.27352e-106
7.47019e-22
5.20499e-119
-1.1876e-126
2.10121e-38
3.07869e-22
-1.82071e-38
-3.08662e-29
10.5283
-5.67208e-103
3.51469e-58
0.498248
6.38427e-31
-1.16148e-107
2.23727e-30
0.0173962
-3.32772e-162
-1.06477e-101
8.26442e-173
1.11956e-24
2.23213e-14
1.09388e-41
1.85383e-183
-9.71658e-74
1.16772e-58
9.29659e-85
2.29025e-09
-9.34925e-95
-1.67138e-181
6.30842e-179
1.36049e-26
2.53114e-38
1.80344e-05
-1.03418e-76
-1.58195e-46
1.36805e-25
3.58505e-14
-5.2975e-136
1.79673e-23
-1.76937e-165
-1.33421e-157
-7.55126e-184
1.09861e-09
-2.35715e-102
3.53429e-23
4.16002e-20
4.60948e-25
2.80358e-15
3.93216e-26
2.43546e-13
3.11067e-25
-1.82337e-94
5.74117e-26
-4.36917e-46
1.81495e-32
6.08082e-21
-1.42664e-100
41.6513
1.01249e-16
8.12528e-19
-7.37033e-154
1.61891
8.47539e-15
1.83395e-16
-2.13287e-30
8.87205e-06
1.12882e-59
-3.70994e-99
8.30315e-80
5.11558e-82
3.45894e-77
1.27319e-17
2.56592e-21
-7.47262e-108
1.14012e-23
3.77642e-86
5.58588e-77
5.3587e-47
-2.36835e-44
3.1368e-63
-2.27725e-53
-5.49442e-43
1.81957e-21
3.26029e-25
5.1697e-44
1.65369e-180
1.31886e-87
7.8766e-94
9.29084e-11
-2.03151e-136
-4.29453e-105
3.70798e-24
2.03905
2.06193e-118
2.87395e-05
-1.29878e-121
-1.26316e-90
1.8518e-35
1.31958e-27
5.66072e-32
-1.62574e-133
1.16761e-17
1.32469e-20
2.37058e-11
-4.85043e-156
2.91881e-22
9.12636e-39
8.14295e-47
-2.37097e-182
-2.83938e-216
1.29656e-26
3.79529e-38
6.99832e-55
58.4167
2.66627e-22
7.88458e-31
-1.43169e-24
5.0824e-39
4.37588e-11
-9.42342e-104
3.09e-42
7.13915e-68
8.26842e-82
0.0129863
1.13406e-20
6.28937e-21
1.55137e-33
-3.7852e-130
1.35529e-16
4.37885e-16
0.000652624
1.12729e-77
8.12315e-31
0.000280413
9.05142e-05
-5.25577e-123
0.000121314
6.11724e-46
24.6273
-5.58086e-171
1.13866e-23
4.8739e-34
4.14857e-189
6.95023e-14
6.89834e-59
1.26011e-73
1.06887e-07
0.00183007
0.000163274
5.03877e-73
1.93621e-25
-1.04496e-168
-2.32695e-93
5.31379e-06
1.10901e-29
1.45178e-69
3.77764e-17
7.92575e-22
2.03181e-26
1.48781e-36
1.2341e-34
2.9252e-20
0.00412726
-3.04818e-128
2.99212e-36
8.60257e-42
3.83702e-27
2.44373e-07
3.83337e-22
7.57955e-31
1.7945e-58
4.53401e-173
8.54517e-26
1.71223e-29
8.61817e-20
-1.58306e-133
3.78237e-52
1.44465e-21
3.38485e-23
-9.88037e-24
3.16084e-19
3.41967e-65
4.4703e-28
-1.11506e-103
3.74472e-13
2.97385e-48
3.69115e-25
4.2122e-60
7.4158e-72
1.25479e-21
9.02017e-53
3.5512e-60
9.47667e-73
-4.13527e-131
1.12449e-25
3.93338e-48
1.27548e-49
27.5432
0.0122096
-2.61762e-102
6.89075e-71
1.23672e-34
1.39403e-37
-3.38572e-183
2.10462e-29
-4.22446e-35
1.92729e-29
-6.86678e-170
2.00646e-13
1.76529e-17
1.29189e-15
3.57064e-29
-7.54204e-155
-2.71668e-88
3.7698e-56
9.04059e-28
8.19392e-09
16.2261
-3.69531e-126
5.14645e-64
6.92243e-65
6.94211e-07
0.000649013
0.000372617
4.36275e-49
2.61264e-20
-2.47334e-168
7.86388e-36
-5.91152e-50
-9.41702e-125
1.16838e-21
2.08179e-36
9.65723e-33
4.15134e-19
-1.87957e-67
6.41614e-38
2.42363e-30
-9.62753e-157
4.34513e-236
2.06477e-40
-4.371e-62
2.53038e-08
2.0096e-42
-5.72833e-23
2.70621e-13
-1.36495e-39
-2.45679e-126
-6.08898e-56
5.31338e-18
-4.06321e-130
0.360884
0.0828657
-7.74214e-106
-1.76957e-165
9.79356e-94
-1.497e-128
7.50936e-191
-8.66131e-58
5.92014e-60
-1.38935e-31
4.53592e-36
2.56742e-29
-1.27669e-46
4.50652e-05
8.75118e-18
3.52152e-31
8.7334e-36
2.17816e-46
9.52773e-34
-6.93048e-156
-6.44829e-70
7.45326e-61
-3.64625e-31
-1.13937e-25
1.91816e-09
4.63822e-193
-1.91859e-26
4.02434e-35
3.51778e-45
2.82003e-22
2.35354e-39
3.6622e-24
0.00531801
3.82369e-35
4.99847e-18
3.71726e-45
3.45709e-79
3.52964e-38
9.66536e-34
-2.16591e-130
6.82555e-38
0.0366432
-3.7183e-73
0.000290497
-1.74035e-123
3.21627e-33
-2.90351e-84
2.34123e-66
1.42445e-29
-1.39104e-20
3.30212e-21
1.37382e-64
1.01612e-39
1.32291e-45
9.85923e-18
1.01526e-10
-4.01632e-44
4.37295e-08
1.09267e-189
8.43719e-37
8.16084
2.13323e-14
1.28672e-64
0.491402
9.62094e-19
1.81864e-61
-9.90361e-144
1.1849e-10
4.09885e-34
8.65457e-47
9.98563e-35
2.174e-147
4.43427e-19
2.17192e-72
1.22553e-13
2.79812e-35
2.29035e-30
-8.39551e-30
1.01835e-230
-1.74143e-95
2.52643e-40
7.26349e-78
2.39428e-80
2.96153e-54
1.49595e-71
3.78234e-57
-2.15033e-24
2.06315e-27
-1.19848e-178
4.60828e-15
-2.54732e-94
-1.54592e-155
-3.93435e-27
-6.07323e-120
5.62844e-45
3.39897e-46
-7.98316e-132
-9.47678e-129
1.83549e-78
3.47307e-22
3.24247e-59
8.72681e-32
8.15509e-34
-3.66752e-26
1.25527e-24
2.29112e-47
1.94122e-40
2.12933e-37
-1.15598e-204
1.09665e-52
2.88207e-69
1.21813e-47
0.36049
1.63852e-24
-5.91792e-67
1.12767e-39
-3.10274e-60
9.36936e-61
3.26126e-66
2.40541e-60
1.33372e-60
-8.29478e-32
1.23406e-35
-5.13745e-157
2.47255e-23
-8.3478e-48
1.31314e-21
-6.58908e-146
-9.46217e-28
5.69947e-05
-1.02064e-90
-5.40055e-39
5.78865e-17
-1.29148e-110
5.20869e-26
3.56908e-13
1.32252e-36
1.22692e-36
5.36646e-14
3.30465e-40
-6.47577e-49
1.49907e-39
1.03345e-23
-1.23284e-115
3.62196e-66
1.22885e-196
2.08429e-94
-2.6365e-145
6.32479e-37
1.96525e-35
2.9489e-25
-8.52755e-41
17.2406
-2.46234e-20
37.8369
2.49185e-34
5.67586e-10
13.2292
5.66131e-16
24.8018
1.86959e-64
1.9091e-39
1.69318e-43
3.79955e-49
1.11409e-43
-2.40769e-93
6.24412e-44
-2.28156e-86
-2.17468e-147
-4.02555e-50
5.05038
1.05609e-38
1.54962e-20
1.45958e-41
1.285e-79
6.07441e-36
3.85277e-35
5.22404e-106
5.82151e-41
2.78884e-74
3.89629e-24
-1.95294e-39
1.64208e-40
-2.87477e-41
0.809619
7.82169e-07
1.22467e-19
1.4293e-46
88.0067
3.31162e-40
1.04959e-51
9.22782e-28
-6.46382e-29
-1.26712e-56
3.31273e-16
-2.36646e-128
-3.19343e-36
-3.62966e-27
9.45113e-42
-9.30106e-43
1.77209e-71
7.10339e-37
-2.209e-33
1.17157e-62
6.77435e-27
4.93691e-45
9.59691e-57
-6.59436e-125
9.0623e-50
6.30001e-37
2.76877e-76
2.4677e-45
1.67424e-56
-1.95183e-95
-7.41567e-33
9.38769e-74
1.07094e-15
1.80381e-45
-9.44371e-62
-3.47397e-132
8.22499e-93
8.3551e-14
1.20826e-36
2.43686e-195
5.50422e-44
9.54728
4.17565e-21
7.59414e-73
2.0873e-45
0.163023
0.95522
54.4452
5.33207e-79
1.48442e-80
2.39303e-103
4.47173e-56
3.0027e-28
0.0102169
0.0832649
1.00602e-12
4.49859e-17
1.57531e-68
-4.93462e-141
-1.3759e-138
-4.85931e-27
-1.27665e-71
1.62042e-24
9.04682e-82
5.7982e-05
2.97875e-80
1.71987e-40
3.78209e-12
-1.02229e-40
3.06562e-20
9.61479e-109
1.79814e-38
-1.9424e-153
1.96168e-17
2.23905e-17
1.52767e-61
-8.95559e-147
3.35788e-65
1.43706e-24
-1.41248e-95
-1.45075e-43
0.163111
-2.28296e-165
9.30193e-61
-2.62285e-37
-6.63965e-38
2.98228e-46
7.61815e-110
-7.35372e-97
-2.29422e-96
-2.25823e-187
-1.71706e-139
6.70971e-58
9.85023e-25
-1.97563e-154
2.37612e-70
-1.97844e-106
151.367
-6.62756e-28
-6.53598e-95
1.27636e-194
1.3133e-22
2.62258e-40
1.32638e-20
-7.43003e-45
1.99476e-40
-1.02212e-147
1.22557e-92
1.3487e-15
-2.12149e-209
1.62093e-40
5.38653e-28
-4.95383e-50
-1.05283e-134
1.90717e-35
-2.24286e-181
2.55971e-55
7.99279e-57
-3.96981e-94
1.12107e-07
5.36236e-52
3.54031e-60
5.10781e-58
5.80121e-38
-3.09854e-48
-2.61153e-158
3.24777e-192
4.48114e-73
1.60828e-27
3.04921e-37
9.16879e-60
1.95242e-57
2.81483e-16
-5.40045e-53