/*--------------------------------*- C++ -*----------------------------------*\
  =========                 |
  \\      /  F ield         | OpenFOAM: The Open Source CFD Toolbox
   \\    /   O peration     | Website:  https://openfoam.org
    \\  /    A nd           | Version:  7
     \\/     M anipulation  |
\*---------------------------------------------------------------------------*/
FoamFile
{
    version     2.0;
    format      ascii;
    class       volVectorField;
    location    "7";
    object      U;
}
// * * * * * * * * * * * * * * * * * * * * * * * * * * * * * * * * * * * * * //

dimensions      [0 1 -1 0 0 0 0];

internalField   nonuniform List<vector> 
135168
(
(1.4 -4.67776e-17 0)
(1.4 -4.51313e-18 0)
(1.4 2.51503e-18 0)
(1.4 -1.47155e-16 0)
(1.4 -5.25063e-17 0)
(1.4 -3.77002e-17 0)
(1.4 -6.40473e-17 0)
(1.4 -1.23614e-16 0)
(1.4 -1.19983e-16 0)
(1.4 -1.038e-16 0)
(1.4 -1.57269e-16 0)
(1.4 -2.06104e-16 0)
(1.4 -9.978e-17 0)
(1.4 1.33924e-16 0)
(1.4 3.03384e-16 0)
(1.4 2.57059e-16 0)
(1.4 1.91588e-16 0)
(1.4 2.03716e-16 0)
(1.4 7.94688e-18 0)
(1.4 -1.06718e-16 0)
(1.4 -7.12673e-17 0)
(1.4 -3.60704e-17 0)
(1.4 2.68706e-17 0)
(1.4 1.32942e-16 0)
(1.4 2.21382e-16 0)
(1.4 2.61807e-16 0)
(1.4 3.77771e-16 0)
(1.4 3.85595e-16 0)
(1.4 3.24697e-16 0)
(1.4 2.50224e-16 0)
(1.4 2.24914e-16 0)
(1.4 1.89556e-16 0)
(1.4 1.5203e-16 0)
(1.4 2.22155e-16 0)
(1.4 2.90093e-16 0)
(1.4 3.59107e-16 0)
(1.4 4.03098e-16 0)
(1.4 4.37905e-16 0)
(1.4 4.12888e-16 0)
(1.4 3.16049e-16 0)
(1.4 2.3653e-16 0)
(1.4 2.10584e-16 0)
(1.4 2.04189e-16 0)
(1.4 1.37474e-16 0)
(1.4 6.19375e-17 0)
(1.4 2.49888e-17 0)
(1.4 2.60449e-18 0)
(1.4 1.16705e-16 0)
(1.4 2.35817e-16 0)
(1.4 3.6289e-16 0)
(1.4 4.59438e-16 0)
(1.4 5.39573e-16 0)
(1.4 6.53353e-16 0)
(1.4 6.12933e-16 0)
(1.4 4.53565e-16 0)
(1.4 3.09803e-16 0)
(1.4 2.97119e-16 0)
(1.4 3.0221e-16 0)
(1.4 2.11123e-16 0)
(1.4 2.46814e-16 0)
(1.4 1.55393e-16 0)
(1.4 1.56338e-16 0)
(1.4 1.5045e-16 0)
(1.4 7.10252e-18 0)
(1.4 -2.03842e-16 0)
(1.4 -2.66266e-16 0)
(1.4 -6.29426e-16 0)
(1.4 -7.58348e-16 0)
(1.4 -8.60205e-16 0)
(1.4 -7.83826e-16 0)
(1.4 -9.15048e-16 0)
(1.4 -7.98528e-16 0)
(1.4 -7.26556e-16 0)
(1.4 -7.12637e-16 0)
(1.4 -6.96167e-16 0)
(1.4 -6.45636e-16 0)
(1.4 -4.60685e-16 0)
(1.4 -3.50607e-16 0)
(1.4 -1.0352e-16 0)
(1.4 1.31108e-17 0)
(1.4 9.68172e-17 0)
(1.4 -1.91664e-17 0)
(1.4 -9.64901e-17 0)
(1.4 -2.88842e-16 0)
(1.4 -3.57404e-16 0)
(1.4 -3.2775e-16 0)
(1.4 -4.13272e-17 0)
(1.4 1.72332e-17 0)
(1.4 1.61789e-16 0)
(1.4 2.04e-16 0)
(1.4 1.50776e-16 0)
(1.4 1.28761e-16 0)
(1.4 1.59983e-16 0)
(1.4 3.42912e-16 0)
(1.4 5.40458e-16 0)
(1.4 6.61674e-16 0)
(1.4 7.75881e-16 0)
(1.4 8.80292e-16 0)
(1.4 9.73599e-16 0)
(1.4 1.07791e-15 0)
(1.4 1.37364e-15 0)
(1.4 1.42817e-15 0)
(1.4 1.25156e-15 0)
(1.4 1.02206e-15 0)
(1.4 7.03962e-16 0)
(1.4 7.10369e-16 0)
(1.4 6.22234e-16 0)
(1.4 6.57991e-16 0)
(1.4 7.23498e-16 0)
(1.4 1.01275e-15 0)
(1.4 1.18625e-15 0)
(1.4 1.42903e-15 0)
(1.4 1.17035e-15 0)
(1.4 1.10971e-15 0)
(1.4 9.63268e-16 0)
(1.4 8.02304e-16 0)
(1.4 7.32647e-16 0)
(1.4 9.27958e-16 0)
(1.4 1.09643e-15 0)
(1.4 1.25488e-15 0)
(1.4 1.36621e-15 0)
(1.4 1.21153e-15 0)
(1.4 1.0428e-15 0)
(1.4 1.01111e-15 0)
(1.4 9.44258e-16 0)
(1.4 5.25235e-16 0)
(1.4 2.55874e-16 0)
(1.4 -2.85358e-16 0)
(1.4 -6.21135e-16 0)
(1.4 -8.2426e-16 0)
(1.4 -6.66789e-16 0)
(1.4 -5.16574e-16 0)
(1.4 -4.85983e-16 0)
(1.4 -7.12815e-16 0)
(1.4 -7.6077e-16 0)
(1.4 -7.28144e-16 0)
(1.4 -7.64378e-16 0)
(1.4 -8.42148e-16 0)
(1.4 -9.82095e-16 0)
(1.4 -7.2251e-16 0)
(1.4 -3.18136e-16 0)
(1.4 7.22988e-18 0)
(1.4 2.04793e-16 0)
(1.4 2.69552e-16 0)
(1.4 3.52786e-16 0)
(1.4 4.29296e-16 0)
(1.4 4.33389e-16 0)
(1.4 4.56276e-16 0)
(1.4 6.2317e-16 0)
(1.4 6.09838e-16 0)
(1.4 6.85501e-16 0)
(1.4 7.16924e-16 0)
(1.4 8.83471e-16 0)
(1.4 1.02816e-15 0)
(1.4 7.74746e-16 0)
(1.4 1.13758e-15 0)
(1.4 1.35567e-15 0)
(1.4 1.67282e-15 0)
(1.4 1.98268e-15 0)
(1.4 2.23793e-15 0)
(1.4 2.33796e-15 0)
(1.4 2.32548e-15 0)
(1.4 2.48436e-15 0)
(1.4 2.51311e-15 0)
(1.4 2.0391e-15 0)
(1.4 2.055e-15 0)
(1.4 1.65646e-15 0)
(1.4 1.27831e-15 0)
(1.4 1.10283e-15 0)
(1.4 1.08619e-15 0)
(1.4 1.13894e-15 0)
(1.4 1.26339e-15 0)
(1.4 1.34197e-15 0)
(1.4 1.32946e-15 0)
(1.4 1.2903e-15 0)
(1.4 1.1699e-15 0)
(1.4 9.77973e-16 0)
(1.4 8.87965e-16 0)
(1.4 7.72934e-16 0)
(1.4 6.98416e-16 0)
(1.4 7.45709e-16 0)
(1.4 7.94122e-16 0)
(1.4 7.58785e-16 0)
(1.4 6.48264e-16 0)
(1.4 8.27498e-16 0)
(1.4 6.7429e-16 0)
(1.4 8.71996e-16 0)
(1.4 1.17293e-15 0)
(1.4 1.23021e-15 0)
(1.4 1.51828e-15 0)
(1.4 1.8881e-15 0)
(1.4 2.10631e-15 0)
(1.4 2.19561e-15 0)
(1.4 2.27251e-15 0)
(1.4 2.2708e-15 0)
(1.4 2.44889e-15 0)
(1.4 2.50532e-15 0)
(1.4 2.54621e-15 0)
(1.4 2.34842e-15 0)
(1.4 2.13128e-15 0)
(1.4 1.94129e-15 0)
(1.4 1.50309e-15 0)
(1.4 1.12974e-15 0)
(1.4 8.28515e-16 0)
(1.4 8.23176e-16 0)
(1.4 8.19671e-16 0)
(1.4 1.00315e-15 0)
(1.4 1.07463e-15 0)
(1.4 1.05299e-15 0)
(1.4 1.23152e-15 0)
(1.4 1.27983e-15 0)
(1.4 1.15136e-15 0)
(1.4 4.62377e-16 0)
(1.4 -7.79256e-17 0)
(1.4 -3.17918e-16 0)
(1.4 -6.31906e-16 0)
(1.4 -6.15774e-16 0)
(1.4 -7.82545e-16 0)
(1.4 -9.90418e-16 0)
(1.4 -1.00968e-15 0)
(1.4 -8.49034e-16 0)
(1.4 -9.20783e-16 0)
(1.4 -9.45383e-16 0)
(1.4 -6.73683e-16 0)
(1.4 -5.77913e-16 0)
(1.4 -5.93021e-16 0)
(1.4 -5.59072e-16 0)
(1.4 -6.35694e-16 0)
(1.4 -6.42186e-16 0)
(1.4 -3.24416e-16 0)
(1.4 -3.42287e-16 0)
(1.4 -4.00661e-16 0)
(1.4 -3.51734e-16 0)
(1.4 -3.79305e-16 0)
(1.4 -2.50085e-16 0)
(1.4 1.27399e-16 0)
(1.4 3.14175e-16 0)
(1.4 1.4716e-16 0)
(1.4 -1.24522e-16 0)
(1.4 -3.06725e-16 0)
(1.4 -4.64253e-16 0)
(1.4 -5.24525e-16 0)
(1.4 -8.21539e-16 0)
(1.4 -8.31023e-16 0)
(1.4 -8.42264e-16 0)
(1.4 -9.10398e-16 0)
(1.4 -1.14074e-15 0)
(1.4 -8.50353e-16 0)
(1.4 -6.90829e-16 0)
(1.4 -6.79711e-16 0)
(1.4 -6.85925e-16 0)
(1.4 -7.04678e-16 0)
(1.4 -1.79835e-16 0)
(1.4 -5.54376e-17 0)
(1.4 -1.20976e-17 0)
(1.4 -6.72347e-17 0)
(1.4 -2.75695e-17 0)
(1.4 -1.11071e-16 0)
(1.4 -1.20109e-16 0)
(1.4 -2.25884e-16 0)
(1.4 -2.68192e-16 0)
(1.4 -2.38804e-16 0)
(1.4 -3.25299e-16 0)
(1.4 -6.14338e-16 0)
(1.4 -8.18587e-16 0)
(1.4 -1.08918e-15 0)
(1.4 -1.21134e-15 0)
(1.4 -1.29881e-15 0)
(1.4 -1.26342e-15 0)
(1.4 -1.24879e-15 0)
(1.4 -1.10553e-15 0)
(1.4 -1.0434e-15 0)
(1.4 -8.68371e-16 0)
(1.4 -8.19321e-16 0)
(1.4 -6.59357e-16 0)
(1.4 -5.4022e-16 0)
(1.4 -2.16303e-16 0)
(1.4 4.40316e-16 0)
(1.4 3.99336e-16 0)
(1.4 3.92362e-16 0)
(1.4 -3.01589e-16 0)
(1.4 -6.60034e-16 0)
(1.4 -1.03817e-15 0)
(1.4 -1.40209e-15 0)
(1.4 -1.7552e-15 0)
(1.4 -2.06978e-15 0)
(1.4 -2.19692e-15 0)
(1.4 -2.30652e-15 0)
(1.4 -2.41169e-15 0)
(1.4 -2.31537e-15 0)
(1.4 -2.22951e-15 0)
(1.4 -2.0452e-15 0)
(1.4 -1.97335e-15 0)
(1.4 -2.08314e-15 0)
(1.4 -2.10637e-15 0)
(1.4 -2.00657e-15 0)
(1.4 -2.1135e-15 0)
(1.4 -2.12707e-15 0)
(1.4 -2.10365e-15 0)
(1.4 -1.96637e-15 0)
(1.4 -1.85712e-15 0)
(1.4 -1.38581e-15 0)
(1.4 -1.29631e-15 0)
(1.4 -1.27821e-15 0)
(1.4 -1.29049e-15 0)
(1.4 -1.40722e-15 0)
(1.4 -1.41278e-15 0)
(1.4 -1.40998e-15 0)
(1.4 -1.45076e-15 0)
(1.4 -1.47247e-15 0)
(1.4 -1.28363e-15 0)
(1.4 -1.23457e-15 0)
(1.4 -1.54573e-15 0)
(1.4 -1.52894e-15 0)
(1.4 -1.52899e-15 0)
(1.4 -1.41734e-15 0)
(1.4 -1.30111e-15 0)
(1.4 -1.45502e-15 0)
(1.4 -1.45613e-15 0)
(1.4 -1.36619e-15 0)
(1.4 -1.33065e-15 0)
(1.4 -1.2802e-15 0)
(1.4 -1.42812e-15 0)
(1.4 -1.39787e-15 0)
(1.4 -9.81309e-16 0)
(1.4 -6.77413e-16 0)
(1.4 -5.46152e-16 0)
(1.4 -5.15726e-16 0)
(1.4 -2.74002e-16 0)
(1.4 -7.37382e-17 0)
(1.4 6.20134e-17 0)
(1.4 4.64091e-16 0)
(1.4 6.9052e-16 0)
(1.4 6.58416e-16 0)
(1.4 7.73729e-16 0)
(1.4 6.063e-16 0)
(1.4 6.29219e-16 0)
(1.4 5.70591e-16 0)
(1.4 2.70118e-16 0)
(1.4 1.66063e-16 0)
(1.4 6.56461e-17 0)
(1.4 -7.32114e-17 0)
(1.4 -4.94561e-16 0)
(1.4 -7.24974e-16 0)
(1.4 -1.02826e-15 0)
(1.4 -1.26121e-15 0)
(1.4 -1.14284e-15 0)
(1.4 -1.44288e-15 0)
(1.4 -1.46633e-15 0)
(1.4 -1.49848e-15 0)
(1.4 -1.62968e-15 0)
(1.4 -1.5427e-15 0)
(1.4 -1.20921e-15 0)
(1.4 -1.04148e-15 0)
(1.4 -7.2308e-16 0)
(1.4 -4.93692e-16 0)
(1.4 -1.20821e-16 0)
(1.4 4.92118e-16 0)
(1.4 6.82233e-16 0)
(1.4 8.90062e-16 0)
(1.4 1.09352e-15 0)
(1.4 9.53398e-16 0)
(1.4 7.89483e-16 0)
(1.4 7.4938e-16 0)
(1.4 7.86464e-16 0)
(1.4 8.4797e-16 0)
(1.4 7.9503e-16 0)
(1.4 5.62252e-16 0)
(1.4 1.94518e-16 0)
(1.4 1.7488e-16 0)
(1.4 1.95567e-16 0)
(1.4 2.51271e-16 0)
(1.4 4.76363e-17 0)
(1.4 1.35436e-16 0)
(1.4 6.05578e-16 0)
(1.4 7.46945e-16 0)
(1.4 9.37304e-16 0)
(1.4 1.06663e-15 0)
(1.4 1.34913e-15 0)
(1.4 1.2728e-15 0)
(1.4 1.09435e-15 0)
(1.4 1.24251e-15 0)
(1.4 1.98117e-16 0)
(1.4 1.68318e-15 0)
(1.4 5.79194e-17 0)
(1.4 1.48141e-16 0)
(1.4 2.80487e-16 0)
(1.4 3.11974e-16 0)
(1.4 3.28672e-16 0)
(1.4 3.83987e-16 0)
(1.4 3.97995e-16 0)
(1.4 3.06171e-16 0)
(1.4 2.67573e-16 0)
(1.4 2.20049e-16 0)
(1.4 2.53353e-16 0)
(1.4 3.38828e-16 0)
(1.4 5.60438e-16 0)
(1.4 9.25289e-16 0)
(1.4 1.07758e-15 0)
(1.4 1.06265e-15 0)
(1.4 1.11536e-15 0)
(1.4 1.21988e-15 0)
(1.4 9.44614e-16 0)
(1.4 8.60799e-16 0)
(1.4 7.80296e-16 0)
(1.4 6.75441e-16 0)
(1.4 6.0829e-16 0)
(1.4 6.51305e-16 0)
(1.4 9.87974e-16 0)
(1.4 1.06848e-15 0)
(1.4 1.29015e-15 0)
(1.4 1.35964e-15 0)
(1.4 1.33894e-15 0)
(1.4 1.28167e-15 0)
(1.4 1.12321e-15 0)
(1.4 9.71507e-16 0)
(1.4 6.4288e-16 0)
(1.4 7.27807e-16 0)
(1.4 6.93002e-16 0)
(1.4 6.45966e-16 0)
(1.4 5.11089e-16 0)
(1.4 4.19194e-16 0)
(1.4 6.06582e-16 0)
(1.4 7.29008e-16 0)
(1.4 6.3859e-16 0)
(1.4 7.36553e-16 0)
(1.4 7.35748e-16 0)
(1.4 7.03131e-16 0)
(1.4 5.8043e-16 0)
(1.4 4.37006e-16 0)
(1.4 4.82985e-16 0)
(1.4 6.32304e-16 0)
(1.4 7.86385e-16 0)
(1.4 9.94046e-16 0)
(1.4 1.08324e-15 0)
(1.4 1.04812e-15 0)
(1.4 9.6186e-16 0)
(1.4 8.14402e-16 0)
(1.4 6.3806e-16 0)
(1.4 4.1937e-16 0)
(1.4 2.85379e-16 0)
(1.4 3.59182e-16 0)
(1.4 3.88523e-16 0)
(1.4 3.66303e-16 0)
(1.4 3.15765e-16 0)
(1.4 2.53535e-16 0)
(1.4 2.6852e-16 0)
(1.4 -1.29112e-17 0)
(1.4 -4.7795e-16 0)
(1.4 -9.49525e-16 0)
(1.4 -1.20872e-15 0)
(1.4 -1.52711e-15 0)
(1.4 -1.60694e-15 0)
(1.4 -1.59437e-15 0)
(1.4 -1.62081e-15 0)
(1.4 -1.48889e-15 0)
(1.4 -1.35549e-15 0)
(1.4 -1.10723e-15 0)
(1.4 -7.41863e-16 0)
(1.4 -7.74674e-16 0)
(1.4 -1.5232e-16 0)
(1.4 1.11572e-16 0)
(1.4 2.40735e-16 0)
(1.4 3.6148e-16 0)
(1.4 7.43124e-16 0)
(1.4 8.28672e-16 0)
(1.4 7.49196e-16 0)
(1.4 6.84117e-16 0)
(1.4 5.70101e-16 0)
(1.4 5.94726e-16 0)
(1.4 7.04477e-16 0)
(1.4 1.25949e-15 0)
(1.4 1.3277e-15 0)
(1.4 1.45311e-15 0)
(1.4 1.46145e-15 0)
(1.4 1.42026e-15 0)
(1.4 1.50078e-15 0)
(1.4 1.5638e-15 0)
(1.4 1.54894e-15 0)
(1.4 1.77433e-15 0)
(1.4 1.73262e-15 0)
(1.4 1.70479e-15 0)
(1.4 1.93252e-15 0)
(1.4 2.25902e-15 0)
(1.4 2.50525e-15 0)
(1.4 2.65789e-15 0)
(1.4 2.56706e-15 0)
(1.4 2.54016e-15 0)
(1.4 2.23866e-15 0)
(1.4 2.15643e-15 0)
(1.4 1.90553e-15 0)
(1.4 1.80228e-15 0)
(1.4 1.73624e-15 0)
(1.4 1.61682e-15 0)
(1.4 1.6167e-15 0)
(1.4 1.52893e-15 0)
(1.4 1.35257e-15 0)
(1.4 1.35869e-15 0)
(1.4 1.33893e-15 0)
(1.4 1.34238e-15 0)
(1.4 1.28248e-15 0)
(1.4 1.51706e-15 0)
(1.4 1.53919e-15 0)
(1.4 1.43638e-15 0)
(1.4 1.24548e-15 0)
(1.4 8.17663e-16 0)
(1.4 -5.24769e-17 0)
(1.4 -3.58368e-16 0)
(1.4 -6.57289e-16 0)
(1.4 -8.3785e-16 0)
(1.4 -1.18024e-15 0)
(1.4 -1.50284e-15 0)
(1.4 -1.82976e-15 0)
(1.4 -1.92256e-15 0)
(1.4 -1.95769e-15 0)
(1.4 -1.97212e-15 0)
(1.4 -2.02579e-15 0)
(1.4 -2.13924e-15 0)
(1.4 -2.09228e-15 0)
(1.4 -1.96151e-15 0)
(1.4 -2.11823e-15 0)
(1.4 -2.2092e-15 0)
(1.4 -2.20336e-15 0)
(1.4 -2.00182e-15 0)
(1.4 -1.39535e-15 0)
(1.4 -9.45423e-16 0)
(1.4 -3.63916e-16 0)
(1.4 1.84486e-16 0)
(1.4 4.21492e-16 0)
(1.4 4.34215e-16 0)
(1.4 4.08841e-16 0)
(1.4 4.68257e-16 0)
(1.4 8.73484e-16 0)
(1.4 1.35471e-15 0)
(1.4 2.17535e-15 0)
(1.4 2.25216e-15 0)
(1.4 2.33054e-15 0)
(1.4 2.07347e-15 0)
(1.4 1.90536e-15 0)
(1.4 2.00099e-15 0)
(1.4 2.11609e-15 0)
(1.4 2.58914e-15 0)
(1.4 2.61973e-15 0)
(1.4 2.94034e-15 0)
(1.4 3.32669e-15 0)
(1.4 3.34564e-15 0)
(1.4 3.39804e-15 0)
(1.4 3.52744e-15 0)
(1.4 3.41603e-15 0)
(1.4 3.23705e-15 0)
(1.4 2.97428e-15 0)
(1.4 2.75062e-15 0)
(1.4 2.45642e-15 0)
(1.4 2.40471e-15 0)
(1.4 2.63279e-15 0)
(1.4 2.94499e-15 0)
(1.4 3.03044e-15 0)
(1.4 3.06144e-15 0)
(1.4 3.00268e-15 0)
(1.4 2.80876e-15 0)
(1.4 2.64899e-15 0)
(1.4 2.73977e-15 0)
(1.4 2.6569e-15 0)
(1.4 2.48879e-15 0)
(1.4 2.34722e-15 0)
(1.4 2.03058e-15 0)
(1.4 1.69881e-15 0)
(1.4 1.4869e-15 0)
(1.4 1.27963e-15 0)
(1.4 1.2287e-15 0)
(1.4 1.22215e-15 0)
(1.4 1.44104e-15 0)
(1.4 1.55571e-15 0)
(1.4 1.58538e-15 0)
(1.4 1.79999e-15 0)
(1.4 1.90128e-15 0)
(1.4 2.02218e-15 0)
(1.4 2.08911e-15 0)
(1.4 2.13341e-15 0)
(1.4 2.13283e-15 0)
(1.4 2.25915e-15 0)
(1.4 2.54816e-15 0)
(1.4 2.62571e-15 0)
(1.4 2.88169e-15 0)
(1.4 3.16071e-15 0)
(1.4 3.19641e-15 0)
(1.4 2.98342e-15 0)
(1.4 2.65356e-15 0)
(1.4 2.18251e-15 0)
(1.4 1.83973e-15 0)
(1.4 1.78766e-15 0)
(1.4 1.44668e-15 0)
(1.4 1.08412e-15 0)
(1.4 9.16263e-16 0)
(1.4 5.56136e-16 0)
(1.4 4.26614e-16 0)
(1.4 -3.99439e-16 0)
(1.4 -1.0152e-15 0)
(1.4 -1.70814e-15 0)
(1.4 -1.77919e-15 0)
(1.4 -2.01024e-15 0)
(1.4 -2.07669e-15 0)
(1.4 -2.50893e-15 0)
(1.4 -2.59626e-15 0)
(1.4 -2.26862e-15 0)
(1.4 -2.16372e-15 0)
(1.4 -2.12688e-15 0)
(1.4 -1.87866e-15 0)
(1.4 -1.84939e-15 0)
(1.4 -2.11513e-15 0)
(1.4 -1.98456e-15 0)
(1.4 -1.80265e-15 0)
(1.4 -1.39012e-15 0)
(1.4 -1.07595e-15 0)
(1.4 -1.00416e-15 0)
(1.4 -8.65628e-16 0)
(1.4 -5.85758e-16 0)
(1.4 -2.30599e-16 0)
(1.4 -1.33462e-16 0)
(1.4 3.33754e-16 0)
(1.4 6.03081e-16 0)
(1.4 6.57004e-16 0)
(1.4 6.90767e-16 0)
(1.4 5.77356e-16 0)
(1.4 5.82198e-16 0)
(1.4 4.40303e-16 0)
(1.4 -4.34067e-17 0)
(1.4 -4.57187e-16 0)
(1.4 -5.06109e-16 0)
(1.4 -6.98923e-16 0)
(1.4 -2.40114e-16 0)
(1.4 6.45079e-17 0)
(1.4 7.61489e-16 0)
(1.4 1.13744e-15 0)
(1.4 1.12439e-15 0)
(1.4 9.28728e-16 0)
(1.4 8.80063e-16 0)
(1.4 8.97356e-16 0)
(1.4 8.44806e-16 0)
(1.4 6.40132e-16 0)
(1.4 3.77928e-16 0)
(1.4 2.32927e-16 0)
(1.4 1.96774e-16 0)
(1.4 -3.21387e-17 0)
(1.4 -5.04599e-17 0)
(1.4 -6.24546e-17 0)
(1.4 -3.59145e-16 0)
(1.4 -7.42843e-16 0)
(1.4 -8.65625e-16 0)
(1.4 -9.909e-16 0)
(1.4 -1.18449e-15 0)
(1.4 -1.3594e-15 0)
(1.4 -1.55823e-15 0)
(1.4 -1.58414e-15 0)
(1.4 -1.41989e-15 0)
(1.4 -1.04477e-15 0)
(1.4 -8.29414e-16 0)
(1.4 -9.04132e-16 0)
(1.4 -9.61377e-16 0)
(1.4 -5.71e-16 0)
(1.4 -1.54483e-16 0)
(1.4 3.0184e-16 0)
(1.4 2.23759e-16 0)
(1.4 4.56725e-17 0)
(1.4 -8.22539e-16 0)
(1.4 -1.40071e-15 0)
(1.4 -1.7453e-15 0)
(1.4 -1.91313e-15 0)
(1.4 -2.66599e-15 0)
(1.4 -2.85751e-15 0)
(1.4 -2.86712e-15 0)
(1.4 -2.9721e-15 0)
(1.4 -3.20194e-15 0)
(1.4 -2.95442e-15 0)
(1.4 -2.89502e-15 0)
(1.4 -2.82912e-15 0)
(1.4 -2.8406e-15 0)
(1.4 -3.4313e-15 0)
(1.4 -4.19249e-15 0)
(1.4 -4.28434e-15 0)
(1.4 -4.20575e-15 0)
(1.4 -3.91749e-15 0)
(1.4 -3.59866e-15 0)
(1.4 -3.32585e-15 0)
(1.4 -2.62026e-15 0)
(1.4 -2.34975e-15 0)
(1.4 -1.77742e-15 0)
(1.4 -2.0439e-15 0)
(1.4 -2.20576e-15 0)
(1.4 -2.38631e-15 0)
(1.4 -2.60051e-15 0)
(1.4 -2.71578e-15 0)
(1.4 -2.71311e-15 0)
(1.4 -2.51503e-15 0)
(1.4 -2.49154e-15 0)
(1.4 -2.52534e-15 0)
(1.4 -2.85205e-15 0)
(1.4 -2.96288e-15 0)
(1.4 -3.00697e-15 0)
(1.4 -2.7191e-15 0)
(1.4 -2.3683e-15 0)
(1.4 -2.23558e-15 0)
(1.4 -2.53279e-15 0)
(1.4 -2.53583e-15 0)
(1.4 -2.45005e-15 0)
(1.4 -2.42465e-15 0)
(1.4 -2.67437e-15 0)
(1.4 -2.59291e-15 0)
(1.4 -2.02854e-15 0)
(1.4 -1.7301e-15 0)
(1.4 -1.15698e-15 0)
(1.4 -2.84152e-16 0)
(1.4 3.68918e-16 0)
(1.4 4.79198e-16 0)
(1.4 6.47013e-16 0)
(1.4 8.29681e-16 0)
(1.4 9.75259e-16 0)
(1.4 1.13422e-15 0)
(1.4 1.11729e-15 0)
(1.4 1.05808e-15 0)
(1.4 7.14539e-16 0)
(1.4 4.47223e-16 0)
(1.4 -6.3215e-17 0)
(1.4 -3.58323e-16 0)
(1.4 -1.83109e-16 0)
(1.4 -5.99423e-16 0)
(1.4 -1.19974e-15 0)
(1.4 -1.52285e-15 0)
(1.4 -1.94045e-15 0)
(1.4 -1.89638e-15 0)
(1.4 -1.41937e-15 0)
(1.4 -1.3364e-15 0)
(1.4 -1.4297e-15 0)
(1.4 -1.22237e-15 0)
(1.4 -9.20861e-16 0)
(1.4 -5.42958e-16 0)
(1.4 -1.37957e-16 0)
(1.4 -2.22824e-17 0)
(1.4 3.464e-16 0)
(1.4 7.73424e-16 0)
(1.4 1.03188e-15 0)
(1.4 2.13478e-15 0)
(1.4 2.53327e-15 0)
(1.4 2.59211e-15 0)
(1.4 2.68049e-15 0)
(1.4 2.25767e-15 0)
(1.4 1.99854e-15 0)
(1.4 1.85414e-15 0)
(1.4 1.66956e-15 0)
(1.4 1.42738e-15 0)
(1.4 1.23634e-15 0)
(1.4 9.28084e-16 0)
(1.4 7.66554e-16 0)
(1.4 9.45965e-16 0)
(1.4 1.01865e-15 0)
(1.4 8.83443e-16 0)
(1.4 6.71194e-16 0)
(1.4 7.13091e-16 0)
(1.4 1.14298e-15 0)
(1.4 1.29359e-15 0)
(1.4 1.39749e-15 0)
(1.4 1.4978e-15 0)
(1.4 1.7216e-15 0)
(1.4 1.98364e-15 0)
(1.4 1.96121e-15 0)
(1.4 1.89417e-15 0)
(1.4 1.21099e-15 0)
(1.4 1.45017e-15 0)
(1.4 4.71906e-17 0)
(1.4 9.80985e-17 0)
(1.4 2.65481e-16 0)
(1.4 4.0798e-16 0)
(1.4 2.96491e-16 0)
(1.4 3.19091e-16 0)
(1.4 3.50737e-16 0)
(1.4 5.37295e-16 0)
(1.4 5.87949e-16 0)
(1.4 8.04272e-16 0)
(1.4 9.9113e-16 0)
(1.4 1.11017e-15 0)
(1.4 1.30994e-15 0)
(1.4 1.40999e-15 0)
(1.4 1.55312e-15 0)
(1.4 1.7392e-15 0)
(1.4 1.93812e-15 0)
(1.4 2.02885e-15 0)
(1.4 2.12798e-15 0)
(1.4 2.24327e-15 0)
(1.4 2.33308e-15 0)
(1.4 2.38846e-15 0)
(1.4 2.44607e-15 0)
(1.4 2.44772e-15 0)
(1.4 2.43531e-15 0)
(1.4 2.68364e-15 0)
(1.4 2.81963e-15 0)
(1.4 2.76794e-15 0)
(1.4 2.69798e-15 0)
(1.4 2.66266e-15 0)
(1.4 2.52907e-15 0)
(1.4 2.16436e-15 0)
(1.4 1.84451e-15 0)
(1.4 1.53342e-15 0)
(1.4 1.31589e-15 0)
(1.4 1.14058e-15 0)
(1.4 8.82858e-16 0)
(1.4 7.56408e-16 0)
(1.4 7.90822e-16 0)
(1.4 8.66156e-16 0)
(1.4 9.13493e-16 0)
(1.4 1.22608e-15 0)
(1.4 1.32034e-15 0)
(1.4 1.36263e-15 0)
(1.4 1.15287e-15 0)
(1.4 9.61134e-16 0)
(1.4 9.07031e-16 0)
(1.4 7.0985e-16 0)
(1.4 5.86291e-16 0)
(1.4 5.88437e-16 0)
(1.4 6.94243e-16 0)
(1.4 5.89744e-16 0)
(1.4 3.29851e-16 0)
(1.4 1.26791e-17 0)
(1.4 -1.62547e-16 0)
(1.4 -7.34787e-17 0)
(1.4 -2.46093e-16 0)
(1.4 -6.93077e-16 0)
(1.4 -9.23532e-16 0)
(1.4 -8.76864e-16 0)
(1.4 -9.1761e-16 0)
(1.4 -1.03939e-15 0)
(1.4 -9.97444e-16 0)
(1.4 -1.03268e-15 0)
(1.4 -6.66718e-16 0)
(1.4 -1.84498e-16 0)
(1.4 3.05299e-17 0)
(1.4 7.12024e-17 0)
(1.4 1.52264e-16 0)
(1.4 1.4797e-16 0)
(1.4 1.42632e-16 0)
(1.4 2.13856e-16 0)
(1.4 2.31578e-16 0)
(1.4 2.44946e-16 0)
(1.4 3.40057e-16 0)
(1.4 6.01676e-16 0)
(1.4 6.50249e-16 0)
(1.4 6.67742e-16 0)
(1.4 7.89658e-16 0)
(1.4 8.07356e-16 0)
(1.4 9.18714e-16 0)
(1.4 1.06197e-15 0)
(1.4 1.56093e-15 0)
(1.4 1.85284e-15 0)
(1.4 2.16126e-15 0)
(1.4 2.13506e-15 0)
(1.4 2.0282e-15 0)
(1.4 2.17907e-15 0)
(1.4 2.24489e-15 0)
(1.4 2.41136e-15 0)
(1.4 2.67777e-15 0)
(1.4 2.96166e-15 0)
(1.4 3.16885e-15 0)
(1.4 3.29544e-15 0)
(1.4 3.38494e-15 0)
(1.4 3.48806e-15 0)
(1.4 3.47389e-15 0)
(1.4 3.53396e-15 0)
(1.4 3.76121e-15 0)
(1.4 3.79675e-15 0)
(1.4 3.71039e-15 0)
(1.4 3.79336e-15 0)
(1.4 4.00532e-15 0)
(1.4 3.98604e-15 0)
(1.4 3.78926e-15 0)
(1.4 3.34173e-15 0)
(1.4 3.20079e-15 0)
(1.4 2.91662e-15 0)
(1.4 2.23045e-15 0)
(1.4 1.65601e-15 0)
(1.4 1.46439e-15 0)
(1.4 1.44083e-15 0)
(1.4 1.53792e-15 0)
(1.4 1.67357e-15 0)
(1.4 1.77519e-15 0)
(1.4 1.94004e-15 0)
(1.4 2.1125e-15 0)
(1.4 2.15372e-15 0)
(1.4 1.6692e-15 0)
(1.4 6.11852e-16 0)
(1.4 -9.72043e-16 0)
(1.4 -1.62456e-15 0)
(1.4 -1.61433e-15 0)
(1.4 -1.53202e-15 0)
(1.4 -1.71998e-15 0)
(1.4 -1.98973e-15 0)
(1.4 -2.44274e-15 0)
(1.4 -2.50826e-15 0)
(1.4 -2.65009e-15 0)
(1.4 -2.64236e-15 0)
(1.4 -2.9715e-15 0)
(1.4 -3.01829e-15 0)
(1.4 -3.18004e-15 0)
(1.4 -3.10174e-15 0)
(1.4 -3.04981e-15 0)
(1.4 -3.1186e-15 0)
(1.4 -3.24353e-15 0)
(1.4 -3.26131e-15 0)
(1.4 -3.32456e-15 0)
(1.4 -3.30677e-15 0)
(1.4 -3.20983e-15 0)
(1.4 -2.98108e-15 0)
(1.4 -2.59233e-15 0)
(1.4 -1.90398e-15 0)
(1.4 -1.44426e-15 0)
(1.4 -6.20307e-16 0)
(1.4 3.98556e-17 0)
(1.4 1.55896e-16 0)
(1.4 4.45438e-16 0)
(1.4 9.21298e-16 0)
(1.4 1.67315e-15 0)
(1.4 2.47063e-15 0)
(1.4 2.78418e-15 0)
(1.4 2.63565e-15 0)
(1.4 2.34633e-15 0)
(1.4 1.99913e-15 0)
(1.4 1.96329e-15 0)
(1.4 1.81501e-15 0)
(1.4 1.80855e-15 0)
(1.4 1.88011e-15 0)
(1.4 1.97616e-15 0)
(1.4 1.96548e-15 0)
(1.4 1.93022e-15 0)
(1.4 2.20984e-15 0)
(1.4 2.62252e-15 0)
(1.4 3.07911e-15 0)
(1.4 3.40051e-15 0)
(1.4 4.29491e-15 0)
(1.4 5.1676e-15 0)
(1.4 5.27327e-15 0)
(1.4 4.87504e-15 0)
(1.4 3.98534e-15 0)
(1.4 3.80081e-15 0)
(1.4 3.77834e-15 0)
(1.4 3.03983e-15 0)
(1.4 2.81367e-15 0)
(1.4 2.93259e-15 0)
(1.4 3.12187e-15 0)
(1.4 3.17823e-15 0)
(1.4 3.21627e-15 0)
(1.4 2.88677e-15 0)
(1.4 2.54483e-15 0)
(1.4 2.25722e-15 0)
(1.4 2.07933e-15 0)
(1.4 1.51403e-15 0)
(1.4 1.21913e-15 0)
(1.4 1.0495e-15 0)
(1.4 8.54097e-16 0)
(1.4 5.30106e-16 0)
(1.4 4.91595e-16 0)
(1.4 5.63101e-16 0)
(1.4 6.06572e-16 0)
(1.4 6.12287e-16 0)
(1.4 9.15377e-16 0)
(1.4 1.15011e-15 0)
(1.4 1.18328e-15 0)
(1.4 1.51772e-15 0)
(1.4 1.66935e-15 0)
(1.4 1.95864e-15 0)
(1.4 2.35296e-15 0)
(1.4 3.1994e-15 0)
(1.4 3.99343e-15 0)
(1.4 4.42536e-15 0)
(1.4 4.29355e-15 0)
(1.4 4.17155e-15 0)
(1.4 3.61406e-15 0)
(1.4 2.84987e-15 0)
(1.4 2.06738e-15 0)
(1.4 1.31287e-15 0)
(1.4 4.44358e-16 0)
(1.4 1.37219e-16 0)
(1.4 -7.99572e-17 0)
(1.4 -8.88997e-17 0)
(1.4 6.5237e-17 0)
(1.4 1.78996e-16 0)
(1.4 2.98485e-16 0)
(1.4 6.79435e-17 0)
(1.4 -2.80232e-17 0)
(1.4 1.03793e-17 0)
(1.4 -2.75443e-16 0)
(1.4 -5.21763e-16 0)
(1.4 -6.47051e-16 0)
(1.4 -7.6057e-16 0)
(1.4 -1.37546e-15 0)
(1.4 -1.35291e-15 0)
(1.4 -1.31752e-15 0)
(1.4 -7.80852e-16 0)
(1.4 -2.47022e-16 0)
(1.4 -6.55096e-18 0)
(1.4 4.03561e-16 0)
(1.4 5.11299e-16 0)
(1.4 8.90445e-16 0)
(1.4 1.38567e-15 0)
(1.4 1.80344e-15 0)
(1.4 1.93222e-15 0)
(1.4 2.17686e-15 0)
(1.4 2.49396e-15 0)
(1.4 2.86605e-15 0)
(1.4 2.8686e-15 0)
(1.4 2.90285e-15 0)
(1.4 2.62421e-15 0)
(1.4 2.47787e-15 0)
(1.4 2.42985e-15 0)
(1.4 1.86518e-15 0)
(1.4 8.12546e-16 0)
(1.4 5.12348e-16 0)
(1.4 1.29845e-15 0)
(1.4 2.30468e-15 0)
(1.4 2.44064e-15 0)
(1.4 2.55413e-15 0)
(1.4 2.48642e-15 0)
(1.4 2.29197e-15 0)
(1.4 2.25695e-15 0)
(1.4 1.23309e-15 0)
(1.4 7.66705e-16 0)
(1.4 2.45174e-16 0)
(1.4 -6.17562e-16 0)
(1.4 -1.24807e-15 0)
(1.4 -1.70791e-15 0)
(1.4 -1.87728e-15 0)
(1.4 -2.20559e-15 0)
(1.4 -2.35783e-15 0)
(1.4 -2.27266e-15 0)
(1.4 -1.95439e-15 0)
(1.4 -1.89001e-15 0)
(1.4 -1.84654e-15 0)
(1.4 -1.72652e-15 0)
(1.4 -1.57442e-15 0)
(1.4 -1.35741e-15 0)
(1.4 -9.62484e-16 0)
(1.4 -7.02258e-16 0)
(1.4 -5.02535e-16 0)
(1.4 -3.13659e-16 0)
(1.4 -3.35898e-16 0)
(1.4 -5.44237e-16 0)
(1.4 -8.81924e-16 0)
(1.4 -1.03193e-15 0)
(1.4 -1.29908e-15 0)
(1.4 -1.58092e-15 0)
(1.4 -1.69105e-15 0)
(1.4 -1.70907e-15 0)
(1.4 -1.4765e-15 0)
(1.4 -1.64382e-15 0)
(1.4 -2.07203e-15 0)
(1.4 -2.41437e-15 0)
(1.4 -2.64262e-15 0)
(1.4 -3.04957e-15 0)
(1.4 -3.07717e-15 0)
(1.4 -3.40646e-15 0)
(1.4 -4.05105e-15 0)
(1.4 -4.29222e-15 0)
(1.4 -4.44735e-15 0)
(1.4 -4.48488e-15 0)
(1.4 -4.36851e-15 0)
(1.4 -4.43913e-15 0)
(1.4 -4.66012e-15 0)
(1.4 -4.89981e-15 0)
(1.4 -4.76639e-15 0)
(1.4 -4.73836e-15 0)
(1.4 -4.78806e-15 0)
(1.4 -4.85814e-15 0)
(1.4 -5.02446e-15 0)
(1.4 -5.10198e-15 0)
(1.4 -4.9968e-15 0)
(1.4 -4.91074e-15 0)
(1.4 -4.71575e-15 0)
(1.4 -4.44151e-15 0)
(1.4 -4.20491e-15 0)
(1.4 -4.00902e-15 0)
(1.4 -3.92692e-15 0)
(1.4 -3.81303e-15 0)
(1.4 -4.16861e-15 0)
(1.4 -4.47316e-15 0)
(1.4 -4.53433e-15 0)
(1.4 -4.42977e-15 0)
(1.4 -4.15269e-15 0)
(1.4 -3.99588e-15 0)
(1.4 -4.0822e-15 0)
(1.4 -3.84739e-15 0)
(1.4 -3.84128e-15 0)
(1.4 -3.83387e-15 0)
(1.4 -4.14944e-15 0)
(1.4 -4.12424e-15 0)
(1.4 -4.02354e-15 0)
(1.4 -3.84352e-15 0)
(1.4 -3.68011e-15 0)
(1.4 -2.99283e-15 0)
(1.4 -2.00986e-15 0)
(1.4 -1.4521e-15 0)
(1.4 -6.89371e-16 0)
(1.4 -4.186e-16 0)
(1.4 -2.21627e-17 0)
(1.4 1.90855e-16 0)
(1.4 2.21037e-16 0)
(1.4 -1.21146e-16 0)
(1.4 -2.48035e-16 0)
(1.4 -3.19066e-16 0)
(1.4 -4.91584e-16 0)
(1.4 -8.06718e-16 0)
(1.4 -1.03457e-15 0)
(1.4 -9.47615e-16 0)
(1.4 -1.30423e-15 0)
(1.4 -1.48374e-15 0)
(1.4 -1.63204e-15 0)
(1.4 -2.00011e-15 0)
(1.4 -2.55142e-15 0)
(1.4 -3.01356e-15 0)
(1.4 -3.07899e-15 0)
(1.4 -3.12377e-15 0)
(1.4 -3.15236e-15 0)
(1.4 -3.4206e-15 0)
(1.4 -3.2947e-15 0)
(1.4 -3.0555e-15 0)
(1.4 -2.53869e-15 0)
(1.4 -2.0078e-15 0)
(1.4 -1.63519e-15 0)
(1.4 -5.513e-17 0)
(1.4 4.27713e-16 0)
(1.4 6.46302e-16 0)
(1.4 1.03751e-15 0)
(1.4 9.46514e-16 0)
(1.4 1.41886e-15 0)
(1.4 1.58628e-15 0)
(1.4 1.43457e-15 0)
(1.4 1.13525e-15 0)
(1.4 9.38652e-16 0)
(1.4 8.83949e-16 0)
(1.4 6.64398e-16 0)
(1.4 7.73186e-16 0)
(1.4 8.82385e-16 0)
(1.4 9.03119e-16 0)
(1.4 1.13959e-15 0)
(1.4 1.24115e-15 0)
(1.4 1.14896e-15 0)
(1.4 1.03181e-15 0)
(1.4 9.44213e-16 0)
(1.4 9.07454e-16 0)
(1.4 8.96611e-16 0)
(1.4 9.3024e-16 0)
(1.4 1.51499e-15 0)
(1.4 1.7255e-15 0)
(1.4 1.58616e-15 0)
(1.4 1.45442e-15 0)
(1.4 1.46997e-15 0)
(1.4 -1.04791e-17 0)
(1.4 -1.32864e-16 0)
(1.4 -2.51944e-16 0)
(1.4 -3.21591e-16 0)
(1.4 -2.03736e-16 0)
(1.4 -1.47051e-16 0)
(1.4 -2.63064e-17 0)
(1.4 1.31257e-16 0)
(1.4 2.19206e-16 0)
(1.4 3.45058e-16 0)
(1.4 4.97467e-16 0)
(1.4 5.39158e-16 0)
(1.4 4.7754e-16 0)
(1.4 5.46279e-16 0)
(1.4 6.48508e-16 0)
(1.4 8.62186e-16 0)
(1.4 7.54982e-16 0)
(1.4 8.80845e-16 0)
(1.4 1.61418e-15 0)
(1.4 1.97693e-15 0)
(1.4 2.20112e-15 0)
(1.4 2.24545e-15 0)
(1.4 2.32463e-15 0)
(1.4 2.59813e-15 0)
(1.4 2.59782e-15 0)
(1.4 2.4337e-15 0)
(1.4 2.28553e-15 0)
(1.4 2.30424e-15 0)
(1.4 2.45303e-15 0)
(1.4 2.57944e-15 0)
(1.4 2.68684e-15 0)
(1.4 2.6037e-15 0)
(1.4 2.4626e-15 0)
(1.4 2.15012e-15 0)
(1.4 1.89832e-15 0)
(1.4 2.0965e-15 0)
(1.4 1.7944e-15 0)
(1.4 9.63831e-16 0)
(1.4 1.70467e-16 0)
(1.4 -7.32805e-17 0)
(1.4 -1.06739e-16 0)
(1.4 -1.85696e-16 0)
(1.4 -2.44293e-16 0)
(1.4 -3.54196e-16 0)
(1.4 -4.35293e-16 0)
(1.4 -4.62006e-16 0)
(1.4 -5.3628e-16 0)
(1.4 -6.53599e-16 0)
(1.4 -9.56805e-16 0)
(1.4 -1.2642e-15 0)
(1.4 -1.6518e-15 0)
(1.4 -1.66318e-15 0)
(1.4 -1.56305e-15 0)
(1.4 -1.44373e-15 0)
(1.4 -1.4827e-15 0)
(1.4 -1.57553e-15 0)
(1.4 -1.68927e-15 0)
(1.4 -1.6679e-15 0)
(1.4 -1.55163e-15 0)
(1.4 -1.4619e-15 0)
(1.4 -1.24389e-15 0)
(1.4 -1.24018e-15 0)
(1.4 -1.29244e-15 0)
(1.4 -1.38848e-15 0)
(1.4 -9.23912e-16 0)
(1.4 -1.36694e-16 0)
(1.4 1.12891e-16 0)
(1.4 3.35548e-16 0)
(1.4 4.58256e-16 0)
(1.4 4.93075e-16 0)
(1.4 3.66443e-16 0)
(1.4 3.42896e-16 0)
(1.4 5.91958e-16 0)
(1.4 7.38651e-16 0)
(1.4 6.58339e-16 0)
(1.4 9.48174e-16 0)
(1.4 1.05446e-15 0)
(1.4 1.15886e-15 0)
(1.4 1.42669e-15 0)
(1.4 1.60561e-15 0)
(1.4 1.72511e-15 0)
(1.4 1.88999e-15 0)
(1.4 1.82036e-15 0)
(1.4 1.70794e-15 0)
(1.4 1.70733e-15 0)
(1.4 1.57434e-15 0)
(1.4 1.59869e-15 0)
(1.4 1.59219e-15 0)
(1.4 1.78384e-15 0)
(1.4 1.96652e-15 0)
(1.4 2.11576e-15 0)
(1.4 2.2311e-15 0)
(1.4 2.16431e-15 0)
(1.4 2.20084e-15 0)
(1.4 2.25346e-15 0)
(1.4 2.28263e-15 0)
(1.4 2.35484e-15 0)
(1.4 2.48625e-15 0)
(1.4 2.6106e-15 0)
(1.4 2.89429e-15 0)
(1.4 3.09878e-15 0)
(1.4 3.16924e-15 0)
(1.4 3.23265e-15 0)
(1.4 3.25438e-15 0)
(1.4 3.26419e-15 0)
(1.4 2.98757e-15 0)
(1.4 2.90179e-15 0)
(1.4 2.79734e-15 0)
(1.4 2.78382e-15 0)
(1.4 2.71668e-15 0)
(1.4 2.62433e-15 0)
(1.4 2.13793e-15 0)
(1.4 1.68756e-15 0)
(1.4 1.47175e-15 0)
(1.4 1.42435e-15 0)
(1.4 6.16638e-16 0)
(1.4 2.64367e-16 0)
(1.4 -2.48693e-16 0)
(1.4 -4.56277e-16 0)
(1.4 -4.73633e-16 0)
(1.4 -5.23433e-16 0)
(1.4 -4.24715e-16 0)
(1.4 -3.15183e-16 0)
(1.4 -1.39813e-16 0)
(1.4 6.08574e-17 0)
(1.4 1.30714e-18 0)
(1.4 -3.08642e-16 0)
(1.4 -4.58148e-16 0)
(1.4 -9.35878e-16 0)
(1.4 -1.33258e-15 0)
(1.4 -1.61984e-15 0)
(1.4 -1.91611e-15 0)
(1.4 -2.17545e-15 0)
(1.4 -2.28852e-15 0)
(1.4 -2.31808e-15 0)
(1.4 -2.46758e-15 0)
(1.4 -2.48759e-15 0)
(1.4 -2.4748e-15 0)
(1.4 -2.56069e-15 0)
(1.4 -2.62368e-15 0)
(1.4 -2.52248e-15 0)
(1.4 -2.50052e-15 0)
(1.4 -2.40559e-15 0)
(1.4 -1.9057e-15 0)
(1.4 -1.27479e-15 0)
(1.4 -2.45384e-16 0)
(1.4 8.27363e-16 0)
(1.4 1.85857e-15 0)
(1.4 2.03576e-15 0)
(1.4 2.36511e-15 0)
(1.4 2.60632e-15 0)
(1.4 2.91643e-15 0)
(1.4 2.83853e-15 0)
(1.4 2.99689e-15 0)
(1.4 2.46943e-15 0)
(1.4 2.18155e-15 0)
(1.4 1.87256e-15 0)
(1.4 2.08448e-15 0)
(1.4 2.36955e-15 0)
(1.4 1.9504e-15 0)
(1.4 1.3107e-15 0)
(1.4 1.29148e-15 0)
(1.4 1.43035e-15 0)
(1.4 1.80374e-15 0)
(1.4 2.0541e-15 0)
(1.4 2.53006e-15 0)
(1.4 3.02669e-15 0)
(1.4 3.29758e-15 0)
(1.4 3.6033e-15 0)
(1.4 3.73422e-15 0)
(1.4 3.68522e-15 0)
(1.4 3.58196e-15 0)
(1.4 3.29054e-15 0)
(1.4 2.76448e-15 0)
(1.4 2.7015e-15 0)
(1.4 2.4248e-15 0)
(1.4 2.06711e-15 0)
(1.4 1.64164e-15 0)
(1.4 1.52207e-15 0)
(1.4 1.60783e-15 0)
(1.4 2.02978e-15 0)
(1.4 2.19288e-15 0)
(1.4 2.29744e-15 0)
(1.4 2.22764e-15 0)
(1.4 1.81671e-15 0)
(1.4 1.45728e-15 0)
(1.4 5.74498e-16 0)
(1.4 -3.01176e-16 0)
(1.4 -5.29015e-16 0)
(1.4 -5.37865e-16 0)
(1.4 -7.6705e-16 0)
(1.4 -8.19365e-16 0)
(1.4 -7.93085e-16 0)
(1.4 -5.17462e-16 0)
(1.4 -7.97601e-16 0)
(1.4 9.51826e-17 0)
(1.4 6.44257e-16 0)
(1.4 1.09842e-15 0)
(1.4 1.66212e-15 0)
(1.4 2.00547e-15 0)
(1.4 1.89274e-15 0)
(1.4 1.85846e-15 0)
(1.4 1.92997e-15 0)
(1.4 1.18989e-15 0)
(1.4 5.19262e-16 0)
(1.4 5.52715e-16 0)
(1.4 5.36689e-16 0)
(1.4 3.88149e-16 0)
(1.4 1.56192e-16 0)
(1.4 2.05755e-16 0)
(1.4 4.5724e-16 0)
(1.4 1.03061e-15 0)
(1.4 1.67165e-15 0)
(1.4 2.15529e-15 0)
(1.4 2.38033e-15 0)
(1.4 2.48428e-15 0)
(1.4 2.62008e-15 0)
(1.4 2.60288e-15 0)
(1.4 2.63465e-15 0)
(1.4 2.48075e-15 0)
(1.4 2.18156e-15 0)
(1.4 2.34092e-15 0)
(1.4 2.53596e-15 0)
(1.4 2.32761e-15 0)
(1.4 2.13411e-15 0)
(1.4 1.90367e-15 0)
(1.4 1.66699e-15 0)
(1.4 1.51063e-15 0)
(1.4 1.67452e-15 0)
(1.4 1.61087e-15 0)
(1.4 1.75903e-15 0)
(1.4 1.70247e-15 0)
(1.4 1.45895e-15 0)
(1.4 1.36557e-15 0)
(1.4 1.52396e-15 0)
(1.4 1.7307e-15 0)
(1.4 1.75304e-15 0)
(1.4 1.96859e-15 0)
(1.4 2.07071e-15 0)
(1.4 2.31342e-15 0)
(1.4 2.42427e-15 0)
(1.4 2.39795e-15 0)
(1.4 2.05231e-15 0)
(1.4 1.62263e-15 0)
(1.4 1.28412e-15 0)
(1.4 1.42552e-15 0)
(1.4 1.20071e-15 0)
(1.4 1.292e-15 0)
(1.4 1.55236e-15 0)
(1.4 1.87615e-15 0)
(1.4 2.14948e-15 0)
(1.4 2.55955e-15 0)
(1.4 2.96115e-15 0)
(1.4 2.76379e-15 0)
(1.4 2.33026e-15 0)
(1.4 1.81062e-15 0)
(1.4 1.63904e-15 0)
(1.4 1.38975e-15 0)
(1.4 1.07728e-15 0)
(1.4 2.70341e-16 0)
(1.4 -5.5965e-17 0)
(1.4 -1.3904e-16 0)
(1.4 -2.41266e-16 0)
(1.4 -2.55461e-16 0)
(1.4 -1.0608e-17 0)
(1.4 -2.4115e-17 0)
(1.4 -2.21088e-16 0)
(1.4 -2.86693e-16 0)
(1.4 -1.17468e-16 0)
(1.4 -2.36544e-17 0)
(1.4 1.20038e-16 0)
(1.4 3.1113e-16 0)
(1.4 5.1741e-16 0)
(1.4 6.4287e-16 0)
(1.4 4.9019e-16 0)
(1.4 2.50007e-16 0)
(1.4 3.62127e-17 0)
(1.4 1.67558e-16 0)
(1.4 3.08026e-16 0)
(1.4 3.73418e-16 0)
(1.4 3.31775e-16 0)
(1.4 5.78541e-17 0)
(1.4 -1.23212e-16 0)
(1.4 -6.7851e-16 0)
(1.4 -7.76861e-16 0)
(1.4 -1.13453e-15 0)
(1.4 -1.80449e-15 0)
(1.4 -3.09663e-15 0)
(1.4 -3.89376e-15 0)
(1.4 -4.56036e-15 0)
(1.4 -4.60519e-15 0)
(1.4 -4.55199e-15 0)
(1.4 -4.64446e-15 0)