/*--------------------------------*- C++ -*----------------------------------*\
  =========                 |
  \\      /  F ield         | OpenFOAM: The Open Source CFD Toolbox
   \\    /   O peration     | Website:  https://openfoam.org
    \\  /    A nd           | Version:  7
     \\/     M anipulation  |
\*---------------------------------------------------------------------------*/
FoamFile
{
    version     2.0;
    format      ascii;
    class       volScalarField;
    location    "13";
    object      T;
}
// * * * * * * * * * * * * * * * * * * * * * * * * * * * * * * * * * * * * * //

dimensions      [0 0 0 1 0 0 0];

internalField   nonuniform List<scalar> 
2413
(
1.01283
1.01068
1.00805
1.00512
1.00304
1.00094
0.998177
0.995026
1.01413
1.01204
1.00975
1.00689
1.00464
1.00268
1.00022
0.997166
1.01555
1.01336
1.0113
1.00862
1.00619
1.00424
1.00196
0.999046
1.01723
1.01489
1.01294
1.01046
1.00789
1.00591
1.00376
1.00103
1.01949
1.01683
1.01489
1.01262
1.00991
1.00784
1.00581
1.00329
1.02236
1.01948
1.01737
1.01533
1.01265
1.01021
1.00818
1.00593
1.02577
1.02297
1.02038
1.01848
1.01613
1.01341
1.0111
1.00902
1.02963
1.02717
1.02418
1.02203
1.02005
1.01749
1.01475
1.01257
1.03357
1.03141
1.02864
1.02606
1.02413
1.02189
1.0191
1.01663
1.03717
1.03517
1.03283
1.03022
1.02815
1.02615
1.02366
1.02102
1.04035
1.0383
1.03623
1.03391
1.03175
1.02984
1.02774
1.02529
1.04299
1.04107
1.03907
1.03698
1.03485
1.03286
1.03099
1.02896
1.04463
1.04306
1.04132
1.03947
1.03757
1.03561
1.03369
1.03184
1.04533
1.04408
1.04274
1.04125
1.03965
1.03795
1.03619
1.03436
1.04589
1.0446
1.04334
1.04211
1.04083
1.03948
1.03807
1.03652
1.04596
1.04495
1.04384
1.04269
1.04146
1.04014
1.0389
1.03765
1.04531
1.0445
1.04358
1.04263
1.04162
1.04054
1.03943
1.03829
1.04364
1.04286
1.04235
1.0419
1.04116
1.04027
1.03938
1.03838
1.03796
1.03887
1.03965
1.03998
1.03966
1.03894
1.03824
1.03751
1.01189
1.00747
1.00321
0.999098
0.994989
0.99077
0.986661
0.982664
0.978721
0.974722
0.970837
0.967279
0.963639
0.959857
0.956103
0.952322
0.948508
0.944224
0.93935
0.9352
0.931926
0.928346
0.925158
0.923868
0.922646
0.921608
0.921496
0.921238
0.921267
0.921846
0.923624
0.927111
0.932694
0.938783
0.944715
0.950819
0.954497
0.956808
0.99285
0.991184
0.989209
0.986961
0.98456
0.982062
0.980018
0.978422
0.976365
0.974042
0.971795
0.969494
0.967923
0.96626
0.964294
0.961752
0.959089
0.957849
0.956516
0.954309
0.951391
0.950097
0.949269
0.947644
0.945759
0.945226
0.945104
0.944661
0.943722
0.944015
0.944818
0.944655
0.943982
0.944626
0.944948
0.944288
0.944351
0.944347
0.943493
0.942659
0.941457
0.939821
0.93787
0.935726
0.934836
0.934341
0.934028
0.93497
0.939988
0.952446
0.969852
0.98373
0.986786
0.987303
0.987821
0.988082
0.988146
0.988252
0.98881
0.991185
0.996459
1.00425
1.01564
1.0286
1.04056
1.05357
1.06133
1.06771
1.07134
1.07014
1.06824
1.06625
1.06348
1.05993
1.05561
1.05118
1.04695
1.04264
1.03745
1.03201
1.02681
1.02165
1.01664
1.012
1.00748
1.00295
0.998796
0.994981
0.991407
0.988035
0.984658
0.981052
0.977296
0.97364
0.970038
0.966215
0.962258
0.958402
0.95457
0.950785
0.946738
0.942675
0.939079
0.935292
0.931192
0.928075
0.925616
0.9234
0.92171
0.92085
0.920478
0.920571
0.920671
0.921111
0.922421
0.925172
0.928811
0.933416
0.939091
0.943518
0.99485
0.993302
0.991522
0.989369
0.987087
0.984613
0.982693
0.981201
0.979247
0.977068
0.974507
0.972231
0.970984
0.969419
0.967413
0.964719
0.96238
0.961188
0.959688
0.957516
0.954978
0.953493
0.952436
0.951048
0.949788
0.949082
0.94875
0.948303
0.947673
0.948032
0.948736
0.948511
0.947979
0.948765
0.949095
0.948478
0.94844
0.94831
0.947278
0.946252
0.944896
0.943022
0.941346
0.939482
0.938329
0.937957
0.937636
0.93814
0.941269
0.950807
0.967538
0.984188
0.989168
0.989358
0.989356
0.98903
0.988387
0.987612
0.987027
0.986498
0.985933
0.986063
0.987079
0.990237
0.996065
1.00568
1.01786
1.02948
1.04175
1.04939
1.05526
1.0587
1.05775
1.05512
1.05185
1.04924
1.04662
1.0436
1.04045
1.0364
1.0317
1.02678
1.02187
1.0173
1.01295
1.00854
1.0043
1.00037
0.996512
0.992661
0.988973
0.985569
0.982423
0.979348
0.976038
0.972244
0.968311
0.964616
0.960995
0.957075
0.953203
0.949633
0.946105
0.942753
0.938995
0.935339
0.932354
0.929406
0.926437
0.924064
0.923261
0.922426
0.921623
0.921534
0.92165
0.921864
0.922316
0.923233
0.9254
0.928976
0.996527
0.994999
0.993407
0.991442
0.989228
0.98662
0.984718
0.983374
0.981619
0.979517
0.976836
0.974602
0.973481
0.972025
0.970023
0.967277
0.965358
0.964124
0.96249
0.960169
0.958006
0.956818
0.955489
0.954111
0.953455
0.952903
0.952052
0.952031
0.952283
0.951925
0.952316
0.952634
0.952247
0.952855
0.953229
0.952748
0.952556
0.952262
0.950993
0.949761
0.948512
0.946571
0.945008
0.943561
0.942309
0.942033
0.941739
0.941931
0.943675
0.950002
0.963762
0.982541
0.99272
0.993726
0.993508
0.992895
0.991741
0.990284
0.988874
0.987424
0.986099
0.985274
0.984628
0.984119
0.984335
0.98511
0.987776
0.992654
1.00104
1.01227
1.02302
1.03439
1.04102
1.045
1.04785
1.04771
1.04655
1.04358
1.04022
1.03785
1.0351
1.03169
1.0278
1.0235
1.01903
1.01454
1.01022
1.00628
1.0025
0.998728
0.995014
0.991237
0.98744
0.983805
0.980343
0.977036
0.973588
0.970128
0.96678
0.9632
0.959503
0.956195
0.953005
0.949603
0.946066
0.942649
0.939474
0.936424
0.932995
0.929825
0.927562
0.925344
0.92355
0.922517
0.921914
0.921538
0.921571
0.921889
0.922363
0.923053
0.998413
0.996691
0.995195
0.993398
0.991316
0.988815
0.98669
0.985404
0.98381
0.981756
0.979145
0.976984
0.975879
0.97445
0.972415
0.969706
0.968157
0.966928
0.965281
0.96272
0.960924
0.959963
0.958615
0.957335
0.957013
0.95661
0.955773
0.956029
0.956345
0.955951
0.956544
0.956915
0.956664
0.957404
0.957677
0.95723
0.956982
0.956498
0.955125
0.953692
0.952394
0.950601
0.948897
0.947929
0.94665
0.946127
0.9459
0.94583
0.946667
0.950425
0.960243
0.976766
0.993366
0.998129
0.998232
0.997908
0.997061
0.995624
0.993952
0.992115
0.990013
0.988208
0.986847
0.985439
0.984567
0.983909
0.983901
0.984042
0.984698
0.987395
0.992819
1.0012
1.01203
1.02116
1.03031
1.03571
1.03883
1.0396
1.03883
1.03757
1.03585
1.03367
1.03128
1.02841
1.02498
1.02121
1.01721
1.01308
1.00887
1.00471
1.00082
0.997103
0.993375
0.989682
0.985824
0.981942
0.978464
0.975124
0.971949
0.968881
0.96547
0.962228
0.959239
0.95617
0.952953
0.949748
0.94671
0.943747
0.940424
0.936958
0.934015
0.931575
0.928884
0.926602
0.925464
0.924204
0.923428
0.923142
0.923206
0.923361
1.00065
0.998732
0.99724
0.995529
0.993515
0.991008
0.988947
0.987727
0.986149
0.984101
0.981441
0.979458
0.978435
0.977026
0.974949
0.972374
0.970998
0.969793
0.968122
0.965578
0.964084
0.963207
0.961917
0.961113
0.960874
0.960308
0.959844
0.960386
0.960404
0.960285
0.961186
0.961286
0.961381
0.96218
0.962147
0.961741
0.961501
0.960779
0.959208
0.957762
0.956477
0.954936
0.95304
0.952328
0.95142
0.950548
0.950424
0.950214
0.950506
0.9524
0.95865
0.971498
0.989339
1.00076
1.00252
1.00238
1.00196
1.00111
0.999696
0.998024
0.996192
0.994
0.992047
0.990163
0.987932
0.986088
0.985002
0.983815
0.983563
0.983851
0.984546
0.985766
0.989062
0.994996
1.00334
1.01328
1.02102
1.02783
1.03053
1.03219
1.03287
1.03227
1.03077
1.02892
1.02703
1.02488
1.02244
1.01938
1.01584
1.01196
1.00786
1.00369
0.999469
0.995566
0.991856
0.98806
0.984415
0.980937
0.977452
0.974281
0.971289
0.968348
0.965502
0.962446
0.959195
0.956197
0.953315
0.950451
0.947584
0.944344
0.941204
0.938557
0.935668
0.93259
0.930188
0.92839
0.926358
0.92464
0.924209
0.923721
1.00348
1.0012
0.999541
0.998049
0.996239
0.993829
0.991449
0.990178
0.988794
0.986882
0.984283
0.982264
0.981241
0.979891
0.977801
0.97541
0.974188
0.972985
0.971209
0.968729
0.967584
0.966787
0.965646
0.96517
0.964927
0.964275
0.964389
0.964942
0.964687
0.96513
0.966153
0.96613
0.966694
0.967336
0.96699
0.966581
0.966178
0.965179
0.963441
0.962094
0.96088
0.959446
0.957612
0.956908
0.956301
0.955124
0.95484
0.954708
0.954634
0.955377
0.958896
0.967907
0.983161
0.999827
1.00584
1.00629
1.00616
1.00567
1.00472
1.00338
1.00187
1.00019
0.99834
0.99657
0.994408
0.991846
0.989702
0.987634
0.985708
0.984792
0.984263
0.984302
0.984385
0.984958
0.986821
0.991277
0.997419
1.00533
1.01333
1.01934
1.0249
1.02635
1.02607
1.02575
1.02524
1.0241
1.02245
1.02063
1.01864
1.01648
1.01377
1.01052
1.00683
1.0029
0.998954
0.994981
0.99114
0.987604
0.984163
0.980756
0.977453
0.974437
0.971706
0.968896
0.965894
0.962969
0.960129
0.957043
0.953914
0.950975
0.948129
0.945405
0.942836
0.939847
0.936887
0.934706
0.932335
0.929798
0.928186
0.927154
1.00691
1.00462
1.0024
1.00088
0.999342
0.997204
0.994667
0.993213
0.991927
0.990132
0.987557
0.985556
0.984551
0.983235
0.981167
0.978823
0.977683
0.976582
0.974802
0.972518
0.97159
0.970813
0.969952
0.96967
0.969302
0.968825
0.96938
0.969682
0.969468
0.970437
0.97138
0.971482
0.972246
0.972671
0.97215
0.971535
0.970895
0.969707
0.967918
0.966696
0.965574
0.96417
0.962411
0.961697
0.961216
0.960058
0.959338
0.959288
0.95897
0.95916
0.960776
0.966385
0.977928
0.994437
1.00716
1.00984
1.00991
1.00962
1.00888
1.00786
1.00654
1.00505
1.00363
1.00214
1.00045
0.998326
0.995919
0.993707
0.991155
0.988416
0.986663
0.985456
0.984335
0.984134
0.984127
0.984309
0.985033
0.987317
0.992212
0.99826
1.00509
1.01139
1.01584
1.01974
1.02172
1.02133
1.01993
1.01857
1.01739
1.01604
1.0145
1.01264
1.01068
1.00838
1.00561
1.00241
0.998967
0.995419
0.991871
0.988415
0.985095
0.981877
0.978695
0.975575
0.972515
0.969681
0.967031
0.964207
0.961162
0.958105
0.9551
0.952159
0.949343
0.946648
0.944099
0.941698
0.939379
0.936464
0.933588
0.931933
1.01074
1.00876
1.00626
1.00432
1.00298
1.00118
0.998658
0.996842
0.99565
0.994051
0.991597
0.989401
0.988368
0.98713
0.98516
0.982863
0.981761
0.98072
0.978991
0.9769
0.976086
0.975445
0.974874
0.974556
0.973987
0.974004
0.974697
0.974629
0.974803
0.976223
0.976914
0.977264
0.978024
0.978206
0.977531
0.976674
0.975803
0.974462
0.972601
0.971467
0.970411
0.96899
0.967273
0.966543
0.966042
0.965034
0.96389
0.963766
0.963418
0.963178
0.963748
0.966658
0.97441
0.98791
1.00426
1.01225
1.01338
1.01324
1.01273
1.01185
1.01067
1.00918
1.00779
1.00655
1.00511
1.00345
1.00159
0.999509
0.997206
0.994309
0.991581
0.989451
0.987225
0.985448
0.9847
0.983841
0.983347
0.982913
0.983135
0.984462
0.987061
0.991368
0.996715
1.00255
1.00767
1.01126
1.01403
1.01586
1.01593
1.01495
1.01298
1.01143
1.01011
1.00883
1.0073
1.00559
1.00378
1.00162
0.999055
0.996228
0.993247
0.990134
0.986997
0.983837
0.980645
0.977458
0.974291
0.97122
0.968286
0.965506
0.962762
0.959922
0.957106
0.953995
0.950882
0.948515
0.946261
0.943648
0.940989
0.938724
1.01491
1.01323
1.01095
1.00856
1.00713
1.00559
1.0033
1.00112
0.999919
0.998501
0.996285
0.993903
0.992757
0.991584
0.989715
0.98744
0.986367
0.985401
0.983801
0.981875
0.981077
0.980624
0.980205
0.979726
0.979239
0.979764
0.98017
0.980023
0.980812
0.982233
0.982734
0.983281
0.983818
0.983755
0.982853
0.981817
0.980789
0.979331
0.977413
0.976287
0.975252
0.973783
0.972004
0.971277
0.970718
0.969802
0.968559
0.968194
0.967878
0.967215
0.967293
0.968471
0.972846
0.982536
0.997192
1.01168
1.01611
1.01657
1.01632
1.01563
1.01457
1.01307
1.0115
1.01021
1.00889
1.00736
1.00584
1.00422
1.00225
0.99985
0.997214
0.99477
0.992275
0.989353
0.987167
0.985486
0.984108
0.982813
0.98225
0.981645
0.980951
0.981013
0.982344
0.985268
0.989421
0.993947
0.998894
1.00312
1.00637
1.00866
1.00997
1.00999
1.00954
1.00804
1.00634
1.00499
1.00376
1.00259
1.00134
0.999957
0.998376
0.996432
0.994111
0.991538
0.988767
0.985844
0.982811
0.979716
0.976593
0.973555
0.97056
0.96758
0.964829
0.962194
0.959465
0.956737
0.954053
0.951152
0.948105
0.94578
1.01919
1.01772
1.01579
1.01332
1.01165
1.01029
1.00829
1.0059
1.00455
1.00328
1.00134
0.998857
0.997555
0.996472
0.994732
0.99246
0.991389
0.990501
0.989012
0.98721
0.986477
0.98613
0.985703
0.985037
0.985033
0.985689
0.985622
0.985942
0.987173
0.988319
0.988899
0.989201
0.989395
0.989172
0.988036
0.986869
0.985716
0.984126
0.98214
0.980995
0.97991
0.978438
0.976547
0.975726
0.975151
0.974172
0.973035
0.972481
0.972108
0.971351
0.970775
0.971155
0.973126
0.978882
0.990213
1.00516
1.01697
1.01939
1.01952
1.01915
1.01833
1.01696
1.01522
1.01371
1.01226
1.01072
1.00927
1.00791
1.00628
1.00425
1.00208
0.999882
0.997491
0.994609
0.991592
0.989222
0.987076
0.984661
0.983094
0.981963
0.980863
0.980048
0.979408
0.978858
0.979068
0.980096
0.982524
0.986389
0.990546
0.99479
0.998394
1.00111
1.00323
1.00456
1.00461
1.0043
1.00327
1.00184
1.00088
0.999791
0.998611
0.997435
0.996209
0.994852
0.993347
0.991539
0.989364
0.986963
0.984414
0.981733
0.978963
0.976159
0.973309
0.970539
0.967875
0.965222
0.96256
0.959837
0.957058
0.954314
1.02321
1.0218
1.02024
1.01801
1.01603
1.01479
1.01318
1.01082
1.00913
1.00798
1.00634
1.00395
1.00242
1.00143
0.999882
0.997625
0.996493
0.995678
0.994279
0.992598
0.991942
0.9916
0.991056
0.99047
0.990917
0.991203
0.991175
0.992084
0.993296
0.994555
0.994701
0.994644
0.994696
0.994298
0.992862
0.991585
0.990362
0.988678
0.986661
0.985479
0.984292
0.982759
0.980842
0.979873
0.979278
0.978249
0.977038
0.976554
0.97608
0.975368
0.974384
0.974135
0.974788
0.977611
0.98467
0.997084
1.01151
1.02093
1.02232
1.02227
1.02182
1.02078
1.01905
1.01734
1.01571
1.01396
1.01241
1.01111
1.00966
1.00789
1.00603
1.00419
1.00208
0.99957
0.996705
0.994055
0.991509
0.988701
0.985652
0.983755
0.982222
0.980713
0.979464
0.978682
0.977867
0.977258
0.976803
0.977028
0.978039
0.980061
0.983109
0.986706
0.990127
0.993405
0.995966
0.997715
0.998934
0.999634
0.999658
0.999196
0.997928
0.996633
0.995789
0.99474
0.993453
0.992091
0.990718
0.989353
0.987921
0.986301
0.984433
0.982457
0.980316
0.978056
0.975745
0.973356
0.970871
0.968305
0.965709
0.963122
1.02681
1.02517
1.02384
1.0221
1.02
1.01864
1.01728
1.01524
1.01329
1.01216
1.01081
1.00869
1.00688
1.00595
1.00465
1.00251
1.00119
1.00044
0.999164
0.997604
0.996942
0.996566
0.995913
0.995737
0.99629
0.996242
0.996608
0.997678
0.999155
1.00008
0.99988
0.999652
0.99958
0.998943
0.997272
0.995928
0.994616
0.992811
0.990748
0.989529
0.988293
0.986678
0.984807
0.983771
0.983023
0.982101
0.98074
0.980171
0.979738
0.978998
0.978085
0.977195
0.977232
0.978332
0.981908
0.990089
1.003
1.01667
1.02428
1.02501
1.02489
1.02431
1.02292
1.02117
1.01939
1.0174
1.01561
1.01424
1.01282
1.01115
1.00944
1.00776
1.00592
1.00375
1.00131
0.998898
0.996409
0.993581
0.990404
0.987819
0.985568
0.983255
0.980738
0.979654
0.978715
0.977546
0.976692
0.976076
0.975336
0.974811
0.974891
0.975483
0.976966
0.979376
0.982394
0.98536
0.987961
0.990414
0.992252
0.993572
0.994365
0.994811
0.994757
0.994082
0.992779
0.991168
0.990079
0.989194
0.988035
0.986659
0.985369
0.984096
0.982705
0.981178
0.979461
0.977676
0.975916
0.974129
0.972237
0.970258
1.02997
1.02813
1.02671
1.02529
1.02342
1.02187
1.02059
1.01886
1.01682
1.01563
1.01445
1.01264
1.01067
1.00966
1.00863
1.00682
1.00516
1.00439
1.0034
1.00209
1.00131
1.0008
1.00016
1.00036
1.00078
1.00073
1.00136
1.00265
1.00423
1.00477
1.00437
1.00399
1.00378
1.00292
1.00115
0.999815
0.998458
0.996578
0.994467
0.99317
0.9919
0.990203
0.988287
0.987451
0.986572
0.985528
0.984471
0.983524
0.982991
0.982289
0.981451
0.98054
0.979898
0.980191
0.98174
0.985904
0.994945
1.008
1.02096
1.0272
1.02753
1.02737
1.02657
1.02508
1.02331
1.02118
1.01906
1.01749
1.01595
1.01424
1.01258
1.01093
1.0092
1.00732
1.00518
1.00303
1.00087
0.998424
0.995569
0.992831
0.990415
0.987889
0.984981
0.982771
0.981025
0.979153
0.977
0.976305
0.975759
0.974868
0.974271
0.973687
0.973053
0.972591
0.972867
0.973715
0.975196
0.977301
0.979833
0.982214
0.984333
0.986313
0.987688
0.988565
0.989058
0.989266
0.989117
0.98833
0.986893
0.98568
0.984916
0.983981
0.982768
0.981378
0.980038
0.978663
0.977205
0.975736
0.974283
0.972876
1.03267
1.03105
1.02947
1.02801
1.0263
1.02462
1.02333
1.02184
1.01991
1.0186
1.01747
1.01589
1.01389
1.01267
1.01172
1.01032
1.00854
1.00756
1.00677
1.00572
1.00494
1.00431
1.00386
1.00429
1.00456
1.00462
1.00543
1.00705
1.00841
1.00879
1.0083
1.00773
1.0074
1.00642
1.00463
1.00331
1.00192
0.999947
0.9978
0.996482
0.995193
0.993526
0.991553
0.990745
0.990015
0.988636
0.98773
0.987027
0.986102
0.985426
0.984637
0.983777
0.98291
0.982596
0.983115
0.985091
0.989625
0.999084
1.01204
1.02417
1.02971
1.02985
1.02962
1.02873
1.02728
1.02524
1.02287
1.02098
1.01926
1.01741
1.01569
1.01403
1.01225
1.01038
1.00843
1.00644
1.00447
1.00241
0.999986
0.997622
0.995469
0.993153
0.990372
0.987645
0.985604
0.983477
0.980831
0.978729
0.977325
0.975782
0.974146
0.973507
0.973109
0.97238
0.971502
0.97072
0.970123
0.969774
0.970008
0.970801
0.972233
0.97407
0.97608
0.977795
0.97919
0.980696
0.981781
0.982291
0.982665
0.983032
0.982837
0.981861
0.980824
0.980088
0.979443
0.978434
0.977181
0.975863
0.974545
0.973198
1.03499
1.03361
1.03214
1.03064
1.02908
1.02739
1.026
1.02465
1.02286
1.02133
1.02015
1.01868
1.01677
1.01551
1.01451
1.01317
1.01143
1.01051
1.00978
1.00884
1.00804
1.00732
1.00716
1.00767
1.00784
1.008
1.00918
1.01104
1.01193
1.01227
1.01182
1.01103
1.01061
1.00961
1.00784
1.00652
1.00512
1.00312
1.00092
0.999586
0.998336
0.996725
0.994824
0.99399
0.993309
0.991952
0.990628
0.990176
0.989332
0.988395
0.987796
0.986918
0.986007
0.985365
0.985288
0.985959
0.988235
0.992901
1.00246
1.01506
1.02628
1.03197
1.03206
1.03179
1.03094
1.0294
1.02708
1.02488
1.02292
1.02079
1.01886
1.01716
1.01539
1.01355
1.0117
1.00976
1.00783
1.00593
1.00377
1.00154
0.999571
0.997557
0.995097
0.992637
0.990606
0.988516
0.985992
0.98337
0.981583
0.979708
0.977486
0.975582
0.974339
0.973022
0.971399
0.970335
0.969886
0.969055
0.968186
0.967474
0.967076
0.966824
0.96671
0.967063
0.967971
0.969155
0.970372
0.97157
0.972832
0.974108
0.97498
0.975508
0.97583
0.976053
0.975769
0.974973
0.974271
0.973649
0.97287
0.971876
1.03646
1.03538
1.03416
1.03284
1.0315
1.03004
1.0287
1.02744
1.02581
1.02413
1.02289
1.0215
1.01972
1.01839
1.01731
1.01595
1.01426
1.01329
1.01261
1.01176
1.0109
1.01026
1.0104
1.01083
1.01093
1.01128
1.01306
1.01494
1.01519
1.01542
1.01518
1.01425
1.01367
1.01269
1.0109
1.00951
1.00814
1.0062
1.00399
1.0027
1.00152
0.999964
0.998103
0.997262
0.996545
0.995282
0.993723
0.993182
0.992549
0.991331
0.990659
0.990085
0.989026
0.988346
0.987867
0.987818
0.988646
0.991072
0.99576
1.00504
1.01706
1.02767
1.03375
1.03405
1.03392
1.03308
1.0313
1.029
1.02685
1.02459
1.02243
1.02059
1.01867
1.01658
1.01469
1.01283
1.01098
1.00931
1.00751
1.00548
1.00365
1.0019
0.9998
0.997345
0.995232
0.993166
0.990661
0.988044
0.98615
0.984322
0.98216
0.979832
0.978194
0.976424
0.974211
0.972084
0.970857
0.969725
0.968413
0.967235
0.966673
0.965851
0.964854
0.963868
0.963259
0.962858
0.962375
0.962432
0.96283
0.963497
0.964061
0.964707
0.965581
0.96653
0.967227
0.967725
0.967966
0.968234
0.968179
0.967801
1.03717
1.03614
1.03503
1.03387
1.03287
1.03178
1.03067
1.02962
1.0283
1.02672
1.02554
1.02437
1.02282
1.02146
1.02026
1.01889
1.01736
1.01631
1.0156
1.01482
1.01393
1.01352
1.01383
1.0141
1.01414
1.01483
1.01705
1.01874
1.01866
1.01862
1.0186
1.01776
1.01691
1.01585
1.01403
1.01252
1.01124
1.00949
1.00726
1.00595
1.00485
1.00329
1.0014
1.00051
0.999725
0.998495
0.996848
0.996183
0.99562
0.994465
0.993419
0.992979
0.992199
0.991328
0.990829
0.990314
0.990332
0.991317
0.993658
0.998271
1.00666
1.0181
1.02808
1.0351
1.03599
1.03588
1.03504
1.03318
1.03105
1.0287
1.02628
1.02422
1.02228
1.02024
1.01829
1.0164
1.01437
1.01249
1.01068
1.00865
1.00686
1.00542
1.00378
1.00177
0.99987
0.997979
0.995762
0.993222
0.991215
0.98931
0.986966
0.984242
0.982198
0.980294
0.978114
0.97576
0.974268
0.97282
0.970974
0.969039
0.967777
0.966608
0.96535
0.96396
0.963091
0.962237
0.9612
0.960141
0.959358
0.958615
0.957929
0.957433
0.957355
0.957519
0.957584
0.957727
0.958092
0.958551
0.958921
0.959127
1.03742
1.03655
1.03565
1.03465
1.03366
1.03262
1.0315
1.03052
1.02953
1.02831
1.02729
1.0264
1.02523
1.02401
1.02291
1.02172
1.02048
1.01958
1.01894
1.01825
1.01743
1.01728
1.0175
1.01749
1.01764
1.0188
1.02102
1.02256
1.0226
1.02226
1.02221
1.02152
1.02041
1.01926
1.01751
1.01585
1.01463
1.01305
1.01078
1.00928
1.00822
1.00674
1.00483
1.00385
1.00306
1.00188
1.00023
0.999431
0.998791
0.997661
0.996279
0.995759
0.995181
0.994186
0.993578
0.993043
0.99258
0.992676
0.993571
0.99572
0.999807
1.00725
1.01807
1.02791
1.03512
1.03757
1.03732
1.03653
1.03513
1.03317
1.03073
1.02839
1.02616
1.02388
1.02188
1.02003
1.01818
1.01643
1.0147
1.01282
1.01087
1.00913
1.00723
1.00484
1.00295
1.00141
0.99965
0.997648
0.995996
0.994298
0.992191
0.989577
0.987349
0.985309
0.982971
0.980217
0.978201
0.976419
0.97442
0.972131
0.970695
0.969409
0.967787
0.965928
0.964612
0.963319
0.961953
0.960471
0.959508
0.958708
0.957855
0.956811
0.955906
0.955092
0.954146
0.953093
0.952361
0.951939
0.95145
0.95094
1.0369
1.03631
1.03556
1.03469
1.03378
1.03286
1.0319
1.03102
1.03028
1.02936
1.02829
1.0273
1.02628
1.02528
1.0244
1.02341
1.02258
1.02205
1.0216
1.02108
1.0205
1.0205
1.02056
1.02053
1.02122
1.02284
1.02505
1.02643
1.02673
1.02629
1.02587
1.02518
1.02406
1.02297
1.02144
1.01966
1.01831
1.01676
1.01454
1.01268
1.01164
1.01035
1.0085
1.00747
1.00669
1.00548
1.00381
1.00287
1.00208
1.00092
0.999391
0.998546
0.997941
0.997066
0.996224
0.995678
0.994983
0.994524
0.994612
0.995473
0.997304
1.00049
1.00754
)
;

boundaryField
{
    inlet
    {
        type            fixedValue;
        value           nonuniform 0();
    }
    outlet
    {
        type            inletOutlet;
        inletValue      nonuniform 0();
        value           nonuniform 0();
    }
    bottom
    {
        type            symmetryPlane;
    }
    top
    {
        type            symmetryPlane;
    }
    obstacle
    {
        type            zeroGradient;
    }
    front
    {
        type            empty;
    }
    back
    {
        type            empty;
    }
    procBoundary21to13
    {
        type            processor;
        value           nonuniform List<scalar> 
129
(
1.01124
1.00882
1.00575
1.00284
1.00076
0.998382
0.99518
0.991991
1.00831
1.0038
0.999133
0.994474
0.989787
0.985245
0.980971
0.976867
0.972767
0.968735
0.964962
0.961188
0.957416
0.953441
0.949068
0.945006
0.941043
0.93658
0.932346
0.929148
0.926347
0.923831
0.922179
0.921535
0.921188
0.921254
0.92183
0.923662
0.927178
0.932573
0.939431
0.94579
0.951354
0.956572
0.961421
0.963565
0.964301
0.965597
0.989887
0.988049
0.98588
0.983499
0.980715
0.978124
0.976483
0.974734
0.972181
0.969728
0.967904
0.965923
0.963795
0.962073
0.960289
0.957922
0.955118
0.953854
0.952588
0.950384
0.947482
0.946342
0.945459
0.943674
0.941426
0.940915
0.940982
0.940788
0.939801
0.939598
0.940474
0.940605
0.939927
0.940374
0.940773
0.940162
0.940234
0.94036
0.939908
0.939241
0.938203
0.936752
0.934794
0.932857
0.931674
0.930651
0.93046
0.932356
0.939926
0.954785
0.972453
0.983668
0.987079
0.988433
0.989928
0.992654
0.997696
1.00564
1.01543
1.02875
1.04192
1.05462
1.0668
1.07383
1.08038
1.08418
1.08302
1.0812
1.07906
1.07552
1.07125
1.06691
1.06318
1.05931
1.05494
1.04957
1.04337
1.03718
1.03161
1.02656
1.02169
1.0167
1.0167
)
;
    }
    procBoundary21to14
    {
        type            processor;
        value           nonuniform List<scalar> 4(0.959239 0.947421 0.933346 0.924374);
    }
    procBoundary21to22
    {
        type            processor;
        value           nonuniform List<scalar> 
15
(
0.923332
0.923268
0.925872
0.93016
0.936684
0.943788
0.951605
0.960479
0.968167
0.971492
0.971827
0.97083
0.967403
0.959321
0.950795
)
;
    }
    procBoundary21to28
    {
        type            processor;
        value           nonuniform List<scalar> 
11
(
1.01512
1.0166
1.01809
1.01979
1.02202
1.02463
1.02784
1.0317
1.03574
1.0394
1.04253
)
;
    }
    procBoundary21to29
    {
        type            processor;
        value           nonuniform List<scalar> 
129
(
1.02639
1.02907
1.03127
1.03294
1.034
1.03473
1.03526
1.03543
1.01702
1.0277
1.03452
1.03853
1.03938
1.03891
1.03774
1.03574
1.03351
1.03122
1.0288
1.02654
1.02435
1.02193
1.01985
1.01815
1.01645
1.01478
1.01319
1.01142
1.00923
1.00714
1.00542
1.00356
1.00122
0.999452
0.997894
0.995959
0.993684
0.991833
0.990038
0.987941
0.985432
0.983367
0.981486
0.979399
0.976888
0.974881
0.973099
0.971142
0.96879
0.967146
0.965837
0.96442
0.962625
0.961513
0.960521
0.959297
0.957903
0.956908
0.955901
0.954733
0.953351
0.952209
0.951411
0.950551
0.949508
1.03522
1.03464
1.03402
1.03344
1.03281
1.03224
1.0317
1.03105
1.03034
1.02947
1.02851
1.02761
1.02672
1.02594
1.02527
1.0244
1.0235
1.0229
1.02248
1.02206
1.02184
1.02207
1.02233
1.02274
1.02391
1.0259
1.02858
1.02984
1.03012
1.02988
1.02919
1.0284
1.02745
1.02653
1.02524
1.0234
1.02174
1.02017
1.01816
1.01611
1.01507
1.01398
1.01229
1.01111
1.0102
1.00895
1.00721
1.00617
1.00536
1.00419
1.00266
1.00168
1.00095
1.0001
0.999233
0.998658
0.998092
0.997399
0.997053
0.996986
0.997453
0.998706
1.01702
1.00188
)
;
    }
    procBoundary21to36
    {
        type            processor;
        value           nonuniform List<scalar> 8(1.04479 1.04604 1.04658 1.04711 1.04684 1.04575 1.04404 1.03633);
    }
}


// ************************************************************************* //
