/*--------------------------------*- C++ -*----------------------------------*\
  =========                 |
  \\      /  F ield         | OpenFOAM: The Open Source CFD Toolbox
   \\    /   O peration     | Website:  https://openfoam.org
    \\  /    A nd           | Version:  7
     \\/     M anipulation  |
\*---------------------------------------------------------------------------*/
FoamFile
{
    version     2.0;
    format      ascii;
    class       volVectorField;
    location    "13";
    object      U;
}
// * * * * * * * * * * * * * * * * * * * * * * * * * * * * * * * * * * * * * //

dimensions      [0 1 -1 0 0 0 0];

internalField   nonuniform List<vector> 
2413
(
(1.99492 0.104413 0)
(2.00128 0.102246 0)
(2.00795 0.101705 0)
(2.01491 0.0988846 0)
(2.02219 0.0930978 0)
(2.0284 0.0896121 0)
(2.03537 0.0887883 0)
(2.04224 0.0861284 0)
(1.9918 0.104482 0)
(1.99812 0.101047 0)
(2.00431 0.0999373 0)
(2.01072 0.0982595 0)
(2.01811 0.0931582 0)
(2.02411 0.0890491 0)
(2.03055 0.0880278 0)
(2.03704 0.0860905 0)
(1.98822 0.10448 0)
(1.99495 0.100815 0)
(2.00092 0.09875 0)
(2.00693 0.0975131 0)
(2.01413 0.0929719 0)
(2.02012 0.0883298 0)
(2.02614 0.086926 0)
(2.03231 0.0856113 0)
(1.98458 0.104958 0)
(1.99156 0.101097 0)
(1.99748 0.0979664 0)
(2.00323 0.0970368 0)
(2.01001 0.0933943 0)
(2.01609 0.0885834 0)
(2.02177 0.0867002 0)
(2.02788 0.085365 0)
(1.98133 0.106168 0)
(1.98796 0.102952 0)
(1.99386 0.0990161 0)
(1.99926 0.0979353 0)
(2.00563 0.0949719 0)
(2.01202 0.0897944 0)
(2.01741 0.087044 0)
(2.02333 0.0856333 0)
(1.97793 0.108523 0)
(1.98412 0.106263 0)
(1.99032 0.101665 0)
(1.99547 0.0994985 0)
(2.00141 0.0973546 0)
(2.0076 0.093058 0)
(2.01286 0.0895517 0)
(2.01852 0.0871947 0)
(1.97425 0.112297 0)
(1.97998 0.111043 0)
(1.98609 0.107312 0)
(1.99156 0.103262 0)
(1.99718 0.100796 0)
(2.003 0.0979055 0)
(2.00831 0.0940877 0)
(2.01379 0.0902709 0)
(1.97034 0.117996 0)
(1.97577 0.116633 0)
(1.98112 0.114679 0)
(1.98745 0.109532 0)
(1.99284 0.105394 0)
(1.99827 0.103612 0)
(2.00333 0.100918 0)
(2.00903 0.0961195 0)
(1.96644 0.124962 0)
(1.97172 0.122442 0)
(1.97694 0.121226 0)
(1.98277 0.117218 0)
(1.98816 0.112369 0)
(1.9933 0.110165 0)
(1.99856 0.10803 0)
(2.00421 0.103459 0)
(1.9625 0.131546 0)
(1.96766 0.128677 0)
(1.97282 0.127277 0)
(1.97843 0.124209 0)
(1.98397 0.119379 0)
(1.9888 0.116508 0)
(1.99394 0.114803 0)
(1.99916 0.111462 0)
(1.95898 0.136631 0)
(1.96409 0.133832 0)
(1.96917 0.131798 0)
(1.97452 0.129412 0)
(1.97981 0.125884 0)
(1.98465 0.122743 0)
(1.98974 0.120396 0)
(1.99483 0.117822 0)
(1.95623 0.139154 0)
(1.96078 0.13763 0)
(1.9657 0.135762 0)
(1.971 0.133322 0)
(1.97605 0.130637 0)
(1.98095 0.127567 0)
(1.98597 0.124533 0)
(1.99086 0.122342 0)
(1.95386 0.141215 0)
(1.95836 0.139645 0)
(1.96306 0.137772 0)
(1.96794 0.135644 0)
(1.97258 0.13374 0)
(1.9771 0.131668 0)
(1.98214 0.128658 0)
(1.9872 0.125583 0)
(1.95245 0.141124 0)
(1.9566 0.140437 0)
(1.96089 0.139212 0)
(1.96523 0.137736 0)
(1.96955 0.136088 0)
(1.97418 0.133725 0)
(1.97877 0.131297 0)
(1.98327 0.129125 0)
(1.95174 0.139426 0)
(1.9555 0.138909 0)
(1.95946 0.138191 0)
(1.96338 0.137539 0)
(1.96738 0.136666 0)
(1.9716 0.135242 0)
(1.97584 0.133427 0)
(1.97995 0.131669 0)
(1.95192 0.137068 0)
(1.95518 0.137213 0)
(1.95869 0.136618 0)
(1.96238 0.13585 0)
(1.96622 0.135115 0)
(1.97007 0.13431 0)
(1.97381 0.133254 0)
(1.97745 0.132123 0)
(1.95173 0.134745 0)
(1.95537 0.133879 0)
(1.95899 0.13299 0)
(1.96243 0.132617 0)
(1.96583 0.1329 0)
(1.96897 0.132976 0)
(1.97248 0.131915 0)
(1.97612 0.130619 0)
(1.95321 0.128148 0)
(1.95524 0.131509 0)
(1.95788 0.131743 0)
(1.96105 0.13113 0)
(1.9645 0.130812 0)
(1.96855 0.12977 0)
(1.9721 0.128095 0)
(1.97538 0.127284 0)
(1.95733 0.113797 0)
(1.95889 0.118216 0)
(1.9614 0.11883 0)
(1.96469 0.121299 0)
(1.96567 0.123505 0)
(1.96763 0.125929 0)
(1.97018 0.126215 0)
(1.97342 0.125816 0)
(1.98505 -0.0184254 0)
(1.99174 -0.02764 0)
(1.99764 -0.0346131 0)
(2.00252 -0.0401652 0)
(2.0067 -0.0450879 0)
(2.01089 -0.0503267 0)
(2.01529 -0.056282 0)
(2.01975 -0.0618769 0)
(2.02411 -0.0660577 0)
(2.02813 -0.0696164 0)
(2.03255 -0.0756569 0)
(2.03736 -0.0828556 0)
(2.04228 -0.088271 0)
(2.04753 -0.0935178 0)
(2.05312 -0.100936 0)
(2.05798 -0.109509 0)
(2.06192 -0.115147 0)
(2.06616 -0.117627 0)
(2.0715 -0.123782 0)
(2.07626 -0.134973 0)
(2.07954 -0.139731 0)
(2.08248 -0.139119 0)
(2.08727 -0.144175 0)
(2.09077 -0.151233 0)
(2.0928 -0.152995 0)
(2.09467 -0.151136 0)
(2.09464 -0.148131 0)
(2.09399 -0.145708 0)
(2.09373 -0.143033 0)
(2.09296 -0.139299 0)
(2.0903 -0.132163 0)
(2.08619 -0.123056 0)
(2.07985 -0.111179 0)
(2.07093 -0.0931712 0)
(2.06531 -0.0814741 0)
(2.06084 -0.0698857 0)
(2.05503 -0.0516321 0)
(2.0541 -0.0443248 0)
(2.04893 0.0808979 0)
(2.05406 0.0759766 0)
(2.05934 0.0723545 0)
(2.06539 0.0700358 0)
(2.07137 0.0681089 0)
(2.07601 0.0652276 0)
(2.0806 0.0598908 0)
(2.08602 0.0534927 0)
(2.09178 0.0476285 0)
(2.09744 0.0449841 0)
(2.10102 0.0445672 0)
(2.10529 0.0405566 0)
(2.11198 0.0326281 0)
(2.11645 0.0241659 0)
(2.12034 0.0214331 0)
(2.12332 0.0209727 0)
(2.12808 0.0155797 0)
(2.13375 0.00654518 0)
(2.13662 0.000766019 0)
(2.14004 -0.00049988 0)
(2.14443 -0.00549331 0)
(2.14945 -0.0143056 0)
(2.15074 -0.0199095 0)
(2.15167 -0.0229936 0)
(2.15513 -0.0298559 0)
(2.15734 -0.037725 0)
(2.15648 -0.043479 0)
(2.15363 -0.0476402 0)
(2.15163 -0.0556266 0)
(2.15291 -0.0639318 0)
(2.1505 -0.0723664 0)
(2.14584 -0.0767117 0)
(2.14287 -0.0839456 0)
(2.14229 -0.0917796 0)
(2.13793 -0.0967381 0)
(2.13361 -0.103157 0)
(2.13354 -0.112632 0)
(2.13067 -0.117359 0)
(2.12858 -0.121579 0)
(2.12977 -0.129171 0)
(2.12976 -0.134194 0)
(2.13047 -0.138756 0)
(2.13104 -0.14147 0)
(2.13175 -0.145782 0)
(2.13265 -0.151646 0)
(2.13081 -0.155251 0)
(2.12694 -0.161294 0)
(2.12335 -0.163752 0)
(2.10867 -0.164361 0)
(2.07442 -0.157244 0)
(2.02828 -0.145438 0)
(1.99429 -0.143296 0)
(1.9815 -0.141702 0)
(1.97863 -0.141013 0)
(1.97678 -0.140391 0)
(1.97565 -0.139774 0)
(1.97508 -0.139168 0)
(1.97477 -0.137226 0)
(1.9741 -0.132452 0)
(1.97211 -0.124699 0)
(1.96762 -0.11198 0)
(1.95919 -0.0908347 0)
(1.95031 -0.0683614 0)
(1.93456 -0.032243 0)
(1.92448 -0.0029081 0)
(1.91359 0.0210412 0)
(1.9012 0.0488769 0)
(1.90092 0.0536945 0)
(1.89564 0.0637173 0)
(1.89512 0.0693827 0)
(1.89765 0.0693683 0)
(1.90442 0.0647492 0)
(1.91117 0.0578292 0)
(1.91685 0.0519376 0)
(1.92165 0.0481104 0)
(1.92637 0.0444124 0)
(1.93282 0.0388924 0)
(1.94072 0.03086 0)
(1.94855 0.0227546 0)
(1.95597 0.0144383 0)
(1.96276 0.0055269 0)
(1.96894 -0.0023995 0)
(1.97462 -0.0095048 0)
(1.97943 -0.0153039 0)
(1.98386 -0.0196249 0)
(1.98917 -0.0254533 0)
(1.9956 -0.0333289 0)
(2.00187 -0.0408471 0)
(2.00728 -0.0467631 0)
(2.01179 -0.0509164 0)
(2.01601 -0.0540377 0)
(2.02062 -0.0579216 0)
(2.0255 -0.0635815 0)
(2.02981 -0.0698038 0)
(2.03344 -0.0732096 0)
(2.03686 -0.0755211 0)
(2.04127 -0.0813917 0)
(2.04636 -0.0898634 0)
(2.05134 -0.0977264 0)
(2.05611 -0.102266 0)
(2.06079 -0.105855 0)
(2.06608 -0.113397 0)
(2.071 -0.121793 0)
(2.07615 -0.124755 0)
(2.0812 -0.127422 0)
(2.08528 -0.134551 0)
(2.08806 -0.137865 0)
(2.09122 -0.136786 0)
(2.09354 -0.136992 0)
(2.09503 -0.13857 0)
(2.096 -0.139185 0)
(2.09691 -0.139071 0)
(2.0971 -0.137299 0)
(2.09712 -0.135135 0)
(2.09593 -0.132079 0)
(2.09293 -0.12604 0)
(2.08763 -0.114736 0)
(2.08251 -0.103824 0)
(2.07781 -0.0916518 0)
(2.07206 -0.0750655 0)
(2.04354 0.081401 0)
(2.04873 0.0764833 0)
(2.05372 0.072347 0)
(2.05941 0.0697073 0)
(2.06487 0.0689744 0)
(2.06907 0.0669789 0)
(2.07467 0.0614455 0)
(2.08005 0.0542226 0)
(2.08472 0.0488409 0)
(2.08963 0.0478204 0)
(2.09322 0.0470994 0)
(2.09869 0.0420221 0)
(2.10466 0.0339108 0)
(2.10824 0.0269177 0)
(2.11207 0.0252657 0)
(2.11499 0.0241214 0)
(2.12034 0.0178713 0)
(2.12527 0.0092117 0)
(2.12818 0.00402201 0)
(2.13157 0.00227172 0)
(2.13538 -0.00208114 0)
(2.13956 -0.00942589 0)
(2.14117 -0.0151785 0)
(2.14267 -0.0204939 0)
(2.14531 -0.0274258 0)
(2.14581 -0.0333507 0)
(2.14469 -0.0381163 0)
(2.14275 -0.0440481 0)
(2.14093 -0.0526814 0)
(2.14188 -0.060544 0)
(2.13908 -0.0675616 0)
(2.1343 -0.0726832 0)
(2.1317 -0.0799285 0)
(2.1311 -0.0869961 0)
(2.12709 -0.0917704 0)
(2.12369 -0.0981232 0)
(2.12371 -0.10739 0)
(2.12123 -0.111419 0)
(2.12011 -0.115122 0)
(2.12145 -0.122242 0)
(2.12176 -0.125268 0)
(2.1233 -0.129197 0)
(2.12455 -0.132873 0)
(2.12487 -0.135052 0)
(2.12548 -0.139303 0)
(2.12399 -0.142404 0)
(2.12041 -0.147115 0)
(2.11807 -0.150302 0)
(2.10886 -0.151541 0)
(2.0831 -0.148697 0)
(2.0401 -0.134102 0)
(2.00277 -0.128478 0)
(1.98219 -0.131163 0)
(1.97976 -0.132634 0)
(1.97797 -0.133541 0)
(1.9767 -0.133751 0)
(1.97644 -0.134277 0)
(1.97651 -0.134436 0)
(1.97791 -0.132853 0)
(1.9788 -0.132287 0)
(1.97994 -0.131465 0)
(1.97981 -0.129353 0)
(1.97859 -0.123945 0)
(1.97567 -0.114343 0)
(1.96935 -0.0982925 0)
(1.96067 -0.0801402 0)
(1.94558 -0.0497614 0)
(1.93409 -0.0214987 0)
(1.92148 0.00342636 0)
(1.90963 0.0290801 0)
(1.90709 0.0326008 0)
(1.90637 0.0424193 0)
(1.90722 0.0508845 0)
(1.90778 0.0557097 0)
(1.91192 0.0527542 0)
(1.91911 0.0466701 0)
(1.92615 0.0399743 0)
(1.93112 0.0361544 0)
(1.93557 0.0323742 0)
(1.9423 0.0260072 0)
(1.94986 0.0182273 0)
(1.95688 0.0106536 0)
(1.96349 0.00309909 0)
(1.96999 -0.00525673 0)
(1.97602 -0.0126395 0)
(1.98184 -0.0182264 0)
(1.98698 -0.0223728 0)
(1.99126 -0.0255887 0)
(1.99565 -0.0293426 0)
(2.00093 -0.03466 0)
(2.0069 -0.0410399 0)
(2.01261 -0.0470027 0)
(2.01747 -0.0520164 0)
(2.02168 -0.0563903 0)
(2.02583 -0.0599715 0)
(2.03034 -0.0643645 0)
(2.03507 -0.071468 0)
(2.03879 -0.0784372 0)
(2.04187 -0.0811486 0)
(2.04533 -0.0832331 0)
(2.05102 -0.0897891 0)
(2.05734 -0.0986492 0)
(2.06262 -0.105947 0)
(2.06741 -0.108073 0)
(2.07215 -0.109823 0)
(2.07868 -0.117731 0)
(2.08397 -0.126716 0)
(2.08869 -0.131826 0)
(2.09273 -0.131756 0)
(2.09509 -0.134015 0)
(2.09784 -0.13884 0)
(2.09899 -0.141001 0)
(2.10109 -0.139899 0)
(2.10113 -0.137793 0)
(2.10156 -0.135356 0)
(2.10156 -0.132787 0)
(2.10076 -0.128892 0)
(2.09961 -0.123576 0)
(2.09737 -0.117257 0)
(2.0936 -0.108207 0)
(2.03833 0.0816235 0)
(2.04381 0.0763369 0)
(2.04839 0.071717 0)
(2.05356 0.0695909 0)
(2.0589 0.0693834 0)
(2.06326 0.0674048 0)
(2.0691 0.0616578 0)
(2.07386 0.0544375 0)
(2.0778 0.0498556 0)
(2.08257 0.0491861 0)
(2.08647 0.0481685 0)
(2.09195 0.0429248 0)
(2.09722 0.035084 0)
(2.10039 0.0290755 0)
(2.10411 0.0278572 0)
(2.10719 0.0257534 0)
(2.11307 0.0189085 0)
(2.11708 0.010485 0)
(2.11985 0.00708593 0)
(2.12218 0.00601067 0)
(2.1271 9.66921e-05 0)
(2.13102 -0.00750229 0)
(2.13193 -0.0120026 0)
(2.13401 -0.0181182 0)
(2.1359 -0.025016 0)
(2.13484 -0.028925 0)
(2.13307 -0.0341661 0)
(2.13371 -0.0419207 0)
(2.13148 -0.0493351 0)
(2.12758 -0.0547617 0)
(2.12763 -0.0608439 0)
(2.12384 -0.0670426 0)
(2.11985 -0.0737036 0)
(2.11971 -0.0797773 0)
(2.11651 -0.0850044 0)
(2.11411 -0.0910997 0)
(2.11396 -0.0996735 0)
(2.11182 -0.102775 0)
(2.11065 -0.105167 0)
(2.11323 -0.112754 0)
(2.11439 -0.116909 0)
(2.11594 -0.118297 0)
(2.11818 -0.122698 0)
(2.11864 -0.125506 0)
(2.1203 -0.130145 0)
(2.12024 -0.13422 0)
(2.1174 -0.13793 0)
(2.11548 -0.142144 0)
(2.11021 -0.142934 0)
(2.09312 -0.141115 0)
(2.05631 -0.129994 0)
(2.01438 -0.11806 0)
(1.98424 -0.11738 0)
(1.97757 -0.118271 0)
(1.9757 -0.11929 0)
(1.97469 -0.120709 0)
(1.97473 -0.122059 0)
(1.97565 -0.124349 0)
(1.97679 -0.124298 0)
(1.97838 -0.124927 0)
(1.98005 -0.125998 0)
(1.98141 -0.126372 0)
(1.98247 -0.125156 0)
(1.98418 -0.123262 0)
(1.98435 -0.122399 0)
(1.98394 -0.119489 0)
(1.98139 -0.112585 0)
(1.97527 -0.0983388 0)
(1.96654 -0.0814309 0)
(1.95167 -0.0542375 0)
(1.93875 -0.0283669 0)
(1.92767 -0.00703177 0)
(1.91787 0.0192177 0)
(1.91648 0.0222057 0)
(1.92018 0.0247005 0)
(1.92388 0.0302426 0)
(1.92521 0.0327085 0)
(1.92654 0.0361734 0)
(1.93095 0.0329188 0)
(1.93552 0.0284422 0)
(1.94023 0.0259883 0)
(1.94573 0.0224879 0)
(1.95182 0.0172208 0)
(1.95837 0.0107996 0)
(1.96487 0.00420499 0)
(1.97114 -0.00163733 0)
(1.97745 -0.00772426 0)
(1.9839 -0.0150511 0)
(1.98978 -0.0219893 0)
(1.99491 -0.0265017 0)
(1.99913 -0.0283568 0)
(2.00285 -0.0305105 0)
(2.00738 -0.0356247 0)
(2.01297 -0.0432121 0)
(2.01821 -0.0495715 0)
(2.02248 -0.0530731 0)
(2.02648 -0.0570922 0)
(2.0307 -0.06326 0)
(2.03484 -0.0690667 0)
(2.03918 -0.072709 0)
(2.04389 -0.076948 0)
(2.04859 -0.0826341 0)
(2.05298 -0.0863019 0)
(2.05828 -0.0899534 0)
(2.06485 -0.0958815 0)
(2.07132 -0.103324 0)
(2.07613 -0.109732 0)
(2.08035 -0.111216 0)
(2.08432 -0.111795 0)
(2.09 -0.117702 0)
(2.09489 -0.125804 0)
(2.09786 -0.129941 0)
(2.10013 -0.128212 0)
(2.10098 -0.12789 0)
(2.10238 -0.127504 0)
(2.10431 -0.127124 0)
(2.10518 -0.125855 0)
(2.10572 -0.12489 0)
(2.10519 -0.123094 0)
(2.1044 -0.121175 0)
(2.03345 0.0820994 0)
(2.03869 0.0772849 0)
(2.04332 0.0722359 0)
(2.04808 0.06889 0)
(2.0534 0.0682129 0)
(2.05774 0.0674614 0)
(2.06272 0.0629858 0)
(2.06772 0.0560206 0)
(2.07148 0.0505397 0)
(2.07612 0.0492389 0)
(2.08003 0.0483278 0)
(2.0852 0.0434909 0)
(2.09014 0.0361315 0)
(2.09324 0.0309421 0)
(2.09671 0.0301213 0)
(2.10013 0.0270623 0)
(2.10598 0.0196351 0)
(2.10888 0.0125164 0)
(2.11135 0.0110602 0)
(2.11367 0.0090297 0)
(2.11949 0.00210196 0)
(2.12223 -0.00448939 0)
(2.12266 -0.00804197 0)
(2.12489 -0.0139869 0)
(2.12623 -0.0203645 0)
(2.12459 -0.0244857 0)
(2.123 -0.030922 0)
(2.12384 -0.0378827 0)
(2.12052 -0.0435696 0)
(2.11737 -0.0499882 0)
(2.1175 -0.0564151 0)
(2.11327 -0.0616909 0)
(2.11031 -0.0681546 0)
(2.11014 -0.0749825 0)
(2.10696 -0.0793685 0)
(2.10515 -0.0844664 0)
(2.10521 -0.0916423 0)
(2.10375 -0.0942149 0)
(2.10389 -0.0970434 0)
(2.10664 -0.103815 0)
(2.10819 -0.108037 0)
(2.10951 -0.108005 0)
(2.11224 -0.111966 0)
(2.11344 -0.115894 0)
(2.11393 -0.118332 0)
(2.11491 -0.122093 0)
(2.11312 -0.124735 0)
(2.11049 -0.129253 0)
(2.10784 -0.130796 0)
(2.09747 -0.130359 0)
(2.07206 -0.124959 0)
(2.0298 -0.113553 0)
(1.99467 -0.10451 0)
(1.97487 -0.103669 0)
(1.97331 -0.104084 0)
(1.97209 -0.105352 0)
(1.97167 -0.106886 0)
(1.97226 -0.108216 0)
(1.97401 -0.111152 0)
(1.97618 -0.113311 0)
(1.97862 -0.11498 0)
(1.98112 -0.118626 0)
(1.98299 -0.11994 0)
(1.98542 -0.119209 0)
(1.98666 -0.120151 0)
(1.98856 -0.119669 0)
(1.98942 -0.118645 0)
(1.98905 -0.115924 0)
(1.98852 -0.11116 0)
(1.98583 -0.104186 0)
(1.97834 -0.0900322 0)
(1.96904 -0.0742647 0)
(1.95483 -0.0489967 0)
(1.94155 -0.0220787 0)
(1.93455 -0.0052966 0)
(1.92712 0.0184147 0)
(1.92494 0.0223961 0)
(1.93107 0.0228095 0)
(1.93363 0.0228144 0)
(1.93643 0.0237885 0)
(1.93942 0.0257359 0)
(1.94264 0.0257318 0)
(1.94642 0.0233006 0)
(1.9508 0.0203274 0)
(1.9558 0.016921 0)
(1.96125 0.0128152 0)
(1.96729 0.00781737 0)
(1.97335 0.00242303 0)
(1.97892 -0.00288335 0)
(1.98441 -0.00835578 0)
(1.99048 -0.0149926 0)
(1.99656 -0.0221785 0)
(2.00193 -0.0286297 0)
(2.00612 -0.0320501 0)
(2.00927 -0.0332967 0)
(2.01348 -0.0380333 0)
(2.01888 -0.0455452 0)
(2.02376 -0.0521442 0)
(2.02792 -0.0566263 0)
(2.03177 -0.0586493 0)
(2.0363 -0.0619178 0)
(2.04224 -0.0691588 0)
(2.04736 -0.0758973 0)
(2.05219 -0.0782887 0)
(2.05694 -0.079868 0)
(2.06222 -0.0842565 0)
(2.06757 -0.0901371 0)
(2.07304 -0.095744 0)
(2.07878 -0.100097 0)
(2.08488 -0.106149 0)
(2.0893 -0.112254 0)
(2.09243 -0.114013 0)
(2.09479 -0.114531 0)
(2.0996 -0.119629 0)
(2.10396 -0.12642 0)
(2.10635 -0.129548 0)
(2.10906 -0.128782 0)
(2.10877 -0.126812 0)
(2.10847 -0.125204 0)
(2.1083 -0.123924 0)
(2.02872 0.0830498 0)
(2.03388 0.078502 0)
(2.03839 0.0734111 0)
(2.04268 0.0702 0)
(2.04767 0.0696902 0)
(2.05197 0.0686352 0)
(2.05734 0.063683 0)
(2.06205 0.0566434 0)
(2.06546 0.0520079 0)
(2.06981 0.0513344 0)
(2.07344 0.0501195 0)
(2.07889 0.0449119 0)
(2.08337 0.0375948 0)
(2.08634 0.0335001 0)
(2.08966 0.0329676 0)
(2.09344 0.0294147 0)
(2.09874 0.0219718 0)
(2.10127 0.0157351 0)
(2.10365 0.0144848 0)
(2.10642 0.0116008 0)
(2.11178 0.00484907 0)
(2.11355 -0.000294775 0)
(2.11426 -0.00473454 0)
(2.11685 -0.0109993 0)
(2.11702 -0.0160644 0)
(2.11493 -0.0201935 0)
(2.11429 -0.0264943 0)
(2.11415 -0.0330729 0)
(2.11023 -0.0381337 0)
(2.10887 -0.0438902 0)
(2.10716 -0.0496467 0)
(2.10272 -0.0545479 0)
(2.1017 -0.0603136 0)
(2.10005 -0.0667621 0)
(2.09688 -0.0702053 0)
(2.09676 -0.0758314 0)
(2.097 -0.0827276 0)
(2.09637 -0.0846088 0)
(2.0976 -0.0873852 0)
(2.10071 -0.0936241 0)
(2.10254 -0.0976632 0)
(2.10416 -0.0978041 0)
(2.10601 -0.100347 0)
(2.10829 -0.10569 0)
(2.10854 -0.108001 0)
(2.10996 -0.111414 0)
(2.10945 -0.114459 0)
(2.10676 -0.117846 0)
(2.10528 -0.1211 0)
(2.09992 -0.121486 0)
(2.08351 -0.118762 0)
(2.04989 -0.10939 0)
(2.00808 -0.0986236 0)
(1.98046 -0.0899722 0)
(1.97141 -0.0899662 0)
(1.96997 -0.090479 0)
(1.9691 -0.0916063 0)
(1.96907 -0.0922735 0)
(1.96995 -0.093414 0)
(1.97204 -0.0965793 0)
(1.97429 -0.098343 0)
(1.97668 -0.100169 0)
(1.97956 -0.104519 0)
(1.98225 -0.105878 0)
(1.98571 -0.108077 0)
(1.98863 -0.110563 0)
(1.98996 -0.112858 0)
(1.99219 -0.111315 0)
(1.99318 -0.108558 0)
(1.99343 -0.107671 0)
(1.99343 -0.106328 0)
(1.99155 -0.101159 0)
(1.98751 -0.0924362 0)
(1.97903 -0.0764738 0)
(1.97036 -0.0606847 0)
(1.9569 -0.035851 0)
(1.94834 -0.0173542 0)
(1.94389 -0.00276667 0)
(1.93707 0.0161911 0)
(1.9363 0.0238179 0)
(1.94049 0.0224991 0)
(1.94325 0.0212281 0)
(1.9467 0.0202847 0)
(1.94953 0.0203132 0)
(1.95272 0.0208134 0)
(1.95666 0.0202769 0)
(1.96096 0.0182699 0)
(1.96565 0.0148788 0)
(1.97062 0.0104639 0)
(1.9757 0.00568929 0)
(1.98107 0.000858216 0)
(1.98614 -0.00391957 0)
(1.99106 -0.00930941 0)
(1.99695 -0.0168633 0)
(2.00252 -0.0234017 0)
(2.0077 -0.0284704 0)
(2.01234 -0.0333398 0)
(2.01611 -0.0365805 0)
(2.02007 -0.0402204 0)
(2.02565 -0.046564 0)
(2.03107 -0.052218 0)
(2.03597 -0.0566907 0)
(2.04027 -0.0593596 0)
(2.04466 -0.0610228 0)
(2.0504 -0.0656201 0)
(2.05658 -0.0725347 0)
(2.06172 -0.0781973 0)
(2.06632 -0.0818058 0)
(2.07085 -0.0834536 0)
(2.07532 -0.0855244 0)
(2.08095 -0.0919839 0)
(2.08647 -0.100276 0)
(2.09137 -0.104673 0)
(2.09593 -0.10694 0)
(2.09919 -0.111461 0)
(2.10159 -0.11284 0)
(2.10359 -0.112049 0)
(2.10649 -0.114059 0)
(2.10897 -0.116503 0)
(2.11013 -0.118009 0)
(2.02396 0.0850042 0)
(2.02859 0.0816354 0)
(2.03345 0.0763968 0)
(2.03754 0.0718617 0)
(2.04218 0.070497 0)
(2.04673 0.0701948 0)
(2.05142 0.0665553 0)
(2.0564 0.0599122 0)
(2.05969 0.0545071 0)
(2.06382 0.0532745 0)
(2.06742 0.0522589 0)
(2.07251 0.0475085 0)
(2.07691 0.0405724 0)
(2.07986 0.0367575 0)
(2.08307 0.0361107 0)
(2.08731 0.0320115 0)
(2.09194 0.0245423 0)
(2.09409 0.0198981 0)
(2.09633 0.0191871 0)
(2.0995 0.0155382 0)
(2.1043 0.00898833 0)
(2.10539 0.00451472 0)
(2.1066 -0.000169882 0)
(2.10859 -0.0056235 0)
(2.10782 -0.00963805 0)
(2.10586 -0.0150244 0)
(2.10647 -0.0206256 0)
(2.10448 -0.0264029 0)
(2.10097 -0.0323713 0)
(2.10096 -0.0368334 0)
(2.09719 -0.0420779 0)
(2.09344 -0.0476519 0)
(2.09328 -0.053127 0)
(2.09093 -0.0585996 0)
(2.08845 -0.0617743 0)
(2.08974 -0.0676448 0)
(2.08982 -0.0733393 0)
(2.09005 -0.0743049 0)
(2.09201 -0.0769864 0)
(2.09521 -0.0830153 0)
(2.097 -0.0864579 0)
(2.09874 -0.0865779 0)
(2.10045 -0.0889071 0)
(2.10295 -0.0941717 0)
(2.10339 -0.0971256 0)
(2.10394 -0.0992826 0)
(2.10468 -0.102678 0)
(2.10308 -0.105192 0)
(2.10101 -0.109362 0)
(2.09881 -0.110704 0)
(2.08944 -0.110175 0)
(2.06654 -0.104128 0)
(2.02707 -0.0932031 0)
(1.99199 -0.0824224 0)
(1.97174 -0.0772398 0)
(1.9688 -0.0775819 0)
(1.96774 -0.0779614 0)
(1.96718 -0.0784015 0)
(1.96765 -0.0794247 0)
(1.96909 -0.0812659 0)
(1.97113 -0.0832374 0)
(1.97319 -0.0843359 0)
(1.97546 -0.0866681 0)
(1.9783 -0.0908336 0)
(1.98122 -0.0920276 0)
(1.98507 -0.0954157 0)
(1.98832 -0.100975 0)
(1.99149 -0.101574 0)
(1.99446 -0.101603 0)
(1.99554 -0.103905 0)
(1.99705 -0.103434 0)
(1.99725 -0.101899 0)
(1.99727 -0.0992878 0)
(1.99697 -0.0955101 0)
(1.99493 -0.0898271 0)
(1.98938 -0.0801118 0)
(1.98051 -0.0637166 0)
(1.97225 -0.0478359 0)
(1.96031 -0.0243948 0)
(1.95516 -0.0114029 0)
(1.95396 -0.00124241 0)
(1.94828 0.0112831 0)
(1.94759 0.0225971 0)
(1.94852 0.0233228 0)
(1.95103 0.0221063 0)
(1.95489 0.0199317 0)
(1.95855 0.0184978 0)
(1.96161 0.018178 0)
(1.96536 0.0173008 0)
(1.96965 0.0160611 0)
(1.97413 0.0133517 0)
(1.97869 0.00927811 0)
(1.98355 0.00393547 0)
(1.98864 -0.00138307 0)
(1.99336 -0.00546468 0)
(1.99827 -0.0100068 0)
(2.00362 -0.0159905 0)
(2.00903 -0.0224516 0)
(2.01432 -0.0278405 0)
(2.01915 -0.0313334 0)
(2.02362 -0.0349269 0)
(2.02904 -0.0406635 0)
(2.03477 -0.0471166 0)
(2.04004 -0.0508393 0)
(2.0452 -0.0532953 0)
(2.04994 -0.0567133 0)
(2.05403 -0.0597052 0)
(2.05834 -0.062908 0)
(2.06379 -0.0682329 0)
(2.06976 -0.0748768 0)
(2.07522 -0.0811546 0)
(2.07957 -0.085385 0)
(2.08355 -0.0863989 0)
(2.08717 -0.0871499 0)
(2.09287 -0.0937192 0)
(2.09815 -0.103333 0)
(2.10209 -0.106832 0)
(2.10577 -0.107901 0)
(2.10854 -0.111624 0)
(2.11037 -0.111945 0)
(2.01919 0.0873307 0)
(2.02377 0.0854204 0)
(2.02802 0.0817666 0)
(2.03243 0.0765131 0)
(2.03649 0.0736701 0)
(2.04116 0.0730965 0)
(2.04574 0.0702838 0)
(2.05091 0.0640866 0)
(2.05407 0.0585987 0)
(2.0578 0.0573148 0)
(2.06133 0.0562318 0)
(2.06647 0.051387 0)
(2.07062 0.0447276 0)
(2.07347 0.0414565 0)
(2.07669 0.0408898 0)
(2.08073 0.0369787 0)
(2.08509 0.029818 0)
(2.08722 0.0253829 0)
(2.08952 0.0243566 0)
(2.09305 0.0203877 0)
(2.09697 0.0146044 0)
(2.09765 0.0105346 0)
(2.09939 0.00566169 0)
(2.10056 0.000907056 0)
(2.09913 -0.00306558 0)
(2.09803 -0.00882336 0)
(2.09851 -0.0141954 0)
(2.09549 -0.0191369 0)
(2.09316 -0.0248334 0)
(2.09273 -0.0288073 0)
(2.08818 -0.0334535 0)
(2.08489 -0.0386786 0)
(2.08411 -0.0439875 0)
(2.08249 -0.049044 0)
(2.08079 -0.052045 0)
(2.08273 -0.0579324 0)
(2.0834 -0.0628601 0)
(2.08439 -0.0635029 0)
(2.08673 -0.0660867 0)
(2.08993 -0.0719054 0)
(2.09171 -0.0750943 0)
(2.09358 -0.0751845 0)
(2.09541 -0.0774874 0)
(2.09794 -0.0825593 0)
(2.09844 -0.0861473 0)
(2.09853 -0.0877428 0)
(2.0998 -0.0913121 0)
(2.09944 -0.0944946 0)
(2.09745 -0.0975903 0)
(2.09635 -0.100466 0)
(2.09175 -0.100628 0)
(2.07734 -0.0981758 0)
(2.04759 -0.0879097 0)
(2.0074 -0.0773991 0)
(1.98012 -0.0665011 0)
(1.96788 -0.0652732 0)
(1.96677 -0.0655503 0)
(1.96563 -0.0655126 0)
(1.96569 -0.0664582 0)
(1.96683 -0.0684523 0)
(1.96845 -0.0692947 0)
(1.97037 -0.0702329 0)
(1.97238 -0.0722462 0)
(1.97442 -0.0746024 0)
(1.97701 -0.0771257 0)
(1.9798 -0.0786148 0)
(1.98316 -0.0824845 0)
(1.98666 -0.0875881 0)
(1.99028 -0.0882618 0)
(1.99404 -0.0909052 0)
(1.99676 -0.0964959 0)
(1.99861 -0.0967672 0)
(2.00015 -0.0945266 0)
(2.0007 -0.0932545 0)
(2.00121 -0.0931281 0)
(2.00144 -0.0918758 0)
(2.00025 -0.0875503 0)
(1.997 -0.0799928 0)
(1.99073 -0.0691211 0)
(1.98192 -0.0526558 0)
(1.97483 -0.0376634 0)
(1.96567 -0.0194018 0)
(1.96164 -0.00719461 0)
(1.96207 -0.00163377 0)
(1.95989 0.00680357 0)
(1.95846 0.015012 0)
(1.95739 0.0205619 0)
(1.95983 0.0205704 0)
(1.96358 0.0192163 0)
(1.96745 0.0171965 0)
(1.97019 0.0162972 0)
(1.97351 0.015284 0)
(1.97762 0.0137524 0)
(1.98212 0.0115059 0)
(1.98667 0.0085614 0)
(1.99145 0.00452959 0)
(1.99641 -4.27894e-05 0)
(2.00138 -0.00451051 0)
(2.00633 -0.00878448 0)
(2.01164 -0.0138714 0)
(2.01721 -0.0195509 0)
(2.02278 -0.0250488 0)
(2.02789 -0.0289641 0)
(2.03268 -0.0319105 0)
(2.0379 -0.0360609 0)
(2.04376 -0.0422354 0)
(2.04909 -0.0485947 0)
(2.05391 -0.0525311 0)
(2.05848 -0.0545223 0)
(2.06248 -0.056725 0)
(2.06638 -0.060359 0)
(2.07093 -0.0653428 0)
(2.07631 -0.0709319 0)
(2.08224 -0.0772123 0)
(2.08754 -0.0833298 0)
(2.0913 -0.0868037 0)
(2.0948 -0.0867442 0)
(2.09781 -0.0866752 0)
(2.10251 -0.0922724 0)
(2.10771 -0.100813 0)
(2.01421 0.0917556 0)
(2.01886 0.089892 0)
(2.02269 0.0883266 0)
(2.02733 0.0834615 0)
(2.0314 0.0785367 0)
(2.03571 0.0771072 0)
(2.04005 0.07554 0)
(2.0452 0.0703307 0)
(2.04865 0.0644754 0)
(2.05205 0.0625492 0)
(2.05561 0.0616981 0)
(2.06024 0.0573109 0)
(2.06452 0.0508117 0)
(2.06732 0.0472898 0)
(2.07055 0.0465883 0)
(2.07443 0.0428801 0)
(2.0787 0.0361334 0)
(2.08082 0.0319796 0)
(2.08319 0.0307711 0)
(2.08653 0.0269698 0)
(2.08984 0.0218359 0)
(2.09072 0.0175086 0)
(2.0923 0.0130417 0)
(2.09248 0.00927282 0)
(2.09095 0.00431446 0)
(2.09122 -0.0006811 0)
(2.09005 -0.00586201 0)
(2.08686 -0.0109909 0)
(2.08605 -0.0151893 0)
(2.08418 -0.0196276 0)
(2.07945 -0.0240199 0)
(2.07687 -0.0288127 0)
(2.07589 -0.0345802 0)
(2.07514 -0.0394039 0)
(2.07401 -0.0420207 0)
(2.07625 -0.0477275 0)
(2.07743 -0.0519204 0)
(2.0789 -0.0522521 0)
(2.08142 -0.0547276 0)
(2.08482 -0.0605125 0)
(2.08665 -0.0637532 0)
(2.0887 -0.0638391 0)
(2.09071 -0.0661162 0)
(2.09315 -0.0711211 0)
(2.09362 -0.0749203 0)
(2.0936 -0.0761394 0)
(2.09441 -0.0795591 0)
(2.09506 -0.0839135 0)
(2.09408 -0.0858836 0)
(2.09271 -0.0894021 0)
(2.09073 -0.0902268 0)
(2.08283 -0.0897393 0)
(2.06354 -0.0843895 0)
(2.02876 -0.0722682 0)
(1.99308 -0.0624613 0)
(1.97172 -0.0535262 0)
(1.96571 -0.0537308 0)
(1.96449 -0.0539442 0)
(1.96406 -0.0545015 0)
(1.96487 -0.0566786 0)
(1.9663 -0.0579051 0)
(1.968 -0.0579911 0)
(1.97015 -0.0601866 0)
(1.972 -0.0626943 0)
(1.97389 -0.063843 0)
(1.9761 -0.0653103 0)
(1.97856 -0.0677441 0)
(1.98145 -0.0715299 0)
(1.98485 -0.0744681 0)
(1.98827 -0.0758443 0)
(1.99274 -0.0821839 0)
(1.99584 -0.0877622 0)
(1.99938 -0.0867862 0)
(2.00184 -0.0874419 0)
(2.00276 -0.0904399 0)
(2.00372 -0.0904801 0)
(2.00541 -0.0886369 0)
(2.00483 -0.0864023 0)
(2.00391 -0.0839636 0)
(2.00192 -0.0807541 0)
(1.99756 -0.0726879 0)
(1.99192 -0.0616593 0)
(1.98449 -0.0465465 0)
(1.97833 -0.0316667 0)
(1.97103 -0.0154388 0)
(1.96786 -0.00660579 0)
(1.96874 -0.00339189 0)
(1.96954 0.00304717 0)
(1.96997 0.00933696 0)
(1.96843 0.0146206 0)
(1.96919 0.0170943 0)
(1.97255 0.0165174 0)
(1.97646 0.0149616 0)
(1.97955 0.0137536 0)
(1.9827 0.0134145 0)
(1.98656 0.0128724 0)
(1.99094 0.0117037 0)
(1.99564 0.00957497 0)
(2.00054 0.00633619 0)
(2.00545 0.00234282 0)
(2.01043 -0.00178642 0)
(2.01578 -0.00637505 0)
(2.02109 -0.010755 0)
(2.02628 -0.0149693 0)
(2.03156 -0.0196 0)
(2.03659 -0.0239375 0)
(2.04144 -0.0283105 0)
(2.04628 -0.0326145 0)
(2.05102 -0.0367838 0)
(2.05631 -0.0424765 0)
(2.0616 -0.0491427 0)
(2.06623 -0.0538883 0)
(2.07037 -0.0547493 0)
(2.07364 -0.0552163 0)
(2.07814 -0.0604479 0)
(2.08373 -0.068202 0)
(2.08862 -0.0733949 0)
(2.09399 -0.0778486 0)
(2.09921 -0.0832913 0)
(2.10244 -0.0866785 0)
(2.00925 0.0984231 0)
(2.0135 0.0958388 0)
(2.01769 0.0950629 0)
(2.02194 0.0917195 0)
(2.02647 0.0860493 0)
(2.03023 0.0833744 0)
(2.03428 0.0824297 0)
(2.03911 0.0783741 0)
(2.04338 0.0722172 0)
(2.04661 0.0691362 0)
(2.05024 0.0683717 0)
(2.0543 0.0647058 0)
(2.05861 0.0584603 0)
(2.06127 0.054873 0)
(2.06438 0.0541622 0)
(2.06812 0.0507112 0)
(2.07246 0.0443581 0)
(2.07463 0.0401652 0)
(2.077 0.0387976 0)
(2.07989 0.0352846 0)
(2.08283 0.0305069 0)
(2.08425 0.0259253 0)
(2.08522 0.0220355 0)
(2.08472 0.018305 0)
(2.08377 0.0127298 0)
(2.08432 0.00801807 0)
(2.08164 0.00369915 0)
(2.07943 -0.00161678 0)
(2.07883 -0.00462116 0)
(2.07525 -0.00924215 0)
(2.07113 -0.0139674 0)
(2.0693 -0.0187468 0)
(2.06885 -0.0252821 0)
(2.068 -0.0287503 0)
(2.06751 -0.030827 0)
(2.07018 -0.0363972 0)
(2.0718 -0.0405999 0)
(2.07358 -0.040982 0)
(2.07619 -0.0434556 0)
(2.0798 -0.0492427 0)
(2.08169 -0.0527618 0)
(2.08383 -0.0528285 0)
(2.08605 -0.0552009 0)
(2.08831 -0.0603207 0)
(2.08864 -0.0638265 0)
(2.08871 -0.0649919 0)
(2.08906 -0.067938 0)
(2.0902 -0.0729433 0)
(2.08993 -0.0755003 0)
(2.08911 -0.0776035 0)
(2.08801 -0.0804067 0)
(2.08435 -0.0805474 0)
(2.07315 -0.0795444 0)
(2.04892 -0.0706219 0)
(2.01197 -0.0581379 0)
(1.98215 -0.0481379 0)
(1.96611 -0.0426339 0)
(1.96342 -0.0429561 0)
(1.96266 -0.0433766 0)
(1.96288 -0.0452021 0)
(1.96388 -0.0467193 0)
(1.96557 -0.0469986 0)
(1.96793 -0.0491957 0)
(1.96986 -0.0522643 0)
(1.97151 -0.0530373 0)
(1.9731 -0.0535022 0)
(1.97515 -0.056071 0)
(1.97725 -0.0588534 0)
(1.97976 -0.0605846 0)
(1.98304 -0.0628536 0)
(1.98698 -0.0673931 0)
(1.99061 -0.0734197 0)
(1.99432 -0.0757246 0)
(1.99794 -0.0764741 0)
(2.00177 -0.0820116 0)
(2.00314 -0.0866028 0)
(2.00527 -0.0847064 0)
(2.00538 -0.0818647 0)
(2.00597 -0.083057 0)
(2.00614 -0.0848743 0)
(2.00642 -0.0843123 0)
(2.00495 -0.08028 0)
(2.00325 -0.0754925 0)
(1.99963 -0.0678771 0)
(1.99395 -0.0564145 0)
(1.98904 -0.0446613 0)
(1.98333 -0.030228 0)
(1.97776 -0.013771 0)
(1.97546 -0.00611316 0)
(1.97642 -0.00442911 0)
(1.97821 -0.000375639 0)
(1.98037 0.00540775 0)
(1.97996 0.00972038 0)
(1.98008 0.0128919 0)
(1.98252 0.013803 0)
(1.98617 0.0136176 0)
(1.98999 0.0126842 0)
(1.99356 0.011993 0)
(1.99735 0.0116465 0)
(2.00152 0.0111243 0)
(2.00595 0.00993736 0)
(2.01074 0.00769951 0)
(2.01558 0.00476698 0)
(2.02017 0.00156565 0)
(2.02482 -0.00204081 0)
(2.0298 -0.0063926 0)
(2.03488 -0.0109011 0)
(2.03955 -0.0144005 0)
(2.04419 -0.0183779 0)
(2.0492 -0.0236586 0)
(2.0539 -0.0282855 0)
(2.05842 -0.0320979 0)
(2.06331 -0.0366044 0)
(2.06833 -0.0418336 0)
(2.07337 -0.047661 0)
(2.0777 -0.0521208 0)
(2.0815 -0.0539662 0)
(2.08523 -0.0554333 0)
(2.08943 -0.0598519 0)
(2.09501 -0.0676387 0)
(2.00425 0.106598 0)
(2.00821 0.103133 0)
(2.01247 0.102066 0)
(2.01675 0.0998353 0)
(2.02153 0.0945255 0)
(2.02497 0.0909153 0)
(2.02878 0.089893 0)
(2.03328 0.0866993 0)
(2.03799 0.0809086 0)
(2.0411 0.0772234 0)
(2.04469 0.0764682 0)
(2.04838 0.0736355 0)
(2.05292 0.0675791 0)
(2.05557 0.0633612 0)
(2.05856 0.0625063 0)
(2.06211 0.0593955 0)
(2.06654 0.0534655 0)
(2.06872 0.0492893 0)
(2.07091 0.047858 0)
(2.07359 0.0442691 0)
(2.07647 0.0394795 0)
(2.07787 0.0351419 0)
(2.07809 0.0320548 0)
(2.07725 0.0274532 0)
(2.07756 0.0227022 0)
(2.0764 0.0179778 0)
(2.07362 0.013298 0)
(2.07287 0.00973956 0)
(2.07032 0.00594822 0)
(2.06708 0.00088033 0)
(2.06359 -0.00407498 0)
(2.06208 -0.00902495 0)
(2.06223 -0.0152741 0)
(2.06121 -0.0175329 0)
(2.06142 -0.0196542 0)
(2.06446 -0.0254112 0)
(2.0663 -0.0292408 0)
(2.06816 -0.0295357 0)
(2.07095 -0.032348 0)
(2.07468 -0.0383728 0)
(2.07661 -0.0423889 0)
(2.07879 -0.0426183 0)
(2.08068 -0.0445634 0)
(2.08309 -0.0498709 0)
(2.08344 -0.0533996 0)
(2.08374 -0.0546807 0)
(2.08426 -0.0575488 0)
(2.0852 -0.0620714 0)
(2.08535 -0.0658874 0)