/*--------------------------------*- C++ -*----------------------------------*\
  =========                 |
  \\      /  F ield         | OpenFOAM: The Open Source CFD Toolbox
   \\    /   O peration     | Website:  https://openfoam.org
    \\  /    A nd           | Version:  7
     \\/     M anipulation  |
\*---------------------------------------------------------------------------*/
FoamFile
{
    version     2.0;
    format      ascii;
    class       volScalarField;
    location    "0.971";
    object      p;
}
// * * * * * * * * * * * * * * * * * * * * * * * * * * * * * * * * * * * * * //

dimensions      [0 2 -2 0 0 0 0];

internalField   nonuniform List<scalar> 
12359
(
0.065768
0.0749788
0.0493643
0.108053
0.0690908
0.154999
0.186424
0.169318
0.226194
0.143432
0.208527
0.276318
0.486952
0.115618
0.102835
0.395593
0.442586
0.0538195
0.0534591
0.087951
0.123826
0.250374
0.0812072
0.0933215
0.077995
0.0843488
0.0505296
0.050387
0.0527391
0.0510222
0.0514327
0.0498818
0.0495256
0.050792
0.0493969
0.051626
0.0590438
0.0640866
0.0675913
0.0615108
0.0728974
0.0626902
0.0565729
0.055891
0.0521657
0.0524036
0.0518846
0.0512494
0.0531018
0.0506461
0.0502482
0.0501179
0.0498037
0.0542655
0.0497196
0.0495622
0.0552865
0.0495163
0.0495053
0.0494399
0.0496122
0.0493931
0.0501623
0.515872
0.0547084
0.132639
0.0583072
0.0500266
0.0597449
0.348267
0.531878
0.0709166
0.0493534
0.0605769
0.0983041
0.0493982
0.04978
0.0493681
0.0575493
0.317312
0.126906
0.044863
0.0483806
0.0510355
-0.0595902
0.0270725
0.044699
0.0467138
-0.0697508
-0.053314
0.0491373
0.472136
0.049088
0.0493622
0.049758
0.00942324
0.0487499
0.0494397
0.0586648
0.0552268
0.107806
0.0492472
0.0280018
-0.126935
0.0433594
0.0144303
0.0481072
-0.0582926
0.0309922
0.0147449
0.0487473
0.0450023
0.1102
0.0909924
0.0500114
0.0451186
0.0928181
0.0438606
-0.0748085
0.0484242
0.0488529
0.175478
0.0465478
0.00651822
0.0437215
0.0449747
0.038253
0.050898
0.0493599
0.0434774
0.0457084
-0.00234059
-0.00379368
-0.00273096
0.0481655
0.00767715
0.0453972
0.00794379
0.0492818
0.0388593
0.0485713
0.0671022
0.0163902
0.048128
0.0090824
0.147537
0.0483868
-0.0464374
0.0432244
0.127005
0.00178061
0.0492633
0.0163412
0.0464587
0.0490357
-0.163127
0.108703
-0.00169352
0.0488497
0.0499542
0.0464738
0.0500064
0.00484831
0.013315
0.0483632
0.0450124
0.0476283
0.174418
0.0148089
-0.0720362
0.0493718
0.0493928
0.0139085
0.0778187
0.0434009
0.042296
0.052769
0.0525368
0.11173
0.0429143
0.115419
0.0490142
0.0493609
0.0445665
0.057582
0.206344
0.0445149
0.0489195
0.00611358
0.0443097
0.0492346
0.00996405
0.0132695
0.046373
0.0133418
-0.13724
0.0341591
0.0453503
0.0166815
0.044003
0.151649
0.00548052
0.0563092
0.0142541
0.0125453
0.0489931
0.0114442
0.0569373
0.00246528
0.0432598
0.0487262
4.42414e-05
0.000140477
-0.538385
0.202411
0.0492834
0.0449338
0.0499844
0.0447759
0.0677881
0.101801
0.0433716
0.00666572
0.472294
0.0432419
0.0487034
0.0685275
0.0310234
0.046347
0.046185
0.0459961
0.0483732
0.00984479
0.0564565
0.0484621
0.0555046
0.0484166
0.0156285
0.0485781
0.294299
0.048329
0.0251118
0.048784
0.0542435
0.045358
-0.0472261
0.0494805
0.00235821
0.0440266
0.0130504
0.00185184
0.0634172
0.0521503
0.0464394
0.327456
-0.584372
0.0484315
0.0431143
0.398441
-0.0509032
0.055852
0.0463684
0.0459366
0.0133758
0.0762478
-0.458763
-0.0694463
0.0452822
0.0432852
0.0082525
0.013924
0.061477
0.01476
0.0465593
0.043115
0.0483522
0.0431816
-0.119133
0.0439812
0.048027
0.0492356
0.0126869
0.0414757
0.0583469
0.0254183
0.0484972
0.0480816
0.0492561
0.0492362
0.0499251
0.00490697
0.0444039
-0.462973
0.0481462
0.0480792
0.0278189
0.0441273
0.102193
0.0498984
0.0503083
0.0491584
-0.109143
0.0452046
0.0491591
0.0451879
0.0494941
0.0434944
0.0451696
0.0451898
0.0438148
0.053822
0.205373
0.0432538
0.0515024
0.0640498
0.0233258
-0.0566484
0.0425844
0.059424
0.372878
0.0492254
0.020658
0.0479693
0.0344123
0.0481065
0.0422788
0.22758
0.01988
0.206927
0.0578129
0.0484244
0.0129359
0.00678019
0.0483411
0.0130595
0.013286
0.0476016
0.0496831
0.0496738
0.0497456
0.0497155
0.295709
0.0484765
0.105064
0.00130632
0.0564889
0.0144243
0.0199254
0.0282576
0.0352934
0.0190775
0.0357366
0.0582364
0.021207
0.0225218
0.0934037
0.067935
0.0152021
0.0662454
0.0660521
0.0173067
0.105502
0.0453653
0.049772
0.0329498
0.0497307
0.045136
-0.197453
0.50291
0.0453272
0.0493166
0.0481983
0.0488958
0.018894
0.0490426
0.0490232
-0.0764988
0.0139766
-0.0491148
0.0472225
0.0114461
0.0415277
0.0490237
0.0168291
0.0326722
0.111142
0.0331057
0.0455827
0.047994
0.0134098
0.0107185
0.0426511
0.294044
0.0165256
0.00799984
0.0510693
0.0480114
0.0492991
0.384022
0.0133226
0.0473448
0.0622979
0.0651162
0.0485909
0.0485572
0.0488295
-0.0578048
0.0998059
0.0605564
0.0198663
0.00252746
0.0500016
0.115281
0.0504419
2.50865e-05
-0.0605085
0.300139
0.0553596
0.0929031
0.0305043
0.0229093
0.0369856
0.0325675
0.0510773
0.0369658
0.0167732
0.049047
-0.0515967
0.0588616
-0.00667756
0.00966618
0.0557741
0.0971512
-0.147693
0.0184903
0.0406351
0.00736722
0.00938516
0.0197496
0.0441079
0.0487698
0.0530935
0.0481314
-0.00291219
0.0457184
0.0839424
0.0864719
0.0382433
-0.0562019
0.104864
0.054827
0.0477998
0.389231
0.0478152
0.0471379
0.0055712
0.0493224
0.0476732
0.0470763
0.238068
0.203459
0.0505584
0.0470793
0.110854
0.0492784
0.0199063
0.0161362
0.0145009
0.0475066
0.0488795
0.049026
0.0491703
0.0859926
0.0205043
0.0227999
0.0523683
0.0523526
0.00309385
0.0511747
0.0475977
0.0425382
0.121255
0.00506509
0.0492582
0.0487677
0.013202
0.0328096
0.0497531
0.0451015
0.11335
0.0202551
0.00827167
0.0217092
0.0474853
0.0479535
-0.00536018
-0.00434921
0.0491643
0.0381211
0.0500869
0.00637397
0.282218
0.0488088
0.0458303
0.04772
0.0156499
0.0548472
0.0537043
0.0449819
0.0504143
0.0314626
0.0764877
0.0402738
-0.0357529
0.0480475
-0.0411718
0.0467881
-0.107018
0.0194485
-0.0022944
0.0494922
0.0521396
0.0227425
0.0445912
0.0502215
0.0569848
0.0549545
0.0552808
0.0719193
0.014775
0.0143532
0.0484008
0.0442129
0.0203071
-0.00337485
0.0484018
0.0480758
0.013261
0.0476768
0.22609
-0.153028
-0.110109
0.0484014
0.0423559
0.00146304
0.054168
0.0437233
0.448065
0.0480842
0.114859
0.0892791
0.0422165
0.0436983
0.0503741
0.0386168
0.000768195
0.0319018
0.0523178
0.0484368
0.0493628
0.054608
0.0527492
0.0561795
0.0149851
0.0499716
0.0480642
0.0214364
-0.0834044
0.0513926
-2.64237e-05
0.0482227
0.0528407
0.0949666
0.00108482
0.00185593
0.097812
0.0468076
0.00197601
0.0486312
0.0494321
0.00310045
0.0382789
0.0462599
0.0382471
0.048952
0.0480226
0.0446339
0.0500439
0.00205221
0.104778
0.0592327
0.119442
0.0168191
0.0405988
0.112786
0.0637061
-0.00516869
0.0143881
0.0646022
0.0549868
0.0494466
0.0383537
0.0219091
0.048389
0.0493341
0.0475873
0.0494825
-0.0157057
0.0385383
0.0357141
0.105881
0.0572915
0.235902
0.00625289
0.00210265
0.0443761
-0.00135029
0.0489339
0.0510489
0.0482618
0.106194
0.115197
0.0472005
0.0318872
0.228326
0.0168646
0.0060305
0.039545
0.0654896
-0.130634
0.0472242
0.0506366
0.0489722
-0.0098717
0.0505092
0.0327112
-0.0552653
0.0480878
0.0781571
0.057753
0.042359
0.0516447
0.0474905
0.0497882
0.0542927
0.0498436
0.049718
0.0536174
0.0069688
0.0112796
0.0423701
0.333576
0.00116051
0.418202
0.0180023
0.0260883
0.0540147
0.0193625
0.0574516
0.0112011
0.319474
0.0990478
0.0565482
0.0445979
0.0541044
0.0527417
0.0223216
0.0487672
-0.00789025
0.0498518
0.100706
0.049067
-0.0140744
0.00836327
0.0122255
0.0566074
0.0399595
0.00899184
0.0778987
0.00562143
0.0413638
0.00365809
0.0439725
0.0484489
0.050792
-0.210113
0.0712148
0.0425297
0.0483529
0.0500639
0.0547307
0.0836917
0.0113015
0.018945
0.0475399
0.0439509
0.0561321
0.0424616
0.040349
0.00240319
0.0556723
0.058192
0.0100931
0.0438103
0.0411265
0.10443
0.0484001
0.0558989
-0.257891
0.049474
0.00788307
0.0518154
0.0414739
0.0896806
0.0105417
0.051765
0.0195814
0.0491307
0.112717
0.0429856
0.0133092
0.0117786
0.113437
0.0489985
0.00137146
-0.0055589
0.057124
0.0432054
0.0439855
0.0367959
0.240124
0.0535518
0.0493
0.0556111
0.0490609
-0.127653
0.0428127
0.0105529
0.0329026
0.0193124
0.521661
0.0428453
-0.0564228
0.0116523
-0.0915595
0.0195718
0.0523177
0.0427997
0.0330442
-0.0484113
-0.0364517
0.0471116
0.0469301
0.118485
0.045977
0.213445
0.0207521
0.070883
0.0443271
0.397791
-0.103901
0.0433607
0.0484568
0.048804
0.094192
0.0548059
0.0594987
0.052197
0.0162072
0.0775238
-0.0261118
0.351623
0.0475733
0.0832828
0.0149738
0.121503
0.0445184
0.114739
0.00867954
0.0953494
0.051907
0.048342
0.0100216
0.00723638
0.0193858
0.118506
0.0129631
0.026684
0.0519748
0.0483459
0.0394576
0.246836
0.0395081
0.012717
0.0671107
0.0212277
0.0374266
0.0528995
-0.00474389
0.0338823
0.0440546
-0.0160826
0.058546
0.0286815
0.203036
0.0484366
0.0334928
0.0505691
0.0568
0.0450802
0.0514622
0.0483952
0.00171226
0.0426697
0.0778196
0.0129897
0.0953974
0.0320958
0.0327422
0.0109093
-0.196479
0.0494664
0.0562495
0.0276055
-0.0703515
0.007583
0.0488838
0.509497
0.0483609
0.0433025
-0.165568
0.0546742
0.049229
0.0492874
0.0659243
0.0900595
0.0494848
0.0557926
0.110084
0.0511758
0.0535854
0.0525932
0.0472383
0.0911107
-0.0169462
0.0544705
0.117224
0.0116845
0.0130911
0.00597005
0.0161628
0.05258
0.0432193
-0.0407762
0.00516939
0.0735028
0.0480026
0.0495154
0.118441
-0.00100193
0.03464
0.038025
0.0344243
0.0521372
0.0432978
0.0843673
-0.228581
0.3646
0.0829692
0.0504943
0.0432954
0.0802128
0.347359
0.111869
0.0488928
0.000593647
-0.0122013
-0.244292
0.0372551
-0.154487
0.0494807
0.0525238
0.0495332
0.00674651
0.0752825
-0.161014
0.042628
-0.0847116
0.0457543
0.0510352
0.0115634
0.0540607
0.00131406
-0.0421488
0.0554455
0.0369572
0.0259276
0.0374975
0.0552671
0.0758164
0.0729065
0.0323126
0.0790743
0.0554711
0.0495658
0.0531864
0.0501196
0.105571
0.0235281
-0.00705693
0.00327881
0.0863611
0.0252661
0.0238095
0.0432151
-0.00969753
0.0353901
0.0547366
0.0489864
-0.00015875
0.109206
0.0427166
0.0407081
0.0565965
0.0241557
0.102839
0.116449
0.0244181
0.235648
0.0229479
0.087437
-0.0395541
0.0537488
0.0185325
0.0118712
0.0462675
0.0350911
0.0401794
0.0445933
0.0486264
0.045078
-0.0138107
-0.00126502
0.044221
-0.140128
0.100586
0.0500042
0.0514962
0.00206867
0.0499035
0.0785824
0.0141135
0.00501213
0.049849
0.0523126
0.0488738
0.0499085
0.119029
-0.13748
0.0501091
0.0576965
0.0484124
-0.14608
0.021983
0.015702
0.0481495
0.0500001
0.0524412
0.0257804
0.0850222
0.0288268
0.0477776
0.052711
0.0497831
0.0217251
0.0850471
0.0400868
0.0493279
0.031704
0.0259784
0.0757629
0.0448034
-0.016614
0.146164
0.0463253
0.0336201
0.0524309
0.0439903
-0.184827
0.0552833
0.050063
0.0126134
0.105224
0.0830154
-0.139022
0.0765079
0.0361236
0.0281963
0.0565396
0.0403364
0.0358601
0.0557704
0.147197
0.0504334
-0.328342
0.0839384
0.18201
0.0403864
-0.00542656
0.0959476
-0.0015143
0.262272
0.0079463
0.0287944
0.0352234
0.0393953
0.0483728
0.0442606
0.0886791
0.0014823
0.0559508
0.0463334
0.00766919
0.0179332
0.00635445
0.0806607
0.000774721
0.0060145
0.048141
0.0709994
-0.0500209
0.0877114
0.0483495
0.0361114
0.0533173
0.0483483
0.069578
0.0494628
0.044355
0.245578
0.0921032
-0.017006
0.0495084
0.0490465
0.0490804
0.0560597
0.053308
-0.00172295
0.0534409
0.0489208
-0.0165867
0.0224525
0.00729886
0.0692376
0.0504469
0.0420008
0.0919248
0.0355435
0.049538
-0.0420094
0.0120764
0.111996
0.0497646
-0.234745
0.0976395
0.0507897
0.00331727
0.0387414
-0.0227538
0.0367515
0.00147877
0.0948178
0.0500027
0.0512754
0.0230621
0.0394318
0.0546763
-0.0069024
0.0548432
0.0549245
0.0975675
0.045943
0.0528871
0.0365592
0.0111857
0.0501985
0.0548756
0.053014
0.0482629
0.0967857
-0.0414611
0.0269873
0.0561153
0.0540632
0.0418239
0.0485967
-0.193621
0.0796949
0.0492472
0.0712925
0.0418476
0.0995191
0.152929
0.000875771
0.0550322
0.00573953
-0.00159173
0.0481004
0.0412612
-0.000395744
0.0432266
0.0493057
0.0727711
0.0282196
0.0537584
0.0493358
0.0420406
0.083926
0.0499485
0.032015
0.0494847
0.0398646
0.0675294
0.133079
0.0488627
-0.199295
0.0807446
0.0159426
-0.120339
0.0929166
0.0327606
-0.0304565
0.0565921
0.143164
0.207828
0.0539084
0.0446203
0.0445492
0.0516128
0.0534344
0.00757477
-0.0781762
-0.141008
0.00950654
0.148525
-0.00645544
0.0110133
-0.0565766
0.0488144
0.0518816
0.0480688
0.0257825
0.0488228
0.00882932
0.0374878
-0.0117033
0.0484661
0.0520408
0.0465208
-0.150428
0.119829
0.0785013
0.0614853
0.12233
0.0447417
0.0500164
-0.0163855
0.0372167
-0.0123051
0.0079919
0.0241943
0.00486687
0.0165516
0.0569604
0.0482344
0.0486789
-0.121725
0.0419887
0.0407288
0.053633
0.00614619
0.0186468
0.0489078
0.0206467
-0.0133524
-9.18857e-05
0.0946522
0.0535861
0.0491241
0.0051401
0.05628
0.0488365
5.57114e-05
0.00786574
0.0529284
0.138851
0.00126284
0.0490293
0.0492039
0.0482269
0.107617
-0.139076
0.0413474
0.0106711
0.0522064
0.052934
0.0123145
0.049215
0.180659
0.0164513
-0.0511417
0.154136
0.0317796
0.0485189
0.0486153
0.0342001
0.0564298
0.0483494
-0.180031
0.00578752
0.0445193
0.220532
0.101517
0.042937
0.0484015
0.0492423
0.0528704
-0.0743182
0.161202
0.0339493
0.0775693
0.0668575
0.00637833
-0.077961
0.0238923
0.0544588
0.05332
0.017269
0.0412955
0.0476399
0.0515795
0.0040441
0.0533073
0.0336769
0.0552531
0.0821148
-0.0110698
0.0467611
0.0516851
-0.00321312
0.00373733
0.0588292
0.0513156
0.0766348
-0.000689802
0.0393764
0.0173716
0.0743029
0.0178771
-0.0328347
0.0533353
0.158097
0.0483042
0.106109
0.000368591
0.0491998
0.0487479
0.373669
0.049469
0.0562629
0.026628
0.0545311
0.0546791
0.0577193
0.0493713
0.049068
0.000311811
-0.0259289
0.0468367
0.328999
0.0380036
0.0513461
0.236937
0.0992403
0.0549586
0.0456303
0.0510556
0.088576
-0.264765
0.0543688
0.0467548
0.0483147
0.0516782
0.0641634
0.0169358
0.0538928
0.0647818
0.0525785
-0.152634
-0.00562602
0.00928297
0.110621
0.0378549
0.0514383
0.00478275
-0.117926
0.053298
0.048555
0.0513615
0.047041
0.0544715
0.0479406
-0.00324609
0.0452234
0.0432571
0.307294
-0.000973188
-0.00855105
0.00412563
0.0543203
0.00117774
0.0866004
-0.0897144
0.047535
0.0111345
0.0492005
0.243571
0.0484629
0.0491784
0.0315244
0.048361
0.0264526
0.0591931
0.0546135
0.0473684
-0.0953988
0.0875677
0.0118657
0.0516581
0.0360627
-0.0556084
-0.00729703
0.0792425
0.0750299
0.0497263
0.0554464
0.0450682
0.0515321
0.046826
0.0516019
0.0901151
0.0748609
0.00731489
-0.105365
0.0243011
-0.00818016
0.0328454
-0.110794
0.0478793
-0.0295953
0.0514498
-0.0121775
-0.00576102
0.0257094
0.0491972
0.0298919
0.0110357
0.0329644
-0.0110431
0.233943
-0.103525
0.0514207
-0.00172099
0.0464097
-0.00477383
0.0900524
0.00404372
0.0443911
0.0576379
0.011151
0.0523155
0.0365538
0.0495746
0.0454827
0.0485255
0.0554515
0.00686179
0.00155245
0.0488619
0.0849686
-0.08356
0.49243
0.0481208
0.0736957
0.0298732
0.194375
0.0317145
-0.180331
-0.0350461
0.0471668
0.0252713
0.0673473
0.17679
0.048705
0.067787
0.0782038
0.0465193
-0.087464
-0.0042305
0.0513485
0.025347
-0.0343883
0.0765289
-0.0906274
0.0387073
0.0794166
0.0542108
0.0480985
0.0557529
0.0448398
-0.0748639
-0.000497628
-0.06501
0.0499048
-0.0870023
0.0303916
0.00390015
0.111105
0.0255197
0.0285435
-0.0552737
0.0384162
0.0376881
0.00545846
0.0703762
0.0261366
0.00919804
0.0699756
-0.0909534
0.0856669
0.034696
0.0877763
0.0498041
0.114499
4.24882e-05
0.100936
0.0533734
-0.0361089
0.0488728
0.0337886
0.00982686
-0.00101118
0.0573968
0.00648543
0.045375
0.508163
0.0553206
0.00602185
0.091724
-8.5177e-05
0.0075497
0.0494433
0.0318481
0.0485737
0.465391
0.0489796
0.0487239
0.0482276
-0.0141652
0.0432835
0.0445535
-0.0118186
0.0287404
0.0643302
0.0435304
0.0485814
0.107898
0.0468324
0.104449
0.00803334
0.0862456
0.0389042
0.0420282
0.0262834
-0.0125997
0.00973139
0.0436539
0.533755
0.0489549
0.0486566
0.0556547
-0.137992
0.0533472
0.0319013
0.0795887
0.0532944
0.0417515
0.0033971
-0.0228469
0.0336259
-0.0466904
0.054253
0.0452407
0.0151119
0.0201035
-0.000692144
0.0513683
0.0265139
0.072084
0.195034
0.0376523
0.0487976
0.0454404
0.17871
0.0493278
0.0493341
-0.0354961
0.032397
-0.0408752
0.0417265
0.0484723
0.190435
-0.0142251
0.0431479
0.0546039
0.0467493
-0.11265
0.049335
0.034059
-0.0273922
0.0493336
0.0485677
0.00950091
0.0481232
0.0493416
0.0144038
0.0512092
0.0486213
0.0217198
0.0482403
-0.0129576
0.0484599
0.0580921
0.119297
0.0086399
0.0493495
0.0053457
-0.17342
0.041698
0.0741682
0.0461353
0.0341676
0.0470804
-0.0178821
-0.00559708
0.045667
0.0485663
0.132453
0.0298138
0.0168955
0.0127339
0.129968
0.0481386
0.00616822
0.0485501
-0.0198948
-0.00567534
-0.00439501
0.00829987
0.156329
-0.0884295
0.00560221
0.0115297
0.0479286
0.0517936
0.00114993
0.13699
0.0985711
0.0343456
-0.0745218
0.04804
-0.0631832
0.202368
0.0483798
-0.00756302
-0.0201456
0.080672
0.00926445
0.00724723
0.0728173
0.0486964
-0.0115843
-0.0659089
0.265445
0.0544091
0.00266497
-0.0310687
0.142679
0.0508504
0.0485429
0.00701214
-0.0538687
0.04042
0.0689007
0.048834
0.0481341
0.0569796
0.054081
0.026029
0.0549388
0.0485106
-0.0151129
0.0366034
-0.0263857
0.0167405
0.0488558
0.0485867
0.143972
0.0539199
0.0799449
0.0607536
-0.0464072
0.0812758
0.0478886
-0.0224824
0.058453
0.0486039
0.0289082
0.0386151
0.0414619
0.0947068
0.0261726
-0.146542
0.0407965
0.0484816
-0.0273695
0.048175
-0.00614579
0.0313627
-0.0264595
-0.0482082
0.0961689
-0.0313988
0.0489001
-0.00875464
0.0530126
0.0721132
-0.0234392
0.020575
-0.0233634
-0.0641353
0.172654
-0.0114863
0.0640459
0.0478862
0.0484719
0.0481501
-0.031462
0.139173
0.0479352
-0.0145001
-0.0195018
0.0154698
0.00255527
0.0285177
0.110228
-0.0291815
0.0543244
0.0127191
0.0257267
0.0491884
0.0492126
0.0507235
0.0542595
0.0128116
0.0487648
0.0518984
0.0555114
0.0740433
0.000587886
0.0485812
-0.0188502
0.0484596
0.00426006
0.0143846
0.0511362
0.0411497
0.00158637
-0.0202241
0.0370726
0.0775609
0.0539819
0.0271887
0.0326921
0.0486018
0.0530563
0.0535612
0.0512075
0.0486376
0.069673
0.0486196
0.1263
0.0133609
-0.0920291
0.0486844
0.0595519
0.0488056
0.0491141
0.121673
0.0587312
0.0481186
0.31684
0.134095
0.0378017
0.0648665
0.0385784
0.120899
0.0209358
0.00907654
0.0557774
0.0554257
0.0485621
0.0502174
-0.0116377
0.0481981
0.0507867
0.123225
0.0513123
0.0530494
0.0293557
0.0487008
-0.0355972
0.0487187
0.0507217
0.00826697
0.00971235
-0.07087
0.110119
0.0705302
0.0510033
0.00749534
0.050934
0.025715
0.00668517
0.0552715
-0.0272831
0.0494072
0.02634
0.0701849
0.052601
0.101313
0.0486609
0.0552268
0.0485464
0.0294404
0.0480909
0.0535117
0.0249754
0.0454768
0.0706815
0.0277145
0.0486011
0.0271324
0.0125407
0.0551743
0.00876035
-0.0137216
0.0485605
0.0313001
0.110027
0.00291429
0.0561548
0.0443443
0.0444403
0.0259018
0.0568681
0.151571
0.0543964
0.0489561
0.0489819
-0.0211436
-0.00816902
-0.02224
0.282917
0.10099
0.0507217
0.0267494
0.0110893
0.0493298
-0.0597488
0.0534397
0.104239
-0.000367223
0.0507873
0.144994
-0.00749124
-0.0166487
0.0237055
0.0294126
0.0492263
0.0481054
0.0611191
0.0485901
0.0485546
0.137496
0.0514575
0.063758
0.0479335
0.0390515
0.0450263
0.369755
0.0414218
0.0436225
-0.00898803
0.103846
0.0941734
0.0343266
0.110226
0.049028
0.0466792
0.00488751
0.0729297
0.124405
0.0503565
-0.000603503
0.0405718
0.0506166
0.0518483
0.0487437
0.0644377
0.0414403
0.0491274
0.0302473
0.259186
0.0492489
0.0121295
0.0324293
0.048509
0.0628977
0.0516093
0.0274695
0.0488284
0.0486798
0.0157508
0.0294355
0.0916004
0.142229
-0.228648
0.0551117
0.0644051
-0.0385957
0.0333686
0.051536
0.0407479
-0.000830801
0.0486442
0.05269
0.0485549
0.0302898
0.0648706
0.0194521
0.0486289
0.0608471
0.0349986
0.0538698
0.118971
0.0451234
0.0483337
0.0486276
0.0297665
0.0234629
0.308604
0.0602303
0.0827688
0.00592132
0.00485172
0.0484403
0.0998285
0.04863
0.0486034
0.0492
-0.00243418
0.0543146
0.0348547
0.00710199
0.020312
0.00647368
0.0302389
0.0644156
0.114126
0.0465651
0.0121479
0.0919477
0.0331273
0.128576
0.0530346
-0.158707
0.142972
0.134585
0.0479843
-0.113233
0.00588014
0.00801173
0.137567
-0.000419569
0.0587383
0.0557537
0.0391129
0.0369998
0.0339823
0.212212
0.0744345
0.0534409
0.0147947
0.0537718
0.0369989
0.024826
0.0935342
0.0365421
0.0683665
0.0837574
0.00615079
0.0976356
0.0322837
0.0495123
0.0598775
0.0486541
0.0448844
0.0470865
0.0538291
0.0195096
-0.0489607
0.0484382
0.16628
0.0477736
0.041263
0.0105657
0.030437
0.0337236
0.0468201
0.00750507
0.0124552
0.251714
0.0486379
0.00940611
0.0368316
0.0137749
0.049212
0.0488496
0.152217
0.0244744
0.0334229
-0.122047
0.0267849
0.0396524
0.13698
0.0154684
0.120691
0.0550851
0.0193285
0.0378899
0.0455797
-0.0276353
0.00720752
0.0201246
0.0335428
0.0480613
0.00651706
0.0061011
-0.000919979
0.0400755
0.0372643
0.41791
-0.0383013
0.0477233
-0.0132609
0.0214774
-0.107718
0.0485276
0.032019
0.0329344
0.0485101
0.00396904
0.0290922
0.0529363
6.95839e-05
-0.0227257
-0.00140857
0.0555908
0.0238604
0.0492502
0.0444458
-0.0244928
0.0827001
0.0299596
0.0071987
0.146862
0.024925
0.0207125
0.0219438
0.00761797
-0.0274504
0.0469168
0.0224191
0.0170052
0.0923413
0.279776
0.0135093
0.0353857
0.0205443
0.0485239
0.0932369
0.0316394
0.00946309
0.0483594
0.0362829
0.00657102
0.0142096
0.14942
0.0108347
0.0310547
0.0299483
0.0540504
0.00349281
0.0275004
0.0741081
0.0593506
0.055661
0.0106681
0.036863
0.0423142
0.0390772
0.048761
0.00640901
0.0629171
0.0303868
-0.00388536
-0.0453138
0.04341
0.0294959
0.01751
0.0247393
0.0486535
0.0996192
0.0992426
0.0728076
0.0491882
0.230765
0.00719826
0.0530406
0.0898976
0.048064
0.0572939
0.0336256
0.0268756
0.0537537
-0.104574
0.0500992
0.0594001
0.0431668
-0.0116069
-0.0302737
-0.000474084
0.0629221
0.00972284
0.0492256
0.0299487
0.0751229
0.0501265
0.1496
0.0181511
0.028276
0.00858117
0.0667209
0.0227871
0.0383518
0.0482645
0.0484027
0.0472751
0.0632983
0.123629
0.0169105
0.146058
0.0829878
0.0904277
0.0507852
0.0697545
0.00748427
0.0486427
-0.023908
-0.0188136
0.051982
0.0485912
0.0407598
0.046621
0.04839
0.0649743
0.0352793
0.132837
0.0173938
0.0357958
0.0893003
-0.0106038
0.00582463
0.0870626
0.0142184
0.0250979
0.0707764
0.0481417
0.0627123
0.0293798
0.122567
0.130826
0.218568
0.0484344
0.127869
0.0333838
0.0326232
0.104187
0.107868
0.100569
-0.0242507
0.0217639
0.0673711
0.0222376
0.0402162
0.0465076
0.0914999
0.0479694
0.0177846
-0.0293215
0.0594221
-0.0255221
0.0476028
0.0841981
0.0546666
0.0321716
0.102397
0.163298
0.0216854
0.0436458
0.0181977
0.0344096
0.0717773
4.27778e-05
0.082394
-0.00207931
0.0484479
0.0222587
-0.142987
0.0992592
0.0367817
-0.0417219
0.010551
0.0423609
0.0474111
0.104094
0.0936712
0.0346942
0.0574663
0.0503929
0.00621975
0.0441675
0.00455838
0.0814129
0.0360494
0.14221
0.0484443
0.0452649
0.00527633
0.038421
0.0390365
0.0663543
0.0565075
0.0309003
0.168705
0.107632
0.0482468
0.00590509
0.0441886
0.0481899
0.134068
0.0480638
0.0231625
0.0259879
0.0479307
0.0480907
0.052241
0.00799487
0.0614547
0.0980358
0.0289213
0.130593
0.0326525
0.0343382
0.0377897
0.0785514
0.0486851
0.0400145
0.0380815
0.0278999
-0.0210074
0.0100461
0.0666351
0.0453098
0.0556833
0.032692
0.0431311
0.0612556
0.0237408
0.107191
0.0327906
0.0482195
0.0088259
0.0873532
0.00779228
0.0484246
0.135399
-0.0232612
0.0456497
0.0983307
0.00614267
0.0530361
0.0966921
0.00368938
0.0895076
0.114545
0.00440074
0.0484216
0.079185
0.076212
0.0143857
0.0454801
0.032716
0.0484056
0.0483711
0.0481574
0.0145578
0.0183841
0.0210537
0.0828926
-0.0625737
0.1697
-0.060285
0.0284338
0.0424005
-0.0399942
0.0498886
-0.100329
0.034438
0.0239826
0.0196931
0.0297949
0.0650702
0.0416165
0.0334629
0.0540291
0.0483953
0.0778869
-0.0369455
0.0148625
0.00695434
0.0187191
0.0522417
0.0286149
0.0174794
0.0545491
0.0251808
0.03929
0.11889
0.0862772
0.0815032
0.0937177
-0.00161757
-3.00128e-05
0.0063963
0.0241926
-0.00582086
0.0163788
0.0587636
0.0435614
0.131199
0.0743195
0.00741265
0.0488161
0.0959559
0.12711
0.074282
0.0799169
0.0568983
0.0181044
0.114286
0.030351
0.0244612
0.0347578
0.0342077
0.0475661
0.0294679
0.0304346
0.0537817
0.0215265
0.0311695
0.0441871
0.104934
0.0440776
0.0406135
0.0758745
0.05587
0.0478472
0.050861
0.00272889
0.0172445
0.0493673
0.0721872
-0.0508835
0.00711942
0.0559255
0.0208341
-0.0188738
-0.0399182
-0.00637241
0.0346187
0.0360079
0.0550016
0.0344743
0.0263189
-0.000275788
-0.00119184
0.00314727
0.000955561
0.0359834
0.0473091
0.0470201
0.12936
0.0623076
0.0349077
0.0392602
-0.000290354
0.0449166
0.0281967
0.149413
0.0877051
0.0118563
0.0540252
0.0176808
0.0480254
0.00897105
0.000792751
0.0292365
0.0481355
0.0592378
0.167625
0.0421397
0.0894245
-0.0165652
0.0485154
0.0358426
0.0946213
0.101535
0.0703481
0.0494405
0.0452602
0.0463647
0.0491279
0.0482057
0.0418109
0.00784294
0.0481092
0.0566585
0.0536066
-0.337783
0.119514
0.0463825
0.0484276
0.011255
0.0180352
0.0240316
0.0771136
0.0189705
0.0475354
0.0425413
0.00526659
0.0490465
0.0155153
0.0928649
0.0716714
0.0466658
0.0135836
0.0487785
0.0400055
0.0382859
0.0420251
-0.00271227
0.0599111
0.0360754
0.034536
0.111293
0.0815783
0.0480063
0.0485688
0.0373127
0.0325312
0.0151149
0.0216875
0.0407188
0.00800464
0.0804995
0.0491635
0.0386698
0.00666736
0.040795
0.0852198
0.0638457
0.0515462
0.150027
0.0231885
0.125624
0.140005
0.0288096
-0.00247995
0.000236161
0.125497
0.0406458
0.00680897
0.0748164
0.0373081
0.0244025
0.0902273
0.0725864
0.0509802
0.00316499
0.0322513
0.0298204
0.0413065
0.00696939
0.0503779
0.0804366
0.0501809
0.0576585
0.0863032
0.0548151
0.0427386
0.106565
0.00817849
0.0919718
0.0302863
0.0723958
0.00922771
0.0618234
0.012728
0.0498507
0.0321278
0.0103452
0.0677516
0.0276734
0.0498048
0.042784
0.0165255
0.0463533
0.0360451
0.0567143
0.0375617
0.0238411
-0.000843966
0.0960369
0.104372
0.100962
0.0418731
0.0413935
0.0364716
0.0202904
0.0299412
0.048877
0.0543995
0.0702822
0.0257662
0.0588932
0.00524052
0.032653
0.0573607
0.0342583
0.033515
0.0444386
0.031654
0.0385431
0.134597
0.259286
0.0236867
0.0291449
0.0306926
0.0336741
0.0388543
0.0372931
0.0354223
0.0235795
0.0145824
0.0470345
0.0484109
0.0473257
0.00688381
0.0484609
0.0308048
0.0429036
0.0318029
0.0598856
0.0349643
0.123585
-0.00711321
0.0480353
0.0357073
0.0915656
0.0423109
0.0610063
0.089382
0.0534492
0.048319
0.0303976
0.00638382
0.0870674
0.00416889
0.11518
0.083864
0.00426975
0.0633617
0.068745
0.012262
0.0435334
0.0482036
0.0498217
0.037464
0.04789
0.0336202
-0.036487
0.0469756
0.0804003
0.0438046
0.0624854
0.0631848
0.161735
0.0547451
0.0426492
0.00588269
0.014831
0.0870301
0.0318796
0.0833728
0.0497148
0.038793
0.0651691
0.0463046
0.0337598
0.0491711
0.0497513
0.0329999
0.047853
0.0358241
0.0617945
0.0810245
0.0162708
0.0475764
0.00775079
0.00178958
0.0678746
0.060114
0.0508573
0.0683823
0.13198
0.0483942
0.0412984
0.0469753
0.0608443
0.0396265
0.0365223
0.040063
0.074
0.0833602
0.0333537
0.0794488
0.0906641
0.0603489
0.108301
0.0579772
0.0783133
0.0285059
0.0431159
0.0226983
0.0492613
0.0649405
0.0500963
0.0835142
0.00238207
0.0551491
-0.012269
0.0444208
0.0279239
0.117731
0.0085624
0.0471273
0.0480423
0.00529682
0.107428
0.0277765
0.0303865
0.0171688
0.0453385
0.0809816
0.0386738
0.0466716
0.0372144
0.00926123
0.0429209
0.0410318
0.393961
0.0400247
0.0501394
0.0592205
0.0647215
0.0434369
0.0329852
0.0484219
0.102572
0.0432182
0.0484027
0.0145581
0.0378185
0.0304722
0.0417989
0.0634345
0.0425871
0.0450132
0.0443524
0.0351399
0.0803458
0.0484442
0.0398267
0.0580406
0.0459038
0.0404369
0.0548372
0.0551827
0.0597841
0.0601281
0.0485188
0.0437316
0.0508849
0.0301323
-0.00149218
-0.000688058
0.146358
0.0749547
-0.00948139
0.0325059
0.0479496
0.0513359
0.0584969
0.0742598
0.0488539
0.0290772
0.0761184
0.0571826
0.0272174
-0.00970223
0.0226079
0.0478166
0.0384904
0.0482711
0.0942942
0.233715
0.0401467
0.0574071
0.0433542
0.00724156
0.0480394
0.0727858
0.0283931
0.0455988
0.0490201
0.0345811
0.0971293
0.0395293
0.0566537
0.0268689
0.0427298
0.0439786
0.0878302
0.0609482
0.0409619
0.0507164
0.0396713
0.0544496
0.0390615
0.0487759
0.0401101
0.0481018
0.0545231
0.0119894
0.0684865
0.0174298
0.0741433
0.0740065
0.0528238
0.0394953
0.0365034
0.077614
0.0922557
0.011247
0.0422939
0.0566867
0.0583094
0.0407615
0.0469063
0.0443093
0.037769
0.0289727
0.0291177
0.0444052
0.0156562
0.0401613
0.0795819
0.0413511
0.0434714
0.0397487
0.0248129
0.0837447
0.0538853
-0.00064632
0.0400819
0.0417348
0.011546
0.0515003
0.000985034
0.0509242
0.0421794
0.0469525
0.0468136
0.0494276
0.0430169
0.00512389
0.0484179
0.0220874
0.0720431
0.0510304
0.0579713
0.0347437
0.0963002
0.0607312
0.0488757
0.0361067
-0.0655837
0.0485731
0.00625198
-0.0816356
0.0659558
0.0855472
0.0524668
0.0418839
0.0304747
0.0714964
0.0588274
0.0487438
0.092359
0.0117872
0.0820552
0.048455
0.0477657
0.0437985
0.0446265
0.045146
0.0660381
0.0763228
0.0464018
-0.001433
0.0455464
0.0529355
0.0422616
0.0331818
0.000396415
0.0478406
0.0424326
0.0250303
0.0421881
0.0466394
0.0510216
0.128311
0.0734959
0.0489537
0.0628504
0.0532875
0.0423581
0.075327
0.0597169
0.044334
0.0631469
0.0379151
0.0628499
0.0853047
0.0021207
0.0247256
0.0490542
0.0701067
0.0471024
0.0511516
0.0499859
0.0426771
0.00193157
0.000519595
0.058802
0.0339565
0.0366975
0.0285559
0.0476332
0.0470032
0.0489643
0.0712746
0.0360825
0.0484956
0.0422648
0.0541894
0.0243954
0.00971958
0.0485323
0.0479819
0.0375876
0.0482573
0.0470393
0.0430837
0.0453357
0.0404594
0.0661169
0.0619237
0.0351819
0.0463645
0.0526187
0.0583101
0.0423735
0.0484336
0.0434102
0.0323154
0.00133777
0.00614515
0.036834
0.123361
0.0427271
-0.0601769
0.0887506
0.0422446
0.0413022
0.0533008
0.0484571
0.0485366
0.0534704
0.0567612
0.0420641
0.0502961
0.0475844
0.0969463
0.00596347
0.0345362
0.0486862
0.0546232
0.0627832
0.0702312
0.0340192
0.050981
0.0483609
0.0467531
0.0431763
0.0295251
0.027563
0.0059923
0.0616852
0.0468357
0.0408284
0.0560979
0.0531943
0.0525
0.0456644
0.0579249
0.0485191
0.0162914
-0.002375
0.0475551
0.0663791
0.0419844
0.0447745
0.0462697
0.049929
-0.0456935
0.0633847
-2.9994e-05
0.0436876
0.0096912
0.051911
0.0693637
0.127832
0.0550551
0.04873
0.032042
0.0243499
0.111194
0.041959
0.0667356
0.045126
0.0480178
0.0651254
0.0459438
0.121374
0.000124029
0.0791361
0.0519895
0.0476311
0.0484911
0.0472803
-0.0268604
0.0395429
0.0478855
0.0557837
0.0466151
0.0480115
0.0477415
0.0114487
0.00395457
0.0540349
0.0474957
0.0820841
0.055434
0.101393
0.383706
0.0232969
0.0439495
0.0743559
0.0484071
-0.0483529
0.0484725