/*--------------------------------*- C++ -*----------------------------------*\
  =========                 |
  \\      /  F ield         | OpenFOAM: The Open Source CFD Toolbox
   \\    /   O peration     | Website:  https://openfoam.org
    \\  /    A nd           | Version:  7
     \\/     M anipulation  |
\*---------------------------------------------------------------------------*/
FoamFile
{
    version     2.0;
    format      ascii;
    class       volScalarField;
    location    "7.5";
    object      T;
}
// * * * * * * * * * * * * * * * * * * * * * * * * * * * * * * * * * * * * * //

dimensions      [0 0 0 1 0 0 0];

internalField   nonuniform List<scalar> 
2413
(
1.00019
1.00082
1.00274
1.0075
1.01895
1.0331
1.05284
1.07299
1.0835
1.09011
1.0953
1.09508
1.09431
1.09317
1.09225
1.09149
1.09078
1.09036
1.09035
1.09058
1.09052
1.09021
1.08979
1.08923
1.08875
1.08834
1.08835
1.08876
1.08882
1.08834
1.08795
1.08787
1.0876
1.08714
1.08656
1.08557
1.08455
1.08376
1.08302
1.08261
1.08239
1.08194
1.08124
1.08062
1.07988
1.07883
1.07825
1.07791
1.07758
1.07727
1.07696
1.07653
1.07608
1.07564
1.07541
1.07523
1.07531
1.07579
1.07625
1.07672
1.07727
1.07757
1.07743
1.07774
1.07798
1
1
1
1
1
1
1
1
1
1
1
1
1
1
1
1
1
1
1
1
1
1
1
1.00001
1.00004
1.00025
1.00103
1.00387
1.01065
1.02279
1.04496
1.06448
1.07947
1.09249
1.09675
1.0989
1.09885
1.09827
1.09681
1.0957
1.09506
1.09455
1.09419
1.09408
1.094
1.09395
1.09382
1.09364
1.09334
1.09306
1.09311
1.09322
1.0929
1.0922
1.09143
1.091
1.09089
1.09064
1.09002
1.08929
1.08848
1.08732
1.08615
1.08544
1.08494
1.08469
1.08447
1.08394
1.083
1.08216
1.08133
1.0802
1.07931
1.07883
1.0784
1.07807
1.07762
1.07705
1.07656
1.0763
1.07626
1.07621
1.07617
1.07631
1.07665
1.07698
1.07743
1.0777
1
1
1
1
1
1
1
1
1
1
1
1
1
1
1
1
1
1
1
1
1
1
1
1
1
1.00001
1.00006
1.00036
1.00163
1.00527
1.01547
1.03359
1.05307
1.07651
1.08975
1.09549
1.10055
1.1017
1.10125
1.10074
1.10012
1.09922
1.09867
1.09849
1.09843
1.09836
1.09821
1.09785
1.09747
1.09734
1.09754
1.09779
1.09773
1.09739
1.09674
1.09577
1.0945
1.09344
1.09309
1.09316
1.09292
1.09214
1.0912
1.09028
1.08909
1.08783
1.08711
1.08665
1.08636
1.08604
1.08536
1.08428
1.08316
1.08217
1.08103
1.07984
1.0792
1.07872
1.07834
1.07802
1.07756
1.07702
1.07666
1.07658
1.07647
1.07637
1.07654
1.07691
1
1
1
1
1
1
1
1
1
1
1
1
1
1
1
1
1
1
1
1
1
1
1
1
1
1
1
1.00002
1.00011
1.0006
1.00262
1.00901
1.022
1.04232
1.06934
1.08517
1.09567
1.10146
1.10522
1.10515
1.10488
1.1038
1.10253
1.10228
1.10246
1.10266
1.10298
1.10321
1.1031
1.10262
1.10173
1.10092
1.10092
1.10155
1.1016
1.10098
1.09991
1.09864
1.09729
1.09642
1.09569
1.09516
1.09507
1.09469
1.0937
1.09251
1.09156
1.09046
1.08923
1.08866
1.0881
1.08748
1.08686
1.08599
1.08476
1.08339
1.08232
1.08131
1.08018
1.07938
1.07893
1.07842
1.07802
1.07766
1.07712
1.07684
1.07691
1.0769
1
1
1
1
1
1
1
1
1
1
1
1
1
1
1
1
1
1
1
1
1
1
1
1
1
1
1
1
1
1.00003
1.00021
1.00112
1.00458
1.01334
1.03286
1.05625
1.07825
1.09563
1.10208
1.10728
1.10848
1.1082
1.10727
1.10626
1.10534
1.10527
1.10628
1.10752
1.1082
1.10825
1.10768
1.10669
1.10551
1.10473
1.1045
1.10441
1.10425
1.10362
1.10244
1.10132
1.10021
1.09883
1.09816
1.09761
1.09685
1.09635
1.0958
1.09479
1.09347
1.09257
1.09165
1.0904
1.08957
1.08883
1.08793
1.087
1.08602
1.0849
1.08359
1.0823
1.08126
1.08025
1.07938
1.07881
1.07828
1.07804
1.0779
1.07757
1
1
1
1
1
1
1
1
1
1
1
1
1
1
1
1
1
1
1
1
1
1
1
1
1
1
1
1
1
1
1.00001
1.00007
1.00043
1.00209
1.00808
1.02164
1.04346
1.06874
1.0895
1.10262
1.10893
1.1127
1.11269
1.11207
1.11083
1.10987
1.10947
1.10982
1.11108
1.11221
1.11273
1.11256
1.11147
1.10999
1.10885
1.10782
1.10742
1.10715
1.10659
1.10599
1.1051
1.10362
1.10251
1.10158
1.10026
1.09943
1.09891
1.09812
1.09729
1.09661
1.09568
1.09432
1.09319
1.09214
1.09084
1.08975
1.08893
1.08803
1.08699
1.08588
1.08469
1.08345
1.08221
1.08115
1.08018
1.07934
1.07874
1.07833
1
1
1
1
1
1
1
1
1
1
1
1
1
1
1
1
1
1
1
1
1
1
1
1
1
1
1
1
1
1
1
1
1.00002
1.00015
1.00093
1.00403
1.01298
1.03164
1.05806
1.08136
1.09786
1.10868
1.11524
1.11687
1.11665
1.11602
1.1151
1.11459
1.11436
1.11473
1.11569
1.11654
1.11656
1.11586
1.11466
1.113
1.11163
1.11077
1.10988
1.10945
1.10899
1.10808
1.10714
1.10613
1.10468
1.10349
1.10261
1.1014
1.10039
1.09983
1.09907
1.09802
1.09704
1.09597
1.09463
1.0933
1.09218
1.09098
1.08967
1.08874
1.0878
1.08675
1.08564
1.08448
1.0833
1.0821
1.08101
1.08011
1
1
1
1
1
1
1
1
1
1
1
1
1
1
1
1
1
1
1
1
1
1
1
1
1
1
1
1
1
1
1
1
1
1.00001
1.00005
1.00035
1.00186
1.00725
1.021
1.0442
1.07327
1.09344
1.10571
1.11335
1.11969
1.12075
1.12097
1.12063
1.11988
1.11916
1.11886
1.11906
1.11972
1.12012
1.11979
1.11863
1.11702
1.11573
1.11442
1.11326
1.11235
1.11141
1.11082
1.11016
1.10904
1.10796
1.10697
1.10563
1.10431
1.10337
1.10226
1.10099
1.10018
1.09933
1.0982
1.09705
1.09593
1.09467
1.0932
1.092
1.09085
1.0896
1.08847
1.08747
1.08641
1.08526
1.08412
1.08294
1
1
1
1
1
1
1
1
1
1
1
1
1
1
1
1
1
1
1
1
1
1
1
1
1
1
1
1
1
1
1
1
1
1
1
1.00001
1.00012
1.00078
1.00372
1.01263
1.03126
1.05967
1.08917
1.10352
1.1128
1.12108
1.12487
1.12548
1.12548
1.12481
1.12381
1.12326
1.12298
1.12295
1.12324
1.12287
1.12177
1.12065
1.11944
1.11821
1.11707
1.1157
1.11456
1.11359
1.11241
1.11161
1.11094
1.10989
1.10869
1.10763
1.10639
1.10486
1.10371
1.10257
1.10114
1.10002
1.09914
1.09809
1.09684
1.09568
1.09448
1.09315
1.09185
1.09067
1.08941
1.08805
1.08686
1.08569
1
1
1
1
1
1
1
1
1
1
1
1
1
1
1
1
1
1
1
1
1
1
1
1
1
1
1
1
1
1
1
1
1
1
1
1
1
1.00004
1.00029
1.00167
1.00693
1.02084
1.04547
1.07868
1.10072
1.11302
1.12227
1.12895
1.12965
1.12981
1.12942
1.12883
1.1281
1.12731
1.12689
1.12623
1.12505
1.12419
1.12346
1.12266
1.12181
1.12064
1.11943
1.1183
1.11684
1.11551
1.11445
1.11316
1.11211
1.11136
1.11037
1.10907
1.10786
1.10662
1.10508
1.1037
1.10255
1.10118
1.09974
1.09871
1.09767
1.0965
1.09535
1.09419
1.09289
1.09144
1.09008
1.08874
1
1
1
1
1
1
1
1
1
1
1
1
1
1
1
1
1
1
1
1
1
1
1
1
1
1
1
1
1
1
1
1
1
1
1
1
1
1
1.00001
1.0001
1.00069
1.0035
1.01264
1.03291
1.06384
1.09476
1.11271
1.12315
1.13166
1.13353
1.13423
1.13414
1.13363
1.13265
1.1318
1.13087
1.12948
1.12811
1.12703
1.12602
1.12525
1.1245
1.12372
1.12287
1.1216
1.12021
1.11901
1.11762
1.11626
1.11514
1.11375
1.11226
1.11126
1.11023
1.10894
1.10772
1.10653
1.10511
1.10354
1.10228
1.10101
1.0995
1.09822
1.09711
1.0959
1.09461
1.09339
1.09209
1
1
1
1
1
1
1
1
1
1
1
1
1
1
1
1
1
1
1
1
1
1
1
1
1
1
1
1
1
1
1
1
1
1
1
1
1
1
1
1
1.00003
1.00026
1.00159
1.007
1.02193
1.04893
1.08438
1.11075
1.12429
1.13395
1.13698
1.13811
1.138
1.13738
1.13655
1.13565
1.13443
1.13309
1.13191
1.13072
1.12957
1.12837
1.12717
1.1262
1.12512
1.12408
1.1232
1.12208
1.12079
1.11957
1.11813
1.11653
1.11528
1.11398
1.1123
1.11094
1.1098
1.1085
1.10719
1.10604
1.10478
1.10325
1.10184
1.10057
1.09916
1.09759
1.09626
1.09495
1
1
1
1
1
1
1
1
1
1
1
1
1
1
1
1
1
1
1
1
1
1
1
1
1
1
1
1
1
1
1
1
1
1
1
1
1
1
1
1
1
1.00001
1.00009
1.00067
1.00354
1.0133
1.0361
1.06947
1.10553
1.12719
1.13681
1.14117
1.14208
1.14134
1.14005
1.13908
1.13827
1.13741
1.13654
1.13545
1.13417
1.13287
1.13163
1.13054
1.12936
1.12808
1.12691
1.12556
1.12421
1.12318
1.12202
1.12071
1.11954
1.11824
1.11659
1.11511
1.11379
1.11221
1.11052
1.10919
1.10785
1.10636
1.10514
1.10399
1.10264
1.10113
1.09973
1.09835
1
1
1
1
1
1
1
1
1
1
1
1
1
1
1
1
1
1
1
1
1
1
1
1
1
1
1
1
1
1
1
1
1
1
1
1
1
1
1
1
1
1
1
1.00003
1.00025
1.00165
1.00751
1.02442
1.05634
1.09392
1.12663
1.14064
1.14624
1.14711
1.1464
1.14472
1.14289
1.14105
1.13951
1.13842
1.13746
1.13662
1.13582
1.1349
1.13379
1.13253
1.13131
1.12996
1.12848
1.12718
1.12575
1.12413
1.12286
1.12159
1.12013
1.1189
1.11771
1.1162
1.11455
1.11311
1.11167
1.11002
1.10855
1.10717
1.10558
1.10399
1.10275
1.10148
1
1
1
1
1
1
1
1
1
1
1
1
1
1
1
1
1
1
1
1
1
1
1
1
1
1
1
1
1
1
1
1
1
1
1
1
1
1
1
1
1
1
1
1
1.00001
1.00009
1.00069
1.00396
1.01555
1.04302
1.08304
1.12036
1.14183
1.15045
1.15161
1.151
1.1491
1.14683
1.14478
1.14327
1.14196
1.14047
1.13906
1.13787
1.13684
1.13591
1.13503
1.13399
1.13269
1.13134
1.1299
1.12831
1.12697
1.12564
1.12402
1.12249
1.12102
1.11927
1.11769
1.11647
1.11517
1.11368
1.1123
1.1109
1.10926
1.10754
1.10613
1.10472
1
1
1
1
1
1
1
1
1
1
1
1
1
1
1
1
1
1
1
1
1
1
1
1
1
1
1
1
1
1
1
1
1
1
1
1
1
1
1
1
1
1
1
1
1
1
1.00003
1.00029
1.00188
1.00937
1.03126
1.07165
1.11303
1.13852
1.15191
1.1553
1.15433
1.15252
1.15023
1.14818
1.14656
1.14488
1.14331
1.14213
1.1411
1.14001
1.13878
1.13736
1.13574
1.13428
1.13303
1.13176
1.13061
1.12944
1.12796
1.12643
1.12489
1.12311
1.12145
1.12012
1.11867
1.11694
1.11542
1.11399
1.11237
1.11081
1.10952
1.10815
1
1
1
1
1
1
1
1
1
1
1
1
1
1
1
1
1
1
1
1
1
1
1
1
1
1
1
1
1
1
1
1
1
1
1
1
1
1
1
1
1
1
1
1
1
1
1
1.00001
1.00011
1.00094
1.00525
1.02167
1.05756
1.10631
1.13892
1.15117
1.15662
1.15654
1.15498
1.15212
1.14971
1.1481
1.14686
1.14604
1.14523
1.14412
1.14274
1.14121
1.13959
1.13809
1.13678
1.13549
1.13415
1.13271
1.13097
1.1293
1.12787
1.12634
1.12494
1.12376
1.12242
1.12077
1.1192
1.11765
1.11586
1.11406
1.11264
1.11118
1
1
1
1
1
1
1
1
1
1
1
1
1
1
1
1
1
1
1
1
1
1
1
1
1
1
1
1
1
1
1
1
1
1
1
1
1
1
1
1
1
1
1
1
1
1
1
1
1
1.00004
1.00041
1.00307
1.0141
1.04605
1.0934
1.13506
1.15451
1.16084
1.16102
1.1593
1.15624
1.1535
1.15122
1.14948
1.14819
1.1469
1.14554
1.1442
1.1429
1.14164
1.14045
1.13924
1.1379
1.13639
1.13466
1.1329
1.13134
1.12969
1.12808
1.12677
1.12536
1.12377
1.12235
1.12094
1.11925
1.11755
1.11612
1.11465
1
1
1
1
1
1
1
1
1
1
1
1
1
1
1
1
1
1
1
1
1
1
1
1
1
1
1
1
1
1
1
1
1
1
1
1
1
1
1
1
1
1
1
1
1
1
1
1
1
1
1.00002
1.00019
1.00156
1.00955
1.03447
1.08238
1.12554
1.15299
1.16381
1.16437
1.16221
1.15893
1.15601
1.15351
1.15189
1.1507
1.1495
1.14817
1.14674
1.14519
1.14353
1.14198
1.14058
1.13918
1.13767
1.13613
1.13472
1.13324
1.13169
1.13028
1.12883
1.12717
1.1256
1.12405
1.12221
1.12045
1.11909
1.11769
1
1
1
1
1
1
1
1
1
1
1
1
1
1
1
1
1
1
1
1
1
1
1
1
1
1
1
1
1
1
1
1
1
1
1
1
1
1
1
1
1
1
1
1
1
1
1
1
1
1
1
1.00001
1.00009
1.00089
1.0056
1.02621
1.06837
1.12197
1.15153
1.16115
1.16274
1.16204
1.16016
1.15759
1.15554
1.15443
1.15336
1.15202
1.15051
1.14882
1.14702
1.14539
1.144
1.14263
1.14114
1.13951
1.13778
1.13604
1.13445
1.13309
1.13176
1.13028
1.12879
1.12729
1.12553
1.12375
1.12231
1.12087
1
1
1
1
1
1
1
1
1
1
1
1
1
1
1
1
1
1
1
1
1
1
1
1
1
1
1
1
1
1
1
1
1
1
1
1
1
1
1
1
1
1
1
1
1
1
1
1
1
1
1
1
1
1.00004
1.00045
1.0038
1.01779
1.05741
1.10965
1.15079
1.16209
1.16592
1.16566
1.16419
1.16162
1.15938
1.15757
1.15552
1.15315
1.15119
1.14968
1.14839
1.14726
1.14611
1.14475
1.14318
1.14139
1.13945
1.13766
1.13613
1.13473
1.13327
1.13177
1.13024
1.12848
1.12666
1.12521
1.1238
1
1
1
1
1
1
1
1
1
1
1
1
1
1
1
1
1
1
1
1
1
1
1
1
1
1
1
1
1
1
1
1
1
1
1
1
1
1
1
1
1
1
1
1
1
1
1
1
1
1
1
1
1
1
1.00002
1.00025
1.00205
1.01323
1.04496
1.10071
1.14098
1.1604
1.16795
1.16847
1.16688
1.1642
1.16156
1.15886
1.1563
1.15451
1.15329
1.15218
1.15103
1.14977
1.14826
1.14642
1.14435
1.14221
1.14047
1.13909
1.13779
1.13648
1.13509
1.13357
1.13184
1.12989
1.12817
1.12663
1
1
1
1
1
1
1
1
1
1
1
1
1
1
1
1
1
1
1
1
1
1
1
1
1
1
1
1
1
1
1
1
1
1
1
1
1
1
1
1
1
1
1
1
1
1
1
1
1
1
1
1
1
1
1
1.00001
1.00012
1.00137
1.00818
1.03585
1.08599
1.13759
1.15967
1.16741
1.16849
1.16735
1.16469
1.16186
1.15953
1.15795
1.15686
1.15582
1.15465
1.15334
1.15182
1.14994
1.14776
1.14557
1.14373
1.14229
1.14094
1.13958
1.13816
1.13657
1.13482
1.13291
1.13111
1.12954
1
1
1
1
1
1
1
1
1
1
1
1
1
1
1
1
1
1
1
1
1
1
1
1
1
1
1
1
1
1
1
1
1
1
1
1
1
1
1
1
1
1
1
1
1
1
1
1
1
1
1
1
1
1
1
1
1
1.00007
1.00068
1.00597
1.02594
1.07392
1.12495
1.15858
1.16959
1.17003
1.16873
1.16665
1.1644
1.16234
1.16079
1.15948
1.15805
1.15639
1.15453
1.15262
1.15073
1.14892
1.14728
1.14587
1.14449
1.14304
1.14151
1.13978
1.13788
1.13594
1.13405
1.13245
1
1
1
1
1
1
1
1
1
1
1
1
1
1
1
1
1
1
1
1
1
1
1
1
1
1
1
1
1
1
1
1
1
1
1
1
1
1
1
1
1
1
1
1
1
1
1
1
1
1
1
1
1
1
1
1
1
1
1.00003
1.00047
1.00335
1.0195
1.06009
1.11801
1.15225
1.16447
1.16802
1.16891
1.16789
1.16593
1.16404
1.16253
1.16095
1.15919
1.15737
1.15562
1.15402
1.15252
1.15104
1.14954
1.148
1.14635
1.14464
1.14281
1.14086
1.13903
1.13725
1.13563
1
1
1
1
1
1
1
1
1
1
1
1
1
1
1
1
1
1
1
1
1
1
1
1
1
1
1
1
1
1
1
1
1
1
1
1
1
1
1
1
1
1
1
1
1
1
1
1
1
1
1
1
1
1
1
1
1
1
1
1.00002
1.00021
1.00238
1.0132
1.04822
1.10322
1.1471
1.16657
1.17076
1.17053
1.16938
1.1673
1.16527
1.16351
1.16192
1.16033
1.15876
1.15727
1.15587
1.15446
1.15295
1.15136
1.14967
1.14788
1.14605
1.14416
1.14237
1.14066
1.13896
1
1
1
1
1
1
1
1
1
1
1
1
1
1
1
1
1
1
1
1
1
1
1
1
1
1
1
1
1
1
1
1
1
1
1
1
1
1
1
1
1
1
1
1
1
1
1
1
1
1
1
1
1
1
1
1
1
1
1
1
1.00001
1.00014
1.00127
1.00899
1.03805
1.09114
1.1369
1.16194
1.1704
1.17043
1.16919
1.16724
1.16577
1.16451
1.16321
1.16197
1.1607
1.15932
1.15778
1.15608
1.15428
1.15254
1.15088
1.14926
1.14761
1.14592
1.14425
1.1425
1
1
1
1
1
1
1
1
1
1
1
1
1
1
1
1
1
1
1
1
1
1
1
1
1
1
1
1
1
1
1
1
1
1
1
1
1
1
1
1
1
1
1
1
1
1
1
1
1
1
1
1
1
1
1
1
1
1
1
1
)
;

boundaryField
{
    inlet
    {
        type            fixedValue;
        value           nonuniform 0();
    }
    outlet
    {
        type            inletOutlet;
        inletValue      nonuniform 0();
        value           nonuniform 0();
    }
    bottom
    {
        type            symmetryPlane;
    }
    top
    {
        type            symmetryPlane;
    }
    obstacle
    {
        type            zeroGradient;
    }
    front
    {
        type            empty;
    }
    back
    {
        type            empty;
    }
    procBoundary27to10
    {
        type            processor;
        value           nonuniform List<scalar> 
14
(
1
1
1
1
1
1
1
1
1
1
1
1
1
1
)
;
    }
    procBoundary27to18
    {
        type            processor;
        value           nonuniform List<scalar> 
13
(
1
1
1
1
1
1
1
1
1
1
1
1
1
)
;
    }
    procBoundary27to19
    {
        type            processor;
        value           nonuniform List<scalar> 
89
(
1.0022
1.00643
1.01351
1.02729
1.04518
1.05958
1.07689
1.08468
1.08907
1.09191
1.09181
1.09046
1.08883
1.08782
1.08708
1.08708
1.08713
1.08703
1.08687
1.08655
1.08587
1.08548
1.085
1.08432
1.08422
1.08466
1.0849
1.08475
1.08448
1.08408
1.08392
1.08398
1.08363
1.08307
1.0825
1.08152
1.08067
1.08029
1.07977
1.07915
1.07879
1.07825
1.07746
1.07697
1.0766
1.07608
1.07583
1.07569
1.07547
1.0752
1.07502
1.07477
1.07462
1.07462
1.07484
1.07511
1.0755
1.07612
1.07652
1.07675
1.07731
1.0776
1.07745
1.07774
1.07783
1
1
1
1
1
1
1
1
1
1
1
1
1
1
1
1
1
1
1
1
1
1.00001
1.00004
1.00004
)
;
    }
    procBoundary27to20
    {
        type            processor;
        value           uniform 1.07786;
    }
    procBoundary27to28
    {
        type            processor;
        value           nonuniform List<scalar> 
26
(
1.07767
1.07726
1.07685
1.07729
1.07812
1.07927
1.08171
1.0845
1.08737
1.09069
1.09357
1.09683
1.10006
1.10308
1.10656
1.10953
1.11298
1.11612
1.11925
1.12226
1.12505
1.12802
1.13099
1.1342
1.13741
1.14077
)
;
    }
    procBoundary27to35
    {
        type            processor;
        value           nonuniform List<scalar> 
89
(
1
1
1.00006
1.0008
1.00605
1.02789
1.07567
1.12873
1.16283
1.16812
1.16816
1.16726
1.16598
1.16514
1.16448
1.16382
1.16296
1.16185
1.16038
1.15866
1.15691
1.15531
1.15389
1.15252
1.15107
1.1495
1.14777
1.14592
1
1
1
1
1
1
1
1
1
1
1
1
1
1
1
1
1
1
1
1
1
1
1
1
1
1
1
1
1
1
1
1
1
1
1
1
1
1
1
1
1
1
1
1
1
1
1
1
1
1
1
1
1
1
1
1
1
1
1
1
1
)
;
    }
}


// ************************************************************************* //
