/*--------------------------------*- C++ -*----------------------------------*\
  =========                 |
  \\      /  F ield         | OpenFOAM: The Open Source CFD Toolbox
   \\    /   O peration     | Website:  https://openfoam.org
    \\  /    A nd           | Version:  7
     \\/     M anipulation  |
\*---------------------------------------------------------------------------*/
FoamFile
{
    version     2.0;
    format      ascii;
    class       volVectorField;
    location    "0.085";
    object      U;
}
// * * * * * * * * * * * * * * * * * * * * * * * * * * * * * * * * * * * * * //

dimensions      [0 1 -1 0 0 0 0];

internalField   nonuniform List<vector> 
12359
(
(0.982078 0.00298825 -7.03275e-17)
(0.97161 0.000703563 5.95141e-18)
(0.999994 6.87085e-06 -1.30076e-20)
(0.932271 0.000401952 3.60111e-20)
(0.977865 0.000756737 -8.64215e-18)
(0.874805 0.0006653 -4.41144e-20)
(0.823117 -0.00697276 -2.79695e-17)
(0.855763 -0.000947156 -1.45357e-18)
(0.769597 -0.0100765 1.2868e-16)
(0.888715 0.000323781 0)
(0.807409 0.0149054 -1.42446e-16)
(0.742932 0.0575121 5.89482e-18)
(0.258006 0.019493 2.53468e-17)
(0.922309 -0.000581881 -1.51004e-21)
(0.936746 -0.00351685 5.50474e-19)
(0.483458 0.0141118 0)
(0.393097 0.0142254 1.425e-18)
(0.994657 -2.06964e-05 -5.36275e-18)
(0.995082 -2.44148e-05 -5.90321e-19)
(0.955918 0.000923524 -3.20218e-18)
(0.910947 0.000471632 0)
(0.737118 0.0282908 3.78338e-17)
(0.962954 -0.0010697 -3.19213e-19)
(0.954148 0.00675304 -1.58295e-17)
(0.968702 -0.000824026 -6.34917e-18)
(0.959852 -0.0010452 -6.50059e-19)
(0.998233 -4.92834e-05 -2.57141e-19)
(0.99839 -1.16027e-05 -1.05377e-20)
(0.995849 1.07756e-05 -1.31006e-20)
(0.997655 -1.21509e-05 -1.0492e-19)
(0.99722 0.00010088 -2.92679e-18)
(0.998993 0.000175638 9.75398e-19)
(0.999457 -1.59806e-05 -8.6792e-19)
(0.997957 4.5658e-05 3.55416e-20)
(0.999768 -1.43559e-05 8.6351e-18)
(0.997092 -1.27743e-05 2.25525e-18)
(0.989239 0.000580489 -1.69359e-19)
(0.983896 -0.000749366 1.03549e-16)
(0.978639 0.000983884 -8.47122e-17)
(0.986626 -0.000861985 1.60882e-17)
(0.97331 -0.00124685 -2.70199e-18)
(0.985468 -0.000239354 -6.54512e-18)
(0.991923 -0.000453068 3.4167e-18)
(0.992718 2.99915e-05 3.10837e-17)
(0.996501 -6.36481e-05 2.61807e-20)
(0.996199 -2.48866e-05 0)
(0.996733 -9.71858e-06 3.17484e-19)
(0.997375 -0.000122163 6.68342e-19)
(0.995473 -8.0789e-06 -8.72124e-20)
(0.998092 -1.78093e-05 2.16665e-19)
(0.998512 1.5464e-05 2.91158e-20)
(0.99872 -2.99186e-05 3.80598e-21)
(0.999111 -5.69708e-05 -5.55629e-19)
(0.994188 -7.41797e-06 -3.05259e-17)
(0.999396 0.000153135 -1.79031e-19)
(0.999405 -5.42829e-07 -1.57312e-19)
(0.993201 5.87618e-05 2.14769e-17)
(0.999539 -6.79946e-06 -7.60453e-18)
(0.99958 -3.7729e-06 6.28762e-18)
(0.999656 4.87143e-05 -1.19233e-17)
(0.999395 9.18489e-05 2.52848e-19)
(0.999925 4.13765e-05 4.23871e-19)
(0.998653 -1.28753e-05 9.95825e-22)
(0.157808 0.13611 -3.39789e-17)
(0.9937 1.23843e-05 -1.18375e-17)
(0.900776 -0.000157048 0)
(0.990731 0.00136849 -2.53829e-18)
(0.99876 -2.35504e-05 9.74995e-20)
(0.988516 -2.77405e-05 7.17367e-20)
(0.599702 0.0527615 -4.34164e-19)
(-0.101818 -0.188929 2.23887e-18)
(0.97566 -0.000899584 -3.73563e-18)
(0.999991 -1.50541e-05 -6.699e-22)
(0.987498 -0.000599149 5.13919e-18)
(0.942327 -0.00266095 1.84819e-17)
(0.999779 -5.30422e-05 1.22509e-18)
(0.999023 -0.00015015 -2.21979e-19)
(0.999929 4.64163e-06 -5.98937e-22)
(0.989488 -0.000454969 5.92035e-19)
(0.612314 -0.0376796 1.31196e-19)
(0.916427 0.0660184 -1.2114e-17)
(1.00336 0.00285556 -6.62429e-18)
(1.00003 3.58935e-05 4.86918e-18)
(0.99847 0.0127243 6.28688e-18)
(1.09486 0.125369 1.22577e-18)
(1.02104 -0.000348263 -1.03609e-19)
(1.00379 0.00282254 -1.36778e-17)
(1.00132 0.000180269 1.9837e-18)
(1.10651 0.047436 8.47832e-19)
(1.09877 0.1342 -5.18233e-19)
(0.999983 0.000300846 3.29798e-17)
(0.324158 0.380305 -1.17208e-17)
(1.00002 8.80517e-05 -1.21798e-17)
(1.00047 0.00668031 3.21188e-17)
(1.00068 0.0101535 2.39323e-17)
(1.02882 -0.00168612 -1.37155e-19)
(1.00024 0.00481324 2.19427e-17)
(0.999312 0.00522706 -2.59933e-17)
(0.991918 0.0317103 -4.12628e-18)
(0.994537 0.01851 1.35333e-17)
(0.948654 0.0710264 -8.64394e-19)
(1 -1.096e-06 1.73073e-18)
(1.01912 0.00219608 5.62657e-20)
(1.14855 0.04011 6.81748e-18)
(1.00396 0.000963745 -5.04998e-18)
(1.03085 0.0183456 1.0783e-17)
(1.00034 -1.91833e-06 -2.62661e-19)
(1.10054 0.115977 -3.31878e-18)
(1.01864 0.00126768 -1.07172e-21)
(1.03318 0.0161414 -1.20725e-17)
(1.00017 0.00437199 1.42887e-17)
(1.00298 0.00248479 4.04602e-18)
(0.934177 0.0489531 -1.13386e-17)
(0.971387 0.0818526 1.83597e-18)
(0.998763 0.0104138 3.93441e-17)
(1.00253 -0.000203694 3.12883e-20)
(0.962647 0.0723155 8.85164e-19)
(1.00384 0.00196683 2.36214e-20)
(1.10981 0.0405029 -6.58695e-19)
(0.999999 4.47502e-05 4.4968e-19)
(0.999941 0.00457233 1.97704e-18)
(0.869298 0.0211638 2.1562e-17)
(1.00179 7.67482e-05 -2.80384e-18)
(1.03208 0.00269172 6.71426e-18)
(1.00465 0.00224661 1.15966e-18)
(1.00285 0.000367172 2.73128e-17)
(1.00608 0.0810233 7.61468e-17)
(0.997484 0.0122729 -8.60509e-18)
(0.999947 5.29418e-05 1.99108e-18)
(1.0038 0.00185921 2.04703e-17)
(1.00255 0.00019517 5.66929e-19)
(1.05692 0.0116426 1.26914e-19)
(1.06291 0.00307152 -6.0759e-18)
(1.06068 0.00873011 -1.5866e-18)
(1.00032 7.89709e-05 3.09002e-21)
(1.03274 0.00203557 -7.69764e-19)
(1.0023 0.00049899 -2.35259e-20)
(1.03474 0.00438485 -2.41184e-18)
(1 0.000191865 -1.68684e-17)
(1.01181 0.0817135 1.37884e-17)
(1 8.89357e-05 -1.50392e-17)
(0.984008 0.00248537 2.90322e-16)
(1.02873 0.0100208 6.05326e-18)
(1.00036 6.95281e-05 -3.55032e-21)
(1.03873 0.0325289 1.57679e-21)
(0.888742 0.0389605 -1.21165e-17)
(1.00003 2.95032e-05 -1.67448e-18)
(1.0965 0.109756 1.8255e-17)
(1.00442 0.00032215 -1.99862e-18)
(0.930496 0.065369 -9.62247e-18)
(1.03618 0.00224466 4.86387e-19)
(0.99999 9.36589e-05 -6.93348e-18)
(1.02703 0.0101517 2.0455e-18)
(1.00127 5.69638e-05 -1.32694e-18)
(1.00001 -2.35709e-05 1.16471e-19)
(0.560412 1.29833 1.58715e-16)
(0.940075 0.0902406 -9.27264e-18)
(1.06056 0.00261836 8.50203e-20)
(1.00009 0.00473771 -2.64039e-17)
(0.998986 0.000490125 3.5493e-18)
(1.00728 0.0383879 4.25507e-17)
(0.999005 0.000504707 -9.30167e-19)
(1.03368 0.00324981 4.349e-19)
(1.02994 0.00897 -6.00034e-18)
(1.00008 5.38696e-05 1.36238e-18)
(1.00286 0.000344906 -1.60304e-17)
(1.00119 0.0440016 6.48378e-17)
(0.874663 0.0132639 2.51762e-17)
(1.02889 0.00851661 -4.14093e-19)
(1.0972 0.0421122 1.13783e-18)
(0.999861 4.39771e-06 -6.37596e-19)
(0.999871 8.86024e-05 1.35067e-17)
(1.02916 0.00700974 -2.92322e-19)
(0.972391 0.00315254 -1.3192e-16)
(1.00436 0.000943207 5.0979e-18)
(1.00494 0.0874857 -1.07449e-16)
(0.996311 0.000452528 -1.7179e-18)
(0.996446 0.000549781 -5.47638e-19)
(0.945323 0.0549054 -2.54743e-18)
(1.00845 0.0756452 2.84699e-17)
(0.936525 0.00994118 -1.25696e-18)
(1.00001 0.000119667 -1.05551e-18)
(0.999926 5.80785e-05 -5.24355e-18)
(1.00363 0.00229858 2.72252e-18)
(0.99139 0.0251762 2.63846e-19)
(0.806548 0.147905 1.38131e-15)
(1.00365 0.00584425 -5.57131e-19)
(1.00065 0.00911244 1.99188e-18)
(1.03264 -0.00282876 -2.5167e-19)
(1.00414 0.00547408 3.99812e-18)
(1.00015 0.00970915 1.42938e-17)
(1.02872 -0.00105844 4.08814e-20)
(1.02934 -9.62699e-06 2.17183e-18)
(1.00175 0.00020461 -6.25424e-20)
(1.03504 0.0138697 -1.232e-18)
(1.14611 0.0333735 -1.42062e-16)
(1.01456 0.0112474 7.61749e-20)
(1.00341 0.00521781 4.84329e-18)
(1.02902 0.011356 7.89219e-19)
(1.004 0.00216352 1.94703e-18)
(0.900404 0.0321732 -3.195e-18)
(1.03147 0.00246546 7.34196e-19)
(0.993829 0.0163299 3.50231e-18)
(1.02826 0.0138698 1.75614e-17)
(1.03504 0.0294545 -1.46664e-19)
(1.00002 0.000270301 2.79177e-18)
(1.03556 0.0325777 2.12474e-19)
(0.992671 0.018206 -2.93806e-17)
(1.03491 0.00312456 -1.31768e-18)
(1.00583 0.0038042 -1.86349e-17)
(1.00003 6.62348e-05 -1.44013e-18)
(1.0454 0.00455841 3.00617e-18)
(1.04676 0.000876498 1.12774e-18)
(1.2328 0.162693 -6.09054e-17)
(0.847404 0.0752949 -3.55242e-17)
(0.99993 0.000240491 1.03166e-17)
(1.00369 0.00553027 -4.30559e-18)
(0.9998 0.00920766 3.57147e-17)
(1.00407 0.0045776 4.22299e-18)
(0.984717 0.00167053 6.69169e-16)
(0.947281 0.060617 6.93823e-17)
(1.00528 0.00415255 -1.24387e-17)
(1.03243 0.00323872 1.83887e-18)
(0.252945 0.214056 4.08716e-19)
(1.00473 0.00228135 3.29642e-18)
(1.00004 0.000213342 -7.41433e-19)
(0.981758 0.00175543 4.07869e-16)
(1.01809 -0.000228039 -5.8966e-21)
(1.00428 0.0825522 2.78897e-17)
(1.00286 0.00576738 9.99579e-18)
(1.00295 0.00571542 6.49288e-18)
(1.00011 4.80685e-05 3.33695e-18)
(1.03871 0.0339466 4.75699e-20)
(0.993815 0.0237349 2.68021e-17)
(1.00091 0.0091943 6.14923e-18)
(0.995738 0.0187168 1.99428e-17)
(1.00001 0.00010004 -1.44208e-18)
(1.0306 0.0123069 -3.76715e-19)
(1.00013 0.00927533 3.12297e-17)
(0.626013 0.291366 -4.01202e-17)
(1.00015 9.79179e-05 -3.08401e-21)
(1.01908 -0.00057122 2.73346e-20)
(1.00083 0.00760846 6.30844e-18)
(0.981834 0.161109 2.60584e-17)
(1.0093 0.0426828 -6.01706e-18)
(1.08858 0.0961173 -3.18328e-17)
(0.999617 4.03346e-05 -2.43724e-16)
(1.03204 -0.00119964 -2.47198e-18)
(1.00339 0.000738325 1.31448e-18)
(1.02615 0.00334326 2.13724e-18)
(1.03944 0.00440521 -1.25946e-18)
(0.985994 0.00122034 -1.25185e-16)
(0.997169 0.000547709 8.13359e-18)
(1.00285 0.00617029 1.74369e-17)
(0.573093 0.382054 5.59792e-16)
(1.32698 0.11515 -5.82248e-17)
(0.999983 7.0487e-05 1.36e-19)
(1.00545 0.00222689 3.66098e-18)
(0.48735 0.334677 5.76435e-17)
(1.05231 -0.00543352 7.22041e-17)
(0.994393 0.0174956 2.99415e-18)
(1.00002 0.0478853 2.92289e-18)
(1.00535 0.0813015 2.05273e-17)
(1.03178 0.0143798 2.24777e-18)
(0.97217 0.0039507 -2.41825e-16)
(1.55681 0.323029 -6.62794e-17)
(1.10071 0.0377174 -6.54406e-19)
(1.00489 0.0441133 2.08313e-18)
(1.0046 0.00249132 4.48972e-18)
(1.03396 0.00371359 -1.34851e-18)
(1.02923 0.0074141 1.4038e-17)
(0.988777 0.0261166 -2.06888e-17)
(1.02903 0.00956526 1.78705e-17)
(1.00238 0.00599722 1.65086e-17)
(1.00512 0.00253586 1.53457e-17)
(1.00019 4.13364e-05 -1.91717e-20)
(1.00503 0.00278854 3.00843e-18)
(1.15021 0.0564805 -1.82122e-18)
(1.00553 0.0532066 -1.43911e-17)
(1.00051 0.000152246 -3.6831e-19)
(1 9.53812e-05 2.78875e-17)
(1.03409 0.0116573 1.93686e-18)
(1.00549 0.000526571 3.97294e-18)
(0.990783 0.000147812 3.51749e-17)
(1.02259 6.22781e-05 -3.22928e-20)
(0.99999 6.21102e-05 -4.15903e-18)
(0.994617 0.0762281 -1.12417e-17)
(1 -2.69508e-06 4.38328e-18)
(1.00001 -6.58976e-06 -6.52075e-17)
(0.999054 2.14696e-05 1.44816e-18)
(1.0304 0.00025815 -2.81377e-18)
(1.00369 0.00200067 -1.4651e-18)
(1.49145 0.343085 -9.76496e-17)
(1.00033 2.21803e-05 5.48087e-20)
(1.00037 3.14946e-05 1.02923e-18)
(1.01984 0.00143476 6.04702e-21)
(1.00354 0.000753533 3.79277e-18)
(0.950389 0.0586635 -1.76962e-16)
(0.999658 0.00946007 -5.60147e-17)
(0.998644 0.000120935 -8.50497e-17)
(1.00001 7.65214e-05 -1.16924e-17)
(1.14553 0.0458198 1.06654e-18)
(1.00612 0.0729184 -9.84427e-18)
(0.999948 0.000126532 2.36518e-18)
(1.00361 0.00518615 -8.39523e-18)
(0.99995 0.00804552 2.90869e-17)
(1.00397 0.000320865 3.72463e-19)
(1.00287 0.000298433 -1.12443e-19)
(1.0024 0.000220347 -6.20079e-21)
(1.00361 0.000654571 1.07875e-17)
(0.995226 0.000828985 1.4173e-16)
(0.845212 0.075086 -2.12638e-17)
(1.00356 0.000412088 -4.51407e-21)
(0.997373 0.000375804 8.38294e-17)
(0.984337 0.00153811 7.9712e-16)
(1.02411 0.0223974 -2.52146e-17)
(1.09513 0.0336159 -3.72782e-20)
(1.00362 -0.00042874 -9.3408e-18)
(0.989265 0.0243786 -2.14631e-17)
(0.613749 0.0976319 -3.11055e-16)
(0.999993 0.000153554 6.50477e-17)
(1.02462 0.00943084 1.89877e-19)
(1.00046 0.000170056 3.56098e-18)
(1.01384 0.011324 6.00826e-19)
(1.00039 9.13268e-05 1.76661e-20)
(1.00649 -0.000831619 1.39993e-17)
(0.824447 0.0439548 -1.7078e-16)
(1.02513 0.0124524 -6.77834e-19)
(0.840032 0.094774 -2.4775e-16)
(0.991825 0.000286498 7.54543e-17)
(1.00095 0.00737549 -1.35223e-17)
(1.02663 -0.000753107 3.68221e-19)
(1.02653 0.000709705 -3.16079e-19)
(1.00098 0.00716872 4.75082e-18)
(1.02704 0.00252993 1.43424e-19)
(1.03076 0.000544019 8.18313e-19)
(1.00074 0.000110784 1.12931e-18)
(0.999293 0.000471064 5.14761e-17)
(0.999362 0.000465363 2.01263e-17)
(0.999251 0.000450137 2.63658e-17)
(0.99932 0.000466124 -1.90502e-17)
(0.666924 0.331804 -1.7688e-17)
(1.00004 0.000151394 -1.43878e-18)
(0.94513 0.0765146 8.16888e-17)
(1.03622 0.000583381 -6.47922e-19)
(0.993981 0.02429 -3.85067e-17)
(1.02928 0.00945311 -3.50911e-18)
(1.02589 0.0128974 3.99092e-19)
(1.01936 0.00138851 4.38626e-20)
(1.01284 0.0112587 6.76811e-20)
(1.0262 0.0102482 9.44076e-19)
(1.01304 0.0120117 -6.55643e-20)
(0.992121 0.025019 -6.43602e-18)
(1.02636 0.0239594 2.69434e-17)
(1.02504 0.0289626 9.61953e-19)
(0.956168 0.0484367 2.28709e-16)
(0.981525 0.00192749 1.60676e-16)
(1.03418 0.0702504 2.39568e-20)
(0.983399 0.0018257 1.90022e-16)
(0.983559 0.000740081 3.39349e-16)
(1.02715 0.0108573 1.02032e-18)
(0.951024 0.0960355 5.78483e-19)
(1.00322 0.00261649 -2.63664e-18)
(0.999298 0.000147207 7.88582e-19)
(1.01479 0.00999274 -3.44054e-20)
(0.999241 -5.15094e-05 5.74373e-18)
(1.00294 0.00335367 -2.93029e-19)
(1.15797 0.0120563 3.19525e-17)
(0.338987 0.249401 6.40028e-17)
(1.0028 0.00263978 -5.97317e-19)
(0.999984 4.05164e-05 3.24499e-18)
(1.00031 4.01278e-05 -8.12127e-22)
(0.999981 0.000200067 -4.71751e-18)
(1.02636 0.0108333 -3.59318e-18)
(1 7.98368e-06 -9.84606e-20)
(1 -1.9329e-05 -4.8702e-19)
(1.11241 0.0494578 -4.89791e-19)
(1.03032 0.00843352 2.17597e-18)
(1.08521 0.143843 8.529e-19)
(1.00153 0.00309695 1.22188e-20)
(1.03252 0.00962859 3.38625e-19)
(1.00762 0.00068082 -2.26479e-18)
(1.00049 0.00867472 -6.11828e-18)
(1.03133 0.0213441 -2.79929e-17)
(1.01534 0.00943926 1.06571e-19)
(0.934282 0.00843523 -7.90172e-19)
(1.01477 0.00858058 4.33771e-19)
(1.0021 0.00225339 -6.00076e-18)
(1.00057 0.000125415 1.15721e-19)
(1.02991 0.0069727 -2.23931e-18)
(1.03369 0.00740321 -1.08246e-17)
(1.0056 0.000896734 -1.61452e-17)
(0.745334 0.0216715 1.52291e-16)
(1.03037 0.0229064 -1.64996e-17)
(1.03206 -0.00168765 -5.01116e-20)
(1.0012 0.0307761 5.07554e-17)
(1.0018 0.0382622 4.17419e-17)
(0.999954 0.000234474 -7.14667e-17)
(0.319319 0.474698 -2.26999e-16)
(1.03615 0.0747189 1.17798e-21)
(1.00084 0.00328018 -2.46035e-19)
(0.996978 0.174869 -1.898e-17)
(0.985985 0.000977586 -7.34298e-16)
(0.999966 0.000177597 1.80799e-17)
(1.00002 0.000191447 -8.40617e-19)
(0.999995 0.000165994 -1.10579e-17)
(1.0968 0.151538 7.55813e-19)
(0.942035 0.0947825 -9.02719e-21)
(0.991325 0.0250035 3.49647e-17)
(1.0253 0.00842478 -3.94821e-18)
(1.03535 -0.000470363 1.16579e-19)
(0.998296 0.0100223 1.57402e-17)
(0.933346 0.00755238 3.1571e-17)
(1.00082 0.0349923 -1.48358e-17)
(1.05265 0.00320683 -2.06848e-18)
(1.09554 0.0356473 -2.07249e-19)
(0.705524 0.0513325 1.91626e-17)
(0.996216 0.0222447 -9.49778e-18)
(0.961076 0.0473367 -6.24058e-17)
(1.01737 -0.00206172 8.57883e-20)
(1.02636 0.0333431 -4.27973e-18)
(1.01028 0.00918358 1.16509e-18)
(1.01569 0.010583 6.27471e-20)
(0.997795 0.000303669 9.48138e-17)
(1.01281 0.0114736 -4.68331e-19)
(1.02817 0.00977202 -9.16846e-19)
(0.999998 6.34083e-05 3.16323e-19)
(1.10018 -0.00109116 5.29844e-17)
(0.991157 0.00118973 -1.53668e-18)
(1.07093 0.00666407 1.36736e-17)
(1.0348 0.00622524 -1.00183e-18)
(0.994277 0.000638868 2.44878e-16)
(0.95594 0.0523298 -1.03977e-16)
(1.17803 0.209826 3.17902e-18)
(1.02869 0.0139674 -1.09496e-18)
(1.00818 0.0142691 7.1255e-18)
(1.02984 0.0027709 5.33383e-20)
(1.03268 0.00824075 4.22216e-18)
(1.02864 0.0288197 -4.00839e-18)
(1.00396 0.00238071 -1.11595e-17)
(1 -4.28796e-05 9.072e-18)
(0.998909 0.0643897 -2.52764e-17)
(1.00037 4.96869e-05 1.04208e-20)
(1.0535 0.00892521 -5.64208e-20)
(1.00244 0.000357757 2.97499e-18)
(0.966899 0.0042873 -1.6476e-17)
(0.96352 0.0395546 -4.42729e-17)
(1.01081 -0.00091239 -9.0881e-18)
(1.10272 0.0875034 -1.26247e-18)
(0.946683 0.0589144 -3.64942e-17)
(0.994961 0.01553 4.55893e-18)
(1.00042 0.00366384 2.71784e-18)
(0.547923 0.0708726 -8.82313e-17)
(1.00067 4.14988e-05 -4.17707e-18)
(1.00124 0.00292859 8.377e-18)
(1.04268 0.036012 -2.07884e-19)
(0.999973 0.000135229 -3.88804e-18)
(1.00135 0.00383922 1.04025e-18)
(1.00153 0.00267246 2.88094e-17)
(0.786077 0.212701 -1.68808e-16)
(0.578166 0.598097 5.40178e-16)
(0.998548 0.0112434 -2.63444e-18)
(1.00146 0.000204784 1.04936e-20)
(0.940267 0.0323266 8.99228e-17)
(0.999062 0.0400597 -8.29625e-17)
(1.02541 0.00945964 7.75963e-19)
(1.0291 0.0135323 4.00929e-19)
(1.02837 0.00857604 1.91818e-17)
(1.00094 -2.99812e-05 -2.27357e-17)
(1.00002 6.3233e-05 -3.54635e-18)
(0.999634 0.0352449 1.70318e-17)
(0.999994 0.000126039 -3.59768e-19)
(0.966711 0.0369603 -1.30388e-17)
(1.02499 0.00985674 -5.2398e-19)
(1.02459 0.0322605 -1.43429e-18)
(0.996762 0.000563913 -2.14902e-17)
(0.999524 0.0655701 -1.0499e-16)
(1.04523 0.0327277 -1.42978e-19)
(0.997575 0.000179734 -3.56156e-16)
(1.00156 0.0105886 2.33288e-18)
(1.0047 0.000886727 -2.61578e-18)
(0.928277 0.0440763 2.94908e-16)
(1.04307 0.0339093 5.00262e-19)
(0.99998 0.000241531 5.63506e-17)
(1.00426 0.0357945 5.01377e-17)
(1.02984 0.00607935 8.86755e-18)
(1.01436 -0.000506015 -3.23169e-19)
(0.998519 0.0375654 -7.52975e-17)
(1.00294 0.000449172 6.53197e-19)
(0.928151 0.0886215 4.85939e-17)
(1.02278 0.00176143 1.66691e-18)
(1.03462 0.00227792 -3.14806e-18)
(1.02598 0.0286484 2.74112e-19)
(1.0008 -0.000110411 -1.19381e-17)
(1.0018 0.0110738 7.7233e-19)
(1.05481 0.0558173 5.53052e-18)
(1.05901 0.0150854 -3.46179e-18)
(1.00005 4.58643e-05 -1.67924e-19)
(1.01068 0.0140579 -1.44813e-18)
(0.996688 0.168014 -4.62337e-17)
(1.03182 -0.00071173 1.42356e-20)
(0.559256 0.540113 1.06414e-16)
(1.00001 0.000218708 2.1798e-18)
(1.00237 0.000468797 1.04442e-17)
(1.0007 0.00011482 1.06045e-17)
(1.02937 0.0105614 2.85514e-19)
(0.996508 0.0156141 -2.14605e-17)
(0.996208 0.0121828 -2.17412e-19)
(1.00293 0.000583285 1.47465e-18)
(0.995634 0.0375008 -4.47685e-17)
(1.01652 0.0111119 3.65551e-19)
(0.973647 0.00375895 -2.52904e-17)
(1.00782 0.0001099 -3.10445e-18)
(1.08166 0.0782005 -2.8764e-17)
(1.00047 5.45355e-05 3.66736e-17)
(1.08933 0.085575 -1.96738e-17)
(1.00148 5.69605e-05 -7.12785e-19)
(0.693445 0.739967 -3.303e-17)
(1.02698 0.00174454 -2.96943e-18)
(1.05239 0.0543818 -1.04737e-17)
(0.999544 5.32858e-05 -2.41952e-16)
(0.997074 0.000725854 5.70833e-19)
(1.02449 0.0240964 1.26298e-17)
(1.00343 0.00215347 -6.24669e-18)
(0.99879 0.000138063 -1.16056e-16)
(0.992983 0.00044771 1.15456e-16)
(0.995108 0.0203364 -3.40835e-17)
(0.994166 0.0207225 2.27384e-17)
(0.974912 0.148481 -3.51835e-18)
(1.03307 0.0235324 1.02625e-17)
(1.03441 0.0268414 1.51211e-18)
(1.00001 3.1771e-05 5.8402e-19)
(1.00374 0.00203636 8.47756e-19)
(1.02519 0.0110046 -5.07985e-19)
(1.06099 0.00946317 -9.4926e-18)
(1.00002 1.22117e-05 1.58462e-17)
(1.00051 0.000126718 -3.33391e-18)
(1.02999 0.0064619 -7.3678e-18)
(1.0007 0.000149111 -8.48789e-19)
(0.830974 0.0481655 -7.4802e-17)
(1.19579 0.21272 -2.97099e-19)
(1.1127 0.00845428 -1.45774e-17)
(1.00001 3.12141e-05 -1.87239e-17)
(1.00565 0.00819835 5.20378e-19)
(1.04 0.00176848 8.64804e-19)
(0.995845 0.0131734 1.08643e-18)
(1.00376 0.000327738 4.58453e-18)
(0.127008 0.455019 2.27303e-15)
(1.00044 0.000100021 -3.68637e-18)
(0.935567 0.0717806 -1.48186e-16)
(0.963566 0.0420972 1.02158e-16)
(1.0075 0.00884825 -5.40266e-18)
(1.00361 0.000924592 1.9155e-18)
(0.998519 0.000199833 1.21949e-17)
(1.01139 -0.000491282 -1.33054e-17)
(1.03615 0.00108599 -2.47936e-19)
(1.01596 0.00740419 1.02622e-17)
(0.997376 0.0105876 3.25848e-18)
(0.999998 4.58721e-06 4.68933e-20)
(0.99991 4.44942e-05 -1.01203e-18)
(0.995423 0.0161675 -9.53156e-18)
(0.996449 0.001026 -9.24135e-18)
(0.997661 0.0534302 1.09167e-16)
(1.02982 0.0103668 -1.76805e-17)
(0.998933 9.85567e-05 4.70972e-19)
(1.00046 0.000149107 1.48143e-19)
(1.02688 0.0263269 -5.68419e-18)
(1.09098 0.00646482 6.35897e-17)
(0.998171 5.33077e-05 7.75981e-17)
(1.04573 0.00304362 -6.78986e-19)
(1.00028 6.63162e-05 -2.58892e-22)
(0.996475 0.0109843 -6.80097e-19)
(0.946364 0.0672922 -2.07341e-18)
(1.03325 -0.000173962 -5.6331e-19)
(1.03667 0.00492304 -1.68526e-18)
(0.950666 0.0559842 -2.0763e-16)
(1.00251 0.0178484 1.2238e-18)
(1.03475 0.00343175 8.55163e-19)
(0.999999 0.000199266 -6.07468e-18)
(0.999813 7.6424e-06 7.05486e-16)
(1.02795 0.00134565 1.70119e-18)
(1.01091 0.00761908 -1.31071e-18)
(1.00367 0.0174467 -4.06785e-18)
(1.01093 0.0109046 -3.53537e-18)
(0.99999 5.18173e-05 5.89606e-17)
(1.00051 0.000147427 -7.42734e-20)
(1.00287 0.000523335 -3.41267e-17)
(1.00072 0.029579 1.15668e-17)
(1.03482 0.000436682 1.28889e-18)
(0.943963 0.0419856 -2.13844e-17)
(0.990086 0.000828516 -1.3505e-17)
(0.93233 0.0337097 -6.55945e-17)
(1.03013 0.0110225 -2.11071e-18)
(1.00874 0.0154145 2.78e-18)
(0.93727 0.0460409 -9.33569e-17)
(0.990216 0.0214971 6.01848e-17)
(1.06998 0.00287863 5.71778e-18)
(1.02973 0.00999998 -2.93565e-17)
(0.985191 0.0203914 1.71423e-17)
(0.997678 0.0574045 -3.69611e-17)
(0.999718 0.000141159 1.73709e-18)
(1.01318 0.0590508 -6.89311e-18)
(1.02571 0.0233405 2.39448e-17)
(1.00002 1.87041e-05 1.03788e-18)
(1 3.46608e-05 1.56097e-16)
(1.00071 4.12833e-05 -1.33853e-17)
(0.999524 0.000363248 -6.29741e-17)
(1.06339 0.061608 2.44995e-19)
(1.01087 0.0152682 1.3904e-18)
(1.01122 0.00227817 -1.22267e-18)
(0.950971 0.0335502 -3.97629e-18)
(0.992214 0.000510429 -2.09374e-17)
(0.803681 0.0252969 6.97517e-16)
(1.03092 0.00294003 -4.96433e-20)
(1.03388 7.68828e-05 -1.28664e-18)
(1.00365 0.000250641 -2.05374e-18)
(1.04952 0.0327686 -2.58898e-18)
(1.00003 0.000134519 -7.95321e-17)
(0.995292 0.0309085 -8.47163e-18)
(1.00035 0.00331104 6.61367e-18)
(0.940602 0.10357 1.48555e-18)
(0.937982 0.0434297 -6.47662e-18)
(1.00221 0.0149543 -1.46304e-18)
(1.0158 0.0106145 -1.41827e-19)
(0.61248 0.644406 6.75878e-17)
(1.02842 0.0100075 1.56719e-18)
(1.03813 0.0523966 -1.23566e-18)
(1.0095 0.0113596 1.9059e-18)
(0.976838 0.142166 1.29752e-17)
(1.16132 0.17456 -3.82709e-18)
(1.00112 3.03988e-05 2.43713e-19)
(0.998379 0.00312007 1.65697e-17)
(0.999996 -7.09983e-06 9.74781e-18)
(1.05675 0.0584809 -1.80091e-18)
(0.998538 0.0029828 4.159e-18)
(1.01524 0.00841287 -2.91483e-18)
(1.09544 0.0931516 1.92319e-17)
(1.00035 9.33218e-05 2.01851e-18)
(0.971633 0.00310902 -1.17421e-16)
(0.995227 0.04499 2.19219e-17)
(1.00654 0.0139379 -3.7631e-17)
(0.99733 0.000339985 9.47985e-17)
(1.00236 0.0155337 2.19145e-19)
(0.99913 0.000706669 1.7958e-17)
(0.99516 0.0148495 -1.06467e-18)
(0.999103 0.000620351 1.01349e-17)
(0.999165 0.000800391 3.70112e-17)
(0.995921 0.0125207 -6.03525e-20)
(1.0317 0.00305681 -7.33504e-18)
(1.03044 0.00796023 -1.48159e-17)
(1.00714 0.0147763 8.23556e-17)
(0.638543 0.0284255 -4.8584e-17)
(1.03079 0.00146148 3.11703e-18)
(0.393557 0.349846 -3.15059e-16)
(1.02605 0.0106987 1.46472e-18)
(1.01861 -0.00275032 -1.25657e-19)
(0.995358 0.0136121 2.01234e-18)
(1.02512 0.0107093 1.13508e-19)
(0.99171 0.0250639 -1.24827e-17)
(1.03051 -0.000469329 6.00826e-21)
(0.565443 0.436522 -2.17453e-16)
(0.952276 0.0329526 -1.0048e-16)
(0.994381 0.0226147 -4.09802e-17)
(1.00439 0.0210413 1.32769e-18)
(0.994699 0.00106192 4.80725e-17)
(0.99618 0.00141794 -2.45157e-17)
(1.02439 0.0254298 -9.94579e-18)
(0.999968 4.25663e-05 -6.70644e-17)
(1.07761 0.00262326 -3.06615e-19)
(0.999253 2.57735e-05 2.26499e-18)
(0.952137 0.0352364 -6.46369e-17)
(1.0055 0.0655199 7.36243e-19)
(1.06355 0.0499436 2.03857e-18)
(1.03798 0.019426 1.36495e-17)
(1.03516 0.013911 1.50123e-18)
(0.996388 0.0500512 8.5871e-17)
(1.00935 0.0120852 2.90431e-18)
(1.03782 0.020857 -9.12962e-18)
(0.972727 0.029211 -1.37438e-17)
(1.04296 0.0562623 3.94891e-18)
(1.00834 0.0200491 1.48328e-17)
(1.04469 0.0346449 -1.32384e-19)
(1.00604 0.0212597 -1.33018e-18)
(1.00001 0.00010645 -4.62516e-19)
(0.998964 0.0235395 -2.51095e-18)
(1.08996 0.0202175 8.83312e-17)
(0.976341 0.132264 3.30997e-18)
(1.00588 0.004151 1.3161e-17)
(1.00013 4.67288e-05 8.20247e-19)
(0.998934 0.000110214 2.4268e-18)
(0.994959 0.00691142 1.06826e-18)
(0.968752 0.00274379 -2.44601e-16)
(1.0303 0.0039964 5.49078e-18)
(1.02385 -0.000268383 -1.63738e-17)
(1.00074 -0.000198161 -2.031e-18)
(1.00417 0.00584949 3.77585e-19)
(0.993363 0.0256881 -1.6127e-17)
(1.00596 0.00553763 8.80803e-18)
(1.00818 0.000360968 -2.46744e-18)
(1.04536 0.029669 2.90614e-17)
(0.993833 0.00199511 -1.46625e-16)
(0.991121 0.0349378 1.21519e-16)
(1.03373 0.01155 3.45176e-18)
(1.0055 0.00636983 4.88315e-18)
(1.00857 0.00641857 -1.11022e-17)
(0.947093 0.0535558 2.5241e-16)
(1.00001 -1.77212e-06 -2.45076e-19)
(0.993727 0.00527005 1.40229e-18)
(1.35219 0.0747791 -7.80281e-18)
(0.999695 5.28818e-05 -4.77018e-16)
(1.04004 0.0335708 -5.88266e-19)
(0.989342 0.0737889 -1.04902e-17)
(1.00565 0.00584469 -1.95411e-17)
(0.960438 0.0432636 -9.81027e-17)
(1.03411 0.0127756 -2.69097e-18)
(0.99454 0.0269587 8.6495e-18)
(1.02649 0.0283683 2.76912e-19)
(0.999623 0.00298292 -1.6553e-19)
(0.939538 0.0370159 -1.72017e-16)
(1.00494 0.000505641 1.67044e-19)
(1.03179 0.00372444 6.48922e-19)
(1.03159 0.00947523 6.66614e-19)
(0.937972 0.0417518 6.6889e-17)
(0.999821 0.0028545 -5.68787e-18)
(1.03641 -0.000376709 -1.65751e-19)
(1.05528 0.0147032 2.89522e-19)
(0.99417 0.0318128 -2.72999e-17)
(1.00568 0.0123399 -1.65326e-17)
(1.00418 0.00249395 -4.66125e-18)
(1.01746 0.0692378 -2.76772e-18)
(0.762813 0.230076 -6.75289e-17)
(0.996103 0.000916541 -6.15944e-18)
(0.999944 0.000196711 3.3406e-17)
(0.995644 0.024576 3.89212e-19)
(0.999993 0.000150831 -1.08966e-18)
(1.16521 0.17521 -1.71347e-18)
(1.00676 0.0200781 3.3502e-17)
(1.03827 0.0833976 1.21363e-19)
(1.01483 0.00600547 1.37896e-17)
(1.02396 0.00291843 8.44163e-18)
(0.238346 0.0196131 -4.15406e-15)
(1.00648 0.0139395 4.90576e-18)
(1.10222 0.176461 -5.20138e-19)
(1.03006 0.00561565 4.79074e-18)
(1.10814 -0.000287321 1.09385e-17)
(1.02581 0.00998932 1.0437e-18)
(0.997047 0.0110264 -7.55506e-19)
(1.0062 0.0131425 -2.00065e-17)
(1.01508 8.66087e-05 -8.20427e-20)
(1.0935 0.0812184 -1.16893e-18)
(1.08289 0.0729445 -1.96294e-17)
(1.00142 1.55286e-05 6.83361e-20)
(1.00134 -6.72216e-05 4.23502e-20)
(0.933458 0.0457273 1.30476e-16)
(1.00173 -0.000103584 -3.91317e-18)
(0.791627 0.33043 -3.6654e-17)
(1.02694 0.026298 1.26885e-18)
(0.969171 0.159773 -2.1838e-18)
(1.00395 0.0026391 1.43776e-17)
(0.307924 0.455744 -2.10252e-15)
(1.13733 0.202034 -6.16889e-18)
(1.00593 0.0212097 -9.85177e-18)
(1 6.7838e-05 4.89686e-19)
(0.999904 0.00259226 2.40374e-19)
(0.957721 0.029164 6.23128e-18)
(0.994728 0.00754314 -7.17142e-19)
(0.990364 0.000972412 -4.04059e-18)
(0.997415 0.00876453 4.17947e-20)
(1.02835 0.00947792 1.25592e-17)
(0.97455 0.027198 1.14444e-17)
(1.07768 -0.000392608 2.19471e-17)
(0.641552 0.057955 3.81004e-17)
(1.0006 2.40262e-05 2.31941e-17)
(0.96732 0.0355693 -8.46691e-17)
(1.03419 0.0286228 4.60038e-18)
(0.945013 0.0455011 -2.11229e-17)
(1.00449 0.0119176 -6.13617e-17)
(0.929204 0.0721224 -1.43933e-17)
(1.03221 0.00708641 -6.90228e-19)
(0.955419 0.0334096 -1.44442e-16)
(0.997199 0.000336991 -3.52171e-17)
(1.00011 1.42906e-05 -5.18927e-19)
(1.0364 0.0195914 -1.74457e-17)
(1.03927 0.0189028 6.68128e-18)
(1.02762 0.000410655 -1.11858e-17)
(0.93101 0.0392205 -3.72685e-16)
(1.03698 0.0785863 -3.5983e-21)
(1.01656 0.00133626 -3.96681e-20)
(0.998802 0.0215008 -9.52231e-18)
(1.00051 0.0033026 2.43423e-17)
(1.00974 0.00977386 5.83852e-18)
(0.769829 0.0231632 1.8308e-15)
(1.00977 0.00659938 -1.67932e-17)
(1.03359 0.017634 -7.91544e-18)
(0.984645 0.0375554 1.2103e-18)
(1.02446 0.00737773 -2.62879e-18)
(1.01054 -0.000213046 -1.23485e-17)
(0.996849 0.0102736 5.51338e-19)
(1.05124 0.0136582 1.66318e-19)
(1.0141 0.00581164 -4.74689e-18)
(1.00536 0.011711 3.01185e-18)
(1.07296 0.00439124 -6.53727e-19)
(0.990259 0.0294737 -8.22504e-18)
(1.0186 0.00120814 1.69733e-19)
(0.749709 0.405008 4.35614e-17)
(0.999998 -1.51172e-05 1.43694e-19)
(1.01459 0.00664616 -2.25025e-17)
(0.999616 0.0204464 3.70514e-17)
(0.992999 0.00645815 1.88556e-19)
(1.00243 0.000144813 7.8196e-18)
(0.999445 0.0250844 -3.92644e-17)
(1.00001 1.91005e-05 7.3067e-19)
(1.04747 0.0998425 3.38117e-17)
(1.00543 0.00073386 -1.14135e-17)
(0.974117 0.00444758 -1.21273e-17)
(1.03466 0.0310899 6.30582e-18)
(0.957605 0.0421738 1.4751e-17)
(1.01538 0.00847623 -2.34974e-18)
(1.01508 0.00702485 2.08071e-17)
(1.0352 0.0189129 1.03829e-17)
(1.19688 0.0079293 1.05677e-17)
(0.999675 0.000128016 1.30745e-18)
(0.992959 0.00151022 5.03955e-16)
(1.02079 0.00135724 3.075e-19)
(1.11337 0.184732 1.59976e-18)
(1.03898 0.0201358 1.96364e-17)
(0.999824 0.00280847 2.13587e-18)
(0.250452 0.161136 -5.13426e-15)
(1.0001 4.39926e-05 -1.7665e-17)
(1.00397 0.00163861 -4.42565e-18)
(1.14603 0.00383305 -1.66705e-16)
(0.994888 0.00488915 -1.92034e-19)
(0.999624 0.00300946 -1.11292e-18)
(0.999593 0.00324142 1.59989e-18)
(0.984365 0.0378445 9.41587e-18)
(0.962202 0.0264336 1.2442e-16)
(0.999713 5.33769e-05 6.03407e-17)
(0.993944 0.0061539 -9.09332e-20)
(0.939471 0.0673017 1.19045e-16)
(0.995716 0.0219376 -1.02193e-16)
(0.996922 0.016371 -3.56417e-17)
(0.997072 0.00853991 -1.40195e-18)
(1.00107 7.1839e-05 -2.54204e-19)
(0.960027 0.030269 1.83643e-16)
(1.06458 0.0506158 6.18571e-19)
(0.995551 0.0142365 -1.52695e-18)
(0.933917 0.0327609 2.23485e-16)
(1.02959 0.00466851 1.33347e-18)
(1.02819 0.00566885 7.03082e-20)
(1.04149 0.0934551 -1.85954e-17)
(1.03032 0.0280117 -8.74389e-18)
(0.996825 0.00909508 -5.66425e-19)
(1.00477 0.00197627 -1.47486e-17)
(1.08668 0.0921393 5.46464e-17)
(1.03276 0.00335555 -1.90664e-18)
(0.977395 0.024106 6.5512e-18)
(1.00085 0.00357956 -2.79306e-18)
(0.999476 0.000332043 -1.07196e-16)
(0.932604 0.010818 -9.73276e-16)
(1.04938 0.0350978 1.18902e-18)
(1.01338 0.00562623 -1.63073e-17)
(1.0136 0.0451804 6.15141e-18)
(1.01399 0.00633984 2.39751e-17)
(0.99712 0.00926641 -5.8439e-19)
(1.00536 0.00368323 2.4979e-19)
(0.967868 0.0310161 7.01139e-18)
(1.13816 -0.0466066 -8.24323e-17)
(0.475493 0.523112 4.06668e-16)
(0.969643 0.0336624 6.54552e-17)
(0.998651 0.0165693 6.49645e-18)
(1.00493 0.00481005 1.62012e-18)
(0.971987 0.0302946 1.98539e-17)
(0.43835 0.289739 4.63864e-16)
(0.940188 0.0294998 -3.48569e-16)
(0.999889 0.00265255 -7.07256e-19)
(1.04743 0.0262073 5.0894e-18)
(1.06115 0.0608522 7.48446e-20)
(1.2785 0.206532 -5.78228e-18)