/*--------------------------------*- C++ -*----------------------------------*\
  =========                 |
  \\      /  F ield         | OpenFOAM: The Open Source CFD Toolbox
   \\    /   O peration     | Website:  https://openfoam.org
    \\  /    A nd           | Version:  7
     \\/     M anipulation  |
\*---------------------------------------------------------------------------*/
FoamFile
{
    version     2.0;
    format      ascii;
    class       volScalarField;
    location    "112";
    object      p;
}
// * * * * * * * * * * * * * * * * * * * * * * * * * * * * * * * * * * * * * //

dimensions      [0 2 -2 0 0 0 0];

internalField   nonuniform List<scalar> 
41600
(
-0.403875
-0.414875
-0.422577
-0.415001
-0.421147
-0.438468
-0.448456
-0.426704
-0.374115
-0.308154
-0.247045
-0.200711
-0.171367
-0.158704
-0.161516
-0.171653
-0.176515
-0.167924
-0.147517
-0.125461
-0.108126
-0.0978345
-0.0952528
-0.101976
-0.110849
-0.398093
-0.406935
-0.413771
-0.409435
-0.423011
-0.448804
-0.464645
-0.443968
-0.388626
-0.31821
-0.25247
-0.201856
-0.168509
-0.151831
-0.150242
-0.15676
-0.160726
-0.15425
-0.137791
-0.119819
-0.106107
-0.0987598
-0.0993206
-0.109654
-0.121161
-0.392576
-0.39925
-0.405238
-0.403918
-0.424544
-0.458343
-0.479516
-0.459575
-0.401365
-0.326642
-0.256573
-0.202016
-0.164948
-0.144573
-0.138916
-0.14191
-0.144652
-0.139784
-0.127023
-0.113063
-0.102944
-0.0985661
-0.102354
-0.116333
-0.130346
-0.387329
-0.391829
-0.396987
-0.398441
-0.425687
-0.466952
-0.492895
-0.473358
-0.412225
-0.333427
-0.259402
-0.201298
-0.160848
-0.137108
-0.127732
-0.127372
-0.128642
-0.124895
-0.115496
-0.105328
-0.0986327
-0.0971372
-0.104118
-0.121591
-0.137852
-0.382337
-0.384673
-0.389018
-0.392985
-0.426376
-0.474505
-0.504627
-0.485176
-0.421135
-0.338571
-0.261022
-0.19981
-0.156367
-0.1296
-0.116862
-0.11338
-0.113025
-0.109956
-0.103505
-0.09677
-0.0931957
-0.0943875
-0.104431
-0.125081
-0.14322
-0.377597
-0.377782
-0.381326
-0.387531
-0.426543
-0.480876
-0.514582
-0.49492
-0.428053
-0.342102
-0.261513
-0.197658
-0.151647
-0.1222
-0.106453
-0.100125
-0.098091
-0.0952754
-0.0913303
-0.08756
-0.086687
-0.0902659
-0.103168
-0.126557
-0.146126
-0.373097
-0.371151
-0.373899
-0.382054
-0.426133
-0.485966
-0.52266
-0.502516
-0.432972
-0.344076
-0.260969
-0.194948
-0.146813
-0.115038
-0.0966261
-0.0877501
-0.0840731
-0.0812419
-0.0792161
-0.0778663
-0.0791841
-0.0847554
-0.100251
-0.125865
-0.146368
-0.368824
-0.364771
-0.36672
-0.376533
-0.425111
-0.489688
-0.528793
-0.507927
-0.435918
-0.344566
-0.259488
-0.191785
-0.141968
-0.108225
-0.0874793
-0.0763486
-0.0711152
-0.0680261
-0.0673451
-0.067839
-0.0707797
-0.0778709
-0.0956258
-0.122917
-0.143852
-0.364768
-0.358631
-0.35977
-0.370941
-0.423446
-0.491982
-0.532945
-0.511157
-0.436948
-0.343667
-0.257176
-0.188267
-0.137193
-0.101849
-0.0790874
-0.0659697
-0.0592764
-0.0557494
-0.0558337
-0.0575976
-0.0615729
-0.069662
-0.0892631
-0.117701
-0.138607
-0.360914
-0.352719
-0.353029
-0.365254
-0.421112
-0.492819
-0.535116
-0.512243
-0.436149
-0.341487
-0.254141
-0.18449
-0.132556
-0.0959716
-0.0715024
-0.0566289
-0.04855
-0.0444425
-0.0447394
-0.0472266
-0.0516646
-0.0602307
-0.0812054
-0.110334
-0.130817
-0.357251
-0.347023
-0.346471
-0.359457
-0.418092
-0.492198
-0.535341
-0.511263
-0.433633
-0.338147
-0.250489
-0.18054
-0.128108
-0.0906276
-0.0647535
-0.0483206
-0.0388941
-0.0340687
-0.0340806
-0.036781
-0.0411618
-0.0497644
-0.0716422
-0.101114
-0.120844
-0.353767
-0.341527
-0.340074
-0.353537
-0.414385
-0.490146
-0.53369
-0.508323
-0.429534
-0.333776
-0.246323
-0.176492
-0.123891
-0.0858274
-0.0588468
-0.0410295
-0.0302639
-0.0245622
-0.0238604
-0.0262986
-0.0301916
-0.038564
-0.0609599
-0.0905229
-0.109212
-0.350449
-0.336218
-0.333817
-0.347484
-0.410006
-0.486719
-0.530262
-0.503558
-0.424001
-0.328509
-0.241744
-0.172413
-0.119937
-0.081564
-0.0537665
-0.0347377
-0.0226342
-0.0158673
-0.0140837
-0.0158204
-0.0189256
-0.0270508
-0.0497292
-0.0790576
-0.0965404
-0.347288
-0.331082
-0.32768
-0.341301
-0.404981
-0.482002
-0.525183
-0.497126
-0.417197
-0.32248
-0.236844
-0.168355
-0.11627
-0.0778199
-0.0494764
-0.0294259
-0.0160099
-0.00797746
-0.00478626
-0.00542895
-0.00762633
-0.015766
-0.0386462
-0.0675031
-0.0834769
-0.344274
-0.326108
-0.321641
-0.334994
-0.399351
-0.476104
-0.518602
-0.489197
-0.40929
-0.315824
-0.23171
-0.164363
-0.112903
-0.0745735
-0.0459244
-0.0250686
-0.0104242
-0.000973195
0.00390183
0.00489965
0.00327818
-0.00536015
-0.0283879
-0.0562542
-0.070609
-0.341401
-0.321283
-0.315689
-0.328575
-0.393166
-0.469158
-0.510681
-0.479957
-0.400454
-0.308668
-0.22642
-0.16047
-0.109839
-0.0718015
-0.043049
-0.0216235
-0.00591768
0.00496738
0.0116489
0.0142078
0.0130999
0.00347615
-0.0194298
-0.0456458
-0.0584254
-0.338659
-0.316603
-0.309812
-0.322067
-0.386486
-0.461316
-0.501588
-0.469592
-0.390857
-0.301134
-0.221042
-0.156705
-0.107072
-0.0694776
-0.040788
-0.0190251
-0.00250233
0.00963237
0.0179931
0.0219478
0.0210165
0.0102268
-0.0120208
-0.0358863
-0.0473039
-0.336044
-0.312058
-0.304005
-0.315496
-0.37938
-0.452745
-0.491491
-0.45829
-0.380664
-0.293334
-0.215636
-0.153084
-0.10459
-0.0675712
-0.0390828
-0.0171891
-0.00013228
0.0128933
0.0225182
0.0273943
0.0264069
0.0148076
-0.00601934
-0.0271467
-0.0375208
-0.333554
-0.307644
-0.298268
-0.308899
-0.371922
-0.44362
-0.480552
-0.446235
-0.370033
-0.28537
-0.210254
-0.14962
-0.102376
-0.0660467
-0.0378787
-0.0160258
0.00129266
0.0147806
0.0250915
0.0303076
0.0292183
0.0175538
-0.0012411
-0.0196284
-0.0292452
-0.331186
-0.303359
-0.292608
-0.302314
-0.364196
-0.434118
-0.468923
-0.433604
-0.359108
-0.277333
-0.204936
-0.14632
-0.100411
-0.0648652
-0.0371217
-0.01545
0.00189769
0.0154612
0.0259168
0.0310359
0.029923
0.018927
0.00240668
-0.0135037
-0.0225202
-0.328942
-0.299202
-0.287038
-0.295786
-0.356289
-0.424403
-0.456746
-0.420561
-0.348023
-0.269302
-0.199718
-0.143186
-0.098673
-0.0639868
-0.0367571
-0.0153813
0.00180969
0.0151685
0.0253971
0.0302151
0.0291688
0.0192808
0.00497042
-0.00879072
-0.0172491
-0.326822
-0.295174
-0.281579
-0.289361
-0.348301
-0.414614
-0.44415
-0.407262
-0.336897
-0.261345
-0.194624
-0.140213
-0.09714
-0.0633715
-0.0367293
-0.015742
0.00115125
0.0141396
0.0239506
0.0284267
0.0275044
0.0188647
0.0065688
-0.00532031
-0.0131558
-0.324832
-0.29128
-0.276261
-0.283082
-0.340342
-0.404855
-0.431257
-0.393848
-0.325832
-0.253517
-0.189675
-0.137398
-0.0957885
-0.0629808
-0.0369844
-0.0164564
3.96466e-05
0.0125805
0.0219057
0.0260737
0.0253155
0.0178955
0.00739573
-0.002841
-0.0099375
-0.322976
-0.287523
-0.271123
-0.276989
-0.332539
-0.395187
-0.418182
-0.380446
-0.314918
-0.245863
-0.184885
-0.134732
-0.0945954
-0.0627778
-0.0374709
-0.017453
-0.00141737
0.0106534
0.0194902
0.0234092
0.0228528
0.0165598
0.00764819
-0.00112425
-0.00744617
-0.321264
-0.283913
-0.266208
-0.271115
-0.325025
-0.38563
-0.405035
-0.367169
-0.304228
-0.238419
-0.180261
-0.132205
-0.0935386
-0.0627282
-0.0381411
-0.0186666
-0.00312602
0.00848124
0.0168591
0.0205928
0.0202714
0.0149982
0.00748463
9.20941e-06
-0.00556292
-0.319706
-0.28046
-0.261565
-0.265492
-0.317935
-0.37617
-0.391919
-0.354115
-0.293822
-0.23121
-0.175807
-0.129807
-0.0925966
-0.0628002
-0.0389513
-0.0200394
-0.00500761
0.00615784
0.014121
0.0177289
0.0176671
0.0133099
0.00702412
0.000695128
-0.0041774
-0.318316
-0.277182
-0.257242
-0.260151
-0.31138
-0.366783
-0.378928
-0.341367
-0.283744
-0.224254
-0.171525
-0.127528
-0.0917496
-0.0629649
-0.0398628
-0.0215213
-0.00699737
0.00375545
0.0113533
0.0148883
0.0151004
0.011564
0.00635531
0.00103674
-0.00319433
-0.317108
-0.274102
-0.25328
-0.255135
-0.305431
-0.357448
-0.366148
-0.328991
-0.27403
-0.217562
-0.167412
-0.125356
-0.090979
-0.0631966
-0.0408414
-0.0230695
-0.00904256
0.00132981
0.00861168
0.0121181
0.012609
0.00980765
0.00554419
0.00111421
-0.00253425
-0.316105
-0.271251
-0.249706
-0.250503
-0.300094
-0.348165
-0.353655
-0.31704
-0.2647
-0.211139
-0.163464
-0.12328
-0.0902677
-0.0634723
-0.0418572
-0.0246482
-0.0111007
-0.00107637
0.00593532
0.00944942
0.010216
0.00807317
0.00463998
0.000990323
-0.00213078
-0.315327
-0.268668
-0.246531
-0.246334
-0.295312
-0.338951
-0.341511
-0.305553
-0.255768
-0.204985
-0.159674
-0.121289
-0.0896011
-0.063772
-0.0428851
-0.0262275
-0.0131379
-0.00343083
0.00335174
0.00690164
0.00793444
0.00638249
0.00367934
0.0007142
-0.00192757
-0.314777
-0.266411
-0.24375
-0.242719
-0.290972
-0.329841
-0.329768
-0.294555
-0.24724
-0.199098
-0.156036
-0.119374
-0.0889657
-0.0640789
-0.0439035
-0.027783
-0.0151276
-0.00570963
0.000879724
0.00448601
0.00577142
0.00475041
0.00268952
0.000324794
-0.00187942
-0.314506
-0.264501
-0.241351
-0.239745
-0.286944
-0.320877
-0.318464
-0.284059
-0.239113
-0.193469
-0.152542
-0.117525
-0.0883498
-0.0643781
-0.044895
-0.0292951
-0.0170494
-0.00789545
-0.00146836
0.00220799
0.00372977
0.00318681
0.00169082
-0.000146715
-0.00195109
-0.314537
-0.26297
-0.239327
-0.237464
-0.283107
-0.312103
-0.307627
-0.274068
-0.231381
-0.188091
-0.149182
-0.115733
-0.0877432
-0.0646575
-0.0458451
-0.030748
-0.0188877
-0.00997614
-0.00368488
6.906e-05
0.00180976
0.00169806
0.000698468
-0.000675417
-0.00211421
-0.314896
-0.261832
-0.237683
-0.235877
-0.279371
-0.303558
-0.297273
-0.26458
-0.224032
-0.182953
-0.145949
-0.113991
-0.0871373
-0.0649068
-0.0467422
-0.0321295
-0.0206312
-0.0119436
-0.00576579
-0.00193213
1.01303e-05
0.000287972
-0.000276468
-0.00124097
-0.00234461
-0.315608
-0.261069
-0.236444
-0.234921
-0.275683
-0.295273
-0.287411
-0.255582
-0.217052
-0.178044
-0.142835
-0.112291
-0.0865248
-0.0651177
-0.0475774
-0.0334302
-0.0222721
-0.0137926
-0.0077097
-0.00379877
-0.00167115
-0.00104181
-0.00122657
-0.00182632
-0.00262073
-0.316692
-0.260642
-0.235649
-0.23448
-0.272019
-0.287271
-0.278038
-0.24706
-0.210425
-0.173351
-0.13983
-0.110626
-0.0858994
-0.0652836
-0.0483436
-0.0346431
-0.0238054
-0.0155205
-0.00951736
-0.00553509
-0.00323633
-0.00229167
-0.00214693
-0.00241775
-0.00292791
-0.318158
-0.260492
-0.235339
-0.234406
-0.268372
-0.279568
-0.269147
-0.238993
-0.204132
-0.168862
-0.136926
-0.108991
-0.0852561
-0.0653993
-0.049036
-0.0357635
-0.0252281
-0.0171261
-0.0111912
-0.00714565
-0.00468791
-0.00346371
-0.00303263
-0.00300562
-0.00326447
-0.320003
-0.260556
-0.235546
-0.234552
-0.264746
-0.272171
-0.260724
-0.23136
-0.198155
-0.164563
-0.134116
-0.107381
-0.0845907
-0.065461
-0.0496509
-0.0367883
-0.0265393
-0.0186096
-0.0127349
-0.00863489
-0.0060291
-0.00456069
-0.00387619
-0.0035852
-0.00363569
-0.322198
-0.260783
-0.23627
-0.2348
-0.261146
-0.265082
-0.25275
-0.224137
-0.192475
-0.160444
-0.131392
-0.10579
-0.0838999
-0.0654657
-0.0501861
-0.0377158
-0.0277389
-0.0199726
-0.0141529
-0.010007
-0.0072643
-0.00558471
-0.00466853
-0.00415435
-0.00402643
-0.324694
-0.261139
-0.23747
-0.235061
-0.257579
-0.258297
-0.245205
-0.217299
-0.187072
-0.15649
-0.128748
-0.104215
-0.0831811
-0.0654119
-0.0506405
-0.0385457
-0.0288284
-0.0212174
-0.01545
-0.011266
-0.00839889
-0.00653652
-0.00540481
-0.00470341
-0.00437668
-0.327409
-0.26162
-0.239059
-0.235283
-0.254049
-0.251809
-0.238065
-0.210822
-0.181928
-0.152691
-0.126176
-0.102653
-0.0824323
-0.0652981
-0.0510137
-0.0392784
-0.0298093
-0.0223469
-0.0166311
-0.0124161
-0.0094383
-0.00741646
-0.00608817
-0.00520928
-0.00462513
-0.330236
-0.262252
-0.240915
-0.235434
-0.250559
-0.245608
-0.231307
-0.204681
-0.177024
-0.149036
-0.12367
-0.101098
-0.0816518
-0.0651238
-0.0513058
-0.039915
-0.0306841
-0.0233644
-0.0177008
-0.0134618
-0.0103873
-0.00822577
-0.0067238
-0.00566685
-0.00483986
-0.333073
-0.26307
-0.242892
-0.235496
-0.247112
-0.239679
-0.224905
-0.198851
-0.172342
-0.145512
-0.121223
-0.0995498
-0.0808385
-0.064889
-0.0515178
-0.0404573
-0.0314557
-0.024274
-0.0186639
-0.0144075
-0.0112501
-0.00896655
-0.0073108
-0.00609624
-0.00508207
-0.335804
-0.264136
-0.244848
-0.235455
-0.243708
-0.234008
-0.218834
-0.19331
-0.167865
-0.14211
-0.118832
-0.0980045
-0.0799917
-0.0645943
-0.0516511
-0.0409078
-0.032127
-0.0250794
-0.0195249
-0.0152578
-0.0120306
-0.00964062
-0.00785248
-0.0064969
-0.00533555
-0.338323
-0.265529
-0.246665
-0.235303
-0.240349
-0.22858
-0.213071
-0.188035
-0.163578
-0.13882
-0.116489
-0.0964602
-0.079111
-0.0642404
-0.0517073
-0.0412688
-0.0327015
-0.0257849
-0.0202882
-0.0160169
-0.012732
-0.0102507
-0.00834802
-0.00687085
-0.00559442
-0.340546
-0.267328
-0.248251
-0.23503
-0.237035
-0.223376
-0.207592
-0.183003
-0.159464
-0.135632
-0.114191
-0.0949148
-0.0781963
-0.0638283
-0.0516883
-0.0415431
-0.0331827
-0.0263945
-0.0209582
-0.0166891
-0.0133578
-0.0107989
-0.00879859
-0.00721566
-0.0058482
-0.342409
-0.26961
-0.249559
-0.234628
-0.233766
-0.218382
-0.202372
-0.178197
-0.155511
-0.132538
-0.111932
-0.0933666
-0.0772474
-0.0633592
-0.0515964
-0.0417336
-0.0335739
-0.0269123
-0.0215389
-0.0172784
-0.013911
-0.0112875
-0.00920363
-0.00753105
-0.0060891
-0.343874
-0.27243
-0.250577
-0.234087
-0.230541
-0.21358
-0.197392
-0.173595
-0.151703
-0.12953
-0.109709
-0.0918139
-0.0762647
-0.0628346
-0.0514338
-0.0418434
-0.0338788
-0.0273421
-0.0220343
-0.0177884
-0.0143947
-0.0117182
-0.00956399
-0.00781509
-0.00631188
-0.344919
-0.275812
-0.251321
-0.233403
-0.22736
-0.208954
-0.192629
-0.16918
-0.148028
-0.1266
-0.107517
-0.0902554
-0.0752484
-0.0622559
-0.0512028
-0.0418753
-0.0341008
-0.0276878
-0.0224483
-0.0182226
-0.0148116
-0.0120932
-0.00987976
-0.00806731
-0.00651241
-0.345537
-0.279737
-0.251822
-0.232569
-0.224222
-0.204489
-0.188064
-0.164936
-0.144474
-0.123741
-0.105352
-0.0886896
-0.0741988
-0.0616246
-0.0509057
-0.0418325
-0.0342434
-0.0279531
-0.0227846
-0.0185845
-0.0151646
-0.012414
-0.0101518
-0.00828667
-0.00668825
-0.345728
-0.284138
-0.25212
-0.231579
-0.221125
-0.200171
-0.183679
-0.160847
-0.141031
-0.120945
-0.103212
-0.0871154
-0.0731164
-0.0609423
-0.050545
-0.0417178
-0.0343098
-0.0281416
-0.0230465
-0.0188772
-0.0154562
-0.0126823
-0.0103806
-0.00847292
-0.00683778
-0.345499
-0.2889
-0.252254
-0.230428
-0.218065
-0.195984
-0.179456
-0.156898
-0.137687
-0.118206
-0.101092
-0.0855318
-0.0720017
-0.0602106
-0.050123
-0.0415343
-0.0343035
-0.0282567
-0.0232375
-0.0191037
-0.0156887
-0.0128996
-0.0105672
-0.00862574
-0.00695993
-0.344861
-0.293861
-0.252259
-0.229111
-0.21504
-0.191915
-0.175379
-0.153075
-0.134433
-0.115519
-0.0989899
-0.0839377
-0.0708552
-0.059431
-0.049642
-0.0412846
-0.0342274
-0.0283017
-0.0233606
-0.0192669
-0.0158646
-0.0130677
-0.0107123
-0.00874517
-0.00705421
-0.343833
-0.298824
-0.25216
-0.227626
-0.212044
-0.187952
-0.171433
-0.149366
-0.131259
-0.112878
-0.0969023
-0.0823322
-0.0696773
-0.058605
-0.0491044
-0.0409716
-0.0340847
-0.0282797
-0.0234189
-0.0193694
-0.0159859
-0.0131878
-0.0108167
-0.00883136
-0.00712025
-0.342444
-0.303575
-0.251975
-0.225969
-0.209072
-0.184083
-0.167604
-0.14576
-0.128158
-0.110277
-0.0948266
-0.0807146
-0.0684687
-0.0577343
-0.0485122
-0.0405979
-0.0338782
-0.0281937
-0.0234152
-0.0194139
-0.0160549
-0.0132616
-0.0108816
-0.00888456
-0.00715801
-0.340735
-0.307895
-0.251713
-0.22414
-0.20612
-0.180297
-0.163879
-0.142244
-0.125122
-0.107711
-0.0927602
-0.079084
-0.0672299
-0.0568202
-0.0478676
-0.040166
-0.0336108
-0.0280466
-0.0233521
-0.0194028
-0.0160734
-0.0132905
-0.0109077
-0.00890517
-0.00716745
-0.338766
-0.311586
-0.251377
-0.22214
-0.203181
-0.176583
-0.160244
-0.13881
-0.122143
-0.105177
-0.0907007
-0.0774397
-0.0659614
-0.0558643
-0.0471726
-0.0396783
-0.033285
-0.0278409
-0.0232323
-0.0193385
-0.0160433
-0.0132759
-0.0108961
-0.00889362
-0.00714878
-0.336616
-0.314484
-0.250964
-0.21997
-0.200249
-0.172931
-0.156691
-0.135448
-0.119214
-0.10267
-0.0886458
-0.0757812
-0.0646637
-0.0548677
-0.0464292
-0.0391373
-0.0329035
-0.0275793
-0.0230583
-0.019223
-0.0159665
-0.0132193
-0.0108479
-0.00885042
-0.00710215
-0.33438
-0.316476
-0.250466
-0.217635
-0.197319
-0.169333
-0.153207
-0.132149
-0.116328
-0.100185
-0.0865934
-0.0741077
-0.0633374
-0.0538319
-0.0456393
-0.0385451
-0.0324685
-0.0272643
-0.0228322
-0.0190587
-0.0158447
-0.0131219
-0.0107639
-0.00877611
-0.00702789
-0.33217
-0.317508
-0.249879
-0.215143
-0.194385
-0.16578
-0.149783
-0.128905
-0.113481
-0.0977186
-0.0845415
-0.0724187
-0.0619828
-0.0527582
-0.0448047
-0.0379038
-0.0319826
-0.0268981
-0.0225564
-0.0188473
-0.0156796
-0.0129851
-0.0106452
-0.00867127
-0.00692631
-0.330104
-0.317586
-0.249193
-0.212501
-0.191442
-0.162265
-0.146411
-0.125708
-0.110667
-0.095268
-0.0824882
-0.0707138
-0.0606005
-0.0516476
-0.043927
-0.0372155
-0.0314477
-0.0264829
-0.0222329
-0.0185909
-0.0154727
-0.0128102
-0.0104928
-0.00853652
-0.00679784
-0.328303
-0.316768
-0.248405
-0.209719
-0.188484
-0.15878
-0.143082
-0.122553
-0.10788
-0.0928296
-0.0804318
-0.0689923
-0.059191
-0.0505015
-0.0430079
-0.0364821
-0.030866
-0.0260209
-0.0218638
-0.0182913
-0.0152256
-0.0125985
-0.0103077
-0.00837247
-0.00664289
-0.32688
-0.315146
-0.247509
-0.206805
-0.185507
-0.155318
-0.139788
-0.119432
-0.105115
-0.0904003
-0.0783706
-0.067254
-0.0577546
-0.0493208
-0.042049
-0.0357054
-0.0302396
-0.0255139
-0.0214509
-0.0179502
-0.0149398
-0.0123513
-0.0100908
-0.00817977
-0.00646197
-0.325934
-0.31284
-0.246505
-0.203772
-0.182507
-0.151874
-0.136524
-0.116339
-0.102369
-0.0879774
-0.0763032
-0.0654983
-0.0562918
-0.0481066
-0.0410517
-0.0348873
-0.0295702
-0.024964
-0.0209962
-0.0175694
-0.0146168
-0.0120698
-0.00984323
-0.00795909
-0.00625558
-0.325546
-0.309985
-0.245391
-0.200628
-0.17948
-0.148442
-0.133281
-0.11327
-0.0996365
-0.085558
-0.074228
-0.063725
-0.054803
-0.04686
-0.0400174
-0.0340293
-0.0288598
-0.0243729
-0.0205013
-0.0171503
-0.0142578
-0.0117551
-0.00956584
-0.00771108
-0.00602429
-0.325772
-0.306706
-0.244168
-0.197383
-0.176422
-0.145017
-0.130055
-0.110219
-0.0969147
-0.0831399
-0.0721439
-0.0619336
-0.0532886
-0.0455819
-0.0389475
-0.033133
-0.0281099
-0.0237424
-0.0199679
-0.0166946
-0.0138644
-0.0114086
-0.0092596
-0.00743646
-0.00576869
-0.326644
-0.30312
-0.242837
-0.194047
-0.173329
-0.141593
-0.12684
-0.107181
-0.0941996
-0.0807208
-0.0700496
-0.0601239
-0.0517489
-0.0442733
-0.0378433
-0.0322001
-0.0273222
-0.0230741
-0.0193976
-0.0162037
-0.0134377
-0.0110313
-0.00892545
-0.0071359
-0.0054894
-0.328173
-0.299324
-0.241399
-0.190626
-0.1702
-0.138167
-0.12363
-0.104153
-0.0914881
-0.0782985
-0.0679439
-0.0582956
-0.0501845
-0.0429349
-0.036706
-0.0312319
-0.0264983
-0.0223696
-0.0187921
-0.015679
-0.012979
-0.0106244
-0.00856432
-0.00681012
-0.00518709
-0.330349
-0.295395
-0.239854
-0.187127
-0.167029
-0.134734
-0.120421
-0.10113
-0.0887771
-0.075871
-0.0658259
-0.0564485
-0.0485957
-0.0415678
-0.0355368
-0.0302298
-0.0256398
-0.0216305
-0.0181527
-0.0151219
-0.0124896
-0.0101891
-0.00817711
-0.00645985
-0.00486242
-0.333145
-0.29139
-0.238202
-0.183556
-0.163815
-0.13129
-0.117209
-0.0981082
-0.0860638
-0.0734367
-0.0636946
-0.0545825
-0.0469827
-0.0401726
-0.0343368
-0.0291951
-0.0247479
-0.0208581
-0.0174809
-0.0145338
-0.0119708
-0.00972629
-0.00776473
-0.0060858
-0.00451608
-0.336519
-0.287351
-0.236442
-0.179917
-0.160553
-0.127831
-0.11399
-0.0950848
-0.0833457
-0.0709939
-0.0615491
-0.0526973
-0.0453462
-0.0387503
-0.0331071
-0.0281293
-0.0238242
-0.0200539
-0.0167781
-0.0139158
-0.0114236
-0.00923721
-0.00732805
-0.00568869
-0.00414879
-0.340419
-0.283303
-0.234571
-0.176213
-0.157242
-0.124354
-0.110759
-0.0920565
-0.0806203
-0.068541
-0.0593886
-0.050793
-0.0436863
-0.0373016
-0.0318488
-0.0270334
-0.0228699
-0.0192192
-0.0160455
-0.0132693
-0.0108492
-0.00872288
-0.00686795
-0.00526926
-0.00376124
-0.344783
-0.279262
-0.232587
-0.172445
-0.153878
-0.120856
-0.107513
-0.0890203
-0.0778856
-0.0660766
-0.0572126
-0.0488693
-0.0420036
-0.0358272
-0.0305629
-0.0259087
-0.0218863
-0.0183554
-0.0152846
-0.0125955
-0.0102488
-0.00818433
-0.00638532
-0.00482828
-0.00335419
-0.349542
-0.275233
-0.230484
-0.168614
-0.150458
-0.117332
-0.10425
-0.0859737
-0.0751394
-0.0635996
-0.0550203
-0.0469262
-0.0402984
-0.0343279
-0.0292504
-0.0247563
-0.0208747
-0.0174637
-0.0144964
-0.0118955
-0.00962349
-0.00762259
-0.00588101
-0.0043666
-0.00292848
-0.354623
-0.271214
-0.228257
-0.164721
-0.146979
-0.113781
-0.100966
-0.0829142
-0.0723801
-0.0611089
-0.0528113
-0.0449639
-0.0385711
-0.0328044
-0.0279123
-0.0235774
-0.0198362
-0.0165453
-0.0136823
-0.0111705
-0.00897432
-0.00703864
-0.00535591
-0.00388509
-0.00248504
-0.359948
-0.267197
-0.225901
-0.160763
-0.143439
-0.110199
-0.0976584
-0.0798395
-0.0696059
-0.0586032
-0.0505851
-0.0429823
-0.0368222
-0.0312575
-0.0265495
-0.022373
-0.018772
-0.0156014
-0.0128433
-0.0104215
-0.00830232
-0.00643343
-0.00481083
-0.00338463
-0.00202485
-0.365441
-0.263174
-0.223408
-0.156741
-0.139833
-0.106583
-0.094324
-0.0767473
-0.0668152
-0.0560816
-0.0483413
-0.0409814
-0.0350521
-0.0296878
-0.0251631
-0.0211442
-0.0176832
-0.0146332
-0.0119807
-0.00964968
-0.00760855
-0.00580794
-0.0042466
-0.00286591
-0.00154861
-0.371035
-0.25913
-0.220771
-0.15265
-0.136159
-0.10293
-0.0909604
-0.0736353
-0.0640067
-0.0535434
-0.0460795
-0.0389614
-0.0332611
-0.0280961
-0.0237538
-0.0198921
-0.016571
-0.0136418
-0.0110956
-0.00885609
-0.00689403
-0.00516317
-0.0036641
-0.00232937
-0.00105619
-0.376633
-0.255048
-0.217982
-0.148489
-0.132415
-0.0992394
-0.0875673
-0.070503
-0.0611799
-0.0509885
-0.0437996
-0.0369229
-0.0314501
-0.026483
-0.0223228
-0.0186176
-0.0154363
-0.0126282
-0.0101891
-0.0080418
-0.00615981
-0.00450016
-0.00306432
-0.00177533
-0.000546337
-0.382153
-0.25091
-0.215032
-0.144256
-0.128599
-0.0955101
-0.0841432
-0.0673493
-0.0583336
-0.0484162
-0.0415014
-0.034866
-0.0296195
-0.0248494
-0.0208708
-0.0173218
-0.0142802
-0.0115936
-0.00926216
-0.00720789
-0.00540695
-0.00381992
-0.00244831
-0.00120446
-1.74657e-05
-0.387524
-0.2467
-0.211914
-0.139945
-0.124707
-0.0917362
-0.0806839
-0.0641716
-0.0554652
-0.0458251
-0.039185
-0.0327904
-0.0277698
-0.0231956
-0.019399
-0.0160056
-0.0131038
-0.010539
-0.0083156
-0.00635543
-0.00463653
-0.00312341
-0.00181687
-0.000617888
0.000528946
-0.392666
-0.242398
-0.208618
-0.135554
-0.120735
-0.0879161
-0.0771877
-0.0609696
-0.0525748
-0.0432145
-0.0368513
-0.0306956
-0.0259011
-0.0215199
-0.0179104
-0.0146702
-0.011908
-0.00946526
-0.00735048
-0.0054853
-0.00384955
-0.00241158
-0.0011703
-1.61596e-05
0.00108379
-0.397518
-0.237983
-0.205137
-0.131079
-0.116683
-0.0840492
-0.0736539
-0.0577419
-0.0496643
-0.0405835
-0.0345012
-0.028582
-0.0240142
-0.0198207
-0.0164084
-0.0133166
-0.0106937
-0.00837366
-0.00636805
-0.00459834
-0.00304692
-0.00168545
-0.000508829
0.000599934
0.00164032
-0.402009
-0.233438
-0.201462
-0.126516
-0.112548
-0.080134
-0.0700811
-0.0544837
-0.0467358
-0.037931
-0.0321344
-0.0264515
-0.02211
-0.0181177
-0.0148754
-0.0119448
-0.00946188
-0.00726509
-0.00536928
-0.00369552
-0.00222959
-0.000945608
0.000166359
0.00122733
0.00220358
-0.406075
-0.228743
-0.197586
-0.12186
-0.108329
-0.0761701
-0.0664714
-0.0511888
-0.0437902
-0.0352583
-0.0297487
-0.0243065
-0.0201885
-0.0163979
-0.0133259
-0.0105558
-0.00821361
-0.00614048
-0.00435503
-0.0027779
-0.00139849
-0.000192828
0.000853939
0.00186473
0.00277584
-0.409655
-0.22388
-0.193502
-0.117108
-0.104019
-0.0721551
-0.0628317
-0.0478551
-0.0408225
-0.0325733
-0.0273403
-0.0221459
-0.018251
-0.0146612
-0.0117613
-0.0091507
-0.00694981
-0.00500078
-0.00332623
-0.00184645
-0.000554482
0.000571998
0.00155277
0.00251165
0.00335717
-0.412693
-0.218831
-0.189203
-0.112257
-0.0996168
-0.0680784
-0.0591668
-0.0444955
-0.0378213
-0.0298738
-0.0249135
-0.0199694
-0.0162982
-0.0129081
-0.010183
-0.00773076
-0.00567144
-0.00384695
-0.0022838
-0.000902068
0.000301534
0.00134794
0.00226192
0.00316761
0.00394664
-0.415135
-0.21358
-0.184683
-0.107307
-0.095132
-0.0639232
-0.0554638
-0.0411214
-0.0347894
-0.0271566
-0.0224701
-0.0177772
-0.0143309
-0.0111399
-0.00859124
-0.00629698
-0.00437944
-0.00267991
-0.00122868
5.43484e-05
0.00116868
0.00213409
0.00298056
0.003832
0.00454301
-0.416934
-0.208112
-0.179936
-0.102255
-0.0905841
-0.0596892
-0.0517064
-0.0377296
-0.0317316
-0.0244208
-0.0200109
-0.0155701
-0.0123497
-0.00935782
-0.0069867
-0.00485033
-0.00307477
-0.0015006
-0.00016174
0.00102193
0.00204607
0.0029296
0.00370793
0.00450397
0.00514494
-0.418047
-0.202413
-0.174956
-0.0970793
-0.0859869
-0.0553993
-0.0478828
-0.0343132
-0.0286503
-0.0216662
-0.0175364
-0.0133488
-0.0103553
-0.0075628
-0.0053701
-0.00339174
-0.00175837
-0.00030994
0.000916117
0.00199981
0.00293286
0.00373367
0.00444327
0.0051826
0.00575108
-0.418435
-0.196469
-0.169736
-0.0917389
-0.0813018
-0.0511018
-0.0440077
-0.0308692
-0.0255467
-0.0188934
-0.0150472
-0.0111141
-0.00834837
-0.00575586
-0.00374225
-0.00192214
-0.000431174
0.000891171
0.00200402
0.00298713
0.00382824
0.00454553
0.00518582
0.00586688
0.00636012
-0.418062
-0.190269
-0.164278
-0.0862303
-0.0765503
-0.0467702
-0.0400867
-0.0273966
-0.0224216
-0.0161032
-0.0125437
-0.0088669
-0.00632986
-0.003938
-0.00210402
-0.000442447
0.000905902
0.00210184
0.00310112
0.00398308
0.00473141
0.00536446
0.0059348
0.00655588
0.00697109
-0.416901
-0.183805
-0.158594
-0.0806928
-0.071609
-0.0423911
-0.0361232
-0.0238954
-0.0192754
-0.0132963
-0.0100268
-0.00660807
-0.00430062
-0.00211018
-0.000456304
0.0010464
0.00225193
0.00332117
0.00420656
0.00498683
0.00564159
0.00618973
0.00668944
0.0072488
0.00758352
-0.414925
-0.17707
-0.152695
-0.0750337
-0.0665509
-0.0379594
-0.0321186
-0.020366
-0.0161088
-0.0104736
-0.00749717
-0.00433854
-0.00226161
-0.00027337
0.00119997
0.00254347
0.003606
0.00454828
0.00531951
0.00599757
0.00655802
0.00702059
0.00744897
0.00794501
0.00819746
-0.412113
-0.170051
-0.146552
-0.0692664
-0.0613909
-0.0334736
-0.0280743
-0.0168093
-0.0129225
-0.00763616
-0.00495563
-0.00205924
-0.00021377
0.00157143
0.00286384
0.0040478
0.00496718
0.00578232
0.00643914
0.00701454
0.00747999
0.00785637
0.00821266
0.00864388
0.00881272
-0.40845
-0.162717
-0.140139
-0.0634259
-0.0561365
-0.0289336
-0.0239911
-0.0132262
-0.00971733
-0.00478492
-0.00240317
0.000228813
0.00184187
0.00342322
0.00453432
0.00555847
0.00633457
0.0070224
0.00756466
0.00803697
0.00840681
0.00869645
0.00897988
0.0093446
0.00942772
-0.403922
-0.15503
-0.133519
-0.0574822
-0.0507908
-0.0243401
-0.0198703
-0.00961804
-0.00649434
-0.001921
0.000159206
0.00252458
0.00390428
0.00528096
0.00621044
0.0070745
0.00770724
0.00826767
0.00869526
0.00906415
0.00933791
0.0095404
0.00975011
0.0100459
0.0100387
-0.398522
-0.14702
-0.12667
-0.0514292
-0.0453559
-0.0196942
-0.0157131
-0.00598597
-0.00325458
0.000954431
0.00273038
0.00482696
0.00597237
0.0071436
0.00789116
0.00859491
0.00908426
0.00951727
0.00983015
0.0100954
0.0102728
0.0103879
0.0105229
0.0107461
0.0106413
-0.392245
-0.138811
-0.119494
-0.0452636
-0.0398343
-0.0149973
-0.0115209
-0.00233145
7.01183e-07
0.00384013
0.00530917
0.00713481
0.00804502
0.00901005
0.00957546
0.0101187
0.0104647
0.0107703
0.0109685
0.01113
0.0112109
0.0112385
0.0112976
0.0114444
0.0112349
-0.385092
-0.130328
-0.112058
-0.0389853
-0.0342282
-0.0102513
-0.00729527
0.00134397
0.00327015
0.00673478
0.00789436
0.00944695
0.0101211
0.0108792
0.0112623
0.0116449
0.0118476
0.012026
0.0121097
0.0121673
0.0121516
0.0120916
0.0120736
0.0121414
0.0118268
-0.377074
-0.121548
-0.104377
-0.0325955
-0.0285402
-0.00545822
-0.00303804
0.00503861
0.00655229
0.00963699
0.0104846
0.0117621
0.0121994
0.0127499
0.0129505
0.0131725
0.0132321
0.0132834
0.0132528
0.0132066
0.0130943
0.0129464
0.0128505
0.0128403
0.0124315
-0.368222
-0.112447
-0.0964586
-0.0260964
-0.0227733
-0.000620245
0.00124883
0.00875068
0.00984553
0.0125453
0.0130786
0.0140791
0.0142787
0.0146211
0.0146392
0.0147004
0.0146172
0.0145417
0.0143971
0.0142473
0.0140384
0.0138023
0.0136282
0.0135441
0.0130575
-0.358563
-0.103011
-0.0883106
-0.0194913
-0.0169307
0.00426008
0.00556317
0.0124782
0.0131482
0.0154581
0.0156748
0.0163964
0.0163577
0.0164915
0.016327
0.0162277
0.0160019
0.0158
0.0155418
0.0152887
0.0149834
0.0146593
0.0144075
0.0142523
0.0136887
-0.348045
-0.0933052
-0.0799404
-0.0127837
-0.011016
0.00918
0.00990262
0.0162193
0.0164584
0.0183738
0.0182718
0.0187128
0.0184352
0.0183599
0.018013
0.0177532
0.0173853
0.0170575
0.0166863
0.0163303
0.0159294
0.0155185
0.0151894
0.0149564
0.0142813
-0.336641
-0.0833821
-0.0713563
-0.00597773
-0.00503287
0.0141366
0.0142647
0.0199716
0.0197743
0.0212908
0.020868
0.0210268
0.0205098
0.0202251
0.0196958
0.0192759
0.0187664
0.0183133
0.0178296
0.0173715
0.0168765
0.016381
0.0159733
0.0156444
0.0147977
-0.324412
-0.0732174
-0.0625666
0.000922192
0.00101435
0.0191266
0.0186466
0.0237328
0.0230939
0.0242071
0.0234618
0.023337
0.0225801
0.0220858
0.0213745
0.0207947
0.0201441
0.0195663
0.0189711
0.0184119
0.0178247
0.0172466
0.0167566
0.0163134
0.0152694
-0.311395
-0.0628044
-0.0535803
0.0079111
0.00712119
0.0241467
0.0230455
0.0275007
0.026415
0.0271211
0.0260515
0.0256417
0.0246449
0.0239408
0.0230478
0.0223084
0.0215175
0.0208158
0.0201099
0.0194508
0.0187731
0.0181128
0.0175372
0.0169838
0.0158205
-0.297615
-0.0521485
-0.044407
0.0149836
0.0132828
0.0291932
0.0274583
0.0312726
0.0297355
0.0300307
0.0286354
0.0279396
0.0267025
0.0257887
0.0247144
0.0238161
0.0228855
0.0220608
0.0212452
0.0204874
0.0197201
0.0189769
0.0183175
0.0176945
0.0165755
-0.2831
-0.0412583
-0.0350571
0.0221338
0.0194942
0.0342624
0.0318819
0.035046
0.0330531
0.0329341
0.0312118
0.030229
0.0287517
0.0276283
0.0263731
0.0253164
0.0242471
0.0233003
0.0223762
0.0215208
0.0206648
0.0198394
0.019107
0.0184662
0.017478
-0.267882
-0.0301448
-0.0255413
0.0293555
0.0257498
0.0393502
0.0363128
0.038818
0.0363653
0.0358291
0.0337788
0.0325083
0.0307909
0.0294581
0.0280227
0.0268083
0.0256011
0.0245333
0.023502
0.0225504
0.0216077
0.0207058
0.0199142
0.0192567
0.0182116
-0.251993
-0.0188201
-0.0158712
0.0366419
0.0320439
0.0444525
0.0407476
0.0425858
0.0396698
0.0387137
0.0363345
0.0347758
0.0328186
0.0312767
0.0296619
0.0282905
0.0269466
0.0257588
0.0246216
0.0235756
0.0225505
0.0215815
0.0207333
0.0199699
0.0184631
-0.235468
-0.00729793
-0.00605881
0.043986
0.0383706
0.0495649