/*--------------------------------*- C++ -*----------------------------------*\
  =========                 |
  \\      /  F ield         | OpenFOAM: The Open Source CFD Toolbox
   \\    /   O peration     | Website:  https://openfoam.org
    \\  /    A nd           | Version:  7
     \\/     M anipulation  |
\*---------------------------------------------------------------------------*/
FoamFile
{
    version     2.0;
    format      ascii;
    class       volVectorField;
    location    "0.5";
    object      U;
}
// * * * * * * * * * * * * * * * * * * * * * * * * * * * * * * * * * * * * * //

dimensions      [0 1 -1 0 0 0 0];

internalField   nonuniform List<vector> 
2413
(
(1.4 1.58138e-15 0)
(1.4 1.66488e-15 0)
(1.4 1.7007e-15 0)
(1.4 1.7211e-15 0)
(1.4 1.65064e-15 0)
(1.4 1.55865e-15 0)
(1.4 1.53436e-15 0)
(1.4 1.60144e-15 0)
(1.4 1.78356e-15 0)
(1.4 1.77255e-15 0)
(1.4 1.76878e-15 0)
(1.4 1.67505e-15 0)
(1.4 1.46738e-15 0)
(1.4 1.26311e-15 0)
(1.4 1.23683e-15 0)
(1.4 1.17141e-15 0)
(1.4 8.22661e-16 0)
(1.4 5.90058e-16 0)
(1.4 4.0621e-16 0)
(1.4 4.61125e-17 0)
(1.4 -4.62162e-16 0)
(1.4 -7.64897e-16 0)
(1.4 -1.1923e-15 0)
(1.4 -1.21354e-15 0)
(1.4 -1.15827e-15 0)
(1.4 -1.24119e-15 0)
(1.4 -1.39621e-15 0)
(1.4 -1.39084e-15 0)
(1.4 -9.35826e-16 0)
(1.4 -7.44524e-16 0)
(1.4 -2.55704e-16 0)
(1.4 1.94975e-16 0)
(1.4 4.70214e-16 0)
(1.4 9.78528e-16 0)
(1.4 1.22829e-15 0)
(1.4 1.54609e-15 0)
(1.4 1.73189e-15 0)
(1.4 1.68502e-15 0)
(1.4 1.37458e-15 0)
(1.4 1.18374e-15 0)
(1.4 6.72434e-16 0)
(1.4 4.2761e-16 0)
(1.4 4.39204e-16 0)
(1.4 5.63797e-16 0)
(1.4 7.11997e-16 0)
(1.4 8.61881e-16 0)
(1.4 9.03343e-16 0)
(1.4 9.00287e-16 0)
(1.4 7.42279e-16 0)
(1.4 5.25308e-16 0)
(1.4 2.45292e-16 0)
(1.4 -1.17465e-16 0)
(1.4 -4.30283e-16 0)
(1.4 -3.99472e-16 0)
(1.4 -3.25127e-16 0)
(1.4 -3.1958e-16 0)
(1.4 -4.79044e-16 0)
(1.4 -5.63212e-16 0)
(1.4 -5.08014e-16 0)
(1.4 -3.79404e-16 0)
(1.4 -1.57831e-16 0)
(1.4 -2.59926e-17 0)
(1.4 1.05842e-16 0)
(1.4 2.99047e-16 0)
(1.4 3.21733e-16 0)
(1.4 4.65819e-16 0)
(1.4 4.98587e-16 0)
(1.4 5.01199e-16 0)
(1.4 5.32925e-16 0)
(1.4 6.10948e-16 0)
(1.4 8.61767e-16 0)
(1.4 9.25027e-16 0)
(1.4 9.26881e-16 0)
(1.4 1.02607e-15 0)
(1.4 1.17138e-15 0)
(1.4 1.43285e-15 0)
(1.4 1.69706e-15 0)
(1.4 1.84615e-15 0)
(1.4 2.06029e-15 0)
(1.4 1.96762e-15 0)
(1.4 1.80512e-15 0)
(1.4 1.61628e-15 0)
(1.4 1.15713e-15 0)
(1.4 5.15159e-16 0)
(1.4 -1.08685e-16 0)
(1.4 -4.86662e-16 0)
(1.4 -7.88773e-16 0)
(1.4 -9.07262e-16 0)
(1.4 -9.4065e-16 0)
(1.4 -9.08084e-16 0)
(1.4 -6.81583e-16 0)
(1.4 -5.56528e-16 0)
(1.4 -1.14057e-16 0)
(1.4 1.04542e-16 0)
(1.4 6.32113e-16 0)
(1.4 1.04305e-15 0)
(1.4 1.53481e-15 0)
(1.4 2.03824e-15 0)
(1.4 2.23494e-15 0)
(1.4 2.61891e-15 0)
(1.4 2.89073e-15 0)
(1.4 3.19422e-15 0)
(1.4 2.99774e-15 0)
(1.4 2.93036e-15 0)
(1.4 2.69254e-15 0)
(1.4 2.57807e-15 0)
(1.4 2.41352e-15 0)
(1.4 2.1796e-15 0)
(1.4 1.92297e-15 0)
(1.4 1.68803e-15 0)
(1.4 1.43384e-15 0)
(1.4 1.18387e-15 0)
(1.4 1.00942e-15 0)
(1.4 8.49518e-16 0)
(1.4 5.35762e-16 0)
(1.4 4.02399e-16 0)
(1.4 1.94673e-16 0)
(1.4 9.39904e-17 0)
(1.4 6.29974e-17 0)
(1.4 -1.52111e-16 0)
(1.4 3.67477e-15 0)
(1.4 3.78091e-15 0)
(1.4 3.70497e-15 0)
(1.4 3.61579e-15 0)
(1.4 3.1828e-15 0)
(1.4 2.3945e-15 0)
(1.4 2.10935e-15 0)
(1.4 2.03349e-15 0)
(1.4 1.98046e-15 0)
(1.4 1.80152e-15 0)
(1.4 1.73044e-15 0)
(1.4 1.74966e-15 0)
(1.4 1.82722e-15 0)
(1.4 1.97739e-15 0)
(1.4 2.1285e-15 0)
(1.4 1.88936e-15 0)
(1.4 1.61527e-15 0)
(1.4 1.29538e-15 0)
(1.4 1.1726e-15 0)
(1.4 9.98115e-16 0)
(1.4 8.77074e-16 0)
(1.4 7.61577e-16 0)
(1.4 8.32787e-16 0)
(1.4 1.08511e-15 0)
(1.4 1.34892e-15 0)
(1.4 1.38302e-15 0)
(1.4 1.30359e-15 0)
(1.4 1.20534e-15 0)
(1.4 8.30889e-16 0)
(1.4 4.33397e-16 0)
(1.4 6.80315e-17 0)
(1.4 -4.52115e-16 0)
(1.4 -7.09636e-16 0)
(1.4 -1.10569e-15 0)
(1.4 -1.51395e-15 0)
(1.4 -1.81964e-15 0)
(1.4 -2.03849e-15 0)
(1.4 -2.05947e-15 0)
(1.4 -1.98864e-15 0)
(1.4 -1.94883e-15 0)
(1.4 -1.83597e-15 0)
(1.4 -1.7765e-15 0)
(1.4 -1.73622e-15 0)
(1.4 -6.4371e-16 0)
(1.4 -4.46255e-17 0)
(1.4 3.51541e-16 0)
(1.4 9.42215e-16 0)
(1.4 1.13271e-15 0)
(1.4 1.76137e-15 0)
(1.4 2.48271e-15 0)
(1.4 2.50656e-15 0)
(1.4 2.4917e-15 0)
(1.4 1.97206e-15 0)
(1.4 1.84659e-15 0)
(1.4 1.61776e-15 0)
(1.4 1.41084e-15 0)
(1.4 1.26013e-15 0)
(1.4 1.17184e-15 0)
(1.4 1.04672e-15 0)
(1.4 8.80391e-16 0)
(1.4 6.7861e-16 0)
(1.4 2.52682e-16 0)
(1.4 2.03668e-16 0)
(1.4 3.2694e-16 0)
(1.4 6.1368e-16 0)
(1.4 7.37022e-16 0)
(1.4 1.00989e-15 0)
(1.4 1.06133e-15 0)
(1.4 1.07337e-15 0)
(1.4 9.52359e-16 0)
(1.4 9.00365e-16 0)
(1.4 8.39301e-16 0)
(1.4 6.32211e-16 0)
(1.4 1.69432e-16 0)
(1.4 -7.33178e-17 0)
(1.4 -2.51792e-16 0)
(1.4 -3.13115e-16 0)
(1.4 -3.43718e-16 0)
(1.4 -4.94116e-16 0)
(1.4 -4.4425e-16 0)
(1.4 -4.50412e-16 0)
(1.4 -3.1651e-16 0)
(1.4 -1.06469e-16 0)
(1.4 2.46267e-16 0)
(1.4 5.15841e-16 0)
(1.4 5.95116e-16 0)
(1.4 5.53961e-16 0)
(1.4 7.32428e-16 0)
(1.4 1.72051e-15 0)
(1.4 2.14728e-15 0)
(1.4 2.35299e-15 0)
(1.4 2.50895e-15 0)
(1.4 2.54617e-15 0)
(1.4 2.49066e-15 0)
(1.4 2.40931e-15 0)
(1.4 2.29845e-15 0)
(1.4 2.08253e-15 0)
(1.4 1.84023e-15 0)
(1.4 1.59617e-15 0)
(1.4 1.57081e-15 0)
(1.4 1.57124e-15 0)
(1.4 1.39592e-15 0)
(1.4 1.76952e-15 0)
(1.4 2.01455e-15 0)
(1.4 2.30322e-15 0)
(1.4 2.36896e-15 0)
(1.4 2.63343e-15 0)
(1.4 2.792e-15 0)
(1.4 2.81942e-15 0)
(1.4 2.69378e-15 0)
(1.4 2.43778e-15 0)
(1.4 1.81279e-15 0)
(1.4 1.6177e-15 0)
(1.4 1.05723e-15 0)
(1.4 6.5563e-16 0)
(1.4 5.44476e-16 0)
(1.4 3.62875e-16 0)
(1.4 2.22562e-16 0)
(1.4 6.6474e-18 0)
(1.4 4.47256e-17 0)
(1.4 3.83495e-17 0)
(1.4 6.96738e-18 0)
(1.4 -2.38018e-17 0)
(1.4 -4.69304e-16 0)
(1.4 -7.36175e-16 0)
(1.4 -1.05465e-15 0)
(1.4 -1.40825e-15 0)
(1.4 -1.8417e-15 0)
(1.4 -2.03054e-15 0)
(1.4 -2.10258e-15 0)
(1.4 -2.18537e-15 0)
(1.4 -2.08244e-15 0)
(1.4 2.10294e-15 0)
(1.4 2.12776e-15 0)
(1.4 2.1239e-15 0)
(1.4 1.89941e-15 0)
(1.4 1.66673e-15 0)
(1.4 1.45232e-15 0)
(1.4 1.16631e-15 0)
(1.4 1.07219e-15 0)
(1.4 1.18649e-15 0)
(1.4 1.23339e-15 0)
(1.4 1.0263e-15 0)
(1.4 7.76434e-16 0)
(1.4 5.59588e-16 0)
(1.4 5.5669e-16 0)
(1.4 6.02793e-16 0)
(1.4 6.19579e-16 0)
(1.4 5.72137e-16 0)
(1.4 5.25287e-16 0)
(1.4 5.91202e-16 0)
(1.4 6.94278e-16 0)
(1.4 6.73475e-16 0)
(1.4 7.72763e-16 0)
(1.4 8.76197e-16 0)
(1.4 1.01118e-15 0)
(1.4 1.33488e-15 0)
(1.4 1.63639e-15 0)
(1.4 1.64848e-15 0)
(1.4 1.10501e-15 0)
(1.4 9.21411e-16 0)
(1.4 7.4586e-16 0)
(1.4 2.76383e-16 0)
(1.4 -4.6551e-16 0)
(1.4 -6.42825e-16 0)
(1.4 -1.10427e-15 0)
(1.4 -1.40964e-15 0)
(1.4 -1.89888e-15 0)
(1.4 -2.14967e-15 0)
(1.4 -2.15715e-15 0)
(1.4 -2.17015e-15 0)
(1.4 -2.04926e-15 0)
(1.4 -1.73406e-15 0)
(1.4 -1.37114e-15 0)
(1.4 -1.04842e-15 0)
(1.4 -6.40207e-16 0)
(1.4 -2.60567e-16 0)
(1.4 2.90986e-16 0)
(1.4 5.16694e-16 0)
(1.4 6.9774e-16 0)
(1.4 1.00795e-15 0)
(1.4 1.49858e-15 0)
(1.4 1.5886e-15 0)
(1.4 1.49618e-15 0)
(1.4 1.42237e-15 0)
(1.4 1.52305e-15 0)
(1.4 1.60891e-15 0)
(1.4 1.60889e-15 0)
(1.4 1.53464e-15 0)
(1.4 1.45828e-15 0)
(1.4 1.37259e-15 0)
(1.4 1.30295e-15 0)
(1.4 1.30629e-15 0)
(1.4 1.56411e-15 0)
(1.4 1.75875e-15 0)
(1.4 2.12413e-15 0)
(1.4 2.23955e-15 0)
(1.4 2.24561e-15 0)
(1.4 2.23197e-15 0)
(1.4 2.0993e-15 0)
(1.4 2.00502e-15 0)
(1.4 1.78478e-15 0)
(1.4 1.56786e-15 0)
(1.4 8.65287e-16 0)
(1.4 4.16099e-16 0)
(1.4 3.76389e-17 0)
(1.4 -3.91411e-16 0)
(1.4 -4.44599e-16 0)
(1.4 -3.79614e-16 0)
(1.4 -4.24093e-16 0)
(1.4 -5.45713e-16 0)
(1.4 -8.60312e-16 0)
(1.4 -1.07438e-15 0)
(1.4 -1.15175e-15 0)
(1.4 -1.11317e-15 0)
(1.4 -1.08083e-15 0)
(1.4 -8.69759e-16 0)
(1.4 -5.94232e-16 0)
(1.4 -4.72459e-16 0)
(1.4 -3.13804e-16 0)
(1.4 4.35741e-16 0)
(1.4 7.78613e-16 0)
(1.4 1.08742e-15 0)
(1.4 1.94509e-15 0)
(1.4 2.08262e-15 0)
(1.4 2.23633e-15 0)
(1.4 2.46023e-15 0)
(1.4 2.78645e-15 0)
(1.4 3.24578e-15 0)
(1.4 3.69755e-15 0)
(1.4 3.93292e-15 0)
(1.4 4.06502e-15 0)
(1.4 4.0079e-15 0)
(1.4 3.97033e-15 0)
(1.4 3.84241e-15 0)
(1.4 3.79006e-15 0)
(1.4 3.84526e-15 0)
(1.4 3.80911e-15 0)
(1.4 3.48078e-15 0)
(1.4 3.07349e-15 0)
(1.4 2.82909e-15 0)
(1.4 2.11329e-15 0)
(1.4 1.2705e-15 0)
(1.4 5.6648e-16 0)
(1.4 -2.51466e-16 0)
(1.4 -6.67257e-16 0)
(1.4 -8.72676e-16 0)
(1.4 -8.91899e-16 0)
(1.4 -7.85217e-16 0)
(1.4 -7.42754e-16 0)
(1.4 -6.99621e-16 0)
(1.4 -6.37445e-16 0)
(1.4 -6.7686e-16 0)
(1.4 -4.90839e-16 0)
(1.4 -3.53113e-16 0)
(1.4 -4.00278e-16 0)
(1.4 -3.02817e-16 0)
(1.4 -2.77258e-16 0)
(1.4 -1.74556e-16 0)
(1.4 -4.74511e-16 0)
(1.4 -5.60629e-16 0)
(1.4 -8.47577e-16 0)
(1.4 -8.83122e-16 0)
(1.4 -1.02151e-15 0)
(1.4 8.61691e-16 0)
(1.4 8.38746e-16 0)
(1.4 7.72513e-16 0)
(1.4 5.82198e-16 0)
(1.4 3.36931e-16 0)
(1.4 1.9816e-16 0)
(1.4 -3.09958e-17 0)
(1.4 -3.06527e-16 0)
(1.4 -7.19537e-16 0)
(1.4 -8.54793e-16 0)
(1.4 -1.1612e-15 0)
(1.4 -1.37948e-15 0)
(1.4 -1.61308e-15 0)
(1.4 -1.57441e-15 0)
(1.4 -1.39639e-15 0)
(1.4 -1.09042e-15 0)
(1.4 -8.49247e-16 0)
(1.4 -4.57856e-16 0)
(1.4 9.01785e-17 0)
(1.4 4.78836e-16 0)
(1.4 5.44894e-16 0)
(1.4 1.02149e-15 0)
(1.4 1.18896e-15 0)
(1.4 1.13421e-15 0)
(1.4 1.39684e-15 0)
(1.4 1.7508e-15 0)
(1.4 1.88032e-15 0)
(1.4 2.02552e-15 0)
(1.4 2.16819e-15 0)
(1.4 2.09916e-15 0)
(1.4 1.73361e-15 0)
(1.4 1.08492e-15 0)
(1.4 8.3623e-16 0)
(1.4 4.82697e-16 0)
(1.4 -6.17169e-17 0)
(1.4 -1.22758e-16 0)
(1.4 -2.75341e-16 0)
(1.4 -3.59776e-16 0)
(1.4 -3.02653e-16 0)
(1.4 -2.91999e-16 0)
(1.4 -7.33923e-17 0)
(1.4 -3.49171e-17 0)
(1.4 2.17556e-16 0)
(1.4 5.83546e-16 0)
(1.4 8.36181e-16 0)
(1.4 1.14372e-15 0)
(1.4 1.39949e-15 0)
(1.4 1.35458e-15 0)
(1.4 1.05119e-15 0)
(1.4 9.19592e-16 0)
(1.4 9.41635e-16 0)
(1.4 1.08105e-15 0)
(1.4 1.51352e-15 0)
(1.4 1.70251e-15 0)
(1.4 1.85859e-15 0)
(1.4 1.61398e-15 0)
(1.4 1.50306e-15 0)
(1.4 1.29474e-15 0)
(1.4 1.18729e-15 0)
(1.4 1.04574e-15 0)
(1.4 9.39167e-16 0)
(1.4 9.78945e-16 0)
(1.4 9.2174e-16 0)
(1.4 7.59585e-16 0)
(1.4 3.69881e-16 0)
(1.4 1.11396e-16 0)
(1.4 -4.57539e-17 0)
(1.4 -9.96187e-17 0)
(1.4 -9.15205e-17 0)
(1.4 4.60262e-18 0)
(1.4 -2.32962e-16 0)
(1.4 -6.24087e-16 0)
(1.4 -8.19002e-16 0)
(1.4 -1.01482e-15 0)
(1.4 -1.03234e-15 0)
(1.4 -1.07955e-15 0)
(1.4 -1.1629e-15 0)
(1.4 -1.27058e-15 0)
(1.4 -1.39847e-15 0)
(1.4 -1.54467e-15 0)
(1.4 -1.37142e-15 0)
(1.4 -1.32481e-15 0)
(1.4 -1.32196e-15 0)
(1.4 -1.19109e-15 0)
(1.4 -1.3785e-15 0)
(1.4 -1.27735e-15 0)
(1.4 -3.50374e-16 0)
(1.4 6.71012e-16 0)
(1.4 1.08016e-15 0)
(1.4 1.23797e-15 0)
(1.4 1.67964e-15 0)
(1.4 1.73801e-15 0)
(1.4 1.96017e-15 0)
(1.4 2.76346e-15 0)
(1.4 3.74443e-15 0)
(1.4 4.2514e-15 0)
(1.4 5.19832e-15 0)
(1.4 5.51262e-15 0)
(1.4 5.53112e-15 0)
(1.4 5.46898e-15 0)
(1.4 5.17877e-15 0)
(1.4 5.26132e-15 0)
(1.4 4.81256e-15 0)
(1.4 4.2881e-15 0)
(1.4 3.98244e-15 0)
(1.4 3.78602e-15 0)
(1.4 3.35809e-15 0)
(1.4 3.19482e-15 0)
(1.4 2.73665e-15 0)
(1.4 2.03708e-15 0)
(1.4 2.04617e-15 0)
(1.4 1.94457e-15 0)
(1.4 1.5386e-15 0)
(1.4 1.00177e-15 0)
(1.4 4.33283e-16 0)
(1.4 1.65106e-16 0)
(1.4 2.01028e-16 0)
(1.4 4.46941e-17 0)
(1.4 -2.58173e-17 0)
(1.4 -1.58716e-16 0)
(1.4 -3.84596e-16 0)
(1.4 -4.40585e-16 0)
(1.4 -5.52416e-16 0)
(1.4 -6.50854e-16 0)
(1.4 -3.56584e-16 0)
(1.4 -2.16169e-16 0)
(1.4 -1.79229e-16 0)
(1.4 -1.97618e-16 0)
(1.4 -3.57398e-16 0)
(1.4 -5.06663e-16 0)
(1.4 -1.0522e-15 0)
(1.4 -1.2469e-15 0)
(1.4 -1.67563e-15 0)
(1.4 -1.68216e-15 0)
(1.4 -1.8437e-15 0)
(1.4 -1.85881e-15 0)
(1.4 -1.87075e-15 0)
(1.4 -1.89106e-15 0)
(1.4 -2.13874e-15 0)
(1.4 -2.27931e-15 0)
(1.4 -2.61567e-15 0)
(1.4 -3.12553e-15 0)
(1.4 -3.42565e-15 0)
(1.4 -3.48525e-15 0)
(1.4 -3.42979e-15 0)
(1.4 -3.27703e-15 0)
(1.4 -3.10279e-15 0)
(1.4 -2.58632e-15 0)
(1.4 -1.46071e-15 0)
(1.4 -7.60067e-16 0)
(1.4 -4.06057e-16 0)
(1.4 6.88629e-16 0)
(1.4 1.5219e-15 0)
(1.4 1.96186e-15 0)
(1.4 2.04887e-15 0)
(1.4 1.85504e-15 0)
(1.4 1.36649e-15 0)
(1.4 8.79168e-16 0)
(1.4 8.71472e-16 0)
(1.4 9.49119e-16 0)
(1.4 7.93237e-16 0)
(1.4 6.65099e-16 0)
(1.4 5.47866e-16 0)
(1.4 8.32587e-16 0)
(1.4 9.58144e-16 0)
(1.4 7.81721e-16 0)
(1.4 4.49936e-16 0)
(1.4 3.65278e-16 0)
(1.4 3.06921e-16 0)
(1.4 2.46626e-16 0)
(1.4 3.1861e-16 0)
(1.4 2.90962e-16 0)
(1.4 5.24987e-16 0)
(1.4 6.4669e-16 0)
(1.4 1.03499e-15 0)
(1.4 1.30775e-15 0)
(1.4 1.52815e-15 0)
(1.4 1.40757e-15 0)
(1.4 1.25614e-15 0)
(1.4 8.62043e-16 0)
(1.4 5.37536e-16 0)
(1.4 4.26248e-16 0)
(1.4 4.08995e-16 0)
(1.4 6.14709e-16 0)
(1.4 8.51965e-16 0)
(1.4 8.18743e-16 0)
(1.4 5.06659e-16 0)
(1.4 1.73894e-16 0)
(1.4 3.33296e-17 0)
(1.4 -1.30799e-16 0)
(1.4 -3.17915e-16 0)
(1.4 -6.96638e-16 0)
(1.4 -9.45585e-16 0)
(1.4 -1.55552e-15 0)
(1.4 -1.72169e-15 0)
(1.4 -2.09207e-15 0)
(1.4 -2.48326e-15 0)
(1.4 -2.67964e-15 0)
(1.4 -2.79411e-15 0)
(1.4 -2.72365e-15 0)
(1.4 -2.74436e-15 0)
(1.4 -2.5601e-15 0)
(1.4 -2.35087e-15 0)
(1.4 -2.19038e-15 0)
(1.4 -2.14838e-15 0)
(1.4 -1.80424e-15 0)
(1.4 -1.72309e-15 0)
(1.4 -1.75351e-15 0)
(1.4 -1.83232e-15 0)
(1.4 -1.98383e-15 0)
(1.4 -1.85608e-15 0)
(1.4 -1.62548e-15 0)
(1.4 -1.60305e-15 0)
(1.4 -1.77339e-15 0)
(1.4 -1.54881e-15 0)
(1.4 -9.56977e-16 0)
(1.4 -6.38562e-16 0)
(1.4 -7.15015e-16 0)
(1.4 -3.67603e-16 0)
(1.4 1.85252e-16 0)
(1.4 6.68408e-16 0)
(1.4 6.35508e-16 0)
(1.4 5.66889e-16 0)
(1.4 5.61789e-16 0)
(1.4 7.54815e-16 0)
(1.4 2.05553e-15 0)
(1.4 3.45445e-15 0)
(1.4 4.13423e-15 0)
(1.4 4.30596e-15 0)
(1.4 4.30373e-15 0)
(1.4 4.12885e-15 0)
(1.4 3.91709e-15 0)
(1.4 3.76095e-15 0)
(1.4 3.68321e-15 0)
(1.4 3.61488e-15 0)
(1.4 3.24077e-15 0)
(1.4 2.43419e-15 0)
(1.4 1.9359e-15 0)
(1.4 1.85471e-15 0)
(1.4 2.04759e-15 0)
(1.4 2.30552e-15 0)
(1.4 2.36772e-15 0)
(1.4 2.30264e-15 0)
(1.4 2.07692e-15 0)
(1.4 1.95239e-15 0)
(1.4 1.52105e-15 0)
(1.4 1.18372e-15 0)
(1.4 8.16649e-16 0)
(1.4 5.06186e-16 0)
(1.4 -3.06811e-17 0)
(1.4 -4.18561e-16 0)
(1.4 -9.10028e-16 0)
(1.4 -1.0956e-15 0)
(1.4 -1.23226e-15 0)
(1.4 -1.37192e-15 0)
(1.4 -1.31895e-15 0)
(1.4 -1.35188e-15 0)
(1.4 -1.45866e-15 0)
(1.4 -1.41165e-15 0)
(1.4 -1.33942e-15 0)
(1.4 -1.31675e-15 0)
(1.4 -1.29067e-15 0)
(1.4 -1.70109e-15 0)
(1.4 -1.91361e-15 0)
(1.4 -3.90173e-15 0)
(1.4 -3.91672e-15 0)
(1.4 -3.74876e-15 0)
(1.4 -3.48485e-15 0)
(1.4 -3.41724e-15 0)
(1.4 -3.44672e-15 0)
(1.4 -3.55672e-15 0)
(1.4 -3.6593e-15 0)
(1.4 -3.74861e-15 0)
(1.4 -3.45179e-15 0)
(1.4 -3.33648e-15 0)
(1.4 -2.95448e-15 0)
(1.4 -2.85932e-15 0)
(1.4 -2.70311e-15 0)
(1.4 -2.76369e-15 0)
(1.4 -2.25841e-15 0)
(1.4 -1.56138e-15 0)
(1.4 -7.45857e-16 0)
(1.4 -7.29219e-19 0)
(1.4 6.24812e-16 0)
(1.4 1.16694e-15 0)
(1.4 1.911e-15 0)
(1.4 2.13774e-15 0)
(1.4 2.05675e-15 0)
(1.4 1.96494e-15 0)
(1.4 1.6618e-15 0)
(1.4 1.02537e-15 0)
(1.4 7.61568e-16 0)
(1.4 6.22316e-16 0)
(1.4 6.56529e-16 0)
(1.4 6.95908e-16 0)
(1.4 7.58788e-16 0)
(1.4 6.7127e-16 0)
(1.4 7.03055e-16 0)
(1.4 2.98825e-16 0)
(1.4 1.17114e-16 0)
(1.4 -1.93767e-16 0)
(1.4 -3.21335e-16 0)
(1.4 -3.57575e-16 0)
(1.4 -5.3314e-16 0)
(1.4 -3.24061e-16 0)
(1.4 -1.53746e-16 0)
(1.4 -1.71684e-16 0)
(1.4 -2.70353e-16 0)
(1.4 -7.32306e-16 0)
(1.4 -1.30665e-15 0)
(1.4 -1.76085e-15 0)
(1.4 -1.95189e-15 0)
(1.4 -1.8863e-15 0)
(1.4 -1.73257e-15 0)
(1.4 -1.77829e-15 0)
(1.4 -1.75781e-15 0)
(1.4 -2.18076e-15 0)
(1.4 -2.38518e-15 0)
(1.4 -2.40295e-15 0)
(1.4 -2.67036e-15 0)
(1.4 -3.17448e-15 0)
(1.4 -3.37559e-15 0)
(1.4 -3.35651e-15 0)
(1.4 -3.29061e-15 0)
(1.4 -3.17016e-15 0)
(1.4 -3.00584e-15 0)
(1.4 -2.95192e-15 0)
(1.4 -2.68486e-15 0)
(1.4 -2.56834e-15 0)
(1.4 -2.5363e-15 0)
(1.4 -2.42644e-15 0)
(1.4 -2.58945e-15 0)
(1.4 -2.68038e-15 0)
(1.4 -2.51889e-15 0)
(1.4 -2.4681e-15 0)
(1.4 -2.21729e-15 0)
(1.4 -1.78357e-15 0)
(1.4 -1.42905e-15 0)
(1.4 -1.16131e-15 0)
(1.4 -1.01362e-15 0)
(1.4 -9.22471e-16 0)
(1.4 -6.492e-16 0)
(1.4 -4.18072e-16 0)
(1.4 -1.93206e-16 0)
(1.4 -2.49999e-17 0)
(1.4 1.41739e-16 0)
(1.4 -4.85106e-17 0)
(1.4 1.3057e-16 0)
(1.4 2.79977e-16 0)
(1.4 3.8822e-16 0)
(1.4 4.44896e-16 0)
(1.4 5.04785e-16 0)
(1.4 7.96871e-16 0)
(1.4 1.32989e-15 0)
(1.4 1.50879e-15 0)
(1.4 1.72329e-15 0)
(1.4 1.87589e-15 0)
(1.4 1.71385e-15 0)
(1.4 1.63244e-15 0)
(1.4 1.67421e-15 0)
(1.4 1.71281e-15 0)
(1.4 1.81093e-15 0)
(1.4 1.91866e-15 0)
(1.4 1.94096e-15 0)
(1.4 2.01805e-15 0)
(1.4 2.01639e-15 0)
(1.4 1.95492e-15 0)
(1.4 1.75263e-15 0)
(1.4 1.59339e-15 0)
(1.4 1.62309e-15 0)
(1.4 1.59878e-15 0)
(1.4 1.11789e-15 0)
(1.4 1.04577e-15 0)
(1.4 1.08336e-15 0)
(1.4 8.72841e-16 0)
(1.4 4.58126e-16 0)
(1.4 2.16196e-16 0)
(1.4 -3.8384e-16 0)
(1.4 -5.32197e-16 0)
(1.4 -7.10312e-16 0)
(1.4 -1.00769e-15 0)
(1.4 -1.08992e-15 0)
(1.4 -1.03379e-15 0)
(1.4 -9.17273e-16 0)
(1.4 -7.68494e-16 0)
(1.4 -5.62799e-16 0)
(1.4 -5.38911e-16 0)
(1.4 -4.78678e-16 0)
(1.4 -3.26209e-16 0)
(1.4 -2.58152e-16 0)
(1.4 -1.12485e-16 0)
(1.4 8.72015e-18 0)
(1.4 2.51144e-16 0)
(1.4 8.97484e-16 0)
(1.4 1.05177e-15 0)
(1.4 6.72425e-16 0)
(1.4 -3.97014e-15 0)
(1.4 -3.99764e-15 0)
(1.4 -4.08493e-15 0)
(1.4 -4.3525e-15 0)
(1.4 -4.05466e-15 0)
(1.4 -3.89585e-15 0)
(1.4 -3.35301e-15 0)
(1.4 -2.81771e-15 0)
(1.4 -2.67918e-15 0)
(1.4 -2.19363e-15 0)
(1.4 -1.59432e-15 0)
(1.4 -1.11543e-15 0)
(1.4 -6.89788e-16 0)
(1.4 -5.03188e-16 0)
(1.4 -5.0021e-16 0)
(1.4 -7.68792e-17 0)
(1.4 1.04762e-16 0)
(1.4 4.43426e-16 0)
(1.4 6.71317e-16 0)
(1.4 8.89872e-16 0)
(1.4 1.4385e-15 0)
(1.4 1.66309e-15 0)
(1.4 2.20039e-15 0)
(1.4 2.64845e-15 0)
(1.4 2.67196e-15 0)
(1.4 2.7405e-15 0)
(1.4 2.79198e-15 0)
(1.4 2.54414e-15 0)
(1.4 2.35971e-15 0)
(1.4 2.12308e-15 0)
(1.4 2.01971e-15 0)
(1.4 1.89451e-15 0)
(1.4 1.78589e-15 0)
(1.4 1.6664e-15 0)
(1.4 1.41114e-15 0)
(1.4 1.17982e-15 0)
(1.4 1.08817e-15 0)
(1.4 9.35457e-16 0)
(1.4 9.60171e-16 0)
(1.4 7.7954e-16 0)
(1.4 3.67552e-16 0)
(1.4 1.50804e-16 0)
(1.4 -7.19772e-16 0)
(1.4 -1.05805e-15 0)
(1.4 -1.23799e-15 0)
(1.4 -1.67081e-15 0)
(1.4 -2.00949e-15 0)
(1.4 -2.30029e-15 0)
(1.4 -2.65309e-15 0)
(1.4 -3.01776e-15 0)
(1.4 -3.24604e-15 0)
(1.4 -3.69524e-15 0)
(1.4 -3.95595e-15 0)
(1.4 -3.9864e-15 0)
(1.4 -3.86583e-15 0)
(1.4 -3.58778e-15 0)
(1.4 -3.21261e-15 0)
(1.4 -3.08968e-15 0)
(1.4 -2.89277e-15 0)
(1.4 -2.70924e-15 0)
(1.4 -2.51596e-15 0)
(1.4 -2.16739e-15 0)
(1.4 -1.853e-15 0)
(1.4 -1.44772e-15 0)
(1.4 -1.14624e-15 0)
(1.4 -1.10372e-15 0)
(1.4 -1.09599e-15 0)
(1.4 -7.80019e-16 0)
(1.4 -5.62525e-16 0)
(1.4 -5.63004e-16 0)
(1.4 -1.85407e-16 0)
(1.4 2.30249e-16 0)
(1.4 5.48199e-16 0)
(1.4 8.84709e-16 0)
(1.4 9.93625e-16 0)
(1.4 1.18661e-15 0)
(1.4 1.32152e-15 0)
(1.4 1.56326e-15 0)
(1.4 1.69796e-15 0)
(1.4 1.70157e-15 0)
(1.4 1.81284e-15 0)
(1.4 2.0249e-15 0)
(1.4 1.9345e-15 0)
(1.4 1.64122e-15 0)
(1.4 1.58669e-15 0)
(1.4 1.71859e-15 0)
(1.4 1.8772e-15 0)
(1.4 1.93502e-15 0)
(1.4 2.02054e-15 0)
(1.4 2.11604e-15 0)
(1.4 2.14298e-15 0)
(1.4 1.78712e-15 0)
(1.4 1.44924e-15 0)
(1.4 1.09654e-15 0)
(1.4 6.36688e-16 0)
(1.4 4.40614e-16 0)
(1.4 4.05099e-16 0)
(1.4 2.85387e-16 0)
(1.4 3.35839e-16 0)
(1.4 5.76003e-16 0)
(1.4 7.2558e-16 0)
(1.4 2.79018e-16 0)
(1.4 -5.27128e-17 0)
(1.4 -2.14877e-16 0)
(1.4 -1.3451e-16 0)
(1.4 -5.82616e-17 0)
(1.4 6.47597e-17 0)
(1.4 7.34792e-17 0)
(1.4 -7.4387e-17 0)
(1.4 -2.77947e-16 0)
(1.4 -3.74173e-16 0)
(1.4 -4.16384e-16 0)
(1.4 -4.26268e-16 0)
(1.4 -3.87312e-16 0)
(1.4 -4.08911e-16 0)
(1.4 -3.92705e-16 0)
(1.4 -3.96373e-16 0)
(1.4 -1.69237e-16 0)
(1.4 3.72682e-17 0)
(1.4 2.83256e-16 0)
(1.4 4.19781e-16 0)
(1.4 7.66378e-16 0)
(1.4 1.06829e-15 0)
(1.4 1.27772e-15 0)
(1.4 1.12667e-15 0)
(1.4 1.21989e-15 0)
(1.4 1.19095e-15 0)
(1.4 1.3132e-15 0)
(1.4 1.5187e-15 0)
(1.4 1.4491e-15 0)
(1.4 1.63028e-15 0)
(1.4 1.08829e-15 0)
(1.4 -2.60022e-15 0)
(1.4 -2.68007e-15 0)
(1.4 -2.62028e-15 0)
(1.4 -2.54137e-15 0)
(1.4 -2.46291e-15 0)
(1.4 -2.54087e-15 0)
(1.4 -1.6512e-15 0)
(1.4 -1.36127e-15 0)
(1.4 -1.05326e-15 0)
(1.4 -1.0312e-15 0)
(1.4 -1.21333e-15 0)
(1.4 -1.27821e-15 0)
(1.4 -1.33212e-15 0)
(1.4 -1.39968e-15 0)
(1.4 -1.20624e-15 0)
(1.4 -3.77536e-16 0)
(1.4 -1.57984e-16 0)
(1.4 -5.78673e-17 0)
(1.4 1.87275e-18 0)
(1.4 5.59658e-16 0)
(1.4 8.81845e-16 0)
(1.4 1.02602e-15 0)
(1.4 1.27859e-15 0)
(1.4 1.46467e-15 0)
(1.4 1.93443e-15 0)
(1.4 2.44887e-15 0)
(1.4 2.73665e-15 0)
(1.4 3.15417e-15 0)
(1.4 3.76649e-15 0)
(1.4 3.94624e-15 0)
(1.4 4.21621e-15 0)
(1.4 3.73612e-15 0)
(1.4 3.27953e-15 0)
(1.4 2.83999e-15 0)
(1.4 2.36398e-15 0)
(1.4 2.234e-15 0)
(1.4 1.72294e-15 0)
(1.4 1.36525e-15 0)
(1.4 1.20644e-15 0)
(1.4 1.13628e-15 0)
(1.4 3.70457e-16 0)
(1.4 -1.16543e-16 0)
(1.4 -5.94248e-16 0)
(1.4 -9.43168e-16 0)
(1.4 -1.14496e-15 0)
(1.4 -1.1337e-15 0)
(1.4 -1.32416e-15 0)
(1.4 -1.47278e-15 0)
(1.4 -1.53929e-15 0)
(1.4 -1.65359e-15 0)
(1.4 -1.92631e-15 0)
(1.4 -2.14263e-15 0)
(1.4 -2.50241e-15 0)
(1.4 -2.78992e-15 0)
(1.4 -2.99562e-15 0)
(1.4 -2.99644e-15 0)
(1.4 -2.73061e-15 0)
(1.4 -2.68796e-15 0)
(1.4 -2.68131e-15 0)
(1.4 -2.48234e-15 0)
(1.4 -2.00184e-15 0)
(1.4 -1.60638e-15 0)
(1.4 -1.17646e-15 0)
(1.4 -9.81363e-16 0)
(1.4 -6.78355e-16 0)
(1.4 -3.38573e-16 0)
(1.4 -6.50248e-17 0)
(1.4 3.12212e-16 0)
(1.4 1.04372e-15 0)
(1.4 1.39559e-15 0)
(1.4 1.82943e-15 0)
(1.4 2.10008e-15 0)
(1.4 2.21989e-15 0)
(1.4 2.2539e-15 0)
(1.4 2.15355e-15 0)
(1.4 2.17461e-15 0)
(1.4 2.32362e-15 0)
(1.4 2.38014e-15 0)
(1.4 2.16741e-15 0)
(1.4 2.27773e-15 0)
(1.4 2.28922e-15 0)
(1.4 2.23445e-15 0)
(1.4 2.39394e-15 0)
(1.4 2.73671e-15 0)
(1.4 2.8927e-15 0)
(1.4 2.81979e-15 0)
(1.4 2.80756e-15 0)
(1.4 2.89894e-15 0)
(1.4 2.89674e-15 0)
(1.4 2.6992e-15 0)
(1.4 2.24092e-15 0)
(1.4 1.90491e-15 0)
(1.4 1.41923e-15 0)
(1.4 1.01219e-15 0)
(1.4 4.01735e-16 0)
(1.4 -3.57714e-17 0)
(1.4 -2.07908e-16 0)
(1.4 -3.69708e-16 0)
(1.4 -4.87228e-16 0)
(1.4 -4.35848e-16 0)
(1.4 -3.08071e-16 0)
(1.4 1.07123e-16 0)
(1.4 3.46369e-16 0)
(1.4 5.26669e-16 0)
(1.4 6.53622e-16 0)
(1.4 7.91418e-16 0)
(1.4 8.79746e-16 0)
(1.4 8.91124e-16 0)
(1.4 6.35901e-16 0)
(1.4 2.4841e-16 0)
(1.4 2.57429e-18 0)
(1.4 8.43935e-17 0)
(1.4 3.63992e-16 0)
(1.4 3.78475e-16 0)
(1.4 3.3377e-16 0)
(1.4 4.57126e-16 0)
(1.4 6.29185e-16 0)
(1.4 9.03905e-16 0)
(1.4 1.24613e-15 0)
(1.4 1.45968e-15 0)
(1.4 1.24385e-15 0)
(1.4 7.35807e-16 0)
(1.4 1.91213e-16 0)
(1.4 -1.17564e-16 0)
(1.4 -2.36192e-16 0)
(1.4 -2.50489e-16 0)
(1.4 -5.56332e-16 0)
(1.4 -7.01999e-16 0)
(1.4 -8.87641e-16 0)
(1.4 -1.11292e-15 0)
(1.4 -1.37235e-15 0)
(1.4 -1.1974e-15 0)
(1.4 -2.44331e-15 0)
(1.4 -1.89243e-15 0)
(1.4 -1.67266e-15 0)
(1.4 -1.31382e-15 0)
(1.4 -9.4819e-16 0)
(1.4 -7.19981e-16 0)
(1.4 -7.04064e-16 0)
(1.4 -3.7162e-16 0)
(1.4 1.29978e-16 0)
(1.4 2.12944e-16 0)
(1.4 2.07025e-16 0)
(1.4 -6.24857e-17 0)
(1.4 -7.60723e-16 0)
(1.4 -1.57553e-15 0)
(1.4 -1.85741e-15 0)
(1.4 -1.99377e-15 0)
(1.4 -2.16369e-15 0)
(1.4 -2.27144e-15 0)
(1.4 -2.19538e-15 0)
(1.4 -1.76012e-15 0)
(1.4 -1.45031e-15 0)
(1.4 -9.201e-16 0)
(1.4 -6.18562e-16 0)
(1.4 -1.91575e-16 0)
(1.4 2.06745e-16 0)
(1.4 7.64127e-16 0)
(1.4 1.19398e-15 0)
(1.4 1.64596e-15 0)
(1.4 2.8028e-15 0)
(1.4 3.26145e-15 0)
(1.4 3.39979e-15 0)
(1.4 3.90972e-15 0)
(1.4 4.25705e-15 0)
(1.4 4.39165e-15 0)
(1.4 3.77494e-15 0)
(1.4 3.45527e-15 0)
(1.4 2.83834e-15 0)
(1.4 1.871e-15 0)
(1.4 5.81923e-16 0)
(1.4 -6.63782e-17 0)
(1.4 -8.41492e-16 0)
(1.4 -1.17507e-15 0)
(1.4 -1.19864e-15 0)
(1.4 -1.30131e-15 0)
(1.4 -1.5214e-15 0)
(1.4 -1.58855e-15 0)
(1.4 -1.68202e-15 0)
(1.4 -1.70909e-15 0)
(1.4 -1.91996e-15 0)
(1.4 -2.32482e-15 0)
(1.4 -2.70095e-15 0)
(1.4 -2.79635e-15 0)
(1.4 -2.59156e-15 0)
(1.4 -1.94005e-15 0)
(1.4 -1.8088e-15 0)
(1.4 -1.46289e-15 0)
(1.4 -1.44043e-15 0)
(1.4 -1.40221e-15 0)
(1.4 -1.44663e-15 0)
(1.4 -1.3415e-15 0)
(1.4 -1.13524e-15 0)
(1.4 -1.11057e-15 0)
(1.4 -1.02049e-15 0)
(1.4 -1.17668e-15 0)
(1.4 -8.36448e-16 0)
(1.4 -4.36413e-16 0)
(1.4 1.39356e-16 0)
(1.4 8.87056e-16 0)
(1.4 1.43407e-15 0)
(1.4 1.5049e-15 0)
(1.4 1.35659e-15 0)
(1.4 1.1927e-15 0)
(1.4 1.07804e-15 0)
(1.4 1.19257e-15 0)
(1.4 1.31354e-15 0)
(1.4 1.15822e-15 0)
(1.4 1.14578e-15 0)
(1.4 1.08082e-15 0)
(1.4 6.75132e-16 0)
(1.4 7.91121e-16 0)
(1.4 9.16394e-16 0)
(1.4 1.10128e-15 0)
(1.4 1.19535e-15 0)
(1.4 1.35222e-15 0)
(1.4 1.73269e-15 0)
(1.4 2.16655e-15 0)
(1.4 2.32338e-15 0)
(1.4 2.34712e-15 0)
(1.4 2.49693e-15 0)
(1.4 2.42502e-15 0)
(1.4 2.24775e-15 0)
(1.4 2.13704e-15 0)
(1.4 2.11731e-15 0)
(1.4 1.93732e-15 0)
(1.4 1.9089e-15 0)
(1.4 1.68281e-15 0)
(1.4 1.40511e-15 0)
(1.4 1.38697e-15 0)
(1.4 1.49266e-15 0)
(1.4 1.54975e-15 0)
(1.4 1.56875e-15 0)
(1.4 1.87077e-15 0)
(1.4 2.16988e-15 0)
(1.4 2.66959e-15 0)
(1.4 2.59689e-15 0)
(1.4 2.47161e-15 0)
(1.4 2.28827e-15 0)
(1.4 2.27538e-15 0)
(1.4 2.17591e-15 0)
(1.4 1.90122e-15 0)
(1.4 1.56163e-15 0)
(1.4 1.38362e-15 0)
(1.4 1.27577e-15 0)
(1.4 1.12695e-15 0)
(1.4 1.16963e-15 0)
(1.4 1.29978e-15 0)
(1.4 1.54322e-15 0)
(1.4 1.73072e-15 0)
(1.4 1.70494e-15 0)
(1.4 1.35429e-15 0)
(1.4 2.40753e-16 0)
(1.4 -3.08733e-16 0)
(1.4 -7.03801e-16 0)
(1.4 -9.83574e-16 0)
(1.4 -9.59602e-16 0)
(1.4 -1.0009e-15 0)
(1.4 -1.08393e-15 0)
(1.4 -1.1996e-15 0)
(1.4 -1.31359e-15 0)
(1.4 -1.39499e-15 0)
(1.4 -1.72675e-15 0)
(1.4 -2.33157e-15 0)
(1.4 -1.49525e-15 0)
(1.4 -1.44884e-15 0)
(1.4 -1.24111e-15 0)
(1.4 -9.54034e-16 0)
(1.4 -4.67905e-16 0)
(1.4 -2.45411e-16 0)
(1.4 -1.29478e-16 0)
(1.4 -2.65921e-16 0)
(1.4 -3.80489e-16 0)
(1.4 -4.06741e-16 0)
(1.4 -2.99548e-16 0)
(1.4 -4.73558e-17 0)
(1.4 7.91986e-18 0)
(1.4 -3.65669e-16 0)
(1.4 -1.07467e-15 0)
(1.4 -1.3171e-15 0)
(1.4 -1.99909e-15 0)
(1.4 -2.39238e-15 0)
(1.4 -2.46619e-15 0)
(1.4 -2.4206e-15 0)
(1.4 -2.37866e-15 0)
(1.4 -2.17227e-15 0)
(1.4 -2.21766e-15 0)
(1.4 -2.49317e-15 0)
(1.4 -2.05349e-15 0)
(1.4 -2.10091e-15 0)
(1.4 -1.54033e-15 0)
(1.4 -1.21872e-15 0)
(1.4 -8.43234e-16 0)
(1.4 -4.34263e-16 0)
(1.4 -2.36586e-16 0)
(1.4 1.64508e-16 0)
(1.4 3.82656e-16 0)
(1.4 5.73815e-16 0)
(1.4 9.15167e-16 0)
(1.4 1.19025e-15 0)
(1.4 1.33681e-15 0)
(1.4 1.21754e-15 0)
(1.4 6.82319e-16 0)
(1.4 1.19922e-16 0)
(1.4 -9.0377e-17 0)
(1.4 -4.91675e-16 0)
(1.4 -9.24382e-16 0)
(1.4 -1.61978e-15 0)
(1.4 -2.03434e-15 0)
(1.4 -2.31192e-15 0)
(1.4 -2.33953e-15 0)
(1.4 -2.43142e-15 0)
(1.4 -2.38134e-15 0)
(1.4 -2.19457e-15 0)
(1.4 -2.01506e-15 0)
(1.4 -1.46051e-15 0)
(1.4 -1.17013e-15 0)
(1.4 -6.32572e-16 0)
(1.4 -8.89083e-17 0)
(1.4 2.87171e-16 0)
(1.4 4.30299e-16 0)
(1.4 4.22711e-16 0)
(1.4 3.61626e-16 0)
(1.4 3.44689e-16 0)
(1.4 3.22583e-16 0)
(1.4 3.07267e-16 0)
(1.4 1.27595e-16 0)
(1.4 1.87207e-16 0)
(1.4 3.94896e-16 0)
(1.4 1.83554e-16 0)
(1.4 -2.7723e-17 0)
(1.4 -8.66676e-17 0)
(1.4 -1.17488e-16 0)
(1.4 -1.62942e-16 0)
(1.4 -3.08592e-16 0)
(1.4 -6.61276e-16 0)
(1.4 -7.93714e-16 0)
(1.4 -7.47579e-16 0)
(1.4 -6.26203e-16 0)
(1.4 -7.27687e-16 0)
(1.4 -7.96109e-16 0)
(1.4 -9.5594e-16 0)
(1.4 -1.00244e-15 0)
(1.4 -1.0362e-15 0)
(1.4 -8.20478e-16 0)
(1.4 2.22327e-17 0)
(1.4 -2.3345e-17 0)
(1.4 -1.78995e-16 0)
(1.4 -2.11236e-16 0)
(1.4 1.67999e-16 0)
(1.4 4.46946e-16 0)
(1.4 1.02781e-15 0)
(1.4 1.62437e-15 0)
(1.4 1.79256e-15 0)
(1.4 2.11273e-15 0)
(1.4 1.97272e-15 0)
(1.4 1.77651e-15 0)
(1.4 2.04188e-15 0)
(1.4 2.22014e-15 0)
(1.4 2.41915e-15 0)
(1.4 2.61325e-15 0)
(1.4 2.63159e-15 0)
(1.4 2.51957e-15 0)
(1.4 2.49501e-15 0)
(1.4 2.26659e-15 0)
(1.4 1.97382e-15 0)
(1.4 1.89329e-15 0)
(1.4 1.95171e-15 0)
(1.4 1.99408e-15 0)
(1.4 2.09595e-15 0)
(1.4 1.95335e-15 0)
(1.4 1.98769e-15 0)
(1.4 2.10778e-15 0)
(1.4 2.07875e-15 0)
(1.4 2.01625e-15 0)
(1.4 1.97724e-15 0)
(1.4 1.94713e-15 0)
(1.4 2.22544e-15 0)
(1.4 2.40665e-15 0)
(1.4 2.1269e-15 0)
(1.4 1.91537e-15 0)
(1.4 1.45011e-15 0)
(1.4 7.71099e-16 0)
(1.4 -4.99712e-16 0)
(1.4 -7.69892e-16 0)
(1.4 -1.23674e-15 0)
(1.4 -1.50452e-15 0)
(1.4 -1.68952e-15 0)
(1.4 -1.4765e-15 0)
(1.4 -1.29861e-15 0)
(1.4 -9.77122e-16 0)
(1.4 -8.82407e-16 0)
(1.4 -9.26644e-16 0)
(1.4 -9.99203e-16 0)
(1.4 -8.67305e-16 0)
(1.4 -8.90743e-16 0)
(1.4 -1.75973e-16 0)
(1.4 -6.81114e-17 0)
(1.4 2.08152e-17 0)
(1.4 2.46e-16 0)
(1.4 3.19994e-16 0)
(1.4 3.01476e-16 0)
(1.4 2.46134e-16 0)
(1.4 2.52535e-17 0)
(1.4 -1.38561e-16 0)
(1.4 -1.88005e-16 0)
(1.4 1.08114e-16 0)
(1.4 1.9023e-16 0)
(1.4 2.14797e-16 0)
(1.4 7.76613e-17 0)
(1.4 3.11127e-17 0)
(1.4 -3.74165e-16 0)
(1.4 -1.00543e-15 0)
(1.4 -1.45522e-15 0)
(1.4 -1.93091e-15 0)
(1.4 -2.328e-15 0)
(1.4 -2.92124e-15 0)
(1.4 -3.18454e-15 0)
(1.4 -3.63798e-15 0)
(1.4 -4.25161e-15 0)
(1.4 -4.48117e-15 0)
(1.4 -4.24246e-15 0)
(1.4 -4.06496e-15 0)
(1.4 -3.75069e-15 0)
(1.4 -3.56349e-15 0)
(1.4 -3.43716e-15 0)
(1.4 -3.08899e-15 0)
(1.4 -2.77434e-15 0)
(1.4 -2.26399e-15 0)
(1.4 -1.8011e-15 0)
(1.4 -1.50421e-15 0)
(1.4 -7.24673e-16 0)
(1.4 -6.25507e-16 0)
(1.4 -3.68251e-16 0)
(1.4 -3.09232e-17 0)
(1.4 1.79488e-16 0)
(1.4 1.63767e-16 0)
(1.4 -1.3765e-16 0)
(1.4 -3.86221e-16 0)
(1.4 -5.48833e-16 0)
(1.4 -5.85041e-16 0)
(1.4 -4.13445e-16 0)
(1.4 -2.24013e-16 0)
(1.4 -9.92712e-17 0)
(1.4 4.47519e-16 0)
(1.4 1.37589e-15 0)
(1.4 1.78512e-15 0)
(1.4 1.53236e-15 0)
(1.4 1.41109e-15 0)
(1.4 9.57579e-16 0)
(1.4 7.00359e-16 0)
(1.4 7.37878e-16 0)
(1.4 1.00498e-15 0)
(1.4 1.3368e-15 0)
(1.4 1.4696e-15 0)
(1.4 1.48372e-15 0)
(1.4 1.50719e-15 0)
(1.4 1.5187e-15 0)
(1.4 1.39164e-15 0)
(1.4 1.39548e-15 0)
(1.4 1.25536e-15 0)
(1.4 1.11674e-15 0)
(1.4 1.12523e-15 0)
(1.4 4.23616e-16 0)
(1.4 2.38115e-16 0)
(1.4 -1.32666e-17 0)
(1.4 -4.00041e-16 0)
(1.4 -4.97204e-16 0)
(1.4 -5.65338e-16 0)
(1.4 -7.05977e-16 0)
(1.4 -7.40717e-16 0)
(1.4 -7.31748e-16 0)
(1.4 -7.2658e-16 0)
(1.4 -6.74305e-16 0)
(1.4 -5.80831e-16 0)
(1.4 -5.78531e-16 0)
(1.4 -6.73835e-16 0)
(1.4 -8.80528e-16 0)
(1.4 -8.93468e-16 0)
(1.4 -8.94666e-16 0)
(1.4 -6.83591e-16 0)
(1.4 -6.12368e-16 0)
(1.4 -5.77291e-16 0)
(1.4 -4.29367e-16 0)
(1.4 -3.70273e-16 0)
(1.4 -9.80302e-17 0)
(1.4 2.72245e-16 0)
(1.4 3.52686e-16 0)
(1.4 4.35826e-16 0)
(1.4 8.44876e-16 0)
(1.4 1.00143e-15 0)
(1.4 1.13708e-15 0)
(1.4 1.18097e-15 0)
(1.4 1.13442e-15 0)
(1.4 9.84495e-16 0)
(1.4 7.46879e-16 0)
(1.4 7.70446e-16 0)
(1.4 7.44639e-16 0)
(1.4 9.72446e-16 0)
(1.4 1.18814e-15 0)
(1.4 1.44283e-15 0)
(1.4 1.54576e-15 0)
(1.4 1.60117e-15 0)
(1.4 1.65931e-15 0)
(1.4 1.66398e-15 0)
(1.4 1.6039e-15 0)
(1.4 1.68276e-15 0)
(1.4 1.44758e-15 0)
(1.4 9.77479e-16 0)
(1.4 6.90798e-16 0)
(1.4 5.62821e-16 0)
(1.4 -1.8073e-16 0)
(1.4 -7.39115e-16 0)
(1.4 -1.56893e-15 0)
(1.4 -1.95919e-15 0)
(1.4 -2.15498e-15 0)
(1.4 -2.22458e-15 0)
(1.4 -2.3258e-15 0)
(1.4 -2.36916e-15 0)
(1.4 -2.51455e-15 0)
(1.4 -2.67978e-15 0)
(1.4 -2.49262e-15 0)
(1.4 -2.3535e-15 0)
(1.4 -2.09848e-15 0)
(1.4 -2.0871e-15 0)
(1.4 -1.99069e-15 0)
(1.4 -1.63365e-15 0)
(1.4 -1.00211e-15 0)