/*--------------------------------*- C++ -*----------------------------------*\
  =========                 |
  \\      /  F ield         | OpenFOAM: The Open Source CFD Toolbox
   \\    /   O peration     | Website:  https://openfoam.org
    \\  /    A nd           | Version:  7
     \\/     M anipulation  |
\*---------------------------------------------------------------------------*/
FoamFile
{
    version     2.0;
    format      ascii;
    class       surfaceScalarField;
    location    "1.6";
    object      phi;
}
// * * * * * * * * * * * * * * * * * * * * * * * * * * * * * * * * * * * * * //

dimensions      [0 3 -1 0 0 0 0];

internalField   nonuniform List<scalar> 
28816
(
-9.80868e-07
9.80868e-07
-5.34298e-07
5.34297e-07
6.27037e-06
-6.27038e-06
-0.000198657
0.000198657
-0.000129608
0.000129608
-0.000180661
0.000180661
9.93864e-07
-9.93864e-07
6.77685e-06
-6.77685e-06
6.32125e-06
-6.32125e-06
-2.67093e-07
2.67093e-07
2.94906e-07
-2.94906e-07
6.09293e-05
-6.09293e-05
-5.38714e-05
5.38714e-05
4.7549e-05
-4.75491e-05
4.13079e-05
-4.1308e-05
3.6236e-05
-3.6236e-05
-3.01214e-05
3.01214e-05
1.70979e-07
-1.7098e-07
1.18576e-07
-1.18576e-07
-7.7675e-08
7.76749e-08
-2.39126e-07
2.39126e-07
4.53245e-08
-4.53245e-08
2.31222e-08
-2.31222e-08
3.09704e-07
-3.09704e-07
3.60489e-07
-3.60489e-07
-5.63288e-07
5.63288e-07
0.00010083
-0.00010083
-9.48633e-07
9.48633e-07
0.000113236
-0.000113236
6.74624e-07
-6.74624e-07
-1.1047e-06
1.1047e-06
1.2745e-06
-1.2745e-06
-5.74473e-09
5.74472e-09
-0.00010304
0.00010304
1.2876e-06
-1.28761e-06
0.00016674
-0.00016674
-1.74925e-06
1.74925e-06
2.19219e-06
-2.19219e-06
2.11353e-06
-2.11353e-06
2.8311e-06
-2.8311e-06
8.45114e-05
-8.45114e-05
3.2022e-06
-3.20221e-06
-3.42484e-06
3.42484e-06
-4.05156e-06
4.05156e-06
0.000215184
-0.000215184
5.75107e-06
-5.75107e-06
6.43034e-06
-6.43035e-06
5.47575e-06
-5.47576e-06
6.91275e-06
-6.91275e-06
-1.46739e-07
1.46739e-07
-9.96082e-08
9.96082e-08
-2.07232e-07
2.07232e-07
-1.15121e-06
1.15121e-06
-1.17485e-06
1.17485e-06
-1.3866e-08
1.3866e-08
-1.30307e-06
1.30307e-06
-1.7529e-06
1.7529e-06
-9.75426e-05
9.75426e-05
-1.97054e-06
1.97053e-06
7.82091e-05
-7.82091e-05
-2.4933e-06
2.4933e-06
-2.98905e-06
2.98905e-06
0.000156386
-0.000156386
-6.41632e-06
6.41632e-06
-3.36824e-06
3.36824e-06
5.17357e-07
-5.17357e-07
-6.67711e-07
6.67711e-07
7.23658e-06
-7.23659e-06
6.51653e-05
-6.51654e-05
-6.28376e-05
6.28376e-05
5.40268e-05
-5.40269e-05
8.10059e-06
-8.10059e-06
-8.66062e-05
8.66062e-05
4.83485e-05
-4.83485e-05
6.91853e-06
-6.91853e-06
-3.52469e-06
3.52469e-06
4.2598e-05
-4.25981e-05
-6.2596e-05
6.2596e-05
3.62373e-05
-3.62373e-05
7.29468e-06
-7.29469e-06
-1.03353e-05
1.03353e-05
-3.03716e-05
3.03716e-05
2.87535e-05
-2.87535e-05
1.38184e-05
-1.38184e-05
2.92538e-05
-2.92538e-05
1.3162e-05
-1.31621e-05
-4.33179e-05
4.33179e-05
2.6123e-05
-2.6123e-05
1.43697e-05
-1.43698e-05
-1.82497e-05
1.82497e-05
1.90126e-05
-1.90126e-05
-3.72133e-05
3.72133e-05
1.56534e-05
-1.56534e-05
-3.26233e-05
3.26233e-05
1.27695e-05
-1.27695e-05
1.41917e-05
-1.41917e-05
1.38647e-05
-1.38647e-05
-2.21786e-05
2.21786e-05
-4.66955e-07
4.66955e-07
0.000116467
-0.000116467
1.30183e-06
-1.30183e-06
-5.08196e-05
5.08196e-05
-5.44615e-05
5.44614e-05
-3.26475e-08
3.26474e-08
-1.60175e-05
1.60175e-05
-6.40633e-06
6.40633e-06
-3.04311e-05
3.04311e-05
-3.95419e-07
3.95419e-07
-3.09712e-05
3.09712e-05
5.79899e-05
-5.799e-05
-5.45716e-06
5.45715e-06
5.71115e-08
-5.71115e-08
-8.89892e-05
8.89892e-05
-7.17938e-08
7.17938e-08
1.58477e-05
-1.58477e-05
-8.10874e-05
8.10873e-05
-0.000124112
0.000124112
-1.0205e-06
1.0205e-06
-1.08085e-05
1.08085e-05
-3.94466e-06
3.94466e-06
-1.11253e-05
1.11253e-05
-4.47305e-07
4.47305e-07
-6.8648e-05
6.8648e-05
8.37598e-07
-8.37598e-07
7.14462e-06
-7.14462e-06
-1.02751e-05
1.02751e-05
-5.79571e-10
5.79571e-10
1.50152e-07
-7.48741e-06
7.33726e-06
-3.88714e-06
3.02581e-06
8.61314e-07
0.00469762
-0.000272919
-0.00442469
-1.71844e-05
9.13999e-05
-7.42155e-05
0.000231744
6.34838e-05
-0.000295228
0.00192299
0.000216792
-0.00213978
-3.95564e-05
-0.00025294
0.000292495
0.000158069
-1.6532e-05
-0.000141537
7.98069e-05
-0.000740301
0.000660494
-0.00599004
0.00850578
-0.00251575
5.02261e-05
-0.000143608
9.33818e-05
-0.000486234
0.000805868
-0.000319633
4.30243e-05
-1.17785e-05
-3.12459e-05
-0.000115948
9.88823e-05
1.70659e-05
-0.00746884
0.00121234
0.0062565
-1.30162e-05
-0.000221151
0.000234166
-0.00108662
0.000933272
0.000153346
5.82633e-07
3.99205e-05
-4.05032e-05
0.000228601
-8.93004e-05
-0.000139301
-0.00103196
0.00644314
-0.00541118
-0.000197472
0.000180619
1.68521e-05
-4.94411e-05
3.58457e-05
1.35953e-05
0.00231585
-0.00294967
0.00063382
0.00314537
-0.000829534
0.00546744
-0.00606698
0.000599537
0.000277286
-4.5542e-05
0.00190916
-0.00149102
-0.000418138
0.000415961
-0.000474518
5.85569e-05
0.00686995
-0.007458
0.000588063
7.26665e-06
-7.25324e-05
6.52658e-05
0.000243362
-0.000426475
0.000183112
0.000166203
0.000830807
-0.000997011
1.52333e-05
5.68505e-05
-7.20838e-05
0.000101621
-3.32689e-05
-6.83525e-05
-2.07868e-05
1.94337e-05
1.35307e-06
0.000109155
-8.51642e-05
-2.39915e-05
7.61607e-05
0.000196533
-0.000272694
-0.00025321
0.000311159
-5.79486e-05
7.66805e-05
-4.02272e-06
-7.2658e-05
0.000123198
-0.000541684
0.000418487
-4.20946e-05
5.30051e-05
-1.09105e-05
0.000468114
-0.000384229
-8.38855e-05
5.59883e-05
-2.28085e-05
-3.31799e-05
0.000334584
0.00436304
-7.8341e-05
-2.73956e-05
0.000105736
-8.47508e-05
0.000144203
-5.9452e-05
0.000274436
-0.000321422
4.69865e-05
-0.000235587
0.000442343
-0.000206757
4.9344e-05
-3.39968e-05
-1.53471e-05
-6.10351e-05
0.000304398
0.000286039
-0.000227535
-5.85036e-05
0.000668957
0.00127816
-0.00194712
0.00141142
-0.00106674
-0.000344682
-7.62726e-05
1.27829e-05
6.34897e-05
-0.0112764
0.0115481
-0.000271652
0.000146453
1.16162e-05
-0.00119387
0.00136007
-0.000816787
0.000330554
0.000179138
-0.000171896
-7.2421e-06
-0.00514329
0.00689377
-0.00175048
0.000336332
0.000118949
-0.000455281
-0.000101583
-0.000270254
0.000371838
-5.41971e-05
1.21026e-05
-2.5155e-06
3.4888e-07
2.16662e-06
-0.000148797
6.40463e-05
0.000270471
-0.00282718
0.00255671
-0.000207813
0.000194796
-0.000124002
2.44044e-05
9.95972e-05
-0.000515391
-0.000929329
0.00144472
0.00764896
-0.000779024
-1.58729e-05
3.8417e-05
-2.2544e-05
-0.000325702
7.24912e-05
-0.000325132
-7.46697e-05
0.000399802
1.35169e-05
-0.00020011
0.000186594
-0.000551463
0.000798808
-0.000247346
0.00121172
0.00215561
-0.00336733
-2.08319e-05
1.83189e-05
2.51298e-06
0.000637748
0.000887274
-0.00152502
-0.00837101
0.00238096
-5.20044e-05
1.66335e-05
3.53707e-05
0.00014719
-7.15815e-05
-7.56085e-05
-9.93317e-05
0.000149558
1.76398e-05
-1.48436e-05
-2.79619e-06
9.72889e-06
6.69515e-05
-0.000222344
-0.00231694
0.00253929
3.46991e-06
-7.65633e-05
7.30932e-05
-2.48319e-05
-2.46092e-05
9.9193e-05
-0.000116377
0.00203197
-0.0023816
0.00034962
0.000274181
0.000188731
-0.000462912
-0.00486552
0.00545964
-0.000594115
0.00245798
-0.00154206
-0.000915925
-0.0108186
0.00470651
0.0061121
-0.000252066
-0.000760609
0.00101267
-6.68485e-05
0.000175751
-0.000108903
3.35995e-05
-0.000111941
1.01426e-05
-9.41608e-06
-7.26467e-07
3.17498e-05
-9.01152e-05
5.83654e-05
-5.04022e-05
4.46081e-05
5.79404e-06
-0.0039662
0.00483425
-0.000868055
-1.4668e-05
0.000126864
-0.000112196
-5.00675e-06
-7.64223e-06
1.2649e-05
-0.000138315
0.000871752
-0.000733435
0.00138016
-0.0016629
0.000282739
0.00352689
-0.0045357
0.0010088
0.000261037
-0.000184877
5.9283e-06
1.17114e-05
-3.19162e-05
-0.000219136
0.000251053
-6.32961e-06
-1.03256e-05
1.66553e-05
-0.00013128
-0.000173792
0.000305073
-2.09998e-05
4.91036e-05
-2.81038e-05
0.000123439
-0.000127498
4.05963e-06
0.0022484
-0.000325413
-2.39825e-05
0.00020312
0.00021028
-0.000445867
-0.000132306
-4.50485e-05
0.000177355
-0.0014471
-0.00602173
-8.86719e-06
0.000684699
-0.000675832
-0.000517413
0.000291463
0.000225949
-0.000158156
0.000220053
-6.18969e-05
3.06699e-05
0.000331264
-0.000361934
-9.53135e-05
0.000106767
-1.1453e-05
8.20214e-05
-7.10654e-05
-1.09559e-05
-2.9867e-05
3.74133e-05
-7.54636e-06
1.28606e-05
-1.33327e-05
4.72091e-07
0.000160427
-0.00019234
3.19137e-05
-3.95992e-05
1.97507e-05
1.98485e-05
0.000175698
-0.000162181
-8.77317e-06
-1.54823e-05
2.42555e-05
-0.0125529
0.0089887
0.00356425
5.92536e-05
-0.000214827
0.000155574
5.0425e-05
-8.28026e-05
3.23776e-05
3.91167e-05
1.68717e-05
-0.000127474
1.16814e-05
0.000115793
-9.68395e-05
8.8028e-05
8.81154e-06
-0.00235931
0.00262978
0.000315344
-0.000284674
-0.00554917
-0.00331801
0.0088672
-0.0016296
0.0011142
1.76387e-05
-1.70561e-05
4.60141e-05
6.99092e-06
-0.000116955
0.000121681
-4.72569e-06
-9.61812e-05
8.67678e-07
0.000247434
-0.000254286
6.85292e-06
0.000798681
-0.000718873
0.000106749
-0.000115712
8.96298e-06
1.59105e-06
-9.84307e-05
-0.000187709
5.54036e-05
0.000346374
-0.000133785
-0.000212588
8.69146e-05
-0.000512931
0.000426017
-0.00735492
0.000320538
0.00703438
-0.000294585
0.000307615
-1.30306e-05
0.000257553
-1.01194e-05
2.08934e-05
-0.000188475
0.000167581
0.000498075
0.000108958
-0.000607034
-2.24604e-05
-1.71388e-05
-6.56723e-05
8.34338e-05
-1.77615e-05
-0.000108749
-8.20574e-06
-3.97137e-06
-0.000234854
0.000238825
-5.23586e-05
-0.000770207
0.000822563
0.000154087
-0.00010909
-4.49972e-05
-2.71835e-06
-8.62567e-06
1.1344e-05
-0.000192147
0.000188175
-0.00741413
-0.000197539
0.00761168
0.0044337
-0.000906811
-4.80748e-06
3.54682e-06
1.26064e-06
-0.00011986
0.000133264
-1.34036e-05
-0.00032443
0.000222848
0.000275308
0.000192807
0.000336666
-0.000376223
0.000285216
-1.07799e-05
7.02421e-05
0.000215797
0.00283316
-0.00146576
-0.0013674
-9.48774e-05
-0.000445919
0.000540796
5.53658e-05
0.000321079
-0.000376445
1.05994e-05
-1.56062e-05
1.80799e-05
-1.58611e-05
-2.21883e-06
4.67485e-05
-0.00117019
0.00112345
-2.15366e-05
2.7683e-06
1.87683e-05
1.62909e-05
-7.17024e-05
5.54115e-05
5.33946e-05
4.82266e-05
-0.000174544
0.000622891
-0.000448347
0.00453872
-0.00477635
0.000237627
-0.000272034
0.00013601
0.000136024
-0.0057639
0.000620609
0.00443913
-0.00451705
7.7924e-05
8.12938e-05
-9.89311e-05
1.76375e-05
0.000117992
5.44717e-06
1.55163e-06
8.58269e-06
-1.01343e-05
-0.000305497
0.000367236
-6.17392e-05
1.28679e-05
-1.55862e-05
0.000569418
-0.000590961
2.15432e-05
-0.00090453
0.000353067
-0.000156635
-0.000103281
0.000259916
3.11565e-06
2.99928e-05
-3.31085e-05
-0.000149933
2.59312e-05
-6.74785e-06
-4.07986e-05
4.75465e-05
-0.000237202
0.00024216
-4.9577e-06
0.00426024
-0.0098094
1.36426e-05
9.31068e-05
1.48712e-07
-2.66422e-06
-0.000123236
-4.23822e-06
9.78236e-06
5.04959e-05
-6.02781e-05
-9.69917e-05
8.23233e-05
-0.000567575
7.04368e-05
0.000497137
0.000235907
-0.00025262
1.67131e-05
0.00113708
-0.000578836
-0.000558242
2.67557e-05
-0.000247906
0.000940448
-0.00107876
5.46323e-05
5.45232e-05
3.0346e-06
7.26779e-06
-1.03024e-05
-0.000244525
0.0001264
0.000118126
0.000228669
-0.000334034
0.000105366
-3.60282e-05
0.000206945
-0.000170917
0.00229791
-0.000901966
-0.00139595
0.000582443
0.000554633
-0.000196649
8.05003e-05
0.000116149
-0.000541425
0.00063542
-9.39948e-05
0.000120414
-0.00022464
0.000104226
-7.5945e-05
6.72583e-06
6.92192e-05
-0.000901194
-0.000185425
-0.000112296
-1.5132e-05
0.000127428
3.26562e-05
1.03682e-05
-0.00287658
0.000724662
0.00215193
-0.000208406
0.000406616
-0.00019821
-3.90166e-06
-0.000137586
0.000141488
0.0003725
2.95846e-05
-0.000402084
0.000276152
-0.000487082
0.000210929
-5.37904e-05
-1.17085e-05
6.54989e-05
0.00171074
-0.000330582
0.000120337
-0.000116583
-3.75409e-06
-0.000457539
0.000707663
-0.000250124
-1.76829e-05
-6.98825e-07
1.83817e-05
-0.000749168
-7.96712e-05
1.39989e-05
3.13445e-05
-3.40973e-05
2.75286e-06
0.00156482
0.00378293
-0.00534775
4.07926e-05
-0.000561459
0.000520666
-0.000377998
8.34113e-05
-0.000715583
0.00132719
-0.000611604
-0.0001633
-0.000404274
8.05877e-05
7.34994e-05
5.45586e-05
-8.54448e-06
0.00017395
0.000134507
-0.000308458
-0.00020396
-0.00020447
0.00040843
-0.00119727
0.000757831
0.000439437
-0.000588499
3.67648e-05
0.000551734
7.22788e-05
-0.000130009
5.773e-05
-0.00670621
-0.000648706
-0.000114053
-0.000400497
0.000514551
1.3683e-05
0.000130873
-0.000144556
0.000186261
-2.58342e-05
2.08256e-05
2.85184e-05
-9.13531e-05
-0.000149872
0.000241225
-0.00138595
-0.000226171
0.00161212
2.93525e-07
5.29942e-06
-5.59293e-06
0.000451987
-0.000177805
-0.00402439
0.00418363
-0.000159236
-0.000481822
0.000166775
0.000315048
-3.01624e-06
2.984e-06
3.22382e-08
1.12069e-06
1.95652e-05
-2.06859e-05
-0.00189476
0.00310648
-2.56465e-06
-1.33082e-05
0.000420426
-0.000144275
-0.000157564
-3.90848e-05
0.00119266
-0.000637107
-0.000555555
-0.000505271
0.000410393
-1.49105e-05
1.5933e-05
-1.02254e-06
-0.000156583
-8.7943e-05
-0.000137561
-5.45749e-05
0.000192136
9.97927e-06
8.10066e-06
7.81158e-05
6.90745e-05
-0.000163985
9.71368e-05
-8.25281e-05
8.97948e-05
-0.00260301
0.00302628
-0.000423261
-0.0099086
-0.000910005
-5.02997e-05
-7.0128e-05
0.000120428
-0.000561067
-0.0006362
-3.79915e-05
4.11072e-05
-9.63436e-06
9.92789e-06
3.55647e-06
-3.34235e-05
3.648e-05
-2.17261e-06
-3.43075e-05
-0.00662641
-0.000298347
0.00692475
0.000372327
2.4007e-05
-0.000396333
-0.000198083
-0.000702775
0.000900859
-0.00278299
0.000617978
0.00216501
0.00218288
-0.000150919
-0.00410786
-0.000757664
1.41218e-07
-3.15746e-06
-0.000399907
-0.000117506
0.000377095
0.000746106
-0.0011232
0.000185385
-0.000126131
-3.94392e-05
-1.48445e-05
5.42838e-05
-2.75151e-06
-2.05597e-06
-3.32021e-06
4.87184e-06
6.49681e-05
0.000504451
-2.35146e-05
0.00014098
-0.000117465
1.7796e-05
-1.66752e-05
0.000304559
0.000256051
-0.00056061
-0.000322989
0.000264312
5.86772e-05
-0.000779616
0.000741406
3.821e-05
0.000383604
0.00415512
-0.00155466
0.00222362
-0.000198608
0.0001003
9.83079e-05
0.000292258
0.00175697
-0.00204923
-1.61645e-06
-2.27068e-06
-1.40274e-06
-3.79107e-06
5.19381e-06
0.000301752
-0.00136941
0.00106766
-0.000749308
-0.00203368
-0.00130413
-2.5497e-05
0.00132963
0.00039368
-0.000268072
-0.000125608
-5.49757e-06
0.000692054
-0.000269816
-0.000422238
4.56293e-05
-4.56293e-05
-3.76734e-05
4.01076e-05
-2.43419e-06
-1.84057e-05
7.33665e-05
-5.49607e-05
-8.94836e-06
-3.94388e-05
4.83872e-05
0.000313448
-0.000345363
-0.00392177
-0.000102623
-6.3599e-05
5.08809e-05
1.2718e-05
4.15843e-05
-5.99898e-05
-0.000109809
5.64124e-05
5.33965e-05
-2.42916e-05
-7.54884e-05
9.978e-05
-4.532e-06
3.32056e-05
-2.86736e-05
3.84803e-05
-2.00027e-06
-4.61591e-05
-6.9789e-05
0.000192747
-0.000480909
0.000288162
0.00116283
0.000211851
-0.00137469
-0.000492962
0.000318419
-0.00204613
0.00213725
-9.11232e-05
-0.000193019
0.000213912
-0.00104624
3.08039e-05
0.00101544
-0.000241912
6.27722e-05
0.00017914
-0.00599678
-0.000629617
0.00923492
0.00120117
-0.0104361
-9.7617e-05
-0.000100991
-0.0013598
-0.000233081
0.00159288
-8.62569e-05
1.80634e-06
8.44505e-05
1.02412e-05
-1.65708e-05
7.27509e-06
3.8354e-05
-1.5913e-05
2.35326e-05
-7.61957e-06
-3.14502e-05
0.000112744
-1.06038e-05
0.000109355
-9.87517e-05
0.00157755
0.000880431
0.000376005
-0.00318392
0.00280792
0.000811648
-0.000618187
-0.000193462
0.00107554
-0.000962149
-0.000113395
2.85487e-05
-2.85487e-05
-0.00114264
0.000890569
-0.000133582
2.12866e-05
9.42997e-05
-0.000261631
0.000167331
-8.77149e-05
-0.000100752
0.000188467
0.00144721
9.32743e-05
-0.000106244
1.29698e-05
-0.000383693
-0.000135231
0.000518923
8.46343e-05
-5.50966e-05
-2.95377e-05
6.57799e-06
1.79392e-07
-6.75738e-06
6.32516e-06
-7.7279e-06
0.000277744
0.000191739
-0.000469482
0.000884624
-8.58161e-05
8.62095e-06
1.52162e-06
-0.000706679
0.000249141
9.30344e-07
8.36201e-05
-8.45502e-05
-7.90891e-05
0.00135563
-0.00127654
-0.00446036
0.00301325
0.00295441
-0.00239549
-0.000558914
0.000608689
-0.000487972
-0.000120718
-0.00128699
-1.71395e-05
-0.00106626
0.000181619
0.000884642
5.02865e-05
-5.35195e-05
3.23297e-06
0.00216687
-0.00195997
-0.000206902
0.00115966
-0.000727966
-0.0004317
0.000108517
-0.000105047
-0.00018954
-0.000236935
-0.000192327
5.47671e-05
0.00701994
-0.000704226
-0.00631572
-0.000789626
0.000932185
-0.000142559
0.000146553
-0.000436636
0.000290083
0.00109166
0.00215805
-0.00238422
2.7228e-07
-9.46683e-08
-1.77611e-07
-0.000103865
-2.00113e-05
0.000123876
-1.88498e-05
-2.68677e-06
0.000107032
-3.47531e-05
-0.000334005
2.85077e-05
0.00132947
0.00477812
-0.00610759
-0.000284827
-2.74673e-05
0.000312294
-2.94183e-05
2.06452e-05
0.000109855
-8.30806e-05
-2.67745e-05
0.000401408
0.000290646
-0.000415605
0.00047097
0.000162924
-0.000160259
-2.66519e-06
0.000410116
-0.000236167
3.40621e-05
4.67667e-05
-8.08286e-05
-0.00017927
1.45667e-05
0.000164703
0.000179965
-0.00013553
-4.44355e-05
-0.000463762
-0.000111636
0.000575396
0.00302093
-0.00264492
0.00122839
-0.00133498
0.000106589
0.000249471
-0.000129057
-0.000180952
0.000150484
3.04677e-05
6.38561e-05
0.000164745
0.000137961
-0.000161476
-0.0127501
0.000644806
-0.00118309
1.78224e-05
0.00116526
-1.29528e-06
3.11866e-05
0.000305479
0.00167588
-0.00135229
-0.000323593
-0.0103569
-0.000919469
-0.00112231
0.00176006
-0.000255846
3.2258e-06
6.22661e-05
-6.34784e-05
1.21231e-06
0.00137014
-0.00099305
4.0402e-05
5.11649e-05
-9.15671e-05
-0.000535408
-0.00233353
0.00286894
6.81393e-05
4.1716e-05
-1.53787e-05
2.92067e-06
1.2458e-05
0.00059292
-0.000858856
0.000265937
-0.000335156
0.00048171
-0.00310623
0.000503214
-0.000629843
0.000798915
-0.000169073
8.49178e-05
-7.51353e-05
0.000101426
-0.000102973
1.54686e-06
8.50588e-05
-0.00017176
8.67015e-05
-1.89565e-05
6.93814e-05
-7.79107e-05
0.000414242
-0.00480174
0.00157766
0.00322408
0.000421503
-0.000390545
-3.09577e-05
9.53114e-05
-9.92129e-05
-0.00148522
0.00177748
-0.000923335
0.00122714
-0.000303802
-0.00154137
0.000181567
-4.21124e-05
4.43889e-06
-0.000450178
2.82727e-05
0.000421906
-0.00363568
0.00834221
-0.000149907
-4.75646e-05
0.001228
0.00751167
-0.00873967
-0.00114048
0.00101188
0.000128601
-1.88811e-05
2.9681e-06
0.00156442
0.00138999
9.6352e-05
-0.000118861
2.25087e-05
-0.000151977
0.000141373
-0.000597171
5.57452e-05
0.00037907
3.68907e-05
4.10635e-05
-4.43274e-05
3.26388e-06
0.000122215
-0.000752058
7.15114e-06
-1.91483e-06
-5.23632e-06
0.000674864
0.000517798
0.000207597
-3.18457e-05
-0.0127814
-2.24365e-06
6.27202e-07
0.00052302
-2.49437e-05
0.000248471
-0.000199202
-4.9269e-05
-0.000153981
-0.000769813
0.000923793
-0.000238331
0.000290129
-5.1798e-05
-8.81047e-05
4.86656e-05
-0.000435943
0.000110811
-0.000244054
-7.89346e-05
0.00927983
-4.49072e-05
-0.000100769
7.93158e-05
2.14529e-05
-0.000115759
-7.47735e-06
0.00599758
-0.00478525
0.000107397
-9.11066e-05
0.000496568
-0.00012424
-0.000400949
-8.49247e-05
0.000485874
-0.00612639
0.00745586
-4.14895e-05
-4.13129e-05
-9.58203e-05
9.06931e-05
5.12714e-06
0.000396681
-7.56025e-05
0.000405324
-0.000127579
1.28567e-06
0.000144456
-0.000145742
-6.90233e-05
-1.085e-05
7.98733e-05
0.000230084
0.00678987
-6.58308e-05
-0.000284419
0.000350249
-8.60286e-05
9.97119e-05
8.47903e-08
1.87489e-07
-2.577e-05
-5.01749e-05
-0.000128771
1.30121e-05
0.000886293
-0.000839543
0.000149838
0.000734785
-0.000336085
0.000203273
4.51987e-05
-1.57094e-05
7.9895e-07
-4.00087e-05
7.17585e-05
2.68082e-05
-1.10184e-05
-1.57898e-05
-0.000569336
0.000105573
0.000536745
-0.000589105
-3.72334e-05
-3.90392e-05
-0.000215807
0.000124454
3.33448e-05
-2.00043e-06
-0.000116032
8.63573e-05
2.96747e-05
-0.000308137
0.000176856
0.00209742
-0.003033
0.000935578
-1.53787e-05
-8.85177e-06
-0.000900354
0.000909205
0.00113212
9.62685e-05
0.000177231
9.83847e-05
-0.000275615
-3.81644e-07
-1.19795e-05
1.23612e-05
-0.00100881
0.000893602
-0.00113673
0.000243125
-0.000268818
1.29715e-05
-0.000233814
-8.09705e-06
-1.11343e-05
1.35637e-05
-2.42933e-06
-3.44992e-05
-6.49333e-05
-0.00906633
0.00491461
0.00415173
-1.01674e-05
-6.85014e-05
7.86688e-05
-0.000111303
-0.000272926
0.00453898
-0.000641405
-0.00389757
-0.0001552
6.58998e-05
0.000314231
-0.00059944
0.000285209
-0.000139624
9.34653e-05
-0.000846463
-0.000207601
0.00105406
-0.000119703
8.48143e-05
3.4889e-05
-0.000302008
0.000494753
-0.000194522
0.000656013
-0.000461492
-0.000528178
0.000127229
7.0686e-05
-7.66485e-05
5.96253e-06
0.00630289
-0.00525135
-0.00105155
-0.000372782
-0.000109041
0.000189886
-0.000225914
-0.00227811
-0.000671551
-4.48593e-06
2.12116e-05
-1.67257e-05
6.83565e-05
1.50772e-05
-0.000150691
-0.00064703
-0.000801474
0.0014485
-0.000704238
0.00100599
-6.96522e-05
-3.11165e-05
9.09531e-05
-0.000101466
1.05132e-05
-0.000149832
5.75505e-07
0.000149257
-0.000204079
0.000126059
7.80203e-05
-8.24326e-05
-0.00521449
0.00370086
0.00151361
-1.66195e-05
-4.21236e-06
0.0103093
0.00184116
-0.0121505
-0.000513371
0.000548294
-3.49228e-05
5.65532e-06
7.20523e-06
-0.00147299
-0.00332874
4.83237e-05
-0.00033315
-0.000207864
5.80315e-05
-0.000955351
0.000165724
0.000148152
0.000109402
-6.61683e-07
-7.7532e-06
8.41489e-06
-3.21707e-05
3.71728e-05
-5.00203e-06
-0.00428823
0.00861546
-0.00999712
0.00138167
-3.17432e-05
-4.12881e-06
3.5872e-05
0.00147784
0.000689032
-0.000288269
0.000677285
-0.000389015
5.38915e-05
0.000122517
-0.000176409
-0.000655742
0.000142371
0.000874623
0.00103454
5.0223e-05
6.33982e-08
7.06869e-05
-4.55626e-05
-2.51244e-05
5.55228e-05
3.46455e-05
-9.01682e-05
-6.52065e-06
-1.15211e-05
1.80417e-05
-1.87709e-05
1.98621e-05
-1.09126e-06
4.68672e-05
0.000130238
-0.000177105
-1.78338e-06
2.07422e-06
-2.90836e-07
-7.16143e-06
-1.56243e-05
1.52426e-05
8.3988e-05
-4.99257e-05
-3.45021e-06
1.47686e-05
-1.13184e-05
7.98234e-05
-1.14669e-05
-0.000112901
-1.20297e-05
0.00012493
-0.00427534
-0.00161126
0.0058866
0.000343485
-0.000166255
-7.85072e-05
-3.13017e-05
-6.80694e-05
-4.70739e-05
0.000115143
-9.81968e-05
-2.43047e-06
0.000100627
-0.000134014
-7.00652e-05
0.000485269
-0.000204079
-0.00028119
-0.000141623
-1.31399e-05
0.000154763
-4.47725e-05
-4.06368e-05
8.54093e-05
5.07383e-06
-7.80959e-06
2.73575e-06
-0.000264985
2.66537e-05
-0.00377076
0.00533558
9.52663e-05
-0.000105434
-7.52672e-05
-0.000160693
0.00023596
2.86605e-05
6.46136e-05
-0.000106621
5.63215e-05
-2.6618e-05
-2.84885e-05
5.51065e-05
-0.00044631
0.000237903
-0.000882785
-0.00199379
-0.00023979
-5.14698e-05
2.97539e-06
4.84944e-05
0.000334622
-0.000320483
0.00280766
-0.00248718
0.00021742
0.000102319
-1.59837e-05
1.90183e-05
-0.000431918
0.000487667
-5.57497e-05
0.000118585
-0.000117655
0.000296342
0.000188927
-0.00611062
0.00120071
0.00490992
0.00397161
-0.00403248
6.08739e-05
0.000698823
0.000980465
-0.00167929
-0.000741524
-0.000107594
0.000849118
0.00518288
-0.000959806
-0.00422307
9.28358e-05
0.000348572
0.000270608
-0.00061918
-1.12815e-06
-1.67065e-05
1.78347e-05
0.000325838
0.000105053
-0.000430891
-0.000205488
0.000311275
-0.000105787
-7.65966e-05
-0.000163194
1.58979e-07
6.99216e-06
-0.00144594
0.0100614
4.95133e-06
1.15209e-06
-6.10342e-06
0.000383388
-0.000352201
-0.00019238
0.000304005
-0.000111625
6.54074e-06
3.27896e-06
-9.81971e-06
0.000356585
-0.00107217
1.57618e-05
-1.33498e-06
-1.44268e-05
1.17505e-05
1.50577e-05
-0.000165086
7.73714e-05
5.65871e-06
-0.000143245
0.000122274
8.53233e-05
0.00019109
0.000250809
-0.000441898
-0.000717999
-6.16175e-05
-1.97611e-05
-1.02575e-06
0.00425851
-0.00474855
0.000490048
-0.0039572
-0.00595141
0.00263445
-0.00316986
0.000144846
0.00078388
-0.000928726
4.322e-05
-0.000203368
0.000160148
6.38493e-05
0.00010134
-0.00016519
0.000623187
0.00167472
0.000111378
5.81331e-05
-0.000169511
0.000183951
-0.00110728
-2.60271e-05
9.42713e-05
-6.82441e-05
-0.00722791
0.000448734
-0.000257644
0.000532068
0.0002738
-6.48402e-05
-7.47841e-05
-0.000656178
0.00612361
0.000190304
-0.000225522
3.52182e-05
-0.00118582
-0.00301724
0.00420305
0.000410312
-0.000660826
0.000250515
-0.000493839
0.000396987
9.68512e-05
-0.000136794
3.8597e-05
0.00963184
0.00130254
-0.0109344
-3.60197e-05
0.000327483
-0.000156658
-0.00188947
-1.96874e-05
-1.82122e-05
3.78997e-05
0.000103257
-8.8024e-05
0.000612915
-0.000572123
0.000463405
-0.000540498
7.70925e-05
-3.84244e-05
-6.54148e-05
0.000103839
0.00604292
0.00294442
-0.00898735
-0.000155692
-5.15408e-05
0.000207232
0.000644698
-0.000159013
-0.000114081
0.000273094
-0.000477343
0.000371538
0.000105805
-0.00168818
0.00196355
-0.000275377
0.00026569
-3.70216e-05
-0.00656861
0.00553666
0.000200936
-0.000405338
0.0002044
9.65129e-05
-0.00017178
-2.98846e-05
8.8024e-05
-5.81394e-05
-1.17758e-05
1.82756e-06
9.94826e-06
-0.000906624
6.01626e-05
-0.000483084
0.0107924
0.0124863
-0.000938243
-0.000120305
0.00020456
-8.42544e-05
-0.00101848
-2.77654e-05
-0.00610706
0.00183171
0.000209142
0.00376247
7.53967e-05
-0.000333148
0.000257751
-3.87888e-05
-1.16134e-05
9.90386e-05
0.000482745
-0.000581784
-0.000177084
-3.7743e-05
-1.77706e-05
4.41097e-05
-2.63391e-05
-0.0113243
0.0105474
0.000776871
0.000598597
0.000107689
-0.000295196
0.000187508
4.08913e-05
-4.86741e-06
-0.00090971
-0.000125923
0.00103563
4.29691e-05
-9.5238e-05
5.22689e-05
5.90477e-07
-2.37386e-06
0.00223451
0.00259975
-0.000101338
0.00161991
-0.00058776
-0.00103215
0.00485202
-0.000593521
5.52368e-06
-5.72342e-07
0.00193571
-2.46647e-06
8.4797e-06
-6.01324e-06
-0.00106845
0.000106305
-0.00032032
-1.05045e-05
0.000330825
0.000416812
-0.000611334
2.2835e-05
9.72585e-05
-0.000120094
-0.00193078
-8.9856e-06
0.00193977
2.51664e-05
0.000151809
-0.000176975
-0.000134935
-5.08845e-05
0.000185819
-0.000380587
0.000535369
-0.000154783
4.63267e-06
-1.56306e-05
1.09979e-05
1.55111e-05
-3.23841e-06
-1.22727e-05
-9.2848e-05
-2.94732e-06
9.57952e-05
-7.5009e-05
5.40091e-05
7.38622e-05
-9.19328e-05
1.80706e-05
-0.000178717
5.84116e-05
-0.00127362
0.000617745
0.000655871
0.0100586
-0.000426722
-1.04892e-06
0.000224041
-0.000252551
2.85091e-05
0.000931053
-0.00143049
0.000499436
0.0104583
-0.00203635
-0.00842197
0.000297815
-0.000203515
-0.00140586
0.00319466
-0.0017888
-8.81611e-06
9.80781e-07
7.83534e-06
-2.61234e-05
-0.000153146
0.00668387
-0.00112847
-0.00555539
0.000112158
-0.00102187
-1.74952e-05
-5.42073e-05
1.49005e-05
2.35164e-05
-0.000188789
0.000165018
2.37708e-05
-0.000558122
-6.24533e-05
0.000620573
-0.000463936
0.000587134
-8.21319e-06
-3.56264e-06
4.93053e-05
2.13817e-05
-7.3924e-05
0.000200865
-0.000126941
-3.5427e-05
-3.9582e-05
2.13121e-05
4.43474e-06
-4.92364e-06
4.889e-07
6.37978e-07
-6.36699e-08
-5.74308e-07
-5.60003e-05
0.000663652
-0.000607651
-0.000376553
0.00171505
-0.00133849
0.000116983
-0.000322471
1.15548e-05
3.85836e-05
-5.01384e-05
-2.94877e-07
-5.17094e-05
-0.000102812
-1.68911e-05
-1.58291e-05
5.50348e-06
0.00723306
-0.00846794
0.00123489
-0.000575963
-0.000130716
1.89144e-05
5.19305e-07
-7.72088e-06
-1.28611e-05
2.0582e-05
4.84188e-05
-0.000183354
0.000276108
-0.000721866
0.000445759
0.000218428
0.00101693
-0.00123536
1.32739e-05
-1.67242e-05
0.000828052
0.000278099
-0.00110615
0.000339238
0.000615346
-0.000954584
4.14566e-05
4.05646e-05
-9.01246e-06
3.20618e-05
-2.30494e-05
-0.000153641
-0.00091262
-0.000199092
0.000179443
1.96494e-05
-1.43141e-06
-0.000583662
0.000585093
8.39208e-06
-6.55538e-05
5.71616e-05
-0.000426129
-5.12135e-05
-3.06937e-05
1.31909e-05
1.75027e-05
-6.47713e-05
4.01569e-06
-9.13978e-06
5.12407e-06
-4.96897e-06
-1.08916e-05
1.58605e-05
4.57267e-05
-4.57268e-05
0.000375401
-0.000267712
-0.000194404
0.000116152
7.82524e-05
-8.7469e-06
-5.48522e-05
0.0116644
-0.0118167
0.000152329
6.48489e-05
-0.000459473
0.000394625
0.000166952
-1.64677e-05
2.92516e-05
4.8135e-05
-7.73865e-05
1.0029e-05
-3.74695e-05
2.74405e-05
5.66378e-07
1.51954e-05
3.01684e-05
-2.8984e-05
0.000703848
0.000162813
-0.000738777
0.000137092
-0.000193588
5.64953e-05
-0.00279894
0.000481994
0.00178132
-0.00318718
0.000125092
-5.12294e-05
3.33376e-06
-3.07957e-07
0.0121933
0.000293031
5.58578e-07
-2.90349e-05
2.84763e-05
-0.000750377
0.000664883
0.00563801
-2.7613e-05
1.86006e-05
-0.000367892
0.000855866
-0.000487975
0.000121376
-2.50243e-05
0.000330043
0.000481606
0.000757056
0.00163841
-0.00239546
9.5654e-05
-7.28192e-05
-0.000315899
-1.37781e-05
0.000329677
-0.000139811
-0.000490293
0.000630104
6.09349e-05
-4.43016e-05
-0.00455191
0.00336609
0.00122033
0.000157761
-0.00137809
-0.000127894
1.13114e-05
0.000305933
3.74574e-06
-0.000309679
-0.000226088
-0.000136839
0.000362927
0.00575176
-0.00648542
0.000733661
-0.000163216
0.000351989
-0.000188773
-0.000171504
6.89836e-05
0.00010252
1.15863e-05
-0.000185768
0.000174182
0.000299896
-0.000529031
0.000229135
-0.00128
9.69126e-05
-0.000146977
0.000158563
0.00117745
-0.000920244
-0.000257203
-0.000509971
7.80534e-05
0.00606239
-0.00537212
-0.000690277
-0.000460993
1.08143e-05
0.000329673
-0.000443726
0.00692775
0.0031308
-0.000234672
0.000310069
-0.000207028
5.72453e-05
0.000149783
-0.00128529
-0.000262079
0.00154737
0.000402558
-0.000337368
-6.51897e-05
0.00097511
0.0006448
0.000742954
0.00585194
-0.00659488
-0.000598698
1.01982e-05
0.00618992
-0.000438157
0.000100068
0.000191457
-0.000291524
-0.000452488
-4.13522e-05
-5.05011e-05
5.10597e-05
-0.000596188
0.000212495
5.24254e-06
9.41181e-06
6.09926e-06
-0.000222924
-8.87877e-05
0.000311712
0.000924579
-3.09778e-05
-4.3876e-05
-0.000127272
0.000171148
-0.000581897
0.000525897
0.000102364
2.44999e-05
0.00070641
-0.000515146
-0.000191265
-1.28283e-05
0.000732702
-0.000380507
-0.000352195
0.00174123
-9.97289e-05
-0.0016415
0.000136815
-2.54363e-05
4.67293e-05
-5.03002e-05
3.57107e-06
0.000133537
0.000217592
-0.000351128
-6.65238e-05
-0.00012788
0.000355351
-0.00191278
0.00155743
8.86957e-05
0.000162472
-0.000251168
-1.05858e-05
1.0736e-05
0.000355422
-0.000409251
5.3828e-05
-8.83515e-06
-1.93132e-05
2.81484e-05
-0.0081527
-0.00184444
-6.1525e-05
-0.000458078
-0.000132883
-0.00212016
0.00174361
0.00065081
2.0598e-05
-2.17261e-05
0.000206298
-0.000142442
-6.43345e-06
9.85932e-05
0.000488359
-0.000586951
2.35202e-05
-2.52921e-05
1.77191e-06
5.19016e-05
-0.00024492
-2.89938e-05
0.000238385
-0.000209391
4.46404e-05
-3.22698e-08
0.000704185
-0.00135121
5.66349e-06
2.997e-05
7.14562e-05
-9.33804e-06
-1.79629e-06
0.00766685
-0.000433776
-1.71018e-05
1.85573e-05
-1.45557e-06
0.00727246
-0.00604446
-0.000127056
-0.00489528
0.0034223
7.146e-06
-5.68011e-07
8.87773e-05
-0.000180762
9.19852e-05