/*--------------------------------*- C++ -*----------------------------------*\
  =========                 |
  \\      /  F ield         | OpenFOAM: The Open Source CFD Toolbox
   \\    /   O peration     | Website:  https://openfoam.org
    \\  /    A nd           | Version:  7
     \\/     M anipulation  |
\*---------------------------------------------------------------------------*/
FoamFile
{
    version     2.0;
    format      ascii;
    class       volVectorField;
    location    "20";
    object      U;
}
// * * * * * * * * * * * * * * * * * * * * * * * * * * * * * * * * * * * * * //

dimensions      [0 1 -1 0 0 0 0];

internalField   nonuniform List<vector> 
2413
(
(2 -1.71288e-15 0)
(2 -1.25828e-15 0)
(2 -1.08914e-15 0)
(2 -1.10692e-15 0)
(2 -1.1387e-15 0)
(2 -1.09717e-15 0)
(2 -1.29491e-15 0)
(2 -1.46362e-15 0)
(2 -1.50525e-15 0)
(2 -1.49307e-15 0)
(2 -1.44332e-15 0)
(2 -1.36522e-15 0)
(2 -1.32827e-15 0)
(2 -1.38049e-15 0)
(2 -1.45513e-15 0)
(2 -1.44325e-15 0)
(2 -1.40766e-15 0)
(2 -1.29697e-15 0)
(2 -1.1119e-15 0)
(2 -9.29692e-16 0)
(2 -8.0559e-16 0)
(2 -9.90693e-16 0)
(2 -1.08176e-15 0)
(2 -1.17133e-15 0)
(2 -1.28717e-15 0)
(2 -1.16549e-15 0)
(2 -1.05715e-15 0)
(2 -1.07192e-15 0)
(2 -1.10223e-15 0)
(2 -1.2933e-15 0)
(2 -1.4158e-15 0)
(2 -1.28188e-15 0)
(2 -1.2126e-15 0)
(2 -7.17647e-16 0)
(2 -3.59865e-16 0)
(2 -1.75425e-16 0)
(2 -4.6061e-17 0)
(2 5.28827e-17 0)
(2 1.60364e-16 0)
(2 3.91715e-16 0)
(2 5.45966e-16 0)
(2 7.54013e-16 0)
(2 1.23398e-15 0)
(2 1.42281e-15 0)
(2 1.43869e-15 0)
(2 1.51892e-15 0)
(2 1.59274e-15 0)
(2 1.68453e-15 0)
(2 1.66532e-15 0)
(2 1.70427e-15 0)
(2 2.22251e-15 0)
(2 2.27542e-15 0)
(2 2.32273e-15 0)
(2 2.23945e-15 0)
(2 2.1805e-15 0)
(2 2.18346e-15 0)
(2 2.48432e-15 0)
(2 2.56912e-15 0)
(2 2.66773e-15 0)
(2 2.82456e-15 0)
(2 2.88005e-15 0)
(2 2.80545e-15 0)
(2 2.87945e-15 0)
(2 2.60072e-15 0)
(2 2.34439e-15 0)
(2 1.65094e-15 0)
(2 1.00104e-15 0)
(2 7.19639e-16 0)
(2 1.68407e-16 0)
(2 -3.42519e-16 0)
(2 -4.87148e-16 0)
(2 -6.81842e-16 0)
(2 -6.23204e-16 0)
(2 -6.97663e-16 0)
(2 -7.39314e-16 0)
(2 -1.03083e-15 0)
(2 -1.61047e-15 0)
(2 -1.41975e-15 0)
(2 -1.3801e-15 0)
(2 -1.24603e-15 0)
(2 -1.20605e-15 0)
(2 -1.19837e-15 0)
(2 -1.22432e-15 0)
(2 -1.13085e-15 0)
(2 -1.12028e-15 0)
(2 -1.07125e-15 0)
(2 -1.02595e-15 0)
(2 -1.01236e-15 0)
(2 -1.09554e-15 0)
(2 -1.11985e-15 0)
(2 -1.03935e-15 0)
(2 -1.01453e-15 0)
(2 -1.01088e-15 0)
(2 -1.16867e-15 0)
(2 -1.19445e-15 0)
(2 -1.20787e-15 0)
(2 -1.31881e-15 0)
(2 -1.42396e-15 0)
(2 -1.41856e-15 0)
(2 -1.42498e-15 0)
(2 -1.33121e-15 0)
(2 -1.22121e-15 0)
(2 -1.09087e-15 0)
(2 -1.15085e-15 0)
(2 -1.0941e-15 0)
(2 -1.16727e-15 0)
(2 -1.17088e-15 0)
(2 -1.21657e-15 0)
(2 -1.59932e-15 0)
(2 -1.62334e-15 0)
(2 -1.59967e-15 0)
(2 -1.93268e-15 0)
(2 -2.12528e-15 0)
(2 -2.06849e-15 0)
(2 -2.05558e-15 0)
(2 -2.15009e-15 0)
(2 -1.93248e-15 0)
(2 -1.50239e-15 0)
(2 -1.45529e-15 0)
(2 -1.41923e-15 0)
(2 -8.71726e-16 0)
(2 -7.64333e-16 0)
(2 -7.93687e-16 0)
(2 -8.33266e-16 0)
(2 -7.50975e-16 0)
(2 -1.19906e-16 0)
(2 -8.44872e-16 0)
(2 -1.1925e-15 0)
(2 -1.62867e-15 0)
(2 -1.90346e-15 0)
(2 -2.37979e-15 0)
(2 -2.46354e-15 0)
(2 -2.49541e-15 0)
(2 -2.62407e-15 0)
(2 -2.72991e-15 0)
(2 -2.52599e-15 0)
(2 -2.33125e-15 0)
(2 -2.19386e-15 0)
(2 -2.09803e-15 0)
(2 -2.00869e-15 0)
(2 -1.98603e-15 0)
(2 -1.99464e-15 0)
(2 -2.03789e-15 0)
(2 -2.04611e-15 0)
(2 -1.83167e-15 0)
(2 -1.71304e-15 0)
(2 -1.41373e-15 0)
(2 -5.60129e-16 0)
(2 -1.20236e-16 0)
(2 -2.72155e-17 0)
(2 4.27468e-17 0)
(2 1.39155e-16 0)
(2 1.51918e-16 0)
(2 2.93886e-16 0)
(2 2.54323e-16 0)
(2 7.04096e-16 0)
(2 8.29315e-16 0)
(2 6.91427e-16 0)
(2 5.49622e-16 0)
(2 3.0169e-16 0)
(2 2.5664e-16 0)
(2 3.90476e-17 0)
(2 -2.64467e-17 0)
(2 1.24681e-16 0)
(2 3.74383e-16 0)
(2 5.02788e-16 0)
(2 7.20749e-16 0)
(2 7.40273e-16 0)
(2 9.22075e-16 0)
(2 1.10094e-15 0)
(2 1.21625e-15 0)
(2 1.4411e-15 0)
(2 1.78423e-15 0)
(2 2.01018e-15 0)
(2 1.70389e-15 0)
(2 1.57437e-15 0)
(2 1.61021e-15 0)
(2 1.57673e-15 0)
(2 1.62117e-15 0)
(2 1.77631e-15 0)
(2 2.15413e-15 0)
(2 2.3118e-15 0)
(2 2.23859e-15 0)
(2 2.10428e-15 0)
(2 1.93256e-15 0)
(2 1.42756e-15 0)
(2 1.15417e-15 0)
(2 1.16402e-15 0)
(2 1.35385e-15 0)
(2 1.4754e-15 0)
(2 1.67275e-15 0)
(2 1.98173e-15 0)
(2 2.19156e-15 0)
(2 2.05745e-15 0)
(2 2.20105e-15 0)
(2 2.40078e-15 0)
(2 2.58012e-15 0)
(2 2.47426e-15 0)
(2 1.70925e-15 0)
(2 1.17771e-15 0)
(2 6.75395e-16 0)
(2 5.48545e-16 0)
(2 3.12062e-16 0)
(2 1.75224e-16 0)
(2 2.47112e-18 0)
(2 -7.85279e-17 0)
(2 2.06156e-17 0)
(2 -2.80941e-16 0)
(2 -7.56964e-16 0)
(2 -1.23878e-15 0)
(2 -1.51231e-15 0)
(2 -1.91838e-15 0)
(2 -1.54521e-15 0)
(2 -1.33736e-15 0)
(2 -1.22755e-15 0)
(2 -1.0481e-15 0)
(2 -1.0495e-15 0)
(2 -1.09002e-15 0)
(2 -1.0319e-15 0)
(2 -1.04951e-15 0)
(2 -1.07865e-15 0)
(2 -1.14448e-15 0)
(2 -1.29229e-15 0)
(2 -1.46834e-15 0)
(2 -1.58417e-15 0)
(2 -1.65848e-15 0)
(2 -1.77145e-15 0)
(2 -2.95972e-15 0)
(2 -2.82783e-15 0)
(2 -2.4268e-15 0)
(2 -2.15009e-15 0)
(2 -2.06325e-15 0)
(2 -2.0226e-15 0)
(2 -1.94783e-15 0)
(2 -1.81835e-15 0)
(2 -2.11206e-15 0)
(2 -2.32021e-15 0)
(2 -2.39661e-15 0)
(2 -2.34911e-15 0)
(2 -2.11326e-15 0)
(2 -1.89531e-15 0)
(2 -1.87839e-15 0)
(2 -1.99507e-15 0)
(2 -2.2007e-15 0)
(2 -2.4855e-15 0)
(2 -2.68631e-15 0)
(2 -2.76094e-15 0)
(2 -2.72464e-15 0)
(2 -2.62506e-15 0)
(2 -2.4832e-15 0)
(2 -2.34581e-15 0)
(2 -2.40751e-15 0)
(2 -2.57357e-15 0)
(2 -2.57825e-15 0)
(2 -2.60711e-15 0)
(2 -2.72558e-15 0)
(2 -2.54457e-15 0)
(2 -2.38115e-15 0)
(2 -2.36878e-15 0)
(2 -2.46941e-15 0)
(2 -2.76688e-15 0)
(2 -2.85557e-15 0)
(2 -2.93833e-15 0)
(2 -2.83596e-15 0)
(2 -2.74268e-15 0)
(2 -2.77355e-15 0)
(2 -2.90556e-15 0)
(2 -2.85613e-15 0)
(2 -2.80946e-15 0)
(2 -2.703e-15 0)
(2 -2.46876e-15 0)
(2 -2.34101e-15 0)
(2 -2.26126e-15 0)
(2 -2.15943e-15 0)
(2 -2.10535e-15 0)
(2 -2.07075e-15 0)
(2 -1.95515e-15 0)
(2 -1.82888e-15 0)
(2 -1.44865e-15 0)
(2 -1.04096e-15 0)
(2 -8.27239e-16 0)
(2 -8.26323e-16 0)
(2 -7.95894e-16 0)
(2 -7.45977e-16 0)
(2 -5.8407e-16 0)
(2 -1.4912e-16 0)
(2 2.38005e-16 0)
(2 1.03923e-15 0)
(2 1.34724e-15 0)
(2 1.53127e-15 0)
(2 1.51486e-15 0)
(2 1.45106e-15 0)
(2 1.39542e-15 0)
(2 1.54827e-15 0)
(2 1.10504e-15 0)
(2 5.32126e-16 0)
(2 2.71642e-16 0)
(2 2.10382e-16 0)
(2 1.01743e-16 0)
(2 4.92751e-17 0)
(2 9.19523e-17 0)
(2 2.11653e-16 0)
(2 3.4682e-16 0)
(2 5.70885e-16 0)
(2 6.9272e-16 0)
(2 6.78023e-16 0)
(2 5.81669e-16 0)
(2 5.46405e-16 0)
(2 5.82758e-16 0)
(2 6.56423e-16 0)
(2 7.07454e-16 0)
(2 6.97905e-16 0)
(2 7.12196e-16 0)
(2 7.25071e-16 0)
(2 6.85928e-16 0)
(2 8.54867e-16 0)
(2 9.72875e-16 0)
(2 5.85706e-16 0)
(2 1.89496e-16 0)
(2 6.90855e-17 0)
(2 -2.27432e-16 0)
(2 -2.37976e-16 0)
(2 1.78979e-16 0)
(2 1.8248e-16 0)
(2 2.45171e-16 0)
(2 4.60556e-16 0)
(2 5.17471e-16 0)
(2 6.55844e-16 0)
(2 8.22707e-16 0)
(2 8.87998e-16 0)
(2 1.06788e-15 0)
(2 1.37494e-15 0)
(2 1.4664e-15 0)
(2 1.19692e-15 0)
(2 6.58247e-16 0)
(2 5.95817e-16 0)
(2 4.27526e-16 0)
(2 2.13101e-16 0)
(2 5.58978e-17 0)
(2 -1.55626e-16 0)
(2 -3.26451e-16 0)
(2 -8.06687e-16 0)
(2 -1.01131e-15 0)
(2 -1.25046e-15 0)
(2 -1.40676e-15 0)
(2 -1.57456e-15 0)
(2 -1.88618e-15 0)
(2 -2.08819e-15 0)
(2 -2.11569e-15 0)
(2 -2.20425e-15 0)
(2 -2.24973e-15 0)
(2 -2.28076e-15 0)
(2 -2.24364e-15 0)
(2 -2.39915e-15 0)
(2 -2.6477e-15 0)
(2 -2.73621e-15 0)
(2 -2.73631e-15 0)
(2 -2.68316e-15 0)
(2 -2.38846e-15 0)
(2 -3.77687e-15 0)
(2 -3.57868e-15 0)
(2 -3.28008e-15 0)
(2 -2.75551e-15 0)
(2 -2.46697e-15 0)
(2 -2.15472e-15 0)
(2 -2.8242e-15 0)
(2 -2.93091e-15 0)
(2 -2.80753e-15 0)
(2 -2.76067e-15 0)
(2 -2.61142e-15 0)
(2 -2.28545e-15 0)
(2 -2.05392e-15 0)
(2 -2.00444e-15 0)
(2 -1.91242e-15 0)
(2 -1.89487e-15 0)
(2 -1.91199e-15 0)
(2 -1.9223e-15 0)
(2 -1.95135e-15 0)
(2 -1.98756e-15 0)
(2 -1.98275e-15 0)
(2 -1.95984e-15 0)
(2 -2.1123e-15 0)
(2 -2.0168e-15 0)
(2 -3.5691e-15 0)
(2 -3.84588e-15 0)
(2 -3.72449e-15 0)
(2 -2.77485e-15 0)
(2 -2.57825e-15 0)
(2 -2.90033e-15 0)
(2 -3.31274e-15 0)
(2 -3.89737e-15 0)
(2 -3.88636e-15 0)
(2 -3.92099e-15 0)
(2 -3.90186e-15 0)
(2 -3.7745e-15 0)
(2 -3.55788e-15 0)
(2 -3.31855e-15 0)
(2 -2.70587e-15 0)
(2 -1.97426e-15 0)
(2 -1.45071e-15 0)
(2 -1.22852e-15 0)
(2 -9.93173e-16 0)
(2 -1.02409e-15 0)
(2 -1.19134e-15 0)
(2 -1.29158e-15 0)
(2 -1.31896e-15 0)
(2 -1.27274e-15 0)
(2 -1.19935e-15 0)
(2 -1.11912e-15 0)
(2 -9.15891e-16 0)
(2 -8.3973e-16 0)
(2 -5.82438e-16 0)
(2 -3.33293e-16 0)
(2 -3.22991e-16 0)
(2 -1.4651e-16 0)
(2 5.38794e-17 0)
(2 2.33719e-16 0)
(2 6.08237e-16 0)
(2 8.08652e-16 0)
(2 8.92885e-16 0)
(2 1.31479e-15 0)
(2 1.52301e-15 0)
(2 1.69319e-15 0)
(2 1.76288e-15 0)
(2 1.71747e-15 0)
(2 1.62592e-15 0)
(2 1.44672e-15 0)
(2 1.27426e-15 0)
(2 1.13261e-15 0)
(2 9.81037e-16 0)
(2 8.29161e-16 0)
(2 5.50557e-16 0)
(2 4.69292e-16 0)
(2 3.63052e-16 0)
(2 3.70972e-17 0)
(2 -2.05967e-16 0)
(2 -2.91522e-16 0)
(2 -3.6533e-16 0)
(2 -2.57804e-16 0)
(2 -4.22968e-18 0)
(2 2.06465e-16 0)
(2 1.94438e-16 0)
(2 1.09478e-16 0)
(2 3.12803e-17 0)
(2 -1.27127e-16 0)
(2 -1.7799e-16 0)
(2 -7.57369e-16 0)
(2 -1.05819e-15 0)
(2 -1.20234e-15 0)
(2 -1.24464e-15 0)
(2 -1.31761e-15 0)
(2 -1.331e-15 0)
(2 -1.25018e-15 0)
(2 -9.6392e-16 0)
(2 -7.13774e-16 0)
(2 -3.68724e-16 0)
(2 1.26088e-16 0)
(2 2.65265e-16 0)
(2 1.88491e-18 0)
(2 -1.92432e-16 0)
(2 -3.712e-16 0)
(2 -4.48559e-16 0)
(2 -3.16834e-16 0)
(2 -1.82985e-16 0)
(2 1.8833e-17 0)
(2 5.25863e-16 0)
(2 7.6932e-16 0)
(2 7.78261e-16 0)
(2 8.49667e-16 0)
(2 7.6568e-16 0)
(2 2.37256e-16 0)
(2 1.60467e-16 0)
(2 1.39895e-16 0)
(2 1.46109e-16 0)
(2 2.49657e-16 0)
(2 4.92654e-16 0)
(2 -2.42031e-18 0)
(2 -4.15003e-16 0)
(2 -5.7293e-16 0)
(2 -6.37562e-16 0)
(2 -6.92398e-16 0)
(2 -6.98051e-16 0)
(2 -9.05873e-16 0)
(2 -9.58037e-16 0)
(2 -1.12564e-15 0)
(2 -1.29078e-15 0)
(2 -1.41816e-15 0)
(2 -1.51e-15 0)
(2 -1.71818e-15 0)
(2 -1.79848e-15 0)
(2 -1.74868e-15 0)
(2 -1.66732e-15 0)
(2 -1.41093e-15 0)
(2 -1.45707e-15 0)
(2 -1.47407e-15 0)
(2 -1.32541e-15 0)
(2 -1.09123e-15 0)
(2 -8.70926e-16 0)
(2 -7.66152e-16 0)
(2 -5.0727e-16 0)
(2 -1.87174e-16 0)
(2 9.58542e-18 0)
(2 -2.38968e-16 0)
(2 -5.39415e-16 0)
(2 -7.64484e-16 0)
(2 -9.07667e-16 0)
(2 -9.96395e-16 0)
(2 -1.17098e-15 0)
(2 -1.18438e-15 0)
(2 -1.17847e-15 0)
(2 -1.12443e-15 0)
(2 -1.15684e-15 0)
(2 -1.21044e-15 0)
(2 -1.45664e-15 0)
(2 -1.96097e-15 0)
(2 -2.18818e-15 0)
(2 -2.31689e-15 0)
(2 -2.16989e-15 0)
(2 -2.01417e-15 0)
(2 -1.88515e-15 0)
(2 -1.69277e-15 0)
(2 -1.43761e-15 0)
(2 -1.34521e-15 0)
(2 -1.37653e-15 0)
(2 -1.41393e-15 0)
(2 -1.36142e-15 0)
(2 -1.32663e-15 0)
(2 -1.33501e-15 0)
(2 -1.20224e-15 0)
(2 -9.06003e-16 0)
(2 -5.97633e-16 0)
(2 -1.11198e-16 0)
(2 6.01116e-17 0)
(2 2.26251e-16 0)
(2 2.79189e-16 0)
(2 3.75313e-16 0)
(2 3.14761e-16 0)
(2 2.54575e-16 0)
(2 2.49707e-16 0)
(2 2.74226e-16 0)
(2 2.85097e-16 0)
(2 2.59851e-16 0)
(2 2.05912e-16 0)
(2 1.75255e-16 0)
(2 1.0869e-16 0)
(2 3.50881e-16 0)
(2 6.05305e-16 0)
(2 6.6894e-16 0)
(2 7.17487e-16 0)
(2 7.94914e-16 0)
(2 8.55173e-16 0)
(2 8.64759e-16 0)
(2 8.7914e-16 0)
(2 8.62681e-16 0)
(2 8.43982e-16 0)
(2 7.35521e-16 0)
(2 6.27385e-16 0)
(2 5.95958e-16 0)
(2 4.9547e-16 0)
(2 4.98587e-16 0)
(2 3.94954e-16 0)
(2 3.69736e-16 0)
(2 3.6968e-16 0)
(2 6.37776e-16 0)
(2 8.8913e-16 0)
(2 9.98169e-16 0)
(2 1.01091e-15 0)
(2 9.71468e-16 0)
(2 8.86666e-16 0)
(2 7.90659e-16 0)
(2 8.26541e-16 0)
(2 9.41153e-16 0)
(2 9.6245e-16 0)
(2 1.12646e-15 0)
(2 1.30443e-15 0)
(2 1.32288e-15 0)
(2 1.29082e-15 0)
(2 1.32347e-15 0)
(2 1.24585e-15 0)
(2 1.13311e-15 0)
(2 8.4869e-16 0)
(2 7.8595e-16 0)
(2 7.65335e-16 0)
(2 9.03867e-16 0)
(2 8.69774e-16 0)
(2 5.08802e-16 0)
(2 4.15916e-16 0)
(2 4.43546e-16 0)
(2 5.2391e-16 0)
(2 6.12042e-16 0)
(2 6.85146e-16 0)
(2 7.95967e-16 0)
(2 9.30149e-16 0)
(2 9.81301e-16 0)
(2 9.03815e-16 0)
(2 8.75786e-16 0)
(2 1.8565e-15 0)
(2 1.97125e-15 0)
(2 1.96958e-15 0)
(2 2.04829e-15 0)
(2 2.0364e-15 0)
(2 1.7437e-15 0)
(2 1.61294e-15 0)
(2 1.4815e-15 0)
(2 1.37149e-15 0)
(2 1.36566e-15 0)
(2 1.38867e-15 0)
(2 1.49298e-15 0)
(2 1.55046e-15 0)
(2 1.63426e-15 0)
(2 1.9142e-15 0)
(2 2.13965e-15 0)
(2 2.30072e-15 0)
(2 2.38528e-15 0)
(2 2.30606e-15 0)
(2 2.18912e-15 0)
(2 2.14257e-15 0)
(2 1.40139e-15 0)
(2 1.24028e-15 0)
(2 1.18547e-15 0)
(2 7.64353e-16 0)
(2 3.16525e-16 0)
(2 1.73025e-16 0)
(2 -6.90796e-16 0)
(2 -6.69595e-16 0)
(2 -6.8991e-16 0)
(2 -7.17945e-16 0)
(2 -6.69457e-16 0)
(2 -6.43735e-16 0)
(2 -5.47882e-16 0)
(2 -4.13534e-16 0)
(2 -3.44919e-16 0)
(2 -2.57412e-16 0)
(2 -3.6004e-16 0)
(2 -5.61062e-16 0)
(2 -8.95804e-16 0)
(2 -1.20294e-15 0)
(2 -1.21947e-15 0)
(2 -1.17222e-15 0)
(2 -1.05325e-15 0)
(2 -9.53046e-16 0)
(2 -8.38478e-16 0)
(2 -6.88437e-16 0)
(2 -6.39354e-16 0)
(2 -6.70782e-16 0)
(2 -7.35702e-16 0)
(2 -7.90169e-16 0)
(2 -8.92091e-16 0)
(2 -9.17705e-16 0)
(2 -9.54084e-16 0)
(2 -8.98003e-16 0)
(2 -8.59817e-16 0)
(2 -6.93317e-16 0)
(2 -7.95301e-16 0)
(2 -8.85265e-16 0)
(2 -3.3949e-16 0)
(2 -1.69018e-16 0)
(2 -6.37866e-17 0)
(2 -6.2161e-18 0)
(2 1.74552e-17 0)
(2 -1.1222e-16 0)
(2 -2.86755e-16 0)
(2 -4.98057e-16 0)
(2 -9.02783e-16 0)
(2 -9.34042e-16 0)
(2 -8.72297e-16 0)
(2 -7.13519e-16 0)
(2 -5.38772e-16 0)
(2 -2.23626e-16 0)
(2 1.19302e-16 0)
(2 1.90258e-16 0)
(2 -2.89087e-18 0)
(2 -3.09761e-16 0)
(2 -4.32906e-16 0)
(2 -6.47911e-16 0)
(2 -9.0503e-16 0)
(2 -8.88023e-16 0)
(2 -7.04192e-16 0)
(2 -3.94076e-16 0)
(2 -6.20715e-16 0)
(2 -7.92692e-16 0)
(2 -1.20323e-15 0)
(2 -1.34685e-15 0)
(2 -1.29642e-15 0)
(2 -1.11204e-15 0)
(2 -8.15326e-16 0)
(2 -7.68488e-16 0)
(2 -8.24517e-16 0)
(2 -9.10825e-16 0)
(2 -9.81323e-16 0)
(2 -1.06211e-15 0)
(2 -1.12506e-15 0)
(2 -1.06107e-15 0)
(2 -9.75883e-16 0)
(2 -4.57236e-16 0)
(2 -3.18329e-16 0)
(2 -6.23659e-17 0)
(2 -2.68495e-17 0)
(2 -4.18588e-17 0)
(2 -1.1712e-16 0)
(2 -6.60826e-17 0)
(2 4.77324e-17 0)
(2 1.08507e-16 0)
(2 4.76074e-17 0)
(2 1.93926e-17 0)
(2 -4.66414e-17 0)
(2 -9.07376e-17 0)
(2 -1.62467e-16 0)
(2 -8.46635e-18 0)
(2 2.15721e-16 0)
(2 3.2311e-16 0)
(2 3.87905e-16 0)
(2 4.30327e-16 0)
(2 4.85708e-16 0)
(2 6.18399e-16 0)
(2 7.5361e-16 0)
(2 7.79753e-16 0)
(2 5.98308e-16 0)
(2 4.9644e-16 0)
(2 8.39938e-17 0)
(2 -2.55877e-16 0)
(2 -4.44009e-16 0)
(2 -4.55346e-16 0)
(2 3.95102e-16 0)
(2 4.86314e-16 0)
(2 8.07414e-16 0)
(2 1.25513e-15 0)
(2 1.2035e-15 0)
(2 1.00208e-15 0)
(2 8.33382e-16 0)
(2 7.56108e-16 0)
(2 1.10197e-15 0)
(2 1.35809e-15 0)
(2 1.485e-15 0)
(2 1.42855e-15 0)
(2 1.43134e-15 0)
(2 1.05254e-15 0)
(2 8.30495e-16 0)
(2 7.43374e-16 0)
(2 5.91308e-16 0)
(2 5.62123e-16 0)
(2 5.50639e-16 0)
(2 3.63906e-16 0)
(2 1.33902e-16 0)
(2 8.41758e-17 0)
(2 5.66617e-17 0)
(2 1.17364e-16 0)
(2 2.3603e-16 0)
(2 3.87446e-16 0)
(2 9.17517e-16 0)
(2 1.36664e-15 0)
(2 1.57322e-15 0)
(2 1.64012e-15 0)
(2 1.5664e-15 0)
(2 1.46945e-15 0)
(2 4.36107e-16 0)
(2 5.58375e-16 0)
(2 6.48986e-16 0)
(2 8.91363e-16 0)
(2 1.11505e-15 0)
(2 1.03445e-15 0)
(2 -3.98263e-17 0)
(2 -3.08e-16 0)
(2 -3.50914e-16 0)
(2 -3.97229e-16 0)
(2 -4.56886e-16 0)
(2 -3.69384e-16 0)
(2 -2.93986e-16 0)
(2 -4.19768e-16 0)
(2 -5.33046e-16 0)
(2 -7.56963e-16 0)
(2 -9.19867e-16 0)
(2 -9.22181e-16 0)
(2 -8.30665e-16 0)
(2 -6.47787e-16 0)
(2 -4.90519e-16 0)
(2 -2.9339e-16 0)
(2 -1.38947e-16 0)
(2 -8.80068e-17 0)
(2 6.3716e-17 0)
(2 1.32317e-16 0)
(2 1.49387e-16 0)
(2 1.55725e-16 0)
(2 1.10275e-16 0)
(2 -8.22239e-17 0)
(2 -2.35001e-16 0)
(2 -2.45095e-16 0)
(2 -1.29315e-16 0)
(2 -8.48925e-17 0)
(2 -3.42173e-17 0)
(2 -2.05123e-17 0)
(2 -3.47386e-17 0)
(2 -7.38319e-17 0)
(2 -1.68828e-16 0)
(2 -3.47527e-16 0)
(2 -5.45832e-16 0)
(2 -8.49012e-16 0)
(2 -1.01978e-15 0)
(2 -1.02159e-15 0)
(2 -9.59301e-16 0)
(2 -8.95637e-16 0)
(2 -1.07718e-15 0)
(2 -1.02449e-15 0)
(2 -1.05597e-15 0)
(2 -1.19175e-15 0)
(2 -1.38667e-15 0)
(2 -1.5303e-15 0)
(2 -1.54921e-15 0)
(2 -1.51956e-15 0)
(2 -1.5693e-15 0)
(2 -1.59907e-15 0)
(2 -1.7878e-15 0)
(2 -2.24626e-15 0)
(2 -2.69525e-15 0)
(2 -2.99857e-15 0)
(2 -3.34779e-15 0)
(2 -2.55849e-15 0)
(2 -1.89448e-15 0)
(2 -1.65839e-15 0)
(2 -1.61125e-15 0)
(2 -1.49442e-15 0)
(2 -1.47251e-15 0)
(2 -1.10653e-15 0)
(2 -6.42214e-16 0)
(2 -4.91894e-16 0)
(2 -8.54934e-17 0)
(2 -2.47051e-16 0)
(2 -4.79755e-16 0)
(2 -6.0606e-16 0)
(2 -6.88516e-16 0)
(2 -1.04661e-15 0)
(2 -1.61677e-15 0)
(2 -1.7517e-15 0)
(2 -1.74596e-15 0)
(2 -1.58197e-15 0)
(2 -1.61911e-15 0)
(2 -1.15648e-15 0)
(2 -9.96599e-16 0)
(2 -9.39461e-16 0)
(2 -9.54531e-16 0)
(2 -1.20603e-15 0)
(2 -1.31267e-15 0)
(2 -1.37504e-15 0)
(2 -1.24175e-15 0)
(2 -1.15075e-15 0)
(2 -9.60788e-16 0)
(2 -7.78364e-16 0)
(2 -6.45195e-16 0)
(2 -5.96506e-16 0)
(2 -5.76897e-16 0)
(2 -6.33673e-16 0)
(2 -4.4013e-16 0)
(2 -2.05011e-16 0)
(2 1.25517e-16 0)
(2 5.76194e-16 0)
(2 2.43401e-16 0)
(2 1.11757e-16 0)
(2 1.63377e-16 0)
(2 3.87551e-16 0)
(2 3.09731e-16 0)
(2 1.7629e-16 0)
(2 -6.75268e-17 0)
(2 -3.01538e-16 0)
(2 -3.70102e-16 0)
(2 -5.316e-16 0)
(2 -8.69116e-16 0)
(2 -9.74814e-16 0)
(2 -1.02272e-15 0)
(2 -1.03079e-15 0)
(2 -1.21894e-15 0)
(2 -1.3942e-15 0)
(2 -1.381e-15 0)
(2 -1.39019e-15 0)
(2 -1.50019e-15 0)
(2 -1.44455e-15 0)
(2 -1.60967e-15 0)
(2 -1.65344e-15 0)
(2 -1.69164e-15 0)
(2 -1.43514e-15 0)
(2 -1.39256e-15 0)
(2 -1.27228e-15 0)
(2 -4.77953e-16 0)
(2 -6.08082e-17 0)
(2 -4.91016e-17 0)
(2 2.17261e-16 0)
(2 5.71442e-16 0)
(2 4.47815e-16 0)
(2 1.89399e-15 0)
(2 2.12502e-15 0)
(2 2.21121e-15 0)
(2 2.21619e-15 0)
(2 2.04385e-15 0)
(2 1.81716e-15 0)
(2 1.56282e-15 0)
(2 1.16293e-15 0)
(2 1.03469e-15 0)
(2 8.14092e-16 0)
(2 7.58604e-16 0)
(2 8.32837e-16 0)
(2 1.24902e-15 0)
(2 1.58585e-15 0)
(2 1.6841e-15 0)
(2 1.53671e-15 0)
(2 1.42783e-15 0)
(2 1.18533e-15 0)
(2 9.4957e-16 0)
(2 4.80094e-16 0)
(2 4.21042e-16 0)
(2 6.67687e-16 0)
(2 7.72769e-16 0)
(2 1.03808e-15 0)
(2 1.31411e-15 0)
(2 1.43713e-15 0)
(2 1.58279e-15 0)
(2 1.64952e-15 0)
(2 1.69851e-15 0)
(2 1.75914e-15 0)
(2 2.00841e-15 0)
(2 2.18789e-15 0)
(2 2.19908e-15 0)
(2 2.17996e-15 0)
(2 1.95112e-15 0)
(2 1.88774e-15 0)
(2 1.74167e-15 0)
(2 1.65102e-15 0)
(2 1.6138e-15 0)
(2 1.52905e-15 0)
(2 1.36758e-15 0)
(2 9.68773e-16 0)
(2 6.6747e-16 0)
(2 6.83202e-18 0)
(2 -4.49633e-16 0)
(2 -8.05955e-16 0)
(2 -1.38013e-15 0)
(2 -1.61534e-15 0)
(2 -1.61933e-15 0)
(2 -1.52053e-15 0)
(2 -1.38977e-15 0)
(2 -1.15723e-15 0)
(2 -1.09288e-15 0)
(2 -1.13869e-15 0)
(2 -1.50685e-15 0)
(2 -1.71195e-15 0)
(2 -1.60506e-15 0)
(2 -1.49176e-15 0)
(2 -1.30618e-15 0)
(2 -1.08644e-15 0)
(2 -7.14609e-16 0)
(2 -8.70916e-16 0)
(2 -1.17712e-15 0)
(2 -1.2539e-15 0)
(2 -8.68586e-16 0)
(2 -5.24295e-16 0)
(2 -5.3332e-16 0)
(2 -2.84755e-16 0)
(2 -1.21556e-16 0)
(2 -1.36565e-16 0)
(2 -3.75606e-16 0)
(2 -6.13269e-16 0)
(2 -6.92187e-16 0)
(2 -1.03541e-15 0)
(2 -9.88419e-16 0)
(2 -1.11041e-15 0)
(2 -1.20563e-15 0)
(2 -1.24073e-15 0)
(2 -1.20754e-15 0)
(2 -1.14551e-15 0)
(2 -8.23412e-16 0)
(2 -8.31512e-16 0)
(2 -3.47088e-16 0)
(2 -1.23452e-16 0)
(2 3.83914e-16 0)
(2 -2.17548e-16 0)
(2 -9.37657e-16 0)
(2 -1.15809e-15 0)
(2 -1.25018e-15 0)
(2 -1.21189e-15 0)
(2 -9.30131e-16 0)
(2 -7.26349e-16 0)
(2 -4.43654e-16 0)
(2 -2.8152e-16 0)
(2 -2.12333e-16 0)
(2 -1.58413e-16 0)
(2 -2.30467e-17 0)
(2 1.28718e-16 0)
(2 2.25691e-16 0)
(2 5.77749e-17 0)
(2 -1.3204e-16 0)
(2 -1.10782e-16 0)
(2 8.8391e-18 0)
(2 -4.41104e-17 0)
(2 -1.95342e-16 0)
(2 -2.86541e-16 0)
(2 -5.36571e-16 0)
(2 -7.95705e-16 0)
(2 -8.77577e-16 0)
(2 -9.84895e-16 0)
(2 -1.00027e-15 0)
(2 -8.99003e-16 0)
(2 -6.15522e-16 0)
(2 -4.34058e-16 0)
(2 -6.13607e-16 0)
(2 -7.99988e-16 0)
(2 -6.81332e-16 0)
(2 -3.80514e-16 0)
(2 -1.11006e-16 0)
(2 6.84669e-17 0)
(2 2.07921e-16 0)
(2 2.0603e-16 0)
(2 1.71596e-16 0)
(2 2.01649e-16 0)
(2 4.49148e-16 0)
(2 4.60208e-16 0)
(2 4.15914e-16 0)
(2 3.56743e-16 0)
(2 2.90367e-16 0)
(2 2.58897e-16 0)
(2 2.6022e-16 0)
(2 2.59989e-16 0)
(2 7.45376e-16 0)
(2 7.43206e-16 0)
(2 7.04119e-16 0)
(2 7.36865e-16 0)
(2 7.32282e-16 0)
(2 6.97564e-16 0)
(2 6.16664e-16 0)
(2 6.03094e-16 0)
(2 6.06139e-16 0)
(2 7.26598e-16 0)
(2 7.34018e-16 0)
(2 7.66291e-16 0)
(2 8.23182e-16 0)
(2 1.21135e-15 0)
(2 1.41721e-15 0)
(2 1.38835e-15 0)
(2 1.84989e-15 0)
(2 2.25052e-15 0)
(2 2.07201e-15 0)
(2 1.97798e-15 0)
(2 1.90889e-15 0)
(2 1.51605e-15 0)
(2 1.31786e-15 0)
(2 1.3983e-15 0)
(2 1.41072e-15 0)
(2 1.44331e-15 0)
(2 1.49727e-15 0)
(2 1.4847e-15 0)
(2 1.7949e-15 0)
(2 1.79449e-15 0)
(2 1.43928e-15 0)
(2 1.33188e-15 0)
(2 1.22645e-15 0)
(2 1.21128e-15 0)
(2 1.37296e-15 0)
(2 1.37647e-15 0)
(2 1.30407e-15 0)
(2 1.08258e-15 0)
(2 9.51646e-16 0)
(2 8.26483e-16 0)
(2 5.11639e-16 0)
(2 2.09435e-16 0)
(2 -2.10196e-17 0)
(2 -1.39968e-16 0)
(2 -4.6477e-16 0)
(2 -1.01496e-15 0)
(2 -1.1424e-15 0)
(2 -1.25802e-15 0)
(2 -1.37289e-15 0)
(2 -1.32853e-15 0)
(2 -1.31262e-15 0)
(2 -1.04769e-15 0)
(2 -9.18877e-16 0)
(2 -1.0313e-15 0)
(2 -6.32378e-16 0)
(2 -5.22699e-16 0)
(2 -2.37678e-16 0)
(2 3.19397e-16 0)
(2 7.14079e-16 0)
(2 9.7405e-16 0)
(2 9.40375e-16 0)
(2 7.67865e-16 0)
(2 2.84838e-16 0)
(2 3.79745e-16 0)
(2 4.78771e-16 0)
(2 4.14845e-16 0)
(2 2.74267e-16 0)
(2 7.87674e-17 0)
(2 -1.95147e-16 0)
(2 -4.38171e-16 0)
(2 -7.25697e-16 0)
(2 -9.01267e-16 0)
(2 -8.46966e-16 0)
(2 -8.49506e-16 0)
(2 -1.05351e-15 0)
(2 -1.09501e-15 0)
(2 -1.12919e-15 0)
(2 -1.10017e-15 0)
(2 -1.20622e-15 0)
(2 -1.03499e-15 0)
(2 -8.94106e-16 0)
(2 -8.32799e-16 0)
(2 -7.99068e-16 0)
(2 -7.29466e-16 0)
(2 -6.94039e-16 0)
(2 -5.62414e-16 0)
(2 -4.4936e-16 0)
(2 -2.28167e-16 0)
(2 -8.52314e-17 0)
(2 -2.95658e-17 0)
(2 7.33075e-17 0)
(2 2.81382e-16 0)
(2 3.17422e-16 0)
(2 8.14444e-16 0)
(2 1.16069e-15 0)
(2 1.08666e-15 0)
(2 7.18302e-16 0)
(2 6.83413e-16 0)
(2 6.02212e-16 0)
(2 4.21083e-16 0)
(2 3.33479e-16 0)
(2 -3.35177e-16 0)
(2 -4.2086e-16 0)
(2 -6.03088e-16 0)
(2 -8.30927e-16 0)
(2 -9.31284e-16 0)
(2 -8.41729e-16 0)
(2 -8.45539e-16 0)
(2 -6.56313e-16 0)
(2 -3.21418e-16 0)
(2 1.28821e-17 0)
(2 3.69577e-16 0)
(2 6.47284e-16 0)
(2 6.53716e-16 0)
(2 1.0018e-15 0)
(2 1.68908e-15 0)
(2 1.76554e-15 0)
(2 1.35919e-15 0)
(2 1.14553e-15 0)
(2 1.13993e-15 0)
(2 1.24057e-15 0)
(2 1.24399e-15 0)
(2 1.25586e-15 0)
(2 1.26586e-15 0)
(2 1.28532e-15 0)
(2 1.28229e-15 0)
(2 1.23204e-15 0)
(2 1.23321e-15 0)
(2 1.23865e-15 0)
(2 1.27159e-15 0)
(2 1.33513e-15 0)
(2 1.33923e-15 0)
(2 5.81159e-16 0)
(2 5.2427e-16 0)
(2 4.40681e-16 0)
(2 4.47494e-16 0)
(2 5.04656e-16 0)
(2 5.59265e-16 0)
(2 5.56116e-16 0)
(2 5.53044e-16 0)
(2 5.9673e-16 0)
(2 6.74177e-16 0)
(2 8.62059e-16 0)
(2 9.59518e-16 0)
(2 1.0471e-15 0)
(2 1.42549e-15 0)
(2 1.83589e-15 0)
(2 1.62351e-15 0)
(2 1.35735e-15 0)
(2 1.19198e-15 0)
(2 1.08507e-15 0)
(2 8.87962e-16 0)
(2 7.3045e-16 0)
(2 4.86266e-16 0)
(2 1.52541e-16 0)
(2 -2.73692e-16 0)
(2 -5.138e-16 0)
(2 -5.05921e-16 0)
(2 -4.70462e-16 0)
(2 -3.52507e-16 0)
(2 7.52199e-17 0)
(2 -2.62718e-16 0)
(2 -3.74401e-16 0)
(2 -4.58277e-16 0)
(2 -7.10091e-16 0)
(2 -8.38141e-16 0)
(2 -9.9386e-16 0)
(2 -1.08647e-15 0)
(2 -1.55039e-15 0)
(2 -1.83528e-15 0)
(2 -2.02124e-15 0)
(2 -2.04838e-15 0)
(2 -2.2978e-15 0)
(2 -2.3374e-15 0)
(2 -2.31375e-15 0)
(2 -1.94634e-15 0)
(2 -1.90092e-15 0)
(2 -9.26436e-16 0)
(2 -4.91463e-16 0)
(2 -3.76601e-16 0)
(2 -3.24293e-16 0)
(2 -2.6234e-16 0)
(2 -2.25596e-16 0)
(2 -2.13827e-16 0)
(2 -2.08849e-16 0)
(2 -1.10443e-16 0)
(2 1.45641e-16 0)
(2 4.67192e-16 0)
(2 7.31668e-16 0)
(2 9.09858e-16 0)
(2 1.01939e-15 0)
(2 1.04419e-15 0)
(2 1.05255e-15 0)
(2 1.04174e-15 0)
(2 9.47135e-16 0)
(2 8.86786e-16 0)
(2 7.33937e-16 0)
(2 5.58043e-16 0)
(2 3.93719e-16 0)
(2 2.22825e-17 0)
(2 -2.96537e-16 0)
(2 -4.9565e-16 0)
(2 -8.76009e-16 0)
(2 -1.18463e-15 0)
(2 -1.50829e-15 0)
(2 -1.82084e-15 0)
(2 -2.01603e-15 0)
(2 -2.09588e-15 0)
(2 -2.3144e-15 0)
(2 -2.49085e-15 0)
(2 -2.71792e-15 0)
(2 -2.66447e-15 0)
(2 -2.1145e-15 0)
(2 -1.48075e-15 0)
(2 -1.3464e-15 0)
(2 -1.52147e-15 0)
(2 -1.73951e-15 0)
(2 -1.05453e-15 0)
(2 -7.39678e-16 0)
(2 -3.8246e-16 0)
(2 -2.38365e-16 0)
(2 -8.50532e-17 0)
(2 7.94123e-17 0)
(2 -1.22076e-16 0)
(2 -7.144e-16 0)
(2 -5.07312e-16 0)
(2 -3.57828e-17 0)
(2 8.15807e-16 0)
(2 1.51e-15 0)
(2 1.31262e-15 0)
(2 1.05923e-15 0)
(2 9.96862e-16 0)
(2 9.96406e-16 0)
(2 5.69301e-16 0)
(2 1.51468e-16 0)
(2 1.32281e-16 0)
(2 1.79534e-16 0)
(2 2.07869e-16 0)
(2 1.1404e-16 0)
(2 1.82872e-16 0)
(2 -1.30637e-16 0)
(2 1.3365e-16 0)
(2 2.66999e-16 0)
(2 5.88329e-16 0)
(2 8.35462e-16 0)
(2 9.7008e-16 0)
(2 1.14681e-15 0)
(2 1.46996e-15 0)
(2 1.5955e-15 0)
(2 1.42616e-15 0)
(2 1.38322e-15 0)
(2 1.41415e-15 0)
(2 1.48162e-15 0)
(2 1.63608e-15 0)
(2 1.73622e-15 0)
(2 1.67032e-15 0)
(2 1.53782e-15 0)
(2 1.4875e-15 0)
(2 1.43506e-15 0)
(2 1.36078e-15 0)
(2 1.33866e-15 0)
(2 1.38216e-15 0)
(2 1.40127e-15 0)
(2 1.44915e-15 0)
(2 9.12844e-16 0)
(2 8.70253e-16 0)
(2 8.54572e-16 0)
(2 7.91871e-16 0)
(2 7.85545e-16 0)
(2 7.98919e-16 0)
(2 8.70378e-16 0)
(2 8.81392e-16 0)
(2 9.16497e-16 0)
(2 8.98226e-16 0)
(2 8.57733e-16 0)
(2 8.66526e-16 0)
(2 7.39371e-16 0)
(2 6.80857e-16 0)
(2 9.6815e-16 0)
(2 1.01229e-15 0)
(2 -1.65879e-16 0)
(2 -3.48219e-16 0)
(2 -6.0177e-16 0)
(2 -9.66944e-16 0)
(2 -1.6895e-15 0)
(2 -2.14109e-15 0)
(2 -2.21652e-15 0)
(2 -2.21429e-15 0)
(2 -2.14848e-15 0)
(2 -1.86701e-15 0)
(2 -1.74073e-15 0)
(2 -1.32635e-15 0)
(2 -1.39421e-15 0)
(2 -9.03595e-16 0)
(2 -7.46626e-16 0)
(2 -9.40854e-16 0)
(2 -1.12704e-15 0)
(2 -1.42271e-15 0)
(2 -1.93556e-15 0)
(2 -2.43254e-15 0)
(2 -2.48665e-15 0)
(2 -2.39361e-15 0)
(2 -2.3499e-15 0)
(2 -2.04778e-15 0)
(2 -1.48723e-15 0)
(2 -1.38091e-15 0)
(2 -1.27682e-15 0)
(2 -1.00061e-15 0)
(2 -8.71642e-16 0)
(2 -7.77167e-16 0)
(2 -6.02339e-16 0)
(2 -5.39461e-16 0)
(2 -4.95211e-16 0)
(2 -3.03481e-16 0)
(2 -1.8673e-16 0)
(2 -1.09593e-16 0)
(2 -5.37727e-17 0)
(2 -4.94005e-17 0)
(2 -4.75774e-17 0)
(2 2.09713e-17 0)
(2 2.78192e-17 0)
(2 3.735e-17 0)
(2 7.84909e-17 0)
(2 1.30051e-16 0)
(2 7.77167e-17 0)
(2 -1.30197e-16 0)
(2 -2.59382e-16 0)
(2 -2.81767e-16 0)
(2 -2.01435e-16 0)
(2 -4.7117e-17 0)
(2 5.66549e-18 0)
(2 -8.01334e-17 0)
(2 -2.21044e-16 0)
(2 -4.67558e-16 0)
(2 -7.4428e-16 0)
(2 -9.40406e-16 0)
(2 -1.16326e-15 0)
(2 -1.8234e-15 0)
(2 -2.35684e-15 0)
(2 -2.59555e-15 0)
(2 -2.57671e-15 0)
(2 -2.49814e-15 0)
(2 -2.51204e-15 0)
(2 -2.34931e-15 0)
(2 -1.60275e-15 0)
(2 -1.66234e-15 0)
(2 -1.8071e-15 0)
(2 -1.88777e-15 0)
(2 -1.78893e-15 0)
(2 -1.49183e-15 0)
(2 -1.42297e-15 0)
(2 -1.51446e-15 0)
(2 -1.68573e-15 0)
(2 -1.71563e-15 0)
(2 -1.62144e-15 0)
(2 -1.52536e-15 0)
(2 -1.49824e-15 0)
(2 -1.27781e-15 0)
(2 -1.01571e-15 0)
(2 -9.86993e-16 0)
(2 -1.00253e-15 0)
(2 -3.4794e-16 0)
(2 7.31707e-16 0)
(2 1.25534e-15 0)
(2 1.44527e-15 0)
(2 1.65394e-15 0)
(2 1.53763e-15 0)
(2 1.38458e-15 0)
(2 1.18564e-15 0)
(2 1.09595e-15 0)
(2 1.2525e-15 0)
(2 1.58713e-15 0)
(2 1.92951e-15 0)
(2 2.08626e-15 0)
(2 2.02785e-15 0)
(2 2.13506e-15 0)
(2 2.20041e-15 0)
(2 2.44319e-15 0)
(2 2.47713e-15 0)
(2 2.29791e-15 0)
(2 2.22986e-15 0)
(2 2.43192e-15 0)
(2 2.59637e-15 0)
(2 2.67799e-15 0)
(2 2.59085e-15 0)
(2 2.33694e-15 0)
(2 2.18504e-15 0)
(2 1.97213e-15 0)
(2 1.82431e-15 0)
(2 1.48948e-15 0)
(2 1.33357e-15 0)
(2 1.22804e-15 0)
(2 1.04119e-15 0)
(2 9.39451e-16 0)
(2 8.58113e-16 0)
(2 8.1821e-16 0)
(2 7.4813e-16 0)
(2 8.86931e-16 0)
(2 1.20269e-15 0)
(2 1.33165e-15 0)
(2 1.41787e-15 0)
(2 1.41949e-15 0)
(2 1.43653e-15 0)
(2 1.21512e-15 0)
(2 8.26482e-16 0)
(2 4.53735e-16 0)
(2 -9.7554e-17 0)
(2 -2.72926e-16 0)
(2 -4.19423e-16 0)
(2 -6.92193e-16 0)
(2 -9.20958e-16 0)
(2 -9.16846e-16 0)
(2 -8.68185e-16 0)
(2 -9.02055e-16 0)
(2 -9.84347e-16 0)
(2 -1.09929e-15 0)
(2 -1.24872e-15 0)
(2 -1.42489e-15 0)
(2 -1.44687e-15 0)
(2 -1.38328e-15 0)
(2 -1.37328e-15 0)
(2 -1.35878e-15 0)
(2 -1.30925e-15 0)
(2 -1.37897e-15 0)
(2 -1.57753e-15 0)
(2 -1.53774e-15 0)
(2 -1.606e-15 0)
(2 -1.55385e-15 0)
(2 -1.31116e-15 0)
(2 -1.62681e-15 0)
(2 -1.88681e-15 0)
(2 -1.85949e-15 0)
(2 -1.73524e-15 0)
(2 -1.75963e-15 0)
(2 -1.87478e-15 0)
(2 -1.88648e-15 0)
(2 -1.65939e-15 0)
(2 -1.5003e-15 0)
(2 -1.38152e-15 0)
(2 -1.03826e-15 0)
(2 -8.49405e-16 0)
(2 -7.72712e-16 0)
(2 -6.38435e-16 0)
(2 -5.27624e-16 0)
(2 -3.35263e-16 0)
(2 -2.2216e-16 0)
(2 -1.97816e-16 0)
(2 -1.75358e-16 0)
(2 -1.22453e-16 0)
(2 -7.41193e-17 0)
(2 -7.19827e-17 0)
(2 -2.65701e-16 0)
(2 -3.7461e-16 0)
(2 -4.55001e-16 0)
(2 -5.31307e-16 0)
(2 -6.67206e-16 0)
(2 -7.85157e-16 0)
(2 -9.59282e-16 0)
(2 -9.79008e-16 0)
(2 -7.30145e-16 0)
(2 -5.96558e-16 0)
(2 -6.78889e-16 0)
(2 4.16621e-17 0)
(2 7.52388e-16 0)
(2 1.13173e-15 0)
(2 1.18341e-15 0)
(2 1.17846e-15 0)
(2 1.20276e-15 0)
(2 1.20121e-15 0)
(2 9.10344e-16 0)
(2 5.81979e-16 0)
(2 5.17363e-16 0)
(2 3.55443e-16 0)
(2 5.02187e-16 0)
(2 -1.66508e-16 0)
(2 -6.51485e-16 0)
(2 -1.28582e-15 0)
(2 -1.6703e-15 0)
(2 -1.69291e-15 0)
(2 -1.54535e-15 0)
(2 -1.18771e-15 0)
(2 -1.13598e-15 0)
(2 -1.01327e-15 0)
(2 -9.60945e-16 0)
(2 -9.19538e-16 0)
(2 -9.67451e-16 0)
(2 -1.15101e-15 0)
(2 -1.2014e-15 0)
(2 -1.22647e-15 0)
(2 -9.7068e-16 0)
(2 -7.40848e-16 0)
(2 -6.05061e-16 0)
(2 -5.61348e-16 0)
(2 -2.43769e-16 0)
(2 -2.41916e-16 0)
(2 3.38524e-16 0)
(2 1.68758e-15 0)
(2 1.78243e-15 0)
(2 1.72306e-15 0)
(2 1.83602e-15 0)
(2 2.05258e-15 0)
(2 2.13076e-15 0)
(2 1.98977e-15 0)
(2 2.22388e-15 0)
(2 2.63436e-15 0)
(2 3.73058e-15 0)
(2 3.80353e-15 0)
(2 3.69904e-15 0)
(2 3.26289e-15 0)
(2 2.88347e-15 0)
(2 2.83331e-15 0)
(2 3.11275e-15 0)
(2 3.2674e-15 0)
(2 3.46931e-15 0)
(2 3.52126e-15 0)
(2 3.50627e-15 0)
(2 3.3949e-15 0)
(2 3.19284e-15 0)
(2 2.98331e-15 0)
(2 2.75904e-15 0)
(2 2.17752e-15 0)
(2 1.93321e-15 0)
(2 1.86764e-15 0)
(2 1.8462e-15 0)
(2 1.72212e-15 0)
(2 1.66145e-15 0)
(2 1.66771e-15 0)
(2 1.69539e-15 0)
(2 -9.26692e-18 0)
(2 -4.36405e-17 0)
(2 2.38495e-16 0)
(2 5.44553e-16 0)
(2 7.26958e-16 0)
(2 8.16471e-16 0)
(2 5.1562e-16 0)
(2 1.34579e-18 0)
(2 -1.39515e-16 0)
(2 -3.38659e-16 0)
(2 -6.03068e-16 0)
(2 -8.74338e-16 0)
(2 -1.17383e-15 0)
(2 -1.23269e-15 0)
(2 -1.20486e-15 0)
(2 -9.99936e-16 0)
(2 -8.14933e-16 0)
(2 -7.69238e-16 0)
(2 -6.25502e-16 0)
(2 -5.59949e-16 0)
(2 -1.32322e-16 0)
(2 2.28131e-16 0)
(2 2.09148e-16 0)
(2 -2.13497e-16 0)
(2 -5.75679e-16 0)
(2 -1.08396e-15 0)
(2 -1.34935e-15 0)
(2 -1.36326e-15 0)
(2 -1.34252e-15 0)
(2 -1.35204e-15 0)
(2 -1.31289e-15 0)
(2 -1.42031e-15 0)
(2 -1.75489e-15 0)
(2 -1.91762e-15 0)
(2 -1.79048e-15 0)
(2 -1.45166e-15 0)
(2 -1.4725e-15 0)
(2 -1.48855e-15 0)
(2 -1.43347e-15 0)
(2 -1.36023e-15 0)
(2 -1.19246e-15 0)