/*--------------------------------*- C++ -*----------------------------------*\
  =========                 |
  \\      /  F ield         | OpenFOAM: The Open Source CFD Toolbox
   \\    /   O peration     | Website:  https://openfoam.org
    \\  /    A nd           | Version:  7
     \\/     M anipulation  |
\*---------------------------------------------------------------------------*/
FoamFile
{
    version     2.0;
    format      ascii;
    class       volVectorField;
    location    "18";
    object      U;
}
// * * * * * * * * * * * * * * * * * * * * * * * * * * * * * * * * * * * * * //

dimensions      [0 1 -1 0 0 0 0];

internalField   nonuniform List<vector> 
2413
(
(1.80638 0.0125314 0)
(1.79785 0.0345202 0)
(1.78611 0.0590971 0)
(1.77288 0.0855924 0)
(1.77029 0.0965202 0)
(1.77553 0.10792 0)
(1.77746 0.115071 0)
(1.783 0.122357 0)
(1.83976 -0.0141153 0)
(1.82914 0.00976864 0)
(1.82074 0.0309867 0)
(1.80497 0.0605554 0)
(1.79923 0.0783583 0)
(1.79438 0.0982862 0)
(1.78956 0.113807 0)
(1.79353 0.120818 0)
(1.86277 -0.0297773 0)
(1.85709 -0.0138093 0)
(1.84888 0.00787422 0)
(1.84135 0.0275954 0)
(1.83305 0.048938 0)
(1.81839 0.0795715 0)
(1.81237 0.0999315 0)
(1.81351 0.10888 0)
(1.87886 -0.0386368 0)
(1.87699 -0.0282461 0)
(1.87344 -0.0142341 0)
(1.86926 0.0017585 0)
(1.86277 0.0205655 0)
(1.85342 0.043636 0)
(1.84617 0.06545 0)
(1.83803 0.0891319 0)
(1.88909 -0.0418793 0)
(1.89 -0.0349022 0)
(1.88987 -0.0254386 0)
(1.88834 -0.0143412 0)
(1.88626 -0.00248074 0)
(1.88162 0.0132895 0)
(1.87729 0.0302963 0)
(1.86847 0.0543748 0)
(1.89837 -0.0402417 0)
(1.89847 -0.0343059 0)
(1.89928 -0.0268838 0)
(1.90078 -0.0199854 0)
(1.90176 -0.0137743 0)
(1.90116 -0.00577865 0)
(1.89899 0.00640198 0)
(1.89672 0.0199173 0)
(1.90363 -0.0309433 0)
(1.90381 -0.0267882 0)
(1.90491 -0.0222604 0)
(1.90641 -0.0191527 0)
(1.90778 -0.0151054 0)
(1.91015 -0.0105226 0)
(1.9123 -0.00532731 0)
(1.91433 0.000952639 0)
(1.90889 -0.0269633 0)
(1.91041 -0.0269028 0)
(1.91172 -0.0240282 0)
(1.91247 -0.0183444 0)
(1.91298 -0.0122197 0)
(1.91583 -0.00856828 0)
(1.91853 -0.00656651 0)
(1.92256 -0.00340855 0)
(1.90698 -0.0108788 0)
(1.91013 -0.0134695 0)
(1.91361 -0.01306 0)
(1.91645 -0.012962 0)
(1.91866 -0.0119802 0)
(1.921 -0.00967653 0)
(1.92443 -0.00554301 0)
(1.92703 -0.00125667 0)
(1.90645 0.00202122 0)
(1.90974 -0.00128371 0)
(1.91334 -0.00162598 0)
(1.91682 -0.0010714 0)
(1.92091 -0.00263415 0)
(1.92457 -0.0037548 0)
(1.92888 -0.00291095 0)
(1.93207 -0.00168791 0)
(1.90626 0.0138278 0)
(1.90944 0.0108315 0)
(1.91282 0.00993291 0)
(1.91678 0.0104913 0)
(1.9209 0.00905112 0)
(1.92467 0.00743865 0)
(1.92855 0.00778017 0)
(1.93244 0.00793592 0)
(1.90352 0.0285636 0)
(1.9082 0.0240891 0)
(1.91226 0.0213132 0)
(1.91657 0.0208541 0)
(1.92104 0.0190033 0)
(1.92519 0.0160098 0)
(1.92941 0.0145338 0)
(1.9338 0.0140056 0)
(1.90031 0.0427938 0)
(1.90455 0.0390428 0)
(1.90869 0.0359258 0)
(1.91327 0.0345362 0)
(1.91843 0.0316435 0)
(1.92338 0.027204 0)
(1.92783 0.0246442 0)
(1.9324 0.0237781 0)
(1.89942 0.0520893 0)
(1.90354 0.0482833 0)
(1.90722 0.045217 0)
(1.91104 0.0448818 0)
(1.91525 0.0433735 0)
(1.91976 0.0394974 0)
(1.92423 0.0362507 0)
(1.92916 0.0344808 0)
(1.89582 0.063932 0)
(1.90067 0.0592787 0)
(1.90467 0.0554297 0)
(1.90865 0.0540435 0)
(1.91309 0.0520552 0)
(1.91765 0.0478837 0)
(1.92164 0.0444866 0)
(1.92593 0.0434898 0)
(1.89154 0.0749041 0)
(1.89627 0.0706286 0)
(1.90075 0.0659957 0)
(1.90504 0.0633481 0)
(1.90969 0.0609594 0)
(1.91426 0.0573064 0)
(1.91839 0.0533856 0)
(1.92277 0.0511595 0)
(1.88771 0.0836272 0)
(1.89263 0.0790901 0)
(1.89685 0.0750531 0)
(1.90081 0.0723541 0)
(1.90529 0.0697704 0)
(1.9101 0.0661666 0)
(1.91468 0.0615979 0)
(1.91898 0.0582914 0)
(1.88197 0.0935134 0)
(1.88726 0.0886872 0)
(1.89211 0.0840808 0)
(1.89683 0.0798374 0)
(1.9018 0.0756954 0)
(1.90639 0.0728369 0)
(1.91053 0.0699134 0)
(1.91491 0.0658784 0)
(1.87586 0.102339 0)
(1.88126 0.0972942 0)
(1.88638 0.092672 0)
(1.89121 0.0886339 0)
(1.89625 0.0844685 0)
(1.90141 0.0807304 0)
(1.9065 0.0770473 0)
(1.91154 0.0720189 0)
(1.89673 -0.0191062 0)
(1.89839 -0.0187083 0)
(1.9014 -0.0176831 0)
(1.90316 -0.0167677 0)
(1.90425 -0.0152418 0)
(1.90411 -0.012728 0)
(1.90422 -0.0105808 0)
(1.90336 -0.00849151 0)
(1.90189 -0.00627124 0)
(1.90098 -0.00513577 0)
(1.90073 -0.00454895 0)
(1.90202 -0.00426702 0)
(1.90338 -0.00393353 0)
(1.90534 -0.00355434 0)
(1.90765 -0.00287153 0)
(1.91049 -0.00276764 0)
(1.91445 -0.00273038 0)
(1.91866 -0.00275803 0)
(1.92234 -0.00278632 0)
(1.78968 0.129513 0)
(1.79766 0.130389 0)
(1.80707 0.12942 0)
(1.81852 0.126522 0)
(1.83069 0.123111 0)
(1.84322 0.118321 0)
(1.8573 0.109282 0)
(1.86988 0.105116 0)
(1.88116 0.103281 0)
(1.89484 0.0941826 0)
(1.90577 0.0918371 0)
(1.91642 0.091756 0)
(1.92732 0.0884494 0)
(1.93591 0.0881689 0)
(1.94442 0.0909867 0)
(1.95311 0.0918187 0)
(1.96213 0.0913854 0)
(1.97151 0.0931925 0)
(1.98006 0.0946841 0)
(1.98978 0.0935532 0)
(1.99948 0.0926387 0)
(2.01047 0.0927769 0)
(2.02229 0.0893507 0)
(2.03272 0.0847723 0)
(2.04297 0.0838218 0)
(2.05448 0.0798224 0)
(2.06707 0.0699989 0)
(2.07728 0.0634424 0)
(2.08786 0.0613111 0)
(2.10033 0.0535087 0)
(2.11373 0.0379251 0)
(2.12251 0.0285663 0)
(2.13205 0.0275903 0)
(2.1428 0.020738 0)
(2.15528 0.00501134 0)
(2.16172 -0.00531139 0)
(2.16861 -0.00623895 0)
(2.17725 -0.0134008 0)
(2.18721 -0.0270938 0)
(2.18994 -0.0328598 0)
(2.1956 -0.0396031 0)
(2.19688 -0.0464496 0)
(2.19355 -0.0562507 0)
(2.19403 -0.0621718 0)
(2.18998 -0.070024 0)
(2.18104 -0.0800556 0)
(2.1714 -0.0900866 0)
(2.16042 -0.10054 0)
(2.14912 -0.106433 0)
(2.14098 -0.112542 0)
(2.14075 -0.121817 0)
(2.13988 -0.128957 0)
(2.14255 -0.129544 0)
(2.14702 -0.128658 0)
(2.15438 -0.13481 0)
(2.16034 -0.143383 0)
(2.1648 -0.147427 0)
(2.16792 -0.150335 0)
(2.17021 -0.156539 0)
(2.17176 -0.162319 0)
(2.17084 -0.166044 0)
(2.16957 -0.170822 0)
(2.16978 -0.173483 0)
(2.16962 -0.176541 0)
(2.16666 -0.180743 0)
(2.16485 -0.183336 0)
(2.16173 -0.182808 0)
(2.15756 -0.182049 0)
(2.15234 -0.18179 0)
(2.14644 -0.17854 0)
(2.14053 -0.175629 0)
(2.13355 -0.172955 0)
(2.12602 -0.167677 0)
(2.11809 -0.163866 0)
(2.10937 -0.161082 0)
(2.10009 -0.153344 0)
(2.09207 -0.145938 0)
(2.08378 -0.144425 0)
(2.07548 -0.140242 0)
(2.06534 -0.127871 0)
(2.05756 -0.120788 0)
(2.04914 -0.118595 0)
(2.03782 -0.106754 0)
(2.02928 -0.0942042 0)
(2.0212 -0.0919893 0)
(2.01257 -0.0854245 0)
(2.00293 -0.0729926 0)
(1.99624 -0.0676516 0)
(1.98934 -0.0658164 0)
(1.98146 -0.0592292 0)
(1.97604 -0.0512045 0)
(1.9717 -0.0485154 0)
(1.96641 -0.0466396 0)
(1.9586 -0.0395492 0)
(1.95043 -0.0337967 0)
(1.93818 -0.0295258 0)
(1.92248 -0.0246807 0)
(1.90839 -0.0227905 0)
(1.90132 -0.0200772 0)
(1.90033 -0.0188218 0)
(1.90026 -0.0177671 0)
(1.9016 -0.0161837 0)
(1.90283 -0.0152258 0)
(1.90506 -0.0143686 0)
(1.90741 -0.01325 0)
(1.90827 -0.0124082 0)
(1.90832 -0.0106457 0)
(1.9081 -0.00857325 0)
(1.90742 -0.00674873 0)
(1.90618 -0.00506425 0)
(1.90502 -0.00383197 0)
(1.90493 -0.00350845 0)
(1.90622 -0.00316143 0)
(1.90705 -0.00247754 0)
(1.90865 -0.00214221 0)
(1.91084 -0.00213252 0)
(1.91376 -0.00208916 0)
(1.91771 -0.00213113 0)
(1.92176 -0.00280602 0)
(1.92537 -0.00311329 0)
(1.79981 0.126831 0)
(1.80557 0.134454 0)
(1.81015 0.139264 0)
(1.81667 0.143321 0)
(1.82553 0.143039 0)
(1.83625 0.140192 0)
(1.84765 0.137962 0)
(1.86085 0.131588 0)
(1.87402 0.124226 0)
(1.88532 0.121183 0)
(1.89938 0.112205 0)
(1.91193 0.106972 0)
(1.92253 0.105736 0)
(1.93509 0.098192 0)
(1.94524 0.0946698 0)
(1.9553 0.093477 0)
(1.96385 0.0908057 0)
(1.97173 0.0918614 0)
(1.9794 0.0922953 0)
(1.99041 0.0894593 0)
(1.99933 0.0862387 0)
(2.00869 0.0865528 0)
(2.01956 0.0837735 0)
(2.02926 0.0792266 0)
(2.03795 0.0784697 0)
(2.04788 0.0752783 0)
(2.05908 0.0678774 0)
(2.06858 0.0623981 0)
(2.07812 0.0600029 0)
(2.08887 0.0551552 0)
(2.10105 0.0440602 0)
(2.10992 0.0350582 0)
(2.11868 0.0332314 0)
(2.12879 0.0274826 0)
(2.14088 0.0125837 0)
(2.14731 0.00265885 0)
(2.15347 0.000784364 0)
(2.16325 -0.00730583 0)
(2.17275 -0.019892 0)
(2.1756 -0.027168 0)
(2.18108 -0.0354369 0)
(2.18211 -0.0441012 0)
(2.17831 -0.0561779 0)
(2.17843 -0.0623408 0)
(2.17399 -0.0712922 0)
(2.16137 -0.0843573 0)
(2.1539 -0.0946674 0)
(2.14641 -0.103561 0)
(2.13482 -0.111681 0)
(2.13169 -0.116691 0)
(2.13281 -0.124784 0)
(2.1319 -0.131411 0)
(2.13558 -0.131651 0)
(2.14046 -0.130621 0)
(2.1485 -0.137726 0)
(2.15346 -0.146357 0)
(2.15722 -0.149028 0)
(2.15999 -0.151407 0)
(2.16325 -0.157842 0)
(2.16539 -0.164304 0)
(2.16534 -0.167138 0)
(2.16495 -0.170904 0)
(2.16454 -0.175062 0)
(2.16533 -0.179398 0)
(2.16457 -0.182487 0)
(2.16271 -0.184568 0)
(2.16127 -0.186985 0)
(2.15933 -0.187797 0)
(2.15606 -0.188654 0)
(2.1518 -0.187825 0)
(2.14685 -0.183609 0)
(2.14176 -0.182052 0)
(2.13546 -0.178498 0)
(2.12773 -0.170718 0)
(2.12025 -0.166396 0)
(2.11177 -0.160613 0)
(2.10298 -0.150962 0)
(2.09532 -0.146781 0)
(2.08751 -0.144182 0)
(2.07729 -0.133316 0)
(2.06991 -0.124022 0)
(2.06229 -0.122838 0)
(2.0525 -0.11485 0)
(2.04312 -0.100265 0)
(2.03565 -0.0966218 0)
(2.0273 -0.0911416 0)
(2.0161 -0.0764857 0)
(2.00914 -0.0691012 0)
(2.00219 -0.0669608 0)
(1.99363 -0.0593527 0)
(1.98717 -0.050335 0)
(1.98286 -0.0472354 0)
(1.97791 -0.044502 0)
(1.9706 -0.0380678 0)
(1.9625 -0.0323047 0)
(1.9508 -0.0290892 0)
(1.93414 -0.0234914 0)
(1.91678 -0.0192476 0)
(1.90641 -0.016926 0)
(1.90489 -0.0154985 0)
(1.90505 -0.0152924 0)
(1.90598 -0.0145251 0)
(1.90726 -0.0132545 0)
(1.90913 -0.0126219 0)
(1.91128 -0.0110295 0)
(1.91159 -0.00888648 0)
(1.9117 -0.00746525 0)
(1.91156 -0.00652326 0)
(1.91074 -0.00525276 0)
(1.90965 -0.00380511 0)
(1.90858 -0.00354579 0)
(1.90872 -0.00405807 0)
(1.91002 -0.00373588 0)
(1.9109 -0.00292704 0)
(1.91243 -0.00277724 0)
(1.91418 -0.00271038 0)
(1.91718 -0.00263693 0)
(1.92119 -0.00237393 0)
(1.92483 -0.00251878 0)
(1.92828 -0.00277126 0)
(1.81384 0.120042 0)
(1.81398 0.132119 0)
(1.81654 0.141156 0)
(1.82343 0.142852 0)
(1.83112 0.146355 0)
(1.8377 0.149124 0)
(1.84564 0.152314 0)
(1.85446 0.153237 0)
(1.8641 0.151053 0)
(1.87606 0.146086 0)
(1.88853 0.140821 0)
(1.90162 0.133786 0)
(1.91452 0.127105 0)
(1.92765 0.119064 0)
(1.93877 0.112441 0)
(1.94755 0.111537 0)
(1.9591 0.103784 0)
(1.96896 0.0951479 0)
(1.97757 0.0962086 0)
(1.98696 0.0945217 0)
(1.99627 0.090021 0)
(2.00438 0.0897339 0)
(2.01513 0.0849214 0)
(2.02402 0.0812514 0)
(2.03153 0.0808276 0)
(2.0425 0.0744919 0)
(2.05218 0.0679523 0)
(2.06026 0.0659735 0)
(2.06979 0.0616662 0)
(2.08013 0.0557351 0)
(2.09105 0.0472663 0)
(2.10032 0.0383977 0)
(2.10802 0.0350442 0)
(2.11707 0.030484 0)
(2.12848 0.0185799 0)
(2.13556 0.00875018 0)
(2.14162 0.00365696 0)
(2.15122 -0.00474051 0)
(2.15841 -0.0120418 0)
(2.16227 -0.0204665 0)
(2.16739 -0.0299705 0)
(2.16692 -0.0398122 0)
(2.16185 -0.0529756 0)
(2.16163 -0.0596673 0)
(2.15575 -0.0692331 0)
(2.14309 -0.0816208 0)
(2.1361 -0.0903382 0)
(2.12775 -0.102079 0)
(2.12293 -0.107555 0)
(2.12095 -0.112205 0)
(2.12349 -0.121419 0)
(2.124 -0.128663 0)
(2.1287 -0.128572 0)
(2.1334 -0.12902 0)
(2.14197 -0.137783 0)
(2.14639 -0.147345 0)
(2.15004 -0.149664 0)
(2.15293 -0.151285 0)
(2.15687 -0.157818 0)
(2.15878 -0.165213 0)
(2.15902 -0.167577 0)
(2.15933 -0.170975 0)
(2.16026 -0.175675 0)
(2.16075 -0.181113 0)
(2.15998 -0.183188 0)
(2.16 -0.185451 0)
(2.1588 -0.188287 0)
(2.15745 -0.190907 0)
(2.15611 -0.192917 0)
(2.15383 -0.193605 0)
(2.15075 -0.192039 0)
(2.14737 -0.189991 0)
(2.14307 -0.187944 0)
(2.13698 -0.18215 0)
(2.13068 -0.175761 0)
(2.12363 -0.170465 0)
(2.11547 -0.162593 0)
(2.10769 -0.155567 0)
(2.0999 -0.152378 0)
(2.09021 -0.142939 0)
(2.08261 -0.131459 0)
(2.07589 -0.129623 0)
(2.06778 -0.123941 0)
(2.05758 -0.107962 0)
(2.05084 -0.102122 0)
(2.04281 -0.0978492 0)
(2.03066 -0.0825203 0)
(2.02327 -0.0738665 0)
(2.01551 -0.0703892 0)
(2.00585 -0.0618999 0)
(1.99854 -0.0525451 0)
(1.99394 -0.0478592 0)
(1.98857 -0.043061 0)
(1.9815 -0.0361962 0)
(1.97351 -0.0317256 0)
(1.96217 -0.0285765 0)
(1.94479 -0.0214042 0)
(1.92534 -0.0146285 0)
(1.91164 -0.0141533 0)
(1.90825 -0.0138966 0)
(1.90874 -0.0129708 0)
(1.90913 -0.0120702 0)
(1.91024 -0.0101064 0)
(1.91133 -0.00864273 0)
(1.91283 -0.00695846 0)
(1.91352 -0.00458101 0)
(1.91341 -0.00315187 0)
(1.91336 -0.00259687 0)
(1.91275 -0.00193308 0)
(1.91182 -0.000922701 0)
(1.91109 -0.00097697 0)
(1.91114 -0.00149535 0)
(1.91195 -0.000796375 0)
(1.91337 -1.71408e-05 0)
(1.91521 -0.000181516 0)
(1.91677 -0.000834355 0)
(1.91956 -0.00112304 0)
(1.92363 -0.00121477 0)
(1.92737 -0.0012011 0)
(1.93075 -0.0016004 0)
(1.83019 0.111609 0)
(1.82994 0.122071 0)
(1.83387 0.130368 0)
(1.83579 0.136511 0)
(1.84104 0.141314 0)
(1.84483 0.147303 0)
(1.84864 0.152459 0)
(1.85697 0.157976 0)
(1.86449 0.159526 0)
(1.87294 0.159388 0)
(1.88226 0.159242 0)
(1.89235 0.157879 0)
(1.90365 0.153039 0)
(1.91473 0.147878 0)
(1.92726 0.139304 0)
(1.93922 0.130735 0)
(1.95053 0.12443 0)
(1.96081 0.118154 0)
(1.96946 0.115036 0)
(1.98185 0.106234 0)
(1.99155 0.0987065 0)
(1.99911 0.0989248 0)
(2.00991 0.0927752 0)
(2.01896 0.0859399 0)
(2.02599 0.0849318 0)
(2.03659 0.0781191 0)
(2.04531 0.0724025 0)
(2.05223 0.0717877 0)
(2.06277 0.0655728 0)
(2.07272 0.0571163 0)
(2.08097 0.0541548 0)
(2.0882 0.0511549 0)
(2.09706 0.0441873 0)
(2.10684 0.0353736 0)
(2.11506 0.0290522 0)
(2.1206 0.0236699 0)
(2.12879 0.0144837 0)
(2.1369 0.00665833 0)
(2.14265 0.00246363 0)
(2.148 -0.00665628 0)
(2.15148 -0.0167213 0)
(2.14955 -0.0272205 0)
(2.14314 -0.0408073 0)
(2.14247 -0.0478592 0)
(2.13651 -0.057793 0)
(2.12337 -0.0703509 0)
(2.11666 -0.0804361 0)
(2.11239 -0.0933287 0)
(2.10987 -0.0998113 0)
(2.1098 -0.105753 0)
(2.11388 -0.116278 0)
(2.11678 -0.122289 0)
(2.12208 -0.120925 0)
(2.12713 -0.122682 0)
(2.13454 -0.133204 0)
(2.13726 -0.141692 0)
(2.14022 -0.14287 0)
(2.14245 -0.144803 0)
(2.14655 -0.151874 0)
(2.14884 -0.16029 0)
(2.14923 -0.163544 0)
(2.15039 -0.167357 0)
(2.15272 -0.172672 0)
(2.15375 -0.179317 0)
(2.15375 -0.181644 0)
(2.15496 -0.183595 0)
(2.15483 -0.187212 0)
(2.15491 -0.189248 0)
(2.15385 -0.191573 0)
(2.15285 -0.19294 0)
(2.1521 -0.192749 0)
(2.15039 -0.192076 0)
(2.1478 -0.191254 0)
(2.14412 -0.188736 0)
(2.13984 -0.185001 0)
(2.13465 -0.180893 0)
(2.12814 -0.175556 0)
(2.12039 -0.166915 0)
(2.11277 -0.161063 0)
(2.10473 -0.154729 0)
(2.09587 -0.140859 0)
(2.08962 -0.135008 0)
(2.08336 -0.13186 0)
(2.07267 -0.116415 0)
(2.0663 -0.106654 0)
(2.0596 -0.104555 0)
(2.0472 -0.0903551 0)
(2.03909 -0.079394 0)
(2.03079 -0.0745122 0)
(2.01949 -0.0634239 0)
(2.01135 -0.0546461 0)
(2.00529 -0.0494211 0)
(1.99837 -0.0423989 0)
(1.99112 -0.0350786 0)
(1.98332 -0.0312738 0)
(1.97238 -0.0278688 0)
(1.95544 -0.0196217 0)
(1.93524 -0.0109009 0)
(1.91806 -0.0102893 0)
(1.91118 -0.0104133 0)
(1.91026 -0.00884059 0)
(1.91097 -0.00723206 0)
(1.91156 -0.0048194 0)
(1.91214 -0.00393547 0)
(1.91381 -0.00371216 0)
(1.91549 -0.00261868 0)
(1.91587 -0.00181871 0)
(1.91594 -0.00145357 0)
(1.91553 -0.000929957 0)
(1.91458 -0.000144092 0)
(1.91377 0.000500353 0)
(1.91357 0.000680415 0)
(1.91394 0.00103818 0)
(1.91519 0.00182758 0)
(1.91701 0.00200346 0)
(1.91879 0.00120221 0)
(1.92114 0.000799218 0)
(1.92502 0.000671653 0)
(1.92886 0.000608554 0)
(1.93256 2.75145e-05 0)
(1.85861 0.0813863 0)
(1.85791 0.0927031 0)
(1.85585 0.107123 0)
(1.84941 0.126965 0)
(1.84883 0.136677 0)
(1.85438 0.142666 0)
(1.85776 0.14842 0)
(1.86445 0.1522 0)
(1.87123 0.155839 0)
(1.87661 0.159025 0)
(1.8838 0.161637 0)
(1.89148 0.165495 0)
(1.89899 0.166389 0)
(1.90747 0.164672 0)
(1.91698 0.161326 0)
(1.92748 0.15648 0)
(1.93864 0.150955 0)
(1.95038 0.143472 0)
(1.96074 0.13732 0)
(1.97068 0.131564 0)
(1.98236 0.120618 0)
(1.99133 0.115289 0)
(2.00178 0.108776 0)
(2.01106 0.101359 0)
(2.01782 0.0991853 0)
(2.02843 0.0909463 0)
(2.03745 0.0829802 0)
(2.04459 0.0813225 0)
(2.05467 0.0749331 0)
(2.0637 0.0670438 0)
(2.07076 0.0635592 0)
(2.07907 0.0581795 0)
(2.0887 0.0488951 0)
(2.09618 0.0426523 0)
(2.10207 0.0407887 0)
(2.10929 0.0342113 0)
(2.11902 0.022042 0)
(2.12537 0.0148777 0)
(2.12999 0.0116976 0)
(2.13503 0.00347609 0)
(2.13666 -0.00559194 0)
(2.13371 -0.0152849 0)
(2.12628 -0.0287602 0)
(2.12396 -0.0364984 0)
(2.11812 -0.0461048 0)
(2.10516 -0.0579922 0)
(2.09897 -0.0686848 0)
(2.09867 -0.0821712 0)
(2.09669 -0.0881912 0)
(2.09735 -0.0905026 0)
(2.10307 -0.100416 0)
(2.10763 -0.109157 0)
(2.11343 -0.109507 0)
(2.11806 -0.110812 0)
(2.12578 -0.121558 0)
(2.12936 -0.132176 0)
(2.13251 -0.134244 0)
(2.13517 -0.137902 0)
(2.14043 -0.14628 0)
(2.14277 -0.156622 0)
(2.14409 -0.159804 0)
(2.14576 -0.161903 0)
(2.14877 -0.16785 0)
(2.14967 -0.175017 0)
(2.15008 -0.177418 0)
(2.15157 -0.178843 0)
(2.15225 -0.182498 0)
(2.15272 -0.185582 0)
(2.15254 -0.188097 0)
(2.15248 -0.188724 0)
(2.15212 -0.188924 0)
(2.15112 -0.189021 0)
(2.14935 -0.18928 0)
(2.14701 -0.188594 0)
(2.14455 -0.187098 0)
(2.14144 -0.184835 0)
(2.13722 -0.182133 0)
(2.1316 -0.177446 0)
(2.12529 -0.170897 0)
(2.11908 -0.165354 0)
(2.11133 -0.154466 0)
(2.10481 -0.144714 0)
(2.09893 -0.141037 0)
(2.08893 -0.127902 0)
(2.08163 -0.114055 0)
(2.07543 -0.111937 0)
(2.06418 -0.100242 0)
(2.05505 -0.0853006 0)
(2.04732 -0.0812716 0)
(2.03579 -0.0707113 0)
(2.02592 -0.0591214 0)
(2.01804 -0.0526382 0)
(2.00906 -0.0437667 0)
(2.00099 -0.0353581 0)
(1.99316 -0.0313736 0)
(1.98264 -0.0273868 0)
(1.96619 -0.0182441 0)
(1.94525 -0.00847821 0)
(1.92471 -0.00669502 0)
(1.9143 -0.00672031 0)
(1.91155 -0.00456192 0)
(1.91164 -0.00220606 0)
(1.91186 0.000627514 0)
(1.91219 0.00152938 0)
(1.91366 0.00148718 0)
(1.91657 0.00104232 0)
(1.91735 0.00102498 0)
(1.91772 0.00108568 0)
(1.9176 0.00108061 0)
(1.91681 0.00109851 0)
(1.91604 0.00121632 0)
(1.91577 0.00197175 0)
(1.91575 0.00322345 0)
(1.91644 0.00453659 0)
(1.91789 0.00509664 0)
(1.91939 0.00498978 0)
(1.92191 0.00442291 0)
(1.92554 0.00406535 0)
(1.92936 0.00386198 0)
(1.93323 0.00309382 0)
(1.89341 0.0353361 0)
(1.88583 0.0568484 0)
(1.88097 0.0752372 0)
(1.87446 0.0964808 0)
(1.87459 0.10713 0)
(1.87457 0.119673 0)
(1.87132 0.135936 0)
(1.87205 0.145982 0)
(1.87719 0.150888 0)
(1.88447 0.154288 0)
(1.88931 0.156387 0)
(1.89621 0.159852 0)
(1.90239 0.163287 0)
(1.90838 0.166541 0)
(1.91472 0.167938 0)
(1.9224 0.167325 0)
(1.93108 0.16607 0)
(1.94044 0.164302 0)
(1.94995 0.160978 0)
(1.95985 0.155282 0)
(1.97009 0.147266 0)
(1.97969 0.139907 0)
(1.98941 0.133527 0)
(1.99999 0.124294 0)
(2.00851 0.117825 0)
(2.01844 0.109521 0)
(2.02736 0.101757 0)
(2.03497 0.0975585 0)
(2.04498 0.0896332 0)
(2.05308 0.0829301 0)
(2.06119 0.0759656 0)
(2.06934 0.0701639 0)
(2.07581 0.0669436 0)
(2.08439 0.0585405 0)
(2.0918 0.0510371 0)
(2.09885 0.0453489 0)
(2.10616 0.0377277 0)
(2.11087 0.0341399 0)
(2.11536 0.0285262 0)
(2.11977 0.0186903 0)
(2.12135 0.00886063 0)
(2.11609 -2.38372e-05 0)
(2.10878 -0.013104 0)
(2.10529 -0.0194298 0)
(2.09563 -0.030591 0)
(2.08568 -0.0398355 0)
(2.08497 -0.0516667 0)
(2.08491 -0.0672967 0)
(2.08355 -0.0723713 0)
(2.08634 -0.0738425 0)
(2.09372 -0.0841019 0)
(2.09832 -0.0935537 0)
(2.10343 -0.0937107 0)
(2.10807 -0.0954825 0)
(2.11671 -0.106908 0)
(2.12054 -0.118152 0)
(2.12393 -0.120174 0)
(2.12683 -0.122745 0)
(2.13243 -0.131357 0)
(2.13436 -0.140465 0)
(2.13595 -0.14355 0)
(2.13747 -0.144549 0)
(2.13944 -0.150498 0)
(2.14187 -0.159044 0)
(2.14244 -0.164304 0)
(2.14399 -0.166093 0)
(2.14516 -0.169791 0)
(2.14701 -0.174098 0)
(2.14769 -0.178977 0)
(2.14915 -0.17989 0)
(2.15011 -0.180761 0)
(2.14956 -0.182245 0)
(2.1493 -0.18357 0)
(2.1485 -0.184149 0)
(2.14703 -0.183353 0)
(2.14468 -0.182147 0)
(2.1415 -0.180863 0)
(2.13819 -0.177873 0)
(2.13485 -0.173376 0)
(2.13109 -0.169187 0)
(2.12575 -0.162741 0)
(2.11973 -0.155178 0)
(2.11358 -0.150618 0)
(2.10551 -0.142125 0)
(2.09702 -0.127437 0)
(2.09045 -0.122317 0)
(2.08244 -0.115556 0)
(2.07168 -0.097634 0)
(2.06452 -0.0904739 0)
(2.05458 -0.0823145 0)
(2.04293 -0.0676205 0)
(2.03422 -0.0601294 0)
(2.02418 -0.0504507 0)
(2.0143 -0.0390037 0)
(2.00566 -0.0326727 0)
(1.99485 -0.0274311 0)
(1.97819 -0.0167501 0)
(1.9569 -0.006259 0)
(1.93333 -0.00455167 0)
(1.91792 -0.00452843 0)
(1.91301 -0.00125178 0)
(1.91271 0.00251816 0)
(1.91226 0.00564038 0)
(1.91209 0.00729034 0)
(1.91324 0.0070909 0)
(1.91652 0.00604588 0)
(1.9179 0.00567251 0)
(1.91867 0.00525964 0)
(1.91895 0.00503138 0)
(1.91846 0.00442832 0)
(1.91768 0.00423547 0)
(1.91707 0.00488453 0)
(1.91719 0.00545116 0)
(1.91823 0.00606534 0)
(1.91904 0.00635196 0)
(1.9207 0.00649384 0)
(1.92325 0.00613215 0)
(1.92664 0.00594334 0)
(1.93029 0.00629559 0)
(1.9335 0.00568775 0)
(1.91512 0.00871021 0)
(1.91249 0.021074 0)
(1.91046 0.034311 0)
(1.90639 0.0504828 0)
(1.9016 0.0696535 0)
(1.89538 0.0912558 0)
(1.89362 0.105601 0)
(1.89338 0.117839 0)
(1.89317 0.129967 0)
(1.89293 0.143788 0)
(1.89631 0.148546 0)
(1.90289 0.15266 0)
(1.90585 0.157129 0)
(1.91064 0.161479 0)
(1.91779 0.16311 0)
(1.92451 0.163615 0)
(1.93162 0.164552 0)
(1.93852 0.166866 0)
(1.94521 0.167915 0)
(1.95294 0.166275 0)
(1.96097 0.163033 0)
(1.96907 0.159457 0)
(1.97781 0.155159 0)
(1.98686 0.149799 0)
(1.99567 0.143398 0)
(2.00517 0.135333 0)
(2.01433 0.12722 0)
(2.02284 0.120621 0)
(2.03306 0.111069 0)
(2.04103 0.10427 0)
(2.04847 0.0984414 0)
(2.05782 0.0890948 0)
(2.06537 0.0822882 0)
(2.0727 0.0760435 0)
(2.07951 0.0704533 0)
(2.08671 0.0633823 0)
(2.09416 0.0539445 0)
(2.09901 0.0484509 0)
(2.10352 0.0428573 0)
(2.10549 0.034446 0)
(2.10524 0.0267804 0)
(2.09799 0.0177873 0)
(2.09151 0.00441519 0)
(2.08784 -0.00375146 0)
(2.07437 -0.0140614 0)
(2.06956 -0.0225964 0)
(2.07123 -0.0348341 0)
(2.0695 -0.0476995 0)
(2.06988 -0.0517388 0)
(2.07327 -0.0510375 0)
(2.08058 -0.0595368 0)
(2.08665 -0.0716169 0)
(2.09214 -0.0742774 0)
(2.09683 -0.0765841 0)
(2.10583 -0.0876524 0)
(2.11089 -0.100472 0)
(2.1143 -0.103842 0)
(2.11736 -0.107213 0)
(2.12385 -0.116773 0)
(2.12686 -0.126838 0)
(2.12895 -0.130548 0)
(2.13087 -0.132845 0)
(2.13452 -0.140534 0)
(2.13803 -0.150902 0)
(2.13863 -0.157342 0)
(2.14025 -0.158921 0)
(2.14183 -0.162032 0)
(2.14469 -0.167764 0)
(2.14547 -0.173459 0)
(2.14659 -0.175204 0)
(2.14841 -0.175464 0)
(2.14988 -0.17821 0)
(2.14959 -0.182037 0)
(2.15015 -0.183928 0)
(2.14962 -0.183421 0)
(2.14867 -0.181679 0)
(2.14737 -0.179808 0)
(2.14469 -0.176318 0)
(2.14137 -0.172335 0)
(2.13788 -0.169573 0)
(2.13325 -0.165273 0)
(2.12833 -0.160072 0)
(2.1238 -0.156064 0)
(2.11786 -0.149564 0)
(2.11066 -0.138458 0)
(2.10476 -0.132021 0)
(2.09836 -0.126693 0)
(2.08817 -0.111049 0)
(2.08143 -0.0994411 0)
(2.07381 -0.0936257 0)
(2.06156 -0.0787336 0)
(2.05164 -0.0661976 0)
(2.04108 -0.0554907 0)
(2.02973 -0.0422608 0)
(2.01993 -0.0341369 0)
(2.00812 -0.027453 0)
(1.99093 -0.0163809 0)
(1.96898 -0.00495611 0)
(1.94338 -0.00128986 0)
(1.92343 -0.00109454 0)
(1.91538 0.00289648 0)
(1.91448 0.00684798 0)
(1.91437 0.00886374 0)
(1.91431 0.00995263 0)
(1.91526 0.01035 0)
(1.9169 0.0104481 0)
(1.9188 0.0107291 0)
(1.91924 0.0107683 0)
(1.91945 0.01044 0)
(1.91909 0.0101733 0)
(1.91815 0.0105974 0)
(1.91756 0.0104701 0)
(1.91776 0.0099102 0)
(1.919 0.00966188 0)
(1.91981 0.00963831 0)
(1.9216 0.00935066 0)
(1.9241 0.0083308 0)
(1.92712 0.00771514 0)
(1.93048 0.0082441 0)
(1.93321 0.00811942 0)
(1.92458 0.00115671 0)
(1.92685 0.00644958 0)
(1.92889 0.0115651 0)
(1.92943 0.0188836 0)
(1.92875 0.0289683 0)
(1.92532 0.0438325 0)
(1.92301 0.0589386 0)
(1.9159 0.081693 0)
(1.91519 0.0940661 0)
(1.91397 0.107481 0)
(1.91043 0.125051 0)
(1.91353 0.133316 0)
(1.91362 0.145394 0)
(1.91753 0.150317 0)
(1.92467 0.15326 0)
(1.92796 0.156012 0)
(1.93249 0.159399 0)
(1.93871 0.162601 0)
(1.94566 0.163586 0)
(1.95259 0.163129 0)
(1.95892 0.163059 0)
(1.96528 0.162646 0)
(1.97219 0.161807 0)
(1.97932 0.160881 0)
(1.98655 0.158806 0)
(1.99423 0.154796 0)
(2.00202 0.149787 0)
(2.01005 0.144432 0)
(2.01863 0.137941 0)
(2.02699 0.130894 0)
(2.03596 0.122479 0)
(2.04422 0.114904 0)
(2.05082 0.109813 0)
(2.05994 0.100102 0)
(2.06793 0.0905407 0)
(2.07308 0.0870826 0)
(2.07943 0.0795458 0)
(2.08621 0.0694602 0)
(2.08971 0.0636017 0)
(2.08929 0.0556992 0)
(2.08961 0.0480356 0)
(2.08188 0.0363011 0)
(2.07601 0.0240414 0)
(2.06793 0.015097 0)
(2.05501 0.00828519 0)
(2.05432 -0.00108248 0)
(2.05373 -0.012115 0)
(2.05415 -0.0234804 0)
(2.05648 -0.0277754 0)
(2.06143 -0.0296674 0)
(2.07062 -0.0402928 0)
(2.07642 -0.0519811 0)
(2.0813 -0.0534653 0)
(2.08585 -0.0556147 0)
(2.0953 -0.0677135 0)
(2.09947 -0.0792504 0)
(2.10244 -0.0806161 0)
(2.10648 -0.0852064 0)
(2.1136 -0.0967673 0)
(2.11589 -0.104275 0)
(2.1179 -0.107079 0)
(2.12148 -0.111726 0)
(2.12485 -0.117079 0)
(2.12689 -0.1239 0)
(2.12789 -0.129762 0)
(2.12958 -0.131984 0)
(2.13132 -0.133357 0)
(2.13272 -0.137784 0)
(2.13447 -0.144294 0)
(2.13531 -0.148726 0)
(2.13688 -0.149767 0)
(2.13822 -0.152472 0)
(2.14042 -0.158561 0)
(2.1408 -0.161627 0)
(2.14155 -0.162479 0)
(2.14252 -0.163514 0)
(2.14261 -0.163747 0)
(2.1425 -0.163503 0)
(2.1418 -0.162244 0)
(2.14023 -0.160916 0)
(2.13748 -0.158251 0)
(2.13437 -0.155328 0)
(2.13057 -0.152248 0)
(2.12617 -0.148471 0)
(2.12109 -0.140885 0)
(2.11734 -0.134737 0)
(2.11338 -0.130047 0)
(2.10614 -0.119511 0)
(2.09962 -0.107753 0)
(2.09313 -0.101719 0)
(2.08335 -0.0916863 0)
(2.07276 -0.0769491 0)
(2.06262 -0.0664569 0)
(2.04945 -0.0507626 0)
(2.0375 -0.0383186 0)
(2.02457 -0.0308732 0)
(2.00617 -0.0172474 0)
(1.98318 -0.0043277 0)
(1.9559 0.000158601 0)
(1.93281 0.00402934 0)
(1.91963 0.010715 0)
(1.91582 0.0154065 0)
(1.91569 0.0161009 0)
(1.91621 0.0156172 0)
(1.91682 0.0150939 0)
(1.91804 0.0146109 0)
(1.91932 0.0143173 0)
(1.92057 0.0142329 0)
(1.92063 0.0142887 0)
(1.92012 0.0146917 0)
(1.91882 0.0158438 0)
(1.91773 0.0166304 0)
(1.91719 0.0161049 0)
(1.91831 0.0146372 0)
(1.9193 0.0138869 0)
(1.92132 0.013012 0)
(1.92368 0.0113698 0)
(1.92618 0.0104845 0)
(1.92894 0.0110466 0)
(1.93132 0.0107146 0)
(1.92975 0.00227 0)
(1.93277 0.00452987 0)
(1.93552 0.00595913 0)
(1.93849 0.0078431 0)
(1.94177 0.0109479 0)
(1.94341 0.0164713 0)
(1.94392 0.0249865 0)
(1.94394 0.0347216 0)
(1.94198 0.0470238 0)
(1.9386 0.0621737 0)
(1.93602 0.0782796 0)
(1.9346 0.0942867 0)
(1.93169 0.112563 0)
(1.93217 0.124896 0)
(1.93414 0.132592 0)
(1.93411 0.143435 0)
(1.9391 0.145691 0)
(1.94458 0.149598 0)
(1.94848 0.154637 0)
(1.95306 0.157118 0)
(1.95926 0.157347 0)
(1.96533 0.1568 0)
(1.97159 0.156637 0)
(1.97791 0.157282 0)
(1.98394 0.158051 0)
(1.99028 0.156982 0)
(1.99637 0.155852 0)
(2.00253 0.154866 0)
(2.00916 0.152431 0)
(2.01603 0.149096 0)
(2.02329 0.145174 0)
(2.0309 0.14041 0)
(2.03852 0.134884 0)
(2.04647 0.127786 0)
(2.05352 0.120528 0)
(2.05926 0.114429 0)
(2.06634 0.105144 0)
(2.07123 0.0975695 0)
(2.07406 0.0912164 0)
(2.07518 0.0809195 0)
(2.07381 0.0712435 0)
(2.06482 0.0598307 0)
(2.05875 0.0526817 0)
(2.04547 0.0438954 0)
(2.03882 0.0324882 0)
(2.03879 0.0174365 0)
(2.03616 0.0129461 0)
(2.03778 0.00721032 0)
(2.04322 -0.00192698 0)
(2.0488 -0.00440623 0)
(2.05532 -0.00981382 0)
(2.06438 -0.0235332 0)
(2.07021 -0.0307705 0)
(2.07498 -0.0337329 0)
(2.08343 -0.0443976 0)
(2.08879 -0.056544 0)
(2.09222 -0.0587282 0)
(2.09635 -0.0632017 0)
(2.10284 -0.0750008 0)
(2.10468 -0.0800597 0)
(2.10672 -0.0837417 0)
(2.11291 -0.0933588 0)
(2.11619 -0.0982061 0)
(2.11889 -0.102316 0)
(2.12403 -0.111678 0)
(2.12628 -0.118133 0)
(2.1278 -0.120311 0)
(2.13002 -0.12524 0)
(2.13293 -0.1326 0)
(2.13395 -0.138325 0)
(2.13478 -0.140054 0)
(2.13608 -0.142949 0)
(2.13951 -0.14979 0)
(2.14098 -0.154771 0)
(2.1429 -0.15563 0)
(2.14468 -0.157179 0)
(2.14529 -0.160781 0)
(2.14621 -0.162914 0)
(2.1464 -0.162648 0)
(2.14614 -0.161279 0)
(2.14495 -0.158896 0)
(2.14311 -0.156008 0)
(2.13977 -0.151054 0)
(2.13609 -0.145935 0)
(2.13224 -0.140461 0)
(2.12738 -0.132623 0)
(2.12279 -0.127586 0)
(2.11709 -0.120476 0)
(2.11112 -0.110935 0)
(2.10594 -0.104827 0)
(2.09988 -0.0988397 0)
(2.09057 -0.0859635 0)
(2.08215 -0.0761403 0)
(2.07129 -0.0654077 0)
(2.05735 -0.048149 0)
(2.04557 -0.0392386 0)
(2.02656 -0.0217548 0)
(2.0028 -0.00278907 0)
(1.97395 0.00110273 0)
(1.94472 0.0109911 0)
(1.92356 0.0231172 0)
(1.91639 0.0259542 0)
(1.91512 0.0252706 0)
(1.91583 0.0243297 0)
(1.91702 0.0233187 0)
(1.91804 0.0219138 0)
(1.91905 0.0203311 0)
(1.92071 0.0192364 0)
(1.92088 0.0191431 0)
(1.92049 0.0195139 0)
(1.91917 0.0202698 0)
(1.91786 0.0205065 0)
(1.9174 0.0198477 0)
(1.91754 0.0183231 0)
(1.91833 0.0181448 0)
(1.91969 0.0175338 0)
(1.9212 0.0158202 0)
(1.92295 0.0152364 0)
(1.92509 0.0161564 0)
(1.92753 0.015647 0)
(1.93486 0.000439194 0)
(1.93739 0.00341965 0)
(1.9399 0.00613074 0)
(1.94265 0.00772988 0)
(1.94583 0.00856829 0)
(1.94978 0.0108905 0)
(1.95252 0.0128232 0)
(1.95632 0.0153686 0)
(1.95762 0.0191773 0)
(1.95917 0.0244932 0)
(1.95965 0.0329546 0)
(1.95801 0.0467025 0)
(1.95778 0.0595762 0)
(1.95458 0.076989 0)
(1.95375 0.0901699 0)
(1.95142 0.1045 0)
(1.95337 0.114324 0)
(1.9519 0.128024 0)
(1.95592 0.134689 0)
(1.95865 0.14182 0)
(1.96405 0.144277 0)
(1.96664 0.146864 0)
(1.97081 0.150741 0)
(1.97699 0.152302 0)
(1.98339 0.151922 0)
(1.98915 0.150613 0)
(1.99509 0.150492 0)
(2.00114 0.151138 0)
(2.00684 0.151146 0)
(2.01234 0.150454 0)
(2.01823 0.149336 0)
(2.02423 0.148147 0)
(2.0302 0.14657 0)
(2.03635 0.14393 0)
(2.04187 0.141255 0)
(2.04738 0.137569 0)
(2.05312 0.131781 0)
(2.05706 0.125433 0)
(2.06081 0.118397 0)
(2.06068 0.111412 0)
(2.05456 0.102999 0)
(2.04878 0.0924723 0)
(2.03912 0.0833794 0)
(2.0265 0.0704191 0)
(2.02207 0.0621651 0)
(2.01914 0.053669 0)
(2.01969 0.0450637 0)
(2.02369 0.0360329 0)
(2.02943 0.0283224 0)
(2.03573 0.023165 0)
(2.04518 0.0130366 0)
(2.05281 0.00166524 0)
(2.05754 -0.00107374 0)
(2.06258 -0.00491744 0)
(2.07233 -0.0181234 0)
(2.07684 -0.0286686 0)
(2.07955 -0.0299486 0)
(2.08409 -0.035671 0)
(2.09118 -0.0484818 0)
(2.09389 -0.0555709 0)
(2.09608 -0.0563713 0)
(2.10194 -0.0638453 0)
(2.10718 -0.0734274 0)
(2.11086 -0.0773202 0)
(2.11413 -0.0816858 0)
(2.11547 -0.0848448 0)
(2.11681 -0.0871382 0)
(2.12007 -0.0926952 0)
(2.12182 -0.0979529 0)
(2.12257 -0.0998114 0)
(2.1239 -0.101582 0)
(2.12655 -0.10621 0)
(2.12905 -0.112043 0)
(2.13065 -0.11655 0)