/*--------------------------------*- C++ -*----------------------------------*\
  =========                 |
  \\      /  F ield         | OpenFOAM: The Open Source CFD Toolbox
   \\    /   O peration     | Website:  https://openfoam.org
    \\  /    A nd           | Version:  7
     \\/     M anipulation  |
\*---------------------------------------------------------------------------*/
FoamFile
{
    version     2.0;
    format      ascii;
    class       volScalarField;
    location    "0.268";
    object      T;
}
// * * * * * * * * * * * * * * * * * * * * * * * * * * * * * * * * * * * * * //

dimensions      [0 2 -2 0 0 0 0];

internalField   nonuniform List<scalar> 
12359
(
6.91929e-86
-4.00897e-69
-1.49514e-238
-4.82023e-45
5.57853e-80
-3.50085e-31
2.29548e-25
-1.99179e-28
1.00526e-20
1.11234e-33
-1.11794e-22
-1.29385e-14
0.029202
1.36982e-42
5.23946e-48
-3.96732e-07
-3.55469e-05
-7.00867e-130
2.81999e-133
4.65213e-57
5.81282e-40
5.85053e-17
5.7729e-63
-2.57986e-54
6.71063e-69
-7.23277e-60
6.99203e-173
4.18258e-178
2.16508e-140
-6.33848e-164
2.29442e-156
-1.40925e-192
5.75271e-212
3.0535e-166
-6.84427e-227
-4.82225e-153
5.34179e-105
1.27678e-89
6.08619e-82
5.25188e-96
3.78013e-72
-1.6583e-93
-1.6303e-113
6.92293e-117
-9.9885e-147
4.05391e-144
8.11095e-150
-8.17989e-160
-9.46821e-137
-2.03136e-169
-2.11326e-179
-9.22647e-186
3.4135e-196
1.37046e-126
-3.51329e-202
-1.40727e-208
3.57539e-122
-1.70863e-215
2.68842e-219
-3.05778e-223
2.40848e-205
-2.55541e-232
1.7576e-182
3.1434
-1.80507e-123
-1.24581e-36
-6.14017e-108
4.2763e-189
3.52341e-102
1.11869e-09
77.6118
-1.51461e-75
-1.33646e-242
-9.77482e-99
-1.72488e-51
2.36477e-229
2.31957e-199
2.75087e-235
9.85682e-111
4.86135e-13
5.58457e-35
-1.54595e-156
0
-4.51614e-97
0.000202778
1.62485e-108
-2.80927e-154
-4.44223e-217
0.0530267
5.20769e-05
2.40078e-271
1.64287
7.03284e-274
7.99412e-127
1.33696e-103
5.59328e-86
-4.62444e-133
-4.31077e-127
1.58924e-65
8.44196e-81
8.99273e-29
-4.98297e-262
4.88666e-110
10.8085
2.66292e-166
6.00617e-44
2.60536e-281
0.000233357
1.30468e-117
1.60467e-45
-3.50267e-135
-2.01675e-155
-1.37806e-39
1.85264e-33
-8.09405e-103
7.08223e-194
-2.8598e-32
4.13743e-156
0.263381
0
1.2412e-136
-1.73691e-29
2.30986e-214
1.03948e-63
1.66582e-154
-2.21922e-182
8.2502e-22
-4.88412e-97
-6.32155e-237
7.59107e-156
-4.88455e-193
1.464e-14
9.34747e-12
2.61764e-12
-1.4668e-284
2.31335e-63
-5.63884e-193
-1.54663e-65
2.6989e-257
4.56651e-23
3.22766e-313
-3.17241e-85
1.2573e-59
-2.37132e-282
7.30487e-27
-4.65861e-35
0
5.27177e-05
3.36437e-166
1.83238e-32
5.32562e-85
-4.03673e-259
2.31828e-58
-6.76992e-213
7.17718e-281
97.2628
5.38557e-30
6.38888e-15
4.68771e-133
-1.5051e-202
-1.46193e-45
-5.86867e-201
2.96929e-64
4.66477e-60
2.3509e-312
-1.4496e-184
-1.74502e-47
9.86913e-29
5.65232e-62
0.0621568
3.57232e-233
6.59343e-231
1.97288e-64
2.93371e-68
2.43244e-168
1.6555e-23
-1.02676e-146
-1.40348e-148
5.10267e-39
8.28146e-25
3.5965e-44
1.35458e-278
-5.50841e-237
-1.28345e-155
4.66137e-67
-1.69639e-19
1.73389e-130
6.53459e-107
1.41935e-82
-1.10364e-129
1.45461e-105
7.85216e-88
2.78066e-88
-7.85305e-211
1.80258e-45
13.6989
7.68798e-89
6.4522e-131
-2.54663e-57
1.16173e-154
-2.11265e-33
1.3523e-83
-3.61152e-79
3.86415e-46
3.32334e-31
1.17395e-279
1.60618e-29
-1.29194e-77
2.34433e-57
1.17295e-140
5.53704e-304
3.2029e-31
1.93189e-30
142.301
-7.67162e-19
-1.03265e-254
3.6492e-130
-1.12356e-104
2.72511e-129
-4.51541e-83
5.89696e-34
4.66808e-142
2.65299e-65
1.73316
-6.32014e-156
6.7867e-304
-1.55123e-81
7.33956e-120
2.47149e-25
-7.23232e-126
-1.29159e-125
-6.93127e-316
8.52074e-27
4.26781e-74
-7.4278e-108
9.94821e-76
0
3.48859e-55
2.35418e-106
6.98665e-06
-2.47178e-301
-9.64461e-105
-6.86744e-116
1.41892e-12
-1.87911e-43
6.95528e-05
-6.45548e-221
9.59648e-59
-3.58915e-175
2.39404e-88
1.96755e-40
-1.85859e-92
9.33941e-153
-7.21632e-125
0.617236
114.882
0
9.01189e-148
0.619761
130.851
1.11398e-79
4.47467e-45
5.16412e-28
1.34125e-46
-2.45942e-69
49.32
0.194613
1.84464e-41
6.5372e-150
1.03646e-62
3.6251e-63
3.89596e-65
1.47815e-60
2.47116e-127
6.89143e-144
9.49841e-304
3.09661e-146
2.84383
2.42358e-41
-4.53542e-263
1.75182e-260
7.11756e-47
-1.37628e-151
2.56135e-109
-1.2363e-106
-2.42192e-318
4.09799e-28
-3.24719e-260
8.81964e-262
1.01474e-194
9.59152e-66
-5.46928e-159
44.4724
2.26063e-283
1.11891e-279
1.72412e-107
6.15486e-177
5.96397e-35
-1.13806e-107
-2.25101e-185
-1.2623e-270
2.20537
1.14591e-26
1.24621e-271
1.77204e-129
-1.62077e-109
-1.37367e-173
-5.21093e-193
8.19227e-194
-2.0104e-171
-1.41013e-137
-1.40186e-19
-3.19461e-174
-1.12476e-157
-8.95166e-91
8.67548e-50
0.0411876
3.24302e-172
2.16958e-68
4.67486e-08
7.46809e-262
1.68924e-68
1.83387e-259
5.42754e-86
-3.84289e-280
-4.34007e-171
3.06707e-21
9.29714e-64
-1.1406e-20
6.75396e-111
-4.18333e-117
3.38961e-89
1.50127e-85
4.24438e-116
5.09264e-90
2.33317e-89
-6.32253e-239
8.12918e-210
1.44008e-210
-8.53291e-208
3.43937e-208
5.57921e-05
-3.18679e-316
1.99509e-32
2.08213e-68
1.30923e-69
2.08038e-57
1.33088e-62
-4.99262e-109
4.87252e-90
1.63828e-63
3.56721e-90
6.38691e-69
8.67421e-46
1.77833e-44
3.81083e-39
-9.01629e-84
9.18985e-20
-1.42812e-86
-3.40637e-86
1.04618e-57
2.05883e-25
2.68902e-156
4.45702e-201
1.05145e-86
5.23867e-203
-5.82513e-155
140.872
12.134
-4.36724e-155
3.54492e-252
-5.74861e-286
-2.43289e-287
7.57898e-65
1.76574e-278
3.26148e-280
0.115782
2.30872e-60
4.10912e-05
2.25271e-155
5.78683e-52
-1.60135e-153
-3.35958e-114
-7.02873e-42
6.0657e-88
-1.64191e-45
8.11891e-90
-2.99614e-158
2.8511e-261
1.86518e-61
1.47837e-52
2.49304e-160
1.71915e-14
-2.3074e-42
2.25575e-86
-4.78737e-58
-1.63122e-48
-2.88929e-253
5.93469
1.45494e-18
1.00362e-153
2.76124e-13
-8.83119e-88
7.27079e-311
-9.6294e-312
-1.24695e-292
9.13546e-05
1.22948e-26
8.56228e-67
1.69309e-70
3.73884e-86
-1.09956e-100
2.83361e-45
-1.70613e-59
8.83165e-24
0.0573516
4.23751e-13
-1.39587e-68
2.30917e-40
1.28147e-115
8.88451e-41
1.44514e-93
8.23004e-85
5.15283e-167
1.99728e-95
7.14617e-63
3.27072e-277
119.754
1.73766e-108
0.000669862
1.88764e-55
1.57324e-120
1.14347e-37
0.508923
1.35504e-60
3.19338e-84
2.39384e-87
1.07501e-53
2.28697e-40
3.25658e-151
-4.99519e-301
4.4396e-32
-2.08379e-278
2.81984e-15
-5.725e-191
-6.15232e-62
1.25314e-44
-4.77214e-138
0.000751517
1.8189e-31
-6.9986e-82
4.4563e-147
6.38202e-07
4.85282e-246
3.58583e-160
1.18747e-22
2.2794e-250
-4.55153e-147
1.20273e-161
2.74677e-09
13.0776
-3.8133e-99
-2.38486e-222
-9.69256e-42
-3.27159e-50
2.94678e-69
1.92047e-55
2.99446e-62
-3.67779e-237
-2.60182e-289
-4.19256e-56
7.38336e-268
5.79671e-46
9.54976e-70
8.41012e-42
5.64604e-151
8.9772e-34
1.96459e-21
8.41782e-167
-5.67832e-101
-6.68212e-158
-8.22246e-37
9.20564e-23
-2.14379e-256
-6.587e-54
1.50905e-65
3.79871e-118
-7.57284e-52
-5.93561e-190
3.75277e-27
-8.69879e-99
6.65142e-60
6.76552e-43
-5.51052e-235
8.99142e-102
4.2926e-14
1.19765e-10
7.67782e-270
-8.93219e-81
7.1163e-13
1.65085e-78
0.322988
-4.52534e-294
-7.11493e-193
-7.39494e-244
9.41787e-57
8.04704e-81
-3.59131e-90
-5.19847e-188
4.38134e-57
5.15561e-82
8.75801e-73
-6.74559e-145
6.73345e-06
-2.80242e-272
2.37794e-05
7.19788e-218
132.81
-2.1329e-97
3.62712e-15
-3.38514e-219
-8.04697e-152
3.89991e-48
-1.49809e-157
-5.2312e-186
-1.39549e-113
1.19614e-77
-4.24174e-80
2.17831e-15
1.07888e-35
2.19467e-36
0
-4.50252e-158
1.01947e-66
2.78504e-10
0
-8.94952e-268
2.90472e-64
-5.64379e-241
-1.35186e-21
0.590228
35.99
0
-5.97982e-108
4.77862e-39
-4.70203e-87
-1.72797e-169
76.7781
-1.53338e-271
4.02309e-30
3.5291e-43
1.40565e-108
-7.7954e-173
2.04784e-182
6.47252e-139
1.43756e-69
2.53572e-91
-3.56278e-96
0
2.34555e-235
7.3374e-83
-3.01683e-147
1.42049e-37
2.58499e-57
8.59075e-193
-2.51903e-265
9.54569e-45
118.831
-4.05308e-160
1.50008e-24
-3.53824e-288
-4.68346e-95
1.00228e-30
5.70235e-81
9.79797e-42
1.64187e-36
-3.7037e-80
1.26179e-62
9.14417e-307
-4.052e-226
1.72899e-84
-1.03694e-99
-2.78391e-81
3.46888e-101
1.08645e-283
7.30206e-264
3.91005e-183
-3.35166e-64
9.49278e-56
-2.49121e-42
5.56789e-108
-8.02999e-40
-1.99342e-58
3.56762e-82
-1.95475e-38
1.33269e-67
0.0009544
9.07736e-59
-2.6025e-66
6.19414e-40
2.52944e-230
5.66525e-32
1.75015e-47
0
1.57634e-249
-2.16154e-239
-2.05364e-226
5.37222e-10
2.22836e-82
1.43985e-126
-1.8894e-41
-8.08241e-113
7.54374e-20
1.01974e-79
1.65141e-68
1.80394e-181
5.92237e-18
1.28823e-284
-9.08579e-64
-2.71675e-148
4.43247e-24
3.79373e-38
-3.83367e-86
6.54064e-84
5.38099
1.79365e-61
4.96521e-19
2.14984e-93
1.2991e-14
0.241212
1.72473e-227
-3.46654e-156
-7.12613e-287
5.979e-12
-2.54685e-154
4.51745e-91
0.00076732
-3.1865e-269
4.51714e-70
4.80918e-44
3.51874e-88
-7.2029e-156
2.36548e-87
-3.11834e-209
-7.67345e-84
-3.40754e-207
-1.85929e-211
-6.45687e-89
1.0168e-63
2.18005e-64
3.59759e-86
-2.86655e-11
2.26283e-82
11.727
8.17197e-59
-3.90668e-107
-3.54904e-86
7.72981e-61
4.29694e-68
2.95494e-87
0.214381
-2.76325e-45
1.0875e-70
7.60264e-73
-1.08934e-135
-6.27567e-149
1.51521e-45
-2.03659e-299
0.707778
9.67987e-197
-5.11215e-44
8.50787e-30
7.11439e-11
1.56631e-32
2.36814e-50
2.58081e-46
1.08729e-94
2.82024e-32
2.83836e-53
3.78498e-19
5.67532e-73
2.69058e-21
2.86444e-73
3.67782e-320
3.36022e-68
151.485
9.67405e-17
-1.48795e-125
3.46389e-310
4.10909e-191
7.04518e-109
-2.52686e-63
1.02001e-65
-1.09871e-93
-1.32568e-238
4.66558e-122
-5.15664e-67
8.46463e-128
1.55933e-144
3.52848e-21
3.75399e-122
1.02414e-56
1.23116e-46
-3.80721e-123
2.27077e-117
1.82629e-35
0
-3.03369e-115
37.4587
1.92945e-224
2.95675e-25
1.0182e-30
6.76193e-119
7.56682e-42
3.51889e-46
-6.53438e-69
2.54746e-39
1.05865e-156
4.67224e-43
8.82259e-170
3.3988e-90
1.03073e-48
-5.10469e-40
1.35585e-156
2.17411e-61
8.53827e-15
-1.42891e-58
2.03968e-92
8.03229e-153
5.3087e-31
2.8878e-08
-2.11478e-139
-3.6523e-256
-1.78502e-70
5.36983e-275
0.277988
2.55241e-73
1.35872e-16
5.40196e-96
-2.13948e-95
5.65023
1.53968e-88
0.000231856
1.79987e-67
31.5132
2.18037e-66
-5.57913e-95
2.2223e-90
4.46188e-120
0.0002245
6.72269e-06
4.49142e-224
4.18331e-220
-4.83629e-37
3.87869e-208
0.000612573
4.75936e-42
9.13881e-13
-1.50777e-154
115.883
0.0305159
1.43841e-72
4.17787e-319
4.38067e-162
-3.43623e-48
1.46803e-107
4.69134e-105
-1.05085e-103
6.62888e-63
8.19707e-55
7.24908
-2.19143e-10
-2.45887e-241
1.96709e-47
3.60572e-38
2.90965e-35
4.92e-95
4.94061e-29
8.65614e-58
-8.086e-47
-3.07963e-155
-4.32522e-315
5.47851e-35
2.76281e-31
-1.8381e-95
-1.08301e-38
8.89408e-18
-5.40448e-109
-1.18633e-70
-1.01932e-145
1.33218e-106
1.05667e-18
-2.09726e-105
2.41043e-42
6.14862e-53
1.25711e-74
1.4867e-136
-1.18683e-96
1.03551e-15
1.1942e-98
2.26214e-96
7.46897
4.24671e-63
-3.43721e-110
0.00191952
0
1.13043e-96
-3.43282e-77
-6.11692e-110
-7.29789e-185
4.15013e-72
0
1.00528e-12
1.20846e-161
-6.05662e-71
1.69809e-32
4.13834e-41
4.24716e-90
4.55044e-94
1.399e-36
63.5773
7.9464e-229
8.97652e-119
1.24242e-109
0.00156148
5.96478e-31
1.38201e-158
1.01835
-6.71356e-316
1.56653e-163
136.554
-2.12353e-121
9.27572e-155
2.93418e-151
2.41514e-54
-3.37949e-51
-1.40434e-222
-1.72463e-114
1.37319e-31
7.54774e-78
-5.104e-84
-6.30258e-105
1.66567e-225
-1.15664e-49
8.65241e-10
-3.04961e-84
-4.51339e-40
9.37572e-69
3.0226e-89
6.54593e-14
8.69854e-41
-5.33142e-103
2.5729e-161
2.11368e-05
6.98413e-64
2.66063e-59
1.36087e-144
-3.66605e-224
1.73646e-44
8.99337e-18
6.23278e-102
7.49467e-41
5.09102e-100
-6.55618e-102
1.23621e-134
5.99258e-50
128.062
12.7321
6.65767e-49
-9.90574e-83
-1.55277e-136
8.28376e-52
0.00236798
-6.19175e-43
3.5656e-160
2.43354e-20
3.91851e-11
6.41803
-1.98453e-124
51.5498
-1.99139e-226
-3.37249e-100
-3.98448e-223
1.26971e-14
7.64023e-58
51.2086
8.12318e-170
0.00480599
7.24364e-206
-1.01092e-83
8.34951e-51
7.06256e-109
3.26961e-20
0.000654932
-2.93244e-118
-2.92872e-136
-2.73094e-101
-2.57465e-126
-3.54626e-120
1.33289e-17
6.58145e-61
3.16242e-93
6.26725e-20
-5.40803e-121
-1.2828e-218
-1.58852e-87
7.2899e-189
3.51189e-34
-1.94731e-102
4.47603e-13
7.96777e-15
-3.34344e-54
7.64589e-49
2.14869e-56
1.74415e-90
0.00253474
7.48188e-105
-2.50931e-126
2.76156e-283
6.7445e-19
-1.37237e-44
1.72124e-171
2.01165e-36
5.95847e-108
8.16161e-50
-1.44218e-47
-1.23971e-41
4.07428e-58
75.8879
8.74682e-56
-1.12228e-52
0.00045031
8.51791e-110
2.54347e-09
1.36289e-40
1.25506e-211
6.35273e-103
-3.00123e-144
3.74765e-93
1.79591e-308
-2.44175e-153
8.99149e-11
4.42105e-17
-1.99689e-156
140.122
6.87712e-37
-5.32204e-199
3.16079e-15
2.17777e-21
-2.70075e-204
1.59084e-13
4.93741e-34
4.11238e-15
-3.01896e-207
-5.13692e-150
4.9719e-130
-3.20224e-205
5.76667e-44
12.3869
-2.56105e-165
2.75567e-15
0
1.30183
3.33995e-39
4.45915e-59
1.22662e-272
2.18476e-167
-2.36737e-98
5.75211e-60
2.05896e-19
3.17259e-49
-1.89887e-121
3.40455e-114
-1.70347e-209
8.01766e-42
2.07767e-48
-4.65392e-143
3.9113e-250
1.00904e-80
1.41167e-50
2.80779e-56
9.06879e-182
5.04721e-10
-4.91885e-36
6.62528e-207
5.71902e-66
2.67718e-115
2.9205e-98
161.426
-6.73311e-123
-3.61855e-199
4.9611e-66
-6.47881e-46
-2.58196e-57
1.34137
4.7362e-72
1.99515e-107
1.57353e-47
-7.15337e-111
2.52011e-112
1.86759e-105
-2.79979e-109
-1.47776e-34
-2.64918e-97
11.4312
-1.06602e-55
4.24629e-12
-6.28815e-111
1.01448e-08
1.11717e-39
3.7793e-20
3.13358e-17
9.28321e-61
-1.12377e-111
4.01917e-115
6.48134e-83
0
-6.35532e-101
1.99351e-45
9.95404e-28
1.10209e-112
1.43255e-208
1.06198e-65
7.0316e-56
9.4967e-30
2.53605e-50
4.51574e-20
4.14822e-30
1.64774e-143
4.80819e-64
0.0115605
6.24142e-47
-1.45204e-313
5.7043e-127
1.4518e-111
-1.72699e-317
1.35902e-65
-8.28579e-229
-4.64776e-99
1.49523e-19
1.5667e-42
6.14428e-10
1.77328e-225
4.54841e-170
2.31142e-273
-1.01976e-112
-1.87831e-133
1.04589e-19
-1.25911e-132
1.65536e-169
5.34535e-09
4.82746e-54
2.79073e-84
3.01575e-67
1.05134e-22
8.58799e-127
3.35692e-15
4.49196e-116
-1.04228e-220
5.70139e-05
7.88068e-72
1.05996e-25
-2.75504e-127
41.2532
-1.35567e-50
-5.28412e-61
9.58198e-65
2.25026e-42
5.78573
-4.54125e-112
2.63947e-21
-2.89486e-55
-3.78397e-63
1.57425e-164
2.0096e-101
2.09422e-09
-3.67129e-100
1.18859e-13
-1.22593e-119
-1.62432e-124
4.01448e-16
-9.66754e-195
-7.45056e-146
-9.42241e-110
1.72902e-70
4.40661e-14
-1.4737e-120
7.92911e-113
-4.87624e-292
-6.13143e-54
4.67452e-05
6.96737e-62
-1.69302e-113
3.22419e-82
2.94796e-128
-1.85184e-164
8.40721
-1.9454e-60
-3.78448e-258
1.95396e-62
5.33502e-130
-6.17691e-49
-4.20234e-33
3.57299e-83
2.68445e-109
9.11108e-22
2.34973e-16
-2.97381e-278
2.35101e-85
4.10595e-17
4.51277e-172
-3.57927e-236
1.24101e-77
3.47553e-74
-2.03331e-102
-9.24465e-235
5.55592e-72
1.06214e-15
-6.81446e-201
2.34297e-32
-1.52054e-225
5.96639e-144
1.37467e-70
3.20346e-06
-2.57493e-290
1.12197
-8.1241e-59
6.86478e-31
11.6425
-1.08769e-53
2.27931e-83
0.00953021
-7.01069e-112
8.27925e-07
-3.09166e-24
5.57484e-84
1.79879e-102
2.52561e-104
-1.58406e-125
-1.04047e-131
7.59788e-40
0.00634356
138.738
5.3671e-45
-5.06668e-34
7.53991e-08
7.64916e-48
0.55119
6.05903e-186
-2.10702e-122
8.13108e-25
5.93325e-64
-2.25022e-152
1.97716e-45
5.5864e-114
5.05563
1.37901e-313
-1.02592e-153
-1.0759e-179
152.866
1.45673e-42
4.059e-56
1.06313e-100
3.75749e-24
-5.08924e-107
-5.72785e-171
2.66378e-09
7.12011e-112
3.13663e-09
1.91792e-39
-9.46949e-105
1.17669e-21
3.48943e-70
2.56568e-119
5.17312e-167
-1.47453e-162
0.085876
2.44641e-17
-3.84139e-147
2.10337e-23
1.62577e-85
1.50885e-36
-1.35129e-286
9.36119e-73
1.42917e-09
1.71384e-23
-4.96019e-52
-2.83188e-85
4.82056e-168
1.13024e-28
-3.477e-107
1.608e-171
1.42517e-13
2.04772e-26
-4.88897e-138
-1.93604e-37
1.41185e-79
-7.04063e-277
4.62075e-153
2.5879e-249
9.50002e-50
44.8667
1.49952e-14
1.26693e-30
-3.30749e-144
-7.05887e-105
1.51759e-70
1.00404e-263
4.23584e-11
1.795e-71
36.3655
-4.85592e-32
7.29832e-105
-2.18065e-139
3.45763e-183
2.31455e-113
-4.50477e-110
-1.59939e-149
8.51519
5.80014e-25
-3.41876e-49
4.13468e-22
3.69007e-53
5.5508e-171
0
1.53484e-149
3.15861e-35
0.109571
-3.67802e-27
8.48348e-65
-5.88622e-62
-1.05653e-84
6.01052e-26
0.00754219
0.0058874
2.14232e-107
-1.62343e-87
-4.18615e-44
-1.8297e-131
-5.5539e-242
-1.18376e-150
1.98461e-22
-1.69374e-134
5.94744e-86
-9.23991e-119
1.97728e-51
5.82077e-12
4.44859e-126
-9.87878e-150
9.34708e-16
4.34952e-28
5.26568e-108
1.08748e-162
-1.23714e-63
1.99547e-11
2.29787e-35
-5.03499e-33
-7.05598e-67
-1.36505e-93
6.71475e-05
-1.79582e-103
-3.05927e-27
1.28245e-164
1.18953e-15
6.20537e-17
-4.42283e-218
4.45825e-179
78.2278
5.18087e-153
-2.41103e-93
3.25761e-39
-5.29223e-133
-1.62977e-131
1.4742e-116
7.32984e-155
3.1033e-273
2.19207e-38
1.50682e-07
-4.07421e-183
0.00361121
1.24106e-117
-1.95024e-155
7.79728e-16
2.80525e-11
4.19152e-36
2.10078e-110
4.75564e-148
-7.27743e-57
133.289
-1.098e-133
-2.48342e-184
-1.85597e-191
-7.24364e-134
-3.35308e-75
-3.80742e-45
-1.86542e-137
-3.14828e-89
1.12817e-149
3.90858
1.11293e-11
4.03871e-71
2.87332e-48
1.075e-115
-6.08279e-155
4.77707e-29
0.549527
-6.36489e-92
1.99641e-189
-6.00275e-157
1.07399e-17
-3.44922e-133
5.53663e-166
6.18107e-18
1.0378e-111
-5.48024e-154
102.671
1.75511e-15
0.193227
3.51971e-29
-4.2271e-134
1.15539e-26
4.92356e-13
0.0457822
2.88667e-122
5.42734e-49
1.00189e-267
0.0379988
-1.97513e-318
-8.11626e-125
7.34017e-119
-2.8924e-189
3.83452e-60
2.47821e-106
-4.66611e-132
5.55349e-124
1.05397
5.18204e-18
3.30974e-64
-6.40696e-149
4.1336e-41
1.00821
9.19833e-14
1.65821e-54
-3.38429e-65
-2.99858e-125
5.1726e-108
-1.12789e-186
5.90742e-140
-3.85319e-181
-1.34152e-151
-3.61615e-55
5.7549e-19
2.19409e-26
0.113326
8.48368e-06
2.03403e-11
7.33469e-34
0.0395355
5.18075e-168
5.88838e-07
-4.67408e-158
0.000211569
9.28578e-15
1.19487e-51
3.62592e-137
6.72178e-50
9.46733e-38
5.95231e-93
30.1069
1.10462e-15
0.12397
-1.68456e-153
6.6616e-13
6.11668e-09
6.26031e-15
2.55147e-09
2.18142e-14
-1.16783e-155
7.88879e-114
3.57319e-69
-1.74088e-142
4.08681e-40
-8.87092e-129
-2.70778e-52
2.02764e-220
-5.71601e-117
2.48083e-38
1.80746e-59
2.81113e-173
-4.13039e-60
0.143424
72.558
-3.81187e-191
1.59568e-62
-3.12725e-113
5.95489e-13
5.8821e-42
2.83814
2.17398e-06
5.89986e-125
3.02063e-58
4.28681e-09
6.39843e-28
2.39738e-07
7.36923e-69
7.51539e-15
-1.03122e-177
0.0469713
1.37084e-16
1.57453e-161
1.59859e-09
0.000292697
1.23453e-57
0.602136
2.18083e-119
5.39795e-11
9.33592e-101
-4.63847e-197
5.77342e-94
-4.37929e-105
0.0156163
4.46473e-12
0.00450082
7.64831e-173
0.809507
1.31326e-51
4.02263e-18
-6.11842e-40
4.58989e-61
5.97889e-73
0.00118823
1.88377e-117
3.58264e-135
9.46314e-38
1.82287e-11
3.57077e-40
6.4881e-29
-1.34334e-73
0.0139211
9.17291e-39
1.02299e-40
9.89584e-12
6.8876e-200
1.34126e-09
1.96089e-24
5.3008e-10
-6.1203e-96
1.13983e-05
7.41234e-184
1.03592e-41
9.30906e-73
4.80867e-15
-1.73454e-90
9.10591e-39
1.26393e-10
66.4123
7.76897e-124
1.0638e-65
-4.18681e-59
1.68588e-21
2.01029e-32
-1.23631e-123
3.22847e-54
2.73208e-185
8.82903
5.58009e-281
5.05131e-185
2.08867e-247
1.01658e-10
-2.12746e-152
-7.51333e-51
0.0651151
4.92116e-76
-1.76207e-73
-5.43579e-146
6.98997e-234
4.41245e-12
-8.51621e-190
1.74688e-51
2.38277e-16
-2.08313e-58
9.26132e-08
3.48551e-124
2.17914e-53
7.05454e-10
5.4364e-29
-2.90606e-93
73.8394
-1.07801e-285
1.27922e-227
1.10453e-111
159.25
-9.19117e-98
1.85259e-103
9.93153e-10
-2.90062e-137
1.35336e-122
1.40435e-23
3.4886e-08
2.76363e-44
0.000252317
-1.0229e-134
1.18881e-113
2.45992e-68
3.47522e-72
2.86379e-15
-4.63241e-160
-5.47819e-102
-3.4307e-70
-1.6091e-20
6.35326e-85
3.16258e-175
-4.31329e-54
-4.53109e-23
7.65584e-241
1.63963e-237
1.88392e-06
1.3755e-43
4.92689e-06
4.62744e-120
-1.09095e-313
-1.12777e-21
6.62101e-11
7.91026e-170
-5.21398e-132
-2.45003e-186
4.01525
1.53044e-241
6.67047e-46
3.2325e-07
-4.40322e-235
9.03219e-232
6.27394e-30
-6.48328e-201
8.21965e-237
3.11479e-66
4.60577e-17
2.6612e-177
4.91175e-30
-3.68676e-192
3.22049e-10
1.9004e-315
1.6497e-09
3.74984e-16
4.43689e-35
-5.58656e-235
6.54308e-24
2.91118
1.9461e-131
7.8592e-61
-1.16724e-205
1.39119e-17
-5.73048e-194
2.5743e-09
1.35523e-14
1.77047e-108
1.87321e-242
1.00111e-16
1.55717e-18
8.61628e-75
1.13419e-73
2.05852e-20
-7.26028e-199
6.86613e-25
1.31693e-244
5.90989e-09
2.50211e-11
2.9947e-16
5.80411e-34
-1.07958e-28
1.32509
6.17597e-39
3.25266e-72
5.89219e-19
-3.65412e-128
1.34213e-21
3.92231e-20
2.9891e-55
7.66601e-112
0.0150185
4.37938e-266
0.00406623
94.5604
-1.53113e-141
1.29618e-13
30.2284
5.41211e-45
9.15615e-70
2.24882e-25
-1.84386e-68
4.85256e-183
1.23698e-10
0.00210018
0.344157
-4.73078e-128
1.22281e-30
1.836e-06
1.94702e-17
-7.90912e-151
1.63087e-222
5.17845e-57
0.000976534
4.00786e-11
6.40149e-21
-5.18741e-294
-5.63188e-195
1.30739e-18
-1.70284e-135
8.93502e-63
-3.50399e-130
3.37241e-237
1.31256e-09
6.26692e-121
2.44575e-07
1.79292e-73
1.35564e-211
2.19723e-223
1.30831e-18
-3.74349e-129
8.82117e-45
1.14008e-20
0.00786166
-1.92489e-63
1.32534e-175
3.74767e-08
1.27765e-109
3.02353e-187
2.56394e-97
5.52267e-18
-4.44672e-130
1.65305e-17
1.03683e-65
157.69
2.87269e-19
-1.72667e-165
2.49934e-07
-1.81646e-247
4.5047e-12
1.68483e-52
2.02071e-07
0.000203601
-1.26056e-56
1.68758e-06
1.57193e-209
8.67364e-13
-1.9282e-144
4.60207e-64
4.77399e-08
3.37057e-40
3.19483e-08
0.00229349
-2.06311e-24
1.20181e-11
6.83057e-08
8.7212e-172
7.78879e-191
-2.01061e-244
1.47105e-06
-5.07134e-30
8.79022e-170
5.48726e-10
3.7772e-09
1.4954e-60
1.35341e-22
2.74876e-77
1.09756e-43
2.10906e-06
-3.62745e-89
4.95467e-48
8.8507e-48
4.89501e-270
2.25684e-265
-1.34858e-171
-2.0009e-127
5.46758e-75
9.41174e-215
-3.22096e-107
-2.59425e-122
-7.84291e-78
5.81245e-38
-3.36925e-150
2.79271e-09
2.38088e-317
1.60794e-15
1.08078e-07
-6.5558e-164
3.34292e-06
5.04534e-20
5.02117e-09
-4.34646e-84
2.39204e-21
-4.71194e-137
1.0416e-53
3.04151e-68
1.58736e-225
-2.97312e-144
2.37862e-115
-6.28303e-162
5.38383e-250
4.92782e-69
4.22688e-252
-8.91404e-39
4.39145e-36
0.0180006
2.10161e-217
1.47556e-76
1.13019e-212
4.36234e-135
1.6359e-27
8.73421e-80
3.70415e-167
111.446
8.28508e-18
2.35508e-43
1.12701e-75
6.05371e-20
2.14845e-29
-2.77081e-98
5.57789e-28
2.78619e-17
3.85416e-122
5.11383e-247
-6.26848e-105
8.68979e-12
-3.62022e-190
-6.86793e-173
3.74388e-17
4.88037e-141
-3.64293e-136
3.75286e-109
2.32627e-175
8.53934e-06
2.82631e-215
-6.51175e-175
2.47112e-35
5.98765e-28
0.348878
1.28298e-16
-3.02616e-74
-9.76752e-166
1.98826e-27
-9.60096e-168
1.25358e-37
1.7921e-84
1.27409e-122
1.28332e-07
8.14256e-230
7.96606e-30
2.38254e-67
2.83148e-19
2.5035e-52
7.29368e-256
-2.66668e-124
-6.50736e-314
2.21402e-34
-3.00172e-193
7.64064e-25
7.27551e-64
-2.64804e-116
-7.99742e-72
1.96723e-55
7.82913e-249
4.88214e-29
1.07838e-33
-1.43173e-128
1.08141e-33
1.73452e-10
5.28294e-236
2.9613e-55
2.70506e-14
2.33767e-22
-4.21878e-95
-1.21813e-56
-6.50988e-55
6.58035e-67
-2.03446e-91
2.4025e-18
-7.71388e-91
5.2133e-164
8.89168e-166
5.00509e-06
4.64912e-11
2.75967e-08
4.05205e-08
-1.71947e-44
4.45565e-27
5.01796e-63
2.02243e-28
1.80401e-166
0.0875508
-2.28706e-135
9.75781e-08
2.1837e-19
-1.32313e-169
-9.57454e-32
7.58991e-12
6.25267e-10
1.45775e-61
7.50626e-37
1.77061e-168
-3.77409e-276
2.75927e-19
1.18939e-246
2.19027e-218
1.39749e-21
-2.87226e-136
-8.01616e-85
1.23381e-173
2.12215e-120
1.25803e-19
6.92568
-7.90662e-137
2.02984e-143
7.68403e-13
-2.216e-48
7.36198e-14
2.62848e-34
9.37723e-33
1.38277e-138
-1.90726e-51
1.58234e-30
6.52654e-22
-3.90965e-38
4.57517e-181
4.42088e-17
1.08588e-42
1.37082e-25
-2.14058e-105
1.53634e-171
1.57956e-21
-1.96532e-133
1.32478e-236
3.22584e-31
1.58818e-10
-6.58955e-216
2.43025e-33
1.86058e-66
-2.4523e-148
1.79891e-97
-2.91896e-148
2.52737e-31
7.97772e-164
1.48644e-173
1.83141e-71
5.42081e-32
-9.1556e-51
1.00474e-35
6.31139
1.64624e-125
2.08641e-77
0.00131698
6.76589e-47
-5.92519e-150
2.75836e-44
1.08518e-09
1.30282e-225
-7.58025e-140
3.08352e-240
6.0156e-36
1.12755e-18
-1.74033e-72
3.00974e-254
3.62792e-102
5.23143e-94
1.32435e-114
1.16265e-11
1.20433e-134
3.34757e-255
7.46583e-248
2.25421e-39
8.85215e-63
6.30478e-07
5.27663e-106
-1.03786e-61
1.01933e-55
6.25509e-26
7.4076e-190
1.09339e-31
1.01149e-229
2.32497e-219
-7.81444e-244
2.59363e-13
-3.56468e-134
1.77611e-33
1.82401e-41
5.8217e-39
4.04685e-27
1.91932e-38
2.57798e-17
3.21982e-32
6.68935e-131
5.79806e-48
-2.89577e-59
1.45969e-49
1.22167e-26
-4.62406e-139
20.819
5.09831e-21
6.32735e-24
7.9198e-217
0.538007
4.17834e-26
1.93742e-28
5.98265e-37
7.36149e-18
2.89015e-78
-6.69919e-124
2.14708e-122
7.31996e-131
4.06322e-124
1.28086e-23
1.87676e-28
-6.09134e-141
2.28818e-39
1.40564e-116
-2.03698e-122
5.64012e-79
-9.08746e-58
1.00431e-100
1.02684e-70
-3.6949e-57
1.76485e-46
1.14213e-33
2.17653e-69
-1.612e-217
-2.1206e-103
-8.10296e-130
7.53087e-14
-6.17238e-192
-2.0092e-137
1.57253e-37
0.0176976
-1.20142e-163
1.78238e-06
4.2597e-169
-7.87096e-135
7.47175e-71
5.47894e-41
1.52194e-48
-9.09789e-188
8.04348e-34
2.05773e-34
1.87574e-14
2.97002e-217
9.95083e-44
2.86212e-59
4.9463e-90
-5.36461e-243
-2.89853e-292
1.02358e-35
4.42238e-62
2.25169e-87
14.8114
3.33211e-32
2.86529e-45
-3.05843e-31
9.11501e-73
7.43374e-14
4.3518e-124
-9.38294e-74
-1.60027e-106
-2.23696e-114
2.64588e-06
1.139e-42
1.48392e-30
3.07935e-51
7.05699e-182
1.14768e-32
1.46905e-31
2.42417e-13
2.39882e-116
6.12655e-46
-3.24233e-06
3.38059e-06
4.10768e-171
1.00325e-10
5.41923e-79
4.65473
4.25134e-235
1.38969e-34
2.84583e-52
-4.86346e-263
1.06379e-27
5.60917e-96
-1.89427e-99
2.776e-22
1.18889e-07
2.3004e-14
-7.74056e-99
2.91447e-38
-3.81167e-234
-2.39827e-133
7.1191e-08
-1.82313e-40
1.07196e-114
1.03921e-32
-1.01287e-26
7.22314e-40
1.05021e-61
2.16156e-56
4.62819e-41
1.20359e-06
-6.29781e-180
2.31362e-59
6.9826e-77
2.77265e-36
3.02991e-09
3.48344e-37
2.61712e-46
-3.77816e-102
2.45894e-239
1.92543e-34
1.59101e-44
1.18679e-36
-5.61688e-185
-4.26785e-82
5.36131e-46
7.09596e-39
-3.38641e-30
1.46041e-32
1.37498e-105
6.1016e-42
-8.48668e-136
7.0082e-25
4.48802e-78
6.79815e-34
3.70312e-79
-3.97802e-97
3.18204e-39
-3.29877e-82
1.49404e-91
1.28376e-110
5.44764e-181
3.04855e-55
4.88768e-65
3.43414e-79
0.630551
0.000189474
-7.82336e-147
9.88389e-117
-3.87742e-60
6.40507e-61
1.32647e-253
3.14814e-38
-3.96066e-46
-3.1156e-41
-1.2957e-234
3.4901e-17
3.95575e-34
1.22764e-20
4.17532e-39
-1.33124e-217
-1.33653e-117
3.30586e-89
8.8972e-42
3.1921e-11
3.32947
-1.07414e-176
-1.64757e-84
-1.95885e-96
1.02345e-11
1.26054e-06
4.97832e-14
-7.82121e-67
8.72862e-38
-2.04867e-232
1.97135e-55
-3.4617e-67
-3.07489e-174
-2.53488e-27
-3.87498e-63
2.91239e-50
1.83972e-36
7.7751e-88
2.26315e-62
6.12743e-45
-2.2477e-219
0
1.68777e-59
-8.56371e-86
2.23121e-10
2.97463e-78
-1.65031e-28
4.63439e-17
-1.8307e-52
-2.25917e-175
-4.45781e-76
2.95152e-35
3.30158e-179
7.15312e-05
2.73049e-06
-4.46552e-146
1.21146e-229
7.96611e-142
-4.62751e-181
-2.27776e-266
1.20241e-77
1.24505e-95
1.27061e-38
2.58274e-65
1.09698e-43
-1.39316e-60
5.43741e-12
2.66272e-37
1.08914e-41
1.68754e-67
1.89165e-77
-4.17175e-46
-1.31798e-218
-1.00965e-96
2.83419e-99
-2.04245e-40
-1.10676e-32
1.30153e-11
-2.73662e-269
-5.34052e-34
5.68084e-54
3.36624e-71
2.11749e-29
4.06739e-49
3.43402e-32
4.72533e-07
1.54816e-57
6.15868e-24
5.77944e-77
3.5862e-118
3.89725e-56
5.14314e-44
1.5619e-181
-4.21696e-68
1.30889e-05
-2.01942e-100
1.54915e-07
2.28466e-172
2.07721e-44
3.54885e-117
7.14815e-107
6.40417e-38
-8.27757e-26
6.93498e-31
-3.53713e-95
-6.22095e-71
1.25352e-71
2.38237e-23
3.6407e-29
-7.48029e-59
2.82643e-19
-3.72892e-264
1.47208e-60
3.7259
1.72353e-18
-1.88615e-101
0.00205917
1.61607e-31
1.88602e-93
-8.35461e-203
2.12981e-13
5.83311e-44
1.78516e-73
-5.63449e-49
8.17478e-178
2.1288e-40
7.63308e-106
1.54623e-23
3.76465e-47
2.68958e-45
-2.42207e-36
3.11261e-322
4.12249e-136
3.57798e-86
1.09328e-120
1.10766e-123
2.94404e-72
-4.66676e-96
1.06064e-91
3.94901e-30
4.25116e-35
3.39003e-251
2.48641e-27
-7.50783e-134
-1.75053e-217
-7.73783e-35
4.08615e-165
5.83639e-76
4.69742e-76
1.41133e-183
7.45352e-180
-9.13433e-107
1.87674e-45
-1.87364e-77
7.28497e-41
5.50919e-52
-1.11402e-33
3.97833e-36
1.16752e-74
-5.23924e-62
5.19201e-50
-4.67309e-285
-3.93748e-81
-1.96611e-107
7.83592e-77
4.191e-05
6.60366e-48
1.79108e-88
-9.21541e-59
-1.28296e-80
3.49932e-97
-2.57294e-98
-3.44193e-79
9.40846e-105
-2.17421e-41
5.01324e-55
-4.32039e-220
1.09292e-46
-4.38139e-62
3.14712e-44
9.67645e-203
-1.25872e-35
3.33627e-08
-3.71073e-128
-1.2829e-51
3.71422e-34
-1.471e-144
1.01702e-34
1.43669e-22
4.46063e-47
5.29927e-46
3.26524e-26
-2.24667e-58
-3.90708e-65
6.16153e-53
6.0188e-40
-9.00764e-163
2.79276e-106
-1.10452e-274
-1.46833e-130
-8.34156e-203
2.39059e-69
8.43095e-62
1.20908e-38
2.11457e-53
0.707982
-1.19178e-25
2.8285
4.72326e-53
8.56834e-13
0.196184
2.58015e-21
3.80056
4.73776e-103
1.2627e-64
-1.09984e-75
1.85133e-78
1.12245e-59
2.88243e-138
6.4577e-69
1.08812e-117
8.28048e-205
-6.85444e-67
0.0242958
1.57111e-72
4.2373e-43
-6.01076e-74
-1.00536e-108
7.22296e-56
-2.53872e-61
2.68212e-127
7.04258e-67
1.75279e-112
9.61082e-31
3.27752e-50
5.48344e-53
-8.13622e-55
3.07124e-05
4.01301e-20
1.3402e-41
3.63219e-78
23.7847
1.12314e-74
1.48316e-70
1.06321e-39
-3.54909e-37
-5.72274e-76
1.42309e-28
4.54518e-177
-1.3616e-47
-3.28963e-35
8.3155e-56
1.14826e-56
-1.7134e-95
-2.20386e-64
-1.55409e-43
1.10675e-101
7.74801e-41
1.99506e-70
-1.8656e-91
2.08055e-174
1.02641e-79
3.60184e-57
-5.16547e-104
1.00795e-77
1.90871e-90
-9.19654e-136
-5.86815e-43
9.95725e-108
2.78504e-21
2.95191e-59
-2.84729e-81
2.0277e-184
-9.04929e-129
2.91584e-32
-1.93972e-67
1.65921e-235
1.65739e-59
0.169351
2.57922e-44
-6.09313e-98
2.10202e-78
7.8641e-06
0.00288618
5.13777
8.86059e-127
7.04109e-129
-9.7015e-124
-8.82498e-91
9.14579e-43
2.59106e-10
5.52153e-08
4.92398e-19
2.7925e-42
1.18247e-108
-9.19903e-199
-4.55411e-195
-9.13887e-35
4.94207e-99
8.93657e-36
1.1332e-125
5.27067e-16
4.92013e-115
5.07968e-64
5.31288e-15
-6.1935e-54
3.49345e-34
-6.32684e-131
-2.85951e-69
-9.42414e-216
5.96144e-30
3.67748e-43
1.26631e-100
-7.95109e-205
-2.76192e-86
2.8424e-30
-5.53686e-140
-4.73677e-58
4.38017e-06
7.96592e-229
3.9817e-96
-3.42439e-49
-4.47223e-50
9.88491e-62
2.71078e-151
5.10947e-138
3.29676e-134
-3.6358e-249
-2.73754e-194
7.73576e-89
9.59918e-52
-2.64191e-216
-3.25634e-94
-3.58105e-139
131.261
-2.26586e-36
2.80332e-132
-1.84428e-271
7.53799e-41
-3.51435e-72
1.60987e-29
5.48131e-60
-1.28191e-70
-2.73433e-209
2.05938e-135
1.23341e-31
2.52027e-273
8.8472e-76
1.78839e-37
9.8208e-66
-1.21841e-189