/*--------------------------------*- C++ -*----------------------------------*\
  =========                 |
  \\      /  F ield         | OpenFOAM: The Open Source CFD Toolbox
   \\    /   O peration     | Website:  https://openfoam.org
    \\  /    A nd           | Version:  7
     \\/     M anipulation  |
\*---------------------------------------------------------------------------*/
FoamFile
{
    version     2.0;
    format      ascii;
    class       volScalarField;
    location    "2.5";
    object      T;
}
// * * * * * * * * * * * * * * * * * * * * * * * * * * * * * * * * * * * * * //

dimensions      [0 0 0 1 0 0 0];

internalField   nonuniform List<scalar> 
1008
(
1
1
1
1
1
1
1
1
1
1
1
1
2.23521
2.72795
2.73696
2.74714
2.75703
2.76669
2.77797
2.79192
2.80828
2.8243
2.83674
2.84357
1
1
1
1
1
1
1
1
1
1
1
1
2.21556
2.7243
2.73529
2.7452
2.7551
2.76454
2.77548
2.78895
2.80474
2.82018
2.83211
2.83872
1
1
1
1
1
1
1
1
1
1
1
1
2.16928
2.71865
2.7321
2.74193
2.7519
2.7611
2.77164
2.78454
2.79965
2.81449
2.8258
2.83242
1
1
1
1
1
1
1
1
1
1
1
1
2.09544
2.70569
2.72741
2.73745
2.74758
2.75646
2.76652
2.77873
2.7929
2.80652
2.81619
2.82115
1
1
1
1
1
1
1
1
1
1
1
1
1.99062
2.68108
2.71938
2.72964
2.73979
2.7481
2.75712
2.76789
2.7803
2.79253
2.80116
2.80712
1
1
1
1
1
1
1
1
1
1
1
1
1.84982
2.63967
2.70423
2.71647
2.72795
2.7363
2.74462
2.75456
2.76607
2.77678
2.78116
2.77841
1
1
1
1
1
1
1
1
1
1
1
1
1.65911
2.57167
2.68148
2.70006
2.71376
2.72213
2.72956
2.73754
2.74419
2.74727
2.74509
2.74096
1
1
1
1
1
1
1
1
1
1
1
1
1.38516
2.45736
2.65719
2.67847
2.69551
2.70456
2.71114
2.71552
2.71714
2.71799
2.71887
2.7316
1
1
1
1
1
1
1
1
1
1
1
1
1.04788
2.32816
2.65806
2.66214
2.67118
2.67925
2.68375
2.68553
2.6812
2.66924
2.6264
2.52905
1
1
1
1
1
1
1
1
1
1
1
1
1.00055
2.17167
2.61914
2.62794
2.6386
2.6479
2.64961
2.64808
2.63786
2.61116
2.56167
2.40456
1
1
1
1
1
1
1
1
1
1
1
1
0.999995
1.90611
2.56596
2.61383
2.62125
2.62423
2.62089
2.61295
2.59578
2.55955
2.50034
2.32666
1
1
1
1
1
1
1
1
1
1
1
1
0.999999
1.49147
2.43417
2.59272
2.60163
2.60076
2.59394
2.5801
2.55537
2.51587
2.44279
2.29128
1
1
1
1
1
1
1
1
1
1
1
1
1
1.06761
2.25426
2.57012
2.57425
2.57351
2.56575
2.54976
2.52112
2.47925
2.40102
2.28699
1
1
1
1
1
1
1
1
1
1
1
1
1
1.00097
2.0082
2.50117
2.53938
2.53893
2.53373
2.51907
2.49243
2.44837
2.37439
2.28408
1
1
1
1
1
1
1
1
1
1
1
1
1
0.999994
1.5109
2.36541
2.51024
2.50693
2.5028
2.49037
2.46761
2.42341
2.35911
2.28481
1
1
1
1
1
1
1
1
1
1
1
1
1
0.999998
1.06607
2.16663
2.47204
2.46962
2.46913
2.45929
2.43944
2.40092
2.34701
2.28391
1
1
1
1
1
1
1
1
1
1
1
1
1
1
1.00082
1.7753
2.37059
2.44375
2.43771
2.4287
2.40969
2.3777
2.33351
2.28045
1
1
1
1
1
1
1
1
1
1
1
1
1
1
0.999998
1.17662
2.19103
2.42249
2.40914
2.4002
2.38082
2.35162
2.31434
2.27028
1
1
1
1
1
1
1
1
1
1
1
1
1
1
0.999999
1.0068
1.89734
2.34453
2.37824
2.36767
2.34965
2.32351
2.29163
2.25442
1
1
1
1
1
1
1
1
1
1
1
1
1
1
1
1.00001
1.27265
2.16578
2.35962
2.33854
2.32034
2.29777
2.27137
2.23933
1
1
1
1
1
1
1
1
1
1
1
1
1
1
1
1
1.01669
1.88589
2.3063
2.30328
2.28849
2.27017
2.24812
2.22112
1
1
1
1
1
1
1
1
1
1
1
1
1
1
1
1
1.00007
1.28233
2.11903
2.28835
2.26504
2.24676
2.22572
2.2021
1
1
1
1
1
1
1
1
1
1
1
1
1
1
1
1
1
1.01782
1.70073
1.2114
0.963449
0.957307
1.07996
1.23062
1.35128
1.47596
1.60799
1.63947
1.63508
1.62164
1.63569
1.69584
1.76876
1.78389
1.7779
1.74092
1.69654
1.6914
1.71204
1.74201
1.74535
1.73571
1.70522
1.68647
1.6863
1.70085
1.72416
1.72831
1.723
1.70504
1.68925
1.92847
1.67856
1.5293
1.33179
1.28802
1.28245
1.28333
1.30531
1.33602
1.35987
1.37538
1.39861
1.44182
1.50856
1.58699
1.63942
1.65102
1.64625
1.6332
1.63349
1.65118
1.6788
1.68753
1.68493
1.67371
1.66096
1.65999
1.66834
1.68079
1.68754
1.68745
1.6824
1.67329
2.04099
1.84433
1.71608
1.58857
1.47447
1.38406
1.31562
1.29033
1.28539
1.27449
1.27654
1.30041
1.32698
1.3524
1.39502
1.4453
1.48005
1.51354
1.54161
1.55846
1.57212
1.58413
1.59444
1.60326
1.6095
1.61197
1.61511
1.61551
1.61138
1.60901
1.60928
1.61302
1.61783
2.10424
1.94959
1.81706
1.71413
1.63274
1.55105
1.44662
1.37563
1.36786
1.35621
1.33309
1.30731
1.29056
1.28615
1.29399
1.31697
1.35165
1.39583
1.44117
1.46868
1.47913
1.48749
1.49978
1.51713
1.5407
1.56156
1.5655
1.56323
1.55372
1.54658
1.54537
1.5484
1.56852
2.15114
2.02781
1.9159
1.7999
1.72
1.66235
1.5921
1.49968
1.43345
1.41392
1.39581
1.37291
1.3501
1.31452
1.28843
1.28826
1.29445
1.31289
1.34745
1.38329
1.40302
1.42052
1.43906
1.45695
1.48194
1.50673
1.5178
1.52
1.51849
1.5119
1.51203
1.52359
1.61291
2.1781
2.07416
1.98461
1.88822
1.79275
1.72664
1.67081
1.61106
1.55418
1.48766
1.44421
1.43382
1.42174
1.39291
1.35187
1.31811
1.30521
1.30602
1.31055
1.31726
1.3289
1.34238
1.36774
1.39663
1.42297
1.44913
1.47407
1.49151
1.49182
1.48986
1.5058
1.59799
1.81727
2.19976
2.1109
2.02958
1.94642
1.86611
1.79884
1.72548
1.66733
1.63014
1.58491
1.52752
1.47633
1.45773
1.44141
1.41651
1.38762
1.35779
1.324
1.3112
1.31195
1.31696
1.32883
1.33455
1.34084
1.35369
1.37461
1.40189
1.43642
1.45702
1.47841
1.60289
1.80558
1.97563
2.21145
2.1351
2.06351
1.98812
1.91496
1.85483
1.79024
1.72154
1.67508
1.6419
1.60279
1.55821
1.50989
1.47448
1.4617
1.4482
1.42758
1.39281
1.35007
1.33592
1.33344
1.33126
1.33146
1.33288
1.32864
1.32683
1.3343
1.35882
1.39101
1.51834
1.76709
1.9218
1.99568
2.2182
2.15261
2.08819
2.02062
1.95496
1.89646
1.83923
1.78133
1.73065
1.68251
1.64493
1.61672
1.58328
1.54062
1.49505
1.47677
1.46536
1.44649
1.42
1.3905
1.36698
1.34408
1.33424
1.33665
1.33562
1.33191
1.32837
1.33469
1.4381
1.69443
1.83616
1.90085
1.94362
2.21699
2.16091
2.10337
2.04423
1.987
1.9307
1.87375
1.82451
1.782
1.73595
1.68414
1.64823
1.62479
1.59552
1.56062
1.52547
1.48868
1.47323
1.46472
1.4473
1.42405
1.39382
1.36179
1.35543
1.3522
1.34303
1.34901
1.4248
1.65463
1.81051
1.84928
1.84713
1.84717
2.21125
2.16413
2.11318
2.06124
2.01096
1.95984
1.9076
1.85871
1.81524
1.77515
1.7333
1.69568
1.65699
1.62158
1.59969
1.57665
1.54451
1.50602
1.48767
1.4774
1.46396
1.4457
1.41688
1.38573
1.3704
1.37091
1.43361
1.65206
1.83097
1.85627
1.84541
1.82973
1.8152
2.20284
2.16201
2.11662
2.07203
2.02653
1.9781
1.9312
1.8893
1.84645
1.80179
1.76461
1.73158
1.69623
1.65955
1.62578
1.60465
1.58128
1.55345
1.52857
1.50225
1.48367
1.47502
1.45891
1.43086
1.42271
1.48189
1.68336
1.86635
1.8896
1.87088
1.84668
1.8253
1.80869
2.1894
2.15371
2.11516
2.07597
2.03452
1.99115
1.95117
1.91021
1.86901
1.82801
1.79451
1.75828
1.72386
1.69073
1.66272
1.63537
1.60626
1.58199
1.56464
1.54388
1.51551
1.48989
1.47945
1.4748
1.53221
1.7358
1.91473
1.93463
1.91293
1.8854
1.85961
1.83886
1.81898
2.17452
2.14314
2.11076
2.07577
2.03774
2.00026
1.96417
1.9265
1.88602
1.85035
1.81704
1.78327
1.74872
1.71758
1.69121
1.66359
1.63611
1.60789
1.58622
1.57079
1.54826
1.52063
1.51311
1.57067
1.77515
1.95692
1.97721
1.95634
1.92968
1.90457
1.877
1.84934
1.82624
)
;

boundaryField
{
    inlet
    {
        type            fixedValue;
        value           uniform 1;
    }
    outlet
    {
        type            inletOutlet;
        inletValue      nonuniform 0();
        value           nonuniform 0();
    }
    bottom
    {
        type            symmetryPlane;
    }
    top
    {
        type            symmetryPlane;
    }
    obstacle
    {
        type            zeroGradient;
    }
    defaultFaces
    {
        type            empty;
    }
    procBoundary0to1
    {
        type            processor;
        value           nonuniform List<scalar> 
14
(
1.68455
1.66427
1.64003
1.67355
1.833
1.95823
2.00374
2.00092
1.94531
1.85001
1.80347
1.79596
1.80012
1.80724
)
;
    }
    procBoundary0to2
    {
        type            processor;
        value           nonuniform List<scalar> 
58
(
1.76894
2.22851
2.23743
2.22122
2.20246
2.18156
1
1
1
1
1
1
1
1
1
1
1
1
1
1
1
1
1
1.76894
1.00011
2.15751
2.1313
2.10321
2.07184
2.03789
2.0061
1.97223
1.93635
1.90022
1.86907
1.83568
1.80334
1.76946
1.74277
1.71412
1.68676
1.66024
1.63697
1.61291
1.5868
1.56691
1.55928
1.62341
1.8307
2.0019
2.01618
1.99433
1.96733
1.94333
1.91701
1.88687
1.86057
1.83928
)
;
    }
}


// ************************************************************************* //
