/*--------------------------------*- C++ -*----------------------------------*\
  =========                 |
  \\      /  F ield         | OpenFOAM: The Open Source CFD Toolbox
   \\    /   O peration     | Website:  https://openfoam.org
    \\  /    A nd           | Version:  7
     \\/     M anipulation  |
\*---------------------------------------------------------------------------*/
FoamFile
{
    version     2.0;
    format      ascii;
    class       volScalarField;
    location    "11.5";
    object      p;
}
// * * * * * * * * * * * * * * * * * * * * * * * * * * * * * * * * * * * * * //

dimensions      [1 -1 -2 0 0 0 0];

internalField   nonuniform List<scalar> 
2413
(
1.01198
1.03504
1.05915
1.08397
1.10839
1.13077
1.15451
1.17934
1.2035
1.22529
1.24365
1.25768
1.26551
1.26736
1.26488
1.25724
1.24402
1.22703
1.20904
1.19229
1.17816
1.16749
1.16005
1.15502
1.15176
1.14942
1.14689
1.14394
1.14075
1.13673
1.13307
1.12974
1.12646
1.12324
1.11988
1.11622
1.11149
1.10917
1.10659
1.08167
0.989107
0.84617
0.766196
0.75044
0.767533
0.784587
0.795585
0.803172
0.810648
0.820235
0.832661
0.84673
0.865314
0.903372
0.890325
0.732841
0.622936
0.619685
0.602972
0.578044
0.554253
0.530257
0.502828
0.467228
0.43444
0.414372
0.40525
0.402703
0.403651
0.413196
0.435507
0.458605
0.48508
0.516337
0.551965
0.592153
0.637522
0.688175
0.744533
0.807019
0.875431
0.949914
1.0312
1.11937
1.21252
1.31219
1.41626
1.52338
1.0248
1.04072
1.05808
1.0773
1.09916
1.12422
1.14713
1.16754
1.18649
1.20414
1.21992
1.23307
1.2427
1.24755
1.24796
1.24541
1.23856
1.22731
1.2131
1.1978
1.18271
1.16974
1.15986
1.15286
1.14814
1.14466
1.14198
1.14001
1.1383
1.13602
1.13293
1.12976
1.12669
1.12356
1.12026
1.11622
1.11087
1.1061
1.10044
1.07615
0.994608
0.866984
0.781835
0.754778
0.764794
0.7816
0.793106
0.800873
0.8083
0.817771
0.830206
0.844426
0.863522
0.90189
0.896666
0.760306
0.641525
0.632232
0.616344
0.593858
0.570449
0.546673
0.519259
0.484046
0.450418
0.428331
0.416002
0.410933
0.410722
0.416269
0.438123
0.46013
0.48564
0.516216
0.551019
0.59029
0.634465
0.68351
0.73794
0.798106
0.863923
0.93511
1.01102
1.09103
1.17718
1.26867
1.36418
1.46595
1.051
1.0655
1.08024
1.09514
1.1103
1.12588
1.14185
1.15745
1.1717
1.18461
1.19639
1.20609
1.21486
1.22182
1.2267
1.22824
1.22776
1.22484
1.21721
1.20619
1.19292
1.17909
1.16661
1.15675
1.15009
1.14598
1.1433
1.14104
1.13891
1.13611
1.13263
1.12929
1.126
1.1228
1.11919
1.11401
1.10751
1.09901
1.08561
1.05191
0.984962
0.895136
0.813791
0.767549
0.761284
0.774917
0.788297
0.797799
0.80619
0.815881
0.827807
0.84066
0.85622
0.886929
0.88616
0.791597
0.657366
0.622306
0.605071
0.585333
0.561318
0.537516
0.510661
0.47715
0.444227
0.42268
0.412203
0.4092
0.408115
0.414498
0.434032
0.45646
0.481146
0.510799
0.544665
0.582834
0.625425
0.672326
0.724049
0.781308
0.84454
0.913359
0.988097
1.06713
1.15184
1.23917
1.33324
1.42899
1.0699
1.08272
1.0946
1.10551
1.11548
1.12452
1.13336
1.14213
1.15081
1.15953
1.16719
1.17512
1.18396
1.19382
1.20304
1.21069
1.2167
1.21971
1.2176
1.21106
1.20038
1.18686
1.17258
1.15963
1.1496
1.14301
1.1388
1.13621
1.13457
1.13284
1.13054
1.12739
1.12421
1.12149
1.11782
1.11159
1.10304
1.08996
1.06814
1.0275
0.976938
0.923687
0.858711
0.794567
0.763712
0.766722
0.780352
0.79169
0.801282
0.811394
0.82319
0.835991
0.849212
0.873941
0.874789
0.820678
0.696671
0.631096
0.606366
0.588854
0.566885
0.542864
0.515874
0.484711
0.452218
0.430187
0.419175
0.415002
0.413719
0.418572
0.435125
0.456976
0.480342
0.507984
0.539996
0.576273
0.616861
0.661683
0.709886
0.762444
0.819384
0.879141
0.945315
1.01616
1.09062
1.17151
1.2601
1.35228
1.08382
1.09503
1.10395
1.11072
1.11556
1.11931
1.1228
1.12664
1.13143
1.13716
1.14431
1.15324
1.16302
1.17327
1.18379
1.19516
1.2037
1.2109
1.2159
1.21246
1.20455
1.19363
1.17961
1.16533
1.15262
1.14311
1.13722
1.13412
1.13246
1.13092
1.12843
1.12514
1.12257
1.11973
1.11469
1.10626
1.09396
1.07547
1.04628
1.00371
0.969602
0.944086
0.90299
0.834902
0.776242
0.759586
0.770097
0.783779
0.794814
0.805119
0.816265
0.828111
0.840821
0.861226
0.861807
0.834111
0.748338
0.660475
0.616528
0.591945
0.571999
0.549211
0.523359
0.494547
0.464384
0.440935
0.42824
0.422943
0.420866
0.424146
0.436977
0.456835
0.478501
0.504149
0.533742
0.567269
0.60489
0.647428
0.692797
0.741752
0.796202
0.851062
0.912536
0.976491
1.04312
1.11428
1.1892
1.26789
1.07619
1.08749
1.09668
1.10356
1.10806
1.11086
1.11271
1.11471
1.11794
1.12307
1.13025
1.13857
1.14808
1.15848
1.17029
1.18169
1.19159
1.20026
1.20844
1.20961
1.20523
1.19709
1.18486
1.17009
1.15434
1.14205
1.134
1.12929
1.12757
1.12643
1.12453
1.12205
1.11967
1.1164
1.10923
1.09716
1.07953
1.05508
1.02325
0.988034
0.967946
0.958896
0.938084
0.882387
0.803293
0.75936
0.757998
0.772878
0.785939
0.796232
0.807619
0.818812
0.830263
0.847535
0.848544
0.83237
0.783723
0.711255
0.646651
0.605827
0.580493
0.557733
0.532992
0.506186
0.47816
0.453743
0.438825
0.432639
0.429468
0.430346
0.44034
0.457746
0.477637
0.501515
0.528983
0.557829
0.5912
0.629438
0.668716
0.713118
0.761582
0.811801
0.867027
0.924135
0.984403
1.04801
1.11424
1.18352
1.06047
1.07107
1.08039
1.08855
1.09545
1.10123
1.10585
1.10954
1.11302
1.11705
1.12233
1.12934
1.13817
1.14865
1.1594
1.1698
1.18013
1.18821
1.19677
1.20221
1.20116
1.19565
1.18678
1.17436
1.15988
1.14528
1.13525
1.12898
1.12556
1.12326
1.1209
1.11817
1.11423
1.10789
1.09717
1.08128
1.06042
1.03372
1.00431
0.980061
0.971108
0.968868
0.96132
0.925799
0.845714
0.77371
0.749367
0.758756
0.775008
0.787988
0.797309
0.806602
0.816479
0.830971
0.833119
0.821827
0.79203
0.756873
0.696482
0.637834
0.596872
0.568902
0.544201
0.518733
0.492252
0.468185
0.451541
0.442175
0.437872
0.437953
0.445797
0.460609
0.476962
0.499996
0.525562
0.551175
0.582741
0.616504
0.652365
0.692592
0.734176
0.779274
0.826928
0.876927
0.929534
0.984304
1.04113
1.10047
1.04012
1.05067
1.06139
1.07173
1.08151
1.09081
1.09921
1.10626
1.11201
1.1168
1.12112
1.12596
1.13223
1.14041
1.14976
1.15979
1.16932
1.17696
1.18446
1.19208
1.19362
1.19076
1.18485
1.17554
1.16255
1.1487
1.13617
1.12751
1.12239
1.11866
1.11486
1.10993
1.10299
1.09289
1.07914
1.06039
1.03826
1.01461
0.99388
0.97951
0.976432
0.975996
0.973656
0.957044
0.895027
0.806864
0.752505
0.744832
0.759543
0.774507
0.785631
0.794816
0.802635
0.811904
0.81477
0.807831
0.786054
0.767428
0.74009
0.689289
0.630253
0.589118
0.558439
0.531677
0.505136
0.482238
0.464217
0.451164
0.445721
0.445517
0.451236
0.461325
0.474855
0.493478
0.514507
0.538986
0.567643
0.597402
0.629328
0.663742
0.700191
0.739483
0.78106
0.825036
0.871176
0.919065
0.968576
1.01973
1.03024
1.04223
1.05278
1.06327
1.07413
1.08513
1.0952
1.10372
1.11079
1.11646
1.12059
1.12426
1.12871
1.13491
1.1426
1.15164
1.16051
1.16707
1.17403
1.18194
1.18475
1.18336
1.179
1.17149
1.15967
1.14582
1.13194
1.12089
1.11234
1.10626
1.10047
1.09224
1.08154
1.06838
1.05283
1.03562
1.0179
1.00129
0.989897
0.983544
0.981844
0.982418
0.981053
0.973171
0.938299
0.854862
0.773304
0.738156
0.743358
0.758574
0.769526
0.778099
0.786257
0.793467
0.795251
0.789114
0.77333
0.758333
0.748211
0.726041
0.67602
0.623898
0.579589
0.546465
0.517929
0.494013
0.476447
0.46206
0.454806
0.453028
0.455719
0.463591
0.475632
0.491433
0.509698
0.531482
0.555687
0.581218
0.608046
0.636697
0.667598
0.700513
0.735679
0.772888
0.811912
0.852621
0.894697
0.938001
1.0212
1.03293
1.04451
1.05633
1.06817
1.0787
1.08856
1.0978
1.10583
1.11254
1.11772
1.12207
1.12678
1.13237
1.139
1.1464
1.15356
1.15952
1.16427
1.16872
1.16904
1.16657
1.1625
1.1564
1.14658
1.13383
1.11825
1.10362
1.09091
1.07928
1.06936
1.06005
1.04939
1.03762
1.02547
1.01517
1.00656
0.998042
0.993089
0.99093
0.988818
0.986999
0.983979
0.978433
0.963543
0.906895
0.8143
0.746547
0.728756
0.740505
0.753354
0.760967
0.766818
0.772896
0.775533
0.769548
0.756852
0.740882
0.734224
0.726311
0.70174
0.662336
0.612775
0.568793
0.533842
0.505051
0.48507
0.469425
0.460318
0.4568
0.457147
0.462177
0.471736
0.484851
0.500657
0.518765
0.538379
0.559523
0.581894
0.605798
0.631365
0.65879
0.688185
0.719444
0.752277
0.786839
0.822797
0.860243
1.01529
1.02649
1.03714
1.04759
1.05862
1.06964
1.08061
1.09006
1.09874
1.10698
1.11419
1.12079
1.12746
1.13366
1.1387
1.14185
1.14296
1.14289
1.14231
1.13924
1.13778
1.13277
1.12838
1.12214
1.11353
1.10248
1.08687
1.07063
1.05583
1.04283
1.03366
1.02753
1.02163
1.01556
1.01097
1.00784
1.0052
1.00238
1.0001
0.998485
0.995318
0.990775
0.987154
0.981302
0.973073
0.943587
0.867093
0.775688
0.725204
0.721395
0.733926
0.742976
0.747768
0.751191
0.75426
0.747799
0.737293
0.722344
0.71235
0.709354
0.697672
0.67585
0.640823
0.596206
0.553658
0.519297
0.493839
0.476733
0.465869
0.460407
0.459332
0.462004
0.468965
0.479102
0.491953
0.506625
0.522751
0.539546
0.557319
0.576345
0.596511
0.618093
0.641223
0.665791
0.691751
0.719493
0.748487
0.776796
1.01266
1.02304
1.03255
1.0425
1.05286
1.06326
1.07422
1.08506
1.09558
1.10544
1.11432
1.12204
1.12859
1.13264
1.13205
1.12614
1.11606
1.10553
1.09568
1.08495
1.08084
1.07614
1.07447
1.0731
1.06924
1.06322
1.05231
1.04031
1.0297
1.02025
1.01475
1.0127
1.01182
1.01234
1.01232
1.01135
1.01079
1.00997
1.008
1.00507
1.0011
0.994629
0.987809
0.98256
0.97558
0.961774
0.915294
0.823165
0.740732
0.708322
0.713067
0.723684
0.729533
0.731914
0.73298
0.72702
0.716741
0.70334
0.689507
0.685828
0.680355
0.666196
0.646036
0.614309
0.578071
0.538803
0.507495
0.485425
0.470677
0.462961
0.46052
0.461906
0.466615
0.473573
0.482752
0.493752
0.505992
0.518674
0.532185
0.54688
0.562118
0.578077
0.594809
0.611679
0.629193
0.646203
0.660306
0.667287
1.00819
1.0194
1.03022
1.04059
1.05045
1.05996
1.07014
1.08164
1.09283
1.10315
1.1125
1.11894
1.1208
1.11701
1.1061
1.08778
1.06519
1.04568
1.0309
1.02092
1.02147
1.02376
1.03084
1.03872
1.04209
1.04266
1.03856
1.03211
1.02556
1.01915
1.01519
1.01512
1.01702
1.01971
1.02119
1.02062
1.01935
1.01757
1.01474
1.01022
1.00565
0.999482
0.990903
0.983482
0.97607
0.967005
0.94302
0.877068
0.778592
0.710948
0.693848
0.701977
0.709788
0.713126
0.713555
0.708438
0.698675
0.685961
0.670029
0.661417
0.657758
0.649709
0.634955
0.615989
0.588413
0.558237
0.528615
0.503646
0.485368
0.473826
0.467519
0.46588
0.467263
0.471018
0.477022
0.48495
0.493636
0.502742
0.512481
0.522583
0.53273
0.543021
0.55343
0.562726
0.571051
0.576218
0.57732
0.573871
1.00919
1.02022
1.03062
1.04073
1.05044
1.0598
1.06897
1.07866
1.08794
1.09592
1.10124
1.10057
1.09317
1.0784
1.05751
1.03154
1.00759
0.991795
0.984195
0.984937
0.9952
1.00584
1.01722
1.02852
1.03527
1.0386
1.03903
1.03587
1.0312
1.02687
1.02414
1.0249
1.02762
1.02954
1.03049
1.02951
1.02688
1.02382
1.02
1.01472
1.00889
1.00264
0.99343
0.983621
0.977307
0.968344
0.955526
0.916336
0.83073
0.735662
0.686486
0.680874
0.689264
0.694445
0.695079
0.691752
0.681839
0.670057
0.655717
0.642859
0.636457
0.629255
0.619206
0.605732
0.589747
0.568471
0.543737
0.520923
0.501253
0.486183
0.476206
0.471238
0.469774
0.471506
0.475194
0.479759
0.484223
0.489188
0.495418
0.502125
0.509178
0.51592
0.521974
0.527108
0.531668
0.533774
0.53622
0.533814
1.01257
1.02408
1.0339
1.04253
1.05026
1.05716
1.06387
1.07029
1.07409
1.07332
1.06787
1.05769
1.04261
1.02313
1.00329
0.986818
0.976417
0.971669
0.97267
0.979324
0.993585
1.0068
1.01915
1.03127
1.04044
1.04536
1.0481
1.04714
1.04365
1.04032
1.03809
1.03773
1.03856
1.03886
1.03799
1.03634
1.03261
1.02845
1.02356
1.01832
1.01197
1.00521
0.996308
0.98541
0.976213
0.969178
0.957433
0.937488
0.880145
0.780595
0.69828
0.666465
0.667608
0.674893
0.677452
0.67539
0.667504
0.655501
0.643081
0.628911
0.620038
0.612932
0.604619
0.593872
0.581438
0.56698
0.552037
0.534627
0.518002
0.503244
0.491842
0.483422
0.478055
0.474953
0.474257
0.475995
0.478599
0.48179
0.48584
0.489942
0.494695
0.499432
0.50367
0.507598
0.510969
0.513219
0.515059
0.516968
1.01357
1.02278
1.02995
1.0355
1.03995
1.04315
1.04473
1.04349
1.03858
1.02907
1.01539
1.00115
0.988995
0.978992
0.973186
0.971582
0.971308
0.973586
0.979462
0.988609
1.0024
1.01684
1.03006
1.0425
1.05328
1.05877
1.06182
1.06194
1.05873
1.05524
1.05285
1.05084
1.0493
1.04795
1.04498
1.04203
1.03771
1.03279
1.02706
1.02123
1.01529
1.00728
0.999118
0.988528
0.977597
0.969557
0.958851
0.943583
0.910299
0.83341
0.732728
0.668514
0.650325
0.654905
0.65987
0.659251
0.653371
0.64247
0.630758
0.617431
0.606237
0.599445
0.5916
0.584306
0.574733
0.564432
0.552415
0.539266
0.526274
0.513023
0.501716
0.492598
0.486519
0.48236
0.47944
0.478134
0.478199
0.479371
0.481293
0.48388
0.487396
0.49113
0.494568
0.498308
0.501334
0.505481
0.508813
0.513533
1.00246
1.007
1.00987
1.01122
1.01067
1.00834
1.00371
0.995929
0.986378
0.978927
0.974274
0.970826
0.969227
0.970066
0.971738
0.975343
0.981447
0.987039
0.994466
1.00352
1.01648
1.0315
1.04474
1.05645
1.06745
1.07336
1.07578
1.07617
1.07325
1.06944
1.06631
1.06339
1.06017
1.05727
1.0528
1.04789
1.0432
1.03767
1.03165
1.02485
1.01843
1.01071
1.0022
0.99284
0.979552
0.968427
0.961023
0.947128
0.926085
0.876014
0.781785
0.689696
0.644428
0.63692
0.64189
0.643655
0.639752
0.63063
0.619502
0.608829
0.596681
0.58715
0.58024
0.574241
0.566386
0.557446
0.547838
0.539006
0.529471
0.520281
0.511334
0.503217
0.496728
0.491482
0.486736
0.482742
0.480674
0.480031
0.480227
0.482112
0.484351
0.487796
0.490818
0.49486
0.498378
0.502971
0.507309
0.511558
0.970385
0.969225
0.966669
0.963663
0.960124
0.956244
0.953173
0.951948
0.952273
0.953946
0.957348
0.961926
0.967244
0.974138
0.981439
0.988286
0.996171
1.00387
1.01165
1.01998
1.03199
1.04538
1.05889
1.0695
1.08023
1.08663
1.08849
1.089
1.08658
1.08282
1.07875
1.07522
1.0709
1.06672
1.06126
1.0546
1.04935
1.04336
1.03718
1.0298
1.02236
1.01457
1.00661
0.996762
0.984676
0.970352
0.959571
0.950658
0.933872
0.90177
0.833708
0.731189
0.654551
0.62611
0.625218
0.628496
0.626808
0.619578
0.609126
0.598521
0.588344
0.580013
0.572995
0.564445
0.555968
0.548732
0.542485
0.535548
0.528677
0.522696
0.516104
0.509784
0.503281
0.497467
0.492604
0.488422
0.485911
0.483944
0.483583
0.484605
0.485589
0.488335
0.490709
0.494132
0.497279
0.501636
0.506183
0.511294
0.913852
0.911147
0.910324
0.911702
0.915107
0.919985
0.925755
0.932219
0.938932
0.945623
0.95331
0.962365
0.972162
0.982221
0.992758
1.00382
1.01211
1.01971
1.0273
1.03494
1.04577
1.0574
1.07131
1.0815
1.09179
1.09847
1.1002
1.10098
1.09944
1.09591
1.09115
1.08682
1.08146
1.07583
1.06933
1.06193
1.05577
1.0497
1.04316
1.03569
1.02752
1.01904
1.01063
1.001
0.989637
0.975648
0.961636
0.951527
0.93904
0.91652
0.872571
0.783636
0.683521
0.628192
0.612215
0.613884
0.614701
0.609851
0.600744
0.59052
0.580905
0.572055
0.565432
0.5597
0.552755
0.544398
0.536223
0.528911
0.523683
0.518774
0.51408
0.509673
0.505006
0.50141
0.498382
0.495393
0.492507
0.489355
0.488294
0.488081
0.487952
0.489655
0.491356
0.494332
0.497284
0.501124
0.505931
0.51086
0.864705
0.869164
0.87582
0.883976
0.893336
0.903784
0.914258
0.924432
0.934848
0.945844
0.957615
0.970178
0.983032
0.995863
1.0077
1.01845
1.02892
1.03584
1.04248
1.0492
1.05893
1.06962
1.08343
1.09365
1.10339
1.11012
1.11236
1.1134
1.11276
1.10923
1.10394
1.09822
1.09168
1.0843
1.07674
1.06935
1.06219
1.05629
1.04917
1.04196
1.03357
1.02475
1.01532
1.00569
0.994996
0.981815
0.966179
0.9534
0.943308
0.92706
0.895629
0.833564
0.729342
0.644312
0.608797
0.601496
0.602696
0.600645
0.593594
0.584238
0.574959
0.566574
0.559536
0.553196
0.546933
0.540934
0.534868
0.528656
0.523245
0.517997
0.51423
0.510954
0.507824
0.50493
0.501993
0.500178
0.496756
0.494621
0.492821
0.491805
0.490831
0.491487
0.492468
0.494799
0.497348
0.500852
0.505554
0.51016
0.842877
0.851557
0.861628
0.872716
0.884488
0.896975
0.91027
0.924079
0.938066
0.952232
0.966646
0.981465
0.996178
1.0103
1.02335
1.03457
1.04389
1.0527
1.059
1.06489
1.07315
1.08291
1.0965
1.10689
1.11666
1.12397
1.12701
1.12813
1.12785
1.12368
1.11728
1.1096
1.10159
1.09226
1.08385
1.0764
1.06876
1.06314
1.05573
1.04879
1.04046
1.03159
1.02152
1.01143
1.00051
0.988309
0.97385
0.95796
0.947086
0.933998
0.913617
0.869461
0.784243
0.677461
0.615867
0.594841
0.592228
0.591389
0.586718
0.578766
0.569963
0.561818
0.554966
0.549185
0.543759
0.537441
0.530457
0.525571
0.521024
0.516689
0.51352
0.510684
0.508373
0.506128
0.504865
0.503469
0.501106
0.4996
0.497125
0.495698
0.493742
0.493268
0.493315
0.494974
0.497149
0.50037
0.504854
0.508902
0.835684
0.845646
0.85653
0.86855
0.881922
0.896264
0.911546
0.927501
0.943735
0.96002
0.976346
0.992689
1.00874
1.024
1.03795
1.05016
1.06012
1.06815
1.07538
1.0816
1.08953
1.09921
1.11224
1.1229
1.1331
1.14126
1.14495
1.14626
1.14576
1.14047
1.13213
1.12166
1.11115
1.10025
1.09129
1.08369
1.07641
1.07103
1.06391
1.05682
1.04859
1.0397
1.02942
1.01873
1.00718
0.995081
0.981493
0.966242
0.951907
0.943046
0.924642
0.897082
0.834406
0.727653
0.634104
0.595756
0.584354
0.583446
0.580743
0.574409
0.566179
0.558021
0.550909
0.545138
0.540147
0.534291
0.528846
0.525498
0.521326
0.51762
0.514689
0.512255
0.510173
0.508435
0.50776
0.506016
0.504687
0.503247
0.500753
0.498728
0.496064
0.49455
0.493817
0.494809
0.496711
0.499675
0.503847
0.507165
0.835879
0.846934
0.85847
0.870861
0.88445
0.899155
0.914829
0.931373
0.948538
0.966011
0.983718
1.00166
1.01921
1.03589
1.05104
1.06389
1.07457
1.08349
1.09116
1.09886
1.10768
1.11714
1.13068
1.14232
1.15387
1.16279
1.16647
1.16755
1.16564
1.15795
1.14676
1.13318
1.11995
1.10862
1.09964
1.09235
1.0861
1.08065
1.07408
1.0665
1.05841
1.04949
1.03909
1.02782
1.01562
1.00323
0.989692
0.975307
0.95997
0.947581
0.938689
0.914324
0.874551
0.788011
0.671342
0.602018
0.580277
0.575639
0.57423
0.570692
0.56429
0.556769
0.549684
0.543973
0.538893
0.53301
0.528352
0.52525
0.521356
0.518052
0.515272
0.513102
0.510825
0.510273
0.509156
0.508195
0.507262
0.505914
0.503485
0.501103
0.49786
0.495439
0.494004
0.494203
0.495869
0.4986
0.502163
0.504676
0.841807
0.853292
0.864803
0.876782
0.889661
0.90357
0.9184
0.934227
0.951126
0.968906
0.987658
1.00723
1.02661
1.04502
1.06165
1.07581
1.08712
1.09668
1.10561
1.11461
1.12584
1.13835
1.15201
1.16502
1.17834
1.18706
1.18938
1.18891
1.18327
1.17111
1.15477
1.1388
1.12525
1.116
1.10856
1.10245
1.09725
1.09185
1.08576
1.07774
1.06978
1.06087
1.05045
1.03868
1.02612
1.01342
0.999646
0.98485
0.969331
0.954939
0.944527
0.93175
0.902052
0.842983
0.732695
0.623698
0.581293
0.569613
0.566838
0.565393
0.561244
0.555084
0.548692
0.543249
0.538394
0.533112
0.528967
0.526086
0.522776
0.519678
0.517279
0.51503
0.513009
0.512078
0.51077
0.510338
0.5091
0.508006
0.505384
0.502714
0.499
0.495853
0.493815
0.493295
0.494756
0.497155
0.499893
0.501538
0.849911
0.861668
0.872951
0.884259
0.896059
0.908629
0.922015
0.936447
0.952211
0.969446
0.988402
1.00916
1.03027
1.05072
1.06925
1.08466
1.09692
1.10715
1.11722
1.12839
1.14137
1.15656
1.17269
1.18769
1.20176
1.20813
1.20773
1.20333
1.19148
1.17499
1.15814
1.14269
1.13017
1.12216
1.11694
1.11249
1.10841
1.10339
1.09755
1.08972
1.08182
1.07281
1.0625
1.05072
1.03813
1.02519
1.01139
0.996228
0.979737
0.963722
0.950816
0.942154
0.921703
0.88308
0.798991
0.674046
0.590151
0.567709
0.560704
0.559733
0.558674
0.554674
0.549116
0.543695
0.539064
0.53458
0.530463
0.52749
0.524646
0.521468
0.519107
0.516491
0.514926
0.513154
0.512184
0.51153
0.510308
0.509045
0.506362
0.503346
0.499332
0.495673
0.493157
0.492001
0.493134
0.495033
0.497027
0.497813
0.85765
0.870036
0.881276
0.892104
0.90305
0.914405
0.926238
0.938888
0.952854
0.968806
0.98724
1.0083
1.03046
1.05239
1.07248
1.08948
1.10296
1.11409
1.12535
1.13846
1.15374
1.17144
1.18896
1.20429
1.21536
1.21706
1.21344
1.20356
1.18937
1.17299
1.15584
1.14162
1.13145
1.12575
1.1232
1.12055
1.11739
1.11324
1.1076
1.1006
1.09284
1.08379
1.07358
1.06212
1.04991
1.03687
1.02322
1.00833
0.99183
0.974629
0.958644
0.946527
0.936951
0.90617
0.852846
0.742365
0.620555
0.568857
0.555535
0.553113
0.553445
0.552492
0.549233
0.545011
0.54069
0.536653
0.532801
0.529449
0.526544
0.52351
0.520737
0.518515
0.516237
0.514337
0.513352
0.512193
0.510941
0.509354
0.506649
0.503376
0.499024
0.494951
0.491975
0.490231
0.49092
0.492241
0.493598
0.493803
0.863842
0.877475
0.889364
0.900235
0.910704
0.921112
0.931623
0.942594
0.954677
0.96887
0.985986
1.00605
1.02818
1.05071
1.07163
1.08996
1.10463
1.11739
1.13008
1.14524
1.16254
1.18128
1.19716
1.2096
1.21598
1.21259
1.20456
1.19305
1.17753
1.16126
1.14625
1.13538
1.12872
1.12571
1.1249
1.12374
1.12181
1.11893
1.11411
1.10801
1.10056
1.09165
1.08171
1.07048
1.05863
1.04571
1.03249
1.01842
1.00285
0.985329
0.967518
0.95218
0.940726
0.92416
0.887081
0.810041
0.680797
0.581388
0.555927
0.549085
0.549482
0.550077
0.548205
0.545067
0.541415
0.537932
0.534518
0.531267
0.528046
0.525086
0.522123
0.519592
0.517029
0.51531
0.513715
0.512411
0.510801
0.509056
0.506138
0.502693
0.498013
0.49344
0.490031
0.487708
0.487921
0.488716
0.489515
0.489431
0.868363
0.883744
0.896834
0.908175
0.918531
0.92836
0.937988
0.947714
0.958403
0.971062
0.986798
1.00567
1.02716
1.04951
1.07062
1.08954
1.10527
1.11918
1.13278
1.14833
1.16521
1.18142
1.19294
1.20092
1.201
1.19439
1.18439
1.1703
1.15453
1.14148
1.13156
1.12516
1.12204
1.12108
1.12132
1.12129
1.12024
)
;

boundaryField
{
    inlet
    {
        type            fixedValue;
        value           nonuniform 0();
    }
    outlet
    {
        type            zeroGradient;
    }
    bottom
    {
        type            symmetryPlane;
    }
    top
    {
        type            symmetryPlane;
    }
    obstacle
    {
        type            zeroGradient;
    }
    front
    {
        type            empty;
    }
    back
    {
        type            empty;
    }
    procBoundary4to3
    {
        type            processor;
        value           nonuniform List<scalar> 
27
(
0.990424
1.00975
1.03645
1.05603
1.07059
1.06322
1.04883
1.03019
1.01808
1.00926
1.00329
1.00055
0.995942
0.996949
0.99939
1.00264
0.996228
0.969963
0.917829
0.86329
0.835932
0.826377
0.825122
0.829963
0.837079
0.843609
0.84828
)
;
    }
    procBoundary4to5
    {
        type            processor;
        value           nonuniform List<scalar> 
27
(
1.62727
1.57402
1.52808
1.44836
1.35213
1.2569
1.16355
1.07325
0.984956
0.904595
0.804712
0.664131
0.568532
0.530966
0.5207
0.519818
0.51859
0.518386
0.517739
0.516297
0.514256
0.511708
0.508358
0.504477
0.500167
0.495676
0.490912
)
;
    }
    procBoundary4to11
    {
        type            processor;
        value           uniform 0.85097;
    }
    procBoundary4to12
    {
        type            processor;
        value           nonuniform List<scalar> 
89
(
1.11839
1.11494
1.10987
1.10298
1.09438
1.085
1.07414
1.06253
1.04958
1.03656
1.02319
1.00905
0.99271
0.974527
0.956948
0.943515
0.933058
0.907264
0.861247
0.758203
0.625338
0.558214
0.545293
0.544322
0.546663
0.54724
0.545558
0.542307
0.539048
0.535713
0.532437
0.529082
0.526007
0.523096
0.520159
0.517536
0.515595
0.513548
0.512017
0.510176
0.508293
0.504933
0.500866
0.495851
0.491049
0.487437
0.484686
0.4844
0.484611
0.484887
0.484867
0.870474
0.88796
0.902999
0.915669
0.926629
0.936437
0.945759
0.954891
0.964776
0.976584
0.991404
1.0095
1.03029
1.05205
1.07273
1.09127
1.10751
1.12138
1.13446
1.14785
1.16047
1.17078
1.17737
1.17932
1.1745
1.16446
1.15143
1.13794
1.12733
1.12033
1.11595
1.11336
1.11275
1.11324
1.1141
1.11445
1.11839
1.11375
)
;
    }
}


// ************************************************************************* //
