/*--------------------------------*- C++ -*----------------------------------*\
  =========                 |
  \\      /  F ield         | OpenFOAM: The Open Source CFD Toolbox
   \\    /   O peration     | Website:  https://openfoam.org
    \\  /    A nd           | Version:  7
     \\/     M anipulation  |
\*---------------------------------------------------------------------------*/
FoamFile
{
    version     2.0;
    format      ascii;
    class       volVectorField;
    location    "136";
    object      U;
}
// * * * * * * * * * * * * * * * * * * * * * * * * * * * * * * * * * * * * * //

dimensions      [0 1 -1 0 0 0 0];

internalField   nonuniform List<vector> 
26800
(
(-0.131034 0.0550753 9.2481e-20)
(-0.122927 -0.310021 1.4361e-19)
(-0.0778495 -0.688809 1.35209e-20)
(-0.10601 -0.734906 2.91246e-20)
(0.00661855 -0.530071 -1.42904e-19)
(0.254055 -0.0877105 3.43838e-20)
(0.462924 0.290903 7.33078e-20)
(0.575013 0.524707 5.99015e-20)
(0.630353 0.620181 3.76323e-20)
(0.636928 0.66028 9.71153e-22)
(0.548386 0.682902 4.47829e-21)
(0.505384 0.561993 -2.31225e-21)
(0.603181 0.211054 -5.56782e-22)
(0.724919 -0.156338 1.52305e-20)
(0.802533 -0.373915 3.45494e-21)
(0.858613 -0.469989 -2.24935e-20)
(0.819587 -0.540899 -2.23578e-20)
(0.763767 -0.568102 2.37958e-21)
(0.754324 -0.429 1.22405e-21)
(0.791341 -0.16218 3.25325e-21)
(-0.133561 0.0644569 -2.62211e-19)
(-0.108124 -0.311968 -4.53351e-19)
(-0.0542657 -0.68839 1.83246e-19)
(-0.0845783 -0.740414 -1.87737e-19)
(-0.00827421 -0.561449 1.48768e-19)
(0.218026 -0.132916 -4.69625e-21)
(0.420816 0.254851 -1.42317e-19)
(0.535299 0.502179 -1.08755e-19)
(0.603924 0.610281 -6.02259e-20)
(0.609845 0.670287 1.29586e-20)
(0.522155 0.698676 -1.90022e-20)
(0.504913 0.551374 -4.03345e-21)
(0.637669 0.179811 -5.50684e-21)
(0.769145 -0.183919 7.1562e-20)
(0.831556 -0.39504 4.8969e-21)
(0.886127 -0.470997 4.33689e-20)
(0.84418 -0.521314 -1.24293e-20)
(0.782449 -0.557354 -3.23741e-20)
(0.775959 -0.435123 6.81687e-21)
(0.798416 -0.179014 -8.46771e-21)
(-0.136153 0.0733805 -3.31798e-19)
(-0.0905095 -0.313747 1.47271e-19)
(-0.027303 -0.686952 1.18884e-19)
(-0.0570475 -0.74231 -8.25009e-20)
(-0.0153797 -0.589055 2.30874e-19)
(0.188348 -0.178186 -1.62862e-19)
(0.382261 0.216615 1.67772e-19)
(0.499942 0.475907 1.38273e-19)
(0.579443 0.597934 9.89478e-21)
(0.583006 0.679109 -1.7231e-21)
(0.497419 0.709887 2.59465e-20)
(0.511716 0.533787 4.23921e-20)
(0.677234 0.146153 -5.07586e-20)
(0.818983 -0.2067 -1.92402e-19)
(0.865542 -0.410621 2.34324e-20)
(0.912936 -0.470316 -4.9228e-20)
(0.869773 -0.498622 4.29445e-20)
(0.801492 -0.545171 2.67527e-20)
(0.793228 -0.440306 -4.89841e-20)
(0.80475 -0.191754 -1.06145e-20)
(-0.138823 0.0817026 7.07373e-19)
(-0.0701 -0.31537 -2.36393e-19)
(0.00276109 -0.684555 -4.87449e-19)
(-0.0240442 -0.740594 2.33652e-19)
(-0.0139393 -0.612211 -1.2721e-19)
(0.165032 -0.222722 3.33332e-19)
(0.348131 0.176485 1.20783e-19)
(0.4697 0.446241 5.65399e-20)
(0.557031 0.583583 -1.00865e-19)
(0.556308 0.686562 1.76854e-20)
(0.475429 0.715914 7.22636e-20)
(0.525234 0.509644 1.14509e-20)
(0.72008 0.110317 1.64016e-19)
(0.870403 -0.225525 2.31271e-19)
(0.904965 -0.419474 1.43566e-20)
(0.937547 -0.467658 3.03107e-20)
(0.895088 -0.473719 8.109e-21)
(0.822748 -0.530213 2.08633e-20)
(0.805025 -0.444517 2.35731e-20)
(0.808331 -0.201982 4.27094e-20)
(-0.141581 0.0892853 7.234e-21)
(-0.0469244 -0.316841 1.17867e-18)
(0.0356413 -0.681258 4.34138e-19)
(0.0137767 -0.735442 -4.7176e-19)
(-0.00315165 -0.630235 3.87746e-20)
(0.148203 -0.265695 -2.6165e-19)
(0.319627 0.134815 -3.48947e-19)
(0.445013 0.413686 -3.12144e-19)
(0.53664 0.56772 -3.0712e-21)
(0.529747 0.692341 -2.94348e-20)
(0.457457 0.716422 -3.45046e-19)
(0.547119 0.480207 4.35812e-20)
(0.767939 0.0737555 -6.40963e-20)
(0.920688 -0.24131 -2.59654e-19)
(0.948912 -0.420967 1.59516e-20)
(0.959652 -0.46228 4.97844e-20)
(0.918263 -0.448169 -4.84787e-20)
(0.847316 -0.510902 2.41513e-20)
(0.810379 -0.446445 1.81479e-20)
(0.805387 -0.211601 -2.51745e-20)
(-0.144438 0.0959915 -1.02769e-18)
(-0.0210182 -0.318154 -1.95796e-18)
(0.0710562 -0.677129 -1.1836e-18)
(0.0557196 -0.727184 1.1997e-18)
(0.0174762 -0.642498 2.93118e-19)
(0.137959 -0.306256 -2.1181e-20)
(0.297868 0.092048 3.10179e-19)
(0.425971 0.378918 1.16827e-19)
(0.518015 0.550816 1.98774e-19)
(0.50339 0.696042 -2.16369e-19)
(0.444671 0.710979 1.0013e-19)
(0.580259 0.446859 -3.7832e-20)
(0.823429 0.0389987 6.85191e-20)
(0.9692 -0.254109 3.03815e-19)
(0.994612 -0.415225 9.00956e-20)
(0.980116 -0.452996 2.39621e-21)
(0.937457 -0.423588 6.23412e-20)
(0.874321 -0.486152 -1.93221e-21)
(0.809429 -0.442997 1.13743e-20)
(0.790911 -0.222577 3.86215e-20)
(-0.147401 0.101688 9.49965e-19)
(0.00757459 -0.319311 2.20506e-18)
(0.108739 -0.672255 1.17323e-18)
(0.101034 -0.716218 -5.27985e-19)
(0.0478035 -0.648514 -4.14125e-19)
(0.134232 -0.343544 2.76508e-19)
(0.283416 0.0486726 -1.35641e-19)
(0.412261 0.342717 3.90638e-20)
(0.500755 0.53328 1.07162e-19)
(0.477131 0.697113 3.27244e-19)
(0.438508 0.698779 1.86744e-19)
(0.626064 0.410273 -3.13488e-19)
(0.886428 0.00833705 7.13281e-20)
(1.01652 -0.262999 -1.6897e-19)
(1.03824 -0.403113 -9.42087e-20)
(1.00024 -0.438583 -6.85593e-20)
(0.951668 -0.400855 7.48622e-20)
(0.901067 -0.45604 -1.6071e-19)
(0.804127 -0.43006 1.68621e-20)
(0.762738 -0.235427 -6.63487e-20)
(-0.150478 0.106248 1.70485e-18)
(0.0387977 -0.320328 5.05709e-19)
(0.148429 -0.666628 -1.22434e-18)
(0.148948 -0.703034 -3.6071e-19)
(0.0868954 -0.648024 4.80231e-19)
(0.136956 -0.376673 -4.19252e-19)
(0.275951 0.00520214 1.31149e-19)
(0.403136 0.305835 1.30626e-19)
(0.484334 0.515453 -4.06782e-19)
(0.45066 0.694752 -1.14533e-19)
(0.440934 0.678845 -3.6281e-20)
(0.683328 0.370765 2.03729e-19)
(0.95344 -0.0171663 -2.6913e-19)
(1.06305 -0.26668 9.79396e-20)
(1.07646 -0.385947 -1.50657e-19)
(1.02079 -0.418401 2.11056e-20)
(0.961339 -0.379792 -1.42063e-19)
(0.924616 -0.421703 1.00826e-19)
(0.797087 -0.404161 -5.66847e-20)
(0.725725 -0.247683 -4.22817e-21)
(-0.153673 0.109548 -9.57192e-19)
(0.0725736 -0.321165 -2.69368e-18)
(0.189849 -0.660132 1.42558e-18)
(0.198756 -0.688306 7.83344e-19)
(0.133113 -0.641084 -5.48987e-19)
(0.146496 -0.404663 2.02907e-19)
(0.274245 -0.0379243 -3.37803e-19)
(0.397453 0.26885 -2.25933e-19)
(0.467966 0.497561 2.07972e-19)
(0.423841 0.687859 -1.37299e-19)
(0.454444 0.650663 1.76877e-19)
(0.749811 0.329284 1.49659e-19)
(1.01995 -0.0373488 -3.02417e-19)
(1.10807 -0.26419 -2.07925e-19)
(1.10754 -0.365033 9.05949e-20)
(1.04122 -0.392849 1.36371e-19)
(0.968598 -0.359413 2.05672e-20)
(0.943049 -0.384961 -1.9462e-20)
(0.790556 -0.364954 3.96516e-21)
(0.692792 -0.25391 -1.03691e-20)
(-0.156982 0.111477 -1.24025e-18)
(0.108798 -0.321752 2.99243e-18)
(0.232733 -0.652749 -1.23246e-18)
(0.249831 -0.672601 2.05305e-19)
(0.184423 -0.628156 -6.37453e-19)
(0.163876 -0.426305 1.17727e-19)
(0.27646 -0.0802837 2.27979e-19)
(0.393732 0.232085 -7.30571e-21)
(0.450473 0.479585 -3.26154e-20)
(0.397269 0.675085 3.1606e-19)
(0.481908 0.614617 -8.81876e-20)
(0.823566 0.287712 -3.46683e-19)
(1.08264 -0.0521466 5.3986e-19)
(1.14953 -0.255352 1.92119e-20)
(1.13166 -0.341272 2.54413e-19)
(1.05966 -0.363487 -8.41653e-20)
(0.976672 -0.338183 9.78943e-20)
(0.955227 -0.348136 1.9839e-20)
(0.787367 -0.316572 -1.71824e-21)
(0.681961 -0.247269 -1.16609e-20)
(-0.16039 0.111931 5.97928e-19)
(0.147337 -0.32204 -4.27592e-18)
(0.276818 -0.64447 2.51805e-18)
(0.301643 -0.656215 -1.56109e-18)
(0.238732 -0.610181 7.59118e-19)
(0.190439 -0.440176 -7.23292e-20)
(0.280735 -0.121189 -1.12058e-20)
(0.390138 0.195592 -6.63927e-20)
(0.430257 0.461075 -5.84261e-20)
(0.372886 0.654982 -2.06223e-19)
(0.526069 0.571784 2.77791e-19)
(0.902133 0.248395 4.02442e-19)
(1.13947 -0.061245 9.61913e-20)
(1.18481 -0.240859 1.94763e-19)
(1.15001 -0.315073 -6.57662e-20)
(1.07401 -0.332651 2.98067e-20)
(0.988104 -0.314474 -3.57986e-21)
(0.96078 -0.313554 1.06811e-20)
(0.791329 -0.266114 6.05062e-20)
(0.707106 -0.222885 -2.18601e-20)
(-0.163867 0.110828 -1.26999e-18)
(0.188043 -0.322052 -2.28678e-19)
(0.321843 -0.635258 -2.05382e-18)
(0.353789 -0.639342 1.04061e-18)
(0.294167 -0.588477 -1.57612e-20)
(0.226949 -0.444959 -3.86504e-19)
(0.286094 -0.15934 -1.24866e-19)
(0.384487 0.159245 1.4759e-19)
(0.405531 0.440946 5.9751e-20)
(0.354802 0.626255 9.73311e-20)
(0.58844 0.52376 -1.16276e-19)
(0.981604 0.213122 -1.71518e-19)
(1.18867 -0.064409 -2.3197e-19)
(1.21184 -0.221982 -2.55702e-19)
(1.16357 -0.286734 -1.68147e-19)
(1.0835 -0.302455 -1.18006e-19)
(1.0026 -0.287563 -4.89532e-20)
(0.961167 -0.282556 1.52839e-20)
(0.80548 -0.221688 -2.91107e-20)
(0.76394 -0.184438 -2.12076e-20)
(-0.167371 0.108118 1.24766e-18)
(0.230746 -0.321843 9.64209e-19)
(0.367538 -0.625078 2.57155e-18)
(0.405959 -0.622081 6.33877e-19)
(0.349241 -0.56449 -2.43311e-19)
(0.272728 -0.439987 4.70602e-19)
(0.293378 -0.192383 1.36949e-19)
(0.374641 0.123069 -1.29105e-19)
(0.375176 0.417374 1.02476e-19)
(0.350149 0.588461 -1.38348e-20)
(0.668082 0.472659 -1.82966e-19)
(1.0572 0.18301 1.23136e-19)
(1.22831 -0.0618996 1.63879e-19)
(1.22995 -0.200089 1.81363e-19)
(1.17234 -0.257024 1.36567e-19)
(1.08942 -0.273752 8.16961e-20)
(1.01664 -0.258662 4.86691e-20)
(0.960209 -0.254456 -5.05528e-20)
(0.829956 -0.188112 2.41408e-20)
(0.82644 -0.14589 -3.6957e-20)
(-0.170838 0.103762 -1.72724e-19)
(0.27524 -0.321462 2.69937e-18)
(0.413631 -0.613913 -1.76087e-18)
(0.457879 -0.604447 -1.94053e-18)
(0.402954 -0.539551 -1.88445e-19)
(0.325502 -0.42574 -4.11066e-19)
(0.305513 -0.216834 -1.42443e-19)
(0.359831 0.087807 6.213e-20)
(0.34089 0.388206 1.96358e-20)
(0.368892 0.542804 -1.69038e-19)
(0.760832 0.421396 6.87961e-20)
(1.1243 0.158942 -9.55122e-20)
(1.25663 -0.0546072 -3.90312e-19)
(1.23961 -0.17634 -1.92095e-19)
(1.176 -0.227315 -9.14521e-20)
(1.09378 -0.246068 -8.84228e-20)
(1.02646 -0.230513 1.01138e-19)
(0.962753 -0.227517 4.6402e-20)
(0.8615 -0.163018 -2.26456e-20)
(0.867957 -0.119054 2.33808e-20)
(-0.17418 0.0977127 8.91665e-19)
(0.321224 -0.32085 -8.46097e-19)
(0.459845 -0.601767 -6.06999e-19)
(0.509264 -0.586418 8.18526e-19)
(0.454814 -0.514669 2.97598e-19)
(0.382046 -0.404006 4.44514e-20)
(0.326514 -0.228899 6.7754e-21)
(0.342977 0.0556773 2.51241e-20)
(0.310868 0.352464 7.07391e-20)
(0.420985 0.492489 -9.34683e-20)
(0.859359 0.373292 -3.21128e-20)
(1.17895 0.14123 1.9636e-19)
(1.27285 -0.0438677 6.19002e-20)
(1.24175 -0.151818 1.27814e-19)
(1.17497 -0.19893 -1.93985e-20)
(1.09717 -0.218952 -9.58195e-20)
(1.03182 -0.204965 -5.02244e-20)
(0.970921 -0.201711 1.91642e-20)
(0.892549 -0.141841 -2.05084e-21)
(0.888421 -0.103506 -7.7014e-21)
(-0.177194 0.0899243 -1.86194e-19)
(0.368494 -0.320047 1.44561e-18)
(0.505905 -0.588665 9.91892e-19)
(0.559806 -0.567985 -4.4642e-19)
(0.504756 -0.490423 -1.01213e-19)
(0.439139 -0.377565 -3.46104e-20)
(0.359559 -0.226224 9.48541e-20)
(0.332658 0.0307262 -4.50854e-20)
(0.302386 0.312817 -1.16871e-20)
(0.509978 0.442157 -4.94447e-21)
(0.954236 0.33103 -7.10982e-20)
(1.21811 0.129362 1.23916e-19)
(1.27748 -0.0311382 2.97361e-20)
(1.23738 -0.127722 4.34579e-20)
(1.17059 -0.172489 1.17244e-19)
(1.09877 -0.192993 2.07688e-19)
(1.03552 -0.18194 4.76587e-20)
(0.981757 -0.177961 -5.40768e-20)
(0.915699 -0.124136 2.05589e-20)
(0.905378 -0.0912555 2.88234e-21)
(-0.179676 0.080509 -2.39204e-18)
(0.41681 -0.319121 -2.5155e-19)
(0.551553 -0.574647 5.07711e-19)
(0.609184 -0.549183 6.40538e-19)
(0.552928 -0.466987 3.57292e-19)
(0.494315 -0.349521 3.78802e-19)
(0.405188 -0.209633 -1.00225e-19)
(0.341903 0.017491 -4.19679e-20)
(0.336353 0.276586 -1.0898e-21)
(0.626746 0.39649 2.8056e-20)
(1.03564 0.296094 2.60234e-20)
(1.24028 0.122083 -4.15132e-19)
(1.27208 -0.0178323 -6.60319e-20)
(1.22788 -0.105152 -1.67043e-19)
(1.16406 -0.148173 2.08891e-21)
(1.09839 -0.169029 -2.92144e-19)
(1.03938 -0.160887 3.0711e-20)
(0.991295 -0.15645 3.43577e-20)
(0.93251 -0.110284 -9.63809e-21)
(0.925126 -0.0789659 7.45907e-21)
(-0.181358 0.0696288 1.78092e-18)
(0.465922 -0.318136 -2.71349e-19)
(0.596551 -0.559761 -2.82077e-18)
(0.657096 -0.530088 4.97157e-19)
(0.59944 -0.444281 5.46018e-19)
(0.546217 -0.322481 -2.39096e-19)
(0.460538 -0.183613 1.44988e-19)
(0.381652 0.0181459 2.3997e-20)
(0.421293 0.251755 1.20279e-20)
(0.750741 0.358049 2.60985e-20)
(1.09571 0.268087 1.0201e-20)
(1.24611 0.117628 1.24989e-19)
(1.25893 -0.00523837 1.81088e-19)
(1.21497 -0.0847894 2.25809e-20)
(1.15611 -0.12622 -4.08994e-20)
(1.09684 -0.14722 1.82769e-19)
(1.04275 -0.14177 2.52678e-20)
(0.998966 -0.137253 -1.07578e-20)
(0.947904 -0.0984493 4.58005e-22)
(0.942355 -0.0690781 -4.58947e-21)
(-0.18189 0.0574991 2.15718e-19)
(0.515583 -0.317143 -1.50902e-18)
(0.640688 -0.544063 3.25748e-18)
(0.703288 -0.510801 -3.23023e-19)
(0.644222 -0.422168 -1.1821e-18)
(0.59456 -0.297937 3.03399e-19)
(0.520267 -0.154819 -7.31886e-20)
(0.451974 0.0303589 -1.9271e-20)
(0.540803 0.239741 2.45792e-20)
(0.859066 0.32628 -2.55592e-20)
(1.13103 0.244929 -1.80306e-19)
(1.2385 0.114198 9.26317e-20)
(1.24076 0.00570214 -6.46029e-20)
(1.20024 -0.0669366 1.52054e-19)
(1.14736 -0.106759 1.50428e-19)
(1.09461 -0.127471 5.16027e-20)
(1.04514 -0.124626 -7.1937e-20)
(1.00576 -0.120253 3.56364e-20)
(0.961951 -0.0876006 1.80201e-20)
(0.955652 -0.0616938 -4.51197e-22)
(-0.18084 0.0444152 -1.14363e-18)
(0.565557 -0.316174 1.91981e-18)
(0.683781 -0.52761 -2.88159e-20)
(0.747554 -0.491417 -1.33758e-19)
(0.687049 -0.4006 -4.84471e-19)
(0.639703 -0.276213 -3.40179e-19)
(0.5791 -0.129116 1.99415e-21)
(0.539566 0.0472814 -8.87524e-20)
(0.662083 0.23345 4.30416e-20)
(0.936734 0.297984 2.62934e-20)
(1.14369 0.224078 9.22342e-20)
(1.22185 0.110458 -1.63345e-19)
(1.22024 0.0145475 -1.08144e-19)
(1.18493 -0.0516539 6.32351e-20)
(1.1384 -0.0896588 -1.09607e-19)
(1.09177 -0.109803 -1.49869e-19)
(1.04689 -0.109227 4.83954e-20)
(1.01177 -0.105176 -5.14212e-20)
(0.973547 -0.0779977 -2.29888e-20)
(0.967165 -0.0553848 -1.65155e-21)
(-0.177688 0.0307666 1.29563e-20)
(0.615627 -0.315234 -2.2697e-18)
(0.725681 -0.510461 -4.58532e-19)
(0.789733 -0.47202 4.01068e-19)
(0.727676 -0.379619 1.21516e-18)
(0.682069 -0.256972 -3.25896e-19)
(0.633945 -0.109309 5.63782e-20)
(0.625569 0.0606897 1.03529e-19)
(0.758491 0.223712 -1.65814e-20)
(0.981778 0.269641 -5.055e-20)
(1.14019 0.203888 6.26061e-20)
(1.20084 0.105819 -7.84727e-20)
(1.19949 0.0212872 -9.39938e-21)
(1.16989 -0.0387922 -9.90958e-20)
(1.12958 -0.0747208 5.99046e-20)
(1.08847 -0.0941253 -5.85089e-21)
(1.04814 -0.095404 -3.53502e-20)
(1.01683 -0.0918155 1.78757e-20)
(0.983269 -0.0695009 1.71667e-20)
(0.977167 -0.0498619 -7.42106e-21)
(-0.171835 0.0170441 -9.19242e-19)
(0.665589 -0.314297 7.27105e-19)
(0.76627 -0.492671 -4.72634e-18)
(0.829699 -0.452679 8.75742e-19)
(0.765935 -0.359291 -9.25966e-19)
(0.721793 -0.239784 4.04354e-19)
(0.683722 -0.0952136 3.77847e-20)
(0.697057 0.0659184 6.10007e-20)
(0.823011 0.206612 -4.49031e-20)
(1.00249 0.240399 4.48554e-20)
(1.12831 0.184126 8.9908e-20)
(1.17913 0.100336 -3.3667e-20)
(1.17977 0.0261681 1.64406e-19)
(1.15564 -0.028075 -1.15863e-19)
(1.12108 -0.0617488 1.50157e-20)
(1.08491 -0.0802642 4.92572e-20)
(1.04895 -0.0830484 -3.51429e-20)
(1.02104 -0.0799823 3.91343e-20)
(0.991456 -0.0618627 2.59906e-21)
(0.985503 -0.0449549 1.26827e-20)
(-0.162608 0.00384219 4.10608e-18)
(0.715246 -0.313293 2.22018e-18)
(0.805465 -0.474288 3.34596e-18)
(0.867355 -0.433455 -2.27584e-19)
(0.801755 -0.339655 -2.2942e-19)
(0.758773 -0.224347 -5.21815e-19)
(0.728142 -0.0853548 -5.58311e-20)
(0.751675 0.063542 -2.90693e-20)
(0.863364 0.184334 -2.0424e-21)
(1.00989 0.211725 -1.16247e-20)
(1.11394 0.165322 -4.4372e-20)
(1.15879 0.0943364 -5.9261e-20)
(1.1617 0.0295289 -1.66277e-19)
(1.1424 -0.0192084 -2.70874e-20)
(1.11298 -0.0505253 -4.35777e-20)
(1.08121 -0.068066 5.37878e-20)
(1.04943 -0.0720027 -4.79375e-20)
(1.0244 -0.0694979 -4.46467e-20)
(0.998248 -0.0550401 -2.65066e-20)
(0.992548 -0.0404227 -9.92572e-22)
(-0.149283 -0.00814688 -3.95183e-18)
(0.764407 -0.312111 -4.80804e-19)
(0.843206 -0.455354 -2.77335e-18)
(0.902641 -0.4144 -2.36926e-18)
(0.835127 -0.320712 -6.2687e-19)
(0.792886 -0.210432 7.98334e-19)
(0.767301 -0.0783371 -6.87584e-20)
(0.793419 0.0567636 -8.81347e-20)
(0.889998 0.160943 -3.31706e-20)
(1.01185 0.185248 -2.56641e-23)
(1.10012 0.147954 6.11368e-21)
(1.1406 0.0881286 9.37396e-20)
(1.14546 0.0316919 1.18322e-19)
(1.13026 -0.0119188 -2.22496e-20)
(1.10535 -0.0408406 3.64062e-20)
(1.07749 -0.0573657 -1.54991e-20)
(1.0496 -0.0621358 7.43958e-20)
(1.02693 -0.0602268 2.50255e-20)
(1.00398 -0.0488876 -3.21491e-21)
(0.998416 -0.0362183 -5.05849e-21)
(-0.131122 -0.0181515 1.90126e-18)
(0.812867 -0.3106 -9.93945e-19)
(0.879453 -0.435901 5.22356e-19)
(0.935528 -0.395558 2.29864e-18)
(0.866075 -0.302443 1.3069e-19)
(0.82412 -0.19782 -3.76827e-19)
(0.801675 -0.0731761 -7.2168e-20)
(0.82676 0.0483831 3.15335e-20)
(0.909617 0.139036 3.94857e-20)
(1.0121 0.161656 -1.13686e-21)
(1.08792 0.132188 1.14375e-21)
(1.12469 0.0819328 -6.13967e-20)
(1.131 0.0329279 -8.89057e-20)
(1.11924 -0.0059576 5.35685e-20)
(1.09821 -0.032505 -3.2705e-20)
(1.07385 -0.0479955 8.19994e-20)
(1.04945 -0.0533396 -6.36599e-21)
(1.02878 -0.0520278 6.26241e-22)
(1.00887 -0.0432879 4.00299e-20)
(1.00322 -0.0323136 -2.72742e-21)
(-0.107428 -0.025358 1.75473e-18)
(0.860401 -0.308568 6.81999e-19)
(0.914177 -0.415957 2.48566e-18)
(0.966015 -0.376967 -1.59112e-18)
(0.894656 -0.284816 -2.46058e-20)
(0.852584 -0.186297 -1.54925e-19)
(0.83191 -0.0692078 8.14764e-20)
(0.854471 0.0398815 1.59378e-20)
(0.925306 0.119494 -7.99949e-21)
(1.01201 0.140945 -9.90633e-21)
(1.07751 0.118004 -2.06629e-20)
(1.11094 0.0758992 7.82155e-20)
(1.11824 0.0334605 -4.7442e-20)
(1.10928 -0.00110809 -1.53848e-19)
(1.09158 -0.0253402 -1.71157e-20)
(1.07033 -0.0398092 1.96501e-20)
(1.04902 -0.0455037 -2.81389e-20)
(1.03009 -0.0447621 -1.10991e-20)
(1.01305 -0.0381759 1.39353e-20)
(1.00709 -0.0286937 3.19018e-21)
(-0.077624 -0.0289733 -5.02756e-18)
(0.90675 -0.305802 -4.79314e-18)
(0.947352 -0.395549 1.53984e-18)
(0.99413 -0.358657 1.60598e-18)
(0.920948 -0.267794 -1.26467e-19)
(0.878458 -0.17567 2.49019e-19)
(0.858616 -0.0659821 1.85441e-19)
(0.878063 0.031877 1.19781e-20)
(0.938445 0.102391 -8.17784e-21)
(1.01205 0.12287 2.71181e-20)
(1.06882 0.10532 5.54205e-20)
(1.09915 0.0701316 1.70571e-20)
(1.10702 0.0334707 2.04278e-20)
(1.10033 0.00281879 1.74428e-19)
(1.08544 -0.0191876 -5.55401e-20)
(1.06697 -0.0326729 -9.70071e-20)
(1.04831 -0.0385163 4.67134e-20)
(1.03102 -0.0383164 4.7119e-20)
(1.0166 -0.0334998 -1.9514e-20)
(1.01006 -0.0253168 -1.61931e-20)
(-0.0413463 -0.0283157 1.71133e-18)
(0.951618 -0.30208 4.0858e-18)
(0.978947 -0.374706 1.33906e-18)
(1.01992 -0.340653 -2.55626e-18)
(0.945053 -0.251338 1.93962e-19)
(0.901946 -0.165777 6.07546e-20)
(0.882312 -0.0631901 -1.44809e-19)
(0.898466 0.0246233 -8.97398e-20)
(0.949774 0.0875627 7.28581e-21)
(1.01241 0.107152 -2.80257e-20)
(1.06167 0.0940302 -8.2461e-20)
(1.08909 0.0646983 1.4716e-19)
(1.09719 0.0331033 1.05124e-20)
(1.09231 0.00598746 -1.6526e-19)
(1.07981 -0.0139116 9.11421e-21)
(1.06379 -0.0264576 4.17497e-20)
(1.04738 -0.032271 -9.87489e-20)
(1.03171 -0.0326203 -2.98651e-20)
(1.01949 -0.0291886 1.31875e-20)
(1.01214 -0.022091 2.82158e-20)
(0.00144345 -0.0229342 1.92322e-18)
(0.99467 -0.297199 -1.42301e-18)
(1.00892 -0.353467 -3.04636e-18)
(1.04345 -0.322977 -8.32842e-19)
(0.967082 -0.235411 1.61423e-19)
(0.923261 -0.156486 -1.21045e-19)
(0.903429 -0.0606173 2.31485e-19)
(0.916326 0.0182206 -1.22332e-20)
(0.95975 0.0747903 -2.41227e-20)
(1.0131 0.0935181 5.81325e-20)
(1.05585 0.0840225 1.07624e-20)
(1.08054 0.0596407 -9.76075e-20)
(1.08861 0.032474 1.15704e-19)
(1.08515 0.00853777 1.66588e-19)
(1.07465 -0.00939417 8.7681e-20)
(1.06077 -0.0210369 -5.59471e-20)
(1.04629 -0.0266901 4.69174e-20)
(1.03224 -0.0276184 -1.42728e-20)
(1.02171 -0.0250935 1.19902e-20)
(1.01345 -0.019039 -1.46815e-21)
(0.0503603 -0.0127395 -2.39743e-18)
(1.03554 -0.291004 4.95835e-18)
(1.03723 -0.331886 6.08138e-19)
(1.0648 -0.30565 1.30645e-18)
(0.987156 -0.219976 5.73352e-19)
(0.942607 -0.147688 -3.43024e-19)
(0.922324 -0.0581153 -2.59834e-19)
(0.932113 0.012691 3.4322e-20)
(0.96867 0.0638508 2.80467e-20)
(1.01411 0.0817212 -1.22665e-20)
(1.05117 0.0751857 4.0602e-20)
(1.0733 0.0549809 6.5679e-20)
(1.08114 0.0316753 -9.16883e-20)
(1.07877 0.0105868 -6.43734e-21)
(1.06994 -0.00552948 -9.84248e-21)
(1.05793 -0.016294 -3.97105e-20)
(1.04511 -0.0217292 -1.61554e-20)
(1.03264 -0.0232027 -3.31217e-20)
(1.02325 -0.0210859 2.22901e-20)
(1.01438 -0.0164743 -2.07759e-20)
(0.104535 0.00187957 2.46965e-18)
(1.07386 -0.283417 -5.17891e-18)
(1.06381 -0.310037 -4.48185e-19)
(1.08408 -0.288692 -1.26743e-18)
(1.0054 -0.205001 -5.94319e-19)
(0.960175 -0.139293 -2.7678e-19)
(0.939289 -0.0555821 -3.56261e-20)
(0.946177 0.00801415 9.70513e-20)
(0.976732 0.054535 -3.85857e-20)
(1.01539 0.0715403 -6.76545e-20)
(1.04745 0.0674138 6.49954e-20)
(1.06719 0.0507266 -6.38436e-20)
(1.07464 0.0307804 2.04209e-20)
(1.07311 0.0122322 3.09904e-20)
(1.06567 -0.00222065 -5.48468e-21)
(1.05526 -0.012134 4.30519e-20)
(1.04389 -0.0173458 8.12602e-21)
(1.03287 -0.0192041 2.55402e-20)
(1.02418 -0.0173127 -1.70497e-20)
(1.01542 -0.0148183 2.65293e-20)
(0.162632 0.0200005 -2.0106e-18)
(1.1093 -0.274463 1.49238e-18)
(1.0886 -0.288012 2.93811e-18)
(1.10139 -0.272121 7.06758e-19)
(1.02193 -0.190456 -9.33123e-20)
(0.976141 -0.131232 7.77555e-19)
(0.954567 -0.0529493 8.77043e-20)
(0.958785 0.00414712 -3.46483e-20)
(0.984078 0.0466534 6.4471e-20)
(1.01688 0.0627815 -9.96141e-21)
(1.04454 0.0606079 -2.159e-20)
(1.06205 0.0468763 1.11808e-19)
(1.06901 0.029847 -9.93244e-20)
(1.06808 0.0135555 -1.68598e-19)
(1.06179 0.000619172 -7.0035e-20)
(1.05276 -0.00848126 5.16555e-20)
(1.04268 -0.0134677 8.70678e-21)
(1.0329 -0.0155277 1.77742e-20)
(1.02474 -0.0141682 -1.41099e-20)
(1.01778 -0.0126069 -2.75282e-20)
(0.222965 0.0402187 -1.62513e-18)
(1.14161 -0.264271 -4.01176e-18)
(1.11154 -0.265923 -5.18672e-18)
(1.11685 -0.255958 2.55714e-18)
(1.03687 -0.176313 1.10162e-18)
(0.990662 -0.123445 -7.96811e-19)
(0.968362 -0.0501727 2.96756e-19)
(0.970143 0.00103622 4.94409e-20)
(0.990808 0.0400384 -1.19034e-19)
(1.01853 0.0552756 9.65241e-20)
(1.04229 0.0546769 4.64985e-20)
(1.05773 0.0434207 -1.6931e-19)
(1.06412 0.0289193 1.18905e-19)
(1.06363 0.0146243 1.7244e-19)
(1.05829 0.00306463 -2.06236e-20)
(1.05042 -0.00526935 3.50297e-20)
(1.04147 -0.0100186 4.82098e-20)
(1.03275 -0.0122361 8.24092e-21)
(1.02542 -0.0112971 -5.69389e-21)
(1.01873 -0.010372 2.94995e-20)
(0.283722 0.0608316 3.26706e-19)
(1.17064 -0.253065 -2.73499e-18)
(1.1326 -0.243893 -2.61263e-18)
(1.13061 -0.240218 -2.86816e-18)
(1.05034 -0.16255 -1.05593e-18)
(1.00388 -0.115888 3.47434e-19)
(0.98084 -0.047226 -3.8888e-19)
(0.980416 -0.00137717 8.01215e-20)
(0.996997 0.0345422 -1.94096e-20)
(1.0203 0.0488749 -1.85752e-19)
(1.04059 0.0495377 -8.08009e-20)
(1.05413 0.0403467 -2.08481e-20)
(1.0599 0.0280315 -1.23225e-20)
(1.05969 0.0154958 -4.90822e-20)
(1.05512 0.00518117 8.16433e-20)
(1.04824 -0.0024372 -8.68139e-20)
(1.04028 -0.00695707 -5.33714e-20)
(1.03254 -0.00924093 -4.97106e-20)
(1.02565 -0.00868245 2.026e-20)
(1.01995 -0.00851284 5.15637e-21)
(0.343238 0.0801322 2.90441e-18)
(1.19642 -0.241124 3.00761e-18)
(1.15178 -0.222044 1.54323e-18)
(1.14278 -0.224915 1.63173e-18)
(1.06245 -0.149149 8.97411e-21)
(1.01591 -0.108523 2.28342e-19)
(0.992144 -0.0440956 1.8697e-19)
(0.989735 -0.00315204 -2.18993e-19)
(1.0027 0.0300351 1.96628e-20)
(1.02214 0.043451 2.30951e-20)
(1.03935 0.0451145 3.32923e-20)
(1.05113 0.0376376 9.16098e-20)
(1.05625 0.0272089 4.85921e-20)
(1.05621 0.0162171 2.96401e-20)
(1.05226 0.00702474 -1.08582e-19)
(1.04622 6.3938e-05 2.25606e-21)
(1.03913 -0.00421934 1.87873e-20)
(1.03216 -0.00652322 8.8034e-21)
(1.02597 -0.00640514 -1.05781e-20)
(1.02065 -0.00638875 2.08195e-23)
(0.400248 0.0967354 -1.70317e-18)
(1.2191 -0.228735 1.00258e-18)
(1.16908 -0.200491 -4.20681e-19)
(1.15352 -0.210054 8.34037e-20)
(1.0733 -0.136093 -1.55274e-19)
(1.02687 -0.101319 -1.13066e-19)
(1.00239 -0.0407769 -3.10927e-19)
(0.998205 -0.00434578 -6.82255e-20)
(1.00796 0.0264037 -4.38283e-20)
(1.02402 0.0388918 7.48093e-20)
(1.03847 0.0413387 -1.28355e-21)
(1.04863 0.0352751 7.16417e-20)
(1.0531 0.0264703 -7.03436e-20)
(1.05314 0.0168277 8.95028e-20)
(1.04968 0.00864224 -2.66682e-20)
(1.04435 0.0022835 1.0894e-19)
(1.038 -0.00176493 -7.79089e-20)
(1.03177 -0.00408581 3.31526e-22)
(1.02602 -0.00420233 -5.24521e-20)
(1.02121 -0.00467964 -3.75531e-21)
(0.454038 0.109829 3.75822e-18)
(1.23895 -0.216154 4.81478e-19)
(1.18456 -0.17933 2.63327e-18)
(1.16294 -0.195637 -5.49627e-20)
(1.083 -0.123369 8.07187e-19)
(1.03684 -0.0942534 -6.35487e-19)
(1.01169 -0.0372719 3.11233e-19)
(1.00591 -0.00501295 -1.57352e-19)
(1.01282 0.0235483 8.06119e-20)
(1.02589 0.0350991 1.4657e-19)
(1.03789 0.0381481 -1.75251e-20)
(1.04657 0.0332394 -8.513e-20)
(1.05038 0.0258286 -1.1593e-19)
(1.05043 0.0173595 2.14914e-20)
(1.04735 0.0100746 -2.24773e-20)
(1.04262 0.00426132 -5.08031e-20)
(1.03691 0.000437477 -2.24911e-20)
(1.03128 -0.00183507 3.12721e-20)
(1.02602 -0.00230185 9.65851e-21)
(1.02162 -0.00284431 4.98537e-21)
(0.504437 0.119263 5.27994e-19)
(1.25633 -0.203573 1.31702e-18)
(1.19829 -0.158631 -3.03192e-18)
(1.17118 -0.181658 1.81817e-19)
(1.09165 -0.110965 -1.27272e-18)
(1.04592 -0.0873066 1.17665e-19)
(1.02011 -0.0335874 4.0418e-19)
(1.01293 -0.0052047 1.51081e-21)
(1.0173 0.0213813 2.04545e-19)
(1.02775 0.0319869 -3.70027e-20)
(1.03755 0.0354864 -4.26194e-20)
(1.04487 0.0315108 6.64604e-20)
(1.04803 0.0252925 -3.28034e-20)
(1.04803 0.0178392 3.62242e-20)
(1.04525 0.0113557 2.04399e-20)
(1.04102 0.00603204 -4.32958e-20)
(1.03586 0.00243742 5.97469e-20)
(1.03076 0.000175286 -5.80872e-20)
(1.02591 -0.000452273 3.03973e-20)
(1.02181 -0.00127049 -2.37389e-20)
(0.551688 0.12546 -3.3998e-18)
(1.2716 -0.191113 -7.4899e-19)
(1.21037 -0.138443 4.36511e-19)
(1.17837 -0.168108 -7.98721e-19)
(1.09933 -0.0988667 1.15781e-18)
(1.05417 -0.0804642 8.28524e-19)
(1.02774 -0.0297332 -2.10297e-19)
(1.01933 -0.00496858 1.95233e-19)
(1.02142 0.0198254 -2.74917e-19)
(1.02956 0.0294796 2.42549e-20)
(1.03739 0.0333026 1.10703e-19)
(1.04347 0.0300691 3.80036e-20)
(1.04599 0.0248673 4.01842e-20)
(1.04591 0.0182878 6.15771e-20)
(1.04334 0.0125144 -1.20522e-19)
(1.03953 0.00763053 4.92921e-20)
(1.03484 0.00424259 -3.50467e-20)
(1.03021 0.00204804 6.81114e-20)
(1.02571 0.0011761 -3.98626e-21)
(1.02194 0.000308158 7.65748e-21)
(0.59625 0.129199 -8.56443e-20)
(1.2851 -0.178833 2.09152e-18)
(1.2209 -0.11879 -1.46569e-18)
(1.1846 -0.154973 -3.32196e-19)
(1.10613 -0.0870626 -2.56615e-19)
(1.06165 -0.0737149 -1.84683e-19)
(1.03464 -0.0257214 -6.0847e-19)
(1.02514 -0.00434851 -3.95221e-20)
(1.02521 0.0188122 -2.85548e-20)
(1.03131 0.0275106 -2.00904e-19)
(1.03736 0.0315506 -1.05986e-19)
(1.04231 0.0288948 -5.70005e-20)
(1.04423 0.0245551 1.67987e-20)
(1.04403 0.0187224 -7.94689e-20)
(1.04162 0.0135758 6.52039e-20)
(1.03815 0.00907905 2.22488e-20)
(1.03387 0.00590094 6.71728e-21)
(1.02962 0.00373361 -9.72196e-21)
(1.02547 0.00273846 9.47637e-21)
(1.02192 0.00173969 2.06369e-20)
(0.638619 0.131382 1.08961e-18)
(1.29713 -0.166744 -1.70046e-18)
(1.22999 -0.0996826 4.52034e-20)
(1.18999 -0.142234 1.45138e-19)
(1.11211 -0.0755401 -8.12215e-19)
(1.06843 -0.0670498 -1.74853e-19)
(1.04086 -0.0215651 7.96116e-20)
(1.03042 -0.00338484 5.5382e-20)
(1.02868 0.018281 8.04116e-20)
(1.03298 0.0260207 -8.00195e-20)
(1.03744 0.0301884 -9.65234e-20)
(1.04136 0.0279686 -1.08739e-19)
(1.0427 0.0243562 7.27109e-20)
(1.04236 0.0191565 -4.30407e-20)
(1.04005 0.0145594 6.32888e-20)
(1.03687 0.0104065 2.87148e-20)
(1.03292 0.0074134 -4.08045e-20)
(1.02903 0.00530629 -3.12589e-21)
(1.02514 0.00415312 8.21573e-21)
(1.02185 0.00312042 5.22107e-21)
(0.679214 0.132848 -2.79408e-19)
(1.30793 -0.154823 1.28402e-18)
(1.23774 -0.0811162 9.21367e-19)
(1.1946 -0.129866 -7.93242e-19)
(1.11734 -0.064287 1.50938e-18)
(1.07454 -0.0604624 -1.29729e-19)
(1.04645 -0.0172785 5.77281e-19)
(1.03521 -0.00211457 -8.79313e-20)
(1.03184 0.018178 2.76024e-20)
(1.03456 0.0249576 2.00395e-19)
(1.03759 0.029178 2.21314e-19)
(1.04058 0.0272719 7.43514e-20)
(1.04136 0.0242689 -7.69271e-20)
(1.04087 0.0196002 5.51391e-20)
(1.03863 0.0154834 1.89874e-20)
(1.03568 0.0116279 -1.17438e-19)
(1.03202 0.00881648 -1.74581e-20)
(1.02841 0.00674097 1.90424e-20)
(1.02479 0.00549407 -2.84523e-20)
(1.02168 0.00441242 -4.24691e-21)
(0.718325 0.13427 2.70154e-18)
(1.31766 -0.14303 1.24693e-19)
(1.24427 -0.0630787 -1.31686e-18)
(1.19852 -0.117846 -4.33597e-19)
(1.12189 -0.0532921 -6.88599e-19)
(1.08004 -0.0539478 -4.08071e-19)
(1.05146 -0.0128758 -1.58733e-19)
(1.03954 -0.000571509 2.25182e-20)
(1.03471 0.0184548 4.36332e-20)
(1.03604 0.0242745 -4.44777e-20)
(1.03778 0.0284847 -1.66723e-19)
(1.03993 0.0267869 -3.93117e-20)
(1.04019 0.0242901 -7.07956e-20)
(1.03953 0.0200615 -2.26018e-20)
(1.03732 0.0163609 -9.20364e-20)
(1.03457 0.0127648 7.30212e-20)
(1.03114 0.010113 5.74864e-20)
(1.02779 0.00808048 -4.86309e-21)
(1.02438 0.00673716 -6.57455e-21)
(1.02148 0.00563973 3.11479e-20)
(0.756124 0.136137 -6.45097e-18)
(1.32647 -0.131317 1.52862e-19)
(1.24967 -0.0455504 -4.37091e-19)
(1.20181 -0.106147 5.46208e-19)
(1.12579 -0.0425446 -4.56582e-19)
(1.08496 -0.0475023 1.06398e-18)
(1.05593 -0.00837126 -1.18893e-19)
(1.04344 0.00121342 4.97435e-19)
(1.0373 0.0190683 -1.1331e-19)
(1.03741 0.0239297 -1.19333e-19)
(1.03799 0.0280769 -5.46069e-20)
(1.03938 0.0264967 6.75719e-20)
(1.03914 0.0244157 4.79583e-20)
(1.03832 0.0205459 -6.20024e-22)
(1.03611 0.0172045 3.88435e-20)
(1.03352 0.0138284 -2.05492e-20)
(1.03029 0.0113267 -1.68388e-20)
(1.02716 0.00931966 -3.95847e-20)
(1.02396 0.00791164 2.11956e-20)
(1.02121 0.00680477 2.19488e-20)
(0.792688 0.138782 1.80087e-19)
(1.33446 -0.119629 -1.25589e-18)
(1.25403 -0.0285085 9.98048e-19)
(1.20452 -0.0947456 4.18758e-19)
(1.1291 -0.0320348 1.99331e-19)
(1.08933 -0.0411233 -4.15993e-19)
(1.05988 -0.00377909 3.66938e-19)
(1.04693 0.00321194 -1.13452e-19)
(1.03962 0.0199797 1.06115e-19)
(1.03865 0.0238859 8.28003e-20)