/*--------------------------------*- C++ -*----------------------------------*\
  =========                 |
  \\      /  F ield         | OpenFOAM: The Open Source CFD Toolbox
   \\    /   O peration     | Website:  https://openfoam.org
    \\  /    A nd           | Version:  7
     \\/     M anipulation  |
\*---------------------------------------------------------------------------*/
FoamFile
{
    version     2.0;
    format      ascii;
    class       volVectorField;
    location    "13.5";
    object      U;
}
// * * * * * * * * * * * * * * * * * * * * * * * * * * * * * * * * * * * * * //

dimensions      [0 1 -1 0 0 0 0];

internalField   nonuniform List<vector> 
2413
(
(1.15606 -0.0448092 0)
(1.19138 -0.043041 0)
(1.22498 -0.041319 0)
(1.25682 -0.0398375 0)
(1.28681 -0.0382324 0)
(1.31456 -0.0361764 0)
(1.33987 -0.0339306 0)
(1.36328 -0.0320194 0)
(1.38572 -0.0304812 0)
(1.40757 -0.028863 0)
(1.42846 -0.0270429 0)
(1.44802 -0.0254588 0)
(1.46642 -0.0244355 0)
(1.48402 -0.0238239 0)
(1.50094 -0.0232547 0)
(1.517 -0.0225531 0)
(1.53222 -0.0218135 0)
(1.54679 -0.0212203 0)
(1.56089 -0.0207643 0)
(1.57451 -0.0202433 0)
(1.5875 -0.019463 0)
(1.59973 -0.0184175 0)
(1.6112 -0.01725 0)
(1.62192 -0.0160997 0)
(1.63188 -0.0150498 0)
(1.64112 -0.0141668 0)
(1.64973 -0.0135549 0)
(1.6579 -0.0132807 0)
(1.66614 -0.0132434 0)
(1.67451 -0.0132514 0)
(1.68298 -0.0131458 0)
(1.69162 -0.0126863 0)
(1.70006 -0.0114037 0)
(1.70725 -0.00944378 0)
(1.71334 -0.00798076 0)
(1.71858 -0.00715031 0)
(1.72329 -0.0066026 0)
(1.72771 -0.0061514 0)
(1.73194 -0.00573806 0)
(1.73599 -0.00535801 0)
(1.73988 -0.00503774 0)
(1.74364 -0.0048331 0)
(1.74731 -0.00480199 0)
(1.75103 -0.00493626 0)
(1.7549 -0.00512686 0)
(1.75894 -0.00519521 0)
(1.76308 -0.00508889 0)
(1.76711 -0.00486398 0)
(1.77095 -0.00459795 0)
(1.77497 -0.00428613 0)
(1.77853 -0.00398983 0)
(1.78109 -0.00395104 0)
(1.78455 -0.00391372 0)
(1.78778 -0.00386322 0)
(1.79094 -0.00376024 0)
(1.79401 -0.00349244 0)
(1.79685 -0.00307417 0)
(1.79939 -0.0026455 0)
(1.80168 -0.00234583 0)
(1.8038 -0.00221967 0)
(1.80584 -0.00224236 0)
(1.80785 -0.00236504 0)
(1.80987 -0.00250524 0)
(1.81184 -0.00247546 0)
(1.81367 -0.00200318 0)
(1.81523 -0.00105779 0)
(1.81626 -9.42596e-05 0)
(1.81664 0.0005586 0)
(1.81658 0.000941758 0)
(1.81587 0.00119363 0)
(1.81534 0.00126846 0)
(1.81442 0.00124272 0)
(1.81328 0.00117212 0)
(1.8121 0.00114691 0)
(1.81073 0.00127623 0)
(1.80938 0.00146453 0)
(1.808 0.00163591 0)
(1.80543 0.00167908 0)
(1.80331 0.00171586 0)
(1.80141 0.00177723 0)
(1.79943 0.0018441 0)
(1.79763 0.00188358 0)
(1.79197 0.00185402 0)
(1.77764 0.00187867 0)
(1.6647 0.0021137 0)
(1.48044 0.00303252 0)
(1.42766 0.0030635 0)
(1.42325 0.00300301 0)
(1.41941 0.00298075 0)
(1.41631 0.00317227 0)
(1.41405 0.003257 0)
(1.41237 0.00305309 0)
(1.41104 0.00281714 0)
(1.40973 0.0028495 0)
(1.40807 0.0031818 0)
(1.40618 0.00352264 0)
(1.40438 0.00365988 0)
(1.40237 0.00366479 0)
(1.40037 0.00362145 0)
(1.39848 0.00359682 0)
(1.3967 0.00356565 0)
(1.3951 0.00346155 0)
(1.3938 0.00331621 0)
(1.39261 0.00322241 0)
(1.39144 0.00325582 0)
(1.39017 0.00342193 0)
(1.3888 0.00369013 0)
(1.38748 0.00395774 0)
(1.38642 0.00387978 0)
(1.38564 0.00351021 0)
(1.38532 0.00341555 0)
(1.38551 0.00350943 0)
(1.38567 0.00362132 0)
(1.3858 0.00371139 0)
(1.3862 0.00363874 0)
(1.38704 0.00337972 0)
(1.38814 0.00317642 0)
(1.38928 0.00326401 0)
(1.39028 0.00349545 0)
(1.39118 0.00377468 0)
(1.39201 0.00390214 0)
(1.39287 0.00379051 0)
(1.3938 0.00337129 0)
(1.39478 0.00299908 0)
(1.39575 0.00278623 0)
(1.3966 0.00288867 0)
(1.39726 0.00322264 0)
(1.39762 0.0040033 0)
(1.39739 0.00450544 0)
(1.39702 0.00492115 0)
(1.39646 0.00482409 0)
(1.39576 0.00440097 0)
(1.239 -0.0901591 0)
(1.27078 -0.0893285 0)
(1.30156 -0.0856238 0)
(1.33044 -0.0808063 0)
(1.35739 -0.074811 0)
(1.38239 -0.0674699 0)
(1.40521 -0.0608429 0)
(1.4258 -0.0573439 0)
(1.4448 -0.0561802 0)
(1.46298 -0.0545294 0)
(1.48043 -0.0511126 0)
(1.4971 -0.0471706 0)
(1.51306 -0.0440027 0)
(1.52845 -0.0413676 0)
(1.54323 -0.0385101 0)
(1.55727 -0.0354838 0)
(1.57053 -0.0329706 0)
(1.58315 -0.0311751 0)
(1.59525 -0.0295053 0)
(1.60672 -0.0274452 0)
(1.61739 -0.0252132 0)
(1.62727 -0.0232117 0)
(1.63649 -0.0214307 0)
(1.64512 -0.0196364 0)
(1.65322 -0.0177331 0)
(1.66084 -0.01592 0)
(1.6682 -0.0146039 0)
(1.67559 -0.0141948 0)
(1.68328 -0.0148261 0)
(1.69137 -0.0160161 0)
(1.69907 -0.0167904 0)
(1.70604 -0.0169671 0)
(1.71351 -0.0161232 0)
(1.71902 -0.0133087 0)
(1.72324 -0.0101901 0)
(1.72781 -0.00813403 0)
(1.73188 -0.00753706 0)
(1.73577 -0.00739456 0)
(1.73964 -0.00723953 0)
(1.74347 -0.00696655 0)
(1.74721 -0.00661348 0)
(1.75088 -0.00624328 0)
(1.75451 -0.00598141 0)
(1.75816 -0.00598031 0)
(1.76188 -0.0062429 0)
(1.7657 -0.00661048 0)
(1.76961 -0.00683161 0)
(1.7734 -0.00667659 0)
(1.77699 -0.00613909 0)
(1.78084 -0.00524951 0)
(1.78389 -0.0045992 0)
(1.78673 -0.00464269 0)
(1.78996 -0.00471304 0)
(1.79301 -0.00466482 0)
(1.79589 -0.00444749 0)
(1.79854 -0.00397606 0)
(1.8009 -0.00333575 0)
(1.80302 -0.00275926 0)
(1.805 -0.00241645 0)
(1.80694 -0.00227794 0)
(1.80886 -0.00221953 0)
(1.8107 -0.00215741 0)
(1.81242 -0.00215057 0)
(1.81395 -0.00221388 0)
(1.81529 -0.00206551 0)
(1.81645 -0.00139003 0)
(1.81746 -0.000255873 0)
(1.81806 0.000978077 0)
(1.81811 0.00212567 0)
(1.81749 0.00336072 0)
(1.81645 0.00428182 0)
(1.81556 0.00436978 0)
(1.81405 0.00422828 0)
(1.81247 0.00401878 0)
(1.81087 0.00408798 0)
(1.80944 0.0044599 0)
(1.80828 0.00488661 0)
(1.80581 0.0050556 0)
(1.80378 0.00519922 0)
(1.802 0.00543685 0)
(1.8001 0.00576764 0)
(1.79844 0.00602897 0)
(1.79271 0.00612435 0)
(1.77883 0.00605512 0)
(1.66831 0.00939329 0)
(1.48158 0.0110146 0)
(1.42682 0.0100195 0)
(1.42285 0.00922388 0)
(1.41967 0.00893789 0)
(1.41717 0.00960489 0)
(1.41518 0.0102856 0)
(1.41359 0.0101405 0)
(1.41217 0.00964996 0)
(1.41074 0.0097074 0)
(1.40907 0.0105395 0)
(1.40725 0.0114485 0)
(1.40555 0.0117677 0)
(1.40368 0.0116985 0)
(1.40183 0.0115977 0)
(1.40003 0.011555 0)
(1.39835 0.0113895 0)
(1.39693 0.0109683 0)
(1.3958 0.0104342 0)
(1.39478 0.00998146 0)
(1.39384 0.0097861 0)
(1.39291 0.00991779 0)
(1.39195 0.0100802 0)
(1.3911 0.0101417 0)
(1.39051 0.0102875 0)
(1.39 0.0101313 0)
(1.3898 0.00942772 0)
(1.39016 0.00893242 0)
(1.39053 0.00859621 0)
(1.3909 0.00823783 0)
(1.39146 0.00720288 0)
(1.39211 0.00571218 0)
(1.39275 0.00453059 0)
(1.3935 0.00405895 0)
(1.39436 0.00404565 0)
(1.39531 0.00417805 0)
(1.39635 0.00435375 0)
(1.39738 0.00437156 0)
(1.39834 0.00388355 0)
(1.3993 0.00341484 0)
(1.40016 0.00296635 0)
(1.40124 0.00344511 0)
(1.40192 0.00371115 0)
(1.40291 0.00512081 0)
(1.40338 0.00653249 0)
(1.40355 0.00734386 0)
(1.40356 0.00859049 0)
(1.40287 0.00918299 0)
(1.37568 -0.146657 0)
(1.40197 -0.141622 0)
(1.42718 -0.134566 0)
(1.45035 -0.126174 0)
(1.47131 -0.11872 0)
(1.49109 -0.111099 0)
(1.5104 -0.101503 0)
(1.52825 -0.0915535 0)
(1.54343 -0.0851852 0)
(1.55637 -0.0817124 0)
(1.56806 -0.0779206 0)
(1.57915 -0.0736208 0)
(1.58984 -0.0703768 0)
(1.60023 -0.0681747 0)
(1.61039 -0.0658096 0)
(1.62036 -0.0628326 0)
(1.63004 -0.0597388 0)
(1.63919 -0.0572374 0)
(1.64776 -0.0552412 0)
(1.65582 -0.0528114 0)
(1.66333 -0.0495942 0)
(1.67014 -0.0462256 0)
(1.67631 -0.0432465 0)
(1.68201 -0.0406212 0)
(1.68747 -0.0383026 0)
(1.69292 -0.0365339 0)
(1.6985 -0.0357067 0)
(1.70424 -0.0360218 0)
(1.71022 -0.036925 0)
(1.71646 -0.0369268 0)
(1.72242 -0.0346474 0)
(1.7274 -0.0308331 0)
(1.73259 -0.0275764 0)
(1.73884 -0.0243676 0)
(1.74202 -0.0219164 0)
(1.74561 -0.0194699 0)
(1.74926 -0.0179433 0)
(1.75252 -0.0172448 0)
(1.75577 -0.0166568 0)
(1.75917 -0.0159754 0)
(1.76262 -0.0152285 0)
(1.7661 -0.014661 0)
(1.76957 -0.0144425 0)
(1.773 -0.0145103 0)
(1.77639 -0.0146458 0)
(1.77973 -0.0145562 0)
(1.78297 -0.0140925 0)
(1.78607 -0.0134343 0)
(1.78916 -0.0127459 0)
(1.79255 -0.0119911 0)
(1.79518 -0.0117861 0)
(1.7982 -0.0118241 0)
(1.80106 -0.0117019 0)
(1.80366 -0.0112817 0)
(1.806 -0.0104249 0)
(1.80804 -0.0091644 0)
(1.80976 -0.00783642 0)
(1.81125 -0.00689784 0)
(1.81264 -0.00656434 0)
(1.81402 -0.00670988 0)
(1.81538 -0.00704004 0)
(1.81671 -0.00721368 0)
(1.81795 -0.00699032 0)
(1.81901 -0.00624236 0)
(1.81983 -0.00493713 0)
(1.8204 -0.00322282 0)
(1.8208 -0.00127229 0)
(1.8211 0.000784716 0)
(1.82092 0.00270605 0)
(1.82025 0.00450054 0)
(1.81893 0.00641298 0)
(1.8175 0.00756544 0)
(1.81601 0.00764481 0)
(1.8138 0.00743589 0)
(1.81159 0.00731381 0)
(1.80971 0.00750327 0)
(1.80852 0.00787107 0)
(1.80613 0.00818031 0)
(1.8042 0.00841561 0)
(1.80258 0.00881628 0)
(1.80087 0.00945824 0)
(1.79954 0.0100476 0)
(1.7939 0.0100244 0)
(1.78117 0.00987679 0)
(1.67651 0.0150687 0)
(1.48619 0.0175427 0)
(1.42787 0.0156827 0)
(1.42434 0.0145826 0)
(1.42197 0.0142702 0)
(1.4203 0.0154457 0)
(1.41864 0.0167356 0)
(1.41713 0.0168181 0)
(1.41564 0.0162357 0)
(1.41413 0.0163105 0)
(1.41254 0.0174745 0)
(1.41094 0.0188022 0)
(1.40946 0.0192771 0)
(1.40784 0.0190332 0)
(1.40629 0.0186989 0)
(1.40486 0.0184525 0)
(1.40357 0.0180529 0)
(1.4024 0.0175054 0)
(1.40135 0.0169393 0)
(1.40034 0.0164509 0)
(1.39943 0.0162751 0)
(1.39876 0.0165267 0)
(1.39826 0.0167558 0)
(1.39808 0.0162874 0)
(1.39839 0.0152843 0)
(1.39872 0.0144818 0)
(1.39895 0.0139087 0)
(1.39936 0.0133785 0)
(1.39973 0.0130354 0)
(1.40013 0.0130078 0)
(1.40048 0.0132573 0)
(1.40071 0.013174 0)
(1.40105 0.0124574 0)
(1.40155 0.0118853 0)
(1.40237 0.0117731 0)
(1.40346 0.0120044 0)
(1.40476 0.0122253 0)
(1.40613 0.012363 0)
(1.40739 0.0121937 0)
(1.40847 0.012234 0)
(1.40933 0.0117744 0)
(1.41032 0.0121105 0)
(1.41106 0.0120765 0)
(1.41206 0.0128622 0)
(1.41292 0.0139484 0)
(1.41362 0.0143063 0)
(1.41414 0.015306 0)
(1.41426 0.0149059 0)
(1.53426 -0.173689 0)
(1.55204 -0.170181 0)
(1.56727 -0.163167 0)
(1.58064 -0.151722 0)
(1.5931 -0.139387 0)
(1.60535 -0.129645 0)
(1.61832 -0.121586 0)
(1.63134 -0.111132 0)
(1.64199 -0.099518 0)
(1.65062 -0.0919548 0)
(1.65826 -0.0867046 0)
(1.66491 -0.0807879 0)
(1.67091 -0.0758091 0)
(1.67686 -0.0724677 0)
(1.68267 -0.0690451 0)
(1.6883 -0.0653944 0)
(1.69388 -0.0618064 0)
(1.69918 -0.0578809 0)
(1.70419 -0.0542351 0)
(1.70894 -0.0508098 0)
(1.71331 -0.0466884 0)
(1.71721 -0.0421186 0)
(1.72074 -0.0382553 0)
(1.72412 -0.0354412 0)
(1.72742 -0.0332952 0)
(1.73095 -0.0317276 0)
(1.73471 -0.0310457 0)
(1.73836 -0.0315655 0)
(1.74162 -0.0329845 0)
(1.74466 -0.0343381 0)
(1.74789 -0.0343274 0)
(1.75123 -0.0320877 0)
(1.75482 -0.0287215 0)
(1.75977 -0.025017 0)
(1.76434 -0.0205352 0)
(1.76706 -0.016842 0)
(1.77079 -0.0143593 0)
(1.77398 -0.0134741 0)
(1.77676 -0.0137641 0)
(1.7798 -0.0142337 0)
(1.78304 -0.0142187 0)
(1.78591 -0.0140629 0)
(1.78907 -0.0139441 0)
(1.79208 -0.0139557 0)
(1.79494 -0.0139048 0)
(1.79767 -0.0137542 0)
(1.80021 -0.0135035 0)
(1.80271 -0.0129686 0)
(1.80534 -0.0121437 0)
(1.80787 -0.0112836 0)
(1.81038 -0.0108554 0)
(1.81281 -0.0104306 0)
(1.81499 -0.00989181 0)
(1.81691 -0.00912761 0)
(1.81857 -0.00804854 0)
(1.81999 -0.00674264 0)
(1.82121 -0.00546789 0)
(1.82229 -0.00449483 0)
(1.82324 -0.0039173 0)
(1.82408 -0.0036457 0)
(1.82481 -0.00353705 0)
(1.82543 -0.00340572 0)
(1.8259 -0.00314991 0)
(1.82621 -0.00269029 0)
(1.82634 -0.00189247 0)
(1.82627 -0.000693316 0)
(1.82593 0.000958981 0)
(1.82537 0.00301516 0)
(1.82467 0.00517202 0)
(1.82346 0.0071878 0)
(1.82181 0.00908703 0)
(1.81938 0.0111978 0)
(1.81734 0.0122566 0)
(1.81508 0.0121941 0)
(1.81214 0.0117757 0)
(1.80949 0.011356 0)
(1.80776 0.011099 0)
(1.80547 0.0112311 0)
(1.80345 0.0115394 0)
(1.80197 0.0120954 0)
(1.80045 0.0128204 0)
(1.79918 0.0139652 0)
(1.79374 0.013285 0)
(1.78262 0.0127263 0)
(1.68578 0.0182131 0)
(1.49225 0.0229744 0)
(1.42814 0.0206327 0)
(1.42559 0.0199006 0)
(1.42481 0.0195563 0)
(1.42461 0.0208284 0)
(1.42368 0.0224689 0)
(1.42245 0.0228521 0)
(1.42114 0.0222635 0)
(1.41982 0.0221157 0)
(1.4185 0.0230426 0)
(1.41724 0.0245305 0)
(1.41603 0.0254693 0)
(1.41472 0.0254271 0)
(1.41358 0.0249411 0)
(1.41275 0.0241617 0)
(1.41222 0.0231657 0)
(1.41174 0.0222888 0)
(1.41118 0.021752 0)
(1.41059 0.0215116 0)
(1.41008 0.0214591 0)
(1.40989 0.0214624 0)
(1.41012 0.0214546 0)
(1.41057 0.0213661 0)
(1.4112 0.0209275 0)
(1.41208 0.020158 0)
(1.41301 0.0190783 0)
(1.41367 0.0181535 0)
(1.4143 0.0172444 0)
(1.4151 0.0160626 0)
(1.41573 0.0148413 0)
(1.4164 0.0136716 0)
(1.41742 0.0119519 0)
(1.41841 0.010396 0)
(1.41951 0.00964646 0)
(1.42079 0.0095357 0)
(1.42227 0.00974435 0)
(1.42387 0.0102837 0)
(1.4254 0.0105686 0)
(1.42668 0.010882 0)
(1.42778 0.00988844 0)
(1.4287 0.00941908 0)
(1.42953 0.00848543 0)
(1.43037 0.00857372 0)
(1.43138 0.00930442 0)
(1.43236 0.00980441 0)
(1.43337 0.0113411 0)
(1.4344 0.0127192 0)
(1.64797 -0.211875 0)
(1.65738 -0.199679 0)
(1.66461 -0.185025 0)
(1.67038 -0.17151 0)
(1.6757 -0.160624 0)
(1.68091 -0.151318 0)
(1.68683 -0.142694 0)
(1.69453 -0.132338 0)
(1.70169 -0.11842 0)
(1.70649 -0.105899 0)
(1.71262 -0.0996949 0)
(1.71764 -0.0935537 0)
(1.7206 -0.087188 0)
(1.72479 -0.083563 0)
(1.72876 -0.0807866 0)
(1.73146 -0.0762688 0)
(1.73468 -0.0723883 0)
(1.73807 -0.0694087 0)
(1.74072 -0.0653587 0)
(1.7434 -0.06128 0)
(1.74631 -0.0574149 0)
(1.74887 -0.0529628 0)
(1.75127 -0.0485414 0)
(1.75379 -0.045147 0)
(1.75638 -0.0429897 0)
(1.75885 -0.0417208 0)
(1.76141 -0.0410342 0)
(1.76395 -0.0407068 0)
(1.76617 -0.0405826 0)
(1.76793 -0.0403579 0)
(1.76947 -0.039785 0)
(1.77122 -0.0386255 0)
(1.77341 -0.0366392 0)
(1.77637 -0.0340655 0)
(1.78041 -0.0309121 0)
(1.78419 -0.0272009 0)
(1.78779 -0.0244797 0)
(1.79128 -0.0231379 0)
(1.7942 -0.0225288 0)
(1.79694 -0.021843 0)
(1.80006 -0.0203468 0)
(1.80204 -0.0197303 0)
(1.80496 -0.0188961 0)
(1.80779 -0.0181978 0)
(1.81037 -0.0178836 0)
(1.81274 -0.0176269 0)
(1.8149 -0.0171006 0)
(1.81693 -0.0163373 0)
(1.81893 -0.0158047 0)
(1.82096 -0.01565 0)
(1.82293 -0.0155606 0)
(1.82474 -0.0152855 0)
(1.82639 -0.0147205 0)
(1.82789 -0.0137672 0)
(1.82925 -0.012378 0)
(1.83046 -0.0106868 0)
(1.83152 -0.00904176 0)
(1.83242 -0.00783441 0)
(1.83315 -0.00720891 0)
(1.83368 -0.00702682 0)
(1.83401 -0.00698289 0)
(1.83417 -0.00671669 0)
(1.83417 -0.0060241 0)
(1.83399 -0.00482396 0)
(1.83361 -0.00305015 0)
(1.83296 -0.000791981 0)
(1.83196 0.00188157 0)
(1.83054 0.00491011 0)
(1.82889 0.00797053 0)
(1.82699 0.0106241 0)
(1.82452 0.0127508 0)
(1.82167 0.0147586 0)
(1.818 0.0169331 0)
(1.81593 0.0174969 0)
(1.8126 0.0172556 0)
(1.80909 0.0165804 0)
(1.80623 0.0156357 0)
(1.80382 0.0148377 0)
(1.8013 0.0150625 0)
(1.79985 0.0156455 0)
(1.79827 0.0162591 0)
(1.79625 0.0176088 0)
(1.79153 0.0155906 0)
(1.7818 0.0138588 0)
(1.69512 0.0169226 0)
(1.50118 0.0273801 0)
(1.43039 0.0239304 0)
(1.42849 0.0238644 0)
(1.42937 0.0240042 0)
(1.43107 0.0252677 0)
(1.43142 0.026994 0)
(1.43084 0.0276518 0)
(1.42984 0.02724 0)
(1.42879 0.0272512 0)
(1.42786 0.0282872 0)
(1.42708 0.0297052 0)
(1.42643 0.0305667 0)
(1.42573 0.0306063 0)
(1.42527 0.0300282 0)
(1.42513 0.0290837 0)
(1.42535 0.0280297 0)
(1.42574 0.0270871 0)
(1.42608 0.0262224 0)
(1.42635 0.0256707 0)
(1.42677 0.025464 0)
(1.42739 0.0253683 0)
(1.42833 0.0251685 0)
(1.42946 0.0248113 0)
(1.43071 0.0243422 0)
(1.4321 0.0238606 0)
(1.43351 0.0230719 0)
(1.43479 0.0218989 0)
(1.43599 0.0207458 0)
(1.43721 0.0200223 0)
(1.43855 0.0193366 0)
(1.43978 0.0188329 0)
(1.44112 0.0186327 0)
(1.44263 0.0182308 0)
(1.44426 0.0180565 0)
(1.44588 0.018025 0)
(1.44755 0.0178376 0)
(1.44928 0.0178463 0)
(1.45105 0.0178405 0)
(1.45277 0.0182843 0)
(1.45431 0.0182934 0)
(1.45558 0.0184831 0)
(1.45669 0.0184965 0)
(1.45763 0.0187826 0)
(1.45886 0.0195951 0)
(1.45996 0.0199252 0)
(1.46129 0.0214475 0)
(1.46312 0.0233931 0)
(1.7114 -0.221877 0)
(1.71296 -0.210353 0)
(1.71407 -0.194535 0)
(1.71516 -0.178115 0)
(1.7167 -0.164843 0)
(1.71802 -0.154949 0)
(1.71918 -0.146694 0)
(1.72199 -0.138323 0)
(1.72716 -0.126381 0)
(1.72914 -0.113277 0)
(1.73164 -0.103113 0)
(1.73719 -0.0970067 0)
(1.73914 -0.0914242 0)
(1.74223 -0.085492 0)
(1.74631 -0.0815418 0)
(1.74817 -0.0773327 0)
(1.75063 -0.0724496 0)
(1.75392 -0.069273 0)
(1.75584 -0.0655367 0)
(1.75764 -0.0611005 0)
(1.76032 -0.0571668 0)
(1.76269 -0.0530303 0)
(1.76531 -0.0490705 0)
(1.76821 -0.0457484 0)
(1.77092 -0.0433034 0)
(1.77346 -0.0420852 0)
(1.7758 -0.0415721 0)
(1.77798 -0.0412959 0)
(1.78007 -0.0409502 0)
(1.78195 -0.0402603 0)
(1.78356 -0.0391754 0)
(1.78503 -0.0379468 0)
(1.7866 -0.0366377 0)
(1.78856 -0.03494 0)
(1.79128 -0.0323724 0)
(1.79468 -0.0285519 0)
(1.79791 -0.0243668 0)
(1.80142 -0.021286 0)
(1.80478 -0.0196944 0)
(1.80802 -0.0195913 0)
(1.81082 -0.0206063 0)
(1.81253 -0.0209034 0)
(1.81487 -0.0210246 0)
(1.81724 -0.020992 0)
(1.81936 -0.0204442 0)
(1.82127 -0.0194013 0)
(1.82299 -0.0182095 0)
(1.82463 -0.0171868 0)
(1.82623 -0.0162407 0)
(1.82781 -0.0152641 0)
(1.82935 -0.0142852 0)
(1.83083 -0.0132837 0)
(1.83227 -0.0121647 0)
(1.83366 -0.0108188 0)
(1.83505 -0.00922096 0)
(1.8364 -0.0075662 0)
(1.8377 -0.00605949 0)
(1.83884 -0.00484633 0)
(1.83974 -0.00395511 0)
(1.84033 -0.00334469 0)
(1.84062 -0.00289322 0)
(1.84062 -0.00240276 0)
(1.8404 -0.00168031 0)
(1.83995 -0.000569415 0)
(1.83925 0.00109992 0)
(1.83824 0.00334483 0)
(1.83686 0.00618969 0)
(1.83495 0.00956161 0)
(1.83256 0.0132138 0)
(1.82998 0.0163419 0)
(1.82685 0.0185547 0)
(1.82334 0.0202797 0)
(1.81924 0.0222103 0)
(1.81561 0.0236755 0)
(1.81294 0.0237332 0)
(1.80906 0.0232877 0)
(1.80528 0.0221558 0)
(1.80235 0.0199219 0)
(1.79928 0.0192216 0)
(1.79713 0.0193639 0)
(1.79501 0.0196894 0)
(1.79165 0.0195817 0)
(1.78784 0.0162276 0)
(1.77751 0.0120397 0)
(1.70435 0.0102623 0)
(1.51727 0.0269188 0)
(1.43913 0.0258619 0)
(1.43732 0.02587 0)
(1.43947 0.0264264 0)
(1.44254 0.0283564 0)
(1.44379 0.030877 0)
(1.44369 0.032228 0)
(1.44316 0.0319396 0)
(1.44251 0.0316327 0)
(1.44215 0.0322244 0)
(1.44213 0.0332992 0)
(1.44225 0.0338561 0)
(1.44235 0.0336436 0)
(1.4426 0.032865 0)
(1.44319 0.0317974 0)
(1.44421 0.0309514 0)
(1.44539 0.0302154 0)
(1.44665 0.029519 0)
(1.448 0.0289357 0)
(1.44945 0.0283637 0)
(1.45097 0.0278468 0)
(1.45261 0.0274313 0)
(1.45435 0.0269679 0)
(1.45619 0.0264183 0)
(1.45816 0.0257023 0)
(1.46017 0.0247471 0)
(1.46208 0.0236775 0)
(1.46393 0.0227695 0)
(1.46577 0.0220989 0)
(1.4677 0.021286 0)
(1.46953 0.0199314 0)
(1.4714 0.0183906 0)
(1.47368 0.016988 0)
(1.47588 0.0158846 0)
(1.47783 0.0155642 0)
(1.47993 0.0154144 0)
(1.48193 0.0154357 0)
(1.48391 0.015559 0)
(1.48588 0.0161633 0)
(1.48779 0.0161332 0)
(1.48951 0.016296 0)
(1.49107 0.0161277 0)
(1.49231 0.0156601 0)
(1.49373 0.0159911 0)
(1.49497 0.0157255 0)
(1.49636 0.0166672 0)
(1.4989 0.0182376 0)
(1.7441 -0.229778 0)
(1.74084 -0.216877 0)
(1.7373 -0.200389 0)
(1.73552 -0.185087 0)
(1.73465 -0.171823 0)
(1.73388 -0.160761 0)
(1.73304 -0.151849 0)
(1.73324 -0.143872 0)
(1.73601 -0.13376 0)
(1.7378 -0.122385 0)
(1.73725 -0.112165 0)
(1.74096 -0.10591 0)
(1.74422 -0.0997332 0)
(1.74536 -0.0936203 0)
(1.74947 -0.0882493 0)
(1.75188 -0.0831098 0)
(1.75349 -0.0781637 0)
(1.75709 -0.0744029 0)
(1.75943 -0.0700278 0)
(1.76079 -0.0649839 0)
(1.76399 -0.060962 0)
(1.76679 -0.0570247 0)
(1.76922 -0.0526623 0)
(1.77264 -0.0491399 0)
(1.77593 -0.0461096 0)
(1.77914 -0.043708 0)
(1.78195 -0.0425014 0)
(1.78447 -0.0419423 0)
(1.78691 -0.0414386 0)
(1.78933 -0.0407716 0)
(1.79158 -0.0398392 0)
(1.79348 -0.0389203 0)
(1.79502 -0.0383329 0)
(1.79637 -0.0379436 0)
(1.79814 -0.0372394 0)
(1.80055 -0.0353049 0)
(1.80269 -0.0324385 0)
(1.80573 -0.0302201 0)
(1.80882 -0.0286825 0)
(1.81185 -0.0272031 0)
(1.815 -0.0250435 0)
(1.81692 -0.023453 0)
(1.81861 -0.0228149 0)
(1.82079 -0.0215546 0)
(1.82267 -0.0202875 0)
(1.82431 -0.019105 0)
(1.82582 -0.0179592 0)
(1.82723 -0.0169284 0)
(1.82858 -0.0162585 0)
(1.82989 -0.0158547 0)
(1.83118 -0.0154113 0)
(1.83251 -0.0148051 0)
(1.83384 -0.0140581 0)
(1.83519 -0.0130975 0)
(1.83658 -0.0117935 0)
(1.83806 -0.0100522 0)
(1.83957 -0.00807882 0)
(1.84099 -0.00628708 0)
(1.84224 -0.00491618 0)
(1.84323 -0.00396894 0)
(1.84388 -0.00328142 0)
(1.84417 -0.00255576 0)
(1.84412 -0.00156507 0)
(1.84374 -5.94937e-05 0)
(1.84303 0.00216369 0)
(1.84194 0.00507123 0)
(1.84041 0.0087349 0)
(1.83828 0.0130521 0)
(1.83548 0.0178276 0)
(1.83243 0.0220766 0)
(1.82899 0.0247562 0)
(1.82503 0.0263763 0)
(1.82076 0.0279101 0)
(1.81617 0.0296685 0)
(1.81383 0.0300203 0)
(1.81017 0.0300008 0)
(1.80635 0.0293266 0)
(1.80245 0.0272688 0)
(1.79959 0.0245512 0)
(1.79602 0.0231126 0)
(1.7917 0.0220022 0)
(1.78756 0.0201336 0)
(1.78145 0.0154453 0)
(1.76768 0.00386622 0)
(1.7124 -0.00416372 0)
(1.55044 0.0131627 0)
(1.45856 0.0278159 0)
(1.45287 0.0293226 0)
(1.4563 0.0293752 0)
(1.46015 0.030717 0)
(1.46189 0.0336985 0)
(1.46179 0.0356107 0)
(1.46166 0.0353821 0)
(1.46155 0.0346258 0)
(1.46188 0.0349207 0)
(1.46254 0.0356771 0)
(1.46317 0.0359227 0)
(1.46381 0.0355851 0)
(1.46468 0.0348282 0)
(1.4659 0.0339112 0)
(1.46748 0.0328361 0)
(1.4694 0.0319773 0)
(1.47152 0.0314799 0)
(1.47374 0.0311056 0)
(1.476 0.030687 0)
(1.47824 0.0301812 0)
(1.48048 0.0296218 0)
(1.48277 0.0289552 0)
(1.48519 0.0281923 0)
(1.48768 0.0272798 0)
(1.49018 0.0262769 0)
(1.49261 0.0252035 0)
(1.49503 0.0242227 0)
(1.49748 0.0233153 0)
(1.50001 0.022523 0)
(1.50252 0.0218837 0)
(1.50496 0.021531 0)
(1.50739 0.0213712 0)
(1.50992 0.0212605 0)
(1.5124 0.021228 0)
(1.51457 0.0212538 0)
(1.51674 0.0213629 0)
(1.5189 0.0215127 0)
(1.52106 0.0219762 0)
(1.52318 0.022252 0)
(1.52516 0.0225979 0)
(1.52706 0.0232794 0)
(1.5287 0.0232285 0)
(1.5303 0.0236121 0)
(1.53181 0.0233395 0)
(1.53322 0.0236904 0)
(1.53619 0.02488 0)
(1.76413 -0.225866 0)
(1.75949 -0.214604 0)
(1.75262 -0.19816 0)
(1.74924 -0.183988 0)
(1.74742 -0.172231 0)
(1.7451 -0.16088 0)
(1.74344 -0.151543 0)
(1.74278 -0.143802 0)
(1.74419 -0.134818 0)
(1.74612 -0.123864 0)
(1.74504 -0.114628 0)
(1.74676 -0.107829 0)
(1.75046 -0.102147 0)
(1.75079 -0.0968159 0)
(1.75346 -0.0908008 0)
(1.75638 -0.0850699 0)
(1.7568 -0.0809829 0)
(1.75991 -0.0772086 0)
(1.7624 -0.0733265 0)
(1.76335 -0.0693518 0)
(1.76665 -0.0654959 0)
(1.76978 -0.0625553 0)
(1.77141 -0.0590792 0)
(1.7748 -0.0559826 0)
(1.77807 -0.054151 0)
(1.78117 -0.0518318 0)
(1.78435 -0.0495191 0)
(1.78732 -0.0482523 0)
(1.78988 -0.047581 0)
(1.79255 -0.0466727 0)
(1.79515 -0.044809 0)
(1.79732 -0.0422969 0)
(1.79942 -0.0401118 0)
(1.80111 -0.0388574 0)
(1.80282 -0.0380659 0)
(1.80495 -0.0362304 0)
(1.80629 -0.033165 0)
(1.80879 -0.0302117 0)
(1.8114 -0.0285287 0)
(1.81403 -0.0265684 0)
(1.81622 -0.0245349 0)
(1.81807 -0.0242259 0)
(1.81988 -0.023995 0)
(1.82142 -0.0235261 0)
(1.82286 -0.0226668 0)
(1.82425 -0.0214913 0)
(1.82555 -0.0203928 0)
(1.82683 -0.0195392 0)
(1.82813 -0.0187175 0)
(1.82946 -0.0179282 0)
(1.83079 -0.0172648 0)
(1.83213 -0.0166025 0)
(1.83345 -0.0157681 0)
(1.83479 -0.0146529 0)
(1.83621 -0.0132701 0)
(1.83772 -0.0117917 0)
(1.83929 -0.0103193 0)
(1.84086 -0.0087857 0)
(1.84235 -0.00709691 0)
(1.84366 -0.0053056 0)
(1.84467 -0.00355136 0)
(1.84532 -0.00185852 0)
(1.84556 -1.50241e-05 0)
(1.84538 0.00221913 0)
(1.84478 0.00503448 0)
(1.84371 0.00866767 0)
(1.84214 0.0131766 0)
(1.8399 0.0185057 0)
(1.83688 0.0243539 0)
(1.83355 0.0295617 0)
(1.83017 0.032509 0)
(1.82628 0.0338418 0)
(1.82223 0.0348382 0)
(1.81762 0.0361169 0)
(1.81529 0.0367123 0)
(1.81227 0.036864 0)
(1.80885 0.0368305 0)
(1.80526 0.0350792 0)
(1.8014 0.0320551 0)
(1.79705 0.0290474 0)
(1.79041 0.0238394 0)
(1.78221 0.0164947 0)
(1.77267 0.00854458 0)
(1.75244 -0.00988171 0)
(1.71675 -0.0272575 0)
(1.60665 -0.00528171 0)
(1.49483 0.0181845 0)
(1.476 0.0303875 0)
(1.47741 0.0344664 0)
(1.48085 0.0352128 0)
(1.48326 0.0362828 0)
(1.48375 0.0369185 0)
(1.48406 0.0367732 0)
(1.48456 0.0363528 0)
(1.48523 0.0362257 0)
(1.48595 0.0365384 0)
(1.48678 0.0369063 0)
(1.48762 0.0367986 0)
(1.48878 0.0361599 0)
(1.49043 0.0347878 0)
(1.4926 0.0332525 0)
(1.49505 0.0322213 0)
(1.49758 0.0317984 0)
(1.50021 0.0315634 0)
(1.50288 0.0311781 0)
(1.50559 0.0306417 0)
(1.50835 0.0299777 0)
(1.51116 0.0290867 0)
(1.51406 0.0281538 0)
(1.51694 0.027296 0)
(1.51976 0.0265697 0)
(1.52252 0.0258783 0)
(1.5253 0.0252274 0)
(1.5281 0.0245177 0)
(1.53093 0.0238096 0)
(1.53374 0.0230618 0)
(1.53657 0.0222394 0)
(1.53941 0.0214498 0)
(1.5422 0.0208983 0)
(1.5448 0.0204762 0)
(1.5473 0.0202438 0)
(1.5497 0.0202907 0)
(1.5519 0.0203759 0)
(1.55412 0.0206096 0)
(1.55635 0.0208531 0)
(1.55851 0.0211569 0)
(1.56068 0.0217536 0)
(1.56277 0.0218154 0)
(1.56469 0.022287 0)
(1.56653 0.0222042 0)
(1.56807 0.0222362 0)
(1.57118 0.0230971 0)
(1.77879 -0.221955 0)
(1.77447 -0.212224 0)
(1.76621 -0.197217 0)
(1.76175 -0.183653 0)
(1.76025 -0.174524 0)
(1.7571 -0.164064 0)
(1.75463 -0.154552 0)
(1.75369 -0.1471 0)
(1.7542 -0.139121 0)
(1.75586 -0.129405 0)
(1.75491 -0.121763 0)
(1.75511 -0.114761 0)
(1.75824 -0.109636 0)
(1.7594 -0.103435 0)
(1.75977 -0.0973545 0)
(1.76289 -0.0921309 0)
(1.76311 -0.0875742 0)
(1.76517 -0.0827876 0)
(1.76832 -0.0782498 0)
(1.76899 -0.0737667 0)
(1.77178 -0.0688028 0)
(1.77518 -0.065435 0)
(1.77691 -0.0616197 0)
(1.77973 -0.0576112 0)
(1.78295 -0.0555351 0)
(1.7862 -0.0535282 0)
(1.788 -0.0511214 0)
(1.79095 -0.0490214 0)
(1.79356 -0.0479502 0)
(1.79606 -0.047016 0)
(1.79847 -0.0453573 0)
(1.80039 -0.0432779 0)
(1.80241 -0.041117 0)
(1.80444 -0.0397883 0)
(1.8062 -0.0390192 0)
(1.80786 -0.0375422 0)
(1.80882 -0.0361711 0)
(1.81065 -0.0340901 0)
(1.81288 -0.03208 0)
(1.81468 -0.0295956 0)
(1.8163 -0.0276473 0)
(1.8184 -0.025937 0)
(1.8198 -0.0246756 0)
(1.82098 -0.0236479 0)
(1.82219 -0.0223973 0)
(1.8235 -0.0209658 0)
(1.82481 -0.0196831 0)
(1.82617 -0.0185745 0)
(1.82754 -0.017713 0)
(1.82892 -0.0170928 0)
(1.83025 -0.0165372 0)
(1.83154 -0.0158737 0)
(1.83282 -0.0150609 0)
(1.83411 -0.014209 0)
(1.83542 -0.0133096 0)
(1.83679 -0.0121722 0)
(1.83829 -0.0106892 0)
(1.8399 -0.00899907 0)
(1.84156 -0.00734164 0)
(1.84314 -0.00572495 0)
(1.8445 -0.00398419 0)
(1.84551 -0.0019299 0)
(1.84605 0.000498246 0)
(1.84606 0.00336155 0)
(1.84553 0.00689007 0)
(1.84447 0.0111813 0)
(1.84287 0.0165419 0)
(1.84063 0.0229176 0)
(1.83769 0.029705 0)
(1.83451 0.0355284 0)
(1.83157 0.0387941 0)
(1.82818 0.0399037 0)
(1.82462 0.0405918 0)
(1.8207 0.0414671 0)
(1.8183 0.0421764 0)
(1.81638 0.0425824 0)
(1.81345 0.0422746 0)
(1.8106 0.0405193 0)
(1.80676 0.0378972 0)
(1.79969 0.0316884 0)
(1.79078 0.0238679 0)
(1.77524 0.00949134 0)
(1.75982 -0.00127863 0)
(1.73543 -0.0233202 0)
(1.71564 -0.0456801 0)
(1.6643 -0.0350697 0)
(1.56699 0.00414124 0)
(1.50803 0.0225534 0)
(1.50149 0.0389503 0)
(1.50237 0.0404708 0)
(1.505 0.0397433 0)
(1.50697 0.0379034 0)
(1.50784 0.0366505 0)
(1.50886 0.0362974 0)
(1.50936 0.0369294 0)
(1.50964 0.0380754 0)
(1.5102 0.038525 0)
(1.51099 0.0380436 0)
(1.51239 0.0366272 0)
(1.51445 0.0346152 0)
(1.51694 0.0331484 0)
(1.51953 0.032784 0)
(1.52204 0.0326944 0)
(1.5246 0.0323121 0)
(1.52728 0.0316295 0)
(1.53014 0.0307172 0)
(1.53319 0.0296763 0)
(1.53635 0.0285822 0)
(1.53952 0.0277706 0)
(1.54259 0.0273143 0)
(1.54557 0.027022 0)
(1.54848 0.0265441 0)
(1.55142 0.0259715 0)
(1.5544 0.0253588 0)
(1.55743 0.0248285 0)
(1.56048 0.0242456 0)
(1.56353 0.0237163 0)
(1.56653 0.0232508 0)
(1.56937 0.023145 0)
(1.572 0.0232518 0)
(1.57448 0.0233644 0)
(1.5769 0.0234757 0)
(1.57932 0.0235458 0)
(1.58178 0.0238234 0)
(1.58404 0.0240848 0)
(1.58625 0.0243878 0)
(1.58857 0.0251187 0)
(1.59081 0.0256022 0)
(1.59297 0.0264123 0)
(1.59508 0.0267269 0)
(1.59688 0.0268334 0)
(1.60022 0.0272551 0)
(1.79185 -0.214908 0)
(1.78776 -0.206252 0)
(1.77991 -0.193278 0)
(1.77519 -0.180474 0)
(1.77403 -0.173377 0)
(1.77115 -0.16401 0)
(1.7673 -0.154621 0)
(1.76576 -0.147322 0)
(1.76543 -0.140233 0)
(1.7665 -0.130942 0)
(1.76595 -0.122937 0)
(1.76513 -0.115602 0)
(1.76739 -0.111037 0)
(1.7692 -0.104136 0)
(1.76887 -0.097598 0)
(1.77157 -0.0927145 0)
(1.77275 -0.0881769 0)
(1.77361 -0.0837142 0)
(1.77658 -0.0799533 0)
(1.77755 -0.0762252 0)
(1.77906 -0.0721765 0)
(1.78177 -0.0694222 0)
(1.7837 -0.066331 0)
(1.78513 -0.0632787 0)
(1.78797 -0.0608947 0)
(1.79077 -0.0587101 0)
(1.79222 -0.0563071 0)
(1.79434 -0.0539813 0)
(1.79685 -0.0524054 0)
(1.79924 -0.0506337 0)
(1.80151 -0.0480937 0)
(1.80321 -0.0459469 0)
(1.80468 -0.0441198 0)
(1.80637 -0.0425644 0)
(1.80823 -0.0408008 0)
(1.80991 -0.0382746 0)
(1.81094 -0.036736 0)
(1.81265 -0.0347781 0)
(1.81448 -0.0325279 0)
(1.8156 -0.0307214 0)
(1.81704 -0.0290287 0)
(1.81852 -0.0274056 0)
(1.81968 -0.0261409 0)
(1.8208 -0.0248516 0)
(1.82205 -0.0233573 0)
(1.82337 -0.0219215 0)
(1.82477 -0.020619 0)
(1.82621 -0.0194194 0)
(1.82763 -0.0183615 0)
(1.82896 -0.0174586 0)
(1.83017 -0.0166667 0)
(1.83133 -0.0159113 0)
(1.83249 -0.0151474 0)
(1.8337 -0.0142806 0)
(1.83493 -0.0132725 0)
(1.83622 -0.0121201 0)
(1.83763 -0.0108196 0)
(1.83912 -0.0094396 0)
(1.84068 -0.0078363 0)
(1.84224 -0.00587544 0)
(1.84368 -0.00363916 0)
(1.8449 -0.00112267 0)
(1.84569 0.00178934 0)
(1.84586 0.00526733 0)
(1.84534 0.00939778 0)
(1.84422 0.014523 0)
(1.84249 0.0209089 0)
(1.84021 0.0282662 0)
(1.83751 0.035706 0)
(1.83469 0.041961 0)
(1.83246 0.0453175 0)
(1.83002 0.0461319 0)
(1.82735 0.0464006 0)
(1.82459 0.0466819 0)
(1.82274 0.0470026 0)
(1.82166 0.0474743 0)
(1.8194 0.0470376 0)
(1.81688 0.0455077 0)
(1.81187 0.0414238 0)
(1.80152 0.0327304 0)
(1.78983 0.0227031 0)
(1.76592 -0.00103607 0)
(1.74348 -0.0155371 0)
(1.72513 -0.0313557 0)
(1.7158 -0.0517476 0)
(1.701 -0.0538129 0)
(1.64984 -0.0284523 0)
(1.57543 0.00604547 0)
(1.53302 0.0276282 0)
(1.52756 0.0440674 0)
(1.52739 0.0438851 0)
(1.52807 0.0414869 0)
(1.53051 0.0373777 0)
(1.53209 0.0363012 0)
(1.53236 0.0369893 0)
(1.53215 0.0384662 0)
(1.5323 0.0394756 0)
(1.53291 0.0389181 0)
(1.53419 0.0368308 0)
(1.53626 0.0342948 0)
(1.53868 0.0328535 0)
(1.54104 0.0326404 0)
(1.54332 0.0327672 0)
(1.54565 0.0324834 0)
(1.54816 0.03168 0)
(1.55093 0.0305037 0)
(1.554 0.0291608 0)
(1.55726 0.0280151 0)
(1.56044 0.0275774 0)
(1.56348 0.0275411 0)
(1.56645 0.0275146 0)
(1.56936 0.027207 0)
(1.5723 0.0267556 0)
(1.57532 0.026201 0)
(1.57844 0.0257285 0)
(1.58159 0.0252474 0)
(1.58467 0.0247449 0)
(1.58756 0.0242266 0)