/*--------------------------------*- C++ -*----------------------------------*\
  =========                 |
  \\      /  F ield         | OpenFOAM: The Open Source CFD Toolbox
   \\    /   O peration     | Website:  https://openfoam.org
    \\  /    A nd           | Version:  7
     \\/     M anipulation  |
\*---------------------------------------------------------------------------*/
FoamFile
{
    version     2.0;
    format      ascii;
    class       volVectorField;
    location    "20";
    object      U;
}
// * * * * * * * * * * * * * * * * * * * * * * * * * * * * * * * * * * * * * //

dimensions      [0 1 -1 0 0 0 0];

internalField   nonuniform List<vector> 
2413
(
(2 2.24776e-15 0)
(2 1.37716e-15 0)
(2 9.06502e-16 0)
(2 7.66956e-16 0)
(2 5.6672e-16 0)
(2 7.14033e-16 0)
(2 1.00237e-15 0)
(2 9.91228e-16 0)
(2 1.92885e-15 0)
(2 2.5696e-15 0)
(2 2.8893e-15 0)
(2 3.03366e-15 0)
(2 3.2815e-15 0)
(2 3.74564e-15 0)
(2 3.74859e-15 0)
(2 3.49137e-15 0)
(2 3.17449e-15 0)
(2 3.16437e-15 0)
(2 3.01028e-15 0)
(2 2.21846e-15 0)
(2 1.87112e-15 0)
(2 1.10476e-15 0)
(2 8.72151e-16 0)
(2 4.45895e-16 0)
(2 -1.01988e-16 0)
(2 -4.9863e-16 0)
(2 -5.52259e-16 0)
(2 -5.72625e-16 0)
(2 -9.72636e-16 0)
(2 -1.91204e-15 0)
(2 -2.09493e-15 0)
(2 -1.95957e-15 0)
(2 -1.5487e-15 0)
(2 -6.96253e-16 0)
(2 -1.07935e-15 0)
(2 -7.13182e-16 0)
(2 -3.43613e-16 0)
(2 -5.97938e-16 0)
(2 -8.899e-16 0)
(2 -1.03425e-15 0)
(2 -7.06226e-16 0)
(2 -1.01366e-16 0)
(2 5.53479e-16 0)
(2 1.92202e-15 0)
(2 2.23705e-15 0)
(2 2.22503e-15 0)
(2 1.86581e-15 0)
(2 1.45685e-15 0)
(2 8.79656e-16 0)
(2 5.99719e-16 0)
(2 3.21257e-16 0)
(2 1.38015e-16 0)
(2 1.04972e-16 0)
(2 2.37105e-16 0)
(2 3.00935e-16 0)
(2 4.36501e-16 0)
(2 6.27837e-16 0)
(2 6.22659e-16 0)
(2 7.90495e-16 0)
(2 9.15809e-16 0)
(2 8.95243e-16 0)
(2 9.44992e-16 0)
(2 1.12706e-15 0)
(2 1.30074e-15 0)
(2 1.49485e-15 0)
(2 1.57206e-15 0)
(2 1.21305e-15 0)
(2 9.91386e-16 0)
(2 8.07539e-16 0)
(2 6.16902e-16 0)
(2 7.57788e-16 0)
(2 8.6435e-16 0)
(2 8.42202e-16 0)
(2 9.88159e-16 0)
(2 1.83498e-15 0)
(2 1.91254e-15 0)
(2 1.88818e-15 0)
(2 1.71458e-15 0)
(2 1.41237e-15 0)
(2 1.05844e-15 0)
(2 8.21753e-16 0)
(2 2.44161e-16 0)
(2 -7.68024e-16 0)
(2 -1.43706e-15 0)
(2 -1.94099e-15 0)
(2 -2.04796e-15 0)
(2 -1.84713e-15 0)
(2 -1.54624e-15 0)
(2 -1.3418e-15 0)
(2 -6.78829e-16 0)
(2 -4.65466e-16 0)
(2 -1.7537e-16 0)
(2 3.07539e-16 0)
(2 3.74762e-16 0)
(2 3.17839e-16 0)
(2 1.2234e-16 0)
(2 7.99426e-17 0)
(2 -1.44272e-16 0)
(2 -2.70973e-16 0)
(2 -4.10437e-16 0)
(2 8.94353e-17 0)
(2 1.85614e-16 0)
(2 -3.07832e-16 0)
(2 -5.86052e-16 0)
(2 -6.54653e-16 0)
(2 -6.9582e-16 0)
(2 -4.51551e-16 0)
(2 1.71719e-17 0)
(2 2.08206e-16 0)
(2 2.8692e-16 0)
(2 5.05528e-16 0)
(2 6.22052e-16 0)
(2 7.8688e-16 0)
(2 1.02055e-15 0)
(2 1.32812e-15 0)
(2 1.55148e-15 0)
(2 1.60342e-15 0)
(2 1.62278e-15 0)
(2 1.74077e-15 0)
(2 1.95546e-15 0)
(2 2.23829e-15 0)
(2 2.1993e-15 0)
(2 2.10647e-15 0)
(2 2.02264e-15 0)
(2 1.79351e-15 0)
(2 1.50472e-15 0)
(2 1.33415e-15 0)
(2 1.30553e-15 0)
(2 1.2044e-15 0)
(2 1.51588e-15 0)
(2 1.95193e-15 0)
(2 1.81389e-15 0)
(2 1.53693e-15 0)
(2 1.58742e-15 0)
(2 2.00691e-15 0)
(2 1.99264e-15 0)
(2 2.39314e-15 0)
(2 3.09799e-15 0)
(2 3.47023e-15 0)
(2 3.70948e-15 0)
(2 3.62715e-15 0)
(2 3.08102e-15 0)
(2 2.59115e-15 0)
(2 2.41238e-15 0)
(2 1.82433e-15 0)
(2 1.67713e-15 0)
(2 1.60139e-15 0)
(2 1.58865e-15 0)
(2 1.51677e-15 0)
(2 1.14791e-15 0)
(2 4.7494e-16 0)
(2 6.88137e-17 0)
(2 1.85603e-16 0)
(2 7.26665e-16 0)
(2 -2.50418e-16 0)
(2 -3.09289e-16 0)
(2 -4.0096e-16 0)
(2 -3.41313e-16 0)
(2 -3.59053e-16 0)
(2 -2.94177e-16 0)
(2 -1.82332e-16 0)
(2 4.41559e-16 0)
(2 9.5459e-16 0)
(2 1.13392e-15 0)
(2 1.32177e-15 0)
(2 1.36008e-15 0)
(2 1.45585e-15 0)
(2 1.44145e-15 0)
(2 1.42367e-15 0)
(2 1.19176e-15 0)
(2 1.23189e-15 0)
(2 1.30707e-15 0)
(2 1.236e-15 0)
(2 1.22345e-15 0)
(2 1.20637e-15 0)
(2 1.0003e-15 0)
(2 7.6636e-16 0)
(2 6.21571e-16 0)
(2 6.95472e-16 0)
(2 7.70259e-16 0)
(2 8.58474e-16 0)
(2 8.68319e-16 0)
(2 1.02574e-15 0)
(2 1.44956e-15 0)
(2 1.39585e-15 0)
(2 1.25263e-15 0)
(2 1.12156e-15 0)
(2 1.08447e-15 0)
(2 1.12537e-15 0)
(2 1.16261e-15 0)
(2 9.12121e-16 0)
(2 1.03797e-15 0)
(2 1.14711e-15 0)
(2 2.02564e-15 0)
(2 2.18792e-15 0)
(2 2.16071e-15 0)
(2 2.02736e-15 0)
(2 1.93796e-15 0)
(2 1.60485e-15 0)
(2 1.65654e-15 0)
(2 1.50343e-15 0)
(2 9.68442e-16 0)
(2 1.14527e-16 0)
(2 -2.52527e-16 0)
(2 -1.56571e-16 0)
(2 7.73092e-17 0)
(2 1.5794e-16 0)
(2 1.11693e-16 0)
(2 -3.66008e-16 0)
(2 -6.1892e-16 0)
(2 -8.404e-16 0)
(2 -8.88273e-16 0)
(2 -6.76935e-16 0)
(2 -6.62928e-16 0)
(2 -7.10924e-16 0)
(2 -1.10136e-15 0)
(2 -1.20326e-15 0)
(2 -1.2477e-15 0)
(2 -1.20459e-15 0)
(2 -9.19929e-16 0)
(2 -3.98841e-16 0)
(2 1.38133e-17 0)
(2 3.19459e-16 0)
(2 5.56926e-16 0)
(2 6.9243e-16 0)
(2 9.39305e-16 0)
(2 8.98879e-16 0)
(2 7.3379e-16 0)
(2 6.06655e-16 0)
(2 4.84752e-16 0)
(2 -2.68077e-16 0)
(2 -3.78635e-16 0)
(2 -2.59652e-16 0)
(2 -1.976e-16 0)
(2 -2.1296e-16 0)
(2 -4.19035e-16 0)
(2 -7.13234e-16 0)
(2 -9.81392e-16 0)
(2 -1.03296e-15 0)
(2 -7.1996e-16 0)
(2 -1.59964e-16 0)
(2 2.26792e-16 0)
(2 -2.2692e-16 0)
(2 -1.65378e-16 0)
(2 3.99956e-16 0)
(2 5.54814e-16 0)
(2 9.39811e-16 0)
(2 1.09283e-15 0)
(2 9.75891e-16 0)
(2 7.86656e-16 0)
(2 6.36825e-16 0)
(2 8.54061e-16 0)
(2 1.2044e-15 0)
(2 1.29014e-15 0)
(2 1.75771e-15 0)
(2 2.88999e-15 0)
(2 3.38817e-15 0)
(2 3.94496e-15 0)
(2 4.01169e-15 0)
(2 4.11315e-15 0)
(2 4.45703e-15 0)
(2 4.73526e-15 0)
(2 4.92397e-15 0)
(2 4.7217e-15 0)
(2 4.24914e-15 0)
(2 4.18889e-15 0)
(2 4.28191e-15 0)
(2 4.37287e-15 0)
(2 4.48952e-15 0)
(2 4.52752e-15 0)
(2 4.47948e-15 0)
(2 4.01722e-15 0)
(2 3.43299e-15 0)
(2 3.19115e-15 0)
(2 1.81652e-15 0)
(2 1.84429e-15 0)
(2 1.80654e-15 0)
(2 1.55156e-15 0)
(2 1.15009e-15 0)
(2 8.29802e-16 0)
(2 4.81465e-16 0)
(2 4.78766e-16 0)
(2 1.15627e-15 0)
(2 1.37961e-15 0)
(2 1.24797e-15 0)
(2 1.26271e-15 0)
(2 1.13239e-15 0)
(2 1.36141e-15 0)
(2 1.48957e-15 0)
(2 1.51028e-15 0)
(2 1.49545e-15 0)
(2 1.26252e-15 0)
(2 1.05673e-15 0)
(2 1.13467e-15 0)
(2 1.04048e-15 0)
(2 5.89418e-16 0)
(2 3.15067e-16 0)
(2 3.19602e-16 0)
(2 1.64947e-16 0)
(2 7.49523e-18 0)
(2 -2.28732e-16 0)
(2 -3.6256e-16 0)
(2 -3.46506e-16 0)
(2 -3.30019e-16 0)
(2 -3.67727e-16 0)
(2 -3.29328e-16 0)
(2 -1.68444e-16 0)
(2 -1.25131e-16 0)
(2 -1.69434e-16 0)
(2 -2.11414e-16 0)
(2 1.27704e-16 0)
(2 3.70489e-16 0)
(2 6.37327e-16 0)
(2 3.48378e-16 0)
(2 1.43417e-16 0)
(2 1.3686e-16 0)
(2 2.49241e-16 0)
(2 4.71398e-16 0)
(2 7.14891e-16 0)
(2 6.91479e-16 0)
(2 6.36862e-16 0)
(2 1.19386e-15 0)
(2 1.34305e-15 0)
(2 1.07726e-15 0)
(2 7.71209e-16 0)
(2 2.30801e-16 0)
(2 -1.46014e-16 0)
(2 -6.62768e-16 0)
(2 -1.05023e-15 0)
(2 -1.75848e-15 0)
(2 -1.94307e-15 0)
(2 -2.27872e-15 0)
(2 -2.01382e-15 0)
(2 -1.76867e-15 0)
(2 -7.48021e-16 0)
(2 -4.11047e-16 0)
(2 -6.26659e-17 0)
(2 2.52229e-16 0)
(2 4.08854e-16 0)
(2 3.98441e-16 0)
(2 3.092e-16 0)
(2 1.51754e-16 0)
(2 1.01014e-16 0)
(2 8.11245e-16 0)
(2 1.08473e-15 0)
(2 1.17533e-15 0)
(2 1.27023e-15 0)
(2 1.18625e-15 0)
(2 8.19629e-16 0)
(2 3.53013e-16 0)
(2 -1.22461e-16 0)
(2 -1.15842e-16 0)
(2 -4.38126e-16 0)
(2 -6.76235e-16 0)
(2 -8.00249e-16 0)
(2 -7.85204e-16 0)
(2 -7.57391e-16 0)
(2 -7.96088e-16 0)
(2 -7.92115e-16 0)
(2 -8.05935e-16 0)
(2 -8.11102e-16 0)
(2 -7.54865e-16 0)
(2 -5.00018e-16 0)
(2 -2.28e-16 0)
(2 2.02551e-16 0)
(2 4.13136e-16 0)
(2 6.20972e-16 0)
(2 8.60547e-16 0)
(2 1.16144e-15 0)
(2 1.21713e-15 0)
(2 1.35751e-15 0)
(2 1.57993e-15 0)
(2 1.79935e-15 0)
(2 2.0945e-15 0)
(2 3.38841e-15 0)
(2 3.51154e-15 0)
(2 2.91369e-15 0)
(2 2.81247e-15 0)
(2 2.81428e-15 0)
(2 2.38645e-15 0)
(2 2.183e-15 0)
(2 3.2369e-15 0)
(2 3.47773e-15 0)
(2 3.61323e-15 0)
(2 3.8573e-15 0)
(2 3.9794e-15 0)
(2 3.95068e-15 0)
(2 4.04934e-15 0)
(2 3.59277e-15 0)
(2 3.23114e-15 0)
(2 2.87861e-15 0)
(2 2.71109e-15 0)
(2 2.62714e-15 0)
(2 2.54792e-15 0)
(2 4.00783e-15 0)
(2 4.06517e-15 0)
(2 4.22565e-15 0)
(2 4.21034e-15 0)
(2 4.18153e-15 0)
(2 3.95552e-15 0)
(2 4.03092e-15 0)
(2 3.62419e-15 0)
(2 3.22414e-15 0)
(2 2.73381e-15 0)
(2 2.61272e-15 0)
(2 2.21765e-15 0)
(2 2.02872e-15 0)
(2 1.85712e-15 0)
(2 1.39207e-15 0)
(2 1.00932e-15 0)
(2 7.23423e-16 0)
(2 6.0401e-16 0)
(2 6.56362e-16 0)
(2 6.16345e-16 0)
(2 4.65936e-16 0)
(2 3.33802e-16 0)
(2 6.11162e-17 0)
(2 -1.00643e-16 0)
(2 -6.30613e-17 0)
(2 -1.2784e-16 0)
(2 -1.00152e-16 0)
(2 -4.01123e-16 0)
(2 -7.51356e-16 0)
(2 -9.53481e-16 0)
(2 -1.01127e-15 0)
(2 -7.80128e-16 0)
(2 -4.71608e-16 0)
(2 9.63029e-17 0)
(2 2.81207e-16 0)
(2 2.88898e-16 0)
(2 2.82365e-16 0)
(2 2.59582e-16 0)
(2 3.32388e-16 0)
(2 4.58193e-16 0)
(2 6.245e-16 0)
(2 9.43606e-16 0)
(2 1.12223e-15 0)
(2 1.28664e-15 0)
(2 1.39553e-15 0)
(2 1.408e-15 0)
(2 1.39334e-15 0)
(2 1.41869e-15 0)
(2 1.40081e-15 0)
(2 1.29043e-15 0)
(2 9.88166e-16 0)
(2 5.94951e-16 0)
(2 4.1704e-16 0)
(2 2.5951e-16 0)
(2 2.77805e-16 0)
(2 2.02098e-16 0)
(2 2.85689e-16 0)
(2 3.27418e-16 0)
(2 9.37708e-17 0)
(2 2.22322e-16 0)
(2 1.29799e-15 0)
(2 1.58366e-15 0)
(2 1.69947e-15 0)
(2 1.64643e-15 0)
(2 1.55156e-15 0)
(2 1.48983e-15 0)
(2 1.19656e-15 0)
(2 6.93718e-16 0)
(2 5.02474e-16 0)
(2 4.87098e-16 0)
(2 8.09727e-16 0)
(2 1.31258e-15 0)
(2 1.48198e-15 0)
(2 1.36059e-15 0)
(2 1.53818e-15 0)
(2 1.33088e-15 0)
(2 9.10591e-16 0)
(2 7.28795e-16 0)
(2 3.96422e-16 0)
(2 -2.73296e-16 0)
(2 -7.59503e-16 0)
(2 -8.55643e-16 0)
(2 -9.11191e-16 0)
(2 -5.41759e-16 0)
(2 1.25677e-16 0)
(2 4.14774e-16 0)
(2 6.99653e-16 0)
(2 9.30577e-16 0)
(2 1.10863e-15 0)
(2 1.58978e-15 0)
(2 1.79762e-15 0)
(2 1.63379e-15 0)
(2 1.38194e-15 0)
(2 9.8655e-16 0)
(2 4.21841e-16 0)
(2 3.36763e-16 0)
(2 6.4286e-16 0)
(2 5.18402e-16 0)
(2 1.00338e-16 0)
(2 1.41234e-16 0)
(2 6.77307e-16 0)
(2 9.19356e-16 0)
(2 1.35998e-15 0)
(2 1.88223e-15 0)
(2 2.16125e-15 0)
(2 2.64632e-15 0)
(2 2.80122e-15 0)
(2 2.87508e-15 0)
(2 2.89198e-15 0)
(2 2.89464e-15 0)
(2 2.91087e-15 0)
(2 3.07936e-15 0)
(2 3.16921e-15 0)
(2 3.36328e-15 0)
(2 3.45748e-15 0)
(2 3.71875e-15 0)
(2 3.76665e-15 0)
(2 4.33275e-15 0)
(2 4.43565e-15 0)
(2 4.39384e-15 0)
(2 3.3486e-15 0)
(2 3.54984e-15 0)
(2 3.74257e-15 0)
(2 4.00685e-15 0)
(2 4.10631e-15 0)
(2 4.16934e-15 0)
(2 4.20442e-15 0)
(2 4.25254e-15 0)
(2 4.1962e-15 0)
(2 3.63235e-15 0)
(2 3.06014e-15 0)
(2 2.6276e-15 0)
(2 2.33833e-15 0)
(2 2.22834e-15 0)
(2 1.75021e-15 0)
(2 1.57564e-15 0)
(2 1.49656e-15 0)
(2 1.55361e-15 0)
(2 1.59977e-15 0)
(2 1.52736e-15 0)
(2 1.53163e-15 0)
(2 1.47928e-15 0)
(2 1.17866e-15 0)
(2 5.89628e-16 0)
(2 -5.80801e-16 0)
(2 -9.19249e-16 0)
(2 -9.13665e-16 0)
(2 -1.00712e-15 0)
(2 -1.17896e-15 0)
(2 -1.12957e-15 0)
(2 -7.95531e-16 0)
(2 -3.90075e-16 0)
(2 2.60564e-17 0)
(2 3.95167e-16 0)
(2 7.33481e-16 0)
(2 8.66971e-16 0)
(2 1.04751e-15 0)
(2 1.37113e-15 0)
(2 1.45421e-15 0)
(2 1.85397e-15 0)
(2 1.96071e-15 0)
(2 2.14554e-15 0)
(2 2.33872e-15 0)
(2 2.36603e-15 0)
(2 2.32951e-15 0)
(2 2.41354e-15 0)
(2 2.31271e-15 0)
(2 1.56167e-15 0)
(2 1.36238e-15 0)
(2 1.46631e-15 0)
(2 1.64544e-15 0)
(2 1.59622e-15 0)
(2 1.34706e-15 0)
(2 1.3923e-15 0)
(2 1.44638e-15 0)
(2 1.52929e-15 0)
(2 1.62637e-15 0)
(2 1.71806e-15 0)
(2 1.90545e-15 0)
(2 2.00017e-15 0)
(2 1.64371e-15 0)
(2 1.04295e-15 0)
(2 4.36234e-16 0)
(2 3.45177e-16 0)
(2 5.26317e-16 0)
(2 8.25568e-16 0)
(2 9.02132e-16 0)
(2 6.90792e-16 0)
(2 6.1322e-16 0)
(2 9.05388e-16 0)
(2 1.10657e-15 0)
(2 1.03515e-15 0)
(2 9.75326e-16 0)
(2 9.55246e-16 0)
(2 8.00333e-16 0)
(2 7.41807e-16 0)
(2 7.38884e-16 0)
(2 7.5228e-16 0)
(2 7.45254e-16 0)
(2 2.78311e-16 0)
(2 -1.79985e-17 0)
(2 -5.00722e-17 0)
(2 -2.54349e-16 0)
(2 2.14517e-16 0)
(2 7.47183e-16 0)
(2 1.26821e-15 0)
(2 1.59582e-15 0)
(2 2.07734e-15 0)
(2 2.21497e-15 0)
(2 2.32139e-15 0)
(2 2.313e-15 0)
(2 2.20469e-15 0)
(2 1.98523e-15 0)
(2 1.70602e-15 0)
(2 1.44885e-15 0)
(2 1.29118e-15 0)
(2 9.46632e-16 0)
(2 8.65899e-16 0)
(2 8.24367e-16 0)
(2 7.78051e-16 0)
(2 6.61561e-16 0)
(2 5.11502e-16 0)
(2 4.25974e-16 0)
(2 3.17736e-16 0)
(2 1.43948e-16 0)
(2 -3.98026e-17 0)
(2 -1.01677e-17 0)
(2 -5.61316e-17 0)
(2 -1.37732e-16 0)
(2 6.24155e-16 0)
(2 1.09512e-15 0)
(2 1.28345e-15 0)
(2 1.50171e-15 0)
(2 1.65625e-15 0)
(2 1.97761e-15 0)
(2 2.41255e-15 0)
(2 2.75217e-15 0)
(2 2.89169e-15 0)
(2 3.35902e-15 0)
(2 3.73585e-15 0)
(2 2.13784e-15 0)
(2 2.34962e-15 0)
(2 2.64018e-15 0)
(2 2.73368e-15 0)
(2 2.62536e-15 0)
(2 2.38467e-15 0)
(2 2.18023e-15 0)
(2 2.06956e-15 0)
(2 1.86233e-15 0)
(2 1.8024e-15 0)
(2 1.91635e-15 0)
(2 1.93391e-15 0)
(2 1.92082e-15 0)
(2 2.01558e-15 0)
(2 1.96197e-15 0)
(2 2.16841e-15 0)
(2 2.34276e-15 0)
(2 2.37044e-15 0)
(2 2.4519e-15 0)
(2 2.64079e-15 0)
(2 2.64831e-15 0)
(2 2.53544e-15 0)
(2 2.4594e-15 0)
(2 1.9998e-15 0)
(2 1.54888e-15 0)
(2 1.34606e-15 0)
(2 1.06823e-15 0)
(2 9.41461e-16 0)
(2 9.3313e-16 0)
(2 9.49954e-16 0)
(2 9.70816e-16 0)
(2 1.02994e-15 0)
(2 8.70326e-16 0)
(2 6.51125e-16 0)
(2 1.26107e-15 0)
(2 1.71113e-15 0)
(2 2.18051e-15 0)
(2 2.42545e-15 0)
(2 2.56776e-15 0)
(2 2.55668e-15 0)
(2 2.53138e-15 0)
(2 2.43707e-15 0)
(2 2.25535e-15 0)
(2 1.98006e-15 0)
(2 1.86138e-15 0)
(2 1.74053e-15 0)
(2 1.52678e-15 0)
(2 1.38477e-15 0)
(2 1.33049e-15 0)
(2 1.23357e-15 0)
(2 1.03929e-15 0)
(2 8.55484e-16 0)
(2 7.89125e-16 0)
(2 1.04795e-15 0)
(2 2.13077e-15 0)
(2 2.52805e-15 0)
(2 2.77135e-15 0)
(2 2.87686e-15 0)
(2 3.01149e-15 0)
(2 2.5212e-15 0)
(2 2.15869e-15 0)
(2 1.82925e-15 0)
(2 1.56877e-15 0)
(2 1.65525e-15 0)
(2 1.51872e-15 0)
(2 1.26607e-15 0)
(2 1.08591e-15 0)
(2 1.34348e-15 0)
(2 1.56477e-15 0)
(2 1.3923e-15 0)
(2 1.18882e-15 0)
(2 7.7114e-16 0)
(2 6.50415e-16 0)
(2 7.29163e-16 0)
(2 6.6405e-16 0)
(2 5.80752e-16 0)
(2 5.95296e-16 0)
(2 7.25118e-16 0)
(2 1.20902e-15 0)
(2 1.5367e-15 0)
(2 1.76604e-15 0)
(2 2.25e-15 0)
(2 2.64562e-15 0)
(2 2.77081e-15 0)
(2 2.91505e-15 0)
(2 2.94001e-15 0)
(2 2.90996e-15 0)
(2 2.92801e-15 0)
(2 2.88392e-15 0)
(2 2.60736e-15 0)
(2 2.29151e-15 0)
(2 1.86324e-15 0)
(2 1.79773e-15 0)
(2 1.77385e-15 0)
(2 1.93535e-15 0)
(2 2.00497e-15 0)
(2 1.20518e-15 0)
(2 8.226e-16 0)
(2 6.26654e-16 0)
(2 6.29595e-16 0)
(2 6.42604e-16 0)
(2 5.06166e-16 0)
(2 -1.14907e-16 0)
(2 -3.13868e-16 0)
(2 -2.96923e-16 0)
(2 -2.20939e-16 0)
(2 -2.00675e-16 0)
(2 -4.70579e-16 0)
(2 -5.30383e-16 0)
(2 -4.49553e-16 0)
(2 -3.58532e-16 0)
(2 -1.6056e-16 0)
(2 -1.56444e-16 0)
(2 -7.08434e-17 0)
(2 1.33112e-16 0)
(2 8.07401e-16 0)
(2 1.11026e-15 0)
(2 1.42455e-15 0)
(2 1.55195e-15 0)
(2 1.40681e-15 0)
(2 3.20433e-16 0)
(2 2.21076e-16 0)
(2 9.3623e-16 0)
(2 1.25143e-15 0)
(2 1.37019e-15 0)
(2 1.56335e-15 0)
(2 1.90151e-15 0)
(2 1.94873e-15 0)
(2 1.71124e-15 0)
(2 2.00397e-15 0)
(2 2.65646e-15 0)
(2 2.75971e-15 0)
(2 3.02067e-15 0)
(2 3.25675e-15 0)
(2 3.30559e-15 0)
(2 3.31469e-15 0)
(2 3.25099e-15 0)
(2 3.29689e-15 0)
(2 3.34068e-15 0)
(2 3.11065e-15 0)
(2 3.01087e-15 0)
(2 2.45154e-15 0)
(2 2.03984e-15 0)
(2 2.17332e-15 0)
(2 2.88923e-15 0)
(2 2.9845e-15 0)
(2 3.0638e-15 0)
(2 3.28526e-15 0)
(2 2.92006e-15 0)
(2 2.66498e-15 0)
(2 2.58092e-15 0)
(2 2.30603e-15 0)
(2 2.07356e-15 0)
(2 1.97471e-15 0)
(2 2.10722e-15 0)
(2 2.26285e-15 0)
(2 2.3302e-15 0)
(2 2.29913e-15 0)
(2 2.26826e-15 0)
(2 2.03492e-15 0)
(2 1.82995e-15 0)
(2 1.79353e-15 0)
(2 1.63367e-15 0)
(2 1.4828e-15 0)
(2 1.35401e-15 0)
(2 1.30811e-15 0)
(2 1.4145e-15 0)
(2 1.75844e-15 0)
(2 1.91993e-15 0)
(2 2.14332e-15 0)
(2 2.17671e-15 0)
(2 2.21763e-15 0)
(2 3.15446e-15 0)
(2 4.30089e-15 0)
(2 4.31031e-15 0)
(2 4.2526e-15 0)
(2 4.3317e-15 0)
(2 4.57289e-15 0)
(2 4.43646e-15 0)
(2 4.15344e-15 0)
(2 4.03053e-15 0)
(2 3.61645e-15 0)
(2 3.56196e-15 0)
(2 3.3185e-15 0)
(2 2.83572e-15 0)
(2 1.7274e-15 0)
(2 1.52784e-15 0)
(2 1.39664e-15 0)
(2 1.37271e-15 0)
(2 1.2049e-15 0)
(2 1.22506e-15 0)
(2 1.0955e-15 0)
(2 8.72391e-16 0)
(2 9.19302e-16 0)
(2 1.11224e-15 0)
(2 1.26005e-15 0)
(2 1.39016e-15 0)
(2 1.5536e-15 0)
(2 1.84231e-15 0)
(2 2.33686e-15 0)
(2 2.85574e-15 0)
(2 3.31272e-15 0)
(2 3.52738e-15 0)
(2 3.55162e-15 0)
(2 3.31179e-15 0)
(2 3.10969e-15 0)
(2 3.04479e-15 0)
(2 2.64618e-15 0)
(2 2.548e-15 0)
(2 2.37305e-15 0)
(2 2.3405e-15 0)
(2 2.32145e-15 0)
(2 2.27339e-15 0)
(2 2.37385e-15 0)
(2 2.47095e-15 0)
(2 2.63756e-15 0)
(2 2.2985e-15 0)
(2 1.66834e-15 0)
(2 8.09403e-16 0)
(2 3.92802e-16 0)
(2 1.85238e-16 0)
(2 -1.30507e-16 0)
(2 -2.07721e-16 0)
(2 -2.64582e-16 0)
(2 -2.37093e-16 0)
(2 -1.64913e-16 0)
(2 -1.18645e-16 0)
(2 5.32983e-17 0)
(2 5.50664e-16 0)
(2 -2.93821e-16 0)
(2 -1.15226e-15 0)
(2 -1.17006e-15 0)
(2 -9.62506e-16 0)
(2 -7.35672e-16 0)
(2 -5.30414e-16 0)
(2 3.17628e-16 0)
(2 6.66642e-16 0)
(2 7.71567e-16 0)
(2 7.86966e-16 0)
(2 9.20859e-16 0)
(2 8.13592e-16 0)
(2 9.2016e-16 0)
(2 1.21849e-15 0)
(2 1.24199e-15 0)
(2 1.18624e-15 0)
(2 2.08729e-15 0)
(2 2.49227e-15 0)
(2 2.83674e-15 0)
(2 3.52351e-15 0)
(2 3.69914e-15 0)
(2 3.35275e-15 0)
(2 2.81181e-15 0)
(2 2.70584e-15 0)
(2 2.657e-15 0)
(2 2.63715e-15 0)
(2 2.61641e-15 0)
(2 2.62519e-15 0)
(2 2.71509e-15 0)
(2 2.42591e-15 0)
(2 2.33418e-15 0)
(2 2.12896e-15 0)
(2 1.98049e-15 0)
(2 2.00182e-15 0)
(2 2.16464e-15 0)
(2 2.3184e-15 0)
(2 2.32174e-15 0)
(2 2.26198e-15 0)
(2 2.15769e-15 0)
(2 1.58311e-15 0)
(2 1.474e-15 0)
(2 1.60938e-15 0)
(2 1.59084e-15 0)
(2 1.5674e-15 0)
(2 1.4964e-15 0)
(2 1.24831e-15 0)
(2 1.00659e-15 0)
(2 9.68585e-16 0)
(2 1.10966e-15 0)
(2 1.37754e-15 0)
(2 1.47738e-15 0)
(2 1.30875e-15 0)
(2 1.23442e-15 0)
(2 1.27023e-15 0)
(2 1.01921e-15 0)
(2 9.37607e-16 0)
(2 1.05263e-15 0)
(2 1.36728e-15 0)
(2 1.74092e-15 0)
(2 1.9497e-15 0)
(2 2.26328e-15 0)
(2 2.58557e-15 0)
(2 2.47873e-15 0)
(2 2.3346e-15 0)
(2 2.14292e-15 0)
(2 2.65987e-15 0)
(2 3.08441e-15 0)
(2 3.6671e-15 0)
(2 3.79687e-15 0)
(2 3.77704e-15 0)
(2 3.71443e-15 0)
(2 3.6315e-15 0)
(2 3.31463e-15 0)
(2 3.03324e-15 0)
(2 2.72959e-15 0)
(2 1.9917e-15 0)
(2 1.322e-15 0)
(2 9.13848e-16 0)
(2 6.91869e-16 0)
(2 6.49931e-16 0)
(2 6.64139e-16 0)
(2 6.39335e-16 0)
(2 6.51803e-16 0)
(2 7.11103e-16 0)
(2 7.26916e-16 0)
(2 7.60785e-16 0)
(2 8.05192e-16 0)
(2 9.29604e-16 0)
(2 9.47417e-16 0)
(2 9.17732e-16 0)
(2 1.7411e-15 0)
(2 2.33153e-15 0)
(2 2.54942e-15 0)
(2 2.8235e-15 0)
(2 2.85627e-15 0)
(2 2.49428e-15 0)
(2 2.15163e-15 0)
(2 1.84623e-15 0)
(2 1.66238e-15 0)
(2 1.46643e-15 0)
(2 1.41883e-15 0)
(2 1.4686e-15 0)
(2 1.29926e-15 0)
(2 1.13803e-15 0)
(2 1.01339e-15 0)
(2 8.30461e-16 0)
(2 6.66482e-16 0)
(2 3.06917e-16 0)
(2 6.23496e-17 0)
(2 3.1524e-17 0)
(2 -2.23739e-16 0)
(2 -7.40073e-16 0)
(2 -8.30801e-16 0)
(2 -8.32735e-16 0)
(2 -8.01221e-16 0)
(2 -7.95906e-16 0)
(2 -7.3765e-16 0)
(2 -5.32471e-16 0)
(2 -2.07491e-16 0)
(2 2.35438e-17 0)
(2 5.38287e-17 0)
(2 1.46052e-16 0)
(2 1.60921e-16 0)
(2 1.32235e-16 0)
(2 8.629e-17 0)
(2 -6.29906e-17 0)
(2 -3.93649e-16 0)
(2 -4.67668e-16 0)
(2 -4.58201e-16 0)
(2 -3.6297e-16 0)
(2 -1.70564e-16 0)
(2 1.39251e-15 0)
(2 1.64399e-15 0)
(2 1.6555e-15 0)
(2 1.47862e-15 0)
(2 1.48273e-15 0)
(2 8.89317e-16 0)
(2 3.41065e-16 0)
(2 3.14538e-16 0)
(2 9.70193e-16 0)
(2 1.33957e-15 0)
(2 1.2835e-15 0)
(2 1.1053e-15 0)
(2 8.73908e-16 0)
(2 6.90722e-16 0)
(2 5.18294e-16 0)
(2 2.72965e-16 0)
(2 3.93783e-16 0)
(2 4.94136e-16 0)
(2 9.22208e-16 0)
(2 1.11694e-15 0)
(2 1.06812e-15 0)
(2 8.9953e-16 0)
(2 6.13426e-16 0)
(2 5.81858e-16 0)
(2 4.95808e-16 0)
(2 5.00022e-16 0)
(2 5.65876e-16 0)
(2 5.71607e-16 0)
(2 4.8111e-16 0)
(2 4.03158e-16 0)
(2 4.56758e-16 0)
(2 5.69342e-17 0)
(2 -2.9945e-17 0)
(2 -1.05425e-16 0)
(2 -4.50098e-16 0)
(2 -6.69012e-16 0)
(2 -8.51961e-16 0)
(2 -1.16847e-15 0)
(2 -1.30316e-15 0)
(2 -1.53519e-15 0)
(2 -1.71495e-15 0)
(2 -1.76916e-15 0)
(2 -1.83249e-15 0)
(2 -1.44504e-15 0)
(2 -1.19384e-15 0)
(2 -9.56212e-16 0)
(2 -1.31298e-15 0)
(2 -1.66962e-15 0)
(2 -1.99806e-15 0)
(2 -1.99492e-15 0)
(2 -1.90961e-15 0)
(2 -1.86667e-15 0)
(2 -1.62178e-15 0)
(2 -1.39917e-15 0)
(2 -6.84432e-16 0)
(2 5.99738e-16 0)
(2 1.01098e-15 0)
(2 9.24758e-16 0)
(2 8.53945e-16 0)
(2 5.28586e-16 0)
(2 -1.31132e-16 0)
(2 -2.43907e-16 0)
(2 -1.94827e-16 0)
(2 -9.44211e-17 0)
(2 7.05961e-18 0)
(2 1.03982e-16 0)
(2 1.09195e-16 0)
(2 1.75115e-16 0)
(2 2.18517e-16 0)
(2 2.51875e-16 0)
(2 1.04799e-16 0)
(2 9.17572e-17 0)
(2 7.35592e-17 0)
(2 -2.40426e-17 0)
(2 -5.81665e-17 0)
(2 -2.98369e-17 0)
(2 8.92679e-17 0)
(2 1.46794e-16 0)
(2 2.68369e-16 0)
(2 3.66003e-16 0)
(2 4.90794e-16 0)
(2 5.99902e-16 0)
(2 7.66842e-16 0)
(2 8.61186e-16 0)
(2 1.08313e-15 0)
(2 1.14773e-15 0)
(2 1.03663e-15 0)
(2 7.88729e-16 0)
(2 6.37796e-16 0)
(2 3.49264e-16 0)
(2 2.94031e-16 0)
(2 6.01434e-17 0)
(2 -1.43758e-16 0)
(2 -5.03038e-16 0)
(2 -8.07407e-16 0)
(2 -1.11048e-15 0)
(2 -1.50468e-15 0)
(2 -1.95682e-15 0)
(2 -2.04094e-15 0)
(2 -1.88598e-15 0)
(2 -1.7182e-15 0)
(2 -1.55309e-15 0)
(2 -1.53277e-15 0)
(2 -1.54632e-15 0)
(2 -1.55294e-15 0)
(2 -1.64026e-15 0)
(2 -1.74903e-15 0)
(2 -1.6919e-15 0)
(2 -1.74225e-15 0)
(2 -1.82801e-15 0)
(2 -1.62782e-15 0)
(2 -1.56001e-15 0)
(2 -1.67491e-15 0)
(2 -1.51682e-15 0)
(2 -2.01177e-15 0)
(2 -2.43977e-15 0)
(2 -2.60786e-15 0)
(2 -2.67367e-15 0)
(2 -2.51374e-15 0)
(2 -2.39603e-15 0)
(2 6.71232e-16 0)
(2 2.62037e-16 0)
(2 1.6939e-16 0)
(2 1.91006e-16 0)
(2 1.47689e-16 0)
(2 -4.02211e-16 0)
(2 -3.91285e-16 0)
(2 -1.45263e-16 0)
(2 -1.47119e-17 0)
(2 -2.88213e-18 0)
(2 -1.74412e-16 0)
(2 -3.50033e-16 0)
(2 -1.36726e-16 0)
(2 5.60113e-16 0)
(2 1.46207e-15 0)
(2 1.62073e-15 0)
(2 1.42006e-15 0)
(2 1.28987e-15 0)
(2 1.32697e-15 0)
(2 1.48459e-15 0)
(2 1.62195e-15 0)
(2 1.31669e-15 0)
(2 3.7534e-16 0)
(2 2.87668e-16 0)
(2 -5.34889e-17 0)
(2 -2.67124e-16 0)
(2 -1.69576e-16 0)
(2 -3.2385e-16 0)
(2 -4.15738e-16 0)
(2 -5.12134e-16 0)
(2 -5.76672e-16 0)
(2 -7.05368e-16 0)
(2 -8.20073e-16 0)
(2 -6.93718e-16 0)
(2 -6.35756e-16 0)
(2 -6.24098e-16 0)
(2 -6.41456e-16 0)
(2 -7.14222e-16 0)
(2 -7.43245e-16 0)
(2 -9.12231e-16 0)
(2 -1.47617e-15 0)
(2 -1.79389e-15 0)
(2 -1.84076e-15 0)
(2 -1.89105e-15 0)
(2 -1.81454e-15 0)
(2 -1.68576e-15 0)
(2 -2.22088e-15 0)
(2 -2.29344e-15 0)
(2 -2.27917e-15 0)
(2 -2.40878e-15 0)
(2 -2.32149e-15 0)
(2 -2.21958e-15 0)
(2 -1.7665e-15 0)
(2 -1.45981e-15 0)
(2 -1.77489e-15 0)
(2 -2.25854e-15 0)
(2 -2.46694e-15 0)
(2 -2.68124e-15 0)
(2 -2.43453e-15 0)
(2 -2.15385e-15 0)
(2 -1.93638e-15 0)
(2 -1.98886e-15 0)
(2 -2.03011e-15 0)
(2 -1.46644e-15 0)
(2 -7.16361e-16 0)
(2 -4.53739e-16 0)
(2 -3.74116e-16 0)
(2 -3.68745e-16 0)
(2 -6.3183e-16 0)
(2 -7.19458e-16 0)
(2 -8.53928e-16 0)
(2 -9.76003e-16 0)
(2 -1.00644e-15 0)
(2 -9.51163e-16 0)
(2 -9.46148e-16 0)
(2 -9.79514e-16 0)
(2 -8.44814e-16 0)
(2 -6.93442e-16 0)
(2 -5.95985e-16 0)
(2 -3.89657e-16 0)
(2 -3.18001e-16 0)
(2 -2.97988e-16 0)
(2 -2.74853e-16 0)
(2 -2.38217e-16 0)
(2 -4.28185e-17 0)
(2 1.59796e-16 0)
(2 1.81966e-16 0)
(2 1.45209e-16 0)
(2 -6.47469e-18 0)
(2 -2.86997e-16 0)
(2 -5.91732e-16 0)
(2 -6.76117e-16 0)
(2 -6.057e-16 0)
(2 -4.57793e-16 0)
(2 -4.77568e-16 0)
(2 -6.39297e-16 0)
(2 -6.9747e-16 0)
(2 -8.14433e-16 0)
(2 -9.59922e-16 0)
(2 -1.0531e-15 0)
(2 -1.00506e-15 0)
(2 -8.83232e-16 0)
(2 -8.52963e-16 0)
(2 -8.33294e-16 0)
(2 -8.25821e-16 0)
(2 -9.0446e-16 0)
(2 -9.25303e-16 0)
(2 -8.20482e-16 0)
(2 -1.21554e-15 0)
(2 -1.38143e-15 0)
(2 -1.5516e-15 0)
(2 -1.58666e-15 0)
(2 -1.95339e-15 0)
(2 -2.20043e-15 0)
(2 -2.45267e-15 0)
(2 -2.56319e-15 0)
(2 -2.71318e-15 0)
(2 -2.76024e-15 0)
(2 -2.76292e-15 0)
(2 -2.449e-15 0)
(2 -4.55927e-16 0)
(2 -5.76869e-16 0)
(2 -7.04575e-16 0)
(2 -1.11006e-15 0)
(2 -1.55819e-15 0)
(2 -1.62372e-15 0)
(2 -1.18092e-15 0)
(2 -1.06991e-15 0)
(2 -1.22467e-15 0)
(2 -1.42606e-15 0)
(2 -1.41178e-15 0)
(2 -1.23018e-15 0)
(2 -5.01374e-16 0)
(2 -1.8128e-16 0)
(2 3.05914e-16 0)
(2 6.01546e-16 0)
(2 5.33149e-16 0)
(2 4.74137e-16 0)
(2 5.75394e-16 0)
(2 7.28542e-16 0)
(2 9.05521e-16 0)
(2 1.00118e-15 0)
(2 9.79941e-16 0)
(2 6.36029e-16 0)
(2 -2.5557e-16 0)
(2 -4.66631e-16 0)
(2 -8.24654e-16 0)
(2 -1.15091e-15 0)
(2 -1.3445e-15 0)
(2 -1.73874e-15 0)
(2 -1.85551e-15 0)
(2 -1.65235e-15 0)
(2 -1.39019e-15 0)
(2 -1.13774e-15 0)
(2 -5.9141e-16 0)
(2 -1.82496e-16 0)
(2 2.18214e-16 0)
(2 3.24036e-16 0)
(2 4.84846e-16 0)
(2 1.926e-16 0)
(2 -9.64207e-17 0)
(2 -1.70744e-16 0)
(2 -1.68663e-16 0)
(2 -2.05872e-17 0)
(2 1.09262e-16 0)
(2 4.10118e-16 0)
(2 7.66412e-16 0)
(2 8.21013e-16 0)
(2 5.02491e-16 0)
(2 3.98308e-16 0)
(2 3.72704e-16 0)
(2 -1.10625e-16 0)
(2 -8.00984e-16 0)
(2 -7.85643e-16 0)
(2 -9.53616e-16 0)
(2 -2.50167e-15 0)
(2 -3.47779e-15 0)
(2 -3.95434e-15 0)
(2 -3.92898e-15 0)
(2 -4.04611e-15 0)
(2 -3.35519e-15 0)
(2 -2.84639e-15 0)
(2 -2.42853e-15 0)
(2 -2.3377e-15 0)
(2 -2.17889e-15 0)
(2 -1.98015e-15 0)
(2 -1.87296e-15 0)
(2 -1.64462e-15 0)
(2 -1.51746e-15 0)
(2 -1.29677e-15 0)
(2 -1.15297e-15 0)
(2 -1.01616e-15 0)
(2 -9.34435e-16 0)
(2 -8.34959e-16 0)
(2 -6.57242e-16 0)
(2 -4.16378e-16 0)
(2 -2.58539e-16 0)
(2 -1.19101e-16 0)
(2 -7.61877e-17 0)
(2 -1.49329e-17 0)
(2 -3.61132e-17 0)
(2 -1.39944e-16 0)
(2 -2.69057e-16 0)
(2 -3.86788e-16 0)
(2 -2.38048e-16 0)
(2 1.06641e-16 0)
(2 2.57329e-16 0)
(2 4.05629e-16 0)
(2 5.04804e-16 0)
(2 2.0869e-16 0)
(2 -1.09048e-16 0)
(2 -6.57929e-16 0)
(2 -1.13724e-15 0)
(2 -1.28611e-15 0)
(2 -1.39646e-15 0)
(2 -1.50871e-15 0)
(2 -1.06439e-15 0)
(2 -7.99987e-16 0)
(2 -6.46274e-16 0)
(2 -5.18145e-16 0)
(2 -6.68204e-17 0)
(2 -1.57241e-17 0)
(2 -7.01606e-17 0)
(2 -2.6849e-16 0)
(2 -3.70243e-16 0)
(2 -5.04074e-16 0)
(2 -5.89056e-16 0)
(2 -7.29865e-16 0)
(2 -7.99617e-16 0)
(2 -8.92804e-16 0)
(2 -1.1496e-15 0)
(2 -1.18812e-15 0)
(2 -1.4439e-15 0)
(2 -1.53633e-15 0)
(2 -1.59205e-15 0)
(2 -1.50545e-15 0)
(2 -1.58348e-15 0)
(2 -1.12181e-15 0)
(2 -7.53156e-16 0)
(2 -5.2939e-16 0)
(2 -8.48519e-16 0)
(2 -8.70259e-16 0)
(2 -8.5047e-16 0)
(2 -8.25465e-16 0)
(2 -7.96616e-16 0)
(2 -7.94289e-16 0)
(2 -9.85908e-16 0)
(2 -1.17312e-15 0)
(2 -1.22318e-15 0)
(2 -1.16407e-15 0)
(2 -1.19989e-15 0)
(2 -1.10502e-15 0)
(2 -1.0187e-15 0)
(2 -1.01268e-15 0)
(2 -1.16724e-15 0)
(2 -9.91362e-16 0)
(2 -6.66238e-16 0)
(2 -2.92108e-17 0)
(2 3.73691e-16 0)
(2 5.74338e-16 0)
(2 6.54872e-16 0)
(2 8.45694e-16 0)
(2 1.02635e-15 0)
(2 1.27686e-15 0)
(2 9.5605e-16 0)
(2 4.44216e-16 0)
(2 2.66111e-16 0)
(2 1.06696e-16 0)
(2 -1.3833e-16 0)
(2 -3.18574e-16 0)
(2 -3.24887e-16 0)
(2 -8.33012e-18 0)
(2 5.58285e-16 0)
(2 6.82922e-16 0)
(2 7.05043e-16 0)
(2 6.60864e-16 0)
(2 2.73565e-16 0)
(2 1.77458e-16 0)
(2 9.98706e-17 0)
(2 -6.1287e-17 0)
(2 -6.31826e-17 0)
(2 -2.49579e-16 0)
(2 -2.57862e-16 0)
(2 1.92478e-16 0)
(2 6.96758e-16 0)
(2 9.21411e-16 0)
(2 8.91516e-16 0)
(2 7.49736e-16 0)
(2 1.00154e-15 0)
(2 1.2996e-15 0)
(2 1.34125e-15 0)
(2 1.02754e-15 0)
(2 8.09129e-16 0)
(2 3.23032e-16 0)
(2 -9.12142e-16 0)
(2 -1.21976e-15 0)
(2 -1.37563e-15 0)
(2 -1.57053e-15 0)
(2 -1.79489e-15 0)
(2 -1.84513e-15 0)
(2 -1.74468e-15 0)
(2 -1.59582e-15 0)
(2 -1.59817e-15 0)
(2 -1.58776e-15 0)
(2 -1.64686e-15 0)
(2 -1.70053e-15 0)
(2 -1.80686e-15 0)
(2 -1.90986e-15 0)
(2 -1.86731e-15 0)
(2 -1.87755e-15 0)
(2 -1.78186e-15 0)
(2 -1.65186e-15 0)
(2 -1.46963e-15 0)
(2 -1.38649e-15 0)
(2 -1.43448e-15 0)
(2 -1.53902e-15 0)
(2 -1.7419e-15 0)
(2 -1.96412e-15 0)
(2 -2.13407e-15 0)
(2 -2.19526e-15 0)
(2 -2.10502e-15 0)
(2 -2.19099e-15 0)
(2 -1.8765e-15 0)
(2 -1.74356e-15 0)
(2 -1.4887e-15 0)
(2 -1.09107e-15 0)
(2 -9.7327e-16 0)
(2 -2.6595e-16 0)
(2 -1.32424e-16 0)
(2 2.31859e-17 0)
(2 4.19041e-16 0)
(2 5.25249e-16 0)
(2 3.23881e-16 0)
(2 2.05903e-16 0)
(2 2.44396e-16 0)
(2 2.96912e-16 0)
(2 5.50539e-16 0)
(2 1.0118e-15 0)
(2 1.27875e-15 0)
(2 1.26722e-15 0)
(2 6.49092e-16 0)
(2 3.82339e-16 0)
(2 -2.02195e-16 0)
(2 -6.14753e-16 0)
(2 -7.95138e-16 0)
(2 -9.29584e-16 0)
(2 -9.40174e-16 0)
(2 -8.28713e-16 0)
(2 -7.33516e-16 0)
(2 -1.07848e-15 0)
(2 -1.36862e-15 0)
(2 -1.55499e-15 0)
(2 -1.41428e-15 0)
(2 -8.91411e-16 0)
(2 -6.17976e-16 0)
(2 -4.71152e-16 0)
(2 -3.68462e-16 0)
(2 -1.9889e-16 0)
(2 -1.09654e-16 0)
(2 1.23771e-17 0)
(2 -8.94412e-16 0)
(2 -1.02167e-15 0)
(2 -1.09235e-15 0)
(2 -1.24756e-15 0)
(2 -1.268e-15 0)
(2 -1.21393e-15 0)
(2 -1.18157e-15 0)
(2 -1.03703e-15 0)
(2 -9.76221e-16 0)
(2 -8.93999e-16 0)
(2 -8.19464e-16 0)
(2 -8.80283e-16 0)
(2 -9.67294e-16 0)
(2 -1.39779e-15 0)
(2 -1.52145e-15 0)
(2 -1.52234e-15 0)
(2 -1.62479e-15 0)
(2 -1.65939e-15 0)
(2 -1.93312e-15 0)
(2 -1.75081e-15 0)
(2 -8.80011e-16 0)
(2 -8.03131e-16 0)
(2 -6.50573e-16 0)
(2 -1.54642e-16 0)
(2 6.31842e-17 0)
(2 -1.20065e-16 0)
(2 -2.49657e-16 0)
(2 -1.51149e-16 0)
(2 8.51786e-17 0)
(2 2.01951e-16 0)
(2 2.81819e-16 0)
(2 4.00742e-17 0)
(2 -4.92824e-16 0)
(2 -7.80288e-16 0)
(2 -1.26106e-15 0)
(2 -1.32553e-15 0)
(2 -1.22433e-15 0)
(2 -1.00634e-15 0)
(2 -7.02712e-16 0)
(2 -4.68911e-16 0)
(2 -4.9854e-16 0)
(2 -5.27591e-16 0)
(2 -6.1617e-16 0)
(2 -7.50591e-16 0)
(2 -9.79919e-16 0)
(2 -1.18653e-15 0)
(2 -1.1428e-15 0)
(2 -9.80072e-16 0)
(2 -8.54199e-16 0)
(2 -7.91486e-16 0)
(2 -8.8018e-16 0)
(2 -9.82153e-16 0)
(2 -9.76396e-16 0)
(2 -8.85789e-16 0)
(2 -7.83561e-16 0)
(2 -6.85197e-16 0)
(2 -4.49115e-16 0)
(2 -2.37358e-16 0)
(2 -3.351e-16 0)
(2 -4.53766e-16 0)
(2 -4.50846e-16 0)
(2 -8.18916e-16 0)
(2 -7.85644e-16 0)
(2 -8.02601e-16 0)
(2 -9.2209e-16 0)
(2 -1.12003e-15 0)
(2 -1.27834e-15 0)
(2 -1.35756e-15 0)
(2 -1.47387e-15 0)
(2 -1.62913e-15 0)
(2 -1.92327e-15 0)
(2 -2.01418e-15 0)
(2 -1.95498e-15 0)
(2 -2.0667e-15 0)
(2 -2.39243e-15 0)
(2 -2.83102e-15 0)
(2 -4.12509e-15 0)
(2 -4.73432e-15 0)
(2 -4.97111e-15 0)
(2 -5.16473e-15 0)
(2 -5.19314e-15 0)
(2 -4.70987e-15 0)
(2 -3.71757e-15 0)
(2 -3.30546e-15 0)
(2 -2.77693e-15 0)
(2 -2.54501e-15 0)
(2 -2.29479e-15 0)
(2 -2.11293e-15 0)
(2 -2.26495e-15 0)
(2 -2.30468e-15 0)
(2 -1.85776e-15 0)
(2 -1.53027e-15 0)
(2 -1.36914e-15 0)
(2 -8.98955e-16 0)
(2 -5.78818e-16 0)
(2 -3.34066e-16 0)
(2 -3.59601e-16 0)
(2 -4.39227e-16 0)
(2 -4.22249e-16 0)
(2 -8.30124e-16 0)
(2 -1.1327e-15 0)
(2 -1.65223e-15 0)
(2 -1.70587e-15 0)
(2 -1.57573e-15 0)
(2 -1.55022e-15 0)
(2 -1.52762e-15 0)
(2 -1.51805e-15 0)
(2 -1.34667e-15 0)
(2 -1.11197e-15 0)
(2 -6.49225e-16 0)
(2 -4.65465e-17 0)
(2 1.56137e-16 0)
(2 2.35891e-16 0)
(2 1.82544e-16 0)
(2 7.83459e-17 0)
(2 -1.64322e-18 0)
(2 -1.84117e-16 0)
(2 -4.75776e-16 0)
(2 -7.54271e-16 0)
(2 -1.0333e-15 0)
(2 -1.95293e-16 0)
(2 -2.73948e-16 0)
(2 -3.16098e-16 0)
(2 -3.94533e-16 0)
(2 -2.67247e-16 0)
(2 -2.45419e-16 0)
(2 -1.46453e-16 0)
(2 1.21982e-16 0)
(2 3.62589e-16 0)
(2 3.47709e-16 0)