/*--------------------------------*- C++ -*----------------------------------*\
  =========                 |
  \\      /  F ield         | OpenFOAM: The Open Source CFD Toolbox
   \\    /   O peration     | Website:  https://openfoam.org
    \\  /    A nd           | Version:  7
     \\/     M anipulation  |
\*---------------------------------------------------------------------------*/
FoamFile
{
    version     2.0;
    format      ascii;
    class       volScalarField;
    location    "2.4";
    object      p;
}
// * * * * * * * * * * * * * * * * * * * * * * * * * * * * * * * * * * * * * //

dimensions      [0 2 -2 0 0 0 0];

internalField   nonuniform List<scalar> 
40000
(
7.71229e-07
8.23965e-06
1.2663e-05
1.24684e-05
6.33504e-06
-6.21982e-06
-2.50969e-05
-4.99169e-05
-8.01854e-05
-0.000115364
-0.000154909
-0.000198292
-0.000245015
-0.00029461
-0.00034665
-0.000400745
-0.000456541
-0.00051372
-0.000571997
-0.000631119
-0.000690862
-0.000751027
-0.000811443
-0.000871956
-0.000932438
-0.000992775
-0.00105287
-0.00111263
-0.001172
-0.0012309
-0.00128928
-0.00134709
-0.00140429
-0.00146085
-0.00151671
-0.00157186
-0.00162625
-0.00167986
-0.00173264
-0.00178457
-0.0018356
-0.00188569
-0.00193481
-0.0019829
-0.00202992
-0.00207581
-0.00212052
-0.00216397
-0.00220612
-0.00224689
-0.00228621
-0.002324
-0.00236019
-0.00239469
-0.00242743
-0.00245831
-0.00248724
-0.00251414
-0.00253892
-0.00256148
-0.00258172
-0.00259957
-0.00261492
-0.00262768
-0.00263775
-0.00264506
-0.00264952
-0.00265103
-0.00264952
-0.0026449
-0.00263711
-0.00262608
-0.00261174
-0.00259403
-0.0025729
-0.0025483
-0.0025202
-0.00248856
-0.00245337
-0.00241461
-0.00237227
-0.00232635
-0.00227688
-0.00222388
-0.00216737
-0.00210742
-0.00204406
-0.00197739
-0.00190746
-0.00183438
-0.00175826
-0.0016792
-0.00159734
-0.00151282
-0.0014258
-0.00133644
-0.00124492
-0.00115144
-0.00105619
-0.000959384
-0.000861255
-0.000762035
-0.00066197
-0.000561313
-0.000460329
-0.000359288
-0.00025847
-0.000158159
-5.86452e-05
3.97752e-05
0.000136804
0.000232139
0.000325478
0.000416518
0.000504956
0.000590492
0.000672829
0.000751675
0.000826743
0.000897753
0.000964434
0.00102653
0.00108377
0.00113594
0.00118281
0.00122415
0.00125978
0.00128951
0.00131319
0.00133067
0.00134182
0.00134654
0.00134474
0.00133636
0.00132135
0.0012997
0.00127141
0.0012365
0.00119501
0.00114703
0.00109262
0.00103192
0.000965056
0.000892178
0.000813466
0.000729115
0.000639341
0.000544378
0.000444474
0.000339899
0.000230934
0.000117876
1.0351e-06
-0.000119267
-0.000242697
-0.000368913
-0.000497565
-0.000628296
-0.000760741
-0.000894533
-0.0010293
-0.00116467
-0.00130026
-0.00143571
-0.00157063
-0.00170465
-0.00183741
-0.00196853
-0.00209765
-0.00222442
-0.00234847
-0.00246947
-0.00258707
-0.00270094
-0.00281075
-0.00291618
-0.00301692
-0.00311266
-0.00320312
-0.00328801
-0.00336707
-0.00344003
-0.00350664
-0.0035667
-0.00361998
-0.00366631
-0.00370555
-0.00373758
-0.00376235
-0.00377986
-0.00379022
-0.00379363
-0.00379044
-0.00378122
-0.00376682
-0.00374853
-0.00372828
-0.00370789
-0.00369215
-0.00368445
-6.05374e-06
1.10443e-06
3.85774e-06
1.99021e-06
-4.90595e-06
-1.72288e-05
-3.50045e-05
-5.80154e-05
-8.59236e-05
-0.000118328
-0.000154799
-0.000194901
-0.000238211
-0.000284323
-0.000332858
-0.000383462
-0.000435812
-0.000489612
-0.000544594
-0.000600516
-0.000657165
-0.000714347
-0.000771893
-0.000829653
-0.000887496
-0.000945305
-0.00100298
-0.00106043
-0.00111758
-0.00117437
-0.00123072
-0.00128659
-0.00134193
-0.0013967
-0.00145086
-0.00150436
-0.00155716
-0.00160924
-0.00166056
-0.00171106
-0.00176073
-0.0018095
-0.00185735
-0.00190421
-0.00195005
-0.00199481
-0.00203842
-0.00208084
-0.00212199
-0.00216182
-0.00220025
-0.00223721
-0.00227262
-0.00230641
-0.00233849
-0.00236878
-0.0023972
-0.00242367
-0.00244808
-0.00247037
-0.00249043
-0.00250818
-0.00252353
-0.00253639
-0.00254667
-0.0025543
-0.00255919
-0.00256125
-0.00256041
-0.0025566
-0.00254974
-0.00253976
-0.00252662
-0.00251025
-0.0024906
-0.00246763
-0.00244131
-0.0024116
-0.00237848
-0.00234195
-0.00230199
-0.00225862
-0.00221184
-0.00216168
-0.00210818
-0.00205137
-0.00199133
-0.0019281
-0.00186177
-0.00179243
-0.00172018
-0.00164513
-0.00156742
-0.00148716
-0.00140452
-0.00131966
-0.00123274
-0.00114395
-0.00105349
-0.00096155
-0.000868361
-0.000774143
-0.000679132
-0.000583572
-0.000487716
-0.000391824
-0.000296162
-0.000201005
-0.000106631
-1.33215e-05
7.8636e-05
0.000168953
0.00025734
0.000343507
0.000427165
0.000508025
0.000585805
0.000660224
0.00073101
0.000797894
0.000860619
0.000918933
0.000972598
0.00102139
0.00106508
0.00110348
0.0011364
0.00116367
0.00118514
0.00120066
0.00121012
0.00121341
0.00121047
0.00120123
0.00118565
0.0011637
0.00113541
0.00110079
0.00105988
0.00101275
0.000959502
0.000900233
0.000835076
0.000764181
0.00068772
0.000605882
0.000518873
0.000426918
0.00033026
0.000229154
0.000123874
1.47043e-05
-9.80572e-05
-0.000214101
-0.000333108
-0.000454749
-0.000578687
-0.000704579
-0.000832078
-0.000960829
-0.00109048
-0.00122066
-0.00135103
-0.00148121
-0.00161085
-0.00173959
-0.00186709
-0.00199298
-0.00211692
-0.00223857
-0.00235759
-0.00247365
-0.00258644
-0.00269562
-0.0028009
-0.00290197
-0.00299854
-0.00309033
-0.00317707
-0.0032585
-0.00333438
-0.00340447
-0.00346857
-0.00352647
-0.00357801
-0.00362305
-0.00366148
-0.00369324
-0.00371832
-0.00373678
-0.00374876
-0.00375454
-0.0037545
-0.00374922
-0.0037395
-0.00372647
-0.00371161
-0.00369677
-0.00368441
-0.00367672
-1.0488e-05
-1.65481e-06
1.1027e-06
-1.22989e-06
-8.30863e-06
-2.03653e-05
-3.74046e-05
-5.92414e-05
-8.55996e-05
-0.000116147
-0.000150521
-0.000188342
-0.00022924
-0.000272854
-0.00031884
-0.000366876
-0.000416663
-0.000467924
-0.000520408
-0.000573885
-0.000628149
-0.000683015
-0.000738318
-0.000793911
-0.000849665
-0.000905462
-0.000961203
-0.0010168
-0.00107216
-0.00112723
-0.00118194
-0.00123624
-0.00129006
-0.00134338
-0.00139613
-0.00144829
-0.0014998
-0.00155064
-0.00160076
-0.00165012
-0.00169868
-0.0017464
-0.00179323
-0.00183912
-0.00188403
-0.00192789
-0.00197066
-0.00201227
-0.00205267
-0.00209178
-0.00212954
-0.00216588
-0.00220073
-0.00223401
-0.00226564
-0.00229554
-0.00232362
-0.00234982
-0.00237404
-0.00239619
-0.0024162
-0.00243397
-0.00244942
-0.00246247
-0.00247303
-0.00248102
-0.00248636
-0.00248898
-0.00248879
-0.00248573
-0.00247973
-0.00247072
-0.00245866
-0.00244347
-0.00242512
-0.00240357
-0.00237877
-0.00235071
-0.00231936
-0.00228471
-0.00224676
-0.00220551
-0.00216097
-0.00211317
-0.00206215
-0.00200794
-0.00195059
-0.00189018
-0.00182678
-0.00176048
-0.00169136
-0.00161955
-0.00154517
-0.00146834
-0.00138921
-0.00130794
-0.00122468
-0.00113963
-0.00105296
-0.00096488
-0.000875594
-0.000785322
-0.00069429
-0.000602736
-0.000510903
-0.000419044
-0.000327415
-0.000236283
-0.000145915
-5.65858e-05
3.14285e-05
0.000117849
0.000202395
0.000284786
0.000364743
0.000441988
0.000516247
0.00058725
0.000654733
0.000718436
0.000778112
0.000833517
0.000884423
0.000930608
0.000971866
0.001008
0.00103884
0.0010642
0.00108396
0.00109797
0.00110611
0.00110831
0.00110447
0.00109455
0.0010785
0.00105631
0.00102799
0.000993558
0.00095306
0.000906564
0.000854157
0.000795947
0.000732061
0.000662646
0.000587868
0.000507911
0.000422977
0.000333284
0.000239068
0.000140578
3.8078e-05
-6.81544e-05
-0.00017783
-0.00029065
-0.000406303
-0.000524472
-0.000644829
-0.000767044
-0.000890777
-0.00101569
-0.00114143
-0.00126766
-0.00139403
-0.00152018
-0.00164579
-0.00177049
-0.00189395
-0.00201583
-0.0021358
-0.00225352
-0.00236868
-0.00248096
-0.00259004
-0.00269563
-0.00279744
-0.00289517
-0.00298855
-0.00307732
-0.00316123
-0.00324003
-0.0033135
-0.00338142
-0.00344361
-0.00349989
-0.00355012
-0.00359419
-0.003632
-0.00366353
-0.00368879
-0.00370787
-0.00372092
-0.0037282
-0.0037301
-0.00372715
-0.00372007
-0.00370976
-0.0036974
-0.00368442
-0.00367207
-0.00366095
-1.03029e-05
2.30899e-07
3.42901e-06
1.06577e-06
-5.9932e-06
-1.78187e-05
-3.43462e-05
-5.53685e-05
-8.0624e-05
-0.000109813
-0.000142612
-0.000178688
-0.000217703
-0.000259332
-0.000303262
-0.000349199
-0.000396863
-0.000445998
-0.000496368
-0.000547755
-0.000599965
-0.000652819
-0.00070616
-0.000759845
-0.000813746
-0.000867751
-0.000921758
-0.000975678
-0.00102943
-0.00108295
-0.00113616
-0.00118902
-0.00124146
-0.00129344
-0.00134492
-0.00139585
-0.00144619
-0.00149589
-0.00154493
-0.00159325
-0.00164081
-0.00168758
-0.0017335
-0.00177852
-0.0018226
-0.00186568
-0.00190772
-0.00194864
-0.00198839
-0.0020269
-0.00206411
-0.00209995
-0.00213435
-0.00216723
-0.00219852
-0.00222814
-0.002256
-0.00228204
-0.00230616
-0.00232829
-0.00234834
-0.00236623
-0.00238188
-0.0023952
-0.00240611
-0.00241454
-0.00242041
-0.00242363
-0.00242414
-0.00242188
-0.00241676
-0.00240874
-0.00239775
-0.00238374
-0.00236667
-0.0023465
-0.00232319
-0.00229672
-0.00226706
-0.0022342
-0.00219815
-0.0021589
-0.00211646
-0.00207087
-0.00202214
-0.00197033
-0.00191549
-0.00185767
-0.00179695
-0.00173342
-0.00166716
-0.00159829
-0.00152692
-0.00145318
-0.00137721
-0.00129916
-0.00121919
-0.00113748
-0.0010542
-0.000969544
-0.000883722
-0.000796944
-0.000709429
-0.000621408
-0.000533117
-0.0004448
-0.000356709
-0.0002691
-0.000182235
-9.63788e-05
-1.18004e-05
7.12292e-05
0.000152438
0.000231553
0.000308303
0.000382418
0.000453632
0.000521683
0.000586314
0.000647274
0.000704321
0.000757221
0.000805749
0.000849693
0.000888851
0.000923036
0.000952072
0.000975801
0.000994079
0.00100678
0.00101379
0.00101502
0.0010104
0.000999878
0.000983411
0.000960989
0.000932615
0.000898317
0.00085814
0.00081215
0.000760433
0.000703094
0.000640258
0.00057207
0.000498692
0.000420305
0.000337105
0.000249307
0.000157139
6.08467e-05
-3.93134e-05
-0.000143071
-0.000250143
-0.000360239
-0.000473055
-0.000588283
-0.000705604
-0.000824695
-0.000945228
-0.00106687
-0.00118929
-0.00131214
-0.0014351
-0.00155782
-0.00167997
-0.00180121
-0.00192121
-0.00203966
-0.00215622
-0.00227057
-0.00238242
-0.00249144
-0.00259736
-0.00269986
-0.00279869
-0.00289356
-0.00298422
-0.0030704
-0.00315189
-0.00322844
-0.00329986
-0.00336594
-0.00342651
-0.00348142
-0.00353054
-0.00357377
-0.00361104
-0.00364234
-0.00366767
-0.00368714
-0.0037009
-0.00370919
-0.00371232
-0.00371076
-0.00370508
-0.00369603
-0.00368448
-0.00367148
-0.00365721
-0.00364053
-4.1061e-06
7.197e-06
1.05284e-05
8.05586e-06
9.34089e-07
-1.07891e-05
-2.69862e-05
-4.74228e-05
-7.18384e-05
-9.99526e-05
-0.000131469
-0.000166086
-0.000203499
-0.000243413
-0.000285542
-0.000329614
-0.000375372
-0.000422579
-0.000471014
-0.000520474
-0.000570774
-0.000621746
-0.000673238
-0.000725114
-0.000777251
-0.00082954
-0.00088188
-0.000934186
-0.000986377
-0.00103838
-0.00109014
-0.00114159
-0.00119269
-0.00124337
-0.0012936
-0.00134333
-0.00139251
-0.00144112
-0.00148909
-0.00153641
-0.00158301
-0.00162885
-0.0016739
-0.0017181
-0.0017614
-0.00180375
-0.00184509
-0.00188537
-0.00192453
-0.00196251
-0.00199923
-0.00203463
-0.00206865
-0.00210121
-0.00213223
-0.00216164
-0.00218936
-0.00221532
-0.00223943
-0.00226162
-0.0022818
-0.00229989
-0.00231581
-0.00232949
-0.00234084
-0.00234979
-0.00235626
-0.00236017
-0.00236146
-0.00236006
-0.00235591
-0.00234894
-0.0023391
-0.00232634
-0.00231061
-0.00229187
-0.00227009
-0.00224525
-0.00221732
-0.00218629
-0.00215216
-0.00211492
-0.0020746
-0.00203121
-0.00198479
-0.00193536
-0.00188299
-0.00182774
-0.00176966
-0.00170885
-0.00164539
-0.00157939
-0.00151096
-0.00144023
-0.00136732
-0.00129239
-0.00121559
-0.00113709
-0.00105706
-0.000975696
-0.00089319
-0.000809748
-0.000725586
-0.000640927
-0.000556
-0.000471043
-0.0003863
-0.000302021
-0.00021846
-0.000135876
-5.45296e-05
2.53146e-05
0.000103392
0.000179437
0.000253185
0.000324374
0.000392745
0.000458041
0.000520014
0.000578418
0.000633019
0.000683587
0.000729905
0.000771765
0.000808972
0.000841342
0.000868706
0.000890909
0.000907812
0.000919292
0.000925241
0.000925572
0.000920215
0.000909116
0.000892243
0.000869584
0.000841144
0.000806948
0.000767043
0.000721494
0.000670386
0.000613823
0.000551928
0.000484843
0.000412727
0.000335757
0.000254126
0.000168045
7.77378e-05
-1.65571e-05
-0.000114587
-0.000216089
-0.000320786
-0.000428392
-0.000538614
-0.000651148
-0.000765685
-0.00088191
-0.000999502
-0.00111814
-0.00123749
-0.00135724
-0.00147705
-0.00159659
-0.00171555
-0.00183359
-0.0019504
-0.00206566
-0.00217906
-0.0022903
-0.00239906
-0.00250508
-0.00260805
-0.0027077
-0.00280376
-0.00289598
-0.00298411
-0.00306791
-0.00314715
-0.00322163
-0.00329115
-0.00335553
-0.00341461
-0.00346824
-0.00351633
-0.00355877
-0.00359551
-0.00362653
-0.00365186
-0.00367157
-0.00368581
-0.00369477
-0.00369873
-0.00369804
-0.00369314
-0.00368456
-0.00367295
-0.00365912
-0.00364231
-0.00362021
8.63188e-06
1.96945e-05
2.26833e-05
1.98538e-05
1.24632e-05
6.36564e-07
-1.54527e-05
-3.55496e-05
-5.93923e-05
-8.67128e-05
-0.000117236
-0.000150684
-0.000186779
-0.000225251
-0.000265838
-0.000308291
-0.000352375
-0.000397868
-0.000444565
-0.000492278
-0.000540832
-0.00059007
-0.000639849
-0.000690038
-0.000740521
-0.000791191
-0.000841954
-0.000892725
-0.000943426
-0.00099399
-0.00104435
-0.00109446
-0.00114425
-0.00119368
-0.00124271
-0.00129128
-0.00133936
-0.00138691
-0.00143387
-0.00148022
-0.00152591
-0.00157088
-0.00161511
-0.00165853
-0.00170111
-0.00174278
-0.0017835
-0.00182321
-0.00186184
-0.00189934
-0.00193565
-0.00197069
-0.0020044
-0.00203671
-0.00206755
-0.00209683
-0.0021245
-0.00215046
-0.00217464
-0.00219697
-0.00221736
-0.00223574
-0.00225203
-0.00226615
-0.00227802
-0.00228757
-0.00229472
-0.0022994
-0.00230154
-0.00230108
-0.00229796
-0.0022921
-0.00228347
-0.002272
-0.00225766
-0.0022404
-0.00222019
-0.00219701
-0.00217083
-0.00214164
-0.00210944
-0.00207422
-0.002036
-0.0019948
-0.00195065
-0.00190358
-0.00185364
-0.00180088
-0.00174539
-0.00168722
-0.00162648
-0.00156326
-0.00149766
-0.00142981
-0.00135984
-0.0012879
-0.00121412
-0.00113868
-0.00106174
-0.000983487
-0.000904114
-0.00082382
-0.000742813
-0.00066131
-0.000579536
-0.000497721
-0.000416105
-0.000334929
-0.000254441
-0.000174895
-9.65457e-05
-1.96497e-05
5.55339e-05
0.000128746
0.000199728
0.000268225
0.000333982
0.00039675
0.000456284
0.000512347
0.000564707
0.000613143
0.00065744
0.000697395
0.000732819
0.000763532
0.000789368
0.000810176
0.000825821
0.000836182
0.000841157
0.000840657
0.000834617
0.000822984
0.000805728
0.000782836
0.000754316
0.000720193
0.000680514
0.000635342
0.000584762
0.000528876
0.000467807
0.000401694
0.000330693
0.000254979
0.000174742
9.01884e-05
1.53817e-06
-9.09742e-05
-0.000187101
-0.000286584
-0.000389152
-0.000494526
-0.000602417
-0.000712529
-0.000824559
-0.000938199
-0.00105314
-0.00116906
-0.00128564
-0.00140257
-0.00151953
-0.00163619
-0.00175225
-0.00186738
-0.00198128
-0.00209364
-0.00220417
-0.00231256
-0.00241852
-0.00252179
-0.00262207
-0.00271912
-0.00281266
-0.00290246
-0.00298828
-0.0030699
-0.00314711
-0.0032197
-0.00328749
-0.00335032
-0.00340804
-0.00346052
-0.00350764
-0.00354935
-0.00358557
-0.00361629
-0.00364153
-0.00366135
-0.00367586
-0.00368522
-0.00368964
-0.00368938
-0.00368475
-0.00367611
-0.00366391
-0.00364877
-0.00362919
-0.00360181
2.78955e-05
3.781e-05
3.99493e-05
3.64405e-05
2.85082e-05
1.63245e-05
9.27962e-08
-1.99223e-05
-4.34598e-05
-7.02623e-05
-0.000100072
-0.000132629
-0.00016768
-0.000204976
-0.000244278
-0.000285355
-0.000327993
-0.000371986
-0.000417145
-0.000463294
-0.000510273
-0.000557934
-0.000606142
-0.000654775
-0.000703722
-0.000752883
-0.000802168
-0.000851495
-0.000900791
-0.000949988
-0.000999027
-0.00104785
-0.00109641
-0.00114465
-0.00119253
-0.00124
-0.00128703
-0.00133357
-0.00137958
-0.00142502
-0.00146985
-0.00151402
-0.00155748
-0.00160019
-0.0016421
-0.00168317
-0.00172333
-0.00176253
-0.00180071
-0.00183781
-0.00187378
-0.00190853
-0.00194202
-0.00197416
-0.00200489
-0.00203414
-0.00206183
-0.00208788
-0.00211223
-0.00213478
-0.00215548
-0.00217423
-0.00219097
-0.00220561
-0.00221809
-0.00222831
-0.00223623
-0.00224175
-0.00224482
-0.00224537
-0.00224334
-0.00223866
-0.00223128
-0.00222116
-0.00220825
-0.00219251
-0.0021739
-0.0021524
-0.00212799
-0.00210065
-0.00207038
-0.00203717
-0.00200104
-0.001962
-0.00192008
-0.00187532
-0.00182775
-0.00177744
-0.00172445
-0.00166884
-0.00161072
-0.00155016
-0.00148729
-0.0014222
-0.00135503
-0.00128592
-0.00121501
-0.00114246
-0.00106844
-0.000993116
-0.000916684
-0.000839336
-0.000761276
-0.000682714
-0.000603871
-0.000524971
-0.000446247
-0.000367936
-0.000290282
-0.00021353
-0.00013793
-6.37354e-05
8.80198e-06
7.9428e-05
0.00014789
0.000213936
0.000277318
0.000337792
0.000395118
0.000449062
0.000499397
0.000545906
0.00058838
0.000626619
0.000660436
0.000689655
0.000714115
0.000733667
0.000748178
0.000757531
0.000761624
0.000760372
0.00075371
0.000741588
0.000723977
0.000700864
0.000672257
0.000638182
0.000598686
0.000553831
0.000503703
0.000448401
0.000388048
0.000322779
0.00025275
0.000178134
9.91171e-05
1.5903e-05
-7.12913e-05
-0.000162235
-0.000256685
-0.000354387
-0.000455074
-0.000558472
-0.000664298
-0.000772261
-0.000882064
-0.000993406
-0.00110598
-0.00121948
-0.00133359
-0.001448
-0.00156241
-0.00167649
-0.00178994
-0.00190247
-0.00201376
-0.00212351
-0.00223145
-0.00233728
-0.00244072
-0.00254151
-0.00263938
-0.00273407
-0.00282535
-0.00291297
-0.00299671
-0.00307637
-0.00315174
-0.00322263
-0.00328887
-0.00335031
-0.0034068
-0.00345822
-0.00350448
-0.00354549
-0.00358121
-0.00361161
-0.00363669
-0.00365651
-0.00367112
-0.00368066
-0.00368526
-0.00368512
-0.00368043
-0.00367137
-0.00365828
-0.0036416
-0.00361932
-0.00358717
5.34036e-05
6.13924e-05
6.21908e-05
5.76513e-05
4.88751e-05
3.60602e-05
1.94254e-05
-7.64268e-07
-2.42538e-05
-5.0797e-05
-8.01505e-05
-0.000112074
-0.000146332
-0.000182696
-0.000220946
-0.000260872
-0.000302274
-0.000344967
-0.000388774
-0.000433535
-0.000479099
-0.000525331
-0.000572106
-0.00061931
-0.000666838
-0.000714596
-0.000762501
-0.000810475
-0.000858448
-0.000906358
-0.000954145
-0.00100176
-0.00104914
-0.00109625
-0.00114305
-0.00118949
-0.00123552
-0.00128112
-0.00132623
-0.00137082
-0.00141484
-0.00145826
-0.00150102
-0.00154308
-0.0015844
-0.00162492
-0.00166459
-0.00170335
-0.00174116
-0.00177794
-0.00181364
-0.00184819
-0.00188153
-0.0019136
-0.00194431
-0.0019736
-0.0020014
-0.00202763
-0.00205223
-0.0020751
-0.00209619
-0.0021154
-0.00213267
-0.00214793
-0.00216109
-0.00217208
-0.00218084
-0.00218728
-0.00219135
-0.00219298
-0.0021921
-0.00218866
-0.00218261
-0.00217389
-0.00216245
-0.00214827
-0.00213129
-0.00211151
-0.00208888
-0.0020634
-0.00203506
-0.00200386
-0.00196981
-0.00193291
-0.0018932
-0.0018507
-0.00180546
-0.00175753
-0.00170697
-0.00165386
-0.00159826
-0.00154028
-0.00148001
-0.00141757
-0.00135308
-0.00128667
-0.00121848
-0.00114867
-0.00107739
-0.00100483
-0.000931157
-0.000856567
-0.000781257
-0.000705434
-0.000629312
-0.000553112
-0.000477061
-0.000401392
-0.000326342
-0.000252154
-0.000179072
-0.000107344
-3.72184e-05
3.10555e-05
9.72293e-05
0.000161056
0.000222291
0.000280694
0.000336029
0.000388066
0.000436583
0.000481364
0.000522204
0.000558906
0.000591286
0.000619172
0.000642403
0.000660833
0.000674333
0.000682785
0.00068609
0.000684165
0.000676946
0.000664383
0.000646449
0.000623131
0.000594437
0.000560395
0.000521048
0.000476463
0.00042672
0.000371921
0.000312185
0.000247648
0.000178464
0.000104802
2.68483e-05
-5.51967e-05
-0.000141119
-0.00023069
-0.00032367
-0.000419809
-0.000518843
-0.000620504
-0.00072451
-0.000830577
-0.000938414
-0.00104772
-0.0011582
-0.00126955
-0.00138147
-0.00149365
-0.00160578
-0.00171756
-0.0018287
-0.00193889
-0.00204785
-0.00215528
-0.0022609
-0.00236443
-0.00246561
-0.00256418
-0.00265988
-0.00275247
-0.00284171
-0.00292738
-0.00300927
-0.00308717
-0.00316089
-0.00323026
-0.00329511
-0.0033553
-0.00341069
-0.00346116
-0.00350663
-0.00354701
-0.00358225
-0.00361231
-0.00363719
-0.00365692
-0.00367153
-0.00368109
-0.0036857
-0.00368546
-0.00368048
-0.00367084
-0.00365674
-0.00363852
-0.00361378
-0.00357758
8.4746e-05
9.01662e-05
8.91789e-05
8.3264e-05
7.33391e-05
5.96158e-05
4.23181e-05
2.1703e-05
-1.98525e-06
-2.85129e-05
-5.76515e-05
-8.91775e-05
-0.000122874
-0.00015853
-0.000195946
-0.000234927
-0.000275291
-0.000316869
-0.000359499
-0.000403035
-0.000447338
-0.000492285
-0.000537758
-0.000583654
-0.000629877
-0.000676339
-0.000722961
-0.000769673
-0.00081641
-0.00086311
-0.000909721
-0.000956191
-0.00100247
-0.00104852
-0.0010943
-0.00113976
-0.00118486
-0.00122957
-0.00127384
-0.00131764
-0.00136093
-0.00140366
-0.00144579
-0.00148727
-0.00152806
-0.0015681
-0.00160736
-0.00164576
-0.00168326
-0.0017198
-0.00175531
-0.00178975
-0.00182303
-0.00185509
-0.00188587
-0.0019153
-0.0019433
-0.0019698
-0.00199473
-0.00201801
-0.00203958
-0.00205935
-0.00207724
-0.00209319
-0.00210713
-0.00211897
-0.00212865
-0.00213609
-0.00214124
-0.00214402
-0.00214437
-0.00214223
-0.00213756
-0.00213029
-0.00212038
-0.0021078
-0.0020925
-0.00207445
-0.00205364
-0.00203004
-0.00200364
-0.00197445
-0.00194246
-0.00190769
-0.00187016
-0.0018299
-0.00178695
-0.00174135
-0.00169316
-0.00164246
-0.00158932
-0.00153382
-0.00147606
-0.00141616
-0.00135422
-0.00129038
-0.00122478
-0.00115756
-0.00108888
-0.00101891
-0.000947828
-0.000875817
-0.000803073
-0.000729796
-0.000656198
-0.000582494
-0.000508907
-0.000435667
-0.000363006
-0.000291162
-0.000220376
-0.000150892
-8.29546e-05
-1.68094e-05
4.72987e-05
0.000109126
0.000168432
0.000224978
0.000278533
0.000328868
0.000375764
0.000419009
0.000458398
0.000493739
0.000524848
0.000551556
0.000573703
0.000591145
0.000603754
0.000611414
0.000614027
0.000611511
0.000603802
0.000590852
0.000572633
0.000549133
0.000520361
0.000486343
0.000447124
0.000402768
0.000353357
0.000298992
0.000239789
0.000175886
0.000107433
3.45986e-05
-4.24325e-05
-0.000123462
-0.000208278
-0.000296655
-0.000388355
-0.00048313
-0.000580721
-0.000680862
-0.000783276
-0.000887683
-0.000993793
-0.00110132
-0.00120996
-0.00131942
-0.0014294
-0.0015396
-0.00164972
-0.00175947
-0.00186855
-0.00197668
-0.00208357
-0.00218893
-0.00229249
-0.00239398
-0.00249316
-0.00258975
-0.00268352
-0.00277423
-0.00286166
-0.0029456
-0.00302583
-0.00310216
-0.00317443
-0.00324244
-0.00330606
-0.00336514
-0.00341954
-0.00346917
-0.00351393
-0.00355373
-0.00358853
-0.00361826
-0.00364292
-0.00366251
-0.00367704
-0.00368654
-0.00369104
-0.0036906
-0.00368523
-0.00367493
-0.00365985
-0.00364023
-0.00361338
-0.00357385
0.000121457
0.000123786
0.000120624
0.000113014
0.000101649
8.67489e-05
6.85371e-05
4.72556e-05
2.3134e-05
-3.60785e-06
-3.27568e-05
-6.41059e-05
-9.74555e-05
-0.000132613
-0.000169394
-0.000207622
-0.000247133
-0.00028777
-0.000329389
-0.000371855
-0.000415045
-0.000458842
-0.000503143
-0.000547851
-0.00059288
-0.000638149
-0.000683588
-0.00072913
-0.000774715
-0.000820289
-0.0008658
-0.000911203
-0.000956452
-0.00100151
-0.00104633
-0.00109088
-0.00113511
-0.001179
-0.00122251
-0.00126559
-0.0013082
-0.00135031
-0.00139187
-0.00143284
-0.00147317
-0.00151282
-0.00155173
-0.00158985
-0.00162713
-0.0016635
-0.00169892
-0.00173331
-0.00176662
-0.00179878
-0.00182971
-0.00185936
-0.00188766
-0.00191452
-0.00193988
-0.00196366
-0.0019858
-0.00200621
-0.00202482
-0.00204156
-0.00205636
-0.00206914
-0.00207982
-0.00208835
-0.00209465
-0.00209865
-0.0021003
-0.00209954
-0.0020963
-0.00209055
-0.00208222
-0.00207128
-0.0020577
-0.00204143
-0.00202246
-0.00200076
-0.00197632
-0.00194914
-0.00191922
-0.00188656
-0.0018512
-0.00181314
-0.00177243
-0.00172912
-0.00168326
-0.0016349
-0.00158414
-0.00153104
-0.0014757
-0.00141823
-0.00135874
-0.00129735
-0.0012342
-0.00116944
-0.00110321
-0.00103568
-0.000967026
-0.000897426
-0.00082707
-0.000756158
-0.000684894
-0.000613492
-0.00054217
-0.000471154
-0.000400674
-0.000330964
-0.000262262
-0.000194808
-0.000128844
-6.4612e-05
-2.35509e-06
5.76861e-05
0.000115273
0.00017017
0.000222148
0.00027098
0.00031645
0.000358345
0.000396464
0.000430616
0.000460618
0.000486302
0.000507509
0.000524098
0.000535939
0.000542918
0.000544937
0.000541916
0.00053379
0.000520511
0.000502052
0.000478402
0.000449567
0.000415576
0.000376472
0.000332319
0.000283199
0.000229211
0.000170472
0.000107117
3.92971e-05
-3.28209e-05
-0.000109054
-0.000189206
-0.000273065
-0.000360408
-0.000451
-0.000544594
-0.000640935
-0.000739757
-0.000840789
-0.000943752
-0.00104836
-0.00115433
-0.00126136
-0.00136917
-0.00147746
-0.00158593
-0.00169429
-0.00180226
-0.00190954
-0.00201585
-0.00212091
-0.00222445
-0.0023262
-0.0024259
-0.0025233
-0.00261815
-0.00271022
-0.00279928
-0.00288511
-0.00296751
-0.00304629
-0.00312125
-0.00319222
-0.00325905
-0.00332159
-0.00337969
-0.00343324
-0.00348212
-0.00352625
-0.00356554
-0.00359994
-0.00362938
-0.00365383
-0.00367325
-0.00368766
-0.00369704
-0.0037014
-0.00370071
-0.00369495
-0.00368403
-0.00366806
-0.00364725
-0.00361867
-0.00357654
0.000163054
0.000161867
0.000156196
0.000146603
0.00013353
0.0001172
9.78367e-05
7.56602e-05
5.08844e-05
2.37135e-05
-5.65559e-06
-3.70325e-05
-7.02343e-05
-0.000105085
-0.000141418
-0.000179074
-0.000217902
-0.000257763
-0.000298527
-0.000340071
-0.000382285
-0.000425065
-0.000468317
-0.000511954
-0.000555898
-0.000600079
-0.000644431
-0.000688895
-0.000733417
-0.000777948
-0.00082244
-0.000866852
-0.000911144
-0.000955277
-0.000999216
-0.00104292
-0.00108636
-0.0011295
-0.0011723
-0.00121473
-0.00125674
-0.0012983
-0.00133937
-0.00137991
-0.00141986
-0.00145918
-0.00149783
-0.00153575
-0.00157289
-0.00160919
-0.00164459
-0.00167903
-0.00171246
-0.0017448
-0.00177598
-0.00180595
-0.00183463
-0.00186195
-0.00188783
-0.00191222
-0.00193502
-0.00195617
-0.00197559
-0.00199321
-0.00200896
-0.00202276
-0.00203454
-0.00204423
-0.00205177
-0.00205708
-0.00206011
-0.00206078
-0.00205906
-0.00205487
-0.00204819
-0.00203895
-0.00202712
-0.00201267
-0.00199556
-0.00197579
-0.00195333
-0.00192817
-0.00190031
-0.00186977
-0.00183655
-0.00180068
-0.00176219
-0.00172112
-0.00167753
-0.00163147
-0.00158301
-0.00153223
-0.00147923
-0.0014241
-0.00136695
-0.0013079
-0.00124709
-0.00118465
-0.00112073
-0.0010555
-0.000989117
-0.000921766
-0.000853632
-0.000784909
-0.0007158
-0.000646514
-0.000577267
-0.000508281
-0.000439784
-0.000372006
-0.000305183
-0.000239552
-0.000175354
-0.000112828
-5.22152e-05
6.24593e-06
6.23184e-05
0.000115769
0.000166368
0.000213892
0.000258123
0.000298853
0.00033588
0.000369013
0.00039807
0.000422884
0.000443298
0.000459168
0.000470366
0.000476778
0.000478307
0.000474871
0.000466406
0.000452865
0.000434219
0.000410458
0.000381588
0.000347636
0.000308646
0.000264681
0.000215823
0.00016217
0.000103838
4.09626e-05
-2.63072e-05
-9.78049e-05
-0.000173349
-0.000252743
-0.000335778
-0.000422232
-0.00051187
-0.000604448
-0.000699712
-0.0007974
-0.000897241
-0.000998959
-0.00110227
-0.0012069
-0.00131254
-0.00141892
-0.00152575
-0.00163272
-0.00173956
-0.00184598
-0.00195169
-0.00205642
-0.0021599
-0.00226185
-0.00236202
-0.00246015
-0.002556
-0.00264933
-0.00273992
-0.00282754
-0.00291198
-0.00299304
-0.00307055
-0.00314431
-0.00321418
-0.00327997
-0.00334157
-0.00339883
-0.00345164
-0.00349989
-0.00354348
-0.00358233
-0.00361638
-0.00364556
-0.00366983
-0.00368912
-0.00370341
-0.00371267
-0.00371688
-0.00371597
-0.00370986
-0.00369843
-0.00368173
-0.00365997
-0.00363007
-0.00358599
0.000209055
0.000204001
0.000195544
0.000183713
0.000168685
0.000150694
0.000129957
0.000106674
8.10385e-05
5.3239e-05
2.34554e-05
-8.13859e-06
-4.13767e-05
-7.61e-05
-0.000112158
-0.000149407
-0.000187713
-0.000226952
-0.000267007
-0.00030777
-0.000349141
-0.000391029
-0.000433352
-0.000476031
-0.000518999
-0.000562193
-0.000605555
-0.000649034
-0.000692581
-0.000736153
-0.000779708
-0.000823209
-0.000866621
-0.000909908
-0.000953038
-0.000995978
-0.0010387
-0.00108116
-0.00112333
-0.00116518
-0.00120666
-0.00124775
-0.00128841
-0.00132858
-0.00136824
-0.00140732
-0.00144579
-0.00148359
-0.00152068
-0.00155699
-0.00159247
-0.00162706
-0.00166069
-0.00169331
-0.00172484
-0.00175522
-0.00178439
-0.00181226
-0.00183877
-0.00186385
-0.00188742
-0.0019094
-0.00192973
-0.00194833
-0.00196513
-0.00198004
-0.00199301
-0.00200396
-0.00201282
-0.00201952
-0.00202399
-0.00202619
-0.00202604
-0.0020235
-0.0020185
-0.00201102
-0.002001
-0.0019884
-0.00197321
-0.00195539
-0.00193492
-0.0019118
-0.00188602
-0.00185759
-0.00182651
-0.00179281
-0.00175651
-0.00171765
-0.00167629
-0.00163246
-0.00158625
-0.00153773
-0.00148698
-0.0014341
-0.0013792
-0.00132239
-0.0012638
-0.00120356
-0.00114183
-0.00107875
-0.0010145
-0.000949245
-0.000883173
-0.000816475
-0.000749349
-0.000682002
-0.000614648
-0.000547506
-0.000480801
-0.000414761
-0.000349621
-0.000285616
-0.000222984
-0.000161963
-0.000102793
-4.57122e-05
9.0446e-06
6.12444e-05
0.000110659
0.000157065
0.000200245
0.000239991
0.000276101
0.000308384
0.00033666
0.000360759
0.000380525
0.000395814
0.000406497
0.000412461
0.000413608
0.000409854
0.000401137
0.000387407
0.000368637
0.000344814
0.000315945
0.000282057
0.000243192
0.000199413
0.000150801
9.74549e-05
3.94898e-05
-2.29608e-05
-8.97472e-05
-0.000160704
-0.00023565
-0.00031439
-0.000396715
-0.000482405
-0.000571226
-0.000662936
-0.00075728
-0.000853998
-0.000952822
-0.00105348
-0.00115568
-0.00125916
-0.00136362
-0.00146878
-0.00157435
-0.00168004
-0.00178557
-0.00189066
-0.00199503
-0.0020984
-0.00220052
-0.0023011
-0.00239991
-0.0024967
-0.00259122
-0.00268324
-0.00277255
-0.00285892
-0.00294217
-0.00302209
-0.00309851
-0.00317126
-0.00324017
-0.00330509
-0.0033659
-0.00342245
-0.00347464
-0.00352236
-0.00356551
-0.00360401
-0.00363778
-0.00366675
-0.00369087
-0.00371007
-0.00372429
-0.00373348
-0.00373757
-0.0037365
-0.00373014
-0.00371833
-0.0037011
-0.00367865
-0.00364783
-0.00360242
0.000258991
0.000249786
0.000238298
0.000224006
0.000206805
0.000186944
0.00016463
0.000140045
0.000113361
8.47484e-05
5.43712e-05
2.23858e-05
-1.10584e-05
-4.5819e-05
-8.17614e-05
-0.000118759
-0.000156693
-0.000195453
-0.000234937
-0.00027505
-0.000315705
-0.000356823
-0.00039833