/*--------------------------------*- C++ -*----------------------------------*\
  =========                 |
  \\      /  F ield         | OpenFOAM: The Open Source CFD Toolbox
   \\    /   O peration     | Website:  https://openfoam.org
    \\  /    A nd           | Version:  7
     \\/     M anipulation  |
\*---------------------------------------------------------------------------*/
FoamFile
{
    version     2.0;
    format      ascii;
    class       volScalarField;
    location    "15";
    object      rho;
}
// * * * * * * * * * * * * * * * * * * * * * * * * * * * * * * * * * * * * * //

dimensions      [1 -3 0 0 0 0 0];

internalField   nonuniform List<scalar> 
2413
(
1.07479
1.31006
1.47814
1.60264
1.70596
1.82617
1.90575
1.87524
0.896182
1.09109
1.45146
1.7392
1.85843
1.8991
1.94583
1.93966
0.822356
0.884959
1.12511
1.62069
1.99105
2.0641
2.04314
2.03196
0.843656
0.86814
0.90916
1.19986
1.86847
2.21032
2.19257
2.15431
0.897718
0.911904
0.935103
0.978858
1.38074
2.20902
2.38697
2.30871
0.985673
1.00378
1.02241
1.03999
1.10619
1.7114
2.51994
2.50829
1.10115
1.11755
1.13285
1.1398
1.14973
1.27824
2.1693
2.62759
1.15156
1.1567
1.15892
1.16227
1.16724
1.18126
1.5702
2.49661
1.16396
1.16444
1.16127
1.15966
1.15763
1.14696
1.19258
1.8315
1.13541
1.12764
1.1181
1.11149
1.10674
1.09616
1.08335
1.19738
1.08936
1.08458
1.07748
1.07486
1.07409
1.07258
1.06814
1.07112
1.0853
1.08373
1.07935
1.07545
1.07585
1.07612
1.07347
1.07259
1.09704
1.09494
1.09262
1.08848
1.08921
1.09176
1.09189
1.09004
1.12433
1.12191
1.12353
1.12292
1.12235
1.12546
1.12688
1.12635
1.16341
1.15957
1.16025
1.16185
1.1607
1.16114
1.16328
1.1629
1.44786
1.48664
1.5232
1.55618
1.58472
1.60724
1.62282
1.63306
1.47836
1.52023
1.5593
1.59435
1.62445
1.64826
1.66477
1.67534
1.54044
1.58508
1.62577
1.66168
1.69206
1.71612
1.73255
1.74285
1.5827
1.62357
1.66113
1.69465
1.7227
1.74494
1.75954
1.76868
1.57716
1.61367
1.64808
1.67961
1.70602
1.72703
1.74047
1.74892
1.54213
1.57779
1.61236
1.64427
1.6706
1.69134
1.70444
1.71253
1.49874
1.53424
1.56996
1.60303
1.63029
1.65136
1.66473
1.67264
1.44934
1.48758
1.52662
1.5619
1.59075
1.61229
1.62596
1.63366
1.40344
1.44404
1.48516
1.52146
1.5504
1.57155
1.58486
1.59204
1.3605
1.40217
1.44395
1.48016
1.5081
1.52813
1.5403
1.54677
1.32225
1.36372
1.40383
1.43907
1.46508
1.48347
1.49424
1.49973
1.2895
1.32889
1.36578
1.39895
1.42183
1.43773
1.44635
1.44999
1.26622
1.301
1.3323
1.35956
1.3747
1.38285
1.3846
1.38442
1.2541
1.28225
1.30766
1.32727
1.3352
1.3366
1.33319
1.3311
1.26199
1.28672
1.30946
1.32445
1.32964
1.33084
1.32409
1.32324
1.28219
1.30549
1.32561
1.33583
1.33944
1.33817
1.3312
1.3306
1.31019
1.33278
1.3479
1.35573
1.35728
1.35307
1.34588
1.34585
1.34107
1.36176
1.37177
1.37687
1.37654
1.36956
1.36364
1.36191
1.36973
1.38352
1.38953
1.38973
1.38521
1.37508
1.3682
1.36615
1.39323
1.39972
1.40047
1.39555
1.38455
1.37253
1.36564
1.36407
1.40893
1.40938
1.40432
1.3942
1.37922
1.36704
1.36024
1.35825
1.41768
1.41369
1.40375
1.38958
1.37432
1.3637
1.35855
1.35696
1.42106
1.41371
1.40119
1.38663
1.37499
1.36772
1.36421
1.36228
1.42098
1.41119
1.39978
1.3898
1.38287
1.37899
1.37679
1.37536
1.41614
1.40847
1.40278
1.39923
1.39717
1.39709
1.39787
1.3985
1.41003
1.40982
1.41021
1.41263
1.41801
1.42434
1.42849
1.42933
1.40469
1.40961
1.41796
1.43003
1.44257
1.45151
1.4565
1.45761
1.39963
1.41353
1.43133
1.44657
1.45728
1.4624
1.46435
1.4637
1.40129
1.42105
1.43683
1.44521
1.44935
1.44969
1.45008
1.44911
1.40129
1.41479
1.42095
1.42164
1.42014
1.41826
1.4185
1.4169
1.38891
1.39117
1.3889
1.38449
1.38092
1.37896
1.38062
1.37821
1.36266
1.35794
1.35113
1.3457
1.34489
1.34659
1.35196
1.34809
1.33084
1.32315
1.31827
1.31862
1.32477
1.33141
1.33887
1.33504
1.29986
1.29566
1.29777
1.3075
1.32123
1.3299
1.33603
1.33278
1.27536
1.27779
1.29143
1.31002
1.32574
1.33374
1.33877
1.33562
1.25712
1.27178
1.2944
1.31452
1.32878
1.33462
1.33867
1.33556
1.25016
1.2734
1.29542
1.31194
1.32004
1.32152
1.32326
1.32007
1.25072
1.27133
1.28751
1.2934
1.29124
1.28441
1.2786
1.27352
1.24925
1.26322
1.26815
1.26375
1.25434
1.2441
1.23601
1.23134
1.24497
1.25093
1.24893
1.24299
1.23637
1.22903
1.22194
1.22021
1.23584
1.23762
1.23733
1.23722
1.23975
1.24426
1.24728
1.25269
1.21648
1.2194
1.2262
1.23809
1.25747
1.27889
1.29755
1.30756
1.18988
1.1968
1.2134
1.24017
1.2784
1.32239
1.36158
1.38388
1.15298
1.15996
1.17944
1.21256
1.24317
1.24453
1.23038
1.20109
1.10401
1.09883
1.08551
1.05667
1.00398
0.917772
0.852208
0.809946
1.04608
1.03596
1.00861
0.94583
0.865717
0.809478
0.78129
0.766293
0.990301
0.959247
0.903196
0.840646
0.799532
0.777237
0.772182
0.759449
0.927849
0.885223
0.834171
0.799166
0.784425
0.771473
0.767917
0.763123
0.860122
0.823759
0.799795
0.788785
0.786394
0.785602
0.790984
0.789029
0.817547
0.798432
0.791617
0.791258
0.799652
0.807397
0.81687
0.818641
0.79278
0.790414
0.794514
0.808598
0.826545
0.838144
0.848599
0.848689
0.787387
0.79524
0.809976
0.833022
0.856442
0.8712
0.884
0.887789
0.788161
0.808057
0.835042
0.861236
0.890741
0.910662
0.927194
0.931916
0.803611
0.829556
0.859155
0.895546
0.929752
0.955582
0.975694
0.982746
0.822504
0.854644
0.890234
0.930607
0.973052
1.00542
1.03122
1.04128
0.847699
0.886432
0.927633
0.973233
1.02191
1.0612
1.09398
1.1083
0.877354
0.919849
0.966827
1.02193
1.07776
1.12637
1.16627
1.18474
0.911938
0.959044
1.01022
1.07569
1.13981
1.20141
1.25342
1.27241
0.949325
1.00199
1.05856
1.13409
1.21032
1.28767
1.34567
1.37696
0.98916
1.04847
1.11201
1.19546
1.28147
1.37982
1.4491
1.49655
1.02965
1.09717
1.17044
1.26041
1.35435
1.47408
1.55331
1.63645
1.07159
1.14918
1.23518
1.33299
1.44002
1.57487
1.66649
1.79341
1.11023
1.19795
1.29966
1.40714
1.52652
1.65041
1.74754
1.93408
1.15205
1.25651
1.37877
1.48272
1.62347
1.7827
1.90785
2.14902
1.47573
1.37772
1.3663
1.3836
1.40876
1.43271
1.45311
1.46633
1.47955
1.49229
1.49643
1.50114
1.50702
1.50916
1.51083
1.51582
1.51852
1.5171
1.51684
1.51551
1.50796
1.49816
1.48738
1.47745
1.4684
1.46021
1.45143
1.4422
1.43248
1.42145
1.4095
1.39594
1.38754
1.3859
1.38641
1.38898
1.39409
1.40226
1.41167
1.41907
1.42547
1.4317
1.43639
1.4393
1.44162
1.44333
1.44372
1.4436
1.44366
1.44394
1.44419
1.44479
1.44564
1.44663
1.44836
1.4514
1.45533
1.45848
1.45949
1.4583
1.45343
1.44532
1.43528
1.42393
1.41147
1.3982
1.38466
1.37114
1.35757
1.34366
1.329
1.3134
1.29702
1.2799
1.26211
1.24374
1.22486
1.20574
1.18763
1.17292
1.16304
1.15658
1.15132
1.14694
1.14417
1.14289
1.14237
1.14203
1.14133
1.13978
1.13735
1.13421
1.13057
1.12667
1.12277
1.11909
1.11582
1.11298
1.11049
1.10818
1.10586
1.10353
1.10129
1.09921
1.09743
1.09609
1.09597
1.09774
1.09994
1.10239
1.10517
1.10826
1.11168
1.11543
1.11959
1.12441
1.12991
1.13602
1.14271
1.14994
1.73771
1.60202
1.53656
1.48846
1.45412
1.43296
1.41893
1.41753
1.41793
1.4285
1.44382
1.45753
1.47054
1.48176
1.48895
1.4968
1.50359
1.50716
1.51031
1.51235
1.50945
1.50187
1.4935
1.48576
1.4791
1.47276
1.4638
1.45427
1.44444
1.43404
1.4226
1.41011
1.40147
1.3983
1.39824
1.39959
1.40357
1.41005
1.41826
1.42594
1.43274
1.43888
1.44323
1.44617
1.44907
1.45148
1.45232
1.45243
1.45272
1.4532
1.45366
1.45443
1.45558
1.45708
1.45983
1.46438
1.46888
1.47137
1.47163
1.46947
1.46348
1.45465
1.44413
1.43233
1.41963
1.40652
1.39335
1.38015
1.3667
1.35275
1.33816
1.32267
1.306
1.28833
1.27008
1.25156
1.23273
1.21378
1.19593
1.18118
1.17058
1.16308
1.15694
1.15165
1.1479
1.1456
1.14416
1.14305
1.14176
1.13991
1.13736
1.13418
1.13054
1.12665
1.1227
1.1189
1.1154
1.11222
1.10936
1.10681
1.10449
1.10227
1.10017
1.09828
1.09666
1.0953
1.09459
1.09551
1.09713
1.09892
1.10107
1.10376
1.10701
1.11092
1.11553
1.1208
1.12677
1.13339
1.14046
1.14785
1.91144
1.78204
1.68747
1.60365
1.53067
1.48159
1.4464
1.42562
1.4238
1.42952
1.44416
1.46035
1.47288
1.48719
1.49623
1.50533
1.51496
1.52271
1.52953
1.53305
1.53434
1.53459
1.5299
1.52269
1.5159
1.50776
1.49715
1.48603
1.4745
1.46265
1.44996
1.43733
1.42794
1.42152
1.42011
1.42107
1.42415
1.4294
1.43815
1.4484
1.45624
1.46254
1.46776
1.47179
1.47585
1.47827
1.4784
1.47814
1.47762
1.47759
1.47797
1.47913
1.48068
1.48294
1.48641
1.4913
1.49487
1.49557
1.4949
1.49181
1.48574
1.47734
1.46726
1.45605
1.4441
1.43156
1.41853
1.40505
1.39109
1.37652
1.36128
1.34538
1.32873
1.3112
1.29278
1.27379
1.25485
1.23636
1.21862
1.20229
1.18817
1.17665
1.16751
1.16012
1.15383
1.14917
1.14614
1.14386
1.14172
1.13946
1.13676
1.13348
1.12976
1.12585
1.1219
1.11797
1.11409
1.11035
1.10678
1.10333
1.10014
1.09744
1.09534
1.09388
1.0928
1.09185
1.09172
1.09268
1.09413
1.09596
1.09824
1.10105
1.1046
1.10908
1.11457
1.12101
1.12844
1.13671
1.14535
1.15399
2.07456
1.97466
1.87043
1.7802
1.68838
1.61529
1.56099
1.51154
1.48123
1.46115
1.45397
1.45369
1.45576
1.46379
1.47176
1.48074
1.4942
1.50825
1.52034
1.52976
1.53551
1.54009
1.5414
1.53723
1.53327
1.53061
1.5234
1.51479
1.50568
1.49507
1.48293
1.47093
1.46027
1.4497
1.4439
1.44373
1.44513
1.44851
1.45594
1.46734
1.47711
1.48494
1.49226
1.49829
1.50334
1.50721
1.50815
1.50794
1.50737
1.50732
1.50781
1.50959
1.51229
1.51597
1.52184
1.52963
1.53434
1.53489
1.5342
1.53124
1.52542
1.51719
1.50748
1.49661
1.48437
1.47127
1.45809
1.44498
1.43176
1.41833
1.40459
1.39042
1.37555
1.35969
1.34251
1.32403
1.30509
1.28664
1.26861
1.25064
1.23294
1.21659
1.20207
1.18887
1.17701
1.16758
1.16031
1.15402
1.14876
1.14438
1.14039
1.13608
1.13132
1.12657
1.12228
1.11853
1.11496
1.11128
1.10749
1.1035
1.09946
1.09588
1.09301
1.09121
1.09038
1.09009
1.0904
1.09141
1.09301
1.09522
1.09806
1.10164
1.10618
1.11183
1.11868
1.12666
1.13563
1.14543
1.15576
1.16608
2.23212
2.14608
2.04238
1.93911
1.84156
1.74694
1.67306
1.60992
1.55068
1.51328
1.48556
1.46159
1.45727
1.45395
1.45568
1.46187
1.47238
1.48364
1.49491
1.50637
1.51474
1.52125
1.52768
1.52871
1.52931
1.53089
1.52783
1.52302
1.51915
1.51178
1.50178
1.49345
1.48498
1.47533
1.46767
1.4649
1.46506
1.4663
1.47085
1.4815
1.49548
1.50706
1.51416
1.51839
1.52154
1.52459
1.52701
1.52858
1.52996
1.53124
1.53229
1.53392
1.5367
1.5412
1.54927
1.56066
1.56657
1.56712
1.56636
1.5635
1.55761
1.5491
1.53893
1.52761
1.51614
1.50499
1.49339
1.48152
1.46999
1.45896
1.44778
1.43588
1.42323
1.40974
1.39499
1.37882
1.36169
1.34439
1.32716
1.30934
1.29081
1.27196
1.25353
1.23583
1.21932
1.20428
1.19112
1.18008
1.17112
1.16311
1.15555
1.14876
1.1422
1.13529
1.12886
1.12459
1.12123
1.11741
1.11371
1.11038
1.10667
1.10318
1.10103
1.1001
1.09977
1.10014
1.10159
1.10373
1.10625
1.10939
1.11343
1.11829
1.12412
1.13133
1.14
1.14977
1.16028
1.17135
1.18279
1.19411
2.40096
2.29461
2.18635
2.08048
1.9829
1.88648
1.80021
1.73135
1.65773
1.60105
1.56377
1.51967
1.49617
1.48424
1.47252
1.46587
1.46302
1.4597
1.46008
1.46492
1.47443
1.484
1.4956
1.50616
1.51221
1.51842
1.51678
1.51266
1.51138
1.50627
1.49846
1.49321
1.48665
1.4798
1.4733
1.46994
1.47007
1.47062
1.47378
1.48348
1.49921
1.51612
1.52844
1.53295
1.5338
1.53467
1.53577
1.53685
1.53803
1.53999
1.54264
1.54545
1.54982
1.5571
1.56919
1.58283
1.58762
1.5876
1.58682
1.58404
1.57777
1.56834
1.55749
1.54658
1.53572
1.52492
1.51502
1.50712
1.49965
1.4911
1.4819
1.47263
1.46291
1.45237
1.44093
1.42898
1.41638
1.40288
1.38893
1.37462
1.35975
1.34351
1.32604
1.30844
1.29115
1.27363
1.25631
1.24078
1.22737
1.21483
1.20247
1.19112
1.18147
1.17241
1.16256
1.1547
1.14962
1.14417
1.13899
1.13541
1.13178
1.12892
1.12803
1.12813
1.12807
1.12855
1.13108
1.13448
1.13794
1.1427
1.14856
1.15496
1.1625
1.17133
1.18063
1.19056
1.20113
1.21178
1.22256
1.23353
2.54045
2.42787
2.31519
2.20517
2.10274
2.00657
1.91525
1.84282
1.77392
1.70355
1.65571
1.60511
1.55697
1.53133
1.50191
1.48044
1.47295
1.46284
1.45569
1.45072
1.45061
1.45479
1.46281
1.47238
1.47788
1.48336
1.48546
1.48469
1.48767
1.48676
1.48379
1.48306
1.47934
1.47504
1.47062
1.4666
1.46642
1.46633
1.46773
1.47589
1.49073
1.50974
1.52805
1.53817
1.54165
1.54216
1.54209
1.54144
1.54108
1.54187
1.54416
1.54756
1.55311
1.56323
1.57967
1.59595
1.60003
1.59993
1.59866
1.59484
1.58721
1.57604
1.56384
1.55212
1.54038
1.53066
1.52318
1.51641
1.50973
1.50233
1.49624
1.49038
1.48383
1.47734
1.47015
1.46167
1.45247
1.4426
1.432
1.42085
1.4095
1.39761
1.38462
1.37095
1.35669
1.34144
1.3255
1.30953
1.2944
1.28038
1.26687
1.25298
1.24047
1.23038
1.2193
1.20956
1.20419
1.19891
1.19287
1.1875
1.18369
1.18129
1.18086
1.18152
1.18104
1.18123
1.18458
1.18825
1.19176
1.1971
1.20297
1.20893
1.21594
1.22416
1.23237
1.24105
1.25031
1.25928
1.268
1.2772
2.6095
2.51016
2.40325
2.29802
2.20244
2.11163
2.02211
1.94748
1.88013
1.80709
1.75477
1.70506
1.64836
1.61241
1.57355
1.53654
1.5209
1.50077
1.48189
1.47606
1.47016
1.46397
1.46013
1.45358
1.44642
1.44309
1.44147
1.44269
1.44621
1.45278
1.45835
1.46162
1.46077
1.46045
1.45933
1.45525
1.45459
1.45447
1.45447
1.46012
1.47484
1.49361
1.51723
1.53818
1.54537
1.54793
1.5477
1.54644
1.54368
1.54326
1.54447
1.54724
1.5528
1.56519
1.58557
1.60451
1.60885
1.60883
1.60727
1.60224
1.59307
1.58082
1.56707
1.55361
1.5419
1.53266
1.52421
1.51717
1.51145
1.50489
1.49952
1.49686
1.49353
1.48809
1.48164
1.47578
1.47031
1.46322
1.4551
1.44675
1.4392
1.43114
1.42208
1.41242
1.40216
1.39136
1.37997
1.36765
1.35483
1.34261
1.33104
1.31899
1.306
1.29558
1.28591
1.27546
1.2687
1.2643
1.25803
1.25051
1.24535
1.24263
1.24201
1.24163
1.23988
1.24008
1.24377
1.24652
1.24864
1.25304
1.25879
1.26289
1.26835
1.27553
1.28192
1.28837
1.29532
1.30201
1.30839
1.31493
2.51156
2.54367
2.46655
2.37375
2.28615
2.20505
2.12247
2.04994
1.98382
1.91248
1.85726
1.80392
1.74773
1.70773
1.66164
1.62054
1.59452
1.56428
1.53294
1.5186
1.50683
1.48747
1.47395
1.46279
1.45108
1.44092
1.43742
1.4338
1.42835
1.42508
1.42555
1.42678
1.42785
1.42903
1.42987
1.42958
1.43084
1.43401
1.43591
1.44014
1.45353
1.47035
1.49507
1.52653
1.54473
1.55296
1.55341
1.55231
1.54833
1.54577
1.5463
1.548
1.55345
1.56778
1.59114
1.61079
1.61439
1.61417
1.612
1.60612
1.59619
1.58302
1.56813
1.55391
1.54211
1.53239
1.52301
1.51568
1.51076
1.50496
1.49967
1.49721
1.49338
1.4866
1.4817
1.47777
1.47242
1.46658
1.46174
1.45688
1.45112
1.4445
1.43832
1.43189
1.42403
1.41565
1.40757
1.3991
1.38994
1.38089
1.37265
1.36431
1.35424
1.34602
1.33977
1.33143
1.32374
1.31993
1.31479
1.30618
1.30149
1.30067
1.29807
1.29505
1.29532
1.29701
1.2962
1.29732
1.29966
1.30032
1.30299
1.30782
1.31119
1.31453
1.31917
1.32463
1.32894
1.33277
1.33711
1.34188
1.81879
2.42371
2.49413
2.43785
2.3625
2.28812
2.21159
2.14582
2.08289
2.01283
1.95847
1.90437
1.84386
1.8046
1.75832
1.71593
1.68549
1.64823
1.61823
1.59284
1.57234
1.54856
1.52384
1.50503
1.48663
1.46694
1.45466
1.44295
1.4306
1.42163
1.41298
1.40289
1.39528
1.39048
1.38985
1.3915
1.39507
1.40091
1.40748
1.41264
1.42233
1.43806
1.45926
1.49693
1.52845
1.54841
1.55766
1.55702
1.5541
1.55069
1.55043
1.55121
1.55702
1.57336
1.59933
1.61658
1.61866
1.618
1.61492
1.60808
1.59744
1.58378
1.56864
1.55408
1.54198
1.53128
1.52116
1.51433
1.50939
1.5035
1.49804
1.49491
1.49031
1.48406
1.47988
1.47608
1.47087
1.46562
1.46151
1.45773
1.45245
1.44708
1.44226
1.43647
1.42978
1.42379
1.41847
1.41311
1.40718
1.4009
1.39523
1.38969
1.38269
1.37596
1.37136
1.36521
1.35772
1.35403
1.35039
1.34298
1.33871
1.33721
1.33336
1.32921
1.32924
1.33005
1.32824
1.32715
1.32924
1.32973
1.32971
1.33336
1.33742
1.33891
1.34116
1.34553
1.34918
1.35154
1.35428
1.35805
1.17435
1.70442
2.30586
2.46276
2.42786
2.36934
2.29109
2.2262
2.16835
2.1045
2.05292
2
1.94003
1.89897
1.85193
1.80773
1.77802
1.73727
1.70613
1.68083
1.65135
1.62267
1.59156
1.56387
1.53764
1.50821
1.48491
1.46473
1.44533
1.4278
1.41556
1.40441
1.39483
1.38637
1.38243
1.37823
1.37207
1.37073
1.37183
1.3749
1.37912
1.39087
1.4078
1.43925
1.48387
1.52031
1.54942
1.55934
1.55922
1.55666
1.55511
1.55563
1.56269
1.58168
1.60976
1.62278
1.62402
1.62308
1.61895
1.61081
1.59932
1.58545
1.57037
1.55537
1.54251
1.53102
1.52053
1.51314
1.50731
1.50142
1.49577
1.49206
1.48781
1.48226
1.47772
1.47336
1.46831
1.4639
1.46021
1.45579
1.45105
1.44657
1.44174
1.43589
1.43038
1.42539
1.42036
1.41547
1.41075
1.40546
1.40044
1.39616
1.39102
1.38496
1.38073
1.37621
1.36959
1.36526
1.36269
1.35795
1.35424
1.35218
1.34876
1.34489
1.34433
1.34451
1.34272
1.34104
1.34285
1.34378
1.34346
1.3463
1.35017
1.35153
1.35281
1.35643
1.35942
1.36104
1.36359
1.36667
1.07694
1.14923
1.54914
2.1794
2.43229
2.43328
2.38583
2.31743
2.25222
2.18866
2.14094
2.09092
2.03303
1.98851
1.94214
1.89799
1.86483
1.82335
1.79144
1.76591
1.73529
1.70438
1.67048
1.63836
1.60781
1.57328
1.54259
1.51554
1.48998
1.46561
1.44681
1.43065
1.41576
1.40211
1.39171
1.38081
1.3714
1.36348
1.35757
1.35074
1.3451
1.34705
1.35456
1.37187
1.40837
1.4534
1.50817
1.54785
1.55508
1.55629
1.55699
1.55963
1.57041
1.59272
1.61975
1.62888
1.62949
1.62803
1.6228
1.61369
1.60171
1.58785
1.57293
1.55743
1.5438
1.53168
1.52085
1.51279
1.50596
1.49996
1.49435
1.48954
1.48561
1.48161
1.47667
1.47091
1.46641
1.46272
1.45856
1.45396
1.4493
1.44462
1.43973
1.43454
1.42917
1.42431
1.41966
1.41507
1.41045
1.40554
1.40071
1.39676
1.3925
1.38682
1.38239
1.37855
1.37303
1.36842
1.36584
1.36248
1.35965
1.35739
1.35457
1.352
1.35165
1.35177
1.35036
1.34862
1.34999
1.35069
1.35038
1.35316
1.35648
1.3573
1.35839
1.3618
1.36464
1.36616
1.36845
1.37091
1.09043
1.09737
1.13955
1.42845
2.01909
2.38242
2.44535
2.40691
2.34633
2.27979
2.22723
2.17558
2.12298
2.07832
2.03067
1.98829
1.95156
1.90718
1.87613
1.84998
1.81636
1.78473
1.75032
1.71534
1.68247
1.64504
1.61012
1.58018
1.54747
1.51712
1.49109
1.46674
1.44494
1.42374
1.40683
1.39174
1.3787
1.36666
1.3595
1.35209
1.34511
1.33764
1.33277
1.33484
1.34568
1.37097
1.41589
1.47823
1.51839
1.54511
1.55467
1.5627
1.57955
1.60602
1.63063
1.63595
1.63559
1.63266
1.62608
1.6162
1.604
1.59044
1.57597
1.56078
1.54646
1.53402
1.52269
1.51374
1.506
1.49911
1.49335
1.48802
1.48327
1.47968
1.47555
1.47006
1.46524
1.46142
1.45722
1.45231
1.44739
1.44261
1.43788
1.43307
1.42806
1.42277
1.41743
1.41244
1.408
1.40385
1.3993
1.39479
1.39083
1.38625
1.38205
1.37832
1.37383
1.36972
1.36648
1.36346
1.36134
1.3593
1.35677
1.35488
1.35459
1.35462
1.35366
1.35298
1.3548
1.35569
1.3558
1.35863
1.36153
1.36253
1.36313
1.36563
1.36801
1.36949
1.3715
1.37353
1.12648
1.12605
1.13235
1.15771
1.34087
1.8794
2.31521
2.44448
2.42463
2.37348
2.31121
2.25344
2.2
2.15722
2.11315
2.07217
2.0317
1.9885
1.96156
1.93239
1.89647
1.86345
1.82782
1.7898
1.7553
1.71812
1.68041
1.64892
1.61509
1.58107
1.55224
1.52334
1.49666
1.47102
1.44822
1.42948
1.41123
1.39379
1.38274
1.37133
1.3594
1.34834
1.33935
1.32835
1.32337
1.32615
1.34054
1.38029
1.4365
1.48983
1.53129
1.55625
1.58165
1.61379
1.63857
1.64236
1.64111
1.63683
1.62926
1.61904
1.60695
1.59375
1.57985
1.56548
1.55123
1.53837
1.52654
1.51616
1.50681
1.49901
1.49284
1.48714
1.48141
1.47727
1.47379
1.46905
1.46453
1.46063
1.45608
1.45102
1.44598
1.44118
1.43636
1.43148
1.42637
1.42103
1.4156
1.40996
1.40526
1.40133
1.39717
1.39272
1.38899
1.38535
1.38185
1.3783
1.3739
1.37044
1.36776
1.36422
1.36174
1.36021
1.35796
1.35605
1.35572
1.35549
1.35431
1.35379
1.35512
1.35633
1.35786
1.36107
1.36382
1.36484
1.3663
1.36884
1.37051
1.37159
1.37311
1.37469
1.16355
1.16477
1.16294
1.16613
1.18113
1.29906
1.72319
2.23761
2.44332
2.4491
2.40735
2.3429
2.28074
2.23272
2.18564
2.14214
2.10531
2.06792
2.03888
2.00821
1.97356
1.93911
1.90221
1.86338
1.82706
1.78772
1.7495
1.71683
1.68245
1.64738
1.61706
1.5861
1.55662
1.52816
1.50046
1.47702
1.45393
1.4305
1.41231
1.39525
1.37909
1.36195
1.34783
1.33455
1.32326
1.32024
1.32151
1.3301
1.35532
1.39896
1.45805
1.51659
1.56763
1.61552
1.64267
1.6453
1.64357
1.63891
1.63123
1.62107
1.60937
1.59683
1.58369
1.57045
1.55704
1.54428
1.53237
1.52105
1.50998
1.50076
1.49351
1.48676
1.48067
1.47615
1.47246
1.46805
1.46339
1.45908
1.45447
1.44949
1.4445
1.43957
1.4345
1.42942
1.42417
1.41889
1.41365
1.40811
1.40355
1.39965
1.39564
1.39181
1.3884
1.38512
1.3818
1.3783
1.37394
1.37061
1.36809
1.36472
1.36166
)
;

boundaryField
{
    inlet
    {
        type            calculated;
        value           nonuniform 0();
    }
    outlet
    {
        type            calculated;
        value           nonuniform 0();
    }
    bottom
    {
        type            symmetryPlane;
    }
    top
    {
        type            symmetryPlane;
    }
    obstacle
    {
        type            calculated;
        value           nonuniform List<scalar> 
184
(
1.47573
1.37772
1.3663
1.3836
1.40876
1.43271
1.45311
1.46633
1.47955
1.49229
1.49643
1.50114
1.50702
1.50916
1.51083
1.51582
1.51852
1.5171
1.51684
1.51551
1.50796
1.49816
1.48738
1.47745
1.4684
1.46021
1.45143
1.4422
1.43248
1.42145
1.4095
1.39594
1.38754
1.3859
1.38641
1.38898
1.39409
1.40226
1.41167
1.41907
1.42547
1.4317
1.43639
1.4393
1.44162
1.44333
1.44372
1.4436
1.44366
1.44394
1.44419
1.44479
1.44564
1.44663
1.44836
1.4514
1.45533
1.45848
1.45949
1.4583
1.45343
1.44532
1.43528
1.42393
1.41147
1.3982
1.38466
1.37114
1.35757
1.34366
1.329
1.3134
1.29702
1.2799
1.26211
1.24374
1.22486
1.20574
1.18763
1.17292
1.16304
1.15658
1.15132
1.14694
1.14417
1.14289
1.14237
1.14203
1.14133
1.13978
1.13735
1.13421
1.13057
1.12667
1.12277
1.11909
1.11582
1.11298
1.11049
1.10818
1.10586
1.10353
1.10129
1.09921
1.09743
1.09609
1.09597
1.09774
1.09994
1.10239
1.10517
1.10826
1.11168
1.11543
1.11959
1.12441
1.12991
1.13602
1.14271
1.14994
1.63306
1.67534
1.74285
1.76868
1.74892
1.71253
1.67264
1.63366
1.59204
1.54677
1.49973
1.44999
1.38442
1.3311
1.32324
1.3306
1.34585
1.36191
1.36615
1.36407
1.35825
1.35696
1.36228
1.37536
1.3985
1.42933
1.45761
1.4637
1.44911
1.4169
1.37821
1.34809
1.33504
1.33278
1.33562
1.33556
1.32007
1.27352
1.23134
1.22021
1.25269
1.30756
1.38388
1.20109
0.809946
0.766293
0.759449
0.763123
0.789029
0.818641
0.848689
0.887789
0.931916
0.982746
1.04128
1.1083
1.18474
1.27241
1.37696
1.49655
1.63645
1.79341
1.93408
2.14902
)
;
    }
    front
    {
        type            empty;
    }
    back
    {
        type            empty;
    }
    procBoundary5to4
    {
        type            processor;
        value           nonuniform List<scalar> 
27
(
1.40784
1.43509
1.4934
1.5397
1.54138
1.50813
1.46461
1.41219
1.36372
1.32029
1.28385
1.25435
1.23549
1.22902
1.24038
1.26351
1.29317
1.32453
1.35315
1.37917
1.40081
1.41484
1.42252
1.42508
1.42153
1.41222
1.40239
)
;
    }
    procBoundary5to6
    {
        type            processor;
        value           nonuniform List<scalar> 
14
(
1.15748
1.15547
1.16263
1.17617
1.2049
1.2437
1.28585
1.32157
1.34666
1.36145
1.3691
1.3728
1.3752
1.37593
)
;
    }
    procBoundary5to12
    {
        type            processor;
        value           nonuniform List<scalar> 
27
(
1.39091
1.38275
1.38122
1.37748
1.36239
1.33647
1.30697
1.27876
1.25572
1.2362
1.22796
1.22913
1.22914
1.22628
1.21307
1.18843
1.1531
1.10789
1.05428
1.0045
0.951494
0.896207
0.846144
0.8054
0.789438
0.782685
0.786801
)
;
    }
    procBoundary5to13
    {
        type            processor;
        value           nonuniform List<scalar> 
129
(
1.19899
1.19555
1.19507
1.19698
1.19634
1.19443
1.19617
1.19712
1.36025
1.35856
1.35657
1.35589
1.35561
1.35448
1.35413
1.35513
1.35581
1.35727
1.36035
1.3637
1.36521
1.36657
1.36889
1.37082
1.37195
1.37309
1.37465
1.19625
1.19734
1.19868
1.19728
1.19782
1.20759
1.27604
1.60258
2.12729
2.42753
2.46598
2.4327
2.37758
2.31581
2.25516
2.21588
2.17827
2.13826
2.11112
2.08238
2.04662
2.01117
1.97403
1.9331
1.89535
1.85737
1.81814
1.78365
1.74811
1.7127
1.68151
1.64939
1.6175
1.58884
1.55963
1.5334
1.5082
1.4815
1.45965
1.43797
1.41746
1.39735
1.37736
1.36138
1.34405
1.33137
1.32712
1.32679
1.3286
1.33981
1.37423
1.43731
1.51761
1.5971
1.63951
1.64454
1.64319
1.63894
1.63151
1.62151
1.6101
1.59798
1.58565
1.5737
1.56148
1.54936
1.53778
1.52639
1.51462
1.50399
1.49547
1.48731
1.48082
1.47573
1.4712
1.46665
1.46175
1.45719
1.45282
1.44802
1.44305
1.43806
1.43289
1.42772
1.42251
1.41734
1.41229
1.40717
1.40255
1.39853
1.39453
1.39061
1.3874
1.38451
1.38143
1.37807
1.37425
1.3711
1.3682
1.36466
1.36025
1.36153
)
;
    }
    procBoundary5to20
    {
        type            processor;
        value           nonuniform List<scalar> 
25
(
0.921424
0.812625
0.794592
0.826774
0.883573
0.967761
1.08487
1.1504
1.16204
1.14044
1.09311
1.08702
1.10209
1.12798
1.16444
0.800419
0.819825
0.844924
0.873298
0.904384
0.936793
0.968918
0.999101
1.01758
1.02774
)
;
    }
}


// ************************************************************************* //
