/*--------------------------------*- C++ -*----------------------------------*\
  =========                 |
  \\      /  F ield         | OpenFOAM: The Open Source CFD Toolbox
   \\    /   O peration     | Website:  https://openfoam.org
    \\  /    A nd           | Version:  7
     \\/     M anipulation  |
\*---------------------------------------------------------------------------*/
FoamFile
{
    version     2.0;
    format      ascii;
    class       volVectorField;
    location    "15.5";
    object      U;
}
// * * * * * * * * * * * * * * * * * * * * * * * * * * * * * * * * * * * * * //

dimensions      [0 1 -1 0 0 0 0];

internalField   nonuniform List<vector> 
2413
(
(2.26368 0.0877086 0)
(2.2659 0.0757365 0)
(2.27366 0.0646299 0)
(2.27333 0.0543948 0)
(2.27624 0.0450857 0)
(2.27841 0.0338977 0)
(2.27351 0.0154077 0)
(2.2732 0.00502135 0)
(2.27308 0.000363612 0)
(2.26464 -0.0110258 0)
(2.25837 -0.0257212 0)
(2.25616 -0.0302045 0)
(2.25184 -0.0363978 0)
(2.24008 -0.0506965 0)
(2.23257 -0.0593875 0)
(2.22581 -0.0605981 0)
(2.2152 -0.0676229 0)
(2.20256 -0.0795956 0)
(2.19315 -0.0854315 0)
(2.18403 -0.0856688 0)
(2.17315 -0.0904364 0)
(2.16089 -0.0996407 0)
(2.15083 -0.104569 0)
(2.14026 -0.104086 0)
(2.12971 -0.105052 0)
(2.11827 -0.109775 0)
(2.10827 -0.113225 0)
(2.09785 -0.113634 0)
(2.08754 -0.112678 0)
(2.07851 -0.112663 0)
(2.0699 -0.114016 0)
(2.06143 -0.115323 0)
(2.05295 -0.114721 0)
(2.04461 -0.111729 0)
(2.03725 -0.109999 0)
(2.03029 -0.109046 0)
(2.0231 -0.105811 0)
(2.0168 -0.101463 0)
(2.01151 -0.0995699 0)
(2.00634 -0.0967685 0)
(2.00049 -0.0919627 0)
(1.99666 -0.0892668 0)
(1.9931 -0.0870902 0)
(1.98877 -0.0830072 0)
(1.9858 -0.0799769 0)
(1.98296 -0.0783147 0)
(1.97991 -0.0757559 0)
(1.97682 -0.072337 0)
(1.97401 -0.0688803 0)
(1.97139 -0.065661 0)
(1.96887 -0.0624996 0)
(1.96642 -0.0594461 0)
(1.96409 -0.0565298 0)
(1.96206 -0.0546799 0)
(1.95993 -0.0529933 0)
(1.95751 -0.0502641 0)
(1.95507 -0.0476679 0)
(1.95241 -0.0457287 0)
(1.94934 -0.044776 0)
(1.945 -0.0464348 0)
(1.93958 -0.05024 0)
(1.93308 -0.0564345 0)
(1.9253 -0.0662923 0)
(1.9176 -0.0767587 0)
(1.90792 -0.0907654 0)
(1.90066 -0.102858 0)
(1.89292 -0.11724 0)
(1.88408 -0.133806 0)
(1.87971 -0.140736 0)
(1.87986 -0.14225 0)
(1.87554 -0.149002 0)
(1.8686 -0.15933 0)
(1.86603 -0.167289 0)
(1.86297 -0.166953 0)
(1.86115 -0.164739 0)
(1.86021 -0.163988 0)
(1.85862 -0.164316 0)
(1.85661 -0.165117 0)
(1.8542 -0.166433 0)
(1.85151 -0.166297 0)
(1.84918 -0.16533 0)
(1.84496 -0.164446 0)
(1.83766 -0.165202 0)
(1.82646 -0.167423 0)
(1.81056 -0.168721 0)
(1.79348 -0.175234 0)
(1.78253 -0.174767 0)
(1.77454 -0.172826 0)
(1.77146 -0.169794 0)
(1.77053 -0.16516 0)
(1.76944 -0.160781 0)
(1.77019 -0.155427 0)
(1.77099 -0.150806 0)
(1.77182 -0.146482 0)
(1.7744 -0.138686 0)
(1.96049 0.100184 0)
(1.96474 0.102306 0)
(1.96896 0.10543 0)
(1.97394 0.108638 0)
(1.97815 0.113003 0)
(1.98124 0.115612 0)
(1.98504 0.119215 0)
(1.99004 0.122411 0)
(1.99473 0.127099 0)
(1.99861 0.129854 0)
(2.00457 0.13399 0)
(2.01131 0.138234 0)
(2.01648 0.141069 0)
(2.0223 0.143637 0)
(2.03011 0.147425 0)
(2.03836 0.151434 0)
(2.04557 0.155254 0)
(2.0533 0.157524 0)
(2.0619 0.158236 0)
(2.07059 0.158516 0)
(2.07939 0.159432 0)
(2.08832 0.160685 0)
(2.09785 0.160573 0)
(2.10788 0.158804 0)
(2.11822 0.157985 0)
(2.12945 0.159438 0)
(2.14124 0.159609 0)
(2.15546 0.154373 0)
(2.16844 0.14558 0)
(2.17905 0.14113 0)
(2.18874 0.140273 0)
(2.2004 0.133819 0)
(2.21403 0.123144 0)
(2.22122 0.114937 0)
(2.22758 0.108008 0)
(2.23444 0.094976 0)
(2.23973 0.0867258 0)
(2.24418 0.0793462 0)
(2.24536 0.0713069 0)
(2.25126 0.0637941 0)
(2.25209 0.0555116 0)
(2.25233 0.0440553 0)
(2.25602 0.0337649 0)
(2.25108 0.0192243 0)
(2.24857 0.00810677 0)
(2.24766 0.00528554 0)
(2.24318 -0.00293206 0)
(2.23584 -0.0146072 0)
(2.23326 -0.0235511 0)
(2.23228 -0.0285461 0)
(2.22299 -0.0380013 0)
(2.21464 -0.0491878 0)
(2.2088 -0.0523451 0)
(2.2018 -0.0571571 0)
(2.18986 -0.066297 0)
(2.18177 -0.0746729 0)
(2.17471 -0.076078 0)
(2.16648 -0.0798246 0)
(2.15463 -0.0876378 0)
(2.14586 -0.0929817 0)
(2.137 -0.0933043 0)
(2.12763 -0.0950299 0)
(2.11704 -0.0998256 0)
(2.10832 -0.102852 0)
(2.09918 -0.103376 0)
(2.08989 -0.103655 0)
(2.08162 -0.104334 0)
(2.07395 -0.105306 0)
(2.0662 -0.106494 0)
(2.05856 -0.106761 0)
(2.05082 -0.104583 0)
(2.04397 -0.102751 0)
(2.0375 -0.102145 0)
(2.03112 -0.100047 0)
(2.0247 -0.0962681 0)
(2.01959 -0.0942791 0)
(2.0147 -0.0927169 0)
(2.00877 -0.0888903 0)
(2.00443 -0.0858284 0)
(2.00083 -0.0844341 0)
(1.99645 -0.0813741 0)
(1.99248 -0.0776084 0)
(1.98944 -0.0757134 0)
(1.98614 -0.0734519 0)
(1.98225 -0.0699686 0)
(1.97891 -0.0667612 0)
(1.97597 -0.0642269 0)
(1.97259 -0.0609093 0)
(1.96969 -0.057962 0)
(1.96712 -0.0557593 0)
(1.9646 -0.0539839 0)
(1.9618 -0.0526027 0)
(1.95849 -0.0520057 0)
(1.95428 -0.0533052 0)
(1.94915 -0.0563608 0)
(1.94233 -0.0628895 0)
(1.93414 -0.0719744 0)
(1.92569 -0.0818407 0)
(1.91569 -0.0948475 0)
(1.90578 -0.107929 0)
(1.89745 -0.119621 0)
(1.88748 -0.134585 0)
(1.8819 -0.142492 0)
(1.88162 -0.143456 0)
(1.87721 -0.149631 0)
(1.87074 -0.159207 0)
(1.86856 -0.165606 0)
(1.86656 -0.165378 0)
(1.86557 -0.163679 0)
(1.86483 -0.163102 0)
(1.86381 -0.163831 0)
(1.86208 -0.164607 0)
(1.86059 -0.165291 0)
(1.85862 -0.165615 0)
(1.85687 -0.165046 0)
(1.85583 -0.164164 0)
(1.85387 -0.16264 0)
(1.85147 -0.161301 0)
(1.84671 -0.161061 0)
(1.83776 -0.162022 0)
(1.82344 -0.162588 0)
(1.80515 -0.168392 0)
(1.79291 -0.169882 0)
(1.78259 -0.168055 0)
(1.77881 -0.165231 0)
(1.77801 -0.16124 0)
(1.77843 -0.156051 0)
(1.77826 -0.152119 0)
(1.77962 -0.147499 0)
(1.78004 -0.14365 0)
(1.78148 -0.138996 0)
(1.78362 -0.132655 0)
(1.96628 0.0954017 0)
(1.97072 0.0974967 0)
(1.97547 0.100496 0)
(1.98032 0.104218 0)
(1.98394 0.107591 0)
(1.98737 0.110093 0)
(1.99207 0.112801 0)
(1.99733 0.116285 0)
(2.00175 0.120174 0)
(2.00591 0.122167 0)
(2.01131 0.125649 0)
(2.01774 0.129246 0)
(2.02305 0.133173 0)
(2.02838 0.135158 0)
(2.03556 0.138303 0)
(2.0434 0.141658 0)
(2.05017 0.145024 0)
(2.05752 0.146697 0)
(2.06545 0.147145 0)
(2.0732 0.147377 0)
(2.08092 0.148181 0)
(2.08866 0.149009 0)
(2.09727 0.1484 0)
(2.1065 0.146251 0)
(2.11558 0.144748 0)
(2.12546 0.144922 0)
(2.13593 0.143269 0)
(2.14911 0.137762 0)
(2.16037 0.131812 0)
(2.17053 0.129384 0)
(2.18035 0.127815 0)
(2.19008 0.12141 0)
(2.20045 0.1119 0)
(2.20617 0.104636 0)
(2.21172 0.0992905 0)
(2.21853 0.0923167 0)
(2.22262 0.0874242 0)
(2.22883 0.0801932 0)
(2.23143 0.0719714 0)
(2.23328 0.0637036 0)
(2.23437 0.0510957 0)
(2.23337 0.0383398 0)
(2.23513 0.0334973 0)
(2.23333 0.0240034 0)
(2.22833 0.0137891 0)
(2.22633 0.00508696 0)
(2.22673 -0.000478597 0)
(2.22003 -0.00998654 0)
(2.21439 -0.0215693 0)
(2.21369 -0.0261479 0)
(2.20946 -0.0320035 0)
(2.20043 -0.0407473 0)
(2.19511 -0.0458461 0)
(2.1905 -0.0492463 0)
(2.18098 -0.0567349 0)
(2.17346 -0.0659069 0)
(2.16773 -0.0683004 0)
(2.16128 -0.0706857 0)
(2.15041 -0.0768958 0)
(2.14207 -0.0822551 0)
(2.13412 -0.0828134 0)
(2.12554 -0.0844421 0)
(2.11555 -0.0888478 0)
(2.10755 -0.0915431 0)
(2.09936 -0.0920461 0)
(2.09093 -0.0932813 0)
(2.08332 -0.0947579 0)
(2.07632 -0.095613 0)
(2.06918 -0.096695 0)
(2.0622 -0.0972959 0)
(2.05507 -0.0957188 0)
(2.04849 -0.093974 0)
(2.04228 -0.0934415 0)
(2.03604 -0.0918793 0)
(2.02993 -0.0888801 0)
(2.02495 -0.0872505 0)
(2.01992 -0.086086 0)
(2.01439 -0.0829666 0)
(2.00997 -0.0804374 0)
(2.00598 -0.0791056 0)
(2.00149 -0.0765558 0)
(1.99735 -0.0735215 0)
(1.99394 -0.0715485 0)
(1.99034 -0.0698428 0)
(1.98659 -0.0670856 0)
(1.98342 -0.0646952 0)
(1.98022 -0.0627039 0)
(1.97673 -0.0606798 0)
(1.97328 -0.0590745 0)
(1.96959 -0.0587405 0)
(1.96498 -0.0603407 0)
(1.95924 -0.0638634 0)
(1.95194 -0.0708019 0)
(1.94374 -0.0792773 0)
(1.93455 -0.0905699 0)
(1.92637 -0.100371 0)
(1.91628 -0.112588 0)
(1.90604 -0.126963 0)
(1.89705 -0.139002 0)
(1.88988 -0.14466 0)
(1.88786 -0.1448 0)
(1.88164 -0.151541 0)
(1.87381 -0.161909 0)
(1.87074 -0.166918 0)
(1.86836 -0.165913 0)
(1.86834 -0.163894 0)
(1.86841 -0.163433 0)
(1.86769 -0.164024 0)
(1.86649 -0.164669 0)
(1.86494 -0.164946 0)
(1.8638 -0.165119 0)
(1.8628 -0.164874 0)
(1.86182 -0.164067 0)
(1.86057 -0.163121 0)
(1.85959 -0.16273 0)
(1.85815 -0.161358 0)
(1.85664 -0.159042 0)
(1.85481 -0.1573 0)
(1.84888 -0.156908 0)
(1.83687 -0.156866 0)
(1.81886 -0.160649 0)
(1.80407 -0.16518 0)
(1.79241 -0.162516 0)
(1.78745 -0.160032 0)
(1.78634 -0.156746 0)
(1.7856 -0.153047 0)
(1.78577 -0.148516 0)
(1.78591 -0.145319 0)
(1.78718 -0.141266 0)
(1.78958 -0.1362 0)
(1.79071 -0.13251 0)
(1.79181 -0.127587 0)
(1.97173 0.0904525 0)
(1.97631 0.0930689 0)
(1.98135 0.096106 0)
(1.98524 0.0997779 0)
(1.98865 0.10238 0)
(1.99373 0.104813 0)
(1.99882 0.107235 0)
(2.00255 0.109594 0)
(2.00779 0.112619 0)
(2.01267 0.115115 0)
(2.01745 0.11816 0)
(2.02354 0.121456 0)
(2.02897 0.125556 0)
(2.03399 0.127026 0)
(2.0402 0.129371 0)
(2.04766 0.132078 0)
(2.05418 0.134947 0)
(2.06101 0.13623 0)
(2.06823 0.136704 0)
(2.07533 0.137111 0)
(2.08239 0.137805 0)
(2.08938 0.138197 0)
(2.09746 0.137124 0)
(2.1061 0.134951 0)
(2.11463 0.133724 0)
(2.12395 0.133814 0)
(2.13385 0.131771 0)
(2.14602 0.127281 0)
(2.15575 0.122294 0)
(2.16471 0.120004 0)
(2.17317 0.116 0)
(2.18179 0.108662 0)
(2.18991 0.103195 0)
(2.19543 0.0974908 0)
(2.20023 0.0939933 0)
(2.20588 0.0860914 0)
(2.21044 0.0766868 0)
(2.21544 0.068041 0)
(2.2165 0.0611958 0)
(2.21874 0.0540828 0)
(2.21967 0.0440909 0)
(2.22034 0.0373926 0)
(2.22186 0.0316643 0)
(2.21987 0.02303 0)
(2.21618 0.015154 0)
(2.21235 0.00365466 0)
(2.21253 -0.000694047 0)
(2.20815 -0.00868209 0)
(2.20245 -0.0174338 0)
(2.19987 -0.0247363 0)
(2.19878 -0.0278104 0)
(2.19146 -0.0347704 0)
(2.18584 -0.0417539 0)
(2.18234 -0.0443279 0)
(2.17562 -0.0504114 0)
(2.16814 -0.05865 0)
(2.16294 -0.061612 0)
(2.15735 -0.0629164 0)
(2.14787 -0.0679719 0)
(2.13981 -0.0735314 0)
(2.13292 -0.0746259 0)
(2.1254 -0.07653 0)
(2.11638 -0.0811288 0)
(2.10925 -0.0837934 0)
(2.10198 -0.0846799 0)
(2.09424 -0.0866816 0)
(2.08713 -0.0884136 0)
(2.08035 -0.0891065 0)
(2.07347 -0.0899095 0)
(2.06677 -0.0904144 0)
(2.05999 -0.08929 0)
(2.05371 -0.0878906 0)
(2.04796 -0.0875075 0)
(2.04204 -0.0861889 0)
(2.036 -0.0839466 0)
(2.031 -0.0824649 0)
(2.02602 -0.0815482 0)
(2.02087 -0.0796061 0)
(2.01607 -0.0771445 0)
(2.0117 -0.0754895 0)
(2.00742 -0.0739772 0)
(2.00303 -0.0719755 0)
(1.99903 -0.0696858 0)
(1.99523 -0.0677786 0)
(1.9914 -0.0663579 0)
(1.98764 -0.0645804 0)
(1.98378 -0.063669 0)
(1.97912 -0.0643935 0)
(1.97292 -0.0679594 0)
(1.96507 -0.0751279 0)
(1.95638 -0.0841366 0)
(1.94518 -0.0982453 0)
(1.93741 -0.106899 0)
(1.9279 -0.118464 0)
(1.91678 -0.134276 0)
(1.90821 -0.145628 0)
(1.90128 -0.150539 0)
(1.89872 -0.148856 0)
(1.89429 -0.153044 0)
(1.88416 -0.161491 0)
(1.87792 -0.167458 0)
(1.87355 -0.168131 0)
(1.87194 -0.165721 0)
(1.87144 -0.165097 0)
(1.86999 -0.165369 0)
(1.86908 -0.165243 0)
(1.86847 -0.165028 0)
(1.86771 -0.165135 0)
(1.86706 -0.164829 0)
(1.86629 -0.164136 0)
(1.86549 -0.163366 0)
(1.86487 -0.16252 0)
(1.8648 -0.161426 0)
(1.86493 -0.159529 0)
(1.86458 -0.156952 0)
(1.86241 -0.15521 0)
(1.86023 -0.152662 0)
(1.8569 -0.152319 0)
(1.84853 -0.151965 0)
(1.83336 -0.153072 0)
(1.81641 -0.158533 0)
(1.80378 -0.157117 0)
(1.79624 -0.154679 0)
(1.79482 -0.151672 0)
(1.79317 -0.149152 0)
(1.7919 -0.146592 0)
(1.7929 -0.142231 0)
(1.79364 -0.138849 0)
(1.79529 -0.135043 0)
(1.79686 -0.131147 0)
(1.79745 -0.128357 0)
(1.79863 -0.123376 0)
(1.9765 0.0860269 0)
(1.98169 0.0888949 0)
(1.9863 0.0927051 0)
(1.98965 0.0952317 0)
(1.99398 0.0977133 0)
(1.9994 0.0993498 0)
(2.00396 0.101332 0)
(2.00814 0.103266 0)
(2.01373 0.105744 0)
(2.01869 0.108482 0)
(2.02277 0.111028 0)
(2.02826 0.113967 0)
(2.03401 0.117285 0)
(2.0389 0.119178 0)
(2.04429 0.12071 0)
(2.05097 0.122748 0)
(2.05747 0.125011 0)
(2.06373 0.126312 0)
(2.07042 0.127033 0)
(2.07722 0.127663 0)
(2.08407 0.128345 0)
(2.09089 0.128549 0)
(2.09882 0.127531 0)
(2.10669 0.12556 0)
(2.11449 0.124453 0)
(2.1229 0.124377 0)
(2.13182 0.121993 0)
(2.14235 0.116716 0)
(2.15087 0.112054 0)
(2.15913 0.110248 0)
(2.16744 0.106107 0)
(2.17622 0.101119 0)
(2.18314 0.0951145 0)
(2.18711 0.0901994 0)
(2.1912 0.0857494 0)
(2.19714 0.0775887 0)
(2.20174 0.0698233 0)
(2.20457 0.0633598 0)
(2.20837 0.0575715 0)
(2.21007 0.0511283 0)
(2.21011 0.0420724 0)
(2.21215 0.0366207 0)
(2.21183 0.0286169 0)
(2.20879 0.0224484 0)
(2.20692 0.0153053 0)
(2.20441 0.00657415 0)
(2.20127 -4.57059e-05 0)
(2.19928 -0.00537187 0)
(2.19443 -0.0120763 0)
(2.19044 -0.0205893 0)
(2.19037 -0.0240514 0)
(2.18658 -0.0295372 0)
(2.1803 -0.0372403 0)
(2.17674 -0.0401686 0)
(2.17205 -0.0447492 0)
(2.16442 -0.0516376 0)
(2.15946 -0.0555364 0)
(2.15443 -0.0565552 0)
(2.14619 -0.0609018 0)
(2.13847 -0.0664706 0)
(2.1322 -0.0678034 0)
(2.1253 -0.0695879 0)
(2.11692 -0.0737852 0)
(2.1101 -0.0758855 0)
(2.10315 -0.0767431 0)
(2.09568 -0.0787441 0)
(2.08869 -0.0801998 0)
(2.08191 -0.0809294 0)
(2.07525 -0.0817415 0)
(2.06862 -0.0819753 0)
(2.06191 -0.0809449 0)
(2.05583 -0.0800001 0)
(2.05028 -0.0800615 0)
(2.04485 -0.0795786 0)
(2.03947 -0.0779483 0)
(2.03477 -0.0770969 0)
(2.02979 -0.0758666 0)
(2.02407 -0.0734372 0)
(2.01912 -0.0714772 0)
(2.01429 -0.070028 0)
(2.00962 -0.0686887 0)
(2.00554 -0.0679225 0)
(2.00179 -0.0670862 0)
(1.99785 -0.066838 0)
(1.99311 -0.0679587 0)
(1.98652 -0.0720687 0)
(1.97832 -0.0796134 0)
(1.96932 -0.0897146 0)
(1.95811 -0.103917 0)
(1.94858 -0.115398 0)
(1.94123 -0.123817 0)
(1.93015 -0.137504 0)
(1.91987 -0.153949 0)
(1.91344 -0.159259 0)
(1.91049 -0.155402 0)
(1.90817 -0.156782 0)
(1.89903 -0.163159 0)
(1.89216 -0.169158 0)
(1.88654 -0.169806 0)
(1.88211 -0.167634 0)
(1.8788 -0.165932 0)
(1.8757 -0.166812 0)
(1.87272 -0.166583 0)
(1.87158 -0.1663 0)
(1.87048 -0.166028 0)
(1.86971 -0.165355 0)
(1.86945 -0.164192 0)
(1.86903 -0.163265 0)
(1.86914 -0.162497 0)
(1.86945 -0.161277 0)
(1.86986 -0.159398 0)
(1.87032 -0.15663 0)
(1.86976 -0.154535 0)
(1.86915 -0.152824 0)
(1.8678 -0.151648 0)
(1.86586 -0.149175 0)
(1.86452 -0.147625 0)
(1.85976 -0.14702 0)
(1.849 -0.146426 0)
(1.83101 -0.15073 0)
(1.81641 -0.153425 0)
(1.80323 -0.150263 0)
(1.80045 -0.148793 0)
(1.79925 -0.146184 0)
(1.79805 -0.143548 0)
(1.79803 -0.140653 0)
(1.7997 -0.136485 0)
(1.80148 -0.132221 0)
(1.80239 -0.129831 0)
(1.80318 -0.127234 0)
(1.80413 -0.123619 0)
(1.80514 -0.119004 0)
(1.98091 0.0822959 0)
(1.98626 0.0856188 0)
(1.99035 0.0893923 0)
(1.99409 0.0909785 0)
(1.99903 0.0925234 0)
(2.00408 0.0939034 0)
(2.00863 0.0949844 0)
(2.01311 0.0969155 0)
(2.01849 0.0992297 0)
(2.0231 0.101923 0)
(2.02721 0.104327 0)
(2.03258 0.106916 0)
(2.0382 0.109397 0)
(2.04311 0.111394 0)
(2.04836 0.112776 0)
(2.05447 0.114474 0)
(2.0606 0.116133 0)
(2.06626 0.117517 0)
(2.07232 0.118298 0)
(2.07862 0.118753 0)
(2.08505 0.119176 0)
(2.09149 0.119216 0)
(2.0986 0.117812 0)
(2.10558 0.115674 0)
(2.11282 0.114826 0)
(2.12059 0.114674 0)
(2.12941 0.112192 0)
(2.13965 0.10801 0)
(2.14784 0.104691 0)
(2.15588 0.103374 0)
(2.1634 0.0994925 0)
(2.17122 0.0939387 0)
(2.17732 0.0873104 0)
(2.18053 0.0839044 0)
(2.18534 0.0782146 0)
(2.19092 0.0718836 0)
(2.1947 0.0642312 0)
(2.19504 0.0598768 0)
(2.20035 0.0545504 0)
(2.20228 0.047462 0)
(2.20244 0.0395358 0)
(2.2046 0.0350905 0)
(2.20264 0.0281824 0)
(2.19998 0.0202904 0)
(2.20059 0.0163207 0)
(2.19768 0.0100608 0)
(2.19247 0.00261337 0)
(2.19123 -0.00117634 0)
(2.18891 -0.00755916 0)
(2.18496 -0.0149568 0)
(2.18356 -0.0212286 0)
(2.18305 -0.0251356 0)
(2.17645 -0.0323365 0)
(2.17217 -0.0362734 0)
(2.16829 -0.0396077 0)
(2.16092 -0.0450449 0)
(2.15587 -0.0496603 0)
(2.15126 -0.0507479 0)
(2.14404 -0.0545644 0)
(2.13676 -0.0599969 0)
(2.131 -0.061526 0)
(2.12462 -0.0633018 0)
(2.11706 -0.0671322 0)
(2.1107 -0.0690825 0)
(2.10422 -0.0703437 0)
(2.09742 -0.07219 0)
(2.09081 -0.0736106 0)
(2.08436 -0.0745855 0)
(2.07805 -0.0751873 0)
(2.07182 -0.0756273 0)
(2.06575 -0.0754953 0)
(2.06 -0.075459 0)
(2.05431 -0.0752041 0)
(2.04838 -0.0741248 0)
(2.04304 -0.0730614 0)
(2.03813 -0.072471 0)
(2.03335 -0.0721455 0)
(2.0282 -0.0708671 0)
(2.02306 -0.0690708 0)
(2.01797 -0.0681777 0)
(2.01241 -0.0686319 0)
(2.00637 -0.0707582 0)
(1.99938 -0.0752194 0)
(1.99081 -0.083126 0)
(1.98176 -0.0937104 0)
(1.97143 -0.107154 0)
(1.95972 -0.122674 0)
(1.95273 -0.13066 0)
(1.9439 -0.140448 0)
(1.93103 -0.15906 0)
(1.92402 -0.168214 0)
(1.91989 -0.164372 0)
(1.91902 -0.16266 0)
(1.91296 -0.166818 0)
(1.90654 -0.171922 0)
(1.90175 -0.172967 0)
(1.89724 -0.171856 0)
(1.89324 -0.17012 0)
(1.88885 -0.16857 0)
(1.88471 -0.167132 0)
(1.88094 -0.167566 0)
(1.87615 -0.167392 0)
(1.87373 -0.166953 0)
(1.87254 -0.165961 0)
(1.87156 -0.164552 0)
(1.87156 -0.163231 0)
(1.8722 -0.161626 0)
(1.87278 -0.159628 0)
(1.87355 -0.15711 0)
(1.87371 -0.15489 0)
(1.8737 -0.153022 0)
(1.87363 -0.151473 0)
(1.87349 -0.149123 0)
(1.87403 -0.147007 0)
(1.87319 -0.145134 0)
(1.87182 -0.142939 0)
(1.86897 -0.142171 0)
(1.86159 -0.141606 0)
(1.84688 -0.142346 0)
(1.82912 -0.148714 0)
(1.81439 -0.147367 0)
(1.80689 -0.145429 0)
(1.80497 -0.14385 0)
(1.80442 -0.140751 0)
(1.80396 -0.137532 0)
(1.8039 -0.135119 0)
(1.80544 -0.131336 0)
(1.80733 -0.127091 0)
(1.8081 -0.125611 0)
(1.80903 -0.122563 0)
(1.80981 -0.118962 0)
(1.8106 -0.115066 0)
(1.98445 0.0791817 0)
(1.98955 0.0831322 0)
(1.99366 0.085914 0)
(1.99815 0.0865852 0)
(2.00312 0.0872868 0)
(2.00814 0.088161 0)
(2.01288 0.0891472 0)
(2.01722 0.0911133 0)
(2.02244 0.0934767 0)
(2.02693 0.0959225 0)
(2.03127 0.0981485 0)
(2.0366 0.100189 0)
(2.04191 0.102132 0)
(2.04668 0.10388 0)
(2.05174 0.105137 0)
(2.05735 0.106623 0)
(2.06289 0.107974 0)
(2.06797 0.109225 0)
(2.07348 0.109822 0)
(2.07935 0.109996 0)
(2.08535 0.110126 0)
(2.09141 0.109819 0)
(2.09844 0.108692 0)
(2.10522 0.107181 0)
(2.11228 0.106797 0)
(2.11973 0.106855 0)
(2.12809 0.104501 0)
(2.13681 0.100031 0)
(2.14383 0.0970696 0)
(2.15066 0.095336 0)
(2.15784 0.0903114 0)
(2.16552 0.0856884 0)
(2.17079 0.0806019 0)
(2.17422 0.0778986 0)
(2.17953 0.072423 0)
(2.18412 0.0664536 0)
(2.18689 0.0598465 0)
(2.18779 0.0563039 0)
(2.19321 0.0514236 0)
(2.19469 0.0445529 0)
(2.19523 0.0384513 0)
(2.19707 0.0344217 0)
(2.19474 0.0280381 0)
(2.19338 0.0204807 0)
(2.19388 0.01797 0)
(2.1907 0.012456 0)
(2.18592 0.00589058 0)
(2.18469 0.00188095 0)
(2.18356 -0.00391152 0)
(2.18067 -0.0108329 0)
(2.17768 -0.0181873 0)
(2.17773 -0.021538 0)
(2.17216 -0.0275358 0)
(2.16718 -0.0323478 0)
(2.16363 -0.0347475 0)
(2.15695 -0.0393329 0)
(2.15184 -0.0444151 0)
(2.14785 -0.0458605 0)
(2.14163 -0.0495285 0)
(2.13495 -0.0547699 0)
(2.12954 -0.0562326 0)
(2.12344 -0.0578001 0)
(2.11652 -0.0607816 0)
(2.11039 -0.0626188 0)
(2.10423 -0.0641497 0)
(2.09805 -0.0656542 0)
(2.09179 -0.0671584 0)
(2.0856 -0.0680439 0)
(2.07935 -0.0683572 0)
(2.07299 -0.068652 0)
(2.06688 -0.0686258 0)
(2.06114 -0.0687505 0)
(2.05568 -0.0693522 0)
(2.05042 -0.0696225 0)
(2.04507 -0.0688721 0)
(2.03982 -0.0678699 0)
(2.03466 -0.0671642 0)
(2.02913 -0.0676551 0)
(2.02285 -0.0700338 0)
(2.0157 -0.0742492 0)
(2.00639 -0.0818066 0)
(1.99557 -0.0933069 0)
(1.98506 -0.105895 0)
(1.97077 -0.124519 0)
(1.9617 -0.136268 0)
(1.95659 -0.142098 0)
(1.94251 -0.159294 0)
(1.93434 -0.174352 0)
(1.92871 -0.172957 0)
(1.92717 -0.169273 0)
(1.92336 -0.171838 0)
(1.91702 -0.17626 0)
(1.91302 -0.177493 0)
(1.90961 -0.176952 0)
(1.90676 -0.175052 0)
(1.90364 -0.172774 0)
(1.90041 -0.17124 0)
(1.89657 -0.170364 0)
(1.89181 -0.169117 0)
(1.88641 -0.16853 0)
(1.88148 -0.167393 0)
(1.87735 -0.166428 0)
(1.87536 -0.164855 0)
(1.87511 -0.162982 0)
(1.87573 -0.160654 0)
(1.87633 -0.157781 0)
(1.8763 -0.155582 0)
(1.87661 -0.153225 0)
(1.87655 -0.151495 0)
(1.87644 -0.150016 0)
(1.87753 -0.147518 0)
(1.87831 -0.145573 0)
(1.87909 -0.143284 0)
(1.87837 -0.141447 0)
(1.87641 -0.139573 0)
(1.87483 -0.138462 0)
(1.87044 -0.138217 0)
(1.86095 -0.13724 0)
(1.84394 -0.141281 0)
(1.8279 -0.145358 0)
(1.81396 -0.141719 0)
(1.81085 -0.14053 0)
(1.80952 -0.138489 0)
(1.80916 -0.135023 0)
(1.80854 -0.13223 0)
(1.80873 -0.130022 0)
(1.81085 -0.12614 0)
(1.8131 -0.122493 0)
(1.81401 -0.120773 0)
(1.81535 -0.116856 0)
(1.81548 -0.114306 0)
(1.81603 -0.111074 0)
(1.98681 0.0769246 0)
(1.9917 0.0805227 0)
(1.99632 0.0822626 0)
(2.00144 0.0823371 0)
(2.00657 0.0824164 0)
(2.01147 0.0827762 0)
(2.01561 0.083834 0)
(2.02037 0.0859524 0)
(2.02523 0.0883931 0)
(2.02967 0.0900207 0)
(2.0344 0.0919441 0)
(2.03981 0.0934097 0)
(2.04498 0.095161 0)
(2.04969 0.0966384 0)
(2.05462 0.0979177 0)
(2.06007 0.099269 0)
(2.06529 0.100577 0)
(2.07005 0.101676 0)
(2.07527 0.102029 0)
(2.08084 0.102135 0)
(2.08654 0.102196 0)
(2.09243 0.101992 0)
(2.09861 0.10087 0)
(2.10447 0.0992255 0)
(2.11063 0.098677 0)
(2.11701 0.0983285 0)
(2.1248 0.0957044 0)
(2.13308 0.0918564 0)
(2.14007 0.0899584 0)
(2.14707 0.0885977 0)
(2.1546 0.0843687 0)
(2.16131 0.079785 0)
(2.16517 0.0754927 0)
(2.16841 0.0720589 0)
(2.17312 0.0666844 0)
(2.17729 0.0609807 0)
(2.17924 0.0558499 0)
(2.18113 0.0526284 0)
(2.18625 0.0484327 0)
(2.18736 0.042151 0)
(2.18815 0.0368644 0)
(2.18985 0.0326206 0)
(2.1878 0.0264278 0)
(2.18696 0.019945 0)
(2.18732 0.01793 0)
(2.18366 0.0128131 0)
(2.17964 0.00683248 0)
(2.17855 0.00289836 0)
(2.17744 -0.00296679 0)
(2.17522 -0.00947895 0)
(2.17216 -0.0166181 0)
(2.17181 -0.0194367 0)
(2.167 -0.0243587 0)
(2.16198 -0.0292403 0)
(2.15874 -0.0310965 0)
(2.15293 -0.035246 0)
(2.14795 -0.0403132 0)
(2.14435 -0.0418707 0)
(2.13883 -0.0451694 0)
(2.13268 -0.0497903 0)
(2.12746 -0.0511433 0)
(2.12165 -0.0525024 0)
(2.11541 -0.0546784 0)
(2.1094 -0.056625 0)
(2.10348 -0.0583812 0)
(2.09767 -0.0596772 0)
(2.09173 -0.0612617 0)
(2.08601 -0.0621526 0)
(2.08025 -0.0626034 0)
(2.07422 -0.0635646 0)
(2.06835 -0.0642388 0)
(2.06265 -0.0643027 0)
(2.05687 -0.0645418 0)
(2.05106 -0.0650185 0)
(2.04526 -0.0660861 0)
(2.0389 -0.068648 0)
(2.03165 -0.0730811 0)
(2.02248 -0.0800437 0)
(2.01061 -0.0921432 0)
(1.99965 -0.104569 0)
(1.98511 -0.122325 0)
(1.97284 -0.139047 0)
(1.96821 -0.142857 0)
(1.95535 -0.156747 0)
(1.94444 -0.17609 0)
(1.938 -0.179326 0)
(1.93478 -0.175137 0)
(1.93258 -0.175634 0)
(1.92656 -0.178877 0)
(1.92248 -0.181622 0)
(1.91933 -0.181451 0)
(1.9165 -0.179571 0)
(1.91422 -0.177103 0)
(1.91233 -0.175633 0)
(1.91021 -0.173903 0)
(1.90721 -0.172633 0)
(1.90354 -0.171723 0)
(1.89857 -0.169594 0)
(1.89357 -0.167614 0)
(1.88825 -0.167015 0)
(1.88324 -0.16517 0)
(1.88082 -0.162519 0)
(1.88066 -0.159068 0)
(1.88046 -0.156019 0)
(1.87987 -0.154162 0)
(1.87975 -0.152139 0)
(1.8792 -0.151011 0)
(1.87935 -0.14916 0)
(1.87948 -0.147168 0)
(1.8804 -0.144785 0)
(1.8817 -0.1421 0)
(1.88242 -0.140485 0)
(1.88219 -0.138836 0)
(1.88051 -0.13781 0)
(1.87921 -0.136042 0)
(1.87701 -0.135271 0)
(1.87155 -0.134252 0)
(1.85942 -0.134236 0)
(1.84198 -0.140307 0)
(1.8262 -0.139048 0)
(1.81647 -0.136899 0)
(1.81482 -0.135091 0)
(1.81325 -0.132874 0)
(1.81236 -0.130233 0)
(1.81262 -0.127214 0)
(1.81402 -0.124153 0)
(1.81622 -0.12119 0)
(1.81827 -0.118493 0)
(1.81961 -0.115374 0)
(1.82041 -0.111843 0)
(1.82037 -0.110583 0)
(1.8208 -0.107301 0)
(1.98809 0.0750378 0)
(1.99314 0.0777725 0)
(1.99838 0.0786928 0)
(2.00398 0.0783885 0)
(2.00916 0.0779767 0)
(2.01352 0.0781927 0)
(2.01793 0.0800228 0)
(2.02244 0.0821844 0)
(2.02682 0.0833095 0)
(2.03172 0.0841656 0)
(2.03712 0.0856953 0)
(2.04259 0.0868727 0)
(2.04775 0.0887159 0)
(2.05247 0.0900366 0)
(2.05713 0.0912482 0)
(2.06221 0.0924106 0)
(2.06706 0.0936813 0)
(2.07167 0.0944132 0)
(2.07675 0.0946793 0)
(2.08172 0.0946385 0)
(2.08661 0.0943671 0)
(2.0916 0.0939182 0)
(2.0973 0.092725 0)
(2.10303 0.0913182 0)
(2.10917 0.091017 0)
(2.11567 0.0907496 0)
(2.12341 0.0885947 0)
(2.13051 0.0851693 0)
(2.13653 0.0833252 0)
(2.14253 0.0813381 0)
(2.14879 0.0764727 0)
(2.15499 0.0721405 0)
(2.15864 0.0686961 0)
(2.16254 0.0655212 0)
(2.16697 0.0614829 0)
(2.17086 0.0561574 0)
(2.17234 0.0518202 0)
(2.17456 0.0487501 0)
(2.17919 0.0445068 0)
(2.18012 0.0384587 0)
(2.18102 0.0336323 0)
(2.18268 0.0295186 0)
(2.1809 0.0236522 0)
(2.18038 0.018185 0)
(2.18079 0.0162533 0)
(2.17679 0.0111502 0)
(2.17329 0.00552152 0)
(2.17232 0.00181401 0)
(2.17096 -0.00381548 0)
(2.16893 -0.00967426 0)
(2.16654 -0.0162148 0)
(2.1659 -0.0181275 0)
(2.16151 -0.0221802 0)
(2.15685 -0.0267938 0)
(2.15396 -0.0283519 0)
(2.14899 -0.0320889 0)
(2.14427 -0.0368883 0)
(2.14096 -0.0384476 0)
(2.13598 -0.0413498 0)
(2.13032 -0.0453455 0)
(2.12535 -0.0468138 0)
(2.11995 -0.0480302 0)
(2.11439 -0.049704 0)
(2.10867 -0.0519207 0)
(2.10307 -0.0538461 0)
(2.0974 -0.0551731 0)
(2.09145 -0.0567891 0)
(2.08568 -0.0573503 0)
(2.0799 -0.0574764 0)
(2.07376 -0.0585988 0)
(2.06778 -0.060139 0)
(2.06206 -0.0616723 0)
(2.05569 -0.0643105 0)
(2.04813 -0.0689076 0)
(2.03905 -0.0754169 0)
(2.02662 -0.0875128 0)
(2.01466 -0.10103 0)
(2.00097 -0.117193 0)
(1.98547 -0.138046 0)
(1.97901 -0.143304 0)
(1.96912 -0.153663 0)
(1.95495 -0.174391 0)
(1.94783 -0.182361 0)
(1.9435 -0.178729 0)
(1.94169 -0.177942 0)
(1.93635 -0.180727 0)
(1.93114 -0.184071 0)
(1.9278 -0.184811 0)
(1.9247 -0.183975 0)
(1.92246 -0.181697 0)
(1.92076 -0.179451 0)
(1.91943 -0.177249 0)
(1.91771 -0.17574 0)
(1.91592 -0.174491 0)
(1.91306 -0.172836 0)
(1.9096 -0.170522 0)
(1.90621 -0.168699 0)
(1.90133 -0.166401 0)
(1.8966 -0.164566 0)
(1.89207 -0.162523 0)
(1.88812 -0.158749 0)
(1.88611 -0.155269 0)
(1.88503 -0.152638 0)
(1.88362 -0.151608 0)
(1.88308 -0.149884 0)
(1.88251 -0.148115 0)
(1.88218 -0.146427 0)
(1.88287 -0.14437 0)
(1.88346 -0.142279 0)
(1.88393 -0.140199 0)
(1.88447 -0.138594 0)
(1.88473 -0.137162 0)
(1.88423 -0.135923 0)
(1.88355 -0.134552 0)
(1.88227 -0.132505 0)
(1.87933 -0.131417 0)
(1.87211 -0.130084 0)
(1.85692 -0.13209 0)
(1.84011 -0.136754 0)
(1.82446 -0.133306 0)
(1.81927 -0.131904 0)
(1.81806 -0.129693 0)
(1.81692 -0.127393 0)
(1.8165 -0.124888 0)
(1.81765 -0.121173 0)
(1.81907 -0.118678 0)
(1.82091 -0.117131 0)
(1.82312 -0.113798 0)
(1.82429 -0.110203 0)
(1.82455 -0.108708 0)
(1.82481 -0.10723 0)
(1.8255 -0.103261 0)
(1.98866 0.0730701 0)
(1.99392 0.0748852 0)
(1.99969 0.0749028 0)
(2.00538 0.074172 0)
(2.01043 0.0741513 0)
(2.01509 0.0757446 0)
(2.01908 0.077547 0)
(2.02334 0.0782017 0)
(2.02844 0.0781164 0)
(2.03377 0.0784226 0)
(2.03912 0.0795781 0)
(2.04456 0.0808594 0)
(2.04942 0.0825374 0)
(2.05392 0.0836745 0)
(2.05892 0.0849315 0)
(2.06386 0.0859921 0)
(2.06832 0.0867515 0)
(2.073 0.0871036 0)
(2.07801 0.0873287 0)
(2.08289 0.0873902 0)
(2.08772 0.0870395 0)
(2.09253 0.0867213 0)
(2.09768 0.0858805 0)
(2.10282 0.0845415 0)
(2.10806 0.0838076 0)
(2.11349 0.0832215 0)
(2.11982 0.08089 0)
(2.1266 0.077724 0)
(2.13244 0.0761318 0)
(2.13854 0.0742205 0)
(2.14526 0.0705277 0)
(2.15083 0.0671302 0)
(2.15439 0.0636383 0)
(2.15771 0.0607237 0)
(2.1619 0.0565638 0)
(2.16525 0.051736 0)
(2.16644 0.0473768 0)
(2.16815 0.0441089 0)
(2.17247 0.0400786 0)
(2.17337 0.0346497 0)
(2.17441 0.0303782 0)
(2.17603 0.0263267 0)
(2.17445 0.0209263 0)
(2.17382 0.0158334 0)
(2.17413 0.0139668 0)
(2.17013 0.00902519 0)
(2.16682 0.0035437 0)
(2.16598 0.00037634 0)
(2.16448 -0.00446478 0)
(2.16252 -0.00951929 0)
(2.16069 -0.0154972 0)
(2.16017 -0.0169494 0)
(2.15649 -0.0204655 0)
(2.15218 -0.0248879 0)
(2.14966 -0.0263534 0)
(2.14539 -0.0297106 0)
(2.14097 -0.0340849 0)
(2.13777 -0.0354689 0)
(2.13319 -0.0378074 0)
(2.12775 -0.0411601 0)
(2.12282 -0.0426857 0)
(2.11753 -0.0437452 0)
(2.11209 -0.0452211 0)
(2.10645 -0.0474391 0)
(2.10106 -0.0492511 0)
(2.09553 -0.050821 0)
(2.08976 -0.0525985 0)
(2.08405 -0.0536453 0)
(2.07833 -0.0545635 0)
(2.07186 -0.0568222 0)
(2.06384 -0.0619013 0)
(2.05468 -0.069158 0)
(2.04265 -0.0808815 0)
(2.02973 -0.0963725 0)
(2.01779 -0.110929 0)
(2.00031 -0.13363 0)
(1.99086 -0.143231 0)
(1.98449 -0.149724 0)
(1.96773 -0.169045 0)
(1.95899 -0.183786 0)
(1.95275 -0.182316 0)
(1.95018 -0.179839 0)
(1.94611 -0.182227 0)
(1.94062 -0.18502 0)
(1.9369 -0.186876 0)
(1.93347 -0.186544 0)
(1.93058 -0.185366 0)
(1.92828 -0.18326 0)
(1.92668 -0.181217 0)
(1.92535 -0.179405 0)
(1.92398 -0.177354 0)
(1.92228 -0.175399 0)
(1.92027 -0.173532 0)
(1.9188 -0.17122 0)
(1.91621 -0.169414 0)
(1.91293 -0.166474 0)
(1.91078 -0.163942 0)
(1.90674 -0.160491 0)
(1.90187 -0.157466 0)
(1.89676 -0.15522 0)
(1.89181 -0.152015 0)
(1.88911 -0.150489 0)
(1.88766 -0.149242 0)
(1.88603 -0.147586 0)
(1.88611 -0.145484 0)
(1.88633 -0.143214 0)
(1.88618 -0.141262 0)
(1.88606 -0.13973 0)
(1.88617 -0.138295 0)
(1.88636 -0.137218 0)
(1.88699 -0.135688 0)
(1.88768 -0.133605 0)
(1.88815 -0.132348 0)
(1.88663 -0.130392 0)
(1.88482 -0.128379 0)
(1.88065 -0.127482 0)
(1.87083 -0.126349 0)
(1.85378 -0.13051 0)
(1.8376 -0.132121 0)
(1.825 -0.128683 0)
(1.82234 -0.127012 0)
(1.82167 -0.124156 0)
(1.82066 -0.122117 0)
(1.82055 -0.119679 0)
(1.82182 -0.116079 0)
(1.82362 -0.114183 0)
(1.82506 -0.113285 0)
(1.82746 -0.109595 0)
(1.82851 -0.106583 0)
(1.82897 -0.10506 0)
(1.83046 -0.102775 0)
(1.83072 -0.0989118 0)
(1.98889 0.0711894 0)
(1.99439 0.0720078 0)
(2.00033 0.0712595 0)
(2.00586 0.0706956 0)
(2.01109 0.0720565 0)
(2.01544 0.0740223 0)
(2.0197 0.0746294 0)
(2.02489 0.0740768 0)
(2.03022 0.0732708 0)
(2.03487 0.0729942 0)
(2.03976 0.0738671 0)
(2.0452 0.0751776 0)
(2.05003 0.0763157 0)
(2.0551 0.0777112 0)
(2.0604 0.0786445 0)
(2.06524 0.0795542 0)
(2.06993 0.0800048 0)
(2.07471 0.0802807 0)
(2.07916 0.0805005 0)
(2.08326 0.080503 0)
(2.08726 0.0800413 0)
(2.09126 0.0795524 0)
(2.09577 0.0786505 0)
(2.10114 0.077524 0)
(2.10636 0.0763706 0)
(2.11208 0.0757322 0)
(2.11843 0.0740803 0)
(2.12496 0.071724 0)
(2.13025 0.0699059 0)
(2.13556 0.0681934 0)
(2.14085 0.064546 0)
(2.14593 0.0615202 0)
(2.14962 0.0578445 0)
(2.15254 0.055273 0)
(2.15665 0.0513056 0)
(2.15979 0.0480411 0)
(2.16221 0.0438887 0)
(2.16309 0.0407261 0)
(2.16655 0.0366616 0)
(2.16751 0.0316262 0)
(2.16859 0.0278119 0)
(2.1698 0.023791 0)
(2.1683 0.0188168 0)
(2.16771 0.0142327 0)
(2.1678 0.0126088 0)
(2.16406 0.00789803 0)
(2.16071 0.00252294 0)
(2.15974 -0.000212971 0)
(2.15849 -0.00417173 0)
(2.15668 -0.00848526 0)
(2.15493 -0.0141042 0)