/*--------------------------------*- C++ -*----------------------------------*\
  =========                 |
  \\      /  F ield         | OpenFOAM: The Open Source CFD Toolbox
   \\    /   O peration     | Website:  https://openfoam.org
    \\  /    A nd           | Version:  7
     \\/     M anipulation  |
\*---------------------------------------------------------------------------*/
FoamFile
{
    version     2.0;
    format      ascii;
    class       volVectorField;
    location    "0.98";
    object      U;
}
// * * * * * * * * * * * * * * * * * * * * * * * * * * * * * * * * * * * * * //

dimensions      [0 1 -1 0 0 0 0];

internalField   nonuniform List<vector> 
12359
(
(0.981119 -0.000269035 -1.56706e-16)
(0.969081 -0.000461873 -1.41189e-17)
(0.999962 -6.71529e-06 1.9562e-18)
(0.930802 -0.000326857 2.31168e-18)
(0.97607 -0.0012897 -4.23915e-17)
(0.885783 0.0027957 1.07144e-16)
(0.852918 -0.00302874 6.83901e-17)
(0.873493 -0.000949717 8.12546e-17)
(0.802255 0.0141978 -6.42991e-17)
(0.896125 0.000801302 2.52251e-18)
(0.824331 0.0108064 1.12516e-16)
(0.738983 0.0252147 5.57438e-17)
(0.350064 0.0417765 -2.68251e-16)
(0.925152 0.00182142 -7.70795e-17)
(0.939874 -0.00143184 1.23813e-19)
(0.571127 0.0318175 2.25209e-17)
(0.477845 0.0335472 2.8936e-17)
(0.994653 5.43994e-05 -6.69831e-17)
(0.995209 2.69411e-05 5.51999e-17)
(0.958492 -0.000285591 4.62029e-17)
(0.919479 0.000918278 -4.03459e-17)
(0.774807 0.0192457 -1.22398e-16)
(0.962906 -0.00127552 1.46406e-16)
(0.954982 -0.00028078 6.44513e-17)
(0.966424 -0.000688732 1.35676e-16)
(0.959991 -0.000613107 2.23879e-16)
(0.998662 -7.27467e-05 2.20422e-17)
(0.998845 -4.28423e-05 6.50427e-18)
(0.995938 4.38439e-05 -2.23411e-17)
(0.997948 7.49974e-06 -2.73689e-17)
(0.997427 -6.84097e-05 -1.15086e-16)
(0.999384 2.52424e-05 -5.3653e-18)
(0.999786 -1.03845e-05 -5.07747e-17)
(0.998182 -2.74272e-05 -2.87385e-17)
(0.999894 2.98776e-06 9.31022e-18)
(0.997278 -2.43005e-05 -7.88917e-17)
(0.988984 -0.000123724 -3.0607e-17)
(0.98301 -0.000241515 1.59415e-16)
(0.978411 -0.000756399 6.81877e-17)
(0.985151 -0.000227686 1.72645e-17)
(0.970968 -0.00114154 -2.46656e-16)
(0.98434 0.000196279 -4.86374e-17)
(0.991509 -0.000161769 -5.61598e-17)
(0.992185 -0.000179743 7.47703e-17)
(0.996476 -0.000195095 4.95897e-19)
(0.996275 -6.95946e-05 5.80445e-18)
(0.996961 -0.000135433 8.48695e-18)
(0.997638 -9.61629e-05 -3.26299e-17)
(0.995597 0.000141633 1.03163e-17)
(0.998423 -8.04339e-05 3.22666e-18)
(0.998978 -4.90991e-05 1.95344e-17)
(0.999151 -7.94998e-05 -4.98272e-17)
(0.999401 -2.90208e-05 3.49274e-17)
(0.994229 2.78329e-07 1.04431e-16)
(0.999596 2.15451e-05 -3.88287e-17)
(0.999714 -1.82505e-05 -3.12339e-18)
(0.992915 -0.000148742 -1.76508e-17)
(0.999805 -5.48175e-06 -1.48578e-17)
(0.999809 -2.56285e-05 2.08202e-17)
(0.999877 2.06541e-05 -1.63107e-17)
(0.999638 -2.47238e-05 1.14896e-18)
(0.999926 1.00765e-05 3.81583e-17)
(0.999098 -6.60389e-05 -1.10177e-17)
(0.192704 0.0592037 -1.1214e-15)
(0.993533 -9.42025e-05 -2.20274e-17)
(0.909634 -0.00127355 -2.69727e-17)
(0.989689 0.000234182 -3.05249e-17)
(0.999277 -1.80532e-05 -3.72411e-17)
(0.987981 -0.000641879 5.66397e-17)
(0.634166 0.0317603 3.47589e-17)
(-0.000612353 0.00587514 5.70168e-15)
(0.972945 -0.00168932 -6.20458e-17)
(0.999962 -1.8877e-05 -1.22235e-17)
(0.986487 -0.00065973 1.60064e-16)
(0.948601 -0.00263209 -7.89072e-18)
(0.999908 6.25076e-06 -3.00919e-17)
(0.999481 -2.80734e-05 3.81596e-17)
(0.999919 -1.93627e-05 3.40945e-17)
(0.98963 -0.000621262 3.40537e-17)
(0.678336 -0.00363359 -6.94392e-17)
(0.918433 0.0566485 3.48483e-17)
(1.00377 0.00282781 6.56118e-18)
(1.00003 5.20488e-06 -5.31971e-19)
(0.998327 0.0123034 -2.64378e-18)
(1.0965 0.145006 2.51215e-17)
(1.02214 0.00186833 2.69089e-18)
(1.00383 0.0025896 2.45188e-18)
(1.00158 -0.000219128 6.47277e-19)
(1.11347 0.0685869 5.68441e-18)
(1.08715 0.150224 1.70653e-17)
(0.999965 0.000168214 4.15211e-17)
(0.250678 0.162412 -4.96208e-16)
(1 5.18691e-06 -1.36857e-17)
(0.9997 0.00623444 -1.00673e-17)
(0.99949 0.0113723 6.63159e-18)
(1.03646 0.00170612 -6.07359e-19)
(1.00005 0.00522277 1.11028e-18)
(0.999359 0.0061813 -7.18976e-18)
(0.990838 0.0299967 1.4609e-17)
(0.994163 0.0188061 4.58671e-17)
(0.940163 0.0771061 -5.93709e-18)
(1 2.15752e-05 4.13059e-18)
(1.021 0.00118299 -2.73151e-18)
(1.25712 0.0937062 -3.2275e-17)
(1.00487 0.00105834 -3.71346e-18)
(1.03364 0.0229044 4.37023e-20)
(1.00024 -8.82585e-05 -5.16063e-18)
(1.09231 0.151966 5.20532e-17)
(1.01819 0.00177769 -1.68451e-17)
(1.03362 0.0214936 -4.54328e-19)
(1.0001 0.00505576 9.00621e-20)
(1.00355 0.00270989 -4.55204e-19)
(0.93842 0.0467512 1.43522e-16)
(0.957422 0.0764297 -6.03392e-18)
(0.999007 0.0106365 9.3765e-18)
(1.00362 -4.72693e-05 6.63228e-18)
(0.953127 0.0786322 -1.2528e-17)
(1.0046 0.00246795 -4.7423e-18)
(1.13348 0.0558119 -4.76662e-18)
(1 1.5388e-05 4.57703e-20)
(1.00004 0.00498931 4.65108e-18)
(0.865167 0.0265729 9.13093e-17)
(1.00176 0.000217125 3.26364e-18)
(1.03894 0.00714616 6.64394e-18)
(1.00483 0.0023012 -1.06361e-17)
(1.00328 0.000768864 1.23503e-18)
(1.00931 0.0935754 3.63026e-18)
(0.998304 0.0125839 2.79954e-17)
(0.999994 1.03677e-05 4.43711e-17)
(1.00483 0.00206876 2.25113e-17)
(1.00251 -0.000301172 -2.06832e-19)
(1.0501 0.0194767 2.81903e-18)
(1.05242 0.0184216 -7.04818e-18)
(1.05054 0.0175606 3.79917e-18)
(1.00023 7.77863e-05 3.14328e-18)
(1.03838 0.00682599 1.96803e-18)
(1.00301 0.00047654 8.14314e-18)
(1.03752 0.00770753 1.208e-18)
(1.00001 9.93348e-05 -5.64346e-17)
(1.00787 0.0922179 2.06973e-17)
(1 2.14725e-05 3.14499e-19)
(0.982401 0.00260786 7.98093e-17)
(1.03136 0.0132221 -6.73429e-18)
(1.00025 -5.55886e-05 -1.0523e-18)
(1.03967 0.0405481 -7.7524e-18)
(0.895271 0.0285094 -6.91358e-17)
(1.00002 3.9586e-06 -6.79321e-19)
(1.08798 0.123723 2.87379e-17)
(1.00507 0.00120548 1.54377e-18)
(0.921245 0.0637014 2.3202e-17)
(1.04163 0.00276412 -2.5291e-18)
(0.999995 2.79963e-05 4.64158e-17)
(1.03163 0.0141765 -7.51327e-18)
(1.00182 0.000183031 -6.04946e-19)
(1.00001 -4.22594e-06 1.09981e-18)
(0.578147 1.31464 1.93279e-18)
(0.934345 0.0869523 6.72112e-19)
(1.04971 0.0198226 8.13906e-19)
(1.00008 0.00535278 -8.49887e-18)
(0.999292 0.000500174 -2.2644e-18)
(1.00274 0.0445882 1.88795e-17)
(0.999245 0.000690818 -1.27578e-17)
(1.0401 0.00574187 -2.88401e-18)
(1.03382 0.0115395 -6.5433e-19)
(1.00004 4.33287e-05 2.36497e-18)
(1.0033 0.000378956 3.12007e-19)
(1.00178 0.0445011 1.79016e-17)
(0.875815 0.0125677 -1.05152e-16)
(1.03266 0.0114692 1.28512e-18)
(1.12316 0.0658461 8.2068e-18)
(0.999996 1.87372e-05 -3.81968e-17)
(0.999957 4.54866e-05 -1.86367e-17)
(1.03339 0.00949596 4.50384e-18)
(0.973312 0.00289421 8.59325e-17)
(1.00474 0.00101453 1.11575e-17)
(1.00438 0.0898151 2.31522e-17)
(0.996536 0.000499188 5.78035e-18)
(0.996623 0.000868493 -4.99291e-17)
(0.934611 0.047095 1.39761e-17)
(1.00449 0.0868366 2.07002e-17)
(0.936423 0.00603486 3.71509e-17)
(1.00001 3.41623e-05 3.48882e-18)
(0.999977 1.94469e-05 3.02192e-17)
(1.00409 0.00274568 2.14128e-18)
(0.991647 0.0276844 5.46145e-18)
(0.853554 0.105729 3.02705e-16)
(1.00433 0.00580689 2.04705e-18)
(1.00008 0.0107108 -9.50067e-18)
(1.03816 0.00128367 1.91617e-18)
(1.00467 0.00622569 -7.04694e-18)
(0.999642 0.0101518 1.0139e-18)
(1.03572 -0.000664758 -1.81018e-18)
(1.03391 0.00178543 -1.36245e-18)
(1.00189 -0.000142889 5.59325e-19)
(1.03472 0.0203626 -4.43148e-18)
(1.12122 0.0741775 -1.41435e-17)
(1.01493 0.0125476 -5.4158e-18)
(1.00352 0.00585846 7.99389e-18)
(1.03125 0.0157696 -7.17687e-18)
(1.00461 0.00233434 -4.19502e-18)
(0.900186 0.0287901 -2.05759e-18)
(1.03928 0.000613335 -2.75359e-19)
(0.993242 0.0188642 -1.26632e-18)
(1.03376 0.0210277 -2.79936e-18)
(1.03602 0.0378792 -5.42598e-18)
(1.00001 2.97989e-05 -4.66879e-18)
(1.03674 0.0375028 -8.10574e-18)
(0.992207 0.0179808 1.18156e-17)
(1.04183 0.00774141 1.87046e-18)
(1.00569 0.00402551 -6.94306e-18)
(1.00001 3.11686e-05 1.10417e-18)
(1.04585 0.015988 -5.4502e-18)
(1.04618 0.0161578 -1.72572e-18)
(1.07266 0.117614 -1.58795e-17)
(0.840315 0.0863951 1.11883e-17)
(0.999963 3.20333e-05 2.01982e-17)
(1.00382 0.00596922 -5.51042e-18)
(0.999331 0.0106279 1.48227e-18)
(1.0042 0.00588349 3.38645e-19)
(0.981951 0.00129669 2.24267e-16)
(0.947913 0.0601862 2.03438e-17)
(1.00518 0.00362182 -2.24392e-18)
(1.03867 0.00671363 -3.09296e-19)
(0.464033 0.370989 -1.80259e-16)
(1.00516 0.00264399 -1.51907e-17)
(1.00001 3.90771e-05 -2.80651e-18)
(0.981688 0.00117823 2.41989e-16)
(1.01878 0.00128514 -1.34465e-17)
(1.00112 0.0873069 2.13043e-17)
(1.00274 0.00649586 1.23577e-17)
(1.00293 0.00637173 8.46315e-18)
(1.00003 2.93849e-06 6.20092e-19)
(1.03869 0.0407056 -6.77445e-18)
(0.993083 0.023647 1.90797e-18)
(1.0007 0.0102167 -1.08758e-17)
(0.993863 0.0215146 3.89125e-17)
(1.00001 2.52507e-05 -5.08665e-19)
(1.03232 0.016083 3.07925e-18)
(1.00047 0.0104144 -1.69647e-17)
(0.629045 0.255049 9.23291e-17)
(1.00007 3.32689e-05 6.86706e-19)
(1.02332 0.00110659 -1.09156e-18)
(1.00012 0.0075675 -9.45446e-18)
(0.984987 0.165198 5.26899e-17)
(1.00374 0.0489817 -1.23344e-17)
(1.08962 0.125928 3.59458e-17)
(0.999856 4.953e-05 4.04633e-18)
(1.0411 0.0072861 -1.49425e-18)
(1.00413 0.00117835 4.90135e-18)
(1.034 0.00464989 -3.14318e-18)
(1.04338 0.013147 -6.59388e-18)
(0.985298 0.000286493 1.24347e-16)
(0.99692 0.00068335 -1.88011e-18)
(1.00246 0.0063156 5.52996e-18)
(0.506812 0.434401 1.01973e-16)
(1.24574 0.144084 6.40759e-17)
(0.999989 1.03828e-05 2.27986e-18)
(1.00575 0.00310059 -5.92682e-18)
(0.359303 0.310369 1.65267e-16)
(0.477296 0.0137348 1.00885e-16)
(0.993537 0.0189157 1.17855e-17)
(1.0022 0.0483918 5.12213e-18)
(1.0022 0.0800174 -1.01541e-17)
(1.03461 0.018862 -2.36361e-18)
(0.97286 0.00119667 2.57165e-16)
(1.3476 0.369903 3.75816e-17)
(1.12138 0.0574087 -1.50345e-18)
(1.00422 0.0491157 -3.7758e-18)
(1.00543 0.00273991 -2.9865e-18)
(1.03777 0.00759194 6.45723e-18)
(1.0334 0.0106705 4.19651e-18)
(0.987981 0.0266887 1.26923e-17)
(1.03288 0.0127156 1.9682e-19)
(1.00239 0.00684702 -1.34885e-18)
(1.00564 0.00323493 -3.82259e-18)
(1.00005 1.70845e-05 -4.75703e-19)
(1.00558 0.00294779 -5.56512e-18)
(1.15786 0.106734 3.68389e-17)
(1.00511 0.0522864 -2.36261e-17)
(1.00035 0.000140564 7.67782e-19)
(0.999998 4.65971e-05 8.46447e-18)
(1.03504 0.0188216 2.85985e-19)
(1.00709 0.00102113 7.21675e-18)
(0.991067 0.000617022 3.05708e-17)
(1.02254 -0.00129815 -1.76645e-18)
(1.00001 2.71555e-05 -2.1115e-18)
(0.999291 0.0782694 1.86467e-17)
(1 1.2803e-05 -1.95035e-17)
(1 -1.33157e-05 -1.90965e-17)
(0.999463 0.000110789 7.67439e-17)
(1.03922 0.00611008 1.73923e-18)
(1.00409 0.00225126 -2.8515e-18)
(1.41565 0.428322 3.91431e-17)
(1.00024 6.86166e-05 4.78558e-18)
(1.00036 -2.47762e-05 -2.37986e-18)
(1.02157 0.00182073 4.9991e-18)
(1.00431 -0.000446194 3.85589e-18)
(0.944536 0.0706528 6.66817e-18)
(0.998955 0.00953845 -1.82299e-17)
(0.999057 0.000263571 -1.34431e-16)
(0.999967 3.81097e-05 -1.08744e-17)
(1.15229 0.0959666 3.26347e-17)
(1.00329 0.0794036 1.15362e-18)
(0.999969 5.00619e-05 3.53636e-19)
(1.00378 0.00592897 3.68689e-18)
(0.999775 0.00894793 -2.88634e-19)
(1.00448 0.00129808 -7.14794e-18)
(1.00328 0.000824528 6.36226e-18)
(1.00288 -0.000466549 1.89342e-18)
(1.00442 0.00076856 3.20909e-18)
(0.995366 0.0013811 4.97702e-17)
(0.817508 0.0634175 -9.83454e-17)
(1.00476 -0.000930864 -5.28113e-18)
(0.997774 3.44104e-05 2.34307e-16)
(0.986178 0.00116339 7.84756e-17)
(1.02556 0.0276306 8.08513e-18)
(1.103 0.04378 4.35123e-18)
(1.00527 0.000181049 -3.03e-18)
(0.990095 0.0251174 1.72913e-18)
(0.569175 0.0597617 1.5444e-16)
(0.999995 6.3345e-06 8.2507e-18)
(1.02753 0.0127468 -4.47648e-18)
(1.00048 0.000257051 1.256e-20)
(1.01449 0.0127843 -6.20119e-18)
(1.00025 6.02873e-05 -4.30632e-18)
(1.00571 0.00109773 3.41324e-18)
(0.795496 0.0394804 9.84213e-17)
(1.02828 0.0144833 1.21685e-17)
(0.827755 0.0892456 -1.46369e-16)
(0.991237 0.00039077 -1.57268e-16)
(1.00066 0.00803961 -6.2818e-18)
(1.03506 -0.000796032 6.93178e-19)
(1.03908 0.00112008 1.50372e-18)
(1.00057 0.00799993 4.58795e-18)
(1.03662 -0.000769205 1.7392e-18)
(1.03478 -0.000931746 1.80087e-19)
(1.00077 0.000165687 -5.05304e-18)
(0.999574 0.000436212 -6.07299e-19)
(0.999574 0.00036571 -1.40573e-18)
(0.999559 0.000400347 3.22262e-17)
(0.999545 0.000347324 5.17162e-17)
(0.687006 0.279195 1.69933e-16)
(1.00003 4.40853e-05 -6.87773e-19)
(0.940283 0.076123 -1.76824e-17)
(1.04213 0.00467714 -1.6117e-20)
(0.992942 0.0258651 -9.16925e-18)
(1.0331 0.013392 -1.86559e-18)
(1.02829 0.0159432 9.54929e-18)
(1.02077 0.00223478 -5.50507e-19)
(1.01363 0.0124277 1.48753e-18)
(1.02897 0.0140201 8.73349e-18)
(1.01352 0.0124999 -1.02038e-18)
(0.991314 0.0268535 -1.9065e-17)
(1.02736 0.0284983 1.8399e-17)
(1.02645 0.0327414 6.45216e-19)
(0.955875 0.0508321 5.30752e-18)
(0.981073 0.00212703 1.80334e-17)
(1.03239 0.0818818 -8.18068e-18)
(0.982802 0.00176435 7.74798e-18)
(0.982829 0.00117845 5.17783e-17)
(1.03063 0.0163172 -1.20097e-17)
(0.941728 0.0971723 -9.7238e-18)
(1.00315 0.00271813 -3.79892e-18)
(0.999602 9.20907e-05 -4.52765e-17)
(1.01631 0.0118002 5.01196e-18)
(0.999649 3.9028e-05 3.42361e-18)
(1.00339 0.00306767 -9.10688e-19)
(0.745312 0.0196361 1.88204e-17)
(0.126513 0.096981 -2.39139e-16)
(1.00327 0.0028399 -3.33402e-18)
(0.999982 8.86526e-06 -1.87709e-17)
(1.00019 1.30774e-06 -6.03451e-19)
(0.999989 2.45201e-05 -1.07817e-17)
(1.02913 0.0132526 1.96689e-18)
(1 2.58296e-05 2.97834e-18)
(0.999996 1.91523e-05 -2.31897e-18)
(1.12008 0.072952 1.15377e-17)
(1.03379 0.0118664 -2.41938e-18)
(1.08257 0.176566 -1.49484e-17)
(1.00153 0.00325102 -3.94626e-19)
(1.03569 0.0135787 2.18208e-18)
(1.00734 0.0011434 1.44633e-17)
(1.00005 0.00885861 -7.10196e-18)
(1.03151 0.0291854 3.14768e-18)
(1.01647 0.0110655 6.58503e-18)
(0.935001 0.0044685 2.16076e-17)
(1.01613 0.0100802 -4.11098e-18)
(1.00299 0.0026232 7.9973e-18)
(1.00041 6.97262e-06 3.45121e-18)
(1.03385 0.0104915 3.74232e-18)
(1.03655 0.0133863 5.29753e-18)
(1.00573 0.000885659 -4.22962e-18)
(0.707913 0.0186843 1.49596e-16)
(1.03193 0.0285681 5.96923e-18)
(1.03962 0.00222096 -1.88655e-19)
(0.998224 0.0351729 -1.37846e-17)
(1.00082 0.0427343 -1.60677e-17)
(0.999988 0.000113877 -9.84971e-20)
(0.421615 0.555378 -1.96435e-16)
(1.03503 0.0827001 3.95606e-18)
(1.00134 0.0035626 3.25997e-18)
(0.971469 0.181623 -1.51448e-17)
(0.984824 0.00128825 -1.24124e-16)
(0.999972 6.58551e-05 4.72004e-18)
(1.00001 2.61059e-05 2.29487e-19)
(0.999988 5.32514e-05 5.4168e-20)
(1.0901 0.173044 -1.5715e-17)
(0.945139 0.0949748 7.89875e-18)
(0.988552 0.0285363 -1.86863e-17)
(1.02834 0.0108362 -6.00497e-18)
(1.04161 0.00335848 6.83967e-19)
(0.999264 0.0115346 -1.72054e-17)
(0.935027 0.00791652 -1.14747e-16)
(0.999089 0.0348319 3.44127e-18)
(1.04684 0.0176803 3.50717e-18)
(1.11673 0.049438 -1.36572e-17)
(0.711788 0.0420049 -7.64669e-17)
(0.994292 0.025727 -7.63419e-18)
(0.955039 0.0526281 5.82654e-18)
(1.01885 -0.00104581 -5.75546e-18)
(1.02588 0.0370861 -2.55716e-18)
(1.01188 0.011264 -4.59532e-18)
(1.01638 0.0123545 4.31753e-18)
(0.998286 0.00022462 -2.70219e-17)
(1.01206 0.0112439 2.75129e-18)
(1.03126 0.0124666 -2.83562e-19)
(0.99999 1.57982e-05 -1.65601e-18)
(0.642536 0.00641217 7.00788e-17)
(0.990563 0.00129076 2.07639e-16)
(1.05555 0.00577415 3.1185e-18)
(1.03734 0.0109103 7.94634e-19)
(0.993485 0.00113496 1.37719e-16)
(0.95073 0.0596187 -5.53845e-17)
(1.16225 0.25017 2.98624e-18)
(1.02964 0.0153233 2.78908e-18)
(1.00877 0.0161446 1.30385e-17)
(1.0366 0.00120044 3.14335e-18)
(1.03708 0.0111767 2.94107e-18)
(1.0288 0.0332197 -4.72852e-18)
(1.00455 0.00273118 3.40063e-18)
(1.00001 5.01972e-06 -8.61628e-19)
(0.99485 0.0703691 8.51766e-18)
(1.00028 6.56297e-05 -1.20045e-18)
(1.05086 0.0199337 3.07907e-18)
(1.00263 0.000150468 4.56722e-18)
(0.966737 0.00293902 2.33229e-16)
(0.962579 0.0410105 1.47075e-17)
(1.01131 0.000637142 -2.50031e-18)
(1.09673 0.114971 -2.8149e-17)
(0.943569 0.0714926 -3.96141e-17)
(0.994442 0.0172042 -7.33124e-18)
(1.001 0.00384234 -7.28219e-18)
(0.573176 0.108553 -3.72391e-16)
(1.00056 -0.000142556 -6.87365e-18)
(1.0015 0.00301659 3.48436e-18)
(1.04289 0.0426176 -1.38651e-17)
(0.999984 2.20801e-05 -5.86375e-17)
(1.00109 0.0040008 -4.52429e-18)
(1.0016 0.0028159 -1.22939e-19)
(0.731239 0.222009 -8.80293e-18)
(0.653772 0.475727 -4.67555e-17)
(0.998292 0.0118626 5.09803e-18)
(1.00155 -9.6623e-05 -4.49566e-18)
(0.935643 0.0331694 3.38616e-17)
(0.999737 0.0427058 -1.55417e-17)
(1.02825 0.0116452 -1.05714e-17)
(1.03176 0.0158367 6.9825e-19)
(1.0328 0.0114023 -1.48146e-18)
(1.00077 -9.29478e-05 -6.0696e-18)
(0.999996 3.80697e-05 3.32157e-19)
(0.999922 0.0372866 -4.44207e-18)
(0.999988 7.80724e-06 -1.91078e-17)
(0.962916 0.0428608 2.03154e-17)
(1.02785 0.0121327 -8.77394e-18)
(1.02603 0.0355775 -8.26704e-19)
(0.996714 0.000726716 6.60004e-17)
(0.996173 0.0683622 -8.93159e-18)
(1.04526 0.0413481 -6.95953e-18)
(0.998008 0.000109637 -7.6343e-17)
(1.00147 0.0117056 -1.10985e-17)
(1.00593 0.00119864 -1.6672e-18)
(0.931791 0.0446314 -8.06783e-18)
(1.04325 0.0435211 -1.97156e-17)
(0.99999 6.38804e-05 -3.27905e-17)
(1.00033 0.0391136 2.24393e-18)
(1.03389 0.00826734 6.50487e-18)
(1.0163 -0.000132172 -2.2655e-18)
(0.999429 0.0404418 -6.70902e-18)
(1.00336 0.000805879 -4.20884e-18)
(0.928763 0.0956006 2.83949e-17)
(1.02776 -0.00074686 -2.31382e-18)
(1.03763 0.0087802 3.79146e-19)
(1.02707 0.0335147 3.47754e-18)
(1.00096 -0.000225945 1.54798e-18)
(1.00123 0.0123163 8.18469e-18)
(1.05369 0.0636913 4.77951e-18)
(1.05279 0.0179099 5.43833e-18)
(0.999996 1.82804e-05 3.84995e-18)
(1.01127 0.0164695 1.37267e-19)
(0.986135 0.178303 2.88428e-17)
(1.03858 0.00266858 1.44295e-18)
(0.513012 0.46248 -8.47955e-17)
(1 2.7629e-05 8.74894e-19)
(1.00241 0.000370663 6.85207e-18)
(1.00078 -5.49869e-05 -3.71416e-18)
(1.03213 0.0143604 -1.67007e-18)
(0.994259 0.019115 -5.07867e-18)
(0.995847 0.013458 1.9823e-17)
(1.00291 0.000433025 -3.53502e-18)
(0.998974 0.0372114 6.54365e-18)
(1.0174 0.0128757 -3.01455e-18)
(0.972606 0.00446816 -2.96282e-17)
(1.00919 0.00131965 1.59837e-18)
(1.0821 0.0939669 -8.33595e-18)
(1.00029 -2.01078e-05 9.32744e-19)
(1.08664 0.106745 1.90122e-18)
(1.00151 -9.53231e-06 3.30777e-19)
(0.625084 0.582778 5.00917e-17)
(1.02909 0.000629982 -3.9733e-18)
(1.05062 0.0659471 1.87197e-17)
(0.999874 3.07341e-05 1.56848e-17)
(0.996991 0.000707969 1.57323e-17)
(1.02598 0.0284664 1.17832e-17)
(1.00392 0.00221858 2.49226e-18)
(0.999153 0.000174511 -4.55361e-17)
(0.992261 0.000254517 -1.42476e-16)
(0.994513 0.0209071 1.34344e-17)
(0.994164 0.0201556 -1.50845e-17)
(0.965588 0.158906 4.8184e-18)
(1.03364 0.0333684 8.74218e-19)
(1.03418 0.0326897 3.80057e-18)
(1.00001 9.37675e-06 3.93284e-18)
(1.00433 0.00217401 -6.13187e-18)
(1.02781 0.0134007 -5.01852e-19)
(1.05165 0.0168192 -4.69079e-19)
(1 -5.45877e-06 -2.57017e-18)
(1.0003 0.000122767 -5.40665e-18)
(1.03407 0.00959803 1.34652e-18)
(1.00071 1.79646e-06 3.051e-18)
(0.80376 0.0485682 -8.92062e-17)
(1.16403 0.250779 -6.98316e-18)
(1.07042 0.0018993 1.4115e-17)
(1.00001 4.13559e-06 1.47011e-18)
(1.00659 0.00949872 1.18311e-17)
(1.04379 0.0128336 -3.55335e-18)
(0.995204 0.0147101 3.94861e-18)
(1.00445 0.000795737 -9.82514e-19)
(0.354997 0.662155 1.67671e-16)
(1.0003 2.7047e-05 -8.6923e-18)
(0.929442 0.0773439 -2.93096e-17)
(0.959582 0.0481418 -1.4368e-17)
(1.00714 0.00957094 -7.75386e-19)
(1.00463 0.000862521 -5.61266e-18)
(0.998939 0.000197439 -1.03623e-16)
(1.0109 0.000768693 4.89264e-18)
(1.04262 0.00393314 -3.20589e-19)
(1.01719 0.0087865 -5.88431e-18)
(0.996981 0.0115671 1.35175e-17)
(0.999996 5.75889e-06 1.08288e-18)
(0.999984 2.31212e-05 -1.94648e-18)
(0.994739 0.0176997 5.46226e-18)
(0.996463 0.00143317 -6.20112e-17)
(0.992574 0.060198 1.3238e-17)
(1.03244 0.014138 1.54935e-18)
(0.999366 -2.65642e-05 -1.02119e-16)
(1.00033 0.000187603 2.37117e-18)
(1.0274 0.030518 1.20755e-17)
(0.667814 -0.011122 9.19855e-17)
(0.99779 0.000210617 -2.54562e-16)
(1.04673 0.0173382 -1.7947e-18)
(1.00017 -2.25377e-05 3.44552e-18)
(0.996245 0.0116279 1.16956e-17)
(0.951214 0.082426 4.38496e-17)
(1.04079 0.00170528 -1.06675e-18)
(1.04306 0.012873 -1.59159e-18)
(0.951686 0.0543604 4.12723e-17)
(1.00255 0.0193219 7.94002e-18)
(1.04211 0.0058494 2.14853e-18)
(1.00001 3.70454e-05 1.28887e-18)
(0.999916 1.89446e-05 -7.70448e-17)
(1.04247 -0.000970692 -1.29686e-18)
(1.01082 0.00986674 1.40631e-18)
(1.00291 0.0197344 4.40819e-18)
(1.01101 0.00978101 -5.21907e-18)
(0.999997 4.35538e-05 2.37955e-18)
(1.00035 0.000191727 1.66405e-18)
(1.00362 0.000806334 2.5355e-18)
(0.999658 0.0309699 -1.17694e-17)
(1.04217 0.00768756 2.22214e-18)
(0.943464 0.0397323 -2.49725e-17)
(0.990033 0.000782554 -4.11564e-17)
(0.929272 0.0369641 8.0751e-17)
(1.03078 0.0148432 -5.25184e-18)
(1.00846 0.0177426 3.21099e-18)
(0.936614 0.0448938 1.1072e-16)
(0.985545 0.0216385 -3.1289e-17)
(1.05211 0.00388962 3.10667e-18)
(1.03317 0.0132264 -2.44865e-20)
(0.984964 0.0214698 6.87438e-18)
(0.993981 0.0586877 -3.1855e-18)
(0.999897 8.75401e-05 3.57137e-17)
(1.01008 0.0664908 9.65051e-18)
(1.02682 0.0277663 1.00407e-17)
(1.00002 -1.33519e-05 1.9005e-18)
(0.999994 8.44924e-06 4.77235e-18)
(1.0007 3.84857e-05 2.59686e-18)
(0.99976 0.000309653 -1.45286e-17)
(1.06258 0.0718815 -1.22529e-17)
(1.01057 0.0171211 3.77218e-18)
(1.014 -0.000380785 2.13635e-18)
(0.941597 0.0436358 -7.08848e-17)
(0.992111 0.000381202 -7.50825e-17)
(0.790915 0.0185394 1.77988e-17)
(1.03952 0.00257888 1.21444e-18)
(1.04177 0.00447287 -1.37777e-18)
(1.00388 0.000759403 -1.21083e-17)
(1.04969 0.0422077 -4.85611e-18)
(1 4.0621e-05 -8.11108e-20)
(0.998247 0.0305396 -9.26934e-18)
(1.00052 0.00371086 -2.7937e-18)
(0.93537 0.114114 -3.96331e-17)
(0.932492 0.0506146 -1.39144e-16)
(1.00199 0.0169321 -9.05653e-18)
(1.01737 0.0120783 -2.2425e-18)
(0.420129 0.674586 1.99442e-16)
(1.03092 0.0131919 -6.46802e-18)
(1.04227 0.0639595 8.06296e-18)
(1.00962 0.0129978 3.96386e-18)
(0.97729 0.146149 4.3604e-17)
(1.15157 0.207437 -4.12804e-18)
(1.00105 -2.3457e-05 2.49899e-18)
(0.998245 0.00348552 -1.2642e-19)
(1 1.43355e-05 1.40953e-18)
(1.0576 0.0677913 -8.64628e-18)
(0.998444 0.00317426 -1.14942e-17)
(1.01645 0.00946172 -8.37243e-18)
(1.09784 0.111928 -9.15654e-18)
(1.00032 0.000143991 -4.02327e-18)
(0.972223 0.00336378 -4.57036e-17)
(0.991183 0.0522932 7.88807e-18)
(1.00708 0.0153597 4.47585e-18)
(0.997611 0.00022903 -3.6533e-16)
(1.00182 0.017338 -2.04407e-17)
(0.999381 0.000850723 1.65398e-17)
(0.994926 0.015755 1.75102e-18)
(0.99938 0.000623529 6.81753e-19)
(0.999394 0.000967308 -1.49195e-18)
(0.995554 0.0136801 1.74133e-17)
(1.03893 0.00716145 1.41958e-19)
(1.03513 0.00864169 3.40307e-18)
(1.00689 0.0169206 1.60912e-17)
(0.660023 0.0461335 4.58147e-17)
(1.04027 0.00368258 1.85411e-19)
(0.271813 0.259706 -1.62098e-16)
(1.03 0.0152319 -4.09278e-18)
(1.02263 0.00073379 -5.48546e-18)
(0.995198 0.0149067 -1.38149e-17)
(1.02892 0.0155443 2.93577e-18)
(0.992162 0.0267533 5.70077e-18)
(1.03639 0.000128692 -4.20741e-19)
(0.568265 0.378785 -1.41969e-16)
(0.949587 0.0353135 -3.38533e-18)
(0.992888 0.024812 -1.71118e-17)
(1.00454 0.023396 -1.94807e-18)
(0.995104 0.00105116 8.19868e-18)
(0.996362 0.00103354 9.24668e-18)
(1.02617 0.0304746 -4.06607e-18)
(0.999997 2.48811e-05 1.73944e-18)
(1.06277 -0.018536 -1.30545e-17)
(0.999527 3.26673e-06 4.21668e-17)
(0.946822 0.0388512 1.36408e-17)
(0.998232 0.075267 1.28547e-17)
(1.06191 0.0648827 -9.88244e-18)
(1.03986 0.0272671 -2.16962e-18)
(1.03531 0.0155087 6.06417e-19)
(0.992414 0.0507272 8.55927e-18)
(1.00922 0.0131301 1.54744e-17)
(1.03902 0.0274189 2.18383e-18)
(0.971412 0.0311745 -1.09854e-18)
(1.04226 0.0640377 -7.8906e-18)
(1.008 0.0224923 -2.28489e-18)
(1.04475 0.041623 -1.54827e-17)
(1.00535 0.0234249 -1.35667e-17)
(1.00001 2.22485e-05 -1.36652e-18)
(0.998603 0.0263492 -3.20347e-18)
(0.633603 0.0541071 8.56421e-17)
(0.972758 0.13603 -2.90473e-18)
(1.00655 0.00553877 -8.71921e-19)
(1.00005 -3.37656e-05 -7.69454e-19)
(0.999321 0.000169203 -1.1081e-16)
(0.994523 0.00772905 4.09322e-18)
(0.968074 0.00322358 -2.18413e-16)
(1.03558 0.00783585 3.13769e-18)
(1.02839 0.00185153 -6.27554e-19)
(1.00079 2.3484e-05 -9.16443e-19)
(1.00495 0.00699536 9.13237e-18)
(0.993267 0.0278068 4.16582e-18)
(1.00652 0.00541428 7.27609e-19)
(1.00923 0.00106749 4.08544e-18)
(1.04612 0.0367004 6.13477e-18)
(0.993756 0.00140992 -2.92782e-17)
(0.991343 0.0352785 2.83146e-18)
(1.03728 0.0166096 1.16195e-17)
(1.00512 0.006609 1.51214e-18)
(1.00799 0.00684147 5.76897e-18)
(0.941369 0.0639278 2.83216e-17)
(1 -1.3181e-05 8.66393e-19)
(0.993387 0.00548996 7.19169e-18)
(1.29235 0.188368 3.43197e-17)
(0.999896 3.30803e-05 1.42377e-16)
(1.04014 0.0395445 -5.48752e-18)
(0.996539 0.0733649 1.8111e-17)
(1.00778 0.00689968 6.02538e-19)
(0.959508 0.0458656 1.03134e-17)
(1.03684 0.0157523 9.76031e-18)
(0.997833 0.0262385 -1.41478e-17)
(1.02932 0.0353546 6.83641e-19)
(0.999627 0.00320856 6.638e-18)
(0.936824 0.0372909 -2.8265e-17)
(1.00542 0.000230416 -2.87176e-18)
(1.03403 0.00272295 -6.98522e-19)
(1.0358 0.0160117 7.57171e-18)
(0.93761 0.0423445 2.45065e-17)
(0.99979 0.00321904 1.54018e-18)
(1.04282 0.00529628 4.52034e-18)
(1.05404 0.0241452 -1.09323e-17)
(0.992006 0.0347105 9.58057e-18)
(1.00613 0.0135417 -1.12944e-17)
(1.00469 0.00309472 -3.64627e-18)
(1.01183 0.0659191 8.29898e-18)
(0.789986 0.20349 -1.14221e-18)
(0.995559 0.000924183 -1.76374e-18)
(0.999959 3.6326e-05 -4.55897e-17)
(0.993831 0.0255812 -1.60777e-18)
(0.999995 -2.13494e-06 -8.47334e-18)
(1.14924 0.209505 2.77482e-17)
(1.00642 0.0233638 1.17822e-17)
(1.03659 0.0896906 1.16415e-18)
(1.01616 0.00763664 -9.92481e-18)
(1.02784 0.00191604 1.19669e-18)
(0.252488 0.136637 -9.52965e-16)
(1.0065 0.0161465 -6.53308e-18)
(1.08542 0.206326 -3.74577e-17)
(1.03534 0.00798977 3.92746e-18)
(0.982982 -0.00221294 1.55438e-17)
(1.02861 0.013059 -4.78847e-19)
(0.996907 0.0121388 1.21562e-17)
(1.00656 0.0146633 -1.32873e-18)
(1.01579 -0.000746745 -2.82943e-18)
(1.09091 0.0997144 -1.78692e-17)
(1.08305 0.0943844 -1.47355e-17)
(1.00113 -0.000291648 -5.79434e-18)
(1.00153 0.000339056 -2.2346e-18)
(0.925914 0.0461875 -2.35085e-16)
(1.00214 -0.00024033 2.31299e-18)
(0.686306 0.396961 -3.71372e-18)
(1.02802 0.0329173 -8.59892e-18)
(0.966649 0.16791 2.54173e-17)
(1.0043 0.0030788 -4.00233e-18)
(0.0795064 0.303054 -4.71724e-16)
(1.12653 0.234293 8.60134e-18)
(1.00587 0.0229196 -1.18746e-17)
(0.999992 9.97323e-06 3.40958e-18)
(0.9999 0.00280468 3.31738e-19)
(0.953858 0.0304754 3.6732e-17)
(0.994255 0.00812558 -4.28388e-18)
(0.989428 0.00019414 -4.97169e-17)
(0.996945 0.00987129 -1.50655e-18)
(1.03149 0.0126785 1.45666e-18)
(0.972038 0.0309101 2.21347e-18)
(1.08231 -0.0212047 -6.60974e-18)
(0.631283 0.032273 -1.88954e-16)
(1.00079 3.73971e-05 -7.86431e-18)
(0.965759 0.0363997 2.61804e-17)
(1.03347 0.0306926 -1.40501e-18)
(0.927047 0.0559982 2.83476e-17)
(1.00468 0.0130043 8.42802e-18)
(0.929979 0.0780066 2.01733e-17)
(1.03748 0.00920871 1.34861e-18)
(0.952311 0.035489 -1.29912e-17)
(0.997323 0.00063791 2.1102e-17)
(1.00006 -1.13485e-05 -1.13651e-19)
(1.03809 0.0255834 -2.67225e-18)
(1.04053 0.0267251 -1.27298e-18)
(1.02959 0.00179479 -2.30197e-18)
(0.924762 0.0390095 -1.56211e-17)
(1.03446 0.0901715 -2.84204e-18)
(1.02146 0.000664265 -4.95944e-18)
(0.997305 0.0249931 -8.35575e-18)
(1.00044 0.00410105 -3.46342e-18)
(1.00975 0.00873363 1.78381e-18)
(0.789578 0.0280416 -1.77196e-16)
(1.00969 0.00899687 -1.03036e-17)
(1.03502 0.0219848 -6.46527e-18)
(0.9823 0.0415652 -3.1563e-18)
(1.02697 0.010178 -2.10215e-18)
(1.0123 0.000186892 1.59668e-17)
(0.996319 0.0116451 -7.7056e-18)
(1.05296 0.0229122 9.87793e-19)
(1.01544 0.00738868 -6.96826e-19)
(1.00516 0.0135063 1.5367e-17)
(1.07818 -0.0296384 -4.11999e-18)
(0.990947 0.0304269 -9.77458e-18)
(1.02048 0.000756363 6.38945e-18)
(0.797894 0.336157 -1.00143e-16)
(1 6.66764e-06 -7.64145e-19)
(1.01566 0.00829013 -3.23273e-19)
(0.998953 0.0216169 1.67355e-18)
(0.992219 0.00724992 -6.54167e-18)
(1.00325 0.000303641 1.93584e-17)
(0.998083 0.0245311 -1.16524e-17)
(1.00002 -6.52011e-06 -1.53377e-18)
(1.04419 0.107826 -1.15635e-17)
(1.00571 0.000870026 -3.65827e-18)
(0.971885 0.00466003 4.73485e-17)
(1.03567 0.0349633 5.10716e-18)
(0.950684 0.0497264 1.96212e-17)
(1.01696 0.0102589 -6.41115e-19)
(1.01638 0.00841592 -8.01481e-18)
(1.03687 0.0250091 3.71659e-18)
(1.062 0.11486 5.71847e-17)
(0.999853 6.61973e-05 -2.16213e-17)
(0.99285 0.000705118 1.60966e-17)
(1.02196 0.000128854 -5.37521e-18)
(1.10081 0.202683 2.14661e-17)
(1.04022 0.0261953 1.08165e-18)
(0.999867 0.00302347 1.8778e-18)
(0.240219 0.100335 -1.02523e-15)
(1.00005 1.42611e-05 -1.18382e-18)
(1.00494 0.0014511 -2.2245e-18)
(0.691388 0.00832326 -5.20432e-17)
(0.994589 0.00508745 3.72551e-18)
(0.999631 0.00334419 -1.43265e-18)
(0.999518 0.003627 9.63752e-18)
(0.983354 0.0386173 -1.58111e-17)
(0.958464 0.0289466 4.23556e-17)
(0.999869 2.88035e-05 -9.78798e-17)
(0.993478 0.00642732 -6.04345e-19)
(0.93809 0.0675351 -6.27864e-18)
(0.99822 0.0214807 -1.21535e-17)
(0.995985 0.0178713 8.21861e-18)
(0.996601 0.00960829 1.24075e-17)
(1.00106 5.11852e-05 -1.23975e-18)
(0.95766 0.0317084 -9.46438e-17)
(1.0654 0.0608933 -1.57118e-17)
(0.99499 0.0160306 1.19544e-17)
(0.928131 0.0321645 4.04016e-17)
(1.03476 0.00720891 4.2192e-18)
(1.03653 0.00507804 6.52248e-19)
(1.03949 0.105886 -1.63334e-17)
(1.03245 0.0309916 2.9769e-18)
(0.996481 0.00960793 -6.24971e-18)
(1.00515 0.0015937 -4.80223e-18)
(1.08438 0.10488 8.90691e-18)
(1.03999 0.00629526 -2.26971e-18)
(0.975257 0.025547 4.37762e-18)
(1.00075 0.00406613 -8.86571e-18)
(0.999725 0.000214805 3.00773e-18)
(0.927254 0.0129013 -2.97949e-16)
(1.04909 0.0430119 -1.32112e-18)
(1.01457 0.00676056 1.91824e-18)
(1.01058 0.0505754 3.41903e-18)
(1.01492 0.0077892 4.79467e-18)
(0.997069 0.0100106 5.21498e-18)
(1.00567 0.00457531 -7.81706e-18)
(0.964777 0.0362736 -2.70632e-17)
(0.809694 0.0199862 -3.35064e-17)
(0.304412 0.455474 1.775e-16)
(0.966352 0.0394371 1.64914e-17)
(0.998878 0.0183798 -5.07188e-19)
(1.00541 0.00459968 1.20498e-19)
(0.968873 0.0339942 -2.08737e-17)
(0.566269 0.316073 8.62958e-17)
(0.935453 0.032708 -2.05093e-16)
(0.999904 0.00303808 -2.27397e-18)
(1.04724 0.0356064 2.90286e-18)
(1.05922 0.0756083 -1.56596e-18)