/*--------------------------------*- C++ -*----------------------------------*\
  =========                 |
  \\      /  F ield         | OpenFOAM: The Open Source CFD Toolbox
   \\    /   O peration     | Website:  https://openfoam.org
    \\  /    A nd           | Version:  7
     \\/     M anipulation  |
\*---------------------------------------------------------------------------*/
FoamFile
{
    version     2.0;
    format      ascii;
    class       surfaceScalarField;
    location    "128";
    object      phi;
}
// * * * * * * * * * * * * * * * * * * * * * * * * * * * * * * * * * * * * * //

dimensions      [0 3 -1 0 0 0 0];

internalField   nonuniform List<scalar> 
82640
(
-0.000136379
-0.00200631
0.00214269
-0.000277237
-0.000311794
0.000452652
-0.0003673
0.00271619
-0.00262613
-0.000383706
0.00648799
-0.00647158
-0.000373314
0.00933237
-0.00934276
-0.000270813
0.0105053
-0.0106078
4.8971e-05
0.00913004
-0.00944982
0.000607995
0.00490333
-0.00546235
0.00128702
-0.000560483
-0.000118545
0.00195652
-0.00551007
0.00484057
0.0025092
-0.00906029
0.00850761
0.00291189
-0.0111831
0.0107804
0.00318022
-0.0121442
0.0118758
0.00322644
-0.0123639
0.0123177
0.00306998
-0.0127426
0.0128991
0.00312392
-0.0121021
0.0120482
0.00371075
-0.00833942
0.00775259
0.00463382
-0.00226792
0.00134485
0.00557757
0.00386737
-0.00481112
0.00637571
0.0081737
-0.00897185
0.00700625
0.0105312
-0.0111618
0.00728883
0.0119544
-0.0122369
0.00718101
0.0135543
-0.0134464
0.00705413
0.0140182
-0.0138913
0.0106222
-0.0109943
0.00742621
-0.000137902
-0.0018684
-0.000280349
-0.000169347
-0.00037117
0.00280701
-0.000381785
0.0064986
-0.00035087
0.00930145
-0.000207642
0.0103621
0.000157719
0.00876468
0.000744387
0.00431666
0.00143317
-0.00124927
0.0020909
-0.00616779
0.00262188
-0.00959127
0.00299448
-0.0115557
0.00323794
-0.0123876
0.00329085
-0.0124168
0.00312778
-0.0125796
0.00310539
-0.0120797
0.00359356
-0.00882759
0.00446469
-0.00313905
0.00542237
0.00290969
0.00628352
0.00731255
0.00695791
0.00985683
0.00726194
0.0116503
0.00718337
0.0136328
0.00713254
0.014069
0.010171
0.00758384
-0.000138503
-0.0017299
-0.000281
-2.68502e-05
-0.000370319
0.00289633
-0.000371958
0.00650024
-0.000316647
0.00924614
-0.00013157
0.010177
0.000277612
0.00835549
0.000890829
0.00370344
0.00158695
-0.00194539
0.00222998
-0.00681082
0.0027372
-0.0100985
0.00308131
-0.0118998
0.00329885
-0.0126052
0.00335877
-0.0124767
0.00320077
-0.0124216
0.00311462
-0.0119936
0.00350269
-0.00921567
0.0043202
-0.00395655
0.00529199
0.0019379
0.00621207
0.00639247
0.00692611
0.00914278
0.00725083
0.0113256
0.00721598
0.0136677
0.00727334
0.0140117
0.0096189
0.00782539
-0.000138197
-0.0015917
-0.0002792
0.000114153
-0.000364748
0.00298188
-0.00035431
0.0064898
-0.000271136
0.00916297
-4.45879e-05
0.00995048
0.00040763
0.00790328
0.00104612
0.00306496
0.00174666
-0.00264593
0.00237241
-0.00743657
0.00285372
-0.0105798
0.00317095
-0.012217
0.00336257
-0.0127968
0.00342834
-0.0125425
0.00328528
-0.0122785
0.00315079
-0.0118591
0.00344395
-0.00950884
0.00420788
-0.00472048
0.00519098
0.00095479
0.00616288
0.00542058
0.00690992
0.00839574
0.00725467
0.0109809
0.00727712
0.0136452
0.00746491
0.0138239
0.00895013
0.00813368
-0.000137015
-0.00145469
-0.000274995
0.000252133
-0.00035453
0.00306142
-0.00032906
0.00646433
-0.000215056
0.00904897
5.50043e-05
0.00968043
0.000546505
0.00741178
0.00120881
0.00240265
0.00191049
-0.00334761
0.00251659
-0.00804267
0.00297008
-0.0110333
0.00326187
-0.0125088
0.00342863
-0.0129635
0.003498
-0.0126119
0.00337762
-0.0121581
0.00321213
-0.0116936
0.00342222
-0.00971893
0.00413484
-0.0054331
0.00512324
-3.36034e-05
0.00613612
0.0044077
0.00690693
0.00762492
0.00727239
0.0106154
0.00736202
0.0135556
0.00768954
0.0134964
0.00815663
0.00848305
-0.000134999
-0.00131969
-0.000268464
0.000385597
-0.000339812
0.00313277
-0.000296554
0.00642108
-0.000149322
0.00890173
0.000164119
0.00936698
0.000692947
0.00688295
0.00137727
0.00171833
0.00207655
-0.00404689
0.00266081
-0.00862693
0.00308499
-0.0114575
0.00335249
-0.0127763
0.00349648
-0.0131075
0.00356652
-0.0126819
0.0034742
-0.0120658
0.00329581
-0.0115152
0.00343883
-0.00986195
0.00410424
-0.00609851
0.00508991
-0.00101927
0.00612946
0.00336815
0.00691379
0.00684059
0.00730292
0.0102263
0.00746438
0.0133941
0.00793062
0.0130301
0.00723576
0.00885149
-0.00013221
-0.00118748
-0.000259723
0.00051311
-0.00032081
0.00319385
-0.000257259
0.00635753
-7.50678e-05
0.00871954
0.000280798
0.00901112
0.000845625
0.00631812
0.00154966
0.00101429
0.00224297
-0.0047402
0.00280329
-0.00918726
0.00319728
-0.0118515
0.00344127
-0.0130203
0.00356541
-0.0132317
0.00363306
-0.0127496
0.00357168
-0.0120044
0.00339812
-0.0113416
0.00349047
-0.00995431
0.00411208
-0.00672012
0.00508664
-0.00199382
0.00613749
0.0023173
0.0069266
0.00605147
0.00734444
0.00980846
0.00757953
0.013159
0.00818319
0.0124265
0.0061863
0.00923266
-0.000128719
-0.00105876
-0.000248923
0.000633314
-0.000297808
0.00324274
-0.00021175
0.00627147
6.5429e-06
0.00850125
0.000403941
0.00861372
0.00100311
0.00571896
0.00172401
0.000293386
0.00240784
-0.00542402
0.00294228
-0.0097217
0.00330582
-0.012215
0.00352683
-0.0132413
0.00363456
-0.0133394
0.00369723
-0.0128122
0.00366691
-0.0119741
0.0035146
-0.0111893
0.00356949
-0.0100092
0.0041469
-0.00729752
0.00510329
-0.00295021
0.0061521
0.00126848
0.0069404
0.00526318
0.00739309
0.00935578
0.00770792
0.0128442
0.00845863
0.0116757
0.00501102
0.00963391
-0.000124612
-0.00093415
-0.000236248
0.00074495
-0.000271148
0.00327764
-0.000160681
0.006161
9.48519e-05
0.00824572
0.000532071
0.0081765
0.00116379
0.00508723
0.00189828
-0.000441099
0.00256929
-0.00609503
0.00307615
-0.0102286
0.00340955
-0.0125484
0.00360804
-0.0134398
0.00370285
-0.0134342
0.00375903
-0.0128684
0.00375716
-0.0119722
0.00363994
-0.0110721
0.00366684
-0.0100361
0.00419333
-0.00782402
0.0051258
-0.00388267
0.00616327
0.000231004
0.00694757
0.00447888
0.00744157
0.00886178
0.00785458
0.0124312
0.00877491
0.0107554
0.00372277
0.0100632
-0.000119986
-0.000814164
-0.00022191
0.000846875
-0.000241228
0.00329696
-0.000104786
0.00602456
0.000187791
0.00795314
0.00066358
0.00770071
0.00132594
0.00442487
0.00207041
-0.00118556
0.00272551
-0.00675013
0.00320343
-0.0107065
0.00350742
-0.0128524
0.00368407
-0.0136165
0.00376903
-0.0135192
0.00381879
-0.0129182
0.00384042
-0.0119938
0.00376789
-0.0109996
0.00377505
-0.0100433
0.00423818
-0.00828715
0.00513844
-0.00478293
0.00615894
-0.000789497
0.00693651
0.0037013
0.00747856
0.00831974
0.00802208
0.0118877
0.0091392
0.00963829
0.00234394
0.010518
-0.000114948
-0.000699216
-0.000206151
0.000938077
-0.000208492
0.0032993
-4.48413e-05
0.00586091
0.000284195
0.0076241
0.000796806
0.0071881
0.00148773
0.00373395
0.00223844
-0.00193628
0.00287483
-0.00738652
0.00332286
-0.0111545
0.00359848
-0.013128
0.00375438
-0.0137724
0.00383181
-0.0135966
0.00387686
-0.0129632
0.00391573
-0.0120327
0.00389184
-0.0109757
0.00388965
-0.0100411
0.00427505
-0.00867255
0.00512691
-0.00563479
0.0061241
-0.00178668
0.00689225
0.00293315
0.0074893
0.00772268
0.00820305
0.0111739
0.00953663
0.00830471
0.00090179
0.0109788
-0.000109617
-0.000589599
-0.000189236
0.0010177
-0.000173417
0.00328348
1.82203e-05
0.00566927
0.000382686
0.00725964
0.00093008
0.00664071
0.00164733
0.0030167
0.00240055
-0.0026895
0.00301572
-0.00800168
0.00343337
-0.0115722
0.00368186
-0.0133765
0.00381867
-0.0139092
0.00389009
-0.013668
0.00393334
-0.0130065
0.00398339
-0.0120828
0.00400582
-0.0109981
0.00400809
-0.0100433
0.00430537
-0.00896983
0.00508038
-0.0064098
0.00604233
-0.00274864
0.00679885
0.00217664
0.00745946
0.00706207
0.00838308
0.0102503
0.00993764
0.00675015
-0.000576186
0.0114156
-0.000104115
-0.000485485
-0.000171451
0.00108503
-0.00013651
0.00324854
8.35089e-05
0.00544925
0.000481853
0.00686129
0.00106178
0.00606078
0.001803
0.00227548
0.00255513
-0.00344164
0.00314689
-0.00859344
0.00353411
-0.0119594
0.0037569
-0.0135993
0.0038767
-0.014029
0.00394313
-0.0137345
0.00398784
-0.0130512
0.00404474
-0.0121397
0.00410581
-0.0110592
0.0041274
-0.0100649
0.00433627
-0.0091787
0.00499654
-0.00707008
0.0058981
-0.00365019
0.00664246
0.00143227
0.00738399
0.00632054
0.00855482
0.00907948
0.0103181
0.00498686
-0.00205616
0.0117981
-9.85718e-05
-0.000386913
-0.000153098
0.00113956
-9.82873e-05
0.00319372
0.000150058
0.00520091
0.000580252
0.0064311
0.0011904
0.00545063
0.00195321
0.00151268
0.0027008
-0.00418923
0.00326731
-0.00915995
0.00362444
-0.0123165
0.00382315
-0.013798
0.0039283
-0.0141341
0.00399064
-0.0137968
0.00403949
-0.0131
0.00410161
-0.0122018
0.00419069
-0.0111483
0.00424307
-0.0101173
0.00437687
-0.0093125
0.00488567
-0.00757888
0.00568554
-0.00445006
0.00641749
0.000700326
0.00727656
0.00546148
0.00872942
0.00762662
0.0106623
0.00305402
-0.00349788
0.012104
-9.31193e-05
-0.000293794
-0.000134492
0.00118093
-5.92404e-05
0.00311847
0.000216785
0.00492488
0.000676415
0.00597147
0.00131463
0.00481241
0.00209669
0.000730619
0.00283644
-0.00492898
0.00337615
-0.00969966
0.0037039
-0.0126443
0.00388041
-0.0139745
0.00397328
-0.014227
0.00403266
-0.0138562
0.00408728
-0.0131547
0.00415554
-0.01227
0.00426229
-0.011255
0.00434998
-0.010205
0.00443462
-0.00939714
0.00477341
-0.00791768
0.00542159
-0.00509824
0.00614054
-1.86262e-05
0.00717528
0.00442674
0.0089298
0.0058721
0.0109609
0.00102297
-0.00485351
0.0123165
-8.78895e-05
-0.000205904
-0.000115954
0.001209
-1.95343e-05
0.00302205
0.000282559
0.00462279
0.000768903
0.00548512
0.00143342
0.00414789
0.00223249
-6.84498e-05
0.00296118
-0.00565766
0.00347286
-0.0102113
0.00377224
-0.0129437
0.00392866
-0.0141309
0.00401153
-0.0143099
0.0040694
-0.0139141
0.00413045
-0.0132157
0.00420716
-0.0123468
0.00432446
-0.0113723
0.00444465
-0.0103252
0.0045128
-0.00946529
0.00469682
-0.0081017
0.00516061
-0.00556203
0.00587467
-0.000732678
0.00714373
0.00315767
0.00917361
0.00384223
0.0112021
-0.00100555
-0.00607532
0.0124239
-8.30106e-05
-0.000122893
-9.78111e-05
0.0012238
1.86659e-05
0.00290558
0.00034619
0.00429526
0.00085641
0.0049749
0.00154616
0.00345815
0.00236
-0.000882299
0.00307442
-0.00637208
0.0035571
-0.010694
0.00382943
-0.013216
0.00396802
-0.0142695
0.00404305
-0.0143849
0.00410104
-0.0139721
0.00416868
-0.0132833
0.00425606
-0.0124341
0.00438133
-0.0114976
0.00452685
-0.0104707
0.00460921
-0.00954766
0.00469417
-0.00818666
0.004994
-0.00586185
0.00573837
-0.00147705
0.00725793
0.00163812
0.00946092
0.00163923
0.0113651
-0.00290976
-0.00713032
0.0124201
-7.86041e-05
-4.42893e-05
-8.0384e-05
0.00122558
5.59953e-05
0.0027692
0.000406473
0.00394479
0.000937925
0.00444345
0.0016527
0.00274337
0.0024789
-0.0017085
0.00317574
-0.00706891
0.00362874
-0.011147
0.00387559
-0.0134628
0.00399873
-0.0143926
0.004068
-0.0144542
0.00412766
-0.0140317
0.00420212
-0.0133578
0.00430129
-0.0125333
0.00443564
-0.0116319
0.00459934
-0.0106344
0.004717
-0.00966532
0.00478637
-0.00825603
0.0050172
-0.00609268
0.00584509
-0.00230494
0.00755358
-7.03736e-05
0.00975349
-0.000560678
0.0114277
-0.00458395
-0.00801127
0.0123086
-7.478e-05
3.04907e-05
-6.39777e-05
0.00121477
9.18872e-05
0.00261333
0.000462258
0.00357442
0.00101294
0.00389277
0.00175347
0.00200285
0.00258906
-0.0025441
0.00326489
-0.00774474
0.00368785
-0.01157
0.00391106
-0.013686
0.00402114
-0.0145027
0.00408662
-0.0145196
0.00414931
-0.0140944
0.00423105
-0.0134395
0.00434209
-0.0126443
0.00448795
-0.0117778
0.00466624
-0.0108127
0.00482754
-0.00982663
0.00495883
-0.00838732
0.00524876
-0.00638261
0.0062015
-0.00325768
0.00796443
-0.0018333
0.00997713
-0.00257338
0.0113697
-0.00597652
-0.00874427
0.0121027
-7.16335e-05
0.000102124
-4.88729e-05
0.00119201
0.000125547
0.00243891
0.000512608
0.00318735
0.00108169
0.00332369
0.00184937
0.00123517
0.00269043
-0.00338516
0.00334175
-0.00839605
0.00373466
-0.0119629
0.00393625
-0.0138876
0.00403567
-0.0146021
0.00409924
-0.0145832
0.00416607
-0.0141612
0.00425568
-0.0135292
0.00437821
-0.0127669
0.0045373
-0.0119369
0.00473082
-0.0110062
0.00493472
-0.0100305
0.00516634
-0.00861894
0.00559778
-0.00681405
0.00666434
-0.00432425
0.00833618
-0.00350513
0.010057
-0.00429424
0.0111923
-0.00711175
-0.00938137
0.0118294
-6.92397e-05
0.000171364
-3.53098e-05
0.00115808
0.00015633
0.00224727
0.000557032
0.00278665
0.00114523
0.00273549
0.00194158
0.000438816
0.00278293
-0.00422651
0.0034063
-0.00901942
0.00376955
-0.0123261
0.00395174
-0.0140698
0.00404281
-0.0146932
0.00410619
-0.0146466
0.00417808
-0.0142331
0.00427605
-0.0136271
0.00440974
-0.0129006
0.00458245
-0.0121096
0.00479376
-0.0112175
0.00503629
-0.010273
0.00536346
-0.0089461
0.0059311
-0.00738169
0.00704349
-0.00543664
0.00853741
-0.00499905
0.00997381
-0.00573063
0.0109294
-0.00806731
-0.00997686
0.0115249
-6.7649e-05
0.000239013
-2.34692e-05
0.0011139
0.000183716
0.00204009
0.000595743
0.00237463
0.00120553
0.0021257
0.00203125
-0.000386901
0.00286633
-0.00506159
0.00345861
-0.0096117
0.00379304
-0.0126606
0.00395818
-0.014235
0.00404311
-0.0147781
0.0041078
-0.0147113
0.00418552
-0.0143108
0.00429214
-0.0137337
0.00443678
-0.0130452
0.00462267
-0.0122955
0.00485334
-0.0114482
0.00513071
-0.0105504
0.00552655
-0.00934194
0.00616955
-0.0080247
0.0072502
-0.00651728
0.00855605
-0.0063049
0.00978048
-0.00695507
0.0106347
-0.00892149
-0.0105641
0.0112219
-6.68813e-05
0.000305894
-1.34521e-05
0.00106047
0.00020743
0.00181921
0.000629884
0.00195217
0.00126523
0.00149035
0.0021191
-0.00124077
0.00294028
-0.00588277
0.00349888
-0.0101703
0.00380578
-0.0129675
0.00395627
-0.0143855
0.00403712
-0.014859
0.00410443
-0.0147786
0.00418859
-0.014395
0.00430395
-0.0138491
0.00445925
-0.0132005
0.00465775
-0.012494
0.00490722
-0.0116977
0.00521468
-0.0108579
0.00565234
-0.0097796
0.00631455
-0.0086869
0.00732164
-0.00752438
0.00847148
-0.00745474
0.00955334
-0.00803693
0.0103504
-0.00971857
-0.0111525
0.0109389
-6.69218e-05
0.000372816
-5.20876e-06
0.000998762
0.000227604
0.00158639
0.000661592
0.00151818
0.00132718
0.000824771
0.00220512
-0.00211871
0.00300428
-0.00668193
0.0035274
-0.0106934
0.00380852
-0.0132486
0.00394676
-0.0145237
0.00402539
-0.0149376
0.00409642
-0.0148496
0.00418744
-0.014486
0.00431152
-0.0139732
0.00447702
-0.013366
0.00468746
-0.0127044
0.00495372
-0.0119639
0.00528528
-0.0111894
0.00574672
-0.010241
0.0064014
-0.00934158
0.00732961
-0.00845259
0.00835821
-0.00848335
0.00933715
-0.00901587
0.0100922
-0.0104736
-0.0117396
0.0106793
-6.7717e-05
0.000440533
1.12873e-06
0.000929916
0.000244929
0.00134259
0.000693819
0.00106929
0.00139386
0.000124727
0.00228848
-0.00301333
0.00305784
-0.00745129
0.00354464
-0.0111802
0.00380208
-0.013506
0.00393041
-0.014652
0.00400848
-0.0150157
0.0040841
-0.0149253
0.00418225
-0.0145842
0.00431487
-0.0141058
0.00448999
-0.0135411
0.00471152
-0.012926
0.00499202
-0.0122444
0.00534172
-0.0115391
0.00581611
-0.0107154
0.00645514
-0.00998061
0.00731312
-0.00931057
0.00824483
-0.00941506
0.0091411
-0.00991214
0.00985873
-0.0111913
-0.0123212
0.0104403
-6.91701e-05
0.000509703
6.08988e-06
0.000854656
0.000260748
0.00108793
0.000729885
0.000600157
0.00146677
-0.000612153
0.00236762
-0.00391419
0.00310055
-0.00818421
0.0035512
-0.0116309
0.00378733
-0.0137422
0.00390798
-0.0147727
0.0039869
-0.0150946
0.00406777
-0.0150061
0.00417317
-0.0146896
0.00431405
-0.0142467
0.00449808
-0.0137252
0.00472966
-0.0131575
0.00502183
-0.0125366
0.0053846
-0.0119019
0.00586467
-0.0111955
0.00648526
-0.0106012
0.00728247
-0.0101078
0.00813438
-0.010267
0.00896153
-0.0107393
0.0096451
-0.0118749
-0.0128945
0.0102184
-7.1141e-05
0.000580844
1.00949e-05
0.00077342
0.000277012
0.000821016
0.00077285
0.000104319
0.00154588
-0.00138518
0.00244063
-0.00480894
0.0031322
-0.00887578
0.00354782
-0.0120465
0.00376518
-0.0139595
0.00388018
-0.0148877
0.00396112
-0.0151755
0.00404771
-0.0150927
0.00416032
-0.0148022
0.00430907
-0.0143954
0.00450126
-0.0139174
0.00474169
-0.013398
0.00504309
-0.012838
0.0054148
-0.0122736
0.00589526
-0.011676
0.00649589
-0.0112018
0.00724033
-0.0108522
0.00802569
-0.0110523
0.00879453
-0.0115081
0.00944738
-0.0125277
-0.0134578
0.0100107
-7.3447e-05
0.000654291
1.3809e-05
0.000686164
0.000296079
0.000538746
0.000824887
-0.000424489
0.0016296
-0.00218989
0.0025056
-0.00568495
0.00315289
-0.00952307
0.00353539
-0.012429
0.00373652
-0.0141606
0.00384768
-0.0149988
0.00393158
-0.0152594
0.00402418
-0.0151853
0.00414385
-0.0149218
0.00429998
-0.0145516
0.00449953
-0.0141169
0.00474757
-0.013646
0.00505596
-0.0131464
0.00543322
-0.0126509
0.00591021
-0.012153
0.00649033
-0.011782
0.00718879
-0.0115507
0.00791803
-0.0117816
0.0086373
-0.0122274
0.00926243
-0.0131528
-0.01401
0.00981464
-7.58649e-05
0.000730156
1.81104e-05
0.000592189
0.000320357
0.000236499
0.000886837
-0.000990969
0.00171504
-0.0030181
0.00256098
-0.00653089
0.00316298
-0.0101251
0.00351482
-0.0127808
0.00370222
-0.014348
0.0038111
-0.0151077
0.00389866
-0.015347
0.00399739
-0.0152841
0.00412386
-0.0150483
0.00428684
-0.0147145
0.0044929
-0.014323
0.00474728
-0.0139004
0.00506067
-0.0134598
0.00544072
-0.0130309
0.00591149
-0.0126237
0.0064713
-0.0123418
0.00712942
-0.0122088
0.00781082
-0.012463
0.00848764
-0.0129042
0.00908761
-0.0137528
-0.0145505
0.00962802
-7.81366e-05
0.000808293
2.40482e-05
0.000490004
0.000351876
-9.13282e-05
0.000958059
-0.00159715
0.00179867
-0.00385871
0.00260578
-0.00733799
0.00316309
-0.0106824
0.0034871
-0.0131049
0.00366308
-0.014524
0.00377098
-0.0152156
0.00386271
-0.0154387
0.00396754
-0.0153889
0.00410047
-0.0151812
0.0042697
-0.0148838
0.00448143
-0.0145347
0.00474093
-0.0141599
0.00505757
-0.0137764
0.00543814
-0.0134115
0.00590078
-0.0130864
0.00644088
-0.0128819
0.00706329
-0.0128312
0.00770358
-0.0131033
0.00834378
-0.0135444
0.00892071
-0.0143297
-0.0150787
0.00944901
-7.99764e-05
0.000888269
3.27714e-05
0.000377256
0.000391902
-0.000450458
0.00103656
-0.00224181
0.00187709
-0.00469924
0.00263958
-0.00810049
0.00315407
-0.0111969
0.00345319
-0.013404
0.00361983
-0.0146907
0.00372782
-0.0153236
0.00382402
-0.0155349
0.00393481
-0.0154997
0.00407377
-0.0153202
0.00424863
-0.0150586
0.00446518
-0.0147512
0.00472863
-0.0144233
0.00504701
-0.0140948
0.00542627
-0.0137908
0.00587948
-0.0135396
0.00640074
-0.0134031
0.00699121
-0.0134217
0.00759595
-0.013708
0.00820431
-0.0141528
0.00875989
-0.0148853
-0.0155949
0.00927601
-8.1079e-05
0.000969348
4.5421e-05
0.000250756
0.00044072
-0.000845758
0.00111936
-0.00292044
0.00194757
-0.00552746
0.00266255
-0.00881546
0.00313686
-0.0116712
0.003414
-0.0136811
0.00357314
-0.0148498
0.00368203
-0.0154325
0.00378284
-0.0156357
0.00389934
-0.0156162
0.00404388
-0.0154647
0.0042237
-0.0152385
0.00444426
-0.0149718
0.00471057
-0.0146896
0.00502937
-0.0144136
0.00540583
-0.0141672
0.00584882
-0.0139826
0.00635215
-0.0139064
0.00691383
-0.0139834
0.00748772
-0.0142819
0.008068
-0.0147331
0.00860361
-0.0154209
-0.016099
0.00910773
-8.11283e-05
0.00105048
6.2994e-05
0.000106634
0.000497644
-0.00128041
0.001203
-0.0036258
0.00200835
-0.00633281
0.00267522
-0.00948233
0.00311246
-0.0121084
0.00337036
-0.013939
0.00352356
-0.015003
0.00363396
-0.0155429
0.00373939
-0.0157412
0.00386127
-0.0157381
0.00401087
-0.0156143
0.004195
-0.0154226
0.00441877
-0.0151956
0.00468692
-0.0149578
0.00500504
-0.0147317
0.00537751
-0.0145397
0.00580984
-0.0144149
0.0062961
-0.0143927
0.00683167
-0.0145189
0.00737868
-0.0148289
0.00793375
-0.0152881
0.00845062
-0.0159378
-0.0165915
0.00894315
-7.98064e-05
0.00113028
8.61974e-05
-5.93698e-05
0.000561203
-0.00175541
0.00128412
-0.00434872
0.00205857
-0.00710725
0.00267842
-0.0101022
0.00308186
-0.0125119
0.00332302
-0.0141802
0.0034716
-0.0151516
0.00358392
-0.0156552
0.00369384
-0.0158511
0.00382071
-0.0158649
0.00397483
-0.0157684
0.00416262
-0.0156104
0.00438884
-0.0154218
0.00465791
-0.0152269
0.00497439
-0.0150482
0.00534191
-0.0149072
0.00576338
-0.0148364
0.0062334
-0.0148627
0.00674519
-0.0150307
0.00726863
-0.0153523
0.00780062
-0.0158201
0.00829997
-0.0164372
-0.0170731
0.00878155
-7.68022e-05
0.00120708
0.000115332
-0.000251504
0.000629413
-0.00226949
0.00135991
-0.00507922
0.00209813
-0.00784548
0.0026731
-0.0106772
0.00304598
-0.0128847
0.00327264
-0.0144068
0.00341766
-0.0152966
0.00353214
-0.0157697
0.00364634
-0.0159653
0.00377777
-0.0159964
0.00393586
-0.0159265
0.00412666
-0.0158012
0.0043546
-0.0156497
0.00462375
-0.015496
0.00493778
-0.0153622
0.00529961
-0.015269
0.00571018
-0.0152469
0.0061647
-0.0153173
0.00665481
-0.0155208
0.00715733
-0.0158549
0.00766783
-0.0163306
0.00815101
-0.0169203
-0.0175445
0.00862245
-7.18224e-05
0.00127891
0.000150243
-0.000473569
0.000700044
-0.0028193
0.00142835
-0.00580752
0.00212744
-0.00854456
0.00266027
-0.01121
0.00300565
-0.0132301
0.00321977
-0.014621
0.00336208
-0.0154389
0.00347883
-0.0158864
0.00359702
-0.0160835
0.00373254
-0.0161319
0.00389403
-0.016088
0.00408722
-0.0159944
0.0043162
-0.0158787
0.00458466
-0.0157645
0.00489555
-0.0156731
0.0052511
-0.0156246
0.00565087
-0.0156467
0.00609055
-0.0157569
0.00656085
-0.0159911
0.00704454
-0.0163385
0.0075348
-0.0168209
0.00800334
-0.0173889
-0.0180066
0.0084654
-6.46091e-05
0.00134352
0.000190361
-0.000728539
0.000770827
-0.00339976
0.00148831
-0.00652501
0.0021472
-0.00920346
0.00264088
-0.0117037
0.00296163
-0.0135509
0.0031649
-0.0148242
0.00330515
-0.0155792
0.00342415
-0.0160054
0.00354599
-0.0162053
0.0036851
-0.016271
0.00384943
-0.0162524
0.00404439
-0.0161893
0.00427377
-0.0161081
0.00454088
-0.0160316
0.00484804
-0.0159803
0.00519686
-0.0159734
0.00558595
-0.0160358
0.00601141
-0.0161824
0.00646357
-0.0164433
0.00692996
-0.0168049
0.00740118
-0.0172921
0.0078568
-0.0178445
-0.0184596
0.00830984
-5.49659e-05
0.00139848
0.000234825
-0.00101833
0.000839654
-0.00400459
0.00153935
-0.0072247
0.00215828
-0.00982239
0.00261585
-0.0121612
0.00291454
-0.0138496
0.00310842
-0.0150181
0.00324708
-0.0157178
0.00336824
-0.0161266
0.00349333
-0.0163304
0.00363552
-0.0164132
0.00380215
-0.016419
0.0039983
-0.0163855
0.00422748
-0.0163373
0.00449262
-0.0162967
0.00479554
-0.0162832
0.00513729
-0.0163152
0.00551589
-0.0164144
0.00592766
-0.0165942
0.00636316
-0.0168788
0.00681334
-0.0172551
0.00726684
-0.0177456
0.00771134
-0.018289
-0.0189032
0.00815493
-4.2791e-05
0.00144127
0.000282621
-0.00134374
0.000904737
-0.00462671
0.00158153
-0.0079015
0.00216156
-0.0104024
0.00258599
-0.0125857
0.00286495
-0.0141285
0.00305066
-0.0152038
0.00318807
-0.0158552
0.00331119
-0.0162497
0.00343911
-0.0164583
0.00358388
-0.016558
0.00375226
-0.0165874
0.00394904
-0.0165823
0.00417746
-0.0165657
0.0044401
-0.0165594
0.00473835
-0.0165814
0.00507277
-0.0166496
0.00544106
-0.0167827
0.00583966
-0.0169928
0.00625976
-0.0172989
0.00669446
-0.0176898
0.00713175
-0.0181829
0.00756665
-0.0187239
-0.019337
0.00800044
-2.81068e-05
0.00146938
0.000332699
-0.00170455
0.000964725
-0.00525873
0.00161525
-0.00855202
0.00215793
-0.0109451
0.00255201
-0.0129797
0.00281331
-0.0143898
0.00299187
-0.0153824
0.00312825
-0.0159916
0.0032531
-0.0163746
0.00338341
-0.0165886
0.00353024
-0.0167048
0.00369984
-0.016757
0.00389673
-0.0167792
0.00412387
-0.0167928
0.00438352
-0.016819
0.00467673
-0.0168746
0.00500363
-0.0169765
0.00536179
-0.0171408
0.00574772
-0.0173787
0.00615346
-0.0177046
0.00657323
-0.0181096
0.00699587
-0.0186055
0.0074223
-0.0191504
-0.0197576
0.00784293
-1.10316e-05
0.00148041
0.000384032
-0.00209961
0.00101874
-0.00589344
0.00164101
-0.0091743
0.00214816
-0.0114522
0.00251448
-0.0133461
0.00275996
-0.0146353
0.00293219
-0.0155546
0.00306764
-0.0161271
0.00319392
-0.0165009
0.00332616
-0.0167209
0.00347454
-0.0168532
0.00364485
-0.0169273
0.00384133
-0.0169756
0.00406669
-0.0170182
0.00432292
-0.0170752
0.00461075
-0.0171625
0.00493
-0.0172957
0.00527819
-0.017489
0.00565189
-0.0177524
0.00604408
-0.0180968
0.00644957
-0.0185151
0.00685882
-0.0190148
0.00727233
-0.0195639
-0.0201668
0.00768145
7.95242e-06
0.00147246
0.000435634
-0.00252729
0.00106637
-0.00652418
0.00165949
-0.00976742
0.00213307
-0.0119258
0.00247407
-0.0136871
0.00270535
-0.0148666
0.00287195
-0.0157212
0.00300651
-0.0162616
0.00313391
-0.0166283
0.00326764
-0.0168546
0.0034171
-0.0170026
0.00358763
-0.0170978
0.00378324
-0.0171712
0.00400639
-0.0172413
0.00425881
-0.0173277
0.004541
-0.0174447
0.0048525
-0.0176072
0.00519088
-0.0178274
0.00555281
-0.0181143
0.0059321
-0.0184761
0.00632407
-0.018907
0.0067212
-0.0194119
0.00712047
-0.0199631
-0.0205636
0.00751729
2.81976e-05
0.00144426
0.00048653
-0.00298563
0.00110753
-0.00714517
0.00167131
-0.0103312
0.00211331
-0.0123678
0.00243119
-0.0140049
0.00264969
-0.0150851
0.0028112
-0.0158827
0.00294482
-0.0163952
0.00307302
-0.0167565
0.00320777
-0.0169893
0.00335783
-0.0171527
0.00352812
-0.0172681
0.00372241
-0.0173655
0.00394294
-0.0174619
0.0041912
-0.0175759
0.0044675
-0.017721
0.0047712
-0.0179109
0.00509991
-0.0181561
0.00545046
-0.0184649
0.00581739
-0.018843
0.00619656
-0.0192862
0.00658112
-0.0197965
0.00697016
-0.0203522
-0.020952
0.00735854
4.95344e-05
0.00139473
0.00053578
-0.00347187
0.00114235
-0.00775174
0.00167709
-0.0108659
0.00208947
-0.0127802
0.00238623
-0.0143017
0.00259318
-0.015292
0.00275004
-0.0160396
0.00288263
-0.0165278
0.00301126
-0.0168851
0.00314661
-0.0171247
0.00329681
-0.0173029
0.00346641
-0.0174377
0.00365895
-0.0175581
0.00387648
-0.0176794
0.00412027
-0.0178197
0.00439048
-0.0179912
0.00468631
-0.0182068
0.00500549
-0.0184753
0.005345
-0.0188044
0.00570006
-0.0191981
0.0060668
-0.0196529
0.00643997
-0.0201696
0.00681731
-0.0207295
-0.02133
0.00719532
7.13599e-05
0.00132337
0.000582517
-0.00398303
0.0011711
-0.00834033
0.00167739
-0.0113722
0.00206208
-0.0131649
0.00233955
-0.0145792
0.00253602
-0.0154885
0.00268854
-0.0161921
0.00281997
-0.0166593
0.00294868
-0.0170138
0.00308418
-0.0172602
0.00323408
-0.0174528
0.00340256
-0.0176062
0.00359297
-0.0177485
0.00380714
-0.0178935
0.00404618
-0.0180588
0.00431011
-0.0182551
0.00459804
-0.0184947
0.00490782
-0.0187851
0.00523659
-0.0191332
0.00558013
-0.0195416
0.00593505
-0.0200079
0.00629663
-0.0205312
0.00666307
-0.021096
-0.0216993
0.00703238
9.32508e-05
0.00123012
0.000626
-0.00451578
0.00119414
-0.00890847
0.00167278
-0.0118509
0.00203161
-0.0135237
0.00229142
-0.014839
0.00247833
-0.0156754
0.00262676
-0.0163405
0.00275686
-0.0167894
0.00288528
-0.0171422
0.00302052
-0.0173954
0.0031697
-0.017602
0.00333666
-0.0177731
0.00352457
-0.0179364
0.00373505
-0.018104
0.00396909
-0.0182928
0.00422657
-0.0185126
0.00450657
-0.0187747
0.00480705
-0.0190856
0.00512535
-0.0194515
0.00545773
-0.019874
0.00580111
-0.0203512
0.00615159
-0.0208817
0.0065073
-0.0214517
-0.0220587
0.00686669
0.000114938
0.00111518
0.000665669
-0.00506651
0.00121182
-0.00945462
0.00166374
-0.0123028
0.00199846
-0.0138584
0.00224211
-0.0150826
0.00242023
-0.0158535
0.00256473
-0.016485
0.00269331
-0.0169179
0.00282109
-0.01727
0.00295568
-0.01753
0.00310373
-0.01775
0.00326879
-0.0179382
0.00345383
-0.0181214
0.00366033
-0.0183105
0.00388913
-0.0185216
0.00414002
-0.0187635
0.00441208
-0.0190467
0.00470335
-0.0193768
0.0050114
-0.0197595
0.00533289
-0.0201955
0.00566511
-0.0206835
0.0060046
-0.0212212
0.00634968
-0.0217967
-0.0224086
0.00669962
0.000136316
0.000978863
0.000701173
-0.00563136
0.00122454
-0.00997798
0.00165072
-0.012729
0.00196301
-0.0141707
0.0021918
-0.0153114
0.00236181
-0.0160235
0.0025025
-0.0166257
0.00262934
-0.0170448
0.00275613
-0.0173968
0.00288967
-0.0176636
0.00303621
-0.0178966
0.00319901
-0.018101
0.00338087
-0.0183033
0.0035831
-0.0185128
0.00380644
-0.018745
0.00405062
-0.0190077
0.0043147
-0.0193108
0.00459687
-0.019659
0.00489485
-0.0200575
0.0052057
-0.0205064
0.005527
-0.0210048
0.00585571
-0.0215499
0.00619042
-0.0221315
-0.0227486
0.00653042
0.000157431
0.000821431
0.00073236
-0.00620629
0.00123268
-0.0104783
0.00163416
-0.0131304
0.00192556
-0.0144621
0.00214068
-0.0155266
0.00230315
-0.016186
0.00244006
-0.0167626
0.00256495
-0.0171697
0.00269042
-0.0175223
0.00282253
-0.0177957
0.0029672
-0.0180413
0.0031274
-0.0182612
0.00330577
-0.0184817
0.00350347
-0.0187105
0.00372116
-0.0189626
0.00395851
-0.019245
0.00421459
-0.0195669
0.00448772
-0.0199321
0.0047758
-0.0203456
0.00507623
-0.0208068
0.00538683
-0.0213154
0.00570491
-0.021868
0.00602927
-0.0224558
-0.0230788
0.00635942
0.000178436
0.000642996
0.000759249
-0.00678711
0.00123664
-0.0109557
0.00161442
-0.0135082
0.00188639
-0.0147341
0.00208889
-0.0157291
0.00224428
-0.0163414
0.00237744
-0.0168958
0.00250014
-0.0172924
0.00262396
-0.0176461
0.0027543
-0.017926
0.00289676
-0.0181837
0.00305402
-0.0184185
0.00322861
-0.0186563
0.00342154
-0.0189034
0.0036334
-0.0191745
0.00386381
-0.0194754
0.00411188
-0.019815
0.00437604
-0.0201963
0.00465436
-0.0206239
0.00494453
-0.021097
0.00524461
-0.0216154
0.00555219
-0.0221756
0.00586632
-0.0227699
-0.0233989
0.00618644
0.000199534
0.000443461
0.000781981
-0.00736955
0.00123676
-0.0114105
0.00159185
-0.0138633
0.00184574
-0.014988
0.00203655
-0.0159199
0.00218524
-0.0164901
0.00231464
-0.0170252
0.00243493
-0.0174127
0.00255678
-0.0177679
0.00268501
-0.0180542
0.00282492
-0.0183236
0.00297896
-0.0185725
0.0031495
-0.0188268
0.00333743
-0.0190913
0.00354329
-0.0193804
0.00376666
-0.0196988
0.0040067
-0.020055
0.00426194
-0.0204515
0.00453062
-0.0208926
0.00481068
-0.021377
0.00510037
-0.0219051
0.00539758
-0.0224728
0.00570149
-0.0230738
-0.023709
0.00601156
0.000220927
0.000222534
0.000800772
-0.0079494
0.00123338
-0.0118431
0.00156676
-0.0141967
0.00180382
-0.015225
0.00198376
-0.0160998
0.00212608
-0.0166324
0.00225166
-0.0171508
0.00236931
-0.0175303
0.00248888
-0.0178875
0.00261469
-0.01818
0.00275174
-0.0184607
0.00290226
-0.018723
0.0030685
-0.018993
0.00325124
-0.019274
0.00345094
-0.0195801
0.00366718
-0.019915
0.00389917
-0.020287
0.00414553
-0.0206979
0.00440466
-0.0211517
0.00467474
-0.0216471
0.00495417
-0.0221846
0.00524107
-0.0227597
0.0055348
-0.0233676
-0.0240089
0.00583475
0.000242757
-2.02227e-05
0.000815869
-0.00852251
0.00122683
-0.012254
0.00153945
-0.0145093
0.00176082
-0.0154464
0.0019306
-0.0162696
0.0020668
-0.0167686
0.0021885
-0.0172725