2 	-9.32124 	-3.2746e-17 	-0.0118078
2 	-8.65009 	-3.03665e-17 	-0.0138346
2 	-7.98839 	-2.74657e-17 	-0.0162936
2 	-7.33601 	-2.49113e-17 	-0.0192904
2 	-6.69282 	-2.21826e-17 	-0.0228139
2 	-6.05869 	-2.15349e-17 	-0.0278775
2 	-5.43349 	-1.93252e-17 	-0.0344927
2 	-4.97577 	-1.57162e-17 	-0.0401221
2 	-4.78918 	-1.36264e-17 	-0.0412313
2 	-4.62101 	-1.22998e-17 	-0.0457507
2 	-4.43894 	-1.14395e-17 	-0.0469971
2 	-4.28945 	-6.87212e-18 	-0.0522459
2 	-4.11143 	-3.66563e-18 	-0.0537015
2 	-3.9775 	-3.18417e-18 	-0.059661
2 	-3.80438 	-5.53292e-18 	-0.0613372
2 	-3.68222 	-8.00759e-18 	-0.0629902
2 	-3.5725 	-6.05565e-18 	-0.069982
2 	-3.40027 	-6.86563e-18 	-0.0719181
2 	-3.30007 	5.55112e-18 	-0.0797816
2 	-3.17172 	8.16275e-18 	-0.0820403
2 	-3.0376 	1.09351e-17 	-0.0843019
2 	-2.95274 	1.1099e-17 	-0.093366
2 	-2.83139 	8.62915e-18 	-0.0960108
2 	-2.70386 	5.8536e-18 	-0.0986804
2 	-2.63071 	5.55112e-18 	-0.109021
2 	-2.53812 	6.0049e-18 	-0.112126
2 	-2.40575 	5.8847e-18 	-0.115284
2 	-2.32627 	4.38936e-18 	-0.118499
2 	-2.26603 	2.08095e-18 	-0.13041
2 	-2.16439 	2.98568e-20 	-0.134127
2 	-2.05378 	-4.64375e-18 	-0.137938
2 	-1.97822 	-1.05482e-17 	-0.141854
2 	-1.92718 	-8.99705e-18 	-0.155074
2 	-1.84937 	-5.89806e-18 	-0.159493
2 	-1.75449 	-7.21791e-18 	-0.164048
2 	-1.66387 	-6.66081e-18 	-0.168753
2 	-1.59974 	-3.20633e-18 	-0.173621
2 	-1.55729 	-2.72259e-18 	-0.187584
2 	-1.49387 	-2.08167e-18 	-0.192821
2 	-1.41382 	1.36752e-19 	-0.198205
2 	-1.33669 	1.25941e-18 	-0.203732
2 	-1.26221 	2.29764e-18 	-0.209391
2 	-1.19015 	5.33504e-18 	-0.215156
2 	-1.15412 	9.34116e-18 	-0.220991
2 	-1.11973 	1.00383e-17 	-0.232238
2 	-1.05248 	8.32667e-18 	-0.237291
2 	-0.986501 	3.1225e-18 	-0.242087
2 	-0.922204 	-1.1265e-18 	-0.246526
2 	-0.859442 	-4.33967e-18 	-0.250508
2 	-0.798078 	-7.07214e-18 	-0.253955
2 	-0.737982 	-6.90062e-18 	-0.256819
2 	-0.679038 	-6.01059e-18 	-0.2591
2 	-0.621133 	-8.53174e-18 	-0.26084
2 	-0.5766 	-7.68429e-18 	-0.262115
2 	-0.548335 	-6.93889e-18 	-0.261473
2 	-0.508028 	-6.93889e-18 	-0.261974
2 	-0.452635 	-6.93889e-18 	-0.262301
2 	-0.397895 	-6.93889e-18 	-0.262482
2 	-0.343723 	-8.67362e-18 	-0.26254
2 	-0.290037 	-1.04083e-17 	-0.262495
2 	-0.236756 	-8.67362e-18 	-0.262372
2 	-0.183806 	-6.93889e-18 	-0.262202
2 	-0.131109 	-1.04083e-17 	-0.262026
2 	-0.0785936 	-1.35308e-17 	-0.26188
2 	-0.0261859 	-1.35308e-17 	-0.261798
2 	0.0261859 	-1.21431e-17 	-0.261798
2 	0.0785936 	-1.04083e-17 	-0.261879
2 	0.131109 	-9.36751e-18 	-0.262024
2 	0.183806 	-8.32667e-18 	-0.262201
2 	0.236756 	-8.32667e-18 	-0.26237
2 	0.290037 	-6.59195e-18 	-0.262493
2 	0.343723 	-7.63278e-18 	-0.262538
2 	0.397895 	-1.49186e-17 	-0.262479
2 	0.452635 	-1.49186e-17 	-0.262298
2 	0.508028 	-1.04083e-17 	-0.261971
2 	0.548335 	-8.06042e-18 	-0.26147
2 	0.5766 	-4.64248e-18 	-0.262109
2 	0.621133 	-3.67452e-18 	-0.260834
2 	0.679038 	-5.09165e-18 	-0.259094
2 	0.737982 	9.05639e-19 	-0.256814
2 	0.798078 	3.07599e-18 	-0.253949
2 	0.859442 	7.30466e-18 	-0.250503
2 	0.922204 	7.48207e-18 	-0.246521
2 	0.986501 	5.55112e-18 	-0.242083
2 	1.05248 	5.55112e-18 	-0.237287
2 	1.11973 	1.07784e-17 	-0.232234
2 	1.15412 	1.63262e-17 	-0.220987
2 	1.19015 	2.02537e-17 	-0.215153
2 	1.26221 	2.45021e-17 	-0.209387
2 	1.33669 	2.95788e-17 	-0.20373
2 	1.41382 	3.5742e-17 	-0.198203
2 	1.49387 	3.40006e-17 	-0.192819
2 	1.55729 	3.06733e-17 	-0.187582
2 	1.59974 	3.19243e-17 	-0.173619
2 	1.66387 	3.34113e-17 	-0.168752
2 	1.75449 	3.32012e-17 	-0.164047
2 	1.84937 	3.43475e-17 	-0.159492
2 	1.92718 	3.90945e-17 	-0.155073
2 	1.97822 	4.37884e-17 	-0.141853
2 	2.05378 	4.28877e-17 	-0.137937
2 	2.16439 	4.16632e-17 	-0.134126
2 	2.26603 	4.38892e-17 	-0.130409
2 	2.32627 	4.44629e-17 	-0.118498
2 	2.40575 	4.36149e-17 	-0.115283
2 	2.53812 	4.30412e-17 	-0.112126
2 	2.63071 	4.4533e-17 	-0.10902
2 	2.70386 	4.63967e-17 	-0.0986801
2 	2.83139 	4.76604e-17 	-0.0960106
2 	2.95274 	5.07981e-17 	-0.0933658
2 	3.0376 	5.18484e-17 	-0.0843018
2 	3.17172 	5.06635e-17 	-0.0820401
2 	3.30007 	5.32585e-17 	-0.0797814
2 	3.40027 	1.40597e-17 	-0.071918
2 	3.5725 	1.59864e-17 	-0.0699819
2 	3.68222 	1.80468e-17 	-0.0629901
2 	3.80438 	1.62961e-17 	-0.0613371
2 	3.9775 	1.65188e-17 	-0.059661
2 	4.11143 	1.9009e-17 	-0.0537015
2 	4.28945 	1.96189e-17 	-0.0522459
2 	4.43894 	2.10638e-17 	-0.0469971
2 	4.62101 	2.12444e-17 	-0.0457507
2 	4.78918 	2.04893e-17 	-0.0412313
2 	4.97577 	2.22158e-17 	-0.0401221
2 	5.43349 	2.63452e-17 	-0.0344927
2 	6.05869 	2.7086e-17 	-0.0278776
2 	6.69282 	2.40908e-17 	-0.0228139
2 	7.33601 	2.17887e-17 	-0.0192904
2 	7.98839 	1.89656e-17 	-0.0162936
2 	8.65009 	1.90908e-17 	-0.0138346
2 	9.32124 	2.04295e-17 	-0.0118078
