/*--------------------------------*- C++ -*----------------------------------*\
  =========                 |
  \\      /  F ield         | OpenFOAM: The Open Source CFD Toolbox
   \\    /   O peration     | Website:  https://openfoam.org
    \\  /    A nd           | Version:  7
     \\/     M anipulation  |
\*---------------------------------------------------------------------------*/
FoamFile
{
    version     2.0;
    format      ascii;
    class       volScalarField;
    location    "0.893";
    object      T;
}
// * * * * * * * * * * * * * * * * * * * * * * * * * * * * * * * * * * * * * //

dimensions      [0 2 -2 0 0 0 0];

internalField   nonuniform List<scalar> 
12359
(
4.15762e-75
1.3968e-61
-1.76489e-204
-8.28815e-41
-1.05144e-69
-7.85609e-28
5.50432e-23
-3.43625e-25
2.10225e-17
-2.4363e-31
6.87314e-20
-1.91498e-13
0.274086
-4.90938e-38
3.15951e-43
1.2698e-05
0.00270903
-6.57967e-112
1.65303e-114
-3.32626e-51
-1.91362e-36
6.50984e-15
-8.00562e-57
-1.07148e-48
-8.15656e-59
1.22297e-53
-1.12962e-147
1.12394e-150
-1.32364e-120
-1.60944e-139
-6.46166e-134
2.44447e-165
3.41723e-182
-1.00346e-142
-2.25534e-195
1.61927e-131
2.90952e-92
1.11181e-77
1.19581e-72
-5.48578e-83
4.18103e-64
2.12706e-80
4.09332e-98
2.29848e-101
-1.28026e-125
7.7378e-123
6.83253e-129
1.42517e-136
-1.68055e-117
6.16959e-145
2.30169e-154
5.22016e-159
5.19778e-168
-4.30221e-110
2.70829e-173
1.42434e-179
-1.76014e-103
-1.07803e-184
1.66712e-187
-1.14542e-190
-2.43284e-176
-6.23119e-199
-2.80707e-156
9.9659
2.55526e-106
9.63966e-34
1.84355e-93
-6.46756e-162
-2.4212e-88
2.36787e-09
116.807
-8.95205e-67
-1.85868e-207
1.49029e-85
8.6696e-46
2.5023e-196
-2.28213e-170
1.42128e-201
-1.02711e-95
-1.9983e-10
-8.27849e-27
-3.50814e-118
3.47436e-256
-9.10472e-75
0.0016544
5.28823e-71
-2.79381e-116
5.74144e-165
1.0407
0.000540998
6.87254e-224
3.06919
1.82002e-225
-2.78524e-97
-1.95078e-78
1.07003e-48
-3.24183e-102
-6.03713e-98
4.7303e-49
-1.51347e-62
2.02331e-22
-3.36849e-219
1.29518e-71
28.804
-1.28595e-125
5.04678e-27
5.87495e-220
0.00218067
9.44888e-80
4.17814e-28
-1.00757e-104
-6.34854e-118
-5.21055e-31
5.8161e-26
-4.65047e-79
-1.91979e-148
4.82791e-25
-2.80132e-117
3.60067
1.6392e-253
-2.54304e-105
1.12119e-22
1.49781e-163
3.82836e-34
-2.21732e-116
-1.09052e-138
2.61653e-16
-4.52312e-74
-1.8322e-203
-2.29588e-117
1.70468e-147
1.08195e-05
0.000371368
0.000244676
-4.35196e-219
1.13075e-34
2.26386e-147
5.95328e-36
-7.45242e-215
3.5726e-17
-1.98675e-244
-1.18909e-74
5.94242e-36
1.06172e-218
1.73705e-17
9.83202e-28
-8.32175e-255
0.000695353
-5.13401e-125
1.82259e-26
3.03423e-46
-1.43283e-216
2.74543e-35
8.17298e-162
5.91106e-230
115.398
3.70194e-23
9.96688e-06
-6.76063e-103
-5.80911e-167
3.08706e-33
7.98724e-166
6.08499e-34
3.81224e-35
-2.66246e-241
-4.54506e-140
6.23909e-34
1.69005e-23
7.91087e-37
0.923557
1.26872e-200
8.10006e-198
7.26621e-38
-6.80168e-60
-3.32151e-127
1.4537e-17
-1.01469e-122
-3.64212e-124
-8.63557e-31
1.73351e-18
-1.2656e-37
-3.32963e-228
-2.16737e-202
-2.71069e-117
2.55038e-50
8.78485e-16
-3.65276e-98
-4.51926e-82
2.16106e-45
-1.79248e-97
-1.06707e-80
5.17483e-50
1.38825e-51
1.26641e-160
1.62985e-27
41.0678
1.45254e-59
-1.31818e-97
2.42751e-35
-3.01836e-116
1.74896e-26
7.63091e-46
-1.65639e-62
3.16691e-28
1.87545e-20
-2.21172e-228
1.96879e-19
-1.55948e-61
3.3087e-29
9.35988e-107
3.7577e-237
8.7103e-14
1.61187e-13
157.108
2.57843e-15
-1.59259e-212
-6.86817e-98
-2.90935e-80
-2.49283e-97
-1.89981e-72
2.79643e-26
9.73759e-109
4.869e-35
3.36494
-8.27634e-118
1.12549e-236
-3.08685e-71
3.49552e-81
5.80778e-19
-3.26966e-95
-1.90728e-94
-4.58694e-243
8.67973e-18
-5.51053e-58
-1.82045e-82
-7.98122e-59
4.7129e-251
2.70928e-33
-3.61417e-81
9.62869e-05
-2.52861e-233
6.89152e-68
-3.18668e-89
5.17829e-10
2.01561e-31
0.00104471
6.1948e-189
4.281e-30
7.86475e-133
8.57898e-52
2.94836e-19
-8.98378e-81
-4.4851e-127
-1.46099e-94
1.43307
128.791
7.26817e-251
9.4947e-111
1.51663
187.295
-5.35824e-62
7.67359e-32
8.27859e-21
4.45012e-28
-2.0543e-61
61.3901
3.63462
5.34276e-30
3.22511e-112
8.74098e-35
3.93495e-37
4.98047e-50
4.73056e-36
-3.95702e-96
1.39132e-108
5.34795e-235
3.85221e-110
8.54016
9.03752e-30
-2.00022e-201
1.75994e-217
7.78605e-28
1.2702e-110
-2.10912e-94
2.94756e-69
5.37159e-247
5.86349e-21
-1.18086e-217
-7.57005e-219
-4.1738e-167
7.96363e-35
-5.59376e-120
55.3342
2.83086e-220
5.32834e-217
1.29015e-70
-2.02396e-133
3.77224e-27
-4.04925e-83
1.55126e-156
4.7775e-223
7.80299
5.84659e-20
5.80117e-224
-4.90496e-97
-1.88518e-84
-1.19866e-131
-4.80007e-147
-4.14436e-150
-3.99661e-129
1.15891e-114
-6.18568e-16
-1.2717e-132
-5.2658e-135
-3.91804e-79
3.01995e-33
1.73514
3.09119e-129
-1.64023e-52
4.45199e-06
2.39837e-217
1.42326e-43
-2.80316e-201
1.11228e-58
4.26768e-217
1.93495e-127
5.00048e-16
2.7099e-40
2.13519e-16
-7.8772e-96
-2.02642e-89
1.07011e-51
1.32034e-47
-2.42811e-88
4.62692e-52
4.16664e-52
1.11577e-183
4.64175e-173
1.746e-173
8.02513e-173
3.98823e-172
0.00039012
-5.15048e-246
3.79926e-25
1.13823e-35
1.29267e-52
4.98998e-34
1.1788e-39
4.92224e-71
7.73229e-61
8.56046e-40
1.004e-61
-2.57417e-53
1.50222e-30
7.78707e-30
2.13355e-30
-1.59034e-73
1.59619e-14
-2.20651e-75
-4.9084e-75
8.63713e-36
5.02987e-20
-1.46489e-120
-4.59756e-172
3.78726e-59
-1.13035e-173
-1.76391e-118
169.336
17.9745
1.252e-118
-8.42109e-213
1.33135e-221
-5.17901e-231
1.90587e-40
3.60533e-228
2.83056e-229
1.27226
2.23788e-35
0.00042248
5.35488e-121
5.3843e-30
3.48575e-112
-5.36359e-88
7.991e-27
6.28882e-60
-4.98563e-39
2.58109e-61
8.49536e-121
-1.7582e-201
7.08439e-36
5.85487e-30
3.51334e-119
9.99933e-12
4.26412e-27
1.34583e-48
7.16039e-42
3.04933e-35
1.10426e-211
10.3626
1.00012e-13
1.48221e-119
1.67832e-10
-2.41002e-76
-3.33859e-242
3.0372e-242
-1.76086e-232
0.000788235
6.43954e-21
8.48736e-52
1.65457e-44
7.29138e-47
-5.25397e-77
-1.21232e-37
3.00287e-43
6.41444e-10
1.71511
4.72879e-12
3.4081e-52
2.14552e-31
2.91184e-78
7.03897e-28
2.1179e-65
9.50179e-58
-1.11405e-142
5.40677e-67
5.22757e-38
5.08873e-227
177.736
-1.33578e-92
1.05313
4.91976e-31
2.92175e-103
2.77205e-29
1.10837
7.04644e-38
3.5717e-59
6.91355e-49
6.20144e-30
4.57659e-27
-1.11842e-113
-8.02328e-237
8.64877e-24
-1.2811e-215
4.46736e-06
3.7111e-146
-2.12474e-56
9.868e-35
7.57157e-95
0.00914769
2.34293e-24
-1.42016e-64
-2.00616e-113
3.83651e-05
6.96215e-189
5.89646e-125
8.11466e-15
-1.79294e-211
-2.2357e-113
-3.32201e-126
1.14995e-07
16.9585
-3.9485e-76
7.97648e-170
-1.59216e-32
4.06535e-36
7.84617e-44
7.55165e-34
1.20073e-36
4.42423e-182
-1.38611e-232
6.24534e-40
4.29224e-221
8.49354e-36
2.70055e-44
2.18561e-28
-9.3864e-126
7.02216e-25
2.38185e-13
1.14697e-141
-1.25773e-77
1.2045e-117
-5.70831e-29
1.4604e-14
7.17201e-215
1.46809e-38
2.7182e-38
9.79705e-81
2.5559e-37
1.15299e-145
3.85578e-21
2.17221e-62
5.52109e-33
9.37477e-29
1.7936e-180
-2.08188e-78
7.32431e-10
0.00130098
1.28314e-222
1.49153e-56
3.84947e-10
5.78475e-43
0.857264
-1.63775e-232
2.38253e-147
3.51434e-187
6.01212e-34
2.47015e-62
-3.70058e-71
3.84037e-144
8.79419e-41
8.1482e-56
-5.44045e-61
-3.68528e-103
0.00028147
-3.33397e-210
0.000645851
1.66489e-166
146.669
3.05817e-61
1.37058e-10
7.37986e-188
-7.25201e-127
4.00743e-32
-5.93009e-119
6.74322e-158
3.92237e-98
-3.34348e-60
2.37393e-60
4.2488e-12
1.92777e-23
1.56047e-23
-1.76451e-255
-8.72011e-119
2.84268e-42
0.00173733
-3.11997e-255
2.4353e-206
1.48896e-37
2.96254e-185
1.49177e-16
1.30954
101.488
-8.8333e-254
1.01377e-79
2.27927e-18
-8.92701e-69
-1.51285e-127
92.6574
6.09716e-209
1.09555e-23
1.33837e-33
-4.43051e-81
-3.76266e-130
5.13197e-155
2.20318e-96
3.45857e-36
2.74208e-62
-2.06155e-75
-4.43786e-253
-1.03955e-201
-8.16612e-64
1.01878e-122
1.42361e-27
3.19734e-34
-2.80367e-165
-3.40001e-203
5.8736e-30
170.48
-1.23673e-135
3.13803e-10
-3.10461e-222
-6.10477e-75
7.58834e-24
6.10077e-43
4.97585e-20
2.57875e-28
6.65828e-61
2.81005e-32
-9.04303e-239
-8.74045e-194
3.01912e-46
1.18665e-71
3.17268e-62
-6.98605e-73
3.87336e-230
-3.24446e-202
-4.85171e-138
3.95566e-48
3.96848e-28
-4.48642e-33
-2.21951e-91
-2.47631e-31
2.57512e-36
8.37005e-58
-2.3899e-30
-4.42533e-55
1.30559
8.9134e-35
1.9861e-53
9.37559e-29
4.3379e-195
3.7704e-23
1.0546e-31
5.16628e-256
-3.47119e-212
5.39049e-184
7.55136e-188
4.99861e-07
2.10617e-57
3.11332e-87
-2.73819e-32
4.90889e-98
5.4974e-16
1.04993e-43
1.02386e-35
-5.11389e-137
8.42808e-11
9.64997e-231
-8.6607e-48
-4.6e-114
5.35605e-19
-1.20042e-29
3.67693e-66
3.42427e-57
8.69896
2.61321e-37
1.2165e-13
4.22321e-66
1.48584e-11
0.604062
-1.40799e-174
-4.55235e-121
1.1576e-231
2.19525e-08
-2.10091e-121
4.06842e-62
0.00758533
4.16795e-207
-2.89481e-61
1.06768e-31
2.26734e-62
6.78513e-133
1.00878e-67
-9.33318e-169
-6.22162e-66
-1.76901e-169
-1.66733e-167
-4.24452e-70
3.43894e-34
8.39064e-37
5.75938e-61
1.64394e-08
8.03138e-44
17.3794
1.0352e-36
1.12337e-69
-6.14172e-68
2.1378e-38
2.47951e-51
5.59628e-50
0.601345
-2.86088e-35
7.26127e-54
8.72722e-52
2.90941e-113
4.78686e-124
1.85648e-30
-3.22499e-235
17.2811
1.99966e-168
-2.68192e-34
3.52067e-22
3.57347e-07
5.15979e-19
1.69773e-29
6.60709e-33
4.49836e-67
3.32961e-19
1.52065e-41
1.55153e-13
2.03058e-51
1.45485e-13
1.0869e-52
8.00205e-250
5.63584e-52
175.945
3.53773e-13
-6.07675e-94
-1.11777e-240
3.74693e-163
1.97758e-85
-8.28371e-55
1.42165e-37
6.83754e-58
3.3093e-183
5.6001e-93
7.36025e-51
1.50322e-96
-2.54424e-103
9.90667e-13
-7.34739e-104
3.57838e-43
3.44738e-26
-4.32626e-94
1.37607e-85
6.58587e-28
-3.91427e-257
-1.21368e-88
52.7568
3.54442e-192
1.90625e-16
8.18249e-23
-7.91851e-87
1.54655e-32
2.99325e-26
4.50963e-53
1.73103e-26
-2.92481e-121
-1.42074e-32
-7.22291e-128
3.54917e-53
2.23606e-28
-2.52239e-31
-4.25932e-121
1.11004e-31
2.49547e-06
8.77514e-45
1.2648e-67
-1.13079e-114
1.47618e-22
6.84461e-07
4.57244e-116
1.75587e-213
4.99212e-53
3.25974e-225
0.703421
5.22156e-52
2.3383e-12
1.11387e-65
3.4632e-59
13.3018
1.52681e-63
0.00163928
8.01335e-39
96.6796
8.83019e-42
-2.36543e-74
5.5245e-65
3.71818e-82
0.00396138
0.000380827
1.10071e-170
5.47089e-168
-3.44828e-29
2.61239e-158
0.00342052
3.13492e-28
3.6947e-10
-1.59478e-114
130.601
0.0978715
3.12676e-51
5.56762e-248
-1.40014e-125
-1.66896e-37
1.02377e-83
-2.29788e-90
9.14175e-82
1.11401e-37
1.00258e-42
45.9964
1.57227e-07
7.50893e-185
5.98197e-37
8.51525e-25
-5.91026e-28
-1.69029e-72
1.11294e-22
6.53813e-32
-1.84482e-36
-2.60071e-131
2.11853e-244
7.07749e-21
7.51127e-18
8.65782e-60
-3.64786e-30
3.68329e-13
5.28868e-71
2.31157e-54
-1.56047e-112
-2.10698e-77
6.31026e-15
-9.5886e-76
1.43889e-25
1.19594e-39
1.27485e-47
8.87645e-95
-2.0544e-76
8.39251e-07
1.05718e-67
5.49295e-72
44.3554
3.10008e-48
1.41661e-72
0.00904142
-1.05755e-251
2.91415e-66
2.54897e-59
-1.77787e-84
-8.02604e-142
1.5922e-56
5.31113e-258
1.10155e-09
3.58608e-120
-1.51902e-59
2.36009e-21
2.36245e-32
1.64049e-61
2.8799e-64
6.15074e-22
91.0505
1.11212e-193
1.31277e-102
1.40409e-71
0.00793321
5.58251e-18
-1.12833e-122
3.26491
-1.77629e-244
-3.52348e-123
185.539
-3.93132e-93
-1.07928e-119
-9.43219e-117
6.88466e-41
-8.3523e-40
3.35917e-190
-1.54082e-86
8.89971e-25
1.10887e-59
-3.44046e-64
6.40886e-82
-2.37387e-173
-1.12816e-38
2.23697e-06
-1.39872e-66
-2.9203e-31
1.37515e-39
2.13593e-51
1.61739e-10
1.11382e-25
1.26007e-80
-2.14758e-121
0.000461551
7.12207e-34
2.76955e-46
-1.02267e-111
3.10035e-186
-9.84499e-37
5.82689e-11
8.1642e-70
6.63638e-29
2.34838e-68
-1.19665e-80
1.18493e-101
2.71838e-39
149.545
19.3999
4.37536e-38
-5.23478e-64
-1.5468e-103
2.25726e-40
0.0128043
-1.05275e-33
-4.71927e-124
1.49251e-11
7.20364e-08
9.89354
1.51422e-86
88.7459
7.5813e-190
-1.56535e-80
5.2029e-186
5.44726e-11
4.17017e-45
81.6523
-7.00055e-128
0.0206449
3.95747e-157
-9.03599e-65
2.26405e-29
-6.44921e-87
3.24192e-12
0.133265
-2.37875e-91
8.8323e-94
3.51439e-66
6.3575e-88
-8.31628e-93
8.97758e-14
1.63631e-47
1.08668e-63
1.63622e-15
-6.17087e-93
9.75266e-181
-6.11314e-68
2.69614e-162
7.26837e-27
5.9186e-66
3.46658e-09
5.29566e-11
-3.85167e-42
2.67557e-33
2.22001e-37
3.39502e-66
0.0141979
4.73292e-72
-3.59223e-97
4.70519e-230
2.57963e-11
-6.32492e-35
-2.85186e-129
3.99898e-26
-2.35561e-82
1.44377e-33
-2.9709e-37
-1.3869e-32
1.4382e-38
91.4094
6.05353e-37
-5.32918e-41
0.140311
9.00339e-86
2.2407e-07
2.14911e-24
4.36885e-161
1.42542e-70
-3.2389e-102
5.37219e-71
-2.63927e-240
-3.49301e-116
2.59134e-07
2.71876e-11
-3.52147e-117
205.905
5.09862e-29
-3.99404e-165
7.23127e-12
1.43876e-12
-5.48439e-168
1.06089e-10
2.76724e-22
2.98745e-11
-5.31126e-167
-1.9869e-125
-1.33191e-100
-4.09822e-168
-2.43495e-36
28.7021
-2.65631e-130
5.52145e-12
-3.99655e-253
2.7399
8.0645e-27
1.73065e-35
-4.51185e-210
-5.96644e-132
-1.31731e-77
3.71392e-40
3.18552e-15
3.78812e-34
-1.39728e-93
-4.17821e-89
-6.26871e-166
3.74685e-28
4.41109e-38
-1.29104e-101
-1.69099e-211
5.03638e-55
1.76281e-34
6.61621e-44
-2.51877e-137
7.33332e-07
7.27314e-29
2.75595e-157
2.99912e-45
2.0539e-89
1.08398e-73
194.77
-2.1749e-94
5.86102e-164
3.51103e-38
-4.97295e-36
-1.54908e-44
2.90505
-4.63846e-62
1.81578e-74
5.69809e-33
-9.63693e-85
-1.08201e-82
5.71097e-73
1.02155e-84
-7.24304e-29
-2.35099e-74
16.5323
-2.42319e-43
5.65269e-10
-2.17387e-81
0.00921314
3.15231e-31
2.30069e-09
8.09913e-14
2.75637e-33
3.7133e-73
4.61711e-79
1.48666e-57
5.76583e-253
-1.81151e-76
9.46154e-36
8.26883e-13
-3.55108e-85
1.60473e-158
1.42305e-35
4.58279e-35
7.32258e-17
3.16404e-39
1.13029e-11
9.30011e-17
-2.21472e-110
5.66755e-50
0.816555
6.30956e-37
3.4567e-243
1.80052e-87
-2.87522e-87
3.58968e-246
3.33298e-51
1.03007e-191
-1.19979e-75
7.04048e-15
1.78208e-33
2.86369e-06
8.8529e-188
1.87563e-131
7.24792e-224
-3.32417e-86
-5.47429e-103
2.35245e-09
-9.63065e-103
1.54486e-132
5.07003e-07
9.51888e-36
4.29126e-47
1.7956e-52
2.64367e-17
7.67857e-94
4.34632e-12
7.28032e-80
1.73825e-182
0.00208484
1.25086e-41
2.42847e-20
-2.35966e-98
56.5297
-1.29199e-39
1.37958e-44
7.10403e-34
5.12425e-30
43.2564
3.80581e-77
4.68264e-12
2.27187e-48
3.23383e-46
2.59686e-140
6.76552e-65
1.60245e-07
2.03053e-77
5.75822e-09
-9.72575e-92
-9.10737e-96
9.24655e-13
6.05495e-149
1.42509e-121
1.22526e-75
2.38526e-40
3.90462e-11
-7.06346e-93
2.12066e-87
-1.09842e-225
6.98706e-47
0.00243539
8.40853e-42
-2.81349e-87
-3.77555e-63
3.59469e-95
-2.83408e-127
14.4653
-5.87862e-47
4.048e-216
9.81965e-49
2.29374e-96
-2.2136e-38
-1.5874e-27
3.39815e-44
1.40611e-85
1.33213e-14
3.67736e-11
4.78846e-215
3.09655e-60
1.44385e-11
-7.72355e-130
-1.36829e-192
-5.12739e-64
3.7302e-50
2.50252e-79
-7.89822e-191
9.56842e-51
2.25109e-12
-8.02086e-167
4.40967e-23
2.0987e-192
-1.37483e-101
4.78532e-55
4.76972e-05
-4.44198e-232
2.19372
-9.43082e-46
1.5449e-21
40.9788
-5.10776e-42
6.90199e-57
0.0367161
-6.52871e-86
1.56603e-05
7.00767e-19
-1.48992e-64
-1.92118e-77
-8.31006e-79
-1.46411e-96
-1.38517e-101
1.4246e-21
0.0288719
196.95
3.85178e-25
-7.42486e-29
0.0249947
2.00148e-27
13.7889
1.76216e-143
-5.70833e-95
9.39487e-19
1.11305e-42
-6.31925e-117
4.57729e-25
3.91663e-80
37.3825
7.27633e-243
-1.23247e-129
1.49111e-137
206.411
-2.64664e-36
3.85591e-44
-2.00831e-76
4.95929e-19
-9.61819e-82
-9.31068e-134
3.42588e-07
1.49367e-78
3.2091e-07
1.22721e-21
2.40526e-67
2.94377e-14
3.35786e-42
-2.64501e-95
-1.67352e-128
-1.05062e-125
0.239426
2.24734e-13
-4.18996e-105
8.27658e-18
2.26127e-47
1.02464e-24
3.53311e-232
2.56155e-46
2.06853e-07
6.80511e-10
-8.87189e-41
-1.32245e-66
6.48145e-130
8.1407e-16
4.75105e-83
7.38857e-134
4.07564e-10
9.41613e-17
-4.56657e-107
2.63677e-30
1.06895e-41
-2.51561e-226
-3.04326e-118
2.93237e-192
-9.04482e-40
87.1703
2.07409e-11
2.0667e-19
-1.21085e-111
2.05604e-81
7.4922e-41
-3.42587e-219
3.3359e-09
6.0525e-43
91.6058
-1.40886e-27
1.9718e-71
-5.75931e-108
1.01879e-143
9.33022e-78
-9.07321e-84
-3.69431e-115
14.5311
3.65631e-15
1.01144e-35
5.40587e-17
-3.34927e-42
-1.14901e-128
-1.66054e-252
-2.6079e-115
5.29852e-26
0.908828
-8.40566e-22
1.44488e-44
-3.50804e-48
-9.6832e-74
1.10226e-15
0.0367098
0.025684
6.78547e-84
-1.29362e-68
2.1411e-28
1.22121e-96
8.58974e-186
-2.19225e-116
6.90558e-14
-3.35345e-104
7.17441e-59
-1.94908e-91
1.91459e-40
3.47511e-08
-3.91419e-97
-4.51853e-116
2.44669e-10
8.78713e-15
-2.85355e-93
-8.26571e-139
-2.01024e-49
0.000726395
1.61289e-25
1.96107e-22
-6.29473e-52
3.09949e-57
0.0649335
8.15361e-80
-7.21842e-22
-7.46167e-127
1.65628e-12
1.1532e-11
-2.02528e-169
2.78544e-139
92.8808
-1.102e-118
7.11995e-73
1.68006e-27
-1.31878e-107
-1.54807e-105
-1.41005e-92
-2.20201e-120
1.16311e-223
1.79946e-17
1.68122e-05
3.21891e-141
0.0187588
-3.93361e-83
-1.39888e-120
1.37863e-12
4.50342e-09
1.59576e-26
-1.9954e-84
-7.59664e-116
-1.8279e-44
152.29
-7.80805e-104
8.81167e-142
-2.45913e-148
-8.87256e-104
4.85328e-59
2.04896e-28
-8.31769e-107
-7.16362e-78
-2.69644e-124
7.39486
8.00017e-09
5.43522e-40
-1.53375e-38
-6.66838e-82
-1.55195e-120
9.82348e-16
1.38161
-1.86593e-72
1.5029e-147
-4.34202e-122
1.30444e-13
-3.98838e-107
-2.20436e-128
2.56067e-08
-3.49049e-85
2.94337e-117
116.719
6.42438e-06
11.2361
2.25681e-15
-1.23672e-106
3.05665e-12
2.09627e-10
0.170366
3.28505e-94
4.06013e-28
-1.65948e-221
0.115783
8.00035e-248
-4.37906e-96
4.65219e-81
-1.2682e-146
1.45352e-40
-9.00054e-92
-4.64713e-105
1.20151e-95
7.21275
3.97106e-14
6.46693e-37
-5.75897e-115
5.12596e-29
19.018
8.4909e-09
7.46256e-43
-1.12471e-50
-5.92193e-97
7.0195e-84
3.56737e-143
2.41068e-109
1.22766e-139
-1.51057e-117
-3.35369e-43
7.47111e-15
1.93666e-16
0.327523
0.000117447
1.36642e-08
4.46315e-24
0.125551
-5.07148e-130
4.05237e-05
-1.85005e-122
0.00174353
4.08335e-09
4.60211e-35
-9.63366e-106
1.34801e-34
1.27427e-22
1.61856e-63
85.7463
1.70224e-12
0.377658
-4.53364e-119
1.07044e-09
3.4078e-07
7.11716e-10
1.66309e-07
8.9291e-11
-3.80955e-116
-7.58869e-96
1.46947e-39
-3.07501e-110
1.86834e-28
-1.24595e-99
9.36255e-38
1.29517e-170
-4.84784e-90
1.38879e-20
2.51421e-30
5.82996e-135
-5.9158e-47
0.941236
88.6985
-1.35249e-147
3.42882e-49
1.94199e-74
1.15725e-10
2.37442e-29
5.23803
4.32494e-05
2.45571e-96
6.09079e-39
2.62418e-07
-6.10261e-24
6.36247e-06
9.82867e-54
9.15867e-12
5.67295e-136
0.195249
1.44522e-08
-5.03235e-137
1.42289e-07
0.165413
2.64464e-45
4.18558
-4.04948e-85
8.32121e-09
8.60204e-78
-2.01266e-152
3.21833e-73
-2.2027e-80
0.0838142
0.000365651
0.0396847
-1.56271e-135
7.25984
8.76755e-36
8.21915e-13
-2.02585e-31
8.91284e-41
1.97745e-49
0.0198394
-1.21588e-83
8.01819e-94
1.41341e-19
4.17432e-09
4.96506e-28
5.20291e-18
-4.471e-57
0.0519127
2.0538e-29
1.23415e-28
2.39267e-09
-9.48932e-171
8.8049e-08
1.37818e-10
5.00903e-08
7.01183e-76
0.000992137
7.0214e-142
3.40311e-29
3.63993e-41
1.47966e-05
3.21898e-71
1.50128e-20
1.65901e-08
77.0295
-1.44435e-105
4.53415e-35
-4.35604e-47
9.49381e-09
1.8553e-18
-4.13307e-95
1.96769e-37
6.33263e-145
13.4185
2.13536e-228
1.03931e-143
1.48162e-190
1.01075e-06
2.94866e-115
5.85347e-37
6.6483
1.74185e-51
8.12402e-58
-2.29546e-109
4.2523e-180
1.11131e-09
2.61246e-146
-5.95806e-41
4.024e-12
-1.10586e-45
3.20141e-06
5.35118e-91
2.94204e-36
1.44036e-07
2.44593e-18
5.83405e-69
88.4442
8.23852e-232
3.88403e-175
-2.62003e-86
226.47
1.22424e-76
1.39382e-70
8.9832e-08
-7.14411e-106
1.94256e-89
1.89141e-13
9.46803e-06
7.16465e-31
0.00930224
-6.09527e-106
-1.47282e-86
1.22961e-40
7.54127e-46
1.39892e-05
-5.16039e-124
1.35687e-66
-1.79016e-54
-1.21344e-17
2.00161e-59
1.91851e-136
4.83197e-39
-8.01705e-19
-1.3182e-200
3.04175e-197
4.31285e-05
1.80941e-30
8.19193e-05
-2.1315e-88
3.00093e-242
-1.19477e-17
1.26618e-06
-3.25893e-128
-2.41536e-102
2.26383e-143
15.1155
-1.68969e-200
5.31212e-32
7.79628e-05
-1.53274e-192
1.69102e-178
1.51412e-18
-1.29942e-155
-4.82104e-198
3.96907e-39
3.33036e-13
-4.15688e-138
1.84182e-21
-1.06547e-148
1.00579e-07
1.23734e-244
1.36951e-07
5.47637e-13
4.36217e-20
-1.77424e-192
6.76764e-15
5.53114
3.09652e-97
8.30946e-48
4.51224e-157
1.64403e-13
6.97556e-150
8.9694e-07
2.92897e-09
-4.47139e-83
1.26652e-186
1.54097e-13
6.41064e-14
4.78737e-45
6.42089e-43
2.47255e-16
-6.13398e-154
2.08379e-15
2.87579e-188
1.52235e-05
1.18857e-08
1.26972e-08
1.73584e-19
-5.61277e-23
12.2031
3.04815e-20
1.43234e-41
1.56789e-14
-6.56131e-99
5.98143e-12
3.08883e-16
-2.28489e-43
7.28865e-77
0.0954281
1.01743e-205
0.0457386
104.957
-1.47885e-109
2.63109e-08
85.3482
1.86854e-34
3.6365e-39
3.53257e-16
-3.44144e-53
3.02097e-142
6.99992e-08
0.0133596
0.81638
-1.38662e-98
7.4923e-15
0.000444569
3.51604e-14
-1.79579e-117
3.41792e-172
1.32859e-30
0.0223503
7.80001e-09
2.93546e-16
-6.09518e-234
-9.67833e-151
1.86713e-14
-2.94657e-105
5.13725e-42
-6.28961e-101
1.54206e-183
2.47918e-07
7.83453e-84
0.000190349
2.76677e-44
5.83764e-164
4.95579e-172
4.74101e-15
-6.15621e-100
1.0525e-33
5.2766e-16
0.819039
-1.73105e-49
-5.60421e-136
2.43108e-06
-9.17773e-94
5.36207e-146
2.10032e-65
8.82041e-14
3.28407e-97
7.44503e-14
6.01103e-44
219.602
1.13335e-14
-8.62212e-128
9.63533e-05
8.90556e-190
5.30119e-09
3.09566e-36
7.06582e-06
0.00476925
-1.25409e-44
0.000157565
2.4698e-162
1.0785e-08
5.83707e-120
2.39204e-50
3.50555e-05
4.26091e-27
1.31792e-05
0.0167638
-1.04513e-19
1.26357e-07
2.58344e-06
-5.53016e-133
-1.43715e-148
2.65068e-188
0.000201638
-3.51486e-24
-2.37399e-131
1.77559e-07
1.80758e-05
2.53892e-36
6.23819e-13
3.20725e-52
-8.11083e-34
0.00283108
-8.71423e-71
2.08769e-28
9.529e-33
1.4237e-221
-3.6186e-220
-3.01633e-133
-1.6051e-98
1.03065e-43
2.11371e-165
2.02426e-84
3.80957e-104
-1.3607e-62
2.12639e-17
-6.45793e-116
1.38499e-06
2.67143e-246
1.94844e-11
4.14683e-06
-4.35296e-127
5.71961e-05
2.18108e-12
6.45645e-06
1.53232e-58
1.29544e-16
-1.48545e-107
1.10953e-36
1.04336e-46
1.23406e-173
-5.82862e-121
-2.67384e-90
-1.53231e-125
2.03602e-193
1.97748e-54
4.50285e-195
-1.44297e-30
1.00618e-22
0.0670738
4.4775e-167
2.26853e-61
8.72659e-164
-2.51946e-104
1.58743e-21
2.18874e-63
-4.25902e-129
124.131
2.36543e-14
1.41679e-30
6.02219e-59
4.47275e-15
1.68937e-23
1.88357e-62
8.25191e-18
1.9194e-13
2.43415e-104
6.32269e-190
-5.92228e-81
1.7017e-07
-3.98736e-147
-1.30378e-133
9.51773e-14
-4.84876e-111
-1.33384e-105
7.53344e-73
-1.57493e-136
0.00114315
1.94432e-165
-3.43043e-135
6.21471e-20
4.01137e-18
6.40761
3.15258e-13
-2.5453e-57
-1.34281e-128
1.07946e-16
-3.65662e-130
2.11344e-26
5.545e-47
1.14825e-105
5.57302e-06
1.21005e-196
1.52965e-21
6.11357e-53
7.59628e-15
-1.4093e-42
7.97186e-199
1.30283e-105
5.38638e-244
1.40196e-24
-2.80259e-149
6.81708e-19
2.72743e-42
-1.59332e-88
-9.16821e-56
6.87651e-38
1.31758e-191
4.37965e-21
1.80295e-21
-1.98751e-99
1.16459e-19
1.1971e-07
9.4916e-182
4.83382e-38
2.01984e-11
4.44268e-13
3.56361e-74
7.59814e-41
1.46769e-39
1.24583e-44
1.88119e-71
6.34818e-15
4.40094e-73
-1.7268e-127
-2.80442e-129
0.0523269
1.99686e-08
7.95943e-05
1.69192e-06
-6.14018e-35
2.14012e-20
1.83008e-42
8.14518e-19
3.94823e-128
3.37056
-2.12948e-104
2.96837e-06
9.10921e-08
-1.09739e-131
-2.58871e-25
9.22369e-09
6.46943e-06
1.277e-40
3.53246e-26
1.1768e-129
1.87145e-213
6.10155e-15
6.1798e-190
5.31507e-169
3.30196e-17
-2.24568e-105
-3.2076e-65
-2.36352e-134
-3.10697e-86
6.25158e-15
11.8207
2.24539e-100
-7.67304e-108
1.68293e-08
-1.02716e-37
5.17775e-11
1.91442e-24
9.0215e-26
-4.79362e-107
3.05634e-37
2.949e-16
6.33152e-17
-4.33734e-30
-2.82957e-155
1.76684e-06
1.69053e-30
2.73074e-19
4.01959e-84
-2.58279e-133
1.34628e-16
3.07842e-98
-1.42469e-184
1.41312e-22
1.96703e-08
-9.8554e-168
4.65805e-21
1.98186e-45
-1.33868e-114
-3.78177e-74
-5.91782e-114
1.35775e-22
-4.88067e-127
-6.33481e-135
1.1294e-42
5.17954e-23
-1.05445e-39
-4.19884e-30
10.3428
4.74462e-107
2.76374e-60
0.381717
1.43227e-32
-2.32327e-115
1.1848e-31
0.00440271
1.58451e-173
-1.5477e-108
5.40891e-185
1.14319e-25
1.3965e-14
7.331e-46
9.21274e-197
-7.79409e-78
5.64991e-64
1.02003e-89
1.93375e-09
-1.52622e-101
5.04938e-196
9.82658e-192
8.37261e-28
2.76322e-41
1.73922e-05
-4.16563e-81
-3.37311e-48
2.10289e-29
6.75391e-15
-1.85043e-146
5.36637e-24
9.05608e-177
7.16783e-169
1.53528e-197
7.01406e-10
-3.62006e-109
5.50945e-24
3.23468e-22
2.72111e-26
5.09604e-16
2.80667e-27
1.60419e-13
1.00673e-25
9.65137e-101
3.81824e-28
-1.69511e-47
2.63204e-34
2.68636e-21
-2.41117e-107
39.6732
5.91775e-17
4.10469e-19
-5.35317e-168
1.47472
1.76534e-15
3.15238e-17
-2.62608e-31
7.52137e-07
1.01185e-62
-3.37473e-103
-9.64373e-88
1.90801e-90
3.81461e-85
4.20787e-18
9.69208e-22
-1.04272e-115
6.46669e-25
3.39984e-91
5.72426e-85
3.00311e-51
-8.30726e-46
1.29454e-69
1.28509e-55
-1.45726e-44
2.8546e-24
7.94813e-26
2.17375e-47
3.34897e-186
-2.52147e-89
-1.80736e-99
6.71505e-11
2.8564e-148
-2.71302e-112
2.79887e-25
1.61114
-2.37356e-126
2.55385e-05
-8.55052e-131
8.18572e-99
2.54651e-40
6.41385e-29
1.01117e-33
1.06679e-144
6.29709e-19
1.31356e-21
1.73112e-11
3.12901e-167
2.26147e-24
3.62352e-41
2.42457e-53
5.85088e-196
-1.69646e-233
1.31084e-27
4.80079e-41
1.01656e-59
55.1654
4.31095e-23
3.43832e-32
-6.82755e-25
1.95662e-43
3.48499e-11
1.22144e-105
1.50846e-46
-6.22719e-75
-4.27139e-87
0.00932944
6.68208e-23
1.14176e-21
1.77123e-35
-7.77411e-140
7.43823e-18
2.95562e-17
0.000108637
-3.16956e-85
2.81729e-32
0.000194928
7.72967e-05
-1.90815e-132
6.67435e-05
2.00062e-50
23.0586
6.85509e-182
1.46294e-24
4.47654e-36
1.49427e-203
7.61402e-15
1.36631e-64
4.05541e-78
4.24475e-09
0.00126248
2.85462e-05
6.35649e-77
1.31315e-26
-6.83645e-182
-9.90534e-100
4.34149e-06
1.31419e-30
6.61711e-77
2.50355e-18
8.8355e-23
1.10126e-27
1.96133e-39
4.51974e-37
2.83601e-22
0.00300898
4.1561e-139
6.37193e-39
2.08848e-46
7.78858e-28
2.2314e-07
2.69669e-23
2.09973e-32
2.7418e-65
3.84611e-185
1.84702e-26
5.03188e-31
3.738e-21
-2.63638e-143
2.15158e-56
2.93562e-24
1.96523e-24
-3.89022e-24
3.65257e-20
1.11649e-71
1.85077e-29
-1.16011e-110
7.18182e-14
1.87101e-52
9.5667e-26
9.43753e-63
1.25453e-75
4.07087e-23
3.8684e-57
2.56107e-65
-4.79801e-80
1.11746e-140
2.28616e-29
9.96276e-51
7.02008e-54
16.9942
0.0103346
-1.89101e-110
2.13664e-78
1.01726e-37
2.21637e-40
4.34293e-197
4.27315e-30
-4.06015e-36
2.75005e-30
-4.64813e-183
1.27512e-13
8.15227e-19
7.06832e-16
5.74495e-30
-1.02711e-169
-7.04588e-94
3.98447e-61
3.79078e-29
6.54192e-09
15.197
-1.07781e-135
5.24037e-67
8.35356e-71
4.42676e-07
0.000506024
5.29072e-05
1.42741e-51
9.09888e-22
-2.32591e-181
3.41996e-38
-4.19329e-52
-3.90371e-134
1.35323e-22
8.90055e-40
1.01316e-34
1.50318e-20
-2.25504e-71
7.76876e-41
1.02899e-31
2.22443e-169
-1.01309e-254
1.05971e-42
-2.00305e-65
2.18832e-08
3.46527e-47
-5.83569e-23
1.87067e-13
-6.30409e-41
-1.62972e-135
-1.24374e-58
1.96273e-19
-6.8406e-140
0.239324
0.0510133
-3.89834e-113
7.63024e-177
-1.49306e-105
7.2294e-139
1.50538e-205
1.86616e-61
2.08013e-65
-1.56777e-32
2.04149e-39
1.06062e-30
-2.70273e-48
2.1664e-05
1.34706e-19
4.58657e-32
7.20498e-40
1.62111e-50
4.98643e-35
1.71443e-169
-1.19907e-73
7.70392e-67
-8.67035e-32
-4.97226e-26
1.55915e-09
3.63843e-208
-6.45413e-27
2.87743e-37
1.09903e-48
9.74679e-23
-3.31946e-40
1.01847e-24
0.00368783
1.11539e-37
2.40437e-18
2.38895e-49
-4.82263e-87
3.31036e-40
1.24472e-34
-1.93277e-140
1.57998e-41
0.026411
-2.15809e-77
0.000215425
-2.56049e-133
3.31483e-34
-2.67209e-90
6.57735e-73
3.13568e-30
-7.57873e-21
5.94321e-22
1.84339e-70
1.19814e-43
4.77651e-49
5.01354e-18
1.02955e-12
-8.43416e-46
8.65761e-09
2.71121e-204
1.40343e-39
7.52
1.41928e-14
4.08058e-72
0.383101
1.29704e-19
8.95784e-67
2.01806e-156
9.51527e-11
5.99531e-35
2.30127e-50
3.64544e-36
-2.08605e-152
3.40686e-21
-3.24276e-79
3.43592e-14
2.25869e-36
7.76834e-32
-4.09452e-30
-8.55862e-251
-3.04834e-102
1.65921e-47
-6.12799e-86
-1.90182e-88
2.47369e-56
2.87348e-75
1.91713e-62
-5.6351e-25
5.49915e-28
8.31483e-194
7.6801e-16
-1.4212e-100
1.11458e-168
-1.15968e-27
-1.10699e-127
4.85979e-49
3.18014e-50
-4.29128e-142
-3.33042e-138
2.06034e-83
1.2239e-24
8.91224e-62
1.55015e-32
6.48402e-36
-1.16054e-26
1.32603e-25
4.61872e-51
5.10253e-43
1.30647e-38
-2.13468e-221
8.69588e-57
-2.94843e-76
1.01056e-51
0.231278
5.63588e-27
-1.20375e-70
6.88261e-42
-8.17935e-64
1.89701e-66
2.34591e-72
5.04753e-63
2.25028e-67
-1.35647e-32
7.03917e-38
4.50144e-170
8.62297e-26
-1.36702e-49
6.16714e-24
3.58969e-157
-3.18934e-28
4.23164e-05
-8.98974e-97
-3.8091e-40
2.1527e-18
1.12142e-118
1.19804e-26
1.11465e-13
1.94025e-37
-7.41266e-38
9.17293e-15
1.76682e-42
-8.99254e-51
6.91787e-41
4.98465e-25
1.45028e-124
1.21517e-72
3.10848e-212
-2.91379e-100
-3.34775e-157
3.84068e-41
1.81129e-38
1.79364e-26
-7.27361e-43
14.04
-1.24098e-20
31.5956
1.62444e-36
4.22988e-10
10.2339
2.92858e-16
23.0646
1.39471e-70
1.51232e-42
6.04146e-48
2.42003e-53
1.00782e-45
1.39161e-101
3.239e-47
9.08061e-92
9.13911e-159
-4.46755e-52
3.82394
3.34284e-43
7.22999e-23
8.69344e-46
1.10852e-84
2.42315e-38
2.27859e-38
-8.12485e-110
3.09385e-44
-4.59396e-82
1.38712e-24
3.98768e-40
1.10487e-41
-1.39025e-42
0.319107
4.34594e-08
7.11614e-22
8.54017e-51
69.8624
9.28058e-45
1.0654e-55
9.74478e-29
-2.06298e-29
-2.96983e-59
5.28684e-17
9.59161e-138
-2.6706e-37
-9.86462e-28
3.20788e-43
-1.29805e-44
3.91174e-75
2.26459e-40
-3.91778e-34
8.08646e-69
3.10942e-28
2.34761e-48
8.08667e-62
-5.28267e-135
4.40651e-54
2.05989e-39
1.11922e-80
1.12475e-49
1.12319e-61
-4.40675e-102
-1.00383e-33
-1.35611e-80
5.20879e-16
1.27526e-46
-1.43021e-64
-8.25275e-143
-3.84392e-99
1.67565e-15
3.87829e-40
9.07145e-202
1.36794e-45
7.58741
1.46041e-23
1.11804e-76
5.99121e-50
0.0990454
0.724234
37.8918
3.74503e-87
7.20146e-89
-3.37976e-107
5.40942e-61
1.06154e-29
0.00226865
0.0251603
4.58584e-13
4.41632e-20
3.37887e-75
1.98125e-153
1.48749e-150
-1.38268e-27
-1.52906e-75
1.88511e-25
-5.79411e-90
6.32403e-06
-3.51678e-87
1.62375e-43
2.87302e-12
-4.04646e-42
2.97842e-21
-1.08319e-111
2.96658e-42
-3.72082e-167
2.93364e-18
1.65851e-20
1.15331e-67
-7.02631e-159
2.67037e-68
-5.15463e-26
8.98409e-104
-4.73823e-45
0.0949816
4.48331e-177
2.17883e-66
-1.79177e-38
-5.74062e-39
5.1389e-48
-5.0681e-117
-9.04807e-104
5.07043e-103
2.68091e-201
-2.15975e-150
1.01156e-62
6.56185e-28
3.77723e-169
6.09432e-74
-7.50038e-114
150.67
-1.89833e-28
9.55632e-102
6.60472e-210
3.43444e-24
2.1916e-44
2.92221e-21
-8.39828e-47
1.82173e-44
6.59757e-161
-1.23524e-100
7.38611e-17
9.09342e-223
2.64268e-45
9.93761e-29
9.19554e-52
1.18617e-145
1.36178e-39
-4.40804e-196
7.49442e-60
6.25672e-62
3.18907e-102
2.56814e-08
5.77741e-55
1.09722e-65
3.13561e-63
-5.18987e-39
-4.40707e-50
5.61939e-173
7.84105e-207
1.17338e-80
8.34778e-29
2.24569e-41
9.90527e-67