/*--------------------------------*- C++ -*----------------------------------*\
  =========                 |
  \\      /  F ield         | OpenFOAM: The Open Source CFD Toolbox
   \\    /   O peration     | Website:  https://openfoam.org
    \\  /    A nd           | Version:  7
     \\/     M anipulation  |
\*---------------------------------------------------------------------------*/
FoamFile
{
    version     2.0;
    format      ascii;
    class       volVectorField;
    location    "18";
    object      U;
}
// * * * * * * * * * * * * * * * * * * * * * * * * * * * * * * * * * * * * * //

dimensions      [0 1 -1 0 0 0 0];

internalField   nonuniform List<vector> 
26800
(
(-0.0744375 0.00422385 4.03481e-20)
(-0.133481 0.00321404 6.32773e-20)
(-0.190964 0.00330529 6.74428e-21)
(-0.231498 0.0027123 1.69514e-20)
(-0.262392 0.0029714 -9.29934e-20)
(-0.296636 0.00317251 2.39045e-20)
(-0.326935 0.00355702 5.74036e-20)
(-0.36026 0.00370612 5.63958e-20)
(-0.388969 0.00341164 4.2766e-20)
(-0.412982 0.00223398 1.35798e-21)
(-0.42065 -0.000340322 6.06498e-21)
(-0.402781 -0.00462061 -2.58982e-21)
(-0.350237 -0.0101406 -1.59784e-22)
(-0.268639 -0.0148511 1.09029e-20)
(-0.16868 -0.0185078 1.82095e-21)
(-0.049679 -0.0195987 -6.94404e-21)
(0.050474 -0.0195324 -2.46669e-21)
(0.165246 -0.0190357 -2.21208e-22)
(0.248188 -0.0164879 -2.69022e-22)
(0.336771 -0.0157541 -7.86557e-22)
(-0.0746935 0.0126583 -1.1263e-19)
(-0.132956 0.00961729 -1.96279e-19)
(-0.189437 0.0098749 9.05498e-20)
(-0.228565 0.00805826 -1.10909e-19)
(-0.257476 0.00878298 9.67805e-20)
(-0.288994 0.00932245 -1.92149e-21)
(-0.315601 0.0104089 -1.14677e-19)
(-0.344051 0.010801 -1.04929e-19)
(-0.36654 0.00989417 -6.91382e-20)
(-0.38303 0.00638421 1.64284e-20)
(-0.381976 -0.00127061 -2.51526e-20)
(-0.354644 -0.0140161 -4.94657e-21)
(-0.292619 -0.0302166 -5.7656e-21)
(-0.203095 -0.0440119 4.82141e-20)
(-0.0968777 -0.0546212 2.26655e-21)
(0.02539 -0.0573531 1.36294e-20)
(0.125784 -0.0570914 -1.43427e-21)
(0.244853 -0.0551585 2.53068e-21)
(0.321539 -0.0478522 -1.18065e-21)
(0.415995 -0.0451982 2.03527e-21)
(-0.0752057 0.0210041 -1.3649e-19)
(-0.131913 0.0159171 6.495e-20)
(-0.186408 0.0163308 5.71051e-20)
(-0.22276 0.0132421 -5.05268e-20)
(-0.247783 0.0143554 1.64165e-19)
(-0.274002 0.0151218 -1.29456e-19)
(-0.293504 0.0167611 1.46598e-19)
(-0.312672 0.0172291 1.42012e-19)
(-0.32348 0.0155719 1.10691e-20)
(-0.326103 0.00967612 -2.00267e-21)
(-0.309376 -0.0029626 3.4159e-20)
(-0.2656 -0.0239125 4.77834e-20)
(-0.187927 -0.0499291 -4.41931e-20)
(-0.0864406 -0.0717323 -1.3081e-19)
(0.0285444 -0.0879438 1.32629e-20)
(0.153577 -0.0914508 -1.55725e-20)
(0.253418 -0.0906353 5.79234e-21)
(0.373491 -0.0862359 -2.4398e-21)
(0.441656 -0.074939 8.09942e-21)
(0.539323 -0.0694772 2.36345e-21)
(-0.0759747 0.0292038 2.9274e-19)
(-0.130372 0.0220453 -9.49324e-20)
(-0.18192 0.0225998 -2.36645e-19)
(-0.214195 0.0181625 1.40936e-19)
(-0.233571 0.0195432 -8.60225e-20)
(-0.252201 0.020363 2.78694e-19)
(-0.261687 0.0223247 1.25626e-19)
(-0.267995 0.0226161 6.94058e-20)
(-0.262943 0.020017 -1.27027e-19)
(-0.247237 0.0117075 2.36233e-20)
(-0.2105 -0.005643 9.49093e-20)
(-0.146673 -0.0342239 1.24345e-20)
(-0.0513513 -0.0689204 1.40575e-19)
(0.0615651 -0.096553 1.57734e-19)
(0.183321 -0.116828 9.46296e-21)
(0.306201 -0.120524 1.12679e-20)
(0.403482 -0.118427 1.03147e-21)
(0.515176 -0.110758 -5.32953e-22)
(0.575068 -0.0963262 -4.53086e-21)
(0.66664 -0.087435 -8.49682e-21)
(-0.0770007 0.0372017 1.24038e-21)
(-0.128356 0.0279351 4.7582e-19)
(-0.176033 0.0286126 2.09144e-19)
(-0.203023 0.0227277 -2.91432e-19)
(-0.215183 0.0242203 3.51716e-20)
(-0.2243 0.024875 -2.3359e-19)
(-0.221497 0.0268709 -3.49866e-19)
(-0.212383 0.0266775 -3.62356e-19)
(-0.188805 0.0229272 -1.24906e-20)
(-0.152336 0.012243 -3.90596e-20)
(-0.0937598 -0.00949195 -4.53984e-19)
(-0.00911725 -0.0447082 5.03057e-20)
(0.102865 -0.0861328 -5.34037e-20)
(0.224143 -0.117854 -1.77558e-19)
(0.347229 -0.140289 1.12734e-20)
(0.461828 -0.143623 2.09876e-20)
(0.552346 -0.13943 -1.29742e-20)
(0.647139 -0.128351 2.61885e-21)
(0.698134 -0.111628 -2.78431e-21)
(0.774791 -0.0992851 5.46904e-21)
(-0.0782843 0.0449449 -4.04569e-19)
(-0.125898 0.0335214 -7.76079e-19)
(-0.168819 0.0343044 -5.66198e-19)
(-0.189421 0.0268582 7.49467e-19)
(-0.193009 0.0282854 2.47203e-19)
(-0.191078 0.0285331 -2.81012e-20)
(-0.174376 0.0302468 3.51085e-19)
(-0.148298 0.0292404 1.38042e-19)
(-0.104978 0.0241443 2.67417e-19)
(-0.0471174 0.0112318 -3.10363e-19)
(0.0332764 -0.0147261 1.29762e-19)
(0.137752 -0.0549789 -4.14581e-20)
(0.263159 -0.10081 5.67638e-20)
(0.388502 -0.135294 2.13985e-19)
(0.506541 -0.157732 5.61817e-20)
(0.607637 -0.160073 2.93066e-21)
(0.685785 -0.153416 1.66928e-20)
(0.759439 -0.139341 4.33403e-21)
(0.799709 -0.121171 5.75899e-22)
(0.857018 -0.105963 -2.88269e-21)
(-0.0798258 0.0523836 3.71588e-19)
(-0.123032 0.0387407 8.60288e-19)
(-0.160356 0.0396156 5.59642e-19)
(-0.173568 0.030489 -3.3028e-19)
(-0.16743 0.0316658 -3.36399e-19)
(-0.153275 0.0312657 3.03407e-19)
(-0.121649 0.0323861 -1.53306e-19)
(-0.0779075 0.0302621 5.29318e-20)
(-0.014784 0.0236414 1.63208e-19)
(0.0638095 0.00851099 4.77121e-19)
(0.164754 -0.0210867 2.53959e-19)
(0.287017 -0.0647208 -3.39619e-19)
(0.421592 -0.113026 6.05122e-20)
(0.545548 -0.148175 -1.20305e-19)
(0.652243 -0.169023 -5.71274e-20)
(0.735803 -0.169784 -3.47159e-20)
(0.796975 -0.160857 3.03604e-20)
(0.8489 -0.144572 -2.93313e-20)
(0.877018 -0.125766 6.84677e-22)
(0.915007 -0.108668 7.02832e-21)
(-0.0816252 0.0594724 6.46367e-19)
(-0.119796 0.0435318 1.87397e-19)
(-0.15072 0.0444917 -5.79857e-19)
(-0.155625 0.0335704 -2.31416e-19)
(-0.138776 0.0343193 4.37669e-19)
(-0.111488 0.0330592 -4.9933e-19)
(-0.0643252 0.0333148 1.99128e-19)
(-0.00275928 0.0298388 2.10457e-19)
(0.0794891 0.0215164 -6.2964e-19)
(0.177673 0.0041384 -1.70752e-19)
(0.297337 -0.0281619 -5.10581e-20)
(0.43424 -0.0737374 2.22147e-19)
(0.572413 -0.12237 -2.27139e-19)
(0.688644 -0.156221 7.66369e-20)
(0.778589 -0.174446 -1.06551e-19)
(0.841918 -0.173322 1.13776e-20)
(0.88404 -0.162757 -6.24483e-20)
(0.916056 -0.14523 1.95231e-20)
(0.93211 -0.126559 -6.44899e-21)
(0.953765 -0.108633 -9.0565e-22)
(-0.083682 0.0661698 -3.68166e-19)
(-0.116229 0.0478353 -1.01922e-18)
(-0.139978 0.0488827 6.75753e-19)
(-0.135711 0.0360693 5.18024e-19)
(-0.107269 0.036235 -4.94623e-19)
(-0.0660809 0.0339599 2.48542e-19)
(-0.00295689 0.0331512 -5.39018e-19)
(0.0764146 0.0282113 -3.72139e-19)
(0.176912 0.0180921 3.30075e-19)
(0.293383 -0.00131625 -2.33567e-19)
(0.429577 -0.0355161 2.66465e-19)
(0.576254 -0.0814474 1.63871e-19)
(0.710943 -0.128352 -2.67655e-19)
(0.812983 -0.159427 -1.6261e-19)
(0.882409 -0.174625 6.3165e-20)
(0.92475 -0.171754 9.76693e-20)
(0.948476 -0.160423 7.03438e-21)
(0.963894 -0.142608 -9.63618e-21)
(0.969499 -0.12475 -2.7176e-21)
(0.978989 -0.106877 -8.14507e-22)
(-0.0859953 0.0724394 -4.63031e-19)
(-0.112365 0.0515939 1.11513e-18)
(-0.128182 0.0527423 -5.83261e-19)
(-0.113884 0.0379694 1.47459e-19)
(-0.0729885 0.0374312 -6.39851e-19)
(-0.0171205 0.0340747 1.71795e-19)
(0.0624346 0.0321101 3.92169e-19)
(0.159701 0.0257639 -3.17792e-20)
(0.277681 0.0139423 -6.29639e-20)
(0.411053 -0.00715117 5.77923e-19)
(0.560363 -0.0422817 -1.25789e-19)
(0.70963 -0.0869972 -3.89265e-19)
(0.832903 -0.130602 4.75453e-19)
(0.915498 -0.158141 1.19833e-20)
(0.963011 -0.170515 2.11501e-19)
(0.985823 -0.166408 -5.52749e-20)
(0.993871 -0.1552 6.80298e-20)
(0.996646 -0.137875 7.5012e-21)
(0.994248 -0.121341 -5.79419e-21)
(0.995522 -0.104098 -4.17473e-21)
(-0.0885629 0.0782493 2.20031e-19)
(-0.108234 0.0547524 -1.57618e-18)
(-0.115357 0.0560264 1.19972e-18)
(-0.0901136 0.039273 -1.05831e-18)
(-0.0358298 0.0379574 7.68495e-19)
(0.0356637 0.033572 -9.64964e-20)
(0.132333 0.0305052 -1.3303e-20)
(0.247748 0.0229986 -1.73684e-19)
(0.382491 0.00978222 -1.37721e-19)
(0.530593 -0.0124638 -3.90043e-19)
(0.687172 -0.0474337 5.05378e-19)
(0.829993 -0.0896867 4.60666e-19)
(0.934781 -0.129162 9.4896e-20)
(0.995229 -0.153138 1.73527e-19)
(1.02205 -0.163293 -4.13805e-20)
(1.02857 -0.158613 3.37158e-20)
(1.02466 -0.148244 7.5006e-21)
(1.01861 -0.131927 5.79692e-21)
(1.01068 -0.11703 3.49667e-20)
(1.0068 -0.100718 -1.25615e-20)
(-0.0913818 0.0835731 -4.61702e-19)
(-0.103857 0.0572581 -7.5076e-20)
(-0.101499 0.0586918 -9.79817e-19)
(-0.0642671 0.0400043 7.17056e-19)
(0.00451826 0.0379159 -1.13449e-20)
(0.092872 0.032674 -6.81907e-19)
(0.207571 0.0287455 -3.19863e-19)
(0.341277 0.0204916 3.38401e-19)
(0.491463 0.00638358 1.19526e-19)
(0.650077 -0.0163436 2.49475e-19)
(0.80543 -0.0502222 -1.60933e-19)
(0.932888 -0.0893365 -2.04873e-19)
(1.01486 -0.124592 -2.23038e-19)
(1.05355 -0.145476 -2.41161e-19)
(1.06296 -0.154132 -1.54518e-19)
(1.05721 -0.149477 -1.11546e-19)
(1.04507 -0.140406 -3.86705e-20)
(1.03335 -0.125368 1.41126e-20)
(1.02193 -0.112252 -1.63719e-20)
(1.01499 -0.096977 -3.96937e-21)
(-0.0944471 0.0883891 4.51872e-19)
(-0.0992418 0.0590611 3.57986e-19)
(-0.0865576 0.0606935 1.24043e-18)
(-0.0360808 0.0402076 4.51909e-19)
(0.0485782 0.0374606 -2.83891e-19)
(0.155334 0.0316795 8.60613e-19)
(0.288997 0.0273265 3.86113e-19)
(0.440391 0.0188395 -4.2572e-19)
(0.603024 0.00442872 3.29341e-19)
(0.765121 -0.0181989 2.783e-20)
(0.90973 -0.0504598 -3.38196e-19)
(1.01546 -0.0863383 1.57206e-19)
(1.0739 -0.117771 1.76346e-19)
(1.09369 -0.136222 1.87699e-19)
(1.08989 -0.143995 1.47538e-19)
(1.07579 -0.139797 9.10017e-20)
(1.05851 -0.132236 6.02615e-20)
(1.04346 -0.118566 -6.85516e-20)
(1.03001 -0.107255 3.05007e-20)
(1.02133 -0.0930165 -5.50879e-20)
(-0.0977522 0.0926805 -6.24338e-20)
(-0.0943774 0.0601153 9.70033e-19)
(-0.0704261 0.0619814 -8.47104e-19)
(-0.00514377 0.0399544 -1.38287e-18)
(0.0970852 0.0368011 -2.35343e-19)
(0.223935 0.0309796 -8.50743e-19)
(0.376977 0.0267875 -5.03032e-19)
(0.543857 0.0185709 1.30602e-19)
(0.71339 0.00430998 -2.5701e-20)
(0.869999 -0.0179519 -6.30806e-19)
(0.995999 -0.0484956 1.85759e-19)
(1.07755 -0.0814141 -1.32278e-19)
(1.11474 -0.109603 -4.47051e-19)
(1.11974 -0.126242 -2.11886e-19)
(1.10681 -0.13356 -1.03219e-19)
(1.08757 -0.130079 -1.04909e-19)
(1.06743 -0.124056 1.25868e-19)
(1.05062 -0.111737 5.5647e-20)
(1.03614 -0.102181 -3.69374e-20)
(1.02652 -0.0889213 4.46739e-20)
(-0.101288 0.0964352 3.17581e-19)
(-0.0892292 0.0603798 -3.04311e-19)
(-0.0529231 0.0625078 -2.91815e-19)
(0.0291151 0.0393631 5.96634e-19)
(0.15092 0.0362279 3.69403e-19)
(0.299315 0.0310254 5.13636e-20)
(0.470827 0.0276178 -6.99416e-20)
(0.648663 0.0199965 3.50104e-19)
(0.817266 0.00599074 3.80458e-19)
(0.959826 -0.015969 -4.99501e-19)
(1.06293 -0.0449501 -3.38045e-20)
(1.12139 -0.0753111 2.97398e-19)
(1.14126 -0.100814 5.78861e-20)
(1.1356 -0.116136 1.56805e-19)
(1.11693 -0.123245 -3.04941e-20)
(1.09491 -0.120611 -1.32705e-19)
(1.07347 -0.11604 -7.2214e-20)
(1.05592 -0.105003 3.23675e-20)
(1.04102 -0.0971077 -1.25071e-20)
(1.03093 -0.0847465 -4.86734e-20)
(-0.105042 0.0996444 -6.71934e-20)
(-0.0837297 0.0598228 5.08585e-19)
(-0.0337801 0.0622621 4.8445e-19)
(0.0674353 0.0385836 -3.26006e-19)
(0.210959 0.0361209 -1.20973e-19)
(0.38146 0.0322755 -1.1538e-19)
(0.568405 0.0301226 4.43611e-19)
(0.750328 0.0230729 1.94059e-19)
(0.909567 0.00906069 -2.33854e-19)
(1.0322 -0.0128103 -3.03412e-19)
(1.11188 -0.0404386 -1.74038e-19)
(1.15052 -0.0686211 2.27064e-19)
(1.15729 -0.0919027 1.90831e-20)
(1.1445 -0.106265 7.38663e-20)
(1.12262 -0.11328 1.65507e-19)
(1.0994 -0.111544 3.1761e-19)
(1.07765 -0.108272 7.8645e-20)
(1.05999 -0.0984332 -1.07916e-19)
(1.04507 -0.0920809 5.45889e-20)
(1.03476 -0.0805302 4.88282e-21)
(-0.108998 0.102302 -8.49227e-19)
(-0.0777696 0.0584317 -9.25988e-20)
(-0.0126076 0.0612492 2.51116e-19)
(0.110668 0.0378391 4.68309e-19)
(0.277823 0.0369386 4.81545e-19)
(0.469283 0.0350923 1.016e-18)
(0.666156 0.0342994 -9.12318e-19)
(0.844044 0.0274081 -1.15646e-18)
(0.987048 0.0129586 2.25096e-19)
(1.08741 -0.00899219 1.17362e-18)
(1.14577 -0.0354304 1.38058e-19)
(1.16859 -0.0617433 -7.36068e-19)
(1.16604 -0.08317 -1.28968e-19)
(1.14882 -0.0968209 -2.40467e-19)
(1.12548 -0.103777 -3.89929e-21)
(1.10209 -0.102944 -4.82822e-19)
(1.08063 -0.100784 6.25837e-20)
(1.06323 -0.0920684 6.94675e-20)
(1.04849 -0.087125 -2.61279e-20)
(1.03812 -0.0763012 6.87e-20)
(-0.113134 0.104405 6.31866e-19)
(-0.0711883 0.0562157 -9.95631e-20)
(0.0111611 0.0594881 -1.41001e-18)
(0.159696 0.037467 3.71033e-19)
(0.351526 0.0391468 7.53265e-19)
(0.560415 0.0396078 -6.68081e-19)
(0.759798 0.039813 1.47553e-18)
(0.926077 0.0324398 -9.32489e-20)
(1.04887 0.017194 -1.08218e-19)
(1.12755 -0.00487996 -1.24589e-18)
(1.16794 -0.0302328 1.04186e-19)
(1.1788 -0.0549195 2.09028e-19)
(1.16992 -0.0747809 2.83672e-19)
(1.15022 -0.0878873 4.12696e-20)
(1.12657 -0.0947756 -8.01666e-20)
(1.1036 -0.0948264 3.20664e-19)
(1.08279 -0.0935798 6.34988e-20)
(1.06584 -0.0859336 -2.66149e-20)
(1.05141 -0.0822528 6.30375e-22)
(1.04107 -0.0720828 -3.72312e-20)
(-0.117422 0.105946 7.66784e-20)
(-0.0637367 0.0531606 -5.29245e-19)
(0.0382517 0.0571349 1.63594e-18)
(0.215268 0.0378903 -2.48337e-19)
(0.431126 0.0430905 -1.64655e-18)
(0.651454 0.0456412 1.49503e-18)
(0.845408 0.0461178 -1.1412e-18)
(0.994599 0.0376534 2.99268e-19)
(1.09612 0.0214466 -1.34241e-19)
(1.15543 -0.000691743 6.28396e-19)
(1.18146 -0.0250293 -8.2709e-19)
(1.18361 -0.0482828 1.90512e-19)
(1.17067 -0.0668119 -1.47364e-19)
(1.14983 -0.0794809 3.27016e-19)
(1.12656 -0.0862784 2.80777e-19)
(1.10436 -0.0871823 1.0783e-19)
(1.08437 -0.0866512 -1.49888e-19)
(1.06798 -0.0800454 9.45014e-20)
(1.05393 -0.0774689 6.76748e-20)
(1.04366 -0.0678954 -7.32608e-21)
(-0.121828 0.106917 -4.07265e-19)
(-0.0550549 0.0492727 6.63957e-19)
(0.0695895 0.0545059 -8.61682e-21)
(0.277728 0.0395643 -1.01393e-19)
(0.514578 0.0488547 -6.83726e-19)
(0.738669 0.0527401 1.39184e-18)
(0.920341 0.052657 -1.03473e-19)
(1.04961 0.0427032 7.04446e-19)
(1.13089 0.0255525 -2.17074e-19)
(1.17386 0.00345617 -4.40595e-19)
(1.18882 -0.0199219 4.11957e-19)
(1.18485 -0.041898 -4.75779e-19)
(1.16946 -0.0592864 2.28499e-20)
(1.14836 -0.0715833 1.6779e-19)
(1.12587 -0.07827 -2.17943e-19)
(1.1046 -0.0799863 -3.18136e-19)
(1.08552 -0.0799847 1.18056e-19)
(1.06972 -0.0744151 -1.43899e-19)
(1.05607 -0.0727716 -8.78773e-20)
(1.04593 -0.0637582 -9.79241e-21)
(-0.126313 0.107297 3.6676e-21)
(-0.0446863 0.0446393 -7.85971e-19)
(0.106253 0.0520624 -2.27334e-19)
(0.346708 0.0428728 3.12502e-19)
(0.598963 0.056201 1.69451e-18)
(0.818866 0.0603392 -9.69639e-19)
(0.983521 0.0590125 1.22797e-18)
(1.09234 0.0474157 -8.1978e-19)
(1.15555 0.0294503 9.60556e-20)
(1.18525 0.00750776 7.38603e-19)
(1.19191 -0.0149619 3.92426e-19)
(1.18379 -0.0357891 -1.94467e-19)
(1.16707 -0.0521987 -3.06606e-20)
(1.14627 -0.0641589 -1.86142e-19)
(1.12476 -0.0707279 1.33674e-19)
(1.10447 -0.0732049 -2.85352e-20)
(1.08634 -0.0735684 -8.27355e-20)
(1.07111 -0.0690492 5.0346e-20)
(1.05791 -0.0681537 7.14874e-20)
(1.0479 -0.0596907 -4.47316e-20)
(-0.130823 0.107054 -3.32283e-19)
(-0.0320327 0.0394093 2.49257e-19)
(0.149293 0.0504478 -2.44973e-18)
(0.420916 0.0479867 6.65304e-19)
(0.681073 0.064639 -1.27537e-18)
(0.88997 0.0679324 1.21599e-18)
(1.03518 0.0649464 4.88111e-19)
(1.12456 0.0517366 -6.25445e-19)
(1.17232 0.0331323 2.42369e-19)
(1.19154 0.0114403 -6.94251e-19)
(1.19213 -0.0101702 6.83507e-19)
(1.1813 -0.0299583 -1.08551e-19)
(1.16402 -0.0455267 4.43754e-19)
(1.14384 -0.0571667 -2.61557e-19)
(1.12337 -0.0636277 4.42699e-20)
(1.10408 -0.0668004 1.05233e-19)
(1.08687 -0.0673945 -9.25024e-20)
(1.0722 -0.0639484 1.16503e-19)
(1.05945 -0.0636048 9.49859e-21)
(1.04961 -0.0557151 7.94481e-20)
(-0.135297 0.106134 1.48115e-18)
(-0.0163279 0.0338193 7.52698e-19)
(0.199452 0.0504103 1.73441e-18)
(0.498185 0.0547718 -1.72764e-19)
(0.758106 0.0735958 -3.2206e-19)
(0.951126 0.0751686 -1.48144e-18)
(1.07635 0.070365 -8.25459e-19)
(1.14817 0.0556766 7.35741e-20)
(1.18311 0.0366157 -2.42498e-20)
(1.19422 0.0152489 2.64069e-19)
(1.19047 -0.00555065 -4.10604e-19)
(1.17797 -0.0243964 -2.16872e-19)
(1.16062 -0.0392411 -4.69894e-19)
(1.14122 -0.0505662 -6.84663e-20)
(1.12179 -0.0569449 -1.01599e-19)
(1.10349 -0.0607336 1.31102e-19)
(1.08715 -0.0614585 -1.3317e-19)
(1.07301 -0.0591073 -1.35714e-19)
(1.06075 -0.0591147 -1.02532e-19)
(1.05107 -0.0518576 -1.20577e-20)
(-0.139657 0.104454 -1.43441e-18)
(0.00335702 0.0282508 -1.65748e-19)
(0.256824 0.0526091 -1.4559e-18)
(0.575841 0.0628251 -1.78393e-18)
(0.828111 0.082577 -8.33039e-19)
(1.00245 0.0818584 2.16776e-18)
(1.10844 0.075264 -6.40156e-19)
(1.16492 0.0592756 1.33193e-18)
(1.18943 0.0399267 2.78728e-19)
(1.19439 0.0189373 3.93543e-20)
(1.18761 -0.00109823 3.93955e-20)
(1.17416 -0.0190897 3.83858e-19)
(1.15705 -0.0333099 3.64603e-19)
(1.13852 -0.0443214 -6.18017e-20)
(1.1201 -0.0506554 1.00426e-19)
(1.10275 -0.0549653 -4.14583e-20)
(1.08722 -0.0557598 2.03957e-19)
(1.07358 -0.0545151 7.52933e-20)
(1.06181 -0.0546763 -9.70871e-21)
(1.0523 -0.0481459 -2.4374e-20)
(-0.143801 0.101884 6.93595e-19)
(0.0280601 0.0232859 -3.39756e-19)
(0.320598 0.0573789 2.64526e-19)
(0.65125 0.0716228 1.72701e-18)
(0.890092 0.0912428 1.63144e-19)
(1.04465 0.0879322 -1.01016e-18)
(1.1329 0.0796845 -3.81266e-19)
(1.1763 0.0625825 -6.61096e-19)
(1.19249 0.0430929 -4.94801e-19)
(1.19285 0.0225132 2.14699e-19)
(1.18402 0.0031961 1.14189e-20)
(1.17013 -0.0140232 -2.61674e-19)
(1.15344 -0.0277011 -2.86944e-19)
(1.1358 -0.038402 1.51306e-19)
(1.11831 -0.0447345 -8.36427e-20)
(1.10187 -0.049458 2.23423e-19)
(1.08708 -0.0503022 -1.68657e-20)
(1.07394 -0.0501569 8.75873e-22)
(1.06267 -0.050283 1.46898e-19)
(1.05331 -0.0446022 -1.30376e-20)
(-0.147595 0.0982491 6.51639e-19)
(0.058808 0.0197166 2.21838e-19)
(0.389039 0.0645787 1.31137e-18)
(0.722281 0.0806806 -1.18194e-18)
(0.94384 0.0994055 -4.14125e-20)
(1.07876 0.0933934 -3.77069e-19)
(1.1511 0.0836863 5.84422e-19)
(1.18355 0.0656464 7.44031e-19)
(1.19319 0.0461398 -1.7524e-19)
(1.19018 0.0259855 -5.95274e-19)
(1.18001 0.00734239 -1.76469e-19)
(1.166 -0.00918189 3.47357e-19)
(1.14986 -0.0223842 -1.70232e-19)
(1.13307 -0.0327834 -4.60093e-19)
(1.11646 -0.0391554 -4.68036e-20)
(1.10088 -0.0441779 5.8718e-20)
(1.08676 -0.0450952 -8.07537e-20)
(1.07411 -0.046012 -3.53753e-20)
(1.06334 -0.0459224 4.75303e-20)
(1.0541 -0.0412354 1.26416e-20)
(-0.150885 0.0933696 -1.87906e-18)
(0.0964573 0.0184197 -1.59454e-18)
(0.459793 0.0736363 8.13805e-19)
(0.787521 0.0896382 1.18347e-18)
(0.989678 0.106988 -1.6266e-19)
(1.10588 0.0982836 5.50641e-19)
(1.16425 0.0873326 8.54698e-19)
(1.18766 0.0685116 -2.42509e-19)
(1.19222 0.0490896 7.72311e-19)
(1.18679 0.0293626 7.64021e-19)
(1.17579 0.0113502 4.1617e-19)
(1.16188 -0.00455138 7.27571e-20)
(1.14632 -0.0173318 6.94846e-20)
(1.13035 -0.0274462 5.25967e-19)
(1.11457 -0.0338889 -1.57217e-19)
(1.0998 -0.0390989 -2.71861e-19)
(1.08628 -0.0401537 1.35507e-19)
(1.07413 -0.0420481 1.45846e-19)
(1.0638 -0.0415694 -6.8877e-20)
(1.05464 -0.0380505 -6.47496e-20)
(-0.15349 0.0870656 6.36442e-19)
(0.141401 0.020188 1.35289e-18)
(0.530379 0.0837817 7.18777e-19)
(0.846253 0.0982662 -1.89692e-18)
(1.02823 0.113982 2.38178e-19)
(1.12708 0.102661 9.99965e-20)
(1.17337 0.0906836 -6.50679e-19)
(1.18943 0.0712165 -9.64492e-19)
(1.19009 0.0519602 -6.2827e-20)
(1.18295 0.0326518 -4.75213e-19)
(1.17149 0.0152278 -5.74911e-19)
(1.15782 -0.00011815 6.50002e-19)
(1.14286 -0.01252 3.51456e-20)
(1.12765 -0.022374 -5.08104e-19)
(1.11265 -0.0289037 2.43691e-20)
(1.09862 -0.0342065 1.18572e-19)
(1.08566 -0.0354926 -2.86066e-19)
(1.07403 -0.0382107 -9.33891e-20)
(1.06405 -0.037196 4.36114e-20)
(1.05493 -0.0350836 1.11114e-19)
(-0.155141 0.0791619 7.34096e-19)
(0.193339 0.0255071 -4.66985e-19)
(0.598649 0.094318 -1.63241e-18)
(0.898315 0.106437 -6.07956e-19)
(1.06025 0.120415 1.79609e-19)
(1.14332 0.106587 -2.59781e-19)
(1.1793 0.0937936 7.6653e-19)
(1.18945 0.0737932 9.35378e-20)
(1.18716 0.0547657 -3.20071e-19)
(1.17885 0.0358588 5.3946e-19)
(1.16718 0.0189824 8.72249e-20)
(1.15383 0.00413034 -4.22881e-19)
(1.13946 -0.00792882 4.03403e-19)
(1.12498 -0.0175516 5.13788e-19)
(1.1107 -0.0241693 2.549e-19)
(1.09736 -0.0294991 -1.59403e-19)
(1.08492 -0.0311143 1.36237e-19)
(1.07381 -0.0344207 -4.41841e-20)
(1.06407 -0.0328157 3.85438e-20)
(1.05503 -0.0324673 -7.56046e-21)
(-0.155486 0.0695919 -9.31098e-19)
(0.251228 0.0343117 1.61709e-18)
(0.663031 0.10478 3.18514e-19)
(0.943911 0.114095 9.55145e-19)
(1.08653 0.126334 6.41725e-19)
(1.15549 0.110124 -6.20004e-19)
(1.18276 0.0967094 -8.28947e-19)
(1.18819 0.0762677 2.6856e-19)
(1.1837 0.0575169 2.47987e-19)
(1.17461 0.0389883 -1.58635e-19)
(1.16291 0.0226199 2.27952e-19)
(1.14993 0.00820577 2.61095e-19)
(1.13614 -0.00354151 -3.14142e-19)
(1.12232 -0.0129642 -2.37044e-20)
(1.10873 -0.0196588 -3.05521e-20)
(1.09602 -0.0249835 -1.12061e-19)
(1.08408 -0.0269956 -4.55667e-20)
(1.07347 -0.0305996 -9.96292e-20)
(1.0639 -0.0285594 6.81504e-20)
(1.05511 -0.0303844 -7.48604e-20)
(-0.154079 0.0584995 9.61868e-19)
(0.31342 0.0459175 -1.70268e-18)
(0.722553 0.114935 -2.46441e-19)
(0.983456 0.121225 -9.17118e-19)
(1.10783 0.131793 -6.67145e-19)
(1.1643 0.11333 -4.28386e-19)
(1.18428 0.0994709 -7.10807e-20)
(1.18601 0.0786606 4.2488e-19)
(1.1799 0.0602217 -2.32338e-19)
(1.17033 0.0420435 -4.17437e-19)
(1.1587 0.0261456 2.99701e-19)
(1.14612 0.0121189 -2.5738e-19)
(1.13289 0.000656013 6.03776e-20)
(1.1197 -0.00859622 9.1808e-20)
(1.10674 -0.0153511 -1.86494e-20)
(1.09461 -0.0206666 1.2264e-19)
(1.08318 -0.023088 2.40468e-20)
(1.07302 -0.0267296 7.55404e-20)
(1.0636 -0.0246969 -5.4832e-20)
(1.05526 -0.0290539 8.92044e-20)
(-0.150376 0.0463146 -7.95075e-19)
(0.377972 0.0591831 4.9383e-19)
(0.776742 0.124699 1.56244e-18)
(1.01747 0.127838 5.03897e-19)
(1.12485 0.136844 -9.85846e-20)
(1.1704 0.116255 1.26068e-18)
(1.18432 0.102111 2.2157e-19)
(1.18317 0.0809881 -1.58986e-19)
(1.17589 0.0628857 3.1607e-19)
(1.16605 0.0450273 -2.74426e-20)
(1.15458 0.0295644 -1.13923e-19)
(1.1424 0.0158797 4.02016e-19)
(1.12969 0.00467623 -3.22184e-19)
(1.11709 -0.00443239 -4.99646e-19)
(1.10473 -0.0112311 -1.99054e-19)
(1.09314 -0.016547 1.43335e-19)
(1.0822 -0.0193398 2.43948e-20)
(1.07246 -0.0229009 4.97427e-20)
(1.06328 -0.0215306 -4.41295e-20)
(1.05555 -0.0254491 -8.99888e-20)
(-0.143733 0.0337959 -6.55869e-19)
(0.443018 0.072832 -1.33935e-18)
(0.825499 0.134051 -2.74421e-18)
(1.04648 0.133953 1.80323e-18)
(1.13823 0.14154 1.11835e-18)
(1.17429 0.118945 -1.19155e-18)
(1.18323 0.104658 6.23646e-19)
(1.17988 0.0832619 1.31202e-19)
(1.17176 0.065512 -4.73397e-19)
(1.16181 0.0479407 4.02949e-19)
(1.15053 0.0328798 1.63301e-19)
(1.13876 0.0194962 -5.9189e-19)
(1.12655 0.00852898 3.68456e-19)
(1.11451 -0.000459464 5.01865e-19)
(1.1027 -0.00728775 -5.58718e-20)
(1.09163 -0.0126155 9.31936e-20)
(1.08115 -0.0157293 1.30833e-19)
(1.0718 -0.0192753 2.07453e-20)
(1.06299 -0.0182253 -1.77462e-20)
(1.05549 -0.0227608 8.97161e-20)
(-0.133428 0.0220223 1.25268e-19)
(0.507056 0.0857915 -9.57977e-19)
(0.868989 0.142999 -1.37534e-18)
(1.07105 0.139597 -2.02169e-18)
(1.14852 0.145927 -1.05807e-18)
(1.17643 0.121441 5.27931e-19)
(1.18128 0.107132 -7.90614e-19)
(1.17627 0.0854906 1.66911e-19)
(1.16757 0.0681029 -1.88269e-20)
(1.15761 0.0507851 -6.88279e-19)
(1.14657 0.0360954 -2.94526e-19)
(1.1352 0.0229762 -5.22018e-20)
(1.12346 0.0122239 -4.83686e-20)
(1.11194 0.00333541 -1.30675e-19)
(1.10065 -0.00351092 2.22429e-19)
(1.09007 -0.00886104 -2.34027e-19)
(1.08004 -0.0122695 -1.44307e-19)
(1.07108 -0.0157134 -1.3689e-19)
(1.06259 -0.015399 5.53714e-20)
(1.05543 -0.0196711 1.36845e-20)
(-0.118712 0.0123263 1.17047e-18)
(0.569065 0.0974143 1.00327e-18)
(0.907552 0.151577 8.01552e-19)
(1.09166 0.144802 1.13589e-18)
(1.1562 0.15005 1.70727e-20)
(1.17716 0.123777 3.06359e-19)
(1.17869 0.109552 3.44023e-19)
(1.17245 0.0876803 -5.68518e-19)
(1.16336 0.0706591 1.02143e-19)
(1.15348 0.0535609 1.1131e-19)
(1.14268 0.0392143 1.08217e-19)
(1.13171 0.0263263 2.88802e-19)
(1.12042 0.0157693 1.25551e-19)
(1.10939 0.00696338 9.01983e-20)
(1.09859 0.00010792 -2.84833e-19)
(1.08847 -0.00527837 7.36226e-21)
(1.07887 -0.008922 4.86976e-20)
(1.07028 -0.0123901 2.35651e-20)
(1.06214 -0.0124818 -3.07692e-20)
(1.05522 -0.0167313 -6.06563e-22)
(-0.0988813 0.00617367 -6.90214e-19)
(0.628446 0.107522 3.34076e-19)
(0.94162 0.159849 -2.23915e-19)
(1.1088 0.149603 5.52574e-20)
(1.1617 0.153948 -1.32138e-19)
(1.17678 0.125984 -1.42482e-19)
(1.17562 0.111929 -5.14695e-19)
(1.1685 0.089835 -1.3827e-19)
(1.15917 0.0731808 -8.73176e-20)
(1.14941 0.0562686 2.36819e-19)
(1.13886 0.0422395 -7.78951e-21)
(1.12827 0.0295524 1.98784e-19)
(1.11742 0.0191727 -2.04789e-19)
(1.10686 0.0104346 2.41001e-19)
(1.09652 0.00357584 -7.46571e-20)
(1.08684 -0.00185155 2.75833e-19)
(1.07764 -0.00572269 -1.97494e-19)
(1.06941 -0.00914058 9.11067e-22)
(1.06158 -0.0098014 -1.37946e-19)
(1.05495 -0.0139375 -1.10834e-20)
(-0.0733683 0.00499893 1.5196e-18)
(0.684864 0.116302 1.57237e-19)
(0.971649 0.167895 1.33952e-18)
(1.12287 0.154037 -4.58526e-20)
(1.16538 0.157657 7.22193e-19)
(1.17552 0.128085 -7.52106e-19)
(1.1722 0.114274 5.08488e-19)
(1.16447 0.091957 -2.8436e-19)
(1.15499 0.0756672 2.21266e-19)
(1.14539 0.0589084 3.76053e-19)
(1.13511 0.0451736 -4.89651e-20)
(1.1249 0.0326599 -2.31008e-19)
(1.11444 0.022441 -3.03005e-19)
(1.10434 0.0137579 5.5683e-20)
(1.09443 0.00690098 -5.94157e-20)
(1.08517 0.00141905 -1.27953e-19)
(1.07637 -0.00262624 -5.19384e-20)
(1.06847 -0.006083 7.74757e-20)
(1.06096 -0.00715452 2.6614e-20)
(1.05457 -0.0111002 1.29034e-20)
(-0.0418548 0.0100048 2.05952e-19)
(0.738089 0.124143 4.97593e-19)
(0.998065 0.175802 -1.54736e-18)
(1.13426 0.158144 1.16104e-19)
(1.16752 0.161207 -1.1017e-18)
(1.17358 0.130103 1.70306e-19)
(1.16853 0.116594 5.70435e-19)
(1.16039 0.0940474 4.26074e-20)
(1.15084 0.0781176 4.45106e-19)
(1.14144 0.0614804 -1.15255e-19)
(1.13142 0.048019 -1.03728e-19)
(1.12157 0.0356534 1.68343e-19)
(1.1115 0.0255805 -7.43745e-20)
(1.10182 0.0169415 8.72249e-20)
(1.09233 0.0100879 4.59898e-20)
(1.08347 0.00455051 -1.0213e-19)
(1.07504 0.000336651 1.46613e-19)
(1.06747 -0.00311937 -1.41462e-19)
(1.06024 -0.00462253 7.59263e-20)
(1.05411 -0.00849213 -5.98155e-20)
(-0.00437957 0.0219403 -1.36121e-18)
(0.787889 0.131479 -3.03203e-19)
(1.02124 0.183644 2.15173e-19)
(1.14329 0.161958 -5.42044e-19)
(1.1684 0.164625 9.84791e-19)
(1.17111 0.132055 9.25588e-19)
(1.16466 0.118893 -3.21042e-19)
(1.15629 0.0961065 3.64334e-19)
(1.14673 0.0805305 -5.67043e-19)
(1.13754 0.0639847 3.49383e-20)
(1.12778 0.0507779 2.55373e-19)
(1.11829 0.0385372 8.49552e-20)
(1.10859 0.0285969 1.00586e-19)
(1.09932 0.0199923 1.38799e-19)
(1.09022 0.0131442 -2.79539e-19)
(1.08173 0.00754157 1.1626e-19)
(1.07367 0.00320019 -7.98791e-20)
(1.0664 -0.000304995 1.60492e-19)
(1.05947 -0.00218239 -1.01808e-20)
(1.05356 -0.00583638 1.99857e-20)
(0.0385758 0.0408848 -2.95562e-20)
(0.834001 0.138668 8.79102e-19)
(1.04149 0.191468 -7.3791e-19)
(1.15027 0.165513 -2.19701e-19)
(1.16822 0.167932 -2.17304e-19)
(1.16822 0.133954 -2.11865e-19)
(1.16066 0.121175 -7.98413e-19)
(1.15218 0.0981337 -5.41583e-20)
(1.14265 0.0829046 -3.48111e-20)
(1.1337 0.0664212 -4.22525e-19)
(1.12419 0.053452 -2.37077e-19)
(1.11504 0.041315 -1.31027e-19)
(1.1057 0.0314954 4.03075e-20)
(1.09682 0.0229168 -1.82423e-19)
(1.08809 0.0160734 1.49544e-19)
(1.07998 0.0104069 4.96115e-20)
(1.07225 0.00594596 1.1714e-20)
(1.06528 0.00240125 -2.47362e-20)
(1.05861 0.000191285 2.13344e-20)
(1.05293 -0.00337769 4.97817e-20)
(0.0860597 0.0660907 4.23568e-19)
(0.876146 0.145936 -7.24065e-19)
(1.05906 0.19929 2.28804e-20)
(1.15546 0.168835 9.44301e-20)
(1.16716 0.171145 -6.4535e-19)
(1.16502 0.135811 -1.8183e-19)
(1.15656 0.123439 1.23173e-19)
(1.14808 0.100128 9.31169e-20)
(1.1386 0.0852381 1.53396e-19)
(1.12989 0.0687899 -1.38578e-19)
(1.12064 0.0560432 -1.90328e-19)
(1.11183 0.0439902 -2.24318e-19)
(1.10283 0.0342808 1.53615e-19)
(1.09433 0.0257203 -9.09624e-20)
(1.08596 0.0188819 1.35496e-19)
(1.0782 0.0131466 6.03034e-20)
(1.0708 0.00859372 -9.15346e-20)
(1.06411 0.00498482 -9.15103e-21)
(1.0577 0.00246269 1.69876e-20)
(1.05223 -0.000910863 1.22835e-20)
(0.136712 0.0959561 -1.09522e-19)
(0.91409 0.153348 5.72332e-19)
(1.07418 0.207093 4.5599e-19)
(1.15908 0.171949 -5.04894e-19)
(1.16537 0.174277 1.17649e-18)
(1.16156 0.137634 -1.24581e-19)
(1.15239 0.125686 6.82631e-19)
(1.14399 0.102089 -1.18828e-19)
(1.13458 0.0875293 5.07981e-20)
(1.12613 0.0710909 3.71676e-19)
(1.11712 0.058553 4.27336e-19)
(1.10865 0.0465659 1.56898e-19)
(1.09998 0.0369572 -1.58823e-19)
(1.09184 0.0284082 1.14891e-19)
(1.08381 0.0215729 3.51645e-20)
(1.07639 0.0157715 -2.45927e-19)
(1.0693 0.0111352 -3.66971e-20)
(1.06288 0.00745699 4.2396e-20)
(1.05673 0.00468154 -6.29172e-20)
(1.05145 0.0013994 -9.37977e-21)
(0.188926 0.128189 9.91525e-19)
(0.947712 0.160832 6.79206e-20)
(1.08704 0.214832 -6.48775e-19)
(1.16136 0.174875 -2.64231e-19)
(1.16298 0.177337 -5.34071e-19)
(1.15792 0.139429 -3.72956e-19)
(1.14817 0.127916 -1.8784e-19)
(1.13992 0.104014 4.30104e-20)
(1.13058 0.0897765 6.84477e-20)
(1.1224 0.0733239 -7.80185e-20)
(1.11364 0.0609827 -3.0734e-19)
(1.1055 0.0490449 -6.84307e-20)
(1.09714 0.0395285 -1.33283e-19)
(1.08935 0.0309846 -4.50266e-20)
(1.08165 0.0241519 -1.86469e-19)
(1.07456 0.0182831 1.50734e-19)
(1.06777 0.0135799 1.17816e-19)
(1.06161 0.00982214 -9.60001e-21)
(1.05571 0.0068046 -1.40846e-20)
(1.05061 0.00367862 6.70099e-20)
(0.241095 0.160181 -2.33362e-18)
(0.97705 0.168222 7.62247e-20)
(1.0978 0.222445 -2.10517e-19)
(1.16249 0.177632 3.47814e-19)
(1.16009 0.180331 -3.38713e-19)
(1.15414 0.1412 9.71806e-19)
(1.14391 0.130125 -1.30676e-19)
(1.13586 0.105901 6.30936e-19)
(1.12662 0.0919778 -1.62975e-19)
(1.11871 0.075489 -1.86603e-19)
(1.11018 0.0633333 -8.72206e-20)
(1.10237 0.0514295 1.2656e-19)
(1.09432 0.0419982 9.44025e-20)
(1.08687 0.0334537 -3.88887e-22)
(1.07948 0.0266218 7.51026e-20)
(1.07271 0.0206889 -3.99331e-20)
(1.06621 0.0159258 -3.51563e-20)
(1.0603 0.0120799 -7.88744e-20)
(1.05464 0.00887475 4.32854e-20)
(1.04971 0.00582964 4.64711e-20)
(0.291861 0.189503 9.34336e-20)
(1.00232 0.175327 -5.83202e-19)