/*--------------------------------*- C++ -*----------------------------------*\
  =========                 |
  \\      /  F ield         | OpenFOAM: The Open Source CFD Toolbox
   \\    /   O peration     | Website:  https://openfoam.org
    \\  /    A nd           | Version:  7
     \\/     M anipulation  |
\*---------------------------------------------------------------------------*/
FoamFile
{
    version     2.0;
    format      ascii;
    class       volScalarField;
    location    "1.5";
    object      T;
}
// * * * * * * * * * * * * * * * * * * * * * * * * * * * * * * * * * * * * * //

dimensions      [0 0 0 1 0 0 0];

internalField   nonuniform List<scalar> 
2413
(
1.22765
1.22098
1.21424
1.20739
1.20038
1.19314
1.18563
1.17791
1.22949
1.22286
1.21624
1.20959
1.20284
1.19592
1.18878
1.18148
1.23221
1.2255
1.21888
1.21232
1.20574
1.19905
1.19215
1.18511
1.23574
1.22895
1.22226
1.21569
1.20919
1.20264
1.1959
1.18901
1.23962
1.23287
1.22618
1.21962
1.21318
1.20676
1.20016
1.19336
1.24328
1.23678
1.23027
1.22384
1.21751
1.21124
1.20481
1.19812
1.24638
1.24025
1.23408
1.22795
1.22185
1.21578
1.20955
1.20304
1.24897
1.24318
1.23742
1.23169
1.22591
1.22007
1.21405
1.20777
1.2513
1.24575
1.24032
1.23498
1.22953
1.22392
1.21808
1.21202
1.25366
1.24825
1.24303
1.23794
1.23276
1.22736
1.22167
1.21581
1.25621
1.2509
1.24577
1.24076
1.23571
1.23048
1.22494
1.21925
1.25899
1.25378
1.24867
1.24363
1.23857
1.23344
1.22804
1.22254
1.26195
1.25686
1.25177
1.24665
1.24151
1.23638
1.23113
1.22582
1.26493
1.25997
1.25496
1.24982
1.24461
1.23946
1.23431
1.22919
1.26769
1.2629
1.25803
1.25295
1.24776
1.24263
1.23762
1.23268
1.26993
1.2654
1.26073
1.25579
1.25071
1.24572
1.24092
1.23618
1.27145
1.26727
1.26284
1.2581
1.2532
1.24845
1.24396
1.23945
1.27229
1.26841
1.26423
1.25971
1.25509
1.25067
1.24649
1.2422
1.27269
1.26897
1.26494
1.26067
1.25638
1.25231
1.24839
1.24425
0.963396
0.962019
0.960093
0.957639
0.955124
0.953859
0.953096
0.951924
0.950739
0.949312
0.947054
0.944488
0.942861
0.942018
0.941325
1.17309
1.17124
1.16933
1.16736
1.16547
1.16371
1.16185
1.15976
1.15769
1.15592
1.1543
1.15235
1.15007
1.14795
1.14625
1.14473
1.14277
1.14037
1.1381
1.13635
1.13491
1.13309
1.13072
1.12816
1.12621
1.12474
1.12318
1.12106
1.1184
1.11597
1.11427
1.1129
1.11119
1.1089
1.10611
1.10384
1.10229
1.10095
1.09918
1.09679
1.09394
1.09182
1.09039
1.08909
1.0873
1.08488
1.08202
1.07999
1.07863
1.07736
1.07563
1.07328
1.07044
1.06837
1.06702
1.06577
1.06413
1.06192
1.05908
1.05688
1.05548
1.05425
1.05273
1.05069
1.04793
1.04538
1.04385
1.04266
1.04132
1.03958
1.0372
1.03424
1.0322
1.03093
1.02981
1.02843
1.02663
1.02409
1.02119
1.01939
1.01826
1.0172
1.01587
1.01411
1.0116
1.00878
1.00708
1.006
1.00501
1.00376
1.00211
0.999766
0.997035
0.995247
0.994137
0.993201
0.99206
0.990594
0.988562
0.985871
0.983885
0.98261
0.981656
0.980692
0.979301
0.977563
0.975287
0.97274
0.971448
0.970473
0.96941
0.968304
0.966782
0.964638
0.962185
0.960476
0.959715
0.958734
0.957393
0.956207
1.17693
1.17517
1.17336
1.17153
1.1698
1.16811
1.16628
1.16432
1.16249
1.1609
1.15925
1.15726
1.15517
1.15339
1.15192
1.15029
1.14819
1.14597
1.14414
1.14271
1.14117
1.1391
1.13671
1.1347
1.1332
1.13181
1.12993
1.12752
1.12515
1.12344
1.1221
1.12055
1.11844
1.11586
1.11366
1.11213
1.11084
1.10916
1.10693
1.10427
1.10225
1.10086
1.09959
1.09785
1.09552
1.09285
1.09096
1.08967
1.08843
1.08672
1.08441
1.08173
1.07984
1.07857
1.07738
1.07576
1.07357
1.07086
1.06886
1.06756
1.0664
1.06489
1.06285
1.06016
1.05791
1.05653
1.0554
1.05405
1.05224
1.04977
1.04709
1.04544
1.04429
1.04313
1.04165
1.03968
1.03698
1.03459
1.0332
1.03215
1.03099
1.02948
1.02743
1.02471
1.02257
1.02132
1.02033
1.01919
1.01769
1.01563
1.01302
1.01102
1.00982
1.00886
1.00775
1.00635
1.00443
1.00194
0.999934
0.998614
0.997667
0.996665
0.995311
0.993665
0.991418
0.989067
0.987798
0.986713
0.985691
0.984575
0.983043
0.981013
0.978602
0.97705
0.976251
0.975048
0.973812
0.972647
0.970955
0.968723
1.18074
1.17905
1.17733
1.17561
1.17397
1.17233
1.17055
1.16874
1.16709
1.16558
1.16391
1.16198
1.16013
1.15858
1.15718
1.15544
1.15339
1.15148
1.14995
1.14863
1.14691
1.14477
1.1427
1.14111
1.13982
1.13823
1.13614
1.13383
1.13204
1.13069
1.12933
1.12747
1.12512
1.12292
1.12135
1.12011
1.11859
1.11656
1.1141
1.11208
1.11068
1.10946
1.10785
1.10569
1.10319
1.10134
1.10006
1.09886
1.09722
1.09502
1.0925
1.09071
1.08948
1.08832
1.08673
1.0846
1.08204
1.0802
1.07896
1.07784
1.07633
1.07431
1.07174
1.06974
1.06847
1.06737
1.06599
1.06414
1.06164
1.05933
1.05792
1.05684
1.05564
1.05406
1.05191
1.04929
1.04744
1.04626
1.04523
1.04394
1.04226
1.03993
1.03744
1.0359
1.03484
1.0338
1.03247
1.03069
1.02827
1.02604
1.0247
1.0237
1.02264
1.02131
1.01951
1.01716
1.01511
1.01378
1.0128
1.01178
1.01047
1.00884
1.00666
1.00448
1.00321
1.00213
1.0011
0.999958
0.998439
0.996454
0.994178
0.992753
0.991903
0.990662
0.989452
0.988248
0.986537
0.984369
0.982578
0.981657
1.18473
1.18308
1.1814
1.17975
1.17815
1.17653
1.17482
1.17311
1.17154
1.17005
1.16839
1.16657
1.16488
1.16345
1.16204
1.16029
1.15838
1.15671
1.15537
1.15402
1.15222
1.15019
1.14846
1.14711
1.14583
1.14409
1.14197
1.14004
1.13859
1.13738
1.13581
1.13377
1.13155
1.12988
1.12862
1.12731
1.12552
1.12328
1.1212
1.11974
1.11857
1.11712
1.11519
1.11285
1.11097
1.10966
1.10853
1.107
1.10498
1.1026
1.10084
1.09962
1.09852
1.097
1.09497
1.09257
1.09081
1.08962
1.08853
1.08707
1.08512
1.0827
1.08085
1.07964
1.07857
1.07719
1.07534
1.07293
1.07089
1.06961
1.06859
1.06734
1.06569
1.06345
1.06108
1.05959
1.05853
1.05747
1.05608
1.05423
1.0518
1.04978
1.04855
1.04758
1.04643
1.04494
1.04289
1.04048
1.03885
1.03777
1.0368
1.03558
1.03399
1.03182
1.02962
1.02821
1.02719
1.0262
1.02497
1.02339
1.02129
1.01918
1.01783
1.01682
1.01582
1.01465
1.01314
1.01119
1.00909
1.00764
1.0068
1.00568
1.00442
1.00316
1.00145
0.999362
0.997761
0.996857
0.995927
0.994553
1.18912
1.18748
1.18583
1.18419
1.1826
1.18099
1.17932
1.17765
1.1761
1.1746
1.17296
1.17123
1.16962
1.16822
1.16679
1.16508
1.1633
1.16176
1.16049
1.1591
1.15732
1.15547
1.15394
1.15273
1.15138
1.14959
1.1476
1.14598
1.14473
1.14348
1.14177
1.13969
1.13783
1.13646
1.13529
1.13378
1.13183
1.12968
1.12808
1.12688
1.12563
1.12395
1.12181
1.11982
1.11844
1.11734
1.11599
1.11418
1.11195
1.11013
1.10889
1.10785
1.10645
1.10459
1.10234
1.1006
1.09941
1.09839
1.09702
1.09519
1.09293
1.09115
1.08997
1.08895
1.08761
1.08584
1.08356
1.08168
1.08048
1.07947
1.07822
1.07655
1.07432
1.07222
1.07091
1.06992
1.06881
1.06735
1.06538
1.06305
1.06143
1.06037
1.0594
1.05816
1.05653
1.05432
1.05224
1.05098
1.05003
1.04899
1.04762
1.04577
1.04351
1.04185
1.04077
1.03983
1.0387
1.03726
1.03531
1.03318
1.03173
1.0307
1.02975
1.02863
1.02718
1.02527
1.02328
1.02181
1.02087
1.01993
1.01868
1.01735
1.01565
1.01367
1.0122
1.0112
1.01036
1.00918
1.00759
1.00617
1.19392
1.1923
1.19067
1.18904
1.18744
1.18584
1.18419
1.18254
1.18097
1.17945
1.17785
1.17616
1.17456
1.17313
1.17169
1.17004
1.16834
1.16684
1.16556
1.16416
1.16245
1.16073
1.15929
1.15813
1.15675
1.15498
1.15316
1.1517
1.15055
1.14924
1.14748
1.1455
1.14391
1.14269
1.14147
1.13984
1.13782
1.13597
1.13463
1.13349
1.13207
1.13021
1.12813
1.12657
1.12541
1.12424
1.12267
1.12065
1.1187
1.11735
1.11632
1.11511
1.11345
1.11136
1.10955
1.10832
1.10736
1.10613
1.10446
1.10236
1.1006
1.09942
1.09845
1.09722
1.09557
1.09345
1.09165
1.09047
1.08949
1.08827
1.08665
1.08451
1.08259
1.08137
1.0804
1.07926
1.07776
1.07575
1.0736
1.07222
1.07124
1.07024
1.06894
1.0672
1.06498
1.06327
1.0622
1.06129
1.06016
1.05867
1.05665
1.05464
1.05338
1.05245
1.05147
1.0502
1.04852
1.04642
1.04477
1.0437
1.04279
1.04176
1.04044
1.0387
1.03667
1.03516
1.03415
1.03326
1.03219
1.03087
1.02913
1.02718
1.0258
1.02479
1.02392
1.02288
1.02132
1.01971
1.01826
1.01672
1.19894
1.19736
1.19576
1.19415
1.19256
1.19098
1.18938
1.18775
1.18617
1.18464
1.18308
1.18143
1.17982
1.17836
1.17692
1.17533
1.17367
1.17215
1.17083
1.16946
1.16782
1.16616
1.16474
1.16356
1.16221
1.1605
1.15879
1.15739
1.15628
1.15494
1.15319
1.15135
1.14988
1.14873
1.14745
1.14577
1.14381
1.14218
1.14095
1.13976
1.13821
1.13628
1.13443
1.1331
1.132
1.13066
1.12892
1.12689
1.12533
1.1242
1.12314
1.1217
1.11983
1.11791
1.11657
1.11558
1.11451
1.11302
1.11111
1.10931
1.10808
1.10715
1.10605
1.10454
1.1026
1.10084
1.09965
1.0987
1.09755
1.09602
1.09402
1.0922
1.09102
1.09006
1.08892
1.08743
1.08544
1.08346
1.0822
1.08125
1.08021
1.07886
1.07706
1.07494
1.07349
1.07251
1.07158
1.07038
1.06878
1.06672
1.06506
1.06402
1.06314
1.06207
1.06066
1.05878
1.05691
1.05571
1.05481
1.05388
1.05271
1.05118
1.04924
1.0476
1.04653
1.04566
1.0447
1.04351
1.04193
1.03997
1.03849
1.03747
1.03659
1.03562
1.03429
1.03256
1.031
1.02961
1.02855
1.02767
1.20381
1.20229
1.20075
1.19919
1.19765
1.19613
1.19458
1.19299
1.19143
1.18995
1.18846
1.18685
1.18525
1.18379
1.1824
1.18087
1.17923
1.17771
1.17637
1.17504
1.17346
1.17183
1.17039
1.16919
1.16788
1.16623
1.16456
1.16318
1.16207
1.16075
1.15904
1.15727
1.15586
1.15473
1.15343
1.15175
1.14987
1.14836
1.14717
1.14591
1.1443
1.14239
1.14075
1.13952
1.13837
1.1369
1.13504
1.13319
1.13187
1.13082
1.1296
1.12798
1.12605
1.12449
1.12337
1.12241
1.1211
1.11939
1.11755
1.11622
1.11525
1.11427
1.11289
1.11113
1.10939
1.10818
1.10725
1.10619
1.10476
1.10291
1.10115
1.09998
1.09902
1.09792
1.09647
1.09457
1.0927
1.0915
1.09055
1.08948
1.08811
1.0863
1.0843
1.08299
1.08205
1.08108
1.07982
1.07815
1.07616
1.07476
1.07382
1.07292
1.07176
1.07021
1.06829
1.06679
1.06581
1.06499
1.06398
1.06266
1.06093
1.05915
1.05795
1.05708
1.05624
1.05518
1.05383
1.05204
1.05034
1.04923
1.04838
1.04748
1.04633
1.04483
1.04302
1.04161
1.04063
1.03972
1.03869
1.03741
1.20824
1.20678
1.20531
1.20382
1.20236
1.20092
1.19945
1.19793
1.19645
1.19506
1.19364
1.19209
1.19055
1.18917
1.18786
1.18638
1.18478
1.18329
1.18202
1.18073
1.17918
1.17757
1.17616
1.17498
1.17368
1.17206
1.17042
1.16906
1.16794
1.16662
1.16494
1.16323
1.16185
1.16074
1.15943
1.15775
1.15595
1.15451
1.15334
1.15205
1.1504
1.14855
1.14707
1.1459
1.14467
1.1431
1.14121
1.1396
1.13841
1.13734
1.13594
1.13418
1.1324
1.1311
1.1301
1.12896
1.12745
1.12564
1.12415
1.12308
1.12216
1.12091
1.11928
1.11756
1.11629
1.11535
1.11437
1.11303
1.11131
1.1096
1.10841
1.10747
1.10642
1.10503
1.10323
1.10144
1.10025
1.0993
1.09823
1.09687
1.09507
1.09319
1.09197
1.09103
1.09002
1.08871
1.08699
1.08511
1.08387
1.08297
1.08202
1.08078
1.07912
1.0773
1.07606
1.0752
1.07435
1.07323
1.07177
1.06997
1.06855
1.0676
1.06683
1.06592
1.06476
1.06322
1.06145
1.06018
1.0593
1.05848
1.05747
1.05617
1.05449
1.05291
1.05185
1.05096
1.04998
1.04878
1.04724
1.04565
1.21218
1.21079
1.20938
1.20796
1.20658
1.20523
1.20383
1.20238
1.201
1.19972
1.19838
1.1969
1.19546
1.19419
1.19297
1.19153
1.19
1.18862
1.18745
1.1862
1.18466
1.1831
1.18177
1.18065
1.17933
1.17772
1.17613
1.17483
1.17372
1.17236
1.17067
1.16903
1.16774
1.16663
1.16527
1.16358
1.16187
1.16054
1.1594
1.15805
1.15637
1.15464
1.1533
1.15218
1.15086
1.1492
1.14741
1.14604
1.14495
1.14376
1.14222
1.14041
1.13891
1.13779
1.13677
1.13542
1.13374
1.1321
1.1309
1.12995
1.1288
1.1273
1.1256
1.12425
1.12325
1.12232
1.12105
1.11942
1.11773
1.11651
1.11557
1.11457
1.11325
1.11155
1.1098
1.1086
1.10765
1.1066
1.10526
1.10351
1.10173
1.10055
1.09961
1.09856
1.09722
1.09547
1.09373
1.09259
1.09169
1.09067
1.08936
1.08765
1.08597
1.08488
1.08406
1.08314
1.08193
1.08035
1.07864
1.07749
1.07667
1.07591
1.0749
1.07359
1.07193
1.07047
1.0695
1.06871
1.06784
1.06671
1.06525
1.0636
1.0624
1.06149
1.06058
1.05947
1.05807
1.0565
1.05523
1.05423
1.21576
1.21442
1.21306
1.21171
1.21041
1.20913
1.20776
1.20639
1.20512
1.20393
1.20263
1.20121
1.19989
1.19874
1.19758
1.19618
1.19474
1.19349
1.19242
1.19117
1.18965
1.18819
1.18698
1.1859
1.18455
1.18294
1.18146
1.18026
1.17914
1.17771
1.17602
1.17452
1.17334
1.1722
1.17075
1.16903
1.1675
1.16631
1.16518
1.16374
1.16204
1.16051
1.15933
1.15821
1.15679
1.15509
1.15355
1.15237
1.15133
1.14999
1.14833
1.14669
1.14545
1.14445
1.14328
1.14176
1.14007
1.13873
1.1377
1.13665
1.13526
1.1336
1.13215
1.13107
1.13014
1.12893
1.12737
1.12568
1.1244
1.12344
1.12248
1.12121
1.11959
1.11786
1.11664
1.11569
1.11468
1.11337
1.11168
1.10998
1.10883
1.10788
1.1068
1.10544
1.10369
1.1021
1.10104
1.10012
1.09905
1.09767
1.09593
1.09441
1.09341
1.09258
1.09159
1.09031
1.08866
1.08712
1.08611
1.08535
1.0845
1.08338
1.08192
1.08033
1.07919
1.07836
1.07758
1.07658
1.07531
1.07374
1.0724
1.07145
1.07057
1.06955
1.06827
1.06676
1.06545
1.06443
1.06348
1.06241
1.21917
1.21787
1.21656
1.21528
1.21405
1.21279
1.21145
1.21015
1.20898
1.20784
1.20653
1.20518
1.20396
1.2029
1.20175
1.20037
1.19902
1.1979
1.19689
1.1956
1.19411
1.19278
1.19171
1.19061
1.1892
1.18764
1.18631
1.18522
1.18403
1.18254
1.18092
1.1796
1.17851
1.17728
1.17574
1.1741
1.17279
1.17172
1.17051
1.16898
1.16736
1.16607
1.16502
1.16383
1.16233
1.16073
1.15946
1.15845
1.15733
1.15586
1.15421
1.15288
1.15185
1.15083
1.14948
1.14785
1.14639
1.14529
1.1443
1.14303
1.14146
1.13992
1.13876
1.1378
1.13665
1.13517
1.13347
1.13212
1.13111
1.13018
1.12895
1.12739
1.12567
1.12441
1.12346
1.12248
1.1212
1.11958
1.11796
1.11683
1.11589
1.1148
1.11341
1.11171
1.11028
1.10927
1.10836
1.10723
1.1058
1.10408
1.1027
1.10174
1.1009
1.09986
1.09853
1.09687
1.09547
1.09453
1.09377
1.09282
1.09158
1.09002
1.08863
1.08768
1.08691
1.08602
1.08487
1.08343
1.08199
1.08095
1.08011
1.07918
1.07802
1.07655
1.0751
1.07405
1.07317
1.07223
1.07107
1.06958
1.22257
1.22131
1.22004
1.21883
1.21764
1.21638
1.21507
1.21385
1.21275
1.21159
1.21026
1.20896
1.20784
1.20683
1.20561
1.20424
1.203
1.20198
1.20093
1.19958
1.19817
1.19699
1.196
1.19482
1.19336
1.19192
1.19077
1.18973
1.18845
1.1869
1.18546
1.18433
1.18324
1.1819
1.18031
1.17889
1.17779
1.17672
1.17538
1.1738
1.17241
1.17133
1.17031
1.169
1.16746
1.16609
1.16504
1.16408
1.16281
1.16127
1.15986
1.15879
1.15788
1.1567
1.1552
1.15368
1.15251
1.15155
1.15043
1.14899
1.1474
1.14615
1.14515
1.14408
1.1427
1.14103
1.13959
1.13854
1.1376
1.13642
1.13493
1.13322
1.13192
1.13095
1.13
1.12876
1.12719
1.12563
1.12453
1.12362
1.12254
1.12115
1.11952
1.11821
1.11726
1.11637
1.11523
1.11377
1.11211
1.11085
1.10994
1.10908
1.108
1.10664
1.10501
1.1037
1.10279
1.10199
1.10098
1.09967
1.09807
1.09679
1.09591
1.09515
1.09417
1.09291
1.09135
1.09003
1.08913
1.08835
1.08739
1.08617
1.0846
1.08319
1.08225
1.08146
1.08054
1.07938
1.07784
1.0762
1.22604
1.22482
1.2236
1.22244
1.22127
1.22
1.21873
1.21759
1.21652
1.2153
1.21396
1.21274
1.2117
1.21063
1.20933
1.20799
1.20686
1.20589
1.20472
1.20333
1.20205
1.20101
1.2
1.19869
1.19724
1.19601
1.19501
1.1939
1.19251
1.19102
1.18982
1.1888
1.18763
1.18619
1.1847
1.18354
1.18254
1.18135
1.17989
1.17843
1.1773
1.17635
1.1752
1.17377
1.17233
1.17121
1.1703
1.16921
1.16781
1.16637
1.16523
1.16434
1.16332
1.16196
1.16045
1.15924
1.15829
1.15729
1.15599
1.15444
1.1531
1.15207
1.15107
1.14982
1.14827
1.14674
1.14564
1.1447
1.14358
1.14217
1.14049
1.13916
1.13819
1.13726
1.13606
1.13455
1.13302
1.13193
1.13104
1.13
1.12865
1.12709
1.12586
1.12496
1.1241
1.12297
1.12153
1.11996
1.1188
1.11794
1.1171
1.11599
1.11454
1.11304
1.11195
1.11094
1.10993
1.10888
1.1077
1.1063
1.10489
1.10382
1.10296
1.10205
1.10087
1.09937
1.09793
1.09695
1.09615
1.09523
1.09405
1.09255
1.09113
1.09017
1.08939
1.0885
1.08738
1.0859
1.08432
1.08328
1.22962
1.22843
1.22726
1.22614
1.22496
1.22369
1.22248
1.2214
1.22029
1.219
1.2177
1.21658
1.21556
1.21436
1.213
1.21177
1.21075
1.2097
1.20839
1.20705
1.20593
1.20497
1.20381
1.20241
1.20112
1.20009
1.1991
1.19785
1.1964
1.19514
1.19413
1.1931
1.1918
1.19034
1.18911
1.18811
1.18705
1.18572
1.18424
1.18305
1.1821
1.18107
1.17975
1.17828
1.17708
1.17615
1.17519
1.17393
1.17248
1.17127
1.17034
1.16943
1.1682
1.16674
1.16547
1.16451
1.16362
1.16245
1.16099
1.15958
1.15852
1.15759
1.15648
1.15508
1.15354
1.15237
1.15143
1.15038
1.14907
1.14747
1.14613
1.14516
1.14425
1.14311
1.14166
1.14014
1.13904
1.13818
1.1372
1.13592
1.13443
1.13322
1.13234
1.13151
1.1304
1.12898
1.12753
1.12646
1.12564
1.1248
1.12369
1.12228
1.12076
1.11969
1.11886
1.1179
1.11665
1.11521
1.1141
1.11313
1.11198
1.11059
1.10936
1.10843
1.10741
1.10613
1.10472
1.10361
1.10268
1.10164
1.10038
1.09901
1.09795
1.09709
1.09621
1.09512
1.09373
1.09226
1.09124
1.09046
1.23321
1.23205
1.23093
1.22981
1.22861
1.22738
1.22624
1.22517
1.22398
1.22266
1.22147
1.22043
1.21931
1.218
1.21671
1.21564
1.21463
1.2134
1.21206
1.21089
1.20991
1.20884
1.20753
1.20622
1.20515
1.20422
1.20308
1.2017
1.20041
1.19938
1.19843
1.19725
1.19585
1.19456
1.19354
1.19256
1.19134
1.18991
1.18863
1.18765
1.18671
1.1855
1.18405
1.18275
1.18177
1.1809
1.17977
1.17838
1.17706
1.17606
1.1752
1.17411
1.17274
1.17141
1.17041
1.16958
1.16854
1.16719
1.16573
1.16461
1.16372
1.16274
1.1615
1.16001
1.15876
1.15781
1.15684
1.15562
1.15412
1.15279
1.15183
1.15096
1.14988
1.14851
1.147
1.14589
1.14505
1.14415
1.14296
1.14153
1.14032
1.13944
1.13861
1.13752
1.13614
1.13479
1.13379
1.13301
1.13215
1.13102
1.12959
1.12816
1.12714
1.12632
1.12539
1.12419
1.12273
1.1215
1.12058
1.1196
1.11835
1.11686
1.11567
1.11479
1.1139
1.11275
1.11127
1.10992
1.10897
1.10801
1.10689
1.10574
1.10477
1.10383
1.10275
1.10145
1.10011
1.09911
1.09834
1.0976
1.23659
1.23547
1.23438
1.23326
1.23206
1.23088
1.2298
1.22869
1.22743
1.22619
1.22511
1.22405
1.2228
1.2215
1.22039
1.21939
1.21824
1.21694
1.21577
1.21478
1.21374
1.2125
1.21126
1.2102
1.20924
1.20816
1.20689
1.20563
1.20457
1.20364
1.20256
1.20125
1.19992
1.19883
1.19789
1.1968
1.19546
1.19408
1.19302
1.19211
1.19104
1.18968
1.18828
1.1872
1.18634
1.18536
1.18409
1.1827
1.1816
1.18074
1.1798
1.17856
1.1772
1.17612
1.17529
1.1744
1.17319
1.17175
1.17054
1.16963
1.16876
1.16765
1.16626
1.16494
1.16396
1.16304
1.16191
1.16051
1.15917
1.1582
1.15737
1.15635
1.15505
1.15357
1.15245
1.15161
1.15077
1.14966
1.14831
1.14711
1.14623
1.1454
1.14433
1.14298
1.14171
1.14077
1.14002
1.13914
1.13799
1.13655
1.13517
1.1342
1.13341
1.1325
1.13133
1.12988
1.12867
1.12775
1.12676
1.12552
1.12409
1.12294
1.12207
1.12122
1.12018
1.11885
1.11731
1.11623
1.1154
1.11453
1.11351
1.11246
1.11143
1.11031
1.10908
1.1079
1.10698
1.10622
1.10544
1.10448
1.23944
1.23837
1.2373
1.23618
1.23502
1.23392
1.23286
1.2317
1.23047
1.22935
1.22832
1.22718
1.22592
1.22478
1.22379
1.22272
1.22149
1.22032
1.21934
1.21835
1.21717
1.21598
1.21499
1.21406
1.21292
1.21173
1.21069
1.20966
1.20854
1.20746
1.2064
1.2052
1.20396
1.20289
1.20191
1.20079
1.19945
1.19819
1.1972
1.19626
1.1951
1.19371
1.19248
1.19154
1.19066
1.18954
1.18822
1.187
1.18607
1.18526
1.18418
1.18288
1.18169
1.1808
1.18003
1.17898
1.17766
1.17636
1.17538
1.17456
1.17356
1.1723
1.17095
1.16992
1.16903
1.16798
1.16666
1.1653
1.16429
1.16347
1.16251
1.16129
1.15984
1.15869
1.15784
1.15704
1.15598
1.15468
1.15351
1.15265
1.15185
1.15081
1.14951
1.14828
1.14736
1.14663
1.14577
1.14465
1.14322
1.14186
1.14091
1.14013
1.13925
1.13811
1.1367
1.1355
1.13459
1.13361
1.13237
1.13098
1.1299
1.1291
1.12828
1.12725
1.12598
1.12451
1.12341
1.12259
1.12189
1.12105
1.12003
1.1189
1.1177
1.11656
1.11559
1.11478
1.11405
1.11321
1.11218
1.11091
1.24158
1.24055
1.2395
1.2384
1.23732
1.23628
1.23522
1.23408
1.23296
1.23194
1.2309
1.22975
1.22861
1.22762
1.22663
1.22551
1.22437
1.22337
1.22245
1.22137
1.22021
1.21921
1.21834
1.21732
1.21612
1.21505
1.21417
1.21318
1.21198
1.21084
1.20987
1.20884
1.20764
1.20647
1.20548
1.20446
1.20323
1.20199
1.20098
1.20005
1.19891
1.19761
1.19649
1.19558
1.19464
1.19348
1.19222
1.19118
1.19036
1.18947
1.1883
1.18705
1.18604
1.18527
1.18442
1.18325
1.18194
1.18087
1.18003
1.17913
1.17799
1.17667
1.17559
1.17471
1.17373
1.17251
1.17114
1.17007
1.16923
1.16834
1.16719
1.1658
1.16462
1.16375
1.16295
1.16192
1.16066
1.15951
1.15865
1.15789
1.1569
1.15566
1.15443
1.15351
1.15279
1.15199
)
;

boundaryField
{
    inlet
    {
        type            fixedValue;
        value           nonuniform 0();
    }
    outlet
    {
        type            inletOutlet;
        inletValue      nonuniform 0();
        value           nonuniform 0();
    }
    bottom
    {
        type            symmetryPlane;
    }
    top
    {
        type            symmetryPlane;
    }
    obstacle
    {
        type            zeroGradient;
    }
    front
    {
        type            empty;
    }
    back
    {
        type            empty;
    }
    procBoundary13to5
    {
        type            processor;
        value           nonuniform List<scalar> 
129
(
1.22652
1.21967
1.21269
1.20555
1.19819
1.19054
1.18257
1.17437
0.946219
0.945211
0.944045
0.942716
0.940676
0.937815
0.935619
0.934514
0.933852
0.932735
0.931362
0.929934
0.927723
0.924979
0.923533
1.16923
1.16726
1.16528
1.16318
1.16108
1.15918
1.15734
1.15522
1.1529
1.15082
1.14909
1.14731
1.14505
1.14256
1.14045
1.13879
1.13711
1.13486
1.13221
1.1299
1.12818
1.12664
1.1246
1.12196
1.11925
1.11727
1.11577
1.11408
1.11178
1.1089
1.10632
1.10455
1.10312
1.10134
1.09893
1.09593
1.09346
1.09183
1.09045
1.08865
1.08619
1.08315
1.08077
1.07923
1.07789
1.07611
1.07369
1.07065
1.06832
1.06682
1.06549
1.06377
1.06143
1.05843
1.0561
1.0546
1.05326
1.05159
1.04935
1.04638
1.04391
1.04239
1.04108
1.03953
1.03751
1.03469
1.03179
1.03005
1.02877
1.02745
1.02578
1.02353
1.02045
1.01789
1.01644
1.01528
1.01399
1.01234
1.01008
1.00699
1.00456
1.00322
1.00216
1.00097
0.999432
0.997316
0.994354
0.991848
0.990498
0.989504
0.988433
0.987053
0.985208
0.982527
0.979771
0.978241
0.977223
0.976266
0.975072
0.973508
0.971285
0.96837
0.96647
0.965351
0.964381
0.964381
)
;
    }
    procBoundary13to6
    {
        type            processor;
        value           nonuniform List<scalar> 5(0.940021 0.95461 0.966757 0.980766 0.993246);
    }
    procBoundary13to14
    {
        type            processor;
        value           nonuniform List<scalar> 
14
(
1.00459
1.01561
1.02662
1.03576
1.04447
1.05328
1.06112
1.06795
1.07514
1.0825
1.0897
1.09666
1.10329
1.10946
)
;
    }
    procBoundary13to20
    {
        type            processor;
        value           nonuniform List<scalar> 3(1.23424 1.23612 1.23897);
    }
    procBoundary13to21
    {
        type            processor;
        value           nonuniform List<scalar> 
129
(
1.27285
1.26913
1.26517
1.26112
1.25719
1.25348
1.2497
1.24563
1.15092
1.14955
1.1482
1.14726
1.1465
1.14565
1.14454
1.14317
1.14201
1.14114
1.14019
1.13899
1.13763
1.13658
1.1358
1.135
1.13402
1.1328
1.1314
1.13033
1.12953
1.1289
1.12818
1.12722
1.12606
1.12482
1.12377
1.12292
1.12222
1.1215
1.12062
1.11952
1.11817
1.11678
1.24303
1.24203
1.241
1.23996
1.23895
1.23796
1.23691
1.23584
1.23484
1.23389
1.23285
1.23178
1.23079
1.22987
1.22887
1.2278
1.22681
1.22593
1.22497
1.22388
1.22286
1.222
1.22109
1.21997
1.21886
1.21795
1.21708
1.216
1.2148
1.21378
1.21289
1.21186
1.21065
1.20953
1.20862
1.20766
1.20647
1.20526
1.20431
1.20343
1.20234
1.20112
1.20008
1.19921
1.19825
1.1971
1.19596
1.19504
1.19425
1.19327
1.19206
1.19093
1.19007
1.18932
1.18831
1.18707
1.18593
1.18504
1.18419
1.18314
1.18189
1.18077
1.17989
1.17899
1.17786
1.17652
1.1754
1.17456
1.17372
1.17264
1.17133
1.17014
1.16926
1.16847
1.16747
1.16626
1.16511
1.16424
1.16351
1.16258
1.1614
1.16016
1.15922
1.1585
1.15776
1.15092
1.15675
)
;
    }
    procBoundary13to28
    {
        type            processor;
        value           nonuniform List<scalar> 
16
(
1.24254
1.24627
1.24962
1.25239
1.25474
1.25694
1.2592
1.26161
1.26423
1.26704
1.2699
1.27251
1.2745
1.27566
1.27617
1.27633
)
;
    }
}


// ************************************************************************* //
