/*--------------------------------*- C++ -*----------------------------------*\
  =========                 |
  \\      /  F ield         | OpenFOAM: The Open Source CFD Toolbox
   \\    /   O peration     | Website:  https://openfoam.org
    \\  /    A nd           | Version:  7
     \\/     M anipulation  |
\*---------------------------------------------------------------------------*/
FoamFile
{
    version     2.0;
    format      ascii;
    class       surfaceScalarField;
    location    "0.062";
    object      phi;
}
// * * * * * * * * * * * * * * * * * * * * * * * * * * * * * * * * * * * * * //

dimensions      [0 3 -1 0 0 0 0];

internalField   nonuniform List<scalar> 
79600
(
5.8495e-13
-1.62774e-12
1.17952e-11
-1.12051e-11
3.03627e-11
-1.85725e-11
5.27973e-11
-2.24375e-11
7.62862e-11
-2.34906e-11
9.87122e-11
-2.24268e-11
1.18511e-10
-1.97959e-11
1.34535e-10
-1.60243e-11
1.45956e-10
-1.14234e-11
1.52181e-10
-6.22438e-12
1.52784e-10
-6.03139e-13
1.47478e-10
5.30712e-12
1.36074e-10
1.1405e-11
1.1846e-10
1.7613e-11
9.45916e-11
2.38684e-11
6.44696e-11
3.0121e-11
2.81394e-11
3.63305e-11
-1.43242e-11
4.24642e-11
-6.28217e-11
4.84966e-11
-1.17229e-10
5.4407e-11
-1.77407e-10
6.01771e-11
-2.432e-10
6.5793e-11
-3.14443e-10
7.12434e-11
-3.90959e-10
7.65184e-11
-4.72568e-10
8.16097e-11
-5.5908e-10
8.65113e-11
-6.50301e-10
9.12194e-11
-7.46032e-10
9.57304e-11
-8.46074e-10
1.00041e-10
-9.50224e-10
1.04149e-10
-1.05828e-09
1.08053e-10
-1.17003e-09
1.11753e-10
-1.28528e-09
1.15247e-10
-1.40381e-09
1.18535e-10
-1.52543e-09
1.21619e-10
-1.64993e-09
1.245e-10
-1.77711e-09
1.27178e-10
-1.90676e-09
1.29654e-10
-2.03869e-09
1.3193e-10
-2.1727e-09
1.34007e-10
-2.30859e-09
1.35889e-10
-2.44617e-09
1.37577e-10
-2.58524e-09
1.39075e-10
-2.72563e-09
1.40383e-10
-2.86713e-09
1.41503e-10
-3.00957e-09
1.42439e-10
-3.15276e-09
1.43193e-10
-3.29653e-09
1.43769e-10
-3.4407e-09
1.44167e-10
-3.58509e-09
1.44393e-10
-3.72954e-09
1.44448e-10
-3.87387e-09
1.44336e-10
-4.01793e-09
1.44059e-10
-4.16155e-09
1.4362e-10
-4.30457e-09
1.43023e-10
-4.44684e-09
1.4227e-10
-4.58821e-09
1.41365e-10
-4.72852e-09
1.40311e-10
-4.86763e-09
1.39112e-10
-5.0054e-09
1.37769e-10
-5.14169e-09
1.36286e-10
-5.27635e-09
1.34665e-10
-5.40926e-09
1.32912e-10
-5.54029e-09
1.31028e-10
-5.66931e-09
1.29016e-10
-5.79619e-09
1.26881e-10
-5.92081e-09
1.24625e-10
-6.04307e-09
1.22251e-10
-6.16283e-09
1.19763e-10
-6.27999e-09
1.17163e-10
-6.39444e-09
1.14454e-10
-6.50608e-09
1.11641e-10
-6.61481e-09
1.08726e-10
-6.72052e-09
1.05713e-10
-6.82313e-09
1.02604e-10
-6.92253e-09
9.9403e-11
-7.01864e-09
9.61127e-11
-7.11138e-09
9.27365e-11
-7.20066e-09
8.92781e-11
-7.2864e-09
8.57403e-11
-7.36852e-09
8.21264e-11
-7.44696e-09
7.84395e-11
-7.52165e-09
7.46829e-11
-7.59251e-09
7.08602e-11
-7.65948e-09
6.69744e-11
-7.72251e-09
6.30288e-11
-7.78154e-09
5.90266e-11
-7.83651e-09
5.49713e-11
-7.88737e-09
5.08661e-11
-7.93409e-09
4.67147e-11
-7.97661e-09
4.25203e-11
-8.01489e-09
3.82861e-11
-8.04891e-09
3.40155e-11
-8.07862e-09
2.97118e-11
-8.104e-09
2.53786e-11
-8.12502e-09
2.10196e-11
-8.14166e-09
1.66384e-11
-8.1539e-09
1.22384e-11
-8.16172e-09
7.82294e-12
-8.16511e-09
3.39565e-12
-8.16407e-09
-1.03992e-12
-8.1586e-09
-5.47997e-12
-8.14867e-09
-9.92074e-12
-8.13432e-09
-1.43586e-11
-8.11553e-09
-1.87898e-11
-8.09231e-09
-2.32108e-11
-8.0647e-09
-2.76177e-11
-8.03269e-09
-3.20069e-11
-7.99632e-09
-3.63743e-11
-7.9556e-09
-4.07161e-11
-7.91057e-09
-4.50284e-11
-7.86126e-09
-4.93072e-11
-7.80772e-09
-5.35486e-11
-7.74997e-09
-5.77487e-11
-7.68806e-09
-6.19036e-11
-7.62205e-09
-6.60095e-11
-7.55199e-09
-7.00624e-11
-7.47793e-09
-7.40581e-11
-7.39994e-09
-7.79923e-11
-7.31808e-09
-8.18607e-11
-7.23242e-09
-8.56593e-11
-7.14304e-09
-8.93845e-11
-7.05e-09
-9.30323e-11
-6.95341e-09
-9.65984e-11
-6.85333e-09
-1.00078e-10
-6.74986e-09
-1.03468e-10
-6.6431e-09
-1.06764e-10
-6.53313e-09
-1.09961e-10
-6.42008e-09
-1.13055e-10
-6.30404e-09
-1.16044e-10
-6.18511e-09
-1.18921e-10
-6.06343e-09
-1.21684e-10
-5.9391e-09
-1.24329e-10
-5.81225e-09
-1.2685e-10
-5.68301e-09
-1.29245e-10
-5.5515e-09
-1.31509e-10
-5.41786e-09
-1.33639e-10
-5.28223e-09
-1.35631e-10
-5.14475e-09
-1.37479e-10
-5.00557e-09
-1.39182e-10
-4.86483e-09
-1.40735e-10
-4.72269e-09
-1.42135e-10
-4.57932e-09
-1.43378e-10
-4.43486e-09
-1.4446e-10
-4.28948e-09
-1.45379e-10
-4.14335e-09
-1.46129e-10
-3.99664e-09
-1.4671e-10
-3.84952e-09
-1.47116e-10
-3.70217e-09
-1.47346e-10
-3.55478e-09
-1.47395e-10
-3.40752e-09
-1.47262e-10
-3.26057e-09
-1.46944e-10
-3.11414e-09
-1.46437e-10
-2.9684e-09
-1.45739e-10
-2.82355e-09
-1.44848e-10
-2.67979e-09
-1.43762e-10
-2.53731e-09
-1.42479e-10
-2.39631e-09
-1.40996e-10
-2.257e-09
-1.39313e-10
-2.11957e-09
-1.37426e-10
-1.98423e-09
-1.35337e-10
-1.85119e-09
-1.33042e-10
-1.72065e-09
-1.30542e-10
-1.59281e-09
-1.27835e-10
-1.46789e-09
-1.24922e-10
-1.34609e-09
-1.21801e-10
-1.22762e-09
-1.18475e-10
-1.11267e-09
-1.14942e-10
-1.00147e-09
-1.11204e-10
-8.94206e-10
-1.07263e-10
-7.91084e-10
-1.03121e-10
-6.92304e-10
-9.87798e-11
-5.9806e-10
-9.42432e-11
-5.08544e-10
-8.9515e-11
-4.23945e-10
-8.45995e-11
-3.44442e-10
-7.95024e-11
-2.70212e-10
-7.42304e-11
-2.0142e-10
-6.87918e-11
-1.38224e-10
-6.31962e-11
-8.07691e-11
-5.74547e-11
-2.91886e-11
-5.15807e-11
1.64021e-11
-4.55905e-11
5.59064e-11
-3.95038e-11
8.92505e-11
-3.33438e-11
1.16389e-10
-2.71385e-11
1.37311e-10
-2.0922e-11
1.52047e-10
-1.47361e-11
1.6068e-10
-8.63251e-12
1.63356e-10
-2.67537e-12
1.60301e-10
3.05467e-12
1.51847e-10
8.45468e-12
1.38455e-10
1.3392e-11
1.20763e-10
1.76928e-11
9.96376e-11
2.11257e-11
7.62593e-11
2.3379e-11
5.22242e-11
2.4036e-11
2.96643e-11
2.2561e-11
1.1379e-11
1.82863e-11
8.25428e-13
1.05538e-11
8.25431e-13
1.06646e-11
-1.22867e-11
3.99381e-11
-4.04878e-11
8.2333e-11
-6.09549e-11
1.31732e-10
-7.18325e-11
1.82567e-10
-7.43274e-11
2.30172e-10
-7.00316e-11
2.70795e-10
-6.04186e-11
3.015e-10
-4.6728e-11
3.20032e-10
-2.99519e-11
3.2468e-10
-1.08724e-11
3.14176e-10
9.89672e-12
2.87607e-10
3.18738e-11
2.44338e-10
5.46749e-11
1.8396e-10
7.79933e-11
1.06245e-10
1.01583e-10
1.11164e-11
1.25247e-10
-1.01377e-10
1.48823e-10
-2.3109e-10
1.72179e-10
-3.77797e-10
1.95205e-10
-5.41202e-10
2.17811e-10
-7.20953e-10
2.39927e-10
-9.16651e-10
2.6149e-10
-1.12786e-09
2.82451e-10
-1.35411e-09
3.02767e-10
-1.59491e-09
3.22406e-10
-1.84973e-09
3.4134e-10
-2.11806e-09
3.59545e-10
-2.39933e-09
3.77004e-10
-2.69299e-09
3.93703e-10
-2.99847e-09
4.09632e-10
-3.3152e-09
4.24783e-10
-3.6426e-09
4.3915e-10
-3.98008e-09
4.52731e-10
-4.32707e-09
4.65523e-10
-4.68298e-09
4.77528e-10
-5.04723e-09
4.88746e-10
-5.41923e-09
4.99182e-10
-5.79842e-09
5.08839e-10
-6.18421e-09
5.17722e-10
-6.57604e-09
5.25836e-10
-6.97334e-09
5.33189e-10
-7.37554e-09
5.39788e-10
-7.78211e-09
5.4564e-10
-8.19248e-09
5.50755e-10
-8.60612e-09
5.55141e-10
-9.02249e-09
5.58809e-10
-9.44106e-09
5.61768e-10
-9.86132e-09
5.64027e-10
-1.02828e-08
5.65598e-10
-1.07048e-08
5.6649e-10
-1.11271e-08
5.66715e-10
-1.15491e-08
5.66284e-10
-1.19702e-08
5.65209e-10
-1.23901e-08
5.63501e-10
-1.28082e-08
5.61172e-10
-1.32242e-08
5.58232e-10
-1.36375e-08
5.54695e-10
-1.40478e-08
5.50572e-10
-1.44546e-08
5.45875e-10
-1.48574e-08
5.40616e-10
-1.52559e-08
5.34809e-10
-1.56497e-08
5.28464e-10
-1.60384e-08
5.21594e-10
-1.64216e-08
5.14212e-10
-1.67989e-08
5.06328e-10
-1.717e-08
4.97957e-10
-1.75345e-08
4.8911e-10
-1.7892e-08
4.798e-10
-1.82423e-08
4.7004e-10
-1.8585e-08
4.59842e-10
-1.89197e-08
4.49217e-10
-1.92463e-08
4.38179e-10
-1.95643e-08
4.26741e-10
-1.98735e-08
4.14914e-10
-2.01736e-08
4.02713e-10
-2.04643e-08
3.90149e-10
-2.07455e-08
3.77234e-10
-2.10167e-08
3.63981e-10
-2.12778e-08
3.50403e-10
-2.15286e-08
3.36514e-10
-2.17688e-08
3.22325e-10
-2.19982e-08
3.07849e-10
-2.22166e-08
2.93099e-10
-2.24238e-08
2.78088e-10
-2.26197e-08
2.62829e-10
-2.2804e-08
2.47336e-10
-2.29766e-08
2.3162e-10
-2.31373e-08
2.15695e-10
-2.3286e-08
1.99575e-10
-2.34226e-08
1.83271e-10
-2.35469e-08
1.66799e-10
-2.36588e-08
1.50171e-10
-2.37581e-08
1.33401e-10
-2.38449e-08
1.16502e-10
-2.3919e-08
9.9487e-11
-2.39804e-08
8.23709e-11
-2.40289e-08
6.51673e-11
-2.40646e-08
4.78901e-11
-2.40873e-08
3.05532e-11
-2.40971e-08
1.31708e-11
-2.40939e-08
-4.24291e-12
-2.40777e-08
-2.16736e-11
-2.40485e-08
-3.91069e-11
-2.40063e-08
-5.65282e-11
-2.39512e-08
-7.39229e-11
-2.38831e-08
-9.12761e-11
-2.38022e-08
-1.08573e-10
-2.37084e-08
-1.25798e-10
-2.36018e-08
-1.42937e-10
-2.34826e-08
-1.59975e-10
-2.33507e-08
-1.76896e-10
-2.32063e-08
-1.93685e-10
-2.30495e-08
-2.10326e-10
-2.28805e-08
-2.26804e-10
-2.26993e-08
-2.43103e-10
-2.25061e-08
-2.59208e-10
-2.2301e-08
-2.75102e-10
-2.20843e-08
-2.90771e-10
-2.18561e-08
-3.06197e-10
-2.16166e-08
-3.21366e-10
-2.1366e-08
-3.3626e-10
-2.11045e-08
-3.50864e-10
-2.08324e-08
-3.65162e-10
-2.05499e-08
-3.79137e-10
-2.02572e-08
-3.92775e-10
-1.99546e-08
-4.06058e-10
-1.96424e-08
-4.1897e-10
-1.93208e-08
-4.31496e-10
-1.89903e-08
-4.43618e-10
-1.8651e-08
-4.55321e-10
-1.83033e-08
-4.6659e-10
-1.79476e-08
-4.77409e-10
-1.75842e-08
-4.87761e-10
-1.72134e-08
-4.97632e-10
-1.68356e-08
-5.07005e-10
-1.64513e-08
-5.15865e-10
-1.60607e-08
-5.24197e-10
-1.56644e-08
-5.31987e-10
-1.52626e-08
-5.39218e-10
-1.48559e-08
-5.45877e-10
-1.44447e-08
-5.51949e-10
-1.40294e-08
-5.5742e-10
-1.36105e-08
-5.62276e-10
-1.31885e-08
-5.66503e-10
-1.27638e-08
-5.70089e-10
-1.23369e-08
-5.73019e-10
-1.19083e-08
-5.75282e-10
-1.14786e-08
-5.76865e-10
-1.10482e-08
-5.77756e-10
-1.06176e-08
-5.77945e-10
-1.01875e-08
-5.7742e-10
-9.75823e-09
-5.76171e-10
-9.33048e-09
-5.74187e-10
-8.90476e-09
-5.7146e-10
-8.48163e-09
-5.6798e-10
-8.06165e-09
-5.63739e-10
-7.6454e-09
-5.5873e-10
-7.23345e-09
-5.52946e-10
-6.82638e-09
-5.4638e-10
-6.42478e-09
-5.39028e-10
-6.02923e-09
-5.30885e-10
-5.64033e-09
-5.21947e-10
-5.25866e-09
-5.12213e-10
-4.88481e-09
-5.0168e-10
-4.51939e-09
-4.90348e-10
-4.16297e-09
-4.78217e-10
-3.81615e-09
-4.65292e-10
-3.47952e-09
-4.51574e-10
-3.15365e-09
-4.3707e-10
-2.83913e-09
-4.21787e-10
-2.53652e-09
-4.05734e-10
-2.24637e-09
-3.88923e-10
-1.96925e-09
-3.71369e-10
-1.70567e-09
-3.53089e-10
-1.45617e-09
-3.34103e-10
-1.22123e-09
-3.14438e-10
-1.00134e-09
-2.94121e-10
-7.96945e-10
-2.73188e-10
-6.08459e-10
-2.51681e-10
-4.36266e-10
-2.29647e-10
-2.80702e-10
-2.07144e-10
-1.42053e-10
-1.84239e-10
-2.05423e-11
-1.61014e-10
8.36805e-11
-1.37565e-10
1.70551e-10
-1.14008e-10
2.4011e-10
-9.04805e-11
2.92525e-10
-6.71505e-11
3.28116e-10
-4.42226e-11
3.47388e-10
-2.19473e-11
3.51078e-10
-6.34184e-13
3.40201e-10
1.93321e-11
3.16125e-10
3.74685e-11
2.80651e-10
5.31665e-11
2.36122e-10
6.56553e-11
1.85539e-10
7.39625e-11
1.32686e-10
7.6888e-11
8.22141e-11
7.30329e-11
3.95744e-11
6.09265e-11
1.05484e-11
3.95806e-11
1.13736e-11
1.83247e-11
-3.0617e-11
6.05894e-11
-8.27567e-11
1.17879e-10
-1.18243e-10
1.82275e-10
-1.36228e-10
2.46645e-10
-1.38694e-10
3.04822e-10
-1.28209e-10
3.5166e-10
-1.0726e-10
3.82975e-10
-7.80423e-11
3.95426e-10
-4.24003e-11
3.86398e-10
-1.84409e-12
3.53893e-10
4.24014e-11
2.96417e-10
8.9349e-11
2.12897e-10
1.38195e-10
1.02607e-10
1.88283e-10
-3.4892e-11
2.39082e-10
-1.99802e-10
2.90156e-10
-3.92124e-10
3.41144e-10
-6.11697e-10
3.91751e-10
-8.58224e-10
4.4173e-10
-1.13129e-09
4.90878e-10
-1.43038e-09
5.39023e-10
-1.75492e-09
5.86025e-10
-2.10424e-09
6.31768e-10
-2.47762e-09
6.76153e-10
-2.87431e-09
7.19099e-10
-3.29352e-09
7.6054e-10
-3.7344e-09
8.00422e-10
-4.19609e-09
8.387e-10
-4.67773e-09
8.7534e-10
-5.17841e-09
9.10313e-10
-5.69723e-09
9.43598e-10
-6.23326e-09
9.75181e-10
-6.78558e-09
1.00505e-09
-7.35326e-09
1.0332e-09
-7.93536e-09
1.05963e-09
-8.53096e-09
1.08434e-09
-9.13911e-09
1.10734e-09
-9.7589e-09
1.12863e-09
-1.03894e-08
1.14822e-09
-1.10297e-08
1.16612e-09
-1.16788e-08
1.18235e-09
-1.2336e-08
1.19692e-09
-1.30002e-08
1.20984e-09
-1.36706e-08
1.22115e-09
-1.43463e-08
1.23084e-09
-1.50264e-08
1.23895e-09
-1.57101e-08
1.24549e-09
-1.63966e-08
1.25049e-09
-1.7085e-08
1.25397e-09
-1.77744e-08
1.25595e-09
-1.84642e-08
1.25645e-09
-1.91534e-08
1.2555e-09
-1.98413e-08
1.25313e-09
-2.05272e-08
1.24935e-09
-2.12102e-08
1.2442e-09
-2.18897e-08
1.2377e-09
-2.25648e-08
1.22987e-09
-2.3235e-08
1.22075e-09
-2.38995e-08
1.21035e-09
-2.45576e-08
1.19871e-09
-2.52086e-08
1.18584e-09
-2.58519e-08
1.17179e-09
-2.64869e-08
1.15657e-09
-2.71129e-08
1.14021e-09
-2.77293e-08
1.12275e-09
-2.83356e-08
1.10419e-09
-2.8931e-08
1.08459e-09
-2.95152e-08
1.06395e-09
-3.00875e-08
1.04232e-09
-3.06473e-08
1.01971e-09
-3.11943e-08
9.96153e-10
-3.17278e-08
9.71681e-10
-3.22474e-08
9.46319e-10
-3.27525e-08
9.20095e-10
-3.32429e-08
8.93036e-10
-3.37179e-08
8.65172e-10
-3.41772e-08
8.36529e-10
-3.46203e-08
8.07136e-10
-3.50469e-08
7.77022e-10
-3.54566e-08
7.46213e-10
-3.58491e-08
7.1474e-10
-3.62238e-08
6.8263e-10
-3.65807e-08
6.49911e-10
-3.69192e-08
6.16613e-10
-3.72391e-08
5.82764e-10
-3.75402e-08
5.48393e-10
-3.78221e-08
5.1353e-10
-3.80846e-08
4.78203e-10
-3.83275e-08
4.42441e-10
-3.85505e-08
4.06275e-10
-3.87534e-08
3.69733e-10
-3.89361e-08
3.32845e-10
-3.90983e-08
2.95642e-10
-3.924e-08
2.58154e-10
-3.93609e-08
2.20411e-10
-3.9461e-08
1.82444e-10
-3.95401e-08
1.44283e-10
-3.95981e-08
1.05959e-10
-3.96351e-08
6.75038e-11
-3.96509e-08
2.89487e-11
-3.96454e-08
-9.67457e-12
-3.96188e-08
-4.83342e-11
-3.95709e-08
-8.69983e-11
-3.95018e-08
-1.25634e-10
-3.94115e-08
-1.6421e-10
-3.93001e-08
-2.02692e-10
-3.91676e-08
-2.41048e-10
-3.90142e-08
-2.79244e-10
-3.88398e-08
-3.17247e-10
-3.86448e-08
-3.55023e-10
-3.84292e-08
-3.92538e-10
-3.81931e-08
-4.29758e-10
-3.79368e-08
-4.66649e-10
-3.76604e-08
-5.03176e-10
-3.73642e-08
-5.39306e-10
-3.70484e-08
-5.75002e-10
-3.67133e-08
-6.10229e-10
-3.63591e-08
-6.44954e-10
-3.59861e-08
-6.79139e-10
-3.55948e-08
-7.12751e-10
-3.51853e-08
-7.45753e-10
-3.4758e-08
-7.7811e-10
-3.43134e-08
-8.09786e-10
-3.38518e-08
-8.40746e-10
-3.33736e-08
-8.70954e-10
-3.28793e-08
-9.00374e-10
-3.23693e-08
-9.28971e-10
-3.18441e-08
-9.5671e-10
-3.13041e-08
-9.83555e-10
-3.075e-08
-1.00947e-09
-3.01822e-08
-1.03442e-09
-2.96012e-08
-1.05837e-09
-2.90077e-08
-1.08129e-09
-2.84022e-08
-1.10313e-09
-2.77853e-08
-1.12388e-09
-2.71577e-08
-1.14349e-09
-2.65199e-08
-1.16193e-09
-2.58728e-08
-1.17916e-09
-2.52168e-08
-1.19516e-09
-2.45528e-08
-1.20989e-09
-2.38814e-08
-1.22332e-09
-2.32034e-08
-1.23542e-09
-2.25196e-08
-1.24616e-09
-2.18306e-08
-1.2555e-09
-2.11372e-08
-1.26343e-09
-2.04403e-08
-1.26991e-09
-1.97407e-08
-1.27491e-09
-1.90391e-08
-1.27841e-09
-1.83365e-08
-1.28039e-09
-1.76337e-08
-1.28081e-09
-1.69314e-08
-1.27965e-09
-1.62307e-08
-1.27689e-09
-1.55324e-08
-1.27251e-09
-1.48373e-08
-1.2665e-09
-1.41465e-08
-1.25882e-09
-1.34608e-08
-1.24947e-09
-1.27811e-08
-1.23842e-09
-1.21084e-08
-1.22567e-09
-1.14435e-08
-1.21119e-09
-1.07876e-08
-1.19499e-09
-1.01414e-08
-1.17705e-09
-9.506e-09
-1.15737e-09
-8.88228e-09
-1.13593e-09
-8.27122e-09
-1.11274e-09
-7.67376e-09
-1.08781e-09
-7.09085e-09
-1.06113e-09
-6.52344e-09
-1.0327e-09
-5.97246e-09
-1.00255e-09
-5.43884e-09
-9.70689e-10
-4.92349e-09
-9.37129e-10
-4.42733e-09
-9.01897e-10
-3.95123e-09
-8.65023e-10
-3.49606e-09
-8.26541e-10
-3.06265e-09
-7.86494e-10
-2.65182e-09
-7.44932e-10
-2.26435e-09
-7.01914e-10
-1.90096e-09
-6.57509e-10
-1.56235e-09
-6.118e-10
-1.24914e-09
-5.64883e-10
-9.61921e-10
-5.1687e-10
-7.01169e-10
-4.67895e-10
-4.67294e-10
-4.18114e-10
-2.60598e-10
-3.6771e-10
-8.12592e-11
-3.16903e-10
7.06865e-11
-2.65953e-10
1.95375e-10
-2.15169e-10
2.93146e-10
-1.64921e-10
3.64581e-10
-1.15658e-10
4.10554e-10
-6.79194e-11
4.32284e-10
-2.23642e-11
4.31413e-10
2.02041e-11
4.10082e-10
5.88005e-11
3.71034e-10
9.22156e-11
3.1772e-10
1.1897e-10
2.5441e-10
1.37274e-10
1.86281e-10
1.45018e-10
1.19455e-10
1.39859e-10
6.09184e-11
1.19464e-10
1.82755e-11
8.22245e-11
2.96487e-11
2.23273e-11
-5.29378e-11
7.16664e-11
-1.32099e-10
1.36084e-10
-1.82665e-10
2.06008e-10
-2.06151e-10
2.73157e-10
-2.05841e-10
3.30398e-10
-1.85449e-10
3.71689e-10
-1.48551e-10
3.92004e-10
-9.83568e-11
3.87234e-10
-3.76314e-11
3.54087e-10
3.13015e-11
2.89981e-10
1.06509e-10
1.92937e-10
1.86393e-10
6.14953e-11
2.69635e-10
-1.05365e-10
3.55143e-10
-3.08297e-10
4.42014e-10
-5.47642e-10
5.295e-10
-8.23477e-10
6.16979e-10
-1.13566e-09
7.03931e-10
-1.48385e-09
7.89922e-10
-1.86756e-09
8.7459e-10
-2.28617e-09
9.5763e-10
-2.73893e-09
1.03879e-09
-3.22501e-09
1.11785e-09
-3.74349e-09
1.19463e-09
-4.29337e-09
1.26899e-09
-4.87363e-09
1.3408e-09
-5.48317e-09
1.40996e-09
-6.12085e-09
1.47638e-09
-6.78551e-09
1.54e-09
-7.47596e-09
1.60076e-09
-8.19099e-09
1.65863e-09
-8.92937e-09
1.71356e-09
-9.68985e-09
1.76553e-09
-1.04712e-08
1.81454e-09
-1.12721e-08
1.86058e-09
-1.20914e-08
1.90363e-09
-1.29278e-08
1.94371e-09
-1.378e-08
1.98083e-09
-1.46468e-08
2.015e-09
-1.55269e-08
2.04623e-09
-1.64191e-08
2.07455e-09
-1.73222e-08
2.09999e-09
-1.82349e-08
2.12256e-09
-1.9156e-08
2.1423e-09
-2.00844e-08
2.15923e-09
-2.10189e-08
2.1734e-09
-2.19582e-08
2.18483e-09
-2.29013e-08
2.19356e-09
-2.3847e-08
2.19964e-09
-2.47941e-08
2.20309e-09
-2.57416e-08
2.20397e-09
-2.66884e-08
2.2023e-09
-2.76334e-08
2.19814e-09
-2.85756e-08
2.19152e-09
-2.95139e-08
2.18249e-09
-3.04473e-08
2.17109e-09
-3.13748e-08
2.15738e-09
-3.22954e-08
2.14138e-09
-3.32082e-08
2.12316e-09
-3.41123e-08
2.10275e-09
-3.50066e-08
2.08021e-09
-3.58904e-08
2.05557e-09
-3.67627e-08
2.02889e-09
-3.76227e-08
2.00021e-09
-3.84695e-08
1.96958e-09
-3.93024e-08
1.93705e-09
-4.01205e-08
1.90267e-09
-4.0923e-08
1.86648e-09
-4.17092e-08
1.82853e-09
-4.24784e-08
1.78887e-09
-4.32298e-08
1.74756e-09
-4.39627e-08
1.70463e-09
-4.46765e-08
1.66014e-09
-4.53706e-08
1.61413e-09
-4.60442e-08
1.56666e-09
-4.66968e-08
1.51777e-09
-4.73278e-08
1.46751e-09
-4.79366e-08
1.41594e-09
-4.85227e-08
1.3631e-09
-4.90855e-08
1.30904e-09
-4.96246e-08
1.25381e-09
-5.01394e-08
1.19747e-09
-5.06295e-08
1.14005e-09
-5.10945e-08
1.08162e-09
-5.1534e-08
1.02222e-09
-5.19475e-08
9.61905e-10
-5.23347e-08
9.00724e-10
-5.26952e-08
8.38728e-10
-5.30288e-08
7.75971e-10
-5.3335e-08
7.12503e-10
-5.36136e-08
6.48377e-10
-5.38644e-08
5.83645e-10
-5.40871e-08
5.1836e-10
-5.42816e-08
4.52575e-10
-5.44475e-08
3.86343e-10
-5.45848e-08
3.19719e-10
-5.46932e-08
2.52756e-10
-5.47728e-08
1.8551e-10
-5.48233e-08
1.18034e-10
-5.48448e-08
5.03842e-11
-5.48371e-08
-1.73835e-11
-5.48002e-08
-8.52133e-11
-5.47341e-08
-1.53049e-10
-5.46389e-08
-2.20833e-10
-5.45146e-08
-2.88508e-10
-5.43613e-08
-3.56018e-10
-5.4179e-08
-4.23303e-10
-5.3968e-08
-4.90305e-10
-5.37283e-08
-5.56966e-10
-5.34601e-08
-6.23227e-10
-5.31636e-08
-6.89027e-10
-5.2839e-08
-7.54306e-10
-5.24867e-08
-8.19006e-10
-5.21068e-08
-8.83065e-10
-5.16997e-08
-9.46422e-10
-5.12657e-08
-1.00902e-09
-5.08051e-08
-1.07079e-09
-5.03184e-08
-1.13167e-09
-4.98059e-08
-1.19161e-09
-4.92681e-08
-1.25053e-09
-4.87055e-08
-1.30839e-09
-4.81185e-08
-1.36511e-09
-4.75076e-08
-1.42063e-09
-4.68735e-08
-1.4749e-09
-4.62166e-08
-1.52784e-09
-4.55376e-08
-1.5794e-09
-4.4837e-08
-1.62952e-09
-4.41156e-08
-1.67813e-09
-4.3374e-08
-1.72516e-09
-4.26129e-08
-1.77057e-09
-4.1833e-08
-1.81428e-09
-4.10352e-08
-1.85624e-09
-4.02201e-08
-1.89638e-09
-3.93886e-08
-1.93465e-09
-3.85414e-08
-1.97099e-09
-3.76796e-08
-2.00533e-09
-3.68039e-08
-2.03762e-09
-3.59153e-08
-2.06781e-09
-3.50146e-08
-2.09582e-09
-3.41029e-08
-2.12161e-09
-3.31811e-08
-2.14513e-09
-3.22502e-08
-2.16632e-09
-3.13112e-08
-2.18512e-09
-3.03652e-08
-2.20149e-09
-2.94133e-08
-2.21537e-09
-2.84565e-08
-2.22672e-09
-2.74959e-08
-2.23548e-09
-2.65327e-08
-2.24162e-09
-2.5568e-08
-2.24509e-09
-2.46029e-08
-2.24584e-09
-2.36388e-08
-2.24384e-09
-2.26766e-08
-2.23904e-09
-2.17177e-08
-2.23142e-09
-2.07633e-08
-2.22093e-09
-1.98145e-08
-2.20754e-09
-1.88728e-08
-2.19123e-09
-1.79392e-08
-2.17197e-09
-1.70152e-08
-2.14974e-09
-1.61018e-08
-2.12451e-09
-1.52006e-08
-2.09627e-09
-1.43126e-08
-2.06501e-09
-1.34393e-08
-2.03071e-09
-1.25818e-08
-1.99337e-09
-1.17416e-08
-1.953e-09
-1.09198e-08
-1.90959e-09
-1.01178e-08
-1.86315e-09
-9.33675e-09
-1.8137e-09
-8.57804e-09
-1.76127e-09
-7.84286e-09
-1.70587e-09
-7.13243e-09
-1.64755e-09
-6.44797e-09
-1.58636e-09
-5.79066e-09
-1.52234e-09
-5.16163e-09
-1.45557e-09
-4.56201e-09
-1.38612e-09
-3.99286e-09
-1.31409e-09
-3.45519e-09
-1.23958e-09
-2.94997e-09
-1.16273e-09
-2.47808e-09
-1.08369e-09
-2.04035e-09
-1.00262e-09
-1.63748e-09
-9.1974e-10
-1.27009e-09
-8.35285e-10
-9.38665e-10
-7.49534e-10
-6.43559e-10
-6.62816e-10
-3.84944e-10
-5.75518e-10
-1.628e-10
-4.88096e-10
2.31205e-11
-4.01089e-10
1.73338e-10
-3.15139e-10
2.88688e-10
-2.31008e-10
3.70379e-10
-1.4961e-10
4.20057e-10
-7.20412e-11
4.39879e-10
3.82158e-13
4.32602e-10
6.60775e-11
4.01676e-10
1.23142e-10
3.51341e-10
1.69305e-10
2.86719e-10
2.01896e-10
2.13893e-10
2.17844e-10
1.39962e-10
2.1379e-10
7.30732e-11
1.86353e-10
2.25576e-11
1.32741e-10
5.22067e-11
2.34784e-11
-7.64131e-11
7.43964e-11
-1.83017e-10
1.38934e-10
-2.472e-10
2.06234e-10
-2.73452e-10
2.67155e-10
-2.66765e-10
3.13897e-10
-2.3219e-10
3.39824e-10
-1.74474e-10
3.39348e-10
-9.78805e-11
3.07836e-10
-6.12122e-12
2.4151e-10
9.76258e-11
1.37351e-10
2.1067e-10
-6.99944e-12
3.30745e-10
-1.93319e-10
4.55954e-10
-4.22884e-10
5.84705e-10
-6.96537e-10
7.15667e-10
-1.01476e-09
8.47721e-10
-1.3777e-09
9.79926e-10
-1.78526e-09
1.11149e-09
-2.23709e-09
1.24175e-09
-2.73265e-09
1.37014e-09
-3.27121e-09
1.49619e-09
-3.85192e-09
1.6195e-09
-4.47381e-09
1.73973e-09
-5.13578e-09
1.85659e-09
-5.83664e-09
1.96985e-09
-6.57515e-09
2.07931e-09
-7.34999e-09
2.18479e-09
-8.15978e-09
2.28617e-09
-9.0031e-09
2.38332e-09
-9.8785e-09
2.47616e-09
-1.07845e-08
2.56462e-09
-1.17196e-08
2.64863e-09
-1.26822e-08
2.72816e-09
-1.36708e-08
2.80317e-09
-1.46839e-08
2.87366e-09
-1.57199e-08
2.93961e-09
-1.67772e-08
3.00103e-09
-1.78543e-08
3.05793e-09
-1.89496e-08
3.11031e-09
-2.00616e-08
3.15821e-09
-2.11887e-08
3.20165e-09
-2.23294e-08
3.24067e-09
-2.34821e-08
3.27531e-09
-2.46454e-08
3.3056e-09
-2.58178e-08
3.33159e-09
-2.69977e-08
3.35333e-09
-2.81837e-08
3.37087e-09
-2.93744e-08
3.38427e-09
-3.05684e-08
3.39358e-09
-3.17641e-08
3.39886e-09
-3.29603e-08
3.40017e-09
-3.41556e-08
3.39757e-09
-3.53486e-08
3.39113e-09
-3.6538e-08
3.38091e-09
-3.77225e-08
3.36697e-09
-3.89008e-08
3.34939e-09
-4.00716e-08
3.32824e-09
-4.12338e-08
3.30357e-09
-4.23861e-08
3.27546e-09
-4.35274e-08
3.24399e-09
-4.46564e-08
3.20922e-09
-4.5772e-08
3.17122e-09
-4.68732e-08
3.13007e-09
-4.79589e-08
3.08584e-09
-4.90279e-08
3.0386e-09
-5.00793e-08
2.98843e-09
-5.1112e-08
2.93539e-09
-5.21251e-08
2.87957e-09
-5.31176e-08
2.82103e-09
-5.40886e-08
2.75985e-09
-5.50371e-08
2.69611e-09
-5.59624e-08
2.62988e-09
-5.68635e-08
2.56124e-09
-5.77396e-08
2.49025e-09
-5.85899e-08
2.41701e-09
-5.94137e-08
2.34157e-09
-6.02103e-08
2.26403e-09
-6.09788e-08
2.18445e-09
-6.17186e-08
2.10291e-09
-6.2429e-08
2.01949e-09
-6.31095e-08
1.93426e-09
-6.37593e-08
1.84731e-09
-6.4378e-08
1.75871e-09
-6.49649e-08
1.66854e-09
-6.55195e-08
1.57687e-09
-6.60414e-08
1.48379e-09
-6.65301e-08
1.38937e-09
-6.6985e-08
1.2937e-09
-6.74059e-08
1.19685e-09
-6.77923e-08
1.0989e-09
-6.81439e-08
9.99939e-10
-6.84603e-08
9.00044e-10
-6.87412e-08
7.99296e-10
-6.89864e-08
6.97778e-10
-6.91956e-08
5.95572e-10
-6.93687e-08
4.92761e-10
-6.95054e-08
3.8943e-10
-6.96055e-08
2.85663e-10
-6.9669e-08
1.81545e-10
-6.96958e-08
7.71604e-11
-6.96858e-08
-2.74036e-11
-6.96389e-08
-1.32061e-10
-6.95552e-08
-2.36724e-10
-6.94348e-08
-3.41305e-10
-6.92776e-08
-4.45715e-10
-6.90837e-08
-5.49866e-10
-6.88534e-08
-6.53667e-10
-6.85866e-08
-7.57028e-10
-6.82837e-08
-8.59859e-10
-6.79449e-08
-9.62068e-10
-6.75704e-08
-1.06356e-09
-6.71604e-08
-1.16425e-09
-6.67154e-08
-1.26404e-09
-6.62356e-08
-1.36284e-09
-6.57215e-08
-1.46055e-09
-6.51734e-08
-1.55708e-09
-6.45919e-08
-1.65234e-09
-6.39773e-08
-1.74622e-09
-6.33303e-08
-1.83864e-09
-6.26513e-08
-1.9295e-09
-6.1941e-08
-2.0187e-09
-6.12e-08
-2.10614e-09
-6.04289e-08
-2.19174e-09
-5.96284e-08
-2.2754e-09
-5.87992e-08
-2.35701e-09
-5.79421e-08
-2.43649e-09
-5.70579e-08
-2.51373e-09
-5.61474e-08
-2.58865e-09
-5.52114e-08
-2.66114e-09
-5.42509e-08
-2.73111e-09
-5.32667e-08
-2.79848e-09
-5.22598e-08
-2.86313e-09
-5.12312e-08
-2.92499e-09
-5.01819e-08
-2.98396e-09
-4.91129e-08
-3.03994e-09
-4.80254e-08
-3.09285e-09
-4.69204e-08
-3.1426e-09
-4.57991e-08
-3.1891e-09
-4.46627e-08
-3.23226e-09
-4.35123e-08
-3.272e-09
-4.23492e-08
-3.30823e-09
-4.11746e-08
-3.34087e-09
-3.99899e-08
-3.36985e-09
-3.87963e-08
-3.39507e-09
-3.75952e-08
-3.41647e-09
-3.6388e-08
-3.43397e-09
-3.5176e-08
-3.4475e-09
-3.39606e-08
-3.45698e-09
-3.27433e-08
-3.46236e-09
-3.15256e-08
-3.46357e-09
-3.03089e-08
-3.46054e-09
-2.90947e-08
-3.45322e-09
-2.78846e-08
-3.44156e-09
-2.668e-08
-3.4255e-09
-2.54825e-08
-3.405e-09
-2.42938e-08
-3.38001e-09
-2.31152e-08
-3.3505e-09
-2.19485e-08
-3.31643e-09
-2.07953e-08
-3.27778e-09
-1.9657e-08
-3.23451e-09
-1.85354e-08
-3.18662e-09
-1.7432e-08
-3.13409e-09
-1.63485e-08
-3.07691e-09
-1.52864e-08
-3.01509e-09
-1.42474e-08
-2.94864e-09
-1.32329e-08
-2.87758e-09
-1.22447e-08
-2.80193e-09
-1.12842e-08
-2.72174e-09
-1.0353e-08
-2.63705e-09
-9.45265e-09
-2.54793e-09
-8.58456e-09
-2.45445e-09
-7.7502e-09
-2.3567e-09
-6.95098e-09
-2.25479e-09
-6.18824e-09
-2.14886e-09
-5.46328e-09
-2.03904e-09
-4.77733e-09
-1.92553e-09
-4.13155e-09
-1.80851e-09
-3.52699e-09
-1.68824e-09
-2.96462e-09
-1.56499e-09
-2.44527e-09
-1.43909e-09
-1.96965e-09
-1.3109e-09
-1.53831e-09
-1.18087e-09
-1.15162e-09
-1.04951e-09
-8.09727e-10
-9.17409e-10
-5.12553e-10
-7.85269e-10
-2.59734e-10
-6.53907e-10
-5.05825e-11
-5.2429e-10
1.15964e-10
-3.97554e-10
2.414e-10
-2.75046e-10
3.27718e-10
-1.58359e-10
3.77483e-10
-4.93832e-11
3.93917e-10
4.96444e-11
3.80977e-10
1.36082e-10
3.43449e-10
2.06834e-10
2.87031e-10
2.58315e-10
2.18419e-10
2.86457e-10
1.45409e-10
2.868e-10
7.70613e-11
2.547e-10
2.4064e-11
1.85738e-10
7.62713e-11
2.25115e-11
-9.89259e-11
7.03996e-11
-2.30903e-10
1.28998e-10
-3.05796e-10
1.86674e-10
-3.31129e-10
2.33712e-10
-3.13804e-10
2.61864e-10
-2.60341e-10
2.64111e-10
-1.76721e-10
2.3451e-10
-6.82802e-11
1.68082e-10
6.0306e-11
6.07181e-11
2.04991e-10
-9.09143e-11
3.62302e-10
-2.89449e-10
5.2928e-10
-5.36907e-10
7.03411e-10
-8.34767e-10
8.82565e-10
-1.18403e-09
1.06494e-09
-1.5853e-09
1.24899e-09
-2.03881e-09
1.43343e-09
-2.54448e-09
1.61716e-09
-3.10196e-09
1.79923e-09
-3.71067e-09
1.97886e-09
-4.36983e-09
2.15536e-09
-5.0785e-09
2.32817e-09
-5.83556e-09
2.49679e-09
-6.63978e-09
2.66081e-09
-7.48981e-09
2.81989e-09
-8.38421e-09
2.97372e-09
-9.32147e-09
3.12206e-09
-1.03e-08
3.2647e-09
-1.13181e-08
3.40147e-09
-1.23742e-08
3.53223e-09
-1.34665e-08
3.65688e-09
-1.45932e-08
3.77532e-09
-1.57525e-08
3.88748e-09
-1.69426e-08
3.99332e-09
-1.81618e-08
4.0928e-09
-1.94081e-08
4.18591e-09
-2.06797e-08
4.27264e-09
-2.19748e-08
4.35301e-09
-2.32915e-08
4.42702e-09
-2.4628e-08
4.49471e-09
-2.59824e-08
4.55612e-09
-2.7353e-08
4.61127e-09
-2.8738e-08
4.66024e-09
-3.01354e-08
4.70306e-09
-3.15436e-08
4.7398e-09
-3.29608e-08
4.77053e-09
-3.43853e-08
4.79531e-09
-3.58152e-08
4.81422e-09
-3.7249e-08
4.82735e-09
-3.86849e-08
4.83476e-09
-4.01213e-08
4.83654e-09
-4.15565e-08
4.83278e-09
-4.29889e-08
4.82356e-09
-4.4417e-08
4.80898e-09
-4.58391e-08
4.78913e-09
-4.72539e-08
4.76411e-09
-4.86596e-08
4.734e-09
-5.0055e-08
4.69891e-09
-5.14384e-08
4.65893e-09
-5.28086e-08
4.61416e-09
-5.41641e-08
4.5647e-09
-5.55035e-08
4.51066e-09
-5.68256e-08
4.45214e-09
-5.81289e-08
4.38923e-09
-5.94124e-08
4.32204e-09
-6.06746e-08
4.25068e-09
-6.19145e-08
4.17524e-09
-6.31308e-08
4.09584e-09
-6.43223e-08
4.01258e-09
-6.5488e-08
3.92556e-09
-6.66268e-08
3.83489e-09
-6.77376e-08
3.74068e-09
-6.88194e-08
3.64304e-09
-6.98712e-08
3.54206e-09
-7.08921e-08
3.43786e-09
-7.1881e-08
3.33055e-09
-7.28372e-08
3.22023e-09
-7.37598e-08
3.10702e-09
-7.46479e-08
2.99101e-09
-7.55007e-08
2.87233e-09
-7.63176e-08
2.75108e-09
-7.70976e-08
2.62737e-09
-7.78402e-08
2.50131e-09
-7.85447e-08
2.37302e-09
-7.92104e-08
2.2426e-09
-7.98368e-08
2.11017e-09
-8.04233e-08
1.97583e-09
-8.09693e-08
1.83971e-09
-8.14744e-08
1.70192e-09
-8.1938e-08
1.56257e-09
-8.23599e-08
1.42177e-09
-8.27395e-08
1.27965e-09
-8.30765e-08
1.13632e-09
-8.33706e-08
9.91886e-10
-8.36215e-08
8.4648e-10
-8.3829e-08
7.00217e-10
-8.39928e-08
5.53215e-10
-8.41127e-08
4.05596e-10
-8.41886e-08
2.5748e-10
-8.42204e-08
1.08989e-10
-8.42081e-08
-3.97548e-11
-8.41515e-08
-1.88627e-10
-8.40508e-08
-3.37504e-10
-8.39058e-08
-4.8626e-10
-8.37167e-08
-6.34769e-10
-8.34837e-08
-7.82904e-10
-8.32068e-08
-9.30538e-10
-8.28863e-08
-1.07754e-09
-8.25224e-08
-1.22379e-09
-8.21153e-08
-1.36914e-09
-8.16654e-08
-1.51348e-09
-8.1173e-08
-1.65666e-09
-8.06385e-08
-1.79856e-09
-8.00623e-08
-1.93904e-09
-7.94448e-08
-2.07798e-09
-7.87867e-08
-2.21523e-09
-7.80884e-08
-2.35065e-09
-7.73505e-08
-2.48413e-09
-7.65736e-08
-2.61552e-09
-7.57584e-08
-2.74468e-09
-7.49056e-08
-2.87148e-09
-7.4016e-08
-2.99578e-09
-7.30903e-08
-3.11746e-09
-7.21293e-08
-3.23636e-09
-7.1134e-08
-3.35235e-09
-7.01052e-08
-3.46531e-09
-6.90438e-08
-3.57508e-09
-6.79509e-08
-3.68155e-09
-6.68275e-08
-3.78456e-09
-6.56746e-08
-3.884e-09
-6.44934e-08
-3.97972e-09
-6.32849e-08
-4.07159e-09
-6.20504e-08
-4.15948e-09
-6.07911e-08
-4.24326e-09
-5.95082e-08
-4.32281e-09
-5.82031e-08
-4.39798e-09
-5.6877e-08
-4.46867e-09
-5.55314e-08
-4.53473e-09
-5.41676e-08
-4.59606e-09
-5.27871e-08
-4.65252e-09
-5.13913e-08
-4.704e-09
-4.99818e-08
-4.75039e-09
-4.85601e-08
-4.79157e-09
-4.71277e-08
-4.82744e-09
-4.56863e-08
-4.85787e-09
-4.42375e-08
-4.88278e-09
-4.2783e-08
-4.90205e-09
-4.13243e-08
-4.91559e-09
-3.98634e-08
-4.92331e-09
-3.84018e-08
-4.92512e-09
-3.69414e-08
-4.92094e-09
-3.5484e-08
-4.91067e-09
-3.40313e-08
-4.89426e-09
-3.25852e-08
-4.87162e-09
-3.11475e-08
-4.8427e-09
-2.97201e-08
-4.80743e-09
-2.83048e-08
-4.76577e-09
-2.69035e-08
-4.71767e-09
-2.55182e-08
-4.66309e-09
-2.41507e-08
-4.60201e-09
-2.2803e-08
-4.5344e-09
-2.14768e-08
-4.46024e-09
-2.01742e-08
-4.37954e-09
-1.8897e-08
-4.29231e-09
-1.7647e-08
-4.19856e-09
-1.64263e-08
-4.09832e-09
-1.52366e-08
-3.99165e-09
-1.40797e-08
-3.8786e-09
-1.29575e-08
-3.75925e-09