/*--------------------------------*- C++ -*----------------------------------*\
  =========                 |
  \\      /  F ield         | OpenFOAM: The Open Source CFD Toolbox
   \\    /   O peration     | Website:  https://openfoam.org
    \\  /    A nd           | Version:  7
     \\/     M anipulation  |
\*---------------------------------------------------------------------------*/
FoamFile
{
    version     2.0;
    format      ascii;
    class       volScalarField;
    location    "0.784";
    object      T;
}
// * * * * * * * * * * * * * * * * * * * * * * * * * * * * * * * * * * * * * //

dimensions      [0 2 -2 0 0 0 0];

internalField   nonuniform List<scalar> 
12359
(
-4.22722e-76
4.2103e-62
6.71074e-208
9.68118e-41
5.34325e-70
-7.69898e-28
6.19641e-23
-7.99467e-26
2.08263e-18
-2.55741e-31
1.73122e-20
1.01799e-13
0.260889
-4.74651e-38
3.31194e-43
9.30823e-06
0.00242953
2.91076e-113
-6.37357e-116
2.16415e-51
-3.24231e-36
2.48293e-15
-1.76801e-56
-1.33214e-48
2.72105e-59
-1.01528e-54
9.47176e-150
-1.53056e-152
7.23317e-123
3.62599e-141
8.0548e-136
-3.06944e-167
1.12608e-184
-2.26751e-144
-1.9838e-196
1.87801e-136
6.68289e-92
-1.76963e-78
2.95998e-73
1.1185e-83
-1.74378e-64
-4.48727e-81
-2.52264e-99
-1.90818e-102
3.41372e-127
-1.74391e-124
-3.20003e-130
-2.26673e-138
6.81414e-119
-2.4336e-147
1.31708e-155
-2.10384e-161
1.47597e-170
1.14586e-111
-7.35137e-176
-1.54867e-181
1.14467e-104
-2.62621e-188
-1.06918e-190
1.5376e-193
1.25368e-178
-3.59537e-202
5.08423e-161
9.77164
-1.45081e-107
4.93502e-33
-1.68704e-94
4.1198e-164
-3.4343e-90
-1.12073e-08
119.401
-2.07519e-68
-1.63936e-210
-1.84751e-86
-7.88167e-46
2.95929e-199
2.23746e-173
-2.1312e-206
6.74977e-97
-1.35735e-10
-3.77359e-27
-4.68774e-122
-7.51946e-263
-1.85777e-76
0.00158093
3.85019e-74
-5.12912e-120
5.29948e-170
0.964282
0.000515383
-5.82399e-228
3.14961
-1.07272e-229
-7.06017e-100
-2.62584e-80
8.30234e-52
-2.42506e-105
-1.82296e-100
2.53287e-50
-1.56786e-63
9.97901e-23
1.2027e-223
8.62872e-75
29.5401
-6.26473e-130
4.97614e-28
8.48745e-224
0.00210149
4.63359e-83
3.68889e-29
2.88167e-108
-8.63723e-122
-1.69473e-31
2.26139e-26
-6.2325e-81
-1.93239e-153
1.93053e-25
-3.65806e-121
3.28306
-2.8454e-260
-2.13796e-108
4.30155e-23
1.48611e-168
1.97565e-36
-2.64762e-120
-4.13739e-144
1.50576e-16
-9.48939e-76
-3.80803e-206
-2.3784e-121
3.85266e-152
3.46731e-06
0.000144195
8.78307e-05
-1.54084e-225
7.42219e-37
9.62363e-152
3.09205e-38
4.42237e-219
1.93218e-17
-1.02492e-251
1.41117e-76
1.48761e-37
-6.01186e-224
6.8161e-18
2.61402e-28
-2.08428e-262
0.000663353
-2.24254e-129
8.73824e-27
1.60954e-49
4.24141e-221
7.84708e-37
8.95198e-167
-3.19947e-235
118.526
1.70997e-23
2.984e-06
-6.48572e-106
-1.67948e-169
4.56662e-34
-4.35537e-168
2.4683e-36
6.23662e-37
-8.09662e-249
-4.16694e-145
8.87172e-35
5.82614e-24
1.32633e-38
0.878213
1.48041e-202
6.9647e-201
8.04452e-40
6.65167e-62
-1.38246e-131
7.88293e-18
3.3179e-125
1.54498e-126
-2.71191e-31
8.83246e-19
-3.17835e-38
2.95323e-233
-9.84686e-206
-4.3131e-121
1.23634e-51
4.79375e-16
-2.96723e-101
-4.31011e-84
1.67331e-48
-1.80742e-100
-1.14041e-82
3.51993e-53
1.27284e-54
1.59507e-165
1.29737e-28
40.2742
8.34466e-62
-1.45975e-100
7.30431e-37
-4.46775e-120
5.30908e-27
5.1346e-49
-4.12854e-64
2.51078e-29
5.68785e-21
7.09677e-233
6.62564e-20
-1.09584e-62
2.16176e-31
-1.06231e-109
4.38504e-244
5.64349e-15
1.17112e-14
154.811
1.43532e-15
-3.6465e-217
-6.12814e-101
-3.43936e-82
-2.50448e-100
1.93152e-73
1.12788e-26
-3.38541e-111
2.17468e-37
3.43835
-9.42246e-122
1.23662e-243
1.39338e-72
1.43203e-84
2.94665e-19
-5.6101e-98
-3.72674e-97
-1.68161e-250
3.45562e-18
-2.2435e-58
-1.49418e-84
-1.46129e-59
4.34661e-258
9.90653e-35
-3.24424e-83
8.96704e-05
-2.23403e-240
6.26313e-71
-1.56067e-91
4.1119e-10
3.56442e-32
0.00099914
-6.07603e-192
2.45231e-32
2.48289e-137
8.36446e-55
9.56344e-21
5.44646e-81
1.95646e-129
-2.95052e-97
1.30291
126.667
9.53912e-258
2.35989e-114
1.50881
182.867
-1.26589e-62
1.35432e-32
3.69493e-21
3.15102e-29
6.738e-62
59.1952
3.24086
1.14458e-30
6.83503e-116
6.64474e-37
4.9558e-39
2.45919e-51
9.13409e-38
-5.8171e-99
2.11362e-112
-4.009e-242
5.73519e-114
8.74241
1.90197e-30
1.74738e-207
-1.92014e-221
5.04518e-29
9.33529e-115
2.09425e-95
2.3205e-72
-4.53106e-255
2.67974e-21
5.06089e-222
8.75005e-223
-5.66441e-169
2.80784e-37
-6.92258e-124
52.6152
1.32994e-225
1.77988e-223
1.04124e-73
-6.89945e-138
1.46867e-27
-3.83639e-85
-6.67587e-159
-1.86349e-227
7.98141
2.7967e-20
-2.32524e-228
-5.53485e-100
-1.52609e-86
-3.00225e-136
8.49601e-152
-9.19507e-154
-2.13717e-133
-9.34855e-117
-4.36153e-16
1.64812e-137
2.3448e-136
1.20443e-79
2.65453e-34
1.51437
7.10388e-134
-1.34052e-53
3.68663e-06
-9.95706e-222
2.28227e-45
-6.76962e-206
7.49184e-61
-3.64011e-222
3.35423e-132
2.7795e-16
6.17962e-42
1.16872e-16
9.54977e-97
-8.65933e-92
8.2196e-55
8.38509e-51
-1.14247e-90
3.12707e-55
3.31423e-55
1.36391e-188
1.42337e-177
1.75053e-177
5.05013e-177
2.4946e-176
0.00038099
1.51395e-253
1.61992e-25
2.42711e-38
5.36535e-54
1.24282e-35
3.05641e-41
4.14031e-74
3.98804e-63
1.84658e-41
3.72634e-64
-3.33772e-54
1.78895e-31
1.01499e-30
7.06715e-31
-3.81144e-74
9.2814e-15
2.93681e-76
7.7467e-76
2.90977e-37
2.90688e-20
-5.16787e-124
3.22282e-175
2.22642e-61
-1.05495e-176
-1.16794e-123
169.725
17.7118
3.14445e-122
9.99131e-217
-4.55228e-227
2.36791e-238
3.5031e-42
-2.51054e-233
3.04706e-235
1.23116
3.87696e-37
0.000396691
1.1736e-124
1.71559e-31
2.19528e-116
-3.00168e-90
1.17126e-27
3.30943e-62
-1.00059e-39
1.19895e-63
1.42899e-124
9.36364e-207
1.00446e-37
1.65155e-31
2.63926e-123
6.12153e-12
5.62075e-28
9.24794e-52
4.40788e-43
3.83932e-36
-7.18873e-216
10.7383
6.09031e-14
3.01682e-123
1.31474e-10
4.45329e-77
-1.56905e-249
1.32397e-249
-2.53204e-239
0.000746801
3.57148e-21
-6.63461e-53
1.86361e-46
3.43576e-50
-8.29525e-79
-3.03618e-38
1.53307e-44
7.53728e-11
1.49908
-7.60584e-12
1.13396e-53
6.72971e-32
1.61259e-81
1.21253e-28
-9.23987e-69
6.34165e-60
1.04661e-144
-1.27097e-69
1.03652e-39
-3.91447e-232
172.738
7.69615e-94
0.633035
9.00443e-33
1.05553e-104
9.69779e-30
0.987772
1.98221e-39
9.97194e-62
3.86113e-52
1.29108e-31
8.16427e-28
-2.04793e-117
-8.13219e-244
3.31947e-24
-8.84253e-221
1.41232e-06
9.40103e-151
-8.85321e-56
2.5951e-35
-2.85313e-99
0.00888182
1.03028e-24
-3.97907e-66
-5.16956e-117
3.19096e-05
6.3718e-194
1.50447e-128
3.97165e-15
2.76823e-215
-4.37889e-117
1.61905e-129
9.99498e-08
17.9162
-7.06401e-78
5.11527e-175
-4.66827e-33
4.84802e-37
1.03286e-45
2.8089e-35
1.82437e-38
3.11809e-187
-1.70317e-240
4.95759e-41
-2.0138e-225
2.10034e-36
3.81824e-46
3.45503e-29
3.5392e-128
2.4606e-25
1.17154e-13
-1.39985e-143
-1.35538e-79
1.12636e-121
-2.15538e-29
6.96127e-15
-1.61777e-218
1.32812e-39
2.50507e-40
5.05777e-84
2.6885e-38
6.87671e-150
2.02158e-21
1.9394e-65
5.38904e-35
1.37272e-29
1.30391e-185
-2.57245e-80
5.1925e-10
0.000534499
-5.41002e-227
8.28053e-59
3.05207e-10
6.7191e-46
0.742132
-2.21573e-239
4.9362e-152
3.4441e-192
1.88645e-35
-5.86241e-63
-1.72701e-72
2.46041e-148
6.08388e-42
6.59096e-58
2.34963e-62
-6.10089e-107
0.000257918
1.51006e-215
0.000604231
1.37551e-171
149.875
3.0393e-64
9.30468e-11
-1.97414e-190
3.55322e-129
3.97323e-33
-8.50815e-123
-2.00254e-160
-2.03532e-99
-6.42923e-61
-1.35781e-61
3.19475e-12
4.37194e-24
3.26315e-24
-5.28741e-263
-1.22921e-122
5.10426e-44
0.000692281
-1.24379e-262
-1.56085e-211
1.56898e-39
5.99746e-190
8.14486e-17
1.18188
96.4594
-4.05637e-261
6.66208e-82
8.12111e-20
-4.16704e-70
-8.9446e-132
95.3623
-3.52633e-214
5.2275e-24
3.72768e-34
-1.00342e-82
-1.79693e-134
-3.50772e-157
-6.80567e-101
6.40967e-39
1.0999e-64
-6.0197e-77
-7.31886e-260
2.70672e-204
-6.37193e-65
-5.49526e-125
4.15834e-28
8.64977e-36
-1.35699e-167
6.98167e-210
7.63213e-31
167.063
2.29637e-137
3.32462e-11
-1.04053e-228
-2.43699e-76
3.46183e-24
4.1568e-46
1.4192e-21
9.46531e-29
-2.79429e-62
1.10619e-34
-5.90517e-246
-5.40478e-197
1.78352e-49
-1.03018e-72
-5.0415e-63
-1.15776e-74
2.54555e-236
5.85368e-208
-1.15454e-142
-7.72321e-51
2.92815e-30
-1.26837e-33
1.17233e-92
-8.44397e-32
5.93008e-38
3.13343e-60
-8.44261e-31
-8.27712e-56
0.779996
1.94094e-36
2.9244e-54
2.42486e-29
-2.57602e-198
1.23717e-23
1.10969e-32
1.38518e-263
1.91303e-215
4.79774e-189
3.33824e-192
4.03311e-07
6.16511e-60
9.30054e-91
-8.14434e-33
1.49771e-99
2.96598e-16
1.0812e-46
2.27687e-38
-1.34398e-141
4.72113e-11
2.00915e-237
-5.36104e-50
1.50351e-118
3.21694e-19
-4.35659e-30
6.76766e-68
2.43477e-59
8.54484
5.94411e-39
7.0491e-14
-1.22493e-68
1.14369e-11
0.550487
-1.01721e-179
-3.8317e-125
5.35983e-238
1.67161e-08
4.16996e-125
1.69082e-64
0.00739003
-1.99322e-212
1.5043e-63
2.21002e-32
1.79718e-65
-1.02351e-134
-6.87121e-69
3.77714e-172
-2.12317e-67
-4.70887e-173
-1.47144e-172
-1.71142e-71
1.96102e-36
7.24753e-39
8.25803e-64
1.12436e-08
4.81449e-47
17.697
3.30248e-38
8.80197e-73
-2.54968e-69
6.24998e-40
1.11295e-52
4.3723e-53
0.60705
-6.91783e-36
2.48654e-55
1.41266e-53
-2.88856e-115
-2.28953e-126
2.23313e-31
-3.6475e-242
13.7935
-2.11175e-170
-7.01025e-35
1.49254e-22
2.76116e-07
1.02401e-19
7.19001e-31
1.17986e-33
-2.13393e-69
7.12415e-20
2.69729e-42
8.93087e-14
2.66701e-53
7.38873e-14
1.01531e-54
-5.00902e-255
-1.01968e-54
175.565
2.60828e-13
-3.53796e-96
3.2579e-247
-3.14021e-165
9.57471e-88
-2.13149e-56
1.07194e-39
8.67774e-61
2.41481e-188
3.43041e-95
2.90232e-52
4.63245e-98
-3.75387e-107
4.65717e-13
1.87382e-105
3.27555e-44
1.57655e-27
-1.94858e-96
3.72319e-88
2.59928e-28
-1.01726e-264
-5.33117e-91
49.1454
8.84138e-195
8.13136e-17
3.35822e-23
-2.51408e-89
4.58265e-33
1.52822e-27
-1.50701e-54
3.3577e-27
-9.43286e-126
-4.18558e-33
-3.02192e-132
3.04131e-56
1.07123e-29
-8.15315e-32
-1.10278e-124
4.83221e-34
1.04565e-06
6.82474e-47
-3.10415e-70
-1.80641e-118
5.18626e-23
6.06902e-07
-3.72806e-118
-5.0392e-218
1.7738e-54
-2.51419e-230
0.651078
6.5708e-54
1.54602e-12
3.26464e-68
3.87958e-62
12.5257
1.07645e-67
0.00149659
5.33509e-41
91.7465
1.47649e-43
-6.53556e-76
-2.87401e-68
1.6873e-85
0.00377498
0.000343841
6.98107e-176
4.1487e-173
-1.28817e-29
2.0642e-163
0.00342992
4.99826e-29
2.90089e-10
-3.05436e-118
131.758
0.0871828
5.09293e-53
-1.95782e-254
-2.10276e-129
-3.47703e-38
7.4261e-86
1.38698e-91
-5.04006e-83
2.01468e-39
1.6478e-43
38.675
1.11724e-07
5.36975e-190
1.39038e-37
1.60907e-25
-2.43962e-28
-1.45002e-73
5.48117e-23
8.48057e-34
-4.17308e-37
1.02526e-133
5.64936e-252
1.24085e-21
1.51154e-18
9.7363e-63
-1.24532e-30
2.3322e-13
3.6289e-74
-3.98546e-56
-1.77459e-116
1.21075e-80
3.60792e-15
-5.78678e-78
1.46389e-26
1.21883e-40
1.23925e-49
6.95317e-99
-1.4575e-77
3.22481e-07
2.55344e-70
-7.23537e-74
39.1214
2.04794e-49
9.82657e-76
0.00952719
-1.99125e-258
8.04673e-69
3.5333e-61
-1.07323e-86
6.15698e-146
2.34778e-57
1.48429e-265
8.52563e-10
2.21858e-124
5.18508e-61
6.58261e-22
7.46668e-33
7.33092e-64
9.61464e-67
9.74159e-23
92.5
-9.39817e-197
4.76121e-103
8.93378e-75
0.00723731
1.21807e-18
-2.42907e-126
3.03081
-5.52059e-252
-2.00146e-127
184.907
-1.13509e-95
-7.33288e-124
-2.29298e-120
6.48729e-42
-1.48759e-40
-2.22504e-193
-6.06539e-89
4.04604e-25
8.23876e-62
-2.46134e-65
-2.33784e-84
-1.89933e-178
-2.20486e-39
1.76962e-06
-6.59878e-68
-9.51652e-32
8.05343e-42
1.45561e-54
1.20023e-10
1.83936e-26
-7.52812e-83
-1.55195e-125
0.000435642
3.23211e-36
3.66322e-47
-2.25693e-115
1.01706e-190
-3.68625e-37
3.36991e-11
1.56208e-72
1.27362e-29
5.12792e-71
-1.12463e-81
-6.02824e-105
5.99169e-40
148.357
17.9541
9.47287e-39
-1.19743e-66
-2.09551e-106
4.28258e-41
0.0126496
-3.1178e-34
-8.30591e-128
6.73368e-12
5.63781e-08
9.08949
9.17219e-91
89.6025
-3.1949e-193
-2.74701e-80
-2.71268e-189
3.90665e-11
5.91948e-46
83.7602
-3.07106e-132
0.0183941
3.50121e-162
-1.86159e-66
8.14515e-31
-5.7211e-88
1.62608e-12
0.114468
-9.06637e-94
9.27238e-98
4.74392e-69
-3.38451e-91
-2.79835e-95
6.42907e-14
1.99832e-48
3.84254e-66
1.10689e-15
-1.95627e-95
-3.92726e-186
-2.21971e-69
-6.15884e-164
3.01298e-27
6.1871e-69
2.54341e-09
3.67441e-11
-5.88763e-43
2.58176e-34
1.15818e-38
-6.80467e-69
0.0129392
6.75439e-75
-8.37667e-100
7.87057e-236
1.36328e-11
-1.7288e-35
-1.30631e-133
1.03413e-26
-1.21749e-84
1.26853e-34
-7.08461e-38
-4.3356e-33
6.62934e-40
86.3107
3.30197e-38
-8.89478e-42
0.119943
2.15438e-88
1.87069e-07
2.45458e-25
4.70896e-166
2.32409e-73
-7.6363e-106
-4.21401e-72
-1.60084e-247
-6.05971e-120
2.02597e-07
1.70904e-11
-5.35324e-121
202.535
1.90779e-29
-8.0107e-169
5.4946e-12
6.44839e-13
-6.31746e-171
8.20181e-11
6.95999e-23
2.06934e-11
1.556e-170
9.00131e-128
-1.52805e-103
-1.90309e-171
-6.89831e-37
29.7775
-2.76891e-134
4.19269e-12
-4.66789e-260
2.53365
1.54031e-27
4.16634e-37
-8.95497e-216
-6.38121e-136
-6.22676e-79
1.51169e-41
2.19257e-15
3.71691e-35
-1.60318e-96
-2.82722e-91
-6.14665e-171
5.94634e-29
1.02683e-38
-2.70713e-105
3.55299e-215
4.55658e-57
1.51922e-35
1.01464e-44
-6.24966e-142
5.86493e-07
1.27408e-29
3.63211e-162
8.71066e-47
-1.31644e-92
-2.43967e-75
195.012
-6.12263e-97
-1.20692e-166
2.9005e-40
-1.28836e-36
-2.0083e-45
2.73423
5.19936e-63
1.58787e-77
6.27007e-34
-5.11225e-87
8.0117e-86
5.75307e-76
1.44265e-86
-3.15713e-29
-4.5083e-76
15.3311
-3.46125e-44
4.93389e-10
-1.60171e-83
0.00427578
1.05671e-31
7.03371e-10
4.80171e-14
2.35873e-35
2.12599e-76
3.25249e-82
4.89395e-60
2.13658e-260
-3.40776e-78
2.50258e-36
1.08202e-13
-1.52104e-87
2.03554e-163
7.0996e-38
1.90295e-36
1.61977e-17
6.45516e-40
5.36547e-12
1.89042e-17
-1.10243e-114
5.91474e-51
0.708491
1.57609e-37
1.43802e-250
5.29e-91
-2.36423e-89
7.77988e-254
3.2031e-52
-2.98849e-195
-1.1121e-76
4.17985e-15
5.31488e-34
2.23725e-06
-3.43962e-191
8.32294e-135
-5.89133e-229
-1.58569e-88
-8.2328e-106
7.82044e-10
-1.60332e-105
4.03285e-135
4.44974e-07
5.89369e-37
3.39465e-50
1.59254e-53
1.57347e-17
1.61965e-96
3.2839e-12
4.37328e-83
-7.61057e-188
0.00191451
5.68063e-44
1.37201e-20
-8.2923e-101
53.3923
-2.67017e-40
5.24806e-46
2.49627e-36
9.124e-31
35.9847
8.78535e-81
1.96009e-12
-2.47257e-49
4.1962e-48
-5.33961e-142
7.81927e-68
1.31677e-07
2.1747e-79
4.07211e-09
-3.12601e-94
-2.36206e-98
6.85458e-13
1.16422e-153
-7.73876e-124
3.77259e-79
1.10002e-42
3.05826e-11
-2.30003e-95
3.65148e-90
-5.23734e-232
-3.20539e-49
0.00220121
3.04096e-43
-1.37787e-89
-6.26334e-64
9.91827e-98
-3.77179e-131
13.2183
-6.46044e-48
-1.24706e-219
1.10794e-49
3.88185e-99
-4.98091e-39
-7.44522e-28
1.80289e-47
7.20724e-88
6.94389e-15
2.40777e-11
-1.38025e-220
5.83111e-63
9.14444e-12
-2.58324e-134
8.45881e-197
8.26186e-66
5.22495e-52
1.68295e-81
4.52049e-195
1.52803e-52
1.67293e-12
-8.9034e-171
1.37108e-23
-2.61575e-195
-5.9198e-105
3.57427e-56
4.6625e-05
-6.19635e-239
1.962
-1.142e-46
5.0457e-22
39.2124
-9.08926e-43
5.23378e-59
0.0339761
-3.45892e-88
1.53901e-05
3.36711e-19
-9.36194e-66
-1.52559e-79
-4.19416e-81
-5.15464e-100
-2.31789e-104
1.03377e-22
0.0274246
194.396
1.9759e-26
-2.85123e-29
0.0125689
9.16152e-29
12.3738
2.03269e-147
-5.02414e-98
5.02856e-19
3.24989e-44
-2.44649e-120
2.10737e-26
-7.87986e-83
32.9417
-1.72748e-249
4.01713e-132
1.3305e-141
204.883
-7.41716e-37
6.67699e-45
-2.69816e-78
2.96965e-19
-1.66459e-84
-9.97295e-138
2.9482e-07
-2.59062e-81
2.81123e-07
9.8213e-23
2.26126e-70
1.52628e-14
2.98665e-44
-7.15032e-98
-9.22542e-133
-1.65051e-129
0.211452
1.60829e-13
-4.8716e-109
4.82584e-18
1.3557e-50
2.37797e-25
1.3443e-237
2.83183e-48
1.77742e-07
8.71718e-11
-1.71982e-41
-4.92282e-68
3.49308e-133
1.80312e-16
8.1593e-85
9.9082e-137
2.96471e-10
3.61725e-17
-5.59212e-110
2.96257e-31
8.32748e-45
-1.04642e-232
-6.51544e-122
-2.13151e-197
-1.58268e-40
86.462
1.61614e-11
6.16177e-20
-9.95471e-115
5.87083e-84
3.85949e-43
5.0977e-223
3.00744e-09
4.71832e-45
86.2462
-5.30435e-28
2.74062e-74
4.53533e-112
1.77201e-146
7.27039e-81
-4.30979e-86
-3.8219e-119
13.5165
1.40233e-15
1.0054e-36
2.91103e-17
-4.91764e-43
-3.92485e-133
-8.0315e-260
-1.06208e-118
1.72304e-26
0.888793
-4.77677e-22
4.67336e-46
-3.59255e-49
1.31896e-74
3.90265e-16
0.0356281
0.0247001
3.94184e-86
-4.752e-70
2.53023e-29
4.11919e-100
7.38638e-191
-1.17213e-119
3.1827e-14
-4.97726e-107
4.56715e-61
-6.99923e-94
3.9141e-41
2.63319e-08
2.19801e-99
-2.74548e-119
1.60564e-10
1.77456e-15
3.22921e-94
4.19573e-141
-1.85811e-50
0.000235207
4.40766e-26
5.56173e-23
-4.87702e-53
3.81789e-60
0.05389
3.21702e-82
-4.09217e-22
-4.99946e-131
1.25539e-12
7.3149e-12
-2.37353e-174
7.96186e-143
89.8237
3.38898e-121
1.42705e-74
3.31958e-28
3.24283e-110
-4.41978e-109
-5.03007e-95
9.82102e-123
-8.92333e-229
5.77448e-19
1.47395e-05
2.86751e-145
0.0181384
-2.08014e-85
-6.13184e-124
9.89426e-13
3.70074e-09
5.03574e-27
-1.10708e-86
-2.50386e-119
-2.77101e-45
150.076
-1.2691e-106
6.54188e-146
6.88576e-153
2.19763e-107
2.5713e-60
2.30833e-29
-1.0821e-109
1.98955e-78
8.00997e-127
7.01029
6.28239e-09
1.93608e-42
-2.9346e-39
-7.06252e-84
-7.33336e-124
1.997e-16
1.32707
-7.34187e-74
2.59377e-151
-1.81666e-125
9.28981e-14
3.11048e-111
3.59825e-133
9.47746e-09
-1.89039e-87
1.14292e-121
113.187
1.77729e-06
8.35633
4.09516e-16
-1.04563e-109
4.47537e-13
1.64408e-10
0.166216
1.23908e-96
1.6505e-29
7.82186e-226
0.113387
-2.85344e-254
-1.23543e-98
2.20144e-84
2.92565e-151
5.9219e-42
7.43513e-93
-4.70702e-108
3.43777e-98
7.0411
2.81382e-14
6.11044e-39
-3.39666e-118
9.10393e-30
16.8797
5.91163e-09
1.33929e-43
-9.64645e-52
-2.405e-99
5.24446e-86
2.99544e-147
-1.42594e-112
1.27775e-143
-8.23175e-121
-5.56552e-44
5.20662e-15
7.20001e-17
0.306877
0.000100956
1.07724e-08
1.26618e-24
0.114161
1.06367e-134
3.62647e-05
-6.7419e-126
0.00154065
2.69254e-09
3.60414e-36
-1.09895e-108
1.2398e-35
1.81172e-23
5.94344e-66
79.9775
1.24873e-12
0.361736
-2.22935e-122
8.03825e-10
2.80309e-07
4.83386e-10
1.40491e-07
6.38817e-11
-6.60577e-120
-1.61615e-97
7.73724e-42
-2.7847e-113
3.61599e-29
-3.80266e-102
8.17119e-39
1.37734e-175
-1.9466e-92
1.11864e-21
1.27744e-32
3.76483e-138
-7.59187e-48
0.930705
91.137
-3.52448e-154
4.77661e-50
9.44269e-78
9.76681e-11
3.84303e-30
4.79406
4.04982e-05
5.97021e-99
2.7941e-40
2.17419e-07
-2.84997e-24
5.36862e-06
7.98567e-55
6.95119e-12
5.71954e-140
0.192886
7.22104e-09
6.78704e-139
1.17916e-07
0.1382
4.15829e-46
4.13305
-5.04277e-88
6.70359e-09
7.24965e-80
8.0456e-158
5.53251e-75
-3.91372e-83
0.0825523
0.000109092
0.0390096
-1.41249e-139
6.83537
7.15384e-37
5.00901e-13
-6.56493e-32
3.27055e-42
3.10992e-51
0.0189566
-1.87018e-86
6.13234e-98
1.0153e-20
3.33721e-09
9.11369e-29
1.64659e-18
-2.38011e-58
0.0479277
6.17368e-30
2.21536e-29
1.92077e-09
1.79527e-173
7.69836e-08
1.78906e-11
4.2454e-08
-2.86326e-77
0.000876653
9.43783e-146
5.64264e-30
1.16779e-43
3.90558e-06
7.94844e-73
1.08855e-21
1.35114e-08
76.7986
4.89085e-107
1.80646e-37
-4.32376e-48
1.37552e-09
3.35558e-19
-1.27578e-97
1.32119e-38
3.96146e-148
13.9895
6.8229e-234
1.50281e-147
-9.56459e-196
7.6766e-07
5.52022e-119
5.22604e-38
4.72196
2.15099e-53
4.74109e-59
-2.54561e-113
2.21944e-185
9.06407e-10
1.3e-150
-9.70072e-42
2.65742e-12
-1.55418e-46
2.66777e-06
1.37196e-93
2.04997e-37
1.21102e-07
7.9914e-19
-3.27396e-71
86.6175
-4.91793e-238
3.23428e-180
2.63862e-89
222.663
-8.3361e-79
2.20314e-73
7.41041e-08
-8.80773e-109
6.22045e-92
6.87239e-14
8.02329e-06
9.93204e-32
0.00849202
-7.46768e-109
-6.19632e-89
1.14404e-42
7.78874e-48
3.41642e-06
-1.66287e-127
1.85617e-69
-1.15512e-55
-1.75458e-17
5.07245e-62
9.7945e-140
3.81283e-40
-5.51155e-19
2.21485e-204
1.73778e-201
4.03106e-05
2.62664e-31
7.73108e-05
-3.3868e-91
-3.34079e-249
-8.40683e-18
9.47329e-07
-1.18915e-132
-4.41532e-105
1.48786e-147
15.3894
2.93283e-204
6.65456e-33
6.63921e-05
4.8493e-197
9.98611e-184
4.39126e-19
9.23292e-161
7.45468e-201
3.88723e-41
2.42699e-13
4.51404e-142
6.43441e-22
1.01381e-153
8.27346e-08
-3.42293e-251
1.11887e-07
4.16309e-13
6.44515e-21
7.32245e-197
2.91446e-15
5.07298
3.81005e-100
1.14683e-48
4.88674e-162
1.15421e-13
1.37712e-154
7.47765e-07
1.96917e-09
-3.22403e-85
4.0207e-192
1.17195e-13
4.25952e-14
2.87401e-47
2.55414e-45
1.65577e-16
4.38973e-159
8.33813e-16
8.09643e-194
1.21362e-05
9.56895e-09
6.66912e-09
2.85768e-20
-3.03786e-23
10.9152
1.93839e-21
5.84635e-44
1.07043e-14
-2.50872e-102
2.36014e-12
2.12455e-16
-3.11386e-44
6.51157e-80
0.0944748
-5.15957e-211
0.0445357
107.611
3.68628e-113
1.7947e-08
76.9709
4.06393e-35
1.48075e-41
1.46081e-16
-2.46902e-54
5.48981e-146
5.62975e-08
0.0130015
0.767108
-2.94052e-101
8.55118e-16
0.000379965
2.64804e-14
-5.72405e-121
3.16052e-177
1.45374e-32
0.020937
6.36947e-09
1.93701e-16
-8.05852e-241
3.37062e-156
1.30946e-14
-4.35231e-108
1.67759e-43
-1.26382e-103
5.69557e-189
2.09126e-07
2.6393e-87
0.000157863
1.89363e-46
1.37364e-168
4.83499e-177
3.41046e-15
-1.23905e-102
2.16333e-34
3.48914e-16
0.712825
-1.86519e-50
4.98516e-141
2.16542e-06
6.03541e-95
1.26185e-149
4.60594e-68
6.13156e-14
-1.60569e-99
5.3617e-14
1.5566e-45
216.531
7.47966e-15
-8.56374e-132
8.1164e-05
-1.2762e-194
4.07057e-09
2.33906e-37
6.48517e-06
0.00448812
-1.52312e-45
0.000139083
6.66228e-167
7.95805e-09
-3.12887e-122
2.91769e-51
2.88746e-05
7.68624e-28
1.10324e-05
0.0164493
-6.58363e-20
9.50629e-08
2.18554e-06
7.70655e-138
6.22134e-152
-4.36535e-193
0.000175638
-2.07994e-24
2.36306e-136
1.46448e-07
1.42211e-05
5.32119e-38
2.45711e-13
3.51755e-54
-2.15616e-34
0.00232205
-6.16807e-72
1.19709e-29
1.00898e-33
-5.55744e-226
2.41411e-224
-5.05598e-137
-3.53433e-101
3.5917e-46
4.14792e-170
-9.28212e-86
-1.48834e-105
1.58335e-64
7.5837e-19
-1.92997e-119
1.14533e-06
-7.33181e-253
1.30831e-11
3.45998e-06
-1.12438e-130
4.93004e-05
1.13829e-12
5.22733e-06
7.67365e-61
8.45883e-17
-1.54836e-110
7.64483e-38
2.50436e-48
1.05566e-178
-3.17982e-123
-2.46053e-92
-4.45918e-129
4.47448e-199
2.50772e-55
8.76197e-201
-5.3495e-31
2.0635e-23
0.0631519
7.00328e-172
4.63391e-64
1.948e-168
-3.35943e-107
8.21663e-22
7.13751e-65
-9.773e-134
120.693
1.74103e-14
2.31299e-31
3.42884e-60
2.83632e-15
8.62613e-24
1.81686e-65
2.92369e-18
1.39054e-13
1.17425e-106
1.55681e-195
-6.80365e-83
1.26088e-07
9.99334e-153
-1.96354e-137
7.03993e-14
-2.21092e-114
-1.82859e-108
6.30196e-76
1.69962e-140
0.000997485
3.47104e-170
-4.56732e-139
8.45468e-21
1.46241e-18
5.62126
2.33313e-13
-1.23833e-58
-3.15312e-132
3.54019e-17
-7.60498e-134
4.59801e-27
3.98329e-50
-1.26153e-106
5.06621e-06
4.20836e-200
5.53777e-22
6.70353e-54
5.15972e-15
-2.28146e-43
1.2691e-204
-5.28566e-107
2.0128e-251
3.8355e-25
2.27835e-155
3.76068e-19
8.0016e-44
-4.9779e-91
-5.44944e-57
4.21457e-39
3.0929e-197
1.66875e-21
4.50759e-22
-4.51987e-102
2.07897e-20
9.64826e-08
4.36894e-187
2.97977e-39
1.57813e-11
1.85066e-13
6.19122e-76
4.72753e-42
1.02036e-40
2.88318e-46
4.30264e-73
4.66013e-15
-3.15718e-73
7.58065e-131
3.78616e-132
0.0382242
1.61246e-08
6.3759e-05
1.50175e-06
-1.58973e-35
1.04963e-20
5.9499e-44
2.94583e-19
2.37488e-131
2.97538
-2.94353e-107
2.67317e-06
1.56381e-08
-2.07051e-135
-1.25287e-25
7.12239e-09
4.95838e-06
4.39614e-42
8.2107e-27
5.84929e-133
-5.26496e-219
4.19422e-15
1.65644e-195
6.39832e-174
2.142e-17
1.4441e-108
-8.58438e-67
1.34646e-139
-2.12335e-89
4.11723e-15
10.5409
5.6654e-104
-8.85536e-112
1.2284e-08
-2.36844e-38
4.00833e-11
5.2671e-25
3.93583e-26
-4.883e-110
3.01969e-38
4.93244e-17
4.03695e-17
-1.60271e-30
-7.09927e-157
3.78724e-07
3.10767e-31
1.4291e-19
-2.15775e-84
5.1204e-138
8.65594e-17
8.00661e-102
-6.14329e-190
4.71288e-23
1.66742e-08
-1.30731e-172
1.15462e-21
5.35978e-47
-4.0343e-118
-5.76349e-76
-3.3242e-117
4.51095e-23
-5.26706e-131
1.90549e-139
8.14368e-45
1.64126e-23
-1.951e-40
-1.59779e-30
9.47833
1.09336e-109
1.45941e-61
0.326565
1.65082e-33
-1.18692e-118
1.98349e-32
0.00162827
1.49784e-178
-1.72207e-111
1.95144e-190
2.82821e-26
9.82906e-15
5.44539e-48
1.57223e-202
-9.30806e-80
1.84424e-66
3.3595e-92
1.62881e-09
-1.01695e-104
-7.28679e-202
2.46311e-197
1.63649e-28
8.51154e-43
1.5699e-05
-3.72401e-83
-3.99206e-49
2.31694e-31
2.10186e-15
1.80909e-150
2.35438e-24
6.67022e-182
8.86388e-174
-6.24665e-202
5.13622e-10
1.26548e-111
1.61396e-24
1.87925e-23
5.24983e-27
1.56721e-16
5.86505e-28
1.16215e-13
4.65931e-26
2.67424e-103
2.07089e-29
-1.50293e-48
2.50677e-35
1.4935e-21
-2.68401e-110
40.9542
3.94939e-17
2.48714e-19
-3.03541e-172
1.44078
5.91738e-16
9.47451e-18
-9.46744e-32
1.46356e-07
-6.95548e-65
3.72017e-105
-5.47091e-91
4.3865e-94
1.35308e-88
2.14399e-18
4.89794e-22
1.25988e-117
1.09125e-25
9.19482e-94
5.5188e-89
2.67043e-53
-9.33497e-47
-4.22113e-72
1.31795e-56
-1.89622e-45
8.22435e-26
3.13229e-26
4.70441e-49
-6.35133e-189
3.13339e-91
-3.1388e-102
5.29555e-11
6.8481e-153
1.43721e-114
6.08708e-26
1.42013
-2.62993e-130
2.57264e-05
3.7506e-135
2.43773e-102
1.06105e-42
1.12316e-29
1.0496e-34
6.02097e-149
9.42766e-20
2.96479e-22
1.29962e-11
4.41193e-172
1.30853e-25
1.92898e-42
2.26479e-56
-2.23098e-200
-2.25274e-240
2.85171e-28
1.60036e-42
5.65228e-62
51.2397
1.34837e-23
5.26505e-33
-3.48723e-25
1.23766e-45
2.79614e-11
-1.04893e-107
9.92873e-49
-1.78743e-77
-1.55885e-89
0.00748304
3.43576e-24
3.79711e-22
1.5141e-36
-7.96729e-145
1.11685e-18
4.95815e-18
3.08219e-05
5.84973e-89
3.85933e-33
0.000150724
7.23786e-05
9.11507e-137
4.3215e-05
1.32373e-52
21.6695
2.87975e-187
3.93885e-25
3.49866e-37
1.03211e-209
1.6756e-15
3.3963e-67
-4.69504e-80
5.5714e-10
0.000975843
8.24347e-06
8.26863e-79
2.69531e-27
-2.73227e-187
-6.67839e-103
3.88185e-06
3.51597e-31
3.66553e-80
4.173e-19
-1.91587e-23
2.04404e-28
5.88694e-41
2.29966e-38
1.82661e-23
0.00243606
5.43085e-143
2.55036e-40
1.09927e-48
2.76552e-28
1.92927e-07
5.011e-24
2.60549e-33
2.0385e-68
1.24589e-190
6.88827e-27
6.79244e-32
5.00895e-22
8.16801e-149
1.82785e-58
9.45606e-26
3.29376e-25
-1.99247e-24
8.80595e-21
1.41803e-74
3.02014e-30
4.30718e-113
2.23897e-14
1.85565e-54
3.85201e-26
4.61563e-64
1.87572e-77
4.75498e-24
2.36638e-59
-2.09828e-68
4.96422e-83
2.42093e-144
2.81768e-31
1.02274e-52
6.92829e-56
13.6731
0.00928367
-1.99081e-114
1.02281e-81
2.0885e-39
8.19181e-42
7.81949e-203
1.51665e-30
-9.52245e-37
7.8271e-31
-2.1289e-188
8.71804e-14
1.11697e-19
4.59769e-16
1.80152e-30
-1.98522e-173
-2.21903e-96
1.96368e-63
6.29246e-30
5.24975e-09
15.0744
-1.11685e-139
1.84371e-68
-4.01655e-73
3.2116e-07
0.000427543
1.37388e-05
7.80549e-53
1.09091e-22
-1.20417e-186
2.08567e-39
-3.07394e-53
-4.65063e-138
5.34691e-25
1.36248e-41
9.13451e-36
1.82943e-21
-3.43215e-73
2.4355e-42
1.54113e-32
2.15345e-174
-3.59988e-262
5.31237e-44
-4.79329e-67
1.90886e-08
1.59852e-49
-3.61171e-23
1.35849e-13
-1.05081e-41
-2.12313e-139
-5.40116e-60
2.40643e-20
2.06487e-143
0.180556
0.0360938
-2.89774e-116
5.12154e-182
1.0854e-106
6.48299e-143
-5.82087e-212
3.14372e-62
5.90242e-68
-5.35556e-33
3.55683e-41
1.57804e-31
-2.46979e-49
1.26496e-05
1.07607e-20
1.29145e-32
6.19028e-42
1.62571e-52
8.4821e-36
5.75706e-176
-1.99799e-75
1.4844e-69
-2.99977e-32
-2.39998e-26
1.30784e-09
-2.30208e-215
-2.81722e-27
2.01304e-38
2.10641e-50
4.63584e-23
-7.13751e-41
4.30601e-25
0.00287058
5.07959e-39
1.42301e-18
2.08152e-51
9.49917e-90
2.2316e-41
3.49542e-35
8.96586e-147
2.09432e-43
0.0213545
-2.34893e-79
0.00017627
1.79571e-137
8.29753e-35
-3.29342e-93
8.01704e-76
1.16855e-30
-4.59082e-21
1.95897e-22
-1.23101e-72
1.20528e-45
9.45567e-51
3.06133e-18
7.02918e-14
-9.87083e-47
2.7004e-09
5.7914e-211
4.99812e-41
7.28506
9.96139e-15
-2.14801e-73
0.330685
3.43529e-20
-1.29259e-69
-6.79436e-162
7.53457e-11
1.79446e-35
4.02524e-52
4.70626e-37
-2.25295e-154
1.96671e-22
-1.90368e-81
1.41222e-14
5.00407e-37
1.05405e-32
-1.65746e-30
-1.03456e-256
-2.15391e-105
8.69497e-51
-8.59722e-89
-1.21969e-91
1.68209e-57
4.75208e-77
7.30223e-65
-2.27887e-25
2.27779e-28
-5.65405e-199
2.21487e-16
-7.97807e-104
1.15421e-173
-4.96077e-28
-1.68446e-132
4.89493e-51
3.56145e-52
7.14771e-148
-4.46249e-143
-1.07779e-85
5.00782e-26
5.13379e-63
5.15918e-33
5.19587e-37
-5.06411e-27
3.22908e-26
7.22302e-53
2.19876e-44
2.52967e-39
-4.53008e-228
4.29944e-59
-4.17017e-80
1.12822e-53
0.169566
2.28322e-28
-2.0278e-72
3.77775e-43
-1.75274e-65
5.00882e-69
-1.43117e-74
2.49324e-64
1.88298e-70
-4.13458e-33
4.48894e-39
2.79523e-175
3.50702e-27
-1.09713e-50
2.85371e-25
1.68803e-161
-1.36431e-28
3.45154e-05
-1.22793e-99
-7.39937e-41
2.63773e-19
8.34566e-121
4.53853e-27
4.92561e-14
5.48771e-38
-2.26183e-38
2.66238e-15
8.80882e-44
-8.84596e-52
1.16353e-41
7.53457e-26
1.38653e-128
1.6e-75
-1.2274e-218
-3.54569e-103
3.85296e-162
2.91072e-43
4.36684e-40
3.50643e-27
1.24241e-43
12.7655
-7.39245e-21
28.58
1.18982e-37
3.39852e-10
8.72954
1.83481e-16
21.177
2.41209e-73
4.08349e-44
3.53573e-50
2.53855e-55
8.10663e-47
4.84091e-105
7.50879e-49
1.51098e-94
3.6217e-163
-3.98751e-53
3.18654
1.95158e-45
3.33648e-24
6.62847e-48
-3.28454e-87
1.43497e-39
4.05776e-40
-5.81992e-111
7.14688e-46
5.32829e-84
6.78445e-25
1.31675e-40
2.16066e-42
-2.27976e-43
0.164891
6.78171e-09
3.63355e-23
7.65038e-53
68.0226
5.16045e-47
-5.43146e-56
2.27855e-29
-8.3336e-30
-1.26617e-60
1.50113e-17
3.32933e-141
-5.86734e-38
-3.98059e-28
4.63891e-44
-8.52216e-46
6.70919e-77
3.12004e-42
-1.16605e-34
1.35738e-71
5.33489e-29
5.20265e-50
3.52975e-64
4.0388e-139
4.12202e-56
1.11158e-40
6.24295e-83
8.4842e-52
4.79713e-64
-2.09937e-105
-2.78817e-34
-5.28798e-83
3.1201e-16
1.96966e-47
-9.16066e-66
8.24658e-148
-3.54239e-102
1.53452e-16
5.88349e-42
6.4786e-206
1.70969e-46
6.67943
5.95737e-25
1.63169e-78
3.67129e-52
0.0694842
0.619527
33.9835
1.11212e-90
1.83695e-92
-1.77788e-108
2.7426e-63
1.63017e-30
0.000776201
0.0105453
2.68931e-13
1.07781e-21
2.84336e-78
3.57235e-159
3.58744e-155
-5.80094e-28
-2.09556e-77
4.72467e-26
-3.1083e-93
1.40837e-06
-1.02319e-89
5.13769e-45
2.33253e-12
-6.30182e-43
6.52457e-22
3.16151e-113
3.42617e-44
-7.48565e-172
8.11363e-19
3.60837e-22
1.9544e-70
7.75569e-164
8.22106e-70
-1.0124e-25
2.92633e-107
-6.53781e-46
0.0641379
2.78075e-182
3.83098e-69
-3.5809e-39
-1.21485e-39
5.25977e-49
6.50045e-120
-5.63158e-107
1.02191e-105
2.63225e-206
2.44425e-155
4.3144e-66
1.32052e-29
-8.75782e-175
1.16019e-75
4.47521e-116
147.863
-7.38686e-29
3.2284e-104
-7.29646e-217
3.60232e-25
1.91891e-46
1.07086e-21
-6.48797e-48
1.52887e-46
-6.18227e-166
-3.92194e-104
1.10795e-17
-6.04324e-228
1.18529e-47
3.35462e-29
1.18689e-52
5.92787e-150
1.10522e-41
-5.33798e-202
1.22321e-62
-1.52527e-64
1.20332e-105
8.78096e-09
1.35805e-56
2.03228e-68
1.20773e-65
-1.32111e-39
-4.23973e-51
-4.66645e-177
5.62176e-213
-8.5186e-84
1.45017e-29