/*--------------------------------*- C++ -*----------------------------------*\
  =========                 |
  \\      /  F ield         | OpenFOAM: The Open Source CFD Toolbox
   \\    /   O peration     | Website:  https://openfoam.org
    \\  /    A nd           | Version:  7
     \\/     M anipulation  |
\*---------------------------------------------------------------------------*/
FoamFile
{
    version     2.0;
    format      ascii;
    class       volVectorField;
    location    "117";
    object      U;
}
// * * * * * * * * * * * * * * * * * * * * * * * * * * * * * * * * * * * * * //

dimensions      [0 1 -1 0 0 0 0];

internalField   nonuniform List<vector> 
15200
(
(-0.273883 0.151576 -1.84762e-19)
(0.324302 -0.511487 -1.09727e-19)
(0.130205 -0.810809 -1.38382e-19)
(0.147462 -0.74186 -8.28521e-20)
(0.285412 -0.309951 6.05616e-20)
(0.568146 0.241215 -6.69542e-20)
(0.694874 0.510908 -2.3083e-20)
(0.72751 0.616545 4.23755e-20)
(0.642922 0.722011 8.90559e-21)
(0.606077 0.528 -2.63219e-21)
(0.741374 0.108944 -5.71384e-21)
(0.86383 -0.218372 -9.42487e-21)
(0.90725 -0.47234 2.56989e-20)
(0.844832 -0.637363 -8.05064e-21)
(0.836386 -0.514316 -1.58323e-20)
(-0.285659 0.140023 -3.18965e-19)
(0.370438 -0.53098 -5.19452e-19)
(0.169656 -0.797572 3.76524e-19)
(0.192564 -0.749513 -1.39203e-19)
(0.243788 -0.363936 -2.82416e-20)
(0.512101 0.189894 1.427e-19)
(0.657318 0.480523 -1.20371e-20)
(0.686254 0.622046 4.87325e-20)
(0.6005 0.736788 -1.21176e-20)
(0.592001 0.507266 5.37092e-21)
(0.765561 0.0630727 2.07098e-20)
(0.891241 -0.247605 3.27089e-21)
(0.957144 -0.464408 -6.38853e-21)
(0.871249 -0.616431 3.81681e-21)
(0.805174 -0.522806 -2.66052e-20)
(-0.296407 0.126726 9.10125e-19)
(0.419824 -0.548957 7.31988e-19)
(0.210994 -0.782965 -6.07999e-20)
(0.250595 -0.748388 3.81244e-19)
(0.22404 -0.411275 -2.48827e-19)
(0.474303 0.133042 1.08701e-19)
(0.622879 0.445487 4.09136e-20)
(0.648527 0.625114 3.80602e-21)
(0.556691 0.746045 -7.23638e-20)
(0.612831 0.482998 -6.78526e-20)
(0.821731 0.0236324 1.12635e-19)
(0.923383 -0.273478 3.01516e-20)
(1.00345 -0.450751 -2.47507e-20)
(0.886069 -0.574739 -2.07031e-20)
(0.764265 -0.517032 2.64522e-20)
(-0.305352 0.11173 -9.92868e-19)
(0.471961 -0.565393 5.16243e-19)
(0.254442 -0.767792 6.39566e-20)
(0.317887 -0.739263 -2.73978e-19)
(0.222739 -0.450489 3.0749e-19)
(0.452879 0.0737229 -1.4779e-19)
(0.595087 0.408199 -4.76991e-20)
(0.609174 0.626003 2.35189e-19)
(0.515519 0.744146 1.76287e-19)
(0.662864 0.451076 8.23943e-20)
(0.899682 -0.00183623 -3.86227e-20)
(0.964649 -0.288881 -9.27799e-20)
(1.04056 -0.429708 4.11801e-20)
(0.892087 -0.513353 5.1841e-20)
(0.727184 -0.496453 -7.95671e-20)
(-0.311539 0.0952233 1.87433e-18)
(0.526297 -0.580292 -1.05664e-18)
(0.300307 -0.752386 -9.30242e-19)
(0.388153 -0.722813 -1.1411e-19)
(0.230893 -0.481596 -3.0424e-19)
(0.44386 0.0141723 -1.60055e-19)
(0.573628 0.371272 1.19779e-19)
(0.563051 0.623911 -2.38545e-19)
(0.482334 0.724575 -1.19769e-19)
(0.72264 0.406557 -1.75064e-20)
(0.977779 -0.018831 -1.4418e-19)
(1.01742 -0.289353 6.82227e-20)
(1.06425 -0.40171 -1.32317e-19)
(0.895513 -0.438402 -5.05006e-20)
(0.713747 -0.457848 1.76502e-19)
(-0.313799 0.07756 -1.2903e-18)
(0.582295 -0.593679 2.50618e-19)
(0.348947 -0.736444 9.53325e-19)
(0.454763 -0.699965 2.98149e-19)
(0.24396 -0.504986 8.36507e-20)
(0.441364 -0.0451822 1.99907e-19)
(0.552334 0.335946 -4.14929e-20)
(0.509137 0.616658 -6.02274e-20)
(0.46259 0.685954 -5.68413e-20)
(0.786453 0.352084 6.503e-20)
(1.04396 -0.0337865 1.69345e-19)
(1.07614 -0.27407 1.45599e-19)
(1.07563 -0.368293 6.17594e-20)
(0.902728 -0.359843 -3.7604e-21)
(0.745016 -0.398724 -3.10493e-20)
(-0.310711 0.0592903 -9.16092e-19)
(0.639518 -0.605572 -3.21168e-19)
(0.400533 -0.71922 -8.18195e-19)
(0.5136 -0.672267 2.26346e-19)
(0.266046 -0.518949 -1.49476e-19)
(0.436141 -0.10535 1.35433e-19)
(0.522933 0.301116 6.79536e-20)
(0.447862 0.601285 8.1309e-20)
(0.466151 0.633778 1.3931e-19)
(0.863277 0.298131 3.4906e-21)
(1.10061 -0.0462709 -1.0788e-19)
(1.12916 -0.245972 -3.36293e-20)
(1.08108 -0.33045 1.23037e-19)
(0.915036 -0.291545 -4.4859e-20)
(0.82305 -0.321751 -3.60509e-20)
(-0.300561 0.0412037 -4.5056e-19)
(0.697636 -0.61592 5.05698e-19)
(0.454804 -0.699928 1.07567e-19)
(0.56418 -0.641844 2.6265e-19)
(0.304384 -0.518996 1.44142e-19)
(0.41909 -0.165621 -4.77381e-19)
(0.47703 0.263775 5.02839e-20)
(0.379765 0.572801 6.18699e-20)
(0.504477 0.571513 -1.48031e-19)
(0.952681 0.251769 -4.48536e-20)
(1.15198 -0.0517869 -9.97817e-20)
(1.16505 -0.21078 2.4591e-20)
(1.08637 -0.287161 -4.45715e-20)
(0.932118 -0.242671 -1.08897e-21)
(0.911222 -0.247098 2.04506e-20)
(-0.281334 0.0243755 -1.47982e-19)
(0.756372 -0.62454 -2.84527e-19)
(0.511095 -0.678056 1.22114e-18)
(0.608569 -0.610915 -1.93102e-19)
(0.360213 -0.500667 7.1905e-20)
(0.389679 -0.219115 2.52184e-19)
(0.407384 0.22019 -1.21813e-19)
(0.315219 0.5243 -2.22833e-20)
(0.583504 0.498875 2.4073e-20)
(1.03998 0.212217 1.12987e-19)
(1.19524 -0.0471472 4.01615e-20)
(1.18042 -0.174607 -1.65066e-19)
(1.09238 -0.240321 6.99238e-21)
(0.958742 -0.203706 2.11946e-20)
(0.955721 -0.196855 -2.51329e-20)
(-0.250753 0.0102017 -2.97582e-18)
(0.815408 -0.631076 -1.85301e-18)
(0.56857 -0.653442 -5.57964e-19)
(0.64965 -0.581119 3.03093e-19)
(0.426803 -0.46437 -1.31435e-19)
(0.362615 -0.252525 8.12826e-20)
(0.319425 0.166942 5.69225e-20)
(0.288881 0.456357 5.07914e-20)
(0.700489 0.422858 9.71706e-20)
(1.11309 0.17998 -1.34685e-19)
(1.22235 -0.0339762 -1.18187e-19)
(1.18074 -0.139079 9.48497e-20)
(1.09728 -0.197794 -5.04052e-20)
(0.990398 -0.162503 6.66722e-20)
(0.960065 -0.165981 1.90362e-20)
(-0.206448 0.00038415 5.6446e-18)
(0.874312 -0.634988 -4.29e-19)
(0.626432 -0.626213 -3.70656e-19)
(0.689959 -0.553024 -6.86423e-19)
(0.495427 -0.417094 2.05146e-19)
(0.363202 -0.253742 2.59949e-19)
(0.2536 0.109914 -1.26487e-19)
(0.350322 0.383248 2.57385e-20)
(0.836707 0.355517 -4.28187e-20)
(1.16586 0.158323 -1.84401e-19)
(1.2284 -0.0171812 1.59725e-19)
(1.17283 -0.105021 4.94041e-21)
(1.0996 -0.160519 -4.44974e-20)
(1.00509 -0.12833 -7.46889e-20)
(0.971795 -0.133705 -1.64493e-20)
(-0.146338 -0.0032045 -1.45732e-18)
(0.932452 -0.635588 1.58776e-18)
(0.683995 -0.596694 -3.02334e-20)
(0.730854 -0.526071 2.47455e-20)
(0.560143 -0.36907 -2.63158e-19)
(0.409967 -0.222218 -1.91197e-19)
(0.274875 0.0748632 3.33182e-20)
(0.505702 0.325454 -8.44825e-21)
(0.959107 0.303578 -5.92332e-21)
(1.1915 0.145708 3.58363e-20)
(1.21631 -0.000214913 -3.34211e-20)
(1.15951 -0.0758207 3.85946e-20)
(1.09695 -0.125523 8.55342e-20)
(1.00841 -0.105703 5.44812e-20)
(0.993619 -0.101063 2.42985e-20)
(-0.069283 0.00113752 1.87191e-18)
(0.988954 -0.632145 -2.19137e-19)
(0.740659 -0.565264 8.57651e-19)
(0.771971 -0.499256 3.51599e-20)
(0.618111 -0.328537 -1.1083e-19)
(0.49491 -0.173987 9.73336e-20)
(0.404204 0.079241 -3.31142e-20)
(0.689746 0.289022 5.53832e-21)
(1.03885 0.265738 6.01098e-20)
(1.18806 0.136514 8.75471e-20)
(1.19331 0.0147552 -1.78786e-20)
(1.14205 -0.0525524 1.44225e-20)
(1.09012 -0.0959488 1.20526e-19)
(1.01714 -0.0854874 -4.68582e-20)
(1.00476 -0.0787755 -9.03786e-21)
(0.024042 0.0143457 2.56851e-18)
(1.0427 -0.624074 3.20723e-18)
(0.795813 -0.532231 -7.26386e-19)
(0.8118 -0.472308 8.46932e-19)
(0.670193 -0.296912 -4.4013e-20)
(0.586655 -0.132071 -1.14705e-19)
(0.573271 0.101973 5.2366e-20)
(0.82661 0.261905 -2.8555e-20)
(1.06821 0.234076 4.27412e-22)
(1.16473 0.126609 -1.13419e-19)
(1.16566 0.0256735 -9.99231e-20)
(1.12425 -0.0342973 -1.30761e-19)
(1.08329 -0.0721521 -1.05047e-19)
(1.02397 -0.0677003 -1.7021e-20)
(1.01006 -0.0614301 3.66805e-21)
(0.130366 0.0358237 -6.43923e-18)
(1.09245 -0.611169 -5.64407e-18)
(0.848724 -0.497885 6.39885e-20)
(0.849167 -0.445791 -5.65397e-19)
(0.719522 -0.270411 -4.00355e-19)
(0.663192 -0.107692 9.31458e-20)
(0.698615 0.109385 -1.47187e-20)
(0.892239 0.228584 -1.50511e-20)
(1.06245 0.201609 6.88072e-21)
(1.13514 0.115062 4.98744e-20)
(1.13871 0.0322743 1.68751e-19)
(1.10882 -0.0202148 9.36926e-20)
(1.07587 -0.0524766 7.29601e-20)
(1.02623 -0.0544462 2.30638e-20)
(1.01654 -0.0464194 2.56573e-20)
(0.243712 0.0629232 -8.37346e-19)
(1.13702 -0.593789 4.43963e-18)
(0.898607 -0.462626 -3.2573e-19)
(0.883845 -0.420155 1.05151e-18)
(0.766148 -0.246558 3.85832e-19)
(0.721843 -0.0968275 -7.40652e-20)
(0.767207 0.0942727 3.17873e-21)
(0.914832 0.187925 3.0526e-20)
(1.04618 0.169923 7.86557e-22)
(1.10836 0.102845 -9.85878e-21)
(1.1157 0.0360516 -1.00704e-19)
(1.09514 -0.00965585 -8.63041e-20)
(1.06769 -0.037044 -8.37031e-20)
(1.02938 -0.0426581 -5.60974e-20)
(1.02014 -0.035507 -1.03464e-20)
(0.356489 0.0912319 4.37777e-18)
(1.17561 -0.572868 1.99654e-18)
(0.94479 -0.426946 -2.37588e-19)
(0.915934 -0.395526 -1.60988e-18)
(0.808078 -0.225113 -1.13941e-19)
(0.768776 -0.0914963 -3.31031e-20)
(0.809426 0.0723256 -9.57861e-22)
(0.92606 0.150459 6.70603e-21)
(1.03246 0.142551 -6.68134e-21)
(1.08677 0.0911994 -5.07571e-21)
(1.09662 0.0377858 -3.36637e-21)
(1.08303 -0.00176737 3.62881e-20)
(1.06025 -0.0249317 4.91753e-20)
(1.03155 -0.0326465 3.45468e-20)
(1.02177 -0.0265763 -1.78622e-20)
(0.461685 0.115907 -4.45314e-18)
(1.20798 -0.549688 -1.57455e-18)
(0.986814 -0.39132 1.67613e-18)
(0.945357 -0.371985 4.98526e-19)
(0.844944 -0.205711 3.281e-19)
(0.808762 -0.0881542 1.00312e-19)
(0.843127 0.0533877 7.82348e-21)
(0.93602 0.12 -5.7493e-21)
(1.02241 0.119468 4.25863e-20)
(1.06972 0.0805143 -4.32431e-21)
(1.08082 0.0378565 -5.98499e-20)
(1.07249 0.00417909 4.40101e-20)
(1.05345 -0.0152999 1.57817e-20)
(1.03279 -0.0246816 3.12425e-20)
(1.02212 -0.0191679 2.10053e-20)
(0.555056 0.133512 9.68946e-19)
(1.2346 -0.525541 -7.63678e-19)
(1.02441 -0.356107 1.69794e-18)
(0.972129 -0.349594 6.83797e-19)
(0.877369 -0.187692 -1.20574e-19)
(0.843174 -0.0859419 2.98047e-20)
(0.871177 0.0379662 -2.72138e-20)
(0.945031 0.0951138 -8.817e-21)
(1.01525 0.0999458 -4.39052e-20)
(1.05635 0.0707162 4.11746e-20)
(1.06799 0.0369459 4.16711e-20)
(1.06315 0.00864883 -3.33674e-20)
(1.04784 -0.0081554 -5.60033e-20)
(1.03338 -0.0174481 3.05957e-21)
(1.02019 -0.0130572 5.22764e-21)
(0.63592 0.143166 -4.8718e-19)
(1.25637 -0.50144 -1.60429e-18)
(1.05749 -0.321515 -3.87706e-18)
(0.996456 -0.328407 -7.18674e-19)
(0.90585 -0.170734 -2.80592e-19)
(0.873072 -0.0842813 -2.68959e-19)
(0.89482 0.0255671 3.61533e-20)
(0.95348 0.0747983 -6.87888e-21)
(1.01057 0.0835915 2.80409e-20)
(1.04605 0.0619216 -5.90938e-20)
(1.05756 0.0354417 1.0788e-20)
(1.05513 0.011923 -2.83063e-20)
(1.04337 -0.0028245 -4.80153e-21)
(1.03228 -0.0107843 -1.36355e-20)
(1.0182 -0.00868084 5.5237e-21)
(0.706237 0.14629 4.37685e-19)
(1.27443 -0.478019 1.57764e-18)
(1.08611 -0.28767 1.7047e-18)
(1.01855 -0.308428 7.24918e-19)
(0.930897 -0.15464 2.94408e-19)
(0.89935 -0.0827085 6.24905e-20)
(0.915154 0.015938 -6.65045e-20)
(0.961563 0.0583365 4.64324e-21)
(1.00778 0.0699551 -4.80796e-20)
(1.03825 0.0541285 6.13047e-20)
(1.04911 0.0336446 3.59868e-20)
(1.04841 0.0141276 -5.87608e-20)
(1.0395 0.00146333 1.77403e-20)
(1.03029 -0.00494429 -1.9099e-20)
(1.01767 -0.00720394 -4.64855e-21)
(0.768876 0.145353 -8.99752e-19)
(1.28983 -0.455584 5.96708e-19)
(1.11058 -0.254712 -4.62073e-18)
(1.03853 -0.289536 -7.21439e-19)
(0.95298 -0.139223 -4.0663e-19)
(0.922554 -0.0809981 1.89266e-19)
(0.932784 0.00867702 1.37656e-19)
(0.969241 0.0450206 -3.59923e-20)
(1.00645 0.058681 9.48223e-20)
(1.03241 0.0472766 -3.96664e-20)
(1.04234 0.0317481 -4.58619e-20)
(1.04281 0.0155809 4.78125e-20)
(1.03601 0.00505486 -5.3332e-21)
(1.02824 -0.00125309 -1.96609e-20)
(1.01977 -0.00272351 -3.07149e-20)
(0.826269 0.142725 -1.08345e-18)
(1.30335 -0.434169 1.12303e-18)
(1.1313 -0.222763 1.20446e-18)
(1.05647 -0.271578 6.85954e-19)
(0.972477 -0.124355 9.88145e-19)
(0.943132 -0.0790008 1.02932e-19)
(0.948192 0.00345422 -1.54131e-19)
(0.976544 0.0343408 1.14692e-20)
(1.0062 0.0494373 -3.20432e-20)
(1.02816 0.0413387 -6.43887e-20)
(1.03693 0.0298704 -5.27611e-20)
(1.03816 0.0165536 -1.7828e-20)
(1.03286 0.00764356 -1.25923e-20)
(1.02718 0.00232609 1.79079e-20)
(1.01844 -0.000345815 4.03295e-20)
(0.879974 0.140141 1.00055e-18)
(1.31547 -0.413587 -1.44006e-18)
(1.14873 -0.19192 2.45377e-19)
(1.07252 -0.254449 -8.79199e-19)
(0.989705 -0.109947 -5.35825e-19)
(0.961423 -0.0766405 1.33195e-19)
(0.96172 -1.95359e-05 1.53371e-20)
(0.983452 0.0258581 2.46934e-20)
(1.00673 0.0419431 -5.52337e-20)
(1.02513 0.0362496 1.15594e-19)
(1.03265 0.0281295 1.08127e-19)
(1.03433 0.0170569 5.77752e-20)
(1.03036 0.00992872 6.856e-20)
(1.025 0.00474968 1.89005e-20)
(1.01909 0.00228092 -2.86441e-21)
(0.930824 0.138707 6.89656e-19)
(1.32647 -0.393599 -3.34673e-19)
(1.16337 -0.162289 1.82478e-18)
(1.0868 -0.238049 7.66577e-19)
(1.00492 -0.0959248 1.3761e-19)
(0.977698 -0.0738923 -3.90324e-19)
(0.973624 -0.00199724 -2.31974e-21)
(0.989958 0.0192122 -6.49629e-20)
(1.00781 0.0359584 1.65128e-21)
(1.02307 0.0319516 8.84644e-21)
(1.02929 0.0265433 5.89166e-20)
(1.03126 0.0174022 -1.0623e-20)
(1.02778 0.011606 7.20788e-21)
(1.02409 0.00675213 1.53049e-20)
(1.01804 0.00466089 1.6014e-20)
(0.979206 0.139085 6.48113e-18)
(1.33652 -0.373972 9.04072e-19)
(1.17558 -0.133879 -1.51518e-18)
(1.09948 -0.222288 4.91957e-19)
(1.01835 -0.0822369 -1.55552e-19)
(0.992178 -0.0707587 3.34949e-20)
(0.984109 -0.0026983 2.29902e-19)
(0.996053 0.0141106 8.53036e-20)
(1.00925 0.0312727 7.5563e-20)
(1.02175 0.0283779 -4.79415e-20)
(1.02671 0.025193 -1.88672e-20)
(1.02867 0.0175589 -5.69527e-20)
(1.0259 0.0129346 -2.02504e-21)
(1.02238 0.00859211 -3.61803e-20)
(1.01771 0.0064265 -2.95727e-20)
(1.02526 0.141666 -2.61743e-18)
(1.34575 -0.354495 4.72398e-19)
(1.18569 -0.106671 -6.48912e-19)
(1.11069 -0.207083 -1.90952e-19)
(1.03017 -0.068847 -6.66415e-19)
(1.00504 -0.0672598 3.50671e-19)
(0.99334 -0.00231103 -4.40577e-20)
(1.00173 0.0103077 -4.3164e-20)
(1.01091 0.0277102 -8.59255e-20)
(1.021 0.0254699 2.00726e-20)
(1.02471 0.0240751 -7.02567e-20)
(1.02666 0.0176378 -7.5855e-22)
(1.02395 0.0141154 6.77717e-20)
(1.02136 0.00979778 -6.29153e-20)
(1.01695 0.00833647 7.97191e-21)
(1.069 0.146666 -1.97573e-18)
(1.35421 -0.334983 6.22975e-20)
(1.19395 -0.0806146 4.52434e-19)
(1.12055 -0.192358 -1.9656e-20)
(1.04052 -0.0557308 2.56572e-19)
(1.01644 -0.0634226 -3.90806e-19)
(1.00145 -0.000997597 -2.414e-19)
(1.00698 0.00760131 1.82414e-19)
(1.01267 0.0251197 8.52673e-20)
(1.02066 0.0231627 2.78923e-20)
(1.02323 0.0232079 -2.6163e-20)
(1.02494 0.0177364 -2.59562e-20)
(1.02246 0.0149168 -6.9683e-20)
(1.02015 0.0112089 9.57606e-20)
(1.01628 0.00968659 -2.70513e-20)
(1.11036 0.154191 1.44979e-18)
(1.36195 -0.315276 -8.7544e-19)
(1.20059 -0.0556496 4.46428e-20)
(1.12917 -0.178041 -6.48321e-19)
(1.04955 -0.0428735 6.23451e-20)
(1.0265 -0.0592777 -8.39012e-20)
(1.00855 0.00110125 2.59782e-19)
(1.01181 0.00582125 -2.61445e-19)
(1.01445 0.0233698 4.90944e-20)
(1.02064 0.0213988 -9.8272e-20)
(1.0221 0.022606 2.12296e-20)
(1.02359 0.01778 7.21121e-20)
(1.02105 0.0158055 -3.43051e-20)
(1.01914 0.0120922 -4.95072e-20)
(1.01565 0.0111462 -1.32078e-20)
(1.14924 0.164259 -6.16824e-18)
(1.36893 -0.295241 1.91042e-18)
(1.20579 -0.0317099 4.24142e-19)
(1.13663 -0.164069 6.02447e-19)
(1.05737 -0.0302681 5.1646e-19)
(1.03533 -0.0548559 2.17974e-19)
(1.01475 0.00386308 -3.64494e-19)
(1.01621 0.0048246 6.59367e-20)
(1.01617 0.0223484 -1.46839e-19)
(1.02082 0.0201256 -4.72488e-21)
(1.02126 0.0222337 -4.03171e-21)
(1.02245 0.0179402 -1.16271e-20)
(1.01986 0.0164067 3.21844e-20)
(1.01826 0.0131951 5.43527e-21)
(1.01495 0.012261 3.46171e-20)
(1.18551 0.176831 3.18635e-18)
(1.37514 -0.274775 -1.11401e-18)
(1.2097 -0.00872964 -9.38784e-19)
(1.143 -0.150385 -2.21986e-19)
(1.06407 -0.0179162 -2.29118e-19)
(1.04301 -0.0501879 -9.44916e-20)
(1.02011 0.00717884 1.64645e-19)
(1.02017 0.00449132 1.79473e-19)
(1.01779 0.0219567 3.86604e-20)
(1.02114 0.0192861 2.70733e-20)
(1.02063 0.0221165 -4.4119e-21)
(1.02152 0.0180807 -4.25917e-20)
(1.01883 0.0171477 1.25169e-20)
(1.01738 0.0139707 1.21691e-20)
(1.01438 0.0134157 -2.3427e-20)
(1.21905 0.191814 3.32631e-18)
(1.38052 -0.253801 1.40161e-19)
(1.21243 0.0133529 1.44307e-19)
(1.14834 -0.136942 1.05574e-19)
(1.06974 -0.00582805 -5.01383e-20)
(1.04961 -0.0453016 -1.66993e-19)
(1.02472 0.0109492 -9.26278e-20)
(1.0237 0.00471959 -1.07193e-19)
(1.01927 0.0221067 -2.17722e-20)
(1.02153 0.0188397 -4.55593e-20)
(1.02014 0.0221967 6.9323e-20)
(1.02075 0.0183564 4.72512e-20)
(1.01789 0.0177311 -5.5063e-21)
(1.01669 0.0148854 2.39029e-20)
(1.01373 0.0143827 1.89466e-20)
(1.24973 0.209081 5.6022e-19)
(1.38498 -0.232268 7.07404e-19)
(1.21411 0.0345936 1.3476e-18)
(1.15267 -0.123701 -7.68403e-19)
(1.07448 0.00598067 2.87461e-19)
(1.05521 -0.0402222 1.09287e-19)
(1.02865 0.0150807 1.09676e-19)
(1.02679 0.00542375 -2.76262e-20)
(1.02057 0.0227213 1.59535e-20)
(1.02193 0.0187325 1.09299e-20)
(1.01974 0.0224933 -3.80773e-20)
(1.02006 0.0186512 -1.20923e-20)
(1.01711 0.0184325 4.26734e-21)
(1.01596 0.015632 -3.1221e-20)
(1.01318 0.0153577 7.74506e-24)
(1.27743 0.228471 -2.08997e-18)
(1.38844 -0.210153 -8.39251e-19)
(1.21482 0.055042 -5.99685e-19)
(1.15602 -0.110637 4.47047e-19)
(1.07835 0.0174951 -2.9785e-19)
(1.05984 -0.0349752 -8.97695e-20)
(1.03195 0.019488 -4.34569e-20)
(1.02944 0.00653265 -2.17938e-20)
(1.02168 0.0237279 8.07965e-21)
(1.02232 0.0189305 3.7041e-20)
(1.01937 0.0229515 -4.44865e-20)
(1.01949 0.0190659 4.58467e-21)
(1.01635 0.0190781 1.02597e-20)
(1.01537 0.0164441 8.46171e-21)
(1.01259 0.0162228 -3.12305e-21)
(1.30204 0.2498 1.65687e-18)
(1.3908 -0.18746 -1.5774e-19)
(1.21464 0.0747422 -1.6628e-19)
(1.1584 -0.0977326 1.10731e-19)
(1.08141 0.0287049 -6.93973e-20)
(1.06357 -0.0295885 1.11357e-19)
(1.03465 0.0240982 2.37359e-20)
(1.03165 0.0079854 2.84655e-20)
(1.02258 0.0250631 1.61041e-20)
(1.02264 0.0193875 1.87661e-20)
(1.01903 0.0235781 3.40052e-20)
(1.01893 0.0195277 -2.47583e-20)
(1.0157 0.0198047 -3.60681e-20)
(1.01475 0.0171735 -6.94278e-21)
(1.01206 0.0170781 2.32984e-20)
(1.32346 0.272864 -2.38053e-18)
(1.39196 -0.164221 -3.57394e-19)
(1.21361 0.0937329 -5.28646e-19)
(1.15984 -0.0849788 -2.29786e-19)
(1.08369 0.0395985 2.68742e-19)
(1.06647 -0.0240911 5.00019e-20)
(1.03679 0.0288477 -3.76121e-20)
(1.03344 0.00972659 -2.90926e-20)
(1.02326 0.0266667 4.32568e-20)
(1.02287 0.0200739 -2.71619e-21)
(1.01866 0.0243302 2.18222e-20)
(1.01843 0.0200867 1.74098e-20)
(1.01504 0.0205285 2.63446e-20)
(1.01422 0.0179142 1.04351e-21)
(1.01151 0.0178499 -1.00419e-20)
(1.34162 0.297444 1.30777e-18)
(1.39185 -0.140489 6.58964e-19)
(1.21178 0.112045 2.8401e-19)
(1.16035 -0.0723679 1.36737e-19)
(1.08525 0.05015 1.86177e-21)
(1.06856 -0.0185065 -4.74161e-20)
(1.03842 0.0336711 1.14944e-20)
(1.03479 0.0117082 6.68969e-20)
(1.02373 0.0284862 -2.01154e-20)
(1.02298 0.0209513 6.67099e-21)
(1.01826 0.0252018 2.22723e-21)
(1.0179 0.0207049 -5.05786e-21)
(1.01443 0.0212963 -2.73894e-21)
(1.01365 0.0186026 7.12766e-21)
(1.01097 0.0185937 7.73273e-21)
(1.35646 0.323306 -1.21243e-18)
(1.39035 -0.116335 3.78392e-20)
(1.20919 0.129696 5.14527e-20)
(1.15983 -0.0598979 -1.85924e-19)
(1.08628 0.060315 -1.37654e-19)
(1.06977 -0.0128449 4.14483e-21)
(1.0397 0.038497 -2.24004e-20)
(1.03566 0.013904 -3.28887e-20)
(1.024 0.030465 -9.17554e-21)
(1.02295 0.0219947 -2.84475e-20)
(1.0178 0.0261622 -2.46638e-20)
(1.01737 0.0213987 -1.88781e-21)
(1.01379 0.0220735 3.42613e-21)
(1.01311 0.0192679 -1.05868e-20)
(1.01041 0.0192601 -2.91177e-21)
(1.36795 0.350212 4.27497e-19)
(1.38729 -0.0918478 6.85567e-20)
(1.20602 0.146699 -2.97939e-21)
(1.15804 -0.047594 1.47441e-19)
(1.08713 0.0700568 7.32211e-20)
(1.06985 -0.00710664 2.78052e-20)
(1.04087 0.0432536 2.21364e-20)
(1.03589 0.0163109 8.83535e-21)
(1.02416 0.0325339 6.25614e-21)
(1.02272 0.0231831 2.8843e-20)
(1.01729 0.0271976 2.02139e-22)
(1.01677 0.0221502 -9.2641e-22)
(1.01316 0.0228617 1.31582e-21)
(1.01253 0.0198963 1.67705e-21)
(1.0098 0.0198869 -4.12202e-21)
(1.37607 0.377928 2.50199e-19)
(1.3824 -0.0671509 -1.53903e-19)
(1.20258 0.163076 1.17643e-19)
(1.15472 -0.0355295 -2.63356e-20)
(1.08813 0.079381 1.48242e-20)
(1.0686 -0.0013053 -4.2095e-21)
(1.04211 0.0478725 -1.2739e-20)
(1.03538 0.0189296 9.66999e-21)
(1.02429 0.0346111 -1.60301e-21)
(1.02226 0.0245166 -9.94734e-21)
(1.0167 0.0282767 3.62004e-22)
(1.01612 0.0229538 1.64063e-21)
(1.0125 0.0236547 -3.05915e-21)
(1.01192 0.0205034 -2.13473e-21)
(1.00914 0.0204437 1.39052e-21)
(1.38079 0.406227 2.58091e-19)
(1.3754 -0.042434 -1.40149e-19)
(1.19927 0.178876 1.13711e-19)
(1.14986 -0.0237996 -2.36237e-20)
(1.08916 0.0883107 1.79774e-20)
(1.06625 0.00452338 -5.0562e-21)
(1.04328 0.0522931 -1.10974e-20)
(1.03428 0.0217516 8.76049e-21)
(1.02434 0.0366249 -3.05935e-21)
(1.02158 0.0260027 -9.77864e-21)
(1.01602 0.0293673 1.5469e-21)
(1.01541 0.0237988 1.49673e-21)
(1.01181 0.0244447 -3.54566e-21)
(1.01125 0.0211034 -1.69284e-21)
(1.00842 0.0209548 1.88228e-21)
(1.38213 0.434893 4.21828e-19)
(1.36629 -0.017943 6.63107e-20)
(1.19607 0.194123 1.57086e-20)
(1.14402 -0.0124281 1.13898e-19)
(1.08945 0.0967634 6.50658e-20)
(1.06357 0.0103655 2.65494e-20)
(1.04373 0.0564377 2.74744e-20)
(1.03307 0.0247691 6.13182e-21)
(1.02395 0.0385197 5.25631e-21)
(1.02086 0.0276352 2.80481e-20)
(1.01516 0.0304425 -3.6593e-21)
(1.01468 0.0246721 -1.61158e-21)
(1.01101 0.02524 1.73939e-21)
(1.01054 0.0216901 1.62001e-22)
(1.0077 0.0214099 -3.70898e-21)
(1.38011 0.463692 -1.23322e-18)
(1.35564 0.00610645 2.35286e-20)
(1.19215 0.20866 4.52743e-20)
(1.13783 -0.00119516 -1.6267e-19)
(1.0883 0.104701 -1.28108e-19)
(1.06108 0.0163154 8.88224e-22)
(1.04314 0.0603072 -1.01818e-20)
(1.03199 0.0279651 -3.13626e-20)
(1.02305 0.0403018 -1.1846e-20)
(1.02013 0.0293526 -2.79906e-20)
(1.01413 0.0315192 -1.86874e-20)
(1.01388 0.0255563 -2.38141e-21)
(1.01012 0.0260331 1.79604e-21)
(1.00979 0.0222489 -5.85552e-21)
(1.00696 0.0218342 -4.7256e-21)
(1.37488 0.492356 1.28419e-18)
(1.34379 0.029816 4.88409e-19)
(1.18638 0.222539 2.2537e-19)
(1.13175 0.0099993 1.1961e-19)
(1.0858 0.112067 -5.26781e-21)
(1.05874 0.0224063 -3.92092e-20)
(1.04172 0.0638664 1.71851e-20)
(1.0309 0.031293 5.61905e-20)
(1.02179 0.0419757 -1.71332e-20)
(1.01926 0.0311007 2.98469e-21)
(1.01302 0.0326011 6.8843e-21)
(1.01298 0.0264351 -3.41405e-21)
(1.00916 0.0268219 -6.26941e-21)
(1.00897 0.0227808 1.37036e-20)
(1.00618 0.0222253 2.808e-21)
(1.36666 0.520641 -2.27274e-18)
(1.33063 0.0531306 -2.86882e-19)
(1.17876 0.235681 -4.50986e-19)
(1.12585 0.021299 -1.38193e-19)
(1.08213 0.118798 2.14544e-19)
(1.05642 0.0285491 4.94968e-20)
(1.03958 0.067102 -3.70153e-20)
(1.02973 0.0346795 -2.4782e-20)
(1.02023 0.0435694 2.60168e-20)
(1.01823 0.0328187 3.51312e-21)
(1.01183 0.0336896 2.07351e-20)
(1.01197 0.0273051 1.42851e-20)
(1.0081 0.0275892 2.14845e-20)
(1.0081 0.023288 -1.22622e-21)
(1.00534 0.0225942 -1.28188e-20)
(1.35568 0.54835 1.56313e-18)
(1.31597 0.0759594 -1.24904e-19)
(1.16956 0.247849 -1.54204e-19)
(1.11983 0.0325154 7.38113e-20)
(1.07747 0.1249 -4.86793e-20)
(1.05398 0.0347313 7.25448e-20)
(1.03688 0.0700358 1.57534e-20)
(1.02837 0.0380596 1.1108e-20)
(1.01849 0.0451063 1.56416e-20)
(1.01698 0.0344646 2.16115e-20)
(1.01056 0.0347706 2.63066e-20)
(1.01085 0.0281598 -2.23041e-20)
(1.00698 0.0283316 -2.9779e-20)
(1.00714 0.0237756 -3.72548e-21)
(1.00444 0.0229449 1.95199e-20)
(1.34183 0.575226 -1.99244e-18)
(1.29994 0.0982496 -4.88161e-19)
(1.159 0.258959 -4.41159e-19)
(1.1136 0.0436525 2.52164e-19)
(1.072 0.130349 -2.44843e-19)
(1.05131 0.0408587 -6.31157e-20)
(1.03375 0.0726717 -2.015e-20)
(1.02675 0.0413551 -2.32467e-20)
(1.01661 0.0466027 7.28676e-21)
(1.01552 0.0360124 1.68094e-20)
(1.00921 0.0358204 -2.63099e-20)
(1.00963 0.0289964 4.9436e-21)
(1.00578 0.0290362 1.21521e-21)
(1.00612 0.0242498 6.47302e-21)
(1.0035 0.0232871 1.84674e-21)
(1.32454 0.60081 5.27367e-19)
(1.283 0.120007 4.01081e-19)
(1.14728 0.268927 1.04189e-18)
(1.10703 0.0546039 -4.42638e-19)
(1.06585 0.135165 2.02696e-19)
(1.04833 0.0468824 6.78812e-20)
(1.03029 0.0750435 9.55101e-20)
(1.02484 0.0445068 -3.05879e-20)
(1.0146 0.0480642 1.52777e-20)
(1.01388 0.0374525 1.08836e-20)
(1.00776 0.0368138 -3.66434e-20)
(1.00832 0.0298022 -3.41419e-21)
(1.00453 0.0296975 5.48762e-21)
(1.00504 0.0247107 -1.28412e-20)
(1.00251 0.0236289 -6.11886e-21)
(1.30371 0.624969 3.05138e-18)
(1.26536 0.141552 6.76555e-20)
(1.13455 0.277768 9.86451e-20)
(1.10003 0.0653118 7.65858e-20)
(1.05917 0.13935 -6.52118e-20)
(1.04498 0.0527197 -1.14149e-19)
(1.02658 0.0771636 -2.96521e-20)
(1.02262 0.047461 -9.29657e-20)
(1.01248 0.0494757 -1.5278e-22)
(1.01208 0.0387831 -3.17298e-20)
(1.00621 0.0377291 3.47193e-20)
(1.00694 0.0305644 2.53707e-20)
(1.00321 0.0303011 -1.68096e-21)
(1.0039 0.0251509 7.37582e-21)
(1.00147 0.0239692 1.39518e-20)
(1.27971 0.64731 2.76202e-18)
(1.24681 0.162481 -4.94383e-19)
(1.12094 0.285471 -5.92542e-19)
(1.09254 0.0756834 -1.11662e-19)
(1.05204 0.142927 -1.66312e-19)
(1.04124 0.0583087 -3.57473e-20)
(1.02267 0.0790565 1.18308e-19)
(1.0201 0.050181 9.47699e-20)
(1.01022 0.0508185 2.59575e-20)
(1.01014 0.0400036 2.88375e-20)
(1.00457 0.0385522 -1.72631e-20)
(1.00548 0.031268 -2.63913e-20)
(1.00184 0.0308381 2.08872e-20)
(1.00267 0.025557 5.21059e-21)
(1.00036 0.0242932 -1.33628e-20)
(1.25285 0.667607 -5.40724e-18)
(1.22729 0.182673 1.25145e-19)
(1.10657 0.292033 2.28248e-19)
(1.08452 0.0856411 2.59245e-19)
(1.04456 0.145913 3.23605e-19)
(1.03708 0.0635826 1.06097e-19)
(1.0186 0.0807293 -2.26969e-19)
(1.0173 0.0526423 5.23753e-20)
(1.00784 0.0520625 -1.0764e-19)
(1.00809 0.0411118 -1.56064e-21)
(1.00284 0.0392729 1.35178e-20)
(1.00396 0.0319028 -2.55068e-20)
(1.00042 0.0313009 9.46873e-21)
(1.00138 0.0259179 3.72826e-21)
(0.999164 0.024585 4.84379e-21)
(1.22344 0.68564 1.31779e-18)
(1.20674 0.201926 -2.66061e-19)
(1.09156 0.297449 3.63505e-20)
(1.07596 0.0950985 -2.36835e-19)
(1.0368 0.148329 -4.59619e-22)
(1.03252 0.068487 -6.01675e-20)
(1.01438 0.0821893 1.74005e-19)
(1.01425 0.0548308 -1.42535e-19)
(1.00532 0.0531821 1.52302e-20)
(1.00594 0.0421003 -3.89656e-20)
(1.00104 0.0398839 -3.14793e-21)
(1.00239 0.0324579 3.56743e-20)
(0.998978 0.0316883 -1.829e-20)
(1.00005 0.0262375 -1.54726e-20)
(0.997904 0.0248434 -2.56945e-21)
(1.19175 0.701229 -1.47204e-18)
(1.18515 0.220091 1.37536e-19)
(1.07602 0.301717 2.05382e-19)
(1.06686 0.103977 2.41598e-20)
(1.02882 0.150193 6.60366e-20)
(1.02758 0.0729732 -1.46757e-19)
(1.01005 0.0834321 -1.21341e-19)
(1.01099 0.0567404 8.41013e-20)
(1.00267 0.0541516 5.2776e-20)
(1.00368 0.0429606 1.45054e-20)
(0.999163 0.0403762 -1.08907e-20)
(1.00077 0.0329215 -1.17992e-20)
(0.997534 0.0319923 -1.76078e-20)
(0.998734 0.0265214 2.15876e-20)
(0.996628 0.0251012 -6.49764e-21)
(1.15806 0.714213 -1.853e-18)
(1.16256 0.237013 1.84815e-19)
(1.06004 0.304838 -3.02499e-19)
(1.05722 0.112201 -4.32575e-20)
(1.02067 0.151523 -3.25044e-19)
(1.02227 0.0770026 1.68986e-19)
(1.00561 0.0844497 -8.3297e-21)
(1.00755 0.0583696 -2.01175e-20)
(0.999909 0.0549516 -4.61954e-20)
(1.00134 0.0436823 9.86047e-21)
(0.997225 0.0407427 -1.7921e-20)
(0.999102 0.0332788 -6.23406e-21)
(0.996099 0.0321935 1.87741e-20)
(0.997459 0.0267558 -9.96511e-21)
(0.995406 0.0253873 -1.42581e-21)
(1.12263 0.724458 4.64563e-18)
(1.13902 0.252554 2.3063e-19)
(1.04373 0.306816 -5.79153e-19)
(1.04708 0.119702 1.63806e-19)
(1.01241 0.152332 -4.12572e-20)
(1.01665 0.0805447 1.27543e-21)
(1.00106 0.0852286 8.21572e-20)
(1.00395 0.0597187 3.74919e-20)
(0.997044 0.0555659 3.66085e-20)
(0.998919 0.0442566 -1.51428e-20)
(0.995231 0.0409784 3.50087e-22)
(0.997401 0.0335219 -1.06716e-20)
(0.994666 0.0322671 9.15049e-21)
(0.996232 0.0268859 2.39682e-21)
(0.994299 0.0256739 -1.42475e-21)
(1.08575 0.731855 3.54023e-19)
(1.1146 0.266586 -2.56687e-20)
(1.02717 0.307659 6.5163e-19)
(1.03648 0.126417 1.78444e-19)
(1.00405 0.152632 4.59089e-20)
(1.01075 0.0835778 -1.11745e-19)
(0.996424 0.0857535 -6.54288e-21)
(1.00022 0.0607889 -1.7865e-20)
(0.994088 0.0559828 -6.35118e-21)
(0.996425 0.0446747 3.369e-21)
(0.99319 0.0410809 1.83587e-20)
(0.995667 0.0336523 3.02073e-21)
(0.993233 0.0322101 -5.5904e-21)
(0.995059 0.02686 4.66464e-22)
(0.993332 0.0258576 1.73925e-21)
(1.04768 0.736315 4.61059e-19)
(1.0894 0.278992 -3.14465e-19)
(1.01044 0.307377 3.88885e-20)
(1.02547 0.132293 -1.39574e-19)
(0.995649 0.15243 -1.13837e-19)
(1.00462 0.0860869 3.21488e-20)
(0.991709 0.0860084 7.7768e-21)
(0.996398 0.0615808 6.22846e-21)
(0.991058 0.0561932 -1.49968e-20)
(0.993872 0.0449285 1.57809e-20)
(0.99111 0.0410451 8.01394e-21)
(0.993902 0.0336701 5.068e-21)
(0.991803 0.0320361 -3.33249e-21)
(0.993985 0.0266846 1.59809e-22)
(0.992532 0.0258655 1.5722e-21)
(1.00868 0.737775 -7.27076e-19)
(1.06352 0.289668 1.40716e-19)
(0.993641 0.305981 2.27519e-19)
(1.0141 0.137285 8.89513e-20)
(0.987219 0.151732 2.12015e-19)
(0.998305 0.0880637 2.76368e-20)
(0.986931 0.0859784 -2.82419e-20)
(0.992495 0.0620949 -1.89036e-21)
(0.987969 0.0561912 -7.59691e-22)
(0.991273 0.0450117 -1.1897e-20)
(0.988997 0.0408646 -5.37462e-21)
(0.992097 0.0335628 -2.02965e-21)
(0.990365 0.0317382 -3.24528e-21)
(0.99304 0.0263922 -1.10329e-21)
(0.991941 0.0257561 -8.07286e-21)
(0.969031 0.73619 -5.98602e-19)
(1.03709 0.298523 4.00199e-20)
(0.976835 0.303487 -8.70682e-19)
(1.00245 0.141356 -3.89701e-20)
(0.978793 0.15054 -8.04241e-20)
(0.991845 0.0895051 2.2426e-20)
(0.982107 0.0856506 2.16263e-20)
(0.988536 0.0623309 -5.13387e-21)
(0.984838 0.0559733 4.34961e-22)
(0.988645 0.0449221 1.87136e-21)
(0.986858 0.0405388 2.09368e-21)
(0.990246 0.0333217 -1.33042e-20)
(0.988886 0.0312829 -1.95391e-21)
(0.992136 0.0259199 -2.67239e-22)
(0.991467 0.0255767 9.56446e-21)
(0.928984 0.73154 5.66102e-20)
(1.01025 0.305482 -6.81275e-21)
(0.960101 0.299912 5.99872e-19)
(0.990579 0.144481 -5.10274e-21)
(0.9704 0.148856 2.05269e-20)
(0.985288 0.0904121 -1.73206e-20)
(0.977258 0.0850143 1.63717e-21)
(0.984542 0.0622886 -4.71336e-21)
(0.981683 0.0555371 5.27201e-21)
(0.986002 0.0446583 -1.6379e-20)
(0.984706 0.0400732 6.47045e-21)
(0.988371 0.0329673 5.07334e-21)
(0.987361 0.0307018 -4.76484e-21)
(0.991095 0.0251805 9.35695e-21)
(0.990771 0.0250045 1.33744e-21)
(0.888803 0.723823 -3.19418e-19)
(0.98312 0.310484 2.67199e-20)