/*--------------------------------*- C++ -*----------------------------------*\
  =========                 |
  \\      /  F ield         | OpenFOAM: The Open Source CFD Toolbox
   \\    /   O peration     | Website:  https://openfoam.org
    \\  /    A nd           | Version:  7
     \\/     M anipulation  |
\*---------------------------------------------------------------------------*/
FoamFile
{
    version     2.0;
    format      ascii;
    class       volScalarField;
    location    "3.5";
    object      T;
}
// * * * * * * * * * * * * * * * * * * * * * * * * * * * * * * * * * * * * * //

dimensions      [0 0 0 1 0 0 0];

internalField   nonuniform List<scalar> 
2413
(
1.25227
1.25322
1.2537
1.25386
1.25397
1.25415
1.25444
1.25522
1.25699
1.26036
1.26587
1.27406
1.28535
1.30015
1.3187
1.34075
1.36575
1.39218
1.4176
1.44039
1.45859
1.47152
1.47884
1.47941
1.47736
1.47278
1.46598
1.45807
1.45057
1.44451
1.4402
1.43718
1.43669
1.43845
1.44286
1.44987
1.4592
1.47046
1.48327
1.497
1.51136
1.52571
1.53984
1.55385
1.56738
1.57994
1.5911
1.60123
1.61125
1.61992
1.62682
1.63191
1.63454
1.63569
1.6363
1.63727
1.63898
1.64097
1.64284
1.64486
1.64707
1.64974
1.65281
1.65609
1.65967
1.6632
1.66568
1.6675
1.66723
1.66566
1.66153
1.65534
1.64688
1.63569
1.61959
1.59902
1.57196
1.53951
1.50085
1.45766
1.41354
1.37435
1.34458
1.32883
1.32855
1.33444
1.3529
1.38745
1.21338
1.21578
1.21777
1.21931
1.22033
1.22082
1.221
1.22109
1.22133
1.22195
1.22335
1.22594
1.23012
1.23648
1.24566
1.25829
1.27513
1.2963
1.3213
1.34936
1.37826
1.40535
1.4285
1.44571
1.45735
1.46239
1.46186
1.45926
1.45491
1.4493
1.44345
1.43862
1.43577
1.43367
1.43408
1.43605
1.44018
1.44679
1.45592
1.46731
1.48066
1.49557
1.51172
1.52838
1.54491
1.56089
1.57619
1.59114
1.60614
1.61818
1.63039
1.64179
1.6514
1.65932
1.6648
1.66764
1.66744
1.66562
1.66306
1.66065
1.65948
1.65846
1.6567
1.65539
1.65344
1.65288
1.65323
1.6544
1.65563
1.65643
1.6564
1.65546
1.65268
1.6479
1.64085
1.63206
1.61823
1.59935
1.57251
1.53889
1.49817
1.45307
1.4074
1.37083
1.34581
1.33458
1.33431
1.34175
1.20096
1.20207
1.20313
1.20407
1.20476
1.20499
1.20493
1.20469
1.20438
1.20408
1.20405
1.20421
1.20478
1.20606
1.20845
1.21253
1.21915
1.22908
1.24314
1.26198
1.28527
1.31215
1.34131
1.37035
1.3967
1.4179
1.43267
1.44223
1.44557
1.44494
1.44259
1.43938
1.43619
1.4333
1.43282
1.4327
1.43357
1.43596
1.44026
1.44667
1.45533
1.46632
1.47962
1.49486
1.51133
1.52875
1.54697
1.56526
1.58307
1.60092
1.61923
1.63575
1.65042
1.66442
1.67682
1.68662
1.6944
1.69665
1.6963
1.69431
1.68989
1.68366
1.67651
1.67
1.66458
1.65937
1.65523
1.65104
1.6476
1.64539
1.64525
1.64518
1.64486
1.64396
1.6425
1.63882
1.6335
1.62595
1.61526
1.5983
1.57345
1.54029
1.49979
1.45433
1.40868
1.37395
1.35126
1.33825
1.20066
1.20056
1.20054
1.20057
1.20055
1.20038
1.19994
1.19927
1.19841
1.19751
1.19675
1.1961
1.19558
1.19514
1.19487
1.19502
1.19578
1.19764
1.20168
1.20885
1.21981
1.23524
1.2554
1.27959
1.30669
1.33487
1.36192
1.38593
1.40433
1.41702
1.42497
1.42881
1.42995
1.42971
1.42938
1.42955
1.4302
1.43137
1.43355
1.43691
1.4417
1.4483
1.45701
1.46785
1.48071
1.49542
1.51172
1.5298
1.54937
1.56994
1.59126
1.61309
1.63496
1.65493
1.67251
1.68757
1.70013
1.70951
1.71676
1.71985
1.71896
1.71575
1.71022
1.7032
1.69426
1.68345
1.67267
1.66273
1.65521
1.64899
1.64319
1.63873
1.63525
1.63418
1.63349
1.63279
1.63142
1.62927
1.62472
1.61803
1.60873
1.59451
1.57322
1.54168
1.50381
1.46066
1.41704
1.38162
1.20322
1.20266
1.20228
1.20199
1.20167
1.20117
1.20036
1.19921
1.19774
1.1962
1.1948
1.19358
1.19248
1.19143
1.19026
1.18912
1.18802
1.18725
1.18738
1.18818
1.19019
1.19437
1.20172
1.21316
1.22924
1.2497
1.27365
1.2996
1.32553
1.34973
1.37063
1.387
1.39904
1.40744
1.41295
1.41719
1.42044
1.42294
1.4255
1.42835
1.43182
1.43626
1.44194
1.44909
1.45792
1.46861
1.4812
1.49562
1.51219
1.53141
1.55299
1.57648
1.60151
1.62728
1.65209
1.6744
1.69288
1.70748
1.71821
1.72558
1.73015
1.73063
1.72993
1.72733
1.7223
1.7149
1.70491
1.69388
1.68138
1.66773
1.65604
1.64716
1.63924
1.63296
1.62779
1.62414
1.62261
1.62153
1.62002
1.61835
1.61533
1.60898
1.60021
1.58799
1.56989
1.5437
1.50941
1.47113
1.20575
1.20495
1.20421
1.20356
1.20292
1.20212
1.20103
1.1996
1.19793
1.19613
1.19438
1.19279
1.19133
1.18991
1.18835
1.18672
1.18508
1.1836
1.18241
1.18126
1.18019
1.18014
1.18075
1.18269
1.18689
1.19443
1.20607
1.22185
1.24118
1.26313
1.28625
1.3091
1.33045
1.34919
1.36504
1.37832
1.38883
1.3971
1.40378
1.40937
1.41436
1.41921
1.42428
1.42995
1.43653
1.44421
1.45329
1.4641
1.47684
1.49192
1.50999
1.53137
1.55591
1.58301
1.61193
1.64114
1.66782
1.69049
1.70789
1.72004
1.72757
1.73213
1.73357
1.73337
1.73271
1.73059
1.72687
1.72134
1.71171
1.69998
1.68746
1.67329
1.65932
1.64752
1.63721
1.6282
1.62146
1.61567
1.61225
1.61064
1.60884
1.60636
1.60449
1.59995
1.59102
1.57998
1.56509
1.54402
1.20673
1.20591
1.20506
1.20428
1.20351
1.20259
1.20138
1.19982
1.19801
1.19607
1.19415
1.19237
1.19077
1.1892
1.18759
1.18589
1.1841
1.18233
1.18044
1.17843
1.17655
1.17478
1.17342
1.17216
1.17196
1.17267
1.17464
1.17866
1.1856
1.19615
1.21012
1.2268
1.24551
1.26537
1.28557
1.30512
1.3231
1.33908
1.35297
1.36487
1.37505
1.38385
1.39164
1.39884
1.40586
1.4131
1.42085
1.42951
1.43956
1.45147
1.46586
1.48334
1.50454
1.52958
1.55806
1.58901
1.62074
1.65112
1.67738
1.69807
1.71264
1.72267
1.72754
1.73026
1.73198
1.7318
1.73123
1.73082
1.72845
1.72395
1.71689
1.70594
1.69274
1.67832
1.66303
1.64895
1.63689
1.62587
1.61671
1.60981
1.60373
1.60025
1.59799
1.59504
1.5921
1.5897
1.58381
1.57265
1.2067
1.20585
1.20495
1.20408
1.20323
1.20222
1.20095
1.19938
1.19755
1.1956
1.19367
1.19184
1.19017
1.1885
1.18683
1.18516
1.18337
1.18156
1.17952
1.1773
1.17519
1.17283
1.17048
1.16843
1.16651
1.16523
1.16375
1.16315
1.1638
1.1653
1.16842
1.17388
1.18222
1.19342
1.2072
1.22294
1.23993
1.25738
1.27461
1.29109
1.30649
1.32061
1.33341
1.34502
1.3556
1.36552
1.37514
1.38479
1.39496
1.40616
1.41895
1.43403
1.45199
1.47335
1.49851
1.52741
1.55904
1.59215
1.62457
1.65336
1.67677
1.6952
1.70716
1.71491
1.72096
1.72449
1.7263
1.72904
1.73152
1.73108
1.72983
1.72666
1.72096
1.71199
1.69935
1.68428
1.66794
1.65136
1.63709
1.62483
1.61367
1.60462
1.59726
1.59161
1.58823
1.58506
1.58067
1.57675
1.20612
1.20522
1.20426
1.20334
1.2024
1.20132
1.20001
1.19842
1.19657
1.19465
1.19273
1.1909
1.18923
1.18753
1.18587
1.18422
1.18241
1.18054
1.17845
1.17622
1.17405
1.17165
1.16927
1.16701
1.16452
1.16205
1.15966
1.15753
1.15601
1.15429
1.15307
1.15333
1.15419
1.15629
1.16018
1.16632
1.17476
1.18534
1.19767
1.21133
1.22591
1.24096
1.25605
1.27087
1.28522
1.2991
1.31249
1.32557
1.33861
1.35187
1.36575
1.3808
1.39748
1.41647
1.43828
1.46341
1.49186
1.52311
1.55629
1.58911
1.6197
1.64586
1.66608
1.68188
1.6941
1.70332
1.70999
1.71684
1.7234
1.72755
1.73044
1.73316
1.73298
1.72998
1.72457
1.71618
1.70413
1.6889
1.67229
1.65445
1.63787
1.62353
1.61024
1.60001
1.59223
1.58573
1.58023
1.57609
1.20531
1.20435
1.20335
1.20234
1.2013
1.20011
1.1987
1.19705
1.19513
1.19317
1.19124
1.18941
1.18773
1.18606
1.18443
1.18279
1.18096
1.17904
1.17695
1.17479
1.17267
1.17039
1.1681
1.16579
1.16331
1.16073
1.15813
1.15537
1.15263
1.14998
1.14768
1.14585
1.14399
1.1424
1.14155
1.14178
1.14296
1.14541
1.1495
1.15549
1.16346
1.17321
1.18451
1.19714
1.21082
1.22529
1.24031
1.25578
1.27151
1.28748
1.30374
1.32039
1.33768
1.3561
1.37605
1.3981
1.42285
1.45056
1.48103
1.51357
1.54677
1.57802
1.6061
1.63024
1.64943
1.665
1.6793
1.69152
1.701
1.71146
1.72189
1.7277
1.73112
1.73321
1.73238
1.72992
1.72439
1.71566
1.7042
1.6892
1.67256
1.65578
1.63777
1.62118
1.60784
1.59554
1.58615
1.58039
1.20433
1.20335
1.20234
1.20129
1.20015
1.19883
1.1973
1.19555
1.19356
1.19152
1.1895
1.1876
1.18586
1.1842
1.1826
1.18094
1.17909
1.17713
1.17509
1.17304
1.17098
1.16881
1.1666
1.16435
1.16197
1.15948
1.15684
1.15407
1.15124
1.14846
1.14567
1.14285
1.14007
1.13746
1.1351
1.1329
1.13107
1.12929
1.1288
1.12926
1.13071
1.1336
1.13827
1.14483
1.15322
1.16336
1.17521
1.18863
1.20337
1.21926
1.23598
1.25331
1.2712
1.28969
1.30887
1.32922
1.35127
1.37555
1.40254
1.43236
1.46431
1.49726
1.53004
1.56054
1.58742
1.61124
1.63164
1.64918
1.66579
1.68057
1.69329
1.70658
1.71862
1.72788
1.73055
1.72965
1.72781
1.72402
1.71774
1.70835
1.69652
1.68272
1.66601
1.64897
1.6333
1.61659
1.60161
1.59126
1.20356
1.20249
1.2014
1.20026
1.199
1.19757
1.19595
1.19412
1.19207
1.18995
1.18783
1.18579
1.18392
1.1822
1.18056
1.17886
1.17699
1.17505
1.17305
1.17103
1.16898
1.16685
1.16473
1.16258
1.16036
1.15799
1.15544
1.15276
1.15003
1.14731
1.14455
1.14167
1.13869
1.13571
1.13274
1.12974
1.12687
1.12415
1.12178
1.11958
1.11752
1.11634
1.11652
1.11751
1.11986
1.12394
1.12994
1.13784
1.14762
1.15929
1.17262
1.18738
1.20335
1.22023
1.23793
1.25658
1.27641
1.29786
1.32156
1.34781
1.37667
1.40814
1.44141
1.47497
1.50772
1.53843
1.56567
1.58994
1.61194
1.63204
1.65067
1.66777
1.68354
1.69741
1.70729
1.7147
1.71903
1.71904
1.717
1.71254
1.7056
1.69602
1.6832
1.6684
1.65323
1.63683
1.6202
1.60718
1.20302
1.20184
1.20064
1.19937
1.198
1.19648
1.19479
1.19287
1.19078
1.18858
1.18635
1.18419
1.18221
1.18038
1.17865
1.17688
1.17499
1.17306
1.17108
1.16905
1.16694
1.16481
1.16272
1.16064
1.15852
1.15626
1.15386
1.15133
1.14876
1.14617
1.14352
1.14075
1.13785
1.13485
1.13179
1.12869
1.12559
1.12253
1.11947
1.11644
1.11358
1.11088
1.10853
1.1064
1.10501
1.10507
1.10589
1.10799
1.11182
1.11748
1.12498
1.1343
1.14531
1.15784
1.17174
1.18691
1.20335
1.22126
1.24103
1.26297
1.28753
1.31497
1.34515
1.3776
1.41153
1.44546
1.47827
1.50894
1.53686
1.56211
1.58507
1.60615
1.62591
1.64431
1.66109
1.67571
1.68611
1.69373
1.6968
1.69607
1.69314
1.6875
1.67876
1.66753
1.65601
1.64328
1.62796
1.61429
1.20284
1.20153
1.20018
1.19875
1.19723
1.19558
1.19379
1.19183
1.18971
1.18747
1.18515
1.18289
1.1808
1.17888
1.17706
1.17523
1.17335
1.17143
1.16942
1.16731
1.16511
1.16292
1.1608
1.15871
1.15659
1.15437
1.15208
1.14969
1.14728
1.14481
1.14227
1.13965
1.13691
1.13408
1.13115
1.12816
1.12511
1.12199
1.11882
1.11567
1.11246
1.10927
1.10624
1.10331
1.10051
1.09818
1.09621
1.09482
1.09484
1.09554
1.09743
1.10087
1.10586
1.11251
1.12077
1.13057
1.14187
1.15475
1.16934
1.18581
1.20458
1.22589
1.24995
1.27691
1.30663
1.33859
1.37191
1.40521
1.43726
1.46705
1.49419
1.51892
1.54211
1.56421
1.58547
1.6053
1.62268
1.63675
1.64653
1.65369
1.65654
1.65591
1.65311
1.64798
1.64097
1.63142
1.61916
1.60766
1.20271
1.20129
1.19987
1.19837
1.19677
1.19504
1.19315
1.19111
1.18893
1.1866
1.18421
1.18187
1.17968
1.17766
1.17575
1.17389
1.17202
1.17009
1.16806
1.1659
1.16367
1.16144
1.15925
1.15708
1.15485
1.15258
1.1503
1.14799
1.14568
1.14327
1.14075
1.1382
1.13559
1.13294
1.13024
1.12743
1.12449
1.12147
1.1184
1.11526
1.11207
1.10888
1.10565
1.10247
1.09939
1.09641
1.09356
1.09093
1.08875
1.08692
1.08555
1.08547
1.08596
1.08741
1.09007
1.09409
1.09949
1.1064
1.11485
1.12495
1.13696
1.15103
1.16738
1.18639
1.2083
1.23318
1.26069
1.29019
1.32064
1.35066
1.37924
1.40634
1.43223
1.45707
1.48111
1.5039
1.52498
1.54337
1.55844
1.57088
1.58065
1.58664
1.59047
1.59173
1.591
1.58766
1.58164
1.57527
1.20288
1.20134
1.19975
1.19813
1.19645
1.19469
1.19279
1.19072
1.18849
1.18609
1.18364
1.18124
1.17894
1.1768
1.1748
1.17287
1.17098
1.16905
1.16701
1.16487
1.16266
1.16042
1.15818
1.1559
1.15355
1.1512
1.14888
1.1466
1.1443
1.14188
1.13933
1.13673
1.13413
1.13159
1.12903
1.12639
1.12362
1.12073
1.11778
1.11476
1.11167
1.10855
1.1054
1.10224
1.09908
1.09598
1.09296
1.09004
1.08722
1.08456
1.08211
1.07999
1.07835
1.07691
1.07635
1.07655
1.07736
1.07906
1.08183
1.08584
1.09118
1.09798
1.10647
1.11695
1.12975
1.14514
1.16323
1.184
1.20692
1.23112
1.25594
1.28104
1.3059
1.33038
1.35433
1.37704
1.39794
1.41693
1.43406
1.4493
1.46263
1.47296
1.48124
1.48829
1.49305
1.49509
1.49487
1.49427
1.20317
1.20151
1.19983
1.19813
1.19638
1.19455
1.19261
1.19052
1.18828
1.18587
1.18339
1.18093
1.17856
1.17634
1.17424
1.17222
1.17026
1.16827
1.16623
1.16412
1.16198
1.15979
1.15754
1.1552
1.15279
1.15036
1.14798
1.14567
1.14334
1.1409
1.13835
1.13571
1.13305
1.13045
1.12788
1.12529
1.12263
1.11988
1.11705
1.11414
1.11117
1.10818
1.10516
1.10213
1.09905
1.09597
1.09291
1.08991
1.08698
1.08414
1.08138
1.07876
1.07629
1.07395
1.07188
1.07014
1.06877
1.06763
1.0673
1.06751
1.06825
1.06974
1.07214
1.07567
1.08057
1.08706
1.09541
1.10583
1.1183
1.13266
1.14882
1.16642
1.18498
1.20432
1.22366
1.24217
1.25956
1.27586
1.29093
1.30478
1.31748
1.32836
1.33715
1.3452
1.35235
1.35656
1.35994
1.36224
1.20371
1.20193
1.20016
1.19838
1.19656
1.19467
1.19266
1.19051
1.1882
1.18575
1.18325
1.18076
1.17836
1.1761
1.17393
1.17186
1.16982
1.16775
1.16565
1.16352
1.16141
1.15929
1.15711
1.15485
1.1525
1.15005
1.14757
1.1451
1.14267
1.14022
1.13771
1.13513
1.1325
1.12982
1.12712
1.12445
1.12181
1.11914
1.11642
1.11362
1.11073
1.10784
1.10493
1.102
1.09903
1.09601
1.09298
1.09001
1.0871
1.08427
1.08148
1.07876
1.0761
1.07351
1.07102
1.06867
1.06648
1.06445
1.06263
1.06102
1.05978
1.05874
1.05812
1.05821
1.05871
1.05985
1.06183
1.06486
1.06904
1.07442
1.08119
1.08921
1.09843
1.10874
1.1195
1.13037
1.14123
1.15187
1.16178
1.1711
1.17993
1.18772
1.19384
1.1998
1.20535
1.20842
1.21147
1.21339
1.20444
1.20258
1.20074
1.19888
1.19699
1.19504
1.19298
1.19077
1.18841
1.18591
1.18333
1.18075
1.17827
1.17593
1.17373
1.17164
1.16958
1.16751
1.16539
1.1632
1.16099
1.15881
1.15666
1.52665
1.50436
1.47226
1.4224
1.35788
1.2952
1.2297
1.16468
1.11077
1.07805
1.07211
1.07398
1.07993
1.09619
1.46363
1.47686
1.48791
1.49579
1.50027
1.50189
1.5018
1.5003
1.49607
1.48818
1.47656
1.46229
1.44727
1.43348
1.42207
1.41357
1.40748
1.40269
1.39835
1.3934
1.38691
1.37874
1.3694
1.35964
1.35026
1.34209
1.33552
1.33028
1.326
1.32261
1.32012
1.31849
1.31747
1.31691
1.31679
1.31713
1.31813
1.31964
1.32141
1.32333
1.32549
1.32808
1.33119
1.33485
1.33924
1.34459
1.3511
1.359
1.36846
1.37956
1.39242
1.4073
1.4245
1.44409
1.46569
1.48855
1.51155
1.53342
1.55281
1.5688
1.58117
1.5904
1.59732
1.60266
1.60653
1.6083
1.60789
1.60572
1.60107
1.59357
1.58339
1.57115
1.5571
1.54013
1.51823
1.49187
1.4622
1.43169
1.40439
1.3778
1.34432
1.29969
1.25048
1.20194
1.1503
1.10814
1.09371
1.10684
1.46728
1.47915
1.4897
1.49807
1.5039
1.50713
1.50823
1.50795
1.50612
1.5017
1.49376
1.48247
1.46896
1.4547
1.4413
1.43016
1.42207
1.41622
1.41193
1.40881
1.40558
1.40136
1.39574
1.38886
1.38103
1.37277
1.36486
1.35759
1.35107
1.34549
1.34121
1.33839
1.33688
1.33642
1.33667
1.33773
1.33995
1.34317
1.34709
1.35147
1.35626
1.36151
1.3673
1.37371
1.38088
1.38898
1.39815
1.40841
1.41971
1.43198
1.44519
1.45943
1.47496
1.4919
1.51004
1.52876
1.54711
1.56411
1.57877
1.59062
1.59953
1.60579
1.61018
1.61319
1.61457
1.61428
1.61221
1.60793
1.60112
1.59143
1.57903
1.56483
1.54781
1.5269
1.50232
1.47533
1.44816
1.42202
1.39507
1.36874
1.34397
1.32887
1.32058
1.31043
1.29785
1.28327
1.25851
1.2264
1.47118
1.4813
1.49079
1.49897
1.50537
1.50974
1.51249
1.51369
1.51356
1.51195
1.50797
1.50096
1.49083
1.47841
1.46513
1.45231
1.44115
1.43251
1.42637
1.42229
1.42
1.41826
1.41626
1.41353
1.40965
1.40476
1.39901
1.39238
1.38509
1.37775
1.3711
1.36582
1.36229
1.36065
1.36055
1.3615
1.36392
1.36779
1.37284
1.37886
1.38575
1.39353
1.40223
1.4119
1.42257
1.43427
1.44708
1.46081
1.47503
1.48932
1.50331
1.51676
1.53014
1.54353
1.55699
1.57012
1.5827
1.59405
1.60355
1.6109
1.61595
1.61919
1.62107
1.6218
1.62147
1.6196
1.61554
1.6092
1.60052
1.58882
1.57413
1.5572
1.53682
1.51256
1.48545
1.45702
1.4285
1.40001
1.37257
1.34797
1.33047
1.32101
1.32088
1.32892
1.34515
1.36584
1.38436
1.40622
1.47284
1.48179
1.49037
1.49812
1.50462
1.50958
1.51331
1.51568
1.51701
1.51746
1.51682
1.51436
1.5091
1.50064
1.48978
1.47775
1.46549
1.45417
1.44471
1.43748
1.43255
1.43026
1.42956
1.42927
1.42876
1.4279
1.42632
1.42351
1.41953
1.41475
1.40955
1.40428
1.39958
1.39603
1.3939
1.39327
1.39397
1.39622
1.40024
1.40588
1.41297
1.42143
1.43128
1.44253
1.45514
1.469
1.48413
1.50034
1.51704
1.53342
1.54884
1.56294
1.5759
1.58777
1.59873
1.60843
1.61683
1.62365
1.6286
1.63189
1.63368
1.63418
1.63368
1.63202
1.62941
1.62528
1.61926
1.61124
1.60118
1.58861
1.5727
1.55328
1.5307
1.50414
1.47458
1.44306
1.41093
1.37995
1.35249
1.33019
1.3161
1.31166
1.31473
1.32322
1.33914
1.366
1.40915
1.47262
1.47084
1.47826
1.48554
1.49253
1.49902
1.50474
1.50953
1.51323
1.51604
1.51807
1.51917
1.51929
1.51815
1.51478
1.50931
1.50122
1.49053
1.47895
1.46765
1.45754
1.44902
1.44251
1.43867
1.4373
1.43785
1.43931
1.44056
1.44097
1.44136
1.4415
1.44099
1.43971
1.43801
1.43624
1.43454
1.43335
1.43308
1.43359
1.43522
1.43838
1.44316
1.4496
1.45776
1.46759
1.47893
1.49162
1.50568
1.52102
1.5371
1.55341
1.56959
1.58487
1.59908
1.61211
1.62381
1.63394
1.64219
1.64811
1.65151
1.65239
1.65221
1.65123
1.64932
1.64599
1.64121
1.63485
1.6269
1.61722
1.60582
1.59227
1.57568
1.55544
1.53187
1.50454
1.47395
1.44052
1.40571
1.37259
1.34379
1.32118
1.30821
1.30707
1.31098
1.32125
1.34002
1.37041
1.41629
1.47463
1.4571
1.46121
1.4659
1.47123
1.47711
1.48343
1.48998
1.49652
1.50277
1.50832
1.51268
1.51587
1.51763
1.51813
1.51725
1.5136
1.50788
1.50057
1.49103
1.47993
1.46904
1.45947
1.45157
1.44547
1.4421
1.44108
1.44205
1.44473
1.44818
1.45169
1.45499
1.45849
1.46194
1.46504
1.46754
1.46975
1.47179
1.4737
1.4757
1.47792
1.48076
1.48466
1.48971
1.49596
1.50328
1.5118
1.5216
1.53286
1.5455
1.55928
1.57358
1.58781
1.60214
1.6163
1.62949
1.64115
1.65109
1.65869
1.66384
1.66677
1.66797
1.66775
1.66618
1.66253
1.65689
1.64948
1.6406
1.62989
1.6173
1.60279
1.58561
1.56498
1.54103
1.5135
1.48229
1.44798
1.41178
1.37692
1.34598
1.32113
1.30704
1.30662
1.31085
1.32211
1.34226
1.37395
1.41932
1.4775
1.42464
1.42443
1.42525
1.42755
1.43117
1.43643
1.44335
1.4518
1.46139
1.47163
1.4819
1.49184
1.50074
1.50755
1.51193
1.51318
1.51254
1.50995
1.50481
1.49778
1.48901
1.47897
1.46812
1.45821
1.45025
1.44486
1.44303
1.44292
1.44467
1.44867
1.45388
1.46003
1.46659
1.47302
1.47969
1.48661
1.49326
1.49948
1.5052
1.51039
1.51542
1.52043
1.52525
1.52981
1.53401
1.53854
1.54348
1.54899
1.5561
1.56434
1.57421
1.5856
1.59755
1.60962
1.62175
1.63367
1.64531
1.65545
1.66364
1.67036
1.67497
1.67706
1.67681
1.67538
1.67189
1.66634
1.65793
1.64788
1.63585
1.62165
1.6049
1.58475
1.56079
1.53365
1.50274
1.46835
1.43115
1.39365
1.35906
1.33033
1.31228
1.31025
1.31377
1.3242
1.34394
1.3754
1.41981
1.47645
1.37138
1.36823
1.36622
1.36575
1.36665
1.36925
1.37386
1.38096
1.39058
1.40268
1.41684
1.43265
1.44908
1.46502
1.47966
1.49183
1.50047
1.50501
1.50502
1.50317
1.49889
1.49258
1.48421
1.47442
1.46418
1.4545
1.44726
1.44307
1.44242
1.44315
1.44628
1.45179
1.45873
1.46691
1.47588
1.48509
1.49423
1.50352
1.51257
1.522
1.5316
1.54069
1.54893
1.5562
1.56231
1.5676
1.57177
1.57403
1.57647
1.57952
1.58395
1.58969
1.59676
1.6046
1.61343
1.62286
1.6326
1.64252
1.65219
1.66063
1.66789
1.67332
1.67703
1.67944
1.679
1.67673
1.6719
1.66518
1.65613
1.64396
1.62969
1.61204
1.59052
1.56493
1.53568
1.50248
1.46563
1.4261
1.38763
1.35285
1.32727
1.31611
1.31699
1.32372
1.34017
1.36911
1.41127
1.46505
1.31092
1.30862
1.30651
1.30497
1.30452
1.305
1.30643
1.30958
1.31504
1.3234
1.3349
1.34976
1.36769
1.38817
1.41028
1.43235
1.45288
1.47051
1.4838
1.49234
1.49498
1.49374
1.49019
1.48412
1.47616
1.46688
1.45774
1.44981
1.44408
1.44042
1.44008
1.44138
1.44551
1.45243
1.46134
1.47156
1.48243
1.49361
1.50529
1.51736
1.52917
1.54057
1.55158
1.56239
1.57304
1.5827
1.59091
1.59698
1.6014
1.60388
1.60538
1.60705
1.60944
1.61282
1.61687
1.62153
1.62665
1.63278
1.63926
1.6461
1.65279
1.65949
1.66585
1.6705
1.6739
1.67558
1.67552
1.67317
1.66837
1.66124
1.65224
1.63974
1.62359
1.6035
1.578
1.54823
1.51371
1.47469
1.43264
1.39203
1.35647
1.33093
1.32109
1.32256
1.33127
1.35148
1.38671
1.43625
)
;

boundaryField
{
    inlet
    {
        type            fixedValue;
        value           nonuniform 0();
    }
    outlet
    {
        type            inletOutlet;
        inletValue      nonuniform 0();
        value           nonuniform 0();
    }
    bottom
    {
        type            symmetryPlane;
    }
    top
    {
        type            symmetryPlane;
    }
    obstacle
    {
        type            zeroGradient;
    }
    front
    {
        type            empty;
    }
    back
    {
        type            empty;
    }
    procBoundary19to2
    {
        type            processor;
        value           nonuniform List<scalar> 
23
(
1.25063
1.21061
1.19995
1.20077
1.20401
1.20657
1.20747
1.20743
1.2069
1.20618
1.20533
1.2047
1.20426
1.20417
1.44981
1.45531
1.46116
1.46429
1.46397
1.4535
1.42547
1.37507
1.31309
)
;
    }
    procBoundary19to10
    {
        type            processor;
        value           nonuniform List<scalar> 5(1.20416 1.20445 1.20485 1.2055 1.20632);
    }
    procBoundary19to11
    {
        type            processor;
        value           nonuniform List<scalar> 
89
(
1.4688
1.41257
1.34971
1.28305
1.22033
1.16412
1.13579
1.1185
1.10759
1.10141
1.09631
1.09208
1.09153
1.09591
1.4619
1.47553
1.48594
1.49236
1.49507
1.49548
1.49448
1.49113
1.48405
1.47296
1.45875
1.44325
1.42865
1.41652
1.4074
1.40074
1.39519
1.38954
1.38302
1.37494
1.3649
1.35361
1.34277
1.33327
1.32542
1.31918
1.31441
1.3107
1.3077
1.30528
1.30345
1.30212
1.30106
1.30005
1.29903
1.2982
1.29766
1.29734
1.29719
1.2972
1.29749
1.29834
1.29983
1.30193
1.30473
1.30847
1.31333
1.31953
1.32735
1.33709
1.34901
1.36344
1.38071
1.40096
1.4239
1.44878
1.4744
1.49934
1.52227
1.54217
1.55869
1.57184
1.58173
1.58913
1.59509
1.59917
1.60057
1.6001
1.5986
1.59467
1.58703
1.57515
1.56102
1.54497
1.54497
)
;
    }
    procBoundary19to12
    {
        type            processor;
        value           uniform 1.12094;
    }
    procBoundary19to20
    {
        type            processor;
        value           nonuniform List<scalar> 
27
(
1.43763
1.36249
1.33315
1.3563
1.43102
1.51611
1.56024
1.57421
1.57229
1.57576
1.58288
1.59584
1.60276
1.59757
1.56848
1.4917
1.36126
1.21245
1.13779
1.20296
1.43648
1.54544
1.54607
1.54772
1.54296
1.52667
1.49607
)
;
    }
    procBoundary19to27
    {
        type            processor;
        value           nonuniform List<scalar> 
89
(
1.1545
1.15226
1.1499
1.14745
1.14491
1.14236
1.13983
1.13732
1.1348
1.13224
1.12959
1.12685
1.12407
1.12135
1.11868
1.11599
1.11326
1.11046
1.10762
1.10477
1.10193
1.09907
1.09616
1.09323
1.0903
1.08744
1.08465
1.08188
1.07914
1.07644
1.0738
1.07122
1.06873
1.06633
1.064
1.06174
1.05959
1.05758
1.05562
1.05382
1.05226
1.05085
1.0496
1.04879
1.04826
1.04828
1.04868
1.04979
1.05151
1.05399
1.0571
1.06061
1.06446
1.06858
1.07286
1.07683
1.08061
1.08439
1.08712
1.08903
1.09193
1.09366
1.09353
1.09415
1.09418
1.2054
1.20346
1.20154
1.19961
1.19766
1.19565
1.19356
1.19134
1.18898
1.18646
1.1838
1.18108
1.17842
1.17592
1.17361
1.17148
1.16946
1.16746
1.16541
1.16326
1.16094
1.15854
1.1545
1.15628
)
;
    }
}


// ************************************************************************* //
