/*--------------------------------*- C++ -*----------------------------------*\
  =========                 |
  \\      /  F ield         | OpenFOAM: The Open Source CFD Toolbox
   \\    /   O peration     | Website:  https://openfoam.org
    \\  /    A nd           | Version:  7
     \\/     M anipulation  |
\*---------------------------------------------------------------------------*/
FoamFile
{
    version     2.0;
    format      ascii;
    class       surfaceScalarField;
    location    "15";
    object      phi;
}
// * * * * * * * * * * * * * * * * * * * * * * * * * * * * * * * * * * * * * //

dimensions      [0 3 -1 0 0 0 0];

internalField   nonuniform List<scalar> 
728
(
0.0561742
-0.00914791
-0.00871146
0.0577384
-0.011451
0.0575723
-0.0110628
0.0574123
-0.0106669
0.0572587
-0.010264
0.0571114
-0.00985403
0.0569707
-0.00943721
0.0568365
-0.00901377
-0.00858405
0.0591617
-0.0127005
-0.0593594
0.0589691
-0.0123698
0.0587821
-0.0120134
0.0586007
-0.0116491
0.0584251
-0.0112755
0.0582558
-0.0108934
0.0580928
-0.0105039
0.0579362
-0.0101073
0.057786
-0.00970387
0.0576424
-0.00929364
0.0575056
-0.00887692
-0.00845402
0.0598682
-0.0124993
-0.0600694
0.0596722
-0.0121738
0.0594818
-0.011823
0.0592971
-0.0114644
0.0591184
-0.0110968
0.058946
-0.010721
0.05878
-0.0103379
0.0586204
-0.00994779
0.0584675
-0.00955089
0.0583212
-0.00914734
0.0581817
-0.00873742
-0.00832143
0.0605813
-0.0122947
-0.0607859
0.0603819
-0.0119743
0.0601882
-0.0116293
0.0600003
-0.0112765
0.0598185
-0.0109151
0.0596431
-0.0105456
0.0594742
-0.0101689
0.0593118
-0.0097854
0.0591561
-0.00939515
0.0590071
-0.00899839
0.058865
-0.00859536
-0.00818637
0.0613013
-0.0120867
-0.0615093
0.0610985
-0.0117715
0.0609016
-0.0114324
0.0607106
-0.0110855
0.0605258
-0.0107303
0.0603474
-0.0103673
0.0601756
-0.00999713
0.0600104
-0.00962023
0.059852
-0.00923673
0.0597005
-0.00884684
0.0595559
-0.00845079
-0.00804889
0.0620284
-0.0118754
-0.0622398
0.0618224
-0.0115654
0.0616222
-0.0112323
0.0614282
-0.0108915
0.0612404
-0.0105425
0.0610591
-0.010186
0.0608845
-0.0098225
0.0607166
-0.00945233
0.0605556
-0.00907567
0.0604015
-0.00869274
0.0602544
-0.00830377
-0.00790906
0.062763
-0.0116607
-0.0629776
0.0625537
-0.0113561
0.0623504
-0.011029
0.0621533
-0.0106944
0.0619626
-0.0103518
0.0617785
-0.0100019
0.0616011
-0.00964511
0.0614305
-0.00928175
0.0612669
-0.00891202
0.0611103
-0.00853614
0.0609609
-0.00815434
-0.0077669
0.0635052
-0.0114428
-0.0637231
0.0632927
-0.0111437
0.0630864
-0.0108227
0.0628863
-0.0104943
0.0626927
-0.0101582
0.0625058
-0.00981498
0.0623257
-0.00946497
0.0621524
-0.00910852
0.0619862
-0.00874582
0.0618272
-0.00837708
0.0616754
-0.00800254
-0.00762247
0.0642554
-0.0112217
-0.0644765
0.0640397
-0.010928
0.0638303
-0.0106133
0.0636273
-0.0102912
0.0634308
-0.00996177
0.0632411
-0.00962527
0.0630583
-0.00928214
0.0628825
-0.00893269
0.0627137
-0.0085771
0.0625523
-0.00821559
0.0623981
-0.00784841
-0.0074758
0.0650137
-0.0109974
-0.065238
0.0647949
-0.0107093
0.0645825
-0.0104008
0.0643765
-0.0100853
0.0641772
-0.00976247
0.0639847
-0.00943279
0.0637992
-0.00909663
0.0636208
-0.00875426
0.0634496
-0.00840588
0.0632857
-0.0080517
0.0631293
-0.00769196
-0.00732691
0.0657803
-0.0107698
-0.0660078
0.0655584
-0.0104874
0.065343
-0.0101854
0.0651341
-0.0098764
0.064932
-0.00956035
0.0647368
-0.00923758
0.0645486
-0.00890848
0.0643676
-0.00857328
0.064194
-0.00823219
0.0640277
-0.00788543
0.0638689
-0.00753322
-0.00717582
0.0665555
-0.0105391
-0.0667862
0.0663305
-0.0102625
0.0661121
-0.00996699
0.0659003
-0.00966463
0.0656954
-0.00935541
0.0654975
-0.00903965
0.0653067
-0.00871768
0.0651231
-0.00838974
0.064947
-0.00805604
0.0647783
-0.00771679
0.0646173
-0.00737222
-0.00702256
0.0673394
-0.0103053
-0.0675732
0.0671114
-0.0100345
0.06689
-0.00974559
0.0666753
-0.00944997
0.0664676
-0.00914768
0.0662669
-0.008839
0.0660735
-0.00852425
0.0658874
-0.00820367
0.0657088
-0.00787745
0.0655378
-0.0075458
0.0653746
-0.00720895
-0.00686713
0.0681322
-0.0100683
-0.0683692
0.0679011
-0.00980345
0.0676768
-0.00952122
0.0674592
-0.00923244
0.0672487
-0.00893715
0.0670453
-0.00863565
0.0668493
-0.00832821
0.0666607
-0.00801507
0.0664797
-0.00769642
0.0663063
-0.00737247
0.0661408
-0.00704343
0.0689341
-0.00982809
-0.0691742
0.0687
-0.00956934
0.0684726
-0.00929388
0.0682522
-0.00901202
0.0680389
-0.00872383
0.0678328
-0.00842959
0.0676342
-0.00812955
0.067443
-0.00782394
0.0672596
-0.00751295
0.0670839
-0.00719679
-0.00687567
0.0697452
-0.00958475
-0.0699886
0.0695081
-0.00933218
0.0692777
-0.00906357
0.0690545
-0.00878872
0.0688383
-0.00850772
0.0686296
-0.00822082
0.0684283
-0.00792827
0.0682346
-0.00763028
0.0680487
-0.00732705
0.0678707
-0.00701878
-0.00670567
0.0705658
-0.00933825
-0.0708123
0.0703256
-0.00909195
0.0700923
-0.00883029
0.0698661
-0.00856254
0.0696472
-0.00828881
0.0694357
-0.00800934
0.0692318
-0.00772437
0.0690356
-0.0074341
0.0688473
-0.00713872
0.0686669
-0.00683843
-0.00653342
0.0713959
-0.00908858
-0.0716456
0.0711526
-0.00884866
0.0709164
-0.00859402
0.0706873
-0.00833346
0.0704656
-0.0080671
0.0702514
-0.00779515
0.0700448
-0.00751784
0.0698461
-0.00723538
0.0696553
-0.00694795
0.0694727
-0.00665573
-0.00635893
0.0722358
-0.00883573
-0.0724886
0.0719894
-0.00860228
0.0717501
-0.00835476
0.0715181
-0.00810148
0.0712936
-0.00784257
0.0710767
-0.00757823
0.0708675
-0.00730868
0.0706663
-0.00703412
0.0704731
-0.00675473
0.070288
-0.00647068
-0.00618219
0.0730855
-0.00857967
-0.0733415
0.072836
-0.00835281
0.0725938
-0.00811249
0.0723589
-0.00786658
0.0721315
-0.00761521
0.0719118
-0.00735857
0.0717
-0.00709688
0.0714962
-0.00683031
0.0713005
-0.00655905
0.0711131
-0.00628328
-0.00600318
0.0739452
-0.0083204
-0.0742045
0.0736927
-0.00810023
0.0734474
-0.0078672
0.0732095
-0.00762875
0.0729793
-0.007385
0.0727569
-0.00713616
0.0725424
-0.00688241
0.0723361
-0.00662394
0.0721379
-0.00636091
0.0719482
-0.00609351
-0.00582191
0.0748151
-0.00805789
-0.0750776
0.0745594
-0.00784452
0.0743111
-0.00761886
0.0740703
-0.00738796
0.0738372
-0.00715194
0.0736121
-0.00691098
0.0733949
-0.00666527
0.073186
-0.00641498
0.0729853
-0.00616029
0.0727932
-0.00590135
-0.00563836
0.0756954
-0.00779213
-0.0759611
0.0754365
-0.00758565
0.0751851
-0.00736746
0.0749413
-0.0071442
0.0747054
-0.00691599
0.0744774
0.0742576
0.074046
0.0738429
0.0736484
0.076586
-0.0768551
0.076324
0.0760695
0.0758227
0.0591869
0.000839803
0.0592188
0.000807333
0.0592624
0.000861587
0.0593059
0.00079822
0.000833146
0.0599021
0.000809065
0.0599342
0.000775255
0.0599767
0.000819074
0.0600187
0.000756202
0.00078246
0.0606243
0.000778114
0.0606563
0.000743262
0.0606976
0.000777792
0.060738
0.000715807
0.000734529
0.0613537
0.000747187
0.0613854
0.000711563
0.0614254
0.000737876
0.0614641
0.000677093
0.000689307
0.0620905
0.000716485
0.0621217
0.00068033
0.0621602
0.000699424
0.0621972
0.000640088
0.000646724
0.0628347
0.000686175
0.0628654
0.000649703
0.0629023
0.000662495
0.0629376
0.0006048
0.000606688
0.0635867
0.00065639
0.0636166
0.000619797
0.0636519
0.000627126
0.0636855
0.000571216
0.000569096
0.0643464
0.000627239
0.0643755
0.000590699
0.0644093
0.000593325
0.0644412
0.000539305
0.000533834
0.0651142
0.000598807
0.0651424
0.000562477
0.0651747
0.000561086
0.0652049
0.000509028
0.000500784
0.0658902
0.000571159
0.0659175
0.000535178
0.0659482
0.000530385
0.0659769
0.000480333
0.000469825
0.0666745
0.00054434
0.0667008
0.000508833
0.06673
0.000501187
0.0667572
0.000453164
0.000440834
0.0674673
0.000518382
0.0674926
0.000483458
0.0675204
0.000473449
0.0675461
0.000427456
0.000413691
0.0682687
0.000493304
0.0682931
0.000459059
0.0683195
0.00044712
0.0683438
0.000403145
0.00038828
0.0690791
0.000469115
0.0691025
0.00043563
0.0691275
0.000422142
0.0691505
0.000380162
0.000364485
0.0698984
0.000445811
0.0699209
0.000413158
0.0699445
0.000398457
0.0699663
0.000358436
0.000342197
0.0707269
0.000423385
0.0707484
0.000391624
0.0707709
0.000376002
0.0707914
0.0003379
0.000321312
0.0715647
0.00040182
0.0715853
0.000371
0.0716066
0.000354714
0.071626
0.000318484
0.000301728
0.072412
0.000381096
0.0724317
0.000351258
0.0724519
0.00033453
0.0724702
0.00030012
0.00028335
0.0732689
0.000361188
0.0732878
0.000332365
0.0733069
0.000315386
0.0733243
0.000282743
0.00026609
0.0741356
0.000342066
0.0741537
0.000314284
0.0741718
0.000297221
0.0741883
0.000266289
0.000249861
0.0750122
0.000323701
0.0750295
0.000296978
0.0750468
0.000279973
0.0750624
0.000250696
0.000234585
0.075899
0.000306059
0.0759155
0.000280409
0.0759319
0.000263584
0.0759467
0.000235905
0.000220187
0.076796
0.0768118
0.0768274
0.0768415
)
;

boundaryField
{
    inlet
    {
        type            calculated;
        value           nonuniform 0();
    }
    outlet
    {
        type            calculated;
        value           nonuniform 0();
    }
    cylinder
    {
        type            calculated;
        value           nonuniform 0();
    }
    top
    {
        type            symmetryPlane;
        value           nonuniform 0();
    }
    bottom
    {
        type            symmetryPlane;
        value           nonuniform 0();
    }
    defaultFaces
    {
        type            empty;
        value           nonuniform 0();
    }
    procBoundary41to33
    {
        type            processor;
        value           nonuniform List<scalar> 
19
(
0.00927924
0.00883615
0.0116233
0.0112289
0.0108268
0.0104176
0.0100013
-0.0563056
0.00957797
0.0128981
0.0125624
0.0122005
-0.0579107
0.0118306
-0.000870046
-0.000839251
-0.000905147
-0.00084177
-0.000886601
)
;
    }
    procBoundary41to40
    {
        type            processor;
        value           nonuniform List<scalar> 
21
(
-0.0591566
-0.0598714
-0.0605934
-0.0613228
-0.0620598
-0.0628044
-0.0635569
-0.0643173
-0.0650858
-0.0658625
-0.0666476
-0.0674413
-0.0682437
-0.0690549
-0.0698751
-0.0707044
-0.0715431
-0.0723912
-0.073249
-0.0741165
-0.0749939
)
;
    }
    procBoundary41to42
    {
        type            processor;
        value           nonuniform List<scalar> 
24
(
0.0560495
0.0567091
0.0573755
0.0580491
0.05873
0.0594184
0.0601146
0.0608187
0.0615309
0.0622514
0.0629804
0.0637179
0.0644641
0.0652192
0.0659832
-0.00670955
0.0669161
0.0677007
0.0684947
0.0692982
0.0701113
0.0709341
0.0717669
0.0726096
)
;
    }
    procBoundary41to48
    {
        type            processor;
        value           nonuniform List<scalar> 2(-0.0758813 -0.076779);
    }
    procBoundary41to49
    {
        type            processor;
        value           nonuniform List<scalar> 
17
(
-0.00668301
-0.00644544
-0.00620344
-0.00595717
-0.0057068
-0.00545251
-0.00752309
-0.00732362
-0.00711298
-0.00689745
0.0755839
-0.00667715
0.000289106
0.000264538
0.000247995
0.000221859
0.000206595
)
;
    }
    procBoundary41to50
    {
        type            processor;
        value           uniform 0.0734625;
    }
}


// ************************************************************************* //
