/*--------------------------------*- C++ -*----------------------------------*\
  =========                 |
  \\      /  F ield         | OpenFOAM: The Open Source CFD Toolbox
   \\    /   O peration     | Website:  https://openfoam.org
    \\  /    A nd           | Version:  7
     \\/     M anipulation  |
\*---------------------------------------------------------------------------*/
FoamFile
{
    version     2.0;
    format      ascii;
    class       volScalarField;
    location    "16.5";
    object      rho;
}
// * * * * * * * * * * * * * * * * * * * * * * * * * * * * * * * * * * * * * //

dimensions      [1 -3 0 0 0 0 0];

internalField   nonuniform List<scalar> 
2413
(
1.7512
1.74725
1.74599
1.74593
1.74625
1.74587
1.74419
1.74424
1.74343
1.74117
1.7386
1.73403
1.72703
1.72072
1.71384
1.70532
1.69875
1.69326
1.6869
1.67976
1.67438
1.66896
1.66224
1.6562
1.65068
1.64439
1.63712
1.63153
1.62632
1.61928
1.61286
1.60803
1.60154
1.595
1.59052
1.58532
1.57947
1.57516
1.57054
1.56431
1.55895
1.55401
1.54711
1.54072
1.53588
1.5293
1.52384
1.51904
1.51289
1.5076
1.50216
1.49657
1.49292
1.48969
1.4865
1.48518
1.48455
1.48469
1.48551
1.48648
1.48693
1.48678
1.48642
1.48647
1.48671
1.487
1.4875
1.488
1.48809
1.48762
1.48688
1.48589
1.48489
1.48381
1.48354
1.48451
1.48807
1.49666
1.51414
1.5375
1.56893
1.59613
1.61548
1.62923
1.63044
1.62894
1.62744
1.62463
1.6197
1.61294
1.60624
1.60005
1.59374
1.58823
1.58405
1.57965
1.57572
1.57195
1.56766
1.5634
1.5592
1.55515
1.55086
1.54638
1.54221
1.53798
1.53349
1.52856
1.52376
1.51948
1.51522
1.51081
1.50607
1.50149
1.49715
1.4927
1.5453
1.54179
1.53812
1.53301
1.53035
1.5314
1.5381
1.55915
1.6167
1.70267
1.77287
1.79416
1.79515
1.79288
1.78684
1.77864
1.77104
1.76614
1.76348
1.76233
1.76269
1.76248
1.76194
1.76192
1.76134
1.75878
1.75613
1.75162
1.745
1.73889
1.73221
1.72375
1.71679
1.71099
1.70399
1.69698
1.69163
1.68607
1.6795
1.67374
1.66836
1.66215
1.65419
1.6481
1.64242
1.63495
1.6293
1.62478
1.61892
1.61283
1.608
1.6023
1.59512
1.59008
1.5851
1.57881
1.57425
1.56994
1.56392
1.55789
1.55284
1.54615
1.53944
1.53415
1.52756
1.52216
1.51706
1.51118
1.50708
1.50276
1.4979
1.49519
1.4928
1.49059
1.48923
1.4882
1.48693
1.4865
1.48657
1.48687
1.48686
1.48652
1.48642
1.48633
1.48586
1.48539
1.48498
1.48459
1.48482
1.4857
1.48823
1.49519
1.50766
1.52939
1.56003
1.58914
1.61486
1.63256
1.63714
1.63612
1.63399
1.63046
1.62571
1.62057
1.61436
1.60794
1.60234
1.5973
1.59234
1.58737
1.58295
1.57833
1.57417
1.57021
1.56582
1.56159
1.55726
1.55277
1.54792
1.54299
1.53837
1.53372
1.52882
1.52351
1.51858
1.51402
1.5094
1.50471
1.49975
1.49486
1.49006
1.48503
1.55794
1.55482
1.55117
1.54728
1.54221
1.54104
1.54318
1.55283
1.58069
1.64792
1.73435
1.79637
1.80883
1.80903
1.80609
1.79966
1.79133
1.78337
1.78019
1.77979
1.78014
1.78055
1.78012
1.77957
1.77812
1.77591
1.7738
1.7698
1.76342
1.75727
1.75054
1.74209
1.73521
1.72927
1.72232
1.71531
1.70961
1.70371
1.69609
1.69003
1.68509
1.679
1.67225
1.66645
1.66044
1.65238
1.64555
1.64042
1.63401
1.62874
1.62475
1.61944
1.61284
1.6073
1.60163
1.59399
1.5882
1.58387
1.57799
1.5728
1.56879
1.56291
1.55658
1.55112
1.54449
1.53849
1.53308
1.52661
1.52161
1.51688
1.51078
1.50662
1.50344
1.49904
1.49633
1.49416
1.49141
1.48953
1.48865
1.48785
1.48693
1.4865
1.48621
1.48563
1.48499
1.48456
1.48454
1.4851
1.48727
1.49261
1.50267
1.5211
1.54753
1.58069
1.60887
1.62774
1.63955
1.642
1.64068
1.63779
1.63297
1.62706
1.62109
1.61523
1.60907
1.60398
1.5993
1.59465
1.59017
1.58546
1.58087
1.57613
1.57178
1.56748
1.56295
1.55865
1.55414
1.54932
1.54392
1.53851
1.5334
1.52833
1.52314
1.51761
1.51245
1.50743
1.50228
1.49714
1.49177
1.4864
1.48087
1.47521
1.57044
1.56746
1.56423
1.56063
1.55631
1.55167
1.55158
1.55512
1.56741
1.60256
1.6771
1.76179
1.8153
1.82325
1.82306
1.81905
1.812
1.80456
1.7998
1.79742
1.79598
1.79602
1.79666
1.79702
1.79673
1.79505
1.79261
1.78834
1.78184
1.77564
1.76886
1.76056
1.7535
1.74742
1.74035
1.73357
1.72817
1.7222
1.71468
1.708
1.70195
1.6948
1.68769
1.68285
1.67758
1.67037
1.6642
1.65852
1.65101
1.64445
1.63976
1.6342
1.62809
1.62359
1.61862
1.6115
1.60526
1.60016
1.59321
1.58723
1.58331
1.57782
1.57208
1.56733
1.56127
1.55543
1.54984
1.54321
1.53781
1.53263
1.52575
1.52061
1.51653
1.51111
1.50569
1.50207
1.49836
1.49475
1.49348
1.49215
1.49066
1.48938
1.48816
1.48674
1.48609
1.48623
1.48738
1.49067
1.49827
1.5133
1.53522
1.56645
1.59879
1.6239
1.64028
1.64597
1.64614
1.64405
1.63963
1.63354
1.62653
1.62055
1.61532
1.61028
1.60523
1.60095
1.59633
1.59163
1.58716
1.58223
1.57749
1.57274
1.56827
1.56382
1.55913
1.55449
1.54956
1.5443
1.53846
1.53273
1.52719
1.52164
1.51606
1.51023
1.50468
1.49907
1.49344
1.48782
1.48196
1.47605
1.4699
1.46368
1.58352
1.58002
1.57699
1.57343
1.56975
1.5651
1.56152
1.56216
1.56744
1.58233
1.62379
1.7037
1.78403
1.83153
1.83793
1.83719
1.83303
1.82503
1.81793
1.81519
1.81488
1.81525
1.81567
1.81504
1.81282
1.81107
1.80988
1.80698
1.8017
1.79578
1.78899
1.78049
1.77279
1.76576
1.75769
1.75047
1.74505
1.73973
1.73346
1.72747
1.72142
1.71352
1.70481
1.69874
1.69276
1.68623
1.68155
1.67676
1.67009
1.66337
1.6577
1.65071
1.64251
1.63772
1.63312
1.62708
1.62219
1.61765
1.61102
1.60425
1.59948
1.59317
1.58688
1.58242
1.57665
1.57125
1.56622
1.5598
1.55423
1.549
1.54189
1.53566
1.53093
1.52475
1.51824
1.51418
1.50989
1.50536
1.50187
1.49889
1.496
1.49335
1.49068
1.4901
1.49062
1.49299
1.49876
1.50913
1.52781
1.55438
1.58602
1.61767
1.63793
1.64709
1.6497
1.64876
1.64495
1.6391
1.63288
1.62648
1.6202
1.61542
1.61095
1.60663
1.60216
1.5978
1.59287
1.58784
1.58318
1.57824
1.57352
1.56875
1.56414
1.55931
1.55419
1.54903
1.54358
1.53786
1.53162
1.52556
1.51951
1.51353
1.50763
1.50154
1.49558
1.48943
1.48331
1.47716
1.47082
1.46451
1.45815
1.4519
1.59698
1.59395
1.59022
1.5869
1.58311
1.57929
1.57456
1.57186
1.57301
1.57975
1.59731
1.64403
1.72657
1.80294
1.84843
1.85305
1.85212
1.84755
1.84108
1.83479
1.83096
1.83068
1.83227
1.83316
1.83305
1.83192
1.82933
1.82474
1.81856
1.81306
1.80708
1.80014
1.7935
1.78682
1.77916
1.77128
1.76397
1.75581
1.74821
1.74367
1.73929
1.73328
1.72616
1.71956
1.71208
1.70265
1.69637
1.69124
1.68523
1.68052
1.67593
1.66964
1.66166
1.65563
1.6497
1.64149
1.63617
1.63227
1.62637
1.62071
1.61636
1.6103
1.60372
1.59879
1.59254
1.5865
1.58142
1.57496
1.56944
1.56453
1.55783
1.55136
1.54631
1.54019
1.53293
1.52787
1.52311
1.51754
1.51317
1.50915
1.50505
1.50138
1.49956
1.49992
1.50221
1.50887
1.52266
1.54506
1.57518
1.60702
1.63268
1.64977
1.65526
1.65466
1.65153
1.64636
1.63982
1.63313
1.62718
1.6216
1.61646
1.61192
1.60731
1.60303
1.59856
1.5941
1.58914
1.58407
1.57937
1.57426
1.56925
1.56415
1.55913
1.55386
1.54831
1.54259
1.53659
1.53041
1.52382
1.51744
1.51099
1.50468
1.49854
1.49223
1.48594
1.47946
1.47309
1.46669
1.46023
1.45397
1.4479
1.44207
1.61197
1.60848
1.60491
1.60096
1.59767
1.59398
1.59004
1.58521
1.58279
1.58442
1.59221
1.61212
1.66292
1.74543
1.81924
1.86421
1.86872
1.86827
1.86351
1.8574
1.853
1.85139
1.85029
1.84824
1.848
1.84878
1.84859
1.84619
1.84112
1.83499
1.82739
1.8178
1.80968
1.8034
1.79776
1.79235
1.78617
1.77873
1.7703
1.76252
1.75444
1.74577
1.74091
1.73728
1.73178
1.72406
1.71727
1.71063
1.70169
1.69462
1.68987
1.68398
1.67796
1.67351
1.6681
1.66008
1.65394
1.64895
1.64186
1.63528
1.63115
1.62533
1.61915
1.61475
1.60886
1.60266
1.59755
1.59103
1.58483
1.5797
1.57301
1.56627
1.5613
1.55521
1.54824
1.54289
1.53758
1.53162
1.5261
1.52128
1.51652
1.51486
1.51506
1.51767
1.52633
1.54283
1.56862
1.60078
1.62879
1.65004
1.6615
1.66323
1.66077
1.65507
1.64845
1.64206
1.63571
1.62979
1.62428
1.61912
1.61426
1.60954
1.60449
1.60012
1.59574
1.59109
1.58603
1.58085
1.57586
1.57044
1.56507
1.55958
1.55414
1.54837
1.54228
1.53592
1.52934
1.52275
1.51592
1.50934
1.50267
1.49626
1.49009
1.48376
1.4774
1.47086
1.46452
1.45816
1.45187
1.44585
1.44014
1.43474
1.62678
1.62293
1.61976
1.61627
1.61256
1.6094
1.60564
1.60147
1.59672
1.59473
1.59679
1.60492
1.62748
1.67982
1.76175
1.83337
1.87849
1.88753
1.88685
1.88289
1.87612
1.87226
1.87081
1.8699
1.86922
1.86697
1.8635
1.86189
1.86
1.85644
1.85042
1.8421
1.8338
1.82553
1.81519
1.8059
1.80065
1.7962
1.79123
1.785
1.77714
1.76764
1.75889
1.75206
1.74456
1.73866
1.73491
1.72984
1.72199
1.71461
1.70845
1.70076
1.69265
1.68822
1.68321
1.6762
1.67112
1.66628
1.65908
1.65225
1.64754
1.64127
1.6343
1.62976
1.62391
1.61741
1.61264
1.60655
1.60023
1.59515
1.58874
1.58176
1.57635
1.57063
1.56335
1.55762
1.55194
1.54574
1.5405
1.53558
1.53396
1.53481
1.53833
1.54935
1.56947
1.5964
1.62915
1.65353
1.66813
1.6731
1.67168
1.66693
1.66037
1.65278
1.64574
1.63963
1.63406
1.62884
1.62365
1.61871
1.61398
1.60911
1.60367
1.59892
1.59432
1.58925
1.5839
1.57856
1.57358
1.56807
1.56213
1.55588
1.54971
1.54331
1.53669
1.52978
1.52277
1.51597
1.50906
1.50242
1.49567
1.48926
1.48313
1.47683
1.47044
1.46387
1.45757
1.4513
1.4452
1.43932
1.43381
1.42867
1.63323
1.63085
1.62898
1.627
1.62431
1.62138
1.61879
1.61572
1.61243
1.60863
1.60711
1.60893
1.61685
1.63985
1.69292
1.77493
1.8448
1.88857
1.9071
1.9062
1.90376
1.89921
1.89369
1.89079
1.89012
1.88913
1.88753
1.88476
1.87908
1.87261
1.86642
1.86066
1.85559
1.84914
1.84016
1.83108
1.82311
1.81299
1.80268
1.79834
1.79447
1.78859
1.78156
1.7743
1.76543
1.75576
1.74979
1.74391
1.73706
1.73222
1.72729
1.71993
1.71166
1.70621
1.70011
1.69193
1.68663
1.68184
1.67471
1.6683
1.66379
1.65755
1.65035
1.64553
1.63962
1.63246
1.62745
1.62152
1.6147
1.60968
1.60367
1.59685
1.5915
1.58549
1.57884
1.57247
1.56665
1.5605
1.55673
1.55545
1.55699
1.56313
1.57648
1.60153
1.63076
1.65751
1.67998
1.68839
1.68831
1.6836
1.67556
1.6677
1.66
1.65254
1.64612
1.64019
1.63505
1.62998
1.62466
1.6199
1.61542
1.61064
1.60517
1.59984
1.59507
1.58977
1.58374
1.57748
1.57158
1.5655
1.55911
1.55237
1.54572
1.53884
1.53176
1.52442
1.51713
1.51025
1.50338
1.4967
1.48982
1.48332
1.47712
1.47074
1.46425
1.45766
1.45145
1.44534
1.43951
1.43387
1.4286
1.42368
1.63362
1.63162
1.63005
1.62917
1.62775
1.62564
1.62378
1.62261
1.62119
1.61917
1.61677
1.61617
1.61772
1.62584
1.64933
1.7031
1.78242
1.85499
1.8963
1.92276
1.92768
1.92635
1.92236
1.91779
1.91245
1.90887
1.90856
1.90764
1.9041
1.89857
1.89163
1.88224
1.87166
1.86328
1.85763
1.85322
1.84722
1.83801
1.82728
1.81888
1.81046
1.80073
1.7959
1.7924
1.78622
1.778
1.77094
1.76337
1.75366
1.74776
1.74297
1.73596
1.72927
1.72443
1.71815
1.70962
1.70374
1.6983
1.69047
1.68383
1.6793
1.67299
1.66569
1.66084
1.65509
1.64761
1.64248
1.63674
1.62973
1.62425
1.61867
1.6116
1.60567
1.59986
1.59296
1.58726
1.58172
1.57826
1.57845
1.58091
1.59022
1.60799
1.63517
1.66665
1.68991
1.7044
1.70796
1.70552
1.69838
1.68859
1.67906
1.67083
1.66347
1.65645
1.65024
1.64421
1.63908
1.63396
1.62818
1.62252
1.6174
1.61255
1.60781
1.60341
1.59858
1.59243
1.58515
1.57755
1.57047
1.56342
1.55619
1.54874
1.54159
1.5344
1.52713
1.51969
1.51238
1.50555
1.49869
1.49184
1.48469
1.47797
1.4716
1.46521
1.45881
1.45244
1.44655
1.4408
1.43535
1.42997
1.42494
1.42018
1.63109
1.62933
1.62784
1.62727
1.62678
1.62516
1.62414
1.62363
1.62324
1.62212
1.62051
1.6193
1.61933
1.62164
1.62961
1.6535
1.70652
1.78062
1.85632
1.90624
1.93408
1.95031
1.9503
1.94813
1.94344
1.93873
1.93316
1.92613
1.92221
1.92002
1.91639
1.90923
1.89953
1.8899
1.87861
1.86651
1.8601
1.85552
1.85011
1.84348
1.83494
1.82357
1.81431
1.80817
1.80065
1.79454
1.79002
1.78368
1.77437
1.76746
1.76126
1.75258
1.74522
1.74062
1.73439
1.72632
1.72078
1.7152
1.7071
1.70027
1.69529
1.68853
1.68072
1.67556
1.66979
1.66194
1.65678
1.65146
1.64443
1.63905
1.63332
1.62662
1.6201
1.61378
1.60737
1.60284
1.60017
1.60104
1.60658
1.6182
1.64181
1.67131
1.69999
1.72154
1.72862
1.72796
1.72245
1.71387
1.70397
1.694
1.68488
1.67659
1.66997
1.66354
1.65698
1.65027
1.64456
1.639
1.63298
1.62704
1.62163
1.61604
1.60952
1.60256
1.59618
1.58955
1.58249
1.57495
1.56768
1.56047
1.55296
1.54509
1.53761
1.53031
1.52303
1.51557
1.50828
1.50148
1.4946
1.48763
1.48037
1.47356
1.46719
1.46096
1.45485
1.44885
1.44339
1.43801
1.43283
1.42762
1.42268
1.41799
1.62633
1.62763
1.62735
1.62546
1.62216
1.62061
1.62025
1.62012
1.62105
1.62093
1.62011
1.61977
1.62018
1.62148
1.62412
1.63116
1.65235
1.69775
1.77416
1.84761
1.9057
1.94022
1.96149
1.97627
1.97492
1.97206
1.96574
1.95856
1.95204
1.9428
1.93322
1.92687
1.92174
1.91609
1.90688
1.89498
1.88468
1.87343
1.86234
1.85819
1.85432
1.8468
1.83843
1.83115
1.82146
1.81211
1.80642
1.79969
1.79184
1.78643
1.78043
1.77142
1.76349
1.75808
1.75089
1.74218
1.73672
1.73111
1.72303
1.71654
1.71144
1.70448
1.69655
1.69107
1.68497
1.67684
1.67114
1.66594
1.65888
1.65297
1.64763
1.64068
1.63417
1.62816
1.62391
1.623
1.62426
1.63247
1.64884
1.67531
1.70857
1.73289
1.74801
1.7513
1.74816
1.73984
1.72976
1.72018
1.71088
1.70226
1.69388
1.68537
1.67859
1.67185
1.66467
1.65749
1.65121
1.64504
1.63832
1.63172
1.62579
1.61932
1.61181
1.60383
1.59643
1.58888
1.58092
1.57268
1.565
1.55753
1.54976
1.54165
1.53401
1.52674
1.5195
1.51204
1.50473
1.49799
1.49124
1.48449
1.47751
1.47093
1.46468
1.45861
1.45265
1.44678
1.44156
1.43647
1.43154
1.42652
1.42172
1.41704
1.59745
1.60264
1.60711
1.61002
1.61267
1.6165
1.6178
1.61713
1.61434
1.61315
1.61359
1.61504
1.6167
1.61791
1.61923
1.62217
1.63028
1.65008
1.69245
1.75733
1.83757
1.90309
1.94011
1.96683
1.98794
1.99943
1.99817
1.99366
1.98615
1.97627
1.96611
1.95641
1.94296
1.93103
1.92455
1.91881
1.91189
1.9017
1.88841
1.87862
1.87134
1.86199
1.85588
1.85173
1.84398
1.83486
1.82756
1.81879
1.80892
1.80329
1.79739
1.78863
1.78156
1.77623
1.76863
1.75957
1.75361
1.74741
1.73865
1.73204
1.72677
1.71951
1.71169
1.70633
1.70022
1.69201
1.6864
1.68076
1.6737
1.66735
1.66121
1.6547
1.64868
1.64568
1.64605
1.6488
1.65852
1.68081
1.71006
1.74136
1.76522
1.7733
1.77299
1.76747
1.75799
1.74759
1.7376
1.72872
1.7204
1.71203
1.70337
1.69491
1.68807
1.68113
1.67352
1.66565
1.65894
1.65258
1.64547
1.63761
1.62973
1.62142
1.61271
1.60389
1.59578
1.58768
1.57927
1.57053
1.56235
1.55459
1.54668
1.53852
1.53093
1.52385
1.5168
1.50951
1.50228
1.49558
1.48903
1.48259
1.47604
1.46989
1.46391
1.45801
1.45211
1.44617
1.44081
1.43565
1.43079
1.42596
1.42148
1.41712
1.53823
1.55026
1.56044
1.56897
1.57573
1.58256
1.58839
1.59264
1.5969
1.60154
1.60622
1.60821
1.6073
1.60683
1.60844
1.61057
1.61356
1.6212
1.63886
1.67656
1.73756
1.80964
1.88579
1.9446
1.97364
1.99807
2.01449
2.01959
2.0173
2.01154
2.00265
1.99242
1.97857
1.96504
1.95264
1.93677
1.92774
1.92195
1.91388
1.90556
1.89721
1.88566
1.87536
1.86931
1.86094
1.85315
1.84751
1.83963
1.82999
1.82347
1.81646
1.80631
1.79872
1.79327
1.78531
1.77659
1.77069
1.76419
1.75513
1.74838
1.74266
1.73486
1.72699
1.72154
1.71534
1.70717
1.70119
1.69566
1.68818
1.68118
1.67537
1.66901
1.66776
1.66982
1.67441
1.68721
1.71311
1.74565
1.77329
1.79299
1.79824
1.79558
1.78781
1.7777
1.76677
1.75633
1.7459
1.73762
1.73077
1.72344
1.71565
1.70742
1.69971
1.69157
1.68236
1.67251
1.66359
1.65504
1.64606
1.63732
1.62923
1.62106
1.61243
1.60334
1.59479
1.58638
1.57773
1.56872
1.56021
1.55229
1.54437
1.53624
1.52871
1.5219
1.51519
1.50826
1.50128
1.49466
1.48815
1.48176
1.47536
1.46958
1.46405
1.45854
1.453
1.44732
1.44198
1.43668
1.43165
1.4265
1.42169
1.41737
1.45635
1.46847
1.48091
1.4934
1.50602
1.51808
1.52929
1.53886
1.54769
1.55629
1.56447
1.57158
1.5782
1.58429
1.59087
1.59456
1.59497
1.59709
1.60296
1.61745
1.64734
1.69911
1.77516
1.84754
1.91601
1.97662
2.00585
2.02181
2.03672
2.03798
2.03308
2.02584
2.01716
2.00581
1.99181
1.97407
1.9602
1.94787
1.93248
1.9246
1.91925
1.91019
1.9008
1.89338
1.88322
1.87253
1.86553
1.85729
1.84925
1.84363
1.8366
1.82617
1.81804
1.81156
1.80243
1.79308
1.78696
1.78012
1.77092
1.76446
1.75862
1.75061
1.74301
1.73757
1.73106
1.72289
1.71696
1.71042
1.70256
1.69585
1.691
1.68921
1.69318
1.70134
1.71801
1.74801
1.78005
1.8066
1.81987
1.82137
1.81716
1.80822
1.79732
1.78706
1.77789
1.76912
1.75944
1.74993
1.74132
1.73226
1.72225
1.71191
1.7028
1.69382
1.68407
1.67381
1.66444
1.65572
1.64676
1.63771
1.62906
1.62046
1.61154
1.60221
1.5935
1.58511
1.57657
1.56767
1.55918
1.55134
1.54356
1.53553
1.52798
1.52122
1.51466
1.508
1.5014
1.49512
1.48887
1.4826
1.47614
1.47019
1.46461
1.45928
1.4541
1.44904
1.44416
1.43904
1.43414
1.42919
1.42448
1.42008
1.41036
1.41361
1.41825
1.42448
1.43211
1.44069
1.45011
1.46038
1.4711
1.48221
1.49327
1.50409
1.51516
1.52565
1.53536
1.54473
1.55242
1.55847
1.56345
1.56954
1.57994
1.60077
1.64302
1.70482
1.79282
1.86793
1.93143
1.99152
2.02843
2.04091
2.04618
2.04828
2.04392
2.03742
2.02817
2.01596
2.00179
1.98688
1.96855
1.95496
1.94449
1.9303
1.92054
1.91486
1.90602
1.89645
1.88866
1.87877
1.86937
1.86312
1.85548
1.84477
1.83691
1.82996
1.82018
1.81071
1.80404
1.79654
1.78703
1.78076
1.77485
1.76673
1.75955
1.7541
1.74748
1.73912
1.73246
1.72581
1.71759
1.71346
1.71267
1.71663
1.72963
1.75016
1.78373
1.81668
1.83842
1.84758
1.84623
1.83962
1.82958
1.81836
1.8071
1.79625
1.78543
1.77441
1.76328
1.75285
1.74356
1.73424
1.72416
1.71368
1.70422
1.6949
1.68508
1.67496
1.66559
1.65667
1.64732
1.63765
1.62834
1.61934
1.61031
1.601
1.59234
1.58421
1.57601
1.56744
1.55918
1.55162
1.54412
1.53635
1.52885
1.52201
1.51539
1.50869
1.50214
1.49614
1.49033
1.48454
1.47863
1.47302
1.46759
1.46239
1.4571
1.45178
1.44681
1.4418
1.43712
1.43236
1.42795
1.42385
1.40448
1.40382
1.40295
1.40276
1.40316
1.40405
1.4059
1.40899
1.41305
1.41811
1.42432
1.43157
1.43995
1.44949
1.45952
1.47035
1.48169
1.4919
1.50065
1.50773
1.51322
1.52043
1.53522
1.5604
1.61023
1.68161
1.77276
1.86832
1.92977
1.9879
2.03172
2.04743
2.0511
2.04967
2.04737
2.04292
2.03353
2.0223
2.00893
1.99352
1.97981
1.96308
1.94888
1.93939
1.92668
1.91607
1.90932
1.90024
1.89119
1.88403
1.87533
1.86399
1.85598
1.84851
1.83819
1.82874
1.8218
1.81364
1.80435
1.7985
1.79248
1.7843
1.77742
1.77184
1.76483
1.75641
1.74926
1.74212
1.73777
1.73808
1.74224
1.75776
1.78432
1.81627
1.85234
1.86882
1.8702
1.86746
1.85917
1.84673
1.83312
1.81984
1.80709
1.79584
1.78574
1.77556
1.76486
1.75426
1.74433
1.73458
1.72435
1.71397
1.70475
1.69552
1.68562
1.67538
1.66571
1.65654
1.64708
1.63725
1.62777
1.61874
1.60977
1.60052
1.59187
1.58396
1.57616
1.56804
1.56012
1.55292
1.5458
1.5384
1.53118
1.52454
1.51812
1.51158
1.50504
1.4989
1.493
1.48718
1.4815
1.47644
1.47153
1.46673
1.46187
1.45703
1.45232
1.44751
1.44305
1.43823
1.4332
1.42852
1.40563
1.40485
1.40355
1.40238
1.4018
1.40104
1.39999
1.39971
1.39961
1.39955
1.39998
1.40107
1.403
1.40598
1.41006
1.41546
1.42235
1.43009
1.43822
1.44624
1.45257
1.45691
1.46078
1.4662
1.47853
1.50455
1.55161
1.63073
1.72213
1.83495
1.91415
1.97081
2.01868
2.04531
2.05136
2.05021
2.0438
2.03956
2.03338
2.02082
2.01084
1.99836
1.98287
1.97041
1.95557
1.94214
1.93229
1.9199
1.90938
1.90221
1.89361
1.88283
1.8753
1.86771
1.85733
1.84848
1.84133
1.83248
1.82369
1.81784
1.81128
1.80268
1.79587
1.78976
1.78198
1.77342
1.7665
1.7635
1.76403
1.76804
1.78371
1.81564
1.84814
1.87822
1.89173
1.89179
1.88511
1.87227
1.85826
1.84458
1.83156
1.81912
1.80697
1.79572
1.78554
1.77543
1.76491
1.75446
1.74435
1.73439
1.72402
1.71356
1.70431
1.69509
1.68526
1.67513
1.66544
1.65628
1.64698
1.63735
1.62799
1.61914
1.61037
1.60129
1.59264
1.58486
1.57745
1.56987
1.56243
1.55568
1.54897
1.54189
1.53479
1.52828
1.52212
1.51591
1.50977
1.50396
1.49836
1.49285
1.48727
1.48199
1.47688
1.47186
1.46665
1.4622
1.45809
1.45371
1.44952
1.44512
1.44052
1.43588
1.40983
1.40801
1.40568
1.40365
1.40299
1.402
1.40111
1.40065
1.39993
1.39919
1.39888
1.3988
1.39921
1.39999
1.40115
1.40289
1.40527
1.40848
1.41276
1.41796
1.42315
1.42737
1.42988
1.43079
1.43194
1.43495
1.44295
1.46382
1.50223
1.57412
1.66961
1.78205
1.88435
1.94873
1.99912
2.03409
2.04538
2.04527
2.039
2.02999
2.02424
2.0152
2.00383
1.99524
1.98418
1.96973
1.95747
1.94318
1.92997
1.92096
1.91125
1.90033
1.89315
)
;

boundaryField
{
    inlet
    {
        type            calculated;
        value           nonuniform 0();
    }
    outlet
    {
        type            calculated;
        value           nonuniform 0();
    }
    bottom
    {
        type            symmetryPlane;
    }
    top
    {
        type            symmetryPlane;
    }
    obstacle
    {
        type            calculated;
        value           nonuniform 0();
    }
    front
    {
        type            empty;
    }
    back
    {
        type            empty;
    }
    procBoundary38to30
    {
        type            processor;
        value           nonuniform List<scalar> 
133
(
1.73389
1.73077
1.7286
1.72766
1.72809
1.72765
1.72737
1.72769
1.72664
1.72368
1.72088
1.71591
1.70916
1.70309
1.69647
1.688
1.68114
1.67571
1.66917
1.66221
1.65709
1.6519
1.64561
1.63935
1.63388
1.62783
1.62052
1.61501
1.60976
1.60289
1.5964
1.59132
1.58517
1.57843
1.57431
1.56959
1.56402
1.55983
1.55497
1.54844
1.54291
1.53788
1.53113
1.52556
1.5209
1.51458
1.50894
1.50333
1.49749
1.49255
1.48754
1.48303
1.48123
1.48058
1.48049
1.48098
1.48191
1.48249
1.48351
1.48525
1.48672
1.48722
1.48755
1.48821
1.48903
1.48985
1.49051
1.49054
1.49035
1.48963
1.48839
1.48695
1.48546
1.48402
1.48268
1.48135
1.48135
1.48229
1.48741
1.49722
1.51647
1.54411
1.57071
1.59948
1.61268
1.61697
1.61974
1.61985
1.61757
1.61353
1.60836
1.60256
1.59613
1.58941
1.58424
1.57971
1.57587
1.57217
1.56882
1.56541
1.56155
1.55769
1.55362
1.54922
1.5452
1.54128
1.53719
1.53268
1.52815
1.52412
1.52018
1.51606
1.51153
1.50703
1.50295
1.49895
1.53226
1.52857
1.52376
1.51943
1.51973
1.52409
1.53941
1.58451
1.66672
1.74529
1.77819
1.78125
1.77928
1.7743
1.767
1.75866
1.75866
)
;
    }
    procBoundary38to31
    {
        type            processor;
        value           uniform 1.48825;
    }
    procBoundary38to37
    {
        type            processor;
        value           nonuniform List<scalar> 
16
(
1.54822
1.56125
1.57381
1.58621
1.60023
1.6164
1.63043
1.63542
1.63516
1.63405
1.62406
1.59251
1.52499
1.44549
1.40843
1.40559
)
;
    }
    procBoundary38to39
    {
        type            processor;
        value           nonuniform List<scalar> 
17
(
1.47995
1.46955
1.45755
1.44578
1.43636
1.4294
1.42357
1.41882
1.41547
1.41334
1.4123
1.41257
1.41301
1.41545
1.41939
1.42376
1.43113
)
;
    }
    procBoundary38to45
    {
        type            processor;
        value           nonuniform List<scalar> 2(1.40675 1.41259);
    }
    procBoundary38to46
    {
        type            processor;
        value           nonuniform List<scalar> 
133
(
1.88583
1.8763
1.86832
1.86104
1.85139
1.84233
1.83585
1.8284
1.81936
1.81215
1.80503
1.79583
1.78695
1.78407
1.7845
1.78966
1.80733
1.84064
1.87653
1.89943
1.90734
1.90543
1.89671
1.88348
1.8689
1.8543
1.84138
1.8296
1.81795
1.80624
1.79501
1.78458
1.77428
1.76375
1.75356
1.74368
1.73375
1.72343
1.71302
1.7037
1.69451
1.68487
1.67506
1.66562
1.65664
1.6476
1.63832
1.62926
1.62075
1.61236
1.60368
1.59523
1.58756
1.58034
1.57304
1.56587
1.55961
1.55351
1.54696
1.54015
1.53373
1.52763
1.52147
1.51553
1.51009
1.50491
1.49979
1.49466
1.48966
1.48474
1.47995
1.47494
1.47035
1.4659
1.46115
1.45639
1.45117
1.44646
1.44232
1.41799
1.41577
1.41302
1.41012
1.40825
1.40606
1.40398
1.40282
1.40152
1.40025
1.39989
1.39987
1.40001
1.40052
1.40144
1.40273
1.40454
1.40713
1.41064
1.41494
1.41961
1.42371
1.4259
1.42674
1.42704
1.42731
1.42821
1.42991
1.43381
1.44576
1.47447
1.53071
1.6212
1.72658
1.84671
1.92082
1.97542
2.01506
2.03325
2.03546
2.03176
2.02013
2.01207
2.00497
1.99401
1.98251
1.97322
1.96168
1.94955
1.93944
1.92724
1.91479
1.88583
1.90694
)
;
    }
}


// ************************************************************************* //
