/*--------------------------------*- C++ -*----------------------------------*\
  =========                 |
  \\      /  F ield         | OpenFOAM: The Open Source CFD Toolbox
   \\    /   O peration     | Website:  https://openfoam.org
    \\  /    A nd           | Version:  7
     \\/     M anipulation  |
\*---------------------------------------------------------------------------*/
FoamFile
{
    version     2.0;
    format      ascii;
    class       volScalarField;
    location    "0.718";
    object      T;
}
// * * * * * * * * * * * * * * * * * * * * * * * * * * * * * * * * * * * * * //

dimensions      [0 2 -2 0 0 0 0];

internalField   nonuniform List<scalar> 
12359
(
-2.27808e-76
-3.58286e-62
-4.67559e-210
1.04725e-40
-4.68057e-71
-6.62676e-28
6.19986e-23
-6.80585e-26
-4.37122e-18
5.4546e-31
5.50404e-21
1.92301e-13
0.245597
-2.05619e-38
4.58608e-44
6.62349e-06
0.00215895
-4.28987e-114
3.28757e-117
1.49748e-51
-8.40879e-36
2.42209e-16
1.70234e-57
1.06968e-51
1.65264e-59
-3.80777e-54
-3.861e-151
3.62952e-154
-1.00902e-122
-7.95748e-143
-6.05375e-137
5.41565e-169
-9.52433e-187
-6.2471e-146
1.62798e-198
2.89158e-134
-3.04433e-92
-1.5106e-79
-2.74985e-73
-9.45524e-85
-3.31821e-65
3.5955e-82
-2.95917e-100
5.66058e-103
-1.23341e-128
1.57049e-125
-4.04724e-132
9.62334e-140
2.10479e-120
2.54097e-148
-8.23543e-158
7.30576e-163
-1.44105e-173
2.21833e-111
1.55071e-177
1.91696e-183
-7.39675e-106
-4.20687e-190
1.84096e-192
-1.80106e-195
-1.86037e-180
1.77301e-204
-3.51248e-160
9.60979
-3.54237e-110
4.10921e-33
1.21528e-95
-9.53764e-166
1.11899e-89
-1.65819e-08
120.104
1.6275e-67
8.77758e-213
-3.82318e-88
-6.53563e-46
-1.79692e-201
-9.81695e-175
1.0338e-207
5.57011e-98
-7.15984e-11
-1.85828e-27
-9.51453e-125
-4.61754e-268
-9.33249e-78
0.00156439
2.02455e-76
-1.30903e-122
1.71708e-173
0.876228
0.000493703
1.89981e-231
3.16172
4.06002e-233
-6.77012e-102
-9.56454e-82
4.52304e-54
-1.96898e-108
-1.94897e-102
2.84811e-51
-1.97685e-64
5.5834e-23
-1.74695e-226
4.22277e-77
27.7293
-5.49196e-133
7.78119e-29
3.36357e-228
0.00201379
1.94912e-85
5.32477e-30
9.55572e-110
-1.77639e-124
-6.73772e-32
1.04622e-26
-2.20497e-82
-6.96528e-157
8.99451e-26
-6.47857e-124
3.10025
-5.18382e-265
-7.9108e-111
1.97926e-23
4.96568e-172
3.90421e-38
-4.87026e-123
1.49748e-146
9.1684e-17
-5.07308e-77
2.18292e-208
-3.51464e-124
2.03656e-155
1.3198e-06
6.35804e-05
3.65303e-05
-4.7649e-230
1.72701e-38
6.24989e-155
6.07011e-40
-1.15628e-221
1.12282e-17
-1.3397e-256
2.05136e-75
8.79959e-39
-2.68078e-228
3.05331e-18
8.66495e-29
-8.39399e-268
0.000619945
-1.46384e-132
4.96046e-27
6.72013e-52
-2.37861e-223
5.08103e-38
3.28194e-170
8.36721e-239
117.831
9.09172e-24
1.07908e-06
-2.08745e-108
7.46158e-173
9.8144e-35
7.17992e-172
4.16968e-38
2.73974e-38
2.11611e-254
2.05877e-148
1.87242e-35
2.49248e-24
5.91222e-40
0.781728
-8.3972e-205
-3.54679e-203
2.69214e-41
8.93298e-61
-1.09634e-134
4.56577e-18
2.64197e-126
5.80804e-128
-1.02812e-31
4.8804e-19
-8.89263e-39
-6.55466e-237
6.04785e-208
-1.00564e-123
1.28409e-52
2.8728e-16
-1.71057e-103
-1.22407e-85
9.07767e-51
-1.06893e-102
-3.53017e-84
1.75493e-55
7.7208e-57
6.49419e-169
1.72994e-29
37.8833
1.89941e-63
-1.06248e-102
4.85482e-38
-9.086e-123
1.98266e-27
2.54048e-51
-4.32911e-65
3.34607e-30
2.09759e-21
-1.11611e-236
2.64849e-20
-1.46652e-63
5.08494e-33
-1.01215e-111
7.67817e-249
6.63944e-16
1.49309e-15
153.194
8.6556e-16
-3.98345e-219
-3.82061e-103
-1.10758e-83
-1.7356e-102
1.01926e-73
5.35014e-27
-3.7804e-113
3.87945e-39
3.45657
-4.23821e-124
2.0743e-248
2.47648e-72
5.33405e-87
1.62112e-19
-5.29864e-100
-3.88439e-99
-4.59962e-256
1.58117e-18
-3.22856e-59
-3.97711e-86
-1.88308e-60
3.9185e-263
7.62108e-36
-9.1415e-85
8.04777e-05
-4.91034e-245
3.91681e-73
-2.59419e-93
3.49664e-10
8.77678e-33
0.000924282
7.17769e-194
5.26532e-34
1.60086e-140
5.27183e-57
6.85894e-22
-4.03649e-82
3.31935e-131
-3.07396e-99
1.25103
124.174
1.00616e-262
2.8388e-117
1.42662
178.504
-1.79688e-63
3.38678e-33
1.83946e-21
3.86945e-30
1.05549e-62
57.5263
3.09405
3.28743e-31
5.85585e-119
1.72204e-38
1.8149e-40
2.50148e-52
4.49209e-39
-4.91034e-101
-9.19306e-115
-9.64901e-247
-2.27424e-116
8.60311
5.42654e-31
3.07969e-211
-1.21805e-224
5.80762e-30
8.80514e-118
-1.59404e-96
1.31476e-74
-3.35706e-259
1.35688e-21
-1.31956e-224
7.16988e-226
1.90568e-171
4.30626e-39
-1.37311e-126
50.5273
5.20702e-230
-4.28834e-228
5.90381e-76
-5.28773e-141
6.76829e-28
-1.00458e-86
2.6345e-160
5.45225e-231
7.65297
1.47166e-20
6.90465e-232
-4.08662e-102
-3.56587e-88
-1.93438e-139
9.47555e-155
-8.80121e-157
-2.33574e-136
-7.08227e-120
-3.22806e-16
9.64338e-141
-1.9182e-138
-3.44271e-81
4.01449e-35
1.41136
3.60357e-137
-1.98838e-54
3.19509e-06
1.06533e-224
1.00927e-46
-6.28612e-210
1.91142e-62
-2.02333e-226
5.86927e-136
1.69295e-16
3.47865e-43
6.87205e-17
-1.00371e-97
-1.34334e-93
4.4211e-57
3.96334e-53
-1.92146e-92
1.54262e-57
1.83215e-57
4.07292e-192
3.40413e-181
-1.76227e-180
2.31785e-179
4.6069e-180
0.000332746
6.44811e-258
8.0375e-26
2.65194e-40
5.05378e-55
7.30504e-37
1.87618e-42
2.43382e-76
8.29932e-65
9.93784e-43
5.11859e-66
-5.18439e-55
3.34334e-32
2.04547e-31
2.87276e-31
4.52035e-74
5.79611e-15
1.10095e-76
1.29879e-76
2.13904e-38
1.83821e-20
-1.44524e-126
-1.61789e-176
5.1913e-63
-1.60701e-178
3.05387e-125
169.141
17.5932
7.75715e-125
-1.68603e-219
-1.86096e-231
-4.10283e-241
1.68287e-43
5.51458e-237
-2.30899e-238
1.09784
1.76451e-38
0.00036883
3.6622e-127
1.20086e-32
1.83574e-119
-5.42253e-92
2.48194e-28
7.15086e-64
-1.66167e-40
2.3797e-65
2.97871e-127
9.04621e-211
3.99223e-39
1.05872e-32
2.22738e-126
4.32388e-12
1.09274e-28
4.59645e-54
4.88764e-44
7.36132e-37
1.95423e-218
10.0001
3.95416e-14
7.27189e-126
1.0986e-10
3.59467e-78
-1.29924e-254
6.0257e-255
-5.92551e-244
0.000714921
2.18493e-21
-1.63495e-53
6.46676e-48
1.29666e-52
-3.41832e-80
-8.8648e-39
1.43776e-45
1.37605e-11
1.41992
-8.47502e-12
8.577e-55
2.63136e-32
7.37727e-84
3.03478e-29
-1.61267e-69
1.61159e-61
-5.14459e-146
-6.0982e-71
5.21484e-41
8.55751e-236
167.719
7.12147e-95
0.416847
4.27047e-34
-2.59482e-105
4.11274e-30
0.972917
1.28219e-40
-4.69064e-63
1.66828e-54
6.7163e-33
2.04776e-28
-4.93783e-120
-1.28989e-248
1.47141e-24
-6.41689e-225
5.29238e-07
5.52608e-154
-6.99126e-56
8.86159e-36
-2.6097e-101
0.00827731
5.26847e-25
-4.24736e-67
-1.39682e-119
2.79795e-05
1.24651e-197
4.09251e-131
2.13965e-15
-4.35269e-218
-5.10886e-120
7.38874e-132
9.0323e-08
18.5368
-3.18938e-79
1.23629e-178
-1.72162e-33
8.96604e-38
3.98744e-47
2.19303e-36
7.57657e-40
8.07182e-191
-1.05678e-242
6.77048e-42
3.52073e-229
6.85301e-37
1.54844e-47
8.09285e-30
1.16173e-129
1.01783e-25
6.24255e-14
5.2874e-145
-4.60379e-81
9.3766e-125
-9.63834e-30
3.63542e-15
-2.65092e-221
1.99358e-40
7.41618e-42
2.23518e-86
4.52606e-39
5.34764e-153
1.18472e-21
1.15142e-67
1.65638e-36
3.00331e-30
3.72845e-189
-9.41891e-82
3.8736e-10
0.000246741
1.32325e-230
1.85385e-62
2.56712e-10
4.80345e-48
0.741851
-4.26408e-244
2.62487e-155
7.64439e-196
1.29966e-36
-6.34288e-64
-1.43273e-73
2.06836e-151
7.50437e-43
1.92098e-59
2.64508e-63
-1.07865e-109
0.000232415
1.13869e-219
0.000548811
3.97681e-175
151.052
1.94022e-66
6.71896e-11
1.88514e-192
5.54962e-131
6.54619e-34
-1.85586e-125
9.88777e-162
-4.87705e-100
-7.50006e-62
-1.77873e-62
2.55517e-12
1.29179e-24
9.00185e-25
-2.44652e-268
-2.6706e-125
2.44052e-45
0.00031358
-6.81253e-268
-1.4191e-215
5.08558e-41
1.77135e-193
4.8498e-17
1.18248
93.079
-2.45293e-266
2.67639e-85
6.24282e-21
-3.84005e-71
-1.04916e-134
93.2141
-2.22581e-218
2.81542e-24
1.33139e-34
-7.98293e-85
-1.81783e-137
1.11983e-158
-5.8251e-103
6.36753e-41
1.97993e-66
-3.39164e-78
-7.30373e-265
-1.57637e-206
-7.66532e-66
1.36245e-126
1.4983e-28
5.38366e-37
-7.9313e-170
1.42838e-213
1.52416e-31
163.629
-7.87419e-139
5.63915e-12
-2.85598e-233
-1.61404e-77
1.8186e-24
2.06008e-48
9.30181e-23
4.16683e-29
-2.68897e-63
1.83007e-36
-7.49267e-251
2.84913e-199
8.13118e-52
-2.09633e-74
-3.75249e-64
-1.06618e-76
-1.7763e-239
6.55578e-212
-6.08848e-146
4.23254e-52
7.50354e-32
-4.52873e-34
1.74286e-93
-3.4971e-32
3.15003e-39
-9.22651e-62
-3.57548e-31
-2.23929e-56
0.51907
1.03717e-37
6.66911e-55
7.94192e-30
1.26515e-200
4.94957e-24
1.90231e-33
5.87216e-269
-5.73541e-218
1.25655e-192
7.59736e-195
3.34071e-07
-2.87205e-61
2.83525e-93
-3.01691e-33
-2.31093e-99
1.79667e-16
7.13122e-49
2.55351e-40
-7.65681e-145
2.81011e-11
-3.66983e-240
3.6367e-50
6.01942e-120
2.09772e-19
-1.84932e-30
1.49619e-69
6.49438e-61
9.22016
3.29266e-40
4.51626e-14
-6.74872e-70
9.33494e-12
0.555313
-2.05649e-183
5.2348e-128
-5.24456e-241
1.32279e-08
7.01168e-128
3.1135e-66
0.00693891
-1.49681e-216
1.12408e-61
6.11345e-33
-2.22011e-66
5.2253e-136
-3.28076e-70
-4.18223e-175
-2.23095e-68
7.67801e-176
-2.20631e-175
-1.42139e-72
4.11821e-38
2.03997e-40
-5.29032e-65
8.20754e-09
2.17244e-49
17.5611
2.33154e-39
4.92354e-75
-2.39523e-70
4.169e-41
1.12302e-53
2.40435e-55
0.534426
-2.20555e-36
1.93002e-56
4.68027e-55
-1.2812e-117
5.74294e-128
4.2301e-32
-6.17671e-247
11.9989
2.12299e-172
-2.35991e-35
7.13306e-23
2.21186e-07
2.65458e-20
6.13605e-32
2.91626e-34
-8.83201e-71
1.95541e-20
6.84261e-43
5.68494e-14
5.40469e-55
4.06841e-14
1.10707e-56
-7.3698e-260
-3.21689e-54
175.933
2.03029e-13
-3.36231e-98
6.72045e-252
4.16994e-167
1.12337e-89
-5.32784e-58
2.75354e-41
6.50971e-63
5.9985e-192
2.12733e-97
2.56316e-53
4.99865e-100
-7.49243e-110
2.37735e-13
-6.26638e-107
3.89983e-45
1.41866e-28
-1.37681e-98
2.95562e-90
1.21283e-28
-4.27628e-270
-1.07409e-92
50.56
-5.47694e-197
3.89741e-17
1.56691e-23
-2.09202e-91
1.71423e-33
1.48585e-28
-1.77577e-55
9.00284e-28
2.77159e-127
-1.54766e-33
-2.00005e-135
1.76082e-58
9.97126e-31
-3.23408e-32
-1.79515e-127
8.61933e-36
4.82003e-07
-8.55293e-47
-1.45422e-71
-3.92138e-121
2.17496e-23
5.61101e-07
3.60867e-120
3.21484e-220
1.46337e-55
4.31578e-234
0.66712
1.46804e-55
1.06868e-12
4.73972e-70
2.67298e-64
11.9796
-1.37111e-67
0.00146569
1.25761e-42
88.4238
6.67735e-45
-3.78945e-77
-4.94413e-69
6.8333e-88
0.00348435
0.000308703
1.69291e-179
1.13767e-176
-5.68918e-30
4.13338e-167
0.0034963
1.15666e-29
2.44516e-10
-7.93274e-121
129.685
0.0872334
1.63469e-54
-3.41171e-259
-1.39669e-132
-1.00166e-38
1.57704e-87
2.0655e-92
-2.86535e-84
9.45333e-41
3.94699e-44
34.3213
8.50045e-08
1.18597e-193
4.32842e-38
4.1105e-26
-1.09939e-28
-1.70743e-75
3.05712e-23
3.1637e-35
-1.26796e-37
1.63319e-135
6.79046e-257
2.93077e-22
3.95532e-19
6.77425e-65
-5.14136e-31
1.55511e-13
1.85455e-76
-1.19541e-57
1.30482e-118
1.17469e-81
2.30418e-15
-7.54694e-80
2.32906e-27
2.00627e-41
3.88652e-51
5.85916e-102
-1.00103e-78
1.38861e-07
3.2444e-72
-1.33459e-75
37.1191
2.63612e-50
5.00006e-78
0.00950766
-2.11748e-263
1.11945e-70
-7.23731e-63
-2.67892e-88
8.17294e-149
4.40464e-58
6.29784e-271
6.67434e-10
1.66945e-127
7.24494e-62
2.27236e-22
2.95477e-33
1.42313e-65
1.52552e-68
2.13722e-23
91.8004
4.2164e-199
-6.4654e-104
4.27479e-77
0.00709814
3.39654e-19
-3.22972e-129
2.86697
-9.81795e-259
-1.65236e-130
182.546
-1.71229e-97
1.06096e-125
2.74126e-123
1.01477e-42
-3.84336e-41
2.74617e-195
-1.10657e-90
2.09984e-25
4.97274e-64
-1.99459e-66
-2.60728e-85
-4.60655e-182
-6.07553e-40
1.44961e-06
-6.78845e-69
-3.80529e-32
1.73726e-43
7.28447e-57
9.0431e-11
4.25853e-27
-8.3755e-84
-1.56145e-128
0.000395848
5.88675e-38
7.49994e-48
-3.83463e-118
4.55781e-193
-1.30986e-37
2.07188e-11
1.68035e-74
3.43267e-30
6.03336e-73
-6.10382e-83
-8.93996e-107
1.78938e-40
149.432
18.3121
2.79028e-39
1.7234e-67
-2.51982e-109
1.14099e-41
0.012412
-1.16291e-34
-7.00036e-131
3.30974e-12
4.56133e-08
8.71649
-1.01573e-92
86.1091
2.25576e-195
-1.72837e-81
1.57041e-191
2.86969e-11
1.27356e-46
81.1989
-2.1795e-135
0.0183553
8.19722e-166
-1.22239e-67
6.20403e-32
-1.91089e-89
8.7907e-13
0.101407
-1.66967e-95
1.07641e-100
3.8772e-71
-2.5476e-93
-4.73342e-97
4.92263e-14
3.85288e-49
6.34903e-68
7.95727e-16
-3.11485e-97
-3.05488e-189
-2.0295e-70
2.35712e-166
1.45932e-27
4.21265e-71
1.95494e-09
2.66336e-11
-1.36528e-43
4.22544e-35
1.20484e-39
-4.19592e-70
0.0115778
5.76816e-77
-1.08274e-101
-3.15143e-239
7.7266e-12
-6.06321e-36
-9.46855e-137
3.46849e-27
-2.60495e-86
1.92631e-35
-2.24819e-38
-1.68161e-33
6.32006e-41
88.0831
3.53928e-39
-2.19685e-42
0.104632
-2.94323e-90
1.69878e-07
4.23858e-26
1.63859e-169
2.17426e-75
-1.43698e-108
-6.16476e-74
-1.94196e-252
-1.4826e-122
1.63721e-07
1.1477e-11
-1.20562e-123
200.037
8.56065e-30
-2.71893e-171
4.3541e-12
3.15775e-13
4.33714e-174
6.7753e-11
2.22254e-23
1.48503e-11
-1.19637e-173
2.48851e-129
-5.15845e-106
2.33822e-174
-2.31782e-37
28.4929
-8.48548e-137
3.34606e-12
-4.699e-265
2.62768
4.16211e-28
2.39232e-38
-6.12174e-220
-1.56909e-138
-3.73057e-80
1.32379e-42
1.60753e-15
6.28839e-36
6.6753e-99
-2.576e-93
-8.30325e-174
1.38412e-29
3.20889e-39
-5.31714e-108
-6.42481e-218
1.4355e-58
2.29199e-36
2.31352e-45
-3.27001e-145
4.83633e-07
1.97832e-30
1.48898e-165
6.1239e-48
-1.39911e-93
-3.61575e-77
193.88
-8.98216e-99
-1.34094e-170
7.91749e-42
-4.34923e-37
-4.14898e-46
2.83163
4.66065e-63
7.19562e-80
1.15073e-34
-1.15992e-88
5.73373e-87
2.92694e-78
4.25451e-88
-1.61171e-29
-2.27186e-77
14.6002
-7.65815e-45
4.27226e-10
-2.56121e-85
0.00218473
4.37019e-32
2.53989e-10
3.16056e-14
6.62133e-37
9.3314e-79
1.76913e-84
-1.99841e-61
9.86034e-266
-3.10722e-80
8.63062e-37
2.08045e-14
-2.91315e-89
8.14061e-167
1.36046e-39
1.61805e-37
4.54933e-18
1.81717e-40
2.76193e-12
4.97835e-18
1.9587e-116
1.01796e-51
0.644369
5.18683e-38
9.34295e-256
1.58226e-93
-3.68397e-91
1.09877e-258
5.21271e-53
3.50671e-197
-1.34054e-78
2.68143e-15
2.01337e-34
1.80803e-06
2.70591e-193
2.38622e-137
8.68596e-233
-3.34839e-90
-8.04948e-108
3.01112e-10
-1.6886e-107
1.36545e-137
3.83751e-07
6.89639e-38
1.85251e-52
2.44014e-54
9.82017e-18
1.06302e-98
2.63779e-12
2.08107e-85
-1.80328e-190
0.00173393
1.02713e-45
8.59687e-21
-9.4322e-103
55.1815
-7.65193e-41
3.64071e-47
3.83597e-38
2.31539e-31
32.0628
-1.1842e-82
9.0646e-13
-4.81871e-49
-3.38672e-49
1.25913e-143
5.71534e-70
1.17245e-07
4.72027e-81
3.0276e-09
-5.06654e-96
-3.28493e-100
5.36573e-13
5.715e-157
1.66491e-125
-3.89705e-81
2.01904e-44
2.51031e-11
-3.78918e-97
-8.48039e-92
-1.34026e-236
-7.12499e-48
0.00198749
2.47045e-44
-2.98687e-91
-5.47706e-65
6.54638e-100
-3.70193e-134
13.8247
-1.18964e-48
-2.03302e-222
2.02163e-50
2.1908e-101
-1.51827e-39
-3.97801e-28
7.5441e-50
1.04934e-89
3.96863e-15
1.67918e-11
-7.84836e-225
-4.04428e-64
6.19169e-12
-1.80764e-137
-9.82219e-200
8.97605e-68
2.20224e-53
9.42168e-84
-4.28711e-198
4.36024e-54
1.33509e-12
-4.76277e-173
5.34395e-24
1.04135e-197
-1.22706e-107
4.8416e-57
4.11683e-05
-4.19667e-243
1.90941
-2.25076e-47
2.04087e-22
37.4811
-2.33802e-43
1.45607e-60
0.0296119
-7.89656e-90
1.3729e-05
1.8564e-19
-1.02605e-66
-3.01741e-82
5.73224e-84
4.98417e-101
-2.43397e-106
1.29037e-23
0.0277591
192.326
1.93338e-27
-1.5468e-29
0.00684038
8.24909e-30
11.2531
2.76722e-150
1.90634e-99
2.87917e-19
2.25651e-45
-6.26901e-123
1.90527e-27
-1.06109e-84
31.0519
-3.88533e-254
8.67016e-134
2.10556e-144
202.816
-2.44132e-37
1.63181e-45
-1.15028e-79
1.86638e-19
-1.68505e-86
-1.61139e-140
2.51541e-07
-4.00343e-83
2.42827e-07
1.32411e-23
1.43656e-72
8.63995e-15
8.57055e-46
-1.38101e-100
-1.26677e-136
-1.89908e-132
0.20987
1.17136e-13
-8.58173e-112
2.97558e-18
6.19954e-53
7.30862e-26
-4.85988e-241
9.70685e-50
1.50326e-07
1.69103e-11
-4.70749e-42
-4.86106e-69
1.1051e-135
5.06784e-17
2.90717e-86
3.0083e-139
2.23561e-10
1.57485e-17
-4.79204e-112
-2.15485e-32
4.51024e-47
1.68947e-235
7.38999e-125
-5.50544e-201
-3.66632e-41
83.3238
1.30213e-11
2.20036e-20
-6.49259e-117
-1.46738e-85
7.62861e-45
6.33926e-226
2.66247e-09
1.23984e-46
81.2465
-2.92591e-28
2.37772e-76
2.22569e-113
3.17809e-149
4.23517e-83
-8.89422e-88
1.76393e-121
14.2242
6.05389e-16
1.54895e-37
1.73668e-17
-9.9296e-44
-2.1244e-136
-5.01686e-265
-1.76811e-121
6.74803e-27
0.833091
-2.94001e-22
3.54384e-47
-6.30332e-50
3.50061e-75
1.58166e-16
0.0351468
0.0221262
5.28814e-88
-4.09168e-71
4.54225e-30
9.91338e-103
1.71466e-194
-5.68427e-122
1.60524e-14
-4.8496e-109
1.12546e-62
-1.23156e-95
1.10488e-41
2.07309e-08
4.07289e-101
-1.46104e-121
1.11813e-10
4.6559e-16
-4.18653e-95
-5.21618e-142
-3.037e-51
9.23495e-05
1.53597e-26
2.0113e-23
-7.05877e-54
2.8101e-62
0.0454578
-7.60995e-84
-2.49453e-22
-7.91372e-135
9.93613e-13
4.99323e-12
-8.55458e-178
1.58544e-145
87.1238
2.62122e-123
6.62485e-76
9.32431e-29
7.97497e-112
2.73515e-110
-3.72983e-97
6.82691e-125
1.20849e-232
4.12338e-20
1.29385e-05
4.15618e-148
0.016688
-1.72655e-87
-2.61778e-126
7.47556e-13
3.12276e-09
1.92686e-27
-1.02963e-88
-1.68555e-121
-6.36832e-46
151.562
-1.26691e-108
8.9756e-149
7.99738e-156
3.27232e-108
2.81227e-61
3.99475e-30
-9.28707e-112
-9.33519e-81
5.26927e-128
7.28281
4.99086e-09
2.9749e-44
-7.38946e-40
-6.47837e-86
-3.31448e-126
5.26383e-17
1.3447
-5.43465e-75
3.11176e-154
-7.56213e-128
6.73536e-14
7.06629e-112
1.79074e-135
3.96858e-09
-1.77137e-89
-1.08235e-122
115.472
6.05854e-07
6.82061
9.96742e-17
-3.70356e-112
9.33825e-14
1.36698e-10
0.163496
1.70455e-98
1.3705e-30
-7.59872e-231
0.121183
-5.7561e-259
-1.31493e-100
9.13043e-87
4.55207e-154
5.22443e-43
-8.35423e-95
-1.83114e-110
3.96547e-100
6.35219
2.12281e-14
1.82843e-40
-1.75794e-120
2.31953e-30
15.4432
4.33071e-09
3.40757e-44
-1.49784e-52
-3.04164e-101
1.26925e-87
2.6985e-150
1.00435e-113
1.96266e-146
-4.07115e-123
-1.36402e-44
3.87003e-15
3.04598e-17
0.315547
9.09471e-05
8.6774e-09
4.60685e-25
0.11529
3.29932e-137
3.21483e-05
-2.49639e-128
0.00136295
1.86413e-09
5.06839e-37
-6.004e-111
2.00477e-36
3.67834e-24
1.00574e-67
77.9086
9.52533e-13
0.366888
-1.0287e-124
6.17349e-10
2.50439e-07
3.47081e-10
1.20964e-07
4.70299e-11
-1.615e-122
1.91576e-98
1.55032e-43
-1.93689e-115
9.77499e-30
-4.03822e-104
1.1669e-39
3.57421e-179
-3.69259e-94
1.49825e-22
2.52555e-34
1.01614e-140
-1.55195e-48
0.882347
93.8816
-4.07436e-156
9.5787e-51
3.70809e-80
8.33526e-11
9.30793e-31
4.76869
3.68663e-05
5.80706e-101
2.65847e-41
1.90938e-07
-1.41292e-24
4.79867e-06
1.1532e-55
5.63855e-12
9.63793e-143
0.188633
3.87614e-09
-3.00329e-140
1.06489e-07
0.11719
9.53065e-47
3.76245
-2.77723e-90
5.75026e-09
7.77838e-82
-1.10493e-160
2.04261e-76
-4.34416e-85
0.0804896
4.04758e-05
0.0365984
-2.02248e-142
6.35994
1.06376e-37
3.32956e-13
-2.60698e-32
2.66448e-43
1.42012e-52
0.017337
-1.13644e-88
1.68655e-101
1.26369e-21
2.85366e-09
2.42055e-29
6.12715e-19
-2.65726e-59
0.0484778
2.32392e-30
5.7459e-30
1.61598e-09
-4.79742e-175
6.57968e-08
3.46328e-12
3.61023e-08
-2.95451e-78
0.000784027
1.41318e-148
1.38096e-30
1.66804e-45
1.29186e-06
4.70639e-74
1.35479e-22
1.18987e-08
76.7187
-3.97955e-108
2.99429e-39
-6.5631e-49
2.92064e-10
8.12425e-20
-1.43371e-99
1.70277e-39
6.25845e-151
14.2601
-1.94259e-237
2.17454e-150
-2.79613e-199
6.07025e-07
-2.09236e-121
7.40155e-39
3.65022
8.31237e-55
5.57961e-60
-1.5975e-115
3.8801e-189
7.54383e-10
1.47049e-153
-2.15377e-42
1.83855e-12
-3.38918e-47
2.39386e-06
1.02726e-95
2.65137e-38
1.01245e-07
3.06387e-19
-1.04486e-72
85.9366
-1.65962e-241
8.03581e-184
8.77705e-91
219.843
-1.38267e-79
2.0889e-75
6.40656e-08
-7.39697e-111
5.12056e-94
2.83397e-14
6.90007e-06
2.13136e-32
0.00772818
-5.94812e-111
-4.89884e-91
3.38567e-44
2.55903e-49
1.07135e-06
-5.66157e-130
1.53666e-71
-1.47302e-56
-1.69294e-17
-1.22131e-63
2.40781e-142
5.06256e-41
-3.90325e-19
-2.21046e-207
-6.42602e-204
3.70315e-05
5.87123e-32
7.20379e-05
-1.70779e-93
-9.47983e-254
-6.08208e-18
7.34556e-07
-8.49943e-136
-4.77743e-107
1.92239e-150
13.8535
-3.00597e-207
1.3253e-33
5.79181e-05
1.00108e-200
1.89947e-187
1.52656e-19
-9.80387e-164
-7.06584e-204
1.19455e-42
1.8157e-13
1.52046e-144
2.73991e-22
8.50252e-157
6.91234e-08
-7.01194e-256
9.85639e-08
3.25259e-13
1.34596e-21
-1.73531e-200
1.38857e-15
5.18159
1.96677e-102
2.36495e-49
1.54338e-165
8.25867e-14
1.07008e-157
6.33207e-07
1.39782e-09
-3.36797e-87
4.93113e-196
9.08322e-14
2.89822e-14
6.3037e-49
4.22246e-47
1.17293e-16
-3.40293e-162
3.74456e-16
9.07935e-198
9.97913e-06
7.73185e-09
3.75633e-09
6.44924e-21
-1.79466e-23
10.6471
2.22069e-22
9.84673e-46
7.47908e-15
2.02756e-103
1.03751e-12
1.51399e-16
-6.05672e-45
4.18619e-82
0.0908082
-4.63287e-215
0.0412859
109.947
5.14382e-115
1.27832e-08
73.8839
1.21348e-35
2.49057e-43
6.76793e-17
-3.38855e-55
8.86781e-149
4.62521e-08
0.0124015
0.832614
-3.5682e-103
1.49171e-16
0.000331385
2.02702e-14
-2.65847e-123
7.45391e-181
4.84362e-34
0.0191838
5.52748e-09
1.3506e-16
-2.12198e-245
-3.69998e-159
9.53846e-15
-4.07461e-110
1.26052e-44
-1.45686e-105
6.49611e-193
1.76965e-07
7.08177e-90
0.000133868
4.54362e-48
6.95935e-172
1.30476e-180
2.52435e-15
-1.48204e-104
6.03679e-35
2.40946e-16
0.636573
-3.36706e-51
5.33869e-144
1.90146e-06
2.62344e-96
1.72075e-152
5.36848e-70
4.33651e-14
-8.50389e-102
4.10523e-14
9.94934e-47
214.132
5.06363e-15
-6.28619e-135
7.00808e-05
-3.25617e-198
3.21784e-09
3.27773e-38
5.80639e-06
0.0041037
-2.67368e-46
0.000123371
3.69417e-170
6.11562e-09
4.85462e-124
5.41805e-52
2.45506e-05
1.95745e-28
9.4488e-06
0.0155918
-4.37607e-20
7.44812e-08
1.92683e-06
1.64566e-140
7.27425e-155
-1.1988e-196
0.000155068
-1.26652e-24
9.22953e-139
1.22551e-07
1.1498e-05
2.77517e-39
1.08073e-13
1.25239e-55
-7.37931e-35
0.00195658
-6.05856e-73
1.26411e-30
1.77158e-34
4.94845e-230
8.28772e-228
-1.11151e-139
-4.48691e-103
5.4334e-48
1.85288e-173
-4.29779e-87
8.43886e-107
1.20849e-65
5.83147e-20
-3.20015e-122
9.66559e-07
-1.37788e-257
9.28391e-12
3.20554e-06
-3.30106e-133
4.40856e-05
6.37766e-13
4.36704e-06
8.09517e-63
5.87568e-17
-1.10789e-112
9.88002e-39
1.54952e-49
2.60537e-182
4.24548e-124
-3.32873e-94
-1.41997e-131
4.44164e-203
4.23624e-56
7.98867e-205
-2.33347e-31
5.53047e-24
0.0640763
2.66823e-175
-1.37108e-63
9.48109e-172
-2.03381e-109
4.77164e-22
3.58982e-66
1.16328e-136
118.909
1.30654e-14
5.51656e-32
3.843e-61
1.86293e-15
4.88657e-24
1.13099e-67
1.19508e-18
1.05311e-13
-1.09556e-106
1.58683e-199
-2.081e-84
9.74565e-08
2.0073e-155
-3.88532e-140
5.3802e-14
1.89914e-115
-1.69118e-110
3.76707e-78
6.50718e-143
0.000883698
1.44587e-173
-8.30426e-142
1.65633e-21
6.17312e-19
5.37627
1.80598e-13
-1.28746e-59
-8.69885e-135
1.34965e-17
-1.9318e-136
1.38585e-27
2.04867e-52
3.73607e-107
4.51622e-06
-2.21863e-202
2.43384e-22
1.12569e-54
3.64293e-15
-4.3342e-44
9.85092e-209
5.55576e-108
7.81265e-257
1.35678e-25
-1.24084e-157
2.21461e-19
5.54851e-45
-6.21116e-93
-6.5665e-58
5.0225e-40
3.18447e-201
7.59928e-22
1.41019e-22
-5.6752e-104
4.9944e-21
7.95312e-08
6.9704e-191
3.60956e-40
1.27154e-11
8.53346e-14
2.53046e-77
5.18407e-43
1.21903e-41
1.70011e-47
2.27392e-74
3.44822e-15
-3.56734e-74
4.20152e-133
1.66001e-134
0.0285068
1.30847e-08
5.21559e-05
1.34811e-06
-5.37098e-36
5.62179e-21
4.47275e-45
1.25102e-19
8.34446e-134
2.72647
-2.67359e-109
2.3109e-06
3.78125e-09
-4.93277e-138
-6.77084e-26
5.66599e-09
3.90358e-06
3.40608e-43
2.57865e-27
1.86602e-135
-3.50343e-223
3.00871e-15
1.87262e-199
1.83276e-177
1.45272e-17
8.16361e-110
-5.91695e-68
3.49528e-142
-8.08789e-92
2.78355e-15
10.2348
1.1899e-106
-5.90919e-114
9.37081e-09
-7.27109e-39
3.28285e-11
1.86866e-25
1.97925e-26
-2.45636e-112
4.79098e-39
1.12704e-17
2.72713e-17
-7.04023e-31
2.67492e-159
1.07614e-07
8.02874e-32
8.0521e-20
-1.0442e-85
6.82831e-140
5.8309e-17
1.62454e-104
-1.1299e-193
1.94027e-23
1.43171e-08
-5.12836e-176
3.57527e-22
3.60402e-48
-5.03265e-121
-2.65971e-77
-1.65209e-119
1.85979e-23
1.30938e-134
1.55661e-141
2.01955e-46
6.48925e-24
-5.18424e-41
-8.20674e-31
9.29508
-2.33639e-109
1.5411e-62
0.282176
3.09818e-34
-5.54103e-121
4.80355e-33
0.000711466
4.05734e-182
-1.3843e-113
2.61773e-194
9.33452e-27
7.24633e-15
1.29751e-49
1.30578e-206
-3.65819e-81
2.73683e-68
2.60235e-94
1.35748e-09
-5.38338e-107
-2.24943e-205
2.68314e-201
4.53861e-29
6.0805e-44
1.43809e-05
-1.19171e-84
-7.70597e-50
7.75714e-33
7.66824e-16
2.67046e-153
1.19522e-24
1.52338e-185
2.8129e-177
-1.45535e-205
3.90822e-10
1.74387e-113
5.96811e-25
1.99808e-24
1.41562e-27
5.66849e-17
1.711e-28
8.86332e-14
2.44231e-26
2.70406e-105
2.10385e-30
-1.52978e-49
4.097e-36
9.0888e-22
-2.10667e-112
40.1527
2.75005e-17
1.60653e-19
-3.48191e-175
1.44844
2.29062e-16
3.37823e-18
-4.40993e-32
3.88627e-08
-6.97854e-65
4.2131e-106
-1.94821e-93
1.10937e-96
4.60266e-91
1.22853e-18
2.71206e-22
-1.08479e-119
2.53618e-26
4.70394e-96
-3.69097e-91
8.04396e-55
-1.57697e-47
-1.21268e-73
2.0169e-57
-3.92092e-46
5.39192e-27
1.45601e-26
2.71103e-50
7.30366e-191
6.4686e-91
-2.37949e-104
4.33194e-11
4.98034e-156
2.75831e-117
1.78718e-26
1.25633
-2.10521e-133
2.3639e-05
5.74914e-138
5.61122e-105
1.81644e-44
2.88474e-30
1.82547e-35
7.1958e-152
1.97854e-20
8.54008e-23
1.0093e-11
1.53442e-175
1.39272e-26
2.07653e-43
1.40539e-58
-5.15871e-204
-1.33085e-244
7.07827e-29
1.21286e-43
1.2677e-63
49.912
5.32795e-24
1.18969e-33
-1.92114e-25
2.8068e-47
2.27799e-11
-2.97155e-108
2.19619e-50
1.29459e-80
-2.14754e-91
0.00613224
3.35969e-25
1.56879e-22
2.2894e-37
-2.68102e-148
2.36274e-19
1.13271e-18
1.08653e-05
5.42366e-90
8.08066e-34
0.000121583
6.60076e-05
1.00248e-139
2.88923e-05
3.20006e-54
20.6106
3.69736e-191
1.38034e-25
4.96863e-38
2.1081e-214
4.6962e-16
4.32216e-69
-5.31087e-81
1.10186e-10
0.000774741
2.90946e-06
2.55153e-80
7.7039e-28
-4.87196e-191
-3.13559e-105
3.42059e-06
1.20463e-31
1.66799e-82
9.48765e-20
-3.89996e-23
5.42825e-29
4.02174e-42
2.31975e-39
2.09332e-24
0.0020177
8.34021e-146
2.16975e-41
2.20025e-50
1.18729e-28
1.69506e-07
1.24453e-24
5.13306e-34
1.04757e-70
1.29325e-194
3.05875e-27
1.44147e-32
9.72151e-23
7.22613e-151
5.15936e-60
6.70344e-27
7.58255e-26
-1.1269e-24
2.66031e-21
1.15029e-76
7.37095e-31
4.10821e-115
8.18188e-15
6.12119e-56
1.77788e-26
4.41193e-65
6.56731e-79
8.38792e-25
3.66047e-61
-3.14296e-69
1.44292e-84
4.31432e-147
1.02185e-32
-4.60428e-53
2.31844e-57
11.9014
0.00839342
-1.63744e-116
4.22655e-84
1.01557e-40
6.68643e-43
6.68308e-207
6.54972e-31
-2.99958e-37
2.74114e-31
-4.11281e-192
6.36356e-14
2.20282e-20
3.11191e-16
7.01638e-31
-4.55856e-176
-1.36874e-98
4.06067e-65
1.55422e-30
4.55828e-09
13.6892
-1.75265e-142
1.5255e-69
-1.14887e-74
2.41917e-07
0.000369539
4.54967e-06
9.98128e-54
1.95267e-23
-2.52893e-190
2.51509e-40
-4.2636e-54
-8.05091e-141
-2.78477e-23
5.21644e-43
1.44887e-36
3.31008e-22
-3.39366e-74
1.74879e-43
3.44912e-33
-5.60923e-178
-1.84702e-267
5.00204e-45
-3.03847e-68
1.61317e-08
2.91954e-51
-2.31372e-23
1.0579e-13
-2.58721e-42
-3.75681e-142
-5.18221e-61
4.38497e-21
5.11265e-146
0.138803
0.0260562
-1.76566e-118
1.06807e-185
5.02661e-111
9.98459e-146
-1.45806e-215
4.2909e-63
7.86571e-70
-2.26688e-33
1.6341e-42
3.54633e-32
-3.59896e-50
7.68616e-06
1.44063e-21
4.62729e-33
1.74057e-43
5.3252e-54
2.03158e-36
-4.54886e-177
-9.87563e-77
1.58443e-71
-1.23918e-32
-1.26555e-26
1.14398e-09
-1.83683e-218
-1.396e-27
2.63983e-39
1.11502e-51
2.52125e-23
-1.74059e-41
2.11587e-25
0.00229427
4.72527e-40
8.93088e-19
6.05613e-53
1.90774e-91
2.63258e-42
1.26344e-35
-9.51406e-149
7.9436e-45
0.0176086
-8.8062e-81
0.000147713
1.22594e-140
2.71982e-35
-4.7849e-95
6.36053e-78
5.2462e-31
-2.9469e-21
8.0012e-23
-3.22088e-74
3.77749e-47
5.09114e-52
1.98654e-18
8.73053e-15
-1.89456e-47
9.88784e-10
-1.32604e-214
3.91788e-42
7.50841
7.43377e-15
-4.2057e-75
0.289089
1.1141e-20
-1.11389e-70
-3.79512e-165
6.18128e-11
6.79596e-36
1.98937e-53
8.90295e-38
-2.02794e-156
2.09088e-23
-5.33658e-84
6.44323e-15
1.49859e-37
2.21108e-33
-8.06346e-31
-1.37315e-261
-1.21108e-107
3.6551e-53
-4.85311e-91
-4.96914e-94
2.13948e-58
1.98197e-78
1.26261e-66
-1.14485e-25
1.10218e-28
-1.33e-202
7.61369e-17
-2.91622e-106
-1.47352e-176
-2.43723e-28
6.52088e-135
1.58207e-52
1.26181e-53
-3.125e-150
-7.86464e-147
-8.66109e-87
4.1671e-27
5.9756e-64
2.12962e-33
7.58409e-38
-2.53315e-27
1.05014e-26
3.30348e-54
2.00051e-45
6.83494e-40
-1.18114e-232
-7.81942e-61
1.14394e-80
4.04291e-55
0.126518
1.88967e-29
-1.15354e-73
3.76926e-44
-1.79338e-66
6.7628e-71
-3.36633e-76
2.63095e-65
1.10195e-72
-1.57036e-33
5.521e-40
-3.0323e-178
2.90824e-28
-1.43804e-51
2.58595e-26
8.33931e-165
-6.62344e-29
2.89516e-05
-1.02359e-101
-2.00864e-41
4.81836e-20
-1.94028e-122
2.05333e-27
2.38883e-14
1.94527e-38
-7.15752e-39
9.19211e-16
8.27801e-45
-1.49807e-52
2.83433e-42
1.61018e-26
2.23699e-131
1.33754e-77
-1.76293e-222
-1.75729e-105
-2.9374e-165
7.49151e-45
2.5345e-41
9.64773e-28
6.89022e-44
11.6339
-4.73544e-21
26.5186
1.62479e-38
2.84824e-10
7.62109
1.19636e-16
20.5023
2.42454e-75
2.66611e-45
7.25774e-52
8.80516e-57
1.21747e-47
1.38157e-107
4.51612e-50
-1.92963e-96
1.54569e-166
-6.30627e-54
2.73471
4.19726e-47
3.02642e-25
1.71832e-49
-2.76222e-88
1.68291e-40
1.76975e-41
2.04856e-111
4.1948e-47
7.49138e-86
3.71735e-25
4.6519e-41
5.84509e-43
-5.48567e-44
0.0970035
1.53263e-09
3.54737e-24
2.3061e-54
66.5694
1.07135e-48
-1.01626e-56
7.0441e-30
-3.86883e-30
-1.18464e-61
5.10519e-18
7.30131e-144
-1.76285e-38
-1.87345e-28
1.0103e-44
-5.62558e-47
3.08852e-78
1.12954e-43
-4.30423e-35
1.32711e-73
1.33417e-29
3.03202e-51
6.63728e-66
1.81555e-142
1.3171e-57
1.23142e-41
2.73429e-85
2.24002e-53
8.98542e-66
-6.82104e-108
-9.90005e-35
-1.90343e-86
1.95634e-16
4.36759e-48
-1.10884e-66
-9.6492e-151
8.61256e-104
2.27818e-17
2.45268e-43
1.83447e-208
3.37359e-47
5.97659
4.96166e-26
6.02099e-80
8.41939e-54
0.0497659
0.534657
32.0344
3.35727e-93
5.02084e-95
5.62162e-109
5.73567e-65
3.78974e-31
0.000321317
0.00512845
1.71932e-13
6.36832e-23
1.4164e-80
-4.78263e-162
3.28048e-158
-2.81018e-28
-8.99154e-79
1.56041e-26
-1.18069e-95
4.13628e-07
-5.46423e-92
3.82452e-46
1.88108e-12
-1.48e-43
1.83202e-22
2.83047e-115
1.18229e-45
-1.73241e-174
2.71217e-19
1.97019e-23
1.91253e-72
-8.05051e-167
6.16829e-71
-7.69643e-26
7.74678e-110
-1.39056e-46
0.0443557
4.79758e-186
1.70383e-71
-1.00461e-39
-3.50028e-40
8.7367e-50
6.12689e-122
-2.94715e-109
8.59961e-108
2.21491e-209
1.16228e-158
-1.32547e-66
6.71477e-31
-2.04465e-175
5.45609e-77
-5.34514e-119
147.332
-3.32523e-29
3.16701e-106
-3.08614e-220
5.86098e-26
5.47833e-48
4.722e-22
-8.52561e-49
3.96139e-48
-5.7313e-170
-7.23616e-107
2.33857e-18
5.27674e-232
2.12483e-49
1.38115e-29
2.17424e-53
6.63754e-153
2.9958e-43
-4.25267e-206
-1.16128e-63
-1.41678e-65
3.47353e-108
3.45559e-09
6.34219e-58
5.98923e-71
2.08503e-67
-3.6458e-40