/*--------------------------------*- C++ -*----------------------------------*\
  =========                 |
  \\      /  F ield         | OpenFOAM: The Open Source CFD Toolbox
   \\    /   O peration     | Website:  https://openfoam.org
    \\  /    A nd           | Version:  7
     \\/     M anipulation  |
\*---------------------------------------------------------------------------*/
FoamFile
{
    version     2.0;
    format      ascii;
    class       surfaceScalarField;
    location    "76";
    object      phi;
}
// * * * * * * * * * * * * * * * * * * * * * * * * * * * * * * * * * * * * * //

dimensions      [0 3 -1 0 0 0 0];

internalField   nonuniform List<scalar> 
82640
(
-8.0665e-05
0.00310428
-0.00302362
-0.00017768
0.00412623
-0.00402922
-0.000266491
0.00456082
-0.00447201
-0.000308382
0.00419373
-0.00415184
-0.00028157
0.00266355
-0.00269036
-0.000161591
-0.000253382
0.000133403
2.71728e-05
-0.00368582
0.00349706
0.000217506
-0.00675901
0.00656868
0.000340461
-0.00903709
0.00891414
0.000356441
-0.0105363
0.0105203
0.000346072
-0.0112735
0.0112839
0.000533755
-0.0106442
0.0104565
0.00103813
-0.00784633
0.00734196
0.00175795
-0.00331497
0.00259514
0.00254092
0.00149921
-0.00228218
0.0032495
0.00568532
-0.0063939
0.00381402
0.00861645
-0.00918097
0.00417111
0.0104744
-0.0108315
0.00424104
0.0117138
-0.0117838
0.00413106
0.0125865
-0.0124765
0.00421438
0.0119038
-0.0119871
0.00479458
0.00821576
-0.00879596
0.00569951
0.00242914
-0.00333408
0.00668847
-0.00376433
0.00277537
-0.0082547
0.00736575
0.00757742
-7.14284e-05
0.00317571
-0.000156829
0.00421163
-0.000231749
0.00463574
-0.000258078
0.00422006
-0.000215425
0.0026209
-8.12614e-05
-0.000387545
0.000117585
-0.00388467
0.000315268
-0.0069567
0.000440575
-0.0091624
0.000445945
-0.0105417
0.000386563
-0.0112141
0.000485287
-0.0107429
0.000909981
-0.00827102
0.0015852
-0.00399019
0.00235411
0.000730306
0.0030753
0.00496413
0.00367079
0.00802096
0.00404416
0.0101011
0.0041326
0.0116254
0.00409631
0.0126228
0.0043019
0.0116982
0.00501646
0.0075012
0.00600708
0.00143853
0.00698927
-0.00474652
-0.00909351
0.00782808
-6.19394e-05
0.00323765
-0.00013509
0.00428478
-0.00019519
0.00469584
-0.000204891
0.00422976
-0.000145256
0.00256126
4.52427e-06
-0.000537326
0.000215318
-0.00409546
0.000421097
-0.00716248
0.000551814
-0.00929311
0.000555089
-0.0105449
0.000460607
-0.0111196
0.000475737
-0.010758
0.000814391
-0.00860968
0.00144011
-0.00461591
0.00219194
-2.15204e-05
0.00292247
0.0042336
0.00354302
0.00740041
0.00393058
0.00971349
0.00404998
0.011506
0.00410835
0.0125644
0.00444955
0.011357
0.00529222
0.00665853
0.0063625
0.000368246
0.0073373
-0.00572133
-0.00986912
0.00811291
-5.22394e-05
0.00328989
-0.000112573
0.00434512
-0.000157031
0.0047403
-0.000149176
0.00422191
-7.14831e-05
0.00248357
9.50071e-05
-0.000703817
0.000319241
-0.00431969
0.000534021
-0.00737726
0.000672193
-0.00943129
0.000680534
-0.0105533
0.000565494
-0.0110046
0.000506445
-0.010699
0.00075356
-0.00885679
0.00132335
-0.0051857
0.00205531
-0.000753479
0.00279132
0.00349759
0.00343035
0.00676138
0.00383307
0.00931078
0.00399748
0.0113416
0.00416961
0.0123923
0.00466048
0.0108661
0.00562297
0.00569605
0.00675841
-0.000767196
0.00772244
-0.00668536
-0.0105712
0.00842455
-4.24001e-05
0.00333229
-8.94186e-05
0.00439214
-0.000117505
0.00476839
-9.12986e-05
0.0041957
5.07304e-06
0.0023872
0.000190109
-0.000888853
0.00042879
-0.00455837
0.000653181
-0.00760165
0.000799924
-0.00957803
0.000818684
-0.010572
0.000697337
-0.0108833
0.000577808
-0.0105795
0.000730321
-0.00900931
0.00123552
-0.0056909
0.00194362
-0.00146158
0.00268054
0.00276067
0.00333205
0.00610987
0.0037545
0.00888833
0.00397878
0.0111173
0.004281
0.01209
0.00493633
0.0102108
0.00601125
0.00462112
0.0071897
-0.00194565
0.00813301
-0.00762866
-0.0111916
0.00875342
-3.2482e-05
0.00336477
-6.57611e-05
0.00442541
-7.68565e-05
0.00477948
-3.1678e-05
0.00415052
8.52576e-05
0.00227026
0.000289341
-0.00109294
0.000543381
-0.00481242
0.00077774
-0.007836
0.000933427
-0.00973372
0.00096601
-0.0106046
0.00085126
-0.0107685
0.000688778
-0.010417
0.000747953
-0.00906848
0.00117776
-0.0061207
0.00185503
-0.00213885
0.00258779
0.0020279
0.0032475
0.00545017
0.00369773
0.00843809
0.00399705
0.010818
0.00444201
0.0116451
0.00527391
0.00937886
0.00645466
0.00344037
0.00764993
-0.00314092
0.0085558
-0.00853453
-0.011724
0.00908815
-2.25533e-05
0.00338732
-4.17474e-05
0.00444461
-3.53411e-05
0.00477307
2.92712e-05
0.00408591
0.000167413
0.00213212
0.000392229
-0.00131775
0.000662366
-0.00508255
0.000906802
-0.00808044
0.00107129
-0.00989821
0.00111934
-0.0106527
0.00102172
-0.0106709
0.000836403
-0.0102317
0.000809695
-0.00904177
0.00115259
-0.0064636
0.00178776
-0.00277402
0.00251081
0.00130485
0.00317681
0.00478416
0.00366528
0.00794962
0.0040552
0.0104281
0.00465223
0.011048
0.00566524
0.00836585
0.00694259
0.00216302
0.00812845
-0.00432677
0.00897621
-0.0093823
-0.0121642
0.00941637
-1.2684e-05
0.00340001
-1.75329e-05
0.00444946
6.77249e-06
0.00474877
9.16449e-05
0.00400104
0.000251516
0.00197225
0.000498283
-0.00156452
0.000785012
-0.00536928
0.00103938
-0.00833481
0.00121222
-0.010071
0.00127591
-0.0107164
0.00120294
-0.0105979
0.0010156
-0.0100443
0.000917869
-0.00894405
0.00116467
-0.0067104
0.00174208
-0.00335143
0.00244888
0.000598056
0.0031215
0.00411154
0.00365903
0.00741209
0.0041555
0.00993159
0.00491288
0.0102907
0.00610128
0.00717745
0.00745878
0.000805524
0.00861029
-0.00547828
0.00937895
-0.010151
-0.012511
0.0097258
-2.92843e-06
0.00340294
6.70666e-06
0.00443982
4.92014e-05
0.00470627
0.000154453
0.00389579
0.000337146
0.00178956
0.000606968
-0.00183434
0.000910494
-0.00567281
0.00117437
-0.00859868
0.0013549
-0.0102516
0.00143343
-0.0107949
0.00138932
-0.0105538
0.00121926
-0.00987425
0.00107266
-0.00879745
0.00122049
-0.00685824
0.00172214
-0.00385308
0.00240412
-8.39239e-05
0.00308487
0.00343079
0.00368048
0.00681649
0.00429868
0.00931339
0.00522591
0.00936344
0.00657459
0.00582877
0.00798549
-0.000605374
0.00907791
-0.0065707
0.00974921
-0.0108223
-0.0127672
0.0100054
6.57807e-06
0.00339636
3.08774e-05
0.00441552
9.16566e-05
0.0046455
0.000217468
0.00376997
0.000423887
0.00158314
0.000717711
-0.00212817
0.00103791
-0.00599301
0.0013106
-0.00887137
0.00149802
-0.010439
0.00159003
-0.0108869
0.00157593
-0.0105397
0.00143881
-0.00973713
0.00127084
-0.00862948
0.00132699
-0.00691439
0.00173676
-0.00426284
0.00238237
-0.00072953
0.00307209
0.00274107
0.00373172
0.00615686
0.00448377
0.00856134
0.00559049
0.00825671
0.00707705
0.00434221
0.00850475
-0.00203308
0.00951296
-0.00757892
0.0100738
-0.0113831
-0.0129396
0.0102462
1.57976e-05
0.00338056
5.47384e-05
0.00437658
0.000133837
0.0045664
0.000280305
0.00362351
0.000511336
0.00135211
0.000829908
-0.00244674
0.00116629
-0.00632939
0.0014468
-0.00915188
0.00164017
-0.0106324
0.00174418
-0.0109909
0.00175883
-0.0105544
0.00166509
-0.00964339
0.00150504
-0.00846943
0.00148903
-0.00689838
0.00179841
-0.00457222
0.00239333
-0.00132445
0.00308959
0.00204481
0.00381641
0.00543004
0.00471019
0.00766756
0.00600026
0.00696664
0.00759584
0.00274664
0.00899728
-0.00343453
0.00989776
-0.00847939
0.010342
-0.0118273
-0.0130393
0.0104417
2.46601e-05
0.0033559
7.81414e-05
0.0043231
0.000175434
0.0044691
0.000342587
0.00345635
0.000599117
0.00109558
0.000942929
-0.00279055
0.00129463
-0.00668109
0.00158171
-0.00943895
0.00177993
-0.0108306
0.00189449
-0.0111055
0.00193516
-0.010595
0.00188942
-0.00959766
0.00176389
-0.0083439
0.00170662
-0.00684112
0.0019202
-0.0047858
0.00244998
-0.00185423
0.00314489
0.00134989
0.00394
0.00463494
0.00498087
0.00662669
0.00644739
0.00550012
0.00811115
0.00108288
0.00944281
-0.00476618
0.0102167
-0.00925333
0.0105467
-0.0121572
-0.0130813
0.0105887
3.3082e-05
0.00332282
0.000100915
0.00425527
0.000216132
0.00435389
0.000403961
0.00326853
0.000686892
0.000812646
0.00105613
-0.00315979
0.00142189
-0.00704686
0.00171404
-0.0097311
0.0019159
-0.0110325
0.00203968
-0.0112292
0.0021031
-0.0106584
0.00210468
-0.00959923
0.00203334
-0.00827256
0.00197262
-0.00678041
0.00211127
-0.00492445
0.00256692
-0.00230987
0.00324752
0.000669291
0.00411031
0.00377215
0.0053026
0.00543439
0.00692197
0.00388076
0.00860143
-0.000596584
0.0098214
-0.00598615
0.0104584
-0.00989028
0.0106849
-0.0123838
-0.0130834
0.010687
4.09866e-05
0.00328183
0.000122884
0.00417337
0.000255613
0.00422116
0.000464117
0.00306002
0.000774378
0.000502385
0.00116886
-0.00355427
0.00154704
-0.00742504
0.00184258
-0.0100266
0.00204675
-0.0112366
0.00217846
-0.011361
0.00226157
-0.0107416
0.00230601
-0.00964367
0.00229898
-0.00826553
0.00227217
-0.0067536
0.00237176
-0.00502404
0.00275732
-0.00269543
0.00341108
1.55343e-05
0.00434012
0.00284311
0.00568322
0.0040913
0.0074118
0.00215218
0.00904281
-0.0022276
0.0101156
-0.00705896
0.010616
-0.0103907
0.0107583
-0.0125261
-0.0130646
0.0107396
4.83003e-05
0.00323353
0.000143874
0.0040778
0.000293562
0.00407147
0.000522808
0.00283078
0.000861352
0.00016384
0.00128045
-0.00397336
0.00166905
-0.00781364
0.00196618
-0.0103238
0.0021713
-0.0114417
0.00230965
-0.0114993
0.00240982
-0.0108417
0.00249094
-0.00972478
0.00254866
-0.00832325
0.00258434
-0.00678928
0.00268953
-0.00512923
0.00302771
-0.00303361
0.00365345
-0.000610213
0.00464911
0.00184745
0.00612654
0.00261387
0.00789642
0.000382294
0.00941022
-0.0037414
0.0103127
-0.00796147
0.0106893
-0.0107673
0.0107726
-0.0126093
-0.0130441
0.010752
5.49528e-05
0.00317858
0.000163709
0.00396904
0.000329683
0.00390549
0.000579871
0.00258059
0.000947655
-0.000203943
0.00139025
-0.00441596
0.00178694
-0.00821033
0.00208377
-0.0106206
0.00228852
-0.0116465
0.00243224
-0.011643
0.00254728
-0.0109568
0.00265887
-0.00983638
0.0027745
-0.00843888
0.00288677
-0.00690156
0.00303987
-0.00528233
0.00337104
-0.00336478
0.00398914
-0.00122831
0.00505408
0.000782511
0.00662096
0.00104698
0.00834254
-0.00133929
0.00967884
-0.00507769
0.010407
-0.00868962
0.0106845
-0.0110447
0.010737
-0.0126619
-0.0130384
0.0107313
6.08783e-05
0.0031177
0.00018221
0.00384771
0.000363711
0.00372399
0.000635251
0.00230905
0.00103318
-0.000601876
0.00149759
-0.00488037
0.00189979
-0.00861253
0.00219442
-0.0109152
0.00239758
-0.0118497
0.00254545
-0.0117909
0.00267339
-0.0110847
0.00281019
-0.00997318
0.00297342
-0.00860211
0.00316126
-0.00708939
0.0033902
-0.00551127
0.00376151
-0.00373609
0.00441112
-0.00187792
0.00554271
-0.000349077
0.00712414
-0.000534449
0.00870495
-0.0029201
0.00982927
-0.00620201
0.0104022
-0.00926256
0.0106141
-0.0112566
0.0106631
-0.0127109
-0.0130606
0.0106853
6.60162e-05
0.00305168
0.000199203
0.00371452
0.000395438
0.00352776
0.000689018
0.00201547
0.00111787
-0.00103073
0.00160182
-0.00536431
0.00200675
-0.00901746
0.00229735
-0.0112058
0.00249782
-0.0120501
0.00264874
-0.0119418
0.00278776
-0.0112237
0.00294557
-0.010131
0.00314606
-0.00880261
0.00339782
-0.00734115
0.00370987
-0.00582332
0.00415681
-0.00418302
0.00487531
-0.00259642
0.0060528
-0.00152657
0.00756293
-0.00204458
0.00893938
-0.00429655
0.00985617
-0.00711881
0.0103131
-0.0097195
0.0104954
-0.0114389
0.0105626
-0.0127781
-0.0131191
0.0106211
7.03125e-05
0.00298137
0.00021451
0.00357033
0.00042474
0.00331753
0.000741385
0.00169882
0.00120167
-0.00149102
0.00170226
-0.0058649
0.00210704
-0.00942224
0.00239193
-0.0114907
0.00258877
-0.012247
0.00274182
-0.0120949
0.00289025
-0.0113721
0.0030656
-0.0103063
0.00329475
-0.00903175
0.00359497
-0.00764137
0.00397975
-0.00620811
0.00451221
-0.00471548
0.00530893
-0.00339314
0.00649199
-0.00270963
0.00786485
-0.00341744
0.00902516
-0.00545685
0.00977505
-0.0078687
0.0101635
-0.010108
0.0103465
-0.0116219
0.0104455
-0.0128771
-0.0132177
0.0105442
7.37206e-05
0.00290765
0.000227963
0.00341608
0.000451612
0.00309388
0.000792713
0.00135772
0.00128449
-0.00198279
0.00179826
-0.00637867
0.00220001
-0.00982398
0.00247768
-0.0117684
0.00267016
-0.0124394
0.00282458
-0.0122493
0.00298093
-0.0115285
0.00317089
-0.0104963
0.00342205
-0.00928291
0.00375658
-0.00797591
0.00419515
-0.00664669
0.00479766
-0.00531799
0.00564816
-0.00424364
0.00678924
-0.0038507
0.008001
-0.0046292
0.00897948
-0.00643533
0.00961894
-0.00850816
0.00997983
-0.0104689
0.0101832
-0.0118253
0.0103196
-0.0130134
-0.0133567
0.0104585
7.62023e-05
0.00283145
0.000239411
0.00325287
0.000476197
0.00285709
0.000843497
0.00099042
0.00136616
-0.00250546
0.00188917
-0.00690168
0.00228511
-0.0102199
0.00255431
-0.0120376
0.0027419
-0.012627
0.00289714
-0.0124045
0.00306013
-0.0116915
0.00326212
-0.0106983
0.00353015
-0.00955095
0.00388812
-0.00833388
0.00436126
-0.00711982
0.00500501
-0.00596174
0.00586839
-0.00510701
0.00693384
-0.00491615
0.00799824
-0.00569361
0.00884717
-0.00728425
0.00942491
-0.00908591
0.00978371
-0.0108277
0.0100158
-0.0120574
0.0101894
-0.013187
-0.0135339
0.0103666
7.77284e-05
0.00275372
0.000248731
0.00308187
0.000498815
0.00260701
0.000894336
0.0005949
0.00144641
-0.00305753
0.00197437
-0.00742964
0.00236192
-0.0106075
0.00262167
-0.0122974
0.00280408
-0.0128094
0.00295974
-0.0125602
0.00312831
-0.0118601
0.00334013
-0.0109101
0.00362095
-0.00983177
0.00399444
-0.00870737
0.00448645
-0.00761184
0.00514324
-0.00661853
0.00598512
-0.00594889
0.00696398
-0.00589501
0.007911
-0.00664063
0.00867459
-0.00804785
0.00922055
-0.00963187
0.00958817
-0.0111953
0.00984983
-0.012319
0.0100575
-0.0133947
-0.0137459
0.0102695
7.82797e-05
0.00267544
0.00025586
0.00290429
0.000519974
0.0023429
0.000945873
0.000169001
0.00152484
-0.0036365
0.00205329
-0.00795809
0.00243015
-0.0109843
0.00267977
-0.012547
0.0028569
-0.0129866
0.00301275
-0.0127161
0.00318607
-0.0120334
0.00340586
-0.0111299
0.00369619
-0.0101221
0.0040793
-0.00909048
0.00457871
-0.00811124
0.00522882
-0.00726864
0.00603128
-0.00675135
0.00692873
-0.00679246
0.00778633
-0.00749823
0.00849203
-0.00875355
0.0090202
-0.01016
0.00939891
-0.011574
0.00968743
-0.0126075
0.00992519
-0.0136325
-0.0139889
0.0101682
7.78481e-05
0.00259759
0.000260822
0.00272132
0.000540359
0.00206336
0.000998715
-0.000289354
0.00160089
-0.00423868
0.0021254
-0.0084826
0.00248966
-0.0113486
0.00272876
-0.0127861
0.00290071
-0.0131585
0.00305666
-0.012872
0.00323405
-0.0122108
0.00346028
-0.0113561
0.00375746
-0.0104193
0.00414572
-0.00947874
0.00464474
-0.00861026
0.00527769
-0.00790159
0.00603591
-0.00750957
0.0068627
-0.00761925
0.0076507
-0.00828623
0.00831322
-0.00941607
0.00882899
-0.0106758
0.00921759
-0.0119626
0.00952916
-0.0129191
0.00979291
-0.0138963
-0.0142589
0.0100629
7.64393e-05
0.00252115
0.000263764
0.00253399
0.000560799
0.00176632
0.00105333
-0.000781884
0.00167391
-0.00485926
0.00219029
-0.00899898
0.00254043
-0.0116987
0.0027689
-0.0130145
0.00293593
-0.0133255
0.003092
-0.0130281
0.00327293
-0.0123917
0.00350434
-0.0115875
0.00380625
-0.0107212
0.00419628
-0.00986876
0.00469001
-0.00910399
0.00530148
-0.00851306
0.00601688
-0.00822497
0.00678344
-0.00838581
0.00751502
-0.00901782
0.00814247
-0.0100435
0.00864776
-0.0111811
0.00904415
-0.012359
0.00937489
-0.0132498
0.00966082
-0.0141822
-0.0145521
0.00995403
7.40754e-05
0.00244708
0.000265003
0.00234306
0.000582211
0.00144912
0.00110994
-0.00130961
0.00174314
-0.00549246
0.00224763
-0.00950347
0.00258257
-0.0120337
0.00280057
-0.0132325
0.00296306
-0.013488
0.00311936
-0.0131844
0.00330341
-0.0125757
0.00353895
-0.0118231
0.00384388
-0.0110261
0.0042332
-0.0102581
0.00471872
-0.00958951
0.00530753
-0.00910187
0.00598346
-0.0089009
0.0066984
-0.00910074
0.00738283
-0.00970225
0.00798034
-0.010641
0.00847589
-0.0116766
0.00887792
-0.012761
0.00922422
-0.0135961
0.00952888
-0.0144868
-0.0148649
0.00984176
7.08015e-05
0.00237628
0.000265048
0.00214882
0.000605533
0.00110863
0.00116843
-0.00187251
0.00180784
-0.00613187
0.00229721
-0.00999284
0.0026163
-0.0123528
0.0028242
-0.0134404
0.00298263
-0.0136465
0.00313931
-0.013341
0.00332616
-0.0127626
0.00356496
-0.0120619
0.00387154
-0.0113327
0.00425837
-0.0106449
0.00473396
-0.0100651
0.00530032
-0.00966824
0.00594036
-0.00954093
0.00661067
-0.00977105
0.0072549
-0.0103465
0.00782615
-0.0112123
0.00831229
-0.0121628
0.00871802
-0.0131667
0.00907665
-0.0139548
0.00939693
-0.0148071
-0.0151943
0.00972632
6.6692e-05
0.00230959
0.000264611
0.0019509
0.000631643
0.000741598
0.00122832
-0.00246918
0.0018673
-0.00677085
0.00233896
-0.0104645
0.00264195
-0.0126557
0.00284031
-0.0136388
0.00299521
-0.0138014
0.00315244
-0.0134983
0.0033418
-0.0129519
0.00358313
-0.0123032
0.00389024
-0.0116398
0.00427329
-0.011028
0.00473798
-0.0105298
0.00528269
-0.010213
0.00589018
-0.0101484
0.00652158
-0.0104025
0.00713101
-0.0109559
0.00767884
-0.0117601
0.00815581
-0.0126398
0.0085635
-0.0135744
0.00893163
-0.0143229
0.00926481
-0.0151403
-0.0155374
0.00960786
6.18605e-05
0.00224772
0.000264584
0.00174818
0.000661289
0.000344893
0.00128875
-0.00309665
0.0019209
-0.007403
0.00237294
-0.0109165
0.00265994
-0.0129427
0.00284943
-0.0138283
0.00300136
-0.0139533
0.00315932
-0.0136562
0.00335094
-0.0131436
0.00359414
-0.0125464
0.00390087
-0.0119465
0.00427919
-0.0114063
0.00473246
-0.0109831
0.00525653
-0.010737
0.00583448
-0.0107264
0.0064317
-0.0109997
0.00701062
-0.0115348
0.00753734
-0.0122868
0.00800531
-0.0131077
0.00841343
-0.0139825
0.00878867
-0.0146981
0.00913233
-0.015484
-0.0158915
0.0094865
5.64699e-05
0.00219125
0.000265975
0.00153867
0.000695014
-8.41458e-05
0.00134863
-0.00375026
0.00196817
-0.00802254
0.0023993
-0.0113477
0.00267072
-0.0132142
0.00285211
-0.0140097
0.00300162
-0.0141028
0.00316048
-0.0138151
0.00335411
-0.0133372
0.00359862
-0.0127909
0.0039042
-0.0122521
0.00427708
-0.0117792
0.00471869
-0.0114247
0.00522321
-0.0112415
0.00577426
-0.0112774
0.00634122
-0.0115666
0.00689309
-0.0120867
0.00740067
-0.0127944
0.00785976
-0.0135668
0.00826698
-0.0143898
0.00864733
-0.0150785
0.0089993
-0.0158359
-0.0162546
0.00936231
5.07426e-05
0.00214051
0.000269806
0.00131961
0.000733085
-0.000547424
0.00140669
-0.00442386
0.00200877
-0.00862463
0.00241831
-0.0117572
0.00267482
-0.0134707
0.00284891
-0.0141838
0.00299652
-0.0142504
0.0031564
-0.013975
0.0033518
-0.0135326
0.00359709
-0.0130362
0.00390087
-0.0125559
0.00426777
-0.0121461
0.00469769
-0.0118546
0.00518371
-0.0117276
0.00571018
-0.0118039
0.00625017
-0.0121066
0.0067778
-0.0126143
0.00726793
-0.0132845
0.00771823
-0.0140171
0.00812341
-0.0147949
0.00850723
-0.0154623
0.00886549
-0.0161942
-0.0166244
0.00923533
4.49689e-05
0.00209554
0.000276994
0.00108758
0.000775423
-0.00104585
0.00146173
-0.00511017
0.00204257
-0.00920548
0.00243035
-0.012145
0.00267275
-0.0137131
0.00284036
-0.0143514
0.00298656
-0.0143966
0.00314754
-0.014136
0.00334444
-0.0137295
0.00359002
-0.0132818
0.00389145
-0.0128573
0.00425197
-0.0125066
0.00467026
-0.0122729
0.0051388
-0.0121961
0.00564273
-0.0123078
0.0061585
-0.0126224
0.0066642
-0.01312
0.00713835
-0.0137587
0.00757986
-0.0144586
0.0079821
-0.0151972
0.00836801
-0.0158482
0.00873068
-0.0165569
-0.0169993
0.00910557
3.95117e-05
0.00205603
0.000288235
0.00083886
0.000821546
-0.00157917
0.00151266
-0.00580128
0.00206957
-0.00976239
0.00243583
-0.0125112
0.00266507
-0.0139423
0.00282699
-0.0145133
0.00297219
-0.0145418
0.00313429
-0.0142981
0.00333243
-0.0139276
0.00357785
-0.0135272
0.00387642
-0.0131559
0.00423025
-0.0128604
0.00463706
-0.0126797
0.00508906
-0.0126481
0.00557224
-0.012791
0.0060661
-0.0131162
0.00655183
-0.0136058
0.00701125
-0.0142181
0.00744392
-0.0148913
0.00784253
-0.0155958
0.00822933
-0.016235
0.00859464
-0.0169222
-0.0173777
0.00897303
3.48031e-05
0.00202123
0.00030394
0.000569722
0.000870561
-0.00214579
0.00155866
-0.00648938
0.0020899
-0.0102936
0.00243523
-0.0128566
0.00265229
-0.0141594
0.00280928
-0.0146703
0.00295382
-0.0146863
0.00311703
-0.0144613
0.00331611
-0.0141267
0.00356092
-0.013772
0.0038562
-0.0134512
0.00420311
-0.0132073
0.00459864
-0.0130752
0.00503496
-0.0130844
0.00549898
-0.013255
0.00597286
-0.0135901
0.00644027
-0.0140732
0.00688603
-0.0146639
0.00730979
-0.0153151
0.00770427
-0.0159903
0.00809082
-0.0166216
0.00845717
-0.0172885
-0.0177583
0.00883775
3.13282e-05
0.0019899
0.000324224
0.000276827
0.000921226
-0.00274279
0.00159913
-0.00716728
0.00210381
-0.0107983
0.00242902
-0.0131818
0.00263492
-0.0143653
0.00278767
-0.014823
0.00293183
-0.0148305
0.00309608
-0.0146255
0.00329579
-0.0143264
0.00353957
-0.0140158
0.00383117
-0.0137428
0.00417097
-0.0135471
0.00455545
-0.0134597
0.0049769
-0.0135059
0.00542313
-0.0137013
0.00587868
-0.0140457
0.00632918
-0.0145237
0.00676217
-0.0150968
0.00717693
-0.0157298
0.00756694
-0.0163803
0.00795214
-0.0170068
0.00831808
-0.0176545
-0.0181401
0.00869992
2.95934e-05
0.00196031
0.000348944
-4.25238e-05
0.000972077
-0.00336592
0.00163373
-0.00782893
0.00211162
-0.0112762
0.00241772
-0.0134879
0.00261345
-0.014561
0.00276258
-0.0149722
0.00290656
-0.0149745
0.00307171
-0.0147907
0.00327172
-0.0145264
0.00351407
-0.0142582
0.00380166
-0.0140304
0.00413421
-0.0138797
0.00450788
-0.0138334
0.00491519
-0.0139132
0.00534486
-0.0141309
0.00578345
-0.0144843
0.00621826
-0.0149585
0.0066392
-0.0155178
0.00704491
-0.0161355
0.00743022
-0.0167656
0.00781293
-0.0173895
0.00817723
-0.0180188
-0.0185228
0.00855989
3.00754e-05
0.00193023
0.000377779
-0.000390228
0.0010216
-0.00400975
0.00166232
-0.00846965
0.00211371
-0.0117276
0.0024018
-0.013776
0.00258832
-0.0147475
0.00273436
-0.0151182
0.00287829
-0.0151184
0.00304418
-0.0149566
0.00324416
-0.0147264
0.0034847
-0.0144987
0.00376796
-0.0143136
0.00409317
-0.0142049
0.00445628
-0.0141965
0.0048501
-0.014307
0.00526427
-0.0145451
0.00568709
-0.0149071
0.00610725
-0.0153786
0.00651674
-0.0159273
0.00691336
-0.0165321
0.00729384
-0.0171461
0.00767288
-0.0177685
0.00803457
-0.0183805
-0.0189063
0.00841813
3.31597e-05
0.00189707
0.000410292
-0.00076736
0.00106848
-0.00466794
0.00168498
-0.00908615
0.00211051
-0.0121531
0.00238174
-0.0140472
0.00255995
-0.0149257
0.00270334
-0.0152616
0.00284728
-0.0152623
0.00301371
-0.015123
0.00321331
-0.014926
0.00345167
-0.0147371
0.00373033
-0.0145923
0.00404814
-0.0145227
0.00440092
-0.0145493
0.00478186
-0.014688
0.00518148
-0.0149447
0.00558951
-0.0153151
0.00599594
-0.0157851
0.00639442
-0.0163258
0.00678201
-0.0169197
0.00715752
-0.0175216
0.00753178
-0.0181428
0.00789041
-0.0187391
-0.0192906
0.00827468
3.90769e-05
0.00185799
0.00044595
-0.00117423
0.00111164
-0.00533362
0.00170188
-0.00967639
0.00210245
-0.0125537
0.00235798
-0.0143027
0.00252869
-0.0150965
0.00266982
-0.0154027
0.00281377
-0.0154063
0.0029805
-0.0152897
0.00317937
-0.0151249
0.00341521
-0.0149729
0.00368903
-0.0148661
0.00399937
-0.014833
0.00434208
-0.014892
0.00471068
-0.0150566
0.00509654
-0.0153306
0.00549065
-0.0157092
0.00588415
-0.0161786
0.00627195
-0.0167136
0.00665063
-0.0172984
0.00702095
-0.0178919
0.00738942
-0.0185113
0.00774545
-0.0190951
-0.0196748
0.00812969
4.78543e-05
0.00181014
0.000484127
-0.00161051
0.00115035
-0.00599985
0.00171331
-0.0102393
0.00208997
-0.0129304
0.00233092
-0.0145437
0.00249488
-0.0152604
0.00263405
-0.0155419
0.00277795
-0.0155502
0.00294471
-0.0154565
0.00314251
-0.0153227
0.00337551
-0.0152059
0.00364426
-0.0151348
0.00394711
-0.0151359
0.00427996
-0.0152248
0.00463671
-0.0154133
0.00500954
-0.0157034
0.00539045
-0.0160901
0.0057717
-0.0165598
0.00614907
-0.0170909
0.00651904
-0.0176684
0.00688375
-0.0182566
0.00724565
-0.0188732
0.00760088
-0.0194503
-0.0200528
0.00797881
5.93007e-05
0.00175084
0.000524065
-0.00207527
0.00118421
-0.00665999
0.00171955
-0.0107747
0.00207342
-0.0132842
0.00230089
-0.0147711
0.00245876
-0.0154183
0.00259616
-0.0156793
0.0027399
-0.0156939
0.0029064
-0.015623
0.00310278
-0.0155191
0.00333262
-0.0154357
0.0035961
-0.0153983
0.00389145
-0.0154312
0.00421463
-0.015548
0.00455997
-0.0157586
0.00492036
-0.0160638
0.00528871
-0.0164585
0.00565825
-0.0169294
0.00602541
-0.0174581
0.00638686
-0.0180298
0.00674536
-0.0186151
0.00710015
-0.019228
0.00745341
-0.0198036
-0.020429
0.00782969
7.30313e-05
0.00167781
0.00056489
-0.00256713
0.00121307
-0.00730817
0.00172102
-0.0112826
0.00205332
-0.0136165
0.00226835
-0.0149862
0.00242071
-0.0155707
0.00255651
-0.0158151
0.00269995
-0.0158374
0.00286591
-0.015789
0.00306054
-0.0157137
0.00328694
-0.0156621
0.00354498
-0.0156564
0.00383282
-0.0157191
0.00414655
-0.0158617
0.00448088
-0.016093
0.00482938
-0.0164123
0.00518573
-0.0168148
0.00554405
-0.0172877
0.00590121
-0.0178152
0.00625429
-0.0183829
0.00660599
-0.0189668
0.00695449
-0.0195765
0.00730737
-0.0201565
-0.0207899
0.00766827
8.8533e-05
0.00158928
0.000605616
-0.00308421
0.00123697
-0.00793953
0.00171807
-0.0117637
0.00202999
-0.0139284
0.00223354
-0.0151897
0.00238091
-0.015718
0.00251519
-0.0159494
0.00265815
-0.0159803
0.00282326
-0.0159541
0.00301582
-0.0159062
0.0032385
-0.0158848
0.00349095
-0.0159088
0.00377128
-0.0159994
0.00407574
-0.0161662
0.00439941
-0.0164166
0.00473649
-0.0167494
0.00508132
-0.0171597
0.0054288
-0.0176352
0.00577615
-0.0181626
0.0061209
-0.0187277
0.00646545
-0.0193114
0.00680806
-0.0199191
0.00715708
-0.0205055
-0.0211422
0.00750934
0.000105253
0.00148402
0.000645236
-0.00362419
0.00125603
-0.00855032
0.00171105
-0.0122188
0.00200377
-0.0142212
0.00219674
-0.0153827
0.00233954
-0.0158608
0.00247233
-0.0160822
0.00261461
-0.0161226
0.00277857
-0.016118
0.00296874
-0.0160964
0.00318746
-0.0161035
0.00343417
-0.0161555
0.00370699
-0.0162722
0.00400234
-0.0164615
0.00431566
-0.01673
0.00464172
-0.0170754
0.00497545
-0.0174934
0.00531242
-0.0179721
0.00565013
-0.0185003
0.00598655
-0.0190641
0.00632372
-0.0196485
0.00666016
-0.0202555
0.00700384
-0.0208492
-0.0214878
0.00734944
0.000122689
0.00136133
0.000682814
-0.00418432
0.00127045
-0.00913796
0.00170031
-0.0126486
0.001975
-0.0144958
0.0021582
-0.0155659
0.00229678
-0.0159994
0.00242807
-0.0162135
0.00256943
-0.016264
0.00273192
-0.0162805
0.00291941
-0.0162839
0.00313393
-0.016318
0.00337478
-0.0163964
0.0036401
-0.0165375
0.00392649
-0.0167479
0.00422975
-0.0170332
0.00454513
-0.0173908
0.00486812
-0.0178164
0.00519483
-0.0182988
0.00552306
-0.0188285
0.00585111
-0.0193921
0.00618068
-0.0199781
0.00651079
-0.0205856
0.00684793
-0.0211863
-0.0218271
0.00718717
0.000140464
0.00122087
0.000717557
-0.00476141
0.00128048
-0.00970088
0.00168618
-0.0130543
0.00194396
-0.0147536
0.00211813
-0.0157401
0.00225277
-0.016134
0.0023825
-0.0163432
0.00252271
-0.0164042
0.00268343
-0.0164412
0.00286795
-0.0164684
0.00307805
-0.0165281
0.00331291
-0.0166313
0.00357074
-0.0167954
0.0038483
-0.0170255
0.00414174
-0.0173267
0.00444676
-0.0176958
0.0047593
-0.0181289
0.005076
-0.0186155
0.00539486
-0.0191474
0.00571449
-0.0197118
0.00603635
-0.0203
0.00635959
-0.0209088
0.00668979
-0.0215165
-0.0221601
0.00702281
0.000158364
0.00106251
0.000748917
-0.00535197
0.00128641
-0.0102384
0.00166897
-0.0134369
0.00191091
-0.0149956
0.00207671
-0.0159059
0.00220765
-0.016265
0.00233571
-0.0164713
0.00247452
-0.016543
0.00263317
-0.0165999
0.00281444
-0.0166497
0.00301992
-0.0167336
0.0032487
-0.01686
0.00349904
-0.0170457
0.0037679
-0.0172944
0.00405173
-0.0176105
0.00434664
-0.0179908
0.004649
-0.0184313
0.00495588
-0.0189224
0.00526546
-0.019457
0.00557664
-0.0200229
0.00589057
-0.0206139
0.00620669
-0.021225
0.00652959
-0.0218394
-0.0224862
0.00685576
0.000176336
0.00088617
0.000776552
-0.00595218
0.00128853
-0.0107504
0.00164898
-0.0137973
0.0018761
-0.0152227
0.00203412
-0.0160639
0.00216152
-0.0163924
0.0022878
-0.0165975
0.00242494
-0.0166801
0.00258123
-0.0167562
0.002759
-0.0168275
0.00295967
-0.0169343
0.00318226
-0.0170826
0.00342512
-0.0172886
0.00368537
-0.0175546
0.00395978
-0.0178849
0.00424482
-0.0182758
0.00453723
-0.0187237
0.00483444
-0.0192196
0.00513481
-0.0197574
0.00543747
-0.0203256
0.00574337
-0.0209198
0.006052
-0.0215336
0.00636728
-0.0221547
-0.0228053
0.00668637
0.00019446
0.00069171
0.00080034
-0.00655806
0.00128713
-0.0112371
0.00162647
-0.0141367
0.00183974
-0.015436
0.00199049
-0.0162146
0.00211447
-0.0165164
0.00223882
-0.0167219
0.00237403
-0.0168153
0.00252769
-0.0169098
0.00270171
-0.0170015
0.00289739
-0.01713
0.0031137
-0.0172989
0.00334908
-0.0175239
0.00360083
-0.0178064
0.00386598
-0.01815
0.00414133
-0.0185511
0.00442398
-0.0190063
0.00471165
-0.0195073
0.00500288
-0.0200486
0.00529697
-0.0206197
0.00559466
-0.0212175
0.00589556
-0.0218345
0.00620302
-0.0224622
-0.0231168
0.00651452
0.000212893
0.000478817
0.000820313
-0.00716548
0.0012825
-0.0116993
0.00160171
-0.0144559
0.00180201
-0.0156363
0.00194595
-0.0163586
0.00206659
-0.016637
0.00218884
-0.0168441
0.00232187
-0.0169484
0.00247261
-0.0170606
0.00264266
-0.0171715
0.00283319
-0.0173205
0.00304313
-0.0175089
0.00327104
-0.0177518
0.00351436
-0.0180497
0.0037704
-0.0184061
0.00403623
-0.018817
0.00430927
-0.0192794
0.00458751
-0.0197855
0.00486964
-0.0203307
0.00515509
-0.0209051
0.00544444
-0.0215068
0.00573738
-0.0221274
0.00603673
-0.0227615
-0.0234205
0.0063404
0.000231809
0.000247008
0.000836614
-0.00777029
0.00127493
-0.0121377
0.00157492
-0.0147559
0.00176308
-0.0158244
0.00190061
-0.0164961
0.00201794
-0.0167543
0.00213791
-0.0169641
0.0022685
-0.017079
0.00241607
-0.0172082
0.00258192
-0.0173374
0.00276714
-0.0175057
0.00297065
-0.0177124
0.00319108
-0.0179723
0.00342604
-0.0182847
0.00367308
-0.0186531
0.00392955
-0.0190734
0.00419312
-0.019543
0.00446202
-0.0200544
0.00473506
-0.0206037
0.00501182
-0.0211819
0.0052927
-0.0217877
0.00557745
-0.0224122
0.00586852
-0.0230526
-0.023716
0.00616404
0.000251345
-4.33679e-06
0.000849448
-0.00836839
0.00126467
-0.0125529
0.00154632
-0.0150375
0.00172311
-0.0160012
0.00185456
-0.0166276
0.00196858
-0.0168683
0.00208608
-0.0170816
0.00221397
-0.0172068
0.00235814
-0.0173523
0.00251959
-0.0174988
0.00269936
-0.0176855
0.00289634
-0.0179094
0.00310929
-0.0181852
0.00333596
-0.0185113
0.00357411
-0.0188913
0.00382133
-0.0193206
0.00407554
-0.0197972
0.00433517
-0.0203141
0.00459915
-0.0208677
0.00486716
-0.0214499
0.00513943
-0.02206
0.00541583
-0.0226886
0.00569838
-0.0233351
-0.0240032
0.00598554
0.000271549
-0.000275886
0.00085904
-0.00895588
0.00125197
-0.0129458
0.0015161
-0.0153016
0.00168222
-0.0161673
0.00180787
-0.0167532