/*--------------------------------*- C++ -*----------------------------------*\
  =========                 |
  \\      /  F ield         | OpenFOAM: The Open Source CFD Toolbox
   \\    /   O peration     | Website:  https://openfoam.org
    \\  /    A nd           | Version:  7
     \\/     M anipulation  |
\*---------------------------------------------------------------------------*/
FoamFile
{
    version     2.0;
    format      ascii;
    class       volVectorField;
    location    "19.5";
    object      U;
}
// * * * * * * * * * * * * * * * * * * * * * * * * * * * * * * * * * * * * * //

dimensions      [0 1 -1 0 0 0 0];

internalField   nonuniform List<vector> 
2413
(
(2.05554 -0.0708836 0)
(2.05918 -0.0753152 0)
(2.06202 -0.0775632 0)
(2.06426 -0.0808021 0)
(2.06376 -0.0817477 0)
(2.06189 -0.0808363 0)
(2.05742 -0.0788359 0)
(2.04892 -0.0730631 0)
(2.05109 -0.0614457 0)
(2.05316 -0.0629727 0)
(2.05734 -0.0684795 0)
(2.06066 -0.0725387 0)
(2.06315 -0.0758869 0)
(2.06229 -0.0761777 0)
(2.06066 -0.0751499 0)
(2.05719 -0.0740189 0)
(2.04671 -0.0517679 0)
(2.04941 -0.0547399 0)
(2.05234 -0.0590352 0)
(2.05462 -0.0614182 0)
(2.05762 -0.0644448 0)
(2.06137 -0.0692571 0)
(2.06124 -0.0715495 0)
(2.0597 -0.0709175 0)
(2.04341 -0.0447707 0)
(2.04519 -0.0454218 0)
(2.04767 -0.0487624 0)
(2.05036 -0.0532612 0)
(2.05345 -0.0570063 0)
(2.05605 -0.05893 0)
(2.05758 -0.0613581 0)
(2.05919 -0.0649169 0)
(2.03933 -0.0361652 0)
(2.04139 -0.0375985 0)
(2.04444 -0.0414727 0)
(2.0464 -0.045467 0)
(2.04791 -0.0463634 0)
(2.05077 -0.0492742 0)
(2.05475 -0.056145 0)
(2.057 -0.0583431 0)
(2.03596 -0.0290778 0)
(2.03767 -0.0295376 0)
(2.03943 -0.0311601 0)
(2.04185 -0.0355288 0)
(2.04387 -0.0389776 0)
(2.04621 -0.0406581 0)
(2.04951 -0.04497 0)
(2.05216 -0.0491974 0)
(2.0327 -0.0217959 0)
(2.03435 -0.0231213 0)
(2.03659 -0.0251374 0)
(2.03872 -0.0289105 0)
(2.04006 -0.0312839 0)
(2.04159 -0.0318525 0)
(2.04402 -0.0343552 0)
(2.04694 -0.0389342 0)
(2.02848 -0.0130956 0)
(2.03015 -0.0148621 0)
(2.03222 -0.0164484 0)
(2.03486 -0.0202361 0)
(2.03667 -0.0234678 0)
(2.03876 -0.0259614 0)
(2.04106 -0.0281727 0)
(2.04329 -0.0311034 0)
(2.02535 -0.00645604 0)
(2.02696 -0.00843065 0)
(2.02868 -0.00909111 0)
(2.03118 -0.012098 0)
(2.03309 -0.0153589 0)
(2.03454 -0.0160705 0)
(2.03639 -0.0176634 0)
(2.0391 -0.0211175 0)
(2.02119 0.00253934 0)
(2.02309 -0.000200774 0)
(2.02518 -0.00181387 0)
(2.02783 -0.004779 0)
(2.0301 -0.00807996 0)
(2.03199 -0.00964242 0)
(2.03384 -0.0107407 0)
(2.03613 -0.0131415 0)
(2.01766 0.0102182 0)
(2.01962 0.00759194 0)
(2.0213 0.00707563 0)
(2.02392 0.0045209 0)
(2.02657 0.00111812 0)
(2.02882 -0.000539398 0)
(2.03101 -0.0019553 0)
(2.03334 -0.00399976 0)
(2.01449 0.0186948 0)
(2.01676 0.0157746 0)
(2.01887 0.0150863 0)
(2.02135 0.013131 0)
(2.02402 0.0101481 0)
(2.0264 0.00909622 0)
(2.02897 0.00803301 0)
(2.03153 0.00676113 0)
(2.0114 0.0286917 0)
(2.01362 0.0262555 0)
(2.01592 0.0256096 0)
(2.0187 0.0237791 0)
(2.02155 0.0211443 0)
(2.02389 0.0195284 0)
(2.02677 0.0192594 0)
(2.0298 0.0178129 0)
(2.00885 0.0381512 0)
(2.01117 0.0351795 0)
(2.01356 0.0348514 0)
(2.0164 0.0331929 0)
(2.01931 0.0300157 0)
(2.02112 0.0278937 0)
(2.02363 0.0272353 0)
(2.02663 0.024924 0)
(2.00573 0.0462074 0)
(2.00793 0.042246 0)
(2.01013 0.0418642 0)
(2.01283 0.0399744 0)
(2.01619 0.0349857 0)
(2.01802 0.0322942 0)
(2.02001 0.0310779 0)
(2.02245 0.0276546 0)
(2.00223 0.0513758 0)
(2.00451 0.0462099 0)
(2.0063 0.04511 0)
(2.00936 0.0420726 0)
(2.01264 0.0362687 0)
(2.01442 0.0335801 0)
(2.01621 0.0326686 0)
(2.01803 0.0298461 0)
(1.99876 0.0526683 0)
(2.00078 0.0476189 0)
(2.00214 0.0467771 0)
(2.0042 0.0438298 0)
(2.00709 0.0364448 0)
(2.00819 0.0310826 0)
(2.00967 0.0280546 0)
(2.01173 0.0234372 0)
(1.99373 0.0485338 0)
(1.99565 0.0423083 0)
(1.99693 0.040884 0)
(1.99873 0.0381405 0)
(2.00057 0.0315543 0)
(2.00099 0.0268892 0)
(2.00164 0.023878 0)
(2.00293 0.0185055 0)
(1.98602 0.0476344 0)
(1.98764 0.0403131 0)
(1.9884 0.0375703 0)
(1.99018 0.0332219 0)
(1.9925 0.0241339 0)
(1.993 0.0169649 0)
(1.99343 0.0124722 0)
(1.99439 0.00633168 0)
(1.99598 -0.0391294 0)
(1.99705 -0.0387633 0)
(1.99805 -0.038552 0)
(1.99861 -0.0384548 0)
(1.99907 -0.0384636 0)
(1.99942 -0.0385371 0)
(1.99944 -0.038617 0)
(1.99903 -0.0386501 0)
(1.99815 -0.0388964 0)
(1.99652 -0.0388376 0)
(1.99363 -0.0380717 0)
(1.98875 -0.0373621 0)
(1.98122 -0.037413 0)
(1.97154 -0.0365838 0)
(1.96244 -0.035039 0)
(1.95679 -0.0341382 0)
(1.95473 -0.0341025 0)
(1.95373 -0.0331712 0)
(1.95249 -0.0310192 0)
(1.95016 -0.0262889 0)
(1.94627 -0.0175367 0)
(1.94063 -0.00414891 0)
(1.93199 0.0163698 0)
(1.92275 0.0418846 0)
(1.91303 0.0668029 0)
(1.8991 0.0993659 0)
(1.89353 0.118208 0)
(1.87578 0.15191 0)
(1.86809 0.171244 0)
(1.86829 0.170259 0)
(1.86491 0.177015 0)
(1.86067 0.188451 0)
(1.85608 0.194104 0)
(1.85653 0.193599 0)
(1.85982 0.191104 0)
(1.86182 0.187016 0)
(1.86365 0.185802 0)
(1.86664 0.184797 0)
(1.87001 0.181205 0)
(1.87332 0.176316 0)
(1.87689 0.171394 0)
(1.88086 0.166066 0)
(1.88579 0.159028 0)
(1.89151 0.151179 0)
(1.8964 0.144422 0)
(1.90167 0.136341 0)
(1.90577 0.130647 0)
(1.90815 0.129089 0)
(1.90996 0.126429 0)
(1.91501 0.119875 0)
(1.9211 0.111635 0)
(1.92504 0.10676 0)
(1.92823 0.104311 0)
(1.93162 0.100102 0)
(1.93453 0.0974223 0)
(1.93749 0.0949424 0)
(1.9427 0.0877933 0)
(2.03182 -0.0560088 0)
(2.00993 -0.032001 0)
(1.98952 -0.0247377 0)
(1.96496 -0.00365002 0)
(1.94953 0.0157272 0)
(1.94297 0.0219999 0)
(1.94165 0.0196327 0)
(1.94227 0.0165761 0)
(1.94284 0.0143183 0)
(1.94326 0.0132236 0)
(1.94341 0.0143881 0)
(1.94316 0.0155901 0)
(1.94395 0.0149493 0)
(1.94542 0.0140063 0)
(1.94651 0.0124082 0)
(1.94747 0.0113137 0)
(1.94824 0.0107213 0)
(1.94846 0.0105574 0)
(1.94828 0.0108561 0)
(1.94883 0.011635 0)
(1.94973 0.0122371 0)
(1.95064 0.0126953 0)
(1.95165 0.0129791 0)
(1.95281 0.0126639 0)
(1.95379 0.0118511 0)
(1.95459 0.0117344 0)
(1.95519 0.0126557 0)
(1.95565 0.0123642 0)
(1.95601 0.0113841 0)
(1.95647 0.0115033 0)
(1.95765 0.0107178 0)
(1.95967 0.00865658 0)
(1.96132 0.00764113 0)
(1.96299 0.00702471 0)
(1.9654 0.00512677 0)
(1.96709 0.00267855 0)
(1.96836 0.00193867 0)
(1.96971 0.00085826 0)
(1.97121 -0.00116334 0)
(1.97252 -0.00214611 0)
(1.97371 -0.00246097 0)
(1.97518 -0.00334811 0)
(1.97752 -0.00571899 0)
(1.97973 -0.00853949 0)
(1.98146 -0.00960704 0)
(1.98372 -0.0112652 0)
(1.98623 -0.0149717 0)
(1.98758 -0.0171818 0)
(1.98869 -0.0170217 0)
(1.99005 -0.0189748 0)
(1.99094 -0.0224705 0)
(1.9914 -0.0232772 0)
(1.99165 -0.0230276 0)
(1.99222 -0.0248177 0)
(1.99257 -0.02767 0)
(1.99258 -0.0288049 0)
(1.99229 -0.028434 0)
(1.99231 -0.0304649 0)
(1.99248 -0.0336509 0)
(1.99244 -0.035033 0)
(1.99284 -0.0359952 0)
(1.99394 -0.0364243 0)
(1.99483 -0.0367789 0)
(1.99583 -0.0370811 0)
(1.99723 -0.0370543 0)
(1.99828 -0.0367748 0)
(1.99897 -0.036677 0)
(1.99957 -0.036862 0)
(1.99963 -0.0369427 0)
(1.99947 -0.0368352 0)
(1.99892 -0.0368704 0)
(1.99794 -0.0374401 0)
(1.99659 -0.0380731 0)
(1.99418 -0.0377995 0)
(1.98989 -0.0371083 0)
(1.98301 -0.0371998 0)
(1.97352 -0.0359887 0)
(1.96363 -0.0342121 0)
(1.95738 -0.0340892 0)
(1.95529 -0.0338285 0)
(1.95469 -0.033646 0)
(1.95449 -0.0337275 0)
(1.95448 -0.0338385 0)
(1.95454 -0.0337048 0)
(1.9545 -0.0329005 0)
(1.95406 -0.0300297 0)
(1.9527 -0.0236106 0)
(1.94958 -0.0132371 0)
(1.9426 0.00382717 0)
(1.9336 0.0263171 0)
(1.92182 0.0522742 0)
(1.90682 0.0845093 0)
(1.89876 0.106389 0)
(1.87957 0.14263 0)
(1.87292 0.158932 0)
(1.87452 0.160037 0)
(1.86846 0.169561 0)
(1.86365 0.184023 0)
(1.85994 0.188208 0)
(1.86092 0.187243 0)
(1.86478 0.183883 0)
(1.86666 0.180296 0)
(1.86868 0.179588 0)
(1.87151 0.178739 0)
(1.87451 0.175398 0)
(1.87755 0.170874 0)
(1.88085 0.166616 0)
(1.88499 0.161407 0)
(1.89038 0.153852 0)
(1.89546 0.1466 0)
(1.90047 0.139647 0)
(1.90567 0.131024 0)
(1.90962 0.126057 0)
(1.91194 0.124865 0)
(1.91406 0.121838 0)
(1.91889 0.115726 0)
(1.92518 0.107888 0)
(1.92936 0.102266 0)
(1.93258 0.0993058 0)
(1.93615 0.095457 0)
(2.04991 -0.0674241 0)
(2.03918 -0.0576378 0)
(2.02165 -0.0451947 0)
(1.99616 -0.0238886 0)
(1.96951 0.00797504 0)
(1.95592 0.0195093 0)
(1.94956 0.0180064 0)
(1.94317 0.0230617 0)
(1.94244 0.0253382 0)
(1.94126 0.0260645 0)
(1.9406 0.0271602 0)
(1.94089 0.0262856 0)
(1.94324 0.0236689 0)
(1.94561 0.0208275 0)
(1.94683 0.0187288 0)
(1.94757 0.0184671 0)
(1.94793 0.0192736 0)
(1.9481 0.0194617 0)
(1.94819 0.0193479 0)
(1.94846 0.0199459 0)
(1.94894 0.0206612 0)
(1.94976 0.0211958 0)
(1.95074 0.0217083 0)
(1.95187 0.0215075 0)
(1.95301 0.020527 0)
(1.95382 0.020022 0)
(1.95469 0.01994 0)
(1.95554 0.0189449 0)
(1.95579 0.0177707 0)
(1.95599 0.0179134 0)
(1.9567 0.0176529 0)
(1.95762 0.0171152 0)
(1.95868 0.0176577 0)
(1.95937 0.0186061 0)
(1.96083 0.0172323 0)
(1.96277 0.0145399 0)
(1.96414 0.0132784 0)
(1.96652 0.0109376 0)
(1.9688 0.00773899 0)
(1.97055 0.00654117 0)
(1.97224 0.00585571 0)
(1.97419 0.00394445 0)
(1.97612 0.00216437 0)
(1.97791 0.000730437 0)
(1.9794 -7.84161e-05 0)
(1.98119 -0.00141499 0)
(1.98339 -0.00473584 0)
(1.98464 -0.00695479 0)
(1.98553 -0.00709279 0)
(1.98702 -0.00972724 0)
(1.988 -0.0141561 0)
(1.98837 -0.0153377 0)
(1.98889 -0.0162659 0)
(1.99006 -0.0198973 0)
(1.99056 -0.0233821 0)
(1.9908 -0.0251436 0)
(1.99085 -0.025295 0)
(1.99095 -0.0268534 0)
(1.99102 -0.0296766 0)
(1.99123 -0.0306141 0)
(1.99178 -0.0311521 0)
(1.99319 -0.0315224 0)
(1.9943 -0.0321278 0)
(1.99534 -0.0330968 0)
(1.99671 -0.0331491 0)
(1.99803 -0.0334216 0)
(1.99899 -0.0342989 0)
(1.99965 -0.0349043 0)
(1.99982 -0.0351473 0)
(1.99931 -0.0351752 0)
(1.99882 -0.0350777 0)
(1.99769 -0.0352395 0)
(1.99614 -0.0356522 0)
(1.99387 -0.035625 0)
(1.99016 -0.0352556 0)
(1.9841 -0.0355923 0)
(1.97528 -0.0351854 0)
(1.96524 -0.0328918 0)
(1.95838 -0.0325017 0)
(1.95581 -0.0333915 0)
(1.95507 -0.0338066 0)
(1.95482 -0.0341507 0)
(1.95475 -0.0341282 0)
(1.95485 -0.0341618 0)
(1.95549 -0.0349217 0)
(1.95665 -0.0352225 0)
(1.95849 -0.0349541 0)
(1.9604 -0.0347299 0)
(1.96029 -0.033426 0)
(1.95923 -0.0292326 0)
(1.95609 -0.0208901 0)
(1.94921 -0.00593951 0)
(1.93998 0.0142879 0)
(1.92724 0.0403068 0)
(1.91287 0.0716717 0)
(1.90388 0.0957803 0)
(1.88506 0.132764 0)
(1.87967 0.146178 0)
(1.88142 0.150499 0)
(1.8724 0.162663 0)
(1.86763 0.179082 0)
(1.86449 0.181302 0)
(1.86613 0.179495 0)
(1.87057 0.175828 0)
(1.87202 0.17366 0)
(1.87414 0.173288 0)
(1.87666 0.17261 0)
(1.87918 0.169657 0)
(1.88188 0.165504 0)
(1.885 0.16171 0)
(1.88918 0.156706 0)
(1.89494 0.148711 0)
(1.89963 0.142253 0)
(1.90469 0.13559 0)
(1.90994 0.126698 0)
(1.91373 0.122189 0)
(1.91622 0.121252 0)
(1.91839 0.118037 0)
(1.92323 0.111819 0)
(1.92969 0.104072 0)
(2.05692 -0.0693906 0)
(2.05285 -0.0653898 0)
(2.04563 -0.0610083 0)
(2.02811 -0.0461583 0)
(2.00378 -0.0177851 0)
(1.99072 -0.00964282 0)
(1.96688 0.0151109 0)
(1.95216 0.0305838 0)
(1.94434 0.0305393 0)
(1.94056 0.0359716 0)
(1.93997 0.0372642 0)
(1.9399 0.0362641 0)
(1.94066 0.0348598 0)
(1.9422 0.0335464 0)
(1.94351 0.0324111 0)
(1.94501 0.0306049 0)
(1.94692 0.0284679 0)
(1.94819 0.0268221 0)
(1.94862 0.026075 0)
(1.94872 0.0263974 0)
(1.949 0.0275732 0)
(1.94953 0.0290705 0)
(1.95026 0.0305265 0)
(1.95092 0.0314571 0)
(1.95148 0.0311805 0)
(1.95175 0.0307058 0)
(1.95184 0.0307923 0)
(1.95264 0.0295103 0)
(1.9541 0.0274944 0)
(1.95512 0.02645 0)
(1.95651 0.0253691 0)
(1.95763 0.0238888 0)
(1.9586 0.0235048 0)
(1.95955 0.0237784 0)
(1.96063 0.022541 0)
(1.96145 0.021481 0)
(1.9622 0.0219713 0)
(1.9635 0.021177 0)
(1.96554 0.0185142 0)
(1.9672 0.0175668 0)
(1.96886 0.0169677 0)
(1.9715 0.0143542 0)
(1.97357 0.0120356 0)
(1.97537 0.0107585 0)
(1.97712 0.00900465 0)
(1.97894 0.00695262 0)
(1.98074 0.00414523 0)
(1.98166 0.00185705 0)
(1.98235 0.00141071 0)
(1.9834 -0.000449586 0)
(1.98402 -0.00481817 0)
(1.98391 -0.00642903 0)
(1.98385 -0.00669294 0)
(1.98511 -0.0106739 0)
(1.98581 -0.0146747 0)
(1.98643 -0.0165376 0)
(1.98755 -0.0181935 0)
(1.98879 -0.020803 0)
(1.98949 -0.0240918 0)
(1.99009 -0.0253799 0)
(1.99104 -0.0251347 0)
(1.99214 -0.0256307 0)
(1.99364 -0.0266404 0)
(1.99458 -0.0278319 0)
(1.99578 -0.0278474 0)
(1.99674 -0.0280357 0)
(1.99801 -0.0294024 0)
(1.99875 -0.0308932 0)
(1.99927 -0.0315065 0)
(1.99878 -0.0323014 0)
(1.99812 -0.0328153 0)
(1.99726 -0.0331826 0)
(1.99581 -0.0340929 0)
(1.99391 -0.0346118 0)
(1.99082 -0.0344899 0)
(1.98545 -0.0342662 0)
(1.97715 -0.0338058 0)
(1.96697 -0.0315792 0)
(1.95884 -0.030249 0)
(1.95529 -0.0311502 0)
(1.95455 -0.0320031 0)
(1.95435 -0.0326834 0)
(1.95429 -0.0330603 0)
(1.95437 -0.0332207 0)
(1.95514 -0.0342686 0)
(1.95624 -0.0354742 0)
(1.95811 -0.0351613 0)
(1.96006 -0.0353983 0)
(1.96184 -0.0372651 0)
(1.9631 -0.037533 0)
(1.96437 -0.0375793 0)
(1.96409 -0.036698 0)
(1.96286 -0.0337461 0)
(1.95974 -0.02677 0)
(1.95361 -0.0133753 0)
(1.94534 0.00486342 0)
(1.93307 0.0301425 0)
(1.91967 0.0600449 0)
(1.90928 0.0862211 0)
(1.89131 0.122571 0)
(1.88716 0.133677 0)
(1.88752 0.141345 0)
(1.87633 0.157039 0)
(1.87233 0.173993 0)
(1.86956 0.174386 0)
(1.87237 0.17129 0)
(1.87666 0.168377 0)
(1.87775 0.167407 0)
(1.87952 0.167193 0)
(1.88155 0.166785 0)
(1.88367 0.164336 0)
(1.88614 0.160856 0)
(1.88938 0.157531 0)
(1.89387 0.152597 0)
(1.89957 0.144721 0)
(1.90402 0.138724 0)
(1.90921 0.132179 0)
(1.91445 0.123303 0)
(1.91812 0.119436 0)
(1.92064 0.118468 0)
(2.05855 -0.0648882 0)
(2.05701 -0.0643508 0)
(2.05461 -0.0636697 0)
(2.04773 -0.0569191 0)
(2.03688 -0.0454932 0)
(2.02331 -0.0342076 0)
(1.99587 -0.00313683 0)
(1.97563 0.0156864 0)
(1.9632 0.0217166 0)
(1.95107 0.0337773 0)
(1.94266 0.0422501 0)
(1.93909 0.0464275 0)
(1.93958 0.045971 0)
(1.94036 0.0451079 0)
(1.94195 0.0428677 0)
(1.94333 0.0403349 0)
(1.94436 0.0398461 0)
(1.94495 0.0405584 0)
(1.94551 0.0401535 0)
(1.94617 0.0391918 0)
(1.94755 0.0380788 0)
(1.94943 0.0372474 0)
(1.9509 0.0368205 0)
(1.95184 0.0364352 0)
(1.95225 0.0358332 0)
(1.95218 0.0358799 0)
(1.95212 0.0375679 0)
(1.95214 0.0385209 0)
(1.95225 0.0386568 0)
(1.95239 0.0392809 0)
(1.95236 0.0392226 0)
(1.95377 0.037205 0)
(1.95486 0.0359114 0)
(1.95643 0.0346099 0)
(1.9588 0.032057 0)
(1.96023 0.0298137 0)
(1.96144 0.0292661 0)
(1.96307 0.0278886 0)
(1.9645 0.0258529 0)
(1.96571 0.025757 0)
(1.96694 0.0259079 0)
(1.96888 0.0238576 0)
(1.97028 0.0224369 0)
(1.97124 0.0221543 0)
(1.97287 0.0196349 0)
(1.97454 0.0167699 0)
(1.97604 0.0146159 0)
(1.97756 0.0113387 0)
(1.97865 0.00883476 0)
(1.97999 0.00674989 0)
(1.98095 0.00278099 0)
(1.98074 -5.10364e-05 0)
(1.98072 -0.00091188 0)
(1.98157 -0.00356011 0)
(1.98234 -0.0071986 0)
(1.98309 -0.00960849 0)
(1.98434 -0.0109835 0)
(1.98548 -0.0121513 0)
(1.98678 -0.0149583 0)
(1.98791 -0.0176199 0)
(1.98927 -0.0180376 0)
(1.99066 -0.0185338 0)
(1.99255 -0.0204096 0)
(1.99346 -0.0220345 0)
(1.99445 -0.0222617 0)
(1.99556 -0.0229213 0)
(1.99682 -0.0248133 0)
(1.99741 -0.0267283 0)
(1.99791 -0.0273018 0)
(1.99792 -0.0277055 0)
(1.99655 -0.028547 0)
(1.99561 -0.0292637 0)
(1.99437 -0.0303139 0)
(1.99283 -0.0316049 0)
(1.99049 -0.0320144 0)
(1.98617 -0.0325868 0)
(1.97901 -0.0327667 0)
(1.96899 -0.0303036 0)
(1.96035 -0.0291551 0)
(1.95543 -0.0304005 0)
(1.95432 -0.0305218 0)
(1.95376 -0.0307889 0)
(1.95364 -0.0313575 0)
(1.95358 -0.0317913 0)
(1.95421 -0.0328551 0)
(1.95525 -0.0343513 0)
(1.95691 -0.0345391 0)
(1.95898 -0.0350765 0)
(1.96089 -0.0372139 0)
(1.96226 -0.038045 0)
(1.9633 -0.0376551 0)
(1.96446 -0.0386078 0)
(1.96547 -0.0397268 0)
(1.96662 -0.0399244 0)
(1.96657 -0.039177 0)
(1.9659 -0.0368785 0)
(1.9635 -0.0310601 0)
(1.95844 -0.0189344 0)
(1.95084 -0.00220398 0)
(1.93911 0.0216767 0)
(1.92638 0.0502034 0)
(1.91448 0.0782483 0)
(1.89829 0.112431 0)
(1.89589 0.121377 0)
(1.89335 0.132881 0)
(1.88096 0.153232 0)
(1.87787 0.167837 0)
(1.87557 0.16633 0)
(1.87932 0.162335 0)
(1.88272 0.161999 0)
(1.88337 0.16197 0)
(1.88466 0.162025 0)
(1.88641 0.161789 0)
(1.88828 0.15997 0)
(1.89066 0.157224 0)
(1.89404 0.154264 0)
(1.8987 0.149415 0)
(1.90433 0.141784 0)
(1.90886 0.135828 0)
(1.91385 0.129575 0)
(2.05828 -0.0595535 0)
(2.05734 -0.0592472 0)
(2.05631 -0.0586408 0)
(2.05422 -0.0576204 0)
(2.05091 -0.0552247 0)
(2.0447 -0.0500866 0)
(2.02922 -0.0339628 0)
(2.00955 -0.0125793 0)
(1.99382 -0.000148386 0)
(1.96918 0.0279995 0)
(1.95422 0.0472441 0)
(1.94707 0.0458098 0)
(1.94284 0.0483079 0)
(1.94032 0.0553191 0)
(1.93917 0.0565364 0)
(1.93952 0.0557679 0)
(1.94101 0.0542393 0)
(1.94373 0.0504589 0)
(1.94552 0.0471727 0)
(1.94653 0.0467498 0)
(1.94699 0.0486905 0)
(1.94686 0.0508673 0)
(1.94671 0.0521032 0)
(1.94651 0.051862 0)
(1.94765 0.0499588 0)
(1.94972 0.0477081 0)
(1.95159 0.0458565 0)
(1.95287 0.0447294 0)
(1.95345 0.0439297 0)
(1.95395 0.0443105 0)
(1.95416 0.0448651 0)
(1.95421 0.0444538 0)
(1.95435 0.0448022 0)
(1.95468 0.0451909 0)
(1.95622 0.0435854 0)
(1.95747 0.0419048 0)
(1.95851 0.0410864 0)
(1.96051 0.0389938 0)
(1.96227 0.0364286 0)
(1.96343 0.0356577 0)
(1.96489 0.0345384 0)
(1.96674 0.0319215 0)
(1.96785 0.0304258 0)
(1.96851 0.0300634 0)
(1.96963 0.0274702 0)
(1.97047 0.0247159 0)
(1.97101 0.0242525 0)
(1.97173 0.0221255 0)
(1.97269 0.0182545 0)
(1.97356 0.0160757 0)
(1.97479 0.0127598 0)
(1.9756 0.0086668 0)
(1.97646 0.00599757 0)
(1.97799 0.00320266 0)
(1.97891 0.000855618 0)
(1.97982 -0.00148379 0)
(1.98128 -0.00365554 0)
(1.98267 -0.00462772 0)
(1.98403 -0.0064176 0)
(1.98555 -0.00935548 0)
(1.98691 -0.0105422 0)
(1.98839 -0.010622 0)
(1.99019 -0.0123457 0)
(1.99129 -0.0145006 0)
(1.99215 -0.0151805 0)
(1.99315 -0.0159865 0)
(1.99443 -0.0182446 0)
(1.99529 -0.0209362 0)
(1.99588 -0.0226998 0)
(1.99627 -0.0233731 0)
(1.99538 -0.0244411 0)
(1.99444 -0.0260026 0)
(1.99332 -0.0270505 0)
(1.99152 -0.0282958 0)
(1.9895 -0.0286644 0)
(1.98577 -0.029164 0)
(1.97926 -0.0292744 0)
(1.96995 -0.0273929 0)
(1.96108 -0.0270251 0)
(1.95525 -0.0283848 0)
(1.9538 -0.0284793 0)
(1.95308 -0.0285875 0)
(1.95257 -0.0291149 0)
(1.9521 -0.0293005 0)
(1.95222 -0.0299125 0)
(1.95333 -0.0317137 0)
(1.95494 -0.0324019 0)
(1.95699 -0.03314 0)
(1.95935 -0.035909 0)
(1.96084 -0.0376104 0)
(1.96206 -0.0375674 0)
(1.96358 -0.0387587 0)
(1.96476 -0.0404743 0)
(1.96588 -0.0406182 0)
(1.96697 -0.0406382 0)
(1.96832 -0.0418565 0)
(1.96911 -0.0422725 0)
(1.97 -0.0415931 0)
(1.96963 -0.0395724 0)
(1.96742 -0.0347063 0)
(1.96281 -0.0241865 0)
(1.95573 -0.00878538 0)
(1.94486 0.0135809 0)
(1.93292 0.0408822 0)
(1.92007 0.0699568 0)
(1.90612 0.100997 0)
(1.90542 0.109103 0)
(1.89805 0.125234 0)
(1.88597 0.150133 0)
(1.8834 0.160924 0)
(1.88248 0.157515 0)
(1.8867 0.154432 0)
(1.88878 0.156261 0)
(1.88898 0.157426 0)
(1.88988 0.158025 0)
(1.89128 0.158079 0)
(1.89303 0.156436 0)
(1.89538 0.154158 0)
(1.89881 0.151323 0)
(1.90387 0.145994 0)
(2.05388 -0.0512456 0)
(2.0575 -0.0549127 0)
(2.05764 -0.0568953 0)
(2.05682 -0.0567425 0)
(2.05491 -0.0549886 0)
(2.05295 -0.0536144 0)
(2.04798 -0.0481209 0)
(2.03938 -0.0385424 0)
(2.02653 -0.0276541 0)
(1.99996 0.00513575 0)
(1.98292 0.0231715 0)
(1.97404 0.0306875 0)
(1.95522 0.0501414 0)
(1.94647 0.0621671 0)
(1.94237 0.0631298 0)
(1.9407 0.0670194 0)
(1.94032 0.0677756 0)
(1.93996 0.0671097 0)
(1.94079 0.0666579 0)
(1.94171 0.0656761 0)
(1.94407 0.0630358 0)
(1.94622 0.0593832 0)
(1.94747 0.0570679 0)
(1.94855 0.0572717 0)
(1.94872 0.0586514 0)
(1.94858 0.060617 0)
(1.94813 0.0622708 0)
(1.94785 0.0619411 0)
(1.94946 0.0600481 0)
(1.95052 0.0588721 0)
(1.9523 0.0572146 0)
(1.95382 0.0548462 0)
(1.9544 0.053757 0)
(1.95505 0.0530594 0)
(1.95606 0.0517672 0)
(1.95676 0.0511438 0)
(1.95741 0.0506092 0)
(1.95857 0.0488961 0)
(1.95945 0.0476713 0)
(1.95982 0.0475769 0)
(1.96059 0.0460043 0)
(1.96197 0.0427145 0)
(1.96297 0.0405481 0)
(1.96405 0.0387818 0)
(1.96594 0.0351503 0)
(1.96716 0.0314467 0)
(1.96785 0.0301315 0)
(1.96864 0.028014 0)
(1.96928 0.0238588 0)
(1.96944 0.021828 0)
(1.9697 0.0204651 0)
(1.97086 0.0164246 0)
(1.9719 0.0134133 0)
(1.97313 0.0120997 0)
(1.9746 0.00994835 0)
(1.97619 0.00714642 0)
(1.97782 0.00485009 0)
(1.9793 0.00392975 0)
(1.98074 0.00246836 0)
(1.98271 -0.000585747 0)
(1.98412 -0.00244916 0)
(1.98567 -0.0029892 0)
(1.98754 -0.00475061 0)
(1.9888 -0.00705634 0)
(1.98966 -0.00830051 0)
(1.99065 -0.00929306 0)
(1.9919 -0.0118323 0)
(1.99247 -0.0144018 0)
(1.99267 -0.015753 0)
(1.99307 -0.0170187 0)
(1.99314 -0.0186831 0)
(1.9924 -0.0209617 0)
(1.992 -0.0227468 0)
(1.99002 -0.0236735 0)
(1.98805 -0.025081 0)
(1.98534 -0.0257741 0)
(1.98004 -0.0266531 0)
(1.97131 -0.0249225 0)
(1.96184 -0.0232261 0)
(1.95474 -0.0251095 0)
(1.9527 -0.0254921 0)
(1.9519 -0.0258345 0)
(1.95154 -0.0267128 0)
(1.95115 -0.0276026 0)
(1.95112 -0.0284261 0)
(1.95201 -0.0302344 0)
(1.95339 -0.0309875 0)
(1.95521 -0.0311393 0)
(1.9572 -0.0331708 0)
(1.95856 -0.0348115 0)
(1.95989 -0.0347747 0)
(1.96143 -0.0358896 0)
(1.96282 -0.0381728 0)
(1.96385 -0.0386838 0)
(1.96499 -0.0389786 0)
(1.96672 -0.0407046 0)
(1.96783 -0.0421099 0)
(1.96884 -0.0418393 0)
(1.97026 -0.0424337 0)
(1.97144 -0.0435467 0)
(1.97275 -0.0433389 0)
(1.97263 -0.0417882 0)
(1.97091 -0.0377188 0)
(1.96708 -0.0286171 0)
(1.96085 -0.0145053 0)
(1.95107 0.0065857 0)
(1.94007 0.0325794 0)
(1.92683 0.0610635 0)
(1.91474 0.0892224 0)
(1.91435 0.0986863 0)
(1.90207 0.119836 0)
(1.89223 0.14712 0)
(1.8895 0.15348 0)
(1.89025 0.148976 0)
(1.8942 0.148773 0)
(1.89479 0.152023 0)
(1.89411 0.154057 0)
(1.89452 0.154684 0)
(1.89579 0.154307 0)
(1.89789 0.152766 0)
(2.04945 -0.0426928 0)
(2.05195 -0.0444423 0)
(2.05344 -0.0448118 0)
(2.05419 -0.0472552 0)
(2.0544 -0.0499032 0)
(2.05479 -0.0508481 0)
(2.05412 -0.0500844 0)
(2.0518 -0.0464711 0)
(2.04746 -0.0410681 0)
(2.03484 -0.0247229 0)
(2.02039 -0.0095357 0)
(2.00285 0.00910208 0)
(1.97864 0.0409092 0)
(1.96538 0.05314 0)
(1.95895 0.057104 0)
(1.95003 0.067174 0)
(1.94282 0.0760189 0)
(1.94187 0.0805932 0)
(1.94169 0.0826164 0)
(1.94124 0.0820244 0)
(1.94109 0.0816103 0)
(1.94173 0.08143 0)
(1.94272 0.0808181 0)
(1.94343 0.0801627 0)
(1.94629 0.0769388 0)
(1.94814 0.073013 0)
(1.94891 0.0715731 0)
(1.94971 0.0695098 0)
(1.95005 0.068534 0)
(1.95032 0.0701487 0)
(1.95045 0.0712053 0)
(1.95089 0.0705672 0)
(1.951 0.0695411 0)
(1.95215 0.067123 0)
(1.9536 0.0643555 0)
(1.9546 0.0627328 0)
(1.95579 0.0607255 0)
(1.957 0.0579304 0)
(1.95774 0.056246 0)
(1.95811 0.0553862 0)
(1.95859 0.0528568 0)
(1.95886 0.0499627 0)
(1.95881 0.0487966 0)
(1.95901 0.0474069 0)
(1.96013 0.0441174 0)
(1.96116 0.0404182 0)
(1.96189 0.0381959 0)
(1.96313 0.0353411 0)
(1.96446 0.0310146 0)
(1.96502 0.0284507 0)
(1.96562 0.0267117 0)
(1.96695 0.0232123 0)
(1.9681 0.0205473 0)
(1.96932 0.0195912 0)
(1.97107 0.0176504 0)
(1.97287 0.0149702 0)
(1.97444 0.0131722 0)
(1.9759 0.0124367 0)
(1.97733 0.0112239 0)
(1.97933 0.00826749 0)
(1.98079 0.00597455 0)
(1.98207 0.00543491 0)
(1.98387 0.00365293 0)
(1.98554 0.000942718 0)
(1.98678 -0.00153522 0)
(1.98781 -0.0031555 0)
(1.98897 -0.00559428 0)
(1.98955 -0.00795162 0)
(1.98966 -0.00909972 0)
(1.99023 -0.0112359 0)
(1.99082 -0.0133274 0)
(1.99004 -0.0150043 0)
(1.98943 -0.0166949 0)
(1.9884 -0.0181287 0)
(1.98602 -0.0195412 0)
(1.98396 -0.0211318 0)
(1.97982 -0.0221385 0)
(1.97193 -0.0210892 0)
(1.96278 -0.0189212 0)
(1.95459 -0.0211413 0)
(1.95152 -0.0218019 0)
(1.95059 -0.0223308 0)
(1.95003 -0.0234066 0)
(1.94936 -0.0241233 0)
(1.94886 -0.0243423 0)
(1.94983 -0.0262835 0)
(1.95124 -0.0280774 0)
(1.95293 -0.0283473 0)
(1.95532 -0.0305787 0)
(1.9571 -0.0333191 0)
(1.95859 -0.0337615 0)
(1.96023 -0.0347429 0)
(1.96179 -0.0371431 0)
(1.96277 -0.0380421 0)
(1.96377 -0.038121 0)
(1.96547 -0.0400325 0)
(1.96659 -0.0418804 0)
(1.96777 -0.0418595 0)
(1.96938 -0.0427517 0)
(1.97088 -0.0445755 0)
(1.97232 -0.0448839 0)
(1.97375 -0.044567 0)
(1.97487 -0.0456144 0)
(1.97649 -0.0457149 0)
(1.97638 -0.0444856 0)
(1.97522 -0.0407614 0)
(1.97214 -0.0331834 0)
(1.96645 -0.0206555 0)
(1.9573 -0.000848108 0)
(1.94656 0.0247175 0)
(1.93449 0.0504043 0)
(1.92331 0.0777653 0)
(1.92101 0.0903307 0)
(1.90743 0.114615 0)
(1.89959 0.141722 0)
(1.89688 0.145035 0)
(1.89834 0.140781 0)
(1.90103 0.143136 0)
(1.90062 0.147819 0)
(1.89899 0.150801 0)
(2.04543 -0.0341989 0)
(2.04761 -0.0365005 0)
(2.04987 -0.0379476 0)
(2.05256 -0.0412694 0)
(2.05388 -0.0446753 0)
(2.05492 -0.0446205 0)
(2.05457 -0.0428009 0)
(2.05458 -0.0410442 0)
(2.05379 -0.039452 0)
(2.0507 -0.0358754 0)
(2.04549 -0.0304558 0)
(2.03402 -0.0192768 0)
(2.01245 0.00960175 0)
(1.99895 0.0239815 0)
(1.98487 0.0424296 0)
(1.96431 0.0721447 0)
(1.95515 0.0804922 0)
(1.95233 0.0801578 0)
(1.94466 0.0897409 0)
(1.94076 0.0965379 0)
(1.9401 0.103148 0)
(1.94082 0.103594 0)
(1.94166 0.102314 0)
(1.94202 0.100198 0)
(1.94233 0.0988205 0)
(1.94282 0.0969052 0)
(1.94346 0.0950315 0)
(1.94564 0.091165 0)
(1.9472 0.0880293 0)
(1.94779 0.0868464 0)
(1.94955 0.083557 0)
(1.95045 0.0807325 0)
(1.95058 0.0799771 0)
(1.95074 0.077989 0)
(1.95079 0.0762121 0)
(1.95065 0.0757031 0)
(1.95095 0.0736457 0)
(1.95176 0.0698185 0)
(1.95221 0.0672301 0)
(1.95288 0.0649917 0)
(1.95434 0.060859 0)
(1.95516 0.0572197 0)
(1.95542 0.0553635 0)
(1.95603 0.0524633 0)
(1.95686 0.0487338 0)
(1.95723 0.0460736 0)
(1.95738 0.0440613 0)
(1.95824 0.0412072 0)
(1.9594 0.0377867 0)
(1.96008 0.0360271 0)
(1.96083 0.0345617 0)
(1.9626 0.0311202 0)
(1.96412 0.0283096 0)
(1.96546 0.0275449 0)
(1.96735 0.0257497 0)
(1.96949 0.0227297 0)
(1.97107 0.0210938 0)
(1.97268 0.0200072 0)
(1.9745 0.0180332 0)
(1.97628 0.0153889 0)
(1.97762 0.013537 0)
(1.97879 0.0129539 0)
(1.98038 0.0111795 0)
(1.98179 0.00859565 0)
(1.9828 0.0064034 0)
(1.9838 0.0042254 0)
(1.98504 0.00134279 0)
(1.98606 -0.00149241 0)
(1.98672 -0.00325747 0)
(1.9874 -0.00538608 0)
(1.98787 -0.00722537 0)
(1.98769 -0.0084953 0)
(1.98664 -0.0105034 0)
(1.98633 -0.0120836 0)
(1.98438 -0.0135007 0)
(1.9821 -0.0156871 0)
(1.97905 -0.016835 0)
(1.97224 -0.0166266 0)
(1.96324 -0.0140216 0)
(1.95395 -0.015766 0)
(1.94984 -0.0165511 0)
(1.94867 -0.017284 0)
(1.94794 -0.0186042 0)
(1.94786 -0.0203803 0)
(1.94751 -0.0213055 0)
(1.94823 -0.0232238 0)
(1.94939 -0.0251088 0)
(1.95097 -0.0250849 0)
(1.95293 -0.0263659 0)
(1.95452 -0.0287232 0)
(1.95588 -0.029017 0)
(1.95723 -0.0297013 0)
(1.95918 -0.032282 0)
(1.96034 -0.0337166 0)
(1.96166 -0.0342774 0)
(1.96347 -0.036219 0)
(1.96455 -0.0380947 0)
(1.96568 -0.0381649 0)
(1.96701 -0.0388419 0)
(1.96868 -0.0414247 0)
(1.97002 -0.0423285 0)
(1.97137 -0.0424961 0)
(1.97348 -0.0440807 0)
(1.97503 -0.0458256 0)
(1.97643 -0.0457929 0)
(1.97773 -0.0461625 0)
(1.97927 -0.0464613 0)
(1.97944 -0.0458635 0)
(1.97878 -0.0429953 0)
(1.9763 -0.0366052 0)
(1.97133 -0.0251868 0)
(1.96373 -0.00768563 0)
(1.95285 0.0183701 0)
(1.94382 0.0392733 0)
(1.93206 0.0672352 0)
(1.92683 0.0843412 0)
(1.91464 0.108885 0)
(1.90713 0.134341 0)
(1.90456 0.136353 0)
(1.9061 0.134245 0)
(2.04137 -0.0243576 0)
(2.04355 -0.0268236 0)
(2.04602 -0.0286053 0)
(2.0477 -0.0296938 0)
(2.05101 -0.0334642 0)
(2.0527 -0.0367401 0)
(2.05535 -0.0397721 0)
(2.05696 -0.0404504 0)
(2.05735 -0.0402193 0)
(2.05644 -0.0382662 0)
(2.05535 -0.0347538 0)
(2.05304 -0.0311184 0)
(2.0447 -0.0185342 0)
(2.03455 -0.00456999 0)
(2.01675 0.0179193 0)
(1.996 0.0501081 0)
(1.9878 0.0573572 0)
(1.97544 0.0718442 0)
(1.9582 0.0941115 0)
(1.95117 0.102472 0)
(1.94813 0.105803 0)
(1.9429 0.113922 0)
(1.94025 0.120332 0)
(1.93825 0.124275 0)
(1.93837 0.123983 0)
(1.93926 0.121904 0)
(1.94039 0.118444 0)
(1.94118 0.11506 0)
(1.94164 0.112155 0)
(1.94186 0.10992 0)
(1.94308 0.105728 0)
(1.94425 0.101083 0)
(1.94501 0.097925 0)
(1.94716 0.0924833 0)
(1.94814 0.0872658 0)
(1.94813 0.0842529 0)
(1.94816 0.0805094 0)
(1.94801 0.0766749 0)
(1.94757 0.0745421 0)
(1.94753 0.0723101 0)
(1.94827 0.0684824 0)
(1.94868 0.0653323 0)
(1.94885 0.0631649 0)
(1.95006 0.0591307 0)
(1.9513 0.0550559 0)
(1.95204 0.0528275 0)
(1.95305 0.0499268 0)
(1.95433 0.0462655 0)
(1.95551 0.0434716 0)
(1.95648 0.0418918 0)
(1.95764 0.0401865 0)
(1.95933 0.0374425 0)
(1.96072 0.0352584 0)
(1.96199 0.0348623 0)
(1.96359 0.0337629 0)
(1.96572 0.0306925 0)
(1.96715 0.0290423 0)
(1.96857 0.0279557 0)
(1.97081 0.0252312 0)
(1.97278 0.0221867 0)
(1.9744 0.0199794 0)
(1.97584 0.0186947 0)
(1.97743 0.0166511 0)
(1.97872 0.0140503 0)
(1.97965 0.0121462 0)
(1.98026 0.0106943 0)
(1.9814 0.00772293 0)
(1.98223 0.00502417 0)
(1.98271 0.00370019 0)
(1.98375 0.00149774 0)
(1.98484 -0.0011976 0)
(1.98526 -0.00266539 0)
(1.98447 -0.00410413 0)
(1.98379 -0.00583201 0)
(1.98251 -0.00732768 0)
(1.98005 -0.00933632 0)
(1.97787 -0.0108786 0)
(1.97228 -0.0114069 0)
(1.96366 -0.00935053 0)
(1.95425 -0.0103672 0)
(1.94821 -0.011365 0)
(1.94702 -0.0119541 0)
(1.94578 -0.0126439 0)
(1.9455 -0.014356 0)
(1.94495 -0.0151905 0)
(1.94553 -0.017052 0)
(1.9469 -0.0198617 0)
(1.94847 -0.0205587 0)
(1.95057 -0.0220047 0)
(1.95276 -0.0252939 0)
(1.95431 -0.0264168 0)
(1.95575 -0.0266661 0)
(1.95754 -0.0288903 0)
(1.95858 -0.0303192 0)
(1.95961 -0.0302381 0)
(1.96127 -0.0317248 0)
(1.96276 -0.0342649 0)
(1.96394 -0.0349083 0)
(1.96544 -0.0360444 0)
(1.96749 -0.0392857 0)
(1.96877 -0.0410195 0)
(1.96992 -0.0413455 0)
(1.97225 -0.0436415 0)
(1.97393 -0.0460069 0)
(1.97548 -0.0460078 0)
(1.97723 -0.0466056 0)
(1.97872 -0.0481532 0)
(1.98008 -0.0483441 0)
(1.98177 -0.0479373 0)
(1.98269 -0.0476555 0)
(1.98331 -0.0471972 0)
(1.98312 -0.0450546 0)
(1.98137 -0.0395889 0)
(1.9773 -0.0293356 0)
(1.97085 -0.0143614 0)
(1.96079 0.00923602 0)
(1.95261 0.02881 0)
(1.94043 0.0563963 0)
(1.9333 0.0758673 0)
(1.9222 0.100776 0)
(2.03801 -0.0152993 0)
(2.03985 -0.0164322 0)
(2.04215 -0.0172944 0)
(2.0442 -0.0184823 0)
(2.04656 -0.0206998 0)
(2.04881 -0.0234433 0)
(2.05108 -0.0247846 0)
(2.05354 -0.0257293 0)
(2.05628 -0.0266961 0)
(2.05777 -0.0268497 0)
(2.05865 -0.0268503 0)
(2.05895 -0.0262931 0)
(2.05823 -0.0243994 0)
(2.05549 -0.0188942 0)
(2.04826 -0.00961394 0)
(2.03283 0.0118018 0)
(2.02165 0.0260843 0)
(2.00148 0.0533623 0)
(1.98462 0.0804591 0)
(1.97983 0.0850728 0)
(1.96682 0.100447 0)
(1.95344 0.118897 0)
(1.94645 0.12579 0)
(1.94355 0.127569 0)
(1.94102 0.130933 0)
(1.93797 0.133205 0)
(1.93644 0.134557 0)
(1.93604 0.134369 0)