/*--------------------------------*- C++ -*----------------------------------*\
  =========                 |
  \\      /  F ield         | OpenFOAM: The Open Source CFD Toolbox
   \\    /   O peration     | Website:  https://openfoam.org
    \\  /    A nd           | Version:  7
     \\/     M anipulation  |
\*---------------------------------------------------------------------------*/
FoamFile
{
    version     2.0;
    format      ascii;
    class       volScalarField;
    location    "0.442";
    object      T;
}
// * * * * * * * * * * * * * * * * * * * * * * * * * * * * * * * * * * * * * //

dimensions      [0 2 -2 0 0 0 0];

internalField   nonuniform List<scalar> 
12359
(
2.58195e-80
-5.07684e-65
2.72164e-223
5.67308e-43
-6.18756e-74
5.3531e-29
-8.36365e-24
6.60987e-28
8.37391e-19
-9.98126e-32
3.18455e-21
-7.47249e-14
0.130405
-7.84831e-40
3.03468e-45
-1.62455e-06
0.000476677
4.57587e-121
-5.44736e-124
9.87338e-54
4.73954e-37
-6.30291e-16
2.01779e-59
-8.95001e-52
8.27507e-63
-2.03328e-56
-1.088e-160
6.73764e-164
-1.65826e-130
2.87112e-152
-1.34245e-145
1.15946e-179
-1.42244e-198
-1.08746e-154
-1.72194e-211
2.00276e-142
1.46798e-97
2.31482e-83
2.00913e-77
-2.41566e-89
5.74851e-68
1.31035e-86
5.21977e-106
-6.96853e-109
1.99479e-136
-6.10291e-134
-2.32671e-139
6.43298e-149
4.08306e-127
1.31427e-157
-2.10148e-167
2.22264e-173
-5.71011e-183
-1.29409e-118
1.07124e-189
1.73992e-195
5.93636e-112
1.28529e-201
-1.06411e-204
5.46139e-208
-2.02019e-192
2.57842e-217
-9.78041e-171
6.6438
-2.88589e-115
-6.99718e-35
-7.99727e-101
-2.29986e-176
-7.29027e-95
-3.62922e-09
106.2
3.73714e-72
3.43437e-227
4.01024e-92
-7.72832e-48
-9.63604e-215
2.61156e-186
-3.93305e-220
-7.7479e-104
5.99554e-11
-4.29382e-30
-2.0078e-140
-7.4005e-297
-1.39209e-86
0.000787059
3.45413e-91
4.53002e-138
1.30393e-194
0.426816
0.000231755
4.86689e-251
2.65244
3.66156e-253
-1.42765e-113
-4.08384e-91
1.53464e-68
1.1585e-119
-3.49675e-114
-3.85508e-57
-4.00301e-71
3.54987e-25
4.84435e-244
-4.02301e-92
21.7185
-8.84947e-150
5.31763e-35
9.10904e-254
0.00101816
3.40193e-100
2.29544e-36
1.19449e-121
-3.14932e-139
-4.82144e-35
1.76738e-29
-8.01202e-92
1.38463e-175
5.17561e-29
8.35874e-140
1.62001
4.99957e-294
1.56134e-123
3.40638e-26
1.24638e-192
1.77999e-49
-3.21669e-138
-2.61966e-165
1.15132e-18
-1.10164e-85
7.68808e-222
-2.05449e-139
2.96116e-174
5.86213e-10
8.46961e-08
3.50265e-08
-1.15293e-255
1.87808e-49
6.45466e-174
1.52001e-51
7.60235e-239
1.00912e-19
-6.72751e-284
-9.62462e-81
1.71347e-47
-7.00295e-254
2.01069e-21
-1.35774e-31
-4.45718e-298
0.000292258
4.39759e-148
4.56648e-29
5.40171e-67
8.5448e-241
1.66639e-46
-8.09799e-191
3.00144e-259
111.057
3.81948e-26
3.59522e-10
2.56445e-120
3.96691e-187
-3.87002e-40
1.29348e-185
8.56597e-50
1.06165e-47
-9.32317e-282
1.97587e-166
1.10643e-40
-1.61935e-26
2.29429e-49
0.410438
-4.20476e-218
-5.32657e-216
2.23866e-51
5.49627e-64
6.98418e-153
3.93336e-20
-1.2494e-135
-2.39394e-137
-1.87198e-35
3.02272e-21
-3.97116e-42
2.04095e-257
5.48089e-222
2.23243e-139
-1.25873e-58
-5.44141e-18
7.18457e-117
-2.09802e-95
3.10264e-65
-7.98366e-115
-8.38581e-94
3.63302e-70
4.71572e-71
7.38871e-189
4.50921e-36
29.3084
3.64107e-74
-4.29972e-116
9.49914e-47
1.35439e-138
-2.58555e-30
5.11862e-66
-6.55793e-71
8.96823e-37
3.98766e-25
-1.21233e-257
8.80264e-24
-1.79702e-69
7.36757e-44
-1.84836e-125
3.07841e-275
1.38897e-22
4.98018e-22
152.866
-1.852e-17
-7.6883e-238
7.08712e-116
-2.88089e-93
1.26835e-115
-6.62911e-78
1.00961e-29
3.93245e-128
9.693e-51
2.77379
-1.56119e-139
6.42365e-275
-1.01542e-76
4.59323e-102
9.37977e-22
-6.02696e-112
-7.11216e-111
-3.701e-284
1.35802e-21
-6.69413e-67
-3.90042e-96
1.30463e-68
-5.24416e-293
6.82683e-44
-1.42846e-94
3.70005e-05
-4.50034e-271
2.91603e-87
-7.75908e-104
5.24944e-11
1.26454e-37
0.000430082
-1.00137e-206
4.70635e-45
7.72788e-159
3.86381e-71
6.24076e-30
-3.33353e-86
-2.37373e-141
-6.47013e-111
1.02169
125.197
-4.56012e-292
-5.74911e-131
1.18121
151.458
-5.98622e-70
8.05703e-38
5.20946e-24
6.08624e-37
-2.61094e-65
59.3218
1.47414
2.3749e-35
-1.13403e-132
3.6134e-49
2.4815e-50
-2.13922e-58
3.09543e-48
-2.43236e-113
-3.59527e-128
-4.52266e-273
-6.55695e-130
6.23528
3.69294e-35
9.77135e-236
-3.79133e-243
5.86738e-37
2.5121e-133
4.02788e-102
5.6429e-89
6.95863e-287
4.1398e-24
5.60543e-242
5.70559e-244
7.13311e-182
5.09925e-51
1.22496e-142
53.0042
1.98494e-255
2.83303e-253
6.48245e-91
-8.81824e-160
1.08504e-30
-1.05709e-96
7.61225e-171
-7.1812e-251
5.41828
6.35021e-23
3.62415e-251
-1.51332e-115
-2.61139e-98
2.02489e-157
1.516e-173
3.16227e-176
1.52886e-153
6.03779e-127
-1.92828e-17
2.28881e-156
2.24094e-146
-8.1565e-85
3.81417e-41
0.524176
-6.31643e-153
-6.05519e-60
7.63162e-07
-1.8431e-242
4.80854e-56
-1.06858e-234
7.70974e-73
-1.22731e-251
2.33628e-153
2.87226e-18
6.37651e-52
1.71328e-19
1.98883e-103
-3.05831e-104
1.34568e-71
6.51797e-68
-5.48953e-103
2.9856e-72
6.67077e-72
-7.9048e-215
6.42302e-195
-3.31651e-195
7.03625e-193
3.12638e-193
0.000188002
-3.17868e-286
2.15397e-28
5.22567e-53
-2.33365e-61
1.39588e-45
5.57967e-51
5.95665e-91
6.69008e-76
1.37362e-51
-2.50487e-76
-1.25604e-60
1.05786e-37
1.1246e-36
1.91505e-34
8.88731e-79
1.02395e-16
-3.71189e-81
-1.1744e-80
1.61703e-46
2.82313e-22
2.69653e-140
2.5852e-188
1.29896e-73
7.1899e-190
-1.01368e-138
159.429
16.4702
-7.27772e-139
4.67238e-235
-3.92734e-257
-2.4193e-265
1.22896e-52
4.04286e-257
1.70836e-258
0.619239
7.63283e-48
0.000176026
-1.45719e-140
7.09168e-41
2.761e-135
-2.02059e-102
1.05615e-33
1.16268e-74
-3.43889e-43
2.42351e-76
-7.68431e-142
2.16479e-235
8.58355e-49
3.58881e-41
-1.21703e-141
6.64094e-13
2.26918e-34
9.54229e-69
-1.2416e-50
-1.58399e-43
-5.84827e-236
9.22688
9.69668e-16
-2.75512e-139
1.43346e-11
-4.74053e-82
-6.17017e-282
2.87784e-282
8.12137e-270
0.00035269
2.46835e-23
-1.22326e-58
9.39803e-58
6.34007e-68
-2.38473e-89
-2.21974e-42
-7.24885e-52
6.71402e-17
0.584987
5.32105e-12
-1.3171e-60
1.37706e-35
2.03644e-98
7.20559e-34
-4.93555e-80
6.49011e-72
-3.13313e-155
-1.46143e-82
4.06241e-50
6.92735e-256
143.794
-1.8891e-100
0.0246508
2.56716e-43
1.14875e-112
3.75346e-33
0.836731
4.71107e-49
-1.09822e-71
1.68941e-69
7.22062e-42
3.85982e-33
1.37893e-135
4.81648e-276
1.69454e-27
-7.31758e-250
1.81698e-10
3.36431e-173
-2.75175e-58
1.93376e-39
2.30998e-118
0.00416683
1.67039e-27
-2.45725e-73
-3.59878e-132
7.93844e-06
-1.24129e-221
-8.06325e-145
5.41017e-18
1.29966e-233
1.04759e-132
-1.67375e-146
2.62797e-08
15.9243
-3.15616e-88
2.63647e-201
-7.14448e-37
2.00681e-43
1.00902e-56
2.22225e-44
1.91423e-49
-1.8245e-213
-2.57936e-267
-2.20476e-49
1.05352e-247
1.1363e-40
4.5577e-57
1.22336e-34
-4.43509e-140
7.14909e-29
1.31744e-16
1.64641e-154
-1.33599e-90
-5.99109e-140
-1.40151e-32
6.86723e-18
-2.34444e-239
2.36704e-47
3.21239e-52
5.64163e-101
4.10062e-45
-2.91509e-172
1.0862e-23
2.5884e-82
9.00077e-47
2.67087e-35
-1.56623e-211
-4.50642e-92
2.11515e-11
5.0857e-07
1.64403e-249
-9.61658e-69
3.33109e-11
7.67559e-62
0.560881
1.62291e-270
9.30703e-174
-2.9354e-219
5.76598e-45
-1.59737e-71
5.18882e-82
-4.63965e-170
1.45777e-49
1.73948e-69
5.60641e-67
-2.40582e-127
8.54409e-05
1.0522e-244
0.000225399
6.28444e-196
143.482
8.3547e-81
2.77591e-12
1.09124e-205
-2.17204e-140
1.02649e-39
2.90622e-141
2.35411e-172
9.56519e-106
8.53603e-70
-4.48814e-71
2.23778e-13
5.95342e-29
2.42426e-29
-3.91564e-299
1.24356e-141
1.80668e-54
7.06692e-07
-1.98714e-298
-2.45658e-240
3.66464e-51
-2.32705e-216
5.01982e-19
0.981761
63.2005
-6.55093e-297
-1.37688e-94
8.66586e-29
3.06251e-79
9.85208e-152
91.106
-1.62551e-243
1.53647e-26
3.8789e-38
1.55621e-95
8.31194e-155
4.77223e-169
2.48613e-120
7.1002e-54
1.23452e-77
7.41446e-88
3.02925e-294
-3.34704e-220
-1.15789e-72
5.36057e-136
3.97396e-32
1.42048e-45
1.63863e-180
2.7532e-239
7.33411e-37
136.079
2.56465e-148
1.83679e-17
-3.39586e-259
1.51083e-86
6.89818e-27
3.97737e-63
5.12708e-31
4.71974e-32
8.29751e-72
3.55541e-48
-6.57782e-278
1.29366e-211
1.0344e-66
-6.50496e-87
-5.26011e-73
-2.6297e-87
-1.505e-261
1.3989e-236
1.58689e-164
1.37631e-56
1.7718e-42
-1.71354e-37
-4.81139e-99
-3.04417e-35
-1.04692e-47
-3.62496e-70
-3.9381e-34
-1.48361e-61
0.0346974
1.1487e-46
1.07627e-60
1.00189e-33
-1.79377e-215
3.41473e-27
3.67602e-39
2.26884e-299
1.55154e-233
-1.85793e-215
-4.66857e-210
5.05166e-08
-8.30717e-70
9.0918e-109
-1.35811e-36
5.63952e-105
5.41453e-18
7.29547e-63
5.27393e-53
1.9733e-163
1.34738e-13
-1.88184e-262
-4.58281e-57
6.89721e-133
4.21135e-21
-1.55098e-33
8.75003e-78
3.6045e-71
7.36877
4.45556e-49
8.53449e-16
1.96335e-80
9.48409e-13
0.422139
-6.97868e-205
-6.98067e-140
-1.47198e-263
1.25371e-09
1.63188e-139
2.07198e-77
0.0036024
-1.69409e-241
4.93735e-65
2.44087e-37
3.85111e-75
2.84431e-145
-3.04897e-78
1.52943e-191
-5.1577e-75
4.91577e-191
2.73704e-193
1.4622e-81
2.40244e-49
6.42464e-51
1.66762e-73
1.79495e-10
2.5369e-64
16.1877
1.45214e-47
1.80815e-89
-3.65416e-78
1.96884e-49
-5.54851e-60
8.42364e-70
0.445849
-4.1865e-40
-2.09941e-62
-1.25693e-62
2.37142e-125
1.79046e-137
1.56326e-37
9.29971e-275
3.97493
1.60033e-183
-6.11357e-39
1.47184e-25
1.98071e-08
4.00463e-25
1.0862e-39
4.7295e-39
1.02669e-81
4.401e-25
2.54672e-47
9.20419e-16
-3.3622e-62
1.15767e-16
3.28902e-63
1.54805e-288
6.4209e-61
166.049
1.38607e-14
-8.55062e-111
-6.99344e-280
6.18632e-178
1.66313e-98
-1.46874e-59
5.15931e-52
9.69591e-77
-8.99306e-215
1.24928e-109
-3.90046e-59
1.76918e-112
-4.31823e-126
3.57393e-16
2.27234e-114
-4.23856e-50
3.4934e-36
8.6196e-111
2.30909e-102
2.33317e-31
-4.7424e-301
-3.12072e-103
46.0749
-5.62344e-210
4.16855e-20
2.5677e-26
-9.35451e-104
6.60889e-37
5.89715e-36
-3.37879e-62
2.62037e-32
-8.27257e-141
-5.6375e-37
-3.50851e-152
8.21034e-73
2.89416e-38
-2.16707e-35
-1.14572e-140
2.82227e-47
4.32639e-10
1.28299e-51
9.92533e-81
6.23919e-137
2.17262e-26
1.97916e-07
1.47779e-128
8.04571e-238
-8.90367e-62
6.85059e-254
0.496496
-8.31013e-64
4.26519e-14
8.62794e-82
2.43242e-78
9.1776
2.3711e-76
0.000785631
1.46298e-53
57.1795
3.73474e-54
-1.36805e-86
5.37062e-78
1.07416e-102
0.00160685
0.000107064
2.19393e-201
7.63728e-198
-7.91159e-33
5.09847e-187
0.00195735
1.36274e-34
3.7678e-11
1.06914e-136
128.772
0.0633477
-6.25681e-62
1.32029e-287
-9.67106e-146
-1.01806e-42
-1.83412e-96
-8.57625e-98
-9.52149e-96
4.55213e-50
1.04347e-48
19.3252
4.89566e-09
-6.12081e-217
5.34643e-42
6.8037e-31
-9.91019e-32
-3.68523e-85
1.96125e-25
4.85169e-45
-1.79412e-41
2.36553e-144
-9.25217e-284
2.56958e-27
6.34581e-24
4.8883e-79
-4.27789e-34
4.55983e-15
4.06428e-91
-4.78758e-63
4.38057e-131
-3.28299e-92
7.9811e-17
5.84574e-91
1.77558e-33
-1.38281e-47
2.73563e-61
-2.52664e-118
4.8142e-88
8.05158e-11
2.8562e-84
1.8193e-85
20.7751
-6.11747e-56
-1.76193e-93
0.0056274
1.1523e-292
1.62802e-82
1.80039e-69
-2.51566e-98
-5.40611e-167
-1.1751e-64
2.04501e-301
6.7403e-11
-6.63325e-143
1.47668e-65
2.87404e-26
1.81557e-36
1.35387e-76
4.52526e-80
1.16087e-28
81.585
-1.75805e-213
1.64616e-111
4.09131e-92
0.00430664
8.28434e-24
-1.7354e-142
1.98489
-3.82997e-284
1.35653e-146
168.332
-8.94084e-109
-4.97896e-139
-9.47681e-136
1.60422e-48
-2.02843e-45
-3.30777e-208
-1.11672e-101
8.48428e-28
-1.44265e-69
-5.51144e-74
-1.43294e-95
-1.96949e-204
-4.72838e-44
1.61356e-07
-1.05487e-77
-2.56986e-35
1.24201e-54
1.50291e-71
6.88333e-12
3.34056e-32
-1.52633e-93
-3.95648e-144
0.000168541
1.73732e-49
8.09739e-53
-4.45152e-130
-4.22543e-208
4.68122e-42
1.33771e-13
5.31546e-87
1.58085e-34
3.08677e-85
4.90298e-93
7.02903e-120
1.80758e-44
139.249
16.1667
2.48852e-43
5.20443e-74
-1.17642e-121
5.62968e-46
0.00826034
-5.14374e-38
-5.38958e-144
3.62665e-15
5.47982e-09
8.71853
-9.31723e-108
74.8192
-1.3872e-210
1.51158e-91
-1.79418e-206
1.83768e-12
1.80624e-51
71.0474
-7.40934e-152
0.0118829
3.19038e-186
-9.69437e-76
6.00128e-40
7.12219e-98
1.99211e-15
0.0243088
-3.41461e-106
-8.24977e-118
1.31025e-84
1.95044e-109
-6.01471e-108
2.79294e-15
2.9079e-54
2.47013e-79
2.78196e-17
-2.14669e-108
-2.91282e-203
-9.19746e-78
1.86906e-177
3.60088e-30
5.04765e-85
1.42519e-10
1.64257e-12
-3.84199e-48
7.7127e-41
1.2028e-46
4.31508e-79
0.00764454
1.78145e-90
-2.32502e-113
-3.93779e-261
2.50575e-14
-1.8072e-39
-5.30297e-154
6.69503e-31
3.778e-97
2.05497e-41
-3.67743e-42
-9.15714e-37
3.82905e-48
83.3295
4.17938e-46
-8.92423e-47
0.0215932
1.18567e-98
4.06719e-08
5.44304e-32
1.72254e-189
1.05035e-88
-4.45731e-126
-2.01441e-83
-1.27945e-279
-1.10481e-137
1.74394e-08
1.78108e-13
7.60088e-140
177.222
1.2351e-32
-1.63858e-184
3.3724e-13
3.40019e-16
1.13121e-188
9.01487e-12
1.64819e-27
8.51498e-13
1.30218e-189
-1.00937e-138
8.25704e-118
2.81446e-189
4.16915e-42
22.7017
5.94273e-150
2.75915e-13
8.94333e-295
2.14095
1.59507e-32
3.99778e-47
-5.24208e-245
-5.94617e-153
1.32766e-89
5.26934e-50
6.95895e-17
1.70696e-41
5.28972e-109
4.19368e-102
5.40652e-191
1.87729e-34
4.41589e-43
-6.01473e-125
4.27912e-233
2.06773e-68
2.54587e-42
4.6394e-50
1.83106e-163
6.47049e-08
-1.66615e-32
4.59107e-185
8.86663e-56
3.65226e-103
3.64353e-87
183.145
-3.83968e-110
4.80613e-184
2.04399e-52
-1.04834e-40
-5.9733e-51
2.18851
1.22139e-66
-3.10496e-92
5.03181e-40
-5.66267e-99
-9.98178e-98
-1.9859e-90
-6.01506e-98
4.23033e-33
-4.03129e-86
14.7198
-1.63999e-49
9.01859e-11
2.63394e-96
1.06587e-05
3.60663e-35
3.77056e-14
1.20172e-15
2.14685e-47
-6.51153e-94
1.25684e-98
-7.5574e-70
1.00386e-295
-3.583e-90
2.20496e-40
6.36836e-20
-2.61675e-100
1.84429e-186
4.63474e-51
3.14569e-45
1.18023e-22
1.24306e-44
4.30037e-15
8.44552e-23
-1.43433e-128
4.00936e-57
0.203128
9.74517e-42
-4.11224e-282
4.2817e-109
7.28098e-100
-8.9965e-286
1.52128e-58
-4.7476e-213
-1.2504e-88
6.50766e-17
9.29659e-38
1.6684e-07
-8.08028e-209
-3.00926e-153
2.15513e-252
-1.09484e-100
-4.22359e-120
6.79801e-14
-1.56565e-119
-1.27637e-152
8.96517e-08
1.33388e-44
6.56329e-67
4.93835e-60
1.30944e-19
1.44399e-111
2.84681e-13
4.55168e-100
-1.75931e-205
0.000681017
2.78331e-57
1.31676e-22
-1.5545e-114
49.022
-6.77788e-45
-8.38775e-54
4.6805e-50
7.46967e-36
17.1716
-1.42127e-95
6.49956e-16
-1.92495e-51
5.73681e-55
-6.85638e-154
1.07381e-83
3.10298e-08
-3.41512e-89
1.21119e-10
-3.89467e-107
-1.08106e-111
4.80612e-14
1.28183e-175
1.03613e-134
-7.86752e-94
5.78263e-56
2.6971e-12
-3.61035e-108
3.03188e-101
-1.09612e-262
-3.47489e-50
0.000721646
6.85157e-52
-1.2894e-101
-1.4182e-72
4.72128e-113
-4.41003e-148
11.8013
-8.88441e-54
-9.74184e-241
1.12948e-55
1.50413e-114
-1.97367e-43
-1.49576e-30
5.64575e-65
3.11053e-99
1.7724e-17
4.22609e-13
-3.84419e-250
-1.75112e-73
1.15175e-13
4.79137e-156
-1.43219e-217
2.19553e-71
1.48431e-62
-9.89997e-92
-7.60671e-216
-3.03739e-61
1.19195e-13
-1.81956e-186
3.16528e-27
-1.95333e-210
-5.72468e-126
4.78787e-63
1.90043e-05
6.99046e-269
1.75034
-2.47816e-52
1.15351e-25
27.9472
-1.09716e-47
9.98621e-71
0.0224042
-4.45747e-100
5.83882e-06
3.54955e-21
-8.97855e-74
-1.76688e-91
-3.03007e-93
3.78947e-112
-1.84865e-118
2.27442e-30
0.0166383
175.653
8.02994e-35
2.41752e-31
5.04172e-05
2.08049e-37
3.68891
-1.42112e-167
3.86246e-110
2.16002e-21
2.29803e-53
-2.7414e-136
4.9351e-35
-1.89531e-98
15.8195
3.96987e-282
3.02662e-143
5.61889e-161
187.33
1.75145e-40
4.68862e-50
-1.59068e-88
3.64429e-21
1.18577e-95
-1.84069e-156
5.63842e-08
-1.38002e-96
5.3852e-08
3.61658e-30
1.21399e-86
3.24191e-17
2.65809e-56
-2.81818e-109
6.92611e-150
-2.90729e-146
0.164338
5.23126e-15
-5.85226e-129
3.45274e-20
8.41019e-68
5.22305e-30
-8.46368e-265
1.14058e-59
3.1287e-08
1.06921e-16
-3.22199e-46
-4.76823e-76
-1.89575e-151
1.33118e-21
1.44346e-96
-1.93017e-154
1.86996e-11
8.04218e-21
-1.43345e-124
-2.62483e-34
1.36905e-61
-2.4731e-255
-1.97445e-137
1.60805e-224
9.24485e-46
71.0777
1.16683e-12
2.84271e-24
-3.79892e-130
-8.86906e-96
3.3296e-56
-7.2183e-244
6.76217e-10
2.33768e-57
55.2189
5.19035e-30
2.44544e-89
1.24963e-125
-5.14574e-165
4.68782e-97
-2.01311e-98
3.76044e-134
11.4899
2.72225e-19
-1.59931e-42
2.74019e-19
-5.72016e-49
-7.28081e-153
-1.97478e-295
-4.06256e-134
3.3939e-30
0.492165
-4.11161e-24
8.0485e-55
-3.57334e-55
-2.55017e-79
4.63585e-20
0.0211589
0.0152224
-8.94755e-98
-6.59569e-79
5.63867e-36
-7.4516e-116
-1.07824e-217
-5.86423e-136
2.23832e-17
-2.92318e-121
3.94055e-73
-1.69673e-106
8.11764e-46
1.71772e-09
1.77679e-112
-2.78334e-135
2.39297e-12
7.8834e-21
1.36082e-100
-4.89722e-151
-1.14921e-56
1.03361e-07
4.19393e-30
4.35736e-27
-1.34288e-59
3.49589e-76
0.00618836
-1.55741e-92
-3.33534e-24
6.24469e-148
1.06415e-13
1.15937e-13
-1.71403e-197
-2.26314e-161
86.2403
-9.05174e-138
-1.62972e-83
5.62645e-33
-1.82399e-121
2.61783e-123
-6.63433e-106
-2.04863e-139
2.95719e-252
3.9553e-28
3.60623e-06
3.02958e-165
0.0114653
-4.07182e-101
-1.48689e-140
6.03409e-14
7.00014e-10
7.57479e-31
1.09084e-98
2.30962e-133
-1.53761e-50
141.79
-3.56735e-121
4.98559e-166
-3.49231e-172
2.11931e-119
4.67809e-68
4.52713e-36
-1.01553e-124
-1.15664e-83
-3.2695e-138
5.47875
6.62024e-10
3.27215e-56
3.64031e-44
-2.57142e-99
-2.91414e-140
9.04978e-22
0.979441
9.67911e-84
-1.24137e-170
-4.2213e-142
2.80149e-15
-2.37684e-122
7.94704e-150
1.62844e-12
6.28215e-100
-6.60827e-138
110.322
1.45354e-10
1.66371
1.05467e-21
1.82866e-123
4.5856e-19
2.15737e-11
0.107643
5.25904e-110
2.22591e-38
-7.41098e-248
0.0798294
6.89939e-287
-5.05351e-112
1.60623e-101
-3.05881e-170
2.32072e-50
6.59435e-100
1.80997e-121
-1.20043e-112
4.07669
1.2045e-15
7.94283e-51
-2.51996e-134
8.58583e-35
5.14495
1.38919e-10
1.32863e-48
-4.23702e-58
-7.2117e-113
-4.50196e-97
-1.15408e-168
-3.08549e-125
2.63914e-163
-5.20646e-137
-4.85721e-49
1.6909e-16
1.20869e-20
0.221146
4.4358e-05
1.22126e-09
1.74971e-28
0.0806677
1.02218e-151
1.02285e-05
-6.05404e-143
0.000846485
3.36481e-11
3.60907e-43
-1.6417e-123
4.47509e-42
1.26064e-29
4.21162e-79
56.6659
8.12297e-14
0.252287
-8.96224e-139
6.15358e-11
7.42592e-08
1.0151e-11
3.61972e-08
3.21098e-12
1.58748e-138
2.56098e-105
7.27058e-55
-1.58264e-128
5.30003e-34
-6.29462e-116
-2.77298e-45
-9.17762e-199
-7.67121e-105
4.22526e-29
1.41587e-45
-4.41417e-156
-1.88166e-53
0.544177
86.9133
-4.81467e-173
7.50665e-56
-1.63468e-95
1.44872e-11
2.6188e-35
4.30469
1.41856e-05
-2.05503e-112
1.70746e-48
5.71047e-08
-8.7379e-26
1.8702e-06
1.68883e-61
5.96208e-13
4.00045e-159
0.120594
8.01672e-12
-1.12816e-149
2.58774e-08
0.0173274
1.95198e-51
2.39135
-8.79921e-104
1.26623e-09
-8.63524e-90
-3.27997e-178
-4.43328e-84
7.31546e-94
0.0479734
3.31676e-08
0.0201203
-2.20155e-158
3.77992
1.45823e-43
7.15095e-15
-1.91695e-35
6.83975e-51
1.54218e-61
0.00840274
-5.06204e-102
-4.46665e-117
2.31287e-28
5.44273e-10
9.8507e-34
1.01934e-22
-1.18437e-65
0.0311914
8.93616e-34
2.40196e-34
3.13348e-10
1.26646e-186
1.9786e-08
1.72315e-17
9.69822e-09
8.23634e-88
0.000246861
-1.01919e-165
3.97946e-35
1.20095e-57
3.05897e-10
-2.03641e-81
2.45228e-29
2.54701e-09
75.6152
1.64491e-115
5.07166e-51
-3.24763e-54
3.87628e-15
8.03694e-25
-6.00443e-111
9.90819e-46
-6.64337e-167
12.2444
-5.85422e-259
-8.67655e-167
1.12212e-222
4.27979e-08
-8.29847e-136
-5.71667e-44
0.675348
3.45493e-64
1.38849e-66
-5.67475e-130
-7.55417e-211
1.46716e-10
9.15418e-172
8.76653e-48
7.74576e-14
-6.04917e-52
8.52567e-07
2.06881e-108
1.14759e-44
2.00684e-08
6.44427e-23
3.47382e-82
83.2898
1.82321e-263
-1.18798e-205
-1.57288e-99
193.774
-9.22641e-89
3.57654e-88
1.7106e-08
-1.45912e-123
1.52059e-106
9.16703e-18
1.53493e-06
2.72009e-37
0.00308706
1.04808e-123
1.4292e-101
1.26307e-54
2.76723e-59
2.00154e-10
-8.684e-145
5.92086e-85
-1.37831e-62
-1.9517e-18
-1.07021e-72
-7.4984e-158
-7.87836e-47
-1.41169e-20
2.40887e-223
2.65638e-220
1.4102e-05
1.02568e-36
2.95031e-05
-9.63233e-106
1.76734e-281
-2.69641e-19
4.1505e-08
2.00133e-154
-2.23745e-119
6.29567e-168
10.1228
2.8644e-223
1.0684e-38
1.35612e-05
-3.25727e-217
-6.26115e-209
1.63551e-23
-1.19228e-181
1.09988e-219
6.05424e-53
9.11861e-15
-1.16381e-159
2.77487e-25
-4.07302e-173
1.26263e-08
5.11885e-284
2.61627e-08
3.39559e-14
5.2268e-27
-1.0046e-216
1.27709e-18
4.44321
7.64551e-116
2.50506e-54
5.57997e-185
3.46729e-15
-3.3619e-175
1.25403e-07
3.25847e-11
4.78273e-97
-1.51668e-218
9.08961e-15
8.67939e-16
4.23346e-60
6.8453e-59
5.44138e-18
-1.10619e-179
2.25012e-19
-1.90719e-220
1.11542e-06
1.09847e-09
1.11261e-11
4.03482e-26
-1.83722e-25
6.03609
2.49596e-29
1.75842e-57
2.32428e-16
3.57322e-114
5.15333e-16
7.92039e-18
-4.16707e-50
8.20264e-96
0.0532279
-6.85713e-240
0.0219443
103.789
-3.53526e-128
3.04578e-10
56.2872
1.47351e-39
4.5005e-55
5.30219e-20
-4.78193e-61
-5.57994e-165
7.46003e-09
0.00710445
0.586665
-5.49316e-115
2.27502e-22
7.85394e-05
1.83394e-15
3.33365e-136
-1.16184e-200
4.20523e-44
0.00868698
1.02782e-09
3.61611e-18
4.79356e-271
-3.16051e-176
3.73074e-16
-7.85486e-123
2.05776e-52
-9.83048e-118
-5.56117e-214
3.7419e-08
-2.32165e-104
2.20946e-05
5.03448e-59
-1.48583e-192
-2.50057e-201
1.74628e-16
-2.758e-116
2.31027e-39
6.23208e-18
0.175787
-1.98248e-56
1.18692e-158
5.36156e-07
-8.337e-102
-1.0902e-168
2.41642e-82
1.59508e-15
-1.81537e-114
2.8641e-15
6.35463e-55
195.213
1.33348e-16
-1.77142e-149
1.44603e-05
6.3174e-222
3.82646e-10
3.11185e-44
1.85441e-06
0.00180417
-2.31184e-51
3.74447e-05
-1.15313e-190
3.9155e-10
5.86197e-133
2.95834e-57
4.11816e-06
4.54377e-33
1.88479e-06
0.00871107
-1.05876e-21
5.14893e-09
6.84319e-07
3.75215e-155
-2.88341e-171
1.20173e-220
4.29279e-05
-1.12481e-26
2.87212e-153
2.32549e-08
1.05126e-06
2.62236e-48
5.37614e-17
3.21447e-65
-1.40907e-38
0.000266917
4.79696e-81
7.59637e-38
5.10256e-40
6.5223e-248
-7.74299e-246
-1.76842e-155
-1.15497e-114
5.40534e-60
-3.35343e-194
4.07846e-99
-1.33527e-114
6.03885e-70
8.34855e-28
2.41755e-135
1.77433e-07
6.99841e-286
4.723e-13
1.04773e-06
-2.33501e-148
2.01202e-05
1.98791e-15
6.15544e-07
-1.51699e-71
1.54744e-18
1.18602e-125
4.54593e-45
1.09165e-57
-2.9185e-203
-4.50429e-134
4.86717e-103
-1.55756e-146
1.27316e-227
9.29514e-62
2.72012e-229
-2.60424e-34
1.06329e-28
0.0410304
-3.97701e-196
-3.69001e-69
-2.55094e-192
-8.03894e-122
4.13055e-24
-4.43674e-72
1.43369e-150
118.12
1.04296e-15
1.21024e-36
1.26906e-67
3.92942e-17
4.18045e-26
8.41467e-83
3.89845e-22
5.4315e-15
5.15218e-114
-1.78435e-222
-3.92083e-94
5.46962e-09
-1.85415e-171
-1.69928e-156
4.57659e-15
-5.64078e-127
-7.71601e-123
3.44003e-92
-6.86886e-158
0.000249875
-3.31111e-194
-2.28312e-158
4.36841e-27
2.6745e-22
2.47513
1.58526e-14
-3.76174e-66
-4.52809e-150
2.59523e-21
-6.47978e-152
1.30133e-31
5.23813e-67
-1.55819e-114
1.40974e-06
-3.30392e-215
3.1782e-25
3.14964e-60
1.12631e-16
-5.73325e-48
-1.67651e-232
-2.16669e-115
2.89009e-284
4.66699e-29
-5.02299e-175
1.88126e-21
5.28186e-53
-1.15341e-103
-4.47276e-64
1.4343e-46
8.6801e-226
1.32717e-24
7.77612e-27
-6.43168e-116
4.67875e-26
1.25903e-08
-9.29391e-213
1.41695e-46
1.70343e-12
6.03252e-17
-4.22491e-85
-6.65765e-49
-2.102e-47
6.78006e-56
-7.97505e-82
2.58093e-16
8.48456e-83
-1.48747e-147
-3.40003e-149
0.00115083
2.00358e-09
5.59619e-06
4.48786e-07
-1.48814e-39
2.53568e-23
7.92489e-53
6.4218e-23
7.30841e-150
0.993582
-8.25587e-122
8.87677e-07
1.34683e-13
-1.1971e-153
-3.66645e-28
7.01014e-10
2.70848e-07
6.02694e-51
4.04106e-31
8.22051e-152
-2.6982e-248
1.03225e-16
-4.64606e-224
-6.52952e-197
5.18278e-19
2.32896e-121
-1.6026e-75
8.77105e-157
-2.55878e-104
6.94049e-17
9.22504
-7.48024e-121
-5.13579e-128
5.01125e-10
-8.79187e-43
4.43733e-12
5.82834e-29
6.51309e-29
-5.55191e-125
-8.05434e-45
7.90895e-23
5.69058e-19
-9.09789e-34
2.48839e-170
9.89216e-12
3.07218e-36
5.09008e-22
9.7769e-97
-2.13895e-154
1.23527e-18
-1.43624e-117
-7.56164e-215
1.86676e-26
3.28415e-09
-1.53867e-195
1.78618e-26
4.10159e-56
1.48329e-133
-5.24206e-86
-1.62157e-133
1.6292e-26
-2.33229e-147
-3.19736e-156
2.79406e-57
4.65892e-27
-3.43627e-45
7.87973e-33
8.91632
8.55369e-117
3.48684e-69
0.0537432
1.72501e-39
-4.05962e-135
1.23507e-37
1.83818e-06
-1.00967e-203
-2.91157e-126
-1.41674e-216
2.06563e-30
3.09769e-16
-7.98586e-60
3.49533e-231
-3.13937e-90
-8.22573e-81
8.94873e-104
3.01085e-10
2.75199e-120
2.23438e-229
7.23522e-226
3.14415e-33
6.62264e-52
5.43597e-06
-2.85888e-94
-6.73523e-55
7.15313e-43
1.09197e-19
-1.94693e-169
3.1328e-27
-1.46658e-207
-1.19364e-197
-1.87894e-224
3.46618e-11
-7.60921e-123
2.50228e-28
1.40383e-31
4.76607e-32
7.68792e-21
1.69716e-32
4.92484e-15
1.20393e-28
1.52437e-117
1.00391e-37
-1.07991e-53
9.75435e-42
1.28959e-23
-2.92461e-125
33.3308
1.2001e-18
3.76157e-21
-6.36358e-195
1.01606
4.81875e-20
4.17865e-22
1.43175e-34
2.47861e-12
-9.76486e-71
1.2321e-114
-4.06036e-106
1.24982e-112
2.81225e-106
1.5583e-20
1.28239e-24
-2.81272e-129
1.95397e-31
2.06755e-105
-7.97511e-106
5.95106e-65
-9.15644e-53
1.50502e-85
2.86603e-63
-6.10114e-51
2.29967e-35
2.30021e-29
1.24262e-58
-9.69595e-204
-2.95562e-96
-3.89656e-116
4.61483e-12
-2.17648e-173
-5.48444e-126
1.00276e-30
0.339217
7.23557e-148
1.0588e-05
8.50847e-153
-4.11369e-119
3.54631e-56
1.256e-34
6.37232e-41
9.97516e-170
8.22823e-26
2.66422e-27
1.01976e-12
-9.46663e-196
9.26828e-34
3.8371e-50
9.13282e-73
-4.57233e-223
6.59368e-270
-4.20326e-31
1.91408e-51
2.55886e-74
36.0187
3.33429e-27
2.04705e-38
-1.08384e-27
2.36247e-58
3.54485e-12
1.31258e-115
-6.93025e-61
-6.15782e-91
-5.52168e-102
0.000573506
1.44949e-32
1.21072e-25
3.39645e-43
2.54986e-163
1.02638e-24
7.90554e-24
4.83462e-09
-2.96985e-101
8.06046e-39
1.55862e-05
2.64081e-05
9.72775e-155
3.70909e-07
5.35966e-65
14.0731
-4.46207e-212
4.13873e-29
4.98554e-44
3.10735e-239
1.21186e-20
3.17822e-81
-1.16169e-90
9.97733e-16
5.08073e-05
9.87163e-10
-2.10275e-88
4.95182e-32
-1.03079e-210
-7.45985e-118
1.02681e-06
1.95261e-35
3.48482e-97
6.33259e-25
-3.22124e-24
2.16055e-33
2.24406e-50
1.68308e-46
2.2793e-31
0.000223386
1.9291e-162
5.78171e-49
8.64999e-62
1.07454e-31
4.61931e-08
1.48489e-29
3.71112e-39
-1.04585e-86
-6.60006e-216
3.75369e-30
1.78055e-37
2.38826e-28
-1.46083e-166
-6.47216e-70
4.49318e-35
5.51809e-31
-8.4808e-27
1.13428e-25
7.73186e-90
2.21243e-35
-1.80825e-124
1.1704e-18
9.62311e-66
2.32045e-29
-1.81947e-71
-7.5195e-87
1.17206e-30
-6.27934e-70
6.48839e-79
-1.02638e-95
-3.96589e-163
1.45035e-42
-1.14203e-58
4.64932e-67
3.75481
0.00305721
-3.84598e-131
5.27104e-99
-2.94494e-49
1.63519e-50
-1.48023e-230
7.2757e-34
-5.38047e-41
4.60062e-35
-8.24373e-213
3.91454e-15
6.12348e-26
7.21092e-18
3.29711e-34
-1.40047e-196
-1.94613e-107
5.351e-76
4.04812e-35
8.56959e-10
9.65696
-3.5916e-159
-2.12206e-76
1.3455e-84
1.01091e-08
7.57194e-05
1.44043e-09
2.02577e-59
2.97449e-29
-7.3459e-211
9.28756e-47
-6.58968e-60
-3.0111e-157
-1.74837e-24
-9.24013e-52
2.56903e-42
5.42293e-28
1.21328e-80
1.74241e-51
5.12188e-38
-3.90738e-197
-4.57075e-298
-8.69914e-53
-4.71028e-76
4.24519e-09
6.91668e-63
-2.67254e-25
7.38083e-15
-1.09279e-46
-3.1251e-160
-9.45497e-68
7.56611e-27
-2.12054e-161
0.00784684
0.00082029
-7.0365e-132
-5.19082e-207
-4.6928e-124
1.62322e-162
4.21473e-240
1.60291e-69
-6.33369e-82
1.29239e-36
7.47632e-52
5.85381e-37
-9.51012e-56
4.65064e-08
4.12165e-28
1.33043e-36
5.37285e-54
6.42096e-64
3.1421e-41
-1.15748e-197
-3.18986e-85
4.3903e-84
-9.52548e-36
-5.39726e-29
2.30598e-10
5.90403e-243
-4.00145e-30
1.64411e-45
3.14659e-60
1.21533e-25
-2.23777e-45
4.9208e-28
0.000159076
2.10368e-47
1.08505e-20
2.72265e-63
-6.22152e-103
-1.52503e-48
4.27875e-39
5.38629e-164
1.18126e-54
0.00181223
-9.05319e-90
2.0346e-05
8.10708e-156
4.49176e-39
-1.27881e-104
3.99982e-91
8.42452e-34
-5.64071e-23
5.89913e-26
7.73704e-84
1.81182e-57
1.50426e-60
3.07713e-20
3.91735e-21
-1.9156e-52
1.72653e-13
1.01477e-238
6.3837e-50
5.51157
4.19272e-16
8.01263e-87
0.0652381
7.48704e-25
1.40884e-80
-3.18801e-182
9.84285e-12
3.17222e-39
3.60299e-62
-5.67663e-43
-1.58369e-166
1.49129e-30
-3.54827e-94
4.33248e-18
1.4013e-41
2.36465e-38
1.43069e-33
1.8382e-290
-3.28706e-121
3.04598e-68
-6.94158e-105
-2.93619e-107
1.49277e-64
-2.80912e-86
6.25496e-78
-2.83024e-27
3.04821e-31
2.659e-226
7.21182e-21
-7.10711e-119
-2.33576e-196
-6.78336e-31
7.64692e-149
1.39747e-62
2.487e-63
6.4368e-166
1.77701e-161
-2.17755e-97
6.89989e-35
-3.40006e-70
1.8798e-36
8.26801e-44
-7.77272e-30
1.98642e-30
3.76515e-63
7.61739e-53
3.52106e-44
-7.02942e-258
-1.04369e-68
-9.38655e-93
1.02244e-64
0.00575769
2.92476e-37
7.49099e-81
-2.42228e-50
-2.59147e-72
8.27969e-83
2.65855e-86
-1.00442e-71
6.31432e-87
-8.89376e-37
2.30486e-46
-3.12158e-198
4.58196e-36
-1.9281e-57
6.97383e-34
-2.31315e-182
-1.52321e-31
4.11911e-06
-3.95488e-114
-1.15794e-45
8.54162e-26
-1.16488e-132
2.66382e-30
2.43872e-17
5.04938e-42
-2.1034e-43
8.92041e-20
3.87231e-51
-6.09868e-58
7.86697e-47
7.46551e-32
2.9431e-146
1.14684e-90
1.53035e-247
5.74863e-117
-3.03655e-183
1.38006e-55
5.241e-50
4.17659e-32
9.68051e-48
4.23776
-8.93711e-23
10.5942
1.15021e-44
3.75563e-11
1.71191
2.15821e-18
13.1512
5.35029e-88
1.73653e-53
-1.2683e-62
2.1191e-66
6.3764e-53
8.14214e-122
2.62065e-58
9.8003e-106
-3.10552e-184
-1.71761e-59
0.447408
2.77183e-58
8.39499e-33
2.60541e-60
-3.77233e-99
4.75404e-47
-3.46405e-50
-2.7245e-118
1.50715e-55
-2.19773e-97
2.49532e-27
7.52871e-45
3.18535e-47
-1.5613e-48
0.00286583
3.76934e-14
1.55397e-31
1.58605e-64
44.7141
5.40344e-60
-1.06399e-63
8.11498e-34
-6.42326e-33
-7.48199e-69
4.54243e-22
-1.49178e-159
-2.41868e-42
-3.81684e-31
1.55271e-49
1.01151e-50
-4.71987e-86
-8.76415e-53
-1.63573e-38
2.39853e-86
3.58932e-34
1.4429e-59
4.10634e-77
7.60332e-158
1.96279e-67
2.79905e-48
-1.59145e-93
6.06335e-64
7.02138e-77
-1.27265e-120
-3.70444e-38
-7.10663e-96
2.94079e-18
6.68888e-53
8.2364e-74
4.16143e-167
4.43291e-115
1.37469e-23
6.41359e-53
-2.41451e-220
2.81546e-52
1.60997
8.44892e-34
-6.26818e-88
1.24167e-64
0.00162736
0.0984841
15.9187
1.00685e-108
8.62661e-111
8.54604e-116
6.96985e-76
6.61768e-36
6.22775e-07
3.20341e-05
2.17489e-15
2.0191e-31
-2.28612e-93
-7.77747e-179
-2.8758e-176
-7.39303e-31
-1.16967e-87
3.12643e-30
-4.54077e-109
5.40038e-11
6.91624e-103
6.91736e-54
2.63703e-13
-4.79787e-48
4.84565e-27
1.70929e-121
1.0224e-55
-1.48702e-194
2.17833e-23
4.03209e-32
3.24944e-85
-3.38547e-185
-5.70992e-78
-2.11047e-27
6.87746e-124
-1.95217e-51
0.0011498
-2.20259e-206
-6.86848e-82
-9.16908e-44
-2.84345e-44
8.9382e-56
-4.20069e-136
-4.41567e-123
1.5215e-120
2.7195e-229
-4.7039e-175
1.84244e-76
6.51617e-40
-7.46772e-196
-1.13659e-84
-1.18899e-127
144.004
-4.88035e-32
1.38197e-118
7.0845e-245
4.97607e-32
1.52825e-58
6.34806e-25
8.37809e-54
-3.72724e-58
-2.62353e-187
-8.22039e-119