/*--------------------------------*- C++ -*----------------------------------*\
  =========                 |
  \\      /  F ield         | OpenFOAM: The Open Source CFD Toolbox
   \\    /   O peration     | Website:  https://openfoam.org
    \\  /    A nd           | Version:  7
     \\/     M anipulation  |
\*---------------------------------------------------------------------------*/
FoamFile
{
    version     2.0;
    format      ascii;
    class       surfaceScalarField;
    location    "0.152";
    object      phi;
}
// * * * * * * * * * * * * * * * * * * * * * * * * * * * * * * * * * * * * * //

dimensions      [0 3 -1 0 0 0 0];

internalField   nonuniform List<scalar> 
79600
(
5.31151e-13
-1.6601e-12
1.24206e-11
-1.18896e-11
3.22627e-11
-1.98423e-11
5.63567e-11
-2.4094e-11
8.17028e-11
-2.53465e-11
1.06032e-10
-2.43298e-11
1.2766e-10
-2.16276e-11
1.45352e-10
-1.7692e-11
1.58212e-10
-1.28595e-11
1.65591e-10
-7.3788e-12
1.67027e-10
-1.43638e-12
1.62202e-10
4.82596e-12
1.50903e-10
1.12985e-11
1.33008e-10
1.78958e-11
1.08458e-10
2.45501e-11
7.72506e-11
3.12076e-11
3.94259e-11
3.7825e-11
-4.94111e-12
4.43673e-11
-5.57465e-11
5.08058e-11
-1.12864e-10
5.71175e-11
-1.76146e-10
6.32832e-11
-2.45433e-10
6.92874e-11
-3.2055e-10
7.51175e-11
-4.01312e-10
8.07629e-11
-4.87527e-10
8.62154e-11
-5.78994e-10
9.14681e-11
-6.75509e-10
9.65156e-11
-7.76862e-10
1.01354e-10
-8.82841e-10
1.05979e-10
-9.93229e-10
1.10389e-10
-1.10781e-09
1.14583e-10
-1.22637e-09
1.18559e-10
-1.34868e-09
1.22316e-10
-1.47454e-09
1.25856e-10
-1.60371e-09
1.29177e-10
-1.73599e-09
1.32281e-10
-1.87116e-09
1.35169e-10
-2.009e-09
1.37842e-10
-2.1493e-09
1.40302e-10
-2.29185e-09
1.42551e-10
-2.43644e-09
1.4459e-10
-2.58286e-09
1.46422e-10
-2.73091e-09
1.48049e-10
-2.88038e-09
1.49474e-10
-3.03108e-09
1.50699e-10
-3.18281e-09
1.51726e-10
-3.33537e-09
1.52559e-10
-3.48856e-09
1.53201e-10
-3.64222e-09
1.53653e-10
-3.79614e-09
1.5392e-10
-3.95014e-09
1.54004e-10
-4.10405e-09
1.53909e-10
-4.25768e-09
1.53637e-10
-4.41087e-09
1.53191e-10
-4.56345e-09
1.52575e-10
-4.71524e-09
1.51793e-10
-4.86608e-09
1.50846e-10
-5.01582e-09
1.49739e-10
-5.16429e-09
1.48475e-10
-5.31135e-09
1.47057e-10
-5.45684e-09
1.45489e-10
-5.60061e-09
1.43773e-10
-5.74252e-09
1.41913e-10
-5.88243e-09
1.39913e-10
-6.02021e-09
1.37776e-10
-6.15571e-09
1.35504e-10
-6.28881e-09
1.33103e-10
-6.41939e-09
1.30574e-10
-6.54731e-09
1.27922e-10
-6.67246e-09
1.25149e-10
-6.79471e-09
1.2226e-10
-6.91397e-09
1.19257e-10
-7.03011e-09
1.16144e-10
-7.14304e-09
1.12925e-10
-7.25264e-09
1.09602e-10
-7.35882e-09
1.0618e-10
-7.46148e-09
1.02661e-10
-7.56053e-09
9.90501e-11
-7.65588e-09
9.53494e-11
-7.74744e-09
9.15629e-11
-7.83513e-09
8.76939e-11
-7.91888e-09
8.37462e-11
-7.9986e-09
7.97231e-11
-8.07423e-09
7.56282e-11
-8.14569e-09
7.1465e-11
-8.21293e-09
6.72372e-11
-8.27588e-09
6.29484e-11
-8.33448e-09
5.8602e-11
-8.38868e-09
5.42018e-11
-8.43843e-09
4.97515e-11
-8.48369e-09
4.52546e-11
-8.5244e-09
4.07149e-11
-8.56054e-09
3.61361e-11
-8.59206e-09
3.1522e-11
-8.61893e-09
2.68763e-11
-8.64114e-09
2.22028e-11
-8.65864e-09
1.75053e-11
-8.67143e-09
1.27878e-11
-8.67948e-09
8.05408e-12
-8.68279e-09
3.30805e-12
-8.68134e-09
-1.44634e-12
-8.67514e-09
-6.20512e-12
-8.66417e-09
-1.09643e-11
-8.64845e-09
-1.57198e-11
-8.62799e-09
-2.04677e-11
-8.60278e-09
-2.52037e-11
-8.57286e-09
-2.99238e-11
-8.53824e-09
-3.46239e-11
-8.49894e-09
-3.92998e-11
-8.45499e-09
-4.39472e-11
-8.40643e-09
-4.8562e-11
-8.35329e-09
-5.31399e-11
-8.29561e-09
-5.76767e-11
-8.23344e-09
-6.21679e-11
-8.16683e-09
-6.66094e-11
-8.09584e-09
-7.09968e-11
-8.02051e-09
-7.53256e-11
-7.94092e-09
-7.95916e-11
-7.85713e-09
-8.37903e-11
-7.76921e-09
-8.79174e-11
-7.67725e-09
-9.19684e-11
-7.58131e-09
-9.5939e-11
-7.48148e-09
-9.98247e-11
-7.37786e-09
-1.03621e-10
-7.27054e-09
-1.07324e-10
-7.15961e-09
-1.10928e-10
-7.04518e-09
-1.1443e-10
-6.92736e-09
-1.17825e-10
-6.80625e-09
-1.21109e-10
-6.68197e-09
-1.24277e-10
-6.55465e-09
-1.27325e-10
-6.4244e-09
-1.30248e-10
-6.29136e-09
-1.33043e-10
-6.15566e-09
-1.35705e-10
-6.01743e-09
-1.38229e-10
-5.87681e-09
-1.40613e-10
-5.73396e-09
-1.42851e-10
-5.58903e-09
-1.44939e-10
-5.44215e-09
-1.46874e-10
-5.2935e-09
-1.48651e-10
-5.14323e-09
-1.50267e-10
-4.99152e-09
-1.51718e-10
-4.83852e-09
-1.53e-10
-4.68441e-09
-1.54109e-10
-4.52937e-09
-1.55041e-10
-4.37358e-09
-1.55794e-10
-4.21721e-09
-1.56364e-10
-4.06047e-09
-1.56747e-10
-3.90353e-09
-1.56941e-10
-3.74659e-09
-1.56942e-10
-3.58984e-09
-1.56747e-10
-3.43349e-09
-1.56354e-10
-3.27773e-09
-1.5576e-10
-3.12277e-09
-1.54962e-10
-2.96881e-09
-1.53958e-10
-2.81607e-09
-1.52745e-10
-2.66474e-09
-1.51323e-10
-2.51506e-09
-1.49688e-10
-2.36722e-09
-1.4784e-10
-2.22144e-09
-1.45776e-10
-2.07795e-09
-1.43496e-10
-1.93695e-09
-1.40998e-10
-1.79867e-09
-1.38282e-10
-1.66332e-09
-1.35348e-10
-1.53113e-09
-1.32194e-10
-1.4023e-09
-1.28822e-10
-1.27707e-09
-1.25231e-10
-1.15565e-09
-1.21423e-10
-1.03825e-09
-1.174e-10
-9.2509e-10
-1.13162e-10
-8.16379e-10
-1.08712e-10
-7.12327e-10
-1.04053e-10
-6.13139e-10
-9.91883e-11
-5.19016e-10
-9.41229e-11
-4.30155e-10
-8.88618e-11
-3.46743e-10
-8.34113e-11
-2.68965e-10
-7.77789e-11
-1.96991e-10
-7.19735e-11
-1.30985e-10
-6.60057e-11
-7.10976e-11
-5.98878e-11
-1.74632e-11
-5.36346e-11
2.98004e-11
-4.72638e-11
7.05968e-11
-4.07964e-11
1.04855e-10
-3.42577e-11
1.32533e-10
-2.76784e-11
1.53629e-10
-2.10953e-11
1.68183e-10
-1.45537e-11
1.76292e-10
-8.10878e-12
1.78122e-10
-1.82973e-12
1.73927e-10
4.19639e-12
1.64068e-10
9.85897e-12
1.49051e-10
1.50167e-11
1.29565e-10
1.9485e-11
1.06547e-10
2.30181e-11
8.12658e-11
2.52844e-11
5.54316e-11
2.58403e-11
3.13199e-11
2.41174e-11
1.18947e-11
1.94195e-11
7.83327e-13
1.10868e-11
7.5689e-13
1.13056e-11
-1.29656e-11
4.26003e-11
-4.31837e-11
8.81161e-11
-6.53578e-11
1.41396e-10
-7.73736e-11
1.96508e-10
-8.04573e-11
2.48456e-10
-7.62773e-11
2.93214e-10
-6.63862e-11
3.27622e-10
-5.21008e-11
3.49244e-10
-3.44808e-11
3.56227e-10
-1.43619e-11
3.47192e-10
7.59912e-12
3.21134e-10
3.08836e-11
2.77353e-10
5.50795e-11
2.15391e-10
7.98574e-11
1.34989e-10
1.04952e-10
3.60473e-11
1.30149e-10
-8.14012e-11
1.55274e-10
-2.17216e-10
1.80182e-10
-3.71166e-10
2.04756e-10
-5.42948e-10
2.28899e-10
-7.32196e-10
2.52532e-10
-9.38495e-10
2.75586e-10
-1.16139e-09
2.98009e-10
-1.40038e-09
3.19754e-10
-1.65495e-09
3.40784e-10
-1.92455e-09
3.61069e-10
-2.20862e-09
3.80584e-10
-2.50657e-09
3.9931e-10
-2.81782e-09
4.17229e-10
-3.14176e-09
4.34331e-10
-3.47779e-09
4.50607e-10
-3.82528e-09
4.6605e-10
-4.18362e-09
4.80656e-10
-4.55219e-09
4.94423e-10
-4.93036e-09
5.07351e-10
-5.31752e-09
5.19441e-10
-5.71305e-09
5.30697e-10
-6.11633e-09
5.41121e-10
-6.52674e-09
5.5072e-10
-6.94369e-09
5.59499e-10
-7.36657e-09
5.67464e-10
-7.79477e-09
5.74624e-10
-8.22771e-09
5.80987e-10
-8.66479e-09
5.86561e-10
-9.10545e-09
5.91356e-10
-9.54911e-09
5.95382e-10
-9.9952e-09
5.98648e-10
-1.04432e-08
6.01165e-10
-1.08925e-08
6.02945e-10
-1.13425e-08
6.03998e-10
-1.17929e-08
6.04336e-10
-1.22429e-08
6.0397e-10
-1.26922e-08
6.02913e-10
-1.31402e-08
6.01176e-10
-1.35864e-08
5.98772e-10
-1.40303e-08
5.95713e-10
-1.44715e-08
5.92012e-10
-1.49094e-08
5.8768e-10
-1.53437e-08
5.82732e-10
-1.57738e-08
5.77179e-10
-1.61993e-08
5.71034e-10
-1.66199e-08
5.64311e-10
-1.7035e-08
5.57023e-10
-1.74442e-08
5.49182e-10
-1.78473e-08
5.40802e-10
-1.82437e-08
5.31895e-10
-1.8633e-08
5.22476e-10
-1.9015e-08
5.12557e-10
-1.93892e-08
5.02151e-10
-1.97554e-08
4.91272e-10
-2.0113e-08
4.79934e-10
-2.04619e-08
4.68149e-10
-2.08017e-08
4.55931e-10
-2.11321e-08
4.43294e-10
-2.14527e-08
4.3025e-10
-2.17634e-08
4.16815e-10
-2.20637e-08
4.03e-10
-2.23535e-08
3.8882e-10
-2.26324e-08
3.74288e-10
-2.29003e-08
3.59419e-10
-2.31568e-08
3.44226e-10
-2.34018e-08
3.28722e-10
-2.3635e-08
3.12922e-10
-2.38562e-08
2.9684e-10
-2.40652e-08
2.80489e-10
-2.42619e-08
2.63884e-10
-2.4446e-08
2.47039e-10
-2.46173e-08
2.29968e-10
-2.47758e-08
2.12685e-10
-2.49213e-08
1.95206e-10
-2.50535e-08
1.77543e-10
-2.51725e-08
1.59713e-10
-2.52781e-08
1.4173e-10
-2.53702e-08
1.23608e-10
-2.54487e-08
1.05362e-10
-2.55135e-08
8.70075e-11
-2.55646e-08
6.85596e-11
-2.56018e-08
5.00333e-11
-2.56252e-08
3.14441e-11
-2.56347e-08
1.28072e-11
-2.56303e-08
-5.86173e-12
-2.56119e-08
-2.45471e-11
-2.55797e-08
-4.3233e-11
-2.55335e-08
-6.19038e-11
-2.54734e-08
-8.05434e-11
-2.53995e-08
-9.91356e-11
-2.53117e-08
-1.17664e-10
-2.52102e-08
-1.36113e-10
-2.50951e-08
-1.54466e-10
-2.49663e-08
-1.72706e-10
-2.48241e-08
-1.90816e-10
-2.46684e-08
-2.08781e-10
-2.44995e-08
-2.26582e-10
-2.43175e-08
-2.44204e-10
-2.41225e-08
-2.61629e-10
-2.39146e-08
-2.7884e-10
-2.36941e-08
-2.95821e-10
-2.34612e-08
-3.12553e-10
-2.32159e-08
-3.2902e-10
-2.29586e-08
-3.45205e-10
-2.26895e-08
-3.61089e-10
-2.24088e-08
-3.76657e-10
-2.21167e-08
-3.9189e-10
-2.18136e-08
-4.06772e-10
-2.14996e-08
-4.21285e-10
-2.11751e-08
-4.35411e-10
-2.08404e-08
-4.49134e-10
-2.04958e-08
-4.62437e-10
-2.01416e-08
-4.75301e-10
-1.97782e-08
-4.87711e-10
-1.94059e-08
-4.99649e-10
-1.9025e-08
-5.11098e-10
-1.8636e-08
-5.22041e-10
-1.82393e-08
-5.32463e-10
-1.78351e-08
-5.42346e-10
-1.74241e-08
-5.51675e-10
-1.70065e-08
-5.60433e-10
-1.65828e-08
-5.68604e-10
-1.61535e-08
-5.76173e-10
-1.57191e-08
-5.83125e-10
-1.52799e-08
-5.89443e-10
-1.48365e-08
-5.95114e-10
-1.43894e-08
-6.00124e-10
-1.3939e-08
-6.04457e-10
-1.3486e-08
-6.081e-10
-1.30307e-08
-6.11039e-10
-1.25738e-08
-6.13262e-10
-1.21158e-08
-6.14756e-10
-1.16572e-08
-6.15509e-10
-1.11987e-08
-6.15509e-10
-1.07407e-08
-6.14744e-10
-1.02838e-08
-6.13205e-10
-9.82869e-09
-6.10881e-10
-9.37588e-09
-6.07763e-10
-8.926e-09
-6.03842e-10
-8.47964e-09
-5.99109e-10
-8.0374e-09
-5.93558e-10
-7.59991e-09
-5.87181e-10
-7.16777e-09
-5.79974e-10
-6.74162e-09
-5.7193e-10
-6.32207e-09
-5.63045e-10
-5.90975e-09
-5.53318e-10
-5.50528e-09
-5.42744e-10
-5.10931e-09
-5.31325e-10
-4.72244e-09
-5.1906e-10
-4.34531e-09
-5.0595e-10
-3.97854e-09
-4.92e-10
-3.62275e-09
-4.77214e-10
-3.27855e-09
-4.61598e-10
-2.94655e-09
-4.45162e-10
-2.62735e-09
-4.27916e-10
-2.32153e-09
-4.09873e-10
-2.02967e-09
-3.91051e-10
-1.75232e-09
-3.71469e-10
-1.49003e-09
-3.51149e-10
-1.24332e-09
-3.3012e-10
-1.01269e-09
-3.08414e-10
-7.98591e-10
-2.8607e-10
-6.01464e-10
-2.63132e-10
-4.21699e-10
-2.39653e-10
-2.59637e-10
-2.15696e-10
-1.15566e-10
-1.91335e-10
1.02956e-11
-1.66658e-10
1.17806e-10
-1.41768e-10
2.06919e-10
-1.16791e-10
2.77699e-10
-9.18759e-11
3.3035e-10
-6.72039e-11
3.65236e-10
-4.29945e-11
3.82921e-10
-1.95162e-11
3.84219e-10
2.8993e-12
3.70239e-10
2.38398e-11
3.42469e-10
4.27894e-11
3.02853e-10
5.91005e-11
2.53913e-10
7.19555e-11
1.98864e-10
8.03265e-11
1.41748e-10
8.295e-11
8.75185e-11
7.83578e-11
4.19555e-11
6.50198e-11
1.11283e-11
4.19595e-11
1.18652e-11
1.95864e-11
-3.25521e-11
6.49783e-11
-8.85756e-11
1.26754e-10
-1.27134e-10
1.9652e-10
-1.4714e-10
2.66675e-10
-1.50612e-10
3.30628e-10
-1.40229e-10
3.8286e-10
-1.18618e-10
4.18867e-10
-8.81077e-11
4.35046e-10
-5.06598e-11
4.28569e-10
-7.8854e-12
3.97264e-10
3.8905e-11
3.39498e-10
8.86497e-11
2.54092e-10
1.40486e-10
1.40239e-10
1.93711e-10
-2.55971e-12
2.47751e-10
-1.74544e-10
3.02134e-10
-3.75742e-10
3.56472e-10
-6.06005e-10
4.10445e-10
-8.65033e-10
4.63784e-10
-1.1524e-09
5.1627e-10
-1.46759e-09
5.67717e-10
-1.80997e-09
6.17971e-10
-2.17887e-09
6.66905e-10
-2.57352e-09
7.14412e-10
-2.99314e-09
7.60402e-10
-3.43688e-09
8.04804e-10
-3.90385e-09
8.47556e-10
-4.39315e-09
8.88611e-10
-4.90385e-09
9.27928e-10
-5.43499e-09
9.65477e-10
-5.98561e-09
1.00123e-09
-6.55474e-09
1.03518e-09
-7.14139e-09
1.06731e-09
-7.74457e-09
1.0976e-09
-8.36328e-09
1.12606e-09
-8.99654e-09
1.1527e-09
-9.64334e-09
1.1775e-09
-1.03027e-08
1.20048e-09
-1.09736e-08
1.22165e-09
-1.16551e-08
1.24102e-09
-1.23463e-08
1.2586e-09
-1.30461e-08
1.27441e-09
-1.37535e-08
1.28846e-09
-1.44677e-08
1.30077e-09
-1.51878e-08
1.31137e-09
-1.59126e-08
1.32027e-09
-1.66415e-08
1.32749e-09
-1.73734e-08
1.33306e-09
-1.81074e-08
1.337e-09
-1.88428e-08
1.33933e-09
-1.95785e-08
1.34008e-09
-2.03138e-08
1.33928e-09
-2.10478e-08
1.33694e-09
-2.17798e-08
1.3331e-09
-2.25088e-08
1.32778e-09
-2.32341e-08
1.32101e-09
-2.39549e-08
1.31281e-09
-2.46704e-08
1.30322e-09
-2.53799e-08
1.29226e-09
-2.60827e-08
1.27996e-09
-2.6778e-08
1.26635e-09
-2.74652e-08
1.25146e-09
-2.81435e-08
1.23531e-09
-2.88122e-08
1.21793e-09
-2.94707e-08
1.19936e-09
-3.01185e-08
1.17961e-09
-3.07547e-08
1.15873e-09
-3.13789e-08
1.13674e-09
-3.19904e-08
1.11367e-09
-3.25887e-08
1.08955e-09
-3.31732e-08
1.06441e-09
-3.37433e-08
1.03827e-09
-3.42985e-08
1.01118e-09
-3.48384e-08
9.83148e-10
-3.53624e-08
9.54218e-10
-3.587e-08
9.24416e-10
-3.63607e-08
8.93772e-10
-3.68342e-08
8.62317e-10
-3.729e-08
8.30081e-10
-3.77277e-08
7.97094e-10
-3.81469e-08
7.63387e-10
-3.85471e-08
7.28992e-10
-3.89281e-08
6.93938e-10
-3.92896e-08
6.58257e-10
-3.96311e-08
6.2198e-10
-3.99523e-08
5.85139e-10
-4.0253e-08
5.47765e-10
-4.0533e-08
5.0989e-10
-4.07918e-08
4.71545e-10
-4.10294e-08
4.32763e-10
-4.12454e-08
3.93577e-10
-4.14397e-08
3.54017e-10
-4.16121e-08
3.14118e-10
-4.17624e-08
2.73913e-10
-4.18905e-08
2.33433e-10
-4.19962e-08
1.92713e-10
-4.20794e-08
1.51787e-10
-4.21401e-08
1.10688e-10
-4.21781e-08
6.94499e-11
-4.21934e-08
2.81075e-11
-4.21859e-08
-1.33047e-11
-4.21557e-08
-5.4752e-11
-4.21027e-08
-9.61993e-11
-4.2027e-08
-1.37611e-10
-4.19286e-08
-1.78953e-10
-4.18076e-08
-2.20187e-10
-4.1664e-08
-2.61279e-10
-4.14979e-08
-3.02192e-10
-4.13095e-08
-3.4289e-10
-4.10988e-08
-3.83336e-10
-4.08662e-08
-4.23493e-10
-4.06116e-08
-4.63324e-10
-4.03354e-08
-5.02791e-10
-4.00377e-08
-5.41858e-10
-3.97189e-08
-5.80487e-10
-3.93791e-08
-6.18639e-10
-3.90186e-08
-6.56277e-10
-3.86378e-08
-6.93363e-10
-3.8237e-08
-7.29859e-10
-3.78165e-08
-7.65727e-10
-3.73766e-08
-8.00928e-10
-3.69179e-08
-8.35424e-10
-3.64406e-08
-8.69177e-10
-3.59452e-08
-9.02148e-10
-3.54322e-08
-9.34299e-10
-3.4902e-08
-9.65592e-10
-3.43551e-08
-9.9599e-10
-3.37921e-08
-1.02545e-09
-3.32135e-08
-1.05394e-09
-3.26198e-08
-1.08143e-09
-3.20116e-08
-1.10786e-09
-3.13895e-08
-1.13321e-09
-3.07541e-08
-1.15744e-09
-3.0106e-08
-1.18051e-09
-2.9446e-08
-1.20239e-09
-2.87746e-08
-1.22304e-09
-2.80926e-08
-1.24242e-09
-2.74007e-08
-1.2605e-09
-2.66997e-08
-1.27725e-09
-2.59901e-08
-1.29263e-09
-2.5273e-08
-1.30661e-09
-2.45489e-08
-1.31916e-09
-2.38188e-08
-1.33024e-09
-2.30835e-08
-1.33982e-09
-2.23437e-08
-1.34788e-09
-2.16003e-08
-1.35438e-09
-2.08543e-08
-1.3593e-09
-2.01065e-08
-1.3626e-09
-1.93577e-08
-1.36427e-09
-1.86089e-08
-1.36428e-09
-1.78611e-08
-1.36259e-09
-1.71151e-08
-1.3592e-09
-1.63719e-08
-1.35407e-09
-1.56325e-08
-1.34719e-09
-1.48978e-08
-1.33854e-09
-1.41688e-08
-1.32811e-09
-1.34465e-08
-1.31587e-09
-1.27318e-08
-1.30181e-09
-1.20259e-08
-1.28592e-09
-1.13296e-08
-1.26819e-09
-1.0644e-08
-1.24862e-09
-9.97017e-09
-1.22719e-09
-9.309e-09
-1.20391e-09
-8.66155e-09
-1.17878e-09
-8.02882e-09
-1.15179e-09
-7.41182e-09
-1.12295e-09
-6.81155e-09
-1.09228e-09
-6.22899e-09
-1.05978e-09
-5.66512e-09
-1.02547e-09
-5.1209e-09
-9.89376e-10
-4.59729e-09
-9.51525e-10
-4.09522e-09
-9.11949e-10
-3.61558e-09
-8.70687e-10
-3.15927e-09
-8.27786e-10
-2.72711e-09
-7.83302e-10
-2.31993e-09
-7.37301e-10
-1.93849e-09
-6.89858e-10
-1.58349e-09
-6.41065e-10
-1.2556e-09
-5.91026e-10
-9.55387e-10
-5.39864e-10
-6.8336e-10
-4.87723e-10
-4.3992e-10
-4.34774e-10
-2.25361e-10
-3.81217e-10
-3.98421e-11
-3.27286e-10
1.16631e-10
-2.73264e-10
2.44237e-10
-2.19482e-10
3.43375e-10
-1.66341e-10
4.14701e-10
-1.1432e-10
4.59185e-10
-6.4e-11
4.78167e-10
-1.60833e-11
4.73436e-10
2.85713e-11
4.47314e-10
6.89132e-11
4.02763e-10
1.03656e-10
3.43492e-10
1.3123e-10
2.74072e-10
1.49745e-10
2.00025e-10
1.56983e-10
1.27861e-10
1.50501e-10
6.49904e-11
1.27888e-10
1.94343e-11
8.75473e-11
3.12956e-11
2.39788e-11
-5.65309e-11
7.72049e-11
-1.41801e-10
1.46998e-10
-1.96927e-10
2.23172e-10
-2.23315e-10
2.96898e-10
-2.24338e-10
3.60548e-10
-2.03879e-10
4.07642e-10
-1.65712e-10
4.32774e-10
-1.13239e-10
4.31515e-10
-4.94009e-11
4.00305e-10
2.33246e-11
3.36339e-10
1.02871e-10
2.37463e-10
1.87526e-10
1.02076e-10
2.75873e-10
-7.0954e-11
3.66741e-10
-2.82361e-10
4.59158e-10
-5.32544e-10
5.52317e-10
-8.21616e-10
6.45545e-10
-1.14945e-09
7.38282e-10
-1.51573e-09
8.30058e-10
-1.91993e-09
9.20478e-10
-2.36143e-09
1.00921e-09
-2.83944e-09
1.09599e-09
-3.3531e-09
1.18056e-09
-3.90143e-09
1.26275e-09
-4.48341e-09
1.34238e-09
-5.09792e-09
1.41932e-09
-5.74382e-09
1.49346e-09
-6.41991e-09
1.5647e-09
-7.12495e-09
1.63297e-09
-7.85768e-09
1.69821e-09
-8.61681e-09
1.76037e-09
-9.40104e-09
1.81941e-09
-1.02091e-08
1.87531e-09
-1.10395e-08
1.92806e-09
-1.18911e-08
1.97763e-09
-1.27624e-08
2.02403e-09
-1.36522e-08
2.06726e-09
-1.4559e-08
2.10734e-09
-1.54816e-08
2.14426e-09
-1.64187e-08
2.17805e-09
-1.73688e-08
2.20873e-09
-1.83307e-08
2.23633e-09
-1.93031e-08
2.26086e-09
-2.02847e-08
2.28237e-09
-2.12742e-08
2.30087e-09
-2.22703e-08
2.31642e-09
-2.32719e-08
2.32903e-09
-2.42776e-08
2.33876e-09
-2.52862e-08
2.34564e-09
-2.62966e-08
2.34971e-09
-2.73075e-08
2.35101e-09
-2.83178e-08
2.34958e-09
-2.93264e-08
2.34548e-09
-3.0332e-08
2.33874e-09
-3.13336e-08
2.32941e-09
-3.23302e-08
2.31754e-09
-3.33205e-08
2.30318e-09
-3.43037e-08
2.28636e-09
-3.52786e-08
2.26715e-09
-3.62442e-08
2.24558e-09
-3.71996e-08
2.22172e-09
-3.81437e-08
2.1956e-09
-3.90757e-08
2.16728e-09
-3.99945e-08
2.13681e-09
-4.08994e-08
2.10423e-09
-4.17894e-08
2.0696e-09
-4.26637e-08
2.03298e-09
-4.35213e-08
1.9944e-09
-4.43616e-08
1.95393e-09
-4.51836e-08
1.91162e-09
-4.59867e-08
1.8675e-09
-4.67701e-08
1.82165e-09
-4.7533e-08
1.77411e-09
-4.82748e-08
1.72493e-09
-4.89948e-08
1.67416e-09
-4.96922e-08
1.62187e-09
-5.03665e-08
1.56809e-09
-5.10171e-08
1.51289e-09
-5.16434e-08
1.45632e-09
-5.22447e-08
1.39843e-09
-5.28206e-08
1.33928e-09
-5.33705e-08
1.27891e-09
-5.3894e-08
1.21739e-09
-5.43905e-08
1.15477e-09
-5.48596e-08
1.0911e-09
-5.53009e-08
1.02644e-09
-5.5714e-08
9.60846e-10
-5.60985e-08
8.94371e-10
-5.6454e-08
8.27073e-10
-5.67802e-08
7.59007e-10
-5.70769e-08
6.90231e-10
-5.73437e-08
6.20802e-10
-5.75803e-08
5.50778e-10
-5.77866e-08
4.80216e-10
-5.79624e-08
4.09175e-10
-5.81074e-08
3.37713e-10
-5.82215e-08
2.65891e-10
-5.83045e-08
1.93766e-10
-5.83565e-08
1.214e-10
-5.83772e-08
4.88517e-11
-5.83667e-08
-2.38167e-11
-5.83249e-08
-9.65446e-11
-5.82519e-08
-1.6927e-10
-5.81475e-08
-2.41932e-10
-5.8012e-08
-3.14466e-10
-5.78454e-08
-3.86811e-10
-5.76478e-08
-4.58903e-10
-5.74193e-08
-5.30679e-10
-5.71601e-08
-6.02074e-10
-5.68704e-08
-6.73024e-10
-5.65505e-08
-7.43464e-10
-5.62004e-08
-8.13329e-10
-5.58207e-08
-8.82554e-10
-5.54115e-08
-9.51072e-10
-5.49731e-08
-1.01882e-09
-5.4506e-08
-1.08573e-09
-5.40106e-08
-1.15173e-09
-5.34872e-08
-1.21676e-09
-5.29363e-08
-1.28076e-09
-5.23584e-08
-1.34364e-09
-5.1754e-08
-1.40536e-09
-5.11235e-08
-1.46584e-09
-5.04677e-08
-1.52501e-09
-4.97871e-08
-1.5828e-09
-4.90822e-08
-1.63916e-09
-4.83538e-08
-1.69401e-09
-4.76025e-08
-1.74728e-09
-4.6829e-08
-1.79892e-09
-4.60341e-08
-1.84885e-09
-4.52185e-08
-1.897e-09
-4.43831e-08
-1.94332e-09
-4.35285e-08
-1.98774e-09
-4.26558e-08
-2.03019e-09
-4.17657e-08
-2.07061e-09
-4.08592e-08
-2.10893e-09
-3.99371e-08
-2.1451e-09
-3.90005e-08
-2.17905e-09
-3.80502e-08
-2.21072e-09
-3.70874e-08
-2.24006e-09
-3.61131e-08
-2.267e-09
-3.51282e-08
-2.29148e-09
-3.41339e-08
-2.31345e-09
-3.31313e-08
-2.33286e-09
-3.21215e-08
-2.34965e-09
-3.11056e-08
-2.36376e-09
-3.00848e-08
-2.37516e-09
-2.90603e-08
-2.38378e-09
-2.80333e-08
-2.38958e-09
-2.70051e-08
-2.39252e-09
-2.59768e-08
-2.39255e-09
-2.49498e-08
-2.38963e-09
-2.39253e-08
-2.38373e-09
-2.29045e-08
-2.3748e-09
-2.18889e-08
-2.36281e-09
-2.08797e-08
-2.34773e-09
-1.98783e-08
-2.32954e-09
-1.8886e-08
-2.30819e-09
-1.79041e-08
-2.28369e-09
-1.6934e-08
-2.25599e-09
-1.59771e-08
-2.22509e-09
-1.50348e-08
-2.19099e-09
-1.41083e-08
-2.15366e-09
-1.31991e-08
-2.11311e-09
-1.23085e-08
-2.06933e-09
-1.1438e-08
-2.02235e-09
-1.05888e-08
-1.97216e-09
-9.76226e-09
-1.91879e-09
-8.95977e-09
-1.86227e-09
-8.18261e-09
-1.80263e-09
-7.43208e-09
-1.73991e-09
-6.70944e-09
-1.67416e-09
-6.01594e-09
-1.60545e-09
-5.35278e-09
-1.53385e-09
-4.72111e-09
-1.45945e-09
-4.12206e-09
-1.38235e-09
-3.55668e-09
-1.30268e-09
-3.02597e-09
-1.22057e-09
-2.53084e-09
-1.13619e-09
-2.07214e-09
-1.04973e-09
-1.6506e-09
-9.61408e-10
-1.26683e-09
-8.71491e-10
-9.21327e-10
-7.8028e-10
-6.14413e-10
-6.88131e-10
-3.46238e-10
-5.95461e-10
-1.1674e-10
-5.02761e-10
7.43905e-11
-4.10613e-10
2.27754e-10
-3.19705e-10
3.4429e-10
-2.30855e-10
4.25333e-10
-1.45042e-10
4.72686e-10
-6.34365e-11
4.88698e-10
1.25581e-11
4.76354e-10
8.12556e-11
4.39376e-10
1.40635e-10
3.82319e-10
1.88293e-10
3.1067e-10
2.21403e-10
2.30916e-10
2.3674e-10
1.50603e-10
2.30801e-10
7.83759e-11
2.00097e-10
2.41162e-11
1.41816e-10
5.54167e-11
2.53323e-11
-8.18633e-11
8.05325e-11
-1.97001e-10
1.50864e-10
-2.67258e-10
2.24748e-10
-2.972e-10
2.92419e-10
-2.92009e-10
3.45523e-10
-2.56983e-10
3.76943e-10
-1.97131e-10
3.80672e-10
-1.16969e-10
3.51717e-10
-2.04452e-11
2.8599e-10
8.90509e-11
1.80217e-10
2.08644e-10
3.18305e-11
3.35912e-10
-1.61114e-10
4.68818e-10
-4.00027e-10
6.05654e-10
-6.85853e-10
7.44985e-10
-1.01914e-09
8.85608e-10
-1.40011e-09
1.02651e-09
-1.82865e-09
1.16683e-09
-2.30445e-09
1.30586e-09
-2.82695e-09
1.44298e-09
-3.39541e-09
1.57767e-09
-4.00894e-09
1.70952e-09
-4.66652e-09
1.83814e-09
-5.367e-09
1.96323e-09
-6.10913e-09
2.08452e-09
-6.89161e-09
2.20179e-09
-7.71303e-09
2.31487e-09
-8.57193e-09
2.42361e-09
-9.46683e-09
2.52786e-09
-1.03962e-08
2.62754e-09
-1.13584e-08
2.72256e-09
-1.23518e-08
2.81287e-09
-1.33749e-08
2.8984e-09
-1.4426e-08
2.97914e-09
-1.55034e-08
3.05505e-09
-1.66055e-08
3.12613e-09
-1.77306e-08
3.19237e-09
-1.8877e-08
3.25379e-09
-2.00432e-08
3.3104e-09
-2.12274e-08
3.36222e-09
-2.24279e-08
3.40928e-09
-2.36432e-08
3.45162e-09
-2.48716e-08
3.48926e-09
-2.61115e-08
3.52226e-09
-2.73613e-08
3.55066e-09
-2.86194e-08
3.57452e-09
-2.98842e-08
3.59387e-09
-3.11543e-08
3.60879e-09
-3.2428e-08
3.61933e-09
-3.37038e-08
3.62554e-09
-3.49803e-08
3.6275e-09
-3.6256e-08
3.62527e-09
-3.75294e-08
3.61891e-09
-3.87992e-08
3.6085e-09
-4.00638e-08
3.59409e-09
-4.13221e-08
3.57577e-09
-4.25725e-08
3.5536e-09
-4.38138e-08
3.52766e-09
-4.50447e-08
3.49802e-09
-4.62638e-08
3.46476e-09
-4.74701e-08
3.42794e-09
-4.86621e-08
3.38765e-09
-4.98388e-08
3.34396e-09
-5.09989e-08
3.29695e-09
-5.21414e-08
3.2467e-09
-5.32651e-08
3.19328e-09
-5.43689e-08
3.13678e-09
-5.54517e-08
3.07726e-09
-5.65126e-08
3.01482e-09
-5.75505e-08
2.94952e-09
-5.85645e-08
2.88146e-09
-5.95535e-08
2.81071e-09
-6.05168e-08
2.73734e-09
-6.14533e-08
2.66145e-09
-6.23622e-08
2.58311e-09
-6.32428e-08
2.50241e-09
-6.40941e-08
2.41942e-09
-6.49155e-08
2.33423e-09
-6.57061e-08
2.24692e-09
-6.64652e-08
2.15758e-09
-6.71922e-08
2.06628e-09
-6.78864e-08
1.97312e-09
-6.85472e-08
1.87817e-09
-6.91739e-08
1.78151e-09
-6.97661e-08
1.68325e-09
-7.03231e-08
1.58345e-09
-7.08444e-08
1.48221e-09
-7.13297e-08
1.37961e-09
-7.17784e-08
1.27574e-09
-7.219e-08
1.17069e-09
-7.25643e-08
1.06454e-09
-7.29009e-08
9.57385e-10
-7.31995e-08
8.49312e-10
-7.34597e-08
7.40411e-10
-7.36813e-08
6.30772e-10
-7.3864e-08
5.20487e-10
-7.40078e-08
4.09645e-10
-7.41124e-08
2.9834e-10
-7.41776e-08
1.86665e-10
-7.42035e-08
7.47119e-11
-7.41899e-08
-3.74243e-11
-7.41368e-08
-1.49649e-10
-7.40442e-08
-2.61867e-10
-7.39121e-08
-3.73983e-10
-7.37407e-08
-4.859e-10
-7.353e-08
-5.97521e-10
-7.32801e-08
-7.08747e-10
-7.29913e-08
-8.19481e-10
-7.26638e-08
-9.29624e-10
-7.22977e-08
-1.03908e-09
-7.18934e-08
-1.14774e-09
-7.14513e-08
-1.25551e-09
-7.09715e-08
-1.36229e-09
-7.04546e-08
-1.46797e-09
-6.9901e-08
-1.57246e-09
-6.93111e-08
-1.67565e-09
-6.86854e-08
-1.77744e-09
-6.80244e-08
-1.87773e-09
-6.73287e-08
-1.97642e-09
-6.6599e-08
-2.07339e-09
-6.58358e-08
-2.16855e-09
-6.50398e-08
-2.2618e-09
-6.42118e-08
-2.35303e-09
-6.33525e-08
-2.44213e-09
-6.24626e-08
-2.52901e-09
-6.15431e-08
-2.61357e-09
-6.05946e-08
-2.69569e-09
-5.96183e-08
-2.77528e-09
-5.86149e-08
-2.85224e-09
-5.75854e-08
-2.92646e-09
-5.65309e-08
-2.99785e-09
-5.54524e-08
-3.0663e-09
-5.43508e-08
-3.13171e-09
-5.32274e-08
-3.194e-09
-5.20833e-08
-3.25306e-09
-5.09196e-08
-3.30879e-09
-4.97376e-08
-3.3611e-09
-4.85384e-08
-3.40991e-09
-4.73233e-08
-3.45511e-09
-4.60937e-08
-3.49662e-09
-4.48508e-08
-3.53435e-09
-4.35961e-08
-3.56821e-09
-4.23308e-08
-3.59812e-09
-4.10565e-08
-3.624e-09
-3.97745e-08
-3.64576e-09
-3.84863e-08
-3.66334e-09
-3.71934e-08
-3.67666e-09
-3.58974e-08
-3.68564e-09
-3.45997e-08
-3.69021e-09
-3.33019e-08
-3.69032e-09
-3.20056e-08
-3.6859e-09
-3.07125e-08
-3.67688e-09
-2.9424e-08
-3.66323e-09
-2.8142e-08
-3.64487e-09
-2.68679e-08
-3.62178e-09
-2.56036e-08
-3.5939e-09
-2.43506e-08
-3.5612e-09
-2.31106e-08
-3.52365e-09
-2.18854e-08
-3.48121e-09
-2.06766e-08
-3.43388e-09
-1.9486e-08
-3.38162e-09
-1.83152e-08
-3.32445e-09
-1.71659e-08
-3.26235e-09
-1.60399e-08
-3.19533e-09
-1.49389e-08
-3.12341e-09
-1.38644e-08
-3.04661e-09
-1.28182e-08
-2.96496e-09
-1.1802e-08
-2.87852e-09
-1.08173e-08
-2.78734e-09
-9.86571e-09
-2.69148e-09
-8.94882e-09
-2.59105e-09
-8.06813e-09
-2.48613e-09
-7.22513e-09
-2.37686e-09
-6.42121e-09
-2.26337e-09
-5.65774e-09
-2.14583e-09
-4.93598e-09
-2.02443e-09
-4.25715e-09
-1.89941e-09
-3.62232e-09
-1.77101e-09
-3.03249e-09
-1.63955e-09
-2.48852e-09
-1.50538e-09
-1.99111e-09
-1.3689e-09
-1.54081e-09
-1.23058e-09
-1.13796e-09
-1.09098e-09
-7.82673e-10
-9.50744e-10
-4.74817e-10
-8.10616e-10
-2.1395e-10
-6.7148e-10
7.15527e-13
-5.3437e-10
1.70368e-10
-4.00507e-10
2.96655e-10
-2.71328e-10
3.81758e-10
-1.48538e-10
4.28466e-10
-3.415e-11
4.40263e-10
6.94572e-11
4.21416e-10
1.5948e-10
3.77068e-10
2.3264e-10
3.13323e-10
2.85153e-10
2.3733e-10
3.12743e-10
1.57389e-10
3.10746e-10
8.31158e-11
2.74357e-10
2.58607e-11
1.99066e-10
8.12812e-11
2.44164e-11
-1.0628e-10
7.66567e-11
-2.49241e-10
1.41044e-10
-3.31644e-10
2.05142e-10
-3.61297e-10
2.58549e-10
-3.45417e-10
2.92427e-10
-2.90861e-10
2.9924e-10
-2.03944e-10
2.72597e-10
-9.03252e-11
2.07128e-10
4.50236e-11
9.83915e-11
1.97788e-10
-5.72245e-11
3.6426e-10
-2.62588e-10
5.41275e-10
-5.19908e-10
7.26139e-10
-8.30816e-10
9.16562e-10
-1.19643e-09
1.1106e-09
-1.61744e-09
1.30661e-09
-2.09413e-09
1.5032e-09
-2.62646e-09
1.69916e-09
-3.2141e-09
1.89349e-09
-3.85646e-09
2.08533e-09
-4.55273e-09
2.27395e-09
-5.30194e-09
2.45873e-09
-6.10292e-09
2.63912e-09
-6.95438e-09
2.81469e-09
-7.85491e-09
2.98505e-09
-8.80299e-09
3.14987e-09
-9.79701e-09
3.30889e-09
-1.08353e-08
3.46189e-09
-1.19161e-08
3.60866e-09
-1.30376e-08
3.74906e-09
-1.4198e-08
3.88297e-09
-1.53954e-08
4.01027e-09
-1.66279e-08
4.1309e-09
-1.78936e-08
4.24481e-09
-1.91905e-08
4.35195e-09
-2.05167e-08
4.45229e-09
-2.18701e-08
4.54585e-09
-2.32489e-08
4.6326e-09
-2.46511e-08
4.71259e-09
-2.60747e-08
4.78582e-09
-2.75178e-08
4.85233e-09
-2.89783e-08
4.91217e-09
-3.04544e-08
4.96539e-09
-3.19442e-08
5.01204e-09
-3.34457e-08
5.05219e-09
-3.49571e-08
5.0859e-09
-3.64765e-08
5.11324e-09
-3.8002e-08
5.1343e-09
-3.95318e-08
5.14915e-09
-4.10641e-08
5.15787e-09
-4.25972e-08
5.16056e-09
-4.41292e-08
5.15731e-09
-4.56585e-08
5.1482e-09
-4.71833e-08
5.13333e-09
-4.8702e-08
5.11279e-09
-5.0213e-08
5.0867e-09
-5.17145e-08
5.05514e-09
-5.32051e-08
5.01822e-09
-5.46831e-08
4.97604e-09
-5.6147e-08
4.92871e-09
-5.75954e-08
4.87634e-09
-5.90268e-08
4.81902e-09
-6.04397e-08
4.75687e-09
-6.18327e-08
4.69e-09
-6.32045e-08
4.61851e-09
-6.45538e-08
4.54252e-09
-6.58791e-08
4.46213e-09
-6.71793e-08
4.37747e-09
-6.84532e-08
4.28864e-09
-6.96994e-08
4.19575e-09
-7.09168e-08
4.09891e-09
-7.21044e-08
3.99825e-09
-7.32609e-08
3.89388e-09
-7.43854e-08
3.7859e-09
-7.54767e-08
3.67444e-09
-7.65339e-08
3.55962e-09
-7.7556e-08
3.44154e-09
-7.85421e-08
3.32033e-09
-7.94913e-08
3.1961e-09
-8.04027e-08
3.06898e-09
-8.12755e-08
2.93907e-09
-8.21089e-08
2.80651e-09
-8.29021e-08
2.6714e-09
-8.36544e-08
2.53387e-09
-8.43652e-08
2.39405e-09
-8.50338e-08
2.25204e-09
-8.56596e-08
2.10799e-09
-8.6242e-08
1.962e-09
-8.67805e-08
1.8142e-09
-8.72745e-08
1.66472e-09
-8.77236e-08
1.51369e-09
-8.81275e-08
1.36122e-09
-8.84856e-08
1.20745e-09
-8.87977e-08
1.0525e-09
-8.90635e-08
8.9651e-10
-8.92826e-08
7.39597e-10
-8.94548e-08
5.81897e-10
-8.958e-08
4.23541e-10
-8.9658e-08
2.6466e-10
-8.96887e-08
1.05389e-10
-8.9672e-08
-5.41392e-11
-8.96078e-08
-2.1379e-10
-8.94963e-08
-3.73426e-10
-8.93373e-08
-5.32913e-10
-8.91311e-08
-6.92112e-10
-8.88778e-08
-8.50885e-10
-8.85774e-08
-1.00909e-09
-8.82303e-08
-1.16659e-09
-8.78367e-08
-1.32325e-09
-8.73968e-08
-1.47892e-09
-8.69111e-08
-1.63346e-09
-8.63799e-08
-1.78672e-09
-8.58036e-08
-1.93857e-09
-8.51827e-08
-2.08886e-09
-8.45178e-08
-2.23744e-09
-8.38092e-08
-2.38417e-09
-8.30578e-08
-2.52891e-09
-8.2264e-08
-2.6715e-09
-8.14286e-08
-2.8118e-09
-8.05523e-08
-2.94967e-09
-7.96359e-08
-3.08496e-09
-7.86802e-08
-3.21752e-09
-7.76861e-08
-3.3472e-09
-7.66543e-08
-3.47386e-09
-7.5586e-08
-3.59735e-09
-7.4482e-08
-3.71753e-09
-7.33435e-08
-3.83426e-09
-7.21714e-08
-3.94737e-09
-7.09668e-08
-4.05675e-09
-6.97311e-08
-4.16223e-09
-6.84653e-08
-4.26367e-09
-6.71706e-08
-4.36095e-09
-6.58484e-08
-4.45391e-09
-6.45e-08
-4.54242e-09
-6.31267e-08
-4.62633e-09
-6.173e-08
-4.70553e-09
-6.03112e-08
-4.77987e-09
-5.88719e-08
-4.84922e-09
-5.74136e-08
-4.91345e-09
-5.59377e-08
-4.97244e-09
-5.4446e-08
-5.02607e-09
-5.294e-08
-5.0742e-09
-5.14214e-08
-5.11673e-09
-4.98919e-08
-5.15353e-09
-4.83531e-08
-5.1845e-09
-4.68069e-08
-5.20953e-09
-4.52551e-08
-5.22852e-09
-4.36994e-08
-5.24136e-09
-4.21416e-08
-5.24796e-09
-4.05837e-08
-5.24822e-09
-3.90276e-08
-5.24207e-09
-3.7475e-08
-5.22941e-09
-3.59281e-08
-5.21019e-09
-3.43886e-08
-5.18431e-09
-3.28587e-08
-5.15173e-09
-3.13402e-08
-5.11239e-09
-2.98352e-08
-5.06622e-09
-2.83456e-08
-5.0132e-09
-2.68735e-08
-4.95329e-09
-2.5421e-08
-4.88646e-09
-2.39899e-08
-4.81269e-09
-2.25824e-08
-4.73198e-09
-2.12004e-08
-4.64433e-09
-1.98459e-08
-4.54976e-09
-1.85211e-08
-4.44829e-09
-1.72277e-08
-4.33996e-09
-1.59678e-08
-4.22482e-09
-1.47434e-08
-4.10296e-09
-1.35563e-08