/*--------------------------------*- C++ -*----------------------------------*\
  =========                 |
  \\      /  F ield         | OpenFOAM: The Open Source CFD Toolbox
   \\    /   O peration     | Website:  https://openfoam.org
    \\  /    A nd           | Version:  7
     \\/     M anipulation  |
\*---------------------------------------------------------------------------*/
FoamFile
{
    version     2.0;
    format      ascii;
    class       volVectorField;
    location    "20";
    object      U;
}
// * * * * * * * * * * * * * * * * * * * * * * * * * * * * * * * * * * * * * //

dimensions      [0 1 -1 0 0 0 0];

internalField   nonuniform List<vector> 
385
(
(1.02369 -0.0158224 8.50263e-21)
(1.02676 -0.0177701 -2.48138e-20)
(1.02441 -0.0151496 -1.62327e-20)
(1.03028 -0.0203189 1.56052e-20)
(1.02753 -0.0170839 2.33787e-20)
(1.02512 -0.0144514 -1.87194e-21)
(1.03447 -0.0225774 4.59632e-20)
(1.03114 -0.0195026 -3.59456e-20)
(1.02829 -0.0163748 -1.51939e-20)
(1.02581 -0.0137284 1.5056e-20)
(1.0354 -0.021689 -2.23324e-21)
(1.03198 -0.0186592 1.79529e-20)
(1.02903 -0.0156433 1.50666e-20)
(1.02649 -0.012981 -1.07262e-20)
(1.04029 -0.0253863 -4.51112e-20)
(1.03631 -0.0207739 -3.58354e-20)
(1.0328 -0.0177894 2.4789e-20)
(1.02975 -0.0148898 8.07722e-21)
(1.02715 -0.0122097 1.69493e-20)
(1.0463 -0.0277131 2.22747e-20)
(1.04131 -0.0242976 1.05051e-19)
(1.03719 -0.0198329 1.87913e-20)
(1.03361 -0.0168937 -1.68369e-20)
(1.03046 -0.0141148 -4.35689e-20)
(1.0278 -0.0114151 -3.10981e-20)
(1.04738 -0.0265249 -6.75818e-20)
(1.0423 -0.0231806 -7.88006e-20)
(1.03805 -0.0188669 -6.06669e-21)
(1.03438 -0.0159728 -8.04974e-22)
(1.03114 -0.0133189 4.43901e-20)
(1.02842 -0.0105977 2.81322e-20)
(1.05481 -0.0325549 1.62789e-19)
(1.04844 -0.0253071 -5.45544e-20)
(1.04325 -0.0220362 6.7197e-20)
(1.03889 -0.0178766 1.88579e-20)
(1.03514 -0.0150275 2.08568e-20)
(1.03181 -0.0125026 -1.83101e-20)
(1.02903 -0.00975818 2.22778e-21)
(1.05602 -0.031055 -8.71545e-20)
(1.04947 -0.0240608 1.43874e-19)
(1.04418 -0.0208654 -8.68037e-20)
(1.0397 -0.016863 -2.84114e-20)
(1.03588 -0.0140586 -7.26501e-20)
(1.03246 -0.0116663 -2.63911e-20)
(1.02963 -0.00889713 -4.44531e-22)
(1.06477 -0.0321985 -5.32085e-20)
(1.05718 -0.0295234 -1.14208e-19)
(1.05046 -0.0227869 8.29709e-20)
(1.04508 -0.0196694 -4.55736e-21)
(1.04049 -0.015827 -9.08724e-20)
(1.03659 -0.0130668 5.22504e-20)
(1.03309 -0.0108108 1.76808e-20)
(1.0302 -0.00801527 -1.88618e-20)
(1.06597 -0.0305291 4.29396e-20)
(1.0583 -0.0279614 1.02779e-19)
(1.05141 -0.0214867 4.80013e-20)
(1.04595 -0.0184492 -2.05559e-20)
(1.04125 -0.0147693 9.87242e-20)
(1.03727 -0.0120531 1.87235e-20)
(1.03371 -0.00993641 -1.55584e-20)
(1.03076 -0.00711338 1.86153e-20)
(1.06711 -0.0288267 -8.09656e-20)
(1.05938 -0.0263703 2.39618e-19)
(1.05234 -0.0201609 -7.49162e-20)
(1.04679 -0.0172059 7.60226e-20)
(1.04199 -0.0136909 -5.53251e-20)
(1.03794 -0.0110185 -3.60517e-20)
(1.0343 -0.00904371 4.028e-20)
(1.0313 -0.00619233 -4.7716e-21)
(1.0682 -0.0270918 7.46472e-20)
(1.0604 -0.0247511 -1.82078e-19)
(1.05323 -0.0188108 5.52847e-20)
(1.04759 -0.0159408 5.70062e-20)
(1.0427 -0.0125928 6.7521e-20)
(1.03858 -0.00996401 4.68254e-20)
(1.03487 -0.00813304 -1.11403e-20)
(1.03183 -0.00525315 1.12576e-20)
(1.06922 -0.0253244 -3.34728e-19)
(1.06138 -0.0231052 -7.12338e-20)
(1.05408 -0.0174372 -1.88066e-19)
(1.04837 -0.0146551 -1.06217e-19)
(1.04339 -0.0114756 -3.73199e-20)
(1.03919 -0.00889092 2.31366e-20)
(1.03542 -0.00720459 2.44128e-21)
(1.03233 -0.00429705 -3.06487e-20)
(1.07017 -0.0235244 5.38945e-19)
(1.06231 -0.0214335 2.09049e-19)
(1.0549 -0.0160411 1.75519e-19)
(1.04911 -0.0133503 5.07944e-20)
(1.04405 -0.0103401 4.23496e-20)
(1.03978 -0.00780065 -3.99927e-20)
(1.03596 -0.00625822 2.24571e-20)
(1.03281 -0.00332574 1.03117e-19)
(1.07103 -0.0216915 9.49466e-20)
(1.06318 -0.0197368 -3.46595e-19)
(1.05567 -0.0146234 -5.49015e-20)
(1.04981 -0.0120276 -2.58813e-20)
(1.04469 -0.00918713 -2.83476e-20)
(1.04035 -0.00669492 1.75147e-20)
(1.03647 -0.00529322 -5.55732e-20)
(1.03327 -0.00234123 -1.36839e-19)
(1.0718 -0.0198245 -1.3032e-19)
(1.06399 -0.018016 -3.50627e-21)
(1.05641 -0.0131848 -3.21837e-20)
(1.05048 -0.0106886 -1.20927e-19)
(1.0453 -0.00801711 -3.02869e-20)
(1.04089 -0.00557584 -3.4187e-21)
(1.03697 -0.00430809 3.44674e-20)
(1.0337 -0.00134704 -9.4604e-21)
(1.07246 -0.0179218 -6.51403e-20)
(1.06473 -0.0162713 1.01559e-19)
(1.0571 -0.0117258 5.21482e-20)
(1.05111 -0.00933492 5.41827e-20)
(1.04589 -0.00683044 5.1516e-20)
(1.0414 -0.00444617 5.67141e-20)
(1.03745 -0.00329936 -1.81416e-20)
(1.07297 -0.015981 -3.5746e-20)
(1.06539 -0.0145026 3.0302e-19)
(1.05774 -0.0102468 -1.14433e-19)
(1.05171 -0.00796814 1.40884e-20)
(1.04645 -0.00562729 -3.8682e-20)
(1.04189 -0.00330919 -6.03439e-20)
(1.03791 -0.00226361 -5.21724e-20)
(1.06595 -0.0127095 -2.27318e-19)
(1.05833 -0.0087478 -3.53242e-20)
(1.05226 -0.00658993 -3.74727e-20)
(1.04699 -0.00440754 1.64082e-20)
(1.04236 -0.00217034 6.47802e-20)
(1.03837 -0.00118513 1.05104e-19)
(1.06639 -0.0108905 -9.31237e-20)
(1.05885 -0.00722844 -1.50655e-19)
(1.05277 -0.00520183 1.0256e-19)
(1.04749 -0.00317106 -4.81766e-20)
(1.0428 -0.00103394 -3.99833e-20)
(1.06669 -0.0090434 9.2565e-20)
(1.0593 -0.00568772 1.41421e-19)
(1.05323 -0.00380516 5.47512e-20)
(1.04796 -0.00191703 4.41982e-20)
(1.04322 8.84502e-05 -5.16284e-20)
(1.06681 -0.00716466 -2.81718e-20)
(1.05964 -0.00412406 2.1197e-20)
(1.05363 -0.00240075 3.75257e-20)
(1.0484 -0.000645898 9.76792e-20)
(1.04363 0.00119701 2.28671e-20)
(1.06668 -0.00524927 2.59835e-19)
(1.05986 -0.00253488 1.27619e-19)
(1.05396 -0.00098837 -1.66265e-19)
(1.04878 0.000640296 -6.9885e-20)
(1.05992 -0.000916404 -5.44458e-20)
(1.0542 0.000433411 -5.48866e-20)
(1.04911 0.00193911 -6.06226e-20)
(1.05974 0.000736745 3.0678e-20)
(1.05432 0.00186741 1.38756e-19)
(1.04936 0.00324897 3.00902e-20)
(1.05927 0.002432 7.60193e-20)
(1.05428 0.00331807 -1.38273e-19)
(1.04953 0.0045698 -8.69538e-20)
(1.05839 0.00417938 -4.62734e-21)
(1.05401 0.00479184 8.71429e-20)
(1.04956 0.00590345 7.64129e-20)
(1.05343 0.00629771 1.0744e-19)
(1.05239 0.00784773 -7.98748e-20)
(1.05072 0.00945751 -9.74213e-20)
(1.012 -0.00291275 1.12024e-22)
(1.01215 -0.00272749 9.40991e-22)
(1.0123 -0.00253907 1.12222e-21)
(1.01134 -0.00457566 3.53147e-22)
(1.01151 -0.00439934 2.74006e-24)
(1.01167 -0.00421994 -1.33231e-22)
(1.01184 -0.00403741 -2.13206e-22)
(1.012 -0.0038517 -3.08148e-22)
(1.01217 -0.00366276 -1.32118e-23)
(1.01233 -0.00347053 -3.82675e-22)
(1.0125 -0.00327495 1.01769e-21)
(1.01267 -0.00307596 7.6087e-22)
(1.01283 -0.00287352 -2.24933e-22)
(1.013 -0.00266748 -2.37938e-22)
(1.01102 -0.00579314 -1.04591e-22)
(1.0112 -0.00561821 2.0024e-22)
(1.01138 -0.00544002 -1.92791e-22)
(1.01157 -0.00525851 -1.83881e-22)
(1.01175 -0.00507363 -1.81813e-22)
(1.01193 -0.00488535 1.06075e-22)
(1.01212 -0.0046936 1.77696e-22)
(1.0123 -0.00449834 -1.39719e-22)
(1.01248 -0.0042995 -1.83458e-22)
(1.01266 -0.00409704 5.55173e-22)
(1.01284 -0.00389088 1.25562e-21)
(1.01302 -0.00368096 2.07894e-22)
(1.01321 -0.00346723 7.82387e-22)
(1.01339 -0.00324958 -4.73591e-22)
(1.01357 -0.003028 4.22304e-22)
(1.01376 -0.00280229 -2.50052e-22)
(1.01156 -0.00620698 1.10829e-22)
(1.01176 -0.00601738 -2.09249e-22)
(1.01197 -0.00582402 1.05306e-22)
(1.01217 -0.00562687 2.71907e-22)
(1.01237 -0.00542587 2.12099e-22)
(1.01257 -0.00522096 -7.84474e-22)
(1.01277 -0.00501209 2.05486e-23)
(1.01297 -0.00479921 8.03259e-23)
(1.01317 -0.00458223 9.90097e-22)
(1.01337 -0.00436111 -9.01278e-22)
(1.01357 -0.00413576 5.79466e-23)
(1.01377 -0.00390611 1.67399e-23)
(1.01397 -0.00367209 -1.52555e-21)
(1.01417 -0.0034336 -1.17784e-21)
(1.01437 -0.0031906 4.11804e-22)
(1.01457 -0.00294286 -1.83458e-21)
(1.01215 -0.00665757 -1.43459e-23)
(1.01237 -0.00645172 -1.56688e-22)
(1.01259 -0.00624156 6.82394e-23)
(1.01282 -0.00602704 -4.12414e-22)
(1.01304 -0.00580811 2.99762e-23)
(1.01326 -0.00558469 4.99562e-22)
(1.01348 -0.00535673 5.29308e-23)
(1.0137 -0.00512417 8.82079e-23)
(1.01392 -0.00488692 -5.87993e-22)
(1.01414 -0.00464492 3.4322e-22)
(1.01436 -0.00439807 -2.70343e-22)
(1.01458 -0.00414631 -1.05746e-21)
(1.0148 -0.00388954 6.81053e-22)
(1.01502 -0.00362764 7.78597e-22)
(1.01524 -0.0033606 -8.23583e-23)
(1.01546 -0.00308809 2.50849e-21)
(1.01278 -0.00714865 3.00287e-22)
(1.01303 -0.00692475 4.50984e-22)
(1.01327 -0.00669588 -6.14714e-23)
(1.01352 -0.00646199 8.28641e-22)
(1.01376 -0.00622301 5.17382e-22)
(1.014 -0.00597888 4.63749e-22)
(1.01425 -0.00572953 3.80332e-22)
(1.01449 -0.00547488 -3.31106e-22)
(1.01473 -0.00521485 9.30157e-22)
(1.01497 -0.00494936 -1.65975e-21)
(1.01521 -0.00467831 -1.01514e-21)
(1.01545 -0.0044016 -6.97931e-22)
(1.01569 -0.00411916 -9.25838e-22)
(1.01594 -0.00383082 1.00576e-21)
(1.01618 -0.00353659 -8.95621e-22)
(1.01642 -0.00323609 2.33628e-22)
(1.01346 -0.00768428 -1.5382e-22)
(1.01373 -0.00744024 -4.7144e-22)
(1.014 -0.00719045 -4.95984e-22)
(1.01428 -0.00693485 -3.62121e-22)
(1.01454 -0.00667338 -1.18349e-21)
(1.01481 -0.00640596 -1.62014e-22)
(1.01508 -0.00613253 -3.79223e-22)
(1.01535 -0.00585298 -1.39095e-22)
(1.01561 -0.00556725 -2.81135e-21)
(1.01588 -0.00527522 1.02929e-21)
(1.01614 -0.0049768 9.14895e-22)
(1.01641 -0.00467188 3.35894e-21)
(1.01667 -0.00436034 -4.63545e-22)
(1.01693 -0.00404202 1.38254e-21)
(1.0172 -0.00371691 1.71535e-21)
(1.01746 -0.00338454 1.43825e-22)
(1.0142 -0.00826959 1.6568e-23)
(1.0145 -0.00800285 4.57982e-22)
(1.0148 -0.00772945 5.09442e-22)
(1.0151 -0.00744931 6.10861e-22)
(1.01539 -0.00716238 4.71554e-23)
(1.01569 -0.00686858 3.43265e-22)
(1.01598 -0.00656783 9.87662e-22)
(1.01628 -0.00626003 8.09367e-22)
(1.01657 -0.00594508 1.20793e-21)
(1.01686 -0.00562289 2.63254e-21)
(1.01715 -0.00529335 8.9004e-22)
(1.01744 -0.00495632 -3.94797e-21)
(1.01773 -0.00461171 -1.37745e-21)
(1.01802 -0.0042593 -4.55535e-21)
(1.01831 -0.00389912 -3.56891e-21)
(1.0186 -0.00353058 7.57637e-22)
(1.01499 -0.00890862 3.56458e-22)
(1.01533 -0.00861637 -4.09135e-22)
(1.01566 -0.00831632 -1.56546e-22)
(1.01599 -0.0080084 -1.25903e-22)
(1.01632 -0.00769255 7.31366e-22)
(1.01664 -0.0073687 -3.59398e-22)
(1.01697 -0.00703676 -3.23963e-21)
(1.01729 -0.00669666 1.56011e-21)
(1.01761 -0.00634828 1.84561e-21)
(1.01793 -0.00599152 -2.96445e-21)
(1.01825 -0.00562626 -2.03077e-21)
(1.01857 -0.00525236 1.13454e-21)
(1.01889 -0.00486971 -7.55956e-23)
(1.0192 -0.00447808 -4.15309e-22)
(1.01952 -0.00407755 4.12286e-21)
(1.01984 -0.00366744 -1.17419e-21)
(1.01586 -0.00961053 -2.18389e-22)
(1.01623 -0.0092889 5.94136e-22)
(1.0166 -0.00895816 2.18301e-22)
(1.01697 -0.00861822 -1.61069e-22)
(1.01733 -0.00826904 -7.30599e-22)
(1.01769 -0.00791053 5.93101e-22)
(1.01805 -0.0075426 8.25673e-22)
(1.0184 -0.00716516 -4.93777e-22)
(1.01875 -0.0067781 6.01328e-23)
(1.01911 -0.00638133 -1.00375e-21)
(1.01946 -0.00597471 1.98646e-21)
(1.0198 -0.0055581 2.96033e-21)
(1.02015 -0.00513138 5.88394e-22)
(1.0205 -0.00469425 -2.84564e-22)
(1.02084 -0.00424678 -3.35671e-21)
(1.02119 -0.00378808 1.92965e-21)
(1.01681 -0.0103763 -2.95928e-22)
(1.01722 -0.0100219 2.95153e-22)
(1.01763 -0.00965675 -3.77557e-22)
(1.01803 -0.00928074 5.89566e-22)
(1.01844 -0.00889386 1.14911e-21)
(1.01883 -0.00849602 -1.72202e-21)
(1.01923 -0.00808715 1.05758e-21)
(1.01962 -0.00766716 -3.80864e-21)
(1.02001 -0.00723594 -7.37738e-22)
(1.0204 -0.00679336 2.99398e-21)
(1.02078 -0.00633929 -5.75986e-22)
(1.02116 -0.00587358 1.03657e-21)
(1.02154 -0.00539612 2.18318e-21)
(1.02192 -0.00490665 4.81727e-21)
(1.0223 -0.00440529 1.24343e-21)
(1.02267 -0.00389103 -6.30604e-21)
(1.01785 -0.0112241 2.06269e-22)
(1.0183 -0.0108302 -1.27178e-21)
(1.01876 -0.0104236 -7.53986e-22)
(1.01921 -0.0100043 -1.4256e-21)
(1.01966 -0.00957237 -3.50075e-22)
(1.0201 -0.00912766 -5.80226e-22)
(1.02053 -0.00867013 8.23344e-22)
(1.02097 -0.00819969 2.59278e-21)
(1.0214 -0.00771624 2.60797e-21)
(1.02182 -0.00721964 -2.80755e-21)
(1.02224 -0.00670973 1.15636e-21)
(1.02266 -0.00618631 -1.82824e-21)
(1.02307 -0.00564927 -3.04489e-21)
(1.02348 -0.00509827 1.60042e-24)
(1.02388 -0.00453356 1.32024e-21)
(1.02428 -0.0039542 7.7311e-21)
(1.019 -0.0121389 -3.87449e-22)
(1.01951 -0.0117002 2.12863e-22)
(1.02002 -0.0112458 8.67922e-22)
(1.02052 -0.0107756 -2.87274e-22)
(1.02101 -0.0102899 -1.87528e-21)
(1.0215 -0.00978849 2.54106e-21)
(1.02198 -0.0092715 -1.24559e-21)
(1.02246 -0.00873896 2.76807e-22)
(1.02293 -0.00819088 -3.78701e-21)
(1.02339 -0.00762729 5.8565e-21)
(1.02384 -0.00704821 -6.96698e-21)
(1.02429 -0.00645363 1.5362e-21)
(1.02473 -0.00584358 2.42224e-21)
(1.02516 -0.00521787 -1.94686e-21)
(1.02559 -0.00457677 -2.05728e-21)
(1.026 -0.00391929 -3.6628e-21)
(1.02029 -0.0131993 7.35051e-22)
(1.02087 -0.0127042 1.58195e-21)
(1.02144 -0.0121902 7.37636e-22)
(1.022 -0.0116572 9.09717e-23)
(1.02255 -0.0111054 -6.14102e-23)
(1.02309 -0.0105347 9.35502e-22)
(1.02362 -0.00994514 7.48624e-22)
(1.02414 -0.00933691 1.82094e-21)
(1.02465 -0.00871012 1.47239e-21)
(1.02514 -0.008065 -6.75893e-21)
(1.02563 -0.00740183 1.03158e-20)
(1.0261 -0.00672097 -7.28439e-21)
(1.02656 -0.00602289 3.66466e-21)
(1.02701 -0.00530805 -2.45757e-22)
(1.02744 -0.00457734 -2.61521e-21)
(1.02787 -0.00383066 -5.68085e-21)
(1.02178 -0.0143422 -7.21769e-22)
(1.02242 -0.0137997 -7.98909e-22)
(1.02306 -0.0132334 -5.63904e-22)
(1.02368 -0.0126433 -1.02949e-21)
(1.02429 -0.0120295 2.40658e-21)
(1.02489 -0.0113924 -2.14444e-21)
(1.02547 -0.0107322 -4.84523e-22)
(1.02604 -0.0100492 4.0619e-22)
(1.02659 -0.00934382 -1.67161e-21)
(1.02712 -0.00861664 -2.36164e-21)
(1.02764 -0.00786824 -5.93633e-21)
(1.02815 -0.00709935 4.45033e-21)
(1.02863 -0.00631089 -2.73442e-21)
(1.02911 -0.00550393 -2.73107e-21)
(1.02956 -0.00468001 2.43683e-21)
(1.03001 -0.00384043 2.32313e-21)
)
;

boundaryField
{
    inlet
    {
        type            uniformFixedValue;
        uniformValue    constant (1 0 0);
        value           nonuniform 0();
    }
    outlet
    {
        type            pressureInletOutletVelocity;
        value           nonuniform 0();
    }
    cylinder
    {
        type            fixedValue;
        value           nonuniform 0();
    }
    top
    {
        type            symmetryPlane;
    }
    bottom
    {
        type            symmetryPlane;
    }
    defaultFaces
    {
        type            empty;
    }
    procBoundary20to11
    {
        type            processor;
        value           nonuniform List<vector> 
18
(
(1.02295 -0.0164694 -3.34756e-21)
(1.02597 -0.0184329 -2.44495e-21)
(1.02597 -0.0184329 -2.44495e-21)
(1.0294 -0.0211074 1.26758e-20)
(1.0294 -0.0211074 1.26758e-20)
(1.01083 -0.00596483 7.23605e-23)
(1.01136 -0.00639288 -7.47396e-23)
(1.01192 -0.00685915 1.80052e-24)
(1.01253 -0.00736763 -1.72514e-22)
(1.01318 -0.00792263 -1.87805e-23)
(1.01389 -0.0085297 -2.77495e-22)
(1.01466 -0.00919312 7.51152e-22)
(1.01549 -0.00992309 -4.72855e-23)
(1.01639 -0.0107199 1.34923e-23)
(1.01738 -0.0116054 1.52853e-22)
(1.01848 -0.0125619 -1.41094e-21)
(1.0197 -0.0136756 1.63842e-21)
(1.02112 -0.0148607 -1.58741e-21)
)
;
    }
    procBoundary20to12
    {
        type            processor;
        value           nonuniform List<vector> 
18
(
(1.01138 -0.00275977 3.93502e-22)
(1.01152 -0.00258998 8.27772e-22)
(1.01166 -0.00241744 1.72823e-22)
(1.01079 -0.00428984 -2.08961e-22)
(1.01094 -0.00412748 4.41995e-23)
(1.01109 -0.00396241 3.24513e-23)
(1.01124 -0.0037946 -2.95794e-23)
(1.01139 -0.003624 -5.06714e-22)
(1.01155 -0.00345056 1.64871e-22)
(1.0117 -0.00327424 1.08131e-22)
(1.01185 -0.00309499 -4.97879e-23)
(1.01185 -0.00309499 -4.97879e-23)
(1.01051 -0.00541268 -1.69394e-23)
(1.01068 -0.00525108 2.37131e-23)
(1.01084 -0.00508662 -7.02363e-23)
(1.01101 -0.00491925 1.7809e-22)
(1.01118 -0.00474895 1.28246e-22)
(1.01118 -0.00474895 1.28246e-22)
)
;
    }
    procBoundary20to13
    {
        type            processor;
        value           uniform (1.01245 -0.00234765 2.35191e-22);
    }
    procBoundary20to19
    {
        type            processor;
        value           nonuniform List<vector> 
17
(
(1.03352 -0.0234383 1.40518e-21)
(1.03352 -0.0234383 1.40518e-21)
(1.03818 -0.0274747 1.67957e-20)
(1.03925 -0.0264456 -2.90358e-20)
(1.03925 -0.0264456 -2.90358e-20)
(1.04518 -0.0288708 5.88365e-20)
(1.04518 -0.0288708 5.88365e-20)
(1.05228 -0.0354544 2.91406e-20)
(1.05357 -0.0340218 9.41857e-20)
(1.05357 -0.0340218 9.41857e-20)
(1.06222 -0.0354353 1.21317e-19)
(1.06352 -0.0338341 -1.56347e-19)
(1.06352 -0.0338341 -1.56347e-19)
(1.07577 -0.0454527 2.5658e-19)
(1.0772 -0.0433261 -1.18766e-19)
(1.07855 -0.041154 -1.08368e-20)
(1.0798 -0.038936 1.18384e-19)
)
;
    }
    procBoundary20to21
    {
        type            processor;
        value           nonuniform List<vector> 
24
(
(1.03044 -0.00298867 6.73211e-21)
(1.03411 -0.000348612 -6.30447e-21)
(1.03086 -0.00212382 -6.17863e-21)
(1.03411 -0.000348612 -6.30447e-21)
(1.03448 0.000650228 -5.65119e-21)
(1.03481 0.00160647 -5.48447e-20)
(1.03883 -7.33489e-05 4.0508e-20)
(1.03883 -7.33489e-05 4.0508e-20)
(1.03927 0.00113306 -5.57202e-21)
(1.03968 0.00236708 -4.84598e-20)
(1.01317 -0.00245801 -8.84251e-22)
(1.01394 -0.00257268 1.15568e-21)
(1.01478 -0.00269066 -5.32109e-22)
(1.01568 -0.0028105 1.54953e-22)
(1.01666 -0.00292982 -1.79105e-21)
(1.01773 -0.00304558 6.78013e-22)
(1.01889 -0.00315448 1.71456e-21)
(1.02015 -0.00324887 2.60395e-21)
(1.02153 -0.00331958 -5.06706e-21)
(1.02304 -0.00336548 1.93072e-21)
(1.02468 -0.00336244 1.02186e-21)
(1.0264 -0.00324763 -5.92956e-21)
(1.02829 -0.00307062 1.91652e-21)
(1.03044 -0.00298867 6.73211e-21)
)
;
    }
    procBoundary20to28
    {
        type            processor;
        value           nonuniform List<vector> 
22
(
(1.08094 -0.0366716 -1.49281e-21)
(1.08194 -0.0343594 -3.88901e-20)
(1.08278 -0.0319973 2.8524e-19)
(1.08344 -0.0295827 -2.51657e-19)
(1.08387 -0.0271117 1.87858e-19)
(1.08403 -0.0245794 -1.47567e-20)
(1.07332 -0.0139986 2.64543e-19)
(1.07332 -0.0139986 2.64543e-19)
(1.07345 -0.0119701 -5.22097e-19)
(1.07331 -0.00988954 1.53368e-19)
(1.07284 -0.00774953 2.22682e-19)
(1.07193 -0.00554079 -3.60344e-19)
(1.06625 -0.00329032 5.2831e-20)
(1.06625 -0.00329032 5.2831e-20)
(1.06542 -0.00127869 2.74343e-19)
(1.06406 0.000797217 9.46102e-20)
(1.06202 0.00295168 -2.30999e-19)
(1.05696 0.00599188 3.09963e-19)
(1.05696 0.00599188 3.09963e-19)
(1.05478 0.00788582 -8.89814e-20)
(1.0516 0.0098807 -1.13817e-19)
(1.04816 0.0111463 -1.16776e-19)
)
;
    }
    procBoundary20to29
    {
        type            processor;
        value           nonuniform List<vector> 10((1.04402 0.00229979 8.86197e-20) (1.04402 0.00229979 8.86197e-20) (1.04439 0.00340361 -1.33567e-19) (1.04472 0.00451215 9.0542e-20) (1.04499 0.00562752 -9.92506e-20) (1.0452 0.00675147 1.27418e-19) (1.04942 0.00725413 7.61395e-21) (1.04942 0.00725413 7.61395e-21) (1.04902 0.00862921 3.82881e-20) (1.04825 0.01004 -5.20413e-20));
    }
}


// ************************************************************************* //
