/*--------------------------------*- C++ -*----------------------------------*\
  =========                 |
  \\      /  F ield         | OpenFOAM: The Open Source CFD Toolbox
   \\    /   O peration     | Website:  https://openfoam.org
    \\  /    A nd           | Version:  7
     \\/     M anipulation  |
\*---------------------------------------------------------------------------*/
FoamFile
{
    version     2.0;
    format      ascii;
    class       volScalarField;
    location    "10";
    object      T;
}
// * * * * * * * * * * * * * * * * * * * * * * * * * * * * * * * * * * * * * //

dimensions      [0 0 0 1 0 0 0];

internalField   nonuniform List<scalar> 
2413
(
1.16675
1.16788
1.16931
1.17106
1.17315
1.17559
1.1784
1.18156
1.18509
1.189
1.19328
1.19794
1.20295
1.20835
1.21414
1.22037
1.22713
1.23452
1.2426
1.25138
1.26084
1.27087
1.2813
1.292
1.30281
1.3136
1.32429
1.33485
1.34531
1.35569
1.36604
1.37642
1.38687
1.39747
1.4083
1.41939
1.4307
1.44215
1.45362
1.46501
1.47624
1.4872
1.49785
1.5081
1.51783
1.527
1.53564
1.54365
1.55106
1.5583
1.56576
1.57375
1.58262
1.5928
1.60463
1.61838
1.63409
1.65166
1.67091
1.69145
1.71258
1.73349
1.75346
1.77201
1.78895
1.80451
1.81889
1.83202
1.84359
1.85293
1.85817
1.85944
1.85945
1.85908
1.8577
1.85526
1.8515
1.84616
1.83948
1.83198
1.82454
1.81787
1.81231
1.8078
1.80404
1.8008
1.79802
1.79565
1.79347
1.79161
1.79006
1.78869
1.78742
1.78637
1.78556
1.78497
1.78439
1.78372
1.78299
1.78205
1.78077
1.77916
1.77728
1.77532
1.77318
1.77088
1.76841
1.76575
1.76258
1.75878
1.75427
1.74908
1.74337
1.73724
1.73072
1.72391
1.71699
1.71
1.70289
1.69532
1.68686
1.6773
1.66604
1.65386
1.63957
1.62505
1.60607
1.60604
1.66585
1.70081
1.68912
1.67178
1.16196
1.16302
1.16435
1.16596
1.16786
1.17006
1.17258
1.17543
1.17864
1.18223
1.18623
1.19064
1.1955
1.20082
1.20664
1.21298
1.21989
1.22736
1.23541
1.24401
1.2531
1.26262
1.27246
1.28252
1.29271
1.30293
1.31316
1.32338
1.33365
1.344
1.35453
1.36532
1.37642
1.38786
1.39963
1.41166
1.42388
1.43616
1.44834
1.4603
1.47189
1.48305
1.49373
1.50389
1.5135
1.52253
1.53096
1.53876
1.54615
1.55347
1.56106
1.56922
1.57826
1.58862
1.60062
1.61445
1.63012
1.64756
1.6666
1.68684
1.7076
1.72819
1.74787
1.76623
1.78311
1.79863
1.8131
1.8265
1.83858
1.8485
1.85485
1.85759
1.85826
1.85816
1.85724
1.85525
1.85183
1.84677
1.84029
1.83302
1.82577
1.81912
1.81348
1.80889
1.80504
1.80169
1.79875
1.79616
1.79387
1.7919
1.79022
1.7887
1.78728
1.78601
1.78491
1.78396
1.78303
1.78213
1.78119
1.78019
1.77899
1.77755
1.77591
1.77414
1.77214
1.76996
1.76746
1.76473
1.76161
1.7579
1.75368
1.74895
1.74367
1.73784
1.73157
1.72495
1.71807
1.7109
1.70354
1.69582
1.68755
1.67831
1.66796
1.65652
1.64389
1.63022
1.61378
1.60891
1.66522
1.7063
1.69459
1.677
1.14777
1.14853
1.14948
1.15064
1.152
1.1536
1.15546
1.15765
1.16021
1.1632
1.16663
1.17049
1.17476
1.17943
1.18448
1.18988
1.19567
1.20188
1.20856
1.21575
1.22349
1.23179
1.24061
1.2499
1.25959
1.2696
1.27989
1.29041
1.30119
1.31223
1.32356
1.33522
1.34721
1.35947
1.37187
1.38427
1.39663
1.40891
1.42108
1.43312
1.445
1.45673
1.46826
1.47954
1.49049
1.50105
1.51109
1.52063
1.52971
1.53839
1.54686
1.55543
1.56452
1.57453
1.5858
1.59861
1.61312
1.62934
1.6471
1.6661
1.68597
1.70606
1.72579
1.74466
1.76245
1.77917
1.79481
1.80945
1.82297
1.83455
1.84318
1.84863
1.85164
1.85271
1.85261
1.85162
1.84924
1.84521
1.8396
1.83301
1.82606
1.8194
1.81366
1.80899
1.80513
1.80176
1.79869
1.79591
1.79339
1.79112
1.7891
1.78732
1.78569
1.78415
1.78271
1.78129
1.77987
1.77845
1.77699
1.77554
1.77413
1.77269
1.77124
1.76977
1.76811
1.76618
1.76384
1.76101
1.75768
1.75403
1.75022
1.74612
1.74161
1.73667
1.73135
1.72557
1.71924
1.71248
1.70557
1.69855
1.69128
1.68337
1.67495
1.66573
1.65575
1.64453
1.6318
1.62149
1.66901
1.72621
1.71582
1.69789
1.12328
1.12374
1.12432
1.12498
1.12576
1.12668
1.12777
1.12909
1.1307
1.13264
1.13489
1.13746
1.14035
1.14355
1.14707
1.15094
1.15517
1.15981
1.16494
1.17065
1.17699
1.18399
1.19164
1.19986
1.20857
1.21767
1.22709
1.23675
1.24657
1.25653
1.26667
1.27705
1.2878
1.29901
1.31071
1.32286
1.33543
1.34837
1.36165
1.37525
1.38916
1.4034
1.41795
1.43267
1.44743
1.46198
1.4761
1.48958
1.50218
1.51367
1.52412
1.53383
1.54316
1.55249
1.56225
1.5729
1.58487
1.59838
1.61351
1.63014
1.64802
1.66679
1.68602
1.70523
1.72401
1.74206
1.75915
1.77522
1.79011
1.80332
1.81425
1.82261
1.82855
1.83237
1.83461
1.83527
1.835
1.83351
1.83027
1.82583
1.82048
1.81491
1.80989
1.80566
1.80205
1.79878
1.79567
1.79267
1.78974
1.78685
1.78409
1.78157
1.77925
1.77706
1.77493
1.7728
1.77069
1.7685
1.76615
1.76369
1.76129
1.75902
1.75692
1.75502
1.75318
1.75127
1.74912
1.74651
1.74339
1.73988
1.73681
1.73411
1.73117
1.72808
1.72473
1.72101
1.71664
1.71162
1.70604
1.69999
1.69373
1.68752
1.68165
1.67527
1.6688
1.66104
1.65306
1.6409
1.67278
1.74836
1.7496
1.73673
1.09465
1.09492
1.09521
1.09559
1.09603
1.09651
1.09703
1.09765
1.09842
1.09937
1.10052
1.1019
1.1035
1.10534
1.10743
1.10978
1.11242
1.11539
1.11873
1.12247
1.12664
1.13129
1.13645
1.14212
1.1483
1.15499
1.16215
1.16969
1.17753
1.18563
1.194
1.20268
1.21179
1.22149
1.23192
1.2432
1.25537
1.26843
1.2823
1.29691
1.31222
1.32819
1.34479
1.36193
1.37945
1.39715
1.41471
1.43173
1.44785
1.46275
1.47628
1.48844
1.49945
1.5096
1.51929
1.52905
1.5394
1.55072
1.56322
1.57697
1.59197
1.60812
1.62521
1.64296
1.66111
1.67939
1.69749
1.71513
1.73205
1.7479
1.76221
1.77457
1.78474
1.79273
1.79867
1.80296
1.8063
1.8081
1.80813
1.8074
1.80557
1.80281
1.79969
1.79672
1.79389
1.791
1.78804
1.78502
1.78189
1.77866
1.77539
1.77205
1.76868
1.76527
1.76181
1.75827
1.75468
1.75104
1.74734
1.7437
1.74018
1.73684
1.73385
1.73108
1.7285
1.72617
1.724
1.72189
1.71956
1.71699
1.71484
1.71351
1.71217
1.71081
1.70947
1.70814
1.70638
1.70413
1.7011
1.69732
1.69288
1.68845
1.68419
1.67951
1.67519
1.67059
1.66665
1.65852
1.66888
1.74365
1.78708
1.77961
1.06779
1.06795
1.06824
1.06853
1.06877
1.06904
1.06935
1.06975
1.07022
1.07073
1.07132
1.07202
1.07282
1.07373
1.07473
1.07588
1.07726
1.07886
1.08064
1.08267
1.08495
1.08742
1.09014
1.0932
1.0967
1.1007
1.10519
1.11014
1.11553
1.12134
1.12754
1.13412
1.14111
1.1486
1.15674
1.16565
1.17542
1.18608
1.19763
1.21008
1.22349
1.23792
1.25343
1.27001
1.2876
1.30602
1.32499
1.34416
1.36308
1.38126
1.39827
1.41387
1.42797
1.44068
1.45225
1.46305
1.47348
1.48395
1.49485
1.50647
1.51898
1.53252
1.54721
1.56312
1.58018
1.59825
1.61707
1.63626
1.65546
1.67429
1.69224
1.70875
1.72336
1.73585
1.74618
1.75475
1.76199
1.76784
1.77249
1.77626
1.77915
1.7808
1.78103
1.78078
1.7799
1.77825
1.77603
1.77346
1.77058
1.76738
1.76388
1.76004
1.75591
1.75155
1.74695
1.74214
1.7371
1.73194
1.72681
1.72183
1.71708
1.71253
1.70819
1.70412
1.70043
1.69719
1.69426
1.69149
1.68896
1.68638
1.68427
1.68316
1.68276
1.68267
1.68279
1.68314
1.6838
1.68453
1.68463
1.68437
1.68358
1.68208
1.68007
1.67761
1.6751
1.67251
1.67017
1.66645
1.66356
1.71035
1.7921
1.80941
1.04713
1.04743
1.04778
1.048
1.04836
1.04877
1.0492
1.04954
1.04982
1.05017
1.05053
1.05083
1.05113
1.05143
1.05177
1.05221
1.05278
1.05351
1.05448
1.05568
1.05707
1.05853
1.06005
1.06185
1.0638
1.06577
1.06785
1.07017
1.07274
1.07563
1.07892
1.08261
1.08672
1.09131
1.09646
1.10224
1.10869
1.11594
1.1241
1.13324
1.14341
1.15466
1.16706
1.18066
1.19553
1.21167
1.22899
1.24726
1.26616
1.28523
1.30397
1.32191
1.33863
1.35385
1.3675
1.37973
1.39088
1.40138
1.41166
1.42216
1.43323
1.44513
1.45812
1.47239
1.48806
1.50516
1.52359
1.54312
1.56337
1.58392
1.60429
1.62387
1.64202
1.6584
1.67286
1.68554
1.6966
1.70633
1.71509
1.72315
1.73041
1.73657
1.74152
1.74545
1.74827
1.74941
1.74939
1.74885
1.74749
1.74531
1.74255
1.73928
1.73545
1.73118
1.72648
1.7213
1.7157
1.70972
1.70359
1.69759
1.69168
1.68582
1.68007
1.67453
1.6694
1.66486
1.66087
1.65705
1.65346
1.65028
1.64759
1.64604
1.64582
1.64603
1.64668
1.64782
1.64938
1.65129
1.65344
1.65594
1.65862
1.66106
1.66308
1.6646
1.66538
1.66521
1.66477
1.66351
1.66036
1.67217
1.74753
1.81464
1.03293
1.03315
1.03326
1.03354
1.03399
1.03448
1.03507
1.03562
1.03633
1.03708
1.03742
1.03766
1.0379
1.03802
1.03802
1.03807
1.03816
1.03834
1.03865
1.03907
1.03967
1.04019
1.04089
1.04208
1.04328
1.04453
1.04597
1.04751
1.0491
1.05075
1.05239
1.0541
1.05599
1.05806
1.06035
1.06301
1.06614
1.06987
1.07429
1.07948
1.08553
1.09251
1.10054
1.10973
1.12017
1.1319
1.1449
1.15914
1.17449
1.19075
1.20758
1.22458
1.24131
1.25734
1.27233
1.28609
1.29862
1.31013
1.32093
1.33146
1.3421
1.35321
1.36508
1.37799
1.3922
1.40783
1.42496
1.44359
1.46352
1.48439
1.50578
1.5272
1.54801
1.56765
1.58575
1.60217
1.61686
1.62998
1.64193
1.65299
1.66317
1.67243
1.68084
1.68826
1.69447
1.69918
1.70263
1.70518
1.70657
1.70662
1.70622
1.70509
1.70311
1.7003
1.6968
1.69269
1.68789
1.68234
1.67622
1.67021
1.66421
1.65802
1.65173
1.6455
1.63958
1.63415
1.62934
1.62495
1.62057
1.61646
1.61302
1.6105
1.60904
1.60877
1.60896
1.60959
1.61084
1.61269
1.61505
1.6182
1.62195
1.62616
1.63041
1.6349
1.63863
1.64234
1.64506
1.64808
1.64978
1.65229
1.67961
1.76203
1.02517
1.02514
1.02519
1.0255
1.02583
1.0262
1.02673
1.02735
1.02827
1.02911
1.02965
1.03037
1.03128
1.03168
1.03195
1.03216
1.0323
1.03226
1.03216
1.03201
1.03182
1.0316
1.03163
1.03175
1.03205
1.03264
1.03323
1.03396
1.03505
1.03607
1.03711
1.03843
1.03988
1.04114
1.04244
1.04393
1.0455
1.04708
1.04888
1.05109
1.05376
1.05702
1.06092
1.06551
1.07093
1.07735
1.08488
1.09358
1.10347
1.11448
1.12648
1.13929
1.15267
1.16627
1.17973
1.19274
1.20511
1.21679
1.22789
1.23862
1.24925
1.2601
1.27146
1.2836
1.29677
1.31112
1.32676
1.34381
1.36232
1.38213
1.40301
1.42468
1.44665
1.46836
1.48924
1.50892
1.52713
1.54375
1.55891
1.57281
1.58559
1.59733
1.6082
1.61812
1.62691
1.63456
1.64115
1.64663
1.65095
1.65424
1.65676
1.6583
1.65848
1.65818
1.65706
1.65494
1.65192
1.64813
1.64333
1.63846
1.6335
1.62802
1.62228
1.61647
1.61084
1.60548
1.60049
1.59601
1.59165
1.58735
1.58355
1.58057
1.57827
1.57691
1.57668
1.5768
1.5772
1.5781
1.57951
1.58152
1.58427
1.58783
1.59209
1.59691
1.602
1.60736
1.61253
1.61792
1.62341
1.62723
1.63525
1.67328
1.02143
1.02171
1.02201
1.02221
1.02228
1.02244
1.02273
1.0231
1.02361
1.02412
1.0247
1.02561
1.02637
1.02713
1.02787
1.0283
1.02895
1.02941
1.02973
1.02976
1.02968
1.02948
1.02921
1.02892
1.02865
1.02845
1.02834
1.0284
1.02859
1.02876
1.02912
1.02975
1.03038
1.03093
1.03172
1.03269
1.03348
1.03424
1.03533
1.03646
1.03765
1.03907
1.04077
1.04283
1.04539
1.04846
1.05208
1.05635
1.06139
1.06728
1.0741
1.08183
1.09033
1.09942
1.10893
1.11866
1.1284
1.13805
1.14757
1.15701
1.16649
1.17624
1.18647
1.19735
1.20907
1.22177
1.23556
1.25058
1.26697
1.28477
1.30387
1.32413
1.34535
1.36718
1.38911
1.41067
1.43142
1.45102
1.46928
1.48604
1.50133
1.51531
1.52816
1.53989
1.5506
1.56041
1.56928
1.5771
1.58398
1.59006
1.59524
1.59937
1.60257
1.60516
1.6067
1.60681
1.60644
1.60536
1.60329
1.60033
1.5971
1.59342
1.58936
1.58504
1.58073
1.57648
1.57228
1.56843
1.56473
1.56109
1.55768
1.55477
1.55227
1.55046
1.54967
1.54961
1.5497
1.55004
1.55084
1.55209
1.5539
1.55626
1.55936
1.56299
1.56708
1.57168
1.57658
1.58193
1.58814
1.59399
1.59932
1.61186
1.02012
1.02038
1.02059
1.02079
1.02105
1.02136
1.02147
1.02163
1.02194
1.02224
1.02271
1.0234
1.02398
1.0247
1.02545
1.02584
1.02648
1.02701
1.02736
1.02788
1.02809
1.02817
1.02837
1.02831
1.02808
1.02791
1.02773
1.02746
1.02717
1.02701
1.02691
1.02685
1.02685
1.02693
1.02721
1.0274
1.02751
1.02787
1.02823
1.02857
1.02903
1.02944
1.02997
1.03076
1.03169
1.03277
1.03406
1.03569
1.03775
1.04031
1.04338
1.04703
1.05133
1.0563
1.06188
1.06801
1.07455
1.08135
1.08829
1.09531
1.10245
1.10983
1.11764
1.12607
1.13529
1.14544
1.15661
1.16887
1.18231
1.19705
1.21312
1.23055
1.24931
1.26924
1.29008
1.31146
1.33291
1.35407
1.37454
1.39381
1.41169
1.42823
1.44342
1.45723
1.46987
1.48154
1.49222
1.50193
1.51086
1.519
1.52627
1.53273
1.53844
1.54336
1.54738
1.55042
1.55273
1.55446
1.55498
1.55481
1.55418
1.55304
1.55147
1.54947
1.54731
1.5451
1.54269
1.54035
1.53805
1.5358
1.53361
1.53164
1.52986
1.52844
1.52767
1.52755
1.52762
1.52788
1.52849
1.52945
1.53068
1.53232
1.53443
1.53701
1.54006
1.54349
1.54732
1.55155
1.55632
1.56173
1.5666
1.57224
1.01979
1.01988
1.01997
1.02023
1.02068
1.02079
1.02087
1.02123
1.0217
1.02203
1.02248
1.02293
1.02327
1.02374
1.02435
1.02476
1.02534
1.02585
1.02611
1.02664
1.02691
1.027
1.02734
1.02743
1.02737
1.02748
1.02747
1.0273
1.02709
1.02706
1.02698
1.02669
1.02646
1.02646
1.02648
1.02624
1.02617
1.0263
1.02615
1.02617
1.02632
1.02611
1.02615
1.02637
1.02637
1.02644
1.02672
1.02718
1.02766
1.02826
1.0291
1.0302
1.03157
1.0333
1.03551
1.03827
1.04159
1.0454
1.04965
1.05427
1.05921
1.06444
1.07003
1.07604
1.08255
1.08969
1.0976
1.10641
1.11626
1.12729
1.13953
1.15303
1.16786
1.18405
1.20159
1.22032
1.23994
1.26017
1.28062
1.30068
1.31993
1.33823
1.3554
1.3713
1.38608
1.39987
1.41266
1.42447
1.43542
1.44547
1.45462
1.46305
1.47074
1.47761
1.48372
1.48916
1.49394
1.4981
1.50152
1.50431
1.50646
1.50804
1.50919
1.50991
1.51042
1.51049
1.5104
1.51018
1.50983
1.50936
1.50879
1.50822
1.50761
1.50721
1.50709
1.50724
1.50765
1.50836
1.50932
1.51055
1.51202
1.51367
1.51562
1.51779
1.52028
1.5229
1.52571
1.5289
1.53238
1.53637
1.54064
1.54453
1.02013
1.02003
1.02006
1.0204
1.02065
1.0208
1.02125
1.02193
1.02222
1.02265
1.02329
1.02359
1.02372
1.02402
1.02439
1.02471
1.0251
1.02548
1.02562
1.02596
1.02626
1.02638
1.02674
1.02695
1.02694
1.02705
1.0271
1.02696
1.02688
1.02692
1.02685
1.02658
1.02646
1.02649
1.02649
1.02621
1.02604
1.02613
1.0259
1.02575
1.02583
1.02554
1.02531
1.0254
1.02515
1.02484
1.02495
1.025
1.02476
1.02485
1.02516
1.0253
1.02552
1.0259
1.02638
1.02691
1.02763
1.02862
1.02992
1.03161
1.03378
1.03642
1.03945
1.04285
1.04663
1.05094
1.0559
1.06158
1.06803
1.07539
1.08375
1.09318
1.1038
1.11571
1.12895
1.14351
1.15926
1.17612
1.1939
1.21216
1.23048
1.24863
1.26637
1.28343
1.29974
1.3153
1.33004
1.3439
1.35689
1.36896
1.38012
1.39046
1.4
1.40877
1.41691
1.42443
1.43137
1.43782
1.4438
1.44927
1.45417
1.45849
1.46236
1.46579
1.46882
1.47152
1.47389
1.47606
1.478
1.47966
1.48104
1.48227
1.48339
1.48442
1.4854
1.48647
1.48772
1.4891
1.49067
1.49244
1.49441
1.49652
1.49874
1.50109
1.50356
1.50611
1.50875
1.51153
1.51446
1.51743
1.52086
1.52416
1.02089
1.02079
1.0209
1.02125
1.02145
1.02173
1.02236
1.02292
1.02329
1.02388
1.02442
1.02465
1.02487
1.02525
1.02546
1.02559
1.02576
1.02586
1.0259
1.02602
1.02618
1.02618
1.02637
1.02666
1.02669
1.02682
1.02703
1.02694
1.02684
1.02686
1.02679
1.02651
1.02642
1.02642
1.02635
1.02602
1.02591
1.02597
1.02571
1.02545
1.02549
1.02519
1.02481
1.0248
1.02451
1.02396
1.0238
1.02355
1.02303
1.02287
1.02284
1.02243
1.02236
1.0225
1.02244
1.02246
1.02265
1.02293
1.02316
1.02339
1.02367
1.02412
1.02486
1.0259
1.02725
1.02904
1.03134
1.03415
1.03755
1.04166
1.04655
1.05226
1.05885
1.06641
1.07505
1.08487
1.09592
1.10822
1.12173
1.13618
1.15128
1.16685
1.18271
1.19864
1.21453
1.23036
1.24593
1.26105
1.27558
1.28935
1.30231
1.31447
1.32581
1.33635
1.34627
1.35562
1.36446
1.37294
1.38112
1.38899
1.39647
1.40347
1.41002
1.4161
1.4217
1.42689
1.43171
1.43624
1.44051
1.44442
1.44792
1.45114
1.45413
1.45686
1.45934
1.46173
1.46416
1.46662
1.46917
1.47183
1.47461
1.47753
1.48052
1.48352
1.48654
1.48948
1.49246
1.4954
1.49825
1.50114
1.50404
1.50728
1.02276
1.02277
1.02306
1.0234
1.02349
1.0238
1.02438
1.02475
1.02514
1.02574
1.02617
1.02634
1.0267
1.02707
1.02715
1.02727
1.02726
1.02719
1.02707
1.02699
1.02689
1.02667
1.02667
1.02672
1.02662
1.02664
1.02687
1.02684
1.02678
1.02685
1.02682
1.0266
1.02648
1.02646
1.02632
1.02596
1.02591
1.02594
1.02567
1.02538
1.02535
1.02499
1.0246
1.02453
1.02415
1.02356
1.02328
1.02283
1.0222
1.02185
1.02158
1.02092
1.02051
1.02038
1.01998
1.01966
1.0195
1.01937
1.01937
1.01939
1.01938
1.01962
1.01997
1.02021
1.02063
1.02128
1.02207
1.02317
1.02468
1.02649
1.02864
1.03125
1.03445
1.03831
1.04289
1.04818
1.05428
1.06138
1.06962
1.079
1.08938
1.10064
1.11267
1.12534
1.13855
1.15224
1.16624
1.18038
1.19448
1.20833
1.22182
1.23483
1.24729
1.25913
1.27044
1.28131
1.29174
1.30187
1.31182
1.32161
1.33119
1.34046
1.34937
1.35786
1.36589
1.37347
1.3806
1.38738
1.39388
1.40003
1.40581
1.41122
1.41636
1.42118
1.42565
1.42985
1.43393
1.43788
1.44172
1.44556
1.44944
1.45335
1.45737
1.46132
1.46524
1.46903
1.47279
1.47646
1.4799
1.48328
1.48653
1.48968
1.025
1.02527
1.02581
1.02607
1.02618
1.02651
1.02685
1.02701
1.02723
1.02755
1.02781
1.02799
1.02831
1.02871
1.0287
1.02874
1.02883
1.02874
1.02854
1.02832
1.02805
1.0277
1.02751
1.02741
1.02713
1.02696
1.02704
1.02698
1.02679
1.02679
1.02675
1.02652
1.02636
1.02634
1.02619
1.02584
1.02583
1.02587
1.02564
1.02539
1.02529
1.02485
1.02447
1.02438
1.02391
1.02334
1.02302
1.02247
1.02172
1.02122
1.02066
1.01998
1.01942
1.01915
1.01877
1.01825
1.01785
1.01752
1.01734
1.01716
1.01688
1.0169
1.01706
1.0171
1.01722
1.0173
1.01748
1.01783
1.01826
1.01882
1.01957
1.02057
1.02178
1.02325
1.02505
1.0273
1.03016
1.03371
1.03801
1.04305
1.0488
1.05529
1.06259
1.07071
1.07967
1.08946
1.09997
1.11107
1.12261
1.1344
1.14629
1.15819
1.16998
1.18156
1.1929
1.20405
1.21497
1.22574
1.23645
1.24719
1.25799
1.26877
1.27944
1.28988
1.29996
1.3096
1.31877
1.3275
1.33594
1.34411
1.35201
1.3596
1.36695
1.37398
1.38065
1.3869
1.39291
1.39861
1.40412
1.40942
1.41467
1.41986
1.42511
1.43033
1.43552
1.44062
1.44566
1.45048
1.45515
1.45944
1.4637
1.46745
1.02731
1.02774
1.02832
1.02849
1.02867
1.02903
1.02913
1.0291
1.02909
1.02906
1.02907
1.02912
1.0292
1.02944
1.02945
1.02946
1.02961
1.02953
1.02937
1.02922
1.02899
1.02861
1.02834
1.02818
1.02787
1.02752
1.02752
1.02748
1.02727
1.02713
1.02702
1.02682
1.02662
1.02644
1.02617
1.02581
1.02577
1.02578
1.02553
1.02528
1.02514
1.02467
1.02432
1.02411
1.02353
1.02302
1.02274
1.02215
1.02143
1.02098
1.02069
1.02
1.01932
1.0189
1.01866
1.01801
1.01739
1.01693
1.01654
1.01619
1.01578
1.01554
1.01555
1.01553
1.01523
1.0149
1.0148
1.01453
1.01418
1.01417
1.0141
1.01403
1.01412
1.01428
1.01458
1.01516
1.0161
1.01738
1.01905
1.0212
1.02394
1.02728
1.03124
1.03583
1.04104
1.04684
1.0532
1.06017
1.06774
1.07588
1.08453
1.09361
1.10305
1.11266
1.12237
1.13217
1.14201
1.15189
1.16186
1.17202
1.18244
1.1931
1.20396
1.21495
1.22585
1.23655
1.24694
1.25699
1.26676
1.27631
1.28568
1.29484
1.30388
1.31275
1.32144
1.3298
1.33787
1.34561
1.35299
1.35998
1.36682
1.37345
1.38008
1.38668
1.39332
1.3999
1.4065
1.4129
1.41924
1.42516
1.43088
1.436
1.02896
1.02937
1.02985
1.02999
1.03025
1.03057
1.03056
1.03046
1.03035
1.03022
1.03006
1.02991
1.02974
1.02965
1.02954
1.02933
1.02943
1.02945
1.02935
1.0293
1.02921
1.02894
1.02868
1.02858
1.02838
1.02803
1.02795
1.02793
1.02781
1.02755
1.02735
1.02717
1.02697
1.02675
1.02643
1.02605
1.02601
1.02601
1.02574
1.02547
1.02534
1.02487
1.02448
1.02428
1.02371
1.02313
1.02284
1.02232
1.0216
1.02106
1.0208
1.02031
1.01961
1.01909
1.01884
1.0183
1.01757
1.01703
1.0166
1.0161
1.01563
1.01525
1.01512
1.01469
1.01415
1.01389
1.01352
1.01275
1.01224
1.01212
1.01181
1.01127
1.01108
1.01112
1.011
1.01058
1.01063
1.01091
1.0112
1.01155
1.01218
1.0132
1.01459
1.01633
1.01847
1.02106
1.02408
1.02757
1.03156
1.03605
1.04101
1.04647
1.05243
1.05881
1.06557
1.07271
1.08017
1.08791
1.09591
1.10425
1.11298
1.12213
1.1317
1.14163
1.15175
1.16194
1.17207
1.18204
1.19187
1.20161
1.21136
1.22106
1.23086
1.24067
1.25056
1.26028
1.26986
1.27912
1.288
1.29641
1.30452
1.31232
1.32009
1.32775
1.33567
1.34361
1.35177
1.35982
1.36794
1.3757
1.3831
1.38998
1.03014
1.03056
1.03081
1.03085
1.03096
1.0311
1.03106
1.03096
1.03085
1.03069
1.03044
1.03016
1.02985
1.02963
1.02946
1.02925
1.02909
1.02902
1.02879
1.02867
1.02871
1.02862
1.02838
1.02831
1.02825
1.02801
1.02789
1.02789
1.02783
1.02765
1.02746
1.0273
1.02713
1.02696
1.02664
1.02629
1.02627
)
;

boundaryField
{
    inlet
    {
        type            fixedValue;
        value           nonuniform 0();
    }
    outlet
    {
        type            inletOutlet;
        inletValue      nonuniform 0();
        value           nonuniform 0();
    }
    bottom
    {
        type            symmetryPlane;
    }
    top
    {
        type            symmetryPlane;
    }
    obstacle
    {
        type            zeroGradient;
    }
    front
    {
        type            empty;
    }
    back
    {
        type            empty;
    }
    procBoundary6to5
    {
        type            processor;
        value           nonuniform List<scalar> 
14
(
1.16593
1.16119
1.14723
1.12297
1.09446
1.06764
1.04705
1.0328
1.02522
1.02136
1.01982
1.01952
1.02011
1.0209
)
;
    }
    procBoundary6to7
    {
        type            processor;
        value           nonuniform List<scalar> 
18
(
1.65517
1.6601
1.68038
1.71946
1.76503
1.80322
1.82514
1.8211
1.75575
1.6533
1.58541
1.54964
1.52725
1.51007
1.49293
1.47119
1.44073
1.39614
)
;
    }
    procBoundary6to13
    {
        type            processor;
        value           nonuniform List<scalar> 5(1.02279 1.02486 1.02707 1.02881 1.03002);
    }
    procBoundary6to14
    {
        type            processor;
        value           nonuniform List<scalar> 
133
(
1.02627
1.02598
1.02569
1.02557
1.02514
1.02472
1.0245
1.024
1.02336
1.02301
1.02253
1.02183
1.02128
1.02097
1.02061
1.01998
1.01945
1.01918
1.01882
1.01806
1.0174
1.01697
1.0164
1.01584
1.01537
1.01515
1.01478
1.01413
1.01372
1.01327
1.01257
1.01197
1.01169
1.01142
1.01098
1.01055
1.01052
1.01043
1.00967
1.00924
1.0093
1.00911
1.00866
1.00867
1.00878
1.00888
1.009
1.00919
1.00958
1.01023
1.01119
1.01247
1.01411
1.01612
1.01853
1.02141
1.0247
1.02835
1.03237
1.03675
1.04148
1.04657
1.05207
1.05803
1.06448
1.07142
1.07887
1.08675
1.09501
1.10355
1.11222
1.12096
1.1297
1.1385
1.14734
1.1563
1.16541
1.17477
1.18425
1.19391
1.20355
1.21309
1.22221
1.23112
1.2397
1.24811
1.25655
1.26512
1.27391
1.28293
1.29201
1.30119
1.3102
1.31899
1.3273
1.03096
1.0312
1.03122
1.03116
1.03113
1.0311
1.03101
1.03084
1.03073
1.03061
1.03031
1.03001
1.02973
1.02945
1.02918
1.02891
1.02866
1.02843
1.02815
1.02796
1.02792
1.02783
1.02762
1.02753
1.02752
1.02738
1.02727
1.0273
1.02727
1.02714
1.02703
1.02691
1.02678
1.02667
1.02643
1.02613
1.02627
1.02613
)
;
    }
}


// ************************************************************************* //
