/*--------------------------------*- C++ -*----------------------------------*\
  =========                 |
  \\      /  F ield         | OpenFOAM: The Open Source CFD Toolbox
   \\    /   O peration     | Website:  https://openfoam.org
    \\  /    A nd           | Version:  7
     \\/     M anipulation  |
\*---------------------------------------------------------------------------*/
FoamFile
{
    version     2.0;
    format      ascii;
    class       volScalarField;
    location    "1.009";
    object      p;
}
// * * * * * * * * * * * * * * * * * * * * * * * * * * * * * * * * * * * * * //

dimensions      [0 2 -2 0 0 0 0];

internalField   nonuniform List<scalar> 
12359
(
0.063259
0.0727005
0.0466674
0.105756
0.0667012
0.152547
0.184418
0.166563
0.223501
0.140978
0.205663
0.274386
0.48424
0.113039
0.100416
0.392695
0.440644
0.0512583
0.0508638
0.0855961
0.121304
0.247749
0.0788908
0.0910159
0.0755835
0.082009
0.04787
0.0477285
0.0501535
0.0483823
0.0488089
0.0472047
0.0468402
0.0481498
0.0467033
0.0490076
0.05649
0.0616364
0.0650588
0.0590216
0.0705205
0.0602021
0.0540381
0.0533471
0.0495225
0.0497908
0.0492807
0.0486227
0.050496
0.0479952
0.0475929
0.0474465
0.0471188
0.0516645
0.0470299
0.0468774
0.0526977
0.046823
0.0468157
0.0467479
0.0469257
0.0466941
0.0474978
0.513905
0.0521721
0.130535
0.0557614
0.0473566
0.0572599
0.345757
0.529285
0.0685516
0.0466567
0.0581205
0.0958483
0.0467073
0.0471072
0.0466732
0.0549975
0.314894
0.12494
0.0421018
0.0456307
0.0487151
-0.0586766
0.0241316
0.0419499
0.0440794
-0.0704288
-0.052868
0.046432
0.470157
0.0463809
0.0467758
0.0473864
0.00733181
0.0461739
0.0469156
0.0565782
0.0529078
0.105254
0.046547
0.0252344
-0.130172
0.040501
0.0130334
0.0453143
-0.057121
0.0288267
0.0134881
0.0461875
0.0422399
0.107651
0.0887099
0.0476047
0.0425401
0.0905237
0.0410686
-0.0763627
0.0456747
0.0462764
0.172622
0.0439425
0.00552167
0.0408763
0.0421386
0.0364625
0.0485684
0.0466626
0.0406189
0.0430049
-0.00250612
-0.00411441
-0.00288694
0.0453828
0.00675068
0.0426034
0.006927
0.0465815
0.0374064
0.0458342
0.0646089
0.0148329
0.0453487
0.00792754
0.144924
0.0456371
-0.0480045
0.0403304
0.125211
0.00137887
0.046564
0.01484
0.0438632
0.0463265
-0.174747
0.106557
-0.00169505
0.0462845
0.0472847
0.0445678
0.0473349
0.00419768
0.0119025
0.0456123
0.0421564
0.0456542
0.17195
0.0134805
-0.0724274
0.0466756
0.046697
0.0124265
0.0754975
0.0404908
0.0407646
0.0501511
0.0499322
0.109469
0.041111
0.113011
0.0463051
0.0466643
0.0417844
0.0554238
0.203942
0.0419042
0.0464472
0.00414863
0.0417008
0.0467484
0.00629594
0.0107317
0.0437759
0.0121761
-0.139195
0.0321069
0.0427698
0.0152153
0.0412289
0.149438
0.00350179
0.0539823
0.0130255
0.0112657
0.0462826
0.0103572
0.0545935
0.00223366
0.0405877
0.0460008
0.000216179
6.52504e-05
-0.534769
0.199598
0.0465866
0.0423685
0.0475479
0.0422097
0.0652778
0.0990374
0.040666
0.00556518
0.468606
0.0404146
0.0459763
0.0660147
0.0297483
0.044315
0.043597
0.0433997
0.0456174
0.00877893
0.0541812
0.0459449
0.0533707
0.0456671
0.0141169
0.0461363
0.292498
0.04557
0.022275
0.0461652
0.0540889
0.0436215
-0.0480932
0.0467892
0.00207804
0.040615
0.0109968
0.00164283
0.0609466
0.0495415
0.0438962
0.322202
-0.582343
0.0456837
0.0403888
0.395741
-0.0518683
0.0535612
0.044604
0.0441402
0.0120223
0.0738635
-0.455828
-0.0697
0.0435694
0.0405897
0.00710804
0.0124435
0.059291
0.013412
0.0440217
0.0404605
0.0455981
0.0404906
-0.120505
0.0422768
0.0452321
0.0465342
0.0113413
0.0386285
0.0558297
0.02204
0.0457584
0.0464708
0.0465571
0.0465353
0.0472492
0.00427354
0.0416023
-0.455931
0.0453426
0.0453027
0.0253791
0.0409088
0.0994046
0.0473445
0.0476432
0.0464546
-0.108886
0.0435532
0.0464543
0.042598
0.0470129
0.040051
0.042251
0.0427073
0.040841
0.0512509
0.203274
0.0398657
0.048908
0.0615541
0.0217677
-0.0577729
0.0392722
0.0571742
0.370453
0.0465255
0.0190313
0.0451502
0.0322741
0.0453348
0.0389098
0.225275
0.0181972
0.2052
0.0553288
0.0458765
0.0105023
0.00534118
0.0458471
0.0100376
0.0115269
0.0448208
0.0470002
0.0469972
0.0470634
0.0470389
0.292775
0.0457346
0.10255
0.000865709
0.0543809
0.0132203
0.0183518
0.0258979
0.0331191
0.017435
0.0336079
0.0561069
0.0196531
0.0209869
0.0912676
0.0654624
0.0140065
0.0637845
0.0635428
0.0157746
0.103236
0.042643
0.047099
0.0307709
0.0470599
0.0424236
-0.196829
0.500696
0.042626
0.0466208
0.0454157
0.0461772
0.0173503
0.0463339
0.0463139
-0.0771982
0.0125054
-0.0488272
0.0445425
0.0101408
0.0385479
0.0464689
0.0153624
0.030472
0.108871
0.0308753
0.042862
0.0452074
0.0120078
0.00941181
0.039609
0.291761
0.01512
0.00573586
0.0490574
0.0460858
0.0466034
0.382946
0.0121041
0.0446631
0.06167
0.0626644
0.0458563
0.0458215
0.04611
-0.057427
0.0977737
0.058344
0.0181543
0.00135775
0.0475121
0.112979
0.0484841
-8.84296e-05
-0.0619252
0.298515
0.0531601
0.0906986
0.0283836
0.02176
0.0347621
0.0304634
0.0484368
0.0347407
0.015264
0.0463397
-0.0532743
0.0563481
-0.00661987
0.00851127
0.0532136
0.0953492
-0.146418
0.0169766
0.0384154
0.00555016
0.00814122
0.0182136
0.0413566
0.0460471
0.0517319
0.0453528
-0.00320107
0.0428869
0.0816337
0.0842715
0.0358541
-0.0561028
0.102808
0.0525525
0.04513
0.387384
0.0449456
0.044452
0.0046522
0.0466254
0.0450172
0.0444111
0.236551
0.198538
0.0482621
0.0442868
0.108555
0.0474373
0.0182957
0.0146961
0.0131483
0.0447877
0.0461616
0.0470635
0.0464671
0.0837412
0.0188594
0.0213645
0.0497662
0.0507013
0.00204874
0.0485299
0.0451989
0.039574
0.118932
0.0039986
0.0465596
0.0468961
0.0116757
0.0305787
0.0477654
0.0422962
0.11151
0.0185524
0.00727423
0.0201151
0.044735
0.0454707
-0.00652487
-0.00453481
0.0464599
0.0359322
0.0487395
0.00473872
0.279519
0.0460879
0.0431295
0.0448876
0.0141831
0.0525183
0.0513476
0.042278
0.0484195
0.0293538
0.0741627
0.037521
-0.0366311
0.0452997
-0.0417133
0.0441363
-0.111931
0.0176927
-0.0035867
0.0468012
0.0495333
0.0211638
0.0418104
0.0475602
0.054445
0.0527439
0.052994
0.0701124
0.0134343
0.0130397
0.0456475
0.0414138
0.0186066
-0.00352028
0.045651
0.0452547
0.0118008
0.0448825
0.223101
-0.153057
-0.113382
0.0456506
0.0399346
0.00115513
0.0518352
0.0407579
0.444258
0.0452935
0.111896
0.0871473
0.039778
0.0406413
0.0477155
0.0361295
0.000543183
0.02965
0.0499848
0.0456896
0.0466688
0.0523368
0.050171
0.0545276
0.0136399
0.0473027
0.0452705
0.0198858
-0.0853471
0.0487769
-3.93993e-05
0.0454497
0.0504612
0.0926542
0.00107036
0.0017008
0.0956731
0.0446233
0.00175137
0.0459007
0.0467421
0.00173935
0.0359776
0.0440839
0.0359475
0.0462394
0.0452301
0.0416098
0.0479585
0.00175323
0.102115
0.0567594
0.116886
0.0153702
0.0384808
0.110707
0.0613876
-0.0051102
0.0131034
0.0623923
0.0533555
0.0467538
0.0368389
0.0202944
0.0456357
0.046639
0.0448065
0.0467927
-0.0167674
0.036404
0.0334722
0.103189
0.0547318
0.233513
0.00455308
0.0016331
0.041267
-0.00224796
0.0462206
0.0489668
0.0456127
0.103955
0.112819
0.0449579
0.0297785
0.224263
0.0153663
0.00481522
0.037318
0.0639146
-0.130011
0.0445188
0.0480268
0.0462607
-0.0109511
0.0478996
0.030546
-0.0556304
0.0452861
0.0757468
0.0559144
0.040117
0.0490342
0.0452264
0.0471142
0.0519719
0.0471692
0.0470411
0.0512512
0.00583221
0.00994707
0.0401847
0.33163
0.00089147
0.412468
0.016436
0.0230795
0.0516397
0.0177951
0.0552519
0.00788522
0.317446
0.0970299
0.0544916
0.0425382
0.0515305
0.0501323
0.020767
0.0460438
-0.00833165
0.047179
0.0983374
0.0475346
-0.014943
0.0073592
0.0109804
0.0547959
0.0377256
0.0078593
0.0756836
0.00457335
0.0393242
0.00256277
0.0419042
0.0457047
0.0485288
-0.210587
0.0698587
0.0399739
0.0456009
0.0473952
0.0522399
0.0813545
0.00980595
0.0170293
0.0447925
0.0413981
0.0539501
0.0399039
0.0376425
0.0014925
0.0531298
0.0561009
0.00886401
0.0412481
0.03861
0.10267
0.0456488
0.0534002
-0.257054
0.0467815
0.00677122
0.0503029
0.0389846
0.0875871
0.00952019
0.0494885
0.0180747
0.046497
0.110264
0.0401157
0.0110953
0.0105563
0.111034
0.0463603
0.00103978
-0.00599275
0.055092
0.0409498
0.0411966
0.0354152
0.237243
0.0509673
0.0466024
0.053429
0.0463538
-0.127442
0.0406841
0.00934677
0.0308642
0.0170871
0.518828
0.040597
-0.0571549
0.0101881
-0.0925272
0.0178687
0.0499066
0.0405571
0.0309732
-0.0486421
-0.0369209
0.0444284
0.0439692
0.116789
0.0435945
0.210117
0.0191732
0.0692193
0.0415884
0.396003
-0.104738
0.0412784
0.0457128
0.0461617
0.0918724
0.0523192
0.056982
0.049736
0.0145608
0.0752061
-0.0270769
0.34923
0.0447672
0.0811411
0.0135131
0.119753
0.0422162
0.112153
0.00749715
0.0932484
0.0492856
0.0455961
0.00892092
0.00627442
0.0176166
0.116123
0.0118622
0.0238278
0.0497463
0.0456931
0.0371476
0.243785
0.0371705
0.0113187
0.0650148
0.0193911
0.0350312
0.0504794
-0.00514813
0.0314948
0.0417458
-0.016474
0.0565064
0.0263106
0.198046
0.0456894
0.03122
0.0484321
0.0543029
0.0422573
0.049236
0.0456412
0.000812833
0.0394483
0.0755788
0.0116395
0.0930522
0.0299533
0.030691
0.00968803
-0.195987
0.0467721
0.0537104
0.024146
-0.0705226
0.0066389
0.0462507
0.506641
0.0456026
0.0404724
-0.168301
0.0521555
0.0465836
0.0466856
0.0637402
0.0877102
0.0467925
0.0533187
0.107268
0.0489915
0.0512557
0.0501669
0.0445173
0.0887864
-0.0178121
0.0520889
0.114691
0.0102225
0.0102393
0.00469784
0.0146657
0.0501267
0.0404135
-0.0413581
0.00442546
0.0713791
0.0453848
0.0468282
0.116078
-0.00199785
0.0325144
0.0363659
0.0321576
0.0496675
0.0407134
0.0820435
-0.228417
0.364929
0.0807187
0.0481408
0.040671
0.0780109
0.34546
0.109776
0.0462632
-0.000229038
-0.0132564
-0.238424
0.0349392
-0.160272
0.0467909
0.0500944
0.0468467
0.00570217
0.0730052
-0.165835
0.0393182
-0.0857241
0.0433465
0.0486507
0.0103126
0.051562
0.000435411
-0.0429097
0.0529493
0.0346469
0.0236579
0.0351679
0.0527494
0.074763
0.0707878
0.0300306
0.0773462
0.0529519
0.0468833
0.0508215
0.0474502
0.103414
0.0208619
-0.00816557
0.00202232
0.083969
0.0236299
0.0221112
0.0409801
-0.0133525
0.0330695
0.0522079
0.0462766
-0.000908555
0.107098
0.0393282
0.0390933
0.0541246
0.0225688
0.100708
0.114164
0.0226359
0.233815
0.0213364
0.0850524
-0.0405049
0.0512765
0.0175423
0.0106122
0.0437304
0.032908
0.037328
0.0422933
0.0458951
0.0423261
-0.0146216
-0.00211092
0.0414385
-0.137306
0.0985458
0.0473302
0.0500158
0.0011834
0.0472309
0.0773584
0.0128057
0.00417637
0.0471744
0.0497217
0.0463057
0.047236
0.116579
-0.13972
0.047476
0.0558218
0.0456627
-0.146005
0.0206009
0.0140797
0.0453727
0.0473653
0.0500294
0.0240388
0.0836219
0.0271253
0.0451662
0.0501991
0.0471108
0.0201159
0.0828783
0.0373938
0.0466316
0.0296769
0.0242478
0.073324
0.0419013
-0.0174944
0.143896
0.0438042
0.0316448
0.0499549
0.0416406
-0.186159
0.0527694
0.0473909
0.0110605
0.103189
0.0806795
-0.138348
0.0741702
0.033871
0.0264927
0.0540463
0.0379813
0.0335438
0.0532943
0.144672
0.0480211
-0.327056
0.0816122
0.179453
0.0380133
-0.00579125
0.0937482
-0.00201107
0.259299
0.00700757
0.0260505
0.0330295
0.0372294
0.0456202
0.0419251
0.0863097
0.0010065
0.053485
0.0437936
0.00651158
0.0164114
0.00541262
0.0783858
-0.000117151
0.00510304
0.0455323
0.0685909
-0.050577
0.0855878
0.0455907
0.0338245
0.050852
0.0455983
0.0672422
0.0467741
0.0420061
0.243171
0.0897601
-0.0178277
0.0468205
0.0463851
0.0463745
0.0535791
0.0507515
-0.00234238
0.0508922
0.0462677
-0.0169428
0.02084
0.00512885
0.0669036
0.0488572
0.0394354
0.0902582
0.033376
0.046849
-0.042474
0.0104176
0.110198
0.0472182
-0.235512
0.0951985
0.0488803
0.00265796
0.0368486
-0.0235923
0.0344176
0.000666205
0.0922843
0.0479959
0.0486381
0.0207943
0.0383778
0.0522478
-0.00784189
0.0523203
0.0524044
0.0958453
0.0433614
0.0502979
0.034279
0.0095725
0.048841
0.0523604
0.0505258
0.0454975
0.0941924
-0.0420253
0.0252186
0.0536181
0.0517675
0.0392187
0.0459428
-0.193637
0.0775961
0.0465476
0.0690798
0.0392497
0.0972697
0.151063
0.000629379
0.052551
0.00459501
-0.0025232
0.0453151
0.0389823
-0.00130338
0.0404576
0.0466104
0.070447
0.0262954
0.0513201
0.0466427
0.0399601
0.0826235
0.0472755
0.0306064
0.046792
0.0370229
0.0651403
0.130747
0.0461439
-0.198863
0.0784931
0.0148364
-0.120742
0.0905377
0.0306252
-0.0333179
0.0540847
0.140699
0.205604
0.051593
0.0422495
0.0421409
0.049086
0.0508814
0.00661595
-0.0791522
-0.146944
0.008341
0.146345
-0.00686821
0.0099532
-0.0577166
0.0461389
0.0493632
0.0465409
0.0239695
0.0461949
0.00778092
0.0350911
-0.0120849
0.0457229
0.0494186
0.0438311
-0.15337
0.117433
0.0763876
0.0590718
0.120228
0.0423175
0.0473778
-0.0169918
0.034871
-0.0128528
0.00712231
0.0214051
0.00384216
0.0148536
0.0544196
0.0455703
0.0460351
-0.122142
0.0403961
0.0380798
0.0520957
0.00365026
0.0173282
0.0461922
0.0189677
-0.014255
-0.000161785
0.092292
0.0513151
0.0464745
0.00428509
0.053816
0.0461781
-0.00168812
0.00674632
0.0503568
0.136586
0.0011905
0.046321
0.0465597
0.0454807
0.10523
-0.140297
0.0394471
0.00956723
0.0496293
0.050491
0.0106306
0.0465135
0.178334
0.0146305
-0.0526295
0.15209
0.0294805
0.0459206
0.0459356
0.0319929
0.0539572
0.0457166
-0.180183
0.00483115
0.0426601
0.218218
0.0993596
0.0397135
0.0456501
0.0466474
0.0514875
-0.0743927
0.15893
0.0320778
0.0755036
0.0643918
0.0054266
-0.0782874
0.0204053
0.051972
0.0509029
0.0157513
0.0387077
0.0448167
0.0489801
0.00314532
0.0507483
0.0315769
0.0527523
0.079758
-0.011859
0.0442003
0.0490868
-0.00416294
0.00298204
0.0563162
0.0486827
0.0744447
-0.000715897
0.0376123
0.0164536
0.071866
0.0159672
-0.0334768
0.050958
0.156019
0.0456479
0.104079
-0.00059069
0.0465093
0.046087
0.370406
0.046847
0.0538677
0.0250986
0.051977
0.0521375
0.0552279
0.0467313
0.0463613
0.000203444
-0.0266427
0.0441496
0.328742
0.0357202
0.0487381
0.23454
0.0971446
0.0536553
0.0431421
0.0484666
0.0861567
-0.262645
0.0518206
0.0440457
0.0456265
0.0491402
0.0617192
0.0155252
0.0513203
0.0623133
0.0499735
-0.152789
-0.00719801
0.00782033
0.108138
0.0354723
0.0488301
0.00388301
-0.117938
0.050922
0.0458724
0.0487496
0.0453711
0.0519066
0.0452795
-0.00371177
0.0428028
0.0404288
0.302793
-0.00104026
-0.00857189
0.0033753
0.0517712
0.000703454
0.0852314
-0.089369
0.0449094
0.00999068
0.0464997
0.238898
0.0457227
0.0466274
0.0302294
0.0456695
0.024759
0.0567084
0.0520662
0.0447523
-0.0948741
0.0858572
0.010491
0.0490619
0.0344672
-0.056229
-0.0081057
0.0770372
0.0726512
0.0472212
0.0529399
0.0422841
0.0489687
0.0441278
0.0490005
0.0878119
0.0733267
0.00632176
-0.105794
0.0235116
-0.00935462
0.0313401
-0.111174
0.0452073
-0.0306825
0.0488385
-0.0130338
-0.00657753
0.0239906
0.0465772
0.0281794
0.00989109
0.0308064
-0.0122132
0.23186
-0.103337
0.0488151
-0.00281028
0.0445538
-0.00563772
0.0892254
0.00299156
0.0415942
0.0551111
0.00974024
0.0497442
0.0350278
0.0470135
0.0435396
0.045816
0.0529515
0.00591584
0.00111405
0.0462012
0.0824931
-0.0834455
0.491744
0.0454307
0.0713283
0.0276469
0.192697
0.0301008
-0.180244
-0.034857
0.0445504
0.0235135
0.06561
0.174422
0.047531
0.0654506
0.0771491
0.0438245
-0.0880983
-0.00498953
0.0487057
0.0236899
-0.0350964
0.0743127
-0.0913199
0.0362487
0.0784971
0.0517578
0.0454021
0.0533644
0.0424153
-0.075639
-0.00050778
-0.0641095
0.0472624
-0.0868862
0.0286574
0.00283204
0.108591
0.0237253
0.0265636
-0.0560718
0.0360755
0.0354106
0.00481053
0.0685632
0.0245
0.00802771
0.0676193
-0.0906093
0.0836004
0.0330592
0.0871126
0.047123
0.112298
-0.000275088
0.0995635
0.0509652
-0.0368153
0.0461969
0.0322689
0.00819775
-0.00105495
0.0549305
0.00553935
0.0435757
0.506491
0.0527655
0.00504873
0.0892589
-0.000181491
0.00668128
0.0470552
0.0300204
0.0458884
0.463979
0.0462691
0.0460459
0.0454795
-0.0150558
0.0404645
0.0425488
-0.0121561
0.0267712
0.0619175
0.0408422
0.0458639
0.10548
0.0441478
0.102204
0.00676349
0.0837411
0.0377005
0.0394431
0.0246046
-0.0139147
0.00857677
0.0413581
0.530525
0.046243
0.0459471
0.0531775
-0.137871
0.0509266
0.0296407
0.0778757
0.0507373
0.0392411
0.00235386
-0.0236698
0.0320223
-0.0471678
0.0516851
0.0427592
0.0135503
0.0185295
-0.000701801
0.0487546
0.0240976
0.0696658
0.192601
0.0354865
0.0461299
0.0435249
0.176825
0.0466312
0.046639
-0.0361591
0.0306828
-0.0403346
0.0392285
0.0457286
0.187756
-0.0149269
0.0404527
0.052069
0.0440661
-0.113245
0.046638
0.0323589
-0.0282436
0.0466388
0.0458512
0.00850044
0.0454174
0.046647
0.0129329
0.0496398
0.0459645
0.0205743
0.0455493
-0.0133996
0.0457154
0.0569118
0.117768
0.00757179
0.0466546
0.00437267
-0.173634
0.0390982
0.0718903
0.043645
0.0327857
0.0444032
-0.018351
-0.0063647
0.0431879
0.0458442
0.130496
0.0284138
0.0152693
0.0111606
0.128137
0.0454403
0.00521754
0.0458254
-0.0206155
-0.00641619
-0.00500635
0.00725201
0.153974
-0.0895151
0.00492357
0.00989391
0.046573
0.0492585
0.00018161
0.13437
0.0964437
0.0320449
-0.0732826
0.045249
-0.063908
0.194205
0.0457927
-0.00847003
-0.0210343
0.0784464
0.00787387
0.00607768
0.0703781
0.0460267
-0.0131848
-0.0650813
0.259155
0.051869
0.0021564
-0.0316796
0.140896
0.0482507
0.0458321
0.00590218
-0.0540276
0.0393465
0.0674094
0.046115
0.0454386
0.0553536
0.0515224
0.024231
0.0524105
0.0457873
-0.0167356
0.0342212
-0.0270558
0.0152504
0.0461622
0.0458778
0.141633
0.0513902
0.0778651
0.0595261
-0.0475913
0.0791949
0.045214
-0.0232894
0.0559381
0.045919
0.0267701
0.0371329
0.0388779
0.0928299
0.0243584
-0.147172
0.0389049
0.0458224
-0.0280204
0.0454281
-0.00656495
0.0296032
-0.0261593
-0.0489504
0.0938765
-0.0319731
0.0462086
-0.00954298
0.0504114
0.0697415
-0.0241736
0.0188737
-0.0242617
-0.0644369
0.170772
-0.0123404
0.0626739
0.0452137
0.0457857
0.0454043
-0.0322394
0.137368
0.0452647
-0.0151603
-0.0202524
0.0139067
0.00170109
0.0265572
0.107968
-0.0297216
0.0519328
0.0114032
0.0240368
0.0464863
0.0465114
0.0480921
0.0517265
0.0110357
0.046067
0.049435
0.0529572
0.0716908
0.000483038
0.0459565
-0.0195909
0.0457159
0.00298244
0.0124921
0.0485196
0.040106
0.000591896
-0.0209658
0.0349217
0.0760689
0.0514184
0.025485
0.0307924
0.0458919
0.0504514
0.0510705
0.048593
0.0459153
0.0674034
0.0458963
0.123882
0.0120403
-0.0915439
0.0459805
0.0570854
0.0461106
0.0464853
0.119742
0.0564439
0.0454547
0.31348
0.131941
0.035961
0.0625551
0.0372228
0.118566
0.0184239
0.00783345
0.0543663
0.0528813
0.0458377
0.0478022
-0.0123976
0.0455112
0.0481552
0.12139
0.0487403
0.0504806
0.0269454
0.0460395
-0.0363478
0.0460176
0.0480872
0.00732025
0.00843621
-0.0712838
0.10864
0.0682841
0.0483809
0.00648287
0.0483054
0.0241099
0.00534511
0.0527222
-0.028297
0.0467165
0.0250197
0.0678331
0.0510318
0.0992587
0.0459377
0.0526571
0.0458081
0.0279734
0.0453973
0.0520395
0.0231961
0.0429779
0.0683195
0.0259518
0.045878
0.0256696
0.0114099
0.0526449
0.00766931
-0.0146009
0.0458407
0.0295166
0.108573
0.00205957
0.0537521
0.0424583
0.0425478
0.0240674
0.0544514
0.1492
0.0519864
0.0463051
0.0463323
-0.0218032
-0.00888078
-0.0228107
0.279715
0.0990173
0.0493761
0.0249395
0.00989499
0.046693
-0.0595673
0.05089
0.102417
-0.000502714
0.0481557
0.142375
-0.00870786
-0.0172385
0.0220137
0.0279917
0.0465773
0.0453183
0.0595345
0.0458665
0.0458483
0.135339
0.0488785
0.0613993
0.0452639
0.036579
0.0435003
0.365059
0.0387366
0.0408654
-0.00993016
0.101543
0.0920995
0.0327902
0.107665
0.0464331
0.0447242
0.00404859
0.0712456
0.122106
0.0477011
-0.000672883
0.0385397
0.0491783
0.049393
0.0460759
0.0629366
0.0388114
0.0464281
0.0288166
0.255687
0.0465602
0.0109049
0.0305194
0.0458879
0.0604636
0.0490197
0.026224
0.0461777
0.0460111
0.0139165
0.0279314
0.0891422
0.139637
-0.225836
0.0525538
0.062144
-0.0391811
0.031643
0.0489424
0.0387512
-0.000916324
0.0459361
0.0501157
0.0458328
0.0286914
0.0633328
0.0177614
0.0459041
0.0584155
0.0327775
0.0513653
0.117356
0.0425285
0.0455915
0.0459057
0.0281653
0.0217776
0.305644
0.0577339
0.080459
0.00517415
0.00386241
0.0457565
0.0968248
0.0459179
0.0458986
0.0464982
-0.00334026
0.0517671
0.0335788
0.00626351
0.0187669
0.00542883
0.0287241
0.0626833
0.111856
0.0439929
0.0107471
0.089472
0.0313219
0.12602
0.0504681
-0.161962
0.14101
0.132842
0.0452617
-0.11422
0.00490938
0.00701059
0.134952
-0.000390675
0.0564065
0.0532099
0.0366424
0.0348942
0.0319755
0.209853
0.0724353
0.0508471
0.0132815
0.0512735
0.0346337
0.0229437
0.0912315
0.0343012
0.066066
0.0817317
0.00530451
0.0947937
0.0303761
0.0468224
0.0573889
0.0460835
0.043338
0.0444134
0.0512474
0.017828
-0.0497774
0.0457816
0.16396
0.0451005
0.0386413
0.00898466
0.0289066
0.0320461
0.0441527
0.00666661
0.0111254
0.24858
0.0459345
0.00844063
0.0348629
0.0116424
0.0465129
0.0461303
0.149702
0.0227543
0.0312727
-0.123942
0.0253609
0.0377128
0.134058
0.0137243
0.118725
0.0525436
0.0175713
0.0356028
0.0430538
-0.0283385
0.00640836
0.0186348
0.0317532
0.0453733
0.00554557
0.00522852
-0.000966983
0.0376461
0.0355144
0.415767
-0.0393356
0.0450356
-0.0137657
0.0196596
-0.108967
0.0458063
0.0305568
0.031146
0.045776
0.00316074
0.0268694
0.0505064
-2.85861e-05
-0.0234395
-0.00156878
0.0531037
0.0224902
0.046555
0.0418752
-0.0261269
0.0806466
0.0278006
0.00630271
0.145309
0.023253
0.0190572
0.0203192
0.0066443
-0.0280473
0.0442206
0.0207428
0.0154269
0.090547
0.276057
0.0123468
0.0334427
0.0191757
0.0458002
0.090732
0.030042
0.0083446
0.045677
0.0341597
0.00566767
0.0128726
0.14673
0.00979236
0.0287113
0.028218
0.051492
0.00271748
0.0255338
0.0722622
0.0570898
0.0531924
0.00964173
0.0347442
0.040018
0.0367397
0.0460974
0.00552913
0.0606766
0.0284723
-0.00397911
-0.0460718
0.0406841
0.0266851
0.0160514
0.0229782
0.0459313
0.0973367
0.0969922
0.070811
0.0464908
0.228202
0.00624855
0.0513291
0.0875053
0.0453418
0.0547662
0.0315474
0.0252922
0.0526498
-0.10521
0.0474563
0.0569943
0.0408626
-0.0123316
-0.0309859
-0.000488147
0.0607693
0.00856046
0.0465304
0.0281114
0.0727852
0.047486
0.147828
0.0166742
0.0265709
0.00764089
0.0642428
0.0211005
0.0363727
0.0455461
0.0456485
0.0453933
0.0609679
0.121717
0.0155277
0.144527
0.0811373
0.0880097
0.048147
0.0675324
0.00643113
0.0459817
-0.024456
-0.0194864
0.0493962
0.0458771
0.0380972
0.0439282
0.0456464
0.0626511
0.0330722
0.130227
0.0158509
0.0339762
0.0868472
-0.0112787
0.00503298
0.0847409
0.0126508
0.0231609
0.0688537
0.0454234
0.0602903
0.027077
0.120378
0.127032
0.217101
0.0456949
0.125381
0.0315552
0.0306709
0.101765
0.105566
0.0975117
-0.0250638
0.0202119
0.0657164
0.0204092
0.0377473
0.0445152
0.0890957
0.0452882
0.0162541
-0.0298798
0.0569959
-0.0262801
0.0449092
0.081992
0.052182
0.0298921
0.100135
0.161379
0.0203856
0.0413359
0.0165151
0.0324062
0.0701008
0.000141717
0.0803825
-0.00251412
0.0457091
0.0205365
-0.143928
0.0972698
0.0345416
-0.0421307
0.00935412
0.0400619
0.0446924
0.10228
0.0913959
0.032693
0.0555248
0.0477361
0.0054583
0.0417605
0.00360546
0.0792888
0.0343597
0.13953
0.0456995
0.0426662
0.0022243
0.0360338
0.0365363
0.0639186
0.0541433
0.028907
0.166334
0.105605
0.0455019
0.00486395
0.0416631
0.0454747
0.13208
0.0453954
0.0212259
0.0240106
0.0452433
0.0454095
0.0497941
0.00712072
0.0590688
0.0955007
0.0271251
0.127876
0.0312319
0.0322973
0.0359065
0.0766046
0.0459595
0.0379216
0.035758
0.0258115
-0.0218
0.0087045
0.0641765
0.0432723
0.0533715
0.0306342
0.0407986
0.0588676
0.0207065
0.104473
0.0310073
0.0455022
0.00789038
0.0850715
0.00695169
0.0457259
0.133312
-0.0240247
0.0430423
0.0959945
0.00536834
0.0504613
0.0948253
0.00278332
0.0872727
0.112051
0.00359797
0.0465628
0.0770817
0.0739592
0.0131551
0.0427467
0.0305249
0.0456614
0.0457938
0.0454551
0.0131823
0.0168966
0.019554
0.0806532
-0.0642787
0.166993
-0.0622714
0.0267579
0.040957
-0.0407761
0.0483304
-0.101929
0.0321789
0.0222053
0.0180032
0.0277734
0.0629305
0.0389173
0.0314783
0.0515115
0.0456944
0.0757241
-0.0378107
0.0133163
0.0060623
0.016955
0.0497798
0.0268614
0.0159748
0.0519515
0.0234166
0.036886
0.116972
0.0839171
0.0791368
0.0911656
-0.00173425
-0.000171325
0.00553504
0.0223212
-0.0059121
0.0146167
0.056466
0.0417995
0.128861
0.0720312
0.0063861
0.0461522
0.0936515
0.124757
0.071981
0.0776605
0.0544891
0.0164907
0.112206
0.0281727
0.0228892
0.032804
0.032092
0.0448719
0.027459
0.0286152
0.0513193
0.0197763
0.02908
0.0415561
0.102752
0.0416735
0.0394062
0.0735688
0.053563
0.0451507
0.048329
0.00220791
0.0157446
0.0466738
0.070011
-0.0519602
0.00615516
0.0535183
0.0190064
-0.0193738
-0.0408008
-0.00668685
0.0324973
0.033451
0.0524558
0.0323206
0.0247757
-0.000323743
-0.00132518
0.00230066
0.000746532
0.0336942
0.0446246
0.0443402
0.127118
0.0598943
0.0334093
0.0367349
-0.000372026
0.0424784
0.0264012
0.147068
0.0853604
0.010653
0.0514708
0.0161096
0.0453031
0.00796343
0.000735394
0.0269657
0.0454329
0.0568212
0.165226
0.0394067
0.0870752
-0.0168613
0.0457973
0.0336035
0.0921573
0.0991393
0.0680607
0.0468287
0.0426234
0.0437465
0.0464244
0.0455112
0.0396487
0.00681985
0.0453929
0.0542702
0.0510183
-0.336837
0.117823
0.0437693
0.0456859
0.0101137
0.0163891
0.0225665
0.0748214
0.0172041
0.0448357
0.0398564
0.0043883
0.0463394
0.0136013
0.0904486
0.0693053
0.0439919
0.0120238
0.0460618
0.0379037
0.0360694
0.0393231
-0.00327925
0.0576845
0.0338958
0.0323192
0.108839
0.079403
0.0452831
0.0458388
0.0349424
0.0309365
0.013661
0.0191699
0.0384279
0.00690362
0.078067
0.0464653
0.0362556
0.00569225
0.0382753
0.0830513
0.0613547
0.0490032
0.148546
0.0214343
0.123471
0.137522
0.0269539
-0.00248522
0.000143542
0.123403
0.0380284
0.00570204
0.0723879
0.0350055
0.0214598
0.0877709
0.0703813
0.0484976
0.00258912
0.030485
0.0274632
0.0390701
0.00581889
0.0477411
0.0781615
0.0475394
0.0553745
0.0841962
0.0522633
0.0399808
0.104362
0.0071397
0.0894764
0.0280281
0.0701776
0.00819679
0.0595065
0.0115264
0.0471901
0.0298522
0.00926151
0.0655444
0.0263794
0.0471435
0.040519
0.0150834
0.0443859
0.0337884
0.0543539
0.0352418
0.0219139
-0.00128798
0.0935552
0.102382
0.0986278
0.0396017
0.0386527
0.0340808
0.0185315
0.0277969
0.0461651
0.0519045
0.0681196
0.0238105
0.056658
0.00438141
0.0303951
0.0550151
0.032081
0.0313888
0.0422851
0.0292718
0.0361773
0.13206
0.256054
0.0219778
0.0261074
0.027439
0.0317463
0.0361725
0.0350455
0.0327063
0.0221848
0.0131219
0.0443467
0.0456679
0.0446231
0.00601491
0.045781
0.0288075
0.040311
0.0299271
0.057485
0.0327541
0.121218
-0.007696
0.045336
0.0339117
0.0893099
0.0400068
0.0586064
0.0874244
0.0508725
0.0456303
0.0287687
0.00482005
0.0849306
0.00322616
0.113205
0.0818254
0.00354749
0.0608889
0.0664121
0.0103083
0.0411742
0.0455995
0.0471384
0.0351332
0.0451637
0.0313491
-0.0372126
0.0442819
0.0779576
0.041472
0.0600191
0.0607386
0.159783
0.0521859
0.0403628
0.00503658
0.0133899
0.0850475
0.0302048
0.0812527
0.0470507
0.0364479
0.0628213
0.0440757
0.0317098
0.0464695
0.0470877
0.0307447
0.0451358
0.033559
0.0596989
0.0789126
0.0143136
0.0448699
0.00670027
0.000956901
0.06548
0.0585148
0.0483343
0.0660762
0.129687
0.0456526
0.0390711
0.0444879
0.0585274
0.037206
0.0342328
0.0375561
0.0716327
0.0810919
0.0313147
0.0770308
0.0883933
0.0579891
0.105886
0.0555919
0.0761869
0.0268149
0.0407345
0.02003
0.0465652
0.062642
0.0474427
0.0811232
0.00191314
0.0528346
-0.0128499
0.0417829
0.0261296
0.115722
0.00762356
0.0446404
0.04531
0.00421206
0.10513
0.0263509
0.028664
0.0152025
0.0430949
0.0794637
0.0363444
0.043975
0.03493
0.00831952
0.0402515
0.0387092
0.389934
0.0375447
0.0474879
0.056877
0.0622955
0.0410468
0.0308881
0.04568
0.100074
0.0412731
0.0456599
0.0129618
0.0355071
0.0282565
0.0395746
0.0609731
0.0399332
0.0426016
0.0419507
0.0328761
0.0779017
0.0457011
0.037436
0.0557428
0.0436731
0.0378775
0.0523064
0.0527403
0.0573635
0.0577741
0.0457867
0.0413382
0.0483819
0.0282912
-0.00161063
-0.000709712
0.144281
0.0726334
-0.0102315
0.0302602
0.0452658
0.0487176
0.0561059
0.0718465
0.0461498
0.0270311
0.0737803
0.054901
0.0253589
-0.0101843
0.0208567
0.0451246
0.0361041
0.0455074
0.0917554
0.231304
0.0376984
0.0550138
0.0415741
0.00616444
0.0453131
0.0703786
0.0267611
0.0430878
0.0463167
0.0323677
0.0947439
0.0373683
0.0543097
0.0250531
0.0404615
0.0415396
0.0857218
0.0587475
0.0384835
0.0480828
0.0372744
0.0518837
0.036685
0.0460602
0.0379413
0.0453123
0.0520292
0.0107734
0.0661732
0.0157945
0.0718557
0.0717727
0.0502765
0.037099
0.0342098
0.0751718
0.0900345
0.00988752
0.0397239
0.0552358
0.0559155
0.0384602
0.0442406
0.0418134
0.0357937
0.0272219
0.0273095
0.0417884
0.014262
0.0376619
0.0772373
0.0391191
0.0411241
0.0379578
0.0231434
0.0815854
0.0514785
-0.00059019
0.0375716
0.0390717
0.00981132
0.0488753
0.000728334
0.0482882
0.0395674
0.0445563
0.0442022
0.0467362
0.040534
0.00432432
0.0456743
0.0203007
0.0698377
0.0483952
0.0555792
0.0323712
0.0938914
0.0583582
0.0461659
0.0338668
-0.0671411
0.0458527
0.00533277
-0.0820565
0.0636187
0.0832081
0.0498754
0.0395888
0.0288806
0.0692584
0.0564615
0.0461327
0.0902615
0.0105514
0.0797501
0.0457176
0.0449987
0.0414228
0.0421481
0.0426489
0.0637337
0.0748435
0.0440819
-0.00152864
0.0427638
0.0503949
0.0399536
0.0314058
0.000381524
0.0451146
0.0397431
0.023153
0.0391013
0.0442767
0.0483775
0.125957
0.0715848
0.0462455
0.0605317
0.0508936
0.0397207
0.0734903
0.0573375
0.0418918
0.0607509
0.0355383
0.0605284
0.0830803
0.0013072
0.0229405
0.0463498
0.0678941
0.044488
0.0485324
0.0473292
0.0403427
0.0014021
0.000469118
0.0564055
0.0321612
0.0344736
0.0269482
0.0449588
0.0443183
0.0462612
0.069219
0.0337557
0.0457573
0.0396119
0.0516889
0.0223012
0.00868642
0.0458133
0.0452565
0.0351958
0.0457858
0.0443603
0.0407067
0.0427926
0.0380317
0.0636895
0.0595732
0.0331391
0.043657
0.0501397
0.0563846
0.0397045
0.0456923
0.0410166
0.0300581
0.000884645
0.00537978
0.0345112
0.121249
0.0401201
-0.0604146
0.0862688
0.0395707
0.0385934
0.0508427
0.0458664
0.0458217
0.0521714
0.0544135
0.0394009
0.0476588
0.0448553
0.0945125
0.00501128
0.0325013
0.0459641
0.0521631
0.060294
0.0678645
0.0316676
0.0483518
0.0456092
0.0440851
0.0404807
0.0279574
0.0258699
0.00479836
0.0594055
0.0441371
0.0382133
0.0537049
0.0507017
0.0499091
0.0428879
0.0555484
0.0457813
0.0148917
-0.00253994
0.0447957
0.0640916
0.039251
0.0422517
0.0437335
0.0472721
-0.0468659
0.0610874
-0.000440727
0.0412593
0.00799587
0.0494371
0.0679714
0.125692
0.0526246
0.0460105
0.0296819
0.0221725
0.108902
0.0390189
0.0643652
0.042571
0.0452948
0.0629584
0.0432311
0.12017
0.000134654
0.0769142
0.049385
0.0449761
0.0457507
0.044653
-0.0272455
0.037062
0.0451519
0.0532401
0.0439347
0.0453089
0.0449681
0.0102227
0.00328961
0.0515074
0.0448358
0.0797008
0.0530491
0.0988848
0.381418
0.0204041