/*--------------------------------*- C++ -*----------------------------------*\
  =========                 |
  \\      /  F ield         | OpenFOAM: The Open Source CFD Toolbox
   \\    /   O peration     | Website:  https://openfoam.org
    \\  /    A nd           | Version:  7
     \\/     M anipulation  |
\*---------------------------------------------------------------------------*/
FoamFile
{
    version     2.0;
    format      ascii;
    class       volScalarField;
    location    "6.5";
    object      p;
}
// * * * * * * * * * * * * * * * * * * * * * * * * * * * * * * * * * * * * * //

dimensions      [1 -1 -2 0 0 0 0];

internalField   nonuniform List<scalar> 
2413
(
1.13591
1.13402
1.13209
1.13017
1.12823
1.12623
1.12417
1.12207
1.1199
1.11736
1.11519
1.1133
1.1113
1.10933
1.10729
1.10495
1.10249
1.10019
1.09858
1.09785
1.09417
1.46859
1.4647
1.46086
1.45702
1.4533
1.44962
1.44564
1.44132
1.43692
1.43242
1.42746
1.42222
1.41701
1.41166
1.40706
1.40284
1.39851
1.39413
1.38965
1.38543
1.37993
1.37294
1.36705
1.36229
1.35742
1.35305
1.34932
1.34445
1.33985
1.33583
1.33184
1.32796
1.32411
1.32021
1.31634
1.31261
1.30882
1.30485
1.30171
1.29908
1.29626
1.29355
1.29105
1.28817
1.2854
1.28286
1.28018
1.27745
1.27459
1.27148
1.26848
1.26613
1.26393
1.2618
1.25984
1.25813
1.25661
1.25501
1.25317
1.2513
1.24944
1.24726
1.24476
1.24234
1.23997
1.23777
1.23568
1.23343
1.23113
1.22887
1.22651
1.22395
1.22124
1.21835
1.21516
1.21178
1.20842
1.20534
1.20263
1.20009
1.19755
1.1954
1.19357
1.19132
1.18873
1.18676
1.18501
1.18229
1.17914
1.17627
1.1736
1.17095
1.1684
1.16595
1.16357
1.16134
1.15929
1.15727
1.15494
1.15207
1.1503
1.14959
1.14845
1.14647
1.14362
1.14145
1.14136
1.14176
1.13969
1.13683
1.13439
1.13239
1.13044
1.12844
1.12645
1.12447
1.1224
1.12022
1.11806
1.11569
1.11318
1.11132
1.10942
1.10746
1.10559
1.10361
1.10143
1.09903
1.09675
1.09572
1.09449
1.09063
1.46392
1.46025
1.45687
1.45343
1.44976
1.44568
1.44118
1.4365
1.43181
1.4271
1.42235
1.41745
1.41235
1.40702
1.40205
1.39769
1.39342
1.38899
1.3847
1.37986
1.37351
1.3676
1.36282
1.35791
1.35321
1.34922
1.3445
1.33984
1.33582
1.33195
1.3282
1.32448
1.3208
1.31717
1.31352
1.30985
1.30591
1.30207
1.29922
1.29667
1.29425
1.29186
1.28933
1.28662
1.28389
1.28113
1.27825
1.27525
1.27226
1.26982
1.2677
1.26561
1.26359
1.26171
1.26002
1.25852
1.25711
1.25552
1.25372
1.2519
1.24996
1.24774
1.24531
1.24283
1.24043
1.23826
1.23606
1.23374
1.23144
1.22914
1.2267
1.22407
1.22125
1.21819
1.21482
1.21118
1.20766
1.20457
1.20189
1.19935
1.19712
1.19533
1.19326
1.19049
1.1881
1.18664
1.18455
1.18147
1.1781
1.17493
1.17203
1.1693
1.16675
1.1643
1.1619
1.15957
1.15739
1.15529
1.15283
1.14989
1.14811
1.14728
1.14602
1.1437
1.14054
1.13883
1.13931
1.13866
1.13605
1.13326
1.13087
1.12877
1.12672
1.12465
1.12256
1.12045
1.11822
1.11596
1.11369
1.11106
1.10875
1.107
1.10504
1.10305
1.10117
1.09928
1.09707
1.09476
1.09306
1.09215
1.09012
1.08636
1.46076
1.45642
1.45202
1.44803
1.44433
1.44052
1.43644
1.43202
1.42709
1.42213
1.41738
1.41259
1.40733
1.40171
1.39704
1.39261
1.38815
1.38383
1.37968
1.37411
1.36849
1.36392
1.35914
1.35437
1.35009
1.34533
1.34047
1.33637
1.33259
1.32892
1.32533
1.32178
1.31845
1.31506
1.31157
1.30774
1.30372
1.30062
1.29798
1.29557
1.29345
1.29115
1.28861
1.28603
1.28348
1.28089
1.27797
1.27469
1.27226
1.27022
1.26825
1.26639
1.26477
1.26335
1.26197
1.26055
1.25904
1.25738
1.25562
1.25387
1.25197
1.24977
1.24722
1.24455
1.24205
1.23959
1.23709
1.23464
1.23228
1.22995
1.22751
1.2249
1.22209
1.21899
1.21543
1.2115
1.20785
1.20484
1.20197
1.19947
1.19788
1.19623
1.1939
1.19114
1.18928
1.18776
1.18511
1.18175
1.17838
1.1752
1.17208
1.16893
1.16589
1.16314
1.16059
1.15815
1.15583
1.15355
1.15089
1.14774
1.1461
1.14524
1.14362
1.14075
1.13758
1.13648
1.13655
1.13499
1.13228
1.1296
1.12719
1.12492
1.1227
1.12048
1.11824
1.11597
1.11361
1.11133
1.10896
1.10618
1.10393
1.10217
1.10014
1.09803
1.09605
1.09423
1.09205
1.08976
1.08847
1.08724
1.08487
1.0813
1.45838
1.45382
1.44918
1.44503
1.44123
1.43681
1.43184
1.42695
1.42236
1.41764
1.41265
1.40745
1.40181
1.39661
1.39215
1.38776
1.38342
1.37955
1.37485
1.36959
1.36502
1.36058
1.35605
1.35139
1.34654
1.34173
1.33752
1.33375
1.33016
1.32673
1.32346
1.32028
1.31701
1.31386
1.31052
1.30671
1.30339
1.30077
1.29825
1.29598
1.29386
1.29157
1.28925
1.28697
1.28463
1.282
1.27906
1.27651
1.27442
1.27246
1.27061
1.26899
1.26774
1.26663
1.26513
1.2635
1.26188
1.26021
1.25852
1.25687
1.25499
1.25264
1.24985
1.24718
1.24472
1.24216
1.23952
1.23695
1.23445
1.23198
1.22944
1.22672
1.22368
1.22023
1.21638
1.21243
1.20906
1.20614
1.20317
1.20102
1.19943
1.19742
1.19477
1.19226
1.19061
1.1886
1.18545
1.18196
1.17862
1.1754
1.17217
1.16891
1.16575
1.16279
1.15995
1.15719
1.15464
1.1521
1.14888
1.14562
1.14419
1.14303
1.14056
1.13697
1.13459
1.13384
1.13293
1.13079
1.12812
1.12549
1.12297
1.12052
1.1181
1.1157
1.11335
1.11094
1.10849
1.10617
1.10369
1.10077
1.09847
1.09669
1.09459
1.09228
1.09016
1.0883
1.08607
1.08416
1.08336
1.08117
1.07883
1.07545
1.44988
1.44552
1.44162
1.43876
1.43594
1.43229
1.428
1.42319
1.41813
1.41292
1.40771
1.40201
1.39641
1.39203
1.38785
1.38367
1.37981
1.37581
1.37069
1.36609
1.3621
1.35757
1.35292
1.34818
1.34368
1.33959
1.33571
1.33218
1.32887
1.3257
1.32269
1.31977
1.31689
1.31396
1.31102
1.30798
1.30527
1.30274
1.30034
1.29825
1.29631
1.29419
1.29213
1.29013
1.28783
1.28506
1.28209
1.27976
1.27781
1.27594
1.2743
1.27306
1.27217
1.27095
1.26938
1.26779
1.26618
1.26451
1.26282
1.2611
1.25901
1.25627
1.25304
1.25005
1.24726
1.24444
1.24164
1.2389
1.23622
1.23356
1.23084
1.22797
1.22467
1.22076
1.21653
1.21269
1.20952
1.20636
1.2037
1.20198
1.20012
1.19768
1.19478
1.19237
1.19064
1.18829
1.18501
1.18155
1.17821
1.17492
1.17162
1.1683
1.16505
1.16191
1.15884
1.15582
1.15316
1.1504
1.14646
1.14341
1.14216
1.13991
1.13614
1.13263
1.13082
1.12972
1.12809
1.12568
1.12303
1.12043
1.11787
1.11531
1.11273
1.1102
1.10781
1.10537
1.10292
1.10048
1.09778
1.09477
1.09249
1.09068
1.08855
1.08607
1.08373
1.08172
1.07968
1.07843
1.07716
1.07445
1.0724
1.06918
1.44405
1.44047
1.43843
1.43614
1.43224
1.42774
1.42315
1.41863
1.41381
1.4086
1.40298
1.39697
1.39253
1.38856
1.38446
1.38053
1.37666
1.37207
1.36763
1.36373
1.35953
1.3549
1.35022
1.34597
1.34206
1.33844
1.33484
1.33124
1.32805
1.32533
1.32293
1.32078
1.3189
1.31646
1.31353
1.31095
1.30854
1.30629
1.30432
1.30264
1.30111
1.29938
1.29739
1.29519
1.29265
1.28987
1.28733
1.28516
1.28314
1.28123
1.27964
1.2784
1.2771
1.27546
1.27379
1.27211
1.27034
1.26848
1.26663
1.26462
1.26212
1.25899
1.25554
1.25218
1.24897
1.24591
1.24296
1.24004
1.2372
1.23443
1.23148
1.22815
1.22441
1.22022
1.21599
1.21238
1.20914
1.20584
1.20365
1.20193
1.1998
1.19703
1.19399
1.19181
1.18998
1.18733
1.18404
1.18065
1.17728
1.1739
1.17052
1.1671
1.16378
1.16048
1.15712
1.15415
1.15119
1.14721
1.14311
1.14126
1.13897
1.13537
1.13105
1.12799
1.12657
1.12506
1.12277
1.12006
1.1173
1.11462
1.11197
1.10931
1.10666
1.10413
1.10168
1.09923
1.09679
1.09413
1.09123
1.08846
1.08625
1.08439
1.08231
1.0798
1.07733
1.07513
1.07344
1.07265
1.07044
1.06785
1.06595
1.06278
1.44077
1.43763
1.43514
1.43173
1.42744
1.42348
1.41962
1.41506
1.41019
1.40474
1.39841
1.39374
1.38983
1.38572
1.38171
1.37801
1.37391
1.36982
1.36623
1.36234
1.35791
1.35381
1.34988
1.34572
1.3415
1.33765
1.33453
1.33201
1.3299
1.32792
1.32646
1.32469
1.32242
1.32003
1.31773
1.3155
1.31332
1.31128
1.30954
1.30805
1.30652
1.30479
1.30277
1.30043
1.29778
1.2951
1.29267
1.29035
1.28812
1.28607
1.28445
1.28301
1.28108
1.27915
1.27727
1.27536
1.27336
1.27128
1.26903
1.26648
1.26349
1.26008
1.25652
1.25304
1.24966
1.24648
1.24344
1.24045
1.23762
1.23471
1.23145
1.22772
1.22351
1.2192
1.21523
1.2116
1.20797
1.20497
1.20302
1.20128
1.19897
1.19572
1.19278
1.19105
1.18922
1.18631
1.18283
1.1793
1.17573
1.1721
1.16841
1.16475
1.16104
1.15726
1.15378
1.15061
1.14697
1.14249
1.13904
1.13663
1.13369
1.1295
1.12557
1.12369
1.12211
1.11981
1.11699
1.11407
1.11124
1.10847
1.10574
1.10301
1.10036
1.09776
1.09517
1.0927
1.09011
1.0871
1.08446
1.0822
1.07992
1.07793
1.07595
1.07357
1.07109
1.06893
1.06783
1.06648
1.06378
1.0615
1.05962
1.05643
1.43761
1.43537
1.43252
1.42868
1.42515
1.42157
1.41755
1.41303
1.40743
1.40099
1.39591
1.39187
1.38776
1.38384
1.38039
1.37667
1.37299
1.36991
1.36654
1.36248
1.35862
1.35485
1.35132
1.34801
1.34488
1.34191
1.33907
1.33693
1.33521
1.33315
1.33116
1.3292
1.32711
1.32498
1.32289
1.32072
1.31851
1.31641
1.31457
1.31305
1.3113
1.30937
1.30734
1.30493
1.30214
1.29943
1.29695
1.29447
1.29207
1.28989
1.28797
1.28587
1.2837
1.28155
1.27938
1.27722
1.27502
1.27266
1.26999
1.2671
1.26387
1.2603
1.25662
1.25303
1.24967
1.24665
1.24373
1.24065
1.23733
1.23379
1.23002
1.22593
1.22149
1.21703
1.21301
1.209
1.20574
1.2041
1.20225
1.19974
1.19658
1.19381
1.19151
1.18894
1.18565
1.18188
1.17806
1.17433
1.17066
1.16702
1.16337
1.15971
1.15602
1.15251
1.14928
1.14591
1.14177
1.13738
1.13458
1.13199
1.12849
1.124
1.1205
1.11887
1.11705
1.11439
1.11139
1.1084
1.10549
1.10264
1.09982
1.09704
1.09425
1.09141
1.08872
1.08614
1.08323
1.08007
1.078
1.07603
1.07366
1.07139
1.06948
1.06741
1.06493
1.06308
1.06239
1.06014
1.05755
1.05543
1.05355
1.05044
1.43733
1.43416
1.43065
1.42737
1.42393
1.42028
1.41623
1.41137
1.40539
1.39977
1.39543
1.39127
1.38742
1.38415
1.38075
1.3774
1.37466
1.37204
1.36848
1.36483
1.36137
1.35807
1.35497
1.35202
1.3492
1.34641
1.34392
1.34203
1.34009
1.33817
1.33632
1.33439
1.33222
1.32994
1.32759
1.32509
1.32267
1.32046
1.31834
1.31647
1.31456
1.31248
1.31034
1.30783
1.30502
1.30227
1.29964
1.297
1.29456
1.2923
1.28987
1.28743
1.28513
1.28283
1.28043
1.278
1.27555
1.27295
1.27014
1.26708
1.26384
1.26037
1.2566
1.25263
1.24876
1.24485
1.241
1.23731
1.23367
1.22994
1.22587
1.22131
1.21664
1.21232
1.20782
1.2046
1.20243
1.19991
1.1971
1.19402
1.19102
1.18817
1.18552
1.18283
1.17964
1.17609
1.17241
1.1687
1.16499
1.16137
1.15781
1.15422
1.1507
1.14738
1.1441
1.14041
1.13613
1.13258
1.12999
1.12699
1.12286
1.11833
1.11606
1.11454
1.11204
1.10891
1.10579
1.10278
1.09983
1.09695
1.09417
1.09143
1.08851
1.08559
1.08275
1.07981
1.07656
1.07379
1.07177
1.0699
1.06772
1.06523
1.06302
1.0611
1.05914
1.05821
1.05677
1.05407
1.05182
1.04994
1.04812
1.04499
1.43768
1.43418
1.4306
1.42733
1.42405
1.4204
1.41601
1.41063
1.40525
1.40075
1.39657
1.39273
1.38955
1.38636
1.38321
1.38074
1.37859
1.37534
1.37189
1.3687
1.36558
1.36245
1.35937
1.35651
1.35381
1.35103
1.34884
1.34705
1.34519
1.34337
1.34135
1.33899
1.33645
1.33376
1.33096
1.32809
1.32543
1.32309
1.32075
1.31859
1.3166
1.31445
1.31217
1.30961
1.30687
1.30391
1.30094
1.29834
1.29597
1.29332
1.29057
1.28793
1.2855
1.2833
1.2811
1.27852
1.27528
1.27141
1.26741
1.26343
1.25941
1.25515
1.25074
1.24649
1.24243
1.23856
1.23481
1.23112
1.22732
1.2233
1.21883
1.21403
1.20941
1.20496
1.20089
1.19793
1.19543
1.19279
1.18999
1.18722
1.1846
1.18211
1.17971
1.17701
1.17381
1.17027
1.16654
1.16275
1.159
1.15533
1.15173
1.14818
1.14479
1.14161
1.1383
1.13429
1.13022
1.12751
1.12501
1.12174
1.11744
1.11353
1.11178
1.11001
1.10711
1.10385
1.10072
1.09774
1.09484
1.09203
1.08925
1.08628
1.08323
1.08027
1.07723
1.07379
1.07051
1.0682
1.06605
1.06391
1.06184
1.05961
1.05723
1.05512
1.05397
1.05329
1.05109
1.04845
1.04645
1.04467
1.04279
1.03975
1.43847
1.43528
1.43204
1.42879
1.42551
1.42169
1.41689
1.41193
1.40768
1.40353
1.39964
1.39642
1.39334
1.39023
1.38762
1.38553
1.38276
1.37936
1.37603
1.37282
1.36963
1.36656
1.36367
1.36092
1.3582
1.35556
1.35343
1.35149
1.3496
1.34744
1.34493
1.34219
1.33924
1.33613
1.33294
1.32978
1.32695
1.32448
1.32198
1.31954
1.31743
1.31525
1.31295
1.31019
1.30711
1.30426
1.30148
1.29886
1.29635
1.29388
1.29112
1.28782
1.28406
1.28001
1.27598
1.27211
1.26833
1.26443
1.26038
1.25624
1.25191
1.24746
1.24317
1.23915
1.23529
1.23145
1.22757
1.22361
1.21947
1.21508
1.21042
1.20568
1.20138
1.19743
1.19373
1.1912
1.18895
1.18635
1.18343
1.18054
1.17808
1.17585
1.1734
1.17051
1.16726
1.16377
1.16014
1.15642
1.15269
1.149
1.1454
1.14199
1.13883
1.13576
1.13226
1.12793
1.12462
1.12245
1.11975
1.11595
1.11154
1.10917
1.10792
1.10562
1.1024
1.09912
1.09601
1.09304
1.09017
1.08737
1.08443
1.08131
1.07825
1.07528
1.07214
1.06844
1.06527
1.06307
1.06099
1.05868
1.05617
1.05395
1.05188
1.05007
1.04952
1.04791
1.04561
1.04316
1.04132
1.03978
1.03826
1.03504
1.44128
1.43808
1.43483
1.43174
1.42845
1.42399
1.41949
1.41555
1.41141
1.4074
1.40417
1.40115
1.39783
1.39494
1.39265
1.38971
1.3865
1.3832
1.37973
1.37629
1.37302
1.36997
1.36709
1.36424
1.36144
1.35895
1.35671
1.35462
1.35245
1.34984
1.34697
1.34385
1.34048
1.33694
1.33333
1.32992
1.32689
1.32435
1.3218
1.31903
1.31696
1.31522
1.3122
1.3089
1.30597
1.30331
1.30034
1.29682
1.2928
1.28862
1.28456
1.2807
1.27688
1.27304
1.26916
1.2653
1.26138
1.2573
1.25309
1.24883
1.24446
1.24013
1.23598
1.23198
1.22802
1.22403
1.21994
1.21573
1.21138
1.20685
1.20219
1.19781
1.19393
1.19026
1.18703
1.1847
1.18245
1.17981
1.17685
1.17398
1.17154
1.16924
1.16661
1.16357
1.16026
1.15682
1.15327
1.14966
1.1461
1.14266
1.1393
1.13607
1.13295
1.12985
1.1262
1.12191
1.11929
1.11722
1.11416
1.11002
1.10645
1.10489
1.10344
1.10078
1.09767
1.09464
1.09171
1.0888
1.08595
1.08309
1.07999
1.0769
1.07386
1.07073
1.06735
1.0639
1.06086
1.05822
1.056
1.05415
1.05171
1.04897
1.04685
1.04625
1.0449
1.04251
1.04053
1.03836
1.03662
1.03534
1.0336
1.03022
1.44515
1.44195
1.43919
1.43569
1.43153
1.42749
1.42372
1.41961
1.41542
1.41201
1.40893
1.40533
1.40196
1.3994
1.39623
1.3928
1.3895
1.38601
1.38232
1.37871
1.37534
1.37216
1.36911
1.36615
1.36345
1.36094
1.35855
1.35625
1.3536
1.35051
1.34722
1.34381
1.34017
1.33635
1.33217
1.32847
1.32536
1.32216
1.31927
1.31682
1.31419
1.31069
1.3069
1.30399
1.30085
1.29722
1.29344
1.28965
1.28589
1.28211
1.2783
1.2745
1.27075
1.26693
1.26293
1.25879
1.25454
1.2502
1.24586
1.24153
1.23719
1.23292
1.22884
1.22492
1.22099
1.21691
1.21271
1.20833
1.20368
1.19888
1.19436
1.19033
1.18652
1.18316
1.18052
1.17813
1.17581
1.17325
1.17038
1.1677
1.16533
1.16273
1.15971
1.15637
1.15284
1.1493
1.14585
1.14248
1.13919
1.136
1.13284
1.12983
1.12701
1.12396
1.12006
1.11647
1.11441
1.11198
1.10836
1.10411
1.10183
1.10093
1.09908
1.09625
1.09327
1.09043
1.08763
1.08481
1.08193
1.07883
1.07566
1.07257
1.06962
1.06628
1.06248
1.05973
1.05729
1.0545
1.0516
1.04926
1.04744
1.04489
1.04322
1.04191
1.0394
1.03718
1.03539
1.0335
1.03196
1.03067
1.0291
1.02588
1.44978
1.44654
1.44335
1.43954
1.43554
1.43186
1.42778
1.42334
1.41945
1.41608
1.41215
1.40827
1.40538
1.4021
1.39844
1.39484
1.39127
1.38749
1.38364
1.37997
1.37646
1.37298
1.36964
1.36661
1.36386
1.36112
1.35852
1.35601
1.35308
1.3497
1.34597
1.34195
1.33777
1.33331
1.32892
1.32515
1.32129
1.31783
1.31488
1.31171
1.30805
1.30424
1.30079
1.29744
1.29393
1.29035
1.28683
1.28336
1.27988
1.27632
1.27262
1.26877
1.26483
1.26079
1.2566
1.25231
1.24789
1.24339
1.23892
1.23453
1.23022
1.22604
1.22206
1.21823
1.21433
1.21019
1.2058
1.20113
1.19622
1.19137
1.18714
1.18332
1.17945
1.17675
1.17454
1.17192
1.16936
1.16687
1.16422
1.16167
1.15913
1.15616
1.15275
1.14912
1.1454
1.14176
1.13835
1.13516
1.13217
1.12933
1.12662
1.12404
1.12133
1.11778
1.1136
1.11141
1.10971
1.10674
1.10277
1.09957
1.09783
1.09623
1.09377
1.09102
1.08836
1.0858
1.08329
1.0807
1.07776
1.07459
1.07144
1.06837
1.06531
1.06205
1.05869
1.05608
1.05384
1.05143
1.04863
1.04572
1.04307
1.04144
1.04017
1.03762
1.03503
1.03288
1.03109
1.02919
1.02738
1.02589
1.02438
1.02124
1.45419
1.45097
1.4471
1.44309
1.43935
1.43519
1.43051
1.42612
1.4223
1.418
1.41366
1.41032
1.40685
1.40301
1.39923
1.39559
1.39178
1.3877
1.38359
1.37974
1.37596
1.37215
1.36855
1.36526
1.3624
1.35975
1.35687
1.35367
1.35007
1.34616
1.34194
1.33747
1.33293
1.32824
1.32383
1.32001
1.3166
1.31333
1.30992
1.3063
1.30273
1.29932
1.29588
1.29234
1.28877
1.28518
1.28154
1.27786
1.27416
1.27046
1.26672
1.26287
1.25887
1.25471
1.25042
1.246
1.24149
1.23692
1.2324
1.22798
1.2237
1.21959
1.21564
1.21176
1.20776
1.20345
1.19885
1.19398
1.18898
1.18438
1.18054
1.17685
1.17328
1.17084
1.16846
1.16555
1.16292
1.16063
1.1582
1.15559
1.1527
1.1493
1.14553
1.1417
1.13796
1.13439
1.13111
1.1282
1.12544
1.12272
1.12025
1.11785
1.11493
1.11116
1.10864
1.10698
1.10448
1.10072
1.09671
1.09463
1.09369
1.09181
1.08905
1.08636
1.08386
1.08133
1.07881
1.07622
1.07333
1.07029
1.06733
1.0644
1.06119
1.05826
1.05577
1.05304
1.05036
1.04843
1.04618
1.04294
1.04038
1.03884
1.03632
1.03353
1.03082
1.02864
1.02682
1.02474
1.02257
1.02097
1.01967
1.01681
1.45808
1.45394
1.44966
1.44586
1.44146
1.43658
1.43204
1.42773
1.42282
1.41818
1.41409
1.41036
1.4065
1.40268
1.39887
1.39485
1.39059
1.38624
1.38199
1.37786
1.3738
1.36973
1.36552
1.36206
1.35909
1.35592
1.35242
1.34867
1.34477
1.34068
1.33636
1.33192
1.32736
1.32286
1.31895
1.31554
1.3122
1.30874
1.30516
1.30165
1.2984
1.29525
1.29188
1.2882
1.28434
1.28041
1.27646
1.27251
1.26857
1.26466
1.26077
1.25678
1.25268
1.24853
1.24431
1.23992
1.23536
1.2307
1.2261
1.22168
1.21744
1.21338
1.20944
1.20547
1.20123
1.19667
1.19189
1.18696
1.18219
1.17814
1.17469
1.17099
1.16766
1.16541
1.16297
1.16003
1.15711
1.1545
1.15192
1.1491
1.14589
1.14226
1.13845
1.13472
1.13118
1.12785
1.12474
1.12177
1.11891
1.11639
1.11421
1.11188
1.10868
1.10529
1.10361
1.10187
1.09868
1.09481
1.09251
1.09128
1.08946
1.08675
1.08372
1.0809
1.07849
1.07619
1.07378
1.07125
1.06869
1.06609
1.06324
1.0599
1.0572
1.05506
1.05281
1.05065
1.04814
1.0453
1.04233
1.04
1.03904
1.03627
1.03297
1.03026
1.0275
1.02513
1.02301
1.02087
1.01852
1.01667
1.01543
1.01251
1.45964
1.45511
1.4509
1.4464
1.44141
1.43654
1.43188
1.42675
1.4215
1.41682
1.4129
1.40884
1.40468
1.40054
1.39635
1.39215
1.38797
1.38376
1.37948
1.37519
1.37092
1.36631
1.36163
1.35792
1.35456
1.35095
1.34717
1.34331
1.33933
1.33515
1.33089
1.32676
1.32267
1.31848
1.31453
1.31101
1.30769
1.30458
1.30155
1.29839
1.29506
1.29152
1.28772
1.28377
1.27977
1.27572
1.27154
1.26725
1.26295
1.25876
1.25468
1.25059
1.24643
1.24228
1.23808
1.23369
1.22918
1.22469
1.22031
1.21605
1.21185
1.20769
1.20353
1.19923
1.19463
1.18983
1.18512
1.18056
1.17632
1.17267
1.16942
1.16616
1.1632
1.16054
1.15759
1.1542
1.15107
1.14848
1.14582
1.14273
1.13921
1.13544
1.13169
1.12816
1.12487
1.1218
1.11888
1.11589
1.11295
1.11061
1.10851
1.10595
1.10254
1.10029
1.09889
1.09656
1.09291
1.08942
1.08783
1.08665
1.0843
1.08143
1.07865
1.07598
1.07359
1.07134
1.06897
1.06653
1.06412
1.06153
1.05863
1.05592
1.05395
1.05176
1.04907
1.04667
1.04461
1.04223
1.04003
1.03853
1.0357
1.03219
1.02958
1.02702
1.02428
1.0219
1.01979
1.01761
1.01502
1.01267
1.01117
1.00814
1.45927
1.45436
1.44977
1.44473
1.43958
1.43452
1.42921
1.42387
1.41873
1.41395
1.40944
1.40486
1.4003
1.39603
1.39201
1.38813
1.38426
1.38034
1.37631
1.37202
1.36733
1.36229
1.35763
1.35369
1.34993
1.34613
1.3423
1.33845
1.33453
1.33049
1.32641
1.32236
1.31829
1.31427
1.31077
1.30755
1.30426
1.3009
1.29747
1.29399
1.2905
1.28691
1.28315
1.27931
1.27536
1.27123
1.26686
1.26229
1.25763
1.25304
1.24863
1.24429
1.23999
1.23589
1.23188
1.22779
1.22357
1.21927
1.21496
1.21064
1.20626
1.20185
1.19745
1.19295
1.18816
1.18337
1.17895
1.17484
1.17112
1.16797
1.165
1.16171
1.15842
1.15549
1.15245
1.14908
1.14588
1.14301
1.13988
1.13628
1.13246
1.12868
1.12509
1.12186
1.11891
1.11611
1.11343
1.11083
1.10834
1.10601
1.10343
1.10009
1.09672
1.09509
1.09346
1.09046
1.08662
1.08443
1.08391
1.08241
1.07964
1.07676
1.07412
1.07154
1.06896
1.06643
1.06403
1.06172
1.05932
1.05646
1.05394
1.0521
1.05057
1.04917
1.0467
1.04396
1.04143
1.03889
1.03737
1.03563
1.03209
1.02936
1.02712
1.02466
1.02176
1.0192
1.01698
1.01473
1.01193
1.00943
1.00785
1.00467
1.4567
1.4515
1.44635
1.44121
1.43581
1.4304
1.42489
1.41942
1.41433
1.40946
1.40452
1.3998
1.39547
1.3915
1.38775
1.38409
)
;

boundaryField
{
    inlet
    {
        type            fixedValue;
        value           nonuniform 0();
    }
    outlet
    {
        type            zeroGradient;
    }
    bottom
    {
        type            symmetryPlane;
    }
    top
    {
        type            symmetryPlane;
    }
    obstacle
    {
        type            zeroGradient;
    }
    front
    {
        type            empty;
    }
    back
    {
        type            empty;
    }
    procBoundary31to23
    {
        type            processor;
        value           nonuniform List<scalar> 
133
(
1.13943
1.1375
1.13561
1.13374
1.13183
1.12986
1.12789
1.12583
1.12374
1.12144
1.11888
1.11674
1.11477
1.1128
1.11071
1.10835
1.10592
1.10354
1.10134
1.10049
1.09714
1.47037
1.46683
1.46413
1.46116
1.45763
1.45413
1.45075
1.44687
1.44236
1.43768
1.43295
1.42798
1.42256
1.41675
1.41202
1.40799
1.40366
1.39915
1.39461
1.39014
1.38581
1.37952
1.37245
1.36703
1.36256
1.35785
1.35393
1.35009
1.34501
1.3406
1.33656
1.33255
1.32857
1.32448
1.32038
1.31635
1.31245
1.30882
1.30512
1.30178
1.29901
1.29631
1.29381
1.29082
1.28772
1.2852
1.28243
1.27941
1.2763
1.27288
1.2701
1.26785
1.26571
1.26366
1.26168
1.25972
1.25782
1.2559
1.25389
1.25185
1.24984
1.24763
1.24509
1.24244
1.23991
1.23766
1.23565
1.23345
1.23116
1.22901
1.2268
1.22428
1.22156
1.21874
1.21577
1.21267
1.20961
1.20672
1.20406
1.20153
1.19886
1.19644
1.19481
1.1929
1.19027
1.18801
1.18621
1.18379
1.18076
1.17786
1.17529
1.1728
1.17044
1.16817
1.16599
1.16388
1.16185
1.15988
1.15755
1.15463
1.153
1.15218
1.15094
1.14919
1.14674
1.14432
1.14367
1.14444
1.14324
1.14046
1.13793
1.13793
)
;
    }
    procBoundary31to30
    {
        type            processor;
        value           nonuniform List<scalar> 
18
(
1.47264
1.46814
1.46489
1.46274
1.45432
1.44881
1.44524
1.44163
1.43985
1.44023
1.44206
1.44502
1.4486
1.45321
1.45744
1.46147
1.4641
1.46415
)
;
    }
    procBoundary31to38
    {
        type            processor;
        value           uniform 1.46173;
    }
    procBoundary31to39
    {
        type            processor;
        value           nonuniform List<scalar> 
133
(
1.38044
1.37668
1.37252
1.36792
1.36303
1.35809
1.35374
1.34984
1.34604
1.34226
1.33842
1.33445
1.3304
1.32623
1.32203
1.31811
1.31453
1.31109
1.30751
1.30379
1.30016
1.29671
1.29332
1.28999
1.28664
1.28308
1.27927
1.27525
1.27105
1.26664
1.26198
1.25705
1.25201
1.2471
1.24248
1.23807
1.23378
1.22975
1.22586
1.22189
1.2178
1.21366
1.20956
1.20543
1.20111
1.19662
1.19205
1.18738
1.1825
1.17786
1.17379
1.17004
1.16651
1.16346
1.16054
1.15734
1.15423
1.1513
1.14811
1.14451
1.14104
1.13779
1.13424
1.13036
1.12652
1.12295
1.11965
1.11663
1.11391
1.1114
1.10895
1.10647
1.10386
1.10112
1.09784
1.09407
1.09211
1.09067
1.08808
1.08448
1.0816
1.08039
1.07954
1.07736
1.07461
1.07204
1.06958
1.06704
1.06435
1.0616
1.05909
1.05677
1.05436
1.05215
1.05027
1.04856
1.04694
1.04478
1.04244
1.04067
1.03866
1.03682
1.03508
1.03186
1.02854
1.02622
1.02414
1.02165
1.01896
1.01681
1.01472
1.01242
1.00952
1.0067
1.00484
1.00141
1.45201
1.44666
1.44123
1.43592
1.43053
1.42505
1.41956
1.41428
1.40927
1.40444
1.39976
1.39531
1.39126
1.38753
1.38387
1.38044
1.38019
)
;
    }
}


// ************************************************************************* //
