/*--------------------------------*- C++ -*----------------------------------*\
  =========                 |
  \\      /  F ield         | OpenFOAM: The Open Source CFD Toolbox
   \\    /   O peration     | Website:  https://openfoam.org
    \\  /    A nd           | Version:  7
     \\/     M anipulation  |
\*---------------------------------------------------------------------------*/
FoamFile
{
    version     2.0;
    format      ascii;
    class       volScalarField;
    location    "18";
    object      p;
}
// * * * * * * * * * * * * * * * * * * * * * * * * * * * * * * * * * * * * * //

dimensions      [0 2 -2 0 0 0 0];

internalField   nonuniform List<scalar> 
41600
(
-0.24188
-0.246632
-0.250532
-0.252793
-0.255883
-0.257608
-0.260017
-0.262246
-0.265147
-0.268262
-0.27142
-0.273564
-0.273314
-0.268607
-0.25729
-0.237085
-0.207491
-0.169504
-0.126897
-0.085144
-0.0464695
-0.0166123
0.00700468
0.0219125
0.0315202
-0.241959
-0.246673
-0.250583
-0.252829
-0.255919
-0.257636
-0.260041
-0.262269
-0.265178
-0.268317
-0.271525
-0.273757
-0.273639
-0.269107
-0.258015
-0.238073
-0.20867
-0.170791
-0.128188
-0.0863867
-0.0475514
-0.0176682
0.00603701
0.0210602
0.0307342
-0.242118
-0.246755
-0.250686
-0.2529
-0.25599
-0.257691
-0.260088
-0.262313
-0.265236
-0.268421
-0.271725
-0.274119
-0.274245
-0.270036
-0.259351
-0.239843
-0.210814
-0.173144
-0.13055
-0.0886794
-0.0496636
-0.0196646
0.00411974
0.0193347
0.0291155
-0.242354
-0.246876
-0.250838
-0.253003
-0.256093
-0.25777
-0.260155
-0.262373
-0.265314
-0.26856
-0.271993
-0.274602
-0.27505
-0.271259
-0.261096
-0.242137
-0.213587
-0.176193
-0.133628
-0.091726
-0.0526594
-0.0224911
0.00129548
0.0167278
0.0266348
-0.242666
-0.247035
-0.251037
-0.253137
-0.256225
-0.257869
-0.260236
-0.262442
-0.265401
-0.268714
-0.272292
-0.275144
-0.275948
-0.27261
-0.263019
-0.244632
-0.216599
-0.179481
-0.137075
-0.0952399
-0.0563008
-0.0260106
-0.0023389
0.0132839
0.0233284
-0.243053
-0.247229
-0.25128
-0.253297
-0.256382
-0.257984
-0.260325
-0.262513
-0.265483
-0.268862
-0.272584
-0.275675
-0.276825
-0.273918
-0.264862
-0.247007
-0.219426
-0.182683
-0.14054
-0.0989159
-0.0603484
-0.0300668
-0.00662697
0.00912301
0.0193158
-0.243512
-0.247456
-0.251563
-0.25348
-0.256559
-0.258107
-0.260416
-0.262575
-0.265547
-0.26898
-0.272829
-0.27613
-0.277576
-0.275027
-0.266406
-0.24898
-0.221798
-0.185466
-0.143728
-0.102504
-0.0645647
-0.0344816
-0.0113734
0.00442896
0.0147767
-0.244041
-0.247713
-0.251882
-0.25368
-0.25675
-0.258235
-0.260502
-0.262621
-0.265582
-0.269048
-0.272992
-0.276451
-0.278115
-0.275827
-0.267471
-0.250351
-0.223474
-0.187589
-0.146422
-0.105814
-0.0687384
-0.039068
-0.0163725
-0.00058638
0.00991317
-0.244636
-0.247997
-0.252233
-0.253893
-0.25695
-0.258359
-0.260574
-0.262641
-0.265575
-0.269049
-0.273045
-0.276598
-0.278376
-0.276199
-0.26795
-0.250977
-0.224305
-0.188903
-0.148483
-0.108713
-0.0727026
-0.0436495
-0.0214329
-0.00571898
0.00491758
-0.245295
-0.248303
-0.252609
-0.254113
-0.257151
-0.258473
-0.260628
-0.26263
-0.265517
-0.268968
-0.272972
-0.276535
-0.278308
-0.276092
-0.267763
-0.250771
-0.224213
-0.189336
-0.149839
-0.111127
-0.0763417
-0.0480776
-0.0263945
-0.0107977
-4.8446e-05
-0.246014
-0.248629
-0.253007
-0.254335
-0.257348
-0.258572
-0.260657
-0.26258
-0.265403
-0.268802
-0.272751
-0.276241
-0.277883
-0.275469
-0.266864
-0.249694
-0.223184
-0.188888
-0.150484
-0.11303
-0.0795891
-0.0522422
-0.0311366
-0.0156956
-0.00486417
-0.24679
-0.248969
-0.253421
-0.254553
-0.257535
-0.258651
-0.260656
-0.262488
-0.265228
-0.268539
-0.272377
-0.275702
-0.277079
-0.274299
-0.265229
-0.24774
-0.221251
-0.187617
-0.150463
-0.114434
-0.0824192
-0.056074
-0.035579
-0.0203297
-0.00944958
-0.247619
-0.24932
-0.253844
-0.254761
-0.257707
-0.258702
-0.260621
-0.26235
-0.264987
-0.268177
-0.271842
-0.274903
-0.275873
-0.272558
-0.262851
-0.244942
-0.218491
-0.185627
-0.14986
-0.115383
-0.084837
-0.0595395
-0.0396773
-0.0246539
-0.013759
-0.248498
-0.249678
-0.254272
-0.254954
-0.257857
-0.258723
-0.260547
-0.262163
-0.264679
-0.267709
-0.271134
-0.273825
-0.27424
-0.270225
-0.259745
-0.241363
-0.21502
-0.18305
-0.14878
-0.115936
-0.0868669
-0.0626322
-0.043415
-0.028649
-0.0177722
-0.249424
-0.250039
-0.2547
-0.255128
-0.257981
-0.258709
-0.260433
-0.261924
-0.264297
-0.267126
-0.270235
-0.272443
-0.272153
-0.26729
-0.255951
-0.237107
-0.210985
-0.180036
-0.147336
-0.116157
-0.0885441
-0.065364
-0.0467946
-0.0323137
-0.0214859
-0.250392
-0.250398
-0.255121
-0.255277
-0.258075
-0.258656
-0.260274
-0.261628
-0.263836
-0.266413
-0.269122
-0.270724
-0.269587
-0.263762
-0.251539
-0.232306
-0.206543
-0.176727
-0.14563
-0.116107
-0.0899067
-0.0677568
-0.0498307
-0.0356575
-0.0249069
-0.251402
-0.250752
-0.255532
-0.255396
-0.258134
-0.258562
-0.260067
-0.26127
-0.263281
-0.26555
-0.267764
-0.268636
-0.266531
-0.259677
-0.24661
-0.227108
-0.201849
-0.173252
-0.143752
-0.115842
-0.0909918
-0.0698372
-0.0525439
-0.0386958
-0.0280476
-0.252449
-0.251098
-0.255927
-0.255483
-0.258154
-0.258422
-0.259807
-0.26084
-0.262617
-0.264509
-0.266126
-0.266152
-0.262996
-0.255101
-0.241288
-0.221665
-0.19704
-0.16971
-0.141769
-0.115405
-0.091833
-0.0716331
-0.0549574
-0.0414465
-0.0309229
-0.253532
-0.251433
-0.256302
-0.255535
-0.258134
-0.258233
-0.259489
-0.260326
-0.261822
-0.26326
-0.264179
-0.263263
-0.259014
-0.250123
-0.235703
-0.216114
-0.192226
-0.166176
-0.139732
-0.114832
-0.0924601
-0.073171
-0.0570945
-0.0439285
-0.0335486
-0.254648
-0.251753
-0.256655
-0.255549
-0.258067
-0.257991
-0.259104
-0.259713
-0.260871
-0.261771
-0.261899
-0.259977
-0.254643
-0.24485
-0.229979
-0.210566
-0.187488
-0.1627
-0.137674
-0.114148
-0.0928982
-0.074476
-0.0589776
-0.0461608
-0.0359404
-0.255797
-0.252058
-0.256982
-0.255522
-0.257955
-0.25769
-0.258641
-0.258982
-0.259737
-0.260017
-0.259278
-0.256322
-0.249959
-0.239387
-0.224226
-0.205107
-0.18288
-0.159314
-0.135619
-0.113376
-0.0931694
-0.0755706
-0.0606275
-0.0481614
-0.0381136
-0.256976
-0.252345
-0.257278
-0.255453
-0.257792
-0.257325
-0.258088
-0.258113
-0.258395
-0.257979
-0.256326
-0.252346
-0.245044
-0.233834
-0.218528
-0.199795
-0.178433
-0.156031
-0.13358
-0.112529
-0.0932922
-0.0764753
-0.0620632
-0.0499475
-0.0400825
-0.258187
-0.252614
-0.257541
-0.255343
-0.257575
-0.256888
-0.25743
-0.257085
-0.256826
-0.255653
-0.253065
-0.248108
-0.23998
-0.228274
-0.212949
-0.194664
-0.174163
-0.15286
-0.131565
-0.11162
-0.0932829
-0.0772083
-0.0633021
-0.0515354
-0.0418608
-0.259429
-0.252864
-0.257773
-0.255188
-0.257301
-0.25637
-0.256653
-0.255879
-0.255015
-0.253043
-0.249531
-0.243671
-0.234841
-0.222773
-0.207529
-0.189733
-0.170073
-0.149799
-0.12958
-0.110656
-0.0931557
-0.0777855
-0.0643597
-0.0529405
-0.0434613
-0.260702
-0.253094
-0.257973
-0.254987
-0.256963
-0.255763
-0.255743
-0.254482
-0.252958
-0.250167
-0.245769
-0.239099
-0.229691
-0.217378
-0.202294
-0.185008
-0.16616
-0.146844
-0.127625
-0.109644
-0.0929233
-0.0782213
-0.0652502
-0.0541769
-0.0448957
-0.262009
-0.253308
-0.258138
-0.254739
-0.256556
-0.255057
-0.254686
-0.252881
-0.250658
-0.247052
-0.241826
-0.234447
-0.22458
-0.212121
-0.197255
-0.180486
-0.162416
-0.14399
-0.125701
-0.10859
-0.0925969
-0.0785277
-0.0659865
-0.055258
-0.0461748
-0.263352
-0.253516
-0.25826
-0.254443
-0.256074
-0.254243
-0.253472
-0.251071
-0.248127
-0.24373
-0.23775
-0.229766
-0.219543
-0.207021
-0.192414
-0.176161
-0.15883
-0.141228
-0.123806
-0.107497
-0.0921866
-0.0787157
-0.0665804
-0.0561962
-0.0473083
-0.264733
-0.253711
-0.258349
-0.254096
-0.255511
-0.253316
-0.252094
-0.249054
-0.245384
-0.240237
-0.233585
-0.225095
-0.214607
-0.202089
-0.187767
-0.17202
-0.155389
-0.138553
-0.12194
-0.106369
-0.0917017
-0.0787941
-0.0670427
-0.0570026
-0.0483052
-0.266155
-0.253898
-0.2584
-0.253694
-0.254864
-0.252269
-0.250546
-0.246835
-0.242452
-0.236609
-0.229369
-0.220464
-0.209789
-0.197326
-0.183306
-0.168053
-0.152082
-0.135957
-0.1201
-0.105208
-0.0911501
-0.0787707
-0.0673837
-0.0576874
-0.0491729
-0.267624
-0.254084
-0.258411
-0.253235
-0.254132
-0.251096
-0.248827
-0.244425
-0.239358
-0.232881
-0.225133
-0.215896
-0.205098
-0.19273
-0.179021
-0.164246
-0.148897
-0.133434
-0.118284
-0.104017
-0.0905391
-0.0786519
-0.0676132
-0.0582593
-0.049918
-0.269144
-0.254276
-0.258378
-0.25272
-0.253315
-0.249792
-0.246939
-0.241841
-0.23613
-0.229083
-0.220905
-0.211405
-0.200538
-0.188297
-0.1749
-0.160588
-0.145822
-0.130979
-0.116488
-0.1028
-0.0898748
-0.0784433
-0.0677405
-0.0587259
-0.0505458
-0.270721
-0.254479
-0.258295
-0.252151
-0.252414
-0.248353
-0.244888
-0.2391
-0.232794
-0.225242
-0.216704
-0.207003
-0.196109
-0.184017
-0.170933
-0.157065
-0.142849
-0.128585
-0.114712
-0.101558
-0.0891623
-0.0781496
-0.0677748
-0.0590932
-0.0510608
-0.272361
-0.254698
-0.258158
-0.251537
-0.25143
-0.246775
-0.242682
-0.236224
-0.229374
-0.221379
-0.212544
-0.202694
-0.191809
-0.179883
-0.167108
-0.153668
-0.139967
-0.126249
-0.112951
-0.100295
-0.0884054
-0.0777747
-0.0677244
-0.0593659
-0.0514676
-0.27407
-0.254939
-0.257961
-0.250889
-0.250361
-0.245057
-0.240335
-0.233233
-0.225894
-0.217515
-0.208438
-0.198482
-0.187633
-0.175885
-0.163414
-0.150384
-0.137169
-0.123964
-0.111204
-0.0990144
-0.0876072
-0.0773225
-0.0675971
-0.0595465
-0.0517694
-0.275856
-0.255199
-0.257706
-0.250218
-0.249202
-0.2432
-0.237859
-0.230147
-0.222372
-0.213662
-0.204391
-0.194365
-0.183576
-0.172015
-0.159841
-0.147205
-0.134446
-0.121728
-0.109468
-0.0977185
-0.0867693
-0.076797
-0.0674006
-0.059634
-0.0519641
-0.277726
-0.255476
-0.2574
-0.249531
-0.24795
-0.241212
-0.23527
-0.226984
-0.218826
-0.209831
-0.200408
-0.190343
-0.179632
-0.168262
-0.15638
-0.144122
-0.131793
-0.119536
-0.107742
-0.0964107
-0.0858927
-0.0762035
-0.0671428
-0.0596211
-0.0520387
-0.279688
-0.255756
-0.257058
-0.248828
-0.246602
-0.239098
-0.232583
-0.223761
-0.215267
-0.206032
-0.196492
-0.186413
-0.175794
-0.16462
-0.153021
-0.141125
-0.129203
-0.117383
-0.106024
-0.0950934
-0.0849776
-0.0755505
-0.0668318
-0.0594926
-0.0519724
-0.281747
-0.256024
-0.256707
-0.248101
-0.245157
-0.236868
-0.229811
-0.220492
-0.211707
-0.202269
-0.192643
-0.182571
-0.172056
-0.161078
-0.149757
-0.138208
-0.126672
-0.115267
-0.104314
-0.0937685
-0.0840246
-0.0748495
-0.0664729
-0.0592302
-0.0517629
-0.283891
-0.256273
-0.256376
-0.247333
-0.243616
-0.234532
-0.226968
-0.21719
-0.208156
-0.198546
-0.18886
-0.178813
-0.168411
-0.157631
-0.146579
-0.135363
-0.124194
-0.113183
-0.102612
-0.0924365
-0.0830357
-0.0741138
-0.066064
-0.0588292
-0.0514786
-0.286117
-0.256487
-0.256095
-0.246507
-0.241983
-0.232099
-0.224066
-0.213866
-0.204618
-0.194866
-0.185143
-0.175134
-0.164853
-0.154271
-0.143482
-0.132585
-0.121765
-0.111128
-0.100918
-0.0910973
-0.0820143
-0.0733532
-0.0655967
-0.0583272
-0.0512804
-0.288429
-0.256645
-0.255888
-0.245604
-0.240262
-0.229581
-0.221115
-0.210528
-0.201099
-0.19123
-0.181489
-0.171531
-0.161377
-0.150991
-0.140458
-0.129867
-0.119381
-0.109099
-0.0992309
-0.0897503
-0.0809652
-0.0725712
-0.0650661
-0.0578172
-0.0512722
-0.290801
-0.256743
-0.255768
-0.244614
-0.238455
-0.226986
-0.218124
-0.207182
-0.197603
-0.187637
-0.177895
-0.167998
-0.157976
-0.147785
-0.137501
-0.127205
-0.117038
-0.107094
-0.0975512
-0.088395
-0.0798925
-0.0717657
-0.0644836
-0.057385
-0.0512027
-0.293201
-0.256792
-0.255728
-0.243529
-0.236569
-0.224324
-0.215102
-0.203835
-0.194131
-0.184088
-0.174359
-0.164531
-0.154645
-0.144647
-0.134606
-0.124594
-0.114732
-0.10511
-0.0958779
-0.0870315
-0.0787992
-0.0709342
-0.0638697
-0.0569724
-0.051008
-0.295585
-0.256813
-0.255742
-0.242352
-0.234605
-0.221603
-0.212054
-0.200491
-0.190685
-0.180581
-0.170877
-0.161127
-0.15138
-0.141572
-0.131769
-0.122029
-0.112461
-0.103146
-0.0942104
-0.08566
-0.077687
-0.0700774
-0.0632244
-0.0565461
-0.0507739
-0.297903
-0.256839
-0.255768
-0.241086
-0.232567
-0.218829
-0.208987
-0.197153
-0.187266
-0.177114
-0.167447
-0.157779
-0.148174
-0.138555
-0.128983
-0.119507
-0.110221
-0.101199
-0.0925479
-0.0842806
-0.0765572
-0.069195
-0.0625504
-0.0560894
-0.0504838
-0.3001
-0.256916
-0.255756
-0.239737
-0.230459
-0.216009
-0.205905
-0.193822
-0.183873
-0.173686
-0.164065
-0.154486
-0.145024
-0.135592
-0.126246
-0.117024
-0.108009
-0.0992683
-0.0908897
-0.0828936
-0.0754105
-0.068288
-0.0618458
-0.0555921
-0.0501564
-0.30212
-0.257099
-0.255652
-0.238311
-0.228283
-0.213148
-0.202811
-0.1905
-0.180505
-0.170295
-0.160728
-0.151243
-0.141926
-0.132679
-0.123553
-0.114577
-0.105823
-0.0973517
-0.0892352
-0.0814989
-0.0742476
-0.0673569
-0.0611102
-0.0550559
-0.0497834
-0.303915
-0.25745
-0.25541
-0.236811
-0.226042
-0.210251
-0.199707
-0.187189
-0.177162
-0.166938
-0.157434
-0.148046
-0.138876
-0.129811
-0.120901
-0.112163
-0.103661
-0.0954478
-0.0875837
-0.0800967
-0.073069
-0.0664024
-0.0603439
-0.0544797
-0.049369
-0.305442
-0.258029
-0.254998
-0.235239
-0.223741
-0.20732
-0.196597
-0.183887
-0.173842
-0.163613
-0.154179
-0.144892
-0.13587
-0.126985
-0.118285
-0.109778
-0.10152
-0.0935554
-0.0859346
-0.0786869
-0.0718755
-0.0654252
-0.0595473
-0.053867
-0.0489118
-0.306672
-0.258893
-0.254398
-0.233596
-0.221382
-0.204359
-0.19348
-0.180595
-0.170545
-0.160318
-0.15096
-0.141777
-0.132904
-0.124197
-0.115704
-0.107421
-0.0993984
-0.0916731
-0.0842871
-0.0772697
-0.0706673
-0.0644259
-0.0587219
-0.0532189
-0.0484139
-0.307585
-0.26008
-0.25361
-0.231878
-0.21897
-0.201369
-0.190357
-0.177312
-0.167267
-0.157051
-0.147775
-0.138699
-0.129975
-0.121445
-0.113153
-0.105088
-0.0972942
-0.0897999
-0.0826408
-0.0758449
-0.0694452
-0.0634053
-0.0578686
-0.052538
-0.0478766
-0.308175
-0.261611
-0.252647
-0.230085
-0.216506
-0.198352
-0.18723
-0.174037
-0.164008
-0.153809
-0.144621
-0.135655
-0.127081
-0.118725
-0.110631
-0.102778
-0.0952057
-0.0879346
-0.080995
-0.0744127
-0.0682095
-0.0623641
-0.0569891
-0.0518257
-0.0473023
-0.30844
-0.263477
-0.251532
-0.22821
-0.213995
-0.195309
-0.184097
-0.170769
-0.160765
-0.150591
-0.141495
-0.132642
-0.124218
-0.116034
-0.108135
-0.100489
-0.0931314
-0.0860763
-0.0793493
-0.0729731
-0.0669606
-0.0613031
-0.0560847
-0.0510842
-0.0466931
-0.30839
-0.265639
-0.250291
-0.22625
-0.211439
-0.19224
-0.180957
-0.167507
-0.157537
-0.147393
-0.138394
-0.129656
-0.121384
-0.113371
-0.105662
-0.0982182
-0.0910696
-0.084224
-0.0777031
-0.0715261
-0.0656991
-0.0602231
-0.0551566
-0.050315
-0.0460513
-0.308036
-0.268026
-0.248951
-0.2242
-0.20884
-0.189147
-0.177811
-0.164249
-0.154322
-0.144214
-0.135318
-0.126697
-0.118577
-0.110732
-0.103211
-0.0959643
-0.0890192
-0.0823769
-0.0760561
-0.0700718
-0.0644253
-0.0591248
-0.0542062
-0.0495197
-0.045379
-0.307396
-0.270537
-0.247537
-0.222053
-0.206198
-0.186028
-0.174657
-0.160994
-0.151118
-0.141052
-0.132262
-0.12376
-0.115793
-0.108116
-0.10078
-0.0937255
-0.0869788
-0.0805341
-0.0744078
-0.0686103
-0.0631397
-0.058009
-0.0532347
-0.0486997
-0.044678
-0.306495
-0.27305
-0.246068
-0.219805
-0.203516
-0.182884
-0.171493
-0.157741
-0.147923
-0.137905
-0.129226
-0.120845
-0.113031
-0.10552
-0.0983656
-0.0915005
-0.0849473
-0.0786951
-0.0727578
-0.0671416
-0.0618426
-0.0568764
-0.0522432
-0.0478564
-0.0439498
-0.305364
-0.275432
-0.244558
-0.217452
-0.200792
-0.179714
-0.168319
-0.154487
-0.144735
-0.134771
-0.126207
-0.117949
-0.110288
-0.102943
-0.0959675
-0.0892876
-0.0829236
-0.076859
-0.0711059
-0.065666
-0.0605342
-0.0557277
-0.0512328
-0.0469908
-0.043196
-0.304043
-0.277545
-0.243016
-0.214989
-0.198026
-0.176517
-0.165133
-0.151232
-0.141553
-0.131647
-0.123202
-0.11507
-0.107564
-0.100382
-0.0935837
-0.0870857
-0.0809068
-0.0750253
-0.0694516
-0.0641834
-0.0592151
-0.0545635
-0.0502044
-0.046104
-0.0424179
-0.302584
-0.279262
-0.241445
-0.212415
-0.195218
-0.173293
-0.161933
-0.147973
-0.138374
-0.128533
-0.120211
-0.112207
-0.104855
-0.097836
-0.0912128
-0.0848936
-0.0788959
-0.0731934
-0.0677949
-0.062694
-0.0578855
-0.0533844
-0.0491589
-0.0451972
-0.0416167
-0.301047
-0.28048
-0.239844
-0.209726
-0.192366
-0.17004
-0.158719
-0.144709
-0.135198
-0.125426
-0.117231
-0.109356
-0.10216
-0.0953034
-0.0888533
-0.08271
-0.0768901
-0.0713628
-0.0661353
-0.0611979
-0.0565457
-0.0521912
-0.0480973
-0.044271
-0.0407936
-0.299503
-0.281122
-0.238208
-0.206925
-0.189469
-0.166758
-0.155487
-0.141438
-0.132022
-0.122325
-0.114261
-0.106518
-0.0994779
-0.0927827
-0.086504
-0.080534
-0.0748887
-0.069533
-0.0644729
-0.0596952
-0.055196
-0.0509844
-0.0470202
-0.0433264
-0.0399496
-0.298029
-0.281147
-0.236533
-0.204011
-0.186525
-0.163445
-0.152237
-0.13816
-0.128844
-0.119228
-0.111299
-0.10369
-0.0968068
-0.0902725
-0.0841638
-0.0783646
-0.072891
-0.0677036
-0.0628073
-0.058186
-0.0538366
-0.0497646
-0.0459285
-0.0423642
-0.0390857
-0.296707
-0.280549
-0.234811
-0.200988
-0.183533
-0.160101
-0.148968
-0.134872
-0.125664
-0.116134
-0.108343
-0.10087
-0.0941454
-0.0877716
-0.0818314
-0.0762009
-0.0708963
-0.0658741
-0.0611384
-0.0566705
-0.0524679
-0.0485324
-0.0448228
-0.041385
-0.038203
-0.295616
-0.279354
-0.233038
-0.197859
-0.18049
-0.156724
-0.145677
-0.131572
-0.12248
-0.113042
-0.105393
-0.0980578
-0.0914923
-0.0852787
-0.079506
-0.0740422
-0.068904
-0.0640443
-0.0594663
-0.0551488
-0.0510902
-0.0472882
-0.0437037
-0.0403895
-0.0373023
-0.29483
-0.27761
-0.231206
-0.194627
-0.177396
-0.153313
-0.142364
-0.128261
-0.11929
-0.109949
-0.102446
-0.0952517
-0.0888465
-0.0827929
-0.0771866
-0.0718877
-0.0669138
-0.0622139
-0.0577907
-0.053621
-0.0497037
-0.0460327
-0.0425718
-0.0393784
-0.0363845
-0.294412
-0.275386
-0.229311
-0.191298
-0.174248
-0.149868
-0.139026
-0.124935
-0.116094
-0.106855
-0.0995023
-0.0924505
-0.0862067
-0.0803131
-0.0748723
-0.0697368
-0.064925
-0.0603825
-0.0561116
-0.0520872
-0.0483087
-0.0447663
-0.0414276
-0.0383523
-0.0354505
-0.294411
-0.272756
-0.227349
-0.187875
-0.171046
-0.146387
-0.135663
-0.121595
-0.112889
-0.103759
-0.0965595
-0.0896531
-0.0835719
-0.0778385
-0.0725625
-0.0675888
-0.0629372
-0.05855
-0.054429
-0.0505476
-0.0469055
-0.0434894
-0.0402717
-0.0373117
-0.0345012
-0.294861
-0.269795
-0.225315
-0.184364
-0.167787
-0.142868
-0.132273
-0.118238
-0.109674
-0.100659
-0.093617
-0.0868584
-0.0809411
-0.075368
-0.0702563
-0.0654432
-0.0609502
-0.0567162
-0.0527429
-0.0490023
-0.0454944
-0.0422027
-0.0391044
-0.0362573
-0.0335372
-0.29578
-0.266574
-0.223205
-0.180768
-0.164469
-0.139312
-0.128854
-0.114864
-0.106449
-0.0975542
-0.0906737
-0.0840655
-0.0783135
-0.0729011
-0.0679531
-0.0632996
-0.0589636
-0.0548809
-0.0510533
-0.0474516
-0.0440756
-0.0409064
-0.0379263
-0.0351894
-0.0325595
-0.297171
-0.263154
-0.221017
-0.17709
-0.161093
-0.135716
-0.125406
-0.111471
-0.103213
-0.0944438
-0.0877286
-0.0812735
-0.0756883
-0.070437
-0.0656525
-0.0611574
-0.0569771
-0.053044
-0.0493602
-0.0458955
-0.0426495
-0.0396012
-0.0367378
-0.0341088
-0.0315686
-0.29902
-0.259586
-0.218745
-0.173334
-0.157655
-0.13208
-0.121927
-0.108059
-0.0999636
-0.0913268
-0.0847809
-0.0784817
-0.0730647
-0.0679751
-0.0633538
-0.0590165
-0.0549905
-0.0512054
-0.0476638
-0.0443343
-0.0412164
-0.0382874
-0.0355393
-0.0330161
-0.0305653
-0.301302
-0.255907
-0.216385
-0.169503
-0.154154
-0.128403
-0.118416
-0.104626
-0.0967008
-0.0882023
-0.0818296
-0.0756892
-0.070442
-0.0655148
-0.0610566
-0.0568763
-0.0530036
-0.049365
-0.0459641
-0.0427681
-0.0397766
-0.0369654
-0.0343314
-0.0319118
-0.0295503
-0.303981
-0.252145
-0.213932
-0.165596
-0.150589
-0.124683
-0.114873
-0.101172
-0.0934235
-0.0850696
-0.0788742
-0.0728954
-0.0678198
-0.0630556
-0.0587606
-0.0547367
-0.0510162
-0.047523
-0.0442611
-0.0411972
-0.0383304
-0.0356358
-0.0331145
-0.0307968
-0.0285244
-0.307013
-0.248319
-0.211381
-0.161616
-0.146957
-0.120919
-0.111295
-0.0976946
-0.0901309
-0.0819279
-0.0759138
-0.0700997
-0.0651973
-0.0605971
-0.0564653
-0.0525974
-0.0490283
-0.0456792
-0.0425551
-0.0396218
-0.0368782
-0.0342987
-0.0318888
-0.0296717
-0.027489
-0.310344
-0.24444
-0.208725
-0.157562
-0.143258
-0.11711
-0.107681
-0.0941942
-0.0868223
-0.0787766
-0.0729479
-0.0673016
-0.0625743
-0.058139
-0.0541706
-0.0504583
-0.0470398
-0.0438337
-0.0408462
-0.0380421
-0.0354203
-0.0329545
-0.0306547
-0.0285373
-0.0264453
-0.313919
-0.24051
-0.205958
-0.153435
-0.139489
-0.113255
-0.104032
-0.0906698
-0.0834971
-0.0756151
-0.0699761
-0.0645006
-0.0599502
-0.0556808
-0.0518762
-0.0483192
-0.0450507
-0.0419866
-0.0391345
-0.0364585
-0.0339569
-0.0316035
-0.0294124
-0.0273938
-0.0253942
-0.317675
-0.236528
-0.203074
-0.149232
-0.135649
-0.109352
-0.100346
-0.0871205
-0.0801547
-0.0724429
-0.0669978
-0.0616963
-0.0573248
-0.0532225
-0.0495819
-0.0461801
-0.0430609
-0.040138
-0.0374203
-0.0348712
-0.0324884
-0.0302462
-0.0281623
-0.0262414
-0.0243345
-0.321549
-0.232489
-0.200063
-0.144953
-0.131735
-0.105402
-0.0966229
-0.0835458
-0.0767946
-0.0692594
-0.0640127
-0.0588884
-0.0546977
-0.0507637
-0.0472876
-0.0440409
-0.0410705
-0.038288
-0.0357039
-0.0332805
-0.0310151
-0.0288829
-0.0269057
-0.0250808
-0.0232603
-0.325474
-0.228384
-0.196919
-0.140595
-0.127747
-0.101401
-0.0928611
-0.0799449
-0.0734165
-0.0660642
-0.0610205
-0.0560767
-0.0520689
-0.0483044
-0.0449933
-0.0419018
-0.0390796
-0.0364368
-0.0339854
-0.0316866
-0.0295374
-0.0275143
-0.0256442
-0.0239141
-0.0221617
-0.329385
-0.224201
-0.193634
-0.136157
-0.123682
-0.0973504
-0.0890605
-0.0763171
-0.0700202
-0.0628572
-0.0580207
-0.0532611
-0.049438
-0.0458444
-0.0426989
-0.0397626
-0.0370883
-0.0345846
-0.0322652
-0.0300899
-0.0280555
-0.0261411
-0.0243788
-0.0227439
-0.0210322
-0.333215
-0.219927
-0.1902
-0.131636
-0.119539
-0.0932476
-0.085221
-0.0726618
-0.0666053
-0.0596385
-0.0550129
-0.0504413
-0.046805
-0.0433836
-0.0404044
-0.0376232
-0.035097
-0.0327316
-0.0305436
-0.0284906
-0.02657
-0.024764
-0.0231097
-0.0215667
-0.0198858
-0.336899
-0.21555
-0.186608
-0.127028
-0.115317
-0.0890917
-0.0813423
-0.068979
-0.0631711
-0.0564086
-0.0519969
-0.0476165
-0.0441704
-0.0409216
-0.03811
-0.0354833
-0.0331062
-0.0308783
-0.0288207
-0.0268891
-0.0250815
-0.0233846
-0.021837
-0.0203676
-0.0187639
-0.340373
-0.211053
-0.182851
-0.122331
-0.111014
-0.084881
-0.0774242
-0.065269
-0.0597172
-0.0531659
-0.0489745
-0.0447854
-0.041535
-0.0384584
-0.035816
-0.0333433
-0.0311162
-0.029025
-0.0270969
-0.0252857
-0.0235906
-0.0220032
-0.0205578
-0.0191553
-0.017656
-0.343575
-0.206421
-0.178921
-0.117541
-0.106629
-0.0806145
-0.0734653
-0.0615315
-0.0562459
-0.0499046
-0.0459504
-0.0419473
-0.0388989
-0.0359948
-0.0335222
-0.0312056
-0.029125
-0.0271717
-0.0253724
-0.023681
-0.022098
-0.0206193
-0.0192713
-0.0179382
-0.0165506
-0.346447
-0.201639
-0.174812
-0.112656
-0.102163
-0.0762924
-0.0694653
-0.0577609
-0.0527648
-0.0466166
-0.0429285
-0.0391052
-0.0362597
-0.033533
-0.031228
-0.0290689
-0.0271343
-0.0253188
-0.0236478
-0.0220753
-0.0206042
-0.0192327
-0.0179788
-0.0167197
-0.0154414
-0.348931
-0.196692
-0.170515
-0.10767
-0.0976138
-0.0719148
-0.0654296
-0.0539441
-0.0492834
-0.0433046
-0.0399001
-0.036267
-0.0336152
-0.0310716
-0.0289343
-0.0269331
-0.0251449
-0.0234664
-0.0219233
-0.0204693
-0.0191094
-0.0178436
-0.0166821
-0.0155002
-0.0143263
-0.350974
-0.191565
-0.166026
-0.102581
-0.0929789
-0.0674755
-0.0613759
-0.0500708
-0.0457951
-0.0400011
-0.0368442
-0.0334289
-0.0309683
-0.02861
-0.0266418
-0.0247984
-0.0231569
-0.0216152
-0.0201995
-0.0188633
-0.017614
-0.0164526
-0.0153826
-0.0142791
-0.0132055
-0.352527
-0.186243
-0.161338
-0.0973854
-0.0882584
-0.0629531
-0.0573238
-0.0461618
-0.0422665
-0.0367064
-0.033774
-0.0305877
-0.0283205
-0.0261483
-0.0243508
-0.0226653
-0.0211708
-0.0197654
-0.0184767
-0.0172579
-0.0161185
-0.0150603
-0.0140813
-0.0130561
-0.0120798
-0.353542
-0.180713
-0.156447
-0.0920839
-0.0834668
-0.0583192
-0.0532573
-0.0422571
-0.0386918
-0.033409
-0.0306957
-0.0277423
-0.0256726
-0.0236871
-0.0220615
-0.0205342
-0.0191869
-0.0179176
-0.0167555
-0.0156534
-0.0146233
-0.0136676
-0.0127787
-0.0118312
-0.0109503
-0.353978
-0.174962
-0.151348
-0.0866668
-0.07864
-0.0535838
-0.0491226
-0.0383654
-0.0350858
-0.0301025
-0.0276124
-0.024893
-0.0230249
-0.0212267
-0.0197743
-0.0184056
-0.0172056
-0.0160723
-0.0150364
-0.0140505
-0.013129
-0.012275
-0.0114754
-0.0106047
-0.00981799
-0.353796
-0.168976
-0.146037
-0.0811016
-0.0738019
-0.048812
-0.0448833
-0.0344679
-0.0314574
-0.0267846
-0.024525
-0.0220403
-0.0203775
-0.0187679
-0.0174895
-0.0162799
-0.0152274
-0.0142299
-0.0133197
-0.0124496
-0.0116363
-0.0108832
-0.0101719
-0.00937693
-0.00868377
-0.352962
-0.162744
-0.140509
-0.0753418
-0.0688878
-0.0440695
-0.0405705
-0.030554
-0.0278117
-0.023455
-0.0214341
-0.0191853
-0.0177309
-0.0163112
-0.0152078
-0.0141577
-0.0132528
-0.0123909
-0.0116062
-0.0108513
-0.0101456
-0.00949268
-0.00886852
-0.00814864
-0.00754837
-0.351444
-0.156257
-0.134778
-0.069406
-0.0638844
-0.0393286
-0.0362015
-0.0266183
-0.0241512
-0.0201143
-0.0183399
-0.0163286
-0.0150855
-0.0138571
-0.0129295
-0.0120395
-0.0112823
-0.0105559
-0.00989621
-0.00925614
-0.00865755
-0.00810413
-0.00756599
-0.00692045
-0.00641246
-0.349218
-0.149509
-0.128874
-0.0634342
-0.0586641
-0.0345632
-0.0317867
-0.0226585
-0.0204775
-0.0167634
-0.0152428
-0.0134712
-0.0124417
-0.0114062
-0.0106553
-0.00992577
-0.00931637
-0.00872539
-0.00819041
-0.00766475
-0.00717285
-0.00671811
-0.00626491
-0.00569307
-0.00527668
-0.34626
-0.14249
-0.12281
-0.0573463
-0.0532975
-0.02976
-0.0273319
-0.0186744
-0.0167915
-0.0134037
-0.0121434
-0.0106139
-0.00980038
-0.00895914
-0.00838564
-0.00781716
-0.00735567
-0.00689998
-0.00648937
-0.00607774
-0.00569207
-0.00533522
-0.00496592
-0.00446723
-0.00414172
-0.342552
-0.135169
-0.116518
-0.0511986
-0.0478122
-0.0249125
-0.0228411
-0.0146665
-0.0130942
-0.0100362
-0.00904217
-0.00775756
-0.00716204
-0.00651659
-0.00612129
-0.00571424
-0.00540078
-0.00508023
-0.00479368
-0.00449573
-0.00421585
-0.0039561
-0.00366972
-0.00324368
-0.00300828
-0.33808
-0.127483
-0.109995
-0.0450247
-0.0422246
-0.0200179
-0.0183169
-0.010636
-0.00938623
-0.0066624
-0.00593989
-0.00490302
-0.00452749
-0.00407925
-0.00386286
-0.00361767
-0.0034523
-0.00326678
-0.00310397
-0.00291936
-0.00274483
-0.00258138
-0.00237703
-0.00202324
-0.00187714
-0.332835
-0.119408
-0.103301
-0.0387824
-0.0365434
-0.0150755
-0.0137613
-0.00658426
-0.00566868
-0.00328345
-0.00283742
-0.00205119
-0.0018975
-0.00164783
-0.00161105
-0.0015281
-0.00151087
-0.00146025
-0.00142089
-0.0013493
-0.00127968
-0.00121174
-0.00108859
-0.00080673
-0.000749156
-0.32681
-0.111109
-0.0963146
-0.0324554
-0.0307747
-0.0100854
-0.00917647
-0.00251297
-0.00194255
9.92702e-05
0.000264306
0.000797004
0.000727078
0.000776878
0.000633421
0.00055377
0.000422826
0.000338721
0.000254928
0.000213801
0.000178957
0.000152154
0.000194811
0.000404926
0.000374783
-0.320005
-0.10264
-0.0889979
-0.0260351
-0.0249235
-0.00504882
-0.00456407
0.00157606
0.00179098
0.00348442
0.00336424
0.00364057
0.00334536
0.00319407
0.0028698
0.00262723
0.00234812
0.00212945
0.0019228
0.00176925
0.00163038
0.00150959
0.00147234
0.00161076
0.0014939
-0.312422
-0.093932
-0.0814107
-0.0195178
-0.018994
3.24929e-05
7.39624e-05
0.00568092
0.00553061
0.00687058
0.00646126
0.00647848
0.00595642
0.00560291
0.00509729
0.00469155
0.00426431
0.00391127
0.00358206
0.00331637
0.00307392
0.00285984
0.00274312
0.00280978
0.00260755
-0.304089
-0.0849423
-0.0735777
-0.0129026
-0.0129902
0.0051564
0.00473567
0.00979958
0.0092749
0.0102563
0.00955419
0.00930966
0.00855928
0.0080025
0.00731509
0.00674596
0.00617067
0.00568347
0.00523201
0.00485446
0.00450887
0.00420217
0.00400627
0.00400095
0.003715
-0.29506
-0.0756165
-0.0655137
-0.00619063
-0.00691607
0.0103204
0.00941895
0.0139299
0.0130223
0.0136402
0.0126418
0.012133
0.0111529
0.0103919
0.00952235
0.00878967
0.00806646
0.00744535
0.00687195
0.00638281
0.00593454
0.00553588
0.00526095
0.00518326
0.00481499
-0.285355
-0.0659472
-0.0572299
0.00061532
-0.00077564
0.0155217
0.0141215
0.0180698
0.0167712
0.0170205
0.0157227
0.0149473
0.0137364
0.0127703
0.0117182
0.0108219
0.00995093
0.00919619
0.00850117
0.00790073
0.00735024
0.00686028
0.00650637
0.00635565
0.00590561
-0.274818
-0.0560895
-0.0487379
0.00751188
0.00542694
0.0207571
0.018841
0.0222169
0.0205197
0.0203958
0.0187956
0.0177514
0.0163084
0.0151365
0.0139018
0.0128418
0.0118233
0.0109353
0.010119
0.0094075
0.00875526
0.00817466
0.00774173
0.00751692
0.00698505
-0.26341
-0.0461186
-0.0400487
0.0144952
0.0116874
0.0260236
0.0235749
0.0263688
0.0242661
0.0237644
0.021859
0.020544
0.0188681
0.0174897
0.0160721
0.0148486
0.0136828
0.0126618
0.0117246
0.0109024
0.0101489
0.0094783
0.00896601
0.00866568
0.00805294
-0.251255
-0.0359588
-0.0311726
0.0215609
0.018001
0.0313174
0.0283204
0.0305231
0.0280083
0.0271244
0.0249114
0.0233238
0.0214141
0.0198288
0.0182284
0.0168413
0.0155287
0.0143752
0.0133174
0.0123848
0.0115305
0.0107705
0.0101781
0.00980037
0.0091102
-0.238386
-0.025596
-0.0221198
0.0287041
0.0243632
0.0366351
0.0330745
0.0346772
0.0317442
0.0304742
0.0279513
0.0260894
0.0239453
0.0221527
0.0203695
0.0188192
0.0173601
0.0160745
0.0148966
0.0138539
0.0128995
0.0120505
0.0113767
0.0109193
0.0101556
-0.22483
-0.0150308
-0.012901
0.0359193
0.030769
0.0419727
0.0378344
0.0388286
0.0354718
0.0338119
0.0309771
0.0288396
0.0264605
0.0244603
0.0224945
0.0207813
0.0191763
0.0177591
0.0164615
0.0153092
0.0142553
0.0133177
0.0125611
0.0120202
0.0111812
-0.210615
-0.0042679
-0.00352719
0.0432009
0.0372129
0.0473262
0.0425968
0.0429745
0.0391888
0.0371356
0.0339872
0.0315728
0.0289584
0.0267505
0.0246025
0.0227267
0.0209763
0.0194281
0.0180114
0.0167499
0.0155973
0.0145717
0.0137305
0.0131007
0.0121757
-0.195774
0.00668442
0.00599032
0.0505423
0.0436897
0.0526914
0.0473583
0.0471122
0.0428929
0.0404433
0.0369798
0.0342876
0.0314378
0.0290223
0.0266923
0.0246545
0.0227594
0.0210809
0.0195457
0.0181756
0.016925
0.0158119
0.0148844
0.0141597
0.0131402
-0.180337
0.0178159
0.0156397
0.0579371
0.0501935
0.0580639
0.0521156
0.0512387
0.0465817
0.0437331
0.0399534
0.0369826
0.0338973
0.0312744
0.0287631
0.0265638
0.0245248
0.0227167
0.0210636
0.0195855
0.0182374
0.0170373
0.0160225
0.0152008