/*--------------------------------*- C++ -*----------------------------------*\
  =========                 |
  \\      /  F ield         | OpenFOAM: The Open Source CFD Toolbox
   \\    /   O peration     | Website:  https://openfoam.org
    \\  /    A nd           | Version:  7
     \\/     M anipulation  |
\*---------------------------------------------------------------------------*/
FoamFile
{
    version     2.0;
    format      ascii;
    class       volScalarField;
    location    "9";
    object      T;
}
// * * * * * * * * * * * * * * * * * * * * * * * * * * * * * * * * * * * * * //

dimensions      [0 0 0 1 0 0 0];

internalField   nonuniform List<scalar> 
2413
(
1.05629
1.05636
1.05622
1.05593
1.05544
1.05533
1.0551
1.05478
1.05547
1.05656
1.05714
1.05781
1.05942
1.06155
1.06402
1.06696
1.0695
1.07112
1.07248
1.07342
1.07391
1.07402
1.07357
1.07259
1.07154
1.07061
1.06995
1.06942
1.06873
1.06785
1.06687
1.06594
1.06555
1.06559
1.06583
1.06587
1.06563
1.06507
1.0644
1.06383
1.06357
1.06372
1.06415
1.0644
1.06456
1.06496
1.06554
1.06626
1.06633
1.06623
1.06619
1.06576
1.06501
1.06412
1.06294
1.06166
1.06023
1.05867
1.05698
1.0552
1.05341
1.05149
1.0493
1.04706
1.04476
0.935538
0.936875
0.938395
0.940333
0.943074
0.947095
0.952703
0.960353
0.97029
0.981191
0.993039
1.00506
1.01684
1.02558
1.03241
1.03902
1.04604
1.04867
1.04953
1.0508
1.05295
1.05542
1.05612
1.05648
1.05722
1.05835
1.05964
1.061
1.06212
1.0626
1.06263
1.06281
1.06309
1.06327
1.06389
1.06497
1.06623
1.06829
1.07106
1.07397
1.07595
1.07718
1.07789
1.07836
1.0788
1.07891
1.07846
1.07728
1.07575
1.07427
1.07321
1.07266
1.07219
1.07149
1.07058
1.06962
1.06855
1.06771
1.0675
1.06753
1.06754
1.06739
1.06712
1.06691
1.06669
1.06662
1.06691
1.0674
1.06825
1.06919
1.07016
1.07036
1.07032
1.06991
1.06934
1.06883
1.06804
1.06689
1.06559
1.0642
1.06265
1.06105
1.0593
1.05738
1.05536
1.05319
1.05095
1.04874
0.935088
0.936283
0.937452
0.938551
0.93955
0.940592
0.94187
0.943697
0.946507
0.950719
0.956779
0.964805
0.974382
0.985835
0.998039
1.00916
1.01916
1.02768
1.03734
1.04229
1.04553
1.04896
1.05311
1.05557
1.05635
1.05741
1.05899
1.06096
1.06327
1.0658
1.06741
1.06827
1.06906
1.06987
1.0707
1.07167
1.07269
1.07409
1.07623
1.07864
1.08088
1.0824
1.0832
1.08325
1.08299
1.08322
1.08339
1.08294
1.08186
1.08035
1.0786
1.07698
1.07585
1.07525
1.07483
1.07418
1.07319
1.07215
1.07117
1.07009
1.06944
1.06935
1.06962
1.0699
1.07009
1.07029
1.07032
1.07055
1.07133
1.07236
1.07371
1.07423
1.07428
1.07398
1.07347
1.07289
1.07201
1.0708
1.06956
1.06823
1.0667
1.06516
1.06349
1.06161
1.05958
1.05742
1.05507
1.05274
0.934766
0.935933
0.937127
0.938276
0.939267
0.940176
0.941009
0.941757
0.942472
0.943314
0.944525
0.946417
0.949382
0.953906
0.960242
0.96859
0.979017
0.989832
1.00133
1.01256
1.02349
1.03166
1.03778
1.04352
1.05023
1.05386
1.05542
1.05752
1.06065
1.06407
1.06671
1.06915
1.07084
1.07274
1.07484
1.07786
1.07985
1.08154
1.08331
1.08513
1.08656
1.08776
1.08878
1.0893
1.08915
1.08804
1.08704
1.08687
1.08669
1.08603
1.08484
1.08326
1.08156
1.07987
1.07844
1.0775
1.07693
1.0764
1.0756
1.07458
1.07365
1.07283
1.07212
1.07192
1.0723
1.07309
1.07364
1.07426
1.07501
1.07607
1.07748
1.07802
1.07797
1.0778
1.07753
1.07701
1.07615
1.07503
1.07378
1.07234
1.07072
1.06916
1.06753
1.06574
1.06384
1.06179
1.05954
1.05714
0.934695
0.935928
0.937126
0.938365
0.939372
0.94019
0.940986
0.941666
0.942205
0.942773
0.943396
0.94409
0.944848
0.945773
0.947056
0.94908
0.952312
0.957172
0.963994
0.972785
0.982722
0.994176
1.0059
1.01657
1.02613
1.03434
1.04371
1.04975
1.05379
1.05805
1.06285
1.06796
1.07103
1.07276
1.07494
1.07752
1.08151
1.08612
1.08956
1.09191
1.09408
1.09477
1.09482
1.09536
1.09542
1.09464
1.0933
1.09159
1.09025
1.08976
1.08946
1.0888
1.08764
1.08606
1.08433
1.08267
1.08104
1.07963
1.0787
1.0782
1.07773
1.07704
1.07629
1.07586
1.07563
1.07554
1.07594
1.07694
1.07811
1.07952
1.08142
1.08224
1.08219
1.08176
1.08142
1.08098
1.08022
1.07922
1.07808
1.07673
1.07517
1.07356
1.07185
1.06999
1.06809
1.06612
1.06399
1.06171
0.93471
0.936138
0.937357
0.938565
0.939637
0.940389
0.941077
0.941738
0.942303
0.942814
0.943354
0.943946
0.944589
0.945197
0.945782
0.946447
0.947266
0.948317
0.949857
0.952231
0.95581
0.961043
0.967996
0.976758
0.98766
0.99871
1.01026
1.02153
1.03311
1.04274
1.04919
1.05614
1.06345
1.07022
1.07283
1.07477
1.07836
1.08355
1.08997
1.09535
1.09989
1.10175
1.10266
1.10241
1.10184
1.10101
1.0997
1.09808
1.0965
1.09482
1.0932
1.09226
1.09168
1.09103
1.09
1.08856
1.08683
1.08509
1.08352
1.08194
1.08049
1.07973
1.07958
1.07957
1.07948
1.07954
1.0797
1.08006
1.0809
1.08217
1.08418
1.0858
1.08607
1.08605
1.08579
1.08515
1.08422
1.08328
1.0822
1.08094
1.07954
1.07806
1.07641
1.07456
1.07263
1.07059
1.06841
1.06617
0.934769
0.936276
0.937662
0.939049
0.940289
0.941366
0.9422
0.942796
0.943259
0.943646
0.943992
0.944382
0.944809
0.945227
0.945733
0.94635
0.947064
0.947885
0.948744
0.949622
0.950592
0.951842
0.953562
0.956123
0.96001
0.965485
0.973058
0.982795
0.993665
1.00611
1.01917
1.03214
1.04226
1.05152
1.06087
1.06964
1.07385
1.07809
1.08474
1.09297
1.10016
1.10561
1.10886
1.10966
1.10935
1.10833
1.1064
1.10429
1.10273
1.10101
1.09934
1.09779
1.09614
1.09456
1.09344
1.09263
1.09172
1.09049
1.08893
1.08718
1.08558
1.08418
1.08276
1.08192
1.08198
1.08264
1.08321
1.08382
1.08454
1.08575
1.08748
1.08883
1.08928
1.08934
1.08936
1.0892
1.08861
1.0877
1.08649
1.08507
1.08367
1.0823
1.08084
1.07918
1.07736
1.07535
1.07315
1.07087
0.934728
0.936227
0.937678
0.939346
0.940871
0.94219
0.94335
0.944067
0.944448
0.944641
0.944749
0.944945
0.945248
0.945663
0.946171
0.946738
0.947369
0.948038
0.948739
0.949465
0.950275
0.951169
0.952111
0.953127
0.954301
0.955774
0.957844
0.960962
0.965469
0.972085
0.980662
0.991402
1.0044
1.01742
1.03034
1.04233
1.05464
1.06584
1.07327
1.08207
1.093
1.10334
1.10982
1.11427
1.11606
1.11553
1.11402
1.11176
1.10933
1.10682
1.10507
1.10348
1.10183
1.10025
1.09867
1.0969
1.09512
1.09378
1.09272
1.09163
1.09044
1.08909
1.08762
1.08653
1.08583
1.0853
1.08544
1.08644
1.08756
1.08903
1.09099
1.09256
1.09298
1.09295
1.09267
1.09228
1.09206
1.09162
1.09075
1.08954
1.08812
1.08657
1.08496
1.08338
1.08179
1.08002
1.07801
1.0758
0.935084
0.936449
0.937886
0.939533
0.941253
0.942711
0.944168
0.945385
0.946232
0.946568
0.946706
0.946792
0.946883
0.947037
0.947219
0.947461
0.947845
0.948337
0.948922
0.9496
0.950348
0.951175
0.952062
0.953003
0.954057
0.955215
0.956472
0.957886
0.959536
0.96163
0.964391
0.968278
0.973848
0.981063
0.991013
1.00271
1.01571
1.02992
1.0446
1.06075
1.0736
1.08756
1.10191
1.11245
1.11734
1.11953
1.1202
1.1192
1.1169
1.11402
1.11131
1.10871
1.1067
1.10533
1.1038
1.10208
1.10034
1.0986
1.09676
1.09502
1.09361
1.09249
1.09161
1.09094
1.09028
1.08976
1.08952
1.08955
1.09023
1.09155
1.09361
1.09569
1.09646
1.0966
1.09657
1.09611
1.09542
1.09476
1.09402
1.09325
1.09226
1.09096
1.0894
1.08769
1.08598
1.08426
1.08248
1.08058
0.936615
0.937431
0.938493
0.939762
0.941346
0.942824
0.944358
0.94601
0.947258
0.948185
0.948597
0.948775
0.948832
0.948875
0.948916
0.949007
0.949236
0.94957
0.949981
0.950492
0.95108
0.951734
0.952473
0.953284
0.954205
0.955256
0.956396
0.957658
0.959154
0.960822
0.962615
0.964553
0.966632
0.968968
0.971941
0.976066
0.982013
0.990865
1.00177
1.01653
1.0343
1.05543
1.0756
1.09324
1.10795
1.11744
1.12087
1.12193
1.1215
1.12048
1.11872
1.11604
1.1129
1.11008
1.1075
1.10587
1.10465
1.10322
1.10158
1.09987
1.09813
1.09637
1.09479
1.09381
1.09343
1.09345
1.09357
1.09376
1.09403
1.09504
1.09692
1.09866
1.0993
1.0995
1.09971
1.09973
1.09937
1.09863
1.09745
1.09637
1.09549
1.09454
1.09341
1.09202
1.09038
1.08857
1.0867
1.08487
0.9387
0.938931
0.93958
0.940485
0.941697
0.943117
0.944627
0.946284
0.947844
0.949183
0.9502
0.950911
0.951154
0.95121
0.951185
0.951183
0.951233
0.951268
0.951344
0.951639
0.952074
0.952536
0.953089
0.95378
0.95459
0.955529
0.956602
0.957824
0.959234
0.960835
0.962569
0.96442
0.966356
0.968204
0.969906
0.971502
0.97314
0.975301
0.978453
0.983944
0.992699
1.00632
1.02701
1.05189
1.07808
1.09623
1.10905
1.11719
1.12108
1.12213
1.12207
1.12125
1.11945
1.11693
1.11389
1.11104
1.10848
1.10616
1.10481
1.10372
1.1024
1.10092
1.0994
1.09803
1.09694
1.09618
1.09621
1.09693
1.09762
1.09866
1.10066
1.1026
1.10308
1.10308
1.10268
1.10241
1.10242
1.10213
1.10131
1.10021
1.09899
1.09769
1.09659
1.09554
1.0943
1.09279
1.09105
1.08916
0.942399
0.942214
0.94232
0.942569
0.943129
0.944057
0.945226
0.946615
0.948095
0.949544
0.950871
0.951994
0.952848
0.953178
0.953359
0.953456
0.953524
0.953519
0.953507
0.953723
0.953975
0.954226
0.954605
0.955172
0.955838
0.956618
0.957547
0.958624
0.959889
0.96135
0.962964
0.964692
0.966497
0.968263
0.969881
0.971336
0.97268
0.973954
0.975245
0.976768
0.978902
0.982548
0.989818
1.00231
1.02377
1.05039
1.07814
1.09597
1.10739
1.11464
1.11945
1.12122
1.12132
1.12087
1.11947
1.11729
1.1146
1.11171
1.10917
1.10676
1.10485
1.10383
1.10298
1.10202
1.10112
1.1004
1.0999
1.09977
1.10029
1.10145
1.10365
1.10621
1.10699
1.10709
1.10691
1.10625
1.10546
1.10486
1.10428
1.10361
1.10268
1.10144
1.10007
1.09878
1.09752
1.09621
1.0948
1.09318
0.946836
0.945755
0.945277
0.944994
0.945021
0.945482
0.946264
0.947251
0.948537
0.949958
0.951381
0.952708
0.953934
0.954747
0.955365
0.955708
0.955882
0.95598
0.956053
0.956186
0.956294
0.956314
0.956518
0.956943
0.957412
0.957987
0.958732
0.959637
0.960737
0.962057
0.963584
0.965235
0.966953
0.968636
0.97018
0.971574
0.972857
0.974044
0.975215
0.976469
0.977898
0.979647
0.98193
0.985057
0.991361
1.00297
1.02249
1.04762
1.07363
1.09444
1.10491
1.11225
1.11649
1.11954
1.11984
1.11975
1.11894
1.11726
1.11496
1.11227
1.10971
1.10741
1.10523
1.1041
1.10381
1.10366
1.10354
1.1037
1.10379
1.10464
1.10651
1.10903
1.11037
1.11062
1.11073
1.11043
1.10964
1.10863
1.10748
1.10658
1.10577
1.10476
1.10357
1.10225
1.10083
1.09943
1.0981
1.09671
0.952377
0.950703
0.94988
0.948943
0.948417
0.94858
0.948694
0.949061
0.949832
0.950901
0.952112
0.953295
0.954515
0.95565
0.956534
0.957231
0.957771
0.958075
0.958292
0.958515
0.958666
0.958717
0.958979
0.959287
0.95957
0.96003
0.960678
0.961471
0.962455
0.963661
0.965084
0.966639
0.968244
0.969824
0.971271
0.972553
0.973714
0.974742
0.975745
0.976837
0.978155
0.979806
0.98187
0.984239
0.986723
0.989417
0.994089
1.00373
1.02001
1.04345
1.06775
1.09176
1.10347
1.11029
1.11418
1.11686
1.11816
1.11825
1.1179
1.11676
1.11493
1.11264
1.11022
1.10809
1.1063
1.10522
1.10538
1.1062
1.10681
1.10778
1.1097
1.11222
1.114
1.11425
1.11411
1.11398
1.11358
1.11278
1.11155
1.11028
1.10914
1.10801
1.10687
1.10563
1.10416
1.10258
1.10116
1.09986
0.958166
0.956021
0.9548
0.953587
0.952271
0.951745
0.95143
0.951302
0.951525
0.95216
0.953043
0.954045
0.955195
0.956424
0.957501
0.95844
0.959289
0.959908
0.960372
0.960764
0.96103
0.961251
0.961544
0.961775
0.961997
0.962422
0.962941
0.9636
0.964473
0.965564
0.966857
0.968317
0.969839
0.971302
0.972638
0.973801
0.974822
0.975703
0.976572
0.977606
0.978905
0.980554
0.982446
0.984633
0.986931
0.988845
0.990316
0.991805
0.994897
1.00294
1.01742
1.03979
1.06319
1.08596
1.10236
1.108
1.11181
1.11407
1.11579
1.11629
1.11641
1.11592
1.11472
1.11295
1.11095
1.10915
1.10806
1.10773
1.10821
1.10956
1.11193
1.11494
1.11732
1.1182
1.11799
1.11753
1.11716
1.11664
1.11571
1.11444
1.11303
1.11157
1.1103
1.10909
1.10769
1.10607
1.10438
1.10278
0.964344
0.96192
0.960369
0.95904
0.957197
0.956205
0.955524
0.954705
0.954618
0.954855
0.955197
0.95572
0.956499
0.957491
0.9585
0.959416
0.960342
0.961211
0.961883
0.962467
0.962968
0.963381
0.963764
0.96407
0.964422
0.964878
0.965325
0.965917
0.966743
0.967775
0.969014
0.970447
0.971964
0.973437
0.974717
0.975819
0.976865
0.97774
0.978524
0.979443
0.980551
0.981919
0.983539
0.985449
0.987563
0.989214
0.990395
0.991404
0.992317
0.993509
0.996073
1.00268
1.01574
1.03566
1.05873
1.07905
1.09837
1.10657
1.10959
1.11177
1.11332
1.11443
1.11488
1.11489
1.11433
1.11327
1.11209
1.11126
1.11085
1.11129
1.11298
1.11608
1.11969
1.12152
1.12178
1.12149
1.1208
1.12025
1.1196
1.11858
1.11719
1.11552
1.11394
1.11263
1.11132
1.10986
1.10823
1.10642
0.97049
0.967994
0.966139
0.964702
0.962572
0.961065
0.9601
0.958762
0.958014
0.957778
0.957657
0.95767
0.958042
0.95875
0.959559
0.96042
0.961357
0.962334
0.963189
0.963946
0.964671
0.965314
0.965845
0.966308
0.966817
0.967323
0.967761
0.968348
0.969146
0.97011
0.971291
0.972702
0.974232
0.97574
0.97698
0.97807
0.979213
0.98003
0.980734
0.981619
0.982646
0.98394
0.985486
0.987301
0.989357
0.990797
0.991368
0.991849
0.992456
0.993263
0.994044
0.99503
0.997076
1.00231
1.01377
1.03099
1.05347
1.07296
1.0909
1.10418
1.10771
1.10961
1.11109
1.11233
1.11322
1.11393
1.11414
1.11415
1.11406
1.11406
1.11506
1.11757
1.12078
1.1237
1.12485
1.12505
1.12466
1.12381
1.12319
1.12246
1.12133
1.11977
1.11796
1.11627
1.11486
1.11355
1.11217
1.11058
0.976491
0.974157
0.971967
0.970491
0.968427
0.966393
0.965251
0.963777
0.962299
0.961741
0.961171
0.960628
0.960776
0.961124
0.961511
0.962049
0.962771
0.963629
0.964471
0.965234
0.966031
0.966837
0.967528
0.96818
0.968833
0.969399
0.969941
0.970616
0.971439
0.972379
0.973534
0.974933
0.976464
0.977963
0.979233
0.98044
0.981673
0.982453
0.983241
0.984151
0.985085
0.986316
0.987773
0.989451
0.991412
0.99252
0.992843
0.992937
0.993128
0.993606
0.994185
0.994904
0.995785
0.996819
0.998594
1.00258
1.01167
1.02645
1.04654
1.0667
1.08332
1.09922
1.10613
1.10767
1.10911
1.11051
1.11196
1.11353
1.11496
1.11598
1.11714
1.11913
1.12216
1.12512
1.12722
1.12791
1.12799
1.12738
1.12639
1.12581
1.1251
1.124
1.1225
1.1207
1.11876
1.11702
1.11561
1.1143
0.98218
0.980196
0.977832
0.976136
0.974306
0.972037
0.970537
0.96908
0.967158
0.966108
0.965261
0.964147
0.963767
0.963737
0.963771
0.96387
0.964274
0.964943
0.965705
0.966471
0.967292
0.968175
0.969013
0.969811
0.970583
0.971293
0.971998
0.972815
0.973705
0.974668
0.975834
0.977237
0.978753
0.980191
0.981509
0.982892
0.98405
0.984815
0.985751
0.986686
0.98763
0.988961
0.990485
0.992167
0.994182
0.995173
0.995377
0.99527
0.995242
0.995481
0.995598
0.995902
0.996442
0.997055
0.997736
0.998441
0.999438
1.00218
1.00906
1.02185
1.03945
1.05986
1.07675
1.0923
1.10342
1.10584
1.10703
1.10905
1.11158
1.11466
1.11749
1.12003
1.1229
1.12626
1.12901
1.1305
1.13091
1.1308
1.12989
1.12867
1.12804
1.12745
1.12657
1.12533
1.12368
1.12169
1.11959
1.11774
0.987494
0.985754
0.983678
0.981653
0.979953
0.977867
0.975929
0.974449
0.972583
0.970903
0.969894
0.96865
0.967497
0.967153
0.966827
0.966516
0.966643
0.9671
0.967635
0.968162
0.968808
0.969613
0.97046
0.971278
0.97212
0.972968
0.973821
0.974761
0.975722
0.97675
0.97797
0.979411
0.980908
0.982308
0.983705
0.985203
0.986276
0.987134
0.988193
0.989123
0.990084
0.991439
0.993014
0.994699
0.996693
0.997813
0.99799
0.997876
0.997745
0.997806
0.99766
0.99761
0.997729
0.99776
0.997991
0.998415
0.99894
0.999449
1.00028
1.00231
1.00736
1.01764
1.03296
1.05183
1.06954
1.08513
1.09899
1.10315
1.10516
1.10856
1.11358
1.11886
1.12276
1.12615
1.12992
1.1325
1.13366
1.13387
1.13366
1.13265
1.13104
1.12988
1.1294
1.1289
1.12798
1.12654
1.12466
1.12258
0.992356
0.990647
0.989004
0.987094
0.985207
0.98349
0.98149
0.979671
0.978082
0.97616
0.974648
0.973461
0.971941
0.970971
0.970413
0.969607
0.969356
0.969484
0.969654
0.96985
0.970301
0.970986
0.971813
0.972666
0.973572
0.974537
0.975519
0.976534
0.977569
0.978699
0.980012
0.981518
0.983019
0.98444
0.985917
0.987432
0.988519
0.989486
0.990634
0.991601
0.992604
0.993972
0.995593
0.997296
0.999197
1.00053
1.00078
1.00072
1.0006
1.00064
1.00053
1.00029
1.00028
1.00008
0.999877
0.999854
0.999752
0.999907
1.00027
1.00054
1.001
1.00224
1.00577
1.01363
1.02661
1.0436
1.06163
1.07869
1.09301
1.09889
1.10399
1.11129
1.11959
1.12482
1.12864
1.13302
1.13566
1.1368
1.13708
1.13665
1.13544
1.13378
1.13216
1.13109
1.13051
1.12995
1.12896
1.1274
0.996164
0.994845
0.993424
0.991988
0.990185
0.988523
0.986902
0.984884
0.983253
0.981638
0.979668
0.978334
0.976937
0.975265
0.97444
0.973596
0.972728
0.972489
0.972409
0.972341
0.97244
0.972857
0.973522
0.974281
0.975115
0.976063
0.977074
0.978115
0.979237
0.980493
0.981923
0.983535
0.985145
0.986664
0.988209
0.989774
0.990868
0.991828
0.992972
0.99396
0.994959
0.996311
0.997944
0.999651
1.00146
1.00295
1.00337
1.00334
1.00331
1.00334
1.00323
1.00304
1.00298
1.00281
1.00241
1.0021
1.00159
1.00111
1.00088
1.00071
1.00084
1.00131
1.00186
1.00278
1.00518
1.01092
1.02112
1.03591
1.05301
1.07141
1.08526
1.09494
1.10528
1.11771
1.12617
1.13098
1.13517
1.13925
1.14028
1.14046
1.13969
1.13828
1.13661
1.13509
1.1337
1.1324
1.13128
1.13035
0.998552
0.997829
0.996845
0.995785
0.994514
0.992982
0.991619
0.98995
0.988153
0.986752
0.984918
0.983146
0.981894
0.98025
0.978817
0.977873
0.976683
0.975806
0.975417
0.975104
0.975008
0.975137
0.975516
0.976035
0.976658
0.97745
0.978386
0.979415
0.980591
0.981961
0.983531
0.985279
0.987108
0.98885
0.990504
0.992212
0.993379
0.99431
0.995419
0.996413
0.997352
0.998632
1.00022
1.0019
1.00363
1.0052
1.00582
1.00594
1.006
1.00608
1.00601
1.00587
1.00585
1.00571
1.00537
1.00501
1.00449
1.00371
1.00318
1.00267
1.00216
1.00216
1.00229
1.00257
1.00291
1.00344
1.00479
1.00853
1.01603
1.02855
1.04427
1.06271
1.07844
1.09361
1.10953
1.12483
1.1325
1.13713
1.14154
1.14366
1.14342
1.1426
1.14123
1.13961
1.13792
1.1364
1.13497
1.13345
0.999667
0.999386
0.998953
0.998338
0.99759
0.996577
0.995456
0.994254
0.992708
0.99131
0.989864
0.988084
0.986663
0.985177
0.983508
0.982292
0.98115
0.979951
0.979017
0.97846
0.977953
0.977785
0.977913
0.978163
0.978613
0.979243
0.980058
0.981031
0.982174
0.983523
0.985109
0.986916
0.988918
0.990915
0.992734
0.99457
0.995856
0.996816
0.997955
0.999086
1.00004
1.00125
1.00274
1.0043
1.00587
1.00732
1.00803
1.00823
1.00841
1.00856
1.00854
1.00846
1.00849
1.00839
1.00814
1.00785
1.00735
1.00664
1.00602
1.00543
1.00461
1.00401
1.00361
1.00316
1.00301
1.00317
1.00351
1.00399
1.0049
1.00738
1.01257
1.02207
1.03615
1.05434
1.07427
1.09452
1.11575
1.13176
1.13884
1.14278
1.14564
1.14589
1.14507
1.14341
1.14185
1.14049
1.13895
1.13722
0.999974
0.99992
0.999811
0.99961
0.999294
0.998832
0.998176
0.997398
0.996404
0.995243
0.994061
0.992627
0.991223
0.989841
0.988315
0.986917
0.98553
0.984317
0.983195
0.982193
0.981504
0.980913
0.980691
0.980762
0.980814
0.981063
0.98165
0.982514
0.983609
0.984948
0.986555
0.98845
0.990608
0.992843
0.994913
0.996836
0.998159
0.999172
1.00034
1.00164
1.0027
1.00392
1.00542
1.00687
1.00827
1.00955
1.01025
1.01046
1.01062
1.01088
1.01092
1.01089
1.011
1.01097
1.0108
1.01058
1.01018
1.00956
1.00906
1.00853
1.00777
1.00699
1.00639
1.0056
1.00488
1.00457
1.00429
1.00429
1.00462
1.00496
1.00536
1.00654
1.00985
1.01691
1.02991
1.04867
1.07374
1.09816
1.12189
1.13834
1.14397
1.14724
1.14831
1.14761
1.14587
1.14355
1.14175
1.14031
1.00001
1.00001
1.00001
0.99998
0.999919
0.999797
0.99958
0.999242
0.998758
0.998099
0.997301
0.996313
0.995204
0.994039
0.992656
0.99142
0.990102
0.988667
0.987548
0.986375
0.985356
0.984546
0.983841
0.983602
0.983609
0.983663
0.983934
0.98453
0.985361
0.986469
0.987905
0.989725
0.99194
0.99438
0.996789
0.998975
1.00056
1.00178
1.00306
1.00451
1.00561
1.0068
1.00833
1.0096
1.01078
1.0119
1.01257
1.01279
1.01287
1.01318
1.0133
1.01332
1.01346
1.01343
1.01327
1.01306
1.01269
1.01214
1.01176
1.01135
1.0107
1.01006
1.00943
1.00867
1.00773
1.00702
1.00634
1.00565
1.00533
1.00508
1.0051
1.00536
1.00575
1.00648
1.00859
1.01395
1.02658
1.04697
1.07646
1.10396
1.12711
1.14283
1.14795
1.1503
1.1499
1.14862
1.1466
1.14373
1.00001
1.00002
1.00002
1.00003
1.00003
1.00003
1.00001
0.999945
0.999819
0.999597
0.999259
0.998771
0.998109
0.99736
0.996377
0.9953
0.99426
0.99296
0.991802
0.990646
0.989433
0.988564
0.987677
0.986864
0.986541
0.986391
0.986459
0.986836
0.987479
0.988344
0.98952
0.99113
0.993238
0.99566
0.998187
1.00057
1.00252
1.00409
1.00566
1.00734
1.00854
1.00985
1.0114
1.01251
1.01341
1.01428
1.01484
1.01505
1.01505
1.01542
1.01568
1.01573
1.01587
1.01587
1.01566
1.01542
1.01505
1.01451
1.01421
1.01391
1.01337
1.01287
1.0124
1.01173
1.01095
1.01019
1.00942
1.00842
1.00758
1.00692
1.00635
1.00606
1.00605
1.00616
1.00638
1.00692
1.00856
1.01325
1.02632
1.04941
1.08204
1.11054
1.13177
1.14529
1.14995
1.15167
1.15111
1.14916
1.00001
1.00001
1.00002
1.00003
1.00004
1.00005
1.00006
1.00007
1.00008
1.00006
1.00001
0.999896
0.999689
0.999365
0.998911
0.998263
0.997552
0.99665
0.995626
0.99472
0.993533
0.992473
0.991629
0.990644
0.990077
0.989657
0.989396
0.989504
0.989787
0.990344
0.991243
0.992637
0.994636
0.99707
0.999695
1.00227
1.00451
1.00641
1.00829
1.00994
1.0113
1.01292
1.01432
1.01554
1.01645
1.017
1.01743
1.01757
1.01751
1.0179
1.01819
1.0182
1.01832
1.01833
1.01809
1.0178
1.01739
1.01682
1.01653
1.01626
)
;

boundaryField
{
    inlet
    {
        type            fixedValue;
        value           nonuniform 0();
    }
    outlet
    {
        type            inletOutlet;
        inletValue      nonuniform 0();
        value           nonuniform 0();
    }
    bottom
    {
        type            symmetryPlane;
    }
    top
    {
        type            symmetryPlane;
    }
    obstacle
    {
        type            zeroGradient;
    }
    front
    {
        type            empty;
    }
    back
    {
        type            empty;
    }
    procBoundary28to13
    {
        type            processor;
        value           nonuniform List<scalar> 
16
(
1.04213
1.04625
1.05031
1.05464
1.05931
1.06383
1.06854
1.07343
1.07845
1.083
1.08723
1.09138
1.09514
1.09856
1.10145
1.10459
)
;
    }
    procBoundary28to20
    {
        type            processor;
        value           nonuniform List<scalar> 
89
(
1.05122
1.05032
1.04971
1.04894
1.04845
1.04854
1.04843
1.04894
1.0503
1.05129
1.05199
1.05328
1.05521
1.05757
1.06018
1.06285
1.06493
1.06668
1.06814
1.0688
1.06895
1.06864
1.06795
1.06732
1.06685
1.0664
1.06582
1.06509
1.06432
1.06361
1.06339
1.06359
1.0639
1.06402
1.06391
1.0635
1.06285
1.06208
1.06158
1.06151
1.06157
1.06162
1.0616
1.06132
1.06111
1.06141
1.06193
1.06245
1.06263
1.06273
1.0626
1.06186
1.061
1.06018
1.05907
1.05766
1.05611
1.05464
1.05303
1.05126
1.04949
1.04748
1.04518
1.04303
1.04086
0.938436
0.942016
0.947248
0.95459
0.963856
0.975352
0.988012
1.00007
1.01152
1.02176
1.03247
1.038
1.04222
1.04595
1.0504
1.0527
1.05315
1.05353
1.0541
1.05479
1.05567
1.05604
1.05626
1.05626
)
;
    }
    procBoundary28to21
    {
        type            processor;
        value           nonuniform List<scalar> 
11
(
1.10877
1.11284
1.11612
1.1204
1.12538
1.12925
1.13185
1.13554
1.139
1.14123
1.14661
)
;
    }
    procBoundary28to27
    {
        type            processor;
        value           nonuniform List<scalar> 
26
(
0.934237
0.933803
0.933429
0.933193
0.933054
0.933157
0.933332
0.934021
0.936211
0.938889
0.943381
0.948159
0.953929
0.959932
0.966114
0.972218
0.978172
0.98397
0.989401
0.993946
0.997195
0.999102
0.999841
0.999997
1.00001
1.00001
)
;
    }
    procBoundary28to35
    {
        type            processor;
        value           uniform 1.00001;
    }
    procBoundary28to36
    {
        type            processor;
        value           nonuniform List<scalar> 
89
(
1.01577
1.01531
1.01494
1.01439
1.0137
1.01312
1.01242
1.01151
1.01058
1.00974
1.00884
1.00786
1.00735
1.00688
1.00674
1.00679
1.00704
1.00749
1.00898
1.01404
1.02863
1.05516
1.08945
1.11796
1.13497
1.14566
1.15037
1.15178
1.00001
1.00001
1.00002
1.00002
1.00003
1.00004
1.00005
1.00007
1.00009
1.00012
1.00014
1.00016
1.00017
1.00014
1.00005
0.999883
0.999594
0.999189
0.998601
0.997942
0.997178
0.996233
0.995451
0.994509
0.993639
0.993127
0.992623
0.992608
0.992746
0.992873
0.993343
0.994371
0.996094
0.998384
1.001
1.0037
1.00625
1.00858
1.01073
1.01243
1.0141
1.01586
1.01717
1.01848
1.01931
1.01967
1.02007
1.0202
1.02014
1.02047
1.02074
1.0207
1.02076
1.02075
1.02044
1.02009
1.01967
1.01908
1.01877
1.01577
1.01852
)
;
    }
}


// ************************************************************************* //
