/*--------------------------------*- C++ -*----------------------------------*\
  =========                 |
  \\      /  F ield         | OpenFOAM: The Open Source CFD Toolbox
   \\    /   O peration     | Website:  https://openfoam.org
    \\  /    A nd           | Version:  7
     \\/     M anipulation  |
\*---------------------------------------------------------------------------*/
FoamFile
{
    version     2.0;
    format      ascii;
    class       volScalarField;
    location    "16.5";
    object      T;
}
// * * * * * * * * * * * * * * * * * * * * * * * * * * * * * * * * * * * * * //

dimensions      [0 0 0 1 0 0 0];

internalField   nonuniform List<scalar> 
2413
(
0.892625
0.889641
0.885351
0.880949
0.878692
0.876425
0.873364
0.869513
0.89863
0.895597
0.891239
0.886844
0.884509
0.882165
0.879153
0.874849
0.904377
0.901332
0.896914
0.892565
0.890248
0.887896
0.884841
0.880491
0.909689
0.906665
0.902335
0.898032
0.895672
0.89335
0.890323
0.886146
0.914964
0.912044
0.907761
0.903584
0.901328
0.89905
0.896078
0.891908
0.920133
0.917305
0.913183
0.909029
0.906819
0.904597
0.901677
0.897733
0.925331
0.922685
0.918718
0.91462
0.912524
0.910405
0.907519
0.903706
0.930645
0.928167
0.924415
0.920245
0.918173
0.916151
0.913312
0.909637
0.935924
0.933696
0.930238
0.925962
0.923859
0.921986
0.919197
0.915665
0.941196
0.939212
0.936186
0.93183
0.929439
0.927716
0.925049
0.921505
0.946284
0.944481
0.942018
0.937895
0.934941
0.933296
0.930919
0.927205
0.951613
0.949457
0.947516
0.944112
0.94045
0.93864
0.936605
0.932969
0.957629
0.954336
0.952586
0.950093
0.946207
0.943835
0.94199
0.938837
0.963659
0.959626
0.95733
0.95548
0.952129
0.948973
0.947113
0.944536
0.96907
0.965423
0.962102
0.96041
0.957879
0.954249
0.952099
0.949985
0.974043
0.971028
0.967276
0.965199
0.963175
0.959727
0.957055
0.955231
0.978841
0.976191
0.97279
0.970116
0.968164
0.965245
0.962072
0.960357
0.983844
0.980956
0.978253
0.975306
0.97307
0.970613
0.967307
0.965467
0.989175
0.985596
0.983277
0.980744
0.978097
0.975827
0.972816
0.970648
0.996694
0.995018
0.993407
0.991963
0.99054
0.989409
0.989471
0.990399
0.992398
0.99501
0.998641
1.00538
1.01226
1.01605
1.01944
1.02149
1.02033
1.0166
1.01158
0.866559
0.864537
0.862314
0.862712
0.886561
1.02291
1.21757
1.33181
1.36682
1.36956
1.36428
1.35078
1.3239
1.29366
1.27196
1.24545
1.22555
1.21205
1.20184
1.19371
1.18613
1.17785
1.16856
1.15952
1.15055
1.14101
1.13197
1.12315
1.11379
1.10467
1.09603
1.08711
1.07816
1.07032
1.06213
1.05353
1.04633
1.03915
1.03101
1.02402
1.0177
1.01041
1.00388
0.999048
0.993607
0.988356
0.984808
0.981104
0.97705
0.973898
0.971001
0.967669
0.96468
0.9618
0.958375
0.954903
0.951982
0.949102
0.948635
0.951041
0.960072
0.973159
0.99202
1.01097
1.02217
1.03236
1.0338
1.03253
1.03036
1.02834
1.02651
1.0248
1.02306
1.02131
1.0212
1.02103
1.02046
1.02063
1.0211
1.02069
1.0205
1.02078
1.02059
1.02006
1.01988
1.01955
1.01823
1.01688
1.0162
1.01496
1.01328
1.01243
1.01143
1.00926
1.00728
1.00579
1.0044
1.00251
1.00036
0.998214
0.996185
0.994284
0.99251
0.990368
0.988267
0.986408
0.984761
0.984646
0.984837
0.985876
0.988176
0.992721
1.00009
1.00407
1.00503
1.00653
1.00646
1.00404
0.99948
0.994477
0.87257
0.87113
0.868956
0.865609
0.864473
0.874069
0.962744
1.1579
1.30092
1.35678
1.36058
1.35332
1.33186
1.30875
1.28743
1.26367
1.24607
1.23231
1.22112
1.21216
1.2032
1.19426
1.18471
1.1756
1.16658
1.15687
1.14732
1.13814
1.12861
1.1192
1.11022
1.10112
1.09178
1.0833
1.07536
1.06688
1.05892
1.05162
1.04363
1.03559
1.0288
1.022
1.01434
1.00823
1.003
0.996976
0.991485
0.987046
0.982069
0.977188
0.973161
0.968883
0.964509
0.960911
0.957484
0.953656
0.949944
0.947297
0.944646
0.941514
0.941052
0.94299
0.948537
0.963352
0.981209
0.999322
1.01537
1.02009
1.02479
1.02533
1.02464
1.02255
1.02046
1.01837
1.01733
1.0171
1.01639
1.01629
1.01684
1.01694
1.01647
1.01662
1.01695
1.01651
1.0161
1.01604
1.01554
1.01415
1.01327
1.01262
1.01116
1.00995
1.00906
1.00758
1.00577
1.00441
1.0031
1.00112
0.999026
0.997293
0.995947
0.994215
0.991967
0.989435
0.986824
0.985144
0.984239
0.983842
0.984041
0.985265
0.988251
0.994096
1.00147
1.00332
1.00288
1.00315
1.00258
0.999396
0.99415
0.988906
0.878194
0.877033
0.875241
0.872511
0.868639
0.867486
0.870959
0.918151
1.08263
1.24487
1.32894
1.32978
1.32
1.30672
1.29395
1.28102
1.26863
1.25637
1.24492
1.23369
1.22125
1.21021
1.19991
1.18969
1.17994
1.16969
1.15973
1.15036
1.14091
1.13134
1.12208
1.113
1.10396
1.0952
1.08706
1.07871
1.07032
1.06278
1.0554
1.0475
1.04027
1.03379
1.0267
1.01993
1.01476
1.009
1.00264
0.997681
0.992761
0.987101
0.982245
0.977761
0.972471
0.96773
0.963905
0.959544
0.954721
0.951326
0.947544
0.943092
0.940133
0.937376
0.934148
0.934476
0.93924
0.950382
0.971871
0.992523
1.00772
1.02026
1.02103
1.02026
1.01837
1.01632
1.01512
1.01441
1.01338
1.01294
1.01319
1.01353
1.01302
1.01314
1.01358
1.01297
1.01252
1.01265
1.01248
1.01122
1.01024
1.0098
1.00879
1.00745
1.0067
1.00563
1.0039
1.00238
1.00116
0.999782
0.998113
0.996528
0.995159
0.993476
0.991272
0.988829
0.986885
0.985842
0.98521
0.984552
0.984657
0.9862
0.990333
0.998338
1.00517
1.00527
1.00409
1.00382
1.00267
0.998964
0.993338
0.987964
0.883626
0.882534
0.881034
0.878596
0.875676
0.872191
0.871803
0.873064
0.894681
1.01153
1.16207
1.25508
1.27189
1.27539
1.2757
1.27478
1.27256
1.26669
1.25992
1.25044
1.23845
1.22663
1.21483
1.20235
1.19103
1.18013
1.16982
1.15999
1.15002
1.14057
1.13156
1.12273
1.11403
1.1053
1.09688
1.08892
1.08079
1.07291
1.06558
1.05797
1.05074
1.04461
1.03832
1.0315
1.02593
1.0205
1.01419
1.00854
1.00352
0.997884
0.991954
0.986926
0.981999
0.97657
0.971802
0.967099
0.961736
0.95716
0.952815
0.947415
0.941517
0.937202
0.933446
0.930667
0.928807
0.929642
0.935335
0.949679
0.966919
0.989569
1.00387
1.01244
1.01558
1.01496
1.01354
1.01256
1.01099
1.01051
1.01057
1.01042
1.01008
1.01025
1.01068
1.00994
1.00933
1.00948
1.00943
1.00831
1.00748
1.00716
1.00627
1.00492
1.00408
1.00331
1.00189
1.00028
0.999148
0.9983
0.997023
0.99573
0.994431
0.992766
0.990476
0.987999
0.986726
0.985969
0.985267
0.985124
0.986013
0.989244
0.995592
1.00508
1.00949
1.00921
1.00727
1.00606
1.0041
1.00005
0.994444
0.989312
0.889608
0.888462
0.886895
0.884641
0.881722
0.879424
0.877139
0.876666
0.878242
0.891911
0.95334
1.0688
1.15333
1.18958
1.22236
1.2397
1.25381
1.26037
1.25755
1.25239
1.24435
1.23632
1.22589
1.21326
1.20118
1.18919
1.17766
1.16754
1.15765
1.14841
1.13939
1.13006
1.12149
1.11335
1.10528
1.09756
1.08983
1.08195
1.07478
1.06803
1.061
1.05462
1.04864
1.04222
1.03644
1.03137
1.02542
1.01955
1.01448
1.00921
1.00349
0.998137
0.993188
0.987689
0.982473
0.977965
0.972851
0.967779
0.963172
0.9579
0.951134
0.945516
0.940634
0.935159
0.931641
0.929887
0.928168
0.929033
0.933275
0.946545
0.968744
0.987037
1.00391
1.01105
1.01038
1.00973
1.00914
1.00906
1.00871
1.00805
1.00789
1.00797
1.00815
1.00728
1.00642
1.00647
1.00644
1.00541
1.00473
1.00459
1.0037
1.00237
1.00167
1.00118
0.999993
0.998412
0.997335
0.996545
0.995362
0.994133
0.993041
0.99157
0.989326
0.987663
0.986888
0.986343
0.986211
0.986549
0.988442
0.993148
1.00175
1.01126
1.01406
1.0139
1.01192
1.01021
1.00776
1.00355
0.997981
0.993164
0.895249
0.894157
0.892635
0.890462
0.887563
0.885249
0.88395
0.882892
0.883126
0.888763
0.915692
0.977967
1.03598
1.06983
1.10483
1.14456
1.18051
1.21737
1.23009
1.23932
1.23841
1.23386
1.227
1.21801
1.20898
1.19765
1.18552
1.17473
1.16399
1.15406
1.14542
1.13682
1.1287
1.1208
1.1124
1.10454
1.09733
1.09016
1.08318
1.07684
1.07029
1.06402
1.05852
1.05261
1.04651
1.04124
1.03573
1.02989
1.02486
1.01993
1.01424
1.00864
1.00392
0.998973
0.99324
0.988224
0.983386
0.978174
0.973186
0.967822
0.961628
0.955616
0.949979
0.943378
0.93709
0.932421
0.928555
0.926818
0.927403
0.929881
0.938149
0.951687
0.970444
0.990987
1.00069
1.00634
1.00833
1.00848
1.008
1.00705
1.00656
1.00661
1.00621
1.00506
1.004
1.00381
1.00388
1.003
1.0021
1.00189
1.00126
1.00001
0.999295
0.998957
0.997933
0.996468
0.995477
0.994833
0.993822
0.99271
0.991759
0.990354
0.988202
0.987183
0.986668
0.986361
0.98641
0.987219
0.990252
0.996897
1.00771
1.01642
1.01804
1.01802
1.01632
1.01434
1.01167
1.00753
1.0022
0.997866
0.901306
0.900117
0.898633
0.896522
0.893692
0.891242
0.890071
0.889272
0.889306
0.893027
0.914935
0.970943
1.02097
1.03441
1.03959
1.05041
1.07056
1.10746
1.14691
1.18169
1.2082
1.21514
1.21662
1.21347
1.20727
1.20007
1.19188
1.18284
1.17205
1.1613
1.15194
1.14268
1.13411
1.12657
1.11901
1.11183
1.10507
1.09802
1.09103
1.08482
1.07898
1.07281
1.06719
1.06186
1.05613
1.05079
1.04575
1.03993
1.03443
1.02968
1.02464
1.01897
1.01416
1.00948
1.00399
0.998763
0.993914
0.988633
0.983516
0.978365
0.972473
0.966918
0.961527
0.955693
0.948989
0.942978
0.937422
0.933345
0.930848
0.930738
0.931389
0.933868
0.941131
0.958401
0.97744
0.991598
1.00338
1.00639
1.0061
1.00602
1.00574
1.0055
1.00452
1.00363
1.00265
1.00205
1.00161
1.00063
0.999571
0.999249
0.999123
0.998081
0.997158
0.996886
0.996097
0.99469
0.993746
0.993214
0.992231
0.991177
0.990297
0.988875
0.986979
0.98631
0.986122
0.986137
0.986409
0.987829
0.991955
1.00032
1.01256
1.01995
1.02086
1.0209
1.01954
1.01748
1.01468
1.0106
1.00547
1.00164
0.907174
0.905871
0.904404
0.902448
0.899675
0.89716
0.895947
0.895219
0.895191
0.898084
0.916237
0.968106
1.02177
1.03423
1.03553
1.03568
1.03614
1.03949
1.05287
1.07862
1.11898
1.15413
1.18028
1.19607
1.19624
1.19456
1.18994
1.18415
1.17708
1.16848
1.15998
1.15092
1.1421
1.13379
1.12554
1.11786
1.11125
1.10502
1.09897
1.09299
1.08718
1.08125
1.07553
1.07038
1.06506
1.05952
1.0546
1.0496
1.0442
1.03923
1.03419
1.02852
1.02363
1.01925
1.01395
1.00838
1.00384
0.998737
0.9932
0.987915
0.982434
0.977143
0.972139
0.966934
0.96079
0.955097
0.949242
0.942985
0.937927
0.933835
0.932365
0.933004
0.935088
0.940449
0.952151
0.966086
0.983162
0.997187
1.00121
1.00376
1.00498
1.00493
1.00398
1.00286
1.00196
1.0012
0.999883
0.998862
0.997719
0.99682
0.996836
0.996255
0.99518
0.99465
0.994217
0.993011
0.992047
0.99149
0.990661
0.989837
0.988987
0.987535
0.985704
0.985247
0.985269
0.985368
0.985877
0.98785
0.993016
1.00305
1.01609
1.02203
1.02266
1.02262
1.02135
1.01929
1.01635
1.01235
1.00751
1.00413
0.913244
0.911732
0.910228
0.908407
0.905788
0.9033
0.901906
0.901019
0.900877
0.902989
0.91755
0.96507
1.02328
1.03687
1.03697
1.03649
1.0353
1.03362
1.03364
1.03521
1.04369
1.0651
1.09547
1.13361
1.15754
1.1748
1.18136
1.1794
1.17428
1.16966
1.16525
1.15836
1.15028
1.14212
1.1339
1.12632
1.11923
1.11227
1.10596
1.10013
1.09462
1.0895
1.08392
1.07831
1.07335
1.06825
1.06315
1.05832
1.05307
1.048
1.04336
1.03813
1.0328
1.02824
1.02319
1.01752
1.01283
1.00797
1.00254
0.997342
0.992047
0.986932
0.982067
0.977216
0.971907
0.96668
0.961642
0.955887
0.949685
0.944079
0.939789
0.938403
0.938528
0.939819
0.94299
0.94897
0.959241
0.97582
0.989036
0.996606
1.00267
1.0034
1.00283
1.00195
1.00115
1.00023
0.998988
0.998088
0.997126
0.995859
0.99518
0.994989
0.994065
0.992894
0.992264
0.991603
0.990761
0.990007
0.989145
0.988425
0.987556
0.986014
0.984388
0.983981
0.983989
0.984123
0.984798
0.987242
0.9934
1.00491
1.01833
1.02292
1.02348
1.02334
1.02208
1.02002
1.01703
1.01317
1.00873
1.00576
0.919271
0.917534
0.915857
0.914149
0.911816
0.909359
0.907773
0.906754
0.906477
0.907956
0.919085
0.960187
1.02065
1.04088
1.04105
1.04048
1.03871
1.03617
1.03402
1.03267
1.03249
1.03353
1.0386
1.05474
1.08225
1.11334
1.14437
1.15684
1.16548
1.16604
1.16431
1.16083
1.15612
1.15052
1.14344
1.13583
1.12835
1.12104
1.11446
1.10845
1.10236
1.09681
1.09172
1.08652
1.08153
1.07655
1.07114
1.06629
1.0617
1.05661
1.05166
1.04674
1.04168
1.03692
1.03181
1.02611
1.02127
1.01663
1.01127
1.00612
1.00132
0.996337
0.991516
0.986811
0.981883
0.977099
0.972509
0.967669
0.961985
0.956776
0.951739
0.947065
0.943808
0.94374
0.94456
0.946833
0.950426
0.957773
0.969813
0.980846
0.991716
0.997414
1.00018
1.0003
1.00004
0.999616
0.998863
0.99786
0.996761
0.995599
0.994608
0.994168
0.993445
0.99213
0.991218
0.990653
0.989954
0.988953
0.988071
0.987448
0.986603
0.985042
0.983605
0.983063
0.982925
0.983033
0.983779
0.986562
0.993642
1.00645
1.01989
1.02351
1.02406
1.02394
1.0227
1.02055
1.01755
1.01379
1.00988
1.00722
0.925096
0.92348
0.921538
0.919777
0.917737
0.915512
0.913699
0.912433
0.911986
0.913002
0.921307
0.955345
1.01534
1.04405
1.04492
1.04464
1.04335
1.04091
1.03792
1.03504
1.03313
1.03149
1.0313
1.03203
1.03617
1.0477
1.07292
1.10078
1.12795
1.14592
1.15141
1.15487
1.15381
1.15184
1.14895
1.14471
1.1389
1.13189
1.12462
1.1178
1.11158
1.10557
1.09996
1.09434
1.08912
1.08464
1.07996
1.07447
1.06939
1.06443
1.05954
1.05488
1.04992
1.04497
1.0401
1.03458
1.02947
1.02484
1.01961
1.01452
1.01001
1.00527
1.00054
0.995974
0.991283
0.986702
0.982431
0.978444
0.973525
0.968869
0.964674
0.959929
0.954645
0.951728
0.950829
0.951124
0.952056
0.954353
0.9585
0.964974
0.974762
0.984556
0.991976
0.997281
0.99833
0.998684
0.998574
0.998076
0.99697
0.995936
0.994894
0.994333
0.993505
0.992091
0.991066
0.990571
0.990046
0.988908
0.987928
0.987304
0.986483
0.984964
0.983571
0.982937
0.982604
0.982697
0.983495
0.986549
0.994411
1.00825
1.02174
1.02494
1.02542
1.02522
1.02394
1.02174
1.01877
1.01508
1.01161
1.00904
0.930546
0.929213
0.927267
0.925308
0.923414
0.92145
0.919605
0.918095
0.917455
0.918111
0.924171
0.95153
1.00884
1.04584
1.04821
1.04812
1.04721
1.04528
1.04262
1.03979
1.03703
1.03431
1.03243
1.03099
1.03049
1.03077
1.03365
1.04382
1.06277
1.09145
1.11415
1.13328
1.14247
1.1452
1.14476
1.14335
1.14112
1.13812
1.1339
1.12871
1.12268
1.11628
1.11002
1.10426
1.09841
1.0926
1.08774
1.08281
1.07786
1.07293
1.06734
1.06208
1.05731
1.05233
1.04747
1.04263
1.03766
1.03296
1.02798
1.02266
1.01817
1.01369
1.00894
1.00448
1.00027
0.996042
0.991992
0.988262
0.984161
0.980228
0.976544
0.972369
0.96754
0.963176
0.959847
0.957556
0.956153
0.956401
0.957884
0.960189
0.964
0.970708
0.977908
0.986124
0.991472
0.994318
0.996984
0.997034
0.996614
0.996155
0.995575
0.995025
0.993962
0.99271
0.991517
0.9909
0.9905
0.989456
0.988476
0.987836
0.987072
0.985563
0.98424
0.983529
0.983052
0.983133
0.983965
0.987213
0.995762
1.01053
1.0244
1.02739
1.02774
1.02736
1.02595
1.02373
1.02077
1.01718
1.01395
1.0114
0.935908
0.934634
0.932949
0.930831
0.928996
0.927227
0.925496
0.923792
0.922911
0.923263
0.92753
0.948921
1.00151
1.04614
1.05123
1.05123
1.0505
1.04875
1.04637
1.04398
1.04151
1.03897
1.0364
1.0336
1.03139
1.0296
1.02961
1.03014
1.03205
1.04012
1.05692
1.07899
1.10442
1.12055
1.13288
1.13855
1.13711
1.13568
1.13455
1.13239
1.12944
1.12566
1.12108
1.11575
1.10996
1.10393
1.09794
1.09189
1.086
1.08107
1.076
1.07039
1.06523
1.06009
1.05461
1.04981
1.04516
1.04043
1.0357
1.03079
1.02623
1.02175
1.01716
1.01272
1.00861
1.00466
1.00092
0.997552
0.994128
0.990726
0.987468
0.983935
0.979474
0.975437
0.971573
0.967326
0.963973
0.96199
0.961523
0.961757
0.962736
0.96475
0.967593
0.972762
0.979927
0.985725
0.991107
0.993744
0.994767
0.995493
0.995457
0.994978
0.994277
0.993548
0.992437
0.991573
0.991145
0.990379
0.98942
0.988788
0.988175
0.986721
0.985482
0.984737
0.984196
0.984276
0.985125
0.988476
0.99758
1.01332
1.02809
1.03072
1.03088
1.03037
1.02877
1.02648
1.02343
1.01985
1.01672
1.01426
0.941374
0.93989
0.938463
0.936324
0.934491
0.932835
0.931296
0.929563
0.928401
0.928491
0.931313
0.947388
0.993517
1.04457
1.05425
1.05428
1.05372
1.05199
1.04967
1.04736
1.04519
1.04314
1.0409
1.03844
1.03555
1.03282
1.03121
1.02985
1.02954
1.02981
1.03138
1.03691
1.05074
1.07044
1.09149
1.11118
1.12118
1.12883
1.13208
1.131
1.12845
1.12698
1.12529
1.12262
1.11914
1.11476
1.10953
1.10384
1.09772
1.09129
1.08534
1.07932
1.07365
1.06868
1.06334
1.05785
1.05291
1.04795
1.04304
1.03825
1.03375
1.0295
1.02504
1.02073
1.0169
1.0131
1.00956
1.0065
1.00333
1.00021
0.997466
0.99463
0.990501
0.986794
0.982987
0.97859
0.973773
0.970213
0.967569
0.965287
0.964286
0.964657
0.965727
0.96749
0.970575
0.975037
0.980401
0.985927
0.989359
0.99244
0.993961
0.993941
0.993884
0.993716
0.993171
0.992405
0.991841
0.991172
0.990289
0.989693
0.989265
0.987977
0.986795
0.986049
0.985415
0.985479
0.986281
0.989544
0.998816
1.01536
1.03176
1.034
1.03394
1.03348
1.03192
1.02952
1.02651
1.02291
1.01967
1.01733
0.946975
0.945144
0.943849
0.94183
0.940025
0.938422
0.936978
0.935359
0.933906
0.93373
0.935428
0.946951
0.985463
1.04054
1.05724
1.05742
1.05697
1.05535
1.05292
1.05057
1.0484
1.04652
1.04472
1.04267
1.04039
1.03781
1.03537
1.03298
1.03097
1.02972
1.02937
1.02953
1.0306
1.03492
1.04441
1.06184
1.08067
1.09849
1.11236
1.11843
1.1234
1.12517
1.12424
1.1222
1.12077
1.11898
1.11629
1.11282
1.10843
1.10315
1.09733
1.09125
1.08479
1.0786
1.07282
1.06712
1.0618
1.05655
1.05138
1.04644
1.04162
1.03712
1.03285
1.02859
1.02487
1.0214
1.0178
1.01483
1.01226
1.00934
1.00665
1.00413
1.00064
0.997082
0.993709
0.989336
0.984125
0.979905
0.975781
0.971733
0.969107
0.967242
0.96746
0.968085
0.96901
0.970319
0.972465
0.976138
0.980465
0.984605
0.988918
0.991015
0.992137
0.99337
0.993165
0.992756
0.992225
0.991618
0.990978
0.990422
0.990014
0.98904
0.987937
0.98716
0.986353
0.986375
0.98707
0.990099
0.999193
1.01594
1.03433
1.03697
1.03671
1.03633
1.0349
1.03238
1.02939
1.02593
1.02257
1.02025
0.952655
0.950437
0.949169
0.947361
0.945592
0.944104
0.94261
0.941137
0.939461
0.938906
0.939848
0.947564
0.978004
1.03333
1.05985
1.06072
1.06032
1.05886
1.05642
1.05392
1.0517
1.04978
1.04811
1.04636
1.04447
1.0425
1.04045
1.03832
1.03593
1.03332
1.03157
1.03048
1.02961
1.02967
1.03025
1.0328
1.04021
1.05222
1.06989
1.08565
1.10026
1.10984
1.11416
1.11771
1.11865
1.11782
1.11596
1.11418
1.11207
1.1093
1.10587
1.10171
1.09664
1.09093
1.08491
1.07857
1.07241
1.06668
1.0611
1.05579
1.05069
1.04583
1.04129
1.0369
1.03283
1.0295
1.02645
1.02318
1.02066
1.01808
1.01513
1.01261
1.00975
1.00631
1.00297
0.998947
0.993883
0.989568
0.985111
0.979954
0.975934
0.972913
0.970963
0.969466
0.969318
0.969674
0.970599
0.972013
0.97381
0.97656
0.98045
0.984333
0.986667
0.989211
0.991017
0.991721
0.991914
0.991663
0.991389
0.991024
0.990387
0.989699
0.988912
0.988125
0.987098
0.987007
0.987568
0.990304
0.999022
1.01589
1.03613
1.04008
1.03965
1.03914
1.03756
1.03499
1.032
1.02864
1.02508
1.02232
0.95836
0.955857
0.954448
0.952878
0.951169
0.94986
0.948242
0.946807
0.945097
0.943989
0.944414
0.94918
0.97184
1.02306
1.06083
1.06409
1.06379
1.06247
1.06011
1.05746
1.0551
1.05318
1.05147
1.04981
1.04812
1.0464
1.04479
1.04311
1.0412
1.03882
1.03637
1.03425
1.03205
1.03051
1.02958
1.02974
1.0304
1.03168
1.03602
1.04527
1.05796
1.0739
1.08639
1.09796
1.105
1.10816
1.1111
1.1115
1.11065
1.10872
1.10637
1.10417
1.10172
1.09863
1.09481
1.09004
1.08447
1.07866
1.07272
1.06669
1.06104
1.05587
1.051
1.04653
1.04227
1.03841
1.03514
1.03174
1.02877
1.0265
1.02385
1.02055
1.01777
1.01463
1.01118
1.00726
1.00241
0.998248
0.994016
0.988737
0.983849
0.980177
0.976731
0.973996
0.972283
0.971535
0.971649
0.972024
0.9729
0.973862
0.975116
0.977011
0.979446
0.982241
0.98533
0.987299
0.988889
0.989948
0.99062
0.990625
0.990396
0.989896
0.989521
0.988914
0.987884
0.987619
0.988029
0.990245
0.998058
1.01485
1.03662
1.04306
1.04268
1.042
1.04016
1.03751
1.03433
1.03082
1.02702
1.02417
0.963937
0.961561
0.959805
0.958346
0.956685
0.95553
0.953926
0.952339
0.950744
0.949099
0.949049
0.951614
0.967278
1.01112
1.05864
1.06729
1.06732
1.06625
1.06396
1.06124
1.05873
1.05678
1.0551
1.05342
1.05181
1.05018
1.04862
1.04722
1.04569
1.04386
1.04176
1.03964
1.03742
1.03485
1.03268
1.03133
1.03028
1.03034
1.03058
1.03116
1.03287
1.03801
1.04711
1.05858
1.07208
1.08241
1.09201
1.09798
1.10089
1.10381
1.10381
1.10286
1.10096
1.09855
1.09629
1.09388
1.09081
1.08741
1.08315
1.07802
1.07268
1.0674
1.0621
1.0571
1.05285
1.04892
1.04512
1.04166
1.0381
1.03479
1.03189
1.02867
1.02551
1.02224
1.01854
1.01454
1.01011
1.00587
1.00185
0.996864
0.991961
0.988236
0.984319
0.980309
0.976821
0.975081
0.974084
0.973422
0.973708
0.974057
0.974299
0.975173
0.976518
0.977798
0.979259
0.981098
0.983131
0.985224
0.986675
0.987741
0.988419
0.988685
0.988796
0.988685
0.988165
0.987951
0.988307
0.990046
0.996515
1.01242
1.03497
1.04566
1.04547
1.04474
1.04273
1.04004
1.03677
1.03306
1.029
1.02618
0.969327
0.96738
0.965311
0.963817
0.96214
0.961008
0.95957
0.957737
0.956231
0.954325
0.953629
0.954834
0.96452
0.999151
1.05189
1.0703
1.07072
1.07004
1.06803
1.06524
1.06255
1.06055
1.0589
1.05724
1.05561
1.05402
1.05241
1.05093
1.04958
1.04806
1.04632
1.04463
1.04278
1.04061
1.03806
1.03573
1.03365
1.03203
1.03104
1.0306
1.03022
1.02982
1.03019
1.03208
1.03686
1.04464
1.05426
1.06592
1.07517
1.08362
1.08967
1.09296
1.09584
1.09579
1.09468
1.09231
1.09011
1.08803
1.0855
1.08262
1.07966
1.07656
1.07256
1.06826
1.06408
1.05998
1.05588
1.05213
1.0487
1.04508
1.04111
1.03706
1.03336
1.02979
1.02578
1.02153
1.01736
1.01305
1.009
1.00458
0.999907
0.995972
)
;

boundaryField
{
    inlet
    {
        type            fixedValue;
        value           nonuniform 0();
    }
    outlet
    {
        type            inletOutlet;
        inletValue      nonuniform 0();
        value           nonuniform 0();
    }
    bottom
    {
        type            symmetryPlane;
    }
    top
    {
        type            symmetryPlane;
    }
    obstacle
    {
        type            zeroGradient;
    }
    front
    {
        type            empty;
    }
    back
    {
        type            empty;
    }
    procBoundary13to5
    {
        type            processor;
        value           nonuniform List<scalar> 
129
(
0.885999
0.883132
0.879046
0.874624
0.87242
0.870205
0.867374
0.863131
1.00395
1.00364
1.00359
1.00362
1.00394
1.00488
1.00661
1.00938
1.01354
1.01887
1.02485
1.03193
1.04107
1.04764
1.05348
1.0593
1.05911
1.05606
1.05161
0.85948
0.858296
0.860486
0.912285
1.09472
1.27318
1.33723
1.36941
1.36603
1.36076
1.34973
1.33657
1.31744
1.28857
1.26215
1.23952
1.21481
1.19751
1.18579
1.17621
1.16818
1.15994
1.1506
1.14174
1.13274
1.12322
1.11462
1.10589
1.09692
1.08864
1.08024
1.07132
1.06342
1.05587
1.04732
1.03983
1.03326
1.02593
1.01893
1.01306
1.00688
1.00064
0.995598
0.99111
0.986561
0.982973
0.980126
0.977253
0.974567
0.972368
0.970249
0.968007
0.966006
0.964222
0.961972
0.96119
0.962642
0.96706
0.974044
0.988009
1.00492
1.01767
1.03438
1.03758
1.03725
1.03862
1.03812
1.03617
1.03347
1.03102
1.02949
1.02825
1.02652
1.02595
1.02605
1.02543
1.02533
1.0257
1.02527
1.02488
1.02512
1.02489
1.02408
1.02368
1.02353
1.02233
1.02055
1.01944
1.01894
1.01703
1.01525
1.01437
1.01368
1.01147
1.00919
1.00769
1.00601
1.00388
1.00186
0.999964
0.9983
0.9983
)
;
    }
    procBoundary13to6
    {
        type            processor;
        value           nonuniform List<scalar> 5(1.00696 0.98994 0.984368 0.983525 0.985308);
    }
    procBoundary13to14
    {
        type            processor;
        value           nonuniform List<scalar> 
14
(
0.98952
0.994688
0.998953
1.00177
1.00359
1.00511
1.00685
1.00901
1.01177
1.01499
1.01837
1.02094
1.02283
1.02474
)
;
    }
    procBoundary13to20
    {
        type            processor;
        value           nonuniform List<scalar> 3(0.894968 0.901093 0.906868);
    }
    procBoundary13to21
    {
        type            processor;
        value           nonuniform List<scalar> 
129
(
0.994189
0.990517
0.987956
0.986108
0.983381
0.980933
0.978471
0.975988
0.99211
0.98758
0.984136
0.981274
0.978764
0.976804
0.975491
0.974907
0.975055
0.975589
0.976804
0.977545
0.977803
0.978588
0.979878
0.98119
0.982149
0.983062
0.984362
0.985436
0.986183
0.986799
0.986715
0.986625
0.986973
0.988352
0.993427
1.00805
1.0315
1.04736
1.04769
1.04718
1.04541
1.04284
1.03948
1.03549
1.03118
1.02844
0.974578
0.973019
0.970854
0.969257
0.967547
0.966281
0.964989
0.962988
0.96141
0.959604
0.958055
0.95849
0.963827
0.988551
1.03938
1.07151
1.07431
1.07379
1.0721
1.06948
1.06665
1.06452
1.06289
1.06127
1.05963
1.05801
1.05637
1.05475
1.05334
1.05196
1.05039
1.04888
1.04748
1.0458
1.04373
1.04151
1.03927
1.03702
1.03454
1.0328
1.0316
1.03023
1.02941
1.02842
1.02757
1.02723
1.02853
1.03248
1.03904
1.04738
1.05763
1.06655
1.07475
1.08057
1.08397
1.08701
1.08726
1.08604
1.08316
1.0812
1.07964
1.07755
1.0754
1.07325
1.07116
1.06853
1.06524
1.06189
1.05854
1.055
1.05109
1.04687
1.04257
1.03829
1.03383
1.02908
1.02495
1.02086
1.01645
1.01213
1.00784
0.99211
1.00384
)
;
    }
    procBoundary13to28
    {
        type            processor;
        value           nonuniform List<scalar> 
16
(
0.912236
0.917434
0.92258
0.927605
0.932851
0.938059
0.943586
0.949396
0.955627
0.961427
0.966529
0.971409
0.97637
0.981523
0.98681
0.991806
)
;
    }
}


// ************************************************************************* //
