/*--------------------------------*- C++ -*----------------------------------*\
  =========                 |
  \\      /  F ield         | OpenFOAM: The Open Source CFD Toolbox
   \\    /   O peration     | Website:  https://openfoam.org
    \\  /    A nd           | Version:  7
     \\/     M anipulation  |
\*---------------------------------------------------------------------------*/
FoamFile
{
    version     2.0;
    format      ascii;
    class       volScalarField;
    location    "5.5";
    object      T;
}
// * * * * * * * * * * * * * * * * * * * * * * * * * * * * * * * * * * * * * //

dimensions      [0 0 0 1 0 0 0];

internalField   nonuniform List<scalar> 
2418
(
1.11723
1.11698
1.1168
1.11663
1.11648
1.11638
1.1163
1.11617
1.11598
1.11578
1.11557
1.11534
1.11498
1.11435
1.11379
1.11354
1.11334
1.11316
1.11301
1.11291
1.11289
1.11281
1.11265
1.11247
1.11227
1.11204
1.11168
1.11104
1.11048
1.11022
1.11003
1.10984
1.10968
1.1096
1.10961
1.10952
1.10934
1.10914
1.10892
1.10862
1.10809
1.10748
1.10718
1.10697
1.10681
1.10652
1.13835
1.13797
1.13731
1.13678
1.13658
1.13641
1.13626
1.13616
1.13609
1.13594
1.13577
1.13559
1.13536
1.13499
1.13439
1.134
1.13382
1.13367
1.13352
1.13339
1.13325
1.13311
1.13295
1.13278
1.13252
1.13203
1.13145
1.13119
1.13102
1.13084
1.13067
1.13051
1.13034
1.13014
1.12994
1.12974
1.12948
1.12901
1.12843
1.12818
1.12803
1.12788
1.12773
1.12758
1.12743
1.12726
1.12709
1.12691
1.12671
1.12639
1.12581
1.12535
1.12516
1.12499
1.12482
1.12466
1.12451
1.12436
1.12418
1.12399
1.12379
1.1235
1.12301
1.12263
1.12246
1.12231
1.12217
1.12204
1.12188
1.1217
1.1215
1.12128
1.121
1.12052
1.11988
1.11954
1.11933
1.11914
1.11895
1.1188
1.1187
1.11858
1.11842
1.11824
1.11806
1.11786
1.11755
1.11699
1.11654
1.11634
1.11616
1.11598
1.11582
1.11568
1.11555
1.11538
1.11518
1.11498
1.11476
1.11451
1.11407
1.11342
1.11304
1.11283
1.11264
1.11247
1.11233
1.11224
1.11212
1.11194
1.11175
1.11155
1.11135
1.1111
1.11067
1.11001
1.10959
1.10938
1.10919
1.10902
1.10891
1.10885
1.10871
1.10851
1.1083
1.10808
1.10785
1.1075
1.10694
1.1065
1.10631
1.10598
1.1376
1.13734
1.13689
1.13636
1.13609
1.13591
1.13575
1.13561
1.13545
1.13527
1.13508
1.13488
1.13467
1.1344
1.13396
1.13341
1.13312
1.13296
1.1328
1.13266
1.13254
1.1324
1.13225
1.1321
1.13192
1.13165
1.13113
1.13058
1.13033
1.13015
1.12996
1.12978
1.1296
1.12942
1.12924
1.12907
1.1289
1.12871
1.12837
1.12779
1.1274
1.12724
1.1271
1.12696
1.12683
1.1267
1.12655
1.12639
1.12623
1.12604
1.12573
1.12516
1.12467
1.12447
1.12432
1.12417
1.12401
1.12385
1.12368
1.12351
1.12332
1.12311
1.1228
1.12231
1.12196
1.12179
1.12164
1.12148
1.1213
1.12112
1.12094
1.12076
1.12056
1.12035
1.12008
1.11959
1.119
1.11871
1.11852
1.11834
1.11817
1.11802
1.11789
1.11772
1.11754
1.11736
1.11716
1.11684
1.11631
1.11593
1.11575
1.11557
1.1154
1.11523
1.11509
1.11495
1.11475
1.11455
1.11435
1.11413
1.11386
1.1134
1.11275
1.1124
1.1122
1.11201
1.11183
1.11169
1.11157
1.11141
1.11122
1.11103
1.11084
1.11063
1.1104
1.11003
1.10941
1.10892
1.10869
1.10849
1.10831
1.10818
1.10807
1.10789
1.10768
1.10747
1.10726
1.10704
1.10677
1.10631
1.10576
1.10531
1.13696
1.13675
1.13652
1.13618
1.13556
1.13497
1.13469
1.13449
1.13429
1.13412
1.13397
1.13379
1.13358
1.13336
1.1331
1.13272
1.13225
1.13198
1.13181
1.13166
1.13151
1.13135
1.13119
1.13103
1.13085
1.13062
1.13026
1.12969
1.12928
1.12907
1.12887
1.12868
1.12851
1.12833
1.12815
1.12798
1.1278
1.12758
1.12718
1.12663
1.12638
1.12625
1.12612
1.12601
1.12591
1.1258
1.12565
1.1255
1.12534
1.12514
1.12481
1.12414
1.12356
1.12334
1.12318
1.12304
1.12291
1.1228
1.12266
1.1225
1.12233
1.12216
1.12197
1.12167
1.12114
1.12074
1.12059
1.12046
1.12034
1.12023
1.12011
1.11995
1.11977
1.11957
1.11927
1.1187
1.11798
1.11765
1.11747
1.11728
1.11711
1.11697
1.11689
1.11682
1.11667
1.11651
1.11635
1.11619
1.11594
1.11542
1.11486
1.11463
1.11445
1.11426
1.11408
1.1139
1.11374
1.11355
1.11335
1.11315
1.11295
1.11271
1.11236
1.11177
1.11131
1.11109
1.1109
1.11071
1.11053
1.11035
1.11019
1.11002
1.10983
1.10964
1.10944
1.10921
1.1089
1.10835
1.10777
1.10751
1.1073
1.10709
1.10689
1.10671
1.10651
1.1063
1.10608
1.10586
1.10564
1.10537
1.10498
1.10432
1.13591
1.13568
1.13536
1.13481
1.13409
1.13366
1.13339
1.13316
1.13295
1.13281
1.13277
1.13276
1.13259
1.13236
1.13213
1.13184
1.13139
1.13082
1.13051
1.13033
1.13018
1.13005
1.12991
1.12974
1.12955
1.12933
1.12901
1.1285
1.12805
1.1278
1.12758
1.12737
1.12721
1.12704
1.12684
1.12665
1.12647
1.12626
1.12592
1.12537
1.12502
1.12487
1.12474
1.12463
1.12453
1.12441
1.12425
1.12408
1.1239
1.12366
1.12326
1.12258
1.12212
1.12192
1.12177
1.12162
1.12149
1.12141
1.12137
1.12125
1.12109
1.12093
1.12075
1.12044
1.11981
1.11926
1.11908
1.11896
1.11883
1.11871
1.11859
1.11845
1.11828
1.11808
1.11783
1.11743
1.11677
1.11629
1.1161
1.11593
1.11578
1.11563
1.11553
1.11546
1.11534
1.11519
1.11505
1.11489
1.11463
1.11406
1.11341
1.11315
1.11298
1.11281
1.11263
1.11245
1.1123
1.11217
1.112
1.11181
1.11162
1.11143
1.11118
1.11071
1.10999
1.10959
1.1094
1.10922
1.10905
1.10888
1.10873
1.1086
1.10846
1.10828
1.1081
1.1079
1.10767
1.10734
1.10675
1.10613
1.10585
1.10563
1.1054
1.10518
1.10497
1.10477
1.10457
1.10436
1.10417
1.10397
1.10378
1.10335
1.1346
1.13433
1.13389
1.13321
1.13267
1.13237
1.13211
1.13189
1.13173
1.13168
1.13165
1.13146
1.13122
1.13098
1.13071
1.13034
1.12977
1.12925
1.129
1.12881
1.12865
1.12855
1.12844
1.12826
1.12806
1.12782
1.12747
1.12695
1.12656
1.12631
1.12607
1.12585
1.12566
1.12545
1.12523
1.12502
1.12477
1.1244
1.12384
1.12351
1.12335
1.1232
1.12308
1.123
1.12297
1.12287
1.12271
1.12253
1.12232
1.12202
1.12143
1.12074
1.12043
1.12025
1.12009
1.11995
1.11984
1.11973
1.11959
1.11944
1.11928
1.11912
1.11893
1.11865
1.11808
1.11741
1.11715
1.11701
1.11688
1.11674
1.11661
1.11652
1.11642
1.11626
1.11609
1.11591
1.11566
1.11515
1.11448
1.11418
1.11401
1.11385
1.1137
1.11355
1.1134
1.11325
1.11309
1.11293
1.11272
1.11232
1.11173
1.11141
1.11125
1.11108
1.11091
1.11074
1.11057
1.1104
1.11022
1.11004
1.10986
1.10966
1.1094
1.10895
1.1083
1.10793
1.10774
1.10758
1.10742
1.10726
1.1071
1.10693
1.10676
1.10658
1.10639
1.1062
1.10599
1.10574
1.10535
1.10477
1.10425
1.10396
1.10372
1.10349
1.10327
1.10306
1.10289
1.10273
1.10258
1.1024
1.10224
1.1019
1.1332
1.13281
1.1322
1.13171
1.13144
1.13119
1.13096
1.13078
1.13065
1.13049
1.13026
1.13
1.12973
1.12944
1.12909
1.12858
1.12805
1.12773
1.12751
1.12731
1.12717
1.12709
1.12697
1.12677
1.12656
1.1263
1.12593
1.1254
1.12501
1.12474
1.12448
1.12424
1.12402
1.12378
1.12355
1.12331
1.12303
1.12262
1.12217
1.12192
1.12175
1.1216
1.12149
1.12142
1.12128
1.12112
1.12094
1.12074
1.12051
1.12016
1.11958
1.11904
1.11876
1.11855
1.11834
1.11814
1.11794
1.11773
1.11752
1.11732
1.11714
1.11697
1.11679
1.11656
1.11618
1.11567
1.1154
1.11524
1.1151
1.11495
1.11481
1.11466
1.11451
1.11434
1.11415
1.11391
1.11348
1.11285
1.11246
1.11227
1.11211
1.11194
1.11176
1.11158
1.11139
1.11121
1.11104
1.11088
1.11073
1.11054
1.11021
1.10965
1.1093
1.10913
1.10896
1.10878
1.1086
1.10841
1.10822
1.10804
1.10787
1.10769
1.10751
1.1073
1.10695
1.10636
1.10591
1.10571
1.10555
1.10538
1.10522
1.10508
1.10493
1.10478
1.10461
1.10442
1.10421
1.10399
1.10373
1.10336
1.10278
1.1023
1.10206
1.10183
1.10162
1.10144
1.10125
1.10107
1.1009
1.10074
1.10058
1.10026
1.13175
1.1312
1.13081
1.13057
1.1303
1.13004
1.12981
1.12963
1.12942
1.12916
1.12889
1.12861
1.12828
1.12784
1.12728
1.12687
1.12661
1.12637
1.12615
1.12597
1.12587
1.12578
1.1256
1.1254
1.12517
1.12491
1.12456
1.12402
1.1235
1.1232
1.12293
1.12267
1.12243
1.12221
1.12197
1.12173
1.12149
1.12122
1.12091
1.12057
1.12028
1.12006
1.11987
1.11969
1.11951
1.11933
1.11913
1.1189
1.11866
1.1184
1.1181
1.1177
1.11719
1.11676
1.11647
1.11622
1.11596
1.11573
1.11553
1.11534
1.11516
1.11503
1.11498
1.11493
1.11481
1.11466
1.11446
1.11404
1.11332
1.11291
1.11272
1.11254
1.11236
1.11217
1.11198
1.11175
1.11145
1.11104
1.11072
1.11054
1.11037
1.1102
1.11001
1.10981
1.10961
1.10943
1.10926
1.10908
1.10881
1.10827
1.10773
1.10751
1.10736
1.10721
1.10706
1.1069
1.10674
1.10657
1.10641
1.10625
1.10609
1.1059
1.10561
1.10505
1.10438
1.10409
1.10395
1.10384
1.10377
1.10369
1.10358
1.10347
1.10336
1.10322
1.10305
1.10279
1.10229
1.10172
1.10142
1.10122
1.10102
1.10085
1.10066
1.10044
1.10021
1.09993
1.09955
1.09923
1.09905
1.0989
1.09876
1.09849
1.13025
1.12997
1.12973
1.12948
1.12915
1.12878
1.12853
1.12832
1.12808
1.12783
1.12757
1.12728
1.12687
1.12631
1.1259
1.12563
1.12538
1.12517
1.12504
1.12491
1.1247
1.12447
1.12424
1.12402
1.12378
1.12351
1.12319
1.12273
1.12218
1.12181
1.12153
1.12127
1.12102
1.12081
1.12063
1.12041
1.12017
1.11994
1.1197
1.11944
1.11909
1.11864
1.11831
1.11809
1.11789
1.1177
1.1175
1.1173
1.11708
1.11685
1.11659
1.11626
1.11578
1.11522
1.11489
1.11464
1.11442
1.11423
1.11412
1.114
1.11382
1.11365
1.11348
1.11331
1.11313
1.11291
1.11261
1.1121
1.11145
1.11105
1.11081
1.1106
1.1104
1.11021
1.11
1.10974
1.10946
1.10926
1.10909
1.10892
1.10875
1.10861
1.1085
1.10836
1.10818
1.108
1.10775
1.10731
1.10658
1.1061
1.1059
1.10575
1.1056
1.10546
1.10534
1.10519
1.10502
1.10485
1.10468
1.10451
1.10433
1.1041
1.10369
1.10297
1.10247
1.10229
1.10216
1.10207
1.10203
1.10199
1.1019
1.1018
1.10169
1.10156
1.10137
1.10098
1.10036
1.09998
1.09981
1.09964
1.09946
1.09926
1.09902
1.09872
1.09833
1.09796
1.09773
1.09756
1.09741
1.09727
1.09714
1.09687
1.12907
1.12886
1.12865
1.12842
1.12815
1.12779
1.12738
1.12702
1.12676
1.12652
1.12628
1.126
1.12563
1.12519
1.12488
1.12462
1.12438
1.12414
1.1239
1.12366
1.12341
1.12313
1.12284
1.12261
1.12238
1.12214
1.12188
1.12159
1.12119
1.1207
1.12034
1.12008
1.11984
1.11962
1.11943
1.11921
1.11897
1.11874
1.11848
1.11818
1.11777
1.11733
1.117
1.11676
1.11655
1.11637
1.1162
1.11602
1.11582
1.1156
1.11533
1.11498
1.11447
1.11403
1.11375
1.11351
1.1133
1.11315
1.11295
1.11273
1.11251
1.1123
1.11208
1.11181
1.11147
1.11105
1.11064
1.11032
1.11006
1.10979
1.10944
1.10905
1.10874
1.10854
1.10836
1.10819
1.10806
1.10798
1.10789
1.10773
1.10755
1.10735
1.10715
1.10693
1.10662
1.10611
1.1054
1.10489
1.10467
1.10451
1.10435
1.10418
1.10401
1.10384
1.10376
1.10378
1.10372
1.10358
1.10342
1.10322
1.10288
1.10218
1.10136
1.10101
1.10082
1.10067
1.10054
1.10043
1.10037
1.10038
1.10037
1.10028
1.10018
1.10005
1.09983
1.09931
1.0986
1.09826
1.09807
1.09787
1.09768
1.09749
1.09728
1.09707
1.09682
1.0965
1.0962
1.09603
1.09588
1.09573
1.0956
1.09534
1.12783
1.12761
1.12739
1.12719
1.12697
1.12672
1.12645
1.12608
1.12562
1.12528
1.12502
1.12478
1.12457
1.12433
1.12407
1.12378
1.12344
1.12301
1.12264
1.12239
1.12215
1.12192
1.12168
1.12143
1.1212
1.12097
1.12074
1.12047
1.12012
1.11966
1.11932
1.11908
1.11885
1.11862
1.1184
1.11817
1.11794
1.11769
1.11739
1.11696
1.11649
1.11619
1.11597
1.11579
1.11562
1.11542
1.11521
1.11498
1.11472
1.11444
1.1141
1.11367
1.11325
1.11295
1.11269
1.11244
1.11225
1.11207
1.11184
1.1116
1.11136
1.1111
1.11076
1.11022
1.10975
1.1095
1.10928
1.10906
1.10885
1.10862
1.10838
1.10809
1.10773
1.10744
1.10723
1.10705
1.10689
1.10672
1.10653
1.10633
1.10612
1.10588
1.1056
1.10518
1.10451
1.10392
1.10366
1.10347
1.10331
1.10317
1.10312
1.10319
1.10313
1.10297
1.10279
1.10262
1.10243
1.10219
1.10184
1.10124
1.10047
1.10005
1.09985
1.09968
1.09953
1.09941
1.09929
1.09917
1.09906
1.09894
1.09881
1.09866
1.09849
1.09824
1.09781
1.09738
1.09719
1.09704
1.09688
1.09672
1.09654
1.09628
1.09587
1.09541
1.09515
1.09496
1.09478
1.09461
1.09443
1.09425
1.09407
1.09368
1.12688
1.12663
1.12641
1.12618
1.12594
1.12569
1.12544
1.12518
1.1249
1.12458
1.12421
1.1239
1.12361
1.12325
1.1228
1.12244
1.12217
1.12193
1.12169
1.12146
1.12125
1.12103
1.1208
1.12052
1.12013
1.11973
1.11944
1.1192
1.11898
1.11877
1.11857
1.11837
1.11815
1.11791
1.11764
1.11734
1.11702
1.11661
1.11613
1.11575
1.11549
1.11528
1.1151
1.11495
1.11476
1.11456
1.11435
1.11409
1.11368
1.1131
1.11276
1.11253
1.11231
1.11212
1.11191
1.11167
1.11142
1.11116
1.11089
1.11061
1.11031
1.10999
1.1096
1.10912
1.10875
1.10849
1.10825
1.10802
1.10782
1.10763
1.10743
1.10721
1.10698
1.10671
1.10633
1.10594
1.10568
1.10547
1.10527
1.10506
1.10483
1.10457
1.10423
1.10371
1.10319
1.10291
1.10268
1.10248
1.1023
1.10217
1.10211
1.10205
1.10188
1.10168
1.10147
1.10124
1.10096
1.10047
1.0998
1.09945
1.09927
1.09911
1.09893
1.09875
1.09857
1.0984
1.09824
1.09808
1.09791
1.0977
1.09739
1.09706
1.09688
1.09674
1.09661
1.09646
1.09628
1.09597
1.09544
1.09494
1.09469
1.09449
1.09429
1.09409
1.09391
1.09375
1.09359
1.09343
1.09328
1.09311
1.09295
1.09255
1.12605
1.12574
1.12548
1.12524
1.125
1.12475
1.12447
1.12414
1.12381
1.12353
1.12326
1.12296
1.12265
1.12233
1.12204
1.12177
1.12149
1.12119
1.12086
1.12053
1.12024
1.11998
1.11974
1.11951
1.11928
1.11905
1.11878
1.11846
1.11814
1.11788
1.11764
1.11742
1.11718
1.11693
1.11665
1.11633
1.11604
1.11579
1.11554
1.11525
1.11484
1.11443
1.11416
1.11393
1.1137
1.11347
1.11326
1.11303
1.11274
1.11231
1.11193
1.11169
1.11147
1.11126
1.11104
1.1108
1.11055
1.11028
1.10993
1.10951
1.10918
1.10892
1.10869
1.10846
1.1082
1.10789
1.10753
1.10721
1.10694
1.1067
1.10648
1.10627
1.10606
1.10584
1.1056
1.10531
1.10489
1.10448
1.10422
1.104
1.10376
1.10346
1.10308
1.10272
1.10248
1.10225
1.10204
1.10186
1.1017
1.10149
1.10125
1.101
1.10075
1.10051
1.10026
1.10001
1.09972
1.09934
1.09884
1.09846
1.09822
1.09798
1.09773
1.09751
1.09732
1.09713
1.09695
1.09677
1.0966
1.09643
1.09628
1.09613
1.09596
1.09574
1.09533
1.09469
1.09427
1.09407
1.09389
1.09373
1.09358
1.09342
1.09326
1.0931
1.09294
1.09277
1.09259
1.0924
1.09211
1.09159
1.09114
1.09071
1.12559
1.12525
1.12478
1.12434
1.12407
1.12383
1.12361
1.12339
1.12317
1.12293
1.12266
1.12229
1.12197
1.12171
1.12144
1.12118
1.12093
1.12069
1.12043
1.12016
1.11981
1.11938
1.11901
1.11877
1.11855
1.11834
1.11815
1.11795
1.11775
1.11753
1.11726
1.11684
1.11639
1.11612
1.11592
1.11571
1.11551
1.11528
1.11504
1.11478
1.1145
1.11417
1.11371
1.11317
1.11284
1.1126
1.11238
1.11217
1.11197
1.11177
1.11155
1.11126
1.11089
1.1106
1.11037
1.11014
1.1099
1.10964
1.10928
1.10881
1.10846
1.10823
1.10802
1.1078
1.10757
1.10734
1.10711
1.10686
1.10655
1.10613
1.10574
1.1055
1.1053
1.10511
1.10492
1.10472
1.10449
1.10417
1.1036
1.10302
1.10272
1.10249
1.10228
1.1021
1.10197
1.10186
1.10168
1.10149
1.10127
1.10104
1.10074
1.10024
1.09964
1.0993
1.09907
1.09885
1.09865
1.09846
1.09827
1.09806
1.09778
1.09736
1.09696
1.09673
1.09653
1.09633
1.09616
1.09602
1.09586
1.09567
1.09547
1.09526
1.09498
1.09449
1.09376
1.09334
1.09316
1.09299
1.09282
1.09267
1.09259
1.0926
1.09255
1.09239
1.09221
1.09199
1.09164
1.09106
1.09061
1.09038
1.09022
1.0899
1.12481
1.12437
1.12395
1.12366
1.12342
1.1232
1.12299
1.12278
1.12255
1.12231
1.12201
1.12164
1.12133
1.12106
1.12079
1.12053
1.12026
1.11998
1.1197
1.11941
1.11911
1.11875
1.11833
1.118
1.11777
1.11755
1.11734
1.11713
1.11692
1.11671
1.11644
1.11608
1.11574
1.11549
1.11526
1.11503
1.11477
1.11448
1.11416
1.11387
1.11359
1.11331
1.11299
1.11258
1.11214
1.11184
1.1116
1.11137
1.11115
1.11095
1.11073
1.11046
1.11011
1.10979
1.10955
1.10934
1.10912
1.10889
1.10864
1.10832
1.10789
1.10749
1.10724
1.10701
1.10678
1.10655
1.10631
1.10608
1.10584
1.10558
1.10527
1.10486
1.10453
1.10432
1.10412
1.10393
1.10372
1.10348
1.10317
1.1027
1.1022
1.10191
1.10168
1.10147
1.10128
1.1011
1.1009
1.10069
1.10046
1.10022
1.09993
1.0995
1.09898
1.09867
1.09846
1.09826
1.09806
1.09786
1.09764
1.09738
1.09701
1.09659
1.09634
1.09612
1.09592
1.09575
1.09557
1.09534
1.09508
1.09481
1.09453
1.09416
1.09358
1.09306
1.09284
1.09267
1.09253
1.09242
1.09232
1.09216
1.09198
1.09178
1.09156
1.09132
1.091
1.0906
1.09031
1.09011
1.08993
1.08974
1.08957
1.08921
1.12374
1.12348
1.12324
1.12302
1.12282
1.12263
1.12242
1.1222
1.12194
1.12158
1.12124
1.12098
1.12073
1.12048
1.12023
1.11995
1.11961
1.1192
1.11885
1.11857
1.11831
1.11802
1.11769
1.11738
1.11713
1.1169
1.11667
1.1164
1.11608
1.11582
1.11563
1.11543
1.11522
1.11498
1.1147
1.1143
1.11386
1.11357
1.11332
1.11306
1.11279
1.11252
1.11221
1.11183
1.11144
1.11114
1.1109
1.11068
1.11048
1.11028
1.11006
1.10978
1.10939
1.109
1.10875
1.10854
1.10833
1.10811
1.10787
1.1076
1.10723
1.10678
1.10649
1.10626
1.10605
1.10582
1.10559
1.10537
1.10516
1.10492
1.10461
1.10417
1.10382
1.10361
1.10342
1.10322
1.10302
1.10278
1.10249
1.10207
1.10161
1.10133
1.10111
1.10089
1.10066
1.10044
1.10022
1.09998
1.09972
1.09939
1.0989
1.09845
1.09821
1.09802
1.09784
1.09766
1.09748
1.09727
1.09701
1.09663
1.09626
1.09604
1.09582
1.0956
1.09537
1.09512
1.09486
1.09457
1.0942
1.09361
1.093
1.09271
1.09252
1.09236
1.09223
1.09215
1.09205
1.09191
1.09175
1.09155
1.09127
1.09079
1.09031
1.09006
1.08987
1.08968
1.08951
1.08933
1.08915
1.08897
1.08854
1.12338
1.1231
1.12287
1.12266
1.12247
1.12229
1.12209
1.12188
1.12164
1.12133
1.12094
1.1206
1.12034
1.12009
1.11982
1.11951
1.11914
1.11881
1.11853
1.11826
1.11798
1.11768
1.11733
1.117
1.11673
1.11649
1.11626
1.11599
1.11569
1.11548
1.11528
1.11507
1.11484
1.11459
1.11428
1.11387
1.11351
1.11324
1.11299
1.11273
1.11245
1.11214
1.11172
1.11134
1.11107
1.11083
1.11059
1.11037
1.11016
1.10992
1.10962
1.1092
1.10887
1.10866
1.10846
1.10826
1.10805
1.10782
1.10757
1.10723
1.10678
1.10643
1.10619
1.10597
1.10576
1.10553
1.1053
1.10508
1.10486
1.10459
1.10419
1.10373
1.10346
1.10327
1.10307
1.10288
1.10267
1.10242
1.1021
1.10169
1.10134
1.10111
1.10088
1.10066
1.10044
1.10022
1.09998
1.09973
1.09947
1.09913
1.09865
1.09824
1.09802
1.09782
1.09764
1.09746
1.09726
1.09705
1.09683
1.09655
1.09617
1.0958
1.09554
1.09529
1.09503
1.09476
1.09448
1.09419
1.09387
1.09347
1.09293
1.09252
1.09229
1.09211
1.09196
1.09182
1.09169
1.09154
1.09138
1.09118
1.09095
1.09063
1.09017
1.08977
1.08952
1.08932
1.08913
1.08895
1.08876
1.08858
1.08816
1.12322
1.12291
1.12268
1.12248
1.1223
1.12211
1.12191
1.12171
1.12148
1.12118
1.12079
1.1204
1.1201
1.11982
1.11952
1.11917
1.11885
1.11859
1.11832
1.11805
1.11778
1.11749
1.11718
1.11682
1.11649
1.11622
1.11596
1.11569
1.11546
1.11526
1.11505
1.11483
1.1146
1.11435
1.11407
1.11373
1.11335
1.11305
1.11279
1.11253
1.11225
1.11193
1.11151
1.11117
1.11093
1.1107
1.11046
1.11023
1.10999
1.10971
1.10933
1.109
1.10879
1.10858
1.10837
1.10816
1.10793
1.10769
1.10743
1.1071
1.10674
1.10646
1.10622
1.10599
1.10574
1.10551
1.10528
1.10505
1.10481
1.10452
1.1041
1.10365
1.10339
1.1032
1.103
1.1028
1.10256
1.10226
1.10191
1.10164
1.10143
1.10122
1.101
1.10079
1.10058
1.10035
1.10011
1.09986
1.09958
1.09921
1.09876
1.09847
1.09827
1.09808
1.09789
1.09769
1.09748
1.09727
1.09705
1.09681
1.09654
1.09619
1.09579
1.09549
1.09522
1.09495
1.09468
1.0944
1.09412
1.09382
1.09345
1.093
1.09264
1.09242
1.09224
1.09208
1.09193
1.09178
1.09162
1.09144
1.09124
1.091
1.09067
1.0902
1.08979
1.08957
1.08938
1.08921
1.08903
1.08886
1.08846
1.12321
1.12281
1.12257
1.12236
1.12217
1.12198
1.12179
1.12158
1.12135
1.12106
1.12066
1.12025
1.11994
1.11967
1.11938
1.11903
1.11871
1.11845
1.11818
1.11792
1.11764
1.11737
1.11707
1.11671
1.11636
1.11608
1.11583
1.11557
1.11532
1.11511
1.1149
1.11468
1.11445
1.11421
1.11395
1.11365
1.11326
1.11288
1.11259
1.11232
1.11205
1.11174
1.11135
1.11094
1.11066
1.11041
1.11017
1.10994
1.10972
1.10946
1.10908
1.10871
1.10847
1.10826
1.10804
1.10782
1.10758
1.10734
1.10707
1.10676
1.1064
1.1061
1.10583
1.10558
1.10532
1.10507
1.10483
1.1046
1.10436
1.10408
1.10368
1.1032
1.1029
1.10269
1.10249
1.10227
1.10203
1.10175
1.10142
1.1011
1.10084
1.10061
1.10039
1.10017
1.09993
1.09969
1.09944
1.09918
1.09889
1.09849
1.09802
1.09775
1.09754
1.09734
1.09714
1.09693
1.09672
1.09649
1.09624
1.09599
1.09573
1.09544
1.09506
1.09466
1.09435
1.09406
1.09377
1.09347
1.09317
1.09288
1.09255
1.09215
1.09178
1.09154
1.09135
1.09119
1.09102
1.09085
1.09068
1.09049
1.09029
1.09007
1.08978
1.08936
1.0889
1.08862
1.08843
1.08825
1.08806
1.08789
1.08748
)
;

boundaryField
{
    inlet
    {
        type            fixedValue;
        value           nonuniform 0();
    }
    outlet
    {
        type            inletOutlet;
        inletValue      uniform 1;
        value           nonuniform List<scalar> 
19
(
1.10657
1.10602
1.10534
1.10429
1.10332
1.10189
1.10025
1.09851
1.09689
1.09536
1.09366
1.09253
1.09074
1.08994
1.08924
1.08853
1.08816
1.08847
1.08749
)
;
    }
    bottom
    {
        type            symmetryPlane;
    }
    top
    {
        type            symmetryPlane;
    }
    obstacle
    {
        type            zeroGradient;
    }
    front
    {
        type            empty;
    }
    back
    {
        type            empty;
    }
    procBoundary55to47
    {
        type            processor;
        value           nonuniform List<scalar> 
133
(
1.11765
1.11749
1.11734
1.11722
1.11716
1.11714
1.11701
1.11682
1.11661
1.11639
1.11609
1.11561
1.11495
1.11455
1.11435
1.11417
1.11402
1.11391
1.11387
1.11381
1.11367
1.11349
1.1133
1.11308
1.1128
1.11237
1.11178
1.1114
1.11118
1.111
1.11083
1.11073
1.11072
1.11068
1.1105
1.11029
1.11006
1.10979
1.10938
1.1088
1.1084
1.10819
1.10801
1.10784
1.10774
1.10762
1.13894
1.13832
1.13756
1.13725
1.13708
1.13691
1.13677
1.13667
1.13654
1.13636
1.13617
1.13595
1.13562
1.13507
1.13463
1.13444
1.13427
1.13412
1.13399
1.13387
1.13372
1.13357
1.13342
1.13319
1.13273
1.1321
1.13179
1.13161
1.13144
1.13129
1.13118
1.13108
1.13091
1.13072
1.13052
1.1302
1.12957
1.12892
1.12865
1.12848
1.12831
1.12816
1.12806
1.12797
1.12784
1.12767
1.1275
1.12727
1.12682
1.12617
1.12583
1.12565
1.12548
1.12532
1.12518
1.12504
1.12487
1.12469
1.12448
1.12419
1.12369
1.12323
1.12301
1.12285
1.12269
1.12256
1.1225
1.12246
1.12234
1.12216
1.12194
1.12163
1.12104
1.12034
1.12001
1.1198
1.11961
1.11942
1.11929
1.11919
1.11903
1.11884
1.11864
1.11843
1.11817
1.11773
1.11773
)
;
    }
    procBoundary55to54
    {
        type            processor;
        value           nonuniform List<scalar> 
19
(
1.13858
1.13782
1.13716
1.13614
1.13484
1.13347
1.13213
1.13065
1.12927
1.12805
1.12722
1.12639
1.12587
1.12516
1.12415
1.12415
1.12385
1.12368
1.12365
)
;
    }
}


// ************************************************************************* //
