/*--------------------------------*- C++ -*----------------------------------*\
  =========                 |
  \\      /  F ield         | OpenFOAM: The Open Source CFD Toolbox
   \\    /   O peration     | Website:  https://openfoam.org
    \\  /    A nd           | Version:  7
     \\/     M anipulation  |
\*---------------------------------------------------------------------------*/
FoamFile
{
    version     2.0;
    format      ascii;
    class       volVectorField;
    location    "37.5";
    object      U;
}
// * * * * * * * * * * * * * * * * * * * * * * * * * * * * * * * * * * * * * //

dimensions      [0 1 -1 0 0 0 0];

internalField   nonuniform List<vector> 
135168
(
(3 5.62426e-18 0)
(3 -5.41619e-18 0)
(3 -2.76881e-17 0)
(3 -8.84344e-17 0)
(3 -4.93466e-17 0)
(3 3.4779e-17 0)
(3 -1.82197e-17 0)
(3 -5.8566e-18 0)
(3 5.79174e-17 0)
(3 8.83459e-17 0)
(3 9.47832e-17 0)
(3 7.78477e-17 0)
(3 8.47242e-17 0)
(3 1.47643e-16 0)
(3 2.93823e-16 0)
(3 4.57987e-16 0)
(3 3.90227e-16 0)
(3 1.25603e-16 0)
(3 2.3941e-16 0)
(3 4.12262e-16 0)
(3 3.68743e-16 0)
(3 3.57357e-16 0)
(3 2.76901e-16 0)
(3 9.47709e-17 0)
(3 1.03188e-16 0)
(3 -5.10052e-17 0)
(3 -2.05624e-16 0)
(3 8.74976e-18 0)
(3 1.12939e-16 0)
(3 5.07658e-17 0)
(3 -1.32997e-16 0)
(3 -3.5527e-16 0)
(3 -3.75804e-16 0)
(3 -7.19275e-17 0)
(3 8.65579e-17 0)
(3 9.79553e-17 0)
(3 1.31955e-16 0)
(3 6.65333e-16 0)
(3 9.34818e-16 0)
(3 6.08619e-16 0)
(3 -2.15532e-16 0)
(3 -3.58047e-16 0)
(3 -4.98395e-16 0)
(3 -3.17682e-16 0)
(3 -2.2971e-16 0)
(3 1.31237e-16 0)
(3 5.20803e-16 0)
(3 9.29437e-16 0)
(3 1.04111e-15 0)
(3 7.07603e-16 0)
(3 3.60771e-16 0)
(3 1.79532e-16 0)
(3 -7.3563e-17 0)
(3 -3.74208e-16 0)
(3 -8.3887e-16 0)
(3 -1.04469e-15 0)
(3 -8.94155e-16 0)
(3 -5.88864e-16 0)
(3 -2.5606e-16 0)
(3 -5.92236e-16 0)
(3 -1.39455e-16 0)
(3 1.59412e-16 0)
(3 5.04625e-16 0)
(3 1.28189e-15 0)
(3 1.17677e-15 0)
(3 -2.40012e-16 0)
(3 -4.29808e-16 0)
(3 -1.02648e-15 0)
(3 -1.17826e-15 0)
(3 -5.15596e-16 0)
(3 7.3386e-16 0)
(3 9.93891e-16 0)
(3 9.69264e-16 0)
(3 8.90727e-16 0)
(3 5.84979e-16 0)
(3 1.36205e-16 0)
(3 4.41846e-17 0)
(3 -5.50825e-16 0)
(3 -1.52017e-15 0)
(3 -1.76468e-15 0)
(3 -1.86875e-15 0)
(3 -1.30966e-15 0)
(3 -1.15613e-15 0)
(3 -8.76996e-16 0)
(3 -5.32767e-16 0)
(3 -5.96651e-16 0)
(3 -7.45187e-16 0)
(3 -1.24147e-15 0)
(3 -1.39114e-15 0)
(3 -1.55017e-15 0)
(3 -1.61466e-15 0)
(3 -1.52102e-15 0)
(3 -1.51878e-15 0)
(3 -1.31311e-15 0)
(3 -1.26918e-15 0)
(3 -1.3106e-15 0)
(3 -1.28459e-15 0)
(3 -1.17419e-15 0)
(3 -9.92215e-16 0)
(3 -4.93201e-16 0)
(3 -4.49402e-16 0)
(3 -1.19534e-15 0)
(3 -1.42308e-15 0)
(3 -1.42559e-15 0)
(3 -1.4647e-15 0)
(3 -1.326e-15 0)
(3 -1.05195e-15 0)
(3 -9.26459e-16 0)
(3 -1.22456e-15 0)
(3 -1.45103e-15 0)
(3 -1.44186e-15 0)
(3 -1.24995e-15 0)
(3 -2.04774e-15 0)
(3 -3.23929e-15 0)
(3 -2.06301e-15 0)
(3 -8.53622e-16 0)
(3 -7.54218e-16 0)
(3 -8.49834e-16 0)
(3 -1.11497e-15 0)
(3 -1.76677e-15 0)
(3 -3.02001e-15 0)
(3 -3.79386e-15 0)
(3 -3.69434e-15 0)
(3 -3.12013e-15 0)
(3 -2.5601e-15 0)
(3 -2.58585e-15 0)
(3 -2.32211e-15 0)
(3 -1.76182e-15 0)
(3 -1.89465e-15 0)
(3 -1.18546e-15 0)
(3 -2.45631e-16 0)
(3 -1.00739e-15 0)
(3 -1.65379e-15 0)
(3 -1.58222e-15 0)
(3 -1.19068e-15 0)
(3 -7.7578e-16 0)
(3 -2.7997e-16 0)
(3 -5.91276e-18 0)
(3 -5.70492e-17 0)
(3 -5.46923e-16 0)
(3 -1.18573e-15 0)
(3 -1.57974e-15 0)
(3 -1.56919e-15 0)
(3 -1.46744e-15 0)
(3 -1.1183e-15 0)
(3 -1.11175e-15 0)
(3 -1.06226e-15 0)
(3 -6.68771e-16 0)
(3 -6.12382e-16 0)
(3 -6.57554e-16 0)
(3 -6.68453e-16 0)
(3 4.23656e-17 0)
(3 7.68155e-16 0)
(3 9.08136e-16 0)
(3 1.11658e-15 0)
(3 1.34471e-15 0)
(3 1.47986e-15 0)
(3 1.35226e-15 0)
(3 9.63453e-16 0)
(3 9.19888e-16 0)
(3 8.54758e-16 0)
(3 7.38139e-16 0)
(3 5.49952e-16 0)
(3 1.4349e-15 0)
(3 1.70322e-15 0)
(3 1.39876e-15 0)
(3 1.17585e-15 0)
(3 4.44771e-16 0)
(3 1.64014e-16 0)
(3 5.62809e-16 0)
(3 9.48897e-16 0)
(3 1.10542e-15 0)
(3 1.32926e-15 0)
(3 1.35742e-15 0)
(3 1.20871e-15 0)
(3 1.25602e-15 0)
(3 1.35067e-15 0)
(3 1.69531e-15 0)
(3 2.26108e-15 0)
(3 2.34274e-15 0)
(3 2.35153e-15 0)
(3 2.26894e-15 0)
(3 2.11672e-15 0)
(3 2.40008e-15 0)
(3 2.943e-15 0)
(3 2.97741e-15 0)
(3 2.90754e-15 0)
(3 2.67561e-15 0)
(3 2.72884e-15 0)
(3 2.39836e-15 0)
(3 2.33578e-15 0)
(3 2.00367e-15 0)
(3 1.76733e-15 0)
(3 1.00426e-15 0)
(3 7.59895e-16 0)
(3 1.05733e-15 0)
(3 2.26044e-15 0)
(3 2.4683e-15 0)
(3 2.66822e-15 0)
(3 2.66597e-15 0)
(3 2.71576e-15 0)
(3 2.72079e-15 0)
(3 3.04479e-15 0)
(3 3.76287e-15 0)
(3 5.10661e-15 0)
(3 3.9943e-15 0)
(3 2.9e-15 0)
(3 2.63436e-15 0)
(3 2.36107e-15 0)
(3 2.21409e-15 0)
(3 2.11792e-15 0)
(3 1.7616e-15 0)
(3 1.69197e-15 0)
(3 1.81177e-15 0)
(3 1.03067e-15 0)
(3 2.14129e-17 0)
(3 1.00039e-17 0)
(3 1.0079e-15 0)
(3 2.01664e-15 0)
(3 2.48164e-15 0)
(3 2.56308e-15 0)
(3 2.01068e-15 0)
(3 1.88602e-15 0)
(3 2.04102e-15 0)
(3 1.53366e-15 0)
(3 5.61374e-16 0)
(3 3.86813e-16 0)
(3 4.32477e-16 0)
(3 -9.55489e-18 0)
(3 -2.27516e-16 0)
(3 -4.85338e-16 0)
(3 -5.2571e-16 0)
(3 6.60338e-16 0)
(3 1.47876e-15 0)
(3 1.2612e-15 0)
(3 1.02181e-15 0)
(3 1.00819e-15 0)
(3 7.39064e-16 0)
(3 3.47274e-16 0)
(3 1.53642e-16 0)
(3 5.79478e-18 0)
(3 -5.69667e-17 0)
(3 -2.7467e-16 0)
(3 -4.15394e-16 0)
(3 -3.88044e-16 0)
(3 -3.49534e-16 0)
(3 -4.3081e-16 0)
(3 -5.56646e-16 0)
(3 -5.48389e-16 0)
(3 -1.05416e-15 0)
(3 -1.14929e-15 0)
(3 -7.50731e-17 0)
(3 2.46511e-16 0)
(3 -3.45534e-18 0)
(3 -1.46266e-16 0)
(3 -2.39394e-16 0)
(3 -1.69352e-16 0)
(3 -9.23562e-17 0)
(3 -9.71123e-16 0)
(3 -2.28249e-15 0)
(3 -3.38375e-15 0)
(3 -5.22956e-15 0)
(3 -5.5839e-15 0)
(3 -2.47097e-15 0)
(3 -7.11743e-16 0)
(3 -7.09634e-16 0)
(3 -8.83458e-16 0)
(3 -1.12233e-15 0)
(3 -1.25971e-15 0)
(3 8.97987e-16 0)
(3 2.83674e-15 0)
(3 3.07996e-15 0)
(3 3.22999e-15 0)
(3 3.03087e-15 0)
(3 2.70275e-15 0)
(3 2.39217e-15 0)
(3 2.45882e-15 0)
(3 2.49746e-15 0)
(3 2.56256e-15 0)
(3 2.73703e-15 0)
(3 2.68319e-15 0)
(3 2.39332e-15 0)
(3 2.21232e-15 0)
(3 1.97516e-15 0)
(3 1.64695e-15 0)
(3 1.0347e-15 0)
(3 1.38416e-15 0)
(3 1.5441e-15 0)
(3 1.78365e-15 0)
(3 2.34442e-15 0)
(3 2.49728e-15 0)
(3 2.59549e-15 0)
(3 2.96755e-15 0)
(3 1.90553e-15 0)
(3 1.70946e-15 0)
(3 1.09895e-15 0)
(3 4.60362e-16 0)
(3 8.09274e-17 0)
(3 -4.06524e-16 0)
(3 6.60956e-16 0)
(3 1.59342e-15 0)
(3 1.85012e-15 0)
(3 1.90775e-15 0)
(3 2.06908e-15 0)
(3 2.28655e-15 0)
(3 2.32231e-15 0)
(3 2.14683e-15 0)
(3 1.72735e-15 0)
(3 1.56351e-15 0)
(3 1.53069e-15 0)
(3 1.34873e-15 0)
(3 1.77482e-15 0)
(3 2.02892e-15 0)
(3 2.38124e-15 0)
(3 2.67446e-15 0)
(3 3.04513e-15 0)
(3 3.12488e-15 0)
(3 3.34018e-15 0)
(3 2.45949e-15 0)
(3 1.7939e-15 0)
(3 1.29662e-15 0)
(3 7.73827e-16 0)
(3 4.30206e-16 0)
(3 2.26356e-17 0)
(3 -6.0527e-18 0)
(3 4.34144e-16 0)
(3 3.92985e-16 0)
(3 -4.51383e-16 0)
(3 -7.87697e-16 0)
(3 6.78658e-16 0)
(3 1.06743e-15 0)
(3 1.24157e-15 0)
(3 2.29972e-15 0)
(3 3.47381e-15 0)
(3 3.81023e-15 0)
(3 3.59104e-15 0)
(3 3.74646e-15 0)
(3 4.43115e-15 0)
(3 4.76444e-15 0)
(3 4.83973e-15 0)
(3 3.94503e-15 0)
(3 2.90731e-15 0)
(3 2.74442e-15 0)
(3 2.31994e-15 0)
(3 1.12529e-15 0)
(3 2.35566e-16 0)
(3 -2.60419e-16 0)
(3 -6.30649e-16 0)
(3 -1.29759e-15 0)
(3 -2.15721e-15 0)
(3 -1.71106e-15 0)
(3 8.65025e-16 0)
(3 1.92349e-15 0)
(3 2.19471e-15 0)
(3 2.56146e-15 0)
(3 3.03006e-15 0)
(3 3.27838e-15 0)
(3 4.275e-15 0)
(3 4.71676e-15 0)
(3 4.19442e-15 0)
(3 1.2694e-15 0)
(3 4.30905e-17 0)
(3 4.95889e-16 0)
(3 -2.67335e-16 0)
(3 -9.97619e-16 0)
(3 -1.59318e-15 0)
(3 -1.4435e-15 0)
(3 -2.51261e-16 0)
(3 6.86203e-16 0)
(3 1.29387e-15 0)
(3 6.4288e-16 0)
(3 -7.21819e-16 0)
(3 -1.05718e-15 0)
(3 -1.41257e-15 0)
(3 -1.1593e-15 0)
(3 -1.07569e-15 0)
(3 -5.95737e-16 0)
(3 -1.86073e-16 0)
(3 -1.21625e-16 0)
(3 -1.04538e-15 0)
(3 -1.50365e-15 0)
(3 -1.58243e-15 0)
(3 -1.75425e-15 0)
(3 -1.1718e-15 0)
(3 2.2453e-17 0)
(3 2.05499e-17 0)
(3 7.63468e-18 0)
(3 -1.16301e-17 0)
(3 -2.29993e-17 0)
(3 -2.85769e-18 0)
(3 -1.11173e-17 0)
(3 -6.5754e-17 0)
(3 -1.15732e-16 0)
(3 -1.32995e-16 0)
(3 1.48982e-16 0)
(3 2.50341e-16 0)
(3 5.71997e-17 0)
(3 1.55078e-16 0)
(3 2.34705e-16 0)
(3 1.98843e-16 0)
(3 -8.70832e-17 0)
(3 -2.65001e-16 0)
(3 -2.7912e-16 0)
(3 1.42236e-16 0)
(3 1.43504e-16 0)
(3 2.41081e-16 0)
(3 4.34597e-16 0)
(3 4.25457e-16 0)
(3 5.38102e-16 0)
(3 9.46357e-16 0)
(3 7.29929e-17 0)
(3 -6.88369e-16 0)
(3 -1.03134e-15 0)
(3 -1.05034e-15 0)
(3 -1.19294e-15 0)
(3 -1.28012e-15 0)
(3 -5.62436e-16 0)
(3 -3.18102e-16 0)
(3 -4.02361e-16 0)
(3 -5.92511e-16 0)
(3 -6.78722e-17 0)
(3 1.38369e-15 0)
(3 2.33405e-15 0)
(3 9.26713e-16 0)
(3 4.5622e-17 0)
(3 -7.62727e-16 0)
(3 -5.41612e-16 0)
(3 -3.94372e-16 0)
(3 -2.36925e-16 0)
(3 -1.69943e-16 0)
(3 -1.3417e-16 0)
(3 -3.08265e-16 0)
(3 -4.4405e-16 0)
(3 -3.87541e-16 0)
(3 -1.86648e-16 0)
(3 5.51722e-17 0)
(3 4.71941e-16 0)
(3 2.86746e-16 0)
(3 -3.18437e-16 0)
(3 -5.59438e-16 0)
(3 -9.05845e-16 0)
(3 -1.49097e-15 0)
(3 -1.36192e-15 0)
(3 -3.23012e-16 0)
(3 3.73113e-16 0)
(3 8.45751e-16 0)
(3 1.28443e-15 0)
(3 2.07386e-16 0)
(3 -1.96452e-15 0)
(3 -2.53678e-15 0)
(3 -2.42239e-15 0)
(3 -2.6759e-15 0)
(3 -1.44905e-15 0)
(3 -2.55593e-16 0)
(3 2.63774e-16 0)
(3 7.5779e-16 0)
(3 9.44504e-16 0)
(3 8.55706e-16 0)
(3 7.87842e-16 0)
(3 7.09866e-16 0)
(3 1.19511e-16 0)
(3 -4.05393e-17 0)
(3 -5.10582e-16 0)
(3 -3.99167e-16 0)
(3 5.62747e-17 0)
(3 6.45123e-16 0)
(3 7.00597e-16 0)
(3 9.7227e-16 0)
(3 1.45327e-15 0)
(3 1.24615e-15 0)
(3 6.101e-16 0)
(3 2.69392e-16 0)
(3 -1.6171e-16 0)
(3 -4.81839e-16 0)
(3 -3.91424e-16 0)
(3 -3.37365e-16 0)
(3 -3.12804e-16 0)
(3 -1.89034e-16 0)
(3 -1.79098e-16 0)
(3 -2.02941e-16 0)
(3 -1.4065e-16 0)
(3 -3.3223e-16 0)
(3 -5.85178e-16 0)
(3 -6.86361e-16 0)
(3 -1.46589e-15 0)
(3 -1.69642e-15 0)
(3 -2.2527e-15 0)
(3 -2.9086e-15 0)
(3 -3.09693e-15 0)
(3 -3.01713e-15 0)
(3 -2.81413e-15 0)
(3 -2.76494e-15 0)
(3 -3.09002e-15 0)
(3 -3.47736e-15 0)
(3 -3.56881e-15 0)
(3 -3.81102e-15 0)
(3 -4.08181e-15 0)
(3 -4.87503e-15 0)
(3 -3.48196e-15 0)
(3 -2.39268e-15 0)
(3 -2.16496e-15 0)
(3 -2.62749e-15 0)
(3 -3.36929e-15 0)
(3 -4.73654e-15 0)
(3 -6.84463e-15 0)
(3 -6.33227e-15 0)
(3 -5.86434e-15 0)
(3 -5.23606e-15 0)
(3 -4.63998e-15 0)
(3 -3.52504e-15 0)
(3 -3.52114e-15 0)
(3 -3.68021e-15 0)
(3 -2.72564e-15 0)
(3 -1.02083e-15 0)
(3 2.05462e-16 0)
(3 1.71429e-16 0)
(3 -7.75949e-16 0)
(3 -1.43112e-15 0)
(3 -1.35594e-15 0)
(3 -7.02106e-16 0)
(3 -6.5499e-16 0)
(3 -7.11669e-16 0)
(3 -9.5007e-16 0)
(3 -1.43443e-15 0)
(3 -1.92063e-15 0)
(3 -2.65691e-15 0)
(3 -2.57498e-15 0)
(3 -2.01729e-15 0)
(3 -2.62272e-16 0)
(3 -3.34813e-17 0)
(3 1.14284e-17 0)
(3 -1.05547e-15 0)
(3 -1.41097e-15 0)
(3 -1.69823e-15 0)
(3 -2.27421e-15 0)
(3 -2.0382e-15 0)
(3 -1.15131e-16 0)
(3 2.82018e-16 0)
(3 4.63703e-16 0)
(3 4.19659e-16 0)
(3 1.80017e-16 0)
(3 5.26991e-17 0)
(3 1.98864e-17 0)
(3 -1.9929e-16 0)
(3 -6.58559e-16 0)
(3 -4.99756e-16 0)
(3 -4.33717e-16 0)
(3 6.54988e-16 0)
(3 1.1621e-15 0)
(3 1.94205e-15 0)
(3 2.1339e-15 0)
(3 2.10805e-15 0)
(3 2.21776e-15 0)
(3 2.57516e-15 0)
(3 2.63594e-15 0)
(3 2.46798e-15 0)
(3 2.25212e-15 0)
(3 2.39991e-15 0)
(3 2.46565e-15 0)
(3 2.61994e-15 0)
(3 3.25634e-15 0)
(3 3.29379e-15 0)
(3 2.51658e-15 0)
(3 2.55566e-15 0)
(3 2.0737e-15 0)
(3 1.23111e-15 0)
(3 3.53049e-16 0)
(3 1.78754e-15 0)
(3 2.7309e-15 0)
(3 2.88188e-15 0)
(3 2.4923e-15 0)
(3 2.45045e-15 0)
(3 2.2462e-15 0)
(3 1.81898e-15 0)
(3 9.8814e-16 0)
(3 9.05233e-16 0)
(3 6.01989e-16 0)
(3 2.27384e-16 0)
(3 3.5337e-17 0)
(3 2.77147e-16 0)
(3 1.2899e-15 0)
(3 2.04289e-15 0)
(3 2.26085e-15 0)
(3 2.28944e-15 0)
(3 2.18759e-15 0)
(3 2.78389e-15 0)
(3 3.64199e-15 0)
(3 4.06317e-15 0)
(3 2.86518e-15 0)
(3 2.19893e-15 0)
(3 2.09449e-15 0)
(3 2.30408e-15 0)
(3 2.34788e-15 0)
(3 2.44929e-15 0)
(3 2.84015e-15 0)
(3 3.08157e-15 0)
(3 2.95858e-15 0)
(3 2.57891e-15 0)
(3 2.1429e-15 0)
(3 1.27975e-15 0)
(3 1.11998e-15 0)
(3 3.40233e-15 0)
(3 4.22632e-15 0)
(3 4.12479e-15 0)
(3 3.28583e-15 0)
(3 2.48094e-15 0)
(3 1.82693e-15 0)
(3 1.47663e-15 0)
(3 1.00732e-15 0)
(3 5.92424e-16 0)
(3 7.72853e-16 0)
(3 9.76961e-16 0)
(3 1.04462e-15 0)
(3 1.32411e-15 0)
(3 1.13905e-15 0)
(3 8.11084e-16 0)
(3 2.05697e-15 0)
(3 3.85932e-15 0)
(3 4.03414e-15 0)
(3 1.74297e-15 0)
(3 1.29852e-15 0)
(3 6.19125e-16 0)
(3 -4.62403e-16 0)
(3 -5.92162e-16 0)
(3 -1.00934e-15 0)
(3 -1.36336e-15 0)
(3 -1.52858e-15 0)
(3 -2.07006e-15 0)
(3 -2.25666e-15 0)
(3 -2.01427e-15 0)
(3 -1.46068e-15 0)
(3 -1.19789e-15 0)
(3 -1.16032e-15 0)
(3 -1.29124e-15 0)
(3 -1.44146e-15 0)
(3 -1.66996e-15 0)
(3 -2.08152e-15 0)
(3 -9.08302e-16 0)
(3 1.16945e-16 0)
(3 5.86813e-16 0)
(3 4.27391e-16 0)
(3 -2.95757e-16 0)
(3 -7.47457e-16 0)
(3 -2.07103e-15 0)
(3 -3.72777e-15 0)
(3 -4.86237e-15 0)
(3 -4.90882e-15 0)
(3 -3.97257e-15 0)
(3 -3.30572e-15 0)
(3 -2.85514e-15 0)
(3 -2.97974e-15 0)
(3 -3.11309e-15 0)
(3 -1.1086e-15 0)
(3 2.14607e-15 0)
(3 3.38948e-15 0)
(3 3.30149e-15 0)
(3 2.75912e-15 0)
(3 2.53927e-15 0)
(3 2.63685e-15 0)
(3 2.92318e-15 0)
(3 2.99061e-15 0)
(3 2.64694e-15 0)
(3 2.26396e-15 0)
(3 2.16496e-15 0)
(3 2.75519e-15 0)
(3 2.93321e-15 0)
(3 3.583e-15 0)
(3 4.00903e-15 0)
(3 3.66887e-15 0)
(3 3.07878e-15 0)
(3 4.66817e-15 0)
(3 5.6916e-15 0)
(3 5.18902e-15 0)
(3 4.59885e-15 0)
(3 3.50105e-15 0)
(3 3.27507e-15 0)
(3 3.01523e-15 0)
(3 2.19754e-15 0)
(3 1.80704e-15 0)
(3 1.53137e-15 0)
(3 8.9762e-16 0)
(3 -8.8991e-18 0)
(3 -6.37186e-17 0)
(3 6.26515e-16 0)
(3 1.3704e-15 0)
(3 1.83923e-15 0)
(3 1.81394e-15 0)
(3 1.43265e-15 0)
(3 1.81883e-15 0)
(3 2.14522e-15 0)
(3 2.10415e-15 0)
(3 1.52861e-15 0)
(3 8.49796e-16 0)
(3 2.66469e-15 0)
(3 4.29873e-15 0)
(3 4.59054e-15 0)
(3 4.82401e-15 0)
(3 4.96647e-15 0)
(3 5.72596e-15 0)
(3 5.62893e-15 0)
(3 4.81932e-15 0)
(3 3.86967e-15 0)
(3 3.65567e-15 0)
(3 3.8675e-15 0)
(3 3.46982e-15 0)
(3 2.6144e-15 0)
(3 2.42403e-15 0)
(3 1.88896e-15 0)
(3 1.42473e-15 0)
(3 2.02814e-15 0)
(3 2.71756e-15 0)
(3 2.74743e-15 0)
(3 2.75159e-15 0)
(3 2.9762e-15 0)
(3 4.01274e-15 0)
(3 4.13429e-15 0)
(3 3.97166e-15 0)
(3 3.66857e-15 0)
(3 3.71525e-15 0)
(3 5.62515e-15 0)
(3 6.0899e-15 0)
(3 6.12161e-15 0)
(3 6.41308e-15 0)
(3 6.47506e-15 0)
(3 5.55478e-15 0)
(3 5.18821e-15 0)
(3 4.09156e-15 0)
(3 3.34277e-15 0)
(3 2.75665e-15 0)
(3 1.66699e-15 0)
(3 2.03174e-16 0)
(3 -3.78541e-16 0)
(3 -4.19114e-16 0)
(3 -4.53583e-16 0)
(3 -2.7524e-16 0)
(3 6.85148e-16 0)
(3 1.55279e-15 0)
(3 1.62452e-15 0)
(3 1.02135e-15 0)
(3 6.62496e-16 0)
(3 8.66183e-16 0)
(3 1.28886e-15 0)
(3 -2.90829e-16 0)
(3 -1.67063e-15 0)
(3 -2.34935e-15 0)
(3 -4.24904e-15 0)
(3 -4.28202e-15 0)
(3 -2.97107e-15 0)
(3 -2.41436e-15 0)
(3 -3.05204e-15 0)
(3 -4.30656e-15 0)
(3 -4.8147e-15 0)
(3 -4.77381e-15 0)
(3 -4.07669e-15 0)
(3 -3.57074e-15 0)
(3 -3.14957e-15 0)
(3 -2.87341e-15 0)
(3 -3.03899e-15 0)
(3 -3.05973e-15 0)
(3 -1.98789e-15 0)
(3 -1.43418e-15 0)
(3 -1.21109e-15 0)
(3 -4.72015e-16 0)
(3 -1.09999e-15 0)
(3 -2.54378e-15 0)
(3 -5.9451e-16 0)
(3 9.90174e-16 0)
(3 1.23383e-15 0)
(3 8.17325e-18 0)
(3 3.07818e-18 0)
(3 -3.22631e-17 0)
(3 -1.20387e-16 0)
(3 -2.42063e-16 0)
(3 -2.30744e-16 0)
(3 3.94779e-17 0)
(3 1.66369e-17 0)
(3 -3.99061e-17 0)
(3 2.52844e-17 0)
(3 6.5426e-17 0)
(3 5.41934e-17 0)
(3 8.36177e-17 0)
(3 1.88472e-17 0)
(3 -1.01462e-16 0)
(3 -2.65457e-16 0)
(3 -3.24786e-16 0)
(3 -2.6995e-16 0)
(3 -4.49846e-16 0)
(3 -6.36908e-16 0)
(3 -5.19261e-16 0)
(3 -5.05646e-16 0)
(3 -1.17388e-16 0)
(3 -1.36272e-16 0)
(3 -5.60572e-16 0)
(3 -6.77479e-16 0)
(3 -4.76828e-16 0)
(3 -4.33464e-17 0)
(3 -2.33611e-16 0)
(3 5.36813e-17 0)
(3 3.85874e-16 0)
(3 6.53446e-16 0)
(3 2.35545e-17 0)
(3 -9.49277e-16 0)
(3 -1.10367e-15 0)
(3 -1.14076e-15 0)
(3 -1.16652e-15 0)
(3 -1.03488e-15 0)
(3 -1.24497e-15 0)
(3 -1.37754e-15 0)
(3 4.69157e-16 0)
(3 1.96585e-15 0)
(3 2.0409e-15 0)
(3 9.43548e-16 0)
(3 1.83975e-16 0)
(3 -7.80987e-16 0)
(3 -1.25327e-15 0)
(3 -1.15819e-15 0)
(3 -8.86765e-16 0)
(3 -3.68582e-16 0)
(3 2.38455e-18 0)
(3 3.75107e-16 0)
(3 5.26458e-16 0)
(3 1.01215e-15 0)
(3 1.19184e-15 0)
(3 1.22969e-15 0)
(3 1.25655e-15 0)
(3 1.08435e-15 0)
(3 7.5572e-16 0)
(3 7.9568e-16 0)
(3 1.05669e-15 0)
(3 1.40394e-15 0)
(3 2.79747e-16 0)
(3 -7.04737e-16 0)
(3 -1.03492e-15 0)
(3 -1.43919e-15 0)
(3 -1.63617e-15 0)
(3 -3.39792e-16 0)
(3 2.43225e-17 0)
(3 -1.19818e-17 0)
(3 -5.80415e-16 0)
(3 -7.0718e-16 0)
(3 -1.04843e-15 0)
(3 -1.23895e-15 0)
(3 -1.22313e-15 0)
(3 -1.06305e-15 0)
(3 -7.37714e-16 0)
(3 -2.16609e-16 0)
(3 -2.17622e-16 0)
(3 4.07424e-16 0)
(3 8.5229e-16 0)
(3 1.93954e-15 0)
(3 2.20029e-15 0)
(3 2.17302e-15 0)
(3 2.17843e-15 0)
(3 2.60935e-15 0)
(3 2.99823e-15 0)
(3 3.20686e-15 0)
(3 3.44245e-15 0)
(3 3.35727e-15 0)
(3 2.58617e-15 0)
(3 2.38413e-15 0)
(3 2.18278e-15 0)
(3 1.82915e-15 0)
(3 1.40166e-15 0)
(3 1.20635e-15 0)
(3 1.36792e-15 0)
(3 1.42657e-15 0)
(3 6.10579e-16 0)
(3 3.36444e-16 0)
(3 1.37971e-16 0)
(3 -4.00448e-16 0)
(3 -1.53484e-15 0)
(3 -1.83347e-15 0)
(3 -2.03643e-15 0)
(3 -2.20532e-15 0)
(3 -2.22043e-15 0)
(3 -2.22051e-15 0)
(3 -2.11246e-15 0)
(3 -1.69169e-15 0)
(3 -1.38427e-15 0)
(3 -1.23547e-15 0)
(3 -1.77541e-15 0)
(3 -2.20894e-15 0)
(3 -3.69796e-15 0)
(3 -3.86275e-15 0)
(3 -3.83032e-15 0)
(3 -2.82904e-15 0)
(3 -2.03857e-15 0)
(3 -1.81392e-15 0)
(3 -1.59213e-15 0)
(3 -1.31555e-15 0)
(3 -9.24456e-16 0)
(3 -9.29288e-16 0)
(3 -9.94338e-16 0)
(3 -1.03739e-15 0)
(3 -6.4753e-16 0)
(3 -6.26361e-16 0)
(3 -3.23726e-16 0)
(3 1.22073e-16 0)
(3 3.46561e-16 0)
(3 8.55102e-16 0)
(3 7.31858e-16 0)
(3 3.01387e-16 0)
(3 3.32805e-17 0)
(3 -8.35363e-17 0)
(3 -3.58452e-16 0)
(3 -4.72481e-16 0)
(3 -4.56651e-16 0)
(3 -4.61924e-16 0)
(3 -1.22582e-16 0)
(3 5.99524e-17 0)
(3 3.43751e-16 0)
(3 -1.37663e-16 0)
(3 -4.98902e-16 0)
(3 -4.34186e-16 0)
(3 7.68931e-16 0)
(3 5.17947e-16 0)
(3 -7.21972e-16 0)
(3 -1.8533e-15 0)
(3 -2.49142e-15 0)
(3 -1.98919e-15 0)
(3 -1.69856e-15 0)
(3 -1.52003e-15 0)
(3 -1.73738e-15 0)
(3 -1.55716e-15 0)
(3 -1.25572e-15 0)
(3 -1.27398e-15 0)
(3 -1.1372e-15 0)
(3 -9.67486e-16 0)
(3 -6.50674e-17 0)
(3 1.752e-15 0)
(3 2.41855e-15 0)
(3 2.63544e-15 0)
(3 3.08675e-15 0)
(3 3.31199e-15 0)
(3 3.75519e-15 0)
(3 4.47719e-15 0)
(3 4.6521e-15 0)
(3 4.60442e-15 0)
(3 4.52981e-15 0)
(3 3.14275e-15 0)
(3 1.15964e-15 0)
(3 8.69473e-16 0)
(3 9.96581e-16 0)
(3 1.46101e-15 0)
(3 1.84892e-15 0)
(3 2.05767e-15 0)
(3 1.95692e-15 0)
(3 2.10697e-15 0)
(3 2.64246e-15 0)
(3 2.04108e-15 0)
(3 1.62552e-15 0)
(3 4.77111e-16 0)
(3 -2.74331e-16 0)
(3 -9.99639e-16 0)
(3 -1.53033e-15 0)
(3 -1.24487e-15 0)
(3 -7.67371e-16 0)
(3 -2.19489e-16 0)
(3 -8.46264e-17 0)
(3 1.02157e-17 0)
(3 2.51507e-16 0)
(3 3.48472e-16 0)
(3 3.56025e-16 0)
(3 7.74234e-16 0)
(3 3.11758e-16 0)
(3 1.83672e-16 0)
(3 5.78261e-16 0)
(3 7.59602e-16 0)
(3 1.15467e-15 0)
(3 1.78103e-15 0)
(3 1.79849e-15 0)
(3 2.35077e-16 0)
(3 -5.49688e-16 0)
(3 -9.13968e-16 0)
(3 -6.86719e-16 0)
(3 -7.25566e-16 0)
(3 -9.15121e-16 0)
(3 -1.86606e-15 0)
(3 1.76601e-17 0)
(3 1.82294e-15 0)
(3 2.81483e-15 0)
(3 3.58821e-15 0)
(3 4.08554e-15 0)
(3 3.72485e-15 0)
(3 4.2538e-15 0)
(3 6.22513e-15 0)
(3 7.18744e-15 0)
(3 7.19516e-15 0)
(3 6.87686e-15 0)
(3 7.09667e-15 0)
(3 7.58789e-15 0)
(3 6.04693e-15 0)
(3 5.6908e-15 0)
(3 5.28483e-15 0)
(3 5.4239e-15 0)
(3 5.84782e-15 0)
(3 6.04012e-15 0)
(3 5.46156e-15 0)
(3 4.86499e-15 0)
(3 4.4308e-15 0)
(3 3.8689e-15 0)
(3 6.08168e-15 0)
(3 7.45929e-15 0)
(3 2.21472e-15 0)
(3 8.05693e-16 0)
(3 4.02983e-16 0)
(3 3.6767e-16 0)
(3 -3.68399e-16 0)
(3 -1.02478e-15 0)
(3 -1.24398e-15 0)
(3 -1.8716e-15 0)
(3 -2.91638e-15 0)
(3 -3.38771e-15 0)
(3 -3.81553e-15 0)
(3 -3.57075e-15 0)
(3 -2.72306e-15 0)
(3 -2.576e-15 0)
(3 -2.57635e-15 0)
(3 -2.56624e-15 0)
(3 -2.49711e-15 0)
(3 -1.99768e-15 0)
(3 -1.68019e-15 0)
(3 -1.46698e-15 0)
(3 1.21905e-16 0)
(3 1.15614e-15 0)
(3 6.10046e-16 0)
(3 5.60515e-16 0)
(3 4.51745e-16 0)
(3 -3.92198e-17 0)
(3 -1.84365e-15 0)
(3 -2.12854e-15 0)
(3 -3.34127e-15 0)
(3 -3.71264e-15 0)
(3 -2.59224e-15 0)
(3 -2.04903e-15 0)
(3 -1.42083e-15 0)
(3 -5.03133e-18 0)
(3 4.32452e-16 0)
(3 5.0183e-16 0)
(3 7.00967e-16 0)
(3 6.72819e-16 0)
(3 7.50718e-16 0)
(3 1.91975e-15 0)
(3 3.02411e-15 0)
(3 4.52672e-15 0)
(3 4.74951e-15 0)
(3 4.66663e-15 0)
(3 4.43263e-15 0)
(3 3.92958e-15 0)
(3 3.78162e-15 0)
(3 3.72353e-15 0)
(3 4.19e-15 0)
(3 4.96829e-15 0)
(3 5.11077e-15 0)
(3 4.73783e-15 0)
(3 5.46796e-15 0)
(3 4.61029e-15 0)
(3 2.48527e-15 0)
(3 2.13896e-15 0)
(3 1.78465e-15 0)
(3 2.61606e-15 0)
(3 3.12961e-15 0)
(3 3.57366e-15 0)
(3 3.56825e-15 0)
(3 3.32581e-15 0)
(3 3.0539e-15 0)
(3 3.05928e-15 0)
(3 2.53311e-15 0)
(3 2.06839e-15 0)
(3 1.57055e-15 0)
(3 1.75339e-15 0)
(3 4.35544e-16 0)
(3 -3.73389e-17 0)
(3 -5.37264e-16 0)
(3 9.66434e-16 0)
(3 2.54986e-15 0)
(3 3.25437e-15 0)
(3 3.80898e-15 0)
(3 4.01423e-15 0)
(3 3.86634e-15 0)
(3 3.66432e-15 0)
(3 2.21951e-15 0)
(3 2.61515e-15 0)
(3 4.455e-15 0)
(3 6.30461e-15 0)
(3 6.60288e-15 0)
(3 7.10675e-15 0)
(3 6.48389e-15 0)
(3 5.20836e-15 0)
(3 3.40191e-15 0)
(3 2.71936e-15 0)
(3 2.39018e-15 0)
(3 1.554e-15 0)
(3 9.97532e-16 0)
(3 1.28079e-15 0)
(3 1.75096e-15 0)
(3 2.38901e-15 0)
(3 2.00064e-15 0)
(3 1.00073e-15 0)
(3 9.34518e-16 0)
(3 9.016e-16 0)
(3 2.46412e-16 0)
(3 8.81673e-16 0)
(3 2.64555e-15 0)
(3 3.38874e-15 0)
(3 3.70891e-15 0)
(3 3.7253e-15 0)
(3 4.10642e-15 0)
(3 4.46676e-15 0)
(3 4.81485e-15 0)
(3 5.04417e-15 0)
(3 5.09161e-15 0)
(3 5.22447e-15 0)
(3 5.42684e-15 0)
(3 3.82159e-15 0)
(3 2.47878e-15 0)
(3 2.71695e-15 0)
(3 2.75028e-15 0)
(3 1.95617e-15 0)
(3 1.33594e-15 0)
(3 9.96749e-16 0)
(3 -5.62997e-16 0)
(3 -1.08402e-15 0)
(3 -1.22978e-15 0)
(3 -1.1269e-15 0)
(3 -7.3687e-16 0)
(3 -6.98386e-16 0)
(3 -1.22072e-15 0)
(3 -1.6171e-15 0)
(3 -2.38266e-15 0)
(3 -2.61955e-15 0)
(3 -7.18944e-16 0)
(3 6.69212e-16 0)
(3 1.37819e-15 0)
(3 1.37352e-15 0)
(3 -6.54665e-16 0)
(3 -2.49322e-15 0)
(3 -3.41712e-15 0)
(3 -3.51666e-15 0)
(3 -3.64053e-15 0)
(3 -3.66064e-15 0)
(3 -3.97557e-15 0)
(3 -4.47422e-15 0)
(3 -4.44943e-15 0)
(3 -3.83795e-15 0)
(3 -2.8512e-15 0)
(3 -4.46828e-15 0)
(3 -4.14151e-15 0)
(3 -1.83878e-15 0)
(3 -8.18018e-17 0)
(3 1.44637e-15 0)
(3 3.82997e-16 0)
(3 -3.40248e-17 0)
(3 2.59081e-17 0)
(3 6.77084e-18 0)
(3 1.10437e-17 0)
(3 -5.70897e-17 0)
(3 -5.35593e-17 0)
(3 -3.23969e-17 0)
(3 2.50788e-17 0)
(3 6.56709e-17 0)
(3 6.29798e-17 0)
(3 9.07956e-17 0)
(3 9.4598e-17 0)
(3 1.37672e-16 0)
(3 1.99577e-16 0)
(3 1.09671e-16 0)
(3 1.02735e-16 0)
(3 1.72755e-16 0)
(3 4.33195e-18 0)
(3 -2.71219e-16 0)
(3 -3.28063e-16 0)
(3 -3.72443e-16 0)
(3 -3.16515e-16 0)
(3 -3.38091e-16 0)
(3 -6.69234e-16 0)
(3 -8.22582e-16 0)
(3 -1.00448e-15 0)
(3 -1.03741e-15 0)
(3 1.50633e-16 0)
(3 4.92871e-16 0)
(3 8.61204e-16 0)
(3 9.19066e-16 0)
(3 7.62141e-16 0)
(3 5.22367e-16 0)
(3 1.33303e-16 0)
(3 1.45331e-16 0)
(3 9.6753e-17 0)
(3 9.09219e-17 0)
(3 4.38683e-17 0)
(3 -1.46275e-16 0)
(3 -6.43366e-17 0)
(3 3.26686e-16 0)
(3 1.24043e-15 0)
(3 2.03406e-15 0)
(3 2.45617e-15 0)
(3 2.3251e-15 0)
(3 2.34149e-15 0)
(3 2.20139e-15 0)
(3 1.82664e-15 0)
(3 8.6782e-16 0)
(3 4.43658e-16 0)
(3 1.97964e-16 0)
(3 1.54248e-16 0)
(3 5.78472e-19 0)
(3 -2.03863e-16 0)
(3 -2.32217e-16 0)
(3 -1.89852e-16 0)
(3 -3.96243e-17 0)
(3 1.4432e-16 0)
(3 2.99847e-16 0)
(3 9.89709e-17 0)
(3 -1.39539e-16 0)
(3 -1.14749e-15 0)
(3 -1.40062e-15 0)
(3 -1.48013e-15 0)
(3 -7.34395e-16 0)
(3 -4.75978e-16 0)
(3 -2.55454e-16 0)
(3 2.22986e-17 0)
(3 9.48139e-16 0)
(3 -2.06107e-15 0)
(3 -3.22896e-15 0)
(3 -3.50195e-15 0)
(3 -3.83693e-15 0)
(3 -4.28994e-15 0)
(3 -4.29074e-15 0)
(3 -3.68708e-15 0)
(3 -1.11889e-15 0)
(3 -7.22299e-16 0)
(3 -2.59566e-16 0)
(3 -2.25545e-16 0)
(3 -2.77355e-16 0)
(3 -5.79406e-16 0)
(3 8.4834e-16 0)
(3 1.24344e-15 0)
(3 1.40209e-15 0)
(3 1.96564e-15 0)
(3 2.01048e-15 0)
(3 2.5689e-15 0)
(3 3.98563e-15 0)
(3 5.1127e-15 0)
(3 5.24656e-15 0)
(3 3.78671e-15 0)
(3 3.30629e-15 0)
(3 3.35013e-15 0)
(3 3.34413e-15 0)
(3 2.24477e-15 0)
(3 1.92888e-15 0)
(3 2.48384e-15 0)
(3 3.21863e-15 0)
(3 3.10349e-15 0)
(3 2.76654e-15 0)
(3 2.23794e-15 0)
(3 3.34363e-15 0)
(3 3.64772e-15 0)
(3 1.98535e-15 0)
(3 1.34303e-15 0)
(3 8.38505e-16 0)
(3 3.77515e-16 0)
(3 -5.02883e-16 0)
(3 -1.00219e-15 0)
(3 -1.05609e-15 0)
(3 -1.22697e-15 0)
(3 -1.20713e-15 0)
(3 -4.59009e-16 0)
(3 6.62348e-17 0)
(3 4.12483e-16 0)
(3 5.62847e-16 0)
(3 5.11051e-16 0)
(3 5.84977e-16 0)
(3 7.65876e-16 0)
(3 8.75304e-16 0)
(3 1.13904e-15 0)
(3 1.49317e-15 0)
(3 2.30954e-15 0)
(3 2.42445e-15 0)
(3 2.20739e-15 0)
(3 1.6362e-15 0)
(3 1.54505e-15 0)
(3 4.41396e-16 0)
(3 -1.68846e-16 0)
(3 -1.58874e-16 0)
(3 1.97024e-17 0)
(3 -1.12053e-16 0)
(3 -1.2215e-15 0)
(3 -1.11713e-15 0)
(3 -1.02491e-15 0)
(3 -1.04457e-16 0)
(3 1.33781e-15 0)
(3 1.30357e-15 0)
(3 2.28214e-15 0)
(3 2.73283e-15 0)
(3 3.02771e-15 0)
(3 3.13787e-15 0)
(3 2.96109e-15 0)
(3 2.00968e-15 0)
(3 6.02439e-16 0)
(3 1.45711e-16 0)
(3 1.12489e-15 0)
(3 1.73323e-15 0)
(3 2.09074e-15 0)
(3 2.68708e-15 0)
(3 3.19683e-15 0)
(3 1.99873e-15 0)
(3 8.40188e-16 0)
(3 8.0025e-16 0)
(3 1.66031e-15 0)
(3 1.83071e-15 0)
(3 1.85714e-15 0)
(3 1.6668e-15 0)
(3 2.12898e-15 0)
(3 3.82145e-15 0)
(3 3.80812e-15 0)
(3 3.41785e-15 0)
(3 4.15256e-15 0)
(3 4.70203e-15 0)
(3 5.0414e-15 0)
(3 4.84546e-15 0)
(3 4.78276e-15 0)
(3 4.42507e-15 0)
(3 3.13208e-15 0)
(3 2.45921e-15 0)
(3 1.79004e-15 0)
(3 1.86567e-15 0)
(3 1.6431e-15 0)
(3 6.50594e-16 0)
(3 9.92221e-17 0)
(3 -7.41915e-16 0)
(3 -8.58048e-16 0)
(3 -5.22378e-16 0)
(3 -3.19833e-16 0)
(3 -1.1231e-16 0)
(3 3.17773e-16 0)
(3 9.75645e-16 0)
(3 9.7714e-16 0)
(3 -8.36222e-17 0)
(3 -1.68182e-15 0)
(3 -2.28913e-15 0)
(3 -1.85797e-15 0)
(3 -6.29754e-16 0)
(3 2.14509e-16 0)
(3 9.46215e-16 0)
(3 9.70612e-16 0)
(3 1.37081e-15 0)
(3 3.057e-15 0)
(3 4.05537e-15 0)
(3 4.61619e-15 0)
(3 2.48914e-15 0)
(3 1.88894e-15 0)
(3 1.09126e-15 0)
(3 1.01602e-15 0)
(3 9.56937e-16 0)
(3 1.86739e-15 0)
(3 1.54492e-15 0)
(3 3.90622e-16 0)
(3 -8.99721e-16 0)
(3 -1.82067e-15 0)
(3 -1.80448e-15 0)
(3 -1.91965e-15 0)
(3 -9.84344e-16 0)
(3 7.42856e-17 0)
(3 1.5552e-15 0)
(3 3.08969e-15 0)
(3 4.2007e-15 0)
(3 4.86944e-15 0)
(3 5.05865e-15 0)
(3 5.37127e-15 0)
(3 6.20684e-15 0)
(3 6.57648e-15 0)
(3 7.53601e-15 0)
(3 7.65117e-15 0)
(3 7.86882e-15 0)
(3 8.30099e-15 0)
(3 8.19439e-15 0)
(3 8.15743e-15 0)
(3 8.1924e-15 0)
(3 8.52372e-15 0)
(3 8.24434e-15 0)
(3 7.06234e-15 0)
(3 6.27701e-15 0)
(3 5.6551e-15 0)
(3 5.25854e-15 0)
(3 5.17592e-15 0)
(3 4.71948e-15 0)
(3 4.5215e-15 0)
(3 4.67123e-15 0)
(3 5.44798e-15 0)
(3 5.99387e-15 0)
(3 6.0523e-15 0)
(3 4.20926e-15 0)
(3 1.54256e-15 0)
(3 1.33345e-15 0)
(3 -3.91662e-16 0)
(3 -1.18438e-15 0)
(3 -2.14731e-15 0)
(3 -2.28099e-15 0)
(3 -4.18439e-15 0)
(3 -5.3898e-15 0)
(3 -5.30857e-15 0)
(3 -5.51004e-15 0)
(3 -5.51859e-15 0)
(3 -4.58173e-15 0)
(3 -3.4131e-15 0)
(3 -3.41681e-15 0)
(3 -3.53267e-15 0)
(3 -3.95338e-15 0)
(3 -4.04238e-15 0)
(3 -3.8256e-15 0)
(3 -2.77108e-15 0)
(3 -2.1861e-15 0)
(3 -2.31554e-15 0)
(3 -3.09386e-15 0)
(3 -3.75076e-15 0)
(3 -3.60115e-15 0)
(3 -3.50316e-15 0)
(3 -2.82349e-15 0)
(3 -2.46121e-15 0)
(3 -2.52155e-15 0)
(3 -2.54655e-15 0)
(3 -2.64506e-15 0)
(3 -3.47992e-15 0)
(3 -2.69567e-15 0)
(3 -1.66104e-16 0)
(3 7.99737e-16 0)
(3 2.0761e-15 0)
(3 2.3235e-15 0)
(3 2.41473e-15 0)
(3 3.46062e-15 0)
(3 4.2175e-15 0)
(3 4.52682e-15 0)
(3 4.36019e-15 0)
(3 4.18174e-15 0)
(3 3.99838e-15 0)
(3 3.34633e-15 0)
(3 3.3126e-15 0)
(3 3.85093e-15 0)
(3 3.68306e-15 0)
(3 1.37932e-15 0)
(3 2.23221e-15 0)
(3 2.73132e-15 0)
(3 3.28738e-15 0)
(3 3.38083e-15 0)
(3 2.18056e-15 0)
(3 2.58985e-15 0)
(3 4.91289e-15 0)
(3 6.1281e-15 0)
(3 6.46999e-15 0)
(3 6.72135e-15 0)
(3 7.78077e-15 0)
(3 7.47108e-15 0)
(3 6.61174e-15 0)
(3 5.3959e-15 0)
(3 4.05669e-15 0)
(3 3.06903e-15 0)
(3 1.90903e-15 0)
(3 5.44699e-16 0)
(3 -1.94525e-16 0)
(3 2.95354e-16 0)
(3 2.40203e-15 0)
(3 3.48142e-15 0)
(3 5.15411e-15 0)
(3 3.80332e-15 0)
(3 2.87683e-15 0)
(3 1.58138e-15 0)
(3 8.27957e-17 0)
(3 4.43575e-15 0)
(3 5.62974e-15 0)
(3 6.07923e-15 0)
(3 6.03361e-15 0)
(3 6.29717e-15 0)
(3 5.01625e-15 0)
(3 3.00382e-15 0)
(3 -5.79146e-16 0)
(3 -1.2506e-15 0)
(3 -2.13342e-15 0)
(3 -3.57095e-15 0)
(3 -3.87751e-15 0)
(3 -4.14869e-15 0)
(3 -4.62294e-15 0)
(3 -4.89536e-15 0)
(3 -5.09783e-15 0)
(3 -5.03351e-15 0)
(3 -5.00283e-15 0)
(3 -3.8596e-15 0)
(3 -2.90045e-15 0)
(3 -2.21339e-15 0)
(3 -2.10477e-15 0)
(3 -2.15617e-15 0)
(3 -7.93149e-16 0)
(3 -5.59145e-17 0)
(3 -2.83513e-17 0)
(3 1.46326e-15 0)
(3 2.22143e-15 0)
(3 3.04664e-15 0)
(3 3.36247e-15 0)
(3 3.88181e-15 0)
(3 4.00161e-15 0)
(3 3.2053e-15 0)
(3 2.91944e-15 0)
(3 3.48985e-15 0)
(3 3.35026e-15 0)
(3 2.53701e-15 0)
(3 5.67112e-16 0)
(3 -1.05532e-15 0)
(3 -1.40295e-15 0)
(3 -1.58612e-15 0)
(3 -1.00389e-15 0)
(3 1.47448e-16 0)
(3 1.92647e-15 0)
(3 2.56066e-15 0)
(3 2.42236e-15 0)
(3 2.83352e-15 0)
(3 2.42297e-15 0)
(3 6.49559e-16 0)
(3 -2.58321e-15 0)
(3 -4.90804e-15 0)
(3 -4.72865e-15 0)
(3 -2.89165e-15 0)
(3 -2.50356e-15 0)
(3 -2.77252e-15 0)
(3 -3.53055e-15 0)
(3 -3.68146e-15 0)
(3 -4.8518e-15 0)
(3 -6.2772e-15 0)
(3 -7.56469e-15 0)
(3 -7.8117e-15 0)
(3 -7.62527e-15 0)
(3 -6.11107e-15 0)
(3 -4.3222e-15 0)
(3 -3.54633e-15 0)
(3 -2.85267e-15 0)
(3 -1.9644e-15 0)
(3 -1.42939e-15 0)
(3 -5.09565e-17 0)
(3 1.02314e-15 0)
(3 3.74972e-17 0)
(3 4.66279e-17 0)
(3 2.44266e-17 0)
(3 7.65245e-17 0)
(3 9.4033e-17 0)
(3 9.11007e-17 0)
(3 -3.2478e-17 0)
(3 4.95178e-17 0)
(3 4.2376e-17 0)
(3 -4.61148e-17 0)
(3 2.35515e-17 0)
(3 -7.1939e-17 0)
(3 9.97631e-17 0)
(3 3.12557e-16 0)
(3 4.096e-16 0)
(3 2.96069e-16 0)
(3 1.41971e-16 0)
(3 4.82307e-17 0)
(3 -3.29117e-16 0)
(3 -6.61718e-16 0)
(3 -1.08334e-15 0)
(3 -5.17139e-16 0)
(3 -2.81606e-16 0)
(3 -2.48886e-16 0)
(3 -2.70349e-16 0)
(3 -3.32888e-16 0)
(3 -4.1496e-16 0)
(3 -6.35157e-16 0)
(3 -8.01747e-16 0)
(3 -9.40387e-16 0)
(3 -1.75421e-16 0)
(3 3.23077e-16 0)
(3 4.08227e-16 0)
(3 6.74314e-16 0)
(3 8.02062e-16 0)
(3 6.14705e-16 0)
(3 3.64242e-16 0)
(3 1.8239e-16 0)
(3 2.60087e-18 0)
(3 -3.07928e-16 0)
(3 -3.95966e-16 0)
(3 -3.43673e-16 0)
(3 -3.47833e-16 0)
(3 -4.82145e-17 0)
(3 2.22267e-16 0)
(3 1.31587e-15 0)
(3 1.25888e-15 0)
(3 9.67344e-16 0)
(3 6.30626e-16 0)
(3 -3.24493e-16 0)
(3 -6.89634e-16 0)
(3 -6.16821e-16 0)
(3 -1.93053e-16 0)
(3 -3.26102e-17 0)
(3 -1.84259e-17 0)
(3 -3.72453e-16 0)
(3 -7.73509e-16 0)
(3 -1.08009e-15 0)
(3 -1.09259e-15 0)
(3 -1.0441e-15 0)
(3 -1.21314e-15 0)
(3 -1.23088e-15 0)
(3 -1.32128e-15 0)
(3 -2.15652e-15 0)