/*--------------------------------*- C++ -*----------------------------------*\
  =========                 |
  \\      /  F ield         | OpenFOAM: The Open Source CFD Toolbox
   \\    /   O peration     | Website:  https://openfoam.org
    \\  /    A nd           | Version:  7
     \\/     M anipulation  |
\*---------------------------------------------------------------------------*/
FoamFile
{
    version     2.0;
    format      ascii;
    class       volVectorField;
    location    "0.721";
    object      U;
}
// * * * * * * * * * * * * * * * * * * * * * * * * * * * * * * * * * * * * * //

dimensions      [0 1 -1 0 0 0 0];

internalField   nonuniform List<vector> 
12359
(
(0.982046 -0.000674796 7.5493e-17)
(0.969028 -0.00107516 -6.7383e-17)
(0.999976 -6.34955e-06 3.6273e-17)
(0.933353 0.001649 -6.00861e-17)
(0.976 -0.000761359 2.93842e-16)
(0.875114 0.00269357 -1.36137e-17)
(0.844803 -0.00335164 -1.04006e-16)
(0.865874 0.00108219 -7.34217e-17)
(0.799568 0.020775 1.60701e-16)
(0.888994 -0.00258352 6.57381e-17)
(0.813264 0.0116198 3.24953e-17)
(0.731889 0.0220936 1.08296e-16)
(0.333762 0.0629783 -7.80202e-17)
(0.929487 0.00139591 3.81981e-17)
(0.937341 -0.00109773 -4.08006e-17)
(0.519017 0.0122836 -5.2312e-17)
(0.421207 0.0364254 -8.52974e-17)
(0.994567 -5.0532e-05 8.76109e-17)
(0.994918 9.31559e-06 6.65097e-18)
(0.954141 -0.000732052 -1.6271e-17)
(0.921261 -0.00232234 5.22621e-17)
(0.776163 0.0183221 5.8973e-17)
(0.961653 -0.000656409 -4.89929e-17)
(0.950638 4.75789e-05 -8.64833e-18)
(0.966666 -0.000557559 -1.84966e-17)
(0.957288 -0.00140489 -1.45435e-16)
(0.998428 -8.17893e-05 -3.65467e-17)
(0.998622 -2.42662e-05 -2.00161e-17)
(0.995958 7.1338e-05 -1.18025e-16)
(0.997798 -1.70125e-05 -5.26932e-17)
(0.997315 -8.31978e-05 3.65894e-17)
(0.999309 -3.7018e-06 1.26751e-17)
(0.999756 1.09658e-05 5.19811e-17)
(0.998008 -3.74152e-05 -6.97385e-17)
(0.999916 -1.43868e-05 3.97802e-17)
(0.997096 9.1938e-06 5.28469e-18)
(0.9885 -0.000178073 8.1236e-17)
(0.983694 5.0409e-05 -2.33663e-16)
(0.977598 -0.000803302 2.36467e-16)
(0.985473 -0.000389787 1.65219e-16)
(0.971482 -0.0012707 8.73216e-17)
(0.984476 0.000399136 5.00078e-17)
(0.991652 -0.000372726 6.57703e-17)
(0.992359 9.34665e-05 -8.6776e-17)
(0.996422 -0.000159124 6.05342e-17)
(0.996116 -0.000106154 -2.65005e-17)
(0.996766 -0.000114229 -5.63984e-18)
(0.997609 -2.5344e-06 -4.15147e-18)
(0.995503 5.83773e-05 -3.4365e-17)
(0.998268 -9.49241e-05 -5.90095e-17)
(0.998764 -3.30152e-05 -2.77808e-17)
(0.999083 -7.93436e-06 -1.86407e-17)
(0.999447 -4.74716e-05 3.96254e-17)
(0.993988 6.21269e-05 -7.59967e-17)
(0.999598 3.31281e-05 -3.69677e-17)
(0.999706 -1.38441e-06 -6.58418e-18)
(0.9931 -0.000193768 8.29581e-17)
(0.999812 -2.63987e-05 -1.40337e-18)
(0.999794 5.0813e-06 1.58723e-17)
(0.999851 6.24118e-06 -1.73815e-17)
(0.999637 -5.95814e-06 -3.29736e-17)
(0.999929 4.63412e-06 1.83372e-17)
(0.998888 -9.48744e-05 -1.85629e-17)
(0.214542 0.0766904 -1.045e-15)
(0.993674 -8.24252e-05 1.34066e-17)
(0.908688 -0.00340195 7.52532e-17)
(0.989589 -9.85776e-05 1.16832e-17)
(0.999162 6.74404e-06 -1.59831e-17)
(0.987876 -0.000265216 1.17108e-17)
(0.619874 0.0192275 9.31168e-17)
(-0.024864 -0.0405781 6.7491e-15)
(0.973922 -0.00148698 3.64863e-17)
(0.999977 -1.08392e-05 -1.65203e-17)
(0.986632 -0.000660823 -1.37551e-16)
(0.942149 -0.00290868 -1.08664e-16)
(0.9999 2.21001e-06 -2.04776e-17)
(0.999495 -2.79057e-05 -3.30264e-18)
(0.999921 -3.06678e-05 4.30742e-18)
(0.98988 -0.000230142 -2.16111e-17)
(0.669556 0.000860792 2.86785e-17)
(0.925036 0.062735 -5.44754e-17)
(1.00359 0.00278067 -2.58794e-18)
(1.00003 -2.19639e-06 4.07917e-19)
(0.998419 0.0128144 7.73077e-18)
(1.09743 0.148082 -4.77128e-18)
(1.02295 0.000125184 7.24634e-19)
(1.00378 0.00259699 -7.6675e-18)
(1.00163 -3.96572e-05 2.14254e-18)
(1.11615 0.0560848 -1.01297e-17)
(1.09017 0.152272 2.72787e-19)
(0.999966 0.000134308 -7.88785e-18)
(0.212966 0.140469 -5.37956e-16)
(1 1.82204e-05 -9.30037e-18)
(0.999659 0.00620271 -1.35444e-17)
(0.999117 0.0108122 3.70932e-18)
(1.03565 0.00280117 -1.85047e-18)
(1.0001 0.00539807 -4.74791e-18)
(0.999442 0.00596533 2.66206e-18)
(0.991176 0.0292982 9.8973e-19)
(0.994759 0.0183163 7.79462e-18)
(0.941772 0.0802409 -5.65211e-17)
(1 2.18302e-05 -8.01831e-18)
(1.02131 0.00105135 -4.17404e-18)
(1.22735 0.0678297 -4.12309e-17)
(1.00477 0.00101983 3.42129e-18)
(1.0331 0.0220038 -8.95364e-18)
(1.00031 2.78777e-05 3.39634e-19)
(1.09667 0.150092 1.87534e-17)
(1.01879 0.000295493 -1.08325e-17)
(1.03305 0.0202105 -5.63033e-18)
(1.00002 0.00477304 4.92439e-19)
(1.00352 0.002751 1.97803e-18)
(0.933987 0.0438771 -1.36262e-17)
(0.957922 0.0732744 2.21252e-17)
(0.999407 0.0108423 1.50051e-18)
(1.00287 -0.00037732 -7.08971e-18)
(0.950538 0.0754914 -6.65779e-17)
(1.00457 0.00246113 1.4849e-18)
(1.12562 0.0443653 1.47823e-17)
(0.999999 1.46767e-05 -4.90871e-19)
(0.999997 0.0050695 -8.35854e-18)
(0.865917 0.0287948 -2.75338e-16)
(1.00168 0.000252195 -4.90071e-19)
(1.0372 0.00657915 1.81015e-18)
(1.00463 0.00234211 1.65301e-18)
(1.00343 0.000513334 3.84862e-20)
(1.00794 0.0919941 4.12565e-18)
(0.998112 0.0128417 -5.75426e-19)
(0.999984 1.7433e-05 -6.55546e-17)
(1.00452 0.00210544 8.4035e-18)
(1.00255 0.000361855 -7.38333e-18)
(1.04965 0.0186363 -3.52356e-18)
(1.05233 0.0174841 4.24336e-18)
(1.05043 0.0165951 -7.84888e-18)
(1.00024 2.71073e-05 -3.20047e-18)
(1.03725 0.00717642 7.52862e-18)
(1.003 -0.000182413 -1.39191e-17)
(1.03682 0.00679154 -5.05344e-18)
(1.00001 9.0136e-05 -3.11871e-17)
(1.00989 0.0886188 -5.46561e-18)
(0.999999 2.7226e-05 7.81948e-19)
(0.982005 0.00275198 2.1277e-16)
(1.03078 0.013204 -5.43492e-19)
(1.00027 0.000101436 -9.51707e-19)
(1.03945 0.039728 -7.26834e-18)
(0.900119 0.0278966 -3.61492e-17)
(1.00002 2.6815e-06 -5.03003e-19)
(1.08969 0.117216 1.60285e-17)
(1.00507 0.00108645 -1.14218e-17)
(0.920854 0.0594004 -1.55509e-16)
(1.03784 0.00147079 -3.92154e-19)
(0.999993 4.3103e-05 -2.84631e-18)
(1.03111 0.0139775 3.29213e-18)
(1.00179 0.000185352 -8.91624e-18)
(1.00001 -2.03681e-06 8.2949e-19)
(0.560316 1.30996 8.93421e-18)
(0.935566 0.0863668 2.21922e-17)
(1.04972 0.0183044 -2.33158e-19)
(1.00013 0.00529626 3.66499e-18)
(0.999158 0.000601539 2.73279e-17)
(1.00251 0.0451062 -1.64634e-17)
(0.999093 0.000720498 -6.97687e-19)
(1.03808 0.00564583 -6.04257e-18)
(1.0328 0.0108552 -4.49272e-18)
(1.00004 3.88073e-05 -6.72096e-19)
(1.00313 0.000288732 -1.10303e-18)
(1.00198 0.0440801 -1.497e-17)
(0.867178 0.0123277 3.19119e-16)
(1.03237 0.0107325 -9.72161e-19)
(1.1219 0.0557103 -1.52588e-17)
(0.999973 1.74723e-05 4.80997e-17)
(0.99998 3.04036e-05 1.0865e-17)
(1.03257 0.00880887 -5.37216e-19)
(0.97156 0.00236443 5.38283e-17)
(1.00471 0.000945609 -4.19121e-18)
(1.0045 0.0886181 -2.27336e-17)
(0.996368 0.000480879 -2.13467e-17)
(0.996602 0.000796729 -1.95391e-17)
(0.937268 0.0493156 9.33153e-17)
(1.00548 0.0862743 1.39825e-18)
(0.938909 0.00641293 2.61762e-16)
(1.00001 4.15305e-05 4.79467e-19)
(0.999971 1.04791e-05 4.69858e-17)
(1.00413 0.00278856 1.58046e-18)
(0.991893 0.0279118 -2.62593e-18)
(0.819149 0.0976357 -2.00432e-17)
(1.00416 0.00547802 -2.30366e-18)
(1.0003 0.0102296 -2.18398e-17)
(1.03826 0.000638465 -1.79378e-18)
(1.00459 0.00574212 -5.42782e-18)
(0.999519 0.0102326 -3.96864e-18)
(1.03742 0.00305768 -1.77612e-18)
(1.03465 -0.00077854 1.64119e-18)
(1.00192 4.14403e-05 4.95388e-18)
(1.03425 0.0195666 -1.59543e-17)
(1.12915 0.0429559 -3.20935e-17)
(1.01473 0.0123476 1.0137e-17)
(1.00336 0.00624341 -2.5099e-18)
(1.03041 0.0151318 1.34343e-18)
(1.0044 0.00247114 -5.00304e-19)
(0.893744 0.0269859 3.30311e-16)
(1.03901 0.00141865 -1.61031e-18)
(0.993315 0.0183643 -9.9505e-18)
(1.03287 0.0191494 -6.75851e-18)
(1.03566 0.0365956 1.2154e-20)
(1.00001 4.4775e-05 7.24039e-18)
(1.03672 0.0363122 -7.69296e-18)
(0.992503 0.0178499 -3.12721e-17)
(1.04024 0.00587624 -5.16115e-19)
(1.00548 0.00364496 -5.45673e-18)
(1.00001 4.20958e-05 -1.26974e-19)
(1.04474 0.0140175 -1.63817e-18)
(1.04531 0.0145689 -2.88521e-18)
(1.0962 0.116225 -9.02504e-17)
(0.834981 0.0792548 7.37988e-17)
(0.999959 3.79243e-05 3.44497e-17)
(1.00376 0.00582387 -2.05859e-18)
(0.999135 0.010284 1.00027e-17)
(1.00427 0.00580719 -5.36828e-18)
(0.982544 0.00176448 4.65699e-16)
(0.947783 0.0607295 -3.15916e-18)
(1.00511 0.00383528 -2.27894e-18)
(1.03723 0.0055927 4.13446e-18)
(0.432045 0.34374 -1.75648e-16)
(1.00542 0.00221495 1.21389e-17)
(1.00001 3.84693e-05 -3.65755e-18)
(0.981531 0.000965901 1.9516e-17)
(1.0183 -0.0022246 -6.59738e-18)
(1.00165 0.0868035 1.44136e-17)
(1.00262 0.00665718 -1.12203e-17)
(1.00285 0.00634082 1.10015e-17)
(1.00004 1.05108e-05 -1.07533e-18)
(1.03841 0.0394457 2.97698e-18)
(0.992716 0.0232527 3.68934e-17)
(1.00075 0.0103665 -5.96397e-18)
(0.994232 0.0208717 7.29585e-18)
(1.00001 2.46943e-05 -1.16055e-18)
(1.03146 0.0149952 7.42921e-18)
(1.00052 0.0106573 -1.11948e-17)
(0.629949 0.249056 9.42478e-17)
(1.00007 1.15848e-05 -1.61202e-18)
(1.02391 0.00296591 3.53063e-19)
(1 0.00739189 -6.41438e-18)
(0.983071 0.163806 -5.63418e-17)
(1.0046 0.0476808 -1.98581e-17)
(1.09154 0.115841 1.57728e-17)
(0.999867 4.04318e-05 -2.31834e-17)
(1.04017 0.00616232 3.56821e-19)
(1.00436 0.000301586 -3.14097e-19)
(1.0334 0.000368967 1.42192e-18)
(1.0429 0.011324 4.77263e-18)
(0.985691 0.000573702 -3.32662e-16)
(0.996941 0.000601266 4.53101e-17)
(1.00235 0.00628358 3.94223e-18)
(0.51786 0.433161 9.24428e-17)
(1.26125 0.143009 -5.82275e-17)
(0.999987 1.26133e-05 2.42487e-18)
(1.00539 0.00326391 -3.54846e-18)
(0.356643 0.330518 1.01512e-16)
(0.57166 0.00220695 3.00371e-17)
(0.993517 0.0188147 3.84757e-18)
(1.00299 0.0479543 -8.78888e-18)
(1.00299 0.0784565 1.79764e-18)
(1.03369 0.0179826 -1.75706e-17)
(0.973557 0.000665054 1.6364e-16)
(1.34587 0.353773 -7.06063e-17)
(1.11187 0.0488368 1.63239e-17)
(1.00546 0.0496501 -1.09495e-18)
(1.00538 0.00261439 -1.87714e-17)
(1.03693 0.00823941 -2.67367e-18)
(1.03266 0.00954873 1.98092e-18)
(0.988034 0.0266539 1.17122e-17)
(1.03239 0.0127667 3.98173e-21)
(1.00251 0.0065501 -7.72176e-18)
(1.00566 0.00344955 -7.37767e-18)
(1.00004 6.25362e-05 -1.68478e-18)
(1.0054 0.00284112 -2.13868e-18)
(1.17248 0.103722 -1.43932e-17)
(1.00556 0.0524176 -1.22448e-17)
(1.00042 0.000139838 2.06178e-18)
(1 5.87197e-05 -3.18756e-18)
(1.03495 0.0176759 -1.57867e-17)
(1.00707 0.00122908 4.19084e-18)
(0.990993 0.000592286 -1.67285e-16)
(1.02311 -0.000430758 -6.75777e-18)
(1.00001 3.12018e-05 -6.03255e-19)
(1.00171 0.0764954 -8.92356e-18)
(1.00001 9.33217e-06 5.83993e-18)
(0.999995 -1.38622e-05 1.52458e-17)
(0.99941 0.000117 3.78035e-17)
(1.03846 0.00550571 -6.8001e-19)
(1.00387 0.00238615 1.15708e-17)
(1.41467 0.395709 -5.20286e-17)
(1.00029 -8.21506e-06 -5.23441e-18)
(1.0003 7.20977e-05 1.10858e-17)
(1.02117 0.00163893 -3.34967e-18)
(1.00415 0.000536159 -9.0443e-18)
(0.945565 0.0702508 2.44107e-17)
(0.999107 0.00942581 -3.77149e-17)
(0.998893 0.000273135 7.4336e-17)
(0.999974 4.4322e-05 2.56044e-18)
(1.17111 0.0965998 -3.0815e-17)
(1.00448 0.0784136 1.43439e-17)
(0.999973 3.67193e-05 -3.39518e-19)
(1.00374 0.00598096 6.6498e-18)
(0.999746 0.00891607 1.04952e-17)
(1.00447 0.000140208 2.01704e-18)
(1.00309 -0.000764269 -6.08839e-19)
(1.0029 0.000187449 -5.36303e-18)
(1.00452 0.000981488 -4.56642e-18)
(0.995545 0.00136021 5.49635e-18)
(0.832707 0.0626601 -1.7165e-16)
(1.005 0.00191048 -4.53966e-18)
(0.997689 0.00012133 -2.15893e-17)
(0.985748 0.000956169 -4.95696e-16)
(1.0251 0.0265336 -5.18467e-18)
(1.10212 0.0412142 -8.35466e-18)
(1.00499 1.06259e-05 -6.12099e-18)
(0.99009 0.0250776 1.31596e-17)
(0.587407 0.0816327 8.80517e-17)
(0.999994 1.55288e-05 2.77079e-17)
(1.02689 0.0120016 2.85199e-19)
(1.0005 0.000217139 -9.48369e-19)
(1.01423 0.0128432 4.73169e-18)
(1.00028 7.46481e-05 6.62228e-18)
(1.00593 -0.000421487 3.33306e-18)
(0.807688 0.0428796 4.77035e-16)
(1.02786 0.0140524 2.12293e-18)
(0.80522 0.0851712 -1.4412e-16)
(0.991326 0.00037596 -2.37531e-17)
(1.00051 0.00779767 1.83068e-18)
(1.03381 0.00085814 7.26778e-20)
(1.03957 -0.00163222 -7.29305e-19)
(1.00055 0.00784671 5.98102e-18)
(1.03432 0.00126381 -1.85521e-19)
(1.03407 0.00238639 3.73941e-20)
(1.00081 9.31584e-05 1.46845e-18)
(0.999529 0.00063302 -3.55316e-17)
(0.999515 0.000611036 -4.43178e-18)
(0.999485 0.000602886 -3.14376e-17)
(0.999477 0.000575458 -2.28464e-17)
(0.691975 0.276435 6.93779e-18)
(1.00003 4.00844e-05 4.79876e-18)
(0.939059 0.079687 1.11655e-17)
(1.04058 0.00378061 -1.01851e-18)
(0.992878 0.0250898 -2.89536e-17)
(1.03242 0.0126794 3.13625e-18)
(1.02809 0.0154153 -6.00299e-18)
(1.02082 0.00211041 -1.36197e-18)
(1.01354 0.0122401 -6.18218e-18)
(1.02877 0.0142073 -1.2865e-18)
(1.01328 0.0122543 -6.12952e-18)
(0.990947 0.0263641 1.45839e-17)
(1.02727 0.0279211 6.09151e-18)
(1.0259 0.0314629 5.09161e-18)
(0.954893 0.049938 -2.6835e-17)
(0.98123 0.0020492 9.40654e-17)
(1.03335 0.0801374 5.15887e-18)
(0.983077 0.00151561 -5.61117e-17)
(0.983425 0.000996441 9.8067e-17)
(1.03014 0.0153413 1.8366e-18)
(0.94173 0.0948195 5.09745e-17)
(1.00301 0.00269854 4.83515e-18)
(0.999688 0.000131029 5.72075e-17)
(1.01587 0.0114146 -6.73543e-18)
(0.99965 1.77101e-05 8.06757e-17)
(1.00335 0.00303996 -1.04992e-17)
(0.774535 0.0187332 8.78242e-17)
(0.178859 0.153841 -1.90699e-16)
(1.00324 0.00288597 4.78139e-18)
(0.999986 2.68543e-05 -2.29137e-17)
(1.00022 -1.63704e-06 -2.60737e-18)
(0.99999 2.62159e-05 6.7198e-18)
(1.02846 0.0122316 -1.46894e-18)
(0.999996 2.44795e-05 1.90998e-18)
(0.999995 1.12524e-05 -4.65746e-18)
(1.12672 0.0638943 -1.9077e-17)
(1.03271 0.0109312 7.20765e-19)
(1.08695 0.164255 7.4469e-18)
(1.00154 0.00317183 3.02447e-18)
(1.03498 0.0128941 2.17673e-18)
(1.00703 0.000767996 2.49173e-18)
(1.00009 0.00853264 6.71521e-18)
(1.03183 0.0280277 9.58657e-18)
(1.01609 0.0108603 -9.12243e-18)
(0.931721 0.00386567 2.61328e-16)
(1.01569 0.0099295 -7.80885e-18)
(1.00293 0.00257573 4.46197e-18)
(1.00051 0.000116672 -3.7714e-18)
(1.03302 0.00981498 1.8414e-18)
(1.03577 0.0126066 1.01371e-18)
(1.00583 0.00145432 5.61799e-18)
(0.707911 0.0241179 4.90972e-16)
(1.0315 0.0272997 -1.18586e-18)
(1.03728 -3.47008e-05 2.84638e-19)
(0.998318 0.0347848 2.84438e-19)
(1.00114 0.0413322 -8.71655e-18)
(0.999987 0.000109714 -2.00021e-17)
(0.40098 0.55836 -1.0776e-16)
(1.03435 0.0818738 -2.2062e-17)
(1.00117 0.00341561 -1.89146e-18)
(0.971913 0.181125 1.46035e-17)
(0.98415 0.00102788 5.1789e-17)
(0.999972 5.89444e-05 2.86681e-19)
(1 3.17501e-05 -6.75815e-19)
(0.999993 5.92918e-05 -3.78977e-19)
(1.09296 0.161196 1.376e-18)
(0.944123 0.0953147 6.40981e-17)
(0.989035 0.0281682 -1.63402e-17)
(1.02787 0.0103181 8.0976e-18)
(1.03686 -0.00152328 -2.3268e-18)
(0.999451 0.0113141 4.64085e-19)
(0.942242 0.00686097 9.97752e-17)
(0.99935 0.0342175 1.04805e-17)
(1.04666 0.0159274 -6.32149e-18)
(1.10634 0.0420922 1.2572e-17)
(0.709823 0.041739 2.01236e-16)
(0.993874 0.0249529 -5.28785e-19)
(0.955466 0.0539141 6.74937e-17)
(1.01835 0.000385694 -1.51667e-18)
(1.0257 0.036127 -1.39562e-17)
(1.01166 0.010973 -7.35136e-18)
(1.01637 0.0117631 -3.07984e-18)
(0.998109 0.000215752 1.03601e-16)
(1.01218 0.0107898 -8.19218e-18)
(1.03048 0.0119455 3.03566e-18)
(0.999999 1.66273e-05 -2.65053e-18)
(0.754729 -0.00403961 4.15826e-17)
(0.990497 0.00110478 -2.03155e-16)
(1.05279 0.00898089 7.64184e-18)
(1.03611 0.0104057 -4.16628e-18)
(0.993709 0.000972363 1.37664e-16)
(0.950725 0.0593261 -1.18006e-17)
(1.17289 0.247258 1.29183e-17)
(1.02886 0.0146105 2.91514e-18)
(1.00848 0.0157917 -6.3607e-18)
(1.03795 -0.00119805 1.89536e-18)
(1.03645 0.010614 -6.35433e-18)
(1.02892 0.0329656 4.2224e-18)
(1.00453 0.00290381 1.58443e-17)
(1.00001 6.14646e-06 1.1581e-18)
(0.995257 0.0693087 -1.33979e-18)
(1.00028 0.000109084 -1.05439e-18)
(1.0507 0.018772 -3.85898e-18)
(1.00259 0.00017942 -2.88825e-18)
(0.96672 0.00306224 -3.55315e-17)
(0.962672 0.0410383 -3.58872e-17)
(1.01091 0.000447792 -7.82095e-18)
(1.09929 0.119356 -7.48216e-18)
(0.945711 0.067343 -8.36354e-18)
(0.994916 0.0169378 3.09348e-17)
(1.00087 0.00390275 7.63584e-18)
(0.593478 0.0905367 -1.46769e-16)
(1.00068 0.000201814 -1.85917e-19)
(1.0013 0.00292946 -5.06259e-18)
(1.04205 0.041829 -3.03937e-20)
(0.999983 2.4534e-05 2.86859e-17)
(1.00123 0.00404828 -2.78175e-18)
(1.00154 0.00270425 4.1349e-18)
(0.730482 0.218429 -6.15373e-17)
(0.66603 0.475472 -3.30369e-17)
(0.998395 0.0116608 6.74642e-18)
(1.00149 -0.000305014 6.1998e-18)
(0.9413 0.0333591 -1.13526e-17)
(1.00013 0.0420403 7.70743e-18)
(1.02781 0.0112696 7.42177e-19)
(1.03131 0.0157666 8.67606e-18)
(1.03238 0.0108995 2.65761e-19)
(1.00091 4.43841e-06 4.57336e-19)
(0.999993 3.35996e-05 1.34522e-18)
(1.00053 0.0369789 -1.82641e-18)
(0.999995 6.42097e-06 -2.17087e-18)
(0.963349 0.0426156 -1.84312e-17)
(1.02723 0.0113355 -2.48314e-18)
(1.02581 0.0353768 6.02916e-18)
(0.996652 0.000684606 -3.7744e-17)
(0.997189 0.0664796 2.48045e-17)
(1.04561 0.0402258 -4.54769e-18)
(0.997918 8.90267e-05 -1.04815e-16)
(1.00128 0.0118153 -2.59289e-17)
(1.00568 0.00169678 1.58292e-17)
(0.921086 0.0497866 7.78633e-17)
(1.04363 0.0412219 -3.01928e-18)
(0.999991 6.20651e-05 2.00362e-17)
(1.00082 0.0388899 -2.1447e-17)
(1.03338 0.00787995 -1.40614e-18)
(1.01602 0.000469688 -1.48565e-18)
(0.999581 0.0398438 6.67663e-18)
(1.00296 -0.000495504 5.68812e-18)
(0.931349 0.0958146 -5.87696e-17)
(1.02769 0.00398198 -4.34693e-18)
(1.03731 0.0079406 2.11017e-18)
(1.02687 0.0320366 2.29836e-18)
(1.00094 0.000164385 -8.34508e-20)
(1.00112 0.0116844 -1.57463e-17)
(1.05344 0.0601617 -1.19441e-17)
(1.05219 0.0166264 -2.52736e-18)
(1 2.14727e-05 -2.20419e-19)
(1.01091 0.015951 9.72386e-18)
(0.988305 0.177341 -9.90863e-18)
(1.03802 0.00171266 -3.25296e-18)
(0.525316 0.456339 1.03336e-16)
(0.999995 4.23893e-05 1.08698e-18)
(1.00251 0.000321847 -1.08643e-17)
(1.00073 3.84606e-05 2.05123e-18)
(1.03131 0.0139318 1.34953e-18)
(0.994519 0.0187189 2.32097e-17)
(0.995853 0.0133678 7.57122e-18)
(1.00313 -2.99359e-05 -1.19296e-17)
(0.999433 0.0368988 1.71919e-18)
(1.01722 0.0128248 -4.98489e-18)
(0.973289 0.00278006 1.73326e-16)
(1.00904 0.000613651 6.5355e-18)
(1.08316 0.0891498 -1.48157e-17)
(1.00036 1.66057e-05 8.30486e-19)
(1.08726 0.105891 -2.12165e-17)
(1.00155 0.000209381 2.09722e-18)
(0.602411 0.589308 1.59767e-16)
(1.02906 0.00255038 -1.63674e-19)
(1.05125 0.0643908 -5.33252e-18)
(0.999857 3.53456e-05 -7.04544e-17)
(0.996953 0.000752409 -2.65588e-17)
(1.02581 0.0276171 -1.77657e-18)
(1.0038 0.00214398 3.26425e-18)
(0.99898 0.000209034 -5.34095e-17)
(0.992088 0.000378185 3.4278e-16)
(0.993948 0.0207186 -3.72329e-17)
(0.994664 0.0203048 1.51941e-17)
(0.9658 0.158165 4.69777e-17)
(1.0335 0.0322108 -1.95233e-18)
(1.034 0.0316131 -6.03316e-18)
(1.00001 1.31793e-05 8.78985e-19)
(1.00421 0.00223025 -1.16582e-18)
(1.02735 0.0127047 -1.6157e-19)
(1.05192 0.0156678 4.74361e-18)
(1.00001 8.83237e-06 -3.35123e-18)
(1.00039 0.000142161 -7.90847e-18)
(1.03305 0.00905457 -3.53171e-18)
(1.00073 0.000223123 1.0793e-18)
(0.800931 0.0513016 -2.1364e-16)
(1.1717 0.243374 -9.95767e-18)
(1.09312 -0.0121697 3.73489e-17)
(1.00001 7.19636e-06 3.53723e-18)
(1.00639 0.00930327 -1.18246e-18)
(1.04296 0.0113004 4.68057e-18)
(0.995113 0.0141358 4.58882e-17)
(1.00428 0.000774718 3.68284e-18)
(0.368556 0.642042 1.42852e-16)
(1.00036 6.55835e-05 -5.41438e-18)
(0.928812 0.0746319 3.35855e-17)
(0.958143 0.0466654 -2.43401e-17)
(1.007 0.00942006 -1.2631e-17)
(1.00428 0.000699343 -7.19906e-19)
(0.998751 0.000160582 -1.73968e-16)
(1.01085 0.000897268 1.08696e-17)
(1.0409 0.00397438 -7.20528e-19)
(1.0168 0.00870431 -1.0248e-17)
(0.997372 0.0114269 3.58603e-19)
(0.999997 1.18251e-05 7.2462e-19)
(0.999998 2.21072e-05 -8.59197e-17)
(0.994473 0.0172495 -2.07003e-17)
(0.996398 0.00135409 -1.12452e-16)
(0.993077 0.0606266 7.02638e-19)
(1.03141 0.0128058 1.46016e-18)
(0.999282 -2.3195e-05 -1.64436e-17)
(1.00038 0.000227332 5.53864e-19)
(1.02718 0.0291988 7.59077e-18)
(0.761943 -0.0167359 -5.22853e-18)
(0.997692 0.000205479 2.71808e-16)
(1.04653 0.0149985 -7.66315e-19)
(1.00018 4.79338e-05 -4.00161e-18)
(0.996184 0.0115489 -2.58742e-17)
(0.952835 0.0832113 -5.09907e-17)
(1.03928 0.00161584 1.25356e-18)
(1.04176 0.0112407 5.00466e-18)
(0.951377 0.0535643 2.2553e-17)
(1.00248 0.018672 -2.62164e-17)
(1.03996 0.0053546 8.64945e-19)
(1.00001 3.21846e-05 -1.06228e-18)
(0.999933 1.89982e-05 -2.34506e-16)
(1.03591 0.00302319 -5.16061e-19)
(1.01056 0.0097502 -5.86751e-18)
(1.00311 0.0191742 -2.09393e-17)
(1.01095 0.00957453 -6.40591e-18)
(0.999996 3.94707e-05 -4.34766e-18)
(1.00044 0.000215857 -2.55474e-19)
(1.00366 0.000366154 8.988e-18)
(0.999322 0.0302384 -1.68588e-18)
(1.04045 0.00647803 2.03751e-18)
(0.943032 0.0397058 1.14173e-17)
(0.990335 0.00093253 2.39036e-16)
(0.92667 0.0353747 -1.19336e-16)
(1.0306 0.0144588 1.76077e-18)
(1.00859 0.0175473 4.87741e-18)
(0.932355 0.04927 -1.42899e-16)
(0.985634 0.0216656 -9.77658e-18)
(1.05001 0.00834644 6.35766e-18)
(1.03194 0.0119611 1.18464e-18)
(0.985474 0.0205701 1.90151e-17)
(0.994359 0.0589489 -1.18984e-17)
(0.9999 8.8227e-05 4.16894e-17)
(1.01006 0.0654548 4.14828e-17)
(1.02669 0.0268001 -4.31445e-18)
(1.00002 -1.14106e-05 2.30434e-18)
(0.999998 3.11675e-07 3.11989e-17)
(1.00078 0.000129618 -7.3047e-18)
(0.999754 0.000263435 4.0016e-17)
(1.06428 0.0683196 -2.31589e-17)
(1.01062 0.0167018 2.29e-17)
(1.01364 0.00226414 -1.04587e-17)
(0.94285 0.0441745 -4.46125e-17)
(0.992054 0.000278261 5.3756e-17)
(0.79365 0.0202955 -6.12566e-17)
(1.03777 0.0026284 -1.40013e-18)
(1.03977 0.00361416 -2.45734e-18)
(1.00403 5.69329e-05 6.82678e-18)
(1.04978 0.0405209 -1.60196e-18)
(1.00001 3.93393e-05 1.21325e-18)
(0.998526 0.0295938 9.19269e-19)
(1.00052 0.00362037 -6.25617e-19)
(0.937081 0.110344 1.76094e-17)
(0.931222 0.0485874 4.54713e-17)
(1.00199 0.0163459 1.63092e-17)
(1.017 0.0118277 9.70059e-19)
(0.419356 0.663506 1.55999e-16)
(1.03044 0.0128513 -1.02932e-18)
(1.04243 0.0619037 1.73808e-17)
(1.00925 0.0126163 7.96589e-18)
(0.976239 0.145559 1.52236e-17)
(1.15732 0.206782 -3.4406e-17)
(1.00106 -0.000247025 2.03726e-18)
(0.998243 0.0033982 -4.01529e-18)
(1 1.13191e-05 2.35994e-18)
(1.05745 0.0646739 -1.61814e-17)
(0.998429 0.00313977 -5.55762e-18)
(1.01613 0.00966956 -5.30226e-18)
(1.09928 0.112905 1.27981e-18)
(1.00039 8.45618e-05 -2.03355e-18)
(0.969901 0.00234321 -2.24554e-16)
(0.991539 0.0510014 1.38325e-17)
(1.00685 0.015024 2.09283e-18)
(0.997408 0.000175768 1.30103e-16)
(1.00188 0.0169505 1.35528e-17)
(0.999262 0.000908884 -1.64191e-17)
(0.995112 0.0156141 1.63417e-17)
(0.999271 0.000778808 3.56625e-18)
(0.999281 0.00098559 6.03526e-18)
(0.995751 0.0134372 -1.52096e-17)
(1.03762 0.00640588 2.02518e-18)
(1.0349 0.00863126 -3.83172e-20)
(1.00684 0.0167628 -1.95885e-18)
(0.667336 0.0419759 -1.17569e-16)
(1.03994 -0.000728243 -6.53635e-20)
(0.242794 0.283664 -9.61802e-18)
(1.02959 0.0142971 6.33038e-18)
(1.02381 3.02953e-05 -2.00936e-18)
(0.995556 0.0142027 -1.18424e-17)
(1.02833 0.0153455 -2.41134e-18)
(0.991993 0.0266332 1.49254e-17)
(1.03638 0.000374558 -9.18044e-19)
(0.57097 0.388838 -2.52526e-17)
(0.948851 0.0339293 -4.43248e-18)
(0.992413 0.0246778 -9.04844e-19)
(1.00498 0.0230026 7.97632e-18)
(0.994888 0.00114755 -1.86501e-17)
(0.996349 0.000977328 8.79969e-17)
(1.0262 0.0297233 1.35716e-17)
(0.999996 3.53548e-05 -6.37308e-18)
(1.04744 -0.00221659 -8.93496e-18)
(0.999476 5.29031e-05 4.4014e-18)
(0.947822 0.0386836 2.24903e-17)
(0.998416 0.0745617 -6.71516e-18)
(1.06199 0.0613316 2.5214e-18)
(1.03907 0.025364 -3.85519e-18)
(1.03495 0.0147174 -6.76079e-18)
(0.99212 0.0499939 -4.00333e-18)
(1.00903 0.012995 5.95255e-18)
(1.03911 0.0255953 -1.25862e-18)
(0.972371 0.0304705 2.4499e-18)
(1.04232 0.0625029 1.27643e-17)
(1.00782 0.0220616 8.43187e-18)
(1.04476 0.0399267 -6.25814e-18)
(1.00545 0.0227954 1.27865e-17)
(1.00001 2.10555e-05 -6.06157e-19)
(0.998805 0.0262012 -5.54365e-18)
(0.647463 0.0523508 1.00976e-16)
(0.972283 0.13877 -2.10076e-17)
(1.00652 0.00547969 2.98854e-18)
(1.00005 -1.11971e-05 1.28094e-18)
(0.999212 0.000174029 1.57122e-16)
(0.994545 0.00730366 7.24385e-18)
(0.964861 0.00248822 4.82869e-17)
(1.03399 0.00706792 3.40967e-18)
(1.02939 -0.000757806 1.19404e-18)
(1.00083 9.81933e-06 6.0608e-18)
(1.0049 0.00689021 -1.90682e-18)
(0.99354 0.0274299 -3.57415e-19)
(1.00629 0.0052545 -1.50108e-17)
(1.0091 0.00117303 6.77352e-18)
(1.04604 0.0348489 -1.88151e-17)
(0.993672 0.0013782 -9.15613e-17)
(0.992542 0.0346675 1.02068e-17)
(1.0366 0.0152157 -2.15745e-18)
(1.00524 0.00619919 3.42641e-18)
(1.00799 0.00657772 -2.94938e-18)
(0.943926 0.0636273 -4.49217e-17)
(1 -1.1078e-05 -2.85006e-18)
(0.993368 0.00531727 5.11213e-18)
(1.29911 0.182188 -1.04244e-17)
(0.999891 2.7261e-05 3.1436e-17)
(1.04027 0.0386241 -7.67542e-18)
(0.997325 0.0732188 -1.83148e-17)
(1.00765 0.00671632 -1.63312e-18)
(0.958523 0.0453693 -1.39584e-17)
(1.03622 0.0152208 2.53112e-18)
(0.997769 0.0261895 1.43037e-17)
(1.02851 0.0337949 -3.06523e-18)
(0.999567 0.00323626 3.07578e-18)
(0.936305 0.0366116 -3.82742e-17)
(1.00493 0.000874137 9.95503e-18)
(1.03219 0.00175126 7.05549e-19)
(1.03458 0.0157759 -2.11289e-18)
(0.930478 0.0448006 -5.2743e-17)
(0.999837 0.00319365 -2.07441e-18)
(1.04124 0.0051172 3.07846e-18)
(1.05308 0.0223933 2.10143e-18)
(0.991986 0.034322 -2.17043e-17)
(1.00576 0.0134346 1.19245e-17)
(1.00471 0.00290037 6.38022e-18)
(1.01178 0.0630371 2.6128e-17)
(0.791569 0.207171 -1.17883e-16)
(0.995525 0.000892944 -1.86209e-17)
(0.999966 3.92286e-05 1.68115e-17)
(0.993254 0.0255128 -1.95423e-17)
(0.999996 1.73139e-05 1.87245e-19)
(1.15429 0.208238 9.43523e-18)
(1.00652 0.0227755 -1.86526e-18)
(1.03673 0.0882211 -1.98585e-17)
(1.01572 0.00757651 8.01629e-18)
(1.02765 -0.00082386 -2.81568e-18)
(0.25359 0.124823 -9.15099e-16)
(1.00655 0.0157047 7.03222e-18)
(1.08498 0.202859 1.07127e-17)
(1.03411 0.00806656 2.75204e-18)
(1.02632 -0.0121568 -6.55405e-17)
(1.02791 0.0129548 -3.7721e-18)
(0.996834 0.0121378 6.57826e-18)
(1.00612 0.0143452 -3.66395e-18)
(1.01591 0.000495186 -1.40007e-18)
(1.0941 0.0942197 -9.30394e-18)
(1.08399 0.0884062 -5.55172e-18)
(1.00111 0.000173779 -1.65303e-18)
(1.00161 -6.22175e-05 4.09443e-19)
(0.931142 0.0422382 8.73376e-17)
(1.00223 -6.45025e-05 1.56187e-18)
(0.68044 0.396456 4.21282e-17)
(1.02815 0.0321308 1.75389e-17)
(0.969595 0.168039 -9.20695e-18)
(1.00418 0.00302343 -5.51969e-18)
(0.0630044 0.271977 -2.91878e-16)
(1.13195 0.227659 -4.62194e-17)
(1.00598 0.0223963 3.89617e-18)
(0.999996 1.49844e-05 4.12282e-19)
(0.999855 0.00269325 -2.14464e-18)
(0.953845 0.0315932 1.69466e-17)
(0.994277 0.00822511 -1.804e-17)
(0.989607 0.000253894 2.07028e-16)
(0.996839 0.00999387 1.67315e-17)
(1.03095 0.0114662 -1.91775e-19)
(0.971768 0.0305873 4.63408e-18)
(1.06893 -0.0225684 -2.25761e-17)
(0.617141 0.0385361 -7.76587e-17)
(1.00083 -6.46324e-05 7.69135e-18)
(0.96521 0.0363237 2.00993e-18)
(1.03333 0.0300147 1.71548e-18)
(0.923537 0.0573332 1.38337e-17)
(1.00461 0.0128032 9.0921e-18)
(0.935624 0.0757107 -4.2799e-19)
(1.03698 0.00887999 -4.31306e-18)
(0.954361 0.0359844 -2.92761e-17)
(0.997187 0.000507243 3.48787e-17)
(1.00008 1.85961e-05 6.32065e-18)
(1.03712 0.0237805 7.70168e-19)
(1.04002 0.025151 -3.02815e-18)
(1.02685 0.00190551 -1.20506e-19)
(0.935026 0.0341862 -2.75345e-17)
(1.03424 0.0870568 -2.16967e-19)
(1.02299 0.000403004 -3.77852e-18)
(0.99756 0.0243723 5.22814e-18)
(1.00051 0.00391964 2.37133e-19)
(1.00947 0.00847211 -1.51574e-18)
(0.776893 0.0345967 1.05029e-16)
(1.0096 0.00888202 3.15949e-18)
(1.03472 0.0218561 -6.0181e-18)
(0.982531 0.0415767 1.44759e-17)
(1.02645 0.00936301 1.16068e-18)
(1.01174 -2.34513e-05 8.99617e-18)
(0.996125 0.0115294 2.91008e-18)
(1.05246 0.0216426 -1.85624e-18)
(1.01517 0.00692255 -7.68295e-18)
(1.00523 0.0133061 2.04532e-17)
(1.05798 -0.00691767 -1.08899e-17)
(0.990256 0.0296152 -1.93629e-18)
(1.02014 0.00146444 -2.56773e-18)
(0.798434 0.339549 -6.95506e-17)
(1 -3.68924e-06 -4.47035e-19)
(1.01526 0.0078075 -3.05087e-18)
(0.998683 0.02094 1.72144e-17)
(0.992292 0.00719296 4.54276e-18)
(1.00314 0.000621748 -8.42594e-19)
(0.998107 0.0241235 -1.51763e-17)
(1.00001 -2.25197e-06 -2.12585e-18)
(1.04318 0.10844 -3.71309e-17)
(1.00558 0.000947799 5.45582e-18)
(0.971247 0.00623448 1.40509e-16)
(1.03511 0.0339219 9.56621e-18)
(0.954061 0.0485253 -2.42155e-17)
(1.01678 0.00918068 -1.0397e-17)
(1.01625 0.00849177 -1.63873e-18)
(1.03707 0.0248258 -1.28583e-18)
(1.10498 0.128768 4.31991e-17)
(0.999868 7.3357e-05 2.80554e-17)
(0.992715 0.000806575 -1.08579e-16)
(1.02199 -0.000533642 -8.29609e-19)
(1.10341 0.189119 1.4247e-17)
(1.0399 0.0253519 -7.60125e-18)
(0.999794 0.00289292 1.73966e-18)
(0.253545 0.138212 -8.338e-16)
(1.00005 3.36337e-05 -2.46267e-19)
(1.00507 0.00146591 -9.76527e-18)
(0.72695 0.0063342 -8.44045e-18)
(0.994593 0.00516493 -6.01608e-18)
(0.99961 0.00334376 6.4872e-19)
(0.999451 0.00368179 3.63102e-18)
(0.983637 0.0387359 2.11171e-17)
(0.959854 0.0289781 -3.43367e-17)
(0.999841 2.81385e-05 -6.59964e-17)
(0.993557 0.00633396 1.83632e-18)
(0.941631 0.0682252 -9.70304e-18)
(0.998531 0.0208002 -1.8142e-18)
(0.995531 0.0177421 9.01666e-18)
(0.99671 0.00926679 3.16067e-18)
(1.00111 0.000168469 -3.97862e-18)
(0.957259 0.0309918 4.71902e-17)
(1.06498 0.0575563 -4.68331e-19)
(0.994573 0.0162778 -1.61636e-17)
(0.932703 0.0313275 -6.921e-17)
(1.03368 0.00604101 2.11381e-18)
(1.03307 -0.00197475 4.14576e-19)
(1.03952 0.104115 -1.53851e-17)
(1.03255 0.0297163 1.82257e-19)
(0.99655 0.00955104 1.98384e-17)
(1.00501 0.00152758 6.49162e-18)
(1.08609 0.101169 9.63112e-18)
(1.0385 0.00552649 -3.92566e-18)
(0.97526 0.0259963 -1.84109e-17)
(1.00078 0.00405668 -3.21281e-18)
(0.999728 0.000195933 9.72042e-18)
(0.924882 0.0143346 4.33349e-17)
(1.04928 0.0401923 -1.35882e-17)
(1.01426 0.00681044 2.68407e-18)
(1.0112 0.050342 -2.05503e-17)
(1.01491 0.00763463 -1.02653e-17)
(0.997152 0.00988504 -1.2306e-17)
(1.00563 0.00484213 4.00504e-18)
(0.966531 0.0346694 2.4157e-17)
(0.837223 0.0221889 3.07967e-17)
(0.32223 0.426407 1.2692e-16)
(0.966088 0.0369162 -5.07407e-17)
(0.999156 0.0182403 5.23503e-18)
(1.00536 0.00435281 9.2113e-19)
(0.967901 0.0331876 -5.57502e-18)
(0.548003 0.314918 -3.85078e-17)
(0.933939 0.0326889 -4.13621e-17)
(0.99992 0.00305526 2.0305e-18)