/*--------------------------------*- C++ -*----------------------------------*\
  =========                 |
  \\      /  F ield         | OpenFOAM: The Open Source CFD Toolbox
   \\    /   O peration     | Website:  https://openfoam.org
    \\  /    A nd           | Version:  7
     \\/     M anipulation  |
\*---------------------------------------------------------------------------*/
FoamFile
{
    version     2.0;
    format      ascii;
    class       volScalarField;
    location    "13.5";
    object      rho;
}
// * * * * * * * * * * * * * * * * * * * * * * * * * * * * * * * * * * * * * //

dimensions      [1 -3 0 0 0 0 0];

internalField   nonuniform List<scalar> 
2413
(
1.5559
1.55142
1.54652
1.54018
1.53451
1.52963
1.5244
1.51862
1.56731
1.56232
1.55702
1.55057
1.5445
1.53913
1.53365
1.52791
1.57876
1.57344
1.56755
1.56092
1.55476
1.54909
1.54339
1.53788
1.59005
1.5846
1.57812
1.57114
1.56505
1.55938
1.55354
1.54817
1.60081
1.59527
1.58854
1.58137
1.57548
1.57005
1.56421
1.55878
1.61106
1.60538
1.59861
1.59159
1.58593
1.5807
1.57507
1.5695
1.62022
1.61476
1.6084
1.60187
1.59652
1.5914
1.58579
1.58003
1.62856
1.6235
1.61771
1.61173
1.60663
1.60153
1.59593
1.59011
1.63585
1.63141
1.62632
1.62094
1.61611
1.61108
1.60542
1.59951
1.64244
1.63864
1.63406
1.62895
1.62423
1.6193
1.61383
1.60822
1.64778
1.64436
1.6402
1.63559
1.63122
1.62663
1.62154
1.61635
1.6528
1.64954
1.64538
1.64077
1.63675
1.63268
1.6282
1.62371
1.65629
1.653
1.64908
1.64512
1.64178
1.63837
1.63456
1.63061
1.66015
1.65653
1.65244
1.64879
1.64619
1.64327
1.63976
1.6362
1.66311
1.65987
1.65625
1.65326
1.651
1.6484
1.64511
1.64144
1.66747
1.66418
1.66071
1.65773
1.65546
1.65263
1.64904
1.64552
1.67259
1.66976
1.66636
1.66344
1.66085
1.65764
1.65357
1.64939
1.68008
1.67698
1.67295
1.66886
1.66551
1.66177
1.65758
1.65406
1.68794
1.68473
1.68032
1.67593
1.67185
1.66747
1.66283
1.65925
1.51911
1.51824
1.51661
1.51457
1.51254
1.51078
1.50911
1.50743
1.50592
1.50435
1.50277
1.50201
1.50188
1.50203
1.50242
1.50378
1.50606
1.51029
1.51732
1.52562
1.52986
1.53021
1.52884
1.52698
1.52481
1.52153
1.51742
1.51225
1.50658
1.50176
1.49665
1.49028
1.48523
1.48118
1.47634
1.47176
1.46832
1.46443
1.45993
1.45662
1.45325
1.44854
1.44457
1.44163
1.43807
1.43331
1.42967
1.42643
1.42236
1.41788
1.41466
1.4114
1.40769
1.40362
1.40044
1.39709
1.39315
1.39056
1.3881
1.38518
1.38305
1.38165
1.38078
1.3801
1.37971
1.38027
1.38233
1.38704
1.39393
1.40337
1.4189
1.43629
1.45186
1.46394
1.47182
1.47636
1.51452
1.51138
1.50773
1.50369
1.50018
1.49664
1.4922
1.48791
1.48437
1.48059
1.47647
1.47157
1.46775
1.46454
1.46072
1.45586
1.45166
1.44871
1.44557
1.44147
1.43961
1.43838
1.43675
1.43522
1.4345
1.43398
1.4333
1.43286
1.43381
1.4367
1.44177
1.44887
1.45774
1.46723
1.47724
1.48651
1.49348
1.49947
1.50581
1.51107
1.51332
1.51293
1.51301
1.51434
1.51502
1.51486
1.51402
1.51322
1.51262
1.51162
1.50997
1.50811
1.50647
1.50468
1.50324
1.50287
1.50287
1.50302
1.50389
1.50595
1.50921
1.51416
1.52166
1.53128
1.53787
1.53916
1.53871
1.53704
1.53489
1.53207
1.52831
1.52351
1.51798
1.51269
1.50744
1.50145
1.4958
1.49127
1.48671
1.48253
1.47892
1.47457
1.46984
1.46652
1.46312
1.45835
1.45447
1.4515
1.44777
1.44303
1.4392
1.43563
1.43126
1.42692
1.42379
1.42058
1.41635
1.4127
1.40943
1.40586
1.40159
1.39804
1.3957
1.3931
1.39018
1.38805
1.38655
1.38591
1.38547
1.3852
1.38583
1.38812
1.39246
1.39791
1.4068
1.41992
1.43422
1.45138
1.46438
1.4719
1.52387
1.52057
1.51674
1.51234
1.50873
1.50518
1.50067
1.49626
1.49293
1.48947
1.48561
1.48105
1.47757
1.47438
1.47046
1.46551
1.4608
1.45731
1.45363
1.44887
1.44556
1.44343
1.44108
1.43804
1.43658
1.43591
1.43443
1.43304
1.43177
1.43084
1.4302
1.43097
1.43337
1.43783
1.44406
1.45158
1.46014
1.46855
1.47692
1.4843
1.49054
1.49596
1.50069
1.50561
1.50714
1.50656
1.50692
1.50799
1.50859
1.50858
1.50782
1.50683
1.50597
1.50487
1.50373
1.50317
1.50316
1.50345
1.50416
1.506
1.50952
1.51479
1.52248
1.5321
1.54021
1.54333
1.54395
1.54338
1.5419
1.53977
1.53671
1.53269
1.52778
1.52248
1.51718
1.51185
1.50657
1.50159
1.49702
1.49302
1.48923
1.48477
1.47971
1.47626
1.47305
1.4685
1.46448
1.46113
1.45703
1.45232
1.44843
1.44474
1.44011
1.43609
1.43291
1.42941
1.42497
1.42116
1.41773
1.41394
1.40962
1.40599
1.403
1.40026
1.39724
1.39475
1.39345
1.39225
1.39132
1.39074
1.39046
1.39109
1.39319
1.39665
1.40234
1.40966
1.41928
1.43375
1.44939
1.46161
1.53386
1.53032
1.52625
1.52149
1.51753
1.51373
1.50906
1.50433
1.50117
1.49801
1.4943
1.49003
1.48693
1.48377
1.47987
1.47494
1.4704
1.46672
1.46278
1.45788
1.45371
1.45111
1.44818
1.4442
1.44108
1.43935
1.43711
1.43438
1.43252
1.43191
1.43075
1.42924
1.42801
1.42774
1.42841
1.4297
1.43254
1.43731
1.44352
1.45074
1.45816
1.4659
1.47304
1.47986
1.48539
1.48976
1.49446
1.49936
1.50012
1.50011
1.50031
1.50073
1.50127
1.50145
1.50143
1.50149
1.50178
1.50269
1.50404
1.50624
1.50972
1.51462
1.52199
1.53085
1.5391
1.54396
1.54532
1.54508
1.54405
1.54278
1.54069
1.53762
1.53369
1.52912
1.52419
1.51956
1.51529
1.51078
1.50615
1.50223
1.49853
1.49439
1.48957
1.48602
1.48295
1.47887
1.47462
1.47072
1.46623
1.46157
1.45788
1.45416
1.44939
1.44549
1.44217
1.43826
1.43367
1.42992
1.42635
1.42249
1.41833
1.41459
1.41118
1.40805
1.40492
1.40166
1.39954
1.39851
1.3976
1.39702
1.39664
1.39639
1.3968
1.39841
1.40167
1.40684
1.41271
1.42133
1.43416
1.44601
1.54416
1.5404
1.53599
1.53086
1.52664
1.5226
1.51776
1.51288
1.5098
1.50675
1.50302
1.49879
1.49569
1.49241
1.48843
1.48335
1.47908
1.4757
1.47194
1.46726
1.4633
1.46039
1.45706
1.45267
1.44805
1.44531
1.44248
1.43868
1.43538
1.43417
1.4326
1.43042
1.42872
1.42799
1.42679
1.42521
1.42389
1.42399
1.42475
1.42645
1.42948
1.43426
1.4401
1.44644
1.45347
1.46031
1.46642
1.47258
1.47765
1.48193
1.48595
1.48895
1.49124
1.49292
1.4935
1.49383
1.495
1.49718
1.49986
1.50292
1.50722
1.51265
1.51978
1.52913
1.53843
1.54482
1.54632
1.54616
1.54504
1.54376
1.54176
1.53893
1.5353
1.53085
1.52637
1.52276
1.51947
1.51576
1.51144
1.50767
1.50441
1.50113
1.49728
1.49393
1.49108
1.48754
1.48352
1.47961
1.47521
1.47091
1.4674
1.46361
1.45877
1.45471
1.45124
1.44718
1.44267
1.43912
1.4357
1.43158
1.42786
1.42439
1.42031
1.4164
1.41327
1.41017
1.40709
1.40482
1.40403
1.40369
1.40362
1.40352
1.40323
1.40342
1.40483
1.408
1.41176
1.41678
1.42434
1.43351
1.55462
1.55071
1.54595
1.54024
1.53572
1.5316
1.52675
1.52178
1.51877
1.51575
1.51185
1.50756
1.50434
1.50083
1.49664
1.49133
1.48723
1.48415
1.48064
1.47622
1.47237
1.46953
1.46613
1.46155
1.45664
1.45323
1.44984
1.44562
1.44121
1.43915
1.43716
1.43426
1.43121
1.42979
1.42808
1.42589
1.42377
1.4227
1.42145
1.41974
1.41896
1.41939
1.42036
1.42181
1.42451
1.42868
1.43359
1.43905
1.44492
1.45086
1.4567
1.46206
1.46662
1.47083
1.47467
1.47849
1.48245
1.48681
1.49088
1.49399
1.49824
1.50386
1.51118
1.52181
1.5338
1.54313
1.54579
1.54547
1.5447
1.54371
1.54177
1.53884
1.53568
1.532
1.52761
1.52373
1.52034
1.51681
1.5128
1.50864
1.50609
1.50398
1.50112
1.4977
1.49447
1.49136
1.48819
1.48497
1.48083
1.477
1.47399
1.47054
1.466
1.46217
1.45896
1.45509
1.45093
1.44763
1.44432
1.44017
1.43649
1.43309
1.42913
1.42473
1.42171
1.41897
1.41576
1.41266
1.41119
1.41052
1.41003
1.40992
1.4098
1.40959
1.41016
1.41172
1.41406
1.41666
1.4203
1.42571
1.56498
1.56087
1.55595
1.54992
1.54508
1.54097
1.53613
1.53118
1.5281
1.525
1.52088
1.51621
1.51267
1.50893
1.50452
1.49903
1.49521
1.49251
1.4892
1.4849
1.48123
1.47839
1.47494
1.47028
1.46502
1.46139
1.45794
1.45371
1.44905
1.44645
1.44394
1.44055
1.43661
1.43418
1.43182
1.42867
1.42551
1.42403
1.42249
1.42054
1.41875
1.4176
1.41631
1.41463
1.41326
1.41325
1.41382
1.4149
1.41707
1.4203
1.42429
1.42883
1.43359
1.4386
1.44374
1.44918
1.455
1.46095
1.46693
1.47301
1.48014
1.48882
1.49847
1.50989
1.52262
1.53245
1.53697
1.53881
1.53949
1.53935
1.53868
1.53756
1.53522
1.53172
1.52778
1.52406
1.52018
1.5163
1.51241
1.50844
1.50636
1.50469
1.50201
1.49863
1.49505
1.49214
1.49002
1.4874
1.48351
1.47906
1.47568
1.47255
1.46848
1.46483
1.46213
1.45886
1.45536
1.45241
1.4491
1.44476
1.4411
1.43795
1.4344
1.43026
1.42725
1.42451
1.4213
1.41752
1.41477
1.41342
1.41225
1.41156
1.4115
1.41147
1.41169
1.41259
1.41403
1.41572
1.41797
1.42118
1.5751
1.5707
1.56564
1.55954
1.55454
1.55059
1.54609
1.5411
1.53767
1.53441
1.53009
1.52495
1.521
1.51708
1.5125
1.50686
1.50321
1.50076
1.49759
1.49337
1.48953
1.48659
1.48306
1.47834
1.47319
1.46974
1.46645
1.46242
1.45788
1.45499
1.45213
1.44827
1.44348
1.44027
1.43733
1.43355
1.42963
1.4278
1.4259
1.42346
1.42126
1.41957
1.41772
1.41563
1.41315
1.4116
1.41035
1.40899
1.40765
1.40748
1.40736
1.40787
1.40894
1.4107
1.4132
1.41688
1.42164
1.42742
1.43383
1.44097
1.44905
1.45867
1.47016
1.48296
1.49706
1.50995
1.51927
1.52622
1.52904
1.52993
1.52975
1.52845
1.52665
1.52468
1.52221
1.51969
1.5174
1.51502
1.51211
1.50896
1.50623
1.50317
1.50022
1.4972
1.49408
1.49232
1.49052
1.48762
1.48383
1.47974
1.47599
1.47308
1.47009
1.46651
1.46328
1.45997
1.4566
1.45351
1.45017
1.4458
1.4422
1.43978
1.43673
1.43279
1.42968
1.42669
1.42342
1.41965
1.41599
1.41363
1.41212
1.41112
1.4106
1.41052
1.41094
1.41192
1.41337
1.41502
1.41651
1.41803
1.58491
1.58028
1.5753
1.56951
1.56441
1.56044
1.55614
1.55117
1.54722
1.54367
1.53919
1.53366
1.5293
1.52538
1.52094
1.51546
1.51167
1.50928
1.50611
1.50168
1.49756
1.49441
1.49075
1.48599
1.48088
1.47776
1.47478
1.471
1.46668
1.46373
1.46072
1.45666
1.45174
1.44801
1.44462
1.44047
1.43623
1.43378
1.43131
1.42806
1.42519
1.42279
1.42046
1.41803
1.41513
1.41342
1.4119
1.41014
1.40843
1.40706
1.40572
1.40421
1.40284
1.40116
1.40068
1.40101
1.40219
1.40444
1.40772
1.41205
1.41789
1.42566
1.43579
1.44837
1.46232
1.47582
1.48677
1.49508
1.50086
1.50488
1.50816
1.51074
1.51169
1.51169
1.51128
1.50961
1.50699
1.50442
1.50266
1.50118
1.49959
1.49823
1.49728
1.49543
1.49288
1.49022
1.48701
1.48366
1.48024
1.47675
1.47449
1.47282
1.47021
1.46688
1.46351
1.45999
1.45608
1.45285
1.44973
1.44544
1.44235
1.44061
1.43775
1.43367
1.43038
1.42717
1.42337
1.41951
1.41604
1.41319
1.41108
1.4099
1.40899
1.40855
1.40854
1.40918
1.41087
1.41312
1.41481
1.41596
1.59425
1.58959
1.58468
1.57929
1.57444
1.57046
1.56624
1.56136
1.55691
1.55294
1.54835
1.54254
1.53774
1.53394
1.52973
1.52448
1.52048
1.51796
1.51471
1.51019
1.5056
1.50212
1.49838
1.49359
1.48874
1.48597
1.48316
1.47947
1.47527
1.47228
1.46911
1.46487
1.45978
1.45611
1.45277
1.44859
1.44467
1.44187
1.43893
1.43533
1.432
1.42883
1.42542
1.4224
1.4193
1.4164
1.4145
1.41238
1.41036
1.40876
1.40734
1.40557
1.40381
1.40224
1.40005
1.39893
1.39896
1.39931
1.4002
1.40203
1.40498
1.40925
1.41556
1.42462
1.43541
1.44578
1.45433
1.4611
1.46669
1.47154
1.47599
1.47996
1.48253
1.48405
1.48499
1.48522
1.48512
1.48518
1.48565
1.48581
1.48531
1.48484
1.48437
1.48315
1.48174
1.48035
1.47898
1.47755
1.47562
1.47324
1.4708
1.46789
1.46461
1.46175
1.459
1.45642
1.45447
1.45228
1.44947
1.44606
1.44266
1.43922
1.43547
1.43102
1.4274
1.4244
1.42076
1.41597
1.41324
1.41146
1.40889
1.40736
1.40615
1.40526
1.40498
1.40469
1.40516
1.40661
1.40838
1.4102
1.60325
1.59887
1.59428
1.58919
1.58441
1.58036
1.57604
1.57101
1.56624
1.562
1.5574
1.55172
1.54678
1.5431
1.53913
1.53414
1.52968
1.52679
1.52334
1.51854
1.5136
1.50998
1.50626
1.50165
1.49705
1.49441
1.49164
1.48791
1.48365
1.48052
1.47723
1.47287
1.46798
1.46458
1.4614
1.45736
1.45377
1.45089
1.4476
1.44368
1.44007
1.43645
1.43276
1.4294
1.42611
1.42282
1.42058
1.41832
1.41515
1.41298
1.41098
1.40844
1.40564
1.40407
1.4022
1.40027
1.3998
1.40001
1.40072
1.40196
1.40387
1.40688
1.41154
1.41849
1.42736
1.4361
1.44231
1.44561
1.44774
1.44961
1.45153
1.45331
1.45456
1.45527
1.45552
1.45562
1.45607
1.45699
1.45813
1.45918
1.4599
1.46059
1.46145
1.46184
1.46176
1.4616
1.46142
1.46071
1.45981
1.45875
1.45778
1.45637
1.45485
1.45328
1.4512
1.44868
1.44616
1.44357
1.44078
1.43811
1.43531
1.43282
1.43039
1.42707
1.42388
1.42152
1.41851
1.41483
1.41176
1.40867
1.40469
1.40015
1.39825
1.39708
1.3966
1.39688
1.39776
1.39874
1.40001
1.40161
1.61176
1.60769
1.6034
1.59859
1.59385
1.58981
1.58554
1.5805
1.57552
1.57118
1.56669
1.56119
1.55615
1.55257
1.54874
1.54381
1.53905
1.53582
1.53217
1.52729
1.52209
1.51835
1.51471
1.51019
1.50579
1.50314
1.50023
1.49632
1.49197
1.48869
1.48529
1.48088
1.47618
1.47321
1.47028
1.46633
1.46303
1.46018
1.45672
1.45265
1.44908
1.44546
1.44127
1.43811
1.43511
1.43152
1.42863
1.42631
1.42311
1.41984
1.41727
1.41448
1.41143
1.40885
1.40675
1.40451
1.40309
1.40322
1.40361
1.40407
1.40524
1.40771
1.4119
1.41841
1.42703
1.43621
1.44195
1.44382
1.44463
1.44501
1.44523
1.44512
1.44451
1.44336
1.44165
1.43974
1.43817
1.43725
1.43666
1.43626
1.43583
1.43593
1.43634
1.43656
1.43671
1.43694
1.43738
1.43743
1.43725
1.43728
1.43706
1.43593
1.43499
1.43411
1.43274
1.43104
1.42966
1.42812
1.42602
1.42411
1.42207
1.41959
1.41741
1.41497
1.41198
1.40961
1.40719
1.40379
1.4005
1.3981
1.39499
1.39095
1.38853
1.38649
1.38432
1.38292
1.38267
1.38291
1.38362
1.38509
1.6197
1.61602
1.61209
1.60758
1.6028
1.59867
1.59449
1.58952
1.58445
1.58027
1.57609
1.571
1.56607
1.56242
1.5586
1.55372
1.54858
1.54493
1.54111
1.53609
1.53093
1.52734
1.52382
1.51944
1.51519
1.51231
1.50912
1.50493
1.50032
1.49693
1.49352
1.48916
1.48484
1.48223
1.47946
1.47554
1.4723
1.46945
1.46574
1.46169
1.45816
1.45461
1.45095
1.44791
1.44504
1.44165
1.43875
1.43605
1.43263
1.42874
1.42582
1.42299
1.41978
1.41682
1.41438
1.41207
1.40985
1.40885
1.40868
1.40849
1.40902
1.4111
1.41478
1.42058
1.42883
1.43828
1.444
1.44524
1.44549
1.44564
1.44581
1.44567
1.44464
1.44279
1.44043
1.43773
1.43521
1.43293
1.4307
1.42896
1.4274
1.42581
1.4249
1.42404
1.42265
1.42149
1.42096
1.42006
1.41871
1.41804
1.41734
1.41599
1.41465
1.41384
1.41263
1.41082
1.40962
1.40837
1.40644
1.40481
1.40341
1.40141
1.39949
1.39786
1.39548
1.39312
1.39127
1.38861
1.38543
1.38305
1.38035
1.37654
1.3734
1.37099
1.36839
1.36579
1.36473
1.36452
1.36478
1.36557
1.62692
1.62334
1.61948
1.61518
1.6106
1.60672
1.60295
1.59846
1.59358
1.58955
1.58567
1.58088
1.57586
1.57207
1.56821
1.56336
1.55819
1.55437
1.5505
1.54557
1.54055
1.537
1.53347
1.52899
1.52474
1.52165
1.51821
1.51378
1.50915
1.50573
1.50233
1.49809
1.49405
1.49158
1.48881
1.48479
1.48146
1.4786
1.47482
1.47082
1.46751
1.46416
1.46098
1.45813
1.4553
1.45201
1.44909
1.44624
1.44281
1.43904
1.43601
1.43306
1.43002
1.42716
1.4245
1.42187
1.41933
1.41759
1.41683
1.41617
1.41638
1.41799
1.42062
1.42523
1.43274
1.44183
1.44729
1.44883
1.44892
1.44901
1.44912
1.44864
1.4471
1.44493
1.44221
1.439
1.43626
1.434
1.43154
1.42942
1.42768
1.42559
1.4239
1.42263
1.42091
1.41885
1.41735
1.41571
1.41348
1.41163
1.41026
1.4083
1.40587
1.40447
1.40294
1.40057
1.39869
1.39705
1.3947
1.39258
1.39101
1.38892
1.38657
1.38486
1.38266
1.37987
1.37787
1.37558
1.37235
1.36993
1.3677
1.36439
1.36118
1.3588
1.35618
1.35313
1.35129
1.35047
1.34993
1.34996
1.63295
1.62968
1.62607
1.62213
1.61787
1.61425
1.61089
1.60691
1.60227
1.5984
1.59481
1.59037
1.5855
1.58161
1.57777
1.57302
1.5679
1.56404
1.56019
1.55533
1.55056
1.54708
1.54348
1.53893
1.53469
1.53134
1.52767
1.52301
1.51843
1.51511
1.51177
1.50756
1.5038
1.50131
1.49842
1.49429
1.49079
1.48786
1.48411
1.48016
1.47694
1.47391
1.47112
1.46835
1.46539
1.46229
1.45949
1.4565
1.45303
1.44935
1.4467
1.44396
1.44095
1.43819
1.43559
1.43288
1.43012
1.428
1.42673
1.42577
1.4262
1.42763
1.42939
1.43318
1.44011
1.44952
1.45492
1.45576
1.45565
1.45498
1.45453
1.45355
1.45155
1.44931
1.4466
1.4431
1.44019
1.43786
1.43494
1.43203
1.43027
1.42808
1.42546
1.42379
1.42209
1.41983
1.4182
1.41671
1.41451
1.41237
1.41076
1.40876
1.40608
1.4041
1.40213
1.39936
1.39709
1.39521
1.39277
1.39034
1.38848
1.38623
1.38355
1.38146
1.37922
1.37629
1.37393
1.37169
1.36868
1.36602
1.36383
1.36087
1.35761
1.35531
1.35286
1.34968
1.34753
1.34602
1.34457
1.3436
1.63801
1.63475
1.63134
1.62779
1.62417
1.6212
1.61831
1.61486
1.6107
1.60697
1.60353
1.59933
1.59454
1.59066
1.58694
1.58239
1.57762
1.5739
1.57015
1.56547
1.56096
1.55742
1.55368
1.54894
1.54467
1.5412
1.53742
1.53269
1.52845
1.52523
1.52189
1.51769
1.51399
1.5113
1.50819
1.50386
1.50022
1.49731
1.49375
1.48999
1.48677
1.48404
1.48137
1.47857
1.4753
1.47227
1.46951
1.46651
1.46294
1.45982
1.45737
1.45484
1.45192
1.44926
1.44663
1.44387
1.44099
1.43871
1.43723
1.43638
1.4371
1.43833
1.4395
1.44285
1.44952
1.45896
1.46465
1.46549
1.46532
1.4645
1.46389
1.46261
1.46024
1.45747
1.45424
1.45019
1.44673
1.44369
1.44033
1.43667
1.43445
1.43233
1.42935
1.42749
1.42607
1.42348
1.42126
1.41992
1.41768
1.41498
1.41327
1.41121
1.40828
1.40596
1.40385
1.40087
1.39828
1.39649
1.39415
1.3916
1.38976
1.38755
1.38481
1.38266
1.38043
1.37749
1.37507
1.37285
1.36993
1.36715
1.3649
1.36213
1.35883
1.35634
1.35375
1.35032
1.34751
1.34539
1.3434
1.34192
1.64246
1.63955
1.63657
1.63356
1.63045
1.62785
1.62522
1.62198
1.61788
1.61422
1.61104
1.60725
1.603
1.59945
1.596
1.59178
1.58735
1.58373
1.58001
1.57537
1.57109
1.56759
1.56382
1.55914
1.55501
1.55146
1.54762
1.54283
1.53889
1.53575
1.53233
1.52804
1.52444
1.52155
1.51823
1.51378
1.51015
1.50726
1.50378
1.50016
1.49696
1.49424
1.49152
1.48859
1.48509
1.48221
1.47949
1.47646
1.47288
1.47028
1.46788
1.46525
1.46246
1.45987
1.45708
1.45427
1.45154
1.44919
1.44764
1.44707
1.44791
1.44882
1.44963
1.45274
1.45925
1.46857
1.47556
1.47664
1.47641
1.4757
1.47511
1.47369
1.47111
1.4681
1.4646
1.46018
1.45644
1.45306
1.44926
1.44533
1.44277
1.4403
1.43692
1.43435
1.43251
1.4298
1.42658
1.42467
1.4224
1.41894
1.4166
1.41462
1.41144
1.4087
1.40704
1.4045
1.40163
1.39991
1.39769
1.39478
1.39272
1.39051
1.38763
1.38534
1.38309
1.38014
1.37772
1.37552
1.37256
1.36961
1.36741
1.36473
1.36114
1.35851
1.35594
1.35235
1.34899
1.3466
1.3444
1.34235
1.64635
1.64389
1.64136
1.63859
1.63581
1.63361
1.6312
1.62821
1.62449
1.62098
1.618
1.61458
1.61078
1.6076
1.60442
1.60046
1.59645
1.59303
1.58941
1.58501
1.58102
1.57758
1.57384
1.56928
1.56533
1.56183
1.55797
1.55328
1.54963
1.54649
1.54298
1.53862
1.53503
1.53197
1.52849
1.52385
1.52035
1.51764
1.51422
1.51054
1.50751
1.50465
1.50176
1.49863
1.49486
1.49201
1.48942
1.48631
1.48284
1.48059
1.47825
1.47533
1.47263
1.47
1.46713
1.46426
1.46159
1.45903
1.45746
1.45731
1.4581
1.45865
1.45923
1.4621
1.4684
1.47729
1.48579
1.48773
1.48755
1.48716
1.48677
1.48542
1.48289
1.47985
1.47625
1.47173
1.46782
1.46425
1.46019
1.45606
1.45328
1.45058
1.44699
1.44407
1.44192
1.43911
1.43531
1.43287
1.43055
1.42687
1.4238
1.4218
1.41877
1.41538
1.41333
1.41089
1.4076
1.40524
1.40296
1.39998
1.39724
1.39466
1.39177
1.38916
1.38662
1.38357
1.38117
1.37896
1.37605
1.3731
1.37084
1.36824
1.3645
1.3616
1.35915
1.35561
1.35201
1.34983
1.34744
1.34456
1.65147
1.64921
1.64689
1.6444
1.64157
1.63905
1.63644
1.63335
1.6296
1.62648
1.62402
1.6211
1.61793
1.61518
1.61229
1.60865
1.60492
1.60162
1.59807
1.59388
1.59026
1.58701
1.58341
1.57921
1.57553
1.57212
1.56832
1.56376
1.56023
1.55711
1.5535
1.5491
1.54559
1.54246
1.53891
1.53432
1.5309
1.52827
1.52489
1.52098
1.51807
1.51507
1.51189
1.50855
1.50487
1.50204
1.49944
1.49628
1.49295
1.49071
1.48833
1.48505
1.48238
1.47982
1.47669
1.47383
1.47144
1.46898
1.46712
1.46698
1.46748
1.46767
1.46805
1.47062
1.47657
1.48498
1.4946
1.49811
1.49813
1.49806
1.49786
1.49663
1.49429
1.49143
1.48787
1.4835
1.47965
1.47602
1.47181
1.46768
1.46484
1.46199
1.45824
1.45518
1.45284
1.44994
1.44592
1.44308
1.44065
1.43707
1.43324
1.43102
1.42836
1.42441
1.42192
1.41986
1.41655
1.41343
1.41118
1.4084
1.40521
1.40216
1.3994
1.3967
1.39383
1.39056
1.38821
1.38596
1.38297
1.37997
1.37773
1.37516
1.37153
1.36849
1.36589
1.36242
1.3585
1.35577
1.35292
1.34916
1.65671
1.65443
1.65198
1.64923
1.64625
1.64387
1.64135
1.63841
1.63501
1.63221
1.63003
1.6274
1.62446
1.62181
1.61895
1.61534
1.61198
1.60902
1.60575
1.60209
1.59897
1.59594
1.5925
1.58867
1.58515
)
;

boundaryField
{
    inlet
    {
        type            calculated;
        value           nonuniform 0();
    }
    outlet
    {
        type            calculated;
        value           nonuniform 0();
    }
    bottom
    {
        type            symmetryPlane;
    }
    top
    {
        type            symmetryPlane;
    }
    obstacle
    {
        type            calculated;
        value           nonuniform 0();
    }
    front
    {
        type            empty;
    }
    back
    {
        type            empty;
    }
    procBoundary37to29
    {
        type            processor;
        value           nonuniform List<scalar> 
129
(
1.54517
1.54102
1.53634
1.53015
1.52492
1.52043
1.5154
1.50953
1.5189
1.51729
1.5158
1.5141
1.51215
1.5102
1.50829
1.50644
1.50473
1.50292
1.50088
1.49895
1.4977
1.49677
1.49631
1.49673
1.49804
1.50151
1.50766
1.51522
1.5182
1.51802
1.51669
1.51593
1.5139
1.51029
1.50605
1.5006
1.49516
1.49063
1.4854
1.47906
1.47473
1.47081
1.46556
1.46072
1.45744
1.45384
1.44924
1.44593
1.44283
1.43848
1.43445
1.4314
1.42787
1.42302
1.41938
1.41624
1.41249
1.40803
1.40478
1.40175
1.3981
1.39405
1.39098
1.38763
1.38476
1.38231
1.3795
1.37746
1.37597
1.37474
1.37368
1.3731
1.37375
1.37603
1.38072
1.38912
1.40109
1.41654
1.43692
1.45228
1.46236
1.46958
1.47129
1.47071
1.50551
1.50256
1.49903
1.49506
1.49149
1.48791
1.48366
1.47945
1.4756
1.47144
1.46706
1.46178
1.45774
1.45467
1.45114
1.44686
1.44378
1.44185
1.43974
1.43754
1.4362
1.43567
1.43499
1.4346
1.43467
1.4358
1.43909
1.44458
1.45242
1.46205
1.47304
1.48432
1.49297
1.50114
1.50805
1.51298
1.5177
1.5205
1.52078
1.52138
1.52158
1.52098
1.51996
1.5194
1.5194
)
;
    }
    procBoundary37to30
    {
        type            processor;
        value           nonuniform List<scalar> 3(1.47638 1.47797 1.47262);
    }
    procBoundary37to36
    {
        type            processor;
        value           uniform 1.56166;
    }
    procBoundary37to38
    {
        type            processor;
        value           nonuniform List<scalar> 
16
(
1.45975
1.44437
1.4325
1.4251
1.41964
1.41694
1.41219
1.40335
1.38744
1.36717
1.35063
1.34337
1.34131
1.34152
1.34336
1.34689
)
;
    }
    procBoundary37to44
    {
        type            processor;
        value           nonuniform List<scalar> 
18
(
1.57285
1.58404
1.59538
1.60634
1.61673
1.62575
1.63382
1.64046
1.64631
1.65115
1.65577
1.65946
1.66367
1.66677
1.67166
1.67605
1.68363
1.69113
)
;
    }
    procBoundary37to45
    {
        type            processor;
        value           nonuniform List<scalar> 
129
(
1.69733
1.69312
1.68718
1.68169
1.67773
1.67347
1.66917
1.66606
1.58179
1.57808
1.57381
1.57037
1.56732
1.56375
1.55945
1.55598
1.55286
1.5493
1.54478
1.54141
1.53881
1.53552
1.53137
1.52848
1.52558
1.52216
1.51854
1.51495
1.51219
1.5095
1.5062
1.50305
1.50071
1.49812
1.4947
1.49191
1.48941
1.48635
1.48339
1.48103
1.47863
1.47658
1.4762
1.4763
1.47614
1.47659
1.47888
1.48408
1.49201
1.50179
1.50743
1.50796
1.50802
1.50793
1.50687
1.50487
1.50229
1.4989
1.49484
1.49109
1.48744
1.48319
1.47908
1.47614
1.47323
1.46945
1.4663
1.46401
1.46118
1.45717
1.45417
1.45174
1.44841
1.44428
1.44177
1.43932
1.43552
1.43211
1.43006
1.42721
1.42342
1.42075
1.41828
1.41517
1.41161
1.40879
1.40619
1.40313
1.39956
1.39708
1.39473
1.39158
1.3884
1.38611
1.38354
1.37991
1.37696
1.37447
1.37122
1.3673
1.36458
1.36178
1.35767
1.66343
1.66083
1.65803
1.65501
1.6514
1.64837
1.64584
1.64303
1.63968
1.63724
1.63537
1.63289
1.63024
1.62777
1.62505
1.62159
1.61845
1.61572
1.61262
1.60928
1.60653
1.60369
1.60033
1.59702
1.58179
1.59382
)
;
    }
}


// ************************************************************************* //
