/*--------------------------------*- C++ -*----------------------------------*\
  =========                 |
  \\      /  F ield         | OpenFOAM: The Open Source CFD Toolbox
   \\    /   O peration     | Website:  https://openfoam.org
    \\  /    A nd           | Version:  7
     \\/     M anipulation  |
\*---------------------------------------------------------------------------*/
FoamFile
{
    version     2.0;
    format      ascii;
    class       volVectorField;
    location    "14";
    object      U;
}
// * * * * * * * * * * * * * * * * * * * * * * * * * * * * * * * * * * * * * //

dimensions      [0 1 -1 0 0 0 0];

internalField   nonuniform List<vector> 
2413
(
(1.90394 0.0366813 0)
(1.90431 0.0366427 0)
(1.90484 0.0368912 0)
(1.90534 0.0372494 0)
(1.90572 0.0375479 0)
(1.90612 0.0382108 0)
(1.90688 0.0387908 0)
(1.90724 0.0391571 0)
(1.90374 0.0366822 0)
(1.90411 0.0365081 0)
(1.90483 0.0362847 0)
(1.90549 0.0362601 0)
(1.90633 0.0364651 0)
(1.90694 0.0367324 0)
(1.90727 0.0372125 0)
(1.90784 0.0379811 0)
(1.90446 0.0351703 0)
(1.9043 0.0360176 0)
(1.90465 0.0360006 0)
(1.90548 0.0360034 0)
(1.90634 0.0358849 0)
(1.9071 0.0357715 0)
(1.90801 0.0357885 0)
(1.90864 0.0361495 0)
(1.90813 0.0282257 0)
(1.90682 0.0308534 0)
(1.90566 0.0331555 0)
(1.90555 0.0350138 0)
(1.9063 0.035604 0)
(1.9072 0.0353418 0)
(1.90795 0.0351636 0)
(1.9089 0.0350697 0)
(1.91019 0.0240035 0)
(1.90918 0.0263048 0)
(1.90921 0.0262895 0)
(1.90862 0.0285485 0)
(1.9078 0.0311816 0)
(1.90786 0.0332077 0)
(1.90785 0.0343054 0)
(1.90899 0.0347477 0)
(1.91686 0.0100729 0)
(1.91421 0.0154271 0)
(1.91254 0.019432 0)
(1.91054 0.0240979 0)
(1.91005 0.0261956 0)
(1.9105 0.0265557 0)
(1.91082 0.0284123 0)
(1.91103 0.0305875 0)
(1.92134 0.00114486 0)
(1.91973 0.00431547 0)
(1.91809 0.00789187 0)
(1.91639 0.0116837 0)
(1.91438 0.0165045 0)
(1.91334 0.0200962 0)
(1.91238 0.0239629 0)
(1.91265 0.0254918 0)
(1.92346 -0.0024639 0)
(1.92307 -0.00157017 0)
(1.92228 7.30424e-05 0)
(1.92127 0.00235877 0)
(1.91976 0.00564321 0)
(1.91846 0.0091547 0)
(1.9176 0.0121934 0)
(1.91598 0.0170245 0)
(1.92358 -0.00251636 0)
(1.92383 -0.00247295 0)
(1.9239 -0.00230275 0)
(1.92367 -0.00185461 0)
(1.92315 -0.000605347 0)
(1.92252 0.00121217 0)
(1.92177 0.00346611 0)
(1.92081 0.00629835 0)
(1.92358 -0.00189168 0)
(1.92377 -0.00203511 0)
(1.92399 -0.00220713 0)
(1.92415 -0.002052 0)
(1.92438 -0.0016795 0)
(1.92427 -0.00138065 0)
(1.92391 -0.000443399 0)
(1.92372 0.00052571 0)
(1.92254 0.000203262 0)
(1.92291 -0.00027042 0)
(1.92342 -0.00108829 0)
(1.924 -0.00167661 0)
(1.92441 -0.00169201 0)
(1.92469 -0.0015586 0)
(1.92473 -0.000972539 0)
(1.9248 -0.000623523 0)
(1.92145 0.00351278 0)
(1.92154 0.00272009 0)
(1.92221 0.00147954 0)
(1.92264 0.000718221 0)
(1.92357 9.65051e-05 0)
(1.9242 -0.000834062 0)
(1.9248 -0.00116363 0)
(1.9255 -0.000860139 0)
(1.92004 0.00792603 0)
(1.9206 0.00630576 0)
(1.92114 0.00424016 0)
(1.92146 0.00385361 0)
(1.92229 0.00291406 0)
(1.92342 0.00168321 0)
(1.92431 0.000198138 0)
(1.92528 -0.000283949 0)
(1.91752 0.0134308 0)
(1.91896 0.0110262 0)
(1.91959 0.00866209 0)
(1.91985 0.00840096 0)
(1.92 0.00765657 0)
(1.92173 0.00558973 0)
(1.92283 0.00374655 0)
(1.92393 0.00273835 0)
(1.91432 0.0194943 0)
(1.91624 0.0166346 0)
(1.91738 0.0137397 0)
(1.91817 0.0129924 0)
(1.91857 0.0125612 0)
(1.91957 0.0102095 0)
(1.9205 0.0083392 0)
(1.92139 0.007661 0)
(1.91073 0.0259419 0)
(1.91288 0.0231112 0)
(1.91428 0.0199029 0)
(1.91538 0.018774 0)
(1.91658 0.0175314 0)
(1.91761 0.0149557 0)
(1.91825 0.0132809 0)
(1.91904 0.012709 0)
(1.90737 0.0318164 0)
(1.9094 0.0293 0)
(1.91102 0.0263187 0)
(1.91215 0.0248667 0)
(1.91373 0.0230442 0)
(1.91516 0.0201158 0)
(1.916 0.0181604 0)
(1.91687 0.0176684 0)
(1.90556 0.0365488 0)
(1.90635 0.0346863 0)
(1.9076 0.0323015 0)
(1.90854 0.0311991 0)
(1.91031 0.0292657 0)
(1.91218 0.0261724 0)
(1.91338 0.0236666 0)
(1.9146 0.0225121 0)
(1.9043 0.0402339 0)
(1.90494 0.0383599 0)
(1.90538 0.0366518 0)
(1.90585 0.0363446 0)
(1.90712 0.0348993 0)
(1.90912 0.0321303 0)
(1.91039 0.0297138 0)
(1.9117 0.0284154 0)
(1.90696 0.0893637 0)
(1.91144 0.087199 0)
(1.91621 0.0836803 0)
(1.92066 0.0804565 0)
(1.92531 0.0772291 0)
(1.92963 0.0753299 0)
(1.93333 0.0743514 0)
(1.93702 0.0726935 0)
(1.94071 0.0711536 0)
(1.94517 0.0684957 0)
(1.95029 0.0642771 0)
(1.95466 0.0610556 0)
(1.95826 0.059755 0)
(1.96158 0.0587132 0)
(1.96521 0.0574112 0)
(1.96921 0.0547991 0)
(1.97372 0.0503025 0)
(1.97758 0.0471924 0)
(1.9816 0.0464838 0)
(1.9855 0.0447141 0)
(1.98934 0.0410196 0)
(1.99288 0.0390033 0)
(1.99658 0.0378915 0)
(2.00078 0.034268 0)
(2.00442 0.0302826 0)
(2.00797 0.0288395 0)
(2.01137 0.027384 0)
(2.01484 0.023621 0)
(2.01799 0.0208549 0)
(2.02155 0.0199551 0)
(2.0251 0.017467 0)
(2.02874 0.0124893 0)
(2.0313 0.00920753 0)
(2.03445 0.00836289 0)
(2.03742 0.0066114 0)
(2.04022 0.00261305 0)
(2.04193 -0.000919755 0)
(2.04321 -0.00339519 0)
(2.04398 -0.00695359 0)
(2.04463 -0.0110998 0)
(2.04534 -0.0157163 0)
(2.04454 -0.0182501 0)
(2.0443 -0.0219454 0)
(2.04509 -0.0261015 0)
(2.04533 -0.0306004 0)
(2.04432 -0.0322173 0)
(2.04548 -0.035432 0)
(2.04778 -0.0403892 0)
(2.04897 -0.0441957 0)
(2.05076 -0.0451643 0)
(2.05321 -0.0473074 0)
(2.05704 -0.0522426 0)
(2.06012 -0.0570245 0)
(2.0635 -0.0577541 0)
(2.0663 -0.0576416 0)
(2.07099 -0.0623671 0)
(2.07404 -0.0657863 0)
(1.90747 0.0393702 0)
(1.90758 0.0396975 0)
(1.90724 0.0406109 0)
(1.90595 0.0424658 0)
(1.9044 0.0440843 0)
(1.902 0.0454959 0)
(1.89731 0.0500451 0)
(1.89247 0.053779 0)
(1.88775 0.0545615 0)
(1.88165 0.0589421 0)
(1.87902 0.0614965 0)
(1.87636 0.0622738 0)
(1.87577 0.062144 0)
(1.8755 0.0619829 0)
(1.87552 0.0623151 0)
(1.87562 0.0626738 0)
(1.87595 0.062365 0)
(1.8767 0.0613743 0)
(1.87775 0.0599416 0)
(1.87891 0.0584583 0)
(1.88021 0.0570565 0)
(1.88157 0.0557583 0)
(1.88311 0.0540405 0)
(1.8848 0.0521402 0)
(1.88646 0.0503271 0)
(1.88835 0.0480784 0)
(1.89027 0.0459861 0)
(1.89255 0.0429738 0)
(1.8945 0.0410498 0)
(1.89665 0.0395419 0)
(1.89936 0.0364289 0)
(1.90176 0.0341071 0)
(1.90408 0.0324332 0)
(1.90747 0.028505 0)
(1.91045 0.0262764 0)
(1.9138 0.0241436 0)
(1.91769 0.019487 0)
(1.9207 0.0175076 0)
(1.92489 0.0141182 0)
(1.92807 0.0106841 0)
(1.93037 0.00832042 0)
(1.93154 0.00897659 0)
(1.93109 0.0100556 0)
(1.93055 0.0107511 0)
(1.92909 0.0127678 0)
(1.92641 0.0170232 0)
(1.91974 0.0256407 0)
(1.90813 0.0414401 0)
(1.8993 0.0528816 0)
(1.88455 0.0739741 0)
(1.87364 0.0930819 0)
(1.87084 0.0957189 0)
(1.87087 0.0997763 0)
(1.86858 0.104539 0)
(1.87014 0.108251 0)
(1.87099 0.110092 0)
(1.87263 0.111572 0)
(1.87532 0.112627 0)
(1.87892 0.111797 0)
(1.88301 0.109981 0)
(1.88749 0.107648 0)
(1.89226 0.105254 0)
(1.89737 0.10199 0)
(1.90276 0.0978057 0)
(1.90776 0.0942357 0)
(1.91213 0.092224 0)
(1.91644 0.0898857 0)
(1.92093 0.0866137 0)
(1.92484 0.0850011 0)
(1.92889 0.083228 0)
(1.93398 0.079063 0)
(1.93826 0.075989 0)
(1.94213 0.0750939 0)
(1.94602 0.0731008 0)
(1.94963 0.0712213 0)
(1.95323 0.0700581 0)
(1.95804 0.0664292 0)
(1.96238 0.0619123 0)
(1.96607 0.0605529 0)
(1.96919 0.0598615 0)
(1.97288 0.057052 0)
(1.97677 0.0551385 0)
(1.98105 0.0532487 0)
(1.98574 0.048928 0)
(1.98912 0.0450597 0)
(1.99267 0.0445979 0)
(1.99581 0.0441691 0)
(1.99975 0.0400403 0)
(2.00312 0.0367967 0)
(2.00671 0.0356934 0)
(2.01062 0.0326753 0)
(2.0142 0.0282328 0)
(2.01734 0.0262899 0)
(2.0207 0.0256435 0)
(2.02401 0.0225998 0)
(2.027 0.0181961 0)
(2.02965 0.015811 0)
(2.03254 0.0145416 0)
(2.03469 0.0116308 0)
(2.03706 0.00742336 0)
(2.03824 0.00346831 0)
(2.03829 0.000575657 0)
(2.03808 -0.00316012 0)
(2.03893 -0.00691974 0)
(2.03872 -0.0101403 0)
(2.03789 -0.0129151 0)
(2.03869 -0.0169646 0)
(2.03915 -0.0215346 0)
(2.03827 -0.0231472 0)
(2.03985 -0.0266395 0)
(2.04213 -0.0316012 0)
(2.04369 -0.0340686 0)
(2.0457 -0.0342461 0)
(2.04871 -0.0366836 0)
(2.05281 -0.0420029 0)
(2.05577 -0.0459631 0)
(2.05906 -0.0464006 0)
(2.06193 -0.0466385 0)
(2.06636 -0.0509167 0)
(2.0695 -0.0559737 0)
(1.90823 0.0386357 0)
(1.90843 0.0391243 0)
(1.90858 0.0394094 0)
(1.90817 0.0403061 0)
(1.90717 0.0418228 0)
(1.90568 0.0431403 0)
(1.90233 0.0463803 0)
(1.89831 0.0500703 0)
(1.89334 0.0524465 0)
(1.88683 0.0571151 0)
(1.8819 0.0621774 0)
(1.8788 0.0632016 0)
(1.87684 0.0629886 0)
(1.87614 0.0631231 0)
(1.87603 0.0640913 0)
(1.87556 0.065335 0)
(1.87534 0.065764 0)
(1.87566 0.0654496 0)
(1.87633 0.0648113 0)
(1.87718 0.0640122 0)
(1.87815 0.0632974 0)
(1.87928 0.0625107 0)
(1.88057 0.0614163 0)
(1.88197 0.0600687 0)
(1.88346 0.0586392 0)
(1.88502 0.0570555 0)
(1.88687 0.0548876 0)
(1.88862 0.0530758 0)
(1.89063 0.051022 0)
(1.89275 0.0492736 0)
(1.8952 0.0468843 0)
(1.89747 0.0445366 0)
(1.89999 0.0421342 0)
(1.90293 0.0391109 0)
(1.90572 0.0363943 0)
(1.90867 0.0343829 0)
(1.91224 0.0308839 0)
(1.91561 0.0272911 0)
(1.91854 0.0262593 0)
(1.92288 0.0216581 0)
(1.92672 0.0159083 0)
(1.92943 0.0161749 0)
(1.93152 0.0152231 0)
(1.93219 0.0145836 0)
(1.93199 0.0149916 0)
(1.93167 0.0159409 0)
(1.93022 0.0183517 0)
(1.92696 0.0237798 0)
(1.92163 0.0311516 0)
(1.91004 0.0462083 0)
(1.89941 0.0619818 0)
(1.8932 0.0718046 0)
(1.8809 0.0917354 0)
(1.87518 0.103862 0)
(1.87521 0.10514 0)
(1.87561 0.108052 0)
(1.87559 0.110357 0)
(1.87765 0.112147 0)
(1.87942 0.114108 0)
(1.88142 0.115203 0)
(1.88466 0.1154 0)
(1.88865 0.113871 0)
(1.89289 0.111392 0)
(1.89713 0.109589 0)
(1.90182 0.106711 0)
(1.90686 0.102805 0)
(1.9115 0.0999764 0)
(1.91626 0.0966538 0)
(1.92101 0.0930047 0)
(1.92554 0.0905166 0)
(1.92997 0.0880963 0)
(1.93379 0.0862107 0)
(1.93736 0.0852187 0)
(1.94196 0.0820397 0)
(1.94669 0.077179 0)
(1.95052 0.0750253 0)
(1.95432 0.0742304 0)
(1.95796 0.0718688 0)
(1.96134 0.0701934 0)
(1.96499 0.0687923 0)
(1.96971 0.0646417 0)
(1.9735 0.0607809 0)
(1.97711 0.0602326 0)
(1.98064 0.0590347 0)
(1.98465 0.0550557 0)
(1.98815 0.0527003 0)
(1.99192 0.051644 0)
(1.99608 0.0478989 0)
(1.99927 0.0435446 0)
(2.00251 0.0425198 0)
(2.00559 0.0421949 0)
(2.00937 0.0386144 0)
(2.01275 0.0346769 0)
(2.01627 0.032977 0)
(2.01965 0.0311446 0)
(2.02289 0.0270118 0)
(2.02535 0.0230691 0)
(2.02778 0.0213663 0)
(2.02966 0.0198075 0)
(2.03139 0.0162861 0)
(2.03286 0.0120454 0)
(2.03255 0.00880006 0)
(2.03203 0.00515072 0)
(2.03277 0.00128041 0)
(2.03299 -0.00232006 0)
(2.03207 -0.00470378 0)
(2.03317 -0.00880601 0)
(2.03327 -0.0130032 0)
(2.03231 -0.0144757 0)
(2.03445 -0.0182836 0)
(2.03657 -0.0229485 0)
(2.03862 -0.0243875 0)
(2.04093 -0.0242527 0)
(2.04459 -0.0270548 0)
(2.04875 -0.0324418 0)
(2.05174 -0.0358856 0)
(2.05493 -0.0359189 0)
(2.05795 -0.0368537 0)
(2.06216 -0.0411579 0)
(2.06509 -0.045834 0)
(1.90896 0.036816 0)
(1.90919 0.037574 0)
(1.90928 0.0384327 0)
(1.90947 0.0389128 0)
(1.90915 0.0397554 0)
(1.90831 0.0409647 0)
(1.90669 0.0427317 0)
(1.90343 0.0464991 0)
(1.89933 0.049247 0)
(1.89418 0.0517597 0)
(1.8873 0.0583572 0)
(1.88272 0.0624755 0)
(1.87934 0.0628882 0)
(1.87731 0.0636478 0)
(1.87636 0.0649636 0)
(1.87597 0.0664368 0)
(1.87565 0.0670822 0)
(1.87581 0.0670701 0)
(1.87612 0.066875 0)
(1.87656 0.066851 0)
(1.87715 0.0670542 0)
(1.87799 0.0670728 0)
(1.87909 0.0665706 0)
(1.88026 0.0657667 0)
(1.88149 0.0649082 0)
(1.8828 0.0639093 0)
(1.88418 0.0626781 0)
(1.88568 0.0612723 0)
(1.88729 0.0600577 0)
(1.88927 0.0584584 0)
(1.89134 0.0567661 0)
(1.8935 0.0547101 0)
(1.89594 0.0521583 0)
(1.89852 0.0496026 0)
(1.90121 0.0469233 0)
(1.90402 0.0445424 0)
(1.90718 0.0417743 0)
(1.91027 0.038931 0)
(1.91339 0.0366256 0)
(1.91751 0.032568 0)
(1.92106 0.0279558 0)
(1.92374 0.0273416 0)
(1.92796 0.0238957 0)
(1.93135 0.019994 0)
(1.93319 0.0181568 0)
(1.93367 0.0192415 0)
(1.93282 0.0212923 0)
(1.93252 0.0225581 0)
(1.93148 0.0242249 0)
(1.92829 0.0291821 0)
(1.92297 0.0372851 0)
(1.91472 0.0485926 0)
(1.90198 0.0680487 0)
(1.89607 0.0778822 0)
(1.89237 0.087427 0)
(1.88353 0.102938 0)
(1.88043 0.110196 0)
(1.8801 0.111112 0)
(1.88243 0.11379 0)
(1.88336 0.115113 0)
(1.8856 0.11621 0)
(1.88774 0.117707 0)
(1.89041 0.118359 0)
(1.89407 0.117956 0)
(1.89808 0.116105 0)
(1.90203 0.113515 0)
(1.90634 0.110947 0)
(1.91087 0.108259 0)
(1.91557 0.104948 0)
(1.92014 0.102031 0)
(1.92483 0.0990772 0)
(1.92998 0.0947518 0)
(1.93433 0.0914839 0)
(1.93842 0.0902562 0)
(1.94222 0.0880936 0)
(1.9457 0.0855863 0)
(1.94937 0.0838269 0)
(1.95428 0.0800371 0)
(1.95852 0.075612 0)
(1.96207 0.0744913 0)
(1.9654 0.0739761 0)
(1.96914 0.0709423 0)
(1.97268 0.0688487 0)
(1.97662 0.0668965 0)
(1.98112 0.062666 0)
(1.98439 0.0594016 0)
(1.98785 0.0590482 0)
(1.99135 0.0576354 0)
(1.99505 0.0532544 0)
(1.9981 0.0506955 0)
(2.00148 0.0498417 0)
(2.00534 0.0467198 0)
(2.00887 0.0420966 0)
(2.01182 0.0398599 0)
(2.01503 0.0394191 0)
(2.01771 0.0369993 0)
(2.02078 0.032352 0)
(2.02284 0.0292154 0)
(2.02481 0.0273759 0)
(2.0263 0.0239038 0)
(2.02743 0.0201049 0)
(2.02732 0.0165095 0)
(2.02625 0.0134841 0)
(2.02698 0.00952466 0)
(2.02715 0.00592704 0)
(2.02617 0.00378388 0)
(2.02742 -8.03748e-05 0)
(2.02749 -0.00393361 0)
(2.02681 -0.00571398 0)
(2.0293 -0.0100049 0)
(2.03155 -0.0145294 0)
(2.03405 -0.0154511 0)
(2.03663 -0.0154402 0)
(2.04079 -0.018567 0)
(2.04471 -0.0236358 0)
(2.04776 -0.026168 0)
(2.05072 -0.0257146 0)
(2.05385 -0.0273441 0)
(2.05799 -0.0320443 0)
(2.06074 -0.0359799 0)
(1.90981 0.0351629 0)
(1.91032 0.035555 0)
(1.91051 0.0362631 0)
(1.91042 0.0372914 0)
(1.91044 0.0380307 0)
(1.91017 0.0390337 0)
(1.90958 0.0400687 0)
(1.90794 0.0421181 0)
(1.90464 0.0460029 0)
(1.90059 0.0481315 0)
(1.89457 0.0526675 0)
(1.88861 0.0581518 0)
(1.88402 0.0602051 0)
(1.87995 0.0629626 0)
(1.87758 0.0654591 0)
(1.87648 0.0670581 0)
(1.87633 0.0674676 0)
(1.87641 0.0674353 0)
(1.87656 0.0674184 0)
(1.87685 0.0678114 0)
(1.8771 0.0685194 0)
(1.87738 0.0690532 0)
(1.87808 0.0689705 0)
(1.87914 0.0685691 0)
(1.88037 0.0681444 0)
(1.88163 0.0676715 0)
(1.88277 0.0671437 0)
(1.88386 0.0666145 0)
(1.88518 0.0660705 0)
(1.88672 0.0654897 0)
(1.88841 0.0646056 0)
(1.89019 0.0633359 0)
(1.89229 0.0613652 0)
(1.89454 0.0591907 0)
(1.8969 0.0571652 0)
(1.89957 0.0547187 0)
(1.90243 0.0522293 0)
(1.90541 0.0497619 0)
(1.90854 0.0469636 0)
(1.91172 0.044338 0)
(1.91542 0.0400816 0)
(1.91857 0.037591 0)
(1.92227 0.0353631 0)
(1.92655 0.0304466 0)
(1.92952 0.0274333 0)
(1.93205 0.0265145 0)
(1.93409 0.0237891 0)
(1.93493 0.0236811 0)
(1.93435 0.0251579 0)
(1.93417 0.0273055 0)
(1.93327 0.0295774 0)
(1.93078 0.0336961 0)
(1.92523 0.0420286 0)
(1.91863 0.0524244 0)
(1.9088 0.067923 0)
(1.89917 0.0854359 0)
(1.89661 0.0904321 0)
(1.8939 0.0984324 0)
(1.8892 0.109043 0)
(1.8869 0.114966 0)
(1.88749 0.115935 0)
(1.88948 0.117834 0)
(1.89161 0.119 0)
(1.89419 0.119898 0)
(1.89624 0.120895 0)
(1.8992 0.121089 0)
(1.90283 0.120126 0)
(1.90688 0.118315 0)
(1.91095 0.11614 0)
(1.91539 0.112986 0)
(1.91973 0.110103 0)
(1.92374 0.107942 0)
(1.92877 0.103822 0)
(1.93341 0.100474 0)
(1.93759 0.0981158 0)
(1.94243 0.0936335 0)
(1.94641 0.0904023 0)
(1.94992 0.0898338 0)
(1.9535 0.087632 0)
(1.95731 0.0846904 0)
(1.96139 0.0819596 0)
(1.96599 0.0776492 0)
(1.96947 0.0746813 0)
(1.97282 0.0744329 0)
(1.97641 0.0727243 0)
(1.98024 0.0689047 0)
(1.98363 0.0670753 0)
(1.98749 0.0652814 0)
(1.99161 0.0610259 0)
(1.99448 0.0575706 0)
(1.99763 0.0569683 0)
(2.00068 0.0559931 0)
(2.00446 0.0518506 0)
(2.00743 0.0480079 0)
(2.01055 0.0467567 0)
(2.01334 0.0449597 0)
(2.01641 0.0407033 0)
(2.01829 0.036972 0)
(2.0199 0.0349927 0)
(2.02095 0.0320517 0)
(2.02154 0.028568 0)
(2.022 0.024771 0)
(2.0208 0.0222766 0)
(2.02121 0.0183153 0)
(2.02174 0.01406 0)
(2.02057 0.0117857 0)
(2.02172 0.00809807 0)
(2.02216 0.00467793 0)
(2.0221 0.00268873 0)
(2.02454 -0.00156387 0)
(2.02689 -0.00563676 0)
(2.02955 -0.00611416 0)
(2.03226 -0.00651022 0)
(2.0368 -0.0101645 0)
(2.04051 -0.0149488 0)
(2.04373 -0.0167192 0)
(2.04655 -0.0161326 0)
(2.04997 -0.0184772 0)
(2.05395 -0.0236975 0)
(2.05643 -0.0265539 0)
(1.90988 0.034774 0)
(1.91063 0.0347147 0)
(1.91131 0.0346944 0)
(1.91188 0.0348906 0)
(1.9124 0.0355234 0)
(1.91213 0.0365665 0)
(1.91152 0.0379865 0)
(1.91098 0.0391866 0)
(1.90916 0.0416137 0)
(1.9065 0.0437824 0)
(1.90176 0.0475105 0)
(1.89556 0.0534665 0)
(1.89028 0.0560562 0)
(1.88455 0.0601902 0)
(1.88031 0.0643619 0)
(1.87844 0.0659565 0)
(1.87748 0.067044 0)
(1.87726 0.0671918 0)
(1.87724 0.0672234 0)
(1.8774 0.0677912 0)
(1.87746 0.0688299 0)
(1.87752 0.0695664 0)
(1.87805 0.0695803 0)
(1.8789 0.0691763 0)
(1.87985 0.0690174 0)
(1.88093 0.0690656 0)
(1.88207 0.0690333 0)
(1.88327 0.0687768 0)
(1.88452 0.068459 0)
(1.88577 0.0684046 0)
(1.88701 0.0684107 0)
(1.88832 0.0680046 0)
(1.88982 0.0671359 0)
(1.89155 0.0660187 0)
(1.89344 0.0649027 0)
(1.89569 0.0632569 0)
(1.89829 0.0610168 0)
(1.9008 0.0594071 0)
(1.90384 0.0568275 0)
(1.90696 0.0537762 0)
(1.90992 0.0514223 0)
(1.91317 0.0485188 0)
(1.9165 0.0460893 0)
(1.92032 0.0425068 0)
(1.92447 0.036965 0)
(1.92755 0.0358028 0)
(1.93093 0.0332794 0)
(1.93344 0.0306271 0)
(1.93548 0.0284859 0)
(1.93613 0.0287798 0)
(1.9358 0.0299251 0)
(1.93563 0.0316274 0)
(1.93541 0.0334385 0)
(1.93349 0.0374467 0)
(1.92945 0.0439572 0)
(1.92193 0.0557343 0)
(1.91542 0.0680736 0)
(1.90631 0.0851111 0)
(1.90042 0.0970921 0)
(1.89975 0.0996006 0)
(1.89786 0.106083 0)
(1.89523 0.113905 0)
(1.89475 0.117924 0)
(1.89559 0.119441 0)
(1.89755 0.121094 0)
(1.90023 0.121872 0)
(1.90245 0.122406 0)
(1.9049 0.122736 0)
(1.90793 0.123194 0)
(1.91139 0.122421 0)
(1.91521 0.120491 0)
(1.91937 0.117782 0)
(1.92353 0.115487 0)
(1.92798 0.112479 0)
(1.93246 0.109337 0)
(1.93667 0.106611 0)
(1.94107 0.102966 0)
(1.94523 0.0998787 0)
(1.94976 0.096192 0)
(1.95405 0.0919392 0)
(1.9575 0.0905335 0)
(1.96071 0.0893093 0)
(1.96494 0.0853884 0)
(1.96869 0.0826228 0)
(1.97269 0.0802649 0)
(1.97699 0.076285 0)
(1.98027 0.0736936 0)
(1.98352 0.0731088 0)
(1.98701 0.0709288 0)
(1.99053 0.0668131 0)
(1.99363 0.0645934 0)
(1.99704 0.063337 0)
(2.00075 0.0598914 0)
(2.00372 0.0556193 0)
(2.0063 0.0538555 0)
(2.00889 0.0530847 0)
(2.01131 0.0500445 0)
(2.01366 0.0458536 0)
(2.01498 0.0429224 0)
(2.01579 0.0401789 0)
(2.01592 0.0365025 0)
(2.01677 0.0327564 0)
(2.01596 0.0300241 0)
(2.0155 0.0266851 0)
(2.0163 0.0226083 0)
(2.01544 0.0199638 0)
(2.01567 0.0169874 0)
(2.01672 0.01388 0)
(2.01758 0.0114761 0)
(2.02013 0.0073483 0)
(2.02271 0.00350928 0)
(2.02537 0.00288317 0)
(2.02836 0.00177432 0)
(2.03289 -0.00226794 0)
(2.03632 -0.00648351 0)
(2.03956 -0.00741133 0)
(2.04242 -0.00695758 0)
(2.04605 -0.00962593 0)
(2.04987 -0.014906 0)
(2.05225 -0.0176996 0)
(1.91045 0.0321119 0)
(1.91072 0.0335894 0)
(1.91169 0.0343036 0)
(1.91246 0.0343652 0)
(1.91315 0.0344913 0)
(1.91359 0.0347236 0)
(1.91424 0.0348779 0)
(1.91401 0.0359386 0)
(1.91275 0.0380565 0)
(1.91146 0.0396186 0)
(1.90801 0.0428495 0)
(1.90298 0.0480745 0)
(1.89793 0.0511153 0)
(1.8918 0.0551724 0)
(1.88529 0.0615886 0)
(1.88143 0.0651654 0)
(1.87928 0.0659984 0)
(1.87847 0.0665376 0)
(1.8781 0.0670621 0)
(1.87804 0.0677468 0)
(1.87787 0.068591 0)
(1.87792 0.0692206 0)
(1.8783 0.0693859 0)
(1.87887 0.0692509 0)
(1.87968 0.0692184 0)
(1.88071 0.0694021 0)
(1.88178 0.0694731 0)
(1.88292 0.0692297 0)
(1.88408 0.0689956 0)
(1.88533 0.0690753 0)
(1.88659 0.0693086 0)
(1.88782 0.0692482 0)
(1.88904 0.0688257 0)
(1.89026 0.068611 0)
(1.8916 0.068452 0)
(1.89327 0.0678321 0)
(1.89527 0.0667739 0)
(1.89748 0.0655773 0)
(1.89996 0.0640316 0)
(1.9028 0.0615237 0)
(1.90543 0.0597552 0)
(1.90817 0.0580262 0)
(1.91142 0.0551519 0)
(1.9148 0.0522053 0)
(1.91841 0.0486182 0)
(1.92176 0.0459888 0)
(1.92535 0.0436851 0)
(1.9299 0.0378183 0)
(1.93263 0.0355628 0)
(1.93403 0.0363142 0)
(1.93631 0.0338495 0)
(1.93714 0.0332027 0)
(1.93795 0.0336665 0)
(1.93798 0.0348533 0)
(1.93761 0.0369691 0)
(1.93647 0.0405648 0)
(1.93341 0.0466589 0)
(1.92778 0.0561874 0)
(1.9205 0.0687137 0)
(1.9151 0.0801183 0)
(1.90703 0.0966521 0)
(1.90365 0.105045 0)
(1.90388 0.10641 0)
(1.904 0.111052 0)
(1.90235 0.116535 0)
(1.90293 0.120737 0)
(1.90387 0.122174 0)
(1.90565 0.122766 0)
(1.90822 0.123593 0)
(1.91061 0.124232 0)
(1.9132 0.124482 0)
(1.91625 0.124769 0)
(1.91984 0.124117 0)
(1.92368 0.122499 0)
(1.92773 0.120111 0)
(1.93191 0.117383 0)
(1.93596 0.114741 0)
(1.9402 0.111416 0)
(1.94418 0.108589 0)
(1.94811 0.105446 0)
(1.95258 0.101346 0)
(1.95682 0.0979009 0)
(1.96107 0.0943542 0)
(1.96493 0.0911002 0)
(1.96845 0.0894038 0)
(1.97198 0.0874159 0)
(1.97589 0.0838067 0)
(1.97952 0.0807811 0)
(1.98321 0.0783874 0)
(1.98699 0.0748228 0)
(1.99009 0.071747 0)
(1.99317 0.0708937 0)
(1.99607 0.0694961 0)
(1.99966 0.0652145 0)
(2.0023 0.0614948 0)
(2.00484 0.0600468 0)
(2.00691 0.0579363 0)
(2.00912 0.054187 0)
(2.01053 0.0504868 0)
(2.01095 0.0480049 0)
(2.01063 0.0448432 0)
(2.01095 0.0415947 0)
(2.01109 0.038024 0)
(2.00989 0.0354768 0)
(2.01033 0.0317939 0)
(2.01101 0.0273205 0)
(2.01061 0.0249867 0)
(2.01124 0.0227669 0)
(2.01344 0.0195419 0)
(2.01594 0.0157729 0)
(2.01849 0.0130722 0)
(2.02112 0.0123451 0)
(2.02448 0.0105204 0)
(2.02885 0.00655997 0)
(2.03234 0.00279023 0)
(2.03543 0.0017594 0)
(2.03845 0.00154692 0)
(2.04235 -0.00135477 0)
(2.04602 -0.00629138 0)
(2.04831 -0.00919251 0)
(1.91331 0.0260189 0)
(1.91399 0.0276752 0)
(1.91401 0.0290685 0)
(1.91401 0.0306278 0)
(1.91389 0.0322456 0)
(1.91438 0.0338149 0)
(1.91496 0.0342336 0)
(1.91543 0.0346641 0)
(1.91551 0.0353258 0)
(1.91524 0.0359086 0)
(1.91349 0.037878 0)
(1.91002 0.0418525 0)
(1.90587 0.0456574 0)
(1.89987 0.0505603 0)
(1.8933 0.0557904 0)
(1.88725 0.0609603 0)
(1.88295 0.0650409 0)
(1.88035 0.0665562 0)
(1.8787 0.067475 0)
(1.87832 0.0683524 0)
(1.87834 0.0688051 0)
(1.8785 0.068961 0)
(1.87878 0.06921 0)
(1.87913 0.0692991 0)
(1.87967 0.0694133 0)
(1.88047 0.0698152 0)
(1.88143 0.0699622 0)
(1.88261 0.0696116 0)
(1.88382 0.0692281 0)
(1.88505 0.0691712 0)
(1.88629 0.0694038 0)
(1.88757 0.0693871 0)
(1.88877 0.0690947 0)
(1.88992 0.069027 0)
(1.8911 0.0690838 0)
(1.8924 0.0689261 0)
(1.89387 0.068646 0)
(1.89552 0.0683011 0)
(1.89752 0.0674066 0)
(1.89979 0.0660343 0)
(1.90206 0.0650369 0)
(1.90442 0.0640579 0)
(1.90731 0.0618185 0)
(1.91022 0.0594392 0)
(1.91315 0.0574487 0)
(1.91651 0.0546869 0)
(1.91999 0.0522503 0)
(1.92389 0.0485237 0)
(1.92726 0.0450177 0)
(1.93021 0.0436385 0)
(1.93407 0.0397585 0)
(1.93625 0.0362261 0)
(1.93814 0.0371174 0)
(1.93835 0.0374562 0)
(1.93902 0.0378588 0)
(1.94054 0.0381608 0)
(1.94065 0.0391377 0)
(1.93997 0.0416166 0)
(1.93744 0.0471426 0)
(1.93341 0.0551035 0)
(1.92672 0.0674589 0)
(1.92159 0.0781868 0)
(1.91739 0.0883475 0)
(1.91074 0.10374 0)
(1.90849 0.111059 0)
(1.90907 0.111146 0)
(1.91046 0.114179 0)
(1.91073 0.118011 0)
(1.91084 0.121326 0)
(1.91199 0.123255 0)
(1.91393 0.124018 0)
(1.9166 0.124892 0)
(1.91923 0.125325 0)
(1.92187 0.125388 0)
(1.92498 0.125308 0)
(1.92837 0.124772 0)
(1.93202 0.123491 0)
(1.93575 0.121514 0)
(1.93959 0.118933 0)
(1.94344 0.116159 0)
(1.94722 0.113462 0)
(1.95141 0.109983 0)
(1.9554 0.106839 0)
(1.9592 0.103872 0)
(1.96387 0.099542 0)
(1.96799 0.0960731 0)
(1.97154 0.0935994 0)
(1.97549 0.0897906 0)
(1.97895 0.0871396 0)
(1.98189 0.0858054 0)
(1.98568 0.0820721 0)
(1.98928 0.0782635 0)
(1.99241 0.0766296 0)
(1.99544 0.0739339 0)
(1.99843 0.0698762 0)
(2.00063 0.0677081 0)
(2.00259 0.0663954 0)
(2.00419 0.063173 0)
(2.00588 0.0591872 0)
(2.00629 0.0556982 0)
(2.00574 0.0528566 0)
(2.00552 0.0493516 0)
(2.00617 0.0456044 0)
(2.00528 0.0432983 0)
(2.00498 0.0403081 0)
(2.00586 0.0360811 0)
(2.00561 0.0330878 0)
(2.00595 0.0318031 0)
(2.00881 0.028295 0)
(2.0115 0.0243509 0)
(2.01408 0.0227991 0)
(2.01689 0.0217753 0)
(2.02121 0.0182947 0)
(2.02538 0.0143816 0)
(2.02879 0.0122276 0)
(2.03175 0.0105997 0)
(2.03491 0.00897312 0)
(2.03846 0.00693448 0)
(2.04208 0.00309768 0)
(2.04457 -0.000370726 0)
(1.9159 0.0194833 0)
(1.91567 0.022015 0)
(1.91559 0.0245433 0)
(1.91644 0.024846 0)
(1.9164 0.0261327 0)
(1.91684 0.0278319 0)
(1.91727 0.0294327 0)
(1.91689 0.0317948 0)
(1.91723 0.0331277 0)
(1.91726 0.0338987 0)
(1.91612 0.0362547 0)
(1.91504 0.037556 0)
(1.91337 0.0390939 0)
(1.90748 0.0453025 0)
(1.9017 0.0507866 0)
(1.89731 0.0531428 0)
(1.89048 0.0590801 0)
(1.88426 0.0652895 0)
(1.88075 0.0678055 0)
(1.87925 0.0690761 0)
(1.87901 0.0694489 0)
(1.87901 0.0695308 0)
(1.87912 0.0696584 0)
(1.87936 0.0697686 0)
(1.87973 0.0697735 0)
(1.88038 0.0701341 0)
(1.88128 0.0703166 0)
(1.88242 0.0697968 0)
(1.88355 0.0694795 0)
(1.88471 0.0694711 0)
(1.8859 0.0695894 0)
(1.88717 0.0695282 0)
(1.88845 0.0692095 0)
(1.88963 0.0690829 0)
(1.89084 0.0691629 0)
(1.89213 0.0689853 0)
(1.89345 0.0688604 0)
(1.89482 0.0688292 0)
(1.89642 0.0683092 0)
(1.89817 0.0676152 0)
(1.90002 0.0673724 0)
(1.90206 0.0668536 0)
(1.90449 0.0653358 0)
(1.90686 0.0638186 0)
(1.90932 0.0626691 0)
(1.9122 0.0608288 0)
(1.9152 0.0587906 0)
(1.91843 0.0565517 0)
(1.92197 0.0532026 0)
(1.92521 0.051138 0)
(1.92884 0.0484278 0)
(1.93238 0.0435639 0)
(1.93472 0.0429187 0)
(1.93743 0.0409532 0)
(1.93926 0.0392264 0)
(1.94056 0.0384934 0)
(1.94193 0.039612 0)
(1.94256 0.0396597 0)
(1.94366 0.0403985 0)
(1.94337 0.0420533 0)
(1.94184 0.0463472 0)
(1.93868 0.0532867 0)
(1.93393 0.0627321 0)
(1.92855 0.0740672 0)
(1.92491 0.0837512 0)
(1.92096 0.0939759 0)
(1.91611 0.107398 0)
(1.91508 0.114431 0)
(1.9153 0.114033 0)
(1.91729 0.115263 0)
(1.91886 0.118458 0)
(1.91915 0.121752 0)
(1.92012 0.124164 0)
(1.92246 0.124436 0)
(1.92529 0.124777 0)
(1.92801 0.124891 0)
(1.93071 0.124839 0)
(1.93352 0.124863 0)
(1.93652 0.124448 0)
(1.93978 0.123449 0)
(1.94331 0.121857 0)
(1.94684 0.11982 0)
(1.95059 0.117287 0)
(1.95446 0.114504 0)
(1.95829 0.11185 0)
(1.96238 0.108414 0)
(1.96612 0.105362 0)
(1.96984 0.102149 0)
(1.97425 0.0975285 0)
(1.97782 0.0946348 0)
(1.98111 0.0922833 0)
(1.9849 0.0881072 0)
(1.98795 0.0856174 0)
(1.9904 0.084245 0)
(1.99374 0.0802769 0)
(1.9966 0.0759018 0)
(1.99839 0.0739484 0)
(1.99956 0.0714832 0)
(2.00091 0.0678894 0)
(2.00152 0.0641488 0)
(2.00084 0.061704 0)
(2.00014 0.0581593 0)
(2.00073 0.0545427 0)
(2.00058 0.0510872 0)
(1.99975 0.0486868 0)
(2.0009 0.0447547 0)
(2.00118 0.0410751 0)
(2.00159 0.0395852 0)
(2.00444 0.0360719 0)
(2.00711 0.0324461 0)
(2.00971 0.0317667 0)
(2.01274 0.0309332 0)
(2.01761 0.0267216 0)
(2.02132 0.0226822 0)
(2.0244 0.0223229 0)
(2.02723 0.0209503 0)
(2.03166 0.016519 0)
(2.03498 0.013688 0)
(2.03803 0.0122258 0)
(2.04094 0.00898675 0)
(1.92007 0.00952403 0)
(1.9199 0.0116912 0)
(1.91938 0.014661 0)
(1.91949 0.0169972 0)
(1.91887 0.0199412 0)
(1.91895 0.0223259 0)
(1.91954 0.0237003 0)
(1.91906 0.0262593 0)
(1.91955 0.0277974 0)
(1.91989 0.0288549 0)
(1.91939 0.0310087 0)
(1.91909 0.0325786 0)
(1.91714 0.0358725 0)
(1.91384 0.0407446 0)
(1.91075 0.0429134 0)
(1.90615 0.046618 0)
(1.89747 0.0556983 0)
(1.89174 0.0599622 0)
(1.88812 0.0625558 0)
(1.88309 0.0674473 0)
(1.88062 0.0699451 0)
(1.8794 0.0704957 0)
(1.87925 0.0707697 0)
(1.87916 0.0709725 0)
(1.87945 0.0708253 0)
(1.88006 0.0706421 0)
(1.88091 0.0707473 0)
(1.88193 0.0701355 0)
(1.88301 0.0698778 0)
(1.8842 0.0700288 0)
(1.88547 0.0698727 0)
(1.88677 0.0697378 0)
(1.88804 0.0694035 0)
(1.88925 0.0691767 0)
(1.89053 0.069217 0)
(1.89188 0.0690158 0)
(1.8932 0.0688198 0)
(1.89454 0.0688642 0)
(1.89599 0.0685338 0)
(1.89747 0.0680493 0)
(1.89899 0.0680742 0)
(1.90074 0.0678092 0)
(1.90276 0.0668289 0)
(1.90477 0.0659282 0)
(1.90685 0.0652438 0)
(1.90917 0.0641203 0)
(1.91175 0.0625635 0)
(1.91442 0.0611223 0)
(1.91733 0.0592447 0)
(1.92036 0.0573166 0)
(1.92379 0.054981 0)
(1.92739 0.05131 0)
(1.93039 0.0488863 0)
(1.93287 0.048124 0)
(1.93661 0.0441095 0)
(1.93902 0.0413746 0)
(1.94085 0.041888 0)
(1.94258 0.0406662 0)
(1.94381 0.0398388 0)
(1.94506 0.0397353 0)
(1.94676 0.0409521 0)
(1.94665 0.0421437 0)
(1.94585 0.0446985 0)
(1.944 0.0500061 0)
(1.94089 0.0579783 0)
(1.93614 0.0688368 0)
(1.93377 0.0762039 0)
(1.92933 0.0872645 0)
(1.92543 0.0978691 0)
(1.92308 0.106645 0)
(1.92188 0.114578 0)
(1.92248 0.115396 0)
(1.92479 0.115478 0)
(1.92719 0.118115 0)
(1.92808 0.121064 0)
(1.92871 0.123343 0)
(1.93057 0.123927 0)
(1.93333 0.12401 0)
(1.93617 0.123892 0)
(1.93893 0.123437 0)
(1.94164 0.123449 0)
(1.94443 0.123381 0)
(1.94756 0.122434 0)
(1.95083 0.121214 0)
(1.95429 0.119723 0)
(1.95778 0.11794 0)
(1.96141 0.115451 0)
(1.96497 0.112763 0)
(1.9685 0.110004 0)
(1.97228 0.106689 0)
(1.97588 0.103585 0)
(1.97952 0.100048 0)
(1.98318 0.0961705 0)
(1.98618 0.09377 0)
(1.98866 0.0911604 0)
(1.99149 0.0868726 0)
(1.99318 0.0837447 0)
(1.99414 0.0815007 0)
(1.9954 0.0776532 0)
(1.99661 0.0733509 0)
(1.99633 0.0699162 0)
(1.99522 0.0669004 0)
(1.99505 0.063163 0)
(1.99549 0.0590963 0)
(1.99473 0.0572864 0)
(1.99524 0.0543232 0)
(1.99651 0.0505041 0)
(1.99735 0.0483663 0)
(1.9998 0.0455054 0)
(2.0029 0.0418005 0)
(2.00576 0.0400806 0)
(2.00916 0.0388081 0)
(2.01376 0.0349866 0)
(2.01737 0.0308439 0)
(2.02057 0.0300006 0)
(2.0236 0.0292833 0)
(2.02793 0.0252168 0)
(2.03099 0.0211405 0)
(2.03371 0.0204899 0)
(2.03599 0.0191614 0)
(1.92358 0.00198134 0)
(1.92354 0.00343578 0)
(1.92327 0.00540945 0)
(1.92312 0.00785561 0)
(1.92359 0.00959641 0)
(1.9229 0.0128413 0)
(1.92295 0.0152294 0)
(1.92254 0.0179231 0)
(1.92277 0.0200842 0)
(1.9229 0.0221699 0)
(1.92221 0.0256238 0)
(1.92251 0.0268738 0)
(1.92162 0.0292509 0)
(1.91995 0.0329541 0)
(1.91875 0.0346652 0)
(1.91303 0.041358 0)
(1.90711 0.0483022 0)
(1.90302 0.0505745 0)
(1.89549 0.0578245 0)
(1.88846 0.0654739 0)
(1.88367 0.0695428 0)
(1.8814 0.0702838 0)
(1.87976 0.0714077 0)
(1.87934 0.0725084 0)
(1.8792 0.0726832 0)
(1.87936 0.072642 0)
(1.87991 0.0725344 0)
(1.8812 0.0713711 0)
(1.88242 0.0703585 0)
(1.88375 0.0705018 0)
(1.88495 0.0703072 0)
(1.88614 0.0701501 0)
(1.88743 0.0698102 0)
(1.88875 0.0693065 0)
(1.89013 0.069275 0)
(1.89153 0.0691111 0)
(1.89285 0.0688133 0)
(1.89421 0.0689177 0)
(1.89562 0.068813 0)
(1.89697 0.0684239 0)
(1.89835 0.0683802 0)
(1.89998 0.0680794 0)
(1.90183 0.0671857 0)
(1.90358 0.0667391 0)
(1.90533 0.0664576 0)
(1.90737 0.065446 0)
(1.90945 0.0645567 0)
(1.91163 0.0638184 0)
(1.91407 0.0626064 0)
(1.91671 0.0610952 0)
(1.91952 0.059497 0)
(1.9226 0.0572216 0)