/*--------------------------------*- C++ -*----------------------------------*\
  =========                 |
  \\      /  F ield         | OpenFOAM: The Open Source CFD Toolbox
   \\    /   O peration     | Website:  https://openfoam.org
    \\  /    A nd           | Version:  7
     \\/     M anipulation  |
\*---------------------------------------------------------------------------*/
FoamFile
{
    version     2.0;
    format      ascii;
    class       volScalarField;
    location    "1.8";
    object      p;
}
// * * * * * * * * * * * * * * * * * * * * * * * * * * * * * * * * * * * * * //

dimensions      [1 -1 -2 0 0 0 0];

internalField   nonuniform List<scalar> 
1008
(
1.93814
6.22369
7.29146
6.92746
6.60748
6.26366
1
1
1
1
1
1
1
1
1
1
1
1
1
1
1
1
1
1
1.06367
3.5564
6.83966
6.92538
6.62407
6.29721
1
1
1
1
1
1
1
1
1
1
1
1
1
1
1
1
1
1
1.00067
1.44839
5.08898
6.97268
6.67355
6.35228
1
1
1
1
1
1
1
1
1
1
1
1
1
1
1
1
1
1
1
1.0167
2.30717
5.93443
6.68579
6.37486
1
1
1
1
1
1
1
1
1
1
1
1
1
1
1
1
1
1
1
1.00013
1.12159
3.49026
6.19739
6.42046
1
1
1
1
1
1
1
1
1
1
1
1
1
1
1
1
1
1
1
1
1.00216
1.44085
4.45884
6.29004
1
1
1
1
1
1
1
1
1
1
1
1
1
1
1
1
1
1
1
1
1.00001
1.01733
1.96615
5.09139
1
1
1
1
1
1
1
1
1
1
1
1
1
1
1
1
1
1
1
1
1
1.00015
1.07192
2.5888
1
1
1
1
1
1
1
1
1
1
1
1
1
1
1
1
1
1
1
1
1
1
1.00112
1.18856
1
1
1
1
1
1
1
1
1
1
1
1
1
1
1
1
1
1
1
1
1
1
1
1.00472
1
1
1
1
1
1
1
1
1
1
1
1
1
1
1
1
1
1
1
1
1
1
1
1.00003
1
1
1
1
1
1
1
1
1
1
1
1
1
1
1
1
1
1
1
1
1
1
1
1
1
1
1
1
1
1
1
1
1
1
1
1
1
1
1
1
1
1
1
1
1
1
1
1
1
1
1
1
1
1
1
1
1
1
1
1
1
1
1
1
1
1
1
1
1
1
1
1
1
1
1
1
1
1
1
1
1
1
1
1
1
1
1
1
1
1
1
1
1
1
1
1
1
1
1
1
1
1
1
1
1
1
1
1
1
1
1
1
1
1
1
1
1
1
1
1
1
1
1
1
1
1
1
1
1
1
1
1
1
1
1
1
1
1
1
1
1
1
1
1
1
1
1
1
1
1
1
1
1
1
1
1
1
1
1
1
1
1
1
1
1
1
1
1
5.91077
5.55115
5.20078
4.85579
4.52153
4.22666
3.94716
3.64423
3.39138
3.18554
2.98795
2.76611
2.58751
2.44607
2.29435
2.15436
2.01442
1.92938
1.82958
1.7331
1.63612
1.56283
1.50802
1.43723
1.37116
1.31032
1.26592
1.35285
1.8287
2.63144
3.12126
3.08523
2.91778
5.95992
5.62794
5.29452
4.95823
4.64091
4.35582
4.07753
3.79027
3.54396
3.33225
3.12483
2.90009
2.73591
2.58613
2.43934
2.27049
2.14203
2.05249
1.94482
1.84675
1.74055
1.6758
1.60768
1.52455
1.45647
1.41719
1.54537
2.15985
2.97464
3.41246
3.38452
3.23233
3.03475
6.02393
5.70122
5.37953
5.0544
4.75051
4.46907
4.19424
3.92547
3.68947
3.46851
3.25086
3.03707
2.87548
2.72164
2.56757
2.3932
2.27492
2.17328
2.06579
1.95393
1.85101
1.78576
1.69712
1.62232
1.59415
1.78081
2.54706
3.39983
3.66883
3.62689
3.48366
3.31935
3.1776
6.05107
5.74402
5.42847
5.12436
4.84742
4.57155
4.28928
4.04007
3.82156
3.59972
3.37052
3.16733
3.00997
2.84761
2.68407
2.51448
2.40518
2.29162
2.18037
2.05652
1.96587
1.87708
1.78836
1.78583
2.05425
2.97771
3.89853
4.0054
3.89958
3.73008
3.56762
3.43916
3.33482
6.13104
5.81162
5.50679
5.2188
4.94936
4.67944
4.4042
4.16876
3.94868
3.72586
3.48946
3.30741
3.1448
2.97939
2.79729
2.64182
2.53349
2.41101
2.29151
2.16324
2.07007
1.97227
2.01605
2.45161
3.47807
4.40592
4.4219
4.20463
3.97963
3.80354
3.6824
3.57989
3.47541
6.21942
5.90942
5.59343
5.31776
5.05339
4.78205
4.51568
4.28653
4.06351
3.83879
3.61055
3.43555
3.263
3.09418
2.90971
2.77034
2.65423
2.52613
2.38759
2.26654
2.16523
2.26027
2.91579
4.13482
4.93297
4.84409
4.56317
4.30627
4.07323
3.93521
3.8307
3.71978
3.597
6.15261
5.9978
5.68553
5.41065
5.14896
4.87593
4.62866
4.40099
4.17792
3.9414
3.73425
3.56281
3.38045
3.20671
3.02272
2.8997
2.76759
2.63194
2.49486
2.37824
2.54345
3.49293
4.77189
5.40846
5.27701
4.93495
4.62934
4.4193
4.23927
4.09614
3.96415
3.82698
3.68254
5.41118
6.00824
5.79987
5.50815
5.23385
4.96932
4.73492
4.50697
4.28481
4.04148
3.85717
3.67806
3.50155
3.30575
3.14059
3.01906
2.86591
2.73875
2.63044
2.91021
4.14115
5.48907
5.83613
5.70806
5.40594
5.08041
4.82272
4.58261
4.39369
4.23297
4.0797
3.92556
3.77134
3.19068
5.52957
5.86009
5.63945
5.33257
5.07314
4.84136
4.60707
4.38235
4.16964
3.97585
3.78607
3.60312
3.40913
3.2765
3.1126
2.96657
2.93138
3.37852
4.87644
6.1329
6.2985
6.07698
5.76206
5.48565
5.24924
5.02682
4.78463
4.54933
4.3463
4.17213
4.01357
3.86559
1.36909
3.6982
5.51131
5.7037
5.46475
5.16828
4.93782
4.7268
4.48015
4.26952
4.08284
3.90723
3.71109
3.52185
3.37706
3.21562
3.26338
4.03042
5.72773
6.93155
7.01774
6.66703
6.25476
5.87971
5.59598
5.37371
5.15329
4.92207
4.69145
4.47221
4.27739
4.10881
3.95808
1.01413
1.59672
4.05176
5.45142
5.54607
5.32639
5.05144
4.80532
4.58939
4.38797
4.20281
4.00927
3.79877
3.64807
3.4733
3.62154
4.73965
6.86278
7.59743
7.3891
7.0474
6.68546
6.35443
6.0326
5.74895
5.49574
5.25749
5.02613
4.79596
4.57111
4.36767
4.19064
4.03191
1.00012
1.03236
1.84101
4.24615
5.37428
5.43363
5.20795
4.9271
4.69738
4.48504
4.30745
4.11438
3.92511
3.75737
4.05793
5.73506
7.72315
8.58016
8.32523
7.70519
7.1176
6.72889
6.43512
6.1579
5.89507
5.64011
5.38901
5.13927
4.88962
4.6517
4.4421
4.26151
4.09792
1
1.00039
1.06091
2.03832
4.3811
5.28421
5.30177
5.07951
4.80789
4.60759
4.40057
4.19905
4.09572
4.65893
6.89611
8.86589
9.04492
8.7598
8.31987
7.81906
7.32458
6.9144
6.58292
6.29287
6.02416
5.76363
5.50262
5.23729
4.97199
4.72283
4.5032
4.31263
4.14209
1
1
1.00096
1.09182
2.22107
4.4245
5.19074
5.19846
4.97071
4.70691
4.48204
4.4108
5.51236
8.12708
10.0045
10.1758
9.58266
8.83532
8.29542
7.86922
7.47392
7.09916
6.74418
6.42202
6.12511
5.84252
5.56616
5.29488
5.03473
4.79308
4.57258
4.37124
4.18741
1
1
1
1.00175
1.12837
2.34217
4.41076
5.10255
5.07988
4.82785
4.75565
6.22366
9.88548
10.8627
10.5556
10.189
9.65882
8.97486
8.38753
7.94402
7.57098
7.21955
6.86954
6.52531
6.19791
5.89214
5.60644
5.33893
5.08857
4.85391
4.63294
4.42509
4.23409
1
1
1
1.00001
1.00298
1.15679
2.38692
4.44055
4.91521
5.02713
6.86029
10.9347
12.4203
12.0095
10.9751
10.1971
9.64966
9.09513
8.53927
8.04354
7.63536
7.27866
6.93345
6.58585
6.2449
5.92473
5.63348
5.37025
5.12739
4.89758
4.67774
4.46942
4.27675
1
1
1
1
1.00002
1.00377
1.17895
2.48858
3.86703
6.96588
12.1373
12.9102
12.2639
12.0447
11.2107
10.337
9.67806
9.13264
8.65209
8.19335
7.75362
7.34522
6.96675
6.61188
6.27929
5.97047
5.68597
5.42266
5.17489
4.93861
4.7133
4.50144
4.30647
1
1
1
1
1
1.00002
1.00583
1.20174
2.65255
12.0019
17.7022
14.9195
12.8941
12.3059
11.5065
10.5454
9.74372
9.14428
8.67359
8.24425
7.81238
7.38384
6.98264
6.62132
6.29689
5.99951
5.71937
5.45137
5.19625
4.95627
4.73058
4.51663
4.3134
)
;

boundaryField
{
    inlet
    {
        type            fixedValue;
        value           uniform 1;
    }
    outlet
    {
        type            zeroGradient;
    }
    bottom
    {
        type            symmetryPlane;
    }
    top
    {
        type            symmetryPlane;
    }
    obstacle
    {
        type            zeroGradient;
    }
    defaultFaces
    {
        type            empty;
    }
    procBoundary2to0
    {
        type            processor;
        value           nonuniform List<scalar> 
58
(
4.7625
7.53229
7.31714
6.96399
6.59658
6.22794
1
1
1
1
1
1
1
1
1
1
1
1
1
1
1
1
1
1.00106
1.00106
5.85007
5.46184
5.0957
4.74114
4.38493
4.07511
3.79156
3.49424
3.22623
3.02524
2.82164
2.62075
2.42333
2.29349
2.15191
2.02419
1.89207
1.79368
1.70726
1.61614
1.5333
1.45762
1.40329
1.34219
1.28077
1.21837
1.17323
1.13924
1.1957
1.56654
2.30685
2.7804
2.75368
)
;
    }
    procBoundary2to1
    {
        type            processor;
        value           nonuniform List<scalar> 2(2.7592 2.88355);
    }
    procBoundary2to3
    {
        type            processor;
        value           nonuniform List<scalar> 
16
(
3.04408
3.21015
3.34952
3.4619
3.53871
3.62567
3.72764
3.81676
3.88152
3.93928
3.98119
4.01982
4.062
4.10023
4.12827
4.12233
)
;
    }
}


// ************************************************************************* //
