/*--------------------------------*- C++ -*----------------------------------*\
  =========                 |
  \\      /  F ield         | OpenFOAM: The Open Source CFD Toolbox
   \\    /   O peration     | Website:  https://openfoam.org
    \\  /    A nd           | Version:  7
     \\/     M anipulation  |
\*---------------------------------------------------------------------------*/
FoamFile
{
    version     2.0;
    format      ascii;
    class       volVectorField;
    location    "108";
    object      U;
}
// * * * * * * * * * * * * * * * * * * * * * * * * * * * * * * * * * * * * * //

dimensions      [0 1 -1 0 0 0 0];

internalField   nonuniform List<vector> 
15200
(
(-0.272373 0.29902 -1.77372e-19)
(0.0493002 0.747443 -1.02901e-19)
(-0.0869296 0.646859 -1.43331e-19)
(0.453548 -0.0825501 -1.16192e-19)
(0.572734 -0.461732 7.42816e-20)
(0.687088 -0.626731 -5.9788e-20)
(0.66571 -0.693896 -2.01964e-20)
(0.537657 -0.679789 3.72481e-20)
(0.569903 -0.379738 8.89435e-21)
(0.726735 0.0691822 -3.03142e-21)
(0.836038 0.35651 -6.32112e-21)
(0.809316 0.560708 -8.54575e-21)
(0.763574 0.653561 2.09253e-20)
(0.807272 0.404817 -7.18772e-21)
(0.924237 0.0363753 -1.74604e-20)
(-0.272869 0.303324 -2.82833e-19)
(0.00388984 0.732955 -4.58765e-19)
(-0.0468702 0.60567 3.92334e-19)
(0.516831 -0.132936 -2.20869e-19)
(0.648214 -0.48841 -3.11126e-20)
(0.721317 -0.632145 1.3182e-19)
(0.712952 -0.670751 -1.11017e-20)
(0.574299 -0.665428 4.03241e-20)
(0.583412 -0.413916 -1.13164e-20)
(0.717229 0.0236428 6.13077e-21)
(0.792514 0.33991 2.10752e-20)
(0.766845 0.569014 2.25426e-21)
(0.726953 0.645432 -5.06312e-21)
(0.787535 0.366328 3.50241e-21)
(0.936821 0.015714 -2.87497e-20)
(-0.274112 0.308288 8.13143e-19)
(-0.0426554 0.712476 6.49287e-19)
(0.00440743 0.560063 -6.22618e-20)
(0.5855 -0.17836 5.87552e-19)
(0.722191 -0.506401 -3.84589e-19)
(0.758526 -0.633146 1.20114e-19)
(0.758588 -0.64494 3.70273e-20)
(0.609653 -0.646133 4.80025e-21)
(0.603137 -0.44317 -6.25166e-20)
(0.704926 -0.0150371 -6.72921e-20)
(0.751846 0.323131 1.03115e-19)
(0.726939 0.571303 2.60274e-20)
(0.686317 0.632723 -2.05248e-20)
(0.777354 0.322963 -2.10363e-20)
(0.948358 -0.0123379 2.86188e-20)
(-0.276289 0.314047 -8.39831e-19)
(-0.0906313 0.685373 4.12397e-19)
(0.0673664 0.510668 7.15096e-20)
(0.659447 -0.217276 -4.52255e-19)
(0.791637 -0.516386 4.88759e-19)
(0.801997 -0.628889 -1.51397e-19)
(0.796789 -0.617711 -4.37976e-20)
(0.649519 -0.621576 1.96196e-19)
(0.618095 -0.467235 1.52772e-19)
(0.684564 -0.0511589 7.88718e-20)
(0.72295 0.305639 -3.98373e-20)
(0.677879 0.569479 -7.28302e-20)
(0.653805 0.614707 3.55417e-20)
(0.800199 0.279449 5.97383e-20)
(0.97189 -0.0412737 -1.04234e-19)
(-0.279543 0.320755 1.50595e-18)
(-0.139275 0.65083 -8.33171e-19)
(0.142501 0.458309 -1.02336e-18)
(0.736416 -0.248512 -2.15781e-19)
(0.856508 -0.519442 -5.58361e-19)
(0.85108 -0.618008 -1.91314e-19)
(0.824539 -0.59106 1.12314e-19)
(0.696136 -0.589635 -1.98177e-19)
(0.621363 -0.484757 -1.02856e-19)
(0.654491 -0.0900382 -1.59338e-20)
(0.699495 0.288944 -1.23146e-19)
(0.61319 0.562454 5.58075e-20)
(0.647402 0.586506 -1.07752e-19)
(0.862799 0.241774 -5.70804e-20)
(1.0124 -0.060996 2.42441e-19)
(-0.283957 0.328538 -1.0207e-18)
(-0.186516 0.608355 1.92416e-19)
(0.229442 0.403896 1.03833e-18)
(0.813246 -0.271675 5.27786e-19)
(0.917926 -0.516364 1.40354e-19)
(0.901045 -0.599955 2.61778e-19)
(0.84427 -0.566021 -3.83495e-20)
(0.74397 -0.549165 -4.99559e-20)
(0.614897 -0.490587 -5.13951e-20)
(0.611323 -0.134117 5.47085e-20)
(0.661512 0.270699 1.32728e-19)
(0.542511 0.543389 9.81421e-20)
(0.666393 0.536737 5.74595e-20)
(0.941875 0.208603 -3.74112e-21)
(1.06378 -0.0649164 -3.88173e-20)
(-0.289506 0.33743 -6.64021e-19)
(-0.228831 0.558143 -2.11816e-19)
(0.326356 0.348486 -9.11974e-19)
(0.887352 -0.287068 4.34387e-19)
(0.976347 -0.507441 -3.18888e-19)
(0.946464 -0.575805 2.15394e-19)
(0.862537 -0.541562 7.0191e-20)
(0.783491 -0.502936 6.69379e-20)
(0.612246 -0.477097 1.2665e-19)
(0.557435 -0.178116 -8.25491e-21)
(0.591048 0.242206 -8.55394e-20)
(0.48404 0.504303 -3.34582e-20)
(0.702549 0.460522 8.88124e-20)
(1.01044 0.170833 -6.01417e-20)
(1.11305 -0.0553491 -8.56884e-20)
(-0.296007 0.347295 -2.88254e-19)
(-0.26097 0.501361 3.28933e-19)
(0.430145 0.293337 9.6889e-20)
(0.957214 -0.29544 5.09427e-19)
(1.0309 -0.492813 2.89132e-19)
(0.984822 -0.547707 -7.14695e-19)
(0.885225 -0.515228 5.49765e-20)
(0.809818 -0.457203 5.14632e-20)
(0.627708 -0.439238 -1.36705e-19)
(0.502955 -0.207875 -4.65528e-20)
(0.489891 0.195796 -5.08561e-20)
(0.459041 0.444373 -7.64221e-21)
(0.76938 0.376806 -2.76559e-20)
(1.06486 0.130576 -9.40138e-21)
(1.14819 -0.0380971 4.44913e-20)
(-0.303093 0.357728 -6.81101e-20)
(-0.275802 0.44078 -1.72303e-19)
(0.537251 0.239726 1.44343e-18)
(1.02205 -0.297779 -3.67087e-19)
(1.08007 -0.47294 1.52667e-19)
(1.01707 -0.517655 4.01023e-19)
(0.913215 -0.485059 -1.27185e-19)
(0.825891 -0.417529 -3.00511e-20)
(0.663506 -0.380868 2.86358e-20)
(0.469525 -0.208871 2.44625e-20)
(0.409952 0.137871 3.04024e-20)
(0.497843 0.363417 -2.57076e-20)
(0.871704 0.303317 3.99204e-22)
(1.11033 0.100548 3.01131e-20)
(1.16063 -0.0185599 -7.72874e-20)
(-0.310235 0.367924 -1.91622e-18)
(-0.265046 0.381256 -1.00591e-18)
(0.644346 0.189067 -6.63866e-19)
(1.08142 -0.295087 5.77011e-19)
(1.12279 -0.448726 -3.4741e-19)
(1.04553 -0.486651 1.75506e-19)
(0.942406 -0.451167 1.19367e-19)
(0.839431 -0.384906 4.5313e-20)
(0.7101 -0.316728 8.42554e-20)
(0.494626 -0.176835 -6.16602e-20)
(0.434964 0.09557 2.39083e-20)
(0.620674 0.279613 -1.10262e-20)
(0.974544 0.242083 5.27301e-21)
(1.1381 0.0849603 7.71941e-20)
(1.14966 -0.000597464 6.19971e-20)
(-0.316888 0.376545 3.68008e-18)
(-0.220884 0.329134 -1.51718e-19)
(0.748684 0.143466 -4.91732e-19)
(1.13504 -0.288141 -1.3242e-18)
(1.15892 -0.421275 5.48634e-19)
(1.07149 -0.454723 7.20327e-19)
(0.967754 -0.416105 -3.16021e-19)
(0.858021 -0.354713 1.07481e-19)
(0.753533 -0.266019 -4.92407e-20)
(0.587278 -0.126954 -7.56121e-21)
(0.571876 0.0841572 -1.07446e-20)
(0.781051 0.222511 -1.56102e-20)
(1.03929 0.197636 1.75421e-20)
(1.13626 0.0775372 -7.07359e-20)
(1.12479 0.0139883 -2.09092e-20)
(-0.322729 0.381593 -9.23081e-19)
(-0.138896 0.290646 8.31727e-19)
(0.848052 0.10534 -6.742e-20)
(1.18271 -0.277464 3.45411e-20)
(1.18895 -0.391527 -7.91696e-19)
(1.09448 -0.421906 -6.14899e-19)
(0.988246 -0.382614 3.81752e-19)
(0.882975 -0.322458 -7.13492e-20)
(0.786933 -0.233347 -1.64768e-20)
(0.692983 -0.0883778 5.67997e-21)
(0.725278 0.0851244 1.64502e-20)
(0.891582 0.184976 -2.82383e-20)
(1.05364 0.16542 -3.57273e-21)
(1.10962 0.0702363 2.73535e-20)
(1.09689 0.0235164 4.14927e-20)
(-0.327806 0.38048 1.15604e-18)
(-0.0216691 0.269426 -6.4365e-20)
(0.940271 0.0766421 1.16685e-18)
(1.22423 -0.263471 5.87255e-20)
(1.21335 -0.360184 -3.11911e-19)
(1.11363 -0.389017 6.57072e-19)
(1.00655 -0.35065 -4.00374e-20)
(0.908863 -0.290562 -1.91343e-21)
(0.819935 -0.207764 5.74575e-20)
(0.765549 -0.0752032 -1.67597e-20)
(0.811315 0.0716379 7.34727e-21)
(0.924883 0.144316 -1.46188e-20)
(1.03453 0.133272 -3.83619e-20)
(1.07767 0.060608 -1.70257e-20)
(1.07288 0.0278316 -7.77861e-21)
(-0.332411 0.371048 1.53463e-18)
(0.12056 0.263504 1.39564e-18)
(1.0229 0.0581716 -9.61094e-19)
(1.25938 -0.246661 1.56087e-18)
(1.23245 -0.327949 -1.34678e-19)
(1.12923 -0.356875 -7.645e-19)
(1.02403 -0.319233 -2.953e-19)
(0.931322 -0.262701 6.39353e-20)
(0.854348 -0.1841 -8.23015e-21)
(0.81155 -0.073592 1.96621e-20)
(0.845167 0.0448095 4.9868e-20)
(0.929817 0.103697 7.89636e-20)
(1.01429 0.103223 3.73429e-20)
(1.05447 0.0509142 -1.72178e-21)
(1.05515 0.0291892 4.0224e-22)
(-0.33735 0.35224 -3.86069e-18)
(0.272113 0.26602 -2.34935e-18)
(1.09382 0.0491279 6.05608e-20)
(1.28802 -0.227675 -1.05003e-18)
(1.24675 -0.295548 -1.12666e-18)
(1.14203 -0.325676 6.72371e-19)
(1.03955 -0.28907 4.44878e-20)
(0.95168 -0.237801 3.32967e-20)
(0.88455 -0.164353 -3.89815e-21)
(0.849809 -0.0709101 -1.22048e-20)
(0.873204 0.0241887 -8.94328e-20)
(0.93945 0.0738884 -5.58723e-20)
(1.00413 0.0804402 -3.21734e-20)
(1.03922 0.0425627 -2.53679e-21)
(1.04191 0.0288511 3.73616e-22)
(-0.342576 0.323759 -4.43448e-19)
(0.418306 0.269414 1.81761e-18)
(1.15186 0.047566 -3.75049e-19)
(1.31016 -0.20728 1.8087e-18)
(1.2569 -0.263526 1.06241e-18)
(1.15223 -0.295661 -5.47497e-19)
(1.05273 -0.26075 -8.41429e-21)
(0.970787 -0.214709 -5.47027e-20)
(0.910542 -0.148176 -5.10471e-21)
(0.882639 -0.0682089 3.02721e-21)
(0.899558 0.0104902 5.54487e-20)
(0.949378 0.0523546 5.05527e-20)
(0.997993 0.0622945 3.89201e-20)
(1.02811 0.035254 1.19137e-20)
(1.03126 0.026947 -1.98425e-21)
(-0.347205 0.286679 2.50001e-18)
(0.551024 0.268157 8.08841e-19)
(1.19732 0.0512024 -2.38427e-19)
(1.32617 -0.186232 -2.6818e-18)
(1.26346 -0.232282 -2.80155e-19)
(1.15999 -0.267167 -1.34425e-19)
(1.06418 -0.233998 -6.02883e-20)
(0.987906 -0.193705 -4.03736e-20)
(0.93338 -0.133768 -1.18591e-20)
(0.908956 -0.0658052 3.49601e-21)
(0.919771 -0.000663442 4.77234e-21)
(0.957547 0.0356878 -1.97539e-20)
(0.994291 0.0471503 -2.22227e-20)
(1.02037 0.0288062 -7.28717e-21)
(1.02313 0.0244819 3.93702e-21)
(-0.349718 0.243398 -2.41947e-18)
(0.669059 0.26016 -6.06396e-19)
(1.23172 0.0581514 1.8769e-18)
(1.33662 -0.165169 8.308e-19)
(1.26696 -0.202133 6.83813e-19)
(1.16575 -0.240277 4.06229e-19)
(1.07399 -0.208789 3.23401e-19)
(1.00301 -0.174565 -3.94763e-20)
(0.95335 -0.120852 6.80207e-20)
(0.93119 -0.0629809 -6.64767e-21)
(0.937464 -0.00851187 2.31623e-20)
(0.965363 0.0233884 -1.79168e-20)
(0.993523 0.0351267 -6.69767e-21)
(1.015 0.0236948 -9.15349e-21)
(1.0172 0.0217114 -5.92826e-21)
(-0.347771 0.197334 5.69876e-19)
(0.774597 0.246514 -3.06854e-19)
(1.25712 0.0670914 1.59812e-18)
(1.34219 -0.144574 1.0308e-18)
(1.2679 -0.173261 -2.68649e-19)
(1.16978 -0.215022 5.91892e-20)
(1.08217 -0.185168 -3.0214e-19)
(1.01641 -0.156935 2.07e-20)
(0.970633 -0.109072 -6.54082e-20)
(0.949951 -0.0598713 9.64635e-22)
(0.952386 -0.01389 -1.19757e-20)
(0.972493 0.0142201 1.53555e-20)
(0.994229 0.0253597 2.05218e-20)
(1.01091 0.0199636 -7.33663e-22)
(1.0136 0.0184678 -1.674e-21)
(-0.337749 0.15319 -1.77467e-19)
(0.870433 0.229376 -7.62554e-19)
(1.27565 0.0771931 -3.77687e-18)
(1.34362 -0.124756 -1.00962e-18)
(1.26669 -0.145766 -4.76119e-19)
(1.17232 -0.191423 -6.90971e-19)
(1.08897 -0.162998 1.54306e-19)
(1.02812 -0.140708 -8.75037e-21)
(0.985562 -0.0980869 3.7993e-20)
(0.965718 -0.0564753 -1.28234e-20)
(0.964973 -0.0173825 7.7233e-22)
(0.979226 0.00724485 8.54825e-21)
(0.995634 0.0180357 -5.43732e-22)
(1.0082 0.016899 3.69557e-21)
(1.01235 0.014693 -2.02247e-21)
(-0.314236 0.117783 2.7606e-19)
(0.958434 0.211063 7.88655e-19)
(1.28925 0.0880559 1.38412e-18)
(1.34162 -0.105862 9.60895e-19)
(1.26367 -0.119699 4.70343e-19)
(1.17361 -0.169428 1.82501e-19)
(1.0945 -0.142197 -1.94062e-19)
(1.03827 -0.125721 3.19216e-20)
(0.998393 -0.0877451 -4.74506e-20)
(0.979141 -0.0527594 1.87212e-20)
(0.975882 -0.0192307 -1.97399e-21)
(0.98546 0.00213495 9.51685e-21)
(0.99747 0.012896 -6.34663e-21)
(1.00694 0.0136908 5.13948e-21)
(1.01256 0.0122282 1.79814e-21)
(-0.269834 0.10092 -3.0858e-19)
(1.03919 0.193928 3.85276e-19)
(1.29938 0.0996851 -3.85374e-18)
(1.33684 -0.0879256 -8.83168e-19)
(1.25915 -0.0950818 -5.53672e-19)
(1.17383 -0.148966 3.53764e-19)
(1.0989 -0.122688 2.73417e-19)
(1.04699 -0.111825 -5.30464e-20)
(1.00933 -0.0779198 9.33636e-20)
(0.990517 -0.048785 -1.54656e-20)
(0.985161 -0.0199403 -2.85903e-21)
(0.991216 -0.0013289 -1.00979e-20)
(0.999467 0.00901327 -6.62458e-22)
(1.00707 0.0109669 4.79432e-21)
(1.01003 0.0115109 9.63897e-21)
(-0.196486 0.114933 -3.10196e-19)
(1.11186 0.180368 8.12085e-19)
(1.30687 0.112387 1e-18)
(1.32987 -0.0709399 7.91945e-19)
(1.25337 -0.0719257 1.23967e-18)
(1.17315 -0.129966 1.2686e-19)
(1.10229 -0.104377 -2.72935e-19)
(1.05437 -0.0989296 2.80561e-20)
(1.01859 -0.0685146 -3.19723e-20)
(1.00019 -0.0446018 -2.66701e-20)
(0.993212 -0.0196263 -8.13426e-21)
(0.996419 -0.00358367 2.90642e-21)
(1.00177 0.00628195 2.49171e-22)
(1.00711 0.00926944 -4.60777e-21)
(1.00956 0.00939798 -1.23062e-20)
(-0.089059 0.170795 4.9692e-19)
(1.17416 0.172585 -9.50944e-19)
(1.31186 0.126448 1.99457e-19)
(1.32126 -0.05492 -9.17841e-19)
(1.24656 -0.0502345 -6.61262e-19)
(1.1717 -0.112336 1.32691e-19)
(1.10476 -0.0871904 2.75688e-20)
(1.06053 -0.0869319 3.43361e-20)
(1.02636 -0.0594782 -4.32563e-20)
(1.00842 -0.0402507 4.43103e-20)
(1.00012 -0.0185634 1.33283e-20)
(1.00113 -0.00481434 -8.0869e-22)
(1.00395 0.00461611 -9.11103e-21)
(1.00786 0.00726295 -3.37715e-21)
(1.00915 0.00931545 6.41011e-22)
(0.0493424 0.269663 3.34027e-19)
(1.22305 0.17142 -2.35188e-19)
(1.31407 0.141734 1.27935e-18)
(1.31149 -0.0399149 7.58913e-19)
(1.23896 -0.0299989 1.26972e-19)
(1.1696 -0.0959915 -4.90402e-19)
(1.1064 -0.0710588 6.2084e-23)
(1.06556 -0.0757548 -6.08098e-20)
(1.03281 -0.0507643 5.11462e-21)
(1.01539 -0.0357973 3.56319e-21)
(1.00606 -0.016892 1.16131e-20)
(1.00529 -0.00517191 2.52904e-21)
(1.00615 0.00336167 -1.13049e-21)
(1.00882 0.00662982 -2.71243e-21)
(1.0088 0.00822198 -4.55951e-21)
(0.203374 0.393553 1.74676e-18)
(1.25637 0.175022 6.82616e-19)
(1.31312 0.157612 -1.04931e-18)
(1.30101 -0.0259745 4.02522e-19)
(1.23076 -0.0111895 -1.63642e-19)
(1.16694 -0.0808435 4.25659e-20)
(1.10728 -0.0559207 2.27044e-19)
(1.06957 -0.065324 7.59958e-20)
(1.0381 -0.0423498 4.8755e-20)
(1.0213 -0.0312885 -1.82632e-20)
(1.01112 -0.0147146 -2.04271e-21)
(1.00896 -0.00498996 -1.48041e-21)
(1.0083 0.00305103 -3.73617e-22)
(1.00961 0.00569713 6.38984e-21)
(1.00933 0.00835154 8.71547e-21)
(0.347773 0.507332 -7.26748e-19)
(1.2741 0.179468 2.73251e-19)
(1.30894 0.173188 -4.0967e-19)
(1.29018 -0.013099 -2.05198e-19)
(1.22215 0.00624719 -5.5951e-19)
(1.1638 -0.0668047 3.27664e-19)
(1.10748 -0.0417224 -5.75783e-20)
(1.07265 -0.055573 -3.36598e-20)
(1.04236 -0.0342264 -5.16188e-20)
(1.02624 -0.0267634 7.26733e-21)
(1.0154 -0.0121921 -1.29337e-20)
(1.0122 -0.00419069 -1.7338e-22)
(1.01016 0.00293477 -4.17147e-21)
(1.01087 0.00572795 9.57024e-21)
(1.00939 0.00808968 -2.13919e-21)
(0.462463 0.576881 -4.09683e-19)
(1.27911 0.181325 -7.04235e-20)
(1.30189 0.187696 2.92692e-19)
(1.27925 -0.00123487 -4.91609e-20)
(1.21328 0.0223813 2.39469e-19)
(1.16026 -0.0537902 -3.5208e-19)
(1.10704 -0.0284152 -1.99644e-19)
(1.07489 -0.0464434 1.22795e-19)
(1.04571 -0.0263895 4.71984e-20)
(1.03034 -0.0222664 1.01873e-20)
(1.01899 -0.0093486 -4.62511e-21)
(1.01494 -0.00309762 -1.12766e-21)
(1.01205 0.00348423 4.34918e-21)
(1.01165 0.00569539 -1.53214e-20)
(1.01013 0.00844418 6.42938e-21)
(0.544584 0.592456 2.3015e-19)
(1.27634 0.180002 -6.29598e-19)
(1.29261 0.200771 3.16348e-20)
(1.26837 0.00972146 -4.75729e-19)
(1.20426 0.0372942 6.75028e-20)
(1.15636 -0.0417174 -5.96589e-20)
(1.10603 -0.0159553 1.87642e-19)
(1.07638 -0.037882 -1.66133e-19)
(1.04827 -0.0188426 2.26312e-20)
(1.03367 -0.0178168 -3.24606e-20)
(1.02194 -0.00632049 4.28725e-21)
(1.01735 -0.00161026 3.74658e-21)
(1.01351 0.00421269 1.2499e-21)
(1.01282 0.00616524 7.75376e-21)
(1.01046 0.0087519 3.78331e-21)
(0.604251 0.571147 -9.231e-19)
(1.27039 0.176796 1.01296e-18)
(1.2817 0.21238 2.35904e-19)
(1.25763 0.0198777 3.85488e-19)
(1.19519 0.0510686 3.51107e-19)
(1.15217 -0.0305073 1.5943e-19)
(1.1045 -0.00430276 -2.42522e-19)
(1.07719 -0.0298405 4.164e-20)
(1.05013 -0.011589 -6.90216e-20)
(1.03631 -0.0134522 -1.25754e-21)
(1.02433 -0.00311746 -5.59594e-22)
(1.0193 6.12424e-05 3.69683e-23)
(1.01498 0.00531363 -1.2753e-21)
(1.01356 0.00675091 -5.84852e-22)
(1.01109 0.00933349 -9.30876e-21)
(0.653891 0.536837 4.77364e-19)
(1.26407 0.173027 -5.59496e-19)
(1.26965 0.222652 -4.88804e-19)
(1.24705 0.0293302 -1.55046e-19)
(1.18613 0.0637866 -1.45413e-19)
(1.14771 -0.0200855 -6.39865e-20)
(1.10251 0.00658206 1.05452e-19)
(1.07739 -0.022275 8.9958e-20)
(1.05137 -0.0046396 1.85148e-20)
(1.03833 -0.00918115 8.99352e-21)
(1.02618 0.000168383 -4.03465e-22)
(1.02098 0.00194756 -2.50927e-21)
(1.01605 0.00660226 -4.69063e-22)
(1.01444 0.00752999 -1.9898e-21)
(1.01147 0.0099883 6.54128e-21)
(0.700378 0.504553 4.8921e-19)
(1.25843 0.169415 6.08443e-20)
(1.25688 0.231761 8.93994e-20)
(1.23666 0.038158 4.48336e-20)
(1.17712 0.0755275 -2.47768e-20)
(1.14304 -0.0103816 -9.5255e-20)
(1.10009 0.0167384 -4.82936e-20)
(1.07704 -0.0151488 -5.31951e-20)
(1.05205 0.00199808 -6.43614e-21)
(1.03978 -0.00502489 -9.75459e-21)
(1.02759 0.00351713 1.0563e-20)
(1.02226 0.00395586 1.54512e-21)
(1.01703 0.00804684 4.53813e-22)
(1.01501 0.00849095 -4.63183e-21)
(1.01187 0.0107505 -5.38277e-21)
(0.745436 0.479204 1.02621e-19)
(1.25356 0.166327 2.4836e-19)
(1.24374 0.239871 6.30467e-19)
(1.22645 0.0464342 -4.03826e-19)
(1.16818 0.0863668 1.50396e-19)
(1.13817 -0.00133167 6.59127e-20)
(1.09729 0.0262031 5.55055e-20)
(1.07621 -0.00843262 -1.13136e-20)
(1.05224 0.0083165 7.06914e-21)
(1.04072 -0.000984935 4.31705e-21)
(1.02856 0.00687268 -5.93707e-21)
(1.02327 0.00604938 -8.18301e-22)
(1.01768 0.00965797 -5.0539e-22)
(1.01554 0.00948462 6.24122e-21)
(1.01213 0.0116084 5.09038e-22)
(0.78874 0.460839 -3.30919e-19)
(1.24925 0.164007 -2.97141e-19)
(1.23049 0.247141 -2.81546e-19)
(1.21641 0.0542264 2.23874e-19)
(1.15933 0.0963735 -1.44992e-19)
(1.13311 0.00711974 -3.92967e-20)
(1.09415 0.0350075 -2.06418e-20)
(1.07495 -0.00210198 -6.36082e-21)
(1.05196 0.0143149 3.70356e-21)
(1.0412 0.00292604 8.55759e-21)
(1.02916 0.0102014 -4.58759e-21)
(1.02395 0.0082157 -4.24489e-22)
(1.01817 0.0112959 -1.62946e-21)
(1.01587 0.0106507 -2.28022e-21)
(1.01229 0.0124975 1.14006e-21)
(0.829703 0.448421 3.07247e-19)
(1.24525 0.162642 -4.41169e-20)
(1.21729 0.253717 -7.36545e-20)
(1.20652 0.0615951 4.68373e-20)
(1.15058 0.105607 -2.46987e-20)
(1.12789 0.0150199 5.45996e-20)
(1.09072 0.0431783 8.85594e-21)
(1.0733 0.00386988 1.07771e-20)
(1.05128 0.0199896 4.50042e-21)
(1.04126 0.00670076 3.28709e-21)
(1.02941 0.0134771 3.53601e-21)
(1.02436 0.0103874 4.05083e-22)
(1.0184 0.0130512 4.78e-21)
(1.01606 0.0117814 1.32304e-21)
(1.01237 0.0134696 -8.45268e-21)
(0.867883 0.44103 -4.54651e-19)
(1.24136 0.162365 -8.94691e-20)
(1.20425 0.259725 -2.0603e-19)
(1.19677 0.0685914 -9.61534e-20)
(1.14194 0.11412 1.1321e-19)
(1.1225 0.02241 2.08606e-20)
(1.08703 0.0507428 -1.37943e-20)
(1.07128 0.00951085 -6.33794e-21)
(1.05023 0.0253322 1.01605e-20)
(1.04095 0.0103356 -5.00391e-22)
(1.02933 0.0166665 1.07964e-21)
(1.02449 0.0125864 -8.13535e-22)
(1.01844 0.0147627 -3.69779e-21)
(1.0161 0.0130394 -7.86249e-23)
(1.01232 0.0144346 3.36764e-21)
(0.902964 0.437963 2.73717e-19)
(1.23736 0.163256 1.75034e-19)
(1.19144 0.265266 1.13372e-19)
(1.18712 0.0752574 5.17139e-20)
(1.13341 0.121963 -9.90651e-22)
(1.11694 0.0293256 -1.71182e-20)
(1.08313 0.0577312 3.95569e-21)
(1.0689 0.0148423 1.74236e-20)
(1.04891 0.0303312 -4.64608e-21)
(1.04028 0.0138375 5.24531e-22)
(1.02897 0.0197525 -5.18256e-22)
(1.02437 0.0147386 3.97213e-22)
(1.01828 0.016529 2.94476e-22)
(1.01596 0.0142456 -2.30776e-21)
(1.01219 0.0154568 -3.2822e-21)
(0.93472 0.43864 -2.7744e-19)
(1.23307 0.165343 7.61806e-21)
(1.17889 0.270423 2.12314e-20)
(1.17754 0.0816294 -6.36637e-20)
(1.12497 0.12918 -4.67909e-20)
(1.11121 0.0357947 2.35793e-21)
(1.07907 0.0641763 -6.26378e-21)
(1.06615 0.019872 -6.49279e-21)
(1.04738 0.0349842 -1.66025e-21)
(1.03921 0.0172181 -1.39589e-21)
(1.02839 0.0226882 -1.44504e-22)
(1.024 0.0168776 1.48875e-22)
(1.01792 0.0182207 -8.32119e-22)
(1.01569 0.0155346 3.4042e-21)
(1.0119 0.0164423 1.18367e-21)
(0.962983 0.442552 9.67936e-20)
(1.22833 0.168614 1.36605e-20)
(1.16658 0.27526 1.62159e-21)
(1.16797 0.0877352 4.76801e-20)
(1.11665 0.135807 2.44645e-20)
(1.10526 0.0418399 8.06446e-21)
(1.07492 0.0701098 5.7469e-21)
(1.06302 0.0245974 2.18592e-21)
(1.0457 0.0393001 9.14983e-22)
(1.03777 0.0204766 4.65671e-22)
(1.02764 0.0254537 5.67306e-23)
(1.02338 0.0189587 1.75947e-22)
(1.0174 0.0199095 -4.49217e-22)
(1.01526 0.0167742 -7.48085e-22)
(1.01153 0.0174479 2.04698e-21)
(0.987637 0.449231 6.34697e-20)
(1.22299 0.17302 -3.30872e-20)
(1.1545 0.279825 3.85711e-20)
(1.15833 0.0935855 -7.83479e-21)
(1.10853 0.141882 4.42846e-21)
(1.09897 0.0474728 -1.06062e-21)
(1.07084 0.0755587 -2.96389e-21)
(1.05949 0.0290207 1.30717e-21)
(1.04391 0.0432884 -2.14745e-22)
(1.03598 0.0236093 1.62981e-22)
(1.02671 0.0280184 -6.05928e-24)
(1.02254 0.0210159 -3.05024e-22)
(1.0167 0.0214955 8.63255e-22)
(1.01471 0.0180502 8.56152e-22)
(1.011 0.0184 -7.47728e-22)
(1.00861 0.45824 7.36369e-20)
(1.21691 0.178481 -2.62388e-20)
(1.1426 0.284152 3.28765e-20)
(1.14853 0.0991652 -5.30382e-21)
(1.10075 0.147463 4.24943e-21)
(1.09224 0.0526842 -8.24251e-22)
(1.06694 0.0805431 -1.97069e-21)
(1.05557 0.0331675 2.35737e-23)
(1.04196 0.0469437 -1.29467e-22)
(1.03395 0.0266156 1.31103e-21)
(1.02557 0.0303751 -2.43478e-22)
(1.02153 0.0230103 -4.18932e-22)
(1.01584 0.0230216 1.42704e-21)
(1.014 0.0192791 9.39721e-22)
(1.01037 0.0193466 -1.27274e-21)
(1.02586 0.469161 1.3011e-19)
(1.20996 0.184893 1.35631e-20)
(1.13091 0.288276 1.89584e-21)
(1.1384 0.104431 2.14601e-20)
(1.09339 0.152615 1.34042e-20)
(1.08516 0.0574711 2.85912e-21)
(1.06304 0.0850691 4.17295e-21)
(1.05139 0.0370823 -1.10435e-21)
(1.03973 0.0502292 7.2782e-23)
(1.03184 0.0295091 -4.83417e-21)
(1.02415 0.0325009 7.37589e-22)
(1.02042 0.024948 5.14382e-22)
(1.0148 0.0244437 -5.67348e-22)
(1.01317 0.0205005 3.73687e-23)
(1.00962 0.0202364 2.77474e-21)
(1.03938 0.481598 -3.76914e-19)
(1.20198 0.192116 4.0102e-21)
(1.11955 0.292237 9.54703e-21)
(1.12784 0.109328 -2.67598e-20)
(1.08629 0.157342 -2.59449e-20)
(1.07804 0.061893 -1.20557e-21)
(1.05867 0.0890865 -1.75763e-21)
(1.04741 0.0408201 2.27886e-21)
(1.03702 0.0531063 4.91894e-22)
(1.02977 0.0323033 6.00197e-21)
(1.02243 0.0344114 5.47433e-21)
(1.01921 0.0267843 9.68067e-22)
(1.01363 0.0258035 -7.72945e-22)
(1.01219 0.0216492 4.23424e-21)
(1.00879 0.0210961 4.18235e-21)
(1.0492 0.495179 4.10813e-19)
(1.19275 0.199968 6.78396e-20)
(1.10866 0.296086 5.20957e-20)
(1.11692 0.113854 1.34518e-20)
(1.07904 0.161527 5.14382e-22)
(1.07122 0.0661039 1.16838e-22)
(1.05372 0.0925656 1.02671e-21)
(1.04373 0.0444184 -8.96234e-21)
(1.03387 0.0556252 2.35593e-21)
(1.02773 0.0349571 -5.74032e-22)
(1.02049 0.0361345 -8.40715e-22)
(1.01788 0.0284888 2.00961e-21)
(1.01236 0.0270814 4.00107e-21)
(1.0111 0.0227474 -9.94137e-21)
(1.00785 0.0218957 -2.39368e-21)
(1.05535 0.509554 -7.52333e-19)
(1.18209 0.208217 -4.39194e-20)
(1.09822 0.299822 -1.08209e-19)
(1.106 0.11813 -5.23054e-21)
(1.07134 0.165138 2.91475e-20)
(1.06477 0.0702219 -3.74341e-21)
(1.04832 0.0954911 -9.10749e-22)
(1.04015 0.0478477 2.49951e-21)
(1.03042 0.057798 -3.10839e-21)
(1.02562 0.0374421 -9.43024e-22)
(1.01842 0.0377051 -8.05017e-21)
(1.01639 0.03003 -7.55935e-21)
(1.01101 0.0282854 -1.55544e-20)
(1.00991 0.0237722 1.02969e-21)
(1.00682 0.0226509 1.44788e-20)
(1.0579 0.524395 5.22712e-19)
(1.16996 0.216641 -1.64112e-20)
(1.08786 0.303298 -3.11135e-20)
(1.09534 0.122302 3.24127e-21)
(1.06313 0.168068 -1.19297e-20)
(1.05855 0.0741773 -1.56729e-20)
(1.04259 0.0979036 7.46842e-22)
(1.03662 0.0510802 -4.6871e-21)
(1.02676 0.0596677 -4.36452e-21)
(1.02339 0.0397101 -9.28408e-21)
(1.01626 0.0391469 -1.46844e-20)
(1.01477 0.031402 1.52905e-20)
(1.00959 0.0293846 2.38713e-20)
(1.00866 0.0247315 4.35752e-21)
(1.00571 0.0233518 -2.31149e-20)
(1.05698 0.539391 -6.9208e-19)
(1.1567 0.225119 -2.4191e-20)
(1.07701 0.306374 -8.19024e-20)
(1.08501 0.126534 -2.92798e-20)
(1.05456 0.170349 -1.53324e-20)
(1.05247 0.077966 7.95881e-21)
(1.03669 0.0998362 2.75302e-21)
(1.03301 0.0540836 5.28026e-21)
(1.023 0.0612675 -4.52578e-21)
(1.02101 0.041737 -1.13246e-20)
(1.01405 0.0404721 1.49126e-20)
(1.01303 0.0326046 -1.94253e-21)
(1.00809 0.0303696 4.7664e-22)
(1.00733 0.0256084 -6.79417e-21)
(1.00453 0.0240035 -3.76192e-21)
(1.05282 0.554245 1.77039e-19)
(1.14248 0.233647 1.81232e-20)
(1.06534 0.308902 1.92768e-19)
(1.07493 0.130749 6.79745e-20)
(1.04575 0.171999 5.273e-21)
(1.04642 0.0815392 -2.4247e-20)
(1.03067 0.101334 -1.79707e-20)
(1.02929 0.05682 1.21234e-20)
(1.0192 0.0626296 -9.98378e-21)
(1.01848 0.0434999 -1.18998e-20)
(1.01179 0.0416739 2.92144e-20)
(1.0112 0.0336515 4.73108e-21)
(1.00654 0.0312225 -5.68834e-21)
(1.00596 0.0263915 1.84699e-20)
(1.0033 0.0245955 8.27344e-21)
(1.04569 0.568699 1.08008e-18)
(1.12721 0.242088 -8.355e-22)
(1.05297 0.310759 1.94894e-21)
(1.06495 0.134898 -4.14378e-21)
(1.03679 0.173063 1.53993e-22)
(1.04034 0.0848555 3.72974e-20)
(1.02463 0.102437 3.22667e-21)
(1.02543 0.0592629 5.2153e-20)
(1.01538 0.0637775 -4.47034e-21)
(1.01579 0.0449985 1.88728e-20)
(1.00947 0.0427414 -2.93485e-20)
(1.00931 0.0345502 -2.76787e-20)
(1.00494 0.0319435 2.93335e-21)
(1.00454 0.0270676 -9.4545e-21)
(1.00201 0.0251151 -2.99445e-20)
(1.03567 0.582475 9.8667e-19)
(1.11089 0.250331 5.42142e-20)
(1.04004 0.311877 -8.13005e-20)
(1.05498 0.138872 4.99853e-20)
(1.02776 0.173567 2.2755e-20)
(1.03417 0.0878737 2.14351e-20)
(1.01861 0.10318 -5.24111e-20)
(1.02142 0.0613868 -5.64831e-20)
(1.01158 0.0647232 -2.41988e-20)
(1.01298 0.0462374 -3.05088e-20)
(1.00708 0.0436578 1.76607e-20)
(1.00737 0.03531 3.41185e-20)
(1.0033 0.0325337 -3.49311e-20)
(1.00311 0.027631 -1.04507e-20)
(1.0007 0.0255517 2.70994e-20)
(1.02249 0.595092 -1.92365e-18)
(1.09385 0.258336 6.50407e-21)
(1.02669 0.312208 2.17024e-20)
(1.04492 0.142615 -9.85247e-20)
(1.01872 0.173549 -6.58758e-20)
(1.02788 0.0905531 -6.57914e-20)
(1.01265 0.103596 1.14093e-19)
(1.01726 0.0631805 -4.74173e-20)
(1.00779 0.0654716 9.44641e-20)
(1.01007 0.0472306 -4.6706e-21)
(1.00463 0.0444121 -1.84321e-20)
(1.00538 0.0359313 4.09841e-20)
(1.00165 0.0329972 -2.58204e-20)
(1.0017 0.0280834 -1.02958e-20)
(0.999395 0.025902 -1.96589e-20)
(1.00607 0.606305 4.61822e-19)
(1.07621 0.266251 1.20645e-19)
(1.01299 0.311764 -8.04963e-21)
(1.03474 0.146041 1.42998e-19)
(1.0097 0.173033 -2.0653e-20)
(1.02147 0.0928616 3.59899e-20)
(1.00677 0.103705 -1.11559e-19)
(1.01299 0.0646363 1.41091e-19)
(1.00401 0.0660189 -8.31989e-21)
(1.00709 0.0479925 5.14958e-20)
(1.00213 0.0449956 2.97598e-21)
(1.00334 0.036415 -7.18484e-20)
(0.999973 0.0333327 3.64102e-20)
(1.00032 0.0284209 5.41988e-20)
(0.998133 0.0261675 -4.09395e-22)
(0.986812 0.615807 -5.01369e-19)
(1.05787 0.273749 2.67694e-20)
(0.999036 0.310537 -1.71245e-20)
(1.0244 0.149085 2.15818e-20)
(1.00075 0.172046 -5.8497e-20)
(1.01495 0.0947704 1.56106e-19)
(1.00096 0.103522 1.08447e-19)
(1.00862 0.0657567 -9.31672e-20)
(1.00024 0.0663588 -7.40805e-20)
(1.00406 0.0485368 -2.28608e-20)
(0.999578 0.0454071 2.12726e-20)
(1.00125 0.0367616 2.28404e-20)
(0.998271 0.0335377 6.11245e-20)
(0.998973 0.0286343 -9.14729e-20)
(0.996915 0.0263455 3.02169e-20)
(0.96503 0.623381 -5.82381e-19)
(1.03881 0.280673 -2.44968e-20)
(0.984884 0.308524 1.19809e-20)
(1.01389 0.151677 8.9552e-20)
(0.991893 0.170607 1.67595e-19)
(1.00832 0.0962594 -1.8239e-19)
(0.995247 0.103056 3.39202e-20)
(1.00419 0.0665463 3.19488e-20)
(0.996489 0.0664829 8.23707e-20)
(1.00101 0.0488736 -2.4812e-20)
(0.997003 0.0456466 5.99669e-20)
(0.999114 0.0369763 1.67653e-20)
(0.996529 0.033618 -8.02099e-20)
(0.997625 0.0287185 4.48895e-20)
(0.995728 0.0264294 1.19884e-20)
(0.941032 0.628831 1.47262e-18)
(1.01901 0.28683 -1.43646e-19)
(0.970602 0.305716 1.42136e-19)
(1.00322 0.153757 -1.49859e-19)
(0.983145 0.168733 4.60765e-20)
(1.00161 0.0973133 -1.72243e-20)
(0.989622 0.10231 -1.07719e-19)
(0.999708 0.067014 -8.05985e-20)
(0.992759 0.0663844 -8.76759e-20)
(0.997942 0.0490094 4.6786e-20)
(0.994412 0.045714 3.08645e-20)
(0.996942 0.0370601 6.16943e-20)
(0.994749 0.0335872 -6.34518e-20)
(0.996289 0.0286976 -1.45313e-20)
(0.994615 0.0264399 4.17341e-20)
(0.915112 0.631992 5.69386e-20)
(0.998531 0.292065 5.05308e-20)
(0.956252 0.302107 -1.72181e-19)
(0.992409 0.155273 -3.06409e-19)
(0.974523 0.166436 -2.87353e-20)
(0.994846 0.0979233 2.65299e-19)
(0.984089 0.101286 9.35279e-21)
(0.995214 0.0671693 3.94999e-20)
(0.989058 0.0660587 3.81555e-21)
(0.994879 0.048949 -5.31602e-21)
(0.991815 0.0456064 -7.28978e-20)
(0.994736 0.0370053 9.69235e-21)
(0.992948 0.0334491 7.34544e-20)
(0.995005 0.0286038 1.03332e-20)
(0.993679 0.0264121 -3.69256e-20)
(0.887556 0.632728 3.88981e-20)
(0.977425 0.296232 5.00313e-19)
(0.941892 0.297693 -4.72647e-20)
(0.981477 0.156177 3.31303e-19)
(0.966043 0.163723 2.28972e-19)
(0.988059 0.098085 -2.2754e-20)
(0.978653 0.0999821 -3.41194e-20)
(0.990726 0.0670221 -4.09165e-20)
(0.985396 0.0655041 7.58741e-20)
(0.991828 0.0486965 -1.66045e-19)
(0.989219 0.0453229 -1.21501e-19)
(0.992514 0.0367989 -5.9983e-20)
(0.991153 0.033184 -6.19407e-20)
(0.993794 0.0284319 3.57403e-21)
(0.992926 0.0263547 1.30444e-20)
(0.858651 0.630924 -2.56497e-19)
(0.955778 0.2992 -2.11421e-19)
(0.927579 0.292469 -2.52982e-19)
(0.970464 0.156431 -3.4148e-19)
(0.957718 0.1606 -4.5503e-19)
(0.981278 0.0977981 -5.02285e-20)
(0.97332 0.0983966 1.71095e-19)
(0.986266 0.0665816 -3.6136e-20)
(0.981785 0.0647214 6.26226e-20)
(0.988797 0.0482564 1.12429e-19)
(0.986634 0.0448673 1.33089e-20)
(0.990304 0.03644 -2.50054e-20)
(0.989392 0.0327698 1.41513e-20)
(0.992585 0.0281134 -4.10346e-21)
(0.992094 0.0262006 -8.49632e-20)
(0.828678 0.626495 -1.81111e-19)
(0.933694 0.300854 -1.12658e-19)
(0.913368 0.286432 1.01491e-18)
(0.959414 0.156002 3.16966e-19)
(0.949562 0.15707 2.7696e-19)
(0.974535 0.0970656 -2.48937e-19)
(0.968097 0.0965284 -1.80958e-19)
(0.981852 0.0658566 2.04911e-20)
(0.978234 0.0637129 -1.4884e-19)
(0.985795 0.0476315 6.73466e-20)
(0.984078 0.0442453 5.50512e-20)
(0.988146 0.0359454 -1.25799e-19)
(0.987691 0.0322276 6.26974e-21)
(0.991258 0.0276037 3.8408e-21)
(0.990787 0.0258383 7.45577e-20)
(0.797916 0.619379 -8.97468e-20)
(0.911286 0.301093 -3.50556e-19)
(0.899315 0.279584 -9.59514e-19)
(0.948375 0.154867 -3.39092e-19)
(0.941591 0.153135 -2.26893e-19)
(0.967861 0.0958927 -8.22849e-20)
(0.962995 0.0943775 9.19748e-20)
(0.977504 0.0648554 -8.99948e-21)
(0.974756 0.0624826 1.00811e-19)
(0.98283 0.046824 -1.25415e-19)
(0.981567 0.0434588 4.13037e-20)
(0.986065 0.0353276 5.81798e-20)
(0.986061 0.0316134 -9.39954e-21)
(0.989784 0.0270008 4.70147e-20)
(0.988977 0.0252408 -4.16749e-22)
(0.766641 0.609537 -9.74239e-20)