/*--------------------------------*- C++ -*----------------------------------*\
  =========                 |
  \\      /  F ield         | OpenFOAM: The Open Source CFD Toolbox
   \\    /   O peration     | Website:  https://openfoam.org
    \\  /    A nd           | Version:  7
     \\/     M anipulation  |
\*---------------------------------------------------------------------------*/
FoamFile
{
    version     2.0;
    format      ascii;
    class       surfaceScalarField;
    location    "0.385";
    object      phi;
}
// * * * * * * * * * * * * * * * * * * * * * * * * * * * * * * * * * * * * * //

dimensions      [0 3 -1 0 0 0 0];

internalField   nonuniform List<scalar> 
18389
(
-7.97502e-05
7.97502e-05
4.35289e-05
-4.35289e-05
-5.20448e-05
5.20448e-05
4.00678e-05
-4.00678e-05
-5.17962e-05
5.17962e-05
-3.9886e-05
3.9886e-05
-3.47598e-05
3.47598e-05
3.8825e-05
-3.8825e-05
-3.49407e-05
3.49407e-05
4.13735e-05
-4.13735e-05
4.4683e-05
-4.4683e-05
-3.44945e-05
3.44945e-05
-1.09162e-05
1.09162e-05
-4.27849e-05
4.27849e-05
4.34105e-05
-4.34105e-05
2.44813e-05
-2.44813e-05
1.86867e-05
-1.86867e-05
4.58882e-05
-4.58882e-05
4.59215e-05
-4.59215e-05
4.33562e-05
-4.33562e-05
-4.25682e-05
4.25682e-05
3.5172e-05
-3.5172e-05
4.29773e-05
-4.29773e-05
-5.8579e-05
5.8579e-05
-4.97111e-05
4.97111e-05
-4.17739e-05
4.1774e-05
-4.45285e-05
4.45285e-05
4.56125e-05
-4.56125e-05
4.58465e-05
-4.58465e-05
4.41287e-05
-4.41287e-05
-4.13291e-05
4.13291e-05
-6.30576e-05
6.30576e-05
4.31128e-05
-4.31128e-05
-4.47326e-05
4.47326e-05
4.08601e-05
-4.08601e-05
4.66858e-05
-4.66858e-05
-4.55509e-05
4.55509e-05
5.36083e-05
-5.36083e-05
-5.89372e-05
5.89372e-05
3.78795e-05
-3.78795e-05
4.49306e-05
-4.49306e-05
4.54252e-05
-4.54252e-05
-4.10202e-05
4.10202e-05
4.49051e-05
-4.49051e-05
4.58617e-05
-4.58617e-05
-4.58448e-05
4.58448e-05
-4.58412e-05
4.58412e-05
-4.06528e-05
4.06528e-05
-4.58804e-05
4.58805e-05
4.59268e-05
-4.59268e-05
4.59451e-05
-4.5945e-05
4.46057e-05
-4.46057e-05
3.77253e-05
-3.77253e-05
-4.57599e-05
4.57599e-05
-5.55298e-05
5.55298e-05
-4.38099e-05
4.38099e-05
4.57579e-05
-4.57579e-05
-4.59926e-05
4.59926e-05
4.32273e-05
-4.32273e-05
-5.93207e-05
5.93207e-05
-4.71398e-05
4.71398e-05
4.9606e-05
-4.9606e-05
4.57224e-05
-4.57224e-05
-8.5417e-06
8.54172e-06
4.57731e-05
-4.57731e-05
4.14676e-05
-4.14676e-05
5.12106e-05
-5.12105e-05
-4.58601e-05
4.58601e-05
4.2323e-05
-4.2323e-05
3.12616e-05
-3.12616e-05
4.53516e-07
-4.53516e-07
-4.41161e-05
4.41161e-05
3.28683e-05
-3.28683e-05
-3.65718e-05
3.65718e-05
3.97184e-05
-3.97184e-05
2.66258e-05
-2.66258e-05
2.61929e-05
-2.61929e-05
2.70489e-05
-2.70488e-05
2.43963e-05
-2.43963e-05
1.22723e-05
-1.22723e-05
0.00108314
-0.000885785
-0.000197352
0.00546478
-0.00207343
-0.00339134
-0.00594643
0.00594645
-1.35773e-08
0.0033548
-0.0026003
-0.000754509
-0.00156636
0.0017688
-0.000202437
-0.00675254
0.00283911
0.00391343
0.00121373
0.00425105
0.00725514
-0.00587524
-0.0013799
0.00120512
-0.00190939
0.000704268
-0.0008693
-0.00069706
-0.00144206
-0.000314659
0.00175672
0.000143367
5.46269e-07
-0.000143913
0.00077861
-0.00222067
-0.00360377
0.000122791
0.00348097
-0.00320186
0.00289359
0.000308272
-0.0056998
0.00723544
-0.00153565
-0.0037089
0.00289759
0.000811306
-0.000563165
-0.00304061
-0.00175347
0.00239138
-0.000637911
-0.000463096
0.00255905
-0.00209595
-0.00161231
0.0011151
0.000497207
0.000583521
0.000581839
-0.00159792
-0.00515463
0.00132314
-0.00181223
0.000489085
0.00577846
-0.00385965
-0.0019188
-0.00067038
0.00331324
-0.00264286
-0.00583492
0.0058352
0.000463554
0.00130524
-0.00633817
0.000965397
0.00537278
0.00231543
-0.00298581
-0.00378924
0.00311413
0.000675114
0.00214871
-0.00422214
0.00108912
-0.000202237
-0.000886878
0.00151163
-0.00129281
-0.000218818
-0.0028028
-0.000399051
0.00535139
-0.00535191
0.000375517
0.00113612
0.00522743
-0.00133583
-0.0038916
0.00196971
-0.000764582
0.00308572
0.00190865
-0.00499436
-0.000720869
-0.00306838
-8.90868e-05
-0.000156226
0.000245313
0.00393589
0.00331925
0.00115155
-0.00487138
0.00371983
0.00162656
0.00360086
-0.00498163
0.00632047
-0.00133884
-0.00114332
-0.00058835
0.00173167
0.00133544
0.00201936
0.00013529
0.000103626
-0.000238916
0.00502032
-0.00339375
0.00645956
-0.000840589
-0.00561897
0.00321757
-0.00266703
-0.000550534
0.0022159
0.000458878
-0.00267479
0.00295708
-0.000741173
0.00650398
-0.00539861
-0.00110536
0.000494192
-0.00385273
0.00335854
7.04696e-05
0.00638909
0.00478994
-0.00429575
-0.000535765
0.00105939
-0.00052362
-0.00176377
0.000620452
0.00191701
0.00224914
-0.00416614
0.000253641
-0.000333812
8.01716e-05
-0.00125607
-0.00284902
0.00410509
-2.63691e-05
0.00653035
-0.00281401
0.0023021
0.000511911
0.000389337
-1.21388e-05
-0.000377198
-0.00569232
-0.000254108
0.00188027
-0.00141672
0.000828346
0.00495011
0.000895758
0.000187383
0.00261707
-0.00642219
0.00380513
-0.00112019
0.00058443
0.00264156
-0.00389764
0.00619607
-0.00226017
0.00109212
0.00117726
-0.00079077
0.00105248
-0.000261713
-0.00111543
-0.000496883
0.00188367
0.0013339
-0.000594769
0.0014295
-0.00123737
-0.00019213
-0.00265372
0.00199177
0.000661953
0.00116676
0.000262744
0.00112274
-0.00495531
0.00383257
-0.00474628
0.00140654
0.00333973
-0.00455438
0.00611813
-0.00156376
-0.00506198
8.0354e-05
-0.00201855
-0.000635172
-0.000215704
0.000126617
-0.00121452
0.00463832
-0.0034238
-0.00119242
-0.000716967
0.000103301
-0.000192023
8.87216e-05
0.000126281
-2.29802e-05
-0.00125003
0.00462977
-0.00337974
-0.000156259
2.44303e-05
0.000131829
-0.00556628
0.00170664
-0.00120202
-0.00056175
-0.000449386
-1.89137e-05
0.000468299
-0.000543204
9.38177e-05
0.0010132
7.59127e-05
-0.0018158
0.000613776
-0.000150532
1.70403e-05
0.000133491
0.00136804
-0.00234445
0.000976404
0.000271101
-0.000135811
-0.00392542
0.00513915
-0.00245874
0.000705286
-9.70129e-05
-0.000417892
0.000514905
0.0056854
-0.00216811
-0.00351729
7.95567e-05
0.00250637
-0.00258593
0.00444632
-0.00559764
0.00115132
0.00263518
0.00305022
0.00291479
-0.00283523
-0.00614375
0.000443962
-0.0064474
0.0036222
0.0028252
0.00229267
0.0039034
-0.00438793
0.00137103
0.0030169
0.00150673
-0.000183588
-0.00102226
0.00401743
-0.00299517
0.00463878
-0.00162532
-0.00301346
-0.00459568
0.00374691
0.000848769
0.00369333
-0.00502917
5.96373e-05
0.0003297
-0.001371
0.00581732
-9.05149e-05
0.00214865
-0.00205813
-0.0020725
0.00261379
0.000163681
-0.00277747
-0.00127739
0.00264543
-0.00063971
0.0032535
0.0016424
-0.00173291
0.000889087
0.00397041
-0.00485951
-0.0050421
0.00384084
0.00120127
0.0025519
-0.00359411
0.00104222
-0.00330962
0.00411546
-0.000805842
0.00035811
-0.00366773
-0.000913173
0.000913173
-0.000455394
0.000358381
-0.000126948
-0.000973486
0.00110043
0.005069
-0.00184161
-0.00322739
-0.0024333
-0.000369509
0.00290089
0.000157887
1.64995e-05
-0.000174387
-0.00147471
0.00112918
0.000345533
-0.000141983
-0.00490012
0.00503728
-0.00388574
0.000230263
-8.68961e-05
0.00444281
0.000577511
0.00406761
-0.00151571
0.000165028
-7.14098e-06
-0.00632998
-0.00099668
-0.000819119
0.00430047
-0.00190399
-0.00239648
0.0027576
0.00154287
0.00107763
-0.00563199
-0.00226731
-0.000546701
-0.00112519
-0.000955441
0.00208063
4.17886e-05
-0.00272426
0.00268247
-0.00235895
0.00123376
-0.00221808
0.0053038
-0.00461088
0.00159197
0.00301891
0.00254816
0.000685907
-0.000338775
-0.000347132
-0.00601574
0.000582906
0.00543283
-0.00417611
0.00581403
-0.00163793
0.00182443
0.00163133
-0.00345576
-0.00168254
0.000900627
0.000781907
-0.00271529
0.00208554
0.000629758
0.00112592
0.000754351
0.000247181
-0.000328936
8.17561e-05
0.00487682
-0.00398774
-0.00638645
0.0055768
0.000809653
-0.00478541
-0.00166199
0.00334977
0.000623354
-0.00397313
0.000154037
-0.000162221
8.18328e-06
0.000590419
-0.000125238
-0.000465181
-0.00451862
0.00261464
0.00037689
-0.000595518
0.000218628
5.4936e-05
-0.000968111
-0.00257575
0.0044844
-0.0053041
-0.000322295
0.0056264
0.000208632
0.00020221
-0.000410841
0.00123911
-0.00123911
0.00168555
-0.000723521
-0.00211091
0.0018178
0.000293105
0.00439699
-0.00302597
-0.00016244
6.18194e-06
-0.00120967
0.0012646
0.000672959
0.00129675
0.00234759
-0.000262048
-0.00401725
-0.00128685
0.00112053
-0.00497327
0.00321301
-0.00446303
0.000833016
-0.00213694
0.00130392
0.0033596
-0.00457413
-0.0027107
-0.00180793
-0.00483588
0.00469389
-0.00067686
-0.00533887
-0.00515817
0.00147993
-0.00148644
6.51113e-06
0.00223627
0.000111317
-0.00601453
0.00204871
0.00396582
-0.00121934
0.000526007
0.000693326
0.00144546
0.00295154
-0.00462513
-0.00101514
0.00564028
-0.000212909
0.000138579
7.43287e-05
-0.00550559
0.00132948
0.00375313
-0.00493693
0.0011838
-0.00149897
-0.000611934
-0.000536676
-0.000637497
0.00013833
-0.000203784
6.54539e-05
0.00497601
-0.00385328
-0.00130019
0.00512447
-0.00382428
-0.000421807
-0.000787864
-0.00586129
0.000439716
0.00539548
-0.00616007
0.00456215
-0.000924367
-0.00546209
-0.00109846
-0.000376253
-0.00181902
0.00285829
-0.00103928
-0.000419069
0.000321988
9.70815e-05
-0.00173208
0.00141742
0.00161713
-0.000137199
0.000821118
-3.67392e-05
-0.00169534
0.00279717
0.00121673
-0.00303574
0.00605599
-0.000479186
0.00528063
7.07588e-05
-0.00528144
0.00438936
0.00114434
-0.00553371
0.000556547
-0.000768851
0.000212304
-4.19012e-05
-0.000413492
-1.02583e-05
0.00606624
-0.000162173
0.000156816
5.35659e-06
0.000133419
2.06179e-05
0.00254197
-0.00335492
0.000812952
-0.001897
0.000696739
0.00120026
0.00791729
-0.00345194
-0.00446535
0.00116905
0.00126771
-0.00243677
0.000104775
-0.000171776
6.70015e-05
-0.000805873
0.00133187
0.00115511
0.00318263
-0.00433773
-0.00561452
0.000165711
0.00544881
-0.00401751
0.00299525
0.00173487
0.00479548
0.00458298
0.0033343
-2.29073e-05
0.000192146
-0.000169238
-0.00130027
0.00439118
-0.0030909
0.000301894
-0.000343796
-0.000131419
-8.14892e-05
0.00410059
-0.00227618
0.00475445
-0.00500393
0.000249483
-0.0032275
0.00605236
-0.00282486
0.00252837
0.00157223
0.00574116
-0.000986716
-0.00138172
-0.00562116
0.00137251
0.00424865
0.000654649
0.000520485
-0.00117513
0.00126934
-0.000614689
0.000585359
-0.00111005
0.000524689
0.00110585
0.000283093
0.000402815
-0.000678231
0.00443136
0.00152035
-0.000391172
0.00351802
-0.00610601
0.002588
0.00153607
-0.00258538
0.00104931
-0.0043134
0.00115538
0.00315801
0.0029177
-0.00421797
-0.00490762
-0.00125245
-0.0040955
0.0012624
0.0028331
0.00124168
0.0031495
-0.00326386
-0.000831648
0.00222655
-0.00105751
-0.000672827
-0.00253598
0.0032088
0.00241014
0.000611131
-0.00302127
-0.00159322
0.00120327
0.000389951
0.00027014
0.00149754
-0.00196842
0.000470884
-0.00011097
-0.000222843
-0.000264544
0.000153574
-0.00434969
-0.000245991
-0.000293957
0.00117397
-0.000880017
0.00435105
-0.00464427
0.000293217
-8.84009e-05
0.000117738
-2.93371e-05
0.000969511
0.00338293
-0.00435244
-0.000156976
6.85757e-05
-0.0047511
0.000709713
0.0040414
-0.000796293
8.80214e-05
0.00070827
8.08975e-05
-8.03511e-05
-0.000400042
0.00086467
-0.000347469
-0.000517201
-0.00603619
0.000637583
-0.00254964
-0.00012825
0.00267789
-0.00317117
0.00441284
0.00218085
-0.00108873
-0.00116719
-0.00118604
-6.37858e-06
-0.00351767
-0.0012286
0.00152059
-0.000415773
-0.00110481
0.0019198
0.00183816
-0.00375797
0.00503822
-0.00160409
-0.00343412
0.000792009
-0.00541714
-0.00137212
0.00300345
0.00195076
0.000787672
-0.00273842
-0.00349959
0.0044691
-0.000153249
2.71705e-06
0.000932274
-0.00443186
-0.0044969
-0.000147381
-0.000998106
-0.00461641
0.00461955
0.00147989
0.00355833
0.00415865
0.00114151
-0.00530016
3.58898e-05
5.98588e-05
-9.57487e-05
-0.00141352
0.00336427
0.00370111
0.00353433
-0.00140367
0.00237263
-0.000968946
-0.00247981
0.000461263
-0.000878388
0.000751439
-0.000201513
0.000410146
-0.000205868
0.00170341
0.00376339
-0.00184358
-0.00107999
-0.000602552
-0.000107277
-0.000157266
0.00355042
-0.00163341
-0.0024037
0.00465285
0.000674539
-0.00309589
0.00242135
0.000651283
0.000765837
-0.00105979
0.00210073
-0.00130571
-0.00327536
0.00458106
-0.00215532
0.0047724
-0.00055269
0.00344628
0.000238289
-0.000221249
-0.00236339
0.000959727
0.00230411
-0.00386874
0.00156464
-0.00122404
5.8112e-05
-2.22222e-05
0.00215228
-0.00279851
0.000646244
-0.0011727
-0.000420516
-0.00353493
0.00450033
0.00118134
0.00168593
-0.00286727
-0.00169322
0.00366424
-0.00197102
0.00423813
-0.000855206
0.000234322
1.41066e-05
-0.000248429
-0.00372125
0.00202802
-0.00141993
0.00471057
-0.00329064
0.00087793
0.00130292
0.000203895
0.00103521
0.000253084
-0.000300741
4.76565e-05
0.0016991
0.000218389
-0.00191749
0.00302095
-0.00458271
0.00156176
-5.29128e-05
0.000374375
-0.000321462
0.00156401
-0.000360744
0.00142822
-0.000618702
-0.00080952
0.00282781
-0.00392133
0.00109352
0.00268185
-0.00374212
0.00106027
-0.00515706
0.00192956
0.00389558
-0.000874634
-0.000624396
-0.00238141
0.00300581
0.00140619
-0.00511679
0.0037106
0.00336051
-0.00145893
-0.00190159
-0.000688817
0.001731
-0.00104218
0.00477166
-0.00303679
-0.00070763
-0.00195939
-0.0059818
0.00514121
3.83785e-06
0.00012184
-0.000125678
-0.00158069
0.00120446
0.000376235
-0.00490569
0.00630403
-0.00139835
-0.00188799
0.000706583
0.00118141
0.00040492
0.00268699
-0.00208966
-0.000597324
0.0034344
0.000490294
-0.0039247
0.000123308
-1.85323e-05
0.00517229
0.000336886
-0.00550917
-0.00194159
0.00379781
-0.00185622
0.00276597
-0.000629205
-0.00213677
0.000462534
0.000402136
-0.000437949
0.00387235
0.00202532
-0.00396691
0.000712538
-0.000267014
-0.000445524
-0.000647148
1.47455e-05
0.000632404
-0.00315299
-0.00576499
0.00576661
-0.0002751
0.000953157
-0.000678057
-0.00229247
-0.00018735
-0.00454718
0.00324147
-0.000863976
0.00112065
0.00360766
-0.00501971
0.00141206
0.000410692
-0.00296033
0.00233489
-0.00244022
0.000105321
-0.00157144
0.00148229
8.91445e-05
-0.0012132
-0.000367492
-0.00339208
0.00342537
-0.00224402
0.000457325
0.000133094
-0.00173989
0.00105107
-0.00279122
0.000734077
0.00205714
0.000242335
-8.0131e-06
-0.00347714
0.00102156
0.00245559
-0.00144362
0.00560227
0.000338851
-0.000958494
0.000619644
0.00212552
0.000640448
-0.00127776
0.000304273
0.00112019
0.0012147
-0.00141802
0.0049441
-0.00352607
-0.00485647
0.00577217
-0.000915702
-0.00117227
0.00228558
0.00410351
0.00107542
3.96858e-05
0.00585675
-0.00551475
-0.000341991
0.00353925
-0.00465127
0.00111202
0.00309021
-0.00068007
0.00542641
-0.00181876
-0.0025047
-0.00097244
-0.00218335
-0.000307517
0.00249087
0.0024226
-0.00196373
-0.00160818
-0.00423992
0.00274897
0.00149096
-0.000329852
0.00123048
0.00120797
0.00364903
-0.004857
-0.000321563
0.000698454
0.00305958
-0.00238504
-0.0047241
-0.00125771
0.00647074
-0.00129845
0.00423353
0.00206383
0.000495223
0.00285559
-0.00212716
-0.000728422
0.00473743
-0.00245185
-6.75967e-05
-0.00332829
-0.000863078
0.00419137
0.000388736
-8.67691e-05
-0.000301967
-0.00514032
0.00610392
-0.000963597
-0.000716995
0.0019025
-0.0011855
-0.000696981
0.00525266
-0.00455568
0.00119483
-0.00191182
-0.000112619
-0.00576262
-0.00079077
0.00203144
0.00382531
-0.000258097
-0.00192525
0.000251392
-4.21042e-06
0.000362561
-0.000487799
0.00335921
-0.000817249
-0.00522561
-0.000271556
-0.000147513
0.000150215
-0.00013359
-1.66241e-05
-0.00248341
0.000124449
-0.000419582
0.00159566
-0.00102072
-0.000574941
0.00245813
0.000606951
-0.00306508
-0.000722622
0.00318074
-0.00520293
-0.000271533
0.00547446
0.00375075
0.00137372
0.00440313
-0.0012205
-0.000127283
0.00254988
0.00540384
-0.000206644
-0.0051972
-0.00608771
0.00425307
0.00183465
0.00321175
-0.00126803
-0.00435314
0.00020338
-0.000226287
0.000587633
0.000840587
0.00116239
0.000191764
-0.00135416
0.00421231
0.00119154
-0.000962527
0.00317187
-0.00220935
0.00471972
-0.00136994
-0.00218139
0.00279379
-0.000612399
-0.00117693
-9.99439e-05
0.000285772
-0.000185828
0.00344668
-0.00414366
0.001346
-0.000990932
-0.000355066
0.00159978
-0.000395315
-0.00324985
0.00228732
0.00548688
-0.00434254
-3.06209e-05
0.000352609
-0.0053522
0.000446506
0.00542137
-0.00190335
-0.000997439
-0.00361545
0.00461289
-0.0006451
0.00288302
-0.00223792
0.00549724
-0.00286245
-0.00263479
-8.83971e-05
0.000591043
-0.000677085
0.000660578
1.65067e-05
-0.000698527
0.00173539
-0.00103687
-0.0031512
-0.00116219
0.000155528
-1.71978e-05
-0.00122478
-0.00478974
-0.0030735
0.00240067
-0.000958956
-0.00028015
-7.26207e-05
-8.95518e-05
-0.00122909
-0.000805926
-0.00523027
-0.00283891
0.00219381
-0.000813882
0.0011894
0.00111853
0.00436057
-0.00547909
0.00337708
-0.00275372
0.000465554
0.000770002
-0.0028832
0.0021132
0.00497723
-0.00491659
-6.06294e-05
-0.00320949
0.00361563
-0.000406132
0.000207791
-9.56048e-05
-0.000112187
-0.00494066
-0.00148155
-0.00176053
0.00368983
-0.0019293
0.00298085
-0.00221085
-0.0037835
0.00202298
0.00139508
-0.00258174
0.00118665
-0.003633
0.00568172
0.0064987
-0.00219577
-0.00430294
-0.00239888
0.00237658
2.23126e-05
0.00559298
-0.00162257
0.0011857
-0.000925537
-0.000260167
-9.08982e-06
0.000262174
0.000249952
-0.000774814
0.000524862
-0.00304887
0.00365002
-0.000968171
0.000848822
-0.00105106
0.00236446
-0.000633343
-0.00173112
0.00221306
-0.000513958
0.00451498
0.000630843
0.00173362
-0.00175987
0.00106134
0.00040859
-0.000464701
5.61101e-05
0.00221993
-0.0017487
-0.000471236
0.000823235
-0.0051478
-0.000544526
0.00036949
-0.000588351
0.000218861
-0.0041016
0.00547411
0.00094192
-0.00111656
0.000174643
-0.00153747
0.00216368
-0.000626211
-0.00148663
-0.0027533
-0.00537333
-0.000165801
0.00553914
0.000298827
0.000108303
4.19119e-05
0.000127964
-0.000128194
2.31088e-07
0.00409845
-0.00289048
-0.00379517
-0.00231083
0.00346513
0.00303357
-0.00259037
0.000718197
0.00187217
-0.000844629
0.00223971
-0.00229832
-0.000100564
0.00272968
-0.00377722
0.00104754
0.00130607
-0.000132094
0.000462274
0.000550927
-0.00327781
0.000961881
0.00231593
0.000909834
-0.00062365
-2.34988e-05
-0.00426895
0.0017142
0.000113539
-0.00182773
-0.00396273
0.00146084
0.00250189
0.000515676
0.00149465
-0.000907023
-0.000245598
-0.00466066
0.00490626
0.000784059
-0.00247674
0.00169269
0.00120221
0.00131231
-0.000457295
-0.00172677
0.00218407
0.00258002
-0.00179596
0.00446669
-0.00353441
-0.000762068
-0.00264104
-0.000227264
0.000251694
-0.000710075
0.00176705
-0.00105697
0.00266212
-0.00366656
0.00100443
0.000136427
2.03892e-05
-0.00236513
-0.00091268
0.00142117
-0.00163613
0.000214955
-0.00277479
0.000685129
0.00127616
-0.0014185
0.000142342
0.00161852
-0.0018076
0.000189079
0.0006742
-0.00372056
-0.00115081
0.00133872
-0.00488647
0.00354776
-0.000910926
0.00357303
0.000118392
-7.92691e-05
-3.91227e-05
0.00473523
-0.00361669
-0.000301457
-0.00152188
-0.00401307
-0.00149252
0.00209386
0.000699926
-0.00100363
-0.000922678
-0.00452126
-0.0016225
-0.000393307
0.00124483
-0.000933575
-0.000311252
-0.0014965
-0.00108889
0.00065344
0.00226102
-0.00291445
-0.000114311
0.000670857
-0.000715942
3.88577e-05
-0.00246236
0.00196647
0.00139404
-0.000687299
0.00163555
-0.000948248
-8.68555e-05
-0.000116929
0.000319291
-0.00194709
0.000448121
0.00161736
-0.00230746
0.000690099
-0.0033372
0.00258485
0.000752336
0.00120563
0.00240598
-0.00361161
-0.00175706
0.00104698
-0.00294107
-0.00102166
-0.000780503
-0.00255669
-0.00167844
0.00125519
0.000423254
0.00176702
-5.28206e-05
-0.000759049
-0.0024368
0.00319584
-0.000665693
0.00291333
-0.00225989
-0.00085858
-0.00394758
0.00480617
-0.00234245
0.00234264
-1.89473e-07
-0.000796293
-0.00156721
0.000546492
-0.00240706
0.00381933
-0.00141227
0.00323307
0.00288506
0.000194329
3.62214e-05
-0.000230551
0.00234059
-0.000602197
-0.00173839
0.000188021
-0.000184183
-0.00358894
0.00492766
-0.00329181
0.00523392
-0.00194211
-0.00351002
-0.00150969
-0.000916334
0.00323205
-0.00231571
0.00285757
0.00177205
-0.00417913
-0.00499458
-0.000145733
-0.000779798
0.0028425
-0.0020627
-0.000431767
0.000378854
-0.000532037
0.00167633
-0.00114429
-0.00402469
0.00334546
0.00067923
-0.00326891
0.00235257
-0.00386607
0.000672994
0.00319307
0.00141196
-0.00101523
-0.000396731
-0.00589955
0.000696619
0.00184702
-0.00141148
-0.000435538
0.00146695
-0.00045894
-0.00100801
7.83743e-05
0.000129417
0.00292843
-0.000626323
-0.000216089
-0.00348699
-0.000379086
0.000427077
-0.00305582
-0.000968875
-0.00233712
-5.32074e-06
-0.00292258
0.00229818
0.000720158
0.00260223
-0.00332239
0.000585953
-0.000861053
0.00140661
-0.00671433
0.00530772
-0.00577278
0.00098736
-0.00233286
0.00353849
0.00069476
0.000258398
-0.00273333
0.00345349
-8.50588e-05
0.00506228
0.000606661
0.00171037
-0.00231704
-0.00177846
0.00124642
0.00274911
-0.00369531
0.000946195
0.00509953
0.000678485
0.00154145
0.000322215
0.000390323
-0.000364007
-0.000404844
0.000181
-0.0017492
0.00176685
-0.000888918
0.00089798
0.00059667
-0.000581186
0.00300989
-0.0024287
-0.00150912
0.00184307
-0.00033394
-0.00489196
0.00380356
0.0010884
-0.00479633
0.00150453
-4.09357e-05
3.71879e-05
3.7479e-06
-0.00281295
-0.000853609
0.00110209
-0.00129746
0.00019537
0.00134749
-0.00493644
0.0011623
9.41017e-08
0.00123195
0.000692952
0.00219006
-0.0036666
0.000853664
0.000182588
-0.00503906
0.00190141
0.0012306
0.000671904
-0.00527312
-0.000491877
0.005654
0.00118767
0.00710707
-0.00218369
-0.00492337
0.000797965
-0.000376167
-0.000421799
0.000708791
-0.00138743
0.000784876
-0.00386074
-0.00125606
0.000285772
-0.000957888
-0.000401062
0.00135895
0.00233215
0.00400852
-0.00486709
0.00270311
0.00083403
-0.00353715
0.00125042
-0.000964882
-0.000285538
0.000744652
0.00159594
-0.00013515
0.000138377
-3.22772e-06
-0.000708753
0.0028837
-0.00217495
0.00362023
0.00109034
-0.00126552
-0.000412919
0.0014185
-0.00151405
9.55458e-05
4.68336e-05
7.15583e-05
-0.0044777
0.000967677
-0.00165708
0.000443875
-0.00364885
0.00292622
-0.000948776
6.29901e-05
0.000932914
0.00268168
-0.0036146
0.000849119
-0.00127125
0.00418306
-0.00291181
0.000316843
0.000279885
4.65578e-05
-0.000326443
7.83631e-05
-0.00539167
0.00531331
-0.00263883
-0.000767973
0.00340681
-0.00348424
0.00261109
0.000873154
-0.0027649
-0.000263734
-0.00171499
-0.00490161
0.000888535
-0.00145723
-0.000879891
-0.0010626
0.00379228
0.00171085
-0.00372448
0.00201363
0.000105539
2.24249e-05
0.00372591
-0.00201506
0.00286753
0.000946586
-0.00381411
-0.00130512
0.00174224
-0.000437119
0.00357444
0.00109425
-0.00466869
0.00717507
-0.00196865
-0.00520641
-0.00212843
-0.00071048
-0.00173746
0.00234411
0.00377343
-0.00492505
0.00115161
-0.0028035
0.00373641
0.00116707
-5.68479e-05
-0.00111022
0.00147984
0.000911537
-0.00550561
0.000597985
0.000434586
0.000363379
0.0029215
-0.00111853
-0.00251882
0.00248059
3.82356e-05
0.000504462
-0.0018409
0.00133644
-0.00386985
-0.00119213
0.00108784
-0.00254507
-0.0052991
0.000151308
-0.00125866
-0.000518993
0.00177766
0.00563362
-0.00449211
0.000104595
0.000284142
-0.00302214
0.00318583
0.00144267
-0.00107559
-0.000367078
0.00346925
0.00475592
-0.00095237
0.000635095
-0.00327392
0.00114871
-0.00106069
-5.28943e-05
0.000461484
0.000394116
-1.97417e-05
-0.00206249
-0.000441988
0.00154408
-0.000899391
-0.00349737
0.000764048
-2.83076e-05
-1.26283e-05
0.00599848
-0.00492084
0.00522205
-0.00439371
-3.25237e-05
-0.000708269
0.000740793
0.00194908
-0.000458061
-0.00149101
0.00335867
-0.000756434
-0.00256846
0.00336099
-0.000792527
-0.00183354
0.000528421
0.00127934
-0.000953231
-0.000326108
-0.00011877
-0.000210166
0.00205949
-0.000547927
-0.00151156
-0.00138211
-0.00239424
-0.000124571
0.00209332
-0.00274608
0.000652764
0.00280667
-0.0007495
-0.00205717
0.00410355
-0.00434914
0.000314458
0.00223661
-0.000619246
-0.000680935
0.000835905
-0.00367524
0.00502272
0.0012199
0.000461135
-0.0017198
-0.00286117
0.00209792
0.00363255
0.0015895
-0.00115747
-0.00382667
-0.00112865
0.00130594
-0.00171838
0.000412439
0.00367587
-0.00318558
-0.000193962
0.00113588
-3.85112e-05
-0.000271706
0.000310218
-0.000684817
-0.00190556
0.00377269
-0.0049063
0.00113361
-0.00186864
0.00235067
-0.000482027
-0.00115236
0.00213343
0.000750266
-0.00226386
0.00375502
-0.00149116
0.00150832
-0.00114473
-0.000363587
-0.00109294
0.00029665
0.000204332
-0.000457017
0.000252685
-0.000426669
-0.00123041
-0.00247934
0.00250619
-2.68517e-05
0.00144722
-0.00371109
0.00162607
-0.000370886
0.000369697
-0.000402711
3.30138e-05
-0.000827847
0.000594598
0.000233248
-0.000794263
-0.00284433
0.000817938
0.0020264
-0.00199477
-0.000876713
-0.000727985
0.0016047
-0.00523999
0.00389542
0.00134457
-0.00135095
0.00131843
-0.0005763
-0.000115988
0.000692288
0.00286844
-0.00073502
-0.000770179
-0.000160293
0.000930472
0.00184045
-0.00137931
0.00169965
-0.000393707
-0.000202246
-0.000636308
-0.00420314
0.00483945
-0.00139988
0.00283129
0.00427578
-0.00239908
-8.02578e-05
0.00312498
-0.00472908
0.00073264
0.00158242
-0.00231506
0.00201577
-0.00279556
0.00197955
-0.000707123
-0.00127242
-0.00179626
0.000455585
0.00134067
0.00431298
0.00286209
-0.00551554
0.00133587
0.00417966
-0.00124988
-0.00399011
-0.000459886
-0.00133638
-0.00101026
-0.000556954
-0.00129327
-0.000425113
0.00114048
-0.00053163
0.00151286
-0.00098123
-0.0017574
0.00129751
-0.000944224
-0.000207304
0.00115153
0.00217373
-0.0028672
0.000693483
-1.17696e-05
0.000206098
0.00103571
0.00606077
-0.00140838
-0.0046524
-0.00203428
-0.0018736
0.00134761
0.000525992
0.00127175
-0.000980084
-0.000291665
-0.00229746
-0.00102159
0.00331906
-0.00267465
0.00358191
-0.000907264
-0.000917502
0.00113434
-3.7379e-06
-0.0011306
0.00376155
-0.00493458
0.00117303
0.00174777
-0.00135586
-0.000391909
0.00242708
-0.00122487
0.00273396
-0.000636182
-0.000191664
-0.00408824
0.00229816
-0.00180193
-0.000496231
0.0005602
-0.00200946
0.00144926
-0.00251847
-0.00083645
0.000860489
-0.000659395
-0.000201095
-0.000180216
-0.00363905
0.0009644
0.00066186
-0.000457528
0.00259559
0.000986315
0.000318519
0.00131027
0.000669274
-0.00160414
0.00233678
-0.00150913
0.000996892
0.000512241
0.00354382
-0.000676275
-0.00380977
0.00610244
-0.00114475
-0.00248493
0.00682797
-0.00434305
-0.000886254
0.00356794
-0.00414182
0.000932343
-0.00210095
0.00424966
-0.000679397
-0.00162806
-0.00244839
0.00171888
0.000729519
-0.00127841
0.000691311
-0.000652824
-3.84856e-05
-0.00137598
-0.000776619
-0.000153524
0.000930143
-0.00156886
0.00137035
0.000198506
0.0020432
0.000799294
6.25182e-05
-0.00129989
-0.000550528
-0.0008369
-0.0024152
-0.000472662
-0.00140093
-0.000171105
0.00159228
-0.000180643
0.00341015
-0.000512562
0.00133868
0.000199779
-0.000776518
-0.00103571
-0.00193032
0.00247682
-0.0005465
-0.00105318
-0.00572891
0.00351083
0.00148267
-0.000584696
0.0028874
-0.00120147
0.000953892
-0.00135916
-0.00453065
0.00588981
0.000619956
-0.00255028
0.000740021
-0.00368619
0.00269952
0.000986672
0.000895451
-0.00142708
0.00222937
-0.00311763
0.000888259
0.00119481
-0.00342927
0.00223445
0.000860125
0.00168876
-0.00254888
-0.000174382
0.0017929
0.00274529
0.00108165
0.003619
-0.000413526
0.000783015
0.00315918
-0.00402225
0.000975911
-0.00327337
0.000434124
0.0041247
0.00148429
-1.03384e-05
-0.000276462
0.0002868
-0.00619229
0.00385679
0.0023355
-0.000824663
-0.00261761
0.00344228
0.00263995
-0.00177982
-0.00369596
0.000892457
-0.00132186
-0.000435541
-0.000152709
0.00131948
0.00372191
0.00122218
0.000224307
0.00131004
-0.000993784
-0.000316256
0.000918971
0.000563707
-0.000314033
0.00376897
-0.00493226
0.0011633
0.00307731
-0.000847954
-0.00139921
0.00190367
0.00125965
-0.00355397
0.00229432
-0.00116562
0.00145679
0.000678075
-0.00213486
0.000192886
-0.000203225
0.00219895
-0.00086351
-0.00129852
0.000329955
0.000923411
-0.000351249
-0.000572162
0.0035314
-0.00227175
-0.000506811
0.00229514
-0.00178833
0.00102215
-0.00296446
0.00209199
0.000872468
0.000106216
-6.77467e-07
0.00465977
0.000544725
-0.00569936
-0.00519295
0.00392711
0.00126585
-0.00107502
-0.00269581
0.00377083
0.00222132
0.00372513
0.00282847
-0.00375313
0.000924663
-0.00147095
0.00110346
-0.000940693
0.00337007
-0.00242938
0.00149755
0.000561938
-0.00378476
-0.00240753
0.00106938
-0.00230438
0.00321145
-0.000907083
0.0034274
-0.000816308
0.00039566
-0.000801138
0.0025478
0.000879596
-0.000634681
0.00431055
-0.00131036
0.00171664
-0.000406281
0.00197927
-0.00128253
-0.000389299
0.00607684
-0.00491624
-0.000457089
0.000858093
-0.00246224
-0.00539144
-0.00172341
0.000413054
-0.000678147
0.000101847
-0.000867489
0.000214571
-0.00147091
0.000655862
0.00158074
-0.000905382
0.000135203
0.000804685
0.00251635
-0.00332105
-0.00109507
0.00187368
-0.00194714
-0.000474071
0.00196128
-0.00148721
-0.000872861
-0.00209159
-0.00195183
0.00147776
-0.00265787
0.00346254
-0.001642
0.000578322
0.00106368
-0.000970773
0.00356636
0.00599519
-0.00229408
-0.00130424
-0.000419165
-0.00174235
0.00110589
0.000636462
0.000902977
-0.00451795
0.00361497
-0.00132029
0.000545021
0.000775271
-0.004035
-0.00115796
0.000191856
-0.00113608
0.00193565
-0.000705055
-0.0013384
-0.00380219
0.0051406
0.00100574
6.96819e-05
0.00329718
-0.00252858
-0.000768595
0.00014983
0.00131712
0.000877438
-0.000670616
-0.000206822
-0.00135034
-0.00101305
-0.00106925
0.00509759
-0.00402833
0.000629729
-0.00249837
0.000172724
0.00124578
0.00377307
-0.00495999
0.00118692
0.00287492
-0.00205698
0.000101906
-0.000168347
6.64417e-05
0.00102623
0.000138076
0.000104259
0.00235819
0.00370259
-0.000578796
-0.000817181
0.00139598
0.000652363
0.00177223
-0.0024246
0.00239873
-0.00171232
-0.000686401
0.000475346
0.00147373
0.000425918
-0.000512855
-0.000807438
0.000600147
-0.00532425
0.000690404
-2.98265e-05
-0.00115918
-0.00130772
-0.00378852
0.00509624
0.0010405
0.00143758
-0.00189564
0.00254685
-0.00039507
-0.00490899
0.00530406
0.000120766
-1.88605e-05
0.000642751
0.0012929
0.00273212
0.000939111
-0.00367122
0.0013757
0.000471321
0.00258854
-0.00364134
0.00454432
0.00277437
0.000843105
-0.00361748
0.0016283
-0.00089193
-0.000736371
0.00132943
-0.00102004
-0.000309389
0.000423373
0.0010578
-0.00469915
0.000218044
-6.99871e-06
0.000199885
0.00602168
-0.00128647
0.00152675
-0.00212894
0.00252298
-0.00182882
-0.000694158
0.000853761
-0.00254554
0.00169178
0.00523519
-0.00281839
-0.000923718
-0.00159463
0.00500769
0.00148596
-0.00178134
0.00029538
0.00049998
-0.000103703
-0.000396277
-0.000991487
-0.00314119
0.00413268
0.000741941
0.0018203
-0.00256224
0.00176744
-0.000281485
0.00225084
0.00141184
-0.00086682
-0.000937195