/*--------------------------------*- C++ -*----------------------------------*\
  =========                 |
  \\      /  F ield         | OpenFOAM: The Open Source CFD Toolbox
   \\    /   O peration     | Website:  https://openfoam.org
    \\  /    A nd           | Version:  7
     \\/     M anipulation  |
\*---------------------------------------------------------------------------*/
FoamFile
{
    version     2.0;
    format      ascii;
    class       volVectorField;
    location    "93";
    object      U;
}
// * * * * * * * * * * * * * * * * * * * * * * * * * * * * * * * * * * * * * //

dimensions      [0 1 -1 0 0 0 0];

internalField   nonuniform List<vector> 
26800
(
(-0.118994 -0.109941 8.78867e-20)
(-0.126671 0.240271 1.35471e-19)
(-0.0695331 0.637254 1.30754e-20)
(-0.0915989 0.737706 2.889e-20)
(-0.0181265 0.601975 -1.49685e-19)
(0.232327 0.18087 3.73645e-20)
(0.465249 -0.223285 8.16884e-20)
(0.603181 -0.483557 6.63003e-20)
(0.654585 -0.603997 4.00628e-20)
(0.677717 -0.633748 9.33262e-22)
(0.611329 -0.653247 4.13796e-21)
(0.528903 -0.614688 -2.04075e-21)
(0.551063 -0.342718 -4.30301e-22)
(0.658837 0.0240014 1.2856e-20)
(0.753249 0.290368 3.1327e-21)
(0.821478 0.432925 -2.23751e-20)
(0.808803 0.533907 -2.30581e-20)
(0.7504 0.582361 2.49281e-21)
(0.725961 0.457739 1.37447e-21)
(0.780265 0.206513 3.42769e-21)
(-0.116211 -0.100579 -2.40921e-19)
(-0.136328 0.236781 -4.11006e-19)
(-0.0885067 0.634387 1.70154e-19)
(-0.108318 0.731126 -1.88248e-19)
(0.000118567 0.572249 1.56028e-19)
(0.277399 0.136524 -1.74819e-21)
(0.51433 -0.258808 -1.66587e-19)
(0.649686 -0.502348 -1.24368e-19)
(0.689118 -0.611134 -6.52292e-20)
(0.703988 -0.626824 1.30562e-20)
(0.639371 -0.631776 -1.67175e-20)
(0.552635 -0.603996 -2.78735e-21)
(0.548161 -0.361368 -3.877e-21)
(0.637665 -0.0107623 4.98656e-20)
(0.732935 0.259516 3.93886e-21)
(0.798783 0.421875 4.27155e-20)
(0.786433 0.544378 -1.32754e-20)
(0.731676 0.596689 -3.56178e-20)
(0.701289 0.450432 7.95258e-21)
(0.777431 0.179024 -9.41969e-21)
(-0.11354 -0.0910304 -2.76289e-19)
(-0.143421 0.2332 1.39078e-19)
(-0.103863 0.630658 9.93644e-20)
(-0.118929 0.721603 -8.53457e-20)
(0.0261083 0.539361 2.79108e-19)
(0.329046 0.0933776 -2.21058e-19)
(0.567596 -0.291101 2.22183e-19)
(0.696775 -0.517256 1.72993e-19)
(0.726193 -0.614339 1.02e-20)
(0.729551 -0.61853 -1.94526e-21)
(0.668347 -0.609404 2.21184e-20)
(0.579612 -0.589615 3.01292e-20)
(0.555968 -0.375782 -2.99645e-20)
(0.626857 -0.0447382 -1.29099e-19)
(0.718536 0.227779 1.6639e-20)
(0.779779 0.40978 -4.79917e-20)
(0.766885 0.552327 4.47009e-20)
(0.712972 0.611885 2.94227e-20)
(0.685523 0.441945 -6.09328e-20)
(0.787135 0.146779 -1.30762e-20)
(-0.110984 -0.081422 5.97131e-19)
(-0.147997 0.229488 -1.78882e-19)
(-0.115469 0.626038 -4.29011e-19)
(-0.123142 0.709326 2.38445e-19)
(0.0596152 0.503953 -1.42569e-19)
(0.386458 0.0519994 4.87284e-19)
(0.6244 -0.319522 2.01718e-19)
(0.743842 -0.528309 8.75138e-20)
(0.765088 -0.613462 -1.20427e-19)
(0.754152 -0.608924 1.78761e-20)
(0.69806 -0.586558 5.66564e-20)
(0.607868 -0.572342 5.4255e-21)
(0.570313 -0.386272 9.04099e-20)
(0.624597 -0.0770071 1.35187e-19)
(0.710403 0.19628 7.49429e-21)
(0.764535 0.397069 2.83762e-20)
(0.749215 0.558308 8.83406e-21)
(0.697003 0.626487 2.51465e-20)
(0.689252 0.432028 2.76418e-20)
(0.814938 0.113082 5.71555e-20)
(-0.108551 -0.0718803 -2.45797e-21)
(-0.150131 0.225593 8.97858e-19)
(-0.123268 0.620495 3.64371e-19)
(-0.12073 0.694366 -4.88141e-19)
(0.100666 0.466781 6.55142e-20)
(0.448648 0.0129118 -4.19395e-19)
(0.683625 -0.343595 -5.57614e-19)
(0.790643 -0.535526 -4.52018e-19)
(0.804578 -0.60852 -6.61935e-21)
(0.778112 -0.597989 -2.93508e-20)
(0.727505 -0.563604 -2.60838e-19)
(0.636453 -0.552417 2.44982e-20)
(0.586603 -0.393676 -3.51235e-20)
(0.629482 -0.107661 -1.39994e-19)
(0.708579 0.165724 7.9972e-21)
(0.75199 0.384454 4.65082e-20)
(0.731148 0.561996 -5.107e-20)
(0.687039 0.637143 3.12729e-20)
(0.716464 0.420139 2.44789e-20)
(0.860706 0.0828204 -3.21861e-20)
(-0.106251 -0.0625268 -7.64501e-19)
(-0.149927 0.221456 -1.41208e-18)
(-0.127293 0.613989 -9.4759e-19)
(-0.111647 0.676888 1.24914e-18)
(0.149273 0.428608 4.48031e-19)
(0.514616 -0.0233568 -5.58225e-20)
(0.743951 -0.363058 5.65547e-19)
(0.837059 -0.538874 1.69422e-19)
(0.843196 -0.599771 2.42614e-19)
(0.802224 -0.585526 -2.07041e-19)
(0.755089 -0.541017 7.9792e-20)
(0.665428 -0.529625 -2.35506e-20)
(0.601655 -0.398927 2.80903e-20)
(0.639841 -0.137269 1.46518e-19)
(0.710964 0.136594 5.92801e-20)
(0.740162 0.372822 4.30392e-21)
(0.710234 0.56185 6.70411e-20)
(0.683479 0.639157 -2.08453e-21)
(0.760362 0.404513 1.53214e-20)
(0.917721 0.0597803 6.09936e-20)
(-0.104098 -0.0534775 6.9451e-19)
(-0.147524 0.217008 1.51425e-18)
(-0.127665 0.60647 9.23095e-19)
(-0.0960865 0.657108 -5.51045e-19)
(0.20519 0.390167 -6.03397e-19)
(0.583353 -0.0562913 5.71325e-19)
(0.804147 -0.377831 -2.51025e-19)
(0.882819 -0.538296 6.80933e-20)
(0.879691 -0.587714 1.47659e-19)
(0.827262 -0.571146 3.21739e-19)
(0.779353 -0.519353 1.36618e-19)
(0.695018 -0.503815 -1.54851e-19)
(0.614905 -0.40218 2.59575e-20)
(0.652229 -0.1664 -7.96498e-20)
(0.712386 0.10909 -6.10592e-20)
(0.727069 0.362759 -6.30682e-20)
(0.685158 0.556177 7.99287e-20)
(0.682144 0.627782 -2.03407e-19)
(0.808862 0.382125 2.76051e-20)
(0.977239 0.0439621 -1.00652e-19)
(-0.102112 -0.044838 1.13606e-18)
(-0.143099 0.212177 2.83371e-19)
(-0.124595 0.597901 -9.02346e-19)
(-0.0744332 0.63515 -3.75941e-19)
(0.267786 0.352155 8.02701e-19)
(0.653765 -0.0854306 -9.48862e-19)
(0.863192 -0.387954 3.23999e-19)
(0.927369 -0.533786 2.52911e-19)
(0.913393 -0.572962 -5.59205e-19)
(0.853375 -0.554459 -1.13855e-19)
(0.7998 -0.498992 -2.50618e-20)
(0.724576 -0.47548 1.01953e-19)
(0.628503 -0.402339 -1.01792e-19)
(0.661391 -0.195064 4.17276e-20)
(0.70662 0.0819341 -9.37665e-20)
(0.710792 0.353795 2.13488e-20)
(0.656414 0.544864 -1.47226e-19)
(0.679362 0.601418 1.31358e-19)
(0.854651 0.350975 -9.03055e-20)
(1.03327 0.0328161 -8.76654e-21)
(-0.100319 -0.0367013 -6.6768e-19)
(-0.136868 0.206881 -1.65624e-18)
(-0.118368 0.588246 1.03003e-18)
(-0.0471779 0.611082 8.25501e-19)
(0.336057 0.315173 -9.04396e-19)
(0.72465 -0.11044 4.75546e-19)
(0.920256 -0.393551 -8.73422e-19)
(0.969941 -0.525475 -4.57881e-19)
(0.944281 -0.556063 2.91331e-19)
(0.879827 -0.535336 -1.46204e-19)
(0.817261 -0.479813 1.23308e-19)
(0.75234 -0.446007 6.5565e-20)
(0.645555 -0.397075 -1.02594e-19)
(0.662165 -0.222402 -8.8456e-20)
(0.689585 0.0532769 5.64282e-20)
(0.688222 0.34389 1.21309e-19)
(0.626354 0.529085 2.28318e-20)
(0.679963 0.562818 -2.1696e-20)
(0.900045 0.312217 5.56854e-21)
(1.08359 0.0247834 -1.86049e-20)
(-0.098744 -0.0291702 -7.84294e-19)
(-0.129094 0.201027 1.72845e-18)
(-0.109325 0.577441 -8.42215e-19)
(-0.0147639 0.585013 2.13792e-19)
(0.408731 0.279693 -1.17529e-18)
(0.794773 -0.131145 3.27979e-19)
(0.974616 -0.394806 6.30345e-19)
(1.00977 -0.513661 -3.38636e-20)
(0.972703 -0.537378 -5.04488e-20)
(0.90531 -0.514083 3.42395e-19)
(0.83348 -0.461133 -6.34107e-20)
(0.776258 -0.417241 -1.438e-19)
(0.667455 -0.383862 1.84916e-19)
(0.653259 -0.245767 1.16105e-20)
(0.660608 0.022385 1.59197e-19)
(0.654454 0.329449 -7.70812e-20)
(0.598091 0.507905 8.22093e-20)
(0.69545 0.516179 2.38876e-20)
(0.950199 0.270308 -6.1136e-21)
(1.12661 0.0198015 -2.66347e-20)
(-0.0974203 -0.0223145 3.58521e-19)
(-0.120083 0.194507 -2.34445e-18)
(-0.0978515 0.565403 1.66126e-18)
(0.0225762 0.557137 -1.61515e-18)
(0.484399 0.246078 1.41128e-18)
(0.862965 -0.147525 -1.85765e-19)
(1.02561 -0.391979 -2.33742e-20)
(1.04629 -0.498779 -1.92247e-19)
(0.998995 -0.517102 -1.06225e-19)
(0.928626 -0.491374 -2.30202e-19)
(0.850165 -0.441995 2.12998e-19)
(0.79525 -0.390705 1.62882e-19)
(0.692641 -0.361782 2.646e-20)
(0.639681 -0.2602 7.24877e-20)
(0.621392 -0.0091665 -5.30172e-20)
(0.606764 0.306656 1.23158e-20)
(0.575253 0.476096 -1.70512e-20)
(0.732468 0.46308 1.34131e-20)
(1.00452 0.229559 1.20499e-19)
(1.15951 0.0181612 -6.58162e-20)
(-0.0963933 -0.0161703 -7.23581e-19)
(-0.110202 0.187209 -5.02686e-20)
(-0.0843828 0.55199 -1.32743e-18)
(0.0649039 0.527778 1.06958e-18)
(0.561639 0.214619 -2.09661e-20)
(0.928196 -0.159683 -1.25884e-18)
(1.07265 -0.385408 -4.81183e-19)
(1.07919 -0.481318 3.96692e-19)
(1.02322 -0.495385 1.03135e-19)
(0.949254 -0.467981 1.36115e-19)
(0.868057 -0.421657 -7.67545e-20)
(0.809977 -0.367006 -6.77095e-20)
(0.718101 -0.332841 -7.09789e-20)
(0.631191 -0.259796 -8.93308e-20)
(0.577071 -0.0371201 -9.46103e-20)
(0.551169 0.27361 -7.68482e-20)
(0.566863 0.428975 -3.60108e-20)
(0.788831 0.403914 1.26263e-20)
(1.05691 0.192842 -5.8675e-20)
(1.17938 0.0197054 -4.61749e-20)
(-0.0957091 -0.0107754 6.9777e-19)
(-0.0998794 0.178994 5.36683e-19)
(-0.0694255 0.536944 1.55781e-18)
(0.112522 0.497407 6.21733e-19)
(0.639086 0.185574 -5.1212e-19)
(0.989598 -0.167823 1.57394e-18)
(1.11526 -0.37551 5.75554e-19)
(1.1084 -0.461759 -4.68032e-19)
(1.04518 -0.472452 2.55621e-19)
(0.967453 -0.44447 7.10316e-21)
(0.886633 -0.399998 -1.39165e-19)
(0.822592 -0.345695 4.80058e-20)
(0.741582 -0.301328 4.31248e-20)
(0.636477 -0.241748 4.71306e-20)
(0.541263 -0.0550251 4.14105e-20)
(0.508521 0.232761 2.45089e-20)
(0.590884 0.369588 -4.01627e-21)
(0.858609 0.342803 -1.07268e-20)
(1.10048 0.162374 5.0783e-20)
(1.18507 0.0237904 -1.47614e-19)
(-0.0954224 -0.00614148 -9.53694e-20)
(-0.0896008 0.1697 1.28614e-18)
(-0.0535776 0.519873 -1.06957e-18)
(0.165784 0.466592 -1.90429e-18)
(0.715461 0.159179 -4.08365e-19)
(1.04647 -0.172227 -1.5039e-18)
(1.15313 -0.362749 -7.26219e-19)
(1.13392 -0.440548 1.54458e-19)
(1.06466 -0.448646 -1.43552e-20)
(0.983868 -0.421069 -3.38956e-19)
(0.904643 -0.377582 6.91658e-20)
(0.835637 -0.325565 -3.92213e-20)
(0.762341 -0.271746 -9.65458e-20)
(0.658313 -0.209691 -3.98806e-20)
(0.536121 -0.0562914 -2.21226e-20)
(0.51083 0.191892 -1.10358e-20)
(0.660114 0.308672 -1.06899e-20)
(0.932397 0.286711 1.82012e-20)
(1.129 0.139323 -4.17421e-20)
(1.17749 0.0293723 1.03454e-19)
(-0.095599 -0.00225148 4.49429e-19)
(-0.0799068 0.15915 -3.93791e-19)
(-0.0375099 0.500214 -3.39177e-19)
(0.224863 0.435898 8.17977e-19)
(0.789586 0.135646 6.5887e-19)
(1.09827 -0.173236 1.21208e-19)
(1.18611 -0.347617 -7.67438e-20)
(1.15582 -0.418103 3.50195e-19)
(1.0816 -0.42436 2.86464e-19)
(0.998997 -0.397784 -2.58867e-19)
(0.921117 -0.355279 -1.54458e-20)
(0.850561 -0.305377 8.14732e-20)
(0.781193 -0.246679 1.72634e-20)
(0.692203 -0.173633 1.66535e-20)
(0.575858 -0.0415701 7.24855e-21)
(0.575549 0.161864 2.70209e-20)
(0.760694 0.257131 2.17659e-20)
(0.994688 0.240723 -1.34378e-21)
(1.13797 0.12277 -1.40639e-21)
(1.15946 0.0350284 -4.96179e-20)
(-0.0963155 0.000940506 -1.07625e-19)
(-0.0713762 0.147167 6.00842e-19)
(-0.0218645 0.477273 5.2692e-19)
(0.289589 0.40577 -3.9231e-19)
(0.860389 0.115134 -1.97173e-19)
(1.14462 -0.171234 -1.60846e-19)
(1.21422 -0.330602 6.1536e-19)
(1.17421 -0.394828 1.79106e-19)
(1.09615 -0.399941 -1.61645e-19)
(1.01293 -0.374645 -1.50545e-19)
(0.936002 -0.333687 -6.72072e-20)
(0.866967 -0.284846 5.32005e-20)
(0.799984 -0.225633 3.71539e-21)
(0.729041 -0.143922 -3.7632e-21)
(0.647489 -0.0211595 -1.3858e-20)
(0.679101 0.144826 -9.66448e-20)
(0.855313 0.218033 -2.94325e-20)
(1.03041 0.204642 2.05542e-20)
(1.12788 0.109848 1.92472e-20)
(1.13546 0.0392558 2.02135e-20)
(-0.0976583 0.00350983 -1.15161e-18)
(-0.0645802 0.133587 -1.33447e-19)
(-0.00699843 0.450364 2.31353e-19)
(0.35941 0.376473 5.76508e-19)
(0.926927 0.0977188 8.01809e-19)
(1.1853 -0.166634 1.64131e-18)
(1.23756 -0.312178 -1.17243e-18)
(1.18927 -0.371108 -1.14456e-18)
(1.10854 -0.375646 1.5432e-19)
(1.02554 -0.351835 5.91254e-19)
(0.949836 -0.312875 4.94571e-20)
(0.883501 -0.26477 -1.76898e-19)
(0.820268 -0.206601 -1.42014e-20)
(0.763042 -0.123811 -9.01568e-21)
(0.720011 -0.00781896 2.22117e-21)
(0.77217 0.129977 1.62082e-19)
(0.913483 0.185076 -2.37814e-20)
(1.03684 0.173804 -1.28839e-20)
(1.10596 0.0975907 -3.62353e-21)
(1.11055 0.0411942 3.49219e-20)
(-0.099721 0.0055606 8.45254e-19)
(-0.0599969 0.11827 -1.32741e-19)
(0.00746664 0.419085 -1.37936e-18)
(0.433469 0.348096 4.15534e-19)
(0.988409 0.0833773 1.18165e-18)
(1.22023 -0.159859 -1.04486e-18)
(1.25637 -0.292789 1.87424e-18)
(1.20124 -0.347286 -7.90021e-20)
(1.11897 -0.351683 -7.61709e-20)
(1.03681 -0.329575 -6.25975e-19)
(0.962977 -0.292727 3.49875e-20)
(0.899351 -0.245926 4.72479e-20)
(0.841631 -0.188916 3.40081e-20)
(0.794113 -0.110473 5.12088e-22)
(0.774345 -0.00580114 1.45585e-20)
(0.827885 0.108755 -1.08966e-19)
(0.934925 0.152161 -2.10835e-20)
(1.02637 0.145101 7.61026e-21)
(1.0822 0.0851208 6.08734e-22)
(1.08849 0.0410062 -1.21717e-20)
(-0.102597 0.0072209 9.58203e-20)
(-0.0578641 0.101116 -5.72314e-19)
(0.0232003 0.383739 1.50797e-18)
(0.510672 0.320628 -2.90933e-19)
(1.04423 0.0719833 -2.57245e-18)
(1.24947 -0.151334 2.19746e-18)
(1.27096 -0.272841 -1.38505e-18)
(1.21043 -0.323655 2.83352e-19)
(1.1276 -0.328236 -9.0691e-20)
(1.04686 -0.307999 3.10964e-19)
(0.975386 -0.273292 -2.91878e-19)
(0.914538 -0.22841 3.95079e-20)
(0.862435 -0.173146 -1.38772e-20)
(0.82269 -0.100548 -3.64498e-21)
(0.812161 -0.00987939 -4.40154e-20)
(0.85726 0.084212 -3.09776e-20)
(0.940576 0.121202 5.54992e-20)
(1.01405 0.119498 -2.42219e-20)
(1.06269 0.073296 -4.84842e-21)
(1.07042 0.0394148 -3.46797e-22)
(-0.106365 0.00863167 -5.10033e-19)
(-0.0579668 0.0820868 6.70158e-19)
(0.0435182 0.345751 -5.61303e-20)
(0.589698 0.294084 -1.11397e-19)
(1.09398 0.0633219 -9.64644e-19)
(1.27323 -0.141469 2.02281e-18)
(1.2817 -0.252689 -9.16363e-20)
(1.21715 -0.300459 6.24054e-19)
(1.13464 -0.305462 -1.41281e-19)
(1.05583 -0.287177 -2.13993e-19)
(0.986951 -0.254703 1.39333e-19)
(0.92914 -0.212056 -1.11083e-19)
(0.881811 -0.15942 3.5839e-21)
(0.848389 -0.0927227 1.06461e-21)
(0.841935 -0.01464 3.38546e-20)
(0.878409 0.0627903 9.14371e-20)
(0.945153 0.0956159 -3.55065e-20)
(1.00553 0.0980828 3.49563e-20)
(1.04794 0.0627344 8.19257e-21)
(1.05588 0.0369892 4.80342e-22)
(-0.111073 0.00992731 1.47059e-20)
(-0.059392 0.0612712 -7.80637e-19)
(0.0730699 0.307808 -2.2037e-19)
(0.668965 0.268627 3.19973e-19)
(1.13747 0.0571152 2.47055e-18)
(1.29183 -0.130648 -1.31588e-18)
(1.28901 -0.232635 1.39406e-18)
(1.2217 -0.277894 -7.17791e-19)
(1.14026 -0.283473 6.83308e-20)
(1.0638 -0.267173 3.58267e-19)
(0.997681 -0.237005 1.33162e-19)
(0.942998 -0.19681 -4.2063e-20)
(0.899753 -0.14733 -4.12647e-21)
(0.871248 -0.0865458 2.66667e-21)
(0.867287 -0.0187334 -1.64667e-20)
(0.896901 0.0457912 -3.75035e-22)
(0.950587 0.0751881 2.74074e-20)
(0.999906 0.0802657 -1.23643e-20)
(1.03663 0.0533934 -6.72826e-21)
(1.0441 0.0339885 1.92315e-21)
(-0.116717 0.0112069 -3.86594e-19)
(-0.0603266 0.0390084 2.37689e-19)
(0.11655 0.273365 -1.80186e-18)
(0.746649 0.244652 6.51455e-19)
(1.17474 0.0530555 -1.74243e-18)
(1.30567 -0.11922 1.6033e-18)
(1.29333 -0.212925 5.02618e-19)
(1.2244 -0.256109 -5.26195e-19)
(1.14466 -0.262349 1.57693e-19)
(1.07085 -0.248036 -3.36955e-19)
(1.00761 -0.220194 2.39325e-19)
(0.955981 -0.182628 -2.68702e-20)
(0.916321 -0.13651 5.38612e-20)
(0.89152 -0.0814708 3.23914e-21)
(0.888716 -0.0222887 1.96088e-21)
(0.912691 0.0320875 -2.80951e-20)
(0.955898 0.0585896 2.35639e-20)
(0.996164 0.0652763 -2.45358e-20)
(1.02798 0.0451812 -1.25161e-21)
(1.0347 0.0307041 -3.43762e-21)
(-0.123214 0.0124967 1.73031e-18)
(-0.0580059 0.0160918 6.80129e-19)
(0.176733 0.24549 1.26569e-18)
(0.820814 0.222731 -1.82201e-19)
(1.20597 0.0508312 -4.62895e-19)
(1.31525 -0.107485 -1.85127e-18)
(1.29509 -0.193752 -8.94758e-19)
(1.22554 -0.23521 6.90511e-20)
(1.14799 -0.242142 -1.7148e-20)
(1.07706 -0.229786 1.25118e-19)
(1.01674 -0.20426 -1.48668e-19)
(0.968052 -0.169415 -4.84618e-20)
(0.931496 -0.126741 -5.92348e-20)
(0.909492 -0.0771004 -3.28366e-21)
(0.906973 -0.0252531 9.7025e-21)
(0.926285 0.0210144 -2.68139e-20)
(0.961044 0.0450765 2.44866e-20)
(0.993996 0.0526929 2.59971e-20)
(1.02146 0.038055 1.24142e-20)
(1.02731 0.0273475 -3.33994e-22)
(-0.130387 0.0137086 -1.65004e-18)
(-0.0489127 -0.00601638 -1.68485e-19)
(0.252866 0.225566 -9.18233e-19)
(0.889653 0.203406 -1.72181e-18)
(1.23153 0.0501392 -1.06095e-18)
(1.32109 -0.0956962 2.61455e-18)
(1.2947 -0.175257 -6.43784e-19)
(1.22539 -0.215267 1.08147e-18)
(1.15041 -0.22288 1.72539e-19)
(1.08249 -0.212425 1.76821e-20)
(1.02509 -0.189181 1.26529e-20)
(0.979203 -0.157074 9.13322e-20)
(0.945322 -0.117835 4.959e-20)
(0.925433 -0.0731843 -2.10575e-21)
(0.922741 -0.027578 -2.84653e-21)
(0.938167 0.0121429 5.61085e-21)
(0.966001 0.0341023 -3.84828e-20)
(0.993064 0.0421582 -1.3793e-20)
(1.01655 0.0319093 6.80634e-22)
(1.02157 0.0240566 2.1318e-21)
(-0.137956 0.0146027 7.86844e-19)
(-0.0292957 -0.0251255 -3.05547e-19)
(0.340515 0.212766 2.08664e-19)
(0.951746 0.186955 1.65059e-18)
(1.25185 0.0506914 2.06366e-19)
(1.32377 -0.0840552 -1.20276e-18)
(1.29255 -0.157536 -3.53061e-19)
(1.22419 -0.196318 -5.23037e-19)
(1.15206 -0.204571 -3.07249e-19)
(1.08723 -0.195944 1.03043e-19)
(1.03269 -0.174923 4.73825e-21)
(0.989438 -0.145523 -6.38208e-20)
(0.957873 -0.109633 -4.24068e-20)
(0.939576 -0.0695479 6.40882e-21)
(0.936447 -0.0293015 5.35404e-21)
(0.948586 0.00506586 -2.52767e-20)
(0.97072 0.0251946 3.55982e-21)
(0.993075 0.0333559 -3.54585e-22)
(1.01286 0.0266286 -1.63827e-20)
(1.01724 0.0209448 1.21029e-21)
(-0.14555 0.0147717 7.18544e-19)
(0.0040039 -0.0386146 1.83765e-19)
(0.433244 0.204669 7.95781e-19)
(1.00627 0.173298 -1.11457e-18)
(1.26746 0.0522215 -4.46751e-20)
(1.3238 -0.0727143 -4.1722e-19)
(1.289 -0.140649 5.7869e-19)
(1.22215 -0.178375 5.77691e-19)
(1.15305 -0.187206 -1.03853e-19)
(1.09132 -0.180325 -2.85424e-19)
(1.03958 -0.161445 -6.4696e-20)
(0.998782 -0.134683 8.85364e-20)
(0.969227 -0.102012 -3.08301e-20)
(0.952133 -0.0660719 -3.46139e-20)
(0.948443 -0.0304661 1.80278e-21)
(0.957775 -0.000519321 1.42206e-21)
(0.975224 0.0179925 9.9388e-21)
(0.993783 0.0260254 3.94983e-21)
(1.01008 0.0221153 -4.08909e-21)
(1.01408 0.0181029 -9.72618e-22)
(-0.152726 0.0136673 -2.06676e-18)
(0.0525855 -0.0441604 -1.34259e-18)
(0.524944 0.198708 4.65911e-19)
(1.05308 0.162109 1.09404e-18)
(1.27892 0.0545 -1.75536e-19)
(1.32169 -0.0617801 5.89927e-19)
(1.28435 -0.124624 7.94855e-19)
(1.21945 -0.161431 -1.87945e-19)
(1.15347 -0.170764 4.76879e-19)
(1.09482 -0.165538 3.68757e-19)
(1.04578 -0.148705 1.53922e-19)
(1.00727 -0.124486 1.51246e-20)
(0.979469 -0.0948732 9.65782e-21)
(0.963291 -0.0626797 4.22871e-20)
(0.958998 -0.0311248 -3.47149e-22)
(0.965917 -0.00485018 1.68978e-20)
(0.979529 0.0121902 -1.10634e-20)
(0.994959 0.0199431 -1.36963e-20)
(1.00802 0.0182967 6.42746e-21)
(1.01196 0.0155693 4.64233e-21)
(-0.158978 0.0106931 7.01985e-19)
(0.115792 -0.0406285 1.13492e-18)
(0.611366 0.193364 4.11743e-19)
(1.09258 0.152996 -1.76125e-18)
(1.28682 0.0573421 2.67436e-19)
(1.31788 -0.0513194 9.12e-20)
(1.27887 -0.109463 -5.95153e-19)
(1.21624 -0.145462 -7.20726e-19)
(1.15342 -0.155214 -3.95734e-20)
(1.09779 -0.151552 -2.31251e-19)
(1.05132 -0.13666 -2.15284e-19)
(1.01494 -0.114872 1.77571e-19)
(0.988682 -0.0881354 3.81993e-21)
(0.973214 -0.0593263 -5.15423e-20)
(0.968322 -0.0313296 -2.65743e-21)
(0.973159 -0.00812416 -3.48453e-21)
(0.983645 0.00752537 1.87973e-20)
(0.996405 0.0149454 9.06462e-21)
(1.00659 0.0151028 -3.12443e-21)
(1.01081 0.0133069 -7.6078e-21)
(-0.163731 0.00539031 8.00601e-19)
(0.190705 -0.0286814 -3.87793e-19)
(0.690351 0.188283 -9.43356e-19)
(1.12553 0.145615 -5.46408e-19)
(1.29169 0.060606 1.91018e-19)
(1.31277 -0.0413663 -2.70553e-19)
(1.27279 -0.0951522 6.6854e-19)
(1.21264 -0.130435 7.39946e-20)
(1.15296 -0.140522 -1.92386e-19)
(1.10027 -0.138332 2.58381e-19)
(1.05626 -0.125266 3.15736e-20)
(1.02185 -0.105787 -1.16157e-19)
(0.996949 -0.0817361 7.87945e-20)
(0.982041 -0.0559867 5.74136e-20)
(0.976585 -0.031125 1.28752e-20)
(0.979628 -0.0105135 2.02023e-21)
(0.98757 0.0037927 -8.39941e-21)
(0.997965 0.0109222 3.40469e-21)
(1.00576 0.0124108 -1.95264e-21)
(1.01055 0.0112582 1.06982e-21)
(-0.166346 -0.00227649 -1.00815e-18)
(0.273012 -0.0107562 1.3506e-18)
(0.761163 0.183721 1.9196e-19)
(1.15274 0.139689 8.6275e-19)
(1.29405 0.0641849 6.50313e-19)
(1.30668 -0.031931 -5.97639e-19)
(1.2663 -0.0816612 -7.21212e-19)
(1.20877 -0.116308 1.99287e-19)
(1.15216 -0.126647 1.50137e-19)
(1.10229 -0.125838 -7.31993e-20)
(1.06061 -0.114482 8.81691e-20)
(1.02803 -0.0971834 7.37499e-20)
(1.00435 -0.0756267 -6.39758e-20)
(0.989896 -0.0526482 -2.81761e-21)
(0.983923 -0.0305535 -6.37521e-22)
(0.985427 -0.0121731 -4.52729e-21)
(0.991284 0.000852126 -5.32072e-22)
(0.999548 0.00776131 4.05787e-21)
(1.00553 0.0100599 -2.4633e-21)
(1.01093 0.00957484 3.75567e-21)
(-0.166142 -0.0118049 1.03608e-18)
(0.357998 0.00978948 -1.41999e-18)
(0.823817 0.179974 -1.42741e-19)
(1.17502 0.134985 -8.15247e-19)
(1.29435 0.0679972 -6.747e-19)
(1.29989 -0.0230063 -3.86987e-19)
(1.25953 -0.0689526 -5.78372e-20)
(1.20469 -0.103035 3.04066e-19)
(1.15107 -0.113545 -1.37092e-19)
(1.1039 -0.114033 -1.99056e-19)
(1.06442 -0.104268 1.17724e-19)
(1.03354 -0.0890211 -7.76349e-20)
(1.01095 -0.0697701 1.31348e-20)
(0.996885 -0.0493048 1.53363e-20)
(0.99045 -0.0296579 -3.62641e-22)
(0.990642 -0.013231 6.91882e-22)
(0.994764 -0.0013929 -1.65078e-21)
(1.00114 0.00530717 -2.30792e-21)
(1.00587 0.00800631 2.84014e-21)
(1.01146 0.0085851 -3.88411e-21)
(-0.162214 -0.0221774 -8.5169e-19)
(0.441737 0.0298372 4.19813e-19)
(0.878708 0.177149 9.70798e-19)
(1.19307 0.131304 4.45734e-19)
(1.29298 0.0719817 -9.57777e-20)
(1.2926 -0.0145731 1.1642e-18)
(1.25262 -0.0569821 1.84564e-19)
(1.20048 -0.0905671 -1.15283e-19)
(1.14972 -0.101173 1.87859e-19)
(1.10514 -0.102878 -1.25055e-20)
(1.06772 -0.0945876 -4.30286e-20)
(1.03842 -0.0812635 1.23525e-19)
(1.01682 -0.0641379 -7.23999e-20)
(1.0031 -0.0459553 -7.86331e-20)
(0.996259 -0.0284815 -1.88403e-20)
(0.995341 -0.0137871 5.91933e-21)
(0.998001 -0.003033 -1.49953e-22)
(1.00278 0.00340482 2.13719e-22)
(1.00664 0.0064466 1.71568e-21)
(1.01035 0.00718901 3.80073e-21)
(-0.153529 -0.0318536 -6.98512e-19)
(0.521716 0.0472907 -1.15169e-18)
(0.926493 0.175222 -1.72711e-18)
(1.20752 0.128481 1.55922e-18)
(1.29026 0.0760917 1.05465e-18)
(1.28502 -0.00660627 -1.06269e-18)
(1.24565 -0.0457042 5.00671e-19)
(1.19618 -0.0788556 8.78126e-20)
(1.14816 -0.0894887 -2.77185e-19)
(1.10602 -0.0923354 1.97841e-19)
(1.07056 -0.0854051 6.60076e-20)
(1.04272 -0.073879 -1.84782e-19)
(1.02203 -0.0587083 8.75742e-20)
(1.00862 -0.0426015 8.30791e-20)
(1.00143 -0.0270643 -8.3543e-21)
(0.999577 -0.0139214 7.93351e-21)
(1.00101 -0.0041614 4.54253e-21)
(1.00448 0.00200589 1.09634e-21)
(1.00721 0.00513326 7.77823e-22)
(1.01057 0.00624738 -2.91153e-21)
(-0.139036 -0.0389227 1.39187e-19)
(0.596813 0.0613203 -8.56629e-19)
(0.967979 0.174151 -8.80988e-19)
(1.21889 0.126387 -1.7458e-18)
(1.28648 0.0802941 -9.93438e-19)
(1.27726 0.000924349 4.69976e-19)
(1.2387 -0.0350715 -6.30503e-19)
(1.19184 -0.0678509 1.13725e-19)
(1.1464 -0.0784496 -1.00007e-20)
(1.10659 -0.0823691 -3.3562e-19)
(1.07295 -0.0766883 -1.16459e-19)
(1.04649 -0.0668402 -1.95141e-20)
(1.02663 -0.0534647 -1.03687e-20)
(1.01351 -0.039248 -2.64035e-20)
(1.00603 -0.0254439 2.72836e-20)
(1.0034 -0.0137023 -1.79967e-20)
(1.00379 -0.00484339 -5.34054e-21)
(1.00607 0.000991797 -1.26602e-21)
(1.00819 0.00413913 6.46637e-23)
(1.0104 0.00557068 -1.57091e-22)
(-0.117773 -0.0413555 1.24417e-18)
(0.666821 0.0721405 8.62905e-19)
(1.004 0.173935 5.40546e-19)
(1.22764 0.12492 9.68633e-19)
(1.28186 0.0845647 1.91014e-20)
(1.26946 0.00805047 2.63591e-19)
(1.23181 -0.0250374 2.70656e-19)
(1.18749 -0.0575055 -3.88575e-19)
(1.14448 -0.0680151 5.98606e-20)
(1.10686 -0.0729444 5.42991e-20)
(1.07493 -0.0684072 4.31136e-20)
(1.04976 -0.0601229 9.31771e-20)
(1.03067 -0.048394 3.45367e-20)
(1.01784 -0.0359003 1.33382e-20)
(1.01012 -0.0236545 -3.85481e-20)
(1.00684 -0.0131822 5.08653e-22)
(1.00634 -0.00515586 2.77308e-21)
(1.00772 0.000317273 6.32009e-22)
(1.009 0.00346396 5.97094e-22)
(1.01065 0.0049966 7.30499e-23)
(-0.0890037 -0.0372769 -7.29582e-19)
(0.73191 0.0805522 2.86659e-19)
(1.03534 0.174596 -1.38968e-19)
(1.23416 0.123998 4.37081e-20)
(1.2766 0.0888858 -1.15806e-19)
(1.26168 0.0148042 -1.2119e-19)
(1.22503 -0.0155574 -3.95612e-19)
(1.18313 -0.0477735 -9.13273e-20)
(1.14241 -0.0581463 -4.91874e-20)
(1.10687 -0.064028 1.15538e-19)
(1.07654 -0.0605339 -2.80272e-21)
(1.05257 -0.053706 6.56424e-20)
(1.03421 -0.0434859 -5.25234e-20)
(1.02165 -0.0325654 4.63404e-20)
(1.01375 -0.0217254 -1.07487e-20)
(1.00993 -0.0124105 2.92874e-20)
(1.0087 -0.00515583 -1.36458e-20)
(1.00924 -4.28753e-05 3.61751e-23)
(1.00995 0.00298188 -1.07085e-21)
(1.01096 0.0046923 6.57498e-22)
(-0.0523825 -0.0252505 1.60016e-18)
(0.792253 0.0875172 1.36211e-19)
(1.06262 0.176159 9.66076e-19)
(1.23876 0.123558 -4.27428e-20)
(1.27085 0.0932438 6.35307e-19)
(1.25399 0.0212166 -6.14408e-19)
(1.21836 -0.00658938 3.8578e-19)
(1.1788 -0.0386115 -1.89322e-19)
(1.14022 -0.0488065 1.27228e-19)
(1.10662 -0.0555889 1.85025e-19)
(1.0778 -0.0530429 -1.88369e-20)
(1.05496 -0.0475707 -7.76735e-20)
(1.03728 -0.0387322 -8.21405e-20)
(1.02501 -0.0292501 1.17398e-20)
(1.01696 -0.0196833 -8.9025e-21)
(1.0127 -0.0114282 -1.35098e-20)
(1.01085 -0.00488433 -5.42316e-21)
(1.01072 -0.000167147 3.91012e-21)
(1.01085 0.00277174 1.71572e-22)
(1.01135 0.00448265 -1.11465e-22)
(-0.00811193 -0.00457427 2.10632e-19)
(0.847857 0.0938848 4.67283e-19)
(1.08637 0.17862 -1.09916e-18)
(1.24171 0.123542 9.30961e-20)
(1.26473 0.0976273 -9.57922e-19)
(1.24643 0.0273171 1.4627e-19)
(1.21184 0.00190602 4.2497e-19)
(1.1745 -0.0299785 3.12671e-20)
(1.13791 -0.0399613 2.53573e-19)
(1.10615 -0.0475975 -5.82786e-20)
(1.07873 -0.0459105 -4.36506e-20)
(1.05696 -0.0417004 5.76309e-20)
(1.03993 -0.0341264 -2.1597e-20)
(1.02793 -0.0259616 1.90769e-20)
(1.0198 -0.0175517 7.74986e-21)
(1.01518 -0.0102685 -1.35379e-20)
(1.0128 -0.00439444 1.17616e-20)
(1.0121 -4.5735e-05 -7.49145e-21)
(1.01174 0.00270869 1.32506e-21)
(1.01185 0.00446153 5.73976e-22)
(0.0429425 0.024445 -1.42323e-18)
(0.898565 0.100261 -2.90348e-19)
(1.10695 0.181937 1.6525e-19)
(1.24323 0.123899 -4.52876e-19)
(1.25834 0.102026 8.4797e-19)
(1.23904 0.0331328 7.39027e-19)
(1.20546 0.00996491 -2.42531e-19)
(1.17023 -0.0218364 2.39575e-19)
(1.13549 -0.0315784 -3.23798e-19)
(1.10547 -0.0400263 1.65938e-20)
(1.07937 -0.0391149 1.06504e-19)
(1.0586 -0.0360804 2.97796e-20)
(1.04218 -0.0296631 2.69561e-20)
(1.03047 -0.0227068 3.14621e-20)
(1.02228 -0.0153506 -4.9667e-20)
(1.01739 -0.00896504 1.46168e-20)
(1.01457 -0.00370703 -7.65258e-21)
(1.01339 0.000249034 9.61876e-21)
(1.01262 0.00283975 6.39386e-23)
(1.01233 0.00455705 -2.45353e-22)
(0.0992373 0.0603228 -2.83671e-20)
(0.94415 0.106964 8.45204e-19)
(1.12467 0.186022 -5.57002e-19)
(1.24353 0.124581 -1.81688e-19)
(1.25175 0.106429 -1.8573e-19)
(1.23183 0.0386883 -1.68229e-19)
(1.19922 0.0176204 -5.82253e-19)
(1.166 -0.0141496 -3.45481e-20)
(1.13298 -0.0236279 -1.92384e-20)
(1.1046 -0.0328494 -2.06887e-19)
(1.07972 -0.0326361 -1.00086e-19)
(1.05992 -0.0306974 -4.57756e-20)
(1.04408 -0.0253378 1.18912e-20)
(1.03266 -0.0194921 -4.17133e-20)
(1.02445 -0.0130986 2.61912e-20)
(1.01934 -0.00754071 7.44265e-21)
(1.01617 -0.00286509 2.06302e-21)
(1.01458 0.000720637 -1.40939e-21)
(1.01343 0.00310005 6.42014e-22)
(1.01286 0.00477637 -3.52575e-22)
(0.158687 0.100445 4.37868e-19)
(0.984429 0.114045 -6.98092e-19)
(1.13975 0.190754 1.50599e-20)
(1.24278 0.125545 7.71305e-20)
(1.24503 0.110825 -5.40265e-19)
(1.2248 0.0440059 -1.41303e-19)
(1.19313 0.0249025 9.1605e-20)
(1.16181 -0.00688539 5.98595e-20)
(1.13039 -0.0160821 8.73997e-20)
(1.10355 -0.0260426 -6.73309e-20)
(1.07983 -0.0264558 -7.93425e-20)
(1.06093 -0.0255396 -7.89352e-20)
(1.04565 -0.0211468 4.53248e-20)
(1.03453 -0.0163235 -2.16927e-20)
(1.02633 -0.0108111 2.56864e-20)
(1.02106 -0.00602164 9.44106e-21)
(1.0176 -0.00188441 -9.1896e-21)
(1.01567 0.00132282 4.2354e-23)
(1.01422 0.00349179 9.62209e-22)
(1.01336 0.00510709 -2.03536e-22)
(0.218961 0.141424 -1.12105e-19)
(1.01937 0.121346 5.5071e-19)
(1.1524 0.19598 3.60667e-19)
(1.24113 0.126749 -4.10567e-19)
(1.23823 0.115205 9.78266e-19)
(1.21796 0.0491052 -9.42604e-20)
(1.18718 0.0318385 4.89269e-19)
(1.15766 -1.33897e-05 -7.44573e-20)
(1.12772 -0.00891542 2.86876e-20)
(1.10234 -0.0195836 1.81411e-19)
(1.07969 -0.0205572 1.79882e-19)
(1.06167 -0.0205962 5.50914e-20)
(1.04692 -0.0170869 -4.73313e-20)
(1.03609 -0.0132064 2.79246e-20)
(1.02794 -0.00850267 7.44498e-21)
(1.02256 -0.00442502 -3.68969e-20)
(1.01886 -0.00079553 -4.1615e-21)
(1.01666 0.00204539 2.80461e-21)
(1.01494 0.00399335 -2.18712e-21)
(1.01385 0.00551932 1.07697e-22)
(0.277891 0.179743 1.01067e-18)
(1.04917 0.128599 6.05288e-20)
(1.16281 0.201544 -5.24274e-19)
(1.23874 0.128156 -2.12121e-19)
(1.23139 0.119559 -4.43561e-19)
(1.21132 0.0540041 -2.79798e-19)
(1.18135 0.0384528 -1.35082e-19)
(1.15355 0.0064942 2.6981e-20)
(1.12497 -0.00210441 3.79493e-20)
(1.10098 -0.0134513 -3.75965e-20)
(1.07934 -0.014925 -1.28566e-19)
(1.06214 -0.0158574 -2.39492e-20)
(1.04792 -0.0131552 -4.02105e-20)
(1.03739 -0.0101458 -1.12184e-20)
(1.0293 -0.0061851 -3.63879e-20)
(1.02385 -0.00277034 2.27218e-20)
(1.01996 0.000385827 1.31301e-20)
(1.01754 0.00286407 -8.9165e-22)
(1.0156 0.0045833 -4.85484e-22)
(1.01428 0.00602032 -1.48966e-22)
(0.333853 0.212524 -2.37791e-18)
(1.07426 0.135535 6.80131e-20)
(1.17117 0.207299 -1.79517e-19)
(1.23572 0.129734 2.82228e-19)
(1.22453 0.123876 -2.76671e-19)
(1.20485 0.058718 7.28614e-19)
(1.17565 0.0447676 -9.20103e-20)
(1.14947 0.0126629 3.92254e-19)
(1.12216 0.00437256 -9.08265e-20)
(1.09948 -0.00762658 -8.95227e-20)
(1.07879 -0.00954507 -3.63675e-20)
(1.06238 -0.0113144 4.59167e-20)
(1.04865 -0.00934941 2.86513e-20)
(1.03843 -0.00714598 -2.51214e-22)
(1.03043 -0.00386967 1.47355e-20)
(1.02495 -0.00107149 -6.37234e-21)
(1.02092 0.00163935 -4.16956e-21)
(1.01831 0.00376124 -5.74638e-21)
(1.01618 0.00525868 1.83165e-21)
(1.01468 0.00657534 2.91088e-22)
(0.385985 0.238121 9.4713e-20)
(1.09524 0.141967 -5.49675e-19)
(1.17767 0.213124 4.00761e-19)
(1.2322 0.131459 2.05253e-19)
(1.21769 0.128151 1.20291e-19)
(1.19854 0.0632611 -2.78932e-19)
(1.17006 0.0508025 2.56542e-19)