/*--------------------------------*- C++ -*----------------------------------*\
  =========                 |
  \\      /  F ield         | OpenFOAM: The Open Source CFD Toolbox
   \\    /   O peration     | Website:  https://openfoam.org
    \\  /    A nd           | Version:  7
     \\/     M anipulation  |
\*---------------------------------------------------------------------------*/
FoamFile
{
    version     2.0;
    format      ascii;
    class       volVectorField;
    location    "106";
    object      U;
}
// * * * * * * * * * * * * * * * * * * * * * * * * * * * * * * * * * * * * * //

dimensions      [0 1 -1 0 0 0 0];

internalField   nonuniform List<vector> 
15200
(
(-0.27258 0.158476 -1.84746e-19)
(0.324352 -0.505392 -1.09713e-19)
(0.134388 -0.807438 -1.38695e-19)
(0.150322 -0.745044 -8.29674e-20)
(0.277849 -0.321667 6.05345e-20)
(0.565377 0.229535 -6.7035e-20)
(0.692081 0.508418 -2.32392e-20)
(0.728341 0.611287 4.25829e-20)
(0.644415 0.71996 8.98442e-21)
(0.609599 0.541559 -2.64928e-21)
(0.730389 0.105444 -5.76909e-21)
(0.868496 -0.203595 -9.37348e-21)
(0.900813 -0.4741 2.59969e-20)
(0.843079 -0.636323 -8.07832e-21)
(0.832038 -0.498887 -1.56869e-20)
(-0.284579 0.146857 -3.18871e-19)
(0.370563 -0.525096 -5.19421e-19)
(0.173653 -0.794481 3.77516e-19)
(0.196994 -0.751459 -1.39413e-19)
(0.2381 -0.374928 -2.8173e-20)
(0.510019 0.177736 1.42817e-19)
(0.653979 0.477627 -1.20754e-20)
(0.686837 0.615841 4.89537e-20)
(0.602923 0.734295 -1.22025e-20)
(0.598108 0.523207 5.3703e-21)
(0.755976 0.060938 2.08107e-20)
(0.893863 -0.235156 3.20836e-21)
(0.952065 -0.463512 -6.46019e-21)
(0.869362 -0.617801 3.8509e-21)
(0.809795 -0.506964 -2.62891e-20)
(-0.295588 0.133458 9.09861e-19)
(0.420039 -0.543269 7.31936e-19)
(0.214858 -0.780254 -6.08844e-20)
(0.256086 -0.749286 3.81846e-19)
(0.22066 -0.421241 -2.49701e-19)
(0.47251 0.120595 1.08631e-19)
(0.619769 0.442314 4.11197e-20)
(0.648442 0.617916 3.84622e-21)
(0.557921 0.742051 -7.24035e-20)
(0.615955 0.500114 -6.78946e-20)
(0.816962 0.0240034 1.13355e-19)
(0.921347 -0.263873 3.0046e-20)
(1.0024 -0.446953 -2.50154e-20)
(0.882352 -0.579929 -2.08588e-20)
(0.776824 -0.499139 2.62111e-20)
(-0.304837 0.118329 -9.92405e-19)
(0.472268 -0.559895 5.16297e-19)
(0.258225 -0.765501 6.43034e-20)
(0.323684 -0.739337 -2.74496e-19)
(0.221277 -0.4592 3.08764e-19)
(0.450872 0.0612026 -1.47772e-19)
(0.592786 0.404856 -4.78674e-20)
(0.608877 0.618498 2.36244e-19)
(0.512876 0.738439 1.76334e-19)
(0.657814 0.466634 8.23198e-20)
(0.90026 0.00134575 -3.8683e-20)
(0.957459 -0.282631 -9.19373e-20)
(1.04364 -0.423069 4.16186e-20)
(0.886305 -0.523055 5.26921e-20)
(0.745873 -0.475557 -7.81365e-20)
(-0.311379 0.101655 1.87312e-18)
(0.526689 -0.574981 -1.05677e-18)
(0.304062 -0.750476 -9.33892e-19)
(0.393489 -0.722296 -1.14425e-19)
(0.230795 -0.488921 -3.06475e-19)
(0.441401 0.00146867 -1.60195e-19)
(0.572414 0.367631 1.20152e-19)
(0.563295 0.617303 -2.39636e-19)
(0.476934 0.718896 -1.19781e-19)
(0.709934 0.418475 -1.74896e-20)
(0.981501 -0.0134086 -1.44933e-19)
(1.00741 -0.286238 6.77044e-20)
(1.06971 -0.392968 -1.33388e-19)
(0.889359 -0.452083 -5.13608e-20)
(0.733165 -0.434543 1.73654e-19)
(-0.31405 0.0837877 -1.28939e-18)
(0.582764 -0.588559 2.5059e-19)
(0.35271 -0.734823 9.57071e-19)
(0.459168 -0.699099 2.98893e-19)
(0.245211 -0.510777 8.4183e-20)
(0.43839 -0.058074 2.00272e-19)
(0.552197 0.331719 -4.16083e-20)
(0.510406 0.611612 -6.07842e-20)
(0.458235 0.682819 -5.71818e-20)
(0.771224 0.360641 6.42218e-20)
(1.04763 -0.0271054 1.7078e-19)
(1.06691 -0.27327 1.44998e-19)
(1.08107 -0.358538 6.23232e-20)
(0.898539 -0.375761 -3.60317e-21)
(0.756802 -0.374617 -3.05494e-20)
(-0.311434 0.0652735 -9.15118e-19)
(0.64006 -0.600654 -3.21316e-19)
(0.404293 -0.717786 -8.217e-19)
(0.517034 -0.671309 2.27224e-19)
(0.269182 -0.522965 -1.507e-19)
(0.432621 -0.118208 1.36313e-19)
(0.523605 0.295982 6.83071e-20)
(0.450137 0.597307 8.17713e-20)
(0.463696 0.633909 1.40406e-19)
(0.849915 0.304796 2.86145e-21)
(1.10209 -0.0392098 -1.09062e-19)
(1.12317 -0.246551 -3.31922e-20)
(1.0844 -0.320757 1.23596e-19)
(0.914415 -0.306885 -4.49583e-20)
(0.822392 -0.299648 -3.43613e-20)
(-0.301826 0.0468982 -4.49836e-19)
(0.698253 -0.611215 5.05866e-19)
(0.458506 -0.698609 1.07898e-19)
(0.566911 -0.641044 2.64207e-19)
(0.309603 -0.521051 1.45412e-19)
(0.415371 -0.178205 -4.80185e-19)
(0.478307 0.257514 5.08979e-20)
(0.382307 0.569036 6.25874e-20)
(0.500935 0.573576 -1.4999e-19)
(0.942107 0.2575 -4.42988e-20)
(1.15132 -0.0449704 -1.00607e-19)
(1.16252 -0.21196 2.50087e-20)
(1.08667 -0.278226 -4.47458e-20)
(0.935466 -0.255606 -8.89421e-22)
(0.90128 -0.22868 1.97514e-20)
(-0.283209 0.0297339 -1.47467e-19)
(0.757064 -0.62006 -2.84643e-19)
(0.51466 -0.67682 1.22657e-18)
(0.610941 -0.610451 -1.9359e-19)
(0.366863 -0.500969 7.24489e-20)
(0.386939 -0.230649 2.54016e-19)
(0.409083 0.212884 -1.22794e-19)
(0.316375 0.520539 -2.28365e-20)
(0.576832 0.501489 2.47269e-20)
(1.03146 0.217063 1.11784e-19)
(1.19357 -0.0408026 4.0367e-20)
(1.18 -0.176058 -1.66073e-19)
(1.09026 -0.232283 7.01037e-21)
(0.964191 -0.213961 2.14832e-20)
(0.943106 -0.182361 -2.27151e-20)
(-0.253299 0.0151765 -2.97089e-18)
(0.816177 -0.626834 -1.85496e-18)
(0.571932 -0.652286 -5.60448e-19)
(0.651952 -0.581043 3.05762e-19)
(0.433745 -0.463656 -1.33005e-19)
(0.362612 -0.261949 8.25663e-20)
(0.321321 0.158879 5.71783e-20)
(0.28689 0.452646 5.14685e-20)
(0.691614 0.425401 9.83345e-20)
(1.10643 0.18372 -1.32987e-19)
(1.22024 -0.0281952 -1.18722e-19)
(1.18141 -0.140577 9.5789e-20)
(1.09383 -0.190566 -5.0663e-20)
(0.996172 -0.17004 6.94722e-20)
(0.947831 -0.156555 1.75299e-20)
(-0.2097 0.00493488 5.63555e-18)
(0.875159 -0.630998 -4.30323e-19)
(0.629552 -0.625152 -3.72433e-19)
(0.692365 -0.553257 -6.91542e-19)
(0.501706 -0.416331 2.07687e-19)
(0.366846 -0.260436 2.6585e-19)
(0.255225 0.102165 -1.27168e-19)
(0.345189 0.379609 2.73934e-20)
(0.827695 0.357667 -4.33306e-20)
(1.1612 0.161289 -1.83376e-19)
(1.22572 -0.0123027 1.60747e-19)
(1.17452 -0.10594 5.28044e-21)
(1.09491 -0.154675 -4.51231e-20)
(1.01173 -0.132758 -7.78322e-20)
(0.960011 -0.129486 -1.61544e-20)
(-0.150281 0.000903832 -1.45486e-18)
(0.933382 -0.631863 1.58952e-18)
(0.686866 -0.595745 -3.04678e-20)
(0.733385 -0.526465 2.47986e-20)
(0.565278 -0.369005 -2.68283e-19)
(0.416301 -0.226577 -1.96655e-19)
(0.275814 0.0683582 3.42367e-20)
(0.499175 0.322132 -9.66516e-21)
(0.951528 0.305314 -5.95089e-21)
(1.18826 0.148186 3.53238e-20)
(1.21338 0.00370636 -3.36616e-20)
(1.1617 -0.0759 3.95068e-20)
(1.09169 -0.121224 8.63144e-20)
(1.01505 -0.107393 5.74818e-20)
(0.983301 -0.100571 2.38745e-20)
(-0.0738218 0.00482743 1.86814e-18)
(0.989975 -0.628693 -2.19958e-19)
(0.743299 -0.56443 8.61531e-19)
(0.774518 -0.499702 3.53923e-20)
(0.62214 -0.329345 -1.1241e-19)
(0.50132 -0.17737 1.04993e-19)
(0.404193 0.0739489 -3.24244e-20)
(0.683605 0.286347 5.48098e-21)
(1.03309 0.267208 6.03138e-20)
(1.18537 0.138569 8.76201e-20)
(1.19067 0.0179203 -1.79856e-20)
(1.14378 -0.0519747 1.49275e-20)
(1.08514 -0.0929483 1.22981e-19)
(1.02267 -0.0851832 -4.92775e-20)
(0.996484 -0.0806152 -9.20969e-21)
(0.0191048 0.0176972 2.56259e-18)
(1.04382 -0.620888 3.21492e-18)
(0.798247 -0.531497 -7.29543e-19)
(0.814237 -0.472784 8.55842e-19)
(0.673514 -0.298233 -4.48731e-20)
(0.591107 -0.135645 -1.23615e-19)
(0.572082 0.0975251 4.98282e-20)
(0.82143 0.259887 -2.77492e-20)
(1.06365 0.235236 7.74278e-23)
(1.16224 0.128363 -1.14133e-19)
(1.16333 0.0281219 -1.00897e-19)
(1.12518 -0.0331422 -1.33507e-19)
(1.07892 -0.0703506 -1.07717e-19)
(1.02841 -0.0658178 -1.80311e-20)
(1.00351 -0.0647337 3.80163e-21)
(0.12532 0.0389849 -6.4247e-18)
(1.09367 -0.608224 -5.65973e-18)
(0.850978 -0.497231 6.4236e-20)
(0.851443 -0.446294 -5.71241e-19)
(0.722396 -0.271861 -4.10313e-19)
(0.66562 -0.111552 1.01823e-19)
(0.696562 0.10532 -1.42815e-20)
(0.887803 0.226897 -1.44795e-20)
(1.05851 0.202372 6.63499e-21)
(1.13271 0.116546 5.05539e-20)
(1.13666 0.0341352 1.71048e-19)
(1.10884 -0.0187384 9.59128e-20)
(1.07257 -0.0514724 7.54761e-20)
(1.02944 -0.051568 2.41032e-20)
(1.01158 -0.050445 2.83478e-20)
(0.23888 0.0660886 -8.34815e-19)
(1.13834 -0.591039 4.45262e-18)
(0.900702 -0.462027 -3.2702e-19)
(0.885961 -0.420663 1.06237e-18)
(0.768574 -0.248009 3.95352e-19)
(0.723179 -0.100469 -8.12909e-20)
(0.764968 0.0905949 3.00926e-21)
(0.910968 0.186366 2.97222e-20)
(1.04272 0.170338 5.36093e-22)
(1.10599 0.104075 -9.94355e-21)
(1.11391 0.0374793 -1.02105e-19)
(1.09443 -0.00805973 -8.85564e-20)
(1.06561 -0.036481 -8.71739e-20)
(1.031 -0.0394083 -5.88603e-20)
(1.01662 -0.0395643 -1.15603e-20)
(0.352134 0.0945745 4.36576e-18)
(1.17699 -0.570259 2.00318e-18)
(0.946746 -0.426381 -2.38511e-19)
(0.917884 -0.396016 -1.62642e-18)
(0.810068 -0.226528 -1.16545e-19)
(0.769628 -0.0946626 -3.49225e-20)
(0.807416 0.0691698 -1.86485e-21)
(0.922757 0.149041 5.95949e-21)
(1.0294 0.14273 -7.18523e-21)
(1.08454 0.0922096 -5.11546e-21)
(1.09497 0.0389123 -3.26305e-21)
(1.08194 -0.000199074 3.73092e-20)
(1.05902 -0.0245887 5.14525e-20)
(1.03173 -0.0294107 3.62038e-20)
(1.01965 -0.0302265 -2.013e-20)
(0.457928 0.119507 -4.43934e-18)
(1.20938 -0.547173 -1.57976e-18)
(0.988641 -0.390767 1.68302e-18)
(0.947128 -0.372441 5.03515e-19)
(0.846576 -0.207041 3.34493e-19)
(0.809314 -0.0908769 1.05899e-19)
(0.841397 0.0507254 1.28451e-20)
(0.9332 0.118729 -6.51222e-21)
(1.01972 0.119505 4.52669e-20)
(1.06763 0.0813147 -4.58863e-21)
(1.07927 0.0388126 -6.15718e-20)
(1.07128 0.0055557 4.54674e-20)
(1.05265 -0.0149359 1.66118e-20)
(1.03197 -0.0217549 3.27388e-20)
(1.02141 -0.022211 2.35763e-20)
(0.551853 0.137325 9.66548e-19)
(1.23595 -0.523086 -7.66189e-19)
(1.02612 -0.355553 1.70423e-18)
(0.973721 -0.350006 6.90312e-19)
(0.878712 -0.188906 -1.23058e-19)
(0.843518 -0.0882838 3.07755e-20)
(0.869677 0.0357136 -3.19046e-20)
(0.942608 0.0939786 -8.4625e-21)
(1.01288 0.0998929 -4.64726e-20)
(1.05441 0.0713409 4.25028e-20)
(1.06651 0.0377906 4.29456e-20)
(1.06194 0.00976546 -3.44259e-20)
(1.04711 -0.00757264 -5.90452e-20)
(1.03223 -0.015182 3.29807e-21)
(1.02048 -0.0153155 5.92065e-21)
(0.633125 0.147057 -4.84731e-19)
(1.25763 -0.49903 -1.60913e-18)
(1.05907 -0.320954 -3.89167e-18)
(0.997873 -0.328765 -7.25186e-19)
(0.906955 -0.171821 -2.85067e-19)
(0.873277 -0.0862893 -2.78408e-19)
(0.893518 0.0236604 3.86755e-20)
(0.951387 0.0737937 -7.07346e-21)
(1.00847 0.0834848 2.95449e-20)
(1.04427 0.0624136 -6.11787e-20)
(1.05615 0.0361814 1.11644e-20)
(1.05398 0.0128424 -2.95057e-20)
(1.04256 -0.00204194 -5.10567e-21)
(1.03134 -0.0094099 -1.41615e-20)
(1.01857 -0.00953369 6.19742e-21)
(0.703682 0.150104 4.36353e-19)
(1.27556 -0.475651 1.58213e-18)
(1.08757 -0.2871 1.7103e-18)
(1.0198 -0.308728 7.31192e-19)
(0.931805 -0.155598 2.98863e-19)
(0.899455 -0.0844286 6.49805e-20)
(0.914015 0.0143241 -6.97585e-20)
(0.959741 0.0574531 5.20378e-21)
(1.0059 0.0698202 -5.00911e-20)
(1.03661 0.0545185 6.35152e-20)
(1.04777 0.0342914 3.72815e-20)
(1.0473 0.0149256 -6.13129e-20)
(1.03865 0.00223146 1.86588e-20)
(1.02963 -0.00406593 -2.03279e-20)
(1.01721 -0.0065705 -5.5184e-21)
(0.766436 0.148975 -8.95865e-19)
(1.2908 -0.453264 5.97912e-19)
(1.11192 -0.254137 -4.63619e-18)
(1.03962 -0.289778 -7.27324e-19)
(0.953725 -0.140055 -4.11807e-19)
(0.922585 -0.0824693 1.94267e-19)
(0.93178 0.00731185 1.42339e-19)
(0.967644 0.0442495 -3.72663e-20)
(1.00477 0.0585342 9.85303e-20)
(1.0309 0.047592 -4.10742e-20)
(1.04106 0.0323174 -4.75443e-20)
(1.04174 0.0162688 4.98142e-20)
(1.03518 0.00576068 -5.54891e-21)
(1.0275 -0.00035402 -2.10542e-20)
(1.01919 -0.00296019 -3.36467e-20)
(0.823878 0.146092 -1.07883e-18)
(1.30416 -0.431909 1.12493e-18)
(1.13251 -0.222183 1.20856e-18)
(1.05742 -0.271762 6.91314e-19)
(0.973085 -0.125068 9.998e-19)
(0.943106 -0.0802565 1.04752e-19)
(0.947298 0.00230259 -1.58797e-19)
(0.975134 0.0336727 1.2113e-20)
(1.00468 0.0492905 -3.32946e-20)
(1.02676 0.0416016 -6.65358e-20)
(1.03572 0.0303665 -5.47161e-20)
(1.03715 0.0171576 -1.86004e-20)
(1.03201 0.00837367 -1.31996e-20)
(1.02642 0.00272561 1.92211e-20)
(1.01794 0.00046432 4.38182e-20)
(0.877607 0.143232 9.96332e-19)
(1.31613 -0.411401 -1.44342e-18)
(1.14982 -0.191336 2.46195e-19)
(1.07333 -0.254577 -8.85543e-19)
(0.990196 -0.110548 -5.42128e-19)
(0.961352 -0.0777101 1.35012e-19)
(0.960915 -0.000987127 1.58374e-20)
(0.982197 0.0252834 2.55311e-20)
(1.00536 0.0418052 -5.69751e-20)
(1.02384 0.0364735 1.19519e-19)
(1.03151 0.0285642 1.12085e-19)
(1.03335 0.0176272 6.02359e-20)
(1.0295 0.0104692 7.204e-20)
(1.0244 0.005485 2.004e-20)
(1.01819 0.00249004 -3.14145e-21)
(0.928477 0.141524 6.86715e-19)
(1.32698 -0.391497 -3.35337e-19)
(1.16432 -0.1617 1.82951e-18)
(1.0875 -0.238125 7.71932e-19)
(1.00532 -0.0964226 1.38796e-19)
(0.977589 -0.0748012 -3.97215e-19)
(0.972891 -0.00280563 -2.32698e-21)
(0.988833 0.0187217 -6.65973e-20)
(1.00657 0.0358347 1.77775e-21)
(1.02188 0.0321478 9.10462e-21)
(1.02821 0.0269363 6.09773e-20)
(1.03031 0.0178871 -1.11552e-20)
(1.02701 0.0122271 7.59136e-21)
(1.02322 0.00713097 1.62298e-20)
(1.01747 0.00542793 1.71582e-20)
(0.976882 0.14164 6.45439e-18)
(1.3369 -0.371961 9.05434e-19)
(1.1764 -0.133288 -1.51894e-18)
(1.10006 -0.222316 4.9495e-19)
(1.01866 -0.0826403 -1.57162e-19)
(0.992038 -0.0715287 3.39993e-20)
(0.983433 -0.00336868 2.34173e-19)
(0.995037 0.0136952 8.74503e-20)
(1.00811 0.0311671 7.76499e-20)
(1.02064 0.0285564 -4.94324e-20)
(1.02568 0.0255388 -1.95969e-20)
(1.02778 0.018042 -5.93203e-20)
(1.02504 0.0133966 -2.09945e-21)
(1.02178 0.00921571 -3.83635e-20)
(1.01685 0.00681629 -3.17508e-20)
(1.02297 0.143975 -2.60649e-18)
(1.34601 -0.35258 4.72693e-19)
(1.18638 -0.106081 -6.50263e-19)
(1.11117 -0.207068 -1.92374e-19)
(1.03039 -0.0691651 -6.71766e-19)
(1.00488 -0.0679096 3.55527e-19)
(0.99271 -0.00286175 -4.50961e-20)
(1.0008 0.00995938 -4.41555e-20)
(1.00987 0.0276251 -8.81377e-20)
(1.01996 0.0256338 2.06912e-20)
(1.02375 0.0244004 -7.27299e-20)
(1.02577 0.0180521 -7.73798e-22)
(1.02322 0.0146348 7.10544e-20)
(1.02052 0.0102198 -6.65042e-20)
(1.01634 0.00900921 8.52253e-21)
(1.06674 0.148748 -1.96786e-18)
(1.35437 -0.333167 6.20151e-20)
(1.19453 -0.0800294 4.53433e-19)
(1.12093 -0.192304 -1.99226e-20)
(1.04068 -0.0559725 2.58898e-19)
(1.01625 -0.0639685 -3.95923e-19)
(1.00086 -0.00144455 -2.45323e-19)
(1.00613 0.00731222 1.86084e-19)
(1.01171 0.0250556 8.7367e-20)
(1.01969 0.0233208 2.86681e-20)
(1.02231 0.0235001 -2.70626e-20)
(1.02411 0.0181489 -2.70088e-20)
(1.02164 0.0153452 -7.30613e-20)
(1.01952 0.0117431 1.01242e-19)
(1.01551 0.0101347 -2.87914e-20)
(1.10815 0.156062 1.44425e-18)
(1.362 -0.313559 -8.76573e-19)
(1.20105 -0.0550725 4.47145e-20)
(1.12947 -0.177953 -6.52079e-19)
(1.04965 -0.0430473 6.29429e-20)
(1.02629 -0.0597335 -8.48433e-20)
(1.00799 0.000744319 2.6364e-19)
(1.01102 0.00558419 -2.66585e-19)
(1.01355 0.0233278 5.01686e-20)
(1.01972 0.0215502 -1.01019e-19)
(1.02123 0.0228858 2.19415e-20)
(1.02276 0.0181498 7.49907e-20)
(1.02034 0.0162469 -3.58559e-20)
(1.01838 0.0125301 -5.22964e-20)
(1.01502 0.0117324 -1.40809e-20)
(1.14707 0.165936 -6.14594e-18)
(1.3689 -0.293624 1.91193e-18)
(1.20615 -0.0311441 4.24812e-19)
(1.13685 -0.163951 6.05666e-19)
(1.05741 -0.0303821 5.20008e-19)
(1.03509 -0.055234 2.20482e-19)
(1.01421 0.00358416 -3.69658e-19)
(1.01548 0.00463309 6.72068e-20)
(1.01533 0.0223271 -1.5013e-19)
(1.01996 0.0202761 -4.77305e-21)
(1.02043 0.0224927 -4.17247e-21)
(1.02168 0.0182979 -1.21395e-20)
(1.0191 0.0168089 3.36878e-20)
(1.01761 0.0136611 5.71667e-21)
(1.01425 0.0127132 3.69182e-20)
(1.1834 0.178329 3.17465e-18)
(1.37503 -0.273256 -1.11489e-18)
(1.20995 -0.00817833 -9.40116e-19)
(1.14315 -0.150242 -2.23255e-19)
(1.06406 -0.0179783 -2.30584e-19)
(1.04275 -0.0504988 -9.54946e-20)
(1.01959 0.00696739 1.66912e-19)
(1.01949 0.00433908 1.8262e-19)
(1.017 0.0219557 3.9565e-20)
(1.02032 0.0194341 2.7803e-20)
(1.01984 0.0223641 -4.5597e-21)
(1.02075 0.0184167 -4.41989e-20)
(1.01814 0.0175317 1.30687e-20)
(1.01668 0.0143957 1.28298e-20)
(1.01375 0.0139266 -2.49259e-20)
(1.21699 0.193148 3.31521e-18)
(1.38033 -0.252379 1.40274e-19)
(1.21259 0.0138871 1.44559e-19)
(1.14842 -0.136778 1.06027e-19)
(1.06969 -0.00584571 -5.04212e-20)
(1.04934 -0.0455546 -1.68689e-19)
(1.02422 0.0107958 -9.38127e-20)
(1.02305 0.00460111 -1.09097e-19)
(1.01852 0.0221241 -2.22162e-20)
(1.02075 0.0189873 -4.67663e-20)
(1.01937 0.0224318 7.14893e-20)
(1.02002 0.0186721 4.90597e-20)
(1.01718 0.0181024 -5.76808e-21)
(1.01604 0.0152973 2.52128e-20)
(1.01308 0.0148156 2.01899e-20)
(1.24772 0.210265 5.58769e-19)
(1.38473 -0.230939 7.078e-19)
(1.21418 0.0351084 1.34913e-18)
(1.15269 -0.12352 -7.72238e-19)
(1.07439 0.00600067 2.89162e-19)
(1.05491 -0.0404256 1.10471e-19)
(1.02815 0.014977 1.11055e-19)
(1.02617 0.00533388 -2.80899e-20)
(1.01986 0.0227556 1.63084e-20)
(1.02119 0.018879 1.12301e-20)
(1.01901 0.0227163 -3.92547e-20)
(1.01935 0.0189558 -1.25431e-20)
(1.01644 0.0187726 4.46084e-21)
(1.0153 0.0160277 -3.29457e-20)
(1.01257 0.0158032 -2.34497e-23)
(1.27548 0.229517 -2.08356e-18)
(1.38814 -0.208915 -8.39756e-19)
(1.21481 0.0555355 -6.00397e-19)
(1.15598 -0.110442 4.49192e-19)
(1.07822 0.0175467 -2.99529e-19)
(1.05953 -0.0351361 -9.06328e-20)
(1.03146 0.0194264 -4.39998e-20)
(1.02884 0.00646694 -2.21597e-20)
(1.021 0.023777 8.24555e-21)
(1.02161 0.0190753 3.79986e-20)
(1.01867 0.0231658 -4.58579e-20)
(1.0188 0.0193475 4.75358e-21)
(1.01569 0.0194144 1.07454e-20)
(1.01474 0.0168101 8.95748e-21)
(1.01199 0.0166259 -3.31497e-21)
(1.30014 0.25072 1.65234e-18)
(1.39045 -0.18631 -1.57841e-19)
(1.21456 0.0752129 -1.66437e-19)
(1.15832 -0.0975266 1.11294e-19)
(1.08125 0.0287826 -6.97306e-20)
(1.06324 -0.0297133 1.12487e-19)
(1.03418 0.0240721 2.40213e-20)
(1.03107 0.00793976 2.89576e-20)
(1.02193 0.0251248 1.6461e-20)
(1.02196 0.0195304 1.92501e-20)
(1.01835 0.02378 3.50468e-20)
(1.01826 0.0198016 -2.56883e-20)
(1.01506 0.0201084 -3.77062e-20)
(1.01414 0.0175324 -7.29841e-21)
(1.01148 0.017468 2.48253e-20)
(1.32163 0.273668 -2.37415e-18)
(1.39158 -0.163154 -3.57608e-19)
(1.21347 0.0941797 -5.29126e-19)
(1.15972 -0.0847652 -2.30875e-19)
(1.0835 0.0396974 2.7018e-19)
(1.06613 -0.0241854 5.04733e-20)
(1.03632 0.0288513 -3.80761e-20)
(1.03288 0.00969736 -2.95962e-20)
(1.02264 0.0267389 4.41149e-20)
(1.02221 0.0202131 -2.78376e-21)
(1.018 0.0245243 2.24882e-20)
(1.01777 0.0203387 1.80595e-20)
(1.01442 0.0208285 2.7533e-20)
(1.01361 0.0182398 1.08632e-21)
(1.01094 0.0182182 -1.06725e-20)
(1.33985 0.298142 1.30449e-18)
(1.39143 -0.139502 6.59345e-19)
(1.21158 0.112467 2.84287e-19)
(1.16019 -0.0721493 1.37409e-19)
(1.08502 0.0502656 1.87018e-21)
(1.06821 -0.0185751 -4.78705e-20)
(1.03796 0.0336991 1.1629e-20)
(1.03425 0.0116922 6.79784e-20)
(1.02312 0.0285665 -2.05287e-20)
(1.02234 0.0210867 6.83302e-21)
(1.01762 0.0253838 2.29069e-21)
(1.01726 0.0209488 -5.25816e-21)
(1.01382 0.0215676 -2.85225e-21)
(1.01307 0.0189231 7.52805e-21)
(1.01042 0.0189368 8.23954e-21)
(1.35475 0.323908 -1.2096e-18)
(1.3899 -0.115424 3.78485e-20)
(1.20894 0.130092 5.14975e-20)
(1.15963 -0.0596769 -1.86829e-19)
(1.08603 0.0604434 -1.38362e-19)
(1.0694 -0.0128921 4.19264e-21)
(1.03924 0.0385447 -2.26637e-20)
(1.03512 0.0138984 -3.34392e-20)
(1.02341 0.0305514 -9.36105e-21)
(1.02233 0.0221246 -2.91762e-20)
(1.01717 0.0263358 -2.54325e-20)
(1.01674 0.0216237 -1.95713e-21)
(1.01319 0.0223385 3.58931e-21)
(1.01253 0.0195577 -1.11836e-20)
(1.00987 0.0195925 -3.10623e-21)
(1.36629 0.350726 4.26488e-19)
(1.38682 -0.0910079 6.86294e-20)
(1.20571 0.147069 -2.98783e-21)
(1.15782 -0.0473727 1.48149e-19)
(1.08685 0.0701949 7.36055e-20)
(1.06947 -0.00713649 2.80888e-20)
(1.04041 0.0433168 2.23889e-20)
(1.03536 0.0163135 8.96963e-21)
(1.02359 0.032624 6.37975e-21)
(1.02212 0.0233075 2.95931e-20)
(1.01668 0.0273597 2.03711e-22)
(1.01616 0.0223659 -9.62877e-22)
(1.01257 0.0231035 1.37937e-21)
(1.01198 0.0201798 1.77908e-21)
(1.00927 0.0201923 -4.40294e-21)
(1.37446 0.37836 2.49665e-19)
(1.38192 -0.0663782 -1.54022e-19)
(1.20222 0.163422 1.17742e-19)
(1.15448 -0.0353101 -2.64654e-20)
(1.08782 0.0795267 1.48983e-20)
(1.06822 -0.0013217 -4.25495e-21)
(1.04166 0.0479479 -1.28887e-20)
(1.03486 0.0189379 9.82994e-21)
(1.02373 0.0347028 -1.63629e-21)
(1.02167 0.0246343 -1.02097e-20)
(1.01611 0.0284295 3.73695e-22)
(1.01552 0.0231536 1.70575e-21)
(1.01193 0.0238875 -3.2057e-21)
(1.01137 0.0207619 -2.2582e-21)
(1.00862 0.020743 1.4885e-21)
(1.37925 0.406586 2.57615e-19)
(1.37492 -0.041723 -1.40316e-19)
(1.19885 0.179197 1.13797e-19)
(1.14961 -0.0235842 -2.37589e-20)
(1.08882 0.0884624 1.80711e-20)
(1.06585 0.00451645 -5.10834e-21)
(1.04283 0.0523782 -1.12257e-20)
(1.03376 0.0217635 8.92207e-21)
(1.02379 0.0367164 -3.12425e-21)
(1.021 0.0261143 -1.00543e-20)
(1.01544 0.0295085 1.59947e-21)
(1.01483 0.0239886 1.55917e-21)
(1.01125 0.0246594 -3.72942e-21)
(1.01071 0.0213529 -1.8026e-21)
(1.00792 0.0212304 2.02553e-21)
(1.38064 0.435183 4.21136e-19)
(1.36582 -0.0172875 6.63664e-20)
(1.19559 0.194421 1.57369e-20)
(1.14375 -0.0122194 1.14578e-19)
(1.08909 0.0969209 6.54015e-20)
(1.06317 0.0103645 2.68406e-20)
(1.04328 0.0565305 2.78063e-20)
(1.03256 0.0247823 6.26108e-21)
(1.02342 0.0386096 5.375e-21)
(1.02029 0.0277403 2.88557e-20)
(1.01459 0.0305732 -3.78788e-21)
(1.01411 0.024849 -1.6825e-21)
(1.01047 0.0254443 1.82443e-21)
(1.01002 0.0219217 1.66543e-22)
(1.00721 0.0216798 -4.00532e-21)
(1.37868 0.463918 -1.23116e-18)
(1.35516 0.00671253 2.35725e-20)
(1.19166 0.208943 4.53321e-20)
(1.13753 -0.000997706 -1.63631e-19)
(1.08793 0.104862 -1.28788e-19)
(1.06067 0.0163176 8.97347e-22)
(1.0427 0.0604055 -1.02978e-20)
(1.03147 0.0279782 -3.19438e-20)
(1.02253 0.0403884 -1.21163e-20)
(1.01957 0.0294517 -2.88185e-20)
(1.01358 0.0316382 -1.93922e-20)
(1.01333 0.0257232 -2.48992e-21)
(1.00959 0.0262234 1.88682e-21)
(1.00928 0.0224719 -6.26526e-21)
(1.00648 0.022086 -5.12413e-21)
(1.37349 0.492525 1.28222e-18)
(1.3433 0.0303686 4.89232e-19)
(1.18588 0.222798 2.25617e-19)
(1.13143 0.0101832 1.20331e-19)
(1.08542 0.112229 -5.31289e-21)
(1.05832 0.0224097 -3.96893e-20)
(1.04128 0.0639685 1.7409e-20)
(1.03039 0.0313049 5.73097e-20)
(1.02128 0.0420579 -1.75489e-20)
(1.01872 0.0311938 3.06551e-21)
(1.01248 0.0327093 7.10939e-21)
(1.01245 0.0265911 -3.59221e-21)
(1.00864 0.0270014 -6.64795e-21)
(1.00848 0.0229911 1.46665e-20)
(1.00571 0.0224706 3.04984e-21)
(1.36532 0.520758 -2.26953e-18)
(1.33014 0.0536358 -2.87328e-19)
(1.17824 0.235924 -4.51454e-19)
(1.1255 0.0214708 -1.39083e-19)
(1.08173 0.11896 2.15811e-19)
(1.05599 0.0285522 5.01366e-20)
(1.03913 0.067206 -3.75012e-20)
(1.02923 0.0346897 -2.52429e-20)
(1.01973 0.0436459 2.66455e-20)
(1.01769 0.0329061 3.62087e-21)
(1.0113 0.0337872 2.15684e-20)
(1.01145 0.0274517 1.49838e-20)
(1.0076 0.0277576 2.28267e-20)
(1.00761 0.0234898 -1.3206e-21)
(1.00488 0.0228271 -1.40591e-20)
(1.35439 0.548418 1.56098e-18)
(1.31549 0.0764186 -1.25119e-19)
(1.16903 0.248076 -1.54444e-19)
(1.11947 0.0326738 7.4266e-20)
(1.07706 0.125061 -4.88998e-20)
(1.05354 0.0347328 7.35789e-20)
(1.03643 0.0701401 1.59574e-20)
(1.02787 0.0380678 1.1351e-20)
(1.018 0.0451761 1.60441e-20)
(1.01645 0.0345463 2.23392e-20)
(1.01005 0.0348588 2.74658e-20)
(1.01034 0.0282972 -2.35261e-20)
(1.00649 0.0284899 -3.17419e-20)
(1.00667 0.0239688 -4.06808e-21)
(1.004 0.0231705 2.14363e-20)
(1.34059 0.575253 -1.99019e-18)
(1.29945 0.0986651 -4.89309e-19)
(1.15847 0.259171 -4.41882e-19)
(1.11323 0.0437977 2.54112e-19)
(1.07158 0.130508 -2.46474e-19)
(1.05087 0.0408577 -6.39479e-20)
(1.0333 0.0727747 -2.04678e-20)
(1.02626 0.0413613 -2.37167e-20)
(1.01612 0.0466653 7.54047e-21)
(1.01501 0.0360884 1.74854e-20)
(1.00871 0.0358998 -2.7486e-20)
(1.00913 0.0291256 5.16402e-21)
(1.0053 0.0291854 1.22802e-21)
(1.00566 0.0244355 6.9922e-21)
(1.00307 0.0235045 2.09688e-21)
(1.32336 0.600802 5.26572e-19)
(1.28251 0.120377 4.02048e-19)
(1.14674 0.269125 1.04362e-18)
(1.10664 0.0547356 -4.46154e-19)
(1.06542 0.135321 2.04116e-19)
(1.04789 0.0468784 6.89167e-20)
(1.02984 0.0751437 9.71066e-20)
(1.02435 0.0445113 -3.13129e-20)
(1.01412 0.0481193 1.58048e-20)
(1.01337 0.0375228 1.1469e-20)
(1.00727 0.0368856 -3.85085e-20)
(1.00784 0.029924 -3.66311e-21)
(1.00406 0.0298379 5.90785e-21)
(1.00459 0.0248901 -1.41098e-20)
(1.00209 0.0238384 -6.75261e-21)
(1.30259 0.62493 3.04861e-18)
(1.26486 0.141876 6.78363e-20)
(1.13401 0.277954 9.89692e-20)
(1.09963 0.0654301 7.71458e-20)
(1.05873 0.139502 -6.56926e-20)
(1.04454 0.0527123 -1.15916e-19)
(1.02612 0.0772598 -3.01106e-20)
(1.02213 0.0474638 -9.54486e-20)
(1.01199 0.0495236 -5.80195e-23)
(1.01158 0.0388477 -3.29267e-20)
(1.00574 0.0377942 3.65591e-20)
(1.00647 0.0306797 2.70979e-20)
(1.00276 0.030434 -1.85579e-21)
(1.00346 0.0253238 8.05455e-21)
(1.00105 0.024172 1.59694e-20)
(1.27865 0.647245 2.76032e-18)
(1.24631 0.162767 -4.96062e-19)
(1.12039 0.285644 -5.93789e-19)
(1.09213 0.0757884 -1.1281e-19)
(1.05159 0.143075 -1.67822e-19)
(1.04079 0.0582979 -3.64499e-20)
(1.02221 0.0791475 1.20794e-19)
(1.01962 0.0501822 9.7369e-20)
(1.00974 0.0508596 2.70173e-20)
(1.00965 0.0400627 3.0328e-20)
(1.0041 0.0386118 -1.82584e-20)
(1.00502 0.0313777 -2.83761e-20)
(1.0014 0.0309639 2.2972e-20)
(1.00225 0.0257248 5.88266e-21)
(0.999951 0.0244881 -1.52156e-20)
(1.25184 0.66752 -5.40362e-18)
(1.22679 0.182923 1.25443e-19)
(1.10603 0.292195 2.28822e-19)
(1.08411 0.0857333 2.61797e-19)
(1.0441 0.146055 3.26765e-19)
(1.03663 0.0635685 1.08125e-19)
(1.01813 0.0808144 -2.31984e-19)
(1.01682 0.0526419 5.41608e-20)
(1.00736 0.0520977 -1.12e-19)
(1.00761 0.0411657 -1.49416e-21)
(1.00238 0.0393279 1.44593e-20)
(1.00351 0.0320079 -2.76852e-20)
(0.999994 0.0314212 1.08098e-20)
(1.00097 0.0260806 4.32734e-21)
(0.998767 0.0247736 6.00483e-21)
(1.22248 0.685537 1.31714e-18)
(1.20624 0.202143 -2.67633e-19)
(1.09102 0.2976 3.6547e-20)
(1.07554 0.0951785 -2.39664e-19)
(1.03633 0.148466 -1.93043e-22)
(1.03207 0.0684699 -6.13164e-20)
(1.01392 0.082268 1.78247e-19)
(1.01378 0.0548288 -1.47597e-19)
(1.00484 0.0532124 1.57358e-20)
(1.00546 0.0421497 -4.1245e-20)
(1.00059 0.0399353 -3.31946e-21)
(1.00194 0.0325598 3.93034e-20)
(0.998563 0.0318043 -2.03568e-20)
(0.999648 0.0263968 -1.85043e-20)
(0.997516 0.0250261 -2.61911e-21)
(1.19084 0.701112 -1.47168e-18)
(1.18466 0.220279 1.37705e-19)
(1.07547 0.301858 2.06231e-19)
(1.06643 0.104046 2.40818e-20)
(1.02835 0.150324 6.7222e-20)
(1.02712 0.0729532 -1.50582e-19)
(1.00958 0.0835041 -1.24848e-19)
(1.01052 0.0567368 8.73058e-20)
(1.0022 0.0541778 5.55803e-20)
(1.00322 0.0430062 1.5477e-20)
(0.998723 0.0404252 -1.1841e-20)
(1.00033 0.0330212 -1.29642e-20)
(0.99713 0.0321054 -2.07009e-20)
(0.99834 0.0266779 2.65378e-20)
(0.996249 0.0252789 -8.30904e-21)
(1.1572 0.714086 -1.85322e-18)
(1.16208 0.237174 1.85465e-19)
(1.0595 0.304971 -3.03622e-19)
(1.05679 0.112259 -4.44271e-20)
(1.0202 0.151648 -3.29515e-19)
(1.02182 0.0769801 1.7337e-19)
(1.00513 0.0845151 -9.04515e-21)
(1.00708 0.0583644 -2.10753e-20)
(0.999446 0.0549746 -4.90988e-20)
(1.00088 0.0437249 1.07759e-20)
(0.996793 0.0407902 -2.03429e-20)
(0.998677 0.0333773 -7.02816e-21)
(0.995705 0.0323045 2.27271e-20)
(0.997075 0.0269105 -1.2379e-20)
(0.995036 0.0255609 -2.097e-21)
(1.12182 0.724326 4.64593e-18)
(1.13855 0.252692 2.32273e-19)
(1.04319 0.306942 -5.82352e-19)
(1.04665 0.11975 1.66304e-19)
(1.01193 0.152451 -4.21105e-20)
(1.0162 0.0805201 1.59527e-21)
(1.00059 0.0852875 8.51557e-20)
(1.00349 0.0597119 3.97359e-20)
(0.996583 0.0555866 3.94669e-20)
(0.998464 0.0442971 -1.68116e-20)
(0.994804 0.0410257 -6.95604e-22)
(0.996983 0.0336204 -1.32866e-20)
(0.99428 0.0323771 1.21045e-20)
(0.995855 0.0270382 3.16756e-21)
(0.993935 0.0258422 -3.60749e-21)
(1.08498 0.731719 3.54585e-19)
(1.11414 0.266704 -2.60902e-20)
(1.02663 0.307779 6.55336e-19)
(1.03604 0.126456 1.82658e-19)
(1.00357 0.152744 4.66111e-20)
(1.0103 0.0835514 -1.16906e-19)
(0.995947 0.0858063 -6.79522e-21)
(0.999763 0.0607807 -1.89665e-20)
(0.99363 0.056002 -6.53215e-21)
(0.995974 0.0447142 3.59069e-21)
(0.992768 0.0411291 2.12543e-20)
(0.995255 0.0337521 2.75824e-21)
(0.992852 0.0323205 -8.87231e-21)
(0.994687 0.0270112 -1.90776e-23)
(0.992972 0.0260218 3.69376e-21)
(1.04695 0.736179 4.62032e-19)
(1.08895 0.279092 -3.18864e-19)
(1.00991 0.307491 3.94353e-20)
(1.02503 0.132324 -1.43845e-19)
(0.995163 0.152536 -1.17582e-19)
(1.00417 0.086059 3.27997e-20)
(0.991231 0.0860556 8.49908e-21)
(0.99594 0.0615715 7.2246e-21)
(0.990602 0.0562116 -1.72189e-20)
(0.993425 0.0449677 2.10376e-20)
(0.990693 0.0410954 1.2364e-20)
(0.993494 0.0337725 7.47578e-21)
(0.991424 0.0321482 -7.09801e-22)
(0.993616 0.0268358 2.76127e-23)
(0.992176 0.0260255 9.22345e-22)
(1.00799 0.737641 -7.27005e-19)
(1.06308 0.289753 1.42606e-19)
(0.993114 0.30609 2.30471e-19)
(1.01366 0.137309 9.3064e-20)
(0.98673 0.151831 2.1944e-19)
(0.997852 0.0880347 2.86384e-20)
(0.986452 0.0860206 -3.1853e-20)
(0.992038 0.0620847 -1.07756e-21)
(0.987514 0.0562096 -2.39213e-21)
(0.990831 0.0450516 -1.54972e-20)
(0.988583 0.0409178 -5.94871e-21)
(0.99169 0.0336684 -1.10371e-21)
(0.989987 0.0318532 -3.88275e-21)
(0.992673 0.0265455 -9.19053e-22)
(0.991589 0.0259146 -3.81004e-21)
(0.968379 0.736062 -5.98811e-19)
(1.03666 0.298596 4.09307e-20)
(0.976313 0.303593 -8.82482e-19)
(1.00201 0.141375 -4.25596e-20)
(0.978302 0.150634 -8.46339e-20)
(0.991391 0.0894752 2.65489e-20)
(0.981627 0.0856884 2.5322e-20)
(0.988079 0.0623201 -5.65666e-21)
(0.984385 0.0559922 4.36481e-21)
(0.988205 0.0449635 -1.47069e-22)
(0.986446 0.0405959 2.18422e-22)
(0.989841 0.0334314 -8.76721e-21)
(0.988509 0.0314015 -2.28081e-21)
(0.991771 0.0260758 -4.49118e-22)
(0.991115 0.0257348 5.8901e-21)
(0.928369 0.73142 5.73884e-20)
(1.00982 0.305545 -4.33678e-21)
(0.959584 0.300015 6.10271e-19)
(0.990139 0.144495 -1.48617e-21)
(0.969906 0.148944 2.36708e-20)
(0.984833 0.0903816 -1.61396e-20)
(0.976777 0.0850483 -9.63319e-23)
(0.984085 0.0622776 -4.51312e-21)
(0.981231 0.0555573 2.72255e-21)
(0.985564 0.0447021 -1.2828e-20)
(0.984295 0.0401349 5.19553e-21)
(0.987966 0.0330819 2.98458e-21)
(0.986984 0.0308249 -4.4174e-21)
(0.990729 0.0253396 7.29857e-21)
(0.990415 0.0251623 1.39234e-21)