/*--------------------------------*- C++ -*----------------------------------*\
  =========                 |
  \\      /  F ield         | OpenFOAM: The Open Source CFD Toolbox
   \\    /   O peration     | Website:  https://openfoam.org
    \\  /    A nd           | Version:  7
     \\/     M anipulation  |
\*---------------------------------------------------------------------------*/
FoamFile
{
    version     2.0;
    format      ascii;
    class       volScalarField;
    location    "81";
    object      p;
}
// * * * * * * * * * * * * * * * * * * * * * * * * * * * * * * * * * * * * * //

dimensions      [0 2 -2 0 0 0 0];

internalField   nonuniform List<scalar> 
34000
(
-0.50962
-0.514997
-0.514542
-0.438185
-0.390443
-0.357888
-0.354307
-0.337393
-0.296
-0.243386
-0.202399
-0.177322
-0.165088
-0.166678
-0.173087
-0.165064
-0.152499
-0.135305
-0.116915
-0.11085
-0.499846
-0.503428
-0.500655
-0.429513
-0.390449
-0.367212
-0.371826
-0.353249
-0.306171
-0.24748
-0.201161
-0.172582
-0.156239
-0.153694
-0.159313
-0.157354
-0.149754
-0.134961
-0.119472
-0.115972
-0.490156
-0.491703
-0.486352
-0.420068
-0.389789
-0.376039
-0.388634
-0.36769
-0.314798
-0.250439
-0.199188
-0.167362
-0.147565
-0.141424
-0.146634
-0.149575
-0.146247
-0.133909
-0.121953
-0.121722
-0.480581
-0.479869
-0.471692
-0.409898
-0.388455
-0.38425
-0.404455
-0.380541
-0.321808
-0.252251
-0.196584
-0.161745
-0.139227
-0.130108
-0.134845
-0.141938
-0.142081
-0.132176
-0.124225
-0.127822
-0.47115
-0.467974
-0.456734
-0.399058
-0.38644
-0.391729
-0.419015
-0.391637
-0.327156
-0.252916
-0.193452
-0.155817
-0.131299
-0.119864
-0.124125
-0.134617
-0.137355
-0.129745
-0.125954
-0.133696
-0.46189
-0.456068
-0.441541
-0.387615
-0.383725
-0.398367
-0.432062
-0.400832
-0.33083
-0.25246
-0.18988
-0.149667
-0.123788
-0.110725
-0.114559
-0.127753
-0.132135
-0.126541
-0.126621
-0.138567
-0.452829
-0.4442
-0.426181
-0.375644
-0.38029
-0.404065
-0.443373
-0.408011
-0.332846
-0.250931
-0.185931
-0.143387
-0.116651
-0.10264
-0.106142
-0.121411
-0.126423
-0.122413
-0.125672
-0.141629
-0.443991
-0.432419
-0.410723
-0.363231
-0.376113
-0.408723
-0.452758
-0.413096
-0.333249
-0.248405
-0.181648
-0.13707
-0.109802
-0.0954428
-0.0987461
-0.115485
-0.120112
-0.117121
-0.122716
-0.142345
-0.4354
-0.420772
-0.395235
-0.350476
-0.371176
-0.412251
-0.460052
-0.416053
-0.332108
-0.244979
-0.17705
-0.130802
-0.103125
-0.0888294
-0.0920784
-0.109642
-0.112969
-0.110373
-0.117651
-0.140586
-0.427077
-0.409305
-0.379786
-0.337407
-0.365507
-0.414573
-0.465126
-0.41689
-0.329516
-0.240765
-0.172156
-0.124652
-0.0965033
-0.0824004
-0.0856922
-0.103334
-0.104644
-0.101896
-0.110677
-0.136563
-0.419042
-0.398062
-0.36444
-0.324104
-0.359087
-0.415633
-0.467883
-0.415659
-0.325581
-0.23588
-0.166991
-0.118669
-0.0898553
-0.0757519
-0.0790567
-0.0962491
-0.0947142
-0.091492
-0.102143
-0.130361
-0.411313
-0.387084
-0.349262
-0.310667
-0.351878
-0.415404
-0.468277
-0.412451
-0.32043
-0.23044
-0.161605
-0.112876
-0.0831625
-0.0685747
-0.0715908
-0.0866503
-0.0827326
-0.0790184
-0.0923797
-0.122145
-0.403903
-0.376408
-0.334312
-0.297182
-0.343863
-0.413898
-0.466312
-0.407394
-0.314202
-0.224555
-0.15607
-0.107274
-0.0764797
-0.0607345
-0.0627656
-0.0744505
-0.0683834
-0.0644219
-0.0817279
-0.112055
-0.396828
-0.36607
-0.319649
-0.283726
-0.335057
-0.411158
-0.46206
-0.400647
-0.30705
-0.218325
-0.15048
-0.101858
-0.0699279
-0.0523124
-0.0521851
-0.05926
-0.0515441
-0.0479988
-0.0706582
-0.100458
-0.390099
-0.356099
-0.305319
-0.270371
-0.3255
-0.407251
-0.45565
-0.392394
-0.29913
-0.211841
-0.144929
-0.0966378
-0.0636709
-0.0436067
-0.0398186
-0.0412221
-0.032569
-0.0307472
-0.0596873
-0.0879212
-0.383726
-0.346523
-0.291219
-0.257303
-0.315258
-0.402258
-0.447271
-0.382837
-0.290601
-0.205193
-0.139497
-0.0916453
-0.057873
-0.0350927
-0.0262475
-0.0214595
-0.0126718
-0.0143404
-0.0491076
-0.0750581
-0.37772
-0.337363
-0.277522
-0.244429
-0.304425
-0.396251
-0.437155
-0.372185
-0.281614
-0.198463
-0.134247
-0.0869382
-0.0526502
-0.0273198
-0.0128163
-0.00225001
0.005972
-0.000537781
-0.0390957
-0.0624523
-0.372092
-0.328637
-0.264253
-0.231801
-0.29313
-0.389291
-0.425564
-0.360656
-0.272312
-0.191731
-0.129216
-0.0825832
-0.0480506
-0.0207368
-0.00124285
0.0137079
0.0209148
0.00965137
-0.0296095
-0.0506377
-0.366851
-0.320357
-0.251416
-0.219472
-0.281532
-0.381422
-0.412772
-0.348461
-0.262827
-0.185067
-0.124429
-0.0786336
-0.0440827
-0.0155434
0.00727487
0.0247739
0.0307095
0.016292
-0.0208125
-0.0400728
-0.362011
-0.31253
-0.239024
-0.207472
-0.269826
-0.372682
-0.399055
-0.335808
-0.253278
-0.178527
-0.119903
-0.0751131
-0.0407529
-0.0117094
0.0125505
0.0309632
0.0356121
0.0201711
-0.0130711
-0.030909
-0.357584
-0.305159
-0.227095
-0.195824
-0.25824
-0.363115
-0.384675
-0.322888
-0.243768
-0.172161
-0.115651
-0.0720158
-0.0380641
-0.00909801
0.0151151
0.0333977
0.0369365
0.0220758
-0.00676953
-0.0233171
-0.353588
-0.298241
-0.215653
-0.184557
-0.247032
-0.352782
-0.369879
-0.309877
-0.234387
-0.166001
-0.111677
-0.0693188
-0.0359917
-0.00753468
0.0157976
0.0333915
0.0360508
0.0225799
-0.00205695
-0.0172579
-0.350041
-0.29177
-0.204739
-0.173715
-0.236467
-0.341776
-0.35489
-0.296929
-0.225208
-0.160076
-0.107982
-0.066992
-0.0344786
-0.00683129
0.0152901
0.0318983
0.0339319
0.0221056
0.00121537
-0.0125426
-0.346963
-0.285738
-0.194414
-0.163365
-0.226792
-0.33022
-0.339905
-0.28418
-0.216292
-0.154402
-0.104554
-0.0650018
-0.0334484
-0.00680234
0.0140353
0.0295146
0.0311736
0.0209932
0.00334948
-0.00893107
-0.344376
-0.280145
-0.184757
-0.153602
-0.218196
-0.318268
-0.325091
-0.271738
-0.207683
-0.148989
-0.101383
-0.0633119
-0.0328209
-0.00728223
0.012301
0.0266174
0.0281154
0.0194912
0.00463663
-0.0062043
-0.342298
-0.274996
-0.175864
-0.144553
-0.210771
-0.306093
-0.310589
-0.259693
-0.199416
-0.14384
-0.0984499
-0.0618846
-0.0325203
-0.00813406
0.0102641
0.0234598
0.024956
0.0177668
0.00530443
-0.00417601
-0.340746
-0.270313
-0.16783
-0.136374
-0.204495
-0.293875
-0.296515
-0.248111
-0.191513
-0.138955
-0.0957371
-0.0606824
-0.0324777
-0.00924827
0.00805099
0.0202143
0.0218177
0.0159316
0.0055225
-0.00269905
-0.339729
-0.266139
-0.160734
-0.129248
-0.199234
-0.281784
-0.282959
-0.237039
-0.183987
-0.134328
-0.093225
-0.0596697
-0.0326331
-0.010538
0.00575427
0.0169954
0.0187754
0.01406
0.00541642
-0.00165691
-0.339249
-0.262534
-0.154627
-0.123358
-0.194783
-0.269971
-0.269991
-0.226506
-0.176842
-0.129949
-0.0908939
-0.0588136
-0.0329349
-0.0119346
0.0034418
0.0138762
0.0158734
0.0122011
0.00507908
-0.000956698
-0.339295
-0.259559
-0.149524
-0.118866
-0.190919
-0.258556
-0.257659
-0.216529
-0.170077
-0.125808
-0.088725
-0.0580841
-0.0333397
-0.013384
0.00116311
0.0109017
0.0131366
0.010387
0.00457972
-0.000524225
-0.339843
-0.257231
-0.145432
-0.115863
-0.187451
-0.247632
-0.245995
-0.207109
-0.163684
-0.121894
-0.0867
-0.0574546
-0.0338113
-0.0148442
-0.00104627
0.00809779
0.0105766
0.00863833
0.00397024
-0.000300806
-0.340852
-0.255553
-0.14234
-0.114352
-0.184249
-0.237261
-0.235013
-0.19824
-0.157651
-0.118191
-0.0848022
-0.0569016
-0.0343202
-0.0162826
-0.00316152
0.00547715
0.00819657
0.0069681
0.00328981
-0.000239457
-0.342265
-0.25453
-0.14018
-0.114226
-0.181237
-0.227481
-0.224712
-0.189907
-0.151963
-0.114687
-0.0830157
-0.056405
-0.0348424
-0.0176747
-0.00516597
0.00304406
0.00599439
0.00538411
0.00256805
-0.000301432
-0.344009
-0.2541
-0.138893
-0.115292
-0.178383
-0.218307
-0.215083
-0.18209
-0.146604
-0.111368
-0.0813266
-0.0559476
-0.0353588
-0.0190021
-0.00704922
0.000797368
0.00396444
0.0038903
0.00182746
-0.000453945
-0.345998
-0.254178
-0.138405
-0.117303
-0.175678
-0.209739
-0.206104
-0.174766
-0.141556
-0.10822
-0.0797218
-0.0555151
-0.035854
-0.0202517
-0.0088056
-0.00126731
0.00209896
0.00248768
0.0010858
-0.000671218
-0.348132
-0.254685
-0.138624
-0.120002
-0.173117
-0.201761
-0.197746
-0.167908
-0.1368
-0.10523
-0.0781899
-0.0550954
-0.0363162
-0.0214144
-0.0104329
-0.00315618
0.000388619
0.00117599
0.000357618
-0.000938515
-0.350303
-0.25556
-0.139441
-0.123157
-0.170699
-0.194348
-0.189976
-0.161488
-0.132317
-0.102385
-0.0767205
-0.0546788
-0.0367362
-0.0224847
-0.0119312
-0.00487658
-0.00117703
-4.39397e-05
-0.000346809
-0.00125228
-0.352401
-0.25677
-0.140736
-0.126573
-0.168423
-0.187468
-0.182758
-0.155478
-0.128088
-0.0996746
-0.0753046
-0.0542574
-0.0371071
-0.0234595
-0.0133022
-0.00643692
-0.00260846
-0.00116918
-0.00102446
-0.0016061
-0.354318
-0.25832
-0.142392
-0.130096
-0.166281
-0.181088
-0.176054
-0.149848
-0.124095
-0.0970862
-0.0739341
-0.0538248
-0.0374241
-0.0243379
-0.0145487
-0.00784662
-0.00391465
-0.0021975
-0.00167836
-0.00196675
-0.355943
-0.260253
-0.144297
-0.133608
-0.164268
-0.175168
-0.169826
-0.144571
-0.12032
-0.0946097
-0.0726021
-0.0533761
-0.0376839
-0.0251206
-0.0156742
-0.00911563
-0.00510244
-0.00313223
-0.00230702
-0.00227004
-0.357221
-0.262603
-0.146359
-0.137019
-0.162375
-0.169671
-0.164035
-0.139619
-0.116747
-0.0922352
-0.0713022
-0.0529074
-0.0378843
-0.0258091
-0.0166826
-0.0102536
-0.00617739
-0.0039827
-0.00289516
-0.00247316
-0.358091
-0.265418
-0.148509
-0.140262
-0.16059
-0.16456
-0.158646
-0.134967
-0.113358
-0.0899534
-0.0700289
-0.0524156
-0.0380243
-0.0264056
-0.0175786
-0.0112695
-0.00714522
-0.00475756
-0.00343109
-0.00265676
-0.358514
-0.268735
-0.150702
-0.143285
-0.158905
-0.159799
-0.153622
-0.130589
-0.110139
-0.0877557
-0.0687775
-0.0518984
-0.0381036
-0.026913
-0.0183671
-0.0121714
-0.008012
-0.00546034
-0.00392491
-0.00288122
-0.358467
-0.272564
-0.152913
-0.14605
-0.157307
-0.155353
-0.148931
-0.126463
-0.107076
-0.0856342
-0.0675436
-0.0513543
-0.0381228
-0.0273344
-0.0190534
-0.0129667
-0.0087835
-0.00609583
-0.00437648
-0.00312864
-0.357939
-0.276881
-0.155132
-0.14853
-0.155785
-0.15119
-0.144541
-0.122565
-0.104154
-0.0835816
-0.0663238
-0.0507822
-0.0380829
-0.0276731
-0.0196426
-0.013662
-0.00946573
-0.00666612
-0.00478858
-0.00338571
-0.356923
-0.281615
-0.157357
-0.150705
-0.154327
-0.147279
-0.140422
-0.118876
-0.101361
-0.081591
-0.0651146
-0.0501813
-0.0379851
-0.0279325
-0.0201398
-0.0142635
-0.0100641
-0.00717412
-0.00516101
-0.00363849
-0.355414
-0.286646
-0.15959
-0.152561
-0.152921
-0.143593
-0.136547
-0.115376
-0.0986854
-0.0796562
-0.0639133
-0.0495514
-0.0378312
-0.0281162
-0.0205501
-0.0147769
-0.0105837
-0.00762167
-0.00549507
-0.00387672
-0.353409
-0.291803
-0.161831
-0.15409
-0.151555
-0.140105
-0.132891
-0.112048
-0.0961159
-0.0777713
-0.0627173
-0.0488922
-0.0376228
-0.0282274
-0.020878
-0.0152074
-0.0110292
-0.00801127
-0.00579038
-0.0040953
-0.350906
-0.296873
-0.164076
-0.155287
-0.150218
-0.136793
-0.129431
-0.108873
-0.0936423
-0.0759307
-0.0615243
-0.0482039
-0.0373618
-0.0282697
-0.0211283
-0.0155599
-0.0114049
-0.00834486
-0.00604772
-0.00428976
-0.347913
-0.301609
-0.166315
-0.156152
-0.148898
-0.133634
-0.126144
-0.105839
-0.0912548
-0.0741296
-0.0603322
-0.0474866
-0.0370502
-0.0282464
-0.0213051
-0.015839
-0.0117145
-0.00862476
-0.00626703
-0.00445845
-0.344447
-0.305751
-0.168534
-0.156687
-0.147585
-0.130608
-0.123012
-0.102929
-0.0889446
-0.0723632
-0.0591393
-0.0467407
-0.0366899
-0.0281605
-0.0214125
-0.0160489
-0.0119617
-0.00885293
-0.00644899
-0.00459974
-0.340549
-0.309044
-0.170709
-0.156899
-0.146267
-0.127699
-0.120016
-0.10013
-0.0867034
-0.0706272
-0.0579439
-0.0459666
-0.0362827
-0.0280152
-0.0214542
-0.0161934
-0.0121497
-0.0090315
-0.00659398
-0.00471307
-0.336283
-0.311267
-0.172817
-0.156797
-0.144936
-0.124888
-0.117139
-0.0974318
-0.0845235
-0.0689176
-0.0567445
-0.0451648
-0.0358306
-0.0278134
-0.0214339
-0.0162763
-0.0122814
-0.0091624
-0.00670272
-0.00479794
-0.331741
-0.312253
-0.174832
-0.156392
-0.143582
-0.122162
-0.114367
-0.0948217
-0.0823979
-0.0672306
-0.0555398
-0.0443356
-0.0353354
-0.0275577
-0.0213548
-0.0163009
-0.0123597
-0.00924755
-0.00677591
-0.00485423
-0.327045
-0.31191
-0.176727
-0.155701
-0.142198
-0.119508
-0.111686
-0.0922898
-0.0803199
-0.0655628
-0.0543284
-0.0434797
-0.0347988
-0.027251
-0.02122
-0.0162703
-0.0123872
-0.00928876
-0.00681435
-0.00488193
-0.322339
-0.310228
-0.178479
-0.15474
-0.140777
-0.116913
-0.109084
-0.0898267
-0.0782835
-0.0639109
-0.0531093
-0.0425976
-0.0342224
-0.0268955
-0.0210325
-0.0161874
-0.0123661
-0.00928783
-0.00681887
-0.00488116
-0.317782
-0.307276
-0.180068
-0.153528
-0.139312
-0.114368
-0.10655
-0.0874236
-0.0762829
-0.062272
-0.0518815
-0.0416897
-0.0336079
-0.0264937
-0.020795
-0.0160549
-0.0122989
-0.00924644
-0.00679032
-0.00485215
-0.313538
-0.303195
-0.181482
-0.152085
-0.1378
-0.111861
-0.104072
-0.0850727
-0.074313
-0.0606433
-0.0506439
-0.0407567
-0.0329568
-0.0260477
-0.02051
-0.0158753
-0.0121876
-0.00916623
-0.0067296
-0.00479518
-0.30976
-0.298171
-0.182709
-0.150433
-0.136235
-0.109386
-0.101643
-0.0827665
-0.0723689
-0.0590221
-0.0493957
-0.0397989
-0.0322705
-0.0255596
-0.02018
-0.0156509
-0.0120342
-0.00904878
-0.00663757
-0.00471066
-0.306581
-0.292417
-0.183746
-0.148592
-0.134616
-0.106933
-0.0992529
-0.0804984
-0.0704463
-0.0574062
-0.0481362
-0.0388169
-0.0315502
-0.0250313
-0.0198071
-0.015384
-0.0118406
-0.0088956
-0.00651513
-0.00459906
-0.304107
-0.286145
-0.18459
-0.146582
-0.132938
-0.104497
-0.096895
-0.0782622
-0.0685409
-0.0557933
-0.0468645
-0.0378111
-0.0307974
-0.0244646
-0.0193934
-0.0150765
-0.0116085
-0.00870816
-0.00636311
-0.00446097
-0.30241
-0.27955
-0.185244
-0.144421
-0.131201
-0.102071
-0.0945622
-0.0760523
-0.0666492
-0.0541813
-0.04558
-0.0367821
-0.0300131
-0.0238612
-0.0189408
-0.0147304
-0.0113398
-0.00848784
-0.0061824
-0.00429701
-0.30153
-0.272796
-0.185712
-0.142126
-0.129402
-0.0996496
-0.0922483
-0.0738636
-0.0647675
-0.0525683
-0.0442822
-0.0357301
-0.0291985
-0.0232229
-0.0184513
-0.0143474
-0.0110359
-0.00823597
-0.00597381
-0.00410784
-0.30148
-0.266016
-0.185997
-0.139713
-0.127541
-0.097228
-0.0899477
-0.0716913
-0.0628928
-0.0509527
-0.0429704
-0.0346557
-0.0283547
-0.0225509
-0.0179264
-0.0139292
-0.0106984
-0.00795384
-0.0057382
-0.00389415
-0.302245
-0.259307
-0.186105
-0.137195
-0.125616
-0.0948016
-0.0876553
-0.0695312
-0.0610221
-0.0493326
-0.0416442
-0.0335593
-0.0274826
-0.0218469
-0.0173679
-0.0134774
-0.0103288
-0.00764266
-0.00547637
-0.00365662
-0.303793
-0.252735
-0.18604
-0.134583
-0.123627
-0.0923665
-0.0853663
-0.0673792
-0.0591527
-0.0477068
-0.0403031
-0.0324411
-0.0265832
-0.0211121
-0.0167772
-0.0129935
-0.00992839
-0.00730359
-0.00518915
-0.00339597
-0.306075
-0.246344
-0.185807
-0.131886
-0.121573
-0.0899189
-0.0830767
-0.0652317
-0.0572822
-0.0460738
-0.0389468
-0.0313017
-0.0256575
-0.0203478
-0.0161557
-0.0124788
-0.00949859
-0.00693774
-0.0048773
-0.00311293
-0.309032
-0.240156
-0.185409
-0.129112
-0.119455
-0.0874554
-0.0807827
-0.0630854
-0.0554085
-0.0444323
-0.0375749
-0.0301414
-0.0247061
-0.0195552
-0.0155049
-0.0119348
-0.00904065
-0.00654618
-0.00454162
-0.00280827
-0.312597
-0.234181
-0.184849
-0.126267
-0.11727
-0.0849731
-0.0784808
-0.0609373
-0.0535296
-0.0427812
-0.0361872
-0.0289604
-0.0237301
-0.0187355
-0.0148259
-0.0113627
-0.0085558
-0.00612991
-0.00418286
-0.00248272
-0.316697
-0.228418
-0.184129
-0.123356
-0.115018
-0.0824691
-0.076168
-0.0587846
-0.0516435
-0.0411194
-0.0347835
-0.0277594
-0.0227301
-0.0178898
-0.01412
-0.0107638
-0.00804519
-0.00568992
-0.00380177
-0.00213702
-0.321257
-0.222857
-0.18325
-0.120383
-0.1127
-0.0799407
-0.0738415
-0.0566248
-0.0497489
-0.039446
-0.0333635
-0.0265384
-0.021707
-0.017019
-0.0133883
-0.0101391
-0.00750995
-0.00522716
-0.00339914
-0.00177192
-0.326197
-0.217486
-0.182213
-0.117349
-0.110315
-0.0773856
-0.0714988
-0.0544554
-0.0478441
-0.0377601
-0.0319273
-0.025298
-0.0206614
-0.0161242
-0.012632
-0.00948981
-0.00695117
-0.00474254
-0.00297574
-0.00138813
-0.33144
-0.212287
-0.181016
-0.114258
-0.107862
-0.0748015
-0.0691379
-0.0522744
-0.0459281
-0.0360608
-0.0304748
-0.0240383
-0.0195941
-0.0152063
-0.011852
-0.00881698
-0.0063699
-0.00423694
-0.00253237
-0.000986411
-0.336904
-0.207241
-0.179659
-0.111109
-0.10534
-0.0721861
-0.0667567
-0.0500798
-0.0439996
-0.0343475
-0.029006
-0.0227598
-0.0185058
-0.0142662
-0.0110495
-0.00812163
-0.00576718
-0.00371122
-0.00206983
-0.000567625
-0.342512
-0.202328
-0.178139
-0.107902
-0.10275
-0.0695374
-0.0643537
-0.0478698
-0.0420581
-0.0326191
-0.0275211
-0.0214627
-0.0173973
-0.0133048
-0.0102253
-0.00740484
-0.00514392
-0.00316618
-0.00158888
-0.000132726
-0.348184
-0.197525
-0.176454
-0.104636
-0.100091
-0.0668534
-0.0619273
-0.0456423
-0.040103
-0.030875
-0.0260201
-0.0201474
-0.0162694
-0.0123232
-0.00938044
-0.00666769
-0.00450099
-0.00260251
-0.00109026
0.000317316
-0.353846
-0.192809
-0.174601
-0.101311
-0.0973616
-0.0641322
-0.0594767
-0.0433951
-0.0381342
-0.0291148
-0.0245032
-0.0188147
-0.0151223
-0.0113221
-0.0085158
-0.00591111
-0.00383928
-0.00202101
-0.000574759
0.000781854
-0.359422
-0.188157
-0.172578
-0.0979244
-0.0945631
-0.0613719
-0.0570017
-0.0411262
-0.0361511
-0.0273387
-0.02297
-0.017466
-0.0139561
-0.0103022
-0.00763237
-0.00513573
-0.00315979
-0.00142266
-4.34936e-05
0.00126122
-0.364843
-0.183546
-0.170381
-0.0944739
-0.0916948
-0.0585696
-0.0545026
-0.0388351
-0.0341518
-0.0255471
-0.021421
-0.0161013
-0.0127717
-0.009263
-0.0067317
-0.00434193
-0.00246351
-0.000808335
0.000501581
0.00175746
-0.370038
-0.178954
-0.168007
-0.0909572
-0.088757
-0.0557226
-0.0519792
-0.0365229
-0.0321349
-0.0237385
-0.0198594
-0.0147153
-0.0115744
-0.00820301
-0.00581611
-0.00352975
-0.00175175
-0.000178146
0.00105774
0.0022738
-0.374944
-0.174358
-0.165452
-0.0873711
-0.0857509
-0.0528287
-0.049429
-0.0341895
-0.0301046
-0.021904
-0.0182946
-0.0132959
-0.0103749
-0.0071202
-0.00488777
-0.00269933
-0.00102637
0.00046834
0.00162366
0.0028109
-0.379499
-0.169735
-0.162714
-0.0837118
-0.0826781
-0.0498891
-0.0468483
-0.0318254
-0.0280771
-0.020024
-0.0167423
-0.0118354
-0.0091791
-0.00601606
-0.00394571
-0.00185317
-0.000287739
0.00112905
0.00220417
0.00336052
-0.383644
-0.165066
-0.159789
-0.0799746
-0.0795399
-0.0469052
-0.0442431
-0.0294033
-0.0260797
-0.0180787
-0.0152089
-0.0103489
-0.00797068
-0.00490261
-0.00298259
-0.000998148
0.000470631
0.00179411
0.00281019
0.00390876
-0.387325
-0.160328
-0.156676
-0.0761552
-0.0763351
-0.0438667
-0.0416463
-0.0268844
-0.0241262
-0.0160865
-0.0136607
-0.00888251
-0.00671294
-0.00379543
-0.00199702
-0.000132642
0.00124236
0.0024707
0.00343394
0.00446041
-0.390492
-0.155503
-0.153372
-0.0722524
-0.0730634
-0.0407336
-0.0391153
-0.0242651
-0.0221684
-0.0141402
-0.0120282
-0.00744115
-0.00541946
-0.00268374
-0.000995985
0.00074577
0.00202486
0.00316086
0.00406989
0.00501956
-0.393099
-0.150572
-0.149877
-0.0682656
-0.0697396
-0.0374433
-0.0366695
-0.0216421
-0.0201079
-0.0122483
-0.0103404
-0.00600649
-0.00410548
-0.00156011
1.62525e-05
0.00163738
0.00281731
0.0038643
0.00471535
0.00558802
-0.395103
-0.145517
-0.14619
-0.0641809
-0.066411
-0.0339902
-0.0341867
-0.0191028
-0.0179553
-0.0103835
-0.00861979
-0.00456519
-0.00278004
-0.000421603
0.00103794
0.00254127
0.00361958
0.00457972
0.00536934
0.00616585
-0.396466
-0.140319
-0.142309
-0.0599486
-0.0631375
-0.0305394
-0.0315189
-0.0166282
-0.0157391
-0.00852451
-0.00688141
-0.00311006
-0.00144741
0.000731658
0.0020686
0.00345621
0.00443141
0.00530582
0.0060315
0.00675242
-0.397154
-0.134962
-0.138234
-0.0554969
-0.0599008
-0.0271271
-0.0287132
-0.0141855
-0.0134816
-0.00665828
-0.0051331
-0.00163861
-0.000108954
0.00189831
0.00310808
0.00438101
0.00525236
0.00604146
0.00670154
0.00734683
-0.397137
-0.129434
-0.133983
-0.0508442
-0.0565676
-0.0238095
-0.0258094
-0.0117513
-0.0111969
-0.00477774
-0.00337887
-0.000150939
0.00123525
0.0030766
0.00415616
0.00531467
0.00608181
0.00678573
0.00737909
0.00794821
-0.396389
-0.123725
-0.1296
-0.0462108
-0.0529541
-0.020535
-0.0228352
-0.00931114
-0.00889389
-0.00287967
-0.00162025
0.00135165
0.00258543
0.00426493
0.00521243
0.0062563
0.00691905
0.00753783
0.00806367
0.00855576
-0.394887
-0.117811
-0.125124
-0.0414969
-0.0491475
-0.017272
-0.0198076
-0.00685613
-0.00657784
-0.000963221
0.00014234
0.00286738
0.00394176
0.00546187
0.00627628
0.00720507
0.00776334
0.00829704
0.0087547
0.0091688
-0.392613
-0.11162
-0.120502
-0.0367618
-0.0451927
-0.014
-0.0167381
-0.00438133
-0.00425182
0.000971128
0.00190897
0.00439442
0.0053042
0.00666623
0.00734701
0.00816022
0.00861393
0.00906268
0.00945156
0.00978664
-0.389553
-0.105057
-0.115679
-0.032091
-0.0411189
-0.0107073
-0.0136343
-0.00188419
-0.0019176
0.00292215
0.0036798
0.00593107
0.00667247
0.00787696
0.00842384
0.00912098
0.00947012
0.00983403
0.0101536
0.0104086
-0.385697
-0.0981745
-0.110665
-0.0274208
-0.0369429
-0.00738604
-0.0105015
0.000636247
0.000423786
0.00488829
0.00545492
0.00747579
0.00804606
0.00909313
0.00950596
0.0100866
0.0103312
0.0106104
0.0108602
0.0110342
-0.381039
-0.0912909
-0.105237
-0.0227204
-0.0326766
-0.00403177
-0.00734349
0.00317987
0.00277169
0.00686781
0.00723425
0.00902719
0.00942436
0.0103138
0.0105925
0.0110562
0.0111964
0.0113911
0.0115706
0.0116626
-0.375576
-0.0842857
-0.0994929
-0.017971
-0.0283289
-0.000641821
-0.00416324
0.00574586
0.00512563
0.00885898
0.00901749
0.010584
0.0108066
0.0115382
0.0116827
0.0120291
0.012065
0.0121754
0.0122841
0.0122937
-0.369314
-0.0771071
-0.093477
-0.0131616
-0.0239068
0.00278502
-0.000962959
0.00833293
0.00748514
0.0108601
0.0108042
0.012145
0.012192
0.0127653
0.0127757
0.0130046
0.0129363
0.0129627
0.0130002
0.012927
-0.36229
-0.0697014
-0.0872152
-0.00828594
-0.0194161
0.00624893
0.00225546
0.0109395
0.00984969
0.0128695
0.0125938
0.0137092
0.0135797
0.0139943
0.0138705
0.0139817
0.0138097
0.0137521
0.0137181
0.0135623
-0.354571
-0.0620045
-0.0807244
-0.00334085
-0.0148618
0.00974933
0.00549031
0.0135638
0.0122187
0.0148855
0.0143854
0.0152753
0.0149687
0.0152244
0.0149665
0.0149597
0.0146843
0.0145431
0.0144374
0.0141988
-0.346149
-0.0540298
-0.0740182
0.00167499
-0.0102485
0.013285
0.00874
0.0162039
0.0145913
0.0169066
0.0161783
0.0168424
0.0163581
0.0164546
0.0160626
0.0159379
0.0155596
0.0153349
0.0151574
0.0148357
-0.336784
-0.0459817
-0.0671091
0.00676174
-0.00558042
0.0168543
0.012003
0.0188577
0.0169667
0.0189313
0.0179715
0.0184093
0.017747
0.017684
0.017158
0.0169154
0.0164347
0.016127
0.0158773
0.0154722
-0.326542
-0.0378332
-0.0600077
0.0119187
-0.000861527
0.0204553
0.0152775
0.0215233
0.0193438
0.0209581
0.019764
0.019975
0.0191343
0.0189117
0.0182519
0.0178914
0.0173089
0.0169185
0.0165965
0.0161087
-0.315506
-0.029532
-0.052724
0.0171444
0.00390416
0.0240855
0.018562
0.0241985
0.0217215
0.0229853
0.0215546
0.0215384
0.0205191
0.0201367
0.0193433
0.0188651
0.0181816
0.0177086
0.0173143
0.0167465
-0.303707
-0.0210632
-0.0452676
0.0224366
0.00871268
0.0277424
0.0218546
0.0268812
0.0240986
0.0250117
0.0233421
0.0230983
0.0219003
0.0213582
0.0204313
0.0198356
0.0190518
0.0184967
0.0180303
0.0173858
-0.291172
-0.0124223
-0.0376481
0.0277925
0.01356
0.0314232
0.0251534
0.0295691
0.0264737
0.0270355
0.0251255
0.0246537
0.0232769
0.0225751
0.0215152
0.0208023
0.0199191
0.019282
0.0187438
0.0180236
-0.277932
-0.00360932
-0.0298753
0.0332088
0.0184421
0.0351249
0.0284564
0.0322601
0.0288453
0.0290554
0.0269035
0.0262033
0.0246479
0.0237865
0.0225938
0.0217643
0.0207825
0.0200641
0.0194538
0.0186551
-0.264013
0.0053724
-0.0219593
0.0386816
0.0233546
0.0388444
0.0317613
0.0349518
0.0312119
0.0310697
0.0286747
0.027746
0.0260122
0.0249914
0.0236664
0.0227206
0.0216414
0.0208423
0.02016
0.0192813
-0.249447
0.0145175
-0.0139102
0.0442067
0.0282934
0.0425785
0.0350659
0.0376421
0.0335718
0.0330769
0.0304378
0.0292807
0.0273687
0.0261888
0.024732
0.0236704
0.0224949
0.0216159
0.0208633
0.0199142
-0.234266
0.023819
-0.00573841
0.0497792
0.0332538
0.0463237
0.0383679
0.0403286
0.0359233
0.0350755
0.0321916
0.0308061
0.0287163
0.0273778
0.0257896
0.0246127
0.023342
0.0223842
0.0215652
0.0205664
-0.218502
0.0332683
0.00254523
0.0553942
0.0382314
0.0500764
0.0416646
0.0430089
0.0382648
0.0370637
0.0339346
0.032321
0.030054
0.0285572
0.0268382
0.0255468
0.024182
0.0231463
0.0222634
0.021224
-0.202188
0.0428558
0.0109297
0.0610461
0.0432212
0.0538331
0.0449535
0.0456807
0.0405942
0.03904
0.0356655
0.0338243
0.0313806
0.0297262
0.027877
0.0264719
0.0250145
0.0239005
0.0229478
0.021839
-0.185362
0.052571
0.0194036
0.0667292
0.0482185
0.0575901
0.0482318
0.0483415
0.0429098
0.0410028
0.0373828
0.0353146
0.032695
0.0308836
0.0289051
0.0273875
0.0258389
0.0246443
0.023606
0.0223815
-0.168059
0.0624022
0.0279554
0.0724374
0.0532182
0.0613434
0.0514968
0.0509888
0.0452096
0.0429503
0.0390851
0.0367907
0.0339961
0.0320286
0.0299217
0.0282927
0.0266538
0.0253749
0.0242417
0.0229181
-0.150316
0.0723372
0.0365731
0.0781644
0.058215
0.0650892
0.0547454
0.0536203
0.0474917
0.0448808
0.040771
0.0382513
0.0352828
0.03316
0.0309257
0.0291862
0.0274567
0.0260938
0.0248881
0.0235915
-0.132173
0.0823627
0.0452445
0.0839035
0.0632036
0.0688234
0.0579747
0.0562333
0.049754
0.0467927
0.042439
0.0396953
0.036554
0.0342769
0.0319161
0.030066
0.0282452
0.0268074
0.0255847
0.0244489
-0.113669
0.0924651
0.0539571
0.089648
0.0681786
0.0725421
0.0611817
0.0588253
0.0519945
0.0486842
0.0440875
0.0411212
0.0378084
0.0353784
0.0328916
0.0309305
0.0290197
0.0275223
0.02632
0.0252882
-0.0948443
0.10263
0.0626984
0.0953908
0.0731343
0.076241
0.0643631
0.0613938
0.0542111
0.0505536
0.0457152
0.0425279
0.0390452
0.0364633
0.0338511
0.0317791
0.029783
0.028235
0.0270039
0.0257757
-0.0757394
0.112843
0.0714553
0.101125
0.0780652
0.079916
0.0675158
0.063936
0.0564017
0.0523991
0.0473206
0.0439141
0.0402631
0.0375306
0.0347937
0.0326127
0.0305378
0.0289282
0.0275375
0.025849
-0.0563962
0.123088
0.0802148
0.106842
0.0829654
0.0835629
0.0706366
0.0664495
0.0585642
0.054219
0.0489021
0.0452786
0.041461
0.0385792
0.0357188
0.0334326
0.0312834
0.0295817
0.0279193
0.0258055
-0.0368567
0.13335
0.0889636
0.112536
0.0878291
0.0871773
0.0737222
0.0689316
0.0606965
0.0560115
0.0504582
0.04662
0.0426377
0.0396082
0.0366262
0.0342392
0.0320142
0.0301868
0.0282512
0.0262947
-0.0171633
0.143613
0.0976885
0.118198
0.0926503
0.0907549
0.0767692
0.0713795
0.0627964
0.0577748
0.0519875
0.0479371
0.0437922
0.0406166
0.0375158
0.0350315
0.0327239
0.030754
0.0286354
0.026883
0.00264139
0.15386
0.106376
0.123821
0.097423
0.0942913
0.0797742
0.0737907
0.0648617
0.0595071
0.0534885
0.0492286
0.0449233
0.0416036
0.0383871
0.0358076
0.0334095
0.0312989
0.0290755
0.0274721
0.0225144
0.164074
0.115012
0.129397
0.102141
0.0977823
0.082734
0.0761625
0.0668903
0.0612066
0.0549595
0.0504932
0.0460299
0.0425686
0.0392394
0.0365656
0.0340712
0.0318343
0.0295558
0.028029
0.0424129
0.17424
0.123584
0.134917
0.106799
0.101223
0.085645
0.0784922
0.0688799
0.0628716
0.0563993
0.0517297
0.0471108
0.0435107
0.040072
0.0373036
0.034711
0.0323653
0.030056
0.0285551
0.0622939
0.184339
0.132077
0.140375
0.11139
0.10461
0.0885038
0.0807771
0.0708285
0.0645004
0.0578062
0.0529368
0.0481652
0.0444292
0.0408836
0.0380206
0.0353307
0.0328929
0.0305608
0.0290525
0.0821144
0.194356
0.140478
0.145761
0.115907
0.107938
0.0913072
0.0830146
0.0727338
0.0660911
0.0591787
0.0541133
0.0491919
0.0453231
0.0416733
0.0387158
0.0359321
0.0334153
0.0310614
0.0295265
0.101832
0.204272
0.148773
0.151068
0.120346
0.111203
0.0940515
0.0852019
0.0745938
0.067642
0.0605156
0.0552578
0.0501899
0.0461917
0.0424399
0.039389
0.0365158
0.03393
0.0315519
0.0299792
0.121404
0.21407
0.156948
0.156287
0.1247
0.1144
0.0967336
0.0873366
0.0764062
0.0691514
0.0618151
0.0563693
0.0511582
0.0470339
0.0431826
0.0400397
0.0370821
0.0344342
0.0320294
0.0304124
0.140788
0.223734
0.164991
0.161411
0.128963
0.117525
0.0993499
0.0894159
0.078169
0.0706175
0.063076
0.0574465
0.0520959
0.0478489
0.0439005
0.0406677
0.0376306
0.0349257
0.0324919
0.0308267
0.159944
0.233245
0.172887
0.166432
0.133128
0.120575
0.101897
0.0914373
0.0798801
0.0720388
0.0642968
0.0584882
0.0530019
0.0486357
0.0445928
0.0412727
0.0381607
0.0354026
0.0329382
0.0312223
0.178829
0.242588
0.180624
0.171342
0.13719
0.123544
0.104372
0.0933983
0.0815374
0.0734134
0.0654762
0.0594933
0.0538752
0.0493935
0.0452587
0.0418543
0.0386715
0.0358634
0.0333674
0.0315992
0.197403
0.251745
0.188188
0.176133
0.141143
0.126428
0.106771
0.0952962
0.0831388
0.0747398
0.0666127
0.0604606
0.0547149
0.0501214
0.0458976
0.0424119
0.0391624
0.0363068
0.0337786
0.0319572
0.215627
0.2607
0.195566
0.180796
0.144981
0.129223
0.109092
0.0971287
0.0846825
0.0760164
0.0677049
0.0613891
0.05552
0.0508185
0.0465088
0.042945
0.0396324
0.0367316
0.0341711
0.0322963
0.233461
0.269436
0.202745
0.185325
0.148698
0.131925
0.11133
0.0988932
0.0861663
0.0772415
0.0687517
0.0622776
0.0562895
0.051484
0.0470916
0.0434531
0.0400808
0.0371371
0.0345445
0.0326161
0.250867
0.277937
0.209714
0.189712
0.152289
0.134531
0.113483
0.100588
0.0875885
0.0784137
0.0697517
0.0631251
0.0570227
0.0521171
0.0476453
0.0439355
0.0405068
0.0375224
0.034898
0.0329165
0.267808
0.286187
0.216459
0.19395
0.155748
0.137036
0.115548
0.102209
0.0889471
0.0795314
0.0707036
0.0639305
0.0577184
0.0527171
0.0481694
0.0443916
0.0409097
0.0378868
0.0352313
0.0331973
0.284247
0.29417
0.222969
0.198031
0.159069
0.139435
0.117522
0.103756
0.0902403
0.0805931
0.0716063
0.0646928
0.058376
0.0532832
0.0486632
0.0448209
0.041289
0.0382297
0.0355438
0.0334583
0.300149
0.301872
0.229231
0.201948
0.162248
0.141727
0.119402
0.105226
0.0914663
0.0815976
0.0724586
0.0654112
0.0589945
0.0538147
0.0491261
0.0452227
0.0416439
0.0385504
0.035835
0.0336993
0.315479
0.309277
0.235236
0.205694
0.165278
0.143906
0.121185
0.106616
0.0926234
0.0825433
0.0732593
0.0660845
0.0595732
0.0543109
0.0495575
0.0455966
0.0419739
0.0388484
0.0361047
0.0339202
0.330204
0.316371
0.240971
0.209264
0.168156
0.14597
0.122869
0.107925
0.0937099
0.0834289
0.0740073
0.0667119
0.0601113
0.0547711
0.0499568
0.0459419
0.0422785
0.0391231
0.0363523
0.0341209
0.344293
0.323141
0.246426
0.212649
0.170877
0.147915
0.12445
0.109151
0.0947243
0.0842532
0.0747017
0.0672926
0.060608
0.0551948
0.0503235