/*--------------------------------*- C++ -*----------------------------------*\
  =========                 |
  \\      /  F ield         | OpenFOAM: The Open Source CFD Toolbox
   \\    /   O peration     | Website:  https://openfoam.org
    \\  /    A nd           | Version:  7
     \\/     M anipulation  |
\*---------------------------------------------------------------------------*/
FoamFile
{
    version     2.0;
    format      ascii;
    class       volScalarField;
    location    "0.319";
    object      T;
}
// * * * * * * * * * * * * * * * * * * * * * * * * * * * * * * * * * * * * * //

dimensions      [0 2 -2 0 0 0 0];

internalField   nonuniform List<scalar> 
12359
(
-3.62175e-84
-6.5021e-68
3.23965e-233
-2.10783e-44
-9.51108e-77
-3.7981e-30
1.46285e-25
1.13082e-27
2.78458e-19
3.83969e-33
-3.40947e-22
-4.47873e-14
0.0542804
2.42552e-41
-3.50545e-47
-8.76302e-07
2.23669e-05
1.05176e-126
-9.34461e-130
-2.99294e-56
-1.8745e-38
1.03162e-16
-1.27277e-61
-4.15138e-53
1.2146e-64
7.40395e-59
-2.36519e-168
1.44785e-171
-2.41419e-136
-4.82027e-159
-3.05864e-152
1.39627e-188
-3.72826e-208
-1.47312e-162
-5.94428e-222
5.40758e-149
-1.84504e-102
1.32141e-87
-5.27961e-80
-4.57631e-93
-6.86344e-71
2.15111e-90
9.38108e-111
-5.34547e-114
7.63245e-143
1.32946e-140
-7.88022e-146
1.59033e-155
5.92975e-133
2.90392e-165
-6.53056e-175
-1.53939e-182
-6.92681e-192
-7.76221e-124
-4.01645e-199
5.74376e-205
1.63318e-117
2.03198e-211
-9.61232e-215
3.96976e-218
-5.61968e-202
3.80334e-227
2.03758e-178
4.21227
4.51881e-122
5.33313e-36
2.66061e-105
-2.76471e-185
-2.75342e-99
1.4527e-09
88.0781
1.71961e-73
9.26071e-237
6.69331e-96
1.14002e-49
-2.23856e-224
4.19623e-195
-5.06404e-230
-4.94866e-108
1.02657e-11
-7.4598e-33
5.25222e-151
-9.8034e-319
-6.6091e-93
0.000364921
-4.39422e-103
1.21647e-148
-1.358e-208
0.133478
9.91497e-05
3.28865e-264
1.95339
2.89119e-266
-5.86838e-122
-6.43335e-98
1.06607e-79
1.66066e-127
-5.02424e-122
-6.12219e-62
-4.84426e-77
2.15208e-27
4.03824e-256
-2.6946e-103
14.8966
-5.56888e-161
1.40061e-40
-1.03447e-271
0.000448634
2.41495e-111
4.4245e-42
2.23034e-130
9.75939e-150
-6.70231e-38
5.48115e-32
-1.96974e-98
4.1565e-187
-5.27667e-31
-2.02769e-150
0.579927
-3.91675e-315
3.5084e-131
-2.77554e-28
-4.24498e-207
1.5341e-58
-2.14818e-150
-2.02126e-176
1.40711e-20
-2.89037e-92
1.10855e-231
-2.01874e-150
-5.33674e-186
7.51046e-13
2.73942e-10
8.87045e-11
-3.07444e-275
2.73223e-58
-1.07879e-185
-7.69036e-61
-1.68745e-250
9.27093e-22
4.8234e-304
5.53645e-83
5.43307e-55
1.49341e-272
9.70309e-25
-1.11371e-33
1.45404e-320
0.000112764
-9.01102e-160
3.77725e-31
1.52788e-78
-6.70814e-253
7.66131e-54
8.3342e-205
3.45978e-273
108.896
1.58535e-28
3.71899e-13
6.83043e-128
-4.99425e-197
-2.74515e-43
-1.67556e-195
4.96292e-59
1.63268e-55
-6.86939e-302
-2.88294e-178
-2.44316e-45
-2.97517e-28
2.79054e-57
0.144034
-5.5647e-228
-7.66204e-226
1.2026e-59
1.15713e-66
-5.71862e-163
3.43772e-22
1.96747e-142
2.38255e-144
1.25656e-37
2.00777e-23
-4.10333e-44
2.04322e-271
1.77726e-231
5.3875e-150
-1.378e-63
-8.86153e-19
-9.24214e-125
-1.32125e-102
2.33294e-76
-1.11474e-123
-8.01785e-101
1.80295e-81
4.61961e-82
-6.87834e-203
6.0617e-42
19.2745
7.76404e-83
-3.58434e-125
-1.67608e-53
-9.54729e-150
-3.87414e-32
2.68614e-77
-4.25808e-76
1.25789e-42
7.50675e-29
1.01795e-272
2.67747e-27
-1.35045e-74
1.77e-52
6.15274e-135
7.51738e-294
4.28098e-28
2.13568e-27
145.177
-3.56992e-18
1.38665e-248
-8.39774e-125
-4.94195e-100
-1.11974e-123
5.11507e-81
2.35071e-32
3.04151e-136
5.23064e-60
2.074
6.79283e-150
1.37946e-293
2.12301e-79
1.91241e-113
5.89184e-24
3.49438e-121
4.09284e-120
-2.64396e-305
8.98949e-25
4.49445e-71
-6.16221e-105
1.38553e-72
-2.30547e-314
6.65301e-51
-3.35349e-102
1.29542e-05
5.86145e-291
1.12881e-98
-3.96006e-111
5.93732e-12
-2.17353e-41
0.000157764
6.66135e-217
8.40216e-54
-7.85772e-171
4.00155e-82
1.31974e-36
-6.25481e-91
-2.80781e-148
4.81634e-120
0.764971
115.653
3.42064e-313
5.83157e-142
0.788863
140.396
-1.13067e-75
3.78641e-42
1.78464e-26
5.62413e-43
1.06846e-68
51.4099
0.466833
3.8638e-39
1.06259e-143
8.90587e-58
1.85753e-58
5.4591e-64
5.70782e-56
-2.21273e-123
4.50791e-138
1.48388e-293
3.28339e-140
4.13271
5.54567e-39
3.89616e-253
-4.25379e-254
3.74733e-43
-9.711e-146
-1.27888e-106
1.3258e-100
-2.64479e-307
1.44999e-26
-2.69322e-254
-2.16073e-255
1.74582e-190
1.99645e-60
2.40967e-153
43.8227
-7.43885e-274
-3.92043e-270
-9.02471e-102
3.4932e-172
2.38347e-33
-2.17e-103
1.60222e-179
-3.22897e-264
3.35534
3.14254e-25
1.90372e-264
-9.43335e-125
-3.86833e-105
2.32062e-168
-1.50343e-185
4.75e-187
-5.54707e-166
-6.23112e-134
-9.58002e-19
-4.07494e-169
1.30233e-153
4.26369e-89
1.67299e-46
0.119853
-3.74587e-165
-7.06887e-65
1.42477e-07
-3.63256e-255
7.55186e-64
-4.17563e-250
3.74988e-81
-1.6485e-270
-3.9902e-165
5.39142e-20
2.49001e-59
-5.73316e-20
-3.18514e-108
-7.47176e-112
7.76302e-83
3.09319e-79
-1.24627e-110
1.31061e-83
4.64441e-83
-9.90846e-230
2.55875e-204
7.37216e-205
4.85734e-203
7.05922e-203
8.1987e-05
2.18386e-306
6.69359e-31
7.0434e-63
-1.44486e-66
5.30775e-53
2.99858e-58
-1.28094e-101
-2.21936e-85
4.51833e-59
-7.81788e-85
-1.0956e-65
1.05661e-42
1.73182e-41
2.16254e-37
1.98239e-81
1.46076e-18
1.90829e-84
3.24899e-84
1.62566e-53
3.41236e-24
-1.32444e-150
3.03729e-197
5.79513e-82
2.39173e-199
2.7847e-149
149.427
13.9399
2.07853e-149
-5.9973e-246
3.25513e-276
-2.19897e-279
2.64366e-60
5.57732e-271
1.02706e-272
0.244634
1.0197e-55
7.57826e-05
-7.40426e-150
7.31118e-48
-2.27409e-147
-1.44822e-109
4.14645e-39
3.91349e-83
-6.4512e-46
6.04012e-85
1.37421e-152
-6.51739e-252
8.46085e-57
2.4063e-48
-2.72029e-153
9.72524e-14
-3.40718e-40
4.84242e-80
-2.5889e-55
-4.05547e-46
3.8867e-247
6.93355
1.90936e-17
-3.39536e-148
1.33185e-12
6.99952e-86
1.19858e-302
6.58842e-302
-2.72457e-284
0.000163173
2.33347e-25
-1.83195e-63
8.49015e-66
1.2708e-79
-5.88232e-96
5.27158e-45
-1.12848e-56
2.98226e-21
0.154122
1.65432e-12
-1.70257e-65
1.37084e-38
1.99199e-109
3.85974e-38
2.35186e-89
3.91511e-80
-1.332e-162
2.86584e-90
6.45138e-58
9.94173e-270
130.446
-2.41527e-105
0.00261323
5.48103e-51
-8.41389e-118
5.5429e-36
0.597317
2.8153e-56
-7.48696e-80
5.82449e-81
2.41487e-49
1.37433e-37
4.46426e-146
-3.70416e-292
2.52853e-30
-3.16202e-268
1.72534e-13
-3.17288e-184
1.69458e-60
1.02651e-42
1.94055e-130
0.0016415
5.82677e-30
-1.05249e-78
7.50818e-141
1.75653e-06
-4.64392e-236
-1.25741e-154
8.08345e-21
-2.59472e-244
1.76328e-141
-4.19233e-156
6.98409e-09
13.6602
-1.04828e-94
-6.93229e-215
-6.35738e-40
-7.35535e-48
1.25808e-64
2.6667e-51
1.71136e-57
-3.83176e-228
-2.96188e-281
-5.351e-53
5.23929e-261
5.13618e-44
5.13749e-65
4.55713e-39
-1.91555e-146
6.78285e-32
1.56397e-19
1.10671e-161
-7.80065e-97
-2.09693e-151
-3.21271e-35
7.59752e-21
3.95836e-250
-4.04661e-51
1.14963e-60
5.7944e-112
-2.39512e-49
-2.62217e-183
8.30813e-26
-7.80612e-93
4.14227e-55
5.63497e-40
-3.49221e-226
1.55443e-97
5.45584e-13
2.60045e-09
8.5177e-263
-3.4602e-76
3.26329e-12
1.61014e-72
0.420776
-1.31483e-285
-6.79347e-186
-5.98838e-234
2.99008e-52
-5.8073e-77
-3.06534e-87
-1.60177e-181
2.8933e-54
1.88667e-77
-4.40187e-70
-4.64618e-139
2.07563e-05
1.02059e-262
6.4965e-05
-1.21398e-210
141.514
-1.51974e-91
5.46784e-14
8.19497e-215
1.2081e-147
6.33226e-45
6.39308e-152
3.93143e-181
9.47705e-111
2.22497e-74
-3.38389e-75
1.37414e-14
4.08455e-33
1.05751e-33
4.09235e-320
1.00561e-152
3.83049e-62
4.82813e-09
2.45605e-319
1.19352e-258
1.84974e-59
-1.9911e-231
-2.57616e-21
0.737454
43.7648
1.3871e-317
-5.41492e-103
2.59096e-35
-2.83295e-84
-3.46834e-164
82.2687
3.80046e-262
9.06528e-29
2.57406e-41
7.48e-104
-2.96036e-167
1.67256e-177
3.22611e-132
6.24564e-64
2.33561e-86
-8.013e-93
-2.25521e-315
-4.79608e-230
-1.26972e-78
-2.27559e-143
1.70804e-35
6.39247e-53
9.64548e-189
-1.70811e-255
9.90816e-42
127.438
-4.07e-155
6.03812e-22
2.30041e-278
-7.26003e-92
2.92748e-29
1.6735e-74
7.76316e-38
7.75965e-35
-6.62294e-77
2.07079e-57
-9.12019e-298
2.30236e-221
4.09561e-78
-2.41908e-94
-6.95376e-78
1.70824e-97
3.44241e-276
-1.62744e-254
-6.90846e-177
-1.44688e-61
5.94637e-51
-1.53456e-40
-5.47901e-104
-4.36092e-38
-2.34322e-54
1.08243e-78
-7.84745e-37
2.06524e-65
0.0038085
2.92327e-54
-4.71673e-64
1.74254e-37
-1.14715e-224
3.80631e-30
2.60234e-44
-3.86853e-321
2.77155e-244
-3.30255e-230
-9.44488e-221
3.65663e-09
-7.87708e-78
3.02779e-120
-1.21885e-39
5.40022e-110
4.80904e-19
1.14886e-73
6.46592e-63
-1.0867e-175
3.16735e-16
5.33426e-277
-6.58865e-61
-1.28772e-141
6.40664e-23
-4.62407e-37
-8.77307e-83
2.83631e-79
6.11218
1.07082e-56
9.84234e-18
2.46325e-88
7.09185e-14
0.314441
3.04563e-219
-3.66905e-149
6.3182e-278
5.52106e-11
3.76022e-149
3.90381e-86
0.00155383
5.30167e-260
-1.26904e-68
1.87057e-41
1.02887e-82
1.06247e-151
2.74535e-84
-8.07104e-203
-1.46125e-80
-2.50906e-201
-3.10318e-204
-6.12014e-86
1.94811e-58
1.84703e-59
6.0294e-81
-7.72338e-11
7.65125e-76
13.5259
1.30452e-54
8.11735e-102
-3.08924e-83
1.45203e-56
-5.15824e-65
5.81138e-81
0.279871
-2.26545e-43
-9.32425e-68
3.7887e-70
-2.68976e-132
6.64677e-145
1.77173e-42
-1.1332e-290
1.37622
2.13225e-192
-3.90418e-42
3.7037e-28
7.4523e-10
1.03137e-29
2.18959e-46
1.21519e-43
3.59725e-90
1.55368e-29
4.17051e-51
8.60057e-18
-2.76872e-69
1.81494e-19
2.05194e-69
-2.74424e-309
2.83929e-65
158.045
6.86898e-16
-3.31679e-120
-8.57303e-300
1.55423e-186
6.70361e-105
6.53268e-62
1.04605e-60
1.45958e-88
-1.89969e-229
4.78763e-117
-6.19279e-64
4.54238e-122
2.35124e-138
3.23151e-19
-2.03645e-119
1.20006e-54
9.3915e-43
-3.93037e-118
1.035e-111
6.33693e-34
3.31024e-322
-3.77323e-111
42.4365
-1.08604e-219
3.05048e-23
5.0372e-29
-3.75461e-113
5.14409e-40
2.23457e-42
-4.72322e-66
1.28962e-36
-5.32793e-151
-2.47682e-40
7.43033e-164
6.48388e-84
8.08568e-45
-2.76504e-38
-7.07554e-151
2.63572e-56
4.7786e-13
3.20716e-56
3.3736e-88
-2.35278e-148
3.17356e-29
6.40741e-08
-1.35654e-135
-1.128e-249
-6.54799e-67
1.06445e-267
0.365642
1.92389e-69
1.34762e-15
7.14729e-91
-6.62072e-91
6.95197
5.36892e-84
0.000385485
2.16542e-62
39.1448
7.40241e-62
-1.38347e-91
8.81293e-86
8.07053e-114
0.000548031
2.27728e-05
-9.09882e-216
-2.20575e-212
-1.81871e-35
-8.06147e-200
0.00101943
3.4662e-39
4.03011e-12
1.29136e-147
120.739
0.0409479
-2.95747e-69
-3.09252e-308
-1.96911e-156
-3.57717e-46
-5.68466e-104
-4.01664e-102
-3.73626e-100
5.1222e-58
1.36069e-52
10.6453
-3.98408e-10
-1.49035e-231
1.94311e-45
2.08841e-35
4.02295e-34
3.35093e-91
1.17341e-27
4.10315e-53
-7.66825e-45
4.1773e-151
2.79935e-304
4.48422e-32
1.73525e-28
-1.06382e-89
-5.92251e-37
1.05957e-16
2.17378e-104
-1.15012e-67
-3.13905e-140
-1.507e-101
5.22853e-18
2.52394e-100
5.23613e-39
-4.09861e-52
1.17281e-69
3.18246e-130
-2.01582e-93
6.66606e-14
1.6447e-93
1.7342e-92
11.0649
7.32305e-62
-1.25166e-103
0.00301533
-9.87028e-314
1.30261e-91
-2.46003e-74
-6.1388e-106
-1.09736e-178
2.69721e-69
0
5.57269e-12
-9.83613e-155
-2.24859e-68
4.23711e-30
2.20779e-39
3.37873e-85
5.13728e-89
1.40431e-33
71.7598
-6.91631e-223
-5.51457e-116
-3.03857e-104
0.00236032
3.13656e-28
-6.7499e-153
1.35228
8.04835e-305
-9.53149e-158
151.286
-3.831e-117
-5.02503e-149
-1.86821e-145
3.83379e-52
-4.53818e-49
1.54123e-218
3.00012e-110
3.74883e-30
-4.44434e-76
-7.86324e-81
-1.82839e-101
1.66546e-217
-1.35941e-47
7.74969e-09
-1.55494e-81
-2.90062e-38
1.33483e-63
7.21978e-83
4.29404e-13
3.65648e-37
-1.00847e-99
-2.42609e-157
5.33704e-05
1.15956e-58
5.88487e-57
-3.67123e-140
-1.9893e-219
-3.05225e-44
4.14108e-16
1.31661e-96
1.88755e-38
9.86703e-95
-2.00569e-98
3.93409e-129
6.22337e-48
132.273
14.347
7.3353e-47
2.4641e-80
-7.37757e-131
1.11379e-49
0.00394444
-4.46375e-41
-1.69688e-154
2.53147e-18
3.11069e-10
6.66916
2.11076e-118
61.4849
-3.16401e-221
-8.53417e-97
-4.92574e-217
9.4256e-14
1.56015e-55
59.626
-7.85804e-164
0.00700665
-3.75101e-199
-2.51039e-80
8.74697e-47
9.96213e-105
2.50008e-18
0.00296101
-3.73622e-114
1.18922e-129
4.35112e-96
3.0455e-119
-4.95832e-116
1.10368e-16
1.65709e-58
3.43242e-88
6.90805e-19
-9.90668e-117
-4.47232e-213
-8.17288e-84
5.79794e-185
1.13619e-32
2.97936e-96
4.84912e-12
6.98368e-14
-5.65902e-52
7.40805e-46
1.04969e-52
2.30357e-86
0.00391722
4.23129e-100
-5.51436e-122
1.04053e-275
4.29246e-17
-1.16814e-42
-4.08226e-167
2.55114e-34
7.99983e-104
1.16439e-46
-1.55554e-45
-8.74861e-40
2.37864e-54
80.3034
4.07899e-52
-1.66861e-50
0.00221086
1.48749e-105
7.80114e-09
2.38307e-37
-9.24822e-204
2.04942e-98
1.76639e-139
2.13564e-89
-2.16145e-299
1.22766e-147
8.15988e-10
1.25059e-15
5.62735e-151
149.112
2.69473e-35
3.48325e-194
2.00501e-14
2.3199e-19
-1.1205e-198
8.0755e-13
1.57312e-31
3.55642e-14
-6.79822e-201
8.42915e-146
4.80531e-125
-1.75076e-199
-3.78765e-43
16.4222
2.55392e-160
1.71132e-14
3.9812e-316
1.67031
1.20864e-36
1.31985e-54
-3.84725e-263
-2.80767e-162
-5.00718e-95
2.88654e-56
2.05013e-18
2.41796e-46
-2.02784e-117
1.11994e-109
-2.73906e-202
5.50198e-39
1.90692e-46
-1.01035e-137
-1.14246e-243
3.09716e-76
1.68751e-47
5.0607e-54
-7.99695e-176
3.90258e-09
-5.48754e-35
-4.97522e-199
3.08887e-62
8.56411e-111
2.66501e-94
171.165
-1.32565e-118
-8.21525e-194
4.84642e-61
-5.9201e-44
-5.62032e-55
1.68376
7.62408e-71
-4.18253e-103
9.98752e-45
-8.26562e-107
-2.79705e-107
-7.59772e-101
-5.30794e-105
-5.54926e-34
-7.60892e-93
11.505
-2.00496e-53
1.47356e-11
7.24455e-106
1.30699e-07
5.35136e-38
7.07578e-18
9.89615e-17
6.95765e-56
-1.8599e-105
2.87486e-109
-1.04483e-77
5.50595e-317
-8.44499e-97
1.46154e-43
7.75043e-25
5.41487e-108
-1.84583e-200
2.55213e-60
6.69047e-52
4.74544e-27
3.04722e-48
4.00615e-18
2.46513e-27
-4.97776e-137
1.49936e-61
0.0376909
5.17043e-45
1.23826e-302
1.23975e-120
3.94011e-107
1.79484e-306
4.68512e-63
-3.99374e-223
-5.19386e-95
1.73156e-18
9.26511e-41
6.37913e-09
-5.41607e-219
-9.64261e-165
3.64666e-266
-1.26192e-108
-5.8006e-129
1.70541e-17
-3.1218e-128
-5.27627e-164
1.75591e-08
1.82816e-50
4.83111e-78
1.1865e-64
1.65114e-21
2.97247e-121
1.98295e-14
1.66138e-110
-6.15165e-215
0.000171164
1.57008e-66
1.68016e-24
-2.73468e-122
44.8826
-1.86123e-48
-1.78804e-58
1.9341e-59
6.69285e-40
8.87643
2.98424e-105
3.27863e-19
1.43737e-53
3.98391e-60
3.92586e-160
1.255e-94
6.10392e-09
-3.91683e-96
2.02741e-12
-2.0337e-115
-3.31132e-120
2.71001e-15
-1.06773e-187
-1.38588e-142
2.63864e-103
3.37621e-65
2.24085e-13
-2.28753e-116
2.58398e-108
4.00684e-282
3.05329e-52
0.0001561
3.37738e-58
-1.95954e-109
-9.00762e-79
8.45882e-123
1.08034e-158
10.3255
-5.40435e-58
6.9752e-252
5.36086e-60
1.87362e-124
-7.19934e-47
6.39127e-33
1.30375e-76
2.26587e-105
4.51611e-20
4.8916e-15
8.62029e-269
9.33757e-81
1.00466e-15
-1.19676e-167
1.93737e-229
-3.79444e-75
6.16151e-70
-5.3489e-99
1.33779e-227
-5.10711e-68
6.98105e-15
4.66374e-196
2.34386e-30
-1.63095e-220
2.09418e-137
7.04836e-68
6.65869e-06
-3.58768e-282
1.27464
-1.95154e-56
7.14502e-29
17.1883
-1.92287e-51
8.83228e-79
0.0128213
-7.80712e-108
1.86068e-06
9.60731e-23
-6.75773e-80
2.36222e-98
4.04596e-100
-2.59878e-120
-2.98127e-127
2.58504e-36
0.00970516
152.727
3.2272e-41
-8.2714e-33
8.25489e-07
5.74999e-44
1.1218
6.74825e-180
-6.16101e-118
1.67941e-23
4.93202e-60
7.44184e-146
1.42216e-41
6.81567e-108
7.81623
-1.32362e-302
1.46191e-149
-1.07747e-173
167.644
-7.15301e-42
6.68335e-54
-1.18431e-95
5.55661e-23
-1.13014e-102
8.45958e-166
9.6799e-09
5.85535e-106
1.03346e-08
5.56821e-36
6.96272e-98
6.67617e-20
5.27012e-65
-8.58251e-117
-4.0741e-161
9.2667e-157
0.110208
2.01988e-16
-3.02637e-141
3.70801e-22
3.53797e-79
5.11854e-34
-1.24798e-278
7.01473e-68
5.24585e-09
5.45504e-21
-7.46032e-50
-7.85563e-82
-1.26446e-162
5.49513e-26
-4.32046e-103
-4.24223e-166
1.0556e-12
3.10146e-24
-1.63031e-133
-2.58342e-36
6.59e-73
-1.52995e-269
-2.68578e-147
-7.55992e-240
4.16037e-48
55.8381
8.42134e-14
3.62355e-28
-1.87763e-139
-3.86161e-101
2.5692e-65
-8.9353e-257
1.33837e-10
3.3033e-66
43.1708
-1.14121e-31
2.95748e-99
-1.82904e-134
1.58797e-177
1.48692e-107
-3.23316e-106
-2.14129e-143
9.81479
9.24264e-23
-1.28923e-46
6.02203e-21
5.3278e-51
2.95069e-165
4.31787e-316
-1.12369e-143
2.61212e-33
0.217443
-5.5015e-26
3.86588e-61
-1.80947e-59
1.20677e-82
1.14017e-23
0.0119687
0.00865352
1.69772e-103
-2.26978e-84
-1.11356e-41
-7.21531e-126
-2.16286e-232
-1.23341e-145
1.90568e-20
-4.68554e-130
2.42728e-81
-1.32871e-114
2.27501e-49
6.19556e-11
-1.85678e-121
-8.09171e-145
2.23942e-14
2.43988e-25
-2.93163e-105
-3.0803e-158
-4.43553e-61
4.56227e-10
2.27544e-33
4.62423e-31
-3.2704e-64
1.25031e-87
0.000411082
-2.47135e-100
-4.45338e-26
-8.83858e-159
7.19585e-15
1.30474e-15
-9.33483e-211
2.07516e-174
80.6044
-2.5665e-147
-1.28752e-89
7.42941e-37
6.70535e-128
3.44712e-127
-4.3439e-113
-3.38549e-149
4.61297e-266
1.11227e-34
5.96217e-07
5.15279e-177
0.00560531
1.36209e-111
-2.42517e-150
4.26349e-15
1.03834e-10
4.36851e-34
7.90929e-106
-1.39819e-142
-1.6814e-54
134.95
-5.40539e-130
2.87372e-178
2.6588e-185
1.30187e-128
-1.07479e-72
7.85249e-42
-1.44877e-133
3.51968e-87
-1.46266e-144
4.4531
6.09013e-11
1.05613e-65
8.88582e-47
8.90213e-110
-6.17103e-150
2.74286e-26
0.714632
-7.52761e-89
3.27812e-183
-7.16884e-152
9.67097e-17
7.54074e-129
-2.6846e-160
7.01935e-16
4.90689e-107
5.44983e-148
106.662
1.17773e-13
0.44864
2.35149e-26
3.73089e-130
7.67003e-24
2.25765e-12
0.0673547
-5.87662e-118
4.67705e-45
-1.35955e-260
0.0533165
-2.38187e-307
-8.04601e-120
1.26683e-112
3.55113e-183
1.57137e-56
-1.25927e-103
2.90463e-128
-9.02803e-120
1.90401
4.49046e-17
2.68627e-59
-6.09523e-144
9.83731e-39
1.87241
1.82505e-12
2.40002e-52
-1.34838e-62
-2.08234e-120
-3.40138e-105
-2.57155e-180
-7.20768e-135
4.60433e-175
-1.25506e-146
-7.07069e-53
5.38802e-18
3.73758e-24
0.153367
1.64358e-05
1.13078e-10
9.12627e-32
0.0542946
-2.4082e-162
2.05872e-06
-6.80634e-153
0.000391457
2.54838e-13
1.71825e-48
4.94898e-132
5.56398e-47
1.11906e-34
5.90217e-88
38.49
5.91539e-15
0.170752
-1.79873e-148
4.29948e-12
1.6435e-08
1.2686e-13
7.44712e-09
1.65083e-13
1.61642e-149
-2.43416e-111
5.88286e-64
-9.03949e-138
8.19957e-38
-9.44541e-124
-1.40634e-49
1.25822e-212
-7.5905e-113
6.87638e-35
1.85208e-54
-6.27235e-168
-1.26212e-57
0.264326
79.2594
-3.15711e-185
4.24554e-60
-1.38389e-107
2.20752e-12
1.95346e-39
3.51655
4.84191e-06
-6.59655e-121
1.28738e-54
1.21291e-08
1.34166e-27
5.38796e-07
3.25962e-66
4.32343e-14
-7.27058e-172
0.0724944
9.99782e-15
-1.69609e-156
4.89595e-09
0.00145312
2.25365e-55
1.12008
-3.02353e-114
1.92335e-10
-3.32255e-98
-9.75015e-191
-9.52239e-91
-7.73831e-101
0.0261525
1.16922e-10
0.00894714
-1.13416e-167
1.58702
1.29797e-48
8.19473e-17
-2.86344e-38
2.74639e-57
8.88592e-69
0.0028565
-3.03822e-112
8.9488e-129
2.928e-34
7.11105e-11
9.6056e-38
1.60743e-26
-1.07508e-70
0.0201215
6.58422e-37
2.66418e-38
4.01702e-11
2.13452e-195
4.03715e-09
6.70275e-22
1.73837e-09
-5.83167e-93
4.35117e-05
5.57261e-178
3.22814e-39
2.86861e-67
2.79406e-13
-3.99879e-87
2.95055e-35
4.14735e-10
70.4404
-2.8356e-121
2.23768e-60
5.06416e-57
3.68691e-19
1.5375e-29
-1.11265e-118
4.62198e-51
2.10552e-179
10.1404
8.75912e-274
2.96953e-179
-7.19549e-238
1.24435e-09
3.04221e-146
-3.33923e-48
0.161211
1.03724e-71
-4.9995e-71
6.04151e-139
2.66777e-225
1.83151e-11
1.15882e-183
1.27871e-49
2.43803e-15
-5.38847e-56
2.22981e-07
5.3835e-118
3.81649e-50
2.89235e-09
1.22622e-26
-2.07231e-89
77.9803
-1.42937e-278
1.29607e-219
-1.38136e-107
168.512
-8.57465e-95
6.1677e-98
3.1361e-09
-1.04862e-132
5.37745e-116
2.47233e-21
1.76936e-07
1.19888e-41
0.000763946
-2.39599e-133
6.78475e-109
3.02016e-63
1.99017e-67
1.67507e-13
-7.92671e-155
4.312e-96
-2.07661e-67
-1.0849e-19
7.99555e-81
-4.68266e-170
-2.7611e-51
-4.21844e-22
-1.14238e-234
-3.21214e-231
4.49146e-06
5.47186e-41
1.06446e-05
2.55532e-115
-6.47364e-302
-9.57768e-21
9.43956e-10
-1.24919e-164
-2.28568e-128
2.93547e-180
6.06443
-4.41591e-235
3.42158e-43
1.6102e-06
2.21512e-228
2.65359e-223
1.85388e-27
-2.24413e-194
-1.06494e-230
2.29255e-61
3.71048e-16
-9.10298e-173
3.31006e-28
-8.39476e-187
1.52533e-09
-1.53895e-304
5.01174e-09
2.29576e-15
5.00006e-32
4.02227e-228
7.67718e-22
3.65102
7.74844e-126
1.82274e-58
-7.32442e-198
1.25823e-16
1.19095e-187
1.34648e-08
3.20044e-13
5.62297e-104
2.69145e-233
6.04347e-16
2.0445e-17
2.78707e-69
2.72361e-68
1.82746e-19
-1.83325e-192
9.69584e-23
2.92067e-235
5.32037e-08
1.20098e-10
1.86455e-14
5.43001e-31
-1.88371e-27
2.53384
2.27476e-35
7.49574e-67
6.16706e-18
7.57554e-125
1.95011e-19
3.15613e-19
1.58517e-52
3.91601e-106
0.0269419
-1.12249e-256
0.00877456
96.3529
-1.03307e-135
3.01196e-12
38.6171
5.37426e-43
2.01507e-64
2.83564e-23
-9.53238e-66
1.79369e-177
6.99087e-10
0.0036394
0.450125
-1.10278e-123
1.47578e-27
9.23836e-06
1.17606e-16
4.94835e-145
1.27532e-214
2.69403e-52
0.00259251
1.46394e-10
7.62717e-20
-1.41307e-285
-8.25162e-189
1.19282e-17
-1.12986e-131
6.16994e-59
-1.14947e-126
1.42174e-228
5.45495e-09
2.70694e-115
1.65493e-06
4.67231e-68
1.61395e-205
2.42641e-215
9.01372e-18
-7.8622e-125
5.3782e-43
1.32923e-19
0.0278584
-7.93588e-61
-4.58484e-170
1.16698e-07
-1.23541e-106
3.26859e-181
6.72221e-92
5.13325e-17
-1.63709e-124
1.2803e-16
1.00516e-61
171.006
3.18805e-18
8.4766e-160
1.42024e-06
-7.95378e-237
2.87912e-11
2.02546e-49
5.18072e-07
0.000542959
5.89583e-54
6.53087e-06
1.31384e-203
1.08342e-11
-1.15229e-140
1.35505e-61
3.16933e-07
1.90958e-37
1.82671e-07
0.00421859
-2.2961e-23
1.47924e-10
1.7323e-07
-3.69219e-166
5.21825e-184
-5.11021e-235
6.36307e-06
-9.82215e-29
-3.99961e-164
2.70058e-09
3.95367e-08
5.70078e-56
2.00125e-20
6.92627e-73
-4.5939e-44
1.60893e-05
-1.89854e-86
3.29444e-44
6.98678e-45
3.28064e-261
-1.60864e-258
-5.38029e-166
-3.90188e-123
1.55496e-69
1.58827e-207
-1.7281e-103
1.98708e-119
-1.15154e-73
2.81624e-34
1.18562e-144
1.63481e-08
-1.83378e-306
1.61659e-14
2.70117e-07
-1.49012e-158
6.78574e-06
3.30532e-18
3.83072e-08
-2.98852e-79
3.02742e-20
2.09537e-133
1.67791e-50
2.26474e-64
2.26482e-217
-4.48445e-140
1.52213e-110
-1.22134e-156
2.72212e-241
2.10628e-66
2.66312e-243
-4.39991e-37
3.01009e-33
0.0260764
1.12032e-209
3.24881e-74
1.56069e-205
4.31018e-130
3.22437e-26
2.37779e-77
-1.94693e-161
113.896
5.59002e-17
8.1656e-41
8.76125e-73
7.60125e-19
3.79685e-28
-2.44423e-92
1.04293e-25
2.21109e-16
-1.73276e-119
2.41395e-237
-1.02611e-100
1.24181e-10
-8.92832e-185
-3.38834e-167
2.55759e-16
-7.65801e-136
-1.08196e-131
5.14994e-103
-3.0814e-170
3.69866e-05
1.19817e-207
-3.84894e-169
3.18429e-32
9.41806e-26
0.79012
8.82909e-16
-2.73388e-71
-2.4959e-160
4.56577e-25
-2.8836e-162
2.38745e-35
3.25535e-78
-6.17616e-120
3.58654e-07
-7.59849e-225
4.7292e-28
8.9794e-65
2.92291e-18
1.50915e-50
6.90716e-247
1.53762e-121
4.22434e-304
2.42878e-32
-3.74981e-187
1.56774e-23
8.98887e-60
-1.81423e-111
-5.43695e-69
3.79318e-52
1.04611e-239
2.52158e-27
4.89676e-31
-1.73733e-125
8.57368e-31
1.05965e-09
2.69238e-227
4.94838e-52
1.43477e-13
2.97106e-20
-2.46278e-91
-1.10398e-53
-4.92657e-52
7.67239e-63
-8.9349e-88
1.52313e-17
-4.10366e-88
-2.12874e-158
-3.41619e-160
3.89438e-05
2.23426e-10
2.54672e-07
1.11314e-07
-1.14063e-42
1.25383e-25
2.86305e-59
2.76346e-26
-5.99633e-162
0.234612
-7.43146e-131
2.38974e-07
2.94619e-17
-4.50944e-164
-2.24891e-30
5.04348e-11
7.72247e-09
1.5465e-57
1.14788e-34
3.68502e-164
7.23896e-267
2.79618e-18
1.1599e-237
1.10105e-210
1.42126e-20
6.76273e-131
-1.89079e-81
-4.93427e-168
3.3809e-115
1.49766e-18
7.8528
-4.8141e-131
5.14957e-137
1.10992e-11
-2.81818e-46
3.82545e-13
3.00005e-32
2.6227e-31
2.33164e-133
-7.92351e-49
1.27312e-27
9.21975e-21
-1.77445e-36
3.59502e-177
4.16265e-15
3.07314e-40
3.2888e-24
-9.23567e-102
-4.16358e-166
2.12329e-20
-9.37555e-128
3.21993e-229
2.23825e-29
5.46734e-10
-1.15717e-208
1.07351e-30
1.17443e-62
6.36447e-143
-4.64375e-93
-3.24822e-143
1.77994e-29
-3.4303e-158
-2.9492e-168
3.36208e-66
4.3227e-30
-1.01323e-48
-2.59928e-34
7.20731
-1.74553e-124
1.86279e-74
0.00574783
4.10056e-44
-7.15899e-145
9.22646e-42
1.67895e-08
1.26021e-217
-2.79167e-135
2.93011e-231
7.82529e-34
1.01553e-17
-9.36707e-68
2.49012e-245
-1.56983e-97
-6.72219e-89
2.15721e-110
4.39331e-11
-1.20878e-129
5.90556e-246
2.85039e-239
4.81824e-37
1.19251e-58
1.56731e-06
-3.24792e-102
-3.60276e-59
4.95766e-51
1.56315e-23
4.27133e-182
7.09572e-30
1.33919e-221
1.71273e-211
3.19904e-237
1.96176e-12
1.5337e-129
1.70359e-31
8.57549e-38
2.71546e-36
1.05089e-24
3.48828e-36
2.0328e-16
7.18501e-31
-8.38939e-127
3.87643e-44
1.5568e-56
1.23912e-46
1.73479e-25
-1.83569e-134
26.1258
4.26875e-20
7.38003e-23
1.22438e-208
0.722197
9.10459e-24
5.31055e-26
-1.35411e-36
8.03506e-16
7.72877e-76
6.94349e-120
4.88647e-117
2.09888e-124
1.09183e-117
2.90069e-22
5.63885e-27
1.12274e-136
2.56079e-36
3.03899e-112
2.13042e-116
2.86149e-73
1.61113e-55
6.58692e-94
5.00691e-68
-6.90957e-55
2.16793e-42
4.74466e-32
1.90512e-65
1.7766e-213
3.59017e-101
-1.85794e-124
3.86606e-13
1.26282e-185
4.74692e-133
7.52904e-35
0.0570194
5.21616e-158
3.74815e-06
-1.81304e-163
-3.99134e-129
1.63471e-65
1.39144e-38
1.09435e-45
1.20042e-181
8.49279e-31
1.11754e-31
8.96652e-14
1.72494e-209
5.0954e-40
7.59694e-56
8.73506e-84
2.49221e-236
-5.37039e-284
-5.55874e-34
4.57771e-58
1.0953e-82
21.0968
2.74839e-30
1.13206e-42
-6.85433e-30
2.02701e-67
3.55138e-13
-1.02099e-121
-6.03637e-69
-4.29105e-100
-1.24599e-109
2.3438e-05
6.37314e-39
1.14671e-28
3.106e-48
-9.56304e-176
1.14146e-29
1.22416e-28
8.89956e-12
-1.8447e-111
2.97212e-43
-2.84063e-06
8.34974e-06
-1.58694e-165
2.48286e-09
8.71497e-74
7.51955
1.38568e-226
1.81606e-32
3.38222e-49
1.81067e-253
5.07917e-25
1.23297e-90
-2.42824e-96
7.152e-20
1.40777e-06
1.1635e-12
-6.28231e-95
6.69912e-36
-7.80076e-225
-1.01375e-126
2.25944e-07
-1.9608e-39
2.1518e-108
9.15795e-30
-9.72197e-26
2.02992e-37
1.89088e-57
1.12272e-52
1.87048e-37
1.0567e-05
6.82078e-174
1.86793e-55
3.66514e-71
1.43693e-34
9.32081e-09
2.93511e-34
1.22844e-43
-4.97465e-96
1.38441e-230
7.48674e-33
7.27129e-42
1.62019e-33
3.74147e-179
-2.70604e-77
5.67907e-42
7.42649e-36
-6.80119e-29
6.36711e-30
6.66997e-100
1.82638e-39
2.51032e-131
1.71352e-22
1.41203e-73
3.65313e-32
4.02868e-77
-2.90066e-93
5.38583e-36
-1.71979e-77
1.09586e-86
-3.29239e-106
9.34676e-176
1.31457e-50
1.25958e-62
9.03083e-75
1.24506
0.000645402
2.88123e-140
2.35384e-110
-5.03864e-56
5.39621e-57
9.30981e-245
1.34205e-36
-3.07271e-44
5.89395e-39
-6.88855e-227
2.19178e-16
4.80081e-31
1.45866e-19
2.78065e-37
-2.80848e-210
-3.14416e-115
1.79305e-84
2.85343e-39
1.18407e-10
5.33757
-2.1867e-170
-1.67049e-81
-1.4851e-92
1.72654e-10
7.28496e-06
2.09746e-12
-1.53849e-64
1.43134e-34
-8.76214e-225
3.21989e-52
-1.56572e-64
-3.02044e-168
-3.46285e-26
-7.25837e-59
2.64488e-47
2.83285e-33
-1.5044e-85
2.80486e-58
2.538e-42
4.42067e-212
5.56012e-319
1.59222e-56
-3.19613e-82
7.49241e-10
2.05164e-72
-2.87022e-27
3.46955e-16
-2.38686e-50
-1.98105e-169
-4.89963e-73
4.26784e-32
2.88865e-174
0.000416071
2.34722e-05
-2.88482e-141
2.7254e-221
1.87826e-135
2.99032e-175
8.64021e-257
1.01165e-74
-1.25416e-90
7.88743e-38
7.52675e-60
3.64374e-41
1.18231e-58
1.76347e-10
7.05532e-34
8.24107e-40
1.47012e-62
4.4509e-72
-1.86653e-44
-5.82644e-211
-4.63233e-92
8.8334e-94
-1.19795e-38
-2.75867e-31
4.26846e-11
1.06299e-259
-1.53719e-32
8.01951e-51
3.48369e-67
5.86979e-28
8.69805e-48
1.30637e-30
4.88731e-06
9.86655e-54
1.12752e-22
8.1562e-72
-2.18875e-113
-6.87076e-55
3.42893e-42
-1.40421e-176
4.24359e-63
9.22438e-05
-1.19393e-96
1.21487e-06
-7.10404e-167
1.88633e-42
8.8069e-113
3.473e-101
2.23453e-36
-1.01648e-24
5.42244e-29
-2.94171e-91
1.61024e-66
1.51203e-67
3.88166e-22
3.14174e-26
-1.63525e-56
4.18973e-17
1.28906e-254
1.45574e-56
4.38068
1.52405e-17
1.24395e-95
0.00824295
5.88097e-29
1.67483e-88
2.19381e-195
1.00101e-12
3.38191e-42
2.57857e-69
-1.17833e-46
1.01027e-173
9.57462e-37
1.29764e-101
2.04138e-21
4.10401e-45
1.06405e-42
-4.07793e-35
-2.55142e-311
-4.06339e-131
9.3532e-80
-1.0791e-115
2.8184e-118
1.72502e-69
-2.04215e-92
1.03603e-86
1.52382e-28
1.19527e-33
-8.46949e-242
7.47188e-25
-5.85703e-128
-5.05866e-210
-2.45117e-33
-2.12308e-159
7.00093e-71
2.81504e-71
1.31723e-178
-1.02385e-173
-3.33202e-103
1.52582e-41
-9.676e-75
3.23331e-39
6.03212e-49
-3.14865e-32
6.24531e-34
1.96184e-70
-6.80742e-59
6.9318e-48
1.60121e-276
-3.44786e-76
-1.01984e-101
2.07444e-72
0.000265205
5.83581e-44
-7.94537e-86
-1.84844e-55
-1.57122e-77
5.31624e-92
-2.44476e-94
-2.08587e-76
3.8827e-98
-1.11318e-39
8.32539e-52
-2.33931e-212
9.43973e-43
3.23356e-60
2.14832e-40
1.32985e-195
-4.51174e-34
2.55685e-07
1.7535e-123
-2.19055e-49
5.11618e-31
2.25623e-140
4.64616e-33
1.59114e-20
3.3664e-45
1.67856e-45
9.54292e-24
-2.06932e-56
-1.87723e-62
1.01804e-50
7.36556e-37
4.316e-157
1.22183e-100
5.18936e-265
2.3265e-125
-3.55433e-196
2.58277e-64
2.16513e-57
3.70128e-36
2.66547e-51
1.37238
-1.54195e-24
4.67693
6.13237e-50
3.86682e-12
0.44392
3.50688e-20
6.47204
1.09745e-97
2.17452e-60
-8.34966e-71
4.58081e-74
3.28985e-57
2.13528e-132
4.84372e-65
5.59254e-113
1.43322e-197
-3.93437e-64
0.072591
2.52628e-67
2.75082e-39
-5.17649e-70
-5.48107e-105
1.32629e-52
-4.00472e-57
-6.34193e-124
1.29116e-62
1.83584e-108
1.88339e-29
3.19798e-48
7.13302e-51
-1.8159e-52
0.000172925
6.31994e-18
7.17493e-38
7.15666e-73
30.0996
3.19263e-69
9.35326e-68
1.87966e-37
-1.47084e-35
-2.23258e-73
4.45918e-26
-3.39025e-172
-1.15913e-45
-1.123e-33
1.51949e-53
1.86454e-54
-5.48556e-92
-5.0271e-60
-1.22001e-41
3.85648e-96
2.52876e-38
2.03496e-66
3.21775e-86
-4.55383e-169
3.04227e-75
6.99238e-54
-1.84926e-100
1.3604e-72
1.58166e-85
-6.63839e-130
-3.48829e-41
2.11357e-103
4.22554e-20
6.11635e-57
-5.1995e-79
8.79191e-179
-6.61141e-125
4.78555e-29
4.11175e-61
-3.1443e-230
1.10894e-56
0.39313
1.98867e-40
-3.29193e-94
2.41117e-73
5.75839e-05
0.0113837
7.85586
2.58379e-120
1.87722e-122
7.32096e-121
1.0727e-84
3.46238e-40
4.58987e-09
5.90903e-07
1.41939e-17
2.37442e-38
5.14059e-105
1.00245e-191
7.98386e-189
-2.72504e-33
-7.30962e-95
1.1866e-33
3.74248e-120
3.5306e-14
3.86718e-110
2.71506e-60
2.53e-14
-8.84518e-52
1.87769e-31
3.66201e-127
2.32543e-64
9.1108e-209
1.97488e-27
3.58775e-39
4.69826e-95
-4.47515e-198
-3.32743e-83
6.73133e-30
-1.77174e-134
-1.39169e-55
3.50644e-05
1.25652e-220
-4.76023e-91
-3.36191e-47
-6.76078e-48
9.58339e-60
-1.50821e-145
-5.66108e-133
2.22263e-130
1.93447e-242
-1.67891e-188
1.13657e-83
2.12876e-47
-6.9636e-209
-1.14721e-90
7.44398e-135
137.866
-9.75555e-35
-2.81652e-128
7.56508e-262