/*--------------------------------*- C++ -*----------------------------------*\
  =========                 |
  \\      /  F ield         | OpenFOAM: The Open Source CFD Toolbox
   \\    /   O peration     | Website:  https://openfoam.org
    \\  /    A nd           | Version:  7
     \\/     M anipulation  |
\*---------------------------------------------------------------------------*/
FoamFile
{
    version     2.0;
    format      ascii;
    class       volScalarField;
    location    "16";
    object      p;
}
// * * * * * * * * * * * * * * * * * * * * * * * * * * * * * * * * * * * * * //

dimensions      [1 -1 -2 0 0 0 0];

internalField   nonuniform List<scalar> 
2413
(
1.10484
1.10257
1.10022
1.09769
1.09535
1.09364
1.09233
1.09157
1.09136
1.09158
1.09227
1.09262
1.09289
1.0933
1.09379
1.09456
1.09448
1.09336
1.09263
1.09137
1.08887
1.08748
1.08676
1.08609
1.08631
1.08624
1.08562
1.08607
1.08632
1.0865
1.08808
1.0896
1.09077
1.09266
1.09357
1.09418
1.09506
1.09538
1.09543
1.09552
1.09536
1.09483
1.09455
1.0944
1.09419
1.09402
1.09397
1.09406
1.09413
1.09414
1.09432
1.09461
1.09482
1.09499
1.09525
1.09577
1.09659
1.09858
0.97763
0.977359
0.976971
0.97659
0.976614
0.976978
0.977512
0.978064
0.978396
0.978777
0.980151
0.981976
0.984279
0.987342
0.991371
0.996946
1.00501
1.01568
1.029
1.04288
1.04818
1.04925
1.04983
1.04988
1.04966
1.0489
1.04859
1.04917
1.05172
1.05677
1.06584
1.07904
1.09399
1.11254
1.12894
1.14409
1.15289
1.15908
1.16564
1.16807
1.16839
1.16837
1.16614
1.1606
1.1548
1.15156
1.14934
1.14669
1.14355
1.14114
1.13969
1.13848
1.13721
1.13585
1.13454
1.1338
1.13296
1.13194
1.13108
1.1305
1.13006
1.12968
1.12932
1.12836
1.12648
1.12403
1.1212
1.11804
1.11497
1.11244
1.11016
1.10789
1.1055
1.10299
1.10034
1.09764
1.09501
1.09269
1.09086
1.08931
1.08822
1.08762
1.0874
1.0875
1.0876
1.08768
1.08827
1.0892
1.09001
1.09075
1.09031
1.08913
1.08846
1.08764
1.08569
1.08423
1.08319
1.08266
1.08274
1.08225
1.08202
1.08258
1.08264
1.08306
1.08455
1.0858
1.08708
1.08905
1.09025
1.091
1.09201
1.09265
1.09279
1.09283
1.09274
1.09234
1.0921
1.092
1.09182
1.09161
1.09152
1.09153
1.09154
1.09143
1.09133
1.09136
1.09148
1.09165
1.09191
1.0925
1.09328
1.09479
0.977345
0.976916
0.976438
0.976108
0.976289
0.976726
0.977251
0.977756
0.977955
0.978608
0.980266
0.982349
0.984845
0.987951
0.991849
0.997066
1.00432
1.01414
1.02671
1.03924
1.04651
1.04882
1.0498
1.05068
1.05206
1.05558
1.06214
1.07335
1.08839
1.10517
1.12544
1.14231
1.15768
1.16773
1.17507
1.18184
1.18529
1.18619
1.1863
1.18335
1.17673
1.17068
1.16597
1.16185
1.15768
1.15382
1.15021
1.14648
1.1431
1.14052
1.13822
1.13596
1.13385
1.13199
1.13062
1.12979
1.12915
1.1283
1.12752
1.12708
1.12685
1.12618
1.12482
1.1229
1.12044
1.11755
1.11509
1.11297
1.11083
1.10849
1.10596
1.1033
1.10053
1.09768
1.09483
1.09244
1.09031
1.08841
1.08666
1.08508
1.08394
1.08329
1.08297
1.08283
1.08278
1.08307
1.08406
1.0854
1.08623
1.08657
1.08598
1.08503
1.08439
1.08381
1.08238
1.08057
1.07923
1.07893
1.07859
1.07814
1.0784
1.07865
1.07861
1.07925
1.08059
1.08175
1.08317
1.08516
1.08646
1.08741
1.08856
1.08952
1.08986
1.08991
1.08988
1.08959
1.08934
1.08924
1.0891
1.08886
1.08865
1.08854
1.08843
1.08826
1.08805
1.08804
1.08817
1.08831
1.08863
1.0891
1.08965
1.09069
0.97689
0.976518
0.976139
0.976047
0.976278
0.976648
0.977119
0.977421
0.977538
0.978684
0.9806
0.982907
0.985496
0.988389
0.991846
0.996504
1.00302
1.01224
1.02447
1.03697
1.04479
1.04949
1.05405
1.06047
1.07151
1.08763
1.10752
1.13205
1.15224
1.17055
1.18277
1.19042
1.19667
1.20046
1.20165
1.20175
1.19868
1.19302
1.18841
1.18442
1.18008
1.1748
1.16953
1.16452
1.15956
1.15468
1.14994
1.14524
1.14094
1.13757
1.13488
1.13253
1.13093
1.12968
1.12829
1.12702
1.12605
1.12513
1.12436
1.12358
1.12228
1.12059
1.11857
1.11635
1.11436
1.11246
1.11055
1.10852
1.10615
1.10352
1.10069
1.09768
1.09481
1.09227
1.09003
1.08808
1.08619
1.08417
1.08231
1.08067
1.07943
1.07876
1.07845
1.07831
1.0784
1.07898
1.08017
1.08148
1.08206
1.08198
1.08165
1.08118
1.08034
1.07952
1.07835
1.07649
1.07518
1.07468
1.07427
1.07423
1.07448
1.07434
1.07442
1.07521
1.07625
1.07743
1.07911
1.08104
1.08223
1.08339
1.08464
1.08578
1.08641
1.08653
1.08653
1.08635
1.08606
1.08588
1.08571
1.08546
1.0852
1.08505
1.08495
1.08484
1.08467
1.08462
1.08468
1.08479
1.08496
1.08509
1.08529
1.08662
0.976701
0.97632
0.97601
0.976014
0.976285
0.976641
0.976954
0.977102
0.977586
0.979047
0.980961
0.983123
0.98559
0.988268
0.991475
0.995701
1.00176
1.01076
1.02304
1.03672
1.04954
1.06312
1.07933
1.09923
1.12562
1.15017
1.17488
1.19312
1.20474
1.21334
1.21707
1.21773
1.21568
1.21107
1.2062
1.20258
1.19993
1.19666
1.19233
1.18776
1.183
1.17754
1.17148
1.1651
1.15877
1.15316
1.14795
1.14308
1.13913
1.1361
1.13374
1.13164
1.12982
1.12815
1.12639
1.12477
1.12317
1.12167
1.12053
1.11896
1.11669
1.11498
1.1131
1.11101
1.10937
1.10767
1.10563
1.1032
1.10043
1.09767
1.0949
1.09183
1.08939
1.08755
1.08572
1.08379
1.08175
1.07961
1.07783
1.07629
1.07502
1.0744
1.07419
1.0742
1.07442
1.07495
1.07598
1.07711
1.07747
1.07736
1.07732
1.07704
1.076
1.07498
1.0739
1.07214
1.07077
1.07021
1.07
1.07011
1.07004
1.06985
1.07011
1.07077
1.07163
1.07294
1.07475
1.07632
1.07758
1.07901
1.08028
1.08146
1.08238
1.08262
1.08262
1.08248
1.08219
1.08196
1.08179
1.08159
1.08137
1.08121
1.08115
1.08108
1.08095
1.08078
1.08073
1.08076
1.08077
1.08088
1.08108
1.08225
0.976569
0.976139
0.976017
0.976206
0.976385
0.976477
0.976685
0.977118
0.977673
0.978973
0.980834
0.983003
0.985368
0.987877
0.990915
0.995131
1.00227
1.01356
1.03016
1.05242
1.07829
1.10941
1.13783
1.16673
1.19133
1.20824
1.22342
1.23258
1.23407
1.23227
1.22635
1.22099
1.21713
1.21391
1.20996
1.20571
1.20192
1.19792
1.19327
1.1881
1.18244
1.17625
1.16987
1.16367
1.15763
1.15214
1.14725
1.14284
1.13918
1.13607
1.13361
1.13126
1.12888
1.12657
1.12429
1.12208
1.1199
1.11807
1.11664
1.11461
1.1122
1.11037
1.1081
1.10589
1.10422
1.10219
1.09974
1.09691
1.09407
1.09187
1.08953
1.08668
1.08446
1.08275
1.08073
1.07852
1.07649
1.07473
1.07321
1.07189
1.07078
1.07015
1.07002
1.07001
1.07018
1.07047
1.0712
1.0724
1.0728
1.0728
1.07288
1.07245
1.07135
1.07037
1.06932
1.06765
1.06616
1.06562
1.06553
1.06547
1.06526
1.06529
1.06555
1.06599
1.06678
1.06807
1.06964
1.07119
1.07269
1.07415
1.07542
1.0767
1.07785
1.07829
1.07833
1.07823
1.07799
1.07776
1.07761
1.07747
1.0773
1.07714
1.07704
1.07697
1.07685
1.07669
1.07653
1.07651
1.07649
1.07664
1.07685
1.07767
0.976333
0.976036
0.976067
0.976127
0.97606
0.976119
0.976554
0.976901
0.977209
0.978539
0.980548
0.982652
0.984986
0.988081
0.992669
1.00083
1.01454
1.03548
1.06694
1.10252
1.14029
1.17566
1.20038
1.22222
1.23963
1.24378
1.24428
1.24207
1.23794
1.23447
1.23048
1.22524
1.21989
1.21493
1.21011
1.2054
1.20069
1.19566
1.19024
1.18462
1.17895
1.17329
1.16783
1.1628
1.15778
1.15274
1.14816
1.14411
1.14039
1.13654
1.13356
1.13089
1.12797
1.12526
1.12274
1.1202
1.11762
1.11545
1.11337
1.11077
1.10811
1.10568
1.10298
1.10048
1.09837
1.09604
1.09333
1.0906
1.08849
1.0866
1.08426
1.08134
1.07908
1.07732
1.0752
1.07288
1.07114
1.06974
1.06851
1.06741
1.06643
1.06569
1.06542
1.06531
1.06539
1.0656
1.0662
1.06757
1.06818
1.06825
1.06828
1.0677
1.06659
1.06564
1.0646
1.06309
1.06151
1.06086
1.06065
1.06046
1.06036
1.06048
1.06059
1.06086
1.06157
1.06268
1.06404
1.06567
1.06741
1.06889
1.07025
1.07165
1.07294
1.07365
1.07381
1.07377
1.07364
1.07347
1.07335
1.07324
1.07309
1.07291
1.07276
1.07269
1.07261
1.0725
1.07233
1.07218
1.0722
1.07231
1.07249
1.07297
0.97603
0.975823
0.975777
0.975665
0.975513
0.975738
0.976143
0.976165
0.97662
0.978094
0.980258
0.98324
0.988082
0.996464
1.00957
1.03063
1.0583
1.09116
1.12814
1.16389
1.19725
1.23042
1.24468
1.24886
1.25109
1.25062
1.24964
1.24762
1.2432
1.23747
1.23124
1.22481
1.21867
1.21274
1.20689
1.20119
1.19578
1.1906
1.18559
1.18092
1.17654
1.1721
1.16752
1.16295
1.15855
1.15407
1.14976
1.14593
1.14219
1.13808
1.13472
1.13166
1.12848
1.12524
1.12222
1.11912
1.1159
1.11297
1.11004
1.10694
1.10386
1.10088
1.09789
1.09511
1.09275
1.0904
1.08761
1.08503
1.08311
1.08111
1.07869
1.07571
1.07326
1.07151
1.06944
1.06726
1.0658
1.06469
1.06359
1.06256
1.06168
1.06086
1.06042
1.06024
1.06027
1.06057
1.0612
1.06259
1.06346
1.06355
1.06344
1.06277
1.06178
1.06084
1.05979
1.05844
1.05688
1.0559
1.05549
1.05529
1.05523
1.0553
1.05537
1.05554
1.05606
1.057
1.05819
1.05969
1.06161
1.06335
1.06476
1.06615
1.06771
1.06879
1.06915
1.06919
1.06916
1.06907
1.06895
1.06886
1.0687
1.06852
1.06838
1.06824
1.06822
1.06813
1.06796
1.06774
1.06773
1.06783
1.06784
1.06815
0.975605
0.97539
0.975224
0.975028
0.974967
0.975237
0.97535
0.975263
0.976445
0.979335
0.984728
0.993842
1.00997
1.03327
1.06033
1.09212
1.1219
1.15068
1.18161
1.21015
1.23222
1.24763
1.25479
1.25684
1.25759
1.25666
1.25361
1.2489
1.24288
1.23607
1.22863
1.22101
1.21382
1.20732
1.20111
1.19574
1.19135
1.18721
1.183
1.17902
1.17523
1.17142
1.16749
1.16347
1.15955
1.15567
1.15187
1.1483
1.14459
1.14035
1.13649
1.13289
1.12919
1.12543
1.12178
1.11804
1.11406
1.11031
1.10669
1.10316
1.0998
1.09652
1.0933
1.09039
1.0878
1.08524
1.0824
1.07953
1.07737
1.07526
1.07287
1.06999
1.06745
1.06567
1.06377
1.0617
1.06015
1.05912
1.05806
1.05701
1.05628
1.05565
1.05519
1.05502
1.05499
1.0553
1.05597
1.05735
1.05839
1.05844
1.05829
1.0577
1.05685
1.05596
1.05495
1.05371
1.05226
1.05099
1.05038
1.05009
1.04997
1.04998
1.05003
1.05012
1.05042
1.05114
1.05216
1.05348
1.05528
1.05737
1.0589
1.0603
1.062
1.06361
1.06425
1.06437
1.06442
1.06442
1.06431
1.06418
1.06404
1.06389
1.06379
1.06358
1.06349
1.06338
1.0632
1.06302
1.06293
1.06285
1.0629
1.0633
0.975173
0.974911
0.974654
0.974557
0.97456
0.974542
0.974993
0.977017
0.981898
0.992218
1.01102
1.03605
1.0689
1.09913
1.12609
1.15489
1.17202
1.18613
1.20245
1.22104
1.24207
1.25753
1.26187
1.26158
1.25982
1.25674
1.25235
1.24632
1.23912
1.23122
1.22297
1.21474
1.20776
1.20216
1.19707
1.19242
1.18826
1.18432
1.18077
1.17777
1.17471
1.17147
1.16801
1.16444
1.161
1.15761
1.15415
1.15064
1.1469
1.14268
1.13843
1.13426
1.12993
1.12546
1.12116
1.11684
1.11225
1.10796
1.10389
1.09999
1.09636
1.09276
1.08923
1.08611
1.08306
1.08008
1.07716
1.07399
1.07151
1.06936
1.0669
1.06431
1.06187
1.05963
1.05794
1.05624
1.05444
1.05315
1.05208
1.05107
1.05046
1.05016
1.04975
1.04953
1.04939
1.04956
1.05022
1.05161
1.0529
1.05297
1.05287
1.05248
1.05175
1.05096
1.05004
1.04889
1.04754
1.04626
1.04546
1.04502
1.04473
1.04459
1.04462
1.0447
1.04484
1.04526
1.04607
1.04711
1.04865
1.05082
1.05259
1.05407
1.05577
1.05779
1.05896
1.05924
1.05934
1.05938
1.05932
1.05919
1.05907
1.05897
1.05883
1.05866
1.05841
1.05822
1.05805
1.05788
1.05776
1.05775
1.05779
1.05813
0.97482
0.974593
0.974402
0.974255
0.974727
0.976528
0.981142
0.992323
1.01086
1.03928
1.07389
1.10774
1.14274
1.16014
1.1693
1.17903
1.18775
1.19809
1.21187
1.22965
1.2504
1.26098
1.26144
1.26048
1.25772
1.25341
1.24771
1.24057
1.23275
1.22503
1.21735
1.21027
1.20417
1.19858
1.19324
1.18888
1.1853
1.18218
1.17964
1.17729
1.17462
1.17158
1.16842
1.16528
1.16231
1.1593
1.15604
1.1525
1.14867
1.14443
1.13994
1.13536
1.13059
1.12563
1.12074
1.116
1.11109
1.10636
1.10185
1.09751
1.09343
1.08941
1.08548
1.0819
1.07842
1.07505
1.07206
1.06886
1.06594
1.0636
1.06109
1.05867
1.05637
1.05383
1.05191
1.05054
1.0488
1.04717
1.04592
1.04489
1.04432
1.04426
1.04393
1.04359
1.04335
1.04343
1.04402
1.04527
1.04685
1.04734
1.04732
1.04706
1.04642
1.04583
1.0451
1.04404
1.04277
1.04155
1.04062
1.04002
1.03961
1.03929
1.03918
1.03924
1.03933
1.03947
1.03999
1.04071
1.04186
1.04388
1.04588
1.04745
1.04924
1.05127
1.05305
1.05378
1.05396
1.05404
1.05402
1.05394
1.05386
1.05379
1.05365
1.05345
1.05314
1.05289
1.05272
1.0525
1.05239
1.05244
1.05253
1.05281
0.974804
0.974655
0.975251
0.977278
0.982748
0.993869
1.01272
1.04281
1.07826
1.11751
1.14626
1.16415
1.17826
1.1851
1.18949
1.19264
1.19607
1.20201
1.21262
1.22935
1.24959
1.25765
1.2575
1.25579
1.25247
1.24774
1.24169
1.23466
1.22776
1.22093
1.21355
1.20629
1.2001
1.1946
1.18993
1.18647
1.18363
1.1811
1.1789
1.17662
1.17399
1.17121
1.16853
1.16612
1.16353
1.16063
1.15738
1.15374
1.14981
1.14547
1.14075
1.13589
1.13088
1.12568
1.12042
1.11539
1.11036
1.10547
1.10057
1.09575
1.09113
1.0866
1.08224
1.07823
1.07435
1.07048
1.06713
1.06394
1.06053
1.05778
1.05547
1.05319
1.05089
1.04833
1.04605
1.04463
1.04308
1.04126
1.03975
1.03852
1.0378
1.03761
1.03755
1.03725
1.03691
1.03693
1.03744
1.03854
1.04017
1.0414
1.04169
1.04151
1.04092
1.04048
1.04001
1.03912
1.03791
1.03674
1.03579
1.03503
1.03448
1.03405
1.03372
1.03368
1.03369
1.03369
1.03407
1.03455
1.03521
1.03675
1.03891
1.04051
1.04235
1.04462
1.0464
1.04776
1.04838
1.04854
1.04859
1.04854
1.04852
1.04848
1.04842
1.04817
1.04785
1.04763
1.04738
1.04711
1.04707
1.04709
1.04717
1.04744
0.976816
0.979677
0.986299
0.99774
1.01835
1.04742
1.0825
1.11994
1.14901
1.17241
1.18596
1.1931
1.19549
1.19554
1.19473
1.19408
1.1948
1.1987
1.20819
1.2242
1.24405
1.25037
1.25018
1.24906
1.24656
1.24261
1.23714
1.23052
1.22377
1.21694
1.20963
1.2026
1.1969
1.19206
1.18837
1.18537
1.18249
1.1799
1.17764
1.17541
1.17312
1.17103
1.16915
1.16705
1.16451
1.16145
1.15794
1.15408
1.14985
1.14534
1.14057
1.13562
1.13053
1.12533
1.11998
1.11476
1.10963
1.10456
1.0994
1.09428
1.0894
1.08461
1.07991
1.0754
1.07117
1.06698
1.06309
1.05969
1.05601
1.05272
1.05029
1.04786
1.04548
1.04294
1.04034
1.0386
1.03706
1.03527
1.03352
1.03195
1.03093
1.03048
1.03049
1.03051
1.03013
1.03002
1.03044
1.0316
1.03305
1.03475
1.03583
1.03582
1.03527
1.03489
1.03472
1.03405
1.03293
1.03182
1.03082
1.02995
1.02923
1.02868
1.02826
1.02807
1.02793
1.02789
1.02821
1.02859
1.02885
1.02975
1.03176
1.03344
1.03521
1.03779
1.03977
1.04103
1.04233
1.04292
1.04309
1.04312
1.0431
1.04318
1.0432
1.04299
1.04266
1.04251
1.04215
1.04182
1.0418
1.0418
1.04176
1.04195
0.991654
1.00525
1.02678
1.05378
1.0882
1.12137
1.15046
1.1753
1.19281
1.19977
1.19956
1.19821
1.19573
1.19345
1.19158
1.19078
1.19036
1.1924
1.20044
1.21486
1.23416
1.24323
1.24382
1.24343
1.24194
1.23858
1.23316
1.22657
1.22018
1.21374
1.20708
1.20072
1.1954
1.19058
1.18656
1.18348
1.18069
1.17827
1.17624
1.17456
1.17302
1.17149
1.16978
1.1676
1.16486
1.16158
1.15782
1.15364
1.14914
1.14445
1.13962
1.13464
1.12959
1.12453
1.11926
1.11402
1.10884
1.10363
1.09835
1.09305
1.08801
1.08313
1.07824
1.07345
1.06888
1.06444
1.06009
1.05623
1.05237
1.04869
1.04574
1.04282
1.04016
1.03756
1.03465
1.03246
1.03075
1.02894
1.02709
1.0252
1.0239
1.0232
1.02297
1.02318
1.02305
1.02284
1.02311
1.02441
1.02586
1.02738
1.02923
1.02981
1.02947
1.02921
1.02927
1.02877
1.02774
1.02665
1.02561
1.02464
1.02379
1.02312
1.02266
1.02238
1.02214
1.02203
1.0223
1.02264
1.02282
1.02322
1.0247
1.02641
1.02803
1.03051
1.03304
1.03428
1.0356
1.03694
1.03752
1.0377
1.0377
1.03787
1.03798
1.03781
1.03763
1.03745
1.03696
1.03661
1.03649
1.0364
1.03625
1.03634
1.03749
1.06422
1.09417
1.12285
1.15164
1.18005
1.19131
1.19737
1.20034
1.20021
1.19962
1.19817
1.19483
1.19037
1.18598
1.18417
1.18308
1.18429
1.19104
1.20502
1.22434
1.23755
1.23875
1.2382
1.23717
1.23464
1.22971
1.22364
1.21788
1.21196
1.20563
1.19903
1.19354
1.18875
1.18459
1.18153
1.17928
1.17757
1.1761
1.17479
1.17345
1.17187
1.16996
1.16755
1.16456
1.161
1.15687
1.15228
1.14751
1.14274
1.13796
1.13309
1.1282
1.12326
1.11813
1.11293
1.10776
1.10254
1.09729
1.09196
1.0868
1.08184
1.07684
1.07182
1.06698
1.06234
1.05774
1.05346
1.04942
1.04543
1.04193
1.0384
1.03518
1.03235
1.02919
1.02648
1.02436
1.02236
1.0204
1.0183
1.01665
1.01578
1.01528
1.01539
1.01559
1.01544
1.0156
1.01681
1.01847
1.01978
1.02178
1.02347
1.02341
1.02332
1.02354
1.02316
1.02225
1.0212
1.02014
1.01912
1.01822
1.01745
1.0169
1.01659
1.01627
1.01613
1.01638
1.01649
1.01675
1.01713
1.01799
1.01947
1.02086
1.02297
1.02584
1.02747
1.02877
1.03035
1.03165
1.03215
1.03228
1.03238
1.03251
1.03252
1.03247
1.03228
1.03174
1.03131
1.03109
1.03085
1.03064
1.03064
1.10111
1.12608
1.15507
1.17417
1.18606
1.19523
1.20007
1.20236
1.20239
1.20158
1.1994
1.19521
1.18947
1.18215
1.17674
1.17532
1.17495
1.17645
1.18263
1.196
1.21501
1.23069
1.23355
1.23367
1.2335
1.2318
1.22762
1.22178
1.21554
1.20926
1.20286
1.19638
1.19143
1.18718
1.18334
1.18077
1.17906
1.17758
1.17638
1.17526
1.17386
1.172
1.16969
1.16685
1.16335
1.15932
1.15492
1.15024
1.14546
1.14069
1.13588
1.13103
1.12617
1.12133
1.11638
1.11141
1.1064
1.10128
1.0961
1.0908
1.0855
1.08041
1.07536
1.07026
1.0653
1.06057
1.05589
1.05137
1.0471
1.04286
1.03889
1.03491
1.03097
1.02769
1.02432
1.02113
1.01836
1.01587
1.01368
1.01146
1.00943
1.00831
1.0076
1.00749
1.00792
1.00791
1.008
1.00901
1.0108
1.01203
1.01377
1.01639
1.01725
1.01711
1.01725
1.01718
1.01654
1.01555
1.01451
1.01348
1.01253
1.01168
1.01095
1.01059
1.01034
1.01007
1.01031
1.01054
1.01055
1.01113
1.01167
1.0126
1.0138
1.01543
1.01822
1.02042
1.02189
1.02354
1.0252
1.02625
1.02662
1.02675
1.02673
1.02691
1.027
1.02688
1.02644
1.0259
1.02557
1.02527
1.02497
1.02487
1.15404
1.16805
1.18021
1.19062
1.19861
1.20278
1.20397
1.20358
1.20169
1.19784
1.19242
1.18562
1.17912
1.17183
1.16813
1.16769
1.16771
1.16963
1.17588
1.18876
1.20752
1.22494
1.22971
1.22991
1.22977
1.22817
1.2243
1.21883
1.21275
1.2065
1.20027
1.19452
1.19025
1.18638
1.18287
1.18053
1.1789
1.17755
1.17648
1.17531
1.1737
1.17156
1.16876
1.16527
1.16124
1.15692
1.15239
1.14762
1.14274
1.13788
1.13302
1.12821
1.12349
1.11883
1.11413
1.1094
1.1046
1.09957
1.09446
1.08927
1.08394
1.07877
1.07377
1.06872
1.06372
1.05892
1.05421
1.04958
1.04514
1.04072
1.03643
1.03219
1.02779
1.0239
1.02028
1.01668
1.01335
1.01012
1.0075
1.00505
1.00269
1.00115
1.00018
0.999725
1.0001
1.00039
1.00043
1.00114
1.00294
1.00414
1.00558
1.00821
1.01048
1.01071
1.01072
1.01089
1.01053
1.00964
1.00869
1.00772
1.00674
1.00584
1.00494
1.00448
1.00428
1.00397
1.004
1.00448
1.00448
1.00481
1.00543
1.00582
1.00685
1.00811
1.0103
1.01305
1.01471
1.01653
1.01833
1.01976
1.02056
1.02085
1.0208
1.02086
1.02114
1.02119
1.02098
1.02045
1.02
1.0197
1.01938
1.01913
1.17331
1.18388
1.19205
1.19882
1.20256
1.20272
1.20178
1.19909
1.19415
1.18855
1.18217
1.17524
1.16946
1.16449
1.16275
1.16269
1.16272
1.16442
1.16999
1.18158
1.1994
1.21801
1.22534
1.22594
1.22582
1.2245
1.22116
1.21624
1.21046
1.2044
1.19848
1.1931
1.18899
1.18538
1.18202
1.17986
1.17882
1.17776
1.17665
1.17528
1.17337
1.17069
1.16724
1.16316
1.15863
1.15391
1.14912
1.14419
1.13922
1.13436
1.12958
1.12492
1.1204
1.11593
1.1114
1.10682
1.10215
1.09722
1.09224
1.08728
1.08211
1.07698
1.07206
1.06712
1.06213
1.05726
1.05253
1.0479
1.04337
1.03886
1.03441
1.02999
1.02535
1.02095
1.01696
1.01297
1.00923
1.00551
1.00231
0.999612
0.996947
0.99494
0.993524
0.992543
0.992496
0.992932
0.992983
0.993327
0.994903
0.996164
0.997327
0.999539
1.00229
1.00368
1.00421
1.00448
1.00404
1.00336
1.00268
1.00184
1.00089
0.999957
0.998974
0.998342
0.998158
0.997875
0.997632
0.998103
0.998365
0.998437
0.999106
0.999384
0.999937
1.00115
1.00262
1.00528
1.00735
1.00911
1.01128
1.01281
1.01398
1.01462
1.01476
1.0146
1.01494
1.01523
1.01525
1.0149
1.01434
1.01413
1.01384
1.01347
1.18443
1.19155
1.19665
1.1987
1.19873
1.19759
1.19504
1.19085
1.18523
1.17983
1.17424
1.16894
1.16411
1.15968
1.15765
1.15741
1.15725
1.15845
1.16335
1.17402
1.19102
1.21063
1.22096
1.22195
1.22192
1.22082
1.21801
1.2137
1.20825
1.2024
1.19653
1.19136
1.1876
1.18422
1.18132
1.17978
1.17899
1.17798
1.1766
1.17486
1.17247
1.16923
1.16519
1.16055
1.15552
1.15034
1.14522
1.1402
1.13525
1.13047
1.12581
1.12129
1.11691
1.11258
1.10815
1.10365
1.09912
1.09433
1.08952
1.08482
1.07988
1.07484
1.07003
1.06523
1.06032
1.05549
1.05078
1.0462
1.04168
1.03711
1.03253
1.02797
1.02317
1.01845
1.01413
1.00989
1.00588
1.00208
0.998401
0.995453
0.992519
0.989885
0.987953
0.986372
0.985458
0.985577
0.985721
0.985833
0.986837
0.988324
0.989162
0.99087
0.993364
0.995656
0.997301
0.997613
0.997096
0.996858
0.996596
0.995828
0.994907
0.994032
0.993104
0.992282
0.992018
0.991778
0.991342
0.991528
0.992052
0.992032
0.992487
)
;

boundaryField
{
    inlet
    {
        type            fixedValue;
        value           nonuniform 0();
    }
    outlet
    {
        type            zeroGradient;
    }
    bottom
    {
        type            symmetryPlane;
    }
    top
    {
        type            symmetryPlane;
    }
    obstacle
    {
        type            zeroGradient;
    }
    front
    {
        type            empty;
    }
    back
    {
        type            empty;
    }
    procBoundary23to15
    {
        type            processor;
        value           nonuniform List<scalar> 
133
(
1.10842
1.10647
1.1046
1.10269
1.10066
1.09854
1.09691
1.09587
1.09535
1.09526
1.096
1.09724
1.09771
1.09772
1.09775
1.09805
1.09817
1.09736
1.09666
1.09519
1.09239
1.09071
1.08995
1.08916
1.08932
1.08973
1.08907
1.08921
1.08967
1.0896
1.09088
1.09286
1.09406
1.09582
1.09645
1.09699
1.09758
1.09763
1.09766
1.09785
1.09771
1.09731
1.09713
1.09689
1.09645
1.09607
1.0961
1.09632
1.09644
1.09654
1.09689
1.09734
1.09771
1.0982
1.09875
1.09926
1.09958
1.1022
0.977715
0.977437
0.977342
0.977292
0.977335
0.977516
0.977878
0.978388
0.978785
0.979017
0.980136
0.98175
0.983869
0.986832
0.990889
0.996741
1.00528
1.01659
1.03118
1.04571
1.04973
1.05038
1.05098
1.05099
1.05034
1.04897
1.04728
1.04515
1.04206
1.03948
1.03801
1.0398
1.04403
1.05297
1.06573
1.08063
1.09835
1.1133
1.12771
1.13664
1.14208
1.14821
1.15157
1.15286
1.15316
1.15292
1.15049
1.14587
1.14221
1.14043
1.13977
1.13916
1.13805
1.13751
1.1376
1.13788
1.13764
1.13708
1.13604
1.1347
1.13339
1.13237
1.13193
1.13175
1.13094
1.12944
1.12711
1.12418
1.12084
1.11733
1.11416
1.11159
1.1093
1.10709
1.10709
)
;
    }
    procBoundary23to22
    {
        type            processor;
        value           nonuniform List<scalar> 
17
(
0.97781
0.977685
0.97722
0.977015
0.976993
0.97684
0.97659
0.9761
0.975615
0.975264
0.97501
0.97581
0.983733
1.01633
1.07675
1.13252
1.16354
)
;
    }
    procBoundary23to30
    {
        type            processor;
        value           uniform 1.17573;
    }
    procBoundary23to31
    {
        type            processor;
        value           nonuniform List<scalar> 
133
(
0.993013
0.99316
0.994189
0.99541
0.997188
0.999712
1.00139
1.00367
1.00574
1.00687
1.00796
1.0085
1.00842
1.00848
1.00906
1.00929
1.0092
1.00863
1.00848
1.00829
1.00786
1.18864
1.1929
1.19383
1.19382
1.19302
1.19087
1.18781
1.18355
1.17871
1.1739
1.16862
1.16373
1.1591
1.15437
1.1524
1.15219
1.15216
1.15338
1.1576
1.16704
1.18276
1.20217
1.21571
1.21782
1.21786
1.21708
1.21486
1.2112
1.20614
1.20046
1.19471
1.19012
1.18671
1.18356
1.18118
1.1799
1.17898
1.17763
1.17588
1.17363
1.17066
1.16688
1.16237
1.15735
1.15201
1.14654
1.14119
1.13608
1.13113
1.12634
1.12172
1.1173
1.11306
1.10889
1.1046
1.10021
1.09581
1.09118
1.08639
1.08177
1.07701
1.07209
1.06745
1.0629
1.05822
1.05357
1.04896
1.04441
1.03988
1.03521
1.03045
1.02578
1.02099
1.01618
1.01172
1.00743
1.00328
0.999344
0.995472
0.992031
0.988872
0.985787
0.983323
0.981302
0.979631
0.978841
0.978878
0.978905
0.97926
0.98068
0.981496
0.982479
0.984538
0.986887
0.989365
0.990266
0.990261
0.990405
0.990225
0.989397
0.988758
0.988128
0.987239
0.986288
0.985942
0.985719
0.985193
0.985027
0.985607
0.985724
0.993013
0.985883
)
;
    }
}


// ************************************************************************* //
