/*--------------------------------*- C++ -*----------------------------------*\
  =========                 |
  \\      /  F ield         | OpenFOAM: The Open Source CFD Toolbox
   \\    /   O peration     | Website:  https://openfoam.org
    \\  /    A nd           | Version:  7
     \\/     M anipulation  |
\*---------------------------------------------------------------------------*/
FoamFile
{
    version     2.0;
    format      ascii;
    class       surfaceScalarField;
    location    "0.1";
    object      phi;
}
// * * * * * * * * * * * * * * * * * * * * * * * * * * * * * * * * * * * * * //

dimensions      [0 3 -1 0 0 0 0];

internalField   nonuniform List<scalar> 
18389
(
-7.98235e-05
7.98235e-05
4.35203e-05
-4.35203e-05
-5.20453e-05
5.20453e-05
4.01114e-05
-4.01114e-05
-5.1847e-05
5.1847e-05
-3.99726e-05
3.99726e-05
-3.42484e-05
3.42484e-05
3.89583e-05
-3.89583e-05
-3.50131e-05
3.50131e-05
4.14486e-05
-4.14486e-05
4.49259e-05
-4.49259e-05
-3.50134e-05
3.50134e-05
-1.3144e-05
1.3144e-05
-4.28338e-05
4.28338e-05
4.33892e-05
-4.33892e-05
2.30333e-05
-2.30333e-05
1.78192e-05
-1.78192e-05
4.58907e-05
-4.58907e-05
4.59228e-05
-4.59228e-05
4.33769e-05
-4.33769e-05
-4.24919e-05
4.24919e-05
3.51477e-05
-3.51477e-05
4.29956e-05
-4.29956e-05
-5.87405e-05
5.87405e-05
-4.98262e-05
4.98262e-05
-4.18259e-05
4.18259e-05
-4.45267e-05
4.45267e-05
4.56093e-05
-4.56093e-05
4.58481e-05
-4.58481e-05
4.41281e-05
-4.41281e-05
-4.1328e-05
4.1328e-05
-6.3055e-05
6.3055e-05
4.31037e-05
-4.31037e-05
-4.47338e-05
4.47339e-05
4.08542e-05
-4.08541e-05
4.66866e-05
-4.66866e-05
-4.5573e-05
4.5573e-05
5.36314e-05
-5.36314e-05
-5.88701e-05
5.88701e-05
3.78995e-05
-3.78995e-05
4.49003e-05
-4.49003e-05
4.54118e-05
-4.54118e-05
-4.10224e-05
4.10224e-05
4.49191e-05
-4.49191e-05
4.58624e-05
-4.58624e-05
-4.58473e-05
4.58473e-05
-4.58437e-05
4.58438e-05
-4.06518e-05
4.06518e-05
-4.58808e-05
4.58808e-05
4.59247e-05
-4.59247e-05
4.59398e-05
-4.59398e-05
4.46019e-05
-4.46019e-05
3.77189e-05
-3.77189e-05
-4.57656e-05
4.57656e-05
-5.55269e-05
5.55269e-05
-4.38007e-05
4.38007e-05
4.57626e-05
-4.57626e-05
-4.5983e-05
4.5983e-05
4.32168e-05
-4.32168e-05
-5.93085e-05
5.93085e-05
-4.71328e-05
4.71328e-05
4.96043e-05
-4.96043e-05
4.57191e-05
-4.57191e-05
-9.25718e-06
9.2572e-06
4.57785e-05
-4.57785e-05
4.14519e-05
-4.14519e-05
5.126e-05
-5.126e-05
-4.58514e-05
4.58514e-05
4.23456e-05
-4.23456e-05
3.22406e-05
-3.22406e-05
2.25103e-06
-2.25103e-06
-4.4154e-05
4.4154e-05
3.28689e-05
-3.28689e-05
-3.65917e-05
3.65917e-05
3.97272e-05
-3.97272e-05
2.66229e-05
-2.66229e-05
2.61873e-05
-2.61873e-05
2.70486e-05
-2.70486e-05
2.4381e-05
-2.4381e-05
1.23933e-05
-1.23933e-05
0.00108254
-0.000891753
-0.000190785
0.00546472
-0.00207295
-0.00339177
-0.00594664
0.00594653
1.10203e-07
0.0033542
-0.00260189
-0.000752318
-0.00157214
0.00176066
-0.000188519
-0.00675094
0.00283707
0.00391388
0.00121289
0.00425184
0.00725569
-0.00587566
-0.00138004
0.00119002
-0.00188825
0.000698236
-0.000851093
-0.000721052
-0.00144187
-0.00031475
0.00175662
0.000165584
-1.30654e-05
-0.000152518
0.000778759
-0.00222063
-0.00360384
0.0001218
0.00348203
-0.00320494
0.00289696
0.000307986
-0.00568471
0.00721042
-0.00152572
-0.00370837
0.00289738
0.000810984
-0.000562139
-0.0030417
-0.00175331
0.00238974
-0.000636423
-0.000461998
0.00255793
-0.00209593
-0.00161707
0.0011209
0.000496166
0.000583551
0.000581808
-0.0015964
-0.00515454
0.00126191
-0.00171632
0.000454415
0.00577617
-0.00385892
-0.00191723
-0.000682401
0.00330962
-0.00262722
-0.00583518
0.00583523
0.000450752
0.00130991
-0.00633175
0.000977653
0.0053541
0.00230499
-0.00298739
-0.003789
0.00311455
0.000674451
0.00214736
-0.0042203
0.00109465
-0.000201966
-0.000892682
0.00152134
-0.00129836
-0.000222977
-0.00280627
-0.000398666
0.00534959
-0.00534821
0.000382981
0.00113836
0.00522487
-0.00133377
-0.00389111
0.00195487
-0.000764849
0.00308582
0.00190857
-0.00499439
-0.000720379
-0.00306863
-8.8447e-05
-0.000158381
0.000246828
0.00393601
0.00331969
0.00113697
-0.00485378
0.0037168
0.00162349
0.00360138
-0.00497941
0.00631849
-0.00133909
-0.00115968
-0.000573695
0.00173337
0.00133659
0.00201761
0.000135299
0.000103611
-0.00023891
0.00501813
-0.00339464
0.00645799
-0.000842353
-0.00561563
0.00322268
-0.0026839
-0.000538782
0.00220984
0.000470581
-0.00268043
0.00296899
-0.000759152
0.00650432
-0.00539888
-0.00110543
0.000480797
-0.00383191
0.00335112
7.05249e-05
0.00638747
0.0047741
-0.0042933
-0.000535706
0.00105933
-0.000523623
-0.00176673
0.000607048
0.00191685
0.00224931
-0.00416615
0.000253719
-0.000334054
8.03356e-05
-0.00124462
-0.00285302
0.00409764
-2.63128e-05
0.00653064
-0.0028107
0.00230328
0.000507419
0.000390738
-1.20677e-05
-0.00037867
-0.00569235
-0.000254291
0.00187353
-0.00142277
0.00082882
0.00494735
0.000903442
0.000179099
0.00262675
-0.00641818
0.00379144
-0.00112021
0.00058451
0.00264679
-0.00389142
0.00619649
-0.00226047
0.0010922
0.00117719
-0.000771288
0.00106493
-0.000293637
-0.00112158
-0.000495485
0.00187431
0.00134836
-0.000593812
0.00142945
-0.0012374
-0.000192049
-0.0026517
0.00199309
0.00065861
0.00116677
0.000262683
0.00110438
-0.00493709
0.0038327
-0.00473625
0.00139715
0.00333909
-0.00455445
0.00611848
-0.00156404
-0.00506039
8.09875e-05
-0.0020188
-0.000632901
-0.000213665
0.000125218
-0.00120602
0.00462933
-0.00342331
-0.00117361
-0.000714643
0.000103285
-0.000192006
8.87205e-05
0.000126266
-2.29813e-05
-0.00124204
0.00461986
-0.00337781
-0.000156324
2.45172e-05
0.000131807
-0.00556398
0.00170506
-0.00121243
-0.000554293
-0.000449448
-1.89393e-05
0.000468387
-0.000543237
9.37884e-05
0.00101779
7.6853e-05
-0.00181696
0.000604526
-0.000150884
1.76125e-05
0.000133271
0.00136827
-0.00234443
0.000976165
0.000271091
-0.000135792
-0.00392466
0.00513755
-0.00245684
0.000703539
-0.000106238
-0.000419225
0.000525463
0.00568303
-0.00216574
-0.00351729
8.19254e-05
0.00250463
-0.00258655
0.00442513
-0.00557933
0.0011542
0.00263414
0.00304888
0.00291527
-0.00283335
-0.00610472
0.000420017
-0.00642046
0.003604
0.00281647
0.00229309
0.0039034
-0.00438333
0.00136175
0.00302157
0.00144557
-0.000183661
-0.00101777
0.00401437
-0.0029966
0.00463798
-0.00162422
-0.00301376
-0.00458084
0.0037424
0.000838453
0.00369368
-0.00502745
5.88687e-05
0.000331869
-0.00137953
0.00580467
-9.03032e-05
0.00214931
-0.002059
-0.00207833
0.00261898
0.000157446
-0.00277643
-0.0012773
0.00264556
-0.000631641
0.00325062
0.00164403
-0.00173433
0.000870343
0.00397217
-0.00484252
-0.00504184
0.00384085
0.001201
0.00255204
-0.00359412
0.00104209
-0.003291
0.00411357
-0.000822569
0.000373502
-0.00366451
-0.000977485
0.000977485
-0.000458134
0.000351896
-0.000127153
-0.000973277
0.00110043
0.00506832
-0.00184051
-0.0032278
-0.00243443
-0.000371851
0.00290258
0.000158031
1.65546e-05
-0.000174586
-0.00147294
0.00113003
0.000342909
-0.000143725
-0.00489812
0.00501782
-0.00388085
0.000230429
-6.48454e-05
0.00444338
0.000574747
0.00406773
-0.00151569
0.000165054
-7.02318e-06
-0.00632666
-0.000996102
-0.000820857
0.00429955
-0.0019027
-0.00239685
0.00275792
0.00154164
0.00107797
-0.00563241
-0.00227061
-0.000540081
-0.00112594
-0.000955001
0.00208094
4.50004e-05
-0.00272511
0.00268011
-0.00236096
0.00123503
-0.00221799
0.00530382
-0.00460032
0.00158069
0.00301963
0.00254962
0.000675644
-0.000344715
-0.000330929
-0.00601618
0.000583001
0.00543318
-0.00417351
0.00580638
-0.00163286
0.00182535
0.00163187
-0.00345722
-0.00169318
0.000909359
0.000783823
-0.0027149
0.00209144
0.00062346
0.0011287
0.000744832
0.000247143
-0.00032888
8.1739e-05
0.00485458
-0.00398424
-0.006381
0.00557329
0.000807719
-0.00476049
-0.00165997
0.0033603
0.00060375
-0.00396405
0.000154087
-0.000162306
8.2197e-06
0.000590521
-0.000125257
-0.000465264
-0.0045179
0.0026152
0.000386866
-0.000605213
0.000218347
2.46718e-05
-0.00100216
-0.00257573
0.0044843
-0.00530454
-0.000321057
0.0056256
0.000217238
0.000198395
-0.000415633
0.00140152
-0.00140152
0.00168732
-0.000721803
-0.00210758
0.0018141
0.000293479
0.0043894
-0.00302766
-0.00016263
6.30566e-06
-0.00133127
0.00135594
0.000676298
0.00127857
0.00234764
-0.000256195
-0.0040168
-0.00128773
0.00112373
-0.00495565
0.00321341
-0.00445545
0.000831852
-0.00213666
0.00130481
0.00336073
-0.00456675
-0.00270803
-0.00180987
-0.00483577
0.00469204
-0.000676923
-0.00533925
-0.00515682
0.00143141
-0.00145227
2.08549e-05
0.00223344
0.000114198
-0.00601452
0.00204863
0.0039659
-0.00121934
0.000526088
0.000693244
0.00143298
0.00295642
-0.00462246
-0.00101116
0.00563363
-0.000212877
0.000138568
7.43088e-05
-0.00549554
0.00132202
0.00375331
-0.00493696
0.00118365
-0.00150109
-0.00060648
-0.000536667
-0.000637526
0.000138316
-0.000203759
6.54422e-05
0.00495183
-0.00384746
-0.0012989
0.00512291
-0.00382401
-0.000459296
-0.000871978
-0.00586149
0.000439613
0.00539561
-0.00615382
0.00455741
-0.000921712
-0.0054593
-0.00109887
-0.000374067
-0.0018206
0.00285826
-0.00103767
-0.000419046
0.000321974
9.70729e-05
-0.0017321
0.00141735
0.0015871
-0.000155687
0.000817993
-3.67536e-05
-0.00169535
0.00279747
0.0012154
-0.00303599
0.00604868
-0.00047539
0.00528081
6.87787e-05
-0.00527768
0.00438962
0.00114288
-0.0055325
0.00055661
-0.000769
0.00021239
-4.61314e-05
-0.000412003
-1.44248e-05
0.0060631
-0.000162188
0.00015683
5.35842e-06
0.000133477
2.06093e-05
0.00254591
-0.0033541
0.000808182
-0.00188991
0.000698713
0.0011912
0.00792154
-0.0034511
-0.00447043
0.0011671
0.00126887
-0.00243598
0.000105992
-0.000173411
6.74198e-05
-0.000805846
0.00133193
0.00114818
0.0031848
-0.00433298
-0.0056145
0.000165763
0.00544874
-0.00401437
0.00299661
0.00173501
0.00479562
0.00458194
0.00333959
-2.14489e-05
0.000191329
-0.00016988
-0.00129339
0.00438421
-0.00309081
0.000302017
-0.000348148
-0.000131408
-8.1469e-05
0.0041025
-0.00227716
0.00472804
-0.00498578
0.000257745
-0.00321716
0.00602921
-0.00281206
0.00252958
0.00157292
0.00570913
-0.000981092
-0.00138178
-0.00562095
0.00137213
0.00424882
0.000654532
0.000520473
-0.001175
0.00126924
-0.000614712
0.000585293
-0.00110998
0.000524684
0.00110577
0.000273291
0.000402354
-0.000678136
0.00443145
0.00152293
-0.000392903
0.00350039
-0.00608745
0.00258706
0.00153683
-0.00258704
0.00105021
-0.00430303
0.00114473
0.00315831
0.00292117
-0.00421457
-0.00490243
-0.00125139
-0.0040934
0.0012595
0.0028339
0.00123258
0.00315162
-0.00326272
-0.000830691
0.00222947
-0.00106238
-0.000666097
-0.00254022
0.00320631
0.00241411
0.000604183
-0.00301829
-0.00159553
0.00120733
0.000388196
0.000270273
0.00150477
-0.00196883
0.000464066
-0.000111037
-0.000223017
-0.00026467
0.000153632
-0.00434225
-0.000238592
-0.000301126
0.0011865
-0.000885371
0.00435002
-0.00464225
0.000292232
-8.83922e-05
0.000117732
-2.93398e-05
0.000965658
0.0033829
-0.00434855
-0.000156952
6.85596e-05
-0.00474904
0.000707418
0.00404163
-0.00110684
3.83802e-05
0.00106846
7.28583e-05
-8.59236e-05
-0.000399005
0.000864674
-0.000347475
-0.000517199
-0.00603649
0.000637608
-0.00254967
-0.000128367
0.00267803
-0.00317244
0.00440502
0.0021809
-0.0010887
-0.00116725
-0.00116843
-5.17802e-06
-0.00351718
-0.00121906
0.00152114
-0.000429095
-0.00109205
0.00191968
0.00183799
-0.00375767
0.00502715
-0.00159387
-0.00343328
0.000791945
-0.00541441
-0.00137262
0.00300448
0.00194162
0.000798099
-0.00273971
-0.00350059
0.00446625
-0.000153606
2.72229e-06
0.000928612
-0.0044292
-0.00449544
-0.000146827
-0.000998013
-0.00461649
0.00461056
0.00146708
0.00356007
0.00415905
0.00114067
-0.00529971
3.55467e-05
5.99444e-05
-9.54911e-05
-0.00141437
0.00335598
0.00370059
0.00350983
-0.00140891
0.00237548
-0.000966561
-0.00247378
0.000454989
-0.000878452
0.000751297
-0.000203594
0.000420832
-0.000196796
0.00170156
0.00376295
-0.00184327
-0.00109623
-0.00059696
-0.000107285
-0.000157384
0.00355028
-0.00163342
-0.00240362
0.00465294
0.000674706
-0.00309581
0.0024211
0.000670049
0.000758703
-0.00105983
0.00210073
-0.00129893
-0.00327603
0.00457495
-0.00215149
0.00477824
-0.000549163
0.00344612
0.000239615
-0.000222002
-0.00236535
0.000956447
0.00228653
-0.00387221
0.00158569
-0.00121361
5.81667e-05
-2.262e-05
0.00215664
-0.00280038
0.00064374
-0.00117552
-0.000420001
-0.00351864
0.0044963
0.00117835
0.00168354
-0.00286189
-0.00169419
0.003661
-0.0019668
0.00423387
-0.000850981
0.000234312
1.41438e-05
-0.000248456
-0.00371921
0.00202502
-0.00141145
0.00470149
-0.00329004
0.000877852
0.00130305
0.000228165
0.00117335
0.000253158
-0.000300849
4.76902e-05
0.00172163
0.00021129
-0.00193292
0.00301929
-0.00457021
0.00155092
-5.2902e-05
0.000374449
-0.000321547
0.00156741
-0.000360082
0.00141451
-0.00059806
-0.000816446
0.00282723
-0.00391836
0.00109113
0.00268442
-0.00374157
0.00105716
-0.0051292
0.00191204
0.00388503
-0.000865741
-0.000622065
-0.00238705
0.00300912
0.00140388
-0.0051144
0.00371052
0.00336047
-0.00145886
-0.00190161
-0.000689333
0.00172852
-0.00103918
0.00477179
-0.00303678
-0.000722796
-0.00196109
-0.00598172
0.00513937
3.95327e-06
0.000121802
-0.000125756
-0.00158237
0.00120595
0.000376421
-0.00491418
0.00630747
-0.0013933
-0.00187407
0.000686289
0.00118778
0.000401356
0.00268603
-0.00209011
-0.000595916
0.00343338
0.000490685
-0.00392407
0.000126775
-2.07823e-05
0.00517236
0.000336728
-0.00550909
-0.00194128
0.00379751
-0.00185623
0.00276208
-0.000623243
-0.00213884
0.000462489
0.000402185
-0.00043905
0.00387243
0.00202531
-0.00396659
0.000722944
-0.000278153
-0.00044479
-0.000725393
3.3922e-05
0.000691473
-0.00315106
-0.00576577
0.00576441
-0.000274496
0.000952424
-0.000677928
-0.00229062
-0.000183167
-0.00454014
0.0032412
-0.000857931
0.00111215
0.00360799
-0.00501979
0.0014118
0.000410669
-0.00296033
0.0023303
-0.00243558
0.000105265
-0.00157147
0.00148238
8.90906e-05
-0.00121562
-0.000366748
-0.00339196
0.00342499
-0.00224664
0.000457394
0.000133127
-0.00173496
0.00104563
-0.00278686
0.000725951
0.00206091
0.000242303
-7.99049e-06
-0.00347621
0.00101998
0.00245622
-0.00144009
0.00559914
0.000338318
-0.000956772
0.000618456
0.00212902
0.000633068
-0.00127775
0.000304479
0.00112003
0.00121028
-0.00140862
0.00493509
-0.00352647
-0.00484356
0.00576058
-0.000917025
-0.00117059
0.00228363
0.00410384
0.00107401
4.68805e-05
0.00584506
-0.00550452
-0.000340534
0.00353059
-0.00464847
0.00111789
0.00308617
-0.000672062
0.00542669
-0.0018187
-0.00250501
-0.000971193
-0.0021946
-0.000298522
0.00249314
0.00243852
-0.00196795
-0.00160822
-0.00423684
0.00274995
0.0014869
-0.000330336
0.00123969
0.00119564
0.00364919
-0.00484483
-0.000252834
0.0006397
0.00305973
-0.00238502
-0.00472324
-0.00125848
0.00647068
-0.00129832
0.00422748
0.00206573
0.000492209
0.00285584
-0.0021286
-0.000727243
0.00473515
-0.00245152
-6.01089e-05
-0.00332812
-0.000860037
0.00418816
0.000388883
-8.65402e-05
-0.000302343
-0.00513394
0.00610019
-0.000966244
-0.000703786
0.00189793
-0.00119414
-0.000697313
0.00525327
-0.00455597
0.00120201
-0.00190579
-0.000113326
-0.00576232
-0.000771288
0.00202622
0.00381884
-0.00027547
-0.00191914
0.000251349
-4.20637e-06
0.0003626
-0.000487857
0.00335693
-0.000811017
-0.00522356
-0.00027155
-0.000147497
0.000150282
-0.00013364
-1.66416e-05
-0.00248297
0.000122002
-0.000417249
0.00159695
-0.00102804
-0.000568909
0.00245204
0.000611903
-0.00306395
-0.000726494
0.00317852
-0.00520294
-0.00027154
0.00547448
0.00375045
0.00137246
0.00439848
-0.00121368
-0.000117775
0.0025563
0.00540387
-0.000206689
-0.00519718
-0.00608741
0.00425312
0.0018343
0.00321124
-0.0012679
-0.00435306
0.000206112
-0.00022756
0.000543862
0.000870641
0.00120336
0.000128264
-0.00133163
0.00421236
0.00119151
-0.00096429
0.00317026
-0.00220597
0.00471078
-0.00135048
-0.00218232
0.00279334
-0.000611015
-0.00117437
-9.88639e-05
0.00029004
-0.000191176
0.00344653
-0.00414384
0.00134777
-0.000993053
-0.000354718
0.00160073
-0.000394782
-0.00324966
0.00228537
0.00548347
-0.00434059
-3.0629e-05
0.000352603
-0.00535571
0.000441519
0.00540354
-0.00190315
-0.000993857
-0.00361568
0.00460954
-0.000644231
0.00288342
-0.00223919
0.00549728
-0.00286249
-0.00263479
-8.83949e-05
0.000590099
-0.000677185
0.000660663
1.6522e-05
-0.000700881
0.00173927
-0.00103839
-0.00314901
-0.00115402
0.00015552
-1.72039e-05
-0.00122479
-0.00478974
-0.00307002
0.00240392
-0.00115682
-0.000244696
-7.2642e-05
-8.9546e-05
-0.00124297
-0.000806061
-0.00523043
-0.00283875
0.00219452
-0.000806656
0.00118964
0.00110826
0.00436016
-0.00546841
0.00335887
-0.00275512
0.000468537
0.000767265
-0.00288232
0.00211505
0.00496731
-0.00490226
-6.50452e-05
-0.00320938
0.00361574
-0.000406347
0.00020775
-9.55888e-05
-0.000112162
-0.0049414
-0.0014768
-0.00176236
0.00368929
-0.00192693
0.0029799
-0.00221263
-0.00378022
0.00201786
0.0013951
-0.00258171
0.0011866
-0.00363296
0.00568159
0.00649519
-0.00219455
-0.00430064
-0.00239729
0.00237717
2.01356e-05
0.00557677
-0.00160461
0.00118953
-0.000926773
-0.000262759
-9.10839e-06
0.000262267
0.000249745
-0.000776341
0.000526596
-0.00305296
0.00364903
-0.000964609
0.000850541
-0.00105251
0.00236872
-0.000636816
-0.00173191
0.00223865
-0.000517019
0.00450545
0.000634318
0.00173441
-0.00175751
0.00105663
0.000408504
-0.000464627
5.61234e-05
0.00222475
-0.00173142
-0.000493331
0.000816711
-0.00514787
-0.000544484
0.0003695
-0.000588356
0.000218856
-0.00410197
0.0054741
0.000941869
-0.0011164
0.000174537
-0.00154452
0.00216029
-0.000615776
-0.0014829
-0.00275395
-0.00537999
-0.000149073
0.00552907
0.00029685
0.000108348
4.19348e-05
0.000127721
-0.000127855
1.34358e-07
0.00408457
-0.00288893
-0.00379192
-0.00229552
0.00346429
0.0030309
-0.00258817
0.000709443
0.00187873
-0.000844657
0.00223975
-0.00230199
-9.53061e-05
0.00273025
-0.00377713
0.00104687
0.00131468
-0.000128189
0.000462928
0.000554867
-0.00327636
0.000959189
0.00231717
0.000905752
-0.000663788
-6.16067e-05
-0.00426448
0.00171015
0.00012439
-0.00183453
-0.00396177
0.00145847
0.0025033
0.000500726
0.00147323
-0.000929369
-0.000246276
-0.00466041
0.00490669
0.000783755
-0.00247679
0.00169303
0.00120226
0.00131226
-0.000447383
-0.00173486
0.00218225
0.00258006
-0.00179631
0.00446334
-0.00353473
-0.00074537
-0.00264089
-0.000227728
0.000252246
-0.000713551
0.00177045
-0.0010569
0.00266457
-0.0036663
0.00100172
0.000136417
2.04134e-05
-0.00236651
-0.000909855
0.0014212
-0.00163604
0.000214841
-0.00277486
0.000684751
0.00127615
-0.0014184
0.000142244
0.00161858
-0.00180751
0.000188933
0.000673522
-0.00371833
-0.00113545
0.00133044
-0.0048793
0.00354886
-0.000907906
0.00357247
0.00011734
-7.90207e-05
-3.83195e-05
0.00471101
-0.00360275
-0.000302457
-0.00151503
-0.00400493
-0.00149062
0.00209486
0.000698468
-0.000997182
-0.000920008
-0.00448723
-0.00161749
-0.000406818
0.00124528
-0.000935185
-0.000310097
-0.00149869
-0.00108836
0.000649995
0.00226321
-0.00291321
-0.000114238
0.000670848
-0.000716066
3.88805e-05
-0.00246583
0.00196643
0.00139403
-0.000698829
0.00165524
-0.000956408
-8.68396e-05
-0.000116919
0.00031851
-0.00193819
0.000437096
0.0016234
-0.00230479
0.000681386
-0.00333258
0.00259025
0.000742312
0.0012112
0.00239694
-0.00360813
-0.00175836
0.00104481
-0.00294285
-0.00101892
-0.000772408
-0.00256017
-0.00168027
0.00125818
0.000422088
0.00176615
-5.6e-05
-0.000755213
-0.0024392
0.0031944
-0.00065784
0.00291203
-0.00226203
-0.000858651
-0.00394757
0.00480623
-0.00233854
0.00233979
-1.2467e-06
-0.00110684
-0.00157386
0.000545818
-0.00240853
0.00381842
-0.00140989
0.0032333
0.00288519
0.000194324
3.62105e-05
-0.000230535
0.002341
-0.000601735
-0.00173926
0.00018858
-0.000184627
-0.00358391
0.00491435
-0.00328439
0.00522333
-0.00193894
-0.00351035
-0.00150944
-0.000917459
0.00322993
-0.00231248
0.00286019
0.00177035
-0.00417889
-0.00499207
-0.000141869
-0.000769983
0.00283988
-0.00206989
-0.000431814
0.000378912
-0.000534672
0.00167794
-0.00114327
-0.00401522
0.00334403
0.000671181
-0.00326894
0.00235148
-0.00386235
0.000668534
0.00319381
0.0014142
-0.00101876
-0.00039544
-0.00589957
0.000696627
0.00184734
-0.00141206
-0.000435276
0.00156811
-0.000491476
-0.00107663
7.83603e-05
0.00012939
0.00292423
-0.000620944
-0.000209672
-0.003485
-0.000377344
0.000425208
-0.00305493
-0.000960285
-0.00233728
-1.25654e-06
-0.00291991
0.00229785
0.000719633
0.00260265
-0.00332229
0.00058767
-0.000862166
0.00140471
-0.00671314
0.00530844
-0.00575371
0.000993214
-0.00231984
0.00353104
0.000694228
0.000258197
-0.00273367
0.00345331
-7.6606e-05
0.00504391
0.000593028
0.00172395
-0.00231698
-0.00177893
0.00124426
0.00275122
-0.00369472
0.000943498
0.00509756
0.000675383
0.00154937
0.000307506
0.000415437
-0.000364066
-0.000404934
0.000180881
-0.00175017
0.00176676
-0.000888914
0.000900444
0.000572782
-0.000576433
0.00300804
-0.0024316
-0.00151757
0.00184259
-0.000325021
-0.00488925
0.00380394
0.00108531
-0.00478774
0.00150334
-4.01281e-05
3.54304e-05
4.69775e-06
-0.00281576
-0.000850539
0.00111827
-0.00130462
0.000186348
0.00134031
-0.00492422
0.00115467
4.86942e-05
0.00122603
0.000692747
0.00219067
-0.0036664
0.000850651
0.00019094
-0.0050345
0.0018883
0.001236
0.000661928
-0.00527326
-0.000492511
0.00565109
0.00118886
0.00710818
-0.0021843
-0.00492387
0.000816333
-0.000377552
-0.000438782
0.000699119
-0.00139122
0.000794262
-0.00386055
-0.00125386
0.00029004
-0.000970348
-0.000393184
0.00136353
0.0023356
0.00400836
-0.004867
0.00270339
0.000833615
-0.00353701
0.00125325
-0.000968336
-0.000284909
0.000744307
0.00159669
-0.000135147
0.000138374
-3.22717e-06
-0.000707918
0.00288383
-0.00217591
0.00361811
0.00108339
-0.00126723
-0.000413038
0.00143759
-0.00153181
9.42222e-05
4.63243e-05
7.10159e-05
-0.00447755
0.000967202
-0.00165774
0.000442117
-0.00364788
0.00292137
-0.000952739
6.09859e-05
0.000930283
0.00268395
-0.00361423
0.000852289
-0.00127257
0.00416997
-0.0028974
0.000318058
0.000279937
4.65285e-05
-0.000326466
7.82467e-05
-0.00539184
0.0053136
-0.00264085
-0.000761498
0.00340235
-0.0034796
0.00261696
0.000862649
-0.00276152
-0.000262545
-0.00171436
-0.0048961
0.000891176
-0.00146061
-0.000876671
-0.00106176
0.00379201
0.00171291
-0.00372312
0.00201021
0.000105738
2.19825e-05
0.00372459
-0.00201168
0.00286693
0.00093935
-0.00380627
-0.00130863
0.00174333
-0.000434694
0.0035737
0.00108956
-0.00466326
0.00718174
-0.00196531
-0.00521642
-0.00212975
-0.000708996
-0.00175004
0.00234306
0.00377362
-0.00492263
0.001149
-0.0028057
0.00373598
0.00117805
-5.52178e-05
-0.00112284
0.00147988
0.000909849
-0.00550042
0.000597985
0.000447386
0.000368946
0.00292156
-0.00111563
-0.0025188
0.00248194
3.68632e-05
0.000504173
-0.00184128
0.0013371
-0.00386783
-0.00119256
0.00108597
-0.00254658
-0.00529909
0.000151232
-0.00126756
-0.000509171
0.00177673
0.00563444
-0.00449378
0.000104694
0.000284189
-0.00302386
0.00318131
0.00144603
-0.00107815
-0.000367884
0.00346949
0.00475313
-0.000949204
0.000625535
-0.00326638
0.00114845
-0.00111007
-5.28953e-05
0.000461399
0.00039412
-1.96709e-05
-0.00205903
-0.000430535
0.0015488
-0.000889357
-0.00349722
0.000763553
-3.10066e-05
-9.12159e-06
0.00599895
-0.00492096
0.00521902
-0.0043902
-7.18182e-05
-0.00106846
0.00114027
0.00194934
-0.000457773
-0.00149157
0.00335863
-0.000755974
-0.0025689
0.00336084
-0.000791937
-0.00183577
0.000527138
0.00128209
-0.000956091
-0.000325995
-0.000118746
-0.000210134
0.00205989
-0.000547603
-0.00151228
-0.00138596
-0.00239694
-0.00012185
0.00209537
-0.00274724
0.000651878
0.00280682
-0.000748775
-0.00205805
0.00410354
-0.00434981
0.00031375
0.0022345
-0.000611099
-0.000679998
0.000837415
-0.0036702
0.0050105
0.00122189
0.000450216
-0.00171778
-0.00284978
0.0020989
0.00363009
0.00158892
-0.00116096
-0.00382
-0.00111709
0.00130824
-0.0017205
0.000412258
0.00367589
-0.00318521
-0.000193861
0.00113573
-3.90205e-05
-0.000271187
0.000310208
-0.000678212
-0.00190996
0.00377312
-0.00490422
0.0011311
-0.00187011
0.00235318
-0.000483074
-0.0011495
0.00213496
0.000748867
-0.00226563
0.00375457
-0.00148894
0.00150936
-0.00114656
-0.000362796
-0.0013162
0.000209362
0.000190323
-0.00050783
0.000317507
-0.000424363
-0.00123338
-0.00247585
0.00250433
-2.8482e-05
0.00144465
-0.00371029
0.00162757
-0.000369384
0.00036612
-0.000406593
4.04726e-05
-0.000828871
0.000595852
0.00023302
-0.000793837
-0.00284149
0.000808796
0.00203269
-0.0019919
-0.000840648
-0.000747148
0.00158779
-0.00523972
0.0038967
0.00134302
-0.00137513
0.00130331
-0.000576232
-0.000115935
0.000692166
0.00286885
-0.000733894
-0.000770132
-0.000160212
0.000930344
0.00184154
-0.00139133
0.00170099
-0.000392749
-0.000226679
-0.000639676
-0.00419989
0.00483957
-0.00140088
0.00283195
0.00427623
-0.00239988
-7.59623e-05
0.00313228
-0.00472615
0.000732071
0.00158322
-0.0023153
0.00202191
-0.00279189
0.00197588
-0.000702706
-0.00127317
-0.00179656
0.000455304
0.00134125
0.0043117
0.00287003
-0.00550725
0.00133109
0.00417616
-0.0012475
-0.00399221
-0.000459698
-0.00133686
-0.00101355
-0.000560309
-0.00129697
-0.000423533
0.00113746
-0.000530163
0.00151635
-0.000986182
-0.0017577
0.001298
-0.000944209
-0.000207198
0.00115141
0.00217436
-0.00286783
0.000693476
-1.17644e-05
0.000206088
0.00104013
0.00604594
-0.00140514
-0.0046408
-0.00203338
-0.0018733
0.001354
0.000519296
0.00127423
-0.000982167
-0.000292058
-0.00230016
-0.00101547
0.00331565
-0.0026767
0.0035781
-0.000901406
-0.00091519
0.001135
-8.98042e-06
-0.00112602
0.00376209
-0.00493283
0.00117074
0.00174802
-0.0013563
-0.000391716
0.00242708
-0.00122481
0.00273135
-0.000637632
-0.000191239
-0.00409077
0.00230083
-0.00179098
-0.000509844
0.000559815
-0.00200985
0.00145003
-0.00252293
-0.000831162
0.000861981
-0.000660633
-0.00020135
-0.000180489
-0.00363767
0.000960971
0.000611712
-0.000421389
0.00259971
0.000978389
0.000318136
0.00130713
0.000668753
-0.00160493
0.00233699
-0.00151827
0.0010096
0.000508672
0.00353771
-0.000670773
-0.00380937
0.00610246
-0.00114213
-0.00247861
0.00681792
-0.00433931
-0.000883856
0.00356781
-0.00414179
0.000932413
-0.00210089
0.00424825
-0.00067245
-0.00163233
-0.00244243
0.00172195
0.000720489
-0.001277
0.00103299
-0.00104571
1.27264e-05
-0.00137885
-0.000776626
-0.000153466
0.000930093
-0.00155993
0.00137049
0.000189449
0.00204975
0.000790128
6.24223e-05
-0.00129982
-0.000550523
-0.000840699
-0.00241196
-0.000464996
-0.0014083
-0.000170985
0.00159219
-0.000180637
0.00340964
-0.000512264
0.00133858
0.000200595
-0.000711843
-0.00100448
-0.00193057
0.00247678
-0.000546208
-0.00105921
-0.00572888
0.00351089
0.00148516
-0.00058472
0.00289013
-0.00120659
0.000948641
-0.00135905
-0.00453073
0.00588977
0.000619685
-0.00255026
0.000739099
-0.00368398
0.00270478
0.000979197
0.000900782
-0.00143094
0.0022333
-0.00311541
0.000882106
0.00119296
-0.00342877
0.0022358
0.00085954
0.00168953
-0.00254907
-0.000174244
0.00179282
0.00275293
0.00108499
0.00362158
-0.000413518
0.000783016
0.00316051
-0.00402054
0.000972347
-0.0032725
0.000433753
0.00412394
0.00148784
-1.10818e-05
-0.000275534
0.000286615
-0.00619191
0.00385631
0.00233561
-0.000819956
-0.00261997
0.00343994
0.00264013
-0.00178058
-0.0036954
0.000889701
-0.00132232
-0.000435378
-0.000152619
0.00131939
0.0037223
0.00121278
0.000224349
0.00131169
-0.000995621
-0.000316066
0.000943789
0.000541375
-0.000314269
0.00376969
-0.00493068
0.001161
0.00307459
-0.000841304
-0.0013999
0.00190407
0.00126286
-0.00355318
0.00229032
-0.00116314
0.00145763
0.000677634
-0.00213526
0.000192939
-0.000204022
0.00220026
-0.000863674
-0.00129995
0.000329519
0.000939121
-0.000348882
-0.000590239
0.0035319
-0.00226905
-0.000493705
0.00229993
-0.00180623
0.00102603
-0.0029621
0.00210088
0.000861229
0.000105872
-1.34268e-07
0.00465431
0.000535415
-0.00568997
-0.00519218
0.00392673
0.00126546
-0.00107237
-0.00269728
0.00376965
0.0022212
0.00372534
0.00283007
-0.00375251
0.00092244
-0.00147357
0.00110682
-0.000925358
0.00336193
-0.00243658
0.00149827
0.000561609
-0.00378482
-0.0024071
0.00105577
-0.00230538
0.00320565
-0.000900271
0.00342254
-0.000805576
0.000394192
-0.000791746
0.00255299
0.000869549
-0.000634019
0.00430991
-0.00131263
0.00171894
-0.000406314
0.00197693
-0.00127822
-0.00038857
0.0060772
-0.0049203
-0.000459687
0.000857545
-0.00246247
-0.0053919
-0.00172416
0.000411531
-0.000678023
0.000101791
-0.000865327
0.000213312
-0.00147293
0.00064947
0.00158502
-0.000905236
0.000135105
0.000804305
0.00251663
-0.00332095
-0.00109508
0.00187383
-0.0019475
-0.000473854
0.00196146
-0.00148761
-0.000860319
-0.00210178
-0.00195202
0.00147817
-0.00265811
0.00346241
-0.00163843
0.00056766
0.00107077
-0.000967679
0.00356739
0.00598444
-0.00228385
-0.00130601
-0.000418151
-0.00174306
0.00111071
0.00063235
0.000904254
-0.0045188
0.00361455
-0.00131952
0.000540653
0.000778862
-0.00403478
-0.00115741
0.000191738
-0.00113594
0.00192619
-0.000690185
-0.00133203
-0.00379713
0.00512916
0.00100996
6.40558e-05
0.00329639
-0.00252882
-0.000767571
0.000282615
0.00128549
0.000878879
-0.000671952
-0.000206927
-0.00135439
-0.00101096
-0.00105717
0.00507496
-0.00401779
0.00062643
-0.00249654
0.000175673
0.00126192
0.0037739
-0.00495841
0.00118451
0.00287221
-0.00206341
0.000102032
-0.000168373
6.63414e-05
0.00102278
0.000138068
0.000104235
0.00235091
0.00369503
-0.000575023
-0.000821772
0.00139679
0.000651722
0.00177353
-0.00242525
0.00239399
-0.00171489
-0.000679097
0.000475003
0.00147434
0.000425696
-0.000507957
-0.000811558
0.000601331
-0.00532458
0.000690457
-2.97943e-05
-0.00115678
-0.00129857
-0.00378562
0.00508419
0.00104015
0.00143815
-0.00189592
0.00254708
-0.000395074
-0.00490911
0.00530419
0.000121045
-1.90132e-05
0.000630803
0.00129538
0.00273421
0.00093297
-0.00366717
0.00137631
0.000471031
0.00258758
-0.00364088
0.00454514
0.00277457
0.000842691
-0.00361726
0.00160545
-0.000860542
-0.000744911
0.00133061
-0.00102191
-0.000308699
0.000421979
0.00105578
-0.00469667
0.000218246
-6.86072e-06
0.0001998
0.0059958
-0.0012848
0.0015275
-0.00212923
0.00252107
-0.0018343
-0.000686777
0.00084433
-0.00253926
0.00169493
0.00523523
-0.00282075
-0.000920809
-0.00159811
0.00500808
0.00148593
-0.00178111
0.000295179
0.000500433
-0.000103753
-0.00039668
-0.000986768
-0.00314234
0.00412911
0.000740949
0.00182137
-0.00256232
0.00176724
-0.000281304
0.00225282
0.0014096
-0.000868955
-0.000937141
0.000160514
-0.00157665
0.0020731