/*--------------------------------*- C++ -*----------------------------------*\
  =========                 |
  \\      /  F ield         | OpenFOAM: The Open Source CFD Toolbox
   \\    /   O peration     | Website:  https://openfoam.org
    \\  /    A nd           | Version:  7
     \\/     M anipulation  |
\*---------------------------------------------------------------------------*/
FoamFile
{
    version     2.0;
    format      ascii;
    class       volScalarField;
    location    "20";
    object      p;
}
// * * * * * * * * * * * * * * * * * * * * * * * * * * * * * * * * * * * * * //

dimensions      [0 2 -2 0 0 0 0];

internalField   nonuniform List<scalar> 
607
(
-0.0240421
-0.0272316
-0.0434827
-0.0301603
-0.0637445
-0.045965
-0.0328404
-0.087231
-0.0654459
-0.0481961
-0.035286
-0.112953
-0.0878358
-0.0669145
-0.0501942
-0.0375112
-0.112121
-0.088272
-0.0681697
-0.051977
-0.0395301
-0.111215
-0.0885579
-0.0692295
-0.053561
-0.0413559
-0.11025
-0.088709
-0.0701104
-0.0549621
-0.0430012
-0.109237
-0.0887386
-0.0708275
-0.0561946
-0.0444772
-0.0886579
-0.0713947
-0.0572719
-0.0457946
-0.0884765
-0.0718247
-0.058206
-0.0469628
-0.0882024
-0.0721297
-0.0590076
-0.0479902
-0.0878423
-0.0723205
-0.0596864
-0.0488842
-0.087402
-0.0724077
-0.0602503
-0.0496513
-0.0868866
-0.0724011
-0.060706
-0.0502974
-0.0723097
-0.0610586
-0.0508281
-0.072142
-0.0613119
-0.0512487
-0.0719054
-0.0614683
-0.051564
-0.0716069
-0.0615292
-0.0517771
-0.0712524
-0.0614924
-0.0518868
-0.06135
-0.0518864
-0.0610859
-0.0517701
-0.0606815
-0.051551
-0.0601375
-0.0512832
-0.051052
-0.0508686
-0.0506508
-0.016818
-0.0103094
-0.00363234
0.00129568
0.00456345
0.0068398
0.00843792
0.00945371
0.00999381
0.0101706
0.0100874
0.00982668
0.00944761
0.00899483
0.00850199
0.00799347
-0.0199041
-0.0132653
-0.0064286
-0.00126236
0.00229776
0.0048707
0.00674139
0.00800137
0.00876082
0.00914035
0.00922951
0.00911135
0.00885094
0.00849702
0.00808624
0.0076456
-0.0227613
-0.0160311
-0.009087
-0.00372836
9.10842e-05
0.00293683
0.00506382
0.0065568
0.00752693
0.00809835
0.00835983
0.00838533
0.00824418
0.0079898
0.00766193
0.0072901
-0.0253985
-0.0186125
-0.0116075
-0.00609836
-0.0020517
0.00104276
0.00340841
0.00512358
0.00629627
0.00704935
0.00747874
0.00764906
0.0076281
0.00747386
0.0072296
0.00692741
-0.0278258
-0.0210161
-0.0139919
-0.00837021
-0.00412711
-0.000808144
0.00177824
0.00370376
0.00507131
0.00600014
0.00658771
0.00690249
0.00700301
0.00694967
0.00678966
0.00655784
-0.0300538
-0.0232492
-0.0162427
-0.010543
-0.00613262
-0.00261321
0.000175932
0.00229917
0.00385383
0.00495241
0.00569141
0.00614568
0.00636882
0.00641747
0.00634241
0.00618162
-0.0320932
-0.0253193
-0.0183635
-0.0126166
-0.00806649
-0.00437027
-0.00139636
0.000911826
0.00264487
0.00390778
0.00479411
0.00538019
0.00572519
0.00587721
0.005888
0.00579892
-0.0339547
-0.0272345
-0.0203578
-0.0145914
-0.00992752
-0.00607756
-0.00293674
-0.000456438
0.00144571
0.00286719
0.00389665
0.00461047
0.00507226
0.00532861
0.00542644
0.00540986
-0.0356487
-0.0290026
-0.02223
-0.0164683
-0.0117149
-0.00773365
-0.00444349
-0.001804
0.000257803
0.00183128
0.00300014
0.00383873
0.00441171
0.00477136
0.00495756
0.00501446
-0.0371856
-0.0306318
-0.0239841
-0.0182484
-0.0134284
-0.00933739
-0.00591508
-0.00312934
-0.000917523
0.000801029
0.00210513
0.00306567
0.00374737
0.00420566
0.00448105
0.00461263
-0.0385754
-0.0321305
-0.0256249
-0.0199331
-0.0150676
-0.0108878
-0.00735017
-0.00443105
-0.00207902
-0.000222449
0.00121205
0.00229201
0.00308029
0.00363326
0.00399664
0.00420415
-0.0398278
-0.0335072
-0.0271568
-0.0215239
-0.0166329
-0.0123842
-0.0087475
-0.00570781
-0.0032255
-0.00123814
0.000321712
0.00151803
0.00241105
0.0030572
0.00350463
0.00378873
0.00394259
-0.0409527
-0.0347705
-0.0285849
-0.0230228
-0.0181244
-0.013826
-0.010106
-0.00695844
-0.00435582
-0.00224506
-0.00056504
0.000744115
0.00174013
0.00247794
0.00300666
0.00336618
0.00358557
-0.0419594
-0.0359294
-0.0299142
-0.0244318
-0.0195429
-0.0152126
-0.0114246
-0.00818181
-0.00546889
-0.00324222
-0.00144741
-2.91238e-05
0.00106769
0.00189598
0.00250505
0.00293682
0.00322231
-0.0428574
-0.0369926
-0.0311498
-0.0257532
-0.0208891
-0.0165438
-0.0127024
-0.00937691
-0.00656369
-0.00422868
-0.00232461
-0.000801034
0.000394007
0.00131164
0.00200001
0.00250208
0.00285268
-0.0436561
-0.0379694
-0.0322972
-0.0269899
-0.0221641
-0.0178192
-0.0139387
-0.0105428
-0.00763925
-0.00520353
-0.00319584
-0.00157099
-0.000280415
0.000724983
0.00149193
0.00206372
0.00247696
-0.0443648
-0.0388687
-0.0333619
-0.0281449
-0.023369
-0.0190386
-0.0151325
-0.0116785
-0.00869464
-0.00616588
-0.00406034
-0.00233835
-0.000955076
0.000136254
0.000981054
0.00162185
0.00209633
-0.0449932
-0.0396994
-0.0343498
-0.029222
-0.0245055
-0.020202
-0.0162833
-0.0127833
-0.00972895
-0.0071149
-0.00491733
-0.00310246
-0.00162947
-0.000454169
0.000467395
0.00117679
0.00171217
-0.0455516
-0.0404705
-0.0352668
-0.0302253
-0.0255755
-0.0213094
-0.0173905
-0.0138562
-0.0107413
-0.00804975
-0.00576608
-0.00386271
-0.0023031
-0.0010459
-4.88593e-05
0.000728711
0.00132454
-0.0460497
-0.0411908
-0.0361196
-0.0311598
-0.0265811
-0.0223609
-0.0184533
-0.0148966
-0.011731
-0.00896966
-0.00660589
-0.00461844
-0.00297541
-0.00163851
-0.000567392
0.000277641
0.000933717
0.0014333
-0.0464963
-0.0418689
-0.0369152
-0.0320313
-0.0275251
-0.0233571
-0.0194715
-0.0159035
-0.012697
-0.00987377
-0.00743593
-0.00536894
-0.00364581
-0.00223153
-0.00108788
-0.000176321
0.000539779
0.00109252
-0.0468977
-0.0425121
-0.0376609
-0.0328461
-0.0284104
-0.0242985
-0.0204444
-0.0168762
-0.0136384
-0.0107614
-0.00825566
-0.00611384
-0.00431409
-0.00282493
-0.00161039
-0.000633255
0.000142535
0.000748491
-0.047258
-0.0431252
-0.038365
-0.0336122
-0.0292417
-0.0251875
-0.0213735
-0.0178157
-0.0145565
-0.0116334
-0.00906582
-0.00685346
-0.00498012
-0.0034181
-0.00213394
-0.00109195
-0.00025679
0.000402495
-0.0475799
-0.0437086
-0.0390358
-0.0343379
-0.030022
-0.0260221
-0.0222528
-0.0187134
-0.0154413
-0.0124798
-0.00985632
-0.00757831
-0.00563547
-0.00400406
-0.00265323
-0.00154881
-0.000656213
5.49689e-05
-0.0478708
-0.0442582
-0.039663
-0.0350118
-0.0307433
-0.0267999
-0.0230847
-0.0195756
-0.0163023
-0.0133131
-0.0106432
-0.00830728
-0.00630092
-0.00460431
-0.00318931
-0.00202347
-0.0010732
-0.000308932
-0.0482441
-0.0448623
-0.0403988
-0.0358016
-0.0315629
-0.0276613
-0.024001
-0.0205309
-0.0172624
-0.0142443
-0.0115201
-0.00911439
-0.0070311
-0.00525611
-0.00376502
-0.0025278
-0.0015118
-0.000687852
-0.0478599
-0.0452666
-0.0406756
-0.0359489
-0.0316577
-0.0278216
-0.0242974
-0.0209732
-0.017825
-0.0148864
-0.0122057
-0.00981785
-0.00773553
-0.00595003
-0.00443921
-0.00317437
-0.00212288
-0.00125759
-0.0423755
-0.0405738
-0.0368646
-0.0327985
-0.0290941
-0.0258603
-0.0229642
-0.0202385
-0.0176053
-0.0150731
-0.0126933
-0.0105182
-0.00857783
-0.0068776
-0.00540576
-0.00414333
-0.00307254
-0.00217352
-0.0385193
-0.0374688
-0.034654
-0.0312994
-0.0280959
-0.0252234
-0.0226326
-0.0201971
-0.0178339
-0.0155323
-0.0133294
-0.0112765
-0.00941233
-0.00775377
-0.00629834
-0.0050326
-0.00394013
-0.00300444
-0.0349065
-0.0342122
-0.0319337
-0.029089
-0.0263106
-0.0237932
-0.0215248
-0.0194071
-0.0173571
-0.0153469
-0.013395
-0.0115423
-0.00982821
-0.00827606
-0.00689232
-0.00567052
-0.00459819
-0.00366305
-0.0442084
-0.0447708
-0.045993
-0.0396217
-0.0402075
-0.0411068
-0.035731
-0.0362508
-0.0371395
-0.0327563
-0.0336045
)
;

boundaryField
{
    inlet
    {
        type            zeroGradient;
    }
    outlet
    {
        type            fixedValue;
        value           nonuniform 0();
    }
    cylinder
    {
        type            zeroGradient;
    }
    top
    {
        type            symmetryPlane;
    }
    bottom
    {
        type            symmetryPlane;
    }
    defaultFaces
    {
        type            empty;
    }
    procBoundary37to28
    {
        type            processor;
        value           nonuniform List<scalar> 2(-0.14172 -0.139383);
    }
    procBoundary37to29
    {
        type            processor;
        value           nonuniform List<scalar> 
25
(
-0.0205835
-0.0376923
-0.0407309
-0.0407309
-0.0617896
-0.0617896
-0.0864369
-0.0864369
-0.113694
-0.113694
-0.0134963
-0.00715995
-0.000701055
0.00393915
0.00688121
0.00883835
0.0101489
0.0109091
0.0112165
0.011187
0.0109326
0.0105301
0.010033
0.00948228
0.00890845
)
;
    }
    procBoundary37to36
    {
        type            processor;
        value           nonuniform List<scalar> 
30
(
-0.137082
-0.134822
-0.132607
-0.108184
-0.108184
-0.107097
-0.105983
-0.104845
-0.103688
-0.102514
-0.0863006
-0.0863006
-0.0856484
-0.0849342
-0.084162
-0.0833363
-0.0708472
-0.0708472
-0.0703944
-0.069894
-0.0693423
-0.0595063
-0.0595063
-0.058898
-0.0583739
-0.0504032
-0.0504032
-0.0439522
-0.0391638
-0.0353627
)
;
    }
    procBoundary37to38
    {
        type            processor;
        value           nonuniform List<scalar> 
30
(
0.00833314
0.00748652
0.00719469
0.00689619
0.00659134
0.00628038
0.0059635
0.00564082
0.00531245
0.00497845
0.00463885
0.00429361
0.00429361
0.00399952
0.00369713
0.00338958
0.00307669
0.00275825
0.00243417
0.00210468
0.00177068
0.00177068
0.00180315
0.00150944
0.00121257
0.000913611
0.000611963
0.000295861
-2.98417e-05
-0.000555043
)
;
    }
    procBoundary37to45
    {
        type            processor;
        value           nonuniform List<scalar> 
22
(
-0.0314944
-0.0310902
-0.0292948
-0.0269512
-0.0246127
-0.0224734
-0.0205333
-0.0187139
-0.0169407
-0.0151827
-0.0134498
-0.0117756
-0.0101982
-0.0087444
-0.00742728
-0.00624713
-0.00519642
-0.00426678
-0.0322065
-0.0322065
-0.0294932
-0.0302583
)
;
    }
    procBoundary37to46
    {
        type            processor;
        value           nonuniform List<scalar> 3(-0.001424 -0.00220826 -0.00285265);
    }
}


// ************************************************************************* //
