/*--------------------------------*- C++ -*----------------------------------*\
  =========                 |
  \\      /  F ield         | OpenFOAM: The Open Source CFD Toolbox
   \\    /   O peration     | Website:  https://openfoam.org
    \\  /    A nd           | Version:  7
     \\/     M anipulation  |
\*---------------------------------------------------------------------------*/
FoamFile
{
    version     2.0;
    format      ascii;
    class       surfaceScalarField;
    location    "108";
    object      phi;
}
// * * * * * * * * * * * * * * * * * * * * * * * * * * * * * * * * * * * * * //

dimensions      [0 3 -1 0 0 0 0];

internalField   nonuniform List<scalar> 
82640
(
-0.000127459
-0.00348463
0.00361209
-0.000256095
-0.00536504
0.00549368
-0.000318859
-0.00678289
0.00684565
-0.000252748
-0.00674498
0.00667887
-4.72572e-05
-0.00456449
0.004359
0.000297949
-0.000411604
6.63975e-05
0.000719661
0.00406134
-0.00448305
0.00111878
0.00772248
-0.00812161
0.00143106
0.010157
-0.0104693
0.0015993
0.0115261
-0.0116943
0.00156101
0.0124151
-0.0123768
0.0015318
0.0125746
-0.0125454
0.00193116
0.00993068
-0.01033
0.00276059
0.00407955
-0.00490899
0.00371662
-0.00223141
0.00127538
0.00453903
-0.00723016
0.00640776
0.00514179
-0.0104009
0.00979809
0.00559706
-0.0119705
0.0115152
0.00580202
-0.0123968
0.0121919
0.00569124
-0.0129856
0.0130964
0.00555713
-0.0133523
0.0134864
0.00580937
-0.0111044
0.0108522
0.00657475
-0.0054873
0.00472192
0.00765188
0.00130752
-0.00238465
0.00639851
-0.00741891
0.00867228
-0.000140994
-0.00334364
-0.000285863
-0.00522017
-0.000366856
-0.0067019
-0.000317841
-0.006794
-0.000126112
-0.00475621
0.000210231
-0.000747947
0.000630682
0.00364089
0.00103774
0.00731543
0.00136344
0.00983132
0.00153575
0.0113537
0.00150815
0.0124427
0.00154774
0.012535
0.00204956
0.00942885
0.00293891
0.00319021
0.00390203
-0.00319453
0.00470338
-0.00803152
0.00525648
-0.010954
0.00566031
-0.0123743
0.00585414
-0.0125907
0.00574329
-0.0128748
0.00557439
-0.0131834
0.00573776
-0.0112678
0.0064545
-0.00620404
0.00755635
0.000205667
0.00534843
0.00860643
-0.000153762
-0.00318987
-0.000313763
-0.00506017
-0.000411979
-0.00660368
-0.000379595
-0.00682638
-0.000200939
-0.00493487
0.000127506
-0.00107639
0.000546924
0.00322147
0.000962243
0.00690011
0.00130084
0.00949272
0.00147816
0.0111764
0.00147112
0.0124497
0.00159186
0.0124142
0.00219821
0.00882249
0.00314187
0.00224656
0.00410132
-0.00415398
0.00487386
-0.00880406
0.00537944
-0.0114595
0.00573091
-0.0127258
0.0059122
-0.012772
0.00581059
-0.0127732
0.00562562
-0.0129984
0.00572551
-0.0113677
0.00640116
-0.00687969
0.00751142
-0.000904589
0.00428161
0.00857825
-0.000165648
-0.00302423
-0.000339538
-0.00488628
-0.000453802
-0.00648942
-0.000437514
-0.00684267
-0.000271428
-0.00510096
5.01105e-05
-0.00139793
0.000468753
0.00280283
0.000892652
0.00647621
0.00124346
0.00914191
0.00142787
0.010992
0.00145207
0.0124255
0.00166506
0.0122012
0.0023759
0.00811165
0.00336769
0.00125476
0.00431335
-0.00509964
0.00504796
-0.00953866
0.00550779
-0.0119194
0.00580733
-0.0130253
0.00597403
-0.0129387
0.00589052
-0.0126897
0.00570405
-0.012812
0.0057651
-0.0114287
0.00641258
-0.00752717
0.00751674
-0.00200874
0.00321207
0.00858627
-0.000176546
-0.00284768
-0.000362931
-0.0046999
-0.00049188
-0.00636047
-0.00049106
-0.00684349
-0.000337222
-0.00525479
-2.13855e-05
-0.00171377
0.000396425
0.00238502
0.000829114
0.00604352
0.00119149
0.00877953
0.0013863
0.0107972
0.00145286
0.012359
0.00176779
0.0118863
0.0025807
0.00729875
0.0036122
0.000223265
0.00453539
-0.00602283
0.00522306
-0.0102263
0.00563835
-0.0123347
0.005888
-0.013275
0.00603719
-0.0130878
0.00598
-0.0126325
0.00580196
-0.0126339
0.00584324
-0.01147
0.00647959
-0.00816352
0.00756478
-0.00309393
0.00215261
0.00862423
-0.000186355
-0.00266133
-0.00038369
-0.00450256
-0.000525748
-0.00621841
-0.00053964
-0.0068296
-0.000397915
-0.00539652
-8.89805e-05
-0.0020227
0.000330086
0.00196595
0.000771605
0.005602
0.00114517
0.00840597
0.00135486
0.0105875
0.00147501
0.0122388
0.00190028
0.011461
0.00281041
0.00638862
0.00387053
-0.000836857
0.00476343
-0.00691574
0.00539647
-0.0108594
0.0057677
-0.0127059
0.00597137
-0.0134786
0.00609935
-0.0132158
0.00607526
-0.0126084
0.00591231
-0.012471
0.00594217
-0.0114999
0.00658206
-0.00880341
0.00764121
-0.00415308
0.00111408
0.00867974
-0.000194982
-0.00246634
-0.00040157
-0.00429598
-0.000554926
-0.00606505
-0.000582598
-0.00680193
-0.000453018
-0.0055261
-0.000150208
-0.00232551
0.00026979
0.00154595
0.000719986
0.00515181
0.00110483
0.00802113
0.00133487
0.0103575
0.0015198
0.0120539
0.00206239
0.0109184
0.00306268
0.00538833
0.00413815
-0.00191232
0.00499279
-0.00777038
0.0055655
-0.0114321
0.0058925
-0.0130329
0.00605572
-0.0136418
0.00615889
-0.013319
0.00617132
-0.0126208
0.00602972
-0.0123294
0.00604539
-0.0115156
0.00669292
-0.00945093
0.00772205
-0.00518221
0.000101706
0.00873442
-0.000202345
-0.002264
-0.000416336
-0.00408198
-0.000578921
-0.00590247
-0.000619212
-0.00676164
-0.000501927
-0.00564339
-0.000205421
-0.00262202
0.000215516
0.00112502
0.000674118
0.0046932
0.001071
0.00762425
0.00132753
0.010101
0.00158824
0.0117932
0.00225351
0.0102532
0.00333468
0.00430716
0.00441059
-0.00298823
0.00521851
-0.00857831
0.00572742
-0.011941
0.00600979
-0.0133153
0.00613894
-0.013771
0.00621546
-0.0133955
0.00626244
-0.0126678
0.00614994
-0.0122169
0.0061436
-0.0115092
0.0067852
-0.0100925
0.00777748
-0.00617449
-0.000886751
0.00876594
-0.000208372
-0.00205563
-0.00042777
-0.00386259
-0.000597236
-0.005733
-0.000648687
-0.00671018
-0.000543888
-0.00574818
-0.000254337
-0.00291157
0.000167277
0.000703402
0.000633972
0.00422651
0.00104435
0.00721387
0.00133385
0.00981146
0.00168114
0.0114459
0.00247226
0.00946206
0.0036222
0.00315722
0.00468312
-0.00404915
0.0054357
-0.00933089
0.00587958
-0.0123849
0.00611725
-0.0135529
0.00621852
-0.0138723
0.00626993
-0.0134469
0.00634329
-0.0127412
0.0062686
-0.0121422
0.00623725
-0.0114779
0.00684043
-0.0106957
0.00777903
-0.00711309
-0.00185748
0.00874976
-0.000213004
-0.00184262
-0.000435674
-0.00363991
-0.000609385
-0.00555929
-0.000670167
-0.0066494
-0.000577966
-0.00584039
-0.000296412
-0.00319312
0.000125237
0.000281753
0.000599741
0.003752
0.00102575
0.00678786
0.00135475
0.00948246
0.00179911
0.0110015
0.0027163
0.00854488
0.00391957
0.00195395
0.00495035
-0.00507993
0.00563974
-0.0100203
0.00601936
-0.0127645
0.00621328
-0.0137468
0.00629176
-0.0139507
0.00632369
-0.0134789
0.00641059
-0.0128281
0.0063805
-0.0121121
0.0063329
-0.0114303
0.00685287
-0.0112157
0.00769994
-0.00796016
-0.0028222
0.00866466
-0.000216197
-0.00162643
-0.000439881
-0.00341623
-0.000614909
-0.00538426
-0.000682755
-0.00658156
-0.000603033
-0.00592011
-0.000330815
-0.00346534
8.9828e-05
-0.00013889
0.000571943
0.00326989
0.00101616
0.00634365
0.00139112
0.0091075
0.00194259
0.0104501
0.00298229
0.00750517
0.00422019
0.000716052
0.00520644
-0.00606618
0.0058265
-0.0106403
0.00614429
-0.0130823
0.00629697
-0.0138995
0.00635636
-0.0140101
0.00637754
-0.0135
0.00646433
-0.0129148
0.0064798
-0.0121276
0.00643609
-0.0113866
0.00682811
-0.0116077
0.00752631
-0.00865836
-0.0037854
0.00848951
-0.000217924
-0.0014085
-0.000440258
-0.0031939
-0.0006134
-0.00521112
-0.00068555
-0.0065094
-0.000617783
-0.00598788
-0.000356383
-0.00372674
6.1851e-05
-0.000557123
0.00055146
0.00278028
0.00101655
0.00587856
0.00144402
0.00868003
0.00211177
0.00978231
0.00326573
0.00635121
0.004517
-0.000535218
0.00544556
-0.00699474
0.00599253
-0.0111873
0.00625219
-0.0133419
0.00636786
-0.0140152
0.00641095
-0.0140532
0.0064308
-0.0135199
0.00650759
-0.0129916
0.00656173
-0.0121817
0.00654546
-0.0113703
0.00678116
-0.0118434
0.00726377
-0.00914097
-0.00473574
0.00821411
-0.000218176
-0.00119033
-0.000436718
-0.00297535
-0.000604526
-0.00504331
-0.000677696
-0.00643624
-0.000620767
-0.0060448
-0.000371606
-0.0039759
4.25193e-05
-0.000971248
0.00053952
0.00228328
0.00102787
0.0053902
0.00151478
0.00819312
0.00230643
0.00899066
0.00356075
0.00509689
0.00480279
-0.00177725
0.00566232
-0.00785427
0.00613514
-0.0116601
0.00634145
-0.0135482
0.0064257
-0.0140994
0.00645534
-0.0140829
0.00648125
-0.0135458
0.00654507
-0.0130555
0.0066251
-0.0122617
0.00665321
-0.0113984
0.00673341
-0.0119236
0.00695241
-0.00935996
-0.00563725
0.00785391
-0.000216963
-0.000973364
-0.000429226
-0.00276309
-0.000588063
-0.00488448
-0.000658448
-0.00636585
-0.000610466
-0.00609279
-0.000374651
-0.00421172
3.34641e-05
-0.00137936
0.000537599
0.00177914
0.00105099
0.00487681
0.00160516
0.00763895
0.00252563
0.00807019
0.00386018
0.00376234
0.00507041
-0.00298748
0.00585214
-0.00863599
0.00625243
-0.0120604
0.00641119
-0.013707
0.00647039
-0.0141586
0.00649027
-0.0141027
0.00652601
-0.0135815
0.00658092
-0.0131104
0.00667395
-0.0123548
0.00675037
-0.0114748
0.00670832
-0.0118816
0.00667382
-0.00932546
-0.00643571
0.00747228
-0.000214314
-0.00075905
-0.000417802
-0.0025596
-0.000563921
-0.00473836
-0.000627261
-0.00630251
-0.000585398
-0.00613465
-0.000363424
-0.00443369
3.66899e-05
-0.00177948
0.000547279
0.00126856
0.00108691
0.00433718
0.00171728
0.00700858
0.00276718
0.00702028
0.00415583
0.0023737
0.00531314
-0.00414479
0.00601147
-0.00933432
0.00634333
-0.0123923
0.00646136
-0.013825
0.00650201
-0.0141993
0.00651682
-0.0141176
0.0065629
-0.0136276
0.006617
-0.0131645
0.00671613
-0.0124539
0.00683184
-0.0115905
0.00672451
-0.0117742
0.00653552
-0.00913648
-0.00709196
0.00719177
-0.00021028
-0.00054877
-0.000402525
-0.00236736
-0.00053217
-0.00460871
-0.000583872
-0.00625081
-0.000544278
-0.00617424
-0.000335682
-0.00464229
5.44971e-05
-0.00216966
0.000570156
0.000752897
0.00113713
0.00377021
0.00185342
0.00629229
0.00302711
0.0058466
0.00443909
0.00096171
0.00552513
-0.00523083
0.006138
-0.0099472
0.00640766
-0.012662
0.00649266
-0.01391
0.00652091
-0.0142275
0.0065358
-0.0141324
0.00659123
-0.0136831
0.0066526
-0.0132258
0.00675936
-0.0125607
0.00689769
-0.0117289
0.00679101
-0.0116676
0.00661951
-0.00896498
-0.00761782
0.00714538
-0.000204929
-0.000343841
-0.000383534
-0.00218875
-0.000493053
-0.00449919
-0.000528387
-0.00621547
-0.00048621
-0.00621642
-0.000289212
-0.00483928
8.93964e-05
-0.00254826
0.00060794
0.000234353
0.00120415
0.00317399
0.00201565
0.00548078
0.00329919
0.00456307
0.0047015
-0.000440602
0.00570179
-0.00623112
0.00623076
-0.0104762
0.00644615
-0.0128773
0.00650627
-0.0139702
0.00652787
-0.0142491
0.00654746
-0.014152
0.00661173
-0.0137473
0.0066857
-0.0132998
0.00680674
-0.0126817
0.00695423
-0.0118763
0.00690233
-0.0116157
0.00690868
-0.00897132
-0.00808405
0.00737491
-0.000198345
-0.000145496
-0.000361023
-0.00202608
-0.000446989
-0.00441323
-0.000461337
-0.00620113
-0.000410903
-0.00626686
-0.000222088
-0.0050281
0.000144053
-0.0029144
0.000662831
-0.000284425
0.0012919
0.00254493
0.0022051
0.00456758
0.00357503
0.00319314
0.00493529
-0.00180087
0.00584013
-0.00713595
0.00629006
-0.0109261
0.0064604
-0.0130477
0.00650374
-0.0140135
0.00652397
-0.0142694
0.00655178
-0.0141798
0.00662561
-0.0138212
0.00671485
-0.013389
0.00685529
-0.0128221
0.00700914
-0.0120302
0.00704268
-0.0116492
0.00728196
-0.00921061
-0.00857442
0.00777233
-0.000190627
4.5131e-05
-0.00033523
-0.00188147
-0.000394559
-0.0043539
-0.000383706
-0.00621198
-0.00031888
-0.00633168
-0.000133047
-0.00521393
0.000221159
-0.00326861
0.000738058
-0.000801324
0.00140553
0.00187746
0.00242106
0.00355204
0.00384454
0.00176967
0.00513402
-0.00309035
0.00593885
-0.00794078
0.00631749
-0.0113047
0.00645265
-0.0131829
0.00648681
-0.0140477
0.00651036
-0.0142929
0.0065489
-0.0142184
0.00663371
-0.013906
0.00673975
-0.0134951
0.00689934
-0.0129817
0.00706894
-0.0121998
0.00719451
-0.0117748
0.00761046
-0.00962656
-0.00912352
0.00815956
-0.000181886
0.000227017
-0.000306432
-0.00175693
-0.000336475
-0.00432386
-0.000296887
-0.00625157
-0.000211608
-0.00641696
-2.1865e-05
-0.00540368
0.000323119
-0.0036136
0.000838046
-0.00131625
0.00155046
0.00116504
0.00265987
0.00244264
0.00409701
0.000332532
0.00529286
-0.00428621
0.00599839
-0.00864631
0.0063157
-0.011622
0.00642562
-0.0132928
0.00645738
-0.0140794
0.00648814
-0.0143237
0.00653925
-0.0142695
0.00663628
-0.014003
0.00676027
-0.0136191
0.00693582
-0.0131573
0.00713506
-0.012399
0.00733951
-0.0119792
0.00784039
-0.0101274
-0.00971821
0.00843507
-0.000172236
0.000399253
-0.000274928
-0.00165423
-0.00027354
-0.00432524
-0.000202592
-0.00632252
-9.14729e-05
-0.00652808
0.000109652
-0.0056048
0.000451259
-0.0039552
0.000967683
-0.00183267
0.00173026
0.000402465
0.00291385
0.00125905
0.00432216
-0.00107577
0.005409
-0.00537305
0.00602084
-0.00925815
0.00628816
-0.0118894
0.00638226
-0.0133869
0.00641735
-0.0141145
0.00645832
-0.0143646
0.00652337
-0.0143345
0.00663344
-0.0141131
0.00677562
-0.0137613
0.00696564
-0.0133473
0.0072006
-0.012634
0.007462
-0.0122406
0.00799272
-0.0106581
-0.010334
0.00860852
-0.000161793
0.000561046
-0.000241028
-0.001575
-0.000206598
-0.00435967
-0.000102684
-0.00642643
3.86072e-05
-0.00666937
0.00025854
-0.00582473
0.000604815
-0.00430148
0.00113011
-0.00235797
0.00194377
-0.000411188
0.00317092
3.19013e-05
0.00451106
-0.00241592
0.00548181
-0.0063438
0.00600971
-0.00978605
0.0062389
-0.0121185
0.00632553
-0.0134735
0.00636851
-0.0141575
0.00642186
-0.014418
0.00650171
-0.0144144
0.00662525
-0.0142366
0.00678489
-0.0139209
0.00699014
-0.0135526
0.00725707
-0.0129009
0.00755752
-0.0125411
0.00810158
-0.0112022
-0.0109569
0.00872451
-0.00015067
0.000711716
-0.000205043
-0.00152063
-0.000136491
-0.00442823
2.89444e-06
-0.00656581
0.000173777
-0.00684025
0.000419722
-0.00607068
0.000779993
-0.00466175
0.00132372
-0.0029017
0.00218269
-0.00127016
0.00341539
-0.0012008
0.00465703
-0.00365756
0.00551297
-0.00719974
0.00596963
-0.0102427
0.00617211
-0.012321
0.00625826
-0.0135597
0.00631246
-0.0142117
0.00637959
-0.0144851
0.00647463
-0.0145094
0.00661175
-0.0143737
0.00678765
-0.0140968
0.00700876
-0.0137737
0.00730065
-0.0131928
0.00763062
-0.012871
0.00818035
-0.0117519
-0.0115802
0.00880362
-0.000138972
0.000850688
-0.00016727
-0.00149233
-6.40081e-05
-0.00453149
0.000105848
-0.00673567
0.000311564
-0.00704597
0.000587099
-0.00634621
0.000969754
-0.0050444
0.00154008
-0.00347203
0.00243094
-0.00216102
0.00363119
-0.00240105
0.00475658
-0.00478294
0.00550636
-0.00794952
0.00590594
-0.0106423
0.00609189
-0.012507
0.00618296
-0.0136507
0.00625056
-0.0142793
0.00633225
-0.0145668
0.00644243
-0.0146196
0.00659288
-0.0145242
0.00678383
-0.0142878
0.00702031
-0.0140101
0.00733128
-0.0135038
0.00768463
-0.0132244
0.00823219
-0.0122995
-0.0121983
0.00885027
-0.000126788
0.000977476
-0.000127995
-0.00149112
1.1243e-05
-0.00467073
0.000210762
-0.00693519
0.000448254
-0.00728346
0.000754402
-0.00665236
0.00116471
-0.00545471
0.00176469
-0.00407201
0.00266845
-0.00306478
0.00380504
-0.00353764
0.00481016
-0.00578806
0.00546771
-0.00860707
0.00582416
-0.0109988
0.00600196
-0.0126848
0.00610174
-0.0137505
0.00618395
-0.0143615
0.00628042
-0.0146633
0.00640536
-0.0147446
0.00656862
-0.0146874
0.0067734
-0.0144925
0.00702408
-0.0142608
0.00734952
-0.0138292
0.00772048
-0.0135954
0.00826102
-0.01284
-0.0128065
0.00886918
-0.00011419
0.00109167
-8.74889e-05
-0.00151782
8.44617e-05
-0.00484268
0.000314424
-0.00716515
0.000581031
-0.00755007
0.000916109
-0.00698744
0.00135493
-0.00589354
0.0019808
-0.00469787
0.0028766
-0.00396058
0.00393017
-0.00459122
0.00482218
-0.00668006
0.00540382
-0.00918871
0.00572952
-0.0113245
0.00590546
-0.0128607
0.00601631
-0.0138614
0.00611353
-0.0144587
0.00622459
-0.0147743
0.00636363
-0.0148836
0.00653897
-0.0148627
0.00675639
-0.01471
0.0070197
-0.0145241
0.00735583
-0.0141653
0.00773929
-0.0139788
0.00827079
-0.0133715
-0.013401
0.00886538
-0.000101228
0.00119289
-4.59994e-05
-0.00157305
0.000158928
-0.0050476
0.000415555
-0.00742178
0.000707771
-0.00784228
0.00106802
-0.00734769
0.0015319
-0.00635741
0.00217419
-0.00534017
0.00304359
-0.00482998
0.00400718
-0.0055548
0.00479992
-0.00747281
0.00532163
-0.00971042
0.0056265
-0.0116293
0.00580488
-0.0130391
0.00592797
-0.0139844
0.00603999
-0.0145707
0.00616513
-0.0148995
0.0063174
-0.0150359
0.00650401
-0.0150494
0.00673288
-0.0149388
0.00700699
-0.0147982
0.00735081
-0.0145092
0.00774263
-0.0143706
0.00826413
-0.013893
-0.0139796
0.00884273
-8.79275e-05
0.00128082
-3.92876e-06
-0.00165705
0.000232922
-0.00528445
0.000513171
-0.00770203
0.000826993
-0.00815611
0.00120741
-0.0077281
0.0016898
-0.0068398
0.0023365
-0.00598688
0.00316627
-0.00565975
0.00404235
-0.00643088
0.00475183
-0.00818229
0.00522731
-0.0101859
0.00551865
-0.0119207
0.00570205
-0.0132225
0.00583766
-0.01412
0.00596386
-0.0146969
0.00610233
-0.0150379
0.00626682
-0.0152004
0.00646386
-0.0152464
0.00670292
-0.0151779
0.00698591
-0.0150812
0.00733516
-0.0148584
0.00773204
-0.0147675
0.00824303
-0.014404
-0.014541
0.00880443
-7.42913e-05
0.00135511
3.91914e-05
-0.00177053
0.000305769
-0.00555103
0.000606493
-0.00800275
0.000937742
-0.00848735
0.00133285
-0.00812321
0.00182586
-0.00733281
0.00246554
-0.00662655
0.00324835
-0.00644256
0.00404463
-0.00722716
0.0046858
-0.00882347
0.00512577
-0.0106259
0.00540856
-0.0122035
0.00559827
-0.0134122
0.00574605
-0.0142678
0.00588554
-0.0148364
0.00603642
-0.0151888
0.00621207
-0.015376
0.00641865
-0.015453
0.00666658
-0.0154258
0.00695666
-0.0153713
0.00730959
-0.0152113
0.00770887
-0.0151668
0.00820905
-0.0149042
-0.015085
0.00875302
-6.03062e-05
0.00141542
8.26191e-05
-0.00191346
0.000376901
-0.00584531
0.000694914
-0.00832077
0.00103946
-0.0088319
0.00144386
-0.00852761
0.00193984
-0.00782879
0.0025635
-0.00725021
0.00329689
-0.00717595
0.00402285
-0.00795312
0.00460819
-0.00940881
0.00502056
-0.0110382
0.00529796
-0.0124809
0.00549438
-0.0136086
0.00565359
-0.014427
0.0058053
-0.0149881
0.00596758
-0.0153511
0.00615329
-0.0155617
0.0063685
-0.0156682
0.00662397
-0.0156813
0.00691954
-0.0156669
0.00727483
-0.0155666
0.00767427
-0.0155662
0.00816349
-0.0153934
-0.0156124
0.00869091
-4.59468e-05
0.00146137
0.000126332
-0.00208574
0.000445815
-0.0061648
0.000777969
-0.00865292
0.00113189
-0.00918582
0.00154065
-0.00893637
0.00203303
-0.00832118
0.00263467
-0.00785185
0.00331939
-0.00786067
0.00398428
-0.00861801
0.00452362
-0.00994815
0.00491406
-0.0114287
0.00518796
-0.0127548
0.00539091
-0.0138116
0.00556057
-0.0145967
0.00572335
-0.0151509
0.00589595
-0.0155237
0.00609063
-0.0157564
0.00631356
-0.0158911
0.00657523
-0.015943
0.00687497
-0.0159666
0.00723146
-0.0159231
0.00762917
-0.015964
0.00810745
-0.0158717
-0.0161236
0.00861866
-3.11869e-05
0.00149255
0.000170241
-0.00228716
0.000512066
-0.00650662
0.000855315
-0.00899617
0.00121497
-0.00954548
0.0016238
-0.0093452
0.00210751
-0.0088049
0.00268366
-0.00842799
0.00332223
-0.00849924
0.00393426
-0.00923004
0.00443523
-0.0104491
0.00480777
-0.0118012
0.00507923
-0.0130262
0.00528817
-0.0140205
0.00546717
-0.0147757
0.00563983
-0.0153236
0.00582165
-0.0157055
0.00602426
-0.015959
0.00625393
-0.0161208
0.00652055
-0.0162096
0.0068234
-0.0162695
0.00717997
-0.0162797
0.00757441
-0.0163584
0.00804201
-0.0163393
-0.0166193
0.00853771
-1.60176e-05
0.00150857
0.000214226
-0.00251741
0.000575274
-0.00686767
0.000926721
-0.00934762
0.00128884
-0.0099076
0.00169414
-0.00975049
0.0021655
-0.00927625
0.00271459
-0.00897708
0.00331034
-0.00909498
0.00387654
-0.00979624
0.00434505
-0.0109176
0.00470259
-0.0121588
0.00497209
-0.0132957
0.00518628
-0.0142347
0.00537348
-0.0149629
0.00555483
-0.0155049
0.0057448
-0.0158955
0.0059543
-0.0161685
0.00618977
-0.0163563
0.00646016
-0.01648
0.00676525
-0.0165745
0.00712075
-0.0166352
0.00751084
-0.0167485
0.00796818
-0.0167966
-0.0171003
0.00844916
-6.52715e-07
0.00150922
0.00025815
-0.00277621
0.000635118
-0.00724464
0.00099205
-0.00970455
0.00135374
-0.0102693
0.00175261
-0.0101494
0.00220911
-0.00973275
0.00273084
-0.00949881
0.00328735
-0.00965149
0.00381366
-0.0103226
0.00425437
-0.0113583
0.00459899
-0.0125034
0.00486669
-0.0135634
0.0050853
-0.0144533
0.00527954
-0.0151572
0.00546844
-0.0156938
0.00566548
-0.0160925
0.00588089
-0.0163839
0.00612121
-0.0165966
0.00639435
-0.0167531
0.00670087
-0.0168811
0.00705419
-0.0169885
0.00743929
-0.0171336
0.00788682
-0.0172442
-0.0175672
0.00835367
1.5614e-05
0.00149361
0.000301845
-0.00306244
0.000691339
-0.00763413
0.00105125
-0.0100645
0.00140999
-0.010628
0.00180018
-0.0105396
0.00224025
-0.0101728
0.00273514
-0.0099937
0.00325594
-0.0101723
0.00374739
-0.010814
0.00416398
-0.0117749
0.00449721
-0.0128366
0.00476303
-0.0138292
0.00498518
-0.0146755
0.00518535
-0.0153573
0.0053807
-0.0158892
0.00558377
-0.0162956
0.00580416
-0.0166043
0.00604839
-0.0168408
0.00632337
-0.0170281
0.00663058
-0.0171883
0.00698067
-0.0173386
0.00736058
-0.0175135
0.00779858
-0.0176822
-0.0180202
0.00825158
3.19768e-05
0.00146163
0.000345092
-0.00337556
0.000743732
-0.00803277
0.00110434
-0.0104251
0.00145799
-0.0109817
0.00183781
-0.0109194
0.00226059
-0.0105956
0.00272966
-0.0104628
0.0032181
-0.0106607
0.00367891
-0.0112748
0.00407433
-0.0121703
0.00439728
-0.0131596
0.00466101
-0.014093
0.00488586
-0.0149003
0.0050909
-0.0155624
0.00529164
-0.0160899
0.00549977
-0.0165037
0.00572423
-0.0168288
0.00597149
-0.0170881
0.00624749
-0.0173041
0.00655464
-0.0174954
0.00690065
-0.0176846
0.00727544
-0.0178883
0.00770387
-0.0181106
-0.0184591
0.00814282
4.8538e-05
0.00141309
0.000387633
-0.00371465
0.00079215
-0.00843729
0.00115139
-0.0107843
0.0014982
-0.0113285
0.00186642
-0.0112876
0.00227159
-0.0110008
0.00271614
-0.0109073
0.0031753
-0.0111199
0.00360902
-0.0117085
0.00398565
-0.012547
0.00429916
-0.0134731
0.00456052
-0.0143543
0.00478724
-0.015127
0.00499614
-0.0157713
0.00520129
-0.0162951
0.00541353
-0.016716
0.00564122
-0.0170565
0.00589064
-0.0173375
0.00616696
-0.0175804
0.00647331
-0.0178018
0.00681458
-0.0180259
0.00718446
-0.0182582
0.00760281
-0.0185289
-0.0188837
0.00802737
6.51955e-05
0.0013479
0.000429165
-0.00407862
0.00083649
-0.00884461
0.00119256
-0.0111404
0.00153108
-0.011667
0.00188688
-0.0116434
0.00227451
-0.0113884
0.00269599
-0.0113288
0.00312865
-0.0115525
0.00353827
-0.0121182
0.00389804
-0.0129067
0.00420271
-0.0137778
0.00446139
-0.014613
0.00468919
-0.0153548
0.00490103
-0.0159831
0.00510966
-0.0165037
0.00532512
-0.0169314
0.00555524
-0.0172866
0.00580602
-0.0175883
0.00608203
-0.0178564
0.00638681
-0.0181066
0.00672295
-0.018362
0.00708814
-0.0186233
0.00749517
-0.018936
-0.0192945
0.00790596
8.18221e-05
0.00126608
0.000469359
-0.00446616
0.0008767
-0.00925195
0.001228
-0.0114917
0.00155711
-0.0119961
0.00190002
-0.0119863
0.00227046
-0.0117588
0.00267035
-0.0117287
0.00307899
-0.0119612
0.00346702
-0.0125062
0.00381148
-0.0132512
0.00410778
-0.014074
0.00436345
-0.0148687
0.00459162
-0.015583
0.00480552
-0.016197
0.00501675
-0.0167149
0.00523461
-0.0171493
0.00546639
-0.0175184
0.00571778
-0.0178397
0.00599291
-0.0181316
0.00629539
-0.018409
0.00662623
-0.0186929
0.00698671
-0.0189838
0.00738129
-0.0193306
-0.0196904
0.00777718
9.82978e-05
0.00116778
0.000507877
-0.00487574
0.000912767
-0.00965684
0.00125793
-0.0118368
0.0015768
-0.012315
0.00190658
-0.0123161
0.00226036
-0.0121126
0.00264012
-0.0121085
0.00302693
-0.012348
0.00339549
-0.0128747
0.00372594
-0.0135817
0.00401419
-0.0143623
0.00426653
-0.015121
0.0044944
-0.0158109
0.00470957
-0.0164122
0.0049226
-0.0169279
0.00514206
-0.0173688
0.00537479
-0.0177511
0.00562609
-0.018091
0.00589979
-0.0184053
0.0061993
-0.0187085
0.00652488
-0.0190185
0.00688001
-0.019339
0.00726145
-0.019712
-0.0200758
0.00764688
0.000114529
0.00105325
0.000544389
-0.0053056
0.000944696
-0.0100572
0.00128256
-0.0121747
0.00159057
-0.012623
0.0019072
-0.0126327
0.00224498
-0.0124504
0.002606
-0.0124695
0.00297289
-0.0127149
0.00332373
-0.0132256
0.0036412
-0.0138991
0.00392166
-0.0146428
0.00417035
-0.0153697
0.00439728
-0.0160378
0.00461297
-0.0166279
0.00482702
-0.017142
0.00504736
-0.0175891
0.00528034
-0.0179841
0.0055309
-0.0183415
0.00580264
-0.018677
0.00609859
-0.0190045
0.00641899
-0.0193389
0.00676746
-0.0196874
0.00713457
-0.0200791
-0.0204766
0.00753538
0.000130472
0.000922778
0.00057863
-0.00575376
0.000972597
-0.0104511
0.0013022
-0.0125043
0.00159897
-0.0129198
0.00190262
-0.0129364
0.00222511
-0.0127729
0.00256869
-0.0128131
0.00291734
-0.0130635
0.00325198
-0.0135602
0.00355736
-0.0142045
0.00383024
-0.0149157
0.00407499
-0.0156144
0.00430044
-0.0162633
0.00451598
-0.0168434
0.00473037
-0.0173564
0.00495091
-0.0178096
0.00518351
-0.0182167
0.00543275
-0.0185908
0.00570203
-0.0189463
0.00599399
-0.0192964
0.00630911
-0.019654
0.00664989
-0.0200282
0.00701034
-0.0204396
-0.0208668
0.0074005
0.000146132
0.000776646
0.000610362
-0.00621799
0.000996546
-0.0108373
0.00131709
-0.0128248
0.00160241
-0.0132051
0.00189334
-0.0132273
0.00220129
-0.0130808
0.00252863
-0.0131404
0.0028605
-0.0133954
0.00318019
-0.0138799
0.0034742
-0.0144985
0.00373965
-0.0151811
0.00398018
-0.015855
0.00420364
-0.0164867
0.0044184
-0.0170582
0.00463248
-0.0175705
0.00485258
-0.0180297
0.00508421
-0.0184483
0.00533159
-0.0188382
0.00559793
-0.0192126
0.00588553
-0.019584
0.00619501
-0.0199635
0.00652838
-0.0203616
0.00688093
-0.0207921
-0.0212433
0.00725747
0.000161573
0.000615073
0.000639419
-0.00669583
0.00101667
-0.0112145
0.00132752
-0.0131357
0.00160132
-0.0134789
0.00187987
-0.0135058
0.00217403
-0.013375
0.00248622
-0.0134526
0.00280255
-0.0137117
0.00310837
-0.0141857
0.00339161
-0.0147817
0.00364973
-0.0154392
0.0038858
-0.0160911
0.00410679
-0.0167077
0.00432021
-0.0172716
0.00453337
-0.0177836
0.00475244
-0.0182488
0.00498253
-0.0186784
0.00522755
-0.0190832
0.0054905
-0.0194756
0.00577338
-0.0198669
0.00607701
-0.0202671
0.00640274
-0.0206873
0.00674662
-0.021136
-0.0216106
0.00711391
0.000176911
0.000438162
0.000665697
-0.00718462
0.00103311
-0.011582
0.00133376
-0.0134363
0.00159609
-0.0137412
0.00186267
-0.0137724
0.00214376
-0.0136561
0.00244176
-0.0137506
0.00274366
-0.0140136
0.0030365
-0.0144786
0.00330947
-0.0150547
0.00356036
-0.0156901
0.00379173
-0.0163224
0.00400981
-0.0169258
0.00422136
-0.0174831
0.00443305
-0.0179953
0.00465054
-0.0184663
0.00487856
-0.0189064
0.00512074
-0.0193254
0.00537988
-0.0197347
0.00565775
-0.0201448
0.00595525
-0.0205646
0.00627316
-0.0210052
0.00660899
-0.0214718
-0.0219668
0.00696517
0.000192295
0.000245868
0.000689155
-0.00768148
0.00104603
-0.0119388
0.00133609
-0.0137264
0.00158709
-0.0139922
0.00184214
-0.0140275
0.00211084
-0.0139248
0.00239552
-0.0140353
0.00268391
-0.014302
0.00296456
-0.0147592
0.00322769
-0.0153179
0.0034714
-0.0159338
0.00369785
-0.0165489
0.00391264
-0.0171406
0.00412183
-0.0176923
0.00433152
-0.018205
0.00454691
-0.0186817
0.00477239
-0.0191319
0.0050113
-0.0195643
0.00526623
-0.0199896
0.00553879
-0.0204173
0.0058299
-0.0208557
0.00614009
-0.0213154
0.00646714
-0.0217989
-0.0223131
0.00681344
0.000207891
3.79766e-05
0.000709801
-0.00818339
0.00105562
-0.0122847
0.00133479
-0.0140056
0.00157468
-0.0142321
0.00181864
-0.0142714
0.00207558
-0.0141817
0.00234772
-0.0143074
0.00262341
-0.0145777
0.00289251
-0.0150283
0.00314616
-0.0155715
0.00338274
-0.0161704
0.00360408
-0.0167702
0.00381521
-0.0173517
0.00402159
-0.0178987
0.00422881
-0.0184122
0.00444162
-0.0188945
0.00466409
-0.0193544
0.00489932
-0.0197995
0.0051497
-0.02024
0.00541667
-0.0206843
0.0057012
-0.0211402
0.00600341
-0.0216176
0.00632202
-0.0221175
-0.0226491
0.00665806
0.000223858
-0.000185881
0.00072768
-0.00868721
0.00106204
-0.012619
0.00133012
-0.0142737
0.00155916
-0.0144611
0.00179248
-0.0145048
0.00203825
-0.0144275
0.00229852
-0.0145677
0.00256221
-0.0148414
0.00282032
-0.0152864
0.0030648
-0.015816
0.00329429
-0.0163999
0.00351032
-0.0169862
0.00371746
-0.0175588
0.00392062
-0.0181019
0.00412492
-0.0186165
0.00433472
-0.0191043
0.00455376
-0.0195734
0.00478491
-0.0200307
0.0050304
-0.0204855
0.00529154
-0.0209454
0.00556923
-0.0214179
0.00586354
-0.0219119
0.00617336
-0.0224273
-0.0229752
0.00649944
0.00024032
-0.000426201
0.000742864
-0.00918976
0.00106549
-0.0129416
0.00132234
-0.0145305
0.00154083
-0.0146796
0.00176395
-0.0147279
0.00199907
-0.0146626
0.00224807
-0.0148167
0.00250037
-0.0150937
0.00274796
-0.015534
0.00298354
-0.0160516
0.00320594
-0.0166223
0.0034165
-0.0171968
0.00361936
-0.0177617
0.00381892
-0.0183014
0.00401988
-0.0188175
0.00422624
-0.0193107
0.00444146
-0.0197886
0.00466819
-0.0202574
0.00490848
-0.0207258
0.00516352
-0.0212005
0.00543423
-0.0216886
0.00572043
-0.0221981
0.00602154
-0.0227284
-0.0232913
0.00633767
0.000257346
-0.000683547
0.000755442
-0.00968785
0.00106612
-0.0132523
0.00131168
-0.0147761
0.00151996
-0.0148879
0.00173328
-0.0149412
0.00195824
-0.0148876
0.00219648
-0.0150549
0.00243791
-0.0153352
0.00267541
-0.0157715
0.00290229
-0.0162784
0.00311764
-0.0168376
0.00332256
-0.0174017
0.00352085
-0.01796
0.00371646
-0.018497
0.00391371
-0.0190147
0.00411624
-0.0195132
0.00432728
-0.0199997
0.00454924
-0.0204793
0.00478403
-0.0209606
0.00503277
-0.0214492
0.00529627
-0.0219521
0.00557436
-0.0224762
0.00586661
-0.0230207
-0.0235976
0.00617286
0.000274928
-0.000958475
0.000765511
-0.0101784
0.00106413
-0.0135509
0.00129839
-0.0150103
0.00149679
-0.0150863
0.0017007
-0.0151451
0.00191592
-0.0151028
0.00214387
-0.0152829
0.00237487
-0.0155662
0.00260263
-0.0159993
0.00282101
-0.0164968
0.00302931
-0.0170459
0.00322845
-0.0176009
0.0034219
-0.0181534
0.00361324
-0.0186884
0.00380642
-0.0192079
0.00400477
-0.0197115
0.00421127
-0.0202062
0.00442816
-0.0206962
0.0046572
-0.0211896
0.00489939
-0.0216914
0.00515554
-0.0222083
0.00542538
-0.022746
0.00570873
-0.0233041
-0.023894
0.00600516
0.000292964
-0.00125144
0.000773168
-0.0106586
0.00105966
-0.0138374
0.00128268
-0.0152334
0.00147153
-0.0152752
0.00166639
-0.01534
0.00187226
-0.0153087
0.0020903
-0.0155009
0.00231127
-0.0157871
0.00252959
-0.0162176
0.00273964
-0.0167069
0.00294089
-0.0172472
0.00313411
-0.0177941
0.00332249
-0.0183418
0.00350925
-0.0188751
0.00369803
-0.0193967
0.00389187
-0.0199054
0.00409352
-0.0204078
0.00430505
-0.0209078
0.00452806
-0.0214126
0.00476352
-0.0219269
0.00501214