/*--------------------------------*- C++ -*----------------------------------*\
  =========                 |
  \\      /  F ield         | OpenFOAM: The Open Source CFD Toolbox
   \\    /   O peration     | Website:  https://openfoam.org
    \\  /    A nd           | Version:  7
     \\/     M anipulation  |
\*---------------------------------------------------------------------------*/
FoamFile
{
    version     2.0;
    format      ascii;
    class       volVectorField;
    location    "15";
    object      U;
}
// * * * * * * * * * * * * * * * * * * * * * * * * * * * * * * * * * * * * * //

dimensions      [0 1 -1 0 0 0 0];

internalField   nonuniform List<vector> 
2413
(
(2 5.93152e-15 0)
(2 5.87373e-15 0)
(2 5.76905e-15 0)
(2 5.63981e-15 0)
(2 5.64405e-15 0)
(2 5.6917e-15 0)
(2 5.84602e-15 0)
(2 5.93453e-15 0)
(2 5.71065e-15 0)
(2 5.5696e-15 0)
(2 5.25528e-15 0)
(2 5.10411e-15 0)
(2 4.75058e-15 0)
(2 4.42434e-15 0)
(2 3.96336e-15 0)
(2 3.90202e-15 0)
(2 3.86178e-15 0)
(2 3.6764e-15 0)
(2 3.23022e-15 0)
(2 3.05352e-15 0)
(2 3.12026e-15 0)
(2 3.12194e-15 0)
(2 3.2536e-15 0)
(2 3.5215e-15 0)
(2 3.53547e-15 0)
(2 4.02371e-15 0)
(2 4.42713e-15 0)
(2 4.49439e-15 0)
(2 4.70091e-15 0)
(2 4.80274e-15 0)
(2 4.77965e-15 0)
(2 4.43907e-15 0)
(2 4.30869e-15 0)
(2 4.1388e-15 0)
(2 2.60107e-15 0)
(2 2.45521e-15 0)
(2 2.24917e-15 0)
(2 2.15808e-15 0)
(2 1.9589e-15 0)
(2 1.55682e-15 0)
(2 1.00168e-15 0)
(2 6.87295e-16 0)
(2 -4.78961e-17 0)
(2 -8.47746e-16 0)
(2 -1.06536e-15 0)
(2 -1.35745e-15 0)
(2 -1.41426e-15 0)
(2 -1.07237e-15 0)
(2 -6.66738e-16 0)
(2 -4.07155e-16 0)
(2 -1.27197e-16 0)
(2 -3.20885e-17 0)
(2 1.15282e-16 0)
(2 6.09958e-16 0)
(2 8.92001e-16 0)
(2 1.12894e-15 0)
(2 9.95535e-16 0)
(2 8.40872e-16 0)
(2 7.4754e-16 0)
(2 7.47424e-16 0)
(2 8.54006e-16 0)
(2 1.07729e-15 0)
(2 1.225e-15 0)
(2 1.22514e-15 0)
(2 1.23712e-15 0)
(2 1.21639e-15 0)
(2 1.1701e-15 0)
(2 9.91386e-16 0)
(2 6.92418e-16 0)
(2 2.80132e-16 0)
(2 7.73744e-17 0)
(2 1.7191e-16 0)
(2 3.38765e-16 0)
(2 6.80599e-16 0)
(2 7.9202e-16 0)
(2 7.06349e-16 0)
(2 7.76495e-16 0)
(2 8.81245e-16 0)
(2 5.75598e-16 0)
(2 -1.54431e-17 0)
(2 -1.12956e-16 0)
(2 -7.88634e-17 0)
(2 1.1342e-16 0)
(2 2.41635e-16 0)
(2 2.66913e-16 0)
(2 3.04273e-16 0)
(2 3.6593e-16 0)
(2 3.26615e-16 0)
(2 3.16276e-16 0)
(2 1.28732e-16 0)
(2 3.45347e-17 0)
(2 1.60568e-18 0)
(2 -9.45236e-17 0)
(2 3.59298e-16 0)
(2 5.6698e-16 0)
(2 6.29214e-16 0)
(2 5.76507e-16 0)
(2 4.86313e-16 0)
(2 4.0944e-16 0)
(2 1.66883e-16 0)
(2 1.7191e-16 0)
(2 3.19635e-16 0)
(2 7.86671e-16 0)
(2 9.15668e-16 0)
(2 1.05841e-15 0)
(2 9.91468e-16 0)
(2 9.19585e-16 0)
(2 1.17009e-15 0)
(2 1.35769e-15 0)
(2 1.46218e-15 0)
(2 1.71e-15 0)
(2 1.88666e-15 0)
(2 1.92777e-15 0)
(2 2.03429e-15 0)
(2 2.31609e-15 0)
(2 2.41231e-15 0)
(2 3.0158e-15 0)
(2 3.36333e-15 0)
(2 3.57239e-15 0)
(2 3.68398e-15 0)
(2 3.69534e-15 0)
(2 3.80927e-15 0)
(2 3.94496e-15 0)
(2 3.90752e-15 0)
(2 3.82273e-15 0)
(2 3.66623e-15 0)
(2 3.57986e-15 0)
(2 3.28835e-15 0)
(2 3.091e-15 0)
(2 3.02963e-15 0)
(2 3.06018e-15 0)
(2 3.00977e-15 0)
(2 3.02319e-15 0)
(2 3.09258e-15 0)
(2 3.12031e-15 0)
(2 3.149e-15 0)
(2 3.2574e-15 0)
(2 3.28528e-15 0)
(2 3.47882e-15 0)
(2 3.55656e-15 0)
(2 3.6976e-15 0)
(2 3.76316e-15 0)
(2 4.64614e-15 0)
(2 4.81616e-15 0)
(2 5.03739e-15 0)
(2 5.12387e-15 0)
(2 5.16154e-15 0)
(2 5.11271e-15 0)
(2 4.98241e-15 0)
(2 4.78365e-15 0)
(2 4.56601e-15 0)
(2 4.48978e-15 0)
(2 4.48973e-15 0)
(2 4.44698e-15 0)
(2 1.10428e-15 0)
(2 7.73187e-16 0)
(2 7.19316e-16 0)
(2 8.56283e-16 0)
(2 1.04473e-15 0)
(2 1.24191e-15 0)
(2 1.1699e-15 0)
(2 1.07902e-15 0)
(2 8.63524e-16 0)
(2 7.83408e-16 0)
(2 6.79157e-16 0)
(2 5.83452e-16 0)
(2 4.97081e-16 0)
(2 -3.56418e-18 0)
(2 -3.80456e-16 0)
(2 -7.85908e-16 0)
(2 -7.95601e-16 0)
(2 -7.56502e-16 0)
(2 -5.73284e-16 0)
(2 -5.56617e-16 0)
(2 -4.24211e-16 0)
(2 -3.12413e-16 0)
(2 -3.28143e-16 0)
(2 -3.28602e-16 0)
(2 -1.67072e-16 0)
(2 1.7681e-17 0)
(2 1.05896e-16 0)
(2 -1.14073e-17 0)
(2 -2.42304e-16 0)
(2 -2.44598e-16 0)
(2 -2.1927e-16 0)
(2 -7.03959e-17 0)
(2 -6.40054e-17 0)
(2 -3.58039e-17 0)
(2 -1.49548e-16 0)
(2 -2.8241e-16 0)
(2 -4.55578e-16 0)
(2 -5.63407e-16 0)
(2 -5.2987e-16 0)
(2 -4.62332e-16 0)
(2 -4.34072e-16 0)
(2 -3.83971e-16 0)
(2 2.56365e-17 0)
(2 7.71348e-17 0)
(2 5.84579e-17 0)
(2 6.89079e-17 0)
(2 -3.4439e-18 0)
(2 -5.78627e-18 0)
(2 -1.0025e-16 0)
(2 -2.19881e-16 0)
(2 -2.11554e-16 0)
(2 -2.09633e-16 0)
(2 -1.68521e-16 0)
(2 5.84283e-17 0)
(2 4.29525e-16 0)
(2 6.43968e-16 0)
(2 5.08399e-16 0)
(2 3.67742e-16 0)
(2 1.83891e-16 0)
(2 4.3673e-16 0)
(2 3.38905e-16 0)
(2 2.92113e-16 0)
(2 1.21482e-16 0)
(2 2.89302e-17 0)
(2 -1.15238e-16 0)
(2 5.45709e-16 0)
(2 1.26095e-15 0)
(2 1.45024e-15 0)
(2 1.85039e-15 0)
(2 2.17033e-15 0)
(2 2.26803e-15 0)
(2 2.20047e-15 0)
(2 2.09819e-15 0)
(2 1.952e-15 0)
(2 1.74239e-15 0)
(2 1.84042e-15 0)
(2 2.02574e-15 0)
(2 2.83271e-15 0)
(2 2.96372e-15 0)
(2 2.93127e-15 0)
(2 2.92106e-15 0)
(2 2.59815e-15 0)
(2 2.14416e-15 0)
(2 1.82274e-15 0)
(2 1.73165e-15 0)
(2 1.75255e-15 0)
(2 1.78849e-15 0)
(2 1.81786e-15 0)
(2 1.67343e-15 0)
(2 1.57861e-15 0)
(2 1.42229e-15 0)
(2 1.15104e-15 0)
(2 9.93076e-16 0)
(2 7.52622e-16 0)
(2 -2.45761e-16 0)
(2 -5.69015e-16 0)
(2 -1.01266e-15 0)
(2 -1.66559e-16 0)
(2 3.00615e-16 0)
(2 2.36875e-16 0)
(2 7.5255e-16 0)
(2 1.63741e-15 0)
(2 1.97236e-15 0)
(2 2.51884e-15 0)
(2 2.6354e-15 0)
(2 3.10971e-15 0)
(2 3.47937e-15 0)
(2 3.56e-15 0)
(2 3.45146e-15 0)
(2 3.12892e-15 0)
(2 3.06701e-15 0)
(2 3.05487e-15 0)
(2 2.95717e-15 0)
(2 2.95363e-15 0)
(2 2.82628e-15 0)
(2 2.63405e-15 0)
(2 2.2922e-15 0)
(2 1.95364e-15 0)
(2 1.97251e-15 0)
(2 1.9505e-15 0)
(2 1.49609e-15 0)
(2 1.3735e-15 0)
(2 1.09004e-15 0)
(2 7.93831e-16 0)
(2 -9.70244e-18 0)
(2 -3.98722e-16 0)
(2 -6.25065e-16 0)
(2 -6.84466e-16 0)
(2 -8.90123e-16 0)
(2 -7.3208e-16 0)
(2 -4.27286e-16 0)
(2 -9.29614e-17 0)
(2 1.61597e-16 0)
(2 1.0888e-17 0)
(2 -2.08031e-16 0)
(2 -3.5398e-16 0)
(2 -4.65029e-16 0)
(2 -4.04144e-16 0)
(2 -4.80873e-17 0)
(2 1.39827e-16 0)
(2 -3.51279e-16 0)
(2 -9.3292e-16 0)
(2 -9.51258e-16 0)
(2 -9.36413e-16 0)
(2 -1.00172e-15 0)
(2 -1.01828e-15 0)
(2 -8.86808e-16 0)
(2 -9.38162e-16 0)
(2 -1.03551e-15 0)
(2 -1.03277e-15 0)
(2 -8.96938e-16 0)
(2 -5.13177e-16 0)
(2 -3.50575e-16 0)
(2 2.75213e-16 0)
(2 5.71117e-16 0)
(2 5.27418e-16 0)
(2 7.60007e-16 0)
(2 4.56399e-16 0)
(2 1.09835e-16 0)
(2 -2.32379e-16 0)
(2 -5.02632e-16 0)
(2 -6.56956e-16 0)
(2 -4.9131e-16 0)
(2 -1.88397e-16 0)
(2 -8.47729e-18 0)
(2 6.43309e-17 0)
(2 3.32738e-16 0)
(2 8.60521e-16 0)
(2 1.2245e-15 0)
(2 1.41747e-15 0)
(2 1.51863e-15 0)
(2 1.6552e-15 0)
(2 1.8265e-15 0)
(2 1.45923e-15 0)
(2 1.25733e-15 0)
(2 1.25527e-15 0)
(2 1.16346e-15 0)
(2 8.70764e-16 0)
(2 3.29825e-16 0)
(2 2.98341e-16 0)
(2 -1.43427e-17 0)
(2 -6.08642e-16 0)
(2 -5.97031e-16 0)
(2 4.46387e-16 0)
(2 9.93047e-16 0)
(2 9.6717e-16 0)
(2 1.02054e-15 0)
(2 1.05897e-15 0)
(2 1.04431e-15 0)
(2 9.36674e-16 0)
(2 7.08437e-16 0)
(2 4.69146e-16 0)
(2 3.02871e-16 0)
(2 2.51541e-16 0)
(2 7.30282e-16 0)
(2 6.46828e-16 0)
(2 9.37678e-16 0)
(2 1.14705e-15 0)
(2 1.47597e-15 0)
(2 1.80143e-15 0)
(2 2.36642e-15 0)
(2 2.73026e-15 0)
(2 1.40928e-15 0)
(2 4.11817e-16 0)
(2 -2.30259e-16 0)
(2 -3.12807e-16 0)
(2 -3.1282e-16 0)
(2 -7.4971e-16 0)
(2 -1.02064e-15 0)
(2 -1.25549e-15 0)
(2 -1.37993e-15 0)
(2 -1.81883e-15 0)
(2 -1.93573e-15 0)
(2 -1.81987e-15 0)
(2 -1.39527e-15 0)
(2 -1.20555e-15 0)
(2 -1.29198e-15 0)
(2 -4.97391e-16 0)
(2 -2.40173e-16 0)
(2 -1.09973e-16 0)
(2 3.07648e-16 0)
(2 1.20054e-15 0)
(2 1.66111e-15 0)
(2 1.77639e-15 0)
(2 1.87957e-15 0)
(2 1.83147e-15 0)
(2 1.78781e-15 0)
(2 1.84686e-15 0)
(2 1.90556e-15 0)
(2 1.95687e-15 0)
(2 2.07723e-15 0)
(2 2.21479e-15 0)
(2 1.91632e-15 0)
(2 1.73491e-15 0)
(2 1.65978e-15 0)
(2 1.7088e-15 0)
(2 1.79613e-15 0)
(2 9.49919e-16 0)
(2 7.47413e-16 0)
(2 7.19154e-16 0)
(2 1.21147e-16 0)
(2 -2.25215e-16 0)
(2 -1.37573e-15 0)
(2 -2.22266e-15 0)
(2 -2.36143e-15 0)
(2 -2.46201e-15 0)
(2 -2.40551e-15 0)
(2 -2.20056e-15 0)
(2 -1.99923e-15 0)
(2 -1.94145e-15 0)
(2 -1.67766e-15 0)
(2 -1.40606e-15 0)
(2 -1.29431e-15 0)
(2 -1.07759e-15 0)
(2 -7.12747e-16 0)
(2 -4.40854e-16 0)
(2 -1.64894e-16 0)
(2 1.29782e-16 0)
(2 5.18905e-16 0)
(2 6.00881e-16 0)
(2 3.49097e-16 0)
(2 -3.21774e-17 0)
(2 -8.49321e-17 0)
(2 -3.22293e-16 0)
(2 -7.22856e-16 0)
(2 -7.87634e-16 0)
(2 -9.30049e-16 0)
(2 -9.73289e-16 0)
(2 -9.38642e-16 0)
(2 -9.05371e-16 0)
(2 -6.98556e-16 0)
(2 -5.55042e-16 0)
(2 -1.41711e-16 0)
(2 1.82214e-16 0)
(2 6.42032e-16 0)
(2 8.52472e-16 0)
(2 9.07796e-16 0)
(2 8.76421e-16 0)
(2 7.49915e-16 0)
(2 7.45135e-16 0)
(2 8.37559e-16 0)
(2 8.21613e-16 0)
(2 1.02773e-15 0)
(2 1.0942e-15 0)
(2 1.16872e-15 0)
(2 1.4458e-15 0)
(2 1.62874e-15 0)
(2 1.64034e-15 0)
(2 1.56232e-15 0)
(2 1.98631e-15 0)
(2 2.15483e-15 0)
(2 2.16368e-15 0)
(2 1.9978e-15 0)
(2 1.80419e-15 0)
(2 8.1217e-16 0)
(2 2.81136e-16 0)
(2 3.69882e-16 0)
(2 5.11267e-16 0)
(2 3.84149e-16 0)
(2 -1.84895e-16 0)
(2 -6.0751e-16 0)
(2 -1.25827e-15 0)
(2 -1.72149e-15 0)
(2 -1.72299e-15 0)
(2 -1.51717e-15 0)
(2 -1.4088e-15 0)
(2 -1.15739e-15 0)
(2 -9.1625e-16 0)
(2 -6.57321e-16 0)
(2 -5.91941e-16 0)
(2 -1.28418e-16 0)
(2 7.112e-16 0)
(2 1.42871e-15 0)
(2 1.57881e-15 0)
(2 1.73749e-15 0)
(2 2.20374e-15 0)
(2 2.06867e-15 0)
(2 1.05354e-15 0)
(2 2.34909e-16 0)
(2 -6.97302e-18 0)
(2 -1.10017e-16 0)
(2 1.04839e-16 0)
(2 -2.15314e-16 0)
(2 -9.4554e-16 0)
(2 -1.64237e-15 0)
(2 -1.67629e-15 0)
(2 -1.91547e-15 0)
(2 -2.66737e-15 0)
(2 -2.89996e-15 0)
(2 -2.89476e-15 0)
(2 -3.01166e-15 0)
(2 -2.73563e-15 0)
(2 -2.14727e-15 0)
(2 -1.61655e-15 0)
(2 -1.4682e-15 0)
(2 -1.25259e-15 0)
(2 -1.12003e-15 0)
(2 -1.13968e-15 0)
(2 -1.27423e-15 0)
(2 -1.26598e-15 0)
(2 -6.1479e-16 0)
(2 1.95987e-16 0)
(2 4.11528e-16 0)
(2 4.62982e-16 0)
(2 4.25853e-16 0)
(2 2.80339e-16 0)
(2 -5.78946e-17 0)
(2 1.65454e-16 0)
(2 4.5727e-16 0)
(2 7.31408e-16 0)
(2 9.31485e-16 0)
(2 8.80042e-16 0)
(2 6.31402e-16 0)
(2 4.8011e-16 0)
(2 2.54731e-16 0)
(2 3.30428e-16 0)
(2 5.24374e-16 0)
(2 8.18995e-16 0)
(2 7.27742e-16 0)
(2 6.93529e-16 0)
(2 -2.19091e-15 0)
(2 -2.36425e-15 0)
(2 -2.48424e-15 0)
(2 -2.4313e-15 0)
(2 -2.53459e-15 0)
(2 -2.59355e-15 0)
(2 -2.66329e-15 0)
(2 -2.73028e-15 0)
(2 -2.74023e-15 0)
(2 -2.6546e-15 0)
(2 -2.34021e-15 0)
(2 -2.26588e-15 0)
(2 -1.97955e-15 0)
(2 -1.72528e-15 0)
(2 -1.61921e-15 0)
(2 -1.01371e-15 0)
(2 -8.83171e-16 0)
(2 -8.87969e-16 0)
(2 -9.535e-16 0)
(2 -1.00701e-15 0)
(2 -9.99299e-16 0)
(2 -8.90143e-16 0)
(2 -7.49181e-16 0)
(2 -7.35116e-16 0)
(2 -7.04512e-16 0)
(2 -5.77325e-16 0)
(2 -6.66242e-16 0)
(2 -5.55227e-16 0)
(2 -5.20881e-16 0)
(2 -4.98982e-16 0)
(2 -5.2749e-16 0)
(2 -4.84577e-16 0)
(2 -4.05216e-16 0)
(2 -3.9693e-16 0)
(2 2.21397e-17 0)
(2 5.94096e-17 0)
(2 -2.44592e-16 0)
(2 3.95179e-16 0)
(2 1.02466e-15 0)
(2 1.40723e-15 0)
(2 2.67205e-15 0)
(2 2.96513e-15 0)
(2 2.76655e-15 0)
(2 2.73888e-15 0)
(2 2.43776e-15 0)
(2 2.26062e-15 0)
(2 2.29896e-15 0)
(2 2.23521e-15 0)
(2 2.35379e-15 0)
(2 1.87181e-15 0)
(2 1.61623e-15 0)
(2 1.35395e-15 0)
(2 1.23538e-15 0)
(2 1.21189e-15 0)
(2 1.26597e-15 0)
(2 6.44413e-16 0)
(2 1.71045e-16 0)
(2 6.71901e-18 0)
(2 -1.18612e-16 0)
(2 -1.56194e-16 0)
(2 -5.56048e-17 0)
(2 -4.12412e-17 0)
(2 8.0564e-17 0)
(2 8.91632e-17 0)
(2 1.60066e-17 0)
(2 7.81443e-17 0)
(2 1.61582e-16 0)
(2 1.70173e-16 0)
(2 2.35213e-16 0)
(2 3.69305e-16 0)
(2 5.15503e-16 0)
(2 5.54048e-16 0)
(2 6.93539e-16 0)
(2 8.55589e-16 0)
(2 7.95179e-16 0)
(2 5.83731e-16 0)
(2 3.28231e-16 0)
(2 3.75025e-17 0)
(2 -7.97704e-16 0)
(2 -1.37633e-15 0)
(2 -1.40975e-15 0)
(2 -1.74595e-15 0)
(2 -1.92445e-15 0)
(2 -2.56556e-15 0)
(2 -3.46073e-15 0)
(2 -3.63902e-15 0)
(2 -3.71003e-15 0)
(2 -3.43813e-15 0)
(2 -2.88812e-15 0)
(2 -2.75078e-15 0)
(2 -2.61828e-15 0)
(2 -2.30562e-15 0)
(2 -1.97354e-15 0)
(2 -1.44176e-15 0)
(2 -1.39823e-15 0)
(2 -1.36346e-15 0)
(2 -1.1221e-15 0)
(2 -9.96646e-16 0)
(2 -7.11718e-16 0)
(2 -6.44631e-16 0)
(2 -2.80021e-16 0)
(2 5.04629e-16 0)
(2 9.60339e-16 0)
(2 1.20434e-15 0)
(2 1.16972e-15 0)
(2 1.15264e-15 0)
(2 1.08262e-15 0)
(2 1.03837e-15 0)
(2 1.2798e-15 0)
(2 1.3733e-15 0)
(2 1.40268e-15 0)
(2 1.22847e-15 0)
(2 1.06357e-15 0)
(2 9.50066e-16 0)
(2 9.19193e-16 0)
(2 7.44161e-16 0)
(2 2.0234e-16 0)
(2 -2.92737e-17 0)
(2 8.50024e-18 0)
(2 -6.38117e-17 0)
(2 -1.32884e-15 0)
(2 -1.32907e-15 0)
(2 -1.26876e-15 0)
(2 -1.27835e-15 0)
(2 -1.42447e-15 0)
(2 -1.39712e-15 0)
(2 -1.72871e-15 0)
(2 -1.95965e-15 0)
(2 -2.0466e-15 0)
(2 -1.89692e-15 0)
(2 -1.53383e-15 0)
(2 -1.61935e-15 0)
(2 -1.27506e-15 0)
(2 -1.24559e-15 0)
(2 -1.459e-15 0)
(2 -1.82644e-15 0)
(2 -1.95965e-15 0)
(2 -1.95775e-15 0)
(2 -1.91237e-15 0)
(2 -1.51901e-15 0)
(2 -1.2864e-15 0)
(2 -1.00924e-15 0)
(2 -8.5676e-16 0)
(2 -7.09824e-16 0)
(2 -7.43215e-16 0)
(2 -2.6391e-16 0)
(2 6.82267e-17 0)
(2 4.68952e-16 0)
(2 5.4825e-16 0)
(2 4.99782e-16 0)
(2 5.49854e-16 0)
(2 7.43002e-16 0)
(2 8.96099e-16 0)
(2 1.31607e-15 0)
(2 1.98444e-15 0)
(2 2.94309e-15 0)
(2 3.00697e-15 0)
(2 3.02854e-15 0)
(2 3.0523e-15 0)
(2 2.83332e-15 0)
(2 2.75303e-15 0)
(2 2.6003e-15 0)
(2 2.59899e-15 0)
(2 2.56768e-15 0)
(2 2.61912e-15 0)
(2 2.42782e-15 0)
(2 2.23468e-15 0)
(2 1.69062e-15 0)
(2 1.45764e-15 0)
(2 1.2937e-15 0)
(2 1.01008e-15 0)
(2 9.08749e-16 0)
(2 8.68163e-16 0)
(2 8.46919e-16 0)
(2 7.83689e-16 0)
(2 5.93341e-16 0)
(2 4.36293e-16 0)
(2 4.28408e-16 0)
(2 3.82624e-16 0)
(2 4.97146e-16 0)
(2 7.60064e-16 0)
(2 1.26224e-15 0)
(2 1.53441e-15 0)
(2 1.55044e-15 0)
(2 1.49639e-15 0)
(2 1.41212e-15 0)
(2 1.32302e-15 0)
(2 1.21118e-15 0)
(2 8.84357e-16 0)
(2 8.20131e-16 0)
(2 6.88823e-16 0)
(2 5.42618e-16 0)
(2 3.566e-16 0)
(2 -1.33381e-16 0)
(2 -2.44886e-16 0)
(2 -6.06535e-16 0)
(2 -9.87181e-16 0)
(2 -1.09791e-15 0)
(2 -1.18273e-15 0)
(2 -1.67809e-15 0)
(2 -2.23053e-15 0)
(2 -2.39777e-15 0)
(2 -2.3183e-15 0)
(2 -2.24981e-15 0)
(2 -1.731e-15 0)
(2 -1.59952e-15 0)
(2 -1.51445e-15 0)
(2 -1.31082e-15 0)
(2 -1.26385e-15 0)
(2 -1.17787e-15 0)
(2 -1.07104e-15 0)
(2 -7.19237e-16 0)
(2 -6.61038e-16 0)
(2 -6.93506e-16 0)
(2 -4.90766e-16 0)
(2 -4.93311e-16 0)
(2 -2.99973e-16 0)
(2 2.53481e-17 0)
(2 6.09472e-16 0)
(2 9.19974e-16 0)
(2 1.55669e-15 0)
(2 1.80685e-15 0)
(2 1.9607e-15 0)
(2 2.0229e-15 0)
(2 1.96253e-15 0)
(2 1.98181e-15 0)
(2 2.0141e-15 0)
(2 1.98303e-15 0)
(2 2.2789e-15 0)
(2 2.58653e-15 0)
(2 2.66896e-15 0)
(2 2.77072e-15 0)
(2 3.04459e-15 0)
(2 3.1783e-15 0)
(2 3.15545e-15 0)
(2 2.98094e-15 0)
(2 3.06216e-15 0)
(2 3.01046e-15 0)
(2 2.09835e-15 0)
(2 1.94577e-15 0)
(2 -8.11073e-16 0)
(2 -1.00401e-15 0)
(2 -1.08955e-15 0)
(2 -1.14892e-15 0)
(2 -1.24322e-15 0)
(2 -1.42806e-15 0)
(2 -1.59334e-15 0)
(2 -1.5066e-15 0)
(2 -1.51385e-15 0)
(2 -1.24517e-15 0)
(2 -1.07378e-15 0)
(2 -8.915e-16 0)
(2 -9.87931e-16 0)
(2 -1.16594e-15 0)
(2 -1.59305e-15 0)
(2 -2.00319e-15 0)
(2 -1.79884e-15 0)
(2 -1.31995e-15 0)
(2 -1.16448e-15 0)
(2 -3.27495e-16 0)
(2 1.43167e-16 0)
(2 3.19239e-16 0)
(2 4.48769e-16 0)
(2 3.77785e-16 0)
(2 2.98158e-16 0)
(2 1.0477e-16 0)
(2 1.03318e-16 0)
(2 1.72133e-17 0)
(2 -7.82291e-17 0)
(2 -1.32274e-16 0)
(2 5.85828e-17 0)
(2 5.2768e-16 0)
(2 4.89366e-16 0)
(2 2.51343e-16 0)
(2 4.26807e-16 0)
(2 4.82778e-16 0)
(2 5.53565e-16 0)
(2 5.82634e-16 0)
(2 5.91279e-16 0)
(2 6.03644e-16 0)
(2 6.08295e-16 0)
(2 1.01346e-15 0)
(2 1.45841e-15 0)
(2 1.3316e-15 0)
(2 1.26981e-15 0)
(2 1.27202e-15 0)
(2 6.98009e-16 0)
(2 5.26484e-16 0)
(2 4.98967e-16 0)
(2 2.91086e-16 0)
(2 3.34783e-16 0)
(2 4.25529e-16 0)
(2 4.82639e-16 0)
(2 3.90229e-16 0)
(2 3.54974e-16 0)
(2 3.98644e-16 0)
(2 5.34444e-16 0)
(2 6.6395e-16 0)
(2 6.80443e-16 0)
(2 5.17693e-16 0)
(2 3.62136e-16 0)
(2 4.96171e-16 0)
(2 6.25531e-16 0)
(2 1.04187e-15 0)
(2 1.01097e-15 0)
(2 9.42179e-16 0)
(2 9.74572e-16 0)
(2 6.7499e-16 0)
(2 -2.24766e-17 0)
(2 -2.84793e-16 0)
(2 -3.64287e-16 0)
(2 -3.82163e-16 0)
(2 -4.19707e-16 0)
(2 -5.2228e-16 0)
(2 -6.88452e-16 0)
(2 -7.34802e-16 0)
(2 -8.05719e-16 0)
(2 -7.72859e-16 0)
(2 -1.09412e-15 0)
(2 -1.82122e-15 0)
(2 -1.97417e-15 0)
(2 -2.21306e-15 0)
(2 -2.44514e-15 0)
(2 -2.48963e-15 0)
(2 -2.47344e-15 0)
(2 -2.31987e-15 0)
(2 -1.88649e-15 0)
(2 -1.73355e-15 0)
(2 -1.36438e-15 0)
(2 -1.29018e-15 0)
(2 -7.60876e-16 0)
(2 -3.45222e-16 0)
(2 2.94057e-17 0)
(2 4.64915e-16 0)
(2 7.88817e-16 0)
(2 8.17972e-16 0)
(2 8.48328e-16 0)
(2 1.04291e-15 0)
(2 1.07573e-15 0)
(2 1.50449e-15 0)
(2 1.82098e-15 0)
(2 1.76984e-15 0)
(2 1.13249e-15 0)
(2 8.19612e-16 0)
(2 7.98991e-16 0)
(2 7.61205e-16 0)
(2 5.32558e-16 0)
(2 4.9488e-16 0)
(2 1.42524e-15 0)
(2 1.70618e-15 0)
(2 1.64327e-15 0)
(2 1.86602e-15 0)
(2 2.47221e-15 0)
(2 2.61657e-15 0)
(2 2.73763e-15 0)
(2 2.80904e-15 0)
(2 3.02403e-15 0)
(2 3.26985e-15 0)
(2 3.09281e-15 0)
(2 3.28576e-15 0)
(2 8.90518e-16 0)
(2 8.18785e-16 0)
(2 7.09902e-16 0)
(2 6.61233e-16 0)
(2 8.01358e-16 0)
(2 6.37117e-16 0)
(2 7.19069e-16 0)
(2 1.36423e-15 0)
(2 1.53038e-15 0)
(2 1.57371e-15 0)
(2 1.46272e-15 0)
(2 1.53861e-15 0)
(2 1.02543e-15 0)
(2 7.99604e-16 0)
(2 5.34057e-16 0)
(2 7.86511e-16 0)
(2 9.92884e-16 0)
(2 1.16354e-15 0)
(2 1.28502e-15 0)
(2 1.27061e-15 0)
(2 1.18909e-15 0)
(2 1.07842e-15 0)
(2 1.32828e-15 0)
(2 1.63028e-15 0)
(2 1.96789e-15 0)
(2 1.8458e-15 0)
(2 1.46817e-15 0)
(2 9.36037e-16 0)
(2 3.90667e-16 0)
(2 1.4582e-16 0)
(2 2.1419e-16 0)
(2 6.47545e-16 0)
(2 2.35782e-16 0)
(2 -8.38657e-16 0)
(2 -1.05238e-15 0)
(2 -1.05012e-15 0)
(2 -6.67156e-16 0)
(2 -3.29499e-17 0)
(2 3.2084e-16 0)
(2 4.53323e-16 0)
(2 8.75755e-16 0)
(2 1.07634e-15 0)
(2 1.18432e-15 0)
(2 1.40237e-15 0)
(2 1.45135e-15 0)
(2 1.56638e-15 0)
(2 1.5391e-15 0)
(2 1.84745e-15 0)
(2 2.18681e-15 0)
(2 2.24266e-15 0)
(2 2.52715e-15 0)
(2 2.83096e-15 0)
(2 3.03219e-15 0)
(2 3.17384e-15 0)
(2 3.30076e-15 0)
(2 3.45726e-15 0)
(2 3.37328e-15 0)
(2 2.85014e-15 0)
(2 2.45573e-15 0)
(2 1.61477e-15 0)
(2 6.9851e-16 0)
(2 4.14324e-17 0)
(2 -2.09027e-16 0)
(2 -6.93092e-16 0)
(2 -8.46796e-16 0)
(2 -9.52913e-16 0)
(2 -1.12911e-15 0)
(2 -1.26346e-15 0)
(2 -1.18684e-15 0)
(2 -8.56482e-16 0)
(2 -5.53106e-16 0)
(2 -3.48199e-16 0)
(2 4.44357e-17 0)
(2 5.55095e-16 0)
(2 5.83808e-16 0)
(2 3.91102e-16 0)
(2 2.04517e-16 0)
(2 1.60475e-16 0)
(2 -2.30036e-16 0)
(2 -9.08383e-16 0)
(2 -1.1702e-15 0)
(2 -1.21004e-15 0)
(2 -1.30365e-15 0)
(2 -1.27089e-15 0)
(2 -1.48854e-15 0)
(2 -8.00266e-16 0)
(2 -4.7164e-16 0)
(2 -1.05667e-16 0)
(2 3.99418e-16 0)
(2 5.47694e-16 0)
(2 6.36985e-16 0)
(2 1.23225e-15 0)
(2 1.55556e-15 0)
(2 1.76425e-15 0)
(2 2.11225e-15 0)
(2 2.32628e-15 0)
(2 2.47702e-15 0)
(2 2.57953e-15 0)
(2 2.53496e-15 0)
(2 2.2419e-15 0)
(2 1.79086e-15 0)
(2 1.3015e-15 0)
(2 1.18101e-15 0)
(2 1.22971e-15 0)
(2 1.41028e-15 0)
(2 1.45307e-15 0)
(2 1.35757e-15 0)
(2 1.06914e-15 0)
(2 6.50692e-16 0)
(2 4.12936e-16 0)
(2 3.07564e-16 0)
(2 3.20715e-16 0)
(2 2.67974e-16 0)
(2 2.7873e-16 0)
(2 3.47663e-16 0)
(2 3.22847e-16 0)
(2 2.57419e-16 0)
(2 3.4936e-16 0)
(2 8.12289e-16 0)
(2 9.6186e-16 0)
(2 3.24096e-15 0)
(2 3.60619e-15 0)
(2 3.64348e-15 0)
(2 3.72089e-15 0)
(2 4.5738e-15 0)
(2 6.0285e-15 0)
(2 6.25001e-15 0)
(2 6.34204e-15 0)
(2 6.15233e-15 0)
(2 6.03374e-15 0)
(2 5.36598e-15 0)
(2 4.62249e-15 0)
(2 4.35158e-15 0)
(2 3.60825e-15 0)
(2 3.49252e-15 0)
(2 3.42074e-15 0)
(2 3.24602e-15 0)
(2 3.25187e-15 0)
(2 3.21774e-15 0)
(2 3.11179e-15 0)
(2 3.02173e-15 0)
(2 3.03184e-15 0)
(2 3.24917e-15 0)
(2 3.50454e-15 0)
(2 3.68138e-15 0)
(2 3.6959e-15 0)
(2 3.63804e-15 0)
(2 3.51491e-15 0)
(2 3.433e-15 0)
(2 3.16777e-15 0)
(2 2.47394e-15 0)
(2 1.51226e-15 0)
(2 7.38097e-16 0)
(2 4.51276e-16 0)
(2 3.19663e-16 0)
(2 4.18618e-16 0)
(2 6.92715e-16 0)
(2 9.46648e-16 0)
(2 1.50612e-15 0)
(2 1.61258e-15 0)
(2 1.55825e-15 0)
(2 1.2171e-15 0)
(2 9.59612e-16 0)
(2 1.05324e-15 0)
(2 1.40753e-15 0)
(2 1.43554e-15 0)
(2 1.63548e-15 0)
(2 2.1431e-15 0)
(2 2.5071e-15 0)
(2 2.67519e-15 0)
(2 3.1849e-15 0)
(2 3.36529e-15 0)
(2 3.51568e-15 0)
(2 4.24861e-15 0)
(2 4.46334e-15 0)
(2 4.3506e-15 0)
(2 4.23435e-15 0)
(2 4.19796e-15 0)
(2 3.80756e-15 0)
(2 2.98563e-15 0)
(2 2.14207e-15 0)
(2 1.68908e-15 0)
(2 1.24504e-15 0)
(2 1.0585e-15 0)
(2 9.55514e-16 0)
(2 6.77866e-16 0)
(2 1.88233e-16 0)
(2 1.18842e-17 0)
(2 7.17702e-18 0)
(2 9.27134e-16 0)
(2 1.567e-15 0)
(2 1.57458e-15 0)
(2 1.97734e-15 0)
(2 2.15465e-15 0)
(2 2.27002e-15 0)
(2 2.44096e-15 0)
(2 2.45525e-15 0)
(2 2.17944e-15 0)
(2 2.04157e-15 0)
(2 1.99143e-15 0)
(2 2.02001e-15 0)
(2 2.01915e-15 0)
(2 1.76341e-15 0)
(2 1.64641e-15 0)
(2 1.38554e-15 0)
(2 1.35219e-15 0)
(2 1.40776e-15 0)
(2 1.39526e-15 0)
(2 1.29415e-15 0)
(2 1.11731e-15 0)
(2 1.47444e-15 0)
(2 2.20791e-15 0)
(2 2.28236e-15 0)
(2 2.49868e-15 0)
(2 2.88847e-15 0)
(2 3.50464e-15 0)
(2 3.69292e-15 0)
(2 3.51226e-15 0)
(2 3.28381e-15 0)
(2 3.14152e-15 0)
(2 2.61513e-15 0)
(2 2.31461e-15 0)
(2 2.23355e-15 0)
(2 1.98117e-15 0)
(2 1.7426e-15 0)
(2 1.71198e-15 0)
(2 1.97949e-15 0)
(2 1.97478e-15 0)
(2 1.16326e-15 0)
(2 6.47936e-16 0)
(2 4.30605e-16 0)
(2 -2.28398e-16 0)
(2 -1.32955e-15 0)
(2 -1.47042e-15 0)
(2 -1.0427e-15 0)
(2 -3.67607e-16 0)
(2 -4.25729e-16 0)
(2 -2.08027e-16 0)
(2 1.51207e-16 0)
(2 2.71158e-16 0)
(2 3.24767e-15 0)
(2 3.37201e-15 0)
(2 3.55943e-15 0)
(2 3.9539e-15 0)
(2 4.61505e-15 0)
(2 4.78336e-15 0)
(2 4.7479e-15 0)
(2 4.62107e-15 0)
(2 4.51966e-15 0)
(2 4.59163e-15 0)
(2 4.64175e-15 0)
(2 4.55891e-15 0)
(2 4.46465e-15 0)
(2 4.05496e-15 0)
(2 3.83837e-15 0)
(2 3.61901e-15 0)
(2 3.74652e-15 0)
(2 3.99605e-15 0)
(2 4.01082e-15 0)
(2 4.12377e-15 0)
(2 4.2491e-15 0)
(2 4.54694e-15 0)
(2 4.75335e-15 0)
(2 4.66912e-15 0)
(2 4.41387e-15 0)
(2 4.7157e-15 0)
(2 4.95758e-15 0)
(2 4.99231e-15 0)
(2 4.85231e-15 0)
(2 4.4621e-15 0)
(2 3.9388e-15 0)
(2 3.63313e-15 0)
(2 3.66447e-15 0)
(2 3.53481e-15 0)
(2 2.16493e-15 0)
(2 1.02882e-15 0)
(2 7.39989e-16 0)
(2 1.01931e-16 0)
(2 -2.58708e-16 0)
(2 -2.61027e-16 0)
(2 -1.5314e-16 0)
(2 8.24002e-17 0)
(2 1.81575e-16 0)
(2 2.80779e-16 0)
(2 4.63817e-16 0)
(2 7.24892e-16 0)
(2 1.42002e-15 0)
(2 2.11378e-15 0)
(2 2.26035e-15 0)
(2 2.5414e-15 0)
(2 2.84862e-15 0)
(2 2.70139e-15 0)
(2 2.51529e-15 0)
(2 2.17593e-15 0)
(2 1.86258e-15 0)
(2 1.62978e-15 0)
(2 1.45575e-15 0)
(2 1.43904e-15 0)
(2 1.39194e-15 0)
(2 1.50595e-15 0)
(2 1.54644e-15 0)
(2 1.53176e-15 0)
(2 1.41319e-15 0)
(2 1.08339e-15 0)
(2 1.08948e-15 0)
(2 1.16138e-15 0)
(2 1.36128e-15 0)
(2 1.62095e-15 0)
(2 1.72212e-15 0)
(2 1.70323e-15 0)
(2 1.66498e-15 0)
(2 1.55149e-15 0)
(2 1.4025e-15 0)
(2 1.27736e-15 0)
(2 1.48513e-15 0)
(2 1.69575e-15 0)
(2 2.09849e-15 0)
(2 2.54196e-15 0)
(2 3.16691e-15 0)
(2 3.57255e-15 0)
(2 3.62702e-15 0)
(2 2.60923e-15 0)
(2 2.24577e-15 0)
(2 1.88893e-15 0)
(2 1.24412e-15 0)
(2 7.57735e-16 0)
(2 6.7853e-16 0)
(2 6.76138e-16 0)
(2 5.96619e-16 0)
(2 5.73829e-16 0)
(2 6.0071e-16 0)
(2 7.79211e-16 0)
(2 9.23512e-16 0)
(2 1.24324e-15 0)
(2 1.39529e-15 0)
(2 1.59782e-15 0)
(2 2.10494e-15 0)
(2 2.4433e-15 0)
(2 2.42668e-15 0)
(2 1.90223e-15 0)
(2 1.41418e-15 0)
(2 1.34358e-15 0)
(2 9.87245e-16 0)
(2 8.96949e-16 0)
(2 7.77274e-16 0)
(2 6.33343e-16 0)
(2 3.68513e-16 0)
(2 3.35877e-16 0)
(2 2.98204e-16 0)
(2 5.32775e-17 0)
(2 -3.05897e-16 0)
(2 -4.35459e-16 0)
(2 -3.19372e-16 0)
(2 -5.43825e-17 0)
(2 -2.58504e-16 0)
(2 -3.12326e-16 0)
(2 -1.87404e-16 0)
(2 1.00593e-16 0)
(2 2.90345e-16 0)
(2 3.68642e-16 0)
(2 1.85905e-15 0)
(2 1.68602e-15 0)
(2 1.79199e-15 0)
(2 2.38307e-15 0)
(2 2.5449e-15 0)
(2 2.54123e-15 0)
(2 2.28643e-15 0)
(2 2.24625e-15 0)
(2 2.39733e-15 0)
(2 2.38838e-15 0)
(2 2.40954e-15 0)
(2 2.48632e-15 0)
(2 2.54846e-15 0)
(2 2.81529e-15 0)
(2 3.17705e-15 0)
(2 3.29227e-15 0)
(2 3.56064e-15 0)
(2 3.66143e-15 0)
(2 3.84516e-15 0)
(2 3.91411e-15 0)
(2 4.10827e-15 0)
(2 4.40153e-15 0)
(2 4.4473e-15 0)
(2 4.35081e-15 0)
(2 4.34925e-15 0)
(2 4.10726e-15 0)
(2 3.81796e-15 0)
(2 3.46422e-15 0)
(2 3.14176e-15 0)
(2 2.91762e-15 0)
(2 2.88332e-15 0)
(2 2.83735e-15 0)
(2 2.63558e-15 0)
(2 2.63374e-15 0)
(2 2.17663e-15 0)
(2 1.16287e-15 0)
(2 8.23026e-16 0)
(2 7.38126e-16 0)
(2 5.74193e-16 0)
(2 5.00161e-16 0)
(2 5.53065e-16 0)
(2 6.07608e-16 0)
(2 9.22403e-16 0)
(2 9.9316e-16 0)
(2 1.42026e-15 0)
(2 1.83452e-15 0)
(2 2.11349e-15 0)
(2 2.17668e-15 0)
(2 2.03514e-15 0)
(2 1.86395e-15 0)
(2 1.74384e-15 0)
(2 1.72099e-15 0)
(2 1.37256e-15 0)
(2 -2.6846e-16 0)
(2 -6.89011e-16 0)
(2 -8.04078e-16 0)
(2 -8.54073e-16 0)
(2 -1.2959e-16 0)
(2 1.56933e-16 0)
(2 3.23311e-16 0)
(2 1.48252e-16 0)
(2 2.79048e-16 0)
(2 3.92782e-16 0)
(2 4.37222e-16 0)
(2 6.21799e-16 0)
(2 8.77242e-16 0)
(2 9.51789e-16 0)
(2 8.46793e-16 0)
(2 5.9079e-16 0)
(2 4.52373e-16 0)
(2 6.01326e-16 0)
(2 7.43291e-16 0)
(2 6.61787e-16 0)
(2 5.92878e-16 0)
(2 6.34856e-16 0)
(2 6.09397e-16 0)
(2 5.86823e-16 0)
(2 5.76776e-16 0)
(2 6.17971e-16 0)
(2 8.08092e-16 0)
(2 9.22651e-16 0)
(2 7.56964e-16 0)
(2 6.67371e-16 0)
(2 5.65103e-16 0)
(2 4.35492e-16 0)
(2 1.90122e-17 0)
(2 -3.28582e-16 0)
(2 -6.01245e-16 0)
(2 -5.63926e-16 0)
(2 -5.45607e-16 0)
(2 -6.33104e-16 0)
(2 -6.25283e-16 0)
(2 -5.68514e-16 0)
(2 -5.23219e-16 0)
(2 -3.36321e-16 0)
(2 1.27031e-16 0)
(2 3.39396e-16 0)
(2 5.6084e-16 0)
(2 1.02868e-16 0)
(2 -1.81374e-16 0)
(2 -1.26958e-16 0)
(2 -4.74488e-16 0)
(2 -6.66381e-16 0)
(2 -6.98044e-16 0)
(2 -6.5203e-16 0)
(2 -6.70741e-16 0)
(2 -1.02205e-15 0)
(2 -1.05117e-15 0)
(2 -9.55974e-16 0)
(2 -8.27511e-16 0)
(2 -7.63002e-16 0)
(2 -7.24203e-16 0)
(2 -6.77571e-16 0)
(2 8.56674e-17 0)
(2 1.0351e-15 0)
(2 1.14576e-15 0)
(2 1.09865e-15 0)
(2 1.03112e-15 0)
(2 1.22279e-15 0)
(2 1.45355e-15 0)
(2 2.02885e-15 0)
(2 2.24315e-15 0)
(2 2.30417e-15 0)
(2 2.02849e-15 0)
(2 1.89239e-15 0)
(2 1.84317e-15 0)
(2 1.7787e-15 0)
(2 1.47122e-15 0)
(2 1.35586e-15 0)
(2 1.31188e-15 0)
(2 1.29324e-15 0)
(2 1.25752e-15 0)
(2 1.45725e-15 0)
(2 1.61619e-15 0)
(2 1.70046e-15 0)
(2 2.00864e-15 0)
(2 2.06057e-15 0)
(2 1.96736e-15 0)
(2 2.04723e-15 0)
(2 2.12073e-15 0)
(2 2.22704e-15 0)
(2 2.26838e-15 0)
(2 2.32361e-15 0)
(2 2.32497e-15 0)
(2 2.51103e-15 0)
(2 2.68477e-15 0)
(2 2.80735e-15 0)
(2 2.14622e-15 0)
(2 1.51631e-15 0)
(2 1.02507e-15 0)
(2 9.36283e-16 0)
(2 6.85829e-16 0)
(2 5.29076e-16 0)
(2 3.92544e-16 0)
(2 5.38398e-17 0)
(2 2.24437e-16 0)
(2 6.22363e-16 0)
(2 6.48249e-16 0)
(2 8.57604e-16 0)
(2 8.83731e-16 0)
(2 8.28571e-16 0)
(2 8.2946e-16 0)
(2 7.40421e-16 0)
(2 8.95228e-16 0)
(2 1.10569e-15 0)
(2 1.3544e-15 0)
(2 1.32107e-15 0)
(2 1.303e-15 0)
(2 1.14243e-15 0)
(2 6.07162e-16 0)
(2 4.30592e-16 0)
(2 1.95922e-16 0)
(2 1.73389e-16 0)
(2 8.47088e-16 0)
(2 8.85111e-16 0)
(2 9.84706e-16 0)
(2 1.02816e-15 0)
(2 1.04116e-15 0)
(2 7.5322e-16 0)
(2 4.48685e-16 0)
(2 1.33326e-16 0)
(2 -6.14507e-17 0)
(2 -3.80261e-17 0)
(2 1.57942e-16 0)
(2 4.56237e-16 0)
(2 6.2422e-16 0)
(2 5.55682e-16 0)
(2 5.66089e-16 0)
(2 7.10011e-16 0)
(2 8.30361e-16 0)
(2 7.00956e-16 0)
(2 6.48828e-16 0)
(2 7.94982e-16 0)
(2 1.25956e-15 0)
(2 1.09817e-15 0)
(2 4.69569e-16 0)
(2 2.87309e-16 0)
(2 2.04269e-16 0)
(2 2.2848e-16 0)
(2 1.78033e-17 0)
(2 -2.39035e-16 0)
(2 -3.19858e-16 0)
(2 -1.99526e-16 0)
(2 -1.23278e-16 0)
(2 -6.25823e-17 0)
(2 -5.49873e-17 0)
(2 -2.43029e-16 0)
(2 -2.52204e-16 0)
(2 -1.82253e-16 0)
(2 -1.33172e-16 0)
(2 -5.51865e-17 0)
(2 -1.51728e-16 0)
(2 -2.51721e-16 0)
(2 -5.02001e-16 0)
(2 -4.18835e-16 0)
(2 -2.64945e-16 0)
(2 -4.1338e-16 0)
(2 -1.27686e-15 0)
(2 -1.97212e-15 0)
(2 -2.06612e-15 0)
(2 -2.02101e-15 0)
(2 -1.95787e-15 0)
(2 -2.09567e-15 0)
(2 -2.06493e-15 0)
(2 -1.92572e-15 0)
(2 -1.69934e-15 0)
(2 -1.56389e-15 0)
(2 -1.55208e-15 0)
(2 -1.66651e-15 0)
(2 -1.73483e-15 0)
(2 -1.82567e-15 0)
(2 -1.97595e-15 0)
(2 -2.11359e-15 0)
(2 -1.56151e-15 0)
(2 9.852e-17 0)
(2 4.58402e-16 0)
(2 6.84804e-16 0)
(2 7.46129e-16 0)
(2 7.80381e-16 0)
(2 8.50232e-16 0)
(2 3.56978e-15 0)
(2 3.43366e-15 0)
(2 3.24786e-15 0)
(2 3.18372e-15 0)
(2 3.33166e-15 0)
(2 3.29811e-15 0)
(2 3.10882e-15 0)
(2 2.99046e-15 0)
(2 2.35883e-15 0)
(2 2.66786e-15 0)
(2 3.06886e-15 0)
(2 3.12659e-15 0)
(2 2.62378e-15 0)
(2 2.59706e-15 0)
(2 2.80158e-15 0)
(2 2.8402e-15 0)
(2 2.79274e-15 0)
(2 2.74955e-15 0)
(2 2.6339e-15 0)
(2 2.43992e-15 0)
(2 2.37085e-15 0)
(2 2.14189e-15 0)
(2 1.9594e-15 0)
(2 1.88832e-15 0)
(2 1.83123e-15 0)
(2 1.84557e-15 0)
(2 2.00464e-15 0)
(2 2.12549e-15 0)
(2 2.1814e-15 0)
(2 2.23632e-15 0)
(2 2.20966e-15 0)
(2 2.1363e-15 0)
(2 2.11886e-15 0)
(2 2.1149e-15 0)
(2 2.12726e-15 0)
(2 2.06622e-15 0)
(2 1.72069e-15 0)
(2 1.61566e-15 0)
(2 1.38664e-15 0)
(2 1.33006e-15 0)
(2 1.01005e-15 0)
(2 9.81002e-16 0)
(2 1.17936e-15 0)
(2 1.2769e-15 0)
(2 1.12318e-15 0)
(2 8.51271e-16 0)
(2 7.59266e-16 0)
(2 9.54638e-16 0)
(2 1.04099e-15 0)
(2 7.824e-16 0)
(2 6.43877e-16 0)
(2 6.8108e-16 0)
(2 1.13357e-15 0)
(2 1.52487e-15 0)
(2 1.73362e-15 0)
(2 1.71343e-15 0)
(2 1.59212e-15 0)
(2 1.41557e-15 0)
(2 1.1838e-15 0)
(2 1.03249e-15 0)
(2 1.14881e-15 0)
(2 1.24466e-15 0)
(2 1.36212e-15 0)
(2 1.4706e-15 0)
(2 1.30472e-15 0)
(2 1.18581e-15 0)
(2 1.29211e-15 0)
(2 1.36237e-15 0)
(2 1.95569e-15 0)
(2 1.96882e-15 0)
(2 1.74512e-15 0)
(2 1.36727e-15 0)
(2 1.18076e-15 0)
(2 1.30788e-15 0)
(2 1.233e-15 0)
(2 1.1707e-15 0)
(2 1.23058e-15 0)
(2 1.41689e-15 0)
(2 1.2935e-15 0)
(2 1.13081e-15 0)
(2 1.50618e-15 0)
(2 1.84169e-15 0)
(2 1.96629e-15 0)
(2 1.95228e-15 0)
(2 2.01345e-15 0)
(2 2.24365e-15 0)
(2 2.31862e-15 0)
(2 2.30289e-15 0)
(2 2.1835e-15 0)
(2 1.9668e-15 0)
(2 1.94637e-15 0)
(2 1.88211e-15 0)
(2 1.55698e-15 0)
(2 1.29177e-15 0)
(2 7.51081e-16 0)
(2 7.26073e-16 0)
(2 2.87157e-17 0)
(2 -8.24107e-16 0)
(2 -1.42225e-15 0)
(2 -1.55521e-15 0)
(2 -2.35264e-15 0)
(2 -2.70034e-15 0)
(2 -2.69728e-15 0)
(2 -2.96405e-15 0)
(2 -2.92995e-15 0)
(2 -2.89532e-15 0)
(2 -2.84108e-15 0)
(2 -2.65251e-15 0)
(2 -2.67039e-15 0)
(2 -2.38978e-15 0)
(2 -2.10153e-15 0)
(2 -2.00022e-15 0)
(2 -1.69023e-15 0)
(2 -1.46694e-15 0)
(2 -1.20001e-15 0)
(2 -8.10923e-16 0)
(2 -2.71746e-16 0)
(2 -1.02923e-16 0)
(2 -1.8875e-17 0)
(2 1.73885e-16 0)
(2 2.70596e-15 0)
(2 2.6075e-15 0)
(2 2.20968e-15 0)
(2 2.00753e-15 0)
(2 1.99564e-15 0)
(2 2.04324e-15 0)
(2 2.00303e-15 0)
(2 1.90205e-15 0)
(2 1.7028e-15 0)
(2 1.18792e-15 0)
(2 5.66553e-16 0)
(2 5.64233e-16 0)
(2 6.04806e-16 0)
(2 1.19283e-15 0)
(2 1.89376e-15 0)
(2 2.15063e-15 0)
(2 2.09777e-15 0)
(2 2.03434e-15 0)
(2 1.89927e-15 0)
(2 1.65547e-15 0)