/*--------------------------------*- C++ -*----------------------------------*\
  =========                 |
  \\      /  F ield         | OpenFOAM: The Open Source CFD Toolbox
   \\    /   O peration     | Website:  https://openfoam.org
    \\  /    A nd           | Version:  7
     \\/     M anipulation  |
\*---------------------------------------------------------------------------*/
FoamFile
{
    version     2.0;
    format      ascii;
    class       volScalarField;
    location    "0.985";
    object      T;
}
// * * * * * * * * * * * * * * * * * * * * * * * * * * * * * * * * * * * * * //

dimensions      [0 2 -2 0 0 0 0];

internalField   nonuniform List<scalar> 
12359
(
-8.43606e-75
-2.86265e-61
1.49007e-202
-1.30153e-40
-2.40024e-69
-1.16134e-27
7.76449e-23
-8.4072e-25
3.96958e-17
1.51829e-30
1.42147e-19
-5.02203e-13
0.275715
-5.77993e-38
-3.05594e-43
1.4263e-05
0.0027827
2.95544e-112
-1.28667e-113
-4.47754e-51
-2.5932e-35
9.28407e-15
5.28275e-56
3.10775e-48
-5.16491e-59
-3.10188e-55
2.76495e-146
-3.25531e-149
-1.2637e-119
3.91635e-138
8.57592e-133
-6.52626e-164
-3.68674e-180
1.89128e-142
7.3658e-192
-4.49995e-131
-5.50293e-90
-4.65737e-78
-7.57371e-72
-1.06789e-82
4.47986e-64
5.08263e-80
-2.18881e-97
1.88918e-100
1.69649e-124
-5.86697e-122
-1.94644e-127
-2.55485e-135
2.61621e-116
-1.19541e-143
-3.75204e-153
-1.79089e-157
-2.88496e-166
3.08422e-108
-1.24382e-171
1.34237e-178
3.38101e-103
8.99535e-183
-1.21004e-185
6.12131e-189
8.59158e-175
8.37657e-197
8.84743e-155
10.1065
-1.77259e-105
-1.88936e-33
-3.3439e-93
2.29408e-160
2.46951e-87
1.50596e-08
114.215
1.60408e-66
4.33744e-205
-3.35579e-85
1.69373e-45
-3.75659e-194
1.1296e-168
-1.52533e-199
4.49339e-95
-2.06757e-10
-1.256e-26
-2.0371e-115
5.36801e-250
-1.24375e-73
0.00184318
7.8605e-69
-1.26423e-113
3.08527e-161
1.0587
0.000599024
3.66249e-220
3.00762
5.70567e-222
-9.90357e-96
-3.43719e-77
1.47175e-46
-2.61543e-100
-1.38709e-96
3.39691e-48
9.39964e-62
3.0317e-22
4.65388e-216
2.01676e-69
29.6702
-1.56381e-122
2.05539e-26
-2.21207e-213
0.00239297
1.9771e-77
1.83964e-27
-1.33265e-102
-3.61673e-115
-1.00334e-30
1.02702e-25
-7.99658e-78
-8.68482e-145
8.28781e-25
-1.63682e-114
3.66243
3.95331e-248
-2.09452e-103
1.97118e-22
7.63454e-160
1.28944e-32
-1.36145e-113
-3.46144e-135
3.5177e-16
-6.28595e-73
5.29891e-201
-1.56204e-114
4.14896e-144
2.03232e-05
0.00062166
0.000430054
-1.3874e-214
3.19018e-33
4.14653e-145
1.97048e-34
2.72087e-212
4.95934e-17
-7.01332e-239
9.13152e-74
6.34472e-35
1.45032e-213
2.98061e-17
2.1648e-27
-1.92751e-249
0.000756216
-6.43369e-122
2.88531e-26
5.54691e-44
-1.39087e-214
2.66682e-34
3.83864e-158
5.2757e-227
114.111
5.73999e-23
1.95453e-05
-4.72636e-101
1.91596e-163
9.84106e-33
3.78046e-162
2.45192e-32
5.52834e-34
-3.64098e-236
-1.41674e-136
2.04529e-33
3.19649e-23
1.12823e-35
0.939466
-9.60579e-198
-1.18542e-195
1.40353e-36
1.20928e-60
-4.54173e-124
2.02042e-17
3.1185e-121
8.42592e-123
-1.6725e-30
2.49342e-18
-3.10204e-37
-3.05291e-224
3.98973e-200
-1.39131e-114
1.96672e-49
1.2304e-15
-4.57438e-96
-9.86831e-81
2.96383e-43
-1.79738e-95
-2.17777e-79
7.85045e-48
1.68936e-49
5.48381e-157
7.68716e-27
40.8925
4.91696e-58
-1.31863e-95
2.24658e-34
-1.59905e-113
3.54985e-26
1.15562e-43
-2.30886e-61
1.50193e-27
3.80315e-20
-6.51436e-224
3.74055e-19
-6.93171e-61
9.45787e-28
2.78002e-104
4.45054e-232
4.79145e-13
8.16281e-13
155.927
3.59283e-15
-2.731e-209
-8.03787e-96
-5.38322e-79
-2.72862e-95
2.34205e-72
4.7734e-26
-2.52042e-106
1.827e-33
3.2336
-9.83686e-115
1.37745e-231
6.3598e-71
8.35259e-79
8.39576e-19
-2.31529e-93
-1.25467e-92
-6.59217e-238
1.48903e-17
2.96907e-56
-4.55145e-81
1.61748e-57
-3.04402e-248
2.20477e-32
-8.42866e-80
9.94418e-05
-2.64295e-228
8.63912e-66
-9.56799e-88
5.93271e-10
5.74955e-31
0.00111369
-4.78216e-187
1.35499e-28
1.30028e-129
9.98612e-50
2.63269e-18
-1.48633e-79
6.29873e-126
-9.15873e-93
1.3957
126.592
-5.86397e-246
1.03528e-108
1.4879
190.07
1.57478e-60
2.19267e-31
1.28745e-20
2.27684e-27
-3.20976e-61
60.6007
3.6869
1.34416e-29
3.54683e-110
2.21901e-33
6.90085e-36
3.5559e-49
6.08567e-35
-3.0727e-94
1.63203e-106
2.16677e-230
2.74967e-108
9.0683
2.29741e-29
-1.33885e-197
-6.34129e-214
4.21939e-27
7.31635e-108
-1.24259e-93
4.12309e-67
1.7545e-241
9.01664e-21
8.31409e-215
3.00754e-215
1.91347e-165
3.56157e-33
-3.58246e-117
53.2066
-3.28455e-215
-3.29761e-213
1.75726e-68
-3.65223e-130
6.61504e-27
-8.02386e-82
-4.74442e-155
-4.54448e-220
8.21562
8.73433e-20
-2.96264e-221
-4.88295e-95
-4.10674e-83
-2.48266e-128
-3.47891e-143
3.60539e-146
-5.09792e-126
-1.64533e-113
-7.48393e-16
-5.63021e-129
1.84518e-133
-2.29246e-78
1.42652e-32
1.79146
4.87634e-126
-6.58826e-52
5.12407e-06
-3.63482e-214
2.15488e-42
-1.77719e-196
3.36382e-57
5.1379e-212
2.81502e-124
7.04406e-16
3.1615e-39
2.94621e-16
-9.1599e-95
-6.90185e-88
1.47863e-49
2.10787e-45
-7.90644e-87
7.02089e-50
5.60989e-50
3.77024e-179
-1.02782e-170
-5.92876e-171
-1.70338e-170
-1.21878e-169
0.000399215
-1.36554e-240
6.23071e-25
7.42113e-34
1.12721e-51
5.33586e-33
1.25312e-38
6.57089e-69
2.78336e-59
1.03223e-38
4.20675e-60
9.64203e-53
5.70854e-30
2.81771e-29
4.1515e-30
2.03664e-72
2.1137e-14
5.15732e-75
-5.06782e-76
7.51952e-35
6.87899e-20
-1.74652e-118
2.47151e-170
1.27167e-57
7.37516e-172
-1.6944e-115
171.286
18.2918
1.66274e-116
4.14226e-210
1.16948e-216
-5.92652e-226
2.57703e-39
-2.27087e-225
-3.55187e-225
1.29719
3.10963e-34
0.000469136
3.58651e-119
4.84544e-29
2.25987e-109
-1.44928e-86
2.56357e-26
2.29212e-58
-1.28552e-38
1.03231e-59
2.86086e-118
-2.68058e-197
1.13908e-34
5.72998e-29
1.73843e-116
1.42332e-11
1.45559e-26
2.02921e-46
4.06966e-41
1.08337e-34
-1.72521e-209
10.0184
1.28669e-13
1.59156e-117
1.93269e-10
-2.44306e-76
-7.52337e-237
5.34993e-237
-1.75636e-227
0.000872158
9.06211e-21
1.88892e-50
3.23368e-43
1.48505e-44
-8.43031e-76
-2.76716e-37
1.92096e-42
2.34994e-09
1.75773
2.37453e-11
3.19454e-51
4.31723e-31
5.55634e-76
2.12225e-27
1.49945e-63
2.90485e-56
2.31729e-141
5.1962e-65
6.63033e-37
-3.03151e-224
180.506
2.16541e-92
1.39141
6.55283e-30
-8.14899e-102
5.20419e-29
1.09976
6.99083e-37
1.07668e-57
1.21779e-46
7.5388e-29
1.32595e-26
-4.90182e-111
-1.05677e-231
1.47854e-23
-1.296e-211
8.44047e-06
8.42178e-143
-2.05226e-54
2.22705e-34
6.49515e-92
0.0096798
3.76136e-24
-2.0353e-63
-5.28613e-111
4.46721e-05
2.14901e-184
-3.29874e-122
1.22222e-14
8.46237e-209
-6.29807e-111
-7.77871e-123
1.23879e-07
19.2786
-5.84277e-75
5.55516e-166
-3.30645e-32
1.50965e-35
1.37046e-42
6.06334e-33
1.83399e-35
8.07848e-178
-1.77666e-227
3.04372e-39
1.54451e-219
1.99422e-35
4.49381e-43
6.97289e-28
2.0921e-124
1.27075e-24
3.55172e-13
-2.48307e-140
-2.86154e-76
4.35688e-115
-1.00497e-28
2.22327e-14
-6.08685e-211
6.54755e-38
5.99714e-37
1.98193e-78
1.03255e-36
-7.58394e-143
5.53766e-21
2.6789e-60
1.16624e-31
3.13099e-28
3.02691e-176
-4.487e-77
8.86224e-10
0.00210897
-3.30651e-220
3.81677e-55
4.49283e-10
5.88179e-41
0.842908
-1.71953e-227
6.49559e-144
1.08123e-182
5.44557e-33
2.66215e-60
-1.84488e-70
-1.90548e-141
4.64832e-40
2.17389e-54
-1.01e-59
-6.43026e-101
0.000294962
-5.7418e-206
0.000676402
9.69129e-163
147.855
3.49415e-59
1.70266e-10
-2.68286e-186
9.47367e-126
1.74023e-31
-3.33842e-116
-2.18929e-156
-3.06907e-97
1.06901e-58
8.80514e-59
4.9994e-12
4.69269e-23
3.96568e-23
-3.42995e-250
-5.03706e-116
3.95975e-41
0.00287036
-4.26749e-250
2.33509e-202
2.98039e-36
1.75489e-180
2.08898e-16
1.3313
106.044
-1.03387e-248
-3.18076e-77
1.90441e-17
-6.3459e-68
-1.77515e-124
91.2584
3.60075e-204
1.67358e-23
2.90776e-33
3.7309e-78
-5.25368e-127
-1.42646e-153
2.09408e-93
2.49491e-34
1.22798e-60
-1.55412e-74
1.95594e-247
-2.75925e-200
2.71191e-64
2.06982e-121
2.89266e-27
3.23063e-33
1.16168e-163
-3.75236e-199
2.111e-29
172.804
2.41805e-134
1.23687e-09
-1.32079e-217
-1.91851e-74
1.2081e-23
9.17829e-41
4.8881e-19
4.69793e-28
2.4167e-59
1.16813e-30
-1.74964e-233
9.14179e-192
5.03405e-44
1.85251e-68
2.8007e-60
3.7434e-70
-1.38802e-226
-3.72173e-198
-1.13377e-134
6.58898e-47
1.03615e-26
-9.54154e-33
4.89692e-91
-4.64728e-31
2.81398e-35
2.2859e-56
-4.37764e-30
-1.0288e-54
1.74707
1.05085e-33
7.08219e-53
2.05631e-28
-7.61447e-193
7.11889e-23
4.37652e-31
1.12183e-250
6.17242e-210
1.33349e-179
6.89598e-185
5.5218e-07
6.21332e-56
9.51835e-85
-5.59949e-32
-1.25707e-96
8.00959e-16
1.16716e-41
6.42571e-34
-1.11083e-133
1.16466e-10
-4.69885e-227
-7.53038e-47
-1.2412e-111
7.13209e-19
-2.12611e-29
5.9124e-65
1.00506e-55
9.73901
2.99608e-36
1.65528e-13
3.30057e-64
1.7511e-11
0.626606
-3.14727e-171
-2.56465e-118
-3.55908e-228
2.52333e-08
-1.26112e-118
1.76285e-60
0.00807991
1.35951e-202
8.38796e-61
2.7172e-31
9.51033e-61
-9.80232e-132
7.85275e-66
-4.93282e-165
-7.89108e-65
6.4466e-167
-5.34183e-164
-3.42038e-69
1.07744e-32
1.93907e-35
2.16706e-59
2.08638e-08
1.34387e-41
17.2161
9.38972e-36
1.58236e-67
-5.77357e-67
2.07843e-37
2.0446e-50
7.62724e-48
0.575832
-6.74996e-35
7.20683e-53
1.18379e-50
-3.84689e-112
1.5982e-122
7.07501e-30
-3.90255e-230
20.6044
-1.04202e-166
-6.00404e-34
5.65139e-22
4.09182e-07
1.30986e-18
1.24242e-28
1.83996e-32
4.38803e-65
8.09211e-19
4.44816e-41
2.13133e-13
3.03834e-50
2.13465e-13
1.88732e-51
1.42032e-242
4.69581e-51
178.195
4.25992e-13
1.21039e-91
-4.68718e-235
-1.94588e-161
6.46451e-84
-7.79665e-54
3.62117e-36
6.56664e-56
6.62224e-179
-1.71995e-90
6.27839e-50
-1.46343e-93
-8.30163e-101
1.50818e-12
-4.60276e-103
1.42219e-42
2.38777e-25
4.65253e-92
-9.26441e-84
1.13991e-27
-8.63454e-252
-5.30671e-87
53.5782
-6.34998e-190
3.1081e-16
1.34032e-22
7.35108e-85
3.2289e-32
1.92306e-25
8.45502e-52
4.75955e-26
-8.87773e-119
-2.93182e-32
-1.02409e-124
4.54101e-51
1.49722e-27
-4.92068e-31
-9.60846e-119
4.26906e-30
3.97708e-06
5.652e-44
9.55016e-66
-5.59443e-112
2.67561e-22
7.26892e-07
-3.81055e-115
5.81325e-211
4.73376e-52
-6.62053e-222
0.744557
8.10177e-51
2.85829e-12
6.26742e-64
3.64898e-57
13.8783
7.39059e-62
0.0017943
2.23742e-37
101.183
1.28676e-40
-2.28456e-73
3.05257e-63
8.29662e-80
0.00416594
0.000396979
7.81718e-167
3.39483e-164
-6.08351e-29
1.42729e-154
0.0037829
9.82399e-28
4.1515e-10
-6.95859e-112
128.79
0.10122
4.20233e-50
6.06874e-242
-4.61044e-123
-4.34728e-37
2.75546e-82
4.39727e-90
9.95653e-80
1.50206e-36
3.07829e-42
50.3435
1.95501e-07
1.64427e-180
1.46271e-36
2.30682e-24
-9.62875e-28
1.46718e-69
1.65397e-22
1.11689e-30
-4.55219e-36
-8.42365e-130
1.36955e-239
1.95875e-20
1.88567e-17
9.01007e-58
-6.86118e-30
4.62137e-13
8.2267e-69
5.11683e-53
-3.28623e-110
1.83793e-76
8.93026e-15
7.60934e-74
5.7393e-25
4.97083e-39
2.79417e-46
6.04107e-92
3.75661e-75
1.40739e-06
6.85587e-66
1.21801e-69
50.0779
1.99661e-47
2.16466e-70
0.0100416
4.7755e-246
1.71127e-64
3.51159e-58
-6.12762e-83
-6.41093e-138
7.66028e-55
1.04777e-252
1.26248e-09
2.17695e-117
-2.34769e-58
5.02086e-21
4.72403e-32
6.78079e-60
1.46986e-62
1.81761e-21
93.5203
-1.7998e-191
-1.69991e-100
2.30619e-69
0.00854568
1.33206e-17
-2.92146e-120
3.44948
-3.87359e-239
-3.74851e-120
186.207
-2.33849e-91
-2.83663e-117
-1.71164e-114
3.0433e-40
-2.42569e-39
-3.06379e-188
-7.10638e-85
1.4059e-24
2.02479e-58
5.22241e-63
2.64214e-80
-7.81554e-170
-3.0685e-38
2.5218e-06
-1.22266e-65
-5.64393e-31
4.23076e-38
3.22231e-49
1.8825e-10
3.30475e-25
4.84053e-79
-1.92097e-118
0.000487033
2.63374e-32
9.83596e-46
-2.42291e-109
1.96308e-183
-9.5903e-37
7.92408e-11
6.23453e-68
1.8013e-28
1.62586e-66
8.50223e-79
1.25054e-99
6.86619e-39
151.618
19.5997
1.12172e-37
-9.66523e-63
2.66075e-101
6.3179e-40
0.013338
-2.16988e-33
-1.38567e-121
2.30741e-11
8.11693e-08
9.59426
5.69739e-84
89.6645
-8.60686e-188
2.44587e-77
-6.63328e-184
6.39494e-11
1.40958e-44
83.6887
-6.66569e-125
0.0217205
1.99239e-153
-1.52482e-63
1.86582e-28
1.14326e-84
4.76195e-12
0.143401
-1.16184e-89
5.12966e-91
3.32708e-64
4.32158e-85
-4.45351e-91
1.0908e-13
6.10766e-47
5.34223e-62
2.06096e-15
-3.38812e-91
2.94008e-178
-6.07131e-67
-2.77472e-160
1.2193e-26
6.71614e-64
4.08228e-09
6.34783e-11
-1.24928e-41
1.20066e-32
1.50176e-36
2.22742e-64
0.0133863
4.3572e-70
-2.48094e-95
-2.33441e-226
3.6733e-11
-1.37546e-34
-2.61376e-126
8.82526e-26
-8.71826e-81
6.86342e-33
-7.09228e-37
-2.74929e-32
1.06285e-37
92.0775
3.95243e-36
-1.62104e-40
0.152942
3.45938e-84
2.53128e-07
7.93378e-24
2.11405e-157
1.18989e-68
5.44152e-100
4.00165e-68
-5.42932e-235
-1.63603e-113
2.93384e-07
3.54223e-11
-1.88911e-114
207.495
9.14535e-29
1.7971e-162
8.71003e-12
2.24009e-12
8.87155e-165
1.19006e-10
6.30183e-22
3.58452e-11
-1.54597e-163
3.86079e-124
-8.06085e-99
1.89433e-165
-5.17223e-36
30.0394
-1.67886e-127
6.6114e-12
7.90501e-249
2.88588
2.26509e-26
1.90158e-34
-6.63965e-206
-4.25649e-129
9.85035e-77
3.0138e-39
3.93601e-15
1.70684e-33
-8.48581e-92
-7.07832e-88
-1.81703e-162
1.18937e-27
1.07943e-37
-9.63933e-100
7.41927e-209
1.23955e-53
8.56453e-34
2.12957e-43
-5.6079e-134
8.15894e-07
1.93705e-28
1.14933e-153
3.12575e-44
1.29041e-87
4.334e-71
196.279
-1.3033e-92
8.4232e-161
8.37527e-37
-1.12318e-35
-5.65659e-44
3.09458
-4.9626e-61
2.13322e-72
2.36605e-32
-3.6263e-83
-3.21767e-81
6.0741e-71
-1.07894e-83
-1.0907e-28
-3.53962e-73
15.7644
-8.25278e-43
6.15207e-10
4.91152e-79
0.0139321
6.07044e-31
4.42216e-09
1.12156e-13
6.40885e-32
6.47953e-71
7.39383e-77
4.17584e-56
8.42166e-248
6.07851e-74
2.13089e-35
2.78377e-12
-1.52674e-83
6.90375e-155
4.90827e-34
3.45712e-34
1.73334e-16
8.44892e-39
1.70203e-11
2.31875e-16
-5.23687e-108
2.3456e-49
0.855207
1.47428e-36
-2.08393e-239
5.57201e-85
-5.44078e-86
2.71483e-241
1.46356e-50
-5.06522e-190
1.8786e-72
9.58157e-15
3.703e-33
3.26476e-06
-9.25889e-186
-1.22537e-129
-2.07499e-220
-1.35411e-84
-5.34865e-101
4.30841e-09
-8.75562e-101
-5.33001e-129
5.64612e-07
5.66874e-35
5.83346e-45
8.27202e-52
3.54044e-17
-5.37681e-92
4.94235e-12
1.28127e-77
9.75705e-180
0.00216271
4.64719e-40
3.32459e-20
-2.17497e-97
57.8116
-3.40116e-39
1.03738e-43
3.19446e-32
1.46379e-29
47.8912
6.4479e-75
7.53861e-12
5.90275e-50
3.31681e-45
-5.8598e-139
7.12745e-63
1.74565e-07
3.88974e-76
6.98416e-09
-5.33498e-90
-5.81471e-94
1.06349e-12
1.74701e-145
2.24895e-120
1.86411e-73
8.71666e-39
4.61841e-11
-3.8683e-91
9.1543e-86
-5.84848e-221
1.591e-46
0.00252275
7.48114e-41
-1.13401e-85
2.15132e-61
-5.91334e-93
-1.07746e-124
14.9667
-2.41633e-46
-4.4479e-212
3.87462e-48
-1.63994e-94
-5.50314e-38
-2.2636e-27
6.16805e-42
4.36875e-84
1.9448e-14
4.6896e-11
2.52872e-210
1.05437e-58
1.87847e-11
-1.27013e-126
-1.0759e-188
-9.97187e-63
6.60102e-49
5.89821e-78
-4.36467e-187
1.28461e-49
2.61941e-12
2.76573e-164
8.77106e-23
-2.25133e-190
1.4507e-98
2.46856e-54
4.75659e-05
-4.28438e-227
2.13938
-3.61843e-45
3.06334e-21
40.4403
-1.49307e-41
1.92283e-55
0.0345539
-2.4771e-84
1.60086e-05
1.09081e-18
-1.81842e-64
2.70184e-75
7.99093e-77
-9.15404e-95
-1.24865e-99
7.13061e-21
0.03165
197.309
2.46493e-24
-1.48211e-28
0.0360531
1.38833e-26
15.1345
6.42913e-141
-2.98607e-93
1.32156e-18
1.14108e-41
-1.06415e-114
3.15326e-24
1.53948e-77
42.5666
4.1887e-237
-1.36404e-128
8.37334e-135
206.92
-6.25821e-36
1.11558e-43
-3.79059e-75
6.72848e-19
9.78499e-80
-6.60893e-131
3.74171e-07
4.74724e-76
3.63728e-07
5.72497e-21
2.95887e-65
4.29514e-14
7.59873e-41
-1.46307e-93
-9.99109e-126
-3.54187e-123
0.241337
2.7832e-13
-1.77638e-102
1.12084e-17
3.74775e-45
2.51478e-24
-5.82942e-227
5.11434e-45
2.29679e-07
2.34266e-09
-2.44531e-40
-1.38944e-65
-6.95362e-128
1.92172e-15
-3.62771e-82
-1.41636e-130
4.75569e-10
1.62068e-16
-5.23499e-105
8.13771e-30
1.45634e-39
2.51171e-222
-6.15954e-116
4.85534e-188
-2.48868e-39
87.1357
2.4928e-11
4.13781e-19
-1.86889e-109
6.47466e-80
2.53054e-39
1.83452e-215
3.5867e-09
1.50585e-41
95.079
-2.72862e-27
1.91557e-69
-9.9641e-106
-1.22016e-139
1.40154e-75
-3.62418e-82
-9.23667e-113
15.2008
6.24355e-15
4.12405e-35
7.76541e-17
-1.03387e-41
-1.77011e-125
-1.86834e-247
-3.62056e-113
1.00646e-25
0.934425
-1.16084e-21
1.39249e-43
-1.51763e-47
4.04256e-74
1.96874e-15
0.0402114
0.0239388
1.97867e-82
-1.29431e-67
7.87361e-28
1.61174e-94
2.22982e-181
-4.65669e-114
1.06705e-13
-3.32167e-102
2.26883e-57
-9.91562e-90
5.096e-40
4.01913e-08
-9.53651e-95
-8.76932e-114
3.106e-10
2.19808e-14
-2.22822e-92
1.76326e-137
-9.35807e-49
0.00137026
3.436e-25
4.24445e-22
-3.33378e-51
3.00847e-55
0.0727249
2.22037e-78
-9.85085e-22
-3.8998e-124
1.86445e-12
1.49992e-11
-7.54799e-166
-6.8958e-137
90.1592
-1.061e-115
9.51782e-72
4.6239e-27
-1.42231e-105
-1.59728e-103
-6.86852e-91
-3.38163e-117
-2.67474e-220
1.62521e-16
1.7755e-05
-6.91618e-139
0.0185898
2.40498e-80
-3.47388e-118
1.64674e-12
4.7084e-09
3.08397e-26
-4.91216e-83
-2.47862e-113
-5.96846e-44
153.921
-7.00595e-102
3.00934e-139
-7.22011e-145
-5.08688e-102
3.3103e-58
7.75203e-28
-8.80953e-105
-3.67923e-77
8.02568e-123
7.89036
8.95497e-09
2.41749e-38
-4.00411e-38
7.9022e-79
-3.65941e-118
2.44673e-15
1.49358
-1.19164e-71
-1.33116e-144
-1.12193e-119
1.62432e-13
-4.68452e-105
-2.02564e-125
4.39369e-08
-4.50131e-84
-9.89337e-114
118.641
1.32706e-05
13.6022
6.05222e-15
-1.46852e-104
9.50848e-12
2.29889e-10
0.185835
1.07637e-92
3.07054e-27
3.5446e-218
0.130416
7.51742e-242
-1.62778e-94
1.00453e-78
-3.08826e-143
1.18687e-39
-2.55228e-92
-4.91901e-103
5.00906e-94
7.34092
4.79232e-14
1.40055e-35
-1.13486e-112
1.4731e-28
20.496
1.03896e-08
2.15218e-42
-5.53144e-50
-6.27744e-96
1.80846e-82
-5.90641e-140
1.91922e-106
-4.51161e-137
-3.18282e-115
-1.02904e-42
9.26562e-15
3.38185e-16
0.352566
0.000116059
1.52396e-08
9.44342e-24
0.132305
-5.41107e-127
4.24885e-05
-5.16777e-120
0.00168409
5.16055e-09
2.38206e-34
-6.16885e-104
6.34781e-34
4.04675e-22
7.69705e-62
92.6736
2.00121e-12
0.409934
-1.03253e-116
1.22703e-09
3.63085e-07
8.85352e-10
1.68491e-07
1.05197e-10
-1.81769e-113
1.17619e-95
4.88084e-38
-4.40937e-108
5.07282e-28
-2.14906e-98
4.22508e-37
4.00541e-167
-2.26835e-88
6.49559e-20
8.67551e-29
-4.4376e-132
-2.17533e-46
0.977817
88.1802
-3.71906e-144
1.03706e-48
3.79262e-72
1.28712e-10
7.47273e-29
5.30316
4.81538e-05
1.0369e-94
4.53729e-38
2.72408e-07
-8.6751e-24
6.42946e-06
4.82877e-53
1.05506e-11
2.6872e-133
0.212007
2.09756e-08
1.13442e-135
1.59272e-07
0.185735
8.20376e-45
4.2754
1.40594e-83
8.83555e-09
1.80612e-76
-8.43516e-149
4.61596e-72
3.12896e-78
0.0904166
0.000728177
0.0422305
-1.25261e-132
7.32757
4.49488e-35
1.09301e-12
-3.93876e-31
7.76051e-40
3.22756e-48
0.0207386
7.17767e-82
4.97538e-91
7.11874e-19
4.57499e-09
1.43899e-27
9.99398e-18
-3.11935e-56
0.0556688
4.26738e-29
3.55585e-28
2.55274e-09
4.38418e-169
8.91783e-08
4.68357e-10
5.12925e-08
3.16448e-74
0.00103407
2.13932e-139
1.03577e-28
1.74541e-39
3.16232e-05
3.83876e-70
7.53701e-20
1.85617e-08
77.6568
-3.28087e-104
1.84599e-33
-1.75674e-46
3.02334e-08
4.9896e-18
-1.39679e-93
1.14421e-36
-2.90542e-141
12.9922
-1.34254e-224
1.31741e-141
1.90992e-186
1.17287e-06
-1.75109e-112
2.56028e-36
8.0085
3.38554e-50
5.21691e-57
-1.00467e-106
2.39311e-176
1.17497e-09
9.55409e-144
-1.72853e-40
4.95026e-12
-3.81265e-45
3.3163e-06
-4.09086e-89
1.65403e-35
1.57248e-07
4.62597e-18
5.93566e-67
90.3304
4.3069e-229
1.53944e-171
-2.41956e-84
228.673
3.64197e-75
1.23335e-68
9.31345e-08
-7.95615e-104
-1.91227e-87
3.30669e-13
1.01491e-05
2.46639e-30
0.00962898
-6.54006e-104
-3.13371e-85
2.69038e-39
1.5795e-44
3.15122e-05
-1.57967e-121
1.27574e-64
-1.08458e-53
-2.45492e-18
7.2948e-58
-1.23123e-133
2.34025e-38
-9.69974e-19
4.69161e-198
2.97428e-193
4.71216e-05
6.12581e-30
9.05876e-05
7.30027e-87
1.10067e-236
-1.43358e-17
1.48677e-06
-4.91205e-125
-1.9872e-100
1.06836e-140
15.4884
6.0675e-198
1.96217e-31
8.28242e-05
-9.50126e-190
8.63724e-175
3.06117e-18
-7.55138e-152
9.03455e-194
8.37919e-38
4.11502e-13
-5.77722e-135
3.4326e-21
-3.08728e-145
1.1007e-07
8.85623e-239
1.45475e-07
6.13144e-13
1.34143e-19
6.04273e-190
1.08702e-14
5.69568
-6.51078e-96
2.74516e-47
2.08408e-153
2.02419e-13
-7.39279e-147
9.6892e-07
3.6562e-09
-9.24377e-82
1.04344e-182
1.74037e-13
7.99751e-14
1.44409e-43
2.62733e-41
3.00705e-16
-3.04352e-150
3.4867e-15
2.59316e-184
1.71323e-05
1.33419e-08
1.79226e-08
4.96772e-19
-7.96604e-23
12.1213
1.67226e-19
5.73457e-40
1.98273e-14
-4.33782e-97
9.94499e-12
3.7165e-16
-7.4773e-43
9.88816e-75
0.102218
1.037e-201
0.0481177
111.59
-3.54774e-107
3.26341e-08
92.5839
4.77184e-34
1.46324e-37
5.83465e-16
-1.92927e-52
-2.25941e-141
7.71066e-08
0.0145265
0.903827
-1.02937e-96
2.74947e-14
0.000472045
4.03094e-14
-6.08204e-115
1.18583e-168
2.58316e-29
0.0231413
8.87899e-09
3.76983e-16
-6.51701e-229
-3.49217e-147
2.33846e-14
-2.84189e-103
4.87023e-41
-4.81733e-99
1.08206e-179
2.68959e-07
1.94361e-81
0.000208802
7.5692e-43
1.00524e-160
1.70559e-168
5.54386e-15
-4.84907e-98
2.746e-33
6.76874e-16
0.874835
-7.22169e-49
-8.87306e-133
2.62757e-06
-1.07877e-94
-6.6587e-143
1.43449e-63
1.10148e-13
3.27985e-94
8.79152e-14
6.72496e-43
220.435
1.4438e-14
-3.94352e-125
0.00010328
9.71742e-186
5.99303e-09
1.65854e-35
7.90237e-06
0.00497561
-4.39871e-44
0.00016509
3.7904e-159
1.2725e-08
6.58074e-120
8.25469e-50
3.82114e-05
1.23898e-26
1.41863e-05
0.0180519
-1.34077e-19
1.47411e-07
2.60862e-06
-7.17742e-130
-1.48608e-144
1.32214e-184
0.000211718
-4.41195e-24
-2.65555e-128
1.92807e-07
2.06188e-05
3.08364e-35
1.04078e-12
6.7701e-51
-1.78703e-33
0.00314789
6.37406e-71
1.23236e-27
4.02243e-32
-2.85089e-218
9.38766e-217
-1.51646e-130
-1.18021e-96
4.63722e-42
4.22809e-162
2.78252e-82
-9.22163e-104
-2.1752e-61
1.77907e-16
-1.23524e-113
1.50529e-06
2.2197e-240
2.38727e-11
4.50004e-06
-1.57562e-124
5.63483e-05
3.14698e-12
7.1354e-06
4.71236e-57
1.66713e-16
-1.79061e-105
6.33895e-36
1.25478e-45
4.71706e-170
4.1146e-119
-1.23657e-89
-5.07463e-123
2.25839e-189
3.4959e-54
5.48088e-191
-2.52219e-30
2.54216e-22
0.0728005
1.07099e-163
2.16518e-60
1.56868e-160
-1.42818e-102
2.27954e-21
1.82901e-62
-3.23425e-126
122.391
2.73701e-14
4.31417e-30
3.75434e-58
5.75538e-15
2.47267e-23
2.1815e-60
1.49107e-17
2.36463e-13
-4.10458e-103
6.31014e-186
-1.07656e-79
2.00554e-07
-9.56616e-144
-6.9058e-131
1.09092e-13
2.40666e-108
-1.40502e-103
1.0424e-70
-1.92645e-133
0.00119888
4.17624e-162
-1.9909e-132
2.01856e-19
7.17131e-18
6.42994
3.59997e-13
-1.8775e-56
-5.23433e-126
2.01937e-16
-1.5606e-127
5.43484e-26
8.05482e-45
5.50144e-104
6.08652e-06
-1.38959e-194
2.79861e-21
2.09336e-52
9.60233e-15
-3.76887e-42
1.05549e-194
3.79369e-105
1.06307e-238
3.09544e-24
-8.89906e-146
9.48026e-19
2.77653e-41
-7.57329e-87
-5.9001e-55
4.27147e-37
1.38607e-187
7.72941e-21
4.04983e-21
-1.3899e-97
3.17052e-19
1.31931e-07
5.87965e-178
2.99252e-37
2.21731e-11
7.20694e-13
5.26541e-73
4.29068e-40
7.68607e-39
1.50971e-43
2.30649e-70
7.41789e-15
1.08184e-70
-1.45711e-124
-5.38703e-126
0.0621954
2.21702e-08
9.01923e-05
1.77541e-06
-1.38584e-34
3.16358e-20
1.75546e-41
1.48541e-18
-2.62229e-126
3.50609
-2.17857e-102
2.93015e-06
2.59343e-07
-5.04958e-129
-3.90868e-25
1.04036e-08
7.50804e-06
1.15539e-39
8.72354e-26
-3.34708e-128
7.10691e-209
7.68928e-15
5.88151e-186
1.49269e-165
4.13571e-17
-1.63907e-103
-3.67798e-64
-3.23228e-131
-1.09986e-84
7.99311e-15
11.2823
4.40123e-98
-2.98027e-105
2.00184e-08
-2.48037e-37
5.73755e-11
4.12032e-24
1.46455e-25
-3.48584e-105
1.27481e-36
8.34396e-16
8.28922e-17
-7.72868e-30
8.97473e-154
4.33098e-06
4.72995e-30
3.90187e-19
3.67252e-81
-1.97492e-130
1.75308e-16
5.1053e-96
-1.13009e-180
2.70938e-22
2.13093e-08
-3.35052e-164
1.04488e-20
2.18696e-44
-2.40799e-112
-6.45259e-73
-1.20096e-111
2.63156e-22
-1.88567e-124
-5.56523e-132
2.98064e-41
1.03118e-22
-3.00045e-39
-8.56521e-30
10.2594
-2.10729e-105
1.78657e-59
0.422881
5.61304e-32
-5.07139e-113
3.54623e-31
0.00766926
5.68009e-170
-1.90882e-106
4.03986e-181
2.70576e-25
1.73726e-14
1.83224e-44
1.23535e-192
-1.60349e-76
2.80126e-62
4.24466e-88
2.01294e-09
-2.2591e-99
1.12314e-191
9.88259e-188
2.33133e-27
2.70351e-40
1.80784e-05
-1.05358e-79
-1.31607e-47
4.07718e-28
1.295e-14
-5.98653e-143
8.72089e-24
3.95394e-173
2.03831e-165
4.75206e-194
8.15355e-10
-4.75174e-107
1.13343e-23
1.89624e-21
7.57316e-26
9.86704e-16
7.46714e-27
1.95915e-13
1.56975e-25
2.10102e-100
2.34016e-27
-6.63589e-47
1.18129e-33
3.70737e-21
-2.90293e-105
41.49
7.26122e-17
5.36216e-19
-4.34006e-163
1.59036
3.24493e-15
6.20731e-17
-5.49228e-31
1.97126e-06
1.06915e-61
1.61117e-103
-5.45913e-86
7.05007e-88
1.0332e-82
6.24712e-18
1.4388e-21
-7.07158e-113
1.85978e-24
1.5618e-89
1.90819e-82
7.19876e-50
-3.10492e-45
1.98885e-67
3.73622e-55
-5.31321e-44
2.75193e-23
1.38946e-25
2.81747e-46
-1.64518e-184
9.36954e-89
-1.01181e-97
7.93303e-11
-4.04706e-145
-6.03825e-110
7.18245e-25
1.76128
-9.89639e-124
2.67172e-05
-1.19979e-127
1.35462e-96
1.00314e-38
1.92904e-28
4.26216e-33
2.15558e-142
1.92093e-18
3.12392e-21
2.01323e-11
8.01372e-164
1.32597e-23
2.43567e-40
2.85964e-51
1.22479e-192
-1.75356e-228
3.16672e-27
4.45503e-40
3.54496e-58
54.3516
8.7109e-23
1.09644e-31
-9.76802e-25
5.69032e-42
3.76147e-11
-1.37929e-104
4.1308e-45
6.85261e-73
-1.83131e-85
0.0106256
4.27153e-22
2.21199e-21
8.57017e-35
-1.20284e-136
2.25893e-17
8.35082e-17
0.000222572
-1.88234e-83
9.72137e-32
0.000223168
8.32408e-05
-3.18674e-129
8.49502e-05
5.82056e-49
22.9254
4.37936e-178
3.21904e-24
2.30959e-35
3.49422e-199
1.80255e-14
8.50223e-63
1.45735e-76
1.44968e-08
0.001461
5.74603e-05
1.13223e-75
3.50661e-26
-5.46892e-178
-1.39872e-97
4.64713e-06
2.92252e-30
1.23719e-74
7.1002e-18
2.2868e-22
3.15738e-27
1.8878e-38
3.06483e-36
1.54468e-21
0.00338887
-5.84305e-136
5.11911e-38
6.93616e-45
1.44349e-27
2.38245e-07
7.26088e-23
7.75408e-32
3.83892e-63
2.98702e-181
3.36898e-26
1.79609e-30
1.22784e-20
-4.30287e-140
5.23879e-55
2.61156e-23
5.65797e-24
-5.69294e-24
8.27507e-20
1.15473e-69
5.84272e-29
-1.85588e-108
1.37022e-13
4.21522e-51
1.61913e-25
6.71523e-62
2.03491e-74
1.472e-22
1.06609e-55
1.43748e-63
-2.10471e-78
-7.67132e-139
4.07597e-28
8.4829e-50
1.62341e-52
20.2945
0.0106853
-1.025e-107
4.45731e-76
1.20476e-36
1.91347e-39
5.36533e-193
7.92166e-30
-9.79256e-36
5.73582e-30
-3.5062e-179
1.57136e-13
2.63261e-18
9.09306e-16
1.15719e-29
-4.91465e-164
-3.66862e-92
1.52129e-59
1.17886e-28
7.32445e-09
15.3809
-7.75379e-133
4.99639e-66
1.01384e-68
5.29203e-07
0.00054434
0.000114994
1.00151e-50
3.22266e-21
-1.60005e-177
2.15015e-37
-2.29903e-51
-2.53744e-131
3.27988e-22
1.29196e-38
4.83654e-34
5.26756e-20
-5.00144e-70
7.4255e-40
3.32351e-31
-9.88477e-167
-1.64438e-249
6.91683e-42
-2.47853e-64
2.247e-08
1.27225e-45
-7.10565e-23
2.22988e-13
-1.93015e-40
-9.53343e-133
-9.94198e-58
6.8529e-19
-1.73775e-136
0.279786
0.0615974
-6.4933e-111
3.53092e-173
-2.1823e-100
3.06753e-136
6.04664e-201
-2.35721e-60
1.13549e-63
-3.35482e-32
2.84633e-38
3.44357e-30
-1.16607e-47
2.90748e-05
6.31647e-19
9.87928e-32
1.67512e-38
3.56373e-49
1.46157e-34
-4.17004e-165
-1.93086e-72
5.79372e-65
-1.58328e-31
-7.37773e-26
1.7314e-09
1.47865e-203
-1.02663e-26
1.60481e-36
1.55599e-47
1.50113e-22
-7.14651e-40
1.7011e-24
0.00426202
8.15355e-37
3.27049e-18
5.67143e-48
-6.07697e-85
1.77726e-39
2.69009e-34
-3.93372e-137
2.68809e-40
0.0300077
-4.82629e-76
0.000239504
-5.98843e-130
7.71784e-34
-2.34155e-88
7.05153e-71
5.61121e-30
-9.90906e-21
1.1513e-21
2.32969e-68
2.48936e-42
6.54598e-48
6.71075e-18
5.48486e-12
-3.30658e-45
1.6441e-08
7.75119e-200
1.22117e-38
8.02658
1.704e-14
4.91634e-69
0.418194
2.77509e-19
5.77667e-65
-6.17983e-153
1.02826e-10
1.23932e-34
3.45202e-49
1.2503e-35
5.03795e-151
2.00355e-20
4.62204e-77
5.63683e-14
5.69768e-36
2.68984e-31
-6.69662e-30
3.18965e-244
-4.38915e-100
3.02536e-45
6.90835e-84
-6.15437e-87
1.36954e-55
4.52186e-74
8.90235e-61
-9.46935e-25
9.1935e-28
1.76976e-189
1.54151e-15
-2.08126e-98
-1.11506e-164
-1.88785e-27
-7.88419e-125
1.04588e-47
6.48701e-49
-1.00813e-138
-4.53336e-135
9.95946e-82
9.19531e-24
6.19498e-61
2.99125e-32
3.36685e-35
-1.85441e-26
3.12593e-25
7.51658e-50
3.92791e-42
3.60642e-38
-1.6228e-216
2.12206e-55
5.9313e-75
2.09348e-50
0.274192
4.2643e-26
-2.00966e-69
4.23346e-41
-1.28074e-62
1.15419e-64
3.65338e-70
3.86267e-62
3.01934e-65
-2.74614e-32
4.19495e-37
-1.84537e-166
6.49216e-25
-6.39204e-49
4.23991e-23
-4.12066e-155
-5.06931e-28
4.6768e-05
-7.72316e-95
-1.0353e-39
7.49675e-18
-7.87678e-116
2.12679e-26
1.75728e-13
4.08826e-37
-1.06894e-37
1.82909e-14
1.14638e-41
-4.00254e-50
2.09352e-40
1.53364e-24
8.4129e-122
1.23689e-70
1.96768e-207
-2.00727e-98
-2.48257e-153
9.78399e-40
2.00945e-37
4.97286e-26
-5.38893e-42
15.4963
-1.66592e-20
33.8429
8.95748e-36
4.9481e-10
11.1493
3.82852e-16
22.8473
1.14937e-68
1.62788e-41
1.80867e-46
5.34675e-52
5.13976e-45
2.36322e-99
3.9738e-46
3.90897e-90
2.28415e-157
-2.12923e-51
4.22055
1.03027e-41
4.9816e-22
2.20761e-44
5.63925e-83
1.55097e-37
2.99001e-37
4.4599e-108
3.73575e-43
-1.50622e-79
2.08701e-24
6.00315e-40
3.00387e-41
-4.25591e-42
0.462659
1.32209e-07
4.56942e-21
2.02136e-49
73.5461
2.96201e-43
6.70233e-54
2.30208e-28
-3.38547e-29
-2.35156e-58
1.07431e-16
-3.02428e-135
-6.74512e-37
-1.66142e-27
1.07448e-42
-6.25084e-44
6.10839e-74
3.58244e-39
-7.92097e-34
6.77029e-67
9.39676e-28
2.96571e-47
3.34423e-60
-1.54813e-131
1.05633e-52
1.41343e-38
2.9535e-79
2.9694e-48
4.80211e-60
-7.37811e-100
-2.16198e-33
1.3455e-78
6.88247e-16
3.84263e-46
-9.89151e-64
-2.67185e-139
-7.27959e-98
7.20446e-15
5.98317e-39
-1.02696e-199
5.06269e-45
8.36621
1.10031e-22
1.90494e-75
1.83824e-48
0.12009
0.812692
42.7728
1.1556e-84
2.4725e-86
2.04037e-105
2.00993e-59
3.48254e-29
0.00415683
0.0407746
6.2749e-13
4.85725e-19
4.22831e-73
-5.85113e-150
-1.41668e-148
-2.2797e-27
-2.82144e-74
4.31589e-25
-3.3197e-88
1.51642e-05
-4.58565e-86
1.60688e-42
3.17278e-12
-1.30107e-41
7.17849e-21
1.06598e-110
5.57903e-41
-1.77758e-162
6.07864e-18
1.98492e-19
9.5106e-66
-6.24414e-155
2.78623e-67
1.56687e-25
1.50523e-101
-1.63917e-44
0.11718
2.11868e-173
1.41349e-64
-4.83461e-38
-1.46836e-38
2.1513e-47
-2.35272e-114
-1.44809e-101
2.11093e-102
8.69124e-197
-7.35337e-147
4.35884e-61
8.21549e-27
-1.86887e-163
8.70263e-73
-2.2606e-111
150.189
-3.24003e-28
-6.99702e-100
3.01446e-205
1.33658e-23
5.03591e-43
5.28288e-21
-4.16565e-46
4.16339e-43
-2.70765e-157
-1.34713e-98
2.25063e-16
-1.26933e-219
9.88507e-44
1.91071e-28
2.55554e-51
1.13337e-142
3.2995e-38
-8.95409e-192
2.56186e-58
3.51986e-60
4.52985e-100
4.60898e-08
6.12837e-54
6.6131e-64
1.42169e-61
-9.46087e-39
-1.96727e-49
-5.82e-168
1.99057e-202
3.68265e-78
2.49289e-28
5.40333e-40
1.53861e-64
1.26886e-60
1.06851e-16