/*--------------------------------*- C++ -*----------------------------------*\
  =========                 |
  \\      /  F ield         | OpenFOAM: The Open Source CFD Toolbox
   \\    /   O peration     | Website:  https://openfoam.org
    \\  /    A nd           | Version:  7
     \\/     M anipulation  |
\*---------------------------------------------------------------------------*/
FoamFile
{
    version     2.0;
    format      ascii;
    class       volVectorField;
    location    "0.985";
    object      U;
}
// * * * * * * * * * * * * * * * * * * * * * * * * * * * * * * * * * * * * * //

dimensions      [0 1 -1 0 0 0 0];

internalField   nonuniform List<vector> 
12359
(
(0.98109 -0.000223243 -1.53977e-16)
(0.969133 -0.000487436 -4.50737e-17)
(0.999962 -6.93923e-06 -7.4842e-19)
(0.930792 -9.42154e-05 -3.29595e-18)
(0.976062 -0.0013101 -4.11807e-17)
(0.8862 0.0028061 1.01784e-16)
(0.852478 -0.00305623 7.45982e-17)
(0.873584 -0.00125523 7.67195e-17)
(0.802352 0.0143382 -6.76863e-17)
(0.896345 0.00105534 7.0494e-18)
(0.824493 0.0109434 1.02299e-16)
(0.73904 0.0252135 6.28014e-17)
(0.350639 0.0417323 -2.68191e-16)
(0.925542 0.0018284 -7.7517e-17)
(0.939723 -0.00138141 -1.31363e-18)
(0.571999 0.0315951 1.5279e-17)
(0.478414 0.0331128 2.8609e-17)
(0.994647 6.43103e-05 -6.30225e-17)
(0.9952 2.16211e-05 4.25639e-17)
(0.958671 -0.000307425 5.24048e-17)
(0.919763 0.000776436 -4.15477e-17)
(0.774915 0.0190279 -1.18717e-16)
(0.962877 -0.00125156 1.48159e-16)
(0.954846 -0.000401644 6.27833e-17)
(0.96644 -0.000692408 1.28484e-16)
(0.960163 -0.000550417 2.33757e-16)
(0.998662 -7.66335e-05 2.32108e-17)
(0.998851 -4.19573e-05 1.20489e-17)
(0.99594 4.58698e-05 -2.25143e-17)
(0.997957 3.2271e-06 -2.59111e-17)
(0.997436 -6.76306e-05 -1.19923e-16)
(0.999387 2.74793e-05 -3.57292e-18)
(0.999784 -9.85645e-06 -5.07221e-17)
(0.998183 -2.43862e-05 -2.81816e-17)
(0.999895 6.14915e-06 1.80337e-17)
(0.997284 -2.09891e-05 -6.88177e-17)
(0.989006 -0.000135404 -3.89564e-17)
(0.982992 -0.000253283 1.73209e-16)
(0.978428 -0.000781597 5.87701e-17)
(0.985179 -0.000197549 1.52796e-17)
(0.970999 -0.00110535 -2.40927e-16)
(0.984377 0.000160964 -6.17095e-17)
(0.991527 -0.000178006 -6.29608e-17)
(0.992186 -0.000169111 7.16456e-17)
(0.996474 -0.00019042 -4.42296e-18)
(0.996285 -6.70513e-05 2.71575e-18)
(0.996945 -0.000143994 1.38408e-17)
(0.997638 -9.55039e-05 -3.74238e-17)
(0.995609 0.000138482 1.98733e-17)
(0.99842 -8.07758e-05 3.52451e-19)
(0.998982 -4.67889e-05 2.24575e-17)
(0.999144 -7.77326e-05 -5.44994e-17)
(0.999403 -2.63954e-05 3.36105e-17)
(0.994228 -1.52932e-05 1.08882e-16)
(0.999599 2.14536e-05 -4.42699e-17)
(0.999711 -1.86156e-05 -5.9338e-18)
(0.992922 -0.000156922 -2.2228e-18)
(0.999809 -5.27607e-06 -1.32208e-17)
(0.999808 -2.75959e-05 2.45694e-17)
(0.999878 1.96735e-05 -2.74112e-17)
(0.999638 -2.40597e-05 3.10277e-18)
(0.999928 8.99725e-06 3.36239e-17)
(0.999097 -6.74719e-05 -1.44637e-17)
(0.192244 0.0593512 -1.11894e-15)
(0.993519 -7.91802e-05 -3.72063e-17)
(0.90947 -0.00131267 -1.96985e-17)
(0.989715 0.000244533 -2.84188e-17)
(0.999278 -2.22139e-05 -3.62651e-17)
(0.987929 -0.000660655 6.24151e-17)
(0.634885 0.0321081 3.73895e-17)
(-0.000136616 0.00655941 5.63088e-15)
(0.972923 -0.00167791 -4.48328e-17)
(0.999963 -1.87919e-05 -8.59586e-18)
(0.986452 -0.000650113 1.59513e-16)
(0.94838 -0.00275007 2.73462e-18)
(0.999909 5.16073e-06 -3.44894e-17)
(0.999479 -3.03012e-05 4.1727e-17)
(0.999916 -1.8304e-05 3.77967e-17)
(0.989594 -0.000615971 4.15902e-17)
(0.678317 -0.00348103 -6.9595e-17)
(0.918499 0.0566496 3.33555e-17)
(1.00378 0.00282499 5.84732e-18)
(1.00003 5.57352e-06 -5.64768e-19)
(0.998297 0.0123448 -5.51815e-18)
(1.09653 0.143748 1.89978e-17)
(1.02213 0.00187772 2.92372e-18)
(1.00383 0.00260508 3.19752e-18)
(1.00157 -0.000223542 6.03878e-19)
(1.11325 0.0683552 7.75247e-18)
(1.08711 0.150893 1.069e-17)
(0.999966 0.000168791 4.2087e-17)
(0.25129 0.162898 -4.9991e-16)
(1 4.5752e-06 -1.65937e-17)
(0.999697 0.00624874 -1.11328e-17)
(0.999463 0.0113417 9.04619e-18)
(1.03627 0.00141743 -7.79946e-19)
(1.00004 0.00522046 7.34628e-20)
(0.999346 0.00618145 -5.69699e-18)
(0.990805 0.0299628 1.64096e-17)
(0.994189 0.0188273 4.66058e-17)
(0.940227 0.0768087 -7.78351e-18)
(1 2.16925e-05 5.57893e-18)
(1.02102 0.000980736 -2.61575e-18)
(1.25776 0.0947055 -2.9438e-17)
(1.00485 0.00105355 -2.54563e-18)
(1.03368 0.0229274 1.03562e-18)
(1.00023 -7.71368e-05 -4.42766e-18)
(1.09223 0.151142 5.16068e-17)
(1.01839 0.00209357 -1.7447e-17)
(1.0336 0.0214846 5.16569e-19)
(1.0001 0.0050506 1.45397e-18)
(1.00354 0.00271376 -8.55982e-19)
(0.938523 0.0468756 1.36395e-16)
(0.957278 0.0763605 -2.95414e-18)
(0.999014 0.0106342 8.20633e-18)
(1.00358 -0.000177414 6.13171e-18)
(0.953297 0.0789725 -2.12264e-17)
(1.00459 0.00247194 -3.51324e-18)
(1.13329 0.0557309 -4.12433e-18)
(1 1.51503e-05 2.6287e-20)
(1.00004 0.0049749 3.21609e-18)
(0.865294 0.0266589 1.01605e-16)
(1.00176 0.000186994 3.37182e-18)
(1.03902 0.00716726 6.15579e-18)
(1.00482 0.0023256 -1.28586e-17)
(1.00329 0.000769392 9.45647e-19)
(1.00925 0.0938407 7.41133e-18)
(0.998305 0.0125311 2.63181e-17)
(0.999994 1.04629e-05 3.88525e-17)
(1.00485 0.00204083 2.447e-17)
(1.00252 -0.000305474 -1.48929e-18)
(1.05009 0.0194927 2.84524e-18)
(1.05245 0.0184514 -6.54128e-18)
(1.05057 0.0175757 3.27128e-18)
(1.00023 8.46469e-05 3.04603e-18)
(1.03838 0.00676696 2.74023e-18)
(1.00299 0.000379053 8.51972e-18)
(1.03761 0.0077317 1.34886e-18)
(1.00001 9.9856e-05 -5.10712e-17)
(1.00775 0.0922235 2.18648e-17)
(1 2.19857e-05 9.35262e-20)
(0.982398 0.00261817 7.8401e-17)
(1.03139 0.0131815 -7.26781e-18)
(1.00025 -5.2601e-05 -3.13151e-19)
(1.03972 0.0406086 -7.75132e-18)
(0.895161 0.0285099 -5.10799e-17)
(1.00002 2.93e-06 -4.32044e-19)
(1.08792 0.123251 2.56767e-17)
(1.00506 0.00125863 8.05524e-20)
(0.92089 0.0622661 4.07314e-17)
(1.04188 0.00221829 -2.59919e-18)
(0.999994 2.80896e-05 4.53499e-17)
(1.03161 0.0142269 -7.67522e-18)
(1.00182 0.000232715 -4.13474e-19)
(1.00001 -3.93067e-06 9.75075e-19)
(0.577128 1.31386 1.34888e-18)
(0.934244 0.0873622 -1.32236e-18)
(1.04972 0.0198234 1.75746e-18)
(1.00009 0.00536886 -8.11184e-18)
(0.999292 0.000491785 -1.03214e-18)
(1.00282 0.0444587 1.99146e-17)
(0.999247 0.000683645 -1.23768e-17)
(1.04015 0.00571799 -2.79393e-18)
(1.03387 0.0115912 -7.51417e-19)
(1.00004 4.69405e-05 2.52577e-18)
(1.00331 0.000338844 2.30238e-18)
(1.00171 0.0446689 1.39807e-17)
(0.875916 0.012445 -1.18125e-16)
(1.03268 0.0115109 1.66734e-18)
(1.12291 0.0662326 9.09023e-18)
(0.999995 1.93205e-05 -3.73028e-17)
(0.999958 4.73104e-05 -4.13679e-17)
(1.0334 0.00949015 5.0409e-18)
(0.973304 0.0029785 8.16634e-17)
(1.00473 0.00102387 1.12767e-17)
(1.00441 0.0897309 2.22924e-17)
(0.996545 0.000507915 -4.76161e-18)
(0.996621 0.00086701 -4.02534e-17)
(0.934619 0.0470882 4.96872e-17)
(1.00455 0.0869372 2.06714e-17)
(0.936256 0.00610194 3.92288e-17)
(1.00001 3.44082e-05 3.27973e-18)
(0.999977 1.99569e-05 2.7977e-17)
(1.00409 0.00275143 2.58792e-18)
(0.991657 0.0276626 4.61132e-18)
(0.853856 0.105766 3.16299e-16)
(1.00432 0.00575643 3.32082e-18)
(1.00008 0.0107235 -8.76428e-18)
(1.03828 0.00133277 2.19429e-18)
(1.00466 0.00622486 -6.73505e-18)
(0.999665 0.0101144 7.81461e-19)
(1.03591 -0.00117463 -1.73621e-18)
(1.03382 0.00227926 -1.67494e-18)
(1.0019 -0.00014345 1.68839e-19)
(1.03475 0.0205038 -4.70348e-18)
(1.12161 0.0751993 -1.60859e-17)
(1.01493 0.0125182 -4.39503e-18)
(1.00351 0.00586856 7.50387e-18)
(1.03125 0.0158376 -8.44395e-18)
(1.0046 0.00232517 -3.47177e-18)
(0.900162 0.0289202 -7.3431e-18)
(1.03913 0.000591325 -2.82927e-20)
(0.993241 0.0188742 -3.67476e-19)
(1.03376 0.0210182 -2.24067e-18)
(1.03605 0.0379294 -3.68186e-18)
(1.00001 3.02589e-05 -4.45071e-18)
(1.03674 0.0375085 -7.1428e-18)
(0.992233 0.0179755 1.08714e-17)
(1.04191 0.00776285 1.53557e-18)
(1.00565 0.00399008 -7.76475e-18)
(1.00001 3.19632e-05 1.12988e-18)
(1.04589 0.0159683 -4.51354e-18)
(1.04624 0.0161489 -1.01393e-18)
(1.07396 0.11877 -1.16257e-17)
(0.840004 0.0865074 8.69968e-19)
(0.999963 3.10855e-05 1.74688e-17)
(1.00381 0.00596193 -4.26714e-18)
(0.999329 0.010679 2.68245e-18)
(1.00418 0.00588823 -6.87314e-19)
(0.981944 0.00126849 2.16325e-16)
(0.947941 0.0606691 2.33164e-17)
(1.00516 0.00361106 -1.75982e-18)
(1.03873 0.00669105 -4.94648e-19)
(0.464909 0.371148 -1.79573e-16)
(1.00517 0.00263691 -1.16549e-17)
(1.00001 3.91081e-05 -2.77218e-18)
(0.981717 0.00117709 2.72959e-16)
(1.01882 0.000990224 -1.28078e-17)
(1.0012 0.087322 1.95678e-17)
(1.00274 0.00649891 1.17122e-17)
(1.00292 0.00635138 1.04016e-17)
(1.00003 2.74978e-06 4.69746e-19)
(1.03869 0.040685 -5.70657e-18)
(0.993136 0.0236473 4.36896e-18)
(1.0007 0.0102432 -1.11567e-17)
(0.993846 0.0215218 3.9124e-17)
(1.00001 2.5755e-05 -4.83798e-19)
(1.03233 0.0160787 3.11406e-18)
(1.00044 0.01044 -1.67573e-17)
(0.62843 0.255135 8.34762e-17)
(1.00007 3.34185e-05 4.93523e-19)
(1.0232 0.000689373 -8.17639e-19)
(1.0001 0.00755503 -9.85244e-18)
(0.984824 0.164738 4.67563e-17)
(1.00359 0.0492362 -1.09364e-17)
(1.08948 0.126455 3.97633e-17)
(0.999856 4.86208e-05 -1.06144e-17)
(1.04108 0.00735492 -1.47433e-18)
(1.00419 0.00100211 5.91507e-18)
(1.03402 0.00453535 -3.11541e-18)
(1.04343 0.0131566 -7.46306e-18)
(0.985288 0.000272131 1.06597e-16)
(0.99693 0.000683234 -8.85036e-18)
(1.00245 0.00635978 4.06474e-18)
(0.507807 0.434175 1.03559e-16)
(1.24797 0.143432 6.30642e-17)
(0.999989 1.07241e-05 2.33209e-18)
(1.00575 0.00312345 -5.6857e-18)
(0.357534 0.312056 1.62473e-16)
(0.475492 0.0139681 1.01637e-16)
(0.993549 0.0189345 1.00411e-17)
(1.00222 0.0482357 8.30635e-18)
(1.00201 0.0802714 -7.86391e-18)
(1.03463 0.0188578 -3.13827e-18)
(0.972884 0.00114155 2.81133e-16)
(1.34678 0.367882 4.0673e-17)
(1.12161 0.0581549 -2.65543e-18)
(1.00419 0.0491263 -2.17476e-18)
(1.00539 0.00274443 -3.35417e-18)
(1.03777 0.00762216 6.74908e-18)
(1.03344 0.0106855 4.08365e-18)
(0.987972 0.0266772 1.37398e-17)
(1.03288 0.0126484 7.80056e-19)
(1.00238 0.00684065 -2.59534e-18)
(1.00563 0.0032584 -4.71265e-18)
(1.00005 1.67502e-05 -4.32057e-19)
(1.00557 0.00298336 -4.37474e-18)
(1.15883 0.105744 3.34008e-17)
(1.00516 0.0519513 -2.12469e-17)
(1.00035 0.000137049 8.78432e-19)
(0.999998 4.65793e-05 5.08698e-18)
(1.03509 0.0189041 -5.77593e-19)
(1.00708 0.00100511 9.77397e-18)
(0.991074 0.000626172 -1.5101e-18)
(1.0226 -0.00118597 -2.22165e-18)
(1.00001 2.81157e-05 -1.83825e-18)
(0.999147 0.0784872 2.19417e-17)
(1 1.2998e-05 -2.33968e-17)
(1 -1.25793e-05 -1.926e-17)
(0.999465 0.0001118 8.61483e-17)
(1.03925 0.00601516 1.55584e-18)
(1.00408 0.00224972 -1.97535e-18)
(1.41582 0.420402 3.23586e-17)
(1.00025 7.2101e-05 5.01186e-18)
(1.00036 -3.70374e-05 -2.81759e-18)
(1.02159 0.00192621 5.25234e-18)
(1.00431 -0.000470262 3.42452e-18)
(0.944445 0.0707889 7.88828e-18)
(0.998966 0.00958567 -1.75294e-17)
(0.999062 0.000262317 -1.24798e-16)
(0.999967 3.88881e-05 -1.06492e-17)
(1.15162 0.0958315 3.17507e-17)
(1.00334 0.0792382 -2.02402e-18)
(0.999969 5.12498e-05 8.53868e-19)
(1.00377 0.00590142 4.72806e-18)
(0.99977 0.00895239 6.81227e-19)
(1.00449 0.00146796 -5.9799e-18)
(1.00338 0.000827387 6.96127e-18)
(1.00281 -0.000456769 1.46089e-18)
(1.00442 0.000783737 3.52715e-18)
(0.995358 0.00138145 4.65502e-17)
(0.817422 0.0633687 -9.41276e-17)
(1.00481 -0.000709659 -6.96151e-18)
(0.997763 3.46385e-05 2.32865e-16)
(0.98619 0.00115673 1.0087e-16)
(1.02557 0.027602 6.96919e-18)
(1.10342 0.0449088 4.69493e-19)
(1.00526 7.54166e-05 -2.78253e-18)
(0.99012 0.0251139 5.95228e-18)
(0.568525 0.0600474 1.50426e-16)
(0.999995 5.48369e-06 9.43413e-18)
(1.02753 0.0127048 -4.82056e-18)
(1.00048 0.000237578 8.55416e-19)
(1.0145 0.0127798 -4.81483e-18)
(1.00025 4.85541e-05 -4.63474e-18)
(1.00572 0.0010737 3.62555e-18)
(0.795367 0.0395092 8.72163e-17)
(1.0283 0.0145624 1.14495e-17)
(0.827986 0.0892707 -1.5794e-16)
(0.991221 0.00038294 -1.69532e-16)
(1.00066 0.00800403 -6.92919e-18)
(1.03493 -0.000982069 5.27864e-19)
(1.03907 0.00130717 1.72151e-18)
(1.00056 0.00797689 4.96323e-18)
(1.03647 -0.00136802 1.75422e-18)
(1.03459 -0.000924342 -6.59467e-22)
(1.00078 0.000146725 -4.87378e-18)
(0.999572 0.000441674 -1.79485e-18)
(0.999573 0.000367299 -2.5936e-18)
(0.999558 0.000401535 2.94908e-17)
(0.999543 0.000346344 5.09146e-17)
(0.686818 0.279051 1.69886e-16)
(1.00003 4.45219e-05 -7.71658e-19)
(0.940316 0.0757106 -1.07776e-17)
(1.04219 0.00470265 -9.50446e-20)
(0.992924 0.0258431 -1.16741e-17)
(1.03308 0.0134429 -1.80748e-18)
(1.02827 0.0159648 8.94815e-18)
(1.02075 0.00213199 -3.59504e-19)
(1.01364 0.0124223 8.97506e-19)
(1.02898 0.0140161 9.65583e-18)
(1.01351 0.0125221 -1.25158e-18)
(0.991328 0.0267967 -2.03703e-17)
(1.02735 0.0284999 1.71406e-17)
(1.02643 0.0326887 5.04039e-19)
(0.955851 0.0507267 9.74832e-18)
(0.981095 0.00212692 1.42978e-17)
(1.03225 0.0821033 -9.34311e-18)
(0.98278 0.00175233 -8.42048e-18)
(0.982865 0.00120281 2.55526e-17)
(1.03063 0.0162804 -1.13256e-17)
(0.941712 0.0969331 -4.13351e-18)
(1.00314 0.00272907 -2.44102e-18)
(0.9996 9.07166e-05 -3.75084e-17)
(1.01632 0.0117975 4.21359e-18)
(0.999645 4.01803e-05 2.13617e-18)
(1.00339 0.00305397 -2.35369e-18)
(0.744393 0.0200711 2.65129e-17)
(0.125306 0.0964406 -2.46017e-16)
(1.00327 0.00284421 -3.48297e-18)
(0.999981 1.08327e-05 -9.6813e-18)
(1.00019 -7.06073e-06 -4.81269e-19)
(0.999989 2.51996e-05 -1.07179e-17)
(1.02917 0.0132343 3.15343e-18)
(1 2.58277e-05 3.23767e-18)
(0.999996 1.93711e-05 -2.53636e-18)
(1.12029 0.072457 1.03439e-17)
(1.03381 0.0118818 -2.58484e-18)
(1.08241 0.17662 -1.70572e-17)
(1.00152 0.00325619 -6.97751e-19)
(1.03572 0.0136315 1.50138e-18)
(1.00741 0.00114222 1.26784e-17)
(1.00003 0.00882972 -7.85715e-18)
(1.03152 0.0291829 2.42138e-18)
(1.01647 0.0110383 6.63967e-18)
(0.935045 0.00445552 4.46801e-17)
(1.01612 0.0101007 -4.86386e-18)
(1.00299 0.00262669 7.13489e-18)
(1.0004 -1.34115e-06 3.85908e-18)
(1.03387 0.010486 3.54592e-18)
(1.03655 0.0134189 5.29138e-18)
(1.00574 0.000904998 -3.99092e-18)
(0.708105 0.0185566 1.49835e-16)
(1.03189 0.0285901 5.81599e-18)
(1.03951 0.00213964 -3.74106e-19)
(0.998224 0.0351803 -1.45815e-17)
(1.00078 0.0428159 -1.9102e-17)
(0.999987 0.000114057 -6.63902e-18)
(0.420586 0.55559 -1.99197e-16)
(1.03491 0.0829495 1.68861e-18)
(1.00134 0.00356019 3.03571e-18)
(0.971484 0.181108 -1.67778e-17)
(0.984801 0.00127684 -1.29194e-16)
(0.999971 6.53633e-05 4.42934e-18)
(1.00001 2.64075e-05 1.6684e-19)
(0.999988 5.42946e-05 2.74618e-19)
(1.09014 0.174381 -2.3996e-17)
(0.94517 0.0948484 1.18688e-17)
(0.988592 0.0284887 -1.46176e-17)
(1.02835 0.0108258 -6.36485e-18)
(1.04209 0.00353586 6.65829e-19)
(0.999285 0.0116152 -1.5163e-17)
(0.934906 0.00776662 -1.27898e-16)
(0.999076 0.0347968 3.62257e-18)
(1.04685 0.0176819 4.50726e-18)
(1.11695 0.0503809 -1.2845e-17)
(0.711404 0.0419926 -7.24604e-17)
(0.994292 0.0257033 -8.14363e-18)
(0.955026 0.0526092 6.932e-18)
(1.01883 -0.00104344 -7.20795e-18)
(1.02588 0.0372397 -1.80424e-18)
(1.01189 0.0112596 -4.84741e-18)
(1.01638 0.0123761 4.83492e-18)
(0.998285 0.00022272 -1.81378e-17)
(1.01207 0.0112393 2.31907e-18)
(1.03126 0.0124356 -5.52035e-19)
(0.999989 1.62938e-05 -1.19092e-18)
(0.640583 0.00661888 7.40377e-17)
(0.990566 0.00130276 2.22575e-16)
(1.05551 0.00579113 4.47283e-18)
(1.03736 0.0109885 6.93487e-19)
(0.993494 0.00112793 1.42671e-16)
(0.950608 0.0597997 -5.88821e-17)
(1.16197 0.249803 5.30414e-18)
(1.02967 0.0153387 3.30872e-18)
(1.00878 0.0161805 1.32946e-17)
(1.03687 0.0011344 3.22603e-18)
(1.03712 0.0111939 2.76127e-18)
(1.02879 0.033231 -5.27737e-18)
(1.00455 0.00273485 2.9008e-18)
(1.00001 5.10857e-06 -1.03798e-18)
(0.994802 0.0704582 5.77578e-18)
(1.00028 5.81266e-05 -1.02301e-18)
(1.05087 0.019966 3.29378e-18)
(1.00263 0.000152785 5.01968e-18)
(0.966682 0.00290394 2.38493e-16)
(0.962562 0.0410178 1.83631e-17)
(1.01134 0.000731563 -1.11605e-18)
(1.09688 0.114795 -2.53623e-17)
(0.943625 0.071225 -4.04951e-17)
(0.99443 0.0171675 -6.81036e-18)
(1.00101 0.00384591 -6.35057e-18)
(0.57303 0.108663 -3.55985e-16)
(1.00055 -0.000149195 -6.51932e-18)
(1.00151 0.00301743 3.11526e-18)
(1.04286 0.0426166 -1.20664e-17)
(0.999983 2.33745e-05 -6.22512e-17)
(1.00109 0.00399338 -5.89653e-18)
(1.0016 0.00282221 6.60251e-19)
(0.730626 0.222218 -1.46912e-17)
(0.652773 0.476431 -3.12263e-17)
(0.998289 0.0118852 5.45314e-18)
(1.00153 -0.000166399 -4.80704e-18)
(0.93548 0.0331064 2.04297e-17)
(0.999767 0.0426669 -1.40008e-17)
(1.02826 0.0117138 -1.06519e-17)
(1.03176 0.0158478 -4.70739e-19)
(1.03277 0.0113826 -1.19672e-18)
(1.00077 -8.02568e-05 -6.21188e-18)
(0.999996 3.84367e-05 1.94038e-18)
(0.999943 0.0372897 -3.97048e-18)
(0.999987 7.43127e-06 -1.87042e-17)
(0.962913 0.0428072 2.10737e-17)
(1.02783 0.0121401 -8.50348e-18)
(1.02608 0.0355145 -5.63117e-19)
(0.996713 0.000726986 6.61915e-17)
(0.996146 0.0684034 -1.04045e-17)
(1.04528 0.0413451 -8.37301e-18)
(0.998014 0.000108856 -9.50454e-17)
(1.00145 0.0117739 -8.11571e-18)
(1.00589 0.00119259 2.22272e-19)
(0.931925 0.0445957 -9.95616e-19)
(1.04327 0.0435179 -1.95322e-17)
(0.999991 6.43429e-05 -3.15534e-17)
(1.0003 0.0390951 2.04625e-18)
(1.03395 0.00823983 7.04815e-18)
(1.01624 -0.000218288 -2.4735e-18)
(0.999426 0.0404235 -5.20915e-18)
(1.00339 0.000858968 -2.85006e-18)
(0.928781 0.0956273 2.35844e-17)
(1.02777 -0.000749211 -2.49599e-18)
(1.0377 0.00870197 3.5903e-19)
(1.02709 0.033537 4.59238e-18)
(1.00096 -0.000233619 6.86234e-19)
(1.00123 0.0123589 9.89111e-18)
(1.05373 0.0637474 8.40681e-18)
(1.05282 0.0179686 6.0541e-18)
(0.999996 1.81491e-05 6.17585e-18)
(1.01127 0.0164527 6.53875e-19)
(0.986249 0.17859 2.67818e-17)
(1.03863 0.00267826 1.86782e-18)
(0.51441 0.460866 -9.30628e-17)
(1 2.87015e-05 6.81653e-19)
(1.00241 0.000365163 5.92318e-18)
(1.00078 -8.1358e-05 -4.24316e-18)
(1.03217 0.0143226 -1.87981e-18)
(0.994251 0.0191424 1.05462e-18)
(0.995828 0.013462 1.83315e-17)
(1.00292 0.000486956 -3.90798e-18)
(0.998996 0.037249 5.27613e-18)
(1.01743 0.0128565 -3.83214e-18)
(0.972516 0.00445793 -3.23023e-17)
(1.00923 0.00128354 1.17042e-18)
(1.08216 0.0935454 -5.88767e-18)
(1.00029 -2.93855e-05 1.72935e-18)
(1.08663 0.106554 5.50537e-18)
(1.00153 1.26995e-05 6.0987e-19)
(0.624121 0.579253 4.6001e-17)
(1.02894 0.000316562 -3.91644e-18)
(1.05059 0.0657635 2.05583e-17)
(0.999873 3.08848e-05 2.56911e-17)
(0.996989 0.000708618 1.02995e-17)
(1.02599 0.0284993 1.13452e-17)
(1.00391 0.00222802 1.40914e-18)
(0.999154 0.000174469 -3.2003e-17)
(0.992256 0.000247888 -1.07358e-16)
(0.99451 0.020877 7.0994e-18)
(0.994128 0.0201642 -1.65188e-17)
(0.965553 0.159277 2.06192e-18)
(1.03363 0.03334 1.0926e-18)
(1.03418 0.0327179 4.12974e-18)
(1.00001 9.59142e-06 4.32775e-18)
(1.00433 0.00218234 -6.69887e-18)
(1.02782 0.0134151 -8.26449e-19)
(1.05171 0.0169351 -2.42647e-19)
(1 -4.13099e-06 -2.56894e-18)
(1.0003 0.000136805 -6.14257e-18)
(1.03407 0.00964539 1.45592e-18)
(1.00071 3.80532e-06 3.2892e-18)
(0.803698 0.0486017 -7.60028e-17)
(1.16334 0.250656 -4.93435e-18)
(1.07095 0.00273656 1.41643e-17)
(1.00001 3.36605e-06 7.9389e-19)
(1.00658 0.00950771 1.04396e-17)
(1.04387 0.0128408 -4.39664e-18)
(0.995195 0.0146959 7.2675e-18)
(1.00446 0.000806674 -1.99605e-18)
(0.35495 0.662055 1.6803e-16)
(1.00029 2.84067e-05 -8.38021e-18)
(0.929674 0.0773601 -2.94161e-17)
(0.959565 0.0480429 -1.5553e-17)
(1.00713 0.0095741 -8.17579e-19)
(1.00469 0.000854372 -5.80909e-18)
(0.99894 0.000195454 -1.13754e-16)
(1.01089 0.000721338 4.9131e-18)
(1.04263 0.00400948 -6.12737e-19)
(1.01719 0.0088424 -6.15554e-18)
(0.996955 0.0115735 1.06312e-17)
(0.999996 6.12284e-06 1.15075e-18)
(0.999984 2.3386e-05 4.38439e-18)
(0.994727 0.0176918 1.14294e-18)
(0.996457 0.00144255 -6.40203e-17)
(0.992479 0.0603374 1.29023e-17)
(1.03244 0.0141871 1.49501e-18)
(0.999363 -2.50295e-05 -9.64738e-17)
(1.00033 0.000182497 2.30639e-18)
(1.02737 0.030528 1.09105e-17)
(0.666256 -0.0111271 8.99587e-17)
(0.997793 0.000213441 -2.81913e-16)
(1.04673 0.0173547 -1.31774e-18)
(1.00017 -1.93336e-05 3.25677e-18)
(0.996216 0.0116456 8.38139e-18)
(0.951264 0.0824392 4.05739e-17)
(1.04097 0.00162462 -9.11552e-19)
(1.04305 0.0128943 -1.79874e-18)
(0.951744 0.0541542 3.41574e-17)
(1.00255 0.0192722 1.06058e-17)
(1.0421 0.00600846 1.73533e-18)
(1.00001 3.61851e-05 1.17489e-18)
(0.999914 1.78659e-05 -1.09168e-16)
(1.04265 -0.0014262 -1.01354e-18)
(1.01082 0.00986782 2.51931e-18)
(1.0029 0.0197441 7.53942e-18)
(1.011 0.00978611 -4.99398e-18)
(0.999997 4.3598e-05 1.74246e-18)
(1.00035 0.000193964 1.4459e-18)
(1.00362 0.000739676 4.8968e-18)
(0.999652 0.0310396 -1.19822e-17)
(1.04221 0.00771785 2.07511e-18)
(0.943473 0.0397414 -1.44205e-17)
(0.990024 0.000787477 -7.73595e-18)
(0.929565 0.0369528 8.86916e-17)
(1.03077 0.0148818 -4.94019e-18)
(1.00846 0.017697 4.29108e-18)
(0.936593 0.0448807 1.21491e-16)
(0.985589 0.0216279 -2.87267e-17)
(1.0521 0.00387307 3.17549e-18)
(1.03318 0.0132065 1.79746e-19)
(0.984897 0.0214826 2.82974e-18)
(0.994002 0.0587467 -3.29791e-18)
(0.999897 8.71513e-05 3.58853e-17)
(1.01003 0.0664956 9.9823e-18)
(1.02684 0.0278192 9.30171e-18)
(1.00002 -1.33253e-05 1.80607e-18)
(0.999995 7.99522e-06 3.35151e-18)
(1.0007 6.56567e-05 2.39716e-18)
(0.999761 0.000312791 -1.70173e-17)
(1.06254 0.0720974 -1.34362e-17)
(1.01057 0.0171359 4.97316e-18)
(1.01401 -0.000285477 1.57721e-18)
(0.941598 0.0435643 -8.49223e-17)
(0.992123 0.000386018 -8.7721e-17)
(0.79081 0.018468 -3.33023e-18)
(1.03953 0.00266801 1.56834e-18)
(1.04183 0.00443578 -1.67281e-18)
(1.0039 0.000840494 -9.97151e-18)
(1.0497 0.0422857 -4.94922e-18)
(1 4.03198e-05 2.46617e-19)
(0.998213 0.0305252 -8.78379e-18)
(1.00052 0.00369014 -3.17717e-18)
(0.935358 0.11413 -4.17971e-17)
(0.932471 0.0502729 -1.27777e-16)
(1.00201 0.0169034 -1.08672e-17)
(1.01737 0.012081 -1.48557e-18)
(0.421454 0.674121 2.00061e-16)
(1.03096 0.0132405 -6.76762e-18)
(1.04224 0.0640279 9.38887e-18)
(1.00962 0.0130014 5.70234e-18)
(0.97729 0.145985 4.43407e-17)
(1.15149 0.207328 -2.66801e-18)
(1.00104 -7.07768e-06 1.75744e-18)
(0.998243 0.00348822 2.38612e-19)
(1 1.45604e-05 1.5435e-18)
(1.05762 0.0679779 -6.88824e-18)
(0.998442 0.00317604 -1.06799e-17)
(1.01646 0.00937731 -8.54117e-18)
(1.09776 0.112775 -2.31577e-18)
(1.00032 0.0001304 -4.06342e-18)
(0.972314 0.00341694 -5.86118e-17)
(0.991199 0.0522693 6.7027e-18)
(1.00709 0.0153871 2.30053e-18)
(0.997622 0.000224375 -3.59866e-16)
(1.00182 0.0172776 -2.07407e-17)
(0.999382 0.000842183 1.4326e-17)
(0.99494 0.0157756 3.73302e-18)
(0.99938 0.000616341 -4.74214e-19)
(0.999395 0.000961073 -1.10862e-18)
(0.995581 0.0136753 1.85533e-17)
(1.03892 0.00712903 -5.3941e-19)
(1.03512 0.00864328 3.45343e-18)
(1.00689 0.0168783 1.56717e-17)
(0.659557 0.0459586 6.43894e-17)
(1.04029 0.00405943 1.99125e-19)
(0.270724 0.26169 -1.60588e-16)
(1.03003 0.0151515 -2.36751e-18)
(1.0227 0.000911703 -5.69784e-18)
(0.995193 0.0149033 -1.41595e-17)
(1.02893 0.0156253 3.69646e-18)
(0.99216 0.0268288 3.91629e-18)
(1.0368 0.000429184 -1.55887e-19)
(0.56675 0.379335 -1.49182e-16)
(0.94956 0.0353755 -5.03116e-18)
(0.992827 0.024807 -1.60855e-17)
(1.00453 0.0234155 -1.88568e-18)
(0.9951 0.00105397 5.20725e-18)
(0.996366 0.00103204 1.96122e-17)
(1.02618 0.0304698 -5.03389e-18)
(0.999997 2.60806e-05 1.52389e-18)
(1.06321 -0.0185911 -1.47124e-17)
(0.999526 2.86716e-06 3.01337e-17)
(0.946885 0.0388846 1.47983e-17)
(0.998359 0.0750757 1.29607e-17)
(1.06185 0.0647987 -7.98297e-18)
(1.03987 0.0273609 -1.84028e-18)
(1.03533 0.0155482 2.2732e-19)
(0.992388 0.0507824 6.3711e-18)
(1.00922 0.0131191 1.54671e-17)
(1.03903 0.0273634 2.99952e-18)
(0.971452 0.0312041 8.27866e-19)
(1.04233 0.0641739 -4.82367e-18)
(1.00799 0.0224668 -2.03287e-18)
(1.04473 0.0417919 -1.67179e-17)
(1.00534 0.0234411 -1.23526e-17)
(1.00001 2.23258e-05 -1.42109e-18)
(0.998622 0.0263792 -3.35742e-18)
(0.634217 0.0545438 8.54815e-17)
(0.972678 0.136031 -7.38528e-18)
(1.00654 0.00554327 -8.20343e-20)
(1.00005 -3.46224e-05 -2.59549e-19)
(0.999319 0.000167802 -1.09512e-16)
(0.994522 0.00772555 3.52495e-18)
(0.968149 0.00324536 -2.21772e-16)
(1.03566 0.00781783 3.02608e-18)
(1.02829 0.00192551 -2.97394e-19)
(1.00079 3.1013e-05 -9.22807e-19)
(1.00494 0.00699273 9.21846e-18)
(0.993305 0.0278512 5.00953e-18)
(1.00652 0.00541643 9.33441e-19)
(1.00921 0.00102333 4.06574e-18)
(1.04613 0.0367182 4.65254e-18)
(0.993753 0.00141129 -3.50168e-17)
(0.991339 0.0352592 2.94598e-18)
(1.03731 0.0165415 1.19814e-17)
(1.00512 0.00659471 -6.06523e-19)
(1.008 0.00684484 5.92884e-18)
(0.941299 0.0637678 2.39315e-17)
(1 -1.29429e-05 2.71654e-19)
(0.993382 0.00549417 6.63086e-18)
(1.29288 0.188185 3.45589e-17)
(0.999896 3.34533e-05 1.18575e-16)
(1.04012 0.0395995 -6.17381e-18)
(0.996568 0.0733481 1.73913e-17)
(1.00776 0.00691027 5.77037e-20)
(0.95957 0.0459303 6.07834e-18)
(1.03682 0.0157187 9.24584e-18)
(0.997818 0.0262612 -1.45159e-17)
(1.02928 0.03536 1.59054e-18)
(0.999622 0.00321949 7.20543e-18)
(0.936998 0.0373173 -4.13924e-17)
(1.00541 0.000180822 -3.3696e-18)
(1.03396 0.00249513 -4.68375e-19)
(1.0358 0.0160299 8.08328e-18)
(0.937767 0.0422021 2.89605e-17)
(0.999786 0.00321527 1.63154e-18)
(1.04288 0.00527849 4.08495e-18)
(1.05407 0.0242016 -1.0443e-17)
(0.991992 0.0347129 9.85003e-18)
(1.00612 0.0135786 -1.16124e-17)
(1.00469 0.00309227 -2.81311e-18)
(1.01182 0.0660552 9.78694e-18)
(0.789662 0.203378 -6.3794e-18)
(0.995561 0.000935855 -4.06596e-18)
(0.999959 3.74316e-05 -5.21413e-17)
(0.993801 0.0255656 -1.14172e-18)
(0.999995 -1.70016e-06 -8.87014e-18)
(1.14878 0.208954 2.74095e-17)
(1.0064 0.0233668 1.00327e-17)
(1.03658 0.0900781 1.02861e-18)
(1.01616 0.00767129 -8.86678e-18)
(1.028 0.00195171 1.0894e-18)
(0.252365 0.136651 -9.57478e-16)
(1.00649 0.0161786 -6.69865e-18)
(1.08582 0.206207 -4.4042e-17)
(1.03538 0.00794314 3.79066e-18)
(0.982644 -0.0015423 1.38802e-17)
(1.0286 0.0131145 -5.09429e-19)
(0.996931 0.0121034 1.34023e-17)
(1.00656 0.0146345 -4.99895e-19)
(1.01581 -0.000658015 -3.0962e-18)
(1.09107 0.0995019 -1.83233e-17)
(1.08313 0.0945506 -1.33476e-17)
(1.0011 -0.000283339 -5.08923e-18)
(1.00159 0.000358086 -2.25494e-18)
(0.925906 0.0461153 -2.20634e-16)
(1.00213 -0.000248218 1.2849e-18)
(0.685787 0.396543 3.47946e-18)
(1.02804 0.0329704 -7.61721e-18)
(0.966626 0.167445 2.4656e-17)
(1.00428 0.0030867 -4.34886e-18)
(0.0786125 0.302776 -4.68077e-16)
(1.12696 0.233841 3.28872e-18)
(1.00588 0.0228848 -1.18838e-17)
(0.999993 9.49196e-06 3.14046e-18)
(0.999898 0.00280497 8.07641e-19)
(0.953958 0.0304704 3.11835e-17)
(0.994246 0.00813303 -5.77172e-18)
(0.989434 0.000192407 -4.32182e-17)
(0.996937 0.00986956 -1.68015e-18)
(1.03153 0.0127249 9.52126e-19)
(0.971983 0.0308116 1.77536e-18)
(1.08205 -0.0209255 -8.73534e-18)
(0.631363 0.0321492 -1.82917e-16)
(1.00083 3.93445e-05 -7.48882e-18)
(0.965771 0.036515 2.54653e-17)
(1.03348 0.0306945 -2.50318e-18)
(0.927157 0.056691 2.09786e-17)
(1.00469 0.0129944 7.22929e-18)
(0.929846 0.0779539 1.17876e-17)
(1.0375 0.00921806 1.00926e-18)
(0.952255 0.035359 -8.8674e-18)
(0.997322 0.000641818 1.67686e-17)
(1.00006 -1.06032e-05 -7.37234e-19)
(1.0381 0.0255116 -1.94001e-18)
(1.04053 0.026698 -1.20023e-18)
(1.02973 0.00160133 -2.88326e-18)
(0.924547 0.0392283 -1.43259e-17)
(1.03429 0.0905432 -3.47501e-18)
(1.02153 0.000713765 -4.78274e-18)
(0.997304 0.024987 -7.04499e-18)
(1.00043 0.00410603 -3.71903e-18)
(1.00974 0.00873333 2.476e-18)
(0.789619 0.027723 -1.71143e-16)
(1.00968 0.00898841 -9.30877e-18)
(1.03504 0.0220298 -6.34019e-18)
(0.982265 0.0415647 -5.56653e-18)
(1.02698 0.0101878 -2.06909e-18)
(1.01238 0.000144363 1.46783e-17)
(0.996327 0.0116653 -8.92503e-18)
(1.05292 0.0228373 6.54096e-19)
(1.01546 0.00737485 -1.2473e-19)
(1.00515 0.0135129 1.55999e-17)
(1.07856 -0.0294187 -5.38742e-18)
(0.990932 0.0304031 -6.48581e-18)
(1.02051 0.000731414 6.10666e-18)
(0.79767 0.336124 -9.48421e-17)
(1 5.94748e-06 -7.03054e-19)
(1.01568 0.00830532 6.04927e-19)
(0.99895 0.0216316 1.67153e-18)
(0.992215 0.00725439 -8.07708e-18)
(1.00324 0.000287841 1.95514e-17)
(0.998099 0.0244937 -1.36932e-17)
(1.00002 -6.65718e-06 -1.44164e-18)
(1.04401 0.10785 -1.30757e-17)
(1.00574 0.000909459 -4.16627e-18)
(0.971918 0.00466066 3.22043e-17)
(1.03571 0.0350577 6.32211e-18)
(0.950724 0.0496248 9.70641e-18)
(1.01697 0.0102419 -1.1321e-18)
(1.01637 0.00838116 -7.91892e-18)
(1.03688 0.0250154 5.05894e-18)
(1.06119 0.116001 6.04883e-17)
(0.999853 6.62104e-05 -2.20734e-17)
(0.992838 0.000709838 1.75152e-17)
(1.02221 0.000227056 -5.14648e-18)
(1.10089 0.202305 9.83538e-18)
(1.04027 0.0262314 8.42076e-19)
(0.999868 0.00303246 1.56352e-18)
(0.239978 0.100286 -1.02853e-15)
(1.00005 1.44426e-05 -9.41036e-19)
(1.00494 0.00145614 -1.24379e-18)
(0.690268 0.00793578 -5.28739e-17)
(0.994591 0.00509867 3.45002e-18)
(0.999631 0.00333991 -1.58761e-18)
(0.999509 0.00363865 1.04312e-17)
(0.983359 0.0386401 -1.62367e-17)
(0.958443 0.0288362 5.27488e-17)
(0.999871 2.84779e-05 -8.54485e-17)
(0.993462 0.00642327 -4.77798e-19)
(0.937906 0.0674919 4.29796e-18)
(0.998195 0.0214596 -1.38194e-17)
(0.995945 0.0179091 5.95585e-18)
(0.996594 0.00962772 1.34189e-17)
(1.00107 5.37305e-05 -4.5116e-19)
(0.957678 0.0318139 -9.3618e-17)
(1.06541 0.0609438 -1.4383e-17)
(0.994985 0.0160743 1.03581e-17)
(0.927895 0.0321642 4.51462e-17)
(1.03476 0.00719646 4.53412e-18)
(1.03667 0.00489881 9.11675e-19)
(1.03931 0.106488 -1.71013e-17)
(1.03247 0.0309772 2.10147e-18)
(0.996481 0.00960369 -5.68714e-18)
(1.00511 0.00161197 -6.05995e-18)
(1.08417 0.105522 1.20039e-17)
(1.03999 0.0063713 -1.7396e-18)
(0.975187 0.0255073 3.06856e-18)
(1.00074 0.00406904 -9.36508e-18)
(0.999725 0.000216096 2.86098e-18)
(0.927265 0.0129856 -2.82947e-16)
(1.04913 0.0430197 -1.46418e-18)
(1.01455 0.00675237 2.25615e-18)
(1.0106 0.0505721 2.54438e-18)
(1.01491 0.00777717 4.99387e-18)
(0.997065 0.0100258 3.85338e-18)
(1.00565 0.00460021 -7.67448e-18)
(0.964749 0.0362421 -2.70432e-17)
(0.80983 0.0206114 -3.56241e-17)
(0.306021 0.454672 1.72013e-16)
(0.966326 0.039441 1.48669e-17)
(0.998862 0.018431 3.38447e-19)
(1.00538 0.00462864 8.63018e-20)
(0.968899 0.0341061 -2.24447e-17)
(0.567166 0.315779 9.13728e-17)
(0.935548 0.0326869 -1.93678e-16)
(0.9999 0.00303816 -2.38397e-18)
(1.04727 0.0356577 3.06404e-18)