/*--------------------------------*- C++ -*----------------------------------*\
  =========                 |
  \\      /  F ield         | OpenFOAM: The Open Source CFD Toolbox
   \\    /   O peration     | Website:  https://openfoam.org
    \\  /    A nd           | Version:  7
     \\/     M anipulation  |
\*---------------------------------------------------------------------------*/
FoamFile
{
    version     2.0;
    format      ascii;
    class       volScalarField;
    location    "19.5";
    object      p;
}
// * * * * * * * * * * * * * * * * * * * * * * * * * * * * * * * * * * * * * //

dimensions      [1 -1 -2 0 0 0 0];

internalField   nonuniform List<scalar> 
2413
(
1.0401
1.03971
1.03998
1.03969
1.03907
1.03934
1.03941
1.03854
1.03836
1.03832
1.03759
1.03683
1.0368
1.03686
1.03637
1.03619
1.03625
1.03603
1.03597
1.03575
1.03561
1.03595
1.03646
1.03702
1.03791
1.03943
1.04177
1.04512
1.04915
1.05222
1.05297
1.05296
1.0529
1.05262
1.05134
1.04981
1.04815
1.04547
1.04197
1.03917
1.03696
1.0363
1.03625
1.0363
1.0368
1.03742
1.0371
1.03692
1.03724
1.03706
1.03636
1.0363
1.0358
1.03467
1.03436
1.03344
1.03173
1.03095
1.02964
1.02784
1.02748
1.02703
1.02593
1.02546
1.02487
1.02453
1.02514
1.02655
1.02789
1.02945
1.03164
1.03443
1.03916
1.04771
1.06082
1.06811
1.06981
1.07038
1.07031
1.06927
1.06757
1.06508
1.06171
1.05791
1.05391
1.04958
1.04552
1.04201
1.03928
1.03724
1.03562
1.03435
1.03367
1.03318
1.03276
1.00972
1.01394
1.01578
1.01817
1.0214
1.02202
1.0227
1.02607
1.02745
1.02749
1.03
1.03166
1.03136
1.03295
1.03488
1.03446
1.03509
1.03727
1.03737
1.03674
1.03822
1.03962
1.03925
1.04001
1.04105
1.04002
1.0397
1.04067
1.04033
1.04007
1.04023
1.03982
1.04001
1.04013
1.0395
1.03938
1.03933
1.03859
1.03803
1.03815
1.0378
1.03701
1.03718
1.03717
1.03634
1.03605
1.0358
1.0351
1.03441
1.03424
1.03428
1.0341
1.03408
1.0344
1.03446
1.03468
1.0347
1.03434
1.03439
1.0349
1.03567
1.03683
1.03863
1.04121
1.04495
1.04951
1.05337
1.05465
1.0548
1.05476
1.05455
1.05331
1.0518
1.05023
1.04774
1.04422
1.04134
1.03909
1.03819
1.03802
1.03807
1.03858
1.03907
1.03885
1.03889
1.0393
1.03912
1.03878
1.03887
1.03847
1.0375
1.03713
1.03623
1.03484
1.0341
1.03291
1.03115
1.03067
1.03034
1.02951
1.02894
1.02823
1.02781
1.02816
1.02875
1.02897
1.02991
1.03196
1.0344
1.03878
1.04693
1.05973
1.06772
1.06976
1.07036
1.07045
1.06963
1.06818
1.066
1.06279
1.05889
1.05473
1.05028
1.04607
1.04256
1.03971
1.03735
1.0353
1.03387
1.03311
1.03262
1.03221
1.0071
1.01129
1.01351
1.01554
1.01853
1.01941
1.01967
1.02251
1.02429
1.02433
1.02644
1.0285
1.02831
1.02972
1.03179
1.03163
1.03261
1.03474
1.03461
1.03445
1.03645
1.03708
1.03684
1.038
1.03825
1.03692
1.03684
1.03804
1.03785
1.03686
1.03709
1.03747
1.03721
1.03738
1.0374
1.03697
1.037
1.03686
1.03633
1.03658
1.03658
1.036
1.03614
1.03618
1.03529
1.03502
1.03494
1.03431
1.03387
1.0336
1.03332
1.03301
1.03299
1.03319
1.03303
1.03301
1.03319
1.03327
1.03367
1.03417
1.03473
1.03567
1.03743
1.04029
1.0444
1.04947
1.05418
1.05618
1.05643
1.05639
1.05629
1.05512
1.05354
1.05194
1.04959
1.04618
1.04318
1.04102
1.03946
1.03899
1.03898
1.03941
1.03963
1.03946
1.03975
1.04016
1.04001
1.04011
1.04026
1.03977
1.03919
1.03895
1.03797
1.03677
1.03591
1.03465
1.03313
1.03196
1.03122
1.03027
1.02933
1.02858
1.02814
1.0282
1.0287
1.02926
1.03012
1.03172
1.03357
1.0378
1.04579
1.0583
1.06679
1.06914
1.06976
1.06978
1.06904
1.06787
1.06619
1.06362
1.06008
1.05586
1.0512
1.04677
1.04316
1.04017
1.03752
1.03509
1.03343
1.03266
1.03214
1.03171
1.00536
1.00862
1.0109
1.01277
1.01602
1.01743
1.01746
1.01986
1.02195
1.02191
1.02342
1.02553
1.02547
1.02654
1.02894
1.02921
1.03022
1.03225
1.03218
1.03233
1.03435
1.03454
1.03468
1.03575
1.03525
1.03427
1.03497
1.03583
1.03515
1.03432
1.03469
1.03492
1.03438
1.03459
1.03499
1.03451
1.03455
1.03478
1.03427
1.03446
1.03475
1.03439
1.03457
1.03468
1.03391
1.03345
1.03337
1.03273
1.03243
1.03249
1.03209
1.03145
1.03126
1.03125
1.03088
1.03073
1.03097
1.03129
1.03182
1.03244
1.03317
1.03438
1.0364
1.03938
1.04366
1.0491
1.05429
1.05698
1.05737
1.05723
1.05728
1.05676
1.05527
1.05344
1.05109
1.04785
1.04453
1.04239
1.04038
1.03948
1.03939
1.0397
1.03961
1.03951
1.04007
1.04029
1.04023
1.04057
1.04081
1.04041
1.03987
1.03954
1.03859
1.03749
1.03654
1.03526
1.03375
1.03255
1.03161
1.03057
1.02948
1.02846
1.02768
1.02758
1.02804
1.02863
1.02953
1.03121
1.03304
1.0375
1.04541
1.05682
1.06602
1.06874
1.06945
1.06987
1.06965
1.06877
1.06717
1.06482
1.06174
1.05771
1.05287
1.048
1.04383
1.04035
1.03734
1.03477
1.03326
1.03238
1.03186
1.03147
1.00475
1.00748
1.00972
1.01095
1.01352
1.01489
1.01485
1.01656
1.0192
1.01964
1.02102
1.02328
1.02349
1.0241
1.02651
1.02715
1.02791
1.02985
1.02998
1.03028
1.03208
1.03196
1.03229
1.03309
1.03228
1.0321
1.03329
1.03349
1.0329
1.03226
1.03241
1.03299
1.03275
1.03224
1.03257
1.03226
1.03222
1.03265
1.03242
1.0327
1.03294
1.03251
1.03269
1.03295
1.03243
1.03187
1.03187
1.03141
1.03094
1.031
1.0308
1.03041
1.03045
1.03061
1.03036
1.03026
1.03041
1.03045
1.03067
1.03125
1.03203
1.0332
1.03513
1.0379
1.04209
1.04796
1.05393
1.05718
1.05814
1.05819
1.05808
1.05802
1.057
1.05493
1.05241
1.04939
1.04586
1.04338
1.041
1.03953
1.03932
1.03948
1.03932
1.03934
1.03979
1.03977
1.0399
1.0403
1.04056
1.04046
1.04009
1.03973
1.03894
1.03784
1.0367
1.03541
1.03399
1.03269
1.0316
1.03054
1.02956
1.02852
1.02761
1.02763
1.02809
1.0286
1.02957
1.03095
1.03291
1.03793
1.04595
1.05683
1.06654
1.06961
1.07042
1.07087
1.07121
1.07097
1.06947
1.06658
1.06244
1.05761
1.05275
1.04809
1.04389
1.04034
1.03737
1.03456
1.0331
1.03241
1.03191
1.0315
1.00386
1.00617
1.00826
1.00924
1.01158
1.01351
1.01364
1.01466
1.01702
1.0176
1.01877
1.02137
1.02215
1.02284
1.0252
1.02586
1.02626
1.02772
1.02774
1.0285
1.02958
1.02918
1.02992
1.03041
1.0297
1.03034
1.03142
1.03077
1.03073
1.03076
1.03052
1.03104
1.03108
1.03069
1.03086
1.03054
1.0303
1.03078
1.03058
1.03082
1.03104
1.03068
1.0309
1.03116
1.0308
1.03003
1.03004
1.02985
1.02936
1.02941
1.02934
1.02898
1.029
1.02911
1.02889
1.02887
1.02913
1.02916
1.02936
1.02985
1.03052
1.03158
1.03353
1.03652
1.0409
1.04697
1.05351
1.05771
1.05892
1.05905
1.05884
1.05871
1.05826
1.05642
1.05379
1.05091
1.04759
1.0448
1.04258
1.04062
1.03969
1.03931
1.0391
1.03906
1.03938
1.03967
1.03977
1.04
1.0402
1.04034
1.04031
1.03992
1.03917
1.03817
1.03704
1.03577
1.03452
1.0333
1.03223
1.03125
1.03034
1.02922
1.02818
1.02821
1.02861
1.02918
1.03005
1.03098
1.03369
1.03922
1.04745
1.05811
1.06884
1.07198
1.07258
1.07261
1.0721
1.07092
1.06905
1.06631
1.0624
1.0576
1.05279
1.04819
1.04395
1.0405
1.03743
1.03462
1.0333
1.03254
1.03199
1.03165
1.00463
1.00628
1.00777
1.00823
1.00966
1.01168
1.0121
1.01297
1.01553
1.01647
1.01705
1.01925
1.02009
1.02011
1.02201
1.02322
1.0231
1.02394
1.02517
1.02642
1.0265
1.02647
1.02777
1.02791
1.02764
1.02888
1.02934
1.02835
1.0285
1.02898
1.02873
1.02917
1.02938
1.029
1.02917
1.02893
1.02862
1.02919
1.02907
1.02898
1.02928
1.02908
1.02912
1.02927
1.02898
1.02821
1.02817
1.02814
1.02772
1.02776
1.02779
1.02745
1.0275
1.02769
1.02748
1.0275
1.02781
1.02788
1.02806
1.02857
1.02926
1.03027
1.03213
1.03507
1.03935
1.04545
1.0525
1.05768
1.05959
1.05997
1.05975
1.05945
1.05934
1.05804
1.0555
1.05262
1.04962
1.04677
1.04449
1.04256
1.04112
1.04033
1.0401
1.03998
1.04003
1.04019
1.04035
1.0405
1.04056
1.04055
1.04063
1.04044
1.03981
1.03893
1.0379
1.03673
1.03555
1.03443
1.03337
1.03244
1.03144
1.03012
1.0292
1.02927
1.02972
1.03034
1.03131
1.03285
1.03579
1.04132
1.0497
1.05972
1.0696
1.07251
1.07269
1.07263
1.07208
1.07083
1.0689
1.06617
1.06235
1.05769
1.05272
1.04815
1.0442
1.04083
1.0376
1.03508
1.03355
1.03274
1.03219
1.03193
1.00415
1.00596
1.00759
1.0081
1.00925
1.01123
1.01163
1.012
1.01403
1.01491
1.01512
1.01688
1.01799
1.01793
1.01955
1.02117
1.02114
1.02139
1.02322
1.02424
1.02382
1.02475
1.02576
1.02559
1.02613
1.0273
1.02701
1.02599
1.02628
1.02701
1.02684
1.02726
1.02757
1.0272
1.0274
1.02728
1.02696
1.02753
1.02753
1.02718
1.02747
1.02743
1.02727
1.02731
1.02708
1.02641
1.02638
1.02641
1.02608
1.02613
1.02624
1.02593
1.02598
1.02619
1.02602
1.02606
1.02643
1.02656
1.02674
1.02728
1.02798
1.02892
1.03064
1.03348
1.03763
1.04377
1.05145
1.05781
1.0604
1.06077
1.0607
1.06051
1.06053
1.05961
1.05731
1.05446
1.05157
1.04888
1.04648
1.04446
1.04298
1.04192
1.0415
1.04139
1.04127
1.04118
1.04122
1.04139
1.04152
1.04148
1.04142
1.04118
1.0406
1.0398
1.0389
1.03786
1.03673
1.03567
1.03474
1.03392
1.033
1.03192
1.03125
1.03105
1.03122
1.03171
1.03232
1.03337
1.03614
1.04156
1.04997
1.05973
1.06941
1.07256
1.07268
1.07263
1.07212
1.07075
1.06873
1.06598
1.06224
1.05771
1.0526
1.04814
1.04455
1.04111
1.03816
1.03575
1.03392
1.03291
1.03242
1.03214
1.00483
1.00559
1.00667
1.00711
1.00832
1.01063
1.01166
1.01219
1.01371
1.01451
1.01417
1.01512
1.01599
1.01577
1.01705
1.01893
1.01902
1.01964
1.02168
1.02249
1.02194
1.02256
1.02338
1.02331
1.02411
1.02508
1.02457
1.02377
1.02431
1.02513
1.02496
1.02534
1.02564
1.02529
1.02548
1.0255
1.02515
1.02566
1.02579
1.02537
1.02556
1.02559
1.02533
1.02528
1.02513
1.02456
1.02457
1.02464
1.02436
1.02447
1.02465
1.02437
1.0244
1.02462
1.02449
1.02456
1.02494
1.02513
1.02532
1.02587
1.02663
1.02755
1.02918
1.03194
1.03601
1.04212
1.05028
1.05744
1.06096
1.06172
1.06177
1.06171
1.0618
1.06094
1.05878
1.05602
1.0532
1.05054
1.04809
1.04601
1.04443
1.04322
1.04256
1.0423
1.04222
1.04219
1.04221
1.0423
1.0424
1.04231
1.04207
1.04174
1.04122
1.0405
1.03973
1.03894
1.03806
1.0372
1.03627
1.03533
1.03426
1.0331
1.03189
1.03127
1.0312
1.03148
1.03168
1.03268
1.03561
1.04117
1.04975
1.05963
1.0692
1.07279
1.07294
1.07271
1.07221
1.07067
1.06864
1.06599
1.06226
1.05778
1.05258
1.04826
1.04509
1.0418
1.03895
1.03646
1.03429
1.03294
1.03244
1.03194
1.00437
1.00566
1.00692
1.00739
1.00836
1.00988
1.01032
1.0101
1.01107
1.01159
1.0116
1.01305
1.01409
1.01399
1.01502
1.01685
1.01735
1.01868
1.02069
1.02133
1.0206
1.02089
1.02154
1.02147
1.02217
1.02295
1.02245
1.02195
1.02267
1.02342
1.02315
1.02341
1.02364
1.0233
1.02348
1.02366
1.02327
1.02364
1.02387
1.02349
1.0236
1.02363
1.0233
1.02318
1.02306
1.0226
1.02267
1.0228
1.02257
1.02274
1.023
1.02276
1.0228
1.02301
1.02295
1.02302
1.02337
1.02363
1.02385
1.02438
1.02519
1.02616
1.02773
1.03039
1.03438
1.04039
1.04867
1.05677
1.06148
1.06268
1.06277
1.06285
1.06291
1.06201
1.05998
1.05739
1.05463
1.05189
1.04933
1.04717
1.04541
1.04422
1.04345
1.04303
1.04285
1.04285
1.04291
1.04295
1.04298
1.04287
1.04259
1.04225
1.04189
1.04127
1.04042
1.03962
1.0388
1.03783
1.03669
1.03556
1.03448
1.03332
1.03194
1.03122
1.03115
1.03125
1.03125
1.03234
1.03544
1.04109
1.04966
1.05979
1.0693
1.0733
1.07348
1.07318
1.07267
1.07084
1.06898
1.06653
1.06275
1.05813
1.05306
1.04871
1.04569
1.04271
1.03974
1.03702
1.03455
1.03282
1.03198
1.03124
1.00429
1.00512
1.0061
1.00689
1.00825
1.00955
1.00976
1.00937
1.00993
1.01014
1.01003
1.01126
1.01208
1.01195
1.0134
1.01536
1.01575
1.01685
1.01842
1.0189
1.01827
1.01883
1.01977
1.0197
1.02012
1.02098
1.02074
1.02057
1.0215
1.02193
1.02145
1.02154
1.02164
1.02128
1.02144
1.02177
1.0214
1.02158
1.02185
1.02154
1.02154
1.02152
1.0212
1.02107
1.02085
1.02052
1.02068
1.02087
1.02078
1.02097
1.02128
1.02113
1.02123
1.02142
1.0214
1.02152
1.0218
1.02212
1.02239
1.02286
1.02364
1.02463
1.02617
1.02874
1.0327
1.03865
1.04692
1.05586
1.06175
1.06345
1.06373
1.06404
1.06398
1.06303
1.06116
1.05873
1.05596
1.05317
1.05056
1.04824
1.04633
1.04502
1.04414
1.04362
1.04334
1.0433
1.04338
1.04339
1.04339
1.04329
1.043
1.04263
1.04211
1.0414
1.04049
1.03943
1.03867
1.03796
1.03705
1.03606
1.03502
1.03378
1.03235
1.03152
1.03143
1.0314
1.0314
1.03252
1.03559
1.04127
1.04973
1.06011
1.06983
1.07394
1.0744
1.07438
1.07339
1.07158
1.07009
1.06755
1.06355
1.05877
1.0538
1.04948
1.04622
1.04316
1.04006
1.03723
1.03468
1.0326
1.03133
1.03031
1.00526
1.00605
1.0066
1.00703
1.00764
1.00809
1.00783
1.00753
1.00797
1.00788
1.00837
1.0099
1.01064
1.01053
1.01181
1.01377
1.01458
1.01579
1.01697
1.01702
1.01637
1.01712
1.01811
1.01796
1.01825
1.01919
1.01919
1.01944
1.0204
1.02047
1.0198
1.01973
1.01966
1.01928
1.01942
1.01983
1.01955
1.01954
1.01974
1.01945
1.01931
1.01922
1.0191
1.01883
1.01843
1.01868
1.01881
1.01871
1.01907
1.01922
1.01944
1.01951
1.01968
1.01985
1.01986
1.02006
1.02029
1.02057
1.02099
1.02151
1.02221
1.02315
1.02456
1.02696
1.03078
1.03656
1.04485
1.05466
1.06187
1.06417
1.06469
1.0651
1.06491
1.06401
1.0623
1.06001
1.05732
1.05445
1.0518
1.04941
1.04744
1.04591
1.04484
1.04421
1.04394
1.04393
1.04395
1.04387
1.0437
1.04348
1.04321
1.04281
1.04207
1.04139
1.04076
1.03992
1.03932
1.03875
1.03785
1.03688
1.03588
1.03461
1.0332
1.03235
1.03207
1.03171
1.03176
1.03293
1.03597
1.04153
1.04992
1.06056
1.07072
1.07483
1.07583
1.07583
1.07436
1.073
1.07155
1.06861
1.06433
1.05945
1.05453
1.05008
1.04642
1.04314
1.03996
1.03704
1.0344
1.03218
1.0307
1.02958
1.00586
1.00694
1.0077
1.00813
1.00826
1.00783
1.007
1.0069
1.00703
1.00667
1.00697
1.00845
1.00911
1.00972
1.01147
1.01269
1.01279
1.01363
1.01454
1.01443
1.0146
1.01596
1.01671
1.01635
1.01661
1.01762
1.01785
1.0182
1.01889
1.01885
1.01807
1.01786
1.0178
1.01749
1.01764
1.018
1.01777
1.01755
1.01757
1.01732
1.01695
1.01692
1.01695
1.01658
1.01638
1.01681
1.01689
1.01683
1.0173
1.01752
1.01761
1.0179
1.0181
1.01831
1.01839
1.01863
1.01888
1.01908
1.01949
1.02005
1.02079
1.02186
1.02331
1.02551
1.02899
1.03427
1.04233
1.05282
1.06126
1.0646
1.06542
1.06577
1.06575
1.065
1.06351
1.06131
1.0587
1.05589
1.05314
1.05065
1.04859
1.04687
1.04572
1.0451
1.04484
1.04476
1.04465
1.04451
1.04441
1.04422
1.04397
1.04362
1.04293
1.04215
1.04155
1.04083
1.04035
1.03991
1.03899
1.0379
1.03683
1.03556
1.03422
1.03323
1.03277
1.03225
1.03238
1.03365
1.03664
1.04195
1.05018
1.06118
1.0717
1.07608
1.07753
1.07706
1.07565
1.07469
1.07277
1.06934
1.06489
1.05997
1.05497
1.05042
1.04638
1.04278
1.03957
1.03673
1.03411
1.03184
1.03032
1.02935
1.00707
1.00743
1.0074
1.00712
1.00696
1.00655
1.00591
1.0058
1.00572
1.00567
1.00642
1.00754
1.00775
1.00783
1.00954
1.01077
1.01072
1.01143
1.01244
1.01267
1.01318
1.01438
1.01495
1.01472
1.01535
1.01635
1.01621
1.0163
1.01688
1.01689
1.01614
1.01592
1.01601
1.01586
1.01601
1.0162
1.01595
1.01552
1.01537
1.01505
1.01457
1.01478
1.01488
1.01448
1.01461
1.01499
1.01501
1.01515
1.0157
1.01595
1.01596
1.01628
1.01646
1.0167
1.01692
1.01714
1.01752
1.01781
1.01826
1.01881
1.0194
1.02037
1.02178
1.02393
1.0273
1.03232
1.04
1.05061
1.06022
1.0646
1.06575
1.06616
1.06644
1.06587
1.06446
1.06236
1.0599
1.05717
1.05436
1.0519
1.04969
1.04788
1.04668
1.04605
1.04581
1.04576
1.04562
1.04552
1.04558
1.04533
1.04494
1.0446
1.04394
1.04322
1.04262
1.0419
1.04125
1.04089
1.0401
1.03886
1.03768
1.03639
1.035
1.03408
1.03354
1.03294
1.03308
1.03438
1.03729
1.0423
1.05031
1.06142
1.07237
1.07739
1.07856
1.07778
1.07692
1.07578
1.0734
1.06972
1.06516
1.06022
1.05512
1.05047
1.04625
1.0424
1.03925
1.03662
1.03413
1.03186
1.03037
1.0297
1.00881
1.00859
1.00798
1.00725
1.00646
1.0058
1.00571
1.00573
1.00523
1.00491
1.00579
1.0067
1.00668
1.00699
1.00835
1.00925
1.00897
1.00913
1.01058
1.01146
1.01216
1.01305
1.01343
1.01348
1.01434
1.01479
1.01432
1.01416
1.01464
1.01467
1.01405
1.01399
1.01424
1.01423
1.01434
1.01433
1.01396
1.01331
1.01307
1.01267
1.01237
1.01277
1.01276
1.01253
1.01299
1.01327
1.01334
1.01366
1.01429
1.01454
1.01454
1.01486
1.01503
1.01519
1.01551
1.01566
1.01598
1.01637
1.01683
1.01755
1.01832
1.01935
1.02071
1.02252
1.02544
1.03009
1.03728
1.04774
1.05861
1.06457
1.06584
1.06639
1.06687
1.06669
1.06537
1.06342
1.06106
1.05834
1.05567
1.05321
1.0509
1.04891
1.04762
1.04702
1.04675
1.04655
1.04617
1.0461
1.04632
1.04624
1.04582
1.04547
1.04497
1.04416
1.04353
1.04285
1.042
1.04145
1.04091
1.03954
1.03818
1.03673
1.03528
1.03453
1.03406
1.03351
1.03372
1.03508
1.03781
1.04249
1.05012
1.06106
1.07273
1.07821
1.0786
1.07817
1.07775
1.07629
1.07361
1.06991
1.06536
1.06042
1.05536
1.05071
1.04646
1.04254
1.03944
1.03695
1.0347
1.03238
1.03106
1.03086
1.00874
1.00836
1.00794
1.00712
1.00597
1.0053
1.00512
1.00494
1.00483
1.00498
1.00528
1.0053
1.00466
1.00474
1.0062
1.00716
1.00706
1.00755
1.00897
1.00974
1.01023
1.01109
1.01188
1.01247
1.01298
1.01284
1.01207
1.01198
1.01247
1.01241
1.01193
1.01211
1.01243
1.01246
1.01246
1.01231
1.01178
1.01097
1.01079
1.0104
1.01027
1.01079
1.01075
1.01088
1.01142
1.01162
1.01185
1.01226
1.01294
1.01317
1.0132
1.01351
1.01377
1.0139
1.01429
1.01449
1.0147
1.01513
1.0155
1.0161
1.01691
1.01798
1.01952
1.02134
1.02393
1.02808
1.0345
1.04424
1.05625
1.06419
1.06605
1.06681
1.06749
1.06752
1.06638
1.06455
1.06222
1.05962
1.05712
1.05458
1.05189
1.04961
1.04837
1.04766
1.0471
1.04669
1.04653
1.0466
1.0469
1.04687
1.04654
1.0463
1.04582
1.04497
1.04433
1.04373
1.04252
1.04162
1.0412
1.03985
1.03835
1.03671
1.03539
1.03485
1.03448
1.03401
1.03432
1.03571
1.03816
1.04246
1.0497
1.06039
1.07222
1.07791
1.07873
1.07865
1.0781
1.0766
1.07398
1.07042
1.06603
1.06118
1.05617
1.05161
1.04738
1.04347
1.04041
1.03801
1.03592
1.03384
1.03302
1.03375
1.00944
1.0086
1.00808
1.00711
1.006
1.0055
1.00503
1.00439
1.00432
1.00488
1.00503
1.00456
1.0038
1.00385
1.00487
1.00551
1.00522
1.0058
1.00733
1.00826
1.00869
1.00942
1.01038
1.01093
1.01089
1.01042
1.00981
1.01
1.01043
1.0102
1.00998
1.01034
1.01051
1.01043
1.0103
1.0101
1.00949
1.00875
1.00871
1.00833
1.00825
1.00887
1.00901
1.00932
1.00979
1.01006
1.01036
1.0108
1.01153
1.01187
1.01196
1.01225
1.0125
1.01261
1.01289
1.01314
1.01335
1.01381
1.01442
1.01495
1.01576
1.01678
1.01821
1.0199
1.02223
1.02611
1.03193
1.04073
1.05332
1.0634
1.06607
1.06709
1.06797
1.06819
1.06737
1.06571
1.06343
1.06108
1.05854
1.05566
1.05279
1.05063
1.04908
1.04789
1.04737
1.04718
1.04704
1.04712
1.04738
1.04732
1.04719
1.04706
1.04654
1.04566
1.04513
1.04456
1.04297
1.04183
1.04124
1.03996
1.03842
1.03674
1.03567
1.03522
1.03496
1.0346
1.03503
1.03643
1.03857
1.04246
1.04947
1.05966
1.07101
1.07775
1.07926
1.07936
1.07879
1.07742
1.07501
1.07166
1.06747
1.06275
1.05786
1.0534
1.04914
1.04558
1.04259
1.04025
1.03841
1.0377
1.03798
1.04037
1.01007
1.00893
1.00817
1.00696
1.00586
1.00572
1.00558
1.00529
1.00484
1.00418
1.00339
1.00272
1.00217
1.00218
1.00308
1.0037
1.00372
1.00435
1.00562
1.00641
1.00686
1.0076
1.00863
1.00896
1.00836
1.00799
1.00798
1.00833
1.00849
1.00826
1.00836
1.00852
1.00845
1.00824
1.00802
1.00784
1.0073
1.00682
1.0069
1.00655
1.00638
1.00706
1.00739
1.00777
1.00826
1.00865
1.00895
1.00932
1.00992
1.0104
1.01065
1.01092
1.01122
1.01143
1.01168
1.01187
1.01195
1.01221
1.01298
1.01351
1.01431
1.0155
1.0169
1.01843
1.02044
1.02396
1.0293
1.03715
1.04968
1.06211
1.06593
1.06726
1.06834
1.06885
1.06825
1.06656
1.06452
1.06245
1.05982
1.05686
1.05404
1.05168
1.04971
1.04842
1.04799
1.04773
1.04754
1.04755
1.04758
1.04762
1.04772
1.04772
1.04713
1.04626
1.04591
1.04516
1.04328
1.04227
1.04137
1.04002
1.03853
1.03704
1.03619
1.03585
1.03575
1.03549
1.03605
1.03733
1.03924
1.04287
1.04943
1.05912
1.07044
1.07818
1.08007
1.08029
1.07995
1.07887
1.07674
1.07363
1.06967
1.0652
1.06055
1.05636
1.05257
1.04976
1.04741
1.04611
1.04604
1.04666
1.048
1.05169
1.01073
1.00971
1.00882
1.00757
1.00651
1.0059
1.00526
1.00462
1.00402
1.00333
1.00254
1.00154
1.00095
1.00121
1.00178
1.00189
1.00215
1.00308
1.00387
1.00445
1.00502
1.00567
1.00643
1.00662
1.00577
1.00579
1.00652
1.00673
1.00673
1.00676
1.00673
1.00658
1.00636
1.00601
1.00576
1.00567
1.00534
1.00502
1.0052
1.00497
1.00481
1.00543
1.00585
1.00616
1.00658
1.00702
1.00753
1.00798
1.00839
1.00896
1.00934
1.00955
1.00985
1.01015
1.01041
1.01072
1.01108
1.01148
1.01231
1.01291
1.01331
1.01431
1.01576
1.0171
1.01881
1.02184
1.02686
1.0338
1.04545
1.06008
1.06564
1.06737
1.06869
1.06925
)
;

boundaryField
{
    inlet
    {
        type            fixedValue;
        value           nonuniform 0();
    }
    outlet
    {
        type            zeroGradient;
    }
    bottom
    {
        type            symmetryPlane;
    }
    top
    {
        type            symmetryPlane;
    }
    obstacle
    {
        type            zeroGradient;
    }
    front
    {
        type            empty;
    }
    back
    {
        type            empty;
    }
    procBoundary15to7
    {
        type            processor;
        value           nonuniform List<scalar> 
133
(
1.04176
1.04165
1.04193
1.04155
1.04104
1.0414
1.04137
1.04045
1.0402
1.0403
1.03957
1.03865
1.03864
1.03857
1.03788
1.03776
1.03769
1.03727
1.03714
1.03688
1.03685
1.03726
1.03772
1.03822
1.03895
1.04015
1.04218
1.04525
1.04883
1.05123
1.05161
1.05149
1.05157
1.05121
1.04975
1.04822
1.04651
1.04356
1.04017
1.0377
1.03554
1.03486
1.03483
1.03487
1.03533
1.03583
1.03531
1.03506
1.03546
1.03502
1.03435
1.03439
1.03363
1.03271
1.03261
1.03151
1.03007
1.02932
1.02776
1.0263
1.02608
1.02527
1.02418
1.02365
1.02295
1.02227
1.02234
1.02285
1.02391
1.02565
1.02812
1.03168
1.03791
1.04792
1.06148
1.06768
1.06896
1.06945
1.0693
1.06825
1.06634
1.06344
1.05983
1.05598
1.05227
1.04837
1.04466
1.04114
1.03841
1.03681
1.03574
1.03472
1.03417
1.03383
1.03346
1.0129
1.01703
1.01849
1.02134
1.02441
1.02472
1.02579
1.0292
1.03012
1.03055
1.03363
1.03504
1.0348
1.03653
1.03832
1.03769
1.03783
1.03996
1.04038
1.03935
1.04019
1.04203
1.04176
1.0424
1.04364
1.04294
1.04296
1.04342
1.04267
1.04273
1.0426
1.04206
1.04233
1.04218
1.0414
1.04138
1.0411
1.0411
)
;
    }
    procBoundary15to14
    {
        type            processor;
        value           nonuniform List<scalar> 
17
(
1.00704
1.00495
1.00419
1.0037
1.00318
1.00422
1.00342
1.0047
1.00391
1.0044
1.00468
1.00471
1.00651
1.00847
1.00922
1.01058
1.01138
)
;
    }
    procBoundary15to22
    {
        type            processor;
        value           uniform 1.01222;
    }
    procBoundary15to23
    {
        type            processor;
        value           nonuniform List<scalar> 
133
(
1.06857
1.06717
1.06573
1.06378
1.0613
1.05844
1.05546
1.05269
1.05049
1.04909
1.0485
1.0481
1.0478
1.04772
1.04776
1.04793
1.04823
1.04825
1.04761
1.0469
1.04676
1.04574
1.04387
1.04311
1.04192
1.04041
1.03897
1.03772
1.03703
1.03687
1.03695
1.03679
1.03735
1.0385
1.04031
1.0437
1.04978
1.05914
1.0703
1.07863
1.08117
1.08147
1.08135
1.08066
1.07896
1.0763
1.07297
1.06922
1.06523
1.06199
1.05983
1.05857
1.05814
1.05811
1.05902
1.06104
1.0623
1.06514
1.01144
1.01043
1.00963
1.00859
1.00766
1.00698
1.00626
1.00539
1.00435
1.00325
1.00208
1.00067
1.00018
1.00021
1.00016
1.00043
1.00118
1.00183
1.00223
1.00277
1.00341
1.00378
1.00416
1.00437
1.00369
1.00395
1.00491
1.00505
1.00508
1.00516
1.00501
1.00468
1.00436
1.00397
1.00365
1.0037
1.00366
1.0033
1.00333
1.00335
1.00336
1.00383
1.00427
1.00457
1.00496
1.00536
1.00591
1.00628
1.00658
1.00715
1.00763
1.00794
1.00834
1.00879
1.00921
1.00969
1.01017
1.01056
1.01133
1.01201
1.01232
1.01308
1.01463
1.01575
1.0171
1.01975
1.02469
1.03104
1.04118
1.05703
1.06512
1.06737
1.06877
1.06857
1.0691
)
;
    }
}


// ************************************************************************* //
