/*--------------------------------*- C++ -*----------------------------------*\
  =========                 |
  \\      /  F ield         | OpenFOAM: The Open Source CFD Toolbox
   \\    /   O peration     | Website:  https://openfoam.org
    \\  /    A nd           | Version:  7
     \\/     M anipulation  |
\*---------------------------------------------------------------------------*/
FoamFile
{
    version     2.0;
    format      ascii;
    class       volVectorField;
    location    "17";
    object      U;
}
// * * * * * * * * * * * * * * * * * * * * * * * * * * * * * * * * * * * * * //

dimensions      [0 1 -1 0 0 0 0];

internalField   nonuniform List<vector> 
135168
(
(2 -1.51226e-17 0)
(2 -3.11223e-17 0)
(2 -3.72102e-17 0)
(2 -7.72545e-17 0)
(2 -7.49906e-17 0)
(2 -5.50629e-17 0)
(2 -3.09568e-17 0)
(2 -1.68594e-17 0)
(2 -1.44734e-17 0)
(2 1.63097e-17 0)
(2 3.81153e-17 0)
(2 -3.42035e-17 0)
(2 -6.98396e-17 0)
(2 -2.09657e-16 0)
(2 -1.51597e-16 0)
(2 1.95079e-17 0)
(2 3.5295e-17 0)
(2 -1.72103e-17 0)
(2 -3.15773e-17 0)
(2 -5.80813e-17 0)
(2 -2.63344e-17 0)
(2 1.45386e-16 0)
(2 1.573e-16 0)
(2 2.09617e-16 0)
(2 3.38373e-16 0)
(2 3.99063e-16 0)
(2 4.01604e-16 0)
(2 4.04742e-16 0)
(2 3.99548e-16 0)
(2 4.49022e-16 0)
(2 5.21209e-16 0)
(2 5.76717e-16 0)
(2 8.23072e-16 0)
(2 1.05636e-15 0)
(2 1.23665e-15 0)
(2 1.41462e-15 0)
(2 1.30126e-15 0)
(2 9.37903e-16 0)
(2 8.07617e-16 0)
(2 7.84995e-16 0)
(2 7.18291e-16 0)
(2 6.99931e-16 0)
(2 8.22378e-16 0)
(2 8.90842e-16 0)
(2 8.54159e-16 0)
(2 9.61776e-16 0)
(2 9.41816e-16 0)
(2 2.01252e-16 0)
(2 -2.08203e-16 0)
(2 -4.29431e-16 0)
(2 -4.72814e-16 0)
(2 -4.26418e-16 0)
(2 -3.33763e-16 0)
(2 -1.37706e-16 0)
(2 1.53913e-16 0)
(2 2.88026e-16 0)
(2 2.54947e-16 0)
(2 6.04319e-17 0)
(2 7.51065e-16 0)
(2 1.17228e-15 0)
(2 1.48313e-15 0)
(2 1.86278e-15 0)
(2 1.93175e-15 0)
(2 1.74904e-15 0)
(2 1.84385e-15 0)
(2 1.29819e-15 0)
(2 7.37478e-16 0)
(2 6.32485e-16 0)
(2 5.50772e-16 0)
(2 4.70191e-16 0)
(2 3.76452e-16 0)
(2 2.00198e-16 0)
(2 1.51435e-16 0)
(2 8.61e-17 0)
(2 2.10063e-16 0)
(2 2.92385e-16 0)
(2 2.27895e-16 0)
(2 1.3981e-16 0)
(2 1.4571e-16 0)
(2 2.40119e-16 0)
(2 1.98014e-16 0)
(2 -4.67228e-17 0)
(2 -4.67997e-16 0)
(2 -5.10175e-16 0)
(2 -2.74673e-16 0)
(2 -1.67986e-16 0)
(2 -4.07678e-16 0)
(2 -5.22684e-16 0)
(2 -7.99411e-16 0)
(2 -9.51918e-16 0)
(2 -1.11515e-15 0)
(2 -1.23543e-15 0)
(2 -1.37784e-15 0)
(2 -1.44923e-15 0)
(2 -1.48493e-15 0)
(2 -1.46221e-15 0)
(2 -1.42909e-15 0)
(2 -1.46414e-15 0)
(2 -1.4771e-15 0)
(2 -1.44683e-15 0)
(2 -1.50638e-15 0)
(2 -1.48025e-15 0)
(2 -1.38762e-15 0)
(2 -1.39711e-15 0)
(2 -1.39561e-15 0)
(2 -1.43495e-15 0)
(2 -1.4548e-15 0)
(2 -1.14317e-15 0)
(2 -1.07022e-15 0)
(2 -9.07378e-16 0)
(2 -7.64953e-16 0)
(2 -5.81946e-16 0)
(2 -4.6929e-16 0)
(2 -3.60017e-16 0)
(2 -2.43346e-16 0)
(2 4.34295e-16 0)
(2 6.43921e-16 0)
(2 7.55051e-16 0)
(2 8.71834e-16 0)
(2 1.01857e-15 0)
(2 1.05925e-15 0)
(2 1.03897e-15 0)
(2 1.09406e-15 0)
(2 1.13526e-15 0)
(2 1.0988e-15 0)
(2 1.05246e-15 0)
(2 1.05205e-15 0)
(2 1.04221e-15 0)
(2 1.10423e-15 0)
(2 1.11018e-15 0)
(2 9.35814e-16 0)
(2 5.25513e-16 0)
(2 5.26572e-16 0)
(2 5.61695e-16 0)
(2 5.56372e-16 0)
(2 -1.64138e-16 0)
(2 -8.22e-16 0)
(2 -9.02557e-16 0)
(2 -8.58354e-16 0)
(2 -8.79029e-16 0)
(2 -9.87485e-16 0)
(2 -9.92908e-16 0)
(2 -9.73629e-16 0)
(2 -7.61757e-16 0)
(2 -3.91694e-16 0)
(2 -7.64814e-18 0)
(2 1.13854e-16 0)
(2 8.01244e-16 0)
(2 9.47716e-16 0)
(2 9.34629e-16 0)
(2 1.01269e-15 0)
(2 1.13016e-15 0)
(2 7.28011e-16 0)
(2 5.45658e-16 0)
(2 3.5566e-16 0)
(2 2.63597e-16 0)
(2 3.53004e-16 0)
(2 4.33702e-16 0)
(2 5.82159e-16 0)
(2 6.51771e-16 0)
(2 6.88646e-16 0)
(2 7.14576e-16 0)
(2 4.90787e-16 0)
(2 4.09617e-16 0)
(2 3.79545e-16 0)
(2 2.65198e-16 0)
(2 1.37117e-16 0)
(2 8.21657e-17 0)
(2 -5.93819e-18 0)
(2 2.91832e-17 0)
(2 1.57249e-16 0)
(2 2.33861e-16 0)
(2 1.08294e-16 0)
(2 -7.22851e-17 0)
(2 2.92836e-17 0)
(2 1.97849e-17 0)
(2 -1.95695e-18 0)
(2 1.59013e-16 0)
(2 1.68872e-16 0)
(2 1.28516e-16 0)
(2 3.76853e-16 0)
(2 4.81976e-16 0)
(2 6.77498e-16 0)
(2 7.58161e-16 0)
(2 8.03737e-16 0)
(2 9.13564e-16 0)
(2 1.08865e-15 0)
(2 1.04988e-15 0)
(2 9.98329e-16 0)
(2 8.52491e-16 0)
(2 6.6402e-16 0)
(2 6.22642e-16 0)
(2 6.69722e-16 0)
(2 9.08728e-16 0)
(2 1.16511e-15 0)
(2 1.16641e-15 0)
(2 1.33532e-15 0)
(2 1.47598e-15 0)
(2 1.61798e-15 0)
(2 1.69052e-15 0)
(2 1.54268e-15 0)
(2 1.65413e-15 0)
(2 1.81622e-15 0)
(2 1.67007e-15 0)
(2 1.40165e-15 0)
(2 1.23555e-15 0)
(2 1.09279e-15 0)
(2 1.0149e-15 0)
(2 9.30905e-16 0)
(2 9.19239e-16 0)
(2 5.04505e-16 0)
(2 8.24541e-17 0)
(2 -5.67124e-17 0)
(2 -1.75798e-16 0)
(2 -1.72057e-16 0)
(2 -4.83314e-17 0)
(2 9.75191e-17 0)
(2 -2.2661e-16 0)
(2 -2.43918e-16 0)
(2 -7.78572e-16 0)
(2 -1.16305e-15 0)
(2 -1.20268e-15 0)
(2 -1.30272e-15 0)
(2 -1.69782e-15 0)
(2 -1.81607e-15 0)
(2 -1.9454e-15 0)
(2 -1.8796e-15 0)
(2 -1.58761e-15 0)
(2 -1.32295e-15 0)
(2 -9.33751e-16 0)
(2 -3.86812e-16 0)
(2 1.19281e-16 0)
(2 5.88625e-16 0)
(2 7.76553e-16 0)
(2 8.14565e-16 0)
(2 7.79851e-16 0)
(2 5.96066e-16 0)
(2 3.78971e-16 0)
(2 2.99585e-16 0)
(2 1.99189e-16 0)
(2 4.83007e-16 0)
(2 5.57e-16 0)
(2 1.92443e-16 0)
(2 -4.04829e-17 0)
(2 -2.57756e-16 0)
(2 -7.37287e-16 0)
(2 -9.28849e-16 0)
(2 -8.32201e-17 0)
(2 1.69931e-16 0)
(2 2.92308e-16 0)
(2 3.18702e-16 0)
(2 2.79002e-16 0)
(2 3.77147e-18 0)
(2 -3.89091e-16 0)
(2 -3.88498e-16 0)
(2 6.00653e-16 0)
(2 1.26605e-15 0)
(2 1.61695e-15 0)
(2 2.24446e-15 0)
(2 2.74518e-15 0)
(2 2.76961e-15 0)
(2 2.74822e-15 0)
(2 2.4975e-15 0)
(2 2.15929e-15 0)
(2 2.01635e-15 0)
(2 2.04051e-15 0)
(2 2.05995e-15 0)
(2 2.0371e-15 0)
(2 1.95254e-15 0)
(2 1.80574e-15 0)
(2 1.42872e-15 0)
(2 1.32462e-15 0)
(2 1.1994e-15 0)
(2 1.16171e-15 0)
(2 1.16933e-15 0)
(2 1.55472e-15 0)
(2 1.29879e-15 0)
(2 9.07959e-16 0)
(2 7.74721e-16 0)
(2 6.67239e-16 0)
(2 8.6053e-16 0)
(2 1.10483e-15 0)
(2 6.50275e-16 0)
(2 3.5325e-16 0)
(2 -1.21211e-17 0)
(2 3.67722e-16 0)
(2 8.87949e-16 0)
(2 5.05261e-16 0)
(2 1.72613e-16 0)
(2 2.98929e-17 0)
(2 -1.18753e-16 0)
(2 -3.65317e-16 0)
(2 -3.18772e-16 0)
(2 -3.24908e-16 0)
(2 -3.34865e-16 0)
(2 -3.5297e-16 0)
(2 -4.27936e-16 0)
(2 -5.00706e-16 0)
(2 -6.35143e-16 0)
(2 -6.58255e-16 0)
(2 -6.69386e-16 0)
(2 -6.73934e-16 0)
(2 -6.53042e-16 0)
(2 -5.76979e-16 0)
(2 -7.09731e-16 0)
(2 -1.28339e-15 0)
(2 -1.37939e-15 0)
(2 -9.05804e-16 0)
(2 -7.508e-16 0)
(2 -9.74765e-16 0)
(2 -1.14109e-15 0)
(2 -1.10232e-15 0)
(2 -1.02496e-15 0)
(2 -9.3358e-16 0)
(2 -1.03349e-15 0)
(2 -1.06034e-15 0)
(2 -1.00437e-15 0)
(2 -1.4088e-15 0)
(2 -1.60126e-15 0)
(2 -1.56306e-15 0)
(2 -9.36379e-16 0)
(2 -8.20035e-16 0)
(2 -1.04132e-15 0)
(2 -1.10474e-15 0)
(2 -1.18879e-15 0)
(2 -8.73415e-16 0)
(2 -4.81457e-16 0)
(2 -2.81897e-16 0)
(2 -3.38652e-16 0)
(2 -4.40126e-16 0)
(2 -1.21317e-16 0)
(2 5.9108e-16 0)
(2 6.99192e-16 0)
(2 6.59242e-16 0)
(2 6.29502e-16 0)
(2 7.71525e-16 0)
(2 8.69863e-16 0)
(2 4.24102e-16 0)
(2 -9.64364e-17 0)
(2 -1.5196e-16 0)
(2 3.9217e-17 0)
(2 3.42409e-16 0)
(2 9.81072e-16 0)
(2 1.61735e-15 0)
(2 1.68049e-15 0)
(2 1.88264e-15 0)
(2 2.11266e-15 0)
(2 1.93154e-15 0)
(2 1.59056e-15 0)
(2 1.34268e-15 0)
(2 1.1409e-15 0)
(2 1.03726e-15 0)
(2 1.05345e-15 0)
(2 1.16292e-15 0)
(2 1.43117e-15 0)
(2 1.42687e-15 0)
(2 1.35562e-15 0)
(2 9.65002e-16 0)
(2 7.90372e-16 0)
(2 6.63473e-16 0)
(2 6.85319e-16 0)
(2 6.68668e-16 0)
(2 5.85853e-16 0)
(2 5.51017e-16 0)
(2 4.56353e-16 0)
(2 2.81681e-16 0)
(2 2.05799e-16 0)
(2 -4.26479e-16 0)
(2 -7.819e-16 0)
(2 -8.76909e-16 0)
(2 -8.52289e-16 0)
(2 -7.5946e-16 0)
(2 -5.60768e-16 0)
(2 -5.78933e-16 0)
(2 -1.38138e-15 0)
(2 -1.44898e-15 0)
(2 -1.40985e-15 0)
(2 -1.40877e-15 0)
(2 -1.02962e-15 0)
(2 -7.46551e-16 0)
(2 -5.4463e-16 0)
(2 -6.43163e-16 0)
(2 8.78929e-17 0)
(2 -2.19637e-15 0)
(2 -6.50397e-18 0)
(2 4.07834e-19 0)
(2 -6.87195e-18 0)
(2 1.54709e-17 0)
(2 1.19874e-17 0)
(2 -4.60868e-17 0)
(2 -1.46418e-16 0)
(2 -2.05869e-16 0)
(2 -1.29587e-16 0)
(2 -9.14377e-17 0)
(2 1.57785e-17 0)
(2 6.9717e-17 0)
(2 7.40016e-17 0)
(2 2.96777e-17 0)
(2 8.20762e-18 0)
(2 2.25743e-18 0)
(2 1.34573e-16 0)
(2 2.61567e-16 0)
(2 3.52052e-16 0)
(2 3.82198e-16 0)
(2 3.77549e-16 0)
(2 3.35072e-16 0)
(2 1.78621e-16 0)
(2 1.57852e-16 0)
(2 2.0075e-16 0)
(2 2.37482e-16 0)
(2 2.21581e-16 0)
(2 2.34721e-16 0)
(2 3.1736e-16 0)
(2 4.7255e-16 0)
(2 6.08529e-16 0)
(2 8.08478e-16 0)
(2 1.00657e-15 0)
(2 1.30478e-15 0)
(2 1.81193e-15 0)
(2 1.74058e-15 0)
(2 6.54887e-16 0)
(2 5.21487e-16 0)
(2 5.83848e-16 0)
(2 6.476e-16 0)
(2 7.51035e-16 0)
(2 7.42855e-16 0)
(2 7.39209e-16 0)
(2 5.89662e-16 0)
(2 2.50085e-16 0)
(2 -6.02435e-17 0)
(2 -2.2313e-16 0)
(2 -8.09991e-16 0)
(2 -1.04664e-15 0)
(2 -9.68913e-16 0)
(2 -9.29595e-16 0)
(2 -8.21561e-16 0)
(2 -4.66659e-16 0)
(2 -2.92077e-16 0)
(2 4.49549e-17 0)
(2 6.53621e-16 0)
(2 1.2205e-15 0)
(2 1.32933e-15 0)
(2 1.16051e-15 0)
(2 1.46959e-15 0)
(2 1.74855e-15 0)
(2 1.84095e-15 0)
(2 1.73593e-15 0)
(2 1.58193e-15 0)
(2 1.29632e-15 0)
(2 1.03327e-15 0)
(2 6.72988e-16 0)
(2 4.42306e-16 0)
(2 3.42013e-16 0)
(2 3.46526e-16 0)
(2 1.86279e-16 0)
(2 -3.15596e-16 0)
(2 -6.157e-16 0)
(2 -5.45681e-16 0)
(2 -4.1473e-16 0)
(2 -4.16183e-16 0)
(2 -4.9679e-16 0)
(2 -8.03592e-16 0)
(2 -5.74142e-16 0)
(2 -3.98878e-16 0)
(2 -5.21815e-16 0)
(2 -8.62807e-16 0)
(2 -1.07434e-15 0)
(2 -1.463e-15 0)
(2 -1.93843e-15 0)
(2 -1.97624e-15 0)
(2 -1.98109e-15 0)
(2 -2.04154e-15 0)
(2 -2.11877e-15 0)
(2 -2.10653e-15 0)
(2 -2.20966e-15 0)
(2 -2.31306e-15 0)
(2 -2.36331e-15 0)
(2 -2.4229e-15 0)
(2 -2.36617e-15 0)
(2 -2.34193e-15 0)
(2 -2.28946e-15 0)
(2 -2.2732e-15 0)
(2 -2.23232e-15 0)
(2 -2.04071e-15 0)
(2 -2.04645e-15 0)
(2 -1.95957e-15 0)
(2 -1.76204e-15 0)
(2 -1.55861e-15 0)
(2 -1.52784e-15 0)
(2 -1.51321e-15 0)
(2 -1.39521e-15 0)
(2 -1.37459e-15 0)
(2 -1.40167e-15 0)
(2 -1.3936e-15 0)
(2 -1.34911e-15 0)
(2 -1.31006e-15 0)
(2 -1.07561e-15 0)
(2 -6.14145e-16 0)
(2 -5.53647e-16 0)
(2 -3.40253e-16 0)
(2 3.05367e-17 0)
(2 -3.95622e-16 0)
(2 -2.05005e-16 0)
(2 -1.08582e-16 0)
(2 2.7634e-16 0)
(2 4.38237e-16 0)
(2 4.29637e-16 0)
(2 3.89568e-16 0)
(2 2.57423e-16 0)
(2 1.14405e-16 0)
(2 -1.59961e-17 0)
(2 -1.65177e-16 0)
(2 -2.13065e-16 0)
(2 -1.92919e-16 0)
(2 -1.29552e-16 0)
(2 -2.84556e-17 0)
(2 1.95592e-16 0)
(2 1.56415e-16 0)
(2 -3.94585e-17 0)
(2 -4.10984e-16 0)
(2 -6.8559e-16 0)
(2 -8.33579e-16 0)
(2 -7.01509e-16 0)
(2 -5.48545e-16 0)
(2 -4.58894e-16 0)
(2 -3.03163e-16 0)
(2 -2.9763e-16 0)
(2 -1.20502e-17 0)
(2 2.74854e-17 0)
(2 5.07653e-18 0)
(2 6.87414e-17 0)
(2 2.07517e-16 0)
(2 2.98408e-16 0)
(2 3.02052e-16 0)
(2 2.36836e-16 0)
(2 1.49595e-16 0)
(2 -1.39454e-17 0)
(2 -2.0327e-16 0)
(2 -2.70781e-16 0)
(2 -3.64004e-16 0)
(2 -4.12037e-16 0)
(2 -1.1726e-16 0)
(2 -2.40794e-17 0)
(2 4.27451e-16 0)
(2 4.66746e-16 0)
(2 3.97342e-16 0)
(2 -1.75178e-17 0)
(2 -3.1206e-16 0)
(2 -6.38788e-16 0)
(2 -6.34286e-16 0)
(2 -1.98227e-16 0)
(2 -9.41557e-17 0)
(2 -2.29239e-16 0)
(2 -1.6432e-16 0)
(2 6.5698e-17 0)
(2 2.54224e-16 0)
(2 4.70263e-16 0)
(2 6.04889e-16 0)
(2 7.31897e-16 0)
(2 8.96214e-16 0)
(2 1.10135e-15 0)
(2 1.57054e-15 0)
(2 1.78987e-15 0)
(2 1.88319e-15 0)
(2 1.90321e-15 0)
(2 1.76732e-15 0)
(2 1.65652e-15 0)
(2 1.56144e-15 0)
(2 1.547e-15 0)
(2 1.5756e-15 0)
(2 1.74542e-15 0)
(2 1.75895e-15 0)
(2 1.53729e-15 0)
(2 1.09772e-15 0)
(2 1.06804e-15 0)
(2 1.14436e-15 0)
(2 1.2817e-15 0)
(2 1.54608e-15 0)
(2 1.80593e-15 0)
(2 2.03756e-15 0)
(2 2.18295e-15 0)
(2 2.25766e-15 0)
(2 2.56526e-15 0)
(2 2.36741e-15 0)
(2 2.03559e-15 0)
(2 2.00828e-15 0)
(2 1.85839e-15 0)
(2 1.42089e-15 0)
(2 9.77268e-16 0)
(2 1.06109e-15 0)
(2 1.13327e-15 0)
(2 1.11654e-15 0)
(2 1.13872e-15 0)
(2 1.18706e-15 0)
(2 1.16081e-15 0)
(2 1.04387e-15 0)
(2 8.19458e-16 0)
(2 7.3708e-16 0)
(2 7.52173e-16 0)
(2 8.72261e-16 0)
(2 1.02887e-15 0)
(2 7.69031e-16 0)
(2 5.30908e-16 0)
(2 3.4691e-16 0)
(2 1.5406e-16 0)
(2 -5.60155e-16 0)
(2 -8.40477e-16 0)
(2 -8.50905e-16 0)
(2 -1.21472e-15 0)
(2 -1.54842e-15 0)
(2 -1.47667e-15 0)
(2 -1.43997e-15 0)
(2 -1.07217e-15 0)
(2 -4.64258e-16 0)
(2 -8.28397e-17 0)
(2 2.2646e-16 0)
(2 9.61937e-16 0)
(2 1.33868e-15 0)
(2 1.67163e-15 0)
(2 1.89696e-15 0)
(2 1.94796e-15 0)
(2 1.85486e-15 0)
(2 1.83514e-15 0)
(2 1.79846e-15 0)
(2 1.83456e-15 0)
(2 2.06017e-15 0)
(2 1.54123e-15 0)
(2 1.02835e-15 0)
(2 6.27011e-16 0)
(2 4.10148e-16 0)
(2 4.58271e-16 0)
(2 6.1477e-16 0)
(2 7.00497e-16 0)
(2 7.01035e-16 0)
(2 5.53104e-16 0)
(2 2.73635e-16 0)
(2 1.24934e-16 0)
(2 2.19921e-17 0)
(2 1.44306e-16 0)
(2 1.82115e-16 0)
(2 5.18934e-16 0)
(2 5.29332e-16 0)
(2 1.36396e-15 0)
(2 1.92423e-15 0)
(2 2.51688e-15 0)
(2 2.7762e-15 0)
(2 2.88983e-15 0)
(2 3.05289e-15 0)
(2 3.04388e-15 0)
(2 2.86397e-15 0)
(2 2.53581e-15 0)
(2 2.15567e-15 0)
(2 1.43997e-15 0)
(2 1.12069e-15 0)
(2 9.42498e-16 0)
(2 7.88559e-16 0)
(2 4.6224e-16 0)
(2 2.12592e-16 0)
(2 1.33741e-16 0)
(2 -5.83994e-17 0)
(2 -4.10154e-16 0)
(2 -6.39397e-16 0)
(2 -6.92078e-16 0)
(2 -5.38736e-16 0)
(2 -3.00936e-16 0)
(2 -2.45731e-16 0)
(2 -1.76117e-16 0)
(2 -1.1716e-16 0)
(2 -1.62098e-16 0)
(2 4.95994e-17 0)
(2 4.17545e-16 0)
(2 3.65972e-16 0)
(2 3.77427e-16 0)
(2 -6.74735e-18 0)
(2 -4.94773e-16 0)
(2 -5.81213e-16 0)
(2 -6.47838e-16 0)
(2 -6.84387e-16 0)
(2 -7.11738e-16 0)
(2 -6.42951e-16 0)
(2 -6.43162e-16 0)
(2 -1.11429e-15 0)
(2 -1.4435e-15 0)
(2 -1.45531e-15 0)
(2 -1.45471e-15 0)
(2 -1.82326e-15 0)
(2 -2.10668e-15 0)
(2 -2.61572e-15 0)
(2 -2.46575e-15 0)
(2 -2.38783e-15 0)
(2 -2.59135e-15 0)
(2 -2.29939e-15 0)
(2 -2.08255e-15 0)
(2 -1.92778e-15 0)
(2 -1.80924e-15 0)
(2 -1.46823e-15 0)
(2 -1.19677e-15 0)
(2 -1.19604e-15 0)
(2 -1.39868e-15 0)
(2 -1.76901e-15 0)
(2 -1.7784e-15 0)
(2 -1.80723e-15 0)
(2 -1.60349e-15 0)
(2 -1.66863e-15 0)
(2 -1.41741e-15 0)
(2 -1.80625e-15 0)
(2 -1.92246e-15 0)
(2 -1.84494e-15 0)
(2 -1.88358e-15 0)
(2 -1.91251e-15 0)
(2 -1.08705e-15 0)
(2 -4.94055e-16 0)
(2 -2.18303e-16 0)
(2 -9.55988e-17 0)
(2 -4.72621e-17 0)
(2 2.88328e-16 0)
(2 3.09701e-16 0)
(2 -2.4265e-18 0)
(2 5.65136e-17 0)
(2 1.67865e-16 0)
(2 1.30085e-16 0)
(2 -2.66811e-16 0)
(2 -1.03871e-17 0)
(2 5.9618e-16 0)
(2 1.35906e-15 0)
(2 1.80958e-15 0)
(2 1.60042e-15 0)
(2 1.54309e-15 0)
(2 1.85053e-15 0)
(2 2.04951e-15 0)
(2 2.3695e-15 0)
(2 2.37305e-15 0)
(2 1.54308e-15 0)
(2 1.48031e-15 0)
(2 1.47079e-15 0)
(2 1.43236e-15 0)
(2 1.5939e-15 0)
(2 1.95283e-15 0)
(2 2.14881e-15 0)
(2 2.56619e-15 0)
(2 2.69765e-15 0)
(2 2.78287e-15 0)
(2 2.67179e-15 0)
(2 2.31831e-15 0)
(2 2.17842e-15 0)
(2 2.37118e-15 0)
(2 2.43511e-15 0)
(2 2.24841e-15 0)
(2 2.18013e-15 0)
(2 2.07477e-15 0)
(2 1.10905e-15 0)
(2 2.17102e-16 0)
(2 -7.30477e-16 0)
(2 -1.05739e-15 0)
(2 -1.9057e-15 0)
(2 -1.95497e-15 0)
(2 -2.00931e-15 0)
(2 -2.19619e-15 0)
(2 -2.4176e-15 0)
(2 -2.49653e-15 0)
(2 -2.18053e-15 0)
(2 -1.82811e-15 0)
(2 -1.39917e-15 0)
(2 -6.53018e-16 0)
(2 -4.0029e-16 0)
(2 -5.22867e-16 0)
(2 -3.24962e-16 0)
(2 -8.03817e-16 0)
(2 2.36099e-18 0)
(2 2.95242e-18 0)
(2 -3.73619e-17 0)
(2 -1.37606e-17 0)
(2 7.48198e-17 0)
(2 -1.29589e-17 0)
(2 -5.84183e-17 0)
(2 -2.66301e-16 0)
(2 -3.37569e-16 0)
(2 -3.2734e-16 0)
(2 -2.66293e-16 0)
(2 -2.43988e-16 0)
(2 -1.86732e-16 0)
(2 -9.82116e-17 0)
(2 1.49868e-17 0)
(2 6.73879e-17 0)
(2 1.3116e-16 0)
(2 1.95251e-16 0)
(2 2.60344e-16 0)
(2 2.76928e-16 0)
(2 3.0792e-16 0)
(2 2.94298e-16 0)
(2 2.54721e-16 0)
(2 1.39177e-16 0)
(2 3.14985e-17 0)
(2 -1.31642e-16 0)
(2 -2.2664e-16 0)
(2 -2.55e-16 0)
(2 -1.14701e-16 0)
(2 -7.35911e-17 0)
(2 -5.7237e-17 0)
(2 -2.38345e-17 0)
(2 -2.11546e-17 0)
(2 -9.96125e-17 0)
(2 -1.39498e-16 0)
(2 -2.84886e-16 0)
(2 -6.10519e-16 0)
(2 -8.45713e-16 0)
(2 -9.06042e-16 0)
(2 -7.04583e-16 0)
(2 -4.49754e-16 0)
(2 -5.22264e-16 0)
(2 -6.22003e-16 0)
(2 -7.97968e-16 0)
(2 -1.01902e-15 0)
(2 -1.88169e-15 0)
(2 -2.44697e-15 0)
(2 -2.64546e-15 0)
(2 -2.60168e-15 0)
(2 -2.32672e-15 0)
(2 -2.21232e-15 0)
(2 -1.73208e-15 0)
(2 -1.30107e-15 0)
(2 -8.94491e-16 0)
(2 -7.07788e-16 0)
(2 -3.1084e-17 0)
(2 2.43476e-16 0)
(2 2.9106e-16 0)
(2 2.09404e-16 0)
(2 2.1277e-16 0)
(2 1.60457e-16 0)
(2 1.01132e-16 0)
(2 9.59165e-17 0)
(2 5.10806e-17 0)
(2 -2.21834e-16 0)
(2 -4.43898e-16 0)
(2 -7.46988e-16 0)
(2 -1.12047e-15 0)
(2 -1.15861e-15 0)
(2 -1.02579e-15 0)
(2 -8.07778e-16 0)
(2 -5.24994e-16 0)
(2 -1.5717e-16 0)
(2 -2.47625e-16 0)
(2 -9.04255e-16 0)
(2 -1.4409e-15 0)
(2 -1.33081e-15 0)
(2 -8.26938e-16 0)
(2 -2.83423e-16 0)
(2 -3.72653e-17 0)
(2 -1.12166e-16 0)
(2 -5.17091e-16 0)
(2 -8.70359e-16 0)
(2 -9.64873e-16 0)
(2 -1.18759e-15 0)
(2 -1.47624e-15 0)
(2 -1.58843e-15 0)
(2 -1.82465e-15 0)
(2 -2.15921e-15 0)
(2 -2.38052e-15 0)
(2 -2.51433e-15 0)
(2 -2.29209e-15 0)
(2 -2.11451e-15 0)
(2 -2.06471e-15 0)
(2 -1.84824e-15 0)
(2 -1.72751e-15 0)
(2 -1.595e-15 0)
(2 -1.26695e-15 0)
(2 -9.98487e-16 0)
(2 -6.16338e-16 0)
(2 -2.81977e-16 0)
(2 -2.42499e-16 0)
(2 -2.06697e-16 0)
(2 -3.42313e-16 0)
(2 -4.25358e-16 0)
(2 -5.50993e-16 0)
(2 -8.23231e-16 0)
(2 -1.12459e-15 0)
(2 -1.13547e-15 0)
(2 -1.0555e-15 0)
(2 -9.03157e-16 0)
(2 -9.93728e-16 0)
(2 -1.16558e-15 0)
(2 -1.33178e-15 0)
(2 -1.48953e-15 0)
(2 -1.63842e-15 0)
(2 -2.34787e-15 0)
(2 -2.07901e-15 0)
(2 -1.71448e-15 0)
(2 -1.70894e-15 0)
(2 -1.57034e-15 0)
(2 -1.46115e-15 0)
(2 -1.51284e-15 0)
(2 -1.794e-15 0)
(2 -2.14057e-15 0)
(2 -2.68926e-15 0)
(2 -2.89862e-15 0)
(2 -3.12789e-15 0)
(2 -3.12972e-15 0)
(2 -3.08358e-15 0)
(2 -3.03418e-15 0)
(2 -3.00758e-15 0)
(2 -2.8316e-15 0)
(2 -2.65405e-15 0)
(2 -2.56787e-15 0)
(2 -2.46047e-15 0)
(2 -2.38902e-15 0)
(2 -2.41506e-15 0)
(2 -2.35739e-15 0)
(2 -2.26098e-15 0)
(2 -2.19786e-15 0)
(2 -2.37224e-15 0)
(2 -2.55293e-15 0)
(2 -2.87192e-15 0)
(2 -3.08301e-15 0)
(2 -3.25497e-15 0)
(2 -3.34039e-15 0)
(2 -3.52911e-15 0)
(2 -3.54745e-15 0)
(2 -3.55611e-15 0)
(2 -3.59967e-15 0)
(2 -3.60556e-15 0)
(2 -3.55267e-15 0)
(2 -3.41943e-15 0)
(2 -3.19495e-15 0)
(2 -2.86436e-15 0)
(2 -2.72677e-15 0)
(2 -2.6388e-15 0)
(2 -2.51482e-15 0)
(2 -2.26627e-15 0)
(2 -2.00426e-15 0)
(2 -1.83097e-15 0)
(2 -1.81845e-15 0)
(2 -1.92834e-15 0)
(2 -2.03236e-15 0)
(2 -2.50164e-15 0)
(2 -2.47665e-15 0)
(2 -2.43039e-15 0)
(2 -2.43834e-15 0)
(2 -1.87365e-15 0)
(2 -1.47944e-15 0)
(2 -1.34991e-15 0)
(2 -1.28022e-15 0)
(2 -1.34312e-15 0)
(2 -1.84142e-15 0)
(2 -1.93784e-15 0)
(2 -1.50268e-15 0)
(2 -1.08159e-15 0)
(2 -7.31772e-16 0)
(2 -3.75598e-16 0)
(2 -2.69539e-16 0)
(2 -7.38668e-17 0)
(2 -7.0569e-17 0)
(2 -8.72195e-17 0)
(2 3.10952e-17 0)
(2 1.24942e-16 0)
(2 1.23296e-16 0)
(2 1.11449e-16 0)
(2 2.06689e-16 0)
(2 4.33184e-16 0)
(2 4.4897e-16 0)
(2 4.55338e-16 0)
(2 4.69728e-16 0)
(2 -1.21508e-17 0)
(2 -3.35794e-17 0)
(2 6.04328e-17 0)
(2 1.76951e-16 0)
(2 4.20149e-16 0)
(2 4.46168e-16 0)
(2 3.45435e-16 0)
(2 3.25693e-16 0)
(2 4.26717e-16 0)
(2 8.41741e-17 0)
(2 -7.70003e-18 0)
(2 1.15586e-16 0)
(2 4.43223e-16 0)
(2 9.54525e-16 0)
(2 1.33582e-15 0)
(2 1.3813e-15 0)
(2 1.35486e-15 0)
(2 1.51652e-15 0)
(2 1.71262e-15 0)
(2 2.04895e-15 0)
(2 2.3e-15 0)
(2 2.50341e-15 0)
(2 2.59368e-15 0)
(2 2.65182e-15 0)
(2 2.59279e-15 0)
(2 2.30672e-15 0)
(2 2.2031e-15 0)
(2 1.74401e-15 0)
(2 1.12472e-15 0)
(2 8.20428e-16 0)
(2 6.27082e-16 0)
(2 5.16494e-16 0)
(2 3.37341e-16 0)
(2 5.16172e-17 0)
(2 -2.03376e-16 0)
(2 -2.41937e-16 0)
(2 -4.32794e-18 0)
(2 -8.3041e-17 0)
(2 3.21226e-16 0)
(2 5.55587e-16 0)
(2 7.82678e-16 0)
(2 1.16439e-15 0)
(2 1.43126e-15 0)
(2 1.89811e-15 0)
(2 2.03181e-15 0)
(2 2.04358e-15 0)
(2 2.02215e-15 0)
(2 1.83264e-15 0)
(2 1.20877e-15 0)
(2 9.80456e-16 0)
(2 1.08231e-15 0)
(2 1.36393e-15 0)
(2 1.39283e-15 0)
(2 1.59606e-15 0)
(2 1.58319e-15 0)
(2 1.34657e-15 0)
(2 1.04609e-15 0)
(2 8.06683e-16 0)
(2 5.95409e-16 0)
(2 4.53557e-16 0)
(2 2.22462e-16 0)
(2 2.50404e-17 0)
(2 -1.12441e-16 0)
(2 -5.97523e-16 0)
(2 -7.99743e-16 0)
(2 -9.23395e-16 0)
(2 -8.84277e-16 0)
(2 -4.76422e-16 0)
(2 -2.52566e-16 0)
(2 7.6797e-17 0)
(2 6.95541e-16 0)
(2 7.83421e-16 0)
(2 6.26184e-16 0)
(2 3.99718e-16 0)
(2 1.24805e-16 0)
(2 7.99067e-17 0)
(2 1.13395e-16 0)
(2 -4.69848e-17 0)
(2 -1.63373e-16 0)
(2 -7.64097e-17 0)
(2 -6.53364e-17 0)
(2 -1.39915e-16 0)
(2 -2.44741e-16 0)
(2 -2.49893e-16 0)
(2 -1.81328e-16 0)
(2 -4.60506e-16 0)
(2 -6.34708e-16 0)
(2 -1.02549e-15 0)
(2 -1.43211e-15 0)
(2 -1.48144e-15 0)
(2 -1.36354e-15 0)
(2 -1.20524e-15 0)
(2 -9.76391e-16 0)
(2 -6.54094e-16 0)
(2 -2.58606e-16 0)
(2 1.3331e-16 0)
(2 1.71322e-16 0)
(2 3.42237e-16 0)
(2 9.08988e-16 0)
(2 1.09197e-15 0)
(2 6.48917e-16 0)
(2 -1.54592e-16 0)
(2 -2.55222e-16 0)
(2 -4.64978e-16 0)
(2 -1.1231e-15 0)
(2 -9.78925e-16 0)
(2 -1.4987e-15 0)
(2 -2.56234e-15 0)
(2 -2.77172e-15 0)
(2 -2.8342e-15 0)
(2 -3.22349e-15 0)
(2 -3.39331e-15 0)
(2 -2.85619e-15 0)
(2 -2.60889e-15 0)
(2 -2.48431e-15 0)
(2 -2.40804e-15 0)
(2 -2.1656e-15 0)
(2 -1.8064e-15 0)
(2 -1.71049e-15 0)
(2 -1.35235e-15 0)
(2 -1.18548e-15 0)
(2 -1.0534e-15 0)
(2 -1.13279e-15 0)
(2 -1.36515e-15 0)
(2 -1.51618e-15 0)
(2 -1.44332e-15 0)
(2 -1.28255e-15 0)
(2 -1.22402e-15 0)
(2 -1.27051e-15 0)
(2 -8.26926e-16 0)
(2 -7.49294e-16 0)
(2 -8.09702e-16 0)
(2 -1.09057e-15 0)
(2 -1.23321e-15 0)
(2 -1.3774e-15 0)
(2 -1.2979e-15 0)
(2 -1.16514e-15 0)
(2 -1.32854e-15 0)
(2 -1.45926e-15 0)
(2 -1.62735e-15 0)
(2 -2.13995e-15 0)
(2 -2.12682e-15 0)
(2 -1.38524e-15 0)
(2 -1.277e-15 0)
(2 -1.33996e-15 0)
(2 -4.13219e-16 0)
(2 6.09409e-16 0)
(2 8.22485e-16 0)
(2 7.34687e-16 0)
(2 5.16182e-16 0)
(2 8.70683e-16 0)
(2 1.31875e-15 0)
(2 1.31341e-15 0)
(2 1.01107e-15 0)
(2 9.51167e-16 0)
(2 1.03369e-15 0)
(2 1.09984e-15 0)
(2 1.0972e-15 0)
(2 1.20733e-15 0)
(2 1.51062e-15 0)
(2 1.64124e-15 0)
(2 1.44771e-15 0)
(2 1.22178e-15 0)
(2 1.10752e-15 0)
(2 1.11798e-15 0)
(2 1.22816e-15 0)
(2 1.23523e-15 0)
(2 1.26844e-15 0)
(2 1.47014e-15 0)
(2 1.56146e-15 0)
(2 1.28265e-15 0)
(2 1.20617e-15 0)
(2 1.26667e-15 0)
(2 1.40452e-15 0)
(2 1.4769e-15 0)
(2 1.51797e-15 0)
(2 1.54397e-15 0)
(2 1.36384e-15 0)
(2 -1.7019e-16 0)
(2 -1.64995e-15 0)
(2 -1.72476e-15 0)
(2 -1.70696e-15 0)
(2 -1.88716e-15 0)
(2 -1.87744e-15 0)
(2 -1.63479e-15 0)
(2 -1.40441e-15 0)
(2 -1.36973e-15 0)
(2 -1.38555e-15 0)
(2 -1.49381e-15 0)
(2 -1.36068e-15 0)
(2 -1.37169e-15 0)
(2 -4.80287e-18 0)
(2 -5.89482e-17 0)
(2 -5.4837e-17 0)
(2 -7.21798e-17 0)
(2 -6.54672e-17 0)
(2 -3.11333e-17 0)
(2 -8.04876e-17 0)
(2 -1.49256e-16 0)
(2 -1.97264e-16 0)
(2 -2.1425e-16 0)
(2 -2.43787e-16 0)
(2 -2.83163e-16 0)
(2 -1.62953e-16 0)
(2 -1.04474e-16 0)
(2 -2.57124e-17 0)
(2 -3.59787e-17 0)
(2 -2.06458e-17 0)
(2 4.23775e-19 0)
(2 1.31749e-16 0)
(2 2.35296e-16 0)
(2 3.24581e-16 0)
(2 3.67782e-16 0)
(2 3.70032e-16 0)
(2 3.42465e-16 0)
(2 1.73861e-16 0)
(2 -3.84296e-17 0)
(2 -1.09151e-16 0)
(2 -2.76077e-17 0)
(2 -1.18305e-16 0)
(2 -2.06138e-16 0)
(2 -3.13422e-16 0)
(2 -3.26901e-16 0)
(2 -3.00636e-16 0)
(2 -2.46431e-16 0)
(2 -3.9721e-16 0)
(2 -2.3998e-16 0)
(2 -1.94894e-16 0)
(2 -2.61455e-16 0)
(2 -3.91693e-16 0)
(2 -5.05699e-16 0)
(2 -4.70756e-16 0)
(2 -1.32168e-16 0)
(2 -5.30359e-17 0)
(2 -1.20276e-16 0)
(2 -1.85977e-16 0)
(2 -3.49432e-16 0)
(2 -7.3724e-16 0)
(2 -7.74374e-16 0)
(2 -1.02526e-15 0)
(2 -1.07563e-15 0)
(2 -1.08904e-15 0)
(2 -1.23143e-15 0)
(2 -1.26178e-15 0)
(2 -1.33125e-15 0)
(2 -1.45282e-15 0)
(2 -1.31674e-15 0)
(2 -8.68864e-16 0)
(2 -7.71837e-16 0)
(2 -7.15301e-16 0)
(2 -6.35011e-16 0)
(2 -5.00367e-16 0)
(2 -3.06369e-16 0)
(2 -2.31252e-16 0)
(2 -2.5375e-16 0)
(2 -3.52791e-16 0)
(2 -4.48193e-16 0)
(2 -7.94652e-16 0)
(2 -1.16314e-15 0)
(2 -1.36945e-15 0)
(2 -1.46853e-15 0)
(2 -1.49709e-15 0)
(2 -1.42269e-15 0)
(2 -1.25378e-15 0)
(2 -1.12595e-15 0)
(2 -1.05672e-15 0)
(2 -1.02465e-15 0)
(2 -1.16835e-15 0)
(2 -1.47384e-15 0)
(2 -1.52987e-15 0)
(2 -1.49568e-15 0)
(2 -1.73131e-15 0)
(2 -1.9508e-15 0)
(2 -1.60147e-15 0)
(2 -1.56998e-15 0)
(2 -1.62363e-15 0)
(2 -1.90155e-15 0)
(2 -2.33127e-15 0)
(2 -2.49038e-15 0)
(2 -2.48644e-15 0)
(2 -2.43818e-15 0)
(2 -2.38319e-15 0)
(2 -2.1471e-15 0)
(2 -1.92729e-15 0)
(2 -1.75332e-15 0)
(2 -1.45965e-15 0)
(2 -1.23537e-15 0)
(2 -1.13113e-15 0)
(2 -8.38847e-16 0)
(2 -5.34677e-16 0)
(2 -9.90305e-17 0)
(2 3.55088e-16 0)
(2 5.65066e-16 0)
(2 1.19869e-15 0)
(2 1.3466e-15 0)
(2 1.3451e-15 0)
(2 1.06587e-15 0)
(2 9.18485e-16 0)
(2 7.35764e-16 0)
(2 5.07989e-16 0)
(2 1.53443e-16 0)
(2 -7.75501e-17 0)
(2 -1.02463e-15 0)
(2 -1.47121e-15 0)
(2 -2.17723e-15 0)
(2 -2.57243e-15 0)
(2 -2.50111e-15 0)
(2 -2.06822e-15 0)
(2 -1.94161e-15 0)
(2 -1.92549e-15 0)
(2 -1.97219e-15 0)
(2 -2.12032e-15 0)
(2 -2.14e-15 0)
(2 -2.02983e-15 0)
(2 -2.00694e-15 0)
(2 -2.12716e-15 0)
(2 -2.27788e-15 0)
(2 -2.83528e-15 0)
(2 -3.03419e-15 0)
(2 -3.33322e-15 0)
(2 -3.31782e-15 0)
(2 -3.35299e-15 0)
(2 -3.39172e-15 0)
(2 -3.03854e-15 0)
(2 -2.51301e-15 0)
(2 -2.47431e-15 0)
(2 -2.41246e-15 0)
(2 -2.42335e-15 0)
(2 -2.48475e-15 0)
(2 -2.73876e-15 0)
(2 -3.0296e-15 0)
(2 -2.95887e-15 0)
(2 -2.76643e-15 0)
(2 -2.8671e-15 0)
(2 -3.66501e-15 0)
(2 -3.86075e-15 0)
(2 -3.97555e-15 0)
(2 -4.017e-15 0)
(2 -4.03103e-15 0)
(2 -4.02157e-15 0)
(2 -4.01823e-15 0)
(2 -4.01715e-15 0)
(2 -3.9989e-15 0)
(2 -3.85435e-15 0)
(2 -3.53995e-15 0)
(2 -3.03604e-15 0)
(2 -2.42082e-15 0)
(2 -2.37687e-15 0)
(2 -2.73656e-15 0)
(2 -2.70961e-15 0)
(2 -2.24662e-15 0)
(2 -1.89861e-15 0)
(2 -1.784e-15 0)
(2 -1.62243e-15 0)
(2 -7.21404e-16 0)
(2 -4.33878e-16 0)
(2 -4.77638e-16 0)
(2 -3.48167e-16 0)
(2 9.24019e-17 0)
(2 2.52625e-16 0)
(2 3.48796e-16 0)
(2 4.43509e-16 0)
(2 4.00698e-16 0)
(2 2.59011e-16 0)
(2 1.01039e-16 0)
(2 -4.75874e-17 0)
(2 -1.57566e-16 0)
(2 -2.64502e-16 0)
(2 -2.52458e-16 0)
(2 -6.81962e-17 0)
(2 -3.21074e-17 0)
(2 1.79163e-16 0)
(2 3.72289e-16 0)
(2 5.06675e-16 0)
(2 6.34622e-16 0)
(2 6.36286e-16 0)
(2 5.9808e-16 0)
(2 3.9007e-16 0)
(2 3.019e-16 0)
(2 2.32343e-16 0)
(2 2.98473e-16 0)
(2 1.74176e-16 0)
(2 1.25637e-16 0)
(2 -4.24252e-16 0)
(2 -6.49155e-16 0)
(2 -6.92174e-16 0)
(2 -7.55901e-16 0)
(2 -7.73159e-16 0)
(2 -8.24706e-16 0)
(2 -8.68293e-16 0)
(2 -8.53641e-16 0)
(2 -7.75933e-16 0)
(2 -4.17429e-16 0)
(2 3.60856e-17 0)
(2 5.20606e-16 0)
(2 8.88427e-16 0)
(2 9.2436e-16 0)
(2 8.84991e-16 0)
(2 9.48351e-16 0)
(2 9.53908e-16 0)
(2 9.2468e-16 0)
(2 8.50603e-16 0)
(2 6.28674e-16 0)
(2 2.57557e-16 0)
(2 1.14156e-17 0)
(2 -4.1206e-16 0)
(2 -4.80568e-16 0)
(2 -4.79189e-16 0)
(2 -3.76061e-16 0)
(2 -1.00892e-16 0)
(2 -5.4713e-17 0)
(2 7.40062e-17 0)
(2 3.00873e-16 0)
(2 4.29704e-16 0)
(2 4.72956e-16 0)
(2 5.17598e-16 0)
(2 5.46655e-16 0)
(2 4.93374e-16 0)
(2 2.50916e-16 0)
(2 1.11239e-16 0)
(2 1.72932e-16 0)
(2 -2.36442e-16 0)
(2 -5.06387e-16 0)
(2 -5.10918e-16 0)
(2 -3.65837e-16 0)
(2 -1.23464e-16 0)
(2 -5.61824e-17 0)
(2 5.73281e-17 0)
(2 1.29619e-16 0)
(2 1.35228e-16 0)
(2 -1.85614e-17 0)
(2 -4.87222e-16 0)
(2 -1.01368e-15 0)
(2 -1.1306e-15 0)
(2 -8.43094e-16 0)
(2 -5.65707e-16 0)
(2 -1.26434e-16 0)
(2 -4.75763e-17 0)
(2 -9.39408e-17 0)
(2 4.48768e-17 0)
(2 1.6849e-16 0)
(2 2.13417e-16 0)
(2 2.59699e-16 0)
(2 3.0236e-16 0)
(2 1.22654e-16 0)
(2 -2.19502e-17 0)
(2 -3.75992e-16 0)
(2 -6.54096e-16 0)
(2 -9.22856e-16 0)
(2 -9.68562e-16 0)
(2 -1.25323e-15 0)
(2 -1.56988e-15 0)
(2 -1.86714e-15 0)
(2 -2.20311e-15 0)
(2 -2.49991e-15 0)
(2 -2.54972e-15 0)
(2 -1.93338e-15 0)
(2 -1.52157e-15 0)
(2 -1.22628e-15 0)
(2 -7.31144e-16 0)
(2 -6.92726e-17 0)
(2 1.31189e-17 0)
(2 -7.40971e-17 0)
(2 -8.93422e-17 0)
(2 -8.24072e-17 0)
(2 -2.746e-17 0)
(2 7.05305e-17 0)
(2 1.38463e-17 0)
(2 -2.3631e-16 0)
(2 -5.84778e-16 0)
(2 -9.43029e-16 0)
(2 -1.23849e-15 0)
(2 -1.26289e-15 0)
(2 -1.2097e-15 0)
(2 -1.42553e-15 0)
(2 -1.60622e-15 0)
(2 -1.94573e-15 0)
(2 -2.04381e-15 0)
(2 -1.95838e-15 0)
(2 -1.82077e-15 0)
(2 -1.505e-15 0)
(2 -1.15155e-15 0)
(2 -9.07297e-16 0)
(2 -7.34648e-16 0)
(2 -6.65657e-16 0)
(2 -5.56854e-16 0)
(2 -7.5009e-16 0)
(2 -8.20656e-16 0)
(2 -7.9933e-16 0)
(2 -1.14147e-15 0)
(2 -1.29272e-15 0)
(2 -1.50509e-15 0)
(2 -1.56544e-15 0)
(2 -1.59281e-15 0)
(2 -1.51364e-15 0)
(2 -1.72336e-15 0)
(2 -1.92312e-15 0)
(2 -2.13604e-15 0)
(2 -1.92446e-15 0)
(2 -1.88145e-15 0)
(2 -1.75857e-15 0)
(2 -1.47208e-15 0)
(2 -1.28665e-15 0)
(2 -1.0754e-15 0)
(2 -6.97442e-16 0)
(2 -5.56407e-16 0)
(2 2.20291e-16 0)
(2 7.15529e-16 0)
(2 9.08096e-16 0)
(2 7.87079e-16 0)
(2 4.86394e-16 0)
(2 4.63346e-16 0)
(2 1.33136e-16 0)
(2 8.2979e-17 0)
(2 6.756e-16 0)
(2 6.29536e-16 0)
(2 3.11339e-16 0)
(2 -3.08166e-16 0)
(2 -4.46754e-16 0)
(2 -1.00841e-15 0)
(2 -1.78083e-15 0)
(2 -2.22508e-15 0)
(2 -2.35871e-15 0)
(2 -2.24169e-15 0)
(2 -2.18208e-15 0)
(2 -2.17158e-15 0)
(2 -2.065e-15 0)
(2 -1.99097e-15 0)
(2 -1.93627e-15 0)
(2 -1.88988e-15 0)
(2 -1.78757e-15 0)
(2 -1.41352e-15 0)
(2 -1.18976e-15 0)
(2 -1.07228e-15 0)
(2 -8.51841e-16 0)
(2 -1.90633e-16 0)
(2 -1.0167e-17 0)
(2 2.14428e-16 0)
(2 2.70056e-16 0)
(2 1.86722e-16 0)
(2 1.97862e-17 0)
(2 1.28312e-16 0)
(2 2.34634e-16 0)
(2 3.91847e-16 0)
(2 4.82131e-16 0)
(2 1.76873e-16 0)
(2 -3.2418e-16 0)
(2 -3.7839e-16 0)
(2 -3.83092e-16 0)
(2 -5.75572e-16 0)
(2 -7.96315e-16 0)
(2 -1.01216e-15 0)
(2 -1.34071e-15 0)
(2 -1.90501e-15 0)
(2 -1.76127e-15 0)
(2 -1.32122e-15 0)
(2 -1.13254e-15 0)
(2 -1.10575e-15 0)
(2 -9.90348e-16 0)
(2 -6.8556e-16 0)
(2 -4.90012e-16 0)
(2 -4.27549e-16 0)
(2 -5.38664e-16 0)
(2 -4.02357e-16 0)
(2 -3.4957e-16 0)
(2 -6.63156e-16 0)
(2 -8.6484e-16 0)
(2 -1.30108e-15 0)
(2 -1.85153e-15 0)
(2 -2.06341e-15 0)
(2 -2.42633e-15 0)
(2 -2.62604e-15 0)
(2 -2.79818e-15 0)
(2 -2.85396e-15 0)
(2 -2.94701e-15 0)
(2 -4.44148e-18 0)
(2 1.39714e-17 0)
(2 2.70373e-17 0)
(2 2.83312e-17 0)
(2 -8.57767e-17 0)
(2 -1.58773e-16 0)
(2 -3.14606e-16 0)
(2 -3.23744e-16 0)
(2 -2.11637e-17 0)
(2 1.04615e-16 0)
(2 2.77638e-16 0)
(2 3.77463e-16 0)
(2 4.02087e-16 0)
(2 4.40059e-16 0)
(2 3.47076e-16 0)
(2 2.81783e-16 0)
(2 2.11388e-16 0)
(2 1.27321e-16 0)
(2 1.37259e-16 0)
(2 1.50145e-16 0)
(2 2.66343e-16 0)
(2 2.4742e-16 0)
(2 1.18363e-16 0)
(2 8.24816e-17 0)
(2 6.62008e-17 0)
(2 1.2143e-16 0)
(2 2.08416e-16 0)
(2 3.13437e-16 0)
(2 3.59091e-16 0)
(2 5.2719e-16 0)
(2 7.14242e-16 0)
(2 7.7836e-16 0)
(2 7.54004e-16 0)
(2 7.76305e-16 0)
(2 9.79396e-16 0)
(2 1.02187e-15 0)
(2 9.51492e-16 0)
(2 9.31269e-16 0)
(2 6.06226e-16 0)
(2 4.75324e-16 0)
(2 3.25152e-17 0)
(2 -1.01087e-16 0)
(2 -9.0853e-17 0)
(2 -9.43597e-17 0)
(2 -1.35055e-16 0)
(2 -2.53257e-16 0)
(2 -2.41149e-16 0)
(2 -5.39667e-17 0)
(2 6.05108e-17 0)
(2 -1.71004e-18 0)
(2 -6.7921e-17 0)
(2 -2.33426e-16 0)
(2 -5.73821e-16 0)