/*--------------------------------*- C++ -*----------------------------------*\
  =========                 |
  \\      /  F ield         | OpenFOAM: The Open Source CFD Toolbox
   \\    /   O peration     | Website:  https://openfoam.org
    \\  /    A nd           | Version:  7
     \\/     M anipulation  |
\*---------------------------------------------------------------------------*/
FoamFile
{
    version     2.0;
    format      ascii;
    class       volScalarField;
    location    "11";
    object      p;
}
// * * * * * * * * * * * * * * * * * * * * * * * * * * * * * * * * * * * * * //

dimensions      [1 -1 -2 0 0 0 0];

internalField   nonuniform List<scalar> 
2413
(
1.84344
1.83543
1.81554
1.78848
1.75915
1.73136
1.70588
1.68325
1.66295
1.64501
1.62923
1.61613
1.60576
1.59725
1.58959
1.5825
1.5758
1.56923
1.56276
1.55643
1.54984
1.54287
1.53454
1.52441
1.51252
1.4987
1.48298
1.46503
1.44452
1.42114
1.39484
1.36587
1.33468
1.30165
1.267
1.23107
1.19431
1.1575
1.12134
1.08617
1.05298
1.02368
0.998768
0.976314
0.954923
0.93517
0.918449
0.90505
0.894662
0.886936
0.881644
0.878505
0.877026
0.876654
0.8771
0.878107
0.879529
0.881412
0.883921
0.886758
0.889589
0.892256
0.894665
0.896793
0.898387
0.899125
0.899013
0.898452
0.89787
0.897547
0.897738
0.898665
0.900546
0.903727
0.908647
0.915524
0.924879
0.936807
0.950978
0.967391
0.985402
1.00458
1.02488
1.04623
1.069
1.0929
1.11807
1.14372
1.84047
1.82692
1.81405
1.79642
1.77759
1.7548
1.72777
1.7006
1.67752
1.65826
1.64041
1.62187
1.60418
1.58905
1.57692
1.56749
1.56022
1.55455
1.55006
1.54662
1.5437
1.54098
1.5375
1.53233
1.52448
1.5126
1.49723
1.4786
1.45717
1.43291
1.40595
1.37628
1.3441
1.30982
1.27379
1.23622
1.19768
1.15938
1.12231
1.08607
1.05081
1.01919
0.992271
0.968463
0.946872
0.927816
0.911581
0.898154
0.887513
0.879614
0.87427
0.87106
0.869757
0.869959
0.871505
0.874192
0.877726
0.881732
0.885689
0.889352
0.892734
0.895958
0.898867
0.901306
0.903085
0.903995
0.904251
0.904003
0.903408
0.902572
0.901759
0.901403
0.901839
0.903133
0.90571
0.909707
0.915599
0.923779
0.934582
0.948803
0.965969
0.985352
1.00692
1.03032
1.05461
1.08029
1.10799
1.13616
1.90375
1.8538
1.80331
1.7663
1.74323
1.72563
1.70796
1.6905
1.67014
1.64698
1.62307
1.60221
1.59013
1.58616
1.58853
1.59316
1.59611
1.59451
1.58693
1.57712
1.56747
1.55806
1.54875
1.5386
1.52678
1.51318
1.49804
1.48158
1.46298
1.44183
1.41749
1.38851
1.35473
1.31748
1.27849
1.23885
1.19831
1.1574
1.11913
1.08353
1.04801
1.01447
0.986282
0.962422
0.942014
0.924789
0.910149
0.897764
0.887621
0.879609
0.873512
0.869791
0.868159
0.86848
0.870602
0.874048
0.878477
0.883486
0.888856
0.894216
0.899342
0.903917
0.907786
0.910882
0.913146
0.914489
0.914934
0.914575
0.913638
0.912182
0.910754
0.909565
0.908758
0.908762
0.909648
0.911619
0.915003
0.919991
0.927203
0.937206
0.950322
0.966653
0.986509
1.00957
1.03523
1.06318
1.0933
1.12464
1.85166
1.8768
1.87086
1.82837
1.77725
1.72729
1.69196
1.6753
1.668
1.66195
1.65234
1.6402
1.62591
1.61579
1.60779
1.60045
1.59226
1.58078
1.5679
1.55756
1.55073
1.54791
1.54693
1.54554
1.54282
1.53695
1.52547
1.50788
1.48398
1.45481
1.42118
1.38597
1.35036
1.31338
1.27586
1.23891
1.20091
1.15963
1.11937
1.0863
1.0536
1.01919
0.988655
0.964114
0.943488
0.926118
0.911879
0.90026
0.890602
0.883083
0.878443
0.875993
0.875611
0.877182
0.880162
0.884236
0.889091
0.894403
0.899956
0.905394
0.910467
0.914868
0.918711
0.922062
0.92474
0.926785
0.928234
0.928918
0.928925
0.928521
0.927837
0.926722
0.925536
0.924637
0.924207
0.924362
0.924938
0.927097
0.931113
0.936641
0.944875
0.956072
0.970861
0.989215
1.0114
1.03681
1.0651
1.0977
1.72784
1.80666
1.8221
1.82191
1.81294
1.78514
1.74137
1.69754
1.66458
1.64354
1.63503
1.63193
1.62972
1.63171
1.63568
1.63742
1.63376
1.62282
1.60556
1.58757
1.57416
1.56675
1.56337
1.56197
1.55909
1.55113
1.53646
1.51404
1.48557
1.45357
1.42004
1.38757
1.35699
1.32517
1.28796
1.24886
1.21057
1.16966
1.12465
1.08794
1.05906
1.02666
0.994315
0.970988
0.952341
0.936411
0.923339
0.912624
0.903718
0.897707
0.893373
0.890794
0.890779
0.892442
0.895228
0.899095
0.903785
0.909057
0.914654
0.919986
0.924921
0.929532
0.933714
0.937472
0.940714
0.943365
0.945254
0.946397
0.947022
0.947116
0.946746
0.946098
0.945315
0.944536
0.944598
0.943732
0.942689
0.944644
0.947065
0.949799
0.955202
0.963477
0.973429
0.986564
1.00231
1.02069
1.042
1.06798
1.47422
1.67892
1.73868
1.77984
1.78867
1.78286
1.77122
1.75045
1.71769
1.67989
1.64743
1.62702
1.6114
1.60512
1.60593
1.61239
1.62841
1.64378
1.65032
1.64582
1.62872
1.60678
1.58454
1.56413
1.54629
1.53064
1.51588
1.49873
1.4779
1.45478
1.42896
1.40024
1.37191
1.34318
1.30842
1.2677
1.22951
1.19389
1.15184
1.10894
1.08327
1.05641
1.02079
0.997488
0.983978
0.964262
0.949422
0.939707
0.931089
0.92265
0.91607
0.914439
0.914609
0.915615
0.918234
0.921956
0.926415
0.931175
0.935754
0.940114
0.94434
0.94836
0.951892
0.954643
0.956838
0.958683
0.960063
0.961168
0.961848
0.962181
0.962423
0.962843
0.963316
0.963812
0.96505
0.96574
0.96548
0.967729
0.970579
0.972541
0.978054
0.985277
0.992719
1.00362
1.01427
1.02575
1.03831
1.05333
1.15367
1.3579
1.53896
1.67807
1.75081
1.76137
1.76032
1.75295
1.74162
1.72709
1.70231
1.67417
1.64596
1.62197
1.60651
1.59845
1.59774
1.6053
1.61506
1.6258
1.63402
1.63605
1.63051
1.61645
1.59693
1.57468
1.55057
1.52365
1.49457
1.46407
1.43201
1.39812
1.36442
1.33438
1.30595
1.27251
1.24037
1.21451
1.18309
1.14225
1.11455
1.09245
1.05952
1.03067
1.01933
1.00109
0.982237
0.974233
0.965016
0.954051
0.949403
0.949247
0.947342
0.946824
0.949633
0.952828
0.955725
0.959182
0.963136
0.966563
0.969574
0.972682
0.97537
0.9775
0.978993
0.980094
0.981052
0.981873
0.981785
0.981554
0.98179
0.982702
0.983173
0.98318
0.984688
0.9874
0.988502
0.99048
0.994303
0.997977
1.00488
1.01297
1.02131
1.03321
1.0421
1.05091
1.05909
1.06532
1.01838
1.08237
1.21602
1.40317
1.56992
1.67332
1.73486
1.74699
1.744
1.74004
1.73062
1.71522
1.69461
1.66903
1.64512
1.62631
1.61318
1.60698
1.6038
1.60438
1.6065
1.60754
1.60711
1.60786
1.60346
1.59486
1.5826
1.56608
1.5453
1.51912
1.48622
1.44822
1.40722
1.36692
1.33099
1.29386
1.25576
1.22873
1.20273
1.16686
1.1372
1.11873
1.09375
1.06248
1.05101
1.0398
1.02276
1.01135
1.00083
0.993103
0.991233
0.98819
0.981743
0.981019
0.986256
0.987299
0.986531
0.989309
0.993899
0.995131
0.996624
0.999503
1.00155
1.00366
1.00499
1.00551
1.00633
1.00666
1.00618
1.00537
1.00523
1.00551
1.00554
1.00451
1.00492
1.0081
1.00963
1.0107
1.01493
1.01997
1.02777
1.03689
1.04736
1.06043
1.0708
1.07957
1.08552
1.08892
1.00071
1.00674
1.03314
1.10763
1.25441
1.43079
1.58903
1.66345
1.71293
1.73212
1.73301
1.73028
1.72464
1.71169
1.69339
1.67204
1.6489
1.63244
1.62065
1.61112
1.60729
1.60375
1.59858
1.5934
1.58636
1.57689
1.56687
1.55499
1.54032
1.52498
1.50649
1.48359
1.45723
1.42739
1.39398
1.35693
1.31679
1.28287
1.25208
1.21481
1.17998
1.1573
1.13377
1.10289
1.08408
1.074
1.06065
1.04525
1.03203
1.02573
1.02237
1.01692
1.00903
1.00971
1.01351
1.01459
1.01266
1.0146
1.0187
1.02019
1.02036
1.02357
1.02587
1.02766
1.02963
1.0306
1.03162
1.03295
1.03325
1.03261
1.03276
1.03323
1.0334
1.03218
1.03204
1.03506
1.03649
1.03679
1.041
1.04719
1.05504
1.06494
1.07733
1.09053
1.10327
1.11137
1.1155
1.11768
1.00001
1.00017
1.00159
1.00999
1.04578
1.12849
1.27703
1.43901
1.59612
1.65965
1.69429
1.71224
1.722
1.72354
1.72102
1.71386
1.69864
1.67771
1.65746
1.63687
1.62003
1.61206
1.60385
1.59596
1.58658
1.57421
1.56134
1.54738
1.53131
1.5167
1.50096
1.48108
1.45956
1.43931
1.41692
1.38964
1.36018
1.33383
1.30561
1.2708
1.23836
1.21255
1.18676
1.15981
1.13688
1.1201
1.10562
1.09174
1.07869
1.06625
1.06011
1.0544
1.04749
1.04754
1.04736
1.04514
1.04633
1.04711
1.04777
1.04909
1.04813
1.04995
1.05205
1.05256
1.05459
1.05595
1.05614
1.05779
1.05884
1.05845
1.05899
1.0604
1.06106
1.06018
1.06057
1.06391
1.06538
1.06567
1.07029
1.07746
1.08489
1.09589
1.10872
1.12223
1.135
1.14131
1.14409
1.14582
1
1
1.00002
1.00028
1.00257
1.0132
1.05407
1.1398
1.28814
1.43853
1.58022
1.66373
1.68504
1.70094
1.70892
1.71753
1.72002
1.71579
1.7019
1.68214
1.65955
1.63939
1.62201
1.60328
1.59201
1.58043
1.56647
1.55145
1.53349
1.51414
1.49692
1.47699
1.45681
1.43951
1.4209
1.39689
1.37066
1.35146
1.33087
1.30118
1.27565
1.25672
1.23186
1.2066
1.18879
1.17077
1.1521
1.13741
1.12689
1.11597
1.10446
1.09659
1.09115
1.0894
1.08805
1.08365
1.08248
1.08337
1.08248
1.08213
1.08092
1.07999
1.08006
1.07956
1.08035
1.0813
1.08133
1.08215
1.08319
1.08285
1.08307
1.08493
1.08612
1.0856
1.08718
1.09109
1.09301
1.09403
1.09954
1.1072
1.11517
1.12753
1.13997
1.15406
1.16536
1.1695
1.17141
1.17257
1
1
1
1
1.00004
1.00039
1.0033
1.01528
1.05704
1.14625
1.28797
1.43455
1.55395
1.65617
1.6896
1.70069
1.70958
1.71119
1.71545
1.7125
1.7005
1.68129
1.65878
1.63587
1.61422
1.59527
1.57718
1.5591
1.54089
1.5216
1.50339
1.4838
1.46077
1.4409
1.42341
1.40235
1.37666
1.35784
1.34163
1.31738
1.29309
1.27915
1.26111
1.23668
1.22072
1.20808
1.19254
1.1746
1.16213
1.15545
1.14772
1.13728
1.12865
1.12611
1.1255
1.12248
1.11913
1.11821
1.11642
1.1143
1.11353
1.1123
1.11114
1.10968
1.10891
1.10934
1.10884
1.10853
1.10926
1.10924
1.10901
1.11032
1.1115
1.11125
1.11393
1.11802
1.12005
1.12195
1.12857
1.13663
1.14642
1.16
1.17327
1.18849
1.19803
1.20026
1.20128
1.20181
1
1
1
1
1
1
1.00005
1.00047
1.00356
1.01667
1.05649
1.14633
1.2748
1.43105
1.53815
1.63521
1.69129
1.70314
1.71215
1.71228
1.70954
1.70411
1.69093
1.67281
1.65154
1.62769
1.60491
1.58209
1.55963
1.5372
1.51438
1.49518
1.47415
1.45122
1.43145
1.41205
1.38921
1.36659
1.35035
1.33111
1.30735
1.29137
1.27672
1.25841
1.24173
1.22688
1.21604
1.2057
1.19115
1.17984
1.17449
1.16929
1.16413
1.15848
1.15527
1.15352
1.15212
1.15176
1.15041
1.1474
1.14603
1.14527
1.14416
1.143
1.14158
1.14075
1.13994
1.13873
1.13814
1.13716
1.13651
1.13715
1.13702
1.13653
1.13982
1.1433
1.14474
1.14705
1.15447
1.16307
1.17488
1.18951
1.20445
1.22059
1.22914
1.23027
1.23035
1.23025
1
1
1
1
1
1
1
1
1.00006
1.00052
1.00342
1.01698
1.05356
1.14004
1.26056
1.41829
1.53188
1.61673
1.68508
1.70855
1.71056
1.70743
1.69896
1.69108
1.67768
1.65804
1.63735
1.61538
1.59068
1.56627
1.54182
1.51738
1.49328
1.47056
1.44766
1.42513
1.40563
1.38363
1.36324
1.34424
1.32325
1.30661
1.2899
1.27073
1.25789
1.2454
1.22877
1.22001
1.21121
1.20131
1.19427
1.18583
1.18186
1.18104
1.17915
1.17556
1.17332
1.17414
1.17479
1.17369
1.17267
1.17365
1.17406
1.17379
1.17335
1.1728
1.17215
1.17108
1.17044
1.1697
1.16804
1.16811
1.16786
1.16672
1.16857
1.17113
1.17127
1.17378
1.18139
1.19043
1.20335
1.21874
1.23555
1.25199
1.25986
1.26089
1.26079
1.26048
1
1
1
1
1
1
1
1
1
1
1.00005
1.00053
1.00315
1.01581
1.04999
1.12863
1.25224
1.39647
1.53342
1.60935
1.66977
1.69897
1.70242
1.69727
1.68409
1.67102
1.65783
1.64082
1.6196
1.59781
1.57433
1.54921
1.52544
1.49957
1.47496
1.45273
1.42804
1.40435
1.38489
1.36474
1.34132
1.32378
1.30901
1.28815
1.27113
1.26136
1.24652
1.23302
1.22411
1.21496
1.20921
1.20193
1.19496
1.19343
1.19206
1.18967
1.18899
1.18927
1.18932
1.18797
1.18931
1.19194
1.19356
1.19486
1.19585
1.19691
1.19803
1.19891
1.19965
1.20049
1.20049
1.20058
1.20084
1.19974
1.20022
1.20174
1.20073
1.20334
1.21016
1.21845
1.23102
1.24693
1.26578
1.28146
1.28835
1.28999
1.28996
1.28956
1
1
1
1
1
1
1
1
1
1
1
1
1.00005
1.00048
1.00289
1.0135
1.04753
1.11681
1.24261
1.3804
1.52946
1.60547
1.65215
1.67766
1.67893
1.67656
1.66578
1.64915
1.63289
1.61685
1.59829
1.57712
1.55626
1.53346
1.50798
1.48515
1.46177
1.4362
1.41449
1.3928
1.36947
1.34848
1.3304
1.31191
1.29326
1.27949
1.26438
1.25058
1.24178
1.22997
1.22178
1.21664
1.20931
1.20602
1.20251
1.19879
1.19906
1.19975
1.19899
1.19784
1.20028
1.20317
1.20517
1.20668
1.20875
1.21136
1.21437
1.21746
1.22062
1.22379
1.22647
1.22885
1.23082
1.2315
1.23246
1.23396
1.23323
1.23649
1.24252
1.24943
1.26114
1.27725
1.2976
1.31129
1.31712
1.31901
1.31913
1.31862
1
1
1
1
1
1
1
1
1
1
1
1
1
1
1.00004
1.00039
1.00265
1.01155
1.04378
1.11033
1.22988
1.37418
1.50775
1.60277
1.63182
1.65294
1.64855
1.64451
1.63645
1.62254
1.60655
1.58919
1.57202
1.55418
1.53324
1.51401
1.49427
1.47057
1.44847
1.4274
1.40312
1.38237
1.36315
1.34197
1.32183
1.30621
1.29125
1.27333
1.26215
1.25316
1.24153
1.2333
1.22556
1.22094
1.21725
1.21196
1.20955
1.20888
1.2081
1.20842
1.20841
1.2091
1.21196
1.21423
1.21582
1.21808
1.22116
1.22513
1.22968
1.23477
1.23975
1.24433
1.24904
1.25309
1.25722
1.26093
1.26359
1.26869
1.27444
1.28241
1.29444
1.31031
1.33112
1.34325
1.3472
1.34855
1.34856
1.34734
1
1
1
1
1
1
1
1
1
1
1
1
1
1
1
1
1.00004
1.00031
1.00233
1.01081
1.03858
1.1091
1.21692
1.36232
1.48153
1.5847
1.61478
1.62383
1.61973
1.6112
1.60272
1.59109
1.5754
1.55938
1.54358
1.52739
1.51113
1.49272
1.4741
1.45673
1.43685
1.4164
1.39769
1.37723
1.35735
1.34052
1.32414
1.30762
1.29211
1.28007
1.26892
1.25842
1.24935
1.24236
1.23739
1.23104
1.22711
1.2246
1.22088
1.21997
1.21986
1.21893
1.21879
1.22032
1.22206
1.224
1.22655
1.22996
1.23404
1.23897
1.24493
1.25107
1.25764
1.2642
1.27064
1.27783
1.28491
1.29273
1.30113
1.31227
1.32629
1.34255
1.36417
1.37697
1.37917
1.37949
1.3786
1.37577
1
1
1
1
1
1
1
1
1
1
1
1
1
1
1
1
1
1
1.00003
1.00028
1.00195
1.01055
1.03582
1.00744
1.02661
1.04442
1.06055
1.07162
1.0793
1.08456
1.08802
1.09022
1.09193
1.09354
1.09572
1.09826
1.10126
1.71103
1.70816
1.70599
1.70447
1.70332
1.70235
1.70104
1.69902
1.69601
1.69191
1.6857
1.67392
1.65449
1.62808
1.59539
1.56263
1.53852
1.52194
1.50941
1.50048
1.49297
1.4849
1.47461
1.45982
1.44248
1.42332
1.40263
1.3811
1.3592
1.33688
1.31355
1.28834
1.25991
1.22785
1.19277
1.15728
1.12676
1.10698
1.09527
1.08887
1.08684
1.08619
1.08234
1.07043
1.0507
1.02519
1.00221
0.988287
0.981316
0.97885
0.978601
0.979832
0.982834
0.986596
0.989248
0.990112
0.986456
0.976415
0.963343
0.950947
0.940915
0.933354
0.928037
0.924668
0.92305
0.922851
0.924031
0.92706
0.932023
0.938684
0.946905
0.956847
0.968689
0.982536
0.998551
1.01575
1.03332
1.05083
1.0648
1.07576
1.08401
1.09013
1.09471
1.09847
1.1018
1.10546
1.10938
1.1137
1.72025
1.71747
1.71504
1.71336
1.71131
1.70886
1.70596
1.70225
1.69761
1.69204
1.6849
1.67294
1.65355
1.62731
1.59569
1.56522
1.54316
1.52689
1.51463
1.50577
1.49829
1.49038
1.48054
1.46665
1.44932
1.43022
1.40967
1.38829
1.36652
1.34431
1.32119
1.29644
1.26933
1.23927
1.20595
1.17036
1.13564
1.10783
1.09177
1.08177
1.07719
1.0753
1.07065
1.05838
1.03797
1.01117
0.98728
0.973479
0.96683
0.964717
0.964955
0.967001
0.97103
0.975697
0.979183
0.980488
0.97694
0.967538
0.95564
0.944707
0.93605
0.929624
0.925163
0.922364
0.92105
0.920924
0.921899
0.924439
0.928701
0.934565
0.942
0.951183
0.962201
0.974878
0.989221
1.00497
1.0218
1.03881
1.05486
1.06867
1.08014
1.08939
1.09683
1.10296
1.10832
1.11362
1.119
1.12467
1.73245
1.72885
1.72584
1.72295
1.71969
1.7156
1.71068
1.70471
1.69786
1.69036
1.6817
1.66895
1.64954
1.62402
1.5945
1.56719
1.54739
1.53186
1.52004
1.51127
1.50378
1.49593
1.48635
1.47302
1.45573
1.43679
1.41654
1.39556
1.37417
1.35222
1.32925
1.30465
1.27792
1.24868
1.21677
1.18227
1.14648
1.11334
1.08945
1.07672
1.06876
1.06473
1.05861
1.04602
1.02568
0.998711
0.974328
0.960374
0.953703
0.951733
0.952419
0.955312
0.960337
0.965949
0.970064
0.971373
0.967779
0.958865
0.948002
0.938302
0.930731
0.925171
0.921438
0.919199
0.918163
0.918086
0.918789
0.920732
0.924167
0.929079
0.935591
0.943939
0.954212
0.966181
0.979604
0.994186
1.00967
1.02605
1.0427
1.05859
1.07308
1.08576
1.09643
1.10536
1.11309
1.12025
1.12721
1.13425
1.74722
1.7422
1.73794
1.73312
1.72772
1.72155
1.71447
1.70623
1.69723
1.68781
1.67743
1.66352
1.64398
1.6193
1.59216
1.56819
1.55039
1.53601
1.52467
1.51579
1.50797
1.49987
1.49055
1.4781
1.46156
1.443
1.42308
1.40238
1.38118
1.3594
1.3366
1.31221
1.28574
1.25691
1.22571
1.19227
1.15698
1.12158
1.09134
1.07284
1.0621
1.05538
1.04763
1.03471
1.0146
0.988101
0.963643
0.949311
0.942372
0.940313
0.941348
0.94486
0.950416
0.956386
0.960464
0.961406
0.957761
0.949476
0.93974
0.931193
0.924634
0.920169
0.91703
0.914926
0.913759
0.913451
0.913886
0.915405
0.918307
0.92267
0.928576
0.936298
0.946047
0.95775
0.970856
0.984698
0.998911
1.01386
1.02982
1.04677
1.06329
1.07857
1.0923
1.10417
1.11442
1.12343
1.13206
1.14073
1.76478
1.75817
1.75115
1.74335
1.73527
1.72663
1.71704
1.70653
1.69546
1.68419
1.67221
1.65719
1.63756
1.61421
1.59022
1.57004
1.55435
1.54131
1.53066
1.52185
1.51377
1.50533
1.49578
1.48347
1.46715
1.44891
1.42944
1.40916
1.38826
1.3666
1.34383
1.31947
1.29307
1.26438
1.23345
1.20056
1.16599
1.13043
1.09678
1.0711
1.05708
1.04718
1.03771
1.02438
1.00489
0.979484
0.955489
0.940875
0.933375
0.930717
0.93157
0.934855
0.940058
0.945553
0.948991
0.949359
0.945971
0.939175
0.931176
0.924066
0.91836
0.913859
0.91075
0.908778
0.907826
0.907686
0.908219
0.909699
0.912385
0.916449
0.921855
0.928812
0.937767
0.948792
0.961409
0.974924
0.988746
1.00295
1.01814
1.03478
1.05257
1.07023
1.08675
1.10152
1.11466
1.12652
1.13759
1.14831
1.78483
1.77572
1.76548
1.7545
1.74294
1.7308
1.71823
1.70534
1.69243
1.67989
1.66704
1.65149
1.63214
1.6103
1.58929
1.57203
1.55816
1.54638
1.53634
1.52758
1.51926
1.51058
1.50096
1.48893
1.47357
1.45607
1.43716
1.41716
1.39624
1.37434
1.35122
1.32654
1.29994
1.27117
1.24027
1.20751
1.17334
1.13824
1.10358
1.07339
1.05331
1.04005
1.02833
1.01441
0.995305
0.971095
0.947885
0.932805
0.9245
0.921229
0.92154
0.924206
0.928837
0.93386
0.93655
0.936477
0.933554
0.927635
0.921047
0.915112
0.910337
0.906723
0.90423
0.902706
0.902039
0.902131
0.902882
0.904489
0.907199
0.911166
0.916259
0.922581
0.93055
0.940415
0.952074
0.965022
0.978434
0.991969
1.00609
1.02154
1.03861
1.05702
1.076
1.09434
1.11136
1.12659
1.14009
1.15302
1.8035
1.79312
1.77983
1.76471
1.74888
1.73291
1.71703
1.70152
1.68656
1.67246
1.65854
1.64274
1.62449
1.60533
1.58822
1.57429
1.56274
1.55272
1.54385
1.53564
1.52757
1.51901
1.50941
1.49738
1.48224
1.46505
1.44643
1.42661
1.40564
1.38345
1.35979
1.33447
1.30728
1.27808
1.24682
1.2138
1.17951
1.14458
1.10992
1.07771
1.05205
1.03443
1.01979
1.00435
0.98533
0.962638
0.941142
0.926308
0.917181
0.912573
0.911405
0.91241
0.915096
0.91847
0.920654
0.920831
0.918732
0.914819
0.910402
0.906362
0.90312
0.900685
0.89908
0.898136
0.897711
0.897827
0.898338
0.899582
0.901704
0.904862
0.909109
0.914492
0.921452
0.930249
0.941036
0.953454
0.966765
0.980358
0.994219
1.00883
1.02496
1.0427
1.06169
1.08092
1.09961
1.11751
1.13544
1.1533
1.82332
1.81037
1.79398
1.77526
1.75565
1.73537
1.71574
1.69726
1.68017
1.66483
1.65052
1.63518
1.61841
1.6019
1.58733
1.57555
1.56584
1.5572
1.54915
1.54151
1.53395
1.52586
1.51662
1.50525
1.49129
1.47517
1.45739
1.43809
1.41714
1.39439
1.36982
1.34342
1.31519
1.28512
1.25319
1.21963
1.18489
1.1497
1.11491
1.0818
1.0527
1.0303
1.01217
0.994483
0.974772
0.953158
0.933572
0.919274
0.909562
0.903738
0.901184
0.900716
0.901459
0.902858
0.904099
0.904465
0.903651
0.902027
0.899977
0.898043
0.896468
0.895359
0.89466
0.894335
0.894144
0.894337
0.895005
0.89621
0.898061
0.900607
0.903993
0.908221
0.91365
0.92071
0.929665
0.940585
0.953198
0.966998
0.981528
0.996826
1.01338
1.03137
1.05083
1.07146
1.09272
1.11402
1.13456
1.15333
1.83661
1.82141
1.80366
1.78347
1.76123
1.73808
1.71534
1.69408
1.67481
1.65778
1.64262
1.62808
1.61283
1.59815
1.5852
1.57541
1.56752
1.56055
1.55347
1.54691
1.54026
1.53304
1.52453
1.51398
1.50083
1.48541
1.46821
1.44945
1.42884
1.40609
1.38101
1.35361
1.32405
1.29253
1.25951
1.22512
1.18973
1.154
1.11871
1.08477
1.05354
1.02729
1.00567
0.985669
0.965231
0.944612
0.926676
0.912734
0.902327
0.895228
0.891253
0.889597
0.889244
0.889485
0.889902
0.890125
0.890069
0.890033
0.889997
0.890142
0.890589
0.891296
0.89205
0.892817
0.893719
0.894781
0.895838
0.896699
0.897668
0.898976
0.900886
0.903587
0.90723
0.912229
0.918896
0.927716
0.938991
0.952621
0.967757
0.983492
0.999467
1.01627
1.0345
1.05466
1.07689
1.10083
1.1259
1.15089
)
;

boundaryField
{
    inlet
    {
        type            fixedValue;
        value           nonuniform 0();
    }
    outlet
    {
        type            zeroGradient;
    }
    bottom
    {
        type            symmetryPlane;
    }
    top
    {
        type            symmetryPlane;
    }
    obstacle
    {
        type            zeroGradient;
    }
    front
    {
        type            empty;
    }
    back
    {
        type            empty;
    }
    procBoundary19to2
    {
        type            processor;
        value           nonuniform List<scalar> 
23
(
1.83458
1.8509
1.91693
1.78118
1.59707
1.27676
1.05261
1.00329
1.00006
1
1
1
1
1
1.71494
1.72414
1.7366
1.75164
1.76995
1.79207
1.80998
1.83197
1.84893
)
;
    }
    procBoundary19to10
    {
        type            processor;
        value           nonuniform List<scalar> 5(1 1 1 1 1);
    }
    procBoundary19to11
    {
        type            processor;
        value           nonuniform List<scalar> 
89
(
1.01769
1.03758
1.05444
1.06735
1.0748
1.07943
1.0822
1.08346
1.08372
1.08393
1.08441
1.08545
1.08687
1.08884
1.70465
1.70181
1.69981
1.69867
1.69791
1.69741
1.69677
1.69577
1.69387
1.69055
1.68461
1.67256
1.6532
1.6269
1.59364
1.55903
1.53273
1.51589
1.50311
1.4941
1.48664
1.47865
1.46829
1.45344
1.43657
1.41762
1.39691
1.37517
1.35297
1.33021
1.30585
1.27879
1.24817
1.21381
1.178
1.14563
1.12245
1.10917
1.10087
1.09785
1.09736
1.09728
1.09402
1.08235
1.06329
1.03931
1.01745
1.0031
0.995576
0.992798
0.992389
0.993254
0.995514
0.998495
1.0004
1.00071
0.997059
0.986506
0.972252
0.958171
0.946403
0.937326
0.930809
0.926612
0.924487
0.924104
0.925336
0.928641
0.934127
0.94143
0.950321
0.961044
0.97405
0.989747
0.989747
)
;
    }
    procBoundary19to12
    {
        type            processor;
        value           uniform 1.10436;
    }
    procBoundary19to20
    {
        type            processor;
        value           nonuniform List<scalar> 
27
(
1.17009
1.16637
1.15543
1.13042
1.09705
1.072
1.07397
1.09234
1.11977
1.14738
1.17395
1.20224
1.22995
1.25967
1.28839
1.31694
1.34475
1.37201
1.11795
1.13023
1.1413
1.14975
1.159
1.16602
1.17037
1.17077
1.17504
)
;
    }
    procBoundary19to27
    {
        type            processor;
        value           nonuniform List<scalar> 
89
(
1.10215
1.20901
1.34417
1.45685
1.53491
1.5937
1.60076
1.59331
1.58018
1.56829
1.55755
1.54665
1.5317
1.51532
1.49991
1.48515
1.47047
1.45518
1.43825
1.42232
1.40619
1.38932
1.37441
1.3587
1.34191
1.32731
1.31418
1.30254
1.29176
1.28201
1.27278
1.26569
1.25876
1.25148
1.24729
1.24404
1.23953
1.23713
1.23513
1.23343
1.23256
1.23161
1.23254
1.23453
1.23698
1.23999
1.24379
1.24869
1.25449
1.26134
1.269
1.27652
1.28499
1.29421
1.30429
1.31667
1.33119
1.3496
1.37045
1.39334
1.41021
1.41263
1.41207
1.41
1.40581
1
1
1
1
1
1
1
1
1
1
1
1
1
1
1
1
1
1
1
1
1.00003
1.00027
1.10215
1.0018
)
;
    }
}


// ************************************************************************* //
