/*--------------------------------*- C++ -*----------------------------------*\
  =========                 |
  \\      /  F ield         | OpenFOAM: The Open Source CFD Toolbox
   \\    /   O peration     | Website:  https://openfoam.org
    \\  /    A nd           | Version:  7
     \\/     M anipulation  |
\*---------------------------------------------------------------------------*/
FoamFile
{
    version     2.0;
    format      ascii;
    class       volScalarField;
    location    "6.5";
    object      rho;
}
// * * * * * * * * * * * * * * * * * * * * * * * * * * * * * * * * * * * * * //

dimensions      [1 -3 0 0 0 0 0];

internalField   nonuniform List<scalar> 
2413
(
1.65518
1.64768
1.63912
1.63168
1.62574
1.61919
1.61174
1.60378
1.59701
1.59011
1.5826
1.57417
1.56808
1.56238
1.55606
1.54869
1.54235
1.53672
1.53048
1.52332
1.51625
1.51067
1.5045
1.49785
1.49085
1.48455
1.47858
1.47273
2.09686
2.095
2.09491
2.09386
2.09066
2.08636
2.08345
2.08052
2.07761
2.07633
2.07328
2.06898
2.06713
2.06303
2.05789
2.05502
2.04953
2.04238
2.03648
2.02814
2.01757
2.00926
2.00018
1.98847
1.97911
1.97086
1.96039
1.9486
1.93955
1.93044
1.91908
1.90872
1.90073
1.89189
1.88083
1.87111
1.86315
1.85434
1.84375
1.83577
1.82888
1.82078
1.81084
1.803
1.796
1.78782
1.77848
1.77178
1.76526
1.75752
1.74866
1.74148
1.73449
1.72648
1.71754
1.7108
1.70416
1.69656
1.68796
1.68042
1.67302
1.66512
1.65607
1.64859
1.64224
1.63545
1.62781
1.62029
1.61367
1.60671
1.5989
1.59031
1.58412
1.57821
1.57161
1.56394
1.55793
1.55228
1.54591
1.53839
1.53145
1.52569
1.51928
1.51215
1.50501
1.49898
1.49265
1.48652
2.1032
2.09955
2.09657
2.09596
2.09555
2.09267
2.08988
2.08623
2.08234
2.08177
2.08067
2.07808
2.07694
2.07372
2.06904
2.06621
2.06094
2.05468
2.05004
2.04279
2.03357
2.02616
2.01742
2.00596
1.99713
1.9892
1.97892
1.96849
1.96018
1.95105
1.93942
1.92961
1.92161
1.91242
1.90138
1.89243
1.88425
1.87477
1.86387
1.85595
1.84864
1.83997
1.83021
1.82276
1.81543
1.8066
1.79696
1.79006
1.78311
1.7748
1.76602
1.75912
1.75201
1.74366
1.73476
1.72797
1.72105
1.71309
1.70443
1.69707
1.6895
1.68111
1.67167
1.66433
1.65764
1.65057
1.64281
1.63582
1.62923
1.62219
1.61427
1.60587
1.59933
1.59302
1.586
1.57797
1.57192
1.56613
1.55953
1.55159
1.54485
1.53907
1.53269
1.52534
1.51833
1.51263
1.50616
1.4995
2.11145
2.10811
2.10312
2.0995
2.0973
2.09699
2.09611
2.09269
2.0884
2.08729
2.08495
2.08206
2.08238
2.08085
2.07713
2.07459
2.06959
2.06336
2.05876
2.05176
2.04338
2.0371
2.02925
2.019
2.01128
2.00378
1.99377
1.9843
1.97672
1.9677
1.95612
1.94714
1.93945
1.93016
1.91969
1.9116
1.90337
1.89342
1.8828
1.87491
1.867
1.85751
1.84785
1.84046
1.83276
1.82346
1.81413
1.80719
1.79993
1.79124
1.78252
1.77552
1.76802
1.75887
1.74977
1.74291
1.73584
1.72769
1.7196
1.71262
1.70507
1.69644
1.687
1.67939
1.67211
1.66437
1.65615
1.64953
1.64294
1.63582
1.62798
1.62013
1.61323
1.60647
1.59912
1.59088
1.58448
1.57843
1.57157
1.56325
1.5566
1.55085
1.54455
1.53707
1.53042
1.525
1.51878
1.51166
2.11871
2.11809
2.11449
2.10924
2.10408
2.09987
2.09955
2.09888
2.09583
2.09414
2.09122
2.08745
2.08679
2.08497
2.08211
2.08054
2.07616
2.0701
2.06535
2.05824
2.05034
2.04463
2.03722
2.02755
2.02055
2.01353
2.004
1.99575
1.98898
1.98036
1.96945
1.96105
1.95327
1.94347
1.93393
1.92686
1.91892
1.90887
1.89899
1.89104
1.88257
1.87258
1.86336
1.85595
1.84791
1.83802
1.82877
1.82164
1.81398
1.80491
1.79678
1.78996
1.78233
1.77311
1.76416
1.75687
1.74927
1.74026
1.73218
1.72546
1.71806
1.70951
1.70089
1.6934
1.6858
1.6775
1.66894
1.66223
1.65537
1.64786
1.63983
1.6326
1.62547
1.61826
1.61078
1.60271
1.59579
1.58935
1.58231
1.57371
1.56696
1.56129
1.55508
1.54755
1.54128
1.5361
1.53015
1.52283
2.12583
2.12568
2.12548
2.12251
2.11732
2.11023
2.10616
2.10396
2.10142
2.10114
2.09929
2.09518
2.09369
2.09115
2.0873
2.08532
2.08107
2.07569
2.07118
2.0641
2.05626
2.0507
2.04341
2.03408
2.02751
2.02058
2.01102
2.0035
1.99729
1.98885
1.97884
1.97143
1.96382
1.95375
1.94456
1.93776
1.92992
1.92007
1.9115
1.90383
1.89512
1.88474
1.87584
1.86817
1.85969
1.84967
1.84108
1.83385
1.82592
1.81645
1.80839
1.80147
1.79361
1.78427
1.77596
1.7687
1.76089
1.75171
1.74391
1.73716
1.72965
1.72085
1.71277
1.70538
1.69761
1.68895
1.68061
1.6737
1.66661
1.65875
1.65043
1.6435
1.6363
1.6286
1.62096
1.61349
1.60616
1.59922
1.59218
1.58367
1.57652
1.57082
1.5647
1.55702
1.55095
1.54602
1.54025
1.53298
2.13406
2.13174
2.13177
2.13257
2.13097
2.12589
2.11993
2.11521
2.10972
2.10752
2.1066
2.10387
2.10247
2.09949
2.09497
2.0922
2.08724
2.08136
2.0769
2.06997
2.06226
2.05673
2.04935
2.04014
2.03377
2.02681
2.01713
2.00999
2.00394
1.99553
1.98625
1.97926
1.97146
1.96088
1.95234
1.94586
1.93791
1.92814
1.92045
1.91308
1.90435
1.89427
1.88608
1.87823
1.86933
1.8589
1.85034
1.84285
1.83463
1.82541
1.81809
1.81118
1.80333
1.79418
1.78623
1.77883
1.77055
1.76087
1.75336
1.74669
1.73921
1.73072
1.72337
1.71613
1.70825
1.69937
1.69127
1.68404
1.67665
1.66848
1.66018
1.65327
1.64612
1.63812
1.63003
1.62319
1.61583
1.60833
1.60144
1.59365
1.58605
1.57997
1.57391
1.56618
1.55986
1.55505
1.54945
1.54215
2.14466
2.13949
2.13612
2.13504
2.1369
2.13758
2.13442
2.12997
2.12386
2.11938
2.11639
2.1127
2.11146
2.10914
2.10454
2.10108
2.0957
2.08926
2.0842
2.07703
2.06923
2.06373
2.05625
2.04683
2.04037
2.03326
2.02326
2.01609
2.00994
2.00138
1.993
1.98646
1.97845
1.96767
1.95924
1.95233
1.94382
1.93428
1.9273
1.92014
1.91116
1.90152
1.894
1.88618
1.87708
1.86703
1.85889
1.851
1.84201
1.83212
1.82498
1.81824
1.81057
1.80212
1.7949
1.78756
1.7792
1.76975
1.76227
1.75531
1.74733
1.73864
1.73181
1.72487
1.71705
1.70859
1.70101
1.69362
1.68605
1.67774
1.66966
1.66257
1.65538
1.64727
1.63891
1.63235
1.62531
1.61738
1.61026
1.60348
1.59587
1.58915
1.58317
1.57569
1.56866
1.56364
1.55819
1.55091
2.15125
2.15021
2.14505
2.14056
2.13839
2.1382
2.14035
2.14058
2.13663
2.13201
2.12885
2.12522
2.12279
2.11981
2.11493
2.1111
2.10587
2.09942
2.0939
2.08647
2.078
2.07214
2.06459
2.05505
2.04826
2.04089
2.03062
2.02313
2.01662
2.00741
1.99928
1.99312
1.98509
1.97459
1.9664
1.95897
1.94961
1.93988
1.93319
1.92613
1.91708
1.90805
1.90089
1.893
1.88366
1.87437
1.86666
1.85854
1.84909
1.83912
1.83183
1.82466
1.81638
1.80824
1.80174
1.7947
1.78651
1.77772
1.77049
1.76332
1.75509
1.74662
1.73992
1.73296
1.72483
1.71673
1.70964
1.70229
1.6948
1.68679
1.67907
1.67194
1.66472
1.65653
1.64823
1.64165
1.63487
1.62699
1.6194
1.61334
1.60617
1.59868
1.59257
1.5857
1.57805
1.57233
1.56687
1.55957
2.14775
2.15389
2.15451
2.1516
2.1461
2.14289
2.1416
2.14114
2.14114
2.14029
2.13888
2.136
2.13337
2.13036
2.12628
2.12257
2.11727
2.11036
2.10455
2.09739
2.08898
2.08259
2.07469
2.06477
2.05761
2.04991
2.03936
2.03146
2.02462
2.01513
2.00676
2.00049
1.99214
1.98194
1.97418
1.96642
1.95643
1.94661
1.93973
1.93235
1.92297
1.91443
1.90764
1.89981
1.89024
1.88155
1.87397
1.86561
1.85588
1.84654
1.83923
1.8317
1.82291
1.8148
1.80832
1.80128
1.79313
1.78511
1.77816
1.77086
1.76241
1.75433
1.74769
1.74067
1.73232
1.72478
1.71808
1.71074
1.70334
1.69601
1.68864
1.68158
1.67457
1.66645
1.6583
1.65163
1.64491
1.63711
1.62938
1.6236
1.61698
1.60904
1.6024
1.59603
1.58821
1.58153
1.57595
1.5689
2.12357
2.14121
2.15263
2.15604
2.15581
2.15242
2.14849
2.14631
2.1453
2.14341
2.14137
2.14105
2.14
2.13813
2.13541
2.13209
2.12729
2.12097
2.11519
2.10854
2.10036
2.09341
2.08556
2.07552
2.06812
2.06055
2.04983
2.04122
2.0339
2.02421
2.01569
2.00925
2.0007
1.99059
1.9829
1.97496
1.96446
1.95465
1.94742
1.93942
1.92949
1.92131
1.9147
1.90695
1.8976
1.88951
1.88205
1.87363
1.86357
1.8546
1.84707
1.83902
1.82964
1.82202
1.81556
1.80838
1.8001
1.79273
1.78591
1.77859
1.77022
1.76262
1.75583
1.7486
1.74009
1.73295
1.72656
1.71931
1.71186
1.70545
1.69847
1.6915
1.68495
1.6773
1.6693
1.66253
1.65584
1.64793
1.6402
1.63444
1.62808
1.62015
1.613
1.60681
1.59914
1.59145
1.58552
1.57878
2.10002
2.11703
2.13132
2.14473
2.15299
2.15629
2.15674
2.15544
2.15265
2.14955
2.14696
2.14532
2.14296
2.14024
2.13829
2.13575
2.13233
2.12767
2.12224
2.11646
2.10983
2.10303
2.09562
2.08613
2.07828
2.07117
2.06136
2.05254
2.04491
2.03461
2.0255
2.01875
2.0102
2.00038
1.99272
1.98459
1.97406
1.96442
1.95683
1.94835
1.93785
1.92942
1.92252
1.91442
1.90493
1.89739
1.89035
1.88206
1.87246
1.8643
1.85665
1.84821
1.83833
1.83053
1.82372
1.81608
1.80755
1.80076
1.79408
1.78669
1.77863
1.7717
1.76488
1.75749
1.74909
1.74222
1.73584
1.72854
1.72099
1.71533
1.70882
1.70175
1.6956
1.68864
1.68081
1.67402
1.6675
1.65958
1.65178
1.64587
1.6395
1.6315
1.62409
1.61796
1.61059
1.60236
1.59594
1.58942
1.94107
2.07102
2.11401
2.12845
2.13891
2.14668
2.15299
2.15551
2.15706
2.1571
2.15491
2.15154
2.14795
2.14502
2.14318
2.14002
2.13543
2.13073
2.12574
2.1211
2.11612
2.11002
2.10317
2.09484
2.08685
2.0798
2.07087
2.0624
2.05553
2.04634
2.03673
2.02898
2.01982
2.00989
2.00244
1.99455
1.98433
1.97484
1.9671
1.9583
1.94788
1.93939
1.9321
1.9236
1.91373
1.90629
1.89939
1.89103
1.88149
1.87397
1.86667
1.85814
1.84864
1.84113
1.83391
1.82561
1.81669
1.80999
1.8033
1.79565
1.7879
1.78155
1.77484
1.76737
1.75947
1.75285
1.7463
1.7387
1.73108
1.7257
1.71963
1.71237
1.70644
1.70024
1.69258
1.68569
1.67935
1.67155
1.66366
1.65753
1.65115
1.64309
1.6355
1.62933
1.62217
1.61373
1.60695
1.60058
1.65022
1.82594
1.9683
2.08288
2.13208
2.14309
2.14956
2.15199
2.15342
2.15492
2.1552
2.15558
2.15465
2.15242
2.14935
2.14504
2.13947
2.13456
2.1298
2.1249
2.11993
2.11408
2.10746
2.10045
2.09305
2.0859
2.07823
2.07005
2.06305
2.05504
2.0461
2.03829
2.02946
2.01948
2.01151
2.00363
1.99378
1.98482
1.9773
1.96855
1.95811
1.94947
1.94208
1.93342
1.92327
1.91564
1.90877
1.90058
1.89149
1.88443
1.87732
1.86864
1.85947
1.85233
1.845
1.83629
1.82745
1.82074
1.81394
1.80589
1.7984
1.7925
1.786
1.77845
1.77114
1.7648
1.75809
1.75009
1.74253
1.73698
1.7309
1.72336
1.71734
1.71164
1.70424
1.69718
1.69105
1.68354
1.67548
1.66909
1.66269
1.65458
1.64686
1.64063
1.63363
1.62521
1.61825
1.61198
1.44386
1.53127
1.6835
1.86148
2.00045
2.10038
2.14561
2.15648
2.15781
2.15793
2.15759
2.15773
2.15801
2.15599
2.15234
2.14832
2.1429
2.13831
2.13431
2.12921
2.12389
2.11817
2.11182
2.10547
2.09817
2.08989
2.08204
2.07496
2.06868
2.06169
2.05334
2.04535
2.03712
2.02728
2.01862
2.01116
2.00241
1.994
1.98655
1.97802
1.96793
1.95897
1.95128
1.94254
1.93269
1.92509
1.91819
1.90972
1.90045
1.89385
1.88725
1.87891
1.87034
1.86352
1.85623
1.84737
1.83896
1.83238
1.82548
1.81716
1.80993
1.8042
1.79773
1.79002
1.78314
1.77691
1.76999
1.76163
1.75426
1.74847
1.74208
1.73431
1.72822
1.72268
1.71537
1.70787
1.7019
1.69487
1.6868
1.68025
1.67382
1.66576
1.6579
1.65151
1.64458
1.63618
1.62913
1.62299
1.40236
1.41339
1.45508
1.5585
1.72741
1.91415
2.03098
2.11372
2.15498
2.1654
2.16569
2.16606
2.16568
2.16368
2.16019
2.15561
2.14934
2.14276
2.13734
2.13203
2.12691
2.12202
2.11675
2.1106
2.10329
2.0948
2.08617
2.07861
2.07218
2.06589
2.05839
2.05043
2.04253
2.03346
2.0246
2.01685
2.00827
1.99943
1.99206
1.98447
1.97552
1.96685
1.95907
1.95043
1.94062
1.93275
1.92595
1.91764
1.90851
1.90192
1.89525
1.88664
1.87835
1.87224
1.86542
1.85675
1.84879
1.84223
1.83492
1.82588
1.81856
1.81286
1.80641
1.79862
1.79203
1.78605
1.77903
1.77023
1.76287
1.75684
1.75013
1.74213
1.73617
1.73089
1.72387
1.71632
1.71074
1.70405
1.69593
1.68948
1.68353
1.67586
1.66804
1.66159
1.65472
1.64636
1.63912
1.63298
1.40004
1.40038
1.40338
1.41902
1.47199
1.60284
1.77971
1.96718
2.0774
2.12156
2.14968
2.16766
2.17223
2.17329
2.17228
2.167
2.15942
2.15152
2.1438
2.13619
2.12957
2.12465
2.12021
2.11477
2.10808
2.09989
2.09105
2.08319
2.07603
2.06944
2.06222
2.05447
2.04708
2.03865
2.02952
2.02144
2.01318
2.00454
1.99689
1.98918
1.98029
1.97161
1.96427
1.95623
1.94691
1.9388
1.93176
1.9234
1.9141
1.90707
1.90028
1.89166
1.88318
1.87701
1.8702
1.86141
1.85319
1.84645
1.83894
1.82958
1.82168
1.81586
1.80921
1.80084
1.79416
1.78846
1.78157
1.77289
1.76584
1.76
1.75321
1.745
1.73885
1.73347
1.72672
1.71897
1.71342
1.70787
1.7005
1.69433
1.68902
1.68221
1.67488
1.66914
1.66283
1.65478
1.64751
1.64137
1.40001
1.40001
1.40006
1.40065
1.40524
1.42906
1.50204
1.64724
1.8521
2.0325
2.10129
2.13618
2.15646
2.16796
2.16972
2.17069
2.1681
2.16192
2.15338
2.14355
2.13574
2.131
2.12612
2.11983
2.11287
2.10482
2.09617
2.08823
2.08035
2.07303
2.06589
2.05853
2.0518
2.04389
2.03466
2.02633
2.01814
2.00935
2.00126
1.99345
1.98464
1.97567
1.96839
1.96083
1.95191
1.94364
1.93643
1.92804
1.9186
1.91101
1.90384
1.89501
1.88616
1.87975
1.87292
1.86418
1.85589
1.84915
1.8416
1.8323
1.82418
1.81815
1.81141
1.80295
1.79588
1.79012
1.78328
1.77459
1.7676
1.7619
1.75518
1.74702
1.74088
1.73541
1.72858
1.72064
1.71501
1.70949
1.70229
1.69589
1.6908
1.68442
1.67724
1.67156
1.66593
1.65877
1.65235
1.64706
1.40001
1.40001
1.40001
1.40001
1.40012
1.40122
1.40912
1.44358
1.54567
1.72905
1.90998
2.08472
2.14247
2.15588
2.16364
2.16622
2.16653
2.16314
2.15879
2.15149
2.14485
2.13998
2.13373
2.12628
2.11876
2.11085
2.10265
2.09468
2.08645
2.07836
2.07065
2.06301
2.05607
2.04847
2.03956
2.03134
2.02336
2.01455
2.0062
1.99829
1.98941
1.9801
1.97256
1.96487
1.9559
1.94767
1.94062
1.93236
1.92287
1.91491
1.90741
1.89847
1.8894
1.88267
1.87569
1.86693
1.85847
1.85167
1.84418
1.83506
1.8268
1.82057
1.81367
1.80518
1.79767
1.79164
1.78474
1.77607
1.76894
1.76341
1.75683
1.74874
1.74251
1.73701
1.73011
1.72203
1.71628
1.71082
1.70373
1.69717
1.69217
1.68611
1.67884
1.67308
1.66753
1.66055
1.65416
1.64914
1.40001
1.40001
1.40001
1.40001
1.40001
1.40002
1.40025
1.40243
1.41614
1.47513
1.59937
1.8159
2.00599
2.10192
2.15992
2.17552
2.17539
2.17238
2.1659
2.15902
2.15386
2.14662
2.13812
2.13074
2.12401
2.11751
2.1106
2.10287
2.09454
2.08567
2.07705
2.06907
2.06149
2.05354
2.04474
2.0366
2.02886
2.02025
2.0118
2.00377
1.99479
1.98541
1.97754
1.96951
1.96025
1.95173
1.94466
1.93647
1.92708
1.91908
1.91143
1.90241
1.89316
1.88611
1.87888
1.87001
1.86134
1.85445
1.84698
1.83804
1.82982
1.82346
1.81642
1.80789
1.80007
1.79366
1.78657
1.7779
1.77056
1.76506
1.75861
1.75057
1.74418
1.73864
1.7317
1.72344
1.71755
1.71212
1.7051
1.69837
1.69337
1.68749
1.68015
1.67423
1.66879
1.66199
1.65555
1.65065
1.40001
1.40001
1.40001
1.40001
1.40001
1.40001
1.40001
1.40004
1.40058
1.40547
1.43018
1.51345
1.70479
1.90498
2.05102
2.14478
2.17292
2.17625
2.17184
2.16855
2.16203
2.153
2.1438
2.13645
2.13169
2.12656
2.1201
2.11212
2.10351
2.09435
2.08542
2.07708
2.0687
2.06009
2.05123
2.04316
2.03542
2.02682
2.01816
2.0099
2.00083
1.99151
1.98328
1.97488
1.96528
1.95658
1.9494
1.94111
1.9317
1.92372
1.91604
1.907
1.89768
1.89035
1.88278
1.87365
1.86475
1.85767
1.85007
1.84113
1.83309
1.82676
1.8196
1.81104
1.80311
1.79639
1.78907
1.78037
1.77283
1.76722
1.7608
1.75279
1.74619
1.7406
1.73367
1.72527
1.71918
1.71374
1.70675
1.69981
1.69476
1.68898
1.68161
1.67552
1.67013
1.6635
1.65694
1.65207
1.40001
1.40001
1.40001
1.40001
1.40001
1.40001
1.40001
1.40001
1.40001
1.40012
1.40149
1.41139
1.46049
1.59195
1.78763
2.02067
2.10735
2.14792
2.1583
2.16382
2.16162
2.1569
2.14986
2.14267
2.1386
2.13428
2.128
2.12043
2.1119
2.10348
2.09539
2.08691
2.07794
2.06867
2.05942
2.05112
2.043
2.0342
2.02538
2.017
2.00804
1.99875
1.99017
1.98152
1.97162
1.96268
1.95515
1.94655
1.93697
1.92895
1.92125
1.9122
1.90295
1.89542
1.88751
1.87799
1.86884
1.86154
1.85375
1.8446
1.83673
1.8304
1.82312
1.81455
1.80666
1.79973
1.79219
1.7834
1.7758
1.77003
1.7635
1.75548
1.74871
1.74301
1.73607
1.72756
1.72128
1.71582
1.70882
1.70168
1.69655
1.69082
1.68345
1.67724
1.67189
1.6654
1.6587
1.65376
1.40001
1.40001
1.40001
1.40001
1.40001
1.40001
1.40001
1.40001
1.40001
1.40001
1.40003
1.40038
1.4041
1.42808
1.50374
1.6968
1.92362
2.06786
2.15187
2.16423
2.16073
2.15532
2.14907
2.14478
2.14212
2.13623
2.12937
2.12357
2.11819
2.11243
2.10531
2.09693
2.08791
2.07874
2.06966
2.06093
2.05198
2.04267
2.03356
2.02495
2.01614
2.00702
1.9983
1.98951
1.97952
1.97032
1.96216
1.95304
1.94309
1.93491
1.92722
1.91813
1.909
1.90132
1.89316
1.88331
1.87399
1.86641
1.85831
1.84881
1.84109
1.83459
1.82708
1.8184
1.81067
1.80361
1.79589
1.78699
1.77943
1.77346
1.76676
1.75865
1.75175
1.74588
1.73888
1.73031
1.72386
1.71835
1.7113
1.70395
1.6987
1.693
1.6856
1.67933
1.67402
1.66762
1.66082
1.65578
1.40001
1.40001
1.40001
1.40001
1.40001
1.40001
1.40001
1.40001
1.40001
1.40001
1.40001
1.40001
1.4001
1.40131
1.41056
1.45839
1.6083
1.80946
2.01413
2.13365
2.15961
2.15981
2.15683
2.15319
2.14415
2.13544
2.12873
2.1241
2.12062
2.11642
2.11051
2.10391
2.09646
2.08844
2.08042
2.07171
2.06229
2.05263
2.04321
2.03423
2.02525
2.01603
2.00711
1.99815
1.9883
1.9789
1.97011
1.96056
1.95034
1.94185
1.934
1.92489
1.9158
1.90801
1.89973
1.88966
1.88036
1.87258
1.86412
1.85427
1.84657
1.83974
1.83187
1.82298
1.81531
1.8081
1.80024
1.79128
1.78383
1.77763
1.77067
1.76237
1.75537
1.74929
1.7422
1.73358
1.72701
1.72143
1.71432
1.70669
1.70124
1.69551
1.68807
1.68175
1.67653
1.67026
1.66339
1.65821
1.40001
1.40001
1.40001
1.40001
1.40001
1.40001
1.40001
1.40001
1.40001
1.40001
1.40001
1.40001
1.40001
1.40002
1.40039
1.40427
1.43098
1.52226
1.70821
1.96427
2.0839
2.1367
2.14783
2.14912
2.14441
2.138
2.13086
2.12581
2.12299
2.11848
2.11208
2.10593
2.09971
2.09299
2.08665
2.07966
2.07156
2.06261
2.05345
2.04439
2.03521
2.02588
2.01671
2.00743
1.99757
1.98795
1.97873
1.96891
1.95861
1.94999
1.94194
1.93276
1.92355
1.91557
1.90718
1.89705
1.88784
1.87998
1.8712
1.86124
1.85344
1.84614
1.83774
1.82863
1.82094
1.81355
1.80553
1.7966
1.7892
1.78271
1.77545
1.76683
1.7597
1.75344
1.74622
1.73761
1.73102
1.72532
1.71812
1.71017
1.70444
1.6986
1.69105
1.68464
1.67956
1.6735
1.66667
1.66138
1.40001
1.40001
1.40001
1.40001
1.40001
1.40001
1.40001
1.40001
1.40001
1.40001
1.40001
1.40001
1.40001
1.40001
1.40001
1.40012
1.40161
1.41386
1.46682
1.63883
1.86974
2.03706
2.13326
2.1442
2.13938
2.13428
2.12875
2.12644
2.12291
2.11581
2.11024
2.10554
2.10094
2.09567
2.0898
2.08341
2.07661
2.06914
2.06156
2.05383
2.04518
2.03596
2.02661
2.01722
2.00757
1.99787
1.98836
1.97838
1.96806
1.95927
1.95089
1.94154
1.93214
1.92391
1.91538
1.90527
1.89624
1.88842
1.87949
1.86955
1.86161
1.85387
1.8449
1.83561
1.82779
1.82019
1.81202
1.80325
1.79577
1.78893
1.78134
1.77242
1.76505
1.75862
1.75129
1.74269
1.73615
1.73032
1.72301
1.7147
1.70863
1.70264
1.69493
1.68845
1.68351
1.67762
1.67086
1.66558
1.40001
1.40001
1.40001
1.40001
1.40001
1.40001
1.40001
1.40001
1.40001
1.40001
1.40001
1.40001
1.40001
1.40001
1.40001
1.40001
1.40004
1.40057
1.40586
1.44103
1.56604
1.75935
1.99139
2.10721
2.13631
2.13779
2.13529
2.12957
2.11885
2.11263
2.10832
2.10383
2.10005
2.09649
2.09129
2.08521
2.07866
2.07176
2.06517
2.05874
2.0519
2.04429
2.03586
2.02693
2.01778
2.00827
1.99865
1.98865
1.97853
1.96955
1.96077
1.95117
1.94151
1.93295
1.92424
1.91423
1.90534
1.8976
1.88866
1.87883
1.87082
1.86273
1.85326
1.84402
1.83606
1.82818
1.81987
1.81128
1.80361
1.79642
1.78855
1.77935
1.77172
1.76514
1.75771
1.74915
1.74258
1.73664
1.72924
1.72067
1.71429
1.70814
1.70031
1.69365
1.68882
1.68311
1.67637
1.67109
1.40001
1.40001
1.40001
1.40001
1.40001
1.40001
1.40001
1.40001
1.40001
1.40001
1.40001
1.40001
1.40001
1.40001
1.40001
1.40001
1.40001
1.40001
1.40021
1.40271
1.42257
1.49767
1.68196
1.93908
2.06795
2.11719
2.12564
2.12459
2.12046
2.11441
2.1076
2.10319
2.10082
2.09622
2.08993
2.08425
2.07848
2.07284
2.06743
2.06132
2.05456
2.04756
2.04086
2.03434
2.02651
2.01781
2.00873
1.99925
1.98967
1.98058
1.97138
1.96151
1.95167
1.94282
1.93391
1.92401
1.91522
1.9075
1.89861
1.88887
1.88083
1.87251
1.86264
1.85356
1.84555
1.8373
1.82894
1.8206
1.81264
1.80514
1.79714
1.78787
1.77995
1.7732
1.76568
1.75706
1.75039
1.74436
1.73691
1.7282
1.72167
1.71548
1.70764
1.7008
1.69594
1.69027
1.68338
1.67807
1.40001
1.40001
1.40001
1.40001
1.40001
1.40001
1.40001
1.40001
1.40001
)
;

boundaryField
{
    inlet
    {
        type            calculated;
        value           nonuniform 0();
    }
    outlet
    {
        type            calculated;
        value           nonuniform 0();
    }
    bottom
    {
        type            symmetryPlane;
    }
    top
    {
        type            symmetryPlane;
    }
    obstacle
    {
        type            calculated;
        value           nonuniform 0();
    }
    front
    {
        type            empty;
    }
    back
    {
        type            empty;
    }
    procBoundary36to21
    {
        type            processor;
        value           nonuniform List<scalar> 8(1.46656 1.48036 1.49318 1.50507 1.51607 1.52635 1.53567 1.54443);
    }
    procBoundary36to28
    {
        type            processor;
        value           nonuniform List<scalar> 
89
(
1.63697
1.63004
1.62237
1.61495
1.60885
1.60217
1.59462
1.586
1.57901
1.5724
1.56536
1.55737
1.55123
1.54561
1.53936
1.53211
1.52527
1.51965
1.51362
1.50698
1.50009
1.49469
1.48894
1.48276
1.47592
1.46934
1.4636
1.45783
2.09376
2.09329
2.09101
2.08802
2.08379
2.07897
2.0769
2.07396
2.06903
2.06585
2.06087
2.05514
2.05298
2.04885
2.04314
2.03896
2.03196
2.0233
2.0166
2.00785
1.99696
1.98862
1.9798
1.96794
1.95734
1.94843
1.93791
1.92544
1.91623
1.90773
1.89728
1.8867
1.87871
1.87018
1.8594
1.84893
1.84129
1.83325
1.82325
1.81487
1.80822
1.80053
1.79075
1.78279
1.77623
1.76877
1.75982
1.75281
1.74637
1.73886
1.72983
1.72248
1.71586
1.70847
1.70007
1.69333
1.68679
1.67938
1.67059
1.66246
1.66246
)
;
    }
    procBoundary36to29
    {
        type            processor;
        value           nonuniform List<scalar> 
19
(
1.55274
1.5615
1.57098
1.58143
1.59267
1.60425
1.61556
1.62578
1.63439
1.64063
1.64354
1.64525
1.64682
1.64858
1.65059
1.65301
1.65613
1.66033
1.66592
)
;
    }
    procBoundary36to35
    {
        type            processor;
        value           nonuniform List<scalar> 
27
(
2.09946
2.10633
2.11212
2.1183
2.12772
2.13876
2.14709
2.1489
2.13211
2.10474
2.05091
1.79195
1.51218
1.41027
1.40026
1.40001
1.40001
1.40001
1.40001
1.40001
1.40001
1.40001
1.40001
1.40001
1.40001
1.40001
1.40001
)
;
    }
    procBoundary36to37
    {
        type            processor;
        value           uniform 1.67295;
    }
    procBoundary36to43
    {
        type            processor;
        value           uniform 1.40001;
    }
    procBoundary36to44
    {
        type            processor;
        value           nonuniform List<scalar> 
89
(
1.40001
1.40001
1.40001
1.40001
1.40001
1.40001
1.40001
1.40001
1.40001
1.40001
1.40008
1.40116
1.41088
1.45983
1.62888
1.85305
2.01934
2.11136
2.12013
2.11687
2.10972
2.10307
2.10151
2.09714
2.0903
2.08556
2.08168
2.07773
2.07377
2.0686
2.06246
2.05599
2.04933
2.04298
2.03675
2.03059
2.02394
2.01665
2.00854
1.99999
1.99122
1.98201
1.97216
1.96238
1.95342
1.94438
1.9346
1.92577
1.91794
1.90907
1.89947
1.89144
1.88305
1.87296
1.86408
1.85609
1.84738
1.83894
1.83089
1.82262
1.81486
1.80692
1.79782
1.7897
1.78282
1.77528
1.76657
1.75966
1.7535
1.74602
1.73731
1.73079
1.72467
1.71696
1.70991
1.70493
1.69921
1.69208
1.68658
1.40001
1.40001
1.40001
1.40001
1.40001
1.40001
1.40001
1.40001
1.40001
1.40001
)
;
    }
}


// ************************************************************************* //
