/*--------------------------------*- C++ -*----------------------------------*\
  =========                 |
  \\      /  F ield         | OpenFOAM: The Open Source CFD Toolbox
   \\    /   O peration     | Website:  https://openfoam.org
    \\  /    A nd           | Version:  7
     \\/     M anipulation  |
\*---------------------------------------------------------------------------*/
FoamFile
{
    version     2.0;
    format      ascii;
    class       surfaceScalarField;
    location    "0.56";
    object      phi;
}
// * * * * * * * * * * * * * * * * * * * * * * * * * * * * * * * * * * * * * //

dimensions      [0 3 -1 0 0 0 0];

internalField   nonuniform List<scalar> 
18389
(
-7.97189e-05
7.97189e-05
4.34333e-05
-4.34333e-05
-5.20447e-05
5.20447e-05
4.01169e-05
-4.01169e-05
-5.18384e-05
5.18384e-05
-4.01207e-05
4.01207e-05
-3.4447e-05
3.4447e-05
3.89033e-05
-3.89033e-05
-3.53124e-05
3.53124e-05
4.15284e-05
-4.15284e-05
4.47308e-05
-4.47307e-05
-3.41498e-05
3.41498e-05
-1.28111e-05
1.28111e-05
-4.28075e-05
4.28076e-05
4.33871e-05
-4.33871e-05
2.36087e-05
-2.36087e-05
1.75742e-05
-1.75742e-05
4.58911e-05
-4.58911e-05
4.59178e-05
-4.59178e-05
4.33273e-05
-4.33273e-05
-4.25113e-05
4.25113e-05
3.49808e-05
-3.49808e-05
4.30265e-05
-4.30265e-05
-5.85149e-05
5.85149e-05
-4.97178e-05
4.97178e-05
-4.18256e-05
4.18256e-05
-4.45302e-05
4.45302e-05
4.56132e-05
-4.56132e-05
4.58444e-05
-4.58444e-05
4.41306e-05
-4.41306e-05
-4.13285e-05
4.13285e-05
-6.30643e-05
6.30643e-05
4.31153e-05
-4.31153e-05
-4.47368e-05
4.47368e-05
4.08601e-05
-4.08601e-05
4.66856e-05
-4.66856e-05
-4.55538e-05
4.55538e-05
5.35766e-05
-5.35766e-05
-5.89096e-05
5.89096e-05
3.78732e-05
-3.78732e-05
4.48675e-05
-4.48675e-05
4.53945e-05
-4.53945e-05
-4.10118e-05
4.10118e-05
4.48981e-05
-4.48981e-05
4.58611e-05
-4.58611e-05
-4.58448e-05
4.58448e-05
-4.58423e-05
4.58423e-05
-4.06538e-05
4.06538e-05
-4.58753e-05
4.58754e-05
4.59305e-05
-4.59305e-05
4.59463e-05
-4.59463e-05
4.46109e-05
-4.46109e-05
3.77289e-05
-3.77289e-05
-4.57623e-05
4.57623e-05
-5.55409e-05
5.55409e-05
-4.38144e-05
4.38144e-05
4.57499e-05
-4.57499e-05
-4.59937e-05
4.59937e-05
4.32261e-05
-4.32261e-05
-5.93183e-05
5.93183e-05
-4.71469e-05
4.71469e-05
4.96059e-05
-4.96059e-05
4.57238e-05
-4.57238e-05
-8.28755e-06
8.28757e-06
4.57738e-05
-4.57738e-05
4.1486e-05
-4.1486e-05
5.12065e-05
-5.12065e-05
-4.58655e-05
4.58655e-05
4.23255e-05
-4.23255e-05
3.10906e-05
-3.10905e-05
3.42075e-07
-3.42075e-07
-4.41195e-05
4.41195e-05
3.28686e-05
-3.28686e-05
-3.65688e-05
3.65688e-05
3.96308e-05
-3.96307e-05
2.66262e-05
-2.66262e-05
2.61966e-05
-2.61966e-05
2.70487e-05
-2.70487e-05
2.43954e-05
-2.43954e-05
1.28792e-05
-1.28792e-05
0.00107798
-0.00088228
-0.000195694
0.00546652
-0.00207531
-0.00339121
-0.00594643
0.00594645
-2.63372e-08
0.00335332
-0.0025986
-0.000754726
-0.00156317
0.00176666
-0.000203488
-0.00675903
0.00284216
0.00391687
0.00121482
0.00425171
0.00725557
-0.00587564
-0.00137993
0.00119665
-0.001912
0.00071535
-0.000864488
-0.000698684
-0.0014421
-0.000314641
0.00175674
0.000138766
-7.33007e-07
-0.000138033
0.000778589
-0.00222069
-0.00360348
0.000122713
0.00348075
-0.00320314
0.00289386
0.000309281
-0.00570489
0.00724531
-0.00154042
-0.00370912
0.00289736
0.000811749
-0.000563587
-0.00303989
-0.00175106
0.00239011
-0.00063905
-0.000463893
0.00255835
-0.00209445
-0.00161214
0.00111239
0.00049975
0.000583527
0.000581832
-0.00160148
-0.00515755
0.00131227
-0.00180088
0.000488607
0.00578046
-0.00386069
-0.00191976
-0.000667719
0.00330991
-0.00264219
-0.00583505
0.0058351
0.000472975
0.00129369
-0.0063415
0.000974953
0.00536655
0.00231885
-0.00298657
-0.00378905
0.0031139
0.000675148
0.0021481
-0.0042234
0.00108848
-0.000201438
-0.000887042
0.00150809
-0.00129323
-0.000214859
-0.00280304
-0.00040009
0.00535201
-0.00535072
0.000373597
0.0011345
0.00522774
-0.00133652
-0.00389122
0.00198287
-0.000786213
0.00308569
0.00190868
-0.00499436
-0.000721368
-0.00306769
-8.89821e-05
-0.000155602
0.000244584
0.00393599
0.00331957
0.00115699
-0.00487725
0.00372025
0.0016279
0.00359983
-0.00498242
0.00632149
-0.00133908
-0.00114231
-0.000589854
0.00173217
0.00133641
0.00201691
0.000135293
0.000103625
-0.000238919
0.00502238
-0.00339447
0.00645978
-0.000841931
-0.00561785
0.00321597
-0.00266184
-0.000554126
0.00221581
0.000453883
-0.0026697
0.00295175
-0.000735938
0.00650392
-0.00539859
-0.00110532
0.000498818
-0.00385808
0.00335927
6.91917e-05
0.0063906
0.00479639
-0.00429757
-0.00053578
0.00105939
-0.000523612
-0.00176172
0.000619408
0.00191706
0.0022491
-0.00416615
0.000253448
-0.000333597
8.01492e-05
-0.00126062
-0.00284704
0.00410767
-2.62108e-05
0.00653013
-0.00281498
0.00229782
0.000517164
0.000389742
-1.22369e-05
-0.000377505
-0.00569232
-0.000254103
0.00188046
-0.00140748
0.00082821
0.00495225
0.000893241
0.000184738
0.00263679
-0.006447
0.00381022
-0.0011202
0.000584426
0.00264013
-0.00390075
0.00619671
-0.00226071
0.0010921
0.00117728
-0.000800517
0.00104742
-0.000246901
-0.00111481
-0.000497329
0.00188396
0.00133201
-0.000595213
0.00142959
-0.0012374
-0.000192187
-0.00265438
0.00199079
0.000663597
0.00116677
0.000262828
0.00112782
-0.00496302
0.0038352
-0.00474962
0.00141073
0.00333889
-0.00455433
0.00611805
-0.00156373
-0.0050629
8.04868e-05
-0.00202158
-0.000632797
-0.000215141
0.000126159
-0.00122032
0.00464268
-0.00342236
-0.00120237
-0.00070963
0.000103302
-0.000192022
8.87199e-05
0.000126282
-2.29796e-05
-0.00125401
0.0046322
-0.00337818
-0.000156169
2.43513e-05
0.000131817
-0.00556848
0.00170779
-0.00119914
-0.000562587
-0.000449418
-1.88881e-05
0.000468305
-0.000543237
9.38183e-05
0.00101381
7.46686e-05
-0.00181414
0.000615005
-0.000150268
1.71621e-05
0.000133105
0.00136802
-0.00234446
0.000976437
0.000271105
-0.000135812
-0.00392542
0.00514024
-0.0024576
0.000706549
-9.60659e-05
-0.000414453
0.00051052
0.00568572
-0.00216796
-0.00351776
7.91786e-05
0.00250627
-0.00258545
0.00444843
-0.00559913
0.0011507
0.00263469
0.00305102
0.00291395
-0.00283478
-0.00614674
0.000441857
-0.00644945
0.00362083
0.00282863
0.00229257
0.00390414
-0.00438735
0.00137359
0.00301376
0.00150819
-0.000195917
-0.00102315
0.00401838
-0.00299523
0.00463856
-0.00162605
-0.00301252
-0.00460078
0.00374738
0.000853402
0.00369384
-0.00503036
5.92423e-05
0.0003305
-0.00137971
0.00582815
-9.13859e-05
0.00214924
-0.00205785
-0.0020685
0.0026114
0.000167032
-0.00277843
-0.00127741
0.00264543
-0.000642574
0.00325397
0.00164105
-0.00173244
0.000897285
0.00397136
-0.00486865
-0.0050406
0.00384107
0.00119954
0.00255188
-0.0035941
0.00104222
-0.00331783
0.00411516
-0.000797324
0.000350555
-0.00366839
-0.000898412
0.000898413
-0.000454213
0.000358147
-0.000126963
-0.000973465
0.00110043
0.0050687
-0.00184175
-0.00322694
-0.00243336
-0.00036969
0.00290073
0.000157839
1.66023e-05
-0.000174441
-0.00147311
0.00112765
0.000345456
-0.000140449
-0.00490015
0.0050437
-0.00388671
0.000218088
-7.93224e-05
0.00444422
0.000578155
0.00406759
-0.0015157
0.00016491
-7.07128e-06
-0.00632193
-0.000991255
-0.000822886
0.00430009
-0.0019038
-0.00239629
0.00275644
0.00154366
0.0010777
-0.00563202
-0.00226306
-0.000551917
-0.00112216
-0.000956891
0.00207905
4.05374e-05
-0.00272345
0.00268291
-0.00235839
0.00123623
-0.00221809
0.00530378
-0.00461427
0.0015957
0.00301857
0.00254681
0.00067683
-0.000340472
-0.000336358
-0.00601541
0.000582801
0.00543261
-0.00418423
0.00582325
-0.00163902
0.00182421
0.00163121
-0.00345542
-0.00168038
0.00089785
0.000782527
-0.00271539
0.00208198
0.000633409
0.00111701
0.00076345
0.000247202
-0.000328937
8.17359e-05
0.00488844
-0.00399116
-0.00638795
0.00557807
0.000809885
-0.00478144
-0.00166801
0.00334612
0.000630532
-0.00397665
0.000154047
-0.00016223
8.18222e-06
0.00059037
-0.000125243
-0.000465127
-0.00451839
0.00261459
0.000383859
-0.000558478
0.000174619
4.01185e-05
-0.000938533
-0.00257572
0.0044844
-0.00530539
-0.0003223
0.00562769
0.000224773
0.00018972
-0.000414493
0.00102112
-0.00102112
0.00168535
-0.000724605
-0.00211256
0.00181445
0.000298102
0.004397
-0.00302342
-0.000162453
6.28426e-06
-0.00121754
0.00125765
0.000685349
0.00129752
0.00234777
-0.000265778
-0.00401949
-0.00128589
0.00111634
-0.00497444
0.00321261
-0.00446662
0.000833778
-0.00213572
0.00130195
0.00335983
-0.00458015
-0.00271111
-0.00180727
-0.00483594
0.00469549
-0.000676478
-0.00533893
-0.00515824
0.00151454
-0.00148039
-3.41493e-05
0.00223636
0.000111405
-0.00601448
0.00204868
0.0039658
-0.00121933
0.000526012
0.000693317
0.0014471
0.00294991
-0.00462502
-0.0010144
0.00563942
-0.000212845
0.00013855
7.42944e-05
-0.00551302
0.0013288
0.00375311
-0.00493692
0.00118382
-0.00149956
-0.000612995
-0.00053668
-0.0006375
0.000138341
-0.000203806
6.54637e-05
0.00498433
-0.00385652
-0.00130066
0.00512509
-0.00382443
-0.000390462
-0.000827073
-0.00586126
0.000439667
0.00539543
-0.00616414
0.00456265
-0.000922953
-0.005465
-0.00109631
-0.000376794
-0.00181687
0.00285686
-0.00103999
-0.000419087
0.000321999
9.70878e-05
-0.00173207
0.00141743
0.00163416
-0.000119617
0.0008232
-3.67338e-05
-0.00169533
0.0027968
0.00121731
-0.00303417
0.00605691
-0.000478842
0.00528133
7.06769e-05
-0.00528153
0.00439074
0.00114481
-0.00553556
0.000556481
-0.000768812
0.000212331
-4.01195e-05
-0.000414093
-9.95995e-06
0.00606687
-0.000162176
0.000156819
5.35687e-06
0.000133395
2.06519e-05
0.00254085
-0.00335657
0.000815721
-0.00190906
0.000705463
0.0012036
0.00792005
-0.00345416
-0.00446588
0.00116896
0.00126596
-0.00243493
0.000106474
-0.000172564
6.60899e-05
-0.00080587
0.00133188
0.00115794
0.00318287
-0.00434082
-0.00561429
0.000165665
0.00544862
-0.00401769
0.00299455
0.00173495
0.00479518
0.00458425
0.00333579
-2.11655e-05
0.000191967
-0.000170801
-0.00130421
0.00439288
-0.00308867
0.000299537
-0.000339656
-0.000131354
-8.1491e-05
0.00410072
-0.00227652
0.00475522
-0.00501209
0.00025687
-0.00323346
0.00607064
-0.00283718
0.00252727
0.00157345
0.00575112
-0.000995901
-0.00139126
-0.00562103
0.00137242
0.00424861
0.000654758
0.000520475
-0.00117523
0.00126943
-0.000614672
0.000585451
-0.00111014
0.000524688
0.00110593
0.000282198
0.000394632
-0.000678252
0.00443136
0.00151977
-0.000392127
0.003526
-0.00611411
0.00258812
0.00153464
-0.00258433
0.00104969
-0.00431448
0.00115756
0.00315692
0.0029141
-0.00421831
-0.00491071
-0.00125343
-0.00409732
0.00126568
0.00283164
0.00124357
0.00314931
-0.00326425
-0.000833074
0.00222659
-0.00105764
-0.00067629
-0.00253338
0.00320966
0.00241063
0.000612939
-0.00302356
-0.00159278
0.00120269
0.000390097
0.00027005
0.00149369
-0.00196797
0.000474286
-0.00011085
-0.000222748
-0.000264482
0.000153632
-0.00435124
-0.000249537
-0.0002951
0.00117487
-0.000879775
0.00435132
-0.00464507
0.000293755
-8.84081e-05
0.000117753
-2.93445e-05
0.000971273
0.00338168
-0.00435295
-0.00015699
6.85823e-05
-0.00475203
0.000710798
0.00404124
-0.000753643
0.000114195
0.000639445
8.45465e-05
-8.52794e-05
-0.000400702
0.000864672
-0.000347477
-0.000517195
-0.00603619
0.000637596
-0.00254968
-0.0001282
0.00267787
-0.0031695
0.00441306
0.00218083
-0.00108873
-0.00116718
-0.00118334
-1.90322e-05
-0.00351798
-0.00123163
0.00151365
-0.000406707
-0.00110694
0.00191964
0.00183838
-0.00375801
0.00504054
-0.00160909
-0.00343144
0.000793468
-0.00541848
-0.00137217
0.00300338
0.00195466
0.000786407
-0.00274107
-0.00349833
0.00446961
-0.000152958
2.6906e-06
0.000934222
-0.00443255
-0.00449723
-0.000147857
-0.000997845
-0.00461644
0.00462333
0.00148266
0.00355787
0.00415843
0.00114274
-0.00530117
3.68182e-05
5.94164e-05
-9.62346e-05
-0.00140918
0.00336385
0.00370633
0.00353898
-0.00140279
0.00237098
-0.000968187
-0.00248165
0.000460069
-0.000878401
0.000751436
-0.000198828
0.000423602
-0.000206086
0.00169978
0.00376336
-0.00184372
-0.0010737
-0.000606686
-0.000107253
-0.000157228
0.00355042
-0.00163335
-0.00240369
0.0046528
0.000674543
-0.00309589
0.00242134
0.000649156
0.000763192
-0.00105829
0.00209974
-0.00130806
-0.00327426
0.00458232
-0.00214511
0.0047819
-0.000553307
0.00344716
0.00023856
-0.000221398
-0.0023633
0.000960525
0.00231189
-0.00386847
0.00155659
-0.00122371
5.80886e-05
-2.12705e-05
0.00215056
-0.00279622
0.000645666
-0.00117103
-0.000421751
-0.00353001
0.00450497
0.00119099
0.00167809
-0.00286908
-0.00169135
0.00366407
-0.00197273
0.00423802
-0.000856351
0.000234328
1.41065e-05
-0.000248434
-0.00372189
0.00203054
-0.00142388
0.00471432
-0.00329044
0.000877958
0.00130287
0.00013449
0.000886631
0.000253062
-0.000300739
4.76763e-05
0.00169145
0.000217442
-0.00190889
0.00301975
-0.00458459
0.00156484
-5.28834e-05
0.000374305
-0.000321421
0.00156297
-0.000360292
0.00141325
-0.000616913
-0.000796335
0.00282714
-0.00392381
0.00109667
0.00268032
-0.00374231
0.00106199
-0.00515622
0.00192277
0.00389966
-0.000879905
-0.000630394
-0.00237764
0.00300804
0.00140692
-0.00511689
0.00370997
0.00336051
-0.00145893
-0.00190159
-0.000686239
0.0017266
-0.00104037
0.00477168
-0.00303674
-0.000701577
-0.00196026
-0.00598326
0.00514132
3.85147e-06
0.000121748
-0.000125599
-0.00158056
0.00120272
0.000377839
-0.00490759
0.00630857
-0.00140099
-0.00188915
0.000709572
0.00117958
0.000404964
0.0026867
-0.00208923
-0.00059747
0.00343487
0.000489688
-0.00392457
0.000125896
-1.94215e-05
0.0051722
0.0003369
-0.00550909
-0.00194093
0.00379777
-0.00185684
0.00276694
-0.000634144
-0.0021328
0.000462547
0.000402124
-0.000437236
0.00387211
0.00202589
-0.00396682
0.000703067
-0.000260826
-0.000442241
-0.000657583
2.30382e-05
0.000634547
-0.00315191
-0.00576361
0.00576713
-0.000273064
0.000950659
-0.000677595
-0.00229079
-0.000190864
-0.00454824
0.00324017
-0.000866897
0.0011247
0.00360788
-0.00501948
0.00141161
0.000410667
-0.00296034
0.00233191
-0.00244052
0.000108608
-0.00157144
0.00148228
8.91621e-05
-0.00121166
-0.000368895
-0.00339029
0.00342641
-0.00223541
0.000457253
0.000133117
-0.00173734
0.0010511
-0.00279291
0.000739356
0.00205356
0.000242339
-8.01164e-06
-0.00347672
0.00102246
0.00245426
-0.0014438
0.00560223
0.000339339
-0.000955802
0.000616464
0.00212342
0.000643509
-0.00127774
0.000304281
0.00111538
0.00121653
-0.00142153
0.00494905
-0.00352752
-0.00484905
0.00576481
-0.000915762
-0.0011754
0.00228635
0.00410425
0.00107454
3.7851e-05
0.00585403
-0.00550513
-0.000348899
0.00354782
-0.00465668
0.00110886
0.00309045
-0.000679831
0.00542693
-0.00181906
-0.00250429
-0.000972428
-0.00218045
-0.000312475
0.00249293
0.00241608
-0.00196221
-0.00160818
-0.00424027
0.00274768
0.00149259
-0.000332839
0.00123069
0.00121161
0.00365034
-0.00486194
-0.000291579
0.000675439
0.00305957
-0.00238503
-0.00472497
-0.00125829
0.00647093
-0.00129873
0.00423582
0.00206307
0.000495282
0.00285535
-0.00212638
-0.000728962
0.00473747
-0.00245112
-6.95506e-05
-0.00332661
-0.00086524
0.00419185
0.000388346
-8.65877e-05
-0.000301758
-0.00514537
0.00610871
-0.000963336
-0.000721131
0.00190246
-0.00118133
-0.000697061
0.00525251
-0.00455546
0.00119254
-0.00191367
-0.000112833
-0.0057628
-0.000800517
0.00202397
0.00383007
-0.000253556
-0.00192689
0.000251404
-4.2022e-06
0.000362571
-0.000487814
0.00335976
-0.000818918
-0.00522608
-0.000271566
-0.000147521
0.000150196
-0.00013358
-1.66166e-05
-0.00248375
0.00012536
-0.000420686
0.00159295
-0.0010209
-0.000572052
0.00246359
0.000600518
-0.00306412
-0.000718761
0.00318235
-0.00520295
-0.000271516
0.00547446
0.00375028
0.00137482
0.00440633
-0.00122346
-0.000128686
0.00254477
0.00540385
-0.000206643
-0.00519722
-0.00608752
0.00425295
0.00183458
0.00321067
-0.00126814
-0.00435289
0.000203695
-0.00022486
0.000579035
0.000834211
0.00114414
0.000163531
-0.00130767
0.0042123
0.00119156
-0.000961025
0.00317126
-0.00221023
0.0047264
-0.00138027
-0.00218025
0.00279295
-0.000612691
-0.00117774
-0.000122391
0.000303326
-0.000180935
0.00344663
-0.0041437
0.00134691
-0.000990668
-0.000356242
0.00159758
-0.000394855
-0.00325059
0.00228956
0.00548809
-0.00434328
-3.06342e-05
0.000352634
-0.00535561
0.000448014
0.0054293
-0.0019033
-0.000998779
-0.00361466
0.00461345
-0.000645706
0.00288226
-0.00223655
0.00549726
-0.00286244
-0.00263482
-8.83968e-05
0.000592251
-0.000677064
0.000660542
1.6522e-05
-0.000694041
0.00173235
-0.00103832
-0.00314816
-0.00116632
0.000155541
-1.71991e-05
-0.00122488
-0.00478961
-0.00307443
0.00239813
-0.000728488
-0.000292633
-7.26194e-05
-8.95562e-05
-0.00121944
-0.000806027
-0.00523016
-0.0028388
0.0021931
-0.000816539
0.00119013
0.00111316
0.00437519
-0.00548834
0.00338467
-0.00275414
0.000466663
0.000771002
-0.00288352
0.00211252
0.00497919
-0.00492304
-5.61385e-05
-0.00320953
0.00361558
-0.000406051
0.000207792
-9.56062e-05
-0.000112186
-0.00495514
-0.00149188
-0.00175872
0.00368964
-0.00193092
0.00298136
-0.00221036
-0.00378251
0.00202379
0.00139504
-0.00258174
0.00118669
-0.00363292
0.00568161
0.00649988
-0.00219629
-0.00430359
-0.00239936
0.00237534
2.40265e-05
0.00559759
-0.00162624
0.00118739
-0.000924355
-0.000263041
-9.10359e-06
0.000262166
0.000248423
-0.000774322
0.000525899
-0.00304734
0.00364948
-0.000969163
0.000846811
-0.00104825
0.00236416
-0.000632578
-0.00173158
0.00220532
-0.000513868
0.00451738
0.000631268
0.00173289
-0.00175668
0.00106264
0.000408591
-0.000464689
5.60977e-05
0.00221744
-0.00174381
-0.00047363
0.000826391
-0.00514778
-0.000544544
0.00036949
-0.00058835
0.00021886
-0.00410173
0.00547414
0.000942022
-0.00111667
0.000174648
-0.00153247
0.00216318
-0.000630706
-0.00148839
-0.00275188
-0.00536914
-0.000158856
0.00552801
0.000300355
0.000108302
4.18948e-05
0.000127193
-0.000126861
-3.31729e-07
0.00410695
-0.00289535
-0.00379719
-0.00231691
0.00346638
0.0030335
-0.0025899
0.000721908
0.00186799
-0.000844664
0.0022397
-0.00229795
-0.00010142
0.00272937
-0.00377715
0.00104779
0.00130576
-0.000130883
0.000461788
0.000552023
-0.00327706
0.000962436
0.00231463
0.000911412
-0.000612161
-4.54235e-05
-0.00427093
0.00171738
0.00010922
-0.0018266
-0.00396428
0.00146298
0.0025013
0.000519258
0.00148179
-0.000902758
-0.000245834
-0.00466043
0.00490627
0.000784233
-0.00247668
0.00169245
0.0012022
0.00131232
-0.000462415
-0.00172332
0.00218574
0.00257999
-0.00179576
0.00446746
-0.00353323
-0.000772142
-0.0026409
-0.000227308
0.000251659
-0.000707649
0.00176715
-0.0010595
0.00266096
-0.00366667
0.0010057
0.000136423
2.03963e-05
-0.00236442
-0.000912648
0.00142116
-0.00163622
0.000215055
-0.00277493
0.000685706
0.00127617
-0.00141859
0.000142412
0.0016185
-0.00180769
0.000189188
0.000675098
-0.00372315
-0.0011541
0.00134371
-0.00489232
0.00354861
-0.000911711
0.00357266
0.000119006
-7.91285e-05
-3.98774e-05
0.00473902
-0.00362586
-0.000321219
-0.0015241
-0.00401344
-0.00149959
0.00209273
0.00070021
-0.00100971
-0.000922957
-0.00452529
-0.00162145
-0.000368757
0.00124276
-0.000931993
-0.000310765
-0.00149547
-0.00108888
0.000654655
0.00225962
-0.00291427
-0.000114321
0.000670802
-0.000715868
3.8804e-05
-0.00246148
0.00196645
0.00139405
-0.000685534
0.00162613
-0.000940591
-8.68639e-05
-0.000116942
0.000318404
-0.00194693
0.000447369
0.0016156
-0.00230853
0.000692929
-0.00333914
0.00258321
0.000755924
0.00120088
0.0024097
-0.00361058
-0.00175456
0.00104691
-0.00294128
-0.001023
-0.00078456
-0.00255458
-0.00167752
0.00125393
0.000423593
0.00176556
-4.81726e-05
-0.000760475
-0.00243513
0.0031956
-0.000669484
0.00291346
-0.0022588
-0.000858543
-0.0039476
0.00480616
-0.00234215
0.00234008
2.08002e-06
-0.000753643
-0.00156577
0.000544873
-0.00240609
0.00381883
-0.00141275
0.00323292
0.00288513
0.000194341
3.62317e-05
-0.000230573
0.00234059
-0.000602555
-0.00173803
0.000187981
-0.00018413
-0.00358754
0.00493124
-0.00329284
0.00524223
-0.00194939
-0.00350992
-0.00150956
-0.000914779
0.00323171
-0.00231694
0.00285712
0.00177358
-0.00417968
-0.00499864
-0.000146724
-0.000783151
0.00284487
-0.00206172
-0.000431677
0.000378793
-0.000533091
0.00167778
-0.00114469
-0.00402761
0.00334301
0.000684595
-0.00326878
0.002354
-0.0038682
0.000673735
0.00319446
0.00141153
-0.00101562
-0.000395913
-0.00589957
0.000696622
0.00184686
-0.00141115
-0.000435702
0.00144036
-0.000432935
-0.00100743
7.83764e-05
0.000129416
0.00292885
-0.000631027
-0.000220323
-0.00348717
-0.000381033
0.000426547
-0.0030554
-0.000972217
-0.00233628
-5.8701e-06
-0.00292334
0.00229295
0.000720332
0.00260216
-0.00332249
0.000587889
-0.000860954
0.00140848
-0.00671704
0.00530856
-0.00576396
0.000982514
-0.00233735
0.00353824
0.000692301
0.000258359
-0.002733
0.00345333
-8.94827e-05
0.00506867
0.00060954
0.00170738
-0.00231693
-0.00177863
0.00124554
0.00274783
-0.00369531
0.000947476
0.00510075
0.000671656
0.00154578
0.000312714
0.000390353
-0.000364002
-0.00040481
0.000180994
-0.00174653
0.00176685
-0.000888892
0.000883434
0.000598354
-0.000583149
0.00301043
-0.00242728
-0.00150881
0.00184351
-0.0003347
-0.0048924
0.00380242
0.00108999
-0.00479631
0.00150346
-4.17545e-05
3.88589e-05
2.89566e-06
-0.00281139
-0.000855279
0.00108322
-0.00129452
0.000211296
0.00135221
-0.00493976
0.00114119
2.94912e-06
0.00123683
0.000694133
0.00218812
-0.00366623
0.000854852
0.00018486
-0.00503391
0.00190211
0.00122212
0.000680338
-0.00527185
-0.000491764
0.0056543
0.00118615
0.00710793
-0.0021846
-0.00492333
0.000789874
-0.000379663
-0.000410212
0.000712811
-0.00138504
0.00077835
-0.00386015
-0.00125674
0.000303326
-0.000935471
-0.000425727
0.0013612
0.00233031
0.00400855
-0.00486708
0.0027029
0.000834313
-0.00353722
0.00124903
-0.000964777
-0.000284251
0.000745105
0.00159548
-0.0001351
0.000138328
-3.22807e-06
-0.000709081
0.00288371
-0.00217462
0.00362063
0.00109369
-0.00126381
-0.000413711
0.00141365
-0.00151519
0.000101542
4.68761e-05
7.21298e-05
-0.00447733
0.000967408
-0.00165597
0.000444304
-0.00364856
0.00292978
-0.000946053
6.37719e-05
0.000933862
0.00268087
-0.00361473
0.000849585
-0.00126899
0.00418556
-0.00291657
0.000317033
0.000279886
4.65472e-05
-0.000326434
7.8349e-05
-0.0053916
0.00531325
-0.00263585
-0.00077223
0.00340809
-0.00348748
0.00260996
0.000877535
-0.00277234
-0.000263501
-0.00171489
-0.00490335
0.000889916
-0.00145678
-0.000879505
-0.00106318
0.00379255
0.00170933
-0.00372532
0.00201599
0.000105151
2.20417e-05
0.00372589
-0.00201656
0.00286539
0.000952527
-0.00381791
-0.00130335
0.00174304
-0.000439692
0.00357352
0.00109679
-0.00467031
0.00718022
-0.001974
-0.00520622
-0.00212798
-0.000710824
-0.00173358
0.00234312
0.00377251
-0.00492528
0.00115276
-0.00280235
0.00373621
0.00115933
-5.18022e-05
-0.00110753
0.0014811
0.000909005
-0.00550762
0.000596904
0.000426183
0.00036369
0.00292155
-0.00111989
-0.00252111
0.00248113
3.9979e-05
0.000504681
-0.00184072
0.00133604
-0.00387053
-0.00119237
0.00108832
-0.0025451
-0.0052991
0.000151322
-0.00125599
-0.000520819
0.00177681
0.00563469
-0.00449195
0.000104553
0.000283794
-0.0030185
0.00318554
0.00144223
-0.00107444
-0.00036779
0.00346868
0.00475662
-0.000954208
0.000638785
-0.00327463
0.00112637
-0.00101218
-5.28889e-05
0.00046148
0.000394045
-1.97408e-05
-0.00206119
-0.000455923
0.00153914
-0.000904284
-0.00349732
0.000764335
-2.8533e-05
-1.32216e-05
0.00599854
-0.00492083
0.00522219
-0.00439398
-3.02776e-05
-0.000639445
0.000669723
0.0019489
-0.000458212
-0.00149069
0.00335897
-0.000756812
-0.00256829
0.00336083
-0.00079254
-0.0018333
0.000529955
0.00127962
-0.000953354
-0.000326262
-0.000118764
-0.000210173
0.00205919
-0.000548054
-0.00151114
-0.0013828
-0.00239578
-0.000125316
0.00209104
-0.00274594
0.000654902
0.00280624
-0.000750104
-0.00205614
0.0041037
-0.00434953
0.00031484
0.00223863
-0.000623021
-0.000682206
0.000836312
-0.00367481
0.00502702
0.00122582
0.00046054
-0.00171653
-0.00286214
0.00209716
0.00363313
0.00158906
-0.00115022
-0.00382818
-0.00113485
0.00130423
-0.00171759
0.000413355
0.00367545
-0.00318577
-0.000193981
0.001136
-3.86424e-05
-0.00027073
0.000309373
-0.000687706
-0.0019022
0.00377108
-0.00490653
0.00113547
-0.00186338
0.00235131
-0.000487938
-0.0011542
0.00213328
0.000750424
-0.00226323
0.0037545
-0.00149128
0.00150725
-0.00114307
-0.000364184
-0.00105563
0.000301988
0.000176638
-0.000427012
0.000250375
-0.000426269
-0.0012297
-0.00248006
0.00250465
-2.45896e-05
0.00144805
-0.00371128
0.00162455
-0.000370625
0.000359237
-0.000430703
7.14661e-05
-0.000826437
0.000594524
0.000231913
-0.000794422
-0.00284781
0.000823159
0.00202465
-0.00199488
-0.000875025
-0.000718825
0.00159385
-0.00524106
0.00389262
0.00134843
-0.00130837
0.00127809
-0.000576406
-0.000115908
0.000692314
0.00286882
-0.000735548
-0.000770285
-0.000160284
0.000930569
0.00184059
-0.00138005
0.00169849
-0.000394259
-0.000181997
-0.000635083
-0.00420357
0.00483866
-0.0013914
0.00283098
0.00427695
-0.00239879
-8.12711e-05
0.0031225
-0.00473159
0.000732871
0.00158197
-0.00231485
0.00201301
-0.00279615
0.00198591
-0.000712623
-0.00127328
-0.0017961
0.000455702
0.0013404
0.00432131
0.00285891
-0.00551624
0.00133857
0.00417767
-0.00125203
-0.00398902
-0.000460008
-0.0013361
-0.00100442
-0.000561352
-0.00129339
-0.000424202
0.00114196
-0.000531505
0.00150956
-0.000978053
-0.00175724
0.00129724
-0.00094426
-0.00020738
0.00115164
0.00217244
-0.00286745
0.000695022
-1.17701e-05
0.000206111
0.00103474
0.00605829
-0.00140588
-0.00465241
-0.00203579
-0.00187341
0.00134177
0.000531636
0.00127205
-0.000979713
-0.000292341
-0.00229618
-0.00102174
0.00331793
-0.00267294
0.0035835
-0.000910562
-0.000918407
0.0011262
6.97931e-06
-0.00113318
0.00376069
-0.00493523
0.00117453
0.00174763
-0.00135562
-0.000392004
0.00242708
-0.00122487
0.00273491
-0.000635088
-0.000191349
-0.00408924
0.00229637
-0.00180112
-0.000495258
0.000560412
-0.00200935
0.00144894
-0.00251663
-0.00083994
0.00086016
-0.000658657
-0.000201504
-0.000179797
-0.00364012
0.000967171
0.000651172
-0.000474534
0.00259391
0.00098959
0.000318701
0.00130979
0.000676116
-0.0016036
0.00233646
-0.00150699
0.000997407
0.000509582
0.00354529
-0.000679887
-0.00381032
0.0061029
-0.00114584
-0.00249066
0.00683124
-0.00434058
-0.000887093
0.00356796
-0.00414181
0.00093229
-0.00210116
0.00424925
-0.000684062
-0.00162447
-0.00244892
0.00171568
0.000733242
-0.00128009
0.00055267
-0.00056194
9.2709e-06
-0.00137591
-0.000776624
-0.000153567
0.000930192
-0.0015667
0.00136657
0.000200137
0.00204205
0.000802818
6.2575e-05
-0.00129998
-0.000548234
-0.000836802
-0.00241799
-0.000474536
-0.00139887
-0.000171193
0.00159236
-0.000180665
0.00341083
-0.000513466
0.00133875
0.000199918
-0.000791384
-0.0010095
-0.00193017
0.00247683
-0.000546663
-0.00104744
-0.0057289
0.00351082
0.00150116
-0.000617725
0.00288919
-0.0012111
0.000959515
-0.00135911
-0.00453045
0.00588956
0.000620136
-0.00255031
0.000740844
-0.00368722
0.00269909
0.000988121
0.000893211
-0.00142472
0.00222815
-0.00311625
0.000888093
0.00119533
-0.00342974
0.0022344
0.000860531
0.00168835
-0.00254888
-0.000174484
0.00179298
0.00274657
0.00108098
0.00361805
-0.000413522
0.00078301
0.00315858
-0.00402382
0.00097883
-0.00327501
0.000434686
0.0041252
0.00147911
-1.06755e-05
-0.000276049
0.000286724
-0.00619277
0.00385641
0.00233636
-0.000827804
-0.00261612
0.00344393
0.00263973
-0.0017792
-0.00369613
0.000893786
-0.00132161
-0.000435635
-0.000152764
0.00131953
0.00372397
0.00122507
0.000225072
0.0013092
-0.000992511
-0.000316691
0.000911914
0.000589246
-0.000313895
0.00376777
-0.00493255
0.00116479
0.00307769
-0.000849553
-0.00139889
0.00190357
0.00125974
-0.00355485
0.00229511
-0.00116746
0.00145632
0.000678171
-0.00213449
0.000192266
-0.000202942
0.00219895
-0.000862541
-0.00126549
0.000329488
0.000929462
-0.000348597
-0.000580866
0.00353231
-0.00227257
-0.000508842
0.00229273
-0.00178389
0.00102048
-0.00296417
0.00208662
0.000877561
0.000105982
-8.3102e-07
0.00466415
0.000545359
-0.00570292
-0.00519348
0.00392675
0.00126674
-0.00107643
-0.0026956
0.00377202
0.00222131
0.00372514
0.00282755
-0.00375349
0.000925947
-0.00147019
0.00110129
-0.000947539
0.0033705
-0.00242297
0.00149716
0.000562031
-0.0037858
-0.00240697
0.00107324
-0.00230434
0.00321244
-0.000908105
0.00343133
-0.000821367
0.000394851
-0.000805767
0.00254703
0.000884295
-0.000635289
0.00431074
-0.00131021
0.00171674
-0.000406537
0.00198953
-0.00128407
-0.000389198
0.00607689
-0.00491462
-0.000454523
0.000858291
-0.00246189
-0.00539145
-0.00172299
0.000412786
-0.000678138
0.000101732
-0.000868579
0.000214008
-0.00146929
0.000661406
0.00157721
-0.000905454
0.000135169
0.000804927
0.00251614
-0.00332108
-0.00109509
0.00187368
-0.00194694
-0.000474191
0.00196114
-0.00148694
-0.000877119
-0.00208705
-0.00195173
0.00147753
-0.00265768
0.0034626
-0.00164184
0.000577195
0.00106464
-0.000975673
0.00356958
0.00600871
-0.00230238
-0.00130323
-0.000419763
-0.00174148
0.00110471
0.000636767
0.000905318
-0.0045192
0.00361388
-0.00131302
0.000545965
0.000767055
-0.00403315
-0.00116033
0.000191944
-0.0011362
0.00193894
-0.000716818
-0.0013427
-0.003802
0.0051447
0.00100322
7.13179e-05
0.00329732
-0.00252811
-0.00076921
0.000155676
0.00128468
0.000877371
-0.000669774
-0.000207597
-0.0013479
-0.00101541
-0.00107655
0.00510755
-0.00403099
0.000634527
-0.00249791
0.000170192
0.00124346
0.00377157
-0.00496012
0.00118855
0.00287527
-0.00205211
0.000101827
-0.000168255
6.64288e-05
0.00102745
0.000138078
0.000104261
0.00235618
0.00370211
-0.000587143
-0.000810417
0.00139756
0.000653272
0.00177174
-0.00242502
0.00240114
-0.00171082
-0.000690314
0.000475515
0.00147339
0.000426022
-0.000508826
-0.000804194
0.000599454
-0.00532443
0.0006904
-2.98589e-05
-0.00116097
-0.00131118
-0.00378942
0.00510059
0.00103373
0.00143727
-0.00189548
0.00254664
-0.000395049
-0.00490873
0.00530378
0.000120711
-1.8884e-05
0.00065032
0.00128862
0.00273059
0.000940461
-0.00367104
0.00137538
0.000471483
0.00258632
-0.00364068
0.004546
0.00277411
0.000843323
-0.00361743
0.00162608
-0.000862573
-0.00076351
0.0013283
-0.0010193
-0.000309
0.000423355
0.00105892
-0.00469961
0.000218714
-6.95353e-06
0.00019922
0.00602621
-0.00128719
0.00152626
-0.00212881
0.00252551
-0.0018272
-0.000698311
0.000857044
-0.00254505
0.00168801
0.00523485
-0.00281713
-0.000925163
-0.00159188
0.00500925
0.00148606
-0.00178146
0.000295399
0.00049994
-0.000103782
-0.000396157
-0.000994157
-0.00314023
0.00413439
0.000741511
0.00181977
-0.00256128
0.00176761
-0.000281542
0.00224995
0.00140885