/*--------------------------------*- C++ -*----------------------------------*\
  =========                 |
  \\      /  F ield         | OpenFOAM: The Open Source CFD Toolbox
   \\    /   O peration     | Website:  https://openfoam.org
    \\  /    A nd           | Version:  7
     \\/     M anipulation  |
\*---------------------------------------------------------------------------*/
FoamFile
{
    version     2.0;
    format      ascii;
    class       surfaceScalarField;
    location    "0.177";
    object      phi;
}
// * * * * * * * * * * * * * * * * * * * * * * * * * * * * * * * * * * * * * //

dimensions      [0 3 -1 0 0 0 0];

internalField   nonuniform List<scalar> 
18389
(
-7.98202e-05
7.98202e-05
4.35054e-05
-4.35054e-05
-5.20441e-05
5.20441e-05
4.00573e-05
-4.00572e-05
-5.18213e-05
5.18213e-05
-4.00168e-05
4.00168e-05
-3.44184e-05
3.44184e-05
3.87979e-05
-3.87979e-05
-3.49647e-05
3.49647e-05
4.14441e-05
-4.14441e-05
4.46016e-05
-4.46016e-05
-3.48051e-05
3.48051e-05
-1.1922e-05
1.1922e-05
-4.2769e-05
4.2769e-05
4.34304e-05
-4.34304e-05
2.3833e-05
-2.3833e-05
1.76416e-05
-1.76416e-05
4.5888e-05
-4.5888e-05
4.59207e-05
-4.59207e-05
4.33995e-05
-4.33995e-05
-4.25882e-05
4.25882e-05
3.55932e-05
-3.55932e-05
4.30327e-05
-4.30327e-05
-5.8593e-05
5.8593e-05
-4.97158e-05
4.97158e-05
-4.18176e-05
4.18176e-05
-4.45264e-05
4.45265e-05
4.56069e-05
-4.56069e-05
4.58454e-05
-4.58454e-05
4.41258e-05
-4.41258e-05
-4.13294e-05
4.13294e-05
-6.30502e-05
6.30503e-05
4.31056e-05
-4.31056e-05
-4.47319e-05
4.47319e-05
4.08569e-05
-4.08569e-05
4.66809e-05
-4.66808e-05
-4.55977e-05
4.55977e-05
5.36166e-05
-5.36166e-05
-5.90027e-05
5.90028e-05
3.78757e-05
-3.78757e-05
4.48747e-05
-4.48747e-05
4.53949e-05
-4.53949e-05
-4.10067e-05
4.10067e-05
4.49023e-05
-4.49023e-05
4.58614e-05
-4.58614e-05
-4.58435e-05
4.58435e-05
-4.58461e-05
4.58461e-05
-4.06524e-05
4.06524e-05
-4.58791e-05
4.58791e-05
4.59263e-05
-4.59263e-05
4.59396e-05
-4.59396e-05
4.46035e-05
-4.46035e-05
3.77209e-05
-3.77209e-05
-4.57634e-05
4.57634e-05
-5.55187e-05
5.55187e-05
-4.38032e-05
4.38032e-05
4.57645e-05
-4.57645e-05
-4.59846e-05
4.59846e-05
4.32195e-05
-4.32195e-05
-5.9312e-05
5.93121e-05
-4.71339e-05
4.71339e-05
4.96047e-05
-4.96047e-05
4.57182e-05
-4.57182e-05
-9.22061e-06
9.22064e-06
4.57796e-05
-4.57796e-05
4.14318e-05
-4.14318e-05
5.12017e-05
-5.12017e-05
-4.5857e-05
4.5857e-05
4.23547e-05
-4.23547e-05
3.19654e-05
-3.19654e-05
1.40529e-06
-1.40529e-06
-4.4085e-05
4.4085e-05
3.2869e-05
-3.2869e-05
-3.65808e-05
3.65808e-05
3.97834e-05
-3.97834e-05
2.66252e-05
-2.66252e-05
2.61906e-05
-2.61906e-05
2.70501e-05
-2.70501e-05
2.43969e-05
-2.43969e-05
1.24573e-05
-1.24573e-05
0.00107612
-0.000876983
-0.000199132
0.00546367
-0.00207249
-0.00339117
-0.00594649
0.00594647
1.45659e-08
0.0033554
-0.00260199
-0.000753415
-0.00157335
0.00176458
-0.000191234
-0.00674473
0.00283411
0.00391063
0.00121232
0.00425136
0.00725561
-0.00587583
-0.00137978
0.00119382
-0.00189744
0.000703617
-0.000861999
-0.00071135
-0.00144212
-0.000314602
0.00175672
0.000164807
-8.9709e-06
-0.000155836
0.000778548
-0.00222067
-0.00360122
0.000120203
0.00348101
-0.00320205
0.00289409
0.000307965
-0.00568237
0.00720704
-0.00152467
-0.00370792
0.00289786
0.000810046
-0.000561711
-0.00303951
-0.00175433
0.0023897
-0.000635369
-0.000461344
0.00256012
-0.00209877
-0.00161138
0.00111371
0.000497665
0.000583528
0.000581831
-0.00159179
-0.00515294
0.00129334
-0.00174198
0.000448642
0.00577787
-0.00386048
-0.00191739
-0.000675676
0.00331473
-0.00263905
-0.00583506
0.00583526
0.000454374
0.00131021
-0.00633335
0.000967439
0.00536592
0.00231237
-0.00298805
-0.00378869
0.00311373
0.000674963
0.00214875
-0.00422124
0.00108742
-0.000200688
-0.000886727
0.00151555
-0.00129235
-0.000223195
-0.00280432
-0.000397726
0.0053492
-0.00534924
0.00037345
0.0011421
0.00522589
-0.00133464
-0.00389125
0.00195543
-0.000761609
0.00308566
0.00190867
-0.00499433
-0.000720081
-0.00306862
-8.77059e-05
-0.000154636
0.000242342
0.00393531
0.00332029
0.00114043
-0.00486013
0.00371969
0.0016251
0.00360078
-0.00497979
0.00631904
-0.00133925
-0.00115317
-0.000582294
0.00173547
0.00133599
0.00201941
0.000135296
0.000103622
-0.000238918
0.00501838
-0.00339328
0.00645899
-0.000842708
-0.00561628
0.00321778
-0.00267543
-0.000542344
0.00220988
0.000469346
-0.00267923
0.00296753
-0.00075765
0.00650428
-0.0053989
-0.00110537
0.000487448
-0.00383944
0.003352
7.00773e-05
0.00638892
0.00477982
-0.00429237
-0.000535801
0.00105942
-0.000523618
-0.00176517
0.000611993
0.00191706
0.00224906
-0.00416611
0.000253641
-0.000333892
8.02509e-05
-0.00125242
-0.0028471
0.00409953
-2.63333e-05
0.00653062
-0.00281022
0.00230259
0.000507632
0.000389223
-1.04401e-05
-0.000378783
-0.00569233
-0.000254152
0.0018791
-0.00142472
0.000827905
0.00494997
0.000899698
0.000176421
0.00261414
-0.00640616
0.00379203
-0.00112021
0.000584414
0.00264405
-0.00389648
0.00619684
-0.00226151
0.0010921
0.00117728
-0.000804641
0.0010214
-0.000216758
-0.00111704
-0.000494345
0.00187318
0.00134459
-0.000594179
0.00142945
-0.00123737
-0.000192079
-0.00265137
0.00198995
0.000661419
0.00116676
0.000262692
0.00111146
-0.00494316
0.00383169
-0.0047382
0.00140001
0.00333818
-0.0045544
0.00611845
-0.00156406
-0.0050608
8.10174e-05
-0.00202372
-0.000627646
-0.000214525
0.000126819
-0.00120961
0.00463215
-0.00342254
-0.00118205
-0.000715386
0.000103292
-0.00019202
8.87274e-05
0.000126272
-2.29794e-05
-0.00124408
0.00462163
-0.00337754
-0.000156254
2.43172e-05
0.000131937
-0.00556456
0.00170408
-0.00119831
-0.000566852
-0.000449376
-1.88879e-05
0.000468263
-0.000543262
9.38854e-05
0.00101442
7.29916e-05
-0.00181094
0.00061263
-0.000150654
1.704e-05
0.000133614
0.00136795
-0.00234445
0.000976499
0.000271102
-0.000135805
-0.0039251
0.00513742
-0.00245949
0.000705171
-8.76162e-05
-0.000430534
0.00051815
0.00568525
-0.00216781
-0.00351744
7.95756e-05
0.00250591
-0.00258548
0.0044315
-0.00558018
0.00114869
0.00263499
0.00305025
0.00291504
-0.00283547
-0.00612419
0.000441826
-0.00643805
0.00361924
0.00281882
0.00229266
0.00390418
-0.00438673
0.00136767
0.00301905
0.00143808
-0.000144748
-0.00101861
0.00401416
-0.00299554
0.00463792
-0.00162424
-0.00301368
-0.00458874
0.00374373
0.000845017
0.00369349
-0.00502814
5.84705e-05
0.000330753
-0.0013659
0.00579741
-8.91165e-05
0.0021481
-0.00205898
-0.00207435
0.00261817
0.000157913
-0.00277608
-0.00127744
0.00264538
-0.000635668
0.00325384
0.00164294
-0.00173205
0.000881234
0.0039659
-0.00484714
-0.00504298
0.00384146
0.00120153
0.00255188
-0.00359405
0.00104218
-0.00329502
0.00411261
-0.000817586
0.000372975
-0.003668
-0.000947437
0.000947437
-0.000450938
0.000363322
-0.000127001
-0.000973452
0.00110045
0.00506795
-0.00184021
-0.00322774
-0.0024335
-0.000370821
0.00290014
0.000157873
1.65348e-05
-0.000174408
-0.00147291
0.00113082
0.000342085
-0.00014472
-0.00489826
0.00502127
-0.00388084
0.000226913
-6.21064e-05
0.00444184
0.000576545
0.0040676
-0.00151572
0.000165055
-7.18146e-06
-0.00632224
-0.00099915
-0.000811794
0.00429918
-0.00190175
-0.00239744
0.00275788
0.00154131
0.00107793
-0.00563231
-0.00226905
-0.000541172
-0.00112376
-0.000956612
0.00208037
4.31613e-05
-0.00272458
0.00268142
-0.00236041
0.00123665
-0.00221809
0.00530375
-0.00460086
0.00158266
0.00301819
0.00254907
0.00064713
-0.000308609
-0.000338522
-0.00601604
0.000582863
0.00543317
-0.00417754
0.00581201
-0.00163447
0.00182322
0.00163241
-0.00345563
-0.00168626
0.000891936
0.000794319
-0.00271026
0.00208095
0.000629313
0.00113331
0.000745789
0.000247151
-0.00032889
8.17408e-05
0.00486422
-0.00398299
-0.00638034
0.00557311
0.000807234
-0.0047742
-0.00166385
0.00335202
0.000610012
-0.00396204
0.000154027
-0.000162249
8.22181e-06
0.000590419
-0.000125196
-0.000465223
-0.00451748
0.00261574
0.000375189
-0.0005993
0.000224111
4.22001e-05
-0.000989639
-0.00257582
0.00448449
-0.0053035
-0.000320955
0.00562446
0.000213409
0.000210253
-0.000423661
0.00136439
-0.00136439
0.00168676
-0.000720312
-0.00210485
0.00181735
0.000287492
0.00439249
-0.00302482
-0.000162464
6.2102e-06
-0.00124334
0.00128554
0.000670485
0.00128495
0.00234565
-0.000264693
-0.00401673
-0.00128676
0.00112354
-0.004963
0.00321273
-0.00445681
0.000832449
-0.00213646
0.00130401
0.00335839
-0.004568
-0.00271009
-0.0018074
-0.00483666
0.00469194
-0.000676926
-0.0053391
-0.00515761
0.00143953
-0.00146165
2.21169e-05
0.00223915
0.000106498
-0.00601456
0.00204879
0.00396577
-0.00121932
0.00052599
0.000693327
0.00143962
0.00295288
-0.00462422
-0.00101348
0.0056377
-0.000212902
0.000138585
7.43166e-05
-0.00550455
0.00132701
0.00375317
-0.00493691
0.00118375
-0.00149934
-0.000605501
-0.000536688
-0.000637488
0.000138318
-0.000203764
6.54455e-05
0.00495498
-0.00384352
-0.0012992
0.00512316
-0.00382396
-0.000346395
-0.000896946
-0.00586139
0.000439579
0.00539568
-0.0061529
0.0045611
-0.000920494
-0.00545985
-0.00109715
-0.000375756
-0.00181921
0.00285804
-0.00103883
-0.000419052
0.000321959
9.70937e-05
-0.00173206
0.00141746
0.00158847
-0.000148939
0.000818201
-3.67292e-05
-0.00169534
0.00279771
0.00121527
-0.00303447
0.00605186
-0.000478753
0.0052808
6.83904e-05
-0.00527915
0.00438889
0.00114409
-0.00553298
0.000556488
-0.000768812
0.000212325
-3.72936e-05
-0.000413644
-1.37064e-05
0.00606557
-0.000162161
0.00015681
5.35131e-06
0.000133458
2.05684e-05
0.00254493
-0.00335314
0.000808209
-0.00188685
0.000695998
0.00119085
0.00792114
-0.00345227
-0.00446887
0.00116896
0.0012694
-0.00243837
0.000104347
-0.000172961
6.86145e-05
-0.000805901
0.00133189
0.00115002
0.00318371
-0.00433373
-0.00561466
0.000165621
0.00544903
-0.00401352
0.00299491
0.00173497
0.00479565
0.00458492
0.00333621
-2.25635e-05
0.000192133
-0.000169569
-0.00129511
0.00438722
-0.00309211
0.000305681
-0.000342975
-0.000131361
-8.15407e-05
0.00410047
-0.00227727
0.00473785
-0.00498969
0.000251844
-0.00323925
0.00604899
-0.00280974
0.00252873
0.00157175
0.00572514
-0.000987294
-0.00137045
-0.00562108
0.00137234
0.00424874
0.00065455
0.000520483
-0.00117503
0.00126924
-0.000614692
0.000585297
-0.00110998
0.000524685
0.00110578
0.00028691
0.000360221
-0.000678226
0.0044314
0.00151989
-0.000389074
0.00350465
-0.00608894
0.0025843
0.00153829
-0.00258505
0.00104676
-0.00430637
0.00114858
0.00315779
0.00291743
-0.00421254
-0.0049023
-0.00125059
-0.00409144
0.0012599
0.00283154
0.0012363
0.00315092
-0.00326381
-0.000827639
0.00222758
-0.00105863
-0.000667107
-0.00253778
0.00320488
0.00241775
0.000603489
-0.00302124
-0.00159468
0.0012058
0.000388876
0.000270176
0.00150326
-0.00196967
0.000466411
-0.000110969
-0.000222924
-0.00026456
0.000153591
-0.00434763
-0.000241115
-0.000295446
0.00118085
-0.000885405
0.00435008
-0.00464344
0.000293357
-8.83963e-05
0.000117725
-2.93283e-05
0.000967038
0.0033821
-0.00434913
-0.000156959
6.85629e-05
-0.00474973
0.000709063
0.00404068
-0.000907039
1.47641e-06
0.00090556
7.24384e-05
-8.14092e-05
-0.000399641
0.000864668
-0.000347484
-0.000517185
-0.00603644
0.000637534
-0.00254963
-0.000128204
0.00267783
-0.00317023
0.00440653
0.00218084
-0.00108874
-0.00116716
-0.00118511
3.06192e-06
-0.00351728
-0.00122092
0.00152845
-0.000429933
-0.00109852
0.00191953
0.00183735
-0.00375688
0.00503184
-0.00159944
-0.0034324
0.000792262
-0.00541648
-0.0013725
0.00300491
0.00194747
0.000790972
-0.00273844
-0.00349921
0.00446626
-0.000153366
2.71172e-06
0.000929735
-0.00442895
-0.00449677
-0.000146687
-0.000998203
-0.00461645
0.00461274
0.00147382
0.00355802
0.00415854
0.00113912
-0.00529766
3.64644e-05
5.87765e-05
-9.5241e-05
-0.00141534
0.00336282
0.00369157
0.00351547
-0.00140548
0.0023721
-0.000966615
-0.00247845
0.000454728
-0.00087839
0.000751388
-0.000200686
0.000414096
-0.000198061
0.00170133
0.00376349
-0.00184395
-0.00108445
-0.000601805
-0.000107255
-0.000157304
0.00355056
-0.00163349
-0.00240372
0.00465278
0.000674454
-0.00309593
0.00242147
0.000666451
0.000760807
-0.00105625
0.00210185
-0.00130059
-0.00327529
0.00457588
-0.00218269
0.00479683
-0.000550036
0.00344412
0.000238856
-0.000221816
-0.00236146
0.000955993
0.00228892
-0.00386579
0.00157688
-0.00121636
5.88122e-05
-2.23478e-05
0.00215142
-0.00279858
0.000647163
-0.00117373
-0.000420939
-0.00352744
0.00449488
0.00118384
0.00168393
-0.00286777
-0.00169291
0.0036634
-0.00197049
0.00423413
-0.000852039
0.000234325
1.40943e-05
-0.000248419
-0.00372038
0.00202747
-0.00141533
0.00470457
-0.00328924
0.000877984
0.00130286
0.000227526
0.00113686
0.000253106
-0.000300784
4.76773e-05
0.00171322
0.00021189
-0.00192511
0.00302387
-0.00457497
0.00155111
-5.29472e-05
0.000374414
-0.000321467
0.00156443
-0.000358636
0.00141359
-0.000606422
-0.000807172
0.00282797
-0.00391582
0.00108785
0.00268304
-0.00374144
0.0010584
-0.00515347
0.00191422
0.00389262
-0.000868749
-0.000620631
-0.00238159
0.00300222
0.00140498
-0.00511549
0.0037105
0.00336058
-0.00145895
-0.00190164
-0.000694016
0.00173598
-0.00104197
0.00477193
-0.00303696
-0.00071551
-0.00195991
-0.00598213
0.00513942
3.73777e-06
0.000121922
-0.00012566
-0.0015819
0.00120522
0.000376687
-0.00491018
0.00630691
-0.00139674
-0.0018843
0.000699916
0.00118439
0.000402861
0.00268576
-0.00208955
-0.000596214
0.00343384
0.000490425
-0.00392427
0.000125279
-2.0932e-05
0.00517237
0.000336998
-0.00550936
-0.00194074
0.00379733
-0.0018566
0.00276238
-0.000624417
-0.00213796
0.000462566
0.000402103
-0.000438033
0.00387187
0.00202554
-0.00396628
0.000722171
-0.000265678
-0.000456493
-0.000688127
5.02897e-05
0.000637839
-0.00315203
-0.00576388
0.00576603
-0.000274335
0.000952874
-0.000678539
-0.00228925
-0.000189207
-0.0045411
0.0032405
-0.000857128
0.00111487
0.0036082
-0.00501987
0.00141167
0.000410709
-0.00296033
0.00233458
-0.00243859
0.000104003
-0.00157145
0.0014823
8.91542e-05
-0.00121468
-0.00036722
-0.00339108
0.00342418
-0.00224033
0.000457342
0.000133077
-0.00174112
0.00104711
-0.00278728
0.000728124
0.00205915
0.000242325
-8.00032e-06
-0.00347598
0.00102057
0.00245541
-0.00144294
0.00560148
0.000341885
-0.000956818
0.000614934
0.00212786
0.000634517
-0.00127774
0.000304292
0.00112062
0.00121397
-0.0014125
0.00494014
-0.00352764
-0.00484337
0.00576054
-0.000917177
-0.00116862
0.00228452
0.00410439
0.00107504
3.86778e-05
0.00585244
-0.00550431
-0.000348127
0.00352647
-0.00464353
0.00111706
0.00308806
-0.000670314
0.00542692
-0.00181872
-0.00250472
-0.000971253
-0.00218407
-0.000299148
0.00248322
0.00243727
-0.00196793
-0.00160818
-0.00423777
0.00274949
0.00148828
-0.000343447
0.00123538
0.00119999
0.00364651
-0.0048465
-0.000278777
0.000653967
0.00305957
-0.00238511
-0.00472358
-0.00125855
0.00647052
-0.00129816
0.00422671
0.00206384
0.000496282
0.0028555
-0.00212807
-0.000727431
0.00473594
-0.00245142
-6.64976e-05
-0.00332711
-0.000861001
0.00418811
0.000388747
-8.66809e-05
-0.000302066
-0.0051381
0.00610292
-0.000964824
-0.000709773
0.00190193
-0.00119216
-0.000697225
0.00525315
-0.00455593
0.00119596
-0.00190574
-0.000112559
-0.00576326
-0.000804641
0.00203219
0.00382025
-0.000261581
-0.00192249
0.000251356
-4.20522e-06
0.000362622
-0.000487818
0.00335689
-0.000811961
-0.0052243
-0.000271553
-0.000147499
0.000150227
-0.000133616
-1.661e-05
-0.0024809
0.000120487
-0.000417062
0.00160287
-0.00102793
-0.000574934
0.0024556
0.000606904
-0.00306251
-0.000729002
0.0031846
-0.00520292
-0.000271535
0.00547445
0.00375034
0.00137282
0.00439818
-0.00121446
-0.000117556
0.00255483
0.00540384
-0.000206621
-0.00519723
-0.00608774
0.0042531
0.00183465
0.00320913
-0.0012679
-0.00435318
0.000205371
-0.000227934
0.000541235
0.000872357
0.00119132
0.000134828
-0.00132615
0.0042123
0.00119155
-0.000962025
0.00317129
-0.00220927
0.0047103
-0.00135827
-0.00218151
0.0027932
-0.000611679
-0.00117567
-0.000103807
0.000289432
-0.000185625
0.00344659
-0.00414382
0.00135061
-0.000995441
-0.000355172
0.00160123
-0.000396015
-0.00324924
0.00228721
0.00548592
-0.00434183
-3.06109e-05
0.00035257
-0.00534801
0.000437821
0.00541405
-0.0019094
-0.000995082
-0.00361466
0.00460975
-0.000644406
0.002883
-0.00223859
0.00549727
-0.00286246
-0.00263481
-8.83984e-05
0.000586991
-0.00067711
0.000660633
1.64765e-05
-0.000698657
0.00173255
-0.00103389
-0.00315155
-0.00115482
0.000155512
-1.71935e-05
-0.00122481
-0.00478975
-0.00306875
0.00240163
-0.00111944
-0.000244947
-7.2601e-05
-8.95599e-05
-0.00124482
-0.000806046
-0.0052304
-0.00283848
0.00219408
-0.00081599
0.00118944
0.00111613
0.00435737
-0.0054735
0.00336838
-0.00275837
0.000467282
0.000768694
-0.00288264
0.00211395
0.00497153
-0.0049051
-6.64295e-05
-0.00320943
0.00361554
-0.000406101
0.000207758
-9.55972e-05
-0.000112161
-0.00494334
-0.00146283
-0.00176007
0.0036894
-0.00192933
0.00297999
-0.00221129
-0.00378177
0.00202171
0.00139509
-0.00258177
0.00118667
-0.00363307
0.00568186
0.00649682
-0.00219597
-0.00430085
-0.0023965
0.00237677
1.97404e-05
0.00557556
-0.00160968
0.00118841
-0.000929146
-0.00025927
-9.08021e-06
0.000262187
0.000249448
-0.000775995
0.000526547
-0.00305146
0.00364882
-0.000965774
0.000851839
-0.00105253
0.00236505
-0.000633675
-0.00173137
0.00222825
-0.000515031
0.00450696
0.000631944
0.00173311
-0.00176172
0.00106307
0.000408518
-0.000464651
5.61326e-05
0.00221589
-0.00174626
-0.000469637
0.000819114
-0.00514777
-0.000544563
0.00036949
-0.00058835
0.000218859
-0.00410181
0.00547415
0.000941872
-0.00111644
0.000174568
-0.00154096
0.00215974
-0.000618779
-0.00148494
-0.00275283
-0.00537951
-0.000157238
0.00553676
0.00030169
0.000108345
4.18817e-05
0.000127405
-0.000128033
6.28272e-07
0.00409215
-0.00289216
-0.00378864
-0.00230029
0.00346547
0.00303135
-0.00258816
0.000711596
0.00187656
-0.000844582
0.00223967
-0.00229892
-9.75847e-05
0.00272956
-0.0037771
0.00104754
0.001316
-0.000135145
0.000459136
0.000555287
-0.00327654
0.000960277
0.00231626
0.000907021
-0.000636852
-5.12764e-05
-0.00426244
0.00171327
0.000114052
-0.00182732
-0.0039622
0.0014602
0.002502
0.000518415
0.00147434
-0.000933106
-0.000246124
-0.0046604
0.00490653
0.000783892
-0.00247672
0.00169283
0.00120219
0.00131233
-0.000450235
-0.00173437
0.00218461
0.00258002
-0.00179613
0.00446358
-0.00353384
-0.000750992
-0.00264116
-0.000227603
0.00025192
-0.000709485
0.00176686
-0.00105737
0.00266313
-0.00366598
0.00100284
0.000136427
2.0383e-05
-0.00236549
-0.000911053
0.00142117
-0.00163605
0.000214875
-0.00277464
0.000685094
0.00127614
-0.00141841
0.000142267
0.00161854
-0.00180751
0.000188976
0.000673992
-0.00371939
-0.00114074
0.00133434
-0.00488031
0.00354597
-0.000909037
0.00357216
0.000116969
-7.76652e-05
-3.93041e-05
0.00472052
-0.00360439
-0.000304493
-0.00151966
-0.00401289
-0.00149166
0.00209366
0.000699533
-0.000998397
-0.000921202
-0.00450804
-0.00161616
-0.000389047
0.00124427
-0.000933578
-0.000310694
-0.00149759
-0.00108747
0.000651444
0.00226171
-0.00291315
-0.00011418
0.000670667
-0.000715936
3.88261e-05
-0.00246525
0.00196645
0.00139413
-0.000694037
0.00165314
-0.000959098
-8.68438e-05
-0.00011692
0.000315126
-0.00194907
0.000449729
0.00162085
-0.00230476
0.00068391
-0.00333386
0.00258913
0.000744717
0.0012108
0.0023986
-0.0036094
-0.00175788
0.00104839
-0.00294206
-0.00102014
-0.000775026
-0.00255883
-0.00167944
0.00125727
0.000422167
0.00177063
-5.73553e-05
-0.000756745
-0.00243778
0.00319451
-0.000659415
0.00291217
-0.00226073
-0.000858529
-0.00394758
0.00480612
-0.00233862
0.00234069
-2.07645e-06
-0.000907039
-0.00156555
0.000537619
-0.00240689
0.0038189
-0.00141201
0.00323334
0.00288512
0.000194313
3.62262e-05
-0.00023054
0.00234084
-0.000601938
-0.0017389
0.000188273
-0.000184535
-0.00358509
0.00491943
-0.00329092
0.00523179
-0.00194087
-0.00351037
-0.00150949
-0.000917775
0.00323154
-0.00231377
0.0028566
0.0017709
-0.0041778
-0.00499287
-0.00014522
-0.000772467
0.0028403
-0.00206783
-0.000431807
0.00037886
-0.000535719
0.00167866
-0.00114294
-0.00401342
0.00334217
0.000671248
-0.00327021
0.00235243
-0.00386346
0.000671218
0.00319224
0.00141515
-0.00101853
-0.000396621
-0.00589956
0.000696643
0.00184717
-0.00141182
-0.000435345
0.0015168
-0.000483865
-0.00103294
7.83601e-05
0.000129398
0.00292517
-0.000622574
-0.000213086
-0.00348692
-0.000376541
0.000427501
-0.00305538
-0.00095805
-0.00233645
-2.16477e-06
-0.00291869
0.00229806
0.000719841
0.00260242
-0.00332227
0.000587387
-0.000861722
0.00140393
-0.00671125
0.00530733
-0.0057532
0.000978993
-0.00232764
0.00353845
0.000695867
0.000257008
-0.00273345
0.00345329
-7.98006e-05
0.00505133
0.000597984
0.00171858
-0.00231657
-0.00177908
0.00124336
0.00274997
-0.0036945
0.000944532
0.00509848
0.000676408
0.00153948
0.000324578
0.000397592
-0.000364011
-0.000404802
0.000181032
-0.00175182
0.00176691
-0.000888931
0.000891793
0.000582543
-0.000578139
0.0030084
-0.00243026
-0.00151485
0.00184297
-0.000328119
-0.00488908
0.00380276
0.00108632
-0.00479027
0.00149934
-3.92971e-05
3.53259e-05
3.97122e-06
-0.00281425
-0.000851728
0.00110931
-0.00130176
0.000192449
0.00134238
-0.00492747
0.00115194
3.93793e-05
0.00122793
0.000692625
0.00219037
-0.00366619
0.000851951
0.000190415
-0.00503378
0.00189588
0.0012368
0.000665129
-0.00527234
-0.000491539
0.00565348
0.00119372
0.00710918
-0.0021858
-0.00492338
0.000805359
-0.000382209
-0.000423152
0.000706475
-0.00139007
0.000788265
-0.00385963
-0.00125586
0.000289432
-0.000960108
-0.000408835
0.00136895
0.00233404
0.0040086
-0.00486712
0.0027032
0.000833814
-0.00353702
0.00125146
-0.000966799
-0.000284657
0.00074441
0.00159642
-0.000135108
0.000138351
-3.24282e-06
-0.000708265
0.00288381
-0.00217555
0.00362002
0.00108456
-0.00126632
-0.000413116
0.00143062
-0.00152572
9.51034e-05
4.54359e-05
7.15335e-05
-0.00447802
0.000967643
-0.00165662
0.000441929
-0.00364771
0.0029187
-0.000945134
6.81504e-05
0.000931298
0.00268277
-0.00361407
0.000856271
-0.001279
0.00417953
-0.00290053
0.000317877
0.000279893
4.65841e-05
-0.000326478
7.82143e-05
-0.00539178
0.00531356
-0.00263833
-0.000763109
0.00340145
-0.0034813
0.00261568
0.000865629
-0.00275808
-0.000260951
-0.00171291
-0.00490881
0.000895923
-0.00145841
-0.00087804
-0.00106245
0.00379201
0.00171017
-0.00372378
0.00201361
0.000106183
2.12223e-05
0.00372453
-0.00201435
0.00286711
0.000941173
-0.00380827
-0.00130759
0.0017426
-0.000435009
0.00357299
0.00109061
-0.00466361
0.0071857
-0.00197103
-0.00521467
-0.00212905
-0.000709428
-0.00174521
0.00234318
0.00377242
-0.00492237
0.00114993
-0.00280443
0.00373572
0.00117626
-5.4307e-05
-0.00112196
0.00147882
0.000910879
-0.00550272
0.000600416
0.000426564
0.000378795
0.00292146
-0.00111665
-0.00251854
0.00248091
3.76357e-05
0.000504249
-0.00184107
0.00133682
-0.00386801
-0.00119279
0.00108506
-0.00254347
-0.0052991
0.000151336
-0.00126626
-0.000509007
0.00177526
0.00563265
-0.00449354
0.000104608
0.00028414
-0.00302012
0.00317804
0.00144405
-0.00107713
-0.000366919
0.0034685
0.00475303
-0.000950273
0.000628935
-0.00326726
0.00117355
-0.00117208
-5.29007e-05
0.000461419
0.000394126
-1.97122e-05
-0.00207469
-0.000441996
0.00155131
-0.000892184
-0.00349723
0.000763786
-3.1018e-05
-8.27917e-06
0.00599882
-0.00492088
0.00522014
-0.00439224
-0.000136698
-0.00090556
0.00104226
0.0019492
-0.000457878
-0.00149132
0.00335859
-0.000756168
-0.00256867
0.00336081
-0.000792139
-0.0018358
0.000528213
0.00128127
-0.000955241
-0.000326029
-0.000118754
-0.000210136
0.00205967
-0.000547718
-0.00151195
-0.00138452
-0.00239559
-0.00012294
0.00209057
-0.0027457
0.000655128
0.00280673
-0.000749134
-0.0020576
0.0041035
-0.00434962
0.000314472
0.00223355
-0.000612701
-0.000680986
0.000836835
-0.00367286
0.00501524
0.00121709
0.00045594
-0.0017222
-0.00285673
0.00209847
0.0036298
0.00159034
-0.00115995
-0.00382267
-0.00112049
0.00130758
-0.00171995
0.00041237
0.00367562
-0.0031852
-0.000193885
0.00113575
-3.8791e-05
-0.000271445
0.000310236
-0.000680785
-0.00190738
0.0037718
-0.00490397
0.00113218
-0.0018719
0.00235079
-0.000478898
-0.00115057
0.00213438
0.000749434
-0.00226342
0.00375412
-0.00149071
0.00150819
-0.0011458
-0.000362392
-0.00117976
0.000272724
0.000183195
-0.000499878
0.000316682
-0.000424814
-0.0012318
-0.00247681
0.0025049
-2.8092e-05
0.00144686
-0.00371028
0.00162676
-0.000369487
0.000395335
-0.000461214
6.5879e-05
-0.00082855
0.000595615
0.000232935
-0.000794039
-0.00284189
0.000811459
0.00203043
-0.00199119
-0.000904491
-0.000726701
0.00163119
-0.00523867
0.00389443
0.00134424
-0.00143018
0.00129348
-0.000576241
-0.00011595
0.000692191
0.00286871
-0.000734343
-0.000770135
-0.000160234
0.000930369
0.00184337
-0.00138743
0.00170049
-0.000392906
-0.000256629
-0.00063585
-0.00420273
0.00483859
-0.00140211
0.00283057
0.00427861
-0.00239885
-7.79583e-05
0.00312719
-0.00472664
0.000732235
0.00158287
-0.00231511
0.00201985
-0.00279232
0.00197458
-0.000702549
-0.00127203
-0.00179639
0.000455404
0.00134098
0.00431999
0.00286571
-0.00550912
0.00133292
0.00417619
-0.00124899
-0.00398967
-0.000459749
-0.00133664
-0.00101223
-0.000553321
-0.00129582
-0.000424139
0.00113837
-0.000529777
0.001515
-0.000985227
-0.00175754
0.00129779
-0.000944199
-0.000207225
0.00115142
0.00217532
-0.00286803
0.000692724
-1.17618e-05
0.000206075
0.00103939
0.00605275
-0.00140555
-0.0046472
-0.00203351
-0.00187369
0.00135305
0.000520643
0.00127357
-0.000981425
-0.000292142
-0.00229765
-0.0010176
0.00331526
-0.00267638
0.00357957
-0.000903188
-0.000916229
0.00114557
-1.52962e-05
-0.00113027
0.00376084
-0.00493263
0.00117179
0.00174787
-0.00135609
-0.000391779
0.00242708
-0.00122489
0.00273145
-0.000637222
-0.000191327
-0.00408812
0.00230342
-0.00180875
-0.00049467
0.000559954
-0.00200966
0.00144971
-0.00252168
-0.000831457
0.000861385
-0.000660104
-0.000201282
-0.000180381
-0.00363802
0.000961639
0.000610957
-0.000427761
0.00259953
0.000980032
0.000318328
0.00130604
0.000668545
-0.00160458
0.00233681
-0.00150817
0.00100327
0.000504895
0.00353928
-0.00067216
-0.00381014
0.0061028
-0.00114312
-0.00248525
0.00682229
-0.00433704
-0.000884902
0.00356767
-0.00414178
0.000932361
-0.00210003
0.00424878
-0.00067276
-0.001632
-0.0024433
0.00172272
0.000720589
-0.00127779
0.000984323
-0.000977046
-7.27502e-06
-0.00137717
-0.000776615
-0.000153478
0.000930094
-0.00157354
0.00136971
0.000203834
0.00204772
0.000792576
6.24543e-05
-0.00129982
-0.000549243
-0.000840827
-0.00241322
-0.000467051
-0.00140664
-0.000171021
0.0015922
-0.00018064
0.00341167
-0.00051381
0.00133859
0.000200065
-0.000727253
-0.00101473
-0.00193042
0.00247674
-0.00054632
-0.00105513
-0.0057289
0.00351081
0.00148267
-0.00059088
0.00288525
-0.00120132
0.000947982
-0.00135917
-0.0045307
0.00588986
0.000619805
-0.00255023
0.000739663
-0.00368383
0.00270321
0.000980611
0.000899278
-0.00142906
0.00223111
-0.00311531
0.000884197
0.00119373
-0.00342843
0.00223469
0.000859781
0.00168915
-0.00254893
-0.00017429
0.00179283
0.00275386
0.00108338
0.00361768
-0.000413515
0.000783004
0.00315983
-0.00402083
0.000974077
-0.00327173
0.000434168
0.00412306
0.00148698
-1.13162e-05
-0.000275546
0.000286862
-0.0061922
0.00385561
0.0023366
-0.000821515
-0.00261866
0.00344018
0.00263996
-0.00178018
-0.00369503
0.000890599
-0.00132211
-0.000435436
-0.000152649
0.00131941
0.00372206
0.00121807
0.000224163
0.00131106
-0.000994976
-0.000316082
0.00093778
0.000544894
-0.000314284
0.00376821
-0.00493032
0.00116211
0.00307305
-0.00084195
-0.00139961
0.00190385
0.00125893
-0.00355213
0.0022932
-0.00116443
0.00145725
0.000677779
-0.00213503
0.000192876
-0.000204193
0.0021991
-0.000863113
-0.00125089
0.000329632
0.000933464
-0.00034905
-0.000584414
0.00353114
-0.00227221
-0.000504127
0.00229789
-0.00179377
0.00102312
-0.00296142
0.00209561
0.000865818
0.000106971
-7.88082e-07
0.00465001
0.000542599
-0.00569556
-0.00519173
0.00392562
0.00126612
-0.00107351
-0.0026969
0.0037704
0.00222124
0.00372523
0.00282873
-0.00375272
0.000923989
-0.00147244
0.00110521
-0.000931045
0.00336542
-0.00243437
0.00149797
0.000561693
-0.0037858
-0.00240641
0.00106043
-0.00230566
0.00320384
-0.000898183
0.00342384
-0.000808153
0.000394958
-0.000794182
0.00255121
0.000872623
-0.000634494
0.00431011
-0.00131157
0.00171775
-0.000406181
0.00197432
-0.00127832
-0.000389054
0.00607703
-0.00491972
-0.00045979
0.000857743
-0.00246232
-0.00539178
-0.00172472
0.00041315
-0.000678049
0.000101808
-0.00086629
0.000213355
-0.00147315
0.000650707
0.00158284
-0.000905264
0.000135129
0.000804475
0.00251646
-0.00332094
-0.00109506
0.00187361
-0.00194733
-0.000473921
0.00196134
-0.00148742
-0.000863625
-0.00209779
-0.00195191
0.00147799
-0.00265795
0.00346241
-0.0016464
0.000570675
0.00107573
-0.000966417
0.00356595
0.00597874
-0.00228716
-0.00130603
-0.000418683
-0.00174344
0.00111381
0.000629635
0.000900781
-0.00451652
0.00361574
-0.00131851
0.000542316
0.000776191
-0.00403382
-0.00115792
0.000191773
-0.00113597
0.0019277
-0.000690894
-0.00133235
-0.00379943
0.00513178
0.00100871
6.63243e-05
0.00329686
-0.00252889
-0.000767972
0.000182561
0.00133424
0.000878304
-0.000671502
-0.000206802
-0.00134978
-0.00101168
-0.00106332
0.00508304
-0.00401972
0.000626832
-0.00249873
0.000173468
0.00125715
0.00377263
-0.00495815
0.00118552
0.00287238
-0.00206092
0.000102036
-0.000168336
6.62998e-05
0.00102699
0.000138086
0.000104239
0.00235921
0.00369354
-0.000577109
-0.000821918
0.00139903
0.000651962
0.00177305
-0.00242501
0.00239996
-0.00171977
-0.000680188
0.000475132
0.00147407
0.000425764
-0.000509016
-0.000809493
0.00060085
-0.00532444
0.000690396
-2.97634e-05
-0.00115768
-0.00130072
-0.00378515
0.00508586
0.00102626
0.00143789
-0.00189577
0.00254689
-0.000395076
-0.0049091
0.00530418
0.000120845
-1.88095e-05
0.000634132
0.00129356
0.00273295
0.000934417
-0.00366736
0.00137602
0.000471152
0.00258685
-0.00364246
0.00454324
0.00277437
0.000842882
-0.00361725
0.00163164
-0.000893718
-0.000737922
0.00133009
-0.00102131
-0.000308775
0.000421933
0.00105646
-0.00469892
0.0002182
-6.40311e-06
0.000199279
0.00600023
-0.00127971
0.00152713
-0.00212906
0.00252126
-0.0018323
-0.000688959
0.000845449
-0.00254553
0.00170008
0.00523522
-0.0028194
-0.000922024
-0.00159786
0.00500716
0.00148593
-0.00178116
0.000295232
0.000500262
-0.000103705
-0.000396556
-0.000988035
-0.00314138
0.00412942
0.000741227
0.00182092
-0.00256215
0.00176728
-0.000281351
0.00225165