/*--------------------------------*- C++ -*----------------------------------*\
  =========                 |
  \\      /  F ield         | OpenFOAM: The Open Source CFD Toolbox
   \\    /   O peration     | Website:  https://openfoam.org
    \\  /    A nd           | Version:  7
     \\/     M anipulation  |
\*---------------------------------------------------------------------------*/
FoamFile
{
    version     2.0;
    format      ascii;
    class       surfaceScalarField;
    location    "0.189";
    object      phi;
}
// * * * * * * * * * * * * * * * * * * * * * * * * * * * * * * * * * * * * * //

dimensions      [0 3 -1 0 0 0 0];

internalField   nonuniform List<scalar> 
79600
(
9.55842e-13
-1.25702e-12
1.2674e-11
-1.172e-11
3.25194e-11
-1.98549e-11
5.67068e-11
-2.41834e-11
8.21802e-11
-2.5475e-11
1.0665e-10
-2.447e-11
1.28414e-10
-2.17647e-11
1.4623e-10
-1.78174e-11
1.59199e-10
-1.29664e-11
1.66662e-10
-7.4615e-12
1.68154e-10
-1.49339e-12
1.63355e-10
4.79998e-12
1.5205e-10
1.13039e-11
1.34115e-10
1.79335e-11
1.09494e-10
2.46221e-11
7.81823e-11
3.13145e-11
4.02174e-11
3.79656e-11
-4.32365e-12
4.45406e-11
-5.53361e-11
5.10119e-11
-1.12692e-10
5.73568e-11
-1.76246e-10
6.35551e-11
-2.45837e-10
6.95912e-11
-3.21288e-10
7.54524e-11
-4.02415e-10
8.11267e-11
-4.89024e-10
8.66072e-11
-5.80912e-10
9.18884e-11
-6.77874e-10
9.69639e-11
-7.79701e-10
1.01828e-10
-8.86178e-10
1.06477e-10
-9.97089e-10
1.10911e-10
-1.11222e-09
1.15126e-10
-1.23134e-09
1.19124e-10
-1.35424e-09
1.22902e-10
-1.4807e-09
1.26459e-10
-1.6105e-09
1.29798e-10
-1.74341e-09
1.3292e-10
-1.87923e-09
1.35823e-10
-2.01774e-09
1.3851e-10
-2.15873e-09
1.40984e-10
-2.30197e-09
1.43244e-10
-2.44727e-09
1.45294e-10
-2.5944e-09
1.47137e-10
-2.74317e-09
1.48772e-10
-2.89338e-09
1.50204e-10
-3.04481e-09
1.51435e-10
-3.19728e-09
1.52468e-10
-3.35058e-09
1.53306e-10
-3.50453e-09
1.53952e-10
-3.65894e-09
1.54407e-10
-3.81361e-09
1.54674e-10
-3.96837e-09
1.54759e-10
-4.12304e-09
1.54663e-10
-4.27742e-09
1.54389e-10
-4.43136e-09
1.53942e-10
-4.58469e-09
1.53323e-10
-4.73722e-09
1.52536e-10
-4.88881e-09
1.51585e-10
-5.03928e-09
1.50472e-10
-5.18848e-09
1.49201e-10
-5.33625e-09
1.47776e-10
-5.48245e-09
1.462e-10
-5.62693e-09
1.44475e-10
-5.76953e-09
1.42605e-10
-5.91013e-09
1.40595e-10
-6.04857e-09
1.38447e-10
-6.18474e-09
1.36164e-10
-6.31848e-09
1.33749e-10
-6.44969e-09
1.31208e-10
-6.57823e-09
1.28542e-10
-6.70399e-09
1.25755e-10
-6.82684e-09
1.2285e-10
-6.94667e-09
1.19832e-10
-7.06337e-09
1.16703e-10
-7.17684e-09
1.13468e-10
-7.28697e-09
1.10128e-10
-7.39365e-09
1.06688e-10
-7.49681e-09
1.03151e-10
-7.59633e-09
9.95214e-11
-7.69213e-09
9.58019e-11
-7.78412e-09
9.1996e-11
-7.87223e-09
8.81072e-11
-7.95637e-09
8.41391e-11
-8.03647e-09
8.00952e-11
-8.11245e-09
7.59792e-11
-8.18424e-09
7.17948e-11
-8.25179e-09
6.75456e-11
-8.31502e-09
6.32351e-11
-8.37389e-09
5.88665e-11
-8.42833e-09
5.44438e-11
-8.4783e-09
4.99708e-11
-8.52375e-09
4.54512e-11
-8.56464e-09
4.08886e-11
-8.60093e-09
3.62865e-11
-8.63258e-09
3.1649e-11
-8.65955e-09
2.69798e-11
-8.68184e-09
2.22829e-11
-8.6994e-09
1.75619e-11
-8.71222e-09
1.28205e-11
-8.72028e-09
8.06266e-12
-8.72358e-09
3.29267e-12
-8.72209e-09
-1.4854e-12
-8.71582e-09
-6.26764e-12
-8.70477e-09
-1.10502e-11
-8.68894e-09
-1.58293e-11
-8.66834e-09
-2.06008e-11
-8.64298e-09
-2.53604e-11
-8.61288e-09
-3.01039e-11
-8.57805e-09
-3.48271e-11
-8.53853e-09
-3.95259e-11
-8.49433e-09
-4.41961e-11
-8.4455e-09
-4.88335e-11
-8.39206e-09
-5.34338e-11
-8.33407e-09
-5.79926e-11
-8.27157e-09
-6.25055e-11
-8.2046e-09
-6.69684e-11
-8.13322e-09
-7.13769e-11
-8.05749e-09
-7.57265e-11
-7.97748e-09
-8.00128e-11
-7.89325e-09
-8.42315e-11
-7.80487e-09
-8.83782e-11
-7.71242e-09
-9.24484e-11
-7.61599e-09
-9.64375e-11
-7.51565e-09
-1.00341e-10
-7.41149e-09
-1.04155e-10
-7.30362e-09
-1.07875e-10
-7.19212e-09
-1.11496e-10
-7.07711e-09
-1.15014e-10
-6.95868e-09
-1.18424e-10
-6.83696e-09
-1.21723e-10
-6.71206e-09
-1.24905e-10
-6.58409e-09
-1.27966e-10
-6.45319e-09
-1.30902e-10
-6.31948e-09
-1.33709e-10
-6.1831e-09
-1.36382e-10
-6.04418e-09
-1.38918e-10
-5.90287e-09
-1.41311e-10
-5.75931e-09
-1.43558e-10
-5.61366e-09
-1.45655e-10
-5.46606e-09
-1.47597e-10
-5.31668e-09
-1.49381e-10
-5.16568e-09
-1.51003e-10
-5.01322e-09
-1.52458e-10
-4.85948e-09
-1.53744e-10
-4.70462e-09
-1.54856e-10
-4.54883e-09
-1.55791e-10
-4.39229e-09
-1.56545e-10
-4.23517e-09
-1.57115e-10
-4.07767e-09
-1.57498e-10
-3.91998e-09
-1.5769e-10
-3.7623e-09
-1.57688e-10
-3.60481e-09
-1.5749e-10
-3.44771e-09
-1.57092e-10
-3.29122e-09
-1.56493e-10
-3.13553e-09
-1.55688e-10
-2.98086e-09
-1.54676e-10
-2.8274e-09
-1.53456e-10
-2.67538e-09
-1.52024e-10
-2.525e-09
-1.50379e-10
-2.37648e-09
-1.48519e-10
-2.23004e-09
-1.46442e-10
-2.08589e-09
-1.44148e-10
-1.94425e-09
-1.41636e-10
-1.80535e-09
-1.38905e-10
-1.6694e-09
-1.35953e-10
-1.53661e-09
-1.32781e-10
-1.40722e-09
-1.2939e-10
-1.28144e-09
-1.25781e-10
-1.15949e-09
-1.21952e-10
-1.04158e-09
-1.17907e-10
-9.27937e-10
-1.13646e-10
-8.18764e-10
-1.09173e-10
-7.14274e-10
-1.04489e-10
-6.14675e-10
-9.95999e-11
-5.20167e-10
-9.45082e-11
-4.30946e-10
-8.92197e-11
-3.47204e-10
-8.37413e-11
-2.69123e-10
-7.80809e-11
-1.96876e-10
-7.22471e-11
-1.30626e-10
-6.625e-11
-7.05241e-11
-6.01018e-11
-1.67056e-11
-5.38177e-11
3.07112e-11
-4.74157e-11
7.163e-11
-4.09176e-11
1.0598e-10
-3.43486e-11
1.33719e-10
-2.77394e-11
1.54846e-10
-2.11267e-11
1.694e-10
-1.45556e-11
1.77482e-10
-8.08239e-12
1.79259e-10
-1.77652e-12
1.74985e-10
4.27505e-12
1.65026e-10
9.96111e-12
1.49887e-10
1.51385e-11
1.30265e-10
1.96212e-11
1.07103e-10
2.31624e-11
8.16746e-11
2.54296e-11
5.56968e-11
2.59786e-11
3.14537e-11
2.4244e-11
1.19267e-11
1.95273e-11
7.67475e-13
1.11584e-11
7.6932e-13
1.15727e-11
-1.28347e-11
4.30341e-11
-4.31969e-11
8.87555e-11
-6.55748e-11
1.42306e-10
-7.7734e-11
1.97731e-10
-8.08937e-11
2.49998e-10
-7.67389e-11
2.9506e-10
-6.68333e-11
3.29738e-10
-5.2498e-11
3.51582e-10
-3.48062e-11
3.5872e-10
-1.45998e-11
3.49769e-10
7.46408e-12
3.23713e-10
3.0859e-11
2.79847e-10
5.51702e-11
2.17711e-10
8.00699e-11
1.37045e-10
1.05291e-10
3.77425e-11
1.30617e-10
-8.01621e-11
1.55868e-10
-2.16526e-10
1.80904e-10
-3.71119e-10
2.05606e-10
-5.43636e-10
2.29875e-10
-7.33712e-10
2.53631e-10
-9.40928e-10
2.76807e-10
-1.16482e-09
2.99348e-10
-1.4049e-09
3.21207e-10
-1.66065e-09
3.42348e-10
-1.9315e-09
3.62741e-10
-2.2169e-09
3.8236e-10
-2.51625e-09
4.01185e-10
-2.82898e-09
4.192e-10
-3.15446e-09
4.36394e-10
-3.49209e-09
4.52757e-10
-3.84125e-09
4.68281e-10
-4.20131e-09
4.82965e-10
-4.57166e-09
4.96806e-10
-4.95166e-09
5.09803e-10
-5.3407e-09
5.21959e-10
-5.73815e-09
5.33275e-10
-6.1434e-09
5.43755e-10
-6.55582e-09
5.53405e-10
-6.97481e-09
5.62231e-10
-7.39975e-09
5.70239e-10
-7.83005e-09
5.77438e-10
-8.26512e-09
5.83834e-10
-8.70435e-09
5.89437e-10
-9.14717e-09
5.94258e-10
-9.59301e-09
5.98305e-10
-1.00413e-08
6.01589e-10
-1.04915e-08
6.0412e-10
-1.0943e-08
6.0591e-10
-1.13953e-08
6.06969e-10
-1.18478e-08
6.07308e-10
-1.23001e-08
6.0694e-10
-1.27516e-08
6.05878e-10
-1.32018e-08
6.04132e-10
-1.36502e-08
6.01716e-10
-1.40963e-08
5.98641e-10
-1.45396e-08
5.9492e-10
-1.49797e-08
5.90566e-10
-1.54161e-08
5.85592e-10
-1.58483e-08
5.8001e-10
-1.6276e-08
5.73833e-10
-1.66986e-08
5.67075e-10
-1.71157e-08
5.59749e-10
-1.7527e-08
5.51868e-10
-1.7932e-08
5.43443e-10
-1.83303e-08
5.34491e-10
-1.87216e-08
5.25023e-10
-1.91054e-08
5.15052e-10
-1.94815e-08
5.04593e-10
-1.98494e-08
4.93657e-10
-2.02088e-08
4.8226e-10
-2.05594e-08
4.70414e-10
-2.09008e-08
4.58133e-10
-2.12328e-08
4.4543e-10
-2.15549e-08
4.3232e-10
-2.18671e-08
4.18815e-10
-2.21689e-08
4.04929e-10
-2.246e-08
3.90676e-10
-2.27403e-08
3.7607e-10
-2.30094e-08
3.61124e-10
-2.32671e-08
3.45852e-10
-2.35133e-08
3.30268e-10
-2.37476e-08
3.14387e-10
-2.39698e-08
2.98222e-10
-2.41798e-08
2.81788e-10
-2.43774e-08
2.65098e-10
-2.45623e-08
2.48167e-10
-2.47344e-08
2.31008e-10
-2.48936e-08
2.13638e-10
-2.50397e-08
1.96069e-10
-2.51726e-08
1.78317e-10
-2.52921e-08
1.60396e-10
-2.53981e-08
1.42321e-10
-2.54906e-08
1.24107e-10
-2.55694e-08
1.05769e-10
-2.56344e-08
8.73212e-11
-2.56856e-08
6.87798e-11
-2.5723e-08
5.01599e-11
-2.57464e-08
3.1477e-11
-2.57558e-08
1.27467e-11
-2.57513e-08
-6.01565e-12
-2.57328e-08
-2.47944e-11
-2.57003e-08
-4.35739e-11
-2.56538e-08
-6.2338e-11
-2.55933e-08
-8.10704e-11
-2.55189e-08
-9.9755e-11
-2.54306e-08
-1.18375e-10
-2.53285e-08
-1.36915e-10
-2.52127e-08
-1.55358e-10
-2.50832e-08
-1.73688e-10
-2.49402e-08
-1.91887e-10
-2.47836e-08
-2.0994e-10
-2.46138e-08
-2.27828e-10
-2.44308e-08
-2.45535e-10
-2.42347e-08
-2.63044e-10
-2.40257e-08
-2.80339e-10
-2.38041e-08
-2.97401e-10
-2.35699e-08
-3.14213e-10
-2.33233e-08
-3.30759e-10
-2.30647e-08
-3.4702e-10
-2.27942e-08
-3.6298e-10
-2.2512e-08
-3.78621e-10
-2.22184e-08
-3.93926e-10
-2.19137e-08
-4.08877e-10
-2.15981e-08
-4.23457e-10
-2.12719e-08
-4.37649e-10
-2.09355e-08
-4.51434e-10
-2.05891e-08
-4.64797e-10
-2.02332e-08
-4.77719e-10
-1.98679e-08
-4.90184e-10
-1.94937e-08
-5.02175e-10
-1.91109e-08
-5.13674e-10
-1.87199e-08
-5.24665e-10
-1.83212e-08
-5.35131e-10
-1.7915e-08
-5.45056e-10
-1.75019e-08
-5.54423e-10
-1.70823e-08
-5.63216e-10
-1.66565e-08
-5.7142e-10
-1.62251e-08
-5.79019e-10
-1.57885e-08
-5.85996e-10
-1.53471e-08
-5.92337e-10
-1.49016e-08
-5.98028e-10
-1.44523e-08
-6.03053e-10
-1.39997e-08
-6.07398e-10
-1.35445e-08
-6.1105e-10
-1.3087e-08
-6.13995e-10
-1.26279e-08
-6.16219e-10
-1.21677e-08
-6.17711e-10
-1.17069e-08
-6.18457e-10
-1.12462e-08
-6.18447e-10
-1.0786e-08
-6.17669e-10
-1.0327e-08
-6.16113e-10
-9.86968e-09
-6.13768e-10
-9.41474e-09
-6.10624e-10
-8.96274e-09
-6.06674e-10
-8.51429e-09
-6.01907e-10
-8.07e-09
-5.96319e-10
-7.63047e-09
-5.89901e-10
-7.19634e-09
-5.82649e-10
-6.76823e-09
-5.74555e-10
-6.34676e-09
-5.65618e-10
-5.93256e-09
-5.55833e-10
-5.52627e-09
-5.45199e-10
-5.12851e-09
-5.33714e-10
-4.73991e-09
-5.2138e-10
-4.3611e-09
-5.08198e-10
-3.99271e-09
-4.9417e-10
-3.63536e-09
-4.79303e-10
-3.28966e-09
-4.63603e-10
-2.95622e-09
-4.47079e-10
-2.63565e-09
-4.29742e-10
-2.32853e-09
-4.11606e-10
-2.03545e-09
-3.92687e-10
-1.75695e-09
-3.73003e-10
-1.49359e-09
-3.5258e-10
-1.24589e-09
-3.31443e-10
-1.01435e-09
-3.09627e-10
-7.9942e-10
-2.8717e-10
-6.01548e-10
-2.64119e-10
-4.21122e-10
-2.40524e-10
-2.58486e-10
-2.16452e-10
-1.13927e-10
-1.91975e-10
1.23348e-11
-1.67181e-10
1.2016e-10
-1.42176e-10
2.09503e-10
-1.17083e-10
2.80429e-10
-9.20541e-11
3.33143e-10
-6.72706e-11
3.68014e-10
-4.29535e-11
3.85613e-10
-1.93733e-11
3.86756e-10
3.13574e-12
3.72561e-10
2.41589e-11
3.4452e-10
4.31786e-11
3.04594e-10
5.95451e-11
2.55319e-10
7.2437e-11
1.99928e-10
8.08188e-11
1.42485e-10
8.34196e-11
8.79605e-11
7.87683e-11
4.21497e-11
6.53373e-11
1.11535e-11
4.2156e-11
1.19214e-11
1.9779e-11
-3.26203e-11
6.54835e-11
-8.88965e-11
1.27621e-10
-1.2772e-10
1.97803e-10
-1.47912e-10
2.68395e-10
-1.51482e-10
3.32776e-10
-1.41122e-10
3.85406e-10
-1.19458e-10
4.21747e-10
-8.88405e-11
4.3818e-10
-5.12394e-11
4.31858e-10
-8.27534e-12
4.0059e-10
3.87318e-11
3.42734e-10
8.87117e-11
2.57107e-10
1.40799e-10
1.42893e-10
1.94288e-10
-4.1266e-13
2.48599e-10
-1.73053e-10
3.03256e-10
-3.75056e-10
3.57872e-10
-6.06273e-10
4.12121e-10
-8.66403e-10
4.65737e-10
-1.15502e-09
5.18496e-10
-1.4716e-09
5.70212e-10
-1.81552e-09
6.2073e-10
-2.1861e-09
6.69921e-10
-2.58257e-09
7.17678e-10
-3.00413e-09
7.63913e-10
-3.44994e-09
8.0855e-10
-3.91911e-09
8.51529e-10
-4.41073e-09
8.92801e-10
-4.92386e-09
9.32328e-10
-5.45754e-09
9.70078e-10
-6.01081e-09
1.00603e-09
-6.58268e-09
1.04015e-09
-7.17216e-09
1.07245e-09
-7.77826e-09
1.10291e-09
-8.39998e-09
1.13152e-09
-9.03632e-09
1.1583e-09
-9.68628e-09
1.18323e-09
-1.03489e-08
1.20634e-09
-1.10231e-08
1.22762e-09
-1.17079e-08
1.24709e-09
-1.24025e-08
1.26477e-09
-1.31057e-08
1.28066e-09
-1.38167e-08
1.29479e-09
-1.45344e-08
1.30717e-09
-1.5258e-08
1.31782e-09
-1.59864e-08
1.32677e-09
-1.67189e-08
1.33403e-09
-1.74544e-08
1.33963e-09
-1.8192e-08
1.34359e-09
-1.8931e-08
1.34593e-09
-1.96704e-08
1.34669e-09
-2.04093e-08
1.34588e-09
-2.1147e-08
1.34353e-09
-2.18825e-08
1.33967e-09
-2.26151e-08
1.33432e-09
-2.3344e-08
1.32751e-09
-2.40683e-08
1.31928e-09
-2.47874e-08
1.30964e-09
-2.55004e-08
1.29862e-09
-2.62067e-08
1.28626e-09
-2.69054e-08
1.27257e-09
-2.75959e-08
1.2576e-09
-2.82776e-08
1.24136e-09
-2.89496e-08
1.2239e-09
-2.96114e-08
1.20523e-09
-3.02623e-08
1.18538e-09
-3.09016e-08
1.16439e-09
-3.15289e-08
1.14229e-09
-3.21434e-08
1.1191e-09
-3.27446e-08
1.09485e-09
-3.33319e-08
1.06958e-09
-3.39048e-08
1.04331e-09
-3.44627e-08
1.01607e-09
-3.50052e-08
9.87897e-10
-3.55317e-08
9.58818e-10
-3.60417e-08
9.28861e-10
-3.65349e-08
8.98059e-10
-3.70106e-08
8.66441e-10
-3.74686e-08
8.34038e-10
-3.79083e-08
8.00881e-10
-3.83295e-08
7.67001e-10
-3.87317e-08
7.32428e-10
-3.91145e-08
6.97194e-10
-3.94776e-08
6.6133e-10
-3.98206e-08
6.24867e-10
-4.01434e-08
5.87836e-10
-4.04455e-08
5.5027e-10
-4.07267e-08
5.12201e-10
-4.09867e-08
4.7366e-10
-4.12253e-08
4.34681e-10
-4.14423e-08
3.95294e-10
-4.16374e-08
3.55533e-10
-4.18105e-08
3.1543e-10
-4.19615e-08
2.7502e-10
-4.209e-08
2.34335e-10
-4.21961e-08
1.93409e-10
-4.22796e-08
1.52275e-10
-4.23404e-08
1.10968e-10
-4.23785e-08
6.95224e-11
-4.23937e-08
2.79716e-11
-4.2386e-08
-1.3649e-11
-4.23555e-08
-5.53044e-11
-4.23021e-08
-9.69593e-11
-4.22259e-08
-1.38578e-10
-4.21269e-08
-1.80126e-10
-4.2005e-08
-2.21565e-10
-4.18606e-08
-2.62861e-10
-4.16935e-08
-3.03977e-10
-4.1504e-08
-3.44876e-10
-4.12921e-08
-3.85521e-10
-4.10582e-08
-4.25875e-10
-4.08022e-08
-4.65901e-10
-4.05245e-08
-5.05561e-10
-4.02252e-08
-5.44818e-10
-3.99046e-08
-5.83634e-10
-3.9563e-08
-6.21971e-10
-3.92006e-08
-6.59791e-10
-3.88177e-08
-6.97055e-10
-3.84148e-08
-7.33725e-10
-3.7992e-08
-7.69764e-10
-3.75499e-08
-8.05131e-10
-3.70887e-08
-8.3979e-10
-3.66089e-08
-8.73701e-10
-3.6111e-08
-9.06826e-10
-3.55953e-08
-9.39126e-10
-3.50624e-08
-9.70564e-10
-3.45127e-08
-1.0011e-09
-3.39468e-08
-1.0307e-09
-3.33652e-08
-1.05932e-09
-3.27685e-08
-1.08692e-09
-3.21572e-08
-1.11347e-09
-3.15319e-08
-1.13893e-09
-3.08933e-08
-1.16327e-09
-3.0242e-08
-1.18644e-09
-2.95787e-08
-1.20841e-09
-2.8904e-08
-1.22914e-09
-2.82186e-08
-1.2486e-09
-2.75232e-08
-1.26676e-09
-2.68187e-08
-1.28357e-09
-2.61057e-08
-1.29901e-09
-2.5385e-08
-1.31304e-09
-2.46574e-08
-1.32563e-09
-2.39237e-08
-1.33674e-09
-2.31847e-08
-1.34636e-09
-2.24413e-08
-1.35443e-09
-2.16944e-08
-1.36095e-09
-2.09447e-08
-1.36587e-09
-2.01933e-08
-1.36917e-09
-1.94409e-08
-1.37082e-09
-1.86885e-08
-1.37081e-09
-1.79371e-08
-1.36909e-09
-1.71876e-08
-1.36566e-09
-1.64409e-08
-1.36049e-09
-1.56979e-08
-1.35355e-09
-1.49598e-08
-1.34484e-09
-1.42273e-08
-1.33433e-09
-1.35017e-08
-1.32201e-09
-1.27837e-08
-1.30786e-09
-1.20745e-08
-1.29187e-09
-1.1375e-08
-1.27403e-09
-1.06863e-08
-1.25434e-09
-1.00093e-08
-1.23279e-09
-9.34514e-09
-1.20938e-09
-8.69475e-09
-1.1841e-09
-8.05918e-09
-1.15695e-09
-7.43942e-09
-1.12796e-09
-6.83648e-09
-1.09711e-09
-6.25134e-09
-1.06444e-09
-5.685e-09
-1.02995e-09
-5.13842e-09
-9.9366e-10
-4.61256e-09
-9.55608e-10
-4.10834e-09
-9.15824e-10
-3.62667e-09
-8.74347e-10
-3.16845e-09
-8.31225e-10
-2.73451e-09
-7.86514e-10
-2.32568e-09
-7.40278e-10
-1.94271e-09
-6.92597e-10
-1.58632e-09
-6.4356e-10
-1.25716e-09
-5.93274e-10
-9.55827e-10
-5.41861e-10
-6.82812e-10
-4.89468e-10
-4.38523e-10
-4.36264e-10
-2.23251e-10
-3.82452e-10
-3.71558e-11
-3.28267e-10
1.1976e-10
-2.73994e-10
2.47676e-10
-2.19968e-10
3.46995e-10
-1.6659e-10
4.1838e-10
-1.14341e-10
4.62808e-10
-6.3804e-11
4.81628e-10
-1.56869e-11
4.76639e-10
2.91462e-11
4.50178e-10
6.96401e-11
4.05224e-10
1.04504e-10
3.45505e-10
1.32161e-10
2.75618e-10
1.50709e-10
2.01117e-10
1.57921e-10
1.28544e-10
1.5134e-10
6.53306e-11
1.28552e-10
1.95166e-11
8.79689e-11
3.14368e-11
2.41593e-11
-5.67795e-11
7.7745e-11
-1.42482e-10
1.47991e-10
-1.9796e-10
2.24662e-10
-2.24583e-10
2.98888e-10
-2.2572e-10
3.63019e-10
-2.05251e-10
4.10535e-10
-1.66973e-10
4.35999e-10
-1.14304e-10
4.34961e-10
-5.01973e-11
4.03836e-10
2.28519e-11
3.398e-10
1.02764e-10
2.40688e-10
1.87822e-10
1.04889e-10
2.76601e-10
-6.87387e-11
3.67919e-10
-2.80938e-10
4.60798e-10
-5.3211e-10
5.54428e-10
-8.2237e-10
6.48132e-10
-1.15159e-09
7.41345e-10
-1.51945e-09
8.33596e-10
-1.92544e-09
9.24487e-10
-2.36891e-09
1.01369e-09
-2.8491e-09
1.10091e-09
-3.36511e-09
1.18593e-09
-3.91598e-09
1.26855e-09
-4.50067e-09
1.34861e-09
-5.11808e-09
1.42595e-09
-5.76704e-09
1.50049e-09
-6.44634e-09
1.57211e-09
-7.15475e-09
1.64074e-09
-7.891e-09
1.70633e-09
-8.6538e-09
1.76882e-09
-9.44182e-09
1.82818e-09
-1.02538e-08
1.88438e-09
-1.10882e-08
1.93741e-09
-1.1944e-08
1.98724e-09
-1.28196e-08
2.03389e-09
-1.37137e-08
2.07736e-09
-1.4625e-08
2.11764e-09
-1.55521e-08
2.15477e-09
-1.64938e-08
2.18874e-09
-1.74486e-08
2.21958e-09
-1.84153e-08
2.24732e-09
-1.93925e-08
2.27199e-09
-2.03789e-08
2.29361e-09
-2.13733e-08
2.31222e-09
-2.23744e-08
2.32784e-09
-2.33809e-08
2.34053e-09
-2.43915e-08
2.35031e-09
-2.54052e-08
2.35722e-09
-2.64206e-08
2.36131e-09
-2.74365e-08
2.36262e-09
-2.84518e-08
2.36119e-09
-2.94653e-08
2.35706e-09
-3.0476e-08
2.35029e-09
-3.14826e-08
2.34092e-09
-3.2484e-08
2.32898e-09
-3.34793e-08
2.31454e-09
-3.44673e-08
2.29764e-09
-3.5447e-08
2.27832e-09
-3.64174e-08
2.25665e-09
-3.73775e-08
2.23265e-09
-3.83263e-08
2.2064e-09
-3.92628e-08
2.17793e-09
-4.01862e-08
2.1473e-09
-4.10956e-08
2.11455e-09
-4.19899e-08
2.07975e-09
-4.28684e-08
2.04293e-09
-4.37303e-08
2.00415e-09
-4.45747e-08
1.96347e-09
-4.54008e-08
1.92093e-09
-4.62078e-08
1.87659e-09
-4.6995e-08
1.8305e-09
-4.77616e-08
1.78271e-09
-4.8507e-08
1.73328e-09
-4.92304e-08
1.68225e-09
-4.99312e-08
1.62968e-09
-5.06088e-08
1.57563e-09
-5.12625e-08
1.52014e-09
-5.18918e-08
1.46328e-09
-5.2496e-08
1.40509e-09
-5.30746e-08
1.34563e-09
-5.36271e-08
1.28495e-09
-5.4153e-08
1.22311e-09
-5.46519e-08
1.16017e-09
-5.51232e-08
1.09617e-09
-5.55665e-08
1.03118e-09
-5.59815e-08
9.65247e-10
-5.63677e-08
8.98431e-10
-5.67248e-08
8.30788e-10
-5.70525e-08
7.62373e-10
-5.73505e-08
6.93245e-10
-5.76184e-08
6.23461e-10
-5.78561e-08
5.5308e-10
-5.80632e-08
4.82159e-10
-5.82396e-08
4.10757e-10
-5.83852e-08
3.38932e-10
-5.84996e-08
2.66745e-10
-5.85829e-08
1.94255e-10
-5.86349e-08
1.21522e-10
-5.86555e-08
4.86082e-11
-5.86448e-08
-2.44264e-11
-5.86026e-08
-9.75197e-11
-5.85289e-08
-1.7061e-10
-5.84238e-08
-2.43635e-10
-5.82874e-08
-3.16532e-10
-5.81198e-08
-3.89238e-10
-5.79209e-08
-4.61689e-10
-5.76911e-08
-5.3382e-10
-5.74304e-08
-6.05568e-10
-5.71391e-08
-6.76868e-10
-5.68173e-08
-7.47655e-10
-5.64653e-08
-8.17863e-10
-5.60835e-08
-8.87426e-10
-5.5672e-08
-9.56279e-10
-5.52313e-08
-1.02435e-09
-5.47617e-08
-1.09159e-09
-5.42635e-08
-1.15791e-09
-5.37373e-08
-1.22325e-09
-5.31835e-08
-1.28755e-09
-5.26025e-08
-1.35074e-09
-5.19949e-08
-1.41275e-09
-5.13612e-08
-1.47351e-09
-5.07019e-08
-1.53296e-09
-5.00177e-08
-1.59103e-09
-4.93092e-08
-1.64764e-09
-4.8577e-08
-1.70275e-09
-4.78219e-08
-1.75627e-09
-4.70444e-08
-1.80814e-09
-4.62455e-08
-1.85829e-09
-4.54257e-08
-1.90666e-09
-4.4586e-08
-1.95319e-09
-4.37271e-08
-1.9978e-09
-4.285e-08
-2.04043e-09
-4.19554e-08
-2.08102e-09
-4.10443e-08
-2.11951e-09
-4.01176e-08
-2.15583e-09
-3.91763e-08
-2.18992e-09
-3.82213e-08
-2.22172e-09
-3.72537e-08
-2.25117e-09
-3.62745e-08
-2.27821e-09
-3.52848e-08
-2.30278e-09
-3.42856e-08
-2.32483e-09
-3.3278e-08
-2.34429e-09
-3.22633e-08
-2.36113e-09
-3.12424e-08
-2.37528e-09
-3.02167e-08
-2.38669e-09
-2.91872e-08
-2.39532e-09
-2.81553e-08
-2.40112e-09
-2.71221e-08
-2.40403e-09
-2.60888e-08
-2.40403e-09
-2.50569e-08
-2.40106e-09
-2.40274e-08
-2.39509e-09
-2.30019e-08
-2.38607e-09
-2.19814e-08
-2.37399e-09
-2.09675e-08
-2.3588e-09
-1.99613e-08
-2.34047e-09
-1.89643e-08
-2.31899e-09
-1.79779e-08
-2.29432e-09
-1.70033e-08
-2.26645e-09
-1.60419e-08
-2.23537e-09
-1.50952e-08
-2.20106e-09
-1.41645e-08
-2.16351e-09
-1.32512e-08
-2.12272e-09
-1.23566e-08
-2.0787e-09
-1.14821e-08
-2.03145e-09
-1.0629e-08
-1.98098e-09
-9.79883e-09
-1.92732e-09
-8.99278e-09
-1.87049e-09
-8.21219e-09
-1.81053e-09
-7.45838e-09
-1.74747e-09
-6.73261e-09
-1.68138e-09
-6.03613e-09
-1.61231e-09
-5.37014e-09
-1.54033e-09
-4.73581e-09
-1.46555e-09
-4.13427e-09
-1.38806e-09
-3.56657e-09
-1.30798e-09
-3.03371e-09
-1.22546e-09
-2.53661e-09
-1.14065e-09
-2.07612e-09
-1.05376e-09
-1.65297e-09
-9.65012e-10
-1.26778e-09
-8.74658e-10
-9.21035e-10
-7.83009e-10
-6.13064e-10
-6.90421e-10
-3.44016e-10
-5.97316e-10
-1.13824e-10
-5.04187e-10
7.78263e-11
-4.11618e-10
2.31539e-10
-3.20302e-10
3.48262e-10
-2.31061e-10
4.29338e-10
-1.44879e-10
4.76583e-10
-6.29323e-11
4.92359e-10
1.33667e-11
4.79673e-10
8.23249e-11
4.42265e-10
1.41912e-10
3.84713e-10
1.89713e-10
3.12532e-10
2.22891e-10
2.32247e-10
2.38208e-10
1.51445e-10
2.3214e-10
7.88094e-11
2.01187e-10
2.42409e-11
1.42538e-10
5.56771e-11
2.55057e-11
-8.22857e-11
8.10814e-11
-1.98055e-10
1.51898e-10
-2.68769e-10
2.26303e-10
-2.98994e-10
2.94492e-10
-2.93907e-10
3.48068e-10
-2.58826e-10
3.79876e-10
-1.9878e-10
3.83878e-10
-1.18304e-10
3.5505e-10
-2.13678e-11
2.89281e-10
8.86195e-11
1.83277e-10
2.08769e-10
3.44569e-11
3.36646e-10
-1.5914e-10
4.70201e-10
-3.98933e-10
6.07714e-10
-6.85877e-10
7.47743e-10
-1.02053e-09
8.89077e-10
-1.40309e-09
1.0307e-09
-1.83348e-09
1.17174e-09
-2.31137e-09
1.31148e-09
-2.8362e-09
1.44932e-09
-3.40723e-09
1.58472e-09
-4.02358e-09
1.71725e-09
-4.68419e-09
1.84655e-09
-5.38794e-09
1.9723e-09
-6.13356e-09
2.09423e-09
-6.91974e-09
2.21213e-09
-7.74507e-09
2.32581e-09
-8.60808e-09
2.43512e-09
-9.50728e-09
2.53993e-09
-1.04411e-08
2.64015e-09
-1.14079e-08
2.73568e-09
-1.24062e-08
2.82646e-09
-1.34343e-08
2.91245e-09
-1.44905e-08
2.99362e-09
-1.55732e-08
3.06994e-09
-1.66807e-08
3.1414e-09
-1.78113e-08
3.208e-09
-1.89634e-08
3.26975e-09
-2.01353e-08
3.32666e-09
-2.13254e-08
3.37876e-09
-2.25318e-08
3.42607e-09
-2.37531e-08
3.46863e-09
-2.49876e-08
3.50648e-09
-2.62337e-08
3.53965e-09
-2.74897e-08
3.56821e-09
-2.8754e-08
3.59219e-09
-3.00251e-08
3.61165e-09
-3.13015e-08
3.62664e-09
-3.25815e-08
3.63724e-09
-3.38636e-08
3.64349e-09
-3.51465e-08
3.64546e-09
-3.64285e-08
3.64321e-09
-3.77083e-08
3.63682e-09
-3.89843e-08
3.62635e-09
-4.02553e-08
3.61187e-09
-4.15197e-08
3.59345e-09
-4.27764e-08
3.57117e-09
-4.40238e-08
3.54509e-09
-4.52608e-08
3.5153e-09
-4.6486e-08
3.48185e-09
-4.76982e-08
3.44485e-09
-4.88961e-08
3.40434e-09
-5.00786e-08
3.36043e-09
-5.12445e-08
3.31317e-09
-5.23926e-08
3.26266e-09
-5.35218e-08
3.20896e-09
-5.46311e-08
3.15216e-09
-5.57192e-08
3.09233e-09
-5.67853e-08
3.02956e-09
-5.78283e-08
2.96393e-09
-5.88472e-08
2.89551e-09
-5.98411e-08
2.82438e-09
-6.0809e-08
2.75064e-09
-6.17501e-08
2.67435e-09
-6.26635e-08
2.59561e-09
-6.35483e-08
2.51448e-09
-6.44037e-08
2.43107e-09
-6.5229e-08
2.34543e-09
-6.60234e-08
2.25767e-09
-6.67862e-08
2.16786e-09
-6.75166e-08
2.07609e-09
-6.82141e-08
1.98245e-09
-6.8878e-08
1.887e-09
-6.95077e-08
1.78985e-09
-7.01026e-08
1.69108e-09
-7.06622e-08
1.59077e-09
-7.1186e-08
1.48901e-09
-7.16734e-08
1.38588e-09
-7.21241e-08
1.28148e-09
-7.25376e-08
1.17589e-09
-7.29136e-08
1.06919e-09
-7.32516e-08
9.6149e-10
-7.35514e-08
8.52865e-10
-7.38126e-08
7.43408e-10
-7.40351e-08
6.33211e-10
-7.42185e-08
5.22364e-10
-7.43627e-08
4.10959e-10
-7.44676e-08
2.99089e-10
-7.45329e-08
1.86848e-10
-7.45586e-08
7.43292e-11
-7.45447e-08
-3.83728e-11
-7.4491e-08
-1.51163e-10
-7.43977e-08
-2.63945e-10
-7.42647e-08
-3.76623e-10
-7.40921e-08
-4.891e-10
-7.38801e-08
-6.01278e-10
-7.36287e-08
-7.13058e-10
-7.33382e-08
-8.24342e-10
-7.30087e-08
-9.35031e-10
-7.26406e-08
-1.04502e-09
-7.2234e-08
-1.15422e-09
-7.17894e-08
-1.26252e-09
-7.1307e-08
-1.36982e-09
-7.07872e-08
-1.47602e-09
-7.02305e-08
-1.58102e-09
-6.96374e-08
-1.68471e-09
-6.90083e-08
-1.787e-09
-6.83438e-08
-1.88777e-09
-6.76444e-08
-1.98692e-09
-6.69108e-08
-2.08436e-09
-6.61436e-08
-2.17998e-09
-6.53434e-08
-2.27366e-09
-6.45111e-08
-2.36532e-09
-6.36473e-08
-2.45484e-09
-6.27528e-08
-2.54213e-09
-6.18285e-08
-2.62707e-09
-6.08751e-08
-2.70957e-09
-5.98938e-08
-2.78953e-09
-5.88852e-08
-2.86683e-09
-5.78505e-08
-2.94139e-09
-5.67906e-08
-3.01309e-09
-5.57065e-08
-3.08184e-09
-5.45994e-08
-3.14754e-09
-5.34703e-08
-3.2101e-09
-5.23205e-08
-3.2694e-09
-5.11509e-08
-3.32537e-09
-4.99629e-08
-3.3779e-09
-4.87578e-08
-3.4269e-09
-4.75366e-08
-3.47227e-09
-4.63009e-08
-3.51394e-09
-4.50519e-08
-3.5518e-09
-4.37909e-08
-3.58578e-09
-4.25194e-08
-3.61579e-09
-4.12388e-08
-3.64174e-09
-3.99505e-08
-3.66356e-09
-3.86561e-08
-3.68117e-09
-3.73569e-08
-3.6945e-09
-3.60545e-08
-3.70347e-09
-3.47506e-08
-3.70801e-09
-3.34465e-08
-3.70806e-09
-3.2144e-08
-3.70356e-09
-3.08447e-08
-3.69444e-09
-2.95501e-08
-3.68066e-09
-2.82619e-08
-3.66215e-09
-2.69818e-08
-3.63889e-09
-2.57115e-08
-3.61081e-09
-2.44526e-08
-3.57789e-09
-2.32068e-08
-3.5401e-09
-2.19759e-08
-3.4974e-09
-2.07615e-08
-3.44977e-09
-1.95653e-08
-3.39721e-09
-1.83891e-08
-3.3397e-09
-1.72346e-08
-3.27724e-09
-1.61035e-08
-3.20983e-09
-1.49974e-08
-3.13751e-09
-1.39181e-08
-3.06028e-09
-1.28673e-08
-2.97819e-09
-1.18465e-08
-2.89127e-09
-1.08574e-08
-2.7996e-09
-9.90164e-09
-2.70323e-09
-8.98075e-09
-2.60227e-09
-8.09626e-09
-2.4968e-09
-7.24964e-09
-2.38696e-09
-6.44231e-09
-2.27288e-09
-5.67563e-09
-2.15474e-09
-4.95088e-09
-2.03273e-09
-4.26927e-09
-1.90707e-09
-3.63189e-09
-1.77804e-09
-3.03973e-09
-1.64592e-09
-2.49364e-09
-1.51109e-09
-1.99435e-09
-1.37395e-09
-1.5424e-09
-1.23497e-09
-1.13811e-09
-1.0947e-09
-7.81623e-10
-9.53806e-10
-4.72783e-10
-8.13027e-10
-2.11146e-10
-6.73254e-10
4.08144e-12
-5.35528e-10
1.74097e-10
-4.01074e-10
3.00558e-10
-2.7134e-10
3.85659e-10
-1.48036e-10
4.3221e-10
-3.31856e-11
4.43716e-10
7.08205e-11
4.24466e-10
1.61163e-10
3.79631e-10
2.3455e-10
3.15344e-10
2.87179e-10
2.38791e-10
3.1476e-10
1.58319e-10
3.12612e-10
8.35964e-11
2.75909e-10
2.60076e-11
2.00128e-10
8.1684e-11
2.45822e-11
-1.06867e-10
7.71877e-11
-2.50665e-10
1.42046e-10
-3.33632e-10
2.06652e-10
-3.63595e-10
2.60541e-10
-3.47796e-10
2.94831e-10
-2.93116e-10
3.01949e-10
-2.05896e-10
2.75466e-10
-9.18186e-11
2.0998e-10
4.41164e-11
1.01024e-10
1.97573e-10
-5.50311e-11
3.64827e-10
-2.61074e-10
5.42693e-10
-5.19331e-10
7.28459e-10
-8.31443e-10
9.19826e-10
-1.19854e-09
1.11484e-09
-1.62131e-09
1.31184e-09
-2.10004e-09
1.50943e-09
-2.6347e-09
1.7064e-09
-3.22495e-09
1.90174e-09
-3.87021e-09
2.09458e-09
-4.56968e-09
2.28418e-09
-5.32234e-09
2.46992e-09
-6.12706e-09
2.65127e-09
-6.98252e-09
2.82776e-09
-7.88731e-09
2.99902e-09
-8.83989e-09
3.16472e-09
-9.83867e-09
3.32459e-09
-1.08819e-08
3.47839e-09
-1.1968e-08
3.62595e-09
-1.30949e-08
3.7671e-09
-1.4261e-08
3.90172e-09
-1.54642e-08
4.0297e-09
-1.67027e-08
4.15098e-09
-1.79746e-08
4.2655e-09
-1.92779e-08
4.37321e-09
-2.06106e-08
4.47409e-09
-2.19707e-08
4.56814e-09
-2.33563e-08
4.65537e-09
-2.47654e-08
4.73578e-09
-2.61961e-08
4.8094e-09
-2.76463e-08
4.87627e-09
-2.91141e-08
4.93643e-09
-3.05975e-08
4.98993e-09
-3.20947e-08
5.03683e-09
-3.36037e-08
5.07719e-09
-3.51226e-08
5.11108e-09
-3.66495e-08
5.13857e-09
-3.81826e-08
5.15974e-09
-3.97201e-08
5.17467e-09
-4.126e-08
5.18344e-09
-4.28007e-08
5.18615e-09
-4.43404e-08
5.18287e-09
-4.58773e-08
5.17372e-09
-4.74097e-08
5.15877e-09
-4.89359e-08
5.13813e-09
-5.04544e-08
5.11189e-09
-5.19634e-08
5.08017e-09
-5.34613e-08
5.04305e-09
-5.49467e-08
5.00065e-09
-5.64179e-08
4.95308e-09
-5.78735e-08
4.90042e-09
-5.9312e-08
4.8428e-09
-6.07319e-08
4.78033e-09
-6.21318e-08
4.7131e-09
-6.35104e-08
4.64124e-09
-6.48663e-08
4.56485e-09
-6.61982e-08
4.48405e-09
-6.75048e-08
4.39894e-09
-6.87848e-08
4.30964e-09
-7.00372e-08
4.21626e-09
-7.12606e-08
4.11892e-09
-7.2454e-08
4.01774e-09
-7.36161e-08
3.91282e-09
-7.47461e-08
3.80428e-09
-7.58427e-08
3.69224e-09
-7.6905e-08
3.57682e-09
-7.79321e-08
3.45813e-09
-7.89229e-08
3.33628e-09
-7.98767e-08
3.21141e-09
-8.07924e-08
3.08362e-09
-8.16694e-08
2.95305e-09
-8.25067e-08
2.81979e-09
-8.33037e-08
2.68399e-09
-8.40596e-08
2.54575e-09
-8.47737e-08
2.4052e-09
-8.54454e-08
2.26246e-09
-8.60741e-08
2.11766e-09
-8.66591e-08
1.97092e-09
-8.72e-08
1.82237e-09
-8.76962e-08
1.67212e-09
-8.81474e-08
1.52031e-09
-8.85529e-08
1.36706e-09
-8.89126e-08
1.2125e-09
-8.92259e-08
1.05677e-09
-8.94927e-08
8.99974e-10
-8.97126e-08
7.42262e-10
-8.98854e-08
5.8376e-10
-9.00109e-08
4.24599e-10
-9.0089e-08
2.64913e-10
-9.01195e-08
1.04835e-10
-9.01023e-08
-5.54996e-11
-9.00376e-08
-2.15955e-10
-8.99251e-08
-3.76396e-10
-8.9765e-08
-5.36683e-10
-8.95575e-08
-6.9668e-10
-8.93025e-08
-8.56246e-10
-8.90003e-08
-1.01524e-09
-8.86511e-08
-1.17353e-09
-8.82552e-08
-1.33096e-09
-8.78128e-08
-1.4874e-09
-8.73243e-08
-1.6427e-09
-8.67901e-08
-1.79672e-09
-8.62106e-08
-1.94931e-09
-8.55863e-08
-2.10034e-09
-8.49177e-08
-2.24964e-09
-8.42053e-08
-2.39709e-09
-8.34498e-08
-2.54252e-09
-8.26518e-08
-2.6858e-09
-8.18119e-08
-2.82678e-09
-8.0931e-08
-2.96531e-09
-8.00097e-08
-3.10124e-09
-7.9049e-08
-3.23442e-09
-7.80496e-08
-3.36472e-09
-7.70124e-08
-3.49197e-09
-7.59385e-08
-3.61604e-09
-7.48288e-08
-3.73678e-09
-7.36844e-08
-3.85404e-09
-7.25062e-08
-3.96767e-09
-7.12955e-08
-4.07754e-09
-7.00534e-08
-4.18349e-09
-6.87811e-08
-4.28539e-09
-6.74799e-08
-4.38309e-09
-6.61509e-08
-4.47646e-09
-6.47957e-08
-4.56535e-09
-6.34155e-08
-4.64962e-09
-6.20117e-08
-4.72915e-09
-6.05858e-08
-4.80379e-09
-5.91393e-08
-4.87342e-09
-5.76737e-08
-4.9379e-09
-5.61905e-08
-4.99712e-09
-5.46913e-08
-5.05093e-09
-5.31779e-08
-5.09923e-09
-5.16518e-08
-5.1419e-09
-5.01147e-08
-5.17881e-09
-4.85684e-08
-5.20986e-09
-4.70147e-08
-5.23493e-09
-4.54552e-08
-5.25393e-09
-4.38919e-08
-5.26676e-09
-4.23266e-08
-5.27331e-09
-4.07612e-08
-5.27349e-09
-3.91975e-08
-5.26723e-09
-3.76375e-08
-5.25443e-09
-3.60832e-08
-5.23502e-09
-3.45364e-08
-5.20894e-09
-3.29991e-08
-5.17612e-09
-3.14735e-08
-5.13649e-09
-2.99613e-08
-5.09002e-09
-2.84648e-08
-5.03666e-09
-2.69858e-08
-4.97637e-09
-2.55264e-08
-4.90913e-09
-2.40887e-08
-4.83492e-09
-2.26747e-08
-4.75374e-09
-2.12863e-08
-4.66558e-09
-1.99257e-08
-4.57047e-09
-1.85948e-08
-4.46842e-09
-1.72956e-08
-4.35949e-09
-1.603e-08
-4.24373e-09
-1.48001e-08
-4.1212e-09
-1.36077e-08