/*--------------------------------*- C++ -*----------------------------------*\
  =========                 |
  \\      /  F ield         | OpenFOAM: The Open Source CFD Toolbox
   \\    /   O peration     | Website:  https://openfoam.org
    \\  /    A nd           | Version:  7
     \\/     M anipulation  |
\*---------------------------------------------------------------------------*/
FoamFile
{
    version     2.0;
    format      ascii;
    class       volScalarField;
    location    "13";
    object      rho;
}
// * * * * * * * * * * * * * * * * * * * * * * * * * * * * * * * * * * * * * //

dimensions      [1 -3 0 0 0 0 0];

internalField   nonuniform List<scalar> 
2413
(
1.27519
1.2391
1.17732
1.10768
1.05387
1.02407
1.01085
1.004
0.99787
0.990812
0.982614
0.973138
0.962973
0.952603
0.942323
0.932599
0.924114
0.917035
0.910794
0.903988
0.89411
0.877798
0.853719
0.827177
0.806621
0.794317
0.787056
0.781498
0.775231
0.766172
0.752643
0.732997
0.708228
0.682883
0.661648
0.647816
0.640224
0.635314
0.636858
0.646516
0.654753
0.628268
0.588012
0.594939
0.589079
0.581838
0.580725
0.581163
0.586014
0.590756
0.594656
0.594824
0.590792
0.592425
0.600089
0.608205
0.617582
0.62753
0.638336
0.649287
0.661066
0.673034
0.685282
0.698006
0.710677
0.723459
0.736625
0.749021
0.761566
0.77329
0.784134
0.794453
0.803622
0.811921
0.820256
0.830074
0.842741
0.859442
0.880151
0.903601
0.928143
0.953144
0.977469
0.998111
1.01351
1.02563
1.03711
1.04941
1.27471
1.23913
1.17785
1.10828
1.054
1.02357
1.00987
1.00281
0.996621
0.989533
0.981334
0.971805
0.961574
0.951129
0.940708
0.930725
0.921803
0.914111
0.907142
0.899612
0.889387
0.873569
0.850656
0.824867
0.803881
0.790418
0.781968
0.775515
0.768916
0.760381
0.747753
0.729543
0.706327
0.681401
0.659411
0.644468
0.636113
0.63082
0.631455
0.639846
0.646624
0.621598
0.577069
0.574854
0.569981
0.566869
0.567958
0.570248
0.576913
0.583437
0.589582
0.591286
0.58656
0.585649
0.591598
0.599022
0.607466
0.616849
0.62648
0.637
0.647414
0.658831
0.670092
0.681999
0.694034
0.705985
0.718334
0.730234
0.742016
0.753297
0.763654
0.773378
0.782239
0.790351
0.798413
0.807866
0.820088
0.83615
0.856048
0.878569
0.902528
0.927756
0.95215
0.973743
0.990246
1.00402
1.01744
1.03172
1.27411
1.23999
1.18018
1.11077
1.05521
1.02318
1.00854
1.00117
0.994725
0.987231
0.978612
0.968603
0.957918
0.946962
0.936024
0.925393
0.915521
0.906562
0.897971
0.888566
0.876621
0.860185
0.838429
0.814396
0.793566
0.778504
0.767793
0.758984
0.75002
0.739428
0.726079
0.709376
0.689503
0.668048
0.647424
0.631239
0.621211
0.614893
0.613839
0.619414
0.62379
0.605319
0.560971
0.54538
0.535183
0.532267
0.534788
0.540814
0.55047
0.559987
0.569573
0.574137
0.569863
0.56592
0.568312
0.574381
0.581463
0.589922
0.5983
0.607542
0.61676
0.626742
0.636685
0.647181
0.657732
0.668373
0.67917
0.689708
0.699991
0.709904
0.719012
0.727394
0.735113
0.742284
0.749411
0.757659
0.768364
0.78255
0.800323
0.820791
0.843227
0.867848
0.891472
0.913366
0.931906
0.948207
0.964472
0.981899
1.27357
1.242
1.18481
1.11582
1.0582
1.02348
1.00705
0.998817
0.991739
0.983579
0.974276
0.963556
0.952035
0.940104
0.927998
0.915868
0.903935
0.892607
0.881263
0.869148
0.854874
0.837316
0.816548
0.794209
0.773753
0.757145
0.743902
0.732599
0.721666
0.709761
0.696199
0.680629
0.663184
0.644581
0.625847
0.609515
0.59795
0.589699
0.585323
0.585742
0.585534
0.57384
0.535624
0.51028
0.496251
0.492851
0.496029
0.503691
0.51428
0.525553
0.537792
0.546483
0.544843
0.540005
0.539085
0.542704
0.548196
0.555214
0.5626
0.570669
0.578889
0.587671
0.596658
0.605995
0.615594
0.625232
0.634991
0.644691
0.654095
0.663296
0.671754
0.67946
0.686583
0.693168
0.699646
0.706897
0.715952
0.727764
0.742615
0.759964
0.779347
0.801136
0.822353
0.842211
0.860326
0.877035
0.893998
0.912558
1.27282
1.24462
1.19101
1.12281
1.06254
1.02405
1.00494
0.99527
0.987491
0.978895
0.968749
0.956917
0.943703
0.929731
0.915403
0.900957
0.88646
0.871994
0.857362
0.842093
0.825687
0.806935
0.786514
0.766017
0.746519
0.729276
0.714126
0.700531
0.687674
0.674668
0.661214
0.647043
0.632004
0.616184
0.599865
0.584672
0.57271
0.56327
0.555971
0.551909
0.547622
0.538982
0.508843
0.47801
0.462728
0.459594
0.463625
0.470854
0.480863
0.491953
0.505108
0.516363
0.51997
0.5167
0.515155
0.516815
0.521392
0.527539
0.534582
0.542137
0.550218
0.558621
0.567447
0.576559
0.585994
0.595629
0.605284
0.615075
0.624479
0.633739
0.642415
0.650277
0.657534
0.664202
0.670561
0.677336
0.685354
0.69547
0.708123
0.723035
0.740058
0.758748
0.777222
0.794162
0.80948
0.823792
0.838102
0.853592
1.27152
1.24721
1.19814
1.13156
1.06863
1.02568
1.00317
0.991652
0.983017
0.973608
0.962206
0.948696
0.933148
0.916579
0.89957
0.882337
0.864827
0.847179
0.8294
0.811536
0.793409
0.774408
0.754545
0.735518
0.717781
0.7012
0.685771
0.671339
0.657525
0.644019
0.630633
0.617253
0.603756
0.589952
0.575792
0.562081
0.550286
0.540149
0.531088
0.523343
0.51638
0.508264
0.48658
0.457099
0.441026
0.437972
0.441059
0.446924
0.455348
0.46499
0.477602
0.489926
0.497065
0.497714
0.496798
0.4977
0.501745
0.507091
0.514059
0.521361
0.529557
0.537956
0.547
0.556331
0.566131
0.576244
0.586412
0.596871
0.607127
0.617154
0.626781
0.635666
0.643841
0.651306
0.658241
0.665199
0.672853
0.682107
0.693558
0.707225
0.722951
0.740032
0.75668
0.771309
0.783817
0.79499
0.805983
0.817957
1.26976
1.24954
1.2058
1.14185
1.07657
1.02848
1.00155
0.987538
0.977658
0.967377
0.954811
0.939555
0.921559
0.901999
0.88167
0.861187
0.840709
0.82038
0.80039
0.780797
0.761726
0.743155
0.724748
0.70708
0.691049
0.675934
0.661306
0.64704
0.633136
0.619642
0.606464
0.593675
0.581188
0.568804
0.556356
0.544086
0.532786
0.522319
0.511939
0.501226
0.491769
0.482878
0.46758
0.443152
0.427469
0.423388
0.424842
0.42908
0.435474
0.443538
0.454497
0.466233
0.475552
0.479048
0.47988
0.48121
0.484971
0.48985
0.496564
0.503721
0.511923
0.520443
0.529656
0.539326
0.549508
0.560134
0.571053
0.582321
0.593629
0.604732
0.615697
0.62604
0.635565
0.644287
0.652315
0.660014
0.667878
0.676914
0.68785
0.700832
0.715859
0.732533
0.74954
0.764423
0.776139
0.785448
0.794121
0.803038
1.26736
1.25105
1.21309
1.15296
1.08626
1.03285
1.00076
0.983565
0.97221
0.961111
0.947495
0.930302
0.909397
0.88645
0.862952
0.839681
0.816722
0.794442
0.772968
0.752659
0.733668
0.7159
0.699112
0.683004
0.668623
0.655351
0.642023
0.628679
0.615332
0.602121
0.589058
0.576393
0.564137
0.552261
0.540642
0.52922
0.518291
0.507551
0.496087
0.483601
0.471969
0.461986
0.450415
0.432413
0.419094
0.413045
0.412738
0.415505
0.419751
0.426063
0.434312
0.443946
0.452611
0.457374
0.45959
0.462212
0.46575
0.470628
0.476852
0.483942
0.491943
0.500575
0.509941
0.519968
0.530602
0.541878
0.553741
0.565994
0.578562
0.591196
0.603788
0.615927
0.627319
0.637833
0.647398
0.656267
0.664822
0.673825
0.683995
0.695798
0.709975
0.726449
0.744499
0.760877
0.773461
0.782831
0.79076
0.798758
1.26423
1.2515
1.21947
1.16443
1.09775
1.03932
1.00148
0.980266
0.966871
0.954654
0.940088
0.921375
0.897941
0.871886
0.845144
0.819073
0.794118
0.770561
0.748625
0.728433
0.710018
0.693286
0.677977
0.6634
0.6504
0.638624
0.626577
0.614258
0.601596
0.588741
0.575783
0.563038
0.550619
0.538675
0.527149
0.515906
0.504908
0.493678
0.481426
0.467962
0.454904
0.443902
0.434018
0.421459
0.410563
0.403784
0.401627
0.402666
0.405277
0.409628
0.415409
0.422611
0.42953
0.434451
0.437608
0.440798
0.444582
0.449517
0.455432
0.462415
0.470203
0.478844
0.488253
0.498463
0.509391
0.521097
0.533691
0.546937
0.56074
0.574954
0.589314
0.603552
0.61724
0.630077
0.641795
0.652465
0.662205
0.671762
0.681322
0.691953
0.704947
0.720661
0.739269
0.757583
0.77215
0.782997
0.790977
0.79792
1.26054
1.25053
1.22438
1.1758
1.11109
1.04857
1.00426
0.97802
0.961928
0.948438
0.933171
0.913518
0.888022
0.858705
0.828936
0.800409
0.773999
0.749831
0.727821
0.708039
0.690473
0.674785
0.660577
0.647148
0.635201
0.624492
0.613419
0.601938
0.589932
0.577498
0.564719
0.551873
0.539094
0.526637
0.514563
0.502808
0.491227
0.479369
0.466645
0.452918
0.439349
0.42761
0.417962
0.408564
0.399896
0.393581
0.390259
0.38956
0.39077
0.393333
0.397174
0.402191
0.4074
0.411726
0.415149
0.418628
0.422685
0.427623
0.433545
0.440391
0.448088
0.456693
0.466115
0.476477
0.487601
0.499748
0.512938
0.526962
0.541746
0.557196
0.573129
0.589349
0.60541
0.620871
0.635311
0.64846
0.660017
0.670689
0.680416
0.690629
0.702197
0.716088
0.7342
0.755204
0.773415
0.78606
0.794281
0.800204
1.25635
1.24815
1.22753
1.18635
1.12579
1.06101
1.00998
0.977492
0.957753
0.942581
0.926644
0.906503
0.880547
0.849228
0.816202
0.784892
0.756863
0.731986
0.710257
0.691234
0.674481
0.6596
0.64623
0.633569
0.622217
0.612101
0.601653
0.590697
0.579115
0.56692
0.554191
0.541186
0.528033
0.51496
0.502145
0.48961
0.477246
0.464736
0.451732
0.438196
0.424859
0.413041
0.403369
0.395264
0.388275
0.382736
0.379124
0.377394
0.377436
0.378832
0.381362
0.384885
0.388869
0.392689
0.396328
0.400145
0.40453
0.409703
0.415709
0.422562
0.430247
0.438772
0.448158
0.458357
0.469507
0.481886
0.495299
0.509742
0.525148
0.541485
0.558595
0.576344
0.594327
0.611975
0.628844
0.644688
0.658588
0.670565
0.681259
0.691591
0.702174
0.713783
0.728962
0.74936
0.771357
0.788582
0.799909
0.806666
1.25142
1.24462
1.22892
1.19553
1.14129
1.0767
1.01931
0.979578
0.955119
0.937628
0.920845
0.90058
0.874395
0.842333
0.80759
0.773542
0.743262
0.717577
0.695793
0.677134
0.661015
0.646768
0.633834
0.621584
0.61053
0.600628
0.590395
0.579584
0.568084
0.555878
0.543115
0.529969
0.516529
0.502987
0.48952
0.476235
0.46315
0.450092
0.437004
0.423932
0.411348
0.400117
0.390818
0.383268
0.377088
0.372294
0.369054
0.36711
0.366622
0.367327
0.369186
0.371779
0.375052
0.378483
0.382199
0.38624
0.3909
0.396245
0.402354
0.409244
0.41691
0.425393
0.434795
0.44494
0.45621
0.46875
0.482395
0.497141
0.512939
0.529738
0.547471
0.566097
0.585384
0.604946
0.62413
0.641918
0.657813
0.672196
0.684777
0.695663
0.70563
0.715331
0.726971
0.743442
0.765786
0.788323
0.804518
0.814265
1.2463
1.24046
1.22877
1.20281
1.15654
1.09494
1.03286
0.98545
0.954568
0.933685
0.915622
0.895435
0.870014
0.838109
0.802514
0.767049
0.734645
0.706911
0.684211
0.665593
0.649709
0.635788
0.623226
0.611187
0.599983
0.589881
0.579585
0.56873
0.55718
0.544857
0.531902
0.518454
0.50463
0.490675
0.476813
0.463141
0.449804
0.436738
0.424033
0.411727
0.400189
0.389922
0.381296
0.374332
0.368821
0.364649
0.361794
0.360041
0.359472
0.359847
0.361361
0.363472
0.366339
0.36954
0.373279
0.37747
0.382299
0.387777
0.393957
0.40086
0.408525
0.416956
0.426239
0.43624
0.447419
0.45987
0.473578
0.488578
0.50489
0.522467
0.541082
0.560392
0.580216
0.600415
0.620658
0.639989
0.658875
0.676041
0.690594
0.702797
0.712934
0.721633
0.730095
0.741412
0.759122
0.783222
0.805909
0.821009
1.24152
1.23632
1.22716
1.20778
1.17037
1.11485
1.05145
0.99611
0.957567
0.932058
0.912017
0.891651
0.867067
0.836067
0.800004
0.76328
0.729642
0.700551
0.676281
0.656454
0.640196
0.626299
0.61362
0.601559
0.590256
0.579894
0.569297
0.558127
0.546369
0.533837
0.52059
0.506831
0.492751
0.478606
0.464643
0.450994
0.437825
0.425129
0.413057
0.401716
0.391351
0.382237
0.3746
0.368437
0.36364
0.360054
0.357638
0.35617
0.35564
0.355896
0.357091
0.358919
0.361462
0.364483
0.368078
0.372222
0.376986
0.382426
0.388561
0.395429
0.403074
0.411553
0.420858
0.431042
0.442405
0.454981
0.468826
0.483952
0.500374
0.518106
0.536993
0.55685
0.577635
0.599003
0.620809
0.64258
0.66311
0.681892
0.698609
0.712555
0.723678
0.732135
0.738747
0.745315
0.756346
0.775425
0.800674
0.822954
1.23706
1.23223
1.22453
1.21037
1.18189
1.13486
1.07334
1.01316
0.96574
0.933674
0.910183
0.889064
0.865454
0.836277
0.801096
0.763469
0.727559
0.696789
0.671352
0.650491
0.633035
0.618361
0.605518
0.593454
0.581757
0.570688
0.559527
0.548103
0.536269
0.523682
0.510385
0.496459
0.48216
0.467817
0.453804
0.440404
0.427818
0.416019
0.405074
0.395
0.385873
0.377813
0.371031
0.365527
0.361264
0.358117
0.355993
0.354716
0.354231
0.354468
0.355489
0.35715
0.359483
0.362369
0.36585
0.369958
0.374682
0.380062
0.386085
0.392845
0.400368
0.408761
0.417873
0.427972
0.439343
0.452023
0.466185
0.48182
0.49893
0.51747
0.537414
0.558679
0.580911
0.603674
0.626579
0.648671
0.670029
0.690231
0.708286
0.723822
0.736419
0.74567
0.75202
0.756168
0.761178
0.772207
0.792211
0.818474
1.23262
1.22849
1.22167
1.2109
1.19028
1.15292
1.09774
1.03549
0.980575
0.939947
0.911526
0.888461
0.865062
0.838034
0.804757
0.767648
0.730384
0.696963
0.668822
0.646446
0.628193
0.612625
0.59877
0.586152
0.574243
0.562816
0.551345
0.539663
0.52752
0.514634
0.501155
0.48717
0.473042
0.459144
0.445753
0.43305
0.421218
0.410241
0.400149
0.39096
0.382738
0.375605
0.369563
0.364629
0.360783
0.357942
0.356006
0.354913
0.354507
0.354722
0.355571
0.357025
0.359155
0.361887
0.365247
0.369266
0.37385
0.37913
0.385092
0.391853
0.399431
0.407825
0.417091
0.427574
0.439483
0.452907
0.467923
0.484572
0.502872
0.522708
0.543826
0.565859
0.588561
0.611802
0.635147
0.658231
0.680416
0.701068
0.719858
0.736435
0.75026
0.760578
0.767412
0.770942
0.773037
0.777163
0.787826
0.80862
1.22818
1.225
1.2189
1.20984
1.19511
1.16724
1.12191
1.06243
1.00225
0.952933
0.916977
0.890236
0.866099
0.840407
0.809625
0.774084
0.736463
0.701067
0.670543
0.645399
0.625185
0.608661
0.59431
0.581187
0.568712
0.556603
0.544623
0.532589
0.52032
0.507639
0.494666
0.481356
0.467931
0.454523
0.441509
0.429162
0.417734
0.407321
0.397937
0.389478
0.38198
0.375525
0.370083
0.365623
0.362087
0.359441
0.357575
0.356561
0.356098
0.356235
0.356988
0.358279
0.360309
0.362961
0.36619
0.370095
0.374684
0.380096
0.386297
0.393339
0.401218
0.410053
0.420037
0.431302
0.443934
0.458007
0.473568
0.490796
0.509698
0.530162
0.552
0.575024
0.59894
0.623203
0.647415
0.670763
0.693203
0.714198
0.733293
0.750264
0.764719
0.775984
0.783795
0.787778
0.789374
0.79047
0.793159
0.803085
1.2238
1.22127
1.21611
1.20798
1.1966
1.17687
1.14234
1.09095
1.03054
0.973792
0.928974
0.895705
0.868981
0.843382
0.815243
0.782481
0.745957
0.70933
0.676189
0.648276
0.625598
0.606886
0.591338
0.57772
0.56509
0.5528
0.540661
0.52856
0.516316
0.503779
0.491026
0.478063
0.465103
0.452245
0.439751
0.427898
0.416904
0.406912
0.397995
0.390064
0.383133
0.377107
0.37203
0.36788
0.364553
0.362052
0.360252
0.359285
0.358795
0.358964
0.359738
0.360972
0.362951
0.36559
0.368927
0.373024
0.377969
0.383703
0.390178
0.397494
0.40572
0.414993
0.425457
0.437264
0.45055
0.465466
0.482085
0.500453
0.520496
0.542089
0.564938
0.58873
0.613085
0.637566
0.661953
0.685543
0.70826
0.729356
0.748478
0.765468
0.779978
0.791603
0.800007
0.804692
0.806904
0.807613
0.807166
0.808336
1.21929
1.21711
1.21292
1.20577
1.19594
1.18171
1.15697
1.11699
1.06221
1.00267
0.949441
0.907837
0.875823
0.848572
0.821381
0.791422
0.757477
0.721386
0.686416
0.655437
0.629711
0.608716
0.591355
0.576348
0.562974
0.550526
0.538382
0.52636
0.51426
0.50199
0.489588
0.477077
0.464635
0.452378
0.440435
0.429017
0.418326
0.408535
0.399767
0.392097
0.385505
0.379869
0.375167
0.371335
0.368262
0.365925
0.364224
0.363269
0.362796
0.362979
0.363806
0.365104
0.367192
0.369991
0.373633
0.37806
0.383337
0.389411
0.396308
0.404097
0.412885
0.42283
0.434114
0.446884
0.461234
0.477209
0.49479
0.513993
0.53475
0.556946
0.580267
0.604518
0.629265
0.654284
0.678788
0.702573
0.725039
0.746018
0.764958
0.781774
0.796021
0.807648
0.816222
0.821667
0.824978
0.82632
0.825352
0.823055
1.21454
1.21259
1.20897
1.20296
1.19432
1.18267
1.16545
1.13672
1.09288
1.03695
0.979203
0.928816
0.889087
0.857456
0.829317
0.800851
0.769821
0.735911
0.700948
0.66778
0.638653
0.614358
0.594511
0.578001
0.563572
0.550421
0.537971
0.525974
0.514168
0.502387
0.490575
0.478693
0.466793
0.454964
0.443389
0.432274
0.421909
0.412514
0.404194
0.396935
0.39065
0.385234
0.380669
0.376904
0.373882
0.371571
0.369906
0.368958
0.36858
0.368958
0.370031
0.371659
0.374127
0.377283
0.381301
0.386111
0.391797
0.398315
0.405709
0.414032
0.423411
0.434012
0.445998
0.459544
0.474777
0.491789
0.51057
0.53104
0.553004
0.576232
0.600368
0.625099
0.649991
0.674675
0.698742
0.721929
0.743774
0.7641
0.782442
0.798739
0.812502
0.82386
0.832172
0.838067
0.842366
0.844616
0.844742
0.842201
1.20948
1.20776
1.20446
1.19923
1.19198
1.18189
1.16867
1.14889
1.11741
1.07147
1.01595
0.960289
0.911955
0.873116
0.841149
0.812142
0.782884
0.751634
0.7184
0.684865
0.653388
0.625705
0.602387
0.583047
0.56681
0.552742
0.540034
0.528029
0.516357
0.504881
0.493492
0.482157
0.470896
0.459778
0.448921
0.438447
0.428549
0.41943
0.411236
0.404008
0.397742
0.39238
0.387886
0.384214
0.38131
0.379141
0.377634
0.376846
0.376654
0.377304
0.378609
0.380564
0.383309
0.386769
0.391082
0.396208
0.402246
0.409202
0.417157
0.426203
0.436461
0.448087
0.461247
0.476103
0.492752
0.511209
0.531358
0.553003
0.575884
0.599712
0.624147
0.648828
0.673374
0.69747
0.720809
0.743042
0.763833
0.782986
0.800287
0.815665
0.82878
0.839716
0.847766
0.854098
0.859106
0.862385
0.86353
0.862428
1.20418
1.20276
1.19967
1.19489
1.18872
1.18033
1.16918
1.15468
1.13324
1.1002
1.05395
0.999596
0.94585
0.898867
0.860203
0.827616
0.797835
0.768216
0.737332
0.705205
0.673162
0.643084
0.616426
0.593707
0.574609
0.558367
0.544201
0.531439
0.519644
0.508527
0.497814
0.487289
0.476822
0.466395
0.456101
0.446112
0.436639
0.427858
0.419908
0.412847
0.406715
0.401486
0.397113
0.393576
0.390808
0.388812
0.387523
0.386975
0.387164
0.388169
0.389822
0.392218
0.395289
0.399117
0.403783
0.409353
0.415943
0.423612
0.432453
0.442554
0.454012
0.466943
0.481466
0.497695
0.515696
0.535448
0.556807
0.579511
0.603209
0.627516
0.652046
0.676443
0.700363
0.723482
0.745493
0.766125
0.785214
0.802609
0.818352
0.83233
0.844486
0.8546
0.862437
0.869143
0.874462
0.878514
0.880591
0.881104
1.19869
1.19765
1.19482
1.19036
1.18477
1.17775
1.16857
1.15682
1.1415
1.1192
1.08583
1.04073
0.988068
0.935905
0.889741
0.850868
0.817575
0.78715
0.757394
0.727143
0.696324
0.665833
0.637041
0.611125
0.588642
0.569491
0.553198
0.539118
0.52667
0.515372
0.504856
0.494819
0.485039
0.475371
0.465794
0.456387
0.447332
0.438795
0.430963
0.42396
0.417859
0.412686
0.408396
0.404993
0.40238
0.400628
0.39967
0.399517
0.400264
0.401726
0.403851
0.406669
0.410077
0.41429
0.4194
0.425567
0.432912
0.441521
0.451484
0.462882
0.47579
0.490273
0.506395
0.524197
0.54368
0.564751
0.587205
0.610705
0.634814
0.65908
0.683116
0.70662
0.729301
0.75088
0.771131
0.789845
0.806956
0.822364
0.836287
0.848627
0.859535
0.868602
0.876194
0.883091
0.888644
0.893159
0.896132
0.897619
1.19305
1.19245
1.18996
1.18579
1.18049
1.17423
1.16665
1.15704
1.14496
1.12932
1.107
1.0746
1.0315
0.981285
0.930596
0.884847
0.845545
0.81151
0.780602
0.75091
0.721358
0.691807
0.662805
0.635266
0.610086
0.5878
0.568534
0.552049
0.537968
0.525804
0.515074
0.50525
0.495882
0.486626
0.477369
0.468187
0.459302
0.450889
0.443179
0.436326
0.430366
0.425349
0.421241
0.418069
0.415748
0.414366
0.413828
0.414366
0.415812
0.417919
0.420751
0.424143
0.428098
0.432907
0.438751
0.445855
0.454353
0.464328
0.47585
0.488956
0.503653
0.51991
0.537686
0.556926
0.577562
0.599467
0.622428
0.646103
0.670028
0.693705
0.716716
0.738781
0.759691
0.779273
0.797374
0.81388
0.828808
0.842143
0.854127
0.86476
0.874168
0.882193
0.889389
0.896008
0.901575
0.906228
0.909806
0.912088
1.18729
1.18716
1.18509
1.1812
1.17609
1.17014
1.16345
1.15551
1.14582
1.13368
1.11812
1.09667
1.06602
1.02567
0.978651
0.930029
0.884671
0.844829
0.810022
0.778662
0.749152
0.720385
0.692002
0.664325
0.637997
0.613682
0.591921
0.572969
0.556829
0.543184
0.531536
0.521201
0.511545
0.502054
0.492551
0.483187
0.47416
0.465631
0.457922
0.451178
0.445358
0.440515
0.43664
0.433736
0.431808
0.430881
0.431061
0.432565
0.434943
0.438109
0.441937
0.446119
0.450807
0.456401
0.463226
0.47155
0.481491
0.493079
0.50633
0.521205
0.537636
0.555485
0.574619
0.594895
0.616178
0.638309
0.661081
0.684201
0.70724
0.729696
0.751116
0.771215
0.789869
0.807046
0.822737
0.836921
0.849664
0.861044
0.871216
0.880284
0.888273
0.895472
0.902162
0.908243
0.913612
0.918241
0.922132
0.924931
1.18153
1.18187
1.18017
1.17659
1.17163
1.16581
1.15949
1.15248
1.14439
1.13482
1.12281
1.10777
1.08769
1.05951
1.02268
0.979365
0.933716
0.889634
0.849555
0.81401
0.78211
0.752608
0.724514
0.697293
0.670937
0.645881
0.622723
0.601991
0.58403
0.568807
0.555901
0.544545
0.533923
0.5234
0.51282
0.502535
0.492789
0.483775
0.475828
0.469055
0.463339
0.45869
0.455112
0.452585
0.451137
0.450733
0.451979
0.454746
0.458453
0.463107
0.468275
0.47357
0.479284
0.485975
0.494122
0.504004
0.515675
0.529063
0.544089
0.560623
0.578516
0.597545
0.6175
0.638152
0.659297
0.68074
0.702299
0.723787
0.744916
0.7653
0.784508
0.802239
0.81839
0.833007
0.846203
0.858075
0.868746
0.878372
0.886998
0.89474
0.90178
0.90832
0.914298
0.919786
0.924773
0.929215
0.933117
0.936191
1.1758
1.17658
1.17526
1.17201
1.16725
1.16151
1.15531
1.14869
1.14147
1.13332
1.12387
1.11223
1.098
1.07939
1.0544
1.02202
0.983247
0.941191
0.899381
0.860134
0.824345
0.791927
0.762209
0.734446
0.708172
0.683264
0.659973
0.638788
0.620152
0.604153
0.590302
0.577741
0.565543
0.553174
0.540748
0.528807
0.517817
0.508083
0.49967
0.492675
0.486969
0.482508
0.47923
0.477151
0.476164
0.476548
0.479091
0.483328
0.488858
0.495448
0.502314
0.508993
0.515913
0.523847
0.533418
0.544885
0.55818
0.573092
0.589415
0.606941
0.625466
0.644747
0.664537
0.684557
0.704538
0.72425
0.743539
0.762342
0.780582
0.798102
0.814611
0.829829
0.843594
0.855895
0.866855
0.87665
0.885409
0.893403
0.900633
0.907336
0.913608
0.919447
0.924815
0.929835
0.93448
0.938723
0.942504
0.945664
1.1702
1.1714
1.17046
1.16756
1.16306
1.15746
1.15133
1.14479
1.13793
1.13047
1.12221
1.11285
1.10182
1.08834
1.07151
1.05028
1.02281
0.989479
0.952196
0.91368
0.876239
0.841184
0.808819
0.779019
0.751477
0.726044
0.702764
0.681919
0.663743
0.648114
0.634209
0.620913
0.607145
0.592642
0.577994
0.563997
0.551447
)
;

boundaryField
{
    inlet
    {
        type            calculated;
        value           nonuniform 0();
    }
    outlet
    {
        type            calculated;
        value           nonuniform 0();
    }
    bottom
    {
        type            symmetryPlane;
    }
    top
    {
        type            symmetryPlane;
    }
    obstacle
    {
        type            calculated;
        value           nonuniform 0();
    }
    front
    {
        type            empty;
    }
    back
    {
        type            empty;
    }
    procBoundary3to2
    {
        type            processor;
        value           nonuniform List<scalar> 
28
(
1.28779
1.28708
1.28592
1.28442
1.28241
1.27968
1.27638
1.27248
1.26807
1.26359
1.2591
1.25426
1.24917
1.2437
1.23833
1.23319
1.22829
1.22357
1.21886
1.21397
1.2087
1.20302
1.19703
1.19089
1.18465
1.17843
1.17234
1.16637
)
;
    }
    procBoundary3to4
    {
        type            processor;
        value           nonuniform List<scalar> 
27
(
1.06302
1.04735
1.00104
0.933424
0.871442
0.831972
0.813246
0.807336
0.805084
0.805846
0.811113
0.819133
0.828662
0.836547
0.840278
0.835635
0.82493
0.818526
0.823829
0.838944
0.858644
0.879136
0.897434
0.913162
0.92672
0.938358
0.947985
)
;
    }
    procBoundary3to11
    {
        type            processor;
        value           nonuniform List<scalar> 
89
(
0.540704
0.531578
0.524097
0.518221
0.51386
0.510826
0.509141
0.508557
0.509877
0.513857
0.519809
0.527516
0.536355
0.545171
0.553411
0.561643
0.570859
0.581766
0.594548
0.608975
0.6247
0.641408
0.658855
0.67683
0.695125
0.713509
0.731699
0.749398
0.766349
0.782425
0.797664
0.812198
0.826145
0.839461
0.851975
0.863486
0.873859
0.883117
0.891461
0.89882
0.905546
0.911798
0.917691
0.923184
0.928403
0.933302
0.937925
0.942241
0.946218
0.949766
0.952811
1.1649
1.16647
1.16592
1.16339
1.15919
1.15379
1.14776
1.14126
1.13449
1.12728
1.11957
1.11111
1.10174
1.09122
1.07889
1.06425
1.04635
1.02391
0.996673
0.965356
0.931537
0.897171
0.863802
0.832433
0.803432
0.777017
0.753501
0.733112
0.715834
0.701062
0.687429
0.673499
0.658205
0.641756
0.625102
0.609315
0.540704
0.595258
)
;
    }
}


// ************************************************************************* //
