/*--------------------------------*- C++ -*----------------------------------*\
  =========                 |
  \\      /  F ield         | OpenFOAM: The Open Source CFD Toolbox
   \\    /   O peration     | Website:  https://openfoam.org
    \\  /    A nd           | Version:  7
     \\/     M anipulation  |
\*---------------------------------------------------------------------------*/
FoamFile
{
    version     2.0;
    format      ascii;
    class       volScalarField;
    location    "33";
    object      p;
}
// * * * * * * * * * * * * * * * * * * * * * * * * * * * * * * * * * * * * * //

dimensions      [0 2 -2 0 0 0 0];

internalField   nonuniform List<scalar> 
26800
(
-0.226218
-0.229715
-0.236506
-0.23626
-0.237624
-0.235363
-0.232861
-0.2284
-0.222839
-0.215796
-0.206848
-0.196587
-0.183629
-0.169498
-0.153061
-0.134247
-0.117682
-0.0953748
-0.078778
-0.0596953
-0.226395
-0.229775
-0.236598
-0.236323
-0.237695
-0.235446
-0.232973
-0.228553
-0.223032
-0.21604
-0.207096
-0.196864
-0.183854
-0.169723
-0.153308
-0.134423
-0.118131
-0.0957144
-0.0794753
-0.060394
-0.226753
-0.229897
-0.236785
-0.236453
-0.237837
-0.235602
-0.233162
-0.228797
-0.223329
-0.216419
-0.207492
-0.197345
-0.184318
-0.170228
-0.153884
-0.134876
-0.119042
-0.0964809
-0.0804619
-0.0616952
-0.227286
-0.230078
-0.237062
-0.236644
-0.238043
-0.23582
-0.233418
-0.229115
-0.223707
-0.216899
-0.207992
-0.19796
-0.184902
-0.170888
-0.154632
-0.135572
-0.119991
-0.0975939
-0.0814986
-0.0633762
-0.22799
-0.230313
-0.237422
-0.236888
-0.238303
-0.236088
-0.233724
-0.229485
-0.224136
-0.21743
-0.20854
-0.19863
-0.185524
-0.171547
-0.1554
-0.136297
-0.120812
-0.0989242
-0.082414
-0.0650896
-0.228858
-0.230593
-0.237852
-0.237173
-0.238602
-0.23639
-0.23406
-0.229879
-0.224579
-0.21796
-0.209074
-0.199205
-0.186107
-0.172027
-0.156058
-0.136906
-0.121253
-0.100272
-0.0832125
-0.0665627
-0.229882
-0.230912
-0.238342
-0.237488
-0.238926
-0.236706
-0.234401
-0.230265
-0.224996
-0.218434
-0.20953
-0.199599
-0.18653
-0.172185
-0.156406
-0.13729
-0.121229
-0.101336
-0.083925
-0.0677255
-0.231055
-0.23126
-0.238877
-0.237817
-0.239256
-0.237016
-0.234725
-0.23061
-0.225356
-0.218769
-0.209822
-0.199704
-0.186668
-0.171925
-0.156254
-0.137321
-0.120768
-0.101907
-0.0845122
-0.0686337
-0.232366
-0.231627
-0.239441
-0.238146
-0.239576
-0.237298
-0.235004
-0.230878
-0.225592
-0.21891
-0.209867
-0.199414
-0.186378
-0.171189
-0.155489
-0.136885
-0.119944
-0.101951
-0.0848988
-0.0693687
-0.233805
-0.232003
-0.240018
-0.238458
-0.239868
-0.237529
-0.235211
-0.231031
-0.225656
-0.21878
-0.209569
-0.198643
-0.185522
-0.169941
-0.154102
-0.135931
-0.11883
-0.101557
-0.085053
-0.0699733
-0.235362
-0.232378
-0.240592
-0.238737
-0.240113
-0.237691
-0.235312
-0.231024
-0.225486
-0.218301
-0.20883
-0.197338
-0.184024
-0.168167
-0.152173
-0.13449
-0.117495
-0.100862
-0.0849945
-0.0704552
-0.237029
-0.232741
-0.241146
-0.238966
-0.240292
-0.237759
-0.235278
-0.230811
-0.225013
-0.217398
-0.207561
-0.195472
-0.181891
-0.165897
-0.149837
-0.132663
-0.116002
-0.099982
-0.0847674
-0.0708121
-0.238795
-0.233085
-0.241663
-0.23913
-0.240392
-0.237707
-0.235068
-0.230337
-0.224167
-0.216012
-0.205713
-0.193063
-0.1792
-0.163211
-0.147231
-0.130572
-0.114407
-0.098992
-0.0844143
-0.0710458
-0.240652
-0.233403
-0.242133
-0.239227
-0.240382
-0.237506
-0.234642
-0.229548
-0.222886
-0.214111
-0.203288
-0.190168
-0.176077
-0.160217
-0.14447
-0.128329
-0.11275
-0.0979329
-0.0839673
-0.0711645
-0.242594
-0.233688
-0.242542
-0.239223
-0.240255
-0.237128
-0.233954
-0.22839
-0.221131
-0.211697
-0.200342
-0.186879
-0.172654
-0.15703
-0.141635
-0.126011
-0.111061
-0.0968246
-0.0834466
-0.0711787
-0.244615
-0.233936
-0.242847
-0.239132
-0.239989
-0.236541
-0.232959
-0.226825
-0.218891
-0.208807
-0.196966
-0.183298
-0.169051
-0.153742
-0.13878
-0.123671
-0.109358
-0.0956757
-0.0828647
-0.0710987
-0.24671
-0.234145
-0.243072
-0.238925
-0.239556
-0.235714
-0.231623
-0.224834
-0.216187
-0.205509
-0.193267
-0.179527
-0.165359
-0.150426
-0.135935
-0.121337
-0.107652
-0.0944899
-0.0822293
-0.0709332
-0.248877
-0.234315
-0.243206
-0.238581
-0.238929
-0.234617
-0.229923
-0.22242
-0.21307
-0.201884
-0.189348
-0.175649
-0.161643
-0.147128
-0.133116
-0.119026
-0.105944
-0.0932688
-0.081546
-0.070689
-0.251116
-0.234472
-0.243219
-0.238096
-0.238087
-0.23323
-0.227852
-0.219609
-0.209608
-0.198017
-0.185299
-0.171728
-0.157946
-0.143874
-0.130329
-0.116744
-0.104236
-0.0920135
-0.0808194
-0.0703704
-0.253427
-0.23462
-0.243096
-0.237461
-0.237016
-0.231538
-0.225421
-0.216444
-0.205876
-0.193986
-0.181188
-0.167809
-0.154294
-0.140679
-0.127577
-0.114495
-0.102523
-0.0907257
-0.0800525
-0.0699795
-0.255813
-0.23475
-0.242835
-0.236678
-0.235709
-0.22953
-0.222656
-0.21298
-0.201944
-0.189855
-0.177066
-0.163922
-0.150703
-0.137544
-0.124859
-0.11228
-0.100799
-0.0894077
-0.0792469
-0.0695171
-0.258277
-0.234872
-0.242418
-0.235759
-0.234167
-0.227208
-0.219591
-0.209278
-0.197878
-0.185675
-0.172967
-0.160083
-0.14718
-0.13447
-0.122177
-0.110096
-0.0990584
-0.0880628
-0.0784018
-0.0689836
-0.260822
-0.234989
-0.24183
-0.234726
-0.232394
-0.224581
-0.216273
-0.205394
-0.193728
-0.181485
-0.168912
-0.156303
-0.143727
-0.131449
-0.119529
-0.10794
-0.097296
-0.0866952
-0.0775151
-0.0683789
-0.263447
-0.235089
-0.241077
-0.233594
-0.230394
-0.221671
-0.212745
-0.201379
-0.189536
-0.177312
-0.164914
-0.152585
-0.140345
-0.128477
-0.116916
-0.105804
-0.0955065
-0.0853092
-0.0765823
-0.0677013
-0.266151
-0.235135
-0.240188
-0.232355
-0.228179
-0.218508
-0.209052
-0.197278
-0.185332
-0.173173
-0.160978
-0.148931
-0.13703
-0.125548
-0.114339
-0.103682
-0.0936874
-0.0839087
-0.0755936
-0.066945
-0.268915
-0.235083
-0.239211
-0.23098
-0.225763
-0.215129
-0.205234
-0.193125
-0.181139
-0.169079
-0.157106
-0.145341
-0.133777
-0.122657
-0.111797
-0.101564
-0.0918403
-0.0824959
-0.0745281
-0.0660961
-0.271672
-0.234915
-0.2382
-0.229429
-0.223166
-0.211568
-0.201323
-0.188946
-0.17697
-0.165038
-0.153298
-0.141811
-0.130581
-0.119802
-0.109289
-0.0994438
-0.089973
-0.0810672
-0.0733499
-0.0651372
-0.274376
-0.234609
-0.237182
-0.227672
-0.220406
-0.20786
-0.197347
-0.184761
-0.172837
-0.161051
-0.149551
-0.13834
-0.127437
-0.11698
-0.106813
-0.0973165
-0.0880988
-0.0796116
-0.0720176
-0.0640657
-0.276955
-0.234174
-0.236142
-0.225698
-0.217503
-0.204036
-0.193329
-0.180584
-0.168745
-0.157118
-0.145862
-0.134924
-0.124338
-0.114191
-0.104365
-0.0951826
-0.0862316
-0.0781131
-0.0705182
-0.0629182
-0.279282
-0.23369
-0.235014
-0.223512
-0.214473
-0.200123
-0.189287
-0.176426
-0.164697
-0.15324
-0.142227
-0.131558
-0.121281
-0.111433
-0.101938
-0.093046
-0.084379
-0.0765617
-0.0689163
-0.0617638
-0.281217
-0.233291
-0.233706
-0.221131
-0.211332
-0.196142
-0.185232
-0.172291
-0.160694
-0.149412
-0.138643
-0.12824
-0.118261
-0.108705
-0.0995298
-0.0909118
-0.0825392
-0.0749653
-0.0673632
-0.0606286
-0.282631
-0.233157
-0.232131
-0.218569
-0.208095
-0.192111
-0.181176
-0.168184
-0.156734
-0.145632
-0.135105
-0.124964
-0.115274
-0.106003
-0.0971362
-0.0887836
-0.0807041
-0.0733453
-0.0659371
-0.0594463
-0.283422
-0.23349
-0.230243
-0.215838
-0.204779
-0.188044
-0.177124
-0.164105
-0.152817
-0.141896
-0.13161
-0.121728
-0.112319
-0.103326
-0.0947555
-0.0866623
-0.0788692
-0.0717294
-0.0645589
-0.0582304
-0.283531
-0.234484
-0.228053
-0.212946
-0.201394
-0.183952
-0.173081
-0.160055
-0.148939
-0.138201
-0.128154
-0.118526
-0.109391
-0.100672
-0.0923862
-0.0845478
-0.0770348
-0.0701119
-0.0632016
-0.0570803
-0.282936
-0.236277
-0.225624
-0.209895
-0.197953
-0.179843
-0.169049
-0.156033
-0.145098
-0.134543
-0.124734
-0.115356
-0.106488
-0.0980367
-0.0900271
-0.0824396
-0.0751983
-0.0684963
-0.0618491
-0.0559359
-0.281641
-0.238912
-0.223055
-0.206688
-0.194463
-0.175724
-0.165028
-0.152036
-0.141291
-0.130919
-0.121347
-0.112215
-0.103609
-0.0954196
-0.0876769
-0.0803366
-0.0733606
-0.0668763
-0.0604876
-0.0548049
-0.279665
-0.242297
-0.220449
-0.203323
-0.19093
-0.171598
-0.161019
-0.148063
-0.137514
-0.127325
-0.117989
-0.1091
-0.10075
-0.0928179
-0.0853344
-0.0782382
-0.0715193
-0.0652508
-0.0591183
-0.0536557
-0.277029
-0.246197
-0.217897
-0.199798
-0.187355
-0.167469
-0.157021
-0.144111
-0.133764
-0.123758
-0.114657
-0.106007
-0.0979089
-0.0902298
-0.0829987
-0.076143
-0.0696744
-0.0636181
-0.057734
-0.0524902
-0.273758
-0.250234
-0.21546
-0.196114
-0.183738
-0.163336
-0.153031
-0.140176
-0.130038
-0.120215
-0.111349
-0.102934
-0.0950846
-0.0876535
-0.0806687
-0.0740505
-0.0678244
-0.0619767
-0.0563374
-0.0512991
-0.269892
-0.253935
-0.213164
-0.19227
-0.180076
-0.1592
-0.149048
-0.136257
-0.126332
-0.116693
-0.108061
-0.0998795
-0.0922747
-0.0850872
-0.0783434
-0.0719592
-0.0659688
-0.0603269
-0.0549246
-0.0500845
-0.265504
-0.256786
-0.211002
-0.18827
-0.176364
-0.155059
-0.145068
-0.13235
-0.122643
-0.113189
-0.104791
-0.0968404
-0.0894775
-0.0825295
-0.0760219
-0.0698685
-0.0641066
-0.0586678
-0.0534974
-0.0488448
-0.260722
-0.258325
-0.208942
-0.18412
-0.172599
-0.150912
-0.141091
-0.128452
-0.118969
-0.1097
-0.101537
-0.0938148
-0.0866912
-0.0799788
-0.0737033
-0.0677772
-0.0622376
-0.0569998
-0.0520542
-0.0475814
-0.255735
-0.258214
-0.206935
-0.179833
-0.168777
-0.146755
-0.137112
-0.12456
-0.115306
-0.106225
-0.098296
-0.0908008
-0.0839141
-0.0774339
-0.0713869
-0.0656845
-0.0603613
-0.0553225
-0.0505958
-0.0462948
-0.250797
-0.256303
-0.204927
-0.175422
-0.164895
-0.142586
-0.13313
-0.120673
-0.111652
-0.10276
-0.0950666
-0.0877966
-0.081145
-0.0748936
-0.0690718
-0.0635897
-0.0584776
-0.0536363
-0.0491215
-0.044986
-0.2462
-0.252648
-0.202868
-0.170905
-0.160951
-0.138402
-0.129141
-0.116788
-0.108005
-0.099304
-0.0918465
-0.0848007
-0.0783823
-0.0723569
-0.0667574
-0.061492
-0.0565864
-0.0519407
-0.0476319
-0.043656
-0.242246
-0.24748
-0.20072
-0.1663
-0.156945
-0.134201
-0.125144
-0.112901
-0.104361
-0.0958541
-0.0886339
-0.0818115
-0.0756248
-0.0698228
-0.0644429
-0.0593909
-0.0546876
-0.0502361
-0.0461269
-0.0423056
-0.239204
-0.241146
-0.198455
-0.161623
-0.152878
-0.12998
-0.121136
-0.109011
-0.100719
-0.0924088
-0.0854271
-0.0788276
-0.0728713
-0.0672905
-0.0621278
-0.0572859
-0.0527813
-0.0485221
-0.0446067
-0.0409363
-0.237281
-0.234031
-0.196058
-0.15689
-0.14875
-0.125736
-0.117114
-0.105116
-0.0970761
-0.0889663
-0.0822246
-0.0758477
-0.0701208
-0.0647592
-0.0598115
-0.0551765
-0.0508674
-0.0467989
-0.0430713
-0.0395489
-0.236601
-0.226493
-0.193519
-0.152112
-0.144562
-0.121466
-0.113076
-0.101214
-0.0934312
-0.0855249
-0.079025
-0.0728708
-0.0673725
-0.0622283
-0.0574936
-0.0530625
-0.0489461
-0.0450662
-0.0415209
-0.0381447
-0.23721
-0.218824
-0.190838
-0.147298
-0.140316
-0.117169
-0.10902
-0.0973031
-0.0897823
-0.0820831
-0.0758268
-0.0698958
-0.0646254
-0.0596972
-0.0551736
-0.0509438
-0.0470175
-0.0433241
-0.0399556
-0.0367245
-0.239083
-0.211235
-0.188014
-0.142453
-0.136012
-0.112841
-0.104944
-0.0933808
-0.0861276
-0.0786396
-0.0726291
-0.0669217
-0.0618789
-0.0571655
-0.0528513
-0.0488201
-0.0450819
-0.0415726
-0.038376
-0.0352893
-0.242139
-0.203858
-0.185051
-0.13758
-0.131649
-0.108481
-0.100846
-0.0894459
-0.0824656
-0.0751932
-0.0694307
-0.0639478
-0.0591323
-0.0546327
-0.0505263
-0.0466916
-0.0431396
-0.0398121
-0.0367827
-0.0338396
-0.246259
-0.196764
-0.181949
-0.132678
-0.127228
-0.104086
-0.096724
-0.0854966
-0.0787951
-0.0717427
-0.0662307
-0.0609733
-0.0563852
-0.0520986
-0.0481987
-0.0445583
-0.0411908
-0.0380428
-0.0351768
-0.0323769
-0.251299
-0.189982
-0.178708
-0.127746
-0.122747
-0.0996543
-0.0925758
-0.0815314
-0.0751148
-0.0682872
-0.0630283
-0.0579978
-0.0536372
-0.0495629
-0.0458681
-0.0424202
-0.0392357
-0.036265
-0.0335593
-0.0309031
-0.257097
-0.183508
-0.175324
-0.122779
-0.118206
-0.0951828
-0.0883999
-0.0775487
-0.0714237
-0.0648257
-0.059823
-0.0550207
-0.0508879
-0.0470255
-0.0435348
-0.0402776
-0.0372744
-0.0344788
-0.0319318
-0.0294212
-0.263484
-0.177319
-0.171791
-0.117771
-0.113602
-0.0906694
-0.0841949
-0.0735471
-0.0677211
-0.0613574
-0.0566141
-0.0520417
-0.0481371
-0.0444864
-0.0411986
-0.0381306
-0.0353069
-0.032684
-0.0302948
-0.0279332
-0.270285
-0.171378
-0.168103
-0.112716
-0.108934
-0.0861116
-0.0799597
-0.0695249
-0.0640064
-0.0578817
-0.0534011
-0.0490606
-0.045385
-0.0419457
-0.0388599
-0.0359794
-0.0333335
-0.0308809
-0.0286483
-0.0264391
-0.277327
-0.165642
-0.164251
-0.107605
-0.104198
-0.0815063
-0.075694
-0.0654808
-0.0602789
-0.0543984
-0.0501836
-0.0460773
-0.0426314
-0.0394036
-0.0365188
-0.0338243
-0.0313546
-0.0290702
-0.026992
-0.0249334
-0.284438
-0.16006
-0.160224
-0.10243
-0.0993939
-0.0768497
-0.0713976
-0.061414
-0.0565372
-0.0509079
-0.0469614
-0.043092
-0.0398765
-0.0368602
-0.0341755
-0.0316656
-0.029371
-0.0272543
-0.0253272
-0.0234039
-0.291452
-0.154581
-0.156013
-0.0971792
-0.0945201
-0.072138
-0.0670693
-0.0573249
-0.0527792
-0.0474104
-0.043735
-0.0401045
-0.0371207
-0.0343158
-0.0318307
-0.0295039
-0.0273837
-0.0254355
-0.0236579
-0.0218343
-0.298208
-0.14915
-0.151604
-0.0918429
-0.0895766
-0.0673697
-0.0627054
-0.0532134
-0.0490051
-0.0439039
-0.0405069
-0.0371133
-0.0343644
-0.03177
-0.0294856
-0.0273397
-0.0253939
-0.023615
-0.0219874
-0.0202192
-0.304557
-0.143716
-0.146988
-0.0864085
-0.0845622
-0.0625473
-0.0583023
-0.049074
-0.0452241
-0.0403801
-0.0372821
-0.0341161
-0.0316085
-0.0292229
-0.0271412
-0.025174
-0.0234033
-0.0217926
-0.0203068
-0.0185854
-0.310356
-0.138224
-0.142155
-0.0808642
-0.0794716
-0.0576723
-0.0538677
-0.044888
-0.0414588
-0.0368251
-0.0340648
-0.0311119
-0.0288533
-0.026676
-0.0247971
-0.0230083
-0.0214138
-0.0199687
-0.0185905
-0.0169893
-0.315476
-0.132623
-0.137096
-0.0752024
-0.0742984
-0.0527255
-0.0494379
-0.0406256
-0.0377329
-0.0332333
-0.0308478
-0.0281085
-0.0260962
-0.0241342
-0.02245
-0.0208445
-0.0194258
-0.0181371
-0.0168546
-0.0154199
-0.319797
-0.126863
-0.131804
-0.0694167
-0.0690535
-0.0476423
-0.045075
-0.0362754
-0.0340259
-0.0296386
-0.0276008
-0.0251241
-0.0233355
-0.0215949
-0.0201036
-0.0186827
-0.0174381
-0.0162954
-0.0151143
-0.0138611
-0.323213
-0.120895
-0.12627
-0.0634852
-0.0637972
-0.042332
-0.0408026
-0.0319007
-0.0302301
-0.0261091
-0.0243281
-0.0221459
-0.0205773
-0.0190569
-0.0177602
-0.0165234
-0.01545
-0.0144465
-0.0133766
-0.0123025
-0.325626
-0.114675
-0.120483
-0.0573405
-0.0586338
-0.0368026
-0.0364892
-0.0276133
-0.0263421
-0.0226089
-0.0210483
-0.0191662
-0.017824
-0.0165213
-0.0154209
-0.0143673
-0.0134621
-0.0125951
-0.0116427
-0.0107398
-0.326956
-0.108168
-0.114447
-0.0508781
-0.0535893
-0.0313235
-0.0319274
-0.0234021
-0.0224002
-0.0191113
-0.0177729
-0.0161835
-0.0150762
-0.0139896
-0.0130866
-0.0122154
-0.0114757
-0.0107443
-0.00991244
-0.00917249
-0.327132
-0.101341
-0.108214
-0.044078
-0.0484157
-0.0260169
-0.0271922
-0.0192245
-0.0184354
-0.0156027
-0.0145056
-0.0132
-0.0123338
-0.0114635
-0.0107582
-0.0100685
-0.00949242
-0.00889658
-0.00818572
-0.0076019
-0.326095
-0.0941374
-0.101888
-0.0371794
-0.0428704
-0.0208248
-0.0223447
-0.0150478
-0.0144653
-0.0120798
-0.0112466
-0.0102187
-0.00959736
-0.00894421
-0.00843689
-0.00792807
-0.00751411
-0.00705336
-0.00646309
-0.00603024
-0.323798
-0.0864266
-0.0955071
-0.0302098
-0.0370104
-0.0156804
-0.0174286
-0.010853
-0.0104983
-0.00854446
-0.00799472
-0.00724233
-0.00686772
-0.00643307
-0.00612384
-0.00579529
-0.00554238
-0.00521607
-0.0047456
-0.00445984
-0.320206
-0.0780555
-0.0888616
-0.0233824
-0.0309127
-0.0105377
-0.0124702
-0.00663138
-0.00653733
-0.00500064
-0.00474934
-0.00427304
-0.00414624
-0.00393126
-0.00382034
-0.00367165
-0.00357875
-0.00338606
-0.00303471
-0.00289298
-0.315294
-0.0691094
-0.0818858
-0.0166392
-0.0246338
-0.0053681
-0.0074861
-0.00238094
-0.00258273
-0.00145278
-0.0015106
-0.00131258
-0.00143442
-0.00144012
-0.00152778
-0.00155858
-0.00162466
-0.00156475
-0.00133208
-0.00133201
-0.309053
-0.0601063
-0.0742097
-0.00990146
-0.0182117
-0.000154855
-0.00248558
0.00189653
0.00136592
0.00209506
0.00172062
0.00163746
0.00126614
0.00103892
0.000752392
0.00054244
0.000318419
0.000246327
0.000360432
0.000220524
-0.301511
-0.050853
-0.0659901
-0.00311405
-0.0116736
0.00511069
0.00252566
0.00619717
0.00530885
0.00563932
0.00494287
0.00457551
0.00395381
0.00350436
0.00301869
0.00262991
0.00224899
0.00204544
0.00204067
0.001762
-0.292759
-0.0411977
-0.0573116
0.00375524
-0.00503936
0.0104317
0.00754426
0.0105162
0.00924572
0.00917689
0.0081543
0.00749994
0.00662692
0.00595461
0.00526957
0.00470234
0.00416548
0.00383056
0.00370595
0.00329001
-0.282877
-0.031049
-0.0482354
0.0107245
0.0016761
0.0158077
0.0125678
0.0148485
0.0131755
0.0127049
0.0113529
0.010409
0.00928376
0.00838804
0.00750351
0.00675827
0.00606625
0.00559932
0.00535303
0.00480239
-0.27171
-0.02055
-0.0388054
0.0178031
0.0084607
0.0212354
0.0175942
0.0191889
0.0170965
0.0162208
0.0145364
0.0133008
0.0119226
0.010803
0.00971896
0.00879627
0.00794973
0.00734936
0.0069784
0.00629635
-0.258897
-0.0100224
-0.0290593
0.0249953
0.0153043
0.0267102
0.0226212
0.0235324
0.0210066
0.0197217
0.0177025
0.0161734
0.0145416
0.0131977
0.0119144
0.0108149
0.00981444
0.00907867
0.0085791
0.00776712
-0.244713
0.000706742
-0.019027
0.0323013
0.0221979
0.0322259
0.0276462
0.027874
0.024903
0.023205
0.0208488
0.0190248
0.0171388
0.0155706
0.0140882
0.0128128
0.0116589
0.0107858
0.0101533
0.00920851
-0.229252
0.0116899
-0.00873615
0.0397183
0.0291331
0.0377758
0.0326661
0.0322091
0.028783
0.0266679
0.0239728
0.0218527
0.0197125
0.0179198
0.0162387
0.0147881
0.0134815
0.0124694
0.0117002
0.010618
-0.212589
0.0229487
0.00178728
0.0472404
0.0361015
0.0433524
0.0376773
0.0365326
0.032643
0.0301075
0.027072
0.024655
0.0222605
0.0202435
0.0183641
0.0167393
0.0152806
0.0141279
0.0132194
0.0120039
-0.194797
0.0344873
0.0125181
0.0548596
0.0430948
0.048948
0.0426756
0.0408399
0.0364798
0.0335207
0.0301438
0.0274294
0.024781
0.02254
0.0204629
0.0186647
0.0170548
0.0157598
0.01471
0.013382
-0.175954
0.0462998
0.0234315
0.062566
0.0501044
0.0545542
0.0476564
0.0451261
0.0402896
0.0369046
0.0331854
0.0301737
0.0272719
0.0248073
0.0225331
0.0205631
0.0188039
0.0173649
0.0161693
0.014749
-0.156137
0.0583732
0.0345027
0.070348
0.0571213
0.0601628
0.0526147
0.0493861
0.0440685
0.0402557
0.0361941
0.0328853
0.029731
0.0270435
0.0245735
0.0224345
0.0205293
0.0189435
0.0175875
0.0160482
-0.135429
0.0706896
0.0457064
0.0781929
0.0641361
0.065765
0.057545
0.0536151
0.0478126
0.0435709
0.039167
0.035562
0.0321561
0.0292466
0.026583
0.0242796
0.0222328
0.0204929
0.01894
0.0171806
-0.113913
0.0832266
0.0570171
0.0860866
0.0711388
0.071352
0.0624414
0.0578079
0.0515177
0.0468467
0.0421014
0.0382011
0.0345451
0.031415
0.0285609
0.0260988
0.0239131
0.0220021
0.020194
0.0181227
-0.0916756
0.0959582
0.068409
0.0940142
0.0781191
0.0769148
0.067298
0.0619592
0.0551797
0.0500796
0.0449941
0.0408002
0.0368955
0.0335469
0.0305067
0.0278915
0.025564
0.0234542
0.0213463
0.0190598
-0.0688069
0.108856
0.0798554
0.10196
0.0850661
0.0824443
0.0721081
0.0660638
0.0587942
0.0532662
0.0478423
0.0433567
0.0392053
0.035641
0.0324197
0.0296544
0.0271748
0.0248409
0.0224594
0.0202677
-0.0453977
0.121888
0.0913295
0.109907
0.0919688
0.0879311
0.0768654
0.0701162
0.0623569
0.0564028
0.0506429
0.0458678
0.0414723
0.037696
0.0342984
0.0313824
0.0287366
0.026173
0.0236137
0.0217892
-0.0215407
0.135021
0.102804
0.117838
0.0988154
0.0933658
0.081563
0.0741109
0.0658633
0.0594858
0.0533928
0.048331
0.0436945
0.0397105
0.0361406
0.0330704
0.0302475
0.0274711
0.0248001
0.0233435
0.00266996
0.148219
0.114251
0.125737
0.105594
0.098739
0.0861938
0.0780424
0.0693089
0.0625114
0.0560888
0.0507436
0.0458698
0.0416827
0.0379433
0.0347147
0.0317117
0.0287564
0.0260493
0.0247648
0.0271394
0.161447
0.125642
0.133584
0.112292
0.104041
0.0907508
0.081905
0.0726891
0.0654761
0.0587278
0.0531031
0.0479963
0.0436106
0.0397035
0.0363134
0.0331368
0.0300414
0.0273295
0.0260626
0.0517724
0.174667
0.136949
0.141362
0.118898
0.109262
0.0952269
0.085693
0.0759994
0.0683759
0.0613067
0.0554068
0.0500718
0.045492
0.0414184
0.0378665
0.0345282
0.0313217
0.0286004
0.0272746
0.0764733
0.187839
0.148144
0.149052
0.125398
0.114393
0.0996148
0.0894009
0.0792352
0.0712072
0.0638223
0.0576523
0.0520941
0.0473245
0.043086
0.0393748
0.0358889
0.0325903
0.0298424
0.0284222
0.101147
0.200923
0.159197
0.156636
0.131781
0.119423
0.103907
0.0930228
0.082392
0.0739663
0.0662716
0.059837
0.0540611
0.0491057
0.0447045
0.0408387
0.0372182
0.0338373
0.0310477
0.0295216
0.125699
0.213881
0.170081
0.164095
0.138032
0.124343
0.108097
0.0965532
0.0854651
0.0766495
0.0686514
0.0619584
0.0559703
0.0508334
0.0462727
0.0422585
0.0385145
0.0350557
0.0322132
0.0305774
0.150036
0.226671
0.180766
0.17141
0.144139
0.129144
0.112177
0.0999864
0.0884501
0.079253
0.0709588
0.064014
0.0578195
0.0525055
0.0477893
0.0436334
0.0397746
0.0362407
0.0333392
0.0315923
0.174065
0.239254
0.191225
0.178563
0.15009
0.133816
0.11614
0.103317
0.0913425
0.0817734
0.0731907
0.0660011
0.0596064
0.0541202
0.0492532
0.0449622
0.0409957
0.0373886
0.0344244
0.0325662
0.197696
0.25159
0.201429
0.185535
0.155872
0.13835
0.119978
0.106539
0.0941379
0.0842069
0.0753442
0.0679174
0.0613287
0.0556755
0.050663
0.0462436
0.0421754
0.0384972
0.0354687
0.0334984
0.22084
0.263638
0.21135
0.19231
0.161473
0.142736
0.123686
0.109648
0.0968319
0.0865501
0.0774164
0.0697603
0.0629843
0.0571698
0.0520173
0.0474757
0.0433113
0.0395643
0.0364707
0.0343882
0.243411
0.27536
0.220963
0.198868
0.166879
0.146965
0.127255
0.112637
0.0994203
0.0887997
0.0794045
0.0715274
0.0645712
0.0586014
0.0533148
0.048657
0.0444016
0.0405883
0.0374294
0.0352346
0.265325
0.286717
0.230241
0.205194
0.172079
0.15103
0.13068
0.115503
0.101899
0.0909522
0.0813057
0.0732165
0.0660873
0.0599686
0.0545538
0.0497858
0.0454444
0.0415678
0.0383437
0.036037
0.286501
0.297673
0.239158
0.211269
0.177062
0.15492
0.133954
0.11824
0.104264
0.0930045
0.0831173
0.0748252
0.0675307
0.0612697
0.0557329
0.0508606
0.0464381
0.0425011
0.0392123
0.0367948
0.306862
0.30819
0.247689
0.217079
0.181815
0.158627
0.137071
0.120842
0.106512
0.0949534
0.0848368
0.0763514
0.0688995
0.0625032
0.0568508
0.05188
0.0473813
0.043387
0.0400342
0.0375076
0.326332
0.318235
0.255812
0.222607
0.186329
0.162145
0.140024
0.123306
0.108638
0.096796
0.0864616
0.0777929
0.0701919
0.0636676
0.0579059
0.0528425
0.0482727
0.0442241
0.0408085
0.0381752
0.344841
0.327772
0.263502
0.227838
0.190592
0.165465
0.142807
0.125628
0.110639
0.0985295
0.0879894
0.0791478
0.0714063
0.0647613
0.0588969
0.0537469
0.0491109
0.0450111
0.0415343
0.0387973
0.362321
0.33677
0.270738
0.232758
0.194595
0.168579
0.145417
0.127802
0.112513
0.100151
0.0894179
0.0804142
0.0725411
0.0657831
0.0598226
0.054592
0.0498946
0.0457469
0.0422109
0.039374
0.378709
0.3452
0.2775
0.237354
0.198328
0.171482
0.147846
0.129824
0.114255
0.101658
0.0907451
0.0815904
0.0735946
0.0667315
0.0606819
0.0553766
0.0506228
0.0464304
0.0428376
0.0399052
0.393946
0.353031
0.283769
0.241613
0.201782
0.174166
0.150091
0.131692
0.115863
0.103048
0.0919689
0.0826745
0.0745656
0.0676054
0.0614735
0.0560997
0.0512943
0.0470605
0.0434137
0.040391
0.407977
0.360238
0.289526
0.245524
0.20495
0.176626
0.152147
0.133402
0.117333
0.104319
0.0930875
0.0836652
0.0754526
0.0684035
0.0621964
0.0567603
0.0519081
0.0476364
0.0439388
0.0408316
0.420752
0.366797
0.294756
0.249075
0.207823
0.178857
0.154009
0.13495
0.118664
0.105469
0.0940992
0.084561
0.0762544
0.0691249
0.0628498
0.0573575
0.0524633
0.0481572
0.0444125
0.0412272
0.432225
0.372684
0.299443
0.252257
0.210394
0.180852
0.155674
0.136333
0.119853
0.106496
0.0950024
0.0853605
0.07697
0.0697686
0.0634328
0.0578904
0.052959
0.0486221
0.0448344
0.0415779
0.442356
0.377879
0.303575
0.255061
0.212658
0.182608
0.157138
0.137549
0.120898
0.107399
0.0957958
0.0860627
0.0775984
0.0703336
0.0639446
0.0583584
0.0533945
0.0490305
0.0452042
0.041884
0.451107
0.382366
0.307138
0.257479
0.214609
0.18412
0.158399
0.138596
0.121797
0.108175
0.0964781
0.0866664
0.0781386
0.0708194
0.0643845
0.0587607
0.053769
0.0493816
0.0455215
0.0421458
0.458448
0.386128
0.310123
0.259504
0.216242
0.185386
0.159454
0.139472
0.122549
0.108823
0.0970483
0.0871709
0.0785899
0.0712252
0.064752
0.0590969
0.0540821
0.0496751
0.0457863
0.0423635
0.464352
0.389153
0.312521
0.261131
0.217553
0.186402
0.1603
0.140174
0.123152
0.109344
0.0975055
0.0875753
0.0789517
0.0715504
0.0650465
0.0593663
0.0543331
0.0499104
0.0459983
0.0425373
0.468799
0.391431
0.314326
0.262355
0.218539
0.187165
0.160936
0.140702
0.123605
0.109735
0.0978489
0.0878791
0.0792234
0.0717947
0.0652677
0.0595687
0.0545217
0.0500871
0.0461573
0.0426675
0.471772
0.392954
0.315532
0.263173
0.219198
0.187676
0.161361
0.141054
0.123907
0.109995
0.0980781
0.0880818
0.0794047
0.0719577
0.0654153
0.0597038
0.0546475
0.0502051
0.0462634
0.0427541
0.47326
0.393716
0.316135
0.263582
0.219528
0.187931
0.161574
0.14123
0.124059
0.110126
0.0981927
0.0881832
0.0794954
0.0720392
0.0654891
0.0597713
0.0547105
0.050264
0.0463164
0.0427974
0.473259
0.393716
0.316135
0.263582
0.219527
0.18793
0.161573
0.14123
0.124058
0.110126
0.0981926
0.088183
0.0794952
0.0720391
0.065489
0.0597712
0.0547104
0.050264
0.0463163
0.0427974
0.471769
0.392952
0.31553
0.263172
0.219197
0.187675
0.16136
0.141053
0.123907
0.109995
0.0980776
0.0880814
0.0794043
0.0719573
0.065415
0.0597035
0.0546473
0.0502048
0.0462632
0.042754
0.468794
0.391428
0.314324
0.262353
0.218538
0.187164
0.160935
0.1407
0.123604
0.109734
0.0978481
0.0878783
0.0792227
0.0717941
0.0652671
0.0595682
0.0545212
0.0500867
0.046157
0.0426672
0.464346
0.38915
0.312518
0.261128
0.217551
0.186399
0.160298
0.140172
0.12315
0.109342
0.0975043
0.0875743
0.0789507
0.0715496
0.0650457
0.0593656
0.0543325
0.0499098
0.0459978
0.0425369
0.45844
0.386123
0.310118
0.2595
0.216239
0.185383
0.159451
0.139469
0.122547
0.108822
0.0970468
0.0871695
0.0785887
0.0712241
0.064751
0.059096
0.0540813
0.0496744
0.0457856
0.0423629
0.451098
0.38236
0.307132
0.257474
0.214605
0.184116
0.158396
0.138593
0.121795
0.108173
0.0964762
0.0866648
0.0781371
0.0708181
0.0643833
0.0587597
0.0537681
0.0493808
0.0455207
0.0421451
0.442345
0.377872
0.303568
0.255055
0.212653
0.182603
0.157134
0.137546
0.120895
0.107396
0.0957936
0.0860607
0.0775966
0.0703321
0.0639432
0.0583571
0.0533934
0.0490295
0.0452032
0.0418832
0.432213
0.372675
0.299436
0.252251
0.210389
0.180847
0.155669
0.136329
0.11985
0.106493
0.0949999
0.0853582
0.076968
0.0697668
0.0634312
0.057889
0.0529577
0.048621
0.0448334
0.0415769
0.420738
0.366787
0.294747
0.249068
0.207816
0.178851
0.154004
0.134945
0.11866
0.105466
0.0940963
0.0845584
0.0762522
0.0691229
0.062848
0.0573558
0.0524618
0.0481559
0.0444113
0.0412261
0.407961
0.360228
0.289516
0.245516
0.204943
0.17662
0.152141
0.133397
0.117329
0.104316
0.0930843
0.0836624
0.0754501
0.0684013
0.0621944
0.0567585
0.0519065
0.047635
0.0439375
0.0408304
0.393928
0.35302
0.283758
0.241605
0.201774
0.17416
0.150085
0.131687
0.115858
0.103044
0.0919654
0.0826714
0.0745628
0.0676029
0.0614712
0.0560977
0.0512925
0.0470589
0.0434122
0.0403897
0.378689
0.345187
0.277488
0.237345
0.198319
0.171475
0.14784
0.129819
0.11425
0.101654
0.0907412
0.0815869
0.0735916
0.0667288
0.0606794
0.0553744
0.0506208
0.0464286
0.0428359
0.0399037
0.362299
0.336757
0.270725
0.232748
0.194585
0.168571
0.14541
0.127795
0.112507
0.100146
0.0894138
0.0804105
0.0725378
0.0657802
0.05982
0.0545896
0.0498925
0.045745
0.0422092
0.0393724
0.344817
0.327757
0.263487
0.227826
0.190582
0.165456
0.1428
0.125621
0.110634
0.0985243
0.0879849
0.0791438
0.0714028
0.0647582
0.0588941
0.0537444
0.0491086
0.045009
0.0415325
0.0387957
0.326307
0.318219
0.255796
0.222594
0.186318
0.162136
0.140015
0.123299
0.108632
0.0967906
0.0864568
0.0777887
0.0701881
0.0636642
0.0579029
0.0528398
0.0482703
0.0442219
0.0408065
0.0381734
0.306835
0.308173
0.247673
0.217066
0.181803
0.158617
0.137062
0.120835
0.106505
0.0949476
0.0848316
0.0763469
0.0688955
0.0624997
0.0568476
0.0518771
0.0473788
0.0433847
0.0400321
0.0375057
0.286473
0.297655
0.239141
0.211256
0.177049
0.154909
0.133945
0.118231
0.104257
0.0929983
0.0831119
0.0748204
0.0675264
0.0612659
0.0557296
0.0508576
0.0464354
0.0424987
0.03921
0.0367928
0.265295
0.286698
0.230223
0.205179
0.172066
0.151018
0.13067
0.115494
0.101892
0.0909457
0.0813
0.0732115
0.0660828
0.0599646
0.0545503
0.0497826
0.0454415
0.0415652
0.0383413
0.0360349
0.243378
0.275339
0.220944
0.198853
0.166865
0.146954
0.127245
0.112628
0.0994125
0.0887929
0.0793985
0.0715222
0.0645665
0.0585973
0.0533111
0.0486537
0.0443986
0.0405856
0.037427
0.0352324
0.220805
0.263616
0.21133
0.192293
0.161458
0.142723
0.123675
0.109638
0.0968236
0.086543
0.0774102
0.0697548
0.0629795
0.0571655
0.0520135
0.0474722
0.0433082
0.0395614
0.0364681
0.0343858
0.197659
0.251567
0.201407
0.185518
0.155857
0.138337
0.119967
0.106529
0.0941293
0.0841994
0.0753377
0.0679116
0.0613236
0.055671
0.050659
0.04624
0.0421722
0.0384942
0.035466
0.033496
0.174026
0.23923
0.191202
0.178545
0.150074
0.133803
0.116128
0.103307
0.0913335
0.0817656
0.0731839
0.0659952
0.0596011
0.0541155
0.049249
0.0449585
0.0409924
0.0373856
0.0344217
0.0325636
0.149995
0.226646
0.180742
0.171391
0.144122
0.12913
0.112164
0.0999757
0.0884408
0.079245
0.0709517
0.0640078
0.0578141
0.0525007
0.047785
0.0436295
0.0397711
0.0362376
0.0333363
0.0315897
0.125657
0.213855
0.170056
0.164075
0.138014
0.124328
0.108084
0.0965421
0.0854555
0.0766411
0.0686441
0.061952
0.0559647
0.0508284
0.0462683
0.0422545
0.0385109
0.0350525
0.0322103
0.0305747
0.101103
0.200896
0.159171
0.156615
0.131762
0.119407
0.103894
0.0930113
0.082382
0.0739577
0.066264
0.0598304
0.0540553
0.0491006
0.0447
0.0408346
0.0372146
0.0338339
0.0310446
0.0295189
0.0764268
0.18781
0.148117
0.149031
0.125379
0.114376
0.0996009
0.089389
0.0792249
0.0711983
0.0638145
0.0576455
0.0520882
0.0473193
0.0430813
0.0393706
0.0358851
0.0325869
0.0298392
0.0284194
0.0517238
0.174637
0.136921
0.14134
0.118878
0.109245
0.0952125
0.0856807
0.0759888
0.0683667
0.0612987
0.0553999