/*--------------------------------*- C++ -*----------------------------------*\
  =========                 |
  \\      /  F ield         | OpenFOAM: The Open Source CFD Toolbox
   \\    /   O peration     | Website:  https://openfoam.org
    \\  /    A nd           | Version:  7
     \\/     M anipulation  |
\*---------------------------------------------------------------------------*/
FoamFile
{
    version     2.0;
    format      ascii;
    class       surfaceScalarField;
    location    "105";
    object      phi;
}
// * * * * * * * * * * * * * * * * * * * * * * * * * * * * * * * * * * * * * //

dimensions      [0 3 -1 0 0 0 0];

internalField   nonuniform List<scalar> 
53160
(
-0.000132547
0.00735809
-0.00722554
1.24896e-06
0.00243595
-0.00256974
0.000320855
-0.00617174
0.00585213
0.000571446
-0.0118269
0.0115763
0.000608995
-0.0146925
0.014655
0.000614809
-0.0155755
0.0155697
0.00128477
-0.0121916
0.0115216
0.00249136
-0.00368332
0.00247674
0.00364718
0.00479519
-0.00595101
0.00457007
0.0108093
-0.0117321
0.00523619
0.0135531
-0.0142192
0.00542965
0.0155879
-0.0157813
0.00537306
0.0174569
-0.0174003
0.00580757
0.0143772
-0.0148117
0.00697164
0.00542892
-0.00659299
0.00860301
-0.00507967
0.0034483
0.00986412
-0.0110712
0.00981007
0.0104161
-0.0148752
0.0143232
0.0107605
-0.0187963
0.0184519
-0.0187417
0.0181131
0.0113891
-0.000116488
0.00747458
4.37982e-05
0.00227566
0.000377721
-0.00650566
0.000632781
-0.0120819
0.000677125
-0.0147369
0.0006257
-0.0155241
0.00116001
-0.0127259
0.00229849
-0.00482179
0.00346547
0.0036282
0.00445844
0.00981629
0.005164
0.0128475
0.00536527
0.0153866
0.00539526
0.017427
0.00601897
0.0137535
0.00727254
0.00417535
0.00883109
-0.00663823
0.0100499
-0.01229
0.0106052
-0.0154305
0.0108739
-0.019065
-0.0192993
0.0114316
-9.97004e-05
0.00757428
8.62485e-05
0.00208971
0.000438986
-0.0068584
0.000699773
-0.0123427
0.000756298
-0.0147934
0.000663985
-0.0154318
0.00106508
-0.013127
0.00212518
-0.0058819
0.00330212
0.00245127
0.00436065
0.00875776
0.00509976
0.0121084
0.00530771
0.0151786
0.00545217
0.0172825
0.00630785
0.0128978
0.00767519
0.00280802
0.00911595
-0.00807898
0.0102393
-0.0134133
0.0108155
-0.0160066
0.010974
-0.0192236
-0.019723
0.0113977
-8.21089e-05
0.00765639
0.000131143
0.00187646
0.000504279
-0.00723153
0.000771791
-0.0126102
0.000843862
-0.0148655
0.000727035
-0.015315
0.00100389
-0.0134038
0.00197953
-0.00685754
0.00316311
0.00126769
0.0042778
0.00764306
0.00504247
0.0113438
0.00525993
0.0149612
0.00554019
0.0170022
0.00663484
0.0118032
0.00813098
0.00131187
0.00944553
-0.00939353
0.010425
-0.0143928
0.0110262
-0.0166079
0.0110501
-0.0192474
-0.0199374
0.0112645
-6.36117e-05
0.00772
0.000178783
0.00163406
0.000573144
-0.00762589
0.00084822
-0.0128853
0.000937263
-0.0149545
0.000812109
-0.0151898
0.000980011
-0.0135717
0.00186814
-0.00774567
0.00305327
8.25568e-05
0.00420968
0.00648666
0.00498914
0.0105643
0.00522567
0.0147247
0.00565655
0.0165713
0.00696925
0.0104905
0.00859218
-0.000311057
0.00980038
-0.0106017
0.0106074
-0.0151999
0.0112125
-0.0172129
0.0110971
-0.019132
-0.0198721
0.0110318
-4.40817e-05
0.00776408
0.000229299
0.00136068
0.000645054
-0.00804165
0.000928419
-0.0131687
0.00103417
-0.0150603
0.000916208
-0.0150719
0.000994189
-0.0136497
0.00179268
-0.00854416
0.00297401
-0.00109878
0.00415407
0.0053066
0.00493597
0.0097824
0.00520739
0.0144532
0.00580958
0.0159692
0.00731722
0.00898282
0.00903923
-0.00203307
0.0101605
-0.011723
0.0107936
-0.015833
0.0113544
-0.0177737
0.0111198
-0.0188974
-0.0194931
0.0107408
-2.33159e-05
0.0077874
0.000282762
0.00105461
0.000719421
-0.00847831
0.00101166
-0.0134609
0.00113258
-0.0151812
0.00103569
-0.014975
0.00104355
-0.0136576
0.00174917
-0.00924978
0.0029208
-0.00227041
0.00410644
0.00412096
0.0048785
0.00901033
0.00520492
0.0141268
0.00601685
0.0151572
0.00771133
0.00728833
0.00947713
-0.00379886
0.0105082
-0.0127541
0.01099
-0.0163147
0.011445
-0.0182287
0.0111324
-0.0185848
-0.0188344
0.0104737
1.29862e-07
0.00778727
0.000339203
0.000715532
0.000795613
-0.00893472
0.00109708
-0.0137624
0.0012309
-0.015315
0.00116595
-0.01491
0.00112301
-0.0136146
0.00173018
-0.00985695
0.00288383
-0.00342406
0.00405958
0.00294521
0.00481053
0.00825938
0.00521618
0.0137212
0.00628854
0.0140849
0.00816963
0.00540725
0.00991049
-0.00553972
0.0108281
-0.0136718
0.0111933
-0.0166799
0.0114894
-0.0185248
0.0111531
-0.0182485
-0.0180095
0.0103282
2.15008e-05
0.00776577
0.000398579
0.000338454
0.00087297
-0.00940911
0.00118367
-0.0140731
0.00132802
-0.0154594
0.00130157
-0.0148836
0.00122711
-0.0135402
0.00172834
-0.0103582
0.00284903
-0.00454474
0.00400288
0.00179136
0.00472383
0.00753842
0.00524047
0.0132045
0.00661815
0.0127072
0.00867177
0.00335363
0.0103276
-0.0071955
0.0111075
-0.0144517
0.011387
-0.0169594
0.011498
-0.0186358
0.0111947
-0.0179452
-0.0171957
0.0103809
4.53454e-05
0.00772042
0.000460796
-7.69967e-05
0.000950813
-0.00989912
0.00127034
-0.0143926
0.00142332
-0.0156124
0.00143702
-0.0148973
0.0013513
-0.0134544
0.00173987
-0.0107467
0.00280048
-0.00560535
0.00392151
0.00067033
0.00460973
0.0068502
0.00528358
0.0125307
0.00699408
0.0109967
0.00917717
0.00117054
0.010705
-0.00872331
0.0113367
-0.0150835
0.011546
-0.0171687
0.0114875
-0.0185773
0.0112574
-0.017715
-0.0165813
0.010643
7.05525e-05
0.00764987
0.00052564
-0.000532084
0.00102844
-0.0104019
0.00135597
-0.0147201
0.00151649
-0.0157729
0.00156759
-0.0149484
0.00149173
-0.0133786
0.00176562
-0.0110206
0.00272497
-0.0065647
0.00379729
-0.000401993
0.00446231
0.00618518
0.00536035
0.0116327
0.00741219
0.00894485
0.00965299
-0.00107026
0.0110201
-0.0100904
0.0115083
-0.0155717
0.0116464
-0.0173068
0.0114813
-0.0184122
0.0113343
-0.017568
-0.0162759
0.0110289
9.68672e-05
0.007553
0.000592765
-0.00102798
0.00110515
-0.0109143
0.00143951
-0.0150545
0.00160727
-0.0159406
0.00169008
-0.0150312
0.00164351
-0.013332
0.00181052
-0.0111876
0.0026185
-0.00737268
0.00361253
-0.00139603
0.00428465
0.00551307
0.00549304
0.0104243
0.00786999
0.0065679
0.0100747
-0.00327501
0.0112563
-0.0112721
0.0116142
-0.0159295
0.0116785
-0.017371
0.0114966
-0.0182304
0.0114221
-0.0174935
-0.0162441
0.0113903
0.000124012
0.00742899
0.00066168
-0.00156565
0.00118021
-0.0114328
0.00152003
-0.0153943
0.00169519
-0.0161158
0.00180305
-0.0151391
0.0017999
-0.0133289
0.00188193
-0.0112697
0.0024913
-0.00798205
0.00336439
-0.00226911
0.00410184
0.00477561
0.00570965
0.00881645
0.00834667
0.00393088
0.0104209
-0.00534921
0.011402
-0.0122531
0.0116462
-0.0161737
0.0116545
-0.0173793
0.0115266
-0.0181025
0.0115172
-0.0174841
-0.0163637
0.0116368
0.000151624
0.00727736
0.000731742
-0.00214577
0.00125293
-0.011954
0.00159675
-0.0157381
0.00177939
-0.0162984
0.00190663
-0.0152663
0.00195335
-0.0133756
0.00198699
-0.0113033
0.00237584
-0.0083709
0.00308451
-0.00297779
0.003978
0.00388213
0.00604192
0.00675254
0.00880711
0.00116568
0.010667
-0.00720915
0.0114495
-0.0130356
0.0116025
-0.0163267
0.0115978
-0.0173747
0.01154
-0.0180447
0.0116009
-0.0175449
-0.0165532
0.0117904
0.000179256
0.00709811
0.000802169
-0.00276868
0.00132262
-0.0124745
0.00166899
-0.0160845
0.00185884
-0.0164883
0.00200196
-0.0154094
0.00209776
-0.0134714
0.00212844
-0.011334
0.00232295
-0.00856541
0.00286672
-0.00352156
0.00401856
0.00273029
0.0065027
0.0042684
0.0092103
-0.00154192
0.0107942
-0.00879301
0.0113985
-0.0136399
0.0114944
-0.0164226
0.0115195
-0.0173998
0.0115163
-0.0180415
0.0116506
-0.0176792
-0.0168176
0.011915
0.000206409
0.0068917
0.000872069
-0.00343434
0.00138868
-0.0129911
0.00173618
-0.016432
0.0019325
-0.0166846
0.00209032
-0.0155672
0.00222954
-0.0136106
0.00230057
-0.011405
0.00238771
-0.00865254
0.0028511
-0.00398495
0.00432091
0.00126048
0.00705076
0.00153855
0.00950762
-0.00399877
0.0107931
-0.0100785
0.0112581
-0.0141049
0.0113411
-0.0165055
0.0114132
-0.017472
0.0114642
-0.0180924
0.0116646
-0.0178796
-0.017175
0.0120219
0.000232581
0.00665912
0.000940499
-0.00414226
0.00145054
-0.0135011
0.00179781
-0.0167793
0.00199963
-0.0168864
0.00217225
-0.0157399
0.00234752
-0.0137859
0.00248829
-0.0115458
0.00259589
-0.00876014
0.00313126
-0.00452033
0.00487797
-0.000486231
0.0075766
-0.00116008
0.00965533
-0.0060775
0.010669
-0.0110922
0.0110481
-0.014484
0.0111569
-0.0166143
0.0112782
-0.0175933
0.0113996
-0.0182138
0.0116572
-0.0181372
-0.0176103
0.0120925
0.000257325
0.00640179
0.00100652
-0.00489145
0.00150773
-0.0140023
0.00185346
-0.017125
0.00205984
-0.0170928
0.00224733
-0.0159273
0.00245246
-0.013991
0.002672
-0.0117653
0.00291104
-0.00899918
0.00364864
-0.00525792
0.00553359
-0.00237118
0.00795272
-0.00357922
0.00963194
-0.00775672
0.0104441
-0.0119043
0.0107931
-0.0148331
0.0109508
-0.0167719
0.0111263
-0.0177688
0.0113201
-0.0184076
0.0116289
-0.018446
-0.0180997
0.0121183
0.000280314
0.00612148
0.00106924
-0.00568038
0.00155989
-0.014493
0.00190283
-0.0174679
0.00211294
-0.0173029
0.00231462
-0.016129
0.00254609
-0.0142225
0.00283711
-0.0120564
0.00324936
-0.00941143
0.00420736
-0.00621592
0.00606708
-0.0042309
0.00810213
-0.00561427
0.00945673
-0.00911132
0.0101545
-0.0126021
0.0105161
-0.0151947
0.0107324
-0.0169882
0.0109652
-0.0180016
0.011221
-0.0186635
0.0115772
-0.0188022
-0.0186295
0.0121071
0.0003014
0.00582008
0.00112791
-0.00650689
0.00160673
-0.0149718
0.00194572
-0.0178069
0.00215887
-0.0175161
0.0023734
-0.0163436
0.00262938
-0.0144784
0.00297869
-0.0124057
0.00353399
-0.00996672
0.00462559
-0.00730752
0.00634707
-0.00595238
0.00803984
-0.00730704
0.00918455
-0.010256
0.00983854
-0.0132561
0.0102344
-0.0155906
0.0105098
-0.0172635
0.0107957
-0.0182876
0.0111042
-0.0189719
0.0115048
-0.0192028
-0.0191872
0.0120624
0.000320659
0.00549942
0.00118189
-0.00736811
0.00164809
-0.015438
0.00198203
-0.0181409
0.00219756
-0.0177316
0.00242341
-0.0165694
0.00270197
-0.014757
0.00309661
-0.0128003
0.00373506
-0.0106052
0.00485298
-0.00842544
0.00640041
-0.00749982
0.00785035
-0.00875698
0.0088772
-0.0112829
0.00952409
-0.013903
0.00995799
-0.0160245
0.010286
-0.0175916
0.0106189
-0.0186204
0.0109721
-0.0193252
0.0114119
-0.0196425
-0.0197628
0.0119876
0.000338431
0.00516099
0.00123073
-0.00826041
0.0016839
-0.0158912
0.00201177
-0.0184687
0.00222904
-0.0179489
0.00246476
-0.0168051
0.00276298
-0.0150552
0.00319113
-0.0132285
0.00386442
-0.0112785
0.0049448
-0.00950582
0.00633215
-0.00888717
0.00761852
-0.0100433
0.00857428
-0.0122386
0.00922361
-0.0145523
0.00968997
-0.0164908
0.0100625
-0.0179641
0.0104355
-0.0189934
0.0108257
-0.0197153
0.0112982
-0.0201151
-0.0203514
0.0118868
0.000355331
0.00480566
0.00127413
-0.00917921
0.00171417
-0.0163312
0.00203502
-0.0187896
0.00225339
-0.0181672
0.00249762
-0.0170494
0.00281199
-0.0153696
0.00326336
-0.0136798
0.00394563
-0.0119607
0.00496828
-0.0105285
0.00622146
-0.0101403
0.00738718
-0.0112091
0.00828906
-0.0131405
0.00893906
-0.0152023
0.00943037
-0.0169822
0.00983957
-0.0183733
0.0102455
-0.0193993
0.0106663
-0.0201361
0.011166
-0.0206148
-0.0209484
0.011763
0.000372247
0.00443341
0.00131197
-0.0101189
0.001739
-0.0167583
0.00205194
-0.0191025
0.00227079
-0.0183861
0.00252218
-0.0173007
0.00284922
-0.0156966
0.00331554
-0.0141462
0.00399454
-0.0126397
0.00495802
-0.0114919
0.00609887
-0.0112812
0.00716682
-0.012277
0.00802186
-0.0139956
0.00866883
-0.0158493
0.00917838
-0.0174917
0.00961701
-0.0188119
0.010049
-0.0198314
0.0104956
-0.0205827
0.0110166
-0.0211358
-0.0215501
0.0116182
0.000390274
0.00404314
0.00134437
-0.011073
0.00175854
-0.0171724
0.00206272
-0.0194067
0.00228145
-0.0186048
0.0025387
-0.017558
0.00287521
-0.0160331
0.00335007
-0.014621
0.0040189
-0.0133086
0.00492616
-0.0123992
0.00597174
-0.0123268
0.00695732
-0.0132626
0.00777019
-0.0148084
0.00841085
-0.01649
0.00893292
-0.0180138
0.00939441
-0.0192734
0.00984658
-0.0202835
0.0103148
-0.0210509
0.010851
-0.021672
-0.0221528
0.0114537
0.000410722
0.00363241
0.00137157
-0.0120339
0.00177298
-0.0175738
0.00206761
-0.0197013
0.00228564
-0.0188229
0.00254749
-0.0178198
0.0028906
-0.0163763
0.00336899
-0.0150994
0.0040232
-0.0139628
0.00487801
-0.013254
0.005842
-0.0132908
0.00675702
-0.0141776
0.00753141
-0.0155828
0.00816306
-0.0171216
0.0086929
-0.0185436
0.00917136
-0.0197519
0.00963861
-0.0207508
0.0101247
-0.021537
0.01067
-0.0222173
-0.0227538
0.011271
0.000435029
0.00319739
0.00139381
-0.0129927
0.00178251
-0.0179625
0.00206688
-0.0199857
0.00228363
-0.0190396
0.00254889
-0.0180851
0.00289607
-0.0167234
0.00337403
-0.0155774
0.00401073
-0.0145995
0.00481696
-0.0140602
0.00571042
-0.0141842
0.00656415
-0.0150314
0.0073031
-0.0163218
0.00792359
-0.0177421
0.00845725
-0.0190773
0.00894746
-0.0202421
0.0094257
-0.021229
0.00992601
-0.0220373
0.0104739
-0.0227652
-0.0233522
0.0110723
0.000464593
0.00273279
0.00141139
-0.0139394
0.00178723
-0.0183384
0.00206082
-0.0202593
0.00227572
-0.0192545
0.00254326
-0.0183527
0.00289226
-0.0170724
0.00336668
-0.0160518
0.00398399
-0.0152168
0.00474532
-0.0148216
0.00557719
-0.0150161
0.00637706
-0.0158312
0.0070831
-0.0170278
0.0076908
-0.0183498
0.00822498
-0.0196114
0.00872232
-0.0207394
0.00920841
-0.0217151
0.00971895
-0.0225479
0.0102635
-0.0233097
-0.0239486
0.01086
0.000500573
0.00223222
0.00142461
-0.0148635
0.00178731
-0.0187011
0.0020497
-0.0205217
0.00226223
-0.019467
0.00253096
-0.0186214
0.00287982
-0.0174213
0.0033482
-0.0165202
0.00394496
-0.0158135
0.00466477
-0.0155414
0.00544232
-0.0157936
0.00619433
-0.0165832
0.00686961
-0.0177031
0.00746328
-0.0189435
0.00799516
-0.0201433
0.00849566
-0.0212399
0.00898712
-0.0222066
0.00950349
-0.0230642
0.0100416
-0.0238479
-0.0245396
0.0106327
0.000543604
0.00168862
0.00143376
-0.0157536
0.00178291
-0.0190502
0.00203381
-0.0207726
0.00224347
-0.0196767
0.00251234
-0.0188903
0.00285933
-0.0177683
0.00331969
-0.0169805
0.00389522
-0.0163891
0.00457654
-0.0162227
0.00530571
-0.0165228
0.00601477
-0.0172923
0.00666109
-0.0183494
0.00723981
-0.0195222
0.00776695
-0.0206705
0.00826734
-0.0217403
0.00876189
-0.0227011
0.00927904
-0.0235814
0.0098123
-0.0243812
-0.0251191
0.0103918
0.000593492
0.00109512
0.00143902
-0.0165992
0.00177412
-0.0193853
0.00201334
-0.0210118
0.00221966
-0.019883
0.00248766
-0.0191583
0.00283126
-0.0181119
0.00328197
-0.0174312
0.00383595
-0.016943
0.00448144
-0.0168682
0.00516709
-0.0172085
0.00583721
-0.0179624
0.00645609
-0.0189683
0.00701916
-0.0200853
0.00753936
-0.0211907
0.00803706
-0.022238
0.00853213
-0.0231962
0.00904487
-0.0240941
0.00957271
-0.024909
-0.0257302
0.0101837
0.00064897
0.000446154
0.00144056
-0.0173908
0.00176113
-0.0197059
0.0019887
-0.0212394
0.00219126
-0.0200856
0.00245744
-0.0194244
0.00279633
-0.0184508
0.0032361
-0.017871
0.00376846
-0.0174754
0.00438049
-0.0174802
0.00502667
-0.0178547
0.00566118
-0.0185969
0.00625395
-0.0195611
0.00680084
-0.0206322
0.00731229
-0.0217021
0.00780524
-0.0227309
0.00829788
-0.0236888
0.00880448
-0.0246007
0.00933796
-0.0254425
-0.0263155
0.00992331
0.000707553
-0.000261399
0.00143834
-0.0181215
0.00174394
-0.0200115
0.00196002
-0.0214554
0.00215847
-0.020284
0.00242191
-0.0196879
0.00275491
-0.0187838
0.00318271
-0.0182988
0.00369351
-0.0179862
0.00427415
-0.0180609
0.00488419
-0.0184647
0.00548586
-0.0191986
0.00605361
-0.0201288
0.0065839
-0.0211624
0.00708502
-0.0222032
0.00757135
-0.0232173
0.00805883
-0.0241763
0.0085599
-0.0251018
0.00908804
-0.0259706
-0.0268779
0.00965046
0.000765739
-0.00102714
0.00143226
-0.0187881
0.0017226
-0.0203019
0.00192748
-0.0216603
0.00212154
-0.0204781
0.00238138
-0.0199477
0.00270746
-0.0191098
0.00312244
-0.0187138
0.00361186
-0.0184756
0.00416292
-0.0186119
0.0047396
-0.0190414
0.00531069
-0.0197697
0.00585438
-0.0206725
0.00636768
-0.0216757
0.00685717
-0.0226927
0.00733515
-0.0236953
0.00781564
-0.0246568
0.0083086
-0.0255948
0.00882826
-0.0264903
-0.0274275
0.0093778
0.000819525
-0.00184666
0.00142215
-0.0193907
0.00169719
-0.0205769
0.00189131
-0.0218544
0.00208071
-0.0206675
0.00233612
-0.0202031
0.00265437
-0.0194281
0.00305586
-0.0191153
0.00352415
-0.0189439
0.00404719
-0.019135
0.00459284
-0.019587
0.00513523
-0.0203121
0.00565565
-0.0211929
0.00615165
-0.0221717
0.00662839
-0.0231695
0.00709656
-0.0241634
0.007568
-0.0251282
0.0080519
-0.0260787
0.00856076
-0.0269991
-0.0279599
0.00909322
0.000865175
-0.00271184
0.00140789
-0.0199334
0.00166784
-0.0208369
0.00185172
-0.0220383
0.00203623
-0.020852
0.00228641
-0.0204533
0.00259603
-0.0197377
0.00298348
-0.0195027
0.00343092
-0.0193913
0.00392731
-0.0196314
0.00444387
-0.0201036
0.00495914
-0.0208273
0.00545695
-0.0216907
0.00593538
-0.0226502
0.00639841
-0.0236325
0.00685536
-0.0246204
0.0073164
-0.0255893
0.00778949
-0.0265517
0.00828492
-0.0274946
-0.0284785
0.00880348
0.000900005
-0.00361184
0.00138948
-0.0204229
0.00163472
-0.0210821
0.0018089
-0.0222125
0.00198831
-0.0210314
0.00223252
-0.0206975
0.0025328
-0.020038
0.00290575
-0.0198757
0.00333264
-0.0198182
0.00380358
-0.0201023
0.00429266
-0.0205927
0.00478213
-0.0213168
0.00525789
-0.0221665
0.00571851
-0.0231108
0.006167
-0.024081
0.00661157
-0.025065
0.00706076
-0.0260385
0.00752155
-0.0270125
0.00800351
-0.0279765
-0.0289802
0.00850527
0.000922867
-0.00453471
0.00136703
-0.020867
0.00159808
-0.0213131
0.00176307
-0.0223775
0.00193716
-0.0212055
0.00217469
-0.020935
0.002465
-0.0203283
0.00282309
-0.0202338
0.00322974
-0.0202249
0.00367625
-0.0205488
0.00413923
-0.0210556
0.00460399
-0.0217816
0.00505816
-0.0226207
0.00550074
-0.0235534
0.00593397
-0.0245142
0.00636509
-0.0254961
0.00680123
-0.0264746
0.00724879
-0.0274601
0.00771523
-0.028443
-0.0294659
0.00820088
0.000934154
-0.00546886
0.0013408
-0.0212737
0.00155824
-0.0215306
0.00171444
-0.0225337
0.00188299
-0.021374
0.00211314
-0.0211652
0.00239293
-0.0206081
0.00273587
-0.0205767
0.00312258
-0.0206116
0.00354554
-0.0209718
0.00398359
-0.0214937
0.00442453
-0.0222225
0.00485751
-0.0230536
0.00528186
-0.0239777
0.00569918
-0.0249315
0.00611592
-0.0259128
0.006538
-0.0268967
0.00697098
-0.0278931
0.00742183
-0.0288938
-0.029934
0.00788999
0.000935376
-0.00640424
0.00131114
-0.0216494
0.00151561
-0.0217351
0.00166321
-0.0226813
0.00182597
-0.0215368
0.00204812
-0.0213874
0.00231688
-0.0208769
0.00264443
-0.0209043
0.00301149
-0.0209787
0.00341167
-0.0213719
0.00382575
-0.0219078
0.00424365
-0.0226404
0.00465575
-0.0234657
0.00506168
-0.0243836
0.00546253
-0.0253324
0.00586407
-0.0263144
0.0062711
-0.0273037
0.00668884
-0.0283108
0.00712278
-0.0293278
-0.0303845
0.00757322
0.000928543
-0.00733278
0.00127842
-0.0219993
0.00147046
-0.0219271
0.00160959
-0.0228204
0.00176628
-0.0216935
0.00197981
-0.0216009
0.00223712
-0.0211342
0.00254907
-0.0212162
0.00289676
-0.0213263
0.00327482
-0.02175
0.00366575
-0.0222987
0.00406125
-0.0230359
0.00445272
-0.0238572
0.00484007
-0.024771
0.00522396
-0.0257163
0.00560954
-0.0266999
0.00600078
-0.027695
0.00640226
-0.0287123
0.00681896
-0.0297445
-0.0308165
0.007251
0.000915623
-0.00824841
0.001243
-0.0223267
0.00142309
-0.0221072
0.00155375
-0.0229511
0.00170409
-0.0218438
0.00190843
-0.0218052
0.00215391
-0.0213796
0.00245009
-0.0215124
0.00277865
-0.0216549
0.00313517
-0.0221065
0.00350365
-0.0226672
0.00387727
-0.0234095
0.00424833
-0.0242283
0.00461693
-0.0251396
0.00498343
-0.0260828
0.00535242
-0.0270689
0.00572707
-0.0280696
0.00611173
-0.029097
0.00651036
-0.0301431
-0.0312297
0.00692353
0.000898233
-0.00914664
0.00120525
-0.0226337
0.00137372
-0.0222757
0.00149589
-0.0230732
0.00163956
-0.0219875
0.00183417
-0.0219998
0.00206747
-0.0216129
0.00234773
-0.0217927
0.00265741
-0.0219646
0.00299287
-0.022442
0.0033395
-0.0230138
0.00369168
-0.0237617
0.00404249
-0.0245791
0.00439221
-0.0254893
0.00474092
-0.0264315
0.00509273
-0.0274207
0.00545022
-0.0284271
0.00581732
-0.0294641
0.00619743
-0.0305232
-0.0316235
0.00659127
0.000877555
-0.0100242
0.00116547
-0.0229216
0.00132259
-0.0224328
0.00143615
-0.0231868
0.00157283
-0.0221242
0.00175721
-0.0221842
0.00197803
-0.0218338
0.00224226
-0.0220569
0.00253327
-0.0222556
0.0028481
-0.0227568
0.00317337
-0.0233391
0.00350448
-0.0240928
0.00383518
-0.0249098
0.00416588
-0.02582
0.00449644
-0.0267621
0.00483058
-0.0277549
0.0051703
-0.0287668
0.00551935
-0.0298131
0.0058804
-0.0308843
-0.0319975
0.00625439
0.000854443
-0.0108786
0.00112392
-0.0231911
0.0012699
-0.0225788
0.00137471
-0.0232916
0.00150405
-0.0222535
0.00167772
-0.0223579
0.00188581
-0.0220419
0.00213388
-0.022305
0.00240643
-0.0225281
0.00270099
-0.0230514
0.00300533
-0.0236434
0.00331567
-0.0244032
0.00362638
-0.0252205
0.00393793
-0.0261316
0.00425003
-0.0270742
0.00456603
-0.0280709
0.00488753
-0.0290883
0.00521796
-0.0301435
0.00555951
-0.0312258
-0.0323513
0.00591326
0.000829464
-0.0117081
0.0010807
-0.0234423
0.00121583
-0.0227139
0.0013117
-0.0233875
0.00143337
-0.0223752
0.00159589
-0.0225204
0.001791
-0.022237
0.00202282
-0.0225368
0.00227709
-0.0227824
0.00255168
-0.023326
0.00283546
-0.0239272
0.0031253
-0.024693
0.00341608
-0.0255113
0.00370838
-0.0264238
0.00400174
-0.0273675
0.00429921
-0.0283683
0.00460203
-0.0293911
0.00491341
-0.0304549
0.00523503
-0.0315474
-0.0326843
0.00556808
0.000802992
-0.0125111
0.00103604
-0.0236754
0.00116054
-0.0228384
0.00124725
-0.0234742
0.00136091
-0.0224888
0.00151187
-0.0226714
0.00169379
-0.0224189
0.00190927
-0.0227523
0.00214544
-0.0230186
0.00240033
-0.0235809
0.00266385
-0.0241908
0.00293339
-0.0249625
0.00320433
-0.0257822
0.00347726
-0.0266968
0.00375163
-0.0276419
0.00403021
-0.0286469
0.00431397
-0.0296749
0.00460588
-0.0307468
0.00490718
-0.0318487
-0.0329963
0.00521914
0.0007753
-0.0132864
0.000990146
-0.0238902
0.00110418
-0.0229524
0.0011815
-0.0235515
0.00128681
-0.0225941
0.00142581
-0.0228104
0.00159436
-0.0225874
0.00179343
-0.0229513
0.00201164
-0.0232368
0.00224706
-0.0238163
0.0024906
-0.0244343
0.00274002
-0.0252119
0.00299117
-0.0260334
0.00324462
-0.0269502
0.00349979
-0.0278971
0.00375916
-0.0289063
0.00402351
-0.0299392
0.00429557
-0.0310189
0.0045762
-0.0321294
-0.0332867
0.00486667
0.000746603
-0.014033
0.000943223
-0.0240869
0.0010469
-0.0230561
0.00111456
-0.0236192
0.00121118
-0.0226908
0.00133786
-0.022937
0.00149288
-0.0227425
0.00167547
-0.0231339
0.00187586
-0.0234372
0.00209201
-0.0240324
0.00231579
-0.0246581
0.00254525
-0.0254414
0.00277665
-0.0262648
0.00301054
-0.0271841
0.0032463
-0.0281328
0.00348619
-0.0291462
0.00373081
-0.0301839
0.00398267
-0.0312707
0.00424229
-0.032389
-0.0335554
0.00451093
0.000717079
-0.0147501
0.000895445
-0.0242652
0.000988817
-0.0231495
0.00104655
-0.0236769
0.00113416
-0.0227784
0.00124818
-0.0230511
0.00138952
-0.0228838
0.00155556
-0.0233
0.00173826
-0.0236199
0.00193532
-0.0242295
0.00213953
-0.0248623
0.00234916
-0.025651
0.00256084
-0.0264765
0.00277509
-0.0273984
0.00299126
-0.028349
0.00321142
-0.0293664
0.00343604
-0.0304085
0.00366738
-0.0315021
0.00390568
-0.0326273
-0.0338019
0.00415217
0.00068688
-0.015437
0.000846972
-0.0244253
0.000930047
-0.0232325
0.000977559
-0.0237244
0.00105585
-0.0228567
0.00115689
-0.0231521
0.00128443
-0.0230113
0.00143387
-0.0234494
0.001599
-0.023785
0.00177711
-0.0244076
0.00196193
-0.0250471
0.00215184
-0.0258409
0.00234383
-0.0266685
0.00253837
-0.0275929
0.0027348
-0.0285454
0.00293501
-0.0295666
0.00313935
-0.0306128
0.00334988
-0.0317126
0.00356658
-0.032844
-0.0340259
0.00379062
0.000656137
-0.0160931
0.000797946
-0.0245671
0.0008707
-0.0233053
0.000907691
-0.0237614
0.00097638
-0.0229253
0.00106413
-0.0232398
0.00117777
-0.023125
0.00131055
-0.0235822
0.00145822
-0.0239327
0.00161751
-0.0245669
0.0017831
-0.0252127
0.00195337
-0.0260112
0.00212572
-0.0268408
0.00230046
-0.0277676
0.00247702
-0.028722
0.00265708
-0.0297466
0.00284092
-0.0307967
0.00303037
-0.0319021
0.00322521
-0.0330388
-0.0342272
0.00342654
0.000624966
-0.0167181
0.000748492
-0.0246906
0.000810874
-0.0233677
0.000837035
-0.0237876
0.000895847
-0.0229842
0.000970021
-0.023314
0.00106968
-0.0232246
0.00118576
-0.0236983
0.00131607
-0.024063
0.00145665
-0.0247075
0.00160314
-0.0253592
0.00175388
-0.026162
0.00190659
-0.0269935
0.0020615
-0.0279226
0.00221806
-0.0288785
0.00237779
-0.0299063
0.00254092
-0.0309598
0.00270905
-0.0320702
0.0028818
-0.0332116
-0.0344056
0.00306019
0.00059347
-0.0173115
0.000698724
-0.0247959
0.00075066
-0.0234196
0.000765676
-0.0238026
0.000814364
-0.0230328
0.00087469
-0.0233743
0.000960301
-0.0233103
0.00105964
-0.0237976
0.00117269
-0.024176
0.00129466
-0.0248294
0.00142218
-0.0254867
0.00155345
-0.0262932
0.00168655
-0.0271266
0.00182158
-0.0280576
0.00195805
-0.029015
0.0020973
-0.0300456
0.00223952
-0.031102
0.00238612
-0.0322168
0.00253657
-0.033362
-0.0345609
0.00269182
0.00056174
-0.0178733
0.000648741
-0.0248829
0.000690147
-0.023461
0.000693691
-0.0238061
0.000732039
-0.0230712
0.000778251
-0.0234206
0.000849782
-0.0233818
0.000932331
-0.0238802
0.00102821
-0.0242719
0.00113167
-0.0249329
0.00124033
-0.0255954
0.00135221
-0.0264051
0.00146573
-0.0272401
0.00158083
-0.0281727
0.00169712
-0.0291313
0.00181575
-0.0301642
0.0019369
-0.0312232
0.00206178
-0.0323417
0.00218976
-0.03349
-0.0346928
0.00232168
0.000529859
-0.0184031
0.000598629
-0.0249517
0.000629415
-0.0234918
0.000621152
-0.0237979
0.000648982
-0.023099
0.000680805
-0.0234524
0.00073827
-0.0234392
0.000803946
-0.0239458
0.000882783
-0.0243507
0.000967792
-0.0250179
0.00105772
-0.0256853
0.00115026
-0.0264976
0.00124424
-0.0273341
0.00133939
-0.0282678
0.00143543
-0.0292273
0.00153332
-0.0302621
0.00163323
-0.0313231
0.00173622
-0.0324446
0.0018416
-0.0335954
-0.0348012
0.00195001
0.0004979
-0.018901
0.000548465
-0.0250022
0.000568542
-0.0235119
0.000548118
-0.0237775
0.000565311
-0.0231162
0.000582435
-0.0234695
0.000625926
-0.0234827
0.000674585
-0.0239945
0.000736575
-0.0244127
0.000803127
-0.0250845
0.000874488
-0.0257567
0.000947724
-0.0265709
0.0010222
-0.0274086
0.00109738
-0.028343
0.00117312
-0.0293031
0.00125017
-0.0303392
0.00132872
-0.0314016
0.00140965
-0.0325256
0.0014923
-0.033678
-0.034886
0.00157708
0.000465928
-0.019367
0.000498313
-0.0250346
0.000507608
-0.0235212
0.000474631
-0.0237445
0.000481157
-0.0231227
0.000483212
-0.0234716
0.000512904
-0.0235124
0.000544355
-0.0240259
0.000589723
-0.0244581
0.000637794
-0.0251325
0.000690742
-0.0258096
0.00074472
-0.0266249
0.000799729
-0.0274636
0.000854944
-0.0283982
0.000910334
-0.0293585
0.000966473
-0.0303953
0.00102355
-0.0314587
0.00108229
-0.0325843
0.00114205
-0.0337378
-0.0349471
0.00120316
0.000434005
-0.019801
0.000448224
-0.0250488
0.000446694
-0.0235197
0.000400718
-0.0236985
0.000396651
-0.0231187
0.000383205
-0.0234581
0.000399324
-0.0235285
0.000413401
-0.02404
0.000442288
-0.024487
0.000471972
-0.0251622
0.000506545
-0.0258442
0.000541395
-0.0266597
0.000576939
-0.0274991
0.000612228
-0.0284335
0.000647225
-0.0293935
0.000682399
-0.0304305
0.000717922
-0.0314942
0.000754397
-0.0326208
0.000791018
-0.0337744
-0.0349845
0.000828469
0.000402183
-0.0202031
0.000398239
-0.0250449
0.000385883
-0.0235073
0.000326392
-0.023639
0.00031192
-0.0231042
0.000282465
-0.0234287
0.000285306
-0.0235314
0.000281852
-0.0240366
0.000294321
-0.0244994
0.00030582
-0.0251737
0.000321924
-0.0258603
0.000337873
-0.0266757
0.000353938
-0.0275152
0.000369351
-0.0284489
0.000383933
-0.029408
0.000398115
-0.0304447
0.000412006
-0.0315081
0.000426197
-0.032635
0.000439588
-0.0337878
-0.034998
0.000453018
0.000370485
-0.0205736
0.000348328
-0.0250227
0.000325185
-0.0234842
0.000251549
-0.0235654
0.000227017
-0.0230797
0.000180728
-0.0233824
0.000171083
-0.0235217
0.000149244
-0.0240147
0.000146142
-0.0244963
0.000138864
-0.0251664
0.000136971
-0.0258584
0.000133801
-0.0266725
0.00013058
-0.027512
0.000125983
-0.0284443
0.000120296
-0.0294024
0.000113269
-0.0304377
0.00010556
-0.0315004
9.71885e-05
-0.0326266
8.8373e-05
-0.033779
-0.0349851
7.55026e-05
0.000339017
-0.0209126
0.000298613
-0.0249823
0.000264834
-0.0234504
0.000176259
-0.0234768
0.00014255
-0.023046
7.73365e-05
-0.0233172
5.83344e-05
-0.0235027
1.3109e-05
-0.0239695
1.62952e-06
-0.0244849
-2.91168e-05
-0.0251357
-4.72445e-05
-0.0258403
-6.99999e-05
-0.0266497
-9.22559e-05
-0.0274897
-0.000116734
-0.0284199
-0.000142732
-0.0293764
-0.000170745
-0.0304096
-0.00020016
-0.031471
-0.000230748
-0.032596
-0.000263464
-0.0337463
-0.0349498
-0.000298794
0.000307795
-0.0212204
0.00024903
-0.0249236
0.000204884
-0.0234062
9.9849e-05
-0.0233718
5.95745e-05
-0.0230057
-2.64835e-05
-0.0232311
-5.74327e-05
-0.0234718
-0.00011413
-0.0239128
-0.000151795
-0.0244472
-0.00019278
-0.0250947
-0.000232624
-0.0258004
-0.000272524
-0.0266098
-0.000314701
-0.0274475
-0.000358741
-0.0283758
-0.000405352
-0.0293297
-0.00045423
-0.0303608
-0.000505425
-0.0314198
-0.000558487
-0.032543
-0.000614857
-0.0336899
-0.0348917
-0.00067292
0.000276858
-0.0214973
0.000199538
-0.0248462
0.000145601
-0.0233523
1.90998e-05
-0.0232453
-2.38928e-05
-0.0229627
-0.000121436
-0.0231336
-0.000177036
-0.0234162
-0.000243397
-0.0238464
-0.000301698
-0.0243889
-0.000358076
-0.0250383
-0.000416875
-0.0257416
-0.000475341
-0.0265514
-0.000536663
-0.0273862
-0.000600531
-0.0283119
-0.000667424
-0.0292629
-0.000737313
-0.0302909
-0.000810182
-0.0313469
-0.000885865
-0.0324673
-0.000965247
-0.0336105
-0.03481
-0.0010469
0.00024624
-0.0217435
0.000149997
-0.02475
8.7529e-05
-0.0232898
-5.0073e-05
-0.0231077
-0.00011675
-0.022896
-0.000218968
-0.0230313
-0.000294759
-0.0233404
-0.000373761
-0.0237674
-0.00045055
-0.0243121
-0.000523744
-0.0249651
-0.000600502
-0.0256649
-0.000677844
-0.026474
-0.000758113
-0.0273059
-0.000841747
-0.0282283
-0.000928824
-0.0291758
-0.00101968
-0.0302
-0.0011142
-0.0312524
-0.00121242
-0.0323691
-0.00131468
-0.0335083
-0.0347045
-0.00142019
0.000215965
-0.0219595
0.000100028
-0.0246341
3.20222e-05
-0.0232218
-0.000118248
-0.0229574
-0.000206138
-0.0228081
-0.000317446
-0.02292
-0.000411471
-0.0232464
-0.000504593
-0.0236743
-0.000598656
-0.024218
-0.000689311
-0.0248745
-0.000783606
-0.0255706
-0.000879754
-0.0263779
-0.000978918
-0.0272068
-0.00108219
-0.028125
-0.00118939
-0.0290686
-0.00130113
-0.0300883
-0.00141724
-0.0311363
-0.00153787
-0.0322484
-0.001663
-0.0333831
-0.0345752
-0.00179237
0.000186082
-0.0221456
4.84014e-05