/*--------------------------------*- C++ -*----------------------------------*\
  =========                 |
  \\      /  F ield         | OpenFOAM: The Open Source CFD Toolbox
   \\    /   O peration     | Website:  https://openfoam.org
    \\  /    A nd           | Version:  7
     \\/     M anipulation  |
\*---------------------------------------------------------------------------*/
FoamFile
{
    version     2.0;
    format      ascii;
    class       volVectorField;
    location    "0.5";
    object      U;
}
// * * * * * * * * * * * * * * * * * * * * * * * * * * * * * * * * * * * * * //

dimensions      [0 1 -1 0 0 0 0];

internalField   nonuniform List<vector> 
2413
(
(1.4 2.95302e-15 0)
(1.4 3.01691e-15 0)
(1.4 3.44542e-15 0)
(1.4 3.5981e-15 0)
(1.4 3.48926e-15 0)
(1.4 3.52838e-15 0)
(1.4 3.57876e-15 0)
(1.4 3.48676e-15 0)
(1.4 3.45661e-15 0)
(1.4 3.48314e-15 0)
(1.4 3.56442e-15 0)
(1.4 3.36555e-15 0)
(1.4 3.00533e-15 0)
(1.4 2.72902e-15 0)
(1.4 2.66192e-15 0)
(1.4 2.66452e-15 0)
(1.4 2.7441e-15 0)
(1.4 2.9248e-15 0)
(1.4 3.01702e-15 0)
(1.4 3.07991e-15 0)
(1.4 3.1562e-15 0)
(1.4 3.18299e-15 0)
(1.4 3.58995e-15 0)
(1.4 3.88591e-15 0)
(1.4 4.35145e-15 0)
(1.4 4.55983e-15 0)
(1.4 4.40788e-15 0)
(1.4 4.16981e-15 0)
(1.4 4.12393e-15 0)
(1.4 3.70899e-15 0)
(1.4 3.56857e-15 0)
(1.4 2.87487e-15 0)
(1.4 2.41247e-15 0)
(1.4 2.21225e-15 0)
(1.4 1.96305e-15 0)
(1.4 1.53141e-15 0)
(1.4 1.36185e-15 0)
(1.4 1.30618e-15 0)
(1.4 9.99723e-16 0)
(1.4 8.36925e-16 0)
(1.4 5.04792e-16 0)
(1.4 4.76454e-16 0)
(1.4 2.48819e-16 0)
(1.4 3.96615e-17 0)
(1.4 -3.93767e-17 0)
(1.4 -8.55771e-16 0)
(1.4 -1.22927e-15 0)
(1.4 -1.53504e-15 0)
(1.4 -1.46929e-15 0)
(1.4 -1.37451e-15 0)
(1.4 -1.29183e-15 0)
(1.4 -1.28353e-15 0)
(1.4 -1.41917e-15 0)
(1.4 -1.54199e-15 0)
(1.4 -1.74026e-15 0)
(1.4 -1.88409e-15 0)
(1.4 -2.13422e-15 0)
(1.4 -2.54069e-15 0)
(1.4 -2.6941e-15 0)
(1.4 -2.80177e-15 0)
(1.4 -2.8266e-15 0)
(1.4 -2.77485e-15 0)
(1.4 -2.61647e-15 0)
(1.4 -2.27111e-15 0)
(1.4 -2.08563e-15 0)
(1.4 -1.62285e-15 0)
(1.4 -1.12229e-15 0)
(1.4 -6.76172e-16 0)
(1.4 -3.22727e-16 0)
(1.4 -1.9418e-17 0)
(1.4 3.89199e-16 0)
(1.4 8.73464e-16 0)
(1.4 9.96216e-16 0)
(1.4 8.83743e-16 0)
(1.4 6.02204e-16 0)
(1.4 2.83434e-16 0)
(1.4 -1.63911e-16 0)
(1.4 -5.7731e-16 0)
(1.4 -1.40324e-15 0)
(1.4 -2.04418e-15 0)
(1.4 -2.51197e-15 0)
(1.4 -3.02834e-15 0)
(1.4 -3.47086e-15 0)
(1.4 -3.68695e-15 0)
(1.4 -3.82462e-15 0)
(1.4 -3.71164e-15 0)
(1.4 -3.47683e-15 0)
(1.4 -3.35303e-15 0)
(1.4 -3.06621e-15 0)
(1.4 -2.88109e-15 0)
(1.4 -2.81588e-15 0)
(1.4 -2.6523e-15 0)
(1.4 -2.62759e-15 0)
(1.4 -2.13275e-15 0)
(1.4 -1.91252e-15 0)
(1.4 -3.11664e-16 0)
(1.4 -2.80452e-16 0)
(1.4 -2.72583e-16 0)
(1.4 -1.25809e-16 0)
(1.4 -3.82741e-17 0)
(1.4 7.49494e-17 0)
(1.4 2.19947e-16 0)
(1.4 3.06239e-16 0)
(1.4 1.80518e-16 0)
(1.4 1.02427e-17 0)
(1.4 -1.10366e-16 0)
(1.4 -4.52032e-17 0)
(1.4 -6.76001e-17 0)
(1.4 2.95554e-16 0)
(1.4 7.03464e-16 0)
(1.4 1.09482e-15 0)
(1.4 1.33328e-15 0)
(1.4 1.43866e-15 0)
(1.4 1.53658e-15 0)
(1.4 1.63822e-15 0)
(1.4 1.74727e-15 0)
(1.4 1.83437e-15 0)
(1.4 1.91411e-15 0)
(1.4 1.93123e-15 0)
(1.4 2.02236e-15 0)
(1.4 2.20938e-15 0)
(1.4 2.27302e-15 0)
(1.4 2.3292e-15 0)
(1.4 2.36175e-15 0)
(1.4 2.45118e-15 0)
(1.4 2.73243e-15 0)
(1.4 3.11841e-15 0)
(1.4 3.31126e-15 0)
(1.4 3.62189e-15 0)
(1.4 3.76126e-15 0)
(1.4 3.70245e-15 0)
(1.4 3.47189e-15 0)
(1.4 3.30387e-15 0)
(1.4 3.20713e-15 0)
(1.4 3.18778e-15 0)
(1.4 3.21518e-15 0)
(1.4 3.20116e-15 0)
(1.4 3.10338e-15 0)
(1.4 3.03537e-15 0)
(1.4 2.98504e-15 0)
(1.4 2.99376e-15 0)
(1.4 3.1596e-15 0)
(1.4 3.29737e-15 0)
(1.4 3.34907e-15 0)
(1.4 3.39745e-15 0)
(1.4 3.473e-15 0)
(1.4 3.48319e-15 0)
(1.4 3.49933e-15 0)
(1.4 3.47037e-15 0)
(1.4 3.52752e-15 0)
(1.4 3.70861e-15 0)
(1.4 3.71488e-15 0)
(1.4 3.77985e-15 0)
(1.4 3.78091e-15 0)
(1.4 3.43454e-15 0)
(1.4 2.94733e-15 0)
(1.4 2.92664e-15 0)
(1.4 2.88387e-15 0)
(1.4 2.70933e-15 0)
(1.4 2.22054e-15 0)
(1.4 1.95713e-15 0)
(1.4 1.78552e-15 0)
(1.4 1.10391e-15 0)
(1.4 8.15424e-16 0)
(1.4 6.24663e-16 0)
(1.4 5.63889e-16 0)
(1.4 3.81581e-16 0)
(1.4 3.74699e-17 0)
(1.4 -7.53419e-16 0)
(1.4 -9.44648e-16 0)
(1.4 -1.15305e-15 0)
(1.4 -1.22137e-15 0)
(1.4 -1.24511e-15 0)
(1.4 -1.17794e-15 0)
(1.4 -1.19281e-15 0)
(1.4 -1.39653e-15 0)
(1.4 -1.53821e-15 0)
(1.4 -1.54738e-15 0)
(1.4 -1.62964e-15 0)
(1.4 -1.73873e-15 0)
(1.4 -1.79564e-15 0)
(1.4 -1.80704e-15 0)
(1.4 -1.9918e-15 0)
(1.4 -2.13579e-15 0)
(1.4 -2.28904e-15 0)
(1.4 -2.61363e-15 0)
(1.4 -2.79165e-15 0)
(1.4 -2.80619e-15 0)
(1.4 -2.64679e-15 0)
(1.4 -2.53967e-15 0)
(1.4 -2.43814e-15 0)
(1.4 -2.36967e-15 0)
(1.4 -2.3086e-15 0)
(1.4 -2.27767e-15 0)
(1.4 -2.1927e-15 0)
(1.4 -1.99759e-15 0)
(1.4 -1.9824e-15 0)
(1.4 -1.80046e-15 0)
(1.4 -1.63247e-15 0)
(1.4 -1.52049e-15 0)
(1.4 -1.40124e-15 0)
(1.4 -1.33447e-15 0)
(1.4 -1.20317e-15 0)
(1.4 -1.03924e-15 0)
(1.4 -7.72873e-16 0)
(1.4 -6.66464e-16 0)
(1.4 -7.70752e-16 0)
(1.4 -9.32888e-16 0)
(1.4 -1.24345e-15 0)
(1.4 -1.50791e-15 0)
(1.4 -1.85766e-15 0)
(1.4 -2.07667e-15 0)
(1.4 -2.10055e-15 0)
(1.4 -2.2984e-15 0)
(1.4 -2.58904e-15 0)
(1.4 -3.00648e-15 0)
(1.4 -3.36494e-15 0)
(1.4 -3.66109e-15 0)
(1.4 -3.90259e-15 0)
(1.4 -4.01179e-15 0)
(1.4 -4.39655e-15 0)
(1.4 -4.42281e-15 0)
(1.4 -4.31591e-15 0)
(1.4 -4.21356e-15 0)
(1.4 -3.3307e-15 0)
(1.4 -3.10142e-15 0)
(1.4 -2.86861e-15 0)
(1.4 -2.89348e-15 0)
(1.4 -2.49554e-15 0)
(1.4 -2.06071e-15 0)
(1.4 -1.66712e-15 0)
(1.4 -1.2895e-15 0)
(1.4 -9.37806e-16 0)
(1.4 -8.7573e-16 0)
(1.4 -8.24247e-16 0)
(1.4 -9.0757e-16 0)
(1.4 -1.02752e-15 0)
(1.4 -1.06752e-15 0)
(1.4 -1.02447e-15 0)
(1.4 -8.66851e-16 0)
(1.4 -4.03845e-16 0)
(1.4 2.23841e-16 0)
(1.4 4.81876e-16 0)
(1.4 6.95799e-16 0)
(1.4 9.26809e-16 0)
(1.4 1.05693e-15 0)
(1.4 1.04918e-15 0)
(1.4 1.19452e-15 0)
(1.4 1.50746e-15 0)
(1.4 1.67698e-15 0)
(1.4 1.83678e-15 0)
(1.4 1.79085e-15 0)
(1.4 1.77165e-15 0)
(1.4 1.81099e-15 0)
(1.4 2.08911e-15 0)
(1.4 2.35727e-15 0)
(1.4 2.66995e-15 0)
(1.4 2.90425e-15 0)
(1.4 3.00148e-15 0)
(1.4 3.07887e-15 0)
(1.4 3.32609e-15 0)
(1.4 3.35454e-15 0)
(1.4 3.39888e-15 0)
(1.4 3.46658e-15 0)
(1.4 3.85083e-15 0)
(1.4 4.07962e-15 0)
(1.4 3.55118e-15 0)
(1.4 3.43098e-15 0)
(1.4 3.3318e-15 0)
(1.4 2.90059e-15 0)
(1.4 2.73915e-15 0)
(1.4 2.64696e-15 0)
(1.4 2.617e-15 0)
(1.4 2.4303e-15 0)
(1.4 2.40866e-15 0)
(1.4 2.56184e-15 0)
(1.4 2.67476e-15 0)
(1.4 2.91867e-15 0)
(1.4 3.06365e-15 0)
(1.4 3.02586e-15 0)
(1.4 2.71817e-15 0)
(1.4 2.47838e-15 0)
(1.4 2.48491e-15 0)
(1.4 2.49477e-15 0)
(1.4 2.66176e-15 0)
(1.4 2.71065e-15 0)
(1.4 2.60478e-15 0)
(1.4 2.3675e-15 0)
(1.4 2.24554e-15 0)
(1.4 2.00218e-15 0)
(1.4 1.88509e-15 0)
(1.4 1.74361e-15 0)
(1.4 1.64147e-15 0)
(1.4 1.64946e-15 0)
(1.4 8.08225e-16 0)
(1.4 6.20115e-16 0)
(1.4 3.63117e-16 0)
(1.4 6.48293e-17 0)
(1.4 -6.86122e-17 0)
(1.4 -8.05343e-16 0)
(1.4 -1.48714e-15 0)
(1.4 -1.97272e-15 0)
(1.4 -1.90117e-15 0)
(1.4 -1.57778e-15 0)
(1.4 -1.3731e-15 0)
(1.4 -1.12625e-15 0)
(1.4 -1.11125e-15 0)
(1.4 -9.81406e-16 0)
(1.4 -6.92368e-16 0)
(1.4 -3.55e-16 0)
(1.4 -2.73522e-17 0)
(1.4 2.1523e-16 0)
(1.4 1.44644e-16 0)
(1.4 -3.22122e-16 0)
(1.4 -1.07703e-15 0)
(1.4 -1.38904e-15 0)
(1.4 -1.9996e-15 0)
(1.4 -2.53502e-15 0)
(1.4 -2.80636e-15 0)
(1.4 -3.14867e-15 0)
(1.4 -3.18803e-15 0)
(1.4 -3.20572e-15 0)
(1.4 -3.1466e-15 0)
(1.4 -3.0733e-15 0)
(1.4 -2.9441e-15 0)
(1.4 -2.8982e-15 0)
(1.4 -2.82366e-15 0)
(1.4 -2.90219e-15 0)
(1.4 -3.09856e-15 0)
(1.4 -3.31215e-15 0)
(1.4 -2.79243e-15 0)
(1.4 -2.53916e-15 0)
(1.4 -2.34525e-15 0)
(1.4 -2.07407e-15 0)
(1.4 -1.98964e-15 0)
(1.4 -1.95953e-15 0)
(1.4 -1.62867e-15 0)
(1.4 -1.47363e-15 0)
(1.4 -1.31334e-15 0)
(1.4 -1.32111e-15 0)
(1.4 -1.31748e-15 0)
(1.4 -1.27646e-15 0)
(1.4 -1.21323e-15 0)
(1.4 -1.21541e-15 0)
(1.4 -1.25078e-15 0)
(1.4 -1.23191e-15 0)
(1.4 -1.30473e-15 0)
(1.4 -1.47217e-15 0)
(1.4 -1.84695e-15 0)
(1.4 -2.28588e-15 0)
(1.4 -2.58809e-15 0)
(1.4 -2.37546e-15 0)
(1.4 -2.20716e-15 0)
(1.4 -2.25997e-15 0)
(1.4 -2.43912e-15 0)
(1.4 -2.54545e-15 0)
(1.4 -2.51673e-15 0)
(1.4 -2.44135e-15 0)
(1.4 -2.08476e-15 0)
(1.4 -3.7553e-15 0)
(1.4 -3.48927e-15 0)
(1.4 -3.22265e-15 0)
(1.4 -3.19668e-15 0)
(1.4 -2.88472e-15 0)
(1.4 -2.36537e-15 0)
(1.4 -2.07428e-15 0)
(1.4 -1.70406e-15 0)
(1.4 -1.56523e-15 0)
(1.4 -1.524e-15 0)
(1.4 -1.2539e-15 0)
(1.4 -1.03127e-15 0)
(1.4 -7.79383e-16 0)
(1.4 -7.91015e-16 0)
(1.4 -8.12761e-16 0)
(1.4 -7.76584e-16 0)
(1.4 -8.56703e-16 0)
(1.4 -7.41909e-16 0)
(1.4 -6.19076e-16 0)
(1.4 -4.01269e-16 0)
(1.4 -1.30247e-16 0)
(1.4 2.90953e-16 0)
(1.4 2.31423e-16 0)
(1.4 1.54629e-16 0)
(1.4 1.24551e-16 0)
(1.4 9.91612e-17 0)
(1.4 9.33762e-17 0)
(1.4 6.91857e-16 0)
(1.4 1.59968e-15 0)
(1.4 2.14257e-15 0)
(1.4 2.34115e-15 0)
(1.4 2.45358e-15 0)
(1.4 2.53349e-15 0)
(1.4 2.69415e-15 0)
(1.4 2.71906e-15 0)
(1.4 2.7496e-15 0)
(1.4 2.74173e-15 0)
(1.4 2.76302e-15 0)
(1.4 2.7249e-15 0)
(1.4 2.29176e-15 0)
(1.4 2.28173e-15 0)
(1.4 2.33186e-15 0)
(1.4 2.47943e-15 0)
(1.4 2.65244e-15 0)
(1.4 2.69124e-15 0)
(1.4 2.49581e-15 0)
(1.4 2.24201e-15 0)
(1.4 2.00251e-15 0)
(1.4 1.9275e-15 0)
(1.4 1.84829e-15 0)
(1.4 1.77715e-15 0)
(1.4 1.83291e-15 0)
(1.4 1.97008e-15 0)
(1.4 1.97315e-15 0)
(1.4 1.97454e-15 0)
(1.4 1.88588e-15 0)
(1.4 1.98848e-15 0)
(1.4 1.7644e-15 0)
(1.4 1.07203e-15 0)
(1.4 7.27792e-16 0)
(1.4 5.79683e-16 0)
(1.4 3.60589e-16 0)
(1.4 2.67268e-16 0)
(1.4 1.62872e-16 0)
(1.4 1.04732e-16 0)
(1.4 2.24053e-16 0)
(1.4 2.62774e-16 0)
(1.4 2.6709e-16 0)
(1.4 3.03322e-16 0)
(1.4 2.18088e-16 0)
(1.4 7.84311e-17 0)
(1.4 -7.26544e-17 0)
(1.4 -2.95528e-17 0)
(1.4 -1.79708e-16 0)
(1.4 -4.8312e-16 0)
(1.4 -4.29536e-16 0)
(1.4 -8.20011e-16 0)
(1.4 -1.0112e-15 0)
(1.4 -1.20922e-15 0)
(1.4 -1.27356e-15 0)
(1.4 -1.1131e-15 0)
(1.4 -1.00696e-15 0)
(1.4 -9.33338e-16 0)
(1.4 -9.12882e-16 0)
(1.4 -9.7526e-16 0)
(1.4 -1.06804e-15 0)
(1.4 -1.32654e-15 0)
(1.4 -1.48128e-15 0)
(1.4 -1.69014e-15 0)
(1.4 -2.01256e-15 0)
(1.4 -2.17772e-15 0)
(1.4 -2.30982e-15 0)
(1.4 -2.46582e-15 0)
(1.4 -2.68024e-15 0)
(1.4 -3.04281e-15 0)
(1.4 -3.31017e-15 0)
(1.4 -3.48802e-15 0)
(1.4 -3.78546e-15 0)
(1.4 -3.90581e-15 0)
(1.4 -3.95506e-15 0)
(1.4 -3.96383e-15 0)
(1.4 -3.8798e-15 0)
(1.4 -3.87299e-15 0)
(1.4 -3.83988e-15 0)
(1.4 -3.6797e-15 0)
(1.4 -3.61164e-15 0)
(1.4 -3.38855e-15 0)
(1.4 -3.00747e-15 0)
(1.4 -2.79041e-15 0)
(1.4 -2.32337e-15 0)
(1.4 -1.88274e-15 0)
(1.4 -1.34979e-15 0)
(1.4 -1.03003e-15 0)
(1.4 -7.31982e-16 0)
(1.4 -3.55395e-16 0)
(1.4 -1.50719e-16 0)
(1.4 8.96575e-17 0)
(1.4 -1.0443e-16 0)
(1.4 -7.08018e-17 0)
(1.4 -1.01766e-16 0)
(1.4 -3.80824e-17 0)
(1.4 -1.80393e-16 0)
(1.4 -6.41187e-16 0)
(1.4 -6.83573e-16 0)
(1.4 -1.1658e-15 0)
(1.4 -1.52031e-15 0)
(1.4 -1.72689e-15 0)
(1.4 -1.9656e-15 0)
(1.4 -2.10336e-15 0)
(1.4 -2.12986e-15 0)
(1.4 -2.0959e-15 0)
(1.4 -1.64618e-15 0)
(1.4 -1.90069e-15 0)
(1.4 -1.89461e-15 0)
(1.4 -1.864e-15 0)
(1.4 -1.83667e-15 0)
(1.4 -1.89368e-15 0)
(1.4 -1.80819e-15 0)
(1.4 -1.75203e-15 0)
(1.4 -1.63029e-15 0)
(1.4 -1.65407e-15 0)
(1.4 -8.81965e-16 0)
(1.4 -4.56682e-16 0)
(1.4 -1.60263e-16 0)
(1.4 5.82668e-17 0)
(1.4 -2.40319e-17 0)
(1.4 -5.83756e-17 0)
(1.4 -4.29217e-17 0)
(1.4 1.32558e-16 0)
(1.4 3.86395e-16 0)
(1.4 5.26018e-16 0)
(1.4 6.46188e-16 0)
(1.4 1.17145e-15 0)
(1.4 1.50264e-15 0)
(1.4 1.41627e-15 0)
(1.4 1.278e-15 0)
(1.4 1.29962e-15 0)
(1.4 1.40428e-15 0)
(1.4 1.65216e-15 0)
(1.4 1.88328e-15 0)
(1.4 2.06121e-15 0)
(1.4 2.72538e-15 0)
(1.4 3.00183e-15 0)
(1.4 3.34841e-15 0)
(1.4 3.47874e-15 0)
(1.4 3.53466e-15 0)
(1.4 3.36499e-15 0)
(1.4 3.26391e-15 0)
(1.4 2.99559e-15 0)
(1.4 2.37284e-15 0)
(1.4 2.01506e-15 0)
(1.4 1.71977e-15 0)
(1.4 1.41182e-15 0)
(1.4 1.23607e-15 0)
(1.4 1.28561e-15 0)
(1.4 1.23346e-15 0)
(1.4 1.08754e-15 0)
(1.4 9.79607e-16 0)
(1.4 1.01227e-15 0)
(1.4 1.02957e-15 0)
(1.4 1.00983e-15 0)
(1.4 9.02877e-16 0)
(1.4 7.92846e-16 0)
(1.4 5.68728e-16 0)
(1.4 3.78167e-16 0)
(1.4 2.01155e-16 0)
(1.4 1.89034e-16 0)
(1.4 1.17994e-16 0)
(1.4 -1.12401e-16 0)
(1.4 -4.28649e-16 0)
(1.4 -4.9144e-16 0)
(1.4 -6.22605e-16 0)
(1.4 -6.45399e-16 0)
(1.4 -7.97926e-16 0)
(1.4 -1.07614e-15 0)
(1.4 -1.48025e-15 0)
(1.4 -1.716e-15 0)
(1.4 -1.61417e-15 0)
(1.4 -1.56541e-15 0)
(1.4 -1.53927e-15 0)
(1.4 -1.56919e-15 0)
(1.4 -1.42414e-15 0)
(1.4 -1.38979e-15 0)
(1.4 -1.36396e-15 0)
(1.4 -9.53459e-16 0)
(1.4 -5.47789e-16 0)
(1.4 -4.24744e-16 0)
(1.4 -8.46382e-16 0)
(1.4 -1.10735e-15 0)
(1.4 -1.38138e-15 0)
(1.4 -2.00365e-15 0)
(1.4 -2.49213e-15 0)
(1.4 -2.56105e-15 0)
(1.4 -2.96939e-15 0)
(1.4 -3.40352e-15 0)
(1.4 -3.69718e-15 0)
(1.4 -3.87531e-15 0)
(1.4 -3.79215e-15 0)
(1.4 -3.59848e-15 0)
(1.4 -3.43026e-15 0)
(1.4 -3.31155e-15 0)
(1.4 -2.90047e-15 0)
(1.4 -2.69373e-15 0)
(1.4 -2.59662e-15 0)
(1.4 -2.56617e-15 0)
(1.4 -2.57511e-15 0)
(1.4 -2.76618e-15 0)
(1.4 -2.97597e-15 0)
(1.4 -3.4555e-15 0)
(1.4 -3.60671e-15 0)
(1.4 -3.63489e-15 0)
(1.4 -3.63673e-15 0)
(1.4 -3.56827e-15 0)
(1.4 -3.51942e-15 0)
(1.4 -3.46124e-15 0)
(1.4 -3.25765e-15 0)
(1.4 -3.15501e-15 0)
(1.4 -2.99764e-15 0)
(1.4 -2.66132e-15 0)
(1.4 -2.4358e-15 0)
(1.4 -2.36845e-15 0)
(1.4 -2.3523e-15 0)
(1.4 -2.22779e-15 0)
(1.4 -1.87195e-15 0)
(1.4 -1.3571e-15 0)
(1.4 -8.75661e-16 0)
(1.4 -5.48941e-16 0)
(1.4 -2.47372e-16 0)
(1.4 1.66905e-16 0)
(1.4 3.35117e-16 0)
(1.4 4.26438e-16 0)
(1.4 5.58034e-16 0)
(1.4 8.37423e-16 0)
(1.4 7.95658e-16 0)
(1.4 9.7965e-16 0)
(1.4 9.40341e-16 0)
(1.4 7.09522e-16 0)
(1.4 1.5802e-16 0)
(1.4 -3.34417e-16 0)
(1.4 -1.07871e-15 0)
(1.4 -1.49794e-15 0)
(1.4 -1.96486e-15 0)
(1.4 -2.42322e-15 0)
(1.4 -2.48148e-15 0)
(1.4 5.49459e-16 0)
(1.4 3.13444e-16 0)
(1.4 -6.36596e-17 0)
(1.4 -1.92882e-16 0)
(1.4 -4.10406e-16 0)
(1.4 -8.70109e-16 0)
(1.4 -9.72479e-16 0)
(1.4 -8.95585e-16 0)
(1.4 -8.12415e-16 0)
(1.4 -5.78648e-16 0)
(1.4 -5.83319e-16 0)
(1.4 -5.37024e-16 0)
(1.4 -5.75958e-16 0)
(1.4 -3.76615e-16 0)
(1.4 1.16713e-16 0)
(1.4 3.6305e-16 0)
(1.4 5.74303e-16 0)
(1.4 8.19693e-16 0)
(1.4 1.03908e-15 0)
(1.4 1.10269e-15 0)
(1.4 1.14819e-15 0)
(1.4 1.18254e-15 0)
(1.4 1.36127e-15 0)
(1.4 1.91234e-15 0)
(1.4 2.18453e-15 0)
(1.4 2.48626e-15 0)
(1.4 2.76145e-15 0)
(1.4 2.76951e-15 0)
(1.4 2.12359e-15 0)
(1.4 1.57082e-15 0)
(1.4 1.56123e-15 0)
(1.4 1.61793e-15 0)
(1.4 1.81537e-15 0)
(1.4 1.96542e-15 0)
(1.4 1.99906e-15 0)
(1.4 2.04024e-15 0)
(1.4 2.06186e-15 0)
(1.4 1.9742e-15 0)
(1.4 1.85525e-15 0)
(1.4 1.74649e-15 0)
(1.4 1.57909e-15 0)
(1.4 1.36619e-15 0)
(1.4 1.1663e-15 0)
(1.4 8.23082e-16 0)
(1.4 4.14655e-16 0)
(1.4 2.8026e-16 0)
(1.4 2.60674e-16 0)
(1.4 3.41508e-16 0)
(1.4 4.4396e-16 0)
(1.4 3.88161e-16 0)
(1.4 8.08638e-18 0)
(1.4 -6.22956e-16 0)
(1.4 -8.94572e-16 0)
(1.4 -1.11712e-15 0)
(1.4 -1.24258e-15 0)
(1.4 -1.37378e-15 0)
(1.4 -1.57523e-15 0)
(1.4 -1.5988e-15 0)
(1.4 -1.51915e-15 0)
(1.4 -1.6856e-15 0)
(1.4 -1.64409e-15 0)
(1.4 -1.63351e-15 0)
(1.4 -1.69572e-15 0)
(1.4 -1.87979e-15 0)
(1.4 -2.02511e-15 0)
(1.4 -2.14923e-15 0)
(1.4 -2.1216e-15 0)
(1.4 -2.2802e-15 0)
(1.4 -2.34104e-15 0)
(1.4 -2.4701e-15 0)
(1.4 -2.32839e-15 0)
(1.4 -2.18917e-15 0)
(1.4 -2.11969e-15 0)
(1.4 -1.96068e-15 0)
(1.4 -1.94763e-15 0)
(1.4 -1.99087e-15 0)
(1.4 -1.96902e-15 0)
(1.4 -1.95747e-15 0)
(1.4 -2.05552e-15 0)
(1.4 -2.1778e-15 0)
(1.4 -2.5442e-15 0)
(1.4 -2.50054e-15 0)
(1.4 -2.59752e-15 0)
(1.4 -2.51555e-15 0)
(1.4 -2.42016e-15 0)
(1.4 -2.48147e-15 0)
(1.4 -2.47957e-15 0)
(1.4 -2.39548e-15 0)
(1.4 -2.35086e-15 0)
(1.4 -2.3946e-15 0)
(1.4 -2.38099e-15 0)
(1.4 -2.40241e-15 0)
(1.4 -2.3663e-15 0)
(1.4 -2.36444e-15 0)
(1.4 -2.17443e-15 0)
(1.4 -1.98272e-15 0)
(1.4 -1.50202e-15 0)
(1.4 -1.35653e-15 0)
(1.4 -1.31724e-15 0)
(1.4 -1.28749e-15 0)
(1.4 -1.49458e-15 0)
(1.4 -1.65807e-15 0)
(1.4 -1.66288e-15 0)
(1.4 -1.56809e-15 0)
(1.4 -1.64562e-15 0)
(1.4 -1.71006e-15 0)
(1.4 -1.83977e-15 0)
(1.4 -1.93828e-15 0)
(1.4 -2.03164e-15 0)
(1.4 -2.02857e-15 0)
(1.4 -2.04545e-15 0)
(1.4 -2.0208e-15 0)
(1.4 -1.95765e-15 0)
(1.4 -2.04662e-15 0)
(1.4 -1.8465e-15 0)
(1.4 -1.53281e-15 0)
(1.4 -1.13983e-15 0)
(1.4 -6.10021e-16 0)
(1.4 -2.93578e-16 0)
(1.4 3.28899e-16 0)
(1.4 8.18403e-16 0)
(1.4 1.16929e-15 0)
(1.4 1.21785e-15 0)
(1.4 1.2439e-15 0)
(1.4 1.18885e-15 0)
(1.4 1.05948e-15 0)
(1.4 8.94497e-16 0)
(1.4 9.88276e-16 0)
(1.4 7.1035e-16 0)
(1.4 3.64467e-16 0)
(1.4 6.71462e-17 0)
(1.4 -5.44005e-16 0)
(1.4 -5.93942e-18 0)
(1.4 9.18001e-17 0)
(1.4 6.97698e-17 0)
(1.4 -1.44661e-16 0)
(1.4 -2.01624e-16 0)
(1.4 -2.49917e-16 0)
(1.4 -2.3021e-16 0)
(1.4 -7.36463e-17 0)
(1.4 1.73291e-17 0)
(1.4 -2.89027e-17 0)
(1.4 7.52984e-17 0)
(1.4 -2.56153e-17 0)
(1.4 -8.66371e-17 0)
(1.4 -1.83728e-16 0)
(1.4 -1.4668e-16 0)
(1.4 -1.05451e-16 0)
(1.4 -1.03097e-16 0)
(1.4 -1.79873e-16 0)
(1.4 -1.25274e-16 0)
(1.4 -2.19615e-17 0)
(1.4 -8.39862e-17 0)
(1.4 -3.41211e-16 0)
(1.4 -3.26372e-16 0)
(1.4 -1.68179e-16 0)
(1.4 -1.47094e-16 0)
(1.4 -3.50709e-16 0)
(1.4 -4.80424e-16 0)
(1.4 -8.39518e-16 0)
(1.4 -1.14805e-15 0)
(1.4 -1.38004e-15 0)
(1.4 -1.52433e-15 0)
(1.4 -1.43229e-15 0)
(1.4 -1.19916e-15 0)
(1.4 -1.20845e-15 0)
(1.4 -1.05779e-15 0)
(1.4 -1.03607e-15 0)
(1.4 -9.72822e-16 0)
(1.4 -1.03578e-15 0)
(1.4 -7.77749e-16 0)
(1.4 -5.83707e-16 0)
(1.4 -3.86262e-16 0)
(1.4 -4.33057e-18 0)
(1.4 2.10593e-16 0)
(1.4 2.71283e-16 0)
(1.4 3.28318e-16 0)
(1.4 1.52102e-16 0)
(1.4 4.59894e-17 0)
(1.4 -1.63873e-16 0)
(1.4 -2.56166e-16 0)
(1.4 -6.00292e-16 0)
(1.4 -5.12795e-16 0)
(1.4 -4.98225e-16 0)
(1.4 -5.56687e-16 0)
(1.4 -6.56971e-16 0)
(1.4 -9.47096e-16 0)
(1.4 -1.23487e-15 0)
(1.4 -1.36787e-15 0)
(1.4 -1.51545e-15 0)
(1.4 -1.62443e-15 0)
(1.4 -1.82247e-15 0)
(1.4 -1.98405e-15 0)
(1.4 -1.95651e-15 0)
(1.4 -1.75214e-15 0)
(1.4 -1.56641e-15 0)
(1.4 -1.62888e-15 0)
(1.4 -1.79523e-15 0)
(1.4 -1.76415e-15 0)
(1.4 -1.64686e-15 0)
(1.4 -1.52535e-15 0)
(1.4 -1.5151e-15 0)
(1.4 -1.39883e-15 0)
(1.4 -1.4668e-15 0)
(1.4 -1.49445e-15 0)
(1.4 -1.44182e-15 0)
(1.4 -1.42047e-15 0)
(1.4 -1.13115e-15 0)
(1.4 -9.428e-16 0)
(1.4 -8.49445e-16 0)
(1.4 -7.83431e-16 0)
(1.4 -6.39923e-16 0)
(1.4 -6.83124e-16 0)
(1.4 -6.10012e-16 0)
(1.4 -6.28571e-16 0)
(1.4 -6.99622e-16 0)
(1.4 -6.83551e-16 0)
(1.4 -8.57648e-16 0)
(1.4 -9.31241e-16 0)
(1.4 -9.95915e-16 0)
(1.4 -1.01228e-15 0)
(1.4 -1.08123e-15 0)
(1.4 -1.15374e-15 0)
(1.4 -1.32065e-15 0)
(1.4 -1.35303e-15 0)
(1.4 -1.33357e-15 0)
(1.4 -1.1622e-15 0)
(1.4 -1.01691e-15 0)
(1.4 -7.94173e-16 0)
(1.4 -4.87546e-16 0)
(1.4 -2.48274e-16 0)
(1.4 -1.58547e-16 0)
(1.4 -1.01475e-18 0)
(1.4 5.38275e-17 0)
(1.4 -1.19382e-16 0)
(1.4 -5.3402e-16 0)
(1.4 -8.15515e-16 0)
(1.4 -1.2882e-15 0)
(1.4 -1.78953e-15 0)
(1.4 -2.31917e-15 0)
(1.4 -2.49787e-15 0)
(1.4 -2.59916e-15 0)
(1.4 -2.71605e-15 0)
(1.4 -2.91063e-15 0)
(1.4 -3.12632e-15 0)
(1.4 -3.1927e-15 0)
(1.4 -3.20382e-15 0)
(1.4 -3.13087e-15 0)
(1.4 -2.93981e-15 0)
(1.4 -2.50618e-15 0)
(1.4 -1.8189e-15 0)
(1.4 -1.58334e-15 0)
(1.4 -1.24484e-15 0)
(1.4 -2.93936e-16 0)
(1.4 2.98753e-16 0)
(1.4 5.09243e-16 0)
(1.4 5.91142e-16 0)
(1.4 9.53755e-16 0)
(1.4 1.28794e-15 0)
(1.4 1.45467e-15 0)
(1.4 1.41827e-15 0)
(1.4 1.42458e-15 0)
(1.4 1.16422e-15 0)
(1.4 8.50793e-16 0)
(1.4 -4.05377e-16 0)
(1.4 -2.67106e-16 0)
(1.4 -2.06015e-16 0)
(1.4 -2.42188e-16 0)
(1.4 -2.84276e-16 0)
(1.4 -1.47812e-16 0)
(1.4 8.72248e-17 0)
(1.4 1.1607e-18 0)
(1.4 -9.49915e-17 0)
(1.4 -3.42567e-16 0)
(1.4 -4.28554e-16 0)
(1.4 -4.7082e-16 0)
(1.4 -5.38765e-16 0)
(1.4 -5.49126e-16 0)
(1.4 -5.28623e-16 0)
(1.4 -3.39109e-16 0)
(1.4 -6.43131e-16 0)
(1.4 -8.19479e-16 0)
(1.4 -9.64889e-16 0)
(1.4 -1.10198e-15 0)
(1.4 -1.14171e-15 0)
(1.4 -1.15525e-15 0)
(1.4 -1.09361e-15 0)
(1.4 -1.12305e-15 0)
(1.4 -1.14979e-15 0)
(1.4 -1.34889e-15 0)
(1.4 -1.52248e-15 0)
(1.4 -1.54903e-15 0)
(1.4 -1.62798e-15 0)
(1.4 -1.85708e-15 0)
(1.4 -2.16132e-15 0)
(1.4 -2.2597e-15 0)
(1.4 -2.48945e-15 0)
(1.4 -2.59728e-15 0)
(1.4 -2.30062e-15 0)
(1.4 -2.12359e-15 0)
(1.4 -1.94518e-15 0)
(1.4 -1.60434e-15 0)
(1.4 -1.09481e-15 0)
(1.4 -8.0318e-16 0)
(1.4 -6.39829e-16 0)
(1.4 -6.36617e-16 0)
(1.4 -6.17751e-16 0)
(1.4 -6.22202e-16 0)
(1.4 -5.02407e-16 0)
(1.4 -3.45518e-16 0)
(1.4 -4.19727e-16 0)
(1.4 -4.68881e-16 0)
(1.4 -4.64511e-16 0)
(1.4 -3.04476e-16 0)
(1.4 -3.09882e-16 0)
(1.4 -3.17543e-16 0)
(1.4 -2.7101e-16 0)
(1.4 -4.4031e-16 0)
(1.4 -6.21351e-16 0)
(1.4 -7.59639e-16 0)
(1.4 -7.87593e-16 0)
(1.4 -1.02711e-15 0)
(1.4 -1.15296e-15 0)
(1.4 -7.80686e-16 0)
(1.4 -9.18073e-16 0)
(1.4 -1.00683e-15 0)
(1.4 -8.00273e-16 0)
(1.4 -6.03042e-16 0)
(1.4 -4.79246e-16 0)
(1.4 -4.89513e-16 0)
(1.4 -1.93065e-16 0)
(1.4 1.04804e-16 0)
(1.4 2.76696e-17 0)
(1.4 -1.01845e-16 0)
(1.4 -2.69018e-16 0)
(1.4 -5.96243e-16 0)
(1.4 -7.91676e-16 0)
(1.4 -8.02854e-16 0)
(1.4 -8.11459e-16 0)
(1.4 -7.904e-16 0)
(1.4 -8.36145e-16 0)
(1.4 -6.42016e-16 0)
(1.4 -3.76113e-16 0)
(1.4 -3.5067e-16 0)
(1.4 -9.29582e-17 0)
(1.4 -9.78207e-17 0)
(1.4 -1.15854e-16 0)
(1.4 -2.4374e-16 0)
(1.4 -5.86158e-16 0)
(1.4 -7.35459e-16 0)
(1.4 -7.34486e-16 0)
(1.4 -9.72448e-16 0)
(1.4 -1.03229e-15 0)
(1.4 -1.10878e-15 0)
(1.4 -1.25034e-15 0)
(1.4 -1.22302e-15 0)
(1.4 -1.39433e-15 0)
(1.4 -1.08042e-15 0)
(1.4 -9.76342e-16 0)
(1.4 -1.01818e-15 0)
(1.4 -9.77652e-16 0)
(1.4 -4.46184e-16 0)
(1.4 2.887e-16 0)
(1.4 3.44624e-16 0)
(1.4 3.71587e-16 0)
(1.4 4.14314e-16 0)
(1.4 4.19833e-16 0)
(1.4 -2.36254e-16 0)
(1.4 -6.28421e-16 0)
(1.4 -8.68156e-16 0)
(1.4 -1.31397e-15 0)
(1.4 -2.32447e-15 0)
(1.4 -2.6553e-15 0)
(1.4 -3.23581e-15 0)
(1.4 -3.62945e-15 0)
(1.4 -3.83406e-15 0)
(1.4 -3.95294e-15 0)
(1.4 -3.84046e-15 0)
(1.4 -3.71964e-15 0)
(1.4 -3.58981e-15 0)
(1.4 -3.53919e-15 0)
(1.4 -3.22491e-15 0)
(1.4 -2.87404e-15 0)
(1.4 -2.70109e-15 0)
(1.4 -2.55326e-15 0)
(1.4 -2.09863e-15 0)
(1.4 -8.02756e-16 0)
(1.4 -2.5611e-16 0)
(1.4 3.7676e-16 0)
(1.4 7.64807e-16 0)
(1.4 1.00195e-15 0)
(1.4 9.68361e-16 0)
(1.4 6.83961e-16 0)
(1.4 6.16541e-16 0)
(1.4 3.09324e-16 0)
(1.4 3.4731e-18 0)
(1.4 1.11301e-15 0)
(1.4 7.72046e-16 0)
(1.4 5.84394e-16 0)
(1.4 5.22525e-16 0)
(1.4 4.91556e-16 0)
(1.4 3.46326e-16 0)
(1.4 1.3387e-16 0)
(1.4 -4.56959e-17 0)
(1.4 -3.49886e-16 0)
(1.4 -4.26478e-16 0)
(1.4 -8.87806e-16 0)
(1.4 -1.17427e-15 0)
(1.4 -1.49937e-15 0)
(1.4 -1.81121e-15 0)
(1.4 -1.84221e-15 0)
(1.4 -1.79261e-15 0)
(1.4 -1.64465e-15 0)
(1.4 -1.40692e-15 0)
(1.4 -1.25849e-15 0)
(1.4 -1.11151e-15 0)
(1.4 -1.10092e-15 0)
(1.4 -9.40838e-16 0)
(1.4 -7.809e-16 0)
(1.4 -4.5293e-16 0)
(1.4 -1.24392e-16 0)
(1.4 -1.45154e-16 0)
(1.4 -4.90999e-16 0)
(1.4 -5.62968e-16 0)
(1.4 -6.1159e-16 0)
(1.4 -7.52983e-16 0)
(1.4 -1.37132e-15 0)
(1.4 -1.94709e-15 0)
(1.4 -2.25167e-15 0)
(1.4 -2.68062e-15 0)
(1.4 -2.93449e-15 0)
(1.4 -2.93207e-15 0)
(1.4 -2.93776e-15 0)
(1.4 -2.81809e-15 0)
(1.4 -2.90926e-15 0)
(1.4 -3.32043e-15 0)
(1.4 -3.59938e-15 0)
(1.4 -3.55107e-15 0)
(1.4 -3.34836e-15 0)
(1.4 -3.06514e-15 0)
(1.4 -2.45676e-15 0)
(1.4 -2.36093e-15 0)
(1.4 -1.99508e-15 0)
(1.4 -1.77326e-15 0)
(1.4 -1.39726e-15 0)
(1.4 -1.14253e-15 0)
(1.4 -9.39691e-16 0)
(1.4 -6.25635e-16 0)
(1.4 -4.36912e-16 0)
(1.4 7.01545e-19 0)
(1.4 1.49696e-16 0)
(1.4 8.22728e-17 0)
(1.4 -1.32681e-16 0)
(1.4 -3.25749e-16 0)
(1.4 -3.9355e-16 0)
(1.4 -5.03902e-16 0)
(1.4 -4.78895e-16 0)
(1.4 -3.07638e-16 0)
(1.4 -2.37649e-16 0)
(1.4 1.62844e-17 0)
(1.4 2.053e-16 0)
(1.4 3.66902e-16 0)
(1.4 4.60351e-16 0)
(1.4 2.20487e-16 0)
(1.4 6.82963e-17 0)
(1.4 -2.79897e-16 0)
(1.4 -4.21055e-16 0)
(1.4 -5.22909e-16 0)
(1.4 -5.8597e-16 0)
(1.4 -8.3796e-16 0)
(1.4 -9.68835e-16 0)
(1.4 -1.20154e-15 0)
(1.4 -1.47895e-15 0)
(1.4 -1.51438e-15 0)
(1.4 -1.4155e-15 0)
(1.4 -1.3474e-15 0)
(1.4 -1.21762e-15 0)
(1.4 -1.24318e-15 0)
(1.4 -1.25799e-15 0)
(1.4 -1.30078e-15 0)
(1.4 -1.37425e-15 0)
(1.4 -1.52085e-15 0)
(1.4 -1.57216e-15 0)
(1.4 -1.54933e-15 0)
(1.4 -1.65047e-15 0)
(1.4 -1.689e-15 0)
(1.4 -1.59899e-15 0)
(1.4 -1.56683e-15 0)
(1.4 -1.36723e-15 0)
(1.4 -1.36231e-15 0)
(1.4 -7.46907e-16 0)
(1.4 1.35225e-18 0)
(1.4 6.10894e-18 0)
(1.4 4.15806e-16 0)
(1.4 4.60921e-16 0)
(1.4 3.67082e-16 0)
(1.4 5.61446e-17 0)
(1.4 -1.04325e-16 0)
(1.4 -3.13892e-16 0)
(1.4 -6.15292e-16 0)
(1.4 -1.10971e-15 0)
(1.4 -1.28444e-15 0)
(1.4 -1.61342e-15 0)
(1.4 -2.25696e-15 0)
(1.4 -2.72885e-15 0)
(1.4 -3.24158e-15 0)
(1.4 -3.36155e-15 0)
(1.4 -3.62819e-15 0)
(1.4 -3.70013e-15 0)
(1.4 -3.70297e-15 0)
(1.4 -3.50732e-15 0)
(1.4 -3.20477e-15 0)
(1.4 -2.944e-15 0)
(1.4 -2.86252e-15 0)
(1.4 -2.63087e-15 0)
(1.4 -2.54759e-15 0)
(1.4 -2.14004e-15 0)
(1.4 -1.46088e-15 0)
(1.4 -1.0846e-15 0)
(1.4 -9.82103e-16 0)
(1.4 -6.35674e-16 0)
(1.4 -5.38921e-16 0)
(1.4 -3.74093e-16 0)
(1.4 -1.96953e-16 0)
(1.4 -1.08304e-16 0)
(1.4 -1.17763e-16 0)
(1.4 -2.5307e-16 0)
(1.4 -3.88476e-16 0)
(1.4 1.41764e-15 0)
(1.4 1.3245e-15 0)
(1.4 1.23129e-15 0)
(1.4 1.10521e-15 0)
(1.4 1.0383e-15 0)
(1.4 9.24256e-16 0)
(1.4 5.38379e-16 0)
(1.4 3.7507e-16 0)
(1.4 2.94719e-16 0)
(1.4 1.54208e-16 0)
(1.4 -1.09534e-16 0)
(1.4 -3.15106e-16 0)
(1.4 -4.89574e-16 0)
(1.4 -7.88563e-16 0)
(1.4 -1.12432e-15 0)
(1.4 -1.34544e-15 0)
(1.4 -1.4313e-15 0)
(1.4 -1.33932e-15 0)
(1.4 -1.14449e-15 0)
(1.4 -8.98642e-16 0)
(1.4 -5.62655e-16 0)
(1.4 -2.55473e-16 0)
(1.4 -1.25931e-16 0)
(1.4 -1.59635e-16 0)
(1.4 -2.52717e-16 0)
(1.4 -2.93777e-16 0)
(1.4 -5.90465e-16 0)
(1.4 -8.32628e-16 0)
(1.4 -9.5695e-16 0)
(1.4 -1.08285e-15 0)
(1.4 -1.09723e-15 0)
(1.4 -1.73799e-15 0)
(1.4 -2.17139e-15 0)
(1.4 -3.03483e-15 0)
(1.4 -3.59075e-15 0)
(1.4 -3.94292e-15 0)
(1.4 -4.44715e-15 0)
(1.4 -4.54904e-15 0)
(1.4 -4.49014e-15 0)
(1.4 -4.46328e-15 0)
(1.4 -4.53095e-15 0)
(1.4 -4.52013e-15 0)
(1.4 -4.51388e-15 0)
(1.4 -4.30249e-15 0)
(1.4 -4.0925e-15 0)
(1.4 -3.76443e-15 0)
(1.4 -2.7231e-15 0)
(1.4 -1.98641e-15 0)
(1.4 -1.52255e-15 0)
(1.4 -1.04457e-15 0)
(1.4 -6.27336e-16 0)
(1.4 -1.8126e-16 0)
(1.4 -8.1513e-17 0)
(1.4 3.4202e-16 0)
(1.4 7.11032e-16 0)
(1.4 8.89915e-16 0)
(1.4 1.29847e-15 0)
(1.4 1.37322e-15 0)
(1.4 1.09363e-15 0)
(1.4 1.05029e-15 0)
(1.4 8.18773e-16 0)
(1.4 6.32991e-16 0)
(1.4 5.45749e-16 0)
(1.4 5.17181e-16 0)
(1.4 4.4208e-16 0)
(1.4 3.2528e-16 0)
(1.4 1.20242e-16 0)
(1.4 -1.0707e-16 0)
(1.4 -2.53584e-16 0)
(1.4 -4.67567e-17 0)
(1.4 -1.11689e-16 0)
(1.4 -3.1828e-16 0)
(1.4 -6.32622e-16 0)
(1.4 -8.99335e-16 0)
(1.4 -1.01814e-15 0)
(1.4 -1.07382e-15 0)
(1.4 -1.0211e-15 0)
(1.4 -1.16954e-15 0)
(1.4 -1.20129e-15 0)
(1.4 -1.08817e-15 0)
(1.4 -1.04256e-15 0)
(1.4 -1.0274e-15 0)
(1.4 -9.60945e-16 0)
(1.4 -9.4123e-16 0)
(1.4 -8.72942e-16 0)
(1.4 -8.22901e-16 0)
(1.4 -9.23316e-16 0)
(1.4 -9.53331e-16 0)
(1.4 -8.21225e-16 0)
(1.4 -5.82598e-16 0)
(1.4 -3.37093e-16 0)
(1.4 1.35526e-16 0)
(1.4 4.13344e-16 0)
(1.4 6.05211e-16 0)
(1.4 1.18713e-15 0)
(1.4 1.63221e-15 0)
(1.4 1.7482e-15 0)
(1.4 1.47455e-15 0)
(1.4 1.2701e-15 0)
(1.4 1.05814e-15 0)
(1.4 7.38167e-16 0)
(1.4 3.6956e-16 0)
(1.4 -2.98119e-16 0)
(1.4 -8.74552e-16 0)
(1.4 -1.17072e-15 0)
(1.4 -1.50297e-15 0)
(1.4 -1.83427e-15 0)
(1.4 -1.82433e-15 0)
(1.4 -1.85326e-15 0)
(1.4 -1.85175e-15 0)
(1.4 -1.88132e-15 0)
(1.4 -1.81033e-15 0)
(1.4 -1.76581e-15 0)
(1.4 -1.70966e-15 0)
(1.4 -1.69681e-15 0)
(1.4 -1.58774e-15 0)
(1.4 -1.26499e-15 0)
(1.4 -1.06425e-15 0)
(1.4 -1.09452e-15 0)
(1.4 -1.11714e-15 0)
(1.4 -1.13191e-15 0)
(1.4 -1.11108e-15 0)
(1.4 -1.26203e-15 0)
(1.4 -1.47628e-15 0)
(1.4 -1.49863e-15 0)
(1.4 -1.29758e-15 0)
(1.4 -1.24798e-15 0)
(1.4 -1.23047e-15 0)
(1.4 -1.24262e-15 0)
(1.4 -1.48549e-15 0)
(1.4 -1.59539e-15 0)
(1.4 -1.63541e-15 0)
(1.4 -1.46871e-16 0)
(1.4 5.20132e-17 0)
(1.4 2.06601e-16 0)
(1.4 4.02606e-16 0)
(1.4 5.40849e-16 0)
(1.4 7.38137e-16 0)
(1.4 7.94793e-16 0)
(1.4 9.01595e-16 0)
(1.4 7.69638e-16 0)
(1.4 8.04057e-16 0)
(1.4 1.01894e-15 0)
(1.4 1.03275e-15 0)
(1.4 1.12614e-15 0)
(1.4 1.13579e-15 0)
(1.4 1.05226e-15 0)
(1.4 9.93059e-16 0)
(1.4 8.19823e-16 0)
(1.4 6.08779e-16 0)
(1.4 4.54883e-16 0)
(1.4 2.47707e-16 0)
(1.4 9.04813e-17 0)
(1.4 -1.42472e-17 0)
(1.4 -1.83292e-16 0)
(1.4 -4.55301e-16 0)
(1.4 -9.9375e-16 0)
(1.4 -7.1015e-16 0)
(1.4 -8.26525e-16 0)
(1.4 -9.26256e-16 0)
(1.4 -1.08203e-15 0)
(1.4 -1.14104e-15 0)
(1.4 -1.33044e-15 0)
(1.4 -1.30075e-15 0)
(1.4 -1.61233e-15 0)
(1.4 -2.37229e-15 0)
(1.4 -2.59613e-15 0)
(1.4 -3.03858e-15 0)
(1.4 -3.48048e-15 0)
(1.4 -3.77166e-15 0)
(1.4 -3.88744e-15 0)
(1.4 -3.76465e-15 0)
(1.4 -3.63592e-15 0)
(1.4 -3.30159e-15 0)
(1.4 -3.12661e-15 0)
(1.4 -3.06859e-15 0)
(1.4 -2.95399e-15 0)
(1.4 -2.82184e-15 0)
(1.4 -2.51327e-15 0)
(1.4 -2.45202e-15 0)
(1.4 -2.3398e-15 0)
(1.4 -2.19791e-15 0)
(1.4 -2.15456e-15 0)
(1.4 -1.87192e-15 0)
(1.4 -1.46069e-15 0)
(1.4 -1.2263e-15 0)
(1.4 -9.94843e-16 0)
(1.4 -3.25172e-16 0)
(1.4 2.66946e-16 0)
(1.4 6.65151e-16 0)
(1.4 7.3651e-16 0)
(1.4 7.68305e-16 0)
(1.4 6.11317e-16 0)
(1.4 3.16072e-16 0)
(1.4 1.54169e-16 0)
(1.4 -2.30711e-16 0)
(1.4 -4.5016e-16 0)
(1.4 -7.28622e-16 0)
(1.4 -9.86581e-16 0)
(1.4 -7.00133e-16 0)
(1.4 -5.06242e-16 0)
(1.4 -1.3346e-16 0)
(1.4 1.13464e-16 0)
(1.4 3.88815e-17 0)
(1.4 -3.45795e-16 0)
(1.4 -4.1752e-16 0)
(1.4 -3.64321e-16 0)
(1.4 -5.76601e-17 0)
(1.4 1.54627e-16 0)
(1.4 4.03941e-16 0)
(1.4 6.39334e-16 0)
(1.4 7.22047e-16 0)
(1.4 6.5641e-16 0)
(1.4 6.58353e-16 0)
(1.4 6.45377e-16 0)
(1.4 8.08567e-16 0)
(1.4 8.41225e-16 0)
(1.4 1.01628e-15 0)
(1.4 1.24202e-15 0)
(1.4 1.55982e-15 0)
(1.4 1.77192e-15 0)
(1.4 2.33484e-15 0)
(1.4 2.79979e-15 0)
(1.4 3.45427e-15 0)
(1.4 4.01581e-15 0)
(1.4 4.47264e-15 0)
(1.4 4.53567e-15 0)
(1.4 4.28242e-15 0)
(1.4 3.94292e-15 0)
(1.4 3.29268e-15 0)
(1.4 2.74944e-15 0)
(1.4 1.9771e-15 0)
(1.4 1.18492e-15 0)
(1.4 6.00778e-16 0)
(1.4 4.99667e-16 0)
(1.4 3.44564e-17 0)
(1.4 7.43689e-17 0)
(1.4 7.33394e-17 0)
(1.4 -6.0503e-17 0)
(1.4 -6.66765e-17 0)
(1.4 -3.0373e-16 0)
(1.4 -3.1144e-16 0)
(1.4 -2.91095e-16 0)
(1.4 -1.04791e-16 0)
(1.4 1.29256e-16 0)
(1.4 2.41784e-16 0)
(1.4 3.47213e-16 0)
(1.4 3.39963e-16 0)
(1.4 1.39802e-16 0)
(1.4 5.7182e-17 0)
(1.4 -9.76365e-17 0)
(1.4 -1.60889e-16 0)
(1.4 -2.69885e-16 0)
(1.4 -3.56906e-16 0)
(1.4 -3.17631e-16 0)
(1.4 -3.26211e-16 0)
(1.4 -4.29822e-16 0)
(1.4 -6.1202e-16 0)
(1.4 -6.64287e-16 0)
(1.4 -7.27557e-16 0)
(1.4 -7.09571e-16 0)
(1.4 -7.06424e-16 0)
(1.4 -7.09276e-16 0)
(1.4 2.11353e-17 0)
(1.4 -3.78143e-16 0)
(1.4 -1.49229e-16 0)
(1.4 4.32203e-17 0)
(1.4 2.09032e-16 0)
(1.4 3.65666e-16 0)
(1.4 6.03985e-16 0)
(1.4 8.87055e-16 0)
(1.4 1.12257e-15 0)
(1.4 1.12697e-15 0)
(1.4 1.0935e-15 0)
(1.4 9.63407e-16 0)
(1.4 1.10523e-15 0)