/*--------------------------------*- C++ -*----------------------------------*\
  =========                 |
  \\      /  F ield         | OpenFOAM: The Open Source CFD Toolbox
   \\    /   O peration     | Website:  https://openfoam.org
    \\  /    A nd           | Version:  7
     \\/     M anipulation  |
\*---------------------------------------------------------------------------*/
FoamFile
{
    version     2.0;
    format      ascii;
    class       volScalarField;
    location    "1.194";
    object      T;
}
// * * * * * * * * * * * * * * * * * * * * * * * * * * * * * * * * * * * * * //

dimensions      [0 2 -2 0 0 0 0];

internalField   nonuniform List<scalar> 
12359
(
3.5708e-74
3.04862e-61
-1.23597e-198
-3.89946e-41
2.56752e-69
-4.96957e-27
3.22382e-22
-2.34329e-24
7.44447e-17
6.99702e-30
3.41732e-19
-1.04524e-12
0.257617
-4.13574e-37
-1.13072e-42
1.56176e-05
0.00266404
-1.75482e-109
4.31474e-113
2.17805e-51
-1.41858e-34
1.26413e-14
-5.50402e-56
8.22192e-48
1.44569e-58
-5.23539e-53
6.00529e-144
-8.63478e-147
-1.9574e-117
6.25179e-136
4.10308e-131
2.78588e-161
-8.03723e-177
-3.81675e-139
5.27077e-188
2.1079e-128
-5.51264e-90
8.38706e-77
1.74486e-71
-4.1763e-82
-9.75005e-64
7.65642e-80
1.29454e-96
5.03727e-99
6.92728e-123
9.87027e-121
-2.01186e-125
-2.54237e-133
7.50816e-115
-1.70102e-141
-2.58142e-150
-7.31953e-155
-2.88274e-163
6.77451e-107
-4.40506e-169
3.4296e-174
-1.56543e-101
1.21634e-179
-2.72205e-183
-1.91059e-185
-9.58032e-172
1.08519e-193
3.57052e-152
9.7575
3.0877e-105
8.29807e-33
9.34308e-92
8.25419e-158
-9.35984e-87
3.85574e-08
107.192
-3.64215e-66
1.47168e-201
3.66763e-84
5.60036e-46
-9.63778e-191
8.16714e-166
3.50231e-196
-4.12378e-94
-1.20748e-10
-1.8474e-26
-1.23542e-110
-1.3058e-239
-1.11562e-71
0.00185275
4.38314e-65
-4.91932e-109
1.16128e-154
1.19418
0.000605628
4.65824e-212
3.20463
1.55116e-213
1.54659e-92
-4.64576e-75
6.31493e-43
2.65331e-97
6.21205e-93
8.02759e-47
3.29739e-59
4.94514e-22
7.6278e-211
1.21855e-65
30.6662
-5.10139e-117
1.48065e-25
-3.29898e-204
0.00243778
2.36387e-73
1.5011e-26
1.16088e-99
-2.00802e-110
-2.32635e-30
2.16139e-25
-9.78897e-76
-5.32314e-138
1.65921e-24
-1.12925e-109
4.10423
-2.33199e-237
5.38927e-100
4.26261e-22
3.68492e-153
3.83308e-30
-8.1755e-109
-6.42188e-129
5.33965e-16
-5.33451e-71
2.92324e-197
-1.21035e-109
1.90292e-138
4.45083e-05
0.00117
0.000860299
-3.60212e-205
6.76803e-31
-3.84473e-137
5.55756e-32
1.95655e-207
7.83475e-17
-2.14467e-228
-4.36496e-71
2.3312e-33
2.50197e-204
6.23681e-17
6.31765e-27
2.87887e-239
0.0007914
-2.09692e-116
5.97378e-26
4.06465e-40
-8.1369e-209
8.23768e-33
1.20947e-151
2.8298e-218
116.243
9.91766e-23
4.51937e-05
9.90553e-98
-2.54728e-159
4.8174e-32
-2.28079e-158
1.03578e-29
3.47826e-32
2.9544e-226
-2.91316e-130
1.06239e-32
7.68228e-23
6.91426e-34
1.05577
-1.13572e-193
-2.96613e-192
1.49573e-34
-2.64418e-58
-1.87587e-118
3.1881e-17
-1.13292e-118
-4.58484e-120
-3.78138e-30
4.10078e-18
-1.33467e-36
2.72305e-216
6.09223e-197
-7.07222e-110
5.31906e-48
1.82185e-15
-1.31388e-92
-1.83316e-78
1.25971e-39
-5.60169e-93
-3.74015e-77
4.06408e-44
5.69714e-46
2.01953e-150
6.91127e-26
44.1024
1.82451e-55
-2.91363e-92
6.31868e-33
-8.56282e-109
9.2025e-26
5.97674e-40
-1.48568e-59
1.37029e-26
1.03193e-19
8.09261e-216
9.18997e-19
3.50487e-59
2.11902e-25
-3.1671e-99
1.35981e-222
5.54344e-12
8.21662e-12
158.11
5.17907e-15
-5.86744e-204
-2.29852e-92
-7.26751e-77
-6.94868e-92
-3.1096e-71
9.46488e-26
-1.45879e-100
6.61979e-31
3.11663
-1.16125e-109
4.20147e-222
-5.95069e-70
1.291e-74
1.38853e-18
-2.78568e-90
-1.40672e-89
5.84953e-228
3.13648e-17
3.25028e-54
-1.12088e-78
2.35379e-55
-1.81385e-235
4.9668e-31
-1.8739e-77
9.99977e-05
-4.7013e-219
3.53943e-62
-1.40748e-85
6.41186e-10
2.38507e-30
0.00119154
6.42426e-184
3.67209e-26
7.33905e-124
3.08501e-46
7.09823e-17
-7.70319e-79
-7.45371e-123
-8.99692e-90
1.40603
129.534
-3.07184e-235
-5.66742e-104
1.47215
195.728
2.48089e-58
9.15057e-31
2.32779e-20
2.33587e-26
-8.85929e-60
62.4569
4.12428
4.65176e-29
-3.13242e-105
3.90516e-31
6.15367e-34
7.52555e-48
3.0906e-33
-4.03942e-91
-1.36587e-101
2.55714e-220
-5.89742e-103
9.1301
8.06243e-29
-6.12976e-188
-1.20191e-208
4.72351e-26
-2.78032e-103
-8.33554e-94
2.08215e-63
2.16235e-231
1.60674e-20
1.24179e-209
5.82532e-210
2.51433e-162
1.83044e-30
-2.91982e-112
55.6958
-3.27028e-206
1.44653e-203
8.39286e-65
-3.10652e-124
1.35736e-26
-8.0246e-80
-1.7539e-152
1.12394e-211
8.424
1.50489e-19
8.93753e-213
-1.09315e-91
-4.57665e-81
-2.4164e-122
-2.228e-136
-3.95176e-140
-2.02233e-120
-2.67351e-111
-9.009e-16
-1.00307e-122
3.21997e-131
-2.21238e-77
1.55139e-31
2.00028
-8.88638e-122
1.00572e-50
6.78625e-06
-6.15985e-209
1.61044e-40
1.82008e-187
1.01727e-54
6.84324e-203
-1.17609e-120
1.16134e-15
1.45431e-37
4.26116e-16
4.0934e-94
-1.82036e-85
6.39524e-46
1.19737e-41
-2.23092e-84
3.64869e-46
2.31718e-46
-6.31048e-171
1.21295e-165
5.0835e-166
1.97416e-165
7.83256e-165
0.000394469
-6.46392e-231
1.16777e-24
7.84078e-31
3.83233e-50
1.93972e-31
4.88269e-37
3.06523e-65
1.12929e-56
4.8841e-37
2.05586e-57
1.94401e-50
4.27769e-29
1.9426e-28
1.00907e-29
-4.23135e-70
3.09362e-14
-1.93492e-72
-2.04039e-73
1.94753e-33
9.72691e-20
-1.64062e-113
2.07903e-167
4.8228e-55
9.93634e-169
-1.3414e-110
170.663
20.8018
-2.72471e-111
2.28486e-205
2.3442e-207
-1.35685e-216
1.48897e-37
7.09415e-217
4.28691e-217
1.44158
1.80526e-32
0.000464184
-1.12757e-113
1.29318e-27
-7.9285e-105
-1.40563e-84
1.3887e-25
1.01624e-55
-6.08357e-38
5.4593e-57
-5.65414e-114
-1.01697e-187
8.66079e-33
1.76509e-27
-7.77441e-112
2.55821e-11
8.55002e-26
1.02859e-42
5.15472e-40
6.3793e-34
1.64547e-204
9.90921
1.83882e-13
-1.79698e-112
2.11567e-10
-8.89521e-75
-9.59982e-227
1.09047e-227
-4.25731e-218
0.000863807
1.33711e-20
9.43036e-49
3.73916e-41
1.30618e-40
-9.87743e-74
-7.60266e-37
2.93448e-41
1.38065e-08
1.97343
8.31119e-11
1.0967e-49
1.10916e-30
5.57826e-72
1.06363e-26
1.31332e-60
9.22144e-54
2.36985e-139
6.17713e-62
3.33404e-35
6.25738e-216
185.959
-8.58108e-91
1.97488
3.50843e-28
1.82977e-100
1.19315e-28
1.12841
2.32229e-35
2.22485e-55
8.33443e-43
3.45054e-27
6.34406e-26
-1.68635e-106
-4.21648e-222
3.02283e-23
-1.85576e-201
1.86828e-05
4.18272e-137
-1.01324e-52
6.92046e-34
6.01689e-87
0.0103677
6.83196e-24
-1.58519e-61
-2.48586e-107
6.09137e-05
-4.33473e-176
-7.18935e-117
2.09757e-14
4.01799e-204
-3.609e-107
-7.94932e-118
1.31985e-07
17.7183
-5.93074e-73
5.84662e-159
-8.78767e-32
9.57296e-35
1.29691e-40
1.34825e-31
1.26421e-33
-7.21595e-170
-4.63323e-218
3.02053e-38
1.58104e-210
6.60873e-35
3.98631e-41
3.85112e-27
-1.43699e-121
2.78387e-24
5.96818e-13
-9.19686e-138
-1.57771e-74
-1.8348e-110
-2.07352e-28
3.86978e-14
-1.19643e-205
5.58064e-37
8.23889e-35
2.31771e-74
7.50107e-36
-1.99314e-135
8.50575e-21
9.61709e-57
1.45366e-29
1.88639e-27
-2.48037e-168
-1.62771e-74
1.12032e-09
0.00381096
7.39617e-212
6.55973e-53
4.89565e-10
1.41272e-37
0.849128
-4.48922e-218
7.47966e-138
-2.0045e-174
1.4783e-31
3.92683e-58
8.22089e-69
-5.10298e-134
5.28346e-39
5.44787e-52
-3.85523e-58
5.24966e-95
0.000336899
-2.01347e-196
0.000757071
6.14969e-156
148.179
1.07849e-55
2.21572e-10
3.74141e-182
-1.08387e-122
1.63542e-30
-2.0681e-111
-9.56646e-154
1.18156e-96
1.72049e-56
9.61118e-57
5.66288e-12
1.68182e-22
1.49603e-22
6.89986e-240
-3.43825e-111
2.52746e-39
0.00532124
1.36999e-239
1.26559e-192
3.40579e-34
-3.95608e-172
3.3208e-16
1.33551
110.612
3.3987e-238
-1.77958e-73
4.56541e-16
-2.20162e-66
-5.83868e-119
88.3052
7.57335e-195
2.83535e-23
8.48134e-33
1.57123e-74
-2.56581e-121
-4.21651e-151
2.37327e-88
3.18755e-31
8.18237e-58
7.82215e-73
1.12118e-236
-2.67515e-195
1.12995e-60
-4.52908e-118
7.48178e-27
1.06153e-31
9.57971e-161
-1.31667e-189
1.44926e-28
177.555
2.46236e-132
8.19659e-09
-2.87073e-208
7.25513e-72
2.16724e-23
4.64071e-37
1.56126e-17
1.02536e-27
1.74037e-57
5.24669e-28
-1.48346e-223
-1.36816e-189
3.16682e-40
4.80018e-65
7.37051e-59
1.62982e-66
1.21458e-218
-1.32063e-188
-1.60932e-128
3.06489e-45
1.96368e-24
-2.58731e-32
-1.09406e-89
-1.06462e-30
1.03269e-33
4.02374e-54
-9.44081e-30
4.79307e-54
2.5152
4.55674e-32
5.22997e-52
5.89435e-28
-6.40465e-189
1.62567e-22
3.81949e-30
-1.6195e-240
6.22203e-206
-1.81559e-171
-1.00761e-179
6.57149e-07
1.2496e-53
2.45921e-80
-1.42094e-31
7.20712e-96
1.44267e-15
3.32748e-38
6.27922e-31
-1.33779e-127
1.75032e-10
-7.90138e-219
-1.1912e-45
-8.45602e-109
9.73004e-19
-4.13562e-29
2.9598e-62
3.01121e-53
8.99622
1.25515e-34
2.42026e-13
2.51746e-61
1.95464e-11
0.619018
-6.82128e-163
-1.54476e-113
1.67873e-219
3.06853e-08
-6.2616e-114
1.08906e-57
0.0084758
3.42288e-193
-5.31404e-58
9.70907e-31
3.1292e-58
-3.76215e-130
2.45552e-63
-9.30379e-159
-5.87985e-63
5.41615e-162
-1.41222e-157
-1.55059e-67
2.76412e-30
2.85394e-33
6.01832e-57
3.01988e-08
8.20601e-38
16.1539
2.65431e-34
8.05466e-64
-3.8126e-65
6.84363e-36
6.19918e-49
3.22865e-44
0.585922
-2.16857e-34
3.07261e-51
6.60084e-49
-1.47674e-110
-3.32458e-119
5.32685e-29
-1.31595e-220
26.0401
-5.09545e-164
-1.76475e-33
1.06452e-21
4.87135e-07
4.49921e-18
2.31273e-27
7.51129e-32
3.99594e-62
2.6275e-18
2.11208e-40
3.14077e-13
1.99176e-48
3.51914e-13
1.46975e-49
3.38287e-232
4.65376e-50
176.757
4.95016e-13
-8.32513e-88
4.70909e-225
-1.90276e-158
1.95863e-81
-1.44859e-52
6.42428e-34
1.42701e-52
-6.84012e-171
-2.05752e-86
1.87295e-48
-2.0054e-90
2.11986e-95
2.59661e-12
-2.10094e-101
9.62846e-42
4.00533e-24
1.37521e-87
-1.90538e-79
2.30934e-27
1.84927e-241
-3.63549e-84
52.9151
-2.98621e-186
6.01606e-16
2.60266e-22
8.4964e-81
8.82704e-32
2.84498e-24
3.2142e-50
2.09704e-25
2.1033e-115
-7.71609e-32
-4.88247e-119
1.69388e-47
2.38809e-26
-1.18576e-30
6.04409e-115
1.71466e-27
7.14426e-06
6.43751e-43
6.59042e-63
-2.49664e-107
5.80554e-22
7.68545e-07
-1.9335e-112
1.76973e-205
1.80006e-50
3.12332e-214
0.72219
5.57849e-49
3.93226e-12
6.3922e-61
9.47937e-54
14.7634
2.94853e-59
0.00175596
4.7061e-35
105.785
8.62764e-39
-8.16236e-72
1.47134e-60
1.17214e-75
0.00458584
0.000456171
6.59047e-160
2.57189e-157
-1.23932e-28
9.86138e-148
0.00375505
5.37018e-27
4.51987e-10
-2.53829e-107
126.719
0.100892
2.30694e-48
1.08357e-231
8.81587e-120
-1.64918e-36
6.38975e-80
-6.84124e-89
3.95261e-77
8.30487e-35
1.57594e-41
57.3157
2.73647e-07
-1.92795e-172
5.18803e-36
9.55266e-24
-1.5479e-27
1.98806e-66
2.70372e-22
9.40858e-29
-1.57372e-35
-1.36948e-127
-5.76087e-230
7.66995e-20
6.33699e-17
2.33023e-54
-1.56171e-29
6.48707e-13
5.07278e-65
2.80066e-51
1.88299e-107
1.70813e-71
1.56098e-14
6.82899e-70
3.94209e-24
4.04577e-38
4.1427e-44
5.43724e-87
1.44817e-72
2.69494e-06
9.04751e-63
1.59326e-66
59.4265
4.29619e-46
1.28441e-66
0.00993796
2.32393e-235
1.86676e-61
3.39415e-56
-2.66366e-80
-2.23313e-131
1.02512e-52
-1.15175e-242
1.60009e-09
-8.01433e-113
-7.37019e-57
1.4649e-20
1.20344e-31
3.88826e-57
1.24477e-59
7.85685e-21
92.7319
-1.15491e-187
2.28362e-99
1.54907e-65
0.00836784
4.19873e-17
1.55825e-116
3.75497
3.53712e-229
-8.67938e-115
187.788
-2.86056e-88
9.62036e-114
1.14052e-110
2.7649e-39
-1.10477e-38
4.6774e-186
-5.10612e-82
2.48149e-24
1.86812e-56
2.00764e-60
8.51871e-78
-7.37788e-162
-1.25228e-37
2.97111e-06
-7.15709e-64
-1.35002e-30
1.06689e-35
1.65503e-45
2.44395e-10
1.58521e-24
1.30325e-76
-2.76003e-113
0.000535854
9.43305e-30
6.37701e-45
-7.0334e-106
-1.81237e-178
1.1317e-35
1.16582e-10
1.09311e-64
6.93985e-28
2.36462e-63
3.88076e-76
-7.55885e-95
2.53453e-38
149.956
19.2966
4.28631e-37
-3.98402e-61
-1.02899e-96
2.78212e-39
0.0129436
-5.7098e-33
4.74717e-118
4.03837e-11
9.78216e-08
10.0858
1.35472e-79
92.8149
-6.70498e-184
8.3837e-75
-2.02546e-180
8.48033e-11
8.40231e-44
84.2689
-2.75012e-119
0.0214948
1.14413e-146
-1.18774e-61
4.26507e-27
8.89863e-82
7.80565e-12
0.161785
-9.87455e-87
3.64999e-86
8.06266e-61
1.46874e-80
-4.50262e-88
1.28923e-13
4.24218e-46
4.25302e-59
2.56741e-15
-3.46199e-88
3.22403e-173
-1.53528e-65
-4.28187e-157
2.35018e-26
2.22618e-60
5.06518e-09
8.45233e-11
-6.85443e-41
1.20527e-31
3.01471e-35
1.28296e-61
0.0150493
1.03459e-66
-3.94381e-92
7.1256e-218
5.76817e-11
-3.90961e-34
-1.64993e-120
2.49699e-25
-4.03142e-78
7.56591e-32
-2.3376e-36
-6.79526e-32
2.49757e-36
90.522
7.43222e-35
-7.98448e-40
0.172142
1.40846e-81
2.62253e-07
4.81918e-23
1.10269e-150
2.34818e-65
7.3789e-94
4.26519e-65
-5.20627e-225
-6.39142e-109
3.4982e-07
4.88621e-11
-1.08616e-109
209.662
1.95416e-28
-6.12804e-158
1.00426e-11
3.97032e-12
-1.52744e-160
1.31793e-10
2.03742e-21
4.82656e-11
-2.67759e-157
-2.66699e-121
1.2433e-95
1.2687e-160
-1.13987e-35
30.3449
-1.95717e-122
7.54793e-12
7.73166e-238
2.80575
1.00535e-25
7.2776e-33
-3.00276e-196
-5.97155e-124
6.76445e-74
8.46333e-38
4.80255e-15
1.73877e-32
-4.49772e-89
3.10305e-85
-4.05784e-156
6.56837e-27
3.81211e-37
1.56373e-93
2.88152e-204
2.67133e-51
9.90649e-33
1.1805e-42
-6.91733e-128
9.65588e-07
7.04449e-28
4.06278e-147
1.3188e-42
9.45205e-85
7.14024e-68
196.573
-1.57174e-89
-3.27348e-157
1.31131e-34
-3.40137e-35
-3.80831e-43
2.97279
-4.66847e-59
7.21971e-69
2.08263e-31
-1.83298e-80
1.32726e-76
1.70889e-67
-4.85414e-80
-1.24807e-28
-3.75085e-71
16.8666
-4.92437e-42
6.94174e-10
8.12381e-75
0.0231202
1.45422e-30
1.01296e-08
1.92011e-13
9.53848e-30
4.83641e-67
5.36326e-73
7.69318e-54
-4.68348e-238
1.7428e-70
6.58169e-35
1.42509e-11
-9.49617e-81
2.64987e-148
1.50415e-31
7.14516e-33
5.35299e-16
3.45291e-38
2.88434e-11
7.66877e-16
-9.8004e-105
1.90119e-48
0.961324
4.81855e-36
-1.8494e-228
1.43474e-80
3.30757e-84
-1.41409e-231
1.31613e-49
-1.15798e-187
4.10831e-69
1.51632e-14
1.00471e-32
3.84868e-06
-1.83985e-182
-5.64028e-124
6.45561e-213
-7.96836e-82
-1.72367e-97
9.26757e-09
-2.46678e-97
-3.58992e-124
6.43496e-07
9.04514e-34
2.42141e-41
7.80065e-51
5.21759e-17
-4.88231e-88
5.58036e-12
1.06103e-73
2.8408e-175
0.00245871
1.67061e-37
4.77981e-20
3.54919e-93
56.6237
-1.31695e-38
2.00561e-42
1.6596e-29
6.1397e-29
55.0402
3.46907e-71
1.39433e-11
-4.87473e-47
9.1068e-44
-2.27712e-136
2.03736e-59
1.84129e-07
5.24743e-74
8.7613e-09
-5.58089e-87
-7.95831e-91
1.22228e-12
2.37708e-139
-5.43218e-117
8.33074e-70
3.04044e-36
5.1574e-11
-4.09624e-88
4.47641e-83
-8.17259e-212
5.69519e-46
0.00287997
2.51812e-39
-6.65356e-83
4.94889e-59
7.32526e-89
-2.30112e-121
14.6174
-2.00761e-45
-8.72586e-207
2.96099e-47
2.17775e-91
-1.94426e-37
-2.70172e-27
4.44405e-38
7.55314e-82
3.18912e-14
6.26303e-11
5.43241e-201
2.60599e-56
2.57914e-11
-7.94806e-121
-1.9911e-182
-4.79955e-61
7.77479e-47
1.06907e-75
-6.49662e-181
7.02786e-48
2.97446e-12
-1.47733e-159
2.13428e-22
9.64578e-187
6.32256e-93
2.68754e-53
5.24791e-05
-9.48694e-218
2.24279
-2.65883e-44
7.77575e-21
43.9269
-6.88519e-41
5.13142e-53
0.0389207
-1.28887e-81
1.7468e-05
2.09778e-18
2.26376e-61
1.05028e-71
4.32106e-73
-5.60606e-92
-3.44518e-96
6.89309e-20
0.030759
199.704
3.61707e-23
-4.00222e-28
0.0566059
2.34343e-25
16.3402
-1.95273e-135
-1.37753e-90
2.10943e-18
4.82475e-40
5.53338e-111
5.24913e-23
1.45598e-73
51.4172
4.53954e-227
-1.93161e-125
-3.4312e-129
209.064
-2.51295e-35
4.76814e-43
-5.15048e-73
9.3479e-19
1.06731e-75
-1.01267e-125
4.42006e-07
3.63589e-72
4.09801e-07
4.95535e-20
1.15043e-61
7.02464e-14
1.08869e-38
-1.85096e-90
-1.99755e-121
1.18854e-120
0.245381
3.55502e-13
4.83623e-97
1.67008e-17
2.3067e-41
9.18012e-24
-2.37234e-217
6.36676e-43
2.69237e-07
1.24682e-08
-1.02383e-39
-5.40423e-64
-1.65832e-122
5.88885e-15
-1.47967e-78
-1.2834e-125
6.17744e-10
3.36227e-16
-2.31602e-101
3.55909e-29
6.0638e-36
-2.7834e-214
4.08656e-112
-1.25268e-179
-8.01359e-39
91.1451
2.87146e-11
1.06796e-18
-1.47075e-105
1.73615e-77
7.59719e-37
3.80588e-210
3.9814e-09
2.58619e-39
101.64
-6.80192e-27
5.52241e-66
4.57498e-103
-3.55016e-134
9.14438e-72
-1.96606e-79
-5.1731e-111
14.6391
1.26115e-14
2.97952e-34
1.31794e-16
-4.07851e-41
-9.18092e-120
5.42442e-237
3.3437e-109
2.35444e-25
1.0065
-1.70831e-21
5.08829e-42
-1.38275e-46
-1.15152e-72
4.22643e-15
0.0392741
0.0270428
5.50872e-80
-8.25574e-66
5.21454e-27
-6.35846e-90
-3.31494e-173
-6.77509e-110
1.88614e-13
-1.10306e-98
7.59345e-55
-9.09833e-87
2.04977e-39
4.86253e-08
-1.83533e-91
-1.082e-109
4.13355e-10
7.24041e-14
-1.5718e-92
2.32814e-135
-9.72478e-48
0.00301287
9.26654e-25
1.21753e-21
-4.37216e-50
6.66144e-52
0.0827461
4.76044e-76
-1.42615e-21
-5.31045e-120
2.13316e-12
2.05141e-11
-2.99537e-159
-3.73869e-131
90.7263
-8.12435e-112
7.32451e-70
1.99057e-26
-5.37041e-102
-5.64999e-100
-6.73888e-88
-3.34448e-113
3.72407e-213
4.43127e-15
2.08422e-05
-5.34581e-132
0.0187692
5.03984e-76
-6.94021e-114
1.96905e-12
5.24616e-09
7.44965e-26
-2.4991e-80
-6.16366e-109
-3.33088e-43
152.603
-1.84381e-98
-1.03851e-132
-3.41998e-139
1.33436e-98
6.23261e-57
5.30325e-27
-3.19188e-101
-5.33103e-76
-3.70496e-120
7.5258
1.12406e-08
1.21629e-35
-1.20971e-37
1.28532e-74
-6.65294e-114
8.04377e-15
1.42964
1.78943e-70
-1.35713e-138
-2.43658e-115
2.0612e-13
-1.96911e-101
-8.66302e-121
8.70426e-08
7.68985e-80
-1.37756e-108
116.492
3.28787e-05
17.3637
2.20798e-14
-6.1993e-101
4.30711e-11
2.54588e-10
0.179661
3.53411e-90
6.05439e-26
6.19912e-213
0.124094
1.28695e-231
9.83436e-92
1.31204e-74
-1.11778e-137
3.41034e-38
-2.64866e-90
-1.70711e-99
2.4101e-91
8.10176
5.67865e-14
1.82974e-33
-1.42394e-108
6.29716e-28
22.4893
1.31394e-08
9.70917e-42
-6.35068e-49
5.96229e-92
2.32335e-80
-6.25715e-133
1.07328e-102
-1.71043e-130
-4.61013e-111
-5.16922e-42
1.12868e-14
7.09889e-16
0.339616
0.000127044
1.90186e-08
2.51731e-23
0.129598
-3.09294e-122
4.92756e-05
-1.24258e-115
0.00188637
6.81863e-09
3.06911e-33
2.78086e-100
6.86876e-33
1.95336e-21
5.67294e-59
104.692
2.33114e-12
0.393193
-1.74312e-112
1.57828e-09
3.85162e-07
1.1448e-09
1.87268e-07
1.39298e-10
-8.05402e-109
-3.96239e-92
1.4156e-35
-3.0039e-104
1.96555e-27
1.82343e-94
3.67096e-36
-2.41934e-163
-1.77403e-85
5.61201e-19
2.76209e-26
-6.49269e-127
-1.4895e-45
1.03322
84.9871
-2.04564e-138
1.79094e-48
3.52546e-68
1.4753e-10
3.81506e-28
5.35564
4.97554e-05
2.7911e-92
1.09171e-36
2.96099e-07
-1.14119e-23
6.98581e-06
5.11127e-52
1.18163e-11
-1.11081e-127
0.20751
3.37223e-08
2.21255e-133
1.65739e-07
0.209591
4.01285e-44
4.6471
1.68777e-78
9.67162e-09
2.72245e-74
-9.21727e-143
3.87287e-70
2.46175e-74
0.0907551
0.00172446
0.0446667
-2.41229e-127
8.14687
5.63856e-34
1.54375e-12
-9.35036e-31
2.45854e-38
3.29893e-46
0.0228508
4.54274e-77
3.59852e-86
6.97062e-18
4.9602e-09
6.75091e-27
2.39326e-17
-6.7719e-55
0.0541188
1.15514e-28
1.52842e-27
2.82757e-09
1.87563e-166
9.99483e-08
2.44275e-09
5.73093e-08
5.81402e-72
0.00119046
-6.43715e-134
4.91383e-28
1.01078e-36
8.20142e-05
2.4515e-68
7.3076e-19
1.96051e-08
83.6559
2.14525e-103
7.84556e-31
-1.14922e-45
1.41839e-07
1.85291e-17
9.76833e-91
1.73725e-35
-1.13946e-135
11.9921
3.35356e-216
-1.88818e-135
-4.6108e-178
1.40183e-06
-2.56163e-107
2.0877e-35
10.2304
4.75398e-48
9.05823e-56
-1.36001e-102
7.06848e-170
1.31731e-09
-9.08682e-137
-6.20105e-40
6.80265e-12
-2.33949e-44
3.54979e-06
-4.92649e-85
2.4721e-34
1.89582e-07
1.09736e-17
4.99547e-64
94.1501
-7.24627e-220
1.68453e-165
-3.05899e-81
231.261
6.43506e-73
2.99322e-65
1.02294e-07
-3.18763e-100
-1.70842e-83
6.81283e-13
1.19223e-05
1.44911e-29
0.0108993
-2.35214e-100
2.80085e-81
3.60648e-37
2.1087e-42
8.80605e-05
-4.53059e-117
3.08921e-61
-1.81672e-52
2.16379e-17
2.23434e-55
-2.39107e-128
2.2932e-37
-1.14003e-18
1.08902e-193
-1.70041e-187
5.06155e-05
3.5402e-29
9.44139e-05
2.9895e-82
9.49465e-227
-1.67375e-17
1.78976e-06
-2.50646e-119
-4.42975e-97
-3.17525e-134
16.4904
1.50251e-193
1.29457e-30
9.6476e-05
-2.23271e-184
1.92537e-168
7.86214e-18
-1.28781e-145
-4.26041e-188
1.05134e-35
5.05358e-13
-5.19236e-130
7.74426e-21
-1.70864e-139
1.3464e-07
1.14377e-228
1.56051e-07
7.11952e-13
6.07118e-19
-1.04977e-183
2.03082e-14
5.62863
-2.67505e-91
1.34069e-46
9.72364e-147
2.66974e-13
-1.05807e-139
1.15852e-06
4.75522e-09
-2.92306e-79
8.23024e-176
2.05064e-13
1.10579e-13
3.54898e-41
1.13126e-38
3.8261e-16
-4.11741e-144
6.88354e-15
2.53889e-177
2.00385e-05
1.65388e-08
2.78828e-08
2.01806e-18
-1.22113e-22
13.5388
1.89824e-18
2.36903e-37
2.61322e-14
-2.96171e-94
1.91073e-11
4.72767e-16
-3.3486e-42
5.3432e-71
0.104819
5.50991e-192
0.0517786
107.227
-2.91433e-104
4.20482e-08
102.812
1.83796e-33
6.07866e-35
1.14289e-15
-2.80769e-51
-5.0087e-134
9.39911e-08
0.0144945
0.85464
-1.8853e-93
1.61689e-13
0.000546019
4.85497e-14
-1.83669e-110
3.23199e-163
2.77374e-27
0.0258151
9.45528e-09
4.92032e-16
-1.79964e-219
-2.99584e-141
2.94585e-14
-8.61226e-100
1.80186e-39
-9.33632e-96
5.12808e-173
3.2391e-07
2.80854e-77
0.000240861
1.54875e-40
-2.24989e-155
9.43483e-163
6.88751e-15
-1.03295e-94
1.0621e-32
8.98557e-16
0.973985
-6.16251e-48
-1.22969e-127
3.01331e-06
-4.52064e-92
-4.54782e-137
2.01457e-60
1.45158e-13
-8.09754e-90
1.02769e-13
3.33867e-41
222.911
1.98099e-14
-3.24347e-121
0.000119849
-6.66313e-177
7.57008e-09
2.18096e-34
8.44005e-06
0.00554782
-2.21176e-43
0.000191621
-9.84532e-154
1.56197e-08
-1.1872e-115
3.13821e-49
4.45248e-05
5.91411e-26
1.66003e-05
0.0183679
-1.75983e-19
1.77656e-07
2.8631e-06
-6.40547e-125
-8.12472e-139
-1.88008e-175
0.000245431
-4.30212e-24
-1.79801e-123
2.33873e-07
2.41626e-05
1.41541e-33
2.01736e-12
1.10154e-48
-5.18124e-33
0.00361282
8.82709e-68
1.59327e-26
3.63854e-31
3.08211e-214
1.787e-211
-1.15353e-125
-2.19387e-93
2.40231e-39
-4.43173e-157
1.5051e-79
1.41072e-101
-8.62009e-60
4.24872e-15
3.32219e-110
1.78522e-06
3.43046e-230
3.21979e-11
4.65605e-06
-6.27687e-120
6.20038e-05
5.03823e-12
8.35108e-06
1.21309e-54
2.15805e-16
-7.9666e-102
9.81048e-35
6.9874e-44
4.07572e-164
-7.94828e-117
5.60741e-86
-1.70265e-118
3.38719e-182
-1.76463e-52
1.03292e-183
-4.91581e-30
9.11058e-22
0.0702135
3.41702e-159
7.85956e-59
-2.54253e-155
5.16643e-99
3.57284e-21
6.32042e-61
-1.08712e-121
122.342
3.29405e-14
2.00499e-29
5.37059e-57
8.16488e-15
3.99947e-23
6.96507e-57
3.32156e-17
2.86486e-13
1.35635e-101
7.84602e-179
-1.21901e-77
2.42976e-07
-4.06614e-138
-5.57665e-126
1.28755e-13
1.98357e-104
-5.28029e-100
5.39933e-67
-1.37138e-128
0.00137948
-2.57357e-157
-1.91687e-127
9.85751e-19
1.58989e-17
7.18338
4.1969e-13
-4.41425e-55
-2.42026e-121
4.619e-16
-8.59815e-123
2.07953e-25
3.80742e-41
1.42721e-102
6.77852e-06
5.98358e-192
6.05554e-21
-1.482e-52
1.25534e-14
-6.66106e-42
-1.7227e-187
6.95997e-103
3.41195e-229
8.9794e-24
-6.28573e-140
1.47632e-18
1.14472e-39
-3.29807e-84
-1.105e-53
7.69576e-36
1.98643e-180
1.58937e-20
1.24989e-20
-2.26537e-94
1.20369e-18
1.59536e-07
2.24414e-171
5.10528e-36
2.51558e-11
1.34913e-12
4.77902e-71
5.44644e-39
8.57666e-38
8.59653e-42
1.54363e-68
9.24643e-15
1.65921e-68
-2.5221e-120
-1.70636e-121
0.0781027
2.7459e-08
0.00010488
1.81895e-06
-4.18016e-34
5.37327e-20
6.71496e-40
3.43663e-18
-7.06094e-121
3.88247
-7.41791e-99
3.286e-06
1.02647e-06
-3.23504e-124
-6.57662e-25
1.29535e-08
8.93502e-06
3.81441e-38
3.05432e-25
-2.44216e-122
1.69151e-199
9.79421e-15
6.71455e-179
-1.87329e-160
5.48962e-17
4.29828e-100
-1.993e-62
-3.44853e-126
1.24989e-79
1.09101e-14
11.4745
-1.73727e-93
-3.04131e-101
2.45776e-08
-8.01142e-37
6.42035e-11
1.12019e-23
2.6914e-25
1.37467e-101
9.75743e-36
3.287e-15
1.1063e-16
-1.63739e-29
7.14614e-151
1.37051e-05
1.93417e-29
6.31396e-19
1.86503e-78
-6.60108e-126
2.37134e-16
-1.95609e-91
-1.96776e-173
6.3069e-22
2.24404e-08
-1.11251e-157
3.16602e-20
1.04131e-42
5.64863e-109
-7.12191e-71
-1.57008e-107
6.23015e-22
-3.82743e-121
-2.51423e-127
5.66796e-39
2.54088e-22
-1.32666e-38
-2.44723e-29
10.5442
8.90271e-104
2.35157e-58
0.471377
4.12861e-31
-7.66557e-109
1.61888e-30
0.0151733
4.34845e-164
-9.75744e-103
2.49889e-174
8.76309e-25
2.14057e-14
3.06074e-42
2.79001e-185
-2.56038e-74
2.02776e-59
1.98791e-85
2.26663e-09
-9.70704e-96
-2.52971e-184
1.22134e-180
1.00076e-26
1.0161e-38
1.82734e-05
-2.44709e-77
-9.99674e-47
4.36879e-26
3.01516e-14
-2.13036e-137
1.59902e-23
5.92597e-167
3.44251e-160
-3.694e-186
1.05091e-09
-2.0035e-103
2.895e-23
2.3869e-20
3.34335e-25
2.34607e-15
2.94887e-26
2.33243e-13
2.77148e-25
-2.14228e-95
3.20746e-26
-3.65192e-46
1.10073e-32
5.57953e-21
-1.35603e-101
41.1866
9.59411e-17
7.59467e-19
-7.92119e-156
1.53005
7.20102e-15
1.5212e-16
-1.66601e-30
6.90615e-06
4.45145e-60
-1.7188e-100
4.50198e-81
2.6277e-83
2.11519e-78
1.10505e-17
2.36505e-21
-5.37837e-109
8.19383e-24
8.18872e-87
3.72121e-78
1.36255e-47
-1.78609e-44
4.27044e-64
-7.50826e-54
-3.58594e-43
8.29988e-22
2.84177e-25
1.80734e-44
7.34583e-181
-6.72324e-88
3.51435e-95
8.92859e-11
-3.58375e-138
-3.35514e-106
2.77715e-24
1.92663
-5.67345e-120
2.84723e-05
-1.01378e-122
-5.37252e-92
4.02187e-36
9.4117e-28
3.5472e-32
-3.04781e-135
8.53716e-18
1.02341e-20
2.33678e-11
2.92135e-159
1.67196e-22
4.57496e-39
9.37814e-48
-1.18077e-184
-4.41631e-219
1.01612e-26
1.55326e-38
1.42522e-55
58.7648
2.19883e-22
5.56657e-31
-1.39191e-24
1.29949e-39
4.26807e-11
7.06007e-103
8.22257e-43
7.37503e-69
-3.90162e-83
0.0123109
6.25183e-21
5.27694e-21
9.09687e-34
-2.14775e-131
9.94657e-17
3.29317e-16
0.000545921
6.75225e-79
5.58629e-31
0.000267113
9.03399e-05
-3.5441e-124
0.000114492
1.46983e-46
25.3153
1.61672e-171
9.1397e-24
2.76026e-34
2.67831e-191
5.51938e-14
1.00748e-59
3.08554e-74
7.60342e-08
0.00173011
0.000137145
1.4033e-73
1.43715e-25
-8.26307e-171
-4.60361e-94
5.34708e-06
8.83888e-30
1.15021e-70
2.83074e-17
6.51941e-22
1.46094e-26
6.31177e-37
5.95579e-35
1.72827e-20
0.00390464
-8.6097e-130
1.33416e-36
2.03791e-42
3.26542e-27
2.46795e-07
2.84089e-22
5.04951e-31
1.79318e-59
1.87072e-174
7.33711e-26
1.14478e-29
6.13206e-20
-8.61285e-135
9.84212e-53
6.84721e-22
2.44847e-23
-9.15969e-24
2.4957e-19
3.69116e-66
3.11217e-28
-9.12287e-105
3.16081e-13
7.55911e-49
3.24982e-25
1.81111e-60
2.15182e-72
8.59153e-22
2.28753e-53
7.33807e-61
7.07974e-74
-1.54845e-132
3.75293e-26
1.89334e-48
3.16767e-50
26.0545
0.01217
-2.16551e-103
5.13635e-72
5.12342e-35
5.89951e-38
-1.4233e-186
1.78681e-29
-3.29332e-35
1.56826e-29
-5.31782e-172
1.95386e-13
1.26958e-17
1.23959e-15
2.95835e-29
-8.25021e-157
-4.01297e-89
7.28361e-57
6.26479e-28
7.80618e-09
16.6727
-1.19224e-127
2.0462e-64
1.16346e-65
6.5175e-07
0.000626562
0.000306856
2.09495e-49
1.81003e-20
-2.02624e-170
3.9053e-36
-3.17538e-50
-3.22021e-126
9.61649e-22
7.82406e-37
5.45071e-33
2.89495e-19
-5.917e-68
2.63054e-38
1.70908e-30
-1.03004e-158
3.68411e-239
1.10332e-40
-1.52929e-62
2.52144e-08
4.50723e-43
-6.71271e-23
2.58252e-13
-9.63953e-40
-9.23011e-128
-2.7033e-56
3.71892e-18
-2.44258e-131
0.344546
0.0789201
-5.9349e-107
5.87685e-167
1.54806e-95
-3.45956e-130
6.83538e-193
-3.0473e-58
9.77643e-61
-1.07424e-31
1.69782e-36
1.80385e-29
-8.78244e-47
4.21025e-05
5.49694e-18
2.84111e-31
2.5197e-36
5.78224e-47
6.79486e-34
-7.56821e-158
-1.94601e-70
9.79772e-62
-3.2371e-31
-1.09868e-25
1.91705e-09
2.48448e-195
-1.76579e-26
2.19789e-35
1.17337e-45
2.54315e-22
1.82231e-40
3.23587e-24
0.00503775
1.7903e-35
4.73254e-18
9.88929e-46
1.78805e-80
2.05281e-38
7.77199e-34
-1.01324e-131
2.30588e-38
0.0346496
-9.25075e-74
0.000276031
-9.74824e-125
2.51704e-33
-3.97542e-85
2.45677e-67
1.21664e-29
-1.34189e-20
2.76767e-21
2.39873e-65
3.08881e-40
4.54787e-46
9.35955e-18
6.04876e-11
-2.53384e-44
3.70969e-08
7.22046e-192
3.63637e-37
7.65687
2.03576e-14
1.62026e-65
0.467521
7.73442e-19
3.567e-62
-1.30111e-145
1.15699e-10
3.33402e-34
2.83382e-47
6.89256e-35
1.82418e-148
2.54116e-19
2.60231e-73
1.07723e-13
2.12038e-35
1.56945e-30
-9.0992e-30
9.36528e-234
-1.82148e-96
2.26341e-41
4.56005e-79
1.26734e-81
1.70233e-54
4.52738e-72
6.37481e-58
-1.85448e-24
1.79897e-27
-3.96111e-181
3.82251e-15
-5.91676e-95
-1.79564e-157
-3.52105e-27
-2.15726e-120
1.55393e-45
9.30773e-47
-3.34224e-133
-6.25419e-130
3.83554e-79
1.78091e-22
1.4784e-59
7.26619e-32
4.41423e-34
-3.32024e-26
9.86385e-25
7.17416e-48
9.20739e-41
1.55426e-37
-2.20522e-207
3.15634e-53
2.70007e-70
3.23082e-48
0.343913
8.36327e-25
-1.90073e-67
6.16866e-40
-1.03955e-60
1.36596e-61
5.18967e-67
1.06467e-60
1.36128e-61
-6.94497e-32
6.50042e-36
-5.40412e-159
1.26653e-23
-5.51588e-48
7.02228e-22
-1.20735e-147
-8.70142e-28
5.42679e-05
-1.33565e-91
-4.09183e-39
4.06234e-17
-8.58805e-112
4.50131e-26
3.17946e-13
1.0879e-36
5.44762e-37
4.47071e-14
1.78169e-40
-3.83937e-49
1.05058e-39
7.3153e-24
-1.86276e-117
3.9126e-67
5.78596e-199
7.95357e-96
-5.37918e-147
1.74e-37
8.1212e-36
2.15623e-25
-5.34792e-41
16.5501
-2.34904e-20
36.4426
1.30714e-34
5.43624e-10
12.7154
5.41399e-16
25.2085
2.34275e-65
7.29097e-40
4.27771e-44
9.61841e-50
6.18719e-44
-9.45308e-95
2.26601e-44
-1.29102e-87
-3.70398e-149
-2.30878e-50
4.85272
2.6164e-39
8.28496e-21
3.97747e-42
2.56077e-80
2.95317e-36
1.51989e-35
-3.38693e-107
2.08512e-41
1.6789e-75
3.50776e-24
-7.07026e-40
1.22269e-40
-2.06579e-41
0.73443
5.80087e-07
6.75359e-20
3.69153e-47
85.0399
8.04483e-41
4.07663e-52
7.24139e-28
-5.94495e-29
-5.88314e-57
2.72938e-16
-1.09707e-129
-2.44525e-36
-3.21911e-27
6.34499e-42
-5.72642e-43
5.68354e-72
2.54885e-37
-1.89603e-33
1.43258e-63
4.75485e-27
1.77237e-45
1.80344e-57
-3.30206e-126
2.19758e-50
2.99686e-37
6.51879e-77
6.24762e-46
2.95232e-57
-2.96301e-96
-6.04927e-33
1.05727e-74
1.01606e-15
1.50159e-45
-3.61099e-62
-1.2643e-133
8.19766e-94
5.4402e-14
4.29386e-37
1.55637e-196
3.53399e-44
9.20816
2.14186e-21
2.19718e-73
4.97378e-46
0.154931
0.900732
52.0654
3.03622e-80
7.95955e-82
2.56309e-104
8.8973e-57
2.03018e-28
0.00880387
0.0738282
9.18839e-13
1.90337e-17
1.65916e-69
-7.38839e-143
-2.03469e-140
-4.31637e-27
-3.60973e-72
1.2868e-24
4.46238e-83
4.64505e-05
2.30057e-81
6.66201e-41
3.68099e-12
-7.06487e-41
2.36911e-20
-4.07e-109
5.76208e-39
-2.28543e-155
1.60053e-17
9.07115e-18
1.91256e-62
-1.69389e-148
1.30033e-65
1.06771e-24
-5.9175e-97
-9.84868e-44
0.15453
2.89435e-167
1.47549e-61
-1.95464e-37
-5.18914e-38
1.82438e-46
-7.27827e-111
-7.29873e-98
-2.3112e-97
1.80688e-190
-5.24114e-141
1.53288e-58
3.9481e-25
-2.35268e-156
7.46542e-71
-1.48726e-107
151.343
-6.03416e-28
-7.1878e-96
6.25921e-197
8.75212e-23
7.5407e-41
1.12854e-20
-4.3685e-45
5.87049e-41
-1.11198e-149
7.68451e-94
9.91499e-16
-9.60607e-212
3.60757e-41
4.53043e-28
-1.50727e-50
-1.58834e-136
5.38066e-36
-9.44886e-184
6.39812e-56
1.68058e-57
-1.81149e-95
9.65862e-08
2.2414e-52
5.89788e-61
9.11622e-59
1.85128e-38
-1.85825e-48
-2.27418e-160
1.91739e-194
3.75853e-74
1.16179e-27
8.65017e-38
8.67613e-61
4.45011e-58
2.38533e-16
-2.99801e-53