/*--------------------------------*- C++ -*----------------------------------*\
  =========                 |
  \\      /  F ield         | OpenFOAM: The Open Source CFD Toolbox
   \\    /   O peration     | Website:  https://openfoam.org
    \\  /    A nd           | Version:  7
     \\/     M anipulation  |
\*---------------------------------------------------------------------------*/
FoamFile
{
    version     2.0;
    format      ascii;
    class       volScalarField;
    location    "0.717";
    object      p;
}
// * * * * * * * * * * * * * * * * * * * * * * * * * * * * * * * * * * * * * //

dimensions      [0 2 -2 0 0 0 0];

internalField   nonuniform List<scalar> 
12359
(
0.0666024
0.0756315
0.0511952
0.108566
0.0698179
0.154297
0.185034
0.168217
0.226346
0.142819
0.208291
0.275408
0.484475
0.11565
0.103103
0.396676
0.441479
0.0552204
0.0549235
0.0880371
0.123572
0.249247
0.0814385
0.0933539
0.0783283
0.0844484
0.05222
0.0521049
0.0542126
0.0526806
0.0530373
0.0516482
0.0513392
0.0524566
0.0512277
0.0532194
0.0601602
0.0649475
0.0684712
0.0625097
0.0737224
0.0636715
0.0578379
0.0572158
0.0536893
0.0539672
0.0534456
0.0528946
0.0545908
0.0523036
0.0519796
0.0518558
0.0515745
0.0555835
0.0515008
0.0513697
0.0565804
0.051332
0.0513172
0.0512672
0.0514157
0.0512172
0.0519077
0.515015
0.0560855
0.131789
0.0594317
0.0517929
0.0607731
0.344961
0.531926
0.0715361
0.0511865
0.0615837
0.098019
0.051225
0.0515493
0.0512015
0.0587154
0.31462
0.124935
0.0466856
0.0503615
0.0518252
-0.0614481
0.0256918
0.0464985
0.0491196
-0.0679128
-0.0550425
0.0509983
0.468546
0.0509645
0.0506269
0.050516
0.00714455
0.0501047
0.0507273
0.0588025
0.0554134
0.106882
0.0510968
0.0263232
-0.125483
0.0457103
0.0135977
0.0501455
-0.0596253
0.0291241
0.0140022
0.0501882
0.0467787
0.110415
0.091664
0.050857
0.0473492
0.0932515
0.0457295
-0.0729416
0.0503995
0.0503074
0.174832
0.0489994
0.00577546
0.0455371
0.0472588
0.0375479
0.051719
0.0511964
0.0453695
0.0478945
-0.00197692
-0.0033745
-0.00226516
0.0501872
0.00678695
0.0476603
0.00695927
0.0511253
0.0376302
0.0505202
0.0680046
0.0153486
0.0501662
0.0087639
0.147236
0.0503704
-0.046215
0.0455336
0.12776
0.00304453
0.0511109
0.0153841
0.0488888
0.0509158
-0.184665
0.106941
-0.00138156
0.0502214
0.0517154
0.0461824
0.0517693
0.00408631
0.012332
0.0503532
0.0473739
0.0473243
0.173401
0.0137311
-0.070076
0.0512039
0.051217
0.012711
0.0784169
0.0459299
0.0421476
0.0542777
0.0540142
0.110826
0.0429594
0.116172
0.0508935
0.0511983
0.0463935
0.0577474
0.204455
0.0456132
0.0497117
0.00478302
0.0453389
0.0499728
0.00772871
0.00897597
0.0488076
0.0127877
-0.138602
0.0336794
0.046532
0.0158691
0.0458256
0.150723
0.00427949
0.0565575
0.0136512
0.0120967
0.0508708
0.011011
0.0573246
0.00227916
0.0445536
0.0506505
0.000325541
0.000427414
-0.54936
0.205234
0.0511309
0.0461015
0.050885
0.0458525
0.0684835
0.101345
0.0446807
0.00577346
0.478647
0.0450723
0.0506313
0.0691918
0.0298951
0.0461894
0.0473367
0.0470511
0.0503566
0.00959574
0.0567867
0.0491338
0.0558349
0.0503933
0.0147995
0.0494214
0.297144
0.0503144
0.0238337
0.0497523
0.0543818
0.0449761
-0.0480362
0.0512922
0.00202342
0.0462537
0.00962736
0.00174398
0.0644035
0.0536709
0.0476025
0.318576
-0.602457
0.0504073
0.0445978
0.404009
-0.0463096
0.0560818
0.0460055
0.0459034
0.0125307
0.0769151
-0.459727
-0.0672149
0.0443695
0.0448413
0.00700114
0.0127182
0.0616788
0.0137672
0.047683
0.0445769
0.0503375
0.0446999
-0.119759
0.043259
0.0500743
0.0510858
0.0118613
0.0425218
0.059448
0.0242795
0.0504641
0.0476475
0.051105
0.0510867
0.0516702
0.00402133
0.0463848
-0.470606
0.0501528
0.0501415
0.0262735
0.0464042
0.101102
0.0508173
0.0520215
0.0510148
-0.108029
0.0450994
0.0510177
0.0462975
0.0504097
0.0461703
0.0472003
0.0477027
0.0463501
0.0552139
0.205067
0.0459633
0.0530946
0.0650339
0.0227532
-0.0541673
0.0457115
0.0596268
0.369629
0.0510757
0.0197285
0.0500156
0.0339732
0.0501442
0.0452331
0.220864
0.0188032
0.206317
0.0589859
0.0495092
0.00875713
0.00418449
0.0493722
0.00870683
0.0086565
0.0498376
0.0514663
0.0514548
0.0515218
0.0514936
0.296604
0.0504444
0.105388
0.000788802
0.0566995
0.0133884
0.0190588
0.0267508
0.0347196
0.0180529
0.0353149
0.0585188
0.0205936
0.0219267
0.0930726
0.0688121
0.0147662
0.0669801
0.0669498
0.0164614
0.105269
0.0472054
0.0515246
0.0322891
0.0514886
0.0468836
-0.204254
0.502477
0.0470936
0.0511558
0.050204
0.0507899
0.0179775
0.0509192
0.0509044
-0.0752519
0.0128444
-0.0499086
0.0488928
0.010311
0.0426418
0.0500271
0.015899
0.0321123
0.111918
0.0323853
0.0474073
0.0500192
0.0121639
0.00993083
0.0447015
0.29291
0.0158047
0.00600711
0.0508229
0.0476622
0.0511427
0.387721
0.0130628
0.0490361
0.0625314
0.0660997
0.0505396
0.0505102
0.0507368
-0.059346
0.0998569
0.0607528
0.0187057
0.00215301
0.0505045
0.115229
0.050393
-7.11652e-05
-0.0590066
0.296616
0.0554636
0.0926204
0.0293106
0.0225395
0.0367317
0.0319205
0.0527208
0.0366426
0.0155518
0.0509229
-0.049498
0.0599785
-0.00516068
0.00876515
0.057068
0.096751
-0.150661
0.0175801
0.0405499
0.00476987
0.00835757
0.0192096
0.0457552
0.0506885
0.0527773
0.0501528
-0.00259956
0.0479479
0.0841665
0.0864852
0.0373321
-0.0570577
0.104273
0.0552191
0.0493433
0.388139
0.0499468
0.0489523
0.00536223
0.0511624
0.0491894
0.0489356
0.237291
0.204517
0.0514441
0.0492392
0.110174
0.0489721
0.0188712
0.0152053
0.013195
0.0498179
0.0507762
0.0487807
0.0510228
0.0859896
0.0194638
0.0220807
0.0538969
0.0518581
0.00281573
0.0528157
0.0482603
0.0445112
0.121003
0.00478163
0.0511089
0.0483425
0.0118854
0.0313678
0.0493918
0.047509
0.113337
0.0190759
0.00719466
0.0211327
0.0497693
0.0485546
-0.00537475
-0.00376016
0.0510179
0.0378869
0.0500465
0.00481929
0.281257
0.0507188
0.0481267
0.0498758
0.0148968
0.0550572
0.0542682
0.0475599
0.0502462
0.0308767
0.077114
0.0406358
-0.0357503
0.0501146
-0.0414387
0.0492383
-0.130108
0.0181999
-0.00263155
0.0513051
0.0536511
0.0221074
0.0465009
0.0519291
0.058211
0.0553763
0.0556143
0.0707429
0.0142534
0.0138367
0.0503802
0.0461603
0.0192706
-0.00296024
0.0503825
0.0500826
0.012058
0.0498605
0.226387
-0.155924
-0.0950039
0.0503832
0.0427673
0.00126008
0.0548278
0.0461994
0.454256
0.0501143
0.114927
0.0895639
0.0425852
0.0464101
0.0520971
0.0378852
0.000600266
0.0311585
0.053096
0.0504118
0.051196
0.0549911
0.0542496
0.0554963
0.0142261
0.0517207
0.0501031
0.020818
-0.0722957
0.0530103
-0.000126763
0.0502317
0.0536785
0.0951291
0.00203655
0.00166258
0.0971513
0.0470274
0.00172312
0.0505729
0.0512504
0.00372594
0.0381565
0.0464133
0.0380705
0.0508405
0.0500639
0.046882
0.0500685
0.00193125
0.104372
0.0603133
0.119032
0.0158552
0.040553
0.113953
0.0641351
-0.00415399
0.0133218
0.0650201
0.0544535
0.0512705
0.0379928
0.0212042
0.0503722
0.0511706
0.0498557
0.0513037
-0.0159741
0.0383322
0.0346972
0.105967
0.058512
0.237727
0.00493623
0.0016138
0.0466667
-0.00126611
0.0508261
0.0510316
0.0498662
0.106396
0.113979
0.0474175
0.031234
0.224863
0.0157129
0.00601283
0.0395006
0.0645442
-0.131532
0.0495541
0.0521625
0.0508592
-0.00999521
0.0520458
0.0320506
-0.0576256
0.0501133
0.0786803
0.0574605
0.042301
0.0532183
0.0477751
0.0515618
0.0547298
0.051617
0.0515032
0.0542796
0.00594553
0.0100158
0.0424794
0.335346
0.00173046
0.414048
0.0170653
0.0246674
0.0546057
0.0185275
0.0576321
0.0072323
0.318032
0.0985921
0.0568216
0.0444643
0.0555142
0.0542284
0.0217664
0.0506859
-0.00456904
0.0516154
0.1001
0.0483575
-0.014087
0.00805961
0.0114339
0.0564466
0.0399915
0.00845029
0.0781929
0.00558136
0.0412936
0.00320102
0.0439582
0.0504226
0.050755
-0.215876
0.0703062
0.0432771
0.0503422
0.0517985
0.0557813
0.0838068
0.00993494
0.0166159
0.0498429
0.0448447
0.056153
0.0432517
0.040784
0.0021012
0.0569602
0.0581515
0.00933881
0.0446416
0.0414889
0.104194
0.0503805
0.0569953
-0.260016
0.0512957
0.00738379
0.0511099
0.0418603
0.0897081
0.00970149
0.0516312
0.0191761
0.0507828
0.111978
0.0454456
0.0100251
0.0111258
0.113201
0.0506173
0.00107322
-0.00526178
0.0571323
0.0433688
0.045714
0.0362437
0.239217
0.0549438
0.0511409
0.0558412
0.0509372
-0.129733
0.0426422
0.00997764
0.0322682
0.0167416
0.524072
0.042813
-0.057835
0.0103521
-0.0798567
0.0186328
0.0530453
0.0429787
0.0317282
-0.0481334
-0.0365931
0.0493771
0.0491152
0.118916
0.0487137
0.208245
0.0201317
0.0697851
0.046049
0.406348
-0.106812
0.0433745
0.0504283
0.0505228
0.0938028
0.0558485
0.0605447
0.0531442
0.0150523
0.0778967
-0.0143259
0.353967
0.0498272
0.0835633
0.014177
0.12088
0.0447373
0.114394
0.00762982
0.0950659
0.0534846
0.0503284
0.00968092
0.00692623
0.0171148
0.117925
0.0124956
0.0252304
0.0520039
0.0499132
0.0394467
0.249218
0.0394825
0.0120367
0.0672979
0.0201265
0.0359246
0.0537695
-0.00453055
0.0331369
0.0442947
-0.00627223
0.0587712
0.0274564
0.195252
0.0504118
0.0329475
0.0508865
0.0578579
0.047488
0.0515426
0.0503775
0.00114727
0.0445753
0.0784921
0.0125071
0.0956217
0.0313675
0.0319268
0.0104585
-0.198118
0.0512864
0.0575629
0.0257346
-0.072873
0.00734857
0.0505439
0.511224
0.0503468
0.0455277
-0.171252
0.0558342
0.0508621
0.050904
0.0660261
0.0900064
0.0513009
0.0568197
0.109359
0.0513222
0.0539089
0.0535361
0.0495888
0.0911065
-0.016953
0.0550774
0.11704
0.0102742
0.00737207
0.00551228
0.0152282
0.0535585
0.0454186
-0.0421152
0.00452204
0.0737414
0.0495954
0.0513278
0.118301
-0.00125408
0.0339471
0.03797
0.0335992
0.0530078
0.0443803
0.084474
-0.232034
0.366991
0.0832356
0.0507591
0.0443846
0.0802763
0.34627
0.111943
0.050583
0.000366644
-0.0125766
-0.253623
0.0364999
-0.167831
0.0513018
0.0533896
0.0513424
0.00609073
0.0753642
-0.17057
0.045473
-0.0854991
0.0484875
0.0513083
0.0105179
0.0551231
0.00121631
-0.0407721
0.0566015
0.0353869
0.0249577
0.0369251
0.0564458
0.0750096
0.0731779
0.0313816
0.07909
0.0566469
0.0513748
0.0535766
0.051854
0.105119
0.0228073
-0.00730891
0.00263216
0.0865173
0.0248034
0.0231935
0.0434605
-0.0126575
0.0349095
0.0559633
0.050872
-0.000200809
0.109164
0.0456626
0.0402461
0.0575677
0.0236202
0.102767
0.116415
0.0237477
0.239411
0.0223798
0.0875187
-0.0375263
0.0547959
0.0178479
0.0113739
0.0488118
0.0346149
0.0404521
0.0448337
0.0505675
0.046818
-0.0138133
-0.00138162
0.0460489
-0.142919
0.10054
0.0517534
0.0508328
0.00206708
0.0516704
0.0772187
0.0136112
0.00476443
0.0516165
0.0537829
0.050217
0.0516792
0.118904
-0.139457
0.0517278
0.0571196
0.0503909
-0.149262
0.0215927
0.0148254
0.050178
0.0516374
0.0533556
0.0249886
0.0848588
0.0283576
0.0488678
0.0538613
0.0515645
0.0210634
0.0851547
0.0401735
0.0511681
0.0310446
0.0254308
0.0759111
0.0469967
-0.016585
0.144825
0.0488327
0.033093
0.0535207
0.044244
-0.191964
0.0564679
0.0518151
0.0114575
0.105073
0.0831497
-0.140879
0.0770249
0.0354836
0.0277049
0.0575787
0.0405807
0.0352685
0.0567333
0.146555
0.0511264
-0.343085
0.0840863
0.181744
0.0405407
-0.00477497
0.0961643
-0.00149507
0.262008
0.00689102
0.026996
0.0342317
0.0392792
0.0503575
0.0446779
0.0885011
0.00132979
0.0569522
0.0488808
0.00632309
0.0171378
0.00605268
0.0805893
0.000748357
0.00560058
0.0497127
0.0711554
-0.0479212
0.0875607
0.0503392
0.0352412
0.0543874
0.050342
0.0698551
0.05129
0.0446849
0.244515
0.092423
-0.0167803
0.0513269
0.0507601
0.0509548
0.0571049
0.0546333
-0.00153466
0.054774
0.0506695
-0.0175508
0.021789
0.00613202
0.0695008
0.0500487
0.0426611
0.0916256
0.0347168
0.0513502
-0.0423844
0.0106077
0.11274
0.0510814
-0.23622
0.0974564
0.050948
0.00305231
0.0386393
-0.0117604
0.0364383
0.000984045
0.0947689
0.0500612
0.052909
0.0219988
0.0390074
0.0556177
-0.00694468
0.0559707
0.0561345
0.0969097
0.0483346
0.0543691
0.0361553
0.00967347
0.0500881
0.0560146
0.0541142
0.0502704
0.0964439
-0.0413279
0.0263463
0.0572076
0.054451
0.0424849
0.0503127
-0.19719
0.0799606
0.0510978
0.071627
0.0425901
0.0993632
0.152323
0.00103844
0.0561147
0.0053976
-0.00190645
0.0501269
0.0412217
-0.000645179
0.0462904
0.0511444
0.0733366
0.0276842
0.0547339
0.0511707
0.0418483
0.0834328
0.0516958
0.031387
0.0513042
0.0399555
0.0677755
0.131726
0.0507649
-0.207339
0.0808555
0.0155832
-0.120779
0.0925818
0.0321266
-0.0328271
0.0576693
0.142305
0.205615
0.0542437
0.0450974
0.0449659
0.0528944
0.0547493
0.00689378
-0.0793968
-0.149975
0.00865807
0.147303
-0.00547991
0.0101049
-0.0515093
0.0506204
0.0531124
0.0477724
0.0249812
0.0504204
0.00815015
0.0371024
-0.00519855
0.0504385
0.0535985
0.048586
-0.158951
0.120894
0.078385
0.0623398
0.123405
0.0452937
0.05168
-0.0167784
0.0368722
-0.0121503
0.00734331
0.0230673
0.00458311
0.0149733
0.058133
0.0500092
0.0503967
-0.12511
0.0413213
0.0412475
0.0532266
0.00349448
0.0184704
0.0508036
0.019715
-0.0139988
-8.65672e-05
0.0943608
0.0540159
0.0508147
0.00467427
0.0572159
0.0506017
-0.000677917
0.00753325
0.0543008
0.138399
0.00100975
0.0509094
0.0508298
0.0502319
0.107816
-0.143745
0.0408856
0.0103843
0.0536448
0.0539503
0.0109514
0.0510673
0.179473
0.0148491
-0.0480553
0.152416
0.030556
0.0499768
0.0504465
0.0333305
0.0574232
0.0499597
-0.182893
0.00548249
0.0443903
0.216508
0.101312
0.0453561
0.0503842
0.0508272
0.0527095
-0.0755126
0.160104
0.0335926
0.0779435
0.0676923
0.00601487
-0.0796576
0.0235091
0.055487
0.0537206
0.0164248
0.0418936
0.0498516
0.0530669
0.00387593
0.0546516
0.0330105
0.0563738
0.0822134
-0.0110288
0.0478789
0.0531714
-0.00325827
0.00346908
0.0598645
0.0529411
0.0770972
-0.000731978
0.0390125
0.0170981
0.0747497
0.0160987
-0.0312301
0.0542873
0.157195
0.0500734
0.104805
4.28198e-05
0.0510337
0.0505375
0.375389
0.0510678
0.0570295
0.0261991
0.0558636
0.0559713
0.0588759
0.050987
0.0509401
0.000237709
-0.0258866
0.0488803
0.329454
0.037764
0.0528723
0.232979
0.0987625
0.0547508
0.0461858
0.0525421
0.0885171
-0.267493
0.0556773
0.0488212
0.050211
0.0530292
0.0643683
0.0163032
0.0552476
0.0656653
0.0540997
-0.156894
-0.00624423
0.00804671
0.11093
0.0375132
0.0529623
0.00448773
-0.120443
0.0540205
0.0504097
0.0529002
0.0465189
0.0558073
0.0497349
-0.0029742
0.0459071
0.0450842
0.306718
-0.000848565
-0.00557892
0.00381034
0.055634
0.000993424
0.086049
-0.0911803
0.0486205
0.01005
0.0510579
0.238221
0.050436
0.0504428
0.0309231
0.0502443
0.0256343
0.0602661
0.0559068
0.0485193
-0.0926201
0.0873146
0.010837
0.053134
0.0358553
-0.0503016
-0.00720924
0.0791476
0.0754283
0.051023
0.0564833
0.0474099
0.0529306
0.0488661
0.0530984
0.0899512
0.0741561
0.00710403
-0.107802
0.0248705
-0.00864182
0.0323892
-0.11304
0.0497021
-0.03002
0.0529838
-0.0118967
-0.00563028
0.025263
0.0505678
0.0294906
0.0106118
0.0323209
-0.00386954
0.228798
-0.105339
0.0529358
-0.00250675
0.046084
-0.00490959
0.0903015
0.00370041
0.0461844
0.0587964
0.00972136
0.0537365
0.0362987
0.0509203
0.0452567
0.0504533
0.0565572
0.00626564
0.00134934
0.0506272
0.0849134
-0.0836011
0.487889
0.0500476
0.0737534
0.0266864
0.194124
0.0313974
-0.184273
-0.0359665
0.0483028
0.0245546
0.0661405
0.176235
0.0497232
0.0680914
0.077204
0.048568
-0.0890212
-0.00410062
0.0529601
0.0242685
-0.0321716
0.0766022
-0.0880752
0.0385359
0.0785372
0.0552235
0.0500456
0.0566492
0.0452647
-0.077029
-0.000446068
-0.0651697
0.0515787
-0.0823497
0.0299211
0.00358879
0.111367
0.0247977
0.027769
-0.055726
0.0383305
0.0366302
0.00523395
0.0692694
0.025546
0.00873319
0.0703068
-0.0922827
0.0855569
0.0342883
0.0876349
0.0515804
0.113915
0.000213356
0.100825
0.054161
-0.0360227
0.0506655
0.033488
0.00808677
-0.000900222
0.0581428
0.0060586
0.0450988
0.507947
0.0565454
0.00517141
0.0919457
7.07563e-05
0.00721636
0.0508055
0.0313398
0.0504084
0.461279
0.0508643
0.0505478
0.0502315
-0.0140746
0.045156
0.0445093
-0.00788505
0.0281536
0.0647295
0.0450458
0.0505131
0.107365
0.0489984
0.104287
0.00749278
0.0864055
0.0387782
0.0425966
0.0257508
-0.0137408
0.00926515
0.0438697
0.536473
0.0508441
0.0505682
0.0566726
-0.132346
0.0541906
0.0308111
0.0781875
0.0546452
0.0422745
0.00315568
-0.0230651
0.03332
-0.0464207
0.0555782
0.0459522
0.0141194
0.0190088
-0.000629671
0.0529173
0.0254936
0.0724019
0.19165
0.0373835
0.0505601
0.0451276
0.178284
0.0511683
0.0511694
-0.0369421
0.0320447
-0.0425737
0.0422402
0.0504407
0.188533
-0.0138124
0.0458282
0.0558935
0.0488414
-0.109952
0.0511737
0.0336711
-0.0273384
0.0511704
0.0505007
0.00923261
0.050073
0.0511821
0.012897
0.0503096
0.05043
0.0211609
0.0501471
-0.0133093
0.0504321
0.0578944
0.119278
0.00825882
0.0511826
0.00523324
-0.177428
0.0424657
0.0741851
0.0487312
0.0328312
0.0492129
-0.0180471
-0.00556976
0.046347
0.0505043
0.132011
0.0290976
0.0151965
0.0111385
0.129819
0.0500864
0.0058896
0.0504914
-0.0195087
-0.00604142
-0.00452562
0.0079788
0.155604
-0.0862272
0.00512013
0.00991651
0.0471848
0.0531106
0.00102156
0.137627
0.0986055
0.0336121
-0.0757592
0.0500595
-0.0642687
0.193898
0.0498857
-0.00761716
-0.00804197
0.080413
0.00804278
0.00681599
0.0732007
0.0505254
-0.0122224
-0.0655089
0.254557
0.0556454
0.00256381
-0.0306194
0.142753
0.0523591
0.0504701
0.0061578
-0.0532905
0.0403682
0.0680184
0.050742
0.05007
0.0564258
0.0554131
0.0254336
0.0562023
0.0504555
-0.0157449
0.0358895
-0.0257727
0.0153517
0.0507224
0.0505049
0.145454
0.0551913
0.0797422
0.0606075
-0.0440917
0.0813331
0.0497549
-0.0234537
0.0595843
0.0504401
0.0278046
0.0381616
0.0420813
0.093926
0.0254466
-0.152828
0.0405286
0.0502256
-0.0271523
0.0501931
-0.00653296
0.0308671
-0.0271471
-0.0489102
0.0962157
-0.0318071
0.0507567
-0.0088085
0.0544735
0.0721724
-0.0233162
0.0200512
-0.0233704
-0.064511
0.173052
-0.0114662
0.0634834
0.0497117
0.0503493
0.0501715
-0.0314302
0.141438
0.0497502
-0.0151356
-0.0191569
0.0145647
0.00227824
0.0276492
0.110053
-0.0279434
0.0549417
0.0119777
0.0250658
0.0510475
0.0510666
0.0523614
0.0554935
0.0111871
0.0506497
0.0529834
0.0567856
0.0745123
0.000589196
0.050167
-0.0192255
0.0504302
0.00370917
0.0133894
0.0527112
0.0422932
0.00160912
-0.0199738
0.0367657
0.0777648
0.0553233
0.0265305
0.0322625
0.0505208
0.0545065
0.0547146
0.0527743
0.0505668
0.0698715
0.0505536
0.1263
0.0128448
-0.0934418
0.0505782
0.0601027
0.050681
0.0504992
0.121162
0.0593328
0.0498749
0.316163
0.133029
0.0375156
0.0651663
0.0382522
0.121281
0.0196009
0.00853776
0.0551582
0.0566863
0.0505026
0.0511747
-0.0115865
0.0501039
0.0524183
0.12301
0.0527534
0.0544096
0.0281394
0.0504835
-0.0354475
0.0506074
0.0523649
0.00787285
0.00923916
-0.0683452
0.109648
0.0708723
0.0525778
0.00720174
0.0525225
0.0254015
0.00533053
0.0566011
-0.0284984
0.051234
0.0258094
0.0703546
0.0516596
0.101539
0.0505891
0.0565439
0.050499
0.0289501
0.0500317
0.053099
0.0242128
0.0463226
0.0709771
0.027054
0.0505358
0.0266836
0.0121042
0.0564315
0.0083358
-0.0139109
0.0504968
0.0308787
0.10903
0.00280287
0.0569661
0.0441946
0.0442198
0.0250665
0.0575728
0.151018
0.0551081
0.0506343
0.0506829
-0.0191545
-0.00885409
-0.0215565
0.277158
0.100124
0.0501696
0.0260958
0.0106782
0.0510115
-0.0558006
0.0547718
0.103676
-0.000195237
0.0524131
0.143222
-0.008019
-0.0160707
0.0229322
0.0290727
0.050923
0.0501391
0.0609333
0.0505258
0.0504735
0.136974
0.0528383
0.0645051
0.0497693
0.0388764
0.0445113
0.367369
0.0422475
0.0448944
-0.00908335
0.10376
0.094117
0.0339603
0.109238
0.0505094
0.0462603
0.00463239
0.0722466
0.124155
0.0520963
-0.000557765
0.0405226
0.050118
0.0528839
0.050504
0.0642005
0.0420896
0.0509829
0.0297288
0.255966
0.0510749
0.01172
0.0319945
0.0500835
0.0636226
0.0530738
0.0270747
0.0505488
0.0504506
0.0143164
0.028947
0.0917725
0.141344
-0.234359
0.0563551
0.0649093
-0.0361137
0.0329302
0.053016
0.0404389
-0.000724933
0.0505547
0.0540748
0.050493
0.0296753
0.0646526
0.0182689
0.0505618
0.0617548
0.0344453
0.05498
0.118259
0.0463684
0.050318
0.0505584
0.0293858
0.0226548
0.304576
0.0611688
0.0827232
0.00527543
0.00463742
0.0503168
0.100367
0.0505487
0.0505112
0.0510506
-0.00270544
0.0556505
0.0342723
0.00667634
0.0200507
0.00606289
0.0298295
0.0638847
0.114837
0.0478462
0.0112339
0.0919017
0.0328562
0.127581
0.0544132
-0.168522
0.141635
0.133956
0.0499987
-0.117258
0.00544419
0.00758833
0.137015
-0.000223555
0.0592977
0.057091
0.0391752
0.0357691
0.0330422
0.209237
0.0734034
0.054845
0.0142887
0.0549015
0.0362659
0.0238821
0.0939736
0.0361145
0.068665
0.0838878
0.00554106
0.0962862
0.0318959
0.0513315
0.0609089
0.049928
0.0442962
0.0491837
0.0552262
0.0193185
-0.0455721
0.0501597
0.164585
0.0496036
0.0419426
0.00908154
0.0300832
0.0333775
0.0489493
0.00714823
0.0120768
0.250379
0.0505367
0.00868406
0.0364988
0.0105641
0.0510581
0.050753
0.150235
0.0238008
0.0327267
-0.123405
0.0264138
0.0395955
0.137473
0.0142657
0.119773
0.0563712
0.0181367
0.0375897
0.0463003
-0.0262925
0.00669089
0.0197532
0.0331812
0.0499378
0.00609968
0.00577547
-0.000718452
0.040282
0.0370006
0.409346
-0.0393365
0.0495851
-0.0123552
0.0201621
-0.109091
0.0504692
0.0315949
0.0326773
0.0504664
0.00390593
0.0281125
0.0538536
-2.15856e-05
-0.0216311
-0.00133086
0.0565083
0.0234389
0.0510898
0.0456816
-0.0254121
0.0822845
0.0287464
0.00674693
0.145342
0.0245813
0.019941
0.0212272
0.00711983
-0.0265578
0.048961
0.0216143
0.0156847
0.0919379
0.277388
0.0131029
0.0349386
0.019391
0.0504678
0.0927104
0.0313352
0.00887838
0.0502266
0.0359034
0.00613174
0.0136707
0.148502
0.0104635
0.0299191
0.0294062
0.0554202
0.00337597
0.0267696
0.073552
0.0600289
0.0565572
0.0101101
0.03652
0.0424104
0.0389937
0.0505668
0.00577844
0.0629895
0.0295594
-0.00221074
-0.0449346
0.0449291
0.0284841
0.0165836
0.0239932
0.0505822
0.0997068
0.0986047
0.0725278
0.0510355
0.22499
0.00674662
0.0525084
0.0895463
0.0500714
0.0584546
0.0329672
0.0262768
0.0531506
-0.102951
0.0517657
0.0600501
0.0434704
-0.0113207
-0.029699
-0.000444749
0.0630065
0.00903897
0.0510677
0.0293973
0.0755562
0.0517882
0.149063
0.0171834
0.0277869
0.00822989
0.0675329
0.0219708
0.038174
0.0502342
0.0503805
0.0470694
0.0640331
0.122934
0.0154961
0.14638
0.0827389
0.0904853
0.0524174
0.0702049
0.00683458
0.0504584
-0.0216501
-0.0166601
0.0534394
0.0505177
0.0414368
0.0486903
0.0503691
0.0657028
0.0347301
0.131988
0.016323
0.0354445
0.089465
-0.0100708
0.00555989
0.0863691
0.0128132
0.0241617
0.0706421
0.0501378
0.0635271
0.0282638
0.122189
0.128806
0.217758
0.0504046
0.126468
0.0329697
0.0322176
0.104466
0.10784
0.100205
-0.0229787
0.0210858
0.0662654
0.0212097
0.0404016
0.0462814
0.0916851
0.0498527
0.0167461
-0.0274563
0.060328
-0.0249638
0.0494867
0.0839992
0.0558272
0.031104
0.102204
0.163061
0.0211533
0.0439158
0.0170266
0.0340244
0.07127
-0.000115032
0.0828052
-0.00193681
0.0504161
0.0214563
-0.149606
0.0982998
0.0363774
-0.0390916
0.0101057
0.0424128
0.0494826
0.103849
0.0936258
0.0343019
0.0573169
0.0521074
0.00576745
0.0446448
0.00443752
0.0813249
0.0358842
0.141439
0.0504199
0.046647
0.00385224
0.038361
0.0389885
0.0665585
0.0573479
0.0301579
0.167112
0.106977
0.0502498
0.00555801
0.0454314
0.0501736
0.132752
0.0498239
0.0220716
0.0249658
0.0498406
0.0499637
0.0532205
0.00710903
0.0618647
0.0982521
0.0283467
0.130211
0.0322246
0.0337917
0.0375465
0.0788441
0.0506171
0.039924
0.0378463
0.0269379
-0.0188087
0.00934951
0.0673925
0.0451203
0.0560893
0.0318613
0.0433992
0.0616783
0.0224942
0.106723
0.0323827
0.0502
0.00824097
0.0874175
0.00721946
0.0503323
0.135058
-0.0229704
0.0468073
0.097983
0.00596567
0.0544678
0.0957598
0.00339111
0.089874
0.114955
0.00428233
0.0480357
0.0795384
0.0764128
0.0139311
0.0474048
0.0317885
0.0503841
0.0496466
0.0501119
0.0132174
0.0174808
0.0207614
0.0827712
-0.0573207
0.168053
-0.0538497
0.027989
0.0421516
-0.0344203
0.0495899
-0.099143
0.0336648
0.023125
0.0184285
0.0289408
0.0651565
0.0425431
0.0329372
0.0551461
0.05031
0.0784825
-0.0325679
0.013717
0.00630234
0.0175194
0.05322
0.0280762
0.0164849
0.0558679
0.0244238
0.0392783
0.120781
0.085834
0.0813622
0.0937614
-0.0014253
-6.80867e-05
0.00573833
0.0231868
-0.00181089
0.0146271
0.0588424
0.0431857
0.131121
0.0748007
0.00700227
0.0505885
0.0955444
0.126636
0.0745747
0.0797501
0.0578218
0.0170835
0.113746
0.0293884
0.024264
0.0343702
0.0337449
0.0494577
0.0288514
0.0299254
0.0546965
0.0203137
0.0304887
0.0454531
0.104036
0.0445336
0.040197
0.0759059
0.0564474
0.0497681
0.0521693
0.00240729
0.0160991
0.0511986
0.07252
-0.0462937
0.00650089
0.0568944
0.0196174
-0.0166793
-0.037104
-0.0026774
0.0343555
0.0344969
0.0563836
0.0340551
0.0257585
-0.000270801
-0.0011838
0.00302804
0.000942775
0.0353027
0.0494121
0.0491635
0.12819
0.0631222
0.034401
0.0392413
-0.000317352
0.0456096
0.0275278
0.148226
0.0879135
0.0114402
0.0554292
0.0166734
0.050037
0.00864612
0.000868994
0.0281769
0.050102
0.0599353
0.166409
0.0430889
0.0893233
-0.0145317
0.0504551
0.0354792
0.0943731
0.101202
0.0707593
0.051026
0.046685
0.0476948
0.0509903
0.0501287
0.041834
0.00686394
0.0501081
0.0573988
0.0550056
-0.33458
0.118781
0.0477334
0.050401
0.0108492
0.0168634
0.0236054
0.0769717
0.0178293
0.0496318
0.0434089
0.00498104
0.0509199
0.0140887
0.092696
0.0717766
0.0488291
0.0123264
0.050688
0.0399469
0.0380645
0.0429706
-0.00266306
0.0602517
0.0357322
0.0340752
0.111657
0.0820045
0.0500345
0.0505164
0.0369494
0.0321453
0.013959
0.0216904
0.0407275
0.00773584
0.0808506
0.0510126
0.0385399
0.00612209
0.0413885
0.0852389
0.0645096
0.0528883
0.150201
0.022343
0.124748
0.140541
0.0281121
-0.00213197
0.000235945
0.125282
0.0411712
0.00637454
0.0748864
0.0370576
0.02211
0.0897524
0.0727023
0.0520577
0.0027397
0.0318064
0.0283971
0.0412454
0.00616328
0.0520167
0.0807939
0.0518474
0.0578188
0.0865029
0.0561445
0.0442095
0.105707
0.00768319
0.0921449
0.0290374
0.0728746
0.00884405
0.0624613
0.0122028
0.0515804
0.0309161
0.00957083
0.0681734
0.0273245
0.051538
0.0428381
0.0148147
0.0461747
0.0356795
0.0571844
0.0373262
0.0227117
-0.000798067
0.0961617
0.104595
0.100518
0.0420228
0.0423478
0.0358261
0.0191181
0.0292107
0.0507697
0.0555212
0.0706597
0.0248196
0.0590933
0.00496565
0.0316723
0.0579937
0.033789
0.0327444
0.0442832
0.0303261
0.0384283
0.13403
0.258663
0.0229235
0.0261635
0.0283063
0.0322047
0.038328
0.0360014
0.0345251
0.0231533
0.0130906
0.0491926
0.050387
0.0494162
0.00639539
0.0502951
0.0301339
0.043958
0.0312607
0.0604934
0.0344078
0.12305
-0.00665247
0.0499963
0.0353925
0.0911844
0.0424074
0.0615182
0.0882143
0.0548581
0.0502054
0.029865
0.00480088
0.0864332
0.0040299
0.114647
0.0836548
0.00403519
0.0642558
0.0691911
0.0105028
0.0437848
0.0494669
0.0516153
0.0372201
0.0499278
0.0329529
-0.0311848
0.0491608
0.08041
0.0442097
0.0633869
0.0640359
0.159227
0.0561059
0.042969
0.00518417
0.0133973
0.0870885
0.0315146
0.0837586
0.0514646
0.038689
0.0658577
0.0466186
0.0332793
0.0510264
0.0514967
0.0319176
0.0498794
0.0353914
0.0621291
0.0811889
0.014618
0.049666
0.00699264
0.0020201
0.0683686
0.0599335
0.0521411
0.0689726
0.132336
0.0503717
0.0413236
0.047861
0.0613921
0.039702
0.0361083
0.0402226
0.0744553
0.0837496
0.0328415
0.0797409
0.0907183
0.0608741
0.107913
0.0586028
0.0786304
0.0284419
0.0434238
0.0215439
0.0511012
0.0654055
0.0518046
0.083767
0.00236845
0.0557615
-0.0113684
0.0456715
0.0271327
0.117342
0.00771008
0.0479377
0.0500705
0.00515607
0.107357
0.0273636
0.0299915
0.0157266
0.0452703
0.080442
0.03853
0.0487858
0.0369028
0.00860316
0.0440435
0.0411804
0.396643
0.0401387
0.0518376
0.0599734
0.0654006
0.0438604
0.0323116
0.0503951
0.102406
0.0429062
0.05038
0.0131219
0.0376085
0.0294996
0.0418325
0.0640888
0.0435863
0.0456907
0.0448815
0.0346169
0.0805921
0.0504161
0.0398955
0.058349
0.0461202
0.0408508
0.0561396
0.0560212
0.0603872
0.0606875
0.0504737
0.0441599
0.0520022
0.0296234
-0.00145215
-0.000668839
0.144817
0.0752279
-0.00928854
0.0312912
0.049822
0.0529276
0.0591901
0.0746446
0.0507392
0.0281418
0.0763163
0.0575096
0.0264296
-0.00895474
0.0217076
0.0497442
0.0382729
0.0502706
0.0940908
0.230862
0.0402924
0.0579739
0.0429619
0.00645065
0.0500668
0.0731191
0.0278587
0.0464799
0.0508887
0.0339475
0.0974393
0.0394269
0.0571947
0.0262652
0.0429184
0.0446145
0.088294
0.061099
0.0413192
0.0523667
0.0398266
0.0557555
0.0390439
0.0506841
0.0401079
0.0501508
0.0557001
0.0110378
0.0689378
0.016694
0.0744364
0.0742737
0.054143
0.0395871
0.036091
0.0778611
0.0926777
0.010775
0.0430592
0.0561504
0.0590659
0.0406924
0.0489132
0.0449576
0.0373661
0.028455
0.0286665
0.0457048
0.0152254
0.0403994
0.0796616
0.0414567
0.043807
0.0394086
0.0243148
0.0842867
0.0546298
-0.000635247
0.0402313
0.042635
0.00988629
0.0531061
0.000790034
0.0525241
0.0430152
0.0475528
0.0481024
0.0512521
0.0436072
0.00446828
0.0503948
0.0209972
0.0724256
0.0526737
0.0586694
0.033754
0.0962661
0.0613849
0.050768
0.0355343
-0.0631242
0.0505079
0.00568202
-0.0781499
0.0661992
0.0858332
0.0539425
0.0419297
0.0300422
0.0721333
0.0594003
0.0503259
0.0925092
0.0112992
0.0819183
0.0504213
0.0498824
0.044241
0.0453815
0.0459988
0.0666913
0.0756618
0.0467933
-0.0012765
0.0474906
0.0542244
0.0424527
0.0328778
0.00030135
0.0498958
0.0434158
0.024086
0.0443817
0.0471712
0.0526541
0.127582
0.0729688
0.0508356
0.0633626
0.0541094
0.0432124
0.0750616
0.0604755
0.0449774
0.0633448
0.03751
0.0631792
0.0848628
0.0019823
0.0239609
0.0509263
0.0705838
0.0483872
0.0527485
0.0516951
0.0429796
0.0016565
0.000444562
0.0595826
0.0335858
0.0353573
0.0281212
0.0495294
0.0491792
0.0508378
0.0712498
0.0354086
0.0504581
0.0431476
0.0551096
0.0232417
0.00931622
0.0504705
0.0500005
0.037142
0.0491926
0.0488976
0.04344
0.0462014
0.0407072
0.0667768
0.0623538
0.0348618
0.0482656
0.0536338
0.0580122
0.0435082
0.0504066
0.0438623
0.0313486
0.00140182
0.00545552
0.0360404
0.123786
0.0439254
-0.0586134
0.0888536
0.0433344
0.04218
0.054307
0.0494795
0.0504707
0.0531371
0.057341
0.0429527
0.0519482
0.0496812
0.0967324
0.00555526
0.0341029
0.05061
0.0555671
0.0636571
0.070808
0.0332046
0.0525761
0.0503461
0.0489319
0.0442067
0.0290452
0.0269348
0.00574367
0.0622988
0.048734
0.0412981
0.0566716
0.0544106
0.0539889
0.047824
0.0586227
0.0504798
0.0157883
-0.00214576
0.0497274
0.0668042
0.0429948
0.0456951
0.0474756
0.0516464
-0.0409276
0.0639334
-2.02161e-05
0.0441839
0.00819637
0.0529867
0.0684512
0.127069
0.0558935
0.0506458
0.0311818
0.0218861
0.111313
0.0437718
0.067509
0.0459613
0.0500349
0.0653152
0.0480521
0.12096
0.000122994
0.0789768
0.0535304
0.0488739
0.0504486
0.0485461
-0.0270448
0.0395642
0.0499484
0.057012
0.04879
0.0499843
0.049877
0.0108691
0.00365889
0.0552002
0.0492773
0.0823548
0.0561011