/*--------------------------------*- C++ -*----------------------------------*\
  =========                 |
  \\      /  F ield         | OpenFOAM: The Open Source CFD Toolbox
   \\    /   O peration     | Website:  https://openfoam.org
    \\  /    A nd           | Version:  7
     \\/     M anipulation  |
\*---------------------------------------------------------------------------*/
FoamFile
{
    version     2.0;
    format      ascii;
    class       surfaceScalarField;
    location    "0.899";
    object      phi;
}
// * * * * * * * * * * * * * * * * * * * * * * * * * * * * * * * * * * * * * //

dimensions      [0 3 -1 0 0 0 0];

internalField   nonuniform List<scalar> 
18389
(
-7.97685e-05
7.97685e-05
4.34265e-05
-4.34265e-05
-5.20442e-05
5.20442e-05
4.01425e-05
-4.01425e-05
-5.1782e-05
5.17821e-05
-3.9913e-05
3.9913e-05
-3.47603e-05
3.47603e-05
3.9022e-05
-3.9022e-05
-3.55899e-05
3.55899e-05
4.14498e-05
-4.14498e-05
4.48789e-05
-4.48789e-05
-3.46578e-05
3.46578e-05
-1.36978e-05
1.36978e-05
-4.27634e-05
4.27634e-05
4.3468e-05
-4.34679e-05
2.39814e-05
-2.39814e-05
1.84612e-05
-1.84612e-05
4.58925e-05
-4.58925e-05
4.5921e-05
-4.5921e-05
4.33408e-05
-4.33408e-05
-4.24639e-05
4.24639e-05
3.55826e-05
-3.55826e-05
4.29827e-05
-4.29827e-05
-5.85149e-05
5.85149e-05
-4.9721e-05
4.9721e-05
-4.18117e-05
4.18117e-05
-4.45397e-05
4.45397e-05
4.56232e-05
-4.56232e-05
4.58474e-05
-4.58474e-05
4.41357e-05
-4.41357e-05
-4.13338e-05
4.13338e-05
-6.30751e-05
6.30751e-05
4.31157e-05
-4.31157e-05
-4.47429e-05
4.47429e-05
4.08605e-05
-4.08605e-05
4.66904e-05
-4.66904e-05
-4.5543e-05
4.5543e-05
5.35737e-05
-5.35736e-05
-5.88631e-05
5.88631e-05
3.78716e-05
-3.78716e-05
4.48371e-05
-4.48371e-05
4.5365e-05
-4.5365e-05
-4.10086e-05
4.10086e-05
4.48999e-05
-4.48999e-05
4.58674e-05
-4.58674e-05
-4.58468e-05
4.58468e-05
-4.5848e-05
4.5848e-05
-4.06587e-05
4.06587e-05
-4.58794e-05
4.58794e-05
4.59381e-05
-4.59381e-05
4.59565e-05
-4.59565e-05
4.46231e-05
-4.46231e-05
3.77325e-05
-3.77325e-05
-4.57617e-05
4.57617e-05
-5.55435e-05
5.55435e-05
-4.38143e-05
4.38143e-05
4.57507e-05
-4.57507e-05
-4.59937e-05
4.59937e-05
4.32268e-05
-4.32268e-05
-5.93194e-05
5.93194e-05
-4.71476e-05
4.71476e-05
4.96051e-05
-4.96051e-05
4.57367e-05
-4.57366e-05
-9.33785e-06
9.33786e-06
4.57745e-05
-4.57745e-05
4.14761e-05
-4.14761e-05
5.12044e-05
-5.12044e-05
-4.58725e-05
4.58725e-05
4.23201e-05
-4.23201e-05
3.13838e-05
-3.13838e-05
1.15831e-06
-1.15831e-06
-4.40852e-05
4.40852e-05
3.28684e-05
-3.28684e-05
-3.65743e-05
3.65743e-05
3.97663e-05
-3.97663e-05
2.66252e-05
-2.66252e-05
2.61979e-05
-2.61979e-05
2.70491e-05
-2.70491e-05
2.43969e-05
-2.43969e-05
1.32602e-05
-1.32602e-05
0.00107441
-0.000879122
-0.000195289
0.00546649
-0.00207545
-0.00339103
-0.00594644
0.0059464
4.31472e-08
0.00335424
-0.00259879
-0.000755449
-0.00155165
0.00175907
-0.000207412
-0.00675901
0.0028356
0.00392341
0.00121472
0.00425177
0.00725587
-0.00587585
-0.00138002
0.00118946
-0.00191928
0.00072982
-0.00087134
-0.000680315
-0.00144219
-0.000314624
0.00175682
0.000146466
7.79563e-06
-0.000154261
0.000778524
-0.00222072
-0.0036032
0.000122941
0.00348025
-0.00320266
0.00289318
0.000309483
-0.00570948
0.00725094
-0.00154146
-0.00370928
0.00289715
0.000812131
-0.00056368
-0.00303952
-0.00174843
0.00238867
-0.000640228
-0.000464441
0.00255883
-0.00209439
-0.00161168
0.00111105
0.000500629
0.000583527
0.000581832
-0.00159847
-0.00516055
0.00125807
-0.00179198
0.000533913
0.00578078
-0.00386151
-0.00191926
-0.000663754
0.00331094
-0.00264719
-0.00583482
0.00583475
0.000474671
0.0012844
-0.00633606
0.000969616
0.00536645
0.00232283
-0.00298658
-0.00378949
0.00311381
0.00067568
0.00214812
-0.00422356
0.00108655
-0.000203153
-0.000883395
0.00150515
-0.0012889
-0.000216251
-0.00280183
-0.000400829
0.00535168
-0.0053515
0.000369832
0.00113532
0.00522832
-0.00133713
-0.00389119
0.0019955
-0.000806038
0.00308569
0.00190868
-0.00499436
-0.000721716
-0.00306778
-8.91171e-05
-0.000154404
0.000243521
0.0039357
0.00332016
0.00116327
-0.00488686
0.00372358
0.00162734
0.00360097
-0.00498232
0.00632117
-0.00133886
-0.00113673
-0.000592891
0.00172962
0.00133777
0.00201647
0.000135292
0.000103626
-0.000238918
0.00502202
-0.00339468
0.00645934
-0.000841991
-0.00561735
0.00321523
-0.00265706
-0.000558169
0.00221868
0.000450823
-0.00266951
0.00294996
-0.00073128
0.00650344
-0.00539844
-0.00110499
0.000505581
-0.00386884
0.00336326
7.0124e-05
0.00638922
0.00480722
-0.00430164
-0.000535784
0.00105939
-0.000523599
-0.0017603
0.000623565
0.00191707
0.0022491
-0.00416616
0.000253398
-0.000333605
8.02074e-05
-0.00126763
-0.00284558
0.00411321
-2.63638e-05
0.00652981
-0.00281681
0.0022954
0.000521405
0.000389656
-1.24478e-05
-0.000377208
-0.00569231
-0.000254127
0.00187712
-0.00140245
0.000827806
0.00495298
0.000893304
0.00018111
0.00263037
-0.00645304
0.00382267
-0.0011202
0.000584421
0.0026385
-0.00390613
0.00619664
-0.00226093
0.0010921
0.00117729
-0.000791926
0.00104302
-0.000251091
-0.00111351
-0.000498163
0.00188916
0.00132607
-0.000595468
0.00142986
-0.00123758
-0.00019228
-0.0026552
0.00198911
0.000666089
0.00116691
0.000262957
0.00113736
-0.0049749
0.00383754
-0.00475727
0.00141882
0.00333844
-0.00455431
0.00611806
-0.00156375
-0.00506224
7.99244e-05
-0.00201828
-0.000636919
-0.000215326
0.000126209
-0.00122641
0.0046505
-0.00342409
-0.00122132
-0.000697963
0.00010331
-0.000192024
8.87145e-05
0.000126289
-2.29798e-05
-0.00125896
0.00463879
-0.00337982
-0.000156093
2.43554e-05
0.000131737
-0.00556822
0.00170672
-0.00119253
-0.000567768
-0.000449429
-1.89252e-05
0.000468354
-0.000543258
9.38275e-05
0.00101136
7.51866e-05
-0.00181019
0.000617662
-0.00015034
1.73081e-05
0.000133031
0.00136803
-0.00234447
0.000976441
0.000271104
-0.000135812
-0.00392554
0.00514026
-0.00245744
0.000709014
-9.2088e-05
-0.000425146
0.000517234
0.00568597
-0.00216923
-0.00351675
7.77434e-05
0.00250734
-0.00258508
0.00447008
-0.00561808
0.001148
0.00263496
0.003051
0.00291407
-0.00283633
-0.00615785
0.000448374
-0.0064666
0.0036306
0.00283601
0.00229329
0.00390335
-0.00438941
0.00137945
0.00300995
0.00149586
-0.000237789
-0.00102578
0.00402071
-0.00299492
0.00463943
-0.00162678
-0.00301265
-0.00460592
0.0037476
0.000858322
0.00369368
-0.00503081
5.91555e-05
0.000330501
-0.00136857
0.00583866
-9.21335e-05
0.00214927
-0.00205713
-0.00206658
0.00260929
0.000172796
-0.00278208
-0.00127741
0.00264543
-0.000647035
0.00325632
0.00164111
-0.00173324
0.00090391
0.00397287
-0.00487678
-0.00504197
0.00384218
0.0011998
0.00255192
-0.0035941
0.00104219
-0.00332821
0.00411626
-0.000788047
0.00034238
-0.00367059
-0.0008815
0.0008815
-0.000448879
0.000356791
-0.000126974
-0.000973462
0.00110043
0.00506977
-0.00184283
-0.00322694
-0.00243298
-0.00036886
0.00290055
0.000157857
1.65729e-05
-0.00017443
-0.00147
0.00112227
0.000347733
-0.000140957
-0.00490102
0.00505453
-0.00389127
0.000232457
-8.5992e-05
0.00444458
0.000577436
0.00406759
-0.00151567
0.000164938
-7.08106e-06
-0.00633018
-0.000986501
-0.00082369
0.00430037
-0.00190462
-0.00239576
0.00275659
0.00154379
0.00107775
-0.00563205
-0.00226103
-0.000555775
-0.00112084
-0.000958538
0.00207937
3.92066e-05
-0.00272244
0.00268323
-0.00235831
0.00123748
-0.00221811
0.0053038
-0.00462065
0.00160228
0.00301837
0.00254654
0.00066779
-0.000332421
-0.000335369
-0.00601505
0.000582789
0.00543226
-0.00418426
0.0058315
-0.00164724
0.00182526
0.00162992
-0.00345518
-0.00167241
0.000897159
0.000775246
-0.0027154
0.00207915
0.000636253
0.00110245
0.000774671
0.0002472
-0.000328936
8.17378e-05
0.00490028
-0.00399637
-0.00638705
0.00557822
0.000808834
-0.00479489
-0.00167171
0.00334267
0.000640862
-0.00398353
0.000153956
-0.000162165
8.20878e-06
0.000590433
-0.000125282
-0.000465151
-0.00451833
0.00261372
0.000388237
-0.000569535
0.000181298
5.57036e-05
-0.000937206
-0.00257573
0.00448441
-0.00530438
-0.00032326
0.00562764
0.000214227
0.000177196
-0.000391422
0.000784858
-0.000784857
0.00168483
-0.00072629
-0.00211029
0.00181187
0.000298418
0.00440152
-0.00302208
-0.000162387
6.29424e-06
-0.0012088
0.0012645
0.000702001
0.0012935
0.00234798
-0.000268825
-0.00401962
-0.00128475
0.00111537
-0.00498422
0.00321357
-0.00447253
0.000835442
-0.00213556
0.00130012
0.0033591
-0.00458551
-0.00271121
-0.00180713
-0.00483629
0.00469533
-0.000676374
-0.00533867
-0.00515955
0.00150345
-0.00147354
-2.99104e-05
0.00223251
0.00011547
-0.00601401
0.00204847
0.00396555
-0.00121933
0.00052601
0.00069332
0.00145366
0.00294787
-0.00462438
-0.00101539
0.00563979
-0.000212807
0.000138521
7.42847e-05
-0.00551433
0.00133007
0.00375311
-0.0049369
0.00118379
-0.00149425
-0.000616041
-0.00053668
-0.0006375
0.000138368
-0.000203833
6.54646e-05
0.00499581
-0.00385846
-0.00130121
0.00512564
-0.00382443
-0.000391048
-0.000817751
-0.00586118
0.000439915
0.00539483
-0.00616401
0.00456554
-0.000923227
-0.00546383
-0.00109524
-0.000374753
-0.00181696
0.00285715
-0.0010402
-0.00041918
0.000322052
9.71277e-05
-0.00173204
0.00141742
0.00160808
-0.000104625
0.000825373
-3.67463e-05
-0.0016953
0.00279659
0.00121777
-0.00303472
0.00605414
-0.000475919
0.00528167
7.00084e-05
-0.00528137
0.00439167
0.00114415
-0.00553581
0.000556447
-0.000768837
0.00021239
-4.09703e-05
-0.000407908
-1.28593e-05
0.006067
-0.000162186
0.00015683
5.35636e-06
0.000133359
2.05969e-05
0.00253836
-0.00335766
0.000819297
-0.00191711
0.000724258
0.00119285
0.00792432
-0.00345448
-0.00446984
0.00117068
0.00126397
-0.00243465
0.000106649
-0.000173228
6.65797e-05
-0.000805865
0.00133187
0.00116164
0.00318228
-0.00434391
-0.00561431
0.000165809
0.0054485
-0.00401957
0.00299379
0.00173506
0.00479475
0.0045853
0.00333901
-2.17281e-05
0.00019048
-0.000168752
-0.00130853
0.00439678
-0.00308825
0.000300339
-0.000341309
-0.00013132
-8.1487e-05
0.00410088
-0.00227564
0.0047722
-0.005019
0.000246801
-0.00324923
0.00608384
-0.00283461
0.00252738
0.0015735
0.00575482
-0.000982622
-0.00138839
-0.00562124
0.00137257
0.00424867
0.000654627
0.000520699
-0.00117532
0.00126959
-0.00061496
0.000585374
-0.00111026
0.000524886
0.00110607
0.000272563
0.000395228
-0.000678238
0.00443136
0.00151785
-0.000395587
0.00353902
-0.00613031
0.0025913
0.00153411
-0.00258488
0.00105077
-0.00432034
0.00116474
0.0031556
0.00291363
-0.00422215
-0.00490826
-0.00125575
-0.00409967
0.00126813
0.00283154
0.00124925
0.00314752
-0.0032648
-0.000834871
0.00222671
-0.00105604
-0.000680923
-0.00253064
0.00321156
0.00240749
0.000618312
-0.00302579
-0.00159046
0.00120175
0.000388711
0.00026997
0.00148747
-0.00196606
0.000478592
-0.000110861
-0.000222745
-0.000264385
0.000153524
-0.00435452
-0.000251392
-0.000293683
0.00117484
-0.000881154
0.00435129
-0.0046453
0.000294004
-8.84237e-05
0.00011777
-2.93457e-05
0.000973683
0.00338193
-0.00435561
-0.000157004
6.85804e-05
-0.00475234
0.000710876
0.00404147
-0.000728584
0.000116001
0.000612581
8.52155e-05
-7.74198e-05
-0.000401035
0.00086467
-0.000347474
-0.000517197
-0.0060358
0.000637353
-0.00254967
-0.000128197
0.00267786
-0.00316902
0.00441827
0.00218083
-0.00108873
-0.00116719
-0.00117948
-4.18415e-05
-0.00351957
-0.00123769
0.00150735
-0.000403947
-0.0011034
0.00191912
0.00183869
-0.00375781
0.00504696
-0.00161485
-0.00343211
0.00079313
-0.00541751
-0.00137345
0.00300337
0.00195954
0.000782586
-0.00274212
-0.00349759
0.00447128
-0.00015296
2.62088e-06
0.000937855
-0.00443544
-0.0044973
-0.000148007
-0.000998323
-0.00461598
0.00463239
0.00149066
0.00355629
0.00415883
0.00114438
-0.00530321
3.64638e-05
5.90247e-05
-9.54886e-05
-0.00140629
0.00336584
0.00371755
0.00353339
-0.00139986
0.00236995
-0.000970084
-0.00248083
0.000462549
-0.000878409
0.000751433
-0.000196951
0.000411179
-0.00021312
0.00170059
0.00376341
-0.00184429
-0.00107098
-0.000601426
-0.000107165
-0.00015722
0.00355043
-0.00163336
-0.00240369
0.0046528
0.000674544
-0.0030959
0.00242135
0.000636008
0.000763545
-0.00105723
0.00209941
-0.00131447
-0.00327482
0.00458929
-0.00217539
0.00480576
-0.000552894
0.00344607
0.000239089
-0.000221781
-0.00236304
0.000963181
0.00232191
-0.00386794
0.00154604
-0.00121511
5.78613e-05
-2.13976e-05
0.002148
-0.00279648
0.000648487
-0.00116884
-0.000421615
-0.00353093
0.00450055
0.00119429
0.00167561
-0.0028699
-0.00169006
0.00366492
-0.00197486
0.00424095
-0.00085902
0.00023436
1.41089e-05
-0.000248469
-0.00372244
0.00203238
-0.00142967
0.00471986
-0.00329019
0.00087799
0.00130284
0.000163725
0.000621132
0.000253025
-0.000300703
4.76781e-05
0.0016977
0.000208152
-0.00190585
0.00301824
-0.00459078
0.00157255
-5.28464e-05
0.000374279
-0.000321433
0.00156302
-0.000361273
0.0014084
-0.000614979
-0.000793418
0.00282381
-0.00392624
0.00110243
0.00267986
-0.00374312
0.00106327
-0.00516655
0.00191732
0.00390457
-0.000886325
-0.000634778
-0.00237556
0.00301034
0.00140708
-0.00511793
0.00371084
0.00336053
-0.00145892
-0.00190161
-0.000681868
0.00172514
-0.00104327
0.00477133
-0.00303628
-0.00069608
-0.00196098
-0.00598315
0.00514116
3.87203e-06
0.000121696
-0.000125568
-0.00157879
0.00119975
0.000379043
-0.00491063
0.00630954
-0.00139892
-0.00188659
0.00072016
0.00116643
0.000404341
0.00268637
-0.00208763
-0.00059874
0.00343545
0.000489145
-0.0039246
0.000128111
-2.14615e-05
0.00517198
0.000337307
-0.00550928
-0.00194094
0.00379773
-0.0018568
0.00276948
-0.000640243
-0.00212924
0.000462544
0.000402126
-0.000437157
0.00387261
0.00202592
-0.00396685
0.000707857
-0.000265496
-0.00044236
-0.000651964
3.1709e-05
0.000620257
-0.00315169
-0.00576563
0.00576613
-0.000274807
0.000951066
-0.00067626
-0.0022882
-0.000192633
-0.0045541
0.00323962
-0.000873062
0.00113093
0.00360688
-0.00501942
0.00141255
0.000410673
-0.00296034
0.00233084
-0.00244121
0.000110355
-0.00157143
0.00148228
8.91517e-05
-0.0012094
-0.000369398
-0.00339247
0.0034283
-0.002234
0.000457228
0.000133205
-0.0017345
0.00105263
-0.00279527
0.000745057
0.00205021
0.000242364
-8.00336e-06
-0.00347689
0.00102364
0.00245325
-0.00144469
0.00560352
0.000339699
-0.000954406
0.000614708
0.00211954
0.000649938
-0.00127774
0.000304282
0.00111407
0.00121678
-0.00142946
0.00495817
-0.00352871
-0.00484864
0.00577225
-0.000923605
-0.00117413
0.00228618
0.00410305
0.0010722
3.88409e-05
0.00586468
-0.00552779
-0.00033689
0.0035554
-0.0046604
0.00110501
0.0030925
-0.000685019
0.00542621
-0.00181933
-0.00250412
-0.000972774
-0.00217535
-0.000318127
0.00249349
0.00241211
-0.00196129
-0.00160818
-0.00424235
0.00274779
0.00149455
-0.00033166
0.00122882
0.00121352
0.00366047
-0.004874
-0.000284086
0.000672322
0.00305957
-0.00238503
-0.00472459
-0.00125856
0.00647045
-0.00129847
0.00424078
0.00206125
0.000497583
0.00285504
-0.00212569
-0.000729354
0.00473786
-0.00245169
-7.12606e-05
-0.00332567
-0.000868268
0.00419395
0.000388173
-8.64858e-05
-0.000301687
-0.00514065
0.00610753
-0.000966872
-0.000729205
0.00190435
-0.00117514
-0.000697032
0.00525223
-0.0045552
0.00118309
-0.0019123
-0.000113378
-0.00576246
-0.000791926
0.00202879
0.00383589
-0.000248702
-0.00192665
0.0002514
-4.1998e-06
0.000362565
-0.000487847
0.00336189
-0.000823531
-0.00522675
-0.000271615
-0.000147565
0.000150183
-0.000133571
-1.66119e-05
-0.00248321
0.000124895
-0.000421962
0.00159293
-0.0010139
-0.000579023
0.00246907
0.000595844
-0.00306492
-0.000716081
0.00318514
-0.00520291
-0.000271526
0.00547443
0.00375107
0.00137457
0.00441107
-0.00122879
-0.00013093
0.00254304
0.00540385
-0.00020664
-0.00519721
-0.00608715
0.00425247
0.00183468
0.00320933
-0.00126837
-0.00435287
0.000203431
-0.000225159
0.000584471
0.000823923
0.00110388
0.000137867
-0.00124174
0.0042123
0.00119155
-0.000960721
0.00317188
-0.00221116
0.00473289
-0.00139022
-0.00217892
0.00279237
-0.000613445
-0.00117656
-0.000118113
0.00031254
-0.000194426
0.00344634
-0.00414337
0.0013442
-0.000986993
-0.000357205
0.00159598
-0.000396229
-0.00325173
0.00229101
0.00548716
-0.00434302
-3.06473e-05
0.0003527
-0.0053569
0.000446268
0.005444
-0.00190499
-0.00100083
-0.00361539
0.00461622
-0.000646666
0.00288283
-0.00223616
0.00549726
-0.00286245
-0.00263481
-8.83977e-05
0.000591991
-0.000677136
0.00066053
1.66055e-05
-0.000689321
0.00172994
-0.00104063
-0.00314939
-0.00117095
0.000155571
-1.72029e-05
-0.00122486
-0.00478915
-0.00307631
0.00239538
-0.000550934
-0.000233922
-7.26155e-05
-8.95702e-05
-0.00120916
-0.000805786
-0.00523002
-0.00283858
0.00219192
-0.00081816
0.00118799
0.00111735
0.00438407
-0.00550142
0.00339631
-0.00275545
0.000467772
0.000772449
-0.00288381
0.00211136
0.00498501
-0.00493514
-4.98655e-05
-0.00320952
0.0036156
-0.000406069
0.000207792
-9.56075e-05
-0.000112185
-0.00495838
-0.00149467
-0.00175739
0.00368953
-0.00193214
0.00298136
-0.0022089
-0.0037838
0.00202642
0.00139502
-0.00258174
0.00118671
-0.00363297
0.00568144
0.00649957
-0.00219564
-0.00430394
-0.00239914
0.00237425
2.48977e-05
0.0056126
-0.00163974
0.0011847
-0.000923639
-0.000261067
-9.12362e-06
0.000262149
0.00024941
-0.000774138
0.000524728
-0.00304781
0.0036511
-0.000971238
0.000845649
-0.0010488
0.00236333
-0.00063252
-0.00173081
0.0021999
-0.000502204
0.00452384
0.000630358
0.00173297
-0.00175436
0.00106504
0.000408598
-0.000464692
5.60944e-05
0.00221157
-0.00174427
-0.000467301
0.000831251
-0.0051478
-0.000544507
0.000369491
-0.000588345
0.000218854
-0.00410156
0.00547413
0.000942158
-0.00111662
0.000174461
-0.00152646
0.00216546
-0.000638992
-0.00149065
-0.0027517
-0.00538175
-0.000153843
0.0055356
0.000301311
0.000108294
4.18896e-05
0.00012769
-0.000127683
-7.51751e-09
0.00411741
-0.00290389
-0.00380204
-0.00232826
0.00346566
0.00303391
-0.00259435
0.000729804
0.00186455
-0.000844668
0.00223968
-0.00229773
-0.000101409
0.00272939
-0.00377743
0.00104804
0.00130714
-0.000132307
0.000461049
0.000550312
-0.00327754
0.000963224
0.00231432
0.000915266
-0.000608231
-4.37343e-05
-0.00427526
0.0017231
0.000101853
-0.00182495
-0.00396523
0.00146492
0.00250031
0.000521945
0.00147493
-0.000890466
-0.000246154
-0.00466057
0.00490673
0.000784465
-0.00247672
0.00169225
0.00120221
0.00131232
-0.000469236
-0.00171728
0.00218652
0.00258003
-0.00179556
0.00447015
-0.0035323
-0.00078414
-0.00264082
-0.000227352
0.000251707
-0.000704102
0.00176484
-0.00106073
0.00265964
-0.00366751
0.00100785
0.00013644
2.03902e-05
-0.00236341
-0.000914136
0.00142127
-0.00163648
0.000215214
-0.00277424
0.00068661
0.00127635
-0.00141881
0.000142451
0.00161856
-0.00180795
0.000189398
0.000676127
-0.00372562
-0.00116123
0.00135153
-0.00490088
0.00354935
-0.000913797
0.00357343
0.000119
-7.92619e-05
-3.97378e-05
0.00475809
-0.00364073
-0.000315065
-0.00153071
-0.00401824
-0.00149609
0.0020918
0.000700562
-0.00101261
-0.000923329
-0.00452546
-0.00163239
-0.000392338
0.00124177
-0.000931136
-0.000310636
-0.00149623
-0.00108866
0.000657228
0.00225739
-0.00291461
-0.000114254
0.000670701
-0.000715947
3.88114e-05
-0.00245799
0.00196644
0.00139409
-0.000719695
0.00162974
-0.000910044
-8.68719e-05
-0.000116961
0.000318135
-0.00194595
0.000451702
0.00160906
-0.0023117
0.000702638
-0.00334229
0.00258139
0.000760884
0.001197
0.00241505
-0.00361205
-0.00175413
0.00105003
-0.00294131
-0.00102392
-0.000791575
-0.00255071
-0.00167637
0.00125291
0.000423461
0.00176504
-4.19366e-05
-0.000763098
-0.00243344
0.00319653
-0.000675727
0.00291438
-0.00225714
-0.00085854
-0.00394761
0.00480616
-0.00234374
0.00233986
3.8802e-06
-0.000728584
-0.00156273
0.000548832
-0.00240527
0.00381921
-0.00141395
0.00323291
0.00288515
0.000194387
3.62288e-05
-0.000230617
0.00234035
-0.000602812
-0.00173754
0.000187968
-0.000184096
-0.00358856
0.00494009
-0.00329905
0.00524748
-0.00194843
-0.00350973
-0.00150969
-0.000914935
0.00323165
-0.00231672
0.00285702
0.00177514
-0.00418043
-0.00499436
-0.000146286
-0.000790199
0.00284744
-0.00205724
-0.000431665
0.000378818
-0.000529936
0.00167595
-0.00114602
-0.00403391
0.0033428
0.000691108
-0.00326941
0.00235447
-0.00386855
0.000674108
0.00319444
0.00140967
-0.00101369
-0.000395976
-0.00589956
0.000696649
0.0018467
-0.00141086
-0.000435834
0.00141232
-0.000399125
-0.0010132
7.83747e-05
0.000129417
0.0029328
-0.000637392
-0.000220811
-0.00348746
-0.000381089
0.000427145
-0.00305475
-0.00097916
-0.00233645
-7.29168e-06
-0.0029249
0.00229012
0.000720752
0.00260174
-0.00332249
0.000585255
-0.000860062
0.001409
-0.00671796
0.00530896
-0.00578539
0.00099049
-0.00234208
0.00353908
0.000692969
0.000258098
-0.00273282
0.00345357
-9.70773e-05
0.00508209
0.000615586
0.00170445
-0.00232004
-0.00177625
0.00124632
0.00274704
-0.00369599
0.000948949
0.00510076
0.000667104
0.00154446
0.000317142
0.000390714
-0.000364035
-0.000404802
0.000180978
-0.00174571
0.00176684
-0.000888849
0.000860804
0.000614128
-0.000584415
0.00301105
-0.00242663
-0.00150034
0.00184343
-0.000343096
-0.00489442
0.00380302
0.0010914
-0.00480406
0.00150501
-4.00987e-05
3.98843e-05
2.14402e-07
-0.00281135
-0.000856154
0.00108301
-0.00129486
0.000211843
0.00135837
-0.00494693
0.001078
2.58761e-05
0.00124204
0.00069448
0.00218835
-0.00366744
0.000856096
0.000191534
-0.00504018
0.00190325
0.00121475
0.000689599
-0.00527317
-0.000492453
0.00565276
0.00118535
0.00710736
-0.00218516
-0.0049222
0.000791216
-0.000381551
-0.000409666
0.000716941
-0.00138271
0.000781283
-0.00386052
-0.00125741
0.00031254
-0.000936688
-0.000418319
0.00135501
0.00232997
0.00400855
-0.00486708
0.00270262
0.000834681
-0.00353731
0.00124966
-0.00096324
-0.000286416
0.000745267
0.00159508
-0.000135059
0.000138282
-3.22265e-06
-0.00070995
0.00288362
-0.00217367
0.00362168
0.00109818
-0.00126175
-0.000414626
0.00142407
-0.00156217
0.000138102
4.75405e-05
7.14592e-05
-0.0044769
0.000967171
-0.00165277
0.000443363
-0.00364816
0.00293207
-0.000947908
6.87857e-05
0.000934984
0.0026798
-0.00361478
0.000846039
-0.00126314
0.00419037
-0.00292723
0.000318518
0.000279893
4.65564e-05
-0.00032645
7.83158e-05
-0.0053917
0.00531338
-0.00263208
-0.00078003
0.00341212
-0.00349341
0.00260858
0.000884834
-0.00277527
-0.000261437
-0.00171345
-0.00490622
0.000887973
-0.00145517
-0.000881279
-0.00106299
0.00379238
0.00170892
-0.00372606
0.00201714
0.000105181
2.25091e-05
0.00372616
-0.00201724
0.00286269
0.000960948
-0.00382362
-0.00130222
0.00174136
-0.000439142
0.00357441
0.00110119
-0.0046756
0.00718694
-0.00197306
-0.00521387
-0.00212755
-0.000711024
-0.00172893
0.00234451
0.00377262
-0.00492781
0.00115518
-0.00280247
0.00373745
0.00113391
8.98755e-06
-0.0011429
0.00148099
0.000907662
-0.005507
0.00059874
0.000432281
0.000358934
0.00292154
-0.0011218
-0.00252058
0.00247949
4.10946e-05
0.000504774
-0.00184047
0.00133569
-0.0038693
-0.00119293
0.00108938
-0.00254455
-0.00529913
0.000151326
-0.00124837
-0.000525498
0.00177387
0.00563715
-0.00449277
0.000104352
0.000283821
-0.00301633
0.00318913
0.00144087
-0.00107185
-0.000369018
0.00346932
0.00475985
-0.000956835
0.000644916
-0.003277
0.00108803
-0.000972035
-5.28833e-05
0.00046148
0.000394004
-1.97248e-05
-0.0020706
-0.000452835
0.00153585
-0.000912027
-0.00349741
0.000764604
-2.68032e-05
-1.32956e-05
0.00599853
-0.00492077
0.00522219
-0.00439439
6.61738e-06
-0.000612581
0.000605964
0.00194884
-0.000458365
-0.00149047
0.00335877
-0.000757032
-0.00256803
0.00336102
-0.000792982
-0.0018338
0.000531582
0.00127776
-0.000951421
-0.00032634
-0.000118766
-0.00021017
0.00205912
-0.000548295
-0.00151083
-0.00138258
-0.00239453
-0.000126051
0.00208958
-0.00274583
0.000656254
0.00280641
-0.000750444
-0.00205597
0.00410343
-0.00434958
0.000314523
0.00224151
-0.000632444
-0.000682448
0.000834665
-0.00367814
0.0050365
0.00122935
0.000470881
-0.00171925
-0.00286557
0.00209646
0.00363341
0.00158878
-0.00113763
-0.00383124
-0.00114367
0.00130343
-0.00171765
0.000414222
0.00367522
-0.00318608
-0.000193834
0.00113599
-3.85134e-05
-0.000269653
0.000308167
-0.000696668
-0.00189769
0.00377221
-0.00490942
0.00113721
-0.00186462
0.00235248
-0.000487872
-0.00115559
0.0021325
0.00075111
-0.00226285
0.00375508
-0.00149224
0.00150477
-0.00114085
-0.000363927
-0.00100712
0.000278539
0.000177982
-0.000435582
0.0002576
-0.000424994
-0.00122777
-0.00247986
0.00250411
-2.42494e-05
0.00144871
-0.00371156
0.00162487
-0.00037196
0.000373706
-0.000422942
4.92359e-05
-0.000826959
0.000593656
0.000233304
-0.000794793
-0.00285034
0.000830933
0.00201941
-0.0019957
-0.000854398
-0.000711792
0.00156619
-0.00524415
0.00389656
0.00134759
-0.00125413
0.00126075
-0.000576394
-0.000115921
0.000692315
0.0028686
-0.000736104
-0.00077039
-0.000160179
0.000930569
0.00184153
-0.00137065
0.00169733
-0.0003939
-0.000166095
-0.00063616
-0.00420442
0.00484058
-0.00138953
0.00283072
0.00427664
-0.00239923
-8.06255e-05
0.00312058
-0.00473543
0.000733397
0.00158133
-0.00231473
0.00200962
-0.00279981
0.00199361
-0.000726964
-0.00126664
-0.00179593
0.000455824
0.00134011
0.00431891
0.00286802
-0.0055181
0.00133635
0.00418175
-0.00125195
-0.00399219
-0.000460111
-0.00133583
-0.00100108
-0.00056165
-0.00129241
-0.000425241
0.00114447
-0.000532133
0.00150746
-0.00097533
-0.00175711
0.001297
-0.000944472
-0.000207217
0.00115169
0.00217122
-0.00286728
0.000696066
-1.17705e-05
0.000206158
0.00103492
0.00606319
-0.0014114
-0.00465179
-0.0020354
-0.00187377
0.00133831
0.000535459
0.00127068
-0.00097846
-0.000292219
-0.00229258
-0.00102701
0.0033196
-0.00266995
0.00358313
-0.000913185
-0.000920405
0.00111531
9.02704e-06
-0.00112433
0.0037612
-0.00493702
0.00117582
0.00174749
-0.00135539
-0.000392093
0.00242708
-0.00122487
0.00273942
-0.000635491
-0.000191468
-0.00409063
0.00229284
-0.00180195
-0.000490891
0.000560746
-0.00200915
0.0014484
-0.00251444
-0.000843216
0.000860075
-0.00065891
-0.000201165
-0.000180482
-0.00364307
0.000973128
0.000647417
-0.000469434
0.00259134
0.000991787
0.00031926
0.00130704
0.00068657
-0.00160323
0.00233662
-0.00150172
0.000986828
0.00051489
0.00355053
-0.000687838
-0.00381033
0.00610362
-0.00114822
-0.00248744
0.00683162
-0.00434418
-0.000888327
0.00356813
-0.00414181
0.000932296
-0.00210132
0.00424944
-0.000693761
-0.00161794
-0.00245129
0.00171247
0.00073883
-0.00127974
0.000420092
-0.000462002
4.19112e-05
-0.00137497
-0.000776764
-0.000153612
0.000930377
-0.00156552
0.00136173
0.000203795
0.00203697
0.000810465
6.26215e-05
-0.0013002
-0.000555811
-0.000826898
-0.00242049
-0.000480197
-0.00139357
-0.00017135
0.00159262
-0.000180693
0.00341126
-0.000514117
0.00133897
0.000200576
-0.000808488
-0.000983497
-0.00192998
0.00247688
-0.000546901
-0.00104358
-0.00572891
0.0035108
0.0014821
-0.000621292
0.00288865
-0.00121304
0.000963832
-0.00135888
-0.00453033
0.0058892
0.000620391
-0.00255037
0.000741047
-0.00369018
0.00269825
0.000991918
0.000889893
-0.00142203
0.00222606
-0.0031185
0.00089243
0.00119624
-0.00342975
0.0022335
0.000861097
0.00168776
-0.00254885
-0.000174692
0.00179325
0.00274327
0.00107978
0.00362009
-0.000413522
0.000783012
0.00315849
-0.00402676
0.000983271
-0.00327585
0.00043558
0.00412553
0.0014717
-1.09165e-05
-0.000274387
0.000285303
-0.00619348
0.0038565
0.00233699
-0.000829414
-0.00261481
0.00344423
0.00263989
-0.00177879
-0.00369695
0.000894483
-0.00132139
-0.000435725
-0.000152872
0.00131978
0.00372785
0.00123031
0.000224583
0.00130875
-0.000992598
-0.000316153
0.000899326
0.000582772
-0.000313838
0.00376801
-0.00493493
0.00116693
0.0030786
-0.00085255
-0.00139852
0.00190329
0.00125784
-0.00355442
0.00229658
-0.00116902
0.00145599
0.000678381
-0.00213437
0.000193156
-0.000204072
0.00219872
-0.000860948
-0.00124545
0.00033029
0.000925255
-0.000349328
-0.000575926
0.00353258
-0.00227474
-0.000508665
0.00229174
-0.00178308
0.00101926
-0.00296814
0.00208175
0.000886402
0.000106106
-9.24786e-07
0.00467075
0.000542386
-0.00570294
-0.00519701
0.00392731
0.00126971
-0.00107836
-0.00269462
0.00377297
0.0022213
0.00372509
0.00282679
-0.00375392
0.00092714
-0.0014699
0.0011005
-0.000957354
0.00337447
-0.00241712
0.00149683
0.000562291
-0.00378489
-0.00240859
0.0010816
-0.00230294
0.0032146
-0.000911672
0.00343474
-0.000826159
0.000397102
-0.000813377
0.00254273
0.00089201
-0.00063538
0.0043106
-0.00130864
0.00171615
-0.000407507
0.00199664
-0.00127238
-0.000390114
0.00607685
-0.0049227
-0.000459052
0.000858573
-0.0024618
-0.0053915
-0.00172225
0.000413605
-0.000678148
0.000101753
-0.000870161
0.000212989
-0.00146808
0.000670066
0.00157143
-0.000905432
0.000135042
0.000805264
0.00251591
-0.00332119
-0.00109513
0.00187365
-0.00194682
-0.00047433
0.00196107
-0.00148674
-0.000884119
-0.00208402
-0.00195169
0.00147736
-0.00265748
0.00346274
-0.00163933
0.000583902
0.00105542
-0.000981853
0.00357319
0.0060172
-0.00229965
-0.00130246
-0.000419783
-0.00174045
0.00109928
0.000641166
0.000905562
-0.00452011
0.00361455
-0.00131322
0.000544795
0.000768418
-0.00403523
-0.00116179
0.000191731
-0.0011362
0.00193896
-0.000724211
-0.00134682
-0.00380499
0.00515181
0.000999898
7.23066e-05
0.00329703
-0.00252773
-0.000769294
0.000138887
0.00127343
0.000876551
-0.000669713
-0.000206838
-0.00134487
-0.00101816
-0.00108349
0.00512343
-0.00403993
0.00063342
-0.00249804
0.000129849
0.00129422
0.00377367
-0.00496227
0.00118861
0.00287996
-0.00204902
0.000101838
-0.000168343
6.65054e-05
0.00102938
0.000138089
0.000104274
0.002358
0.0037052
-0.000583757
-0.000806102
0.00138986
0.000653047
0.00177124
-0.00242428
0.0024026
-0.00170481
-0.000697787
0.000475758
0.00147308
0.000426099
-0.000512947
-0.000800267
0.000599544
-0.00532414
0.000690408
-2.98783e-05
-0.00116126
-0.00131708
-0.00379045
0.00510753
0.00103007
0.00143698
-0.00189534
0.00254633
-0.000394721
-0.00490875
0.00530347
0.000120586
-1.87484e-05
0.000660022
0.00127894
0.00272921
0.00094382
-0.00367302
0.001375
0.000471694
0.00258716
-0.00364037
0.00454594
0.00277384
0.000843618
-0.00361746
0.00163426
-0.000836744
-0.000797516
0.00132813
-0.00101871
-0.000309414
0.000423743
0.00106004
-0.00470041
0.00021764
-6.95467e-06
0.00020011
0.0060458
-0.00128772
0.00152587
-0.00212868
0.00252741
-0.00182241
-0.000705
0.000863812
-0.00254602
0.00168221
0.00523466
-0.00281643
-0.000926683
-0.00158748
0.00501124
0.00148636
-0.00178137
0.000295013
0.000499725
-0.000103774
-0.00039595
-0.000997022
-0.00313969
0.00413672
0.000743083
0.00181899
-0.00256207
0.00176755
-0.000281183
0.00224794
0.00140592
-0.000861125
-0.000937446
0.000160681