/*--------------------------------*- C++ -*----------------------------------*\
  =========                 |
  \\      /  F ield         | OpenFOAM: The Open Source CFD Toolbox
   \\    /   O peration     | Website:  https://openfoam.org
    \\  /    A nd           | Version:  7
     \\/     M anipulation  |
\*---------------------------------------------------------------------------*/
FoamFile
{
    version     2.0;
    format      ascii;
    class       volScalarField;
    location    "0.266";
    object      T;
}
// * * * * * * * * * * * * * * * * * * * * * * * * * * * * * * * * * * * * * //

dimensions      [0 2 -2 0 0 0 0];

internalField   nonuniform List<scalar> 
12359
(
5.25682e-86
-3.09642e-69
-8.70195e-239
-4.16338e-45
2.1632e-79
-2.91647e-31
2.18141e-25
-2.01808e-28
6.00749e-21
1.0015e-33
-1.03501e-22
-1.20342e-14
0.0283679
1.05831e-42
4.8288e-48
-3.80842e-07
-3.64602e-05
-4.69842e-130
2.02105e-133
4.08126e-57
6.7377e-40
5.59053e-17
5.27517e-63
-2.0022e-54
-3.54108e-67
-6.40355e-60
5.1052e-173
-1.54782e-177
2.2915e-140
-4.12088e-164
1.56788e-156
-1.07192e-192
3.60688e-212
2.12405e-166
4.46075e-227
-3.21205e-153
3.58583e-105
8.16577e-90
5.22356e-82
5.54118e-96
3.14194e-72
-2.11646e-93
-1.23732e-113
5.37341e-117
-5.33152e-147
-1.21839e-144
5.1339e-150
-5.68818e-160
-7.66715e-137
-1.43411e-169
-1.38318e-179
-6.59206e-186
2.86624e-196
8.86841e-127
-2.19712e-202
-8.85994e-209
-2.37038e-121
-1.10035e-215
2.11895e-219
-4.02997e-223
1.5332e-205
-1.37577e-232
1.20707e-182
3.10157
-1.11434e-123
-1.19116e-36
-4.54012e-108
3.18999e-189
3.77169e-102
1.09187e-09
77.1597
-1.4848e-75
-4.77074e-243
-9.38152e-99
-2.10288e-51
1.01671e-229
1.14018e-199
1.5906e-235
7.48544e-111
2.9731e-13
6.00681e-35
-8.35606e-157
0
-2.59055e-97
0.000196913
9.14638e-109
-1.86554e-154
-1.40673e-217
0.0507001
5.04406e-05
1.07612e-271
1.63134
2.9194e-274
5.24616e-127
4.27418e-103
2.97843e-86
-3.57086e-133
-2.42813e-127
1.75071e-65
7.38174e-81
7.79963e-29
-3.6296e-262
-2.61859e-111
10.6427
1.54329e-166
4.24715e-44
1.01272e-281
0.000225866
6.94626e-118
1.12659e-45
-2.17814e-135
-1.18384e-155
-1.16139e-39
1.59542e-33
-4.58164e-103
3.21727e-194
-2.49048e-32
2.59709e-156
0.25353
0
6.22567e-137
-1.46691e-29
1.08261e-214
6.17661e-64
9.6621e-155
-1.1146e-182
7.23922e-22
-1.16462e-97
-3.92973e-237
4.52054e-156
-2.12127e-193
1.22921e-14
8.04843e-12
2.2394e-12
-7.56377e-285
1.38586e-63
-2.19486e-193
-9.46242e-66
-1.61868e-257
3.97621e-23
2.01487e-313
-2.88733e-85
7.61931e-60
-9.0059e-283
5.85022e-27
-4.02487e-35
0
5.0785e-05
2.64494e-166
1.59357e-32
2.78993e-85
-4.90036e-259
1.42985e-58
-3.39092e-213
3.06097e-281
96.9442
4.63408e-30
5.3343e-15
2.57474e-133
-8.25191e-203
-1.15241e-45
-3.25074e-201
1.75849e-64
2.94112e-60
7.67369e-313
-7.14461e-185
-1.3705e-47
9.5015e-29
3.4885e-62
0.059658
2.35943e-233
3.80263e-231
1.21479e-64
2.10836e-68
1.41258e-168
1.44217e-23
-7.75145e-147
-1.0224e-148
4.39536e-39
7.16624e-25
3.24915e-44
5.98203e-279
-1.83738e-237
-8.13347e-156
4.60325e-67
-1.56979e-19
1.53177e-130
4.98279e-107
7.62805e-83
-4.81335e-130
1.32726e-105
4.14697e-88
1.48738e-88
-3.31136e-211
1.2554e-45
13.4681
8.41091e-90
1.84519e-130
-1.70833e-57
6.94141e-155
-1.85188e-33
7.21062e-84
-2.61894e-79
2.69453e-46
2.59982e-31
5.41071e-280
1.27423e-29
-9.42287e-78
1.43764e-57
6.29218e-141
1.98064e-304
2.3384e-31
1.42226e-30
142.023
-7.1346e-19
-5.3821e-255
3.03941e-130
-5.56352e-105
2.64807e-129
-3.85611e-83
5.01284e-34
2.49605e-142
1.55557e-65
1.71822
-4.03534e-156
2.31277e-304
-1.38695e-81
3.84329e-120
2.14019e-25
-4.68278e-126
-1.44945e-125
-2.02677e-316
6.89798e-27
3.05624e-74
-5.16888e-108
6.99016e-76
0
2.22576e-55
1.64153e-106
6.78471e-06
-8.54878e-302
-5.57556e-105
-3.91699e-116
1.32877e-12
-1.50115e-43
6.68316e-05
-3.30172e-221
5.84993e-59
-2.01946e-175
1.27882e-88
1.33898e-40
-1.3065e-92
8.3557e-153
-5.20921e-125
0.610502
114.797
0
4.40695e-148
0.613142
130.402
1.19758e-79
3.15288e-45
4.39934e-28
9.2503e-47
-2.00513e-69
48.9546
0.186705
1.45131e-41
2.59269e-150
6.2982e-63
2.24873e-63
3.18611e-65
9.22781e-61
2.00495e-127
3.62751e-144
4.65263e-304
1.50425e-146
2.79443
1.89589e-41
-1.54196e-263
6.92493e-261
4.85753e-47
-7.63521e-152
1.97657e-109
-7.02257e-107
6.20986e-319
3.48728e-28
-3.35854e-260
3.76102e-262
5.89256e-195
5.62639e-66
-3.27266e-159
44.3281
8.97231e-284
4.43508e-280
9.35475e-108
3.46269e-177
5.06947e-35
-7.08058e-108
-1.18132e-184
-5.7908e-271
2.16253
9.85964e-27
5.53305e-272
1.88444e-129
-9.96935e-110
-7.88059e-174
-1.79805e-193
3.73203e-194
-1.11584e-171
-9.35671e-138
-1.28499e-19
-1.78804e-174
-5.61068e-158
-6.82383e-91
6.15212e-50
0.0392114
1.96754e-172
2.49565e-68
4.44191e-08
2.65756e-262
1.04617e-68
8.80469e-260
3.30904e-86
-1.99923e-280
-2.33945e-171
2.62895e-21
5.89299e-64
-1.05431e-20
5.09356e-111
-1.85682e-117
1.78662e-89
7.99294e-86
4.38402e-116
2.67253e-90
1.23852e-89
-1.24672e-239
4.25606e-210
7.45824e-211
-5.91283e-208
1.86863e-208
5.48129e-05
-7.66692e-317
1.70751e-32
1.19785e-68
1.10094e-69
1.32374e-57
8.49832e-63
4.41332e-111
4.19657e-90
1.03897e-63
2.79675e-90
6.14181e-69
6.28598e-46
1.29889e-44
3.19345e-39
-8.85219e-84
8.09566e-20
-1.21926e-86
-2.7908e-86
6.79646e-58
1.81332e-25
1.66175e-156
2.63979e-201
6.52368e-87
3.19238e-203
-3.42803e-155
140.461
12.0496
-2.57646e-155
1.51294e-252
-2.2635e-286
-1.04921e-287
4.75692e-65
7.67538e-279
1.40319e-280
0.111619
1.43521e-60
3.98828e-05
1.31323e-155
3.81163e-52
-8.69663e-154
-1.96873e-114
-5.64406e-42
3.73647e-88
-1.45643e-45
4.97326e-90
-1.67814e-158
1.325e-261
1.16239e-61
9.62765e-53
1.83825e-160
1.56073e-14
-1.76394e-42
1.19701e-86
-3.62876e-58
-1.26929e-48
-1.11055e-253
5.89413
1.29245e-18
6.01343e-154
2.56907e-13
-7.05045e-88
4.68389e-311
-3.88097e-312
-5.16514e-293
8.88106e-05
1.07656e-26
9.19977e-67
1.04882e-70
1.94404e-86
-3.73262e-101
2.50747e-45
-1.27878e-59
6.8293e-24
0.0547754
3.93142e-13
-9.9985e-69
1.93059e-40
6.87409e-116
6.75653e-41
9.0063e-94
5.13734e-85
3.48431e-167
1.09292e-95
4.00028e-63
1.4237e-277
119.264
1.9116e-108
0.000629713
1.19999e-55
1.15946e-120
9.64226e-38
0.502744
8.69077e-61
2.1608e-84
1.26561e-87
6.91165e-54
1.71138e-40
1.83074e-151
-1.92556e-301
3.69959e-32
-1.43333e-278
2.34766e-15
-2.62432e-191
-5.74798e-62
1.03397e-44
4.12053e-139
0.000723317
1.56022e-31
-5.01675e-82
2.19649e-148
6.0914e-07
5.96181e-246
1.99786e-160
9.79791e-23
1.1178e-250
-2.95509e-147
6.58371e-162
2.62544e-09
13.0716
-1.86766e-99
-1.04879e-222
-8.05213e-42
-2.54106e-50
1.8379e-69
1.25411e-55
1.83805e-62
-9.68416e-238
-1.11098e-289
-2.95584e-56
3.36753e-268
4.76496e-46
5.86641e-70
6.33437e-42
5.17742e-151
7.38595e-34
1.60974e-21
6.2951e-167
-3.62782e-101
-3.53756e-158
-6.9844e-37
7.52971e-23
-1.00726e-256
-4.90508e-54
9.19746e-66
2.03654e-118
-5.81645e-52
-2.75639e-190
3.25979e-27
-4.72816e-99
4.09735e-60
4.97226e-43
-1.71399e-235
5.62819e-102
3.81281e-14
1.04503e-10
3.44692e-270
-5.40876e-81
6.63498e-13
9.06649e-79
0.318634
-1.84762e-294
-3.14749e-193
3.17293e-244
5.83083e-57
9.34181e-81
-2.62739e-90
-2.46192e-188
3.2502e-57
3.24755e-82
1.07856e-72
-3.86467e-145
6.37677e-06
-1.03617e-272
2.26532e-05
3.27931e-218
132.38
-1.16751e-97
3.19732e-15
-1.99971e-219
-5.67135e-152
2.78434e-48
-9.25249e-158
-6.17652e-186
-1.09336e-113
8.25741e-78
2.76078e-79
2.00256e-15
8.26288e-36
1.664e-36
0
-2.73227e-158
6.36522e-67
2.45682e-10
0
-4.80966e-268
1.78409e-64
2.18333e-242
-1.26584e-21
0.583095
35.6714
0
-3.57226e-108
3.28331e-39
-3.49521e-87
-9.64324e-170
76.5485
-6.87733e-272
3.50271e-30
2.925e-43
8.71327e-109
-4.30294e-173
4.4287e-183
3.2568e-139
8.17734e-70
1.53486e-91
-2.49935e-96
0
1.53834e-235
7.93123e-83
-1.80519e-147
1.14541e-37
1.64317e-57
5.38035e-193
-1.49822e-265
6.96652e-45
118.413
4.13379e-160
1.15095e-24
-1.36096e-288
-3.33912e-95
8.61882e-31
2.95749e-81
6.62111e-42
1.38631e-36
-2.64441e-80
7.47881e-63
4.56219e-307
-2.24052e-226
9.13635e-85
-5.00963e-100
-1.96185e-81
2.05932e-101
4.91197e-284
2.83734e-264
1.95476e-183
-2.54517e-64
5.86861e-56
-2.07632e-42
2.46306e-107
-6.7127e-40
-1.31169e-58
2.3087e-82
-1.66008e-38
1.06295e-67
0.000895863
5.71461e-59
-2.06526e-66
4.7419e-40
2.04453e-230
4.6851e-32
1.25624e-47
0
1.30101e-249
-4.53549e-240
-4.78505e-227
4.90594e-10
1.55301e-82
7.65417e-127
-1.57165e-41
-6.79091e-113
6.81484e-20
5.56729e-80
9.42108e-69
9.02306e-182
4.93934e-18
5.75774e-285
-6.75681e-64
2.05837e-148
3.92749e-24
3.40392e-38
-2.70442e-86
4.08991e-84
5.35607
1.05114e-61
4.32753e-19
1.22166e-93
1.20215e-14
0.238369
6.63872e-228
4.37072e-155
-4.42947e-287
5.38603e-12
-1.65955e-154
2.74919e-91
0.000741157
-1.58552e-269
3.3698e-70
3.67832e-44
8.16362e-89
-5.60999e-156
1.69135e-87
-1.63252e-209
-5.44204e-84
-1.76985e-207
-1.0021e-211
-4.71291e-89
5.92964e-64
1.32349e-64
1.37144e-86
-2.71395e-11
1.16881e-82
11.6513
5.30832e-59
-2.12227e-107
-2.61059e-86
4.97717e-61
3.69608e-68
1.56983e-87
0.211595
-2.27404e-45
9.08903e-71
5.41392e-73
-7.30607e-136
-4.72058e-149
1.09692e-45
-7.92752e-300
0.68705
5.30996e-197
-4.21862e-44
7.17279e-30
6.37163e-11
1.17118e-32
1.57937e-50
2.02589e-46
7.07118e-95
2.12519e-32
2.28415e-53
3.27845e-19
4.13592e-73
2.22035e-21
1.9141e-73
1.56174e-320
2.48605e-68
151.106
8.84764e-17
-8.72512e-126
1.14283e-310
1.98361e-191
4.61632e-109
-2.31064e-63
6.14188e-66
-6.24971e-94
-2.93836e-239
2.78378e-122
-3.67212e-67
4.74678e-128
8.51072e-145
2.87454e-21
2.7418e-122
8.15386e-57
8.28535e-47
-2.26215e-123
1.28355e-117
1.56076e-35
0
-2.04934e-115
37.4411
1.04525e-224
2.39536e-25
8.53458e-31
4.5239e-119
6.29292e-42
2.38695e-46
-4.86245e-69
1.92089e-39
6.57085e-157
5.77833e-43
4.87633e-170
1.80578e-90
6.92096e-49
-4.27489e-40
8.44174e-157
1.30753e-61
7.14949e-15
-1.20254e-58
1.33342e-92
4.76071e-153
4.41338e-31
2.77802e-08
-1.35254e-139
-3.38276e-256
-1.08285e-70
2.37979e-275
0.274965
1.66856e-73
1.22206e-16
3.22762e-96
-1.20129e-95
5.59454
9.80684e-89
0.00022632
1.07648e-67
31.201
1.37282e-66
-3.88868e-95
1.41e-90
2.37434e-120
0.000214987
6.33895e-06
2.17286e-224
1.93207e-220
-4.11851e-37
2.91212e-208
0.000597725
3.53005e-42
8.53589e-13
-3.75592e-154
115.671
0.0300265
1.00669e-72
1.92868e-319
2.60986e-162
-2.79792e-48
1.03364e-107
4.40573e-105
-7.21089e-104
3.91491e-63
6.56067e-55
7.12344
-2.09255e-10
5.74838e-242
1.61009e-47
2.71283e-38
2.55076e-35
3.31291e-95
4.28874e-29
5.3894e-58
-6.60917e-47
-2.06998e-155
-1.2526e-315
4.05748e-35
2.07066e-31
-1.01447e-95
-9.05381e-39
7.93593e-18
-2.89385e-109
-8.7202e-71
-4.7198e-146
8.44381e-107
9.79454e-19
-1.34168e-105
1.71119e-42
5.15674e-53
7.52941e-75
7.11644e-137
-8.42029e-97
8.61963e-16
7.14415e-99
1.51649e-96
7.33979
3.38009e-63
-1.95914e-110
0.00187946
0
6.8159e-97
-2.53846e-77
-4.17733e-110
-3.56499e-185
3.09299e-72
0
9.28504e-13
8.11182e-162
-2.48444e-71
1.32375e-32
3.4717e-41
2.58708e-90
2.73697e-94
1.02687e-36
63.2131
9.80528e-229
6.75977e-119
6.86376e-110
0.00152986
4.50515e-31
8.42693e-159
1.0047
-1.3341e-316
9.76413e-164
135.885
-1.40351e-121
5.89366e-155
1.95613e-151
1.91012e-54
-2.72049e-51
-7.09355e-223
-1.38785e-114
1.1854e-31
5.76553e-78
-6.19355e-84
-4.35116e-105
6.74153e-226
-9.365e-50
7.80382e-10
-2.29101e-84
-3.74141e-40
5.56739e-69
1.59242e-89
6.00054e-14
4.87203e-41
-3.73979e-103
1.45555e-161
2.0212e-05
4.12978e-64
2.10381e-59
7.50213e-145
-1.47314e-224
1.54026e-44
7.54985e-18
3.67037e-102
5.85267e-41
3.00831e-100
-4.53198e-102
7.01758e-135
4.88689e-50
127.679
12.6578
5.42236e-49
-7.49823e-83
-8.58061e-137
6.68997e-52
0.00231564
-5.11146e-43
2.15796e-160
1.97184e-20
3.55388e-11
6.36108
-1.15791e-124
51.0749
-9.0899e-227
-2.34959e-100
-1.10903e-224
1.15735e-14
6.06106e-58
50.819
4.58014e-170
0.00472085
3.22265e-206
-7.02721e-84
5.54436e-51
4.54313e-109
2.68454e-20
0.000610841
-1.9798e-118
-1.5291e-136
-1.52495e-101
-1.50725e-126
-2.38189e-120
1.21007e-17
5.17449e-61
1.90063e-93
5.61817e-20
-3.60891e-121
-6.53479e-219
-1.06334e-87
4.8092e-189
3.01018e-34
-1.15194e-102
4.00393e-13
7.20157e-15
-2.66414e-54
5.63535e-49
1.4592e-56
1.15053e-90
0.00248741
4.56695e-105
-1.65478e-126
1.25919e-283
5.58283e-19
-1.12466e-44
9.53803e-172
1.61782e-36
3.89826e-108
5.90113e-50
-1.16954e-47
-1.02362e-41
2.74626e-58
75.7093
5.94514e-56
-8.99341e-53
0.000418659
5.41579e-110
2.41316e-09
9.76893e-41
5.94776e-212
3.93115e-103
-1.84865e-144
2.54233e-93
8.51188e-309
-1.54652e-153
8.10508e-11
3.78997e-17
-1.23228e-156
139.756
5.84715e-37
-3.58471e-199
2.90419e-15
1.76259e-21
-1.46021e-204
1.47646e-13
3.80924e-34
3.71875e-15
-1.60775e-207
-3.7022e-150
2.83474e-130
-1.70299e-205
5.28195e-44
12.2271
-1.55029e-165
2.5355e-15
0
1.29182
2.55977e-39
2.81043e-59
5.05593e-273
1.35484e-167
-1.66428e-98
3.9389e-60
1.85388e-19
2.36338e-49
-1.18441e-121
2.11933e-114
-9.12699e-210
5.94615e-42
1.70342e-48
-2.83596e-143
8.05015e-251
6.40508e-81
1.03083e-50
2.23981e-56
4.54131e-182
4.58213e-10
-4.22308e-36
3.28584e-207
3.92263e-66
1.68496e-115
1.94346e-98
160.968
-4.47329e-123
-2.02949e-199
2.99057e-66
-5.29305e-46
-2.03469e-57
1.32945
2.94766e-72
1.20983e-107
1.18145e-47
-4.84856e-111
1.57583e-112
1.14629e-105
-1.82676e-109
-1.31875e-34
-1.43556e-97
11.364
-8.45481e-56
4.00967e-12
-3.95157e-111
9.06254e-09
9.41686e-40
2.99408e-20
2.97466e-17
5.67331e-61
-8.83612e-112
2.24215e-115
5.43232e-83
0
-4.17106e-101
1.65013e-45
7.42655e-28
5.67263e-113
7.59485e-209
6.12673e-66
4.67701e-56
7.19049e-30
2.05855e-50
3.68425e-20
3.11739e-30
2.30124e-143
3.74563e-64
0.0109516
5.13892e-47
-3.56391e-314
3.02907e-127
8.98848e-112
-4.13613e-318
1.05403e-65
-3.13009e-229
-3.07246e-99
1.32494e-19
1.30875e-42
5.50525e-10
2.28225e-225
2.57426e-170
1.03335e-273
-6.88494e-113
-1.20646e-133
8.33097e-20
-8.18609e-133
9.44126e-170
5.05288e-09
3.31624e-54
1.49532e-84
2.32548e-67
9.27926e-23
4.92593e-127
3.09381e-15
2.56122e-116
-5.03067e-221
5.40803e-05
4.61279e-72
9.35301e-26
-1.57523e-127
41.2466
-1.08769e-50
-4.07591e-61
5.62735e-65
1.7438e-42
5.67353
-6.73657e-112
2.12238e-21
-3.01009e-55
-3.21873e-63
1.06932e-164
8.87975e-102
1.99318e-09
-2.54884e-100
1.04178e-13
-8.1394e-120
-1.07603e-124
3.67751e-16
-4.22154e-195
-4.86266e-146
-1.00836e-109
1.01303e-70
4.08871e-14
-9.83094e-121
4.83486e-113
-1.82786e-292
-6.47483e-54
4.41033e-05
4.7886e-62
-1.14797e-113
1.77195e-82
1.7029e-128
-1.18122e-164
8.41501
-1.51679e-60
-1.835e-258
1.53076e-62
3.05281e-130
-4.99244e-49
-3.94579e-33
1.84547e-83
1.7744e-109
7.62544e-22
2.04227e-16
-1.29965e-278
1.36926e-85
3.54403e-17
2.55438e-172
-2.87307e-236
1.1734e-77
2.2599e-74
-1.44462e-102
-1.51087e-234
4.26891e-72
9.74216e-16
-4.39399e-201
1.8992e-32
-4.89744e-226
2.72311e-144
1.04769e-70
3.0946e-06
-1.08947e-290
1.11019
-6.37481e-59
5.56531e-31
11.4263
-8.62914e-54
1.43525e-83
0.00947986
-4.76363e-112
7.96745e-07
-3.64571e-24
5.1229e-84
1.16898e-102
1.62899e-104
-7.13019e-126
-6.70758e-132
5.29751e-40
0.00621193
138.18
3.65034e-45
-4.03682e-34
6.78121e-08
5.15114e-48
0.533733
3.15754e-186
-1.31066e-122
7.08714e-25
3.97581e-64
-3.17255e-152
1.33446e-45
2.71433e-114
4.95875
8.73018e-314
-7.3534e-154
-5.68105e-180
152.238
1.35465e-42
3.24602e-56
1.31105e-100
3.32601e-24
-3.23011e-107
-3.54976e-171
2.5053e-09
3.61783e-112
2.96542e-09
1.34625e-39
-6.32544e-105
9.78621e-22
2.03672e-70
1.53147e-119
3.3919e-167
-9.73024e-163
0.0847364
2.2207e-17
-2.17055e-147
1.84566e-23
8.63893e-86
1.15759e-36
-5.83209e-287
5.66695e-73
1.34413e-09
1.32771e-23
-3.96391e-52
-1.97085e-85
2.76381e-168
8.56908e-29
-2.24099e-107
9.05907e-172
1.29795e-13
1.63082e-26
-3.12856e-138
-1.60855e-37
6.83467e-80
-3.07963e-277
2.99469e-153
1.4621e-249
7.58444e-50
44.3607
1.38549e-14
9.8096e-31
-2.06097e-144
-4.68966e-105
8.94493e-71
3.99803e-264
4.01846e-11
1.03762e-71
36.085
-4.43457e-32
4.14374e-105
-1.20837e-139
1.83436e-183
1.29512e-113
-3.06704e-110
-2.4688e-150
8.50585
4.61191e-25
-2.61787e-49
3.57763e-22
2.47524e-53
3.05067e-171
0
1.06423e-149
2.59006e-35
0.10595
-3.25568e-27
5.86116e-65
-4.56943e-62
-8.92465e-85
4.7433e-26
0.00736736
0.00579207
1.41448e-107
-1.16716e-87
-3.16658e-44
-1.03839e-131
1.35433e-243
-7.16884e-151
1.61296e-22
-1.09462e-134
3.74838e-86
-6.19126e-119
1.60561e-51
5.2096e-12
3.10633e-126
-6.04929e-150
8.06987e-16
3.2785e-28
4.0739e-108
7.44054e-163
-9.53935e-64
1.7368e-11
1.86916e-35
-4.37813e-33
-5.38089e-67
-7.83898e-94
6.18623e-05
-1.25208e-103
-2.71336e-27
8.69622e-165
1.09509e-15
5.39073e-17
-2.12306e-218
2.42331e-179
78.0938
3.36435e-153
-1.61299e-93
2.5558e-39
-8.48897e-133
-1.43564e-131
8.97034e-117
4.64943e-155
1.39006e-273
1.51145e-38
1.41049e-07
-2.40166e-183
0.00353504
5.98036e-118
-1.17141e-155
7.21965e-16
2.6403e-11
3.39964e-36
1.32322e-110
3.83311e-148
-5.70461e-57
133.011
-7.37006e-134
-1.42622e-184
-9.83794e-192
-4.88619e-134
-2.58573e-75
-3.06942e-45
-1.22188e-137
-2.58538e-89
2.02245e-149
3.88457
1.02754e-11
2.33805e-71
2.36474e-48
4.94668e-116
-3.68798e-155
3.59615e-29
0.542732
-4.59428e-92
1.02463e-189
-3.61212e-157
9.71196e-18
-2.79964e-133
3.26853e-166
5.00871e-18
6.41025e-112
-3.53346e-154
102.508
1.45614e-15
0.185938
2.63325e-29
-3.0717e-134
8.67805e-27
4.59032e-13
0.0448943
1.95275e-122
3.63431e-49
1.46673e-268
0.0374373
6.57819e-319
-4.63698e-125
3.91861e-119
-1.55503e-189
2.6545e-60
1.96225e-106
-3.47922e-132
3.63144e-124
1.02384
4.69444e-18
2.01119e-64
-3.89586e-149
3.23716e-41
0.980467
8.00878e-14
1.33347e-54
-2.59788e-65
-1.76192e-125
3.58693e-108
-5.40994e-187
3.36025e-140
-2.33549e-181
-8.16405e-152
-2.85616e-55
5.19705e-19
1.73897e-26
0.111806
8.22923e-06
1.8764e-11
5.8842e-34
0.038945
3.0087e-168
5.54513e-07
-2.78714e-158
0.000206847
7.97247e-15
8.65523e-52
1.9705e-137
4.98877e-50
6.90169e-38
3.60304e-93
29.7772
1.02373e-15
0.122039
-1.01895e-153
6.10443e-13
5.84413e-09
5.44597e-15
2.4279e-09
1.98477e-14
-9.48943e-156
5.76618e-114
2.10875e-69
-1.08939e-142
3.22346e-40
-5.04694e-129
-2.04381e-52
8.88141e-221
-3.84697e-117
1.74539e-38
1.09459e-59
1.57315e-173
-3.19705e-60
0.139205
72.2473
-1.98501e-191
1.25035e-62
-2.03216e-113
5.60524e-13
4.53542e-42
2.80588
2.09119e-06
3.72247e-125
2.08257e-58
4.08615e-09
5.89382e-28
2.30967e-07
5.65312e-69
6.93668e-15
-5.56236e-178
0.0459348
1.12891e-16
1.45313e-161
1.51668e-09
0.000272402
9.83045e-58
0.584238
1.34819e-119
5.09037e-11
6.31762e-101
-2.33969e-197
4.3454e-94
-2.80721e-105
0.0152132
3.86225e-12
0.00435013
4.81884e-173
0.78335
9.67299e-52
3.50072e-18
-5.16147e-40
3.11873e-61
3.91734e-73
0.00113835
1.18351e-117
1.78818e-135
6.63027e-38
1.71196e-11
2.78183e-40
5.05908e-29
-1.00108e-73
0.0136978
7.61612e-39
7.97181e-41
9.27558e-12
2.53144e-200
1.27397e-09
1.51686e-24
5.01543e-10
-4.4259e-96
1.06852e-05
3.90744e-184
8.00889e-42
5.35096e-73
4.02064e-15
-1.22519e-90
6.36461e-39
1.1964e-10
66.215
5.56084e-124
6.22564e-66
-3.91132e-59
1.32901e-21
1.4937e-32
-7.1189e-124
2.33962e-54
1.4327e-185
8.7706
2.58017e-281
2.66933e-185
1.30595e-247
9.04276e-11
-1.47508e-152
-5.71394e-51
0.0624766
3.17612e-76
-1.36734e-73
-1.18523e-145
2.63411e-234
4.13153e-12
-4.64347e-190
1.32471e-51
2.13884e-16
-1.62474e-58
8.89466e-08
1.64892e-124
1.56492e-53
6.59865e-10
4.25426e-29
-1.94983e-93
73.6409
-4.93497e-286
5.41133e-228
6.77625e-112
158.847
-6.61737e-98
1.06092e-103
9.41732e-10
-1.8534e-137
3.05316e-123
1.1123e-23
3.2289e-08
2.10659e-44
0.000239056
-7.06871e-135
7.298e-114
1.45663e-68
2.14038e-72
2.39528e-15
-2.74215e-160
-2.88659e-102
-2.58668e-70
-1.47502e-20
4.06125e-85
1.75111e-175
-3.22454e-54
-4.09708e-23
4.37174e-241
1.03716e-237
1.80547e-06
1.05231e-43
4.74412e-06
2.77277e-120
2.8818e-313
-1.02367e-21
5.85029e-11
4.54697e-170
-3.48203e-132
-1.37847e-186
3.93556
3.30027e-242
5.04891e-46
2.99376e-07
-2.59734e-235
3.50792e-232
4.85502e-30
-3.2087e-201
5.03043e-237
1.90257e-66
4.18818e-17
1.45353e-177
4.06252e-30
-1.9055e-192
2.99229e-10
1.02405e-315
1.56762e-09
3.45067e-16
3.2415e-35
-1.65735e-235
5.27069e-24
2.88848
1.10722e-131
6.19493e-61
-3.80098e-206
1.25538e-17
-3.05253e-194
2.37941e-09
1.17121e-14
1.12095e-108
5.29981e-243
9.22266e-17
1.38075e-18
4.80612e-75
6.58537e-74
1.86384e-20
-3.63129e-199
5.48686e-25
2.99092e-245
5.32961e-09
2.32395e-11
2.48287e-16
4.27466e-34
-9.49078e-29
1.28572
4.29513e-39
1.89227e-72
5.29472e-19
-2.13348e-128
1.072e-21
3.5677e-20
7.3259e-56
4.33367e-112
0.0145853
1.89186e-266
0.00391563
94.3469
-5.71893e-142
1.12109e-13
29.8911
4.43664e-45
5.33961e-70
1.80523e-25
-1.39967e-68
2.58771e-183
1.13996e-10
0.00204275
0.340354
-3.10657e-128
8.9351e-31
1.69953e-06
1.79353e-17
-9.4176e-151
7.04833e-223
3.21501e-57
0.000931036
3.77432e-11
5.71972e-21
-2.12409e-294
-2.87276e-195
1.18226e-18
-1.12924e-135
6.03584e-63
-2.36762e-130
1.27794e-237
1.22687e-09
3.49314e-121
2.23405e-07
1.01233e-73
6.90742e-212
9.2626e-224
1.19826e-18
-2.45638e-129
7.34216e-45
1.01965e-20
0.00742204
-1.46964e-63
7.3424e-176
3.54863e-08
1.18339e-109
1.57175e-187
1.48489e-97
4.98628e-18
-2.53404e-130
1.50514e-17
6.90358e-66
157.159
2.5726e-19
-1.03283e-165
2.30062e-07
6.31086e-247
4.12919e-12
1.2301e-52
1.93137e-07
0.000194152
-1.66802e-56
1.58184e-06
8.11748e-210
7.70938e-13
-1.3435e-144
3.59094e-64
4.36387e-08
2.51945e-40
2.94037e-08
0.00222464
-1.85118e-24
1.06866e-11
6.54179e-08
4.94207e-172
3.68228e-191
-2.45914e-245
1.37137e-06
-4.44332e-30
5.05078e-170
5.08891e-10
3.38368e-09
9.31023e-61
1.08001e-22
1.76044e-77
9.51354e-44
1.91777e-06
-2.69781e-89
3.34522e-48
6.58177e-48
-5.69224e-269
7.98229e-266
-7.69061e-172
-1.31852e-127
3.15163e-75
4.51971e-215
-2.16971e-107
-1.68267e-122
5.34651e-77
4.01445e-38
-2.05471e-150
2.56776e-09
1.16887e-317
1.44455e-15
1.03555e-07
-3.83201e-164
3.2368e-06
4.17016e-20
4.56103e-09
-2.46023e-84
2.13141e-21
-3.18091e-137
7.50942e-54
2.05475e-68
6.56743e-226
-1.4773e-144
1.33527e-115
-3.69835e-162
2.12993e-250
3.78411e-69
1.65159e-252
-7.48458e-39
3.271e-36
0.0176969
9.31308e-218
1.14985e-76
5.50349e-213
2.45206e-135
1.43317e-27
6.72579e-80
2.19902e-167
111.304
7.59422e-18
1.81315e-43
8.4344e-76
5.38675e-20
1.88973e-29
-1.51078e-98
4.40101e-28
2.53575e-17
2.80659e-122
2.81759e-248
-3.90337e-105
7.67613e-12
-1.88846e-190
-3.87458e-173
3.42902e-17
3.26359e-141
-2.3455e-136
2.0236e-109
1.28311e-175
7.958e-06
1.27159e-215
-3.64458e-175
1.79535e-35
4.76048e-28
0.336179
1.17457e-16
-2.23905e-74
-5.68032e-166
1.55599e-27
-5.54363e-168
9.91234e-38
9.59065e-85
8.30647e-123
1.22138e-07
3.30417e-230
6.62634e-30
1.83957e-67
2.54752e-19
1.92018e-52
2.85738e-256
-1.64496e-124
-2.59092e-314
1.7924e-34
-1.5436e-193
6.66105e-25
4.73221e-64
-1.60004e-116
-6.00091e-72
1.40732e-55
2.28659e-249
4.08591e-29
8.1687e-34
-9.63671e-129
8.02186e-34
1.59207e-10
1.917e-236
2.13181e-55
2.5049e-14
1.8776e-22
-2.83153e-95
-8.97563e-57
-4.83478e-55
4.34624e-67
-1.3707e-91
2.20951e-18
-5.70955e-91
3.0649e-164
5.17766e-166
4.56606e-06
4.31764e-11
2.48651e-08
3.86593e-08
-1.42871e-44
3.83062e-27
3.42475e-63
1.61844e-28
1.02767e-166
0.0837502
-1.47024e-135
9.35872e-08
1.75848e-19
-7.59795e-170
-8.30763e-32
6.94368e-12
5.56089e-10
9.48978e-62
5.99045e-37
9.97892e-169
-1.72641e-276
2.48305e-19
3.69242e-247
9.70662e-219
1.25799e-21
-1.9839e-136
-5.73163e-85
6.9161e-174
1.21004e-120
1.12339e-19
6.87776
-4.40234e-137
4.24743e-144
6.78476e-13
-1.78418e-48
6.82375e-14
2.1239e-34
8.08831e-33
7.38179e-139
-1.45268e-51
1.17415e-30
5.78757e-22
-3.29464e-38
3.1077e-181
3.61731e-17
8.41388e-43
1.18654e-25
-1.45669e-105
8.64055e-172
1.40377e-21
-1.10589e-133
6.22793e-237
2.66404e-31
1.49975e-10
-3.18853e-216
1.84587e-33
1.26571e-66
-1.46973e-148
1.54121e-97
-1.76022e-148
2.0868e-31
4.70632e-164
8.26314e-174
1.06387e-71
4.44973e-32
-7.43843e-51
1.11103e-35
6.24769
1.14748e-125
1.5521e-77
0.00123239
5.0844e-47
-3.56221e-150
2.1217e-44
9.60398e-10
5.53263e-226
-4.82608e-140
9.93909e-241
4.83455e-36
1.02025e-18
-1.07319e-72
1.16341e-254
3.16482e-102
3.78061e-94
8.4166e-115
1.09327e-11
7.62171e-135
1.09448e-255
2.9817e-248
1.7732e-39
5.68358e-63
6.04251e-07
3.6529e-106
-7.9873e-62
6.35081e-56
4.87965e-26
-8.94273e-191
8.98254e-32
4.17381e-230
1.00604e-219
-4.73602e-244
2.35964e-13
-3.30103e-134
1.44657e-33
1.25449e-41
4.4013e-39
3.15118e-27
1.52044e-38
2.3466e-17
2.80332e-32
4.06957e-131
3.91888e-48
-3.87517e-59
1.08133e-49
1.08478e-26
-2.93842e-139
20.6013
4.63219e-21
5.66384e-24
3.08638e-217
0.529707
3.27812e-26
1.50462e-28
5.45167e-37
5.98633e-18
2.23571e-78
-6.90213e-124
1.22364e-122
3.84007e-131
2.12225e-124
1.04944e-23
1.60982e-28
-4.32308e-141
1.66634e-39
8.77748e-117
-1.21405e-122
1.50946e-79
-9.11654e-58
-2.01205e-100
7.84104e-71
-2.93307e-57
1.16581e-46
9.70862e-34
1.46011e-69
-8.73716e-218
-1.46923e-103
-4.26738e-130
6.98223e-14
-3.34161e-192
-1.5309e-137
1.17844e-37
0.0167952
-6.91704e-164
1.72084e-06
2.42642e-169
-4.41672e-135
4.35769e-71
4.27815e-41
1.13552e-48
-5.04509e-188
5.89518e-34
1.54879e-34
1.74724e-14
1.30359e-217
6.81416e-44
2.0089e-59
2.63485e-90
-4.78253e-243
-1.21024e-292
9.10808e-36
2.89709e-62
1.40884e-87
14.5928
2.73221e-32
2.18772e-45
-2.66382e-31
5.24779e-73
6.91602e-14
3.09352e-124
-5.74131e-74
-8.15032e-107
-1.36638e-114
2.39533e-06
7.77547e-43
1.21999e-30
2.26471e-51
3.62814e-182
8.43664e-33
1.08812e-31
2.06868e-13
1.45556e-116
4.64726e-46
-3.20676e-06
3.2354e-06
2.30835e-171
8.68455e-11
3.16724e-79
4.54876
1.65394e-235
1.11442e-34
2.07835e-52
-2.37254e-263
8.07332e-28
3.27297e-96
-1.35052e-99
2.17274e-22
1.06109e-07
1.93517e-14
-5.14415e-99
2.28577e-38
3.57469e-233
-1.43469e-133
6.73649e-08
-1.56795e-40
5.69074e-115
7.67606e-33
-9.15555e-27
5.616e-40
6.75384e-62
1.47152e-56
3.20332e-41
1.08791e-06
-3.91661e-180
1.54194e-59
3.71684e-77
2.3353e-36
2.87656e-09
2.57157e-37
1.99183e-46
-2.02484e-102
8.99962e-240
1.64119e-34
1.21024e-44
8.59804e-37
-3.07462e-185
-2.37089e-82
3.56312e-46
5.18893e-39
-2.95874e-30
1.11123e-32
7.75171e-106
4.73072e-42
-6.95714e-136
5.47315e-25
2.84656e-78
5.68579e-34
2.8966e-79
-2.65269e-97
2.28402e-39
-1.92598e-82
8.94406e-92
7.53681e-111
2.9364e-181
1.90811e-55
3.80882e-65
2.19502e-79
0.611771
0.000178536
-8.18565e-147
5.20811e-117
-2.54147e-60
4.2427e-61
5.33674e-254
2.66662e-38
-3.26843e-46
-2.80459e-41
-5.75654e-235
3.21183e-17
2.88252e-34
1.09722e-20
3.47645e-39
-5.99202e-218
-1.01274e-117
2.05921e-89
6.87863e-42
3.0056e-11
3.25319
-5.56959e-177
-1.20954e-84
-1.301e-96
8.9774e-12
1.15953e-06
4.22229e-14
-5.97581e-67
6.27374e-38
-9.33305e-233
1.42098e-55
-2.64186e-67
-1.68194e-174
-2.25373e-27
-2.50082e-63
2.15338e-50
1.3264e-36
6.07504e-88
1.4764e-62
4.67932e-45
-1.00609e-219
0
1.22462e-59
-6.01157e-86
2.10917e-10
1.54643e-78
-1.45267e-28
4.22669e-17
-1.47657e-52
-1.19937e-175
-3.26951e-76
2.13468e-35
1.78662e-179
6.61308e-05
2.47977e-06
-2.76522e-146
4.8271e-230
4.1613e-142
-2.74106e-181
-9.46064e-267
8.96727e-78
8.60289e-96
1.057e-38
9.60177e-66
8.47185e-44
-1.2449e-60
4.65599e-12
1.8777e-37
9.02458e-42
1.02338e-67
8.40987e-78
-3.49234e-46
-5.75734e-219
-4.26562e-97
1.62925e-99
-1.70178e-40
-9.59499e-33
1.2311e-11
-1.1287e-269
-4.59982e-34
4.11893e-54
2.2423e-71
1.82538e-29
3.36206e-49
2.9266e-32
4.2499e-07
1.04407e-57
5.39949e-24
3.34116e-77
2.15978e-118
3.04257e-56
4.27382e-44
8.35485e-182
-3.03195e-68
1.19875e-05
-1.40499e-100
1.40581e-07
1.2378e-172
1.70722e-44
1.78839e-117
4.02644e-107
5.46835e-38
-7.39627e-26
5.69881e-31
-2.35651e-95
-4.06343e-71
8.27976e-72
2.09943e-23
2.70238e-29
-5.89686e-59
2.26644e-19
-1.64609e-264
9.71727e-61
3.68646
1.56047e-18
-1.5982e-101
0.00193403
1.2392e-31
1.12135e-93
-4.58629e-203
1.98321e-13
4.87176e-44
1.17021e-73
-4.4464e-49
5.70408e-178
1.46749e-40
4.86012e-106
1.23968e-23
3.06979e-47
2.06196e-45
-1.94954e-36
9.38725e-323
2.70068e-136
1.88517e-86
6.665e-121
6.35811e-124
2.23058e-72
-3.19443e-96
6.40604e-92
2.17803e-30
3.66429e-35
1.75051e-251
1.9241e-27
-4.78542e-134
-7.82836e-218
-6.6261e-35
2.47066e-165
3.35154e-76
2.83478e-76
7.46106e-184
3.90848e-180
-6.24673e-107
1.26066e-45
-1.41953e-77
6.15553e-41
4.0406e-52
-9.59726e-34
3.16474e-36
7.60808e-75
-3.74538e-62
4.19652e-50
-1.83182e-285
-2.03059e-81
-1.11448e-107
5.00685e-77
3.85981e-05
4.41639e-48
1.42797e-88
-6.449e-59
-9.29067e-81
2.07809e-97
-1.69529e-98
-2.58836e-79
4.72952e-105
-1.82707e-41
3.60971e-55
-1.81861e-220
7.31886e-47
-3.83271e-62
2.12975e-44
4.58185e-203
-1.07192e-35
3.03005e-08
-2.21484e-128
-1.01948e-51
2.6928e-34
-1.00151e-144
8.60624e-35
1.16062e-22
3.68312e-47
4.60821e-46
2.53022e-26
-1.75062e-58
-2.96206e-65
4.93386e-53
4.37206e-40
-5.99251e-163
1.5795e-106
-4.29117e-275
-1.02246e-130
-4.08953e-203
1.43621e-69
5.3529e-62
9.34535e-39
1.70745e-53
0.687214
-1.06171e-25
2.76433
3.43892e-53
7.99036e-13
0.189187
2.29277e-21
3.70691
2.77728e-103
7.98733e-65
-6.68144e-76
1.18687e-78
8.72585e-60
1.5929e-138
4.36811e-69
6.24207e-118
3.8807e-205
-5.15327e-67
0.0231343
9.27727e-73
2.87489e-43
-3.77986e-74
-6.76109e-109
5.18082e-56
-1.6502e-61
2.02369e-127
4.49706e-67
1.003e-112
8.41537e-31
2.67622e-50
4.42917e-53
-6.38914e-55
2.83898e-05
3.21016e-20
9.17039e-42
1.88847e-78
23.5382
6.38142e-75
1.09596e-70
8.41348e-40
-3.00318e-37
-4.13337e-76
1.09903e-28
2.49695e-177
-1.11908e-47
-2.81065e-35
6.63389e-56
9.16947e-57
-1.19084e-95
-1.41003e-64
-1.27842e-43
6.33013e-102
5.98381e-41
1.32663e-70
-1.3081e-91
1.11081e-174
6.52896e-80
2.57708e-57
-3.55818e-104
5.93559e-78
1.16101e-90
-6.04988e-136
-4.89942e-43
6.28548e-108
2.45718e-21
2.33781e-59
-2.20175e-81
1.05844e-184
-5.65929e-129
2.10376e-32
-4.59789e-67
9.52459e-236
1.17848e-59
0.163056
1.7371e-44
-4.12747e-98
1.25683e-78
7.19656e-06
0.00271469
5.04217
4.62752e-127
3.70382e-129
-6.71763e-124
-1.07118e-90
7.02166e-43
2.27912e-10
4.96365e-08
4.21943e-19
1.88313e-42
7.10237e-109
-5.00699e-199
-2.38714e-195
-7.85599e-35
3.85217e-99
7.17393e-36
6.51081e-126
4.38308e-16
2.93618e-115
3.47801e-64
4.94745e-15
-4.97565e-54
2.63394e-34
-5.75973e-131
-1.97614e-69
-4.4645e-216
4.59156e-30
2.46555e-43
7.22586e-101
-3.85916e-205
-2.01129e-86
2.54586e-30
-3.16912e-140
-3.67389e-58
3.9923e-06
3.28966e-229
2.6789e-96
-2.79692e-49
-3.573e-50
8.0547e-62
1.81e-151
3.21685e-138
1.89291e-134
-2.06627e-249
-1.39657e-194
3.45597e-89
6.17918e-52
-1.19288e-216
-2.25326e-94
-2.63554e-139
131.172
-1.91745e-36
1.66285e-132
-7.46402e-272
5.36113e-41
-2.26415e-72
1.33882e-29
4.3311e-60
-7.95763e-71
-2.03048e-209
1.60455e-135
9.08378e-32
1.10011e-273
5.12857e-76
1.4972e-37
7.6206e-66
-6.57713e-190