/*--------------------------------*- C++ -*----------------------------------*\
  =========                 |
  \\      /  F ield         | OpenFOAM: The Open Source CFD Toolbox
   \\    /   O peration     | Website:  https://openfoam.org
    \\  /    A nd           | Version:  7
     \\/     M anipulation  |
\*---------------------------------------------------------------------------*/
FoamFile
{
    version     2.0;
    format      ascii;
    class       surfaceScalarField;
    location    "5";
    object      phi;
}
// * * * * * * * * * * * * * * * * * * * * * * * * * * * * * * * * * * * * * //

dimensions      [0 3 -1 0 0 0 0];

internalField   nonuniform List<scalar> 
67470
(
-0.000416211
0.000416248
-3.67129e-08
-0.000884909
0.000468732
-3.3562e-08
-0.0013597
0.00047481
-1.64391e-08
-0.00153228
0.000172564
1.04523e-08
-0.00135874
-0.000173559
1.9863e-08
-0.000943864
-0.000414901
2.7025e-08
-0.000369153
-0.00057474
2.87521e-08
0.000283908
-0.000653086
2.55531e-08
0.000983053
-0.000699167
2.18538e-08
0.00170735
-0.000724315
1.76923e-08
0.00244917
-0.00074183
1.35939e-08
0.0032101
-0.00076094
9.77783e-09
0.00399222
-0.000782133
6.35247e-09
0.00480461
-0.000812387
3.38689e-09
0.00564787
-0.000843265
9.4456e-10
0.00652407
-0.000876196
-8.9625e-10
0.00741575
-0.000891682
-2.11607e-09
0.00831375
-0.000897994
-2.75439e-09
0.00919255
-0.000878799
-2.93929e-09
-0.000866136
-2.81817e-09
0.0100587
-0.000413477
0.000829725
-0.000878131
0.000933386
-0.00134695
0.000943632
-0.00151085
0.000336463
-0.00132598
-0.000358434
-0.000899305
-0.000841572
-0.000314307
-0.00115974
0.000348862
-0.00131625
0.00105661
-0.00140691
0.00178839
-0.0014561
0.00253615
-0.00148958
0.00330097
-0.00152576
0.00408394
-0.0015651
0.00489282
-0.00162126
0.00572752
-0.00167797
0.00659049
-0.00173917
0.00746645
-0.00176765
0.00834858
-0.00178012
0.00921414
-0.00174436
-0.0017217
0.0100697
-0.000408038
0.00123776
-0.000864662
0.00139001
-0.00132169
0.00140066
-0.00146872
0.000483485
-0.00126224
-0.000564913
-0.00081345
-0.00129036
-0.000209679
-0.00176351
0.00047158
-0.00199751
0.0011944
-0.00212973
0.00193887
-0.00220057
0.00269625
-0.00224697
0.00346687
-0.00229639
0.00425023
-0.00234846
0.00505197
-0.002423
0.00587087
-0.00249687
0.00671
-0.0025783
0.00755777
-0.00261541
0.00841137
-0.00263373
0.00925301
-0.00258599
-0.00255807
0.0100894
-0.000399951
0.00163771
-0.000844673
0.00183473
-0.00128437
0.00184037
-0.00140717
0.000606283
-0.00117071
-0.000801378
-0.000692052
-0.00176901
-6.43916e-05
-0.00239117
0.000639834
-0.00270174
0.00138067
-0.00287056
0.00213936
-0.00295926
0.00290653
-0.00301414
0.00368177
-0.00307164
0.00446305
-0.00312973
0.00525383
-0.00321378
0.00605178
-0.00329483
0.00686057
-0.00338708
0.00767289
-0.00342774
0.00849059
-0.00345142
0.00930188
-0.00339728
-0.00336992
0.0101137
-0.0003893
0.00202701
-0.000818407
0.00226384
-0.00123561
0.00225757
-0.00132789
0.00069856
-0.00105537
-0.00107389
-0.000542127
-0.00228226
0.000112913
-0.00304621
0.000839489
-0.00342832
0.0015975
-0.00362858
0.00236821
-0.00372997
0.00314191
-0.00378784
0.00391771
-0.00384743
0.00469259
-0.00390461
0.00546846
-0.00398965
0.00624239
-0.00406876
0.0070185
-0.00416319
0.0077935
-0.00420274
0.00857345
-0.00423137
0.00935255
-0.00417638
-0.00415554
0.0101382
-0.000376193
0.00240321
-0.000786174
0.00267382
-0.00117611
0.00264751
-0.00123265
0.000755096
-0.000920351
-0.00138619
-0.000370717
-0.00283189
0.000310715
-0.00372764
0.00105736
-0.00417496
0.00182866
-0.00439987
0.00260641
-0.00450773
0.00338108
-0.0045625
0.0041516
-0.00461795
0.0049148
-0.00466782
0.00567199
-0.00474684
0.00642043
-0.00481719
0.0071646
-0.00490737
0.00790443
-0.00494257
0.00864912
-0.00497606
0.0093979
-0.00492517
-0.0049162
0.0101586
-0.000360761
0.00276397
-0.000748335
0.00306139
-0.00110666
0.00300583
-0.00112319
0.000771631
-0.000769415
-0.00173997
-0.000184042
-0.00341727
0.000520734
-0.00443242
0.00128282
-0.00493705
0.00206161
-0.00517866
0.00284
-0.00528612
0.00360918
-0.00533168
0.00436828
-0.00537705
0.0051147
-0.00541424
0.00585006
-0.0054822
0.00657262
-0.00553975
0.00728727
-0.00562201
0.00799623
-0.00565154
0.00871056
-0.00569039
0.00943313
-0.00564774
-0.00565507
0.010172
-0.000343157
0.00310712
-0.000705298
0.00342354
-0.00102804
0.00332857
-0.00100109
0.000744681
-0.000605719
-0.00213534
1.31167e-05
-0.0040361
0.000736582
-0.00515588
0.00150819
-0.00570866
0.00228792
-0.00595839
0.00306025
-0.00605845
0.00381774
-0.00608917
0.00456
-0.00611931
0.00528557
-0.00613981
0.005997
-0.00619363
0.0066941
-0.00623685
0.00738221
-0.00631012
0.00806519
-0.00633451
0.00875474
-0.00637994
0.00945594
-0.00634894
-0.00637602
0.0101769
-0.000323552
0.00343068
-0.000657512
0.00375749
-0.000941068
0.00361213
-0.00086774
0.000671354
-0.000431789
-0.00257129
0.000215659
-0.00468355
0.00095351
-0.00589373
0.00172827
-0.00648342
0.0025024
-0.00673252
0.00326246
-0.00681851
0.00400298
-0.00682969
0.00472423
-0.00684056
0.00542629
-0.00684187
0.00611291
-0.00688024
0.00678562
-0.00690956
0.00745026
-0.00697476
0.00811175
-0.006996
0.00878169
-0.00704988
0.0094661
-0.00703335
-0.00708279
0.0101729
-0.000302134
0.00373281
-0.000605462
0.00406082
-0.000846575
0.00385324
-0.000724438
0.000549217
-0.000249553
-0.00304618
0.000421809
-0.00535491
0.00116802
-0.00663994
0.00193962
-0.00725502
0.00270209
-0.00749499
0.00344459
-0.00756102
0.00416397
-0.00754907
0.00486139
-0.00753798
0.00553869
-0.00751917
0.00620076
-0.00754231
0.0068507
-0.00755951
0.00749478
-0.00761884
0.00813862
-0.00763984
0.00879319
-0.00770446
0.00946461
-0.00770478
-0.00777845
0.0101603
-0.000279105
0.00401192
-0.000549666
0.00433138
-0.000745426
0.004049
-0.000572452
0.000376242
-5.94642e-05
-0.00355917
0.0006287
-0.00604308
0.00137741
-0.00738866
0.0021399
-0.00801751
0.00288542
-0.00824051
0.00360612
-0.00828171
0.00430135
-0.0082443
0.00497333
-0.00820995
0.00562578
-0.00817162
0.00626446
-0.00818099
0.00689364
-0.0081887
0.00751988
-0.00824508
0.00814923
-0.00826918
0.0087917
-0.00834693
0.00945301
-0.00836609
-0.00846533
0.0101399
-0.000254682
0.0042666
-0.000490673
0.00456737
-0.000638528
0.00419686
-0.000413094
0.000150808
0.000130796
-0.00410306
0.000834097
-0.00674638
0.00157954
-0.0081341
0.00232749
-0.00876546
0.00305164
-0.00896465
0.00374738
-0.00897745
0.00441657
-0.00891349
0.00506253
-0.00885591
0.0056909
-0.00879999
0.00630788
-0.00879797
0.00691849
-0.00879931
0.00752943
-0.00885601
0.00814683
-0.00888659
0.00877962
-0.00897972
0.00943288
-0.00901934
-0.00914502
0.0101126
-0.000229092
0.00449569
-0.000429055
0.00476734
-0.000526839
0.00429464
-0.0002477
-0.000128331
0.000323541
-0.0046743
0.00103586
-0.0074587
0.00177259
-0.00887083
0.00250126
-0.00949413
0.00320056
-0.00966396
0.00386922
-0.0096461
0.00451144
-0.00955571
0.00513168
-0.00947616
0.00573731
-0.00940561
0.00633453
-0.00939519
0.00692874
-0.00939352
0.00752664
-0.0094539
0.00813415
-0.0094941
0.00875897
-0.00960454
0.00940555
-0.00966593
-0.00981856
0.0100791
-0.000202571
0.00469826
-0.000365406
0.00493017
-0.000411366
0.0043406
-7.67445e-05
-0.000462953
0.000517136
-0.00526818
0.00123204
-0.0081736
0.00195505
-0.00959384
0.00266048
-0.0101996
0.00333239
-0.0103359
0.00397278
-0.0102865
0.00458793
-0.0101709
0.00518342
-0.0100716
0.00576797
-0.00999016
0.00634738
-0.0099746
0.00692724
-0.00997338
0.00751408
-0.0100407
0.00811326
-0.0100933
0.00873127
-0.0102225
0.00937208
-0.0103067
-0.0104866
0.0100401
-0.000175364
0.00487362
-0.000300325
0.00505513
-0.000293159
0.00433344
9.40263e-05
-0.000850138
0.000709025
-0.00588318
0.00142083
-0.00888541
0.00212569
-0.0102987
0.00280476
-0.0108786
0.00344762
-0.0109787
0.00405938
-0.0108983
0.00464804
-0.0107595
0.0052202
-0.0106438
0.00578548
-0.0105554
0.00634893
-0.0105381
0.00691629
-0.0105407
0.00749372
-0.0106182
0.0080857
-0.0106853
0.00869764
-0.0108345
0.00933323
-0.0109423
-0.0111494
0.00999604
-0.000147723
0.00502135
-0.000234414
0.00514182
-0.000173306
0.00427233
0.00026419
-0.00128763
0.000897057
-0.00651604
0.00160066
-0.009589
0.00228359
-0.0109816
0.00293401
-0.0115291
0.00354695
-0.0115917
0.00413038
-0.0114817
0.00469367
-0.0113228
0.00524422
-0.0111943
0.00579203
-0.0111033
0.00634122
-0.0110872
0.00689772
-0.0110972
0.00746699
-0.0111874
0.00805253
-0.0112708
0.00865884
-0.0114408
0.00928954
-0.011573
-0.0118071
0.00994729
-0.000119903
0.00514125
-0.000168267
0.00519019
-5.28955e-05
0.00415696
0.000434235
-0.00177476
0.0010793
-0.00716111
0.00177015
-0.0102799
0.00242812
-0.0116396
0.0030484
-0.0121493
0.00363125
-0.0121745
0.00418721
-0.0120376
0.00472658
-0.0118622
0.00525738
-0.0117251
0.00578944
-0.0116353
0.00632589
-0.0116237
0.00687292
-0.0116443
0.00743492
-0.0117494
0.00801445
-0.0118503
0.00861542
-0.0120418
0.00924139
-0.012199
-0.0124598
0.0098941
-9.21696e-05
0.00523342
-0.000102521
0.00520054
6.72022e-05
0.00398724
0.000601655
-0.00230922
0.00125405
-0.00781351
0.00192822
-0.010954
0.00255889
-0.0122703
0.00314829
-0.0127387
0.0037015
-0.0127277
0.00423122
-0.0125674
0.00474836
-0.0123793
0.00526128
-0.0122381
0.00577915
-0.0121532
0.00630424
-0.0121488
0.00684295
-0.012183
0.00739818
-0.0123047
0.00797197
-0.0124241
0.0085678
-0.0126376
0.00918905
-0.0128203
-0.0131074
0.0098366
-6.47895e-05
0.00529821
-3.82167e-05
0.00517397
0.000186119
0.0037629
0.000764709
-0.00288781
0.00141988
-0.00846868
0.00207406
-0.0116082
0.00267582
-0.012872
0.00323422
-0.0132971
0.0037587
-0.0132522
0.00426372
-0.0130724
0.00476043
-0.012876
0.00525726
-0.0127349
0.00576233
-0.0126583
0.00627727
-0.0126637
0.00680852
-0.0127142
0.00735723
-0.0128534
0.00792546
-0.0129924
0.00851627
-0.0132284
0.00913269
-0.0134367
-0.0137496
0.00977486
-3.80249e-05
0.00533623
2.57207e-05
0.00511022
0.000303095
0.00348553
0.000921928
-0.00350664
0.00157562
-0.00912237
0.0022071
-0.0122397
0.00277901
-0.0134439
0.00330688
-0.013825
0.00380391
-0.0137492
0.00428594
-0.0135544
0.00476404
-0.0133541
0.00524641
-0.0132173
0.00573991
-0.0131518
0.00624575
-0.0131696
0.00677013
-0.0132386
0.00731239
-0.0133956
0.00787522
-0.0135552
0.00846106
-0.0138142
0.00907236
-0.014048
-0.0143861
0.00970887
-1.20336e-05
0.00534827
9.09232e-05
0.00500726
0.000417621
0.00315883
0.00107207
-0.00416109
0.00172036
-0.00977067
0.00232706
-0.0128464
0.00286876
-0.0139856
0.00336701
-0.0143233
0.00383815
-0.0142204
0.004299
-0.0140153
0.00476024
-0.0138154
0.00522961
-0.0136866
0.00571263
-0.0136348
0.00621023
-0.0136671
0.00672809
-0.0137565
0.00726393
-0.0139315
0.00782149
-0.0141128
0.00840227
-0.014395
0.00900807
-0.0146538
-0.0150167
0.00963866
1.24485e-05
0.00533582
0.000153201
0.00486651
0.000529309
0.00278272
0.00121412
-0.0048459
0.00185347
-0.01041
0.0024339
-0.0134268
0.00294555
-0.0144973
0.00341546
-0.0147932
0.00386244
-0.0146673
0.00430391
-0.0144567
0.00474995
-0.0142614
0.00520759
-0.0141443
0.00568107
-0.0141083
0.0061711
-0.0141572
0.0066826
-0.014268
0.00721204
-0.0144609
0.00776443
-0.0146651
0.00833991
-0.0149705
0.00893983
-0.0152537
-0.0156411
0.00956428
3.503e-05
0.00530079
0.000213275
0.00468827
0.000637927
0.00235807
0.0013473
-0.00555527
0.00197455
-0.0110373
0.00252774
-0.01398
0.00300996
-0.0149795
0.00345308
-0.0152363
0.00387773
-0.015092
0.0043016
-0.0148806
0.00473396
-0.0146938
0.00518097
-0.0145913
0.00564566
-0.014573
0.00612864
-0.0146402
0.0066338
-0.0147731
0.00715691
-0.014984
0.00770415
-0.0152124
0.00827397
-0.0155403
0.00886766
-0.0158474
-0.0162593
0.00948581
5.57692e-05
0.00524502
0.000270997
0.00447304
0.000743317
0.00188575
0.00147101
-0.00628297
0.00208342
-0.0116497
0.00260891
-0.0145055
0.00306268
-0.0154333
0.00348074
-0.0156543
0.00388492
-0.0154962
0.00429289
-0.0152886
0.00471291
-0.0151138
0.00515022
-0.0150286
0.00560677
-0.0150295
0.00608304
-0.0151164
0.00658181
-0.0152719
0.00709867
-0.0155009
0.00764067
-0.0157544
0.00820439
-0.0161041
0.00879161
-0.0164346
-0.016871
0.00940334
7.41676e-05
0.00517085
0.000326052
0.00422115
0.000845315
0.00136648
0.00158487
-0.00702252
0.00218009
-0.0122449
0.00267787
-0.0150033
0.00310444
-0.0158598
0.00349928
-0.0160492
0.00388484
-0.0158817
0.00427849
-0.0156822
0.00468737
-0.0155227
0.00511575
-0.015457
0.00556465
-0.0154784
0.00603443
-0.0155862
0.00652672
-0.0157642
0.00703744
-0.0160116
0.00757399
-0.0162909
0.00813117
-0.0166612
0.00871177
-0.0170152
-0.0174762
0.00931695
8.98697e-05
0.00508098
0.000378048
0.00393298
0.000943688
0.000800845
0.00168863
-0.00776746
0.00226472
-0.012821
0.00273517
-0.0154737
0.00313602
-0.0162607
0.00350953
-0.0164227
0.00387824
-0.0162505
0.00425902
-0.016063
0.00465781
-0.0159215
0.00507789
-0.0158771
0.00551953
-0.0159201
0.00598291
-0.0160496
0.00646864
-0.0162499
0.00697328
-0.0165163
0.00750409
-0.0168217
0.00805432
-0.0172115
0.00862827
-0.0175891
-0.0180746
0.00922672
0.000102614
0.00497837
0.000426581
0.00360901
0.0010381
0.000189331
0.0017822
-0.00851157
0.00233764
-0.0133764
0.00278146
-0.0159175
0.00315822
-0.0166375
0.00351229
-0.0167768
0.00386583
-0.016604
0.00423505
-0.0164322
0.0046246
-0.016311
0.0050369
-0.0162893
0.00547156
-0.0163547
0.00592856
-0.0165066
0.00640764
-0.016729
0.00690625
-0.0170149
0.00743092
-0.0173464
0.00797389
-0.0177544
0.00854123
-0.0181565
-0.0186662
0.00913278
0.000112285
0.00486608
0.000471327
0.00324997
0.00112809
-0.000467432
0.0018656
-0.00924908
0.00239925
-0.0139101
0.00281744
-0.0163357
0.00317181
-0.0169918
0.00350828
-0.0171132
0.00384822
-0.0169439
0.00420702
-0.016791
0.00458808
-0.0166921
0.00499299
-0.0166943
0.00542087
-0.0167826
0.00587146
-0.0169572
0.00634381
-0.0172014
0.00683635
-0.0175074
0.00735447
-0.0178645
0.00789
-0.01829
0.00845078
-0.0187173
-0.0192506
0.0090352
0.000118973
0.00474711
0.00051217
0.00285677
0.00121315
-0.00116841
0.00193896
-0.00997489
0.00245006
-0.0144212
0.00284382
-0.0167295
0.00317757
-0.0173256
0.00349818
-0.0174338
0.00382595
-0.0172717
0.00417534
-0.0171404
0.0045485
-0.0170652
0.00494633
-0.0170921
0.00536755
-0.0172038
0.00581164
-0.0174013
0.00627723
-0.017667
0.00676359
-0.0179938
0.00727474
-0.0183757
0.00780276
-0.018818
0.00835699
-0.0192715
-0.0198276
0.00893395
0.000123036
0.00462407
0.000549326
0.00243048
0.00129273
-0.00191182
0.00200251
-0.0106847
0.00249066
-0.0149093
0.00286134
-0.0171002
0.00317622
-0.0176405
0.00348262
-0.0177402
0.0037995
-0.0175886
0.00414034
-0.0174813
0.00450608
-0.017431
0.00489705
-0.017483
0.00531167
-0.0176184
0.00574918
-0.0178388
0.00620795
-0.0181257
0.00668797
-0.0184738
0.00719177
-0.0188795
0.0077123
-0.0193385
0.00825988
-0.0198191
-0.0203967
0.008829
0.000125124
0.00449895
0.00058343
0.00197217
0.00136635
-0.00269473
0.00205655
-0.0113749
0.00252165
-0.0153744
0.00287074
-0.0174492
0.00316845
-0.0179382
0.00346216
-0.0180339
0.00376929
-0.0178957
0.00410231
-0.0178143
0.00446099
-0.0177897
0.00484526
-0.0178673
0.00525329
-0.0180265
0.00568412
-0.0182696
0.00613601
-0.0185776
0.00660949
-0.0189473
0.00710563
-0.0193756
0.00761873
-0.0198516
0.00815946
-0.0203598
-0.0209575
0.0087203
0.00012616
0.00437279
0.000615538
0.0014828
0.00143359
-0.00351278
0.00210148
-0.0120428
0.00254371
-0.0158167
0.00287273
-0.0177783
0.00315491
-0.0182203
0.00343732
-0.0183163
0.00373569
-0.0181941
0.00406146
-0.0181401
0.00441337
-0.0181416
0.00479104
-0.018245
0.00519247
-0.0184279
0.0056165
-0.0186936
0.00606144
-0.0190226
0.00652815
-0.019414
0.00701638
-0.0198638
0.00752214
-0.0203574
0.0080557
-0.0208934
-0.0215096
0.00860777
0.000127262
0.00424553
0.000647036
0.000963023
0.00149418
-0.00435992
0.00213775
-0.0126863
0.00255752
-0.0162364
0.002868
-0.0180888
0.00313621
-0.0184886
0.00340854
-0.0185887
0.003699
-0.0184845
0.00401798
-0.018459
0.00436332
-0.0184869
0.00473445
-0.0186161
0.00512923
-0.0188227
0.00554636
-0.0191108
0.00598429
-0.0194605
0.00644396
-0.0198736
0.00692412
-0.020344
0.00742259
-0.0208559
0.00794854
-0.0214193
-0.0220524
0.00849135
0.000129598
0.00411593
0.000679434
0.000413187
0.00154796
-0.00522844
0.00216586
-0.0133042
0.00256374
-0.0166343
0.0028572
-0.0183822
0.00311286
-0.0187442
0.00337622
-0.018852
0.00365947
-0.0187678
0.00397204
-0.0187716
0.00431094
-0.0188258
0.00467555
-0.0189807
0.00506362
-0.0192108
0.00547375
-0.0195209
0.00590456
-0.0198913
0.00635695
-0.020326
0.00682893
-0.020816
0.00732011
-0.021347
0.00783793
-0.0219371
-0.0225854
0.00837098
0.000134203
0.00398173
0.000714106
-0.000166716
0.00159489
-0.00610923
0.00218631
-0.0138957
0.00256304
-0.017011
0.00284095
-0.0186601
0.00308538
-0.0189887
0.00334072
-0.0191074
0.00361735
-0.0190444
0.00392376
-0.019078
0.0042563
-0.0191583
0.00461438
-0.0193388
0.00499567
-0.019592
0.0053987
-0.0199239
0.0058223
-0.0203149
0.00626717
-0.0207709
0.00673089
-0.0212797
0.00721472
-0.0218309
0.0077238
-0.0224462
-0.0231083
0.00824666
0.000141799
0.00383993
0.000752003
-0.00077692
0.00163506
-0.00699229
0.00219966
-0.0144603
0.00255609
-0.0173675
0.00281981
-0.0189238
0.0030542
-0.0192231
0.00330233
-0.0193555
0.0035728
-0.0193149
0.00387324
-0.0193785
0.00419947
-0.0194846
0.004551
-0.0196903
0.00492542
-0.0199665
0.00532125
-0.0203198
0.00573752
-0.0207312
0.00617465
-0.021208
0.00663009
-0.0217351
0.00710641
-0.0223072
0.00760608
-0.0229459
-0.0236207
0.00811848
0.000152655
0.00368727
0.000793439
-0.0014177
0.0016686
-0.00786745
0.00220643
-0.0149981
0.00254348
-0.0177045
0.0027943
-0.0191747
0.00301972
-0.0194485
0.00326132
-0.0195971
0.00352599
-0.0195796
0.00382058
-0.0196731
0.0041405
-0.0198045
0.00448545
-0.0200353
0.00485291
-0.0203339
0.00524144
-0.0207083
0.00565026
-0.02114
0.00607945
-0.0216372
0.0065266
-0.0221823
0.00699519
-0.0227758
0.00748471
-0.0234354
-0.0241226
0.00798659
0.000166544
0.00352073
0.000837986
-0.00208915
0.00169574
-0.0087252
0.00220714
-0.0155095
0.00252581
-0.0180232
0.0027649
-0.0194138
0.00298227
-0.0196658
0.00321791
-0.0198327
0.00347704
-0.0198387
0.00376585
-0.0199619
0.00407945
-0.0201181
0.00441777
-0.0203736
0.00477818
-0.0206943
0.00515932
-0.0210894
0.00556056
-0.0215412
0.00598163
-0.0220583
0.00642051
-0.0226212
0.00688105
-0.0232363
0.00735976
-0.0239141
-0.0246136
0.00785082
0.000182807
0.00333792
0.000884531
-0.00279087
0.00171671
-0.00955738
0.00220229
-0.0159951
0.00250361
-0.0183245
0.00273205
-0.0196422
0.00294217
-0.019876
0.00317231
-0.0200629
0.00342608
-0.0200925
0.00370913
-0.0202449
0.00401638
-0.0204253
0.004348
-0.0207052
0.00470127
-0.0210476
0.00507492
-0.0214631
0.00546844
-0.0219347
0.00588124
-0.0224711
0.00631186
-0.0230518
0.00676394
-0.0236884
0.00723152
-0.0243817
-0.0250932
0.00771108
0.00020052
0.0031374
0.000931475
-0.00352182
0.00173179
-0.0103577
0.00219236
-0.0164556
0.00247738
-0.0186095
0.00269613
-0.0198609
0.00289969
-0.0200795
0.00312467
-0.0202878
0.0033732
-0.020341
0.00365047
-0.0205222
0.00395133
-0.0207262
0.0042762
-0.0210301
0.00462222
-0.0213936
0.00498829
-0.0218292
0.00537395
-0.0223204
0.00577835
-0.0228755
0.00620067
-0.0234741
0.00664378
-0.0241315
0.00710052
-0.0248384
-0.0255642
0.0075715
0.000218724
0.00291868
0.000977023
-0.00428012
0.00174125
-0.0111219
0.00217776
-0.0168921
0.00244751
-0.0188793
0.0026574
-0.0200708
0.00285496
-0.0202771
0.00307504
-0.0205079
0.00331836
-0.0205843
0.00358981
-0.0207937
0.00388423
-0.0210206
0.00420225
-0.0213481
0.00454092
-0.0217323
0.00489929
-0.0221875
0.00527692
-0.022698
0.00567282
-0.0232714
0.00608671
-0.023888
0.00652032
-0.0245651
0.00696627
-0.0252844
-0.0260406
0.00744271
0.000236638
0.00268204
0.00101953
-0.00506301
0.00174547
-0.0118479
0.00215903
-0.0173057
0.00241454
-0.0191348
0.00261632
-0.0202726
0.00280838
-0.0204691
0.00302374
-0.0207233
0.00326188
-0.0208225
0.00352746
-0.0210592
0.0038154
-0.0213085
0.0041265
-0.0216592
0.00445773
-0.0220635
0.00480831
-0.0225381
0.0051778
-0.0230675
0.0055651
-0.0236587
0.00597038
-0.0242933
0.00639433
-0.0249891
0.00683406
-0.0257241
-0.0265042
0.00729765
0.000253825
0.00242822
0.00105767
-0.00586686
0.00174479
-0.012535
0.00213653
-0.0176974
0.00237877
-0.019377
0.0025731
-0.0204669
0.00276002
-0.0206561
0.00297078
-0.020934
0.00320371
-0.0210554
0.00346337
-0.0213189
0.00374475
-0.0215899
0.00404885
-0.0219633
0.00437253
-0.0223872
0.00471523
-0.0228808
0.00507643
-0.0234287
0.00545504
-0.0240373
0.00585149
-0.0246897
0.00626615
-0.0254037
0.00669717
-0.0261551
-0.0269553
0.00714822
0.000270257
0.00215796
0.00109063
-0.00668723
0.00173959
-0.013184
0.00211064
-0.0180685
0.00234053
-0.0196069
0.00252796
-0.0206544
0.00271004
-0.0208382
0.00291626
-0.0211403
0.00314392
-0.021283
0.00339757
-0.0215726
0.00367235
-0.0218647
0.00396935
-0.0222603
0.00428538
-0.0227032
0.00462008
-0.0232155
0.00497287
-0.0237815
0.00534268
-0.0244071
0.00573016
-0.0250772
0.00613522
-0.0258088
0.00655696
-0.0265769
-0.0273979
0.00699963
0.000286277
0.00187168
0.00111807
-0.00751902
0.00173031
-0.0137962
0.00208174
-0.0184199
0.00230012
-0.0198253
0.00248111
-0.0208354
0.00265858
-0.0210156
0.00286025
-0.0213419
0.00308256
-0.0215054
0.00333014
-0.0218201
0.00359824
-0.0221328
0.00388804
-0.0225501
0.00419631
-0.0230115
0.0045229
-0.0235421
0.00486715
-0.0241258
0.00522806
-0.024768
0.00560637
-0.0254555
0.00600181
-0.0262042
0.00641404
-0.0269891
-0.0278293
0.00684537
0.000302504
0.00156918
0.00114002
-0.00835654
0.00171735
-0.0143735
0.00205015
-0.0187527
0.00225781
-0.020033
0.00243274
-0.0210103
0.00260574
-0.0211886
0.00280282
-0.021539
0.0030197
-0.0217222
0.00326113
-0.0220616
0.00352246
-0.0223941
0.00380496
-0.0228326
0.00410536
-0.0233119
0.00442375
-0.0238605
0.00475934
-0.0244614
0.00511122
-0.0251199
0.00548024
-0.0258245
0.00586586
-0.0265899
0.00626796
-0.0273912
-0.0282507
0.00668937
0.000319687
0.00124949
0.00115681
-0.00919366
0.00170113
-0.0149178
0.0020162
-0.0190678
0.00221383
-0.0202306
0.002383
-0.0211795
0.00255162
-0.0213572
0.00274405
-0.0217314
0.0029554
-0.0219336
0.00319059
-0.0222967
0.00344508
-0.0226486
0.00372015
-0.0231077
0.00401259
-0.0236043
0.00432266
-0.0241706
0.00464948
-0.0247882
0.00499223
-0.0254627
0.00535178
-0.0261841
0.00572741
-0.0269655
0.00611949
-0.0277833
-0.0286609
0.00652974
0.000338564
0.000910928
0.00116886
-0.010024
0.00168203
-0.015431
0.00198014
-0.0193659
0.00216837
-0.0204188
0.00233203
-0.0213431
0.00249632
-0.0215215
0.002684
-0.0219191
0.0028897
-0.0221393
0.00311857
-0.0225256
0.00336613
-0.0228962
0.00363367
-0.0233752
0.00391803
-0.0238887
0.00421969
-0.0244722
0.00453761
-0.0251061
0.00487113
-0.0257962
0.00522105
-0.026534
0.00558658
-0.027331
0.00596822
-0.0281649
-0.0290604
0.00636771
0.000359736
0.000551192
0.00117664
-0.0108409
0.00166037
-0.0159147
0.00194223
-0.0196478
0.00212161
-0.0205982
0.00227995
-0.0215015
0.00243992
-0.0216815
0.00262272
-0.0221019
0.00282268
-0.0223393
0.00304514
-0.0227481
0.00328567
-0.0231367
0.00354555
-0.0236351
0.00382174
-0.0241649
0.00411487
-0.0247653
0.0044238
-0.025415
0.00474796
-0.0261203
0.00508812
-0.0268742
0.00544337
-0.0276863
0.0058146
-0.0285362
-0.0294487
0.00620286
0.000383557
0.000167635
0.00118062
-0.0116379
0.00163646
-0.0163706
0.0019027
-0.019914
0.00207373
-0.0207692
0.00222686
-0.0216546
0.00238247
-0.0218371
0.00256027
-0.0222797
0.00275437
-0.0225334
0.00297033
-0.022964
0.00320372
-0.0233701
0.00345583
-0.0238872
0.00372375
-0.0244328
0.00400825
-0.0250498
0.00430808
-0.0257149
0.00462278
-0.026435
0.00495303
-0.0272044
0.00529791
-0.0280311
0.00565845
-0.0288967
-0.0298257
0.00603551
0.000410067
-0.000242431
0.00118117
-0.012409
0.00161053
-0.0168
0.00186175
-0.0201652
0.00202484
-0.0209323
0.00217286
-0.0218026
0.00232404
-0.0219883
0.0024967
-0.0224524
0.00268484
-0.0227215
0.0028942
-0.0231734
0.00312035
-0.0235963
0.00336457
-0.0241314
0.00362412
-0.0246924
0.00389989
-0.0253256
0.00419051
-0.0260055
0.00449564
-0.0267402
0.00481584
-0.0275246
0.00515021
-0.0283655
0.00550001
-0.0292465
-0.0301914
0.00586567
0.000438942
-0.000681374
0.00117862
-0.0131487
0.0015828
-0.0172041
0.00181953
-0.020402
0.00197507
-0.0210879
0.00211802
-0.0219456
0.00226469
-0.022135
0.00243205
-0.0226197
0.00261413
-0.0229036
0.0028168
-0.0233761
0.00303558
-0.023815
0.0032718
-0.0243677
0.00352289
-0.0249435
0.00378982
-0.0255925
0.00407114
-0.0262868
0.00436659
-0.0270356
0.00467662
-0.0278347
0.00500038
-0.0286893
0.00533925
-0.0295854
-0.0305455
0.00569339
0.000469497
-0.00115087
0.00117322
-0.0138524
0.00155344
-0.0175844
0.00177622
-0.0206247
0.00192452
-0.0212362
0.0020624
-0.0220835
0.00220447
-0.022277
0.00236639
-0.0227816
0.00254229
-0.0230795
0.00273816
-0.0235719
0.00294946
-0.0240263
0.00317757
-0.0245958
0.00342011
-0.025186
0.00367809
-0.0258505
0.00395001
-0.0265587
0.00423569
-0.0273213
0.00453542
-0.0281344
0.00484845
-0.0290023
0.0051763
-0.0299132
-0.030888
0.00551879
0.000500725
-0.0016516
0.00116517
-0.0145169
0.00152259
-0.0179418
0.00173194
-0.0208341
0.00187328
-0.0213775
0.00200608
-0.0222162
0.00214342
-0.0224144
0.00229974
-0.022938
0.00246937
-0.0232491
0.00265833
-0.0237609
0.00286204
-0.0242301
0.00308193
-0.0248156
0.00331583
-0.0254199
0.00356476
-0.0260994
0.00382719
-0.0268211
0.00410298
-0.0275971
0.00439231
-0.0284237
0.0046945
-0.0293045
0.00501117
-0.0302299
-0.0312187
0.00534188
0.000531393
-0.00218299
0.00115461
-0.0151401
0.00149037
-0.0182775
0.00168681
-0.0210305
0.00182143
-0.0215121
0.0019491
-0.0223439
0.00208159
-0.0225468
0.00223216
-0.0230885
0.00239542
-0.0234124
0.00257736
-0.0239428
0.00277336
-0.0244261
0.00298492
-0.0250272
0.00321009
-0.0256451
0.00344986
-0.0263392
0.0037027
-0.027074
0.00396852
-0.0278629
0.00424733
-0.0287025
0.0045386
-0.0295957
0.00484396
-0.0305353
-0.0315375
0.00516276
0.00056018
-0.00274317
0.00114165
-0.0157215
0.00145689
-0.0185928
0.00164093
-0.0212146
0.00176904
-0.0216403
0.00189152
-0.0224664
0.00201903
-0.0226744
0.0021637
-0.0232332
0.00232048
-0.0235692
0.00249528
-0.0241176
0.00268346
-0.0246142
0.00288661
-0.0252304
0.00310295
-0.0258614
0.00333345
-0.0265697
0.00357661
-0.0273171
0.00383236
-0.0281186
0.00410055
-0.0289707
0.00438079
-0.029876
0.00467472
-0.0308292
-0.0318443
0.00498148
0.000585846
-0.00332902
0.00112642
-0.0162621
0.00142225
-0.0188886
0.0015944
-0.0213867
0.00171617
-0.021762
0.00183337
-0.0225836
0.00195576
-0.0227967
0.00209438
-0.0233718
0.00224459
-0.0237194
0.00241214
-0.0242852
0.00259238
-0.0247945
0.00278703
-0.025425
0.00299445
-0.0260688
0.00321558
-0.0267909
0.00344896
-0.0275505
0.00369455
-0.0283642
0.00395203
-0.0292282
0.00422114
-0.0301451
0.00450351
-0.0311116
-0.0321389
0.00479813
0.00060738
-0.0039364
0.00110903
-0.0167638
0.00138656
-0.0191661
0.00154731
-0.0215475
0.00166286
-0.0218776
0.0017747
-0.0226954
0.00189183
-0.0229139
0.00202427
-0.0235043
0.0021678
-0.0238629
0.00232798
-0.0244453
0.00250017
-0.0249667
0.00268623
-0.0256111
0.00288465
-0.0262672
0.00309628
-0.0270025
0.0033198
-0.0277741
0.00355513
-0.0285996
0.00380182
-0.0294749
0.00405971
-0.030403
0.00433039
-0.0313822
-0.0324213
0.00461276
0.000624119
-0.00456051
0.00108961
-0.0172293
0.00134989
-0.0194264
0.00149972
-0.0216973
0.00160917
-0.021987
0.00171554
-0.0228018
0.00182727
-0.0230256
0.00195338
-0.0236304
0.00209014
-0.0239996
0.00224283
-0.024598
0.00240689
-0.0251307
0.00258427
-0.0257884
0.00277359
-0.0264566
0.00297562
-0.0272045
0.00318917
-0.0279876
0.00341416
-0.0288246
0.00364997
-0.0297107
0.00389656
-0.0306496
0.00415543
-0.0316411
-0.0326913
0.00442546
0.000635798
-0.00519631
0.00106833
-0.0176618
0.00131236
-0.0196705
0.0014517
-0.0218366
0.00155513
-0.0220905
0.00165592
-0.0229026
0.00176212
-0.0231318
0.00188177
-0.02375
0.00201166
-0.0241295
0.00215675
-0.0247431
0.00231256
-0.0252865
0.0024812
-0.0259571
0.00266132
-0.0266367
0.00285364
-0.0273968
0.00305712
-0.0281911
0.00327168
-0.0290391
0.00349653
-0.0299355
0.00373173
-0.0308848
0.0039787
-0.0318881
-0.0329489
0.00423631
0.000642524
-0.00583884
0.00104535
-0.0180646
0.00127406
-0.0198992
0.00140332
-0.0219659
0.00150079
-0.0221879
0.00159588
-0.0229977
0.0016964
-0.0232323
0.00180947
-0.0238631
0.00193239
-0.0242525
0.00206976
-0.0248805
0.00221726
-0.025434
0.00237707
-0.0261169
0.00254791
-0.0268075
0.0027304
-0.0275793
0.00292371
-0.0283844
0.00312773
-0.0292431
0.00334156
-0.0301494
0.00356529
-0.0311085
0.00380026
-0.0321231
-0.033194
0.00404539
0.000644697
-0.00648353
0.00102085
-0.0184408
0.00123507
-0.0201134
0.00135462
-0.0220854
0.00144618
-0.0222795
0.00153544
-0.0230869
0.00163017
-0.0233271
0.00173652
-0.0239695
0.00185238
-0.0243683
0.00198192
-0.02501
0.00212101
-0.0255731
0.00227194
-0.0262678
0.0024334
-0.026969
0.00260595
-0.0277519
0.00278898
-0.0285674
0.00298238
-0.0294365
0.00318512
-0.0303521
0.0033973
-0.0313207
0.00362018
-0.0323459
-0.0334267
0.00385279
0.000642894
-0.00712643
0.000995023
-0.0187929
0.00119549
-0.0203139
0.00130566
-0.0221956
0.00139132
-0.0223652
0.00147465
-0.0231703
0.00156344
-0.0234158
0.00166296
-0.024069
0.00177166
-0.024477
0.00189326
-0.0251316
0.00202387
-0.0257037
0.00216584
-0.0264098
0.00231785
-0.027121
0.00248035
-0.0279144
0.002653
-0.0287401
0.00283567
-0.0296192
0.00302725
-0.0305437
0.00322782
-0.0315213
0.00343854
-0.0325567
-0.0336467
0.0036586
0.000637762
-0.00776419
0.000968032
-0.0191232
0.00115541
-0.0205012
0.00125649
-0.0222967
0.00133625
-0.0224449
0.00141351
-0.0232475
0.00149625
-0.0234986
0.00158882
-0.0241616
0.00169028
-0.0245785
0.00180383
-0.0252452
0.00192589
-0.0258258
0.00205884
-0.0265427
0.00220131
-0.0272635
0.00235367
-0.0280667
0.00251582
-0.0289022
0.00268766
-0.0297911
0.00286802
-0.030724
0.00305691
-0.0317101
0.00325543
-0.0327552
-0.0338542
0.0034629
0.000629924
-0.00839411
0.000940035
-0.0194333
0.0011149
-0.0206761
0.00120715
-0.0223889
0.001281
-0.0225188
0.00135206
-0.0233186
0.00142862
-0.0235751
0.00151415
-0.0242471
0.00160826
-0.0246726
0.00171367
-0.0253506
0.00182713
-0.0259393
0.00195099
-0.0266666
0.00208384
-0.0273963
0.00222598
-0.0282089
0.00237752
-0.0290538
0.00253841
-0.0299519
0.00270749
-0.0308931
0.00288466
-0.0318873
0.00307093
-0.0329414
-0.0340491
0.0032658
0.000619928
-0.00901404
0.000911174
-0.0197245
0.00107403
-0.020839
0.00115766
-0.0224726
0.00122558
-0.0225867
0.00129033
-0.0233834
0.0013606
-0.0236454
0.00143896