/*--------------------------------*- C++ -*----------------------------------*\
  =========                 |
  \\      /  F ield         | OpenFOAM: The Open Source CFD Toolbox
   \\    /   O peration     | Website:  https://openfoam.org
    \\  /    A nd           | Version:  7
     \\/     M anipulation  |
\*---------------------------------------------------------------------------*/
FoamFile
{
    version     2.0;
    format      ascii;
    class       volScalarField;
    location    "1.308";
    object      p;
}
// * * * * * * * * * * * * * * * * * * * * * * * * * * * * * * * * * * * * * //

dimensions      [0 2 -2 0 0 0 0];

internalField   nonuniform List<scalar> 
12359
(
0.0648703
0.0742782
0.0483314
0.107568
0.0685586
0.154502
0.185782
0.168607
0.226148
0.142499
0.206817
0.277343
0.484761
0.114742
0.10237
0.395813
0.438906
0.05284
0.0524607
0.0873118
0.123433
0.251377
0.0805042
0.0928758
0.0771168
0.0836724
0.0494974
0.0493572
0.0517503
0.0500079
0.0504196
0.0488564
0.0485022
0.0497826
0.0483617
0.0506293
0.0580764
0.0631476
0.0668468
0.0605439
0.0722513
0.0617297
0.05567
0.0549496
0.0511377
0.0514318
0.0508606
0.0502275
0.0521007
0.0496181
0.0492257
0.0490919
0.0487699
0.0532836
0.0486865
0.0485286
0.0543144
0.0484838
0.0484736
0.048408
0.0485719
0.048357
0.0491429
0.514665
0.0537464
0.131958
0.0572808
0.0489951
0.0588068
0.348732
0.530961
0.0702518
0.0483225
0.0596166
0.0977556
0.0483719
0.0487698
0.0483401
0.0565601
0.318267
0.125651
0.0434609
0.0473413
0.0501561
-0.0560975
0.0262031
0.0433011
0.045765
-0.0687374
-0.0503323
0.0481144
0.476518
0.0480514
0.0482511
0.0487621
0.00934097
0.0476526
0.0483534
0.0580934
0.0543817
0.10805
0.0482172
0.0264157
-0.12232
0.0416964
0.014242
0.0470493
-0.0545804
0.0286865
0.0146231
0.0476742
0.0436033
0.109276
0.0910823
0.0490744
0.0439153
0.0928233
0.0423046
-0.0732099
0.0473873
0.0477722
0.174375
0.0456202
0.00663675
0.042104
0.0434873
0.0383994
0.0499898
0.0483267
0.0418602
0.044515
-0.0023578
-0.00377631
-0.00267095
0.0471274
0.00811571
0.0442847
0.00834122
0.0482505
0.0392126
0.0475333
0.0663039
0.0162602
0.0470928
0.00918361
0.146794
0.0473503
-0.0448706
0.0416255
0.127065
0.00436339
0.048231
0.0161954
0.0455239
0.0480047
-0.173034
0.108467
-0.00160083
0.0477598
0.0489269
0.0462615
0.0489752
0.00511095
0.0133728
0.047334
0.0435995
0.0473099
0.173568
0.0147969
-0.0704648
0.0483404
0.048363
0.013899
0.07712
0.0416215
0.042844
0.0517642
0.051546
0.110979
0.0432094
0.115232
0.0479829
0.0483287
0.0431201
0.057019
0.20536
0.0432042
0.0478414
0.00770997
0.0430133
0.0481727
0.0104204
0.0129062
0.0454381
0.0133938
-0.132483
0.0333387
0.0441238
0.0165883
0.042511
0.15086
0.00724916
0.0555113
0.0142251
0.0126677
0.0479616
0.01158
0.0561768
0.00260978
0.0418072
0.0476958
0.00018685
0.000261227
-0.528279
0.202177
0.0482575
0.0436377
0.0490436
0.0434754
0.0670388
0.101439
0.0418609
0.00684109
0.466272
0.0416379
0.0476717
0.0678067
0.0284927
0.0459423
0.0449611
0.044768
0.0473419
0.0100619
0.0558013
0.047404
0.0547995
0.0473796
0.0155145
0.0475375
0.292661
0.0473
0.0243671
0.0476204
0.0559922
0.0451189
-0.0453104
0.0484547
0.0024456
0.0421414
0.0133004
0.00190098
0.0624402
0.0511587
0.0452686
0.321641
-0.577638
0.0473942
0.0415398
0.397893
-0.0546294
0.0550554
0.0461317
0.0459552
0.0132813
0.0755912
-0.447648
-0.0678652
0.0449057
0.0417427
0.00844671
0.0139404
0.0608646
0.0148861
0.0453757
0.0416041
0.0473564
0.0417074
-0.115261
0.0436947
0.0470223
0.0482055
0.012634
0.0395494
0.0574046
0.0247651
0.0474643
0.0480477
0.0482235
0.0482047
0.0488891
0.00512984
0.0429354
-0.453413
0.0470756
0.0470512
0.0265399
0.0423617
0.101167
0.0487567
0.0492813
0.0481389
-0.104003
0.0453719
0.0481362
0.0439387
0.0483586
0.0415882
0.0439754
0.0439778
0.0420477
0.0528538
0.204536
0.0413541
0.0505276
0.0630679
0.0231761
-0.0562559
0.0404961
0.0588272
0.370809
0.0481974
0.0204915
0.0469631
0.0335874
0.0470863
0.0402758
0.228887
0.0196769
0.206319
0.0569254
0.0472853
0.01282
0.00858109
0.0472453
0.0120201
0.0128673
0.0466489
0.0486597
0.0486455
0.0487168
0.0486949
0.291379
0.0474397
0.105226
0.00119669
0.0557647
0.0143669
0.0197259
0.0271158
0.0344056
0.0189706
0.034851
0.057688
0.0210531
0.0223121
0.093082
0.0671773
0.0157208
0.0653037
0.0652176
0.0171727
0.105506
0.044054
0.0487521
0.0320805
0.0487132
0.0438144
-0.188364
0.499942
0.0440356
0.0482912
0.0471581
0.0478598
0.0188937
0.0480109
0.0479923
-0.0746138
0.0139634
-0.0461894
0.0460592
0.0113443
0.0396532
0.0479217
0.0167169
0.0319449
0.111117
0.0321389
0.044291
0.0469427
0.0132829
0.0108299
0.0408547
0.296865
0.0163656
0.00918701
0.0506391
0.0475307
0.048274
0.383736
0.0138724
0.0461957
0.0640987
0.064301
0.0475545
0.0475222
0.0477957
-0.0547443
0.099778
0.0599845
0.0195335
0.0061819
0.0489655
0.115113
0.0499951
1.42546e-05
-0.0600459
0.303243
0.0547454
0.09261
0.0289197
0.0230067
0.035991
0.0317637
0.0500405
0.0359751
0.0166299
0.0480178
-0.0569909
0.0579762
-0.00703218
0.00976082
0.0547762
0.0967897
-0.143585
0.0184576
0.0398546
0.00878098
0.00928261
0.0196829
0.0426231
0.0477367
0.0533548
0.0471041
-0.00294978
0.0445617
0.083196
0.085972
0.0367171
-0.0535648
0.104652
0.0540398
0.0466374
0.393341
0.0467792
0.0459415
0.00583066
0.0482946
0.046497
0.0459028
0.237263
0.202592
0.0497077
0.0459816
0.110107
0.0489971
0.0196709
0.0160075
0.0143745
0.0466662
0.0478432
0.0486731
0.0481473
0.0855143
0.0202661
0.022694
0.0513644
0.0522464
0.0032733
0.0501302
0.0466106
0.0407797
0.121018
0.00520638
0.0482317
0.048427
0.0130719
0.0314588
0.049449
0.0439087
0.113726
0.0201073
0.00841955
0.0215604
0.0465631
0.0468722
-0.0047981
-0.00446436
0.0481403
0.0372701
0.0505854
0.00728819
0.283633
0.0477741
0.0447053
0.046712
0.0156662
0.0540091
0.0528334
0.0437176
0.0500707
0.0308264
0.0757606
0.0380483
-0.0343148
0.0469589
-0.0394972
0.045807
-0.113759
0.0198433
-0.00188938
0.0484619
0.0511369
0.022564
0.0431148
0.0492073
0.0560555
0.0541968
0.0544712
0.0724878
0.0147749
0.0143249
0.0473584
0.0427217
0.0199794
-0.00356972
0.0473623
0.047103
0.0133126
0.0467045
0.224056
-0.149008
-0.118031
0.0473627
0.0412081
0.00142495
0.0532171
0.0420022
0.453224
0.0470634
0.11447
0.0888432
0.0410105
0.0418817
0.0493433
0.0371157
0.00079112
0.0310931
0.0514216
0.0474005
0.0483296
0.0537964
0.0517628
0.0559658
0.0150611
0.0489469
0.0470519
0.0212523
-0.0848516
0.050387
-5.56413e-05
0.0471988
0.0519501
0.0950837
0.00220687
0.00200189
0.0970828
0.0460823
0.00222047
0.0475972
0.0484001
0.0053044
0.0372662
0.0455041
0.0372621
0.0479193
0.0470298
0.0431436
0.0495306
0.00208388
0.10368
0.0583329
0.11848
0.0166614
0.0398865
0.112953
0.0628046
-0.00550934
0.0143743
0.0638272
0.0549187
0.0484165
0.0385644
0.021673
0.0473503
0.0483081
0.0466325
0.0484581
-0.0150654
0.0376892
0.0342928
0.105113
0.0563272
0.233894
0.00747994
0.00211302
0.0428437
-0.00110538
0.0479001
0.0505001
0.0471112
0.106155
0.114415
0.0463403
0.0311762
0.228669
0.016649
0.0064755
0.0385861
0.0668595
-0.125928
0.046236
0.0495977
0.0479415
-0.00922793
0.0494639
0.031884
-0.0531547
0.0471079
0.0772653
0.0577237
0.0414744
0.0506349
0.0466514
0.0487607
0.0534364
0.0488137
0.0486932
0.0527181
0.00714447
0.0115162
0.0415273
0.337467
0.00272908
0.41117
0.017866
0.0255037
0.0531196
0.0192761
0.0567543
0.0116892
0.319125
0.0983456
0.0558823
0.0439812
0.0531334
0.0517241
0.0221751
0.0477337
-0.0087722
0.0488327
0.0995711
0.0490386
-0.0135008
0.00850764
0.012144
0.0566429
0.039047
0.00905903
0.0774062
0.00616115
0.0407484
0.00375771
0.0433443
0.047413
0.050203
-0.201128
0.0717907
0.0411547
0.0473197
0.049043
0.0537532
0.0828553
0.0113587
0.0192831
0.0466584
0.0427042
0.0556385
0.0410573
0.0383183
0.00262314
0.054767
0.0577291
0.0100546
0.0425426
0.0398031
0.10437
0.0473612
0.0549417
-0.250941
0.0484496
0.00801911
0.0518383
0.0401877
0.0892318
0.0106124
0.0510796
0.0195819
0.048034
0.111531
0.0412451
0.0133709
0.0117912
0.112808
0.047907
0.00167321
-0.00562989
0.056694
0.0423154
0.042492
0.0370291
0.238082
0.0525626
0.048276
0.0549155
0.0480309
-0.12377
0.0421421
0.0111783
0.0320688
0.0196554
0.517449
0.0419543
-0.0539552
0.0120458
-0.0915649
0.0193409
0.0513019
0.0419023
0.0316591
-0.046517
-0.0347206
0.0459754
0.0459228
0.119092
0.0453586
0.211145
0.0206516
0.0714965
0.0429034
0.407198
-0.100577
0.042698
0.0474203
0.0477329
0.09377
0.0538292
0.0585163
0.0512385
0.0161119
0.077035
-0.0324137
0.356086
0.04666
0.0829448
0.0149282
0.120325
0.0435567
0.11418
0.00859931
0.0949007
0.0508883
0.047319
0.0100967
0.00727461
0.0203122
0.117902
0.0136936
0.0258097
0.0512732
0.0472084
0.038318
0.243578
0.0384029
0.0126915
0.0667395
0.0209857
0.0362897
0.0519587
-0.00483585
0.0328916
0.0430572
-0.0169391
0.0580628
0.0279606
0.19849
0.0474001
0.0325751
0.0499383
0.0558316
0.0437285
0.0506953
0.0473569
0.00291233
0.0407658
0.0771819
0.0130317
0.0948951
0.0312921
0.0318644
0.0108975
-0.186558
0.0484309
0.0552714
0.0257236
-0.0673362
0.0076682
0.0477962
0.504948
0.0473363
0.0416729
-0.158428
0.0536814
0.0481507
0.0482282
0.0654847
0.0893646
0.0484627
0.054813
0.109491
0.0505262
0.0527771
0.0515816
0.0462509
0.0906268
-0.0164251
0.0536037
0.116418
0.0120412
0.0120807
0.0069473
0.0160458
0.0516054
0.0415657
-0.0388157
0.00571418
0.0727543
0.0468897
0.0484855
0.117741
-0.00083058
0.033548
0.0378944
0.0333683
0.0511793
0.04191
0.0838678
-0.220237
0.371921
0.0825689
0.04962
0.0419063
0.0796611
0.348481
0.110933
0.0478255
0.00062559
-0.0115509
-0.239028
0.0357813
-0.148047
0.0484534
0.0515455
0.0485023
0.00754488
0.0745442
-0.15598
0.0407294
-0.0818722
0.0451438
0.0501375
0.0115245
0.0530983
0.00158683
-0.0419626
0.054532
0.0357805
0.0256774
0.0360948
0.0543422
0.0761577
0.0723743
0.0313288
0.079425
0.0545037
0.048541
0.0522185
0.0490994
0.105044
0.0235543
-0.00639373
0.00379285
0.0853671
0.0250681
0.0235508
0.0423516
-0.00849039
0.0343176
0.0537917
0.0479571
7.50997e-05
0.108676
0.0407633
0.0404518
0.05568
0.0240015
0.1026
0.115547
0.0240949
0.238037
0.0228097
0.0864849
-0.0397246
0.0527339
0.020092
0.0119427
0.0454727
0.0340196
0.0377308
0.0436286
0.0475935
0.0436924
-0.0130854
-0.00079822
0.0427454
-0.130772
0.10041
0.0489736
0.0518758
0.00229015
0.0488756
0.0791459
0.0141895
0.00575801
0.0488174
0.0513165
0.0477806
0.0488771
0.118535
-0.131737
0.0490677
0.0578574
0.0473738
-0.141867
0.0220334
0.0157307
0.0471079
0.0489518
0.0515004
0.0253818
0.0858201
0.0285473
0.0465922
0.0516639
0.0487585
0.0214662
0.0845831
0.0377622
0.0482993
0.0310452
0.0257083
0.0750251
0.0432754
-0.0159317
0.145253
0.0454275
0.0330634
0.0514283
0.0429745
-0.176611
0.0542989
0.0490271
0.0124355
0.104675
0.082072
-0.134483
0.0757061
0.034963
0.0279697
0.0555442
0.0391558
0.0347873
0.0548548
0.146725
0.0493939
-0.32468
0.0830095
0.181171
0.0391787
-0.00568069
0.0958827
-0.00162924
0.26223
0.00814532
0.0270861
0.0339466
0.0385665
0.0473223
0.0432165
0.0879807
0.00140398
0.0549952
0.0454297
0.00804072
0.0177661
0.00644431
0.0801383
0.000960166
0.00603077
0.0470502
0.0703569
-0.0495367
0.0872277
0.0473195
0.0347352
0.0523255
0.0473315
0.0687533
0.0484395
0.0433169
0.243829
0.0916385
-0.0164204
0.0484809
0.0479545
0.0480475
0.0550626
0.0523308
-0.00168121
0.0524866
0.0478444
-0.0150347
0.0222256
0.00830735
0.0682571
0.0506229
0.040602
0.0926216
0.0343007
0.0485094
-0.0403392
0.0124629
0.112009
0.0487378
-0.229259
0.0970778
0.0503565
0.0037607
0.0385727
-0.0259899
0.0355771
0.00157716
0.0941021
0.049568
0.0502304
0.0229122
0.0410175
0.0537726
-0.00639185
0.0538453
0.0539613
0.09785
0.0447756
0.0518862
0.035372
0.0112519
0.0508638
0.0539146
0.052047
0.0472394
0.0960889
-0.0403217
0.0266224
0.0551525
0.0532949
0.0403944
0.047526
-0.187677
0.0789963
0.0482195
0.070841
0.0404482
0.098946
0.152875
0.00202973
0.0540593
0.0059316
-0.00108928
0.0470687
0.0403753
3.44804e-05
0.0413093
0.0482789
0.0720477
0.0278243
0.0528008
0.0483074
0.0414063
0.0846876
0.0489148
0.0320312
0.0484546
0.0374831
0.0665793
0.133701
0.0478273
-0.195474
0.0799364
0.0160795
-0.114077
0.0922985
0.0320025
-0.0277277
0.0556235
0.142725
0.208646
0.0530485
0.0435758
0.0434608
0.0505871
0.0524534
0.00750584
-0.0755649
-0.132911
0.00946791
0.147967
-0.00671797
0.010955
-0.0588319
0.0477512
0.0508223
0.0479991
0.0253359
0.0477243
0.00899266
0.0362094
-0.0120489
0.0474307
0.0510345
0.0453718
-0.142108
0.119517
0.0778549
0.0606071
0.121929
0.0436676
0.0489729
-0.0151028
0.0360064
-0.0105714
0.00802659
0.0240205
0.00510944
0.0162951
0.0560324
0.0471396
0.0476069
-0.118284
0.042422
0.0385997
0.0537742
0.00816663
0.0187409
0.0478738
0.0206096
-0.0119937
-5.6663e-06
0.0940355
0.0527543
0.0480459
0.00518001
0.0553311
0.0477724
0.000693404
0.00804137
0.0519218
0.138253
0.00147697
0.0479996
0.0481225
0.0472
0.107156
-0.130097
0.0413153
0.0108068
0.0511879
0.0519768
0.0122382
0.0481835
0.180198
0.0163335
-0.0540932
0.153432
0.0307173
0.0473883
0.047559
0.0331167
0.055491
0.0472219
-0.173608
0.00592806
0.0441803
0.221393
0.101161
0.0411754
0.0473626
0.0481787
0.0529515
-0.0724295
0.160986
0.0335615
0.0770331
0.0661131
0.00658166
-0.0748555
0.025469
0.0535436
0.0524146
0.0171384
0.0397811
0.0466601
0.0505651
0.00432529
0.0523318
0.0328381
0.0543145
0.0815301
-0.0103584
0.0455645
0.0506821
-0.00282988
0.00382054
0.0578315
0.0502832
0.0762924
-0.00069691
0.0390812
0.017566
0.0736672
0.0185605
-0.0330157
0.0523912
0.158432
0.0472024
0.105963
0.000844629
0.0481638
0.0476776
0.369406
0.0484195
0.0553416
0.0265002
0.0535513
0.0537037
0.0568426
0.0482901
0.0480374
0.00031078
-0.024494
0.0456888
0.332352
0.0367444
0.0503308
0.236542
0.0999324
0.0553845
0.0445556
0.0500246
0.0880068
-0.253301
0.0533997
0.0455999
0.0472613
0.0506737
0.063227
0.0168822
0.0528995
0.0638019
0.0515722
-0.147782
-0.00496917
0.00945902
0.110116
0.0365861
0.0504314
0.00484757
-0.113737
0.0523517
0.0474895
0.0503575
0.0472392
0.0534978
0.0468359
-0.00326646
0.0441564
0.0416126
0.302725
-0.000940436
-0.010034
0.0042684
0.0533333
0.00110297
0.0874756
-0.0859246
0.0463471
0.0110795
0.048171
0.2389
0.0474276
0.0480951
0.0289534
0.0473007
0.0261445
0.0582719
0.0536357
0.0461354
-0.0904031
0.0882652
0.0120801
0.0506525
0.0359129
-0.0586496
-0.0067397
0.0785456
0.0745011
0.0486834
0.0545172
0.0437487
0.0504973
0.0457025
0.0505918
0.0896025
0.0750298
0.00761047
-0.102343
0.0260603
-0.00701517
0.0327967
-0.106631
0.046784
-0.0286343
0.0504322
-0.00905578
-0.0055041
0.0254368
0.048043
0.0295962
0.011102
0.0321337
-0.017128
0.233659
-0.0997755
0.0504081
-0.00115369
0.0472044
-0.00436026
0.0912227
0.0048251
0.0429401
0.0567022
0.0114077
0.0512951
0.03655
0.0485241
0.0451944
0.0474876
0.0545092
0.00688947
0.00172669
0.0478037
0.0840746
-0.0809701
0.497293
0.0470603
0.0729198
0.0261955
0.194656
0.0316307
-0.175648
-0.0327562
0.0459038
0.0248702
0.0686512
0.175931
0.0499415
0.0669672
0.0790627
0.0453475
-0.0845832
-0.00416627
0.0503262
0.0265876
-0.0347429
0.0759488
-0.0863745
0.0373133
0.0800481
0.0533045
0.0470531
0.0548171
0.0437372
-0.0728793
-0.000471423
-0.0622168
0.0488628
-0.0834253
0.0300613
0.00433612
0.110549
0.0251725
0.028028
-0.0534109
0.037112
0.0363359
0.00553304
0.0711533
0.0260124
0.00925919
0.0692331
-0.087476
0.0855843
0.0346013
0.0890864
0.0487803
0.114757
7.23499e-05
0.102038
0.0524352
-0.0351214
0.0478094
0.0338012
0.0102939
-0.00101616
0.0564561
0.00651421
0.046236
0.50559
0.0543602
0.00656112
0.0909879
-9.2927e-05
0.00764051
0.0484374
0.0315526
0.0475091
0.464203
0.0479489
0.0476669
0.0472
-0.0136486
0.0416835
0.0441644
-0.0130596
0.0281892
0.0635315
0.0421068
0.0475511
0.10801
0.0457353
0.1039
0.00857242
0.0855792
0.0406063
0.0406343
0.0260281
-0.0121586
0.00976866
0.0427105
0.525005
0.0479236
0.0476194
0.0547307
-0.131954
0.0524138
0.0309048
0.0801657
0.0523096
0.0404235
0.00340667
-0.0219814
0.0334699
-0.0456071
0.0532623
0.0441178
0.0153493
0.0199811
-0.000619409
0.0503564
0.0261492
0.0712106
0.194166
0.0367985
0.0477234
0.0450401
0.178324
0.0482961
0.0483005
-0.034112
0.032189
-0.0384798
0.0404241
0.0474358
0.189294
-0.013757
0.0413622
0.0536409
0.0456436
-0.109431
0.0483062
0.0338735
-0.0264561
0.0483057
0.0475388
0.00970245
0.0470643
0.0483145
0.0142985
0.0518358
0.0475574
0.0218685
0.0471828
-0.0115609
0.0474236
0.0592345
0.11973
0.00873297
0.0483174
0.00561742
-0.167877
0.0402495
0.0735167
0.0453593
0.0345741
0.0460153
-0.0166444
-0.00518479
0.0446114
0.0475341
0.132098
0.0304187
0.0166261
0.0126805
0.129782
0.0470943
0.00640212
0.0475162
-0.0191705
-0.0045166
-0.00427442
0.0084049
0.155808
-0.0868164
0.00567233
0.0120955
0.0483621
0.05077
0.00129845
0.13636
0.0982371
0.033202
-0.0713513
0.0470116
-0.0614551
0.19648
0.0472724
-0.00738593
-0.0249584
0.0803549
0.00966416
0.00741193
0.0720295
0.0476412
-0.0109799
-0.0629953
0.260091
0.0534468
0.00268759
-0.0301579
0.142759
0.0498234
0.0475071
0.00718874
-0.0520942
0.0413665
0.0692964
0.0478001
0.0470719
0.0572686
0.0530968
0.025635
0.053976
0.0474785
-0.0142196
0.035303
-0.0256659
0.016691
0.0478203
0.0475467
0.143226
0.0529514
0.0796359
0.0609503
-0.046685
0.0806338
0.0468077
-0.0215834
0.0575469
0.0475385
0.0281018
0.0391945
0.0399953
0.0949818
0.0257909
-0.134818
0.0411334
0.0473997
-0.0263965
0.0471571
-0.00512572
0.0310691
-0.0242493
-0.0465497
0.0957995
-0.0301526
0.0478602
-0.00808433
0.0519833
0.0713604
-0.0228207
0.0204182
-0.0226876
-0.0622066
0.172684
-0.0109405
0.0652093
0.0467639
0.0474066
0.0471319
-0.0306666
0.139374
0.0468371
-0.0135889
-0.0189386
0.0155114
0.00266645
0.0279306
0.109119
-0.0288859
0.053415
0.0127627
0.0254611
0.0481586
0.0481807
0.0497022
0.0532604
0.0126031
0.0477278
0.0508522
0.0545527
0.0732254
0.0006073
0.0475019
-0.0178433
0.0474233
0.00516304
0.0155715
0.0501259
0.0428085
0.00189426
-0.0193488
0.0363
0.0780853
0.0529982
0.0268663
0.0322265
0.0475651
0.0520643
0.0525865
0.0502014
0.0476034
0.068727
0.0475874
0.125686
0.0133329
-0.0889077
0.0476459
0.0586487
0.0477692
0.0479985
0.121376
0.0579051
0.0470062
0.313633
0.134276
0.0376607
0.0639654
0.0391525
0.120328
0.0207058
0.00912647
0.0564104
0.0544352
0.0475285
0.0492331
-0.0110978
0.0471487
0.0497672
0.123442
0.050284
0.0520547
0.0283333
0.0476212
-0.0345348
0.0476805
0.0497005
0.00832794
0.00975927
-0.0706872
0.110433
0.0697857
0.0499692
0.00760676
0.0498976
0.0256635
0.00735744
0.0543603
-0.0259557
0.0483839
0.0264284
0.069242
0.0529669
0.1012
0.047629
0.0542751
0.0475093
0.0295003
0.0470322
0.0538359
0.0246432
0.0442888
0.0699101
0.0273875
0.0475661
0.0273226
0.0126868
0.0542153
0.00887663
-0.0126259
0.04753
0.0309599
0.110233
0.00304985
0.0552878
0.0439515
0.044017
0.0254826
0.0559388
0.151544
0.0534397
0.0478869
0.0479066
-0.0215981
-0.00734912
-0.0216911
0.281534
0.100428
0.0510019
0.0263782
0.0112863
0.0482652
-0.058909
0.0524486
0.105038
-0.000346304
0.0497605
0.143774
-0.00698826
-0.0160543
0.023393
0.0295062
0.0481547
0.0470689
0.0612804
0.0475571
0.0475158
0.137055
0.0504377
0.0630784
0.0468344
0.0376382
0.0452415
0.364473
0.0398011
0.042123
-0.00849654
0.103601
0.0947052
0.0343329
0.109152
0.0479009
0.0462584
0.00501034
0.0727383
0.124074
0.0493342
-0.00055658
0.040469
0.0508465
0.0508143
0.0476662
0.0650226
0.0399146
0.0480957
0.0303041
0.257203
0.0482117
0.0121405
0.0319298
0.0474192
0.0619908
0.0505944
0.0276289
0.0477555
0.0475902
0.0157709
0.0295006
0.0907391
0.141567
-0.224051
0.0541405
0.0636194
-0.0387171
0.033133
0.0505167
0.0405262
-0.000845184
0.0476052
0.0516818
0.0475217
0.0302374
0.0653585
0.0192507
0.0475958
0.0599796
0.0341189
0.052895
0.119189
0.0438141
0.047302
0.0475949
0.0296822
0.02316
0.307935
0.059312
0.0819751
0.00608097
0.00496263
0.0473758
0.0999481
0.0475944
0.047563
0.0481656
-0.00129834
0.0533179
0.0350374
0.00720429
0.0203027
0.00656527
0.0302983
0.0646562
0.113755
0.0453988
0.0120777
0.0912013
0.0328269
0.128171
0.0520531
-0.155004
0.142531
0.134505
0.0469524
-0.11006
0.0060133
0.00806049
0.136785
-0.000372246
0.0579649
0.0547332
0.0377445
0.0356435
0.0329161
0.212104
0.0743176
0.0524203
0.0146883
0.0528006
0.0355806
0.0244223
0.0931814
0.0355779
0.0673801
0.0831587
0.00613867
0.0964399
0.0318618
0.0484755
0.0588767
0.047505
0.0452405
0.0460138
0.0528577
0.0195119
-0.0491569
0.0473413
0.165744
0.0466453
0.0397103
0.010581
0.0304092
0.0335986
0.045738
0.00761695
0.0124884
0.251136
0.0475981
0.00937679
0.0363533
0.0139841
0.048178
0.0478142
0.150451
0.0241597
0.0325988
-0.117407
0.0268435
0.039424
0.136048
0.0156908
0.120503
0.0540976
0.0190543
0.0368135
0.0443812
-0.0277199
0.00731754
0.0201552
0.0332766
0.0469715
0.00649201
0.00610546
-0.000883244
0.0387851
0.0370697
0.416391
-0.0371164
0.0466097
-0.0131903
0.0212327
-0.103111
0.0474942
0.0319895
0.03261
0.0474771
0.00409311
0.0282567
0.0519825
1.04403e-05
-0.0226366
-0.00141584
0.0545862
0.0239155
0.0482208
0.0431587
-0.0237352
0.0825287
0.0297188
0.00726762
0.146242
0.0248309
0.0204789
0.0217266
0.00762705
-0.0271532
0.0458013
0.0222006
0.0171633
0.0921718
0.277345
0.0136305
0.0350444
0.0214893
0.047492
0.0927437
0.0315257
0.00942325
0.0472964
0.035509
0.00670505
0.0142462
0.14849
0.0110177
0.0299953
0.029717
0.053057
0.00360977
0.0270503
0.0741093
0.0585257
0.0547256
0.0107838
0.0361177
0.0413656
0.0378586
0.0476979
0.00656822
0.0621652
0.0297687
-0.00409193
-0.0442974
0.0419611
0.0296786
0.0173491
0.0244205
0.0476207
0.0995784
0.0988249
0.0725143
0.0481587
0.227548
0.00721158
0.0533501
0.0897112
0.0470288
0.0563955
0.0328809
0.0266618
0.0548409
-0.10128
0.0490614
0.0584992
0.0421582
-0.0113085
-0.0296291
-0.00040389
0.0622289
0.00967263
0.0481946
0.0296091
0.074362
0.0490893
0.149311
0.0181388
0.0280256
0.0086469
0.0659288
0.0224706
0.0380255
0.0472281
0.04736
0.0468503
0.0626433
0.12366
0.0170375
0.146407
0.0832765
0.0893185
0.0497569
0.0691576
0.00745482
0.0475887
-0.0247782
-0.0192728
0.0509743
0.0475592
0.0389892
0.0454921
0.0473592
0.0642162
0.0343285
0.131523
0.0171449
0.0354935
0.0886381
-0.0106505
0.00594816
0.086499
0.014328
0.0246366
0.0705083
0.0471022
0.06184
0.0285556
0.122098
0.129421
0.219306
0.0474012
0.127195
0.0329961
0.0321426
0.10419
0.107274
0.09992
-0.0241357
0.0215825
0.0673691
0.0220046
0.0388472
0.0459834
0.0908775
0.0468741
0.0178353
-0.0292086
0.0585087
-0.0247818
0.0464837
0.083571
0.0536807
0.0310049
0.102216
0.163356
0.0217906
0.0426399
0.018286
0.0338179
0.0717407
8.49383e-05
0.0820353
-0.0021318
0.0474169
0.0219999
-0.139044
0.0990476
0.0356902
-0.0415544
0.010724
0.0413907
0.0463596
0.104457
0.0928862
0.0340088
0.0572894
0.0493635
0.00623387
0.043042
0.00477126
0.0807936
0.0359122
0.14151
0.047409
0.0440192
0.00745679
0.0371518
0.037573
0.0654303
0.0555619
0.0301953
0.167174
0.107467
0.047221
0.00601614
0.0429026
0.0471511
0.133378
0.0469427
0.0227595
0.0254384
0.0468419
0.0470163
0.0512212
0.00802304
0.0605603
0.0976359
0.0286078
0.130252
0.0326843
0.0336119
0.0373357
0.0783171
0.0476546
0.039263
0.036974
0.0272623
-0.0218071
0.00997948
0.0658585
0.0448773
0.0548174
0.0318862
0.042127
0.0603089
0.0230265
0.106163
0.0324739
0.0471832
0.00903069
0.0866643
0.00785067
0.0473723
0.13512
-0.0227023
0.0443896
0.0979316
0.00631723
0.0520488
0.0961704
0.00391955
0.0890626
0.113898
0.00453104
0.047986
0.0788162
0.0758944
0.0143885
0.0441607
0.0315854
0.0473741
0.0472139
0.047104
0.0147084
0.0182522
0.0210588
0.0821939
-0.0639234
0.168929
-0.064501
0.0281967
0.0431256
-0.0427443
0.050262
-0.0965566
0.0333779
0.0236606
0.0196198
0.0291355
0.0645973
0.0400565
0.032883
0.0530489
0.0473422
0.0775908
-0.0385221
0.0150441
0.00693807
0.0184912
0.0512788
0.0282916
0.0172923
0.0535333
0.024864
0.0380335
0.118652
0.0855909
0.0807614
0.0928986
-0.00187554
-2.78324e-05
0.00639737
0.0237985
-0.00460887
0.0162424
0.0580854
0.0433362
0.130837
0.0736596
0.00754913
0.047744
0.095529
0.126993
0.0735753
0.0791593
0.0559578
0.0179549
0.114127
0.0293897
0.0243389
0.0341826
0.0333537
0.0464338
0.0289017
0.0300737
0.0527793
0.0212751
0.0304921
0.0428701
0.104158
0.0429937
0.041225
0.0753085
0.0549368
0.0467537
0.0498364
0.00266268
0.0170204
0.0483322
0.0716198
-0.0526308
0.00706769
0.0549721
0.0206869
-0.0195317
-0.0407341
-0.00566986
0.0330829
0.0346467
0.0540768
0.0336001
0.0262712
-0.000313537
-0.00129155
0.00370183
0.00103848
0.034735
0.0462679
0.0459649
0.129233
0.0614245
0.0349415
0.0377581
-0.00029574
0.0437607
0.0277908
0.149018
0.0867233
0.011929
0.0530727
0.0176065
0.0469938
0.00903044
0.000855595
0.028338
0.0470875
0.0583583
0.166144
0.0404966
0.0886484
-0.0170982
0.0474834
0.0348317
0.0938045
0.101208
0.0697313
0.0483867
0.043979
0.045114
0.0480982
0.0471365
0.0409327
0.00782661
0.0470719
0.0557212
0.0526208
-0.325916
0.118831
0.0451963
0.0473951
0.0113736
0.018222
0.0241928
0.0764429
0.0188079
0.0464942
0.0410518
0.00534909
0.0480122
0.015369
0.0928862
0.0707853
0.0455616
0.0137046
0.0477477
0.0392513
0.0373698
0.0404142
-0.0028308
0.0591954
0.0350524
0.0335938
0.110748
0.0810879
0.0469829
0.0475392
0.0360321
0.0323496
0.0152194
0.0214814
0.0398068
0.00818625
0.0797562
0.048128
0.0372713
0.00674241
0.0383797
0.0846972
0.0629497
0.050524
0.150508
0.0228973
0.125444
0.139895
0.0283201
-0.0026366
0.000157233
0.125406
0.0388248
0.00710617
0.0739775
0.0361678
0.0236416
0.0895685
0.0716788
0.0499316
0.0031663
0.0319331
0.0289225
0.0404337
0.00714455
0.0493449
0.0799638
0.0491433
0.056963
0.0855742
0.0538522
0.0411019
0.105828
0.00821782
0.091021
0.0293991
0.0718046
0.00925841
0.0611241
0.0128649
0.048816
0.0309713
0.0103229
0.0670052
0.0278097
0.0487679
0.0418426
0.0165929
0.0458706
0.0350804
0.0557954
0.0364372
0.0234325
-0.000879932
0.0951459
0.103986
0.100399
0.0408517
0.0396611
0.0352292
0.0201602
0.0292808
0.0478452
0.0534674
0.0696744
0.0252481
0.0581998
0.00535455
0.0314303
0.056552
0.0333432
0.032601
0.0436946
0.0306134
0.0373747
0.133986
0.259266
0.0234535
0.0268447
0.0291978
0.0330737
0.0371914
0.0359332
0.0337878
0.023817
0.0146735
0.0459677
0.0473791
0.04625
0.0069983
0.0473868
0.030184
0.0414572
0.0313997
0.0590097
0.0340691
0.12271
-0.00681552
0.0469764
0.0354163
0.0905141
0.0413112
0.0603062
0.0894002
0.0524485
0.047255
0.0303318
0.00771431
0.0863565
0.00425748
0.115047
0.083486
0.00425092
0.0624963
0.068038
0.0121912
0.0425354
0.0470463
0.0487908
0.0363645
0.046857
0.0325717
-0.03891
0.0459147
0.0795119
0.042791
0.0616192
0.062343
0.161266
0.0537795
0.0416656
0.00614328
0.0150801
0.0865858
0.0316791
0.0830139
0.0486782
0.0375977
0.0645681
0.0454813
0.0331644
0.0481413
0.0487146
0.0318245
0.0468045
0.0347561
0.0612281
0.0806282
0.0161281
0.0465453
0.00764284
0.00199349
0.0672714
0.0603927
0.0498173
0.0677651
0.131865
0.0473661
0.0404025
0.0458617
0.0600444
0.0383608
0.035486
0.0386859
0.0734309
0.0829998
0.0327411
0.0788462
0.0898666
0.0594677
0.10812
0.0571501
0.0780153
0.0293265
0.0420348
0.0225371
0.0482277
0.0640836
0.0490695
0.0828335
0.00248572
0.0543359
-0.0122982
0.043078
0.0274553
0.117339
0.00853347
0.0460524
0.047012
0.00573873
0.107137
0.0277715
0.0300834
0.0175788
0.0444641
0.0816584
0.0374328
0.045573
0.0360596
0.00944955
0.0415131
0.0399764
0.390342
0.0385737
0.0491101
0.0583956
0.063994
0.0423784
0.0320538
0.0473908
0.101836
0.0429557
0.047373
0.0148316
0.0367265
0.0294401
0.0409046
0.0624136
0.0410532
0.0439392
0.0433111
0.0340455
0.0796182
0.0474149
0.0385416
0.0572198
0.0450396
0.0390269
0.0538887
0.0542707
0.0588439
0.0592958
0.0474882
0.0425954
0.0498689
0.0296503
-0.00160135
-0.00075374
0.145678
0.0740981
-0.00917884
0.0310744
0.0468681
0.0503331
0.0576083
0.0734602
0.0478202
0.0284029
0.0755505
0.0564268
0.0267771
-0.00971069
0.0222659
0.0467348
0.0372052
0.0472514
0.0936164
0.232159
0.0387618
0.0565275
0.0430451
0.00733435
0.0470184
0.0719501
0.0282438
0.0443997
0.0479866
0.0336144
0.0965291
0.0386874
0.0558469
0.0265256
0.041756
0.0428413
0.0873001
0.0602333
0.0396674
0.0496962
0.0384371
0.0534651
0.037762
0.0477419
0.0392901
0.0470629
0.053529
0.0120217
0.0679388
0.0182609
0.0733747
0.0732962
0.0518327
0.0382405
0.0354074
0.076677
0.0917379
0.0112795
0.0408737
0.0567724
0.0574001
0.0398636
0.0457896
0.0431237
0.0373434
0.02866
0.0287245
0.0430414
0.0155877
0.0386808
0.0786212
0.0403955
0.042446
0.0396074
0.0245691
0.0834691
0.0529403
-0.000671164
0.0384898
0.0401863
0.0119355
0.0505072
0.00101823
0.049885
0.0407054
0.045954
0.0456164
0.0483989
0.0417571
0.00579225
0.0473865
0.0218732
0.0714847
0.050024
0.0572385
0.0334322
0.0957756
0.0598994
0.0478416
0.034973
-0.0660696
0.047542
0.00652427
-0.0801179
0.0650966
0.0848976
0.0514759
0.0408511
0.0303474
0.070991
0.0579001
0.0476578
0.0918452
0.0118507
0.0813404
0.0474271
0.0467624
0.0427288
0.0434226
0.0439707
0.0653572
0.0762123
0.0454743
-0.00143502
0.0442311
0.0519475
0.0412629
0.0328249
0.00055362
0.046822
0.0408461
0.0246023
0.0405358
0.0456355
0.0500091
0.127251
0.0732242
0.0479204
0.0620005
0.0523988
0.0408647
0.0752619
0.0588094
0.0432256
0.0621391
0.0364876
0.0619093
0.084514
0.00303276
0.0244119
0.0480228
0.0695236
0.0458839
0.0501409
0.0489527
0.0416362
0.00185305
0.000445755
0.0578756
0.0324677
0.035517
0.0284503
0.0465117
0.0459506
0.0479282
0.0709922
0.0348712
0.0474625
0.040763
0.0531958
0.0242472
0.0106678
0.0474998
0.0469437
0.0361453
0.0471622
0.045878
0.0420217
0.0441074
0.039154
0.065281
0.0609948
0.0345119
0.0451749
0.0516367
0.0579739
0.0408359
0.0474027
0.0423041
0.0313372
0.00144793
0.00612654
0.0354354
0.122964
0.0412879
-0.059152
0.0882042
0.0406997
0.0395952
0.0523773
0.0473179
0.0475042
0.0537543
0.055888
0.0405682
0.0492613
0.0465573
0.096145
0.00604338
0.0339159
0.0476537
0.0537072
0.0618737
0.0696113
0.0328918
0.0499424
0.0473231
0.0456593
0.0417595
0.0295687
0.0272738
0.00609542
0.0609805
0.0456488
0.0383719
0.0552053
0.0522455
0.0515097
0.0443946
0.057084
0.0474885
0.0162062
-0.00238072
0.046577
0.0655938
0.0403064
0.043563
0.0450983
0.0488975
-0.0480366
0.0625897
3.88609e-05
0.0425155
0.010283
0.0509341
0.0699924
0.127663
0.0540619
0.0476976
0.0309968
0.023848
0.110888
0.0401906
0.0659228
0.0439095
0.0469818
0.0645954
0.0447387
0.121772
0.000263491
0.0784183
0.0509884
0.0464272
0.0474539
0.0460485
-0.0253531
0.0380931
0.0468713
0.0548306
0.0455064
0.046955
0.0467578
0.0114502
0.00390467
0.0530233
0.0463095
0.0813322
0.0545794
0.101086
0.380752
0.0235843
0.0427883
0.0738799
0.0472473
-0.0518515