/*--------------------------------*- C++ -*----------------------------------*\
  =========                 |
  \\      /  F ield         | OpenFOAM: The Open Source CFD Toolbox
   \\    /   O peration     | Website:  https://openfoam.org
    \\  /    A nd           | Version:  7
     \\/     M anipulation  |
\*---------------------------------------------------------------------------*/
FoamFile
{
    version     2.0;
    format      ascii;
    class       volScalarField;
    location    "0.5";
    object      p;
}
// * * * * * * * * * * * * * * * * * * * * * * * * * * * * * * * * * * * * * //

dimensions      [1 -1 -2 0 0 0 0];

internalField   nonuniform List<scalar> 
1008
(
1
1
1
1
1
1
1
1
1
1
1
1
1
1
1
6.17772
11.6121
11.7067
11.7921
11.9629
12.1153
12.3161
12.4514
12.5216
1
1
1
1
1
1
1
1
1
1
1
1
1
1
1
5.97221
11.5138
11.6751
11.7695
11.933
12.0694
12.2517
12.3801
12.4514
1
1
1
1
1
1
1
1
1
1
1
1
1
1
1
5.54998
11.387
11.6169
11.7172
11.8686
11.9909
12.1569
12.2833
12.3596
1
1
1
1
1
1
1
1
1
1
1
1
1
1
1
4.92517
11.1486
11.514
11.629
11.7746
11.8853
12.0402
12.1559
12.2239
1
1
1
1
1
1
1
1
1
1
1
1
1
1
1
4.14792
10.7515
11.3899
11.5177
11.6192
11.7077
11.8529
11.9639
12.0401
1
1
1
1
1
1
1
1
1
1
1
1
1
1
1
3.25415
10.152
11.2138
11.3323
11.4221
11.5085
11.637
11.7211
11.6708
1
1
1
1
1
1
1
1
1
1
1
1
1
1
1
2.19147
9.23569
11.0865
11.1758
11.2079
11.2286
11.233
11.21
11.1488
1
1
1
1
1
1
1
1
1
1
1
1
1
1
1
1.28007
7.82546
10.8741
10.9563
10.9094
10.8633
10.827
10.722
10.7522
1
1
1
1
1
1
1
1
1
1
1
1
1
1
1
1.00791
5.85475
10.4407
10.7265
10.6672
10.5589
10.276
9.49193
7.41899
1
1
1
1
1
1
1
1
1
1
1
1
1
1
1
1.00002
3.55928
9.60068
10.5075
10.3485
10.1098
9.54534
8.57341
6.53249
1
1
1
1
1
1
1
1
1
1
1
1
1
1
1
1
1.6104
8.18199
10.2462
9.96509
9.61921
8.93763
7.93887
6.16734
1
1
1
1
1
1
1
1
1
1
1
1
1
1
1
1
1.02767
5.61033
9.70947
9.65077
9.2863
8.63169
7.57792
6.09206
1
1
1
1
1
1
1
1
1
1
1
1
1
1
1
1
1.00008
2.57465
8.64569
9.43764
8.96103
8.29287
7.32985
6.12705
1
1
1
1
1
1
1
1
1
1
1
1
1
1
1
1
1
1.1449
6.22972
8.99902
8.63455
8.03545
7.20749
6.19559
1
1
1
1
1
1
1
1
1
1
1
1
1
1
1
1
1
1.00158
2.75919
8.09084
8.55725
7.91442
7.14834
6.2492
1
1
1
1
1
1
1
1
1
1
1
1
1
1
1
1
1
1
1.16929
5.56587
8.22593
7.71965
7.04654
6.28451
1
1
1
1
1
1
1
1
1
1
1
1
1
1
1
1
1
1
1.00208
2.16821
6.99248
7.773
7.08756
6.40904
1
1
1
1
1
1
1
1
1
1
1
1
1
1
1
1
1
1
1
1.08054
3.84834
7.17674
7.08866
6.43562
1
1
1
1
1
1
1
1
1
1
1
1
1
1
1
1
1
1
1
1.00079
1.46081
5.07905
6.96946
6.54063
1
1
1
1
1
1
1
1
1
1
1
1
1
1
1
1
1
1
1
1
1.0144
2.10412
5.64864
6.52744
1
1
1
1
1
1
1
1
1
1
1
1
1
1
1
1
1
1
1
1
1.00007
1.07319
2.75448
5.66538
1
1
1
1
1
1
1
1
1
1
1
1
1
1
1
1
1
1
1
1
1
1.0008
1.18989
3.09547
1
1
1
1
1
1
1
1
1
1
1
1
1
1
1
1
1
1
1.64666
0.500522
0.243856
0.167063
0.169934
0.241476
0.363545
0.457828
0.582373
0.752629
0.905763
0.961903
0.957171
0.948265
0.955619
0.977599
0.991119
1.01127
1.02708
1.02896
1.01014
0.964978
0.906993
0.871823
0.85876
0.85392
0.864196
0.886124
0.889566
0.883844
0.863505
0.829207
0.813214
2.85389
1.48618
1.06102
0.77742
0.552791
0.517742
0.521555
0.496064
0.491173
0.534528
0.618782
0.696886
0.743453
0.797909
0.850503
0.887555
0.942408
0.985438
0.995446
0.998783
0.983323
0.959878
0.926861
0.895414
0.878952
0.86937
0.865013
0.86891
0.867202
0.864407
0.853541
0.838462
0.83302
3.78698
2.41928
1.71777
1.30616
1.00825
0.82234
0.735669
0.638043
0.525462
0.517988
0.550437
0.605625
0.653273
0.7078
0.773545
0.814097
0.869393
0.937221
0.975035
0.994838
0.99155
0.965535
0.937586
0.909855
0.892719
0.882575
0.874811
0.864414
0.852938
0.838728
0.828624
0.82892
0.833874
4.36589
3.18455
2.42116
1.87048
1.43551
1.17942
1.0558
0.940597
0.780641
0.688837
0.681243
0.651448
0.620208
0.627729
0.661489
0.699939
0.75284
0.819
0.870646
0.914469
0.951231
0.96177
0.958768
0.942867
0.922498
0.902361
0.885816
0.868707
0.846994
0.827521
0.822098
0.821966
0.827176
4.81947
3.7472
2.95635
2.4088
1.9559
1.59315
1.36272
1.17649
1.00552
0.891461
0.844472
0.778069
0.688394
0.639955
0.64893
0.664639
0.669982
0.692691
0.74744
0.812394
0.866514
0.893381
0.915984
0.936647
0.935736
0.926212
0.906491
0.876833
0.842317
0.824775
0.819907
0.822412
0.833761
5.10895
4.18546
3.44371
2.85169
2.3497
1.97228
1.71871
1.5187
1.275
1.097
1.02679
0.951362
0.853344
0.773352
0.759486
0.729491
0.685705
0.678824
0.687142
0.711219
0.750784
0.802143
0.851406
0.888803
0.89444
0.89067
0.87822
0.864564
0.853555
0.842825
0.841596
0.854613
0.865717
5.33872
4.50718
3.80287
3.25358
2.77577
2.33368
2.00332
1.77951
1.55653
1.36146
1.24114
1.13185
0.995514
0.891313
0.857816
0.810999
0.74696
0.691966
0.688153
0.696416
0.711878
0.731128
0.765469
0.810189
0.838703
0.839638
0.833431
0.829208
0.828206
0.834478
0.847829
0.872258
0.885125
5.49673
4.75271
4.11192
3.5754
3.09493
2.66131
2.33496
2.06596
1.78027
1.56761
1.45116
1.34133
1.20159
1.05729
0.998134
0.939405
0.864908
0.784681
0.775131
0.768764
0.744671
0.731223
0.731132
0.742248
0.755945
0.760683
0.762421
0.771008
0.789332
0.810754
0.829842
0.850758
0.865079
5.68354
4.98501
4.34764
3.82915
3.39111
2.95776
2.56438
2.28121
2.03372
1.80483
1.66044
1.53771
1.38129
1.23459
1.16045
1.09299
0.997378
0.885559
0.857783
0.836538
0.792565
0.744803
0.733317
0.735221
0.73067
0.726331
0.735516
0.751066
0.771484
0.790325
0.801905
0.812954
0.824619
5.80451
5.18763
4.61807
4.1064
3.62966
3.22326
2.88064
2.5621
2.21253
1.96016
1.84369
1.74319
1.59764
1.42538
1.31781
1.22985
1.13127
1.01926
0.976016
0.94181
0.890308
0.824018
0.787989
0.782162
0.761879
0.735466
0.727094
0.7328
0.746859
0.756989
0.761995
0.767561
0.778089
5.90057
5.29701
4.76237
4.31902
3.88688
3.44593
3.11084
2.83039
2.50699
2.2068
1.99689
1.87758
1.74593
1.60973
1.50011
1.39815
1.25792
1.12685
1.08985
1.05347
0.998283
0.928972
0.866212
0.838217
0.80124
0.754832
0.738759
0.735551
0.741588
0.749056
0.753739
0.760005
0.772034
6.11029
5.47364
4.92254
4.46114
4.04692
3.65968
3.32984
3.03821
2.75037
2.43225
2.20345
2.05678
1.90008
1.75093
1.64734
1.54871
1.41354
1.26611
1.20838
1.15985
1.09572
1.02308
0.966938
0.933918
0.889978
0.830633
0.79668
0.787136
0.787237
0.78395
0.773942
0.769224
0.770683
6.12889
5.74972
5.1544
4.627
4.20822
3.86223
3.50262
3.20484
2.97131
2.70304
2.41797
2.21278
2.04598
1.91018
1.79989
1.68981
1.53671
1.40708
1.35246
1.28653
1.21102
1.11738
1.04592
1.01669
0.976131
0.917322
0.867833
0.849645
0.844335
0.834534
0.809978
0.793387
0.783008
5.45384
5.79056
5.48528
4.91489
4.36695
4.02272
3.71544
3.40499
3.11667
2.88415
2.66487
2.44131
2.19678
2.01785
1.93626
1.84863
1.68549
1.53713
1.47553
1.40889
1.33037
1.22428
1.15001
1.119
1.07461
1.00655
0.946398
0.925305
0.923558
0.91806
0.890108
0.858023
0.830092
)
;

boundaryField
{
    inlet
    {
        type            fixedValue;
        value           uniform 1;
    }
    outlet
    {
        type            zeroGradient;
    }
    bottom
    {
        type            symmetryPlane;
    }
    top
    {
        type            symmetryPlane;
    }
    obstacle
    {
        type            zeroGradient;
    }
    defaultFaces
    {
        type            empty;
    }
    procBoundary0to1
    {
        type            processor;
        value           nonuniform List<scalar> 
14
(
0.810625
0.8323
0.840293
0.839445
0.846305
0.865354
0.881139
0.866197
0.831119
0.79448
0.784482
0.770561
0.767828
0.803858
)
;
    }
    procBoundary0to2
    {
        type            processor;
        value           nonuniform List<scalar> 
58
(
1
1
1
1
1.00366
1.29124
1
1
1
1
1
1
1
1
1
1
1
1
1
1
1
1
1
1
1
3.14356
5.19625
5.47653
5.25531
4.70705
4.22333
3.86824
3.59198
3.33098
3.06272
2.83481
2.65146
2.42021
2.15674
2.05017
1.99
1.85989
1.68854
1.59934
1.52976
1.44169
1.3156
1.24758
1.22731
1.18845
1.11539
1.03934
1.01117
1.0065
0.999581
0.965065
0.918777
0.879326
)
;
    }
}


// ************************************************************************* //
