/*--------------------------------*- C++ -*----------------------------------*\
  =========                 |
  \\      /  F ield         | OpenFOAM: The Open Source CFD Toolbox
   \\    /   O peration     | Website:  https://openfoam.org
    \\  /    A nd           | Version:  7
     \\/     M anipulation  |
\*---------------------------------------------------------------------------*/
FoamFile
{
    version     2.0;
    format      ascii;
    class       volScalarField;
    location    "38.5";
    object      p;
}
// * * * * * * * * * * * * * * * * * * * * * * * * * * * * * * * * * * * * * //

dimensions      [0 2 -2 0 0 0 0];

internalField   nonuniform List<scalar> 
34000
(
-0.222457
-0.225178
-0.232819
-0.231321
-0.233394
-0.230265
-0.228058
-0.223167
-0.217706
-0.210631
-0.201794
-0.191905
-0.179337
-0.165701
-0.150319
-0.131636
-0.116277
-0.0947652
-0.0789608
-0.0610685
-0.222554
-0.225206
-0.232865
-0.231347
-0.233429
-0.230316
-0.228145
-0.223302
-0.217889
-0.210854
-0.202007
-0.192086
-0.179415
-0.165684
-0.150244
-0.131495
-0.116304
-0.0948384
-0.0793185
-0.0614887
-0.222752
-0.225267
-0.232966
-0.23141
-0.233506
-0.230408
-0.228275
-0.223487
-0.218129
-0.211152
-0.202302
-0.192384
-0.179623
-0.165835
-0.150381
-0.131535
-0.116625
-0.0951193
-0.0799052
-0.0621722
-0.22305
-0.225362
-0.233121
-0.231507
-0.233622
-0.230537
-0.228446
-0.223717
-0.218419
-0.211512
-0.202664
-0.192774
-0.179936
-0.166122
-0.150686
-0.131729
-0.117142
-0.0956355
-0.0806072
-0.0630784
-0.223447
-0.225488
-0.233327
-0.231637
-0.233773
-0.230699
-0.228652
-0.223984
-0.218749
-0.211919
-0.203076
-0.193229
-0.180319
-0.166498
-0.151096
-0.132091
-0.117698
-0.09632
-0.0813529
-0.0641555
-0.223941
-0.225643
-0.233581
-0.231796
-0.233956
-0.230889
-0.228886
-0.224279
-0.219107
-0.212354
-0.203513
-0.193713
-0.180733
-0.166909
-0.151532
-0.13253
-0.118249
-0.0971242
-0.0820487
-0.0653152
-0.224528
-0.225824
-0.233878
-0.231979
-0.234164
-0.2311
-0.22914
-0.224591
-0.219477
-0.212794
-0.203952
-0.194182
-0.181145
-0.167278
-0.151966
-0.132958
-0.118688
-0.0979991
-0.0826552
-0.066444
-0.225206
-0.226029
-0.234213
-0.232182
-0.234391
-0.231325
-0.229404
-0.224907
-0.219845
-0.213217
-0.204366
-0.194587
-0.181517
-0.167539
-0.152329
-0.133324
-0.118934
-0.0988601
-0.0831786
-0.0674509
-0.225971
-0.226254
-0.234582
-0.2324
-0.234632
-0.231557
-0.229671
-0.225216
-0.220194
-0.213598
-0.204727
-0.194889
-0.181803
-0.167631
-0.152544
-0.133577
-0.118947
-0.0996033
-0.0836378
-0.0682992
-0.22682
-0.226495
-0.234978
-0.232627
-0.234879
-0.231787
-0.229928
-0.225502
-0.220505
-0.213908
-0.205001
-0.195041
-0.181955
-0.167509
-0.152537
-0.13367
-0.118721
-0.100141
-0.0840365
-0.069001
-0.22775
-0.226749
-0.235394
-0.232856
-0.235125
-0.232007
-0.230166
-0.225752
-0.22076
-0.214122
-0.205153
-0.194998
-0.181919
-0.167143
-0.152244
-0.13356
-0.118274
-0.100425
-0.0843598
-0.0695899
-0.228754
-0.227011
-0.235825
-0.233081
-0.235361
-0.232206
-0.230374
-0.22595
-0.220934
-0.21421
-0.205146
-0.194719
-0.181637
-0.166516
-0.151625
-0.133217
-0.117637
-0.100455
-0.0845881
-0.0700956
-0.229831
-0.227277
-0.236262
-0.233297
-0.235581
-0.232374
-0.23054
-0.22608
-0.221006
-0.214141
-0.204941
-0.19417
-0.181055
-0.16562
-0.150676
-0.132624
-0.116846
-0.10026
-0.0847095
-0.0705331
-0.230974
-0.227543
-0.2367
-0.233497
-0.235777
-0.23251
-0.230646
-0.226124
-0.220948
-0.213881
-0.204499
-0.193327
-0.18014
-0.164455
-0.149424
-0.131784
-0.115935
-0.0998852
-0.0847246
-0.0709059
-0.232181
-0.227806
-0.23713
-0.233673
-0.235941
-0.232596
-0.230684
-0.226062
-0.220734
-0.213399
-0.203783
-0.192178
-0.178878
-0.163031
-0.147917
-0.130721
-0.114936
-0.0993746
-0.0846429
-0.071212
-0.233447
-0.228062
-0.237545
-0.233818
-0.236064
-0.232627
-0.230639
-0.225874
-0.220334
-0.212666
-0.202765
-0.190722
-0.177284
-0.16137
-0.146214
-0.12947
-0.113872
-0.0987664
-0.0844779
-0.0714493
-0.234769
-0.228306
-0.237939
-0.233921
-0.236148
-0.23259
-0.230495
-0.225535
-0.219721
-0.211661
-0.201432
-0.188974
-0.175393
-0.159504
-0.144371
-0.128073
-0.112762
-0.0980886
-0.0842433
-0.0716176
-0.236142
-0.228537
-0.238305
-0.234008
-0.236159
-0.232474
-0.230232
-0.225023
-0.218872
-0.210369
-0.199785
-0.186961
-0.173252
-0.157471
-0.142435
-0.12657
-0.111619
-0.0973603
-0.0839505
-0.071719
-0.237564
-0.228752
-0.23864
-0.234038
-0.236112
-0.232267
-0.229832
-0.224315
-0.217767
-0.208791
-0.197841
-0.184717
-0.170916
-0.15531
-0.140445
-0.124996
-0.110453
-0.0965935
-0.0836087
-0.0717571
-0.239032
-0.228949
-0.238939
-0.234009
-0.235995
-0.231958
-0.229278
-0.223393
-0.216398
-0.206934
-0.19563
-0.182283
-0.168437
-0.15306
-0.138426
-0.123379
-0.109271
-0.0957952
-0.0832248
-0.0717359
-0.240543
-0.229127
-0.239172
-0.233941
-0.235795
-0.231532
-0.228551
-0.222244
-0.214764
-0.204821
-0.193191
-0.179701
-0.165861
-0.150753
-0.136397
-0.121737
-0.108076
-0.0949695
-0.0828039
-0.0716596
-0.242096
-0.229286
-0.239361
-0.233808
-0.235499
-0.230978
-0.227638
-0.220858
-0.212874
-0.202479
-0.190567
-0.177012
-0.163226
-0.148417
-0.13437
-0.120087
-0.106873
-0.0941184
-0.08235
-0.0715317
-0.24369
-0.229424
-0.239501
-0.233608
-0.235097
-0.230283
-0.226531
-0.219236
-0.210746
-0.199942
-0.1878
-0.174248
-0.160561
-0.146071
-0.132351
-0.118437
-0.105663
-0.0932433
-0.0818662
-0.0713551
-0.245323
-0.229542
-0.239582
-0.233337
-0.234578
-0.229439
-0.225223
-0.217384
-0.208406
-0.197244
-0.18493
-0.171441
-0.15789
-0.143733
-0.130344
-0.116793
-0.104446
-0.0923452
-0.081355
-0.0711322
-0.246995
-0.229658
-0.239589
-0.232992
-0.233934
-0.228435
-0.223715
-0.215313
-0.205883
-0.194421
-0.181992
-0.168613
-0.155226
-0.141411
-0.128351
-0.11516
-0.103223
-0.0914248
-0.0808184
-0.0708647
-0.248707
-0.229765
-0.239519
-0.232568
-0.233158
-0.227267
-0.222011
-0.213043
-0.203206
-0.191504
-0.179012
-0.165781
-0.152581
-0.139112
-0.126373
-0.113539
-0.101991
-0.0904833
-0.0802576
-0.070554
-0.25046
-0.229862
-0.239373
-0.232067
-0.23225
-0.225927
-0.220121
-0.210594
-0.200407
-0.18852
-0.176014
-0.162959
-0.149963
-0.13684
-0.124409
-0.111931
-0.100749
-0.0895221
-0.0796735
-0.0702007
-0.252253
-0.229954
-0.239139
-0.231492
-0.23121
-0.224412
-0.218056
-0.207992
-0.197513
-0.185493
-0.173016
-0.160156
-0.147375
-0.134597
-0.122459
-0.110338
-0.0994962
-0.0885428
-0.0790661
-0.0698052
-0.254088
-0.230045
-0.23881
-0.230851
-0.230041
-0.222721
-0.215834
-0.205261
-0.194549
-0.182442
-0.17003
-0.157378
-0.144821
-0.132382
-0.120523
-0.108758
-0.0982295
-0.0875474
-0.0784348
-0.0693675
-0.255966
-0.230134
-0.23838
-0.230153
-0.228744
-0.220858
-0.213472
-0.202425
-0.191537
-0.179382
-0.167064
-0.154628
-0.142301
-0.130194
-0.1186
-0.10719
-0.0969472
-0.0865379
-0.0777779
-0.068887
-0.257886
-0.230217
-0.237849
-0.229406
-0.227323
-0.21883
-0.210989
-0.199505
-0.188495
-0.176325
-0.164127
-0.15191
-0.139817
-0.12803
-0.116691
-0.105634
-0.095648
-0.0855165
-0.0770929
-0.0683632
-0.259847
-0.230284
-0.237225
-0.228612
-0.225781
-0.216647
-0.208404
-0.196523
-0.185436
-0.17328
-0.161221
-0.149223
-0.137367
-0.12589
-0.114797
-0.104086
-0.0943308
-0.0844854
-0.0763764
-0.0677958
-0.261846
-0.230317
-0.236524
-0.227763
-0.224123
-0.214323
-0.205733
-0.193494
-0.182372
-0.170252
-0.158348
-0.146567
-0.134952
-0.12377
-0.112917
-0.102545
-0.0929951
-0.0834466
-0.0756241
-0.067185
-0.263878
-0.230296
-0.235767
-0.226846
-0.222355
-0.211873
-0.202993
-0.190433
-0.179313
-0.167247
-0.15551
-0.143943
-0.132568
-0.121669
-0.111052
-0.101007
-0.0916413
-0.0824018
-0.0748314
-0.0665305
-0.265925
-0.230204
-0.234977
-0.22584
-0.220487
-0.209312
-0.200197
-0.187353
-0.176265
-0.164267
-0.152707
-0.141349
-0.130216
-0.119585
-0.109202
-0.0994693
-0.0902703
-0.0813516
-0.0739909
-0.065831
-0.267943
-0.230049
-0.234173
-0.224728
-0.218526
-0.206654
-0.197357
-0.184262
-0.173233
-0.161315
-0.149938
-0.138785
-0.127892
-0.117515
-0.107369
-0.0979287
-0.0888849
-0.0802948
-0.0730884
-0.0650835
-0.269933
-0.229809
-0.233364
-0.223498
-0.216481
-0.203914
-0.194485
-0.181168
-0.170219
-0.15839
-0.147202
-0.136249
-0.125595
-0.115461
-0.10555
-0.0963828
-0.0874903
-0.0792269
-0.0721001
-0.0642865
-0.271851
-0.229496
-0.232544
-0.222143
-0.21436
-0.201104
-0.191589
-0.178078
-0.167228
-0.155494
-0.144497
-0.133741
-0.123323
-0.11342
-0.103747
-0.0948303
-0.0860941
-0.0781403
-0.070999
-0.0634472
-0.273644
-0.229143
-0.23169
-0.220665
-0.21217
-0.198237
-0.188675
-0.174996
-0.164259
-0.152626
-0.141822
-0.131258
-0.121074
-0.111392
-0.101957
-0.0932713
-0.0847042
-0.0770265
-0.0697822
-0.0625844
-0.275256
-0.228796
-0.230771
-0.219069
-0.209917
-0.195322
-0.18575
-0.171925
-0.161313
-0.149785
-0.139175
-0.1288
-0.118846
-0.109378
-0.100179
-0.0917073
-0.0833255
-0.0758814
-0.0685099
-0.0617154
-0.276631
-0.228518
-0.229747
-0.217362
-0.207608
-0.192368
-0.182819
-0.168867
-0.158391
-0.14697
-0.136555
-0.126365
-0.116637
-0.107376
-0.0984109
-0.0901406
-0.0819574
-0.0747084
-0.0673069
-0.0608064
-0.277717
-0.228386
-0.228584
-0.215554
-0.205249
-0.189383
-0.179886
-0.165825
-0.155492
-0.14418
-0.133959
-0.123953
-0.114446
-0.105387
-0.0966511
-0.0885735
-0.0805956
-0.0735174
-0.0662134
-0.0598721
-0.278472
-0.228482
-0.227258
-0.21365
-0.202845
-0.186373
-0.176952
-0.162798
-0.152616
-0.141415
-0.131386
-0.12156
-0.11227
-0.103409
-0.0948983
-0.0870071
-0.0792363
-0.0723246
-0.0651705
-0.0589559
-0.278863
-0.228891
-0.22576
-0.211658
-0.200402
-0.183344
-0.174021
-0.159787
-0.14976
-0.138671
-0.128835
-0.119187
-0.11011
-0.101442
-0.0931516
-0.0854421
-0.0778786
-0.0711294
-0.0641552
-0.0581153
-0.278874
-0.229689
-0.2241
-0.20958
-0.197925
-0.1803
-0.171094
-0.156792
-0.146925
-0.135949
-0.126305
-0.116832
-0.107962
-0.099486
-0.0914101
-0.0838789
-0.0765207
-0.0699347
-0.0631513
-0.0572988
-0.278496
-0.230931
-0.222303
-0.207419
-0.195418
-0.177243
-0.168171
-0.153812
-0.14411
-0.133247
-0.123792
-0.114493
-0.105828
-0.0975394
-0.0896733
-0.0823173
-0.0751625
-0.068738
-0.0621477
-0.0564989
-0.277731
-0.232645
-0.220404
-0.205176
-0.192886
-0.174178
-0.165252
-0.150848
-0.141312
-0.130562
-0.121297
-0.112169
-0.103704
-0.0956017
-0.0879405
-0.0807574
-0.073803
-0.0675385
-0.061142
-0.055689
-0.276586
-0.234818
-0.218443
-0.202852
-0.190332
-0.171105
-0.162339
-0.147897
-0.13853
-0.127895
-0.118818
-0.109859
-0.101591
-0.0936721
-0.0862111
-0.0791987
-0.072442
-0.0663348
-0.0601291
-0.0548661
-0.275069
-0.237397
-0.216458
-0.200445
-0.187758
-0.168026
-0.15943
-0.144959
-0.135764
-0.125243
-0.116354
-0.107562
-0.0994883
-0.09175
-0.0844845
-0.0776411
-0.0710787
-0.0651259
-0.0591089
-0.0540234
-0.273189
-0.240281
-0.214487
-0.197954
-0.185166
-0.164942
-0.156526
-0.142033
-0.133011
-0.122605
-0.113902
-0.105277
-0.0973938
-0.0898344
-0.0827604
-0.0760843
-0.0697127
-0.0639113
-0.0580792
-0.0531617
-0.270958
-0.243327
-0.212555
-0.195374
-0.182557
-0.161854
-0.153624
-0.139117
-0.130271
-0.119979
-0.111463
-0.103002
-0.0953074
-0.0879249
-0.0810381
-0.0745278
-0.0683433
-0.0626902
-0.0570401
-0.0522805
-0.268388
-0.246355
-0.210682
-0.192705
-0.179932
-0.158761
-0.150725
-0.136211
-0.127542
-0.117366
-0.109036
-0.100737
-0.0932281
-0.0860205
-0.0793174
-0.0729714
-0.0669702
-0.0614625
-0.0559908
-0.0513809
-0.265502
-0.249162
-0.208876
-0.189942
-0.17729
-0.155664
-0.147828
-0.133313
-0.124822
-0.114763
-0.106618
-0.0984804
-0.0911554
-0.0841207
-0.0775977
-0.0714148
-0.0655928
-0.0602279
-0.0549315
-0.0504636
-0.262332
-0.251537
-0.207137
-0.187084
-0.174629
-0.152562
-0.144931
-0.130422
-0.122111
-0.112169
-0.104209
-0.0962315
-0.0890885
-0.0822249
-0.0758788
-0.0698576
-0.0642109
-0.0589863
-0.053862
-0.0495295
-0.258927
-0.253284
-0.20546
-0.184131
-0.171949
-0.149455
-0.142033
-0.127537
-0.119408
-0.109583
-0.101808
-0.0939895
-0.0870268
-0.0803325
-0.0741602
-0.0682995
-0.0628242
-0.0577378
-0.0527826
-0.0485792
-0.255357
-0.254233
-0.203832
-0.181083
-0.169248
-0.146341
-0.139133
-0.124657
-0.11671
-0.107005
-0.0994143
-0.0917534
-0.0849696
-0.0784428
-0.0724417
-0.0667402
-0.0614324
-0.0564823
-0.0516933
-0.0476136
-0.25171
-0.254266
-0.202237
-0.177941
-0.166523
-0.143222
-0.13623
-0.121779
-0.114017
-0.104432
-0.0970266
-0.0895227
-0.0829164
-0.0765554
-0.070723
-0.0651794
-0.0600353
-0.0552201
-0.0505942
-0.0466333
-0.248094
-0.253323
-0.200659
-0.17471
-0.163774
-0.140094
-0.133323
-0.118904
-0.111328
-0.101865
-0.0946443
-0.0872965
-0.0808666
-0.0746698
-0.0690038
-0.0636169
-0.0586328
-0.0539512
-0.0494856
-0.0456388
-0.244627
-0.251407
-0.199082
-0.171395
-0.160998
-0.136959
-0.13041
-0.116031
-0.108642
-0.0993024
-0.0922665
-0.0850742
-0.0788197
-0.0727855
-0.0672839
-0.0620523
-0.0572249
-0.0526759
-0.0483675
-0.0446308
-0.241436
-0.24858
-0.197492
-0.168003
-0.158194
-0.133815
-0.12749
-0.113157
-0.105958
-0.0967432
-0.0898923
-0.0828552
-0.0767752
-0.0709022
-0.0655631
-0.0604855
-0.0558115
-0.0513942
-0.0472402
-0.0436098
-0.238641
-0.244951
-0.195879
-0.16454
-0.15536
-0.130661
-0.124564
-0.110282
-0.103274
-0.0941866
-0.0875212
-0.0806388
-0.0747326
-0.0690194
-0.0638412
-0.0589162
-0.0543925
-0.0501064
-0.0461038
-0.0425763
-0.236352
-0.24066
-0.194232
-0.161014
-0.152496
-0.127496
-0.121628
-0.107406
-0.10059
-0.091632
-0.0851524
-0.0784246
-0.0726914
-0.0671368
-0.062118
-0.0573443
-0.0529681
-0.0488127
-0.0449583
-0.0415308
-0.234659
-0.23586
-0.192547
-0.157433
-0.1496
-0.12432
-0.118683
-0.104527
-0.0979054
-0.0890785
-0.0827852
-0.076212
-0.0706514
-0.0652541
-0.0603934
-0.0557696
-0.0515384
-0.0475133
-0.0438041
-0.0404739
-0.233627
-0.230702
-0.19082
-0.153804
-0.146671
-0.121132
-0.115727
-0.101644
-0.0952186
-0.0865255
-0.0804191
-0.0740006
-0.068612
-0.0633711
-0.0586672
-0.054192
-0.0501034
-0.0462082
-0.0426411
-0.0394061
-0.233297
-0.225322
-0.189046
-0.150135
-0.143709
-0.117931
-0.112759
-0.0987562
-0.0925293
-0.0839724
-0.0780535
-0.0717899
-0.066573
-0.0614874
-0.0569393
-0.0526115
-0.0486633
-0.0448978
-0.0414696
-0.0383278
-0.233685
-0.219835
-0.187224
-0.14643
-0.140712
-0.114716
-0.10978
-0.0958632
-0.0898366
-0.0814186
-0.0756878
-0.0695796
-0.064534
-0.059603
-0.0552097
-0.0510278
-0.0472183
-0.043582
-0.0402898
-0.0372397
-0.234785
-0.214331
-0.185353
-0.142696
-0.13768
-0.111487
-0.106787
-0.092964
-0.0871398
-0.0788635
-0.0733217
-0.0673692
-0.0624948
-0.0577175
-0.0534783
-0.0494411
-0.0457684
-0.042261
-0.0391018
-0.0361423
-0.236574
-0.208875
-0.183429
-0.138936
-0.134613
-0.108242
-0.103779
-0.0900579
-0.0844384
-0.0763065
-0.0709545
-0.0651586
-0.060455
-0.055831
-0.0517449
-0.0478512
-0.0443139
-0.0409351
-0.0379058
-0.0350361
-0.239012
-0.203514
-0.181452
-0.135154
-0.131508
-0.104982
-0.100757
-0.0871441
-0.0817317
-0.0737471
-0.0685861
-0.0629472
-0.0584146
-0.0539432
-0.0500096
-0.0462582
-0.0428549
-0.0396042
-0.036702
-0.0339216
-0.24205
-0.198275
-0.179417
-0.131351
-0.128366
-0.101703
-0.0977196
-0.0842219
-0.0790193
-0.071185
-0.0662159
-0.060735
-0.0563732
-0.0520542
-0.0482724
-0.0446622
-0.0413918
-0.0382685
-0.0354905
-0.0327995
-0.245631
-0.193172
-0.177322
-0.127529
-0.125185
-0.0984071
-0.0946655
-0.0812908
-0.0763005
-0.0686197
-0.0638438
-0.0585216
-0.0543308
-0.0501637
-0.0465333
-0.0430632
-0.0399246
-0.0369281
-0.0342716
-0.0316701
-0.249691
-0.18821
-0.175163
-0.123689
-0.121965
-0.0950917
-0.0915945
-0.0783499
-0.0735749
-0.0660508
-0.0614693
-0.056307
-0.0522872
-0.0482719
-0.0447922
-0.0414613
-0.0384535
-0.0355833
-0.0330457
-0.0305337
-0.254162
-0.183386
-0.172934
-0.11983
-0.118704
-0.0917563
-0.0885059
-0.0753988
-0.0708423
-0.0634779
-0.0590923
-0.0540908
-0.0502423
-0.0463786
-0.0430492
-0.0398566
-0.036979
-0.0342342
-0.0318131
-0.0293908
-0.258973
-0.178691
-0.170631
-0.115951
-0.115402
-0.0883998
-0.085399
-0.0724368
-0.0681021
-0.0609007
-0.0567125
-0.051873
-0.0481961
-0.044484
-0.0413045
-0.0382493
-0.0355011
-0.0328811
-0.0305743
-0.0282418
-0.264053
-0.174112
-0.168247
-0.112052
-0.112056
-0.0850211
-0.0822735
-0.0694633
-0.0653542
-0.058319
-0.0543298
-0.0496535
-0.0461485
-0.042588
-0.039558
-0.0366395
-0.0340201
-0.031524
-0.0293297
-0.0270876
-0.26933
-0.169635
-0.165777
-0.108129
-0.108667
-0.0816192
-0.0791289
-0.0664779
-0.0625983
-0.0557324
-0.0519443
-0.0474321
-0.0440997
-0.0406907
-0.03781
-0.0350275
-0.0325363
-0.0301632
-0.02808
-0.0259296
-0.27473
-0.165243
-0.163215
-0.10418
-0.105233
-0.0781928
-0.0759648
-0.06348
-0.0598343
-0.0531406
-0.0495558
-0.0452088
-0.0420495
-0.0387923
-0.0360606
-0.0334135
-0.03105
-0.028799
-0.0268258
-0.0247693
-0.280183
-0.160916
-0.160552
-0.100203
-0.101752
-0.0747409
-0.0727809
-0.0604688
-0.0570624
-0.0505432
-0.0471645
-0.0429837
-0.0399981
-0.0368929
-0.0343097
-0.0317976
-0.0295612
-0.0274317
-0.0255678
-0.0236071
-0.285617
-0.156637
-0.157784
-0.0961948
-0.0982248
-0.0712622
-0.0695772
-0.0574436
-0.0542828
-0.0479401
-0.0447701
-0.040757
-0.0379455
-0.0349929
-0.0325576
-0.0301799
-0.0280702
-0.0260619
-0.0243073
-0.0224398
-0.290966
-0.152384
-0.154902
-0.0921513
-0.0946493
-0.0677554
-0.0663541
-0.0544033
-0.0514957
-0.0453316
-0.0423721
-0.0385292
-0.0358917
-0.0330925
-0.0308045
-0.0285605
-0.0265772
-0.0246898
-0.023047
-0.0212604
-0.296161
-0.14814
-0.151901
-0.0880689
-0.091025
-0.0642187
-0.0631123
-0.0513476
-0.0487001
-0.0427187
-0.0399702
-0.0362997
-0.0338376
-0.0311905
-0.0290514
-0.0269396
-0.0250823
-0.0233152
-0.0217905
-0.0200619
-0.301141
-0.143883
-0.148774
-0.083944
-0.0873514
-0.0606498
-0.0598523
-0.0482775
-0.045895
-0.0401008
-0.0375667
-0.0340656
-0.0317856
-0.0292846
-0.0273005
-0.0253174
-0.0235863
-0.0219379
-0.0205371
-0.0188461
-0.305845
-0.139594
-0.145514
-0.0797723
-0.0836286
-0.057047
-0.0565726
-0.0451941
-0.0430825
-0.0374719
-0.0351688
-0.0318213
-0.0297389
-0.0273728
-0.0255535
-0.0236946
-0.0220898
-0.0205607
-0.0192756
-0.0176322
-0.310214
-0.135255
-0.142116
-0.0755493
-0.0798577
-0.0534104
-0.0532711
-0.0420926
-0.0402738
-0.034818
-0.0327872
-0.0295632
-0.0276976
-0.0254589
-0.0238075
-0.022073
-0.0205917
-0.0191904
-0.0179928
-0.0164346
-0.314194
-0.130846
-0.138575
-0.0712695
-0.0760391
-0.0497409
-0.0499522
-0.0389531
-0.0374908
-0.0321264
-0.0304231
-0.0273013
-0.0256517
-0.0235585
-0.0220522
-0.0204531
-0.0190946
-0.0178208
-0.0166977
-0.0152474
-0.317736
-0.126351
-0.134884
-0.0669279
-0.0721713
-0.0460321
-0.0466407
-0.0357434
-0.0347467
-0.0294119
-0.0280481
-0.025063
-0.0235902
-0.0216659
-0.0202945
-0.0188336
-0.0175996
-0.0164485
-0.0153982
-0.0140646
-0.320791
-0.121752
-0.131041
-0.0625225
-0.0682526
-0.0422551
-0.0433825
-0.0324558
-0.0320052
-0.0267336
-0.0256311
-0.0228426
-0.0215225
-0.0197756
-0.018538
-0.0172143
-0.0161066
-0.0150731
-0.0140985
-0.0128824
-0.323316
-0.117033
-0.127043
-0.0580535
-0.0642929
-0.0383598
-0.0401954
-0.0291668
-0.0291906
-0.0240976
-0.0231896
-0.0206294
-0.0194549
-0.0178851
-0.0167843
-0.0155959
-0.0146152
-0.0136955
-0.0128004
-0.0116998
-0.325271
-0.112178
-0.122886
-0.0535103
-0.060332
-0.0343341
-0.0369824
-0.0259504
-0.0263125
-0.0214844
-0.0207375
-0.0184169
-0.0173907
-0.0159943
-0.0150335
-0.013979
-0.0131253
-0.0123168
-0.0115041
-0.0105166
-0.326621
-0.107171
-0.118566
-0.0488454
-0.0564305
-0.0302959
-0.0336302
-0.0227915
-0.0233938
-0.0188795
-0.0182834
-0.0162026
-0.0153309
-0.0141039
-0.0132858
-0.0123643
-0.011637
-0.0109381
-0.0102097
-0.00933359
-0.327334
-0.101999
-0.114082
-0.043979
-0.0525908
-0.0262894
-0.0301674
-0.0196626
-0.0204519
-0.0162744
-0.0158315
-0.013986
-0.0132756
-0.0122149
-0.0115413
-0.0107523
-0.0101507
-0.00956033
-0.00891714
-0.00815139
-0.32738
-0.0966509
-0.109445
-0.0389132
-0.048693
-0.0223778
-0.026628
-0.0165446
-0.0174976
-0.0136649
-0.0133836
-0.0117679
-0.0112247
-0.0103283
-0.00980015
-0.00914347
-0.00866686
-0.00818406
-0.0076266
-0.00697077
-0.326736
-0.09112
-0.104692
-0.0339033
-0.044525
-0.0185116
-0.0230357
-0.013426
-0.0145371
-0.0110495
-0.0109402
-0.00954941
-0.00917795
-0.00844493
-0.00806269
-0.00753833
-0.00718607
-0.00680991
-0.00633831
-0.00579237
-0.32538
-0.0853906
-0.0998601
-0.0288262
-0.0401864
-0.0146613
-0.0194053
-0.0103
-0.0115741
-0.00842823
-0.00850151
-0.00733176
-0.00713555
-0.0065655
-0.00632938
-0.00593735
-0.00570883
-0.00543841
-0.00505259
-0.0046168
-0.323296
-0.0794035
-0.0949106
-0.0237205
-0.0357214
-0.0108085
-0.0157464
-0.00716332
-0.00861055
-0.00580191
-0.00606741
-0.00511612
-0.0050977
-0.00469065
-0.0046007
-0.004341
-0.00423567
-0.00407005
-0.00376988
-0.00344461
-0.320469
-0.0730562
-0.0897761
-0.0186894
-0.0311579
-0.00694271
-0.0120653
-0.00401433
-0.00564768
-0.00317168
-0.00363792
-0.00290354
-0.0030648
-0.00282099
-0.0028772
-0.00274981
-0.0027671
-0.00270535
-0.00249067
-0.00227634
-0.316891
-0.0663555
-0.0845134
-0.0136638
-0.0265109
-0.00305739
-0.00836641
-0.000852725
-0.00268615
-0.000538889
-0.00121313
-0.000694975
-0.00103732
-0.000957112
-0.00115942
-0.00116432
-0.00130363
-0.00134479
-0.00121547
-0.00111245
-0.312556
-0.0596632
-0.0788539
-0.00861427
-0.021791
0.000851333
-0.0046528
0.00232103
0.000273545
0.0020951
0.00120669
0.00150868
0.000984167
0.000900398
0.000552042
0.000414925
0.00015422
1.1134e-05
5.51685e-05
4.67245e-05
-0.307461
-0.0528514
-0.072906
-0.00352292
-0.0170058
0.00478556
-0.000926806
0.00550596
0.00323096
0.00472892
0.00362112
0.00370659
0.00299904
0.00275093
0.0022566
0.00198735
0.00160594
0.0013619
0.00132075
0.00120093
-0.301611
-0.0458677
-0.0667141
0.0016201
-0.0121612
0.00874616
0.0028097
0.00870078
0.00618564
0.00736124
0.00602964
0.00589793
0.00500664
0.00459384
0.00395363
0.00355238
0.00305101
0.00270701
0.00258076
0.00234984
-0.295037
-0.0386653
-0.0603032
0.00682047
-0.00726225
0.0127331
0.00655514
0.011904
0.00913701
0.00999076
0.00843161
0.00808188
0.00700628
0.00642849
0.0056425
0.00510942
0.0044889
0.00404594
0.00383468
0.00349285
-0.287798
-0.0311885
-0.0536884
0.012081
-0.00231307
0.0167458
0.0103081
0.015114
0.0120844
0.0126162
0.0108263
0.0102576
0.00899723
0.00825421
0.00732257
0.00665787
0.00591907
0.00537816
0.00508188
0.00462913
-0.279892
-0.0234459
-0.0468819
0.0174029
0.00268247
0.0207829
0.014067
0.018329
0.0150271
0.0152364
0.0132129
0.0124243
0.0109787
0.0100703
0.00899317
0.00819709
0.00734095
0.00670308
0.00632166
0.00575818
-0.271116
-0.0156119
-0.0398945
0.0227859
0.00772076
0.0248429
0.0178307
0.0215473
0.0179642
0.0178501
0.0155906
0.0145812
0.0129501
0.0118761
0.0106536
0.00972647
0.00875397
0.00802006
0.00755336
0.00688028
-0.261521
-0.00767267
-0.0327358
0.0282294
0.0127983
0.0289239
0.0215975
0.024767
0.0208947
0.0204559
0.0179584
0.0167273
0.0149104
0.0136708
0.0123032
0.0112454
0.0101575
0.00932854
0.00877656
0.00799618
-0.251186
0.00041976
-0.0254145
0.0337317
0.0179116
0.0330237
0.0253659
0.0279863
0.0238174
0.0230528
0.0203154
0.0188617
0.0168589
0.0154537
0.0139413
0.0127531
0.0115511
0.0106281
0.00999108
0.00910548
-0.240139
0.00867697
-0.0179392
0.0392908
0.0230573
0.03714
0.0291343
0.0312033
0.0267313
0.0256394
0.0226605
0.0209836
0.0187949
0.017224
0.0155671
0.014249
0.012934
0.0119184
0.0111966
0.0102057
-0.228404
0.0171013
-0.0103186
0.0449038
0.0282316
0.0412702
0.0329008
0.0344162
0.0296351
0.0282144
0.0249928
0.023092
0.0207173
0.018981
0.0171798
0.0157323
0.0143059
0.013199
0.0123921
0.0112944
-0.216009
0.0256913
-0.0025616
0.0505674
0.0334311
0.0454116
0.0366636
0.0376228
0.0325273
0.0307766
0.027311
0.0251859
0.0226255
0.0207238
0.0187787
0.0172024
0.015666
0.0144689
0.013576
0.0123728
-0.202982
0.0344425
0.00532284
0.0562781
0.0386518
0.0495613
0.0404207
0.0408213
0.0354066
0.0333247
0.0296143
0.0272644
0.0245184
0.0224516
0.0203631
0.0186586
0.0170134
0.0157267
0.0147462
0.0134443
-0.18935
0.0433488
0.0133253
0.0620315
0.0438898
0.0537163
0.04417
0.0440096
0.0382714
0.0358572
0.0319013
0.0293265
0.0263952
0.0241637
0.0219321
0.0201002
0.0183475
0.0169709
0.0159008
0.0145052
-0.175145
0.0524027
0.0214362
0.0678233
0.0491411
0.0578735
0.0479093
0.0471857
0.0411203
0.0383729
0.034171
0.0313712
0.0282551
0.0258592
0.0234851
0.0215264
0.0196672
0.0182004
0.0170382
0.0155408
-0.160397
0.0615953
0.0296456
0.0736485
0.0544015
0.0620296
0.0516362
0.0503475
0.0439517
0.0408703
0.0364221
0.0333975
0.0300971
0.0275373
0.0250214
0.0229365
0.0209719
0.0194159
0.0181594
0.0165478
-0.145138
0.0709167
0.0379432
0.0795019
0.0596665
0.0661815
0.0553483
0.0534928
0.0467638
0.0433481
0.0386534
0.0354042
0.0319202
0.0291972
0.0265399
0.0243295
0.0222613
0.0206198
0.0192731
0.0175628
-0.129403
0.0803561
0.0463184
0.0853781
0.0649316
0.0703255
0.0590431
0.0566196
0.049555
0.0458047
0.0408638
0.0373904
0.0337236
0.030838
0.0280398
0.0257042
0.0235353
0.0218172
0.0203955
0.018629
-0.113226
0.089902
0.0547605
0.0912713
0.0701922
0.0744583
0.062718
0.0597256
0.0523235
0.0482387
0.0430519
0.0393551
0.0355063
0.0324589
0.0295198
0.0270594
0.0247945
0.0230113
0.0215288
0.0196962
-0.0966428
0.0995421
0.0632583
0.0971756
0.0754435
0.0785763
0.0663704
0.0628085
0.0550677
0.0506486
0.0452165
0.041297
0.0372674
0.0340588
0.030979
0.0283948
0.0260396
0.0241962
0.0226269
0.0205942
-0.0796906
0.109263
0.0718004
0.103085
0.0806805
0.0826758
0.0699975
0.0658661
0.0577855
0.0530329
0.0473563
0.0432152
0.039006
0.0356368
0.0324166
0.0297112
0.0272707
0.0253512
0.0236005
0.0212392
-0.0624066
0.119053
0.0803751
0.108992
0.0858982
0.086753
0.0735965
0.0688963
0.0604753
0.0553902
0.0494702
0.0451086
0.0407211
0.037192
0.0338323
0.0310096
0.0284855
0.0264514
0.0244013
0.021787
-0.0448292
0.128896
0.0889706
0.114891
0.0910915
0.0908043
0.0771645
0.0718965
0.0631352
0.0577189
0.0515567
0.0469762
0.0424117
0.0387235
0.0352263
0.0322909
0.0296788
0.0274866
0.0251018
0.0224463
-0.0269971
0.138778
0.0975749
0.120775
0.0962551
0.0948258
0.0806987
0.0748646
0.0657633
0.0600174
0.0536145
0.0488168
0.0440768
0.0402307
0.0365984
0.033554
0.0308446
0.0284676
0.0258217
0.0235235
-0.00894962
0.148685
0.106176
0.126637
0.101384
0.0988136
0.084196
0.0777981
0.0683577
0.0622841
0.0556424
0.0506293
0.0457153
0.0417129
0.0379487
0.0347971
0.0319789
0.0294164
0.0266229
0.0246146
0.00927337
0.158601
0.114761
0.13247
0.106472
0.102764
0.0876534
0.0806948
0.0709165
0.0645176
0.0576391
0.0524125
0.0473265
0.0431696
0.0392766
0.0360178
0.0330817
0.0303499
0.0274868
0.0256572
0.0276319
0.168512
0.123317
0.138267
0.111514
0.106672
0.0910679
0.0835521
0.0734377
0.0667162
0.0596032
0.0541655
0.0489092
0.0446001
0.0405813
0.0372142
0.0341558
0.031279
0.0283863
0.0266328
0.0460856
0.178401
0.131833
0.14402
0.116504
0.110535
0.0944366
0.0863677
0.0759194
0.0688785
0.0615334
0.055887
0.0504627
0.0460039
0.0418617
0.038385
0.0352042
0.0322059
0.0292975
0.0275553
0.0645943
0.188252
0.140295
0.149722
0.121438
0.114349
0.0977561
0.0891393
0.0783596
0.0710027
0.0634285
0.057576
0.051986
0.0473801
0.0431169
0.0395295
0.0362298
0.033129
0.0302039
0.0284329
0.0831175
0.19805
0.14869
0.155366
0.126309
0.118109
0.101024
0.0918644
0.0807565
0.0730874
0.065287
0.0592314
0.0534783
0.0487282
0.0443458
0.0406477
0.0372344
0.0340451
0.0310974
0.0292756
0.101615
0.207778
0.157007
0.160944
0.131112
0.121811
0.104236
0.0945406
0.0831082
0.075131
0.0671077
0.060852
0.0549386
0.0500472
0.0455474
0.0417394
0.0382185
0.0349501
0.0319726
0.0300882
0.120046
0.21742
0.165232
0.16645
0.135841
0.125452
0.10739
0.0971656
0.0854126
0.0771319
0.0688893
0.0624368
0.0563661
0.0513362
0.046721
0.0428048
0.0391822
0.035841
0.032828
0.0308745
0.138372
0.226961
0.173352
0.171874
0.14049
0.129028
0.110483
0.099737
0.0876678
0.0790886
0.0706304
0.0639847
0.0577599
0.0525945
0.0478658
0.0438437
0.0401248
0.036715
0.0336619
0.0316361
0.156552
0.236383
0.181355
0.177211
0.145054
0.132534
0.113511
0.102252
0.0898721
0.0809997
0.0723299
0.0654948
0.0591191
0.0538212
0.0489813
0.0448558
0.0410456
0.0375703
0.0344742
0.0323741
0.174549
0.245672
0.189229
0.182453
0.149528
0.135966
0.116472
0.10471
0.0920234
0.0828634
0.0739864
0.0669658
0.0604428
0.0550154
0.0500667
0.0458408
0.0419436
0.0384053
0.0352641
0.0330891
0.192322
0.25481
0.196962
0.187591
0.153906
0.139321
0.119362
0.107106
0.0941199
0.0846785
0.0755987
0.0683969
0.0617301
0.0561765
0.0511214
0.0467983
0.0428179
0.0392186
0.0360314
0.0337811
0.209834
0.263782
0.20454
0.19262
0.158182
0.142595
0.122179
0.10944
0.0961599
0.0864433
0.0771656
0.0697869
0.0629801
0.0573036
0.052145
0.0477277
0.0436677
0.0400093
0.0367757
0.0344502
0.227048
0.272573
0.211952
0.197532
0.162351
0.145785
0.12492
0.111708
0.0981414
0.0881565
0.0786858
0.071135
0.064192
0.0583959
0.0531368
0.0486285
0.0444922
0.0407767
0.0374965
0.0350962
0.243927
0.281167
0.219186
0.20232
0.166409
0.148885
0.127582
0.11391
0.100063
0.0898166
0.0801583
0.07244
0.0653649
0.0594528
0.0540961
0.0495
0.0452905
0.0415198
0.0381934
0.0357189
0.260436
0.289549
0.226231
0.206977
0.170348
0.151893
0.130161
0.116042
0.101922
0.0914223
0.0815817
0.0737011
0.066498
0.0604734
0.0550224
0.0503418
0.0460621
0.0422381
0.038866
0.036318
0.276539
0.297705
0.233076
0.211495
0.174166
0.154806
0.132656
0.118102
0.103718
0.0929722
0.0829551
0.0749174
0.0675905
0.0614572
0.0559152
0.0511531
0.0468061
0.042931
0.0395138
0.0368935
0.292203
0.305619
0.239708
0.21587
0.177856
0.157619
0.135063
0.120089
0.105449
0.0944649
0.0842772
0.0760878
0.0686415
0.0624035
0.0567737
0.0519335
0.0475221
0.0435978
0.0401365
0.0374449
0.307394
0.313278
0.246119
0.220093
0.181414
0.160329
0.13738
0.122
0.107112
0.0958992
0.0855471
0.0772115
0.0696504
0.0633116
0.0575975
0.0526824
0.0482094
0.044238
0.0407336
0.0379722
0.322082
0.320668
0.252296
0.22416
0.184836
0.162933
0.139605
0.123833
0.108708
0.0972738
0.0867637
0.0782877
0.0706163
0.0641808
0.058386
0.0533991
0.0488675
0.0448511
0.0413047
0.0384752
0.336235
0.327776
0.25823
0.228063
0.188116
0.165428
0.141734
0.125588
0.110233
0.0985876
0.087926
0.0793155
0.0715386
0.0650105
0.0591385
0.0540833
0.0494958
0.0454365
0.0418495
0.0389535
0.349823
0.334589
0.263912
0.231797
0.19125
0.167811
0.143766
0.127261
0.111687
0.0998393
0.089033
0.0802941
0.0724166
0.0658003
0.0598547
0.0547344
0.050094
0.045994
0.0423675
0.0394073
0.362819
0.341095
0.269332
0.235356
0.194234
0.170078
0.145699
0.128851
0.113069
0.101028