/*--------------------------------*- C++ -*----------------------------------*\
  =========                 |
  \\      /  F ield         | OpenFOAM: The Open Source CFD Toolbox
   \\    /   O peration     | Website:  https://openfoam.org
    \\  /    A nd           | Version:  7
     \\/     M anipulation  |
\*---------------------------------------------------------------------------*/
FoamFile
{
    version     2.0;
    format      ascii;
    class       volScalarField;
    location    "0.248";
    object      p;
}
// * * * * * * * * * * * * * * * * * * * * * * * * * * * * * * * * * * * * * //

dimensions      [0 2 -2 0 0 0 0];

internalField   nonuniform List<scalar> 
40000
(
3.39631e-06
9.84492e-05
0.000159325
0.000144652
3.96718e-05
-0.000160123
-0.000452377
-0.000831434
-0.00128992
-0.00181974
-0.00241277
-0.00306115
-0.0037573
-0.00449398
-0.00526436
-0.00606213
-0.00688132
-0.00771632
-0.00856191
-0.00941325
-0.0102658
-0.0111154
-0.011958
-0.01279
-0.013608
-0.0144088
-0.0151894
-0.0159471
-0.0166793
-0.0173837
-0.0180581
-0.0187005
-0.0193091
-0.019882
-0.0204178
-0.0209149
-0.0213722
-0.0217883
-0.0221623
-0.0224931
-0.0227799
-0.0230219
-0.0232185
-0.0233691
-0.0234731
-0.0235301
-0.02354
-0.0235022
-0.0234168
-0.0232836
-0.0231025
-0.0228735
-0.0225968
-0.0222724
-0.0219006
-0.0214816
-0.0210157
-0.0205034
-0.0199449
-0.0193407
-0.0186913
-0.0179973
-0.0172593
-0.0164778
-0.0156535
-0.0147871
-0.0138794
-0.0129311
-0.011943
-0.010916
-0.00985088
-0.00874861
-0.00761009
-0.00643627
-0.00522813
-0.00398669
-0.00271298
-0.00140806
-7.30204e-05
0.00129102
0.00268294
0.00410158
0.00554577
0.00701431
0.008506
0.0100196
0.0115539
0.0131076
0.0146794
0.016268
0.0178722
0.0194905
0.0211217
0.0227644
0.0244172
0.0260787
0.0277477
0.0294225
0.031102
0.0327846
0.034469
0.0361536
0.0378372
0.0395182
0.0411952
0.0428669
0.0445316
0.0461881
0.0478349
0.0494705
0.0510935
0.0527026
0.0542962
0.0558729
0.0574314
0.0589703
0.0604882
0.0619837
0.0634555
0.0649022
0.0663225
0.0677151
0.0690787
0.070412
0.0717139
0.0729831
0.0742183
0.0754185
0.0765825
0.0777091
0.0787974
0.0798462
0.0808546
0.0818215
0.0827462
0.0836276
0.084465
0.0852575
0.0860044
0.0867049
0.0873585
0.0879646
0.0885225
0.0890318
0.0894921
0.0899031
0.0902643
0.0905756
0.0908368
0.0910478
0.0912086
0.0913192
0.0913798
0.0913905
0.0913516
0.0912636
0.0911268
0.0909419
0.0907095
0.0904304
0.0901053
0.0897352
0.0893213
0.0888647
0.0883666
0.0878285
0.087252
0.0866386
0.0859903
0.0853088
0.0845964
0.0838552
0.0830878
0.0822966
0.0814845
0.0806543
0.0798093
0.0789527
0.0780882
0.0772197
0.0763511
0.0754868
0.0746314
0.0737897
0.0729672
0.0721694
0.0714019
0.0706713
0.069984
0.0693471
0.0687678
0.0682536
0.0678121
0.0674507
0.0671761
0.0669931
0.0669027
0.0668987
0.0669646
0.0670576
-8.56313e-05
7.52715e-06
4.41147e-05
8.19509e-06
-0.000104082
-0.000296688
-0.00056942
-0.000918798
-0.00133946
-0.0018252
-0.0023695
-0.00296569
-0.0036071
-0.00428734
-0.00500031
-0.00574019
-0.00650143
-0.0072788
-0.00806738
-0.00886259
-0.00966012
-0.0104559
-0.0112461
-0.0120272
-0.0127959
-0.0135491
-0.0142839
-0.0149976
-0.0156876
-0.0163518
-0.0169878
-0.0175938
-0.0181678
-0.0187083
-0.0192135
-0.019682
-0.0201126
-0.0205041
-0.0208553
-0.0211653
-0.0214333
-0.0216583
-0.0218398
-0.0219771
-0.0220697
-0.0221172
-0.0221192
-0.0220755
-0.0219859
-0.0218501
-0.0216681
-0.02144
-0.0211657
-0.0208454
-0.0204793
-0.0200675
-0.0196104
-0.0191083
-0.0185615
-0.0179705
-0.0173357
-0.0166576
-0.0159368
-0.0151739
-0.0143695
-0.0135243
-0.0126389
-0.0117142
-0.0107508
-0.0097496
-0.00871143
-0.00763715
-0.00652765
-0.00538385
-0.0042067
-0.00299718
-0.00175629
-0.000485061
0.000815447
0.00214416
0.00349997
0.00488176
0.0062884
0.00771872
0.00917155
0.0106457
0.0121399
0.013653
0.0151838
0.0167309
0.0182931
0.019869
0.0214575
0.0230571
0.0246665
0.0262845
0.0279095
0.0295404
0.0311757
0.032814
0.034454
0.0360943
0.0377335
0.0393702
0.0410029
0.0426304
0.0442512
0.0458638
0.047467
0.0490593
0.0506394
0.0522058
0.0537571
0.055292
0.0568092
0.0583072
0.0597848
0.0612406
0.0626734
0.0640817
0.0654643
0.06682
0.0681475
0.0694456
0.0707131
0.0719488
0.0731515
0.0743202
0.0754537
0.0765509
0.0776109
0.0786327
0.0796151
0.0805575
0.0814588
0.0823181
0.0831348
0.083908
0.084637
0.0853212
0.0859599
0.0865526
0.0870987
0.0875978
0.0880496
0.0884536
0.0888097
0.0891175
0.089377
0.0895881
0.0897508
0.0898651
0.0899313
0.0899494
0.0899199
0.0898431
0.0897196
0.0895498
0.0893345
0.0890744
0.0887703
0.0884233
0.0880344
0.0876048
0.0871357
0.0866286
0.0860849
0.0855065
0.0848949
0.0842522
0.0835803
0.0828816
0.0821584
0.0814132
0.0806487
0.0798678
0.0790735
0.0782692
0.0774583
0.0766444
0.0758315
0.0750238
0.0742256
0.0734415
0.0726765
0.0719358
0.0712247
0.0705491
0.0699149
0.0693281
0.0687952
0.0683225
0.0679159
0.0675812
0.0673229
0.067144
0.0670436
0.0670166
0.0670578
0.067151
-0.000143347
-2.71428e-05
9.22e-06
-3.28925e-05
-0.000146011
-0.000332089
-0.000590882
-0.000919316
-0.00131298
-0.0017668
-0.00227519
-0.0028323
-0.00343222
-0.00406923
-0.00473777
-0.00543247
-0.00614813
-0.00687987
-0.00762306
-0.00837336
-0.00912664
-0.00987899
-0.0106267
-0.0113665
-0.0120949
-0.0128092
-0.0135064
-0.0141838
-0.0148391
-0.01547
-0.0160743
-0.0166501
-0.0171955
-0.0177089
-0.0181887
-0.0186334
-0.0190417
-0.0194126
-0.0197448
-0.0200374
-0.0202894
-0.0205002
-0.020669
-0.0207952
-0.0208782
-0.0209176
-0.020913
-0.0208642
-0.0207709
-0.020633
-0.0204503
-0.0202228
-0.0199506
-0.0196338
-0.0192724
-0.0188667
-0.018417
-0.0179235
-0.0173867
-0.0168068
-0.0161843
-0.0155197
-0.0148136
-0.0140664
-0.0132789
-0.0124516
-0.0115852
-0.0106804
-0.00973797
-0.00875871
-0.00774341
-0.0066929
-0.00560805
-0.00448975
-0.00333893
-0.00215653
-0.000943539
0.000299048
0.0015702
0.00286886
0.00419397
0.00554443
0.00691914
0.00831695
0.00973673
0.0111773
0.0126375
0.0141161
0.0156119
0.0171237
0.0186502
0.0201901
0.0217422
0.0233052
0.0248777
0.0264586
0.0280464
0.0296398
0.0312375
0.0328382
0.0344405
0.0360431
0.0376445
0.0392435
0.0408386
0.0424286
0.044012
0.0455875
0.0471536
0.0487092
0.0502527
0.0517829
0.0532984
0.0547978
0.0562799
0.0577433
0.0591867
0.0606089
0.0620085
0.0633842
0.0647349
0.0660594
0.0673563
0.0686245
0.0698628
0.0710702
0.0722454
0.0733874
0.0744952
0.0755676
0.0766037
0.0776025
0.0785631
0.0794846
0.0803661
0.0812069
0.0820061
0.082763
0.083477
0.0841473
0.0847735
0.0853549
0.0858911
0.0863816
0.0868262
0.0872244
0.0875761
0.0878811
0.0881391
0.0883503
0.0885146
0.088632
0.0887028
0.0887272
0.0887055
0.0886382
0.0885257
0.0883686
0.0881676
0.0879234
0.0876369
0.0873091
0.086941
0.0865339
0.0860889
0.0856075
0.0850911
0.0845416
0.0839604
0.0833497
0.0827113
0.0820475
0.0813607
0.0806532
0.0799277
0.079187
0.0784341
0.0776722
0.0769046
0.0761349
0.0753668
0.0746042
0.0738515
0.073113
0.0723932
0.0716971
0.0710297
0.0703963
0.0698023
0.0692532
0.0687545
0.0683119
0.0679304
0.0676147
0.0673685
0.0671943
0.0670917
0.067058
0.0670995
0.0672175
-0.000126893
1.04945e-05
5.26359e-05
1.04944e-05
-0.000101138
-0.000282024
-0.000530947
-0.000844619
-0.00121896
-0.00164939
-0.00213088
-0.00265815
-0.00322591
-0.00382894
-0.00446214
-0.00512047
-0.00579913
-0.00649352
-0.00719931
-0.00791235
-0.00862869
-0.0093446
-0.0100565
-0.0107612
-0.0114556
-0.0121366
-0.0128016
-0.013448
-0.0140734
-0.0146756
-0.0152525
-0.0158021
-0.0163227
-0.0168126
-0.0172702
-0.0176941
-0.018083
-0.0184358
-0.0187513
-0.0190286
-0.0192667
-0.019465
-0.0196225
-0.0197389
-0.0198134
-0.0198457
-0.0198353
-0.019782
-0.0196855
-0.0195457
-0.0193623
-0.0191354
-0.0188651
-0.0185512
-0.0181941
-0.0177939
-0.0173507
-0.0168649
-0.0163369
-0.0157669
-0.0151554
-0.0145028
-0.0138097
-0.0130766
-0.0123041
-0.0114928
-0.0106433
-0.00975636
-0.00883268
-0.00787302
-0.00687814
-0.00584888
-0.00478606
-0.00369056
-0.00256328
-0.00140515
-0.000217107
0.000999859
0.00224475
0.00351653
0.00481416
0.00613658
0.00748271
0.00885143
0.0102416
0.0116522
0.0130819
0.0145296
0.0159941
0.0174743
0.0189688
0.0204765
0.021996
0.0235262
0.0250658
0.0266134
0.0281679
0.0297278
0.031292
0.032859
0.0344276
0.0359964
0.0375641
0.0391294
0.0406909
0.0422473
0.0437973
0.0453395
0.0468726
0.0483953
0.0499062
0.0514041
0.0528875
0.0543553
0.055806
0.0572385
0.0586515
0.0600436
0.0614136
0.0627604
0.0640827
0.0653792
0.0666488
0.0678904
0.0691029
0.070285
0.0714357
0.072554
0.0736388
0.0746891
0.075704
0.0766824
0.0776236
0.0785266
0.0793906
0.0802148
0.0809985
0.081741
0.0824416
0.0830997
0.0837147
0.0842861
0.0848135
0.0852964
0.0857346
0.0861278
0.0864756
0.0867779
0.0870347
0.0872459
0.0874116
0.0875318
0.0876067
0.0876366
0.0876217
0.0875627
0.0874598
0.0873138
0.0871253
0.086895
0.0866239
0.0863129
0.085963
0.0855753
0.0851513
0.0846922
0.0841996
0.083675
0.0831202
0.082537
0.0819275
0.0812938
0.0806381
0.0799628
0.0792706
0.0785642
0.0778463
0.0771202
0.0763891
0.0756564
0.0749256
0.0742005
0.0734853
0.072784
0.072101
0.0714408
0.0708082
0.070208
0.0696453
0.0691249
0.068652
0.0682316
0.0678682
0.0675662
0.0673288
0.067159
0.0670573
0.0670238
0.0670725
0.067214
-2.07528e-05
0.000123953
0.000167048
0.000123408
1.16798e-05
-0.000166146
-0.000408092
-0.000710674
-0.00106992
-0.00148148
-0.00194075
-0.00244293
-0.00298326
-0.00355694
-0.00415922
-0.00478546
-0.00543118
-0.00609211
-0.00676416
-0.00744338
-0.00812602
-0.00880853
-0.00948754
-0.0101599
-0.0108225
-0.0114727
-0.0121077
-0.0127251
-0.0133225
-0.0138977
-0.0144488
-0.0149738
-0.0154709
-0.0159385
-0.0163751
-0.0167792
-0.0171497
-0.0174853
-0.0177849
-0.0180476
-0.0182725
-0.0184587
-0.0186056
-0.0187125
-0.018779
-0.0188044
-0.0187885
-0.0187309
-0.0186313
-0.0184896
-0.0183057
-0.0180794
-0.0178108
-0.0174999
-0.0171469
-0.0167519
-0.0163151
-0.0158368
-0.0153173
-0.0147569
-0.014156
-0.0135151
-0.0128347
-0.0121152
-0.0113573
-0.0105615
-0.00972843
-0.00885881
-0.00795331
-0.00701267
-0.00603764
-0.00502901
-0.0039876
-0.00291426
-0.00180987
-0.00067531
0.000488474
0.00168053
0.00289988
0.00414553
0.00541645
0.0067116
0.00802993
0.00937035
0.0107318
0.0121131
0.0135132
0.0149308
0.016365
0.0178143
0.0192778
0.0207541
0.022242
0.0237403
0.0252478
0.0267632
0.0282852
0.0298126
0.0313441
0.0328784
0.0344142
0.0359502
0.0374851
0.0390176
0.0405465
0.0420703
0.0435878
0.0450978
0.0465988
0.0480896
0.0495688
0.0510353
0.0524877
0.0539247
0.0553451
0.0567476
0.0581309
0.059494
0.0608354
0.062154
0.0634487
0.0647182
0.0659614
0.0671773
0.0683646
0.0695223
0.0706493
0.0717446
0.0728072
0.0738362
0.0748305
0.0757892
0.0767116
0.0775967
0.0784438
0.079252
0.0800208
0.0807493
0.0814369
0.0820831
0.0826874
0.0832492
0.0837681
0.0842437
0.0846757
0.0850639
0.085408
0.0857078
0.0859634
0.0861746
0.0863415
0.0864643
0.0865431
0.0865782
0.0865699
0.0865187
0.086425
0.0862896
0.0861129
0.0858959
0.0856393
0.0853442
0.0850115
0.0846424
0.0842382
0.0838002
0.08333
0.082829
0.0822989
0.0817417
0.0811592
0.0805536
0.0799271
0.0792819
0.0786206
0.0779459
0.0772606
0.0765675
0.0758699
0.075171
0.0744742
0.0737832
0.0731017
0.0724338
0.0717835
0.071155
0.0705529
0.0699815
0.0694455
0.0689494
0.0684979
0.0680954
0.0677464
0.0674547
0.0672239
0.0670569
0.0669553
0.0669209
0.0669721
0.0671239
0.000179517
0.000317602
0.000354399
0.000305461
0.000190532
1.2645e-05
-0.000225768
-0.000521059
-0.000869278
-0.00126628
-0.00170779
-0.00218945
-0.00270688
-0.00325563
-0.00383131
-0.00442964
-0.00504647
-0.0056778
-0.00631978
-0.00696867
-0.00762093
-0.00827317
-0.00892218
-0.00956494
-0.0101986
-0.0108203
-0.0114276
-0.0120181
-0.0125895
-0.0131397
-0.0136667
-0.0141686
-0.0146437
-0.0150904
-0.0155073
-0.0158929
-0.0162459
-0.0165653
-0.01685
-0.0170989
-0.0173112
-0.0174861
-0.0176229
-0.0177209
-0.0177796
-0.0177986
-0.0177774
-0.0177157
-0.0176132
-0.0174698
-0.0172853
-0.0170596
-0.0167928
-0.0164848
-0.0161357
-0.0157458
-0.0153151
-0.014844
-0.0143328
-0.0137816
-0.013191
-0.0125614
-0.0118932
-0.0111869
-0.010443
-0.00966217
-0.00884499
-0.00799209
-0.00710415
-0.00618188
-0.00522602
-0.00423733
-0.00321661
-0.00216468
-0.00108239
2.93787e-05
0.00116972
0.0023377
0.00353236
0.00475274
0.00599783
0.00726663
0.00855808
0.00987115
0.0112048
0.0125578
0.0139292
0.0153179
0.0167226
0.0181422
0.0195756
0.0210216
0.0224789
0.0239465
0.0254229
0.0269071
0.0283978
0.0298937
0.0313936
0.0328963
0.0344004
0.0359047
0.037408
0.0389089
0.0404062
0.0418985
0.0433847
0.0448635
0.0463335
0.0477935
0.0492422
0.0506784
0.0521008
0.0535082
0.0548992
0.0562728
0.0576277
0.0589626
0.0602764
0.061568
0.0628361
0.0640796
0.0652974
0.0664884
0.0676515
0.0687857
0.0698899
0.0709631
0.0720044
0.0730127
0.0739873
0.0749271
0.0758314
0.0766993
0.0775301
0.078323
0.0790773
0.0797924
0.0804677
0.0811025
0.0816965
0.082249
0.0827597
0.0832283
0.0836544
0.0840377
0.0843782
0.0846756
0.0849299
0.0851411
0.0853092
0.0854344
0.0855168
0.0855568
0.0855547
0.0855109
0.0854259
0.0853004
0.085135
0.0849304
0.0846875
0.0844073
0.0840908
0.0837391
0.0833535
0.0829353
0.082486
0.082007
0.0815001
0.080967
0.0804097
0.0798302
0.0792306
0.0786132
0.0779805
0.077335
0.0766793
0.0760164
0.0753493
0.074681
0.0740149
0.0733543
0.072703
0.0720646
0.071443
0.0708422
0.0702662
0.0697193
0.0692056
0.0687295
0.0682952
0.0679067
0.0675682
0.0672834
0.0670561
0.0668894
0.0667853
0.0667466
0.0667934
0.0669416
0.000472074
0.000591321
0.000614381
0.000555607
0.000433649
0.000251956
1.32833e-05
-0.000278622
-0.000619867
-0.00100655
-0.0014347
-0.00190029
-0.00239924
-0.00292743
-0.00348082
-0.00405543
-0.00464744
-0.00525308
-0.00586873
-0.00649087
-0.00711615
-0.00774137
-0.00836349
-0.00897959
-0.00958691
-0.0101828
-0.0107649
-0.0113308
-0.0118783
-0.0124055
-0.0129102
-0.0133909
-0.0138457
-0.014273
-0.0146716
-0.0150399
-0.0153768
-0.0156811
-0.0159517
-0.0161877
-0.0163883
-0.0165525
-0.0166798
-0.0167695
-0.016821
-0.0168339
-0.0168078
-0.0167423
-0.0166371
-0.0164921
-0.0163072
-0.0160821
-0.0158169
-0.0155117
-0.0151665
-0.0147814
-0.0143567
-0.0138925
-0.0133891
-0.0128469
-0.0122661
-0.0116472
-0.0109907
-0.010297
-0.00956666
-0.0088002
-0.00799822
-0.00716135
-0.00629025
-0.0053856
-0.00444812
-0.00347855
-0.00247767
-0.00144628
-0.0003852
0.000704701
0.00182254
0.00296742
0.0041384
0.00533453
0.00655483
0.00779832
0.00906399
0.0103508
0.0116577
0.0129837
0.0143276
0.0156883
0.0170648
0.0184559
0.0198605
0.0212773
0.0227053
0.0241433
0.02559
0.0270442
0.0285048
0.0299705
0.0314402
0.0329125
0.0343862
0.0358602
0.0373331
0.0388037
0.0402707
0.0417329
0.0431891
0.0446379
0.0460782
0.0475088
0.0489282
0.0503354
0.0517291
0.0531081
0.0544711
0.055817
0.0571446
0.0584526
0.0597401
0.0610057
0.0622484
0.063467
0.0646605
0.0658278
0.0669678
0.0680795
0.0691619
0.070214
0.0712349
0.0722236
0.0731793
0.0741011
0.0749881
0.0758396
0.0766549
0.0774332
0.0781737
0.078876
0.0795395
0.0801635
0.0807475
0.0812912
0.0817941
0.082256
0.0826764
0.0830552
0.0833922
0.0836872
0.0839402
0.0841513
0.0843205
0.0844479
0.0845337
0.0845782
0.0845818
0.0845449
0.0844681
0.0843518
0.0841968
0.0840038
0.0837737
0.0835074
0.0832059
0.0828704
0.082502
0.0821021
0.0816721
0.0812135
0.0807279
0.0802171
0.0796829
0.0791273
0.0785523
0.0779603
0.0773535
0.0767344
0.0761056
0.0754699
0.07483
0.0741891
0.0735501
0.0729165
0.0722915
0.0716788
0.0710819
0.0705045
0.0699505
0.0694238
0.0689283
0.0684679
0.0680466
0.0676682
0.0673364
0.067055
0.0668275
0.0666576
0.0665475
0.0665004
0.0665356
0.0666682
0.00085138
0.000941711
0.000944246
0.000870843
0.000737646
0.000548199
0.00030547
1.31684e-05
-0.000324995
-0.000705362
-0.00112423
-0.00157783
-0.00206236
-0.00257402
-0.00310909
-0.0036639
-0.00423486
-0.00481846
-0.00541129
-0.00601005
-0.00661158
-0.00721286
-0.007811
-0.00840322
-0.00898687
-0.00955946
-0.0101186
-0.0106621
-0.0111879
-0.0116939
-0.0121784
-0.0126394
-0.0130754
-0.013485
-0.0138665
-0.0142188
-0.0145407
-0.0148309
-0.0150886
-0.0153126
-0.0155022
-0.0156565
-0.0157749
-0.0158568
-0.0159016
-0.0159089
-0.0158781
-0.0158091
-0.0157015
-0.0155551
-0.0153697
-0.0151453
-0.0148819
-0.0145793
-0.0142378
-0.0138574
-0.0134384
-0.0129808
-0.012485
-0.0119513
-0.01138
-0.0107714
-0.0101261
-0.00944451
-0.00872709
-0.00797439
-0.00718699
-0.00636549
-0.00551053
-0.00462278
-0.00370292
-0.00275169
-0.00176983
-0.000758137
0.000282594
0.00135152
0.00244779
0.0035705
0.00471875
0.00589162
0.00708814
0.00830736
0.00954828
0.0108099
0.0120912
0.0133911
0.0147086
0.0160426
0.0173921
0.0187558
0.0201327
0.0215216
0.0229214
0.024331
0.0257491
0.0271747
0.0286064
0.0300432
0.0314838
0.0329271
0.0343717
0.0358165
0.0372603
0.0387018
0.0401398
0.0415732
0.0430006
0.0444208
0.0458327
0.0472349
0.0486264
0.0500058
0.051372
0.0527238
0.05406
0.0553794
0.0566809
0.0579633
0.0592255
0.0604663
0.0616847
0.0628796
0.0640498
0.0651944
0.0663124
0.0674026
0.0684642
0.0694962
0.0704976
0.0714676
0.0724053
0.0733098
0.0741804
0.0750163
0.0758167
0.076581
0.0773085
0.0779986
0.0786508
0.0792644
0.0798391
0.0803743
0.0808698
0.0813252
0.0817402
0.0821145
0.0824482
0.0827409
0.0829927
0.0832036
0.0833737
0.0835031
0.083592
0.0836407
0.0836496
0.0836191
0.0835498
0.0834421
0.0832968
0.0831146
0.0828963
0.0826429
0.0823553
0.0820347
0.0816822
0.0812992
0.0808871
0.0804472
0.0799811
0.0794907
0.0789776
0.0784438
0.0778913
0.0773223
0.076739
0.0761437
0.075539
0.0749276
0.074312
0.0736952
0.0730802
0.07247
0.0718679
0.0712771
0.0707012
0.0701435
0.0696076
0.0690972
0.0686159
0.0681673
0.0677551
0.0673829
0.0670543
0.0667727
0.0665416
0.0663647
0.0662445
0.0661843
0.0662013
0.0663084
0.00131034
0.00136387
0.00133996
0.00124728
0.00109867
0.000897645
0.000647196
0.000350845
1.20591e-05
-0.000365733
-0.000779067
-0.00122443
-0.00169828
-0.00219716
-0.0027176
-0.0032562
-0.00380962
-0.00437457
-0.00494786
-0.00552641
-0.00610723
-0.00668748
-0.0072644
-0.00783537
-0.00839785
-0.00894948
-0.009488
-0.0100113
-0.0105173
-0.0110041
-0.0114699
-0.011913
-0.0123318
-0.0127249
-0.0130908
-0.0134284
-0.0137363
-0.0140136
-0.0142591
-0.014472
-0.0146514
-0.0147966
-0.0149067
-0.0149814
-0.01502
-0.015022
-0.014987
-0.0149148
-0.0148049
-0.0146572
-0.0144716
-0.0142479
-0.0139861
-0.0136862
-0.0133483
-0.0129724
-0.0125588
-0.0121076
-0.0116191
-0.0110935
-0.0105313
-0.00993267
-0.00929813
-0.0086281
-0.00792308
-0.00718358
-0.00641015
-0.00560339
-0.0047639
-0.00389235
-0.00298939
-0.00205574
-0.00109213
-9.9319e-05
0.000921901
0.00197072
0.00304629
0.00414774
0.0052742
0.00642475
0.00759846
0.0087944
0.0100116
0.011249
0.0125058
0.0137807
0.0150729
0.0163813
0.0177047
0.0190422
0.0203925
0.0217547
0.0231275
0.0245099
0.0259007
0.0272987
0.0287028
0.0301118
0.0315246
0.0329399
0.0343567
0.0357736
0.0371895
0.0386031
0.0400134
0.0414191
0.0428189
0.0442117
0.0455964
0.0469716
0.0483363
0.0496891
0.051029
0.0523548
0.0536653
0.0549594
0.056236
0.0574938
0.0587319
0.059949
0.0611442
0.0623163
0.0634644
0.0645874
0.0656842
0.066754
0.0677958
0.0688085
0.0697914
0.0707435
0.071664
0.0725521
0.073407
0.074228
0.0750143
0.0757652
0.0764803
0.0771587
0.0778001
0.0784039
0.0789695
0.0794967
0.0799851
0.0804343
0.0808441
0.0812142
0.0815446
0.0818351
0.0820856
0.0822963
0.0824671
0.0825983
0.0826901
0.0827426
0.0827564
0.0827318
0.0826694
0.0825696
0.0824332
0.082261
0.0820536
0.0818121
0.0815374
0.0812305
0.0808927
0.0805253
0.0801294
0.0797066
0.0792585
0.0787866
0.0782928
0.0777788
0.0772467
0.0766984
0.0761362
0.0755623
0.0749791
0.0743891
0.073795
0.0731995
0.0726052
0.0720153
0.0714328
0.0708606
0.0703021
0.0697605
0.0692392
0.0687414
0.0682706
0.0678302
0.0674236
0.0670541
0.0667251
0.0664399
0.0662018
0.0660142
0.0658798
0.065802
0.0657949
0.0658684
0.00184142
0.00185202
0.00179666
0.00168053
0.0015127
0.00129649
0.00103484
0.000730965
0.000388076
9.38144e-06
-0.000401889
-0.000842483
-0.00130916
-0.00179871
-0.00230794
-0.00283369
-0.00337284
-0.00392232
-0.00447916
-0.00504047
-0.00560346
-0.00616543
-0.00672376
-0.00727598
-0.00781969
-0.00835264
-0.00887266
-0.00937772
-0.00986587
-0.0103353
-0.0107842
-0.0112109
-0.0116141
-0.0119921
-0.0123437
-0.0126677
-0.0129629
-0.0132282
-0.0134626
-0.0136652
-0.0138352
-0.0139718
-0.0140744
-0.0141424
-0.0141752
-0.0141724
-0.0141335
-0.0140583
-0.0139464
-0.0137976
-0.0136118
-0.0133889
-0.0131288
-0.0128314
-0.012497
-0.0121255
-0.0117172
-0.0112722
-0.0107906
-0.0102729
-0.00971934
-0.00913024
-0.00850601
-0.00784709
-0.00715395
-0.0064271
-0.00566706
-0.00487442
-0.00404976
-0.00319372
-0.00230696
-0.00139015
-0.000444021
0.000530692
0.00153322
0.00256276
0.0036185
0.00469959
0.00580516
0.00693432
0.00808618
0.0092598
0.0104542
0.0116685
0.0129017
0.0141528
0.0154207
0.0167045
0.018003
0.0193153
0.0206402
0.0219767
0.0233237
0.02468
0.0260446
0.0274162
0.0287938
0.0301763
0.0315624
0.0329511
0.0343411
0.0357313
0.0371205
0.0385075
0.0398912
0.0412704
0.0426439
0.0440105
0.0453691
0.0467185
0.0480575
0.049385
0.0506997
0.0520007
0.0532867
0.0545566
0.0558093
0.0570437
0.0582587
0.0594532
0.0606263
0.0617767
0.0629036
0.064006
0.0650827
0.066133
0.0671558
0.0681502
0.0691154
0.0700504
0.0709546
0.071827
0.072667
0.0734737
0.0742466
0.0749849
0.075688
0.0763554
0.0769865
0.0775809
0.078138
0.0786575
0.079139
0.0795823
0.0799871
0.0803532
0.0806804
0.0809686
0.0812179
0.0814283
0.0815997
0.0817325
0.0818268
0.0818829
0.0819011
0.0818819
0.0818258
0.0817334
0.0816052
0.0814421
0.0812448
0.0810142
0.0807512
0.080457
0.0801326
0.0797793
0.0793984
0.0789912
0.0785594
0.0781044
0.0776279
0.0771318
0.0766179
0.0760882
0.0755448
0.0749899
0.0744258
0.0738547
0.0732794
0.0727022
0.0721259
0.0715533
0.0709872
0.0704305
0.0698862
0.0693574
0.0688472
0.0683587
0.0678951
0.0674594
0.067055
0.0666848
0.0663521
0.06606
0.0658114
0.0656097
0.0654575
0.065358
0.0653218
0.0653555
0.00243698
0.00239993
0.00230908
0.00216598
0.00197552
0.00174082
0.00146469
0.00115006
0.000799859
0.000417062
4.64213e-06
-0.000434421
-0.000897154
-0.0013806
-0.00188179
-0.00239781
-0.00292573
-0.00346272
-0.004006
-0.00455289
-0.00510075
-0.00564703
-0.00618928
-0.00672514
-0.00725237
-0.0077688
-0.00827241
-0.00876122
-0.00923338
-0.00968711
-0.0101208
-0.0105327
-0.0109216
-0.011286
-0.0116245
-0.0119361
-0.0122196
-0.0124739
-0.0126981
-0.0128913
-0.0130526
-0.0131815
-0.0132771
-0.0133389
-0.0133665
-0.0133592
-0.0133168
-0.0132389
-0.0131252
-0.0129755
-0.0127897
-0.0125675
-0.0123091
-0.0120143
-0.0116833
-0.0113161
-0.0109128
-0.0104737
-0.00999888
-0.00948871
-0.00894346
-0.00836347
-0.00774912
-0.00710084
-0.00641909
-0.00570434
-0.00495713
-0.004178
-0.00336754
-0.00252635
-0.00165509
-0.00075441
0.000174987
0.00113238
0.00211701
0.0031281
0.00416485
0.00522644
0.00631201
0.00742071
0.00855163
0.0097039
0.0108766
0.0120687
0.0132793
0.0145075
0.0157522
0.0170124
0.0182872
0.0195753
0.0208759
0.0221879
0.0235101
0.0248415
0.0261809
0.0275274
0.0288796
0.0302367
0.0315973
0.0329605
0.0343249
0.0356896
0.0370532
0.0384148
0.0397731
0.041127
0.0424753
0.0438168
0.0451506
0.0464752
0.0477898
0.049093
0.0503838
0.051661
0.0529236
0.0541704
0.0554004
0.0566124
0.0578055
0.0589785
0.0601304
0.0612602
0.0623669
0.0634496
0.0645072
0.0655389
0.0665436
0.0675206
0.0684689
0.0693878
0.0702764
0.0711339
0.0719596
0.0727528
0.0735129
0.0742391
0.0749309
0.0755878
0.0762091
0.0767945
0.0773434
0.0778556
0.0783307
0.0787683
0.0791683
0.0795304
0.0798546
0.0801406
0.0803886
0.0805986
0.0807705
0.0809047
0.0810012
0.0810604
0.0810827
0.0810685
0.0810182
0.0809324
0.0808118
0.080657
0.0804689
0.0802482
0.079996
0.0797132
0.0794011
0.0790607
0.0786933
0.0783003
0.0778831
0.0774433
0.0769824
0.0765023
0.0760048
0.0754916
0.0749648
0.0744266
0.0738791
0.0733246
0.0727654
0.072204
0.0716428
0.0710846
0.070532
0.0699878
0.0694547
0.0689356
0.0684334
0.067951
0.0674914
0.0670574
0.0666521
0.0662782
0.0659386
0.0656364
0.0653743
0.0651552
0.0649818
0.064857
0.0647876
0.0647766
0.00308962
0.0030014
0.00287189
0.00269884
0.00248275
0.00222656
0.00193299
0.00160467
0.00124423
0.000854388
0.000437846
-2.6806e-06
-0.000464465
-0.000944772
-0.00144086
-0.00195002
-0.00246956
-0.00299685
-0.0035293
-0.00406439
-0.00459965
-0.0051327
-0.00566123
-0.00618301
-0.00669592
-0.00719793
-0.0076871
-0.00816154
-0.00861948
-0.00905924
-0.00947921
-0.00987791
-0.0102539
-0.0106059
-0.0109327
-0.011233
-0.0115059
-0.0117502
-0.011965
-0.0121496
-0.0123031
-0.0124248
-0.012514
-0.0125703
-0.012593
-0.0125818
-0.0125362
-0.0124559
-0.0123406
-0.0121901
-0.0120043
-0.0117831
-0.0115263
-0.0112341
-0.0109064
-0.0105433
-0.0101449
-0.00971146
-0.00924314
-0.0087402
-0.00820293
-0.00763168
-0.0070268
-0.00638871
-0.00571785
-0.00501469
-0.00427975
-0.00351355
-0.00271667
-0.0018897
-0.00103326
-0.000148003
0.000765388
0.00170621
0.00267372
0.00366717
0.00468576
0.0057287
0.00679515
0.00788426
0.00899517
0.010127
0.0112788
0.0124498
0.0136389
0.0148451
0.0160676
0.0173053
0.0185573
0.0198224
0.0210998
0.0223882
0.0236868
0.0249943
0.0263098
0.0276321
0.0289602
0.0302929
0.0316292
0.032968
0.034308
0.0356483
0.0369876
0.0383248
0.0396589
0.0409886
0.0423128
0.0436305
0.0449405
0.0462416
0.0475328
0.0488129
0.0500808
0.0513355
0.0525757
0.0538005
0.0550089
0.0561996
0.0573717
0.0585242
0.059656
0.0607662
0.0618537
0.0629176
0.063957
0.064971
0.0659586
0.066919
0.0678513
0.0687547
0.0696285
0.0704719
0.0712841
0.0720644
0.0728123
0.0735271
0.0742081
0.0748549
0.075467
0.0760438
0.076585
0.0770902
0.0775591
0.0779913
0.0783867
0.078745
0.0790661
0.0793501
0.0795967
0.0798062
0.0799785
0.0801138
0.0802123
0.0802744
0.0803003
0.0802905
0.0802455
0.0801657
0.0800519
0.0799048
0.0797249
0.0795133
0.0792709
0.0789985
0.0786974
0.0783686
0.0780134
0.0776331
0.0772291
0.0768029
0.076356
0.0758901
0.0754069
0.0749083
0.0743961
0.0738725
0.0733394
0.072799
0.0722535
0.0717053
0.0711568
0.0706103
0.0700685
0.0695339
0.0690092
0.0684969
0.0679998
0.0675206
0.0670621
0.0666268
0.0662176
0.0658371
0.0654879
0.0651727
0.0648942
0.0646548
0.0644571
0.0643041
0.0641982
0.0641389
0.00379235
0.0036504
0.00347973
0.00327423
0.00302996
0.00274965
0.00243602
0.00209136
0.00171802
0.00131843
0.000895024
0.000450283
-1.32983e-05
-0.0004932
-0.000986896
-0.00149188
-0.00200568
-0.00252586
-0.00305001
-0.00357577
-0.00410084
-0.00462297
-0.00514
-0.00564985
-0.00615052
-0.00664008
-0.00711668
-0.00757855
-0.00802398
-0.00845137
-0.00885921
-0.00924607
-0.00961059
-0.0099515
-0.0102676
-0.0105578
-0.010821
-0.0110563
-0.0112627
-0.0114395
-0.0115858
-0.011701
-0.0117845
-0.0118357
-0.0118541
-0.0118393
-0.0117908
-0.0117084
-0.0115918
-0.0114407
-0.0112551
-0.0110348
-0.0107798
-0.01049
-0.0101655
-0.00980643
-0.00941281
-0.00898484
-0.00852274
-0.00802675
-0.00749714
-0.00693425
-0.00633844
-0.0057101
-0.00504966
-0.00435759
-0.00363437
-0.00288054
-0.00209663
-0.00128324
-0.00044097
0.000429548
0.00132765
0.00225263
0.00320379
0.00418038
0.00518162
0.00620674
0.00725491
0.00832532
0.00941712
0.0105294
0.0116614
0.0128121
0.0139805
0.0151659
0.0163672
0.0175834
0.0188136
0.0200567
0.0213118
0.0225779
0.0238538
0.0251386
0.0264312
0.0277305
0.0290355
0.030345
0.0316581
0.0329736
0.0342903
0.0356073
0.0369234
0.0382374
0.0395483
0.040855
0.0421564
0.0434513
0.0447386
0.0460173
0.0472863
0.0485443
0.0497905
0.0510236
0.0522426
0.0534465
0.0546342
0.0558047
0.0569569
0.0580898
0.0592025
0.060294
0.0613633
0.0624094
0.0634315
0.0644287
0.0654
0.0663446
0.0672617
0.0681505
0.0690103
0.0698402
0.0706396
0.0714077
0.0721441
0.0728479
0.0735188
0.0741561
0.0747593
0.075328
0.0758618
0.0763603
0.0768233
0.0772503
0.0776413
0.0779959
0.0783142
0.078596
0.0788413
0.0790502
0.0792227
0.0793589
0.0794592
0.0795238
0.079553
0.0795471
0.0795068
0.0794326
0.0793249
0.0791846
0.0790123
0.0788088
0.0785751
0.0783121
0.0780209
0.0777026
0.0773583
0.0769893
0.076597
0.0761828
0.0757482
0.0752948
0.0748242
0.0743383
0.0738388
0.0733276
0.0728067
0.0722782
0.0717442
0.0712068
0.0706684
0.0701313
0.0695977
0.0690701
0.0685511
0.068043
0.0675483
0.0670697
0.0666094
0.0661702
0.0657545
0.0653647
0.0650032
0.0646725
0.0643748
0.0641125
0.0638881
0.0637043
0.0635593
0.063449
0.00453865
0.00434115
0.00412735
0.00388736
0.00361272
0.00330606
0.00297008
0.00260673
0.00221808
0.00180626
0.00137349
0.000922026
0.000454138
-2.7865e-05
-0.00052167
-0.00102497
-0.0015355
-0.00205098
-0.00256919
-0.00308792
-0.00360503
-0.00411842
-0.00462607
-0.00512603
-0.00561641
-0.0060954
-0.00656123
-0.00701222
-0.00744677
-0.00786335
-0.00826052
-0.00863691
-0.00899125
-0.0093223
-0.00962893
-0.00991005
-0.0101646
-0.0103918
-0.0105906
-0.0107604
-0.0109002
-0.0110096
-0.0110879
-0.0111346
-0.0111491
-0.011131
-0.0110801
-0.0109958
-0.0108781
-0.0107266
-0.0105413
-0.0103221
-0.0100688
-0.00978146
-0.00946015
-0.00910492
-0.00871588
-0.0082932
-0.00783708
-0.00734774
-0.00682548
-0.00627061
-0.00568347
-0.00506445
-0.00441397
-0.00373249
-0.00302047
-0.00227844
-0.00150693
-0.000706509
0.00012224
0.00097869
0.00186219
0.00277207
0.00370762
0.00466811
0.0056528
0.00666091
0.00769165
0.00874421
0.00981776
0.0109114
0.0120244
0.0131558
0.0143046
0.01547
0.016651
0.0178467
0.0190562
0.0202784
0.0215123
0.0227569
0.0240113
0.0252744
0.0265452
0.0278225
0.0291055
0.030393
0.0316839
0.0329772
0.0342718
0.0355666
0.0368605
0.0381524
0.0394413
0.0407261
0.0420056
0.0432789
0.0445447
0.045802
0.0470498
0.0482869
0.0495124
0.050725
0.0519239
0.0531079
0.054276
0.0554272
0.0565605
0.0576749
0.0587695
0.0598432
0.0608952
0.0619245
0.0629302
0.0639114
0.0648672
0.0657969
0.0666996
0.0675745
0.068421
0.0692381
0.0700254
0.070782
0.0715074
0.0722009
0.0728621
0.0734903
0.0740852
0.0746462
0.0751729
0.0756651
0.0761224
0.0765445
0.0769312
0.0772824
0.0775978
0.0778776
0.0781215
0.0783297
0.0785022
0.0786393
0.078741
0.0788078
0.0788398
0.0788375
0.0788015
0.078732
0.0786299
0.0784957
0.0783301
0.078134
0.0779081
0.0776535
0.0773711
0.077062
0.0767274
0.0763684
0.0759864
0.0755827
0.0751589
0.0747163
0.0742566
0.0737816
0.0732928
0.0727921
0.0722815
0.0717628
0.071238
0.0707093
0.0701787
0.0696485
0.0691208
0.0685979
0.068082
0.0675756
0.0670809
0.0666002
0.0661358