/*--------------------------------*- C++ -*----------------------------------*\
  =========                 |
  \\      /  F ield         | OpenFOAM: The Open Source CFD Toolbox
   \\    /   O peration     | Website:  https://openfoam.org
    \\  /    A nd           | Version:  7
     \\/     M anipulation  |
\*---------------------------------------------------------------------------*/
FoamFile
{
    version     2.0;
    format      ascii;
    class       volScalarField;
    location    "1.372";
    object      p;
}
// * * * * * * * * * * * * * * * * * * * * * * * * * * * * * * * * * * * * * //

dimensions      [0 2 -2 0 0 0 0];

internalField   nonuniform List<scalar> 
12359
(
0.0611341
0.0706208
0.043775
0.104257
0.0647478
0.151345
0.182838
0.165485
0.223523
0.139456
0.203827
0.27425
0.481481
0.111581
0.0988942
0.392676
0.436046
0.0486724
0.0482521
0.0840403
0.120109
0.248635
0.0770354
0.0894522
0.0735354
0.0801221
0.045063
0.044923
0.0474957
0.0456157
0.0460859
0.0443635
0.0439622
0.045396
0.0438113
0.0462852
0.0540837
0.0593434
0.0631124
0.056713
0.0685326
0.0579157
0.0515653
0.0508749
0.0468472
0.0471496
0.0465571
0.0458695
0.0478686
0.0452132
0.0447792
0.0446178
0.0442742
0.0491116
0.0441806
0.0439984
0.0502002
0.0439488
0.0439267
0.0438625
0.044051
0.0438044
0.0446805
0.511531
0.0496067
0.128844
0.0533074
0.0445194
0.0548251
0.346351
0.529496
0.0665338
0.0437657
0.0557005
0.0944914
0.0438218
0.0442582
0.0437858
0.0525304
0.315512
0.122325
0.039516
0.0426282
0.0464027
-0.0582575
0.0219696
0.0394001
0.0407928
-0.0696554
-0.0522752
0.0435248
0.473448
0.043458
0.0442927
0.0451072
0.00451437
0.0436051
0.0443092
0.0547875
0.0508127
0.105215
0.043643
0.0225333
-0.123775
0.0381596
0.0117529
0.042324
-0.0569277
0.0269144
0.0121054
0.0436482
0.0396606
0.106598
0.0880593
0.0453717
0.0396435
0.0900079
0.0385842
-0.0744278
0.042676
0.0437466
0.171377
0.0405986
0.00435597
0.038352
0.0393165
0.0362637
0.0462894
0.0437725
0.0381428
0.0398916
-0.00264472
-0.00418692
-0.002839
0.0423606
0.00532234
0.0395689
0.00526948
0.0436809
0.0364539
0.0428536
0.0626055
0.0130957
0.0423231
0.00705809
0.143777
0.0426404
-0.0465172
0.0379974
0.123822
0.000546462
0.0436619
0.0132185
0.0405343
0.0434002
-0.181619
0.10602
-0.00176263
0.0437004
0.0444397
0.0431562
0.044497
0.00308239
0.0101262
0.0426062
0.0392936
0.0442161
0.170879
0.0117046
-0.0714266
0.0437868
0.0438152
0.0103938
0.073391
0.0382405
0.0401782
0.0475057
0.0472856
0.107886
0.0406756
0.111868
0.0433761
0.043774
0.0392598
0.0537231
0.202663
0.0395221
0.0441953
0.00162815
0.0393233
0.0444733
0.00350221
0.00666829
0.0404212
0.0109051
-0.134831
0.0299011
0.0403645
0.0136391
0.0387242
0.147796
0.00109194
0.0518921
0.011779
0.0103067
0.0433519
0.0093008
0.0524933
0.00173798
0.0381415
0.0430373
7.46256e-05
5.68358e-05
-0.527239
0.198059
0.0436846
0.0398958
0.0453366
0.0397845
0.0632861
0.0980864
0.0381097
0.00432328
0.46465
0.0380348
0.0430111
0.0640934
0.027221
0.0435831
0.0411829
0.0410167
0.0426154
0.00784933
0.052257
0.0436528
0.0513632
0.0426676
0.0125882
0.0438593
0.289887
0.0425562
0.0198239
0.0438357
0.0533256
0.0421503
-0.0467861
0.0439128
0.00148787
0.0379547
0.00716817
0.00131278
0.0586923
0.0468723
0.0414589
0.320249
-0.579119
0.042684
0.0378963
0.397146
-0.0553322
0.0514553
0.0431302
0.0431939
0.0107212
0.0717843
-0.446944
-0.0689902
0.0420767
0.0380943
0.00572271
0.0105784
0.0575269
0.0116784
0.0415407
0.0379931
0.0426147
0.0380233
-0.116927
0.0408722
0.04216
0.0436308
0.0101238
0.0359737
0.0534161
0.0203134
0.0427648
0.0454657
0.0436523
0.0436305
0.0443978
0.00298463
0.0390722
-0.452226
0.0422955
0.0423103
0.0226687
0.0382162
0.098014
0.04501
0.0448344
0.0435495
-0.105087
0.0426889
0.0435475
0.040158
0.0446233
0.0377826
0.0391418
0.0398192
0.0385584
0.0486664
0.200998
0.0376159
0.0461764
0.0593111
0.0203105
-0.0572786
0.0372006
0.0554005
0.368173
0.043621
0.0169375
0.0420355
0.0301761
0.0422736
0.0368127
0.226695
0.0164067
0.202833
0.0529004
0.0435144
0.00655211
0.00247473
0.0434474
0.00619176
0.00679153
0.0416457
0.0441462
0.0441385
0.0442124
0.0441878
0.288008
0.0427385
0.102015
0.000560547
0.052478
0.0114565
0.0165575
0.0230279
0.0308559
0.015648
0.0313761
0.0542835
0.0182893
0.0196644
0.0898903
0.0634084
0.0134277
0.0616188
0.0614723
0.0142337
0.102524
0.0400306
0.0442462
0.0285803
0.0442042
0.0398179
-0.184724
0.496205
0.0400004
0.0437266
0.042374
0.0432367
0.0154223
0.043409
0.0433862
-0.0758977
0.010631
-0.0479569
0.0418528
0.00862036
0.0359882
0.0441027
0.0141417
0.0283041
0.107938
0.028583
0.0402451
0.0421548
0.0101382
0.00818251
0.0373467
0.293893
0.0139046
0.00353253
0.047328
0.0445033
0.0437014
0.381728
0.0116392
0.0419946
0.0612175
0.0604862
0.0428753
0.0428377
0.043158
-0.0564581
0.09684
0.0565201
0.0160084
0.000666516
0.0453018
0.111652
0.0467804
-0.000124069
-0.0614638
0.299921
0.051329
0.0894319
0.0263334
0.0204362
0.0325932
0.0282693
0.0456465
0.0324761
0.0134543
0.0434157
-0.0584452
0.0539987
-0.00740196
0.00711871
0.0506667
0.0935794
-0.14528
0.0151351
0.0364364
0.00275567
0.00685601
0.0170912
0.0388618
0.0430887
0.0505249
0.0422766
-0.00340393
0.0397543
0.0799124
0.0828531
0.0332898
-0.055495
0.102039
0.0504419
0.0424837
0.38986
0.0416795
0.0416943
0.00384827
0.0437346
0.04239
0.0416421
0.233859
0.198774
0.0459931
0.0408809
0.10719
0.0458079
0.0162281
0.0130615
0.0112555
0.0415386
0.0432171
0.0454106
0.0435633
0.0822759
0.0167848
0.0200788
0.0470868
0.0493744
0.00144166
0.0457491
0.0430362
0.0372712
0.11771
0.00320581
0.0436577
0.0452092
0.00972946
0.0279637
0.0461517
0.0393359
0.11054
0.0154661
0.00589911
0.0188756
0.0415142
0.0432266
-0.0066423
-0.00474431
0.0435557
0.0339155
0.0485295
0.00290895
0.281241
0.0431343
0.0399563
0.0416642
0.0125666
0.0504717
0.0491553
0.0394152
0.046794
0.0273213
0.0722539
0.0348121
-0.0358543
0.0423696
-0.0412634
0.0409096
-0.119824
0.0148351
-0.0037747
0.0439245
0.0468488
0.0197459
0.0392361
0.0447454
0.0519837
0.0507402
0.0510028
0.0696585
0.0124335
0.011992
0.0426518
0.0389022
0.0166854
-0.0037663
0.0426528
0.0421283
0.00986197
0.0416715
0.221139
-0.150479
-0.122003
0.0426522
0.0375811
0.000894152
0.0495737
0.0384646
0.451227
0.0422141
0.110949
0.0858212
0.0374231
0.0384834
0.0449022
0.0336691
0.000410218
0.0275064
0.0476649
0.0426911
0.0437743
0.0502342
0.0475052
0.0531351
0.0120284
0.0444543
0.0421952
0.0185529
-0.087228
0.046033
-8.35862e-05
0.0424142
0.048206
0.0924014
0.000295429
0.00134528
0.0939086
0.0426133
0.00107737
0.0429254
0.0438512
0.000268249
0.0337493
0.0420212
0.0336956
0.043301
0.0421553
0.0387506
0.0462921
0.00126276
0.100518
0.0543521
0.115588
0.0136521
0.0364347
0.110258
0.059373
-0.00590561
0.011351
0.0603665
0.0517416
0.0438678
0.0359335
0.0188939
0.0426457
0.0437438
0.0415963
0.0439152
-0.0167251
0.0343017
0.0308795
0.101836
0.0522931
0.23073
0.00259267
0.000991253
0.0384575
-0.00282188
0.0432805
0.0472443
0.0429609
0.103232
0.111162
0.0428587
0.027629
0.225159
0.0136519
0.00457038
0.0351328
0.063865
-0.126592
0.0412789
0.0453529
0.0433275
-0.0110618
0.0452257
0.0282877
-0.0547407
0.0421797
0.0736793
0.0546868
0.0380617
0.0463092
0.0431498
0.0442676
0.0498885
0.0443161
0.0441913
0.049102
0.00448045
0.00798696
0.0381145
0.335093
0.000384478
0.406907
0.0148253
0.0205686
0.0494678
0.0159892
0.0534522
0.00389126
0.31672
0.0952036
0.0525391
0.040645
0.0489711
0.0474693
0.0194026
0.0430854
-0.00933593
0.04434
0.0966066
0.0465345
-0.0151998
0.00646722
0.00953564
0.0533072
0.0355581
0.00695042
0.0740955
0.00423925
0.037416
0.00181719
0.0399579
0.0427061
0.0467928
-0.198131
0.0690038
0.0375425
0.0425882
0.0445709
0.0498313
0.0793036
0.00789876
0.0138198
0.041587
0.0390114
0.0520658
0.0374556
0.0349387
0.000817545
0.0506897
0.0544145
0.00773127
0.0387985
0.0362205
0.101132
0.0426546
0.0509649
-0.253435
0.0439069
0.00587642
0.0492339
0.0365935
0.0862182
0.00819711
0.047663
0.0170288
0.0437687
0.108511
0.0377361
0.00795485
0.00917482
0.109967
0.0436181
0.000628716
-0.00646003
0.0533548
0.0388086
0.038715
0.0344645
0.23508
0.04837
0.0437036
0.0515361
0.0434319
-0.124446
0.0388055
0.00902868
0.0285283
0.0133749
0.514796
0.0385058
-0.0552099
0.00845032
-0.093851
0.0160682
0.0476428
0.0384383
0.0281288
-0.0481165
-0.0365333
0.0410599
0.0405886
0.115549
0.0399603
0.207344
0.0179568
0.0688068
0.0390374
0.403695
-0.101925
0.0393589
0.0427141
0.0434085
0.0903527
0.0499538
0.0545153
0.0474262
0.0127984
0.0736175
-0.0328555
0.353129
0.0415699
0.0795722
0.0123396
0.117712
0.0400202
0.111307
0.00605087
0.0915481
0.0465767
0.0425775
0.00802455
0.00532818
0.0145548
0.114811
0.0114034
0.0209125
0.0478762
0.043053
0.0347835
0.240736
0.0348367
0.0102034
0.063494
0.0173258
0.0324159
0.0482292
-0.00562125
0.029273
0.0395526
-0.018346
0.0547253
0.0236797
0.194164
0.042691
0.0290399
0.0465153
0.0519633
0.0393228
0.0473192
0.0426499
0.00081079
0.0370749
0.0736454
0.0107232
0.091931
0.0277928
0.0282838
0.00867108
-0.186986
0.0438878
0.0511895
0.0220072
-0.0688751
0.00570742
0.0435064
0.501809
0.0426021
0.0380949
-0.157852
0.0496791
0.0438971
0.0440173
0.0621865
0.0861606
0.0439196
0.0509405
0.106188
0.0470932
0.0492527
0.0478208
0.041306
0.0872861
-0.0178495
0.0500724
0.11335
0.00808615
0.0057059
0.0047289
0.0134416
0.0478331
0.038004
-0.0407206
0.00341006
0.0693618
0.0427614
0.0439461
0.114296
-0.00260709
0.0300672
0.035352
0.0298175
0.0473856
0.0382743
0.0805718
-0.217176
0.368107
0.0792125
0.0461889
0.038195
0.0763988
0.346277
0.10779
0.0435274
-0.000923958
-0.0134122
-0.239784
0.0322899
-0.150162
0.0439104
0.0477891
0.043964
0.00539309
0.0711743
-0.155164
0.0372173
-0.0834419
0.0397204
0.0466901
0.00889317
0.0492095
-0.00024713
-0.043231
0.0505382
0.0318373
0.0213342
0.0325415
0.0503481
0.0739385
0.0688956
0.0277507
0.0766859
0.050529
0.044009
0.0486836
0.0446301
0.101879
0.019354
-0.00832741
0.00167029
0.082173
0.0222563
0.0205237
0.0388768
-0.00971846
0.0307335
0.049723
0.0433448
-0.00153008
0.105246
0.0372554
0.0376622
0.0518051
0.021117
0.0991998
0.112662
0.0209999
0.237854
0.0197406
0.0833638
-0.0403823
0.0488499
0.0179831
0.00951228
0.0403016
0.030489
0.0346452
0.0401225
0.0429185
0.0397425
-0.014925
-0.0026874
0.0388964
-0.129419
0.0972584
0.0444942
0.0493243
0.000470248
0.044386
0.0764073
0.011737
0.00382755
0.0443294
0.047042
0.0437924
0.0443879
0.114987
-0.133627
0.0447433
0.0555026
0.0426625
-0.141995
0.0194414
0.012382
0.0423226
0.0446208
0.0478047
0.022294
0.0828514
0.0256301
0.0428042
0.0477663
0.0442613
0.0189253
0.081306
0.0345157
0.0437375
0.0276144
0.0228162
0.071597
0.0390351
-0.0174997
0.142154
0.0404196
0.0298544
0.0474873
0.039451
-0.175164
0.0503094
0.0445579
0.00922244
0.101349
0.0785892
-0.135227
0.0720956
0.0314693
0.0251659
0.051711
0.0356181
0.0312469
0.0509247
0.143496
0.0457411
-0.326614
0.0796218
0.178238
0.0356729
-0.00597126
0.092664
-0.00252858
0.259467
0.00560076
0.0230206
0.0304065
0.035273
0.0426077
0.0396951
0.0846987
0.000629847
0.0511221
0.040398
0.00474894
0.0147959
0.00459201
0.0768888
-0.00071725
0.0042248
0.0429334
0.0669265
-0.0510869
0.0839335
0.0425848
0.0310956
0.048404
0.0425951
0.0654361
0.0438957
0.039826
0.240651
0.0885748
-0.0180212
0.0439439
0.043591
0.0434515
0.0511916
0.0482226
-0.00280345
0.0483913
0.0434739
-0.017047
0.0192135
0.00278568
0.0649133
0.0482685
0.0369756
0.0895073
0.0308051
0.0439773
-0.0421078
0.00857891
0.109096
0.0447485
-0.228998
0.0937455
0.0471865
0.00197762
0.0356394
-0.0275229
0.0320008
-9.25941e-05
0.0907055
0.0462725
0.0458672
0.0191305
0.0385821
0.0499293
-0.00818557
0.0498551
0.0499417
0.0950062
0.0401542
0.0476537
0.031842
0.00740959
0.0484617
0.0499171
0.0481291
0.0424776
0.0925802
-0.0416133
0.0234254
0.0512116
0.0497276
0.036796
0.0431754
-0.186751
0.075531
0.0436463
0.067258
0.0368327
0.0956948
0.149523
0.000233315
0.050168
0.00391936
-0.00307844
0.0422473
0.0370216
-0.00186338
0.0385875
0.0437151
0.0684406
0.0244133
0.0490161
0.0437484
0.0380843
0.0822529
0.0444354
0.0296449
0.0439059
0.0344437
0.0630324
0.130291
0.0431986
-0.195642
0.0765032
0.0137696
-0.116191
0.0888702
0.0285509
-0.0286599
0.0517132
0.139999
0.205986
0.0495114
0.0399693
0.0398519
0.0465937
0.0483794
0.00557633
-0.0774308
-0.138301
0.00724538
0.144941
-0.00709903
0.00863398
-0.0596538
0.0432785
0.0468889
0.0457325
0.0221353
0.0435074
0.00675855
0.0327267
-0.0125709
0.0427268
0.0467289
0.0409053
-0.143793
0.1159
0.0745439
0.0568405
0.119296
0.0400585
0.0446229
-0.0168574
0.0324417
-0.0125814
0.00601173
0.0187512
0.00310721
0.0127543
0.0520326
0.0427781
0.0432742
-0.120416
0.0398913
0.0351582
0.0513353
0.00143294
0.0162602
0.0432499
0.0169361
-0.0140565
-0.000235929
0.0906013
0.0491495
0.0437045
0.00348628
0.0514638
0.0433782
-0.00161162
0.00601791
0.047797
0.135053
0.000606134
0.0433952
0.0438813
0.0424422
0.103737
-0.130414
0.0394138
0.00860734
0.0470196
0.0481512
0.00871598
0.0436071
0.177286
0.0125203
-0.0549865
0.150293
0.026927
0.0433275
0.0430925
0.0295539
0.0516297
0.0430208
-0.173246
0.00398
0.0411173
0.21913
0.0978501
0.0371849
0.0426515
0.0439893
0.0500704
-0.0742967
0.157974
0.0302913
0.0736049
0.0623315
0.00453039
-0.0768159
0.0241228
0.04965
0.0487945
0.0144943
0.0362338
0.0416154
0.0463454
0.00239876
0.0482507
0.02935
0.0503122
0.0781837
-0.0121028
0.041725
0.0464505
-0.00470072
0.00223324
0.0538402
0.0459388
0.0727157
-0.000760165
0.0362623
0.015271
0.0702042
0.0132577
-0.0340737
0.0486253
0.155741
0.0428773
0.103265
-0.00116044
0.0436156
0.0432366
0.370184
0.044181
0.0515894
0.0238555
0.0494393
0.0495882
0.0528295
0.0440457
0.0434394
0.000207546
-0.0262154
0.0411766
0.330428
0.0331785
0.0460828
0.233835
0.0970896
0.0523153
0.040904
0.0458275
0.0845372
-0.253092
0.0493187
0.0410737
0.0427207
0.0465728
0.0596586
0.0142924
0.0487864
0.0599499
0.0473133
-0.149131
-0.00704036
0.00579687
0.106717
0.0331048
0.0461718
0.00326516
-0.115206
0.0486659
0.0429766
0.0460897
0.0449532
0.0493707
0.0424853
-0.00417745
0.0405556
0.0380009
0.30452
-0.00112735
-0.00997529
0.00267616
0.0492182
0.000267786
0.0848856
-0.0877684
0.0425195
0.00854446
0.0435906
0.234308
0.042725
0.0441264
0.0269399
0.042771
0.0230351
0.0542521
0.0495161
0.0423445
-0.0922982
0.0851417
0.00865257
0.0464431
0.0332286
-0.059535
-0.00856222
0.0752512
0.0709199
0.0447008
0.0506453
0.0393494
0.0463738
0.041214
0.0463595
0.0861431
0.0728129
0.00550633
-0.103854
0.0238952
-0.00928939
0.0303322
-0.107721
0.0424101
-0.0301703
0.0461661
-0.0115092
-0.00711875
0.0224866
0.0439651
0.0266474
0.00879781
0.0285416
-0.0180202
0.230561
-0.101709
0.0461718
-0.00291175
0.0452154
-0.00614711
0.088935
0.00275342
0.0390572
0.052697
0.00749687
0.0471552
0.0339312
0.0444804
0.0420391
0.042857
0.0505143
0.00512767
0.000892432
0.0433929
0.0806241
-0.0830008
0.49542
0.0425116
0.0694979
0.0236588
0.191359
0.0289646
-0.176581
-0.0346835
0.0420976
0.021756
0.0658311
0.172839
0.047975
0.0635107
0.0765293
0.0409324
-0.0862544
-0.00551172
0.0459948
0.0244216
-0.0355314
0.0725339
-0.0883783
0.0337736
0.0777301
0.0494753
0.0424622
0.0511232
0.0401506
-0.073664
-0.000507014
-0.0640731
0.0444982
-0.0853284
0.0271504
0.0023907
0.107836
0.0220194
0.0246959
-0.0550245
0.0335311
0.0327551
0.00397122
0.0684046
0.0233703
0.0070822
0.0655752
-0.0884301
0.0822385
0.0318685
0.0865735
0.0442805
0.111881
-0.000273569
0.099166
0.0487281
-0.0364617
0.0433578
0.0309863
0.00616111
-0.00106699
0.0526752
0.00476474
0.0440907
0.502429
0.0502924
0.00380248
0.0876387
-0.000180451
0.00571388
0.0444062
0.0284647
0.0430138
0.462573
0.0433362
0.0431893
0.0424517
-0.0152755
0.0381114
0.0410316
-0.0138424
0.0246785
0.060024
0.038394
0.042903
0.105109
0.0411253
0.100502
0.00661878
0.0821222
0.0382583
0.0370601
0.0230218
-0.0138147
0.00760749
0.0392029
0.522031
0.0433062
0.0429959
0.050806
-0.130403
0.0487276
0.0271794
0.0778335
0.048178
0.0368227
0.00165952
-0.0235915
0.0306143
-0.0467327
0.0491312
0.0404642
0.0116736
0.0163449
-0.000750035
0.0460769
0.0218223
0.0677716
0.191458
0.0334276
0.0433073
0.0418787
0.175412
0.0437336
0.043742
-0.0358135
0.0294536
-0.0403509
0.0368206
0.0427333
0.185992
-0.0151399
0.0382494
0.0495543
0.0410832
-0.108611
0.0437439
0.0309991
-0.0280473
0.0437441
0.0428896
0.00754933
0.0424561
0.0437564
0.0108301
0.0492756
0.043116
0.0196122
0.0426395
-0.0135158
0.0427176
0.0570527
0.116909
0.00666564
0.043765
0.00367903
-0.16874
0.036643
0.0701024
0.0402491
0.0323846
0.0413893
-0.0185425
-0.00688421
0.0409945
0.0428737
0.129401
0.0277885
0.0128556
0.00869163
0.127067
0.0424954
0.0044306
0.0428496
-0.0209409
-0.00650394
-0.00566318
0.00634373
0.152805
-0.0878563
0.00415743
0.00785251
0.0459689
0.0467219
-0.000366224
0.133271
0.0949062
0.029704
-0.0727732
0.0421669
-0.0629737
0.195259
0.0431957
-0.00890219
-0.0254425
0.0770045
0.00586765
0.00530061
0.0685617
0.0431779
-0.0128537
-0.0647639
0.255529
0.0493807
0.00166143
-0.0316696
0.139731
0.0456073
0.0428742
0.00479538
-0.0534432
0.0391781
0.0668554
0.0431647
0.0425045
0.0547387
0.0490042
0.0224198
0.0498849
0.0428077
-0.0163916
0.0317133
-0.027064
0.0129849
0.0432503
0.0429228
0.140257
0.0488539
0.0766224
0.0587407
-0.0477757
0.0771446
0.0423475
-0.0230416
0.0535554
0.0430358
0.0243623
0.0368033
0.0363737
0.0923489
0.022472
-0.135623
0.038796
0.0430398
-0.0280937
0.0423864
-0.00702396
0.0280829
-0.0262024
-0.0482011
0.0924846
-0.031858
0.0432998
-0.0099348
0.0477596
0.0679393
-0.0242442
0.0178804
-0.0241016
-0.0635408
0.169684
-0.0125893
0.0627219
0.0423831
0.0428875
0.0423545
-0.0319486
0.137587
0.0424568
-0.0153869
-0.020532
0.0121766
0.00106168
0.0244392
0.106122
-0.0299708
0.0497265
0.00997095
0.0226054
0.043577
0.0436031
0.045362
0.0492061
0.00868491
0.0431483
0.0470677
0.0504555
0.0696361
0.000361609
0.0432833
-0.0198167
0.0427173
0.00270062
0.0136749
0.0458183
0.040555
3.93101e-06
-0.0211351
0.0328709
0.0751526
0.0488614
0.0239269
0.0289608
0.0429367
0.0478313
0.0486239
0.0459054
0.0429497
0.0652927
0.0429264
0.122463
0.0109202
-0.0897562
0.0430453
0.0551206
0.0431975
0.0439311
0.119248
0.0542503
0.0426527
0.313584
0.131522
0.0348148
0.0603735
0.0367738
0.117301
0.0159553
0.00704752
0.0538193
0.0503339
0.0428611
0.0455065
-0.0128845
0.0426056
0.0454253
0.120377
0.0461607
0.0479523
0.0244526
0.0431996
-0.0361442
0.0430903
0.0453499
0.00634734
0.00752593
-0.0713706
0.107656
0.0661759
0.0456603
0.0056405
0.0455845
0.0230138
0.00267803
0.0502463
-0.0277551
0.0438329
0.0239641
0.0658562
0.0504879
0.0978723
0.0429725
0.0501623
0.0428235
0.0269332
0.0424682
0.0512191
0.0214025
0.0406502
0.0662884
0.0243574
0.0429076
0.0248094
0.0102938
0.0501403
0.00670807
-0.0144195
0.0428746
0.0279872
0.107642
0.00136668
0.0514947
0.0407725
0.0408734
0.0222182
0.052181
0.148587
0.0497482
0.0435593
0.0435762
-0.0226739
-0.00898231
-0.0229072
0.279742
0.0971922
0.0483217
0.0231094
0.00901183
0.0439383
-0.0601739
0.0483508
0.102154
-0.000525207
0.0454339
0.140961
-0.0088815
-0.0175331
0.0202181
0.0268414
0.0438195
0.0422532
0.0588915
0.0428966
0.0428966
0.134035
0.0463561
0.0594304
0.0424195
0.0341196
0.042952
0.364968
0.0362228
0.0383088
-0.0101781
0.100159
0.0918543
0.0317419
0.10589
0.0438003
0.0431829
0.00333814
0.0705488
0.120941
0.0448888
-0.000716368
0.0373277
0.0483593
0.0470356
0.0432684
0.0622283
0.0362803
0.0435174
0.0279209
0.254353
0.0436719
0.00988322
0.02871
0.0432148
0.05821
0.0464003
0.0251916
0.0434295
0.043178
0.0118941
0.0270789
0.0876354
0.138519
-0.225298
0.0500602
0.0600018
-0.0400667
0.0302352
0.0463125
0.0375208
-0.000973569
0.0429867
0.047527
0.0428617
0.0276916
0.0626697
0.015571
0.0429353
0.0561659
0.0305834
0.0489625
0.116609
0.0400257
0.0425736
0.0429404
0.0269426
0.0199664
0.305412
0.0554074
0.0784794
0.00414597
0.00318888
0.0428637
0.0967131
0.0429614
0.0429525
0.0435889
-0.00350167
0.0491985
0.0324523
0.00533199
0.0176762
0.00458115
0.0275732
0.0622873
0.110249
0.0415102
0.0093647
0.0878751
0.0299437
0.124675
0.0479077
-0.153418
0.139865
0.13187
0.0422325
-0.111081
0.00412616
0.00612625
0.133776
-0.000393268
0.0543459
0.050635
0.034219
0.0317668
0.0298808
0.209759
0.0713575
0.0482385
0.012286
0.0488587
0.0320833
0.0209028
0.0898227
0.0320633
0.0638152
0.0796965
0.00439834
0.0936822
0.0285168
0.0439375
0.0548927
0.0435502
0.0433763
0.0413843
0.0486873
0.0169289
-0.0499417
0.0430022
0.162434
0.0422652
0.0361232
0.00702473
0.0276149
0.0305491
0.0411623
0.00572645
0.0101783
0.248337
0.042994
0.00721645
0.0332182
0.00834409
0.0436039
0.0431832
0.147363
0.020942
0.0291074
-0.119671
0.0243905
0.0363521
0.13406
0.0118597
0.117667
0.0500005
0.0153902
0.0332968
0.0407231
-0.0285772
0.0054718
0.0177688
0.0302563
0.0424995
0.00467806
0.00436115
-0.00100972
0.0351966
0.0341852
0.413755
-0.038766
0.0421976
-0.0143309
0.0174089
-0.104158
0.0428337
0.0294456
0.0297
0.0427853
0.00248283
0.0244781
0.0481887
-9.77057e-05
-0.0237554
-0.00165481
0.0508588
0.0212756
0.0436624
0.0395018
-0.0254948
0.0792952
0.0253486
0.00539518
0.143763
0.0220947
0.0172456
0.0187047
0.0057077
-0.0286457
0.0413212
0.0190339
0.0132167
0.0891521
0.274587
0.0111487
0.0321911
0.017985
0.0428236
0.0894804
0.0287076
0.00729709
0.042802
0.032068
0.00484413
0.0118463
0.14567
0.00878389
0.0264774
0.0269964
0.0489135
0.00198277
0.0235723
0.0711004
0.0549283
0.0509269
0.00849452
0.0326879
0.0379506
0.0343454
0.0432505
0.00454963
0.0587493
0.0263334
-0.0046156
-0.0455348
0.0382092
0.0249764
0.014164
0.021282
0.0429662
0.0963311
0.0954822
0.0694403
0.0435884
0.225363
0.00532311
0.0508574
0.0863643
0.0423361
0.0523682
0.0293976
0.0239904
0.0524649
-0.101148
0.0446886
0.0547929
0.0386689
-0.0128715
-0.0310055
-0.000574914
0.0587161
0.00751402
0.0436318
0.026552
0.0708373
0.0447244
0.146589
0.0146358
0.0251499
0.0065734
0.0621889
0.0192625
0.0350862
0.0425521
0.0426506
0.043602
0.0588619
0.120931
0.0130934
0.14389
0.0805992
0.0861301
0.0454109
0.0654136
0.00559072
0.043138
-0.0255241
-0.0204413
0.0467734
0.0429172
0.0354763
0.041003
0.0426383
0.0607285
0.03086
0.128498
0.0138347
0.0327072
0.0852805
-0.0116326
0.00428419
0.0834031
0.0105854
0.0210179
0.0672835
0.0424194
0.0580397
0.0246454
0.118813
0.126634
0.216755
0.0426905
0.123509
0.0300124
0.0287547
0.10142
0.103869
0.0969183
-0.02555
0.0184005
0.0649452
0.0183357
0.0353225
0.0428961
0.0876254
0.042401
0.01408
-0.0303508
0.0547478
-0.0265332
0.0420578
0.0804793
0.0497768
0.0274988
0.099101
0.160701
0.0193246
0.039157
0.0145329
0.0305049
0.0690368
7.45514e-06
0.0786103
-0.00302279
0.0427111
0.0187653
-0.139517
0.0963805
0.0322684
-0.0426587
0.00844166
0.037901
0.0416508
0.101542
0.0900016
0.0307532
0.0539183
0.0449268
0.00455117
0.0394794
0.00281846
0.0775882
0.0329969
0.138635
0.0427016
0.0402137
-0.000623595
0.0335542
0.0340524
0.0618661
0.0518374
0.0266134
0.164161
0.104211
0.0424687
0.00405834
0.0391422
0.0424698
0.130211
0.0426171
0.0190766
0.0219117
0.0423376
0.042552
0.0474268
0.00600296
0.0569684
0.094338
0.0256782
0.12665
0.0300917
0.0302844
0.0341721
0.0749314
0.0429935
0.0358831
0.0334267
0.0238505
-0.0229565
0.00765341
0.0620583
0.0416552
0.0512579
0.0282658
0.0386056
0.0566577
0.0184366
0.103011
0.0294383
0.0424973
0.00676778
0.0832778
0.00584463
0.0427959
0.132017
-0.0239793
0.0406497
0.0946446
0.00466473
0.0478273
0.0933119
0.00206916
0.0856424
0.110493
0.00286129
0.0447913
0.0752386
0.0725925
0.0120215
0.0400535
0.0280619
0.0426534
0.0432779
0.0424887
0.0110663
0.0149643
0.0184388
0.0789504
-0.0660216
0.165745
-0.0654924
0.0252168
0.0408912
-0.0442689
0.0477942
-0.0982068
0.02981
0.0203997
0.0157972
0.0257394
0.0612052
0.0364685
0.0296215
0.0491293
0.0427487
0.0740768
-0.0400695
0.0113903
0.00514128
0.0147864
0.0473971
0.0251629
0.0141866
0.0493896
0.0215061
0.0344213
0.115826
0.082236
0.077443
0.0895709
-0.0018952
-0.000148747
0.0046888
0.0203005
-0.00539516
0.0121554
0.0545613
0.0405002
0.127708
0.0699207
0.00556347
0.0433258
0.0921264
0.12369
0.0703586
0.0758387
0.0521971
0.0144635
0.11093
0.0258079
0.0216583
0.0309536
0.0298706
0.0420153
0.0254332
0.026954
0.0489793
0.0176015
0.0268529
0.0391373
0.100972
0.0393989
0.0385346
0.071876
0.0514627
0.0422407
0.0458232
0.00168323
0.0137783
0.0437775
0.0681581
-0.0543134
0.00519897
0.0512509
0.0167768
-0.0203036
-0.0414616
-0.00606332
0.0304734
0.0305796
0.0499508
0.0301304
0.0234275
-0.000271102
-0.00139199
0.00161425
0.000609159
0.0312297
0.0415882
0.0413174
0.126071
0.0576242
0.032342
0.0342689
-0.000407879
0.0401401
0.0245495
0.14637
0.0834314
0.00968604
0.0489021
0.0138552
0.0422961
0.00705253
0.000451194
0.0245671
0.0424565
0.0546202
0.16337
0.0368614
0.085079
-0.0176244
0.0428297
0.0313394
0.0906232
0.097754
0.0662552
0.0441836
0.0401345
0.0412276
0.0435106
0.0425871
0.037471
0.00566925
0.0423902
0.0519851
0.0484368
-0.32924
0.115736
0.0412973
0.0426815
0.00896514
0.0141705
0.0217349
0.0730257
0.0152764
0.0417661
0.0373533
0.00370522
0.0434116
0.0113676
0.0894805
0.0673458
0.0409852
0.00998969
0.0431138
0.0357813
0.0339461
0.0368299
-0.00373885
0.0557414
0.0316082
0.0300483
0.107212
0.077719
0.0422398
0.0428599
0.032513
0.0297177
0.0116135
0.017472
0.0363922
0.00616353
0.0761976
0.0435578
0.033742
0.00475138
0.0352773
0.0812224
0.0594382
0.0464639
0.147833
0.0198112
0.12236
0.137202
0.0247438
-0.00267948
8.51955e-05
0.122636
0.0353821
0.00504932
0.0705382
0.0326479
0.0183605
0.0865753
0.0682456
0.0460808
0.00205019
0.0292025
0.0247797
0.0369558
0.00453662
0.0449952
0.0764347
0.0447754
0.0534263
0.0820426
0.0497307
0.0375043
0.102851
0.0061983
0.087613
0.0254395
0.0681279
0.00718909
0.057515
0.0101833
0.0443795
0.0273698
0.0080945
0.0633175
0.025289
0.044328
0.0383203
0.0124831
0.0427104
0.0314817
0.0522821
0.0329172
0.0196896
-0.00189448
0.0920464
0.100792
0.0970423
0.0374465
0.0361395
0.0315595
0.0163857
0.0257782
0.0432291
0.0495053
0.0661163
0.0216305
0.0547275
0.00368099
0.0279964
0.0528884
0.0297469
0.0291697
0.0403469
0.0268228
0.0338444
0.130917
0.25601
0.0201155
0.0229351
0.0259853
0.028648
0.0342612
0.0321482
0.0301325
0.0213534
0.0107391
0.0412975
0.0426605
0.0416035
0.0052133
0.0428984
0.0266956
0.0378163
0.028302
0.0554207
0.0306055
0.119689
-0.00817053
0.0423881
0.0324846
0.0872806
0.0377756
0.0566791
0.0867862
0.0482647
0.0427406
0.0278544
0.00262712
0.0832729
0.00239448
0.111626
0.0802073
0.00290406
0.0586604
0.0645611
0.0081118
0.0389995
0.0430964
0.0442882
0.0328098
0.0421252
0.0290038
-0.0395073
0.0412291
0.0759637
0.0392647
0.0577636
0.0584938
0.157421
0.0496464
0.0381641
0.00401348
0.011165
0.0830687
0.0286263
0.0796973
0.0442238
0.0341251
0.0608915
0.0420218
0.0298549
0.0435599
0.0442636
0.0282069
0.0421229
0.031188
0.0577402
0.0773827
0.0118994
0.0418256
0.00568846
0.000418852
0.0636443
0.0577442
0.0458133
0.0641819
0.12865
0.0426435
0.0369594
0.0422078
0.0564899
0.0348202
0.03199
0.0351218
0.0697251
0.0795202
0.0294649
0.0754158
0.086367
0.0558455
0.104864
0.053552
0.0747551
0.0237298
0.0384886
0.0187067
0.0436671
0.0606809
0.0446459
0.0793807
0.00134788
0.0507877
-0.0133094
0.0393594
0.0242332
0.114216
0.00638501
0.0423381
0.0422643
0.00362601
0.103803
0.0250861
0.0270315
0.0126051
0.0410191
0.0786069
0.0339661
0.0409597
0.0325625
0.00710716
0.0378026
0.0364714
0.387239
0.0350674
0.0447006
0.0547933
0.0603972
0.0388094
0.0285444
0.0426761
0.0986418
0.0399171
0.0426542
0.0109633
0.0331256
0.0260644
0.0374939
0.0588928
0.0374026
0.0403415
0.0396897
0.0305266
0.0762782
0.0427041
0.0350796
0.0537846
0.0415425
0.0353907
0.0497706
0.0504408
0.0552285
0.0555797
0.0427985
0.0390477
0.0460236
0.0263972
-0.00169691
-0.000740703
0.142743
0.0704955
-0.0107148
0.0276535
0.0424029
0.0460221
0.053899
0.0698869
0.0432218
0.0248022
0.072297
0.0529299
0.0235289
-0.0106573
0.0190691
0.0421986
0.0337542
0.0424862
0.0902759
0.229169
0.0352606
0.0529117
0.0401004
0.0051564
0.0422788
0.0684214
0.0256806
0.0407326
0.0433988
0.0300817
0.0930683
0.0353221
0.0522037
0.0231445
0.0382729
0.0392452
0.0839945
0.0567323
0.0360648
0.0453424
0.0349222
0.04936
0.0341792
0.0431102
0.0358321
0.042264
0.0496064
0.00933142
0.0642262
0.0130196
0.0699831
0.0696163
0.0477328
0.0347289
0.0318069
0.0732108
0.0882743
0.00902118
0.0372233
0.0542723
0.0537531
0.0363993
0.0413465
0.0394993
0.0344489
0.0256899
0.0256298
0.0393104
0.013022
0.0351674
0.0749266
0.0369707
0.0389192
0.0365474
0.0216711
0.0800911
0.0492418
-0.000680787
0.0349977
0.0366209
0.00747673
0.0461658
0.00042875
0.0455489
0.0370907
0.0423657
0.0417449
0.0438519
0.0381731
0.00311222
0.0426679
0.0181487
0.0679011
0.0456422
0.0536332
0.0299158
0.0925069
0.0562047
0.0432277
0.0314272
-0.0670142
0.042887
0.00428154
-0.080867
0.0614476
0.0814422
0.047211
0.0373891
0.0274679
0.067398
0.0542325
0.0434439
0.0885841
0.00949756
0.0779864
0.0427204
0.0418565
0.0391829
0.0397661
0.0403412
0.0617793
0.0735315
0.0418987
-0.00160306
0.0400485
0.0478424
0.0377322
0.029777
0.00023994
0.0420647
0.0371743
0.02125
0.0368643
0.0420457
0.0456321
0.124012
0.0701107
0.0433161
0.0583997
0.0487176
0.0372728
0.0722207
0.055181
0.0396119
0.058616
0.0330202
0.0582664
0.0813491
0.000830614
0.0210954
0.0434283
0.0660926
0.0420419
0.0458096
0.0445307
0.0381232
0.00100248
0.000274202
0.0541522
0.0307601
0.0312079
0.025781
0.0420726
0.0412149
0.0433381
0.0677644
0.0312301
0.0427635
0.0371393
0.0494014
0.0200613
0.00839271
0.0428444
0.0422177
0.032728
0.0434983
0.0415516
0.0384389
0.0404029
0.0356342
0.0615517
0.0572884
0.0311427
0.0409101
0.0477616
0.0548044
0.0372343
0.0426898
0.0387623
0.0277153
0.000702553
0.00448809
0.0318756
0.119412
0.0376595
-0.0598947
0.0847639
0.037059
0.0360265
0.0485176
0.0434513
0.0428586
0.0511816
0.0521947
0.0369744
0.0449067
0.0417636
0.0930645
0.00438173
0.0305097
0.0430026
0.0498881
0.0580586
0.0660199
0.0292527
0.0456021
0.0425888
0.0410672
0.0379705
0.027194
0.0242376
0.00415366
0.0574023
0.0413479
0.0350157
0.0515347
0.0482709
0.0472656
0.0400549
0.0533368
0.0427926
0.0135185
-0.00263475
0.041625
0.0620811
0.0367128
0.0399571
0.0412446
0.04447
-0.0489239
0.0589398
-0.000473487
0.0389609
0.00586537
0.0470348
0.0671594
0.124475
0.0502989
0.0430566
0.0274279
0.0197787
0.107446
0.036703
0.0624464
0.04022
0.0422566
0.0612368
0.0404116
0.117878
0.000183393
0.0750097
0.0467135
0.0425586
0.0427525
0.042158
-0.0272879
0.0345979
0.0420876
0.0508036
0.0408959
0.0423463