/*--------------------------------*- C++ -*----------------------------------*\
  =========                 |
  \\      /  F ield         | OpenFOAM: The Open Source CFD Toolbox
   \\    /   O peration     | Website:  https://openfoam.org
    \\  /    A nd           | Version:  7
     \\/     M anipulation  |
\*---------------------------------------------------------------------------*/
FoamFile
{
    version     2.0;
    format      ascii;
    class       volVectorField;
    location    "5.5";
    object      U;
}
// * * * * * * * * * * * * * * * * * * * * * * * * * * * * * * * * * * * * * //

dimensions      [0 1 -1 0 0 0 0];

internalField   nonuniform List<vector> 
2413
(
(1.4 -5.64074e-16 0)
(1.4 -4.91428e-16 0)
(1.4 -4.27988e-16 0)
(1.4 -2.66429e-16 0)
(1.4 -2.2682e-16 0)
(1.4 4.11233e-17 0)
(1.4 2.5666e-16 0)
(1.4 5.13374e-16 0)
(1.4 5.9353e-16 0)
(1.4 4.80009e-16 0)
(1.4 3.67251e-16 0)
(1.4 4.0467e-16 0)
(1.4 1.03788e-15 0)
(1.4 1.73364e-15 0)
(1.4 2.10033e-15 0)
(1.4 2.41676e-15 0)
(1.4 2.71905e-15 0)
(1.4 2.87361e-15 0)
(1.4 2.87422e-15 0)
(1.4 2.84247e-15 0)
(1.4 2.8486e-15 0)
(1.4 2.90489e-15 0)
(1.4 2.8771e-15 0)
(1.4 2.90659e-15 0)
(1.4 2.63753e-15 0)
(1.4 2.36237e-15 0)
(1.4 2.19278e-15 0)
(1.4 2.20064e-15 0)
(1.4 2.63175e-15 0)
(1.4 2.93245e-15 0)
(1.4 2.99014e-15 0)
(1.4 2.99082e-15 0)
(1.4 2.92462e-15 0)
(1.4 2.8505e-15 0)
(1.4 2.84715e-15 0)
(1.4 2.94432e-15 0)
(1.4 2.85755e-15 0)
(1.4 2.65434e-15 0)
(1.4 2.37021e-15 0)
(1.4 2.08752e-15 0)
(1.4 1.94885e-15 0)
(1.4 1.79216e-15 0)
(1.4 1.5793e-15 0)
(1.4 1.50455e-15 0)
(1.4 1.49174e-15 0)
(1.4 1.47818e-15 0)
(1.4 1.37879e-15 0)
(1.4 1.26132e-15 0)
(1.4 6.41041e-16 0)
(1.4 6.1208e-16 0)
(1.4 6.45774e-16 0)
(1.4 6.55151e-16 0)
(1.4 6.61826e-16 0)
(1.4 6.08683e-16 0)
(1.4 5.79568e-16 0)
(1.4 5.12313e-16 0)
(1.4 4.79979e-16 0)
(1.4 4.68833e-16 0)
(1.4 5.45907e-16 0)
(1.4 3.70133e-16 0)
(1.4 2.87009e-16 0)
(1.4 2.76175e-16 0)
(1.4 3.46885e-16 0)
(1.4 4.52804e-16 0)
(1.4 4.70976e-16 0)
(1.4 4.65385e-16 0)
(1.4 2.38686e-16 0)
(1.4 1.98638e-16 0)
(1.4 6.18424e-18 0)
(1.4 -3.20877e-16 0)
(1.4 -4.23936e-16 0)
(1.4 -7.36545e-17 0)
(1.4 2.40217e-16 0)
(1.4 4.95034e-16 0)
(1.4 6.33283e-16 0)
(1.4 6.82207e-16 0)
(1.4 1.27787e-15 0)
(1.4 1.51144e-15 0)
(1.4 1.53229e-15 0)
(1.4 1.53679e-15 0)
(1.4 1.60307e-15 0)
(1.4 1.73213e-15 0)
(1.4 1.97379e-15 0)
(1.4 2.09303e-15 0)
(1.4 2.35092e-15 0)
(1.4 2.40002e-15 0)
(1.4 2.48805e-15 0)
(1.4 2.60077e-15 0)
(1.4 2.82601e-15 0)
(1.4 2.94371e-15 0)
(1.4 3.06169e-15 0)
(1.4 -3.64069e-16 0)
(1.4 -1.64962e-16 0)
(1.4 2.13845e-16 0)
(1.4 4.60315e-16 0)
(1.4 8.49885e-16 0)
(1.4 1.22787e-15 0)
(1.4 1.45726e-15 0)
(1.4 1.55491e-15 0)
(1.4 1.54847e-15 0)
(1.4 1.81267e-15 0)
(1.4 1.8951e-15 0)
(1.4 1.84384e-15 0)
(1.4 1.75805e-15 0)
(1.4 1.66743e-15 0)
(1.4 1.52578e-15 0)
(1.4 1.19206e-15 0)
(1.4 6.18588e-16 0)
(1.4 2.53573e-16 0)
(1.4 1.78509e-17 0)
(1.4 2.55132e-17 0)
(1.4 -5.6401e-17 0)
(1.4 -1.63617e-16 0)
(1.4 -3.97688e-16 0)
(1.4 -6.61834e-16 0)
(1.4 -9.20067e-16 0)
(1.4 -9.35662e-16 0)
(1.4 -7.78864e-16 0)
(1.4 -8.29149e-16 0)
(1.4 -9.42711e-16 0)
(1.4 -9.7504e-16 0)
(1.4 -9.37892e-16 0)
(1.4 -7.42056e-16 0)
(1.4 -3.86977e-16 0)
(1.4 -1.98602e-16 0)
(1.4 7.61121e-17 0)
(1.4 1.66819e-16 0)
(1.4 3.90184e-16 0)
(1.4 5.12612e-16 0)
(1.4 7.03958e-16 0)
(1.4 9.99298e-16 0)
(1.4 1.21019e-15 0)
(1.4 1.48589e-15 0)
(1.4 1.68864e-15 0)
(1.4 1.96171e-15 0)
(1.4 1.85694e-15 0)
(1.4 2.52093e-15 0)
(1.4 3.10749e-15 0)
(1.4 3.45565e-15 0)
(1.4 3.4579e-15 0)
(1.4 3.37643e-15 0)
(1.4 3.18906e-15 0)
(1.4 3.17302e-15 0)
(1.4 2.73132e-15 0)
(1.4 2.10327e-15 0)
(1.4 1.6649e-15 0)
(1.4 1.38201e-15 0)
(1.4 1.18579e-15 0)
(1.4 6.65466e-16 0)
(1.4 2.56728e-16 0)
(1.4 3.17364e-16 0)
(1.4 4.56213e-16 0)
(1.4 6.07704e-16 0)
(1.4 7.65492e-16 0)
(1.4 7.98672e-16 0)
(1.4 8.56141e-16 0)
(1.4 7.9913e-16 0)
(1.4 5.68842e-16 0)
(1.4 6.36305e-16 0)
(1.4 6.76062e-16 0)
(1.4 6.32639e-16 0)
(1.4 4.84509e-16 0)
(1.4 6.82978e-16 0)
(1.4 8.60524e-16 0)
(1.4 5.01831e-16 0)
(1.4 3.84995e-16 0)
(1.4 4.0373e-16 0)
(1.4 3.03089e-16 0)
(1.4 3.62941e-16 0)
(1.4 3.29721e-16 0)
(1.4 1.58188e-16 0)
(1.4 1.97544e-16 0)
(1.4 2.31324e-16 0)
(1.4 1.76232e-16 0)
(1.4 1.40924e-16 0)
(1.4 7.25313e-17 0)
(1.4 -7.84658e-17 0)
(1.4 -1.6772e-16 0)
(1.4 -1.79147e-16 0)
(1.4 -1.57876e-16 0)
(1.4 -9.66617e-17 0)
(1.4 6.59313e-17 0)
(1.4 1.40952e-16 0)
(1.4 3.76187e-17 0)
(1.4 2.21386e-16 0)
(1.4 3.77732e-16 0)
(1.4 6.02619e-16 0)
(1.4 6.3384e-16 0)
(1.4 4.79924e-16 0)
(1.4 3.49519e-16 0)
(1.4 2.56976e-16 0)
(1.4 2.87485e-16 0)
(1.4 7.71412e-16 0)
(1.4 8.96982e-16 0)
(1.4 1.00107e-15 0)
(1.4 8.47086e-16 0)
(1.4 5.67597e-16 0)
(1.4 5.80242e-16 0)
(1.4 5.89335e-16 0)
(1.4 6.5033e-16 0)
(1.4 7.7311e-16 0)
(1.4 9.85433e-16 0)
(1.4 1.07433e-15 0)
(1.4 1.25632e-15 0)
(1.4 1.57443e-15 0)
(1.4 1.7476e-15 0)
(1.4 2.30887e-15 0)
(1.4 2.68961e-15 0)
(1.4 2.83203e-15 0)
(1.4 3.09798e-15 0)
(1.4 3.16425e-15 0)
(1.4 -2.12321e-15 0)
(1.4 -1.7547e-15 0)
(1.4 -1.44259e-15 0)
(1.4 -8.74078e-16 0)
(1.4 -3.67845e-16 0)
(1.4 1.15066e-16 0)
(1.4 3.71989e-16 0)
(1.4 6.19569e-16 0)
(1.4 6.14771e-16 0)
(1.4 8.74006e-16 0)
(1.4 5.47181e-16 0)
(1.4 2.41275e-16 0)
(1.4 1.97047e-16 0)
(1.4 7.53523e-17 0)
(1.4 -2.39555e-17 0)
(1.4 -1.65406e-16 0)
(1.4 -1.5722e-16 0)
(1.4 -1.57259e-16 0)
(1.4 -5.77973e-16 0)
(1.4 -4.52834e-16 0)
(1.4 -3.35929e-16 0)
(1.4 -2.85174e-16 0)
(1.4 -2.40644e-16 0)
(1.4 -2.29602e-16 0)
(1.4 -1.10812e-16 0)
(1.4 -8.83989e-18 0)
(1.4 8.80928e-17 0)
(1.4 2.35653e-16 0)
(1.4 6.53479e-17 0)
(1.4 1.35068e-16 0)
(1.4 4.71297e-17 0)
(1.4 1.26076e-16 0)
(1.4 2.25955e-16 0)
(1.4 4.78184e-16 0)
(1.4 5.15766e-16 0)
(1.4 5.23854e-16 0)
(1.4 7.39728e-16 0)
(1.4 8.89173e-16 0)
(1.4 1.08435e-15 0)
(1.4 1.15635e-15 0)
(1.4 1.3284e-15 0)
(1.4 1.28832e-15 0)
(1.4 1.18235e-15 0)
(1.4 1.49535e-15 0)
(1.4 1.76315e-15 0)
(1.4 2.24675e-15 0)
(1.4 2.84994e-15 0)
(1.4 2.98308e-15 0)
(1.4 3.16094e-15 0)
(1.4 3.38571e-15 0)
(1.4 3.48984e-15 0)
(1.4 3.5999e-15 0)
(1.4 3.71363e-15 0)
(1.4 3.26056e-15 0)
(1.4 2.79291e-15 0)
(1.4 2.51966e-15 0)
(1.4 2.34357e-15 0)
(1.4 1.77961e-15 0)
(1.4 1.77474e-15 0)
(1.4 1.46875e-15 0)
(1.4 9.86941e-16 0)
(1.4 6.30326e-16 0)
(1.4 3.54776e-16 0)
(1.4 3.7214e-16 0)
(1.4 2.38256e-16 0)
(1.4 1.17376e-16 0)
(1.4 1.06694e-16 0)
(1.4 1.32395e-16 0)
(1.4 1.50446e-16 0)
(1.4 8.08023e-17 0)
(1.4 3.46368e-16 0)
(1.4 7.91026e-16 0)
(1.4 9.46518e-16 0)
(1.4 9.62161e-16 0)
(1.4 1.05092e-15 0)
(1.4 1.0578e-15 0)
(1.4 9.20434e-16 0)
(1.4 7.08029e-16 0)
(1.4 3.60735e-16 0)
(1.4 1.97614e-16 0)
(1.4 -5.56493e-17 0)
(1.4 -1.74251e-16 0)
(1.4 -2.26819e-16 0)
(1.4 -2.57607e-16 0)
(1.4 -3.25654e-16 0)
(1.4 -5.50411e-16 0)
(1.4 -7.52168e-16 0)
(1.4 -9.16488e-16 0)
(1.4 -8.54281e-16 0)
(1.4 -6.46018e-16 0)
(1.4 -4.9975e-16 0)
(1.4 -3.5419e-16 0)
(1.4 -7.74848e-17 0)
(1.4 1.7636e-16 0)
(1.4 4.10378e-16 0)
(1.4 5.12789e-16 0)
(1.4 8.7683e-16 0)
(1.4 1.37142e-15 0)
(1.4 1.43931e-15 0)
(1.4 1.8914e-15 0)
(1.4 1.83658e-15 0)
(1.4 1.8824e-15 0)
(1.4 1.81516e-15 0)
(1.4 1.695e-15 0)
(1.4 1.57833e-15 0)
(1.4 1.14633e-15 0)
(1.4 7.12658e-16 0)
(1.4 5.48672e-16 0)
(1.4 4.21112e-16 0)
(1.4 4.15705e-16 0)
(1.4 5.0731e-16 0)
(1.4 4.55389e-16 0)
(1.4 4.24255e-16 0)
(1.4 6.39816e-16 0)
(1.4 9.51994e-16 0)
(1.4 1.68706e-15 0)
(1.4 2.27204e-15 0)
(1.4 2.62895e-15 0)
(1.4 3.26203e-15 0)
(1.4 3.34955e-15 0)
(1.4 -2.57059e-15 0)
(1.4 -2.47844e-15 0)
(1.4 -2.58108e-15 0)
(1.4 -2.56857e-15 0)
(1.4 -2.55328e-15 0)
(1.4 -2.54815e-15 0)
(1.4 -2.50971e-15 0)
(1.4 -2.4581e-15 0)
(1.4 -2.36175e-15 0)
(1.4 -2.06138e-15 0)
(1.4 -1.92863e-15 0)
(1.4 -1.97818e-15 0)
(1.4 -1.36892e-15 0)
(1.4 -1.27202e-15 0)
(1.4 -1.03464e-15 0)
(1.4 -7.86722e-16 0)
(1.4 -1.18881e-16 0)
(1.4 -7.69908e-17 0)
(1.4 -4.47244e-17 0)
(1.4 1.00019e-16 0)
(1.4 1.78795e-16 0)
(1.4 7.30965e-16 0)
(1.4 9.48927e-16 0)
(1.4 9.51251e-16 0)
(1.4 9.9629e-16 0)
(1.4 7.37032e-16 0)
(1.4 6.46903e-16 0)
(1.4 5.54121e-16 0)
(1.4 7.75394e-16 0)
(1.4 8.41912e-16 0)
(1.4 9.03777e-16 0)
(1.4 8.07278e-16 0)
(1.4 7.95577e-16 0)
(1.4 7.47575e-16 0)
(1.4 4.76097e-16 0)
(1.4 2.99899e-16 0)
(1.4 2.35584e-16 0)
(1.4 1.10099e-17 0)
(1.4 -2.20929e-16 0)
(1.4 -3.36662e-16 0)
(1.4 -2.18026e-16 0)
(1.4 -2.38392e-16 0)
(1.4 -4.16714e-16 0)
(1.4 -4.13364e-16 0)
(1.4 -6.45795e-16 0)
(1.4 -1.08044e-16 0)
(1.4 -1.68947e-18 0)
(1.4 2.79817e-16 0)
(1.4 4.58437e-16 0)
(1.4 9.92775e-16 0)
(1.4 1.16451e-15 0)
(1.4 1.66749e-15 0)
(1.4 1.91747e-15 0)
(1.4 2.0951e-15 0)
(1.4 1.44515e-15 0)
(1.4 1.38192e-15 0)
(1.4 1.58827e-15 0)
(1.4 1.57997e-15 0)
(1.4 1.24146e-15 0)
(1.4 1.10413e-15 0)
(1.4 1.01755e-15 0)
(1.4 7.60515e-16 0)
(1.4 4.66206e-16 0)
(1.4 1.84815e-16 0)
(1.4 -3.72514e-16 0)
(1.4 -1.10419e-15 0)
(1.4 -1.2997e-15 0)
(1.4 -1.29043e-15 0)
(1.4 -1.12324e-15 0)
(1.4 -8.57673e-16 0)
(1.4 -6.03293e-16 0)
(1.4 -4.6836e-16 0)
(1.4 -7.004e-16 0)
(1.4 -8.42216e-16 0)
(1.4 -5.39521e-16 0)
(1.4 -3.70831e-16 0)
(1.4 -2.60289e-16 0)
(1.4 -2.71005e-16 0)
(1.4 -2.74227e-16 0)
(1.4 -3.16595e-16 0)
(1.4 -4.82083e-16 0)
(1.4 -6.11416e-16 0)
(1.4 -6.90013e-16 0)
(1.4 -6.92526e-16 0)
(1.4 -7.79487e-16 0)
(1.4 -7.33247e-16 0)
(1.4 -6.70741e-16 0)
(1.4 -7.47247e-16 0)
(1.4 -8.64158e-16 0)
(1.4 -8.62885e-16 0)
(1.4 -1.1171e-15 0)
(1.4 -9.39448e-16 0)
(1.4 2.2677e-17 0)
(1.4 7.4305e-16 0)
(1.4 1.02078e-15 0)
(1.4 1.25761e-15 0)
(1.4 1.36928e-15 0)
(1.4 1.55371e-15 0)
(1.4 2.16096e-15 0)
(1.4 2.16722e-15 0)
(1.4 2.04205e-15 0)
(1.4 1.80057e-15 0)
(1.4 1.62042e-15 0)
(1.4 1.60304e-15 0)
(1.4 1.36684e-15 0)
(1.4 1.11174e-15 0)
(1.4 9.09303e-16 0)
(1.4 7.97303e-16 0)
(1.4 3.99978e-16 0)
(1.4 1.53314e-16 0)
(1.4 1.42869e-16 0)
(1.4 1.73801e-16 0)
(1.4 1.19959e-16 0)
(1.4 7.94877e-17 0)
(1.4 -7.61605e-17 0)
(1.4 1.27635e-16 0)
(1.4 7.55048e-16 0)
(1.4 9.45943e-16 0)
(1.4 1.60155e-15 0)
(1.4 2.15865e-15 0)
(1.4 -1.93701e-15 0)
(1.4 -2.02625e-15 0)
(1.4 -2.25736e-15 0)
(1.4 -2.41384e-15 0)
(1.4 -2.89756e-15 0)
(1.4 -3.0378e-15 0)
(1.4 -3.05558e-15 0)
(1.4 -3.07007e-15 0)
(1.4 -2.85504e-15 0)
(1.4 -2.53363e-15 0)
(1.4 -2.257e-15 0)
(1.4 -1.95231e-15 0)
(1.4 -1.72257e-15 0)
(1.4 -1.51664e-15 0)
(1.4 -1.14977e-15 0)
(1.4 -1.19404e-15 0)
(1.4 -5.40171e-16 0)
(1.4 -1.30279e-16 0)
(1.4 2.36935e-16 0)
(1.4 8.54956e-16 0)
(1.4 9.86654e-16 0)
(1.4 9.2943e-16 0)
(1.4 1.04977e-15 0)
(1.4 1.11412e-15 0)
(1.4 1.19457e-15 0)
(1.4 1.28737e-15 0)
(1.4 1.34244e-15 0)
(1.4 1.40666e-15 0)
(1.4 1.4618e-15 0)
(1.4 1.17515e-15 0)
(1.4 1.01356e-15 0)
(1.4 1.03955e-15 0)
(1.4 1.02934e-15 0)
(1.4 4.74358e-16 0)
(1.4 1.89553e-16 0)
(1.4 -4.48032e-16 0)
(1.4 -8.42741e-16 0)
(1.4 -1.5275e-15 0)
(1.4 -1.64644e-15 0)
(1.4 -1.78408e-15 0)
(1.4 -2.23408e-15 0)
(1.4 -2.4607e-15 0)
(1.4 -2.38134e-15 0)
(1.4 -2.40985e-15 0)
(1.4 -2.40289e-15 0)
(1.4 -2.42123e-15 0)
(1.4 -2.25311e-15 0)
(1.4 -1.70723e-15 0)
(1.4 -1.01496e-15 0)
(1.4 -5.47521e-16 0)
(1.4 -3.20374e-16 0)
(1.4 1.70358e-16 0)
(1.4 5.84023e-16 0)
(1.4 1.29751e-15 0)
(1.4 1.5735e-15 0)
(1.4 1.62249e-15 0)
(1.4 1.51362e-15 0)
(1.4 1.23978e-15 0)
(1.4 1.06035e-15 0)
(1.4 1.08931e-15 0)
(1.4 9.78563e-16 0)
(1.4 7.48389e-16 0)
(1.4 7.10369e-16 0)
(1.4 4.88815e-16 0)
(1.4 1.8146e-16 0)
(1.4 -4.61287e-17 0)
(1.4 -2.01315e-16 0)
(1.4 -4.03449e-16 0)
(1.4 -5.06755e-16 0)
(1.4 -6.42588e-16 0)
(1.4 -9.15417e-16 0)
(1.4 -9.89721e-16 0)
(1.4 -1.20847e-15 0)
(1.4 -1.29412e-15 0)
(1.4 -1.25761e-15 0)
(1.4 -1.35762e-15 0)
(1.4 -1.32922e-15 0)
(1.4 -1.26266e-15 0)
(1.4 -1.15555e-15 0)
(1.4 -1.16433e-15 0)
(1.4 -1.13794e-15 0)
(1.4 -1.12686e-15 0)
(1.4 -1.09583e-15 0)
(1.4 -9.87501e-16 0)
(1.4 -9.917e-16 0)
(1.4 -7.96333e-16 0)
(1.4 -7.39556e-16 0)
(1.4 -6.35428e-16 0)
(1.4 -5.39792e-16 0)
(1.4 -1.63162e-16 0)
(1.4 4.70023e-16 0)
(1.4 6.30816e-16 0)
(1.4 7.1627e-16 0)
(1.4 7.71085e-16 0)
(1.4 9.14482e-16 0)
(1.4 9.22925e-16 0)
(1.4 9.59956e-16 0)
(1.4 1.32092e-15 0)
(1.4 1.34224e-15 0)
(1.4 1.37996e-15 0)
(1.4 1.5279e-15 0)
(1.4 1.53568e-15 0)
(1.4 1.57821e-15 0)
(1.4 1.64185e-15 0)
(1.4 1.51794e-15 0)
(1.4 1.44804e-15 0)
(1.4 1.44471e-15 0)
(1.4 1.19125e-15 0)
(1.4 1.0365e-15 0)
(1.4 8.52716e-16 0)
(1.4 6.29651e-16 0)
(1.4 5.14218e-16 0)
(1.4 4.99011e-16 0)
(1.4 4.21698e-16 0)
(1.4 3.30812e-16 0)
(1.4 2.08042e-16 0)
(1.4 9.77016e-17 0)
(1.4 1.76521e-16 0)
(1.4 2.33226e-16 0)
(1.4 4.53988e-16 0)
(1.4 -1.44394e-15 0)
(1.4 -1.52242e-15 0)
(1.4 -1.56088e-15 0)
(1.4 -1.56073e-15 0)
(1.4 -1.62053e-15 0)
(1.4 -1.66008e-15 0)
(1.4 -1.5893e-15 0)
(1.4 -1.59878e-15 0)
(1.4 -1.54553e-15 0)
(1.4 -1.10221e-15 0)
(1.4 -6.91265e-16 0)
(1.4 -4.07614e-16 0)
(1.4 1.28794e-16 0)
(1.4 6.63651e-16 0)
(1.4 9.02533e-16 0)
(1.4 1.05959e-15 0)
(1.4 1.02111e-15 0)
(1.4 9.93571e-16 0)
(1.4 1.04376e-15 0)
(1.4 7.81103e-16 0)
(1.4 6.19032e-16 0)
(1.4 5.75654e-16 0)
(1.4 6.3873e-16 0)
(1.4 5.69705e-16 0)
(1.4 4.84998e-16 0)
(1.4 5.62678e-16 0)
(1.4 7.41217e-16 0)
(1.4 9.37786e-16 0)
(1.4 9.23787e-16 0)
(1.4 9.70812e-16 0)
(1.4 6.88176e-16 0)
(1.4 3.22918e-16 0)
(1.4 2.01767e-16 0)
(1.4 -5.94199e-17 0)
(1.4 -2.03934e-16 0)
(1.4 -3.14381e-16 0)
(1.4 -9.21619e-16 0)
(1.4 -1.23309e-15 0)
(1.4 -1.50061e-15 0)
(1.4 -1.84584e-15 0)
(1.4 -2.03935e-15 0)
(1.4 -2.55677e-15 0)
(1.4 -2.56367e-15 0)
(1.4 -2.51787e-15 0)
(1.4 -2.13982e-15 0)
(1.4 -2.1566e-15 0)
(1.4 -2.12099e-15 0)
(1.4 -2.18453e-15 0)
(1.4 -2.16766e-15 0)
(1.4 -1.88859e-15 0)
(1.4 -1.31899e-15 0)
(1.4 -1.14017e-15 0)
(1.4 -5.8878e-16 0)
(1.4 2.68162e-16 0)
(1.4 2.61883e-16 0)
(1.4 3.07909e-16 0)
(1.4 3.3697e-16 0)
(1.4 7.40002e-16 0)
(1.4 8.72541e-16 0)
(1.4 9.02883e-16 0)
(1.4 9.9089e-16 0)
(1.4 8.57345e-16 0)
(1.4 8.28446e-16 0)
(1.4 8.22705e-16 0)
(1.4 7.65118e-16 0)
(1.4 8.40074e-16 0)
(1.4 5.61975e-16 0)
(1.4 2.22089e-16 0)
(1.4 -2.1269e-16 0)
(1.4 -5.47506e-16 0)
(1.4 -6.9325e-16 0)
(1.4 -8.32713e-16 0)
(1.4 -8.73566e-16 0)
(1.4 -9.9559e-16 0)
(1.4 -1.27201e-15 0)
(1.4 -1.41055e-15 0)
(1.4 -1.63815e-15 0)
(1.4 -1.67814e-15 0)
(1.4 -1.77792e-15 0)
(1.4 -1.89316e-15 0)
(1.4 -1.83752e-15 0)
(1.4 -1.8481e-15 0)
(1.4 -1.55912e-15 0)
(1.4 -1.46623e-15 0)
(1.4 -1.4257e-15 0)
(1.4 -1.26481e-15 0)
(1.4 -1.04471e-15 0)
(1.4 -9.26247e-16 0)
(1.4 -6.47419e-16 0)
(1.4 -3.77341e-16 0)
(1.4 -2.44661e-16 0)
(1.4 -1.64893e-16 0)
(1.4 -1.38983e-16 0)
(1.4 -3.32398e-17 0)
(1.4 2.16939e-17 0)
(1.4 7.31887e-17 0)
(1.4 4.35389e-16 0)
(1.4 5.89004e-16 0)
(1.4 6.36579e-16 0)
(1.4 7.01937e-16 0)
(1.4 7.19589e-16 0)
(1.4 8.69347e-16 0)
(1.4 1.31281e-15 0)
(1.4 1.72769e-15 0)
(1.4 1.85097e-15 0)
(1.4 2.23394e-15 0)
(1.4 2.13943e-15 0)
(1.4 2.18553e-15 0)
(1.4 2.23824e-15 0)
(1.4 2.10606e-15 0)
(1.4 1.88488e-15 0)
(1.4 1.7953e-15 0)
(1.4 1.3998e-15 0)
(1.4 1.14336e-15 0)
(1.4 1.1824e-15 0)
(1.4 8.78192e-16 0)
(1.4 2.35035e-17 0)
(1.4 -2.6108e-16 0)
(1.4 -3.15814e-16 0)
(1.4 -1.91855e-16 0)
(1.4 -1.33728e-16 0)
(1.4 -2.23886e-16 0)
(1.4 -2.40743e-16 0)
(1.4 -3.34699e-16 0)
(1.4 -3.37461e-16 0)
(1.4 -3.19958e-16 0)
(1.4 -2.0162e-16 0)
(1.4 3.17258e-16 0)
(1.4 5.51343e-16 0)
(1.4 1.37407e-15 0)
(1.4 1.68251e-15 0)
(1.4 1.83058e-15 0)
(1.4 2.17728e-15 0)
(1.4 2.41469e-15 0)
(1.4 2.4756e-15 0)
(1.4 2.36729e-15 0)
(1.4 2.09736e-15 0)
(1.4 1.88409e-15 0)
(1.4 1.33159e-15 0)
(1.4 4.74147e-16 0)
(1.4 1.77274e-16 0)
(1.4 1.97196e-16 0)
(1.4 3.80092e-16 0)
(1.4 4.43608e-16 0)
(1.4 4.46351e-16 0)
(1.4 2.10254e-16 0)
(1.4 1.27095e-16 0)
(1.4 3.30211e-17 0)
(1.4 3.70726e-16 0)
(1.4 5.49794e-16 0)
(1.4 5.58297e-16 0)
(1.4 5.15272e-16 0)
(1.4 5.02836e-16 0)
(1.4 7.18913e-16 0)
(1.4 4.53549e-16 0)
(1.4 1.92616e-16 0)
(1.4 6.74574e-17 0)
(1.4 -1.33838e-16 0)
(1.4 -6.62049e-16 0)
(1.4 -1.03237e-15 0)
(1.4 -1.10907e-15 0)
(1.4 -1.04506e-15 0)
(1.4 -1.2105e-15 0)
(1.4 -1.27637e-15 0)
(1.4 -1.32376e-15 0)
(1.4 -1.27697e-15 0)
(1.4 -1.43912e-15 0)
(1.4 -1.84459e-15 0)
(1.4 -2.11234e-15 0)
(1.4 -2.04982e-15 0)
(1.4 -2.06339e-15 0)
(1.4 -1.98842e-15 0)
(1.4 -1.50394e-15 0)
(1.4 -1.34628e-15 0)
(1.4 -9.58975e-16 0)
(1.4 -6.26569e-16 0)
(1.4 -2.75435e-16 0)
(1.4 3.26603e-16 0)
(1.4 6.36491e-16 0)
(1.4 8.5164e-16 0)
(1.4 1.02158e-15 0)
(1.4 1.24445e-15 0)
(1.4 1.18875e-15 0)
(1.4 1.06887e-15 0)
(1.4 9.34194e-16 0)
(1.4 7.18134e-16 0)
(1.4 4.23181e-16 0)
(1.4 4.47491e-16 0)
(1.4 4.88777e-16 0)
(1.4 4.54392e-16 0)
(1.4 2.63484e-16 0)
(1.4 1.23894e-16 0)
(1.4 9.03222e-17 0)
(1.4 1.3154e-16 0)
(1.4 -5.45144e-17 0)
(1.4 7.9038e-18 0)
(1.4 -1.72917e-16 0)
(1.4 -1.86634e-16 0)
(1.4 -3.46466e-16 0)
(1.4 -1.20491e-15 0)
(1.4 -1.98628e-15 0)
(1.4 -2.5609e-15 0)
(1.4 -2.72843e-15 0)
(1.4 -2.91074e-15 0)
(1.4 -2.75982e-15 0)
(1.4 -2.67451e-15 0)
(1.4 -2.3804e-15 0)
(1.4 -2.45232e-15 0)
(1.4 -2.51842e-15 0)
(1.4 -2.22498e-15 0)
(1.4 -1.98181e-15 0)
(1.4 -1.72836e-15 0)
(1.4 -1.68894e-15 0)
(1.4 -1.45549e-15 0)
(1.4 -9.13817e-16 0)
(1.4 -6.01911e-16 0)
(1.4 1.31161e-16 0)
(1.4 3.04595e-16 0)
(1.4 6.05778e-16 0)
(1.4 6.86487e-16 0)
(1.4 6.79492e-16 0)
(1.4 7.59696e-16 0)
(1.4 1.06128e-15 0)
(1.4 1.71707e-15 0)
(1.4 2.24269e-15 0)
(1.4 2.51824e-15 0)
(1.4 2.5553e-15 0)
(1.4 2.57015e-15 0)
(1.4 2.59829e-15 0)
(1.4 2.60894e-15 0)
(1.4 2.47848e-15 0)
(1.4 2.39883e-15 0)
(1.4 2.36369e-15 0)
(1.4 2.09072e-15 0)
(1.4 1.67212e-15 0)
(1.4 1.32528e-15 0)
(1.4 1.12674e-15 0)
(1.4 6.21662e-16 0)
(1.4 4.7481e-16 0)
(1.4 2.00324e-16 0)
(1.4 2.64742e-16 0)
(1.4 6.79197e-17 0)
(1.4 6.10356e-17 0)
(1.4 4.68804e-17 0)
(1.4 4.43594e-16 0)
(1.4 8.32947e-16 0)
(1.4 8.6289e-16 0)
(1.4 1.17771e-15 0)
(1.4 1.63405e-15 0)
(1.4 1.7298e-15 0)
(1.4 1.81074e-15 0)
(1.4 1.74966e-15 0)
(1.4 1.74248e-15 0)
(1.4 2.06982e-15 0)
(1.4 2.23939e-15 0)
(1.4 2.19141e-15 0)
(1.4 2.27521e-15 0)
(1.4 2.38649e-15 0)
(1.4 2.30967e-15 0)
(1.4 2.16825e-15 0)
(1.4 2.19187e-15 0)
(1.4 2.09188e-15 0)
(1.4 1.96213e-15 0)
(1.4 1.78451e-15 0)
(1.4 1.57749e-15 0)
(1.4 1.27498e-15 0)
(1.4 8.36349e-16 0)
(1.4 7.98779e-16 0)
(1.4 9.73291e-16 0)
(1.4 1.16727e-15 0)
(1.4 1.54838e-15 0)
(1.4 2.15183e-15 0)
(1.4 2.2015e-15 0)
(1.4 2.21524e-15 0)
(1.4 1.92785e-15 0)
(1.4 1.68901e-15 0)
(1.4 1.50961e-15 0)
(1.4 1.26418e-15 0)
(1.4 9.49708e-16 0)
(1.4 6.10456e-16 0)
(1.4 -1.32809e-17 0)
(1.4 -1.94596e-16 0)
(1.4 -4.692e-16 0)
(1.4 -8.26733e-16 0)
(1.4 -1.03019e-15 0)
(1.4 -1.25243e-15 0)
(1.4 -1.55716e-15 0)
(1.4 -1.86477e-15 0)
(1.4 -2.17168e-15 0)
(1.4 -2.32785e-15 0)
(1.4 -2.28963e-15 0)
(1.4 -2.17933e-15 0)
(1.4 -1.99934e-15 0)
(1.4 -1.91699e-15 0)
(1.4 -2.14035e-15 0)
(1.4 -1.52052e-15 0)
(1.4 -1.17014e-15 0)
(1.4 -4.87912e-16 0)
(1.4 2.95245e-16 0)
(1.4 8.26311e-16 0)
(1.4 8.85907e-16 0)
(1.4 8.79003e-16 0)
(1.4 8.89417e-16 0)
(1.4 7.69252e-16 0)
(1.4 7.61583e-16 0)
(1.4 7.50317e-16 0)
(1.4 7.70846e-16 0)
(1.4 7.84339e-16 0)
(1.4 5.91678e-16 0)
(1.4 5.1467e-16 0)
(1.4 9.85198e-17 0)
(1.4 -6.52015e-17 0)
(1.4 -2.42303e-16 0)
(1.4 -5.50566e-16 0)
(1.4 -9.33333e-16 0)
(1.4 -1.16363e-15 0)
(1.4 -1.17263e-15 0)
(1.4 -1.08878e-15 0)
(1.4 -1.02356e-15 0)
(1.4 -1.49157e-15 0)
(1.4 -1.91835e-15 0)
(1.4 -2.13175e-15 0)
(1.4 -2.10409e-15 0)
(1.4 -2.27589e-15 0)
(1.4 -2.50295e-15 0)
(1.4 -3.23393e-15 0)
(1.4 -3.50383e-15 0)
(1.4 -3.30593e-15 0)
(1.4 -3.42011e-15 0)
(1.4 -3.02317e-15 0)
(1.4 -2.76526e-15 0)
(1.4 -2.45492e-15 0)
(1.4 -2.23185e-15 0)
(1.4 -2.13732e-15 0)
(1.4 -1.79107e-15 0)
(1.4 -1.70843e-15 0)
(1.4 -1.67354e-15 0)
(1.4 -1.26153e-15 0)
(1.4 -5.39051e-16 0)
(1.4 -3.4863e-16 0)
(1.4 -3.69521e-16 0)
(1.4 -1.54951e-16 0)
(1.4 1.99563e-17 0)
(1.4 1.88487e-16 0)
(1.4 5.31309e-16 0)
(1.4 7.61286e-16 0)
(1.4 9.00285e-16 0)
(1.4 9.44203e-16 0)
(1.4 9.64151e-16 0)
(1.4 1.11315e-15 0)
(1.4 1.16667e-15 0)
(1.4 1.29679e-15 0)
(1.4 1.55021e-15 0)
(1.4 1.61674e-15 0)
(1.4 1.60969e-15 0)
(1.4 1.3735e-15 0)
(1.4 1.06636e-15 0)
(1.4 1.05133e-15 0)
(1.4 8.5904e-16 0)
(1.4 3.56368e-16 0)
(1.4 4.96146e-16 0)
(1.4 7.52659e-16 0)
(1.4 8.88813e-16 0)
(1.4 9.27205e-16 0)
(1.4 9.21266e-16 0)
(1.4 9.19295e-16 0)
(1.4 8.80163e-16 0)
(1.4 8.70613e-16 0)
(1.4 8.61075e-16 0)
(1.4 8.46857e-16 0)
(1.4 7.30917e-16 0)
(1.4 7.34657e-16 0)
(1.4 5.21016e-16 0)
(1.4 6.94563e-16 0)
(1.4 8.44448e-16 0)
(1.4 1.04305e-15 0)
(1.4 1.92653e-15 0)
(1.4 2.3168e-15 0)
(1.4 2.86818e-15 0)
(1.4 3.38528e-15 0)
(1.4 3.38465e-15 0)
(1.4 3.442e-15 0)
(1.4 3.42091e-15 0)
(1.4 3.34035e-15 0)
(1.4 3.28307e-15 0)
(1.4 3.32959e-15 0)
(1.4 3.29638e-15 0)
(1.4 3.03777e-15 0)
(1.4 2.91106e-15 0)
(1.4 2.86498e-15 0)
(1.4 2.8426e-15 0)
(1.4 2.89399e-15 0)
(1.4 2.65848e-15 0)
(1.4 2.20655e-15 0)
(1.4 2.0976e-15 0)
(1.4 1.65941e-15 0)
(1.4 1.20824e-15 0)
(1.4 9.4071e-16 0)
(1.4 8.57918e-16 0)
(1.4 5.89589e-16 0)
(1.4 -2.93979e-18 0)
(1.4 -5.21577e-16 0)
(1.4 -8.00056e-16 0)
(1.4 -1.19504e-15 0)
(1.4 -1.56139e-15 0)
(1.4 -2.00704e-15 0)
(1.4 -2.20179e-15 0)
(1.4 -2.32064e-15 0)
(1.4 -2.33534e-15 0)
(1.4 -2.38285e-15 0)
(1.4 -2.17819e-15 0)
(1.4 -2.01406e-15 0)
(1.4 -1.91708e-15 0)
(1.4 -1.83416e-15 0)
(1.4 -1.92171e-15 0)
(1.4 -1.88709e-15 0)
(1.4 -1.44037e-15 0)
(1.4 -1.18157e-15 0)
(1.4 -8.61011e-16 0)
(1.4 -6.97801e-16 0)
(1.4 -4.80675e-16 0)
(1.4 -4.86212e-16 0)
(1.4 -3.93377e-16 0)
(1.4 -2.73422e-16 0)
(1.4 -2.77412e-16 0)
(1.4 -3.02468e-16 0)
(1.4 -3.04843e-16 0)
(1.4 -5.03713e-16 0)
(1.4 -8.51159e-16 0)
(1.4 -1.0495e-15 0)
(1.4 -1.21852e-15 0)
(1.4 -1.35249e-15 0)
(1.4 -1.36849e-15 0)
(1.4 -1.36563e-15 0)
(1.4 -1.41798e-15 0)
(1.4 -1.4261e-15 0)
(1.4 -1.34953e-15 0)
(1.4 -1.32144e-15 0)
(1.4 -1.40173e-15 0)
(1.4 -1.5466e-15 0)
(1.4 -1.51504e-15 0)
(1.4 -1.49706e-15 0)
(1.4 -1.60807e-15 0)
(1.4 -1.56332e-15 0)
(1.4 -1.71741e-15 0)
(1.4 -1.96273e-15 0)
(1.4 -2.40807e-15 0)
(1.4 -2.39097e-15 0)
(1.4 -2.35311e-15 0)
(1.4 -2.43679e-15 0)
(1.4 -2.10036e-15 0)
(1.4 -2.17702e-15 0)
(1.4 -2.43011e-15 0)
(1.4 -2.67645e-15 0)
(1.4 -2.82584e-15 0)
(1.4 -2.86172e-15 0)
(1.4 -3.15135e-15 0)
(1.4 -3.18603e-15 0)
(1.4 -2.93878e-15 0)
(1.4 -2.15335e-15 0)
(1.4 -1.54543e-15 0)
(1.4 -1.16148e-15 0)
(1.4 -6.07507e-16 0)
(1.4 -3.6352e-16 0)
(1.4 -2.25253e-16 0)
(1.4 -5.49476e-17 0)
(1.4 3.50402e-16 0)
(1.4 6.42113e-16 0)
(1.4 8.07936e-16 0)
(1.4 1.20128e-15 0)
(1.4 1.40524e-15 0)
(1.4 1.29347e-15 0)
(1.4 1.14322e-15 0)
(1.4 1.00347e-15 0)
(1.4 8.62997e-16 0)
(1.4 4.1793e-16 0)
(1.4 3.85466e-16 0)
(1.4 4.09063e-16 0)
(1.4 3.42466e-16 0)
(1.4 6.29271e-16 0)
(1.4 8.93182e-16 0)
(1.4 1.48238e-15 0)
(1.4 1.60628e-15 0)
(1.4 1.51583e-15 0)
(1.4 1.15964e-15 0)
(1.4 1.06035e-15 0)
(1.4 1.07846e-15 0)
(1.4 1.13028e-15 0)
(1.4 1.19069e-15 0)
(1.4 1.20955e-15 0)
(1.4 1.32531e-15 0)
(1.4 1.16896e-15 0)
(1.4 1.05472e-15 0)
(1.4 8.28486e-16 0)
(1.4 9.3854e-16 0)
(1.4 1.27608e-15 0)
(1.4 1.26151e-15 0)
(1.4 1.03112e-15 0)
(1.4 1.62501e-15 0)
(1.4 3.01525e-15 0)
(1.4 3.29368e-15 0)
(1.4 3.22894e-15 0)
(1.4 3.40582e-15 0)
(1.4 3.66914e-15 0)
(1.4 3.66339e-15 0)
(1.4 3.66879e-15 0)
(1.4 3.58463e-15 0)
(1.4 3.22749e-15 0)
(1.4 3.0518e-15 0)
(1.4 2.55336e-15 0)
(1.4 1.98253e-15 0)
(1.4 1.48641e-15 0)
(1.4 1.27692e-15 0)
(1.4 1.07112e-15 0)
(1.4 7.91492e-16 0)
(1.4 6.47435e-16 0)
(1.4 6.14402e-16 0)
(1.4 7.88535e-16 0)
(1.4 6.75136e-16 0)
(1.4 6.99291e-16 0)
(1.4 4.87841e-16 0)
(1.4 4.71676e-16 0)
(1.4 6.93493e-17 0)
(1.4 -3.70871e-16 0)
(1.4 -4.82538e-16 0)
(1.4 -6.69375e-16 0)
(1.4 -1.15187e-15 0)
(1.4 -1.53056e-15 0)
(1.4 -1.85964e-15 0)
(1.4 -2.05133e-15 0)
(1.4 -2.02164e-15 0)
(1.4 -1.93875e-15 0)
(1.4 -1.89635e-15 0)
(1.4 -1.45373e-15 0)
(1.4 -1.31012e-15 0)
(1.4 -1.12131e-15 0)
(1.4 -1.23992e-15 0)
(1.4 -1.76644e-15 0)
(1.4 -1.89454e-15 0)
(1.4 -2.0626e-15 0)
(1.4 -2.35989e-15 0)
(1.4 -2.41283e-15 0)
(1.4 -2.29512e-15 0)
(1.4 -2.16575e-15 0)
(1.4 -2.09377e-15 0)
(1.4 -2.14823e-15 0)
(1.4 -2.19588e-15 0)
(1.4 -2.19131e-15 0)
(1.4 -2.24447e-15 0)
(1.4 -2.36879e-15 0)
(1.4 -2.51399e-15 0)
(1.4 -2.60278e-15 0)
(1.4 -2.55078e-15 0)
(1.4 -2.44807e-15 0)
(1.4 -2.17431e-15 0)
(1.4 -1.90953e-15 0)
(1.4 -1.7442e-15 0)
(1.4 -1.59714e-15 0)
(1.4 -1.50342e-15 0)
(1.4 -1.20982e-15 0)
(1.4 -1.09864e-15 0)
(1.4 -1.07455e-15 0)
(1.4 -1.283e-15 0)
(1.4 -1.18627e-15 0)
(1.4 -1.0524e-15 0)
(1.4 -9.70153e-16 0)
(1.4 -9.43274e-16 0)
(1.4 -8.99889e-16 0)
(1.4 -6.03788e-16 0)
(1.4 -6.97422e-16 0)
(1.4 -1.33129e-15 0)
(1.4 -1.66031e-15 0)
(1.4 -2.22486e-15 0)
(1.4 -2.33756e-15 0)
(1.4 -2.4158e-15 0)
(1.4 -2.61218e-15 0)
(1.4 -1.98872e-15 0)
(1.4 -1.29274e-15 0)
(1.4 -1.31011e-15 0)
(1.4 -1.12078e-15 0)
(1.4 -1.06297e-15 0)
(1.4 -9.85926e-16 0)
(1.4 -9.81914e-16 0)
(1.4 -9.80735e-16 0)
(1.4 -8.63184e-16 0)
(1.4 -5.47699e-16 0)
(1.4 -1.73172e-16 0)
(1.4 1.21141e-16 0)
(1.4 3.2876e-16 0)
(1.4 3.4371e-16 0)
(1.4 2.56229e-16 0)
(1.4 1.76847e-16 0)
(1.4 -1.24275e-16 0)
(1.4 -4.95639e-16 0)
(1.4 -7.52761e-16 0)
(1.4 -7.1824e-16 0)
(1.4 -8.14175e-16 0)
(1.4 -9.4108e-16 0)
(1.4 -1.04366e-15 0)
(1.4 -1.08988e-15 0)
(1.4 5.90148e-16 0)
(1.4 7.28841e-16 0)
(1.4 9.56914e-16 0)
(1.4 1.4576e-15 0)
(1.4 1.82259e-15 0)
(1.4 1.91641e-15 0)
(1.4 1.92282e-15 0)
(1.4 1.67018e-15 0)
(1.4 1.58405e-15 0)
(1.4 1.53216e-15 0)
(1.4 1.30822e-15 0)
(1.4 1.21116e-15 0)
(1.4 1.2994e-15 0)
(1.4 1.27289e-15 0)
(1.4 1.06519e-15 0)
(1.4 1.10281e-15 0)
(1.4 1.42297e-15 0)
(1.4 1.52452e-15 0)
(1.4 1.28351e-15 0)
(1.4 8.59085e-16 0)
(1.4 1.2825e-15 0)
(1.4 1.78749e-15 0)
(1.4 2.1851e-15 0)
(1.4 2.24056e-15 0)
(1.4 2.32345e-15 0)
(1.4 2.40864e-15 0)
(1.4 2.40789e-15 0)
(1.4 2.25583e-15 0)
(1.4 2.10921e-15 0)
(1.4 1.88109e-15 0)
(1.4 1.39188e-15 0)
(1.4 7.58305e-16 0)
(1.4 4.71701e-16 0)
(1.4 2.613e-16 0)
(1.4 6.20967e-17 0)
(1.4 3.92129e-17 0)
(1.4 -2.92382e-17 0)
(1.4 -2.59639e-16 0)
(1.4 -4.93115e-16 0)
(1.4 -6.70056e-16 0)
(1.4 -6.98756e-16 0)
(1.4 -5.85998e-16 0)
(1.4 -5.56988e-16 0)
(1.4 -5.3332e-16 0)
(1.4 -6.74345e-16 0)
(1.4 -6.04651e-16 0)
(1.4 -5.65843e-16 0)
(1.4 -8.23305e-16 0)
(1.4 -1.02051e-15 0)
(1.4 -1.29426e-15 0)
(1.4 -1.36387e-15 0)
(1.4 -1.63267e-15 0)
(1.4 -1.80958e-15 0)
(1.4 -1.95826e-15 0)
(1.4 -1.83396e-15 0)
(1.4 -1.70887e-15 0)
(1.4 -1.93298e-15 0)
(1.4 -2.31457e-15 0)
(1.4 -2.51518e-15 0)
(1.4 -2.77884e-15 0)
(1.4 -2.76929e-15 0)
(1.4 -2.69349e-15 0)
(1.4 -2.6647e-15 0)
(1.4 -2.68031e-15 0)
(1.4 -2.64054e-15 0)
(1.4 -2.54924e-15 0)
(1.4 -2.49609e-15 0)
(1.4 -2.39504e-15 0)
(1.4 -2.39852e-15 0)
(1.4 -2.43894e-15 0)
(1.4 -2.48146e-15 0)
(1.4 -2.48291e-15 0)
(1.4 -2.3639e-15 0)
(1.4 -2.26852e-15 0)
(1.4 -2.15901e-15 0)
(1.4 -2.03256e-15 0)
(1.4 -2.00461e-15 0)
(1.4 -2.0496e-15 0)
(1.4 -1.85519e-15 0)
(1.4 -1.81775e-15 0)
(1.4 -1.88893e-15 0)
(1.4 -1.67331e-15 0)
(1.4 -1.06163e-15 0)
(1.4 -1.01176e-15 0)
(1.4 -6.92386e-16 0)
(1.4 -4.55112e-16 0)
(1.4 -3.11477e-16 0)
(1.4 -1.93748e-16 0)
(1.4 -2.13072e-16 0)
(1.4 -2.47401e-16 0)
(1.4 -4.73469e-16 0)
(1.4 -4.19669e-16 0)
(1.4 -3.03004e-16 0)
(1.4 -1.73185e-16 0)
(1.4 -5.42386e-16 0)
(1.4 -7.22523e-16 0)
(1.4 -2.60634e-16 0)
(1.4 1.3772e-16 0)
(1.4 -6.18066e-17 0)
(1.4 -2.30383e-16 0)
(1.4 -9.50649e-16 0)
(1.4 -1.2317e-15 0)
(1.4 -1.62852e-15 0)
(1.4 -2.08296e-15 0)
(1.4 -2.28742e-15 0)
(1.4 -2.32567e-15 0)
(1.4 -2.30655e-15 0)
(1.4 -2.29893e-15 0)
(1.4 -2.18581e-15 0)
(1.4 -2.15727e-15 0)
(1.4 -1.97417e-15 0)
(1.4 -1.86808e-15 0)
(1.4 -1.98729e-15 0)
(1.4 -1.97814e-15 0)
(1.4 -1.7892e-15 0)
(1.4 -1.6865e-15 0)
(1.4 -1.89972e-15 0)
(1.4 -2.47747e-15 0)
(1.4 -2.56235e-15 0)
(1.4 -3.044e-15 0)
(1.4 -1.87189e-16 0)
(1.4 -1.97496e-16 0)
(1.4 8.28627e-17 0)
(1.4 1.42534e-16 0)
(1.4 3.99643e-16 0)
(1.4 4.88447e-16 0)
(1.4 6.15851e-16 0)
(1.4 6.26254e-16 0)
(1.4 2.83956e-16 0)
(1.4 1.14729e-16 0)
(1.4 -3.50693e-16 0)
(1.4 -6.83672e-16 0)
(1.4 -7.11644e-16 0)
(1.4 -4.75907e-16 0)
(1.4 -3.95171e-16 0)
(1.4 7.44773e-17 0)
(1.4 3.07079e-16 0)
(1.4 3.97237e-16 0)
(1.4 3.00579e-16 0)
(1.4 6.23349e-17 0)
(1.4 5.05523e-17 0)
(1.4 2.11907e-16 0)
(1.4 8.53033e-16 0)
(1.4 1.01182e-15 0)
(1.4 1.15327e-15 0)
(1.4 1.10334e-15 0)
(1.4 1.14804e-15 0)
(1.4 1.01836e-15 0)
(1.4 9.28246e-16 0)
(1.4 1.00477e-15 0)
(1.4 6.11982e-16 0)
(1.4 3.12628e-16 0)
(1.4 -2.94162e-16 0)
(1.4 -1.2966e-15 0)
(1.4 -1.673e-15 0)
(1.4 -1.86544e-15 0)
(1.4 -1.85239e-15 0)
(1.4 -1.79079e-15 0)
(1.4 -1.63343e-15 0)
(1.4 -1.42711e-15 0)
(1.4 -1.30742e-15 0)
(1.4 -1.28845e-15 0)
(1.4 -1.49943e-15 0)
(1.4 -1.21909e-15 0)
(1.4 -9.94821e-16 0)
(1.4 -9.3678e-16 0)
(1.4 -8.88415e-16 0)
(1.4 -9.007e-16 0)
(1.4 -9.15513e-16 0)
(1.4 -7.82819e-16 0)
(1.4 -7.86407e-16 0)
(1.4 -8.52523e-16 0)
(1.4 -1.11196e-15 0)
(1.4 -1.46574e-15 0)
(1.4 -1.44323e-15 0)
(1.4 -2.00881e-15 0)
(1.4 -2.67134e-15 0)
(1.4 -2.83592e-15 0)
(1.4 -2.81999e-15 0)
(1.4 -2.79308e-15 0)
(1.4 -2.80821e-15 0)
(1.4 -2.89587e-15 0)
(1.4 -2.97342e-15 0)
(1.4 -3.00332e-15 0)
(1.4 -3.0166e-15 0)
(1.4 -2.94812e-15 0)
(1.4 -2.89739e-15 0)
(1.4 -2.99871e-15 0)
(1.4 -2.84057e-15 0)
(1.4 -2.72095e-15 0)
(1.4 -2.47191e-15 0)
(1.4 -2.12346e-15 0)
(1.4 -1.75123e-15 0)
(1.4 -1.71561e-15 0)
(1.4 -1.80093e-15 0)
(1.4 -1.78988e-15 0)
(1.4 -1.76916e-15 0)
(1.4 -1.73455e-15 0)
(1.4 -1.73054e-15 0)
(1.4 -1.5963e-15 0)
(1.4 -1.53462e-15 0)
(1.4 -1.07525e-15 0)
(1.4 -5.32091e-16 0)
(1.4 -6.40023e-19 0)
(1.4 8.81313e-17 0)
(1.4 3.8788e-16 0)
(1.4 3.78027e-16 0)
(1.4 5.89313e-16 0)
(1.4 7.08402e-16 0)
(1.4 7.78723e-16 0)
(1.4 6.4324e-16 0)
(1.4 6.71787e-16 0)
(1.4 9.80658e-16 0)
(1.4 1.14248e-15 0)
(1.4 1.18111e-15 0)
(1.4 1.03529e-15 0)
(1.4 7.86518e-16 0)
(1.4 1.90958e-16 0)
(1.4 -5.75099e-16 0)
(1.4 -1.91861e-15 0)
(1.4 -2.01969e-15 0)
(1.4 -2.48927e-15 0)
(1.4 -2.59975e-15 0)
(1.4 -2.64262e-15 0)
(1.4 -2.86907e-15 0)
(1.4 -3.23922e-15 0)
(1.4 -4.01143e-15 0)
(1.4 -4.33612e-15 0)
(1.4 -4.8705e-15 0)
(1.4 -5.04277e-15 0)
(1.4 -4.88298e-15 0)
(1.4 -4.56502e-15 0)
(1.4 -4.2449e-15 0)
(1.4 -4.24174e-15 0)
(1.4 -4.09232e-15 0)
(1.4 -3.95249e-15 0)
(1.4 -3.97077e-15 0)
(1.4 -4.09497e-15 0)
(1.4 -3.94399e-15 0)
(1.4 -3.84157e-15 0)
(1.4 -5.9447e-16 0)
(1.4 -5.71894e-16 0)
(1.4 -7.05564e-16 0)
(1.4 -4.0528e-16 0)
(1.4 -2.30132e-16 0)
(1.4 -2.47866e-16 0)
(1.4 -4.20239e-16 0)
(1.4 -6.44722e-16 0)
(1.4 -7.14573e-16 0)
(1.4 -8.26312e-16 0)
(1.4 -1.10236e-15 0)
(1.4 -1.34196e-15 0)
(1.4 -1.36031e-15 0)
(1.4 -1.44238e-15 0)
(1.4 -1.51336e-15 0)
(1.4 -1.58946e-15 0)
(1.4 -1.4854e-15 0)
(1.4 -1.31215e-15 0)
(1.4 -1.15586e-15 0)
(1.4 -9.44252e-16 0)
(1.4 -1.06817e-15 0)
(1.4 -1.28385e-15 0)
(1.4 -1.3213e-15 0)
(1.4 -1.05506e-15 0)
(1.4 -8.70312e-16 0)
(1.4 -6.6544e-16 0)
(1.4 -5.10548e-16 0)
(1.4 -4.65762e-16 0)
(1.4 -4.07174e-16 0)