/*--------------------------------*- C++ -*----------------------------------*\
  =========                 |
  \\      /  F ield         | OpenFOAM: The Open Source CFD Toolbox
   \\    /   O peration     | Website:  https://openfoam.org
    \\  /    A nd           | Version:  7
     \\/     M anipulation  |
\*---------------------------------------------------------------------------*/
FoamFile
{
    version     2.0;
    format      ascii;
    class       volScalarField;
    location    "16";
    object      p;
}
// * * * * * * * * * * * * * * * * * * * * * * * * * * * * * * * * * * * * * //

dimensions      [1 -1 -2 0 0 0 0];

internalField   nonuniform List<scalar> 
2413
(
1.00317
1.00636
1.0088
1.01155
1.01373
1.01511
1.0165
1.01798
1.01923
1.02057
1.02233
1.02417
1.02593
1.02781
1.03
1.03228
1.03418
1.03607
1.03833
1.03998
1.04159
1.04362
1.04573
1.04753
1.04896
1.04997
1.05064
1.05115
1.05124
1.05117
1.05126
1.05142
1.05153
1.05158
1.0514
1.0509
1.05007
1.04899
1.04802
1.04747
1.04742
1.04783
1.0486
1.04948
1.0502
1.05061
1.05059
1.05013
1.04944
1.04886
1.04865
1.0489
1.0496
1.05068
1.05189
1.05314
1.05463
1.05576
1.05566
1.0556
1.05594
1.0546
1.05377
1.05281
1.049
1.04987
1.05205
1.05239
1.05175
1.05279
1.05432
1.04934
1.04651
1.04484
1.04279
1.03952
1.03439
1.02762
1.01956
1.01064
1.00125
0.991438
0.980792
0.968809
0.955236
0.940251
0.924097
0.906765
0.888486
0.869609
0.850572
0.831705
0.813076
0.794573
0.776125
0.757915
0.740554
0.725281
0.713603
0.706263
0.701994
0.698616
0.694419
0.689701
0.687908
0.688629
0.689945
0.69239
0.696442
0.70198
0.709215
0.718001
0.728059
0.738993
0.750797
0.762995
0.775812
0.789475
0.804435
0.821056
0.839897
0.862084
0.887267
0.912892
0.945062
0.97936
1.02087
1.0618
1.11213
1.16141
1.21788
1.27382
0.999892
1.00448
1.00643
1.00845
1.01136
1.01331
1.01411
1.01548
1.01743
1.01869
1.01983
1.02162
1.02367
1.02561
1.02749
1.02976
1.03245
1.03482
1.03722
1.03926
1.04087
1.04265
1.04456
1.04621
1.0476
1.04869
1.0495
1.0502
1.05059
1.05059
1.05047
1.05035
1.05017
1.04993
1.04955
1.04893
1.04819
1.04748
1.04692
1.0467
1.04687
1.04733
1.04789
1.04843
1.04891
1.0492
1.04919
1.04893
1.04866
1.04872
1.04914
1.04986
1.05074
1.05183
1.05281
1.05342
1.05388
1.05435
1.05427
1.05401
1.05494
1.05504
1.05491
1.05444
1.05166
1.0523
1.05456
1.05566
1.0559
1.05727
1.0616
1.05822
1.05592
1.05502
1.05366
1.05153
1.04849
1.0444
1.03914
1.03209
1.02252
1.01015
0.995317
0.97879
0.961264
0.943065
0.924081
0.904359
0.884275
0.864324
0.844866
0.826024
0.807715
0.789764
0.772058
0.754668
0.737996
0.723008
0.711185
0.703448
0.698897
0.695395
0.691243
0.686729
0.685004
0.68568
0.687287
0.690008
0.694407
0.700399
0.70804
0.717084
0.727278
0.7384
0.750458
0.763185
0.776902
0.791474
0.807524
0.825236
0.845622
0.868696
0.895044
0.922945
0.956101
0.989921
1.029
1.06654
1.1096
1.15105
1.19679
1.24893
1.00114
1.00636
1.00871
1.01001
1.01251
1.01576
1.01647
1.01685
1.019
1.02111
1.02159
1.0229
1.02529
1.02647
1.02787
1.03016
1.03275
1.03509
1.03725
1.0392
1.041
1.04288
1.0448
1.04664
1.04831
1.04973
1.05084
1.05168
1.05197
1.05162
1.05094
1.05018
1.04948
1.04896
1.04863
1.04841
1.04822
1.04805
1.04777
1.04734
1.04695
1.04676
1.04679
1.04698
1.04723
1.04749
1.04779
1.04813
1.04848
1.04888
1.04937
1.04997
1.05056
1.05093
1.0513
1.05175
1.05192
1.0519
1.05193
1.05197
1.05315
1.05452
1.05413
1.05366
1.05171
1.05057
1.05192
1.05288
1.05286
1.05384
1.05663
1.0517
1.04812
1.04595
1.04365
1.04018
1.03485
1.02793
1.0195
1.00974
0.998932
0.987313
0.974898
0.961462
0.946574
0.929895
0.911706
0.892742
0.873439
0.854157
0.835203
0.816789
0.798965
0.781674
0.764872
0.748597
0.733056
0.718815
0.707044
0.698833
0.693836
0.690129
0.686057
0.68241
0.681693
0.682716
0.684926
0.688159
0.692798
0.698912
0.706468
0.715495
0.725754
0.737292
0.750061
0.763989
0.77929
0.796095
0.815225
0.836415
0.860364
0.886019
0.914163
0.943833
0.975226
1.00519
1.03685
1.06667
1.09819
1.12852
1.16181
1.2094
1.00015
1.00467
1.00593
1.00804
1.01083
1.0133
1.01438
1.01471
1.01681
1.01886
1.01921
1.02079
1.02302
1.02392
1.02557
1.02853
1.03123
1.03379
1.03631
1.03879
1.04126
1.04373
1.04616
1.04839
1.05022
1.05159
1.05258
1.05307
1.05296
1.05233
1.05149
1.05075
1.05023
1.04989
1.04959
1.04917
1.04868
1.0482
1.04775
1.04737
1.04718
1.04726
1.04758
1.04806
1.0486
1.04904
1.04932
1.04949
1.04962
1.0498
1.05009
1.05051
1.05105
1.05157
1.05203
1.05224
1.05213
1.05217
1.05275
1.05341
1.05368
1.05419
1.05471
1.0541
1.0523
1.05036
1.05082
1.05114
1.04994
1.05016
1.0543
1.04953
1.0449
1.0421
1.03938
1.03513
1.02883
1.02115
1.01222
1.00207
0.990706
0.978122
0.964265
0.949131
0.932913
0.915791
0.897982
0.879599
0.860764
0.841767
0.822967
0.804707
0.78714
0.770321
0.754299
0.739158
0.725013
0.712035
0.700877
0.692503
0.686945
0.682688
0.678374
0.675356
0.675026
0.676215
0.678844
0.682868
0.688373
0.695309
0.703429
0.712767
0.723241
0.734923
0.74838
0.76312
0.780488
0.799284
0.821996
0.847084
0.874814
0.903185
0.933325
0.963008
0.991436
1.01682
1.04127
1.06444
1.08858
1.11184
1.13597
1.17671
0.999341
1.00282
1.00327
1.00699
1.00996
1.01053
1.01236
1.01457
1.01639
1.01737
1.01872
1.02103
1.02231
1.02294
1.0254
1.028
1.03039
1.03316
1.03585
1.03853
1.04117
1.04353
1.04563
1.04749
1.04906
1.05022
1.05098
1.05131
1.05117
1.0506
1.04975
1.04884
1.04801
1.04735
1.04685
1.04646
1.04616
1.04593
1.04573
1.04552
1.04541
1.04549
1.04573
1.04606
1.04639
1.04667
1.04691
1.04717
1.04751
1.04794
1.04849
1.04918
1.04996
1.05067
1.05122
1.0516
1.05182
1.05191
1.05199
1.05215
1.05243
1.05306
1.05429
1.05541
1.05436
1.05187
1.05031
1.05017
1.04902
1.04666
1.04807
1.04932
1.04312
1.03893
1.03561
1.03128
1.02484
1.01677
1.00723
0.995904
0.982812
0.968327
0.952947
0.9369
0.920174
0.902711
0.884523
0.865787
0.846788
0.8279
0.80933
0.791339
0.77409
0.757646
0.742144
0.727729
0.714622
0.702896
0.692795
0.685028
0.679673
0.67545
0.671739
0.669941
0.670308
0.671958
0.674944
0.679326
0.68488
0.691897
0.70047
0.710418
0.721491
0.734212
0.749058
0.76582
0.786514
0.810509
0.837303
0.864854
0.895905
0.926322
0.955434
0.982498
1.00619
1.02685
1.04625
1.06561
1.08416
1.10419
1.12158
1.15409
0.997438
0.999455
0.999502
1.00505
1.0067
1.00645
1.00987
1.0126
1.01255
1.01434
1.0174
1.01866
1.01885
1.02114
1.02351
1.025
1.02814
1.03132
1.03428
1.03791
1.0415
1.04449
1.04674
1.04865
1.05019
1.05134
1.0521
1.05238
1.0522
1.05162
1.05071
1.04954
1.04832
1.04729
1.04656
1.04601
1.04557
1.04528
1.0452
1.04531
1.04547
1.04558
1.04565
1.04578
1.04605
1.04633
1.04656
1.04689
1.04742
1.04816
1.04904
1.04993
1.05073
1.05135
1.05171
1.05185
1.05181
1.05158
1.05128
1.05112
1.05106
1.05084
1.05056
1.05059
1.05144
1.05025
1.04724
1.04655
1.04627
1.04409
1.04134
1.0424
1.04202
1.03573
1.03069
1.02621
1.02027
1.01186
1.00126
0.988621
0.974151
0.958231
0.941421
0.924035
0.906228
0.888221
0.870012
0.85149
0.832631
0.813909
0.79566
0.778017
0.761135
0.745097
0.730064
0.716185
0.703612
0.692463
0.682959
0.675571
0.67031
0.665959
0.662604
0.661586
0.662349
0.664611
0.668186
0.673189
0.67944
0.6869
0.695696
0.70559
0.717763
0.73145
0.747965
0.767383
0.790019
0.818939
0.852084
0.886671
0.920053
0.949726
0.972627
0.99388
1.01317
1.03197
1.04807
1.06541
1.08185
1.10102
1.11422
1.14062
0.994603
0.996427
0.995775
1.00169
1.00355
1.00323
1.00723
1.00949
1.00905
1.01146
1.01505
1.01511
1.01621
1.01978
1.02106
1.02248
1.02678
1.02988
1.0326
1.0369
1.04203
1.046
1.04841
1.05002
1.05135
1.0523
1.05265
1.05253
1.05223
1.05159
1.05036
1.04881
1.04742
1.04626
1.04523
1.04437
1.04391
1.04389
1.04399
1.04401
1.04403
1.04426
1.04467
1.04502
1.04524
1.0454
1.04561
1.04596
1.04646
1.04703
1.04766
1.04839
1.04918
1.04996
1.05054
1.05086
1.05092
1.05078
1.0506
1.05047
1.05027
1.04979
1.04891
1.0478
1.04708
1.04727
1.04485
1.04085
1.04096
1.03962
1.0365
1.03469
1.03464
1.03319
1.02656
1.02063
1.01451
1.00609
0.994869
0.981092
0.965532
0.948756
0.931331
0.913421
0.894894
0.875866
0.856827
0.838088
0.819285
0.800407
0.782192
0.764963
0.748509
0.732826
0.718107
0.704663
0.692634
0.681951
0.673045
0.66643
0.661738
0.657875
0.655043
0.654388
0.655681
0.658252
0.662197
0.667455
0.67439
0.681999
0.69141
0.701941
0.715335
0.731048
0.749716
0.772775
0.801723
0.83758
0.876645
0.914589
0.945026
0.968826
0.986571
1.00447
1.01919
1.03557
1.05054
1.06785
1.08356
1.10077
1.11333
1.13627
0.991637
0.99383
0.992613
0.997694
1.00072
1.00061
1.00418
1.00665
1.00614
1.00827
1.01226
1.01239
1.01345
1.01757
1.01899
1.02032
1.02444
1.02777
1.03092
1.03543
1.04137
1.04745
1.04983
1.05085
1.05178
1.05245
1.0526
1.05251
1.05198
1.05077
1.04933
1.0482
1.04697
1.04545
1.04404
1.04311
1.04251
1.04193
1.04135
1.04128
1.0419
1.04254
1.04289
1.0432
1.04369
1.0443
1.04479
1.04513
1.04545
1.04587
1.04647
1.04728
1.04817
1.04895
1.04946
1.04973
1.04986
1.04982
1.04961
1.04923
1.04874
1.04822
1.04771
1.04699
1.04591
1.04495
1.04371
1.04283
1.03859
1.03579
1.0329
1.0286
1.02689
1.0277
1.02541
1.01614
1.00732
0.999512
0.98758
0.972562
0.956334
0.939636
0.921849
0.903677
0.885336
0.866226
0.846657
0.82774
0.809551
0.79102
0.772536
0.755304
0.739317
0.724227
0.710001
0.696633
0.684514
0.673814
0.664931
0.658944
0.654865
0.651539
0.648819
0.648083
0.649737
0.652839
0.657045
0.662141
0.668953
0.677475
0.68784
0.699449
0.712686
0.730302
0.75327
0.784611
0.825229
0.869212
0.907694
0.939541
0.962896
0.982556
0.997541
1.01096
1.02283
1.03729
1.05037
1.06528
1.07963
1.09742
1.11196
1.1339
0.989273
0.99182
0.990355
0.993749
0.998161
0.998381
1.00092
1.0041
1.0038
1.00482
1.00898
1.0098
1.01017
1.01394
1.01664
1.01806
1.02144
1.02577
1.02985
1.03498
1.04177
1.04888
1.05265
1.05334
1.05334
1.0531
1.05306
1.0525
1.05101
1.04911
1.04766
1.04591
1.0437
1.04201
1.04117
1.04048
1.03949
1.03855
1.03848
1.03906
1.03942
1.03945
1.04014
1.04141
1.04202
1.04205
1.04225
1.04281
1.04325
1.04346
1.04377
1.04435
1.04505
1.04573
1.04641
1.04695
1.04713
1.047
1.04679
1.04656
1.04613
1.04548
1.04472
1.04392
1.04295
1.04165
1.04082
1.04027
1.0397
1.03854
1.0334
1.02766
1.02216
1.01751
1.01277
1.00718
1.00237
0.992027
0.978982
0.964959
0.949286
0.932458
0.914356
0.895525
0.876826
0.857774
0.837547
0.817799
0.799656
0.782039
0.764046
0.746352
0.729893
0.715154
0.702145
0.689597
0.676847
0.665473
0.656873
0.651381
0.647942
0.644944
0.64245
0.64236
0.644389
0.647442
0.651851
0.65775
0.664898
0.673367
0.683681
0.696816
0.712909
0.734615
0.765712
0.809208
0.858354
0.904008
0.938234
0.963567
0.980573
0.996174
1.0075
1.01886
1.0285
1.03962
1.05152
1.06528
1.07887
1.09502
1.11071
1.13269
0.987054
0.989825
0.988911
0.99053
0.995497
0.996458
0.998083
1.00175
1.00221
1.00236
1.00598
1.00805
1.0081
1.01056
1.01449
1.01638
1.01917
1.02356
1.02838
1.03406
1.04153
1.04913
1.05396
1.05485
1.05468
1.05464
1.05445
1.0532
1.05108
1.04943
1.04746
1.04447
1.0422
1.0419
1.04129
1.03971
1.03818
1.03757
1.03757
1.0373
1.03674
1.03721
1.03871
1.03943
1.03946
1.04059
1.04179
1.04192
1.04178
1.04209
1.04235
1.04239
1.04245
1.04285
1.04339
1.04366
1.04367
1.04372
1.04381
1.04366
1.04307
1.04219
1.04121
1.04013
1.03894
1.03752
1.03576
1.03375
1.03257
1.03193
1.03158
1.02681
1.02066
1.01429
1.00674
1.00017
0.991362
0.982422
0.9733
0.958349
0.942533
0.925853
0.908803
0.890683
0.872311
0.853884
0.834806
0.814192
0.793583
0.775581
0.759187
0.742599
0.725668
0.709978
0.697772
0.687356
0.675193
0.662364
0.653771
0.649265
0.645855
0.642726
0.640715
0.641141
0.643449
0.647218
0.65188
0.657789
0.665166
0.674084
0.6853
0.700475
0.720608
0.750805
0.79425
0.847473
0.899458
0.940903
0.967108
0.984192
0.995098
1.00554
1.01441
1.02364
1.03158
1.04168
1.05356
1.06762
1.08027
1.09388
1.10877
1.13115
0.985959
0.988543
0.988383
0.988582
0.992889
0.994698
0.995729
0.999167
1.00041
1.00032
1.00295
1.00587
1.00608
1.00771
1.0117
1.01423
1.01702
1.02166
1.02754
1.03435
1.04255
1.05012
1.05429
1.05495
1.05492
1.0551
1.05441
1.0529
1.05158
1.04938
1.04585
1.04211
1.04068
1.03973
1.03784
1.03615
1.03595
1.03605
1.03527
1.03395
1.03354
1.03456
1.03495
1.03446
1.03565
1.03718
1.03709
1.0378
1.0398
1.03989
1.03894
1.03895
1.03925
1.03934
1.03937
1.03945
1.03961
1.03964
1.03934
1.03871
1.03808
1.03765
1.03697
1.03566
1.03393
1.03235
1.03131
1.03041
1.02824
1.02483
1.02179
1.01943
1.01825
1.00989
1.00086
0.993671
0.985253
0.975555
0.962793
0.9524
0.938249
0.921711
0.905177
0.887489
0.86933
0.851081
0.832612
0.814682
0.796658
0.777254
0.759648
0.745605
0.73072
0.71275
0.698082
0.689922
0.680256
0.665598
0.655879
0.654146
0.649944
0.644807
0.643694
0.644416
0.645897
0.649549
0.654707
0.660844
0.668395
0.678552
0.691299
0.709471
0.7372
0.778879
0.83534
0.897353
0.94586
0.973231
0.989707
1.00145
1.0091
1.01534
1.02079
1.02907
1.03888
1.04892
1.05861
1.07139
1.08471
1.09682
1.10928
1.13022
0.984166
0.986659
0.987182
0.987132
0.990366
0.993053
0.993715
0.996311
0.998564
0.998564
1.00004
1.00336
1.00414
1.00515
1.00864
1.01193
1.015
1.01973
1.0265
1.03494
1.0442
1.05188
1.05482
1.05509
1.05515
1.05482
1.05356
1.05238
1.05051
1.04727
1.04327
1.04018
1.03804
1.03582
1.03348
1.03243
1.03272
1.0328
1.03165
1.03077
1.03153
1.03265
1.03197
1.0319
1.03366
1.03389
1.03344
1.03555
1.03624
1.03568
1.03757
1.03791
1.036
1.03478
1.03512
1.03558
1.03564
1.03536
1.03484
1.03438
1.03408
1.03348
1.03222
1.0305
1.02867
1.02689
1.02527
1.02367
1.0217
1.01914
1.01528
1.01101
1.00616
1.00133
0.997655
0.985279
0.97871
0.97121
0.958741
0.945352
0.932503
0.920528
0.904952
0.88786
0.870784
0.853687
0.83444
0.814325
0.799111
0.783157
0.763155
0.748238
0.736894
0.721486
0.703416
0.694623
0.687309
0.673904
0.660799
0.660836
0.659421
0.652205
0.652604
0.653516
0.652584
0.655916
0.662501
0.669117
0.677495
0.689468
0.706291
0.732255
0.774465
0.83398
0.900106
0.950371
0.981787
1.00026
1.00893
1.01379
1.01785
1.02302
1.02906
1.03642
1.04614
1.05591
1.06466
1.07553
1.08847
1.09995
1.11037
1.12939
0.983724
0.986134
0.987021
0.986827
0.989042
0.991692
0.992093
0.994175
0.996901
0.996991
0.997673
1.00107
1.00243
1.00288
1.00583
1.00994
1.01338
1.01832
1.02571
1.03564
1.04619
1.05414
1.05594
1.05605
1.05593
1.0549
1.05369
1.05226
1.04958
1.04583
1.04195
1.03874
1.03574
1.03274
1.03058
1.03
1.03046
1.02993
1.02848
1.02853
1.03011
1.03038
1.02964
1.03063
1.03164
1.03065
1.03139
1.03291
1.03201
1.03317
1.03461
1.03295
1.03294
1.03388
1.03311
1.0316
1.03081
1.03055
1.03016
1.02951
1.02869
1.02777
1.02678
1.02546
1.02376
1.02181
1.01971
1.01737
1.01474
1.01188
1.00874
1.00506
1.00026
0.996127
0.990729
0.981465
0.976753
0.966247
0.953192
0.942022
0.929857
0.917075
0.904376
0.888565
0.872099
0.856812
0.841705
0.822979
0.80548
0.791653
0.773387
0.755611
0.7448
0.731881
0.714432
0.70597
0.699595
0.688753
0.674765
0.672508
0.675187
0.668943
0.66655
0.667043
0.66467
0.66766
0.673794
0.681366
0.692115
0.708201
0.733986
0.777087
0.840216
0.903133
0.956703
0.997184
1.01119
1.01824
1.02206
1.02398
1.02686
1.03113
1.03697
1.04428
1.05341
1.06381
1.07276
1.08198
1.0932
1.10561
1.11516
1.13112
0.982107
0.984672
0.986152
0.986198
0.98772
0.990208
0.990643
0.991945
0.994837
0.995667
0.995832
0.998462
1.00057
1.00104
1.00328
1.00746
1.0116
1.01708
1.02525
1.03649
1.04823
1.05608
1.05738
1.0575
1.05688
1.05561
1.05452
1.05247
1.04907
1.04505
1.04118
1.0374
1.03372
1.03042
1.02846
1.02817
1.0282
1.02707
1.02623
1.02716
1.02849
1.02782
1.02772
1.02921
1.0288
1.02802
1.0296
1.0296
1.02879
1.03068
1.03004
1.02844
1.02999
1.0296
1.02721
1.02832
1.02952
1.0284
1.02625
1.02475
1.02422
1.02354
1.02196
1.01984
1.01774
1.01567
1.0135
1.01125
1.00848
1.00492
1.00105
0.997239
0.993428
0.988001
0.980102
0.97332
0.967965
0.959423
0.949383
0.940991
0.927752
0.913078
0.902357
0.889639
0.875
0.859782
0.846292
0.832164
0.815807
0.802215
0.788045
0.772364
0.759647
0.745166
0.728115
0.72069
0.714067
0.703402
0.690627
0.687441
0.690293
0.687687
0.680338
0.680307
0.68324
0.683493
0.688467
0.701279
0.719114
0.750137
0.796024
0.855821
0.921821
0.976618
1.00985
1.02345
1.02768
1.02872
1.03025
1.03211
1.03499
1.0402
1.04699
1.05433
1.06181
1.07126
1.08071
1.08928
1.09787
1.10926
1.11841
1.13282
0.983289
0.984878
0.98552
0.98543
0.986962
0.989383
0.98998
0.991188
0.993932
0.994704
0.994489
0.996353
0.998806
0.999353
1.00119
1.00517
1.00976
1.01573
1.0247
1.03712
1.04992
1.05747
1.05865
1.05865
1.05775
1.0567
1.05533
1.05262
1.04863
1.04445
1.04027
1.03586
1.03173
1.0285
1.02689
1.02656
1.02597
1.02469
1.02442
1.02578
1.02619
1.02523
1.02599
1.0269
1.02579
1.02597
1.02733
1.02621
1.02634
1.02758
1.02545
1.02537
1.02716
1.02479
1.02242
1.02452
1.02525
1.02201
1.0212
1.02177
1.02108
1.01876
1.0166
1.01548
1.01354
1.01083
1.00831
1.00542
1.0014
0.997251
0.993957
0.990347
0.985446
0.979303
0.973941
0.969585
0.963122
0.954266
0.945616
0.936408
0.924972
0.914265
0.903102
0.890581
0.877371
0.862299
0.849194
0.839202
0.826456
0.810754
0.797079
0.78698
0.776082
0.761026
0.747574
0.742139
0.734462
0.720823
0.710827
0.709859
0.709361
0.705095
0.697116
0.696211
0.70324
0.705345
0.713447
0.736549
0.774291
0.825104
0.882125
0.94685
0.996362
1.01988
1.03285
1.03801
1.03734
1.03582
1.03742
1.04098
1.04556
1.05058
1.05621
1.06321
1.07038
1.0786
1.08712
1.09524
1.10314
1.1135
1.12212
1.13547
0.982125
0.9839
0.985593
0.986268
0.986622
0.987894
0.988244
0.988184
0.990197
0.991945
0.992146
0.993657
0.996272
0.997343
0.999393
1.0032
1.00805
1.01459
1.02454
1.03799
1.05164
1.0587
1.0597
1.0595
1.05864
1.05757
1.0557
1.05243
1.0481
1.0436
1.03892
1.03401
1.02996
1.02691
1.02517
1.02443
1.02345
1.02229
1.02249
1.02368
1.02318
1.02237
1.02356
1.02362
1.02266
1.02383
1.02418
1.02293
1.02404
1.02384
1.02173
1.02266
1.02343
1.02017
1.01831
1.02062
1.0205
1.01648
1.01603
1.01721
1.01492
1.01303
1.01266
1.01141
1.00775
1.00547
1.00425
1.00116
0.995846
0.991912
0.989061
0.984732
0.978875
0.972545
0.967612
0.96242
0.955147
0.947693
0.940418
0.931959
0.92242
0.913232
0.903677
0.89241
0.880549
0.865297
0.852782
0.844334
0.833599
0.818214
0.804415
0.797123
0.788286
0.773426
0.761762
0.757735
0.750705
0.736931
0.728806
0.728398
0.727838
0.723411
0.716992
0.718102
0.729066
0.743499
0.769451
0.812827
0.867771
0.927258
0.977786
1.0154
1.03533
1.04379
1.04523
1.04451
1.04418
1.04581
1.04878
1.05222
1.05612
1.06039
1.06518
1.07185
1.07775
1.08461
1.09242
1.10063
1.10798
1.11685
1.12467
1.13766
0.983186
0.984073
0.984811
0.984762
0.984198
0.985435
0.986865
0.986944
0.98813
0.990259
0.990809
0.99197
0.99456
0.996057
0.998075
1.00169
1.0067
1.01373
1.02455
1.03888
1.0531
1.05953
1.06027
1.06005
1.0593
1.058
1.05574
1.05207
1.04734
1.04236
1.03721
1.03209
1.02811
1.02492
1.02285
1.02166
1.02038
1.01964
1.02042
1.02102
1.0198
1.01954
1.02064
1.01996
1.01964
1.02114
1.02053
1.01994
1.02127
1.02005
1.01853
1.02003
1.01952
1.01607
1.01559
1.01742
1.01498
1.01191
1.01333
1.01334
1.00874
1.00728
1.00805
1.00536
1.00118
1.00039
0.999503
0.995755
0.989279
0.98638
0.985218
0.981183
0.974783
0.968838
0.964705
0.959575
0.952229
0.944335
0.936692
0.929788
0.922361
0.913032
0.903213
0.893746
0.88416
0.871988
0.859532
0.84948
0.840024
0.826058
0.812986
0.804062
0.795341
0.782094
0.772487
0.768279
0.761839
0.751776
0.74473
0.742426
0.746115
0.749012
0.748522
0.756301
0.782727
0.818857
0.861475
0.92058
0.972122
1.00755
1.03471
1.04711
1.04919
1.04915
1.04874
1.04983
1.05196
1.05469
1.05762
1.06118
1.06531
1.06885
1.07252
1.07839
1.0845
1.09094
1.09704
1.10411
1.11189
1.12
1.12679
1.13934
0.982007
0.982523
0.983417
0.983889
0.98348
0.984273
0.98586
0.98632
0.987263
0.989295
0.989962
0.990836
0.993093
0.994654
0.996577
0.999964
1.00509
1.01269
1.02457
1.04002
1.05472
1.06028
1.06077
1.06054
1.05969
1.0581
1.0555
1.0514
1.04624
1.04092
1.03556
1.03028
1.02602
1.02268
1.02026
1.01858
1.01723
1.01717
1.01824
1.01794
1.01651
1.01703
1.0176
1.01643
1.01692
1.01805
1.01681
1.01708
1.0181
1.01624
1.01575
1.01722
1.01548
1.01263
1.01361
1.01384
1.01023
1.00925
1.01065
1.00804
1.00403
1.00417
1.00429
0.999441
0.995328
0.995441
0.994215
0.989939
0.983556
0.98047
0.97995
0.975978
0.96901
0.963449
0.961018
0.956733
0.949756
0.942067
0.935023
0.929053
0.922251
0.913477
0.90437
0.896405
0.888395
0.877813
0.865257
0.853423
0.844431
0.833737
0.820804
0.809477
0.800529
0.791772
0.78357
0.777194
0.773896
0.770649
0.767412
0.770604
0.783571
0.794982
0.811318
0.842705
0.886261
0.923249
0.967132
1.01079
1.03221
1.04655
1.05542
1.0558
1.05363
1.0544
1.05772
1.06025
1.06188
1.06402
1.06617
1.06848
1.07193
1.07585
1.07999
1.08498
1.09031
1.09625
1.10157
1.10762
1.1146
1.12214
1.12851
1.14086
0.982114
0.982391
0.982652
0.982932
0.982847
0.983686
0.985334
0.985858
0.986534
0.988282
0.989004
0.989841
0.991795
0.993365
0.995261
0.998526
1.00375
1.0119
1.02488
1.0415
1.0565
1.061
1.06128
1.06096
1.05987
1.058
1.05506
1.05061
1.04526
1.03975
1.03422
1.02865
1.02408
1.02061
1.01772
1.01549
1.01455
)
;

boundaryField
{
    inlet
    {
        type            fixedValue;
        value           nonuniform 0();
    }
    outlet
    {
        type            zeroGradient;
    }
    bottom
    {
        type            symmetryPlane;
    }
    top
    {
        type            symmetryPlane;
    }
    obstacle
    {
        type            zeroGradient;
    }
    front
    {
        type            empty;
    }
    back
    {
        type            empty;
    }
    procBoundary7to6
    {
        type            processor;
        value           nonuniform List<scalar> 
18
(
0.997946
0.994579
0.996505
0.994817
0.992602
0.989592
0.987251
0.985679
0.984595
0.98338
0.982899
0.981992
0.981506
0.980406
0.981935
0.981298
0.982397
0.981596
)
;
    }
    procBoundary7to14
    {
        type            processor;
        value           uniform 0.981525;
    }
    procBoundary7to15
    {
        type            processor;
        value           nonuniform List<scalar> 
133
(
1.01514
1.01563
1.01445
1.01382
1.01491
1.01449
1.01341
1.01455
1.01467
1.01329
1.01435
1.01454
1.01274
1.01328
1.01411
1.01132
1.00994
1.0113
1.00986
1.00654
1.00672
1.00713
1.00349
1.00046
1.00085
0.999596
0.995306
0.991213
0.990552
0.989265
0.984778
0.978522
0.975548
0.974431
0.970186
0.963462
0.95792
0.955457
0.951424
0.944866
0.937564
0.931828
0.926672
0.920155
0.911954
0.903186
0.895115
0.887094
0.87753
0.866985
0.856245
0.846876
0.837235
0.827146
0.816477
0.809142
0.804514
0.798029
0.79657
0.802858
0.806059
0.812672
0.830797
0.851077
0.87949
0.915423
0.947935
0.979255
1.00741
1.03791
1.05255
1.05648
1.05997
1.06272
1.06291
1.06288
1.06445
1.06657
1.0678
1.06875
1.07042
1.07228
1.07476
1.07852
1.08257
1.0862
1.09029
1.09495
1.10027
1.10528
1.11045
1.11629
1.12321
1.12955
1.14177
0.981468
0.98162
0.982587
0.983245
0.983227
0.983357
0.984615
0.985182
0.985809
0.987251
0.9879
0.988736
0.990502
0.992081
0.993988
0.997224
1.00256
1.01129
1.02536
1.04316
1.0583
1.06181
1.06191
1.06143
1.06011
1.05798
1.05469
1.04999
1.04462
1.03897
1.03318
1.02737
1.02264
1.01889
1.01532
1.01285
1.01514
1.0126
)
;
    }
}


// ************************************************************************* //
