/*--------------------------------*- C++ -*----------------------------------*\
  =========                 |
  \\      /  F ield         | OpenFOAM: The Open Source CFD Toolbox
   \\    /   O peration     | Website:  https://openfoam.org
    \\  /    A nd           | Version:  7
     \\/     M anipulation  |
\*---------------------------------------------------------------------------*/
FoamFile
{
    version     2.0;
    format      ascii;
    class       surfaceScalarField;
    location    "15";
    object      phi;
}
// * * * * * * * * * * * * * * * * * * * * * * * * * * * * * * * * * * * * * //

dimensions      [0 3 -1 0 0 0 0];

internalField   nonuniform List<scalar> 
1164
(
0.141448
-0.000223229
0.141676
-0.000228016
-0.000232721
0.141909
0.138164
-0.000441276
0.138387
-0.00045074
-0.00046004
0.138615
0.134958
-0.000654268
0.135175
-0.0006683
-0.000682089
0.135397
0.131826
-0.000862326
0.132038
-0.000880818
-0.000898992
0.132255
0.128768
-0.00106557
0.128975
-0.00108842
-0.00111087
0.129187
0.125781
-0.0012641
0.125984
-0.00129121
-0.00131785
0.126191
0.122864
-0.00145805
0.123062
-0.00148932
-0.00152005
0.123264
0.120016
-0.00164752
0.120209
-0.00168285
-0.00171757
0.120407
0.117234
-0.00183262
0.117423
-0.00187191
-0.00191054
0.117616
0.114518
-0.00201344
0.114702
-0.00205662
-0.00209905
0.114891
0.111865
-0.00219011
0.112045
-0.00223707
-0.00228323
0.112229
0.109274
-0.00236271
0.10945
-0.00241337
-0.00246317
0.10963
0.106744
-0.00253134
0.106916
-0.00258562
-0.00263897
0.107092
0.104273
-0.00269611
0.104442
-0.00275391
-0.00281074
0.104613
0.101861
-0.0028571
0.102025
-0.00291835
-0.00297858
0.102193
0.0995046
-0.0030144
0.0996652
-0.00307902
-0.00314257
0.0998292
0.097204
-0.00316812
0.097361
-0.00323602
-0.00330282
0.0975212
0.0949575
-0.00331832
0.0951109
-0.00338944
-0.0034594
0.0952675
0.0927639
-0.0034651
0.0929139
-0.00353936
-0.00361242
0.0930669
0.0906221
-0.00360853
0.0907686
-0.00368586
-0.00376195
0.0909181
0.0885307
-0.0037487
0.0886739
-0.00382902
-0.00390808
0.08882
0.0864887
-0.00388568
0.0866286
-0.00396893
-0.00405088
0.0867714
0.0844949
-0.00401954
0.0846316
-0.00410565
-0.00419044
0.0847711
0.0825481
-0.00415036
0.0826817
-0.00423926
-0.00432682
0.0828181
0.0806472
-0.00427819
0.0807777
-0.00436983
-0.00446011
0.080911
0.0787908
-0.00440314
0.0789184
-0.00449745
-0.00459039
0.0790487
0.0769781
-0.00452529
0.0771028
-0.00462221
-0.00471775
0.0772302
0.0752081
-0.00464472
0.07533
-0.00474419
-0.00484228
0.0754546
0.07348
0.0735993
0.0737211
0.141909
-9.66457e-08
0.141909
-6.11689e-08
0.141909
-2.33793e-08
0.141909
1.70816e-08
0.141909
6.0026e-08
0.141909
1.05445e-07
0.141909
1.5359e-07
0.141909
2.0461e-07
0.141909
2.58623e-07
0.141908
3.15703e-07
0.141908
3.75982e-07
0.141907
4.39796e-07
0.141907
5.07419e-07
0.141906
5.7869e-07
0.141906
6.53285e-07
0.141905
7.31283e-07
0.141904
8.13028e-07
8.98722e-07
0.138615
-1.90835e-07
0.138615
-1.21207e-07
0.138615
-4.60295e-08
0.138615
3.37685e-08
0.138615
1.1834e-07
0.138615
2.08408e-07
0.138614
3.04108e-07
0.138614
4.05664e-07
0.138614
5.13262e-07
0.138614
6.27141e-07
0.138613
7.47654e-07
0.138613
8.75124e-07
0.138612
1.00974e-06
0.138612
1.15154e-06
0.138611
1.30047e-06
0.13861
1.45659e-06
0.13861
1.62007e-06
1.791e-06
0.135397
-2.83546e-07
0.135397
-1.79503e-07
0.135397
-6.72468e-08
0.135397
5.22561e-08
0.135397
1.79306e-07
0.135397
3.1457e-07
0.135397
4.58387e-07
0.135397
6.11088e-07
0.135397
7.72932e-07
0.135396
9.44264e-07
0.135396
1.12558e-06
0.135395
1.3173e-06
0.135395
1.51968e-06
0.135394
1.73279e-06
0.135394
1.95659e-06
0.135393
2.19119e-06
0.135392
2.43681e-06
2.69355e-06
0.132255
-3.74122e-07
0.132255
-2.3483e-07
0.132255
-8.43394e-08
0.132255
7.57838e-08
0.132255
2.46054e-07
0.132255
4.27432e-07
0.132255
6.20337e-07
0.132255
8.25244e-07
0.132255
1.04251e-06
0.132254
1.27256e-06
0.132254
1.516e-06
0.132253
1.77335e-06
0.132253
2.04493e-06
0.132252
2.33084e-06
0.132252
2.63104e-06
0.132251
2.94564e-06
0.13225
3.27491e-06
3.61897e-06
0.129187
-4.62073e-07
0.129187
-2.86191e-07
0.129187
-9.61568e-08
0.129187
1.06034e-07
0.129187
3.21257e-07
0.129187
5.50506e-07
0.129187
7.94347e-07
0.129187
1.05339e-06
0.129186
1.32809e-06
0.129186
1.61896e-06
0.129185
1.92673e-06
0.129185
2.252e-06
0.129184
2.59514e-06
0.129184
2.95628e-06
0.129183
3.33535e-06
0.129182
3.73248e-06
0.129181
4.14799e-06
4.58199e-06
0.126191
-5.4689e-07
0.126191
-3.32603e-07
0.126191
-1.01001e-07
0.126191
1.45253e-07
0.126191
4.07578e-07
0.126191
6.86977e-07
0.12619
9.84158e-07
0.12619
1.29988e-06
0.12619
1.63469e-06
0.126189
1.98919e-06
0.126189
2.3642e-06
0.126188
2.76042e-06
0.126188
3.17828e-06
0.126187
3.61788e-06
0.126186
4.07915e-06
0.126186
4.5622e-06
0.126185
5.06739e-06
5.59481e-06
0.123265
-6.28384e-07
0.123265
-3.73339e-07
0.123265
-9.76321e-08
0.123265
1.95265e-07
0.123264
5.07527e-07
0.123264
8.40046e-07
0.123264
1.19368e-06
0.123264
1.56934e-06
0.123263
1.96768e-06
0.123263
2.38939e-06
0.123263
2.83538e-06
0.123262
3.30642e-06
0.123261
3.80297e-06
0.123261
4.32515e-06
0.12326
4.87282e-06
0.123259
5.4461e-06
0.123258
6.04532e-06
6.67055e-06
0.120407
-7.06062e-07
0.120407
-4.07398e-07
0.120407
-8.44686e-08
0.120407
2.58189e-07
0.120407
6.23792e-07
0.120407
1.01301e-06
0.120406
1.42686e-06
0.120406
1.86642e-06
0.120406
2.33245e-06
0.120405
2.82569e-06
0.120405
3.34716e-06
0.120404
3.89767e-06
0.120403
4.47774e-06
0.120403
5.08744e-06
0.120402
5.72658e-06
0.120401
6.39522e-06
0.1204
7.0937e-06
7.822e-06
0.117616
-7.79609e-07
0.117616
-4.33883e-07
0.117616
-5.99483e-08
0.117616
3.36172e-07
0.117616
7.59203e-07
0.117616
1.2094e-06
0.117615
1.68796e-06
0.117615
2.19613e-06
0.117615
2.73476e-06
0.117614
3.30467e-06
0.117614
3.90693e-06
0.117613
4.54243e-06
0.117612
5.21167e-06
0.117612
5.91471e-06
0.117611
6.65124e-06
0.11761
7.42127e-06
0.117608
8.22508e-06
9.06258e-06
0.114891
-8.48448e-07
0.114891
-4.51614e-07
0.114891
-2.21414e-08
0.114891
4.31722e-07
0.114891
9.16989e-07
0.11489
1.43319e-06
0.11489
1.98171e-06
0.11489
2.56398e-06
0.114889
3.18093e-06
0.114889
3.83346e-06
0.114888
4.52268e-06
0.114887
5.2495e-06
0.114887
6.01445e-06
0.114886
6.8175e-06
0.114885
7.65822e-06
0.114884
8.53653e-06
0.114882
9.45262e-06
1.04063e-05
0.112229
-9.116e-07
0.112229
-4.58828e-07
0.112229
2.99087e-08
0.112229
5.4806e-07
0.112229
1.10109e-06
0.112229
1.68907e-06
0.112228
2.31358e-06
0.112228
2.97623e-06
0.112227
3.67808e-06
0.112227
4.42002e-06
0.112226
5.20323e-06
0.112225
6.02862e-06
0.112225
6.89669e-06
0.112224
7.80732e-06
0.112222
8.75991e-06
0.112221
9.75425e-06
0.11222
1.07904e-05
1.1868e-05
0.10963
-9.67824e-07
0.10963
-4.53559e-07
0.10963
1.00378e-07
0.10963
6.88777e-07
0.10963
1.31597e-06
0.109629
1.9824e-06
0.109629
2.68982e-06
0.109629
3.44006e-06
0.109628
4.23425e-06
0.109627
5.07333e-06
0.109627
5.95847e-06
0.109626
6.89058e-06
0.109625
7.87009e-06
0.109624
8.89677e-06
0.109622
9.96979e-06
0.109621
1.10888e-05
0.10962
1.22536e-05
1.34638e-05
0.107092
-1.01491e-06
0.107092
-4.32713e-07
0.107092
1.93119e-07
0.107092
8.58691e-07
0.107091
1.56737e-06
0.107091
2.31979e-06
0.107091
3.11795e-06
0.10709
3.96389e-06
0.10709
4.85882e-06
0.107089
5.80367e-06
0.107088
6.79961e-06
0.107087
7.84751e-06
0.107086
8.94771e-06
0.107085
1.00998e-05
0.107083
1.13027e-05
0.107082
1.25558e-05
0.10708
1.38588e-05
1.52108e-05
0.104613
-1.04947e-06
0.104613
-3.91931e-07
0.104613
3.13309e-07
0.104613
1.06401e-06
0.104613
1.86241e-06
0.104612
2.70932e-06
0.104612
3.60699e-06
0.104611
4.55768e-06
0.10461
5.56267e-06
0.10461
6.62287e-06
0.104609
7.73942e-06
0.104608
8.91311e-06
0.104606
1.01441e-05
0.104605
1.14319e-05
0.104604
1.27749e-05
0.104602
1.41724e-05
0.1046
1.56238e-05
1.71278e-05
0.102193
-1.06642e-06
0.102193
-3.25137e-07
0.102193
4.67903e-07
0.102192
1.31266e-06
0.102192
2.20998e-06
0.102192
3.16083e-06
0.102191
4.16772e-06
0.10219
5.23314e-06
0.10219
6.35846e-06
0.102189
7.54452e-06
0.102188
8.7924e-06
0.102186
1.01028e-05
0.102185
1.14757e-05
0.102184
1.29102e-05
0.102182
1.44046e-05
0.10218
1.59575e-05
0.102178
1.75681e-05
1.9235e-05
0.0998292
-1.05857e-06
0.0998291
-2.24087e-07
0.0998289
6.65957e-07
0.0998286
1.61469e-06
0.0998282
2.62106e-06
0.0998277
3.68622e-06
0.099827
4.81296e-06
0.0998263
6.00403e-06
0.0998254
7.26083e-06
0.0998243
8.58415e-06
0.0998232
9.97497e-06
0.0998218
1.14338e-05
0.0998203
1.29605e-05
0.0998187
1.45538e-05
0.0998169
1.62113e-05
0.0998149
1.79315e-05
0.0998128
1.97131e-05
2.15541e-05
0.0975212
-1.01616e-06
0.097521
-7.77924e-08
0.0975208
9.18941e-07
0.0975204
1.9824e-06
0.0975199
3.10885e-06
0.0975193
4.29956e-06
0.0975186
5.55765e-06
0.0975177
6.88612e-06
0.0975167
8.2864e-06
0.0975155
9.75923e-06
0.0975142
1.13054e-05
0.0975127
1.29254e-05
0.097511
1.46186e-05
0.0975092
1.63832e-05
0.0975072
1.82166e-05
0.097505
2.01166e-05
0.0975026
2.20814e-05
2.41086e-05
0.0952674
-9.25554e-07
0.0952672
1.23546e-07
0.0952669
1.24173e-06
0.0952664
2.43131e-06
0.0952659
3.68945e-06
0.0952651
5.0176e-06
0.0952643
6.4192e-06
0.0952633
7.89751e-06
0.0952621
9.454e-06
0.0952608
1.10893e-05
0.0952593
1.28041e-05
0.0952576
1.45985e-05
0.0952558
1.64716e-05
0.0952537
1.84212e-05
0.0952515
2.04437e-05
0.0952491
2.25366e-05
0.0952465
2.46976e-05
2.69235e-05
0.0930667
-7.71893e-07
0.0930664
3.99629e-07
0.093066
1.65005e-06
0.0930655
2.97766e-06
0.0930648
4.3798e-06
0.093064
5.85803e-06
0.093063
7.41609e-06
0.0930618
9.05748e-06
0.0930605
1.07837e-05
0.093059
1.25953e-05
0.0930573
1.44927e-05
0.0930554
1.64757e-05
0.0930533
1.8543e-05
0.0930511
2.06917e-05
0.0930486
2.29175e-05
0.0930459
2.52171e-05
0.093043
2.75877e-05
3.00252e-05
0.0909179
-5.35317e-07
0.0909175
7.69645e-07
0.090917
2.16411e-06
0.0909163
3.64198e-06
0.0909155
5.20073e-06
0.0909145
6.84202e-06
0.0909134
8.56984e-06
0.090912
1.0388e-05
0.0909105
1.22979e-05
0.0909088
1.43001e-05
0.0909069
1.63947e-05
0.0909048
1.85812e-05
0.0909025
2.08577e-05
0.0909
2.32204e-05
0.0908972
2.56641e-05
0.0908943
2.81849e-05
0.0908911
3.07791e-05
3.34417e-05
0.0888197
-1.98852e-07
0.0888192
1.25014e-06
0.0888186
2.80023e-06
0.0888178
4.44114e-06
0.0888168
6.16997e-06
0.0888156
7.98826e-06
0.0888143
9.90019e-06
0.0888128
1.19097e-05
0.0888111
1.40185e-05
0.0888091
1.62266e-05
0.088807
1.85342e-05
0.0888046
2.094e-05
0.0888021
2.34415e-05
0.0887992
2.6034e-05
0.0887962
2.87113e-05
0.0887929
3.14684e-05
0.0887894
3.43008e-05
3.72026e-05
0.086771
2.62844e-07
0.0867704
1.86971e-06
0.0867696
3.58611e-06
0.0867686
5.4017e-06
0.0867675
7.31311e-06
0.0867661
9.32164e-06
0.0867646
1.14316e-05
0.0867629
1.36472e-05
0.0867609
1.59699e-05
0.0867587
1.83999e-05
0.0867563
2.09366e-05
0.0867537
2.35784e-05
0.0867508
2.63217e-05
0.0867477
2.91606e-05
0.0867443
3.20878e-05
0.0867407
3.50972e-05
0.0867368
3.81831e-05
4.13385e-05
0.0847705
8.57355e-07
0.0847698
2.63224e-06
0.0847688
4.52839e-06
0.0847677
6.53319e-06
0.0847664
8.64245e-06
0.0847648
1.08571e-05
0.0847631
1.31814e-05
0.0847611
1.56197e-05
0.0847589
1.81737e-05
0.0847565
2.0843e-05
0.0847538
2.36268e-05
0.0847508
2.65226e-05
0.0847476
2.95258e-05
0.0847442
3.26292e-05
0.0847404
3.58239e-05
0.0847364
3.91025e-05
0.0847322
4.2458e-05
4.5882e-05
0.0828173
1.62242e-06
0.0828164
3.57214e-06
0.0828153
5.65715e-06
0.0828139
7.86228e-06
0.0828124
1.01822e-05
0.0828106
1.26171e-05
0.0828087
1.51713e-05
0.0828064
1.78492e-05
0.0828039
2.06521e-05
0.0828012
2.35795e-05
0.0827982
2.66296e-05
0.0827949
2.9799e-05
0.0827914
3.30819e-05
0.0827875
3.64692e-05
0.0827834
3.99503e-05
0.082779
4.35163e-05
0.0827743
4.71586e-05
5.08671e-05
0.0809101
2.53439e-06
0.080909
4.67421e-06
0.0809077
6.96516e-06
0.0809062
9.38845e-06
0.0809044
1.19374e-05
0.0809024
1.46117e-05
0.0809002
1.74154e-05
0.0808977
2.03532e-05
0.0808949
2.34261e-05
0.0808919
2.66329e-05
0.0808885
2.99712e-05
0.0808849
3.34362e-05
0.0808809
3.70204e-05
0.0808767
4.0713e-05
0.0808721
4.45012e-05
0.0808673
4.83739e-05
0.0808621
5.23209e-05
5.63305e-05
0.0790476
3.54815e-06
0.0790464
5.90301e-06
0.079045
8.42513e-06
0.0790433
1.10919e-05
0.0790413
1.38953e-05
0.0790391
1.68345e-05
0.0790366
1.99138e-05
0.0790338
2.31376e-05
0.0790307
2.65069e-05
0.0790273
3.00197e-05
0.0790236
3.36724e-05
0.0790196
3.74589e-05
0.0790152
4.13699e-05
0.0790106
4.53922e-05
0.0790056
4.95103e-05
0.0790002
5.37112e-05
0.0789946
5.79826e-05
6.23106e-05
0.0772291
4.65259e-06
0.0772277
7.25136e-06
0.0772261
1.00347e-05
0.0772242
1.29753e-05
0.0772221
1.60635e-05
0.0772196
1.92979e-05
0.0772168
2.26828e-05
0.0772138
2.62229e-05
0.0772103
2.99187e-05
0.0772066
3.37673e-05
0.0772025
3.7764e-05
0.0771981
4.19008e-05
0.0771933
4.61665e-05
0.0771881
5.05449e-05
0.0771826
5.50179e-05
0.0771768
5.95699e-05
0.0771705
6.41859e-05
6.88502e-05
0.0754534
5.83087e-06
0.0754519
8.70648e-06
0.0754502
1.17857e-05
0.0754481
1.50353e-05
0.0754457
1.84436e-05
0.075443
2.20084e-05
0.07544
2.57343e-05
0.0754366
2.9626e-05
0.0754328
3.36833e-05
0.0754287
3.79024e-05
0.0754242
4.22768e-05
0.0754193
4.67966e-05
0.075414
5.14482e-05
0.0754083
5.62123e-05
0.0754023
6.10672e-05
0.0753959
6.59945e-05
0.0753891
0.0737198
0.0737182
0.0737163
0.073714
0.0737114
0.0737084
0.0737051
0.0737013
0.0736972
0.0736926
0.0736876
0.0736822
0.0736764
0.0736702
0.0736636
)
;

boundaryField
{
    inlet
    {
        type            calculated;
        value           nonuniform 0();
    }
    outlet
    {
        type            calculated;
        value           nonuniform 0();
    }
    cylinder
    {
        type            calculated;
        value           nonuniform 0();
    }
    top
    {
        type            symmetryPlane;
        value           nonuniform 0();
    }
    bottom
    {
        type            symmetryPlane;
        value           uniform 0;
    }
    defaultFaces
    {
        type            empty;
        value           nonuniform 0();
    }
    procBoundary5to4
    {
        type            processor;
        value           nonuniform List<scalar> 
24
(
-0.141225
-0.137946
-0.134745
-0.131618
-0.128564
-0.125582
-0.12267
-0.119826
-0.117049
-0.114337
-0.111688
-0.109101
-0.106575
-0.104108
-0.1017
-0.0993473
-0.0970503
-0.0948073
-0.0926172
-0.0904787
-0.0883905
-0.0863518
-0.084361
-0.0824173
)
;
    }
    procBoundary5to6
    {
        type            processor;
        value           nonuniform List<scalar> 
28
(
0.141903
0.138609
0.135391
0.132249
0.12918
0.126184
0.123257
0.120399
0.117607
0.114881
0.112218
0.109618
0.107079
0.104598
0.102176
0.0998104
0.0975001
0.0952436
0.0930399
0.0908877
0.0887856
0.0867327
0.0847276
0.0827693
0.0808567
0.0789886
0.077164
0.0753819
)
;
    }
    procBoundary5to12
    {
        type            processor;
        value           nonuniform List<scalar> 5(-0.0805193 -0.0786658 -0.0768559 -0.0750886 -0.0733632);
    }
    procBoundary5to13
    {
        type            processor;
        value           nonuniform List<scalar> 
22
(
-0.00476152
-0.00486347
-0.00496407
7.09767e-05
7.59953e-05
7.09444e-06
1.02829e-05
1.36953e-05
1.72921e-05
2.10589e-05
2.49928e-05
2.90982e-05
3.338e-05
3.78371e-05
4.24641e-05
4.72529e-05
5.2191e-05
5.72621e-05
6.24431e-05
6.77085e-05
0.0736565
7.30364e-05
)
;
    }
}


// ************************************************************************* //
