/*--------------------------------*- C++ -*----------------------------------*\
  =========                 |
  \\      /  F ield         | OpenFOAM: The Open Source CFD Toolbox
   \\    /   O peration     | Website:  https://openfoam.org
    \\  /    A nd           | Version:  7
     \\/     M anipulation  |
\*---------------------------------------------------------------------------*/
FoamFile
{
    version     2.0;
    format      ascii;
    class       volVectorField;
    location    "0.21";
    object      U;
}
// * * * * * * * * * * * * * * * * * * * * * * * * * * * * * * * * * * * * * //

dimensions      [0 1 -1 0 0 0 0];

internalField   nonuniform List<vector> 
12359
(
(0.982929 0.00037471 -4.09228e-17)
(0.969635 -0.00197429 -2.45327e-17)
(0.999993 4.21328e-06 7.29418e-18)
(0.929308 -0.00081937 1.62329e-17)
(0.977478 -0.000103905 -1.11304e-16)
(0.872716 -0.00446096 -4.18593e-17)
(0.830638 -0.0033762 -2.15683e-16)
(0.849535 -0.00624618 -1.37995e-16)
(0.788216 0.0317969 4.20496e-17)
(0.889051 0.00303292 -6.96312e-18)
(0.800699 0.00806821 1.86527e-16)
(0.700912 0.000581777 2.22257e-16)
(0.211345 0.0252945 5.82224e-17)
(0.921677 0.000121448 6.90937e-18)
(0.938518 0.00105396 -1.87273e-18)
(0.530916 0.03284 1.97311e-17)
(0.401678 0.0188551 5.72491e-17)
(0.994617 8.0654e-07 -8.53121e-18)
(0.995038 -2.34674e-05 -5.05159e-17)
(0.95647 -0.00200396 3.13012e-18)
(0.912284 -0.00263957 1.32273e-18)
(0.765392 0.0146799 8.7049e-17)
(0.964049 -0.00039714 -7.08028e-18)
(0.948007 -0.00290914 4.59396e-17)
(0.966298 0.000656272 1.96225e-18)
(0.960224 0.00198629 4.72196e-18)
(0.998263 3.36282e-05 1.43284e-19)
(0.998332 -7.46628e-05 -2.57766e-19)
(0.995744 2.26894e-05 -6.37422e-18)
(0.997689 -4.90296e-05 -2.21493e-18)
(0.997241 -1.02245e-06 3.22064e-18)
(0.998977 -1.73768e-05 -8.00304e-19)
(0.999587 3.10714e-05 4.16018e-18)
(0.997842 -8.77041e-05 8.25153e-20)
(0.999869 2.13075e-06 -8.52702e-17)
(0.997 0.000157882 -5.22173e-18)
(0.989201 -0.000709767 1.11152e-17)
(0.983685 0.000953255 3.24789e-17)
(0.980943 -0.000608805 1.29775e-16)
(0.985464 -1.94207e-05 8.4812e-17)
(0.972127 -0.000255927 -5.0965e-17)
(0.985366 0.000604013 -3.77685e-17)
(0.991601 0.000207444 1.29247e-16)
(0.992054 -0.000271505 5.3883e-17)
(0.99652 -1.96028e-05 4.35634e-18)
(0.996122 -4.86512e-05 6.01528e-19)
(0.996738 -0.00023032 3.52928e-20)
(0.997393 -1.78481e-05 -2.06664e-18)
(0.995433 -1.55368e-05 -2.47511e-17)
(0.998121 6.93336e-06 -7.64777e-21)
(0.998487 -9.4847e-05 -3.82369e-20)
(0.998821 7.07591e-05 7.90867e-19)
(0.999165 -1.25682e-05 -1.20283e-18)
(0.994226 8.70065e-05 5.0737e-17)
(0.999183 7.91729e-05 -1.09242e-17)
(0.999522 -3.3194e-06 -2.93669e-18)
(0.993103 -0.000272669 8.55988e-17)
(0.999643 5.13678e-05 -7.2885e-18)
(0.999642 -6.25423e-06 -1.03803e-16)
(0.999799 1.9932e-06 -1.7256e-17)
(0.999313 -0.000101671 -6.73622e-18)
(0.99996 2.53256e-05 1.01297e-16)
(0.998677 -2.83833e-05 7.48332e-19)
(0.18971 0.148529 -2.63807e-16)
(0.993852 3.61983e-05 -2.59039e-17)
(0.900994 0.00241357 -7.25452e-19)
(0.989954 0.000621865 1.95227e-16)
(0.998876 2.65379e-05 3.65704e-19)
(0.988812 -0.00063124 1.33581e-17)
(0.605841 0.00866652 7.2091e-17)
(-0.0934719 -0.151156 1.99422e-16)
(0.974611 -7.2602e-05 -2.03239e-16)
(0.999983 -9.72551e-06 1.3364e-19)
(0.987173 -0.000594013 5.40536e-17)
(0.943327 -0.00268744 -7.43574e-17)
(0.999908 -2.12958e-05 4.50969e-17)
(0.999166 -7.04861e-06 2.78663e-19)
(0.999944 -5.20142e-05 3.79019e-17)
(0.990015 8.25759e-05 -2.71609e-16)
(0.610277 0.00779784 -7.13462e-17)
(0.925932 0.0676446 -6.57208e-17)
(1.00341 0.00260501 2.07085e-17)
(1.00002 -2.13229e-06 -2.49917e-18)
(0.998015 0.0122182 1.57756e-17)
(1.10237 0.128966 -7.16931e-18)
(1.01978 0.00191078 2.86948e-19)
(1.00341 0.00213816 -2.01452e-18)
(1.00145 0.000232317 -3.51141e-18)
(1.11075 0.0443832 -5.92493e-18)
(1.0992 0.138226 8.11277e-18)
(0.999943 7.20177e-05 -1.19461e-17)
(0.365749 0.290636 -1.77457e-16)
(0.999993 -4.28e-06 2.48791e-18)
(0.998861 0.00581292 1.32074e-17)
(0.998722 0.0102053 -6.02705e-17)
(1.03165 0.000960572 1.10591e-19)
(1.0002 0.00466412 1.43888e-17)
(0.999722 0.00580733 -3.22444e-17)
(0.990147 0.0287425 2.12105e-17)
(0.995145 0.0176458 2.97124e-17)
(0.934717 0.0841967 5.35132e-17)
(0.999998 1.38774e-05 3.44771e-18)
(1.01944 -0.000569239 -5.28089e-19)
(1.1608 0.0272338 -6.57457e-18)
(1.00428 0.000583121 -5.04026e-18)
(1.03254 0.0200335 -7.91761e-19)
(1.00033 -3.11701e-05 -2.26333e-17)
(1.10547 0.130112 2.01165e-18)
(1.018 -0.00162703 -2.15171e-18)
(1.02978 0.0164865 1.75316e-18)
(1.00007 0.00474821 -3.95317e-17)
(1.00304 0.00239308 -3.34518e-17)
(0.945086 0.0480909 -4.93194e-17)
(0.956443 0.0689192 -4.45951e-18)
(0.999474 0.00984411 -2.47612e-17)
(1.00282 0.000144634 8.61081e-19)
(0.952902 0.0657048 -9.95666e-18)
(1.00431 0.00233833 -5.45735e-18)
(1.10569 0.0335273 -8.55625e-18)
(0.999991 1.65639e-05 -4.91342e-19)
(0.999831 0.00437207 3.8884e-18)
(0.867911 0.0291928 3.57283e-16)
(1.00167 -0.000201658 5.98008e-18)
(1.03407 0.00392972 1.29082e-18)
(1.00418 0.00163694 -1.50305e-17)
(1.00309 0.000740279 7.72468e-20)
(1.0082 0.0803597 1.36312e-16)
(0.998428 0.011749 -6.19349e-18)
(0.999989 -8.39001e-06 -8.08547e-17)
(1.00424 0.0023619 3.32034e-17)
(1.00272 0.000520907 1.45237e-18)
(1.05426 0.0115468 7.90201e-19)
(1.05543 0.014188 -3.03536e-18)
(1.05373 0.0111823 1.04125e-18)
(1.00035 8.24684e-05 -2.32635e-19)
(1.03197 0.00401761 -1.60182e-19)
(1.00291 -7.3568e-05 6.8093e-18)
(1.03229 0.00470859 2.48811e-18)
(0.999997 7.16181e-05 -3.37165e-17)
(1.01177 0.0868525 -3.59706e-17)
(0.999983 2.94028e-05 1.56748e-17)
(0.983595 0.00176376 1.96368e-16)
(1.02937 0.0118219 -2.17396e-18)
(1.00031 6.9493e-05 4.63774e-19)
(1.0387 0.034185 1.32375e-17)
(0.909157 0.0246924 4.11595e-17)
(1.00001 1.26032e-05 -3.90636e-18)
(1.09281 0.105586 1.46809e-17)
(1.00437 0.000484075 1.58304e-17)
(0.916574 0.0670391 1.12659e-16)
(1.02947 -0.00124291 -1.88473e-18)
(1 4.45645e-05 5.96337e-17)
(1.03026 0.0120241 4.97901e-18)
(1.0018 0.000429306 -1.09461e-17)
(0.999997 -9.66516e-06 6.07321e-19)
(0.578198 1.37118 3.56064e-16)
(0.942102 0.0794336 3.40591e-17)
(1.05439 0.0123757 4.30252e-19)
(0.999931 0.00521154 -3.48102e-18)
(0.999004 0.000527655 8.67502e-18)
(1.00158 0.0444197 -4.32418e-17)
(0.998981 0.000565187 -8.60218e-19)
(1.03401 0.00316177 2.91184e-18)
(1.03198 0.00933988 2.35948e-18)
(1.00009 5.67746e-05 -5.64831e-18)
(1.00279 0.00046291 1.17137e-17)
(1.00399 0.0400787 1.87172e-17)
(0.855948 0.00968456 1.91231e-16)
(1.02976 0.00861134 -2.95298e-18)
(1.11231 0.0419375 -1.20254e-17)
(0.999981 4.05861e-05 -3.31522e-16)
(0.99996 6.33741e-05 4.58051e-16)
(1.02927 0.00609498 1.21843e-18)
(0.972192 0.00214516 9.89641e-17)
(1.00423 0.000818842 -7.89285e-18)
(1.00706 0.0914515 5.60546e-18)
(0.996298 0.000328429 -4.75022e-18)
(0.996686 0.000919279 -2.18763e-19)
(0.936075 0.0470921 -3.67965e-17)
(1.00736 0.0803926 -4.84939e-17)
(0.9398 0.00953962 4.65518e-17)
(1.00001 3.5817e-05 -8.04425e-18)
(0.999972 5.6087e-06 6.86899e-17)
(1.00388 0.00261396 1.52029e-18)
(0.993048 0.0275511 -2.89536e-17)
(0.846528 0.0833136 -6.28578e-16)
(1.00433 0.00570479 -1.13124e-17)
(1.00021 0.00966032 -1.48724e-17)
(1.03174 0.000987575 8.99129e-19)
(1.00457 0.00479571 -7.84581e-18)
(0.999791 0.00987756 -2.17045e-17)
(1.03377 0.00208333 8.28671e-19)
(1.03148 -0.000251031 -5.12173e-18)
(1.00163 0.000399689 -1.33064e-18)
(1.03314 0.017764 2.96644e-18)
(1.15521 0.0141724 9.81502e-18)
(1.01396 0.0110343 -1.60824e-18)
(1.0034 0.00530514 -5.02071e-18)
(1.02943 0.0132724 -2.81649e-18)
(1.00409 0.00224104 5.7102e-18)
(0.892226 0.0248998 -1.80884e-16)
(1.03369 0.000874847 -6.68389e-19)
(0.992945 0.0183281 -6.87365e-18)
(1.03302 0.0165497 1.58445e-18)
(1.03495 0.0315385 1.02152e-17)
(1.00001 4.99378e-05 1.65974e-17)
(1.03732 0.032974 1.58515e-19)
(0.99285 0.0158634 4.94956e-17)
(1.03554 0.00283872 5.57185e-18)
(1.00489 0.00271654 2.70295e-17)
(1.00001 3.02971e-05 5.35608e-18)
(1.0433 0.00624871 -2.00082e-19)
(1.04458 0.00825052 1.40738e-18)
(1.15115 0.141856 7.7011e-17)
(0.834268 0.0945045 2.09319e-16)
(0.999973 3.98231e-05 -2.99086e-17)
(1.0038 0.00526095 4.96648e-18)
(0.999389 0.0108245 -9.29222e-18)
(1.00395 0.00526111 9.51009e-18)
(0.98112 0.00122346 3.50531e-17)
(0.947509 0.0659122 6.99906e-17)
(1.00498 0.00390302 -8.81202e-18)
(1.03346 0.00292619 5.36257e-19)
(0.251628 0.292949 9.5375e-17)
(1.00472 0.00247536 -9.21265e-18)
(1.00002 7.44049e-05 1.90848e-18)
(0.981596 0.00140635 3.38584e-17)
(1.01618 -0.00072421 -3.93751e-18)
(1.00289 0.0777139 -1.60668e-17)
(1.00268 0.00610615 -7.7781e-18)
(1.00294 0.00590016 5.09952e-19)
(1.00006 4.63326e-05 -1.03015e-18)
(1.03845 0.0362161 -5.16001e-18)
(0.992296 0.0223265 -2.34818e-17)
(1.00087 0.00958665 5.03589e-18)
(0.993976 0.0193007 1.50909e-17)
(1.00001 3.8863e-05 -6.47583e-19)
(1.0286 0.0122512 -2.76615e-19)
(1.00058 0.00982975 -7.3871e-18)
(0.69326 0.179531 1.21449e-16)
(1.00017 5.50415e-05 -1.0206e-18)
(1.02241 -0.000296353 1.39744e-18)
(0.999949 0.00694724 9.05911e-18)
(0.996738 0.155903 4.13853e-17)
(1.00435 0.0433163 -1.70824e-17)
(1.09554 0.106936 -1.76259e-17)
(0.999758 7.29578e-05 -9.89506e-17)
(1.03496 0.00314647 -2.19555e-18)
(1.00351 -0.000310885 -6.96659e-20)
(1.03255 0.00078372 5.2524e-19)
(1.03986 0.00626869 2.67254e-18)
(0.986573 0.00102666 1.32458e-16)
(0.997012 0.000516812 4.49732e-18)
(1.00201 0.00643163 3.01922e-17)
(0.552487 0.447654 3.13879e-16)
(1.37844 0.178462 2.41639e-16)
(0.999986 3.41172e-05 3.53585e-19)
(1.00512 0.00289561 -2.39521e-18)
(0.466933 0.379465 7.10463e-16)
(0.965904 0.00686616 -5.11928e-17)
(0.994281 0.0162582 -1.84923e-18)
(1.00366 0.0447043 -4.90314e-17)
(1.00557 0.0760206 -2.95067e-17)
(1.03196 0.0148211 -6.81683e-19)
(0.975169 0.000744951 1.11053e-16)
(1.40745 0.395746 1.10461e-16)
(1.10318 0.0352212 1.73576e-17)
(1.00431 0.0492473 4.27666e-18)
(1.00504 0.00235069 -8.11977e-18)
(1.03371 0.00405791 -7.67737e-18)
(1.03076 0.00882663 -2.80618e-18)
(0.988303 0.0260178 7.37394e-18)
(1.02993 0.0105162 -1.28992e-17)
(1.00237 0.0066181 1.26354e-17)
(1.00549 0.00288222 7.49622e-20)
(1.0001 7.50422e-05 -2.29746e-18)
(1.00494 0.00275549 4.32671e-18)
(1.16175 0.0539773 -1.78944e-17)
(1.00484 0.0525353 3.56408e-18)
(1.00046 0.0001641 -2.08541e-19)
(0.999998 5.75737e-05 1.15832e-17)
(1.03321 0.0154933 7.80567e-18)
(1.00819 0.00159643 -1.54965e-17)
(0.991574 0.000678778 6.23201e-17)
(1.02118 0.000570497 -5.41507e-19)
(1.00003 2.2462e-05 4.10195e-18)
(0.999612 0.0745741 1.00423e-17)
(1.00001 1.4476e-05 -6.28659e-17)
(0.999989 5.45609e-06 1.78297e-17)
(0.999206 0.000134036 4.15996e-17)
(1.03369 0.00375357 -7.64109e-19)
(1.00372 0.00208285 -3.79823e-18)
(1.43715 0.29022 1.52216e-16)
(1.00034 4.01258e-05 1.51659e-17)
(1.00038 2.89968e-05 2.33387e-17)
(1.01992 0.00214076 -2.03853e-18)
(1.00352 0.000895831 -7.24899e-18)
(0.946868 0.0678693 1.4941e-16)
(0.998562 0.00913599 6.71988e-19)
(0.998823 0.00022128 1.18122e-16)
(0.99997 3.97582e-05 1.37152e-17)
(1.14322 0.0487714 -3.19507e-17)
(1.00259 0.0728135 -7.44985e-17)
(0.999999 4.72986e-05 -1.99041e-17)
(1.0035 0.00555469 1.45887e-17)
(0.999364 0.00811182 1.10211e-17)
(1.00402 0.000959088 1.82192e-17)
(1.00277 0.000288245 -6.65732e-19)
(1.0028 0.000364322 -1.0903e-18)
(1.00401 0.000485044 -7.56095e-19)
(0.995557 0.0011811 1.07181e-16)
(0.832596 0.0575816 -3.28389e-16)
(1.00388 0.000725877 -3.89832e-18)
(0.99749 0.000162803 2.01931e-17)
(0.986073 0.000615673 2.10402e-18)
(1.02446 0.0241701 -2.97362e-18)
(1.09263 0.029945 6.49133e-19)
(1.00514 -0.000288386 2.22716e-18)
(0.991195 0.0233679 2.58239e-17)
(0.608201 0.102309 2.38103e-17)
(0.999992 1.84422e-05 -5.93776e-18)
(1.02546 0.0107808 1.02335e-18)
(1.00058 0.000132242 -8.10076e-19)
(1.01327 0.0118691 -7.61625e-18)
(1.00037 -1.43339e-05 -5.50473e-19)
(1.00478 -0.000671982 1.00299e-18)
(0.821711 0.040144 -8.87652e-20)
(1.02671 0.0116234 -3.15333e-18)
(0.836195 0.0835748 -3.56322e-16)
(0.991082 0.00054432 9.69614e-17)
(1.00075 0.00759708 6.54667e-18)
(1.03125 0.00270944 -1.40829e-18)
(1.03578 -0.00168965 -2.29664e-19)
(1.00047 0.00725536 -1.4517e-17)
(1.03082 0.00389936 -4.69546e-20)
(1.03113 0.00358034 -4.20405e-18)
(1.00075 9.43767e-05 -3.10686e-18)
(0.99934 0.000495952 -3.9848e-17)
(0.999275 0.000510443 -4.3166e-17)
(0.999283 0.000486754 1.8085e-18)
(0.999267 0.000458219 -5.07284e-18)
(0.617988 0.267757 6.80774e-17)
(1.00003 4.29405e-05 7.85613e-18)
(0.942283 0.0717673 -1.44281e-17)
(1.03542 0.00209754 4.61037e-20)
(0.993132 0.0254299 7.99229e-18)
(1.03035 0.0112828 4.74256e-18)
(1.02672 0.0133774 4.11148e-18)
(1.01913 0.00110338 8.37066e-19)
(1.01244 0.0109737 5.73822e-18)
(1.0262 0.0124782 -1.59761e-19)
(1.01268 0.0107491 -1.16103e-18)
(0.992721 0.0254094 1.74461e-17)
(1.02585 0.0271607 6.49662e-18)
(1.02552 0.0298922 6.65932e-18)
(0.957613 0.0496254 -1.23153e-17)
(0.980732 0.00193115 -5.21955e-16)
(1.03492 0.0732162 2.26135e-18)
(0.982896 0.00140466 1.29031e-16)
(0.985385 0.00134351 5.15837e-16)
(1.02846 0.0130938 1.06635e-18)
(0.941683 0.0992988 -8.62756e-18)
(1.00278 0.00238331 -1.105e-18)
(0.999345 0.000131016 -2.34524e-17)
(1.01507 0.0101346 -2.62405e-18)
(0.999429 0.000147455 -3.91695e-17)
(1.00328 0.00259552 -1.29001e-17)
(0.923364 -0.0240093 3.56061e-18)
(0.28319 0.279626 7.92643e-17)
(1.00318 0.00312146 -4.10027e-18)
(0.99998 2.35872e-05 2.52277e-17)
(1.00028 1.14034e-05 -9.71059e-20)
(0.999967 5.5085e-05 1.87375e-17)
(1.02673 0.0110338 -2.7909e-18)
(0.999996 2.98127e-05 -9.78959e-19)
(0.999997 3.48582e-05 1.45284e-18)
(1.11546 0.0470946 1.95562e-17)
(1.0293 0.00819834 -1.28503e-18)
(1.09058 0.158026 -4.6882e-19)
(1.00128 0.00286906 -4.02974e-18)
(1.03265 0.0108614 -1.13414e-18)
(1.00651 0.000731757 -1.11914e-17)
(0.999624 0.00858364 3.03521e-18)
(1.02887 0.0242405 -2.61318e-18)
(1.0155 0.0100417 2.25482e-18)
(0.937019 0.000565165 5.41619e-17)
(1.01493 0.00895129 6.20933e-18)
(1.00303 0.00261386 -4.07646e-18)
(1.00047 0.000200651 -3.06769e-18)
(1.02998 0.00728256 -2.37627e-18)
(1.03383 0.00985075 -1.73192e-18)
(1.00446 0.000479781 1.01307e-17)
(0.719735 0.0267379 1.46464e-15)
(1.03283 0.024045 8.55185e-18)
(1.03124 -0.001186 5.54674e-19)
(0.997004 0.0328931 -2.74718e-17)
(1.00108 0.0427448 4.15208e-17)
(1.00001 6.37929e-05 3.69671e-17)
(0.33873 0.463692 -9.10667e-16)
(1.03675 0.0761678 4.58127e-18)
(1.00087 0.00351129 -4.97538e-18)
(0.973185 0.183105 1.90766e-18)
(0.983476 0.00143019 -2.62111e-16)
(0.999968 8.70121e-05 1.31665e-17)
(0.999999 6.85346e-05 -9.4481e-19)
(0.999978 8.43777e-05 -8.42844e-18)
(1.10022 0.15361 1.17291e-17)
(0.946687 0.0922063 2.11738e-18)
(0.991077 0.0265556 2.76888e-18)
(1.02609 0.00909635 2.48639e-18)
(1.03218 -0.00065473 -1.73155e-18)
(1.00057 0.0112711 -3.64402e-17)
(0.929384 0.00170979 1.63177e-16)
(0.998873 0.0329533 -1.72147e-18)
(1.04647 0.00871477 3.53862e-18)
(1.09781 0.0334433 3.56017e-18)
(0.72985 0.041389 6.06638e-16)
(0.994085 0.0249601 -2.18629e-17)
(0.958248 0.0483668 1.68883e-17)
(1.01665 0.00285315 1.83607e-18)
(1.02517 0.0352916 -4.921e-18)
(1.01081 0.0105145 2.71327e-18)
(1.01556 0.010857 -8.35873e-19)
(0.99801 6.25978e-05 -2.2133e-16)
(1.01137 0.00906821 -9.61264e-18)
(1.02894 0.0103372 -2.5328e-18)
(0.999984 4.32138e-05 5.47273e-19)
(1.08421 0.00288048 -2.54328e-17)
(0.990951 0.000924487 4.09471e-16)
(1.06717 0.00758824 -1.11254e-17)
(1.03352 0.00740652 4.10252e-18)
(0.993696 0.0013554 2.7778e-16)
(0.953275 0.0576312 -2.9281e-17)
(1.20051 0.233433 -8.21749e-17)
(1.02629 0.0129201 -3.26755e-18)
(1.00826 0.0147949 -4.67219e-17)
(1.03372 -0.00267844 1.33913e-19)
(1.03325 0.00699178 6.22578e-19)
(1.02832 0.0296884 -5.49841e-18)
(1.00403 0.00257325 6.80408e-18)
(1.00002 -2.101e-05 -8.85906e-18)
(0.997643 0.0666938 2.55817e-17)
(1.00036 0.000136211 6.66493e-19)
(1.05075 0.0142419 7.1229e-19)
(1.00251 0.000256525 1.05122e-17)
(0.965249 0.00294732 1.73942e-17)
(0.962462 0.0373755 1.15149e-16)
(1.01034 0.000192708 4.12193e-18)
(1.10413 0.0964395 -1.1408e-17)
(0.94134 0.0751619 -1.75124e-16)
(0.995004 0.0173813 2.3905e-17)
(1.00101 0.00353581 -2.31847e-18)
(0.53301 0.0667204 -4.90258e-16)
(1.00069 9.25901e-05 4.17453e-18)
(1.00095 0.00281712 -5.5772e-18)
(1.04223 0.0376205 1.28837e-17)
(0.999986 4.82226e-05 -5.59541e-18)
(1.00124 0.00365557 1.11741e-18)
(1.00132 0.00258323 -1.55629e-17)
(0.793073 0.176499 1.4896e-16)
(0.636038 0.518799 1.30059e-16)
(0.998327 0.0112703 -2.40426e-17)
(1.00124 -0.000435131 -3.93315e-19)
(0.942027 0.031597 -1.71487e-16)
(1.00033 0.0399615 -5.67189e-18)
(1.02585 0.00965916 -1.1094e-18)
(1.02985 0.0122883 -2.91322e-18)
(1.0304 0.00937094 -3.21844e-18)
(1.00082 -5.31949e-05 1.76772e-17)
(0.999981 5.40755e-05 5.4471e-18)
(1.00408 0.0338489 2.69276e-17)
(1 -1.06972e-06 -9.69921e-19)
(0.96724 0.0408257 3.55161e-18)
(1.02538 0.00981219 4.35967e-18)
(1.02585 0.0336798 -5.85874e-18)
(0.996788 0.000515006 2.48508e-18)
(0.996783 0.0625669 5.95538e-17)
(1.04465 0.0343963 -1.07928e-17)
(0.997976 0.000194515 -2.53287e-17)
(1.00135 0.0110276 9.44575e-18)
(1.00571 0.00156901 1.89303e-17)
(0.92633 0.0469565 7.29995e-18)
(1.04307 0.0359436 -1.5059e-17)
(0.999987 3.1188e-05 -5.89724e-17)
(1.00032 0.0366129 1.20343e-17)
(1.03087 0.00509927 1.19637e-17)
(1.01607 0.000542733 3.44208e-19)
(1.00236 0.0354796 -2.07226e-17)
(1.00284 0.000318266 -7.69745e-18)
(0.939388 0.0913504 -2.7063e-17)
(1.02619 -0.000556561 -6.68145e-18)
(1.03295 0.00498779 -2.09828e-18)
(1.02668 0.0275349 -6.15171e-18)
(1.00089 -0.000163076 6.59982e-18)
(1.00175 0.0111774 9.87611e-18)
(1.05303 0.0557009 4.58503e-18)
(1.05761 0.0117876 -5.90387e-18)
(0.999983 5.96507e-05 8.18396e-19)
(1.01068 0.0151018 -1.51308e-17)
(0.994885 0.167815 -2.28312e-18)
(1.03231 0.00217684 5.20057e-19)
(0.556976 0.476187 -7.00245e-17)
(0.999999 6.1274e-05 -2.02985e-17)
(1.00249 0.000473754 -5.7173e-18)
(1.00066 -5.75526e-07 -2.25343e-18)
(1.0304 0.0128181 -2.78856e-18)
(0.994491 0.0192106 -6.4542e-18)
(0.995873 0.0128013 1.49096e-19)
(1.00268 0.00012927 3.09196e-17)
(0.998864 0.0361486 -5.86845e-18)
(1.01669 0.0113236 -1.6783e-19)
(0.972126 0.00395675 1.64589e-16)
(1.00906 0.00110041 1.71441e-18)
(1.08236 0.0775585 8.79024e-18)
(1.0005 6.15511e-05 -1.35915e-17)
(1.08785 0.085455 -1.04625e-17)
(1.00164 0.000172639 1.01327e-18)
(0.640347 0.573638 3.6766e-16)
(1.02437 -0.000787981 1.8452e-18)
(1.05136 0.0561994 -3.02539e-18)
(0.999716 9.61491e-05 6.63326e-17)
(0.997017 0.000676517 3.09289e-18)
(1.02526 0.0250177 1.19854e-17)
(1.00368 0.00214061 -1.45544e-18)
(0.998646 0.000144959 4.56076e-17)
(0.992444 0.000357514 5.6256e-16)
(0.995136 0.0199734 -2.11037e-18)
(0.995284 0.0193942 -1.0284e-18)
(0.972027 0.1609 -7.41909e-18)
(1.03313 0.0267905 -1.97437e-18)
(1.03282 0.0290351 1.43819e-17)
(1 1.6944e-05 8.84983e-19)
(1.00392 0.00187445 9.43321e-18)
(1.02545 0.0108101 -2.73766e-18)
(1.05888 0.00715365 -4.40126e-20)
(0.999999 8.81167e-06 -3.48415e-18)
(1.0005 9.8415e-05 -1.14148e-18)
(1.0309 0.00903499 -1.34396e-17)
(1.00074 0.000114403 2.95661e-19)
(0.820079 0.0470234 -2.72205e-16)
(1.1641 0.250114 -2.83905e-18)
(1.10122 0.00116411 -1.36186e-17)
(1.00001 1.80878e-05 -2.31048e-17)
(1.00598 0.00933075 -9.13081e-18)
(1.04048 0.00633859 1.72008e-18)
(0.995628 0.0138318 2.33693e-17)
(1.00389 0.000984376 -4.13069e-18)
(0.199331 0.485018 7.42576e-16)
(1.00041 4.40826e-05 3.55918e-18)
(0.937775 0.0700408 -1.81507e-17)
(0.96369 0.0452359 -9.45942e-17)
(1.00625 0.00834798 -1.52407e-17)
(1.00393 0.000854666 1.32587e-18)
(0.998442 0.000232324 -1.18005e-16)
(1.00879 0.000346574 -7.52324e-18)
(1.03536 0.00148087 2.88509e-19)
(1.01619 0.00787464 -1.61055e-17)
(0.997181 0.0108163 -2.14995e-17)
(0.999995 -9.01711e-06 1.95822e-19)
(1.00001 3.31271e-05 1.93634e-16)
(0.995106 0.0163945 -2.32696e-17)
(0.996325 0.00107871 -2.83268e-17)
(0.995147 0.0562781 2.26889e-17)
(1.03034 0.010816 4.89346e-18)
(0.99901 -1.50404e-05 1.7854e-17)
(1.00044 0.000191357 -7.78713e-19)
(1.02491 0.0254502 -1.27056e-17)
(1.0795 -0.00456256 3.9518e-17)
(0.997736 0.000340035 1.27734e-17)
(1.04688 0.00701228 1.84572e-18)
(1.00028 7.58725e-05 8.16752e-20)
(0.996439 0.0109958 6.68009e-18)
(0.963389 0.0805999 8.48362e-18)
(1.03531 0.000535331 1.01389e-19)
(1.03681 0.00536711 -1.11132e-18)
(0.954401 0.0506711 -1.6924e-16)
(1.00228 0.01797 -7.28979e-18)
(1.03691 0.00212388 -4.89222e-19)
(0.999981 3.04851e-05 1.6139e-17)
(0.999773 6.2748e-05 -9.25432e-17)
(1.03679 0.00202155 1.59774e-18)
(1.00982 0.00954801 -7.90747e-18)
(1.00344 0.0182561 1.49149e-17)
(1.00985 0.00762637 -4.08664e-18)
(1.00001 6.81521e-05 4.71736e-18)
(1.0005 0.000184806 -4.72704e-19)
(1.00373 0.000877714 -4.78063e-18)
(1.00103 0.0273206 8.88128e-18)
(1.03698 0.00383183 2.63439e-18)
(0.947116 0.0353669 3.86151e-17)
(0.989386 0.00088686 -2.33666e-16)
(0.930649 0.0353333 -2.16451e-17)
(1.02987 0.011259 -6.61406e-18)
(1.00862 0.0161805 -2.30732e-17)
(0.937248 0.0446889 1.62594e-16)
(0.985282 0.0209441 3.89514e-17)
(1.06285 0.006983 -1.22417e-17)
(1.02991 0.0102143 3.87974e-18)
(0.985002 0.0212403 2.96459e-17)
(0.994583 0.0556742 -4.01931e-17)
(0.999794 0.000154938 -4.43762e-17)
(1.01113 0.0578863 9.72447e-18)
(1.02566 0.0226355 1.7432e-17)
(1.00001 -1.55235e-05 1.00628e-17)
(1 1.44872e-06 2.33343e-17)
(1.0008 8.78867e-05 1.92509e-17)
(0.999565 0.00040551 -7.40981e-17)
(1.0631 0.0628187 2.24814e-18)
(1.01089 0.0156512 -5.59608e-18)
(1.01491 -0.000438079 -1.46228e-18)
(0.941051 0.0438017 -1.80157e-17)
(0.992216 0.000122763 1.01644e-15)
(0.814017 0.0215637 2.88172e-16)
(1.03289 0.00225604 -3.67646e-19)
(1.03592 0.00160208 8.77699e-19)
(1.0035 0.000512145 2.17295e-17)
(1.04908 0.0346196 -7.31061e-18)
(1.00001 8.31565e-05 -2.53491e-17)
(0.998881 0.0297823 -3.05915e-17)
(1.00049 0.00319217 1.07725e-17)
(0.942432 0.104042 3.34978e-18)
(0.932158 0.0396348 -3.07064e-17)
(1.00194 0.0155929 -5.82112e-18)
(1.01594 0.01069 -3.56031e-19)
(0.459213 0.72973 -1.17234e-16)
(1.02829 0.010244 7.36037e-18)
(1.04109 0.0553652 3.10554e-18)
(1.00917 0.0118684 1.7517e-17)
(0.98567 0.137656 -1.65412e-17)
(1.16337 0.181645 1.83798e-17)
(1.00097 -5.59156e-05 -8.54609e-18)
(0.998344 0.00320764 -2.44242e-17)
(1 7.85035e-06 -1.03138e-17)
(1.05889 0.0582473 -9.61588e-19)
(0.998514 0.00303608 -8.55893e-18)
(1.01551 0.00857366 1.50959e-17)
(1.10487 0.0948902 1.26128e-17)
(1.00046 0.000136397 3.73808e-18)
(0.971549 0.00370755 -2.83943e-16)
(0.992854 0.0487341 3.40851e-17)
(1.00654 0.014309 3.29143e-17)
(0.997554 0.000207158 -4.4707e-17)
(1.00206 0.0160194 1.59077e-18)
(0.999133 0.000744932 -5.02726e-17)
(0.995618 0.0145879 -1.7162e-17)
(0.999128 0.000616518 9.37256e-18)
(0.999183 0.000811925 2.48363e-17)
(0.995667 0.012506 -2.86419e-18)
(1.03371 0.00543619 3.15637e-18)
(1.03367 0.00584555 -1.73961e-18)
(1.00689 0.0155822 1.96721e-17)
(0.648431 0.0381539 2.06554e-16)
(1.0325 0.000789539 1.08636e-18)
(0.368655 0.343984 1.16498e-16)
(1.02785 0.011632 4.86926e-18)
(1.0226 0.00106381 4.86575e-19)
(0.995906 0.0132308 -2.4055e-17)
(1.02731 0.0131546 -5.75298e-18)
(0.992613 0.025311 4.88275e-17)
(1.03058 -0.00193332 9.71803e-19)
(0.527573 0.41109 3.82412e-17)
(0.947398 0.0363281 4.94851e-17)
(0.992788 0.0242383 -1.57901e-17)
(1.00462 0.0216394 -8.91907e-18)
(0.995007 0.00120477 4.08732e-17)
(0.996371 0.000742093 2.46177e-17)
(1.02627 0.0270786 -6.00583e-18)
(1.00001 1.50743e-05 1.17312e-17)
(1.06356 0.00673562 1.93643e-20)
(0.999078 3.53759e-05 5.40501e-17)
(0.951198 0.040661 1.45829e-16)
(1.00328 0.0713294 -4.12216e-17)
(1.06202 0.0537252 -7.7473e-18)
(1.03866 0.0211444 1.20564e-17)
(1.03123 0.0117113 1.59744e-18)
(0.992267 0.0474946 -2.38241e-17)
(1.00898 0.0123159 -7.75688e-18)
(1.03791 0.0218336 9.78251e-18)
(0.971597 0.0297638 -8.35806e-17)
(1.04391 0.0586478 -8.20979e-18)
(1.00811 0.0206361 2.50675e-17)
(1.04432 0.0356895 1.82734e-17)
(1.0057 0.0217055 -2.83876e-18)
(1 3.95673e-05 -2.60063e-19)
(1.00081 0.023743 -1.53064e-17)
(0.795864 0.0471571 -5.4944e-17)
(0.971941 0.129126 3.49578e-17)
(1.00595 0.00558873 -1.0065e-18)
(1.0001 4.47408e-05 -9.03071e-19)
(0.999079 0.000211746 1.67508e-16)
(0.994864 0.00707048 3.17887e-18)
(0.964962 0.00330996 -3.74697e-16)
(1.03092 0.00541995 3.08913e-18)
(1.02759 0.000565541 -3.24926e-18)
(1.00082 4.01737e-05 -5.64032e-18)
(1.00454 0.00667772 -5.30906e-18)
(0.995617 0.0248954 -2.82444e-17)
(1.00611 0.00487417 4.82141e-18)
(1.00833 0.000711756 9.49945e-18)
(1.0454 0.0308627 -2.04581e-18)
(0.994007 0.00106098 -1.96026e-16)
(0.991879 0.0335431 3.02925e-17)
(1.03321 0.0115626 1.94009e-18)
(1.00497 0.00539626 1.15431e-17)
(1.00727 0.0056514 4.43547e-18)
(0.94647 0.0620504 -1.06309e-16)
(0.999993 -4.14164e-06 3.14503e-19)
(0.993596 0.00539485 7.24217e-18)
(1.33 0.11408 2.43877e-17)
(0.999771 7.81804e-05 -1.49714e-16)
(1.04007 0.0343612 -1.61233e-18)
(1.003 0.0676229 2.07413e-17)
(1.00785 0.0063124 5.30147e-18)
(0.959807 0.0430282 -7.27971e-17)
(1.03287 0.0119773 3.96967e-18)
(0.99755 0.025194 -4.58053e-17)
(1.02643 0.0285261 3.61497e-18)
(0.999599 0.00305251 -5.62429e-19)
(0.937947 0.0383283 -2.80786e-17)
(1.00445 0.000323538 -5.05026e-18)
(1.02789 -0.000343934 1.36936e-18)
(1.03165 0.0118761 5.15688e-18)
(0.935189 0.0445055 -1.93715e-16)
(0.999829 0.00294071 2.85788e-18)
(1.03609 0.00150425 -1.0464e-18)
(1.05439 0.0179662 -1.32054e-17)
(0.994281 0.0324944 -1.89738e-17)
(1.00577 0.0127426 -2.35305e-17)
(1.00436 0.0027087 -1.17193e-17)
(1.01699 0.0648605 1.26361e-17)
(0.758128 0.241571 9.56703e-17)
(0.995238 0.00115294 -1.08417e-16)
(0.999995 6.47918e-06 -4.98983e-17)
(0.994652 0.0226824 -4.58448e-18)
(0.999986 5.15243e-05 4.63456e-19)
(1.1578 0.177567 -3.60115e-17)
(1.00682 0.0211066 -1.1765e-17)
(1.03826 0.0833667 4.35374e-18)
(1.01489 0.00645599 1.56073e-17)
(1.02765 -0.000896995 -1.34354e-17)
(0.198935 0.041929 -3.28096e-15)
(1.00647 0.0146041 -3.53951e-18)
(1.09967 0.191481 -1.20319e-17)
(1.03244 0.00553974 3.01051e-18)
(1.09092 0.0063262 -3.35124e-18)
(1.0262 0.0105676 1.34174e-18)
(0.996895 0.0115299 4.20099e-17)
(1.0061 0.0134763 2.82203e-17)
(1.01606 1.54073e-05 -2.75111e-18)
(1.09349 0.0838205 -1.02938e-17)
(1.08357 0.080437 2.60778e-17)
(1.00145 0.000147394 -9.45763e-19)
(1.00187 -1.72287e-05 -5.82845e-19)
(0.931529 0.0481148 -3.52899e-17)
(1.00238 0.000132714 2.20236e-18)
(0.713268 0.402037 3.43548e-17)
(1.02759 0.0300106 -4.61047e-18)
(0.974927 0.157573 2.20934e-17)
(1.00383 0.00267145 -9.46675e-18)
(0.22078 0.401512 3.54045e-16)
(1.13101 0.206317 -3.12492e-17)
(1.0058 0.0213132 -6.49834e-18)
(0.999995 3.90252e-05 4.96338e-19)
(0.999887 0.00265706 9.65321e-18)
(0.952547 0.0326137 -1.08222e-16)
(0.994667 0.00779839 -3.40483e-18)
(0.990412 -9.48367e-05 -2.15236e-16)
(0.997366 0.00910408 -3.94075e-19)
(1.02907 0.01065 -9.19641e-18)
(0.974194 0.028208 9.96496e-17)
(1.07383 0.00935188 6.83179e-17)
(0.626066 0.0502183 -8.72188e-17)
(1.00088 -9.44e-05 -1.72214e-18)
(0.965793 0.0345216 -2.64595e-17)
(1.03284 0.025368 -2.29765e-18)
(0.91866 0.0594896 8.89723e-17)
(1.00452 0.0123199 -2.86164e-18)
(0.93319 0.0788792 1.08263e-16)
(1.0327 0.00582486 -2.81046e-18)
(0.958673 0.0319262 3.97427e-17)
(0.997465 0.000600858 9.79055e-17)
(1.0001 1.81431e-05 8.34724e-19)
(1.03617 0.0207286 -8.72828e-18)
(1.03937 0.0205849 -1.55079e-17)
(1.02291 -0.00055658 1.31829e-17)
(0.934044 0.0334488 6.03836e-17)
(1.03646 0.0801621 1.44298e-17)
(1.02299 -0.00142998 -2.51742e-20)
(0.996952 0.0238187 -4.98722e-18)
(1.00039 0.00369418 -4.02258e-19)
(1.0084 0.00720075 -1.80853e-18)
(0.760359 0.0265406 -1.03005e-15)
(1.00947 0.00851723 -3.06142e-18)
(1.03291 0.0184929 2.60223e-18)
(0.984323 0.0383239 -3.99385e-18)
(1.02476 0.00799069 1.78303e-18)
(1.01272 -0.000436001 -1.84947e-18)
(0.996686 0.0107425 -5.01225e-18)
(1.05576 0.0172419 7.23214e-18)
(1.01425 0.00618724 -1.07286e-17)
(1.00516 0.0121795 1.55631e-17)
(1.06971 0.00512794 2.21765e-17)
(0.991673 0.0260754 -1.8038e-17)
(1.01997 0.0017021 1.42844e-18)
(0.831582 0.288732 -8.0167e-17)
(1 2.13641e-05 1.58316e-19)
(1.01474 0.00725102 2.43599e-19)
(0.999974 0.0186773 6.00014e-17)
(0.992779 0.00665401 1.35675e-18)
(1.00297 0.000772872 1.39502e-17)
(0.997211 0.0234563 -1.97896e-17)
(1.00001 7.4749e-06 -6.02417e-18)
(1.04701 0.103379 4.01057e-17)
(1.0054 0.000466462 -1.41292e-17)
(0.973472 0.00505259 -1.76172e-16)
(1.03502 0.0301448 2.02032e-17)
(0.956526 0.0427454 9.43868e-17)
(1.01573 0.00860664 8.9638e-18)
(1.0155 0.00756256 1.09851e-18)
(1.03574 0.020087 -7.61319e-18)
(1.27706 0.0277628 -7.52035e-18)
(0.999753 0.000158499 -6.91353e-17)
(0.992951 0.00072168 -1.49268e-16)
(1.01809 -0.00049317 3.88005e-19)
(1.10877 0.179408 7.60936e-18)
(1.03916 0.0214535 5.13133e-18)
(0.999816 0.00287567 6.73899e-19)
(0.273597 0.171703 2.20938e-16)
(1.00008 3.83117e-05 -1.19249e-18)
(1.00459 0.00172943 -9.14599e-18)
(0.972264 -0.0631803 1.1344e-16)
(0.994799 0.0049918 -4.68137e-19)
(0.999615 0.00309898 -2.26162e-19)
(0.999583 0.00332904 -5.64253e-19)
(0.98421 0.0371371 -4.85497e-17)
(0.959073 0.0277314 8.95298e-17)
(0.999694 9.01539e-05 8.45959e-17)
(0.993787 0.00628263 3.66115e-19)
(0.93667 0.0685604 3.05839e-17)
(0.998691 0.0208468 3.28911e-17)
(0.995677 0.0164724 -1.14433e-17)
(0.99702 0.00871836 -4.82287e-18)
(1.00106 -3.05107e-06 -8.77073e-19)
(0.96178 0.0297047 -8.41989e-18)
(1.06453 0.051398 -2.94653e-18)
(0.994673 0.0154284 3.13736e-17)
(0.933558 0.0313091 3.00763e-18)
(1.03127 0.00443494 2.37e-18)
(1.03006 -0.00381598 1.11452e-18)
(1.04489 0.10038 8.7253e-18)
(1.03188 0.0282237 9.55678e-18)
(0.996711 0.00929153 -8.07178e-19)
(1.00521 0.00107352 3.94827e-19)
(1.08656 0.0908901 -1.49592e-17)
(1.03515 0.00343147 1.23292e-19)
(0.976719 0.0248165 -5.5368e-17)
(1.00053 0.00385598 -1.14248e-17)
(0.999515 0.000353217 1.41039e-17)
(0.934055 0.00659725 1.34263e-16)
(1.04867 0.0361041 6.88716e-18)
(1.01362 0.00590286 1.15439e-17)
(1.01218 0.0477214 1.23899e-17)
(1.01399 0.00690453 -1.19177e-18)
(0.99713 0.00931092 3.91141e-18)
(1.0052 0.00469342 -5.69301e-18)
(0.967442 0.0307935 2.75923e-17)
(0.963718 0.0297718 -1.36936e-16)
(0.395537 0.549876 -3.5527e-16)
(0.969269 0.0360971 3.45828e-17)
(1.00031 0.0164968 3.91918e-17)
(1.00533 0.00365374 -6.46588e-18)
(0.971808 0.031588 3.33725e-17)
(0.633621 0.283889 -9.73201e-17)
(0.938717 0.0304472 4.94689e-16)