/*--------------------------------*- C++ -*----------------------------------*\
  =========                 |
  \\      /  F ield         | OpenFOAM: The Open Source CFD Toolbox
   \\    /   O peration     | Website:  https://openfoam.org
    \\  /    A nd           | Version:  7
     \\/     M anipulation  |
\*---------------------------------------------------------------------------*/
FoamFile
{
    version     2.0;
    format      ascii;
    class       volScalarField;
    location    "0.5";
    object      p;
}
// * * * * * * * * * * * * * * * * * * * * * * * * * * * * * * * * * * * * * //

dimensions      [1 -1 -2 0 0 0 0];

internalField   nonuniform List<scalar> 
1008
(
1
1
1
1
1.00366
1.29124
1
1
1
1
1
1
1
1
1
1
1
1
1
1
1
1
1
1
1
1
1
1
1.00001
1.00754
1
1
1
1
1
1
1
1
1
1
1
1
1
1
1
1
1
1
1
1
1
1
1
1.00003
1
1
1
1
1
1
1
1
1
1
1
1
1
1
1
1
1
1
1
1
1
1
1
1
1
1
1
1
1
1
1
1
1
1
1
1
1
1
1
1
1
1
1
1
1
1
1
1
1
1
1
1
1
1
1
1
1
1
1
1
1
1
1
1
1
1
1
1
1
1
1
1
1
1
1
1
1
1
1
1
1
1
1
1
1
1
1
1
1
1
1
1
1
1
1
1
1
1
1
1
1
1
1
1
1
1
1
1
1
1
1
1
1
1
1
1
1
1
1
1
1
1
1
1
1
1
1
1
1
1
1
1
1
1
1
1
1
1
1
1
1
1
1
1
1
1
1
1
1
1
1
1
1
1
1
1
1
1
1
1
1
1
1
1
1
1
1
1
1
1
1
1
1
1
1
1
1
1
1
1
1
1
1
1
1
1
1
1
1
1
1
1
1
1
1
1
1
1
1
1
1
1
1
1
1
1
1
1
1
1
1
1
1
1
1
1
1
1
1
1
1
1
1
1
1
1
1
1
1
1
1
1
1
1
1
1
1
1
1
1
1
1
1
1
1
1
1
1
1
1
1
1
1
1
1
1
1
1
1
1
1
1
1
1
1
1
1
1
1
1
1
1
1
1
1
1
1
1
1
1
1
1
1
1
1
1
1
1
1
1
1
1
1
1
1
1
1
1
1
1
1
1
1
1
1
1
1
1
1
1
1
1
1
1
1
1
1
1
1
1
1
1
1
1
1
1
1
1
1
1
1
1
1
1
1
1
1
1
1
1
1
1
1
1
1
1
1
1
1
1
1
1
1
1
1
1
1
1
1
1
3.14356
5.19625
5.47653
5.25531
4.70705
4.22333
3.86824
3.59198
3.33098
3.06272
2.83481
2.65146
2.42021
2.15674
2.05017
1.99
1.85989
1.68854
1.59934
1.52976
1.44169
1.3156
1.24758
1.22731
1.18845
1.11539
1.03934
1.01117
1.0065
0.999581
0.965065
0.918777
0.879326
1.3331
3.02368
4.90627
5.1523
4.99873
4.58523
4.14453
3.77791
3.52314
3.24816
3.00182
2.83606
2.64382
2.3785
2.1631
2.1024
2.01469
1.85493
1.73161
1.65937
1.56634
1.42136
1.34854
1.33085
1.30012
1.22855
1.1376
1.10582
1.10333
1.09315
1.04816
0.986127
0.945371
1.00988
1.31377
2.8073
4.50891
4.81832
4.75668
4.49973
4.09143
3.76224
3.47434
3.16913
2.96436
2.81562
2.60633
2.35052
2.23969
2.16315
2.0268
1.85986
1.77228
1.69835
1.56346
1.46468
1.43824
1.41317
1.35376
1.25234
1.20505
1.19998
1.18651
1.12965
1.05726
1.02747
1.00005
1.00936
1.25101
2.45575
4.06697
4.47849
4.50558
4.41278
4.11723
3.77679
3.43335
3.13138
2.93902
2.77693
2.56393
2.37647
2.2855
2.19556
2.04393
1.88346
1.80907
1.72973
1.61262
1.54797
1.52035
1.47515
1.3908
1.31597
1.29563
1.27764
1.2185
1.14586
1.12137
1
1.00004
1.00659
1.16223
2.08754
3.38407
4.18462
4.38285
4.32786
4.12744
3.78617
3.42621
3.12253
2.90386
2.7381
2.55332
2.38301
2.30994
2.22012
2.06812
1.91638
1.85883
1.78721
1.68046
1.62861
1.59503
1.53458
1.44619
1.38738
1.36446
1.32534
1.25525
1.22359
1
1
1.00003
1.00325
1.08868
1.63392
2.77528
3.79859
4.13644
4.14599
4.04927
3.77971
3.42269
3.11203
2.91868
2.76037
2.56774
2.42609
2.35127
2.23572
2.05879
1.96626
1.92901
1.84285
1.74363
1.71026
1.66505
1.5749
1.48711
1.4583
1.43727
1.38505
1.33282
1
1
1
1.00001
1.00119
1.03313
1.31524
2.21384
3.23715
3.8221
3.96779
3.88615
3.66732
3.41977
3.23235
3.04636
2.83813
2.63181
2.50951
2.39462
2.20097
2.07603
2.04953
1.99959
1.88655
1.81831
1.77688
1.68513
1.59136
1.56359
1.5506
1.51486
1.45433
1
1
1
1
1
1.00026
1.01034
1.13532
1.70228
2.55508
3.38705
3.69643
3.6071
3.50105
3.46306
3.38026
3.21224
2.97637
2.75796
2.60029
2.40573
2.23717
2.18783
2.15116
2.05757
1.93294
1.87769
1.80085
1.70761
1.67694
1.66514
1.6351
1.57819
1
1
1
1
1
1
1.00005
1.0026
1.04449
1.28987
1.89622
2.72313
3.22644
3.3659
3.41562
3.42631
3.36609
3.24758
3.06739
2.88971
2.72954
2.54994
2.42338
2.35101
2.25526
2.09375
2.00316
1.94442
1.86312
1.81741
1.79867
1.76838
1.70882
1
1
1
1
1
1
1
1.00001
1.00041
1.00918
1.08128
1.38743
2.01465
2.62388
3.05872
3.24761
3.28414
3.23737
3.12882
3.04463
2.99621
2.90116
2.76462
2.64583
2.5251
2.35048
2.22932
2.17341
2.10514
2.03593
1.98807
1.94639
1.88085
1
1
1
1
1
1
1
1
1
1.00004
1.0011
1.01681
1.11993
1.41107
1.90485
2.44446
2.81303
3.01774
3.01759
3.00913
2.98544
2.95183
2.89227
2.81284
2.71056
2.60356
2.53887
2.48127
2.40922
2.33317
2.26001
2.19388
2.12108
1
1
1
1
1
1
1
1
1
1
1
1.0001
1.0021
1.01871
1.09738
1.31438
1.67881
2.09127
2.45441
2.68179
2.78993
2.85959
2.84445
2.79718
2.71051
2.64442
2.62
2.58991
2.53437
2.47865
2.42208
2.35295
2.28472
1
1
1
1
1
1
1
1
1
1
1
1
1
1.0001
1.00142
1.01127
1.05419
1.1751
1.41329
1.71935
2.02288
2.28279
2.45595
2.54761
2.56484
2.56535
2.56442
2.55364
2.52458
2.47823
2.42652
2.362
2.29644
1
1
1
1
1
1
1
1
1
1
1
1
1
1
1
1.00004
1.00054
1.00422
1.02137
1.07078
1.17285
1.33149
1.52888
1.73537
1.92291
2.06482
2.16665
2.23774
2.27595
2.27949
2.26804
2.23958
2.19638
1
1
1
1
1
1
1
1
1
1
1
1
1
1
1
1
1
1.00001
1.00012
1.00084
1.00405
1.01419
1.03902
1.08863
1.16754
1.26368
1.3658
1.46506
1.55028
1.61506
1.66812
1.70597
1.72459
1
1
1
1
1
1
1
1
1
1
1
1
1
1
1
1
1
1
1
1
1.00001
1.00006
1.00032
1.00134
1.00428
1.01038
1.02062
1.03527
1.05356
1.07444
1.09761
1.12193
1.14306
1
1
1
1
1
1
1
1
1
1
1
1
1
1
1
1
1
1
1
1
1
1
1
1
1.00001
1.00004
1.00011
1.00027
1.00057
1.00107
1.00184
1.00291
1.00416
1
1
1
1
1
1
1
1
1
1
1
1
1
1
1
1
1
1
1
1
1
1
1
1
1
1
1
1
1
1
1
1.00001
1.00001
)
;

boundaryField
{
    inlet
    {
        type            fixedValue;
        value           uniform 1;
    }
    outlet
    {
        type            zeroGradient;
    }
    bottom
    {
        type            symmetryPlane;
    }
    top
    {
        type            symmetryPlane;
    }
    obstacle
    {
        type            zeroGradient;
    }
    defaultFaces
    {
        type            empty;
    }
    procBoundary2to0
    {
        type            processor;
        value           nonuniform List<scalar> 
58
(
1
1
1
1.0008
1.18989
3.09547
1
1
1
1
1
1
1
1
1
1
1
1
1
1
1
1
1
1
1
5.45384
5.79056
5.48528
4.91489
4.36695
4.02272
3.71544
3.40499
3.11667
2.88415
2.66487
2.44131
2.19678
2.01785
1.93626
1.84863
1.68549
1.53713
1.47553
1.40889
1.33037
1.22428
1.15001
1.119
1.07461
1.00655
0.946398
0.925305
0.923558
0.91806
0.890108
0.858023
0.830092
)
;
    }
    procBoundary2to1
    {
        type            processor;
        value           nonuniform List<scalar> 2(0.854808 0.928584);
    }
    procBoundary2to3
    {
        type            processor;
        value           nonuniform List<scalar> 
16
(
1.01408
1.10723
1.20823
1.31151
1.41414
1.52197
1.64067
1.80127
2.04148
2.22703
2.24608
2.16189
1.73051
1.1568
1.00514
1.00001
)
;
    }
}


// ************************************************************************* //
