/*--------------------------------*- C++ -*----------------------------------*\
  =========                 |
  \\      /  F ield         | OpenFOAM: The Open Source CFD Toolbox
   \\    /   O peration     | Website:  https://openfoam.org
    \\  /    A nd           | Version:  7
     \\/     M anipulation  |
\*---------------------------------------------------------------------------*/
FoamFile
{
    version     2.0;
    format      ascii;
    class       volScalarField;
    location    "2.8";
    object      T;
}
// * * * * * * * * * * * * * * * * * * * * * * * * * * * * * * * * * * * * * //

dimensions      [0 0 0 1 0 0 0];

internalField   nonuniform List<scalar> 
1008
(
1.70463
2.34938
2.88722
2.84464
2.78746
2.7561
2.73298
2.7166
2.694
2.66359
2.62427
2.59109
2.56949
2.55652
2.54598
2.53352
2.51638
2.49444
2.4706
2.4472
2.42711
2.40996
2.39469
2.38105
2.36728
2.3534
2.33958
2.32276
2.30526
2.28841
2.2728
2.26008
2.25013
2.24161
2.2344
2.22759
2.21845
2.20687
2.19088
2.16728
2.1445
2.13158
2.12318
2.11585
2.11008
2.1063
2.10062
2.09178
2.08052
2.06244
2.03869
2.02219
2.0121
2.00392
1.99848
1.99503
1.99065
1.98555
1.9757
1.95613
1.93633
1.92834
1.91763
1.73754
2.18185
2.71806
2.75015
2.70861
2.67353
2.66055
2.65127
2.63823
2.61707
2.58527
2.55777
2.53865
2.52516
2.51415
2.50343
2.49039
2.47176
2.44982
2.42819
2.40985
2.39456
2.38124
2.36819
2.35395
2.33913
2.32402
2.30994
2.29522
2.28084
2.26739
2.25472
2.24326
2.23318
2.22436
2.21542
2.20578
2.19525
2.18241
2.16531
2.1463
2.13025
2.11943
2.1119
2.10584
2.10043
2.09288
2.08382
2.07296
2.05871
2.03985
2.02186
2.00971
2.00132
1.99487
1.98939
1.98453
1.9793
1.97147
1.95721
1.93876
1.92665
1.91413
1.86902
2.0368
2.35264
2.53675
2.57337
2.56095
2.5614
2.55284
2.54247
2.52595
2.50752
2.49345
2.47978
2.46469
2.45102
2.44009
2.43137
2.42044
2.40575
2.38837
2.37027
2.35497
2.34277
2.33197
2.32053
2.30633
2.28975
2.27494
2.26167
2.25032
2.24046
2.23182
2.2232
2.21293
2.20094
2.18892
2.17784
2.1664
2.15418
2.14293
2.13181
2.12041
2.1087
2.09846
2.09003
2.08209
2.07386
2.06458
2.05363
2.04173
2.0298
2.01723
2.00377
1.99169
1.9827
1.9759
1.96996
1.96358
1.9561
1.94756
1.93659
1.92395
1.90649
1.99282
2.01415
2.06383
2.2309
2.37779
2.43538
2.47241
2.46272
2.44942
2.43161
2.42035
2.41421
2.40565
2.39357
2.37922
2.36855
2.36019
2.35203
2.34331
2.33266
2.31867
2.30313
2.28944
2.2782
2.26793
2.25692
2.24411
2.23072
2.21875
2.20783
2.19818
2.19031
2.18325
2.17495
2.16395
2.15163
2.13959
2.12791
2.11772
2.10933
2.10171
2.09386
2.08457
2.0734
2.06215
2.05259
2.04382
2.03419
2.02434
2.01657
2.00907
2.00039
1.9897
1.97651
1.96413
1.95508
1.94739
1.93958
1.93294
1.9284
1.92293
1.91552
1.89765
2.02156
2.0094
1.99375
2.02025
2.14845
2.29596
2.37557
2.41631
2.40597
2.38438
2.37005
2.36301
2.35548
2.34691
2.33578
2.32339
2.31206
2.30237
2.29462
2.28647
2.27586
2.26226
2.24767
2.23435
2.22267
2.21188
2.20076
2.18965
2.1791
2.16843
2.15863
2.15023
2.14241
2.13334
2.12104
2.10686
2.09579
2.08803
2.08151
2.07512
2.06862
2.06173
2.05342
2.0421
2.02808
2.01503
2.00523
1.99818
1.9934
1.98896
1.98361
1.97637
1.96733
1.9549
1.93944
1.92665
1.91762
1.91085
1.90666
1.90382
1.90041
1.89615
1.88317
1.99932
1.99098
1.98507
1.98511
2.00356
2.09959
2.24122
2.34906
2.36475
2.3582
2.34778
2.33998
2.33073
2.3199
2.3078
2.29341
2.28151
2.27239
2.26403
2.25526
2.24515
2.23295
2.21931
2.20597
2.1936
2.18166
2.16975
2.15918
2.14884
2.13794
2.12765
2.11878
2.11077
2.10194
2.08957
2.07326
2.06186
2.05594
2.05034
2.04451
2.03814
2.03115
2.02275
2.01136
1.99628
1.98069
1.97088
1.96698
1.96427
1.96145
1.95773
1.95195
1.94447
1.93308
1.91418
1.89558
1.88646
1.88279
1.88046
1.87842
1.87587
1.87257
1.86276
1.99643
1.98679
1.9862
1.98332
1.97592
1.98288
2.03995
2.18233
2.2891
2.32476
2.33082
2.33021
2.31902
2.30314
2.28922
2.27262
2.25959
2.25025
2.24151
2.23262
2.22213
2.21069
2.19954
2.18885
2.17769
2.16475
2.14989
2.13709
2.1267
2.11589
2.10529
2.09602
2.0878
2.07938
2.0682
2.05178
2.03772
2.03118
2.0254
2.01901
2.01193
2.00405
1.99496
1.98388
1.97019
1.95622
1.94791
1.94386
1.94072
1.93775
1.9343
1.92964
1.92284
1.91051
1.88993
1.87082
1.86291
1.85928
1.85647
1.8541
1.85189
1.84909
1.84084
1.96284
1.95633
1.96492
1.96836
1.96389
1.95317
1.94224
1.97587
2.08984
2.22058
2.2779
2.29817
2.30221
2.28615
2.27138
2.25547
2.24291
2.231
2.21764
2.20537
2.19578
2.18762
2.18116
2.17388
2.16563
2.15458
2.13791
2.11898
2.10594
2.09605
2.08664
2.07788
2.07012
2.06281
2.05369
2.03877
2.01952
2.00915
2.00333
1.99702
1.98977
1.98163
1.97263
1.96291
1.95246
1.94135
1.93138
1.92503
1.92109
1.91789
1.9141
1.90843
1.899
1.88523
1.86905
1.85487
1.84587
1.84065
1.83699
1.83399
1.83188
1.83097
1.82481
1.89007
1.90862
1.92551
1.93323
1.93029
1.92276
1.91405
1.90039
1.91777
2.00501
2.14291
2.2233
2.26179
2.25874
2.24807
2.23588
2.22432
2.21249
2.1942
2.17796
2.16919
2.16195
2.15802
2.15486
2.14811
2.13971
2.12639
2.10542
2.08685
2.0764
2.06786
2.05989
2.05292
2.04607
2.03887
2.02793
2.00896
1.99011
1.98115
1.97501
1.96864
1.96147
1.95391
1.94671
1.93952
1.9307
1.91928
1.91035
1.90611
1.90167
1.89576
1.88716
1.87569
1.86362
1.8534
1.84409
1.83491
1.82805
1.82376
1.82004
1.81628
1.81321
1.80524
1.80146
1.81613
1.83187
1.85069
1.86241
1.87099
1.87034
1.86882
1.86815
1.87785
1.9325
2.04021
2.15414
2.19566
2.20996
2.21373
2.2031
2.19254
2.1731
2.152
2.14094
2.13422
2.13059
2.12869
2.12283
2.11507
2.10551
2.09078
2.0713
2.05583
2.04678
2.03917
2.03213
2.02537
2.01906
2.01156
1.99863
1.97856
1.962
1.95312
1.94652
1.94089
1.93609
1.93125
1.92614
1.91963
1.90937
1.89532
1.88342
1.8759
1.86949
1.86254
1.85453
1.84738
1.84095
1.8333
1.82413
1.81622
1.81092
1.80617
1.80113
1.79551
1.78365
1.78371
1.77207
1.75834
1.75913
1.76667
1.77743
1.79197
1.81159
1.8217
1.82583
1.82651
1.85033
1.93749
2.05224
2.12819
2.16157
2.17309
2.16868
2.1531
2.13286
2.11604
2.10688
2.10114
2.09684
2.09152
2.08403
2.07653
2.0678
2.05559
2.03929
2.02481
2.01565
2.00826
2.00151
1.99546
1.98934
1.98106
1.96743
1.94825
1.93311
1.92572
1.92079
1.91686
1.91425
1.91041
1.90524
1.89644
1.8793
1.86097
1.85094
1.84435
1.83889
1.83529
1.83264
1.82905
1.82278
1.81259
1.80179
1.7943
1.78841
1.78268
1.77625
1.76364
1.77554
1.76226
1.7495
1.73454
1.72077
1.71042
1.71059
1.71826
1.7315
1.7444
1.75174
1.75085
1.76327
1.83156
1.94343
2.05586
2.10679
2.12995
2.13153
2.11819
2.10185
2.08368
2.07117
2.06437
2.05805
2.05165
2.04542
2.03974
2.03316
2.02287
2.00733
1.99273
1.98323
1.97593
1.96963
1.96394
1.95785
1.94924
1.93552
1.91838
1.90634
1.90036
1.89628
1.8934
1.89062
1.88654
1.87923
1.8627
1.83987
1.8267
1.82117
1.81818
1.8166
1.81567
1.81392
1.81038
1.80105
1.7851
1.77426
1.7692
1.76333
1.75669
1.74496
1.78509
1.76698
1.74882
1.72868
1.70996
1.69809
1.68879
1.68006
1.67341
1.66883
1.66946
1.66918
1.66476
1.6719
1.71333
1.82263
1.9454
2.04485
2.08315
2.08912
2.08713
2.07072
2.05117
2.03717
2.02897
2.02283
2.01896
2.01385
2.00911
2.00275
1.99078
1.97366
1.96016
1.95137
1.94453
1.93878
1.93338
1.92712
1.91827
1.90562
1.89201
1.88172
1.87465
1.87018
1.86706
1.86373
1.8574
1.84375
1.82356
1.80842
1.8023
1.7992
1.79739
1.79636
1.79511
1.79292
1.78609
1.77037
1.75343
1.74363
1.73764
1.73265
1.72439
1.80063
1.78054
1.75993
1.73791
1.71468
1.69418
1.67824
1.66547
1.65467
1.64547
1.63853
1.62972
1.61587
1.59889
1.59255
1.60889
1.68142
1.81091
1.94026
2.01796
2.05086
2.04857
2.03959
2.02178
2.00934
2.0033
1.99874
1.99245
1.98744
1.98181
1.97193
1.95616
1.94042
1.92985
1.92248
1.91652
1.9111
1.90541
1.89858
1.88939
1.87753
1.86528
1.85549
1.84821
1.84222
1.83654
1.83004
1.82096
1.80905
1.79761
1.78769
1.78061
1.77694
1.77508
1.77416
1.77212
1.76634
1.75383
1.73439
1.7211
1.71425
1.711
1.70676
1.81347
1.79333
1.7733
1.75203
1.72777
1.70239
1.68059
1.66373
1.64922
1.63621
1.62414
1.61223
1.60166
1.58866
1.56833
1.55289
1.54867
1.56946
1.65731
1.79153
1.92399
1.98314
2.00662
2.00061
1.99452
1.99099
1.98292
1.97566
1.96883
1.96087
1.95109
1.93867
1.92482
1.91346
1.90522
1.89845
1.89224
1.88598
1.87921
1.87123
1.86093
1.84891
1.83821
1.82952
1.82145
1.81347
1.80552
1.79824
1.79173
1.7843
1.77566
1.76723
1.75999
1.75363
1.74811
1.74511
1.74261
1.73454
1.71815
1.70221
1.69558
1.69436
1.6911
1.82218
1.803
1.78392
1.76383
1.74094
1.71534
1.69131
1.67147
1.65425
1.63821
1.62189
1.60623
1.59191
1.57731
1.55942
1.54084
1.52936
1.51927
1.51329
1.53708
1.62362
1.75841
1.87902
1.94415
1.94976
1.96022
1.96302
1.95677
1.94822
1.93884
1.92925
1.9192
1.90773
1.89791
1.89063
1.88408
1.87775
1.87115
1.86348
1.85457
1.84469
1.83455
1.82437
1.81373
1.80369
1.79477
1.78694
1.78035
1.7743
1.7682
1.76152
1.75325
1.74431
1.73581
1.72815
1.72146
1.71391
1.70633
1.69775
1.68764
1.68009
1.67841
1.67487
)
;

boundaryField
{
    inlet
    {
        type            fixedValue;
        value           nonuniform 0();
    }
    outlet
    {
        type            inletOutlet;
        inletValue      uniform 1;
        value           nonuniform List<scalar> 
16
(
1.91833
1.91472
1.90638
1.89666
1.88256
1.86273
1.84124
1.82572
1.80518
1.783
1.76298
1.74455
1.72475
1.70776
1.69211
1.67578
)
;
    }
    bottom
    {
        type            symmetryPlane;
    }
    top
    {
        type            symmetryPlane;
    }
    obstacle
    {
        type            zeroGradient;
    }
    defaultFaces
    {
        type            empty;
    }
    procBoundary1to0
    {
        type            processor;
        value           nonuniform List<scalar> 
14
(
1.69743
1.68542
1.69192
1.78296
1.92649
2.00298
2.00793
1.97016
1.87875
1.79966
1.78731
1.79003
1.80429
1.82063
)
;
    }
    procBoundary1to2
    {
        type            processor;
        value           nonuniform List<scalar> 2(1.83383 1.84184);
    }
    procBoundary1to3
    {
        type            processor;
        value           nonuniform List<scalar> 
63
(
1.82648
1.80797
1.78968
1.7706
1.74916
1.72404
1.69718
1.67382
1.65526
1.63928
1.62367
1.60779
1.59139
1.57388
1.55594
1.53743
1.52059
1.50531
1.49454
1.48607
1.47878
1.50231
1.58341
1.72277
1.82671
1.9029
1.92227
1.92219
1.92403
1.91737
1.90758
1.89795
1.88714
1.87775
1.87169
1.86636
1.86096
1.85515
1.84871
1.84141
1.8323
1.81942
1.80301
1.79043
1.78348
1.77807
1.7729
1.76756
1.76113
1.75262
1.7425
1.73387
1.72697
1.72016
1.71275
1.70368
1.69383
1.6852
1.67867
1.67274
1.66771
1.6646
1.65927
)
;
    }
}


// ************************************************************************* //
