/*--------------------------------*- C++ -*----------------------------------*\
  =========                 |
  \\      /  F ield         | OpenFOAM: The Open Source CFD Toolbox
   \\    /   O peration     | Website:  https://openfoam.org
    \\  /    A nd           | Version:  7
     \\/     M anipulation  |
\*---------------------------------------------------------------------------*/
FoamFile
{
    version     2.0;
    format      ascii;
    class       volScalarField;
    location    "0.45";
    object      p;
}
// * * * * * * * * * * * * * * * * * * * * * * * * * * * * * * * * * * * * * //

dimensions      [0 2 -2 0 0 0 0];

internalField   nonuniform List<scalar> 
10000
(
1.94576e-06
9.90298e-05
-0.000124422
-0.000713717
-0.00161909
-0.00278421
-0.00415191
-0.00566736
-0.00728082
-0.00894833
-0.0106312
-0.0122959
-0.013913
-0.0154571
-0.0169061
-0.0182411
-0.0194459
-0.0205068
-0.021412
-0.022152
-0.022719
-0.0231068
-0.0233107
-0.0233273
-0.0231545
-0.0227913
-0.0222379
-0.0214952
-0.0205653
-0.0194509
-0.0181555
-0.0166834
-0.0150395
-0.0132293
-0.0112589
-0.00913503
-0.00686471
-0.0044556
-0.00191574
0.000746418
0.00352204
0.00640195
0.00937662
0.0124362
0.0155707
0.0187696
0.0220225
0.0253184
0.0286465
0.0319956
0.0353545
0.0387118
0.0420561
0.045376
0.04866
0.0518966
0.0550746
0.0581826
0.0612097
0.0641448
0.0669773
0.0696968
0.0722931
0.0747567
0.0770782
0.0792487
0.0812601
0.0831047
0.0847753
0.0862657
0.0875703
0.0886844
0.0896041
0.0903265
0.0908498
0.0911733
0.0912975
0.0912239
0.0909558
0.0904975
0.0898551
0.0890364
0.0880507
0.0869093
0.0856259
0.0842158
0.0826972
0.0810907
0.07942
0.0777121
0.0759973
0.0743102
0.0726898
0.0711798
0.0698289
0.0686901
0.0678174
0.0672623
0.0670672
0.0671783
-9.22147e-05
4.09643e-06
-0.00021328
-0.000739879
-0.00152469
-0.00252815
-0.0037084
-0.00502207
-0.00642797
-0.00788829
-0.00936888
-0.0108392
-0.0122723
-0.0136442
-0.0149342
-0.0161239
-0.0171977
-0.018142
-0.0189454
-0.0195983
-0.0200927
-0.0204223
-0.0205822
-0.0205686
-0.0203792
-0.0200126
-0.0194685
-0.0187476
-0.0178514
-0.0167821
-0.0155429
-0.0141376
-0.0125706
-0.0108469
-0.00897223
-0.00695265
-0.00479482
-0.00250587
-9.33201e-05
0.00243487
0.00507039
0.00780457
0.0106284
0.0135326
0.0165076
0.0195436
0.0226306
0.0257583
0.0289163
0.032094
0.0352808
0.0384659
0.0416385
0.0447878
0.0479028
0.0509729
0.0539872
0.0569351
0.0598061
0.0625901
0.0652768
0.0678567
0.0703201
0.072658
0.0748619
0.0769233
0.0788349
0.0805893
0.0821802
0.0836018
0.0848491
0.0859179
0.0868047
0.0875074
0.0880243
0.0883551
0.0885007
0.0884631
0.0882456
0.0878528
0.0872908
0.0865675
0.0856921
0.0846759
0.0835318
0.082275
0.0809228
0.0794949
0.0780135
0.0765038
0.0749936
0.0735141
0.0720997
0.0707879
0.0696188
0.0686342
0.0678733
0.0673722
0.0671776
0.0672892
0.000131145
0.000222249
5.11889e-06
-0.000489237
-0.00120549
-0.0021107
-0.00317093
-0.00435006
-0.00561304
-0.00692702
-0.00826169
-0.00958949
-0.0108856
-0.012128
-0.0132969
-0.0143751
-0.0153476
-0.0162013
-0.0169251
-0.0175095
-0.0179467
-0.0182302
-0.0183551
-0.0183175
-0.0181149
-0.0177456
-0.0172091
-0.0165058
-0.0156369
-0.0146042
-0.0134107
-0.0120597
-0.0105553
-0.00890214
-0.00710546
-0.00517102
-0.00310506
-0.000914279
0.00139419
0.00381283
0.00633375
0.00894869
0.0116491
0.0144261
0.0172707
0.0201734
0.0231246
0.0261146
0.0291334
0.032171
0.0352172
0.0382616
0.041294
0.044304
0.0472813
0.0502155
0.0530964
0.0559139
0.058658
0.061319
0.0638874
0.0663538
0.0687094
0.0709455
0.073054
0.0750273
0.0768581
0.0785397
0.0800663
0.0814325
0.0826336
0.0836658
0.0845263
0.0852128
0.0857244
0.0860609
0.0862234
0.0862139
0.0860361
0.0856946
0.0851955
0.0845465
0.0837567
0.0828369
0.0817998
0.0806598
0.0794336
0.0781395
0.0767986
0.0754339
0.074071
0.0727381
0.0714657
0.0702863
0.0692342
0.0683441
0.0676479
0.0671761
0.066982
0.0670949
0.000719348
0.000749719
0.00050037
5.19448e-06
-0.000684647
-0.0015393
-0.00252917
-0.0036231
-0.00479068
-0.00600307
-0.00723333
-0.00845665
-0.00965044
-0.0107943
-0.0118701
-0.0128615
-0.0137544
-0.0145363
-0.0151965
-0.0157259
-0.0161169
-0.0163631
-0.0164597
-0.0164027
-0.0161895
-0.0158184
-0.0152886
-0.0146004
-0.0137546
-0.0127531
-0.0115983
-0.0102934
-0.00884219
-0.00724893
-0.00551859
-0.00365659
-0.00166883
0.000438341
0.00265814
0.00498341
0.00740662
0.0099199
0.0125151
0.0151837
0.0179169
0.0207059
0.0235414
0.0264141
0.0293144
0.0322327
0.0351591
0.0380839
0.040997
0.0438886
0.0467488
0.0495677
0.0523354
0.0550424
0.0576791
0.0602361
0.0627043
0.0650749
0.0673395
0.0694898
0.071518
0.073417
0.0751799
0.0768004
0.0782729
0.0795925
0.0807548
0.0817564
0.0825945
0.0832674
0.0837741
0.0841147
0.0842905
0.0843036
0.0841575
0.0838569
0.0834079
0.0828178
0.0820956
0.0812516
0.0802979
0.0792483
0.0781183
0.0769254
0.0756889
0.0744302
0.0731726
0.0719414
0.0707639
0.0696686
0.0686855
0.0678448
0.0671745
0.0667026
0.0664804
0.066542
0.00162495
0.00153723
0.00121881
0.000694197
1.84963e-06
-0.00083161
-0.00178017
-0.00281704
-0.00391594
-0.00505168
-0.00620049
-0.00734022
-0.00845049
-0.00951274
-0.0105102
-0.0114279
-0.0122526
-0.0129725
-0.0135775
-0.0140589
-0.0144094
-0.014623
-0.0146947
-0.0146209
-0.0143987
-0.0140265
-0.0135035
-0.0128296
-0.0120056
-0.0110332
-0.00991454
-0.00865257
-0.00725079
-0.0057133
-0.0040447
-0.00225014
-0.000335185
0.00169411
0.00383132
0.0060696
0.00840177
0.0108203
0.0133174
0.0158849
0.0185146
0.0211976
0.0239254
0.0266888
0.0294788
0.032286
0.035101
0.0379145
0.0407168
0.0434985
0.04625
0.0489619
0.0516247
0.0542293
0.0567664
0.0592271
0.0616028
0.0638849
0.0660654
0.0681364
0.0700906
0.0719211
0.0736214
0.0751856
0.0766084
0.0778851
0.0790116
0.0799848
0.0808022
0.081462
0.0819637
0.0823074
0.0824944
0.0825269
0.0824083
0.0821433
0.0817376
0.0811985
0.0805345
0.0797554
0.0788726
0.0778992
0.0768496
0.07574
0.0745884
0.0734142
0.0722386
0.0710841
0.069975
0.0689363
0.0679941
0.0671746
0.0665028
0.0660038
0.0657181
0.0656719
0.00279479
0.0025478
0.00212972
0.00154999
0.000829438
-8.70478e-06
-0.00094157
-0.00194637
-0.00300059
-0.00408237
-0.00517089
-0.00624653
-0.00729107
-0.00828777
-0.00922136
-0.0100781
-0.0108458
-0.0115134
-0.0120716
-0.0125122
-0.0128282
-0.0130138
-0.0130644
-0.0129764
-0.012747
-0.0123747
-0.0118584
-0.0111982
-0.0103947
-0.0094493
-0.00836415
-0.00714192
-0.00578589
-0.00429992
-0.00268838
-0.00095611
0.000891572
0.00284893
0.00490981
0.00706772
0.00931577
0.0116468
0.0140533
0.0165274
0.0190613
0.0216466
0.0242748
0.0269374
0.0296255
0.0323303
0.0350426
0.0377535
0.0404538
0.0431342
0.0457858
0.0483993
0.0509657
0.0534762
0.0559219
0.0582943
0.0605851
0.0627862
0.0648897
0.0668883
0.0687748
0.0705428
0.0721859
0.0736987
0.075076
0.0763134
0.0774072
0.0783542
0.0791523
0.0797999
0.0802963
0.0806419
0.0808379
0.0808866
0.0807913
0.0805564
0.0801875
0.0796914
0.0790761
0.0783512
0.0775272
0.0766162
0.0756317
0.0745887
0.0735034
0.0723937
0.0712785
0.070178
0.0691133
0.0681066
0.0671803
0.066357
0.0656587
0.0651079
0.0647288
0.0645335
0.00417586
0.00374286
0.00320195
0.00254549
0.00177446
0.000908868
-3.11442e-05
-0.00102643
-0.00205788
-0.00310666
-0.00415466
-0.00518464
-0.00618045
-0.00712711
-0.00801087
-0.00881924
-0.00954101
-0.0101662
-0.010686
-0.0110929
-0.0113803
-0.0115429
-0.0115762
-0.0114768
-0.0112422
-0.0108706
-0.0103613
-0.00971413
-0.00892971
-0.00800935
-0.006955
-0.00576919
-0.00445504
-0.00301618
-0.00145676
0.000218597
0.00200484
0.0038965
0.0058877
0.00797221
0.0101434
0.0123945
0.0147183
0.0171073
0.0195537
0.0220498
0.0245872
0.0271579
0.0297532
0.0323646
0.0349835
0.037601
0.0402084
0.0427969
0.0453576
0.0478817
0.0503607
0.0527859
0.0551489
0.0574414
0.0596555
0.0617832
0.0638173
0.0657504
0.0675759
0.0692875
0.0708791
0.0723455
0.0736818
0.0748838
0.0759478
0.0768711
0.0776514
0.0782874
0.0787783
0.0791247
0.0793276
0.0793892
0.0793128
0.0791025
0.0787636
0.0783025
0.0777268
0.0770454
0.0762681
0.0754062
0.074472
0.0734792
0.0724427
0.0713785
0.0703035
0.0692357
0.0681937
0.0671966
0.0662637
0.0654142
0.0646678
0.064044
0.0635482
0.0631766
0.00571819
0.00508296
0.00440267
0.00365243
0.00281277
0.00190083
0.000934459
-7.05098e-05
-0.00109804
-0.00213205
-0.00315689
-0.00415756
-0.00511984
-0.00603046
-0.00687714
-0.00764864
-0.00833481
-0.00892658
-0.00941592
-0.00979586
-0.0100604
-0.0102045
-0.0102242
-0.0101161
-0.00987802
-0.0095083
-0.00900615
-0.00837149
-0.00760493
-0.00670768
-0.00568161
-0.00452912
-0.00325318
-0.00185725
-0.000345297
0.00127828
0.00300864
0.00484054
0.00676837
0.00878614
0.0108876
0.013066
0.0153146
0.0176261
0.0199932
0.0224082
0.0248633
0.0273505
0.0298617
0.0323885
0.0349227
0.0374557
0.0399791
0.0424843
0.0449629
0.0474065
0.0498065
0.0521548
0.0544433
0.0566639
0.0588089
0.0608709
0.0628425
0.064717
0.0664878
0.0681487
0.0696942
0.071119
0.0724185
0.0735887
0.074626
0.0755277
0.0762917
0.0769166
0.0774019
0.0777479
0.0779556
0.0780272
0.0779656
0.0777747
0.0774596
0.0770262
0.0764815
0.0758337
0.0750921
0.074267
0.0733697
0.0724125
0.071409
0.0703734
0.0693209
0.0682673
0.067229
0.0662223
0.0652638
0.0643694
0.0635568
0.062843
0.0622139
0.0616491
0.00737728
0.00653108
0.00570029
0.00484341
0.00392078
0.00294717
0.00193852
0.000907731
-0.000131931
-0.00116686
-0.00218367
-0.00316937
-0.00411161
-0.0049987
-0.00581977
-0.00656482
-0.00722476
-0.00779141
-0.00825754
-0.00861679
-0.00886372
-0.00899376
-0.00900318
-0.00888905
-0.00864923
-0.00828229
-0.00778753
-0.00716491
-0.00641505
-0.00553914
-0.00453897
-0.00341687
-0.00217567
-0.000818718
0.000650205
0.00222687
0.00390662
0.00568444
0.00755493
0.00951234
0.0115506
0.0136634
0.015844
0.0180856
0.020381
0.0227228
0.0251035
0.0275155
0.0299507
0.0324013
0.0348592
0.0373161
0.0397639
0.0421944
0.0445993
0.0469705
0.0492998
0.0515793
0.0538011
0.0559574
0.0580408
0.060044
0.0619601
0.0637823
0.0655043
0.0671203
0.0686247
0.0700126
0.0712794
0.0724211
0.0734345
0.0743167
0.0750658
0.0756804
0.0761599
0.0765045
0.0767152
0.0767939
0.0767433
0.0765672
0.0762701
0.0758575
0.075336
0.0747131
0.0739972
0.0731977
0.0723251
0.0713905
0.0704059
0.0693841
0.0683386
0.0672832
0.0662322
0.0651997
0.0641996
0.063245
0.0623519
0.061535
0.0607611
0.0599936
0.0091145
0.00805371
0.00706553
0.00609265
0.00507598
0.00402842
0.00296444
0.00189434
0.000828921
-0.000220411
-0.00124229
-0.00222563
-0.00315973
-0.00403442
-0.00484019
-0.00556821
-0.00621043
-0.00675956
-0.00720913
-0.00755346
-0.00778767
-0.00790765
-0.00791004
-0.00779222
-0.0075523
-0.00718904
-0.00670186
-0.00609082
-0.00535655
-0.00450027
-0.00352372
-0.00242919
-0.00121941
0.000102387
0.00153254
0.00306698
0.00470123
0.00643043
0.0082494
0.0101526
0.0121342
0.014188
0.0163076
0.0184864
0.0207175
0.0229938
0.0253079
0.0276524
0.0300198
0.0324022
0.0347919
0.037181
0.0395614
0.0419253
0.0442646
0.0465714
0.0488379
0.0510563
0.0532189
0.0553183
0.0573472
0.0592986
0.0611656
0.0629417
0.0646209
0.0661973
0.0676656
0.069021
0.0702589
0.0713756
0.0723678
0.0732327
0.0739682
0.0745732
0.0750468
0.0753892
0.0756012
0.0756845
0.0756416
0.0754759
0.0751915
0.0747936
0.0742882
0.073682
0.0729827
0.072199
0.0713402
0.0704163
0.0694383
0.0684174
0.0673654
0.0662944
0.0652167
0.0641445
0.0630894
0.0620622
0.0610774
0.0601479
0.0592219
0.0582475
0.0108965
0.0096209
0.00847152
0.00737614
0.00625711
0.00512595
0.00399604
0.00287546
0.00177284
0.00069762
-0.000340652
-0.00133257
-0.00226898
-0.00314114
-0.00394079
-0.00466022
-0.00529237
-0.00583085
-0.00626993
-0.0066046
-0.00683055
-0.00694414
-0.00694242
-0.00682311
-0.00658457
-0.00622577
-0.00574631
-0.00514633
-0.00442656
-0.00358824
-0.00263311
-0.0015634
-0.000381817
0.000908509
0.00230402
0.00380078
0.00539444
0.00708032
0.00885339
0.0107083
0.0126394
0.0146408
0.0167062
0.0188292
0.0210032
0.0232212
0.0254763
0.0277611
0.0300683
0.0323904
0.0347198
0.0370488
0.0393698
0.0416749
0.0439564
0.0462067
0.048418
0.0505828
0.0526937
0.0547434
0.0567247
0.0586308
0.0604551
0.0621912
0.0638331
0.0653752
0.0668122
0.0681394
0.0693524
0.0704473
0.071421
0.0722706
0.0729942
0.0735903
0.0740581
0.0743976
0.0746095
0.0746952
0.074657
0.0744978
0.0742215
0.0738326
0.0733367
0.07274
0.0720493
0.0712724
0.0704177
0.0694943
0.0685118
0.0674803
0.06641
0.0653115
0.0641954
0.0630721
0.0619511
0.0608413
0.0597561
0.0587072
0.0576248
0.0564428
0.0126945
0.0112061
0.00989392
0.00867175
0.00744427
0.00622206
0.00501776
0.00383754
0.00268817
0.00157736
0.000513032
-0.000496923
-0.00144477
-0.00232304
-0.00312466
-0.003843
-0.00447193
-0.00500591
-0.00543995
-0.00576971
-0.00599142
-0.00610194
-0.00609874
-0.00597989
-0.00574402
-0.00539035
-0.00491864
-0.00432918
-0.00362279
-0.00280075
-0.00186485
-0.000817303
0.000339231
0.00160168
0.00296656
0.00443004
0.00598791
0.0076356
0.00936824
0.0111806
0.0130673
0.0150226
0.0170403
0.0191143
0.0212381
0.0234051
0.0256083
0.0278408
0.0300954
0.0323647
0.0346415
0.0369182
0.0391874
0.0414414
0.0436728
0.045874
0.0480376
0.0501562
0.0522224
0.0542292
0.0561697
0.058037
0.0598248
0.0615267
0.0631369
0.0646498
0.0660603
0.0673636
0.0685553
0.0696318
0.0705897
0.0714263
0.0721394
0.0727275
0.0731898
0.073526
0.0737366
0.0738228
0.0737866
0.0736305
0.073358
0.0729733
0.0724812
0.0718873
0.0711979
0.07042
0.0695609
0.0686288
0.0676323
0.0665801
0.0654815
0.0643453
0.0631808
0.0619968
0.0608011
0.0596008
0.0584087
0.0572357
0.055995
0.0546068
0.0144836
0.0127857
0.0113108
0.00995921
0.00861897
0.00730006
0.00601469
0.00476743
0.00356341
0.00240886
0.00131028
0.000274183
-0.000692967
-0.00158489
-0.00239558
-0.00311942
-0.00375118
-0.00428611
-0.00471998
-0.00504903
-0.00527009
-0.0053805
-0.00537814
-0.00526144
-0.00502933
-0.00468128
-0.00421725
-0.00363768
-0.0029435
-0.00213608
-0.00121724
-0.000189204
0.00094537
0.00218345
0.00352163
0.00495614
0.00648287
0.00809737
0.00979491
0.0115704
0.0134186
0.0153338
0.0173103
0.0193419
0.0214223
0.0235451
0.0257036
0.027891
0.0301002
0.0323242
0.0345558
0.0367877
0.0390125
0.0412229
0.0434116
0.0455711
0.0476942
0.0497735
0.0518021
0.0537729
0.055679
0.0575139
0.0592712
0.0609447
0.0625285
0.0640173
0.0654059
0.0666895
0.0678639
0.0689251
0.06987
0.0706958
0.0714001
0.0719813
0.0724385
0.0727711
0.0729795
0.0730647
0.0730282
0.0728723
0.0726
0.072215
0.0717216
0.0711249
0.0704305
0.0696444
0.0687735
0.0678248
0.0668059
0.0657246
0.0645888
0.0634064
0.0621851
0.0609326
0.059655
0.058358
0.0570543
0.0557542
0.0543548
0.0527632
0.0162424
0.014339
0.0127023
0.01122
0.00976409
0.00834429
0.00697266
0.0056524
0.00438728
0.00318223
0.00204248
0.00097335
-1.98537e-05
-0.000931924
-0.00175786
-0.00249296
-0.00313284
-0.00367353
-0.00411147
-0.00444354
-0.00466709
-0.00477995
-0.00478043
-0.00466731
-0.00443984
-0.00409773
-0.00364117
-0.00307076
-0.00238755
-0.00159303
-0.000689056
0.000322091
0.00143776
0.00265495
0.00397027
0.00538002
0.00688018
0.00846639
0.010134
0.0118781
0.0136935
0.0155748
0.0175161
0.0195117
0.0215554
0.0236409
0.0257615
0.0279108
0.0300818
0.0322677
0.0344613
0.0366556
0.0388434
0.0410175
0.0431707
0.0452956
0.0473852
0.0494324
0.0514301
0.0533714
0.0552497
0.0570584
0.0587911
0.0604418
0.0620047
0.0634743
0.0648456
0.0661137
0.0672745
0.0683239
0.0692586
0.0700758
0.0707731
0.0713487
0.0718014
0.0721305
0.0723362
0.0724191
0.0723804
0.0722222
0.071947
0.071558
0.0710589
0.0704543
0.0697492
0.068949
0.0680597
0.0670875
0.066039
0.0649211
0.0637408
0.0625048
0.0612199
0.0598923
0.0585272
0.0571289
0.0557101
0.054281
0.0527234
0.050932
0.017952
0.0158475
0.0140508
0.0124373
0.0108638
0.0093401
0.00787823
0.00648026
0.00514879
0.00388765
0.00270097
0.00159299
0.000568
-0.000369782
-0.00121627
-0.00196761
-0.0026202
-0.00317081
-0.00361651
-0.00395479
-0.00418354
-0.00430106
-0.00430605
-0.00419766
-0.00397546
-0.00363943
-0.00318997
-0.00262787
-0.00195432
-0.00117091
-0.000279599
0.000717304
0.00181712
0.00301684
0.00431311
0.00570227
0.00718035
0.00874307
0.0103859
0.012104
0.0138922
0.0157453
0.0176577
0.0196236
0.021637
0.0236916
0.0257813
0.0278993
0.0300391
0.0321938
0.0343566
0.0365205
0.0386784
0.0408233
0.042948
0.0450454
0.0471085
0.0491302
0.0511037
0.0530222
0.0548789
0.0566674
0.0583814
0.0600149
0.0615621
0.0630176
0.0643762
0.0656331
0.066784
0.067825
0.0687525
0.0695636
0.0702558
0.0708271
0.0712762
0.0716023
0.0718049
0.0718847
0.0718424
0.0716798
0.071399
0.0710027
0.0704943
0.0698775
0.0691569
0.0683373
0.0674239
0.0664222
0.065338
0.0641774
0.0629462
0.0616505
0.060296
0.0588882
0.057431
0.0559279
0.0543917
0.0528326
0.0511179
0.0491307
0.0195958
0.0172947
0.01534
0.0135955
0.0119035
0.0102738
0.00871866
0.0072393
0.00583728
0.00451549
0.00327711
0.00212542
0.0010638
9.55952e-05
-0.000775957
-0.00154778
-0.00221702
-0.00278109
-0.00323772
-0.00358495
-0.00382117
-0.00394514
-0.00395599
-0.00385321
-0.00363668
-0.00330666
-0.00286377
-0.002309
-0.00164369
-0.000869546
1.13814e-05
0.00099671
0.00208373
0.0032694
0.0045504
0.00592308
0.0073835
0.00892747
0.0105505
0.0122478
0.0140145
0.0158452
0.0177346
0.0196769
0.0216663
0.0236967
0.0257619
0.0278554
0.0299708
0.0321013
0.0342402
0.0363807
0.0385157
0.0406383
0.0427415
0.0448183
0.0468617
0.0488647
0.0508206
0.0527225
0.0545639
0.0563383
0.0580395
0.0596613
0.0611981
0.0626443
0.0639949
0.0652448
0.0663898
0.0674258
0.0683492
0.0691568
0.069846
0.0704148
0.0708614
0.0711848
0.0713845
0.0714607
0.0714138
0.0712452
0.0709566
0.0705504
0.0700294
0.0693969
0.0686567
0.0678132
0.0668708
0.0658346
0.0647094
0.0635007
0.0622134
0.0608529
0.0594242
0.0579317
0.0563788
0.0547682
0.0531129
0.0514236
0.0495534
0.0473742
0.0211592
0.0186659
0.0165556
0.0146807
0.0128696
0.0111324
0.0094819
0.0079183
0.00644241
0.00505628
0.00376228
0.00256287
0.0014606
0.000458019
-0.000442392
-0.00123828
-0.00192747
-0.002508
-0.0029782
-0.00333663
-0.00358219
-0.00371407
-0.00373179
-0.00363521
-0.00342451
-0.00310022
-0.00266319
-0.00211462
-0.001456
-0.000689184
0.000183689
0.00116016
0.00223745
0.00341252
0.00468201
0.00604229
0.00748945
0.00901934
0.0106275
0.0123093
0.0140598
0.0158738
0.017746
0.0196709
0.0216425
0.023655
0.0257022
0.0277779
0.0298756
0.0319887
0.0341106
0.0362344
0.0383534
0.0404606
0.0425492
0.0446121
0.0466425
0.0486335
0.0505783
0.0524701
0.0543023
0.0560686
0.0577627
0.0593784
0.0609101
0.0623521
0.0636992
0.0649466
0.0660896
0.0671242
0.0680466
0.0688535
0.0695421
0.07011
0.0705555
0.0708772
0.0710744
0.0711468
0.0710947
0.0709189
0.070621
0.0702027
0.0696665
0.0690152
0.0682521
0.0673808
0.0664055
0.0653303
0.0641598
0.0628984
0.0615507
0.0601212
0.0586142
0.0570337
0.0553823
0.0536621
0.0518866
0.050067
0.0480431
0.0456755
0.0226292
0.0199477
0.0176841
0.0156797
0.0137495
0.0119041
0.0101565
0.00850653
0.00695415
0.00550075
0.00414798
0.00289756
0.00175132
0.0007111
-0.000221314
-0.00104423
-0.0017561
-0.00235557
-0.00284149
-0.00321294
-0.0034693
-0.00361017
-0.00363546
-0.00354538
-0.00334042
-0.00302137
-0.00258932
-0.00204566
-0.00139207
-0.00063053
0.000236702
0.00120708
0.00227777
0.00344568
0.00470743
0.00605939
0.00749766
0.00901812
0.0106164
0.0122878
0.0140275
0.0158304
0.0176912
0.0196045
0.0215645
0.0235654
0.0256012
0.0276655
0.0297521
0.0318544
0.033966
0.03608
0.0381898
0.0402884
0.0423691
0.0444249
0.0464489
0.0484344
0.0503745
0.0522625
0.0540918
0.0558559
0.0575486
0.0591638
0.0606957
0.0621385
0.063487
0.0647361
0.0658813
0.0669182
0.067843
0.0686521
0.0693426
0.0699118
0.0703578
0.070679
0.0708743
0.0709432
0.0708856
0.0707021
0.0703935
0.0699615
0.0694081
0.0687355
0.0679467
0.0670446
0.0660329
0.0649152
0.0636955
0.0623778
0.060966
0.0594639
0.0578755
0.0562041
0.0544519
0.0526206
0.0507243
0.0487747
0.0465986
0.0440462
0.0239939
0.021128
0.0187133
0.0165805
0.0145315
0.0125773
0.0107316
0.00899366
0.00736279
0.00583981
0.00442575
0.00312169
0.0019288
0.000848287
-0.000118687
-0.00097104
-0.00170781
-0.00232817
-0.00283151
-0.0032174
-0.00348562
-0.00363622
-0.00366948
-0.00358592
-0.00338635
-0.00307183
-0.00264368
-0.00210349
-0.00145313
-0.000694701
0.000169398
0.00113653
0.00220378
0.00336802
0.00462582
0.00597354
0.00740729
0.00892293
0.0105161
0.0121822
0.0139165
0.0157138
0.017569
0.0194767
0.0214312
0.0234267
0.0254572
0.0275166
0.0295986
0.0316968
0.0338047
0.0359157
0.0380229
0.0401197
0.0421992
0.0442545
0.0462788
0.0482652
0.0502071
0.0520975
0.05393
0.055698
0.0573952
0.0590155
0.0605528
0.0620015
0.0633562
0.0646117
0.0657632
0.0668063
0.0677369
0.0685514
0.0692465
0.0698195
0.0702679
0.07059
0.0707845
0.0708505
0.0707876
0.0705959
0.0702761
0.0698293
0.0692571
0.0685613
0.0677445
0.0668091
0.0657583
0.0645952
0.0633233
0.0619461
0.060467
0.0588896
0.0572171
0.0554526
0.0535978
0.0516541
0.0496365
0.0475572
0.0452305
0.0424962
0.0252425
0.0221956
0.019632
0.0173719
0.0152045
0.0131414
0.0111969
0.00936977
0.0076589
0.00606457
0.00458724
0.00322745
0.0019858
0.000862888
-0.000140674
-0.00102436
-0.00178775
-0.00243053
-0.00295256
-0.00335387
-0.00363468
-0.00379542
-0.00383671
-0.00375943
-0.00356467
-0.00325374
-0.00282822
-0.00228989
-0.0016408
-0.000883207
-1.96336e-05
0.000947175
0.00201423
0.00317833
0.00443601
0.00578359
0.00721717
0.00873263
0.0103256
0.0119915
0.0137256
0.0155229
0.0173782
0.019286
0.021241
0.0232372
0.0252688
0.0273296
0.0294136
0.0315142
0.033625
0.0357395
0.0378509
0.0399525
0.0420374
0.0440989
0.04613
0.0481239
0.0500739
0.0519732
0.053815
0.0555929
0.0573004
0.0589313
0.0604796
0.0619394
0.0633052
0.0645717
0.0657339
0.0667873
0.0677275
0.0685507
0.0692534
0.0698326
0.0702857
0.0706106
0.0708056
0.0708696
0.0708019
0.0706023
0.070271
0.0698087
0.0692167
0.0684963
0.0676497
0.0666791
0.065587
0.0643761
0.0630495
0.0616103
0.0600615
0.0584062
0.0566475
0.054788
0.0528292
0.0507723
0.0486329
0.0464242
0.0439482
0.0410345
0.0263651
0.0231403
0.0204296
0.0180433
0.015758
0.013586
0.0115423
0.00962527
0.0078333
0.00616627
0.00462419
0.00320707
0.00191501
0.000748087
-0.000293614
-0.00121007
-0.00200136
-0.00266765
-0.00320925
-0.00362661
-0.00392037
-0.00409132
-0.00414044
-0.00406891
-0.00387812
-0.00356964
-0.00314528
-0.00260703
-0.0019571
-0.00119793
-0.000332164
0.000637342
0.00170751
0.00287506
0.00413649
0.00548806
0.00692587
0.00844575
0.0100434
0.0117142
0.0134534
0.0152561
0.017117
0.0190309
0.0209923
0.0229953
0.0250342
0.0271029
0.0291951
0.0313047
0.033425
0.0355496
0.0376717
0.0397847
0.0418818
0.043956
0.0460005
0.0480085
0.049973
0.0518873
0.0537447
0.0555385
0.0572623
0.0589096
0.0604743
0.0619505
0.0633325
0.0646148
0.0657923
0.0668601
0.0678138
0.0686493
0.0693628
0.0699511
0.0704114
0.0707411
0.0709385
0.0710018
0.0709303
0.0707232
0.0703806
0.0699027
0.0692902
0.0685445
0.0676669
0.0666595
0.0655244
0.0642639
0.0628806
0.0613773
0.0597568
0.0580218
0.056175
0.054219
0.052155
0.049984
0.0477226
0.0453847
0.0427604
0.0396693
0.0273525
0.0239522
0.0210963
0.0185847
0.0161822
0.0139015
0.0117583
0.00975083
0.00787699
0.00613631
0.00452837
0.00305275
0.00170907
0.000496951
-0.000584008
-0.00153426
-0.00235431
-0.00304481
-0.00360647
-0.00404017
-0.00434691
-0.00452784
-0.00458428
-0.00451772
-0.00432983
-0.00402243
-0.00359756
-0.00305742
-0.00240441
-0.00164111
-0.000770316
0.00020501
0.00128169
0.00245636
0.00372545
0.00508519
0.00653163
0.0080606
0.00966774
0.0113485
0.0130981
0.0149116
0.0167839
0.0187096
0.0206833
0.0226993
0.0247516
0.0268344
0.0289413
0.0310662
0.0332026
0.0353439
0.0374834
0.0396145
0.0417302
0.0438238
0.0458883
0.0479168
0.0499023
0.0518381
0.0537173
0.0555331
0.0572791
0.0589486
0.0605355
0.0620335
0.0634369
0.06474
0.0659374
0.0670241
0.0679954
0.068847
0.0695748
0.0701754
0.0706456
0.0709827
0.0711844
0.0712488
0.0711747
0.0709612
0.0706077
0.0701144
0.0694815
0.0687098
0.0678006
0.0667554
0.065576
0.0642645
0.0628231
0.0612542
0.0595602
0.0577439
0.0558076
0.0537538
0.0515836
0.0492978
0.046914
0.044447
0.041675
0.0384079
0.0281959
0.0246224
0.0216226
0.0189867
0.0164674
0.0140783
0.0118357
0.00973739
0.00778118
0.00596618
0.00429163
0.00275669
0.00136056
0.000102438
-0.00101852
-0.00200318
-0.00285252
-0.00356756
-0.00414944
-0.0045994
-0.00491883
-0.00510922
-0.00517221
-0.00510958
-0.00492327
-0.00461537
-0.00418813
-0.00364396
-0.00298545
-0.00221533
-0.00133654
-0.000352166
0.000734513
0.00192004
0.00320079
0.00457293
0.00603246
0.00757519
0.00919673
0.0108925
0.0126578
0.0144876
0.0163769
0.0183202
0.0203121
0.022347
0.024419
0.0265221
0.0286502
0.0307969
0.0329558
0.0351204
0.0372839
0.0394396
0.0415807
0.0437003
0.0457913
0.0478468
0.0498599
0.0518235
0.0537308
0.055575
0.0573492
0.0590469
0.0606617
0.0621871
0.0636172
0.0649462
0.0661685
0.0672787
0.0682721
0.0691438
0.0698898
0.0705061
0.0709893
0.0713365
0.0715449
0.0716125
0.0715376
0.0713189
0.0709556
0.0704474
0.0697943
0.0689968
0.0680557
0.0669722
0.0657478
0.0643842
0.0628834
0.0612476
0.0594791
0.0575801
0.0555531
0.0534004
0.051123
0.0487217
0.0462151
0.0436189
0.0406996
0.0372572
0.0288869
0.0251418
0.0219994
0.01924
0.0166045
0.0141072
0.0117652
0.00957604
0.00753718
0.00564747
0.00390583
0.00231106
0.000861984
-0.000442604
-0.00160394
-0.00262332
-0.00350208
-0.00424167
-0.00484359
-0.00530945
-0.00564099
-0.00584003
-0.00590851
-0.00584852
-0.00566225
-0.00535204
-0.00492037
-0.00436985
-0.00370325
-0.00292348
-0.0020336
-0.00103684
6.34312e-05
0.00126365
0.00256012
0.00394895
0.00542608
0.00698728
0.00862814
0.0103441
0.0121303
0.0139819
0.0158937
0.0178604
0.0198766
0.0219365
0.0240343
0.026164
0.0283195
0.0304945
0.0326825
0.0348769
0.037071
0.039258
0.0414311
0.0435833
0.0457075
0.0477967
0.0498439
0.0518419
0.0537837
0.0556624
0.0574711
0.0592031
0.0608516
0.0624102
0.0638727
0.0652329
0.0664851
0.0676238
0.0686437
0.06954
0.0703081
0.0709439
0.0714436
0.0718039
0.0720219
0.0720951
0.0720214
0.0717993
0.0714275
0.0709056
0.070233
0.0694101
0.0684372
0.0673152
0.0660453
0.0646291
0.0630682
0.0613647
0.0595205
0.0575378
0.0554191
0.0531665
0.050781
0.0482635
0.0456336
0.0429079
0.0398412
0.0362239
0.0294175
0.0255022
0.0222181
0.0193358
0.0165846
0.0139794
0.0115381
0.00925801
0.00713639
0.00517179
0.00336283
0.001708
0.000205767
-0.00114544
-0.00234724
-0.0034013
-0.00430933
-0.00507315
-0.00569463
-0.00617573
-0.0065185
-0.0067251
-0.00679778
-0.00673888
-0.00655088
-0.00623635
-0.00579799
-0.00523862
-0.00456119
-0.00376876
-0.00286457
-0.00185194
-0.000734389
0.000484453
0.00180079
0.00321066
0.00470996
0.00629441
0.00795955
0.00970078
0.0115133
0.0133921
0.0153322
0.0173281
0.0193743
0.0214653
0.0235951
0.0257577
0.027947
0.0301567
0.0323803
0.0346111
0.0368425
0.0390675
0.0412793
0.0434708
0.0456349
0.0477644
0.0498523
0.0518912
0.0538741
0.0557939
0.0576434
0.0594157
0.0611041
0.0627018
0.0642023
0.0655994
0.0668869
0.0680591
0.0691105
0.070036
0.0708306
0.0714899
0.0720099
0.0723868
0.0726174
0.0726989
0.072629
0.0724056
0.0720272
0.0714929
0.070802
0.0699544
0.0689502
0.06779
0.0664747
0.0650056
0.0633841
0.0616122
0.0596916
0.0576245
0.0554131
0.0530598
0.0505654
0.0479309
0.0451769
0.0423212
0.0391067
0.0353141
0.0297797
0.0256951
0.02227
0.0192654
0.0163988
0.0136859
0.0111455
0.00877462
0.00657026
0.00453076
0.00265448
0.000939592
-0.000615755
-0.00201347
-0.00325553
-0.00434394
-0.00528079
-0.00606824
-0.00670851
-0.00720389
-0.00755676
-0.00776958
-0.00784489
-0.00778531
-0.00759357
-0.00727249
-0.00682499
-0.00625408
-0.00556289
-0.00475468
-0.00383279
-0.00280071
-0.00166206
-0.000420567
0.000919873
0.00235523
0.00388134
0.00549386
0.0071883
0.00896001
0.0108042
0.0127158
0.0146897
0.0167206
0.0188029
0.0209309
0.0230989
0.0253008
0.0275303
0.0297812
0.0320469
0.0343207
0.036596
0.0388658
0.041123
0.0433606
0.0455713
0.0477479
0.0498832
0.0519698
0.0540004
0.0559678
0.0578646
0.0596837
0.0614182
0.0630611
0.0646057
0.0660453
0.0673738
0.0685849
0.069673
0.0706325
0.0714583
0.0721455
0.0726898
0.0730872
0.0733339
0.0734269
0.0733635
0.0731413
0.0727585
0.0722137
0.071506
0.0706348
0.0696002
0.0684024
0.067042
0.0655201
0.0638379
0.0619972
0.0599998
0.0578475
0.0555428
0.0530879
0.0504837
0.0477314
0.0448525
0.0418659
0.0385028
0.0345341
0.0299658
0.0257124
0.0221468
0.0190201
0.0160384
0.0132181
0.0105787
0.00811722
0.00583025
0.003716
0.00177255
-2.17512e-06
-0.00161036
-0.00305422
-0.00433607
-0.00545825
-0.0064232
-0.00723341
-0.00789142
-0.00839986
-0.00876142
-0.00897885
-0.00905499
-0.00899272
-0.00879502
-0.00846495
-0.00800564
-0.00742032
-0.0067123
-0.00588498
-0.00494188
-0.00388662
-0.00272293
-0.00145466
-8.57824e-05
0.00137959
0.00293722
0.00458271
0.00631151
0.00811894
0.0100001
0.0119501
0.0139636
0.0160353
0.0181596
0.0203309
0.0225433
0.0247906
0.0270668
0.0293654
0.0316798
0.0340034
0.0363293
0.0386505
0.04096
0.0432505
0.0455147
0.0477453
0.0499349
0.0520759
0.054161
0.0561826
0.0581334
0.0600059
0.061793
0.0634874
0.0650821
0.0665704
0.0679457
0.0692014
0.0703316
0.0713304
0.0721923
0.0729122
0.0734853
0.0739072
0.0741739
0.074282
0.0742283
0.0740102
0.0736255
0.0730724
0.0723498
0.0714567
0.0703929
0.0691584
0.0677536
0.0661792
0.0644365
0.062527
0.0604523
0.0582144
0.0558157
0.0532584
0.0505436
0.0476724
0.0446676
0.041549
0.0380362
0.0338899
0.029968
0.0255461
0.02184
0.0185914
0.0154948
0.0125673
0.00982915
0.00727716
0.0049078
0.00271905
0.000708772
-0.00112541
-0.00278594
-0.00427536
-0.0055963
-0.00675142
-0.00774348
-0.00857531
-0.00924977
-0.00976979
-0.0101384
-0.0103586
-0.0104335
-0.0103663
-0.0101602
-0.00981847
-0.00934451
-0.00874171
-0.00801359
-0.0071637
-0.00619573
-0.00511342
-0.00392063
-0.00262132
-0.00121957
0.000280447
0.00187439
0.00355782
0.00532613
0.00717458
0.00909826
0.0110921
0.013151
0.0152694
0.0174417
0.0196624
0.0219254
0.0242247
0.0265539
0.0289068
0.0312765
0.0336565
0.0360398
0.0384194
0.040788
0.0431383
0.045463
0.0477545
0.0500053
0.0522077
0.0543542
0.056437
0.0584485
0.0603812
0.0622274
0.0639799
0.0656313
0.0671746
0.0686027
0.069909
0.0710871
0.0721307
0.0730341
0.0737917
0.0743983
0.0748493
0.0751403
0.0752673
0.075227
0.0750162
0.0746326
0.0740739
0.0733386
0.0724256
0.0713343
0.0700643
0.068616
0.0669899
0.065187
0.0632087
0.0610566
0.0587328
0.0562394
0.053579
0.0507526
0.0477615