/*--------------------------------*- C++ -*----------------------------------*\
  =========                 |
  \\      /  F ield         | OpenFOAM: The Open Source CFD Toolbox
   \\    /   O peration     | Website:  https://openfoam.org
    \\  /    A nd           | Version:  7
     \\/     M anipulation  |
\*---------------------------------------------------------------------------*/
FoamFile
{
    version     2.0;
    format      ascii;
    class       volVectorField;
    location    "17";
    object      U;
}
// * * * * * * * * * * * * * * * * * * * * * * * * * * * * * * * * * * * * * //

dimensions      [0 1 -1 0 0 0 0];

internalField   nonuniform List<vector> 
2418
(
(2 1.77817e-15 0)
(2 1.63123e-15 0)
(2 1.42442e-15 0)
(2 1.14355e-15 0)
(2 7.63507e-16 0)
(2 7.12861e-16 0)
(2 7.38012e-16 0)
(2 3.49055e-16 0)
(2 1.42595e-16 0)
(2 1.11401e-16 0)
(2 2.36015e-16 0)
(2 2.78198e-16 0)
(2 3.82388e-16 0)
(2 2.88626e-16 0)
(2 2.15384e-16 0)
(2 1.05996e-16 0)
(2 5.01289e-17 0)
(2 5.31433e-17 0)
(2 -1.69176e-16 0)
(2 -4.75323e-16 0)
(2 -6.73144e-16 0)
(2 -1.27118e-15 0)
(2 -1.77635e-15 0)
(2 -1.81779e-15 0)
(2 -1.73802e-15 0)
(2 -1.62674e-15 0)
(2 -1.48315e-15 0)
(2 -1.32247e-15 0)
(2 -1.37668e-15 0)
(2 -1.44324e-15 0)
(2 -1.26361e-15 0)
(2 -1.00271e-15 0)
(2 -7.93851e-16 0)
(2 -6.00758e-16 0)
(2 -5.66699e-16 0)
(2 -6.07599e-16 0)
(2 -8.39884e-16 0)
(2 -1.05052e-15 0)
(2 -1.71678e-17 0)
(2 -9.91375e-18 0)
(2 -8.18806e-17 0)
(2 -1.15788e-16 0)
(2 -1.07803e-16 0)
(2 -2.0847e-17 0)
(2 4.60406e-17 0)
(2 -6.00834e-18 0)
(2 -6.52976e-17 0)
(2 -9.65725e-17 0)
(2 -4.14302e-17 0)
(2 2.6027e-16 0)
(2 2.9247e-16 0)
(2 1.24562e-16 0)
(2 -1.27125e-16 0)
(2 -2.52194e-16 0)
(2 -8.54814e-16 0)
(2 -1.29942e-15 0)
(2 -1.4175e-15 0)
(2 -1.34444e-15 0)
(2 -1.32155e-15 0)
(2 -1.09582e-15 0)
(2 -1.23813e-15 0)
(2 -1.20351e-15 0)
(2 -1.15592e-15 0)
(2 -9.35155e-16 0)
(2 -4.86467e-16 0)
(2 -3.35166e-17 0)
(2 1.11069e-17 0)
(2 -2.08257e-16 0)
(2 -4.14846e-16 0)
(2 -5.78112e-16 0)
(2 -5.05404e-16 0)
(2 -5.05646e-16 0)
(2 -6.09074e-16 0)
(2 -1.35309e-16 0)
(2 2.34719e-16 0)
(2 7.01926e-16 0)
(2 1.03624e-15 0)
(2 9.37018e-16 0)
(2 1.21547e-15 0)
(2 1.52579e-15 0)
(2 1.48503e-15 0)
(2 1.44558e-15 0)
(2 1.45201e-15 0)
(2 1.36108e-15 0)
(2 1.18151e-15 0)
(2 1.22687e-15 0)
(2 1.60931e-15 0)
(2 1.64507e-15 0)
(2 1.67477e-15 0)
(2 1.66234e-15 0)
(2 1.61497e-15 0)
(2 1.51665e-15 0)
(2 1.49717e-15 0)
(2 1.86768e-15 0)
(2 2.18162e-15 0)
(2 2.0632e-15 0)
(2 1.61836e-15 0)
(2 1.67823e-15 0)
(2 1.78999e-15 0)
(2 1.50497e-15 0)
(2 1.34848e-15 0)
(2 1.30724e-15 0)
(2 1.53559e-15 0)
(2 1.04513e-15 0)
(2 7.3492e-16 0)
(2 4.94955e-16 0)
(2 5.45707e-16 0)
(2 7.29511e-16 0)
(2 8.97613e-16 0)
(2 9.87419e-16 0)
(2 9.1638e-16 0)
(2 1.07316e-15 0)
(2 1.1558e-15 0)
(2 1.26571e-15 0)
(2 1.21967e-15 0)
(2 1.38097e-15 0)
(2 1.58022e-15 0)
(2 1.65137e-15 0)
(2 1.95306e-15 0)
(2 2.44084e-15 0)
(2 2.68594e-15 0)
(2 2.81066e-15 0)
(2 2.63813e-15 0)
(2 2.1909e-15 0)
(2 1.79846e-15 0)
(2 1.67965e-15 0)
(2 1.72017e-15 0)
(2 1.81929e-15 0)
(2 1.89133e-15 0)
(2 1.95492e-15 0)
(2 1.91664e-15 0)
(2 1.72572e-15 0)
(2 1.53115e-15 0)
(2 9.82563e-16 0)
(2 7.04721e-16 0)
(2 3.93481e-16 0)
(2 -1.93973e-16 0)
(2 -6.85351e-16 0)
(2 -1.00513e-15 0)
(2 -1.40703e-15 0)
(2 -1.36406e-15 0)
(2 -1.20411e-15 0)
(2 -9.63733e-16 0)
(2 -8.54377e-16 0)
(2 -7.32831e-16 0)
(2 -6.78644e-16 0)
(2 -7.21711e-16 0)
(2 -7.59388e-16 0)
(2 -7.97028e-16 0)
(2 -8.22796e-16 0)
(2 -8.76253e-16 0)
(2 -9.44791e-16 0)
(2 -1.14973e-15 0)
(2 -1.36474e-15 0)
(2 -1.54894e-15 0)
(2 -1.79705e-15 0)
(2 -2.65117e-15 0)
(2 -2.89156e-15 0)
(2 -2.92932e-15 0)
(2 -2.81418e-15 0)
(2 -2.7008e-15 0)
(2 -2.88814e-15 0)
(2 -2.62883e-15 0)
(2 -2.33831e-15 0)
(2 -2.15658e-15 0)
(2 -1.9709e-15 0)
(2 -1.835e-15 0)
(2 -1.81505e-15 0)
(2 -1.79273e-15 0)
(2 -1.76023e-15 0)
(2 3.04646e-17 0)
(2 8.95008e-17 0)
(2 8.95275e-17 0)
(2 1.12232e-16 0)
(2 1.80641e-16 0)
(2 2.42989e-16 0)
(2 2.67516e-16 0)
(2 2.39035e-16 0)
(2 2.87309e-16 0)
(2 3.07026e-16 0)
(2 5.41243e-16 0)
(2 1.22698e-15 0)
(2 1.18268e-15 0)
(2 1.10907e-15 0)
(2 7.59745e-16 0)
(2 4.43829e-16 0)
(2 5.40874e-17 0)
(2 -5.47856e-17 0)
(2 -3.81172e-16 0)
(2 -1.04447e-15 0)
(2 -1.20791e-15 0)
(2 -1.19233e-15 0)
(2 -9.8799e-16 0)
(2 -7.09189e-16 0)
(2 -5.07586e-16 0)
(2 -9.45213e-17 0)
(2 3.69588e-16 0)
(2 8.42438e-16 0)
(2 1.09288e-15 0)
(2 1.1891e-15 0)
(2 1.47409e-15 0)
(2 1.62087e-15 0)
(2 1.72523e-15 0)
(2 1.66827e-15 0)
(2 1.46053e-15 0)
(2 1.42068e-15 0)
(2 1.47636e-15 0)
(2 1.53019e-15 0)
(2 1.21915e-15 0)
(2 1.13902e-15 0)
(2 1.17815e-15 0)
(2 1.29751e-15 0)
(2 1.3972e-15 0)
(2 1.49369e-15 0)
(2 1.53261e-15 0)
(2 1.63608e-15 0)
(2 1.87005e-15 0)
(2 2.27271e-15 0)
(2 2.32906e-15 0)
(2 2.52335e-15 0)
(2 2.72308e-15 0)
(2 2.78755e-15 0)
(2 2.3075e-15 0)
(2 1.7305e-15 0)
(2 1.31259e-15 0)
(2 1.07236e-15 0)
(2 9.64079e-16 0)
(2 9.73965e-16 0)
(2 1.04133e-15 0)
(2 1.04137e-15 0)
(2 9.92863e-16 0)
(2 9.78837e-16 0)
(2 6.27231e-16 0)
(2 5.00338e-16 0)
(2 4.54836e-16 0)
(2 2.01264e-16 0)
(2 7.85635e-17 0)
(2 -2.27824e-16 0)
(2 -3.505e-16 0)
(2 -2.4659e-16 0)
(2 -3.88651e-16 0)
(2 -4.53629e-16 0)
(2 -3.368e-16 0)
(2 -8.47543e-17 0)
(2 1.91183e-16 0)
(2 8.18043e-16 0)
(2 1.08109e-15 0)
(2 1.43466e-15 0)
(2 1.43327e-15 0)
(2 1.65139e-15 0)
(2 1.67038e-15 0)
(2 1.79463e-15 0)
(2 1.89761e-15 0)
(2 1.73886e-15 0)
(2 1.48884e-15 0)
(2 1.33733e-15 0)
(2 1.24254e-15 0)
(2 1.25776e-15 0)
(2 1.29092e-15 0)
(2 1.37998e-15 0)
(2 1.40512e-15 0)
(2 1.62547e-15 0)
(2 1.8045e-15 0)
(2 1.9313e-15 0)
(2 1.63876e-15 0)
(2 1.42254e-15 0)
(2 1.14455e-15 0)
(2 9.24424e-16 0)
(2 4.12402e-16 0)
(2 -1.2866e-16 0)
(2 -4.41583e-16 0)
(2 -4.77321e-16 0)
(2 -3.09307e-16 0)
(2 -2.77549e-16 0)
(2 -3.62533e-16 0)
(2 -4.03578e-16 0)
(2 -4.46746e-16 0)
(2 -4.17439e-16 0)
(2 -3.86427e-16 0)
(2 -3.5817e-16 0)
(2 -3.14091e-16 0)
(2 -2.91913e-16 0)
(2 -2.90364e-16 0)
(2 -3.62506e-16 0)
(2 -4.15788e-16 0)
(2 -5.35565e-16 0)
(2 -6.29384e-16 0)
(2 -9.6717e-16 0)
(2 -1.2354e-15 0)
(2 -1.54982e-15 0)
(2 -1.58221e-15 0)
(2 -1.53269e-15 0)
(2 -1.48774e-15 0)
(2 -1.32803e-15 0)
(2 -1.61697e-15 0)
(2 -1.7853e-15 0)
(2 -2.00087e-15 0)
(2 -2.13623e-15 0)
(2 -2.41994e-15 0)
(2 -2.5113e-15 0)
(2 -2.56479e-15 0)
(2 -2.59096e-15 0)
(2 4.23846e-17 0)
(2 8.244e-17 0)
(2 1.04252e-16 0)
(2 1.12912e-16 0)
(2 1.26386e-16 0)
(2 1.22464e-16 0)
(2 -5.16321e-18 0)
(2 1.27093e-17 0)
(2 6.90872e-17 0)
(2 3.17876e-16 0)
(2 5.81446e-16 0)
(2 6.82497e-16 0)
(2 7.45701e-16 0)
(2 1.08454e-15 0)
(2 1.31441e-15 0)
(2 1.2455e-15 0)
(2 1.26837e-15 0)
(2 1.33484e-15 0)
(2 1.26801e-15 0)
(2 8.5051e-16 0)
(2 5.52459e-16 0)
(2 4.19401e-16 0)
(2 5.22314e-16 0)
(2 5.15816e-16 0)
(2 4.23509e-16 0)
(2 9.67489e-17 0)
(2 1.00189e-16 0)
(2 -4.28394e-16 0)
(2 -4.22161e-16 0)
(2 -3.64284e-16 0)
(2 6.51454e-16 0)
(2 1.27995e-15 0)
(2 1.44977e-15 0)
(2 1.62227e-15 0)
(2 1.67382e-15 0)
(2 1.68214e-15 0)
(2 1.5774e-15 0)
(2 1.53653e-15 0)
(2 1.56627e-15 0)
(2 1.58341e-15 0)
(2 1.57497e-15 0)
(2 1.61329e-15 0)
(2 1.55434e-15 0)
(2 1.46726e-15 0)
(2 1.5031e-15 0)
(2 1.58809e-15 0)
(2 1.63733e-15 0)
(2 1.54282e-15 0)
(2 1.55486e-15 0)
(2 1.68548e-15 0)
(2 1.61129e-15 0)
(2 1.76001e-15 0)
(2 1.86086e-15 0)
(2 1.92276e-15 0)
(2 1.28135e-15 0)
(2 1.19941e-15 0)
(2 1.25959e-15 0)
(2 1.4237e-15 0)
(2 1.76777e-15 0)
(2 1.91074e-15 0)
(2 1.98877e-15 0)
(2 1.7286e-15 0)
(2 1.28532e-15 0)
(2 8.02385e-16 0)
(2 6.82377e-16 0)
(2 7.0796e-16 0)
(2 8.22838e-16 0)
(2 8.19422e-16 0)
(2 8.16526e-16 0)
(2 7.47408e-16 0)
(2 5.6925e-16 0)
(2 5.0053e-16 0)
(2 6.46024e-16 0)
(2 8.36569e-16 0)
(2 8.74555e-16 0)
(2 1.1332e-15 0)
(2 1.43278e-15 0)
(2 1.433e-15 0)
(2 1.39173e-15 0)
(2 1.27888e-15 0)
(2 1.2184e-15 0)
(2 9.74233e-16 0)
(2 4.98622e-16 0)
(2 3.57764e-16 0)
(2 1.82127e-16 0)
(2 1.56349e-16 0)
(2 1.75247e-16 0)
(2 2.62834e-16 0)
(2 4.79345e-16 0)
(2 5.58382e-16 0)
(2 6.1256e-16 0)
(2 5.57687e-16 0)
(2 5.30885e-16 0)
(2 5.56676e-16 0)
(2 7.33677e-16 0)
(2 9.75946e-16 0)
(2 8.69385e-16 0)
(2 7.86913e-16 0)
(2 4.473e-16 0)
(2 4.41539e-16 0)
(2 3.95161e-16 0)
(2 1.96445e-16 0)
(2 4.29472e-17 0)
(2 1.71627e-18 0)
(2 6.75811e-17 0)
(2 1.58073e-16 0)
(2 2.42248e-16 0)
(2 3.26135e-16 0)
(2 4.19555e-16 0)
(2 5.30917e-16 0)
(2 5.86451e-16 0)
(2 6.06506e-16 0)
(2 6.25394e-16 0)
(2 6.05357e-16 0)
(2 5.85895e-16 0)
(2 5.01702e-16 0)
(2 3.81606e-16 0)
(2 3.43661e-16 0)
(2 2.93806e-16 0)
(2 1.68939e-16 0)
(2 -1.03298e-17 0)
(2 -1.87312e-16 0)
(2 -3.67834e-16 0)
(2 -3.43655e-16 0)
(2 -1.04299e-15 0)
(2 -1.8156e-15 0)
(2 -2.19249e-15 0)
(2 -2.57569e-15 0)
(2 -2.57136e-15 0)
(2 -2.16133e-15 0)
(2 -1.98793e-15 0)
(2 -2.17492e-15 0)
(2 2.09244e-18 0)
(2 -2.93622e-17 0)
(2 -2.38576e-17 0)
(2 -7.61802e-17 0)
(2 7.06753e-18 0)
(2 -1.01156e-17 0)
(2 -1.49963e-18 0)
(2 -7.04496e-17 0)
(2 -4.53818e-17 0)
(2 1.89085e-17 0)
(2 -6.51241e-18 0)
(2 -1.48473e-16 0)
(2 -3.06662e-18 0)
(2 6.9162e-16 0)
(2 7.1206e-16 0)
(2 9.32024e-16 0)
(2 1.20191e-15 0)
(2 1.31686e-15 0)
(2 1.29628e-15 0)
(2 1.21958e-15 0)
(2 1.19312e-15 0)
(2 1.12289e-15 0)
(2 9.24143e-16 0)
(2 6.75472e-16 0)
(2 4.42733e-16 0)
(2 3.86728e-16 0)
(2 4.53351e-16 0)
(2 -2.90619e-17 0)
(2 -1.59476e-16 0)
(2 -2.54823e-17 0)
(2 8.26849e-17 0)
(2 1.24313e-16 0)
(2 1.42477e-17 0)
(2 -9.08741e-17 0)
(2 -1.9185e-16 0)
(2 -2.07415e-16 0)
(2 -1.71632e-16 0)
(2 1.91297e-16 0)
(2 3.93181e-16 0)
(2 9.50856e-16 0)
(2 1.31732e-15 0)
(2 1.28061e-15 0)
(2 1.35806e-15 0)
(2 1.51693e-15 0)
(2 1.60256e-15 0)
(2 1.62728e-15 0)
(2 1.52156e-15 0)
(2 1.41322e-15 0)
(2 1.48948e-15 0)
(2 1.38993e-15 0)
(2 1.25523e-15 0)
(2 1.29428e-15 0)
(2 1.82814e-15 0)
(2 2.6244e-15 0)
(2 2.79896e-15 0)
(2 2.5548e-15 0)
(2 2.37285e-15 0)
(2 2.02613e-15 0)
(2 1.77831e-15 0)
(2 1.69329e-15 0)
(2 1.78036e-15 0)
(2 1.83369e-15 0)
(2 1.56791e-15 0)
(2 1.24385e-15 0)
(2 1.20137e-15 0)
(2 1.41407e-15 0)
(2 1.68072e-15 0)
(2 1.39897e-15 0)
(2 1.26576e-15 0)
(2 1.31769e-15 0)
(2 1.77879e-15 0)
(2 2.22201e-15 0)
(2 2.34231e-15 0)
(2 2.27027e-15 0)
(2 2.17443e-15 0)
(2 2.23232e-15 0)
(2 2.05115e-15 0)
(2 1.98631e-15 0)
(2 1.78508e-15 0)
(2 1.24273e-15 0)
(2 1.01426e-15 0)
(2 9.40377e-16 0)
(2 7.35323e-17 0)
(2 -6.01935e-16 0)
(2 -8.98842e-16 0)
(2 -1.48114e-15 0)
(2 -1.68728e-15 0)
(2 -1.99968e-15 0)
(2 -1.90726e-15 0)
(2 -2.04807e-15 0)
(2 -2.08389e-15 0)
(2 -2.39866e-15 0)
(2 -2.14298e-15 0)
(2 -1.74878e-15 0)
(2 -9.7494e-16 0)
(2 -5.63961e-16 0)
(2 -4.33345e-16 0)
(2 1.58484e-16 0)
(2 7.97677e-16 0)
(2 9.54916e-16 0)
(2 1.21171e-15 0)
(2 1.24781e-15 0)
(2 1.44459e-15 0)
(2 1.07254e-15 0)
(2 9.78063e-16 0)
(2 8.31457e-16 0)
(2 6.99288e-16 0)
(2 7.09415e-16 0)
(2 6.55378e-16 0)
(2 7.15143e-16 0)
(2 1.06915e-15 0)
(2 1.03735e-15 0)
(2 1.11543e-15 0)
(2 1.21339e-15 0)
(2 1.24285e-15 0)
(2 1.25993e-15 0)
(2 1.25677e-15 0)
(2 1.2797e-15 0)
(2 1.24951e-15 0)
(2 1.23753e-15 0)
(2 1.05809e-15 0)
(2 9.71217e-16 0)
(2 9.17583e-16 0)
(2 8.50126e-16 0)
(2 4.06011e-16 0)
(2 1.70515e-16 0)
(2 2.32702e-16 0)
(2 3.75077e-16 0)
(2 4.90601e-16 0)
(2 6.98268e-16 0)
(2 1.04006e-15 0)
(2 1.39576e-15 0)
(2 -5.30651e-17 0)
(2 -1.03607e-16 0)
(2 -9.60228e-17 0)
(2 -8.35402e-17 0)
(2 -1.83918e-16 0)
(2 -3.06788e-16 0)
(2 -2.89504e-16 0)
(2 -1.63401e-16 0)
(2 -1.52925e-16 0)
(2 -1.24548e-16 0)
(2 -3.85402e-16 0)
(2 -5.30913e-16 0)
(2 -6.41058e-16 0)
(2 -7.03124e-16 0)
(2 -4.8454e-16 0)
(2 -2.6135e-16 0)
(2 -1.00057e-16 0)
(2 5.80643e-17 0)
(2 2.18213e-16 0)
(2 7.08965e-16 0)
(2 9.30782e-16 0)
(2 8.39811e-16 0)
(2 9.47194e-16 0)
(2 1.00899e-15 0)
(2 9.65614e-16 0)
(2 8.47705e-16 0)
(2 5.82801e-16 0)
(2 4.18675e-16 0)
(2 1.90219e-16 0)
(2 7.24776e-17 0)
(2 -5.5133e-17 0)
(2 -1.36419e-16 0)
(2 -4.03257e-16 0)
(2 -4.79468e-16 0)
(2 -3.87251e-16 0)
(2 -2.41733e-16 0)
(2 -3.46023e-16 0)
(2 -5.75622e-16 0)
(2 -4.9623e-16 0)
(2 -4.07257e-16 0)
(2 -2.14687e-16 0)
(2 -1.35822e-16 0)
(2 1.56844e-16 0)
(2 6.37171e-16 0)
(2 8.65479e-16 0)
(2 9.01929e-16 0)
(2 1.30841e-15 0)
(2 1.84743e-15 0)
(2 1.70224e-15 0)
(2 1.58186e-15 0)
(2 1.51614e-15 0)
(2 1.89872e-15 0)
(2 2.05075e-15 0)
(2 2.05503e-15 0)
(2 2.05611e-15 0)
(2 1.99751e-15 0)
(2 1.84801e-15 0)
(2 1.57397e-15 0)
(2 1.08801e-15 0)
(2 8.9517e-16 0)
(2 7.18318e-16 0)
(2 8.62905e-16 0)
(2 9.34686e-16 0)
(2 1.29246e-15 0)
(2 1.78634e-15 0)
(2 1.81203e-15 0)
(2 1.75906e-15 0)
(2 1.50412e-15 0)
(2 1.1686e-15 0)
(2 1.33452e-15 0)
(2 1.57538e-15 0)
(2 1.65323e-15 0)
(2 1.80769e-15 0)
(2 1.92401e-15 0)
(2 1.94639e-15 0)
(2 1.86674e-15 0)
(2 1.73569e-15 0)
(2 1.4632e-15 0)
(2 1.25499e-15 0)
(2 7.97018e-16 0)
(2 5.84076e-16 0)
(2 -7.62282e-17 0)
(2 -1.02264e-15 0)
(2 -1.63208e-15 0)
(2 -1.84247e-15 0)
(2 -1.74982e-15 0)
(2 -1.62204e-15 0)
(2 -1.43443e-15 0)
(2 -1.48541e-15 0)
(2 -1.99489e-15 0)
(2 -2.29709e-15 0)
(2 -2.33583e-15 0)
(2 -2.12363e-15 0)
(2 -1.96893e-15 0)
(2 -1.69474e-15 0)
(2 -1.40185e-15 0)
(2 -1.22514e-15 0)
(2 -8.63701e-16 0)
(2 -7.31884e-16 0)
(2 -4.41629e-16 0)
(2 -3.55832e-17 0)
(2 1.11489e-16 0)
(2 6.06514e-17 0)
(2 2.46704e-17 0)
(2 -6.18782e-17 0)
(2 -1.50852e-16 0)
(2 1.20054e-16 0)
(2 7.16506e-16 0)
(2 1.17979e-15 0)
(2 1.33895e-15 0)
(2 1.4053e-15 0)
(2 1.4002e-15 0)
(2 1.29084e-15 0)
(2 1.2938e-15 0)
(2 1.33441e-15 0)
(2 1.37049e-15 0)
(2 1.45014e-15 0)
(2 1.44484e-15 0)
(2 1.42313e-15 0)
(2 1.42092e-15 0)
(2 1.46913e-15 0)
(2 1.56238e-15 0)
(2 1.54063e-15 0)
(2 1.12542e-15 0)
(2 6.41452e-16 0)
(2 5.55041e-16 0)
(2 6.43144e-16 0)
(2 7.38764e-16 0)
(2 7.37804e-16 0)
(2 7.08342e-16 0)
(2 6.41745e-16 0)
(2 4.92148e-16 0)
(2 1.37455e-17 0)
(2 6.5834e-17 0)
(2 1.13402e-16 0)
(2 1.4812e-16 0)
(2 2.0447e-16 0)
(2 2.68057e-16 0)
(2 2.4548e-16 0)
(2 2.02749e-16 0)
(2 1.44861e-16 0)
(2 -8.71276e-17 0)
(2 -2.83135e-16 0)
(2 -4.54262e-16 0)
(2 -7.51067e-16 0)
(2 -9.49894e-16 0)
(2 -8.44009e-16 0)
(2 -7.461e-16 0)
(2 -8.07254e-16 0)
(2 -8.31815e-16 0)
(2 -7.30642e-16 0)
(2 -3.96742e-16 0)
(2 -3.78362e-16 0)
(2 1.68709e-17 0)
(2 1.1863e-16 0)
(2 2.77942e-16 0)
(2 4.55323e-16 0)
(2 5.26677e-16 0)
(2 6.59793e-16 0)
(2 7.63085e-16 0)
(2 8.56779e-16 0)
(2 8.98608e-16 0)
(2 8.21277e-16 0)
(2 3.05927e-16 0)
(2 2.03994e-17 0)
(2 1.03076e-16 0)
(2 2.85334e-16 0)
(2 4.86075e-16 0)
(2 5.18915e-16 0)
(2 3.57292e-16 0)
(2 1.37108e-16 0)
(2 -3.40229e-18 0)
(2 -1.907e-16 0)
(2 7.2404e-17 0)
(2 5.92804e-16 0)
(2 1.05674e-15 0)
(2 1.17114e-15 0)
(2 1.35609e-15 0)
(2 1.44164e-15 0)
(2 1.30899e-15 0)
(2 1.60948e-15 0)
(2 1.92788e-15 0)
(2 1.99951e-15 0)
(2 1.50674e-15 0)
(2 1.1719e-15 0)
(2 1.08083e-15 0)
(2 1.26805e-15 0)
(2 1.41066e-15 0)
(2 1.53781e-15 0)
(2 1.75582e-15 0)
(2 1.7869e-15 0)
(2 1.71989e-15 0)
(2 1.57021e-15 0)
(2 1.32643e-15 0)
(2 1.33674e-15 0)
(2 1.51718e-15 0)
(2 1.62715e-15 0)
(2 1.75255e-15 0)
(2 1.76114e-15 0)
(2 1.47076e-15 0)
(2 1.25255e-15 0)
(2 1.16268e-15 0)
(2 7.34049e-16 0)
(2 5.34405e-16 0)
(2 4.27893e-16 0)
(2 2.045e-16 0)
(2 1.39198e-16 0)
(2 9.28147e-17 0)
(2 -6.18075e-17 0)
(2 -1.92441e-16 0)
(2 -3.10968e-16 0)
(2 -1.01024e-16 0)
(2 -2.40371e-17 0)
(2 -2.40599e-17 0)
(2 5.18883e-17 0)
(2 1.32306e-16 0)
(2 2.38302e-16 0)
(2 6.01723e-17 0)
(2 -1.0822e-16 0)
(2 -1.70083e-16 0)
(2 -7.55814e-17 0)
(2 -3.08883e-17 0)
(2 -2.11521e-19 0)
(2 -2.00222e-16 0)
(2 -8.88355e-16 0)
(2 -1.09109e-15 0)
(2 -1.40501e-15 0)
(2 -1.59458e-15 0)
(2 -1.37317e-15 0)
(2 -1.23765e-15 0)
(2 -1.14649e-15 0)
(2 -9.14367e-16 0)
(2 -7.53094e-16 0)
(2 -6.08535e-16 0)
(2 -6.48159e-16 0)
(2 -6.41412e-16 0)
(2 -5.72618e-16 0)
(2 -5.67727e-16 0)
(2 -2.91954e-16 0)
(2 -1.77633e-16 0)
(2 5.4514e-17 0)
(2 4.47949e-16 0)
(2 5.46132e-16 0)
(2 5.6676e-16 0)
(2 5.61424e-16 0)
(2 5.13386e-16 0)
(2 4.99054e-16 0)
(2 6.34593e-16 0)
(2 7.02925e-16 0)
(2 7.57508e-16 0)
(2 8.44852e-16 0)
(2 9.18807e-16 0)
(2 1.23843e-15 0)
(2 1.48202e-15 0)
(2 1.44952e-15 0)
(2 1.17665e-15 0)
(2 9.78871e-16 0)
(2 9.73843e-16 0)
(2 8.60212e-16 0)
(2 6.41142e-16 0)
(2 4.51896e-16 0)
(2 1.98993e-16 0)
(2 -1.00855e-16 0)
(2 -5.06195e-16 0)
(2 3.60551e-17 0)
(2 4.17527e-17 0)
(2 -1.35849e-17 0)
(2 -6.35827e-17 0)
(2 -6.89105e-18 0)
(2 4.72867e-17 0)
(2 9.25786e-17 0)
(2 4.56692e-17 0)
(2 1.13048e-16 0)
(2 6.62924e-17 0)
(2 -9.66475e-18 0)
(2 4.20487e-17 0)
(2 -4.69583e-17 0)
(2 -1.28752e-16 0)
(2 2.43428e-17 0)
(2 4.78437e-16 0)
(2 5.86013e-16 0)
(2 7.77627e-16 0)
(2 5.64192e-16 0)
(2 1.34112e-16 0)
(2 -3.31858e-17 0)
(2 -3.22033e-16 0)
(2 -4.97165e-16 0)
(2 -5.35486e-16 0)
(2 -5.12586e-16 0)
(2 -3.70971e-16 0)
(2 -7.0373e-17 0)
(2 3.18106e-16 0)
(2 5.16025e-16 0)
(2 4.70245e-16 0)
(2 3.31701e-16 0)
(2 3.31042e-16 0)
(2 4.30536e-16 0)
(2 5.17272e-16 0)
(2 7.02174e-16 0)
(2 6.14205e-16 0)
(2 7.92771e-16 0)
(2 1.1708e-15 0)
(2 1.33964e-15 0)
(2 1.46284e-15 0)
(2 1.39202e-15 0)
(2 1.42275e-15 0)
(2 1.45179e-15 0)
(2 1.46409e-15 0)
(2 1.46594e-15 0)
(2 1.47375e-15 0)
(2 1.33593e-15 0)
(2 1.20261e-15 0)
(2 1.25451e-15 0)
(2 8.98751e-16 0)
(2 8.69098e-16 0)
(2 6.34812e-16 0)
(2 2.58334e-16 0)
(2 -3.44625e-17 0)
(2 -5.32705e-16 0)
(2 -2.82959e-16 0)
(2 3.46091e-16 0)
(2 7.39255e-16 0)
(2 8.45928e-16 0)
(2 9.00066e-16 0)
(2 8.97736e-16 0)
(2 9.40247e-16 0)
(2 1.03428e-15 0)
(2 1.10097e-15 0)
(2 9.22876e-16 0)
(2 7.80741e-16 0)
(2 6.99942e-16 0)
(2 6.89319e-16 0)
(2 7.45441e-16 0)
(2 3.29191e-16 0)
(2 4.87224e-18 0)
(2 -1.51507e-16 0)
(2 -3.04371e-16 0)
(2 -3.55442e-16 0)
(2 -3.94776e-16 0)
(2 -3.00743e-16 0)
(2 -2.18476e-17 0)
(2 1.0575e-16 0)
(2 2.22629e-16 0)
(2 4.54848e-16 0)
(2 7.32272e-16 0)
(2 9.0627e-16 0)
(2 9.93239e-16 0)
(2 1.01199e-15 0)
(2 9.43518e-16 0)
(2 8.18776e-16 0)
(2 7.36997e-16 0)
(2 8.96684e-16 0)
(2 1.00076e-15 0)
(2 1.11008e-15 0)
(2 9.904e-16 0)
(2 6.64311e-16 0)
(2 9.80373e-17 0)
(2 3.57926e-17 0)
(2 -4.15647e-16 0)
(2 -8.68119e-16 0)
(2 -9.84637e-16 0)
(2 -8.63834e-16 0)
(2 -6.39184e-16 0)
(2 -2.62903e-16 0)
(2 -8.71344e-17 0)
(2 2.38881e-16 0)
(2 3.79241e-16 0)
(2 3.62844e-16 0)
(2 2.57731e-16 0)
(2 1.39535e-16 0)
(2 1.4431e-16 0)
(2 2.21986e-16 0)
(2 2.45525e-16 0)
(2 -2.92437e-17 0)
(2 -4.64306e-16 0)
(2 -4.9312e-16 0)
(2 -4.92718e-17 0)
(2 8.648e-18 0)
(2 -3.63787e-17 0)
(2 2.76669e-16 0)
(2 3.49699e-16 0)
(2 5.20656e-16 0)
(2 6.63823e-16 0)
(2 7.92161e-16 0)
(2 8.7287e-16 0)
(2 1.07904e-15 0)
(2 1.37866e-15 0)
(2 1.65804e-15 0)
(2 1.77538e-15 0)
(2 1.86082e-15 0)
(2 1.96721e-15 0)
(2 2.06337e-15 0)
(2 2.15294e-15 0)
(2 2.16752e-15 0)
(2 2.02927e-15 0)
(2 2.02726e-15 0)
(2 -2.06155e-17 0)
(2 -6.92887e-17 0)
(2 -1.15119e-16 0)
(2 -1.12393e-16 0)
(2 -1.18547e-16 0)
(2 -1.48305e-16 0)
(2 -8.24633e-17 0)
(2 5.99428e-17 0)
(2 2.77616e-16 0)
(2 4.58771e-16 0)
(2 5.01539e-16 0)
(2 5.47567e-16 0)
(2 7.20104e-16 0)
(2 7.21462e-16 0)
(2 4.51874e-16 0)
(2 1.50055e-16 0)
(2 3.58897e-17 0)
(2 1.5807e-16 0)
(2 4.28413e-16 0)
(2 4.88542e-16 0)
(2 3.67728e-16 0)
(2 1.27009e-16 0)
(2 -1.16801e-16 0)
(2 -2.71473e-16 0)
(2 -3.33464e-16 0)
(2 -4.49777e-16 0)
(2 -7.56127e-16 0)
(2 -1.08771e-15 0)
(2 -1.45338e-15 0)
(2 -1.53391e-15 0)
(2 -1.78893e-15 0)
(2 -1.01832e-15 0)
(2 -6.17896e-16 0)
(2 -4.34954e-16 0)
(2 -4.36998e-16 0)
(2 -4.22178e-16 0)
(2 -4.22729e-16 0)
(2 -3.66541e-16 0)
(2 -2.61405e-16 0)
(2 -1.79285e-16 0)
(2 -1.26702e-16 0)
(2 -6.5326e-17 0)
(2 2.50265e-17 0)
(2 4.45447e-16 0)
(2 7.00525e-16 0)
(2 2.01884e-16 0)
(2 6.41547e-17 0)
(2 -3.05881e-16 0)
(2 -6.81437e-16 0)
(2 -9.41551e-16 0)
(2 -1.25858e-15 0)
(2 -1.4792e-15 0)
(2 -1.34813e-15 0)
(2 -1.22253e-15 0)
(2 -1.27067e-15 0)
(2 -1.33273e-15 0)
(2 -1.25091e-15 0)
(2 -1.13572e-15 0)
(2 -1.0107e-15 0)
(2 -8.54793e-16 0)
(2 -7.40464e-16 0)
(2 -7.73543e-16 0)
(2 -8.72022e-16 0)
(2 -9.02074e-16 0)
(2 -1.17785e-15 0)
(2 -1.6617e-15 0)
(2 -1.69067e-15 0)
(2 -1.37326e-15 0)
(2 -1.15948e-15 0)
(2 -1.36827e-15 0)
(2 -1.34611e-15 0)
(2 -1.20869e-15 0)
(2 -1.06472e-15 0)
(2 -8.73759e-16 0)
(2 -7.87826e-16 0)
(2 -6.42386e-16 0)
(2 -3.54341e-16 0)
(2 -4.98439e-17 0)
(2 8.24826e-18 0)
(2 5.43016e-17 0)
(2 1.43642e-16 0)
(2 3.29855e-16 0)
(2 3.47796e-16 0)
(2 4.28015e-16 0)
(2 6.89694e-16 0)
(2 1.02805e-15 0)
(2 1.25947e-15 0)
(2 1.52449e-15 0)
(2 1.5779e-15 0)
(2 1.50001e-15 0)
(2 1.08939e-15 0)
(2 8.14459e-16 0)
(2 7.77022e-16 0)
(2 5.89931e-16 0)
(2 4.26651e-16 0)
(2 3.62944e-16 0)
(2 2.48596e-16 0)
(2 2.13963e-16 0)
(2 4.6168e-16 0)
(2 7.09108e-16 0)
(2 9.15025e-16 0)
(2 9.80607e-16 0)
(2 1.15244e-15 0)
(2 1.18308e-15 0)
(2 9.41076e-16 0)
(2 8.46271e-16 0)
(2 5.3958e-16 0)
(2 4.39541e-16 0)
(2 7.15001e-17 0)
(2 -7.84289e-16 0)
(2 -1.12075e-15 0)
(2 -1.01081e-15 0)
(2 -9.23468e-16 0)
(2 -8.25235e-16 0)
(2 -6.57334e-16 0)
(2 -5.89657e-16 0)
(2 -5.31473e-16 0)
(2 -4.9885e-16 0)
(2 -5.00821e-16 0)
(2 -4.19773e-16 0)
(2 -4.50707e-16 0)
(2 -5.73887e-16 0)
(2 -3.57734e-16 0)
(2 1.8847e-16 0)
(2 4.49374e-16 0)
(2 6.88447e-16 0)
(2 6.89687e-16 0)
(2 9.44622e-16 0)
(2 1.11984e-15 0)
(2 1.07448e-15 0)
(2 1.11648e-15 0)
(2 1.16374e-15 0)
(2 -1.5461e-17 0)
(2 8.48428e-17 0)
(2 1.21637e-16 0)
(2 1.82335e-16 0)
(2 1.5279e-16 0)
(2 1.26544e-16 0)
(2 9.27789e-17 0)
(2 1.45788e-16 0)
(2 8.63102e-17 0)
(2 1.20114e-17 0)
(2 1.45928e-18 0)
(2 -6.65524e-17 0)
(2 -1.57157e-16 0)
(2 -1.10858e-16 0)
(2 -1.2569e-16 0)
(2 -2.32748e-16 0)
(2 -4.47625e-16 0)
(2 -6.89805e-16 0)
(2 -8.10428e-16 0)
(2 -7.59445e-16 0)
(2 -7.21733e-16 0)
(2 -6.88637e-16 0)
(2 -7.21169e-16 0)
(2 -8.53369e-16 0)
(2 -1.06455e-15 0)
(2 -1.17697e-15 0)
(2 -1.13564e-15 0)
(2 -1.7708e-15 0)
(2 -1.87759e-15 0)
(2 -1.97038e-15 0)
(2 -2.02449e-15 0)
(2 -2.06917e-15 0)
(2 -2.09372e-15 0)
(2 -2.23754e-15 0)
(2 -2.36333e-15 0)
(2 -2.4614e-15 0)
(2 -2.57603e-15 0)
(2 -2.67436e-15 0)
(2 -2.63091e-15 0)
(2 -2.52921e-15 0)
(2 -2.36832e-15 0)
(2 -2.40548e-15 0)
(2 -2.59449e-15 0)
(2 -2.73139e-15 0)
(2 -2.51619e-15 0)
(2 -2.46548e-15 0)
(2 -2.37613e-15 0)
(2 -2.49657e-15 0)
(2 -2.52652e-15 0)
(2 -2.43562e-15 0)
(2 -2.13817e-15 0)
(2 -1.75804e-15 0)
(2 -1.269e-15 0)
(2 -1.2688e-15 0)
(2 -1.28432e-15 0)
(2 -1.44257e-15 0)
(2 -1.38317e-15 0)
(2 -1.19205e-15 0)
(2 -1.05836e-15 0)
(2 -1.12126e-15 0)
(2 -1.6252e-15 0)
(2 -2.31936e-15 0)
(2 -2.53703e-15 0)
(2 -2.675e-15 0)
(2 -2.64189e-15 0)
(2 -2.62005e-15 0)
(2 -2.61836e-15 0)
(2 -2.58053e-15 0)
(2 -2.49002e-15 0)
(2 -2.60026e-15 0)
(2 -2.2434e-15 0)
(2 -1.83651e-15 0)
(2 -1.18054e-15 0)
(2 -9.9938e-16 0)
(2 -7.38349e-16 0)
(2 -6.18439e-16 0)
(2 -3.67752e-16 0)
(2 -3.93659e-16 0)
(2 1.42076e-16 0)
(2 5.17913e-16 0)
(2 5.19293e-16 0)
(2 5.0684e-16 0)
(2 6.7428e-16 0)
(2 9.89384e-16 0)
(2 1.45973e-15 0)
(2 1.56211e-15 0)
(2 1.56528e-15 0)
(2 1.2869e-15 0)
(2 9.69307e-16 0)
(2 6.97548e-16 0)
(2 4.48584e-16 0)
(2 4.41812e-16 0)
(2 5.30901e-16 0)
(2 4.94828e-16 0)
(2 6.92599e-16 0)
(2 5.49257e-16 0)
(2 4.12309e-16 0)
(2 2.90897e-16 0)
(2 1.30723e-16 0)
(2 1.23685e-16 0)
(2 3.49464e-17 0)
(2 -4.1086e-17 0)
(2 1.88964e-17 0)
(2 1.68957e-16 0)
(2 1.39419e-17 0)
(2 -1.86216e-16 0)
(2 -6.66878e-16 0)
(2 -9.6552e-16 0)
(2 -9.30817e-16 0)
(2 -7.42865e-16 0)
(2 -5.92194e-16 0)
(2 -3.76272e-16 0)
(2 -3.5685e-16 0)
(2 -4.44862e-16 0)
(2 -6.65179e-16 0)
(2 -9.26017e-16 0)
(2 -9.99453e-16 0)
(2 -1.15654e-15 0)
(2 -1.41357e-15 0)
(2 -1.57374e-15 0)
(2 -1.58595e-15 0)
(2 -1.4806e-15 0)
(2 -1.29901e-15 0)
(2 -8.76325e-16 0)
(2 -3.9465e-16 0)
(2 -5.99391e-17 0)
(2 7.37186e-17 0)
(2 1.3423e-16 0)
(2 1.26247e-16 0)
(2 1.13404e-16 0)
(2 1.75457e-16 0)
(2 2.39066e-16 0)
(2 -1.25534e-17 0)
(2 -1.03389e-16 0)
(2 -1.58237e-16 0)
(2 -1.95891e-16 0)
(2 -1.62256e-16 0)
(2 -1.38197e-16 0)
(2 -1.86642e-16 0)
(2 -3.00382e-16 0)
(2 -4.05503e-16 0)
(2 -6.83208e-16 0)
(2 -7.72465e-16 0)
(2 -8.78374e-16 0)
(2 -1.02401e-15 0)
(2 -1.08684e-15 0)
(2 -9.83809e-16 0)
(2 -8.60803e-16 0)
(2 -6.79603e-16 0)
(2 -7.95315e-16 0)
(2 -1.31732e-15 0)
(2 -1.48172e-15 0)
(2 -1.58645e-15 0)
(2 -1.73973e-15 0)
(2 -1.76209e-15 0)
(2 -1.72189e-15 0)
(2 -1.66696e-15 0)
(2 -1.66323e-15 0)
(2 -1.61825e-15 0)
(2 -1.49765e-15 0)
(2 -1.39326e-15 0)
(2 -1.33131e-15 0)
(2 -1.35275e-15 0)
(2 -1.46129e-15 0)
(2 -1.48543e-15 0)
(2 -1.40773e-15 0)
(2 -1.38244e-15 0)
(2 -1.94041e-15 0)
(2 -2.09217e-15 0)
(2 -2.33383e-15 0)
(2 -2.40261e-15 0)
(2 -2.6014e-15 0)
(2 -2.70746e-15 0)
(2 -2.81933e-15 0)
(2 -3.32138e-15 0)
(2 -3.96187e-15 0)
(2 -4.51605e-15 0)
(2 -4.91872e-15 0)
(2 -4.76541e-15 0)
(2 -3.69921e-15 0)
(2 -3.45605e-15 0)
(2 -3.05456e-15 0)
(2 -2.62941e-15 0)
(2 -2.39266e-15 0)
(2 -1.94979e-15 0)
(2 -1.60396e-15 0)
(2 -1.62802e-15 0)
(2 -1.6869e-15 0)
(2 -1.86231e-15 0)
(2 -2.08625e-15 0)
(2 -2.24484e-15 0)
(2 -2.12287e-15 0)
(2 -2.27354e-15 0)
(2 -2.83765e-15 0)
(2 -2.85999e-15 0)
(2 -2.80271e-15 0)
(2 -2.64037e-15 0)
(2 -2.50641e-15 0)
(2 -2.28906e-15 0)
(2 -2.13836e-15 0)
(2 -1.99403e-15 0)
(2 -1.84244e-15 0)
(2 -1.73367e-15 0)
(2 -1.57781e-15 0)
(2 -1.60929e-15 0)
(2 -1.50287e-15 0)
(2 -1.24536e-15 0)
(2 -1.17296e-15 0)
(2 -1.07652e-15 0)
(2 -1.01183e-15 0)
(2 -8.22684e-16 0)
(2 -5.21264e-16 0)
(2 -7.00925e-17 0)
(2 3.45998e-17 0)
(2 4.93048e-18 0)
(2 1.27991e-17 0)
(2 1.31744e-16 0)
(2 2.59464e-16 0)
(2 2.43669e-16 0)
(2 1.87946e-16 0)
(2 5.01718e-16 0)
(2 5.52939e-16 0)
(2 7.67666e-16 0)
(2 7.2829e-16 0)
(2 5.90192e-16 0)
(2 6.56792e-16 0)
(2 6.08221e-16 0)
(2 2.77908e-16 0)
(2 8.96255e-17 0)
(2 -2.10728e-16 0)
(2 -4.54009e-16 0)
(2 -5.34073e-16 0)
(2 -5.11404e-16 0)
(2 -7.16178e-16 0)
(2 -9.11845e-16 0)
(2 -9.54181e-16 0)
(2 -8.02769e-16 0)
(2 2.39315e-16 0)
(2 5.51359e-16 0)
(2 6.13735e-16 0)
(2 9.10524e-16 0)
(2 8.32089e-16 0)
(2 7.50987e-16 0)
(2 8.23387e-16 0)
(2 8.20177e-16 0)
(2 5.82053e-16 0)
(2 5.99957e-16 0)
(2 5.25523e-16 0)
(2 1.8459e-16 0)
(2 1.61939e-16 0)
(2 5.8142e-18 0)
(2 -5.70864e-17 0)
(2 -1.47992e-16 0)
(2 1.78471e-17 0)
(2 7.88342e-17 0)
(2 2.58051e-16 0)
(2 3.56314e-16 0)
(2 4.7212e-16 0)
(2 5.79532e-16 0)
(2 5.99477e-16 0)
(2 5.8907e-16 0)
(2 5.1989e-16 0)
(2 4.70488e-16 0)
(2 3.98446e-16 0)
(2 -2.87588e-18 0)
(2 -5.44291e-17 0)
(2 -6.1294e-17 0)
(2 5.03334e-18 0)
(2 2.00616e-17 0)
(2 3.60863e-17 0)
(2 1.71863e-16 0)
(2 2.31561e-16 0)
(2 2.4913e-16 0)
(2 5.05189e-16 0)
(2 5.87038e-16 0)
(2 5.91021e-16 0)
(2 5.8896e-16 0)
(2 3.1614e-16 0)
(2 1.88801e-16 0)
(2 3.02007e-16 0)
(2 3.88314e-16 0)
(2 -2.36943e-16 0)
(2 -3.48974e-16 0)
(2 -4.13943e-16 0)
(2 -4.00937e-16 0)
(2 -3.28591e-16 0)
(2 -3.13565e-16 0)
(2 -4.11018e-16 0)
(2 -4.24392e-16 0)
(2 -4.57331e-16 0)
(2 -4.46367e-16 0)
(2 -3.16518e-16 0)
(2 -1.95316e-16 0)
(2 -1.76264e-16 0)
(2 -1.36743e-16 0)
(2 5.44664e-17 0)
(2 1.58673e-16 0)
(2 2.75575e-16 0)
(2 3.00289e-16 0)
(2 2.42983e-16 0)
(2 2.63555e-17 0)
(2 -1.82332e-16 0)
(2 -2.3835e-16 0)
(2 -9.08297e-16 0)
(2 -1.2308e-15 0)
(2 -1.19938e-15 0)
(2 -1.40682e-15 0)
(2 -1.58885e-15 0)
(2 -2.15639e-15 0)
(2 -2.68408e-15 0)
(2 -2.78558e-15 0)
(2 -2.80582e-15 0)
(2 -2.68212e-15 0)
(2 -2.25946e-15 0)
(2 -2.12548e-15 0)
(2 -2.10166e-15 0)
(2 -2.15245e-15 0)
(2 -2.08601e-15 0)
(2 -1.99666e-15 0)
(2 -1.86203e-15 0)
(2 -1.91972e-15 0)
(2 -1.62034e-15 0)
(2 -1.43216e-15 0)
(2 -1.55655e-15 0)
(2 -1.62522e-15 0)
(2 -1.75366e-15 0)
(2 -1.93458e-15 0)
(2 -2.02828e-15 0)
(2 -2.19369e-15 0)
(2 -2.27534e-15 0)
(2 -2.34175e-15 0)
(2 -2.25599e-15 0)
(2 -2.18414e-15 0)
(2 -2.20794e-15 0)
(2 -2.40607e-15 0)
(2 -2.73876e-15 0)
(2 -2.414e-15 0)
(2 -1.8791e-15 0)
(2 -1.25374e-15 0)
(2 -1.33309e-15 0)
(2 -1.51175e-15 0)
(2 -1.53653e-15 0)
(2 -8.77565e-16 0)
(2 -6.57032e-16 0)
(2 -5.33909e-16 0)
(2 -4.34761e-16 0)
(2 -3.59772e-16 0)
(2 -2.47677e-16 0)
(2 3.4324e-17 0)
(2 2.74704e-17 0)
(2 -3.6507e-17 0)
(2 -6.5137e-17 0)
(2 1.66637e-16 0)
(2 2.17788e-16 0)
(2 2.63088e-16 0)
(2 2.36555e-16 0)
(2 1.90713e-16 0)
(2 2.74842e-17 0)
(2 -1.6152e-16 0)
(2 -2.1443e-16 0)
(2 -2.20667e-16 0)
(2 -1.54043e-16 0)
(2 -1.34438e-16 0)
(2 -5.00734e-16 0)
(2 -7.07319e-16 0)
(2 -8.61772e-16 0)
(2 -6.13989e-16 0)
(2 -6.87214e-16 0)
(2 -1.36214e-16 0)
(2 2.0907e-16 0)
(2 7.3064e-16 0)
(2 9.36281e-16 0)
(2 9.3394e-16 0)
(2 1.0212e-15 0)
(2 7.47051e-16 0)
(2 4.4946e-16 0)
(2 3.25369e-16 0)
(2 4.99615e-16 0)
(2 5.38555e-16 0)
(2 5.10655e-16 0)
(2 4.96231e-16 0)
(2 6.43611e-16 0)
(2 7.25691e-16 0)
(2 7.30197e-16 0)
(2 8.10312e-16 0)
(2 7.21653e-16 0)
(2 4.17704e-16 0)
(2 2.48453e-16 0)
(2 1.15744e-16 0)
(2 1.11287e-16 0)
(2 1.71291e-16 0)
(2 2.63341e-16 0)
(2 2.9037e-16 0)
(2 2.88541e-16 0)
(2 2.27136e-16 0)
(2 8.21644e-17 0)
(2 1.88758e-17 0)
(2 1.01373e-16 0)
(2 1.87261e-16 0)
(2 2.30153e-16 0)
(2 2.54817e-16 0)
(2 1.86659e-16 0)
(2 3.09488e-16 0)
(2 3.66119e-16 0)
(2 3.62804e-16 0)
(2 3.74778e-16 0)
(2 3.84581e-16 0)
(2 4.35104e-16 0)
(2 4.6082e-16 0)
(2 5.13846e-16 0)
(2 5.89537e-16 0)
(2 6.99652e-16 0)
(2 7.25185e-16 0)
(2 8.07893e-16 0)
(2 8.38466e-16 0)
(2 9.01971e-16 0)
(2 1.25196e-15 0)
(2 1.29573e-15 0)
(2 1.1546e-15 0)
(2 1.00898e-15 0)
(2 7.2797e-16 0)
(2 5.72466e-16 0)
(2 4.05605e-16 0)
(2 3.17997e-16 0)
(2 2.52209e-16 0)
(2 1.52919e-16 0)
(2 1.21022e-16 0)
(2 2.60086e-16 0)
(2 3.55859e-16 0)
(2 5.17939e-16 0)
(2 5.47053e-16 0)
(2 6.35024e-16 0)
(2 7.40367e-16 0)
(2 8.92816e-17 0)
(2 2.02315e-17 0)
(2 -1.9571e-16 0)
(2 -3.32182e-16 0)
(2 -5.82709e-16 0)
(2 -8.60455e-16 0)
(2 -1.05552e-15 0)
(2 -1.19665e-15 0)
(2 -1.22546e-15 0)
(2 -1.07327e-15 0)
(2 -9.82722e-16 0)
(2 -9.10966e-16 0)
(2 -1.2478e-15 0)
(2 -1.25799e-15 0)
(2 -1.44403e-15 0)
(2 -1.54857e-15 0)
(2 -1.34275e-15 0)
(2 -1.42724e-15 0)
(2 -1.27212e-15 0)
(2 -1.19873e-15 0)
(2 -8.67852e-16 0)
(2 -5.87317e-16 0)
(2 -4.77465e-16 0)
(2 -2.82471e-16 0)
(2 -7.45108e-17 0)
(2 1.77225e-16 0)
(2 2.9418e-16 0)
(2 3.10753e-16 0)
(2 2.50535e-16 0)
(2 3.48225e-16 0)
(2 3.53932e-16 0)
(2 1.99002e-16 0)
(2 -1.63302e-17 0)
(2 -2.80266e-16 0)
(2 -7.57419e-16 0)
(2 -8.61647e-16 0)
(2 -1.22359e-15 0)
(2 -1.38081e-15 0)
(2 -1.59585e-15 0)
(2 -1.45563e-15 0)
(2 -1.2914e-15 0)
(2 -1.19507e-15 0)
(2 -1.39499e-15 0)
(2 -1.90081e-15 0)
(2 -1.32004e-15 0)
(2 -8.54336e-16 0)
(2 -6.84153e-16 0)
(2 -1.04143e-15 0)
(2 -1.4692e-15 0)
(2 -1.55683e-15 0)
(2 -1.47042e-15 0)
(2 -1.41594e-15 0)
(2 -1.28536e-15 0)
(2 -1.24454e-15 0)
(2 -1.2031e-15 0)
(2 -1.14361e-15 0)
(2 -1.04205e-15 0)
(2 -8.99213e-16 0)
(2 -8.16627e-16 0)
(2 -7.94422e-16 0)
(2 -8.51187e-16 0)
(2 -9.51192e-16 0)
(2 -1.13805e-15 0)
(2 -1.3237e-15 0)
(2 -1.55617e-15 0)
(2 -1.5734e-15 0)
(2 -1.47125e-15 0)
(2 -1.5388e-15 0)
(2 -1.44462e-15 0)
(2 -1.19484e-15 0)
(2 -1.11685e-15 0)