/*--------------------------------*- C++ -*----------------------------------*\
  =========                 |
  \\      /  F ield         | OpenFOAM: The Open Source CFD Toolbox
   \\    /   O peration     | Website:  https://openfoam.org
    \\  /    A nd           | Version:  7
     \\/     M anipulation  |
\*---------------------------------------------------------------------------*/
FoamFile
{
    version     2.0;
    format      ascii;
    class       volScalarField;
    location    "10";
    object      p;
}
// * * * * * * * * * * * * * * * * * * * * * * * * * * * * * * * * * * * * * //

dimensions      [0 2 -2 0 0 0 0];

internalField   nonuniform List<scalar> 
15200
(
-0.306021
-0.323124
-0.393738
-0.498604
-0.47381
-0.323453
-0.179066
-0.0733682
-0.0135582
0.0169398
0.0298972
0.0323549
0.0315117
0.0278063
0.0241878
-0.307233
-0.323277
-0.394581
-0.50279
-0.480531
-0.32964
-0.183172
-0.0765483
-0.016266
0.014661
0.0279429
0.0306884
0.0300173
0.026566
0.0230474
-0.309571
-0.323515
-0.396077
-0.51035
-0.492522
-0.340937
-0.190997
-0.082928
-0.021672
0.00991629
0.0237985
0.0272305
0.0269326
0.0240531
0.0208028
-0.312872
-0.32371
-0.397886
-0.519852
-0.507525
-0.355339
-0.201748
-0.0921362
-0.0297146
0.00272718
0.0174756
0.0220078
0.0223787
0.0203919
0.0176772
-0.316915
-0.323705
-0.399581
-0.52952
-0.523352
-0.369918
-0.214308
-0.103415
-0.0398836
-0.00646006
0.00944275
0.015409
0.0168024
0.0159351
0.014011
-0.321444
-0.323339
-0.40071
-0.537449
-0.536499
-0.382179
-0.227064
-0.115697
-0.0513134
-0.0168533
0.000422515
0.00802008
0.0107035
0.0110731
0.0100883
-0.326187
-0.322472
-0.400842
-0.541903
-0.545249
-0.390824
-0.23827
-0.127837
-0.0630631
-0.0276233
-0.00889357
0.000375069
0.0044723
0.00610734
0.00609599
-0.330889
-0.32101
-0.399633
-0.541628
-0.54873
-0.394906
-0.246788
-0.138879
-0.0743398
-0.0380974
-0.0179787
-0.00713778
-0.00162852
0.00123037
0.00215104
-0.335328
-0.318932
-0.396931
-0.535633
-0.546177
-0.394336
-0.252156
-0.148206
-0.0846013
-0.0478268
-0.0265001
-0.0142782
-0.00744112
-0.0034549
-0.00166576
-0.339338
-0.316359
-0.391876
-0.524194
-0.537167
-0.389507
-0.254446
-0.155553
-0.0935507
-0.0565669
-0.0342824
-0.0209141
-0.0128797
-0.0078967
-0.00529435
-0.34283
-0.313337
-0.384335
-0.508344
-0.521891
-0.38107
-0.254064
-0.160922
-0.101079
-0.0642196
-0.0412555
-0.0269779
-0.0179027
-0.0120614
-0.00870781
-0.345799
-0.310115
-0.374579
-0.490379
-0.501513
-0.369814
-0.251554
-0.164482
-0.107201
-0.070777
-0.0474094
-0.0324404
-0.0224886
-0.0159259
-0.0118983
-0.3483
-0.307096
-0.363074
-0.472263
-0.477941
-0.356562
-0.247442
-0.166483
-0.112002
-0.0762806
-0.0527661
-0.0372947
-0.026627
-0.0194808
-0.014847
-0.350399
-0.304706
-0.350365
-0.454786
-0.453043
-0.342072
-0.242165
-0.16718
-0.115604
-0.0807995
-0.0573648
-0.0415467
-0.0303201
-0.0227206
-0.0175345
-0.352328
-0.303073
-0.337256
-0.437396
-0.42815
-0.326979
-0.236063
-0.166805
-0.11814
-0.0844164
-0.0612517
-0.0452139
-0.0335817
-0.025638
-0.0199409
-0.354123
-0.30199
-0.324557
-0.419191
-0.404062
-0.311789
-0.229396
-0.165552
-0.119742
-0.0872188
-0.064474
-0.0483244
-0.0364359
-0.0282207
-0.0220359
-0.355496
-0.301318
-0.312914
-0.399944
-0.381224
-0.296874
-0.222363
-0.163576
-0.120532
-0.0892916
-0.067077
-0.050916
-0.0389148
-0.0304553
-0.023781
-0.355879
-0.301312
-0.302489
-0.380075
-0.359839
-0.282481
-0.215117
-0.161006
-0.12062
-0.0907129
-0.0691039
-0.0530327
-0.0410498
-0.0323345
-0.0251715
-0.354636
-0.302707
-0.293097
-0.360176
-0.339948
-0.268745
-0.207778
-0.157945
-0.120099
-0.0915512
-0.0705972
-0.0547205
-0.042859
-0.0338606
-0.026319
-0.351378
-0.30642
-0.284629
-0.340718
-0.321488
-0.255721
-0.200432
-0.154482
-0.119055
-0.0918661
-0.0716008
-0.0560224
-0.0443348
-0.0350695
-0.0275065
-0.346062
-0.313034
-0.277217
-0.322002
-0.304337
-0.243406
-0.193138
-0.150691
-0.117556
-0.0917093
-0.0721609
-0.0569707
-0.0454641
-0.0360598
-0.0288949
-0.338791
-0.322278
-0.271082
-0.304199
-0.288335
-0.231756
-0.185931
-0.146636
-0.115665
-0.0911276
-0.0723222
-0.0575833
-0.0462711
-0.0369606
-0.0300214
-0.329562
-0.332651
-0.266304
-0.287377
-0.273316
-0.220705
-0.178831
-0.142367
-0.113434
-0.0901648
-0.0721246
-0.0578756
-0.0467998
-0.037687
-0.0308305
-0.318249
-0.341409
-0.262701
-0.271523
-0.259144
-0.210181
-0.171847
-0.137929
-0.110909
-0.0888614
-0.0716024
-0.0578685
-0.0470645
-0.0381928
-0.0314255
-0.30484
-0.345235
-0.25984
-0.256583
-0.245732
-0.200114
-0.164977
-0.133356
-0.108128
-0.0872545
-0.0707864
-0.0575786
-0.0470825
-0.0384723
-0.031794
-0.289823
-0.341549
-0.257149
-0.24253
-0.233014
-0.190446
-0.158218
-0.128676
-0.105125
-0.0853783
-0.0697029
-0.0570265
-0.0468651
-0.0385233
-0.0319743
-0.274448
-0.329724
-0.254082
-0.229373
-0.220942
-0.181131
-0.151563
-0.123912
-0.101929
-0.0832631
-0.0683757
-0.0562299
-0.0464244
-0.0383667
-0.0319613
-0.260543
-0.311345
-0.250267
-0.217109
-0.209481
-0.172128
-0.145002
-0.119079
-0.0985649
-0.0809357
-0.0668255
-0.0552078
-0.0457761
-0.038011
-0.0317706
-0.249889
-0.289334
-0.245569
-0.205656
-0.198594
-0.163405
-0.138527
-0.11419
-0.0950555
-0.0784191
-0.0650714
-0.0539786
-0.044934
-0.0374746
-0.0314068
-0.243602
-0.266593
-0.240029
-0.194869
-0.188239
-0.154935
-0.132129
-0.109254
-0.0914197
-0.0757337
-0.063131
-0.0525601
-0.0439154
-0.0367658
-0.0308804
-0.24194
-0.245088
-0.233775
-0.184611
-0.178362
-0.146693
-0.125802
-0.104279
-0.0876739
-0.0728971
-0.0610208
-0.0509696
-0.0427334
-0.0358974
-0.030201
-0.24454
-0.225701
-0.226998
-0.174774
-0.168908
-0.138655
-0.119539
-0.0992688
-0.0838319
-0.0699247
-0.0587555
-0.0492227
-0.0414024
-0.0348779
-0.0293801
-0.250754
-0.208614
-0.219867
-0.16527
-0.159821
-0.130798
-0.113336
-0.0942282
-0.0799056
-0.0668298
-0.0563493
-0.0473345
-0.0399335
-0.0337198
-0.0284318
-0.259842
-0.193676
-0.212506
-0.15603
-0.151051
-0.123097
-0.107187
-0.0891603
-0.0759044
-0.0636247
-0.0538156
-0.045318
-0.0383391
-0.0324341
-0.0273709
-0.271062
-0.180614
-0.204996
-0.146994
-0.142552
-0.115528
-0.101085
-0.0840684
-0.0718355
-0.0603202
-0.0511677
-0.0431851
-0.0366281
-0.0310338
-0.0262156
-0.283704
-0.169119
-0.197385
-0.138108
-0.134281
-0.108072
-0.0950217
-0.0789556
-0.067705
-0.0569269
-0.0484178
-0.0409453
-0.0348085
-0.0295291
-0.0249807
-0.297092
-0.158883
-0.189695
-0.129323
-0.126194
-0.100714
-0.0889893
-0.0738219
-0.0635205
-0.0534529
-0.0455775
-0.0386063
-0.032887
-0.0279284
-0.0236717
-0.310604
-0.149605
-0.181933
-0.120596
-0.118246
-0.0934411
-0.0829898
-0.068656
-0.0592993
-0.0499004
-0.0426573
-0.0361748
-0.0308727
-0.0262361
-0.0222819
-0.323668
-0.140999
-0.174088
-0.111892
-0.110399
-0.0862167
-0.0770515
-0.0634264
-0.0550756
-0.0462614
-0.0396685
-0.0336585
-0.0287758
-0.0244557
-0.0208009
-0.335772
-0.1328
-0.166132
-0.103171
-0.102656
-0.0789575
-0.0712393
-0.0580838
-0.0508949
-0.0425227
-0.0366206
-0.0310674
-0.0266061
-0.0225906
-0.0192256
-0.346464
-0.124772
-0.15802
-0.0943617
-0.0950978
-0.0715275
-0.0656313
-0.0525973
-0.0467741
-0.0386925
-0.0335135
-0.028417
-0.0243646
-0.0206474
-0.0175718
-0.355358
-0.116709
-0.149721
-0.0853224
-0.0878777
-0.0638104
-0.0602289
-0.0470296
-0.0426315
-0.0348445
-0.0303291
-0.0257273
-0.0220447
-0.0186357
-0.0158725
-0.362127
-0.10841
-0.141294
-0.0758614
-0.0810918
-0.0558729
-0.0548357
-0.0415848
-0.0382687
-0.0311089
-0.0270605
-0.0229971
-0.0196543
-0.0165679
-0.0141268
-0.366499
-0.0996153
-0.132943
-0.0658775
-0.0745238
-0.0480997
-0.0491
-0.0364094
-0.0337153
-0.0274263
-0.0237541
-0.020212
-0.0172097
-0.014454
-0.0123323
-0.368252
-0.0899783
-0.124913
-0.0555859
-0.0675205
-0.0408426
-0.0430254
-0.0314336
-0.0290601
-0.0237357
-0.0204417
-0.0173729
-0.0147231
-0.0123022
-0.0104901
-0.367219
-0.0792102
-0.117095
-0.0454549
-0.0598762
-0.0340073
-0.036718
-0.0265596
-0.024383
-0.0200018
-0.0171317
-0.0144935
-0.0122039
-0.0101184
-0.00860615
-0.363322
-0.0674694
-0.108628
-0.0359097
-0.0516965
-0.0274483
-0.0302894
-0.0217078
-0.0197356
-0.0162174
-0.0138196
-0.0115898
-0.00966189
-0.00790947
-0.00668927
-0.356614
-0.0555159
-0.0987977
-0.0268423
-0.0431232
-0.021037
-0.0238271
-0.0168285
-0.0151417
-0.012394
-0.0105003
-0.00867385
-0.00710711
-0.00568342
-0.00474973
-0.347228
-0.0431189
-0.0877694
-0.018066
-0.0342832
-0.0146787
-0.0173916
-0.0118998
-0.0106049
-0.00855108
-0.00717337
-0.00575335
-0.00454841
-0.00344777
-0.00279592
-0.335127
-0.0302151
-0.0757495
-0.00942515
-0.0252774
-0.00830947
-0.0110189
-0.0069213
-0.00611922
-0.00470759
-0.00384337
-0.00283397
-0.00199169
-0.00120668
-0.000831217
-0.319848
-0.0170956
-0.0629226
-0.000807584
-0.0161834
-0.00189229
-0.00472693
-0.00190577
-0.00167686
-0.000878682
-0.000518332
7.85539e-05
0.000559217
0.00103785
0.00114603
-0.301178
-0.00390896
-0.0494353
0.00786578
-0.00705929
0.00458915
0.00147831
0.00312734
0.00272687
0.00292474
0.00279236
0.00297726
0.00309876
0.00328009
0.00313592
-0.279407
0.00951568
-0.0354115
0.0166461
0.00205193
0.0111352
0.00759725
0.00815707
0.00709226
0.0066949
0.0060799
0.00585434
0.00561748
0.00550481
0.00512375
-0.254812
0.0232953
-0.0209597
0.0255624
0.0111183
0.0177354
0.0136323
0.0131637
0.0114156
0.0104258
0.00933715
0.00870278
0.0081039
0.00768835
0.00706476
-0.227668
0.0374975
-0.00617735
0.0346248
0.0201155
0.0243715
0.019585
0.0181297
0.0156906
0.0141123
0.0125585
0.0115173
0.0105481
0.00980457
0.00888557
-0.198251
0.052147
0.00884608
0.0438288
0.0290242
0.0310212
0.0254542
0.0230401
0.0199092
0.0177488
0.0157386
0.0142924
0.0129393
0.011826
0.0105267
-0.166846
0.0672386
0.0240271
0.0531571
0.0378275
0.0376595
0.0312358
0.0278816
0.0240628
0.0213294
0.0188707
0.0170188
0.015261
0.0137248
0.012007
-0.133746
0.0827431
0.0392865
0.062583
0.0465095
0.0442606
0.0369228
0.032642
0.0281427
0.0248474
0.0219462
0.0196825
0.0174936
0.0154992
0.013458
-0.0992541
0.0986119
0.0545486
0.0720717
0.0550538
0.0507984
0.0425055
0.03731
0.0321401
0.028295
0.0249546
0.0222679
0.019631
0.017211
0.0150633
-0.0636747
0.114781
0.0697399
0.0815829
0.063443
0.0572473
0.047972
0.0418744
0.0360459
0.0316633
0.0278838
0.0247636
0.0216873
0.0189454
0.0169359
-0.0273178
0.131172
0.0847887
0.0910716
0.0716577
0.0635822
0.0533093
0.0463242
0.0398507
0.0349421
0.0307224
0.0271653
0.0236836
0.0207193
0.0191144
0.00950673
0.147697
0.0996248
0.10049
0.0796771
0.0697785
0.0585031
0.0506479
0.0435444
0.0381205
0.0334616
0.0294761
0.0256459
0.0225769
0.0211753
0.0464903
0.164258
0.114179
0.109788
0.0874784
0.0758125
0.0635386
0.0548339
0.0471167
0.0411881
0.0360955
0.0317053
0.0275946
0.0244766
0.0230387
0.0833283
0.180752
0.128384
0.118915
0.0950376
0.081661
0.0684007
0.0588703
0.0505567
0.0441353
0.0386201
0.0338568
0.0295192
0.0263428
0.0247472
0.119722
0.197068
0.142171
0.127819
0.102329
0.0873015
0.0730741
0.062745
0.053854
0.0469539
0.0410331
0.0359324
0.031404
0.0281351
0.0263209
0.155382
0.213093
0.155476
0.136451
0.109328
0.0927119
0.0775436
0.0664459
0.0569983
0.0496365
0.0433312
0.0379254
0.0332263
0.0298374
0.027784
0.190028
0.228713
0.168234
0.14476
0.116006
0.0978712
0.0817941
0.0699611
0.0599801
0.0521772
0.0455116
0.0398298
0.0349701
0.03144
0.0291424
0.223391
0.243812
0.180381
0.152699
0.122339
0.102759
0.0858108
0.0732787
0.06279
0.0545688
0.0475677
0.0416351
0.0366231
0.032943
0.0304011
0.255218
0.258276
0.191858
0.16022
0.128299
0.107354
0.0895796
0.0763878
0.0654198
0.0568063
0.0494949
0.0433327
0.0381742
0.0343417
0.0315607
0.285268
0.271992
0.202607
0.167281
0.133863
0.11164
0.0930867
0.0792775
0.0678612
0.0588828
0.0512865
0.0449155
0.0396182
0.0356349
0.0326207
0.31332
0.284852
0.21257
0.173839
0.139004
0.115597
0.0963191
0.081938
0.070107
0.0607924
0.0529361
0.0463753
0.0409485
0.0368198
0.0335808
0.339168
0.296753
0.221697
0.179857
0.143702
0.119208
0.0992648
0.0843601
0.0721499
0.0625295
0.0544384
0.0477069
0.0421607
0.0378935
0.0344405
0.362633
0.307593
0.229938
0.185298
0.147934
0.12246
0.101913
0.0865352
0.0739833
0.0640883
0.0557875
0.0489045
0.0432505
0.0388538
0.0352
0.383546
0.317283
0.237249
0.190131
0.151682
0.125336
0.104252
0.0884558
0.0756014
0.0654639
0.0569788
0.0499635
0.0442139
0.0396984
0.0358598
0.40176
0.325742
0.243591
0.194328
0.154927
0.127826
0.106275
0.0901151
0.0769987
0.0666517
0.0580081
0.0508795
0.0450474
0.0404255
0.0364207
0.417144
0.3329
0.24893
0.197863
0.157656
0.129917
0.107973
0.0915072
0.0781705
0.0676477
0.0588715
0.0516489
0.0457477
0.0410337
0.0368841
0.429586
0.338699
0.253236
0.200716
0.159854
0.131601
0.10934
0.0926269
0.0791128
0.0684485
0.0595661
0.0522684
0.0463117
0.0415214
0.0372515
0.438998
0.34309
0.256486
0.202871
0.161512
0.132871
0.110369
0.0934703
0.0798224
0.0690515
0.0600892
0.0527355
0.0467371
0.0418879
0.0375248
0.44531
0.346037
0.258663
0.204314
0.162621
0.133721
0.111058
0.0940343
0.0802968
0.0694547
0.060439
0.053048
0.0470218
0.0421323
0.0377057
0.448478
0.347517
0.259755
0.205038
0.163178
0.134146
0.111403
0.0943168
0.0805344
0.0696566
0.0606142
0.0532046
0.0471645
0.0422545
0.0377957
0.448478
0.347517
0.259755
0.205038
0.163178
0.134146
0.111403
0.0943168
0.0805344
0.0696566
0.0606142
0.0532046
0.0471645
0.0422545
0.0377957
0.44531
0.346037
0.258663
0.204314
0.162621
0.133721
0.111058
0.0940343
0.0802967
0.0694547
0.0604389
0.053048
0.0470218
0.0421323
0.0377057
0.438998
0.34309
0.256486
0.202871
0.161512
0.132871
0.110369
0.0934703
0.0798223
0.0690515
0.0600891
0.0527354
0.0467371
0.0418878
0.0375248
0.429586
0.338698
0.253236
0.200716
0.159854
0.131601
0.10934
0.0926269
0.0791127
0.0684485
0.059566
0.0522684
0.0463117
0.0415214
0.0372515
0.417144
0.3329
0.24893
0.197863
0.157656
0.129917
0.107973
0.0915071
0.0781704
0.0676476
0.0588715
0.0516489
0.0457476
0.0410336
0.036884
0.40176
0.325742
0.243591
0.194327
0.154927
0.127826
0.106275
0.090115
0.0769986
0.0666516
0.058008
0.0508795
0.0450474
0.0404255
0.0364207
0.383546
0.317283
0.237249
0.190131
0.151682
0.125336
0.104252
0.0884557
0.0756013
0.0654638
0.0569787
0.0499634
0.0442139
0.0396983
0.0358597
0.362632
0.307593
0.229937
0.185298
0.147934
0.12246
0.101912
0.086535
0.0739832
0.0640882
0.0557874
0.0489044
0.0432505
0.0388537
0.0352
0.339168
0.296752
0.221696
0.179856
0.143702
0.119208
0.0992646
0.0843599
0.0721498
0.0625294
0.0544383
0.0477068
0.0421606
0.0378934
0.0344405
0.313319
0.284852
0.21257
0.173839
0.139004
0.115596
0.0963189
0.0819379
0.0701068
0.0607922
0.052936
0.0463752
0.0409484
0.0368197
0.0335807
0.285268
0.271991
0.202606
0.167281
0.133862
0.111639
0.0930864
0.0792773
0.0678611
0.0588826
0.0512864
0.0449154
0.0396181
0.0356348
0.0326206
0.255217
0.258275
0.191858
0.16022
0.128299
0.107354
0.0895794
0.0763876
0.0654196
0.0568061
0.0494948
0.0433326
0.0381741
0.0343416
0.0315606
0.22339
0.243812
0.180381
0.152698
0.122339
0.102758
0.0858106
0.0732785
0.0627898
0.0545687
0.0475676
0.041635
0.036623
0.0329429
0.030401
0.190027
0.228713
0.168233
0.14476
0.116006
0.0978709
0.0817938
0.0699608
0.0599799
0.052177
0.0455114
0.0398297
0.03497
0.0314399
0.0291423
0.155381
0.213093
0.155475
0.136451
0.109327
0.0927116
0.0775433
0.0664457
0.0569981
0.0496364
0.043331
0.0379252
0.0332261
0.0298372
0.0277839
0.119721
0.197067
0.142171
0.127819
0.102329
0.0873011
0.0730738
0.0627447
0.0538538
0.0469537
0.041033
0.0359323
0.0314038
0.028135
0.0263208
0.0833271
0.180751
0.128383
0.118914
0.0950372
0.0816606
0.0684004
0.05887
0.0505565
0.0441351
0.0386199
0.0338566
0.029519
0.0263427
0.0247471
0.046489
0.164257
0.114178
0.109787
0.0874779
0.0758121
0.0635383
0.0548336
0.0471164
0.0411879
0.0360953
0.0317051
0.0275944
0.0244764
0.0230386
0.00950535
0.147696
0.0996241
0.100489
0.0796766
0.0697781
0.0585028
0.0506476
0.0435442
0.0381202
0.0334614
0.0294759
0.0256457
0.0225767
0.0211751
-0.0273192
0.131171
0.0847879
0.091071
0.0716572
0.0635817
0.053309
0.0463239
0.0398504
0.0349418
0.0307222
0.0271651
0.0236834
0.0207191
0.0191142
-0.0636763
0.11478
0.0697391
0.0815823
0.0634424
0.0572469
0.0479717
0.0418741
0.0360456
0.0316631
0.0278835
0.0247634
0.0216871
0.0189453
0.0169357
-0.0992557
0.098611
0.0545477
0.0720711
0.0550532
0.0507979
0.0425051
0.0373096
0.0321398
0.0282948
0.0249543
0.0222677
0.0196308
0.0172108
0.0150631
-0.133748
0.0827421
0.0392856
0.0625823
0.0465089
0.0442601
0.0369224
0.0326416
0.0281424
0.0248471
0.021946
0.0196823
0.0174934
0.015499
0.0134578
-0.166847
0.0672376
0.0240261
0.0531564
0.0378269
0.037659
0.0312354
0.0278812
0.0240625
0.0213291
0.0188705
0.0170186
0.0152608
0.0137246
0.0120068
-0.198252
0.052146
0.00884511
0.0438281
0.0290236
0.0310207
0.0254537
0.0230398
0.0199089
0.0177485
0.0157383
0.0142922
0.0129391
0.0118258
0.0105266
-0.22767
0.0374965
-0.00617836
0.0346241
0.0201149
0.024371
0.0195845
0.0181294
0.0156903
0.014112
0.0125582
0.0115171
0.0105479
0.00980439
0.00888541
-0.254814
0.0232942
-0.0209607
0.0255616
0.0111176
0.0177348
0.0136318
0.0131633
0.0114153
0.0104255
0.00933689
0.00870255
0.0081037
0.00768817
0.0070646
-0.279409
0.0095145
-0.0354126
0.0166454
0.00205124
0.0111347
0.00759678
0.00815667
0.00709192
0.0066946
0.00607964
0.00585411
0.00561727
0.00550462
0.00512359
-0.30118
-0.00391017
-0.0494365
0.00786499
-0.00705999
0.0045886
0.00147783
0.00312694
0.00272653
0.00292444
0.0027921
0.00297703
0.00309855
0.0032799
0.00313576
-0.31985
-0.0170968
-0.0629238
-0.00080839
-0.0161841
-0.00189285
-0.00472742
-0.00190618
-0.00167721
-0.000878987
-0.000518599
7.83178e-05
0.000559008
0.00103766
0.00114586
-0.33513
-0.0302164
-0.0757507
-0.00942597
-0.0252781
-0.00831004
-0.0110193
-0.00692171
-0.00611958
-0.00470789
-0.00384364
-0.00283421
-0.0019919
-0.00120687
-0.000831387
-0.347231
-0.0431203
-0.0877707
-0.0180668
-0.034284
-0.0146793
-0.0173921
-0.0119002
-0.0106053
-0.00855139
-0.00717364
-0.00575359
-0.00454863
-0.00344796
-0.00279609
-0.356616
-0.0555173
-0.098799
-0.0268431
-0.043124
-0.0210376
-0.0238276
-0.0168289
-0.015142
-0.0123943
-0.0105006
-0.00867409
-0.00710732
-0.00568361
-0.0047499
-0.363324
-0.0674708
-0.10863
-0.0359106
-0.0516973
-0.0274489
-0.0302899
-0.0217082
-0.019736
-0.0162177
-0.0138199
-0.0115901
-0.0096621
-0.00790966
-0.00668944
-0.367222
-0.0792117
-0.117097
-0.0454558
-0.059877
-0.0340079
-0.0367185
-0.02656
-0.0243833
-0.0200021
-0.017132
-0.0144937
-0.0122041
-0.0101186
-0.00860632
-0.368255
-0.0899798
-0.124914
-0.0555867
-0.0675213
-0.0408432
-0.0430259
-0.031434
-0.0290604
-0.0237361
-0.020442
-0.0173731
-0.0147233
-0.0123024
-0.0104903
-0.366502
-0.0996169
-0.132945
-0.0658784
-0.0745246
-0.0481002
-0.0491005
-0.0364098
-0.0337157
-0.0274267
-0.0237543
-0.0202122
-0.0172099
-0.0144542
-0.0123324
-0.36213
-0.108412
-0.141295
-0.0758624
-0.0810926
-0.0558735
-0.0548362
-0.0415852
-0.038269
-0.0311092
-0.0270608
-0.0229973
-0.0196545
-0.016568
-0.014127
-0.355361
-0.116711
-0.149722
-0.0853233
-0.0878785
-0.063811
-0.0602294
-0.04703
-0.0426318
-0.0348448
-0.0303294
-0.0257275
-0.0220449
-0.0186358
-0.0158727
-0.346467
-0.124774
-0.158021
-0.0943627
-0.0950985
-0.071528
-0.0656318
-0.0525977
-0.0467744
-0.0386927
-0.0335137
-0.0284172
-0.0243648
-0.0206476
-0.017572
-0.335774
-0.132802
-0.166134
-0.103172
-0.102657
-0.078958
-0.0712398
-0.0580842
-0.0508953
-0.042523
-0.0366208
-0.0310676
-0.0266062
-0.0225907
-0.0192258
-0.323671
-0.141001
-0.17409
-0.111893
-0.1104
-0.0862172
-0.0770519
-0.0634267
-0.0550759
-0.0462617
-0.0396687
-0.0336587
-0.0287759
-0.0244559
-0.020801
-0.310607
-0.149607
-0.181934
-0.120597
-0.118247
-0.0934416
-0.0829903
-0.0686563
-0.0592996
-0.0499007
-0.0426576
-0.036175
-0.0308729
-0.0262363
-0.022282
-0.297095
-0.158885
-0.189697
-0.129324
-0.126195
-0.100715
-0.0889897
-0.0738222
-0.0635207
-0.0534532
-0.0455777
-0.0386065
-0.0328872
-0.0279285
-0.0236718
-0.283707
-0.169121
-0.197386
-0.138109
-0.134282
-0.108072
-0.0950221
-0.0789559
-0.0677052
-0.0569271
-0.048418
-0.0409455
-0.0348086
-0.0295293
-0.0249808
-0.271065
-0.180616
-0.204997
-0.146995
-0.142553
-0.115528
-0.101085
-0.0840687
-0.0718358
-0.0603205
-0.0511678
-0.0431853
-0.0366282
-0.031034
-0.0262158
-0.259845
-0.193678
-0.212507
-0.156031
-0.151052
-0.123097
-0.107187
-0.0891606
-0.0759046
-0.0636249
-0.0538158
-0.0453182
-0.0383392
-0.0324343
-0.027371
-0.250757
-0.208617
-0.219868
-0.165271
-0.159822
-0.130798
-0.113336
-0.0942285
-0.0799058
-0.06683
-0.0563495
-0.0473346
-0.0399336
-0.0337199
-0.0284319
-0.244543
-0.225704
-0.227
-0.174775
-0.168908
-0.138655
-0.11954
-0.099269
-0.0838321
-0.0699249
-0.0587557
-0.0492229
-0.0414025
-0.034878
-0.0293802
-0.241942
-0.24509
-0.233777
-0.184612
-0.178362
-0.146693
-0.125802
-0.104279
-0.087674
-0.0728973
-0.0610209
-0.0509697
-0.0427336
-0.0358975
-0.0302011
-0.243604
-0.266595
-0.24003
-0.194869
-0.188239
-0.154935
-0.132129
-0.109255
-0.0914199
-0.0757338
-0.0631312
-0.0525602
-0.0439155
-0.0367659
-0.0308805
-0.249892
-0.289337
-0.24557
-0.205657
-0.198595
-0.163405
-0.138527
-0.11419
-0.0950556
-0.0784192
-0.0650715
-0.0539787
-0.0449341
-0.0374747
-0.0314069
-0.260545
-0.311348
-0.250269
-0.21711
-0.209481
-0.172128
-0.145002
-0.119079
-0.098565
-0.0809357
-0.0668256
-0.0552079
-0.0457762
-0.0380111
-0.0317707
-0.27445
-0.329728
-0.254084
-0.229373
-0.220942
-0.181131
-0.151563
-0.123912
-0.101929
-0.0832632
-0.0683758
-0.05623
-0.0464245
-0.0383668
-0.0319614
-0.289826
-0.341553
-0.25715
-0.24253
-0.233014
-0.190446
-0.158218
-0.128676
-0.105125
-0.0853784
-0.069703
-0.0570265
-0.0468652
-0.0385234
-0.0319743
-0.304843
-0.34524
-0.259842
-0.256583
-0.245732
-0.200113
-0.164977
-0.133356
-0.108128
-0.0872546
-0.0707865
-0.0575787
-0.0470826
-0.0384724
-0.0317941
-0.318251
-0.341413
-0.262703
-0.271523
-0.259144
-0.21018
-0.171846
-0.137928
-0.110909
-0.0888614
-0.0716024
-0.0578685
-0.0470646
-0.0381929
-0.0314255
-0.329565
-0.332655
-0.266305
-0.287377
-0.273315
-0.220705
-0.178831
-0.142367
-0.113434
-0.0901648
-0.0721246
-0.0578757
-0.0467998
-0.0376871
-0.0308306
-0.338794
-0.322282
-0.271084
-0.304199
-0.288334
-0.231756
-0.185931
-0.146635
-0.115665
-0.0911275
-0.0723222
-0.0575833
-0.0462711
-0.0369607
-0.0300215
-0.346065
-0.313038
-0.277219
-0.322001
-0.304336
-0.243405
-0.193138
-0.150691
-0.117556
-0.0917092
-0.0721608
-0.0569707
-0.0454641
-0.0360599
-0.028895
-0.351381
-0.306424
-0.28463
-0.340716
-0.321487
-0.25572
-0.200432
-0.154482
-0.119055
-0.091866
-0.0716008
-0.0560224
-0.0443349
-0.0350695
-0.0275065
-0.354639
-0.302711
-0.293098
-0.360175
-0.339946
-0.268744
-0.207777
-0.157945
-0.120099
-0.0915511
-0.0705971
-0.0547205
-0.042859
-0.0338607
-0.0263191
-0.355882
-0.301316
-0.30249
-0.380073
-0.359837
-0.282479
-0.215116
-0.161005
-0.120619
-0.0907127
-0.0691038
-0.0530327
-0.0410498
-0.0323345
-0.0251715
-0.355499
-0.301321
-0.312914
-0.399941
-0.381221
-0.296872
-0.222362
-0.163576
-0.120532
-0.0892915
-0.0670769
-0.050916
-0.0389148
-0.0304553
-0.023781
-0.354126
-0.301994
-0.324557
-0.419188
-0.40406
-0.311787
-0.229395
-0.165551
-0.119742
-0.0872186
-0.0644739
-0.0483244
-0.036436
-0.0282207
-0.0220359
-0.352331
-0.303076
-0.337255
-0.437393
-0.428147
-0.326977
-0.236062
-0.166804
-0.11814
-0.0844162
-0.0612516
-0.0452139
-0.0335817
-0.0256381
-0.0199409
-0.350402
-0.304709
-0.350364
-0.454782
-0.45304
-0.34207
-0.242163
-0.167179
-0.115603
-0.0807993
-0.0573647
-0.0415467
-0.0303201
-0.0227206
-0.0175345
-0.348303
-0.307099
-0.363073
-0.472259
-0.477937
-0.356559
-0.24744
-0.166482
-0.112002
-0.0762805
-0.052766
-0.0372947
-0.0266271
-0.0194808
-0.014847
-0.345801
-0.310117
-0.374577
-0.490374
-0.501509
-0.369811
-0.251553
-0.164482
-0.107201
-0.0707768
-0.0474094
-0.0324405
-0.0224886
-0.0159259
-0.0118983
-0.342832
-0.313339
-0.384333
-0.508339
-0.521887
-0.381067
-0.254062
-0.160921
-0.101079
-0.0642195
-0.0412555
-0.0269779
-0.0179027
-0.0120614
-0.00870785
-0.33934
-0.316361
-0.391874
-0.524189
-0.537163
-0.389504
-0.254444
-0.155552
-0.0935503
-0.0565667
-0.0342824
-0.0209141
-0.0128798
-0.00789675
-0.00529439
-0.335329
-0.318934
-0.396928
-0.535627
-0.546173
-0.394333
-0.252154
-0.148205
-0.0846009
-0.0478267
-0.0265001
-0.0142783
-0.00744118
-0.00345495
-0.0016658
-0.33089
-0.321012
-0.399631
-0.541622
-0.548726
-0.394902
-0.246787
-0.138878
-0.0743395
-0.0380974
-0.0179788
-0.00713786
-0.00162859
0.00123031
0.002151
-0.326188
-0.322473
-0.40084
-0.541898
-0.545245
-0.390821
-0.238268
-0.127836
-0.0630627
-0.0276233
-0.00889364
0.00037497
0.00447221
0.00610728
0.00609595
-0.321445
-0.32334
-0.400708
-0.537444
-0.536495
-0.382176
-0.227062
-0.115696
-0.0513131
-0.0168533
0.000422418
0.00801997
0.0107034
0.011073
0.0100883
-0.316916
-0.323706
-0.399579
-0.529515
-0.523348
-0.369915
-0.214306
-0.103415
-0.0398834
-0.00646008
0.00944264
0.0154089
0.0168023
0.015935
0.014011
-0.312873
-0.323711
-0.397884
-0.519848
-0.507522
-0.355337
-0.201746
-0.0921355
-0.0297144
0.00272714
0.0174755
0.0220076
0.0223786
0.0203918
0.0176771
-0.309571
-0.323515
-0.396076
-0.510347
-0.492519
-0.340935
-0.190995
-0.0829275
-0.0216719
0.00991624
0.0237984
0.0272304
0.0269325
0.0240531
0.0208028
-0.307234
-0.323278
-0.39458
-0.502788
-0.480529
-0.329639
-0.183171
-0.0765479
-0.0162659
0.0146609
0.0279428
0.0306883
0.0300172
0.0265659
0.0230474
-0.306022
-0.323124
-0.393738
-0.498603
-0.473809
-0.323453
-0.179066
-0.0733681
-0.0135582
0.0169397
0.0298972
0.0323549
0.0315117
0.0278063
0.0241878
0.0201531
0.0162737
0.0137107
0.0121937
0.0108535
0.00932894
0.00766339
0.00606076
0.00466445
0.00350151
0.00256405
0.00183982
0.00129178
0.000873881
0.000547694
0.000297484
0.000104434
-4.29165e-05
-0.00015346
-0.000234683
-0.000292724
-0.000332525
-0.000357818
-0.000371285
-0.000375188
-0.000371372
-0.000361397
-0.000346537
-0.000327815
-0.000306069
-0.000281991
-0.000256108
-0.000228867
-0.000200536
-0.000171411
-0.000141538
-0.000111103
-8.00259e-05
-4.8346e-05
-1.60696e-05
0.019136
0.0154813
0.0131469
0.0117206
0.0104455
0.0090125
0.00745369
0.00593581
0.00459215
0.00345998
0.00254091
0.00182667
0.00128349
0.000868241
0.000544048
0.000294961
0.000102598
-4.42901e-05
-0.000154511
-0.000235508
-0.000293378
-0.000333046
-0.000358237
-0.000371627
-0.000375469
-0.000371605
-0.000361591
-0.000346699
-0.000327952
-0.000306183
-0.000282087
-0.000256188
-0.000228934
-0.000200591
-0.000171457
-0.000141574
-0.000111133
-8.00479e-05
-4.83609e-05
-1.6077e-05
0.0171189
0.0139976
0.0121601
0.0109421
0.00977399
0.00848347
0.00709126
0.0057113
0.00445775
0.00338095
0.00249604
0.0018008
0.00126705
0.000857018
0.000536769
0.000289912
9.8922e-05
-4.70387e-05
-0.000156616
-0.000237158
-0.000294685
-0.000334089
-0.000359075
-0.00037231
-0.000376032
-0.000372071
-0.00036198
-0.000347025
-0.000328224
-0.000306411
-0.000282279
-0.000256348
-0.000229067
-0.000200702
-0.000171548
-0.000141648
-0.000111191
-8.00917e-05
-4.83906e-05
-1.60918e-05
0.0143909
0.0120441
0.0109047
0.00999652
0.00897031
0.00783885
0.006634
0.00541584
0.0042742
0.00327008
0.00243162
0.00176286
0.00124269
0.000840293
0.000525894
0.000282336
9.33999e-05
-5.11655e-05
-0.000159773
-0.000239634
-0.000296647
-0.000335652
-0.000360332
-0.000373335
-0.000376876
-0.000372769
-0.000362562
-0.000347512
-0.000328632
-0.000306753
-0.000282565
-0.000256587
-0.000229267
-0.000200867
-0.000171684
-0.000141757
-0.000111279
-8.01572e-05
-4.8435e-05
-1.61138e-05
0.011299
0.00981836
0.00946319
0.00893488
0.00808981
0.00713464
0.00612342
0.00507342
0.00405382
0.00313326
0.00234998
0.00171359
0.00121068
0.000818224
0.000511499
0.000272226
8.60198e-05
-5.6674e-05
-0.000163985
-0.000242935
-0.000299261
-0.000337735
-0.000362006
-0.000374698
-0.000377999
-0.000373698
-0.000363336
-0.00034816
-0.000329175
-0.000307207
-0.000282946
-0.000256906
-0.000229532
-0.000201086
-0.000171865
-0.000141903
-0.000111395
-8.02441e-05
-4.8494e-05
-1.6143e-05
0.00806234
0.00746296
0.00789701
0.00778402
0.00715987
0.00640097
0.00558431
0.00470044
0.00380614
0.00297541
0.00225317
0.00165369
0.00117131
0.000790981
0.000493714
0.000259566
7.67634e-05
-6.35695e-05
-0.000169252
-0.000247061
-0.000302529
-0.000340339
-0.000364096
-0.000376399
-0.000379399
-0.000374857
-0.000364301
-0.000348967
-0.00032985
-0.000307773
-0.000283419
-0.000257301
-0.000229862
-0.000201359
-0.000172089
-0.000142084
-0.000111539
-8.03518e-05
-4.85674e-05
-1.61792e-05
0.00480331
0.00506649
0.00624702
0.00655315
0.00619221
0.0056498
0.00502701
0.00430528
0.00353699
0.00279985
0.00214268
0.00158371
0.0011248
0.000758758
0.000472715
0.000244318
6.56066e-05
-7.18571e-05
-0.000175576
-0.000252013
-0.000306449
-0.000343463
-0.0003666
-0.000378436
-0.000381075
-0.000376242
-0.000365455
-0.000349932
-0.000330657
-0.000308448
-0.000283984
-0.000257773
-0.000230255
-0.000201684
-0.000172357
-0.000142299
-0.000111711
-8.048e-05
-4.86548e-05
-1.62223e-05
0.00160246
0.00271737
0.00454314
0.00524621
0.0051908
0.00488463
0.00445522
0.00389191
0.00324965
0.00260859
0.00201951
0.00150406
0.00107135
0.000721668
0.000448836
0.000226424
5.25169e-05
-8.1544e-05
-0.000182956
-0.000257789
-0.000311021
-0.000347106
-0.000369516
-0.000380806
-0.000383025
-0.000377853
-0.000366795
-0.000351052
-0.000331594
-0.000309231
-0.000284639
-0.00025832
-0.00023071
-0.00020206
-0.000172666
-0.000142547
-0.000111909
-8.06278e-05
-4.8756e-05
-1.62721e-05
-0.00150588
0.000404624
0.00278996
0.00388965
0.00415753
0.00410351
0.00386915
0.00346208
0.00294583
0.0024027
0.00188423
0.00141503
0.00101108
0.000679667
0.000423859
0.00020582
3.74626e-05
-9.26333e-05
-0.000191394
-0.000264389
-0.000316245
-0.000351268
-0.000372843
-0.000383505
-0.000385245
-0.000379685
-0.00036832
-0.000352325
-0.000332657
-0.000310119
-0.000285382
-0.00025894
-0.000231226
-0.000202485
-0.000173016
-0.000142828
-0.000112133
-8.07945e-05
-4.88705e-05
-1.63282e-05
-0.00447142
-0.00188162
0.00102787
0.00252114
0.00309383
0.00330369
0.00326785
0.0030165
0.00262645
0.00218275
0.0017372
0.00131681
0.000944067
0.000632955
0.000389305
0.000181788
2.03851e-05
-0.000105137
-0.000200891
-0.000271812
-0.00032212
-0.00035595
-0.000376576
-0.000386531
-0.000387731
-0.000381736
-0.000370024
-0.000353747
-0.000333843
-0.00031111
-0.000286209
-0.00025963
-0.000231799
-0.000202958
-0.000173404
-0.00014314
-0.000112381
-8.09793e-05