/*--------------------------------*- C++ -*----------------------------------*\
  =========                 |
  \\      /  F ield         | OpenFOAM: The Open Source CFD Toolbox
   \\    /   O peration     | Website:  https://openfoam.org
    \\  /    A nd           | Version:  7
     \\/     M anipulation  |
\*---------------------------------------------------------------------------*/
FoamFile
{
    version     2.0;
    format      ascii;
    class       volVectorField;
    location    "0.02";
    object      U;
}
// * * * * * * * * * * * * * * * * * * * * * * * * * * * * * * * * * * * * * //

dimensions      [0 1 -1 0 0 0 0];

internalField   nonuniform List<vector> 
10000
(
(2.93806e-06 -2.92728e-06 0)
(1.20746e-05 -6.01312e-06 0)
(2.43133e-05 -6.10879e-06 0)
(3.34025e-05 -4.38364e-06 0)
(3.59162e-05 -1.81484e-06 0)
(3.04892e-05 1.03655e-06 0)
(1.66919e-05 3.89913e-06 0)
(-5.45255e-06 6.63386e-06 0)
(-3.56562e-05 9.19506e-06 0)
(-7.34752e-05 1.15588e-05 0)
(-0.000118378 1.37079e-05 0)
(-0.000169801 1.56551e-05 0)
(-0.000227155 1.7406e-05 0)
(-0.000289854 1.89558e-05 0)
(-0.000357295 2.03118e-05 0)
(-0.000428896 2.14779e-05 0)
(-0.000504096 2.24641e-05 0)
(-0.000582338 2.32905e-05 0)
(-0.0006631 2.39616e-05 0)
(-0.000745884 2.44777e-05 0)
(-0.0008302 2.48452e-05 0)
(-0.000915597 2.50853e-05 0)
(-0.00100165 2.52083e-05 0)
(-0.00108792 2.52237e-05 0)
(-0.00117404 2.51351e-05 0)
(-0.00125962 2.49338e-05 0)
(-0.00134429 2.4619e-05 0)
(-0.00142774 2.41996e-05 0)
(-0.00150963 2.36894e-05 0)
(-0.00158969 2.30992e-05 0)
(-0.00166764 2.24369e-05 0)
(-0.00174322 2.17085e-05 0)
(-0.00181619 2.09138e-05 0)
(-0.00188633 2.00551e-05 0)
(-0.00195342 1.91342e-05 0)
(-0.00201728 1.81544e-05 0)
(-0.00207771 1.71224e-05 0)
(-0.00213456 1.6046e-05 0)
(-0.00218768 1.4935e-05 0)
(-0.00223693 1.37924e-05 0)
(-0.00228219 1.26158e-05 0)
(-0.00232336 1.14065e-05 0)
(-0.00236032 1.0167e-05 0)
(-0.00239299 8.90325e-06 0)
(-0.00242129 7.62246e-06 0)
(-0.00244515 6.32645e-06 0)
(-0.00246451 5.01545e-06 0)
(-0.00247933 3.69049e-06 0)
(-0.00248955 2.35361e-06 0)
(-0.00249516 1.00804e-06 0)
(-0.00249612 -3.44261e-07 0)
(-0.00249241 -1.70029e-06 0)
(-0.00248404 -3.05635e-06 0)
(-0.00247102 -4.4122e-06 0)
(-0.00245335 -5.76584e-06 0)
(-0.00243107 -7.10989e-06 0)
(-0.00240422 -8.43846e-06 0)
(-0.00237286 -9.74855e-06 0)
(-0.00233704 -1.1037e-05 0)
(-0.00229686 -1.23025e-05 0)
(-0.00225239 -1.35442e-05 0)
(-0.00220374 -1.47568e-05 0)
(-0.00215103 -1.59334e-05 0)
(-0.0020944 -1.70695e-05 0)
(-0.00203399 -1.81581e-05 0)
(-0.00196998 -1.91908e-05 0)
(-0.00190256 -2.01636e-05 0)
(-0.00183193 -2.10759e-05 0)
(-0.0017583 -2.1922e-05 0)
(-0.00168192 -2.2694e-05 0)
(-0.00160305 -2.33871e-05 0)
(-0.00152195 -2.39993e-05 0)
(-0.00143892 -2.45248e-05 0)
(-0.00135427 -2.49563e-05 0)
(-0.00126834 -2.52893e-05 0)
(-0.00118146 -2.55199e-05 0)
(-0.00109403 -2.56379e-05 0)
(-0.00100643 -2.56294e-05 0)
(-0.000919099 -2.54844e-05 0)
(-0.000832476 -2.52005e-05 0)
(-0.000747025 -2.47771e-05 0)
(-0.00066323 -2.42093e-05 0)
(-0.000581592 -2.3488e-05 0)
(-0.000502631 -2.26047e-05 0)
(-0.000426886 -2.15532e-05 0)
(-0.000354912 -2.03276e-05 0)
(-0.000287276 -1.89212e-05 0)
(-0.000224557 -1.73265e-05 0)
(-0.000167337 -1.55382e-05 0)
(-0.000116193 -1.35552e-05 0)
(-7.1691e-05 -1.13818e-05 0)
(-3.43626e-05 -9.02556e-06 0)
(-4.68523e-06 -6.49853e-06 0)
(1.6955e-05 -3.82567e-06 0)
(3.03304e-05 -1.0659e-06 0)
(3.54878e-05 1.65549e-06 0)
(3.29215e-05 4.09833e-06 0)
(2.39621e-05 5.79201e-06 0)
(1.19236e-05 5.824e-06 0)
(2.8712e-06 2.8756e-06 0)
(5.61943e-06 -1.19172e-05 0)
(2.04553e-05 -2.09557e-05 0)
(3.6005e-05 -1.84292e-05 0)
(4.19478e-05 -8.5565e-06 0)
(3.19092e-05 5.225e-06 0)
(2.67491e-06 2.08012e-05 0)
(-4.72186e-05 3.68847e-05 0)
(-0.000118191 5.27574e-05 0)
(-0.000209896 6.79863e-05 0)
(-0.000321532 8.23346e-05 0)
(-0.000451969 9.5654e-05 0)
(-0.000599892 0.000107872 0)
(-0.000763887 0.000118952 0)
(-0.000942442 0.00012889 0)
(-0.00113404 0.000137681 0)
(-0.00133715 0.000145343 0)
(-0.00155026 0.000151908 0)
(-0.0017719 0.00015742 0)
(-0.00200064 0.000161921 0)
(-0.00223508 0.000165453 0)
(-0.00247389 0.000168059 0)
(-0.00271579 0.00016977 0)
(-0.00295954 0.000170641 0)
(-0.003204 0.000170714 0)
(-0.00344805 0.00017003 0)
(-0.00369061 0.000168626 0)
(-0.00393069 0.000166535 0)
(-0.00416734 0.000163798 0)
(-0.00439968 0.000160452 0)
(-0.00462686 0.000156543 0)
(-0.00484811 0.000152109 0)
(-0.00506269 0.000147187 0)
(-0.0052699 0.000141804 0)
(-0.00546911 0.00013599 0)
(-0.00565971 0.000129774 0)
(-0.00584115 0.00012318 0)
(-0.00601292 0.000116241 0)
(-0.00617453 0.000108991 0)
(-0.00632556 0.00010146 0)
(-0.00646562 9.3678e-05 0)
(-0.00659434 8.56636e-05 0)
(-0.00671139 7.74353e-05 0)
(-0.00681649 6.90142e-05 0)
(-0.00690935 6.04206e-05 0)
(-0.00698977 5.16804e-05 0)
(-0.00705754 4.28169e-05 0)
(-0.00711248 3.38463e-05 0)
(-0.00715444 2.47854e-05 0)
(-0.00718333 1.56511e-05 0)
(-0.00719903 6.46057e-06 0)
(-0.00720149 -2.7672e-06 0)
(-0.00719069 -1.2012e-05 0)
(-0.00716661 -2.12521e-05 0)
(-0.00712929 -3.04665e-05 0)
(-0.00707878 -3.96349e-05 0)
(-0.00701517 -4.87327e-05 0)
(-0.00693857 -5.77339e-05 0)
(-0.00684917 -6.6616e-05 0)
(-0.00674714 -7.53562e-05 0)
(-0.0066327 -8.39285e-05 0)
(-0.00650614 -9.23067e-05 0)
(-0.00636775 -0.000100464 0)
(-0.00621788 -0.000108369 0)
(-0.00605691 -0.00011599 0)
(-0.00588529 -0.000123289 0)
(-0.0057035 -0.000130234 0)
(-0.00551206 -0.000136791 0)
(-0.00531155 -0.000142929 0)
(-0.00510261 -0.000148614 0)
(-0.00488591 -0.000153806 0)
(-0.00466217 -0.000158471 0)
(-0.00443217 -0.000162575 0)
(-0.00419676 -0.000166081 0)
(-0.00395683 -0.000168949 0)
(-0.00371332 -0.00017114 0)
(-0.00346723 -0.000172613 0)
(-0.00321963 -0.000173318 0)
(-0.00297163 -0.000173205 0)
(-0.0027244 -0.000172232 0)
(-0.00247919 -0.000170362 0)
(-0.00223728 -0.000167559 0)
(-0.00200003 -0.000163785 0)
(-0.00176881 -0.000159002 0)
(-0.00154505 -0.000153176 0)
(-0.00133022 -0.000146278 0)
(-0.00112584 -0.00013828 0)
(-0.000933412 -0.00012916 0)
(-0.000754453 -0.000118905 0)
(-0.000590469 -0.000107521 0)
(-0.00044293 -9.50363e-05 0)
(-0.000313227 -8.15081e-05 0)
(-0.000202607 -6.70302e-05 0)
(-0.000112106 -5.17569e-05 0)
(-4.24371e-05 -3.59492e-05 0)
(6.17639e-06 -2.00472e-05 0)
(3.4261e-05 -4.78078e-06 0)
(4.34188e-05 8.65518e-06 0)
(3.68689e-05 1.82916e-05 0)
(2.08927e-05 2.09035e-05 0)
(5.8087e-06 1.19179e-05 0)
(5.33294e-06 -2.34132e-05 0)
(1.71236e-05 -3.61763e-05 0)
(2.36957e-05 -2.51619e-05 0)
(1.35959e-05 1.4474e-06 0)
(-2.06029e-05 3.71652e-05 0)
(-8.30402e-05 7.75744e-05 0)
(-0.000175862 0.000119792 0)
(-0.000299833 0.000161957 0)
(-0.000454732 0.000202887 0)
(-0.00063957 0.000241819 0)
(-0.000852873 0.000278266 0)
(-0.00109283 0.000311923 0)
(-0.00135741 0.000342631 0)
(-0.00164443 0.000370299 0)
(-0.00195165 0.000394897 0)
(-0.00227676 0.000416446 0)
(-0.00261749 0.000434992 0)
(-0.00297159 0.000450611 0)
(-0.00333684 0.000463415 0)
(-0.00371108 0.000473492 0)
(-0.00409223 0.000480954 0)
(-0.00447828 0.000485908 0)
(-0.00486728 0.000488455 0)
(-0.00525739 0.000488714 0)
(-0.00564687 0.000486803 0)
(-0.00603402 0.000482833 0)
(-0.00641726 0.000476914 0)
(-0.00679509 0.000469161 0)
(-0.00716607 0.000459679 0)
(-0.00752888 0.000448573 0)
(-0.00788226 0.000435947 0)
(-0.00822503 0.000421899 0)
(-0.00855607 0.000406521 0)
(-0.00887436 0.000389901 0)
(-0.00917894 0.000372126 0)
(-0.00946892 0.000353279 0)
(-0.00974346 0.000333442 0)
(-0.0100018 0.0003127 0)
(-0.0102433 0.000291132 0)
(-0.0104672 0.000268811 0)
(-0.010673 0.000245808 0)
(-0.0108602 0.000222185 0)
(-0.0110282 0.000198005 0)
(-0.0111767 0.00017333 0)
(-0.0113052 0.000148221 0)
(-0.0114135 0.00012274 0)
(-0.0115013 9.69464e-05 0)
(-0.0115682 7.08912e-05 0)
(-0.0116142 4.46284e-05 0)
(-0.0116391 1.82132e-05 0)
(-0.0116428 -8.29769e-06 0)
(-0.0116253 -3.48459e-05 0)
(-0.0115865 -6.13727e-05 0)
(-0.0115266 -8.78154e-05 0)
(-0.0114456 -0.000114108 0)
(-0.0113436 -0.000140187 0)
(-0.0112209 -0.000165988 0)
(-0.0110777 -0.000191441 0)
(-0.0109144 -0.000216473 0)
(-0.0107313 -0.000241014 0)
(-0.0105288 -0.000264987 0)
(-0.0103075 -0.000288307 0)
(-0.0100678 -0.00031089 0)
(-0.00981057 -0.000332648 0)
(-0.00953632 -0.000353491 0)
(-0.00924589 -0.00037332 0)
(-0.00894011 -0.000392039 0)
(-0.0086199 -0.000409556 0)
(-0.00828627 -0.000425772 0)
(-0.00794031 -0.00044058 0)
(-0.00758317 -0.000453875 0)
(-0.0072161 -0.000465555 0)
(-0.00684043 -0.000475513 0)
(-0.00645761 -0.000483639 0)
(-0.00606912 -0.000489818 0)
(-0.00567657 -0.000493932 0)
(-0.00528164 -0.000495859 0)
(-0.00488609 -0.000495481 0)
(-0.0044918 -0.000492683 0)
(-0.00410068 -0.00048736 0)
(-0.00371478 -0.000479404 0)
(-0.00333619 -0.000468717 0)
(-0.00296705 -0.000455206 0)
(-0.00260958 -0.000438789 0)
(-0.00226606 -0.000419397 0)
(-0.00193879 -0.000396976 0)
(-0.00163006 -0.000371499 0)
(-0.00134215 -0.000342973 0)
(-0.00107731 -0.000311452 0)
(-0.000837673 -0.000277057 0)
(-0.000625231 -0.00024 0)
(-0.000441714 -0.000200612 0)
(-0.000288491 -0.000159411 0)
(-0.000166416 -0.000117193 0)
(-7.56018e-05 -7.518e-05 0)
(-1.51132e-05 -3.52284e-05 0)
(1.73758e-05 -1.3701e-07 0)
(2.60623e-05 2.5927e-05 0)
(1.83404e-05 3.68784e-05 0)
(5.78568e-06 2.39522e-05 0)
(3.60895e-06 -3.16208e-05 0)
(7.40926e-06 -4.16265e-05 0)
(-2.58475e-06 -1.50505e-05 0)
(-3.69638e-05 3.59863e-05 0)
(-0.000103042 0.00010197 0)
(-0.000205283 0.000176112 0)
(-0.000346111 0.000253739 0)
(-0.000526467 0.000331654 0)
(-0.00074611 0.000407703 0)
(-0.00100397 0.000480424 0)
(-0.00129833 0.000548837 0)
(-0.001627 0.0006123 0)
(-0.00198749 0.000670413 0)
(-0.00237711 0.000722948 0)
(-0.00279302 0.000769808 0)
(-0.00323233 0.000810978 0)
(-0.0036921 0.000846509 0)
(-0.00416942 0.000876513 0)
(-0.00466142 0.000901134 0)
(-0.00516528 0.000920554 0)
(-0.00567828 0.000934956 0)
(-0.00619775 0.000944542 0)
(-0.00672113 0.000949503 0)
(-0.00724597 0.000950048 0)
(-0.00776993 0.000946389 0)
(-0.00829077 0.00093874 0)
(-0.00880638 0.000927317 0)
(-0.00931473 0.000912329 0)
(-0.00981393 0.000893982 0)
(-0.0103022 0.000872474 0)
(-0.0107778 0.000848003 0)
(-0.0112391 0.000820753 0)
(-0.0116847 0.000790908 0)
(-0.0121132 0.000758639 0)
(-0.0125232 0.000724114 0)
(-0.0129137 0.000687502 0)
(-0.0132833 0.00064896 0)
(-0.0136313 0.000608642 0)
(-0.0139564 0.000566699 0)
(-0.014258 0.00052327 0)
(-0.0145352 0.00047849 0)
(-0.0147872 0.000432495 0)
(-0.0150135 0.000385405 0)
(-0.0152134 0.000337341 0)
(-0.0153864 0.000288427 0)
(-0.0155322 0.000238777 0)
(-0.0156502 0.000188505 0)
(-0.0157403 0.000137725 0)
(-0.0158021 8.65465e-05 0)
(-0.0158354 3.50787e-05 0)
(-0.0158402 -1.65661e-05 0)
(-0.0158164 -6.82726e-05 0)
(-0.0157639 -0.000119923 0)
(-0.015683 -0.000171399 0)
(-0.0155736 -0.000222575 0)
(-0.015436 -0.000273322 0)
(-0.0152705 -0.000323509 0)
(-0.0150775 -0.000373008 0)
(-0.0148573 -0.00042168 0)
(-0.0146106 -0.000469379 0)
(-0.0143378 -0.00051595 0)
(-0.0140397 -0.00056124 0)
(-0.013717 -0.000605088 0)
(-0.0133706 -0.000647321 0)
(-0.0130014 -0.000687762 0)
(-0.0126105 -0.000726232 0)
(-0.0121989 -0.000762549 0)
(-0.0117681 -0.000796522 0)
(-0.0113192 -0.000827958 0)
(-0.0108538 -0.000856658 0)
(-0.0103735 -0.000882417 0)
(-0.00987979 -0.000905031 0)
(-0.00937462 -0.000924294 0)
(-0.00885985 -0.000939993 0)
(-0.00833751 -0.000951908 0)
(-0.00780972 -0.000959817 0)
(-0.00727875 -0.000963501 0)
(-0.00674694 -0.000962748 0)
(-0.00621675 -0.000957345 0)
(-0.00569076 -0.000947089 0)
(-0.00517164 -0.000931788 0)
(-0.00466213 -0.000911263 0)
(-0.00416507 -0.000885355 0)
(-0.00368333 -0.000853924 0)
(-0.00321988 -0.000816861 0)
(-0.00277768 -0.000774099 0)
(-0.00235967 -0.000725627 0)
(-0.00196876 -0.000671503 0)
(-0.00160777 -0.00061188 0)
(-0.00127935 -0.000547039 0)
(-0.000985944 -0.000477438 0)
(-0.000729616 -0.000403777 0)
(-0.000511964 -0.000327094 0)
(-0.000333939 -0.000248914 0)
(-0.0001956 -0.000171446 0)
(-9.58217e-05 -9.7885e-05 0)
(-3.19773e-05 -3.28096e-05 0)
(4.79122e-07 1.73303e-05 0)
(8.90466e-06 4.35911e-05 0)
(4.11998e-06 3.29595e-05 0)
(1.26099e-06 -3.34998e-05 0)
(-5.73075e-06 -3.14014e-05 0)
(-3.71748e-05 1.88302e-05 0)
(-0.000101375 0.000101886 0)
(-0.000204718 0.000205565 0)
(-0.000351508 0.000320875 0)
(-0.000544117 0.000441385 0)
(-0.000783399 0.000562554 0)
(-0.00106905 0.000681153 0)
(-0.00139985 0.000794932 0)
(-0.00177386 0.000902327 0)
(-0.00218861 0.00100226 0)
(-0.00264124 0.00109404 0)
(-0.00312865 0.00117723 0)
(-0.00364752 0.0012516 0)
(-0.00419446 0.00131708 0)
(-0.00476601 0.00137372 0)
(-0.0053587 0.00142164 0)
(-0.00596909 0.00146102 0)
(-0.00659379 0.00149211 0)
(-0.00722952 0.00151517 0)
(-0.00787304 0.00153052 0)
(-0.00852126 0.00153847 0)
(-0.0091712 0.00153932 0)
(-0.00981998 0.00153342 0)
(-0.0104649 0.00152108 0)
(-0.0111033 0.00150265 0)
(-0.0117327 0.00147844 0)
(-0.0123508 0.0014488 0)
(-0.0129553 0.00141404 0)
(-0.0135442 0.00137447 0)
(-0.0141155 0.0013304 0)
(-0.0146673 0.0012821 0)
(-0.015198 0.00122987 0)
(-0.0157058 0.00117398 0)
(-0.0161894 0.00111468 0)
(-0.0166473 0.00105225 0)
(-0.0170782 0.00098692 0)
(-0.017481 0.000918939 0)
(-0.0178546 0.000848535 0)
(-0.0181979 0.000775921 0)
(-0.0185101 0.000701314 0)
(-0.0187904 0.000624923 0)
(-0.0190379 0.000546943 0)
(-0.0192523 0.000467569 0)
(-0.0194327 0.000386998 0)
(-0.0195788 0.000305415 0)
(-0.0196903 0.000223002 0)
(-0.0197666 0.000139943 0)
(-0.0198078 5.64247e-05 0)
(-0.0198135 -2.73662e-05 0)
(-0.0197838 -0.000111247 0)
(-0.0197186 -0.000195027 0)
(-0.019618 -0.000278507 0)
(-0.0194823 -0.000361485 0)
(-0.0193116 -0.000443758 0)
(-0.0191064 -0.000525113 0)
(-0.018867 -0.00060533 0)
(-0.0185942 -0.000684183 0)
(-0.0182883 -0.00076144 0)
(-0.0179503 -0.000836857 0)
(-0.017581 -0.00091018 0)
(-0.0171812 -0.000981145 0)
(-0.0167521 -0.00104948 0)
(-0.0162949 -0.00111491 0)
(-0.0158108 -0.00117713 0)
(-0.0153013 -0.00123586 0)
(-0.0147679 -0.00129079 0)
(-0.0142123 -0.0013416 0)
(-0.0136363 -0.00138798 0)
(-0.0130417 -0.0014296 0)
(-0.0124308 -0.00146612 0)
(-0.0118057 -0.00149722 0)
(-0.0111687 -0.00152254 0)
(-0.0105223 -0.00154176 0)
(-0.00986924 -0.00155452 0)
(-0.00921215 -0.00156049 0)
(-0.00855395 -0.00155932 0)
(-0.00789765 -0.00155069 0)
(-0.00724637 -0.00153429 0)
(-0.00660334 -0.00150984 0)
(-0.00597191 -0.00147705 0)
(-0.00535547 -0.00143571 0)
(-0.00475749 -0.00138561 0)
(-0.00418151 -0.00132662 0)
(-0.00363104 -0.00125868 0)
(-0.00310958 -0.00118182 0)
(-0.00262053 -0.00109617 0)
(-0.00216717 -0.00100204 0)
(-0.00175259 -0.000899945 0)
(-0.00137955 -0.000790659 0)
(-0.00105042 -0.000675344 0)
(-0.000766983 -0.000555664 0)
(-0.000530309 -0.000433965 0)
(-0.000340518 -0.000313528 0)
(-0.00019653 -0.000198917 0)
(-9.57723e-05 -9.64408e-05 0)
(-3.38294e-05 -1.46587e-05 0)
(-4.19901e-06 3.49146e-05 0)
(1.7411e-06 3.5723e-05 0)
(-1.31832e-06 -2.79052e-05 0)
(-2.05334e-05 -2.56496e-06 0)
(-7.63204e-05 8.04375e-05 0)
(-0.000173835 0.000203458 0)
(-0.000317979 0.000352123 0)
(-0.000512538 0.000515522 0)
(-0.000759514 0.000685652 0)
(-0.00105953 0.000856636 0)
(-0.00141204 0.00102421 0)
(-0.00181561 0.00118528 0)
(-0.0022681 0.00133764 0)
(-0.00276676 0.00147973 0)
(-0.00330842 0.00161051 0)
(-0.00388963 0.00172929 0)
(-0.00450668 0.00183568 0)
(-0.00515574 0.00192951 0)
(-0.00583291 0.00201078 0)
(-0.00653426 0.00207964 0)
(-0.00725587 0.00213629 0)
(-0.00799385 0.00218104 0)
(-0.00874442 0.00221426 0)
(-0.00950387 0.00223633 0)
(-0.0102686 0.00224769 0)
(-0.0110352 0.00224879 0)
(-0.0118003 0.00224009 0)
(-0.0125607 0.00222205 0)
(-0.0133134 0.00219515 0)
(-0.0140554 0.00215986 0)
(-0.0147841 0.00211663 0)
(-0.0154968 0.00206594 0)
(-0.0161911 0.00200821 0)
(-0.0168646 0.0019439 0)
(-0.0175152 0.00187341 0)
(-0.0181408 0.00179717 0)
(-0.0187396 0.00171557 0)
(-0.0193097 0.00162899 0)
(-0.0198496 0.0015378 0)
(-0.0203577 0.00144237 0)
(-0.0208326 0.00134304 0)
(-0.0212731 0.00124015 0)
(-0.0216779 0.00113402 0)
(-0.0220459 0.00102496 0)
(-0.0223763 0.000913271 0)
(-0.0226682 0.000799251 0)
(-0.0229208 0.000683189 0)
(-0.0231335 0.000565363 0)
(-0.0233057 0.00044605 0)
(-0.0234369 0.000325529 0)
(-0.0235268 0.000204069 0)
(-0.0235751 8.19395e-05 0)
(-0.0235817 -4.05834e-05 0)
(-0.0235464 -0.000163221 0)
(-0.0234693 -0.000285692 0)
(-0.0233505 -0.000407711 0)
(-0.0231902 -0.000528983 0)
(-0.0229888 -0.000649206 0)
(-0.0227466 -0.00076807 0)
(-0.0224642 -0.000885251 0)
(-0.0221422 -0.00100042 0)
(-0.0217815 -0.00111323 0)
(-0.0213828 -0.00122334 0)
(-0.0209472 -0.00133036 0)
(-0.0204758 -0.00143392 0)
(-0.0199699 -0.00153363 0)
(-0.0194309 -0.00162908 0)
(-0.0188603 -0.00171984 0)
(-0.0182597 -0.00180549 0)
(-0.017631 -0.00188557 0)
(-0.0169762 -0.00195965 0)
(-0.0162974 -0.00202725 0)
(-0.0155968 -0.0020879 0)
(-0.0148769 -0.00214113 0)
(-0.0141402 -0.00218644 0)
(-0.0133896 -0.00222336 0)
(-0.0126279 -0.00225138 0)
(-0.0118582 -0.00227004 0)
(-0.0110837 -0.00227883 0)
(-0.0103078 -0.00227729 0)
(-0.00953385 -0.00226498 0)
(-0.00876557 -0.00224145 0)
(-0.00800669 -0.00220631 0)
(-0.00726103 -0.00215919 0)
(-0.00653252 -0.00209981 0)
(-0.00582511 -0.00202791 0)
(-0.00514282 -0.00194335 0)
(-0.00448967 -0.00184608 0)
(-0.00386959 -0.00173619 0)
(-0.00328641 -0.00161396 0)
(-0.00274381 -0.00147986 0)
(-0.0022452 -0.0013347 0)
(-0.00179366 -0.00117965 0)
(-0.00139182 -0.00101638 0)
(-0.00104167 -0.000847224 0)
(-0.000744475 -0.000675387 0)
(-0.000500545 -0.000505223 0)
(-0.00030906 -0.000342613 0)
(-0.000167789 -0.000195443 0)
(-7.28042e-05 -7.41044e-05 0)
(-1.90247e-05 7.75997e-06 0)
(-8.78738e-07 3.09857e-05 0)
(-3.90936e-06 -1.44063e-05 0)
(-3.59414e-05 4.63951e-05 0)
(-0.000117485 0.000172031 0)
(-0.00025022 0.000343325 0)
(-0.000437235 0.000544263 0)
(-0.000681491 0.00076241 0)
(-0.000984436 0.000988348 0)
(-0.00134623 0.00121504 0)
(-0.001766 0.00143722 0)
(-0.00224205 0.00165097 0)
(-0.00277192 0.00185343 0)
(-0.00335262 0.00204254 0)
(-0.00398068 0.00221685 0)
(-0.00465233 0.00237542 0)
(-0.00536352 0.00251764 0)
(-0.00611005 0.00264324 0)
(-0.00688763 0.00275215 0)
(-0.00769193 0.00284447 0)
(-0.00851861 0.00292049 0)
(-0.00936336 0.00298055 0)
(-0.010222 0.0030251 0)
(-0.0110903 0.00305463 0)
(-0.0119643 0.0030697 0)
(-0.0128402 0.00307089 0)
(-0.0137141 0.0030588 0)
(-0.0145826 0.00303405 0)
(-0.0154421 0.00299727 0)
(-0.0162893 0.00294907 0)
(-0.0171213 0.00289008 0)
(-0.0179349 0.00282091 0)
(-0.0187275 0.00274215 0)
(-0.0194964 0.0026544 0)
(-0.020239 0.00255822 0)
(-0.0209532 0.00245418 0)
(-0.0216368 0.00234281 0)
(-0.0222876 0.00222463 0)
(-0.0229039 0.00210015 0)
(-0.0234839 0.00196985 0)
(-0.024026 0.00183421 0)
(-0.0245287 0.00169369 0)
(-0.0249908 0.00154873 0)
(-0.0254109 0.00139975 0)
(-0.025788 0.00124717 0)
(-0.0261212 0.00109139 0)
(-0.0264094 0.000932811 0)
(-0.0266521 0.000771821 0)
(-0.0268485 0.000608797 0)
(-0.0269982 0.000444119 0)
(-0.0271006 0.000278161 0)
(-0.0271556 0.000111298 0)
(-0.0271629 -5.60925e-05 0)
(-0.0271224 -0.000223629 0)
(-0.0270342 -0.000390924 0)
(-0.0268984 -0.000557583 0)
(-0.0267152 -0.000723203 0)
(-0.026485 -0.000887369 0)
(-0.0262083 -0.00104966 0)
(-0.0258858 -0.00120963 0)
(-0.0255181 -0.00136683 0)
(-0.0251062 -0.0015208 0)
(-0.024651 -0.00167104 0)
(-0.0241537 -0.00181705 0)
(-0.0236156 -0.00195832 0)
(-0.0230381 -0.00209432 0)
(-0.0224228 -0.00222448 0)
(-0.0217715 -0.00234823 0)
(-0.0210861 -0.002465 0)
(-0.0203686 -0.00257418 0)
(-0.0196213 -0.00267516 0)
(-0.0188466 -0.0027673 0)
(-0.0180471 -0.00284998 0)
(-0.0172256 -0.00292254 0)
(-0.0163849 -0.00298434 0)
(-0.0155282 -0.00303471 0)
(-0.0146588 -0.00307302 0)
(-0.0137801 -0.00309861 0)
(-0.0128958 -0.00311084 0)
(-0.0120095 -0.00310909 0)
(-0.0111253 -0.00309278 0)
(-0.0102472 -0.00306134 0)
(-0.0093794 -0.00301428 0)
(-0.00852612 -0.00295112 0)
(-0.00769174 -0.00287152 0)
(-0.00688067 -0.00277518 0)
(-0.00609736 -0.00266195 0)
(-0.00534621 -0.00253184 0)
(-0.00463157 -0.00238501 0)
(-0.00395762 -0.00222189 0)
(-0.00332838 -0.00204319 0)
(-0.0027476 -0.00185002 0)
(-0.00221864 -0.00164398 0)
(-0.00174436 -0.0014273 0)
(-0.00132705 -0.00120297 0)
(-0.000968227 -0.000975053 0)
(-0.000668539 -0.000748919 0)
(-0.000427602 -0.000531645 0)
(-0.000243745 -0.000332475 0)
(-0.0001138 -0.000163312 0)
(-3.44362e-05 -3.94309e-05 0)
(-3.51902e-06 1.82905e-05 0)
(-6.42469e-06 7.06617e-06 0)
(-5.13045e-05 0.000116034 0)
(-0.00015905 0.000294655 0)
(-0.00032776 0.000522798 0)
(-0.000558551 0.000783379 0)
(-0.000853437 0.00106275 0)
(-0.00121309 0.00135039 0)
(-0.00163708 0.0016382 0)
(-0.00212411 0.00192004 0)
(-0.00267208 0.00219122 0)
(-0.00327825 0.00244823 0)
(-0.00393929 0.00268852 0)
(-0.00465146 0.00291025 0)
(-0.00541067 0.00311215 0)
(-0.00621257 0.00329343 0)
(-0.00705262 0.00345366 0)
(-0.00792618 0.00359269 0)
(-0.00882857 0.00371063 0)
(-0.00975506 0.00380773 0)
(-0.010701 0.00388441 0)
(-0.0116618 0.0039412 0)
(-0.0126329 0.00397871 0)
(-0.01361 0.00399761 0)
(-0.0145887 0.00399862 0)
(-0.015565 0.00398249 0)
(-0.0165349 0.00395 0)
(-0.0174947 0.00390193 0)
(-0.0184407 0.00383907 0)
(-0.0193694 0.00376222 0)
(-0.0202776 0.00367216 0)
(-0.0211622 0.00356965 0)
(-0.0220204 0.00345544 0)
(-0.0228492 0.00333029 0)
(-0.0236462 0.00319489 0)
(-0.024409 0.00304994 0)
(-0.0251353 0.00289612 0)
(-0.025823 0.0027341 0)
(-0.0264702 0.00256448 0)
(-0.0270752 0.0023879 0)
(-0.0276361 0.00220495 0)
(-0.0281517 0.0020162 0)
(-0.0286204 0.00182221 0)
(-0.0290412 0.00162351 0)
(-0.0294128 0.00142064 0)
(-0.0297344 0.00121412 0)
(-0.030005 0.00100445 0)
(-0.0302241 0.000792128 0)
(-0.030391 0.000577655 0)
(-0.0305052 0.000361519 0)
(-0.0305663 0.000144214 0)
(-0.0305743 -7.37654e-05 0)
(-0.030529 -0.000291924 0)
(-0.0304303 -0.000509755 0)
(-0.0302786 -0.000726739 0)
(-0.030074 -0.000942348 0)
(-0.029817 -0.00115605 0)
(-0.0295081 -0.00136728 0)
(-0.029148 -0.00157548 0)
(-0.0287376 -0.00178004 0)
(-0.0282779 -0.00198036 0)
(-0.0277698 -0.00217582 0)
(-0.0272149 -0.00236576 0)
(-0.0266144 -0.00254951 0)
(-0.02597 -0.00272638 0)
(-0.0252835 -0.00289564 0)
(-0.0245568 -0.00305656 0)
(-0.023792 -0.00320838 0)
(-0.0229915 -0.00335034 0)
(-0.0221577 -0.00348163 0)
(-0.0212933 -0.00360144 0)
(-0.0204012 -0.00370896 0)
(-0.0194844 -0.00380336 0)
(-0.0185462 -0.0038838 0)
(-0.0175901 -0.00394946 0)
(-0.0166196 -0.00399949 0)
(-0.0156385 -0.00403308 0)
(-0.0146509 -0.00404942 0)
(-0.0136609 -0.00404774 0)
(-0.0126728 -0.0040273 0)
(-0.011691 -0.0039874 0)
(-0.0107201 -0.00392744 0)
(-0.00976483 -0.00384687 0)
(-0.00882988 -0.00374525 0)
(-0.00792005 -0.00362229 0)
(-0.00704017 -0.00347783 0)
(-0.006195 -0.00331191 0)
(-0.00538922 -0.00312482 0)
(-0.00462737 -0.00291716 0)
(-0.00391379 -0.00268989 0)
(-0.0032525 -0.00244447 0)
(-0.00264719 -0.00218291 0)
(-0.002101 -0.00190798 0)
(-0.00161652 -0.00162336 0)
(-0.00119564 -0.00133389 0)
(-0.000839458 -0.00104587 0)
(-0.000548158 -0.000767404 0)
(-0.0003208 -0.000508861 0)
(-0.000155155 -0.000283327 0)
(-4.97888e-05 -0.000107218 0)
(-6.0813e-06 -2.40763e-06 0)
(-8.81366e-06 3.63435e-05 0)
(-6.62808e-05 0.0002063 0)
(-0.000200008 0.000448449 0)
(-0.00040464 0.000742254 0)
(-0.000679299 0.00106991 0)
(-0.00102493 0.00141697 0)
(-0.00144135 0.001772 0)
(-0.00192743 0.00212606 0)
(-0.0024813 0.00247223 0)
(-0.00310046 0.00280512 0)
(-0.00378177 0.00312066 0)
(-0.00452157 0.00341579 0)
(-0.00531581 0.00368827 0)
(-0.00616008 0.00393655 0)
(-0.00704973 0.00415961 0)
(-0.00797991 0.00435688 0)
(-0.00894567 0.00452812 0)
(-0.00994199 0.00467339 0)
(-0.0109638 0.00479297 0)
(-0.0120062 0.00488731 0)
(-0.0130641 0.00495703 0)
(-0.0141328 0.00500283 0)
(-0.0152075 0.00502552 0)
(-0.0162836 0.00502596 0)
(-0.0173566 0.00500506 0)
(-0.0184223 0.00496375 0)
(-0.0194766 0.004903 0)
(-0.0205155 0.00482378 0)
(-0.0215354 0.00472705 0)
(-0.0225326 0.00461377 0)
(-0.0235038 0.00448491 0)
(-0.0244458 0.00434139 0)
(-0.0253556 0.00418412 0)
(-0.0262304 0.004014 0)
(-0.0270676 0.0038319 0)
(-0.0278647 0.00363865 0)
(-0.0286195 0.00343508 0)
(-0.0293297 0.00322198 0)
(-0.0299935 0.00300011 0)
(-0.0306091 0.00277022 0)
(-0.0311748 0.00253304 0)
(-0.0316892 0.00228925 0)
(-0.0321508 0.00203955 0)
(-0.0325585 0.0017846 0)
(-0.0329113 0.00152506 0)
(-0.0332082 0.00126155 0)
(-0.0334485 0.000994708 0)
(-0.0336315 0.000725167 0)
(-0.0337566 0.000453544 0)
(-0.0338237 0.000180456 0)
(-0.0338323 -9.3471e-05 0)
(-0.0337824 -0.000367604 0)
(-0.033674 -0.000641305 0)
(-0.0335074 -0.000913928 0)
(-0.0332827 -0.00118481 0)
(-0.0330006 -0.00145327 0)
(-0.0326615 -0.0017186 0)
(-0.0322663 -0.0019801 0)
(-0.0318159 -0.00223702 0)
(-0.0313113 -0.00248859 0)
(-0.0307538 -0.00273402 0)
(-0.0301447 -0.00297251 0)
(-0.0294858 -0.00320321 0)
(-0.0287786 -0.00342525 0)
(-0.0280253 -0.00363773 0)
(-0.0272278 -0.00383974 0)
(-0.0263885 -0.00403032 0)
(-0.02551 -0.00420853 0)
(-0.024595 -0.00437336 0)
(-0.0236463 -0.00452381 0)
(-0.0226671 -0.00465887 0)
(-0.0216608 -0.00477751 0)
(-0.0206308 -0.00487869 0)
(-0.0195809 -0.0049614 0)
(-0.0185151 -0.0050246 0)
(-0.0174374 -0.00506729 0)
(-0.0163522 -0.00508849 0)
(-0.015264 -0.00508727 0)
(-0.0141774 -0.00506272 0)
(-0.0130972 -0.00501403 0)
(-0.0120283 -0.00494046 0)
(-0.0109758 -0.00484139 0)
(-0.0099448 -0.00471632 0)
(-0.00894037 -0.00456493 0)
(-0.00796769 -0.00438706 0)
(-0.00703186 -0.00418284 0)
(-0.0061379 -0.00395268 0)
(-0.00529064 -0.00369735 0)
(-0.00449473 -0.00341808 0)
(-0.00375452 -0.00311666 0)
(-0.00307398 -0.00279554 0)
(-0.00245661 -0.00245799 0)
(-0.00190536 -0.00210833 0)
(-0.00142256 -0.00175212 0)
(-0.00100983 -0.00139646 0)
(-0.000668056 -0.0010503 0)
(-0.000397129 -0.000724931 0)
(-0.000195856 -0.00043428 0)
(-6.47222e-05 -0.000195492 0)
(-8.5155e-06 -3.09109e-05 0)
(-1.10608e-05 7.31294e-05 0)
(-8.06729e-05 0.00031672 0)
(-0.000239773 0.000633011 0)
(-0.000479741 0.00100136 0)
(-0.000797761 0.00140363 0)
(-0.00119368 0.00182482 0)
(-0.0016664 0.00225287 0)
(-0.00221401 0.00267816 0)
(-0.00283403 0.00309308 0)
(-0.00352344 0.00349168 0)
(-0.00427868 0.00386935 0)
(-0.00509572 0.00422258 0)
(-0.00597016 0.00454877 0)
(-0.00689728 0.00484608 0)
(-0.00787212 0.00511327 0)
(-0.00888953 0.00534961 0)
(-0.00994425 0.00555479 0)
(-0.011031 0.0057288 0)
(-0.0121443 0.00587196 0)
(-0.013279 0.00598474 0)
(-0.0144298 0.00606784 0)
(-0.0155916 0.00612207 0)
(-0.0167592 0.00614837 0)
(-0.0179279 0.00614774 0)
(-0.0190928 0.00612125 0)
(-0.0202493 0.00607002 0)
(-0.0213932 0.00599517 0)
(-0.0225202 0.00589788 0)
(-0.0236262 0.0057793 0)
(-0.0247075 0.00564058 0)
(-0.0257605 0.00548286 0)
(-0.0267817 0.00530728 0)
(-0.0277679 0.00511494 0)
(-0.0287161 0.00490691 0)
(-0.0296234 0.00468424 0)
(-0.0304873 0.00444797 0)
(-0.0313051 0.00419908 0)
(-0.0320747 0.00393855 0)
(-0.032794 0.00366729 0)
(-0.033461 0.00338623 0)
(-0.0340739 0.00309624 0)
(-0.0346311 0.00279818 0)
(-0.0351312 0.00249288 0)
(-0.0355729 0.00218116 0)
(-0.0359551 0.00186381 0)
(-0.0362767 0.00154163 0)
(-0.0365369 0.00121537 0)
(-0.0367351 0.000885816 0)
(-0.0368706 0.000553715 0)
(-0.0369432 0.000219836 0)
(-0.0369524 -0.000115054 0)
(-0.0368983 -0.000450184 0)
(-0.0367808 -0.000784774 0)
(-0.0366002 -0.00111803 0)
(-0.0363567 -0.00144913 0)
(-0.036051 -0.00177725 0)
(-0.0356836 -0.00210154 0)
(-0.0352554 -0.00242112 0)
(-0.0347673 -0.00273507 0)
(-0.0342206 -0.00304248 0)
(-0.0336165 -0.00334238 0)
(-0.0329566 -0.00363377 0)
(-0.0322426 -0.00391563 0)
(-0.0314764 -0.0041869 0)
(-0.0306601 -0.0044465 0)
(-0.029796 -0.0046933 0)
(-0.0288865 -0.00492617 0)
(-0.0279345 -0.00514393 0)
(-0.0269427 -0.00534538 0)
(-0.0259145 -0.00552931 0)
(-0.0248531 -0.0056945 0)
(-0.023762 -0.0058397 0)
(-0.0226452 -0.00596368 0)
(-0.0215066 -0.00606519 0)
(-0.0203504 -0.00614302 0)
(-0.019181 -0.00619596 0)
(-0.0180031 -0.00622286 0)
(-0.0168215 -0.00622259 0)
(-0.015641 -0.00619411 0)
(-0.0144669 -0.00613647 0)
(-0.0133043 -0.00604882 0)
(-0.0121587 -0.00593043 0)
(-0.0110354 -0.00578075 0)
(-0.00993983 -0.00559944 0)
(-0.00887756 -0.00538637 0)
(-0.00785395 -0.00514173 0)
(-0.00687433 -0.00486606 0)
(-0.00594384 -0.00456033 0)
(-0.00506745 -0.00422602 0)
(-0.00424982 -0.00386524 0)
(-0.00349525 -0.00348085 0)
(-0.00280762 -0.00307661 0)
(-0.00219031 -0.0026574 0)
(-0.00164615 -0.00222941 0)
(-0.00117736 -0.00180041 0)
(-0.00078558 -0.00138008 0)
(-0.000471611 -0.000980339 0)
(-0.00023531 -0.000615722 0)
(-7.90391e-05 -0.000303761 0)
(-1.0791e-05 -6.68958e-05 0)
(-1.31762e-05 0.000117076 0)
(-9.43987e-05 0.000446619 0)
(-0.000278028 0.000847555 0)
(-0.000552419 0.00129936 0)
(-0.000912908 0.00178383 0)
(-0.00135826 0.00228564 0)
(-0.00188643 0.0027923 0)
(-0.0024947 0.00329368 0)
(-0.00317991 0.00378166 0)
(-0.00393849 0.00424977 0)
(-0.0047664 0.00469295 0)
(-0.0056592 0.00510728 0)
(-0.00661213 0.00548984 0)
(-0.00762013 0.00583852 0)
(-0.00867793 0.00615187 0)
(-0.00978006 0.00642902 0)
(-0.010921 0.00666957 0)
(-0.0120951 0.00687348 0)
(-0.0132967 0.00704106 0)
(-0.0145203 0.00717284 0)
(-0.0157603 0.00726959 0)
(-0.0170113 0.00733222 0)
(-0.0182679 0.00736181 0)
(-0.0195251 0.00735951 0)
(-0.0207777 0.00732655 0)
(-0.0220209 0.00726422 0)
(-0.0232501 0.00717386 0)
(-0.0244608 0.0070568 0)
(-0.0256488 0.00691441 0)
(-0.02681 0.00674806 0)
(-0.0279405 0.00655908 0)
(-0.0290368 0.00634879 0)
(-0.0300954 0.00611852 0)
(-0.0311131 0.00586953 0)
(-0.0320869 0.00560307 0)
(-0.0330139 0.00532036 0)
(-0.0338915 0.00502258 0)
(-0.0347172 0.00471087 0)
(-0.0354889 0.00438635 0)
(-0.0362045 0.0040501 0)
(-0.036862 0.00370318 0)
(-0.0374598 0.00334661 0)
(-0.0379963 0.00298137 0)
(-0.0384701 0.00260846 0)
(-0.03888 0.00222882 0)
(-0.039225 0.0018434 0)
(-0.0395041 0.0014531 0)
(-0.0397166 0.00105887 0)
(-0.039862 0.000661603 0)
(-0.0399398 0.00026222 0)
(-0.0399497 -0.000138364 0)
(-0.0398916 -0.000539223 0)
(-0.0397656 -0.000939419 0)
(-0.0395718 -0.001338 0)
(-0.0393107 -0.001734 0)
(-0.0389827 -0.00212641 0)
(-0.0385886 -0.00251422 0)
(-0.0381293 -0.00289638 0)
(-0.0376057 -0.00327181 0)
(-0.0370193 -0.00363939 0)
(-0.0363713 -0.00399798 0)
(-0.0356634 -0.0043464 0)
(-0.0348974 -0.00468341 0)
(-0.0340754 -0.00500778 0)
(-0.0331995 -0.00531819 0)
(-0.0322723 -0.00561333 0)
(-0.0312964 -0.00589183 0)