/*--------------------------------*- C++ -*----------------------------------*\
  =========                 |
  \\      /  F ield         | OpenFOAM: The Open Source CFD Toolbox
   \\    /   O peration     | Website:  https://openfoam.org
    \\  /    A nd           | Version:  7
     \\/     M anipulation  |
\*---------------------------------------------------------------------------*/
FoamFile
{
    version     2.0;
    format      ascii;
    class       volScalarField;
    location    "3.5";
    object      rho;
}
// * * * * * * * * * * * * * * * * * * * * * * * * * * * * * * * * * * * * * //

dimensions      [1 -3 0 0 0 0 0];

internalField   nonuniform List<scalar> 
2413
(
1.6593
1.6566
1.65395
1.65115
1.64834
1.64536
1.64214
1.63847
1.67465
1.67178
1.66882
1.66557
1.66231
1.65891
1.65534
1.65139
1.69006
1.68717
1.6841
1.68065
1.67698
1.67298
1.66881
1.66446
1.7056
1.7027
1.69954
1.69593
1.69187
1.68721
1.68235
1.67765
1.72099
1.71819
1.71515
1.71161
1.70736
1.70214
1.69652
1.69121
1.7369
1.73391
1.73078
1.72713
1.72269
1.71716
1.71112
1.70528
1.7532
1.75003
1.74673
1.74282
1.73807
1.7322
1.72584
1.71944
1.77026
1.76642
1.7627
1.75838
1.75326
1.7472
1.74082
1.73403
1.78843
1.78381
1.77925
1.77409
1.76837
1.76201
1.75543
1.7482
1.80622
1.80088
1.79538
1.78951
1.78344
1.77687
1.7701
1.76238
1.82445
1.81809
1.81131
1.80472
1.79816
1.79134
1.78425
1.77607
1.84183
1.83454
1.8269
1.81986
1.81277
1.80569
1.79807
1.78947
1.85877
1.85062
1.84233
1.83471
1.82698
1.81945
1.81118
1.80232
1.87462
1.8662
1.85778
1.84965
1.84124
1.83299
1.82405
1.815
1.88974
1.88126
1.87269
1.86392
1.85484
1.84588
1.83653
1.82765
1.90446
1.89599
1.88717
1.87782
1.86816
1.8586
1.84957
1.84174
1.91881
1.91018
1.90108
1.89139
1.88155
1.87216
1.86388
1.85675
1.93284
1.9239
1.91449
1.90471
1.89542
1.88709
1.87969
1.87313
1.94706
1.93792
1.92854
1.91938
1.91092
1.90324
1.89643
1.89038
1.52343
1.52329
1.52318
1.5231
1.52306
1.52311
1.52334
1.52389
1.52492
1.52588
1.52609
1.52631
1.52763
1.5304
1.53135
1.5307
1.53042
1.53191
1.53625
1.53815
1.53739
1.5358
1.53519
1.53496
1.53624
1.53892
1.53894
1.53796
1.53557
1.53273
1.53144
1.53048
1.52955
1.5285
1.52731
1.52561
1.5223
1.51822
1.51648
1.51546
1.51457
1.51366
1.51259
1.51138
1.50971
1.50713
1.50499
1.50387
1.50288
1.50201
1.50112
1.5001
1.49901
1.63605
1.63504
1.63401
1.63304
1.63206
1.63122
1.63037
1.62944
1.62843
1.62738
1.62637
1.62546
1.62454
1.62361
1.62253
1.62138
1.62045
1.61934
1.61803
1.61669
1.61559
1.61439
1.61301
1.61147
1.60992
1.60833
1.6067
1.60504
1.60318
1.6011
1.59913
1.59715
1.59489
1.5925
1.58997
1.58739
1.58497
1.58249
1.57981
1.57704
1.57427
1.57143
1.56854
1.56571
1.56302
1.56051
1.5582
1.55606
1.55414
1.55242
1.55092
1.54964
1.54847
1.54738
1.54636
1.54537
1.5444
1.54347
1.54257
1.54171
1.54092
1.54016
1.53937
1.53868
1.53823
1.53798
1.53789
1.53784
1.5378
1.53784
1.53806
1.53849
1.53897
1.53943
1.54017
1.54141
1.5422
1.54236
1.54288
1.54476
1.54833
1.54954
1.5484
1.54692
1.54721
1.5501
1.55407
1.55478
1.55432
1.55257
1.55068
1.55001
1.54956
1.55039
1.55058
1.54958
1.54818
1.54608
1.54309
1.54042
1.53865
1.53702
1.53494
1.53227
1.53046
1.52937
1.52833
1.52726
1.5261
1.52469
1.52257
1.51984
1.51815
1.5171
1.51616
1.51537
1.5145
1.51351
1.51244
1.51112
1.64882
1.64776
1.64672
1.6458
1.64486
1.64404
1.64315
1.64214
1.64102
1.63997
1.6389
1.63782
1.6369
1.63589
1.63469
1.63335
1.63234
1.6311
1.62962
1.62816
1.62679
1.62536
1.62373
1.62195
1.6201
1.61823
1.61641
1.61447
1.61227
1.60996
1.60777
1.60543
1.60292
1.60032
1.59757
1.59481
1.59218
1.58955
1.58685
1.58418
1.58156
1.57897
1.57646
1.57408
1.57188
1.5699
1.56816
1.56664
1.56535
1.56426
1.56324
1.56224
1.56129
1.56036
1.5594
1.55845
1.55756
1.55674
1.55597
1.55526
1.55468
1.55418
1.55374
1.55344
1.55328
1.55321
1.55311
1.55297
1.55298
1.55338
1.55429
1.55505
1.55527
1.55552
1.55666
1.55889
1.55963
1.55919
1.55923
1.56073
1.5649
1.56738
1.56649
1.56446
1.56387
1.56419
1.56667
1.57002
1.57027
1.56948
1.56697
1.56372
1.56254
1.56187
1.5621
1.56206
1.56091
1.55939
1.55635
1.55103
1.54777
1.54658
1.54561
1.5447
1.54372
1.54272
1.54163
1.54022
1.53803
1.53506
1.53293
1.53174
1.53075
1.52992
1.52917
1.52826
1.52728
1.52623
1.52496
1.52305
1.66171
1.66066
1.65966
1.65876
1.65785
1.65697
1.656
1.65487
1.65369
1.65263
1.65153
1.6503
1.64933
1.64823
1.64686
1.64539
1.6442
1.64278
1.6412
1.63955
1.63789
1.63621
1.63433
1.63225
1.63007
1.62795
1.62583
1.62349
1.62094
1.61839
1.61589
1.61329
1.61058
1.60779
1.60493
1.60212
1.59945
1.59688
1.59437
1.59196
1.58968
1.58756
1.58562
1.58389
1.58237
1.58106
1.57992
1.57893
1.57801
1.5771
1.57623
1.5754
1.57458
1.57373
1.5729
1.5721
1.57142
1.57089
1.57045
1.57003
1.56959
1.56921
1.569
1.56902
1.56906
1.56886
1.56856
1.56849
1.56902
1.57039
1.57134
1.57113
1.5708
1.57144
1.57432
1.57713
1.57678
1.57556
1.57521
1.57629
1.5803
1.58408
1.58418
1.58274
1.58038
1.57967
1.57948
1.58151
1.58391
1.58349
1.58203
1.57838
1.57558
1.57456
1.57383
1.5731
1.57197
1.57062
1.5681
1.56307
1.55962
1.55854
1.55767
1.55709
1.55632
1.5553
1.55414
1.55231
1.54923
1.54678
1.54563
1.54468
1.54399
1.54324
1.54227
1.54126
1.54011
1.53851
1.53662
1.53539
1.67479
1.67371
1.67274
1.67182
1.67088
1.6699
1.66884
1.66759
1.6664
1.66533
1.66416
1.66284
1.66174
1.66052
1.65902
1.65746
1.65595
1.65441
1.65278
1.65094
1.64902
1.64707
1.64495
1.64262
1.6402
1.63777
1.63524
1.63253
1.62973
1.62699
1.62425
1.62143
1.61856
1.61567
1.61285
1.61017
1.60762
1.6052
1.60297
1.60099
1.59929
1.5978
1.5965
1.59537
1.59438
1.59351
1.59271
1.59191
1.59109
1.59029
1.58964
1.58903
1.58829
1.58756
1.58706
1.58672
1.5865
1.58634
1.5861
1.58575
1.58542
1.58529
1.58548
1.58568
1.58543
1.58492
1.58469
1.58526
1.58709
1.5883
1.58774
1.58663
1.58658
1.58868
1.59308
1.59436
1.59331
1.59173
1.59132
1.59219
1.59588
1.59987
1.60014
1.59902
1.59587
1.59419
1.59362
1.59413
1.59641
1.59638
1.59526
1.59226
1.58824
1.58651
1.58533
1.5842
1.58305
1.58177
1.57966
1.57566
1.57249
1.57139
1.57048
1.56972
1.56888
1.56785
1.56665
1.5647
1.5618
1.55999
1.55895
1.55809
1.55737
1.55642
1.55537
1.55411
1.55231
1.55068
1.54977
1.54909
1.68802
1.68685
1.68581
1.6848
1.68372
1.68259
1.68133
1.67996
1.67874
1.67758
1.6763
1.67488
1.67352
1.67214
1.67059
1.66881
1.66697
1.66536
1.66361
1.66157
1.65935
1.65713
1.65484
1.65237
1.64976
1.64704
1.64425
1.64143
1.63864
1.63584
1.63301
1.63018
1.62741
1.62475
1.62222
1.61982
1.61758
1.61558
1.61386
1.61242
1.61117
1.61012
1.60922
1.60841
1.60761
1.60681
1.60609
1.60548
1.6048
1.60407
1.60344
1.60297
1.60265
1.60248
1.60238
1.60234
1.60234
1.60225
1.602
1.60174
1.60175
1.60224
1.60267
1.60237
1.60159
1.60113
1.60159
1.60362
1.60538
1.60494
1.60335
1.60261
1.60357
1.60745
1.61107
1.61108
1.60941
1.60766
1.60728
1.60812
1.612
1.6149
1.61461
1.61302
1.60956
1.60799
1.60736
1.60768
1.6092
1.60872
1.60745
1.60432
1.59987
1.59776
1.59665
1.59564
1.59461
1.59345
1.59175
1.58862
1.58565
1.58444
1.5835
1.58266
1.58178
1.58075
1.57954
1.57769
1.57515
1.5736
1.57261
1.57176
1.57091
1.56992
1.5688
1.56728
1.56559
1.56462
1.56388
1.5634
1.70174
1.70047
1.6993
1.69811
1.69685
1.6955
1.69403
1.69251
1.69119
1.68992
1.68852
1.68688
1.68528
1.6838
1.68207
1.67998
1.67798
1.67623
1.67421
1.67188
1.66936
1.66699
1.66458
1.66194
1.65917
1.65631
1.65349
1.65078
1.64806
1.64534
1.64268
1.64013
1.63771
1.63545
1.63335
1.63145
1.62974
1.62822
1.62689
1.62576
1.62479
1.62391
1.62306
1.62223
1.62151
1.62095
1.62044
1.61975
1.61901
1.6185
1.61825
1.61826
1.61846
1.61861
1.61863
1.6186
1.61847
1.61822
1.61805
1.61828
1.61922
1.61998
1.6197
1.61874
1.61803
1.61829
1.62024
1.62258
1.62248
1.62084
1.61945
1.61958
1.62203
1.62682
1.62833
1.6275
1.62461
1.62306
1.62269
1.62407
1.628
1.62898
1.62818
1.62564
1.6223
1.62122
1.62065
1.62122
1.62154
1.62058
1.61886
1.61496
1.61099
1.60949
1.60846
1.60761
1.60671
1.60567
1.60422
1.60154
1.5988
1.59757
1.59663
1.5958
1.59494
1.59392
1.59269
1.5908
1.5887
1.58754
1.58661
1.58576
1.58488
1.58391
1.58276
1.58125
1.58012
1.57932
1.57874
1.57815
1.7155
1.71408
1.7127
1.71124
1.70971
1.70807
1.70636
1.70466
1.70314
1.70166
1.7
1.69815
1.69642
1.69467
1.69259
1.69032
1.68832
1.68629
1.68398
1.68144
1.67891
1.67653
1.67398
1.67132
1.66864
1.66597
1.66345
1.66102
1.6586
1.65627
1.65409
1.65206
1.65018
1.64843
1.64681
1.64534
1.64401
1.64277
1.64158
1.64053
1.63959
1.63864
1.63768
1.63693
1.63642
1.63607
1.6355
1.6348
1.63429
1.63404
1.63401
1.6342
1.63444
1.63478
1.63529
1.63531
1.63484
1.63433
1.63429
1.63535
1.637
1.63702
1.63595
1.63496
1.6351
1.63712
1.63992
1.64004
1.63855
1.63674
1.63626
1.63743
1.6417
1.64497
1.6448
1.64273
1.63937
1.63835
1.63803
1.64005
1.64292
1.64265
1.64137
1.63783
1.63513
1.63428
1.63387
1.63402
1.63324
1.63206
1.62978
1.62568
1.62312
1.62204
1.62109
1.62029
1.61936
1.61831
1.61676
1.61406
1.61183
1.61075
1.60984
1.60907
1.60817
1.60708
1.6056
1.60375
1.60257
1.60168
1.60081
1.59998
1.59912
1.59812
1.59681
1.59569
1.59493
1.5944
1.59391
1.59313
1.72978
1.72819
1.72658
1.72488
1.72303
1.72107
1.71915
1.71735
1.71556
1.71363
1.71161
1.70966
1.70765
1.70538
1.70294
1.70072
1.69854
1.69618
1.69368
1.69114
1.68872
1.68629
1.68381
1.68139
1.67906
1.67685
1.67475
1.67275
1.67086
1.66908
1.66742
1.66589
1.66447
1.66311
1.66178
1.66052
1.6593
1.65807
1.65698
1.65612
1.65526
1.65422
1.65321
1.65259
1.65227
1.65206
1.65154
1.65104
1.65076
1.6507
1.65073
1.65067
1.65069
1.65127
1.65238
1.65235
1.65156
1.65091
1.65114
1.65311
1.65449
1.65375
1.65235
1.65204
1.65366
1.65719
1.65798
1.65677
1.65455
1.65335
1.65349
1.6563
1.6607
1.66139
1.66041
1.65675
1.65406
1.65339
1.65352
1.65616
1.65715
1.65625
1.6539
1.64991
1.64824
1.64742
1.64692
1.6462
1.64515
1.6437
1.6409
1.63776
1.63637
1.63539
1.63446
1.63353
1.6325
1.63127
1.62923
1.62667
1.6253
1.62435
1.62351
1.62263
1.62161
1.62027
1.61865
1.61757
1.61672
1.61588
1.61506
1.61421
1.61325
1.61195
1.6108
1.61005
1.60955
1.60917
1.60845
1.60759
1.74365
1.74189
1.74008
1.73815
1.73602
1.73379
1.73175
1.72981
1.7277
1.72535
1.72309
1.72093
1.71856
1.71601
1.71348
1.71117
1.70882
1.70641
1.70401
1.70168
1.69944
1.69725
1.69515
1.69317
1.69131
1.68957
1.68795
1.68643
1.68501
1.68367
1.68235
1.68105
1.67981
1.67861
1.67748
1.67638
1.67521
1.67402
1.67313
1.67236
1.67146
1.67037
1.66963
1.66923
1.66913
1.66889
1.66838
1.66794
1.66775
1.66785
1.66782
1.66752
1.6674
1.66814
1.66962
1.66953
1.66843
1.66758
1.66792
1.67052
1.67196
1.67087
1.6695
1.66956
1.67212
1.67544
1.67551
1.67384
1.67133
1.67034
1.67075
1.67423
1.67715
1.6769
1.67525
1.67114
1.66914
1.66853
1.66899
1.67114
1.67094
1.66968
1.66663
1.66308
1.66173
1.66084
1.66003
1.65909
1.65797
1.65616
1.65342
1.65153
1.65047
1.6495
1.64852
1.64749
1.64627
1.64435
1.64193
1.64058
1.63964
1.63878
1.6379
1.63693
1.63568
1.63416
1.63314
1.63233
1.63161
1.63086
1.63001
1.62908
1.62781
1.62655
1.62574
1.62511
1.62449
1.62368
1.62266
1.62117
1.75756
1.75563
1.75357
1.75138
1.74903
1.74661
1.74439
1.74218
1.73979
1.73721
1.7347
1.73224
1.72965
1.72706
1.72454
1.72216
1.71987
1.71762
1.71548
1.71347
1.71158
1.7098
1.70814
1.70659
1.70514
1.7038
1.70256
1.70138
1.70019
1.69901
1.69788
1.69677
1.69568
1.69464
1.69361
1.69251
1.69149
1.69075
1.6901
1.68932
1.68824
1.68721
1.68671
1.68653
1.68669
1.68649
1.68585
1.68505
1.68463
1.68488
1.68552
1.68522
1.68473
1.68489
1.68645
1.6873
1.68645
1.68531
1.6851
1.68696
1.69007
1.68978
1.68812
1.68747
1.68839
1.6915
1.6927
1.69177
1.68934
1.68791
1.68784
1.68998
1.69202
1.69175
1.69056
1.6873
1.68487
1.68408
1.68367
1.68441
1.6842
1.68312
1.68167
1.67933
1.67576
1.67301
1.67181
1.6708
1.66974
1.66864
1.6676
1.6666
1.6656
1.66451
1.6631
1.66088
1.65856
1.65727
1.65632
1.65553
1.65472
1.65379
1.65277
1.65147
1.65021
1.64935
1.64861
1.6481
1.64758
1.64677
1.64585
1.6447
1.64361
1.6428
1.64204
1.64126
1.64042
1.63939
1.63773
1.63513
1.77101
1.7689
1.76659
1.76419
1.76172
1.75922
1.75684
1.75444
1.7519
1.74929
1.7467
1.74416
1.74162
1.73916
1.73684
1.73466
1.73261
1.73067
1.72885
1.72716
1.72559
1.72412
1.72272
1.7214
1.72019
1.71902
1.71788
1.71678
1.71574
1.71471
1.71372
1.71281
1.71194
1.71097
1.7098
1.7088
1.70822
1.70783
1.70727
1.70641
1.70533
1.70471
1.70447
1.70468
1.70477
1.70425
1.70324
1.70239
1.70224
1.7032
1.7038
1.70306
1.70226
1.70229
1.70405
1.7057
1.70503
1.70345
1.70273
1.70381
1.7077
1.70903
1.70764
1.70556
1.70482
1.70511
1.70774
1.70974
1.70914
1.70697
1.70456
1.70382
1.70387
1.70529
1.70534
1.70455
1.70282
1.6997
1.69786
1.69691
1.69613
1.69557
1.69464
1.69348
1.69172
1.68837
1.68529
1.68411
1.68319
1.68246
1.68208
1.6813
1.68029
1.67908
1.677
1.67431
1.67297
1.67209
1.67144
1.67078
1.66988
1.66891
1.66767
1.66652
1.66571
1.665
1.6646
1.66435
1.66362
1.66268
1.66177
1.661
1.66033
1.65962
1.65882
1.65799
1.65703
1.6555
1.65259
1.64998
1.78409
1.78177
1.77926
1.77673
1.77422
1.77174
1.76929
1.76681
1.76429
1.76181
1.75937
1.75701
1.75472
1.75255
1.75055
1.7487
1.74697
1.74533
1.74377
1.74229
1.74089
1.73959
1.73836
1.73717
1.73607
1.73508
1.73415
1.73323
1.73227
1.73128
1.7304
1.72966
1.72886
1.72784
1.72683
1.72623
1.72585
1.72536
1.72456
1.72359
1.72295
1.72269
1.72293
1.72308
1.72247
1.72129
1.72022
1.71995
1.72096
1.72222
1.72162
1.72039
1.7199
1.7208
1.7236
1.72424
1.72279
1.72106
1.7208
1.72289
1.72651
1.72672
1.72494
1.7227
1.72197
1.7219
1.72391
1.72642
1.72619
1.72452
1.72091
1.71912
1.7185
1.71866
1.72002
1.71973
1.71856
1.71579
1.71245
1.71087
1.70977
1.70874
1.70797
1.70699
1.70567
1.70301
1.70012
1.69892
1.69799
1.69728
1.69671
1.69578
1.69471
1.69309
1.69063
1.68914
1.68828
1.68757
1.68685
1.68595
1.68492
1.68364
1.6826
1.6818
1.68115
1.68084
1.68044
1.67964
1.67869
1.67781
1.67715
1.67676
1.67651
1.67587
1.67504
1.67414
1.67289
1.67044
1.66767
1.66649
1.79659
1.79413
1.7916
1.78915
1.78678
1.78446
1.78216
1.77988
1.77765
1.77546
1.77333
1.7713
1.76938
1.76755
1.76583
1.7642
1.76264
1.76115
1.75972
1.75835
1.75705
1.75589
1.75478
1.75359
1.75239
1.75148
1.75079
1.75003
1.74904
1.74795
1.74716
1.74648
1.74565
1.74481
1.74424
1.74384
1.74332
1.74258
1.74173
1.74111
1.7409
1.74132
1.74163
1.741
1.73978
1.73874
1.73847
1.73949
1.74095
1.74043
1.73917
1.73855
1.7391
1.74169
1.74269
1.74144
1.73974
1.73941
1.74116
1.74401
1.74385
1.74188
1.74009
1.7396
1.73982
1.74181
1.74306
1.74244
1.74047
1.73745
1.73609
1.73548
1.73556
1.7359
1.73518
1.73395
1.73153
1.72891
1.72732
1.72606
1.72494
1.72388
1.72283
1.72158
1.71935
1.71668
1.71536
1.71442
1.71368
1.71288
1.7119
1.71074
1.70897
1.70695
1.70583
1.70498
1.70424
1.7035
1.70259
1.7014
1.69986
1.69882
1.69802
1.69743
1.69712
1.69651
1.69569
1.69467
1.69356
1.69274
1.69219
1.69205
1.69189
1.69116
1.69027
1.68917
1.68735
1.6852
1.68411
1.68335
1.80904
1.80664
1.80432
1.80212
1.80003
1.79799
1.796
1.79407
1.79221
1.79038
1.78855
1.78677
1.78505
1.78341
1.78184
1.78032
1.77886
1.77746
1.77607
1.77476
1.7737
1.77278
1.77177
1.77058
1.76943
1.76861
1.76799
1.76735
1.76654
1.76563
1.76471
1.76384
1.76318
1.76283
1.76262
1.76212
1.76129
1.76033
1.75968
1.75956
1.76012
1.76011
1.75918
1.75794
1.75728
1.75761
1.75941
1.75985
1.75873
1.75757
1.75743
1.75902
1.76103
1.76052
1.75891
1.75809
1.7588
1.7614
1.76219
1.76085
1.75818
1.75691
1.75688
1.7586
1.76063
1.7604
1.75914
1.75629
1.75421
1.75336
1.75311
1.75341
1.75271
1.75163
1.74974
1.74699
1.74525
1.7441
1.74302
1.74194
1.74086
1.73968
1.73793
1.7354
1.73359
1.73252
1.73162
1.73086
1.72992
1.7288
1.72722
1.72513
1.72373
1.72282
1.72202
1.72135
1.72055
1.71961
1.71822
1.71625
1.71506
1.71428
1.71373
1.71332
1.71259
1.71173
1.71062
1.70931
1.70827
1.70748
1.70694
1.70698
1.70699
1.70622
1.70523
1.70387
1.70244
1.7015
1.7007
1.70008
1.8221
1.82007
1.81819
1.81642
1.8147
1.81301
1.8113
1.80958
1.8079
1.80626
1.80466
1.80309
1.80157
1.80012
1.79873
1.79735
1.79601
1.79474
1.79348
1.79215
1.791
1.79012
1.78925
1.78823
1.78695
1.78571
1.7849
1.78442
1.78401
1.78321
1.78211
1.7811
1.78056
1.78048
1.78035
1.77965
1.77874
1.77817
1.77834
1.77923
1.77906
1.77793
1.77664
1.7761
1.77677
1.7791
1.77949
1.77814
1.77678
1.77664
1.77848
1.78025
1.77935
1.77746
1.77667
1.77733
1.78007
1.78097
1.77971
1.77633
1.77421
1.77395
1.7757
1.77817
1.77802
1.7768
1.77365
1.7714
1.77056
1.77033
1.77045
1.7695
1.76812
1.76566
1.76312
1.76188
1.76092
1.75995
1.75888
1.75769
1.75611
1.75407
1.75239
1.75123
1.75022
1.7494
1.74852
1.74748
1.74617
1.74423
1.74241
1.7414
1.74057
1.73995
1.73929
1.73845
1.73749
1.73595
1.73357
1.73213
1.73133
1.73061
1.72983
1.72891
1.72774
1.7264
1.72534
1.72443
1.72357
1.72278
1.72216
1.72204
1.72233
1.72176
1.72093
1.72015
1.71942
1.71866
1.7179
1.71718
1.83702
1.83527
1.83358
1.83197
1.83042
1.82891
1.82741
1.82588
1.82432
1.82278
1.82128
1.81985
1.81846
1.81709
1.81577
1.81454
1.81337
1.81213
1.81074
1.80951
1.80863
1.80791
1.80707
1.80593
1.80448
1.80339
1.80277
1.80259
1.80222
1.80125
1.80005
1.79928
1.79906
1.79907
1.79846
1.79751
1.79686
1.79701
1.7983
1.79848
1.79738
1.7959
1.79515
1.79544
1.79785
1.79904
1.79788
1.79607
1.79562
1.79715
1.79925
1.79845
1.79632
1.79527
1.79543
1.79778
1.7995
1.79874
1.79585
1.79259
1.79176
1.79226
1.7948
1.79543
1.79461
1.79225
1.78907
1.78792
1.78724
1.78714
1.7863
1.78505
1.78299
1.78001
1.77844
1.77746
1.7767
1.77573
1.77457
1.77305
1.77119
1.76987
1.76887
1.76798
1.76713
1.76615
1.76505
1.76369
1.76203
1.7608
1.75993
1.7592
1.75867
1.75803
1.7572
1.75626
1.75482
1.75233
1.75043
1.74948
1.74858
1.74758
1.74628
1.74454
1.74306
1.7421
1.74127
1.74049
1.73975
1.73902
1.73838
1.73804
1.73861
1.73909
1.73841
1.73758
1.73673
1.73587
1.73501
1.73416
1.85245
1.85087
1.84938
1.848
1.84668
1.84538
1.84409
1.84276
1.84136
1.83997
1.83864
1.83736
1.83606
1.8348
1.83364
1.83253
1.83131
1.82988
1.82856
1.82764
1.82689
1.82605
1.82494
1.82346
1.82226
1.82158
1.8214
1.82117
1.82028
1.81908
1.81821
1.81795
1.81819
1.8178
1.81682
1.81601
1.81591
1.81721
1.81823
1.81744
1.8159
1.81483
1.81469
1.81647
1.81868
1.81805
1.81596
1.81494
1.81569
1.81827
1.81819
1.81614
1.81438
1.81394
1.81496
1.81753
1.81761
1.81595
1.81229
1.81026
1.8097
1.81051
1.81242
1.81213
1.81098
1.80812
1.80542
1.80433
1.80348
1.80294
1.80199
1.80082
1.7991
1.79619
1.79401
1.79292
1.79208
1.7914
1.79043
1.78933
1.78807
1.7865
1.78496
1.78389
1.78292
1.78202
1.78117
1.78038
1.77968
1.77911
1.77856
1.77794
1.77721
1.77636
1.77538
1.77406
1.7722
1.77057
1.76947
1.76841
1.76713
1.76543
1.76363
1.76228
1.76133
1.76049
1.75967
1.75888
1.75811
1.75743
1.757
1.75707
1.75742
1.7572
1.7564
1.75539
1.75422
1.75312
1.75219
1.75132
1.86918
1.86773
1.86638
1.86513
1.86395
1.86275
1.86149
1.86021
1.85891
1.85756
1.85622
1.85499
1.85389
1.85283
1.85171
1.85044
1.84908
1.84792
1.84705
1.84629
1.84543
1.84429
1.84285
1.84169
1.84102
1.84085
1.84062
1.83973
1.83849
1.8375
1.83716
1.83762
1.83753
1.83656
1.83559
1.83526
1.83622
1.83786
1.83749
1.83607
1.83478
1.8344
1.83557
1.83825
1.8382
1.83627
1.83457
1.83452
1.83684
1.83813
1.83676
1.8342
1.83306
1.83291
1.83476
1.83631
1.83557
1.83323
1.82982
1.82856
1.82803
1.82887
1.82979
1.82904
1.82761
1.82459
1.8221
1.82095
1.8199
1.81908
1.81821
1.81711
1.81565
1.81312
1.81074
1.80956
1.8086
1.80786
1.80712
1.80614
1.80494
1.8033
1.80162
1.80057
1.79966
1.79885
1.79828
1.79809
1.79812
1.79777
1.79709
1.79627
1.79535
1.79431
1.79324
1.79222
1.79129
1.79037
1.78938
1.78807
1.78618
1.78457
1.78357
1.78271
1.78191
1.78117
1.78044
1.77972
1.77909
1.7788
1.77882
1.77837
1.77762
1.77669
1.7755
1.77411
1.77289
1.77197
1.77111
1.77027
1.88676
1.88545
1.88421
1.88302
1.88189
1.88079
1.8796
1.87824
1.87677
1.87549
1.87442
1.87337
1.8722
1.87098
1.86985
1.86872
1.86764
1.86676
1.86603
1.8652
1.86411
1.86279
1.86169
1.86103
1.8609
1.8608
1.85997
1.85871
1.8576
1.85716
1.85771
1.85809
1.85722
1.85609
1.85554
1.85604
1.85784
1.85787
1.85652
1.85499
1.85441
1.85526
1.85807
1.85847
1.8568
1.85455
1.85382
1.85492
)
;

boundaryField
{
    inlet
    {
        type            calculated;
        value           nonuniform 0();
    }
    outlet
    {
        type            calculated;
        value           nonuniform 0();
    }
    bottom
    {
        type            symmetryPlane;
    }
    top
    {
        type            symmetryPlane;
    }
    obstacle
    {
        type            calculated;
        value           nonuniform 0();
    }
    front
    {
        type            empty;
    }
    back
    {
        type            empty;
    }
    procBoundary29to21
    {
        type            processor;
        value           nonuniform List<scalar> 
129
(
1.6442
1.64185
1.63956
1.63718
1.63472
1.632
1.62897
1.62553
1.50928
1.50935
1.50894
1.5085
1.50825
1.50808
1.50797
1.50803
1.50855
1.50948
1.51002
1.51019
1.51062
1.51214
1.5138
1.51386
1.51392
1.51573
1.51984
1.52127
1.52022
1.51907
1.51885
1.51938
1.52198
1.52544
1.52574
1.52493
1.52233
1.51908
1.51791
1.51716
1.51709
1.51748
1.51657
1.51531
1.51297
1.50821
1.50457
1.5033
1.50228
1.50151
1.50079
1.49976
1.49852
1.49663
1.49382
1.49203
1.49101
1.49003
1.48919
1.48825
1.48719
1.62325
1.62231
1.62133
1.62041
1.61946
1.61862
1.61781
1.61695
1.61607
1.61505
1.61415
1.61332
1.61245
1.61163
1.61063
1.60968
1.60882
1.60781
1.60668
1.60544
1.60447
1.60348
1.60231
1.601
1.59959
1.59828
1.59692
1.59539
1.59375
1.59193
1.59012
1.58836
1.58635
1.58415
1.58185
1.57952
1.57727
1.57494
1.57243
1.5698
1.5671
1.56427
1.56121
1.55804
1.55496
1.55206
1.54943
1.54704
1.54473
1.54244
1.54029
1.53832
1.53644
1.5347
1.53348
1.53257
1.5317
1.53082
1.52992
1.52904
1.5282
1.52737
1.52645
1.5253
1.52428
1.52375
1.52351
1.52351
)
;
    }
    procBoundary29to22
    {
        type            processor;
        value           nonuniform List<scalar> 3(1.49763 1.50905 1.52084);
    }
    procBoundary29to30
    {
        type            processor;
        value           nonuniform List<scalar> 
16
(
1.53444
1.54845
1.56275
1.57731
1.59226
1.60651
1.61935
1.6332
1.6488
1.66559
1.68259
1.69957
1.7164
1.73334
1.7505
1.76947
)
;
    }
    procBoundary29to36
    {
        type            processor;
        value           nonuniform List<scalar> 
19
(
1.66212
1.67756
1.69298
1.70849
1.72391
1.74022
1.75687
1.77482
1.7933
1.81148
1.83017
1.84817
1.86586
1.88224
1.89781
1.91255
1.92698
1.94134
1.95581
)
;
    }
    procBoundary29to37
    {
        type            processor;
        value           nonuniform List<scalar> 
129
(
1.96144
1.95242
1.94342
1.93485
1.92724
1.92051
1.91436
1.90861
1.85782
1.85778
1.8556
1.85299
1.85211
1.8522
1.85433
1.85492
1.85393
1.85135
1.84846
1.84742
1.84688
1.8474
1.84728
1.84626
1.84454
1.84162
1.83973
1.8386
1.83756
1.83673
1.83575
1.83463
1.83309
1.83083
1.82919
1.82815
1.82718
1.82627
1.82536
1.82436
1.82312
1.82139
1.81998
1.81905
1.81818
1.81739
1.81671
1.8161
1.81545
1.81481
1.81432
1.8141
1.81396
1.81351
1.81287
1.81215
1.81132
1.81034
1.8091
1.80779
1.80681
1.80596
1.80517
1.80453
1.80414
1.80377
1.80319
1.80256
1.8021
1.80174
1.80099
1.80008
1.79905
1.79782
1.79632
1.7947
1.79349
1.79258
1.79172
1.79088
1.90515
1.90388
1.90262
1.90146
1.90044
1.89935
1.89799
1.89639
1.89514
1.89425
1.89332
1.89212
1.8908
1.88984
1.88912
1.8882
1.88714
1.88625
1.88555
1.88474
1.88367
1.8826
1.88183
1.8815
1.88143
1.88078
1.87962
1.8784
1.8777
1.8779
1.87885
1.87838
1.8771
1.87614
1.87609
1.87772
1.87865
1.87752
1.87568
1.8747
1.87492
1.87751
1.87917
1.87818
1.87571
1.87412
1.87378
1.85782
1.8756
)
;
    }
}


// ************************************************************************* //
