/*--------------------------------*- C++ -*----------------------------------*\
  =========                 |
  \\      /  F ield         | OpenFOAM: The Open Source CFD Toolbox
   \\    /   O peration     | Website:  https://openfoam.org
    \\  /    A nd           | Version:  7
     \\/     M anipulation  |
\*---------------------------------------------------------------------------*/
FoamFile
{
    version     2.0;
    format      ascii;
    class       surfaceScalarField;
    location    "0.888";
    object      phi;
}
// * * * * * * * * * * * * * * * * * * * * * * * * * * * * * * * * * * * * * //

dimensions      [0 3 -1 0 0 0 0];

internalField   nonuniform List<scalar> 
18389
(
-7.97687e-05
7.97687e-05
4.34296e-05
-4.34296e-05
-5.20443e-05
5.20443e-05
4.01518e-05
-4.01518e-05
-5.17819e-05
5.17819e-05
-3.99254e-05
3.99254e-05
-3.47343e-05
3.47343e-05
3.90127e-05
-3.90127e-05
-3.5587e-05
3.5587e-05
4.14636e-05
-4.14636e-05
4.49156e-05
-4.49156e-05
-3.4674e-05
3.4674e-05
-1.36434e-05
1.36434e-05
-4.27707e-05
4.27707e-05
4.34732e-05
-4.34732e-05
2.38986e-05
-2.38986e-05
1.84123e-05
-1.84123e-05
4.58923e-05
-4.58923e-05
4.59203e-05
-4.59203e-05
4.33403e-05
-4.33403e-05
-4.24556e-05
4.24556e-05
3.55621e-05
-3.55621e-05
4.29781e-05
-4.29781e-05
-5.84977e-05
5.84977e-05
-4.97236e-05
4.97236e-05
-4.18162e-05
4.18162e-05
-4.45393e-05
4.45393e-05
4.56227e-05
-4.56227e-05
4.58466e-05
-4.58466e-05
4.41357e-05
-4.41357e-05
-4.13336e-05
4.13336e-05
-6.30755e-05
6.30755e-05
4.31156e-05
-4.31156e-05
-4.47425e-05
4.47425e-05
4.08607e-05
-4.08607e-05
4.66902e-05
-4.66902e-05
-4.55439e-05
4.55439e-05
5.35716e-05
-5.35716e-05
-5.88648e-05
5.88648e-05
3.78732e-05
-3.78732e-05
4.48362e-05
-4.48362e-05
4.53651e-05
-4.53651e-05
-4.10103e-05
4.10103e-05
4.48988e-05
-4.48988e-05
4.58675e-05
-4.58675e-05
-4.58468e-05
4.58468e-05
-4.58475e-05
4.58475e-05
-4.0658e-05
4.0658e-05
-4.58793e-05
4.58793e-05
4.59376e-05
-4.59376e-05
4.59561e-05
-4.59561e-05
4.46225e-05
-4.46225e-05
3.77328e-05
-3.77328e-05
-4.57618e-05
4.57618e-05
-5.55433e-05
5.55433e-05
-4.38144e-05
4.38144e-05
4.57516e-05
-4.57516e-05
-4.59938e-05
4.59938e-05
4.32266e-05
-4.32266e-05
-5.93195e-05
5.93195e-05
-4.71477e-05
4.71477e-05
4.9605e-05
-4.9605e-05
4.57364e-05
-4.57364e-05
-9.34199e-06
9.342e-06
4.57739e-05
-4.57739e-05
4.14512e-05
-4.14512e-05
5.12064e-05
-5.12064e-05
-4.58726e-05
4.58726e-05
4.23176e-05
-4.23176e-05
3.13899e-05
-3.13899e-05
1.1296e-06
-1.1296e-06
-4.40849e-05
4.40849e-05
3.28684e-05
-3.28684e-05
-3.6574e-05
3.6574e-05
3.97561e-05
-3.97561e-05
2.66252e-05
-2.66252e-05
2.61979e-05
-2.61979e-05
2.70491e-05
-2.70491e-05
2.43955e-05
-2.43955e-05
1.32518e-05
-1.32518e-05
0.00107335
-0.000878949
-0.000194398
0.00546645
-0.00207548
-0.00339097
-0.00594644
0.0059464
4.10942e-08
0.00335417
-0.00259848
-0.000755696
-0.00155399
0.00175898
-0.000204992
-0.00675896
0.00283594
0.00392302
0.00121482
0.00425164
0.00725572
-0.00587578
-0.00137995
0.00119142
-0.00191813
0.000726716
-0.000869815
-0.000684172
-0.00144219
-0.000314625
0.00175682
0.000145831
7.5587e-06
-0.00015339
0.000778525
-0.00222072
-0.00360324
0.000122946
0.00348029
-0.00320246
0.00289305
0.000309412
-0.00571001
0.00724973
-0.00153973
-0.00370934
0.0028972
0.000812129
-0.000563734
-0.00303951
-0.00174863
0.0023886
-0.000639963
-0.000464581
0.002559
-0.00209442
-0.00161244
0.00111156
0.000500871
0.000583526
0.000581833
-0.00159754
-0.00516142
0.0012588
-0.00178913
0.000530335
0.00578062
-0.00386118
-0.00191942
-0.000663864
0.003311
-0.00264714
-0.00583492
0.00583471
0.000477772
0.00128121
-0.00633539
0.000969098
0.0053663
0.0023227
-0.00298656
-0.00378941
0.00311378
0.000675625
0.00214806
-0.00422353
0.00108631
-0.000203013
-0.0008833
0.00150503
-0.00128853
-0.000216499
-0.00280166
-0.000400797
0.00535217
-0.00535037
0.000369231
0.00113579
0.00522821
-0.00133708
-0.00389114
0.0019972
-0.000805783
0.00308569
0.00190868
-0.00499436
-0.000721698
-0.00306772
-8.90887e-05
-0.000154428
0.000243516
0.00393565
0.00332007
0.00116279
-0.00488644
0.00372365
0.0016274
0.00360081
-0.00498255
0.00632121
-0.00133866
-0.00113776
-0.000592362
0.00173012
0.00133735
0.00201682
0.000135292
0.000103626
-0.000238918
0.00502205
-0.00339466
0.00645882
-0.00084183
-0.00561699
0.00321529
-0.00265705
-0.000558238
0.00221863
0.000450816
-0.00266946
0.00294991
-0.000731276
0.0065035
-0.00539846
-0.00110502
0.00050486
-0.00386865
0.00336379
6.95444e-05
0.00638928
0.00480698
-0.00430212
-0.000535785
0.00105939
-0.0005236
-0.0017603
0.000622542
0.00191707
0.0022491
-0.00416616
0.0002534
-0.000333611
8.02109e-05
-0.00126727
-0.00284586
0.00411314
-2.63284e-05
0.00652983
-0.00281695
0.00229528
0.000521664
0.000389611
-1.23555e-05
-0.000377256
-0.00569231
-0.000254125
0.00187819
-0.00140041
0.000827521
0.0049531
0.000893343
0.000180007
0.00262778
-0.00645394
0.00382616
-0.0011202
0.000584421
0.00263874
-0.00390601
0.00619675
-0.00226108
0.0010921
0.00117729
-0.000793395
0.00104245
-0.000249056
-0.00111314
-0.000499297
0.00188903
0.00132625
-0.000595547
0.00142985
-0.00123756
-0.00019229
-0.00265541
0.00198909
0.000666328
0.0011669
0.000262958
0.00113609
-0.00497447
0.00383837
-0.0047575
0.0014189
0.00333859
-0.00455431
0.00611805
-0.00156375
-0.00506217
7.96158e-05
-0.0020183
-0.000637111
-0.000215346
0.000126258
-0.0012258
0.00465006
-0.00342426
-0.00122101
-0.000697124
0.000103309
-0.000192024
8.87146e-05
0.000126289
-2.29797e-05
-0.0012587
0.00463851
-0.00337981
-0.000156104
2.43877e-05
0.000131716
-0.0055682
0.00170703
-0.00119261
-0.000567686
-0.000449423
-1.89327e-05
0.000468355
-0.000543252
9.38281e-05
0.00101121
7.50953e-05
-0.00181048
0.00061787
-0.000150336
1.73192e-05
0.000133017
0.00136803
-0.00234447
0.000976437
0.000271104
-0.000135811
-0.00392546
0.00514029
-0.00245752
0.000708904
-9.17774e-05
-0.000424766
0.000516544
0.00568582
-0.00216897
-0.00351686
7.77381e-05
0.00250741
-0.00258515
0.00447098
-0.00561907
0.0011481
0.00263466
0.00305116
0.0029141
-0.00283636
-0.006162
0.000451999
-0.00646694
0.00363389
0.00283305
0.00229311
0.00390364
-0.00438959
0.00137968
0.00300991
0.00150034
-0.000241542
-0.00102546
0.00402051
-0.00299505
0.00463926
-0.00162679
-0.00301247
-0.00460597
0.00374746
0.000858515
0.00369368
-0.00503076
5.90997e-05
0.000330512
-0.00136596
0.00583695
-9.20279e-05
0.00214935
-0.00205732
-0.00206689
0.00260932
0.000172837
-0.00278215
-0.00127741
0.00264543
-0.000646675
0.00325599
0.00164118
-0.00173321
0.000903837
0.00397286
-0.0048767
-0.00504195
0.00384195
0.0012
0.00255192
-0.00359409
0.00104218
-0.00332782
0.00411616
-0.000788343
0.000342662
-0.00367048
-0.000883021
0.000883021
-0.000449022
0.000357245
-0.000126975
-0.000973461
0.00110043
0.00506959
-0.00184261
-0.00322698
-0.00243298
-0.000368688
0.00290062
0.000157857
1.65666e-05
-0.000174424
-0.00147027
0.00112237
0.000347898
-0.00014091
-0.00490104
0.00505438
-0.0038916
0.000231344
-8.55131e-05
0.00444434
0.00057771
0.00406759
-0.00151566
0.00016494
-7.08298e-06
-0.00632831
-0.000986973
-0.000823511
0.00430034
-0.00190464
-0.0023957
0.00275667
0.00154368
0.00107775
-0.00563205
-0.00226128
-0.000555668
-0.00112109
-0.000958542
0.00207963
3.89921e-05
-0.00272226
0.00268326
-0.00235836
0.00123727
-0.00221811
0.0053038
-0.00462045
0.00160183
0.00301862
0.0025464
0.00066805
-0.00033198
-0.00033607
-0.00601505
0.000582767
0.00543228
-0.00418518
0.00583154
-0.00164636
0.00182505
0.00163011
-0.00345517
-0.00167239
0.000898515
0.00077387
-0.0027152
0.00207952
0.000635682
0.00110467
0.000773521
0.0002472
-0.000328937
8.17376e-05
0.00490003
-0.0039962
-0.00638657
0.00557867
0.000807912
-0.00479777
-0.00166918
0.00334301
0.000640479
-0.00398349
0.000153956
-0.000162162
8.20658e-06
0.000590436
-0.000125281
-0.000465155
-0.00451826
0.00261362
0.000389632
-0.00056946
0.000179828
4.89188e-05
-0.000931942
-0.00257573
0.00448441
-0.00530403
-0.000323593
0.00562763
0.000211849
0.000179662
-0.000391512
0.000789893
-0.000789893
0.00168477
-0.000726119
-0.00210996
0.00181265
0.000297306
0.00440174
-0.00302207
-0.000162397
6.29379e-06
-0.00121379
0.00126271
0.000705281
0.00129192
0.00234779
-0.000268258
-0.00401938
-0.00128464
0.00111535
-0.00498402
0.00321359
-0.00447229
0.00083531
-0.00213558
0.00130027
0.00335928
-0.00458509
-0.00271114
-0.00180713
-0.00483597
0.00469506
-0.00067638
-0.00533866
-0.00515956
0.00150347
-0.00147177
-3.16937e-05
0.00223201
0.000115777
-0.00601406
0.00204853
0.00396553
-0.00121933
0.00052601
0.00069332
0.00145368
0.00294806
-0.00462435
-0.00101516
0.00563953
-0.000212804
0.000138521
7.42833e-05
-0.00551571
0.00133052
0.00375312
-0.0049369
0.00118379
-0.00149358
-0.000616372
-0.00053668
-0.000637499
0.000138367
-0.000203832
6.54643e-05
0.0049951
-0.00385901
-0.0013013
0.00512557
-0.00382428
-0.000395411
-0.000818382
-0.00586124
0.000439943
0.00539476
-0.00616349
0.00456595
-0.000922858
-0.00546372
-0.0010952
-0.000375069
-0.00181691
0.00285724
-0.00104033
-0.000419176
0.000322049
9.71277e-05
-0.00173204
0.00141742
0.00160945
-0.000105985
0.000825677
-3.67481e-05
-0.0016953
0.00279665
0.0012178
-0.0030347
0.00605592
-0.000477256
0.00528271
6.94591e-05
-0.00528082
0.00439161
0.00114437
-0.00553599
0.000556442
-0.000768838
0.000212397
-4.10055e-05
-0.000408016
-1.12515e-05
0.00606717
-0.000162184
0.000156828
5.35638e-06
0.000133359
2.05961e-05
0.00253825
-0.0033575
0.00081925
-0.00191835
0.000724241
0.00119411
0.00792475
-0.00345457
-0.00447017
0.00117051
0.00126419
-0.0024347
0.000106989
-0.000173427
6.64382e-05
-0.000805865
0.00133187
0.00116129
0.00318234
-0.00434363
-0.0056142
0.000165704
0.00544849
-0.00401958
0.00299413
0.00173514
0.00479469
0.00458647
0.00333827
-2.16519e-05
0.000190517
-0.000168865
-0.00130887
0.00439681
-0.00308794
0.000300388
-0.000341394
-0.000131319
-8.14857e-05
0.00410085
-0.00227581
0.00476721
-0.00501768
0.000250468
-0.00324814
0.00608336
-0.00283522
0.00252725
0.0015736
0.00575275
-0.000985539
-0.00138378
-0.00562128
0.00137264
0.00424864
0.000654648
0.000520683
-0.00117533
0.00126959
-0.000614942
0.000585388
-0.00111026
0.000524878
0.00110607
0.000272876
0.000395174
-0.000678236
0.00443136
0.00151708
-0.000394715
0.00353951
-0.00613068
0.00259117
0.00153406
-0.00258473
0.00105067
-0.00432014
0.00116466
0.00315548
0.00291332
-0.00422219
-0.00490838
-0.00125512
-0.00409961
0.00126809
0.00283152
0.00124867
0.00314814
-0.00326462
-0.000834997
0.00222668
-0.00105618
-0.000680636
-0.00253086
0.00321149
0.00240746
0.000618066
-0.00302552
-0.00159045
0.00120174
0.000388709
0.000269966
0.00148751
-0.00196595
0.000478444
-0.000110865
-0.000222747
-0.000264385
0.00015352
-0.00435446
-0.000251509
-0.000294262
0.00117503
-0.000880769
0.00435124
-0.0046453
0.000294059
-8.84238e-05
0.00011777
-2.93456e-05
0.000973365
0.00338201
-0.00435537
-0.000157004
6.85802e-05
-0.00475226
0.000710856
0.00404141
-0.00073101
0.00011683
0.000614178
8.52998e-05
-7.7741e-05
-0.000401007
0.000864669
-0.000347475
-0.000517195
-0.00603578
0.000637321
-0.00254967
-0.000128203
0.00267787
-0.00316936
0.00441802
0.00218083
-0.00108873
-0.00116718
-0.00117815
-4.28573e-05
-0.00351963
-0.00123786
0.00150716
-0.000402862
-0.0011043
0.00191917
0.0018386
-0.00375778
0.00504687
-0.00161471
-0.00343216
0.000793191
-0.00541754
-0.00137316
0.00300327
0.00195936
0.000782781
-0.00274213
-0.00349784
0.00447121
-0.000152955
2.6189e-06
0.000937597
-0.00443543
-0.00449725
-0.000148061
-0.000998276
-0.00461592
0.00463249
0.00149017
0.0035567
0.00415836
0.00114485
-0.00530322
3.63805e-05
5.91299e-05
-9.55105e-05
-0.00140626
0.00336562
0.00371824
0.00353149
-0.00139989
0.00237011
-0.000970202
-0.00248088
0.000462582
-0.000878409
0.000751433
-0.000198673
0.000410523
-0.000213068
0.00170058
0.0037634
-0.00184422
-0.00107247
-0.000599921
-0.000107162
-0.000157222
0.00355043
-0.00163336
-0.00240369
0.0046528
0.000674552
-0.0030959
0.00242135
0.000637347
0.000763277
-0.00105754
0.0020995
-0.00131442
-0.00327495
0.00458936
-0.00218225
0.00481004
-0.000553203
0.00344625
0.00023911
-0.000221791
-0.00236278
0.000962894
0.00232146
-0.00386797
0.00154652
-0.00121307
5.78025e-05
-2.14221e-05
0.00214816
-0.00279635
0.000648197
-0.00116887
-0.000421577
-0.00353127
0.00450037
0.00119344
0.0016769
-0.00287034
-0.00169024
0.00366491
-0.00197467
0.004241
-0.00085899
0.000234357
1.41093e-05
-0.000248467
-0.00372253
0.00203229
-0.00142929
0.00471962
-0.00329033
0.000877986
0.00130284
0.000163677
0.000626214
0.00025302
-0.000300702
4.76814e-05
0.00169692
0.000208623
-0.00190554
0.00301813
-0.00459075
0.00157263
-5.28483e-05
0.000374284
-0.000321436
0.0015629
-0.00036116
0.00140832
-0.000614603
-0.000793717
0.0028245
-0.00392621
0.00110171
0.00268001
-0.00374318
0.00106318
-0.00517219
0.00192405
0.00390449
-0.000886365
-0.0006344
-0.00237568
0.00301009
0.00140706
-0.00511786
0.0037108
0.00336053
-0.00145893
-0.00190161
-0.00068215
0.00172559
-0.00104344
0.00477138
-0.00303625
-0.00069615
-0.00196089
-0.00598314
0.00514131
3.86988e-06
0.0001217
-0.00012557
-0.00157866
0.00119982
0.000378837
-0.00491022
0.00630957
-0.00139936
-0.00188734
0.000720775
0.00116657
0.000403946
0.00268625
-0.00208776
-0.000598495
0.0034354
0.000489202
-0.00392461
0.000128361
-2.13715e-05
0.00517197
0.00033742
-0.00550939
-0.0019409
0.00379772
-0.00185682
0.00276937
-0.000640213
-0.00212916
0.000462546
0.000402123
-0.000437124
0.00387253
0.00202593
-0.00396683
0.000707904
-0.000265692
-0.000442212
-0.000655823
3.66979e-05
0.000619127
-0.00315169
-0.00576524
0.00576651
-0.000274815
0.000951073
-0.000676259
-0.00228839
-0.000192492
-0.00455395
0.00323952
-0.000872999
0.00113043
0.00360671
-0.00501939
0.00141268
0.000410673
-0.00296034
0.00233096
-0.0024413
0.000110333
-0.00157143
0.00148228
8.91526e-05
-0.00120927
-0.000369387
-0.00339266
0.00342818
-0.00223473
0.000457225
0.000133211
-0.0017344
0.00105225
-0.0027954
0.000744649
0.00205075
0.000242362
-8.00487e-06
-0.00347713
0.00102405
0.00245308
-0.00144482
0.00560318
0.000339557
-0.000954547
0.00061499
0.00211958
0.000649787
-0.00127774
0.000304282
0.00111441
0.00121655
-0.00142931
0.00495824
-0.00352893
-0.0048481
0.00577108
-0.000922985
-0.00117397
0.00228565
0.00410362
0.00107185
3.97109e-05
0.00586464
-0.0055298
-0.00033484
0.00355484
-0.0046604
0.00110556
0.00309266
-0.000685204
0.00542633
-0.00181962
-0.00250402
-0.000973107
-0.0021754
-0.000318354
0.00249377
0.00241205
-0.00196125
-0.00160818
-0.0042424
0.0027479
0.00149449
-0.000331167
0.00122968
0.0012143
0.00366029
-0.00487458
-0.000283964
0.000673596
0.00305957
-0.00238502
-0.00472462
-0.00125852
0.00647044
-0.00129847
0.00424057
0.00206124
0.00049776
0.00285499
-0.00212562
-0.000729371
0.00473763
-0.00245198
-7.12028e-05
-0.00332588
-0.000868016
0.0041939
0.00038814
-8.64661e-05
-0.000301674
-0.00514034
0.00610762
-0.000967273
-0.000728836
0.00190501
-0.00117617
-0.000696998
0.00525221
-0.00455522
0.00118305
-0.00191188
-0.000113204
-0.00576257
-0.000793395
0.00203182
0.00383283
-0.000249117
-0.00192629
0.0002514
-4.19959e-06
0.000362565
-0.000487846
0.00336189
-0.000823638
-0.00522676
-0.000271612
-0.000147565
0.000150184
-0.000133569
-1.6615e-05
-0.00248311
0.000124746
-0.000421869
0.00159295
-0.00101338
-0.000579573
0.00246912
0.000595595
-0.00306472
-0.000715929
0.00318504
-0.00520291
-0.000271535
0.00547444
0.00375093
0.00137465
0.00441109
-0.00122875
-0.000131056
0.00254311
0.00540384
-0.000206632
-0.00519722
-0.00608719
0.00425256
0.00183464
0.0032092
-0.0012684
-0.00435288
0.000203426
-0.000225078
0.000583456
0.000824861
0.00110654
0.000138268
-0.00124481
0.0042123
0.00119155
-0.000960653
0.00317173
-0.00221108
0.00473335
-0.00139034
-0.00217898
0.00279232
-0.000613341
-0.0011766
-0.000117091
0.000312058
-0.000194967
0.00344636
-0.00414337
0.00134458
-0.000987933
-0.000356645
0.00159607
-0.000396248
-0.00325168
0.00229102
0.00548772
-0.00434335
-3.0647e-05
0.000352697
-0.00535644
0.000446218
0.0054432
-0.00190369
-0.00100083
-0.00361529
0.00461612
-0.00064667
0.0028828
-0.00223613
0.00549726
-0.00286244
-0.00263481
-8.83978e-05
0.000591838
-0.000677146
0.000660524
1.6621e-05
-0.000688977
0.00173027
-0.0010413
-0.00314955
-0.00117058
0.00015557
-1.72031e-05
-0.00122488
-0.00478918
-0.0030761
0.00239546
-0.00055552
-0.000234372
-7.26139e-05
-8.95696e-05
-0.00120956
-0.000805792
-0.00523
-0.00283858
0.00219191
-0.00081847
0.0011877
0.0011188
0.00438439
-0.00550319
0.00339604
-0.00275556
0.000467702
0.000772293
-0.00288367
0.00211138
0.00498517
-0.0049348
-5.03614e-05
-0.00320953
0.0036156
-0.000406063
0.000207791
-9.56073e-05
-0.000112185
-0.00496104
-0.00149292
-0.00175728
0.00368937
-0.00193209
0.00298128
-0.00220898
-0.00378366
0.00202639
0.00139502
-0.00258174
0.00118671
-0.00363293
0.00568146
0.00649979
-0.00219549
-0.0043043
-0.00239918
0.00237423
2.49617e-05
0.00561259
-0.00163974
0.00118464
-0.000923686
-0.000260959
-9.12424e-06
0.000262145
0.000249413
-0.000774172
0.000524759
-0.00304749
0.00365092
-0.000970907
0.000845901
-0.00104891
0.0023632
-0.000632366
-0.00173083
0.00219976
-0.000502844
0.00452393
0.00063033
0.00173287
-0.00175387
0.00106489
0.000408598
-0.000464693
5.60949e-05
0.00221177
-0.00174417
-0.0004676
0.000831031
-0.0051478
-0.000544506
0.000369492
-0.000588346
0.000218853
-0.00410153
0.00547418
0.00094215
-0.00111662
0.000174468
-0.00152607
0.00216536
-0.000639294
-0.00149049
-0.00275191
-0.00538211
-0.000153602
0.00553572
0.000301346
0.000108296
4.18884e-05
0.000127661
-0.000127636
-2.50327e-08
0.00411729
-0.00290299
-0.0038024
-0.00232827
0.00346628
0.0030335
-0.00259462
0.00072987
0.00186475
-0.000844668
0.00223968
-0.0022976
-0.000101586
0.00272939
-0.00377744
0.00104806
0.00130734
-0.000132309
0.000461051
0.000550166
-0.0032775
0.000963302
0.0023142
0.000915108
-0.000607891
-4.79335e-05
-0.00427515
0.00172389
0.000101079
-0.00182497
-0.00396513
0.00146485
0.00250028
0.000520482
0.00147479
-0.00089134
-0.00024627
-0.00466058
0.00490686
0.000784463
-0.00247671
0.00169225
0.0012022
0.00131232
-0.000469761
-0.00171696
0.00218672
0.00258002
-0.00179556
0.00446995
-0.00353235
-0.000782675
-0.00264084
-0.000227349
0.000251737
-0.000704287
0.00176479
-0.0010605
0.00265975
-0.00366746
0.0010077
0.00013644
2.0388e-05
-0.00236366
-0.000913844
0.00142126
-0.00163648
0.000215219
-0.00277428
0.000686524
0.00127633
-0.0014188
0.000142469
0.00161854
-0.00180795
0.000189403
0.000676019
-0.00372542
-0.00116102
0.00135139
-0.00490065
0.00354926
-0.00091353
0.00357327
0.00011896
-7.92952e-05
-3.96645e-05
0.00475971
-0.0036409
-0.000315764
-0.00152997
-0.00401927
-0.00149644
0.00209167
0.000700649
-0.00101289
-0.000923468
-0.00452888
-0.00163313
-0.000389798
0.00124178
-0.000931089
-0.000310692
-0.00149615
-0.00108858
0.000656971
0.00225755
-0.00291452
-0.000114251
0.000670692
-0.000715949
3.88035e-05
-0.00245803
0.00196643
0.0013941
-0.000718558
0.00162811
-0.000909556
-8.68718e-05
-0.00011696
0.000318096
-0.00194605
0.000452468
0.00160907
-0.00231157
0.000702495
-0.00334231
0.00258142
0.000760879
0.00119712
0.00241492
-0.00361204
-0.00175401
0.00104972
-0.00294127
-0.00102385
-0.00079113
-0.00255118
-0.00167615
0.00125278
0.000423369
0.00176548
-4.15864e-05
-0.000762759
-0.0024335
0.00319626
-0.000675811
0.00291423
-0.00225725
-0.000858542
-0.0039476
0.00480616
-0.00234397
0.00233994
4.02227e-06
-0.00073101
-0.00156275
0.00054938
-0.00240511
0.00381909
-0.00141398
0.0032329
0.00288515
0.000194386
3.62294e-05
-0.000230616
0.00234033
-0.000602782
-0.00173755
0.000187983
-0.000184113
-0.00358905
0.00494045
-0.00329789
0.00524524
-0.00194735
-0.00350973
-0.00150965
-0.000914996
0.00323167
-0.00231668
0.00285707
0.00177518
-0.00418031
-0.00499443
-0.000145914
-0.000790138
0.00284747
-0.00205733
-0.000431662
0.000378814
-0.000529979
0.00167606
-0.00114609
-0.00403342
0.00334251
0.000690902
-0.00326941
0.00235441
-0.00386852
0.000674015
0.00319449
0.0014099
-0.0010141
-0.000395803
-0.00589956
0.00069665
0.00184669
-0.00141086
-0.000435822
0.00141419
-0.000401579
-0.00101261
7.83744e-05
0.000129417
0.00293257
-0.000637284
-0.00022046
-0.00348737
-0.000381149
0.000427202
-0.00305484
-0.000978582
-0.00233641
-7.55461e-06
-0.00292476
0.00229036
0.000720747
0.00260173
-0.00332248
0.000585291
-0.000860107
0.00140803
-0.0067175
0.00530947
-0.00578383
0.00098606
-0.00234214
0.00353926
0.000693003
0.000258071
-0.00273281
0.00345356
-9.68838e-05
0.00508205
0.000615094
0.00170463
-0.00231973
-0.00177621
0.00124623
0.00274699
-0.00369594
0.000948942
0.00510073
0.000667255
0.00154451
0.000317117
0.000390786
-0.000364042
-0.000404795
0.00018098
-0.00174568
0.00176684
-0.000888852
0.000862866
0.000611925
-0.000584209
0.00301093
-0.00242672
-0.00150077
0.00184372
-0.00034294
-0.00489436
0.00380295
0.00109141
-0.00480503
0.00150714
-4.01532e-05
3.9938e-05
2.15169e-07
-0.00281123
-0.000856222
0.00108156
-0.00129593
0.000214371
0.00135734
-0.0049464
0.00107954
2.69947e-05
0.00124172
0.000694286
0.00218852
-0.0036673
0.000856072
0.000193649
-0.00504175
0.00190382
0.00121501
0.000689997
-0.00527288
-0.000492357
0.00565332
0.00118546
0.0071074
-0.00218512
-0.00492228
0.00079107
-0.00038094
-0.000410132
0.000716976
-0.0013824
0.000782473
-0.00386045
-0.00125741
0.000312058
-0.000936937
-0.000419403
0.00135634
0.00233002
0.00400855
-0.00486709
0.00270263
0.000834686
-0.00353732
0.00124967
-0.000963194
-0.000286474
0.000745233
0.00159509
-0.000135059
0.000138285
-3.22609e-06
-0.000709924
0.0028836
-0.00217368
0.0036215
0.00109812
-0.00126186
-0.000414294
0.00142298
-0.00156232
0.000139344
4.7495e-05
7.14648e-05
-0.00447713
0.000967394
-0.00165277
0.000443498
-0.00364821
0.00293227
-0.000948355
6.94051e-05
0.000934873
0.00267978
-0.00361466
0.000845283
-0.00126319
0.00419037
-0.00292718
0.000318576
0.00027989
4.65557e-05
-0.000326447
7.83273e-05
-0.00539167
0.00531334
-0.00263261
-0.000779318
0.00341194
-0.00349335
0.00260859
0.000884764
-0.00277321
-0.000261543
-0.00171384
-0.00490778
0.000888502
-0.00145531
-0.000881095
-0.00106298
0.00379237
0.001709
-0.003726
0.002017
0.000105163
2.24986e-05
0.00372616
-0.00201716
0.00286321
0.00096063
-0.00382383
-0.00130213
0.00174118
-0.000439043
0.00357437
0.00110121
-0.00467558
0.00718713
-0.00197267
-0.00521446
-0.00212751
-0.000711067
-0.00172927
0.00234436
0.00377272
-0.00492767
0.00115495
-0.00280256
0.00373743
0.0011337
8.14669e-06
-0.00114185
0.00148097
0.000907617
-0.005507
0.00059862
0.000431557
0.000359513
0.00292153
-0.00112165
-0.00252053
0.00247944
4.10877e-05
0.000504793
-0.00184048
0.00133568
-0.00386912
-0.00119305
0.00108909
-0.00254441
-0.00529912
0.000151319
-0.00125019
-0.000523336
0.00177352
0.0056375
-0.00449264
0.000104317
0.000283824
-0.00301618
0.00318902
0.00144084
-0.00107185
-0.000368986
0.00346912
0.00475974
-0.000956795
0.000644573
-0.00327718
0.00109077
-0.000973941
-5.28824e-05
0.00046148
0.000394002
-1.97179e-05
-0.00207183
-0.000453131
0.00153469
-0.000911936
-0.0034974
0.000764599
-2.6837e-05
-1.33162e-05
0.00599853
-0.00492077
0.00522196
-0.00439444
7.96465e-06
-0.000614178
0.000606213
0.00194886
-0.000458374
-0.00149048
0.00335876
-0.000757029
-0.00256801
0.00336099
-0.000792976
-0.00183392
0.000531786
0.00127764
-0.000951494
-0.00032615
-0.000118766
-0.000210171
0.00205909
-0.000548269
-0.00151082
-0.00138265
-0.00239448
-0.000126042
0.00208948
-0.0027456
0.000656113
0.00280643
-0.000750484
-0.00205595
0.0041034
-0.00434966
0.000314451
0.00224165
-0.000632583
-0.000682616
0.000834704
-0.00367883
0.00503616
0.00122387
0.000469032
-0.00171922
-0.00286542
0.0020965
0.00363317
0.00158879
-0.00113836
-0.00383086
-0.00114361
0.00130341
-0.00171764
0.000414229
0.00367524
-0.00318605
-0.000193841
0.00113599
-3.84927e-05
-0.000269591
0.000308084
-0.000696474
-0.00189815
0.00377225
-0.00490928
0.00113705
-0.00186453
0.00235291
-0.000488382
-0.00115542
0.00213253
0.000751063
-0.00226257
0.00375485
-0.00149229
0.00150474
-0.00114092
-0.000363821
-0.00100948
0.000278468
0.000179789
-0.000434573
0.000254784
-0.000424908
-0.00122787
-0.00248004
0.00250411
-2.4069e-05
0.001449
-0.00371157
0.00162497
-0.00037218
0.000372723
-0.000424042
5.13184e-05
-0.000827055
0.000593642
0.000233413
-0.000794775
-0.0028505
0.000831013
0.00201949
-0.00199582
-0.000852691
-0.000713647
0.00156634
-0.00524406
0.00389628
0.00134777
-0.00125703
0.001265
-0.000576391
-0.000115924
0.000692315
0.00286858
-0.000736053
-0.000770388
-0.000160181
0.000930569
0.00184078
-0.00137175
0.00169749
-0.000394077
-0.000166262
-0.000635412
-0.00420451
0.00483993
-0.00139007
0.00283085
0.00427655
-0.00239918
-8.0859e-05
0.00312066
-0.00473538
0.000733421
0.00158133
-0.00231475
0.00200951
-0.00279964
0.00199395
-0.000726888
-0.00126706
-0.00179592
0.00045581
0.00134011
0.00431872
0.00286841
-0.00551839
0.00133608
0.00418231
-0.0012516
-0.00399245
-0.000460092
-0.00133583
-0.00100111
-0.000561647
-0.00129247
-0.000425172
0.00114446
-0.000532533
0.00150764
-0.000975103
-0.0017571
0.00129701
-0.000944474
-0.000207209
0.00115168
0.00217138
-0.00286735
0.000695973
-1.17717e-05
0.000206157
0.00103483
0.00606382
-0.00141096
-0.00465287
-0.0020353
-0.00187326
0.00133782
0.000535443
0.00127081
-0.000978676
-0.00029213
-0.00229232
-0.00102705
0.00331938
-0.00267012
0.0035829
-0.000912778
-0.000920313
0.00111569
8.37127e-06
-0.00112405
0.00376123
-0.00493698
0.00117574
0.00174748
-0.00135539
-0.000392087
0.00242708
-0.00122487
0.00273937
-0.000635672
-0.000191383
-0.00408998
0.00229211
-0.0018024
-0.000489714
0.00056074
-0.00200916
0.00144842
-0.00251481
-0.000842694
0.000860016
-0.000658888
-0.000201129
-0.00018053
-0.00364306
0.000972942
0.000647626
-0.000467836
0.00259123
0.000991666
0.000319314
0.00130795
0.000686
-0.00160322
0.00233664
-0.00150217
0.000987519
0.000514651
0.00355028
-0.000687063
-0.00381053
0.00610364
-0.00114805
-0.00248808
0.00683164
-0.00434356
-0.000888337
0.00356812
-0.00414181
0.000932291
-0.00210133
0.00424938
-0.000692938
-0.00161863
-0.00245094
0.00171262
0.000738323
-0.00127984
0.000422774
-0.00046263
3.98563e-05
-0.00137526
-0.000776753
-0.000153618
0.000930371
-0.00156424
0.0013621
0.00020214
0.00203724
0.000810228
6.26357e-05
-0.0013002
-0.000556015
-0.000826379
-0.00242059
-0.000479197
-0.00139407
-0.000171354
0.00159261
-0.000180686
0.00341123
-0.000514034
0.00133897
0.000200618
-0.000808561
-0.00098057
-0.00192998
0.00247687
-0.000546895
-0.00104376
-0.00572891
0.0035108
0.00148158
-0.000618712
0.0028886
-0.00121171
0.000963585
-0.00135891
-0.00453033
0.00588924
0.000620384
-0.00255036
0.000741075
-0.00369001
0.00269821
0.000991794
0.000889587
-0.00142212
0.00222586
-0.00311837
0.000892497
0.00119614
-0.00342973
0.00223359
0.000861077
0.00168779
-0.00254886
-0.000174693
0.00179323
0.00274297
0.00107983
0.00361955
-0.000413521
0.000783012
0.00315852
-0.00402653
0.000983582
-0.00327589
0.000435626
0.00412572
0.00147242
-1.0994e-05
-0.000274354
0.000285348
-0.00619343
0.00385637
0.00233706
-0.000829404
-0.00261494
0.00344434
0.00263982
-0.00177875
-0.00369695
0.000894388
-0.00132138
-0.00043572
-0.000152872
0.00131977
0.00372805
0.00123018
0.000224344
0.00130878
-0.000992517
-0.00031626
0.000897023
0.000584557
-0.000313816
0.00376787
-0.00493479
0.00116691
0.00307868
-0.000852825
-0.00139852
0.00190331
0.00125774
-0.00355426
0.00229652
-0.00116911
0.001456
0.000678351
-0.00213435
0.000193077
-0.000204071
0.00219878
-0.000861432
-0.0012481
0.0003301
0.000925335
-0.000349117
-0.000576218
0.00353263
-0.00227489
-0.000508686
0.00229167
-0.00178299
0.00101926
-0.00296837
0.00208194
0.000886433
0.000106051
-8.88151e-07
0.00467019
0.000541891
-0.00570332
-0.00519689
0.00392745
0.00126946
-0.00107843
-0.00269448
0.00377291
0.00222131
0.00372509
0.00282685
-0.00375385
0.000927001
-0.0014699
0.00110051
-0.00095667
0.00337433
-0.00241766
0.00149683
0.000562261
-0.00378509
-0.00240834
0.00108156
-0.00230343
0.00321465
-0.000911225
0.00343467
-0.000826073
0.000397099
-0.000813272
0.00254297
0.000891698
-0.000635335
0.00431058
-0.00130869
0.00171616
-0.000407477
0.00199718
-0.00127293
-0.000390063
0.00607686
-0.00492247
-0.000459638
0.000858538
-0.00246176
-0.00539151
-0.00172224
0.000413553
-0.000678148
0.000101757
-0.000870097
0.000213016
-0.0014681
0.0006704
0.00157125
-0.000905432
0.000135043
0.000805276
0.00251592
-0.0033212
-0.00109513
0.00187365
-0.00194679
-0.000474322
0.00196106
-0.00148674
-0.000884347
-0.00208402
-0.00195167
0.00147735
-0.00265746
0.00346273
-0.00163947
0.000585045
0.00105442
-0.000981939
0.00357317
0.00601823
-0.00229999
-0.00130244
-0.000419797
-0.0017406
0.00109988
0.000640724
0.000905574
-0.00452006
0.00361449
-0.00131328
0.000544765
0.000768507
-0.00403529
-0.0011616
0.000191727
-0.0011362
0.00193889
-0.000723879
-0.00134643
-0.00380475
0.00515118
0.000999902
7.19493e-05
0.00329702
-0.00252776
-0.000769258
0.000141673
0.00127252
0.000876623
-0.000669669
-0.000206955
-0.00134484
-0.00101794
-0.00108404
0.00512352
-0.00403948
0.000633432
-0.00249796
0.000129302
0.00129368
0.00377364
-0.00496213
0.00118849
0.00287978
-0.00204877
0.000101854
-0.000168355
6.65008e-05
0.00102939
0.000138089
0.000104273
0.00235916
0.00370466
-0.000583302
-0.000806883
0.00139019
0.000652946
0.00177126
-0.0024242
0.00240264
-0.00170485
-0.000697786
0.000475766
0.00147309
0.000426097
-0.000512849
-0.000800424
0.00059926
-0.00532389
0.000690391
-2.98675e-05
-0.00116114
-0.0013174
-0.00379035
0.00510774
0.00103093
0.00143698
-0.00189535
0.00254633
-0.000394696
-0.00490877
0.00530347
0.000120596
-1.87415e-05
0.000659849
0.00127904
0.00272918
0.000943611
-0.00367279
0.00137501
0.000471673
0.00258725
-0.00364023
0.00454581
0.00277382
0.000843613
-0.00361743
0.00163622
-0.000838982
-0.000797236
0.00132811
-0.00101864
-0.000309474
0.0004237
0.00106004
-0.00470028
0.000217736
-6.95996e-06
0.000200037
0.00604218
-0.00128248
0.00152589
-0.00212868
0.00252751
-0.0018229
-0.00070461
0.00086358
-0.00254599
0.00168242
0.00523463
-0.0028165
-0.000926677
-0.00158736
0.00501047
0.00148635
-0.00178137
0.000295027
0.000499724
-0.000103776
-0.000395947
-0.000996714
-0.0031396
0.00413632
0.000743018
0.00181908
-0.0025621
0.00176755
-0.000281195
0.00224817
0.00140595
-0.000861186
-0.000937442