/*--------------------------------*- C++ -*----------------------------------*\
  =========                 |
  \\      /  F ield         | OpenFOAM: The Open Source CFD Toolbox
   \\    /   O peration     | Website:  https://openfoam.org
    \\  /    A nd           | Version:  7
     \\/     M anipulation  |
\*---------------------------------------------------------------------------*/
FoamFile
{
    version     2.0;
    format      ascii;
    class       volVectorField;
    location    "1.5";
    object      U;
}
// * * * * * * * * * * * * * * * * * * * * * * * * * * * * * * * * * * * * * //

dimensions      [0 1 -1 0 0 0 0];

internalField   nonuniform List<vector> 
135168
(
(1.4 -1.81697e-17 0)
(1.4 6.97818e-17 0)
(1.4 9.24645e-17 0)
(1.4 -2.62948e-17 0)
(1.4 -7.87663e-17 0)
(1.4 1.31827e-17 0)
(1.4 3.25275e-17 0)
(1.4 7.29536e-17 0)
(1.4 1.18071e-16 0)
(1.4 9.59209e-17 0)
(1.4 7.29418e-17 0)
(1.4 4.25745e-17 0)
(1.4 -2.0177e-17 0)
(1.4 2.27228e-17 0)
(1.4 4.91428e-17 0)
(1.4 2.47225e-17 0)
(1.4 6.51545e-17 0)
(1.4 1.53974e-16 0)
(1.4 1.77209e-16 0)
(1.4 2.70786e-17 0)
(1.4 -2.08037e-17 0)
(1.4 -1.08837e-16 0)
(1.4 -1.38639e-16 0)
(1.4 -1.94447e-16 0)
(1.4 -2.29177e-16 0)
(1.4 -3.03845e-16 0)
(1.4 -3.0616e-16 0)
(1.4 -2.40048e-16 0)
(1.4 -1.61403e-16 0)
(1.4 -1.38887e-16 0)
(1.4 -6.81665e-17 0)
(1.4 -3.05992e-16 0)
(1.4 -3.8989e-16 0)
(1.4 -5.06427e-16 0)
(1.4 -6.80182e-16 0)
(1.4 -8.49154e-16 0)
(1.4 -8.22063e-16 0)
(1.4 -8.0138e-16 0)
(1.4 -8.26928e-16 0)
(1.4 -7.43183e-16 0)
(1.4 -7.27195e-16 0)
(1.4 -6.18858e-16 0)
(1.4 -5.36959e-16 0)
(1.4 -5.43009e-16 0)
(1.4 -5.86688e-16 0)
(1.4 -5.48105e-16 0)
(1.4 -4.87973e-16 0)
(1.4 -4.50906e-16 0)
(1.4 -4.33937e-16 0)
(1.4 1.39867e-16 0)
(1.4 2.58121e-16 0)
(1.4 4.60559e-16 0)
(1.4 8.07425e-16 0)
(1.4 8.56902e-16 0)
(1.4 8.50854e-16 0)
(1.4 8.46443e-16 0)
(1.4 8.22422e-16 0)
(1.4 8.60537e-16 0)
(1.4 9.14288e-16 0)
(1.4 6.39228e-16 0)
(1.4 2.86018e-16 0)
(1.4 1.09242e-16 0)
(1.4 -2.25673e-17 0)
(1.4 -1.81144e-16 0)
(1.4 -2.54395e-16 0)
(1.4 -2.31062e-16 0)
(1.4 -8.73203e-17 0)
(1.4 -8.71296e-17 0)
(1.4 -1.55194e-16 0)
(1.4 -2.7379e-16 0)
(1.4 -2.66523e-16 0)
(1.4 -3.18338e-16 0)
(1.4 -3.65402e-16 0)
(1.4 -4.23864e-16 0)
(1.4 -3.22005e-16 0)
(1.4 -2.57018e-16 0)
(1.4 -2.21168e-16 0)
(1.4 -2.23827e-16 0)
(1.4 -1.98595e-16 0)
(1.4 -7.6253e-18 0)
(1.4 1.48258e-16 0)
(1.4 2.47448e-16 0)
(1.4 1.86354e-16 0)
(1.4 1.45178e-16 0)
(1.4 2.01167e-16 0)
(1.4 1.86393e-16 0)
(1.4 1.64834e-16 0)
(1.4 1.79133e-16 0)
(1.4 1.91168e-16 0)
(1.4 2.73058e-16 0)
(1.4 3.9119e-16 0)
(1.4 2.03323e-16 0)
(1.4 -6.06417e-17 0)
(1.4 -1.07899e-16 0)
(1.4 -7.78859e-17 0)
(1.4 -1.28799e-16 0)
(1.4 -5.37767e-16 0)
(1.4 -1.06907e-15 0)
(1.4 -1.26343e-15 0)
(1.4 -1.39545e-15 0)
(1.4 -1.58149e-15 0)
(1.4 -1.47776e-15 0)
(1.4 -1.2812e-15 0)
(1.4 -1.25162e-15 0)
(1.4 -1.19439e-15 0)
(1.4 -1.0837e-15 0)
(1.4 -9.29647e-16 0)
(1.4 -8.54094e-16 0)
(1.4 -8.00793e-16 0)
(1.4 -7.73313e-16 0)
(1.4 -6.56025e-16 0)
(1.4 -5.53756e-16 0)
(1.4 -4.48218e-16 0)
(1.4 -3.13428e-16 0)
(1.4 -3.29189e-17 0)
(1.4 1.49935e-17 0)
(1.4 8.1716e-18 0)
(1.4 -1.81638e-17 0)
(1.4 -1.69934e-17 0)
(1.4 1.04212e-16 0)
(1.4 3.67291e-16 0)
(1.4 8.48657e-16 0)
(1.4 9.31785e-16 0)
(1.4 1.06983e-15 0)
(1.4 1.30418e-15 0)
(1.4 1.14883e-15 0)
(1.4 1.09042e-15 0)
(1.4 9.65051e-16 0)
(1.4 8.61067e-16 0)
(1.4 5.80449e-16 0)
(1.4 5.09167e-16 0)
(1.4 5.26225e-16 0)
(1.4 6.50731e-16 0)
(1.4 7.47124e-16 0)
(1.4 7.66982e-16 0)
(1.4 7.52781e-16 0)
(1.4 7.46895e-16 0)
(1.4 7.6363e-16 0)
(1.4 6.97026e-16 0)
(1.4 9.69676e-16 0)
(1.4 8.09932e-16 0)
(1.4 1.80229e-16 0)
(1.4 9.74682e-17 0)
(1.4 -7.29157e-17 0)
(1.4 -1.73685e-16 0)
(1.4 -2.71234e-16 0)
(1.4 -3.12422e-16 0)
(1.4 -3.25244e-16 0)
(1.4 -2.55746e-16 0)
(1.4 -2.0394e-16 0)
(1.4 -1.25472e-16 0)
(1.4 -2.20801e-16 0)
(1.4 -2.9576e-16 0)
(1.4 -4.96065e-16 0)
(1.4 -5.57992e-16 0)
(1.4 -6.80661e-16 0)
(1.4 -8.23597e-16 0)
(1.4 -2.92801e-16 0)
(1.4 -7.56279e-16 0)
(1.4 -8.70874e-16 0)
(1.4 -8.88887e-16 0)
(1.4 -7.53837e-16 0)
(1.4 -6.59441e-16 0)
(1.4 -6.70492e-16 0)
(1.4 -7.63521e-16 0)
(1.4 -7.61764e-16 0)
(1.4 -6.7556e-16 0)
(1.4 -4.33863e-16 0)
(1.4 -1.37806e-16 0)
(1.4 3.07904e-16 0)
(1.4 5.33834e-16 0)
(1.4 8.12894e-16 0)
(1.4 7.85696e-16 0)
(1.4 5.66828e-16 0)
(1.4 6.42734e-16 0)
(1.4 5.29481e-16 0)
(1.4 3.83323e-16 0)
(1.4 3.96713e-16 0)
(1.4 4.54759e-16 0)
(1.4 4.30556e-16 0)
(1.4 4.84697e-16 0)
(1.4 4.81702e-16 0)
(1.4 3.66076e-16 0)
(1.4 2.985e-16 0)
(1.4 3.12277e-16 0)
(1.4 2.95781e-16 0)
(1.4 2.65825e-16 0)
(1.4 2.45383e-16 0)
(1.4 2.40252e-16 0)
(1.4 2.79135e-16 0)
(1.4 2.09303e-16 0)
(1.4 2.80801e-16 0)
(1.4 6.81478e-16 0)
(1.4 9.30644e-16 0)
(1.4 8.9228e-16 0)
(1.4 1.11754e-15 0)
(1.4 1.28917e-15 0)
(1.4 1.2365e-15 0)
(1.4 1.128e-15 0)
(1.4 1.14635e-15 0)
(1.4 1.04271e-15 0)
(1.4 9.17041e-16 0)
(1.4 7.84924e-16 0)
(1.4 4.75288e-16 0)
(1.4 3.39352e-16 0)
(1.4 3.24329e-16 0)
(1.4 2.91036e-16 0)
(1.4 4.48921e-16 0)
(1.4 7.22078e-16 0)
(1.4 8.55823e-16 0)
(1.4 1.01297e-15 0)
(1.4 1.21151e-15 0)
(1.4 1.32125e-15 0)
(1.4 1.3994e-15 0)
(1.4 1.3836e-15 0)
(1.4 1.30689e-15 0)
(1.4 1.42849e-15 0)
(1.4 1.72058e-15 0)
(1.4 1.95638e-15 0)
(1.4 1.27017e-15 0)
(1.4 1.03455e-15 0)
(1.4 8.12187e-16 0)
(1.4 6.42833e-16 0)
(1.4 2.13009e-16 0)
(1.4 -2.03514e-16 0)
(1.4 -3.68532e-16 0)
(1.4 -3.3022e-16 0)
(1.4 -2.97335e-16 0)
(1.4 -3.26048e-16 0)
(1.4 -2.27925e-16 0)
(1.4 1.12103e-16 0)
(1.4 3.25032e-16 0)
(1.4 6.11047e-16 0)
(1.4 5.9132e-16 0)
(1.4 3.83692e-16 0)
(1.4 -2.44577e-16 0)
(1.4 -3.25719e-16 0)
(1.4 -8.17689e-16 0)
(1.4 -1.08435e-15 0)
(1.4 -1.52272e-15 0)
(1.4 -1.67272e-15 0)
(1.4 -1.65283e-15 0)
(1.4 -1.60007e-15 0)
(1.4 -1.77985e-15 0)
(1.4 -1.56462e-15 0)
(1.4 -1.45491e-15 0)
(1.4 -1.51953e-15 0)
(1.4 -1.45678e-15 0)
(1.4 -1.46458e-15 0)
(1.4 -1.37723e-15 0)
(1.4 -1.17865e-15 0)
(1.4 -9.1236e-16 0)
(1.4 -7.97821e-16 0)
(1.4 -6.93132e-16 0)
(1.4 -7.37101e-16 0)
(1.4 -4.88764e-16 0)
(1.4 -3.14885e-16 0)
(1.4 -5.48665e-16 0)
(1.4 -6.26669e-16 0)
(1.4 -7.35329e-16 0)
(1.4 -8.50339e-16 0)
(1.4 -8.36195e-16 0)
(1.4 -8.21165e-16 0)
(1.4 -8.7097e-16 0)
(1.4 -9.14019e-16 0)
(1.4 -9.82834e-16 0)
(1.4 -1.11072e-15 0)
(1.4 -1.12318e-15 0)
(1.4 -1.22984e-15 0)
(1.4 -1.10336e-15 0)
(1.4 -1.08052e-15 0)
(1.4 -1.10033e-15 0)
(1.4 -1.25343e-15 0)
(1.4 -1.27829e-15 0)
(1.4 -1.34376e-15 0)
(1.4 -1.64323e-15 0)
(1.4 -1.67827e-15 0)
(1.4 -1.72849e-15 0)
(1.4 -1.8621e-15 0)
(1.4 -1.94203e-15 0)
(1.4 -2.02633e-15 0)
(1.4 -2.11398e-15 0)
(1.4 -2.01232e-15 0)
(1.4 -1.8116e-15 0)
(1.4 -1.77947e-15 0)
(1.4 -1.70347e-15 0)
(1.4 -1.55844e-15 0)
(1.4 -1.72192e-15 0)
(1.4 -1.82901e-15 0)
(1.4 -1.96671e-15 0)
(1.4 -1.80049e-15 0)
(1.4 -1.71603e-15 0)
(1.4 -1.62637e-15 0)
(1.4 -1.53897e-15 0)
(1.4 -1.66587e-15 0)
(1.4 -1.75488e-15 0)
(1.4 -1.68759e-15 0)
(1.4 -1.63217e-15 0)
(1.4 -1.32432e-15 0)
(1.4 -1.12029e-15 0)
(1.4 -1.02474e-15 0)
(1.4 -1.00577e-15 0)
(1.4 -1.0619e-15 0)
(1.4 -1.14228e-15 0)
(1.4 -1.25787e-15 0)
(1.4 -1.38524e-15 0)
(1.4 -1.60722e-15 0)
(1.4 -1.62227e-15 0)
(1.4 -1.56465e-15 0)
(1.4 -1.51292e-15 0)
(1.4 -1.52602e-15 0)
(1.4 -1.5729e-15 0)
(1.4 -1.50271e-15 0)
(1.4 -1.41207e-15 0)
(1.4 -1.35281e-15 0)
(1.4 -1.23754e-15 0)
(1.4 -1.25011e-15 0)
(1.4 -1.31321e-15 0)
(1.4 -1.35599e-15 0)
(1.4 -1.34847e-15 0)
(1.4 -1.37066e-15 0)
(1.4 -1.445e-15 0)
(1.4 -1.43364e-15 0)
(1.4 -1.45498e-15 0)
(1.4 -1.36592e-15 0)
(1.4 -1.07751e-15 0)
(1.4 -7.36849e-16 0)
(1.4 -6.40924e-16 0)
(1.4 -5.2968e-16 0)
(1.4 -4.89257e-16 0)
(1.4 -3.97317e-16 0)
(1.4 -5.54876e-16 0)
(1.4 -7.76135e-16 0)
(1.4 -1.13185e-15 0)
(1.4 -9.8272e-16 0)
(1.4 -8.63082e-16 0)
(1.4 -8.47963e-16 0)
(1.4 -7.30183e-16 0)
(1.4 -7.56941e-16 0)
(1.4 -4.34446e-16 0)
(1.4 -2.70124e-16 0)
(1.4 -1.1219e-16 0)
(1.4 1.65973e-16 0)
(1.4 2.78996e-16 0)
(1.4 3.07717e-16 0)
(1.4 4.26119e-16 0)
(1.4 5.1319e-16 0)
(1.4 2.13225e-16 0)
(1.4 1.2093e-16 0)
(1.4 6.28191e-17 0)
(1.4 4.98286e-17 0)
(1.4 -1.41338e-16 0)
(1.4 -1.4618e-16 0)
(1.4 -2.85647e-16 0)
(1.4 -3.81792e-16 0)
(1.4 -3.68669e-16 0)
(1.4 -3.69545e-16 0)
(1.4 -3.66784e-16 0)
(1.4 -5.33075e-16 0)
(1.4 -6.16058e-16 0)
(1.4 -5.81379e-16 0)
(1.4 -5.93179e-16 0)
(1.4 -6.13989e-16 0)
(1.4 -5.91557e-16 0)
(1.4 -6.42237e-16 0)
(1.4 -8.07131e-16 0)
(1.4 -7.26316e-16 0)
(1.4 -6.07243e-16 0)
(1.4 -4.44241e-16 0)
(1.4 -3.42567e-16 0)
(1.4 -4.84606e-16 0)
(1.4 -5.48185e-16 0)
(1.4 -8.41221e-16 0)
(1.4 -1.0317e-15 0)
(1.4 -1.1448e-15 0)
(1.4 -1.04992e-15 0)
(1.4 -9.05388e-16 0)
(1.4 -7.41854e-16 0)
(1.4 -4.75376e-16 0)
(1.4 -2.49863e-16 0)
(1.4 -2.91949e-16 0)
(1.4 -1.86894e-16 0)
(1.4 -3.42279e-16 0)
(1.4 1.05145e-15 0)
(1.4 7.17744e-17 0)
(1.4 1.54664e-16 0)
(1.4 1.84988e-16 0)
(1.4 1.30437e-16 0)
(1.4 9.04181e-17 0)
(1.4 4.50767e-17 0)
(1.4 -1.12751e-16 0)
(1.4 -1.56442e-16 0)
(1.4 -1.80879e-16 0)
(1.4 -1.8355e-16 0)
(1.4 -1.9548e-16 0)
(1.4 -2.79575e-16 0)
(1.4 -3.91473e-16 0)
(1.4 -3.36956e-16 0)
(1.4 -3.09302e-16 0)
(1.4 -3.32128e-16 0)
(1.4 -4.33946e-16 0)
(1.4 -4.26351e-16 0)
(1.4 -3.29937e-16 0)
(1.4 -3.61201e-16 0)
(1.4 -3.87296e-16 0)
(1.4 -3.56112e-16 0)
(1.4 -4.21027e-16 0)
(1.4 -5.72568e-16 0)
(1.4 -7.44971e-16 0)
(1.4 -1.22418e-15 0)
(1.4 -1.36715e-15 0)
(1.4 -1.38177e-15 0)
(1.4 -1.46168e-15 0)
(1.4 -1.47339e-15 0)
(1.4 -1.51019e-15 0)
(1.4 -1.53364e-15 0)
(1.4 -1.32309e-15 0)
(1.4 -1.05204e-15 0)
(1.4 -8.94426e-16 0)
(1.4 -8.44827e-16 0)
(1.4 -8.67569e-16 0)
(1.4 -8.84719e-16 0)
(1.4 -8.60556e-16 0)
(1.4 -6.34314e-16 0)
(1.4 -3.97051e-16 0)
(1.4 -1.41728e-16 0)
(1.4 1.6829e-16 0)
(1.4 1.21018e-16 0)
(1.4 -4.92294e-17 0)
(1.4 -5.71831e-17 0)
(1.4 1.72144e-16 0)
(1.4 6.12793e-16 0)
(1.4 8.90649e-16 0)
(1.4 1.59995e-15 0)
(1.4 1.93244e-15 0)
(1.4 2.13443e-15 0)
(1.4 2.19964e-15 0)
(1.4 2.16756e-15 0)
(1.4 2.2532e-15 0)
(1.4 2.03502e-15 0)
(1.4 2.07807e-15 0)
(1.4 2.11861e-15 0)
(1.4 1.9077e-15 0)
(1.4 1.44374e-15 0)
(1.4 9.76608e-16 0)
(1.4 5.40497e-16 0)
(1.4 1.56291e-16 0)
(1.4 -8.56439e-17 0)
(1.4 -1.74648e-16 0)
(1.4 -4.6575e-16 0)
(1.4 -5.48437e-16 0)
(1.4 -4.07384e-16 0)
(1.4 -6.05167e-16 0)
(1.4 -7.72194e-16 0)
(1.4 -1.03525e-15 0)
(1.4 -1.14939e-15 0)
(1.4 -1.26914e-15 0)
(1.4 -1.15887e-15 0)
(1.4 -9.72869e-16 0)
(1.4 -8.46591e-16 0)
(1.4 -7.12506e-16 0)
(1.4 -7.67591e-16 0)
(1.4 -5.50392e-16 0)
(1.4 -3.72181e-16 0)
(1.4 -3.24442e-16 0)
(1.4 -2.88576e-16 0)
(1.4 -1.89395e-16 0)
(1.4 -2.43181e-17 0)
(1.4 2.41883e-16 0)
(1.4 2.65403e-16 0)
(1.4 6.20301e-17 0)
(1.4 -5.60338e-17 0)
(1.4 -2.41217e-16 0)
(1.4 -2.6938e-16 0)
(1.4 -3.01381e-16 0)
(1.4 -5.33603e-16 0)
(1.4 -1.14402e-15 0)
(1.4 -1.28095e-15 0)
(1.4 -1.18422e-15 0)
(1.4 -1.13792e-15 0)
(1.4 -1.45206e-15 0)
(1.4 -1.70006e-15 0)
(1.4 -2.02759e-15 0)
(1.4 -2.3056e-15 0)
(1.4 -2.43165e-15 0)
(1.4 -2.36939e-15 0)
(1.4 -2.10151e-15 0)
(1.4 -1.58953e-15 0)
(1.4 -1.42475e-15 0)
(1.4 -1.3893e-15 0)
(1.4 -1.36021e-15 0)
(1.4 -1.35225e-15 0)
(1.4 -1.4863e-15 0)
(1.4 -1.6371e-15 0)
(1.4 -1.62889e-15 0)
(1.4 -1.63322e-15 0)
(1.4 -1.28706e-15 0)
(1.4 -8.15567e-16 0)
(1.4 -5.37784e-16 0)
(1.4 -1.21254e-16 0)
(1.4 4.84011e-17 0)
(1.4 5.85645e-17 0)
(1.4 1.99234e-16 0)
(1.4 6.6973e-16 0)
(1.4 1.17615e-15 0)
(1.4 1.3767e-15 0)
(1.4 1.48166e-15 0)
(1.4 1.85737e-15 0)
(1.4 2.15804e-15 0)
(1.4 2.23805e-15 0)
(1.4 2.16287e-15 0)
(1.4 2.22282e-15 0)
(1.4 2.27129e-15 0)
(1.4 2.25284e-15 0)
(1.4 2.15357e-15 0)
(1.4 2.2065e-15 0)
(1.4 2.09012e-15 0)
(1.4 1.93211e-15 0)
(1.4 1.61744e-15 0)
(1.4 1.39922e-15 0)
(1.4 1.15856e-15 0)
(1.4 6.86336e-16 0)
(1.4 7.81069e-16 0)
(1.4 1.27807e-15 0)
(1.4 8.68626e-16 0)
(1.4 -6.17342e-16 0)
(1.4 -8.50734e-16 0)
(1.4 -8.00077e-16 0)
(1.4 -1.00589e-15 0)
(1.4 -1.0837e-15 0)
(1.4 -1.14383e-15 0)
(1.4 -1.47333e-15 0)
(1.4 -1.62891e-15 0)
(1.4 -1.62821e-15 0)
(1.4 -1.74627e-15 0)
(1.4 -1.89073e-15 0)
(1.4 -1.9206e-15 0)
(1.4 -1.82728e-15 0)
(1.4 -2.01024e-15 0)
(1.4 -2.22918e-15 0)
(1.4 -2.19235e-15 0)
(1.4 -1.70893e-15 0)
(1.4 -2.04322e-15 0)
(1.4 -1.98484e-15 0)
(1.4 -1.88027e-15 0)
(1.4 -1.55135e-15 0)
(1.4 -1.49707e-15 0)
(1.4 -1.36201e-15 0)
(1.4 -1.32102e-15 0)
(1.4 -1.25516e-15 0)
(1.4 -1.24515e-15 0)
(1.4 -8.67761e-16 0)
(1.4 -3.26725e-16 0)
(1.4 2.1512e-16 0)
(1.4 2.11453e-16 0)
(1.4 2.58147e-16 0)
(1.4 4.40536e-16 0)
(1.4 4.9602e-16 0)
(1.4 7.59449e-16 0)
(1.4 8.56255e-16 0)
(1.4 1.01109e-15 0)
(1.4 1.22529e-15 0)
(1.4 1.5122e-15 0)
(1.4 1.75337e-15 0)
(1.4 1.76203e-15 0)
(1.4 1.55293e-15 0)
(1.4 1.35342e-15 0)
(1.4 1.23531e-15 0)
(1.4 1.08003e-15 0)
(1.4 9.24623e-16 0)
(1.4 7.96371e-16 0)
(1.4 7.73438e-16 0)
(1.4 7.69989e-16 0)
(1.4 7.12242e-16 0)
(1.4 2.33584e-16 0)
(1.4 3.30271e-16 0)
(1.4 6.42704e-16 0)
(1.4 3.8162e-16 0)
(1.4 3.30276e-16 0)
(1.4 1.53958e-16 0)
(1.4 2.07271e-16 0)
(1.4 5.28782e-16 0)
(1.4 9.66828e-16 0)
(1.4 1.07919e-15 0)
(1.4 1.20887e-15 0)
(1.4 1.26816e-15 0)
(1.4 1.41241e-15 0)
(1.4 1.40137e-15 0)
(1.4 1.23015e-15 0)
(1.4 9.44107e-16 0)
(1.4 9.28676e-16 0)
(1.4 9.36073e-16 0)
(1.4 1.21365e-15 0)
(1.4 1.53733e-15 0)
(1.4 1.65966e-15 0)
(1.4 1.80486e-15 0)
(1.4 1.95426e-15 0)
(1.4 2.14266e-15 0)
(1.4 2.08028e-15 0)
(1.4 1.88032e-15 0)
(1.4 2.08508e-15 0)
(1.4 2.83537e-15 0)
(1.4 2.97462e-15 0)
(1.4 2.32585e-15 0)
(1.4 1.84344e-15 0)
(1.4 1.80136e-15 0)
(1.4 1.43303e-15 0)
(1.4 9.88223e-16 0)
(1.4 6.59827e-16 0)
(1.4 3.16245e-16 0)
(1.4 2.7744e-16 0)
(1.4 2.15937e-16 0)
(1.4 1.01271e-16 0)
(1.4 2.64363e-16 0)
(1.4 3.26938e-16 0)
(1.4 4.86179e-16 0)
(1.4 7.12625e-16 0)
(1.4 2.74102e-16 0)
(1.4 -4.10526e-16 0)
(1.4 -1.24074e-15 0)
(1.4 -1.50156e-15 0)
(1.4 -1.7508e-15 0)
(1.4 -2.26587e-15 0)
(1.4 -2.80206e-15 0)
(1.4 -3.01587e-15 0)
(1.4 -3.1051e-15 0)
(1.4 -3.14169e-15 0)
(1.4 -2.88234e-15 0)
(1.4 -2.6249e-15 0)
(1.4 -2.43727e-15 0)
(1.4 -2.22398e-15 0)
(1.4 -2.11632e-15 0)
(1.4 -2.12822e-15 0)
(1.4 -2.12363e-15 0)
(1.4 -2.09529e-15 0)
(1.4 -2.16549e-15 0)
(1.4 -2.14688e-15 0)
(1.4 -2.04356e-15 0)
(1.4 -1.88089e-15 0)
(1.4 -1.55802e-15 0)
(1.4 -1.46885e-15 0)
(1.4 -1.38373e-15 0)
(1.4 -1.32581e-15 0)
(1.4 -1.38111e-15 0)
(1.4 -1.47179e-15 0)
(1.4 -1.59619e-15 0)
(1.4 -1.55624e-15 0)
(1.4 -1.55824e-15 0)
(1.4 -1.51248e-15 0)
(1.4 -1.53405e-15 0)
(1.4 -1.90396e-15 0)
(1.4 -2.08534e-15 0)
(1.4 -2.37498e-15 0)
(1.4 -2.84182e-15 0)
(1.4 -2.83604e-15 0)
(1.4 -2.63459e-15 0)
(1.4 -2.47575e-15 0)
(1.4 -2.03606e-15 0)
(1.4 -1.85863e-15 0)
(1.4 -2.01277e-15 0)
(1.4 -2.08967e-15 0)
(1.4 -2.25425e-15 0)
(1.4 -2.15821e-15 0)
(1.4 -2.09597e-15 0)
(1.4 -2.17644e-15 0)
(1.4 -2.50001e-15 0)
(1.4 -2.87727e-15 0)
(1.4 -2.88648e-15 0)
(1.4 -2.97875e-15 0)
(1.4 -3.11095e-15 0)
(1.4 -3.59452e-15 0)
(1.4 -3.77874e-15 0)
(1.4 -4.24127e-15 0)
(1.4 -4.39421e-15 0)
(1.4 -4.1098e-15 0)
(1.4 -3.78018e-15 0)
(1.4 -3.58281e-15 0)
(1.4 -3.41503e-15 0)
(1.4 -3.40081e-15 0)
(1.4 -3.39134e-15 0)
(1.4 -3.45779e-15 0)
(1.4 -2.93615e-15 0)
(1.4 -1.81252e-15 0)
(1.4 -1.59576e-15 0)
(1.4 -1.35727e-15 0)
(1.4 -1.02007e-15 0)
(1.4 -9.38806e-16 0)
(1.4 -1.00816e-15 0)
(1.4 -1.12911e-15 0)
(1.4 -1.29996e-15 0)
(1.4 -1.65294e-15 0)
(1.4 -1.7274e-15 0)
(1.4 -1.91448e-15 0)
(1.4 -2.58401e-15 0)
(1.4 -2.9945e-15 0)
(1.4 -3.09261e-15 0)
(1.4 -2.71907e-15 0)
(1.4 -2.39087e-15 0)
(1.4 -1.98812e-15 0)
(1.4 -1.95817e-15 0)
(1.4 -2.115e-15 0)
(1.4 -2.41915e-15 0)
(1.4 -2.55224e-15 0)
(1.4 -2.57602e-15 0)
(1.4 -2.41159e-15 0)
(1.4 -2.20902e-15 0)
(1.4 -2.05582e-15 0)
(1.4 -1.87007e-15 0)
(1.4 -1.72075e-15 0)
(1.4 -1.57971e-15 0)
(1.4 -9.60514e-16 0)
(1.4 -5.25708e-16 0)
(1.4 -2.52294e-16 0)
(1.4 -1.7733e-16 0)
(1.4 -2.85236e-16 0)
(1.4 -4.37509e-16 0)
(1.4 -6.3572e-16 0)
(1.4 -8.41883e-16 0)
(1.4 -8.90139e-16 0)
(1.4 -1.07576e-15 0)
(1.4 -1.21977e-15 0)
(1.4 -9.61193e-16 0)
(1.4 -9.81699e-16 0)
(1.4 -2.08414e-16 0)
(1.4 -7.60651e-19 0)
(1.4 6.19867e-16 0)
(1.4 7.56774e-16 0)
(1.4 7.59483e-16 0)
(1.4 7.99026e-16 0)
(1.4 8.14717e-16 0)
(1.4 7.62124e-16 0)
(1.4 5.84265e-16 0)
(1.4 4.8005e-16 0)
(1.4 4.28396e-16 0)
(1.4 3.34608e-16 0)
(1.4 1.74536e-16 0)
(1.4 -6.07913e-18 0)
(1.4 -2.00935e-16 0)
(1.4 3.24537e-17 0)
(1.4 2.87794e-16 0)
(1.4 2.90966e-16 0)
(1.4 2.01185e-16 0)
(1.4 1.8621e-17 0)
(1.4 -4.60358e-17 0)
(1.4 -1.52519e-16 0)
(1.4 -2.89196e-16 0)
(1.4 -3.87117e-16 0)
(1.4 -5.16168e-16 0)
(1.4 -6.14832e-16 0)
(1.4 -9.1584e-16 0)
(1.4 -1.168e-15 0)
(1.4 -1.25785e-15 0)
(1.4 -1.22171e-15 0)
(1.4 -1.23875e-15 0)
(1.4 -1.29549e-15 0)
(1.4 -1.39142e-15 0)
(1.4 -1.50107e-15 0)
(1.4 -1.53493e-15 0)
(1.4 -1.4835e-15 0)
(1.4 -1.16594e-15 0)
(1.4 -9.31859e-16 0)
(1.4 -4.53247e-16 0)
(1.4 -3.60946e-16 0)
(1.4 -3.1287e-16 0)
(1.4 -4.25105e-16 0)
(1.4 -3.5706e-16 0)
(1.4 -3.62145e-16 0)
(1.4 -5.94939e-16 0)
(1.4 -3.03243e-17 0)
(1.4 -5.26437e-18 0)
(1.4 -1.95346e-16 0)
(1.4 -1.24625e-16 0)
(1.4 -2.22571e-16 0)
(1.4 -2.89157e-16 0)
(1.4 -4.22803e-16 0)
(1.4 -4.39263e-16 0)
(1.4 -4.2639e-16 0)
(1.4 -3.05159e-16 0)
(1.4 -2.86767e-16 0)
(1.4 -2.97561e-16 0)
(1.4 -3.71569e-16 0)
(1.4 -8.11038e-16 0)
(1.4 -9.68857e-16 0)
(1.4 -1.18152e-15 0)
(1.4 -1.53369e-15 0)
(1.4 -1.68966e-15 0)
(1.4 -1.31853e-15 0)
(1.4 -1.17177e-15 0)
(1.4 -1.00942e-15 0)
(1.4 -1.04844e-15 0)
(1.4 -1.32991e-15 0)
(1.4 -1.6954e-15 0)
(1.4 -1.8561e-15 0)
(1.4 -2.06942e-15 0)
(1.4 -2.3042e-15 0)
(1.4 -2.38337e-15 0)
(1.4 -2.69169e-15 0)
(1.4 -2.82069e-15 0)
(1.4 -2.84173e-15 0)
(1.4 -2.65338e-15 0)
(1.4 -2.53723e-15 0)
(1.4 -2.05513e-15 0)
(1.4 -1.5825e-15 0)
(1.4 -1.05134e-15 0)
(1.4 -6.69757e-16 0)
(1.4 -5.37716e-16 0)
(1.4 -3.4515e-16 0)
(1.4 -8.33563e-17 0)
(1.4 -1.21502e-17 0)
(1.4 7.3205e-17 0)
(1.4 1.84467e-16 0)
(1.4 2.24948e-16 0)
(1.4 3.5302e-16 0)
(1.4 6.14728e-16 0)
(1.4 6.43085e-16 0)
(1.4 1.32114e-15 0)
(1.4 1.76571e-15 0)
(1.4 1.86653e-15 0)
(1.4 2.04884e-15 0)
(1.4 2.18507e-15 0)
(1.4 2.10076e-15 0)
(1.4 2.01175e-15 0)
(1.4 1.86263e-15 0)
(1.4 1.80451e-15 0)
(1.4 1.79746e-15 0)
(1.4 1.75643e-15 0)
(1.4 1.69397e-15 0)
(1.4 1.61702e-15 0)
(1.4 1.15814e-15 0)
(1.4 1.04259e-15 0)
(1.4 7.93073e-16 0)
(1.4 1.49478e-16 0)
(1.4 -1.30925e-16 0)
(1.4 -4.60229e-16 0)
(1.4 -8.34509e-16 0)
(1.4 -1.21719e-15 0)
(1.4 -1.28176e-15 0)
(1.4 -1.57579e-15 0)
(1.4 -1.86422e-15 0)
(1.4 -2.10163e-15 0)
(1.4 -1.84539e-15 0)
(1.4 -1.57597e-15 0)
(1.4 -1.46695e-15 0)
(1.4 -1.41675e-15 0)
(1.4 -1.33281e-15 0)
(1.4 -1.10474e-15 0)
(1.4 -9.23227e-16 0)
(1.4 -9.31648e-16 0)
(1.4 -1.01842e-15 0)
(1.4 -1.20685e-15 0)
(1.4 -1.29698e-15 0)
(1.4 -1.35999e-15 0)
(1.4 -1.44441e-15 0)
(1.4 -1.57212e-15 0)
(1.4 -1.18713e-15 0)
(1.4 -8.45614e-16 0)
(1.4 -5.9754e-16 0)
(1.4 -5.28359e-16 0)
(1.4 -5.71893e-16 0)
(1.4 -5.72105e-16 0)
(1.4 -5.70131e-16 0)
(1.4 -6.88771e-16 0)
(1.4 -9.58777e-16 0)
(1.4 -1.10327e-15 0)
(1.4 -1.01361e-15 0)
(1.4 -1.01768e-15 0)
(1.4 -1.03496e-15 0)
(1.4 -1.24703e-15 0)
(1.4 -1.01071e-15 0)
(1.4 -7.74099e-16 0)
(1.4 -4.8665e-16 0)
(1.4 -4.12391e-16 0)
(1.4 -6.37345e-16 0)
(1.4 -1.12074e-15 0)
(1.4 -1.37916e-15 0)
(1.4 -1.32648e-15 0)
(1.4 -1.39808e-15 0)
(1.4 -1.37208e-15 0)
(1.4 -1.71362e-15 0)
(1.4 -2.11367e-15 0)
(1.4 -1.98853e-15 0)
(1.4 -1.85183e-15 0)
(1.4 -1.49279e-15 0)
(1.4 -1.11046e-15 0)
(1.4 -4.19496e-16 0)
(1.4 5.24006e-17 0)
(1.4 9.77417e-16 0)
(1.4 1.54935e-15 0)
(1.4 1.75657e-15 0)
(1.4 1.92071e-15 0)
(1.4 1.9487e-15 0)
(1.4 1.99248e-15 0)
(1.4 2.23566e-15 0)
(1.4 2.74694e-15 0)
(1.4 2.74674e-15 0)
(1.4 2.77169e-15 0)
(1.4 3.07671e-15 0)
(1.4 3.42759e-15 0)
(1.4 3.42646e-15 0)
(1.4 3.53637e-15 0)
(1.4 3.39686e-15 0)
(1.4 3.2531e-15 0)
(1.4 2.79718e-15 0)
(1.4 2.6972e-15 0)
(1.4 2.33042e-15 0)
(1.4 1.3996e-15 0)
(1.4 1.52633e-15 0)
(1.4 9.50832e-16 0)
(1.4 1.84635e-16 0)
(1.4 -1.42992e-16 0)
(1.4 7.57209e-17 0)
(1.4 4.44726e-16 0)
(1.4 5.81602e-16 0)
(1.4 6.91699e-16 0)
(1.4 7.90889e-16 0)
(1.4 6.64349e-16 0)
(1.4 -1.72527e-16 0)
(1.4 -5.39205e-16 0)
(1.4 -8.95355e-16 0)
(1.4 -1.08032e-15 0)
(1.4 -1.60589e-15 0)
(1.4 -2.50596e-15 0)
(1.4 -3.37223e-15 0)
(1.4 -3.50445e-15 0)
(1.4 -3.49674e-15 0)
(1.4 -3.43468e-15 0)
(1.4 -3.27415e-15 0)
(1.4 -3.32701e-15 0)
(1.4 -3.32522e-15 0)
(1.4 -2.6972e-15 0)
(1.4 -2.17607e-15 0)
(1.4 -2.099e-15 0)
(1.4 -1.90963e-15 0)
(1.4 -1.81314e-15 0)
(1.4 -1.36165e-15 0)
(1.4 -7.3606e-16 0)
(1.4 -4.51528e-16 0)
(1.4 -2.57206e-16 0)
(1.4 -2.10039e-16 0)
(1.4 -3.78257e-16 0)
(1.4 -5.32804e-16 0)
(1.4 -1.76903e-16 0)
(1.4 4.02064e-16 0)
(1.4 1.27947e-15 0)
(1.4 1.42809e-15 0)
(1.4 1.3867e-15 0)
(1.4 1.31493e-15 0)
(1.4 1.18386e-15 0)
(1.4 1.02288e-15 0)
(1.4 8.20168e-16 0)
(1.4 7.83877e-16 0)
(1.4 7.32291e-16 0)
(1.4 1.29796e-16 0)
(1.4 -2.3295e-16 0)
(1.4 -2.91378e-16 0)
(1.4 -4.0955e-16 0)
(1.4 -6.06566e-16 0)
(1.4 -7.72345e-16 0)
(1.4 -7.00946e-16 0)
(1.4 -9.27256e-16 0)
(1.4 -1.02494e-15 0)
(1.4 -1.14226e-15 0)
(1.4 -1.12458e-15 0)
(1.4 -1.0584e-15 0)
(1.4 -9.84009e-16 0)
(1.4 -8.82223e-16 0)
(1.4 -6.99723e-16 0)
(1.4 -4.00096e-16 0)
(1.4 -2.90736e-16 0)
(1.4 1.76771e-16 0)
(1.4 9.76926e-16 0)
(1.4 1.8181e-15 0)
(1.4 2.11701e-15 0)
(1.4 2.32233e-15 0)
(1.4 2.36638e-15 0)
(1.4 2.53443e-15 0)
(1.4 2.71698e-15 0)
(1.4 2.93563e-15 0)
(1.4 2.99139e-15 0)
(1.4 2.94531e-15 0)
(1.4 3.01803e-15 0)
(1.4 3.13267e-15 0)
(1.4 3.47112e-15 0)
(1.4 3.48839e-15 0)
(1.4 3.61657e-15 0)
(1.4 3.80829e-15 0)
(1.4 3.53194e-15 0)
(1.4 3.54238e-15 0)
(1.4 3.46408e-15 0)
(1.4 3.51014e-15 0)
(1.4 3.64396e-15 0)
(1.4 3.70358e-15 0)
(1.4 3.48101e-15 0)
(1.4 2.6163e-15 0)
(1.4 1.85437e-15 0)
(1.4 1.18506e-15 0)
(1.4 9.8348e-16 0)
(1.4 1.14168e-15 0)
(1.4 1.26457e-15 0)
(1.4 1.08185e-15 0)
(1.4 1.25778e-15 0)
(1.4 8.92799e-16 0)
(1.4 2.76082e-17 0)
(1.4 -1.43379e-15 0)
(1.4 -1.63825e-15 0)
(1.4 -1.7289e-15 0)
(1.4 -2.16679e-15 0)
(1.4 -2.20381e-15 0)
(1.4 -2.24477e-15 0)
(1.4 -2.14082e-15 0)
(1.4 -2.23046e-15 0)
(1.4 -2.45395e-15 0)
(1.4 -2.48864e-15 0)
(1.4 -2.50138e-15 0)
(1.4 -2.49847e-15 0)
(1.4 -2.82678e-15 0)
(1.4 -2.99138e-15 0)
(1.4 -3.02488e-15 0)
(1.4 -3.00691e-15 0)
(1.4 -3.00166e-15 0)
(1.4 -3.06872e-15 0)
(1.4 -3.12011e-15 0)
(1.4 -2.9729e-15 0)
(1.4 -2.75703e-15 0)
(1.4 -2.53547e-15 0)
(1.4 -2.50856e-15 0)
(1.4 -2.40239e-15 0)
(1.4 -2.22986e-15 0)
(1.4 -2.13209e-15 0)
(1.4 -2.01133e-15 0)
(1.4 -2.03784e-15 0)
(1.4 -2.11818e-15 0)
(1.4 -2.21858e-15 0)
(1.4 -2.24189e-15 0)
(1.4 -2.34626e-15 0)
(1.4 -2.59667e-15 0)
(1.4 -2.90611e-15 0)
(1.4 -3.32819e-15 0)
(1.4 -3.51619e-15 0)
(1.4 -3.31195e-15 0)
(1.4 -3.12935e-15 0)
(1.4 -3.17081e-15 0)
(1.4 -2.91121e-15 0)
(1.4 -2.56261e-15 0)
(1.4 -2.24725e-15 0)
(1.4 -1.89796e-15 0)
(1.4 -1.83742e-15 0)
(1.4 -1.98882e-15 0)
(1.4 -2.0083e-15 0)
(1.4 -2.12341e-15 0)
(1.4 -2.25767e-15 0)
(1.4 -2.62983e-15 0)
(1.4 -2.99271e-15 0)
(1.4 -3.48228e-15 0)
(1.4 -4.04236e-15 0)
(1.4 -4.29052e-15 0)
(1.4 -4.04174e-15 0)
(1.4 -3.84446e-15 0)
(1.4 -3.89128e-15 0)
(1.4 -3.64899e-15 0)
(1.4 -3.0985e-15 0)
(1.4 -3.13659e-15 0)
(1.4 -3.09073e-15 0)
(1.4 -2.81946e-15 0)
(1.4 -2.7486e-15 0)
(1.4 -2.69357e-15 0)
(1.4 -2.56181e-15 0)
(1.4 -2.26635e-15 0)
(1.4 -1.7271e-15 0)
(1.4 -1.25133e-15 0)
(1.4 -1.23356e-15 0)
(1.4 -1.32832e-15 0)
(1.4 -1.34849e-15 0)
(1.4 -1.31821e-15 0)
(1.4 -1.28783e-15 0)
(1.4 -1.31425e-15 0)
(1.4 -1.42701e-15 0)
(1.4 -1.73097e-15 0)
(1.4 -1.96608e-15 0)
(1.4 -2.06526e-15 0)
(1.4 -2.3714e-15 0)
(1.4 -2.48969e-15 0)
(1.4 -2.51583e-15 0)
(1.4 -2.43291e-15 0)
(1.4 -2.21382e-15 0)
(1.4 -2.47729e-15 0)
(1.4 -2.67363e-15 0)
(1.4 -2.68822e-15 0)
(1.4 -2.6099e-15 0)
(1.4 -2.47994e-15 0)
(1.4 -2.06298e-15 0)
(1.4 -1.57925e-15 0)
(1.4 -1.45871e-15 0)
(1.4 -9.65111e-16 0)
(1.4 -8.22837e-16 0)
(1.4 -4.81805e-16 0)
(1.4 -3.73431e-16 0)
(1.4 -2.72713e-16 0)
(1.4 -7.26346e-17 0)
(1.4 7.88073e-17 0)
(1.4 1.15233e-16 0)
(1.4 -7.77392e-17 0)
(1.4 -2.66413e-16 0)
(1.4 -3.9751e-16 0)
(1.4 -2.60306e-16 0)
(1.4 3.65601e-16 0)
(1.4 4.89937e-16 0)
(1.4 7.34788e-16 0)
(1.4 1.37167e-15 0)
(1.4 1.79946e-15 0)
(1.4 1.86109e-15 0)
(1.4 1.75999e-15 0)
(1.4 1.57842e-15 0)
(1.4 1.42743e-15 0)
(1.4 1.30178e-15 0)
(1.4 6.78816e-16 0)
(1.4 4.00278e-16 0)
(1.4 2.14094e-16 0)
(1.4 2.3348e-16 0)
(1.4 2.083e-16 0)
(1.4 2.01242e-16 0)
(1.4 4.34355e-16 0)
(1.4 8.66385e-16 0)
(1.4 1.17643e-15 0)
(1.4 1.18372e-15 0)
(1.4 1.10786e-15 0)
(1.4 9.65775e-16 0)
(1.4 5.56256e-16 0)
(1.4 3.74987e-16 0)
(1.4 -1.09093e-16 0)
(1.4 -5.64065e-16 0)
(1.4 -1.00381e-15 0)
(1.4 -1.4142e-15 0)
(1.4 -1.69404e-15 0)
(1.4 -1.65956e-15 0)
(1.4 -2.0547e-15 0)
(1.4 -2.30507e-15 0)
(1.4 -2.64004e-15 0)
(1.4 -3.11617e-15 0)
(1.4 -3.31987e-15 0)
(1.4 -3.64753e-15 0)
(1.4 -3.43664e-15 0)
(1.4 -3.32584e-15 0)
(1.4 -3.26063e-15 0)
(1.4 -3.2483e-15 0)
(1.4 -3.02525e-15 0)
(1.4 -2.62041e-15 0)
(1.4 -2.25851e-15 0)
(1.4 -2.05489e-15 0)
(1.4 -1.93218e-15 0)
(1.4 -1.99983e-15 0)
(1.4 -1.87456e-15 0)
(1.4 -2.76649e-17 0)
(1.4 -4.79853e-17 0)
(1.4 -9.89059e-17 0)
(1.4 -1.9363e-16 0)
(1.4 -2.61298e-16 0)
(1.4 -2.16315e-16 0)
(1.4 -1.31607e-16 0)
(1.4 -7.92898e-18 0)
(1.4 -2.03177e-17 0)
(1.4 -1.67141e-17 0)
(1.4 5.38328e-18 0)
(1.4 -1.45123e-17 0)
(1.4 -1.83304e-16 0)
(1.4 -4.58708e-16 0)
(1.4 -8.20376e-16 0)
(1.4 -1.11926e-15 0)
(1.4 -1.28707e-15 0)
(1.4 -1.49548e-15 0)
(1.4 -1.69478e-15 0)
(1.4 -1.75924e-15 0)
(1.4 -1.77494e-15 0)
(1.4 -1.90758e-15 0)
(1.4 -2.10494e-15 0)
(1.4 -2.08025e-15 0)
(1.4 -2.01911e-15 0)
(1.4 -1.75511e-15 0)
(1.4 -1.72849e-15 0)
(1.4 -1.75247e-15 0)
(1.4 -1.79876e-15 0)
(1.4 -1.75729e-15 0)
(1.4 -1.65526e-15 0)
(1.4 -1.94278e-15 0)
(1.4 -2.10393e-15 0)
(1.4 -2.28239e-15 0)
(1.4 -2.49814e-15 0)
(1.4 -2.6695e-15 0)
(1.4 -2.49063e-15 0)
(1.4 -1.99876e-15 0)
(1.4 -1.34032e-15 0)
(1.4 -9.1731e-16 0)
(1.4 -4.83651e-16 0)
(1.4 -4.10467e-16 0)
(1.4 -2.59695e-16 0)
(1.4 -4.12274e-17 0)
(1.4 4.64636e-16 0)
(1.4 1.10733e-15 0)
(1.4 1.56808e-15 0)
(1.4 1.58899e-15 0)
(1.4 1.59475e-15 0)
(1.4 1.38657e-15 0)
(1.4 1.22993e-15 0)
(1.4 9.74163e-16 0)
(1.4 9.38258e-16 0)
(1.4 1.50607e-15 0)
(1.4 1.57034e-15 0)
(1.4 1.5322e-15 0)
(1.4 1.55704e-15 0)
(1.4 1.53217e-15 0)
(1.4 1.52541e-15 0)
(1.4 1.38732e-15 0)
(1.4 1.45678e-15 0)
(1.4 1.40203e-15 0)
(1.4 1.19122e-15 0)
(1.4 8.9373e-16 0)
(1.4 5.57083e-17 0)
(1.4 -4.31304e-16 0)
(1.4 -5.65142e-16 0)
(1.4 -6.45836e-16 0)
(1.4 -7.62206e-16 0)
(1.4 -7.08406e-16 0)
(1.4 -8.24271e-16 0)
(1.4 -1.23781e-15 0)
(1.4 -1.23005e-15 0)
(1.4 -1.25091e-15 0)
(1.4 -1.22568e-15 0)
(1.4 -1.24829e-15 0)
(1.4 -1.26227e-15 0)
(1.4 -9.89741e-16 0)
(1.4 -9.97035e-16 0)
(1.4 -1.24495e-15 0)
(1.4 -1.60522e-15 0)
(1.4 -1.89569e-15 0)
(1.4 -2.13954e-15 0)
(1.4 -2.49446e-15 0)
(1.4 -2.82507e-15 0)
(1.4 -3.04637e-15 0)
(1.4 -2.91283e-15 0)
(1.4 -2.08963e-15 0)
(1.4 -1.67654e-15 0)
(1.4 -1.52581e-15 0)
(1.4 -1.47555e-15 0)
(1.4 -1.25252e-15 0)
(1.4 -1.15532e-15 0)
(1.4 -1.08876e-15 0)
(1.4 -1.20266e-15 0)
(1.4 -1.36952e-15 0)
(1.4 -1.71056e-15 0)
(1.4 -1.77773e-15 0)
(1.4 -1.43199e-15 0)
(1.4 -1.3588e-15 0)
(1.4 -1.50546e-15 0)
(1.4 -1.68917e-15 0)
(1.4 -1.87263e-15 0)
(1.4 -1.87221e-15 0)
(1.4 -1.78341e-15 0)
(1.4 -1.62296e-15 0)
(1.4 -1.39683e-15 0)
(1.4 -1.44432e-15 0)
(1.4 -7.71063e-16 0)
(1.4 8.73161e-17 0)
(1.4 8.73502e-16 0)
(1.4 1.20128e-15 0)
(1.4 1.57987e-15 0)
(1.4 1.79473e-15 0)
(1.4 1.73511e-15 0)
(1.4 1.99899e-15 0)
(1.4 2.37308e-15 0)
(1.4 2.01637e-15 0)
(1.4 2.04805e-15 0)
(1.4 2.01999e-15 0)
(1.4 2.04939e-15 0)
(1.4 2.12346e-15 0)
(1.4 2.12377e-15 0)
(1.4 2.05499e-15 0)
(1.4 2.11215e-15 0)
(1.4 2.0751e-15 0)
(1.4 1.9762e-15 0)
(1.4 2.10953e-15 0)
(1.4 2.22051e-15 0)
(1.4 2.23683e-15 0)
(1.4 2.35281e-15 0)
(1.4 2.44591e-15 0)
(1.4 2.65369e-15 0)
(1.4 2.84633e-15 0)
(1.4 2.86768e-15 0)
(1.4 3.00546e-15 0)
(1.4 3.11251e-15 0)
(1.4 3.05656e-15 0)
(1.4 2.99068e-15 0)
(1.4 3.17873e-15 0)
(1.4 3.42475e-15 0)
(1.4 3.42457e-15 0)
(1.4 2.67787e-15 0)
(1.4 1.41806e-15 0)
(1.4 1.19452e-15 0)
(1.4 1.04765e-15 0)
(1.4 1.1097e-15 0)
(1.4 1.10828e-15 0)
(1.4 5.16251e-16 0)
(1.4 -1.79214e-16 0)
(1.4 -8.7753e-16 0)
(1.4 -1.38183e-15 0)
(1.4 -2.14131e-15 0)
(1.4 -3.19849e-15 0)
(1.4 -3.55094e-15 0)
(1.4 -3.76282e-15 0)
(1.4 -3.82705e-15 0)
(1.4 -3.74538e-15 0)
(1.4 -3.40891e-15 0)
(1.4 -3.29206e-15 0)
(1.4 -3.21669e-15 0)
(1.4 -3.25789e-15 0)
(1.4 -3.31904e-15 0)
(1.4 -3.08732e-15 0)
(1.4 -2.94674e-15 0)
(1.4 -2.3903e-15 0)
(1.4 -1.50725e-15 0)
(1.4 -6.49564e-16 0)
(1.4 -5.07446e-16 0)
(1.4 -4.99243e-16 0)
(1.4 -1.50895e-16 0)
(1.4 1.5895e-16 0)
(1.4 3.11446e-16 0)
(1.4 3.8227e-16 0)
(1.4 3.69636e-16 0)
(1.4 4.75773e-16 0)
(1.4 4.40674e-16 0)
(1.4 4.08476e-16 0)
(1.4 4.2971e-16 0)
(1.4 5.51656e-16 0)
(1.4 6.4868e-16 0)
(1.4 6.93964e-16 0)
(1.4 5.9241e-16 0)
(1.4 2.26898e-16 0)
(1.4 -1.27807e-16 0)
(1.4 -2.6426e-16 0)
(1.4 -4.54037e-16 0)
(1.4 -4.9571e-16 0)
(1.4 -4.89456e-16 0)
(1.4 -7.59655e-16 0)
(1.4 -8.80673e-16 0)
(1.4 -9.7735e-16 0)
(1.4 -1.04233e-15 0)
(1.4 -1.29352e-15 0)
(1.4 -1.39286e-15 0)
(1.4 -1.18292e-15 0)
(1.4 -9.72756e-16 0)
(1.4 -6.32941e-16 0)
(1.4 -5.20534e-16 0)
(1.4 -4.23767e-16 0)
(1.4 4.48704e-18 0)
(1.4 5.28394e-16 0)
(1.4 7.87022e-16 0)
(1.4 1.21803e-15 0)
(1.4 1.53681e-15 0)
(1.4 2.28511e-15 0)
(1.4 2.66809e-15 0)
(1.4 2.89429e-15 0)
(1.4 2.97473e-15 0)
(1.4 2.89041e-15 0)
(1.4 2.57916e-15 0)
(1.4 2.52509e-15 0)
(1.4 2.6846e-15 0)
(1.4 2.84905e-15 0)
(1.4 3.01664e-15 0)
(1.4 3.31332e-15 0)
(1.4 3.21425e-15 0)
(1.4 3.01715e-15 0)
(1.4 3.00915e-15 0)
(1.4 3.18272e-15 0)
(1.4 3.24742e-15 0)
(1.4 3.2639e-15 0)
(1.4 3.16814e-15 0)
(1.4 3.00616e-15 0)
(1.4 2.7497e-15 0)
(1.4 2.07965e-15 0)
(1.4 1.26679e-15 0)
(1.4 5.86052e-16 0)
(1.4 6.44031e-16 0)
(1.4 8.68025e-16 0)
(1.4 1.0539e-15 0)
(1.4 1.27809e-15 0)
(1.4 1.08781e-15 0)
(1.4 8.21402e-16 0)
(1.4 3.82632e-16 0)
(1.4 -1.98898e-16 0)
(1.4 -4.03547e-16 0)
(1.4 -5.23009e-16 0)
(1.4 -5.97186e-16 0)
(1.4 -7.04537e-16 0)
(1.4 -9.09106e-16 0)
(1.4 -1.2138e-15 0)
(1.4 -1.37598e-15 0)
(1.4 -1.3181e-15 0)
(1.4 -1.2177e-15 0)
(1.4 -1.12995e-15 0)
(1.4 -1.05143e-15 0)
(1.4 -1.70706e-15 0)
(1.4 -1.87824e-15 0)
(1.4 -1.91428e-15 0)
(1.4 -1.95887e-15 0)
(1.4 -1.94172e-15 0)
(1.4 -2.01343e-15 0)
(1.4 -2.14121e-15 0)
(1.4 -2.1412e-15 0)
(1.4 -2.18262e-15 0)
(1.4 -2.32977e-15 0)
(1.4 -2.35891e-15 0)
(1.4 -2.32156e-15 0)
(1.4 -2.1914e-15 0)
(1.4 -1.97856e-15 0)
(1.4 -1.79558e-15 0)
(1.4 -1.86397e-15 0)
(1.4 -2.52493e-15 0)
(1.4 -2.9201e-15 0)
(1.4 -3.29492e-15 0)
(1.4 -3.41587e-15 0)
(1.4 -3.34849e-15 0)
(1.4 -3.18872e-15 0)
(1.4 -2.72618e-15 0)
(1.4 -1.96815e-15 0)
(1.4 -1.71772e-15 0)
(1.4 -1.67193e-15 0)
(1.4 -1.79996e-15 0)