/*--------------------------------*- C++ -*----------------------------------*\
  =========                 |
  \\      /  F ield         | OpenFOAM: The Open Source CFD Toolbox
   \\    /   O peration     | Website:  https://openfoam.org
    \\  /    A nd           | Version:  7
     \\/     M anipulation  |
\*---------------------------------------------------------------------------*/
FoamFile
{
    version     2.0;
    format      ascii;
    class       volScalarField;
    location    "11.5";
    object      rho;
}
// * * * * * * * * * * * * * * * * * * * * * * * * * * * * * * * * * * * * * //

dimensions      [1 -3 0 0 0 0 0];

internalField   nonuniform List<scalar> 
2413
(
1.5475
1.54508
1.54266
1.54013
1.53751
1.53487
1.53216
1.52931
1.52633
1.52331
1.52025
1.51708
1.51389
1.51081
1.50772
1.50442
1.50111
1.49812
1.49513
1.49187
1.48872
1.48595
1.48309
1.47994
1.47695
1.47418
1.47125
1.46793
1.4647
1.4619
1.45895
1.45547
1.45227
1.44964
1.44687
1.44346
1.44079
1.43888
1.43645
1.43335
1.43142
1.42971
1.42703
1.42425
1.42253
1.42063
1.41798
1.41618
1.41498
1.41318
1.41085
1.40981
1.40873
1.40654
1.40471
1.40359
1.40175
1.39909
1.3976
1.39621
1.39391
1.39168
1.39041
1.38883
1.38643
1.38466
1.38359
1.38195
1.3797
1.3785
1.37738
1.37544
1.37418
1.37413
1.37338
1.37197
1.37184
1.37187
1.37033
1.6785
1.67726
1.6769
1.67586
1.67417
1.67453
1.67462
1.67309
1.67258
1.67166
1.6694
1.66779
1.66596
1.66337
1.66053
1.65755
1.65421
1.65049
1.64627
1.64182
1.63731
1.63275
1.62827
1.624
1.62006
1.61642
1.61297
1.60959
1.60622
1.60296
1.59976
1.59649
1.59319
1.58995
1.58668
1.58345
1.58053
1.57782
1.57519
1.573
1.57113
1.56933
1.56746
1.56548
1.56341
1.56122
1.559
1.55696
1.55499
1.55294
1.55083
1.54865
1.54637
1.54395
1.54148
1.53893
1.53622
1.53339
1.53056
1.52766
1.5246
1.52142
1.5182
1.51489
1.51143
1.508
1.50471
1.50138
1.49786
1.4945
1.49144
1.48828
1.48492
1.48182
1.47897
1.47593
1.47266
1.46966
1.46674
1.46355
1.46004
1.45683
1.4539
1.45066
1.44701
1.44402
1.44144
1.43854
1.43524
1.4331
1.4312
1.42848
1.4257
1.42404
1.4221
1.41908
1.41655
1.4149
1.41275
1.41004
1.40865
1.40745
1.40541
1.40346
1.40261
1.40134
1.39906
1.39758
1.39641
1.3943
1.39185
1.39057
1.38901
1.38648
1.3847
1.3835
1.38167
1.37922
1.37793
1.37679
1.37479
1.37276
1.37177
1.37047
1.36825
1.36699
1.36643
1.365
1.36389
1.36399
1.36367
1.36231
1.6719
1.66895
1.66642
1.66364
1.66159
1.66184
1.66191
1.6612
1.66186
1.66181
1.66046
1.66025
1.65952
1.65761
1.65611
1.65418
1.65131
1.6481
1.64461
1.64086
1.63689
1.63273
1.62856
1.6245
1.62063
1.61698
1.61344
1.60992
1.60642
1.60298
1.59946
1.5959
1.59245
1.58909
1.58577
1.58258
1.57958
1.57665
1.57374
1.57112
1.5688
1.56658
1.56441
1.56225
1.5601
1.55783
1.55548
1.55331
1.55116
1.54888
1.5466
1.5443
1.54192
1.53939
1.5368
1.53413
1.53127
1.52829
1.52532
1.5223
1.51909
1.51578
1.51243
1.50898
1.50535
1.50176
1.4983
1.49477
1.49111
1.48774
1.48461
1.48135
1.47798
1.47491
1.47196
1.46876
1.46545
1.46244
1.45936
1.45589
1.45227
1.44901
1.44587
1.44232
1.43863
1.43595
1.43348
1.43046
1.42766
1.42583
1.4237
1.42076
1.41834
1.4166
1.41429
1.411
1.40889
1.40726
1.4048
1.40241
1.4013
1.39992
1.39766
1.39612
1.39524
1.39367
1.39136
1.39018
1.38895
1.38662
1.38455
1.38336
1.38157
1.37903
1.37769
1.37647
1.37435
1.37222
1.37121
1.36987
1.36758
1.366
1.36514
1.36357
1.36127
1.36023
1.35915
1.35716
1.35631
1.35635
1.35544
1.35435
1.66756
1.66325
1.6595
1.65559
1.65289
1.65189
1.6505
1.64959
1.65012
1.64991
1.64938
1.6499
1.64938
1.64866
1.64874
1.64785
1.64615
1.64458
1.64242
1.63965
1.6365
1.63283
1.62893
1.62508
1.62132
1.61766
1.61398
1.61025
1.60659
1.60296
1.59929
1.59572
1.59234
1.589
1.58571
1.58249
1.57933
1.57624
1.57318
1.57024
1.56742
1.5647
1.56206
1.55948
1.557
1.55447
1.55189
1.54952
1.5472
1.54473
1.54225
1.53974
1.53713
1.53437
1.53154
1.52866
1.52556
1.52239
1.51928
1.51617
1.51291
1.50958
1.50622
1.50271
1.49898
1.49527
1.49167
1.488
1.48429
1.48089
1.47767
1.47435
1.47103
1.46796
1.4649
1.46162
1.45835
1.45528
1.45201
1.44833
1.4447
1.44141
1.43805
1.43422
1.43083
1.4283
1.42575
1.42269
1.42034
1.41852
1.41611
1.41315
1.41111
1.40923
1.40649
1.4033
1.4014
1.39953
1.39675
1.39477
1.39377
1.39211
1.38984
1.3887
1.38765
1.38568
1.38356
1.38258
1.38123
1.37876
1.37716
1.376
1.37395
1.37166
1.37065
1.36931
1.36696
1.36535
1.36443
1.36279
1.36049
1.3594
1.35846
1.35654
1.35457
1.35364
1.35227
1.35002
1.34919
1.34865
1.34734
1.34666
1.66507
1.66028
1.65598
1.65162
1.64796
1.64506
1.64217
1.64012
1.63924
1.63837
1.63821
1.63836
1.63794
1.63823
1.63917
1.6385
1.63812
1.63816
1.63682
1.63487
1.63272
1.6299
1.6268
1.62369
1.62044
1.61704
1.61351
1.60991
1.60637
1.60283
1.59929
1.59589
1.59261
1.58923
1.58578
1.58234
1.57895
1.57565
1.5724
1.56913
1.56585
1.56263
1.55949
1.55646
1.55359
1.5508
1.54803
1.54544
1.54289
1.54017
1.53743
1.53467
1.53177
1.52869
1.52554
1.52239
1.51909
1.51577
1.51257
1.50939
1.50608
1.50278
1.4995
1.49603
1.49234
1.48863
1.48495
1.48118
1.47738
1.47388
1.47058
1.46725
1.46398
1.46091
1.45782
1.45456
1.45139
1.44826
1.44482
1.44109
1.43751
1.43406
1.4304
1.42647
1.42349
1.42108
1.41834
1.41545
1.41352
1.41156
1.40889
1.40616
1.40418
1.40197
1.39873
1.39583
1.39404
1.39184
1.38891
1.38735
1.38617
1.38413
1.38203
1.38098
1.37963
1.37726
1.37549
1.37464
1.37309
1.37073
1.36961
1.36844
1.3662
1.3644
1.36353
1.36197
1.35963
1.35853
1.35758
1.35563
1.35365
1.35289
1.35178
1.3496
1.3481
1.3473
1.34571
1.34347
1.34266
1.34156
1.34008
1.33947
1.66399
1.65882
1.65427
1.64984
1.64545
1.64142
1.63779
1.63431
1.63139
1.62916
1.62746
1.62642
1.62571
1.62599
1.62669
1.62641
1.62698
1.62763
1.62643
1.626
1.62538
1.6233
1.62158
1.61987
1.61743
1.61474
1.61194
1.60894
1.60581
1.60259
1.59927
1.5959
1.59248
1.58894
1.58534
1.58178
1.57823
1.57468
1.57114
1.56759
1.56402
1.56049
1.55706
1.55373
1.55049
1.54736
1.54433
1.54146
1.53864
1.5357
1.53271
1.52964
1.52634
1.52286
1.51934
1.51585
1.51224
1.50872
1.50544
1.50221
1.49891
1.49569
1.49252
1.48915
1.48548
1.48179
1.47809
1.47426
1.47041
1.46683
1.46347
1.46013
1.45686
1.45379
1.45073
1.44758
1.44444
1.44121
1.43772
1.4341
1.4306
1.42698
1.42311
1.41964
1.41688
1.41423
1.4113
1.40877
1.40683
1.40456
1.40163
1.39927
1.39734
1.39474
1.39138
1.38887
1.38687
1.38424
1.38135
1.37996
1.37847
1.37602
1.37417
1.37309
1.37139
1.36885
1.36759
1.36669
1.36478
1.36281
1.362
1.36075
1.35846
1.35722
1.35633
1.35445
1.35245
1.35173
1.35065
1.34849
1.34707
1.34642
1.34505
1.34289
1.34184
1.34101
1.33919
1.33723
1.33641
1.33503
1.33344
1.33254
1.66404
1.65853
1.65372
1.64911
1.6445
1.64001
1.63584
1.63153
1.62723
1.62344
1.62024
1.61738
1.61529
1.61455
1.61414
1.61362
1.6142
1.61465
1.61404
1.61459
1.61477
1.61358
1.61334
1.61272
1.61072
1.60913
1.6073
1.60481
1.60213
1.59921
1.596
1.59263
1.58914
1.58562
1.5822
1.57889
1.57556
1.57214
1.56867
1.56517
1.56159
1.55797
1.55435
1.55078
1.54726
1.54382
1.54053
1.53737
1.53419
1.53092
1.52762
1.52421
1.52052
1.51665
1.5128
1.50897
1.50512
1.5015
1.49817
1.49492
1.49158
1.48842
1.48536
1.48207
1.47846
1.47486
1.4712
1.46734
1.4634
1.45974
1.45632
1.45295
1.44965
1.44668
1.44377
1.4407
1.43752
1.43426
1.43089
1.42739
1.42376
1.42003
1.41634
1.4132
1.41037
1.4074
1.40461
1.40248
1.40033
1.3977
1.39496
1.39285
1.39063
1.38754
1.38431
1.38221
1.38002
1.37702
1.37455
1.37302
1.37101
1.36823
1.36654
1.36524
1.36309
1.3607
1.35981
1.35873
1.35658
1.35512
1.35443
1.35303
1.35093
1.35006
1.34903
1.34691
1.3455
1.345
1.34373
1.34163
1.34075
1.34011
1.33841
1.33653
1.33585
1.3349
1.33284
1.33128
1.33056
1.32906
1.32742
1.32625
1.66525
1.65951
1.65438
1.64963
1.6448
1.63976
1.63503
1.63015
1.62531
1.62058
1.61641
1.61245
1.60925
1.60708
1.60524
1.60348
1.60216
1.60108
1.60047
1.60086
1.6009
1.60053
1.60127
1.60104
1.59994
1.59996
1.59898
1.59687
1.59503
1.59275
1.58997
1.58729
1.58451
1.58158
1.57882
1.57614
1.57331
1.57022
1.56693
1.56348
1.55982
1.55596
1.55198
1.54802
1.54412
1.54031
1.53672
1.53325
1.52972
1.52605
1.52239
1.5186
1.51447
1.51024
1.50613
1.50208
1.49804
1.49436
1.49102
1.48775
1.48442
1.48128
1.47821
1.4749
1.47122
1.46765
1.46405
1.46021
1.4563
1.45269
1.44928
1.44583
1.44248
1.43958
1.43676
1.43366
1.43044
1.42729
1.42405
1.42051
1.41678
1.41324
1.41009
1.40708
1.40402
1.4011
1.39855
1.39619
1.39363
1.39071
1.38829
1.38622
1.38359
1.38035
1.37791
1.37589
1.37329
1.37023
1.36817
1.36634
1.36369
1.36076
1.35928
1.3577
1.35514
1.35334
1.35255
1.35117
1.34897
1.34787
1.34712
1.34552
1.34368
1.34294
1.34169
1.33957
1.3387
1.3383
1.33686
1.3351
1.33459
1.33383
1.33193
1.33052
1.32994
1.32876
1.32667
1.32551
1.3248
1.32318
1.32159
1.32027
1.66755
1.66173
1.656
1.65061
1.64535
1.63998
1.63512
1.63029
1.62527
1.62007
1.6152
1.61072
1.60691
1.60338
1.60027
1.59685
1.59351
1.59102
1.58931
1.58804
1.58677
1.58632
1.58702
1.58657
1.5862
1.58691
1.58608
1.58467
1.58422
1.58265
1.58034
1.57864
1.57663
1.57414
1.57208
1.56994
1.56736
1.56442
1.56125
1.55794
1.55445
1.55071
1.54678
1.54285
1.53898
1.53516
1.5315
1.5279
1.5242
1.52034
1.51647
1.51245
1.50805
1.50358
1.4993
1.49512
1.49105
1.48743
1.48406
1.48078
1.47739
1.47419
1.471
1.46757
1.46385
1.46034
1.4568
1.453
1.44913
1.44557
1.44216
1.43858
1.43521
1.43244
1.42964
1.42644
1.42331
1.42034
1.41716
1.41357
1.41005
1.40696
1.40397
1.40074
1.39762
1.39495
1.39243
1.38969
1.38674
1.38409
1.38185
1.37948
1.37653
1.37376
1.37174
1.36949
1.36661
1.36406
1.3621
1.35986
1.35671
1.35395
1.35232
1.3504
1.34775
1.34635
1.34555
1.34393
1.34188
1.34101
1.34019
1.33848
1.33681
1.336
1.33457
1.33258
1.33204
1.33172
1.33021
1.32886
1.32862
1.3278
1.32584
1.3248
1.32419
1.32276
1.32076
1.31998
1.31922
1.31739
1.31603
1.31469
1.66897
1.66316
1.6577
1.65233
1.64658
1.64031
1.63446
1.62908
1.62409
1.61928
1.61514
1.61093
1.60627
1.60146
1.59722
1.59315
1.58919
1.58555
1.58239
1.57936
1.57643
1.57466
1.57348
1.572
1.57123
1.57108
1.56978
1.56926
1.56951
1.56793
1.56624
1.56562
1.56402
1.56165
1.56047
1.55899
1.55679
1.5543
1.55158
1.54869
1.54567
1.54236
1.53884
1.53535
1.53186
1.52834
1.52481
1.52123
1.51753
1.51364
1.50963
1.50548
1.50097
1.49645
1.49217
1.48802
1.48401
1.48046
1.47707
1.4737
1.47028
1.46703
1.46372
1.46013
1.45628
1.45276
1.44925
1.44548
1.44176
1.43838
1.43499
1.43139
1.42807
1.42523
1.42231
1.41899
1.416
1.41322
1.41005
1.4065
1.40346
1.40075
1.39778
1.39458
1.39167
1.38897
1.38613
1.38292
1.37993
1.37752
1.37504
1.3723
1.3697
1.36756
1.36541
1.36302
1.36042
1.3582
1.35602
1.35346
1.35001
1.34743
1.34575
1.34371
1.3412
1.34
1.3391
1.33736
1.3355
1.33466
1.33371
1.33192
1.33021
1.32923
1.32776
1.32583
1.32535
1.32507
1.32363
1.32264
1.32256
1.32177
1.31989
1.31904
1.31833
1.31674
1.31504
1.31443
1.31352
1.3116
1.31052
1.30915
1.6721
1.66556
1.65905
1.65284
1.64695
1.64098
1.63545
1.63036
1.62516
1.61959
1.61435
1.60933
1.60433
1.59918
1.59447
1.58995
1.58538
1.58092
1.57671
1.57268
1.5689
1.56568
1.56296
1.56052
1.55843
1.55658
1.55504
1.55435
1.55326
1.55102
1.54987
1.54946
1.54774
1.54602
1.54546
1.54416
1.54262
1.54106
1.53901
1.53662
1.53422
1.53153
1.52857
1.52564
1.52262
1.51945
1.51615
1.51265
1.50903
1.50526
1.50127
1.49718
1.49286
1.48852
1.4844
1.48042
1.47659
1.47314
1.46976
1.46636
1.46288
1.45953
1.45608
1.45235
1.44853
1.44513
1.4417
1.438
1.43439
1.43112
1.42771
1.42397
1.42063
1.41776
1.41472
1.41142
1.40866
1.40602
1.40293
1.39968
1.39712
1.39453
1.39141
1.38823
1.38546
1.38267
1.37941
1.37612
1.37353
1.37111
1.36832
1.36576
1.36362
1.3614
1.35901
1.35671
1.35448
1.35225
1.3498
1.34711
1.34366
1.34107
1.33938
1.33743
1.33508
1.33384
1.33293
1.33119
1.32941
1.32857
1.32752
1.32567
1.32376
1.32271
1.32135
1.3194
1.31881
1.31859
1.31729
1.31647
1.31654
1.31582
1.31403
1.31333
1.31255
1.31084
1.30947
1.30889
1.30778
1.30588
1.30508
1.3036
1.6761
1.66967
1.66267
1.65573
1.64905
1.64215
1.63563
1.63009
1.62486
1.6196
1.61448
1.6094
1.60416
1.59847
1.593
1.58785
1.58268
1.57754
1.5727
1.56816
1.56395
1.55999
1.55641
1.55323
1.54997
1.54699
1.54456
1.54226
1.53948
1.5367
1.53467
1.53279
1.53039
1.52886
1.52764
1.52578
1.52484
1.52384
1.5218
1.51976
1.51801
1.51574
1.5132
1.51107
1.50871
1.50601
1.5033
1.50025
1.49699
1.4937
1.49015
1.48648
1.48273
1.479
1.47541
1.4719
1.46838
1.46504
1.46167
1.45821
1.45468
1.45134
1.44795
1.44426
1.44057
1.43733
1.43396
1.43025
1.42684
1.42373
1.42026
1.41648
1.41317
1.41021
1.40703
1.40374
1.40125
1.39874
1.39563
1.39283
1.39069
1.38812
1.38502
1.38208
1.37928
1.37617
1.3725
1.36941
1.36708
1.36443
1.36162
1.35963
1.35764
1.35527
1.35303
1.35096
1.34868
1.34605
1.34335
1.34059
1.33719
1.33472
1.33333
1.33158
1.32939
1.32821
1.32725
1.32552
1.32376
1.32277
1.32154
1.3195
1.31736
1.31633
1.31508
1.31314
1.31241
1.31224
1.31106
1.31032
1.31039
1.30963
1.30802
1.30741
1.30656
1.30485
1.30375
1.30315
1.30188
1.30017
1.29952
1.29786
1.67737
1.67019
1.66313
1.65647
1.65028
1.64399
1.6377
1.63195
1.62628
1.62034
1.61458
1.6091
1.60359
1.59767
1.59184
1.58635
1.58085
1.57526
1.56999
1.56513
1.56051
1.55593
1.55167
1.54782
1.54397
1.54037
1.53699
1.53357
1.52987
1.52638
1.52315
1.51995
1.51687
1.5142
1.51166
1.50955
1.50818
1.50629
1.50374
1.50194
1.50037
1.49793
1.49581
1.49439
1.4923
1.49015
1.48814
1.48564
1.48281
1.48006
1.47713
1.474
1.47099
1.46801
1.46499
1.46196
1.45879
1.45564
1.45242
1.44905
1.44552
1.44226
1.43903
1.43545
1.43204
1.42911
1.4259
1.42239
1.41927
1.41622
1.41254
1.40867
1.40546
1.40242
1.39908
1.39626
1.39406
1.39151
1.38854
1.38629
1.38418
1.38142
1.37831
1.37548
1.37256
1.369
1.36533
1.36296
1.36087
1.35816
1.35578
1.35406
1.35194
1.34937
1.34723
1.3451
1.34243
1.3394
1.33666
1.33409
1.33105
1.3291
1.32788
1.32618
1.32407
1.3229
1.3218
1.31993
1.31811
1.31695
1.3155
1.31321
1.31103
1.31018
1.30899
1.30709
1.30635
1.30614
1.30495
1.30419
1.30411
1.30311
1.30169
1.30119
1.30033
1.29868
1.29783
1.29729
1.29598
1.29453
1.29388
1.29201
1.67966
1.67295
1.66606
1.65909
1.65222
1.64536
1.63865
1.63245
1.62656
1.62061
1.61481
1.60925
1.60354
1.59729
1.59093
1.58498
1.57918
1.57332
1.56775
1.56265
1.55777
1.55284
1.54813
1.54386
1.53961
1.53539
1.53122
1.52716
1.52297
1.51893
1.51503
1.5112
1.50749
1.50389
1.50055
1.49763
1.49485
1.4917
1.48877
1.4864
1.48398
1.48126
1.47934
1.47734
1.47458
1.47284
1.47116
1.46862
1.46637
1.46436
1.46189
1.45942
1.4572
1.45476
1.45222
1.44974
1.44705
1.44419
1.44128
1.43821
1.43479
1.43182
1.42902
1.42579
1.42286
1.42027
1.41725
1.41402
1.41116
1.40811
1.40431
1.40074
1.39777
1.39459
1.39138
1.38909
1.38686
1.38405
1.38144
1.37948
1.3772
1.37425
1.37134
1.36863
1.36561
1.36179
1.35869
1.35674
1.35461
1.3518
1.34984
1.34826
1.34604
1.34357
1.34151
1.33919
1.33606
1.33281
1.33026
1.32792
1.32527
1.32369
1.32252
1.32075
1.31883
1.31774
1.31644
1.31445
1.31256
1.31109
1.30937
1.30688
1.30491
1.30416
1.30294
1.3012
1.30058
1.3002
1.29892
1.29814
1.29768
1.29633
1.29506
1.29467
1.29387
1.29244
1.29181
1.29137
1.29021
1.28898
1.28821
1.28615
1.68109
1.674
1.667
1.66005
1.65333
1.64684
1.64049
1.63441
1.62849
1.62226
1.61579
1.60942
1.60311
1.59659
1.59001
1.58389
1.57806
1.57212
1.56636
1.56112
1.55601
1.55075
1.54554
1.54072
1.53597
1.53116
1.52642
1.52195
1.51748
1.51315
1.50892
1.50481
1.50072
1.49671
1.49293
1.48931
1.48565
1.48187
1.47839
1.47502
1.47159
1.46844
1.4656
1.46247
1.45969
1.45804
1.45593
1.45293
1.45113
1.44945
1.44679
1.44453
1.44277
1.4405
1.43809
1.43615
1.4339
1.43106
1.4286
1.42605
1.4228
1.42037
1.41814
1.4153
1.41282
1.41054
1.4078
1.40501
1.40243
1.39942
1.39558
1.39239
1.38959
1.3862
1.38357
1.38174
1.37949
1.37679
1.37465
1.37264
1.37012
1.36701
1.3641
1.36137
1.35821
1.35441
1.35216
1.35051
1.34829
1.34575
1.34409
1.3423
1.33997
1.33766
1.33557
1.33297
1.32948
1.32656
1.32447
1.32226
1.31993
1.31853
1.31717
1.31531
1.31359
1.31246
1.31094
1.30879
1.30679
1.30515
1.3033
1.30085
1.29931
1.29859
1.29729
1.2958
1.29522
1.29447
1.29311
1.29203
1.29097
1.28933
1.28818
1.28794
1.28738
1.2862
1.28575
1.28553
1.28469
1.28351
1.28262
1.2805
1.68215
1.67532
1.66858
1.66186
1.65529
1.64884
1.64237
1.63596
1.6296
1.623
1.61612
1.60934
1.6028
1.59623
1.5896
1.58337
1.57743
1.57135
1.56532
1.5598
1.55443
1.54892
1.54335
1.53811
1.53296
1.52769
1.52242
1.51754
1.51286
1.50833
1.50384
1.49952
1.49525
1.49108
1.48708
1.48314
1.47915
1.47504
1.47102
1.46705
1.46316
1.45954
1.45594
1.45251
1.44966
1.44704
1.4438
1.44053
1.43863
1.43651
1.43355
1.43168
1.42999
1.42743
1.42493
1.42314
1.42076
1.41744
1.41525
1.41312
1.41001
1.40814
1.40645
1.40394
1.40198
1.40012
1.3976
1.39509
1.3928
1.38988
1.38626
1.38373
1.3813
1.37819
1.37611
1.37434
1.37195
1.3694
1.36744
1.3653
1.36253
1.35934
1.35659
1.35404
1.35108
1.34784
1.34598
1.34423
1.34191
1.33953
1.33789
1.33594
1.33365
1.33152
1.32936
1.32645
1.323
1.32076
1.31889
1.31658
1.31459
1.31337
1.31185
1.31002
1.30863
1.3073
1.30551
1.3032
1.30112
1.29938
1.29749
1.29533
1.29415
1.29339
1.2921
1.29083
1.29008
1.28902
1.28754
1.2859
1.28422
1.28268
1.28172
1.28147
1.28127
1.28035
1.28
1.27999
1.27943
1.27824
1.27729
1.27527
1.68303
1.67633
1.66976
1.6632
1.65667
1.65014
1.6435
1.63678
1.63011
1.62335
1.61639
1.60945
1.60271
1.59599
1.58925
1.58291
1.57688
1.5708
1.56468
1.55895
1.55342
1.54778
1.54195
1.53631
1.53075
1.52504
1.51931
1.51403
1.5091
1.50436
1.49967
1.49521
1.49086
1.48648
1.48216
1.4779
1.47369
1.46943
1.46534
1.46136
1.45737
1.45336
1.4493
1.44558
1.44225
1.43886
1.43504
1.43216
1.42984
1.42712
1.42437
1.42226
1.4198
1.41678
1.41428
1.41207
1.40892
1.40537
1.40362
1.40151
1.39851
1.39709
1.39556
1.39319
1.39151
1.38976
1.38719
1.3848
1.38277
1.38008
1.37684
1.37487
1.37279
1.36993
1.36812
1.36653
1.36426
1.36203
1.36012
1.3579
1.35502
1.35176
1.34921
1.34694
1.34421
1.34144
1.33988
1.33812
1.33587
1.33379
1.33195
1.32989
1.32768
1.32553
1.32321
1.32004
1.31745
1.31586
1.31396
1.31192
1.31034
1.30881
1.30704
1.30539
1.30397
1.30238
1.30032
1.29775
1.29563
1.29403
1.29225
1.29054
1.28965
1.28877
1.2875
1.28627
1.28517
1.28383
1.28216
1.27997
1.27789
1.27679
1.27588
1.27539
1.27551
1.27503
1.2745
1.27454
1.2741
1.27295
1.27193
1.27022
1.6833
1.67664
1.67009
1.66354
1.65696
1.65032
1.64357
1.63669
1.62987
1.62313
1.61631
1.60949
1.60283
1.59619
1.58957
1.58328
1.57717
1.57096
1.56462
1.55854
1.55269
1.54679
1.54068
1.53479
1.52913
1.52333
1.51736
1.5117
1.50641
1.50133
1.49636
1.49174
1.48723
1.48269
1.47823
1.47381
1.46943
1.46498
1.46065
1.45644
1.45225
1.44795
1.44378
1.44001
1.43646
1.43286
1.42926
1.42632
1.42343
1.4204
1.41767
1.41496
1.41175
1.40866
1.40615
1.40334
1.39954
1.39674
1.3948
1.39203
1.38929
1.38777
1.38576
1.38322
1.38168
1.37994
1.3772
1.37498
1.37332
1.37094
1.36803
1.36649
1.36477
1.36242
1.36086
1.35925
1.35705
1.35473
1.35272
1.35051
1.34758
1.34452
1.34268
1.34085
1.33843
1.33605
1.33452
1.33277
1.33073
1.32867
1.3266
1.32454
1.32236
1.32
1.3174
1.31481
1.31303
1.31131
1.30952
1.30811
1.3067
1.30501
1.3032
1.30142
1.29961
1.29768
1.29538
1.29261
1.2909
1.2897
1.28815
1.28685
1.28595
1.28489
1.2836
1.2822
1.28069
1.27898
1.2771
1.27486
1.27283
1.27179
1.271
1.27055
1.2707
1.27039
1.2697
1.26957
1.26923
1.26825
1.26707
1.26592
1.68318
1.67651
1.66997
1.66349
1.65698
1.6504
1.64367
1.63675
1.62981
1.62303
1.61632
1.60962
1.60293
1.59608
1.58918
1.58276
1.57687
1.57107
1.56504
1.55897
1.55301
1.54694
1.54051
1.53416
1.52814
1.52215
1.51611
1.51031
1.50476
1.4993
1.4939
1.489
1.48453
1.48009
1.47557
1.47092
1.46621
1.46147
1.45691
1.45245
1.44809
1.44371
1.43947
1.43553
1.43176
1.42809
1.42469
1.42163
1.41852
1.41544
1.41245
1.4091
1.40553
1.40252
1.39972
1.39632
1.39265
1.3904
1.3881
1.3849
1.38259
1.38073
1.37809
1.37567
1.3741
1.37207
1.3692
1.36715
1.36547
1.36316
1.36045
1.35909
1.35764
1.35546
1.35402
1.35255
1.35043
1.34819
1.34628
1.34422
1.34156
1.33875
1.33727
1.33577
1.33362
1.33174
1.33051
1.32894
1.32702
1.32495
)
;

boundaryField
{
    inlet
    {
        type            calculated;
        value           nonuniform 0();
    }
    outlet
    {
        type            calculated;
        value           nonuniform List<scalar> 
18
(
1.37032
1.3623
1.35434
1.34664
1.33945
1.33252
1.32624
1.32026
1.31468
1.30914
1.3036
1.29786
1.29201
1.28616
1.28052
1.27529
1.27025
1.26595
)
;
    }
    bottom
    {
        type            symmetryPlane;
    }
    top
    {
        type            symmetryPlane;
    }
    obstacle
    {
        type            calculated;
        value           nonuniform 0();
    }
    front
    {
        type            empty;
    }
    back
    {
        type            empty;
    }
    procBoundary47to39
    {
        type            processor;
        value           nonuniform List<scalar> 
133
(
1.55116
1.5486
1.54612
1.54366
1.54113
1.53856
1.536
1.53338
1.53067
1.52792
1.52515
1.5223
1.51937
1.51652
1.51371
1.51072
1.50757
1.50466
1.50186
1.4988
1.49565
1.49292
1.49022
1.48722
1.48421
1.4815
1.47878
1.47564
1.47235
1.46961
1.46692
1.46376
1.46054
1.45786
1.45522
1.452
1.44875
1.44667
1.44448
1.44132
1.43897
1.43739
1.43507
1.43219
1.43028
1.4285
1.42602
1.42387
1.42265
1.42104
1.41858
1.41721
1.41615
1.41411
1.41185
1.41065
1.40903
1.40634
1.40448
1.40323
1.40126
1.39875
1.3973
1.39591
1.39376
1.39159
1.39042
1.38905
1.38685
1.38545
1.38458
1.38305
1.38186
1.38191
1.38167
1.38026
1.37985
1.37981
1.37805
1.68366
1.6856
1.68792
1.68851
1.68767
1.68777
1.6873
1.68498
1.68231
1.67951
1.67636
1.67306
1.6696
1.66584
1.66171
1.65758
1.65363
1.64952
1.6452
1.64082
1.63656
1.63238
1.62824
1.6242
1.62031
1.61662
1.61318
1.60994
1.60677
1.60369
1.60071
1.5976
1.59441
1.59134
1.58833
1.58536
1.58267
1.58011
1.57758
1.57548
1.5735
1.57143
1.56952
1.56773
1.56588
1.56392
1.56199
1.56012
1.55824
1.55628
1.55422
1.55209
1.54987
1.54987
)
;
    }
    procBoundary47to46
    {
        type            processor;
        value           nonuniform List<scalar> 
17
(
1.68031
1.67541
1.67248
1.67038
1.66926
1.66945
1.6708
1.67286
1.67479
1.67844
1.68178
1.68457
1.68623
1.68828
1.68908
1.6899
1.69013
)
;
    }
    procBoundary47to54
    {
        type            processor;
        value           uniform 1.68998;
    }
    procBoundary47to55
    {
        type            processor;
        value           nonuniform List<scalar> 
133
(
1.32288
1.3208
1.31838
1.31571
1.3133
1.3115
1.30979
1.30813
1.30681
1.30541
1.3038
1.30208
1.30034
1.29837
1.29629
1.29421
1.29177
1.28945
1.28833
1.28718
1.28583
1.2846
1.28341
1.28214
1.28071
1.27896
1.27684
1.27483
1.27312
1.27153
1.26985
1.26857
1.26788
1.26755
1.26728
1.26693
1.26627
1.26562
1.26535
1.26456
1.26302
1.26108
1.68274
1.67608
1.66949
1.66293
1.65629
1.64963
1.64293
1.63616
1.62939
1.62271
1.61603
1.6094
1.60305
1.59686
1.59056
1.58413
1.57762
1.57109
1.56465
1.55839
1.55233
1.54626
1.53992
1.53363
1.52758
1.52155
1.51545
1.50959
1.50404
1.49853
1.49293
1.4875
1.48251
1.47781
1.47327
1.46873
1.46421
1.45955
1.45476
1.44985
1.44502
1.44033
1.43606
1.43214
1.42838
1.4249
1.42142
1.41796
1.41461
1.41133
1.40799
1.40429
1.4009
1.39803
1.39495
1.39121
1.38812
1.38573
1.38301
1.38009
1.37782
1.37542
1.37257
1.3704
1.36854
1.36608
1.36305
1.36131
1.35974
1.3575
1.35521
1.35387
1.35231
1.35019
1.34891
1.34761
1.34561
1.34325
1.34131
1.33951
1.33714
1.33496
1.33394
1.33274
1.33094
1.32924
1.32798
1.32652
1.32469
1.32288
1.32265
)
;
    }
}


// ************************************************************************* //
