/*--------------------------------*- C++ -*----------------------------------*\
  =========                 |
  \\      /  F ield         | OpenFOAM: The Open Source CFD Toolbox
   \\    /   O peration     | Website:  https://openfoam.org
    \\  /    A nd           | Version:  7
     \\/     M anipulation  |
\*---------------------------------------------------------------------------*/
FoamFile
{
    version     2.0;
    format      ascii;
    class       volScalarField;
    location    "0.108";
    object      T;
}
// * * * * * * * * * * * * * * * * * * * * * * * * * * * * * * * * * * * * * //

dimensions      [0 2 -2 0 0 0 0];

internalField   nonuniform List<scalar> 
12359
(
9.64102e-98
2.29141e-78
-1.78026e-269
-1.19299e-51
-3.11534e-89
-1.46761e-35
-2.60676e-30
9.42382e-33
4.69622e-23
1.52278e-38
-9.84285e-27
1.18204e-17
-0.000148636
-3.49589e-49
1.18657e-54
4.03927e-09
-1.53626e-06
3.72848e-147
-8.9956e-152
-2.80764e-65
3.91106e-45
-5.65211e-20
-3.57856e-72
1.90461e-61
-1.3397e-75
1.28816e-68
9.48134e-195
1.14708e-198
4.39795e-158
-4.14299e-183
-5.29322e-176
-1.87631e-216
1.18998e-238
7.99542e-187
5.64975e-254
1.9733e-172
-1.13776e-118
-2.09227e-102
-7.85869e-93
8.54296e-109
-1.18224e-81
-5.62605e-106
-7.98733e-129
3.50818e-132
3.1925e-165
-1.25245e-161
-7.77211e-169
1.58377e-179
-1.09793e-154
-1.16741e-190
-7.86888e-202
-5.23009e-209
3.60408e-220
-3.18017e-143
1.95891e-228
-5.49823e-235
-9.41565e-136
-2.13391e-242
3.31422e-246
-4.27881e-250
1.70385e-231
7.53221e-262
2.31903e-205
0.372101
1.95861e-139
-9.17942e-42
1.71731e-122
1.15465e-212
3.56506e-115
-6.29852e-12
30.6001
2.7074e-85
3.59732e-273
-8.06873e-112
-7.6217e-58
-8.788e-258
-8.45048e-224
6.05901e-266
2.53728e-126
5.94586e-15
-4.82183e-42
5.9299e-186
0
-1.35036e-117
5.55925e-07
-5.88399e-139
-1.9803e-183
-6.16935e-255
3.32254e-05
9.52056e-08
-2.95414e-312
0.315355
1.92643e-314
-2.55603e-151
-9.74527e-123
1.79051e-119
7.99208e-158
5.68864e-153
8.9491e-80
3.6263e-97
2.61672e-36
4.66416e-297
1.63604e-138
0.58801
2.35179e-198
-2.36721e-65
0
3.31748e-07
-1.06981e-152
-3.8806e-67
8.05475e-161
3.14968e-185
-3.08542e-49
2.36696e-42
-1.50192e-123
-3.53384e-230
-2.44497e-41
2.08455e-186
0.000886279
0
-1.25328e-163
-1.14055e-34
4.38021e-253
1.11014e-91
-6.19306e-185
1.11293e-216
9.58217e-31
-1.68653e-115
-2.4151e-266
-4.11411e-187
3.4251e-230
6.70488e-25
1.78127e-20
1.97648e-21
0
1.97981e-91
-1.65958e-228
4.67342e-93
1.05432e-290
2.37675e-32
0
-6.89396e-97
-1.1548e-85
0
-2.023e-41
-5.48877e-43
0
3.47393e-08
-6.79495e-197
-2.63353e-39
-1.48812e-118
3.92123e-293
-6.67906e-84
2.58265e-250
-1.13635e-322
71.3327
7.00724e-38
1.45658e-25
-3.95573e-159
-1.23931e-231
1.20792e-59
-8.21149e-230
4.83298e-92
3.81359e-87
0
5.15016e-219
5.82301e-62
-9.17911e-34
-1.78379e-89
3.1692e-05
4.51975e-262
3.44231e-260
-7.14461e-93
-1.15727e-77
9.94236e-201
1.31769e-32
-5.61419e-167
-7.96374e-170
-7.55483e-48
2.92519e-34
1.3553e-50
-1.03023e-319
3.19062e-267
-3.66481e-185
8.68979e-82
-1.39515e-24
-1.4076e-155
-7.0057e-128
5.4165e-115
-5.46794e-155
-5.50033e-126
5.49941e-122
-6.05224e-122
-1.00979e-248
1.62267e-67
1.28397
4.13082e-114
9.44765e-155
1.18478e-81
5.98494e-185
-1.41076e-41
2.63964e-116
-1.17227e-95
-1.80811e-69
-2.61951e-46
-2.81123e-321
1.04998e-44
-1.0268e-93
1.49004e-83
-3.44131e-170
0
9.55026e-49
1.44055e-47
114.283
-9.98092e-24
-1.11002e-288
-1.50764e-155
-2.35152e-125
8.83979e-155
2.54256e-96
1.24469e-42
-2.82664e-171
5.13352e-94
0.279105
-8.17777e-187
0
-3.90304e-93
-4.41597e-155
1.47366e-34
-2.18129e-150
-5.42929e-150
0
3.29499e-40
6.42579e-90
5.37307e-129
8.25765e-92
0
-2.19789e-79
-1.95405e-127
1.96766e-08
0
-6.58245e-136
-9.30135e-139
3.4753e-17
5.96627e-57
2.49695e-08
-3.63778e-250
2.98119e-85
1.69423e-209
-2.31567e-122
2.44741e-61
6.50456e-106
4.81113e-173
-5.07293e-149
0.0924864
88.6895
0
1.05554e-177
0.0945066
73.7854
5.56265e-96
3.78264e-58
4.23451e-38
-1.79419e-69
1.38997e-78
28.3287
0.000410374
-8.80199e-55
8.25206e-180
5.37448e-90
3.93809e-92
-9.56003e-80
-2.88594e-87
-2.04672e-151
-6.09867e-174
0
6.20449e-176
0.0657732
-1.50567e-55
2.1465e-308
2.87969e-295
-1.63317e-69
2.15112e-184
2.95911e-124
-3.69555e-138
0
1.411e-38
1.95287e-294
1.43921e-296
-1.12872e-219
4.21811e-94
-2.68755e-189
26.3739
0
0
-1.7272e-137
5.76655e-210
8.95085e-44
-2.6796e-130
-2.02973e-206
1.38679e-311
0.0313281
3.1444e-36
2.04803e-313
1.80003e-155
-2.3409e-132
-1.1007e-206
-2.01144e-228
-5.09414e-230
-2.31317e-204
-2.43139e-156
-5.28353e-25
-6.18012e-208
-2.58295e-177
-6.30181e-104
2.26784e-68
2.84728e-05
2.68922e-206
-3.45788e-82
1.89365e-11
1.38452e-296
2.44947e-92
-2.55957e-304
-8.98881e-112
0
-9.35495e-204
1.31179e-25
7.28918e-87
-3.42602e-26
2.63096e-126
-3.98971e-140
-6.94044e-125
1.61125e-118
-3.51477e-138
-1.13327e-124
-2.53325e-123
-8.02933e-281
1.45534e-239
8.57624e-241
8.94588e-236
-4.31304e-238
4.86036e-07
0
9.51609e-41
-1.30318e-98
5.06904e-85
-3.79132e-83
1.81376e-85
-3.39556e-137
-3.86075e-114
2.78585e-87
2.33054e-115
-3.01408e-83
7.10002e-64
6.67795e-62
7.65596e-49
-6.53272e-95
3.75225e-28
-9.97477e-99
-5.28916e-99
2.44896e-81
2.55192e-33
-4.80026e-186
-8.80371e-227
2.04717e-112
2.07881e-228
-1.99137e-185
78.162
3.44114
-6.8524e-185
1.75325e-285
0
0
8.0908e-89
-5.89173e-320
-8.99199e-322
0.000109585
-5.02991e-88
1.16283e-07
1.07478e-183
1.88057e-76
2.89922e-186
-6.72367e-137
-1.04488e-59
4.69431e-114
-6.87276e-52
3.85492e-116
-2.33846e-188
-3.18986e-306
-1.42109e-89
1.69991e-77
1.54071e-191
-8.4417e-18
-4.52601e-61
2.93691e-119
-3.43565e-74
5.03171e-63
-8.14237e-287
1.65428
1.62323e-26
7.75691e-182
3.23318e-18
-1.07632e-100
0
0
0
3.20668e-07
7.67191e-35
-1.31643e-80
8.32096e-96
-4.58366e-120
-2.13179e-120
2.85181e-52
-7.10359e-77
3.73592e-38
6.50817e-05
-7.53652e-16
2.52886e-84
2.90851e-50
-1.9716e-150
7.06599e-57
-3.01535e-118
3.09398e-110
3.1549e-188
-3.55721e-120
3.9792e-89
-1.1424e-318
59.1069
2.41453e-122
4.66087e-08
5.28291e-81
6.88026e-137
4.86938e-47
0.0751265
5.4203e-84
1.36803e-105
1.294e-120
1.18626e-78
4.92741e-58
-3.01046e-181
0
1.40317e-43
0
3.81157e-26
5.35151e-227
-1.66364e-70
2.40751e-55
7.58604e-168
3.19446e-07
1.37382e-39
-5.72596e-99
8.96816e-174
4.53807e-10
-4.14351e-288
3.87263e-189
5.48628e-35
1.0811e-283
-2.29928e-174
9.14568e-191
2.70419e-12
4.659
-5.17628e-119
-1.58736e-261
-1.74748e-52
5.60604e-65
2.95688e-94
6.28366e-80
4.16147e-90
-6.94901e-279
0
-5.40176e-71
8.97309e-309
6.94771e-57
7.23325e-94
5.71834e-58
4.2175e-171
2.87536e-45
3.26636e-34
1.26466e-186
1.00812e-122
-3.36733e-190
-1.79045e-46
1.05153e-35
-7.41198e-291
-3.69649e-69
-1.36819e-93
-1.5461e-151
5.7265e-67
8.31303e-226
1.12418e-34
-3.54903e-132
1.47269e-86
1.98205e-60
-1.26981e-276
8.78297e-123
2.51168e-22
1.05372e-18
3.09187e-311
2.46944e-103
7.22939e-18
3.69607e-110
0.0322511
0
2.84261e-229
-1.40417e-285
6.92258e-81
-9.39034e-97
-3.99559e-109
1.56733e-223
-7.78349e-73
2.35351e-108
4.27468e-82
5.55591e-177
2.20948e-10
-6.44756e-318
1.85103e-09
1.06573e-257
101.254
-5.84309e-131
6.78895e-24
-9.39196e-247
4.79871e-173
2.19087e-66
-2.18137e-187
-4.20451e-208
-1.46602e-128
3.81774e-94
-4.99107e-94
5.22857e-21
2.55441e-52
8.54946e-54
0
-1.58954e-188
2.53055e-90
8.12606e-18
0
3.12324e-312
-6.17157e-92
-1.9923e-283
-2.59721e-28
0.0741957
9.27983
0
9.44878e-134
1.41159e-59
-2.13371e-105
-3.69449e-202
46.7501
-1.78951e-318
4.88514e-38
1.30971e-53
1.09472e-134
-4.47278e-206
-4.629e-204
2.19439e-170
-1.10989e-99
-3.11834e-119
1.24315e-116
0
1.04414e-264
3.35902e-99
1.13019e-167
-6.45502e-50
-6.50594e-83
1.12064e-217
-1.73343e-310
1.36235e-62
63.5378
-1.27777e-178
2.04568e-39
0
-4.25566e-115
1.15006e-39
-2.27226e-113
5.23001e-63
1.09631e-45
-9.2398e-100
2.66525e-91
0
2.96346e-255
-1.03882e-117
2.11177e-124
-1.925e-101
-8.71384e-126
0
2.14422e-309
5.42329e-217
-9.98727e-81
1.23914e-81
-1.00466e-52
1.3247e-120
2.42248e-50
1.03336e-83
5.91194e-103
1.57677e-48
-2.47479e-81
6.45617e-08
-3.54414e-85
3.85389e-80
1.43023e-51
8.53018e-261
1.16327e-43
8.07564e-66
0
2.95895e-281
-3.04081e-281
5.99584e-258
1.02738e-16
1.52458e-105
1.14584e-159
-6.55544e-51
-3.20932e-127
2.29385e-24
1.03259e-111
-4.71383e-98
1.92747e-215
1.24694e-29
0
4.6628e-80
-6.68698e-175
1.22416e-31
-9.05629e-46
-9.64562e-107
1.38037e-110
1.33865
2.77297e-88
2.52617e-28
-8.65332e-117
7.05452e-20
0.0197694
7.12014e-268
1.89024e-180
0
2.00145e-19
5.37932e-181
1.06459e-117
6.43276e-07
4.36921e-314
1.53247e-79
-8.7177e-57
2.44053e-109
2.6561e-175
3.58711e-109
-1.5918e-239
-4.91854e-102
-4.7216e-237
-2.3217e-242
-1.25513e-107
-3.30374e-91
2.58121e-92
1.42914e-107
2.55752e-14
-4.43297e-115
4.291
6.77275e-82
-4.55132e-139
-2.53587e-104
2.00427e-83
5.29712e-83
-2.74368e-121
0.0170083
-6.26485e-56
-2.23504e-86
-6.07927e-91
-2.41754e-154
-2.16107e-170
2.80088e-63
0
0.0120885
-5.75752e-222
-4.52976e-54
-6.94992e-41
1.06424e-18
2.54623e-50
-4.93554e-75
2.38566e-58
3.01756e-118
1.53955e-49
1.58006e-65
8.79789e-29
-2.66029e-92
1.13959e-33
-1.12059e-92
0
5.95797e-88
92.6338
1.157e-22
5.16171e-154
0
-4.56043e-215
1.96877e-130
-2.39623e-72
4.17457e-94
-4.81686e-128
-1.89148e-280
-6.87399e-149
2.20018e-82
-2.0282e-155
1.1026e-175
3.63034e-34
1.23391e-138
5.20796e-71
9.77373e-70
8.12138e-150
5.5798e-144
2.59099e-44
0
-4.16178e-137
16.2485
-1.04276e-253
7.62023e-39
2.16256e-43
-2.31145e-145
4.70788e-52
5.20559e-69
-4.30272e-87
-6.22308e-57
-2.2386e-186
1.41592e-51
-2.45408e-203
-2.46386e-124
-6.72501e-73
-1.61179e-50
-6.69019e-186
1.29248e-88
3.44568e-25
-2.23281e-72
3.61303e-116
7.3456e-183
1.53456e-42
5.87989e-11
-1.14916e-158
8.92567e-290
5.70216e-86
-4.54199e-316
0.0167618
3.4231e-92
6.69035e-24
1.31585e-123
-9.63638e-130
0.988466
9.97168e-112
1.80985e-06
3.57941e-96
6.67809
9.36697e-91
1.5323e-114
9.74808e-114
-8.76235e-154
4.22221e-08
1.08898e-10
-1.75336e-263
-3.03094e-259
4.43263e-47
-1.38839e-246
8.62029e-06
1.33857e-59
2.08485e-17
3.66939e-183
84.0863
0.00170004
7.09244e-91
0
-3.79378e-192
-3.99072e-59
3.77635e-128
7.95909e-119
-4.8506e-125
3.70183e-89
2.32943e-67
0.492378
4.3527e-13
-2.26187e-283
1.19494e-58
4.75536e-56
-1.45553e-42
1.05076e-117
1.78277e-36
2.21987e-84
-2.5527e-57
4.40376e-175
0
2.57188e-53
9.82754e-49
-9.96935e-129
6.3144e-49
1.61143e-25
-5.12623e-141
3.0656e-89
-3.87399e-173
-8.10815e-132
-3.16809e-22
3.64954e-130
4.17677e-63
1.94124e-65
1.42578e-99
9.45183e-169
-9.09485e-117
1.9261e-26
8.12483e-128
2.45988e-119
0.686048
-1.70349e-78
-5.05129e-140
4.32178e-05
0
-3.82685e-125
-1.01023e-95
-6.30112e-131
7.69293e-220
5.475e-90
0
1.5951e-18
2.33159e-193
4.27829e-80
-2.43125e-48
5.87254e-51
-5.11017e-118
2.48505e-121
1.70125e-55
18.3447
-1.53107e-258
8.08412e-135
-1.30619e-140
2.58446e-05
6.04417e-48
-3.1684e-188
0.0999998
0
-1.41726e-194
77.5172
-4.75066e-145
-4.02831e-184
-3.80105e-180
-8.25033e-67
-1.85533e-62
-6.9682e-251
-4.04953e-136
1.35631e-39
2.53746e-95
1.5974e-99
-9.48316e-126
6.35104e-266
-1.41559e-60
3.59766e-17
-4.32659e-102
5.17654e-50
7.66197e-98
-1.26273e-123
3.7979e-20
-1.31878e-57
-1.99616e-123
1.50486e-193
3.24316e-09
5.81356e-93
1.24618e-72
1.2863e-171
1.58355e-255
6.39358e-52
3.99304e-29
-7.29e-132
-4.32112e-57
-9.70994e-129
-1.99001e-123
-4.96569e-163
3.01042e-61
73.1457
4.48462
2.17059e-60
-6.79981e-101
3.0312e-165
8.29881e-64
7.35468e-05
4.90849e-54
-6.22762e-190
1.83456e-33
2.94039e-18
2.08376
1.37666e-155
11.9799
-8.30348e-258
-3.98569e-121
-3.7095e-254
3.32054e-21
6.20026e-71
11.96
3.83107e-203
0.000133535
-1.44811e-243
5.77972e-102
8.37159e-75
1.00649e-130
9.04221e-33
2.84971e-08
-4.36876e-140
4.6635e-169
9.07093e-131
1.4047e-155
-1.91464e-142
6.47015e-24
1.44679e-74
-2.80156e-121
6.07415e-27
-1.69899e-143
3.15191e-249
3.66557e-105
6.85989e-213
1.08727e-42
-2.17685e-133
5.81805e-21
5.83351e-22
-7.81259e-66
5.69723e-67
8.75623e-77
1.06429e-113
7.53624e-05
4.2867e-134
-8.15806e-150
0
5.6466e-31
5.49836e-56
3.35022e-205
1.02793e-49
-3.27834e-129
5.78315e-68
1.69432e-59
-3.40215e-53
5.62577e-79
46.7624
4.90272e-76
-5.29416e-64
1.29719e-08
1.39642e-131
2.31941e-13
9.03906e-61
6.2102e-250
-4.26106e-132
-2.60845e-176
1.85264e-115
0
1.32324e-183
3.06539e-18
2.54812e-27
-1.65964e-186
82.2096
6.65007e-46
4.54286e-226
3.1064e-21
1.13846e-34
-1.36709e-233
1.5892e-18
4.06308e-50
3.51874e-22
-3.21304e-237
6.55613e-172
-1.14027e-155
-9.10684e-235
2.01285e-52
0.936644
-2.93791e-194
6.43052e-21
0
0.136222
-7.73452e-55
-7.39832e-85
-2.02903e-319
2.11631e-196
-5.07524e-119
6.4127e-81
3.61271e-26
1.24223e-66
8.14143e-146
-1.81006e-136
-4.66715e-240
3.41135e-59
2.06923e-59
-6.6413e-175
-2.58094e-282
1.75533e-106
2.22896e-69
4.56382e-69
1.81497e-215
4.31406e-17
-1.37755e-41
4.33186e-245
3.00985e-87
-1.46347e-137
1.3833e-121
96.7795
-8.3308e-146
-8.52691e-228
-1.27605e-94
1.78549e-57
-2.38019e-69
0.0951478
1.83715e-81
-1.1037e-136
1.71608e-64
1.67358e-133
-2.61018e-138
-2.00302e-134
2.36819e-130
-4.9796e-40
-2.40177e-116
4.51025
-1.94316e-67
5.66948e-16
1.29576e-136
1.52492e-15
3.36325e-49
2.83069e-33
-2.65454e-20
8.42665e-88
7.01014e-141
3.646e-146
1.60874e-103
0
-7.64027e-125
6.37572e-56
7.51447e-44
-3.78816e-134
4.57271e-247
-1.32237e-93
1.42664e-78
1.82207e-46
4.72316e-62
7.07578e-33
3.36183e-47
-9.90805e-170
2.76116e-78
4.11057e-06
9.88395e-58
0
1.77845e-160
-3.27055e-134
0
3.81449e-80
-4.31703e-260
-1.2333e-122
6.40939e-24
1.52788e-52
1.13028e-17
-7.43465e-257
7.25203e-202
-3.16108e-314
-1.3496e-135
-2.28685e-159
1.14909e-32
-2.3091e-157
-7.34006e-201
2.50146e-13
5.84917e-74
1.29375e-116
3.83876e-82
7.02611e-31
-6.87594e-155
1.37067e-20
5.41805e-147
1.02774e-251
2.24482e-09
9.93891e-102
1.58907e-33
9.00217e-153
16.048
4.79504e-63
-1.37209e-76
-1.43318e-94
-9.17302e-58
0.278685
-2.06424e-138
7.87833e-35
-1.19181e-62
-2.31794e-78
1.77393e-184
-1.90616e-131
4.87236e-13
-1.93399e-119
1.11172e-22
-3.99232e-143
-1.24446e-147
7.08042e-22
2.68743e-231
-5.56109e-166
-4.91572e-136
2.25779e-100
2.06931e-19
-1.94904e-143
-4.33962e-135
0
-2.93675e-61
8.63878e-10
8.01078e-84
-4.23876e-135
1.79837e-97
5.47961e-157
6.52791e-194
2.04807
-7.17224e-73
-1.27591e-292
2.38591e-76
-3.86508e-160
5.25928e-61
-1.32545e-38
-2.76002e-116
9.41075e-131
2.84376e-33
8.36098e-26
0
1.65644e-106
5.95498e-27
-1.69152e-205
1.68489e-269
1.05132e-88
3.45032e-99
-1.21582e-122
4.26225e-267
-1.06545e-90
2.13757e-21
1.23567e-228
-1.08193e-45
-1.67171e-254
-2.10368e-176
3.97411e-86
1.07109e-08
0
0.221683
-5.69495e-71
3.14109e-44
0.861305
1.01218e-66
1.94059e-108
0.000668271
-2.80104e-133
1.49649e-09
6.98573e-28
5.28034e-101
-1.77438e-125
-1.08147e-127
-1.32029e-147
-1.29083e-157
1.21469e-60
6.58477e-05
78.7891
2.7725e-67
-2.30333e-39
2.59418e-14
3.70547e-71
0.0041627
3.84931e-221
2.4156e-145
1.11436e-33
5.83414e-86
1.87478e-179
4.6017e-68
-2.88841e-141
0.346711
0
2.54808e-173
1.24336e-212
93.258
1.25233e-48
1.92017e-68
-4.82631e-120
-2.57108e-31
8.9569e-131
1.41797e-199
5.21666e-14
-6.91834e-139
1.61182e-13
5.48419e-60
-3.87572e-135
1.47447e-33
6.03761e-99
5.73612e-138
5.63698e-197
1.18673e-191
0.00719944
2.33111e-24
-7.49533e-178
7.88431e-32
2.21776e-118
-2.11848e-52
0
2.15982e-97
3.03487e-14
8.58189e-39
1.16433e-64
5.60732e-103
2.08327e-199
3.30832e-45
1.00163e-128
-3.43688e-203
2.82008e-20
1.32211e-41
-1.96712e-165
-2.87727e-43
-9.89269e-112
4.65073e-318
-3.5377e-182
-2.02247e-291
5.82343e-58
8.55422
1.78589e-20
8.37628e-48
5.5829e-171
1.28767e-125
4.67187e-100
1.02348e-298
1.06289e-14
1.97858e-100
11.2704
-4.25234e-37
-1.05687e-135
3.65113e-166
-3.15288e-216
3.21867e-144
9.95469e-132
-1.09726e-176
1.4595
2.3578e-39
1.91936e-64
9.49067e-27
1.01221e-61
-4.08101e-205
0
-4.01598e-178
4.23771e-47
0.000111003
1.04595e-35
1.11683e-85
-1.57652e-74
-1.27397e-96
9.77666e-41
4.89414e-05
0.000352456
8.87472e-129
2.45735e-106
-2.06852e-63
9.34949e-161
-7.76224e-284
1.60843e-178
1.07809e-35
-8.72521e-160
-4.69366e-112
-2.76541e-141
6.14552e-63
7.69238e-20
3.79419e-151
3.64641e-177
1.31531e-25
1.04807e-44
-5.18324e-123
-5.17712e-183
-1.73423e-76
6.48266e-20
6.74751e-48
-2.08117e-45
-3.68776e-80
-1.03291e-126
5.6081e-10
1.37113e-123
-1.95952e-34
-2.56202e-194
4.24725e-21
1.91467e-26
-5.30851e-255
-1.03578e-211
49.4623
9.3503e-182
1.20601e-112
6.87297e-54
-4.42944e-154
-4.79154e-153
5.61397e-134
5.15497e-184
-4.52638e-314
1.28632e-59
8.738e-13
3.6374e-216
9.00929e-05
2.09011e-144
1.09607e-183
1.19032e-20
2.29302e-15
-4.90626e-48
9.51464e-134
1.41974e-174
1.40184e-70
82.738
-1.66476e-156
8.08568e-218
1.08699e-225
1.00623e-158
1.26336e-90
-1.86383e-65
1.58991e-162
-6.26393e-102
6.00343e-169
0.386051
1.48538e-17
6.61601e-102
3.19698e-56
3.43798e-142
8.57006e-183
6.78665e-46
0.0223941
-2.50741e-111
-1.74682e-223
3.95736e-185
1.30321e-24
-5.5186e-156
-1.324e-196
8.26591e-30
1.76159e-135
-1.37312e-184
70.7894
1.64657e-26
0.000807399
3.58522e-46
2.13433e-156
1.91039e-42
9.96415e-18
0.000572221
-1.27251e-145
1.55884e-72
4.9638e-303
0.00222998
0
1.59421e-150
-1.68452e-153
6.42924e-223
1.11582e-81
7.24274e-121
-2.11772e-154
-7.85225e-148
0.00993108
2.01515e-24
-8.7518e-93
1.25411e-176
1.6145e-55
0.0195992
3.82026e-23
1.57557e-66
-3.31096e-78
2.67749e-150
7.1531e-129
4.78562e-222
1.97661e-164
9.54278e-214
2.73546e-179
2.04079e-68
1.42568e-25
2.96117e-41
0.00401207
5.32083e-08
1.94485e-17
-2.34182e-47
0.00177801
-5.03876e-199
7.99541e-12
1.21226e-186
3.48084e-06
7.08559e-25
7.37017e-71
-1.1607e-163
3.48647e-68
5.55593e-57
8.12885e-120
6.07038
1.8475e-20
0.00285673
1.92703e-181
3.21855e-19
3.11759e-12
2.22302e-24
9.46695e-13
4.17219e-21
-3.26833e-185
-6.77297e-133
1.27434e-98
3.97128e-169
3.72152e-54
2.93325e-154
5.64626e-68
-3.88833e-259
-3.54897e-139
1.46074e-58
2.51778e-86
-4.13191e-205
8.69291e-75
0.0002698
35.9444
3.41674e-225
6.12732e-76
1.8274e-143
7.48252e-17
-2.84189e-58
0.58703
1.44616e-09
-5.34664e-150
8.67852e-79
1.99263e-12
1.34898e-32
4.81482e-10
5.35049e-84
3.58944e-20
4.00395e-210
0.000343499
1.69399e-28
-1.09614e-180
1.04267e-13
7.76088e-09
3.54259e-70
0.00184417
1.1467e-146
5.43746e-15
-1.4062e-120
4.74904e-232
3.7451e-113
1.78503e-128
5.76172e-05
6.20847e-21
4.18401e-06
-3.4663e-201
0.00491622
2.5454e-70
1.61284e-27
2.59353e-50
2.49331e-82
1.58442e-97
2.47256e-07
2.19302e-144
2.91809e-167
7.60719e-58
8.76827e-16
3.02536e-55
7.77305e-45
-8.12019e-88
0.000379109
5.03278e-49
1.0678e-55
4.18186e-16
-5.00156e-224
3.96086e-13
2.82475e-39
8.9142e-14
-2.14608e-115
8.90504e-11
4.21649e-218
2.88075e-57
1.04049e-104
2.76101e-25
5.35509e-110
3.24043e-59
1.18854e-14
34.9141
1.16481e-140
3.79357e-95
2.19519e-69
8.44172e-35
1.4923e-50
4.80157e-149
-1.18746e-73
-1.07959e-218
2.78123
0
-1.81125e-218
-4.08973e-289
7.66811e-19
-1.18256e-182
1.99392e-66
9.54887e-05
1.85172e-101
1.5209e-88
-2.30186e-173
3.22092e-273
1.59678e-16
1.7718e-224
7.24202e-60
7.68282e-24
2.04077e-72
9.948e-11
-3.25546e-151
4.55258e-73
5.90647e-15
-6.39907e-45
-6.77386e-116
41.5834
0
5.20955e-265
1.32248e-132
100.554
-1.85686e-117
-6.57189e-134
2.09829e-13
-2.47004e-163
1.25212e-149
6.27464e-38
4.16237e-14
4.57267e-61
1.08688e-08
1.93723e-158
1.02907e-137
8.21935e-97
9.59532e-98
1.40239e-25
5.736e-189
8.62664e-131
-6.32107e-84
-5.23965e-26
3.42398e-108
-2.37864e-207
4.76217e-70
-3.11115e-29
-4.38794e-276
1.86424e-271
6.62909e-10
-4.56876e-60
3.83432e-09
-4.17852e-148
0
-1.14912e-27
2.24634e-19
8.68791e-203
-1.47129e-154
2.73688e-220
0.115827
2.65207e-274
1.69115e-63
4.34548e-13
9.03668e-269
5.05248e-271
2.60709e-46
1.93804e-236
8.78811e-272
-9.39218e-95
1.24714e-23
-1.70777e-209
9.77173e-42
1.042e-226
8.0592e-16
0
4.22736e-13
1.36609e-21
1.96447e-54
-3.95404e-268
9.13279e-38
0.471027
1.05836e-160
6.44587e-74
8.76492e-244
5.70507e-26
2.16416e-229
2.50143e-15
2.25597e-24
1.69239e-131
1.66593e-282
4.14123e-22
-1.66764e-27
2.91339e-104
4.0525e-104
9.21088e-27
4.35624e-234
3.20117e-39
7.99014e-285
2.83406e-16
8.66351e-17
6.90462e-28
9.02862e-53
3.98918e-37
0.0194514
2.13799e-59
1.61597e-102
2.94775e-26
2.02873e-151
2.06171e-35
3.34821e-26
1.38976e-63
3.21005e-142
2.96913e-05
4.29215e-312
1.88883e-06
55.7492
-5.07785e-168
2.72341e-23
6.02372
-3.89399e-57
5.25241e-100
5.78984e-40
-6.5051e-82
-3.17461e-216
8.62414e-17
6.9458e-06
0.0377219
-7.6171e-152
4.99652e-48
2.79063e-12
8.80433e-23
-2.53812e-176
-1.64419e-261
3.09602e-83
9.69955e-08
1.42838e-15
3.51047e-28
0
1.23457e-229
2.48461e-25
-1.44017e-158
2.10589e-84
-1.92473e-152
-6.16934e-278
7.78716e-15
3.06812e-153
7.09876e-14
1.02475e-102
3.72243e-246
7.08045e-262
2.92031e-24
-3.64948e-153
3.96612e-55
5.56298e-28
1.61389e-06
-1.41034e-78
-8.99255e-208
1.91623e-12
6.69876e-124
-6.72992e-221
-1.32028e-127
2.15384e-25
4.40517e-159
1.29979e-23
4.16799e-88
97.8022
4.19266e-27
3.22618e-195
1.53478e-13
-2.70652e-288
1.78633e-18
-1.43328e-71
5.22568e-11
1.86944e-08
1.72156e-65
1.15773e-11
9.68149e-244
4.86483e-21
-4.08735e-164
1.08455e-77
1.22282e-14
-7.86759e-57
1.74532e-14
4.14178e-06
-5.19768e-31
7.1761e-20
6.474e-11
-2.2186e-203
1.23358e-225
-2.91971e-286
4.72971e-12
3.88427e-38
-4.72878e-201
9.11546e-16
8.1261e-17
-6.14198e-87
1.46082e-36
3.73731e-103
7.89679e-54
9.45316e-13
-4.60746e-108
-7.60661e-71
2.43204e-65
2.08225e-304
1.4837e-300
3.95356e-202
-3.80414e-151
6.61968e-106
7.09073e-250
-1.47524e-129
-1.30612e-138
3.04603e-87
9.8014e-59
-4.13872e-178
1.29203e-15
0
5.29101e-23
5.76518e-11
2.33169e-193
1.32911e-08
2.9719e-32
5.04479e-16
-1.26123e-107
1.06449e-28
1.91828e-159
4.17109e-73
6.39089e-91
3.96178e-264
-2.14156e-164
-1.08751e-137
4.5881e-191
2.16561e-290
1.55205e-83
1.00027e-292
6.10646e-49
1.22199e-54
0.000344021
1.13581e-253
-8.83898e-92
1.70763e-247
-3.87287e-161
1.12017e-34
-9.92868e-96
-2.08401e-198
80.7834
1.76229e-23
-3.12374e-59
4.46432e-92
3.44257e-28
4.14634e-37
-3.55256e-131
-9.0887e-44
1.24589e-23
1.03753e-138
3.04243e-287
-4.693e-127
2.36251e-20
2.54039e-224
8.31194e-204
7.2468e-23
-4.23318e-166
-8.13218e-162
6.54999e-141
-2.80663e-207
3.08405e-11
2.87503e-251
4.11545e-206
1.60709e-54
-5.62764e-43
0.00181402
2.21009e-22
-4.94021e-89
2.14201e-195
1.00361e-42
1.00031e-197
6.99728e-52
3.50734e-117
-1.47601e-138
1.51392e-11
-4.12859e-258
3.03194e-41
1.50322e-81
2.33444e-26
7.3151e-61
9.25365e-297
-1.86955e-140
0
5.47876e-48
1.02258e-227
1.2449e-33
-3.07197e-86
-4.85411e-141
-9.54594e-86
2.93592e-75
1.01328e-288
3.92943e-40
9.08862e-51
-1.06544e-150
5.31014e-52
6.48602e-17
1.28993e-275
-3.38386e-75
2.10032e-19
4.82673e-36
3.53744e-115
2.63546e-73
2.88934e-71
1.07265e-89
7.61913e-111
1.04182e-23
-8.39746e-110
-1.15473e-194
-1.20822e-196
1.00019e-11
1.45807e-16
1.52511e-15
-1.37353e-11
1.22156e-55
1.1639e-36
2.47645e-85
9.78988e-43
1.4473e-196
0.000151751
-7.46929e-161
1.11176e-10
1.28017e-31
8.01192e-200
1.52367e-40
2.00583e-18
5.58606e-18
8.91582e-84
2.74148e-51
6.07236e-199
6.07701e-322
3.06455e-26
2.85698e-286
-7.54622e-257
-1.83487e-29
-1.5914e-160
-3.54893e-101
-1.60768e-205
-4.38143e-148
2.58616e-27
1.89982
8.28304e-167
-4.12392e-171
1.79374e-21
1.02831e-60
6.3999e-19
3.30125e-47
3.94915e-41
-3.66747e-165
1.13353e-66
4.99213e-48
1.40256e-29
3.34109e-48
1.56607e-204
1.69985e-28
-1.19175e-57
8.29215e-35
-1.65596e-127
-6.16507e-203
3.81137e-29
6.75806e-163
-1.09955e-274
1.01283e-43
-1.38377e-14
-1.82007e-252
1.41603e-50
1.55411e-89
-3.65722e-176
1.2317e-115
2.51089e-176
3.91233e-43
-4.45713e-194
-2.8896e-205
1.87663e-100
1.1759e-44
-3.79828e-63
9.07073e-41
1.79707
8.1354e-143
2.78141e-94
7.31958e-08
-3.02747e-64
4.12571e-178
-1.36702e-59
2.6687e-17
9.38263e-263
2.81758e-166
3.54574e-280
4.19923e-50
2.76942e-25
4.15504e-100
3.72967e-295
-1.90134e-122
-1.13437e-119
1.09053e-136
7.85545e-16
-5.58956e-161
-1.03834e-297
5.89949e-288
1.25345e-54
-2.71577e-85
-1.89772e-10
3.09792e-125
2.58192e-77
1.99891e-81
4.17151e-41
6.92795e-222
2.43012e-39
2.29496e-267
1.51252e-257
3.90412e-279
3.80066e-20
-2.59447e-156
5.34089e-46
8.11622e-63
1.72205e-55
1.67328e-42
2.01995e-53
1.41792e-23
1.70523e-40
2.00456e-156
-1.25831e-71
2.02246e-68
-2.88514e-67
7.6005e-34
-2.7839e-166
2.48955
4.32857e-27
6.40101e-31
1.41607e-255
0.0134469
4.21163e-41
3.85424e-44
2.61518e-42
1.34433e-29
-8.22521e-94
2.20485e-140
-1.9147e-150
4.19999e-165
-6.02792e-158
2.43319e-28
5.99978e-38
-1.39484e-164
1.0756e-58
5.48634e-139
-1.24019e-153
-1.31573e-102
2.18358e-67
-1.06817e-124
1.60757e-85
-8.84833e-70
2.16195e-69
2.10737e-42
3.59738e-92
-6.84389e-246
7.14666e-118
-3.45566e-155
2.09368e-19
6.36633e-227
-2.10038e-160
-9.92009e-53
9.15595e-06
4.79255e-194
5.03793e-09
-1.16566e-200
1.33599e-164
3.59188e-101
8.07643e-57
-4.24136e-66
5.30409e-222
2.03232e-52
5.15242e-52
6.18712e-19
3.90968e-255
1.01241e-65
3.61091e-78
-1.24498e-124
2.1712e-277
0
-1.79827e-40
-8.96174e-85
-1.17366e-113
2.05304
2.14119e-44
-6.26724e-61
-9.04725e-40
4.96187e-102
1.14562e-18
4.45605e-141
8.79467e-102
-3.43393e-131
-9.35239e-139
2.58583e-12
2.15432e-64
1.02977e-42
-2.92306e-69
9.86446e-214
7.94653e-51
2.48843e-49
9.80345e-23
-2.38893e-143
-2.01209e-62
-2.4395e-08
7.25389e-10
-6.10168e-203
3.35799e-19
9.02559e-105
0.177215
-1.30284e-275
4.78808e-51
-1.39586e-70
-1.40025e-307
4.75756e-44
-5.91428e-126
-2.26307e-119
5.3211e-36
9.90656e-15
2.91044e-24
-5.77394e-119
6.54375e-53
-5.26748e-267
-9.27516e-158
2.48449e-12
-1.97286e-50
1.63788e-148
7.04553e-51
-6.43981e-33
4.82573e-55
2.12612e-86
7.56754e-78
3.27152e-62
3.41069e-13
4.26125e-212
6.30588e-82
1.25557e-106
1.28929e-45
-3.42152e-13
-6.62417e-57
3.87688e-62
-2.03603e-135
-2.55436e-280
1.68513e-43
-2.33975e-61
1.6483e-56
8.39694e-218
-1.44269e-105
9.53128e-69
-1.99647e-58
8.53454e-39
6.04544e-50
-1.04384e-137
4.89505e-58
-2.45941e-158
6.77366e-40
7.22044e-105
1.31262e-44
-1.08545e-94
-4.90473e-117
2.08063e-59
-1.18876e-105
3.24963e-114
-2.06595e-136
-7.39796e-214
5.51868e-81
-1.58781e-79
-4.77289e-105
0.0109653
3.77482e-09
-4.24452e-175
9.14809e-151
2.70138e-85
7.21055e-83
3.37887e-294
1.4467e-47
8.89973e-58
2.50938e-51
-1.06714e-270
2.52922e-22
7.93281e-53
4.35473e-28
1.68184e-49
5.30228e-256
3.60167e-136
-1.21232e-115
2.96228e-57
1.74592e-15
0.0665151
-4.62051e-207
4.36519e-102
-1.03987e-119
1.43353e-20
8.72548e-13
8.64665e-24
3.61761e-80
3.61201e-58
-3.38456e-268
2.6111e-75
-5.89903e-81
-5.26469e-205
-1.49493e-34
4.95188e-89
4.30085e-68
4.59331e-56
1.32666e-101
-2.49171e-85
-6.27705e-61
-5.21045e-258
0
1.90883e-75
-3.29312e-102
3.05891e-14
3.15963e-108
-2.15834e-36
4.46679e-23
-8.40582e-65
2.62112e-205
-3.52969e-91
2.47058e-54
-1.14489e-211
1.00467e-09
2.951e-12
4.47009e-173
1.2894e-268
-7.28679e-172
8.42721e-214
-1.2038e-312
9.25842e-94
-9.86926e-122
1.88603e-44
3.54754e-91
8.81257e-59
2.02865e-71
5.15856e-21
3.39336e-57
4.30023e-52
-3.91691e-96
-4.55367e-101
-2.20949e-57
-2.1673e-257
-1.22632e-115
-6.40809e-130
5.78447e-51
6.0542e-42
3.97349e-15
-9.53988e-316
-8.40768e-44
-1.24263e-72
3.79283e-94
1.73854e-37
3.43434e-57
1.56235e-40
2.14624e-13
1.75878e-79
2.74135e-32
-5.63606e-103
-1.70088e-145
-1.56981e-71
2.411e-54
-1.06327e-214
4.33453e-95
5.16817e-11
-4.04028e-119
2.04144e-14
1.2449e-203
1.99173e-55
5.92228e-139
-4.75829e-138
3.1704e-47
-1.35436e-32
6.27314e-43
-3.53257e-118
4.92754e-99
1.8212e-94
2.24059e-31
-3.71732e-47
-1.15056e-71
1.15517e-31
-1.75578e-309
-2.3864e-84
0.243865
6.4354e-25
-1.00139e-126
2.09082e-07
2.00168e-48
1.93012e-116
-5.0571e-240
3.64909e-18
2.04589e-54
1.03365e-96
-8.22719e-63
5.2053e-200
2.09873e-61
-3.48585e-129
1.94159e-37
1.18263e-58
9.55429e-61
-3.24915e-42
0
-1.10024e-163
8.52184e-120
2.77494e-148
-2.96402e-152
5.35748e-88
-2.50706e-116
-6.62558e-120
9.42569e-34
6.54631e-44
-1.11838e-293
5.70551e-43
-1.83803e-159
8.65964e-256
3.90808e-44
-1.36391e-195
-5.41463e-101
-3.51062e-100
-4.6083e-217
2.15324e-211
-7.00598e-128
4.47941e-68
2.42815e-93
1.02323e-50
2.75087e-70
-1.56062e-42
3.06038e-52
2.68169e-98
4.73399e-80
4.27694e-62
0
-4.24245e-102
-9.17178e-135
5.04526e-103
3.45071e-10
3.63146e-71
6.47804e-103
-6.41061e-75
-2.78613e-97
4.13345e-125
-5.89474e-122
1.82362e-95
-1.21491e-135
6.3425e-52
-4.97886e-74
-5.89136e-258
9.75718e-70
2.04855e-73
1.76613e-66
-1.74327e-238
3.13945e-45
3.84584e-15
1.3933e-153
5.55551e-65
6.68399e-53
-7.99457e-170
1.02321e-43
4.55642e-36
4.08547e-58
1.15519e-53
1.1028e-41
9.86317e-74
-3.03914e-80
1.94536e-65
-1.10905e-59
1.42587e-192
-2.29248e-136
-2.47033e-322
5.38605e-155
1.37931e-238
-3.18641e-98
3.11453e-85
-5.73362e-54
1.30042e-65
0.00793252
-4.18661e-34
0.103565
9.57267e-72
5.01247e-18
0.00108092
3.92076e-29
0.108577
1.43732e-132
-5.90784e-87
9.31922e-104
3.22684e-104
1.93315e-74
5.02949e-168
6.26855e-91
-7.37509e-140
-8.58014e-241
-4.19992e-82
1.88893e-05
-6.25502e-102
5.49679e-65
8.35905e-103
-2.43783e-130
2.23251e-75
6.24449e-87
4.88843e-144
-1.72787e-89
-2.20034e-138
1.03901e-38
7.99329e-62
8.73905e-65
2.16522e-69
2.38734e-10
1.01232e-32
5.68714e-63
-1.05931e-102
5.48635
3.26727e-104
7.59217e-86
-1.43093e-53
4.97699e-47
-2.81757e-89
1.94374e-44
-2.11886e-209
1.2867e-59
-1.50088e-44
5.97478e-69
1.64153e-69
-2.47505e-115
8.63015e-91
1.16307e-54
-1.65067e-133
2.56029e-56
7.45507e-93
-1.54484e-118
4.91837e-206
6.11519e-106
1.60142e-77
2.36157e-125
3.27692e-103
-2.45799e-118
-7.93106e-162
7.98196e-54
-2.05954e-131
6.09287e-30
4.25539e-72
3.85789e-98
-3.60771e-218
1.04415e-152
3.46443e-50
7.53199e-93
1.20696e-266
-3.3794e-72
0.000631795
1.43773e-66
-1.79508e-118
4.5227e-105
2.90931e-11
4.00042e-07
0.421141
3.50265e-161
1.59646e-162
-5.01597e-141
9.00916e-117
1.28608e-58
2.71259e-18
9.18406e-15
2.84933e-29
5.7042e-64
-2.48684e-138
3.94009e-235
6.04158e-231
-1.2469e-43
2.76105e-117
5.06249e-49
-1.22437e-154
1.2008e-26
2.07778e-139
3.38402e-86
9.441e-20
-2.58304e-66
4.7273e-52
-1.64877e-147
7.78061e-97
1.57958e-253
3.68578e-46
3.53509e-65
-1.40178e-131
6.94448e-241
2.4702e-104
3.73389e-35
-1.7957e-169
-1.33737e-72
9.54378e-12
-1.31889e-268
-1.17047e-123
-2.85942e-62
7.87183e-64
1.26856e-74
8.25607e-180
-4.84343e-165
3.03105e-160
1.09469e-285
2.79782e-229
2.88515e-110
3.10305e-76
2.48589e-254
-2.06184e-114
-1.78958e-162
96.9133
-2.22943e-44
4.19433e-158
-2.69304e-318
1.46916e-61
7.63665e-101
4.7441e-41
1.52366e-73
2.93221e-98
-3.71814e-246
7.55762e-163
1.63507e-49
-2.77589e-314
-8.24318e-106
2.0323e-47
1.1346e-79
1.36164e-224
-1.02751e-95
-2.4399e-291
-3.02136e-107
-6.88467e-111
-3.47971e-167
2.24815e-30
3.92844e-86
-2.14068e-122
5.62887e-120
3.01314e-55
-1.29502e-79
1.74881e-262
7.16193e-311