/*--------------------------------*- C++ -*----------------------------------*\
  =========                 |
  \\      /  F ield         | OpenFOAM: The Open Source CFD Toolbox
   \\    /   O peration     | Website:  https://openfoam.org
    \\  /    A nd           | Version:  7
     \\/     M anipulation  |
\*---------------------------------------------------------------------------*/
FoamFile
{
    version     2.0;
    format      ascii;
    class       surfaceScalarField;
    location    "1.3";
    object      phi;
}
// * * * * * * * * * * * * * * * * * * * * * * * * * * * * * * * * * * * * * //

dimensions      [0 3 -1 0 0 0 0];

internalField   nonuniform List<scalar> 
39700
(
7.62727e-11
-7.62718e-11
2.90664e-10
-2.14391e-10
5.48656e-10
-2.57991e-10
7.78377e-10
-2.29721e-10
9.36161e-10
-1.57784e-10
9.96134e-10
-5.99737e-11
9.43735e-10
5.2399e-11
7.71767e-10
1.71969e-10
4.77821e-10
2.93946e-10
6.26282e-11
4.15193e-10
-4.70993e-10
5.33622e-10
-1.11883e-09
6.47838e-10
-1.87574e-09
7.56907e-10
-2.73596e-09
8.60221e-10
-3.69336e-09
9.57399e-10
-4.74158e-09
1.04823e-09
-5.87419e-09
1.13261e-09
-7.08473e-09
1.21054e-09
-8.36681e-09
1.28209e-09
-9.71418e-09
1.34736e-09
-1.11207e-08
1.40652e-09
-1.25804e-08
1.45974e-09
-1.40877e-08
1.50723e-09
-1.56369e-08
1.5492e-09
-1.72228e-08
1.58589e-09
-1.88403e-08
1.61752e-09
-2.04846e-08
1.64435e-09
-2.21512e-08
1.66661e-09
-2.38358e-08
1.68456e-09
-2.55342e-08
1.69841e-09
-2.72426e-08
1.70843e-09
-2.89575e-08
1.71484e-09
-3.06753e-08
1.71787e-09
-3.23931e-08
1.71774e-09
-3.41078e-08
1.71468e-09
-3.58167e-08
1.7089e-09
-3.75173e-08
1.70059e-09
-3.92072e-08
1.68995e-09
-4.08844e-08
1.67718e-09
-4.25468e-08
1.66245e-09
-4.41928e-08
1.64594e-09
-4.58206e-08
1.62782e-09
-4.74288e-08
1.60823e-09
-4.90162e-08
1.58734e-09
-5.05815e-08
1.56528e-09
-5.21236e-08
1.54219e-09
-5.36418e-08
1.51819e-09
-5.51352e-08
1.49341e-09
-5.66032e-08
1.46795e-09
-5.80451e-08
1.44193e-09
-5.94605e-08
1.41544e-09
-6.08491e-08
1.38857e-09
-6.22105e-08
1.36141e-09
-6.35446e-08
1.33404e-09
-6.48511e-08
1.30654e-09
-6.61301e-08
1.27896e-09
-6.73814e-08
1.25138e-09
-6.86053e-08
1.22385e-09
-6.98017e-08
1.19643e-09
-7.09709e-08
1.16915e-09
-7.21129e-08
1.14207e-09
-7.32282e-08
1.11522e-09
-7.43168e-08
1.08864e-09
-7.53792e-08
1.06235e-09
-7.64155e-08
1.03639e-09
-7.74263e-08
1.01077e-09
-7.84118e-08
9.85507e-10
-7.93724e-08
9.60628e-10
-8.03086e-08
9.3614e-10
-8.12206e-08
9.12052e-10
-8.2109e-08
8.8837e-10
-8.29741e-08
8.65098e-10
-8.38163e-08
8.42238e-10
-8.46361e-08
8.19788e-10
-8.54339e-08
7.97742e-10
-8.62099e-08
7.76095e-10
-8.69648e-08
7.54839e-10
-8.76987e-08
7.33963e-10
-8.84122e-08
7.13454e-10
-8.91055e-08
6.93298e-10
-8.9779e-08
6.73479e-10
-9.0433e-08
6.53978e-10
-9.10677e-08
6.34775e-10
-9.16836e-08
6.15849e-10
-9.22808e-08
5.97177e-10
-9.28595e-08
5.78735e-10
-9.342e-08
5.60496e-10
-9.39624e-08
5.42434e-10
-9.44869e-08
5.24519e-10
-9.49937e-08
5.06722e-10
-9.54827e-08
4.89013e-10
-9.5954e-08
4.71358e-10
-9.64077e-08
4.53724e-10
-9.68438e-08
4.36077e-10
-9.72622e-08
4.18381e-10
-9.76628e-08
4.006e-10
-9.80455e-08
3.82697e-10
-9.84101e-08
3.64634e-10
-9.87565e-08
3.46372e-10
-9.90844e-08
3.2787e-10
-9.93935e-08
3.09089e-10
-9.96834e-08
2.89988e-10
-9.9954e-08
2.70526e-10
-1.00205e-07
2.5066e-10
-1.00435e-07
2.30349e-10
-1.00645e-07
2.0955e-10
-1.00833e-07
1.8822e-10
-1.00999e-07
1.66317e-10
-1.01143e-07
1.43798e-10
-1.01263e-07
1.2062e-10
-1.0136e-07
9.67422e-11
-1.01432e-07
7.21218e-11
-1.01479e-07
4.67181e-11
-1.015e-07
2.04905e-11
-1.01493e-07
-6.60034e-12
-1.01458e-07
-3.45925e-11
-1.01395e-07
-6.35232e-11
-1.01301e-07
-9.34278e-11
-1.01177e-07
-1.2434e-10
-1.01021e-07
-1.56293e-10
-1.00831e-07
-1.89314e-10
-1.00608e-07
-2.23432e-10
-1.00349e-07
-2.58671e-10
-1.00054e-07
-2.95052e-10
-9.97217e-08
-3.32593e-10
-9.93504e-08
-3.7131e-10
-9.89392e-08
-4.11213e-10
-9.84869e-08
-4.52308e-10
-9.79923e-08
-4.94596e-10
-9.74542e-08
-5.38076e-10
-9.68715e-08
-5.82739e-10
-9.62429e-08
-6.2857e-10
-9.55674e-08
-6.7555e-10
-9.48437e-08
-7.23653e-10
-9.40709e-08
-7.72846e-10
-9.32478e-08
-8.23089e-10
-9.23734e-08
-8.74334e-10
-9.14469e-08
-9.26527e-10
-9.04673e-08
-9.79603e-10
-8.94338e-08
-1.03349e-09
-8.83457e-08
-1.08811e-09
-8.72023e-08
-1.14338e-09
-8.60032e-08
-1.19918e-09
-8.47477e-08
-1.25543e-09
-8.34357e-08
-1.31199e-09
-8.2067e-08
-1.36874e-09
-8.06415e-08
-1.42554e-09
-7.91592e-08
-1.48224e-09
-7.76206e-08
-1.53868e-09
-7.60259e-08
-1.5947e-09
-7.43757e-08
-1.65011e-09
-7.2671e-08
-1.70473e-09
-7.09127e-08
-1.75835e-09
-6.91019e-08
-1.81077e-09
-6.72401e-08
-1.86176e-09
-6.5329e-08
-1.9111e-09
-6.33705e-08
-1.95855e-09
-6.13666e-08
-2.00386e-09
-5.93199e-08
-2.04678e-09
-5.72328e-08
-2.08705e-09
-5.51084e-08
-2.1244e-09
-5.29499e-08
-2.15855e-09
-5.07606e-08
-2.18923e-09
-4.85445e-08
-2.21615e-09
-4.63055e-08
-2.23903e-09
-4.40479e-08
-2.25757e-09
-4.17764e-08
-2.2715e-09
-3.94959e-08
-2.2805e-09
-3.72116e-08
-2.28431e-09
-3.4929e-08
-2.28262e-09
-3.26538e-08
-2.27516e-09
-3.03922e-08
-2.26164e-09
-2.81504e-08
-2.24178e-09
-2.59351e-08
-2.21534e-09
-2.3753e-08
-2.18204e-09
-2.16114e-08
-2.14164e-09
-1.95175e-08
-2.0939e-09
-1.74789e-08
-2.03861e-09
-1.55033e-08
-1.97556e-09
-1.35987e-08
-1.90458e-09
-1.17732e-08
-1.8255e-09
-1.0035e-08
-1.73821e-09
-8.39241e-09
-1.64262e-09
-6.85374e-09
-1.53867e-09
-5.42736e-09
-1.42638e-09
-4.12151e-09
-1.30585e-09
-2.94425e-09
-1.17726e-09
-1.90332e-09
-1.04094e-09
-1.00594e-09
-8.97379e-10
-2.58598e-10
-7.47347e-10
3.33364e-10
-5.91966e-10
7.66266e-10
-4.32902e-10
1.0389e-09
-2.72633e-10
1.15382e-09
-1.14916e-10
1.11934e-09
3.44778e-11
9.52804e-10
1.66536e-10
6.85615e-10
2.67185e-10
3.71763e-10
3.13851e-10
1.01919e-10
2.69845e-10
1.01922e-10
2.14472e-10
-2.90743e-10
6.23897e-10
-6.23816e-10
1.0655e-09
-6.9959e-10
1.41405e-09
-5.7828e-10
1.57821e-09
-3.21941e-10
1.49589e-09
2.23482e-11
1.12758e-09
4.20712e-10
4.50355e-10
8.49194e-10
-5.46675e-10
1.29098e-09
-1.86577e-09
1.73428e-09
-3.50299e-09
2.17084e-09
-5.44998e-09
2.59483e-09
-7.69526e-09
3.00219e-09
-1.02251e-08
3.3901e-09
-1.30244e-08
3.7567e-09
-1.6077e-08
4.1008e-09
-1.93661e-08
4.42172e-09
-2.28748e-08
4.71917e-09
-2.65858e-08
4.99317e-09
-3.04824e-08
5.24396e-09
-3.45479e-08
5.47196e-09
-3.87659e-08
5.67773e-09
-4.31205e-08
5.86191e-09
-4.75966e-08
6.02524e-09
-5.21792e-08
6.16851e-09
-5.68542e-08
6.29256e-09
-6.16081e-08
6.39824e-09
-6.64279e-08
6.48642e-09
-7.13014e-08
6.55801e-09
-7.62168e-08
6.61388e-09
-8.11633e-08
6.65491e-09
-8.61305e-08
6.68199e-09
-9.11086e-08
6.69596e-09
-9.60885e-08
6.69767e-09
-1.01062e-07
6.68795e-09
-1.0602e-07
6.66758e-09
-1.10957e-07
6.63735e-09
-1.15865e-07
6.59801e-09
-1.20738e-07
6.55028e-09
-1.25571e-07
6.49484e-09
-1.30357e-07
6.43237e-09
-1.35093e-07
6.36351e-09
-1.39773e-07
6.28886e-09
-1.44395e-07
6.20901e-09
-1.48954e-07
6.1245e-09
-1.53448e-07
6.03585e-09
-1.57873e-07
5.94356e-09
-1.62228e-07
5.8481e-09
-1.6651e-07
5.7499e-09
-1.70717e-07
5.64938e-09
-1.74849e-07
5.54693e-09
-1.78903e-07
5.4429e-09
-1.82879e-07
5.33763e-09
-1.86777e-07
5.23144e-09
-1.90595e-07
5.12461e-09
-1.94333e-07
5.01742e-09
-1.97992e-07
4.91012e-09
-2.01571e-07
4.80292e-09
-2.05071e-07
4.69604e-09
-2.08491e-07
4.58966e-09
-2.11833e-07
4.48396e-09
-2.15097e-07
4.37908e-09
-2.18284e-07
4.27517e-09
-2.21394e-07
4.17234e-09
-2.24428e-07
4.07069e-09
-2.27387e-07
3.97033e-09
-2.30273e-07
3.87132e-09
-2.33086e-07
3.77373e-09
-2.35828e-07
3.67761e-09
-2.38499e-07
3.58299e-09
-2.411e-07
3.48991e-09
-2.43634e-07
3.39839e-09
-2.461e-07
3.30841e-09
-2.485e-07
3.22e-09
-2.50835e-07
3.13312e-09
-2.53107e-07
3.04776e-09
-2.55316e-07
2.96388e-09
-2.57464e-07
2.88145e-09
-2.5955e-07
2.80041e-09
-2.61578e-07
2.72072e-09
-2.63547e-07
2.64232e-09
-2.65458e-07
2.56512e-09
-2.67312e-07
2.48905e-09
-2.6911e-07
2.41404e-09
-2.70853e-07
2.34e-09
-2.72541e-07
2.26682e-09
-2.74175e-07
2.19442e-09
-2.75755e-07
2.12268e-09
-2.77282e-07
2.0515e-09
-2.78756e-07
1.98075e-09
-2.80178e-07
1.91032e-09
-2.81546e-07
1.84009e-09
-2.82863e-07
1.76993e-09
-2.84126e-07
1.6997e-09
-2.85337e-07
1.62926e-09
-2.86495e-07
1.55848e-09
-2.876e-07
1.48721e-09
-2.8865e-07
1.4153e-09
-2.89646e-07
1.34261e-09
-2.90588e-07
1.26898e-09
-2.91473e-07
1.19425e-09
-2.92301e-07
1.11828e-09
-2.93071e-07
1.04089e-09
-2.93783e-07
9.61926e-10
-2.94434e-07
8.81229e-10
-2.95023e-07
7.98634e-10
-2.95548e-07
7.13978e-10
-2.96009e-07
6.27096e-10
-2.96403e-07
5.37825e-10
-2.96729e-07
4.46003e-10
-2.96983e-07
3.51469e-10
-2.97165e-07
2.54063e-10
-2.97272e-07
1.5363e-10
-2.97302e-07
5.00142e-11
-2.97251e-07
-5.69326e-11
-2.97119e-07
-1.67356e-10
-2.96901e-07
-2.81395e-10
-2.96595e-07
-3.99185e-10
-2.96198e-07
-5.20851e-10
-2.95708e-07
-6.46514e-10
-2.95121e-07
-7.76283e-10
-2.94434e-07
-9.10259e-10
-2.93645e-07
-1.04853e-09
-2.92748e-07
-1.19118e-09
-2.91743e-07
-1.33827e-09
-2.90624e-07
-1.48985e-09
-2.89389e-07
-1.64595e-09
-2.88035e-07
-1.8066e-09
-2.86558e-07
-1.9718e-09
-2.84955e-07
-2.14153e-09
-2.83222e-07
-2.31575e-09
-2.81356e-07
-2.4944e-09
-2.79354e-07
-2.67739e-09
-2.77213e-07
-2.86463e-09
-2.7493e-07
-3.05597e-09
-2.72502e-07
-3.25126e-09
-2.69926e-07
-3.45031e-09
-2.67199e-07
-3.65289e-09
-2.6432e-07
-3.85877e-09
-2.61286e-07
-4.06764e-09
-2.58095e-07
-4.2792e-09
-2.54745e-07
-4.4931e-09
-2.51235e-07
-4.70895e-09
-2.47564e-07
-4.92633e-09
-2.43732e-07
-5.14478e-09
-2.39737e-07
-5.36379e-09
-2.35579e-07
-5.58284e-09
-2.3126e-07
-5.80134e-09
-2.2678e-07
-6.01867e-09
-2.22141e-07
-6.2342e-09
-2.17344e-07
-6.44722e-09
-2.12391e-07
-6.657e-09
-2.07287e-07
-6.86276e-09
-2.02034e-07
-7.06372e-09
-1.96637e-07
-7.25901e-09
-1.911e-07
-7.44776e-09
-1.8543e-07
-7.62907e-09
-1.79631e-07
-7.80198e-09
-1.73713e-07
-7.96553e-09
-1.67681e-07
-8.11871e-09
-1.61545e-07
-8.26052e-09
-1.55314e-07
-8.38989e-09
-1.48997e-07
-8.50577e-09
-1.42606e-07
-8.60708e-09
-1.36152e-07
-8.69274e-09
-1.29648e-07
-8.76164e-09
-1.23107e-07
-8.81269e-09
-1.16543e-07
-8.8448e-09
-1.0997e-07
-8.85687e-09
-1.03405e-07
-8.84783e-09
-9.68637e-08
-8.81661e-09
-9.03631e-08
-8.76218e-09
-8.39214e-08
-8.68351e-09
-7.75571e-08
-8.57963e-09
-7.12896e-08
-8.44961e-09
-6.51386e-08
-8.29257e-09
-5.91249e-08
-8.10766e-09
-5.32693e-08
-7.89414e-09
-4.75936e-08
-7.65133e-09
-4.21195e-08
-7.37864e-09
-3.68694e-08
-7.07561e-09
-3.18657e-08
-6.74191e-09
-2.71309e-08
-6.3774e-09
-2.26875e-08
-5.98211e-09
-1.85575e-08
-5.55639e-09
-1.47625e-08
-5.10087e-09
-1.13231e-08
-4.61666e-09
-8.25855e-09
-4.10545e-09
-5.58624e-09
-3.56969e-09
-3.3207e-09
-3.01288e-09
-1.47265e-09
-2.44002e-09
-4.74274e-11
-1.85814e-09
9.57171e-10
-1.27724e-09
1.55384e-09
-7.1158e-10
1.77002e-09
-1.81698e-10
1.65375e-09
2.82802e-10
1.2815e-09
6.39437e-10
7.67267e-10
8.28077e-10
2.69727e-10
7.67381e-10
3.71651e-10
2.58648e-10
-5.49391e-10
7.0128e-10
-1.06645e-09
1.1194e-09
-1.11771e-09
1.36034e-09
-8.19215e-10
1.30898e-09
-2.70586e-10
8.82628e-10
4.48701e-10
2.52707e-11
1.27807e-09
-1.29801e-09
2.17248e-09
-3.10587e-09
3.09884e-09
-5.40452e-09
4.03293e-09
-8.19079e-09
4.95712e-09
-1.14545e-08
5.85858e-09
-1.51804e-08
6.72808e-09
-1.93494e-08
7.55904e-09
-2.39395e-08
8.34687e-09
-2.89273e-08
9.08853e-09
-3.42877e-08
9.7821e-09
-3.99951e-08
1.04266e-08
-4.60236e-08
1.10217e-08
-5.23474e-08
1.15677e-08
-5.89405e-08
1.20651e-08
-6.57779e-08
1.25151e-08
-7.28347e-08
1.29187e-08
-8.00869e-08
1.32775e-08
-8.75113e-08
1.35929e-08
-9.50856e-08
1.38668e-08
-1.02788e-07
1.41009e-08
-1.10599e-07
1.42969e-08
-1.18497e-07
1.44567e-08
-1.26466e-07
1.45823e-08
-1.34486e-07
1.46754e-08
-1.42542e-07
1.4738e-08
-1.50618e-07
1.47718e-08
-1.58699e-07
1.47786e-08
-1.66771e-07
1.47603e-08
-1.74822e-07
1.47186e-08
-1.8284e-07
1.46551e-08
-1.90813e-07
1.45714e-08
-1.98732e-07
1.44691e-08
-2.06587e-07
1.43497e-08
-2.1437e-07
1.42148e-08
-2.22072e-07
1.40656e-08
-2.29686e-07
1.39034e-08
-2.37207e-07
1.37297e-08
-2.44628e-07
1.35455e-08
-2.51944e-07
1.33521e-08
-2.59151e-07
1.31504e-08
-2.66244e-07
1.29416e-08
-2.73221e-07
1.27265e-08
-2.80078e-07
1.25062e-08
-2.86812e-07
1.22814e-08
-2.93422e-07
1.2053e-08
-2.99907e-07
1.18217e-08
-3.06263e-07
1.15882e-08
-3.12492e-07
1.13532e-08
-3.18592e-07
1.11172e-08
-3.24562e-07
1.08808e-08
-3.30404e-07
1.06445e-08
-3.36117e-07
1.04087e-08
-3.41701e-07
1.01739e-08
-3.47157e-07
9.94054e-09
-3.52487e-07
9.70883e-09
-3.57691e-07
9.47913e-09
-3.62771e-07
9.25171e-09
-3.67727e-07
9.0268e-09
-3.72561e-07
8.80461e-09
-3.77275e-07
8.58531e-09
-3.8187e-07
8.36904e-09
-3.86348e-07
8.15593e-09
-3.90712e-07
7.94606e-09
-3.94961e-07
7.73949e-09
-3.99099e-07
7.53627e-09
-4.03127e-07
7.33641e-09
-4.07047e-07
7.13991e-09
-4.10861e-07
6.94674e-09
-4.1457e-07
6.75685e-09
-4.18176e-07
6.57018e-09
-4.21681e-07
6.38663e-09
-4.25087e-07
6.20612e-09
-4.28395e-07
6.02852e-09
-4.31606e-07
5.85369e-09
-4.34722e-07
5.68149e-09
-4.37745e-07
5.51175e-09
-4.40675e-07
5.34428e-09
-4.43514e-07
5.1789e-09
-4.46263e-07
5.01541e-09
-4.48922e-07
4.85357e-09
-4.51492e-07
4.69317e-09
-4.53975e-07
4.53396e-09
-4.5637e-07
4.37568e-09
-4.58678e-07
4.21808e-09
-4.60898e-07
4.06088e-09
-4.63032e-07
3.9038e-09
-4.65079e-07
3.74654e-09
-4.67039e-07
3.58882e-09
-4.6891e-07
3.43031e-09
-4.70694e-07
3.27071e-09
-4.72388e-07
3.10969e-09
-4.73993e-07
2.94693e-09
-4.75506e-07
2.78208e-09
-4.76926e-07
2.61481e-09
-4.78253e-07
2.44478e-09
-4.79484e-07
2.27163e-09
-4.80617e-07
2.09502e-09
-4.8165e-07
1.91459e-09
-4.82581e-07
1.72998e-09
-4.83408e-07
1.54084e-09
-4.84128e-07
1.34681e-09
-4.84738e-07
1.14753e-09
-4.85234e-07
9.42661e-10
-4.85615e-07
7.31841e-10
-4.85875e-07
5.14729e-10
-4.86013e-07
2.90984e-10
-4.86023e-07
6.02751e-11
-4.85902e-07
-1.77722e-10
-4.85646e-07
-4.2332e-10
-4.85251e-07
-6.7682e-10
-4.84711e-07
-9.38511e-10
-4.84024e-07
-1.20866e-09
-4.83183e-07
-1.48753e-09
-4.82184e-07
-1.77535e-09
-4.81021e-07
-2.07234e-09
-4.79691e-07
-2.37868e-09
-4.78188e-07
-2.69453e-09
-4.76506e-07
-3.02004e-09
-4.74641e-07
-3.3553e-09
-4.72586e-07
-3.70039e-09
-4.70338e-07
-4.05533e-09
-4.67889e-07
-4.42013e-09
-4.65236e-07
-4.79472e-09
-4.62373e-07
-5.17903e-09
-4.59294e-07
-5.5729e-09
-4.55995e-07
-5.97615e-09
-4.52472e-07
-6.38852e-09
-4.48718e-07
-6.80973e-09
-4.4473e-07
-7.2394e-09
-4.40503e-07
-7.67711e-09
-4.36033e-07
-8.12237e-09
-4.31318e-07
-8.57463e-09
-4.26352e-07
-9.03325e-09
-4.21134e-07
-9.49754e-09
-4.1566e-07
-9.96672e-09
-4.09929e-07
-1.04399e-08
-4.03939e-07
-1.09162e-08
-3.97689e-07
-1.13946e-08
-3.91179e-07
-1.1874e-08
-3.84409e-07
-1.23532e-08
-3.77379e-07
-1.2831e-08
-3.70092e-07
-1.3306e-08
-3.62549e-07
-1.37767e-08
-3.54755e-07
-1.42417e-08
-3.46713e-07
-1.46993e-08
-3.38427e-07
-1.51479e-08
-3.29905e-07
-1.55857e-08
-3.21154e-07
-1.60108e-08
-3.1218e-07
-1.64214e-08
-3.02994e-07
-1.68155e-08
-2.93604e-07
-1.7191e-08
-2.84024e-07
-1.75459e-08
-2.74265e-07
-1.78778e-08
-2.64341e-07
-1.81847e-08
-2.54266e-07
-1.84643e-08
-2.44058e-07
-1.87142e-08
-2.33733e-07
-1.89321e-08
-2.2331e-07
-1.91158e-08
-2.12809e-07
-1.92627e-08
-2.02251e-07
-1.93706e-08
-1.91659e-07
-1.94372e-08
-1.81055e-07
-1.94599e-08
-1.70467e-07
-1.94367e-08
-1.59918e-07
-1.93651e-08
-1.49437e-07
-1.92431e-08
-1.39052e-07
-1.90683e-08
-1.28793e-07
-1.88389e-08
-1.1869e-07
-1.85528e-08
-1.08774e-07
-1.82083e-08
-9.90784e-08
-1.78035e-08
-8.96354e-08
-1.73371e-08
-8.04791e-08
-1.68076e-08
-7.16437e-08
-1.62141e-08
-6.31636e-08
-1.55557e-08
-5.50736e-08
-1.48319e-08
-4.74083e-08
-1.40427e-08
-4.02018e-08
-1.31886e-08
-3.34875e-08
-1.22706e-08
-2.72977e-08
-1.12907e-08
-2.16627e-08
-1.02517e-08
-1.66103e-08
-9.15788e-09
-1.21647e-08
-8.01522e-09
-8.34561e-09
-6.832e-09
-5.16598e-09
-5.61964e-09
-2.63033e-09
-4.39379e-09
-7.31635e-10
-3.17594e-09
5.52396e-10
-1.99561e-09
1.26418e-09
-8.93484e-10
1.47242e-09
7.45731e-11
1.27945e-09
8.32404e-10
8.2909e-10
1.27844e-09
3.13998e-10
1.28247e-09
6.85649e-10
2.31466e-10
-7.80857e-10
5.82901e-10
-1.41788e-09
8.25759e-10
-1.36057e-09
7.93504e-10
-7.86959e-10
3.59942e-10
1.62976e-10
-5.67863e-10
1.37651e-09
-2.05504e-09
2.76524e-09
-4.14394e-09
4.26139e-09
-6.85857e-09
5.81347e-09
-1.02083e-08
7.38267e-09
-1.41911e-08
8.93989e-09
-1.87959e-08
1.04634e-08
-2.4005e-08
1.19372e-08
-2.97954e-08
1.33495e-08
-3.61405e-08
1.46919e-08
-4.30106e-08
1.59587e-08
-5.03745e-08
1.7146e-08
-5.81995e-08
1.82516e-08
-6.64524e-08
1.92746e-08
-7.50995e-08
2.02148e-08
-8.41076e-08
2.10732e-08
-9.34434e-08
2.18509e-08
-1.03075e-07
2.255e-08
-1.1297e-07
2.31725e-08
-1.23098e-07
2.3721e-08
-1.33429e-07
2.41981e-08
-1.43935e-07
2.46069e-08
-1.54588e-07
2.49502e-08
-1.65363e-07
2.52312e-08
-1.76234e-07
2.5453e-08
-1.87177e-07
2.56186e-08
-1.9817e-07
2.57313e-08
-2.09192e-07
2.57941e-08
-2.20224e-07
2.58101e-08
-2.31246e-07
2.57823e-08
-2.42241e-07
2.57137e-08
-2.53193e-07
2.5607e-08
-2.64087e-07
2.54652e-08
-2.74909e-07
2.52908e-08
-2.85645e-07
2.50865e-08
-2.96285e-07
2.48548e-08
-3.06818e-07
2.45981e-08
-3.17233e-07
2.43187e-08
-3.27522e-07
2.40187e-08
-3.37677e-07
2.37003e-08
-3.4769e-07
2.33656e-08
-3.57556e-07
2.30162e-08
-3.67269e-07
2.26541e-08
-3.76823e-07
2.2281e-08
-3.86215e-07
2.18983e-08
-3.95442e-07
2.15077e-08
-4.04499e-07
2.11104e-08
-4.13385e-07
2.07079e-08
-4.22098e-07
2.03014e-08
-4.30637e-07
1.98918e-08
-4.39e-07
1.94804e-08
-4.47188e-07
1.90681e-08
-4.55199e-07
1.86557e-08
-4.63034e-07
1.82441e-08
-4.70694e-07
1.78341e-08
-4.7818e-07
1.74262e-08
-4.85492e-07
1.70211e-08
-4.92632e-07
1.66193e-08
-4.99602e-07
1.62213e-08
-5.06403e-07
1.58276e-08
-5.13037e-07
1.54385e-08
-5.19506e-07
1.50542e-08
-5.25812e-07
1.46751e-08
-5.31957e-07
1.43014e-08
-5.37944e-07
1.39332e-08
-5.43776e-07
1.35707e-08
-5.49453e-07
1.32139e-08
-5.5498e-07
1.28629e-08
-5.60357e-07
1.25176e-08
-5.65589e-07
1.2178e-08
-5.70676e-07
1.1844e-08
-5.75621e-07
1.15156e-08
-5.80427e-07
1.11926e-08
-5.85096e-07
1.08747e-08
-5.89629e-07
1.05619e-08
-5.94029e-07
1.02538e-08
-5.98298e-07
9.95027e-09
-6.02437e-07
9.65094e-09
-6.06448e-07
9.35552e-09
-6.10333e-07
9.06368e-09
-6.14093e-07
8.77506e-09
-6.17729e-07
8.4893e-09
-6.21241e-07
8.20597e-09
-6.24632e-07
7.92468e-09
-6.27901e-07
7.64497e-09
-6.3105e-07
7.3664e-09
-6.34077e-07
7.08848e-09
-6.36984e-07
6.81074e-09
-6.3977e-07
6.53266e-09
-6.42435e-07
6.25373e-09
-6.44978e-07
5.9734e-09
-6.47399e-07
5.69115e-09
-6.49695e-07
5.40639e-09
-6.51867e-07
5.11858e-09
-6.53912e-07
4.82712e-09
-6.55829e-07
4.53142e-09
-6.57615e-07
4.2309e-09
-6.59268e-07
3.92495e-09
-6.60786e-07
3.61296e-09
-6.62166e-07
3.29432e-09
-6.63404e-07
2.96841e-09
-6.64498e-07
2.63462e-09
-6.65444e-07
2.29233e-09
-6.66237e-07
1.94093e-09
-6.66874e-07
1.57981e-09
-6.67351e-07
1.20837e-09
-6.67662e-07
8.26019e-10
-6.67803e-07
4.3217e-10
-6.67769e-07
2.62532e-11
-6.67555e-07
-3.92285e-10
-6.67154e-07
-8.2398e-10
-6.66561e-07
-1.26935e-09
-6.65771e-07
-1.72888e-09
-6.64777e-07
-2.20303e-09
-6.63572e-07
-2.69224e-09
-6.6215e-07
-3.19691e-09
-6.60505e-07
-3.71739e-09
-6.5863e-07
-4.254e-09
-6.56518e-07
-4.80701e-09
-6.54161e-07
-5.37664e-09
-6.51553e-07
-5.96307e-09
-6.48687e-07
-6.56638e-09
-6.45556e-07
-7.18664e-09
-6.42152e-07
-7.82382e-09
-6.38469e-07
-8.47781e-09
-6.345e-07
-9.14844e-09
-6.30237e-07
-9.83545e-09
-6.25675e-07
-1.05385e-08
-6.20806e-07
-1.12571e-08
-6.15625e-07
-1.19908e-08
-6.10126e-07
-1.27389e-08
-6.04302e-07
-1.35007e-08
-5.98149e-07
-1.42753e-08
-5.91662e-07
-1.50617e-08
-5.84837e-07
-1.58588e-08
-5.77669e-07
-1.66654e-08
-5.70155e-07
-1.74801e-08
-5.62294e-07
-1.83015e-08
-5.54082e-07
-1.91279e-08
-5.45519e-07
-1.99576e-08
-5.36604e-07
-2.07886e-08
-5.27339e-07
-2.16189e-08
-5.17723e-07
-2.24464e-08
-5.07761e-07
-2.32685e-08
-4.97455e-07
-2.4083e-08
-4.86809e-07
-2.48871e-08
-4.7583e-07
-2.56782e-08
-4.64525e-07
-2.64531e-08
-4.52901e-07
-2.72091e-08
-4.40969e-07
-2.79428e-08
-4.2874e-07
-2.86509e-08
-4.16225e-07
-2.93301e-08
-4.0344e-07
-2.99769e-08
-3.90398e-07
-3.05875e-08
-3.77118e-07
-3.11582e-08
-3.63617e-07
-3.16853e-08
-3.49916e-07
-3.21649e-08
-3.36038e-07
-3.25929e-08
-3.22004e-07
-3.29655e-08
-3.07842e-07
-3.32786e-08
-2.93576e-07
-3.35281e-08
-2.79237e-07
-3.37101e-08
-2.64853e-07
-3.38205e-08
-2.50458e-07
-3.38553e-08
-2.36084e-07
-3.38107e-08
-2.21766e-07
-3.36828e-08
-2.07541e-07
-3.34679e-08
-1.93447e-07
-3.31623e-08
-1.79524e-07
-3.27628e-08
-1.6581e-07
-3.2266e-08
-1.5235e-07
-3.16689e-08
-1.39185e-07
-3.09689e-08
-1.26358e-07
-3.01634e-08
-1.13915e-07
-2.92505e-08
-1.01901e-07
-2.82286e-08
-9.03599e-08
-2.70966e-08
-7.93377e-08
-2.58541e-08
-6.88791e-08
-2.45014e-08
-5.90279e-08
-2.30397e-08
-4.9827e-08
-2.14716e-08
-4.13169e-08
-1.98008e-08
-3.35356e-08
-1.8033e-08
-2.65174e-08
-1.61761e-08
-2.02914e-08
-1.42412e-08
-1.48803e-08
-1.2243e-08
-1.02984e-08
-1.02016e-08
-6.54864e-09
-8.14353e-09
-3.62006e-09
-6.10452e-09
-1.48355e-09
-4.13214e-09
-8.72421e-11
-2.28979e-09
6.49057e-10
-6.61724e-10
8.40462e-10
6.41002e-10
6.44105e-10
1.47479e-09
2.68376e-10
1.6582e-09
9.54022e-10
1.60875e-10
-9.41731e-10
3.29914e-10
-1.58692e-09
2.82211e-10
-1.31286e-09
-1.50058e-10
-3.5469e-10
-1.0952e-09
1.10812e-09
-2.64911e-09
2.93042e-09
-4.88039e-09
4.99652e-09
-7.83475e-09
7.21574e-09
-1.15389e-08
9.5176e-09
-1.60039e-08
1.18477e-08
-2.12282e-08
1.41642e-08
-2.72003e-08
1.64354e-08
-3.39003e-08
1.86372e-08
-4.13026e-08
2.07517e-08
-4.93765e-08
2.27658e-08
-5.8088e-08
2.46702e-08
-6.74005e-08
2.64584e-08
-7.72756e-08
2.81267e-08
-8.76738e-08
2.96729e-08
-9.85554e-08
3.10964e-08
-1.0988e-07
3.2398e-08
-1.21609e-07
3.35793e-08
-1.33701e-07
3.46428e-08
-1.4612e-07
3.55913e-08
-1.58828e-07
3.64284e-08
-1.71788e-07
3.71581e-08
-1.84965e-07
3.77843e-08
-1.98326e-07
3.83115e-08
-2.11839e-07
3.87442e-08
-2.25473e-07
3.90869e-08
-2.39199e-07
3.93444e-08
-2.52989e-07
3.95211e-08
-2.66817e-07
3.96218e-08
-2.80657e-07
3.9651e-08
-2.94488e-07
3.96132e-08
-3.08288e-07
3.95129e-08
-3.22035e-07
3.93544e-08
-3.35712e-07
3.91418e-08
-3.493e-07
3.88792e-08
-3.62784e-07
3.85707e-08
-3.76149e-07
3.82198e-08
-3.89382e-07
3.78304e-08
-4.02469e-07
3.74059e-08
-4.154e-07
3.69497e-08
-4.28164e-07
3.64649e-08
-4.40753e-07
3.59546e-08
-4.53159e-07
3.54217e-08
-4.65373e-07
3.48688e-08
-4.77391e-07
3.42987e-08
-4.89207e-07
3.37137e-08
-5.00815e-07
3.31162e-08
-5.12213e-07
3.25081e-08
-5.23397e-07
3.18917e-08
-5.34364e-07
3.12687e-08
-5.45113e-07
3.06409e-08
-5.55642e-07
3.00099e-08
-5.65951e-07
2.93772e-08
-5.7604e-07
2.87441e-08
-5.85908e-07
2.8112e-08
-5.95555e-07
2.74819e-08
-6.04984e-07
2.68549e-08
-6.14195e-07
2.6232e-08
-6.2319e-07
2.56139e-08
-6.3197e-07
2.50015e-08
-6.40537e-07
2.43953e-08
-6.48895e-07
2.3796e-08
-6.57045e-07
2.32039e-08
-6.64989e-07
2.26197e-08
-6.72731e-07
2.20435e-08
-6.80274e-07
2.14756e-08
-6.87619e-07
2.09162e-08
-6.94771e-07
2.03654e-08
-7.01731e-07
1.98233e-08
-7.08503e-07
1.929e-08
-7.15091e-07
1.87652e-08
-7.21496e-07
1.8249e-08
-7.27721e-07
1.77411e-08
-7.3377e-07
1.72414e-08
-7.39645e-07
1.67495e-08
-7.45348e-07
1.62652e-08
-7.50882e-07
1.57882e-08
-7.5625e-07
1.53179e-08
-7.61453e-07
1.48541e-08
-7.66494e-07
1.43961e-08
-7.71374e-07
1.39436e-08
-7.76095e-07
1.3496e-08
-7.80658e-07
1.30526e-08
-7.85065e-07
1.26129e-08
-7.89317e-07
1.21763e-08
-7.93414e-07
1.17421e-08
-7.97357e-07
1.13095e-08
-8.01146e-07
1.08779e-08
-8.04782e-07
1.04465e-08
-8.08264e-07
1.00145e-08
-8.11591e-07
9.58119e-09
-8.14763e-07
9.14572e-09
-8.1778e-07
8.70724e-09
-8.20638e-07
8.26491e-09
-8.23337e-07
7.81786e-09
-8.25875e-07
7.36521e-09
-8.2825e-07
6.90606e-09
-8.30459e-07
6.4395e-09
-8.32498e-07
5.96461e-09
-8.34366e-07
5.48048e-09
-8.36058e-07
4.98616e-09
-8.3757e-07
4.48073e-09
-8.38899e-07
3.96325e-09
-8.40039e-07
3.43279e-09
-8.40987e-07
2.88841e-09
-8.41736e-07
2.32919e-09
-8.42282e-07
1.75423e-09
-8.42618e-07
1.16261e-09
-8.4274e-07
5.53476e-10
-8.42639e-07
-7.40518e-11
-8.42311e-07
-7.20804e-10
-8.41747e-07
-1.38759e-09
-8.40941e-07
-2.07518e-09
-8.39886e-07
-2.78431e-09
-8.38573e-07
-3.51568e-09
-8.36996e-07
-4.26993e-09
-8.35145e-07
-5.04766e-09
-8.33013e-07
-5.84939e-09
-8.30591e-07
-6.6756e-09
-8.27872e-07
-7.52668e-09
-8.24845e-07
-8.40295e-09
-8.21504e-07
-9.30465e-09
-8.17838e-07
-1.02319e-08
-8.1384e-07
-1.11848e-08
-8.09501e-07
-1.21633e-08
-8.04811e-07
-1.31672e-08
-7.99763e-07
-1.41962e-08
-7.94349e-07
-1.52498e-08
-7.8856e-07
-1.63276e-08
-7.82388e-07
-1.74289e-08
-7.75826e-07
-1.85528e-08
-7.68867e-07
-1.96983e-08
-7.61503e-07
-2.08643e-08
-7.53729e-07
-2.20494e-08
-7.45539e-07
-2.32521e-08
-7.36927e-07
-2.44707e-08
-7.27889e-07
-2.57034e-08
-7.18421e-07
-2.6948e-08
-7.0852e-07
-2.82022e-08
-6.98184e-07
-2.94637e-08
-6.87412e-07
-3.07296e-08
-6.76204e-07
-3.19971e-08
-6.6456e-07
-3.3263e-08
-6.52482e-07
-3.4524e-08
-6.39974e-07
-3.57765e-08
-6.27041e-07
-3.70167e-08
-6.13687e-07
-3.82407e-08
-5.99921e-07
-3.94441e-08
-5.85752e-07
-4.06227e-08
-5.71189e-07
-4.17718e-08
-5.56245e-07
-4.28865e-08
-5.40934e-07
-4.39619e-08
-5.25272e-07
-4.49927e-08
-5.09275e-07
-4.59736e-08
-4.92963e-07
-4.68992e-08
-4.76358e-07
-4.77637e-08
-4.59482e-07
-4.85614e-08
-4.4236e-07
-4.92865e-08
-4.2502e-07
-4.99329e-08
-4.07491e-07
-5.04947e-08
-3.89804e-07
-5.09658e-08
-3.71992e-07
-5.13401e-08
-3.5409e-07
-5.16116e-08
-3.36136e-07
-5.17743e-08
-3.18169e-07
-5.18222e-08
-3.00231e-07
-5.17494e-08
-2.82363e-07
-5.15504e-08
-2.64612e-07
-5.12195e-08
-2.47022e-07
-5.07515e-08
-2.29644e-07
-5.01413e-08
-2.12526e-07
-4.93842e-08
-1.95719e-07
-4.84758e-08
-1.79275e-07
-4.74124e-08
-1.63248e-07
-4.61905e-08
-1.47691e-07
-4.48073e-08
-1.32659e-07
-4.32609e-08
-1.18206e-07
-4.155e-08
-1.04385e-07
-3.96744e-08
-9.12516e-08
-3.76352e-08
-7.88565e-08
-3.54348e-08
-6.72504e-08
-3.30777e-08
-5.64809e-08
-3.05703e-08
-4.6592e-08
-2.79219e-08
-3.76228e-08
-2.51453e-08
-2.96063e-08
-2.22577e-08
-2.25676e-08
-1.92818e-08
-1.65215e-08
-1.62476e-08
-1.14705e-08
-1.31945e-08
-7.40124e-09
-1.01738e-08
-4.28096e-09
-7.25243e-09
-2.05347e-09
-4.51728e-09
-6.34203e-10
-2.081e-09
9.538e-11
-8.85795e-11
2.94088e-10
1.27609e-09
1.69711e-10
1.78257e-09
1.12373e-09
6.43013e-11
-1.00603e-09
-1.18661e-11
-1.51075e-09
-4.34401e-10
-8.90328e-10
-1.36211e-09
5.7302e-10
-2.91817e-09
2.66418e-09
-5.19582e-09
5.20807e-09
-8.26259e-09
8.0633e-09
-1.21641e-08
1.11172e-08
-1.69271e-08
1.42806e-08
-2.25628e-08
1.74834e-08
-2.90692e-08
2.06706e-08
-3.64335e-08
2.37998e-08
-4.46345e-08
2.68382e-08
-5.36437e-08
2.97609e-08
-6.34274e-08
3.25495e-08
-7.39477e-08
3.51905e-08
-8.51637e-08
3.76744e-08
-9.70322e-08
3.99952e-08
-1.09509e-07
4.21494e-08
-1.22548e-07
4.41355e-08
-1.36104e-07
4.59541e-08
-1.50131e-07
4.76069e-08
-1.64585e-07
4.90968e-08
-1.79422e-07
5.04275e-08
-1.94597e-07
5.16037e-08
-2.10069e-07
5.26303e-08
-2.25798e-07
5.35129e-08
-2.41743e-07
5.42573e-08
-2.57869e-07
5.48695e-08
-2.74138e-07
5.53559e-08
-2.90516e-07
5.57227e-08
-3.06971e-07
5.59762e-08
-3.23472e-07
5.61228e-08
-3.3999e-07
5.61689e-08
-3.56498e-07
5.61207e-08
-3.72969e-07
5.59842e-08
-3.8938e-07
5.57655e-08
-4.05709e-07
5.54704e-08
-4.21934e-07
5.51046e-08
-4.38037e-07
5.46735e-08
-4.53999e-07
5.41826e-08
-4.69806e-07
5.36368e-08
-4.85441e-07
5.30412e-08
-5.00892e-07
5.24003e-08
-5.16146e-07
5.17188e-08
-5.31192e-07
5.10008e-08
-5.46021e-07
5.02504e-08
-5.60623e-07
4.94715e-08
-5.74992e-07
4.86677e-08
-5.89121e-07
4.78425e-08
-6.03004e-07
4.69992e-08
-6.16636e-07
4.61406e-08
-6.30015e-07
4.52697e-08
-6.43135e-07
4.43892e-08
-6.55996e-07
4.35015e-08
-6.68595e-07
4.26089e-08
-6.80931e-07
4.17135e-08
-6.93004e-07
4.08172e-08
-7.04814e-07
3.99219e-08
-7.16361e-07
3.90292e-08
-7.27647e-07
3.81406e-08
-7.38672e-07
3.72574e-08
-7.49439e-07
3.63808e-08
-7.5995e-07
3.55118e-08
-7.70206e-07
3.46514e-08
-7.8021e-07
3.38005e-08
-7.89966e-07
3.29597e-08
-7.99476e-07
3.21295e-08
-8.08743e-07
3.13106e-08
-8.17771e-07
3.05032e-08
-8.26562e-07
2.97076e-08
-8.35121e-07
2.89241e-08
-8.4345e-07
2.81526e-08
-8.51553e-07
2.73933e-08
-8.59434e-07
2.6646e-08
-8.67096e-07
2.59106e-08
-8.74541e-07
2.51868e-08
-8.81774e-07
2.44744e-08
-8.88798e-07
2.37731e-08
-8.95615e-07
2.30823e-08
-9.02228e-07
2.24015e-08
-9.08641e-07
2.17304e-08
-9.14855e-07
2.10681e-08
-9.20873e-07
2.04141e-08
-9.26697e-07
1.97677e-08
-9.32329e-07
1.9128e-08
-9.37771e-07
1.84943e-08
-9.43023e-07
1.78658e-08
-9.48089e-07
1.72415e-08
-9.52967e-07
1.66204e-08
-9.57659e-07
1.60017e-08
-9.62166e-07
1.53843e-08
-9.66486e-07
1.47671e-08
-9.70621e-07
1.4149e-08
-9.74568e-07
1.3529e-08
-9.78329e-07
1.29059e-08
-9.819e-07
1.22785e-08
-9.85281e-07
1.16457e-08
-9.88469e-07
1.10061e-08
-9.91462e-07
1.03587e-08
-9.94258e-07
9.70199e-09
-9.96854e-07
9.03485e-09
-9.99245e-07
8.35595e-09
-1.00143e-06
7.664e-09
-1.0034e-06
6.95769e-09
-1.00516e-06
6.23571e-09
-1.00669e-06
5.49675e-09
-1.008e-06
4.73951e-09
-1.00907e-06
3.96268e-09
-1.00991e-06
3.16498e-09
-1.0105e-06
2.34513e-09
-1.01084e-06
1.50187e-09
-1.01092e-06
6.33984e-10
-1.01073e-06
-2.59737e-10
-1.01027e-06
-1.18045e-09
-1.00953e-06
-2.12929e-09
-1.0085e-06
-3.10732e-09
-1.00717e-06
-4.11556e-09
-1.00553e-06
-5.15497e-09
-1.00357e-06
-6.22645e-09
-1.00129e-06
-7.3308e-09
-9.98667e-07
-8.46877e-09
-9.95702e-07
-9.64098e-09
-9.92381e-07
-1.0848e-08
-9.88693e-07
-1.20902e-08
-9.8463e-07
-1.33679e-08
-9.80181e-07
-1.46814e-08
-9.75335e-07
-1.60306e-08
-9.70083e-07
-1.74155e-08
-9.64414e-07
-1.88357e-08
-9.58319e-07
-2.02909e-08
-9.51789e-07
-2.17805e-08
-9.44813e-07
-2.33036e-08
-9.37382e-07
-2.48593e-08
-9.29489e-07
-2.64464e-08
-9.21124e-07
-2.80633e-08
-9.12279e-07
-2.97086e-08
-9.02949e-07
-3.13802e-08
-8.93125e-07
-3.30761e-08
-8.82802e-07
-3.47938e-08
-8.71974e-07
-3.65307e-08
-8.60638e-07
-3.82838e-08
-8.48791e-07
-4.00499e-08
-8.36429e-07
-4.18255e-08
-8.23552e-07
-4.36067e-08
-8.10159e-07
-4.53895e-08
-7.96253e-07
-4.71695e-08
-7.81835e-07
-4.8942e-08
-7.66909e-07
-5.07019e-08
-7.51482e-07
-5.24439e-08
-7.3556e-07
-5.41625e-08
-7.19153e-07
-5.58516e-08
-7.0227e-07
-5.75052e-08
-6.84925e-07
-5.91167e-08
-6.67133e-07
-6.06795e-08
-6.48908e-07
-6.21864e-08
-6.30271e-07
-6.36302e-08
-6.11241e-07
-6.50035e-08
-5.91841e-07
-6.62986e-08
-5.72097e-07
-6.75076e-08
-5.52036e-07
-6.86224e-08
-5.31688e-07
-6.96349e-08
-5.11084e-07
-7.05368e-08
-4.90259e-07
-7.13197e-08
-4.6925e-07
-7.19753e-08
-4.48095e-07
-7.2495e-08
-4.26836e-07
-7.28705e-08
-4.05517e-07