/*--------------------------------*- C++ -*----------------------------------*\
  =========                 |
  \\      /  F ield         | OpenFOAM: The Open Source CFD Toolbox
   \\    /   O peration     | Website:  https://openfoam.org
    \\  /    A nd           | Version:  7
     \\/     M anipulation  |
\*---------------------------------------------------------------------------*/
FoamFile
{
    version     2.0;
    format      ascii;
    class       volScalarField;
    location    "13.5";
    object      T;
}
// * * * * * * * * * * * * * * * * * * * * * * * * * * * * * * * * * * * * * //

dimensions      [0 0 0 1 0 0 0];

internalField   nonuniform List<scalar> 
2413
(
1.05907
1.0623
1.06449
1.0651
1.06495
1.06433
1.06287
1.06088
1.04295
1.05264
1.06065
1.06357
1.06396
1.06386
1.06349
1.06273
1.02333
1.03392
1.04575
1.0536
1.0594
1.06235
1.0631
1.06308
1.01188
1.01679
1.02601
1.03664
1.04685
1.05484
1.05814
1.06065
1.00935
1.0101
1.01286
1.01903
1.02739
1.03889
1.04884
1.05419
1.00936
1.00947
1.00983
1.01096
1.01416
1.02047
1.03088
1.03952
1.01073
1.01009
1.00995
1.01005
1.01048
1.01182
1.01568
1.02256
1.01329
1.0116
1.01075
1.01048
1.01057
1.01065
1.0111
1.01299
1.0166
1.01491
1.0131
1.01194
1.0111
1.01072
1.01091
1.01128
1.01993
1.01838
1.01628
1.01467
1.01335
1.01223
1.01135
1.01128
1.02294
1.02163
1.01985
1.01793
1.0164
1.0149
1.01333
1.0124
1.02546
1.02434
1.02285
1.02117
1.01968
1.01816
1.01646
1.01467
1.02783
1.0268
1.02547
1.02393
1.02265
1.0212
1.01956
1.01795
1.03011
1.02912
1.02794
1.02646
1.02527
1.02412
1.0226
1.02093
1.03233
1.03132
1.03017
1.02876
1.02761
1.02656
1.02526
1.0238
1.03475
1.03371
1.03253
1.03105
1.02989
1.02886
1.02758
1.02613
1.0372
1.03616
1.03497
1.03346
1.03225
1.03119
1.02995
1.02847
1.03979
1.03873
1.0375
1.03589
1.03461
1.0335
1.03219
1.03072
1.04255
1.04145
1.0402
1.03854
1.03713
1.03593
1.03456
1.03297
0.981054
0.981438
0.982211
0.98267
0.983422
0.983766
0.983549
0.983542
0.983389
0.982543
0.981319
0.979934
0.978251
0.976328
0.975065
0.973855
0.972347
0.970489
0.969359
0.968457
0.967291
0.965673
0.964735
0.964036
0.963084
0.961634
0.960634
0.959851
0.958732
0.957483
0.956584
0.956142
0.956359
0.957596
0.960701
0.966676
0.975915
0.98565
0.993377
0.999318
1.00537
1.01168
1.01897
1.02687
1.0333
1.04018
1.04564
1.04951
1.05379
1.05597
1.05621
1.05628
1.05582
1.05517
1.05498
1.05405
1.05251
1.0587
1.05667
1.05476
1.05277
1.05106
1.0495
1.04789
1.04653
1.04522
1.04372
1.04263
1.04162
1.04044
1.03942
1.03841
1.03721
1.03607
1.035
1.03383
1.03269
1.0317
1.03059
1.0294
1.02843
1.02737
1.02611
1.02498
1.02397
1.02278
1.02144
1.02032
1.01918
1.01776
1.01635
1.01518
1.0139
1.01229
1.01084
1.0096
1.0082
1.00648
1.00501
1.00377
1.00234
1.00049
0.998969
0.997766
0.996369
0.994493
0.993079
0.991991
0.990679
0.98899
0.987833
0.986866
0.985627
0.984522
0.98368
0.982964
0.982496
0.9822
0.982497
0.983012
0.982982
0.983464
0.984211
0.984592
0.985232
0.985358
0.985085
0.985004
0.984629
0.983593
0.982297
0.980857
0.979131
0.977317
0.976099
0.97487
0.973359
0.97159
0.97051
0.969599
0.968458
0.966915
0.966083
0.965384
0.964372
0.963103
0.962179
0.961435
0.960447
0.959193
0.958329
0.957691
0.957662
0.958267
0.960335
0.965091
0.972909
0.981761
0.988572
0.992074
0.993657
0.994936
0.996765
0.999646
1.00359
1.00842
1.01479
1.02107
1.02767
1.03404
1.03847
1.04306
1.04684
1.04783
1.04874
1.04902
1.04917
1.06174
1.06036
1.05859
1.05658
1.05456
1.0527
1.05082
1.04919
1.04779
1.04623
1.04485
1.04364
1.04223
1.04095
1.03985
1.03861
1.03742
1.03638
1.03523
1.03402
1.03302
1.03193
1.03072
1.02966
1.02864
1.02741
1.02621
1.02526
1.02419
1.02294
1.02189
1.02087
1.01963
1.0183
1.01721
1.01606
1.01466
1.01338
1.01228
1.01107
1.00962
1.00826
1.00709
1.00581
1.00419
1.00273
1.00155
1.00024
0.998518
0.997088
0.995926
0.994588
0.993004
0.991715
0.990625
0.989425
0.988247
0.987314
0.986656
0.986102
0.98577
0.986114
0.986437
0.986365
0.986974
0.987666
0.988046
0.988598
0.988592
0.988221
0.987898
0.98723
0.986018
0.984656
0.983165
0.981376
0.979585
0.978412
0.977212
0.975692
0.974024
0.973063
0.972153
0.970984
0.969521
0.968762
0.968106
0.967063
0.965793
0.96514
0.964442
0.963549
0.962374
0.961548
0.960965
0.960614
0.960818
0.96189
0.965008
0.971341
0.979837
0.987171
0.991783
0.993212
0.993813
0.993925
0.993867
0.993628
0.993514
0.994356
0.996705
1.00016
1.00482
1.01023
1.01579
1.02204
1.02701
1.03149
1.03592
1.03822
1.06271
1.06195
1.06086
1.0595
1.05799
1.05631
1.05449
1.05265
1.05098
1.04928
1.04758
1.04613
1.04465
1.0432
1.04191
1.04054
1.03921
1.03805
1.03685
1.03559
1.03446
1.03333
1.03198
1.03083
1.02985
1.02868
1.02751
1.02655
1.02553
1.02429
1.02323
1.02225
1.02108
1.01985
1.01881
1.01774
1.01644
1.01527
1.01422
1.01307
1.01183
1.01066
1.00955
1.00841
1.00707
1.00576
1.00461
1.00339
1.0019
1.00064
0.9995
0.998215
0.99687
0.995645
0.994486
0.993352
0.99225
0.991363
0.990815
0.990311
0.990086
0.990472
0.990639
0.990615
0.991428
0.992145
0.992537
0.992908
0.99278
0.992325
0.991855
0.990989
0.989672
0.988291
0.986789
0.98496
0.983203
0.982049
0.980853
0.979293
0.97768
0.976794
0.975903
0.974698
0.973305
0.972641
0.971986
0.970924
0.969596
0.969037
0.968381
0.96739
0.966333
0.965446
0.964794
0.96425
0.964164
0.964616
0.966309
0.970706
0.97852
0.987209
0.992902
0.994299
0.994464
0.994353
0.993983
0.993405
0.992503
0.991255
0.990474
0.98993
0.989912
0.990726
0.992647
0.995467
0.999263
1.00351
1.00874
1.01378
1.06176
1.06159
1.06102
1.06049
1.05981
1.05886
1.05763
1.0561
1.05445
1.05272
1.05094
1.04926
1.04758
1.04596
1.04448
1.04295
1.04144
1.04012
1.0388
1.0374
1.03622
1.03507
1.03376
1.03253
1.03141
1.03019
1.02883
1.02782
1.02682
1.0256
1.02457
1.02359
1.02245
1.02123
1.02022
1.01917
1.01791
1.01683
1.01583
1.0147
1.01352
1.01251
1.01142
1.01025
1.00907
1.00798
1.00687
1.00568
1.00441
1.00338
1.0023
1.00101
0.999865
0.998799
0.997689
0.99665
0.995653
0.994945
0.994564
0.994145
0.994126
0.994552
0.994558
0.994751
0.995847
0.9966
0.997002
0.99724
0.996996
0.996485
0.995929
0.99492
0.993533
0.992157
0.990673
0.988841
0.987139
0.986011
0.984821
0.983211
0.981656
0.980797
0.979892
0.978603
0.977279
0.976624
0.975885
0.974766
0.973384
0.972754
0.972086
0.970942
0.96985
0.969028
0.968163
0.967426
0.966992
0.967126
0.967946
0.970437
0.976184
0.984425
0.992764
0.995861
0.996174
0.995974
0.995228
0.994277
0.9931
0.99151
0.99043
0.989498
0.988412
0.987223
0.986459
0.985844
0.985585
0.986036
0.98716
0.989129
1.05887
1.05989
1.05948
1.05957
1.05942
1.05895
1.05824
1.05743
1.05649
1.05535
1.05403
1.05259
1.05101
1.04929
1.04763
1.04594
1.04424
1.04272
1.04124
1.03974
1.03838
1.03709
1.03566
1.03435
1.03324
1.032
1.03067
1.02956
1.02847
1.02713
1.02599
1.02501
1.02384
1.02265
1.02165
1.0206
1.01931
1.01824
1.01729
1.01615
1.01497
1.01404
1.01308
1.01187
1.01067
1.00974
1.00874
1.00744
1.00622
1.00536
1.00437
1.00309
1.00206
1.00116
1.00016
0.999162
0.998214
0.997673
0.997375
0.997103
0.997341
0.997714
0.997729
0.998249
0.999538
1.00026
1.00065
1.00081
1.00048
0.999922
0.999299
0.998196
0.996769
0.995422
0.993969
0.992135
0.99049
0.989367
0.988157
0.986493
0.985005
0.984144
0.98322
0.98186
0.980643
0.979955
0.979114
0.97791
0.976533
0.975751
0.974956
0.973712
0.972399
0.971698
0.970768
0.969757
0.96909
0.968871
0.969196
0.970479
0.973923
0.980821
0.989211
0.996201
0.997781
0.99779
0.9972
0.996171
0.994841
0.99292
0.991275
0.990018
0.988748
0.987375
0.986427
0.985547
0.984402
0.983222
0.982237
0.981431
1.04712
1.05344
1.05655
1.0586
1.05908
1.05895
1.05829
1.05744
1.0568
1.0562
1.05548
1.05465
1.0536
1.05227
1.05075
1.04913
1.04744
1.04584
1.04427
1.04265
1.04112
1.0397
1.03827
1.03683
1.03551
1.03419
1.03269
1.03143
1.0303
1.02895
1.02778
1.02676
1.02555
1.02426
1.02323
1.02217
1.02091
1.0198
1.0188
1.01772
1.01647
1.01543
1.01455
1.01342
1.01214
1.01123
1.01036
1.00916
1.00786
1.00702
1.0061
1.00481
1.00374
1.00289
1.002
1.00108
1.00024
0.999817
0.999522
0.999391
0.999794
0.999996
1.00015
1.00098
1.00233
1.00305
1.00339
1.00352
1.00316
1.00255
1.00184
1.00064
0.999168
0.997841
0.996409
0.99459
0.993017
0.991901
0.990687
0.989001
0.98758
0.986702
0.985729
0.984261
0.983131
0.982396
0.981483
0.980174
0.978919
0.978063
0.977143
0.975926
0.974473
0.973741
0.972883
0.97165
0.970786
0.97026
0.97023
0.970815
0.972681
0.977171
0.984679
0.992932
0.998351
0.999173
0.998972
0.998347
0.997242
0.995415
0.993456
0.991779
0.990158
0.988401
0.987138
0.986047
0.984725
0.983404
0.982413
0.981386
1.02993
1.03905
1.04541
1.05096
1.0546
1.05651
1.05731
1.05698
1.05682
1.05658
1.05594
1.0552
1.05442
1.05361
1.0527
1.05163
1.05038
1.049
1.04754
1.04597
1.04438
1.0428
1.04123
1.03974
1.03827
1.03683
1.03535
1.03392
1.03265
1.03121
1.02983
1.02871
1.02751
1.02619
1.02507
1.02397
1.02274
1.02157
1.02044
1.01935
1.01825
1.01708
1.01609
1.01509
1.01378
1.01268
1.01185
1.01076
1.00945
1.00858
1.00771
1.00652
1.00539
1.00449
1.00364
1.00273
1.00196
1.00158
1.00128
1.00132
1.00176
1.00186
1.00225
1.00325
1.00467
1.00534
1.00556
1.00563
1.00525
1.0046
1.0038
1.00252
1.00103
0.999743
0.99835
0.996558
0.995026
0.993892
0.992637
0.990908
0.989592
0.988711
0.987701
0.986228
0.985172
0.984384
0.983422
0.982005
0.980835
0.979942
0.978902
0.977628
0.976259
0.975451
0.974649
0.973369
0.972337
0.971679
0.971266
0.97145
0.972475
0.974947
0.980271
0.988106
0.99597
0.999877
1.00038
1.00018
0.999591
0.998218
0.996443
0.994713
0.992817
0.990883
0.989307
0.987886
0.986351
0.984737
0.983619
0.982438
1.01622
1.02193
1.02923
1.03635
1.04408
1.04829
1.05216
1.05376
1.05473
1.0554
1.05541
1.05488
1.05428
1.0538
1.05322
1.0525
1.0517
1.0508
1.0498
1.04865
1.04738
1.04603
1.04455
1.04304
1.04151
1.03993
1.03838
1.0368
1.03532
1.03396
1.03252
1.03116
1.02986
1.02851
1.02723
1.02601
1.02482
1.02365
1.02241
1.02121
1.02014
1.01894
1.01773
1.01682
1.01569
1.01446
1.01356
1.01256
1.01121
1.01015
1.00929
1.00825
1.00708
1.00608
1.0053
1.00449
1.00375
1.00331
1.00301
1.00319
1.00353
1.00362
1.0042
1.00532
1.00685
1.00739
1.00751
1.00753
1.00712
1.00643
1.00554
1.00418
1.00267
1.0014
1.00003
0.998258
0.99681
0.995669
0.9944
0.992681
0.991415
0.990528
0.989452
0.987926
0.986948
0.986137
0.985116
0.983682
0.982624
0.981722
0.98066
0.979292
0.978087
0.97717
0.976296
0.975157
0.973934
0.973257
0.972568
0.972388
0.972814
0.974304
0.977351
0.983373
0.991271
0.998522
1.00142
1.00175
1.00156
1.00083
0.9995
0.998039
0.996314
0.9943
0.992637
0.991139
0.989469
0.987897
0.986511
0.985115
1.0117
1.01295
1.01609
1.02046
1.02734
1.03415
1.04042
1.04667
1.04984
1.05255
1.05358
1.05331
1.05315
1.05302
1.05287
1.05231
1.05167
1.05105
1.05041
1.04971
1.04895
1.04808
1.04705
1.04585
1.04456
1.04312
1.04162
1.04013
1.03855
1.03702
1.03557
1.03408
1.03262
1.03122
1.02988
1.02848
1.02714
1.02597
1.02472
1.02342
1.02232
1.02112
1.01983
1.01879
1.01773
1.01644
1.01543
1.01447
1.01328
1.01209
1.01107
1.01009
1.00906
1.00796
1.00704
1.00625
1.00557
1.00511
1.00488
1.00519
1.00539
1.00556
1.00626
1.0075
1.009
1.00935
1.00943
1.00943
1.00898
1.00824
1.00728
1.00586
1.00436
1.00311
1.00175
0.999974
0.998535
0.997399
0.996105
0.994413
0.993255
0.992369
0.991271
0.989783
0.988811
0.987965
0.986859
0.985388
0.984372
0.983454
0.982395
0.980973
0.979981
0.979124
0.97811
0.977051
0.975932
0.975149
0.974393
0.973696
0.973753
0.97446
0.976328
0.979951
0.98657
0.994225
1.00083
1.00318
1.00334
1.00308
1.00234
1.00129
0.999896
0.998068
0.996477
0.995033
0.993393
0.991868
0.990585
0.989245
1.01139
1.01157
1.01198
1.01292
1.01531
1.01973
1.02497
1.0323
1.03812
1.04339
1.04751
1.04972
1.05159
1.05235
1.05235
1.05189
1.05128
1.05096
1.05047
1.04981
1.04916
1.04854
1.04787
1.04711
1.04626
1.04531
1.04422
1.04299
1.04166
1.04024
1.03878
1.03731
1.03582
1.03431
1.03288
1.03146
1.02995
1.02858
1.0273
1.02593
1.02475
1.02365
1.02234
1.0211
1.01998
1.0188
1.01765
1.01657
1.01548
1.01434
1.01317
1.01214
1.01116
1.01004
1.00912
1.00836
1.00766
1.0071
1.00699
1.00731
1.00739
1.00766
1.00848
1.00993
1.01131
1.01146
1.01152
1.01152
1.01103
1.01022
1.00919
1.00771
1.00621
1.00498
1.00362
1.00186
1.00047
0.999327
0.998018
0.996335
0.995209
0.994323
0.993194
0.991761
0.990849
0.990001
0.988838
0.987428
0.986467
0.985498
0.984368
0.982979
0.981998
0.981174
0.980187
0.978975
0.978131
0.977349
0.976541
0.975693
0.975265
0.975493
0.976421
0.978646
0.982934
0.989701
0.99705
1.00335
1.00511
1.00521
1.00496
1.00436
1.00337
1.0018
1.00034
0.998952
0.997356
0.995984
0.994813
0.993611
1.01203
1.01179
1.01174
1.01184
1.01217
1.01302
1.01481
1.01846
1.02344
1.02903
1.03556
1.04026
1.04478
1.04783
1.04913
1.05019
1.05047
1.05029
1.05023
1.04988
1.04932
1.04871
1.04807
1.04741
1.04672
1.04601
1.04528
1.04449
1.04361
1.04262
1.04149
1.04022
1.0389
1.03753
1.03607
1.03464
1.03317
1.03167
1.03031
1.02891
1.02742
1.02628
1.02512
1.02384
1.02257
1.0214
1.02019
1.01894
1.01787
1.0168
1.01556
1.01448
1.01357
1.01247
1.0114
1.01065
1.00994
1.00939
1.00942
1.00969
1.00969
1.01007
1.011
1.01263
1.01378
1.01379
1.0138
1.01379
1.01331
1.01249
1.01141
1.00987
1.0084
1.00716
1.00578
1.004
1.0026
1.00147
1.00015
0.998514
0.997452
0.996558
0.995401
0.994045
0.993155
0.992268
0.991044
0.989701
0.98876
0.987803
0.986602
0.985338
0.984434
0.983534
0.982579
0.98129
0.980502
0.979921
0.979044
0.97818
0.977505
0.977319
0.977611
0.978704
0.981382
0.985999
0.992643
1.00004
1.00593
1.00729
1.00739
1.00718
1.00661
1.00543
1.00416
1.00286
1.00128
0.999893
0.9988
0.99769
1.01355
1.01305
1.01256
1.01224
1.01218
1.01231
1.01255
1.01306
1.01438
1.01686
1.0214
1.02655
1.03229
1.03787
1.0417
1.04506
1.04692
1.04772
1.0486
1.04886
1.04862
1.0482
1.04782
1.04739
1.04685
1.04623
1.04555
1.04487
1.0442
1.04351
1.04278
1.04197
1.04106
1.04
1.03878
1.03751
1.03624
1.03487
1.03351
1.03217
1.0307
1.02928
1.02802
1.02668
1.02537
1.02425
1.02306
1.02166
1.02053
1.01947
1.01818
1.01701
1.01614
1.01511
1.01404
1.01329
1.01251
1.01201
1.01211
1.01224
1.01222
1.01274
1.0138
1.01555
1.01649
1.01648
1.01651
1.0164
1.01584
1.01502
1.01392
1.01233
1.01088
1.00967
1.00829
1.00652
1.00515
1.00399
1.00263
1.00103
0.999989
0.999079
0.997868
0.996619
0.995779
0.994869
0.993583
0.992361
0.991423
0.990437
0.989174
0.988013
0.987144
0.986201
0.985194
0.984034
0.983151
0.982579
0.981853
0.980865
0.980259
0.979795
0.979719
0.980071
0.981427
0.984388
0.98899
0.995666
1.00291
1.0082
1.00977
1.00987
1.00965
1.00894
1.00792
1.00677
1.00527
1.00376
1.00266
1.0015
1.01641
1.01524
1.01427
1.01322
1.01289
1.01282
1.01268
1.01274
1.01274
1.01299
1.01406
1.01616
1.01946
1.02427
1.02923
1.03452
1.03858
1.04179
1.04473
1.04632
1.0465
1.0467
1.04676
1.04672
1.0464
1.04589
1.04532
1.04476
1.04424
1.0437
1.04315
1.04256
1.04187
1.04108
1.04026
1.03941
1.03848
1.03743
1.03628
1.03507
1.0338
1.03245
1.03113
1.02982
1.02839
1.02716
1.02603
1.02468
1.02343
1.02234
1.02105
1.01988
1.01896
1.01792
1.0168
1.01606
1.0153
1.01493
1.01501
1.01498
1.01504
1.0157
1.01685
1.01865
1.01941
1.01949
1.0196
1.01936
1.01858
1.01777
1.01671
1.01511
1.01368
1.0125
1.01112
1.00938
1.00802
1.00683
1.00542
1.00387
1.00288
1.00195
1.00067
0.999525
0.998699
0.99775
0.99641
0.995287
0.994374
0.993369
0.992054
0.991045
0.990154
0.989185
0.988108
0.9871
0.986229
0.985461
0.984794
0.983877
0.983128
0.982761
0.982388
0.982403
0.982905
0.98448
0.987387
0.99202
0.998848
1.00547
1.01047
1.01237
1.01245
1.01216
1.0115
1.01063
1.00931
1.00773
1.00653
1.00526
1.01945
1.0182
1.01705
1.01568
1.01459
1.01393
1.01322
1.01297
1.01296
1.013
1.01298
1.01311
1.01368
1.01523
1.01783
1.02169
1.02631
1.03088
1.03565
1.03875
1.04115
1.04334
1.04507
1.04549
1.04539
1.04497
1.04443
1.04404
1.04383
1.0435
1.043
1.0425
1.042
1.04147
1.0409
1.04024
1.03951
1.03876
1.038
1.03716
1.03621
1.03519
1.03407
1.03288
1.03162
1.03032
1.02907
1.02776
1.02649
1.02539
1.02417
1.02294
1.02195
1.02091
1.01979
1.019
1.0183
1.018
1.01798
1.01785
1.01808
1.01882
1.02003
1.02194
1.02267
1.02267
1.02278
1.02257
1.02168
1.02078
1.01973
1.01814
1.01671
1.01554
1.01418
1.01249
1.01116
1.00995
1.00849
1.00701
1.00604
1.00509
1.00374
1.00266
1.00186
1.00088
0.999538
0.998515
0.997619
0.996561
0.995229
0.994303
0.993409
0.992359
0.991243
0.990371
0.98949
0.98858
0.987826
0.987127
0.986309
0.985828
0.985456
0.985151
0.985264
0.985862
0.987409
0.990358
0.995043
1.00147
1.00771
1.01277
1.01487
1.01498
1.01477
1.01426
1.01327
1.01181
1.01051
1.00912
1.02243
1.02124
1.02006
1.01876
1.01726
1.0162
1.01518
1.01428
1.01379
1.01334
1.01294
1.01292
1.01297
1.01304
1.01328
1.01417
1.01611
1.01905
1.0231
1.02745
1.03169
1.03567
1.03841
1.04036
1.04188
1.04318
1.04376
1.04375
1.04328
1.04261
1.04214
1.04186
1.04172
1.04136
1.04092
1.0405
1.03999
1.03938
1.03871
1.03804
1.03743
1.03682
1.03611
1.03527
1.03432
1.03323
1.03207
1.03089
1.02967
1.02853
1.02738
1.02615
1.02506
1.024
1.02293
1.0221
1.02145
1.02115
1.02099
1.02084
1.02123
1.02199
1.0233
1.02535
1.02609
1.02595
1.02594
1.0258
1.02496
1.02398
1.02292
1.02139
1.01995
1.01877
1.01737
1.01571
1.01442
1.01322
1.01171
1.0103
1.00938
1.0084
1.00701
1.00597
1.00517
1.00418
1.00287
1.00193
1.00103
0.999867
0.998598
0.99767
0.99676
0.99566
0.994537
0.993748
0.992863
0.991865
0.990977
0.990318
0.98966
0.988953
0.988515
0.988186
0.987978
0.988123
0.988705
0.990304
0.99329
0.997601
1.0038
1.00983
1.01453
1.01731
1.01753
1.01738
1.01684
1.01573
1.01449
1.01311
1.025
1.024
1.02287
1.02165
1.02027
1.01904
1.01793
1.01665
1.01563
1.0148
1.01401
1.01348
1.01328
1.01308
1.01297
1.01296
1.01311
1.0136
1.01476
1.01691
1.02004
1.02394
1.02801
1.03197
1.03495
1.03722
1.03906
1.04052
1.0416
1.04208
1.04198
1.04138
1.04088
1.04055
1.0404
1.04028
1.03985
1.03939
1.03891
1.03837
1.03778
1.03724
1.03676
1.03626
1.03567
1.03496
1.03417
1.03334
1.03245
1.03146
1.03041
1.02927
1.02815
1.02712
1.02615
1.0253
1.02465
1.0243
1.02399
1.02396
1.02443
1.02517
1.02661
1.02869
1.02942
1.02927
1.02912
1.029
1.02825
1.02724
1.02616
1.02467
1.02325
1.02202
1.02057
1.01891
1.01771
1.01654
1.01502
1.01365
1.01275
1.01175
1.01035
1.00934
1.00855
1.00752
1.00628
1.00538
1.00445
1.00318
1.00197
1.00109
1.00013
0.998946
0.997931
0.997105
0.996224
0.995091
0.9941
0.993493
0.992842
0.992104
0.991378
0.991053
0.990824
0.990664
0.990813
0.991458
0.993167
0.995847
0.999945
1.00594
1.01138
1.01582
1.01919
1.01948
1.01943
1.019
1.01817
1.017
1.02731
1.02645
1.02547
1.02431
1.0231
1.0219
1.02069
1.01939
1.01823
1.0171
1.01603
1.01484
1.01416
1.01386
1.01344
1.01324
1.0132
1.01298
1.01284
1.01299
1.01368
1.01516
1.01748
1.02056
1.02419
1.02806
1.03158
1.03402
1.03595
1.03758
1.03907
1.04001
1.04015
1.04005
1.03973
1.0394
1.03923
1.0392
1.03893
1.03847
1.03794
1.0374
1.03693
1.03644
1.03589
1.03535
1.03489
1.03442
1.03387
1.0332
1.03244
1.03161
1.03077
1.02995
1.02913
1.02843
1.02776
1.02733
1.02708
1.02712
1.02746
1.02824
1.02984
1.03193
1.03264
1.03252
1.03229
1.03217
1.03155
1.03051
1.02938
1.02789
1.02647
1.02523
1.02374
1.02204
1.02089
1.01977
1.01825
1.0169
1.01601
1.01502
1.01366
1.0127
1.01188
1.01075
1.00958
1.00869
1.0077
1.00638
1.00525
1.00437
1.00341
1.00215
1.00121
1.00035
0.99937
0.998296
0.997189
0.996429
0.995774
0.995033
0.994309
0.993696
0.993397
0.993127
0.992969
0.99317
0.993898
0.995427
0.997862
1.00197
1.007
1.01234
1.0172
1.02004
1.02133
1.02139
1.02113
1.0204
1.02964
1.02879
1.02783
1.02676
1.02572
1.02466
1.02345
1.02219
1.02101
1.01978
1.01856
1.01709
1.01613
1.01551
1.01474
1.01396
1.01342
1.01324
1.01303
1.01292
1.01275
1.01265
1.01288
1.01369
1.01528
1.01771
1.0207
1.02406
1.02757
1.03045
1.03275
1.03452
1.0359
1.03752
1.03816
1.03815
1.03835
1.03831
1.03809
1.03798
1.03782
1.03751
1.03704
1.03646
1.03593
1.0355
1.0351
1.03464
1.03411
1.03358
1.03307
1.03256
1.0321
1.03161
1.03105
1.03053
1.0302
1.02996
1.02984
1.02996
1.03032
1.03128
1.03297
1.03504
1.03587
1.03582
1.03546
1.03525
1.03471
1.03372
1.03256
1.03106
1.02956
1.02832
1.02687
1.02512
1.02392
1.02283
1.02137
1.02002
1.0191
1.01809
1.0168
1.01587
1.015
1.01377
1.01264
1.01177
1.01077
1.0094
1.00837
1.00747
1.0064
1.00513
1.00419
1.00332
1.00227
1.00109
1.00021
0.999238
0.998406
0.997695
0.99688
0.996291
0.995856
0.9955
0.995194
0.995014
0.995196
0.99585
0.997191
0.999587
1.00301
1.0074
1.01315
1.01747
1.0203
1.02233
1.02277
1.02261
1.03188
1.03108
1.03012
1.02904
1.02806
1.02708
1.02591
1.02475
1.02369
1.02254
1.02133
1.01986
1.01874
1.01789
1.01691
1.01571
1.01485
1.01431
1.01372
1.01311
1.01274
1.0126
1.01241
1.0123
1.01232
1.01265
1.01358
1.01514
1.01736
1.02008
1.02316
1.0263
1.02869
1.03095
1.03285
1.03421
1.03551
1.03627
1.03635
1.03651
1.03659
1.03643
1.03616
1.03601
)
;

boundaryField
{
    inlet
    {
        type            fixedValue;
        value           nonuniform 0();
    }
    outlet
    {
        type            inletOutlet;
        inletValue      nonuniform 0();
        value           nonuniform 0();
    }
    bottom
    {
        type            symmetryPlane;
    }
    top
    {
        type            symmetryPlane;
    }
    obstacle
    {
        type            zeroGradient;
    }
    front
    {
        type            empty;
    }
    back
    {
        type            empty;
    }
    procBoundary29to21
    {
        type            processor;
        value           nonuniform List<scalar> 
129
(
1.06588
1.06623
1.06622
1.06575
1.06446
1.06223
1.05963
1.05694
0.980548
0.981057
0.982039
0.982675
0.98369
0.984464
0.98442
0.984504
0.984488
0.983822
0.982708
0.981333
0.979646
0.977654
0.97619
0.974788
0.97317
0.971163
0.969814
0.968734
0.967433
0.965648
0.964443
0.963632
0.962628
0.96105
0.959928
0.959038
0.957874
0.956654
0.955995
0.955778
0.956163
0.958169
0.963999
0.975847
0.992399
1.00941
1.02257
1.03331
1.04166
1.04788
1.05403
1.05826
1.06124
1.06448
1.06558
1.06535
1.06412
1.06205
1.06104
1.06073
1.05973
1.05804
1.0563
1.05452
1.0527
1.05451
1.05277
1.05111
1.04942
1.04809
1.04678
1.0456
1.04466
1.04359
1.04242
1.04132
1.0402
1.03897
1.03793
1.03692
1.03577
1.03474
1.03374
1.03259
1.03154
1.0305
1.02932
1.02819
1.02719
1.02605
1.02471
1.02352
1.02234
1.02091
1.01944
1.0182
1.01688
1.01524
1.01371
1.0124
1.0109
1.00908
1.00752
1.00615
1.00454
1.00258
1.00109
0.999819
0.998295
0.996398
0.995065
0.993964
0.992603
0.990767
0.989556
0.988672
0.987489
0.985839
0.984906
0.984136
0.982978
0.982093
0.98133
0.980563
0.98031
0.980145
0.980321
0.980971
0.980971
)
;
    }
    procBoundary29to22
    {
        type            processor;
        value           nonuniform List<scalar> 3(1.05077 1.04928 1.04046);
    }
    procBoundary29to30
    {
        type            processor;
        value           nonuniform List<scalar> 
16
(
1.01861
0.991959
0.980854
0.980142
0.980859
0.983422
0.987641
0.992182
0.996368
1.00017
1.00381
1.00751
1.01134
1.0153
1.01911
1.02209
)
;
    }
    procBoundary29to36
    {
        type            processor;
        value           nonuniform List<scalar> 
19
(
1.0525
1.03153
1.01503
1.00965
1.0091
1.00969
1.01155
1.01464
1.01802
1.02138
1.02426
1.0267
1.02911
1.0314
1.03368
1.03614
1.03861
1.04127
1.04406
)
;
    }
    procBoundary29to37
    {
        type            processor;
        value           nonuniform List<scalar> 
129
(
1.04541
1.04423
1.04292
1.04123
1.03971
1.0384
1.03699
1.03542
1.03594
1.03571
1.03527
1.03473
1.03418
1.0337
1.03325
1.03279
1.03238
1.03196
1.03153
1.03133
1.0313
1.03134
1.03145
1.03183
1.03246
1.03363
1.03556
1.03782
1.03899
1.03909
1.03872
1.03822
1.03763
1.03673
1.03561
1.03419
1.03264
1.03132
1.02992
1.02817
1.02677
1.02565
1.02431
1.02303
1.02208
1.02099
1.01973
1.01881
1.01786
1.01654
1.01542
1.0146
1.01359
1.01224
1.01122
1.0103
1.00914
1.00787
1.00694
1.00601
1.00494
1.00377
1.00285
1.00189
1.00075
1
0.999295
0.998454
0.997836
0.997427
0.997177
0.996977
0.996843
0.996994
0.99758
0.998916
1.00087
1.00356
1.00797
1.01289
1.01728
1.02066
1.02286
1.0241
1.03432
1.03347
1.03248
1.03138
1.03042
1.02946
1.02824
1.02706
1.02609
1.02505
1.02392
1.02256
1.0215
1.02061
1.01955
1.0182
1.01703
1.01621
1.01533
1.01418
1.01366
1.01332
1.01287
1.01244
1.01224
1.0121
1.01191
1.01179
1.01206
1.01289
1.01433
1.01634
1.01884
1.0215
1.0243
1.02688
1.02881
1.03046
1.03222
1.03367
1.03428
1.03418
1.0342
1.03594
1.03457
)
;
    }
}


// ************************************************************************* //
