/*--------------------------------*- C++ -*----------------------------------*\
  =========                 |
  \\      /  F ield         | OpenFOAM: The Open Source CFD Toolbox
   \\    /   O peration     | Website:  https://openfoam.org
    \\  /    A nd           | Version:  7
     \\/     M anipulation  |
\*---------------------------------------------------------------------------*/
FoamFile
{
    version     2.0;
    format      ascii;
    class       volVectorField;
    location    "13.5";
    object      U;
}
// * * * * * * * * * * * * * * * * * * * * * * * * * * * * * * * * * * * * * //

dimensions      [0 1 -1 0 0 0 0];

internalField   nonuniform List<vector> 
2413
(
(1.86787 0.0971568 0)
(1.85876 0.111792 0)
(1.85586 0.11213 0)
(1.8584 0.112792 0)
(1.85927 0.112739 0)
(1.8609 0.112824 0)
(1.86379 0.111977 0)
(1.86758 0.10959 0)
(1.88825 0.072655 0)
(1.87812 0.0846546 0)
(1.8738 0.0935122 0)
(1.8666 0.105966 0)
(1.86103 0.113441 0)
(1.86129 0.11348 0)
(1.86303 0.113629 0)
(1.8652 0.113926 0)
(1.92028 0.0295663 0)
(1.90807 0.0465939 0)
(1.89014 0.0741059 0)
(1.8753 0.100291 0)
(1.87028 0.10133 0)
(1.869 0.104291 0)
(1.86798 0.110081 0)
(1.86766 0.113754 0)
(1.94011 0.00650526 0)
(1.93281 0.0167138 0)
(1.91965 0.0341371 0)
(1.90272 0.0592983 0)
(1.89323 0.0728835 0)
(1.8786 0.0940347 0)
(1.87145 0.113369 0)
(1.86824 0.113836 0)
(1.9449 0.00216993 0)
(1.9438 0.00483588 0)
(1.94004 0.0104559 0)
(1.93115 0.0226175 0)
(1.9171 0.043736 0)
(1.905 0.059065 0)
(1.88982 0.0840996 0)
(1.8827 0.0970339 0)
(1.94612 0.00398217 0)
(1.94631 0.00487963 0)
(1.94589 0.00589988 0)
(1.94419 0.00863888 0)
(1.93903 0.0163099 0)
(1.93026 0.0285414 0)
(1.91792 0.0460925 0)
(1.90097 0.0758183 0)
(1.94634 0.00429756 0)
(1.94766 0.00466776 0)
(1.94742 0.00656411 0)
(1.94734 0.00801495 0)
(1.94695 0.0089833 0)
(1.94471 0.0124694 0)
(1.9394 0.0199759 0)
(1.92882 0.0363027 0)
(1.94361 0.0112345 0)
(1.94493 0.0113985 0)
(1.94748 0.00926381 0)
(1.94859 0.00812372 0)
(1.9486 0.00849908 0)
(1.94828 0.00996286 0)
(1.94785 0.0119489 0)
(1.94529 0.0164753 0)
(1.94036 0.0179708 0)
(1.94301 0.0159622 0)
(1.94549 0.0148421 0)
(1.94733 0.0129583 0)
(1.94833 0.0115315 0)
(1.94959 0.0118309 0)
(1.94967 0.0121773 0)
(1.94941 0.0132853 0)
(1.9367 0.0255418 0)
(1.93892 0.024051 0)
(1.94144 0.0227613 0)
(1.9453 0.0179241 0)
(1.94739 0.014592 0)
(1.94905 0.015519 0)
(1.9498 0.0153735 0)
(1.95043 0.0154681 0)
(1.93352 0.032507 0)
(1.93561 0.0304501 0)
(1.93834 0.0289902 0)
(1.94145 0.0259091 0)
(1.94374 0.0229017 0)
(1.94606 0.021338 0)
(1.94924 0.0184238 0)
(1.95107 0.016748 0)
(1.93082 0.0383959 0)
(1.9328 0.0361175 0)
(1.93524 0.0349838 0)
(1.93787 0.033047 0)
(1.94052 0.0298699 0)
(1.94333 0.0267309 0)
(1.94606 0.0252455 0)
(1.94773 0.0244387 0)
(1.92819 0.0439579 0)
(1.9301 0.0414655 0)
(1.93217 0.0408733 0)
(1.93479 0.0391598 0)
(1.93726 0.0364125 0)
(1.93951 0.0344806 0)
(1.94268 0.0316518 0)
(1.94557 0.0290579 0)
(1.92605 0.0487032 0)
(1.92804 0.0458095 0)
(1.93006 0.0452446 0)
(1.93207 0.0447084 0)
(1.93465 0.0418944 0)
(1.9368 0.0395741 0)
(1.93914 0.038548 0)
(1.94175 0.0367494 0)
(1.9235 0.0540003 0)
(1.92567 0.0508519 0)
(1.92773 0.0502093 0)
(1.92979 0.049637 0)
(1.9323 0.0470598 0)
(1.93439 0.0445467 0)
(1.93664 0.0433887 0)
(1.93875 0.0425652 0)
(1.92113 0.0588749 0)
(1.92332 0.0556378 0)
(1.92535 0.05525 0)
(1.92732 0.0548722 0)
(1.93002 0.0519664 0)
(1.9319 0.0496033 0)
(1.93381 0.0491575 0)
(1.93601 0.0479291 0)
(1.91865 0.0640173 0)
(1.92096 0.0605709 0)
(1.92307 0.0600748 0)
(1.92517 0.0596386 0)
(1.92782 0.0567118 0)
(1.92967 0.0540878 0)
(1.93158 0.0536404 0)
(1.93332 0.0531756 0)
(1.91577 0.0698046 0)
(1.91818 0.0662824 0)
(1.92032 0.0657313 0)
(1.9225 0.0651596 0)
(1.92538 0.0618342 0)
(1.92726 0.0590428 0)
(1.92914 0.0585235 0)
(1.9312 0.0574527 0)
(1.91313 0.0752509 0)
(1.91564 0.0717205 0)
(1.91776 0.0710693 0)
(1.91998 0.0704384 0)
(1.92279 0.0670451 0)
(1.92462 0.0641663 0)
(1.92642 0.0637463 0)
(1.92829 0.0628267 0)
(2.04331 0.00269357 0)
(2.04349 0.00111493 0)
(2.04159 -0.00155264 0)
(2.03954 -0.00462535 0)
(2.03859 -0.00745275 0)
(2.0374 -0.0101394 0)
(2.03684 -0.0126947 0)
(2.03799 -0.0162156 0)
(2.03798 -0.0184461 0)
(2.03918 -0.0204765 0)
(2.04213 -0.0245357 0)
(2.04509 -0.026534 0)
(2.04803 -0.0263111 0)
(2.05156 -0.0285865 0)
(2.05568 -0.0338004 0)
(2.05829 -0.0371402 0)
(2.06095 -0.0374469 0)
(2.06374 -0.039408 0)
(2.06738 -0.0443808 0)
(2.06919 -0.0481576 0)
(2.07085 -0.0486172 0)
(2.07284 -0.0506316 0)
(2.07571 -0.0554087 0)
(2.07681 -0.0593568 0)
(2.07778 -0.0604201 0)
(2.07883 -0.0621508 0)
(2.08151 -0.0670447 0)
(2.08257 -0.0710158 0)
(2.08355 -0.0727457 0)
(2.08508 -0.074638 0)
(2.08609 -0.0766695 0)
(2.08495 -0.0803356 0)
(2.08389 -0.0828956 0)
(2.0804 -0.0834033 0)
(2.07205 -0.0826051 0)
(2.05676 -0.0804517 0)
(2.03394 -0.0747621 0)
(2.01127 -0.0667223 0)
(1.99578 -0.0568326 0)
(1.98674 -0.0441386 0)
(1.98105 -0.0309673 0)
(1.97507 -0.0133276 0)
(1.9712 0.00194509 0)
(1.96642 0.0199245 0)
(1.96137 0.0387123 0)
(1.95842 0.0551252 0)
(1.95255 0.0770579 0)
(1.95273 0.0821486 0)
(1.95517 0.0832665 0)
(1.95536 0.0910608 0)
(1.95296 0.0995975 0)
(1.9531 0.107172 0)
(1.95423 0.107635 0)
(1.95815 0.106173 0)
(1.96181 0.101922 0)
(1.96474 0.100259 0)
(1.96831 0.100451 0)
(1.87148 0.106912 0)
(1.87533 0.103724 0)
(1.87879 0.101316 0)
(1.88228 0.099089 0)
(1.88542 0.0963818 0)
(1.88784 0.0954724 0)
(1.89053 0.0942548 0)
(1.89299 0.0925832 0)
(1.8951 0.0927086 0)
(1.89752 0.0919747 0)
(1.9007 0.0895804 0)
(1.90336 0.0887734 0)
(1.90627 0.0881677 0)
(1.90912 0.0866317 0)
(1.91161 0.0862967 0)
(1.91416 0.0864714 0)
(1.91689 0.0853509 0)
(1.91937 0.0846751 0)
(1.9219 0.0849335 0)
(1.9245 0.0842999 0)
(1.92706 0.0836509 0)
(1.92969 0.083823 0)
(1.93259 0.0830594 0)
(1.93563 0.0812112 0)
(1.9385 0.0803716 0)
(1.94154 0.0799433 0)
(1.9445 0.0786098 0)
(1.9471 0.0777576 0)
(1.94993 0.0779179 0)
(1.95301 0.0772026 0)
(1.95616 0.0751871 0)
(1.95907 0.0741912 0)
(1.96216 0.0739347 0)
(1.96557 0.0722307 0)
(1.9686 0.0700033 0)
(1.97154 0.0693422 0)
(1.9747 0.0685549 0)
(1.97842 0.0657232 0)
(1.98149 0.0629377 0)
(1.98451 0.0619756 0)
(1.98781 0.0606766 0)
(1.99151 0.0574444 0)
(1.99442 0.0545746 0)
(1.99743 0.0538187 0)
(2.00064 0.0527396 0)
(2.00458 0.0489962 0)
(2.00746 0.0451829 0)
(2.0102 0.0443537 0)
(2.01303 0.0432921 0)
(2.01708 0.0392035 0)
(2.01965 0.0356884 0)
(2.022 0.0352928 0)
(2.02503 0.0335142 0)
(2.02864 0.0296698 0)
(2.03073 0.0279064 0)
(2.03298 0.0263432 0)
(2.03587 0.0233782 0)
(2.03778 0.0210948 0)
(2.03931 0.0192838 0)
(2.04003 0.016937 0)
(2.0397 0.0134868 0)
(2.04041 0.0111742 0)
(2.03921 0.00808646 0)
(2.03788 0.00460624 0)
(2.03802 0.00257603 0)
(2.03551 -0.000429472 0)
(2.03346 -0.00345181 0)
(2.03264 -0.00667832 0)
(2.03159 -0.00915267 0)
(2.03144 -0.0120819 0)
(2.03279 -0.0160971 0)
(2.03298 -0.0177572 0)
(2.03479 -0.0199255 0)
(2.03804 -0.0241424 0)
(2.04118 -0.0260172 0)
(2.0441 -0.0258244 0)
(2.04774 -0.0284145 0)
(2.05142 -0.0334993 0)
(2.0538 -0.0363086 0)
(2.05614 -0.0363835 0)
(2.05875 -0.0384765 0)
(2.06206 -0.043296 0)
(2.06378 -0.0466866 0)
(2.0654 -0.0472091 0)
(2.06709 -0.0490784 0)
(2.06992 -0.0537722 0)
(2.07104 -0.0571577 0)
(2.07213 -0.0579679 0)
(2.07382 -0.0602623 0)
(2.0761 -0.064384 0)
(2.07738 -0.0681898 0)
(2.07845 -0.0691193 0)
(2.08009 -0.0709895 0)
(2.08209 -0.0738772 0)
(2.08207 -0.0763688 0)
(2.08117 -0.0796896 0)
(2.07939 -0.080106 0)
(2.07375 -0.0793095 0)
(2.06179 -0.0778018 0)
(2.04267 -0.0739912 0)
(2.02077 -0.0675084 0)
(2.00477 -0.0624639 0)
(1.9969 -0.0586076 0)
(1.99474 -0.0552867 0)
(1.99381 -0.0513407 0)
(1.9926 -0.0461977 0)
(1.99093 -0.0398835 0)
(1.9884 -0.0300785 0)
(1.98485 -0.0159443 0)
(1.98202 -0.00244757 0)
(1.97556 0.0167671 0)
(1.97236 0.0310232 0)
(1.96702 0.0490765 0)
(1.96405 0.0636679 0)
(1.96659 0.0661212 0)
(1.96483 0.0752217 0)
(1.96264 0.0853099 0)
(1.96148 0.0918201 0)
(1.96327 0.0967328 0)
(1.96505 0.0958233 0)
(1.86775 0.113173 0)
(1.87083 0.111853 0)
(1.87439 0.109945 0)
(1.87801 0.10767 0)
(1.88143 0.104918 0)
(1.88461 0.102397 0)
(1.88782 0.100269 0)
(1.8912 0.0974413 0)
(1.89394 0.0959214 0)
(1.89686 0.0948027 0)
(1.89974 0.0929111 0)
(1.90214 0.0927075 0)
(1.90449 0.0929672 0)
(1.9076 0.0911391 0)
(1.91025 0.0898483 0)
(1.91284 0.0896352 0)
(1.91586 0.0881199 0)
(1.91847 0.0868882 0)
(1.92097 0.0869659 0)
(1.92384 0.0859832 0)
(1.92667 0.0842306 0)
(1.92938 0.0838028 0)
(1.93221 0.0834888 0)
(1.93481 0.0824291 0)
(1.93731 0.0822541 0)
(1.93984 0.0826727 0)
(1.9428 0.0815572 0)
(1.9457 0.0797476 0)
(1.94852 0.0792719 0)
(1.95157 0.0786182 0)
(1.95464 0.0768899 0)
(1.95738 0.0760791 0)
(1.96028 0.0762683 0)
(1.9635 0.0751536 0)
(1.96659 0.0729391 0)
(1.96938 0.0721754 0)
(1.97228 0.0716957 0)
(1.97569 0.0696197 0)
(1.97859 0.0676269 0)
(1.98145 0.0670268 0)
(1.98455 0.0661717 0)
(1.98819 0.06361 0)
(1.99128 0.0607788 0)
(1.99419 0.0597133 0)
(1.99723 0.0587809 0)
(2.0009 0.0557215 0)
(2.00374 0.0524377 0)
(2.00632 0.0516357 0)
(2.00912 0.0505593 0)
(2.01316 0.0466807 0)
(2.01585 0.0435129 0)
(2.01818 0.0427172 0)
(2.0216 0.0403688 0)
(2.02484 0.0370042 0)
(2.02693 0.0350302 0)
(2.0294 0.0327889 0)
(2.0319 0.0300666 0)
(2.03375 0.0276467 0)
(2.03521 0.0253582 0)
(2.03558 0.0225591 0)
(2.03533 0.0190633 0)
(2.03601 0.0164975 0)
(2.0346 0.0134453 0)
(2.03334 0.00995961 0)
(2.03323 0.00770789 0)
(2.03009 0.00468302 0)
(2.02814 0.00139893 0)
(2.02745 -0.0024892 0)
(2.02626 -0.00482452 0)
(2.0266 -0.00795784 0)
(2.0277 -0.0117394 0)
(2.02828 -0.0130775 0)
(2.03056 -0.0155526 0)
(2.03388 -0.0198574 0)
(2.03704 -0.0216395 0)
(2.03987 -0.0214506 0)
(2.0435 -0.0241609 0)
(2.04702 -0.0292497 0)
(2.04936 -0.0317707 0)
(2.05154 -0.0318897 0)
(2.05431 -0.0344102 0)
(2.05748 -0.0392873 0)
(2.05918 -0.0422323 0)
(2.06082 -0.042583 0)
(2.06266 -0.0445883 0)
(2.06538 -0.0489166 0)
(2.06663 -0.0518982 0)
(2.06788 -0.0523213 0)
(2.06985 -0.0545048 0)
(2.07228 -0.0584479 0)
(2.07351 -0.0611858 0)
(2.07485 -0.0622454 0)
(2.07635 -0.0638723 0)
(2.07867 -0.0671917 0)
(2.07959 -0.0692466 0)
(2.07864 -0.0717956 0)
(2.07787 -0.0736965 0)
(2.07484 -0.0736854 0)
(2.06652 -0.0722171 0)
(2.05086 -0.0698739 0)
(2.02925 -0.062961 0)
(2.0107 -0.0569657 0)
(2.00049 -0.05547 0)
(1.99745 -0.0534333 0)
(1.99672 -0.0523975 0)
(1.99695 -0.0519476 0)
(1.99728 -0.0520466 0)
(1.99821 -0.0517617 0)
(1.9995 -0.0499889 0)
(1.99956 -0.0458781 0)
(1.99856 -0.0404539 0)
(1.99579 -0.0310955 0)
(1.99289 -0.0198888 0)
(1.98877 -0.00543613 0)
(1.98468 0.00980898 0)
(1.98167 0.0227164 0)
(1.97675 0.0399507 0)
(1.97709 0.0465636 0)
(1.97439 0.0575201 0)
(1.97173 0.0686567 0)
(1.86821 0.113966 0)
(1.86995 0.113808 0)
(1.87241 0.113924 0)
(1.8751 0.113082 0)
(1.87779 0.111634 0)
(1.88078 0.109708 0)
(1.88408 0.107729 0)
(1.88752 0.10549 0)
(1.89094 0.103011 0)
(1.89404 0.101533 0)
(1.89739 0.0992583 0)
(1.90035 0.0972957 0)
(1.90317 0.096196 0)
(1.90643 0.0940969 0)
(1.90916 0.0928741 0)
(1.91163 0.0927939 0)
(1.91465 0.0913165 0)
(1.91742 0.0896407 0)
(1.92 0.0893904 0)
(1.92282 0.0885872 0)
(1.92548 0.0872008 0)
(1.92796 0.0871844 0)
(1.93035 0.0871345 0)
(1.93358 0.0851502 0)
(1.93635 0.0834787 0)
(1.9391 0.0831629 0)
(1.94212 0.0820189 0)
(1.94472 0.0806592 0)
(1.94732 0.0807788 0)
(1.94996 0.0808344 0)
(1.95318 0.0791332 0)
(1.95597 0.0777773 0)
(1.95877 0.0777341 0)
(1.96192 0.0766341 0)
(1.96484 0.0747387 0)
(1.96747 0.074391 0)
(1.97011 0.0741947 0)
(1.97357 0.0722247 0)
(1.97653 0.0703641 0)
(1.97932 0.0697507 0)
(1.98238 0.0687049 0)
(1.98568 0.0667414 0)
(1.98857 0.0648708 0)
(1.99124 0.0641895 0)
(1.99398 0.0634663 0)
(1.99756 0.0609037 0)
(2.00056 0.0580431 0)
(2.00299 0.0573089 0)
(2.00584 0.0558837 0)
(2.00959 0.0523482 0)
(2.01213 0.0503627 0)
(2.01455 0.0494159 0)
(2.01794 0.0469556 0)
(2.02065 0.0446745 0)
(2.023 0.0425443 0)
(2.02567 0.0398202 0)
(2.0278 0.0373986 0)
(2.02964 0.0349686 0)
(2.03095 0.0325413 0)
(2.03097 0.0296488 0)
(2.03084 0.0265956 0)
(2.03125 0.0239485 0)
(2.02971 0.0209235 0)
(2.0288 0.0176659 0)
(2.02829 0.0153062 0)
(2.02483 0.0121554 0)
(2.02307 0.00862813 0)
(2.02256 0.00468914 0)
(2.02132 0.00270022 0)
(2.02213 -0.000614711 0)
(2.02319 -0.00418771 0)
(2.0241 -0.00539997 0)
(2.02676 -0.0081001 0)
(2.03011 -0.0123911 0)
(2.03328 -0.0139443 0)
(2.03611 -0.0138807 0)
(2.03992 -0.0168829 0)
(2.04329 -0.0219085 0)
(2.04563 -0.0240517 0)
(2.04773 -0.024143 0)
(2.05062 -0.0268729 0)
(2.05357 -0.0317011 0)
(2.05521 -0.0342347 0)
(2.05675 -0.0345765 0)
(2.05879 -0.0368648 0)
(2.06148 -0.0411371 0)
(2.06281 -0.0439143 0)
(2.06425 -0.0442387 0)
(2.06624 -0.0463133 0)
(2.06865 -0.0503316 0)
(2.06983 -0.0525391 0)
(2.07141 -0.0535106 0)
(2.07309 -0.055324 0)
(2.07494 -0.0583188 0)
(2.07628 -0.0607085 0)
(2.07645 -0.0621534 0)
(2.07519 -0.0648625 0)
(2.07383 -0.0656925 0)
(2.06922 -0.0655519 0)
(2.05817 -0.0641698 0)
(2.03859 -0.0586821 0)
(2.0177 -0.0513688 0)
(2.00482 -0.0486262 0)
(1.99856 -0.0490814 0)
(1.99741 -0.0494739 0)
(1.99665 -0.0493756 0)
(1.99708 -0.0505834 0)
(1.99804 -0.0522112 0)
(1.9999 -0.0517869 0)
(2.00161 -0.0513855 0)
(2.00386 -0.0537728 0)
(2.00463 -0.0544573 0)
(2.00528 -0.0528975 0)
(2.00514 -0.0494865 0)
(2.00401 -0.0446894 0)
(2.00196 -0.0371066 0)
(1.99956 -0.0271583 0)
(1.99619 -0.0142261 0)
(1.99355 -0.00290135 0)
(1.98929 0.0121978 0)
(1.87071 0.111878 0)
(1.87214 0.111557 0)
(1.87353 0.112562 0)
(1.87478 0.114801 0)
(1.87647 0.115197 0)
(1.87885 0.114925 0)
(1.88177 0.11373 0)
(1.88494 0.111745 0)
(1.88805 0.109613 0)
(1.89128 0.107576 0)
(1.89458 0.105532 0)
(1.89755 0.103875 0)
(1.90062 0.102209 0)
(1.90406 0.0998083 0)
(1.90697 0.0984047 0)
(1.90977 0.0975272 0)
(1.91306 0.0954507 0)
(1.91585 0.0936738 0)
(1.9183 0.0932212 0)
(1.92129 0.0918897 0)
(1.92446 0.0895782 0)
(1.92714 0.0886841 0)
(1.92989 0.0881267 0)
(1.9328 0.0865102 0)
(1.93526 0.0857415 0)
(1.93758 0.0863577 0)
(1.9402 0.0856862 0)
(1.94333 0.0834217 0)
(1.94598 0.0826581 0)
(1.94878 0.0820778 0)
(1.95203 0.0801322 0)
(1.9547 0.0790041 0)
(1.95732 0.0792998 0)
(1.96038 0.0783016 0)
(1.96335 0.0762464 0)
(1.96592 0.0758764 0)
(1.96863 0.075375 0)
(1.97192 0.073283 0)
(1.97459 0.072186 0)
(1.97713 0.0722736 0)
(1.98019 0.071158 0)
(1.98341 0.0691448 0)
(1.98627 0.0677099 0)
(1.98884 0.0670186 0)
(1.9917 0.0655406 0)
(1.99501 0.0629471 0)
(1.99778 0.0613329 0)
(1.99998 0.0612571 0)
(2.00297 0.0596063 0)
(2.00634 0.0564817 0)
(2.00882 0.0553453 0)
(2.01149 0.0541683 0)
(2.01477 0.0515463 0)
(2.01716 0.0497162 0)
(2.01961 0.047726 0)
(2.022 0.0455002 0)
(2.02372 0.0436212 0)
(2.02563 0.0412904 0)
(2.02665 0.038965 0)
(2.02642 0.0359712 0)
(2.0267 0.0334614 0)
(2.02647 0.0306942 0)
(2.02489 0.0273676 0)
(2.02442 0.0249555 0)
(2.02294 0.0226017 0)
(2.01934 0.019495 0)
(2.01783 0.015959 0)
(2.01747 0.0123491 0)
(2.01636 0.0105095 0)
(2.01762 0.00695858 0)
(2.01872 0.00366688 0)
(2.01989 0.00257316 0)
(2.02283 -0.000300432 0)
(2.02613 -0.00450458 0)
(2.02929 -0.00577236 0)
(2.03211 -0.00568899 0)
(2.036 -0.00872965 0)
(2.03925 -0.0135548 0)
(2.04162 -0.0153487 0)
(2.04371 -0.0155513 0)
(2.04686 -0.0186639 0)
(2.04964 -0.023615 0)
(2.05122 -0.0257879 0)
(2.05259 -0.0261871 0)
(2.055 -0.0289343 0)
(2.0575 -0.0333766 0)
(2.05883 -0.0357565 0)
(2.06028 -0.0359105 0)
(2.06229 -0.0379998 0)
(2.0648 -0.0423851 0)
(2.06597 -0.04471 0)
(2.06737 -0.04509 0)
(2.06956 -0.0475939 0)
(2.07109 -0.0505059 0)
(2.07249 -0.0532602 0)
(2.07359 -0.0548368 0)
(2.0728 -0.0568029 0)
(2.07173 -0.0591776 0)
(2.06924 -0.0595184 0)
(2.06263 -0.0593553 0)
(2.04839 -0.0564693 0)
(2.02675 -0.0471816 0)
(2.00953 -0.0427407 0)
(1.99812 -0.0429361 0)
(1.9959 -0.0438987 0)
(1.99492 -0.04454 0)
(1.99517 -0.0465153 0)
(1.99621 -0.0498789 0)
(1.99776 -0.0498513 0)
(1.99949 -0.0499993 0)
(2.0022 -0.0535674 0)
(2.00364 -0.055799 0)
(2.00522 -0.0553261 0)
(2.00673 -0.0558973 0)
(2.00826 -0.0585713 0)
(2.00888 -0.0591283 0)
(2.00974 -0.0573535 0)
(2.00957 -0.0552716 0)
(2.00916 -0.0518106 0)
(2.00835 -0.0458307 0)
(1.87884 0.10293 0)
(1.87534 0.108275 0)
(1.87418 0.114413 0)
(1.87554 0.116311 0)
(1.87714 0.115814 0)
(1.87896 0.115327 0)
(1.88094 0.114664 0)
(1.8831 0.114463 0)
(1.88561 0.11424 0)
(1.88848 0.113717 0)
(1.89165 0.112581 0)
(1.89504 0.110632 0)
(1.89842 0.108411 0)
(1.90176 0.106115 0)
(1.90478 0.104234 0)
(1.90769 0.102835 0)
(1.91075 0.101018 0)
(1.91358 0.099163 0)
(1.91638 0.0977122 0)
(1.91953 0.0959586 0)
(1.92257 0.094047 0)
(1.92522 0.0933196 0)
(1.92791 0.0926848 0)
(1.93122 0.0904116 0)
(1.93396 0.0886434 0)
(1.93652 0.088248 0)
(1.93963 0.0867029 0)
(1.94237 0.0847569 0)
(1.94481 0.084796 0)
(1.94721 0.0848563 0)
(1.95051 0.0827764 0)
(1.95319 0.0812704 0)
(1.95575 0.0812293 0)
(1.95898 0.0798208 0)
(1.96182 0.0778684 0)
(1.96432 0.077774 0)
(1.96688 0.0774424 0)
(1.97018 0.075262 0)
(1.97279 0.0739052 0)
(1.97533 0.0736306 0)
(1.97856 0.0720586 0)
(1.9815 0.0697779 0)
(1.98405 0.0691491 0)
(1.98645 0.0692248 0)
(1.98954 0.0675522 0)
(1.99251 0.06486 0)
(1.99506 0.0639655 0)
(1.99739 0.0638089 0)
(2.00077 0.0616178 0)
(2.00366 0.0585471 0)
(2.006 0.05787 0)
(2.00868 0.0570208 0)
(2.01176 0.054727 0)
(2.01396 0.0532067 0)
(2.01644 0.0514052 0)
(2.01876 0.0494168 0)
(2.0205 0.0473933 0)
(2.02229 0.0451042 0)
(2.02278 0.0428628 0)
(2.02244 0.0399945 0)
(2.02285 0.0381268 0)
(2.02175 0.0355927 0)
(2.02052 0.0323167 0)
(2.01978 0.0307688 0)
(2.01754 0.0282103 0)
(2.0141 0.0250366 0)
(2.0129 0.0214173 0)
(2.01263 0.0181066 0)
(2.01175 0.0164034 0)
(2.01323 0.0128464 0)
(2.01436 0.00999819 0)
(2.01572 0.00911283 0)
(2.01882 0.00620159 0)
(2.02207 0.00205784 0)
(2.02519 0.000977719 0)
(2.02803 0.000958248 0)
(2.03207 -0.00224656 0)
(2.03523 -0.00694578 0)
(2.03763 -0.00846765 0)
(2.0397 -0.00879519 0)
(2.04302 -0.0121924 0)
(2.04552 -0.0170326 0)
(2.04702 -0.0187286 0)
(2.04825 -0.0192972 0)
(2.05102 -0.022483 0)
(2.05329 -0.0270531 0)
(2.05468 -0.029071 0)
(2.05607 -0.0292364 0)
(2.05832 -0.0316883 0)
(2.06089 -0.036436 0)
(2.06214 -0.0390473 0)
(2.06335 -0.0391226 0)
(2.06547 -0.0417128 0)
(2.06718 -0.0453957 0)
(2.06824 -0.0474178 0)
(2.06989 -0.0497499 0)
(2.07055 -0.0513182 0)
(2.06899 -0.0540284 0)
(2.06789 -0.0556881 0)
(2.0642 -0.0558685 0)
(2.0554 -0.0553832 0)
(2.03809 -0.0498488 0)
(2.01693 -0.0404929 0)
(2.00163 -0.0381251 0)
(1.99365 -0.0382373 0)
(1.99245 -0.0391351 0)
(1.9919 -0.0407935 0)
(1.9927 -0.0442329 0)
(1.99402 -0.0456372 0)
(1.99591 -0.0465081 0)
(1.99914 -0.0510969 0)
(2.00095 -0.0543084 0)
(2.00257 -0.0537325 0)
(2.00441 -0.0547861 0)
(2.00635 -0.0583876 0)
(2.00754 -0.0594506 0)
(2.00885 -0.0590582 0)
(2.0108 -0.0609129 0)
(2.0123 -0.0630816 0)
(2.01355 -0.0629377 0)
(1.89273 0.0850505 0)
(1.88654 0.091024 0)
(1.88295 0.100426 0)
(1.8825 0.106577 0)
(1.88263 0.111749 0)
(1.88187 0.113502 0)
(1.88185 0.113829 0)
(1.88348 0.113929 0)
(1.88598 0.114703 0)
(1.88795 0.115261 0)
(1.89015 0.115312 0)
(1.89278 0.114767 0)
(1.89568 0.113784 0)
(1.89869 0.11252 0)
(1.90168 0.111039 0)
(1.90467 0.109451 0)
(1.90782 0.107535 0)
(1.91107 0.105176 0)
(1.9141 0.103312 0)
(1.91721 0.101531 0)
(1.92039 0.0994169 0)
(1.92335 0.0978205 0)
(1.92628 0.0965322 0)
(1.92946 0.0946032 0)
(1.9323 0.0927637 0)
(1.93479 0.0924015 0)
(1.93758 0.0914061 0)
(1.94075 0.0888792 0)
(1.94327 0.0878999 0)
(1.94596 0.0871078 0)
(1.94924 0.08471 0)
(1.95178 0.0833907 0)
(1.95424 0.083593 0)
(1.95742 0.0822665 0)
(1.96029 0.0802155 0)
(1.96269 0.0799224 0)
(1.96545 0.0790368 0)
(1.96862 0.0767621 0)
(1.9711 0.0755175 0)
(1.97356 0.075366 0)
(1.97631 0.0745081 0)
(1.97931 0.0724156 0)
(1.98185 0.0709209 0)
(1.98447 0.0703601 0)
(1.98748 0.0687911 0)
(1.99034 0.0661185 0)
(1.99268 0.0649782 0)
(1.9952 0.065108 0)
(1.99824 0.063623 0)
(2.00105 0.0608204 0)
(2.00326 0.0600215 0)
(2.00587 0.0591955 0)
(2.00896 0.056932 0)
(2.01132 0.0548693 0)
(2.01374 0.0528467 0)
(2.01582 0.051333 0)
(2.01754 0.0497514 0)
(2.01897 0.0479044 0)
(2.01904 0.0456813 0)
(2.01885 0.0432313 0)
(2.01906 0.041118 0)
(2.01759 0.0383911 0)
(2.01665 0.0355059 0)
(2.01525 0.034024 0)
(2.01271 0.0313683 0)
(2.00934 0.0283209 0)
(2.00826 0.0249238 0)
(2.00802 0.0220075 0)
(2.00735 0.0204613 0)
(2.00894 0.0170247 0)
(2.01025 0.0144669 0)
(2.01183 0.013667 0)
(2.01508 0.0106642 0)
(2.01831 0.00643848 0)
(2.02134 0.00536016 0)
(2.02416 0.0052152 0)
(2.02817 0.00194718 0)
(2.03111 -0.00239209 0)
(2.03349 -0.00348826 0)
(2.03555 -0.00388338 0)
(2.03903 -0.00752612 0)
(2.04136 -0.0122308 0)
(2.04284 -0.0135721 0)
(2.04412 -0.0145761 0)
(2.04721 -0.0183882 0)
(2.04914 -0.0230185 0)
(2.05054 -0.0244169 0)
(2.05185 -0.024798 0)
(2.05451 -0.0278685 0)
(2.05676 -0.0324663 0)
(2.05807 -0.0347681 0)
(2.05921 -0.0347051 0)
(2.06092 -0.0369459 0)
(2.06301 -0.041452 0)
(2.06401 -0.0433547 0)
(2.06552 -0.0452651 0)
(2.06709 -0.0476582 0)
(2.06683 -0.0495797 0)
(2.06534 -0.0526035 0)
(2.06364 -0.0534824 0)
(2.05849 -0.0533471 0)
(2.04731 -0.0514646 0)
(2.02803 -0.0435435 0)
(2.00855 -0.0363013 0)
(1.99518 -0.0341336 0)
(1.99009 -0.0343368 0)
(1.98906 -0.035523 0)
(1.98893 -0.0378032 0)
(1.98962 -0.0393833 0)
(1.99149 -0.0410847 0)
(1.99477 -0.0457035 0)
(1.99721 -0.0500536 0)
(1.99921 -0.0505162 0)
(2.0011 -0.0516566 0)
(2.00349 -0.0560626 0)
(2.00492 -0.0580759 0)
(2.00629 -0.0574667 0)
(2.0084 -0.0595355 0)
(2.01007 -0.0625624 0)
(2.01151 -0.0625872 0)
(1.91967 0.0495293 0)
(1.90788 0.0647528 0)
(1.89436 0.0887995 0)
(1.89025 0.0969655 0)
(1.88687 0.105748 0)
(1.88603 0.106985 0)
(1.88644 0.107578 0)
(1.88703 0.108984 0)
(1.88862 0.111912 0)
(1.88923 0.114422 0)
(1.89063 0.114964 0)
(1.89285 0.114641 0)
(1.89517 0.114516 0)
(1.89747 0.114335 0)
(1.89983 0.114114 0)
(1.9024 0.113688 0)
(1.90519 0.112816 0)
(1.90814 0.111386 0)
(1.91107 0.109774 0)
(1.91413 0.107981 0)
(1.91731 0.10597 0)
(1.92019 0.104612 0)
(1.92356 0.10255 0)
(1.92701 0.100066 0)
(1.92989 0.0984955 0)
(1.93285 0.096822 0)
(1.93604 0.094801 0)
(1.93898 0.0928345 0)
(1.94144 0.0919519 0)
(1.94397 0.0913307 0)
(1.94727 0.089 0)
(1.94996 0.0870555 0)
(1.95242 0.0867051 0)
(1.95572 0.085103 0)
(1.95866 0.0830523 0)
(1.96089 0.0827121 0)
(1.96384 0.081317 0)
(1.96684 0.0791938 0)
(1.96901 0.0786345 0)
(1.97169 0.0772841 0)
(1.97467 0.0755594 0)
(1.97738 0.0742215 0)
(1.97998 0.072572 0)
(1.98249 0.0718841 0)
(1.98495 0.0714113 0)
(1.98793 0.0690786 0)
(1.99035 0.0669334 0)
(1.9928 0.0665943 0)
(1.9958 0.0651376 0)
(1.9987 0.062329 0)
(2.00082 0.0613068 0)
(2.00348 0.0603538 0)
(2.00624 0.0585791 0)
(2.00838 0.0569749 0)
(2.01066 0.0551895 0)
(2.01271 0.0535506 0)
(2.01469 0.0515854 0)
(2.01592 0.0495582 0)
(2.01567 0.0469623 0)
(2.01583 0.045 0)
(2.01535 0.0428024 0)
(2.01377 0.0402594 0)
(2.01273 0.038181 0)
(2.01061 0.0365042 0)
(2.008 0.0337561 0)
(2.00466 0.0309489 0)
(2.00389 0.0276625 0)
(2.00374 0.0248057 0)
(2.00327 0.0230359 0)
(2.00491 0.0195419 0)
(2.00636 0.0173885 0)
(2.0081 0.0168215 0)
(2.01139 0.0139208 0)
(2.01452 0.00978734 0)
(2.01741 0.00878012 0)
(2.02011 0.00853286 0)
(2.02412 0.00512402 0)
(2.02702 0.000897783 0)
(2.02943 5.86164e-07 0)
(2.03162 -0.000753187 0)
(2.0352 -0.00472609 0)
(2.03724 -0.00900386 0)
(2.0387 -0.00992354 0)
(2.04007 -0.0110679 0)
(2.04307 -0.0150408 0)
(2.0447 -0.019287 0)
(2.04604 -0.0202143 0)
(2.04731 -0.0209326 0)
(2.05035 -0.0246284 0)
(2.05239 -0.0291131 0)
(2.05386 -0.0308918 0)
(2.05507 -0.0312545 0)
(2.05706 -0.0340056 0)
(2.05919 -0.0387711 0)
(2.06017 -0.0407708 0)
(2.06128 -0.0416556 0)
(2.06326 -0.0446936 0)
(2.06401 -0.0465975 0)
(2.06305 -0.0491975 0)
(2.06212 -0.0512416 0)
(2.05914 -0.0515414 0)
(2.0524 -0.0505137 0)
(2.03915 -0.0473222 0)
(2.0192 -0.0388723 0)
(2.0019 -0.0328836 0)
(1.99028 -0.0300627 0)
(1.98674 -0.0305018 0)
(1.98601 -0.0318709 0)
(1.98594 -0.0330789 0)
(1.98701 -0.0343911 0)
(1.99004 -0.0388317 0)
(1.99249 -0.0425404 0)
(1.9946 -0.0433885 0)
(1.99754 -0.0464175 0)
(2.00003 -0.0509276 0)
(2.00156 -0.0529618 0)
(2.00274 -0.0528321 0)
(2.00477 -0.0552328 0)
(2.00701 -0.0600557 0)
(2.00896 -0.0613236 0)
(1.9402 0.0244293 0)
(1.93316 0.0336909 0)
(1.92059 0.052999 0)
(1.91335 0.0650536 0)
(1.90455 0.0787048 0)
(1.89525 0.0953532 0)
(1.89286 0.0997205 0)
(1.88902 0.107564 0)
(1.88826 0.112749 0)
(1.89017 0.113002 0)
(1.89269 0.112495 0)
(1.89421 0.112624 0)
(1.89572 0.113208 0)
(1.89756 0.113939 0)
(1.89963 0.114334 0)
(1.90196 0.114654 0)
(1.90428 0.114728 0)
(1.90666 0.114245 0)
(1.90913 0.113479 0)
(1.91171 0.112569 0)
(1.91446 0.111481 0)
(1.91732 0.110273 0)
(1.92045 0.108691 0)
(1.92367 0.10675 0)
(1.92671 0.105046 0)
(1.92998 0.102917 0)
(1.9331 0.100842 0)
(1.9359 0.0992638 0)
(1.93901 0.0970459 0)
(1.94205 0.0949939 0)
(1.94507 0.0932561 0)
(1.94776 0.091861 0)
(1.95039 0.0907201 0)
(1.95368 0.088731 0)
(1.95639 0.0873543 0)
(1.95875 0.0862936 0)
(1.962 0.0838978 0)
(1.96476 0.082204 0)
(1.96688 0.081931 0)
(1.96983 0.0800421 0)
(1.97262 0.0779881 0)
(1.97479 0.0776891 0)
(1.9775 0.0761032 0)
(1.98043 0.0737941 0)
(1.98299 0.0729451 0)
(1.98576 0.0712546 0)
(1.98822 0.068976 0)
(1.9905 0.0684716 0)
(1.9931 0.0676402 0)
(1.99601 0.0652077 0)
(1.99822 0.0634505 0)
(2.00074 0.0621824 0)
(2.00326 0.060755 0)
(2.00575 0.0585961 0)
(2.00815 0.0560959 0)
(2.00999 0.0545948 0)
(2.01165 0.0533918 0)
(2.01254 0.0517701 0)
(2.01219 0.0492132 0)
(2.01249 0.0474117 0)
(2.01135 0.0450593 0)
(2.01006 0.0424693 0)
(2.00877 0.0402394 0)
(2.00633 0.0381518 0)
(2.00344 0.0350761 0)
(2.00041 0.0326631 0)
(1.99994 0.0297324 0)
(1.99964 0.0272388 0)
(1.99926 0.0254863 0)
(2.00088 0.0220473 0)
(2.00249 0.020075 0)
(2.00436 0.0196107 0)
(2.00778 0.0166534 0)
(2.01097 0.0124349 0)
(2.01374 0.0113812 0)
(2.01645 0.0107505 0)
(2.02039 0.00709834 0)
(2.02304 0.00328213 0)
(2.02542 0.00276071 0)
(2.02757 0.00206216 0)
(2.03105 -0.00192433 0)
(2.03295 -0.00581521 0)
(2.03438 -0.00647708 0)
(2.03604 -0.00814089 0)
(2.03912 -0.0125506 0)
(2.04063 -0.0163851 0)
(2.04197 -0.0170407 0)
(2.04349 -0.0183341 0)
(2.04654 -0.0224587 0)
(2.04819 -0.0264946 0)
(2.04959 -0.0272192 0)
(2.05081 -0.0277463 0)
(2.0531 -0.0309471 0)
(2.05493 -0.035077 0)
(2.05608 -0.037361 0)
(2.05691 -0.0377822 0)
(2.05863 -0.0404376 0)
(2.06028 -0.0436532 0)
(2.06066 -0.0454298 0)
(2.05979 -0.0483999 0)
(2.05844 -0.0490829 0)
(2.05424 -0.0487988 0)
(2.04624 -0.0471201 0)
(2.03181 -0.0434347 0)
(2.01174 -0.0338388 0)
(1.99612 -0.0280184 0)
(1.9865 -0.0257099 0)
(1.98408 -0.0263401 0)
(1.98359 -0.0272394 0)
(1.98389 -0.0281307 0)
(1.98578 -0.0310218 0)
(1.98798 -0.0346148 0)
(1.99016 -0.0355341 0)
(1.99285 -0.0377499 0)
(1.99562 -0.0423822 0)
(1.99736 -0.0442097 0)
(1.99894 -0.0451509 0)
(2.00164 -0.0487769 0)
(2.00367 -0.052642 0)
(2.00543 -0.0537727 0)
(1.94864 0.0153935 0)
(1.94719 0.018102 0)
(1.94256 0.02494 0)
(1.93607 0.0354691 0)
(1.92858 0.0462279 0)
(1.91579 0.0669454 0)
(1.91009 0.0757894 0)
(1.90314 0.0868383 0)
(1.89734 0.0990659 0)
(1.89694 0.102721 0)
(1.89601 0.107695 0)
(1.89508 0.112532 0)
(1.89588 0.114136 0)
(1.89758 0.114028 0)
(1.89988 0.113843 0)
(1.90209 0.114041 0)
(1.90433 0.114111 0)
(1.90634 0.114214 0)
(1.90839 0.114258 0)
(1.91065 0.114432 0)
(1.91302 0.114395 0)
(1.91553 0.113979 0)
(1.91819 0.113178 0)
(1.92098 0.111987 0)
(1.92387 0.110484 0)
(1.92677 0.10901 0)
(1.9299 0.106961 0)
(1.93292 0.104953 0)
(1.93568 0.103548 0)
(1.93893 0.101184 0)
(1.94198 0.0990906 0)
(1.94477 0.0976319 0)
(1.94808 0.0952583 0)
(1.9511 0.0932392 0)
(1.9536 0.0921764 0)
(1.95651 0.0904289 0)
(1.95972 0.0878582 0)
(1.96222 0.0864116 0)
(1.96456 0.0857105 0)
(1.96768 0.083593 0)
(1.97031 0.0815262 0)
(1.97248 0.0808502 0)
(1.97535 0.0790016 0)
(1.97807 0.0767121 0)
(1.98029 0.076219 0)
(1.98277 0.0750827 0)
(1.98584 0.072294 0)
(1.98815 0.0708103 0)
(1.99067 0.0697537 0)
(1.99341 0.0677981 0)
(1.99563 0.0660158 0)
(1.99816 0.0639675 0)
(2.00058 0.0625124 0)
(2.00267 0.0614078 0)
(2.00492 0.0593564 0)
(2.00677 0.0574797 0)
(2.00847 0.0557838 0)
(2.0092 0.0537225 0)
(2.00897 0.0510943 0)
(2.00927 0.0489951 0)
(2.00777 0.0468457 0)
(2.00672 0.0447532 0)
(2.00479 0.0425804 0)
(2.00198 0.0405948 0)
(1.99847 0.037467 0)
(1.99606 0.0353517 0)
(1.99588 0.0325312 0)
(1.99556 0.0300924 0)
(1.99543 0.0279944 0)
(1.99713 0.0243041 0)
(1.99883 0.0224746 0)
(2.00084 0.0220679 0)
(2.00429 0.0191489 0)
(2.00729 0.0152761 0)
(2.00993 0.0144866 0)
(2.01245 0.0138907 0)
(2.01633 0.0101024 0)
(2.01897 0.00626303 0)
(2.02133 0.00571481 0)
(2.0237 0.00449175 0)
(2.02713 0.00032032 0)
(2.02891 -0.00319631 0)
(2.0304 -0.00364502 0)
(2.03214 -0.00518931 0)
(2.03486 -0.00947295 0)
(2.03616 -0.0125398 0)
(2.03738 -0.0129025 0)
(2.03917 -0.014679 0)
(2.04221 -0.0190122 0)
(2.0439 -0.0228009 0)
(2.04533 -0.0234058 0)
(2.04678 -0.024657 0)
(2.04967 -0.0287676 0)
(2.05116 -0.0322287 0)
(2.05245 -0.0336284 0)
(2.05351 -0.0344944 0)
(2.05481 -0.0367503 0)
(2.05654 -0.0403736 0)
(2.05748 -0.0418794 0)
(2.05741 -0.0440278 0)
(2.05686 -0.046202 0)
(2.05463 -0.0461673 0)
(2.04962 -0.0455068 0)
(2.04075 -0.0439172 0)
(2.02512 -0.0382869 0)
(2.00543 -0.0277776 0)
(1.99132 -0.022826 0)
(1.98381 -0.0212751 0)
(1.9824 -0.0217044 0)
(1.98212 -0.0221995 0)
(1.98293 -0.0238908 0)
(1.98422 -0.0262522 0)
(1.98584 -0.0267923 0)
(1.98832 -0.0286059 0)
(1.99126 -0.0328674 0)
(1.99336 -0.034854 0)
(1.99521 -0.035625 0)
(1.99796 -0.0389065 0)
(2.00018 -0.0427799 0)
(2.00202 -0.0439662 0)
(1.95053 0.0155449 0)
(1.9508 0.0158765 0)
(1.95028 0.0174411 0)
(1.94883 0.0206853 0)
(1.94588 0.0253793 0)
(1.93914 0.0354425 0)
(1.93267 0.0460188 0)
(1.9243 0.0585318 0)
(1.9131 0.0783454 0)
(1.90951 0.0850209 0)
(1.90398 0.0946061 0)
(1.90105 0.102401 0)
(1.90098 0.103938 0)
(1.90285 0.107122 0)
(1.90367 0.11028 0)
(1.90345 0.112843 0)
(1.90436 0.113809 0)
(1.90617 0.113578 0)
(1.90828 0.113562 0)
(1.91077 0.113765 0)
(1.91303 0.113981 0)
(1.91513 0.11406 0)
(1.91729 0.114033 0)
(1.91957 0.113913 0)
(1.92189 0.113629 0)
(1.9244 0.112969 0)
(1.9271 0.111965 0)
(1.92989 0.110719 0)
(1.9328 0.109058 0)
(1.93572 0.107202 0)
(1.93861 0.105337 0)
(1.94175 0.10314 0)
(1.94476 0.101244 0)
(1.94751 0.0996454 0)
(1.9508 0.0970809 0)
(1.9539 0.0948627 0)
(1.95651 0.0936951 0)
(1.95927 0.0917657 0)
(1.96209 0.0898392 0)
(1.96499 0.0879358 0)