/*--------------------------------*- C++ -*----------------------------------*\
  =========                 |
  \\      /  F ield         | OpenFOAM: The Open Source CFD Toolbox
   \\    /   O peration     | Website:  https://openfoam.org
    \\  /    A nd           | Version:  7
     \\/     M anipulation  |
\*---------------------------------------------------------------------------*/
FoamFile
{
    version     2.0;
    format      ascii;
    class       volScalarField;
    location    "1.061";
    object      T;
}
// * * * * * * * * * * * * * * * * * * * * * * * * * * * * * * * * * * * * * //

dimensions      [0 2 -2 0 0 0 0];

internalField   nonuniform List<scalar> 
12359
(
-1.62471e-74
-4.04109e-61
-6.8124e-201
-7.87702e-41
2.88769e-69
-2.0858e-27
1.40044e-22
-1.37839e-24
5.41437e-17
3.86788e-30
2.12875e-19
-7.47566e-13
0.27297
-1.21303e-37
-7.07921e-43
1.48919e-05
0.0027562
2.82555e-110
-7.92202e-114
6.81766e-52
-6.23637e-35
1.09336e-14
4.73576e-56
5.63822e-48
1.22932e-58
-2.32128e-53
-1.88283e-145
4.65296e-148
2.41695e-118
-3.84491e-137
1.70681e-133
2.58185e-162
4.3029e-179
5.72128e-140
-7.47455e-191
-2.66359e-129
8.7858e-90
-6.31852e-77
-3.00312e-72
4.80852e-82
-7.69093e-64
-1.9096e-79
-1.55045e-97
-1.28623e-99
-4.5283e-124
-2.03651e-121
1.7584e-126
1.11477e-134
-9.09198e-116
-3.82482e-144
-4.91622e-151
1.82475e-156
1.37211e-165
-1.34456e-107
2.50123e-170
2.80014e-176
3.25034e-102
-1.73668e-181
3.09712e-184
-2.24832e-187
-3.39086e-173
-2.37103e-195
-2.17685e-154
10.1165
1.34377e-106
-1.4199e-33
-2.28311e-92
-3.82717e-159
-4.65669e-88
2.45319e-08
111.937
2.42607e-66
-1.47375e-203
-9.0167e-85
1.13129e-45
8.86173e-193
-1.40869e-167
5.50185e-198
6.982e-95
-1.82929e-10
-1.57173e-26
-1.8536e-113
4.04092e-246
-7.74673e-73
0.0019324
2.66093e-67
-9.58146e-112
1.66627e-158
1.10283
0.000629029
1.63268e-216
3.02028
2.32297e-218
-3.12447e-95
-2.52801e-76
4.58291e-45
-3.54891e-99
1.80213e-95
1.2976e-47
1.5406e-60
3.83345e-22
-1.38902e-214
7.04989e-68
31.0031
-2.65318e-120
4.94912e-26
1.63136e-210
0.00251791
8.85653e-76
4.67112e-27
-2.49496e-101
-3.20709e-113
-1.48757e-30
1.45002e-25
-5.66957e-77
-4.33394e-142
1.14739e-24
-1.53999e-112
3.76571
-3.06905e-244
-2.41788e-102
2.77584e-22
4.06178e-157
1.41262e-31
-1.25676e-111
-1.16459e-132
4.24808e-16
-3.97024e-72
-1.48121e-199
-1.58446e-112
1.16132e-141
2.92199e-05
0.000833459
0.000593785
-1.49577e-212
3.05975e-32
-1.71567e-141
2.12055e-33
1.45293e-210
6.07993e-17
-9.53327e-235
-1.0934e-72
3.01112e-34
-7.53613e-211
4.15626e-17
3.50927e-27
-8.44957e-246
0.00080097
-1.10572e-119
3.89379e-26
2.12866e-42
1.55753e-211
1.17946e-33
1.86023e-155
-8.38366e-223
119.026
7.41119e-23
2.88471e-05
-4.56887e-100
-4.76856e-163
2.01378e-32
-5.23278e-161
3.07944e-31
3.26362e-33
-3.01817e-233
-4.8894e-134
4.29262e-33
4.71826e-23
6.58034e-35
0.99138
7.94252e-197
3.0112e-194
1.02128e-35
4.32136e-60
-8.43249e-122
2.48322e-17
2.56143e-120
1.19241e-121
-2.46389e-30
3.11287e-18
-5.80698e-37
8.00706e-221
-1.49567e-198
-1.1687e-112
7.92545e-49
1.48859e-15
-1.27442e-94
-8.36237e-80
9.22968e-42
-4.05015e-94
-1.77068e-78
2.62914e-46
4.78049e-48
2.56199e-154
2.04007e-26
42.6159
5.67091e-57
-3.13978e-94
9.57424e-34
-1.37346e-111
5.46764e-26
3.88954e-42
-1.35797e-60
4.00399e-27
5.92933e-20
1.23231e-220
5.58931e-19
-4.25613e-61
9.22635e-27
-1.39155e-102
2.45966e-228
1.41796e-12
2.28349e-12
154.278
4.31847e-15
6.11174e-207
-2.13362e-94
-4.00003e-78
-6.99033e-94
8.30303e-72
6.55993e-26
-1.20016e-103
2.16312e-32
3.14249
-1.27859e-112
7.70803e-228
1.16893e-70
4.1258e-77
1.05335e-18
-4.30629e-92
-2.24375e-91
-9.04192e-235
2.08501e-17
2.43631e-55
-4.32849e-80
1.5574e-56
-7.17905e-242
8.57336e-32
-7.6203e-79
0.00010229
-3.16727e-225
2.60122e-64
-8.98971e-87
6.14951e-10
1.09666e-30
0.00118799
1.78449e-185
1.42261e-27
2.75794e-127
2.72774e-48
1.10332e-17
3.6666e-80
2.1808e-124
-1.56659e-91
1.36855
125.329
-1.72368e-241
-6.53879e-107
1.49855
192.445
1.53898e-59
4.18019e-31
1.67705e-20
6.38731e-27
5.46815e-62
58.1382
3.7802
2.36535e-29
-3.14042e-108
1.97345e-32
4.68149e-35
1.3125e-48
3.29329e-34
-6.00032e-93
-1.04082e-104
7.35917e-228
-5.57872e-106
9.59707
4.06532e-29
1.08005e-194
7.66385e-212
1.22995e-26
4.73108e-106
5.42212e-93
1.34426e-65
1.76724e-237
1.16695e-20
-5.0503e-214
-3.83849e-213
6.64373e-164
4.82549e-32
-3.60456e-115
51.5756
1.41628e-212
6.13359e-210
5.60214e-67
-8.79649e-128
9.22535e-27
-5.81384e-81
4.17284e-154
4.322e-216
8.67458
1.11443e-19
3.7657e-217
-1.16338e-93
-3.1652e-82
-6.33604e-126
-1.88462e-140
1.68478e-143
-9.19223e-124
-4.94984e-112
-8.26111e-16
-1.96399e-126
-2.43482e-132
2.48791e-78
3.97101e-32
1.83579
7.31258e-124
-9.0354e-52
5.72599e-06
1.5519e-212
1.33846e-41
-1.20059e-192
3.57363e-56
-2.24976e-209
3.74188e-122
8.75031e-16
1.62056e-38
3.5185e-16
2.54389e-94
-7.38246e-87
4.62588e-48
7.34513e-44
-8.38693e-86
2.36202e-48
1.72083e-48
3.54112e-176
-1.58259e-168
-5.7745e-169
-2.68516e-168
-9.70879e-168
0.000419781
-1.05087e-236
8.35729e-25
1.33584e-32
4.97907e-51
2.52483e-32
6.00276e-38
2.065e-67
3.34398e-58
5.38188e-38
5.50719e-59
1.36478e-51
1.36177e-29
6.51237e-29
6.24439e-30
-9.64814e-72
2.47424e-14
-2.66395e-74
2.34856e-74
3.07555e-34
8.13627e-20
-3.61117e-117
-3.25716e-169
1.4722e-56
-6.82925e-171
-1.83776e-113
172.185
18.933
-1.43849e-114
-2.64382e-208
-1.23568e-213
-2.76294e-222
1.45922e-38
-3.87578e-221
1.01131e-222
1.37809
1.77714e-33
0.000478457
-1.11105e-116
2.02136e-28
1.64181e-107
-1.24029e-85
5.36982e-26
2.81919e-57
-2.4833e-38
1.36069e-58
1.10589e-116
1.36188e-193
7.25364e-34
2.5371e-28
7.22184e-115
1.82903e-11
3.16349e-26
6.75259e-45
1.24224e-40
2.39946e-34
-5.48315e-207
10.2871
1.48738e-13
-1.72649e-115
2.01128e-10
1.32814e-75
-6.97058e-233
3.39137e-233
-8.69347e-224
0.000896299
1.09513e-20
1.06338e-49
2.40826e-42
6.05155e-43
-5.83436e-75
-4.59552e-37
6.33908e-42
5.23972e-09
1.79795
4.41693e-11
1.43519e-50
6.64846e-31
2.32646e-74
4.31504e-27
2.5492e-62
3.13575e-55
-1.07728e-140
1.01351e-63
3.56474e-36
-5.30818e-220
182.635
2.17078e-91
1.62929
3.63256e-29
-1.96929e-102
7.63334e-29
1.03417
3.15947e-36
1.0274e-56
4.56125e-45
3.92171e-28
2.62966e-26
-3.57012e-109
-6.39447e-228
2.03744e-23
5.62657e-208
1.21949e-05
2.22515e-140
-1.42896e-53
3.71203e-34
6.90097e-90
0.0103434
4.98146e-24
-1.28694e-62
-2.21717e-109
5.05706e-05
3.45359e-181
-7.69921e-120
1.56715e-14
-6.11261e-207
-2.77911e-109
-1.03072e-120
1.29202e-07
19.0156
-3.81832e-74
3.88161e-163
-5.17005e-32
3.44188e-35
9.40959e-42
2.34432e-32
1.123e-34
7.84462e-175
-8.71655e-224
8.37318e-39
2.12943e-214
3.41387e-35
2.98695e-42
1.47548e-27
3.70934e-123
1.80593e-24
4.50957e-13
2.12799e-139
-2.36891e-75
6.0052e-114
-1.40546e-28
2.86672e-14
8.91708e-209
1.69063e-37
4.83119e-36
8.7698e-77
2.49202e-36
-1.28659e-139
6.78662e-21
7.74488e-59
9.04798e-31
6.83884e-28
2.53513e-173
-4.61486e-76
9.76827e-10
0.00277464
6.37628e-216
3.34196e-54
4.71637e-10
1.46182e-39
0.807268
-8.80323e-224
2.01526e-141
1.48335e-179
2.28793e-32
2.3848e-59
-2.57486e-70
-3.55784e-138
1.35596e-39
2.1304e-53
-5.18451e-59
1.28771e-98
0.000315784
2.99734e-202
0.000725367
5.77578e-160
151.932
9.53521e-58
1.90867e-10
2.34719e-184
3.27508e-124
4.56264e-31
-3.02427e-114
1.59068e-155
7.22714e-98
1.05368e-57
6.77728e-58
5.33281e-12
8.23499e-23
7.12103e-23
-8.91908e-247
-4.70803e-114
2.31104e-40
0.00382889
7.08207e-247
-2.51175e-198
2.2323e-35
1.80999e-177
2.56396e-16
1.25383
107.83
3.22053e-245
-1.35934e-75
7.59724e-17
-2.69009e-67
-2.98689e-122
91.7985
-7.23034e-201
2.1346e-23
4.72199e-33
1.36046e-76
-1.02142e-124
1.54584e-152
2.40707e-91
4.84133e-33
1.7653e-59
-3.12996e-74
4.34216e-243
-4.59236e-198
4.0313e-62
-9.5147e-120
4.44249e-27
1.46427e-32
1.15626e-162
7.56038e-197
4.85553e-29
175.012
-1.36323e-133
2.90195e-09
-7.36061e-215
1.6173e-73
1.59478e-23
3.05835e-39
2.19103e-18
6.73563e-28
1.69675e-58
1.4992e-29
-1.42164e-229
-2.37571e-190
1.82765e-42
5.3202e-67
1.88263e-59
1.38148e-68
-7.49374e-223
7.04864e-195
-3.32024e-132
3.61574e-46
9.45782e-26
-1.50852e-32
3.1643e-90
-6.80128e-31
1.33974e-34
2.04419e-55
-6.27463e-30
-1.05288e-54
2.06048
5.33688e-33
1.65395e-52
3.30515e-28
2.9702e-191
1.03268e-22
1.11119e-30
4.38746e-247
-7.8587e-208
1.40138e-176
-4.40186e-183
5.82196e-07
5.85313e-55
5.74286e-83
-8.62541e-32
1.35552e-96
1.02693e-15
3.10363e-40
1.12389e-32
-3.06232e-131
1.41019e-10
-1.65962e-223
-2.68877e-46
-4.42964e-110
8.28204e-19
-2.93811e-29
7.27945e-64
1.05669e-54
9.32713
1.49762e-35
1.967e-13
5.45299e-63
1.85845e-11
0.59661
-2.23983e-168
-2.21572e-116
-1.08772e-224
2.70775e-08
-9.49918e-117
2.47045e-59
0.00858061
-3.66529e-199
-2.90929e-59
4.81487e-31
1.10775e-59
1.09828e-131
8.03966e-65
-9.10112e-163
-4.84355e-64
6.19926e-166
-1.88965e-161
-1.58008e-68
1.11265e-31
1.60728e-34
2.35541e-58
2.44216e-08
4.80874e-40
17.0421
3.97588e-35
5.17491e-66
-3.16555e-66
9.31511e-37
8.63799e-50
2.36022e-46
0.603597
-1.14671e-34
3.49902e-52
6.62725e-50
-9.85966e-111
-5.05728e-121
1.69445e-29
-2.21367e-226
22.7903
4.16851e-165
-9.82798e-34
7.50003e-22
4.3701e-07
2.29227e-18
4.4753e-28
3.46288e-32
7.86971e-64
1.37802e-18
8.84095e-41
2.5498e-13
1.81488e-49
2.68865e-13
1.22363e-50
2.0254e-238
1.49844e-50
178.393
4.63191e-13
3.57196e-90
-6.43327e-232
4.39501e-160
7.08487e-83
-2.93106e-53
3.23267e-35
1.559e-54
6.9639e-176
-8.94379e-89
2.65778e-49
-2.94622e-92
1.09088e-99
1.93574e-12
5.3612e-102
3.28401e-42
8.25422e-25
3.47547e-90
-8.04677e-82
1.58209e-27
-2.97553e-248
-7.64722e-86
51.4321
9.29845e-189
4.19195e-16
1.80564e-22
4.9693e-83
5.10469e-32
6.30543e-25
4.42239e-51
9.12791e-26
-3.56345e-117
-4.55879e-32
-1.99568e-122
1.33796e-49
5.06199e-27
-7.37001e-31
-3.0955e-117
5.26711e-29
5.21525e-06
1.67774e-43
1.52545e-64
-4.50551e-110
3.79408e-22
7.53597e-07
-2.26977e-113
-2.58022e-208
2.19668e-51
-2.6007e-218
0.715064
4.94409e-50
3.25451e-12
1.06789e-62
9.28938e-56
14.2913
9.34774e-61
0.00177839
2.13626e-36
103.397
7.71303e-40
-1.01009e-72
4.17708e-62
3.94919e-78
0.00447068
0.000421625
5.4392e-164
2.14057e-161
-8.50681e-29
8.13683e-152
0.00383099
2.05722e-27
4.2551e-10
-5.13483e-110
129.052
0.0965734
2.33388e-49
7.52572e-238
-2.16288e-121
-7.92185e-37
2.67771e-81
2.80362e-89
1.29148e-78
8.40503e-36
6.31808e-42
53.2611
2.25546e-07
2.02646e-177
2.57521e-36
4.31187e-24
-1.24603e-27
3.36754e-68
2.07547e-22
7.42534e-30
-7.97678e-36
2.76914e-128
-7.06694e-236
3.62671e-20
3.27264e-17
2.29685e-56
-1.0018e-29
5.30197e-13
2.89796e-67
3.06511e-52
-9.91719e-109
6.54133e-74
1.12742e-14
4.20442e-72
1.35589e-24
1.24148e-38
2.27862e-45
6.15511e-90
5.59914e-74
1.90003e-06
1.29443e-64
2.62652e-68
53.9524
7.25668e-47
7.48463e-69
0.0104309
9.8872e-242
2.99849e-63
2.25613e-57
-7.39065e-82
-2.88683e-135
7.0089e-54
3.11628e-249
1.41653e-09
1.3076e-115
-1.10651e-57
8.07293e-21
7.24175e-32
9.19452e-59
2.32959e-61
3.51477e-21
95.2252
8.29496e-190
1.58641e-100
8.39819e-68
0.00837048
2.24515e-17
-1.08485e-118
3.5877
-1.27747e-235
-5.64862e-118
187.525
-4.23211e-90
-1.00296e-115
-4.06346e-113
7.94785e-40
-4.76635e-39
1.08047e-186
-1.0512e-83
1.83062e-24
1.3583e-57
8.14538e-62
2.97879e-79
-5.59718e-167
-5.76422e-38
2.66969e-06
-6.40721e-65
-8.41778e-31
4.33339e-37
1.07642e-47
2.11697e-10
6.5741e-25
5.08753e-78
-2.45159e-116
0.000521371
3.10259e-31
2.22707e-45
-8.93744e-108
-1.9397e-181
7.3344e-37
9.51037e-11
1.32203e-66
3.31742e-28
3.20374e-65
1.26036e-77
-8.32257e-98
1.23125e-38
151.288
18.9473
2.03669e-37
-5.63393e-62
8.71644e-100
1.2167e-39
0.0132433
-3.37171e-33
-5.84284e-120
2.98663e-11
8.6347e-08
9.02762
3.50042e-82
92.2272
-3.23025e-186
3.09122e-76
-4.2303e-183
7.22769e-11
3.08317e-44
86.0383
-9.43852e-123
0.0208802
1.06265e-150
-1.0272e-62
7.3106e-28
2.06672e-83
5.98364e-12
0.147877
-1.8214e-88
4.71444e-89
8.10402e-63
3.17914e-83
-7.47531e-90
1.19375e-13
1.42676e-46
8.23799e-61
2.31482e-15
-5.74033e-90
-7.45304e-176
-2.93223e-66
9.89847e-159
1.65523e-26
1.86293e-62
4.4402e-09
7.07849e-11
-2.64892e-41
3.23574e-32
5.36907e-36
3.29683e-63
0.0134246
1.04732e-68
-4.99391e-94
-3.1872e-223
4.53247e-11
-2.21184e-34
-3.97737e-124
1.41567e-25
-1.08787e-79
1.92287e-32
-1.21591e-36
-4.1612e-32
4.04889e-37
89.4577
1.37662e-35
-3.28829e-40
0.158727
4.16697e-83
2.57327e-07
1.77819e-23
1.09474e-154
2.65988e-67
3.0612e-97
8.20158e-67
-4.6256e-231
-1.2563e-111
3.12305e-07
4.139e-11
-1.657e-112
208.037
1.29973e-28
6.30528e-161
9.50921e-12
2.91432e-12
4.63873e-164
1.23261e-10
1.05899e-21
4.04383e-11
-2.69393e-161
7.37091e-123
-7.16807e-98
1.64508e-166
-8.01763e-36
31.3955
-1.7576e-125
7.14621e-12
5.22444e-244
2.75166
4.38755e-26
9.17031e-34
-2.21008e-203
-4.84908e-127
2.2174e-75
1.23252e-38
4.3599e-15
4.63424e-33
-1.25541e-90
-1.60603e-87
-6.0247e-160
2.50796e-27
1.89781e-37
5.46367e-97
-6.41891e-207
1.14526e-52
2.4437e-33
4.51421e-43
-1.56685e-131
8.60652e-07
3.4938e-28
5.18777e-151
1.52268e-43
2.00109e-86
1.03861e-69
197.516
-2.35653e-91
-1.77878e-159
7.1127e-36
-1.85526e-35
-1.30487e-43
3.00036
-3.93415e-60
5.96793e-71
6.05354e-32
-4.65032e-82
2.5066e-79
1.58018e-69
-5.8758e-82
-1.27601e-28
-2.40251e-72
15.065
-1.81123e-42
6.50121e-10
3.18306e-77
0.0176004
9.06651e-31
6.48349e-09
1.40084e-13
5.33653e-31
2.45801e-69
2.72857e-75
3.80238e-55
9.88207e-245
1.91623e-72
3.54083e-35
5.83664e-12
-2.13715e-82
3.21126e-152
5.4417e-33
1.28606e-33
2.89503e-16
1.57658e-38
2.17187e-11
3.99896e-16
-1.77741e-106
5.8637e-49
0.884488
2.50874e-36
-2.57339e-234
3.36104e-83
-3.12969e-85
-1.34748e-237
3.81598e-50
-1.47123e-187
5.18689e-71
1.16809e-14
5.83116e-33
3.47621e-06
-4.75129e-184
-5.64115e-127
-4.67017e-217
-1.84278e-83
-1.4102e-99
6.12765e-09
-2.18979e-99
-6.35921e-127
6.21397e-07
1.84791e-34
1.79466e-43
2.21422e-51
4.26567e-17
-4.50626e-90
5.15966e-12
5.01287e-76
-1.5468e-177
0.0022983
5.48174e-39
3.95553e-20
1.74057e-95
56.1012
-6.24199e-39
3.79227e-43
4.34316e-31
2.79803e-29
50.9228
2.20849e-73
1.00011e-11
-1.01426e-47
1.42598e-44
8.12988e-138
1.86294e-61
1.74462e-07
2.93856e-75
7.75558e-09
-9.08331e-89
-1.10383e-92
1.12493e-12
5.75582e-143
-1.26869e-118
5.92886e-72
1.01637e-37
4.95156e-11
-6.60443e-90
1.18409e-84
-7.52011e-218
2.51074e-46
0.00266205
3.2827e-40
-1.5378e-84
2.44939e-60
-2.83792e-91
-5.83575e-123
14.2298
-6.07717e-46
6.64833e-210
9.41467e-48
-1.45067e-92
-9.71059e-38
-2.61486e-27
2.36665e-40
4.34771e-83
2.45494e-14
5.37626e-11
-2.7157e-207
1.08481e-57
2.18569e-11
-2.74462e-124
-3.86787e-186
-5.56669e-62
4.77651e-48
5.07332e-77
-1.4693e-184
7.12589e-49
2.7681e-12
1.78716e-162
1.31931e-22
1.72501e-188
3.43835e-96
7.0871e-54
5.10247e-05
-2.03227e-223
2.00511
-8.65153e-45
4.69202e-21
41.9274
-2.94771e-41
1.93863e-54
0.034517
-3.20732e-83
1.71058e-05
1.4448e-18
6.30804e-63
1.00684e-73
3.55822e-75
-1.39424e-93
-3.09852e-98
1.96209e-20
0.0320027
198.109
8.05611e-24
-2.30639e-28
0.0443429
4.80609e-26
15.6245
-1.14786e-139
-4.08044e-92
1.63807e-18
5.50749e-41
-2.60395e-113
1.08779e-23
6.91878e-76
46.1991
4.23255e-233
1.07744e-126
6.04023e-134
208.092
-1.14297e-35
2.15782e-43
-2.90472e-74
7.73284e-19
6.2835e-78
-7.79801e-129
4.12968e-07
1.95178e-74
3.98239e-07
1.50261e-20
8.72168e-64
5.40186e-14
6.22014e-40
-2.63424e-92
-7.60122e-124
-1.72442e-121
0.22758
3.18395e-13
-1.1989e-101
1.35767e-17
1.34837e-43
4.46964e-24
-1.40109e-223
3.89184e-44
2.53589e-07
5.00448e-09
-4.63486e-40
-7.18923e-65
-1.98467e-125
3.20356e-15
-2.02157e-80
-1.91726e-128
5.23589e-10
2.25299e-16
-1.56002e-103
1.59939e-29
4.49421e-38
-1.16927e-220
-1.66115e-114
-2.98558e-185
-4.50135e-39
89.3433
2.72489e-11
6.32574e-19
-6.9667e-108
6.63049e-79
2.77732e-38
-2.72055e-213
3.77308e-09
1.32517e-40
98.1565
-4.11422e-27
4.8952e-68
-2.44968e-104
-2.45373e-137
4.93685e-74
-4.807e-81
-3.25341e-111
14.6995
8.59676e-15
9.97212e-35
9.75503e-17
-2.02554e-41
-3.547e-123
5.41174e-244
-5.48144e-112
1.47426e-25
0.994446
-1.40117e-21
6.40766e-43
-3.96268e-47
4.78594e-73
2.78532e-15
0.0410617
0.0252195
2.03714e-81
-7.14641e-67
1.79973e-27
-1.60172e-93
2.7539e-178
-2.20555e-112
1.38508e-13
-8.85866e-101
2.50469e-56
-1.60133e-88
9.46448e-40
4.32254e-08
-2.39843e-93
-3.89007e-112
3.56643e-10
3.79199e-14
8.44276e-92
1.11541e-137
-2.57652e-48
0.00198136
5.38894e-25
6.82799e-22
-1.00707e-50
7.23457e-54
0.0768033
2.06637e-77
-1.1801e-21
-2.66627e-122
1.95871e-12
1.73531e-11
-3.12668e-163
-2.471e-134
89.2667
-5.50942e-114
5.68296e-71
8.85522e-27
-3.61498e-104
-4.26386e-102
-1.12691e-89
-1.94375e-115
-8.68684e-217
6.82751e-16
1.8929e-05
-1.03802e-135
0.0189763
1.6371e-78
-1.85743e-116
1.8091e-12
4.81752e-09
4.59934e-26
-7.94496e-82
-1.4834e-111
-1.27551e-43
153.028
-1.71495e-100
-1.27869e-136
-1.62235e-142
-1.93734e-101
1.17627e-57
1.80015e-27
-2.44224e-103
4.54573e-77
8.57614e-122
7.72495
9.82405e-09
3.24685e-37
-7.00536e-38
4.76574e-77
-1.88478e-116
4.21352e-15
1.46957
-3.06916e-71
-5.08914e-142
-6.19177e-118
1.85699e-13
-1.33763e-103
-1.94822e-123
6.02144e-08
1.6241e-82
-1.6021e-111
116.459
2.02229e-05
15.1325
1.09302e-14
-4.32445e-103
1.89232e-11
2.35957e-10
0.187212
1.06729e-91
1.13196e-26
-1.93108e-216
0.126997
9.04106e-238
-1.17738e-93
4.62892e-77
-6.25922e-141
4.89022e-39
1.43192e-90
-1.33863e-101
6.07634e-93
7.66061
5.20559e-14
1.10646e-34
-5.07611e-111
2.84448e-28
21.7774
1.16123e-08
4.20597e-42
-1.58468e-49
3.09621e-94
1.5949e-81
-5.37574e-137
8.58166e-105
-4.00215e-134
-1.50253e-113
-2.10493e-42
1.03302e-14
4.7291e-16
0.344598
0.00011385
1.66112e-08
1.48085e-23
0.127052
-5.75817e-125
4.54138e-05
-2.9874e-118
0.00167956
5.90509e-09
7.10163e-34
-2.62513e-103
1.77312e-33
8.21634e-22
1.15542e-60
97.969
2.17276e-12
0.405987
-5.17138e-115
1.35602e-09
3.58386e-07
9.99883e-10
1.7159e-07
1.18031e-10
-1.44447e-111
1.65506e-94
5.29124e-37
-1.55434e-106
9.37829e-28
6.97706e-97
1.10338e-36
1.12171e-164
-3.44097e-87
1.70323e-19
9.71683e-28
-7.57317e-130
-5.05043e-46
1.0388
86.39
-8.77873e-142
1.82753e-48
1.57701e-70
1.3807e-10
1.54412e-28
4.97228
5.09889e-05
1.1213e-93
1.74411e-37
2.71497e-07
-1.01546e-23
6.34155e-06
1.35408e-52
1.10874e-11
-3.93572e-132
0.216739
2.61478e-08
-5.98737e-135
1.60967e-07
0.195638
1.67237e-44
4.49605
3.38844e-81
8.93558e-09
1.43578e-75
-2.58761e-146
2.85471e-71
1.67346e-76
0.0938785
0.00108915
0.0450019
-1.61644e-130
7.59399
1.3331e-34
1.28179e-12
-5.87366e-31
3.3346e-39
2.20407e-47
0.021983
1.08052e-79
4.6666e-89
1.96959e-18
4.63292e-09
2.85279e-27
1.4812e-17
-1.15337e-55
0.0543898
6.71749e-29
6.86836e-28
2.608e-09
-7.59944e-168
9.2518e-08
9.90734e-10
5.26778e-08
2.90166e-73
0.00108719
-7.63264e-138
2.08789e-28
2.48109e-38
4.92662e-05
2.14237e-69
2.076e-19
1.88196e-08
79.2473
1.54216e-103
2.32775e-32
-4.17237e-46
6.12063e-08
9.05609e-18
-8.37152e-93
3.68433e-36
-6.6585e-139
12.5463
-1.14734e-221
-5.63357e-139
-1.47842e-183
1.26383e-06
-3.27954e-110
6.51101e-36
8.93569
2.62565e-49
1.78457e-56
-5.76823e-105
1.14811e-173
1.21037e-09
-8.29846e-141
-3.25099e-40
5.62384e-12
-8.46432e-45
3.25454e-06
-3.12484e-87
5.23485e-35
1.72881e-07
6.8199e-18
1.04111e-65
91.8461
-2.41067e-224
5.55118e-169
-4.76379e-83
229.576
3.20173e-74
2.94588e-67
9.38926e-08
-2.29478e-102
-1.21538e-85
4.6011e-13
1.06356e-05
5.43431e-30
0.0101472
-1.81372e-102
3.13065e-84
2.14545e-38
1.24227e-43
5.08089e-05
-9.78102e-120
3.10553e-63
-3.61404e-53
7.01868e-18
8.0905e-57
-2.40365e-131
6.41911e-38
-1.06567e-18
-1.0939e-196
2.53522e-191
5.09835e-05
1.3339e-29
9.67552e-05
1.10505e-84
9.97198e-233
-1.5712e-17
1.61593e-06
-9.86206e-123
-4.55919e-99
-2.99031e-138
16.23
-1.68638e-196
4.53425e-31
8.67872e-05
2.43002e-187
3.82173e-172
4.68158e-18
-2.75986e-149
5.54253e-192
6.50713e-37
4.64194e-13
-7.14476e-133
5.01269e-21
-7.31187e-143
1.1991e-07
9.6211e-235
1.44935e-07
6.51542e-13
2.65671e-19
4.09228e-187
1.44497e-14
5.38615
-1.64794e-93
5.71958e-47
1.03076e-150
2.33983e-13
-1.05244e-143
1.02978e-06
4.15249e-09
-1.63294e-80
6.82994e-180
1.8609e-13
9.30753e-14
1.46254e-42
3.32652e-40
3.35286e-16
-1.01592e-147
4.74669e-15
1.82492e-181
1.81337e-05
1.4841e-08
2.20492e-08
9.37898e-19
-9.78828e-23
12.5085
4.9206e-19
7.14864e-39
2.29666e-14
-6.91063e-96
1.34181e-11
4.13651e-16
-1.53174e-42
3.23661e-73
0.10764
-8.80887e-198
0.0511769
110.804
-1.09892e-105
3.68475e-08
97.1702
8.72417e-34
1.82456e-36
7.90977e-16
-6.07535e-52
-2.07813e-137
8.23217e-08
0.0150511
0.855556
-2.18879e-95
6.12613e-14
0.000493456
4.36148e-14
-3.89985e-113
3.6975e-166
1.88936e-28
0.0244813
9.1801e-09
4.35362e-16
-3.38848e-225
-9.75976e-145
2.66267e-14
-7.3474e-102
2.22585e-40
-1.0469e-97
6.14073e-177
2.93111e-07
9.571e-80
0.000218109
7.1374e-42
1.71057e-158
5.39929e-166
6.10832e-15
-1.08804e-96
5.01991e-33
7.88607e-16
0.904462
-1.8353e-48
-1.29021e-130
2.88949e-06
1.743e-92
-2.0549e-140
2.78209e-62
1.27072e-13
6.9161e-93
9.43264e-14
3.45991e-42
221.159
1.69108e-14
-2.48384e-123
0.000107967
-3.57423e-182
6.55298e-09
5.03655e-35
8.50789e-06
0.0053054
-9.44568e-44
0.000174014
5.7431e-157
1.38638e-08
-4.34375e-117
1.68561e-49
4.00799e-05
2.45548e-26
1.48483e-05
0.018927
-1.5424e-19
1.59185e-07
2.6085e-06
-8.92708e-128
-3.67659e-142
-1.29206e-180
0.000222066
-4.74395e-24
-2.99272e-126
2.07174e-07
2.19497e-05
1.59999e-34
1.40962e-12
5.57561e-50
-2.89818e-33
0.00331211
3.48089e-69
3.81636e-27
1.03878e-31
8.85292e-217
-8.96431e-215
-1.369e-128
-2.51254e-95
6.31702e-41
8.36545e-160
4.08651e-81
-1.77304e-102
-1.11173e-60
7.07861e-16
-3.54204e-112
1.5854e-06
2.58819e-236
2.67361e-11
4.42702e-06
-1.10789e-122
5.58245e-05
3.9127e-12
7.50623e-06
4.81416e-56
1.91126e-16
-5.40362e-104
2.03378e-35
6.81196e-45
1.63516e-167
7.12473e-119
5.82157e-88
-3.33762e-121
1.8752e-186
-8.10731e-54
4.9054e-188
-3.46971e-30
4.48812e-22
0.0720008
2.48678e-161
9.89786e-60
2.80391e-158
-5.61385e-102
2.79986e-21
7.98095e-62
-2.87022e-124
120.929
2.95808e-14
8.61747e-30
1.22246e-57
6.8107e-15
3.0755e-23
6.02324e-59
2.13703e-17
2.64556e-13
-6.34328e-103
4.81602e-183
-7.6397e-79
2.18164e-07
-2.0463e-141
-6.41313e-129
1.16759e-13
1.45071e-106
-3.92899e-102
3.38872e-69
-2.19486e-131
0.00125297
8.79166e-160
-1.97994e-130
4.13795e-19
1.02438e-17
6.62908
3.83528e-13
-7.19256e-56
-3.89692e-124
2.93761e-16
-1.24381e-125
9.91881e-26
2.61173e-43
-2.88663e-103
6.6533e-06
4.29579e-193
3.99855e-21
3.66928e-52
1.11073e-14
-6.30803e-42
8.71165e-192
-9.93245e-104
7.44315e-235
5.04409e-24
-2.30927e-143
1.16723e-18
1.32891e-40
-1.13962e-85
-2.05591e-54
1.45608e-36
1.10832e-184
1.07778e-20
6.6829e-21
-2.82265e-96
5.7972e-19
1.40292e-07
3.05114e-175
1.00859e-36
2.3131e-11
9.60564e-13
3.36909e-72
1.30965e-39
2.22562e-38
8.21469e-43
1.30201e-69
8.18511e-15
9.37738e-70
-1.06673e-122
-4.77944e-124
0.0692061
2.44813e-08
9.53928e-05
1.80317e-06
-2.29072e-34
4.01878e-20
8.11162e-41
2.16508e-18
-8.8421e-124
3.60819
-5.89692e-101
3.05424e-06
4.87605e-07
-4.26444e-127
-4.99585e-25
1.12282e-08
8.09998e-06
5.0625e-39
1.54016e-25
-2.54095e-125
-9.62708e-206
8.80117e-15
4.34421e-183
3.83453e-163
4.68419e-17
-1.11192e-102
-1.95841e-63
-4.27265e-129
1.62928e-82
9.3748e-15
10.8889
3.84404e-97
-1.54475e-103
2.18969e-08
-4.25047e-37
5.92697e-11
6.50475e-24
1.94317e-25
-2.64794e-104
3.15712e-36
1.55889e-15
9.64096e-17
-1.09401e-29
4.50185e-152
7.38201e-06
8.93737e-30
4.86034e-19
5.40564e-80
-1.75396e-128
2.05633e-16
-1.51259e-97
-8.29845e-178
4.00243e-22
2.19956e-08
-1.29527e-161
1.71315e-20
1.11526e-43
-6.50171e-111
-4.56856e-72
-5.47162e-110
3.91506e-22
-1.01769e-122
-5.44139e-130
2.72965e-40
1.56429e-22
-5.81997e-39
-1.36569e-29
9.6102
3.92019e-106
5.84099e-59
0.441105
1.3547e-31
-2.4433e-111
7.02333e-31
0.0105571
1.88073e-167
-6.01437e-105
2.4423e-178
4.61995e-25
1.9565e-14
1.59779e-43
1.18957e-189
-1.30961e-75
4.23973e-61
5.52594e-87
2.09197e-09
-7.11457e-98
1.06032e-188
7.6118e-185
4.47711e-27
1.25005e-39
1.82863e-05
-9.99395e-79
-3.18773e-47
2.97925e-27
1.90335e-14
-1.22578e-140
1.1618e-23
1.547e-170
5.45302e-163
-7.61533e-191
8.95644e-10
-1.26291e-105
1.73879e-23
5.82565e-21
1.45735e-25
1.46326e-15
1.38616e-26
2.16774e-13
2.03776e-25
-1.22078e-97
7.42937e-27
-1.50266e-46
3.13619e-33
4.45979e-21
-8.88474e-104
42.9644
8.22489e-17
6.27162e-19
-4.2766e-160
1.59528
4.66535e-15
9.31637e-17
-8.97706e-31
3.51476e-06
5.16695e-61
1.57769e-101
4.59305e-84
4.92792e-86
5.68143e-81
7.99091e-18
1.82534e-21
-2.52966e-111
3.58593e-24
2.15528e-88
1.0819e-80
6.37747e-49
-7.00211e-45
4.96608e-66
1.73874e-55
-1.22741e-43
1.20888e-22
1.93545e-25
1.61687e-45
7.2817e-183
2.8145e-88
-1.19637e-96
8.60733e-11
-4.24982e-142
-1.8351e-108
1.30523e-24
1.80291
-5.74762e-122
2.85379e-05
-1.47374e-125
1.5909e-96
1.23547e-37
3.90688e-28
1.08215e-32
-3.45352e-139
3.77889e-18
5.30362e-21
2.17795e-11
1.95384e-161
4.07375e-23
8.60298e-40
8.09339e-50
-2.63087e-189
-8.74901e-225
5.38853e-27
1.99398e-39
4.20704e-57
55.4254
1.33345e-22
2.27176e-31
-1.18372e-24
5.60154e-41
3.92322e-11
-4.92314e-104
3.85975e-44
4.11579e-71
-2.55147e-84
0.0113506
1.39567e-21
3.30049e-21
2.39976e-34
-1.88466e-134
4.42909e-17
1.55973e-16
0.000338271
7.31165e-82
2.12403e-31
0.000240846
8.95547e-05
-4.33422e-127
9.74779e-05
5.86634e-48
23.8075
2.30296e-175
5.19306e-24
6.78078e-35
5.12626e-196
3.00723e-14
1.54112e-61
1.39505e-75
3.07864e-08
0.00158193
8.61917e-05
8.24909e-75
6.56944e-26
-3.88179e-175
-4.22774e-96
5.06201e-06
4.82178e-30
5.06486e-73
1.33145e-17
3.73667e-22
6.21704e-27
8.45119e-38
1.08641e-35
4.52034e-21
0.00359144
-2.59394e-133
2.04696e-37
7.53841e-44
2.10699e-27
2.43428e-07
1.33328e-22
1.78245e-31
1.2425e-61
1.84355e-178
4.81356e-26
4.06887e-30
2.53877e-20
-6.97863e-138
4.66425e-54
1.08348e-22
1.08504e-23
-7.13908e-24
1.35886e-19
3.0784e-68
1.22516e-28
-5.32288e-107
2.00857e-13
3.61986e-50
2.23057e-25
2.64702e-61
1.38631e-73
3.24963e-22
1.01146e-54
2.00296e-62
1.32394e-76
-7.74452e-136
2.80397e-27
3.2683e-49
1.43574e-51
22.6629
0.011209
-6.87881e-106
1.9824e-74
6.08754e-36
8.13989e-39
4.41895e-190
1.15219e-29
-1.69466e-35
9.00726e-30
-2.45674e-176
1.75777e-13
5.37113e-18
1.06813e-15
1.77475e-29
-4.67067e-161
-6.27868e-91
1.93318e-58
2.45778e-28
7.43125e-09
16.0891
-9.18754e-131
2.37775e-65
2.01215e-67
5.83736e-07
0.000566922
0.000181592
3.67601e-50
7.01631e-21
-1.04561e-174
7.39001e-37
-7.0988e-51
-2.78882e-129
5.46389e-22
7.53667e-38
1.36651e-33
1.13728e-19
-3.87647e-69
3.36531e-39
6.93186e-31
-4.76601e-163
-1.57305e-246
2.32479e-41
-1.39201e-63
2.34466e-08
1.48585e-44
-7.47692e-23
2.39441e-13
-3.93792e-40
-9.51092e-131
-4.03932e-57
1.46995e-18
-2.55957e-134
0.309002
0.0690271
-2.56471e-109
1.43948e-170
-1.72718e-98
-3.82027e-134
1.12679e-197
-2.27794e-59
1.84123e-62
-5.6084e-32
1.63801e-37
7.24114e-30
-2.91832e-47
3.44336e-05
1.66246e-18
1.59811e-31
1.39778e-37
2.96685e-48
2.87992e-34
-4.23054e-162
-1.31515e-71
1.20846e-63
-2.2337e-31
-9.1143e-26
1.83478e-09
3.0111e-200
-1.33656e-26
4.97928e-36
9.52362e-47
1.93348e-22
-9.39002e-40
2.29481e-24
0.00460893
3.04427e-36
3.93451e-18
4.92012e-47
6.83464e-84
5.22174e-39
4.34866e-34
-7.1216e-135
1.78908e-39
0.0320616
-4.22271e-75
0.000250914
-9.45188e-128
1.31408e-33
-5.04749e-87
1.9397e-69
7.99006e-30
-1.15555e-20
1.72985e-21
4.46115e-67
1.919e-41
3.89296e-47
7.95456e-18
1.58974e-11
-8.04985e-45
2.39598e-08
1.25493e-196
5.16421e-38
8.0094
1.85064e-14
1.53615e-67
0.435362
4.39739e-19
8.71385e-64
-8.85714e-150
1.0629e-10
1.94003e-34
2.19358e-48
2.67566e-35
9.8848e-150
6.17387e-20
2.02043e-75
7.57615e-14
1.02365e-35
5.91953e-31
-8.34844e-30
4.99062e-240
-1.36064e-98
1.17657e-43
9.27981e-82
1.42501e-84
4.14316e-55
3.04213e-73
1.31508e-59
-1.28328e-24
1.25169e-27
-3.2082e-187
2.33111e-15
-6.11524e-97
-1.11906e-161
-2.52148e-27
-6.53834e-123
8.47606e-47
5.12424e-48
-2.00592e-136
-6.47853e-133
1.21353e-80
3.37275e-23
2.36151e-60
4.47633e-32
1.01128e-34
-2.43929e-26
5.28303e-25
5.06898e-49
1.52354e-41
6.88308e-38
-6.48249e-213
1.76807e-54
1.08415e-72
1.6908e-49
0.304504
1.56995e-25
-1.3703e-68
1.36763e-40
-8.25008e-62
2.0845e-63
7.96169e-69
1.56889e-61
9.43821e-64
-4.20856e-32
1.3675e-36
-2.66559e-163
2.39098e-24
-1.6897e-48
1.45928e-22
-1.53206e-151
-6.57946e-28
4.90793e-05
-1.65684e-93
-1.93017e-39
1.61102e-17
-3.43734e-114
3.01629e-26
2.3052e-13
6.41259e-37
-4.77842e-38
2.75078e-14
3.82555e-41
-1.06716e-49
4.25785e-40
3.07316e-24
5.56014e-120
3.27847e-69
5.08231e-204
-2.73363e-97
-1.0012e-150
8.72597e-39
9.84798e-37
9.51737e-26
-1.55272e-41
15.6993
-1.97383e-20
35.4951
2.80864e-35
5.28103e-10
12.0528
4.55056e-16
23.5434
2.58213e-67
8.07412e-41
1.80777e-45
4.57012e-51
1.50167e-44
1.28835e-98
2.18099e-45
3.82317e-89
-3.97431e-153
-5.96825e-51
4.58459
1.05821e-40
1.71587e-21
1.97385e-43
7.30443e-82
5.40981e-37
1.62427e-36
-8.5749e-108
2.0208e-42
-7.80013e-79
2.64466e-24
5.06055e-40
5.62428e-41
-8.63006e-42
0.572583
2.60029e-07
1.49783e-20
1.77092e-48
78.0605
3.12391e-42
4.16438e-53
3.87631e-28
-4.45594e-29
-9.34068e-58
1.64071e-16
-8.54082e-133
-1.20443e-36
-2.25963e-27
2.33858e-42
-1.66792e-43
4.0623e-73
2.22768e-38
-1.19843e-33
1.53786e-65
1.91727e-27
1.66171e-46
4.46992e-59
-2.71388e-129
9.57127e-52
5.17115e-38
2.75741e-78
2.78329e-47
6.67888e-59
-2.41958e-98
-3.45962e-33
7.06323e-77
8.25966e-16
7.4272e-46
-4.27413e-63
-6.15587e-137
3.14991e-96
1.78175e-14
3.7079e-38
3.56649e-198
1.1814e-44
8.7453
4.03825e-22
1.35535e-74
1.91414e-47
0.134721
0.843875
46.6083
6.99148e-83
1.6255e-84
-6.87071e-105
2.48431e-58
7.53995e-29
0.00590495
0.0538259
7.523e-13
2.36051e-18
1.25006e-71
-6.53888e-147
-1.5632e-144
-3.06487e-27
-2.1173e-73
7.10638e-25
3.96791e-86
2.54793e-05
5.45616e-84
7.65134e-42
3.37911e-12
-2.74653e-41
1.22589e-20
1.99659e-110
3.99696e-40
-1.49659e-159
9.41628e-18
1.02553e-18
2.12505e-64
-2.75432e-152
1.40381e-66
4.35465e-25
4.47979e-101
-3.62615e-44
0.132646
8.63492e-171
2.50972e-63
-9.03258e-38
-2.61718e-38
5.45038e-47
-9.93669e-113
-4.86104e-100
-9.76807e-100
5.75345e-194
-1.91857e-144
5.19467e-60
4.34898e-26
-1.58004e-160
5.47878e-72
-7.48201e-110
148.404
-4.38261e-28
-4.45622e-98
6.64302e-202
3.1005e-23
4.18313e-42
7.50093e-21
-1.16393e-45
3.39626e-42
-5.21851e-154
5.67342e-97
4.41506e-16
-8.4138e-216
1.17166e-42
2.83805e-28
2.94562e-51
6.87794e-142
2.84425e-37
-1.32612e-188
2.64442e-57
4.77503e-59
-2.19145e-99
6.49071e-08
2.86409e-53
1.10614e-62
2.03462e-60
-9.50693e-39
-5.22451e-49
-8.04552e-165
3.16327e-199
1.6722e-76
4.96704e-28
4.61799e-39
5.33136e-63
1.50776e-59
1.53549e-16
-6.43726e-54
-3.53217e-176