/*--------------------------------*- C++ -*----------------------------------*\
  =========                 |
  \\      /  F ield         | OpenFOAM: The Open Source CFD Toolbox
   \\    /   O peration     | Website:  https://openfoam.org
    \\  /    A nd           | Version:  7
     \\/     M anipulation  |
\*---------------------------------------------------------------------------*/
FoamFile
{
    version     2.0;
    format      ascii;
    class       volScalarField;
    location    "4.5";
    object      p;
}
// * * * * * * * * * * * * * * * * * * * * * * * * * * * * * * * * * * * * * //

dimensions      [1 -1 -2 0 0 0 0];

internalField   nonuniform List<scalar> 
2413
(
1.83822
1.8554
1.87779
1.93251
1.98266
1.9937
1.98371
1.95837
1.77965
1.87898
1.90782
1.95435
2.01092
2.02731
2.0193
1.99465
1.44083
1.82989
1.92003
1.96911
2.02848
2.05373
2.04599
2.02074
0.952459
1.52049
1.88296
1.97429
2.03573
2.06937
2.06136
2.04008
0.734367
1.0062
1.61072
1.94973
2.03317
2.07432
2.07308
2.05848
0.702307
0.744192
1.07485
1.72989
2.00733
2.07346
2.09024
2.07906
0.702091
0.703662
0.762574
1.1946
1.82671
2.0699
2.11277
2.10693
0.708916
0.706312
0.710485
0.803859
1.3153
1.94622
2.13346
2.14092
0.719596
0.714876
0.714333
0.722465
0.854722
1.45835
2.06558
2.17018
0.732128
0.730064
0.725033
0.724909
0.736614
0.916628
1.65451
2.14585
0.744019
0.742858
0.739912
0.733089
0.73326
0.751157
1.0267
1.80644
0.755243
0.753496
0.751425
0.745858
0.739394
0.740184
0.772152
1.13961
0.765771
0.763069
0.761037
0.756796
0.750733
0.745224
0.746525
0.799368
0.77578
0.772368
0.770331
0.766383
0.76113
0.756326
0.751293
0.753585
0.785639
0.781899
0.779685
0.776129
0.770323
0.766913
0.761841
0.757003
0.795872
0.791942
0.789716
0.786377
0.780352
0.776663
0.773771
0.767586
0.806566
0.802112
0.799905
0.796678
0.790945
0.786096
0.784047
0.780555
0.818005
0.812567
0.810291
0.807178
0.801728
0.796431
0.793691
0.791423
0.829748
0.823176
0.820183
0.817513
0.811863
0.806927
0.8034
0.800749
1.14442
1.14629
1.14492
1.14386
1.14462
1.14583
1.14574
1.14478
1.144
1.14202
1.13896
1.13567
1.13213
1.12807
1.12347
1.11858
1.11391
1.11012
1.10755
1.10553
1.10347
1.10162
1.10012
1.09859
1.0969
1.09486
1.09224
1.08902
1.0861
1.08425
1.08298
1.08211
1.08156
1.08128
1.08135
1.08165
1.08229
1.08318
1.93178
1.91281
1.89781
1.88755
1.88081
1.8759
1.86992
1.86724
1.86767
1.87339
1.88726
1.90565
1.92571
1.94238
1.95788
1.97136
1.98333
1.9964
2.00939
2.02433
2.03626
2.051
2.06489
2.07856
2.09512
2.10869
2.11943
2.12281
2.11615
2.10599
2.09253
2.0748
2.05415
2.03339
2.01203
1.9896
1.9668
1.94362
1.91937
1.89379
1.86772
1.8408
1.8132
1.78666
1.75944
1.7318
1.708
1.68416
1.65737
1.63187
1.60828
1.58273
1.55453
1.52846
1.50531
1.48082
1.45505
1.4305
1.40646
1.38185
1.35733
1.33265
1.30769
1.28409
1.26107
1.23815
1.21725
1.19811
1.17917
1.16067
1.14293
1.12513
1.10568
1.08517
1.07115
1.06345
1.06562
1.07368
1.0825
1.09205
1.11586
1.13661
1.1459
1.14859
1.15003
1.15178
1.15207
1.15145
1.15016
1.14872
1.14717
1.14424
1.14028
1.13635
1.13244
1.12827
1.12346
1.11819
1.11458
1.11283
1.11119
1.1088
1.10667
1.10527
1.10372
1.10206
1.10028
1.09814
1.09548
1.09248
1.09014
1.08872
1.08771
1.08705
1.08671
1.08676
1.0874
1.08862
1.09039
1.09264
1.96258
1.93612
1.91493
1.89687
1.88422
1.874
1.86564
1.85891
1.8531
1.84714
1.84019
1.83558
1.83527
1.83818
1.84256
1.84542
1.85141
1.86176
1.87181
1.87913
1.88539
1.89681
1.91172
1.93278
1.95708
1.98412
2.00827
2.02647
2.04088
2.04634
2.0476
2.04337
2.03314
2.01917
2.00388
1.98704
1.96804
1.94813
1.92576
1.90073
1.87576
1.85004
1.82215
1.79463
1.76728
1.74009
1.71592
1.6912
1.66337
1.63685
1.61358
1.58819
1.56018
1.53386
1.50935
1.48408
1.45824
1.43393
1.41001
1.38492
1.35964
1.33472
1.31048
1.28823
1.26729
1.24645
1.22691
1.20929
1.19187
1.17496
1.15871
1.14215
1.12505
1.10555
1.08794
1.07564
1.07099
1.07481
1.08118
1.08696
1.10184
1.12662
1.1425
1.14939
1.15489
1.15892
1.15935
1.15772
1.15496
1.15192
1.14897
1.14511
1.14056
1.1361
1.13209
1.12821
1.12344
1.11908
1.11804
1.11736
1.11556
1.11304
1.11107
1.10974
1.10833
1.10657
1.1046
1.1024
1.09988
1.09725
1.09527
1.09403
1.09319
1.0928
1.09297
1.09383
1.09562
1.09864
1.10247
1.106
1.98837
1.95999
1.93616
1.91439
1.89709
1.88284
1.87054
1.85992
1.85086
1.84294
1.83451
1.82789
1.82316
1.81593
1.80694
1.80051
1.79675
1.79519
1.78861
1.77413
1.76317
1.76215
1.76805
1.77814
1.79098
1.8076
1.82802
1.84915
1.87056
1.89246
1.91196
1.93006
1.94098
1.94606
1.94993
1.94577
1.93513
1.92328
1.90793
1.88861
1.8668
1.84297
1.81685
1.79134
1.7658
1.73751
1.7111
1.68821
1.66293
1.63606
1.60999
1.58257
1.55474
1.5296
1.50555
1.48073
1.45568
1.43178
1.40779
1.3829
1.35829
1.33551
1.31459
1.29418
1.27477
1.25583
1.2376
1.22135
1.20548
1.18952
1.17429
1.15897
1.14279
1.12551
1.10718
1.09128
1.08052
1.07784
1.08177
1.08729
1.09487
1.11227
1.13163
1.14493
1.15639
1.16236
1.16416
1.16383
1.16089
1.156
1.1508
1.14547
1.14021
1.13553
1.13173
1.12831
1.12433
1.12223
1.12219
1.12152
1.11956
1.11747
1.11594
1.11458
1.11331
1.11201
1.11024
1.10814
1.10589
1.10375
1.1023
1.10154
1.10131
1.10181
1.1032
1.10563
1.1093
1.1139
1.11777
1.11822
2.01205
1.98513
1.96028
1.93774
1.91876
1.90307
1.88856
1.87499
1.86228
1.85073
1.84062
1.83278
1.82591
1.81722
1.8067
1.7999
1.79726
1.79106
1.77196
1.75262
1.74254
1.73844
1.73364
1.72531
1.71889
1.71493
1.71358
1.71432
1.71772
1.72571
1.73955
1.75847
1.78043
1.80076
1.81899
1.83431
1.83991
1.84279
1.84178
1.83348
1.82053
1.80404
1.78466
1.76307
1.74143
1.7178
1.69374
1.67152
1.64673
1.61968
1.59416
1.56819
1.54176
1.51738
1.49416
1.47057
1.44705
1.42458
1.40208
1.38015
1.35958
1.3401
1.32086
1.30177
1.28349
1.26612
1.24971
1.23448
1.21965
1.20455
1.18988
1.17542
1.16024
1.14432
1.12745
1.11077
1.09637
1.08725
1.08551
1.08924
1.09449
1.10413
1.11848
1.13325
1.14895
1.15787
1.16394
1.16553
1.16402
1.16083
1.15574
1.14898
1.1425
1.13707
1.13326
1.13021
1.1276
1.12647
1.12614
1.12523
1.12327
1.12112
1.12002
1.11907
1.11807
1.11718
1.11623
1.115
1.11367
1.11262
1.11223
1.1127
1.11406
1.11655
1.12009
1.1238
1.12704
1.12834
1.12731
1.12491
2.03469
2.00906
1.98506
1.96414
1.9467
1.93166
1.91705
1.90241
1.88749
1.87282
1.86093
1.85202
1.84279
1.83093
1.81919
1.81339
1.80869
1.79317
1.77033
1.75354
1.74736
1.74408
1.73473
1.725
1.71613
1.70672
1.69681
1.68661
1.67656
1.6688
1.6643
1.66274
1.66615
1.67375
1.68335
1.69501
1.70649
1.71612
1.72662
1.72983
1.72875
1.72561
1.7166
1.70368
1.68946
1.67292
1.65343
1.63473
1.61421
1.59026
1.56704
1.54397
1.52069
1.49902
1.4783
1.45711
1.43654
1.41819
1.40072
1.38294
1.36461
1.34641
1.32849
1.31106
1.29413
1.27793
1.26305
1.24863
1.23421
1.2199
1.20578
1.19169
1.17764
1.16302
1.14785
1.13248
1.11717
1.10433
1.09643
1.09466
1.09696
1.10214
1.11052
1.11969
1.13331
1.14465
1.15377
1.15918
1.16043
1.16106
1.15921
1.1553
1.14984
1.14397
1.13986
1.1367
1.13444
1.13292
1.13168
1.13022
1.12811
1.12587
1.12479
1.12421
1.12366
1.12319
1.12286
1.12277
1.12308
1.12385
1.12525
1.12785
1.13187
1.13652
1.13982
1.14002
1.13873
1.13634
1.13149
1.12433
2.05729
2.03246
2.0101
1.99214
1.97867
1.96568
1.95213
1.93744
1.92099
1.90347
1.89022
1.88021
1.86882
1.85496
1.84453
1.83966
1.82814
1.80407
1.78038
1.76953
1.76669
1.75673
1.74452
1.73327
1.72174
1.70983
1.69757
1.68461
1.67255
1.66346
1.65584
1.64789
1.64169
1.63862
1.63615
1.63396
1.63303
1.63376
1.63746
1.63813
1.6379
1.64033
1.63876
1.63156
1.62277
1.61221
1.59909
1.58625
1.57179
1.55386
1.53577
1.5176
1.49897
1.4819
1.46576
1.44965
1.43464
1.42013
1.40456
1.388
1.37108
1.35463
1.33844
1.32247
1.30658
1.29127
1.27729
1.26344
1.24934
1.23555
1.22207
1.20849
1.19497
1.18201
1.16852
1.15436
1.14032
1.1264
1.11433
1.1066
1.10318
1.10395
1.10734
1.11114
1.11676
1.12592
1.13624
1.14551
1.15038
1.15234
1.15471
1.15638
1.15532
1.15479
1.15289
1.14939
1.14653
1.144
1.14166
1.13923
1.13657
1.13438
1.13333
1.13277
1.13246
1.13243
1.13267
1.1335
1.13534
1.138
1.1414
1.1458
1.15003
1.15111
1.14992
1.14749
1.14267
1.13589
1.12798
1.11914
2.09036
2.06712
2.04324
2.0247
2.01281
2.00123
1.98826
1.97435
1.95866
1.94079
1.9254
1.91279
1.89857
1.88395
1.87585
1.86953
1.84961
1.82133
1.80405
1.80014
1.79245
1.77871
1.76576
1.75285
1.73898
1.72461
1.70978
1.69421
1.68029
1.66963
1.66008
1.64953
1.64205
1.63733
1.63397
1.62983
1.62557
1.62213
1.6189
1.61546
1.6102
1.60445
1.59776
1.59029
1.58153
1.57155
1.56223
1.55391
1.5433
1.52965
1.51654
1.50377
1.49053
1.47793
1.46525
1.4516
1.43779
1.42431
1.41017
1.39525
1.38007
1.36509
1.35014
1.3352
1.31984
1.30512
1.29181
1.27842
1.26488
1.25173
1.2389
1.22594
1.21316
1.20113
1.18902
1.17628
1.16304
1.14953
1.13605
1.12408
1.11514
1.10946
1.10703
1.10795
1.10721
1.10869
1.11375
1.12267
1.13166
1.13728
1.143
1.14819
1.1526
1.15682
1.16069
1.16358
1.16224
1.15928
1.15651
1.15399
1.15139
1.1489
1.14768
1.14723
1.14706
1.14737
1.1483
1.14978
1.1519
1.15476
1.15794
1.15902
1.1577
1.15537
1.15097
1.14507
1.13827
1.13039
1.12124
1.11035
2.133
2.11394
2.08922
2.068
2.05354
2.03926
2.02382
2.00901
1.9934
1.97612
1.96032
1.94591
1.92972
1.91616
1.91011
1.89738
1.87016
1.84649
1.83873
1.83441
1.82109
1.80735
1.79432
1.78063
1.7657
1.74989
1.73323
1.71624
1.70033
1.68696
1.67483
1.66129
1.65273
1.6453
1.63901
1.63333
1.62678
1.62166
1.6177
1.61314
1.60765
1.60089
1.59325
1.58511
1.57571
1.56477
1.55588
1.54806
1.53817
1.52669
1.51551
1.50384
1.4916
1.47978
1.46791
1.45536
1.44284
1.43061
1.41796
1.40457
1.39072
1.37677
1.36264
1.34829
1.3333
1.31898
1.30615
1.2934
1.28042
1.26809
1.25603
1.24362
1.23169
1.22025
1.20884
1.197
1.18447
1.17132
1.15779
1.14439
1.13172
1.12051
1.11214
1.107
1.10453
1.10124
1.09866
1.10051
1.10667
1.11483
1.12335
1.13304
1.14195
1.14878
1.15698
1.16587
1.16974
1.17104
1.17214
1.17336
1.17227
1.1696
1.16845
1.16851
1.16889
1.16946
1.16999
1.17001
1.17005
1.17011
1.16855
1.1653
1.1599
1.15315
1.14626
1.1385
1.12955
1.11921
1.10719
1.09352
2.16646
2.155
2.13627
2.11712
2.10058
2.08161
2.06274
2.04572
2.02797
2.00943
1.99319
1.97716
1.96044
1.95015
1.94239
1.92019
1.89378
1.88082
1.87637
1.86486
1.85085
1.83789
1.82496
1.81142
1.79668
1.78109
1.76481
1.74798
1.73108
1.71615
1.70199
1.68643
1.67616
1.66642
1.65661
1.6485
1.63962
1.63194
1.62512
1.61793
1.61027
1.60139
1.59262
1.58373
1.57372
1.56285
1.55485
1.54707
1.5372
1.52655
1.51603
1.50508
1.49394
1.48307
1.47215
1.46078
1.44949
1.43839
1.42686
1.41461
1.40177
1.38855
1.37503
1.36124
1.34669
1.33295
1.32064
1.30857
1.29617
1.28459
1.27326
1.26136
1.25001
1.23902
1.22772
1.21602
1.20393
1.19123
1.17799
1.16434
1.15026
1.13606
1.12319
1.11293
1.10541
1.09942
1.09499
1.09291
1.09302
1.09539
1.10135
1.11113
1.12401
1.13507
1.14548
1.15688
1.16641
1.17265
1.17869
1.18498
1.18894
1.18972
1.19039
1.19225
1.19374
1.19203
1.18989
1.18746
1.18415
1.17978
1.17353
1.16534
1.15673
1.14806
1.13845
1.12723
1.11461
1.1012
1.0869
1.07301
2.19076
2.19283
2.17981
2.16412
2.14701
2.12441
2.10222
2.08215
2.06194
2.04191
2.02456
2.00725
1.99286
1.9854
1.96851
1.94425
1.93015
1.92093
1.90811
1.89515
1.88213
1.86905
1.85564
1.84176
1.82722
1.8129
1.7982
1.78255
1.76609
1.7505
1.73474
1.71847
1.70685
1.69538
1.68305
1.67244
1.66171
1.65108
1.64077
1.63079
1.62028
1.60838
1.59758
1.58715
1.57589
1.56516
1.55771
1.54926
1.53897
1.52895
1.51885
1.5081
1.49777
1.48796
1.47801
1.46771
1.45739
1.44709
1.43635
1.42493
1.41284
1.40017
1.38715
1.37387
1.35995
1.34677
1.33515
1.32382
1.31199
1.30099
1.29021
1.27872
1.26765
1.25667
1.24528
1.23342
1.22137
1.20901
1.19626
1.18287
1.16871
1.154
1.13894
1.1255
1.1141
1.1037
1.09497
1.09191
1.0906
1.09036
1.09233
1.09778
1.10565
1.11606
1.12805
1.14166
1.15541
1.16563
1.17413
1.18351
1.1913
1.19535
1.19827
1.20235
1.20375
1.20203
1.19902
1.19437
1.1882
1.18085
1.17237
1.16314
1.15335
1.14225
1.12899
1.11414
1.09932
1.08572
1.07418
1.06603
2.18316
2.22521
2.22175
2.2094
2.18872
2.16126
2.13602
2.11526
2.09645
2.07723
2.05798
2.04085
2.02971
2.01423
1.99144
1.98
1.97162
1.95498
1.94008
1.92682
1.91337
1.89983
1.88622
1.87217
1.85733
1.84314
1.82932
1.81475
1.79957
1.78463
1.76852
1.7524
1.73977
1.72696
1.71305
1.70071
1.68853
1.6752
1.66189
1.64912
1.63556
1.62051
1.60758
1.59558
1.58286
1.57269
1.56467
1.55511
1.54398
1.53378
1.52385
1.51336
1.50348
1.49435
1.48514
1.47565
1.46611
1.45652
1.44649
1.43574
1.42427
1.41212
1.3996
1.38687
1.37372
1.36111
1.35002
1.33934
1.3281
1.31739
1.30688
1.29576
1.28461
1.27336
1.26168
1.24955
1.23734
1.22499
1.2125
1.1996
1.18581
1.17167
1.15735
1.14279
1.1298
1.11769
1.10494
1.09776
1.09447
1.09235
1.09173
1.09465
1.1
1.10649
1.11486
1.12558
1.13921
1.15203
1.16229
1.17247
1.18174
1.18792
1.19241
1.19705
1.19954
1.19854
1.19606
1.19163
1.18566
1.17877
1.16978
1.15875
1.14682
1.13401
1.11958
1.10495
1.09275
1.08357
1.07534
1.06956
1.87228
2.21173
2.25262
2.24555
2.21983
2.19024
2.17033
2.15308
2.13533
2.11641
2.09711
2.08259
2.06722
2.04288
2.02756
2.02125
2.00549
1.98864
1.97394
1.95973
1.94515
1.93051
1.91625
1.90187
1.88737
1.87293
1.85837
1.84364
1.82928
1.81526
1.80016
1.78503
1.77165
1.75799
1.74309
1.72928
1.71556
1.7
1.68433
1.66936
1.65316
1.63571
1.6214
1.60826
1.59476
1.58464
1.57548
1.56474
1.55289
1.5421
1.53155
1.5208
1.51138
1.50289
1.49423
1.48538
1.47639
1.46728
1.45776
1.44744
1.43631
1.42459
1.41252
1.40031
1.388
1.37601
1.36522
1.355
1.34426
1.33365
1.32315
1.31217
1.30078
1.28908
1.27713
1.26465
1.25252
1.24008
1.22759
1.21507
1.20205
1.18869
1.17564
1.16258
1.14972
1.13806
1.12527
1.11462
1.10887
1.10488
1.10195
1.10108
1.10345
1.10644
1.11103
1.11729
1.12498
1.13438
1.1439
1.15332
1.163
1.17098
1.177
1.18226
1.18594
1.1865
1.18466
1.18089
1.17465
1.16644
1.15596
1.14344
1.13047
1.11823
1.1065
1.09648
1.09059
1.08743
1.08443
1.08152
1.1608
1.87891
2.22334
2.26205
2.24769
2.23048
2.21936
2.2006
2.18089
2.16084
2.14119
2.12701
2.10592
2.0834
2.07284
2.05835
2.03881
2.02192
2.00787
1.99417
1.97904
1.96266
1.94617
1.93048
1.91726
1.90366
1.88819
1.87204
1.85652
1.84192
1.82743
1.81298
1.79953
1.78586
1.77073
1.756
1.741
1.72362
1.70613
1.68961
1.67171
1.65323
1.63881
1.62515
1.6115
1.60086
1.59015
1.57792
1.56493
1.5533
1.5421
1.53115
1.52244
1.51422
1.50564
1.49716
1.48854
1.47962
1.47036
1.46032
1.44944
1.43808
1.42648
1.41479
1.40322
1.39183
1.38111
1.37104
1.36063
1.34998
1.33926
1.32811
1.3164
1.30423
1.29189
1.27925
1.26709
1.25473
1.24225
1.2301
1.21826
1.20584
1.19427
1.18332
1.17236
1.16191
1.15127
1.14138
1.13476
1.12912
1.12443
1.12106
1.11937
1.1173
1.11615
1.1178
1.1187
1.11883
1.12147
1.12593
1.13041
1.13423
1.13802
1.14106
1.14321
1.1443
1.14291
1.14005
1.13547
1.12944
1.12213
1.11312
1.10465
1.09781
1.09192
1.08854
1.08739
1.08762
1.08854
1.08927
0.799406
1.14855
1.82347
2.21248
2.29172
2.29125
2.27609
2.2597
2.24421
2.21943
2.19292
2.17454
2.14957
2.13145
2.11692
2.09745
2.07823
2.05895
2.04066
2.0244
2.00982
1.99626
1.98169
1.96391
1.94667
1.93077
1.91425
1.89891
1.88395
1.86898
1.85426
1.8393
1.82497
1.81054
1.79471
1.77912
1.76334
1.74497
1.72621
1.70855
1.68971
1.67222
1.65901
1.64553
1.63202
1.62044
1.60829
1.59441
1.58034
1.56795
1.55612
1.54506
1.53684
1.5286
1.51988
1.51152
1.50308
1.49403
1.48463
1.47463
1.46383
1.4527
1.44152
1.43028
1.41927
1.40841
1.39767
1.38739
1.37704
1.3663
1.35523
1.34371
1.33169
1.31926
1.30668
1.29409
1.28201
1.26992
1.25795
1.24633
1.23573
1.22473
1.21431
1.20599
1.19718
1.18805
1.17952
1.174
1.16824
1.16132
1.15525
1.15089
1.14551
1.13759
1.13054
1.12513
1.11875
1.1108
1.10277
1.09692
1.09069
1.08276
1.07555
1.0699
1.06601
1.06395
1.06197
1.05973
1.05916
1.06139
1.06453
1.06621
1.06773
1.07089
1.07414
1.07684
1.07852
1.08126
1.08464
1.08687
0.758638
0.796544
1.09112
1.75397
2.2418
2.30907
2.30356
2.31287
2.31311
2.29109
2.25863
2.23472
2.2128
2.18565
2.15863
2.13441
2.11468
2.09838
2.08234
2.06477
2.04375
2.02446
2.01001
1.99564
1.97994
1.96245
1.94253
1.92443
1.90835
1.89345
1.87882
1.86379
1.84921
1.83427
1.8175
1.80038
1.78328
1.76411
1.74501
1.72713
1.70857
1.6937
1.68157
1.6682
1.65473
1.64216
1.6287
1.61336
1.59858
1.58578
1.57361
1.56289
1.55461
1.54598
1.53695
1.5284
1.5198
1.51039
1.50061
1.49047
1.47968
1.46873
1.45789
1.44695
1.43618
1.42563
1.41494
1.40424
1.39361
1.38272
1.37133
1.3594
1.34716
1.3347
1.32216
1.30973
1.2981
1.28693
1.27628
1.26591
1.2566
1.2474
1.23812
1.23182
1.22528
1.21693
1.21024
1.20678
1.20228
1.19392
1.18576
1.17909
1.17001
1.15788
1.1451
1.13261
1.12006
1.10624
1.09007
1.07433
1.05832
1.04102
1.02491
1.01272
1.00402
0.99752
0.990461
0.986303
0.986406
0.989638
0.997207
1.00785
1.02023
1.03272
1.0438
1.05449
1.0624
1.06871
1.07414
1.0777
0.763052
0.76448
0.793586
1.03865
1.76412
2.2405
2.28732
2.32144
2.34049
2.3369
2.32446
2.31252
2.28325
2.24705
2.21723
2.18983
2.1632
2.1376
2.1171
2.0994
2.08169
2.06437
2.04564
2.02434
2.00568
1.98796
1.97026
1.95375
1.93688
1.92035
1.90402
1.88738
1.87115
1.85491
1.83757
1.82017
1.80247
1.78296
1.76402
1.74628
1.72964
1.71731
1.70544
1.69203
1.67845
1.66494
1.65032
1.63402
1.61924
1.60664
1.59446
1.5841
1.57544
1.56626
1.55662
1.54774
1.53866
1.52856
1.51827
1.50789
1.49695
1.48604
1.4755
1.46467
1.45388
1.44346
1.43293
1.42185
1.41065
1.39956
1.38808
1.37602
1.36376
1.35158
1.33949
1.32766
1.31743
1.30823
1.29915
1.29039
1.28251
1.27463
1.26666
1.26099
1.25545
1.24733
1.2399
1.23548
1.22867
1.21781
1.20579
1.19463
1.18153
1.16553
1.14944
1.13509
1.11911
1.10048
1.07935
1.05871
1.04014
1.02338
1.00876
0.996983
0.986968
0.977617
0.967727
0.960943
0.958488
0.957249
0.95827
0.963324
0.972621
0.985321
0.999977
1.0136
1.02645
1.03936
1.05048
1.05637
0.774329
0.770131
0.771554
0.79463
1.02382
1.73425
2.17352
2.29424
2.33757
2.3453
2.34986
2.35998
2.34723
2.32013
2.28815
2.25518
2.22538
2.19715
2.17078
2.14439
2.11944
2.09922
2.07966
2.05882
2.03823
2.01762
1.99812
1.98048
1.96342
1.94682
1.93013
1.91275
1.89507
1.87691
1.8577
1.83947
1.82169
1.80299
1.78556
1.76878
1.75435
1.74264
1.7301
1.71631
1.70233
1.68798
1.6724
1.65623
1.64235
1.63025
1.61841
1.60814
1.59882
1.58905
1.57871
1.56915
1.55932
1.54841
1.53749
1.5268
1.51568
1.50465
1.49413
1.48335
1.4725
1.46184
1.45141
1.44038
1.42867
1.41738
1.4063
1.39462
1.38259
1.37107
1.36023
1.35021
1.34231
1.3348
1.32681
1.31917
1.31217
1.30458
1.29672
1.28988
1.28237
1.27258
1.26214
1.25295
1.24165
1.22691
1.21203
1.19869
1.1845
1.16784
1.14998
1.1326
1.11313
1.0915
1.06997
1.05143
1.03641
1.02246
1.00917
0.997599
0.986926
0.976107
0.965965
0.960898
0.958338
0.956076
0.95552
0.954639
0.954706
0.955696
0.960399
0.968459
0.978238
0.988807
1.0012
1.01401
0.787502
0.782248
0.778007
0.778897
0.797866
1.00759
1.65351
2.13084
2.27047
2.30949
2.33528
2.35314
2.36385
2.36532
2.35454
2.33143
2.29987
2.26526
2.23261
2.20183
2.17371
2.14753
2.11977
2.09326
2.07147
2.05165
2.03276
2.01388
1.99468
1.97582
1.95709
1.93785
1.91871
1.89954
1.87996
1.86163
1.8439
1.82672
1.81107
1.79568
1.78244
1.76992
1.75635
1.74192
1.72717
1.71191
1.69575
1.68071
1.66809
1.65652
1.64506
1.63467
1.62464
1.61414
1.60308
1.59253
1.58165
1.56974
1.5582
1.54711
1.53571
1.52453
1.51388
1.50303
1.49222
1.48146
1.47085
1.46006
1.44847
1.43707
1.42674
1.41605
1.4048
1.39489
1.38638
1.37835
1.37098
1.36358
1.35543
1.34726
1.33911
1.32961
1.31937
1.30922
1.29815
1.28466
1.2705
1.25784
1.24448
1.22921
1.214
1.19918
1.1828
1.16394
1.14373
1.12431
1.10479
1.08542
1.06818
1.05345
1.04005
1.02663
1.01325
1.00174
0.99101
0.980182
0.971249
0.967439
0.964678
0.961411
0.958469
0.957156
0.95649
0.95581
0.953125
0.951601
0.951496
0.952671
0.956033
0.962121
0.798069
0.793907
0.789608
0.784473
0.784853
0.800729
0.993302
1.55747
2.03673
2.18616
2.2478
2.30223
2.32947
2.35083
2.36091
2.3652
2.35534
2.33362
2.30155
2.26434
2.22929
2.19817
2.16778
2.14081
2.11845
2.09704
2.07474
2.05222
2.03044
2.00969
1.9891
1.96791
1.94679
1.9262
1.90642
1.8885
1.87171
1.85637
1.84205
1.82782
1.81436
1.80047
1.78553
1.76986
1.75406
1.7381
1.72235
1.70905
1.69733
1.68583
1.67447
1.66352
1.65257
1.64116
1.62943
1.61774
1.60568
1.59281
1.58062
1.56898
1.55719
1.54577
1.53496
)
;

boundaryField
{
    inlet
    {
        type            fixedValue;
        value           nonuniform 0();
    }
    outlet
    {
        type            zeroGradient;
    }
    bottom
    {
        type            symmetryPlane;
    }
    top
    {
        type            symmetryPlane;
    }
    obstacle
    {
        type            zeroGradient;
    }
    front
    {
        type            empty;
    }
    back
    {
        type            empty;
    }
    procBoundary21to13
    {
        type            processor;
        value           nonuniform List<scalar> 
129
(
1.8083
1.81013
1.83671
1.9021
1.9437
1.95294
1.9454
1.92646
1.14291
1.1428
1.1414
1.13916
1.139
1.14107
1.14205
1.14156
1.14113
1.13966
1.13721
1.13444
1.13138
1.12758
1.12311
1.11856
1.1141
1.10986
1.10627
1.10361
1.10133
1.09906
1.09707
1.09532
1.09359
1.09171
1.08943
1.0866
1.08352
1.08066
1.07874
1.07762
1.07669
1.07598
1.07562
1.07556
1.07581
1.07621
1.90835
1.89771
1.89226
1.8894
1.88716
1.88955
1.9036
1.92564
1.95302
1.9838
2.01418
2.04129
2.05988
2.07136
2.0811
2.08849
2.09409
2.10227
2.10902
2.11858
2.12515
2.13208
2.14097
2.14916
2.14912
2.14903
2.14835
2.14132
2.12925
2.11352
2.09373
2.07109
2.04638
2.01969
1.99064
1.96046
1.93073
1.90234
1.87451
1.84667
1.81975
1.79346
1.76806
1.74465
1.72052
1.69611
1.67574
1.65558
1.63251
1.6095
1.58848
1.56651
1.54117
1.51641
1.49432
1.47092
1.44665
1.42281
1.39895
1.37521
1.3514
1.32675
1.30224
1.27903
1.25525
1.231
1.20843
1.18782
1.16718
1.14657
1.12716
1.10694
1.08444
1.06575
1.05616
1.05487
1.06071
1.07369
1.08587
1.10643
1.13038
1.13991
1.13991
)
;
    }
    procBoundary21to14
    {
        type            processor;
        value           nonuniform List<scalar> 4(1.08417 1.0946 1.10766 1.11711);
    }
    procBoundary21to22
    {
        type            processor;
        value           nonuniform List<scalar> 
15
(
1.12043
1.11592
1.10905
1.09749
1.07875
1.06374
1.06208
1.06704
1.07931
1.08945
1.08903
1.08187
1.06216
1.02385
0.970618
)
;
    }
    procBoundary21to28
    {
        type            processor;
        value           nonuniform List<scalar> 
11
(
1.71195
1.33996
0.894272
0.727301
0.704909
0.703785
0.709283
0.717245
0.724457
0.735883
0.748756
)
;
    }
    procBoundary21to29
    {
        type            processor;
        value           nonuniform List<scalar> 
129
(
0.840897
0.83416
0.829346
0.827087
0.822166
0.81621
0.813293
0.809883
1.52408
1.51336
1.50273
1.49224
1.48175
1.47075
1.45979
1.45
1.44032
1.43056
1.42193
1.41368
1.40504
1.39592
1.38637
1.37616
1.36538
1.35417
1.34141
1.32803
1.31534
1.30194
1.28745
1.27317
1.25928
1.24408
1.22658
1.20918
1.19211
1.17402
1.15472
1.13537
1.11837
1.10277
1.08684
1.07174
1.05832
1.04571
1.03341
1.0213
1.01124
1.00263
0.994296
0.987441
0.983773
0.980489
0.976072
0.97079
0.966879
0.964529
0.96123
0.956893
0.953136
0.951948
0.949716
0.94663
0.943186
0.807009
0.803492
0.799683
0.795412
0.789395
0.789613
0.80751
0.986485
1.4957
1.89125
2.02485
2.11579
2.19705
2.28214
2.32392
2.34542
2.34764
2.34142
2.32616
2.30151
2.27377
2.24224
2.21215
2.18677
2.16682
2.14661
2.12273
2.09777
2.07373
2.05002
2.02633
2.00306
1.98096
1.96027
1.9412
1.92388
1.90777
1.89296
1.87875
1.86473
1.85047
1.83518
1.81864
1.80144
1.78457
1.7682
1.75352
1.74145
1.72993
1.71812
1.70644
1.69467
1.6826
1.67017
1.65763
1.64484
1.63156
1.61796
1.60525
1.5929
1.58055
1.56891
1.52408
1.55777
)
;
    }
    procBoundary21to36
    {
        type            processor;
        value           nonuniform List<scalar> 8(0.761078 0.77209 0.781922 0.791474 0.801417 0.811773 0.822631 0.833485);
    }
}


// ************************************************************************* //
