0.0005 	0.09935 	0.005 	0.292819 	0.145085 	0
0.0015 	0.09935 	0.005 	0.383437 	0.126308 	0
0.0025 	0.09935 	0.005 	0.541162 	0.0762883 	0
0.0035 	0.09935 	0.005 	0.65655 	0.0448282 	0
0.0045 	0.09935 	0.005 	0.726681 	0.027034 	0
0.0055 	0.09935 	0.005 	0.772328 	0.0168451 	0
0.0065 	0.09935 	0.005 	0.804386 	0.01098 	0
0.0075 	0.09935 	0.005 	0.827867 	0.0075534 	0
0.0085 	0.09935 	0.005 	0.845689 	0.00547879 	0
0.0095 	0.09935 	0.005 	0.859686 	0.00416112 	0
0.0105 	0.09935 	0.005 	0.870998 	0.00328105 	0
0.0115 	0.09935 	0.005 	0.880348 	0.00266476 	0
0.0125 	0.09935 	0.005 	0.88822 	0.00221485 	0
0.0135 	0.09935 	0.005 	0.894947 	0.00187476 	0
0.0145 	0.09935 	0.005 	0.900768 	0.00161026 	0
0.0155 	0.09935 	0.005 	0.905858 	0.00139977 	0
0.0165 	0.09935 	0.005 	0.91035 	0.00122907 	0
0.0175 	0.09935 	0.005 	0.914343 	0.00108845 	0
0.0185 	0.09935 	0.005 	0.917919 	0.000971065 	0
0.0195 	0.09935 	0.005 	0.92114 	0.00087196 	0
0.0205 	0.09935 	0.005 	0.924056 	0.000787454 	0
0.0215 	0.09935 	0.005 	0.926709 	0.000714768 	0
0.0225 	0.09935 	0.005 	0.929134 	0.000651763 	0
0.0235 	0.09935 	0.005 	0.931358 	0.000596773 	0
0.0245 	0.09935 	0.005 	0.933407 	0.000548482 	0
0.0255 	0.09935 	0.005 	0.935298 	0.000505839 	0
0.0265 	0.09935 	0.005 	0.937051 	0.000467993 	0
0.0275 	0.09935 	0.005 	0.93868 	0.000434253 	0
0.0285 	0.09935 	0.005 	0.940197 	0.000404049 	0
0.0295 	0.09935 	0.005 	0.941614 	0.00037691 	0
0.0305 	0.09935 	0.005 	0.94294 	0.000352441 	0
0.0315 	0.09935 	0.005 	0.944184 	0.000330312 	0
0.0325 	0.09935 	0.005 	0.945353 	0.000310243 	0
0.0335 	0.09935 	0.005 	0.946454 	0.000291994 	0
0.0345 	0.09935 	0.005 	0.947493 	0.000275363 	0
0.0355 	0.09935 	0.005 	0.948475 	0.000260173 	0
0.0365 	0.09935 	0.005 	0.949404 	0.000246274 	0
0.0375 	0.09935 	0.005 	0.950286 	0.000233533 	0
0.0385 	0.09935 	0.005 	0.951124 	0.000221836 	0
0.0395 	0.09935 	0.005 	0.951921 	0.000211084 	0
0.0405 	0.09935 	0.005 	0.95268 	0.000201187 	0
0.0415 	0.09935 	0.005 	0.953405 	0.000192068 	0
0.0425 	0.09935 	0.005 	0.954098 	0.000183658 	0
0.0435 	0.09935 	0.005 	0.954761 	0.000175897 	0
0.0445 	0.09935 	0.005 	0.955397 	0.000168731 	0
0.0455 	0.09935 	0.005 	0.956007 	0.000162109 	0
0.0465 	0.09935 	0.005 	0.956594 	0.00015599 	0
0.0475 	0.09935 	0.005 	0.957159 	0.000150334 	0
0.0485 	0.09935 	0.005 	0.957704 	0.000145107 	0
0.0495 	0.09935 	0.005 	0.958229 	0.000140275 	0
0.0505 	0.09935 	0.005 	0.958738 	0.000135811 	0
0.0515 	0.09935 	0.005 	0.95923 	0.000131687 	0
0.0525 	0.09935 	0.005 	0.959707 	0.000127881 	0
0.0535 	0.09935 	0.005 	0.96017 	0.00012437 	0
0.0545 	0.09935 	0.005 	0.960621 	0.000121134 	0
0.0555 	0.09935 	0.005 	0.961059 	0.000118155 	0
0.0565 	0.09935 	0.005 	0.961486 	0.000115414 	0
0.0575 	0.09935 	0.005 	0.961904 	0.000112898 	0
0.0585 	0.09935 	0.005 	0.962311 	0.00011059 	0
0.0595 	0.09935 	0.005 	0.96271 	0.000108477 	0
0.0605 	0.09935 	0.005 	0.963102 	0.000106546 	0
0.0615 	0.09935 	0.005 	0.963485 	0.000104785 	0
0.0625 	0.09935 	0.005 	0.963862 	0.000103182 	0
0.0635 	0.09935 	0.005 	0.964233 	0.000101727 	0
0.0645 	0.09935 	0.005 	0.964598 	0.000100409 	0
0.0655 	0.09935 	0.005 	0.964958 	9.92183e-05 	0
0.0665 	0.09935 	0.005 	0.965313 	9.81457e-05 	0
0.0675 	0.09935 	0.005 	0.965664 	9.71822e-05 	0
0.0685 	0.09935 	0.005 	0.966011 	9.6319e-05 	0
0.0695 	0.09935 	0.005 	0.966355 	9.55479e-05 	0
0.0705 	0.09935 	0.005 	0.966695 	9.48607e-05 	0
0.0715 	0.09935 	0.005 	0.967033 	9.42496e-05 	0
0.0725 	0.09935 	0.005 	0.967368 	9.37071e-05 	0
0.0735 	0.09935 	0.005 	0.9677 	9.32258e-05 	0
0.0745 	0.09935 	0.005 	0.968031 	9.27983e-05 	0
0.0755 	0.09935 	0.005 	0.968359 	9.24177e-05 	0
0.0765 	0.09935 	0.005 	0.968686 	9.20771e-05 	0
0.0775 	0.09935 	0.005 	0.969011 	9.17697e-05 	0
0.0785 	0.09935 	0.005 	0.969335 	9.14888e-05 	0
0.0795 	0.09935 	0.005 	0.969658 	9.12281e-05 	0
0.0805 	0.09935 	0.005 	0.969979 	9.0981e-05 	0
0.0815 	0.09935 	0.005 	0.9703 	9.07414e-05 	0
0.0825 	0.09935 	0.005 	0.970619 	9.05031e-05 	0
0.0835 	0.09935 	0.005 	0.970937 	9.026e-05 	0
0.0845 	0.09935 	0.005 	0.971254 	9.00063e-05 	0
0.0855 	0.09935 	0.005 	0.97157 	8.9736e-05 	0
0.0865 	0.09935 	0.005 	0.971886 	8.94435e-05 	0
0.0875 	0.09935 	0.005 	0.9722 	8.91232e-05 	0
0.0885 	0.09935 	0.005 	0.972512 	8.87696e-05 	0
0.0895 	0.09935 	0.005 	0.972824 	8.83773e-05 	0
0.0905 	0.09935 	0.005 	0.973134 	8.79412e-05 	0
0.0915 	0.09935 	0.005 	0.973443 	8.7456e-05 	0
0.0925 	0.09935 	0.005 	0.97375 	8.69169e-05 	0
0.0935 	0.09935 	0.005 	0.974056 	8.6319e-05 	0
0.0945 	0.09935 	0.005 	0.974359 	8.56575e-05 	0
0.0955 	0.09935 	0.005 	0.97466 	8.4928e-05 	0
0.0965 	0.09935 	0.005 	0.974959 	8.4126e-05 	0
0.0975 	0.09935 	0.005 	0.975256 	8.32472e-05 	0
0.0985 	0.09935 	0.005 	0.97555 	8.22876e-05 	0
0.0995 	0.09935 	0.005 	0.97584 	8.12433e-05 	0
0.1005 	0.09935 	0.005 	0.976128 	8.01104e-05 	0
0.1015 	0.09935 	0.005 	0.976412 	7.88853e-05 	0
0.1025 	0.09935 	0.005 	0.976692 	7.75646e-05 	0
0.1035 	0.09935 	0.005 	0.976967 	7.61451e-05 	0
0.1045 	0.09935 	0.005 	0.977239 	7.46236e-05 	0
0.1055 	0.09935 	0.005 	0.977505 	7.29972e-05 	0
0.1065 	0.09935 	0.005 	0.977767 	7.12633e-05 	0
0.1075 	0.09935 	0.005 	0.978023 	6.94191e-05 	0
0.1085 	0.09935 	0.005 	0.978273 	6.74623e-05 	0
0.1095 	0.09935 	0.005 	0.978517 	6.53906e-05 	0
0.1105 	0.09935 	0.005 	0.978755 	6.32021e-05 	0
0.1115 	0.09935 	0.005 	0.978985 	6.08947e-05 	0
0.1125 	0.09935 	0.005 	0.979209 	5.84667e-05 	0
0.1135 	0.09935 	0.005 	0.979425 	5.59165e-05 	0
0.1145 	0.09935 	0.005 	0.979632 	5.32427e-05 	0
0.1155 	0.09935 	0.005 	0.979831 	5.0444e-05 	0
0.1165 	0.09935 	0.005 	0.980022 	4.75191e-05 	0
0.1175 	0.09935 	0.005 	0.980203 	4.44671e-05 	0
0.1185 	0.09935 	0.005 	0.980374 	4.12869e-05 	0
0.1195 	0.09935 	0.005 	0.980535 	3.79779e-05 	0
0.1205 	0.09935 	0.005 	0.980685 	3.45392e-05 	0
0.1215 	0.09935 	0.005 	0.980825 	3.09703e-05 	0
0.1225 	0.09935 	0.005 	0.980953 	2.72706e-05 	0
0.1235 	0.09935 	0.005 	0.98107 	2.34396e-05 	0
0.1245 	0.09935 	0.005 	0.981174 	1.94768e-05 	0
0.1255 	0.09935 	0.005 	0.981265 	1.53819e-05 	0
0.1265 	0.09935 	0.005 	0.981343 	1.11545e-05 	0
0.1275 	0.09935 	0.005 	0.981407 	6.79433e-06 	0
0.1285 	0.09935 	0.005 	0.981458 	2.30105e-06 	0
0.1295 	0.09935 	0.005 	0.981494 	-2.32573e-06 	0
0.1305 	0.09935 	0.005 	0.981515 	-7.08617e-06 	0
0.1315 	0.09935 	0.005 	0.98152 	-1.19802e-05 	0
0.1325 	0.09935 	0.005 	0.98151 	-1.70105e-05 	0
0.1335 	0.09935 	0.005 	0.981483 	-2.21761e-05 	0
0.1345 	0.09935 	0.005 	0.981439 	-2.74779e-05 	0
0.1355 	0.09935 	0.005 	0.981379 	-3.29168e-05 	0
0.1365 	0.09935 	0.005 	0.9813 	-3.84936e-05 	0
0.1375 	0.09935 	0.005 	0.981203 	-4.42097e-05 	0
0.1385 	0.09935 	0.005 	0.981088 	-5.00666e-05 	0
0.1395 	0.09935 	0.005 	0.980953 	-5.6066e-05 	0
0.1405 	0.09935 	0.005 	0.980799 	-6.221e-05 	0
0.1415 	0.09935 	0.005 	0.980625 	-6.8501e-05 	0
0.1425 	0.09935 	0.005 	0.980429 	-7.49418e-05 	0
0.1435 	0.09935 	0.005 	0.980213 	-8.15358e-05 	0
0.1445 	0.09935 	0.005 	0.979975 	-8.82869e-05 	0
0.1455 	0.09935 	0.005 	0.979715 	-9.51995e-05 	0
0.1465 	0.09935 	0.005 	0.979431 	-0.000102279 	0
0.1475 	0.09935 	0.005 	0.979125 	-0.000109531 	0
0.1485 	0.09935 	0.005 	0.978794 	-0.000116964 	0
0.1495 	0.09935 	0.005 	0.978439 	-0.000124584 	0
0.1505 	0.09935 	0.005 	0.978058 	-0.000132403 	0
0.1515 	0.09935 	0.005 	0.977652 	-0.00014043 	0
0.1525 	0.09935 	0.005 	0.977219 	-0.000148678 	0
0.1535 	0.09935 	0.005 	0.976758 	-0.000157163 	0
0.1545 	0.09935 	0.005 	0.976269 	-0.000165902 	0
0.1555 	0.09935 	0.005 	0.975751 	-0.000174914 	0
0.1565 	0.09935 	0.005 	0.975203 	-0.000184222 	0
0.1575 	0.09935 	0.005 	0.974624 	-0.000193853 	0
0.1585 	0.09935 	0.005 	0.974012 	-0.000203839 	0
0.1595 	0.09935 	0.005 	0.973368 	-0.000214215 	0
0.1605 	0.09935 	0.005 	0.972688 	-0.000225024 	0
0.1615 	0.09935 	0.005 	0.971973 	-0.000236314 	0
0.1625 	0.09935 	0.005 	0.971219 	-0.000248143 	0
0.1635 	0.09935 	0.005 	0.970427 	-0.000260578 	0
0.1645 	0.09935 	0.005 	0.969592 	-0.000273698 	0
0.1655 	0.09935 	0.005 	0.968714 	-0.000287594 	0
0.1665 	0.09935 	0.005 	0.967789 	-0.000302376 	0
0.1675 	0.09935 	0.005 	0.966815 	-0.000318173 	0
0.1685 	0.09935 	0.005 	0.965788 	-0.000335136 	0
0.1695 	0.09935 	0.005 	0.964705 	-0.000353447 	0
0.1705 	0.09935 	0.005 	0.963561 	-0.000373322 	0
0.1715 	0.09935 	0.005 	0.962351 	-0.000395021 	0
0.1725 	0.09935 	0.005 	0.961068 	-0.000418858 	0
0.1735 	0.09935 	0.005 	0.959706 	-0.000445213 	0
0.1745 	0.09935 	0.005 	0.958257 	-0.000474548 	0
0.1755 	0.09935 	0.005 	0.95671 	-0.000507435 	0
0.1765 	0.09935 	0.005 	0.955054 	-0.000544579 	0
0.1775 	0.09935 	0.005 	0.953275 	-0.00058686 	0
0.1785 	0.09935 	0.005 	0.951355 	-0.000635389 	0
0.1795 	0.09935 	0.005 	0.949274 	-0.000691579 	0
0.1805 	0.09935 	0.005 	0.947006 	-0.000757249 	0
0.1815 	0.09935 	0.005 	0.94452 	-0.000834769 	0
0.1825 	0.09935 	0.005 	0.941774 	-0.000927273 	0
0.1835 	0.09935 	0.005 	0.938718 	-0.00103896 	0
0.1845 	0.09935 	0.005 	0.935288 	-0.00117557 	0
0.1855 	0.09935 	0.005 	0.931397 	-0.00134507 	0
0.1865 	0.09935 	0.005 	0.926933 	-0.00155883 	0
0.1875 	0.09935 	0.005 	0.921746 	-0.00183347 	0
0.1885 	0.09935 	0.005 	0.915625 	-0.00219416 	0
0.1895 	0.09935 	0.005 	0.908279 	-0.0026806 	0
0.1905 	0.09935 	0.005 	0.89928 	-0.00335875 	0
0.1915 	0.09935 	0.005 	0.887989 	-0.0043453 	0
0.1925 	0.09935 	0.005 	0.873392 	-0.00586191 	0
0.1935 	0.09935 	0.005 	0.853794 	-0.00835928 	0
0.1945 	0.09935 	0.005 	0.826232 	-0.0127973 	0
0.1955 	0.09935 	0.005 	0.785308 	-0.0212455 	0
0.1965 	0.09935 	0.005 	0.719331 	-0.0380553 	0
0.1975 	0.09935 	0.005 	0.602078 	-0.0714953 	0
0.1985 	0.09935 	0.005 	0.42518 	-0.128453 	0
0.1995 	0.09935 	0.005 	0.311301 	-0.151842 	0
