/*--------------------------------*- C++ -*----------------------------------*\
  =========                 |
  \\      /  F ield         | OpenFOAM: The Open Source CFD Toolbox
   \\    /   O peration     | Website:  https://openfoam.org
    \\  /    A nd           | Version:  7
     \\/     M anipulation  |
\*---------------------------------------------------------------------------*/
FoamFile
{
    version     2.0;
    format      ascii;
    class       volScalarField;
    location    "9";
    object      p;
}
// * * * * * * * * * * * * * * * * * * * * * * * * * * * * * * * * * * * * * //

dimensions      [1 -1 -2 0 0 0 0];

internalField   nonuniform List<scalar> 
2413
(
1.65015
1.64309
1.63662
1.62846
1.61793
1.6093
1.60243
1.59276
1.58292
1.57488
1.56561
1.55731
1.55032
1.5427
1.53716
1.53119
1.52455
1.51929
1.51313
1.50714
1.50256
1.49812
1.49369
1.48909
1.48488
1.48192
1.48003
1.47884
1.47881
1.4797
1.48088
1.48236
1.48444
1.48655
1.48876
1.49045
1.49244
1.49482
1.49679
1.50024
1.50399
1.50625
1.50992
1.51401
1.51659
1.52096
1.52686
1.53064
1.53531
1.5404
1.5422
1.54535
1.5501
1.5524
1.55533
1.55935
1.56057
1.56348
1.5707
1.56995
1.56839
1.56483
1.56218
1.55997
1.55691
1.55517
1.55393
1.55116
1.54932
1.54861
1.54663
1.5448
1.54382
1.54255
1.53983
1.53752
1.53524
1.53195
1.52942
1.52747
1.52405
1.52067
1.51867
1.5162
1.51366
1.51245
1.51213
1.51241
1.51336
1.51526
1.51772
1.52067
1.52387
1.52694
1.52882
1.53062
1.53147
1.53317
1.533
1.53534
1.54675
1.5756
1.62482
1.69704
1.77222
1.84215
1.88981
1.9159
1.93347
1.94161
1.94412
1.94577
1.9458
1.9389
1.9291
1.91627
1.89989
1.88082
1.85962
1.83762
1.81735
1.79939
1.78158
1.76404
1.74778
1.7309
1.71828
1.71115
1.70374
1.69469
1.68429
1.67632
1.66769
1.65823
1.65074
1.6437
1.63466
1.62324
1.61399
1.60577
1.59602
1.58645
1.5781
1.57067
1.56268
1.5533
1.54695
1.54104
1.53319
1.52738
1.52255
1.51662
1.5111
1.50599
1.50051
1.49506
1.48982
1.48564
1.48352
1.48219
1.48099
1.48062
1.48067
1.48102
1.48221
1.48401
1.48589
1.48734
1.48927
1.49162
1.4931
1.49565
1.49877
1.50008
1.5027
1.50686
1.51041
1.51586
1.52212
1.52578
1.53078
1.5349
1.53653
1.54032
1.54481
1.54661
1.54967
1.55342
1.55457
1.55847
1.57457
1.57298
1.57138
1.56805
1.56539
1.56334
1.56014
1.55781
1.55644
1.55381
1.55151
1.55065
1.54892
1.54702
1.5459
1.54473
1.54208
1.53976
1.53731
1.53381
1.53124
1.52894
1.52546
1.5227
1.52082
1.51903
1.51811
1.51799
1.51836
1.51935
1.52115
1.52381
1.52667
1.52991
1.53256
1.53467
1.53577
1.53596
1.53564
1.53464
1.53372
1.53358
1.53223
1.53323
1.54033
1.56143
1.60165
1.65956
1.7305
1.79718
1.85764
1.89057
1.91171
1.92875
1.93475
1.93581
1.93486
1.929
1.91922
1.90832
1.8941
1.87677
1.85878
1.84002
1.82039
1.80232
1.78632
1.77141
1.75684
1.74216
1.72644
1.71717
1.70959
1.70034
1.69107
1.6807
1.6692
1.65953
1.6512
1.64182
1.62881
1.61827
1.61027
1.60016
1.59034
1.58266
1.57483
1.56488
1.5563
1.54979
1.54259
1.53593
1.53089
1.52507
1.51913
1.51329
1.50682
1.50095
1.49559
1.49045
1.48702
1.48519
1.48338
1.48131
1.47995
1.47926
1.47892
1.48021
1.48205
1.48384
1.48577
1.48776
1.48905
1.4907
1.49364
1.49541
1.49788
1.50187
1.50459
1.50888
1.51406
1.51643
1.52107
1.52595
1.52928
1.53532
1.54082
1.54276
1.54588
1.54789
1.54924
1.5547
1.57753
1.57563
1.5744
1.5715
1.56869
1.56642
1.56299
1.56025
1.55872
1.55613
1.55355
1.55257
1.55112
1.54913
1.54791
1.54674
1.54419
1.54198
1.53919
1.53549
1.53288
1.52991
1.52682
1.52461
1.52321
1.52276
1.52305
1.52389
1.52525
1.52727
1.5299
1.53281
1.53562
1.53801
1.53955
1.54044
1.54044
1.54003
1.53908
1.53694
1.53489
1.53306
1.53179
1.53168
1.53085
1.53167
1.53664
1.55059
1.58115
1.62947
1.6906
1.75554
1.81454
1.86829
1.89069
1.90576
1.91643
1.91942
1.91746
1.91257
1.90387
1.89113
1.87902
1.86671
1.853
1.84017
1.82825
1.81433
1.79937
1.78557
1.77176
1.75765
1.7434
1.7287
1.7175
1.70827
1.69741
1.68529
1.67033
1.66075
1.65073
1.63859
1.62781
1.61783
1.60571
1.59492
1.5867
1.57787
1.56944
1.56188
1.5543
1.54771
1.54089
1.53338
1.52622
1.52002
1.51417
1.50889
1.5041
1.4994
1.49466
1.48969
1.48472
1.48048
1.47777
1.47715
1.47744
1.47869
1.48035
1.48184
1.48302
1.48404
1.4849
1.48599
1.48836
1.49105
1.4937
1.49739
1.49962
1.50242
1.50608
1.50854
1.51301
1.5183
1.52037
1.52537
1.52947
1.53216
1.53721
1.54053
1.54269
1.54851
1.57995
1.57824
1.57728
1.57455
1.57138
1.56885
1.56521
1.56225
1.56049
1.5579
1.55528
1.554
1.55291
1.55102
1.54961
1.54812
1.54594
1.54379
1.54036
1.53693
1.53396
1.53068
1.52821
1.52663
1.52616
1.52672
1.52784
1.52959
1.53204
1.53505
1.5381
1.54111
1.54312
1.54437
1.54468
1.5445
1.5435
1.54214
1.54055
1.53832
1.53621
1.53427
1.53261
1.53153
1.53102
1.53123
1.53188
1.53309
1.53658
1.54685
1.56944
1.60769
1.65638
1.71201
1.76673
1.81522
1.85676
1.87312
1.88324
1.88866
1.88959
1.88704
1.8824
1.87459
1.86353
1.85272
1.84563
1.83848
1.83091
1.82367
1.81469
1.80281
1.78944
1.77501
1.76086
1.74598
1.7301
1.71821
1.70618
1.69227
1.6781
1.66562
1.65232
1.63916
1.62777
1.61665
1.60608
1.59559
1.58593
1.57706
1.56844
1.56015
1.55193
1.54324
1.53466
1.52848
1.52318
1.51841
1.51354
1.50824
1.50221
1.49595
1.49026
1.4859
1.48328
1.482
1.48144
1.48148
1.48196
1.48267
1.48355
1.48454
1.48512
1.48536
1.4861
1.48748
1.48902
1.49083
1.49247
1.4953
1.49852
1.50192
1.50749
1.51157
1.51255
1.51586
1.51799
1.51887
1.52429
1.52953
1.53254
1.53847
1.58181
1.5805
1.57967
1.5768
1.57324
1.5705
1.56671
1.56373
1.56146
1.55915
1.55687
1.55501
1.55384
1.5526
1.5506
1.54857
1.54696
1.54458
1.54083
1.53787
1.53455
1.53152
1.52979
1.52908
1.52937
1.53048
1.53236
1.53509
1.53839
1.54201
1.54528
1.54747
1.54842
1.54847
1.54813
1.54695
1.54502
1.54305
1.54103
1.53892
1.53725
1.53582
1.5344
1.53308
1.53248
1.5322
1.53239
1.5336
1.53635
1.53892
1.54268
1.54965
1.56262
1.5843
1.61762
1.65901
1.70452
1.74855
1.78901
1.82189
1.83565
1.84469
1.85119
1.8556
1.85666
1.85446
1.85012
1.84253
1.83539
1.83199
1.8288
1.82331
1.81771
1.81133
1.80178
1.78977
1.77636
1.76206
1.74738
1.73331
1.71869
1.70331
1.68878
1.67376
1.65833
1.64499
1.63286
1.62164
1.61136
1.60046
1.58873
1.57759
1.56788
1.55891
1.55044
1.54355
1.53712
1.53013
1.52255
1.51453
1.50625
1.49902
1.49442
1.49129
1.48907
1.4873
1.48571
1.48449
1.48386
1.48364
1.48363
1.48343
1.48339
1.48363
1.48349
1.48412
1.4858
1.48678
1.48694
1.4885
1.49126
1.49423
1.49878
1.50116
1.50135
1.50347
1.50493
1.50489
1.50956
1.51581
1.51922
1.52507
1.58354
1.58244
1.58142
1.57823
1.57439
1.5715
1.56765
1.56481
1.56194
1.55976
1.55805
1.55576
1.55407
1.55308
1.55076
1.54827
1.54688
1.54415
1.54073
1.53817
1.53505
1.53291
1.53203
1.53187
1.53264
1.53433
1.53695
1.54023
1.54413
1.54761
1.55027
1.55127
1.55145
1.55107
1.5497
1.54769
1.54551
1.54332
1.54114
1.53943
1.53816
1.5372
1.53629
1.53545
1.53492
1.53472
1.53531
1.53673
1.53917
1.54215
1.54452
1.54502
1.54497
1.54635
1.55125
1.56178
1.57976
1.60464
1.63567
1.67215
1.70935
1.74452
1.77366
1.79166
1.80554
1.8172
1.82865
1.83322
1.8319
1.82789
1.82338
1.819
1.81675
1.81619
1.81241
1.80689
1.80056
1.79219
1.78125
1.7687
1.75707
1.74473
1.73087
1.71646
1.70177
1.68711
1.67264
1.65739
1.64268
1.62887
1.61582
1.60447
1.59456
1.58508
1.57556
1.56641
1.55758
1.54814
1.53854
1.52947
1.52151
1.51503
1.51052
1.50677
1.50281
1.49849
1.49393
1.48993
1.48712
1.48531
1.48399
1.4826
1.48149
1.48109
1.48127
1.48195
1.48312
1.48396
1.4851
1.48695
1.48928
1.49092
1.49236
1.49202
1.49103
1.49251
1.49365
1.49482
1.49867
1.50328
1.50565
1.51032
1.58557
1.58429
1.58289
1.57926
1.57522
1.57217
1.56826
1.56544
1.56255
1.5601
1.55838
1.55596
1.55397
1.55274
1.55005
1.54748
1.54605
1.54296
1.54032
1.53797
1.53588
1.53497
1.53471
1.53528
1.53658
1.53884
1.54182
1.54531
1.54884
1.55137
1.55262
1.55282
1.55276
1.5519
1.54999
1.54785
1.5458
1.54368
1.54181
1.54056
1.53961
1.53894
1.53845
1.53795
1.5377
1.53825
1.53968
1.54189
1.54468
1.54681
1.54706
1.54575
1.54478
1.54367
1.54224
1.54092
1.53916
1.53997
1.54418
1.55476
1.57383
1.60012
1.63159
1.66657
1.70075
1.72923
1.75212
1.7695
1.78341
1.79861
1.80718
1.80517
1.80403
1.80283
1.80039
1.80006
1.79879
1.79394
1.78705
1.77817
1.76866
1.7578
1.74803
1.74093
1.73354
1.72403
1.7108
1.69582
1.68116
1.6674
1.65412
1.64248
1.63258
1.62279
1.61224
1.6006
1.5888
1.57647
1.56479
1.55411
1.54545
1.5383
1.5331
1.52803
1.5221
1.51533
1.50824
1.50225
1.4986
1.49632
1.49425
1.49211
1.49062
1.49018
1.4904
1.49074
1.4908
1.49073
1.491
1.49161
1.49239
1.49163
1.48959
1.48631
1.48485
1.48519
1.48532
1.48802
1.49084
1.49366
1.49439
1.49706
1.58761
1.58612
1.58429
1.58004
1.57585
1.57263
1.56875
1.5659
1.56293
1.56031
1.55827
1.55562
1.55355
1.55209
1.54901
1.5467
1.54465
1.54163
1.53966
1.538
1.53734
1.53728
1.53802
1.53936
1.54145
1.54423
1.54718
1.55014
1.55243
1.55348
1.55359
1.55339
1.55307
1.5517
1.54977
1.54802
1.54625
1.54452
1.54326
1.54238
1.54171
1.54121
1.54087
1.54082
1.54132
1.5427
1.54516
1.54807
1.55004
1.5503
1.54892
1.54729
1.54574
1.54403
1.54154
1.53771
1.53232
1.52667
1.521
1.51766
1.51871
1.5233
1.53287
1.54847
1.5697
1.59513
1.62418
1.65405
1.6805
1.70464
1.72503
1.74263
1.76097
1.77172
1.77187
1.77306
1.7744
1.77403
1.77448
1.772
1.76546
1.75622
1.74572
1.73779
1.72892
1.71794
1.70956
1.70567
1.70096
1.69486
1.68711
1.67855
1.66921
1.66057
1.65074
1.63941
1.62592
1.61344
1.6026
1.59323
1.58472
1.57556
1.56461
1.55233
1.5411
1.53352
1.52801
1.5241
1.52214
1.52104
1.51928
1.51661
1.51431
1.5133
1.51276
1.51177
1.50999
1.50784
1.50525
1.5019
1.49788
1.49364
1.49015
1.48732
1.48721
1.4873
1.48633
1.48556
1.48525
1.48642
1.48652
1.48835
1.58941
1.58782
1.58565
1.58092
1.57708
1.57361
1.56948
1.56638
1.56316
1.56039
1.55789
1.55505
1.55304
1.55102
1.54777
1.54597
1.54363
1.54088
1.5394
1.53897
1.53931
1.54037
1.5421
1.54439
1.54732
1.55022
1.5527
1.55463
1.55537
1.55522
1.55466
1.55414
1.55323
1.5517
1.55022
1.54884
1.54737
1.54635
1.54564
1.54503
1.54458
1.54429
1.54437
1.54506
1.54647
1.54885
1.55202
1.55416
1.55395
1.55262
1.55105
1.54923
1.54717
1.5443
1.54016
1.53456
1.52791
1.52134
1.51591
1.5122
1.50977
1.50792
1.50688
1.50701
1.50933
1.51472
1.52389
1.53764
1.55564
1.57762
1.6019
1.62604
1.65018
1.67204
1.69144
1.71104
1.72334
1.72779
1.73052
1.73394
1.73501
1.73474
1.73397
1.72858
1.71841
1.70734
1.70087
1.69509
1.69042
1.68611
1.67971
1.6714
1.66279
1.65307
1.64309
1.63245
1.62629
1.62431
1.62303
1.62024
1.61445
1.60548
1.59301
1.57921
1.56875
1.56189
1.55697
1.55178
1.54514
1.54013
1.53879
1.53973
1.54296
1.54445
1.54478
1.54353
1.54091
1.5368
1.53086
1.52281
1.51315
1.50496
1.49987
1.49704
1.49616
1.4944
1.4916
1.48761
1.48396
1.48305
1.48408
1.48757
1.59047
1.58912
1.58657
1.58199
1.5787
1.57504
1.57101
1.56735
1.56395
1.56084
1.55744
1.55444
1.55253
1.5498
1.54664
1.54512
1.54298
1.5413
1.54089
1.54129
1.54241
1.54438
1.54693
1.55013
1.55335
1.55591
1.55778
1.55831
1.55814
1.55746
1.55659
1.55554
1.55419
1.55291
1.55168
1.55056
1.54976
1.54923
1.5488
1.54839
1.54821
1.54851
1.54941
1.55104
1.55358
1.55672
1.55918
1.55893
1.55721
1.55553
1.55363
1.55124
1.54776
1.54308
1.53703
1.53004
1.52315
1.51738
1.51307
1.50985
1.50719
1.50472
1.50236
1.50007
1.49787
1.49568
1.49414
1.49399
1.496
1.50052
1.50803
1.51913
1.5336
1.55119
1.57044
1.59057
1.60993
1.62835
1.64562
1.65924
1.66786
1.67286
1.67783
1.68133
1.6825
1.68302
1.68241
1.67684
1.67042
1.66427
1.65753
1.65156
1.64636
1.6406
1.63535
1.63077
1.62608
1.62074
1.61514
1.60831
1.60049
1.59117
1.58509
1.58437
1.58232
1.57888
1.57461
1.56847
1.56106
1.5538
1.5478
1.54288
1.53856
1.53546
1.53364
1.53237
1.53131
1.53059
1.52882
1.52635
1.52361
1.52019
1.517
1.514
1.50969
1.50432
1.49931
1.49446
1.48972
1.48718
1.48747
1.48929
1.59148
1.59041
1.58751
1.58335
1.58039
1.577
1.57289
1.56887
1.56531
1.56162
1.55749
1.55455
1.5522
1.54873
1.54617
1.5445
1.54317
1.54312
1.54383
1.54516
1.54717
1.54974
1.55274
1.55593
1.55863
1.56065
1.56135
1.5612
1.56104
1.56017
1.5589
1.55759
1.55628
1.55507
1.55433
1.55377
1.55331
1.55299
1.55282
1.55287
1.5533
1.55434
1.55624
1.55907
1.56234
1.5647
1.56471
1.56303
1.56102
1.55882
1.55612
1.5521
1.54669
1.5399
1.53234
1.52502
1.5189
1.51428
1.51081
1.50796
1.50529
1.50255
1.49966
1.49669
1.49354
1.4904
1.48759
1.48509
1.48301
1.48121
1.47998
1.48001
1.48137
1.48448
1.48964
1.49679
1.50615
1.51743
1.53058
1.54399
1.55733
1.57129
1.5831
1.59263
1.59997
1.6068
1.61248
1.61541
1.6184
1.61921
1.61936
1.61983
1.61989
1.61907
1.61809
1.61711
1.61432
1.60968
1.60294
1.59429
1.58505
1.57851
1.57523
1.57217
1.56991
1.56589
1.5601
1.55412
1.54876
1.54618
1.54469
1.54298
1.54072
1.53891
1.53789
1.53791
1.53881
1.54011
1.5406
1.54063
1.5408
1.54011
1.53734
1.53291
1.52575
1.51635
1.51007
1.50682
1.50477
1.50367
1.50295
1.49907
1.59309
1.59183
1.58885
1.58484
1.58215
1.57899
1.57475
1.57074
1.56706
1.56297
1.55879
1.5557
1.55251
1.54909
1.54645
1.54519
1.54538
1.54641
1.5482
1.55062
1.55353
1.55671
1.55989
1.56239
1.56428
1.56491
1.56453
1.56395
1.56379
1.56262
1.56142
1.56022
1.55926
1.5588
1.55845
1.55817
1.558
1.55792
1.55813
1.55885
1.56011
1.56215
1.56514
1.56854
1.57082
1.57074
1.56922
1.56726
1.56476
1.56156
1.55707
1.55116
1.54365
1.53531
1.52736
1.52079
1.51583
1.51202
1.50888
1.506
1.50312
1.50007
1.49683
1.49351
1.4901
1.4867
1.48335
1.48012
1.47711
1.47443
1.47224
1.47028
1.46855
1.46725
1.46613
1.46504
1.46483
1.46556
1.467
1.46947
1.47302
1.47787
1.48389
1.49017
1.49734
1.50472
1.51234
1.51957
1.52574
1.53249
1.53785
1.54246
1.54802
1.55028
1.55269
1.55529
1.55617
1.55723
1.55815
1.55773
1.55724
1.55754
1.55606
1.55165
1.54603
1.53876
1.53166
1.52707
1.52542
1.52513
1.52569
1.52603
1.52582
1.52537
1.52598
1.52686
1.52719
1.52861
1.52844
1.52848
1.52885
1.52669
1.52459
1.52195
1.51771
1.51435
1.51452
1.51692
1.51975
1.52121
1.51827
1.50761
1.59482
1.59345
1.59052
1.58645
1.58394
1.58087
1.57686
1.57315
1.5693
1.56498
1.56095
1.55745
1.55403
1.55058
1.54831
1.54833
1.54926
1.55115
1.55389
1.55722
1.56083
1.56435
1.5673
1.56927
1.57007
1.56968
1.56873
1.56805
1.5674
1.56587
1.56461
1.56368
1.56327
1.56319
1.56315
1.56321
1.5636
1.56421
1.56511
1.56673
1.56912
1.57214
1.57541
1.57749
1.57716
1.57559
1.57366
1.57107
1.56735
1.56221
1.5558
1.54788
1.53907
1.53061
1.5235
1.51798
1.51367
1.51014
1.50701
1.50393
1.5007
1.49723
1.49359
1.4899
1.48617
1.48255
1.47918
1.47603
1.47288
1.46986
1.4671
1.46444
1.4621
1.46027
1.45848
1.45661
1.45477
1.45271
1.45015
1.4473
1.44455
1.44191
1.43935
1.4371
1.43582
1.43558
1.43603
1.43735
1.43923
1.44207
1.44611
1.4499
1.45436
1.45938
1.46401
1.46971
1.47434
1.4774
1.48128
1.48281
1.48494
1.48914
1.48954
1.48982
1.49119
1.49015
1.48971
1.49096
1.49043
1.48799
1.48504
1.4826
1.48085
1.47849
1.47931
1.48142
1.48227
1.4862
1.48925
1.49455
1.4993
1.50306
1.50828
1.51151
1.51391
1.51842
1.52065
1.51973
1.51684
1.51266
1.50777
1.5006
1.59713
1.59607
1.59311
1.58899
1.58629
1.58297
1.57917
1.57555
1.57162
1.56758
1.56366
1.56014
1.55663
1.55347
1.55261
1.55307
1.5545
1.55698
1.56036
1.5643
1.56829
1.57174
1.57454
1.57591
1.57605
1.57529
1.57416
1.57329
1.57198
1.57065
1.56963
1.56893
1.56868
1.56867
1.56891
1.56955
1.57066
1.57222
1.57424
1.57696
1.58018
1.58313
1.5847
1.58421
1.58265
1.58052
1.57757
1.57335
1.56766
1.56059
1.55216
1.54314
1.53455
1.52725
1.52138
1.51655
1.51231
1.50839
1.50471
1.50117
1.4976
1.49395
1.49029
1.48668
1.48297
1.47901
1.47518
1.47161
1.46819
1.46519
1.46262
1.46026
1.45804
1.45605
1.454
1.45174
1.4494
1.44674
1.44361
1.4402
1.43662
1.4328
1.42864
1.42428
1.42005
1.41594
1.41187
1.40785
1.40434
1.40136
1.39885
1.39662
1.39528
1.395
1.39497
1.39554
1.39646
1.39751
1.3995
1.4013
1.403
1.40589
1.40759
1.40937
1.41096
1.41068
1.4124
1.41552
1.41539
1.4143
1.41447
1.41561
1.41649
1.4164
1.4173
1.42157
1.42446
1.42704
1.43462
1.44399
1.45045
1.46149
1.4729
1.48144
1.4895
1.49989
1.5067
1.50652
1.50523
1.50413
1.50346
1.50105
1.59914
1.59875
1.59602
1.59228
1.5894
1.58598
1.58234
1.57862
1.57469
1.57065
1.56664
1.56326
1.55987
1.55812
1.55826
1.55915
1.56105
1.56392
1.56769
1.57174
1.57546
1.57869
1.58115
1.58203
1.58209
1.5814
1.58024
1.57906
1.57783
1.57675
1.57594
1.57549
1.57548
1.57584
1.57666
1.57804
1.58004
1.58271
1.58591
1.58924
1.5919
1.59264
1.5918
1.59027
1.58786
1.58427
1.57927
1.57296
1.56529
1.55643
1.54725
1.5387
1.53139
1.52531
1.52007
1.51539
1.51106
1.50694
1.50299
1.4991
1.49517
1.49112
1.4871
1.4832
1.47924
1.47519
1.47139
1.46788
1.46432
1.46098
1.45831
1.45589
1.45357
1.45155
1.44962
1.44765
1.44561
1.44318
1.44021
1.43676
1.433
1.42884
1.42429
1.41947
1.41459
1.40958
1.40457
1.39959
1.39486
1.39035
1.38595
1.38184
1.37824
1.37493
1.37163
1.36838
1.36548
1.36278
1.36035
1.35799
1.35592
1.35442
1.35323
1.35201
1.35032
1.34929
1.34921
1.34853
1.34697
1.34532
1.34434
1.34358
1.3426
1.34133
1.34087
1.343
1.34546
1.34717
1.35152
1.35951
1.36838
1.37825
1.39101
1.40627
1.41898
1.43147
1.44698
1.45879
1.46773
1.47633
1.48553
1.48766
1.60136
1.60146
1.59926
1.59585
1.59257
1.58901
1.58542
1.58181
1.5782
1.57403
1.57029
1.56697
1.56453
1.56432
1.56499
1.56649
1.56882
1.57202
1.57608
1.57979
1.58284
1.58564
1.5874
1.58776
1.58777
1.58729
1.58628
1.58524
1.58435
1.58368
1.58317
1.5831
1.58362
1.58463
1.5863
1.58876
1.59199
1.59575
1.59931
1.6015
1.60143
1.60032
1.59852
1.5955
1.59095
1.58505
1.57799
1.56962
1.56042
1.55127
1.54292
1.53574
1.52966
1.52435
1.5195
1.51488
1.51032
1.50572
1.5012
1.49692
1.49282
1.48879
1.48486
1.48099
1.47689
1.47227
1.46802
1.46423
1.46045
1.45712
1.45468
1.45248
1.45033
1.4484
1.4465
1.44441
1.44216
1.43969
1.43678
1.43344
1.42991
1.42596
1.42152
1.41667
1.41156
1.40619
1.40077
1.39547
1.39045
1.38568
1.38112
1.37684
1.37285
1.36894
1.36495
1.36101
1.35725
1.35354
1.34993
1.34629
1.34276
1.33966
1.33665
1.33332
1.32979
1.32671
1.3235
1.31991
1.31606
1.31223
1.30848
1.30468
1.30088
1.29698
1.29419
1.29216
1.29057
1.28915
1.28899
1.29088
1.29457
1.29977
1.30683
1.31597
1.32801
1.34089
1.35497
1.37224
1.38907
1.40262
1.41667
1.43092
1.60434
1.6037
1.60163
1.59876
1.59588
1.59266
1.58904
1.58553
1.58179
1.57746
1.57394
1.57132
1.57073
1.57119
1.57242
1.57447
1.57735
1.58092
1.58504
1.58822
1.59069
1.593
1.59396
1.59396
1.59387
1.59332
1.59253
1.59193
1.5916
1.59158
1.59188
1.59265
1.59391
1.59585
1.5987
1.60237
1.60645
1.61
1.6115
1.61101
1.60971
1.60726
1.60319
1.59781
1.5911
1.58303
1.57383
1.56424
1.55512
1.54715
1.54034
1.53438
1.529
1.52394
1.51903
1.51426
1.50968
1.50517
1.50068
1.49629
1.49189
1.48732
1.48289
1.47868
1.47432
1.46976
1.46586
1.46224
1.4586
1.45493
1.45203
1.44959
1.44721
1.445
1.4429
1.44074
1.43863
1.43649
1.43403
1.4312
1.42801
1.42422
1.41971
1.41465
1.40938
1.40392
1.39842
1.39309
1.38806
1.38323
1.37851
1.37396
1.36971
1.36561
1.36151
1.35748
1.35361
1.34976
1.34595
1.34203
1.33814
1.33458
1.331
1.32707
1.32307
1.31924
1.31511
1.31061
1.30587
1.301
1.29595
1.29083
1.2858
1.28107
1.27723
1.27386
1.27063
1.26758
1.26511
1.26327
1.26168
1.26035
1.25986
1.26034
1.26243
1.26636
1.27199
1.28014
1.29178
1.30406
1.31532
1.33768
1.60685
1.6046
1.6033
1.6019
1.59949
1.59639
1.59281
1.58928
1.58518
1.58097
1.578
1.57708
1.57752
1.57863
1.58042
1.58315
1.58661
1.59035
1.59418
1.59698
1.59897
1.60066
1.60099
1.60084
1.60066
1.60033
1.59997
1.59983
1.60028
1.60113
1.60238
1.60416
1.60655
1.60977
1.61378
1.61796
1.62109
1.62175
1.62089
1.61916
1.61591
1.61102
1.60487
1.59729
1.5882
1.57815
1.56825
1.55929
1.55163
1.54512
1.53933
1.53393
1.52883
1.52394
1.51911
1.5143
1.50953
1.50469
1.49986
1.49523
1.49071
1.48604
1.48165
1.47759
1.47339
1.4687
1.46443
1.4606
1.45678
1.45294
1.44988
1.44728
1.44466
1.44225
1.4402
1.43827
1.43633
1.43422
1.43171
1.42868
1.42545
1.42179
1.41748
1.41268
1.40766
1.40238
1.39692
1.39149
1.38625
1.38123
1.37632
1.3716
1.36728
1.3632
1.35918
1.35523
1.35139
1.34754
1.34364
1.33956
1.33554
1.33181
1.32803
1.32396
1.31984
1.31571
1.31122
1.30629
1.30109
1.29572
1.29031
)
;

boundaryField
{
    inlet
    {
        type            fixedValue;
        value           nonuniform 0();
    }
    outlet
    {
        type            zeroGradient;
    }
    bottom
    {
        type            symmetryPlane;
    }
    top
    {
        type            symmetryPlane;
    }
    obstacle
    {
        type            zeroGradient;
    }
    front
    {
        type            empty;
    }
    back
    {
        type            empty;
    }
    procBoundary23to15
    {
        type            processor;
        value           nonuniform List<scalar> 
133
(
1.63592
1.62893
1.62135
1.61257
1.60312
1.59637
1.58867
1.57794
1.57011
1.56255
1.55218
1.54415
1.53774
1.53045
1.52424
1.51892
1.51428
1.50926
1.50307
1.49834
1.49419
1.49
1.4856
1.48187
1.4795
1.47809
1.47716
1.47724
1.47832
1.47974
1.48136
1.48374
1.48641
1.48921
1.49206
1.49422
1.49704
1.49973
1.50215
1.50613
1.50988
1.51252
1.51682
1.5214
1.52366
1.52732
1.53243
1.53611
1.54057
1.54614
1.54909
1.55223
1.55668
1.55875
1.5607
1.56484
1.56663
1.56976
1.56576
1.56575
1.56481
1.56144
1.559
1.55669
1.55392
1.55276
1.55164
1.54888
1.54749
1.54689
1.54458
1.54263
1.54177
1.5403
1.53753
1.53534
1.53316
1.53002
1.52749
1.52568
1.52245
1.51897
1.51689
1.51399
1.51071
1.50853
1.50718
1.50665
1.50683
1.50761
1.50913
1.5114
1.51429
1.5181
1.52123
1.52618
1.5292
1.53443
1.55124
1.58626
1.65052
1.73204
1.8121
1.88312
1.91989
1.94423
1.95796
1.9587
1.95641
1.95304
1.94773
1.94164
1.93089
1.91586
1.8967
1.8761
1.85484
1.83588
1.81853
1.8003
1.78239
1.76504
1.74677
1.73256
1.72091
1.70983
1.70021
1.69184
1.68236
1.67153
1.66517
1.65883
1.65883
)
;
    }
    procBoundary23to22
    {
        type            processor;
        value           nonuniform List<scalar> 
17
(
1.5715
1.57595
1.57951
1.58224
1.58405
1.58519
1.58657
1.58821
1.59021
1.59088
1.59126
1.59315
1.59585
1.5984
1.60007
1.60154
1.60429
)
;
    }
    procBoundary23to30
    {
        type            processor;
        value           uniform 1.60719;
    }
    procBoundary23to31
    {
        type            processor;
        value           nonuniform List<scalar> 
133
(
1.28507
1.28012
1.27577
1.27223
1.26899
1.26574
1.2626
1.25983
1.25718
1.2544
1.25152
1.2486
1.24559
1.24245
1.23964
1.23738
1.23558
1.23442
1.23509
1.23656
1.24525
1.6081
1.60593
1.60603
1.60559
1.60315
1.60001
1.59653
1.59271
1.58876
1.58544
1.58392
1.58421
1.58511
1.5866
1.58902
1.59253
1.59633
1.59983
1.60321
1.60563
1.60704
1.60806
1.60816
1.60808
1.60815
1.60834
1.60874
1.60956
1.61097
1.6129
1.61541
1.61849
1.62208
1.62609
1.62997
1.63229
1.63209
1.63072
1.62818
1.62407
1.61877
1.6119
1.60336
1.59338
1.58277
1.5727
1.56403
1.5568
1.55051
1.54478
1.53935
1.53411
1.52906
1.52415
1.51923
1.51433
1.50949
1.50457
1.49961
1.49492
1.4904
1.48567
1.48102
1.47676
1.47241
1.4676
1.46339
1.4597
1.45596
1.4521
1.44855
1.44563
1.44295
1.44047
1.43817
1.43595
1.43378
1.43159
1.42915
1.42638
1.42331
1.41971
1.41547
1.4108
1.40597
1.4009
1.39556
1.39016
1.38492
1.37983
1.37479
1.36993
1.36556
1.36152
1.35754
1.35362
1.34979
1.34597
1.34209
1.33804
1.33408
1.33032
1.32641
1.32225
1.31807
1.31379
1.309
1.30374
1.29826
1.29284
1.28507
1.28772
)
;
    }
}


// ************************************************************************* //
