/*--------------------------------*- C++ -*----------------------------------*\
  =========                 |
  \\      /  F ield         | OpenFOAM: The Open Source CFD Toolbox
   \\    /   O peration     | Website:  https://openfoam.org
    \\  /    A nd           | Version:  7
     \\/     M anipulation  |
\*---------------------------------------------------------------------------*/
FoamFile
{
    version     2.0;
    format      ascii;
    class       volVectorField;
    location    "9";
    object      U;
}
// * * * * * * * * * * * * * * * * * * * * * * * * * * * * * * * * * * * * * //

dimensions      [0 1 -1 0 0 0 0];

internalField   nonuniform List<vector> 
2413
(
(1.7849 -0.0632545 0)
(1.78872 -0.0669826 0)
(1.79203 -0.0706215 0)
(1.79534 -0.0728946 0)
(1.79857 -0.0753395 0)
(1.8027 -0.079409 0)
(1.80669 -0.0831754 0)
(1.8106 -0.0852892 0)
(1.81528 -0.0894257 0)
(1.81878 -0.0932658 0)
(1.82175 -0.0951708 0)
(1.82578 -0.0986109 0)
(1.8286 -0.10068 0)
(1.83125 -0.103011 0)
(1.83499 -0.106955 0)
(1.83746 -0.109794 0)
(1.84002 -0.112669 0)
(1.84251 -0.115593 0)
(1.84462 -0.117612 0)
(1.84683 -0.120565 0)
(1.84823 -0.123341 0)
(1.84953 -0.125676 0)
(1.85119 -0.128049 0)
(1.8527 -0.129616 0)
(1.85376 -0.130978 0)
(1.85444 -0.132764 0)
(1.85442 -0.134078 0)
(1.85377 -0.134749 0)
(1.85277 -0.135457 0)
(1.85164 -0.136004 0)
(1.84994 -0.136117 0)
(1.84817 -0.135809 0)
(1.84602 -0.135363 0)
(1.8438 -0.13477 0)
(1.84172 -0.133949 0)
(1.83955 -0.132976 0)
(1.83799 -0.131848 0)
(1.83603 -0.130247 0)
(1.83402 -0.128131 0)
(1.83253 -0.126769 0)
(1.83043 -0.124679 0)
(1.82836 -0.12214 0)
(1.82704 -0.120752 0)
(1.82464 -0.118484 0)
(1.82232 -0.115359 0)
(1.82083 -0.113912 0)
(1.81841 -0.11112 0)
(1.81597 -0.107559 0)
(1.81471 -0.105413 0)
(1.81253 -0.10251 0)
(1.8103 -0.0992058 0)
(1.80934 -0.0968683 0)
(1.80786 -0.0938403 0)
(1.80532 -0.0913483 0)
(1.80378 -0.0894286 0)
(1.80137 -0.086787 0)
(1.79923 -0.0848079 0)
(1.79629 -0.080335 0)
(1.71316 -0.183104 0)
(1.7145 -0.181845 0)
(1.71545 -0.180923 0)
(1.71663 -0.179954 0)
(1.71866 -0.178739 0)
(1.72027 -0.177559 0)
(1.72179 -0.176168 0)
(1.72377 -0.174767 0)
(1.72536 -0.173115 0)
(1.72638 -0.171411 0)
(1.72788 -0.169762 0)
(1.72925 -0.168222 0)
(1.73027 -0.166705 0)
(1.73191 -0.165775 0)
(1.73366 -0.165345 0)
(1.73528 -0.164747 0)
(1.73701 -0.164227 0)
(1.73923 -0.16378 0)
(1.74124 -0.16302 0)
(1.74314 -0.162053 0)
(1.74538 -0.161236 0)
(1.74751 -0.160035 0)
(1.74917 -0.158958 0)
(1.75123 -0.157712 0)
(1.7534 -0.156463 0)
(1.75491 -0.15534 0)
(1.75658 -0.154167 0)
(1.75819 -0.15367 0)
(1.75917 -0.153812 0)
(1.76001 -0.153945 0)
(1.76046 -0.154373 0)
(1.7607 -0.154557 0)
(1.76042 -0.155604 0)
(1.7602 -0.156312 0)
(1.75992 -0.157279 0)
(1.75974 -0.158501 0)
(1.76015 -0.159204 0)
(1.76072 -0.159055 0)
(1.76184 -0.159029 0)
(1.76272 -0.158462 0)
(1.76376 -0.15722 0)
(1.76397 -0.155221 0)
(1.76143 -0.149698 0)
(1.75392 -0.136953 0)
(1.74152 -0.116137 0)
(1.72342 -0.087321 0)
(1.70642 -0.055478 0)
(1.69862 -0.0368857 0)
(1.68496 -0.0112281 0)
(1.67811 0.0102849 0)
(1.67847 0.0124764 0)
(1.68393 0.0118078 0)
(1.68908 0.0147896 0)
(1.69424 0.0181407 0)
(1.69926 0.0201172 0)
(1.70397 0.0199079 0)
(1.70967 0.0183548 0)
(1.7149 0.0158189 0)
(1.71963 0.0127408 0)
(1.72495 0.0080962 0)
(1.73046 0.00295681 0)
(1.73567 -0.00263169 0)
(1.74006 -0.00854927 0)
(1.74449 -0.0159163 0)
(1.74864 -0.0240603 0)
(1.75205 -0.0283454 0)
(1.75433 -0.0296281 0)
(1.75611 -0.0327041 0)
(1.76032 -0.0383759 0)
(1.76549 -0.0451604 0)
(1.76886 -0.0505555 0)
(1.77154 -0.0521112 0)
(1.774 -0.053696 0)
(1.77766 -0.0577051 0)
(1.78052 -0.0610956 0)
(1.7834 -0.0644771 0)
(1.78683 -0.0683833 0)
(1.79046 -0.0719078 0)
(1.79426 -0.0745757 0)
(1.7981 -0.0777362 0)
(1.80246 -0.0823672 0)
(1.80599 -0.0856109 0)
(1.80997 -0.0881184 0)
(1.81329 -0.0903466 0)
(1.81693 -0.0937866 0)
(1.82088 -0.0982946 0)
(1.82399 -0.100347 0)
(1.82684 -0.102301 0)
(1.83065 -0.106182 0)
(1.83332 -0.108844 0)
(1.83574 -0.110483 0)
(1.83884 -0.113943 0)
(1.84082 -0.116546 0)
(1.84243 -0.117856 0)
(1.84418 -0.120235 0)
(1.84588 -0.122712 0)
(1.84784 -0.125059 0)
(1.84969 -0.126516 0)
(1.85122 -0.127725 0)
(1.85239 -0.129505 0)
(1.85309 -0.131609 0)
(1.85294 -0.133153 0)
(1.85241 -0.134038 0)
(1.85148 -0.134819 0)
(1.85007 -0.135062 0)
(1.84871 -0.134524 0)
(1.84687 -0.133676 0)
(1.84481 -0.132774 0)
(1.84277 -0.131793 0)
(1.84075 -0.130677 0)
(1.83928 -0.129495 0)
(1.8374 -0.128098 0)
(1.83531 -0.126278 0)
(1.83389 -0.12503 0)
(1.83205 -0.123347 0)
(1.83044 -0.120955 0)
(1.82974 -0.119282 0)
(1.82809 -0.116218 0)
(1.82652 -0.112597 0)
(1.82535 -0.111328 0)
(1.82285 -0.108524 0)
(1.82076 -0.105261 0)
(1.82 -0.102635 0)
(1.81795 -0.0991281 0)
(1.81511 -0.0957281 0)
(1.81353 -0.0934314 0)
(1.81079 -0.0906111 0)
(1.80827 -0.0879315 0)
(1.8072 -0.0853832 0)
(1.80509 -0.082015 0)
(1.80299 -0.0798031 0)
(1.79972 -0.0753602 0)
(1.71549 -0.182043 0)
(1.71665 -0.180941 0)
(1.71764 -0.180005 0)
(1.71888 -0.179014 0)
(1.72116 -0.177902 0)
(1.72317 -0.176679 0)
(1.72481 -0.175503 0)
(1.72686 -0.174082 0)
(1.72861 -0.172318 0)
(1.72956 -0.170625 0)
(1.73083 -0.168756 0)
(1.7322 -0.167364 0)
(1.73319 -0.166083 0)
(1.7347 -0.1652 0)
(1.73631 -0.164881 0)
(1.73783 -0.164291 0)
(1.73947 -0.163712 0)
(1.74174 -0.163129 0)
(1.74375 -0.16227 0)
(1.74574 -0.16122 0)
(1.74812 -0.160391 0)
(1.75013 -0.159257 0)
(1.75193 -0.158072 0)
(1.75413 -0.157181 0)
(1.75597 -0.156042 0)
(1.75743 -0.154675 0)
(1.75885 -0.154299 0)
(1.75972 -0.154206 0)
(1.76038 -0.154307 0)
(1.76074 -0.154525 0)
(1.76063 -0.155124 0)
(1.76023 -0.15588 0)
(1.75966 -0.157025 0)
(1.75933 -0.157423 0)
(1.75917 -0.158317 0)
(1.75938 -0.159032 0)
(1.75998 -0.158666 0)
(1.76128 -0.158815 0)
(1.76277 -0.15919 0)
(1.76427 -0.158933 0)
(1.76553 -0.158319 0)
(1.76674 -0.157473 0)
(1.76788 -0.156337 0)
(1.76823 -0.154368 0)
(1.76696 -0.150117 0)
(1.76193 -0.140921 0)
(1.75172 -0.123423 0)
(1.73854 -0.0996678 0)
(1.72179 -0.0704075 0)
(1.71043 -0.0450273 0)
(1.70735 -0.0300102 0)
(1.69612 -0.00614038 0)
(1.69313 0.0104161 0)
(1.69468 0.0115135 0)
(1.70186 0.0120069 0)
(1.70781 0.0141848 0)
(1.7097 0.0154511 0)
(1.7124 0.0158089 0)
(1.71634 0.0148917 0)
(1.72026 0.011801 0)
(1.72354 0.00977052 0)
(1.72641 0.00760673 0)
(1.73012 0.0033699 0)
(1.73454 -0.0020846 0)
(1.73886 -0.00791189 0)
(1.74261 -0.0135133 0)
(1.74722 -0.0207668 0)
(1.75167 -0.0293256 0)
(1.7553 -0.0331359 0)
(1.75795 -0.0341399 0)
(1.75996 -0.0377276 0)
(1.76507 -0.0439408 0)
(1.76962 -0.0514501 0)
(1.7729 -0.0553873 0)
(1.77568 -0.0572216 0)
(1.7784 -0.0593911 0)
(1.7817 -0.0631948 0)
(1.78614 -0.0685031 0)
(1.7901 -0.0735806 0)
(1.79362 -0.0755714 0)
(1.79636 -0.0764519 0)
(1.80087 -0.0808718 0)
(1.80493 -0.085549 0)
(1.80852 -0.0881453 0)
(1.81295 -0.0918708 0)
(1.8166 -0.0959008 0)
(1.81972 -0.0971995 0)
(1.8227 -0.0981107 0)
(1.82649 -0.10174 0)
(1.82939 -0.105464 0)
(1.8315 -0.107333 0)
(1.83405 -0.11023 0)
(1.83655 -0.113297 0)
(1.83876 -0.115442 0)
(1.84139 -0.118345 0)
(1.84373 -0.121142 0)
(1.84589 -0.122714 0)
(1.84766 -0.123538 0)
(1.84898 -0.124183 0)
(1.84976 -0.125375 0)
(1.85069 -0.127367 0)
(1.85137 -0.129205 0)
(1.85167 -0.129862 0)
(1.85181 -0.13035 0)
(1.85113 -0.130713 0)
(1.84939 -0.130483 0)
(1.84758 -0.129785 0)
(1.84656 -0.129353 0)
(1.84518 -0.128391 0)
(1.84389 -0.126984 0)
(1.84245 -0.125372 0)
(1.84063 -0.123914 0)
(1.8384 -0.12243 0)
(1.83675 -0.121067 0)
(1.8351 -0.119793 0)
(1.83314 -0.117822 0)
(1.83196 -0.116479 0)
(1.83038 -0.114445 0)
(1.82891 -0.111471 0)
(1.82821 -0.109627 0)
(1.82615 -0.106431 0)
(1.82424 -0.102656 0)
(1.8237 -0.100164 0)
(1.82165 -0.0958391 0)
(1.82019 -0.091795 0)
(1.81915 -0.0895032 0)
(1.81657 -0.0865138 0)
(1.81398 -0.0837813 0)
(1.81222 -0.080143 0)
(1.80866 -0.0765411 0)
(1.80721 -0.0735038 0)
(1.80354 -0.0686689 0)
(1.71756 -0.180815 0)
(1.71867 -0.179817 0)
(1.71999 -0.178823 0)
(1.72136 -0.177894 0)
(1.72381 -0.176802 0)
(1.72596 -0.175612 0)
(1.72762 -0.174548 0)
(1.7296 -0.173014 0)
(1.73136 -0.17113 0)
(1.73234 -0.169366 0)
(1.73354 -0.167513 0)
(1.73499 -0.166493 0)
(1.73606 -0.165491 0)
(1.7375 -0.164631 0)
(1.73912 -0.164219 0)
(1.74054 -0.163495 0)
(1.74219 -0.162816 0)
(1.74446 -0.162 0)
(1.74632 -0.161073 0)
(1.7484 -0.159985 0)
(1.75076 -0.159013 0)
(1.75253 -0.157813 0)
(1.75467 -0.156878 0)
(1.75656 -0.156054 0)
(1.75815 -0.15496 0)
(1.75931 -0.154313 0)
(1.76024 -0.154261 0)
(1.76082 -0.154386 0)
(1.76093 -0.154914 0)
(1.76073 -0.155487 0)
(1.76024 -0.15618 0)
(1.7596 -0.156942 0)
(1.75904 -0.157718 0)
(1.75872 -0.158563 0)
(1.75894 -0.15858 0)
(1.75938 -0.158495 0)
(1.76045 -0.158764 0)
(1.76189 -0.158725 0)
(1.76329 -0.158371 0)
(1.76482 -0.158286 0)
(1.76654 -0.158123 0)
(1.76819 -0.157564 0)
(1.76965 -0.156807 0)
(1.77058 -0.155742 0)
(1.77146 -0.154427 0)
(1.77204 -0.152956 0)
(1.77172 -0.150261 0)
(1.76899 -0.143883 0)
(1.76237 -0.131268 0)
(1.75199 -0.111297 0)
(1.74011 -0.0859044 0)
(1.72742 -0.0578429 0)
(1.72236 -0.0400688 0)
(1.71955 -0.0249477 0)
(1.71061 -0.00347537 0)
(1.70889 0.010217 0)
(1.70905 0.010378 0)
(1.71481 0.00922384 0)
(1.71691 0.00796245 0)
(1.71879 0.00764752 0)
(1.72104 0.00811884 0)
(1.72347 0.007978 0)
(1.7257 0.00525501 0)
(1.72776 0.00324013 0)
(1.72986 0.00162257 0)
(1.73356 -0.00186459 0)
(1.73801 -0.00670792 0)
(1.74219 -0.0116414 0)
(1.74657 -0.0166127 0)
(1.75151 -0.0233543 0)
(1.75527 -0.0294398 0)
(1.75878 -0.0336108 0)
(1.76172 -0.0369691 0)
(1.76369 -0.0404088 0)
(1.7686 -0.0463275 0)
(1.77377 -0.0540498 0)
(1.77745 -0.0584222 0)
(1.78008 -0.0590121 0)
(1.78279 -0.0619854 0)
(1.78851 -0.0684364 0)
(1.79252 -0.072982 0)
(1.79651 -0.0760013 0)
(1.80067 -0.0801293 0)
(1.80417 -0.082263 0)
(1.80718 -0.0836662 0)
(1.81169 -0.0880157 0)
(1.81578 -0.0921113 0)
(1.82005 -0.095902 0)
(1.82384 -0.0995227 0)
(1.82592 -0.100938 0)
(1.82807 -0.103455 0)
(1.83093 -0.10742 0)
(1.83336 -0.109634 0)
(1.83582 -0.110507 0)
(1.83801 -0.112139 0)
(1.83971 -0.114301 0)
(1.8411 -0.115687 0)
(1.84268 -0.117012 0)
(1.84437 -0.118264 0)
(1.84589 -0.119553 0)
(1.847 -0.121 0)
(1.84779 -0.12265 0)
(1.84859 -0.123923 0)
(1.84921 -0.124583 0)
(1.84954 -0.124828 0)
(1.84916 -0.124642 0)
(1.84849 -0.124096 0)
(1.84735 -0.123325 0)
(1.84563 -0.122496 0)
(1.84384 -0.121571 0)
(1.84215 -0.120484 0)
(1.84078 -0.119335 0)
(1.83964 -0.118074 0)
(1.83886 -0.116655 0)
(1.83838 -0.11515 0)
(1.83707 -0.112993 0)
(1.83593 -0.111619 0)
(1.83439 -0.110211 0)
(1.83245 -0.108162 0)
(1.83161 -0.106291 0)
(1.83008 -0.103089 0)
(1.82852 -0.099358 0)
(1.82789 -0.0969281 0)
(1.82591 -0.0935259 0)
(1.82422 -0.0899184 0)
(1.82346 -0.0865938 0)
(1.82037 -0.0827935 0)
(1.81789 -0.0787847 0)
(1.81588 -0.0748921 0)
(1.81199 -0.0718306 0)
(1.81035 -0.0684076 0)
(1.80587 -0.0623348 0)
(1.71968 -0.179313 0)
(1.72086 -0.178311 0)
(1.72245 -0.177105 0)
(1.7239 -0.176309 0)
(1.72636 -0.175228 0)
(1.72845 -0.173996 0)
(1.73 -0.17286 0)
(1.73193 -0.17124 0)
(1.73363 -0.169397 0)
(1.73475 -0.167704 0)
(1.7361 -0.166035 0)
(1.73763 -0.165302 0)
(1.73895 -0.164482 0)
(1.74026 -0.163575 0)
(1.74196 -0.1629 0)
(1.74339 -0.161976 0)
(1.74525 -0.161158 0)
(1.74723 -0.160151 0)
(1.74893 -0.159228 0)
(1.75121 -0.158191 0)
(1.75306 -0.157041 0)
(1.75504 -0.15601 0)
(1.75694 -0.155178 0)
(1.75855 -0.154308 0)
(1.75963 -0.153861 0)
(1.76054 -0.15378 0)
(1.7611 -0.153871 0)
(1.76122 -0.154282 0)
(1.76089 -0.154983 0)
(1.76023 -0.155933 0)
(1.75948 -0.156975 0)
(1.75893 -0.157492 0)
(1.75865 -0.158154 0)
(1.75876 -0.158303 0)
(1.75921 -0.15782 0)
(1.76016 -0.157701 0)
(1.76121 -0.157558 0)
(1.76262 -0.157375 0)
(1.76407 -0.157112 0)
(1.76554 -0.156911 0)
(1.76717 -0.1568 0)
(1.76889 -0.156714 0)
(1.77031 -0.156132 0)
(1.77168 -0.155264 0)
(1.77253 -0.154221 0)
(1.77352 -0.15335 0)
(1.77468 -0.152775 0)
(1.77594 -0.151542 0)
(1.77706 -0.149915 0)
(1.77677 -0.145445 0)
(1.77353 -0.136035 0)
(1.76729 -0.121282 0)
(1.75779 -0.0995081 0)
(1.74765 -0.0761096 0)
(1.73774 -0.0541067 0)
(1.73362 -0.0395027 0)
(1.72949 -0.0247046 0)
(1.72066 -0.00613456 0)
(1.71838 0.00440428 0)
(1.71685 0.00377138 0)
(1.72078 0.0011161 0)
(1.72252 -0.000802416 0)
(1.72414 -0.000572362 0)
(1.72565 0.000274136 0)
(1.72804 0.000287588 0)
(1.73037 -0.000898264 0)
(1.73309 -0.00274312 0)
(1.73594 -0.00388773 0)
(1.73926 -0.00590522 0)
(1.74301 -0.00942962 0)
(1.74659 -0.0135179 0)
(1.75055 -0.0178029 0)
(1.75428 -0.0220416 0)
(1.75808 -0.0269425 0)
(1.7622 -0.0324408 0)
(1.76517 -0.0358089 0)
(1.76824 -0.0398284 0)
(1.77433 -0.0472822 0)
(1.77883 -0.053621 0)
(1.78233 -0.0555957 0)
(1.78654 -0.0593904 0)
(1.79126 -0.0645687 0)
(1.79473 -0.0672836 0)
(1.79967 -0.0717813 0)
(1.80465 -0.077171 0)
(1.80845 -0.080424 0)
(1.81146 -0.0824777 0)
(1.81415 -0.0846639 0)
(1.81719 -0.0879407 0)
(1.82038 -0.0913415 0)
(1.82371 -0.0949906 0)
(1.82675 -0.0985886 0)
(1.82956 -0.100742 0)
(1.83216 -0.101337 0)
(1.8348 -0.10333 0)
(1.83755 -0.106696 0)
(1.83958 -0.109513 0)
(1.84167 -0.112131 0)
(1.84363 -0.113593 0)
(1.84562 -0.114423 0)
(1.84741 -0.115089 0)
(1.84866 -0.116007 0)
(1.84912 -0.116529 0)
(1.84871 -0.116174 0)
(1.84773 -0.116073 0)
(1.84672 -0.116115 0)
(1.84619 -0.115818 0)
(1.84573 -0.11538 0)
(1.84523 -0.114998 0)
(1.84441 -0.114536 0)
(1.84346 -0.11378 0)
(1.84236 -0.112756 0)
(1.84099 -0.111709 0)
(1.83975 -0.110476 0)
(1.83886 -0.109148 0)
(1.83798 -0.107908 0)
(1.8371 -0.106835 0)
(1.83631 -0.105419 0)
(1.836 -0.103097 0)
(1.83688 -0.100522 0)
(1.83622 -0.09687 0)
(1.83561 -0.0943525 0)
(1.83449 -0.0913008 0)
(1.83173 -0.0882973 0)
(1.82949 -0.0855217 0)
(1.82782 -0.0819047 0)
(1.82433 -0.0787594 0)
(1.82135 -0.0746741 0)
(1.81967 -0.0711796 0)
(1.81535 -0.0683665 0)
(1.81271 -0.0653569 0)
(1.8078 -0.0583197 0)
(1.72189 -0.177433 0)
(1.72322 -0.176386 0)
(1.72488 -0.174868 0)
(1.72636 -0.174194 0)
(1.7287 -0.173049 0)
(1.73062 -0.171688 0)
(1.73209 -0.170458 0)
(1.73403 -0.168857 0)
(1.73558 -0.167147 0)
(1.73705 -0.165663 0)
(1.73857 -0.164435 0)
(1.74016 -0.163559 0)
(1.74177 -0.163001 0)
(1.74327 -0.162202 0)
(1.74464 -0.161113 0)
(1.74641 -0.160064 0)
(1.74842 -0.158917 0)
(1.75001 -0.157959 0)
(1.7518 -0.157005 0)
(1.75386 -0.155806 0)
(1.75547 -0.154717 0)
(1.75728 -0.153664 0)
(1.75892 -0.153134 0)
(1.75986 -0.15276 0)
(1.76071 -0.152626 0)
(1.76123 -0.152701 0)
(1.76132 -0.15313 0)
(1.76102 -0.153724 0)
(1.76027 -0.154763 0)
(1.75939 -0.155805 0)
(1.75876 -0.156489 0)
(1.75847 -0.157283 0)
(1.75862 -0.157282 0)
(1.75921 -0.157204 0)
(1.75998 -0.156851 0)
(1.761 -0.156406 0)
(1.76226 -0.156112 0)
(1.76375 -0.155766 0)
(1.76507 -0.155423 0)
(1.76638 -0.155034 0)
(1.76776 -0.154923 0)
(1.76903 -0.154734 0)
(1.77026 -0.154272 0)
(1.77158 -0.153438 0)
(1.77286 -0.152771 0)
(1.77435 -0.152696 0)
(1.77595 -0.151977 0)
(1.77776 -0.151634 0)
(1.77957 -0.150915 0)
(1.78219 -0.149363 0)
(1.78441 -0.148032 0)
(1.7849 -0.145028 0)
(1.7832 -0.139504 0)
(1.77876 -0.130238 0)
(1.77193 -0.117001 0)
(1.76294 -0.0982649 0)
(1.75321 -0.0767396 0)
(1.74491 -0.0582186 0)
(1.74014 -0.0452515 0)
(1.73436 -0.0323523 0)
(1.72537 -0.016845 0)
(1.72287 -0.00682193 0)
(1.72242 -0.0072985 0)
(1.72572 -0.00963189 0)
(1.72964 -0.00925118 0)
(1.73084 -0.00757866 0)
(1.73186 -0.00548597 0)
(1.73398 -0.00525559 0)
(1.7367 -0.00624685 0)
(1.7391 -0.00734885 0)
(1.7416 -0.00868934 0)
(1.7447 -0.00967891 0)
(1.74834 -0.0112547 0)
(1.75167 -0.0140169 0)
(1.75506 -0.0168618 0)
(1.75853 -0.0197453 0)
(1.76228 -0.0235769 0)
(1.76613 -0.0278031 0)
(1.77034 -0.0324517 0)
(1.77536 -0.0376852 0)
(1.78001 -0.042141 0)
(1.78506 -0.047105 0)
(1.7903 -0.0526392 0)
(1.79467 -0.0554337 0)
(1.79826 -0.0581805 0)
(1.80207 -0.0627593 0)
(1.80541 -0.0670431 0)
(1.80992 -0.0724307 0)
(1.81429 -0.0778826 0)
(1.81793 -0.0802147 0)
(1.8213 -0.081897 0)
(1.82445 -0.0848541 0)
(1.82723 -0.0878028 0)
(1.82974 -0.0894746 0)
(1.832 -0.0914309 0)
(1.83363 -0.0940581 0)
(1.83469 -0.0958655 0)
(1.83608 -0.0977989 0)
(1.83784 -0.0989974 0)
(1.83991 -0.0998626 0)
(1.84172 -0.10049 0)
(1.84348 -0.102081 0)
(1.84567 -0.103968 0)
(1.84732 -0.104845 0)
(1.84855 -0.105914 0)
(1.84912 -0.106932 0)
(1.84933 -0.107191 0)
(1.84938 -0.106886 0)
(1.84906 -0.106299 0)
(1.84839 -0.105344 0)
(1.84749 -0.104326 0)
(1.84652 -0.103614 0)
(1.84543 -0.103016 0)
(1.8441 -0.102457 0)
(1.84251 -0.101525 0)
(1.84186 -0.10045 0)
(1.84086 -0.0988581 0)
(1.8392 -0.0969688 0)
(1.83801 -0.0945543 0)
(1.83796 -0.0930665 0)
(1.8372 -0.0913435 0)
(1.83627 -0.0897965 0)
(1.83457 -0.0870563 0)
(1.83252 -0.0848155 0)
(1.83101 -0.0823008 0)
(1.82984 -0.0784089 0)
(1.82681 -0.0749461 0)
(1.82342 -0.070641 0)
(1.82209 -0.0669938 0)
(1.81823 -0.0629194 0)
(1.81466 -0.0601824 0)
(1.80972 -0.0531546 0)
(1.72413 -0.175085 0)
(1.72562 -0.1739 0)
(1.72726 -0.172261 0)
(1.72867 -0.171535 0)
(1.73079 -0.170072 0)
(1.73242 -0.168499 0)
(1.73392 -0.16718 0)
(1.73594 -0.165794 0)
(1.73741 -0.164259 0)
(1.73945 -0.163474 0)
(1.74122 -0.162724 0)
(1.74273 -0.161753 0)
(1.7445 -0.161046 0)
(1.74624 -0.160018 0)
(1.74746 -0.15894 0)
(1.74928 -0.157651 0)
(1.75125 -0.156109 0)
(1.75261 -0.155222 0)
(1.75455 -0.15415 0)
(1.75639 -0.153046 0)
(1.75775 -0.151924 0)
(1.75947 -0.151322 0)
(1.76027 -0.151073 0)
(1.7609 -0.15102 0)
(1.76134 -0.151087 0)
(1.76139 -0.151437 0)
(1.76103 -0.152024 0)
(1.76031 -0.152925 0)
(1.75946 -0.153651 0)
(1.75854 -0.154957 0)
(1.75814 -0.155792 0)
(1.75834 -0.155732 0)
(1.75916 -0.155543 0)
(1.75981 -0.155111 0)
(1.76074 -0.154663 0)
(1.76204 -0.154214 0)
(1.76344 -0.153825 0)
(1.76469 -0.153439 0)
(1.76578 -0.152977 0)
(1.7669 -0.152582 0)
(1.76795 -0.152337 0)
(1.76893 -0.152134 0)
(1.76999 -0.151696 0)
(1.77134 -0.151078 0)
(1.77289 -0.150727 0)
(1.77465 -0.150676 0)
(1.77687 -0.150718 0)
(1.77927 -0.150235 0)
(1.78183 -0.149223 0)
(1.78431 -0.148911 0)
(1.78638 -0.147974 0)
(1.78804 -0.147303 0)
(1.78877 -0.147105 0)
(1.78893 -0.146353 0)
(1.78801 -0.144293 0)
(1.78521 -0.13953 0)
(1.78052 -0.131447 0)
(1.77355 -0.118897 0)
(1.76562 -0.103409 0)
(1.75633 -0.0859948 0)
(1.74857 -0.0709992 0)
(1.74391 -0.0586434 0)
(1.73872 -0.0454618 0)
(1.73208 -0.0287574 0)
(1.73096 -0.0178447 0)
(1.73197 -0.0178244 0)
(1.73547 -0.0184189 0)
(1.73818 -0.0158037 0)
(1.7385 -0.0120204 0)
(1.73847 -0.00815362 0)
(1.73995 -0.0078674 0)
(1.74279 -0.00892487 0)
(1.74558 -0.011056 0)
(1.74854 -0.0123697 0)
(1.75136 -0.0129043 0)
(1.75488 -0.0132709 0)
(1.75818 -0.0142279 0)
(1.76136 -0.015706 0)
(1.76469 -0.0170825 0)
(1.7684 -0.0192366 0)
(1.7732 -0.022527 0)
(1.77864 -0.0262953 0)
(1.78409 -0.0304645 0)
(1.78906 -0.0348039 0)
(1.79347 -0.039219 0)
(1.79732 -0.0434446 0)
(1.80078 -0.0472476 0)
(1.8046 -0.0507095 0)
(1.80839 -0.0542406 0)
(1.81234 -0.0571134 0)
(1.8166 -0.0601762 0)
(1.8203 -0.0638451 0)
(1.82304 -0.0674217 0)
(1.82542 -0.0705702 0)
(1.82774 -0.0735806 0)
(1.83011 -0.0769562 0)
(1.83269 -0.0802012 0)
(1.83573 -0.0831613 0)
(1.83878 -0.0853914 0)
(1.84145 -0.087089 0)
(1.84321 -0.087793 0)
(1.84414 -0.0887262 0)
(1.84474 -0.0898881 0)
(1.84549 -0.0905314 0)
(1.8464 -0.0910745 0)
(1.84702 -0.0912817 0)
(1.84711 -0.0909339 0)
(1.84652 -0.090687 0)
(1.84566 -0.09069 0)
(1.84496 -0.0904743 0)
(1.84425 -0.0903044 0)
(1.84346 -0.090213 0)
(1.84269 -0.0899681 0)
(1.84221 -0.0895773 0)
(1.84209 -0.0891782 0)
(1.84209 -0.0883932 0)
(1.84232 -0.0870494 0)
(1.84263 -0.0854187 0)
(1.84257 -0.0840625 0)
(1.84185 -0.0831611 0)
(1.83999 -0.0825512 0)
(1.83818 -0.0813539 0)
(1.83701 -0.0788783 0)
(1.83543 -0.0770495 0)
(1.83421 -0.0743638 0)
(1.83183 -0.0713523 0)
(1.82808 -0.0692033 0)
(1.82502 -0.0658107 0)
(1.82277 -0.0617401 0)
(1.8194 -0.0568444 0)
(1.81538 -0.0544162 0)
(1.8105 -0.0478991 0)
(1.7262 -0.172308 0)
(1.72773 -0.170954 0)
(1.72935 -0.169277 0)
(1.73059 -0.168265 0)
(1.73258 -0.166442 0)
(1.73418 -0.16488 0)
(1.73592 -0.163743 0)
(1.73822 -0.162834 0)
(1.73995 -0.161822 0)
(1.74198 -0.16112 0)
(1.74383 -0.160429 0)
(1.74532 -0.15957 0)
(1.74717 -0.15875 0)
(1.74897 -0.157513 0)
(1.75019 -0.156382 0)
(1.7521 -0.155 0)
(1.75392 -0.153354 0)
(1.75512 -0.152197 0)
(1.7572 -0.151174 0)
(1.75851 -0.150139 0)
(1.76005 -0.149265 0)
(1.76097 -0.149046 0)
(1.76144 -0.149115 0)
(1.76169 -0.149287 0)
(1.76162 -0.149547 0)
(1.76117 -0.150026 0)
(1.76038 -0.150811 0)
(1.75951 -0.151397 0)
(1.75863 -0.15223 0)
(1.75815 -0.153214 0)
(1.75808 -0.153378 0)
(1.75885 -0.153345 0)
(1.7598 -0.152931 0)
(1.76065 -0.152398 0)
(1.76188 -0.151957 0)
(1.76329 -0.151497 0)
(1.7646 -0.151094 0)
(1.76567 -0.150694 0)
(1.76657 -0.150223 0)
(1.76745 -0.149851 0)
(1.76827 -0.149531 0)
(1.76909 -0.14931 0)
(1.77012 -0.149102 0)
(1.77151 -0.14866 0)
(1.77325 -0.148359 0)
(1.7754 -0.148455 0)
(1.77788 -0.148367 0)
(1.78071 -0.147694 0)
(1.78365 -0.147013 0)
(1.78607 -0.146719 0)
(1.78761 -0.146632 0)
(1.78848 -0.146709 0)
(1.78935 -0.146949 0)
(1.79008 -0.147455 0)
(1.79054 -0.147963 0)
(1.79031 -0.14792 0)
(1.78936 -0.148658 0)
(1.78594 -0.146299 0)
(1.78328 -0.142389 0)
(1.77938 -0.136516 0)
(1.77383 -0.127386 0)
(1.76743 -0.114495 0)
(1.76093 -0.0991937 0)
(1.75604 -0.0849181 0)
(1.75271 -0.0711844 0)
(1.74876 -0.0569915 0)
(1.74383 -0.0402829 0)
(1.74236 -0.0282488 0)
(1.74314 -0.0272612 0)
(1.74636 -0.0265722 0)
(1.74702 -0.0218558 0)
(1.74552 -0.0159025 0)
(1.74593 -0.0107319 0)
(1.74717 -0.0105574 0)
(1.74997 -0.0123836 0)
(1.75409 -0.0142287 0)
(1.75727 -0.0147199 0)
(1.76044 -0.0143198 0)
(1.76364 -0.0135143 0)
(1.76698 -0.0140282 0)
(1.77102 -0.015366 0)
(1.7745 -0.0160637 0)
(1.77777 -0.0174378 0)
(1.78232 -0.0192554 0)
(1.78722 -0.0216047 0)
(1.7923 -0.0239949 0)
(1.79814 -0.0266746 0)
(1.80268 -0.0298763 0)
(1.80583 -0.032776 0)
(1.80857 -0.0350742 0)
(1.81137 -0.0375565 0)
(1.81456 -0.0414481 0)
(1.81755 -0.0459809 0)
(1.82027 -0.0499092 0)
(1.82309 -0.0529664 0)
(1.82612 -0.0549518 0)
(1.82889 -0.0564052 0)
(1.83149 -0.0577207 0)
(1.83344 -0.0595287 0)
(1.83576 -0.0623711 0)
(1.83861 -0.0653831 0)
(1.84154 -0.0681067 0)
(1.84434 -0.0710224 0)
(1.84656 -0.0731833 0)
(1.84851 -0.0748935 0)
(1.84979 -0.0760826 0)
(1.85033 -0.0759194 0)
(1.85009 -0.075751 0)
(1.8496 -0.076712 0)
(1.84895 -0.0777046 0)
(1.84801 -0.0780851 0)
(1.84682 -0.0780049 0)
(1.84582 -0.0776604 0)
(1.84534 -0.0771624 0)
(1.84524 -0.076621 0)
(1.84528 -0.0757423 0)
(1.84531 -0.0746817 0)
(1.84549 -0.0737214 0)
(1.84528 -0.0733397 0)
(1.84443 -0.0730601 0)
(1.84287 -0.0724333 0)
(1.84109 -0.0708983 0)
(1.83936 -0.0687811 0)
(1.83729 -0.0672337 0)
(1.83471 -0.0644591 0)
(1.831 -0.0628193 0)
(1.828 -0.0602706 0)
(1.82586 -0.0567527 0)
(1.82318 -0.0530501 0)
(1.82081 -0.0483099 0)
(1.81699 -0.0462384 0)
(1.81158 -0.0401559 0)
(1.72799 -0.168872 0)
(1.72957 -0.167885 0)
(1.73123 -0.166356 0)
(1.73252 -0.165015 0)
(1.73471 -0.162992 0)
(1.73645 -0.161571 0)
(1.73845 -0.160577 0)
(1.7408 -0.159768 0)
(1.74253 -0.15894 0)
(1.74457 -0.158313 0)
(1.74634 -0.157626 0)
(1.7479 -0.156855 0)
(1.74983 -0.15607 0)
(1.75156 -0.15483 0)
(1.75279 -0.153602 0)
(1.75484 -0.152046 0)
(1.75606 -0.150375 0)
(1.75768 -0.149038 0)
(1.75908 -0.147991 0)
(1.76044 -0.147073 0)
(1.76139 -0.146694 0)
(1.76196 -0.14671 0)
(1.76216 -0.147026 0)
(1.76197 -0.147481 0)
(1.76145 -0.147986 0)
(1.76062 -0.148614 0)
(1.75968 -0.149267 0)
(1.75882 -0.14973 0)
(1.75826 -0.150258 0)
(1.75808 -0.150539 0)
(1.75868 -0.150593 0)
(1.75952 -0.150405 0)
(1.76051 -0.149811 0)
(1.76148 -0.149321 0)
(1.76281 -0.148793 0)
(1.76409 -0.148295 0)
(1.76508 -0.147895 0)
(1.76583 -0.147434 0)
(1.76662 -0.147005 0)
(1.76741 -0.146679 0)
(1.76825 -0.146419 0)
(1.76925 -0.146359 0)
(1.77051 -0.146514 0)
(1.77218 -0.146399 0)
(1.77429 -0.146072 0)
(1.77673 -0.146015 0)
(1.77959 -0.145841 0)
(1.78264 -0.145102 0)
(1.78523 -0.144541 0)
(1.78692 -0.144791 0)
(1.78782 -0.145079 0)
(1.78883 -0.145477 0)
(1.78968 -0.146019 0)
(1.79025 -0.146753 0)
(1.79035 -0.14749 0)
(1.78988 -0.148269 0)
(1.78886 -0.149594 0)
(1.78742 -0.150799 0)
(1.7859 -0.151791 0)
(1.78503 -0.150738 0)
(1.78446 -0.149661 0)
(1.78334 -0.147054 0)
(1.78146 -0.142025 0)
(1.77862 -0.134091 0)
(1.77505 -0.123343 0)
(1.77103 -0.110474 0)
(1.76738 -0.0971717 0)
(1.76432 -0.0838889 0)
(1.76073 -0.0700257 0)
(1.75623 -0.053526 0)
(1.75432 -0.0424684 0)
(1.7542 -0.0388289 0)
(1.75688 -0.0359718 0)
(1.75622 -0.0293283 0)
(1.75386 -0.0208748 0)
(1.7548 -0.0138646 0)
(1.75656 -0.0132438 0)
(1.76001 -0.0153673 0)
(1.76522 -0.0165197 0)
(1.76826 -0.0160982 0)
(1.77173 -0.0144655 0)
(1.77456 -0.0130216 0)
(1.77718 -0.0126569 0)
(1.78157 -0.0135745 0)
(1.78621 -0.0146965 0)
(1.7902 -0.015883 0)
(1.7939 -0.0175841 0)
(1.79764 -0.0183211 0)
(1.80151 -0.0195035 0)
(1.80518 -0.0203715 0)
(1.80806 -0.0216205 0)
(1.81057 -0.0241212 0)
(1.81336 -0.0265217 0)
(1.81628 -0.0284735 0)
(1.81973 -0.0298939 0)
(1.8238 -0.0309727 0)
(1.82868 -0.0331697 0)
(1.83161 -0.036232 0)
(1.83302 -0.0396767 0)
(1.83432 -0.0430178 0)
(1.83575 -0.0448626 0)
(1.83753 -0.044898 0)
(1.83916 -0.0449658 0)
(1.84034 -0.0454609 0)
(1.84179 -0.0468962 0)
(1.84408 -0.0487781 0)
(1.84689 -0.0505909 0)
(1.84992 -0.0526878 0)
(1.85166 -0.0551548 0)
(1.85146 -0.0575851 0)
(1.84997 -0.0593269 0)
(1.84819 -0.0600575 0)
(1.84719 -0.0598363 0)
(1.84661 -0.0591848 0)
(1.84604 -0.0585483 0)
(1.84539 -0.0578909 0)
(1.84463 -0.0574012 0)
(1.84347 -0.0570962 0)
(1.84194 -0.0569914 0)
(1.8401 -0.0563563 0)
(1.83834 -0.0562955 0)
(1.83674 -0.0554759 0)
(1.83493 -0.0548108 0)
(1.8332 -0.0527087 0)
(1.82991 -0.0503925 0)
(1.82635 -0.0499689 0)
(1.8234 -0.0486973 0)
(1.82154 -0.0461467 0)
(1.82055 -0.0429365 0)
(1.81909 -0.0392901 0)
(1.81611 -0.0379326 0)
(1.81167 -0.032223 0)
(1.73045 -0.165827 0)
(1.73191 -0.165173 0)
(1.73347 -0.163803 0)
(1.73484 -0.162124 0)
(1.73727 -0.159819 0)
(1.73898 -0.158325 0)
(1.74111 -0.157251 0)
(1.74343 -0.156411 0)
(1.74521 -0.155806 0)
(1.74727 -0.15524 0)
(1.74896 -0.154579 0)
(1.75054 -0.153842 0)
(1.75249 -0.153001 0)
(1.75397 -0.151903 0)
(1.75556 -0.150656 0)
(1.75735 -0.149011 0)
(1.75851 -0.147512 0)
(1.75964 -0.146003 0)
(1.76097 -0.144972 0)
(1.76169 -0.144489 0)
(1.76229 -0.144366 0)
(1.7625 -0.144539 0)
(1.76226 -0.145025 0)
(1.76164 -0.145681 0)
(1.76076 -0.14628 0)
(1.75979 -0.147037 0)
(1.75895 -0.147515 0)
(1.75836 -0.147595 0)
(1.75819 -0.147729 0)
(1.75861 -0.147754 0)
(1.75926 -0.147634 0)
(1.7602 -0.147273 0)
(1.76116 -0.146651 0)
(1.76231 -0.146059 0)
(1.76347 -0.145525 0)
(1.7643 -0.145089 0)
(1.765 -0.144582 0)
(1.76581 -0.144247 0)
(1.7666 -0.144012 0)
(1.76752 -0.143793 0)
(1.76861 -0.143736 0)
(1.76987 -0.144007 0)
(1.77152 -0.144402 0)
(1.77354 -0.144374 0)
(1.7759 -0.14377 0)
(1.7787 -0.143497 0)
(1.78182 -0.143184 0)
(1.78448 -0.142616 0)
(1.78604 -0.142623 0)
(1.78716 -0.143127 0)
(1.78814 -0.143649 0)
(1.789 -0.144047 0)
(1.78968 -0.144683 0)
(1.78986 -0.145559 0)
(1.78937 -0.146563 0)
(1.78838 -0.147904 0)
(1.78712 -0.149533 0)
(1.78591 -0.150909 0)
(1.78517 -0.151604 0)
(1.78516 -0.151829 0)
(1.7857 -0.151799 0)
(1.78631 -0.15175 0)
(1.78719 -0.151254 0)
(1.78763 -0.150141 0)
(1.78786 -0.148145 0)
(1.78735 -0.14444 0)
(1.78615 -0.138742 0)
(1.78427 -0.130949 0)
(1.78166 -0.121005 0)
(1.77918 -0.110425 0)
(1.77611 -0.0984422 0)
(1.77252 -0.0853495 0)
(1.76949 -0.0719496 0)
(1.76677 -0.0597385 0)
(1.76633 -0.0532956 0)
(1.76778 -0.0476612 0)
(1.76714 -0.039054 0)
(1.7658 -0.0298581 0)
(1.76657 -0.0207644 0)
(1.76915 -0.0175937 0)
(1.77255 -0.0191299 0)
(1.77807 -0.0204177 0)
(1.78207 -0.0192827 0)
(1.7851 -0.0170154 0)
(1.78754 -0.0123758 0)
(1.78963 -0.011175 0)
(1.79268 -0.0113892 0)
(1.79676 -0.0117679 0)
(1.80108 -0.013179 0)
(1.80453 -0.0153759 0)
(1.80769 -0.016643 0)
(1.81086 -0.0173679 0)
(1.81371 -0.0167087 0)
(1.81637 -0.0164553 0)
(1.81909 -0.0165851 0)
(1.82135 -0.018252 0)
(1.82267 -0.0192963 0)
(1.82457 -0.019642 0)
(1.82747 -0.0216532 0)
(1.83036 -0.0242892 0)
(1.83349 -0.026001 0)
(1.837 -0.0270898 0)
(1.8409 -0.0278937 0)
(1.84346 -0.0285442 0)
(1.84418 -0.0288376 0)
(1.84515 -0.0303525 0)
(1.84588 -0.0317755 0)
(1.84603 -0.0322157 0)
(1.8455 -0.0321627 0)
(1.84506 -0.0327612 0)
(1.84569 -0.0335137 0)
(1.84665 -0.034282 0)
(1.84768 -0.0345006 0)
(1.84751 -0.0340538 0)
(1.84696 -0.0336001 0)
(1.84588 -0.0329857 0)
(1.84451 -0.0324107 0)
(1.84315 -0.0322155 0)
(1.84219 -0.0325069 0)
(1.84177 -0.032353 0)
(1.84147 -0.0328762 0)
(1.84007 -0.033923 0)
(1.83789 -0.0359536 0)
(1.83571 -0.0358895 0)
(1.83325 -0.0351211 0)
(1.83073 -0.0341762 0)
(1.82796 -0.0318413 0)
(1.82468 -0.0295624 0)
(1.82119 -0.0274486 0)
(1.81827 -0.0247641 0)
(1.8148 -0.0237165 0)
(1.80983 -0.0199923 0)
(1.73304 -0.16243 0)
(1.73438 -0.161828 0)
(1.73585 -0.160898 0)
(1.73758 -0.159273 0)
(1.74008 -0.157022 0)
(1.74195 -0.155444 0)
(1.74417 -0.15425 0)
(1.74619 -0.153303 0)
(1.74804 -0.152565 0)
(1.74978 -0.151863 0)
(1.75125 -0.151152 0)
(1.75302 -0.150446 0)
(1.75491 -0.149538 0)
(1.75636 -0.14863 0)
(1.75802 -0.147334 0)
(1.75974 -0.145794 0)
(1.76071 -0.144525 0)
(1.76173 -0.143224 0)
(1.76216 -0.14235 0)
(1.76248 -0.142104 0)
(1.76252 -0.14206 0)
(1.76219 -0.142334 0)
(1.76155 -0.142899 0)
(1.76066 -0.143467 0)
(1.75959 -0.1444 0)
(1.75876 -0.145171 0)
(1.75817 -0.145176 0)
(1.75817 -0.145176 0)
(1.75865 -0.145233 0)
(1.75917 -0.145152 0)
(1.75997 -0.144855 0)
(1.76089 -0.144271 0)
(1.7619 -0.143581 0)
(1.76273 -0.142967 0)
(1.76333 -0.142423 0)
(1.76416 -0.14203 0)
(1.76498 -0.141724 0)
(1.76578 -0.141464 0)
(1.76673 -0.141409 0)
(1.76792 -0.141448 0)
(1.7693 -0.141625 0)
(1.77099 -0.142119 0)
(1.773 -0.142559 0)
(1.77534 -0.142242 0)
(1.77807 -0.141405 0)
(1.78111 -0.140992 0)
(1.78385 -0.140748 0)
(1.78526 -0.140693 0)
(1.7864 -0.141047 0)
(1.78747 -0.141758 0)
(1.78827 -0.142309 0)
(1.7889 -0.14278 0)
(1.78918 -0.143525 0)
(1.78873 -0.14461 0)
(1.78772 -0.145917 0)
(1.78645 -0.147454 0)
(1.78531 -0.149034 0)
(1.78462 -0.150181 0)
(1.7846 -0.150676 0)
(1.78514 -0.150745 0)
(1.786 -0.150685 0)
(1.787 -0.150622 0)
(1.78804 -0.150608 0)
(1.7892 -0.150406 0)
(1.79038 -0.150237 0)
(1.79157 -0.149865 0)
(1.79278 -0.148971 0)
(1.79359 -0.147439 0)
(1.79403 -0.145064 0)
(1.79367 -0.141248 0)
(1.7928 -0.136217 0)
(1.79137 -0.129785 0)
(1.78941 -0.1218 0)
(1.78724 -0.112661 0)