/*--------------------------------*- C++ -*----------------------------------*\
  =========                 |
  \\      /  F ield         | OpenFOAM: The Open Source CFD Toolbox
   \\    /   O peration     | Website:  https://openfoam.org
    \\  /    A nd           | Version:  7
     \\/     M anipulation  |
\*---------------------------------------------------------------------------*/
FoamFile
{
    version     2.0;
    format      ascii;
    class       surfaceScalarField;
    location    "1.049";
    object      phi;
}
// * * * * * * * * * * * * * * * * * * * * * * * * * * * * * * * * * * * * * //

dimensions      [0 3 -1 0 0 0 0];

internalField   nonuniform List<scalar> 
18389
(
-7.97388e-05
7.97389e-05
4.34353e-05
-4.34353e-05
-5.20442e-05
5.20442e-05
4.01308e-05
-4.01307e-05
-5.17798e-05
5.17798e-05
-4.00526e-05
4.00526e-05
-3.46182e-05
3.46182e-05
3.90377e-05
-3.90377e-05
-3.56673e-05
3.56673e-05
4.15112e-05
-4.15112e-05
4.49413e-05
-4.49413e-05
-3.45971e-05
3.45971e-05
-1.45402e-05
1.45402e-05
-4.28796e-05
4.28796e-05
4.34635e-05
-4.34635e-05
2.47569e-05
-2.47569e-05
1.92329e-05
-1.92329e-05
4.5891e-05
-4.5891e-05
4.59225e-05
-4.59225e-05
4.33853e-05
-4.33853e-05
-4.25915e-05
4.25915e-05
3.56639e-05
-3.56639e-05
4.29674e-05
-4.29674e-05
-5.84806e-05
5.84806e-05
-4.97052e-05
4.97052e-05
-4.18294e-05
4.18294e-05
-4.45444e-05
4.45444e-05
4.56285e-05
-4.56285e-05
4.58517e-05
-4.58517e-05
4.41412e-05
-4.41412e-05
-4.1339e-05
4.1339e-05
-6.30755e-05
6.30755e-05
4.31161e-05
-4.31161e-05
-4.47467e-05
4.47467e-05
4.08606e-05
-4.08606e-05
4.66945e-05
-4.66944e-05
-4.55495e-05
4.55495e-05
5.35719e-05
-5.35719e-05
-5.88679e-05
5.88679e-05
3.78764e-05
-3.78764e-05
4.48375e-05
-4.48375e-05
4.53797e-05
-4.53796e-05
-4.10098e-05
4.10098e-05
4.49018e-05
-4.49018e-05
4.58664e-05
-4.58664e-05
-4.58502e-05
4.58502e-05
-4.58468e-05
4.58468e-05
-4.06624e-05
4.06625e-05
-4.58847e-05
4.58847e-05
4.59415e-05
-4.59415e-05
4.59598e-05
-4.59598e-05
4.4621e-05
-4.4621e-05
3.77337e-05
-3.77337e-05
-4.57627e-05
4.57627e-05
-5.55447e-05
5.55447e-05
-4.38137e-05
4.38137e-05
4.57518e-05
-4.57518e-05
-4.59948e-05
4.59949e-05
4.3227e-05
-4.3227e-05
-5.93192e-05
5.93192e-05
-4.71468e-05
4.71468e-05
4.96052e-05
-4.96052e-05
4.57372e-05
-4.57372e-05
-9.50167e-06
9.50168e-06
4.57726e-05
-4.57726e-05
4.14794e-05
-4.14794e-05
5.12084e-05
-5.12084e-05
-4.58718e-05
4.58718e-05
4.23096e-05
-4.23096e-05
3.1675e-05
-3.1675e-05
1.54304e-06
-1.54304e-06
-4.40738e-05
4.40738e-05
3.28687e-05
-3.28687e-05
-3.65642e-05
3.65642e-05
3.97279e-05
-3.97279e-05
2.66257e-05
-2.66257e-05
2.61992e-05
-2.61992e-05
2.70484e-05
-2.70484e-05
2.43919e-05
-2.43919e-05
1.32381e-05
-1.32381e-05
0.00107405
-0.000880079
-0.000193973
0.00546671
-0.00207562
-0.00339108
-0.00594634
0.00594634
-8.63665e-09
0.00335414
-0.00259863
-0.00075551
-0.00154654
0.00176334
-0.0002168
-0.00676009
0.00284182
0.00391828
0.00121526
0.00425145
0.00725519
-0.00587534
-0.00137985
0.00118281
-0.00192034
0.000737531
-0.000868816
-0.000677723
-0.00144225
-0.000314625
0.00175687
0.000154004
6.38208e-06
-0.000160386
0.000778487
-0.00222073
-0.00360345
0.00012333
0.00348011
-0.00320197
0.00289222
0.000309761
-0.00571877
0.00725845
-0.00153968
-0.0037093
0.00289694
0.000812354
-0.000564165
-0.00303928
-0.00174795
0.00238864
-0.000640685
-0.000464902
0.00255882
-0.00209391
-0.00160891
0.00111068
0.000498226
0.000583523
0.000581836
-0.00159725
-0.00516284
0.0012626
-0.00179986
0.000537253
0.00578108
-0.00386168
-0.00191939
-0.00066147
0.00331104
-0.00264957
-0.00583497
0.00583472
0.000481962
0.00128138
-0.00634413
0.00096823
0.0053759
0.00232456
-0.00298603
-0.00378944
0.00311359
0.000675852
0.00214809
-0.00422371
0.00108863
-0.000203477
-0.000885156
0.00150352
-0.00128865
-0.00021487
-0.00280113
-0.000400841
0.00535366
-0.00534896
0.000368906
0.00113462
0.00522839
-0.00133689
-0.00389151
0.00200054
-0.000817726
0.00308569
0.00190869
-0.00499437
-0.000721731
-0.00306772
-8.92172e-05
-0.000154775
0.000243992
0.00393571
0.00331948
0.00116634
-0.00489143
0.00372509
0.00162771
0.00360068
-0.00498226
0.00632086
-0.0013386
-0.00113748
-0.000590876
0.00172836
0.00133787
0.00201627
0.000135294
0.000103626
-0.000238919
0.00502245
-0.00339474
0.00645858
-0.000841782
-0.0056168
0.00321642
-0.00265622
-0.000560196
0.00222101
0.000449468
-0.00267049
0.00295099
-0.000729981
0.00650369
-0.00539851
-0.00110516
0.000505628
-0.00387091
0.00336528
6.79998e-05
0.00639059
0.00481116
-0.00430553
-0.000535782
0.00105938
-0.000523597
-0.00176006
0.000622577
0.00191708
0.00224909
-0.00416616
0.000253384
-0.000333545
8.01615e-05
-0.00126873
-0.00284586
0.00411458
-2.63193e-05
0.00653001
-0.00281735
0.00229372
0.000523623
0.000389227
-1.1858e-05
-0.000377369
-0.00569229
-0.000254043
0.00187552
-0.00139356
0.000827521
0.00495356
0.000894402
0.000179654
0.00262561
-0.00645623
0.00383062
-0.0011202
0.000584417
0.00263773
-0.00390646
0.00619715
-0.00226143
0.0010921
0.00117729
-0.000767305
0.00100507
-0.00023776
-0.00111121
-0.000497694
0.00189108
0.00132533
-0.000595703
0.00142982
-0.00123777
-0.000192056
-0.00265484
0.00198705
0.000667793
0.0011671
0.000262727
0.00113689
-0.00497853
0.00384164
-0.00476109
0.00142113
0.00333996
-0.00455424
0.00611801
-0.00156377
-0.00506223
7.99791e-05
-0.00201792
-0.000636925
-0.000215502
0.000126285
-0.00122711
0.00465138
-0.00342428
-0.00122525
-0.000695086
0.000103309
-0.000192023
8.87134e-05
0.000126289
-2.29795e-05
-0.00126158
0.00464088
-0.0033793
-0.000156124
2.44806e-05
0.000131644
-0.00556887
0.00170719
-0.00119127
-0.000568786
-0.000449452
-1.89281e-05
0.000468379
-0.000543272
9.3819e-05
0.00101266
7.59696e-05
-0.00180968
0.000618404
-0.000150224
1.71224e-05
0.000133102
0.00136802
-0.00234447
0.000976457
0.000271105
-0.000135811
-0.00392539
0.00514066
-0.00245721
0.000709267
-9.34626e-05
-0.00042864
0.000522103
0.00568623
-0.00216931
-0.00351692
7.78889e-05
0.00250714
-0.00258503
0.0044676
-0.0056177
0.00115011
0.00263448
0.00305175
0.00291381
-0.00283592
-0.00617067
0.000451904
-0.00646321
0.00363341
0.00282981
0.0022939
0.00390325
-0.00439054
0.00138147
0.00300906
0.00150739
-0.00024479
-0.00102617
0.00402069
-0.00299452
0.00463922
-0.00162708
-0.00301214
-0.00460783
0.00374812
0.000859713
0.00369363
-0.00503052
5.90598e-05
0.000330168
-0.00137153
0.00583915
-9.2975e-05
0.00214969
-0.00205671
-0.00206598
0.00260747
0.000174926
-0.00278239
-0.0012774
0.00264541
-0.000649687
0.00325716
0.00164066
-0.00173363
0.000908645
0.00397377
-0.00488242
-0.00504152
0.00384214
0.00119939
0.00255191
-0.00359409
0.00104219
-0.00333235
0.00411894
-0.000786588
0.000340142
-0.0036725
-0.00089542
0.00089542
-0.000446536
0.000353074
-0.000126973
-0.000973469
0.00110044
0.00506935
-0.00184254
-0.00322681
-0.00243262
-0.000368518
0.00290004
0.00015789
1.65269e-05
-0.000174418
-0.00147136
0.00112398
0.000347383
-0.000140525
-0.00490099
0.00505977
-0.00389343
0.000248348
-9.43442e-05
0.00444458
0.000577862
0.00406759
-0.00151567
0.000164979
-7.08811e-06
-0.00632232
-0.00098424
-0.000825437
0.00430023
-0.00190479
-0.00239544
0.00275641
0.00154382
0.00107775
-0.00563198
-0.00225883
-0.000558511
-0.00112014
-0.000959039
0.00207917
3.90801e-05
-0.00272209
0.00268301
-0.00235772
0.00123759
-0.0022181
0.00530379
-0.00462181
0.00160474
0.00301707
0.00254622
0.000659957
-0.000330012
-0.000329945
-0.00601481
0.000582882
0.00543193
-0.00418812
0.00582542
-0.0016373
0.00182557
0.00162943
-0.00345501
-0.00167159
0.000896919
0.000774672
-0.00271445
0.00207933
0.000635119
0.00110471
0.000770816
0.0002472
-0.00032894
8.17412e-05
0.00490678
-0.00399814
-0.00638554
0.00558035
0.000805197
-0.00479478
-0.00166844
0.00334319
0.000645153
-0.00398834
0.00015395
-0.000162143
8.19241e-06
0.000590457
-0.000125308
-0.000465148
-0.0045183
0.00261352
0.000362973
-0.000569397
0.000206424
5.44427e-05
-0.000949865
-0.00257573
0.00448442
-0.00530427
-0.000323785
0.00562806
0.000195893
0.000195399
-0.000391293
0.000718805
-0.000718804
0.00168479
-0.000727395
-0.00211082
0.00181044
0.000300386
0.00440356
-0.0030221
-0.000162394
6.26971e-06
-0.00120191
0.00125635
0.000712111
0.00128842
0.00234899
-0.000269657
-0.00401951
-0.00128475
0.00111456
-0.00498548
0.00321316
-0.00447473
0.000835679
-0.00213514
0.00129946
0.00335998
-0.00458709
-0.00271127
-0.00180704
-0.00483586
0.00469534
-0.000676213
-0.00533859
-0.00515965
0.00150916
-0.00146591
-4.32481e-05
0.00223134
0.000117654
-0.00601378
0.00204812
0.00396566
-0.00121934
0.000526001
0.000693333
0.00145654
0.00294703
-0.00462589
-0.00101463
0.00564053
-0.000212793
0.000138506
7.42868e-05
-0.00551945
0.00133134
0.0037531
-0.0049369
0.0011838
-0.00149374
-0.000617076
-0.000536677
-0.000637499
0.000138366
-0.000203832
6.54652e-05
0.00499833
-0.00386145
-0.00130112
0.00512562
-0.00382451
-0.00041451
-0.000787404
-0.00586129
0.000439799
0.00539492
-0.00616491
0.00456766
-0.000921904
-0.00546364
-0.00109441
-0.000376953
-0.00181626
0.00285697
-0.00104071
-0.000419213
0.000322092
9.71211e-05
-0.00173204
0.00141742
0.00161585
-0.000106694
0.000826195
-3.67535e-05
-0.00169529
0.00279668
0.00121821
-0.00303447
0.00605859
-0.000478244
0.00528581
6.78455e-05
-0.00528095
0.00439163
0.0011436
-0.00553523
0.000556426
-0.000768817
0.000212391
-4.0976e-05
-0.00040556
-8.95232e-06
0.00606754
-0.00016219
0.000156834
5.35524e-06
0.000133332
2.06179e-05
0.00253757
-0.00335832
0.000820746
-0.00192616
0.00073358
0.00119258
0.00792337
-0.00345352
-0.00446985
0.00117099
0.00126398
-0.00243498
0.000103089
-0.000171854
6.8766e-05
-0.000805868
0.00133186
0.00116236
0.00318241
-0.00434477
-0.00561383
0.000165408
0.00544841
-0.0040204
0.00299423
0.00173547
0.00479454
0.00458515
0.00333821
-2.14493e-05
0.000190035
-0.000168586
-0.00131035
0.00439866
-0.00308831
0.000301466
-0.000342442
-0.00013131
-8.14828e-05
0.00410099
-0.00227544
0.00475734
-0.00501535
0.000258016
-0.00324753
0.00608795
-0.00284041
0.00252713
0.00157387
0.00575221
-0.000994878
-0.00138194
-0.00562105
0.00137251
0.00424855
0.000654652
0.000520686
-0.00117534
0.00126956
-0.000614904
0.000585353
-0.00111025
0.000524894
0.00110604
0.0002758
0.000384158
-0.000678244
0.00443135
0.00151671
-0.000392737
0.00354375
-0.00613518
0.00259143
0.00153308
-0.00258377
0.00105069
-0.00432148
0.00116646
0.00315502
0.00291304
-0.00422339
-0.00491043
-0.00125448
-0.00410022
0.0012689
0.00283131
0.00125116
0.00314749
-0.00326377
-0.000836455
0.00222679
-0.0010558
-0.00068234
-0.00253011
0.00321245
0.00240627
0.000619472
-0.00302574
-0.00158912
0.00119987
0.000389251
0.00026991
0.00148792
-0.0019656
0.000477676
-0.000110857
-0.000222689
-0.000264403
0.000153547
-0.00435523
-0.000252596
-0.000293951
0.00117292
-0.000878969
0.00435117
-0.0046455
0.000294328
-8.84213e-05
0.000117767
-2.93456e-05
0.000974274
0.00338143
-0.0043557
-0.000157001
6.85803e-05
-0.00475238
0.000711118
0.00404128
-0.000720927
0.000128485
0.00059244
7.87212e-05
-7.2339e-05
-0.0004012
0.000864672
-0.000347475
-0.000517198
-0.00603579
0.000637275
-0.00254967
-0.000128199
0.00267786
-0.00316826
0.00441942
0.00218083
-0.00108873
-0.00116719
-0.00117656
-4.86911e-05
-0.00352016
-0.00124093
0.00150767
-0.000404614
-0.00110306
0.00191899
0.00183863
-0.00375762
0.00504964
-0.00161743
-0.00343221
0.000795692
-0.00542158
-0.0013733
0.00300273
0.00196163
0.000780786
-0.00274242
-0.00349803
0.00447231
-0.000152973
2.74885e-06
0.000937267
-0.00443529
-0.00449729
-0.000148225
-0.000997845
-0.00461598
0.00463429
0.00149265
0.00355699
0.00415967
0.00114442
-0.0053041
3.6751e-05
5.90907e-05
-9.58418e-05
-0.0014054
0.00336703
0.003713
0.00354544
-0.00139955
0.00236985
-0.0009703
-0.00248113
0.000463212
-0.000878413
0.000751438
-0.00020842
0.000404314
-0.000212155
0.00170008
0.00376346
-0.00184446
-0.00106903
-0.000602569
-0.000107165
-0.000157237
0.00355043
-0.00163334
-0.00240369
0.00465279
0.000674544
-0.0030959
0.00242136
0.000638854
0.000762737
-0.00105669
0.00209966
-0.00131575
-0.00327513
0.00459087
-0.00220186
0.00482747
-0.000553741
0.00344595
0.000238508
-0.000221386
-0.0023626
0.000963056
0.00232405
-0.00386775
0.00154371
-0.00121405
5.81099e-05
-2.1359e-05
0.00214773
-0.0027963
0.000648568
-0.00116822
-0.00042089
-0.00353542
0.00450365
0.00119645
0.00167358
-0.00287003
-0.00168986
0.00366482
-0.00197496
0.0042418
-0.000860367
0.000234379
1.41094e-05
-0.000248489
-0.00372299
0.00203313
-0.00143155
0.00472199
-0.00329045
0.000878002
0.00130282
0.00016288
0.000555923
0.000252997
-0.000300701
4.77036e-05
0.00170101
0.000207168
-0.00190818
0.00301793
-0.00459238
0.00157445
-5.28481e-05
0.000374254
-0.000321406
0.00156192
-0.000362054
0.00139645
-0.00060699
-0.000789461
0.00282306
-0.00392723
0.00110417
0.00267912
-0.00374295
0.00106384
-0.00517985
0.00193232
0.00390564
-0.000887705
-0.000636031
-0.00237459
0.00301063
0.0014075
-0.00511774
0.00371024
0.00336053
-0.00145893
-0.00190161
-0.000682223
0.0017245
-0.00104228
0.00477165
-0.00303619
-0.000693862
-0.00196235
-0.00598338
0.0051416
3.84679e-06
0.000121762
-0.000125609
-0.0015784
0.00119974
0.000378662
-0.00490982
0.00630944
-0.00139963
-0.00188423
0.00072679
0.00115744
0.000405502
0.002686
-0.00208759
-0.000598411
0.0034356
0.000488966
-0.00392458
0.00012415
-2.10615e-05
0.00517176
0.000337517
-0.00550927
-0.0019408
0.00379766
-0.00185687
0.00277009
-0.000642521
-0.00212758
0.00046255
0.000402122
-0.000436772
0.00387238
0.00202597
-0.00396678
0.000699882
-0.0002663
-0.000433581
-0.000643602
-2.35587e-07
0.000643839
-0.00315238
-0.0057645
0.00576727
-0.000274849
0.000950034
-0.000675186
-0.00228707
-0.000194061
-0.0045551
0.00323934
-0.000873692
0.00113122
0.00360731
-0.00502007
0.00141276
0.000410678
-0.00296034
0.00233029
-0.00244173
0.000111435
-0.00157142
0.00148227
8.91477e-05
-0.00120957
-0.000368831
-0.00339274
0.00342957
-0.00223312
0.000457238
0.000133219
-0.00173498
0.00105275
-0.00279611
0.000747619
0.00204849
0.00024239
-8.0101e-06
-0.00347762
0.00102486
0.00245276
-0.00144449
0.00560416
0.000339394
-0.000953895
0.000614501
0.00211878
0.00065131
-0.00127775
0.000304284
0.00111258
0.00121771
-0.00143051
0.00495985
-0.00352933
-0.0048483
0.00576876
-0.000920463
-0.00117449
0.0022848
0.00410579
0.0010727
3.79827e-05
0.00586819
-0.00552274
-0.000345454
0.0035579
-0.00466298
0.00110509
0.00309315
-0.000686879
0.00542683
-0.00181953
-0.00250383
-0.000973789
-0.00217415
-0.000320946
0.0024951
0.00241276
-0.0019633
-0.00160818
-0.0042422
0.00274741
0.00149479
-0.000329158
0.00122608
0.00121729
0.00366058
-0.00487786
-0.000306274
0.000669246
0.00305957
-0.00238502
-0.00472482
-0.00125856
0.00647038
-0.00129862
0.00424246
0.00206057
0.000498248
0.00285508
-0.00212555
-0.000729534
0.00473729
-0.00245249
-7.18829e-05
-0.00332654
-0.000868401
0.00419494
0.000387982
-8.6441e-05
-0.000301541
-0.00514237
0.00610726
-0.000964884
-0.000736872
0.00190524
-0.00116836
-0.000696827
0.00525181
-0.00455499
0.00117404
-0.00191091
-0.000112526
-0.00576281
-0.000767305
0.00203555
0.00383265
-0.000246433
-0.00192772
0.000251401
-4.20086e-06
0.000362564
-0.000487872
0.00336267
-0.000825093
-0.00522651
-0.000271648
-0.000147564
0.000150187
-0.000133569
-1.66181e-05
-0.00248278
0.000125048
-0.000422206
0.00159042
-0.00101341
-0.000577004
0.00247057
0.000594321
-0.00306489
-0.000714557
0.00318512
-0.00520292
-0.000271523
0.00547444
0.00375036
0.00137527
0.00441187
-0.00122946
-0.000132156
0.00254492
0.00540385
-0.000206632
-0.00519722
-0.00608705
0.00425229
0.00183477
0.00321036
-0.00126853
-0.00435252
0.000203513
-0.000224962
0.000578887
0.000817562
0.00110731
0.00012261
-0.00122992
0.0042123
0.00119155
-0.000960026
0.0031718
-0.00221178
0.00473597
-0.00139278
-0.00217895
0.00279276
-0.000613802
-0.00117724
-0.000111362
0.000308006
-0.000196644
0.00344651
-0.00414334
0.00134459
-0.000986817
-0.000357769
0.00159638
-0.000396639
-0.00325116
0.00229113
0.00548793
-0.00434434
-3.06314e-05
0.000352724
-0.00535525
0.000445421
0.0054495
-0.00190574
-0.00100219
-0.00361481
0.00461701
-0.000646654
0.00288265
-0.00223599
0.00549726
-0.00286244
-0.00263482
-8.83973e-05
0.000592092
-0.000677169
0.000660535
1.66345e-05
-0.000689277
0.00172933
-0.00104006
-0.00314926
-0.00117222
0.00015557
-1.72039e-05
-0.00122451
-0.00478926
-0.00307663
0.00239429
-0.000497386
-0.000221418
-7.26167e-05
-8.95726e-05
-0.00120724
-0.000805853
-0.00522994
-0.00283837
0.00219172
-0.000819048
0.00118795
0.00112949
0.00438623
-0.00551572
0.00340004
-0.00275489
0.000467507
0.000772981
-0.00288404
0.00211107
0.0049867
-0.00493975
-4.69468e-05
-0.00320953
0.00361559
-0.00040606
0.000207794
-9.56078e-05
-0.000112186
-0.00497013
-0.00148612
-0.00175716
0.00368995
-0.00193279
0.00298115
-0.00220816
-0.00378368
0.00202652
0.00139501
-0.00258174
0.00118672
-0.00363311
0.00568124
0.00649931
-0.00219547
-0.00430384
-0.00240005
0.00237415
2.59e-05
0.00561716
-0.0016434
0.00118548
-0.000923907
-0.000261574
-9.12209e-06
0.000262119
0.000249988
-0.000774055
0.000524067
-0.00304674
0.00365089
-0.00097177
0.000845056
-0.00104853
0.0023631
-0.000632175
-0.00173092
0.00220172
-0.000500713
0.00452643
0.000630177
0.00173292
-0.00175461
0.00106533
0.000408597
-0.000464693
5.60965e-05
0.00221242
-0.00174489
-0.000467525
0.000832558
-0.00514778
-0.000544516
0.000369491
-0.000588345
0.000218853
-0.00410139
0.0054739
0.000942145
-0.00111663
0.000174485
-0.00152429
0.00216469
-0.000640394
-0.001491
-0.00275119
-0.00538214
-0.000157019
0.00553916
0.000300325
0.000108299
4.18887e-05
0.000127602
-0.000127598
-3.61225e-09
0.00412092
-0.00290363
-0.00380259
-0.00233258
0.0034671
0.00303221
-0.00259522
0.000731707
0.00186351
-0.000844672
0.00223968
-0.0022972
-0.000102846
0.00272923
-0.00377747
0.00104823
0.0013067
-0.000133786
0.000461079
0.000551584
-0.0032774
0.000963575
0.00231382
0.000915253
-0.000601003
-4.26008e-05
-0.00427741
0.00172462
9.97439e-05
-0.00182436
-0.00396543
0.00146542
0.0025
0.000521393
0.00146824
-0.000889356
-0.000246454
-0.00465998
0.00490644
0.000784582
-0.00247672
0.00169214
0.0012022
0.00131232
-0.000472285
-0.00171538
0.00218767
0.00258001
-0.00179543
0.00447034
-0.00353308
-0.00077952
-0.00264055
-0.000227382
0.000251862
-0.00070344
0.0017639
-0.00106046
0.00265944
-0.0036675
0.00100805
0.000136444
2.03908e-05
-0.00236321
-0.000914193
0.00142155
-0.00163642
0.000214869
-0.00277469
0.000687106
0.00127657
-0.00141874
0.000142173
0.00161886
-0.00180792
0.000189061
0.000676132
-0.00372748
-0.00116395
0.00135213
-0.00490241
0.00355028
-0.000914365
0.00357379
0.000118089
-7.84154e-05
-3.96731e-05
0.00476735
-0.00363785
-0.000319782
-0.00153218
-0.00402
-0.00149945
0.00209165
0.000701107
-0.00101419
-0.000924132
-0.00454082
-0.00162985
-0.000373997
0.00124204
-0.000931093
-0.000310949
-0.0014953
-0.00108848
0.000657682
0.00225688
-0.00291456
-0.000114276
0.000670702
-0.000715966
3.87968e-05
-0.00245716
0.00196644
0.00139409
-0.000732194
0.00165069
-0.000918496
-8.68715e-05
-0.00011696
0.000318136
-0.00194601
0.000452266
0.00160632
-0.00231164
0.00070532
-0.00334325
0.0025802
0.000763038
0.00119517
0.00241713
-0.0036123
-0.00175357
0.00105013
-0.00294088
-0.00102454
-0.000793222
-0.00255003
-0.00167648
0.00125269
0.000423789
0.00176456
-3.99334e-05
-0.000763785
-0.00243337
0.00319715
-0.000677325
0.0029144
-0.00225671
-0.000858541
-0.0039476
0.00480615
-0.0023439
0.00233921
4.68549e-06
-0.000720927
-0.00156144
0.000548028
-0.00240529
0.00381928
-0.001414
0.00323286
0.00288515
0.000194394
3.62205e-05
-0.000230616
0.00234021
-0.000602802
-0.00173741
0.000188072
-0.000184226
-0.00359173
0.00494387
-0.00329994
0.00524784
-0.0019479
-0.0035105
-0.00150957
-0.000914923
0.00323172
-0.0023168
0.00285701
0.00177523
-0.00418053
-0.00499562
-0.00014675
-0.000793027
0.00284894
-0.00205591
-0.000431687
0.000378839
-0.000529728
0.00167554
-0.00114581
-0.0040357
0.00334304
0.000692656
-0.00326962
0.00235469
-0.00386909
0.000675055
0.00319403
0.00140946
-0.00101241
-0.000397052
-0.00589957
0.000696646
0.00184658
-0.00141074
-0.000435842
0.00141326
-0.000401814
-0.00101145
7.83752e-05
0.000129419
0.0029332
-0.000639475
-0.000221512
-0.00348726
-0.00038183
0.000428156
-0.00305408
-0.000981622
-0.00233615
-7.74892e-06
-0.00292514
0.00228911
0.000720904
0.00260165
-0.00332255
0.000584805
-0.000859654
0.0014071
-0.00671688
0.00530978
-0.00577914
0.00098436
-0.00234464
0.00353981
0.000691757
0.000258278
-0.00273267
0.00345357
-9.9891e-05
0.00508659
0.000617931
0.00170356
-0.0023215
-0.00177606
0.00124634
0.00274621
-0.00369569
0.000949478
0.00510113
0.000667627
0.00154479
0.000313572
0.000386309
-0.000364047
-0.00040477
0.00018097
-0.0017456
0.00176684
-0.000888843
0.000855911
0.000612327
-0.000585238
0.00301097
-0.00242572
-0.00150074
0.00184192
-0.000341175
-0.00489533
0.00380192
0.00109342
-0.00480932
0.00150938
-3.92307e-05
3.90389e-05
1.91815e-07
-0.00281103
-0.000856471
0.00107792
-0.00129218
0.000214254
0.0013587
-0.00495044
0.00106099
4.6323e-05
0.0012436
0.000694747
0.0021879
-0.00366734
0.000856321
0.00019402
-0.00504232
0.00190083
0.0012141
0.000691134
-0.00527265
-0.000491851
0.00565475
0.00118445
0.00710775
-0.00218515
-0.00492259
0.000785339
-0.000376589
-0.00040875
0.000718554
-0.0013824
0.000779831
-0.00386049
-0.00125725
0.000308006
-0.000932823
-0.000420454
0.00135328
0.00232916
0.00400855
-0.00486709
0.00270249
0.000834807
-0.0035373
0.00124959
-0.000963747
-0.000285846
0.000745263
0.00159494
-0.000135043
0.000138282
-3.2397e-06
-0.000709908
0.00288352
-0.00217361
0.00362176
0.00110023
-0.00126242
-0.000414061
0.00142075
-0.00154748
0.000126731
4.71313e-05
7.09572e-05
-0.00447797
0.000967468
-0.0016535
0.000443928
-0.00364755
0.00293298
-0.000948112
6.80327e-05
0.000935409
0.00268028
-0.00361569
0.000846896
-0.00126198
0.00419137
-0.00292939
0.000318499
0.000279895
4.65688e-05
-0.000326464
7.83098e-05
-0.00539159
0.00531328
-0.00263193
-0.000781916
0.00341385
-0.00349444
0.00260791
0.000886533
-0.00277377
-0.000262138
-0.00171289
-0.00491446
0.000894451
-0.0014549
-0.000881249
-0.00106326
0.0037925
0.00170863
-0.00372591
0.00201728
0.000105866
2.17357e-05
0.00372631
-0.00201768
0.0028621
0.00096297
-0.00382506
-0.00130215
0.00174123
-0.000439079
0.00357393
0.00110303
-0.00467696
0.00718582
-0.00197309
-0.00521272
-0.00212691
-0.000711462
-0.0017282
0.00234612
0.00377329
-0.00492852
0.00115523
-0.00280171
0.00373711
0.00114298
7.51059e-07
-0.00114373
0.0014815
0.000907136
-0.00551064
0.000600203
0.000431965
0.000353373
0.00292154
-0.00112205
-0.00252111
0.00247996
4.11613e-05
0.000504889
-0.00184046
0.00133557
-0.00386867
-0.00119356
0.00109
-0.0025449
-0.0052991
0.000151331
-0.00124873
-0.000525012
0.00177375
0.00563699
-0.00449257
0.000104505
0.000283478
-0.00301572
0.00319065
0.00143984
-0.00107156
-0.000368287
0.00346815
0.00475957
-0.000957657
0.000646521
-0.00327844
0.00108929
-0.000960811
-5.28822e-05
0.000461479
0.000393972
-1.97184e-05
-0.00207263
-0.000456789
0.00153471
-0.000914244
-0.00349743
0.000764775
-2.74544e-05
-1.17763e-05
0.00599854
-0.00492078
0.00522182
-0.00439429
9.5918e-06
-0.00059244
0.000582848
0.00194881
-0.000458503
-0.0014903
0.00335887
-0.000757224
-0.00256788
0.00336099
-0.000793116
-0.00183357
0.000531426
0.00127851
-0.000952171
-0.000326339
-0.000118767
-0.000210173
0.00205888
-0.000548267
-0.00151061
-0.00137956
-0.0023943
-0.000126808
0.0020891
-0.00274524
0.000656139
0.00280646
-0.000750903
-0.00205557
0.00410334
-0.00434979
0.000314764
0.00224175
-0.000635436
-0.000683051
0.000834792
-0.00367762
0.00503631
0.00121138
0.000468529
-0.00171726
-0.00286676
0.00209656
0.00363322
0.0015886
-0.0011401
-0.00383239
-0.00114614
0.00130325
-0.00171689
0.000413634
0.00367502
-0.00318606
-0.000193842
0.00113598
-3.84997e-05
-0.000269996
0.000308497
-0.00069963
-0.00189559
0.00377203
-0.00490888
0.00113685
-0.00186056
0.00235292
-0.000492359
-0.00115649
0.00213211
0.000751409
-0.00226189
0.00375481
-0.00149292
0.00150483
-0.00114096
-0.000363865
-0.00101508
0.000294157
0.000199696
-0.000439698
0.000240002
-0.000425843
-0.00122766
-0.00248017
0.00250404
-2.38698e-05
0.00144945
-0.00371135
0.00162437
-0.000371675
0.000372755
-0.000429729
5.69745e-05
-0.000826585
0.000593546
0.000233039
-0.000794946
-0.00285124
0.000833604
0.00201764
-0.00199658
-0.000840402
-0.000716975
0.00155738
-0.00524312
0.00389566
0.00134745
-0.00122819
0.00123778
-0.00057639
-0.000115923
0.000692312
0.0028682
-0.000736094
-0.00077036
-0.000160185
0.000930545
0.0018412
-0.00137267
0.00169838
-0.000395122
-0.000138899
-0.000636961
-0.00420383
0.0048408
-0.00138961
0.00283074
0.00427701
-0.00239906
-8.11071e-05
0.0031198
-0.00473723
0.000733332
0.00158141
-0.00231474
0.00200766
-0.00280068
0.00199275
-0.000730118
-0.00126263
-0.00179588
0.000455937
0.00133994
0.00431879
0.00286702
-0.00552112
0.00133875
0.00418237
-0.00125123
-0.00399188
-0.000460126
-0.00133576
-0.000997679
-0.00056376
-0.00129189
-0.000425003
0.00114477
-0.000532097
0.00150716
-0.000975061
-0.00175707
0.00129694
-0.000944497
-0.000207178
0.00115168
0.00217094
-0.00286684
0.000695903
-1.17688e-05
0.000206163
0.00103251
0.00606804
-0.00140728
-0.00466077
-0.00203631
-0.0018739
0.00133763
0.000536274
0.00127139
-0.000978313
-0.000293081
-0.00229199
-0.00102803
0.00332003
-0.00266986
0.00358427
-0.00091442
-0.000921136
0.0011156
1.17556e-05
-0.00112736
0.00376075
-0.00493784
0.00117708
0.00174749
-0.0013553
-0.000392184
0.00242707
-0.00122486
0.00273937
-0.000635052
-0.000191532
-0.00409047
0.00229219
-0.00180184
-0.000490351
0.000560768
-0.00200897
0.0014482
-0.0025137
-0.000844618
0.000859403
-0.000658128
-0.000201275
-0.000180509
-0.00364444
0.000974581
0.000678743
-0.000479046
0.00259123
0.000993041
0.000319224
0.00129842
0.000694337
-0.00160298
0.0023363
-0.00150025
0.000987359
0.000512892
0.00355129
-0.000689187
-0.00380979
0.00610369
-0.00114812
-0.00248818
0.00682978
-0.00434159
-0.000888913
0.00356919
-0.00414181
0.000932289
-0.00210138
0.00424947
-0.000695873
-0.00161576
-0.0024496
0.00170857
0.000741033
-0.00128017
0.00039937
-0.000449312
4.99432e-05
-0.00137447
-0.00077691
-0.000153475
0.000930386
-0.00156569
0.00136042
0.000205273
0.00203531
0.00081363
6.23751e-05
-0.00130014
-0.000555378
-0.000827022
-0.0024214
-0.000484993
-0.0013889
-0.000171077
0.00159263
-0.000180708
0.00341124
-0.000514298
0.00133895
0.000200009
-0.000827886
-0.000971971
-0.00192988
0.00247692
-0.000547045
-0.00104429
-0.0057289
0.0035108
0.00147033
-0.00061442
0.00288737
-0.00121379
0.000965323
-0.00135878
-0.00453035
0.00588912
0.000620519
-0.0025504
0.000741293
-0.00369022
0.00269809
0.00099212
0.000889528
-0.00142162
0.00222492
-0.00311836
0.000893434
0.00119633
-0.00342968
0.00223335
0.000861005
0.00168774
-0.00254875
-0.000174417
0.00179327
0.00274269
0.00107898
0.00361908
-0.000413521
0.000783011
0.00315853
-0.00402692
0.000984575
-0.00327656
0.000435953
0.00412539
0.00146881
-1.07322e-05
-0.000274069
0.000284801
-0.006193
0.00385609
0.00233691
-0.000830888
-0.00261438
0.00344527
0.0026396
-0.00177859
-0.00369672
0.00089501
-0.00132124
-0.000435829
-0.000152711
0.00131981
0.00372724
0.00123259
0.000224351
0.00130853
-0.000991857
-0.000316675
0.000881813
0.00058852
-0.000313823
0.0037677
-0.00493508
0.00116738
0.00307841
-0.000853502
-0.00139837
0.00190325
0.00125759
-0.00355415
0.00229656
-0.00117014
0.00145563
0.000678635
-0.00213427
0.000193038
-0.000203771
0.00219833
-0.000860458
-0.00125491
0.000330219
0.000927131
-0.000347604
-0.000579526
0.00353267
-0.00227509
-0.000510766
0.00229321
-0.00178245
0.00101895
-0.00297103
0.00208045
0.000890589
0.000106933
-1.06683e-06
0.00467244
0.000543686
-0.00570654
-0.005197
0.00392753
0.00126947
-0.00107882
-0.00269423
0.00377304
0.00222127
0.00372508
0.00282614
-0.00375374
0.000927607
-0.00146934
0.00110051
-0.000959497
0.00337634
-0.00241684
0.00149653
0.000562349
-0.00378492
-0.00240808
0.00108369
-0.00230172
0.00321535
-0.000913639
0.00343671
-0.0008288
0.000396713
-0.000815939
0.00254155
0.000895162
-0.000635619
0.00431064
-0.00130817
0.00171574
-0.000407571
0.00200453
-0.00127095
-0.000390355
0.00607685
-0.00492164
-0.000460494
0.000858773
-0.00246175
-0.00539159
-0.00172216
0.000413985
-0.000678148
0.000101759
-0.000870572
0.000211771
-0.0014682
0.000673083
0.00156867
-0.000905429
0.000135069
0.000805355
0.0025158
-0.00332117
-0.00109513
0.00187362
-0.00194664
-0.000474455
0.00196115
-0.0014867
-0.000887948
-0.00208308
-0.00195169
0.00147724
-0.0026573
0.00346265
-0.00163952
0.00058702
0.0010525
-0.000982947
0.00357417
0.00602337
-0.00231037
-0.00130224
-0.000419924
-0.00173964
0.00109812
0.000641518
0.00090611
-0.00452012
0.00361402
-0.00131301
0.000544881
0.000768125
-0.00403587
-0.00116113
0.000191708
-0.0011362
0.00193833
-0.000724222
-0.00135101
-0.00380447
0.00515548
0.00100004
7.2659e-05
0.00329714
-0.0025277
-0.000769446
0.00013208
0.00128118
0.000876567
-0.000669322
-0.000207245
-0.00134449
-0.00101811
-0.00108664
0.00512689
-0.00404025
0.000636803
-0.00249737
0.000133643
0.0012871
0.00377323
-0.00496285
0.00118963
0.00288111
-0.00204751
0.000101897
-0.000168293
6.63963e-05
0.00102966
0.0001381
0.00010429
0.00236128
0.00370677
-0.000585781
-0.000804528
0.00139031
0.000653357
0.00177085
-0.00242421
0.00240351
-0.00170158
-0.000701926
0.000475789
0.00147302
0.000426246
-0.000513499
-0.000799509
0.000599317
-0.00532414
0.000690398
-2.98636e-05
-0.00116185
-0.00131831
-0.00379395
0.00511226
0.00103126
0.00143685
-0.00189536
0.00254652
-0.000394739
-0.00490874
0.00530348
0.00012065
-1.87526e-05
0.000664009
0.00127432
0.00272821
0.000945871
-0.00367407
0.00137494
0.000471645
0.00258735
-0.00364054
0.00454665
0.00277375
0.000843839
-0.00361759
0.00161603
-0.000827907
-0.000788122
0.00132777
-0.00101797
-0.000309798
0.000423859
0.00106022
-0.00470077
0.000218439
-6.86323e-06
0.000199901
0.006044
-0.00127666
0.00152579
-0.00212859
0.00252828
-0.00182096
-0.000707319
0.000864628
-0.00254438
0.00167976
0.00523434
-0.00281602
-0.000926924
-0.00158498
0.00500969
0.00148634
-0.00178137
0.000295028
0.000499458
-0.000103655
-0.000395801
-0.000997916
-0.00313939
0.00413731
0.000742709
0.00181919
-0.0025619
0.00176754
-0.000281197
0.00224717