/*--------------------------------*- C++ -*----------------------------------*\
  =========                 |
  \\      /  F ield         | OpenFOAM: The Open Source CFD Toolbox
   \\    /   O peration     | Website:  https://openfoam.org
    \\  /    A nd           | Version:  7
     \\/     M anipulation  |
\*---------------------------------------------------------------------------*/
FoamFile
{
    version     2.0;
    format      ascii;
    class       surfaceScalarField;
    location    "1.256";
    object      phi;
}
// * * * * * * * * * * * * * * * * * * * * * * * * * * * * * * * * * * * * * //

dimensions      [0 3 -1 0 0 0 0];

internalField   nonuniform List<scalar> 
18389
(
-7.97335e-05
7.97335e-05
4.34665e-05
-4.34665e-05
-5.20441e-05
5.20441e-05
4.01056e-05
-4.01056e-05
-5.17947e-05
5.17947e-05
-4.00224e-05
4.00224e-05
-3.47242e-05
3.47242e-05
3.90506e-05
-3.90506e-05
-3.56535e-05
3.56535e-05
4.15273e-05
-4.15273e-05
4.5025e-05
-4.5025e-05
-3.46162e-05
3.46162e-05
-1.58819e-05
1.58819e-05
-4.28651e-05
4.28651e-05
4.34511e-05
-4.34511e-05
2.45721e-05
-2.45721e-05
1.94835e-05
-1.94835e-05
4.58935e-05
-4.58935e-05
4.5925e-05
-4.5925e-05
4.33138e-05
-4.33138e-05
-4.26563e-05
4.26563e-05
3.55862e-05
-3.55862e-05
4.29595e-05
-4.29595e-05
-5.85e-05
5.85e-05
-4.97194e-05
4.97194e-05
-4.17631e-05
4.17631e-05
-4.45447e-05
4.45447e-05
4.56277e-05
-4.56277e-05
4.5853e-05
-4.5853e-05
4.41465e-05
-4.41465e-05
-4.13446e-05
4.13447e-05
-6.30749e-05
6.30749e-05
4.31165e-05
-4.31165e-05
-4.47521e-05
4.47521e-05
4.086e-05
-4.086e-05
4.67013e-05
-4.67012e-05
-4.55539e-05
4.55539e-05
5.35652e-05
-5.35652e-05
-5.88895e-05
5.88895e-05
3.78733e-05
-3.78733e-05
4.48581e-05
-4.48581e-05
4.53749e-05
-4.53749e-05
-4.10073e-05
4.10073e-05
4.49049e-05
-4.49049e-05
4.58723e-05
-4.58723e-05
-4.58533e-05
4.58533e-05
-4.58557e-05
4.58557e-05
-4.06674e-05
4.06674e-05
-4.58839e-05
4.58839e-05
4.59442e-05
-4.59442e-05
4.5958e-05
-4.5958e-05
4.46216e-05
-4.46216e-05
3.77328e-05
-3.77328e-05
-4.57674e-05
4.57674e-05
-5.55461e-05
5.55461e-05
-4.38139e-05
4.38139e-05
4.5753e-05
-4.5753e-05
-4.5994e-05
4.5994e-05
4.32266e-05
-4.32266e-05
-5.93189e-05
5.93189e-05
-4.71476e-05
4.71476e-05
4.96054e-05
-4.96054e-05
4.57367e-05
-4.57367e-05
-1.07164e-05
1.07164e-05
4.57754e-05
-4.57754e-05
4.15885e-05
-4.15885e-05
5.1212e-05
-5.1212e-05
-4.58714e-05
4.58714e-05
4.23153e-05
-4.23153e-05
3.17086e-05
-3.17085e-05
2.22944e-06
-2.22944e-06
-4.40964e-05
4.40964e-05
3.28685e-05
-3.28685e-05
-3.65666e-05
3.65666e-05
3.97672e-05
-3.97672e-05
2.66258e-05
-2.66258e-05
2.61994e-05
-2.61994e-05
2.70488e-05
-2.70488e-05
2.43893e-05
-2.43893e-05
1.34176e-05
-1.34176e-05
0.00107679
-0.000883091
-0.000193693
0.00546678
-0.00207592
-0.00339085
-0.00594628
0.00594629
-8.55223e-09
0.00335419
-0.00259867
-0.000755524
-0.00154413
0.00176057
-0.000216437
-0.00676471
0.00284495
0.00391977
0.00121549
0.0042513
0.00725605
-0.00587588
-0.00138018
0.00117346
-0.00191857
0.000745109
-0.000868701
-0.000675428
-0.00144231
-0.000314624
0.00175693
0.000159466
1.69664e-06
-0.000161162
0.000778446
-0.00222075
-0.00360327
0.000123315
0.00347995
-0.00320215
0.00289143
0.000310729
-0.00571748
0.00726234
-0.00154486
-0.00370926
0.00289659
0.000812662
-0.000564218
-0.00303905
-0.00174709
0.00238799
-0.000640901
-0.000465022
0.00255862
-0.0020936
-0.00160828
0.00110932
0.000498956
0.000583527
0.000581832
-0.00159915
-0.00516556
0.00124477
-0.00179023
0.000545464
0.0057815
-0.00386186
-0.00191963
-0.000657449
0.00331048
-0.00265303
-0.0058346
0.00583509
0.000484427
0.00127614
-0.00634996
0.000970205
0.00537976
0.00232749
-0.00298494
-0.00378986
0.0031135
0.000676362
0.00214803
-0.00422395
0.00108783
-0.000202732
-0.000885093
0.00150328
-0.0012894
-0.000213883
-0.00280124
-0.000400909
0.00535144
-0.00535199
0.000368274
0.00113501
0.00522893
-0.00133727
-0.00389167
0.00200147
-0.000828007
0.00308569
0.00190869
-0.00499437
-0.000722038
-0.00306783
-8.91112e-05
-0.000154756
0.000243867
0.00393543
0.00332062
0.00117042
-0.004895
0.00372458
0.00162843
0.00360051
-0.004982
0.00632136
-0.00133936
-0.00113407
-0.000592403
0.00172648
0.00133873
0.00201545
0.000135294
0.000103626
-0.00023892
0.00502251
-0.00339409
0.00645941
-0.000842705
-0.0056167
0.00321867
-0.00265516
-0.00056351
0.00222686
0.000445807
-0.00267268
0.00295338
-0.000726511
0.00650351
-0.00539836
-0.00110514
0.000510281
-0.00387497
0.00336469
6.97551e-05
0.00638966
0.00481474
-0.00430446
-0.000535783
0.00105937
-0.000523584
-0.00175885
0.000624776
0.00191709
0.00224908
-0.00416616
0.000253463
-0.000333685
8.02216e-05
-0.00127089
-0.00284572
0.00411661
-2.64857e-05
0.00653
-0.00281694
0.00229216
0.000524778
0.000388187
-1.22064e-05
-0.000375981
-0.00569229
-0.000253996
0.0018749
-0.00139047
0.000828119
0.00495338
0.000891862
0.000184926
0.00263097
-0.00645723
0.00382627
-0.0011202
0.000584417
0.00263765
-0.00390854
0.0061969
-0.00226146
0.0010921
0.00117729
-0.00077313
0.00102056
-0.000247432
-0.00110977
-0.000498512
0.00189581
0.00132285
-0.000595754
0.00142984
-0.00123773
-0.000192104
-0.0026545
0.00198715
0.000667352
0.00116709
0.00026275
0.00114072
-0.00498223
0.0038415
-0.00476229
0.00142371
0.00333857
-0.00455429
0.00611799
-0.0015637
-0.00506254
8.05448e-05
-0.00201618
-0.000638313
-0.000214772
0.000125661
-0.00123006
0.00465395
-0.0034239
-0.00122768
-0.000690895
0.000103312
-0.000192024
8.87115e-05
0.000126292
-2.29795e-05
-0.00126426
0.00464318
-0.00337892
-0.00015603
2.44444e-05
0.000131586
-0.00556874
0.00170688
-0.00118915
-0.000569703
-0.000449472
-1.89341e-05
0.000468405
-0.000543326
9.38537e-05
0.00101323
7.45894e-05
-0.00180806
0.000618919
-0.000150188
1.70867e-05
0.000133101
0.00136801
-0.00234448
0.000976468
0.000271105
-0.000135811
-0.00392554
0.00514104
-0.00245654
0.000709458
-9.29205e-05
-0.000429545
0.000522465
0.00568649
-0.00216989
-0.00351661
7.65446e-05
0.00250735
-0.0025839
0.00447189
-0.00562077
0.00114889
0.00263419
0.0030523
0.00291301
-0.00283647
-0.00616342
0.00044595
-0.00646655
0.00362743
0.00283913
0.00229364
0.00390326
-0.00439131
0.0013836
0.00300771
0.00149131
-0.000246536
-0.00102729
0.00402194
-0.00299464
0.00463957
-0.00162713
-0.00301244
-0.00461088
0.00374823
0.000862654
0.00369357
-0.00503084
5.86742e-05
0.000329513
-0.00137528
0.00584718
-9.32304e-05
0.00214905
-0.00205582
-0.00206382
0.00260646
0.000176745
-0.0027832
-0.00127741
0.00264541
-0.000651103
0.00325756
0.00164017
-0.00173339
0.000913084
0.00397232
-0.00488541
-0.00504191
0.00384323
0.00119869
0.0025519
-0.00359409
0.0010422
-0.00333849
0.00411962
-0.000781121
0.00033507
-0.00367357
-0.000879711
0.000879711
-0.000446646
0.000353726
-0.000126978
-0.000973465
0.00110044
0.00506989
-0.00184349
-0.0032264
-0.00243286
-0.000368388
0.0029
0.000157789
1.65021e-05
-0.000174292
-0.00146884
0.0011229
0.000345934
-0.000140582
-0.00490133
0.00506291
-0.0038925
0.000258445
-9.89795e-05
0.00444527
0.000577244
0.00406759
-0.00151568
0.000164884
-7.09479e-06
-0.0063297
-0.000982819
-0.000825247
0.00430054
-0.00190496
-0.00239558
0.00275612
0.00154442
0.00107771
-0.00563199
-0.00225783
-0.000559109
-0.00111923
-0.000959009
0.00207823
3.93468e-05
-0.00272227
0.00268292
-0.0023576
0.00123837
-0.00221811
0.00530379
-0.00462338
0.00160679
0.0030166
0.0025467
0.000668375
-0.00033352
-0.000334855
-0.00601437
0.000583008
0.00543136
-0.00418341
0.00582829
-0.00164489
0.00182563
0.00162934
-0.00345498
-0.00167166
0.00090159
0.000770073
-0.00271483
0.0020772
0.000637639
0.00110007
0.000774828
0.000247198
-0.000328939
8.17421e-05
0.00491042
-0.00399734
-0.00638778
0.00557635
0.000811431
-0.00478837
-0.00167818
0.00334118
0.000650066
-0.00399125
0.000153949
-0.000162139
8.1904e-06
0.000590503
-0.000125322
-0.000465181
-0.00451843
0.00261347
0.000365621
-0.000562045
0.000196425
6.1168e-05
-0.000940881
-0.00257573
0.00448442
-0.0053051
-0.000323233
0.00562834
0.000202466
0.000181571
-0.000384037
0.000654963
-0.000654963
0.00168403
-0.000727687
-0.00211012
0.00181066
0.000299458
0.00440469
-0.0030211
-0.000162282
6.25268e-06
-0.00120708
0.00126824
0.000717992
0.00128348
0.00234829
-0.000271087
-0.00402036
-0.00128473
0.00111355
-0.00498853
0.00321266
-0.00447691
0.000836513
-0.00213537
0.00129886
0.00335888
-0.00458894
-0.00271195
-0.00180649
-0.00483633
0.00469575
-0.000675944
-0.00533842
-0.00515956
0.00150535
-0.00145943
-4.59239e-05
0.00223092
0.000117362
-0.00601379
0.00204814
0.00396565
-0.00121933
0.000526001
0.000693329
0.00145793
0.00294676
-0.00462533
-0.00101684
0.00564218
-0.000212783
0.000138488
7.42937e-05
-0.00551881
0.0013354
0.00375306
-0.0049369
0.00118385
-0.00149093
-0.000619183
-0.000536674
-0.000637499
0.000138367
-0.000203832
6.54639e-05
0.00500299
-0.00386228
-0.00130117
0.00512575
-0.00382459
-0.000403
-0.000804075
-0.00586108
0.000439434
0.00539565
-0.00616783
0.00456867
-0.00092373
-0.00546405
-0.0010915
-0.000377337
-0.00181616
0.00285696
-0.0010408
-0.000419202
0.000322091
9.71113e-05
-0.00173203
0.00141741
0.00160423
-9.88785e-05
0.000827836
-3.67543e-05
-0.00169528
0.00279608
0.00121835
-0.0030345
0.00604939
-0.000473038
0.00528084
7.05963e-05
-0.00528223
0.0043917
0.00114313
-0.00553484
0.000556425
-0.00076883
0.000212405
-4.02773e-05
-0.000406369
-1.658e-05
0.00606597
-0.000162209
0.000156853
5.35642e-06
0.000133312
2.06364e-05
0.00253581
-0.00335884
0.00082303
-0.00192244
0.000732012
0.00119043
0.00792214
-0.00345414
-0.00446799
0.00117149
0.00126275
-0.00243424
0.000104493
-0.000175761
7.12681e-05
-0.00080587
0.00133187
0.00116537
0.00318091
-0.00434627
-0.00561441
0.000165684
0.00544872
-0.00402083
0.00299354
0.00173509
0.00479491
0.00458037
0.00334176
-2.22908e-05
0.00018998
-0.000167689
-0.00131287
0.00440012
-0.00308724
0.000301632
-0.00034191
-0.000131299
-8.14838e-05
0.00410107
-0.00227545
0.00477698
-0.00502388
0.000246895
-0.0032545
0.00609942
-0.00284492
0.0025263
0.00157477
0.00576301
-0.000986031
-0.00139644
-0.00562065
0.00137236
0.00424829
0.000654644
0.00052069
-0.00117533
0.00126956
-0.000614912
0.000585343
-0.00111024
0.000524898
0.00110603
0.000276102
0.000392273
-0.000678272
0.00443133
0.0015157
-0.000392797
0.00354812
-0.00613818
0.00259007
0.00153262
-0.00258409
0.00105147
-0.00432437
0.00116951
0.00315487
0.00291202
-0.00422489
-0.00491316
-0.00125467
-0.00410105
0.00127012
0.00283093
0.00125258
0.00314753
-0.00326421
-0.000836848
0.00222617
-0.00105469
-0.000684901
-0.00252795
0.00321285
0.00240461
0.000621673
-0.00302628
-0.00158783
0.00119911
0.00038872
0.000269965
0.0014822
-0.00196379
0.000481592
-0.000110914
-0.000222772
-0.000264362
0.000153448
-0.00435489
-0.000255988
-0.000292092
0.00117046
-0.000878371
0.00435119
-0.00464565
0.000294462
-8.84202e-05
0.000117767
-2.93469e-05
0.00097549
0.00338099
-0.00435648
-0.000157
6.85804e-05
-0.00475257
0.000711274
0.00404131
-0.00070892
0.000113088
0.00059583
6.72105e-05
-6.55139e-05
-0.000401373
0.000864666
-0.000347476
-0.000517191
-0.00603577
0.000637406
-0.00254966
-0.000128198
0.00267786
-0.00316846
0.00442103
0.00218082
-0.00108872
-0.00116719
-0.00117266
-5.50104e-05
-0.00351958
-0.00124271
0.00150517
-0.000400866
-0.0011043
0.00191856
0.00183897
-0.00375753
0.00504989
-0.00161979
-0.00343009
0.000794666
-0.00541999
-0.00137352
0.00300286
0.00196439
0.000778421
-0.00274281
-0.0034974
0.00447289
-0.000152947
2.75942e-06
0.000938218
-0.00443561
-0.0044972
-0.000148459
-0.000998299
-0.00461611
0.00463637
0.00149435
0.00355553
0.00416066
0.00114349
-0.00530414
3.6069e-05
5.92006e-05
-9.52696e-05
-0.00140398
0.00336838
0.00371683
0.00354551
-0.00139798
0.00236892
-0.000970931
-0.00248117
0.00046499
-0.000878412
0.000751433
-0.000205511
0.000407977
-0.000216576
0.00169878
0.00376333
-0.00184477
-0.00106896
-0.000602708
-0.000107144
-0.000157217
0.00355041
-0.00163332
-0.0024037
0.00465279
0.000674536
-0.00309589
0.00242136
0.000636471
0.00076281
-0.0010549
0.00209926
-0.00131737
-0.0032743
0.00459167
-0.00218679
0.00481776
-0.000553688
0.00344511
0.000238024
-0.000220938
-0.00236219
0.000964216
0.00232902
-0.00386949
0.00154049
-0.00120445
5.72676e-05
-2.11986e-05
0.00214657
-0.00279591
0.000649339
-0.00116682
-0.000421003
-0.00353399
0.00450419
0.00119677
0.00167351
-0.00287029
-0.00168884
0.00366491
-0.00197607
0.00424257
-0.000861588
0.000234409
1.41142e-05
-0.000248523
-0.00372299
0.00203415
-0.00143304
0.00472317
-0.00329013
0.000878021
0.0013028
0.000168569
0.000486393
0.000253002
-0.000300689
4.76864e-05
0.00170115
0.000210309
-0.00191146
0.0030175
-0.00459438
0.00157688
-5.28119e-05
0.000374222
-0.00032141
0.00156024
-0.000361134
0.00139596
-0.000607446
-0.000788511
0.00282204
-0.00392774
0.0011057
0.00267915
-0.0037435
0.00106436
-0.0051692
0.0019147
0.00390781
-0.000890304
-0.000639025
-0.00237236
0.00301139
0.00140783
-0.00511795
0.00371012
0.00336053
-0.00145893
-0.00190161
-0.00067979
0.00172433
-0.00104454
0.00477145
-0.00303636
-0.000691271
-0.00196388
-0.00598337
0.00514066
3.81147e-06
0.000121759
-0.000125571
-0.0015775
0.00119832
0.000379181
-0.00490933
0.00630991
-0.00140058
-0.00188329
0.000727563
0.00115573
0.000405932
0.00268626
-0.002087
-0.000599263
0.0034355
0.000489067
-0.00392457
0.000124262
-1.97686e-05
0.00517173
0.000337033
-0.00550876
-0.0019407
0.00379759
-0.0018569
0.00277146
-0.000645645
-0.00212582
0.000462558
0.000402109
-0.000436891
0.00387239
0.00202612
-0.00396682
0.000701842
-0.000265932
-0.000435909
-0.000631377
3.14632e-06
0.000628233
-0.00315236
-0.00576672
0.00576639
-0.000274828
0.000949495
-0.000674669
-0.00228705
-0.000194124
-0.00455698
0.0032396
-0.000875163
0.00113438
0.00360708
-0.0050198
0.00141272
0.00041068
-0.00296034
0.00232952
-0.00244135
0.000111823
-0.00157141
0.00148227
8.91397e-05
-0.00120831
-0.000369188
-0.00339161
0.00342893
-0.00223215
0.00045723
0.000133273
-0.00173242
0.00105263
-0.00279652
0.000750178
0.00204634
0.000242427
-8.01786e-06
-0.00347746
0.00102398
0.00245348
-0.00144477
0.00560542
0.000339399
-0.000953029
0.000613631
0.00211539
0.00065607
-0.00127775
0.000304283
0.00111112
0.00121841
-0.00143248
0.00496264
-0.00353016
-0.00485103
0.00577448
-0.00092345
-0.00117593
0.00228655
0.0041031
0.00107162
3.7707e-05
0.00586208
-0.00551243
-0.000349644
0.00356247
-0.00466428
0.00110181
0.0030933
-0.000688698
0.00542573
-0.00181865
-0.00250308
-0.000974382
-0.00217002
-0.000325316
0.00249535
0.0024127
-0.0019669
-0.00160817
-0.00424215
0.00274626
0.00149589
-0.000325859
0.00122745
0.00122041
0.00366063
-0.00488103
-0.000299519
0.00066514
0.00305957
-0.00238503
-0.00472462
-0.00125875
0.0064704
-0.00129867
0.00424443
0.00206049
0.000498134
0.00285482
-0.00212499
-0.000729837
0.00473789
-0.00245134
-7.24377e-05
-0.00332534
-0.000870531
0.00419587
0.000387741
-8.64126e-05
-0.000301329
-0.00514457
0.00610944
-0.00096487
-0.000738012
0.0019024
-0.00116439
-0.000697107
0.00525217
-0.00455507
0.00117076
-0.00190877
-0.000113423
-0.00576245
-0.00077313
0.0020249
0.00383718
-0.000242783
-0.00192724
0.000251399
-4.2012e-06
0.000362599
-0.00048792
0.00336224
-0.000826432
-0.00522671
-0.00027164
-0.000147562
0.000150189
-0.000133571
-1.66181e-05
-0.00248333
0.000125728
-0.000422841
0.00159001
-0.00101195
-0.000578056
0.00247369
0.00059102
-0.00306472
-0.000711797
0.00318548
-0.00520292
-0.000271502
0.00547442
0.00375045
0.00137531
0.00441359
-0.00123268
-0.000134903
0.0025476
0.00540386
-0.000206661
-0.0051972
-0.00608725
0.00425218
0.00183509
0.0032107
-0.00126821
-0.00435244
0.00020193
-0.000224221
0.000579136
0.000816819
0.00107381
0.000111931
-0.00118574
0.00421231
0.00119155
-0.000959073
0.00317205
-0.00221298
0.00473821
-0.00139703
-0.00217833
0.00279256
-0.000614222
-0.00117704
-0.000127873
0.00031585
-0.000187977
0.00344645
-0.00414356
0.00134431
-0.000987505
-0.000356799
0.00159522
-0.000396894
-0.00325088
0.0022918
0.00548596
-0.00434284
-3.06282e-05
0.00035272
-0.00535702
0.000447678
0.0054536
-0.00190548
-0.00100287
-0.00361445
0.00461733
-0.000646725
0.00288262
-0.00223589
0.00549725
-0.00286245
-0.00263481
-8.83973e-05
0.000592672
-0.00067724
0.00066056
1.66797e-05
-0.000687652
0.00172944
-0.00104179
-0.00314836
-0.00117601
0.000155571
-1.72038e-05
-0.00122457
-0.00478922
-0.00307742
0.00239251
-0.000451684
-0.000203277
-7.26285e-05
-8.95803e-05
-0.00120362
-0.000805788
-0.00522999
-0.0028382
0.00219148
-0.000818596
0.00118687
0.00112542
0.00438805
-0.00551346
0.00340405
-0.00275398
0.00046874
0.000774389
-0.00288425
0.00210987
0.00499062
-0.0049442
-4.64117e-05
-0.00320954
0.0036156
-0.000406053
0.000207796
-9.56089e-05
-0.000112187
-0.00496275
-0.0014945
-0.00175634
0.00369006
-0.00193372
0.00298145
-0.00220706
-0.00378375
0.00202742
0.00139501
-0.00258174
0.00118673
-0.00363322
0.00568137
0.00649946
-0.00219617
-0.0043033
-0.00239964
0.00237324
2.64083e-05
0.00562114
-0.00164883
0.00118658
-0.000924595
-0.000261982
-9.11084e-06
0.000262113
0.000249649
-0.000773386
0.000523737
-0.00304588
0.00365146
-0.000972317
0.000845445
-0.00104818
0.00236201
-0.000631528
-0.00173048
0.00220544
-0.000504293
0.00452838
0.000629217
0.00173279
-0.00175318
0.00106553
0.000408594
-0.00046469
5.60955e-05
0.00221052
-0.0017448
-0.000465725
0.000834296
-0.0051478
-0.00054449
0.000369492
-0.000588343
0.000218851
-0.00410111
0.00547347
0.000942151
-0.00111663
0.000174478
-0.00152071
0.00216449
-0.000643782
-0.00149181
-0.00275034
-0.00537999
-0.000157077
0.00553708
0.000301485
0.000108306
4.18836e-05
0.000127986
-0.000127918
-6.7483e-08
0.00412251
-0.0029021
-0.00380433
-0.00233385
0.00346524
0.00303422
-0.00259665
0.000736041
0.00186061
-0.000844682
0.00223968
-0.00229606
-0.000103582
0.00272875
-0.00377748
0.00104873
0.00130605
-0.000135586
0.000460019
0.000553216
-0.00327789
0.000965059
0.00231283
0.00091723
-0.000600643
-3.07353e-05
-0.00427876
0.00172628
9.67864e-05
-0.00182306
-0.00396583
0.00146644
0.00249938
0.000521053
0.00146399
-0.000884856
-0.000246076
-0.00466044
0.00490652
0.000784802
-0.00247681
0.00169201
0.0012022
0.00131232
-0.000475517
-0.00171101
0.00218653
0.00258011
-0.00179531
0.00447099
-0.00353277
-0.000783213
-0.00264081
-0.000227585
0.00025203
-0.000702091
0.00176353
-0.00106144
0.00265908
-0.00366752
0.00100843
0.000136458
2.03946e-05
-0.00236265
-0.000915242
0.00142152
-0.00163643
0.00021491
-0.00277446
0.000687464
0.00127652
-0.00141876
0.000142236
0.00161887
-0.00180791
0.000189041
0.000676494
-0.00372884
-0.00116616
0.00135408
-0.00490564
0.00355156
-0.000915109
0.00357418
0.000116097
-7.71204e-05
-3.89767e-05
0.00476791
-0.00364249
-0.000333383
-0.00153285
-0.00401785
-0.00150096
0.00209122
0.000701327
-0.00101573
-0.000923914
-0.00453098
-0.00163244
-0.000380474
0.0012424
-0.00093104
-0.000311357
-0.00149526
-0.00108884
0.000658014
0.0022566
-0.00291462
-0.000114285
0.000670709
-0.000715999
3.87588e-05
-0.00245574
0.00196644
0.00139408
-0.000733836
0.0016572
-0.000923367
-8.68714e-05
-0.00011696
0.000317802
-0.00194509
0.000454163
0.00160195
-0.00231128
0.000709329
-0.00334453
0.0025788
0.000765718
0.00119298
0.00241947
-0.00361245
-0.0017527
0.00105061
-0.00294094
-0.00102488
-0.000797359
-0.00254716
-0.00167611
0.00125185
0.000424258
0.00176346
-3.71799e-05
-0.000764343
-0.00243252
0.00319685
-0.000681129
0.00291438
-0.00225637
-0.000858545
-0.00394759
0.00480615
-0.00234339
0.00233848
4.91014e-06
-0.00070892
-0.00156142
0.00054947
-0.00240499
0.00381955
-0.00141456
0.00323286
0.00288514
0.000194396
3.62198e-05
-0.000230617
0.00233994
-0.000603004
-0.00173693
0.000188166
-0.000184355
-0.00359127
0.00494534
-0.00330038
0.00525139
-0.00195101
-0.00351024
-0.00150955
-0.000913584
0.00323163
-0.00231805
0.00285604
0.00177594
-0.00418094
-0.00499817
-0.000146389
-0.000797152
0.00284981
-0.00205266
-0.000431683
0.000378871
-0.000528521
0.0016747
-0.00114618
-0.00403769
0.00334084
0.000696847
-0.00326932
0.00235574
-0.00386945
0.000675731
0.00319371
0.00141002
-0.00101279
-0.000397232
-0.00589957
0.00069665
0.00184648
-0.0014105
-0.000435968
0.00140633
-0.000391463
-0.00101487
7.83762e-05
0.00012942
0.00293323
-0.000641064
-0.000220758
-0.00348722
-0.00038223
0.000428394
-0.0030538
-0.000983892
-0.00233527
-8.11499e-06
-0.00292659
0.00228757
0.000721112
0.00260147
-0.00332258
0.000584301
-0.000859129
0.00141356
-0.00671981
0.00530626
-0.0057889
0.00100052
-0.00234641
0.00353939
0.000691111
0.000258385
-0.00273247
0.00345358
-9.94893e-05
0.0050901
0.00062276
0.00170168
-0.00232445
-0.00177534
0.00124682
0.00274615
-0.00369575
0.000949595
0.00510139
0.000665486
0.00154503
0.000314447
0.000387394
-0.000364071
-0.000404758
0.000180959
-0.00174444
0.00176684
-0.000888823
0.000849564
0.000614422
-0.000586486
0.00301115
-0.00242466
-0.00149678
0.00184131
-0.000344527
-0.00489598
0.00380155
0.00109443
-0.00480495
0.00150458
-3.92918e-05
3.90238e-05
2.68066e-07
-0.00280966
-0.000857853
0.00107485
-0.0012926
0.000217749
0.00136283
-0.00495411
0.0010214
5.24101e-05
0.00124512
0.000695439
0.00218717
-0.00366766
0.000858012
0.000185987
-0.00503702
0.00189832
0.00121024
0.000692161
-0.00527418
-0.000492541
0.00565297
0.00118484
0.00710704
-0.00218494
-0.0049221
0.00078324
-0.000379309
-0.000403932
0.000720941
-0.00138053
0.000777823
-0.00386064
-0.00125731
0.00031585
-0.000928405
-0.00041947
0.00134788
0.0023279
0.00400854
-0.00486708
0.00270231
0.000835034
-0.00353735
0.00124957
-0.000963578
-0.000285993
0.000745319
0.00159462
-0.000135036
0.000138274
-3.23842e-06
-0.000710433
0.00288357
-0.00217314
0.00362069
0.00110249
-0.00126157
-0.00041454
0.00142146
-0.00154177
0.00012031
4.72381e-05
6.8859e-05
-0.00447683
0.00096659
-0.0016523
0.000443988
-0.00364615
0.00293434
-0.000949118
6.60265e-05
0.000936299
0.00267929
-0.00361559
0.000845796
-0.00126106
0.00419245
-0.00293139
0.000318529
0.000279921
4.658e-05
-0.000326501
7.83189e-05
-0.00539166
0.00531334
-0.00263033
-0.000785725
0.00341606
-0.00349537
0.00260558
0.000889805
-0.00278006
-0.000261918
-0.00171336
-0.00491558
0.000897729
-0.00145287
-0.000882401
-0.00106359
0.00379235
0.00170747
-0.00372583
0.00201837
0.000105585
2.24004e-05
0.00372633
-0.00201887
0.00286152
0.000964378
-0.00382589
-0.00130037
0.00174029
-0.000439922
0.00357351
0.00110444
-0.00467795
0.0071844
-0.00197424
-0.00521015
-0.00212633
-0.000711866
-0.00172511
0.00234786
0.00377265
-0.00492916
0.0011565
-0.00280148
0.00373778
0.00113637
-8.97029e-06
-0.0011274
0.00148192
0.000906063
-0.00551213
0.000598966
0.000432205
0.000351034
0.00292153
-0.00112333
-0.00252186
0.00247931
4.25565e-05
0.000504912
-0.00184034
0.00133542
-0.0038694
-0.00119315
0.00109113
-0.002544
-0.00529915
0.000151356
-0.00124609
-0.000527379
0.00177347
0.00563587
-0.00449238
0.000104291
0.000283451
-0.00301464
0.00319139
0.00143972
-0.001071
-0.00036872
0.00346812
0.00476006
-0.000958519
0.000648098
-0.00327843
0.0010601
-0.000947012
-5.28866e-05
0.00046148
0.000393966
-1.97441e-05
-0.00207063
-0.0004553
0.00153015
-0.000916587
-0.00349751
0.000765046
-2.8539e-05
-1.07529e-05
0.00599851
-0.00492079
0.0052225
-0.00439438
1.2857e-05
-0.00059583
0.000582972
0.0019487
-0.000458619
-0.00149008
0.00335894
-0.000757468
-0.0025677
0.00336108
-0.000793371
-0.00183204
0.00053167
0.00127843
-0.000952078
-0.000326354
-0.000118766
-0.000210172
0.00205893
-0.000548388
-0.00151055
-0.0013803
-0.00239356
-0.000128292
0.00208892
-0.00274534
0.000656419
0.00280646
-0.000751011
-0.00205545
0.00410335
-0.00434942
0.000314855
0.00224178
-0.000639824
-0.00068324
0.00083395
-0.00367641
0.00503924
0.00123202
0.000470751
-0.00171684
-0.00286772
0.00209603
0.00363396
0.00158854
-0.00113395
-0.00383374
-0.00114849
0.00130296
-0.00171684
0.000413878
0.00367515
-0.00318609
-0.000193836
0.00113599
-3.86233e-05
-0.000270646
0.00030927
-0.000703168
-0.00189349
0.00377165
-0.0049094
0.00113776
-0.00185963
0.00235201
-0.000492376
-0.00115751
0.00213203
0.000751536
-0.00226238
0.00375528
-0.0014929
0.0015046
-0.00114056
-0.00036404
-0.000989027
0.000280109
0.000186285
-0.000439254
0.000252969
-0.0004258
-0.0012265
-0.00248039
0.0025039
-2.35031e-05
0.00144931
-0.00371169
0.00162359
-0.000371731
0.000367043
-0.00041916
5.21173e-05
-0.00082566
0.000592842
0.000232818
-0.0007952
-0.0028515
0.000836602
0.0020149
-0.00199622
-0.000840807
-0.000709229
0.00155003
-0.0052432
0.00389537
0.00134783
-0.0012103
0.00122316
-0.000576388
-0.000115922
0.00069231
0.0028682
-0.000736177
-0.000770366
-0.000160182
0.000930549
0.00183976
-0.00136901
0.00169784
-0.000394879
-0.000150204
-0.000638599
-0.00420341
0.00484201
-0.00138371
0.00282974
0.0042773
-0.00239859
-8.17977e-05
0.00311871
-0.0047385
0.00073349
0.00158116
-0.00231465
0.00200445
-0.0028016
0.00199176
-0.000734477
-0.00125728
-0.00179589
0.000456068
0.00133982
0.00432176
0.00286263
-0.00552292
0.00134083
0.00418209
-0.00125235
-0.00399084
-0.000460214
-0.00133568
-0.000998841
-0.000562581
-0.0012917
-0.000425138
0.00114561
-0.000533023
0.00150508
-0.000972053
-0.00175703
0.00129682
-0.000944489
-0.000207193
0.00115168
0.0021705
-0.00286693
0.00069643
-1.17665e-05
0.000206163
0.00103268
0.00606894
-0.00141071
-0.00465823
-0.00203632
-0.00187253
0.00133582
0.000536715
0.00127122
-0.000978096
-0.00029312
-0.00229052
-0.00102987
0.00332039
-0.00266843
0.00358496
-0.00091653
-0.000921519
0.00111428
1.09186e-05
-0.0011252
0.00376014
-0.0049385
0.00117835
0.00174746
-0.0013552
-0.000392253
0.00242707
-0.00122486
0.00274049
-0.000634502
-0.000191157
-0.00409274
0.00229029
-0.00180078
-0.000489506
0.000560887
-0.00200887
0.00144798
-0.00251222
-0.000846619
0.000859094
-0.000657731
-0.000201364
-0.000180545
-0.0036441
0.000975672
0.000667283
-0.000480997
0.00258949
0.000995463
0.00031914
0.00129725
0.000694511
-0.00160275
0.00233623
-0.00150099
0.000984411
0.000516582
0.0035544
-0.00069287
-0.00380984
0.00610348
-0.00114925
-0.00249146
0.0068326
-0.00434114
-0.000889501
0.00356879
-0.00414181
0.000932278
-0.00210166
0.00424969
-0.000698827
-0.00161245
-0.00245044
0.00170737
0.000743079
-0.00128039
0.000370841
-0.000434872
6.40318e-05
-0.00137392
-0.000776878
-0.000153503
0.000930381
-0.00156222
0.00135864
0.000203577
0.00203247
0.000817339
6.24316e-05
-0.00130016
-0.000553493
-0.000827038
-0.00242363
-0.00048449
-0.00138804
-0.00017107
0.00159259
-0.000180727
0.00341134
-0.000514757
0.00133895
0.000199401
-0.000825675
-0.000964559
-0.00192973
0.00247699
-0.000547256
-0.00104116
-0.0057289
0.0035108
0.00147136
-0.000621801
0.00288711
-0.0012136
0.00096825
-0.00135884
-0.00453029
0.00588912
0.000620781
-0.00255052
0.000741869
-0.00369096
0.00269649
0.000994461
0.000887835
-0.00142086
0.00222288
-0.00311873
0.000895843
0.00119614
-0.00342973
0.00223359
0.000861067
0.00168757
-0.00254864
-0.00017434
0.00179321
0.00274022
0.0010788
0.00361798
-0.00041352
0.00078301
0.00315749
-0.00402801
0.00098564
-0.00327615
0.000436268
0.00412519
0.00146566
-1.06493e-05
-0.000275204
0.000285852
-0.00619281
0.00385618
0.00233663
-0.000832204
-0.00261339
0.00344559
0.00263948
-0.00177841
-0.00369734
0.000895863
-0.00132111
-0.000435923
-0.000152688
0.00131978
0.00372694
0.00123569
0.000224592
0.00130828
-0.000991682
-0.000316599
0.000879404
0.000591963
-0.000313998
0.00376779
-0.00493567
0.00116788
0.00307896
-0.000856086
-0.00139816
0.00190307
0.00125712
-0.00355421
0.00229709
-0.00117072
0.00145555
0.000678843
-0.00213439
0.000192315
-0.000202965
0.00219835
-0.000859621
-0.00124381
0.000330184
0.000925741
-0.000348043
-0.000577697
0.0035329
-0.00227578
-0.000515557
0.00229698
-0.00178143
0.00101872
-0.00297202
0.00207885
0.000893176
0.000106555
-9.69919e-07
0.00467601
0.000542181
-0.00570776
-0.00519768
0.00392776
0.00126993
-0.00108002
-0.00269355
0.00377357
0.00222123
0.00372506
0.00282616
-0.00375407
0.000927913
-0.00146912
0.00109993
-0.000964392
0.00337898
-0.00241459
0.00149645
0.000562486
-0.00378536
-0.00240745
0.0010859
-0.00230135
0.00321685
-0.000915515
0.00343824
-0.000832659
0.000397081
-0.000819037
0.00254019
0.000898044
-0.000635689
0.00431084
-0.00130827
0.00171601
-0.000407739
0.00200294
-0.00127092
-0.000390318
0.00607682
-0.00491998
-0.000460009
0.000859051
-0.0024618
-0.0053916
-0.00172219
0.000413921
-0.00067815
0.000101762
-0.000871178
0.00021238
-0.0014679
0.000676693
0.00156508
-0.000905431
0.000135065
0.00080562
0.00251566
-0.00332129
-0.00109515
0.00187359
-0.00194655
-0.000474557
0.00196108
-0.00148652
-0.00089115
-0.00208086
-0.00195171
0.00147716
-0.00265712
0.00346273
-0.00163761
0.000589025
0.00104858
-0.000984506
0.003574
0.00602527
-0.00230845
-0.00130195
-0.000420241
-0.00173857
0.00109747
0.000641099
0.000906667
-0.00452061
0.00361394
-0.00131182
0.000547619
0.000764201
-0.00403513
-0.00116254
0.000191713
-0.0011362
0.00193503
-0.000724793
-0.0013538
-0.0038061
0.0051599
0.000999718
7.18988e-05
0.00329716
-0.00252744
-0.000769719
0.000131637
0.0012747
0.000876238
-0.00066907
-0.000207168
-0.00134377
-0.00101842
-0.00109046
0.00513129
-0.00404083
0.000637754
-0.00249739
0.000146457
0.001275
0.00377208
-0.00496311
0.00119103
0.00288217
-0.00204557
0.000101863
-0.000168249
6.6386e-05
0.00102947
0.00013812
0.000104307
0.00235901
0.00370993
-0.000584703
-0.000805263
0.00138997
0.000653689
0.00177065
-0.00242434
0.00240318
-0.00169947
-0.000703709
0.000475921
0.00147277
0.000426351
-0.000513057
-0.000798764
0.000599694
-0.00532432
0.000690438
-2.98785e-05
-0.00116358
-0.00131969
-0.00379492
0.00511461
0.00103278
0.00143669
-0.0018953
0.00254662
-0.000394819
-0.00490876
0.00530358
0.000120596
-1.87327e-05
0.000669311
0.00126572
0.00272691
0.000947232
-0.00367413
0.00137467
0.00047181
0.00258705
-0.0036406
0.00454727
0.00277356
0.000844087
-0.00361764
0.00162928
-0.000826346
-0.000802932
0.00132771
-0.00101807
-0.000309636
0.00042431
0.00106048
-0.00470108
0.000218507
-6.75161e-06
0.000199067
0.00605034
-0.00128244
0.00152551
-0.00212851
0.0025299
-0.00182089
-0.000709008
0.000868274
-0.0025436
0.00167533
0.00523434
-0.00281489
-0.000928603
-0.00158217
0.00501293
0.00148634
-0.00178136
0.000295014
0.000499601
-0.000103667
-0.000395932
-0.000999601
-0.00313898
0.00413859
0.000743162
0.00181857
-0.00256173
0.00176754
-0.000281189
0.0022468
0.00140509
-0.000857475
-0.000937426
0.000160548