/*--------------------------------*- C++ -*----------------------------------*\
  =========                 |
  \\      /  F ield         | OpenFOAM: The Open Source CFD Toolbox
   \\    /   O peration     | Website:  https://openfoam.org
    \\  /    A nd           | Version:  7
     \\/     M anipulation  |
\*---------------------------------------------------------------------------*/
FoamFile
{
    version     2.0;
    format      ascii;
    class       volScalarField;
    location    "15";
    object      p;
}
// * * * * * * * * * * * * * * * * * * * * * * * * * * * * * * * * * * * * * //

dimensions      [0 2 -2 0 0 0 0];

internalField   nonuniform List<scalar> 
607
(
0.00158402
0.00157566
0.00156732
0.001559
0.0015507
0.00154242
0.00153416
0.00152593
0.00151772
0.00150952
0.00150136
0.00149321
0.00148508
0.00147698
0.0014689
0.00146084
0.00145281
0.0014448
0.00143681
0.00142884
0.00142089
0.00141297
0.00140508
0.0013972
0.00158023
0.0015718
0.00156339
0.001555
0.00154664
0.00153829
0.00152998
0.00152168
0.00151341
0.00150517
0.00149694
0.00148875
0.00148057
0.00147243
0.00146431
0.00145621
0.00144814
0.0014401
0.00143208
0.00142409
0.00141612
0.00140819
0.00140028
0.00139239
0.00157321
0.00156467
0.00155616
0.00154767
0.0015392
0.00153076
0.00152235
0.00151396
0.0015056
0.00149727
0.00148896
0.00148068
0.00147243
0.0014642
0.001456
0.00144784
0.00143969
0.00143158
0.0014235
0.00141545
0.00140742
0.00139943
0.00139146
0.00138353
0.00156286
0.00155418
0.00154553
0.0015369
0.0015283
0.00151972
0.00151118
0.00150266
0.00149417
0.0014857
0.00147727
0.00146887
0.00146049
0.00145215
0.00144383
0.00143555
0.0014273
0.00141908
0.00141089
0.00140273
0.0013946
0.00138651
0.00137845
0.00137041
0.0015493
0.00154044
0.00153161
0.00152281
0.00151403
0.00150528
0.00149656
0.00148788
0.00147922
0.00147059
0.00146199
0.00145343
0.00144489
0.00143639
0.00142792
0.00141949
0.00141109
0.00140272
0.00139438
0.00138609
0.00137782
0.00136959
0.00136139
0.00135323
0.00153246
0.00152339
0.00151434
0.00150533
0.00149634
0.00148738
0.00147846
0.00146957
0.00146071
0.00145188
0.00144308
0.00143432
0.00142559
0.0014169
0.00140824
0.00139962
0.00139103
0.00138248
0.00137396
0.00136548
0.00135704
0.00134863
0.00134027
0.00133193
0.00151235
0.00150302
0.00149373
0.00148446
0.00147523
0.00146603
0.00145686
0.00144773
0.00143863
0.00142956
0.00142053
0.00141154
0.00140258
0.00139365
0.00138477
0.00137592
0.00136711
0.00135833
0.0013496
0.0013409
0.00133224
0.00132363
0.00131505
0.0013065
0.00148888
0.00147927
0.00146969
0.00146014
0.00145063
0.00144114
0.0014317
0.00142228
0.00141291
0.00140356
0.00139426
0.00138499
0.00137576
0.00136657
0.00135742
0.0013483
0.00133923
0.0013302
0.0013212
0.00131225
0.00130334
0.00129447
0.00128564
0.00127684
0.001462
0.00145206
0.00144215
0.00143228
0.00142244
0.00141263
0.00140287
0.00139313
0.00138344
0.00137378
0.00136416
0.00135458
0.00134504
0.00133554
0.00132609
0.00131667
0.00130729
0.00129796
0.00128867
0.00127942
0.00127022
0.00126105
0.00125193
0.00124284
0.00143156
0.00142125
0.00141098
0.00140074
0.00139053
0.00138036
0.00137023
0.00136014
0.00135009
0.00134007
0.0013301
0.00132017
0.00131027
0.00130042
0.00129062
0.00128085
0.00127113
0.00126145
0.00125182
0.00124224
0.0012327
0.0012232
0.00121374
0.00120431
0.00139743
0.0013867
0.00137601
0.00136536
0.00135474
0.00134416
0.00133362
0.00132313
0.00131267
0.00130225
0.00129188
0.00128154
0.00127125
0.00126101
0.00125081
0.00124065
0.00123054
0.00122048
0.00121046
0.00120049
0.00119057
0.00118069
0.00117086
0.00116105
0.00135937
0.00134818
0.00133703
0.00132591
0.00131484
0.0013038
0.00129281
0.00128185
0.00127094
0.00126007
0.00124925
0.00123847
0.00122774
0.00121705
0.00120641
0.00119582
0.00118527
0.00117478
0.00116433
0.00115393
0.00114358
0.00113328
0.00112301
0.00111277
0.00132889
0.00131714
0.00130543
0.00129376
0.00128213
0.00127054
0.00125899
0.00124749
0.00123603
0.00122462
0.00121325
0.00120192
0.00119065
0.00117942
0.00116824
0.00115711
0.00114603
0.001135
0.00112402
0.00111309
0.00110221
0.00109138
0.0010806
0.00106987
0.00105914
0.00128271
0.00127038
0.0012581
0.00124585
0.00123365
0.00122149
0.00120938
0.00119731
0.00118529
0.00117332
0.0011614
0.00114952
0.0011377
0.00112592
0.0011142
0.00110252
0.0010909
0.00107933
0.00106782
0.00105636
0.00104495
0.00103359
0.00102228
0.00101102
0.00099976
0.00123165
0.00121868
0.00120575
0.00119287
0.00118004
0.00116726
0.00115452
0.00114183
0.0011292
0.00111661
0.00110408
0.00109159
0.00107916
0.00106679
0.00105446
0.0010422
0.00102998
0.00101782
0.00100572
0.000993673
0.000981682
0.000969745
0.000957857
0.000946007
0.00093416
0.00117518
0.00116151
0.00114788
0.00113431
0.00112078
0.00110731
0.0010939
0.00108053
0.00106722
0.00105397
0.00104077
0.00102762
0.00101453
0.0010015
0.000988524
0.000975607
0.000962747
0.000949946
0.000937204
0.00092452
0.000911894
0.000899325
0.000886805
0.000874321
0.00086183
0.00111261
0.00109817
0.00108379
0.00106946
0.0010552
0.00104098
0.00102683
0.00101274
0.000998702
0.000984726
0.000970809
0.000956952
0.000943156
0.00092942
0.000915744
0.00090213
0.000888578
0.000875087
0.000861658
0.00084829
0.000834982
0.000821733
0.000808532
0.000795365
0.000782178
0.00104326
0.00102801
0.00101282
0.000997694
0.000982631
0.000967632
0.000952697
0.000937826
0.00092302
0.000908278
0.0008936
0.000878987
0.000864439
0.000849955
0.000835536
0.000821183
0.000806894
0.000792671
0.000778512
0.000764418
0.000750386
0.000736414
0.000722489
0.000708593
0.000694662
0.000965855
0.000949769
0.000933755
0.000917811
0.000901939
0.000886136
0.000870404
0.000854742
0.000839149
0.000823625
0.00080817
0.000792785
0.000777468
0.000762219
0.000747038
0.000731926
0.000716882
0.000701905
0.000686995
0.000672151
0.000657371
0.000642651
0.000627976
0.000613322
0.000598613
0.000880317
0.000863365
0.000846493
0.0008297
0.000812986
0.000796348
0.000779787
0.000763303
0.000746893
0.000730557
0.000714296
0.000698108
0.000681992
0.000665949
0.000649977
0.000634077
0.000618246
0.000602486
0.000586794
0.000571171
0.000555611
0.000540112
0.000524653
0.000509207
0.000493681
0.000783705
0.000766027
0.000748429
0.00073091
0.000713469
0.000696104
0.000678815
0.0006616
0.000644459
0.000627391
0.000610395
0.000593471
0.000576617
0.000559832
0.000543117
0.00052647
0.00050989
0.000493378
0.000476931
0.000460549
0.000444225
0.000427957
0.000411719
0.000395479
0.000379124
0.000678607
0.000660173
0.00064182
0.000623544
0.000605346
0.000587224
0.000569176
0.000551201
0.000533298
0.000515466
0.000497704
0.000480011
0.000462386
0.000444828
0.000427337
0.00040991
0.000392548
0.000375249
0.000358011
0.000340835
0.000323711
0.000306636
0.000289581
0.000272505
0.000255276
0.000560819
0.000541883
0.000523012
0.000504204
0.000485458
0.000466772
0.000448147
0.000429579
0.00041107
0.000392617
0.000374219
0.000355877
0.000337588
0.000319354
0.000301172
0.000283042
0.000264963
0.000246935
0.000228955
0.000211023
0.00019313
0.00017527
0.000157411
0.000139503
0.000121393
0.000434943
0.00041559
0.000396261
0.000376958
0.000357683
0.000338437
0.000319221
0.000300038
0.000280886
0.000261769
0.000242685
0.000223636
0.000204621
0.000185642
0.000166698
0.00014779
0.000128916
0.000110078
9.12734e-05
7.25013e-05
5.37529e-05
3.50206e-05
1.62665e-05
-2.56775e-06
-2.16595e-05
0.000298628
0.000279012
0.000259366
0.000239695
0.000220003
0.000200295
0.000180576
0.000160849
0.000141117
0.000121383
0.000101649
8.19183e-05
6.21924e-05
4.24734e-05
2.27625e-05
3.06158e-06
-1.66292e-05
-3.63079e-05
-5.59768e-05
)
;

boundaryField
{
    inlet
    {
        type            zeroGradient;
    }
    outlet
    {
        type            fixedValue;
        value           nonuniform 0();
    }
    cylinder
    {
        type            zeroGradient;
    }
    top
    {
        type            symmetryPlane;
    }
    bottom
    {
        type            symmetryPlane;
    }
    defaultFaces
    {
        type            empty;
    }
    procBoundary4to3
    {
        type            processor;
        value           nonuniform List<scalar> 
26
(
0.0015924
0.00158868
0.00158177
0.00157157
0.00155819
0.00154156
0.0015217
0.00149853
0.00147197
0.00144191
0.00140819
0.0013706
0.0013706
0.00134068
0.00129509
0.00124467
0.00118891
0.00112711
0.00105858
0.000982013
0.00089735
0.000801464
0.000697123
0.000579821
0.000454317
0.000318208
)
;
    }
    procBoundary4to5
    {
        type            processor;
        value           nonuniform List<scalar> 
24
(
0.00138935
0.00138454
0.00137562
0.00136241
0.00134509
0.00132362
0.00129797
0.00126806
0.00123376
0.00119489
0.00115123
0.00110252
0.00104839
0.000988456
0.000922246
0.000849246
0.000768866
0.000680567
0.000583695
0.000477892
0.00036244
0.000237642
0.000102784
-4.13515e-05
)
;
    }
    procBoundary4to12
    {
        type            processor;
        value           nonuniform List<scalar> 
26
(
-7.56351e-05
-9.52926e-05
-0.000114958
-0.000134676
-0.000154513
-0.000174673
0.00016138
0.000140861
0.000120299
9.96998e-05
7.90682e-05
5.84086e-05
3.77246e-05
1.702e-05
-3.7021e-06
-2.44387e-05
-4.51873e-05
-6.59453e-05
-8.67109e-05
-0.000107482
-0.000128257
-0.000149035
-0.000169814
-0.000190594
-7.56351e-05
-0.000211377
)
;
    }
}


// ************************************************************************* //
