/*--------------------------------*- C++ -*----------------------------------*\
  =========                 |
  \\      /  F ield         | OpenFOAM: The Open Source CFD Toolbox
   \\    /   O peration     | Website:  https://openfoam.org
    \\  /    A nd           | Version:  7
     \\/     M anipulation  |
\*---------------------------------------------------------------------------*/
FoamFile
{
    version     2.0;
    format      ascii;
    class       volScalarField;
    location    "14";
    object      T;
}
// * * * * * * * * * * * * * * * * * * * * * * * * * * * * * * * * * * * * * //

dimensions      [0 0 0 1 0 0 0];

internalField   nonuniform List<scalar> 
2413
(
1.53606
1.55045
1.55666
1.54778
1.52922
1.50413
1.47666
1.45033
1.42789
1.41116
1.4006
1.39558
1.39462
1.39669
1.40253
1.41241
1.42588
1.4414
1.45734
1.47175
1.48312
1.49081
1.49519
1.49777
1.49998
1.50239
1.50573
1.51104
1.51896
1.52915
1.54092
1.55303
1.56374
1.57141
1.57509
1.57575
1.57445
1.57199
1.56874
1.56364
1.55144
1.52939
1.49567
1.45519
1.42313
1.40613
1.4031
1.41063
1.42306
1.42962
1.43123
1.30632
1.3071
1.30819
1.30969
1.31191
1.31501
1.3192
1.32469
1.33147
1.33964
1.3491
1.35965
1.37092
1.38273
1.39468
1.40626
1.41717
1.4271
1.436
1.44389
1.45148
1.45949
1.46758
1.4773
1.49163
1.50374
1.5092
1.51039
1.50824
1.50423
1.49965
1.49411
1.48831
1.48297
1.47683
1.47153
1.47184
1.48116
1.49481
1.49867
1.49024
1.47468
1.45557
1.4362
1.41906
1.40565
1.39671
1.39201
1.39072
1.39197
1.39591
1.40284
1.41276
1.42541
1.4399
1.45478
1.46869
1.48027
1.48889
1.49465
1.49836
1.50134
1.50455
1.50849
1.51406
1.52203
1.53189
1.5427
1.55321
1.56208
1.56771
1.56983
1.56967
1.56792
1.56528
1.56176
1.55613
1.54174
1.51757
1.48303
1.44483
1.41514
1.40133
1.40038
1.40992
1.42383
1.43284
1.43585
1.30186
1.30189
1.30194
1.30207
1.30253
1.3034
1.30485
1.30705
1.31005
1.31396
1.31876
1.32445
1.33082
1.33784
1.34528
1.35283
1.36024
1.3673
1.37389
1.38001
1.38619
1.39325
1.40101
1.41104
1.42544
1.43716
1.44321
1.44525
1.44375
1.4408
1.43707
1.43235
1.42724
1.42235
1.41688
1.41312
1.41611
1.42814
1.44217
1.44588
1.43986
1.42933
1.41713
1.40565
1.39642
1.39004
1.38665
1.38571
1.38692
1.39031
1.39609
1.40417
1.41438
1.42634
1.43956
1.45313
1.466
1.47721
1.48624
1.49303
1.49795
1.50194
1.50616
1.51088
1.51685
1.52466
1.53388
1.54344
1.55227
1.55916
1.56306
1.56423
1.56366
1.56187
1.55957
1.55603
1.55006
1.5345
1.50902
1.47414
1.4387
1.41142
1.39914
1.39908
1.40941
1.42491
1.43763
1.44292
1.2986
1.29818
1.29761
1.29699
1.29651
1.29618
1.29613
1.29643
1.2972
1.29848
1.30027
1.3026
1.3054
1.30867
1.3123
1.31612
1.31996
1.3237
1.32731
1.33095
1.33504
1.34029
1.34663
1.35599
1.36942
1.38004
1.38575
1.38767
1.38633
1.38373
1.38055
1.37665
1.37241
1.36836
1.36426
1.3625
1.36844
1.38397
1.39918
1.40415
1.40134
1.3959
1.38974
1.38451
1.38093
1.37922
1.37922
1.38065
1.38391
1.38917
1.39646
1.40563
1.41632
1.42799
1.44007
1.45218
1.46372
1.47418
1.48324
1.49078
1.49699
1.5023
1.5074
1.51298
1.51939
1.5269
1.53522
1.54335
1.55037
1.55541
1.55796
1.5586
1.5581
1.55679
1.55524
1.5521
1.54604
1.53023
1.50446
1.4706
1.43645
1.41081
1.39875
1.39947
1.41001
1.42728
1.44352
1.45238
1.29621
1.29547
1.29453
1.29348
1.29245
1.29142
1.2905
1.28975
1.28919
1.28891
1.28886
1.28908
1.2896
1.29039
1.29141
1.29255
1.29372
1.29486
1.296
1.29748
1.29964
1.303
1.30772
1.31606
1.32806
1.33712
1.34171
1.34288
1.3413
1.33854
1.33559
1.3324
1.32901
1.32591
1.32356
1.32415
1.33321
1.35191
1.36812
1.37474
1.37503
1.37342
1.3716
1.37054
1.37041
1.37122
1.37322
1.37655
1.38145
1.38819
1.3967
1.40668
1.41764
1.429
1.44036
1.45134
1.46172
1.47131
1.47995
1.48767
1.49474
1.50143
1.50787
1.51447
1.52146
1.52883
1.53624
1.5429
1.54815
1.55153
1.55308
1.55346
1.55336
1.55283
1.55215
1.54971
1.54381
1.52867
1.50344
1.47072
1.43732
1.41211
1.40006
1.39977
1.40961
1.42755
1.44634
1.45782
1.29441
1.2935
1.2924
1.29112
1.28975
1.28829
1.28681
1.28537
1.28398
1.2827
1.28151
1.2805
1.27962
1.27889
1.27826
1.2777
1.27713
1.27654
1.27601
1.27596
1.27664
1.27843
1.28178
1.28908
1.29959
1.30704
1.31033
1.31067
1.30887
1.30594
1.30311
1.30046
1.29771
1.29553
1.29471
1.29746
1.31007
1.33089
1.34748
1.35544
1.35812
1.35906
1.35985
1.36102
1.36276
1.36516
1.36849
1.37316
1.37951
1.38759
1.39694
1.40724
1.41802
1.42894
1.43963
1.44988
1.45941
1.46826
1.47648
1.48421
1.49175
1.49944
1.5072
1.51479
1.52227
1.52962
1.53653
1.54222
1.54609
1.54819
1.54902
1.54928
1.54953
1.54961
1.54963
1.54798
1.54261
1.52864
1.50473
1.4735
1.44088
1.41558
1.40215
1.39974
1.40745
1.42366
1.44261
1.45589
1.29334
1.29222
1.29097
1.28953
1.28794
1.28621
1.28438
1.28252
1.28059
1.27868
1.27678
1.27497
1.27322
1.27154
1.2699
1.26829
1.26664
1.26497
1.26332
1.26218
1.26186
1.26254
1.26481
1.27117
1.28039
1.28653
1.28882
1.2886
1.2867
1.28375
1.28106
1.27881
1.27661
1.27523
1.27571
1.28052
1.29619
1.31811
1.33451
1.34308
1.3472
1.34968
1.35187
1.35424
1.35699
1.36033
1.3647
1.37069
1.37855
1.3876
1.39731
1.40732
1.41741
1.42751
1.43752
1.44716
1.45626
1.46484
1.47294
1.48076
1.48859
1.49674
1.50533
1.51388
1.52188
1.52934
1.53604
1.54114
1.54416
1.54553
1.54601
1.54621
1.5466
1.54699
1.54728
1.5462
1.54161
1.52912
1.50734
1.47849
1.44648
1.42075
1.40529
1.39995
1.40506
1.41813
1.43526
1.44863
1.29311
1.29198
1.29048
1.28874
1.28684
1.28483
1.28275
1.28062
1.27841
1.27614
1.27382
1.27148
1.26917
1.26688
1.26458
1.26229
1.25992
1.25752
1.25513
1.25318
1.25207
1.25196
1.25336
1.25892
1.26711
1.27238
1.27413
1.27374
1.27194
1.2692
1.26681
1.26494
1.26325
1.26243
1.26373
1.27052
1.28825
1.3103
1.32609
1.33477
1.33962
1.34298
1.34595
1.349
1.35239
1.35648
1.36195
1.36947
1.37858
1.38825
1.3978
1.40701
1.41604
1.42517
1.43446
1.4436
1.4526
1.4613
1.4695
1.47737
1.48527
1.49352
1.50222
1.51108
1.51953
1.52726
1.53407
1.5392
1.54214
1.54344
1.54386
1.54396
1.54421
1.54448
1.54468
1.54394
1.54023
1.52956
1.51051
1.48485
1.45361
1.42747
1.40935
1.40111
1.40327
1.41234
1.42549
1.43617
1.29321
1.29196
1.2904
1.28859
1.28661
1.28451
1.28229
1.27992
1.27741
1.27481
1.27216
1.26947
1.26675
1.26402
1.26125
1.25844
1.25552
1.25256
1.2496
1.24703
1.24524
1.24448
1.24529
1.25008
1.25762
1.2625
1.26408
1.26376
1.26217
1.25973
1.25763
1.25603
1.2547
1.25425
1.25613
1.26447
1.28348
1.30505
1.31999
1.32847
1.33368
1.33753
1.34102
1.34457
1.34854
1.35349
1.3603
1.36939
1.37951
1.38938
1.39836
1.40659
1.41457
1.42278
1.43119
1.43997
1.44906
1.4579
1.46615
1.47393
1.48168
1.48977
1.49823
1.50679
1.51511
1.52283
1.52987
1.53552
1.53911
1.54093
1.54161
1.54172
1.54175
1.54183
1.54188
1.54141
1.53856
1.53001
1.51392
1.49153
1.46177
1.43463
1.41403
1.4034
1.40167
1.40669
1.41428
1.42051
1.2936
1.29226
1.29063
1.28875
1.28665
1.28437
1.28195
1.27944
1.27685
1.27419
1.2714
1.26848
1.26546
1.26236
1.25918
1.25592
1.25254
1.24907
1.24562
1.24252
1.24019
1.23894
1.23923
1.2434
1.25067
1.25552
1.25718
1.257
1.2556
1.25339
1.25149
1.25005
1.24891
1.24866
1.25097
1.26038
1.28012
1.30093
1.31496
1.32309
1.32842
1.33261
1.3365
1.34054
1.34518
1.35124
1.3597
1.37022
1.38105
1.39069
1.39896
1.40632
1.41351
1.4206
1.42838
1.43702
1.44623
1.45531
1.46375
1.4715
1.47887
1.48631
1.49405
1.50196
1.50974
1.51708
1.52403
1.53019
1.53463
1.53727
1.5386
1.5391
1.53922
1.53931
1.53928
1.53898
1.53694
1.53044
1.51705
1.49731
1.46974
1.44196
1.41968
1.40536
1.39896
1.39995
1.40196
1.4037
1.29408
1.29271
1.29106
1.28916
1.28703
1.2847
1.28221
1.2796
1.27688
1.27404
1.27108
1.26799
1.26475
1.26137
1.25784
1.25417
1.25036
1.24646
1.2426
1.23905
1.23631
1.23469
1.23459
1.23825
1.24519
1.25005
1.25185
1.25188
1.25072
1.24874
1.24695
1.24555
1.24442
1.24425
1.24682
1.25693
1.27706
1.2971
1.3103
1.3181
1.32345
1.32788
1.33212
1.33667
1.34215
1.34962
1.35984
1.3716
1.38267
1.3919
1.39957
1.40637
1.41254
1.41916
1.42663
1.43507
1.44422
1.45335
1.46191
1.46972
1.47686
1.48365
1.49036
1.49717
1.50411
1.511
1.51771
1.52406
1.52908
1.53241
1.53449
1.53564
1.53624
1.53668
1.53686
1.53683
1.53556
1.53075
1.51946
1.50154
1.47635
1.44861
1.42487
1.40728
1.39626
1.39206
1.38928
1.3865
1.29441
1.293
1.29135
1.28949
1.28741
1.28513
1.28264
1.27998
1.27715
1.27416
1.27104
1.26775
1.2643
1.26066
1.25683
1.25283
1.24869
1.24445
1.24027
1.2364
1.23335
1.23146
1.23107
1.23413
1.24064
1.24558
1.24759
1.24782
1.24684
1.24501
1.24319
1.24171
1.24044
1.24023
1.24286
1.25342
1.27378
1.29322
1.30581
1.31333
1.31867
1.32323
1.32777
1.33286
1.33934
1.34841
1.36023
1.37277
1.38376
1.39267
1.40008
1.40642
1.41222
1.41863
1.426
1.43429
1.44321
1.45206
1.46041
1.46806
1.475
1.48141
1.48745
1.49324
1.49908
1.50511
1.51133
1.51748
1.52268
1.52653
1.52929
1.53114
1.53244
1.5335
1.53417
1.53446
1.53382
1.53042
1.52074
1.5044
1.48152
1.45424
1.42873
1.40818
1.39316
1.38385
1.37707
1.37083
1.2945
1.29304
1.29139
1.28955
1.28752
1.28528
1.28284
1.28018
1.27732
1.27426
1.27102
1.26758
1.26394
1.26008
1.25602
1.25178
1.24741
1.24295
1.23857
1.2345
1.23121
1.2291
1.22841
1.23081
1.23698
1.2422
1.2444
1.24462
1.24365
1.24177
1.23978
1.23806
1.23655
1.23617
1.23873
1.24961
1.27022
1.28938
1.30162
1.30896
1.31422
1.31881
1.32352
1.32912
1.33667
1.34732
1.36037
1.37318
1.384
1.39286
1.40034
1.40659
1.4125
1.41897
1.42632
1.4345
1.44307
1.4516
1.45966
1.46706
1.4738
1.47986
1.48534
1.49039
1.49534
1.50041
1.50584
1.51119
1.51599
1.52012
1.52337
1.52588
1.52784
1.52952
1.53077
1.53145
1.53144
1.52919
1.5211
1.50645
1.48548
1.45906
1.43206
1.40893
1.39055
1.37639
1.36611
1.35732
1.29438
1.29288
1.29121
1.28937
1.28735
1.28513
1.28271
1.28008
1.27723
1.27417
1.27089
1.26736
1.26359
1.25958
1.25537
1.25099
1.2465
1.24194
1.23746
1.23326
1.22978
1.22741
1.22645
1.2281
1.23371
1.23917
1.24167
1.24192
1.2409
1.23885
1.23658
1.23453
1.23273
1.23215
1.23454
1.24552
1.26646
1.28584
1.29807
1.30533
1.31046
1.31493
1.31967
1.3257
1.33424
1.34616
1.35997
1.37286
1.38371
1.3928
1.4004
1.40679
1.4132
1.42011
1.4276
1.43573
1.4439
1.45196
1.45956
1.46672
1.47333
1.47923
1.48436
1.48878
1.49293
1.49714
1.50166
1.50602
1.51013
1.51415
1.51754
1.52039
1.52267
1.52466
1.52633
1.52753
1.5281
1.52672
1.52047
1.50757
1.4881
1.4631
1.43537
1.41057
1.38972
1.37212
1.35915
1.34885
1.29412
1.29255
1.29083
1.28896
1.28692
1.2847
1.28229
1.27969
1.27689
1.27387
1.27059
1.26703
1.26321
1.25912
1.25485
1.25043
1.24592
1.24135
1.23685
1.23256
1.22891
1.22628
1.22499
1.22584
1.23061
1.2363
1.23922
1.23958
1.2385
1.23633
1.23378
1.23146
1.2294
1.22857
1.23066
1.24142
1.26271
1.28269
1.29529
1.30271
1.30775
1.31201
1.31667
1.32303
1.33237
1.34506
1.35907
1.37185
1.38266
1.3919
1.39974
1.40671
1.41395
1.42162
1.42959
1.43779
1.44566
1.45319
1.46029
1.46717
1.47367
1.47947
1.48438
1.48834
1.49186
1.49525
1.49864
1.50197
1.50549
1.50917
1.51238
1.51524
1.51758
1.51966
1.52147
1.52298
1.52393
1.52331
1.51885
1.50778
1.49
1.46683
1.43952
1.41361
1.39064
1.37123
1.35643
1.34564
1.29375
1.29212
1.29035
1.28842
1.28633
1.28409
1.28171
1.27915
1.27641
1.27343
1.27019
1.26665
1.26284
1.25876
1.2545
1.2501
1.24562
1.24109
1.23657
1.23223
1.22842
1.22552
1.2239
1.22397
1.22769
1.23354
1.23704
1.23771
1.23671
1.2346
1.23191
1.22938
1.2271
1.22598
1.22767
1.23797
1.25962
1.2805
1.29377
1.30142
1.30635
1.31028
1.31481
1.32146
1.33138
1.34434
1.35804
1.37041
1.38109
1.39041
1.39861
1.40646
1.41471
1.42328
1.43191
1.44033
1.44827
1.45543
1.46214
1.46872
1.47504
1.48068
1.48537
1.48892
1.49189
1.49467
1.49724
1.49951
1.50221
1.50519
1.50796
1.51065
1.51296
1.51505
1.51694
1.51854
1.51956
1.51929
1.51626
1.5074
1.49204
1.47085
1.4455
1.41953
1.39555
1.37506
1.35845
1.34708
1.29335
1.2917
1.28992
1.28799
1.28591
1.28369
1.28133
1.27882
1.27611
1.27316
1.26992
1.2664
1.2626
1.25855
1.25434
1.25
1.24557
1.24108
1.23659
1.23222
1.22826
1.22515
1.22317
1.22258
1.2251
1.23086
1.23513
1.23644
1.23582
1.23397
1.23127
1.22857
1.22619
1.22483
1.22608
1.23558
1.25758
1.27974
1.29363
1.30133
1.30611
1.30978
1.31421
1.32105
1.33126
1.34418
1.35743
1.36932
1.37961
1.38876
1.39726
1.40598
1.4153
1.42495
1.4345
1.44349
1.45171
1.45883
1.46535
1.47168
1.47772
1.48308
1.48747
1.49063
1.49304
1.49524
1.49712
1.4987
1.50067
1.50278
1.5048
1.50699
1.50907
1.51114
1.51319
1.51492
1.51598
1.5159
1.51375
1.50678
1.49407
1.47567
1.45347
1.42925
1.40605
1.38531
1.36844
1.35672
1.29307
1.29146
1.28973
1.28787
1.28586
1.2837
1.28135
1.27882
1.27607
1.27308
1.26983
1.2663
1.26251
1.25846
1.25427
1.24998
1.24566
1.2413
1.23691
1.23257
1.22853
1.2252
1.22291
1.22192
1.22322
1.22844
1.23365
1.23605
1.23598
1.23447
1.23184
1.229
1.22649
1.22495
1.22579
1.23438
1.25665
1.28027
1.29519
1.30313
1.30779
1.31119
1.31549
1.32243
1.33274
1.34535
1.35795
1.36911
1.37882
1.38756
1.39608
1.40536
1.4155
1.42616
1.43683
1.44685
1.45581
1.46346
1.47017
1.47637
1.48207
1.487
1.4909
1.49361
1.49552
1.49717
1.49833
1.49923
1.50051
1.50197
1.50331
1.50478
1.50638
1.50819
1.51019
1.512
1.51317
1.5134
1.51184
1.50651
1.49611
1.48093
1.46193
1.44093
1.41996
1.40059
1.38439
1.37262
1.29302
1.29151
1.28987
1.28807
1.28614
1.28406
1.28178
1.27928
1.27651
1.27344
1.2701
1.2665
1.26273
1.25876
1.25465
1.25042
1.24618
1.24192
1.23765
1.2334
1.22936
1.22588
1.22334
1.22205
1.22255
1.22684
1.23279
1.2364
1.23722
1.23629
1.23417
1.23136
1.2288
1.22724
1.22768
1.23505
1.25723
1.2825
1.29895
1.30765
1.31252
1.31582
1.31995
1.32684
1.33698
1.34893
1.36051
1.37055
1.37924
1.3872
1.39559
1.40507
1.41567
1.42712
1.43887
1.45011
1.46024
1.46904
1.47653
1.48291
1.48834
1.49275
1.49602
1.49816
1.49951
1.50061
1.50112
1.50125
1.50174
1.50248
1.50319
1.50411
1.5052
1.50648
1.50812
1.50977
1.51094
1.51138
1.51038
1.50637
1.49774
1.4851
1.46932
1.45165
1.43347
1.41641
1.40166
1.38987
1.29352
1.29211
1.2906
1.28896
1.28715
1.28513
1.28285
1.2803
1.27747
1.27435
1.27096
1.26729
1.26343
1.25942
1.25534
1.25121
1.2471
1.24302
1.23897
1.23495
1.23106
1.22759
1.22494
1.22343
1.22334
1.22647
1.23288
1.23783
1.23992
1.24002
1.23877
1.23641
1.23408
1.23279
1.23311
1.23896
1.26041
1.28718
1.30542
1.31525
1.32068
1.32415
1.32815
1.33484
1.34456
1.35556
1.36588
1.37462
1.38193
1.38891
1.39682
1.40596
1.4165
1.42827
1.44069
1.45304
1.46463
1.475
1.48388
1.4911
1.49663
1.50065
1.50323
1.50461
1.50521
1.50556
1.50549
1.50498
1.5047
1.50455
1.50445
1.50469
1.50521
1.50594
1.50694
1.50809
1.50906
1.5096
1.5089
1.50565
1.49843
1.48764
1.47408
1.45907
1.44347
1.42851
1.41491
1.40304
1.29462
1.29339
1.29205
1.29056
1.28885
1.28689
1.28459
1.28196
1.27901
1.27576
1.27226
1.2685
1.26462
1.26066
1.25676
1.25289
1.24907
1.24528
1.24154
1.23782
1.23421
1.2309
1.2283
1.22687
1.22665
1.22864
1.23494
1.24124
1.2449
1.24632
1.24611
1.24459
1.24254
1.24148
1.24182
1.24612
1.26587
1.29357
1.31384
1.32503
1.33115
1.33507
1.33919
1.34585
1.35521
1.3653
1.3744
1.38187
1.38797
1.39401
1.40104
1.40941
1.41917
1.43044
1.44285
1.45585
1.46874
1.48083
1.4915
1.50019
1.50643
1.51047
1.51251
1.51306
1.51287
1.51229
1.51159
1.51042
1.50927
1.50822
1.50722
1.50658
1.50634
1.50637
1.5066
1.50701
1.50744
1.50769
1.50713
1.50425
1.49801
1.48848
1.47631
1.46285
1.44887
1.43517
1.42231
1.41047
1.29602
1.29496
1.29378
1.29241
1.29076
1.28881
1.28652
1.2839
1.28096
1.27774
1.27433
1.27078
1.26717
1.2635
1.25988
1.25631
1.2528
1.24935
1.24597
1.24265
1.23942
1.2364
1.23396
1.23269
1.23268
1.23404
1.23949
1.24689
1.252
1.25453
1.25527
1.2544
1.25262
1.25144
1.2516
1.25446
1.27083
1.29854
1.32141
1.33435
1.34148
1.34627
1.35096
1.35792
1.36727
1.37689
1.38529
1.392
1.39745
1.4029
1.40911
1.41642
1.42504
1.43506
1.44665
1.4595
1.47298
1.48633
1.49867
1.50909
1.51668
1.52136
1.52329
1.52342
1.52262
1.52109
1.51953
1.51766
1.51544
1.51337
1.51142
1.50985
1.50865
1.50768
1.50706
1.5067
1.50641
1.50599
1.50491
1.50235
1.49678
1.48805
1.47676
1.46409
1.45076
1.43762
1.42508
1.41323
1.29816
1.29707
1.29587
1.29452
1.29295
1.29115
1.28908
1.28673
1.28411
1.28125
1.27822
1.27504
1.27181
1.26852
1.26523
1.26194
1.25872
1.25558
1.25255
1.24961
1.24678
1.24409
1.2418
1.24048
1.24044
1.2415
1.24524
1.25299
1.25921
1.26242
1.2636
1.26331
1.26174
1.26006
1.25975
1.26135
1.27253
1.29947
1.32529
1.3406
1.34922
1.35497
1.36034
1.36765
1.37715
1.38692
1.39548
1.40248
1.40839
1.41417
1.42029
1.42694
1.43439
1.44313
1.45331
1.46507
1.4781
1.49179
1.50505
1.51688
1.52595
1.53186
1.53451
1.5349
1.53391
1.53199
1.52947
1.5268
1.52358
1.52023
1.51712
1.51442
1.51217
1.51014
1.50853
1.50733
1.50647
1.50555
1.50364
1.50045
1.49486
1.48663
1.47591
1.46368
1.45073
1.43785
1.42538
1.41346
1.30129
1.30028
1.29921
1.29802
1.29667
1.29511
1.29334
1.29133
1.2891
1.28667
1.28408
1.28132
1.27844
1.27544
1.27239
1.26932
1.26631
1.2634
1.26062
1.25792
1.2553
1.25274
1.25038
1.24861
1.24796
1.24843
1.25021
1.2561
1.26303
1.26732
1.26916
1.26932
1.26792
1.26565
1.26444
1.26488
1.27088
1.29497
1.32363
1.34255
1.35289
1.35929
1.36483
1.37205
1.38162
1.39173
1.40084
1.40868
1.41572
1.42281
1.43015
1.43763
1.44547
1.45375
1.46289
1.47331
1.48515
1.49807
1.51111
1.52344
1.53354
1.54083
1.54488
1.54623
1.54567
1.54404
1.54119
1.53781
1.53373
1.52908
1.5245
1.5204
1.51696
1.5138
1.51118
1.50903
1.5072
1.50533
1.50276
1.49893
1.49288
1.48451
1.47383
1.46174
1.44899
1.43627
1.42386
1.41196
1.30557
1.30465
1.30372
1.30272
1.3016
1.30031
1.29886
1.29718
1.29531
1.29321
1.29093
1.28845
1.2858
1.28299
1.28009
1.27713
1.27422
1.27137
1.26862
1.26593
1.26324
1.26049
1.25773
1.25519
1.25338
1.2527
1.253
1.256
1.26262
1.26815
1.27073
1.27126
1.27038
1.26811
1.26552
1.26428
1.2664
1.28327
1.31242
1.33584
1.34924
1.35745
1.36409
1.37125
1.38048
1.39103
1.4011
1.40984
1.41803
1.42649
1.43531
1.44447
1.45357
1.46269
1.47217
1.48229
1.49349
1.50557
1.51782
1.52957
1.53993
1.54809
1.55357
1.55626
1.55673
1.5559
1.55363
1.55
1.54549
1.53995
1.53385
1.52816
1.52326
1.51884
1.51511
1.51185
1.50902
1.50614
1.5026
1.49775
1.49083
1.48172
1.47048
1.45797
1.44507
1.4324
1.42002
1.40825
1.31055
1.30967
1.30881
1.30788
1.30687
1.30572
1.30444
1.30297
1.30132
1.29942
1.2973
1.29492
1.29233
1.28952
1.28655
1.28348
1.28041
1.27741
1.27451
1.27166
1.26878
1.26576
1.26257
1.25933
1.25641
1.25434
1.25346
1.25423
1.25884
1.26487
1.26852
1.2695
1.269
1.26702
1.26377
1.26095
1.26019
1.26669
1.28954
1.31611
1.33437
1.34564
1.35422
1.36239
1.37171
1.38257
1.3936
1.4038
1.41384
1.42424
1.43494
1.44563
1.45606
1.46625
1.47668
1.48815
1.50029
1.51273
1.52493
1.53616
1.54628
1.55464
1.561
1.56495
1.56654
1.56655
1.56531
1.56228
1.55788
1.55188
1.54464
1.53745
1.53096
1.52515
1.52015
1.51568
1.51162
1.50738
1.50247
1.49629
1.48811
1.47773
1.46536
1.4518
1.43791
1.42462
1.41258
1.40148
1.31546
1.31443
1.31343
1.31234
1.31121
1.30995
1.30863
1.30713
1.30546
1.30353
1.3013
1.29877
1.29601
1.29308
1.29006
1.28698
1.28388
1.28079
1.27771
1.27465
1.27159
1.26844
1.26509
1.26154
1.25799
1.25482
1.25259
1.25168
1.25261
1.25688
1.26111
1.26308
1.26326
1.26167
1.25836
1.25422
1.25059
1.25042
1.25985
1.28301
1.30628
1.32262
1.33423
1.34357
1.35221
1.36257
1.37408
1.38579
1.39754
1.40943
1.42206
1.43529
1.44893
1.46262
1.47624
1.48957
1.50288
1.51636
1.52994
1.54215
1.55269
1.56127
1.56807
1.57271
1.57514
1.57592
1.57542
1.57341
1.56958
1.56362
1.55587
1.5476
1.53969
1.53242
1.52593
1.51991
1.5142
1.50817
1.50161
1.49361
1.48349
1.47112
1.45692
1.44176
1.42656
1.41235
1.3996
1.38803
1.31933
1.31791
1.31652
1.31503
1.31349
1.31187
1.31022
1.30851
1.3067
1.30469
1.30242
1.29984
1.297
1.29399
1.29091
1.28781
1.28473
1.28168
1.27864
1.27559
1.27249
1.26932
1.26601
1.26251
1.25884
1.25516
1.25181
1.2489
1.24693
1.24782
1.25026
1.25323
1.25448
1.25323
1.25035
1.24581
1.23997
1.23495
1.23593
1.24566
1.26742
1.28994
1.30693
1.31848
1.32712
1.3351
1.3445
1.35577
1.3679
1.38051
1.39405
1.40886
1.42499
1.44209
1.46033
1.47874
1.49715
1.51484
1.53107
1.54486
1.55672
1.56687
1.57474
1.58014
1.58319
1.58429
1.58412
1.58283
1.57959
1.57382
1.56602
1.55706
1.54803
1.53937
)
;

boundaryField
{
    inlet
    {
        type            fixedValue;
        value           nonuniform 0();
    }
    outlet
    {
        type            inletOutlet;
        inletValue      nonuniform 0();
        value           nonuniform 0();
    }
    bottom
    {
        type            symmetryPlane;
    }
    top
    {
        type            symmetryPlane;
    }
    obstacle
    {
        type            zeroGradient;
    }
    front
    {
        type            empty;
    }
    back
    {
        type            empty;
    }
    procBoundary12to4
    {
        type            processor;
        value           nonuniform List<scalar> 
89
(
1.58311
1.60005
1.61127
1.60476
1.58627
1.55783
1.52439
1.48975
1.4577
1.43157
1.41313
1.40252
1.39872
1.39931
1.40399
1.4137
1.42764
1.44409
1.46067
1.47499
1.48542
1.49164
1.49472
1.49632
1.49779
1.49956
1.50235
1.50742
1.51513
1.5254
1.5379
1.55153
1.56416
1.57404
1.57963
1.58138
1.58089
1.57904
1.57632
1.5721
1.5624
1.54325
1.51167
1.4704
1.4352
1.41327
1.40677
1.41214
1.42242
1.42941
1.43002
1.3127
1.31486
1.3179
1.32198
1.3275
1.33466
1.34364
1.35452
1.36712
1.38132
1.3967
1.41277
1.42893
1.44495
1.46023
1.47416
1.48635
1.49669
1.50536
1.5127
1.51977
1.52711
1.53408
1.54243
1.55555
1.56745
1.57216
1.5721
1.56952
1.56458
1.55945
1.55371
1.54798
1.54288
1.53676
1.53046
1.52848
1.52848
)
;
    }
    procBoundary12to5
    {
        type            processor;
        value           nonuniform List<scalar> 
27
(
1.42842
1.43356
1.44272
1.45403
1.45968
1.4592
1.45276
1.43894
1.42034
1.40007
1.38005
1.36232
1.34845
1.34045
1.33783
1.33985
1.34985
1.36529
1.38119
1.39298
1.39968
1.40206
1.40216
1.40058
1.39701
1.3908
1.37766
)
;
    }
    procBoundary12to11
    {
        type            processor;
        value           nonuniform List<scalar> 
26
(
1.30564
1.30172
1.29879
1.29661
1.29499
1.29415
1.29387
1.29408
1.29459
1.29516
1.29559
1.29576
1.29573
1.29555
1.29524
1.29487
1.29456
1.29439
1.29484
1.29579
1.29703
1.29918
1.30229
1.30653
1.3115
1.31653
)
;
    }
    procBoundary12to19
    {
        type            processor;
        value           uniform 1.32077;
    }
    procBoundary12to20
    {
        type            processor;
        value           nonuniform List<scalar> 
89
(
1.53132
1.52358
1.51598
1.50805
1.49934
1.48877
1.47578
1.46039
1.4432
1.42534
1.40807
1.39238
1.37881
1.36739
1.32155
1.3196
1.31776
1.31592
1.3141
1.31221
1.31029
1.30831
1.30623
1.30399
1.30156
1.29891
1.29604
1.29305
1.29004
1.2871
1.28425
1.28145
1.27864
1.27573
1.27267
1.26944
1.26604
1.26245
1.25865
1.25466
1.25058
1.24657
1.2428
1.23999
1.23975
1.24107
1.24273
1.24299
1.24141
1.2381
1.2334
1.22767
1.22257
1.22148
1.22991
1.24701
1.26986
1.28972
1.30339
1.31327
1.32195
1.32948
1.33734
1.34724
1.35868
1.37212
1.38784
1.4054
1.42583
1.44774
1.47152
1.49593
1.51944
1.53981
1.55646
1.56928
1.57873
1.58621
1.59074
1.59233
1.59221
1.59105
1.58796
1.58208
1.57419
1.56479
1.55496
1.53132
1.54512
)
;
    }
}


// ************************************************************************* //
