/*--------------------------------*- C++ -*----------------------------------*\
  =========                 |
  \\      /  F ield         | OpenFOAM: The Open Source CFD Toolbox
   \\    /   O peration     | Website:  https://openfoam.org
    \\  /    A nd           | Version:  7
     \\/     M anipulation  |
\*---------------------------------------------------------------------------*/
FoamFile
{
    version     2.0;
    format      ascii;
    class       surfaceScalarField;
    location    "0.304";
    object      phi;
}
// * * * * * * * * * * * * * * * * * * * * * * * * * * * * * * * * * * * * * //

dimensions      [0 3 -1 0 0 0 0];

internalField   nonuniform List<scalar> 
79600
(
1.07712e-12
-1.14174e-12
1.28315e-11
-1.17533e-11
3.28219e-11
-1.99845e-11
5.71961e-11
-2.43722e-11
8.28776e-11
-2.56912e-11
1.07563e-10
-2.46904e-11
1.29532e-10
-2.19717e-11
1.47538e-10
-1.79976e-11
1.60659e-10
-1.31141e-11
1.68233e-10
-7.57271e-12
1.69793e-10
-1.56163e-12
1.65013e-10
4.77617e-12
1.53682e-10
1.13294e-11
1.35672e-10
1.80105e-11
1.10924e-10
2.47501e-11
7.94316e-11
3.14933e-11
4.12359e-11
3.8196e-11
-3.58748e-12
4.48228e-11
-5.49335e-11
5.13449e-11
-1.12674e-10
5.77391e-11
-1.7666e-10
6.3986e-11
-2.46731e-10
7.00695e-11
-3.22708e-10
7.59765e-11
-4.04406e-10
8.16966e-11
-4.91628e-10
8.72214e-11
-5.84173e-10
9.25442e-11
-6.81832e-10
9.76593e-11
-7.84394e-10
1.02562e-10
-8.91644e-10
1.0725e-10
-1.00336e-09
1.11719e-10
-1.11933e-09
1.15969e-10
-1.23933e-09
1.19998e-10
-1.36314e-09
1.23807e-10
-1.49053e-09
1.27394e-10
-1.62129e-09
1.3076e-10
-1.75519e-09
1.33906e-10
-1.89203e-09
1.36833e-10
-2.03157e-09
1.39543e-10
-2.17361e-09
1.42036e-10
-2.31792e-09
1.44316e-10
-2.46431e-09
1.46383e-10
-2.61255e-09
1.4824e-10
-2.76244e-09
1.49889e-10
-2.91377e-09
1.51333e-10
-3.06634e-09
1.52575e-10
-3.21996e-09
1.53617e-10
-3.37442e-09
1.54461e-10
-3.52953e-09
1.55112e-10
-3.6851e-09
1.55571e-10
-3.84094e-09
1.55842e-10
-3.99687e-09
1.55927e-10
-4.1527e-09
1.55831e-10
-4.30826e-09
1.55556e-10
-4.46336e-09
1.55105e-10
-4.61784e-09
1.54481e-10
-4.77153e-09
1.53688e-10
-4.92426e-09
1.5273e-10
-5.07587e-09
1.51608e-10
-5.2262e-09
1.50328e-10
-5.37509e-09
1.48891e-10
-5.52239e-09
1.47302e-10
-5.66795e-09
1.45564e-10
-5.81163e-09
1.4368e-10
-5.95329e-09
1.41653e-10
-6.09277e-09
1.39488e-10
-6.22996e-09
1.37187e-10
-6.36471e-09
1.34754e-10
-6.4969e-09
1.32192e-10
-6.62641e-09
1.29504e-10
-6.7531e-09
1.26695e-10
-6.87687e-09
1.23768e-10
-6.9976e-09
1.20725e-10
-7.11517e-09
1.17571e-10
-7.22948e-09
1.14309e-10
-7.34042e-09
1.10943e-10
-7.44789e-09
1.07475e-10
-7.5518e-09
1.0391e-10
-7.65206e-09
1.00251e-10
-7.74856e-09
9.65019e-11
-7.84122e-09
9.26655e-11
-7.92997e-09
8.87456e-11
-8.01471e-09
8.47459e-11
-8.09538e-09
8.06698e-11
-8.1719e-09
7.65211e-11
-8.24421e-09
7.23034e-11
-8.31223e-09
6.80201e-11
-8.3759e-09
6.36751e-11
-8.43518e-09
5.92718e-11
-8.48999e-09
5.48141e-11
-8.5403e-09
5.03056e-11
-8.58605e-09
4.575e-11
-8.6272e-09
4.11511e-11
-8.66371e-09
3.65127e-11
-8.69555e-09
3.18386e-11
-8.72268e-09
2.71325e-11
-8.74508e-09
2.23985e-11
-8.76272e-09
1.76402e-11
-8.77558e-09
1.28617e-11
-8.78365e-09
8.06693e-12
-8.78691e-09
3.25977e-12
-8.78535e-09
-1.55575e-12
-8.77898e-09
-6.3756e-12
-8.76778e-09
-1.11957e-11
-8.75177e-09
-1.60119e-11
-8.73095e-09
-2.08202e-11
-8.70533e-09
-2.56164e-11
-8.67494e-09
-3.03962e-11
-8.63978e-09
-3.51556e-11
-8.59989e-09
-3.98903e-11
-8.55529e-09
-4.4596e-11
-8.50602e-09
-4.92685e-11
-8.45212e-09
-5.39034e-11
-8.39362e-09
-5.84964e-11
-8.33058e-09
-6.30431e-11
-8.26304e-09
-6.75393e-11
-8.19106e-09
-7.19804e-11
-8.1147e-09
-7.63621e-11
-8.03402e-09
-8.06799e-11
-7.94909e-09
-8.49294e-11
-7.85999e-09
-8.91061e-11
-7.76678e-09
-9.32056e-11
-7.66956e-09
-9.72233e-11
-7.5684e-09
-1.01155e-10
-7.46341e-09
-1.04996e-10
-7.35467e-09
-1.08742e-10
-7.24228e-09
-1.12388e-10
-7.12635e-09
-1.1593e-10
-7.00699e-09
-1.19363e-10
-6.8843e-09
-1.22684e-10
-6.75842e-09
-1.25887e-10
-6.62945e-09
-1.28968e-10
-6.49753e-09
-1.31924e-10
-6.36278e-09
-1.34749e-10
-6.22534e-09
-1.37438e-10
-6.08535e-09
-1.39989e-10
-5.94295e-09
-1.42397e-10
-5.7983e-09
-1.44657e-10
-5.65153e-09
-1.46766e-10
-5.50281e-09
-1.48718e-10
-5.3523e-09
-1.50512e-10
-5.20016e-09
-1.52141e-10
-5.04656e-09
-1.53603e-10
-4.89166e-09
-1.54894e-10
-4.73565e-09
-1.5601e-10
-4.57871e-09
-1.56947e-10
-4.421e-09
-1.57703e-10
-4.26273e-09
-1.58272e-10
-4.10408e-09
-1.58653e-10
-3.94524e-09
-1.58842e-10
-3.7864e-09
-1.58835e-10
-3.62777e-09
-1.58631e-10
-3.46955e-09
-1.58226e-10
-3.31193e-09
-1.57617e-10
-3.15513e-09
-1.56801e-10
-2.99935e-09
-1.55778e-10
-2.84481e-09
-1.54543e-10
-2.69171e-09
-1.53096e-10
-2.54028e-09
-1.51434e-10
-2.39072e-09
-1.49556e-10
-2.24326e-09
-1.47459e-10
-2.09812e-09
-1.45144e-10
-1.95551e-09
-1.42609e-10
-1.81566e-09
-1.39853e-10
-1.67878e-09
-1.36875e-10
-1.5451e-09
-1.33677e-10
-1.41485e-09
-1.30257e-10
-1.28823e-09
-1.26616e-10
-1.16547e-09
-1.22756e-10
-1.0468e-09
-1.18677e-10
-9.32415e-10
-1.14382e-10
-8.22542e-10
-1.09873e-10
-7.17389e-10
-1.05153e-10
-6.17165e-10
-1.00225e-10
-5.22071e-10
-9.50941e-11
-4.32305e-10
-8.97658e-11
-3.48059e-10
-8.42462e-11
-2.69516e-10
-7.8543e-11
-1.96851e-10
-7.26651e-11
-1.30228e-10
-6.66235e-11
-6.9797e-11
-6.0431e-11
-1.56954e-11
-5.41023e-11
3.19591e-11
-4.76551e-11
7.307e-11
-4.11106e-11
1.07566e-10
-3.4495e-11
1.35407e-10
-2.78398e-11
1.56589e-10
-2.11825e-11
1.71156e-10
-1.45683e-11
1.79208e-10
-8.05256e-12
1.80913e-10
-1.70544e-12
1.76531e-10
4.38448e-12
1.66428e-10
1.01045e-11
1.51117e-10
1.53111e-11
1.31297e-10
1.98174e-11
1.07922e-10
2.33741e-11
8.22769e-11
2.56453e-11
5.60909e-11
2.61853e-11
3.16611e-11
2.44279e-11
1.19905e-11
1.96721e-11
7.5958e-13
1.12418e-11
7.71639e-13
1.17162e-11
-1.2857e-11
4.34369e-11
-4.34762e-11
8.9531e-11
-6.60787e-11
1.43538e-10
-7.83762e-11
1.99452e-10
-8.16056e-11
2.52212e-10
-7.74513e-11
2.9773e-10
-6.74947e-11
3.32805e-10
-5.30719e-11
3.54955e-10
-3.5263e-11
3.62297e-10
-1.4915e-11
3.53431e-10
7.30582e-12
3.27335e-10
3.08731e-11
2.83296e-10
5.53687e-11
2.2085e-10
8.0458e-11
1.39729e-10
1.05871e-10
3.98308e-11
1.31391e-10
-7.88134e-11
1.56838e-10
-2.16062e-10
1.82069e-10
-3.71683e-10
2.06964e-10
-5.45369e-10
2.31424e-10
-7.36752e-10
2.55367e-10
-9.4541e-10
2.78726e-10
-1.17088e-09
3.01445e-10
-1.41266e-09
3.23479e-10
-1.67023e-09
3.44789e-10
-1.94303e-09
3.65345e-10
-2.2305e-09
3.85121e-10
-2.53203e-09
4.04098e-10
-2.84704e-09
4.22258e-10
-3.17491e-09
4.3959e-10
-3.51503e-09
4.56085e-10
-3.86676e-09
4.71736e-10
-4.22949e-09
4.86539e-10
-4.60259e-09
5.00492e-10
-4.98543e-09
5.13595e-10
-5.37737e-09
5.2585e-10
-5.77779e-09
5.37258e-10
-6.18607e-09
5.47824e-10
-6.60159e-09
5.57553e-10
-7.02373e-09
5.66451e-10
-7.45187e-09
5.74526e-10
-7.88541e-09
5.81784e-10
-8.32376e-09
5.88233e-10
-8.76631e-09
5.93884e-10
-9.21248e-09
5.98745e-10
-9.66169e-09
6.02826e-10
-1.01134e-08
6.06137e-10
-1.05669e-08
6.0869e-10
-1.10219e-08
6.10495e-10
-1.14776e-08
6.11564e-10
-1.19336e-08
6.11908e-10
-1.23893e-08
6.11539e-10
-1.28442e-08
6.10469e-10
-1.32978e-08
6.08711e-10
-1.37496e-08
6.06276e-10
-1.41991e-08
6.03178e-10
-1.46458e-08
5.99428e-10
-1.50892e-08
5.9504e-10
-1.55289e-08
5.90027e-10
-1.59644e-08
5.84401e-10
-1.63953e-08
5.78175e-10
-1.68211e-08
5.71364e-10
-1.72414e-08
5.63979e-10
-1.76558e-08
5.56035e-10
-1.80638e-08
5.47544e-10
-1.84652e-08
5.3852e-10
-1.88594e-08
5.28976e-10
-1.92461e-08
5.18926e-10
-1.9625e-08
5.08382e-10
-1.99957e-08
4.9736e-10
-2.03578e-08
4.85871e-10
-2.0711e-08
4.7393e-10
-2.10549e-08
4.6155e-10
-2.13894e-08
4.48745e-10
-2.1714e-08
4.35529e-10
-2.20284e-08
4.21915e-10
-2.23324e-08
4.07918e-10
-2.26257e-08
3.9355e-10
-2.2908e-08
3.78827e-10
-2.31791e-08
3.63761e-10
-2.34388e-08
3.48366e-10
-2.36867e-08
3.32658e-10
-2.39226e-08
3.16649e-10
-2.41465e-08
3.00355e-10
-2.4358e-08
2.83789e-10
-2.45569e-08
2.66965e-10
-2.47431e-08
2.49898e-10
-2.49165e-08
2.32603e-10
-2.50767e-08
2.15094e-10
-2.52238e-08
1.97385e-10
-2.53576e-08
1.79491e-10
-2.54778e-08
1.61428e-10
-2.55845e-08
1.43209e-10
-2.56776e-08
1.24851e-10
-2.57568e-08
1.06368e-10
-2.58222e-08
8.77746e-11
-2.58736e-08
6.90872e-11
-2.59111e-08
5.03208e-11
-2.59345e-08
3.14911e-11
-2.59438e-08
1.26135e-11
-2.59391e-08
-6.29608e-12
-2.59203e-08
-2.52217e-11
-2.58873e-08
-4.41475e-11
-2.58403e-08
-6.30572e-11
-2.57791e-08
-8.19347e-11
-2.5704e-08
-1.00764e-10
-2.56149e-08
-1.19527e-10
-2.55118e-08
-1.3821e-10
-2.53949e-08
-1.56794e-10
-2.52642e-08
-1.75264e-10
-2.51199e-08
-1.93601e-10
-2.4962e-08
-2.1179e-10
-2.47907e-08
-2.29813e-10
-2.46061e-08
-2.47653e-10
-2.44083e-08
-2.65293e-10
-2.41976e-08
-2.82716e-10
-2.39741e-08
-2.99904e-10
-2.37379e-08
-3.1684e-10
-2.34893e-08
-3.33507e-10
-2.32285e-08
-3.49887e-10
-2.29558e-08
-3.65962e-10
-2.26713e-08
-3.81715e-10
-2.23753e-08
-3.97129e-10
-2.20681e-08
-4.12186e-10
-2.175e-08
-4.26868e-10
-2.14212e-08
-4.41158e-10
-2.10821e-08
-4.55039e-10
-2.0733e-08
-4.68493e-10
-2.03742e-08
-4.81502e-10
-2.0006e-08
-4.9405e-10
-1.96289e-08
-5.0612e-10
-1.92431e-08
-5.17694e-10
-1.88491e-08
-5.28755e-10
-1.84472e-08
-5.39287e-10
-1.8038e-08
-5.49273e-10
-1.76217e-08
-5.58696e-10
-1.71988e-08
-5.67541e-10
-1.67698e-08
-5.75792e-10
-1.6335e-08
-5.83431e-10
-1.58951e-08
-5.90445e-10
-1.54504e-08
-5.96818e-10
-1.50015e-08
-6.02534e-10
-1.45488e-08
-6.0758e-10
-1.40929e-08
-6.1194e-10
-1.36342e-08
-6.15602e-10
-1.31734e-08
-6.1855e-10
-1.27109e-08
-6.20773e-10
-1.22473e-08
-6.22258e-10
-1.17831e-08
-6.22992e-10
-1.1319e-08
-6.22963e-10
-1.08555e-08
-6.2216e-10
-1.03931e-08
-6.20573e-10
-9.93255e-09
-6.18192e-10
-9.47434e-09
-6.15007e-10
-9.01911e-09
-6.11008e-10
-8.56747e-09
-6.06189e-10
-8.12002e-09
-6.0054e-10
-7.6774e-09
-5.94057e-10
-7.24022e-09
-5.86732e-10
-6.80912e-09
-5.78561e-10
-6.38472e-09
-5.6954e-10
-5.96766e-09
-5.59666e-10
-5.55858e-09
-5.48937e-10
-5.1581e-09
-5.37351e-10
-4.76687e-09
-5.2491e-10
-4.38551e-09
-5.11616e-10
-4.01465e-09
-4.97471e-10
-3.65493e-09
-4.82481e-10
-3.30695e-09
-4.66653e-10
-2.97134e-09
-4.49996e-10
-2.64869e-09
-4.3252e-10
-2.33961e-09
-4.1424e-10
-2.04466e-09
-3.95172e-10
-1.76442e-09
-3.75336e-10
-1.49943e-09
-3.54756e-10
-1.25022e-09
-3.3346e-10
-1.01728e-09
-3.11481e-10
-8.01087e-10
-2.88857e-10
-6.02076e-10
-2.65636e-10
-4.20638e-10
-2.41869e-10
-2.57117e-10
-2.17622e-10
-1.11802e-10
-1.92969e-10
1.50861e-11
-1.67999e-10
1.23408e-10
-1.42818e-10
2.1312e-10
-1.17552e-10
2.84291e-10
-9.23533e-11
3.37128e-10
-6.74047e-11
3.72006e-10
-4.29289e-11
3.895e-10
-1.91985e-11
3.90433e-10
3.45076e-12
3.75936e-10
2.46015e-11
3.47515e-10
4.37316e-11
3.07146e-10
6.0185e-11
2.57384e-10
7.31344e-11
2.01493e-10
8.15381e-11
1.43567e-10
8.41149e-11
8.8608e-11
7.93849e-11
4.24453e-11
6.58204e-11
1.12133e-11
4.24441e-11
1.19926e-11
1.99703e-11
-3.28213e-11
6.60672e-11
-8.95739e-11
1.28745e-10
-1.28765e-10
1.99549e-10
-1.49192e-10
2.70804e-10
-1.52863e-10
3.3583e-10
-1.42481e-10
3.89035e-10
-1.20703e-10
4.25854e-10
-8.98888e-11
4.42628e-10
-5.20317e-11
4.36484e-10
-8.76672e-12
4.05214e-10
3.8578e-11
3.47162e-10
8.89261e-11
2.61127e-10
1.41403e-10
1.46289e-10
1.95296e-10
2.13845e-12
2.50021e-10
-1.71572e-10
3.051e-10
-3.74874e-10
3.60139e-10
-6.07617e-10
4.14811e-10
-8.69501e-10
4.68846e-10
-1.1601e-09
5.22019e-10
-1.47888e-09
5.74143e-10
-1.82521e-09
6.25061e-10
-2.19841e-09
6.74642e-10
-2.59771e-09
7.2278e-10
-3.02231e-09
7.69383e-10
-3.47134e-09
8.14378e-10
-3.94392e-09
8.57703e-10
-4.43913e-09
8.99308e-10
-4.95603e-09
9.39153e-10
-5.49364e-09
9.77206e-10
-6.051e-09
1.01344e-09
-6.62712e-09
1.04785e-09
-7.22099e-09
1.08041e-09
-7.83161e-09
1.11111e-09
-8.45798e-09
1.13996e-09
-9.09908e-09
1.16696e-09
-9.75392e-09
1.1921e-09
-1.04215e-08
1.21539e-09
-1.11008e-08
1.23685e-09
-1.17908e-08
1.25648e-09
-1.24906e-08
1.2743e-09
-1.31991e-08
1.29032e-09
-1.39155e-08
1.30457e-09
-1.46386e-08
1.31705e-09
-1.53677e-08
1.32779e-09
-1.61017e-08
1.33681e-09
-1.68397e-08
1.34414e-09
-1.75808e-08
1.34979e-09
-1.8324e-08
1.35378e-09
-1.90686e-08
1.35615e-09
-1.98136e-08
1.35691e-09
-2.05582e-08
1.3561e-09
-2.13014e-08
1.35373e-09
-2.20426e-08
1.34984e-09
-2.27808e-08
1.34445e-09
-2.35152e-08
1.3376e-09
-2.4245e-08
1.32929e-09
-2.49696e-08
1.31958e-09
-2.5688e-08
1.30847e-09
-2.63996e-08
1.29601e-09
-2.71037e-08
1.28222e-09
-2.77994e-08
1.26713e-09
-2.84862e-08
1.25077e-09
-2.91634e-08
1.23316e-09
-2.98302e-08
1.21434e-09
-3.0486e-08
1.19434e-09
-3.11302e-08
1.17318e-09
-3.17621e-08
1.1509e-09
-3.23813e-08
1.12752e-09
-3.2987e-08
1.10308e-09
-3.35787e-08
1.0776e-09
-3.41559e-08
1.05112e-09
-3.4718e-08
1.02366e-09
-3.52645e-08
9.95262e-10
-3.5795e-08
9.65948e-10
-3.63088e-08
9.3575e-10
-3.68056e-08
9.047e-10
-3.72849e-08
8.72827e-10
-3.77462e-08
8.40164e-10
-3.81892e-08
8.0674e-10
-3.86134e-08
7.72587e-10
-3.90185e-08
7.37736e-10
-3.9404e-08
7.02219e-10
-3.97697e-08
6.66066e-10
-4.01153e-08
6.2931e-10
-4.04403e-08
5.91983e-10
-4.07445e-08
5.54116e-10
-4.10276e-08
5.15742e-10
-4.12894e-08
4.76893e-10
-4.15297e-08
4.37602e-10
-4.17481e-08
3.97901e-10
-4.19445e-08
3.57823e-10
-4.21187e-08
3.17402e-10
-4.22705e-08
2.7667e-10
-4.23998e-08
2.35663e-10
-4.25064e-08
1.94412e-10
-4.25903e-08
1.52954e-10
-4.26513e-08
1.11321e-10
-4.26893e-08
6.95482e-11
-4.27044e-08
2.76709e-11
-4.26964e-08
-1.4276e-11
-4.26654e-08
-5.62572e-11
-4.26113e-08
-9.82372e-11
-4.25342e-08
-1.4018e-10
-4.2434e-08
-1.8205e-10
-4.2311e-08
-2.2381e-10
-4.21651e-08
-2.65425e-10
-4.19965e-08
-3.06857e-10
-4.18052e-08
-3.48069e-10
-4.15914e-08
-3.89025e-10
-4.13553e-08
-4.29686e-10
-4.10971e-08
-4.70015e-10
-4.08169e-08
-5.09975e-10
-4.05151e-08
-5.49527e-10
-4.01917e-08
-5.88633e-10
-3.98472e-08
-6.27256e-10
-3.94817e-08
-6.65355e-10
-3.90957e-08
-7.02894e-10
-3.86894e-08
-7.39833e-10
-3.82631e-08
-7.76134e-10
-3.78173e-08
-8.11758e-10
-3.73524e-08
-8.46665e-10
-3.68687e-08
-8.80818e-10
-3.63667e-08
-9.14178e-10
-3.58469e-08
-9.46706e-10
-3.53096e-08
-9.78362e-10
-3.47556e-08
-1.00911e-09
-3.41852e-08
-1.03891e-09
-3.35989e-08
-1.06772e-09
-3.29975e-08
-1.09551e-09
-3.23814e-08
-1.12224e-09
-3.17512e-08
-1.14786e-09
-3.11076e-08
-1.17235e-09
-3.04512e-08
-1.19567e-09
-2.97827e-08
-1.21778e-09
-2.91028e-08
-1.23863e-09
-2.84121e-08
-1.25821e-09
-2.77114e-08
-1.27647e-09
-2.70015e-08
-1.29337e-09
-2.6283e-08
-1.30889e-09
-2.55569e-08
-1.32299e-09
-2.48238e-08
-1.33564e-09
-2.40845e-08
-1.3468e-09
-2.334e-08
-1.35645e-09
-2.25911e-08
-1.36454e-09
-2.18386e-08
-1.37107e-09
-2.10834e-08
-1.37598e-09
-2.03263e-08
-1.37927e-09
-1.95684e-08
-1.3809e-09
-1.88106e-08
-1.38084e-09
-1.80537e-08
-1.37907e-09
-1.72987e-08
-1.37557e-09
-1.65465e-08
-1.37032e-09
-1.57982e-08
-1.36329e-09
-1.50548e-08
-1.35447e-09
-1.43171e-08
-1.34384e-09
-1.35863e-08
-1.33139e-09
-1.28632e-08
-1.31709e-09
-1.2149e-08
-1.30095e-09
-1.14446e-08
-1.28294e-09
-1.07511e-08
-1.26307e-09
-1.00695e-08
-1.24132e-09
-9.4007e-09
-1.21769e-09
-8.74586e-09
-1.19219e-09
-8.10596e-09
-1.16482e-09
-7.482e-09
-1.13557e-09
-6.875e-09
-1.10447e-09
-6.28596e-09
-1.07152e-09
-5.71587e-09
-1.03675e-09
-5.16569e-09
-1.00017e-09
-4.6364e-09
-9.61814e-10
-4.12892e-09
-9.21716e-10
-3.64418e-09
-8.79915e-10
-3.18306e-09
-8.36459e-10
-2.74641e-09
-7.91404e-10
-2.33505e-09
-7.44818e-10
-1.94975e-09
-6.96778e-10
-1.59123e-09
-6.47375e-10
-1.26015e-09
-5.96717e-10
-9.57094e-10
-5.44929e-10
-6.82559e-10
-4.92157e-10
-4.36956e-10
-4.38572e-10
-2.20576e-10
-3.84379e-10
-3.35779e-11
-3.29816e-10
1.24039e-10
-2.75168e-10
2.5246e-10
-2.20774e-10
3.52093e-10
-1.67037e-10
4.23608e-10
-1.14444e-10
4.67993e-10
-6.35828e-11
4.86608e-10
-1.51658e-11
4.8127e-10
2.99376e-11
4.54336e-10
7.06637e-11
4.08808e-10
1.05712e-10
3.48446e-10
1.33496e-10
2.77884e-10
1.52103e-10
2.02721e-10
1.59286e-10
1.29544e-10
1.52572e-10
6.58211e-11
1.29539e-10
1.96514e-11
8.86049e-11
3.16448e-11
2.43783e-11
-5.71974e-11
7.84445e-11
-1.43638e-10
1.49319e-10
-1.99651e-10
2.26706e-10
-2.26591e-10
3.01678e-10
-2.27833e-10
3.66501e-10
-2.07301e-10
4.14613e-10
-1.68809e-10
4.40529e-10
-1.15803e-10
4.39758e-10
-5.12616e-11
4.08687e-10
2.23029e-11
3.44469e-10
1.02796e-10
2.44915e-10
1.88482e-10
1.08396e-10
2.77923e-10
-6.62395e-11
3.69931e-10
-2.79739e-10
4.6352e-10
-5.32512e-10
5.57871e-10
-8.24676e-10
6.52301e-10
-1.15611e-09
7.4624e-10
-1.52648e-09
8.39213e-10
-1.93528e-09
9.30818e-10
-2.38186e-09
1.02072e-09
-2.86544e-09
1.10864e-09
-3.38513e-09
1.19433e-09
-3.93996e-09
1.27761e-09
-4.52888e-09
1.3583e-09
-5.15078e-09
1.43627e-09
-5.80448e-09
1.5114e-09
-6.48877e-09
1.5836e-09
-7.20241e-09
1.65279e-09
-7.94411e-09
1.7189e-09
-8.71256e-09
1.7819e-09
-9.50645e-09
1.84174e-09
-1.03244e-08
1.8984e-09
-1.11652e-08
1.95186e-09
-1.20273e-08
2.0021e-09
-1.29095e-08
2.04913e-09
-1.38104e-08
2.09295e-09
-1.47285e-08
2.13357e-09
-1.56627e-08
2.17099e-09
-1.66114e-08
2.20524e-09
-1.75735e-08
2.23634e-09
-1.85475e-08
2.26431e-09
-1.95321e-08
2.28918e-09
-2.0526e-08
2.31098e-09
-2.1528e-08
2.32975e-09
-2.25367e-08
2.34551e-09
-2.35508e-08
2.3583e-09
-2.45692e-08
2.36816e-09
-2.55906e-08
2.37514e-09
-2.66137e-08
2.37927e-09
-2.76374e-08
2.38059e-09
-2.86604e-08
2.37915e-09
-2.96817e-08
2.375e-09
-3.07e-08
2.36817e-09
-3.17143e-08
2.35873e-09
-3.27234e-08
2.3467e-09
-3.37262e-08
2.33215e-09
-3.47218e-08
2.31511e-09
-3.5709e-08
2.29564e-09
-3.66867e-08
2.27379e-09
-3.76541e-08
2.24961e-09
-3.86101e-08
2.22315e-09
-3.95538e-08
2.19445e-09
-4.04842e-08
2.16357e-09
-4.14005e-08
2.13057e-09
-4.23016e-08
2.09548e-09
-4.31868e-08
2.05837e-09
-4.40552e-08
2.01928e-09
-4.49059e-08
1.97827e-09
-4.57383e-08
1.93539e-09
-4.65513e-08
1.89069e-09
-4.73445e-08
1.84423e-09
-4.81168e-08
1.79605e-09
-4.88678e-08
1.74622e-09
-4.95966e-08
1.69478e-09
-5.03027e-08
1.64179e-09
-5.09853e-08
1.5873e-09
-5.16438e-08
1.53136e-09
-5.22777e-08
1.47404e-09
-5.28863e-08
1.41538e-09
-5.34692e-08
1.35544e-09
-5.40257e-08
1.29428e-09
-5.45554e-08
1.23194e-09
-5.50579e-08
1.16849e-09
-5.55325e-08
1.10398e-09
-5.5979e-08
1.03846e-09
-5.63969e-08
9.72002e-10
-5.67858e-08
9.0465e-10
-5.71454e-08
8.36464e-10
-5.74753e-08
7.67502e-10
-5.77752e-08
6.97822e-10
-5.80448e-08
6.27482e-10
-5.8284e-08
5.56539e-10
-5.84924e-08
4.85053e-10
-5.86698e-08
4.13083e-10
-5.88161e-08
3.40689e-10
-5.8931e-08
2.6793e-10
-5.90146e-08
1.94867e-10
-5.90666e-08
1.21561e-10
-5.9087e-08
4.80736e-11
-5.90757e-08
-2.55345e-11
-5.90328e-08
-9.92007e-11
-5.89582e-08
-1.72862e-10
-5.88519e-08
-2.46457e-10
-5.8714e-08
-3.1992e-10
-5.85446e-08
-3.9319e-10
-5.83439e-08
-4.662e-10
-5.81118e-08
-5.38887e-10
-5.78487e-08
-6.11186e-10
-5.75547e-08
-6.83032e-10
-5.723e-08
-7.54358e-10
-5.6875e-08
-8.25098e-10
-5.64898e-08
-8.95188e-10
-5.60747e-08
-9.64558e-10
-5.56302e-08
-1.03314e-09
-5.51566e-08
-1.10088e-09
-5.46543e-08
-1.16769e-09
-5.41236e-08
-1.23352e-09
-5.35652e-08
-1.29829e-09
-5.29794e-08
-1.36194e-09
-5.23667e-08
-1.4244e-09
-5.17278e-08
-1.4856e-09
-5.10631e-08
-1.54547e-09
-5.03734e-08
-1.60395e-09
-4.96591e-08
-1.66096e-09
-4.8921e-08
-1.71645e-09
-4.81598e-08
-1.77034e-09
-4.73761e-08
-1.82257e-09
-4.65708e-08
-1.87306e-09
-4.57446e-08
-1.92176e-09
-4.48982e-08
-1.96859e-09
-4.40326e-08
-2.01349e-09
-4.31485e-08
-2.0564e-09
-4.2247e-08
-2.09724e-09
-4.13288e-08
-2.13597e-09
-4.03949e-08
-2.17251e-09
-3.94463e-08
-2.2068e-09
-3.8484e-08
-2.23878e-09
-3.7509e-08
-2.26839e-09
-3.65223e-08
-2.29557e-09
-3.5525e-08
-2.32026e-09
-3.45183e-08
-2.34241e-09
-3.35031e-08
-2.36196e-09
-3.24807e-08
-2.37886e-09
-3.14522e-08
-2.39305e-09
-3.04188e-08
-2.40448e-09
-2.93817e-08
-2.4131e-09
-2.83421e-08
-2.41887e-09
-2.73012e-08
-2.42174e-09
-2.62604e-08
-2.42166e-09
-2.52209e-08
-2.41859e-09
-2.41839e-08
-2.41251e-09
-2.31509e-08
-2.40336e-09
-2.21231e-08
-2.39111e-09
-2.11018e-08
-2.37573e-09
-2.00885e-08
-2.3572e-09
-1.90844e-08
-2.33549e-09
-1.80909e-08
-2.31057e-09
-1.71094e-08
-2.28242e-09
-1.61413e-08
-2.25104e-09
-1.5188e-08
-2.21641e-09
-1.42508e-08
-2.17852e-09
-1.33311e-08
-2.13736e-09
-1.24303e-08
-2.09295e-09
-1.15499e-08
-2.0453e-09
-1.0691e-08
-1.9944e-09
-9.85522e-09
-1.94029e-09
-9.04375e-09
-1.88299e-09
-8.25797e-09
-1.82253e-09
-7.49917e-09
-1.75897e-09
-6.76864e-09
-1.69234e-09
-6.06763e-09
-1.62273e-09
-5.39735e-09
-1.55019e-09
-4.75898e-09
-1.47483e-09
-4.15364e-09
-1.39674e-09
-3.58241e-09
-1.31606e-09
-3.04627e-09
-1.23291e-09
-2.54617e-09
-1.14747e-09
-2.08295e-09
-1.05994e-09
-1.65734e-09
-9.70542e-10
-1.26996e-09
-8.79534e-10
-9.21303e-10
-7.87228e-10
-6.11697e-10
-6.93984e-10
-3.41286e-10
-6.00227e-10
-1.1e-10
-5.06455e-10
8.24815e-11
-4.13256e-10
2.36772e-10
-3.21327e-10
3.53826e-10
-2.31498e-10
4.35005e-10
-1.44761e-10
4.82139e-10
-6.23004e-11
4.97612e-10
1.44616e-11
4.84457e-10
8.38184e-11
4.46444e-10
1.43725e-10
3.88189e-10
1.91749e-10
3.15245e-10
2.25038e-10
2.34193e-10
2.40333e-10
1.5268e-10
2.34095e-10
7.94357e-11
2.02791e-10
2.44256e-11
1.43614e-10
5.60691e-11
2.5734e-11
-8.29408e-11
8.1824e-11
-1.99727e-10
1.53306e-10
-2.71135e-10
2.28456e-10
-3.01739e-10
2.97381e-10
-2.96754e-10
3.51615e-10
-2.61534e-10
3.83947e-10
-2.0114e-10
3.88286e-10
-1.20143e-10
3.59566e-10
-2.25434e-11
2.93643e-10
8.82256e-11
1.87191e-10
2.09249e-10
3.76033e-11
3.38071e-10
-1.57097e-10
4.72625e-10
-3.98345e-10
6.11179e-10
-6.87104e-10
7.52278e-10
-1.02393e-09
8.947e-10
-1.40905e-09
1.03742e-09
-1.84237e-09
1.17956e-09
-2.32356e-09
1.3204e-09
-2.85206e-09
1.45932e-09
-3.42713e-09
1.59579e-09
-4.04786e-09
1.72937e-09
-4.71323e-09
1.8597e-09
-5.42206e-09
1.98644e-09
-6.17311e-09
2.10935e-09
-6.96503e-09
2.2282e-09
-7.79642e-09
2.34279e-09
-8.6658e-09
2.45298e-09
-9.57165e-09
2.55864e-09
-1.05124e-08
2.65966e-09
-1.14865e-08
2.75596e-09
-1.24922e-08
2.84748e-09
-1.3528e-08
2.93417e-09
-1.45921e-08
3.016e-09
-1.56829e-08
3.09294e-09
-1.67988e-08
3.16498e-09
-1.7938e-08
3.23213e-09
-1.90988e-08
3.29438e-09
-2.02796e-08
3.35176e-09
-2.14786e-08
3.40429e-09
-2.26942e-08
3.45199e-09
-2.39248e-08
3.4949e-09
-2.51687e-08
3.53306e-09
-2.64242e-08
3.56651e-09
-2.76898e-08
3.59531e-09
-2.89638e-08
3.61949e-09
-3.02446e-08
3.63911e-09
-3.15307e-08
3.65424e-09
-3.28205e-08
3.66493e-09
-3.41124e-08
3.67123e-09
-3.54051e-08
3.67323e-09
-3.66969e-08
3.67097e-09
-3.79864e-08
3.66454e-09
-3.92722e-08
3.65399e-09
-4.05529e-08
3.6394e-09
-4.18271e-08
3.62084e-09
-4.30933e-08
3.59838e-09
-4.43503e-08
3.57209e-09
-4.55967e-08
3.54206e-09
-4.68312e-08
3.50836e-09
-4.80527e-08
3.47105e-09
-4.92598e-08
3.43023e-09
-5.04513e-08
3.38596e-09
-5.1626e-08
3.33832e-09
-5.27829e-08
3.2874e-09
-5.39206e-08
3.23327e-09
-5.50383e-08
3.17601e-09
-5.61347e-08
3.1157e-09
-5.72089e-08
3.05243e-09
-5.82597e-08
2.98626e-09
-5.92863e-08
2.91729e-09
-6.02877e-08
2.84559e-09
-6.12629e-08
2.77125e-09
-6.2211e-08
2.69435e-09
-6.31312e-08
2.61497e-09
-6.40226e-08
2.53319e-09
-6.48844e-08
2.44909e-09
-6.57158e-08
2.36277e-09
-6.65161e-08
2.2743e-09
-6.72845e-08
2.18377e-09
-6.80203e-08
2.09126e-09
-6.87229e-08
1.99685e-09
-6.93916e-08
1.90064e-09
-7.00258e-08
1.80271e-09
-7.06249e-08
1.70314e-09
-7.11885e-08
1.60202e-09
-7.17159e-08
1.49944e-09
-7.22068e-08
1.39548e-09
-7.26605e-08
1.29024e-09
-7.30768e-08
1.1838e-09
-7.34553e-08
1.07626e-09
-7.37955e-08
9.67693e-10
-7.40971e-08
8.58201e-10
-7.436e-08
7.47871e-10
-7.45837e-08
6.36797e-10
-7.47681e-08
5.25069e-10
-7.49129e-08
4.12781e-10
-7.50181e-08
3.00026e-10
-7.50834e-08
1.86899e-10
-7.51088e-08
7.34929e-11
-7.50943e-08
-4.00953e-11
-7.50397e-08
-1.5377e-10
-7.49451e-08
-2.67435e-10
-7.48106e-08
-3.80992e-10
-7.46362e-08
-4.94345e-10
-7.4422e-08
-6.07393e-10
-7.41681e-08
-7.20038e-10
-7.38748e-08
-8.32181e-10
-7.35423e-08
-9.4372e-10
-7.31708e-08
-1.05456e-09
-7.27605e-08
-1.16459e-09
-7.23119e-08
-1.27371e-09
-7.18253e-08
-1.38182e-09
-7.1301e-08
-1.48882e-09
-7.07396e-08
-1.59461e-09
-7.01414e-08
-1.69908e-09
-6.95069e-08
-1.80212e-09
-6.88368e-08
-1.90363e-09
-6.81316e-08
-2.00352e-09
-6.73919e-08
-2.10167e-09
-6.66183e-08
-2.19798e-09
-6.58115e-08
-2.29234e-09
-6.49724e-08
-2.38465e-09
-6.41015e-08
-2.47481e-09
-6.31997e-08
-2.56271e-09
-6.22679e-08
-2.64825e-09
-6.1307e-08
-2.73132e-09
-6.03177e-08
-2.81182e-09
-5.93011e-08
-2.88965e-09
-5.82582e-08
-2.96471e-09
-5.71899e-08
-3.03689e-09
-5.60973e-08
-3.10609e-09
-5.49815e-08
-3.17221e-09
-5.38435e-08
-3.23516e-09
-5.26847e-08
-3.29483e-09
-5.1506e-08
-3.35114e-09
-5.03089e-08
-3.40398e-09
-4.90944e-08
-3.45326e-09
-4.78639e-08
-3.49888e-09
-4.66187e-08
-3.54077e-09
-4.53601e-08
-3.57882e-09
-4.40896e-08
-3.61296e-09
-4.28085e-08
-3.64309e-09
-4.15182e-08
-3.66913e-09
-4.02202e-08
-3.69101e-09
-3.89161e-08
-3.70865e-09
-3.76072e-08
-3.72197e-09
-3.62952e-08
-3.7309e-09
-3.49815e-08
-3.73536e-09
-3.36679e-08
-3.7353e-09
-3.23558e-08
-3.73066e-09
-3.1047e-08
-3.72136e-09
-2.9743e-08
-3.70737e-09
-2.84455e-08
-3.68862e-09
-2.71561e-08
-3.66507e-09
-2.58766e-08
-3.63667e-09
-2.46087e-08
-3.6034e-09
-2.33541e-08
-3.56522e-09
-2.21144e-08
-3.5221e-09
-2.08914e-08
-3.47401e-09
-1.96869e-08
-3.42096e-09
-1.85025e-08
-3.36292e-09
-1.73399e-08
-3.2999e-09
-1.6201e-08
-3.23191e-09
-1.50873e-08
-3.15895e-09
-1.40007e-08
-3.08107e-09
-1.29427e-08
-2.99829e-09
-1.1915e-08
-2.91065e-09
-1.09193e-08
-2.81823e-09
-9.95718e-09
-2.72108e-09
-9.03021e-09
-2.61931e-09
-8.13993e-09
-2.51301e-09
-7.28782e-09
-2.4023e-09
-6.47531e-09
-2.28734e-09
-5.70376e-09
-2.16829e-09
-4.97446e-09
-2.04535e-09
-4.28862e-09
-1.91875e-09
-3.64734e-09
-1.78875e-09
-3.05162e-09
-1.65567e-09
-2.50231e-09
-1.51985e-09
-2.00014e-09
-1.38171e-09
-1.54564e-09
-1.24173e-09
-1.13915e-09
-1.10047e-09
-7.80787e-10
-9.58589e-10
-4.70406e-10
-8.16836e-10
-2.07551e-10
-6.7611e-10
8.5828e-12
-5.37459e-10
1.79204e-10
-4.02119e-10
3.05989e-10
-2.71546e-10
3.91153e-10
-1.47465e-10
4.37528e-10
-3.19154e-11
4.48649e-10
7.26942e-11
4.28844e-10
1.63529e-10
3.83323e-10
2.37273e-10
3.18267e-10
2.90098e-10
2.4092e-10
3.17687e-10
1.59679e-10
3.15332e-10
8.42944e-11
2.7818e-10
2.62181e-11
2.01693e-10
8.22857e-11
2.48076e-11
-1.07753e-10
7.79215e-11
-2.52842e-10
1.4343e-10
-3.36648e-10
2.08734e-10
-3.6704e-10
2.63285e-10
-3.51304e-10
2.98126e-10
-2.96372e-10
3.0562e-10
-2.0863e-10
2.79282e-10
-9.38038e-11
2.13669e-10
4.30698e-11
1.04273e-10
1.97621e-10
-5.25699e-11
3.66092e-10
-2.59773e-10
5.45274e-10
-5.19581e-10
7.32434e-10
-8.33654e-10
9.25251e-10
-1.20313e-09
1.12176e-09
-1.62871e-09
1.32028e-09
-2.11069e-09
1.5194e-09
-2.64904e-09
1.7179e-09
-3.24341e-09
1.91477e-09
-3.89322e-09
2.10913e-09
-4.59766e-09
2.30023e-09
-5.35573e-09
2.48744e-09
-6.16626e-09
2.67022e-09
-7.02794e-09
2.84812e-09
-7.93934e-09
3.02075e-09
-8.89893e-09
3.18778e-09
-9.90507e-09
3.34893e-09
-1.09561e-08
3.50397e-09
-1.20501e-08
3.65272e-09
-1.31855e-08
3.79501e-09
-1.43603e-08
3.93072e-09
-1.55725e-08
4.05974e-09
-1.68204e-08
4.18201e-09
-1.81018e-08
4.29745e-09
-1.94149e-08
4.40604e-09
-2.07577e-08
4.50775e-09
-2.21281e-08
4.60257e-09
-2.35242e-08
4.69051e-09
-2.49441e-08
4.77157e-09
-2.63856e-08
4.8458e-09
-2.78468e-08
4.91322e-09
-2.93258e-08
4.97388e-09
-3.08206e-08
5.02783e-09
-3.23292e-08
5.07512e-09
-3.38497e-08
5.11582e-09
-3.53802e-08
5.14999e-09
-3.69188e-08
5.17772e-09
-3.84636e-08
5.19907e-09
-4.00128e-08
5.21413e-09
-4.15646e-08
5.22298e-09
-4.3117e-08
5.22572e-09
-4.46685e-08
5.22243e-09
-4.62172e-08
5.2132e-09
-4.77613e-08
5.19814e-09
-4.92993e-08
5.17734e-09
-5.08293e-08
5.1509e-09
-5.23499e-08
5.11893e-09
-5.38593e-08
5.08152e-09
-5.5356e-08
5.03878e-09
-5.68385e-08
4.99083e-09
-5.83052e-08
4.93775e-09
-5.97547e-08
4.87967e-09
-6.11854e-08
4.81669e-09
-6.2596e-08
4.74893e-09
-6.39851e-08
4.67649e-09
-6.53513e-08
4.59948e-09
-6.66933e-08
4.51802e-09
-6.80098e-08
4.43223e-09
-6.92996e-08
4.34221e-09
-7.05614e-08
4.24808e-09
-7.17941e-08
4.14995e-09
-7.29964e-08
4.04794e-09
-7.41674e-08
3.94218e-09
-7.53058e-08
3.83276e-09
-7.64106e-08
3.71981e-09
-7.74809e-08
3.60345e-09
-7.85156e-08
3.4838e-09
-7.95138e-08
3.36097e-09
-8.04746e-08
3.23509e-09
-8.13971e-08
3.10627e-09
-8.22805e-08
2.97463e-09
-8.31239e-08
2.8403e-09
-8.39267e-08
2.7034e-09
-8.4688e-08
2.56405e-09
-8.54072e-08
2.42236e-09
-8.60837e-08
2.27848e-09
-8.67168e-08
2.13251e-09
-8.73059e-08
1.98459e-09
-8.78505e-08
1.83484e-09
-8.83501e-08
1.68339e-09
-8.88042e-08
1.53036e-09
-8.92124e-08
1.37589e-09
-8.95742e-08
1.22009e-09
-8.98895e-08
1.06311e-09
-9.01578e-08
9.05069e-10
-9.03788e-08
7.46102e-10
-9.05524e-08
5.86341e-10
-9.06782e-08
4.25919e-10
-9.07563e-08
2.6497e-10
-9.07865e-08
1.03629e-10
-9.07686e-08
-5.79674e-11
-9.07027e-08
-2.19683e-10
-9.05887e-08
-3.81381e-10
-9.04268e-08
-5.42921e-10
-9.0217e-08
-7.04164e-10
-8.99594e-08
-8.6497e-10
-8.96542e-08
-1.0252e-09
-8.93017e-08
-1.18471e-09
-8.89021e-08
-1.34335e-09
-8.84556e-08
-1.50099e-09
-8.79628e-08
-1.65747e-09
-8.74238e-08
-1.81267e-09
-8.68392e-08
-1.96642e-09
-8.62095e-08
-2.11858e-09
-8.55351e-08
-2.26901e-09
-8.48166e-08
-2.41755e-09
-8.40546e-08
-2.56407e-09
-8.32499e-08
-2.70841e-09
-8.2403e-08
-2.85042e-09
-8.15147e-08
-2.98996e-09
-8.05858e-08
-3.12688e-09
-7.96171e-08
-3.26103e-09
-7.86095e-08
-3.39225e-09
-7.75639e-08
-3.52042e-09
-7.64812e-08
-3.64536e-09
-7.53625e-08
-3.76694e-09
-7.42088e-08
-3.88501e-09
-7.30212e-08
-3.99943e-09
-7.18008e-08
-4.11004e-09
-7.05488e-08
-4.21671e-09
-6.92665e-08
-4.31928e-09
-6.79549e-08
-4.41762e-09
-6.66155e-08
-4.51159e-09
-6.52497e-08
-4.60104e-09
-6.38587e-08
-4.68584e-09
-6.24439e-08
-4.76585e-09
-6.1007e-08
-4.84093e-09
-5.95493e-08
-4.91096e-09
-5.80724e-08
-4.9758e-09
-5.65778e-08
-5.03533e-09
-5.50672e-08
-5.08941e-09
-5.35422e-08
-5.13793e-09
-5.20046e-08
-5.18078e-09
-5.04559e-08
-5.21782e-09
-4.88979e-08
-5.24896e-09
-4.73325e-08
-5.27407e-09
-4.57614e-08
-5.29306e-09
-4.41865e-08
-5.30583e-09
-4.26096e-08
-5.31227e-09
-4.10326e-08
-5.31231e-09
-3.94574e-08
-5.30584e-09
-3.7886e-08
-5.29279e-09
-3.63202e-08
-5.27308e-09
-3.47622e-08
-5.24665e-09
-3.32138e-08
-5.21343e-09
-3.16772e-08
-5.17335e-09
-3.01542e-08
-5.12638e-09
-2.86469e-08
-5.07247e-09
-2.71574e-08
-5.01159e-09
-2.56877e-08
-4.9437e-09
-2.42399e-08
-4.8688e-09
-2.28159e-08
-4.78687e-09
-2.14179e-08
-4.69793e-09
-2.00479e-08
-4.60198e-09
-1.87078e-08
-4.49905e-09
-1.73996e-08
-4.38919e-09
-1.61255e-08
-4.27245e-09
-1.48872e-08
-4.14891e-09
-1.36868e-08