/*--------------------------------*- C++ -*----------------------------------*\
  =========                 |
  \\      /  F ield         | OpenFOAM: The Open Source CFD Toolbox
   \\    /   O peration     | Website:  https://openfoam.org
    \\  /    A nd           | Version:  7
     \\/     M anipulation  |
\*---------------------------------------------------------------------------*/
FoamFile
{
    version     2.0;
    format      ascii;
    class       volScalarField;
    location    "0.641";
    object      T;
}
// * * * * * * * * * * * * * * * * * * * * * * * * * * * * * * * * * * * * * //

dimensions      [0 2 -2 0 0 0 0];

internalField   nonuniform List<scalar> 
12359
(
3.65763e-77
-4.96633e-63
-2.84865e-213
2.66016e-41
-3.24701e-71
-2.93239e-28
4.25339e-23
-9.81006e-26
-6.39429e-18
9.55983e-31
4.92515e-21
1.79131e-13
0.222557
6.90964e-39
-1.03974e-43
3.26772e-06
0.00174587
1.2019e-115
-2.76612e-119
-2.75878e-52
-6.95921e-36
-1.44378e-15
3.41457e-57
3.7824e-49
-4.08537e-60
-2.43278e-55
3.76415e-153
-3.1355e-156
3.37407e-124
7.47689e-145
9.95761e-139
-2.99467e-171
3.93658e-189
1.02715e-147
-2.3972e-201
-6.58731e-136
1.23003e-93
6.28125e-80
1.11191e-74
-1.66174e-85
1.99687e-65
7.22187e-83
3.45122e-101
-2.725e-104
1.3729e-130
-3.56308e-127
2.60441e-133
-1.25218e-141
-1.60892e-121
-2.89248e-150
7.09628e-160
-4.34648e-165
7.27885e-175
-1.08105e-112
-4.84347e-180
-5.95328e-186
-8.9852e-108
-1.49627e-192
-9.81249e-196
1.63519e-198
5.82999e-183
-6.26546e-207
2.24375e-162
9.2305
5.76729e-110
9.18574e-34
5.41216e-97
5.29096e-168
-7.10311e-91
-1.80378e-08
119.354
-9.12398e-69
-1.15542e-215
3.78639e-88
-1.48169e-48
4.41364e-204
2.69606e-177
6.52965e-210
-8.08103e-99
6.88038e-12
-6.22035e-28
-2.2552e-128
6.74929e-275
-1.22175e-79
0.00137814
1.54238e-79
-4.82776e-126
3.74173e-178
0.797019
0.0004327
-1.65524e-236
3.14494
-5.5351e-238
-7.86715e-105
-8.47211e-84
3.56768e-57
2.19285e-110
-2.84837e-105
1.18478e-52
-1.0328e-65
2.30184e-23
2.17962e-230
2.75892e-80
26.9574
-4.24418e-137
5.04653e-30
-4.21598e-235
0.00179227
1.19621e-88
3.1138e-31
1.55157e-112
-4.0561e-128
-1.68124e-32
3.2225e-27
-1.81977e-84
-2.4642e-161
2.71966e-26
-9.60752e-128
2.79214
-1.43535e-271
1.10937e-114
6.22258e-24
1.09938e-176
1.65882e-40
-7.80132e-127
2.10808e-150
4.17702e-17
-7.58923e-79
-3.0931e-211
-7.79189e-129
5.99866e-160
3.01182e-07
1.80197e-05
9.58537e-06
-1.36852e-236
9.03609e-41
1.99148e-159
2.45944e-42
1.67716e-225
4.78784e-18
-5.43894e-263
-1.54136e-76
1.55741e-40
2.3942e-235
8.60004e-19
1.4725e-29
-3.30709e-275
0.000547742
-1.25666e-136
2.14686e-27
3.78729e-55
3.30683e-227
1.0147e-39
8.51157e-175
1.99428e-244
111.872
3.44454e-24
2.3008e-07
2.4579e-111
1.15879e-175
9.89649e-36
3.49341e-174
1.44686e-40
3.27881e-40
5.80061e-260
4.0841e-152
1.90696e-36
6.99856e-25
7.19875e-42
0.730682
1.17714e-207
1.03543e-205
2.26413e-43
1.57657e-62
-8.7152e-139
1.94687e-18
-2.17106e-128
-5.87217e-130
-2.30725e-32
1.94462e-19
-1.0531e-40
-5.31375e-242
-1.1599e-210
-3.22753e-127
4.67206e-54
1.20004e-16
-1.5679e-106
-8.08904e-88
7.17753e-54
-6.96371e-106
-2.58954e-86
1.23417e-58
7.0407e-60
1.91425e-173
9.10901e-31
37.2808
1.03812e-65
-1.51721e-105
9.783e-40
-1.97243e-126
4.28872e-28
1.78e-54
-3.26514e-66
1.76298e-31
4.51782e-22
-3.14356e-241
6.39289e-21
-9.68405e-65
2.73904e-35
-1.257e-114
5.69476e-255
3.03883e-17
7.6008e-17
154.914
3.70151e-16
5.10308e-223
-4.13789e-106
-8.15217e-86
-2.25159e-105
-1.3336e-74
1.72981e-27
-5.39797e-116
1.44172e-41
3.4458
-2.29512e-127
1.4557e-254
-2.07627e-73
2.78595e-90
6.39184e-20
-1.03873e-102
-8.52318e-102
3.31984e-262
4.63162e-19
-1.60901e-60
-2.59388e-88
-8.19942e-62
5.99194e-270
1.91003e-37
-6.24239e-87
7.17448e-05
6.20977e-251
3.76171e-76
-7.6662e-96
2.65906e-10
1.11391e-33
0.000812009
-7.51833e-197
2.53004e-36
9.60936e-145
5.04092e-60
1.60801e-23
-1.22106e-82
-3.82345e-133
-6.69608e-102
1.29784
126.215
1.9178e-269
-1.12753e-120
1.33222
170.792
-1.03649e-64
4.36716e-34
6.30612e-22
1.82259e-31
-6.50194e-63
60.1332
2.71694
5.25035e-32
-4.32746e-122
1.03898e-40
1.71279e-42
9.70296e-54
6.23614e-41
-8.54515e-104
-1.80891e-117
2.39048e-252
-3.93473e-119
7.57653
8.56762e-32
5.46313e-217
1.71438e-228
2.49481e-31
2.56837e-121
-2.66647e-98
1.11155e-77
-1.89847e-265
4.74692e-22
1.82391e-228
-9.79641e-230
-1.1023e-173
1.31681e-41
-3.39283e-130
53.2757
-1.42176e-237
-9.9174e-235
4.84356e-79
-3.00826e-145
2.10269e-28
-5.31312e-89
-1.69606e-162
-4.832e-236
6.89362
5.46102e-21
-5.00617e-237
-5.7723e-105
-1.61751e-90
-1.1017e-143
3.73213e-159
-4.46103e-161
-2.67935e-140
4.8632e-120
-1.99493e-16
-6.80716e-144
-8.51638e-141
-2.89375e-81
2.62036e-36
1.20463
4.02458e-142
-1.43652e-55
2.55607e-06
-1.13678e-228
1.24646e-48
-5.58751e-216
1.2204e-64
-4.61082e-233
-2.32103e-139
7.97329e-17
5.87664e-45
3.01632e-17
4.20813e-100
-3.87794e-96
3.44703e-60
2.63447e-56
-6.34873e-95
1.07827e-60
1.47887e-60
3.91438e-197
-3.53443e-183
-1.56293e-183
-2.50099e-182
-3.55088e-182
0.000303867
3.33372e-264
2.77498e-26
5.27568e-43
1.66755e-56
1.2792e-38
3.55177e-44
2.13325e-79
3.9544e-67
1.57815e-44
3.65747e-69
-3.7274e-56
2.88347e-33
1.96884e-32
7.43456e-32
-1.47235e-75
2.81765e-15
-1.62123e-77
-3.12522e-77
5.0462e-40
9.09573e-21
-5.95205e-130
4.07745e-179
2.94857e-65
1.34777e-181
3.10905e-128
166.988
17.5688
2.63918e-128
1.18123e-223
5.02054e-238
-1.9359e-246
2.30567e-45
4.57428e-242
-1.67966e-245
1.03848
2.20829e-40
0.000335241
3.37611e-130
2.66896e-34
4.67162e-123
-1.76551e-94
2.44667e-29
3.67247e-66
4.09329e-41
1.09502e-67
8.26383e-131
1.11178e-216
4.19305e-41
2.08796e-34
1.251e-130
2.74577e-12
9.49116e-30
3.25273e-57
1.889e-45
6.43322e-38
-2.88352e-222
9.30918
2.03588e-14
6.96289e-129
8.12021e-11
-1.45554e-78
-3.42262e-261
-7.8886e-262
-7.56078e-250
0.00063647
1.01688e-21
-1.52835e-54
5.89162e-50
6.53035e-56
-3.52216e-82
-8.1989e-40
3.89971e-47
1.15938e-12
1.21914
-4.42844e-12
1.60094e-56
6.42928e-33
5.0305e-87
3.94984e-30
-1.49098e-71
1.02393e-63
5.95191e-148
-3.95433e-73
7.47546e-43
7.698e-241
159.796
-7.54663e-96
0.22946
5.65573e-36
2.78049e-107
1.13491e-30
1.01416
2.57111e-42
-1.59e-64
9.91214e-58
1.00921e-34
2.63014e-29
-1.49704e-123
-8.48124e-255
4.22769e-25
-4.24852e-231
1.17571e-07
2.01315e-158
-2.04753e-56
1.78588e-36
-1.08732e-104
0.00737354
1.89198e-25
-2.51921e-68
-3.85893e-123
2.29379e-05
7.21249e-203
3.06578e-134
7.88002e-16
4.24595e-222
3.67072e-123
4.98344e-135
7.73305e-08
17.7433
-3.66405e-81
1.83849e-183
-3.91082e-34
7.63444e-39
4.16647e-49
5.60888e-38
8.39602e-42
8.02511e-196
-4.16025e-248
3.71216e-43
1.28083e-233
1.295e-37
1.71036e-49
9.57952e-31
-9.72761e-132
2.65493e-26
2.25172e-14
-5.62837e-147
-3.40427e-83
-2.29196e-129
-2.84904e-30
1.27595e-15
3.46226e-225
1.25331e-41
5.32603e-44
1.46316e-89
3.37619e-40
2.34294e-157
5.2433e-22
9.98593e-71
1.24853e-38
3.23235e-31
4.29542e-194
-9.99249e-84
2.46104e-10
7.53617e-05
6.00036e-236
-5.21171e-62
1.89208e-10
5.43294e-51
0.792097
-3.7547e-250
7.644e-160
5.26595e-201
2.80738e-38
-1.86413e-65
-3.12627e-75
1.05509e-155
3.54543e-44
1.45819e-61
-5.12531e-64
-2.18794e-113
0.000198036
5.84738e-226
0.000475322
7.17552e-180
146.257
1.85262e-69
4.05013e-11
-3.0737e-195
-8.07274e-133
4.78913e-35
-5.35018e-129
-6.15867e-164
4.37002e-101
-2.7643e-63
-5.48555e-64
1.76774e-12
2.04716e-25
1.28545e-25
-1.48062e-275
-8.16356e-129
3.33687e-47
9.47829e-05
-5.02689e-275
-1.36848e-221
4.11223e-43
1.53551e-198
2.17428e-17
1.2083
88.5563
-2.12541e-273
-4.66733e-86
1.60515e-22
-1.03122e-72
-1.34437e-138
90.1964
-7.44411e-225
1.10534e-24
2.85695e-35
2.87972e-87
-1.86379e-141
-7.75487e-161
-2.12866e-106
1.11393e-43
8.03557e-69
-4.38151e-80
-1.30078e-271
1.62449e-209
-3.77576e-67
2.07121e-129
3.20399e-29
1.01778e-38
2.77092e-172
-6.14524e-221
1.44024e-32
156.735
9.2087e-141
4.32217e-13
1.39352e-240
-2.51334e-79
6.75762e-25
1.45021e-51
1.94032e-24
1.20768e-29
-5.01558e-65
6.22067e-39
-3.36104e-257
-1.49179e-201
5.04228e-55
-6.40487e-77
-5.03368e-66
3.72677e-80
-2.02318e-244
7.7098e-218
-1.17137e-150
8.11147e-52
4.52553e-34
-9.85093e-35
-1.47604e-94
-9.32613e-33
4.16083e-41
-4.14508e-63
-9.81008e-32
-2.75052e-57
0.292598
1.60762e-39
7.07573e-56
1.4852e-30
-8.8947e-204
1.25753e-24
1.46448e-34
2.77925e-276
1.42146e-221
1.13315e-197
-1.10061e-197
2.49751e-07
-1.02353e-62
1.14726e-96
-6.84317e-34
1.41962e-100
8.4563e-17
7.26562e-52
5.19918e-43
-1.60192e-149
1.19266e-11
-3.43279e-245
3.9155e-51
2.79462e-123
1.09028e-19
-4.9833e-31
-2.89258e-71
4.39641e-63
9.07345
5.35397e-42
2.29657e-14
-4.81021e-72
6.57566e-12
0.548266
-3.15469e-188
2.22777e-130
-4.43026e-246
9.2052e-09
-3.70326e-130
1.29679e-68
0.00615717
-9.06181e-223
8.18706e-63
9.01989e-34
-2.44838e-68
-7.18167e-138
2.13405e-72
-2.19489e-178
-1.0735e-69
1.39014e-179
-3.95463e-179
-3.29811e-74
1.88777e-40
1.36882e-42
-7.05625e-67
4.94986e-09
1.36666e-52
17.0409
5.25863e-41
4.11169e-78
-7.23852e-72
8.77777e-43
4.26165e-55
1.91688e-58
0.499968
-4.15085e-37
2.84261e-58
-3.12047e-57
1.83404e-118
4.83592e-133
3.7446e-33
-4.38112e-253
9.86292
-8.0199e-175
-4.74431e-36
2.30533e-23
1.548e-07
3.41327e-21
1.76778e-33
3.65411e-35
-5.27929e-73
2.73149e-21
9.19355e-44
2.84442e-14
-2.06439e-56
1.54843e-14
-3.1952e-58
-2.10431e-266
-2.87159e-55
173.685
1.33745e-13
-4.60864e-101
4.11054e-258
-1.87866e-169
-7.12262e-92
9.38667e-58
1.63853e-43
7.78271e-66
5.47315e-197
-6.14152e-100
7.09792e-55
6.94868e-103
-2.35232e-113
8.02304e-14
-5.69474e-109
8.34424e-48
4.38265e-30
3.63487e-101
2.80037e-93
3.87646e-29
-2.25407e-277
-5.43527e-95
51.7652
1.22131e-199
1.20991e-17
4.83091e-24
-2.1452e-94
3.92411e-34
5.11064e-30
3.98279e-57
1.26793e-28
3.1552e-130
-3.50299e-34
8.58597e-140
1.51094e-61
3.21889e-32
-8.1192e-33
3.55483e-131
3.26876e-38
1.41003e-07
-1.20074e-47
-1.28523e-74
-9.61562e-125
5.95461e-24
5.00968e-07
1.31555e-121
-4.46112e-224
3.68063e-57
8.37097e-239
0.649336
-3.10823e-57
6.00873e-13
1.45209e-72
2.86143e-67
11.2982
-6.60397e-70
0.0013508
6.69594e-45
83.5314
8.5051e-47
-5.25589e-79
-1.54133e-71
3.99988e-91
0.00307819
0.000260399
2.47806e-184
1.96674e-181
-1.64987e-30
-4.6918e-172
0.0031316
1.33676e-30
1.87081e-10
-3.04367e-124
128.073
0.0864574
-1.70379e-56
-1.16832e-265
1.13032e-135
-1.64126e-39
3.74329e-91
-2.15512e-93
-3.16647e-86
1.22546e-42
4.90453e-45
30.3321
5.52281e-08
8.97217e-199
7.6581e-39
5.28178e-27
-3.23312e-29
1.69907e-77
1.24129e-23
3.0666e-37
-2.23939e-38
-1.89837e-137
1.63865e-262
3.34321e-23
5.15438e-20
7.22884e-68
-1.36057e-31
8.28142e-14
1.37764e-79
4.76775e-58
1.1504e-121
3.79152e-84
1.17463e-15
-9.44246e-83
1.55278e-28
1.42564e-42
3.07494e-53
-1.91496e-106
-1.54712e-80
3.69297e-08
8.37711e-75
4.75663e-78
34.348
1.18363e-51
3.52855e-81
0.00827581
-4.09561e-270
3.25178e-73
-1.3757e-63
-1.78381e-90
6.04465e-153
1.55839e-59
2.92763e-278
4.43176e-10
5.39432e-132
-9.74561e-63
4.46929e-23
7.39597e-34
6.37157e-68
5.24136e-71
2.19803e-24
88.2598
-3.3099e-202
1.0726e-106
2.88417e-80
0.00677138
4.82955e-20
8.54254e-133
2.65551
7.55161e-263
4.15472e-136
180.116
-5.92225e-100
1.47451e-128
1.30439e-125
6.8856e-44
-5.43758e-42
-2.22394e-198
-4.79128e-93
7.81222e-26
6.40507e-65
-5.32504e-68
-3.53136e-87
-8.20877e-187
-9.39089e-41
1.04758e-06
-2.32879e-70
-9.65659e-33
8.24787e-46
5.13319e-60
5.72018e-11
4.74813e-28
-1.32617e-85
1.25443e-132
0.000343736
2.24558e-40
7.56932e-49
-2.03522e-121
-5.24613e-196
-2.07194e-38
9.28953e-12
3.47078e-77
4.97567e-31
1.39877e-75
-6.85089e-85
-1.18791e-109
2.9963e-41
147.52
19.0707
4.58398e-40
-3.38032e-70
1.59961e-111
1.63603e-42
0.0109981
-2.67601e-35
5.10595e-134
1.05031e-12
3.28244e-08
9.37623
-1.34501e-95
84.9753
-1.36192e-198
-2.26124e-83
-9.78322e-195
1.75645e-11
1.3707e-47
79.307
-3.12316e-140
0.0177614
-9.42072e-172
-1.92659e-69
1.54396e-33
1.43723e-92
3.21977e-13
0.082516
-7.60045e-98
2.85191e-105
5.31084e-74
-1.93887e-96
-1.93003e-99
3.1267e-14
3.58637e-50
2.30611e-70
4.63979e-16
-1.14358e-99
-3.09054e-191
-6.95836e-72
-3.53835e-169
4.91516e-28
4.5376e-74
1.29904e-09
1.61653e-11
-1.67419e-44
3.10891e-36
4.75239e-41
-9.46363e-73
0.0110916
8.39487e-80
-3.03459e-104
-4.14748e-244
3.03035e-12
-1.28135e-36
-1.95943e-141
6.79054e-28
-1.31973e-88
1.27119e-36
-4.15924e-39
-4.07306e-34
2.22427e-42
90.8733
1.45349e-40
-2.9297e-43
0.0841152
-5.71899e-92
1.38936e-07
3.17085e-27
3.56864e-174
3.56857e-78
-2.74155e-112
5.32924e-76
-8.1369e-259
-4.8154e-126
1.17148e-07
5.98682e-12
-3.81753e-127
196.642
2.57863e-30
1.97631e-175
2.90236e-12
9.98156e-14
3.79178e-177
5.05861e-11
3.91412e-24
8.91742e-12
-1.02954e-176
-2.8081e-131
9.62032e-109
7.81621e-178
-3.31629e-38
26.9113
-8.57419e-140
2.26138e-12
-8.11254e-272
2.6113
6.00235e-29
4.06947e-40
-4.97146e-226
-5.51908e-142
-4.92852e-82
4.19337e-44
9.75975e-16
4.9411e-37
1.23347e-100
5.44992e-95
-1.91638e-177
1.62575e-30
5.74865e-40
-1.19217e-111
7.81163e-222
1.21163e-60
1.51117e-37
2.6942e-46
-4.05442e-150
3.57275e-07
-6.80583e-31
3.94964e-170
1.48393e-49
-6.32146e-96
1.77114e-79
191.855
-2.96101e-101
1.10989e-172
5.09527e-44
-8.74996e-38
-4.36468e-47
2.7712
-4.03575e-65
-3.62513e-83
1.00674e-35
-6.76597e-91
2.0421e-89
-1.27454e-81
2.59777e-90
-5.98345e-30
-3.22038e-79
15.4886
-8.82629e-46
3.25819e-10
-4.59026e-88
0.000777473
1.16694e-32
5.20097e-11
1.68281e-14
4.42737e-39
5.26105e-82
1.50433e-87
-7.87184e-63
1.22667e-273
2.50822e-82
1.77654e-37
1.81199e-15
-1.32651e-91
2.15903e-171
5.51389e-42
4.69599e-39
6.55451e-19
2.8087e-41
9.38084e-13
6.55983e-19
4.49073e-120
8.15682e-53
0.542154
9.98805e-39
4.77109e-261
6.2549e-97
3.46532e-93
2.28267e-264
3.88699e-54
-2.06963e-200
7.75091e-81
1.35679e-15
4.72779e-35
1.27561e-06
-1.63577e-196
7.60055e-141
2.45571e-237
-1.78079e-92
-1.60516e-110
6.75481e-11
-3.74444e-110
4.59582e-141
3.00055e-07
3.17589e-39
1.48537e-55
1.67642e-55
4.60641e-18
8.28055e-102
1.87743e-12
1.43094e-88
-3.92495e-193
0.00148916
3.8923e-48
4.16827e-21
-1.50817e-105
55.5886
-1.2324e-41
3.70675e-49
1.1743e-40
3.12252e-32
28.3915
-4.43848e-85
2.63198e-13
-4.32108e-50
-3.82812e-50
-1.19025e-145
6.76277e-73
9.91594e-08
-4.8263e-83
1.86766e-09
-1.92062e-98
-1.01364e-102
3.7045e-13
1.45025e-161
6.39263e-128
-1.78671e-83
7.75485e-47
1.78086e-11
-1.48091e-99
-1.4373e-93
5.24662e-243
-9.03805e-49
0.00169119
7.11122e-46
-1.65965e-93
-1.39334e-66
4.89219e-103
-4.21358e-139
14.143
-1.07612e-49
2.65093e-226
1.75271e-51
1.38743e-104
-2.66098e-40
-1.6013e-28
4.26829e-53
-2.33257e-92
1.62162e-15
9.47468e-12
-1.10998e-231
-1.00595e-65
3.31429e-12
-1.16493e-141
-5.56221e-204
-1.9775e-67
2.68359e-55
-7.17491e-85
-4.00602e-202
-9.13332e-56
9.20887e-13
2.21004e-176
1.32028e-24
-2.03266e-201
-2.35255e-111
2.8284e-58
3.47304e-05
-1.21113e-248
2.01251
-2.22629e-48
5.22654e-23
36.0892
-3.2628e-44
1.0415e-62
0.0299585
-4.68247e-92
1.13316e-05
7.82066e-20
-4.43737e-68
1.81252e-83
4.99184e-85
3.93437e-103
-5.31446e-109
6.16894e-25
0.0255379
188.638
6.67999e-29
-6.16032e-30
0.00266231
2.5597e-31
9.72433
3.47109e-154
2.0663e-101
1.20004e-19
5.24073e-47
-9.26345e-127
5.9289e-29
-1.88094e-87
28.1245
-1.7766e-260
-8.99002e-136
4.67888e-148
199.455
-1.91085e-38
2.06524e-46
-1.5056e-81
9.49103e-20
-8.55823e-90
-2.96136e-144
1.93707e-07
-8.10057e-86
1.8868e-07
6.95633e-25
1.41658e-75
3.44116e-15
5.87061e-48
1.11643e-101
-2.66432e-139
7.19924e-138
0.213707
6.89143e-14
-2.19639e-115
1.35938e-18
3.94079e-56
1.24506e-26
-1.66606e-246
8.63498e-52
1.1544e-07
1.5338e-12
-7.14201e-43
-1.9611e-70
3.97848e-139
7.31841e-18
2.50755e-88
8.83633e-143
1.43304e-10
4.2464e-18
-8.15452e-115
-5.00412e-32
3.56204e-50
-1.19547e-240
3.09005e-127
-5.37107e-206
-3.51571e-42
82.0913
8.77961e-12
4.45392e-21
-7.70116e-120
-3.79643e-87
3.23039e-47
-8.49046e-230
2.08894e-09
7.55614e-49
72.9058
-1.40245e-28
3.71809e-79
2.43974e-116
3.12134e-153
3.95842e-86
-4.50155e-90
1.14986e-124
14.1655
1.59772e-16
8.39183e-39
7.95365e-18
-7.88071e-45
1.67867e-140
-4.51545e-272
2.18671e-124
1.6333e-27
0.758767
-1.37755e-22
9.48784e-49
-5.35075e-51
-6.32684e-76
3.8111e-17
0.0323242
0.0205018
-4.20541e-90
-1.117e-72
3.54328e-31
3.64908e-106
1.30887e-199
-4.55365e-125
5.31563e-15
-9.7262e-112
6.86789e-65
-5.23903e-98
1.71632e-42
1.42523e-08
1.23309e-103
-1.33242e-124
6.1887e-11
6.09551e-17
6.62431e-97
7.43975e-144
-2.34773e-52
2.32272e-05
3.22668e-27
4.35605e-24
-4.64771e-55
3.24233e-65
0.0346746
-3.00226e-85
-1.1629e-22
-1.15729e-137
6.99475e-13
2.74084e-12
-2.36572e-182
2.81767e-149
87.3335
2.46584e-126
3.32582e-78
1.45171e-29
-4.42162e-114
5.07742e-113
7.6656e-99
5.72292e-128
4.00339e-237
9.63651e-22
1.05045e-05
8.74983e-152
0.0154721
-2.06348e-90
-1.79471e-129
4.83838e-13
2.49558e-09
4.45908e-28
9.72875e-92
-1.80802e-124
-7.65003e-47
150.646
-2.48726e-111
1.66217e-152
-1.53686e-159
1.86919e-110
1.28741e-62
2.97672e-31
-1.50086e-114
-4.74916e-80
-3.56468e-130
7.14993
3.48944e-09
9.10593e-47
-8.4224e-41
-8.60944e-89
-2.4722e-129
6.93747e-18
1.29399
-1.01694e-76
1.50403e-158
-5.06954e-131
3.95588e-14
-2.36621e-115
-4.65097e-139
1.00335e-09
4.21e-92
-9.55701e-126
117.34
1.19642e-07
5.19559
1.17331e-17
-6.15509e-115
9.04716e-15
1.04409e-10
0.15306
4.51185e-101
3.83164e-32
-1.69195e-233
0.11444
-2.51344e-265
-1.81593e-103
5.50924e-90
-7.47603e-158
1.67586e-44
-4.59915e-95
-1.15969e-113
8.31723e-103
6.20805
1.35634e-14
1.3269e-42
-1.52906e-123
3.1688e-31
13.1228
2.5824e-09
4.59002e-45
-1.08199e-53
-5.61553e-104
5.2545e-90
1.46153e-154
4.58667e-116
4.50498e-150
-3.37806e-126
-1.78652e-45
2.33455e-15
7.81242e-18
0.302488
8.44885e-05
6.14389e-09
1.03407e-25
0.111693
-1.00647e-140
2.67071e-05
-1.40372e-131
0.0013433
1.00993e-09
3.03291e-38
-2.97109e-114
1.49586e-37
3.40924e-25
3.75709e-70
75.5292
6.27898e-13
0.348132
-7.80083e-128
4.09122e-10
2.15698e-07
2.02741e-10
1.01394e-07
2.90566e-11
-5.69629e-126
4.26908e-100
6.6823e-46
-2.49294e-118
1.4492e-30
-5.89817e-107
6.33472e-41
8.44272e-185
-1.72963e-96
7.95256e-24
1.08994e-36
2.65511e-144
-1.5935e-49
0.7949
94.5248
-6.14959e-159
9.12395e-52
1.78635e-83
6.2181e-11
1.19407e-31
4.92494
3.1691e-05
8.78174e-104
9.39678e-43
1.62498e-07
-5.60897e-25
4.27971e-06
7.34687e-57
4.03455e-12
2.34631e-146
0.173393
1.38734e-09
3.76243e-142
8.71739e-08
0.090589
1.111e-47
3.62948
-2.12909e-93
4.65812e-09
-3.24165e-83
-7.39755e-164
-5.72335e-79
-4.69496e-87
0.0719601
9.43795e-06
0.0333288
-3.18105e-146
5.96996
7.10058e-39
1.76924e-13
-6.56134e-33
7.64203e-45
1.93143e-54
0.0154346
-9.4997e-92
-2.61152e-104
6.06899e-23
2.26025e-09
3.46775e-30
1.30994e-19
-1.24566e-60
0.0452069
5.34987e-31
7.97743e-31
1.27473e-09
1.34592e-177
5.37595e-08
3.1158e-13
2.94764e-08
-6.2647e-80
0.000653249
2.01409e-152
1.77486e-31
4.63229e-48
2.48042e-07
5.73607e-76
6.51953e-24
9.6325e-09
76.9315
4.2716e-110
1.01026e-41
-3.77294e-50
3.03663e-11
9.52214e-21
-2.13706e-102
9.35346e-41
4.77913e-155
14.1626
-3.38281e-242
2.56383e-154
-3.08065e-204
4.10737e-07
-2.77663e-124
3.44807e-40
2.56883
9.05303e-57
2.8341e-61
-2.80096e-118
2.75614e-194
5.85445e-10
2.21199e-157
-2.05408e-43
1.04258e-12
-3.79599e-48
2.12268e-06
9.72123e-99
1.41997e-39
7.62134e-08
6.85878e-20
5.61224e-77
85.4972
-4.15393e-247
1.08741e-188
-1.12701e-92
216.086
-3.14011e-81
3.67311e-78
5.32876e-08
-1.18849e-113
5.37812e-97
6.97234e-15
5.4514e-06
2.29996e-33
0.00669881
-9.08773e-114
1.04369e-93
2.40937e-46
2.17736e-51
1.92727e-07
-2.85421e-133
2.1577e-74
-8.21468e-58
-1.35397e-17
-3.81469e-65
5.54667e-146
2.47406e-42
-2.22407e-19
-3.0117e-214
2.98443e-209
3.1377e-05
6.77246e-33
6.18858e-05
1.3254e-97
-5.19056e-260
-3.60064e-18
4.83169e-07
-5.6071e-140
-1.04023e-109
3.24519e-154
13.8832
8.73434e-212
1.29273e-34
4.62362e-05
-3.52594e-204
1.51511e-192
2.97084e-20
-4.49872e-167
-1.78229e-207
8.97559e-45
1.10737e-13
2.59322e-148
7.71287e-23
-5.64179e-160
5.13534e-08
-2.89762e-262
8.29936e-08
2.24943e-13
1.28521e-22
-7.84862e-204
4.23557e-16
5.25326
1.14147e-105
2.37992e-50
1.67803e-170
4.77474e-14
2.79831e-161
4.86457e-07
7.87822e-10
6.08856e-90
1.94736e-201
6.12549e-14
1.58082e-14
3.03281e-51
1.42008e-49
6.90576e-17
-2.28514e-165
1.0449e-16
2.97391e-203
7.23361e-06
5.49746e-09
1.44395e-09
6.8501e-22
-7.91367e-24
9.51649
9.53062e-24
3.38952e-48
4.14427e-15
1.67136e-105
2.79829e-13
9.00552e-17
-4.87152e-46
4.44691e-85
0.0820217
-4.00563e-221
0.0374415
109.95
2.57017e-118
7.27291e-09
71.7783
2.08382e-36
8.5562e-46
1.99179e-17
-2.08083e-56
1.20008e-152
3.40169e-08
0.0113877
0.822181
-9.23208e-106
1.12866e-17
0.000266945
1.32284e-14
-1.44437e-126
1.26754e-186
4.0514e-36
0.0169077
4.36613e-09
7.40721e-17
-2.88606e-251
-3.88965e-162
5.54713e-15
-7.36651e-113
3.2546e-46
-3.43965e-108
-3.65049e-198
1.3476e-07
7.1436e-94
0.000102929
2.45881e-50
2.53309e-176
1.76575e-185
1.56741e-15
-3.8687e-107
8.90251e-36
1.29961e-16
0.531976
-2.93359e-52
-6.26599e-147
1.52381e-06
-4.39493e-97
1.12309e-156
1.21523e-72
2.44655e-14
-3.4866e-105
2.71411e-14
2.07326e-48
210.313
2.68531e-15
-8.61319e-139
5.52435e-05
-3.23405e-203
2.22219e-09
2.01338e-39
4.81896e-06
0.00360295
-1.78897e-47
0.000101873
1.51614e-174
4.04592e-09
4.50068e-126
4.71144e-53
1.8766e-05
2.60293e-29
7.37621e-06
0.0140892
-2.28765e-20
5.01913e-08
1.67628e-06
-8.45405e-144
-1.20473e-159
-1.2938e-201
0.000126702
-5.51463e-25
-4.05216e-142
9.23912e-08
8.14778e-06
4.14581e-41
2.91439e-14
1.22209e-57
-1.48414e-35
0.00147535
-1.61789e-74
4.83891e-32
1.43606e-35
8.54034e-234
-1.44504e-231
-3.20113e-143
-1.26342e-105
1.63282e-50
5.63402e-178
-3.70523e-89
8.3468e-109
-4.2664e-66
1.50077e-21
2.61023e-126
7.40102e-07
-5.11673e-264
5.45401e-12
2.78664e-06
-1.3767e-136
3.99877e-05
2.48233e-13
3.26302e-06
-1.31989e-64
3.24083e-17
-1.50099e-115
5.31217e-40
3.18638e-51
3.12094e-187
-1.25964e-126
3.84119e-96
-6.58145e-135
1.70943e-208
3.09234e-57
2.72471e-210
-6.61105e-32
7.48838e-25
0.059746
6.4549e-180
-2.04969e-64
3.2334e-176
-1.13168e-112
2.04922e-22
-2.03889e-67
-7.4646e-140
119.646
8.47967e-15
6.83221e-33
1.75499e-62
9.40074e-16
2.06434e-24
1.03681e-70
2.9363e-19
6.46253e-14
1.78763e-108
4.43578e-205
-1.37423e-86
6.3732e-08
-2.12277e-158
-9.30061e-144
3.57989e-14
6.67728e-118
-3.17547e-113
3.56051e-81
1.35601e-146
0.000729634
3.94885e-178
-1.77893e-145
1.45719e-22
1.5919e-19
4.68061
1.22364e-13
-5.46492e-61
-3.35601e-138
2.98179e-18
-6.696e-140
2.3721e-28
1.51452e-55
-1.06712e-108
3.7023e-06
1.20419e-204
7.09873e-23
8.47493e-56
2.0197e-15
-1.44332e-45
2.58399e-214
-7.07177e-110
-1.29244e-263
2.98431e-26
-1.15043e-160
9.49106e-20
1.28379e-46
-1.02988e-95
-3.40028e-59
2.42322e-41
1.2431e-206
2.35033e-22
2.38458e-23
-1.49725e-106
5.76941e-22
5.88486e-08
4.20861e-196
1.82451e-41
9.28664e-12
2.46885e-14
7.90334e-80
1.74671e-44
4.78059e-43
3.18917e-49
1.77725e-76
2.18289e-15
-9.89612e-76
2.15135e-136
7.2516e-138
0.0172653
9.38591e-09
3.79448e-05
1.11275e-06
-1.08888e-36
2.11814e-21
1.16381e-46
3.29939e-20
3.53444e-137
2.34701
-4.75938e-112
1.96929e-06
4.76164e-10
-1.57649e-141
-2.63427e-26
3.97245e-09
2.65668e-06
9.08787e-45
4.81645e-28
7.03065e-139
-1.27299e-229
1.72168e-15
8.36177e-205
9.15525e-183
8.16274e-18
3.73654e-112
-1.46488e-69
-3.01843e-145
-1.11599e-94
1.47456e-15
10.8668
3.462e-110
-1.23498e-116
6.05641e-09
-1.27303e-39
2.42172e-11
3.98733e-26
7.0417e-27
-1.01267e-115
3.13611e-40
1.21809e-18
1.43442e-17
-2.04114e-31
-1.37698e-161
1.68231e-08
1.11936e-32
3.25316e-20
-9.9028e-88
2.16472e-143
3.05163e-17
5.25675e-108
-1.32454e-198
5.23679e-24
1.10838e-08
-1.58079e-180
5.92221e-23
8.26949e-50
2.4831e-124
-3.82728e-79
-1.34799e-122
4.98891e-24
5.07463e-137
3.94696e-145
1.14395e-48
1.65818e-24
-7.61668e-42
-2.64995e-31
9.87549
5.16998e-111
6.47931e-64
0.226235
2.796e-35
-4.18021e-124
6.11479e-34
0.000209691
6.17391e-187
-2.17022e-116
1.18452e-199
1.86026e-27
4.33989e-15
5.8487e-52
3.89147e-212
-4.30243e-83
8.03823e-71
-2.29318e-96
1.06578e-09
-5.03636e-110
-2.10644e-210
1.17891e-206
7.13074e-30
1.4582e-45
1.22535e-05
-1.06195e-86
-7.33819e-51
6.54516e-35
1.58981e-16
-6.13055e-158
4.21823e-25
1.83428e-190
4.81506e-182
9.8553e-210
2.55364e-10
-1.87578e-115
1.35698e-25
7.77407e-26
2.02633e-28
1.16268e-17
2.88213e-29
5.59325e-14
9.29342e-27
5.10018e-108
7.61897e-32
4.64418e-51
3.074e-37
4.20795e-22
-3.10808e-115
37.703
1.57824e-17
8.2455e-20
-1.26383e-179
1.36113
5.16483e-17
6.78683e-19
-1.11371e-32
5.57184e-09
-8.64042e-66
-7.44551e-108
-2.78487e-96
3.57605e-100
2.16618e-94
5.32815e-19
1.06503e-22
-1.06433e-121
2.8267e-27
-6.88165e-98
-6.19365e-94
6.18311e-57
-1.06877e-48
-5.00064e-76
1.31789e-58
-4.13806e-47
1.1006e-28
4.56515e-27
5.0606e-52
-1.0635e-193
-3.24324e-92
-1.83424e-107
3.05596e-11
1.4406e-159
-1.71603e-118
2.87968e-27
1.05652
-3.14861e-137
1.95955e-05
-1.67937e-141
1.74267e-108
6.36885e-47
4.07917e-31
1.48523e-36
1.1875e-155
1.92247e-21
1.27978e-23
6.77268e-12
3.02151e-180
5.36918e-28
8.85166e-45
1.3075e-61
3.6243e-208
-3.18142e-250
-3.04535e-31
3.15136e-45
6.82702e-66
46.5736
1.33538e-24
1.39204e-34
-7.61395e-26
1.41677e-49
1.67991e-11
6.85131e-110
9.22879e-53
8.89885e-82
-3.97852e-94
0.00441337
1.16724e-26
4.18958e-23
1.54576e-38
-5.83752e-151
2.30634e-20
1.22959e-19
2.31847e-06
1.00549e-92
8.43071e-35
8.83699e-05
5.65909e-05
-3.34342e-143
1.46318e-05
1.80847e-56
19.571
-1.52896e-196
2.95247e-26
3.0843e-39
-2.73358e-219
6.73203e-17
1.09599e-71
-1.00135e-82
1.04826e-11
0.000525995
6.08497e-07
-1.95591e-83
1.23229e-28
-1.2021e-196
-1.36797e-108
2.77875e-06
2.39845e-32
1.10699e-85
1.02297e-20
-3.39507e-23
7.81286e-30
8.76581e-44
8.69094e-41
8.97281e-26
0.00148321
2.18672e-149
6.49397e-43
9.39322e-53
3.30352e-29
1.35644e-07
1.52242e-25
4.91766e-35
7.38985e-74
-6.8678e-200
8.95289e-28
1.5487e-33
8.41314e-24
-1.45327e-154
3.29098e-62
1.52046e-28
8.34309e-27
-4.67597e-25
4.24816e-22
1.64249e-79
9.67389e-32
-5.39553e-117
1.69261e-15
5.3794e-58
5.3657e-27
1.10995e-66
3.75139e-82
6.37999e-26
-2.71746e-63
-2.89451e-71
1.43213e-87
6.73514e-151
9.55e-35
-7.68733e-54
2.10645e-59
9.6649
0.00721121
-2.49447e-119
2.47339e-87
1.16163e-42
1.91766e-44
2.04757e-212
1.86284e-31
-5.52066e-38
5.56811e-32
-5.07397e-197
3.90683e-14
1.95685e-21
1.62966e-16
1.69656e-31
-2.74942e-180
2.97196e-100
1.97227e-67
2.02046e-31
3.62064e-09
13.6333
-3.17957e-146
3.98888e-71
-1.46236e-77
1.51542e-07
0.00029266
8.95325e-07
6.63503e-55
1.52157e-24
-3.48544e-195
1.25928e-41
-2.65064e-55
-1.66762e-144
-2.70275e-23
3.85621e-45
1.04047e-37
2.61767e-23
-1.16599e-75
4.17983e-45
3.92765e-34
-1.06099e-181
-1.26512e-274
1.459e-46
-6.69318e-70
1.28771e-08
1.10775e-53
-1.06486e-23
6.98174e-14
-3.43361e-43
-7.56279e-146
-1.97702e-62
3.4936e-22
7.35548e-150
0.088186
0.0149959
-1.91713e-121
9.94041e-191
-3.82454e-112
2.12377e-149
-8.23937e-221
2.18225e-64
1.95531e-72
-4.29657e-34
2.07891e-44
4.06406e-33
-2.09161e-51
3.35891e-06
7.65981e-23
9.98887e-34
1.16402e-45
4.57222e-56
2.46191e-37
-3.43822e-181
-1.56799e-78
3.20134e-74
-3.24525e-33
-4.71228e-27
8.9964e-10
-1.11524e-223
-4.7588e-28
1.47303e-40
1.86277e-53
9.88411e-24
-1.29739e-42
7.19302e-26
0.0015713
1.58928e-41
4.20893e-19
4.33598e-55
2.08417e-94
1.07396e-43
2.77071e-36
-1.30312e-151
7.86983e-47
0.0128675
-1e-82
0.000111175
-4.04588e-144
5.18645e-36
-5.63997e-97
8.86527e-81
1.59175e-31
-1.47416e-21
2.11453e-23
3.88619e-77
2.91184e-49
8.64838e-54
9.83842e-19
4.36064e-16
-1.81189e-48
2.07751e-10
-1.41403e-219
1.04872e-43
7.11288
4.71482e-15
-1.28556e-77
0.236312
1.96587e-21
-8.59603e-73
3.81012e-168
4.67505e-11
1.58899e-36
3.02145e-55
7.12953e-39
1.78739e-158
8.13802e-25
1.39396e-85
1.84585e-15
2.49866e-38
2.30691e-34
-2.70569e-31
-3.45004e-268
-1.32276e-110
2.0553e-56
-3.83145e-94
-4.86632e-97
1.15407e-59
1.07634e-80
4.8589e-69
-5.17803e-26
3.7415e-29
-1.1675e-207
1.45024e-17
-2.51573e-110
-1.63646e-180
-8.2718e-29
-2.12271e-138
1.30865e-54
1.20567e-55
-2.46509e-153
-2.79688e-149
-9.96023e-89
1.167e-28
2.77551e-65
5.69017e-34
4.87941e-39
-8.78155e-28
2.02822e-27
4.52239e-56
6.66721e-47
9.9426e-41
-1.3892e-238
-5.48011e-62
5.9641e-83
3.96241e-57
0.0766902
5.23949e-31
-2.21361e-75
1.11201e-45
-1.34489e-67
1.88662e-73
-1.6057e-79
1.05692e-66
9.7934e-76
-3.72675e-34
2.82366e-41
-2.92606e-182
8.06892e-30
-7.36562e-53
8.10338e-28
-3.92164e-169
-2.18817e-29
2.17455e-05
-1.73825e-104
-2.97983e-42
3.8451e-21
-3.81904e-125
6.16136e-28
7.46077e-15
4.04934e-39
-9.42608e-40
1.75783e-16
2.56927e-46
-1.19985e-53
3.59257e-43
1.60017e-27
4.34435e-135
2.00472e-80
-6.27393e-228
9.25477e-109
-1.25738e-168
4.46257e-47
4.4323e-43
1.42494e-28
1.50115e-44
10.2614
-2.35293e-21
23.2247
9.51974e-40
2.0939e-10
5.87486
5.96592e-17
18.9183
4.58953e-78
5.67669e-47
2.81154e-54
8.39702e-59
8.77621e-49
4.66805e-111
8.90363e-52
-3.28034e-98
-9.17209e-171
-4.61306e-55
2.05991
1.976e-49
9.52459e-27
1.02691e-51
-2.79627e-90
8.02206e-42
1.72075e-43
-5.2808e-113
7.77555e-49
6.03597e-89
1.4998e-25
9.03257e-42
8.52064e-44
-6.92116e-45
0.0456518
1.7706e-10
1.23635e-25
1.76185e-56
62.9301
4.81095e-51
-6.89379e-58
1.24417e-30
-1.19539e-30
-4.33277e-63
9.59096e-19
1.48508e-147
-3.05201e-39
-5.95395e-29
1.10438e-45
1.065e-47
2.81665e-80
8.53456e-46
-9.68667e-36
2.40116e-76
1.76747e-30
5.72588e-53
2.81881e-68
-7.14617e-146
1.12605e-59
5.51134e-43
-2.03368e-86
1.41813e-55
3.84046e-68
-6.97129e-113
-2.14803e-35
3.87967e-87
9.27235e-17
4.80922e-49
-4.87257e-68
-3.76469e-154
7.09349e-106
1.39495e-18
2.75181e-45
4.63162e-210
3.24066e-48
5.00225
1.39555e-27
2.05233e-82
4.48512e-56
0.0282936
0.427103
28.7104
1.34856e-96
1.76135e-98
-1.70308e-111
2.81164e-67
4.52531e-32
8.83475e-05
0.00178547
8.46359e-14
1.16041e-24
2.42098e-84
5.03645e-165
5.29034e-162
-9.37617e-29
-1.17652e-80
3.03351e-27
-1.13141e-98
6.83748e-08
3.20731e-94
9.88957e-48
1.32418e-12
-1.84636e-44
2.64568e-23
-5.5126e-116
1.03535e-47
-1.10256e-178
4.97754e-20
3.24188e-25
3.45357e-75
-2.52662e-170
1.38106e-72
-4.29416e-26
2.85933e-113
-1.49179e-47
0.023911
-1.29865e-191
-1.52389e-73
-1.58587e-40
-5.62024e-41
6.44726e-51
6.67716e-125
-2.95572e-112
1.34838e-110
-8.85169e-214
-1.09236e-161
-2.02861e-68
9.81097e-33
-1.75596e-179
3.9539e-79
-4.42318e-120
148.628
-9.86697e-30
5.70234e-109
-1.62007e-225
4.00827e-27
3.72428e-50
1.39997e-22
-3.70169e-50
2.00145e-50
8.54469e-173
-4.70215e-110
2.27004e-19
3.29499e-236
7.89009e-52
3.62789e-30
1.81127e-54
8.88972e-157
1.91722e-45
-2.03012e-211
-2.91298e-65
-1.60071e-67
1.38048e-111
8.00659e-10
1.27376e-59
-1.33686e-72