/*--------------------------------*- C++ -*----------------------------------*\
  =========                 |
  \\      /  F ield         | OpenFOAM: The Open Source CFD Toolbox
   \\    /   O peration     | Website:  https://openfoam.org
    \\  /    A nd           | Version:  7
     \\/     M anipulation  |
\*---------------------------------------------------------------------------*/
FoamFile
{
    version     2.0;
    format      ascii;
    class       volVectorField;
    location    "0.642";
    object      U;
}
// * * * * * * * * * * * * * * * * * * * * * * * * * * * * * * * * * * * * * //

dimensions      [0 1 -1 0 0 0 0];

internalField   nonuniform List<vector> 
12359
(
(0.982341 0.000961468 2.52945e-16)
(0.969491 -0.000696099 -3.0771e-17)
(0.999967 -2.16595e-06 -2.74992e-17)
(0.929401 -0.0012752 -6.64463e-20)
(0.976261 -0.00148521 7.66147e-17)
(0.875085 -0.00501507 5.42607e-17)
(0.840342 0.000971396 -4.15908e-17)
(0.856688 0.00160818 -1.60856e-17)
(0.788187 0.0152628 -2.28939e-17)
(0.898496 -0.00193767 5.06815e-17)
(0.819264 0.00707252 -1.44476e-16)
(0.735837 0.0224434 4.47788e-17)
(0.327412 0.0728696 -5.20938e-17)
(0.924773 0.000763583 3.33443e-17)
(0.936481 -0.00174177 -8.42915e-17)
(0.518276 0.00766339 -4.64362e-17)
(0.400963 0.0220091 -3.80778e-17)
(0.994557 0.000103322 -5.90045e-17)
(0.995251 6.77377e-05 -9.25302e-17)
(0.954757 -0.0015307 -3.19093e-17)
(0.92035 0.000279694 1.38637e-17)
(0.763474 0.0258171 1.01307e-16)
(0.961051 -0.00107763 -1.61062e-16)
(0.949542 0.00101299 3.18601e-17)
(0.96633 -0.000336401 -7.91385e-17)
(0.958363 -0.00135251 -5.35834e-17)
(0.998401 -3.47467e-05 -1.91345e-17)
(0.998504 -4.79966e-05 -2.85054e-17)
(0.995693 -9.57728e-06 2.39326e-17)
(0.997795 -3.60234e-05 -4.68584e-17)
(0.997347 2.27398e-05 -1.4598e-17)
(0.999351 -8.67537e-06 -1.47445e-17)
(0.999767 -1.61163e-05 -4.05546e-17)
(0.998053 -9.91955e-05 -3.25499e-17)
(0.999928 5.98619e-07 -4.40112e-18)
(0.997085 -4.56312e-05 4.50299e-17)
(0.988663 -0.00027724 -3.17474e-17)
(0.983148 -1.16384e-05 1.07221e-16)
(0.979627 -0.000981103 2.4595e-16)
(0.985937 -0.000264038 -5.41517e-17)
(0.971872 -0.00124287 -1.11562e-16)
(0.984334 -0.000323319 -1.41458e-16)
(0.991557 0.000156587 -5.55745e-17)
(0.992399 -0.000305782 1.28295e-16)
(0.996489 -0.000161067 4.93314e-18)
(0.996131 -0.000120896 5.31617e-17)
(0.996819 -4.40442e-05 6.03473e-17)
(0.997511 -4.89401e-05 -7.56487e-17)
(0.995498 9.9029e-05 -1.24476e-16)
(0.998252 -3.7261e-05 -2.42274e-17)
(0.998739 -5.28138e-05 -2.3104e-17)
(0.998947 -5.45273e-05 -1.5484e-17)
(0.999461 3.75253e-05 -3.53211e-17)
(0.99414 -0.000229978 9.53262e-17)
(0.999523 1.76893e-05 5.98395e-17)
(0.999734 -1.72527e-05 -2.93827e-17)
(0.993044 -5.04108e-06 -3.99921e-17)
(0.999751 3.28034e-05 2.9527e-17)
(0.999818 -3.30821e-05 5.53049e-18)
(0.999922 1.18815e-05 1.29377e-17)
(0.999692 1.24252e-05 -6.27619e-18)
(0.999917 -2.59709e-06 -6.22468e-17)
(0.998951 -2.82068e-05 -2.42893e-17)
(0.210773 0.0885188 -9.64421e-16)
(0.993458 -9.90216e-05 -2.64567e-17)
(0.912266 0.000314556 1.48091e-17)
(0.989824 9.58802e-05 1.08921e-16)
(0.999051 -5.55323e-05 -1.36752e-17)
(0.987615 -0.000462452 -7.17839e-17)
(0.622521 0.0198141 8.86218e-18)
(-0.0329354 -0.0572808 5.69433e-15)
(0.973747 -0.00111603 9.33546e-17)
(0.999976 -1.99154e-05 -3.05453e-17)
(0.98685 -0.000325472 1.32414e-16)
(0.941455 -0.00196257 -1.24599e-16)
(0.999859 -2.73492e-05 4.17304e-17)
(0.999451 -7.26098e-06 6.48745e-18)
(0.999975 -7.18003e-06 6.96282e-17)
(0.990103 -0.000291367 -5.65494e-18)
(0.660514 0.00310406 2.67348e-16)
(0.926101 0.0560068 -7.32748e-17)
(1.00363 0.00265462 -9.10669e-18)
(1.00002 -1.16645e-05 4.4489e-18)
(0.99837 0.0120182 1.38452e-18)
(1.09844 0.142446 -2.46645e-18)
(1.02199 0.000601953 -6.70345e-18)
(1.0039 0.00250409 1.32841e-17)
(1.0014 5.2656e-05 -9.86042e-18)
(1.1158 0.0601464 1.47495e-17)
(1.09468 0.14969 2.40188e-17)
(0.999977 0.00011647 3.72435e-17)
(0.23072 0.157168 -5.36292e-16)
(0.999997 -3.82879e-06 -1.2811e-17)
(0.999613 0.0059985 1.0314e-18)
(0.999296 0.0108524 4.68325e-18)
(1.03763 -0.00091462 5.8572e-19)
(1.0001 0.00502189 1.4016e-18)
(0.999404 0.00619924 -1.35316e-17)
(0.990282 0.0295907 1.0141e-17)
(0.994684 0.0186136 1.79107e-17)
(0.942892 0.076787 3.19469e-17)
(1 2.12581e-05 6.61542e-18)
(1.02255 0.000455833 -9.31819e-19)
(1.24972 0.0907885 -1.09581e-17)
(1.0047 0.00109893 2.60888e-18)
(1.03288 0.0211253 -3.80757e-18)
(1.00027 -3.00209e-05 -3.65915e-19)
(1.09654 0.14776 1.08542e-17)
(1.01804 -0.00184177 -2.2791e-18)
(1.03343 0.0201002 -9.05207e-18)
(1.00012 0.00507288 -6.82052e-18)
(1.00348 0.00277094 -4.27008e-18)
(0.937483 0.0449875 4.37697e-17)
(0.955007 0.0726064 -3.9817e-17)
(0.99899 0.0103038 -4.33568e-18)
(1.00329 -0.000627567 4.4552e-18)
(0.95682 0.081851 8.82237e-17)
(1.00445 0.00231608 9.14632e-18)
(1.12244 0.041356 2.26437e-17)
(1 1.8155e-05 -6.36355e-20)
(0.99999 0.0048055 2.08536e-18)
(0.868181 0.0239627 1.69807e-16)
(1.00172 0.000151716 4.04447e-18)
(1.03746 0.00586162 -2.86195e-18)
(1.00476 0.00218947 -8.13434e-18)
(1.0033 0.000563847 -1.33762e-18)
(1.00999 0.0901454 8.86904e-18)
(0.998033 0.0124458 1.49281e-18)
(0.999995 8.91792e-06 1.49415e-16)
(1.00475 0.00204455 1.04889e-17)
(1.00271 -0.000426672 -1.63109e-17)
(1.05066 0.0173384 3.60245e-18)
(1.05171 0.0169549 1.76965e-17)
(1.05141 0.016052 1.9305e-17)
(1.00023 9.059e-05 3.81799e-18)
(1.03622 0.00577331 1.03034e-18)
(1.00292 0.000122146 2.33872e-17)
(1.03615 0.00612126 3.63506e-18)
(1.00001 8.6843e-05 -4.86231e-19)
(1.01059 0.0909025 5.68876e-18)
(1 2.70421e-05 -1.01469e-18)
(0.982342 0.00266329 7.77746e-17)
(1.03083 0.0124806 2.04905e-18)
(1.00027 3.20712e-05 5.08314e-18)
(1.03959 0.0376225 -4.64501e-18)
(0.901158 0.0266318 -1.34534e-16)
(1.00002 1.28692e-05 -1.35444e-18)
(1.09216 0.118622 -8.06154e-18)
(1.00511 0.00122922 1.09277e-17)
(0.915141 0.0632957 1.32058e-16)
(1.04009 -0.000293919 -1.17456e-18)
(0.999999 2.8046e-05 4.00137e-18)
(1.03093 0.0133048 -1.18708e-18)
(1.0018 0.000119733 4.58256e-18)
(1 -7.28688e-06 -5.90353e-19)
(0.587979 1.3172 -6.83958e-17)
(0.934907 0.0904122 -1.54059e-17)
(1.05036 0.0177426 1.03268e-19)
(1.00006 0.00528803 -2.32229e-18)
(0.999116 0.000592045 -8.75753e-18)
(1.00444 0.0436677 -1.23064e-17)
(0.999073 0.000675923 -1.34681e-17)
(1.03863 0.00555117 3.16819e-18)
(1.03321 0.0111487 7.2337e-19)
(1.00005 -1.10354e-06 3.01297e-18)
(1.00332 0.000305478 1.56793e-17)
(1.00258 0.044435 -1.58744e-17)
(0.869856 0.0139918 -5.97e-17)
(1.03187 0.0106763 9.59848e-19)
(1.12051 0.0593843 2.36554e-17)
(0.999974 7.75889e-06 -4.64681e-17)
(0.999992 3.35315e-05 -9.00098e-17)
(1.03295 0.00860656 7.57871e-19)
(0.971792 0.00322429 -1.29299e-16)
(1.00495 0.00109842 -2.19852e-18)
(1.00603 0.089733 -1.9621e-18)
(0.99643 0.000434894 -1.17628e-16)
(0.996521 0.000860892 4.97985e-18)
(0.935927 0.0497042 -1.04976e-16)
(1.00624 0.0852938 -1.87051e-17)
(0.938392 0.00568467 -1.87576e-16)
(1.00001 4.43088e-05 2.71844e-18)
(0.999975 1.33697e-05 1.39717e-17)
(1.00398 0.00271569 -9.52411e-19)
(0.992066 0.0275472 -3.40346e-17)
(0.810235 0.100042 4.76949e-16)
(1.00426 0.00593633 -1.52443e-18)
(1.0003 0.010574 -1.13405e-17)
(1.0377 0.00271152 2.54419e-19)
(1.00479 0.00558896 1.20234e-17)
(0.999361 0.00992214 -1.79285e-17)
(1.03422 -0.00167945 1.16643e-18)
(1.03272 0.0019164 3.12416e-19)
(1.00171 0.00044704 4.17496e-18)
(1.034 0.0189102 3.59487e-18)
(1.15227 0.077453 3.04858e-17)
(1.01497 0.0121343 -1.28991e-17)
(1.0036 0.00572061 1.55203e-18)
(1.03065 0.0143588 1.59922e-18)
(1.00445 0.00241799 -1.78433e-18)
(0.893362 0.026852 -3.18281e-17)
(1.0371 0.00237109 4.97978e-19)
(0.993376 0.0187046 2.03465e-17)
(1.03346 0.0190003 -5.57682e-18)
(1.03588 0.0358175 5.75142e-20)
(1.00002 2.75859e-05 -7.09919e-18)
(1.03725 0.0360499 3.48209e-18)
(0.993071 0.0175349 2.18011e-17)
(1.04035 0.00625632 1.55809e-18)
(1.00562 0.00394405 1.05373e-18)
(1.00001 2.73913e-05 -1.08709e-20)
(1.04561 0.0127511 -1.68105e-19)
(1.04501 0.0135876 -2.21776e-18)
(1.08407 0.113504 -1.17373e-17)
(0.832411 0.0890052 2.4461e-16)
(0.999964 4.0783e-05 -3.75734e-17)
(1.00409 0.00582429 5.62532e-18)
(0.998873 0.0101691 1.59236e-17)
(1.00407 0.00568889 8.22939e-18)
(0.982293 0.00109668 1.07902e-17)
(0.946805 0.0602223 -1.22869e-17)
(1.00539 0.00336828 -2.42576e-18)
(1.03724 0.00536248 -5.50407e-18)
(0.419635 0.329855 -8.82431e-17)
(1.00482 0.00260801 -1.70391e-17)
(1.00001 5.27188e-05 9.94921e-19)
(0.981292 0.000903071 4.47088e-16)
(1.01741 0.000138584 -4.73184e-18)
(1.0016 0.0850501 -2.12547e-17)
(1.00287 0.00635146 1.70037e-17)
(1.00298 0.00610499 8.78573e-18)
(1.00003 1.43245e-05 -1.32503e-18)
(1.03849 0.0382279 7.20986e-19)
(0.99266 0.0234358 -3.72281e-17)
(1.0006 0.00987463 7.07876e-19)
(0.994781 0.0209283 2.4492e-17)
(1.00001 2.35727e-05 -1.01215e-18)
(1.0316 0.0146932 -4.06654e-18)
(1.00041 0.0101522 -1.0639e-17)
(0.640459 0.249017 -8.02522e-17)
(1.0001 1.85521e-05 7.30235e-19)
(1.02374 -0.000318691 -3.88155e-18)
(1.00032 0.0080183 -1.46721e-17)
(0.989348 0.155987 7.91377e-18)
(1.00376 0.0483889 -1.02048e-17)
(1.09498 0.119557 -1.16858e-17)
(0.999906 5.38652e-05 2.07593e-17)
(1.0401 0.0052665 4.95763e-18)
(1.00442 0.00103312 -4.99591e-18)
(1.034 -2.09671e-05 -6.89444e-19)
(1.0427 0.0103689 4.6178e-18)
(0.98565 0.000259456 8.00664e-17)
(0.996917 0.000672542 -5.29656e-17)
(1.00222 0.0062909 1.33122e-18)
(0.486098 0.439996 2.53432e-17)
(1.24813 0.149408 5.58833e-17)
(0.999991 7.99956e-06 1.84299e-18)
(1.00556 0.00298845 7.57833e-18)
(0.408721 0.297516 9.9861e-17)
(0.608523 -0.00348407 6.24492e-17)
(0.993451 0.0186144 2.05654e-18)
(1.0039 0.0468207 -1.72361e-17)
(1.00179 0.0812195 7.55001e-19)
(1.03429 0.017528 1.32762e-18)
(0.974956 0.000287371 8.61441e-17)
(1.3616 0.373023 9.06771e-18)
(1.11528 0.0427772 2.82326e-17)
(1.00492 0.0479933 -1.71227e-17)
(1.00513 0.00267293 2.33217e-18)
(1.03705 0.00594408 7.84252e-18)
(1.03227 0.00947078 -2.67294e-18)
(0.987956 0.0264703 -6.37125e-18)
(1.03179 0.0113709 9.36757e-20)
(1.00233 0.00622146 7.46841e-18)
(1.00548 0.00309447 -2.77113e-18)
(1.00007 -1.5891e-05 -1.3915e-18)
(1.00533 0.00290906 6.5581e-18)
(1.168 0.0745719 -1.37395e-17)
(1.0057 0.0497268 -6.4279e-18)
(1.00044 0.000143772 7.66841e-19)
(1 5.20007e-05 -2.05116e-17)
(1.03397 0.0176251 3.62075e-18)
(1.00784 0.000990538 -3.17922e-18)
(0.991211 0.000587194 2.63942e-16)
(1.02317 0.00166338 -3.33484e-18)
(1.00002 1.99829e-05 -2.50468e-18)
(1.001 0.0763892 1.29585e-17)
(0.999999 1.79331e-05 -2.25589e-17)
(1 -1.12539e-05 3.54483e-18)
(0.999363 0.000100389 5.1363e-17)
(1.03791 0.00437149 5.72874e-19)
(1.00406 0.0023217 -6.70103e-18)
(1.42441 0.452745 -2.36468e-17)
(1.00027 6.90771e-05 4.21975e-18)
(1.00034 -1.07943e-05 -8.86025e-18)
(1.0214 0.000871376 -1.29666e-18)
(1.00428 -7.45289e-05 2.4046e-18)
(0.9465 0.0668972 1.5419e-17)
(0.999199 0.00922399 2.14126e-17)
(0.998852 0.000211528 5.7702e-17)
(0.999983 3.49401e-05 3.19853e-18)
(1.16309 0.061527 -1.09085e-17)
(1.00529 0.0769905 -1.27206e-17)
(0.999979 4.47527e-05 -7.56888e-19)
(1.00358 0.0057164 -3.92405e-19)
(0.999692 0.00838436 -1.4458e-17)
(1.00479 0.000638195 -1.32475e-17)
(1.00344 0.00035965 1.47125e-18)
(1.00273 -0.000482342 -1.41931e-18)
(1.00429 0.000483598 2.9712e-18)
(0.995447 0.00125129 1.13923e-16)
(0.841026 0.0577026 1.63728e-16)
(1.00489 -8.62061e-05 -6.4416e-19)
(0.997613 7.7083e-05 1.91986e-17)
(0.98637 0.000781058 3.9217e-16)
(1.02526 0.0260314 5.8447e-18)
(1.10458 0.0376657 1.56284e-17)
(1.00549 0.00107021 3.72907e-18)
(0.9902 0.0254402 1.701e-17)
(0.579663 0.0903998 -2.71133e-16)
(0.999991 2.09162e-05 -2.9762e-18)
(1.02737 0.0119747 -4.14893e-18)
(1.00051 6.63114e-05 -1.22483e-20)
(1.01431 0.0125933 -8.13496e-18)
(1.0003 5.43209e-05 -3.96093e-18)
(1.00494 0.00118395 1.00588e-18)
(0.811572 0.0428237 1.61042e-16)
(1.02786 0.0138087 -1.92289e-18)
(0.807144 0.0897248 -3.29353e-16)
(0.991303 0.00047556 -7.04601e-17)
(1.00077 0.00803644 -6.08739e-18)
(1.03423 0.000605109 3.41758e-19)
(1.03706 0.00178733 -3.76732e-19)
(1.00075 0.00775045 -5.78315e-18)
(1.03431 0.00107335 -1.62002e-18)
(1.03342 -0.000856141 2.34041e-19)
(1.00076 0.00011668 -3.95516e-18)
(0.999492 0.000634878 1.86017e-17)
(0.999462 0.000600498 2.29109e-17)
(0.99944 0.00060388 8.3447e-18)
(0.999426 0.000525423 -1.43958e-17)
(0.705471 0.288472 -9.08321e-17)
(1.00002 5.06796e-05 -4.54872e-18)
(0.941487 0.0788378 -2.36973e-17)
(1.03996 0.00325647 2.68499e-18)
(0.993503 0.0253921 1.43223e-17)
(1.03281 0.0132553 -5.89115e-18)
(1.02787 0.0144035 5.11789e-18)
(1.02114 0.00122821 -6.72708e-19)
(1.01336 0.0119863 -7.11082e-19)
(1.02837 0.0136915 -1.74747e-18)
(1.01342 0.0123313 5.08949e-18)
(0.991451 0.0266701 3.26328e-17)
(1.0273 0.0275523 3.52483e-18)
(1.02614 0.0317622 2.33991e-17)
(0.956292 0.0494113 1.33636e-17)
(0.981114 0.00192846 1.11923e-16)
(1.03234 0.076488 4.77992e-18)
(0.982596 0.0019225 8.97967e-17)
(0.983711 0.00158729 4.53106e-16)
(1.02979 0.0145934 9.71553e-18)
(0.941205 0.0947617 1.8033e-17)
(1.00311 0.00266396 -3.18209e-20)
(0.999621 0.000119442 5.73885e-17)
(1.01602 0.0110585 -4.1628e-18)
(0.999653 8.34173e-05 3.57919e-17)
(1.00332 0.00304002 6.51923e-18)
(0.787225 0.0222728 -2.74948e-17)
(0.194622 0.179465 -3.43088e-16)
(1.00323 0.00279315 -3.03863e-18)
(0.999983 -9.88084e-06 3.91341e-18)
(1.00022 3.94579e-05 3.59478e-18)
(0.999988 3.03954e-05 -1.20626e-17)
(1.02843 0.0126537 -2.31164e-18)
(1.00001 3.41959e-05 -2.36595e-18)
(0.999996 2.01291e-05 3.33645e-18)
(1.1213 0.0615038 2.13413e-17)
(1.03292 0.0106575 -3.15955e-18)
(1.08653 0.170573 1.73559e-17)
(1.00143 0.00310768 -5.50551e-19)
(1.03461 0.0126632 -3.84541e-18)
(1.00661 0.00043326 -2.78554e-18)
(1.00026 0.00881789 -1.22381e-17)
(1.03184 0.0275709 -6.96174e-18)
(1.01637 0.0107698 -8.327e-18)
(0.934566 0.00263775 2.77671e-16)
(1.01595 0.00980852 -6.97273e-18)
(1.00287 0.00249557 -5.21266e-18)
(1.0005 0.000149613 -2.67437e-18)
(1.03317 0.00996464 2.07703e-18)
(1.03552 0.0124086 -2.09615e-18)
(1.00532 0.0012138 2.93958e-18)
(0.717318 0.0267642 2.69586e-16)
(1.03181 0.0273161 1.31379e-17)
(1.03789 -0.000388009 -2.62259e-19)
(0.998671 0.0341794 -7.21109e-18)
(1.00146 0.0423562 -3.92144e-18)
(0.999996 0.000110253 -2.49591e-17)
(0.432544 0.552996 -7.18933e-17)
(1.03492 0.0802601 2.12671e-17)
(1.00124 0.00355297 -9.71356e-18)
(0.971641 0.176703 -9.48541e-18)
(0.984582 0.000835592 2.84879e-16)
(0.99998 6.37062e-05 3.03752e-18)
(1.00001 3.23532e-05 1.21483e-18)
(0.999994 4.40001e-05 -1.91925e-18)
(1.09533 0.164385 3.22991e-17)
(0.947052 0.0960094 3.10825e-17)
(0.989184 0.0280623 -2.15746e-17)
(1.02767 0.0106118 3.27042e-18)
(1.0421 0.00105978 -2.53322e-18)
(0.999763 0.0110186 5.63787e-18)
(0.943772 0.00868769 -8.81324e-17)
(0.999248 0.0345261 3.632e-18)
(1.04702 0.014765 7.8719e-18)
(1.10657 0.0373777 1.73072e-17)
(0.713455 0.0430648 2.7102e-16)
(0.995015 0.0260005 4.92412e-18)
(0.954649 0.0514954 -3.2562e-17)
(1.01871 -0.00031467 -1.16435e-19)
(1.02599 0.0358706 -1.90608e-18)
(1.01165 0.0107974 3.24126e-18)
(1.01654 0.0122007 -3.50327e-18)
(0.998071 0.000222168 3.18259e-16)
(1.01227 0.0109903 -3.60747e-18)
(1.02991 0.0111844 -6.21318e-18)
(0.999996 1.83028e-05 -1.16215e-18)
(0.809346 -0.0156305 4.7733e-17)
(0.990514 0.00119928 7.04462e-17)
(1.05351 0.00998194 -1.0984e-17)
(1.03619 0.010006 1.32112e-18)
(0.993763 0.00105035 -8.64302e-17)
(0.951344 0.0597543 2.326e-17)
(1.16955 0.25756 2.03711e-17)
(1.02939 0.0150845 -1.04751e-18)
(1.00853 0.0157405 2.0155e-17)
(1.03749 0.00319974 1.01409e-18)
(1.03595 0.00984366 4.71245e-18)
(1.02887 0.0315075 5.35668e-18)
(1.00443 0.00262774 -6.77928e-18)
(1.00001 4.07828e-06 -3.05555e-18)
(0.995132 0.0696618 5.51121e-19)
(1.0003 0.000146848 -4.01293e-18)
(1.05111 0.0180814 1.0629e-18)
(1.00256 4.45099e-06 1.10368e-17)
(0.965783 0.0028525 -6.88462e-17)
(0.961976 0.0404053 6.20686e-17)
(1.01077 0.00116474 -4.83301e-18)
(1.09897 0.112007 2.20635e-17)
(0.944528 0.0653043 -4.53716e-17)
(0.994253 0.017334 -1.59238e-18)
(1.00088 0.00373007 -4.98604e-18)
(0.593584 0.0854742 -4.8261e-16)
(1.00059 -0.000101827 -4.98568e-19)
(1.0014 0.00307722 1.163e-17)
(1.04283 0.0404151 -1.41462e-17)
(0.999986 2.67052e-05 -1.67402e-17)
(1.0012 0.00395439 -1.09478e-18)
(1.00152 0.0026822 4.38979e-18)
(0.737597 0.22771 -2.53217e-17)
(0.664926 0.485418 -1.00852e-16)
(0.998422 0.0118016 -4.6461e-18)
(1.00158 0.000146835 -3.71431e-18)
(0.937537 0.0368969 8.24547e-17)
(1.00021 0.0416681 -2.49722e-17)
(1.02746 0.0107643 3.82661e-18)
(1.03111 0.0148257 -3.75501e-18)
(1.03166 0.0107854 -2.61302e-19)
(1.00088 -6.21373e-05 -4.60495e-18)
(0.999997 4.33566e-05 -1.88039e-18)
(0.999948 0.0367868 -6.08984e-18)
(0.999989 1.37297e-05 -6.40955e-18)
(0.962756 0.0409851 -2.66049e-17)
(1.0274 0.0111917 1.7638e-18)
(1.02603 0.0342099 -1.11557e-17)
(0.996656 0.000698741 6.54667e-17)
(0.996794 0.0670319 5.79481e-18)
(1.04532 0.0388899 -1.37772e-17)
(0.997851 4.29345e-05 1.89076e-17)
(1.00153 0.0114048 1.672e-17)
(1.00582 0.00129412 -2.91767e-17)
(0.922905 0.0480953 -1.12647e-17)
(1.04374 0.0408747 -5.18967e-18)
(0.999981 7.30941e-05 1.08093e-17)
(1.00116 0.0380694 1.00339e-19)
(1.03327 0.00776104 4.8668e-18)
(1.01554 -0.000588907 -3.17274e-18)
(0.999897 0.0393528 -1.30716e-17)
(1.00308 0.000491996 -8.78312e-18)
(0.930045 0.0884356 7.24841e-17)
(1.02694 0.000216762 4.13255e-19)
(1.03742 0.0077835 -2.23843e-18)
(1.02747 0.0325684 6.25711e-18)
(1.00085 -0.000143003 -1.3389e-19)
(1.00151 0.01192 -8.97769e-18)
(1.05398 0.0587953 -3.23737e-18)
(1.05333 0.0166006 2.33893e-19)
(1 3.13195e-05 -5.91299e-18)
(1.01108 0.0159489 -1.41381e-17)
(0.986545 0.171528 1.63913e-17)
(1.03754 0.0022406 1.19144e-18)
(0.504739 0.480363 6.2081e-17)
(1 2.67582e-05 -3.18145e-18)
(1.00236 0.000330509 6.49391e-20)
(1.00075 -8.67558e-05 -8.46782e-19)
(1.03153 0.0140507 -2.27582e-20)
(0.994264 0.0190132 -2.55447e-17)
(0.99574 0.0133521 1.95132e-17)
(1.00313 0.000264536 4.10694e-18)
(0.999288 0.0364127 -1.42813e-17)
(1.01713 0.0120698 1.71937e-18)
(0.972636 0.00360741 -8.08075e-17)
(1.00927 0.0014468 -1.74776e-18)
(1.08365 0.089156 2.72169e-19)
(1.00045 7.4256e-05 4.60943e-18)
(1.08863 0.10323 9.47182e-18)
(1.00157 -6.27143e-05 3.74422e-18)
(0.632913 0.588028 2.55564e-17)
(1.0262 -0.0025614 4.55364e-18)
(1.05181 0.061566 -6.3053e-18)
(0.999811 3.62492e-05 -9.22673e-17)
(0.996989 0.000673768 -4.73393e-17)
(1.02589 0.0273779 9.34818e-18)
(1.00385 0.00219459 -4.19487e-18)
(0.998943 0.000251883 -7.12477e-17)
(0.992313 -2.44536e-05 -1.18207e-16)
(0.994666 0.0200035 4.09919e-17)
(0.994655 0.0196159 2.28199e-17)
(0.966805 0.16211 -4.07556e-17)
(1.03331 0.0315625 -3.26958e-18)
(1.03368 0.0310213 5.14964e-19)
(1 1.10675e-05 3.2498e-18)
(1.00434 0.00201822 -2.85826e-18)
(1.02714 0.0125405 -3.3484e-18)
(1.05236 0.017282 -5.76694e-18)
(1 -3.2122e-06 2.05103e-18)
(1.00043 3.64831e-05 -4.2237e-18)
(1.03283 0.0088545 -1.51536e-18)
(1.00077 6.3259e-05 9.66468e-19)
(0.798048 0.0515804 8.92534e-18)
(1.17672 0.248966 9.45633e-19)
(1.10975 -0.0149362 6.85318e-17)
(1.00001 1.18526e-05 -3.05418e-18)
(1.00652 0.00918324 1.16176e-18)
(1.04251 0.0105864 1.21938e-18)
(0.995597 0.0144966 -1.42474e-17)
(1.00419 0.0009994 -8.47015e-18)
(0.389992 0.64921 3.95494e-16)
(1.00035 3.96896e-05 -9.51708e-18)
(0.933154 0.0793974 -6.52292e-17)
(0.959922 0.0465612 2.90264e-18)
(1.00711 0.00932975 8.71795e-18)
(1.00421 0.00106979 -7.0022e-18)
(0.998775 0.000244289 -4.68701e-17)
(1.01036 -7.66502e-05 -1.42087e-17)
(1.04038 0.00266852 2.34417e-18)
(1.01694 0.00876239 1.09455e-17)
(0.997155 0.0117985 -4.14719e-18)
(0.999996 8.37481e-06 6.14334e-19)
(0.999994 2.72304e-05 5.14672e-17)
(0.995019 0.0167498 9.3672e-18)
(0.996391 0.0013117 6.41103e-17)
(0.993161 0.0605433 2.76722e-17)
(1.03164 0.0128607 -7.29707e-19)
(0.999248 1.71566e-05 2.48685e-17)
(1.00041 0.000192873 1.37498e-18)
(1.02748 0.0290925 -7.28063e-19)
(0.803541 -0.0261524 4.68008e-17)
(0.997807 0.000215912 -1.28733e-16)
(1.04693 0.0143353 5.53847e-18)
(1.00018 -1.44932e-05 2.16374e-19)
(0.99668 0.0112504 2.42074e-17)
(0.951121 0.0817582 3.5724e-17)
(1.03887 0.00149511 1.7365e-19)
(1.04151 0.0109255 2.67017e-18)
(0.9515 0.056577 -6.51547e-17)
(1.00234 0.0190819 -5.76315e-18)
(1.04096 0.00466929 3.72376e-18)
(1 4.35828e-05 1.83034e-20)
(0.999919 1.34736e-05 2.24885e-16)
(1.03917 -0.00280899 -1.2285e-18)
(1.0106 0.00964694 6.8452e-18)
(1.00311 0.0191795 6.10491e-18)
(1.01087 0.00971058 1.90075e-18)
(0.999994 4.16624e-05 5.56272e-18)
(1.00046 0.000202334 7.12164e-19)
(1.0039 0.000541019 -1.09419e-17)
(0.999484 0.0300029 -1.26317e-17)
(1.04117 0.00711338 1.61771e-18)
(0.943485 0.0394143 -8.78273e-18)
(0.990269 0.00088781 -1.3305e-16)
(0.923962 0.0394597 8.27395e-18)
(1.03032 0.0135009 5.41639e-19)
(1.00889 0.0172843 7.75224e-18)
(0.930531 0.0455038 -1.184e-16)
(0.986026 0.02092 -3.67176e-17)
(1.05229 0.0101179 -1.04781e-17)
(1.03195 0.0118109 -5.75521e-18)
(0.985103 0.0210717 -3.33104e-17)
(0.995248 0.0574259 -1.00538e-17)
(0.999894 7.87977e-05 -8.86708e-17)
(1.01116 0.0659584 -3.4781e-17)
(1.02669 0.026396 3.34085e-18)
(1.00001 -2.28594e-05 8.05188e-19)
(0.999993 1.25023e-05 4.82972e-17)
(1.00082 3.0106e-05 5.34053e-18)
(0.999767 0.000310104 -6.54044e-18)
(1.06366 0.0688109 4.74658e-18)
(1.01064 0.0165931 -6.82263e-18)
(1.01337 -0.000493001 6.92159e-18)
(0.942524 0.0426141 5.92349e-17)
(0.992351 0.000310739 -1.52272e-16)
(0.794154 0.0211324 2.60491e-16)
(1.03687 0.00182018 -1.07508e-18)
(1.03993 0.0039277 6.94049e-19)
(1.00386 0.000456306 -5.1794e-18)
(1.04946 0.0388399 -1.15613e-18)
(1 3.97998e-05 -1.10479e-17)
(0.998288 0.0296804 8.43802e-18)
(1.00058 0.0037463 1.48143e-19)
(0.937884 0.11741 2.44958e-17)
(0.930099 0.0466754 1.4246e-17)
(1.00205 0.0162548 -4.34499e-17)
(1.01679 0.0118338 -4.45444e-18)
(0.429422 0.661692 1.12144e-16)
(1.03052 0.0129013 -3.04703e-18)
(1.04343 0.0612449 -3.47625e-19)
(1.00966 0.0124185 -1.04083e-17)
(0.979075 0.147459 -4.71007e-17)
(1.16613 0.196154 -1.04254e-17)
(1.00119 0.000257448 4.33318e-18)
(0.998287 0.00335842 -8.41261e-18)
(1 9.62763e-06 6.57895e-19)
(1.05828 0.0638449 -3.43515e-18)
(0.998452 0.00311032 2.33936e-18)
(1.01633 0.00936044 -5.29203e-19)
(1.10082 0.103506 1.91774e-17)
(1.00039 0.000158089 -5.89526e-18)
(0.970625 0.0037168 -3.32651e-16)
(0.99191 0.0516334 6.37963e-18)
(1.00659 0.0153336 7.15382e-18)
(0.997449 0.000225581 7.66429e-17)
(1.002 0.0171159 -1.89175e-17)
(0.999237 0.000872991 2.33892e-17)
(0.995322 0.0154553 -3.15737e-17)
(0.999245 0.000742144 -4.68553e-18)
(0.999261 0.000952106 -5.10979e-18)
(0.995588 0.0133701 5.90631e-18)
(1.03677 0.00653765 -2.19412e-18)
(1.03373 0.00827609 1.70735e-18)
(1.00702 0.0166945 1.54181e-17)
(0.671322 0.0364615 -6.9059e-17)
(1.03863 0.00341866 9.22153e-20)
(0.260124 0.242212 1.92061e-16)
(1.02929 0.0148683 2.41996e-18)
(1.02185 0.0005335 -3.3747e-18)
(0.995335 0.0148511 -1.46294e-18)
(1.02775 0.0140339 3.3295e-18)
(0.991752 0.0265078 -7.44872e-18)
(1.03722 0.00108115 -2.1984e-18)
(0.587101 0.373387 3.37834e-17)
(0.949183 0.035502 -5.1405e-18)
(0.992825 0.0245087 -7.60515e-18)
(1.00481 0.0225475 1.09536e-17)
(0.994902 0.000971719 -6.04765e-17)
(0.996466 0.000975817 -4.26386e-17)
(1.02641 0.0293311 7.47412e-18)
(0.999995 1.08703e-05 3.83374e-18)
(1.05094 0.00467637 -3.10116e-18)
(0.999385 5.97497e-06 -4.28257e-17)
(0.950208 0.039448 1.27385e-17)
(1.00014 0.0733479 9.69553e-18)
(1.06277 0.0621396 -1.02372e-17)
(1.03901 0.0249823 2.03232e-18)
(1.03441 0.014384 5.19036e-18)
(0.992063 0.0503836 1.13744e-17)
(1.00904 0.0129245 -1.38731e-17)
(1.03844 0.0251631 -2.84655e-18)
(0.97066 0.0300592 -2.38732e-18)
(1.04414 0.0617659 1.0399e-17)
(1.008 0.0221585 -2.90659e-18)
(1.04426 0.0393754 -1.31217e-17)
(1.00549 0.0231296 1.29489e-18)
(1 1.95879e-05 -2.29497e-19)
(0.998823 0.0253915 2.25282e-18)
(0.654752 0.0528368 1.30919e-17)
(0.973242 0.131612 -4.34306e-18)
(1.00651 0.00550922 -3.9615e-18)
(1.00005 1.84006e-05 -1.36569e-18)
(0.999141 0.000140372 -7.49998e-17)
(0.994558 0.00728065 -1.34207e-17)
(0.966449 0.00289908 -5.20007e-16)
(1.03411 0.00722077 2.60272e-18)
(1.02741 0.00288197 -5.9652e-18)
(1.00081 6.93867e-05 -5.4422e-18)
(1.00509 0.00667722 5.78423e-18)
(0.992613 0.0272732 -8.92362e-18)
(1.00619 0.00538612 -2.2019e-18)
(1.00888 0.000846897 2.96394e-18)
(1.04473 0.0345852 2.49831e-18)
(0.993713 0.00142325 8.97571e-19)
(0.991965 0.0352373 1.93332e-17)
(1.03639 0.0149549 6.3478e-18)
(1.00502 0.00635268 6.64764e-18)
(1.00809 0.00667525 -4.37603e-18)
(0.944483 0.0626554 4.52206e-17)
(1 -7.60095e-06 -9.01948e-20)
(0.993475 0.00537439 6.36174e-18)
(1.29945 0.190434 4.84947e-17)
(0.999867 7.51475e-06 -1.8038e-16)
(1.04043 0.0380523 4.53973e-18)
(0.998487 0.071027 1.83427e-17)
(1.00748 0.0064172 -1.87339e-18)
(0.960359 0.0449353 5.71796e-18)
(1.03631 0.014327 -4.39702e-18)
(0.997817 0.0255536 -9.18987e-18)
(1.02936 0.033774 -1.31283e-17)
(0.99971 0.00320242 -2.79679e-18)
(0.935688 0.0385889 -2.02911e-17)
(1.00527 0.000778233 4.86472e-18)
(1.03216 0.000638902 -6.68152e-19)
(1.03461 0.0141679 5.70736e-18)
(0.935145 0.0382158 1.96792e-17)
(0.999875 0.0032301 6.89855e-18)
(1.04044 0.00553941 1.76557e-18)
(1.05459 0.0226085 -2.31473e-18)
(0.992219 0.0347262 -1.17528e-18)
(1.00577 0.0134247 -8.18202e-18)
(1.00452 0.00293701 -6.77463e-18)
(1.01145 0.0669141 -8.18336e-18)
(0.788379 0.208613 -2.11134e-17)
(0.995635 0.00104895 5.25861e-17)
(0.999974 5.04375e-05 -1.81926e-17)
(0.993782 0.0250353 2.34736e-17)
(0.999984 6.56601e-06 1.36309e-18)
(1.15945 0.198942 3.61704e-17)
(1.00664 0.0223676 3.97563e-18)
(1.0374 0.0885412 5.62189e-18)
(1.01593 0.00730611 -3.72362e-18)
(1.02957 0.00114377 -1.16559e-18)
(0.255403 0.114305 -8.63368e-16)
(1.00642 0.0156962 -7.34303e-18)
(1.08701 0.211584 4.65706e-18)
(1.03393 0.00662256 -5.06959e-19)
(1.03635 -0.0153524 8.29963e-17)
(1.02793 0.0117929 -3.57983e-18)
(0.996682 0.0120524 3.97661e-18)
(1.00643 0.0139492 1.6674e-17)
(1.01551 -0.000679648 -2.70014e-18)
(1.09457 0.0960285 1.2028e-17)
(1.08392 0.0895824 -2.45046e-18)
(1.00144 -0.000237035 2.29042e-18)
(1.00124 0.000105508 -6.74435e-18)
(0.936269 0.0427094 1.33387e-16)
(1.00208 -1.70644e-05 7.1212e-18)
(0.685109 0.39985 -6.92357e-17)
(1.02753 0.0308401 3.42618e-18)
(0.96818 0.167023 3.49497e-17)
(1.00449 0.00299922 1.62517e-17)
(0.0568825 0.274912 -2.15894e-16)
(1.13051 0.230199 7.3989e-18)
(1.00607 0.0222157 2.36281e-18)
(0.999992 1.77401e-05 2.7978e-18)
(0.999961 0.00284198 -2.42319e-18)
(0.956089 0.0315331 -5.73574e-17)
(0.994449 0.00826882 2.05293e-17)
(0.989721 8.75621e-05 -1.41699e-16)
(0.997246 0.00954927 -1.03058e-17)
(1.03141 0.0122286 -1.66866e-18)
(0.973947 0.0296747 -4.44573e-17)
(1.06173 -0.0117681 1.60422e-17)
(0.61835 0.0442248 3.81364e-16)
(1.00088 4.19372e-05 -9.7164e-18)
(0.967058 0.0376148 -1.10343e-17)
(1.03314 0.028048 5.00264e-18)
(0.92614 0.0578298 -5.87246e-17)
(1.00459 0.0127811 -3.02097e-18)
(0.934934 0.0807253 1.66034e-17)
(1.03638 0.0087837 -1.33096e-18)
(0.952528 0.0343461 5.38313e-17)
(0.997247 0.000591849 1.24156e-16)
(1.00004 1.5869e-05 6.76528e-18)
(1.0375 0.0238808 -1.29368e-18)
(1.04029 0.0244662 3.09932e-19)
(1.027 -0.00055794 -2.69567e-18)
(0.931514 0.0397871 2.78047e-17)
(1.03515 0.0857437 1.33533e-17)
(1.02292 0.000782128 -5.5402e-18)
(0.997928 0.0242881 -3.29562e-18)
(1.00028 0.00396386 -1.32437e-17)
(1.00984 0.00835313 -1.35798e-18)
(0.774191 0.0369273 -1.41011e-17)
(1.00975 0.00864338 -3.1739e-18)
(1.03445 0.0213384 3.43685e-18)
(0.981736 0.0408159 -2.22943e-17)
(1.02675 0.0100107 7.04137e-18)
(1.01144 0.000747931 -2.46966e-17)
(0.996282 0.0113207 4.15088e-18)
(1.05216 0.0202304 1.03541e-18)
(1.01482 0.00700352 1.02965e-17)
(1.00533 0.0129787 7.5271e-18)
(1.05674 0.00430745 -1.01656e-17)
(0.991237 0.0299858 -1.44305e-17)
(1.02008 0.00108192 -3.24695e-18)
(0.8065 0.341109 1.66583e-17)
(1 2.01868e-05 -2.6841e-19)
(1.01537 0.007937 7.84939e-20)
(0.99907 0.0210084 -1.33454e-17)
(0.992465 0.0072101 6.62738e-18)
(1.00316 0.00016429 -1.3654e-17)
(0.99819 0.0241733 2.73899e-17)
(1.00001 1.85094e-06 1.67198e-19)
(1.04509 0.105474 1.85566e-18)
(1.00581 0.00103833 1.15631e-17)
(0.971337 0.00599281 -1.24788e-16)
(1.03529 0.0337824 -1.66764e-17)
(0.955387 0.0467789 3.31076e-17)
(1.01648 0.00906755 2.43426e-19)
(1.01621 0.0081918 -3.99892e-18)
(1.03701 0.0243406 1.16063e-18)
(1.129 0.0957072 4.19034e-17)
(0.999858 5.28859e-05 -1.36608e-17)
(0.992831 0.000905238 4.70397e-17)
(1.0229 0.00139953 -4.53227e-18)
(1.10699 0.207341 -1.09788e-17)
(1.04019 0.0241817 1.12855e-18)
(0.999846 0.00288313 -2.62686e-18)
(0.256306 0.142923 -9.94473e-16)
(1.00004 -2.34702e-06 -5.22019e-19)
(1.00487 0.0016509 7.7504e-18)
(0.74553 0.00286677 -1.08201e-18)
(0.994634 0.0051057 1.07882e-17)
(0.999591 0.00319167 -1.84344e-19)
(0.999594 0.00355126 -3.80674e-18)
(0.984618 0.0379344 -3.3984e-17)
(0.958808 0.0269782 7.53352e-17)
(0.999841 4.31155e-05 5.31112e-17)
(0.993641 0.00644219 8.26382e-18)
(0.938632 0.0644216 -9.36421e-18)
(0.998142 0.0211722 -5.37334e-18)
(0.995575 0.0173791 -9.96267e-18)
(0.99692 0.00953761 1.64632e-17)
(1.00106 7.62963e-05 3.68937e-18)
(0.956851 0.0320246 -8.18508e-18)
(1.06523 0.0568191 -3.95342e-18)
(0.995228 0.0148388 4.63295e-17)
(0.932186 0.0325535 6.78957e-17)
(1.03351 0.00642442 8.27239e-19)
(1.03647 0.00196549 -1.44319e-18)
(1.04276 0.103615 2.0409e-17)
(1.03227 0.0298242 2.54144e-19)
(0.996599 0.00957584 -2.07985e-17)
(1.00495 0.00172296 -3.75773e-18)
(1.08796 0.0993557 8.2476e-18)
(1.03749 0.00539935 -6.74802e-19)
(0.975924 0.025574 3.55057e-17)
(1.00078 0.00402086 -5.5068e-18)
(0.999746 0.000280283 4.13025e-18)
(0.923238 0.0139629 -3.13764e-17)
(1.05031 0.0402874 2.2397e-18)
(1.01448 0.0064629 -4.78417e-18)
(1.01068 0.0476788 -1.884e-17)
(1.01473 0.00732269 3.15013e-18)
(0.997093 0.00964446 -2.1095e-17)
(1.00523 0.00448144 -1.76004e-17)
(0.966909 0.0318516 6.80647e-18)
(0.833609 0.015344 -1.11042e-17)
(0.284465 0.447889 1.90444e-16)
(0.965335 0.0370586 -1.05553e-17)
(0.999278 0.0176607 3.86044e-18)
(1.00571 0.00450711 -6.86163e-18)
(0.970763 0.03314 -4.89622e-17)
(0.552872 0.326346 -1.74812e-16)
(0.932397 0.0376735 -1.4672e-16)
(0.999861 0.00285864 1.59509e-18)
(1.0476 0.0330032 1.66523e-17)
(1.05979 0.0716655 -5.3441e-22)
(1.24546 0.298757 3.19944e-17)