/*--------------------------------*- C++ -*----------------------------------*\
  =========                 |
  \\      /  F ield         | OpenFOAM: The Open Source CFD Toolbox
   \\    /   O peration     | Website:  https://openfoam.org
    \\  /    A nd           | Version:  7
     \\/     M anipulation  |
\*---------------------------------------------------------------------------*/
FoamFile
{
    version     2.0;
    format      ascii;
    class       surfaceScalarField;
    location    "0.472";
    object      phi;
}
// * * * * * * * * * * * * * * * * * * * * * * * * * * * * * * * * * * * * * //

dimensions      [0 3 -1 0 0 0 0];

internalField   nonuniform List<scalar> 
79600
(
7.01069e-13
-1.50467e-12
1.26801e-11
-1.19791e-11
3.28061e-11
-2.01261e-11
5.72906e-11
-2.44847e-11
8.30764e-11
-2.57858e-11
1.07852e-10
-2.47758e-11
1.29901e-10
-2.20493e-11
1.47967e-10
-1.80661e-11
1.61136e-10
-1.31689e-11
1.68747e-10
-7.61115e-12
1.7033e-10
-1.58261e-12
1.65557e-10
4.7724e-12
1.54215e-10
1.13423e-11
1.36175e-10
1.804e-11
1.11378e-10
2.47967e-11
7.98207e-11
3.15575e-11
4.15423e-11
3.82783e-11
-3.38095e-12
4.49233e-11
-5.48444e-11
5.14634e-11
-1.12719e-10
5.78751e-11
-1.76858e-10
6.41389e-11
-2.47097e-10
7.0239e-11
-3.2326e-10
7.61623e-11
-4.05158e-10
8.18984e-11
-4.92596e-10
8.74386e-11
-5.85372e-10
9.27759e-11
-6.83277e-10
9.79049e-11
-7.86099e-10
1.02821e-10
-8.9362e-10
1.07522e-10
-1.00562e-09
1.12004e-10
-1.12189e-09
1.16265e-10
-1.24219e-09
1.20306e-10
-1.36632e-09
1.24124e-10
-1.49404e-09
1.27721e-10
-1.62514e-09
1.31097e-10
-1.75939e-09
1.34251e-10
-1.89657e-09
1.37187e-10
-2.03648e-09
1.39904e-10
-2.17888e-09
1.42404e-10
-2.32357e-09
1.4469e-10
-2.47033e-09
1.46762e-10
-2.61896e-09
1.48625e-10
-2.76924e-09
1.50279e-10
-2.92096e-09
1.51727e-10
-3.07393e-09
1.52972e-10
-3.22795e-09
1.54017e-10
-3.38281e-09
1.54864e-10
-3.53833e-09
1.55516e-10
-3.69431e-09
1.55976e-10
-3.85055e-09
1.56248e-10
-4.00689e-09
1.56334e-10
-4.16313e-09
1.56238e-10
-4.31909e-09
1.55961e-10
-4.4746e-09
1.55509e-10
-4.62948e-09
1.54884e-10
-4.78357e-09
1.54089e-10
-4.9367e-09
1.53128e-10
-5.0887e-09
1.52003e-10
-5.23942e-09
1.50719e-10
-5.3887e-09
1.49279e-10
-5.53638e-09
1.47685e-10
-5.68232e-09
1.45942e-10
-5.82638e-09
1.44053e-10
-5.9684e-09
1.42021e-10
-6.10825e-09
1.39849e-10
-6.24579e-09
1.37541e-10
-6.38089e-09
1.35101e-10
-6.51342e-09
1.32532e-10
-6.64326e-09
1.29837e-10
-6.77028e-09
1.27021e-10
-6.89436e-09
1.24085e-10
-7.0154e-09
1.21034e-10
-7.13327e-09
1.17871e-10
-7.24787e-09
1.146e-10
-7.35909e-09
1.11224e-10
-7.46684e-09
1.07747e-10
-7.57101e-09
1.04172e-10
-7.67151e-09
1.00503e-10
-7.76826e-09
9.67429e-11
-7.86115e-09
9.28957e-11
-7.95012e-09
8.89649e-11
-8.03507e-09
8.4954e-11
-8.11594e-09
8.08667e-11
-8.19264e-09
7.67064e-11
-8.26512e-09
7.24769e-11
-8.3333e-09
6.81816e-11
-8.39713e-09
6.38243e-11
-8.45653e-09
5.94088e-11
-8.51147e-09
5.49387e-11
-8.56189e-09
5.04178e-11
-8.60774e-09
4.58496e-11
-8.64898e-09
4.1238e-11
-8.68557e-09
3.65867e-11
-8.71746e-09
3.18997e-11
-8.74465e-09
2.71807e-11
-8.76708e-09
2.24337e-11
-8.78474e-09
1.76626e-11
-8.79761e-09
1.28711e-11
-8.80568e-09
8.06322e-12
-8.80892e-09
3.24296e-12
-8.80733e-09
-1.5856e-12
-8.80092e-09
-6.41835e-12
-8.78966e-09
-1.12512e-11
-8.77358e-09
-1.60802e-11
-8.75268e-09
-2.09013e-11
-8.72697e-09
-2.57102e-11
-8.69647e-09
-3.05029e-11
-8.6612e-09
-3.52749e-11
-8.62117e-09
-4.0022e-11
-8.57643e-09
-4.47399e-11
-8.52701e-09
-4.94244e-11
-8.47294e-09
-5.40713e-11
-8.41426e-09
-5.86763e-11
-8.35103e-09
-6.32348e-11
-8.28329e-09
-6.77424e-11
-8.21109e-09
-7.21947e-11
-8.1345e-09
-7.65873e-11
-8.05359e-09
-8.09158e-11
-7.96841e-09
-8.51758e-11
-7.87905e-09
-8.93629e-11
-7.78558e-09
-9.34725e-11
-7.68808e-09
-9.75e-11
-7.58664e-09
-1.01441e-10
-7.48135e-09
-1.05291e-10
-7.3723e-09
-1.09045e-10
-7.2596e-09
-1.127e-10
-7.14335e-09
-1.1625e-10
-7.02366e-09
-1.19692e-10
-6.90064e-09
-1.2302e-10
-6.77441e-09
-1.2623e-10
-6.64509e-09
-1.29318e-10
-6.51281e-09
-1.32279e-10
-6.3777e-09
-1.3511e-10
-6.2399e-09
-1.37806e-10
-6.09954e-09
-1.40362e-10
-5.95676e-09
-1.42774e-10
-5.81173e-09
-1.45038e-10
-5.66457e-09
-1.47151e-10
-5.51547e-09
-1.49107e-10
-5.36457e-09
-1.50903e-10
-5.21203e-09
-1.52535e-10
-5.05803e-09
-1.54e-10
-4.90274e-09
-1.55292e-10
-4.74633e-09
-1.56409e-10
-4.58898e-09
-1.57347e-10
-4.43088e-09
-1.58102e-10
-4.27221e-09
-1.58671e-10
-4.11316e-09
-1.59051e-10
-3.95392e-09
-1.59239e-10
-3.79469e-09
-1.59231e-10
-3.63567e-09
-1.59024e-10
-3.47705e-09
-1.58615e-10
-3.31905e-09
-1.58003e-10
-3.16187e-09
-1.57184e-10
-3.00571e-09
-1.56156e-10
-2.85079e-09
-1.54916e-10
-2.69733e-09
-1.53464e-10
-2.54554e-09
-1.51796e-10
-2.39563e-09
-1.49911e-10
-2.24782e-09
-1.47807e-10
-2.10233e-09
-1.45485e-10
-1.95939e-09
-1.42942e-10
-1.81922e-09
-1.40177e-10
-1.68202e-09
-1.37191e-10
-1.54804e-09
-1.33983e-10
-1.41749e-09
-1.30553e-10
-1.29059e-09
-1.26902e-10
-1.16756e-09
-1.23031e-10
-1.04861e-09
-1.18941e-10
-9.3398e-10
-1.14635e-10
-8.23867e-10
-1.10113e-10
-7.18487e-10
-1.0538e-10
-6.18048e-10
-1.00439e-10
-5.22753e-10
-9.52951e-11
-4.328e-10
-8.9953e-11
-3.48381e-10
-8.44193e-11
-2.6968e-10
-7.87016e-11
-1.96871e-10
-7.2809e-11
-1.30119e-10
-6.67523e-11
-6.95744e-11
-6.05442e-11
-1.53746e-11
-5.41998e-11
3.23625e-11
-4.77372e-11
7.35401e-11
-4.11777e-11
1.08087e-10
-3.45471e-11
1.35963e-10
-2.78762e-11
1.57166e-10
-2.12028e-11
1.71739e-10
-1.45728e-11
1.79781e-10
-8.04276e-12
1.81464e-10
-1.68283e-12
1.77045e-10
4.419e-12
1.66894e-10
1.01507e-11
1.51526e-10
1.53681e-11
1.31643e-10
1.98829e-11
1.08198e-10
2.34452e-11
8.24789e-11
2.57191e-11
5.62214e-11
2.62576e-11
3.1731e-11
2.44903e-11
1.20176e-11
1.97134e-11
7.63918e-13
1.12535e-11
7.63834e-13
1.15622e-11
-1.3067e-11
4.33677e-11
-4.37847e-11
8.96371e-11
-6.63957e-11
1.43842e-10
-7.86893e-11
1.99957e-10
-8.19015e-11
2.52906e-10
-7.7725e-11
2.98594e-10
-6.77375e-11
3.33805e-10
-5.32772e-11
3.56058e-10
-3.54214e-11
3.63466e-10
-1.50196e-11
3.54624e-10
7.25954e-12
3.28507e-10
3.08885e-11
2.84401e-10
5.54482e-11
2.21838e-10
8.06033e-11
1.40551e-10
1.06084e-10
4.04361e-11
1.31672e-10
-7.8474e-11
1.57188e-10
-2.16038e-10
1.82488e-10
-3.72025e-10
2.0745e-10
-5.46125e-10
2.31976e-10
-7.37971e-10
2.55984e-10
-9.47139e-10
2.79407e-10
-1.17317e-09
3.02189e-10
-1.41555e-09
3.24283e-10
-1.67376e-09
3.45651e-10
-1.94725e-09
3.66264e-10
-2.23544e-09
3.86094e-10
-2.53774e-09
4.05122e-10
-2.85355e-09
4.23333e-10
-3.18226e-09
4.40712e-10
-3.52325e-09
4.57253e-10
-3.87589e-09
4.72947e-10
-4.23955e-09
4.87791e-10
-4.61361e-09
5.01782e-10
-4.99744e-09
5.14922e-10
-5.3904e-09
5.2721e-10
-5.79186e-09
5.38649e-10
-6.2012e-09
5.49245e-10
-6.6178e-09
5.59001e-10
-7.04103e-09
5.67924e-10
-7.47029e-09
5.76021e-10
-7.90497e-09
5.83299e-10
-8.34445e-09
5.89767e-10
-8.78816e-09
5.95434e-10
-9.2355e-09
6.00308e-10
-9.68588e-09
6.04401e-10
-1.01387e-08
6.07722e-10
-1.05935e-08
6.10282e-10
-1.10496e-08
6.12092e-10
-1.15065e-08
6.13164e-10
-1.19637e-08
6.13509e-10
-1.24206e-08
6.13139e-10
-1.28767e-08
6.12067e-10
-1.33315e-08
6.10303e-10
-1.37845e-08
6.07862e-10
-1.42352e-08
6.04755e-10
-1.4683e-08
6.00995e-10
-1.51276e-08
5.96594e-10
-1.55685e-08
5.91567e-10
-1.60051e-08
5.85925e-10
-1.64371e-08
5.79683e-10
-1.6864e-08
5.72852e-10
-1.72854e-08
5.65447e-10
-1.77009e-08
5.5748e-10
-1.811e-08
5.48965e-10
-1.85124e-08
5.39916e-10
-1.89076e-08
5.30345e-10
-1.92953e-08
5.20266e-10
-1.96752e-08
5.09693e-10
-2.00468e-08
4.9864e-10
-2.04098e-08
4.87119e-10
-2.0764e-08
4.75144e-10
-2.11088e-08
4.6273e-10
-2.14441e-08
4.49889e-10
-2.17695e-08
4.36636e-10
-2.20847e-08
4.22984e-10
-2.23895e-08
4.08947e-10
-2.26836e-08
3.94539e-10
-2.29666e-08
3.79774e-10
-2.32384e-08
3.64666e-10
-2.34986e-08
3.49229e-10
-2.37471e-08
3.33476e-10
-2.39837e-08
3.17423e-10
-2.42081e-08
3.01083e-10
-2.44201e-08
2.8447e-10
-2.46195e-08
2.676e-10
-2.48062e-08
2.50485e-10
-2.49799e-08
2.33142e-10
-2.51405e-08
2.15584e-10
-2.52879e-08
1.97826e-10
-2.5422e-08
1.79883e-10
-2.55425e-08
1.61769e-10
-2.56494e-08
1.435e-10
-2.57426e-08
1.25091e-10
-2.5822e-08
1.06557e-10
-2.58875e-08
8.79126e-11
-2.5939e-08
6.91741e-11
-2.59765e-08
5.03566e-11
-2.59999e-08
3.14756e-11
-2.60092e-08
1.25467e-11
-2.60043e-08
-6.41407e-12
-2.59854e-08
-2.53908e-11
-2.59523e-08
-4.43674e-11
-2.5905e-08
-6.33277e-11
-2.58437e-08
-8.22555e-11
-2.57682e-08
-1.01135e-10
-2.56788e-08
-1.19948e-10
-2.55754e-08
-1.3868e-10
-2.54581e-08
-1.57313e-10
-2.5327e-08
-1.75831e-10
-2.51822e-08
-1.94216e-10
-2.50238e-08
-2.12452e-10
-2.4852e-08
-2.30522e-10
-2.46668e-08
-2.48408e-10
-2.44685e-08
-2.66093e-10
-2.42571e-08
-2.8356e-10
-2.40329e-08
-3.00791e-10
-2.3796e-08
-3.17769e-10
-2.35467e-08
-3.34477e-10
-2.32852e-08
-3.50898e-10
-2.30117e-08
-3.67012e-10
-2.27264e-08
-3.82804e-10
-2.24295e-08
-3.98255e-10
-2.21215e-08
-4.13347e-10
-2.18025e-08
-4.28064e-10
-2.14728e-08
-4.42387e-10
-2.11327e-08
-4.563e-10
-2.07826e-08
-4.69785e-10
-2.04228e-08
-4.82824e-10
-2.00537e-08
-4.954e-10
-1.96755e-08
-5.07496e-10
-1.92887e-08
-5.19094e-10
-1.88936e-08
-5.30179e-10
-1.84907e-08
-5.40732e-10
-1.80803e-08
-5.50739e-10
-1.76629e-08
-5.60181e-10
-1.72389e-08
-5.69042e-10
-1.68087e-08
-5.77308e-10
-1.63729e-08
-5.84961e-10
-1.59318e-08
-5.91986e-10
-1.5486e-08
-5.98368e-10
-1.50359e-08
-6.04093e-10
-1.4582e-08
-6.09145e-10
-1.41249e-08
-6.13509e-10
-1.36651e-08
-6.17173e-10
-1.32031e-08
-6.20122e-10
-1.27394e-08
-6.22344e-10
-1.22746e-08
-6.23825e-10
-1.18093e-08
-6.24554e-10
-1.1344e-08
-6.24518e-10
-1.08794e-08
-6.23706e-10
-1.04159e-08
-6.22108e-10
-9.95415e-09
-6.19713e-10
-9.49483e-09
-6.16512e-10
-9.03849e-09
-6.12497e-10
-8.58574e-09
-6.07658e-10
-8.13722e-09
-6.01989e-10
-7.69353e-09
-5.95482e-10
-7.25531e-09
-5.88132e-10
-6.82319e-09
-5.79934e-10
-6.39779e-09
-5.70884e-10
-5.97975e-09
-5.60979e-10
-5.56971e-09
-5.50217e-10
-5.16831e-09
-5.38596e-10
-4.77617e-09
-5.26119e-10
-4.39394e-09
-5.12786e-10
-4.02224e-09
-4.98601e-10
-3.6617e-09
-4.83569e-10
-3.31295e-09
-4.67697e-10
-2.97659e-09
-4.50994e-10
-2.65323e-09
-4.33471e-10
-2.34347e-09
-4.15141e-10
-2.04789e-09
-3.96023e-10
-1.76705e-09
-3.76135e-10
-1.5015e-09
-3.55502e-10
-1.25177e-09
-3.34151e-10
-1.01836e-09
-3.12116e-10
-8.01729e-10
-2.89436e-10
-6.02325e-10
-2.66156e-10
-4.20538e-10
-2.42332e-10
-2.56713e-10
-2.18025e-10
-1.11137e-10
-1.93313e-10
1.59682e-11
-1.68283e-10
1.24464e-10
-1.43043e-10
2.14305e-10
-1.17718e-10
2.85564e-10
-9.24612e-11
3.38447e-10
-6.74561e-11
3.7333e-10
-4.29261e-11
3.90791e-10
-1.91444e-11
3.91658e-10
3.55228e-12
3.77063e-10
2.47459e-11
3.48517e-10
4.39136e-11
3.08002e-10
6.03975e-11
2.5808e-10
7.33673e-11
2.0202e-10
8.1779e-11
1.43927e-10
8.43507e-11
8.88175e-11
7.95996e-11
4.25413e-11
6.59895e-11
1.12481e-11
4.25466e-11
1.20118e-11
1.99428e-11
-3.30098e-11
6.61274e-11
-8.99694e-11
1.28994e-10
-1.29262e-10
2.00034e-10
-1.49729e-10
2.71531e-10
-1.53399e-10
3.36791e-10
-1.42985e-10
3.90202e-10
-1.21149e-10
4.27184e-10
-9.02588e-11
4.44069e-10
-5.23064e-11
4.37979e-10
-8.92952e-12
4.06699e-10
3.85396e-11
3.48566e-10
8.90208e-11
2.62378e-10
1.41637e-10
1.47309e-10
1.95672e-10
2.85011e-12
2.50543e-10
-1.71247e-10
3.05769e-10
-3.75015e-10
3.60956e-10
-6.08303e-10
4.15776e-10
-8.7081e-10
4.69957e-10
-1.16211e-09
5.23275e-10
-1.48167e-09
5.7554e-10
-1.82886e-09
6.26597e-10
-2.20298e-09
6.76315e-10
-2.60328e-09
7.24584e-10
-3.02895e-09
7.71315e-10
-3.47912e-09
8.16433e-10
-3.9529e-09
8.59876e-10
-4.44937e-09
9.01595e-10
-4.96759e-09
9.4155e-10
-5.50658e-09
9.79709e-10
-6.06538e-09
1.01605e-09
-6.64298e-09
1.05055e-09
-7.23838e-09
1.0832e-09
-7.85059e-09
1.11399e-09
-8.47858e-09
1.14291e-09
-9.12135e-09
1.16998e-09
-9.77789e-09
1.19519e-09
-1.04472e-08
1.21855e-09
-1.11283e-08
1.24007e-09
-1.18201e-08
1.25975e-09
-1.25217e-08
1.27762e-09
-1.32321e-08
1.29369e-09
-1.39503e-08
1.30798e-09
-1.46754e-08
1.3205e-09
-1.54063e-08
1.33127e-09
-1.61422e-08
1.34032e-09
-1.68822e-08
1.34766e-09
-1.76252e-08
1.35332e-09
-1.83704e-08
1.35733e-09
-1.9117e-08
1.3597e-09
-1.98639e-08
1.36047e-09
-2.06105e-08
1.35965e-09
-2.13557e-08
1.35728e-09
-2.20987e-08
1.35338e-09
-2.28389e-08
1.34798e-09
-2.35752e-08
1.3411e-09
-2.4307e-08
1.33277e-09
-2.50334e-08
1.32303e-09
-2.57538e-08
1.3119e-09
-2.64672e-08
1.2994e-09
-2.71731e-08
1.28557e-09
-2.78707e-08
1.27044e-09
-2.85593e-08
1.25403e-09
-2.92382e-08
1.23637e-09
-2.99067e-08
1.2175e-09
-3.05642e-08
1.19744e-09
-3.12101e-08
1.17622e-09
-3.18437e-08
1.15388e-09
-3.24644e-08
1.13043e-09
-3.30717e-08
1.10592e-09
-3.3665e-08
1.08037e-09
-3.42437e-08
1.05382e-09
-3.48072e-08
1.02628e-09
-3.53551e-08
9.97803e-10
-3.58869e-08
9.68406e-10
-3.6402e-08
9.38123e-10
-3.69001e-08
9.06986e-10
-3.73806e-08
8.75024e-10
-3.7843e-08
8.42268e-10
-3.82871e-08
8.08751e-10
-3.87124e-08
7.74502e-10
-3.91185e-08
7.39553e-10
-3.9505e-08
7.03936e-10
-3.98716e-08
6.67682e-10
-4.02179e-08
6.30824e-10
-4.05437e-08
5.93392e-10
-4.08487e-08
5.55419e-10
-4.11325e-08
5.16938e-10
-4.13949e-08
4.77981e-10
-4.16356e-08
4.3858e-10
-4.18545e-08
3.98768e-10
-4.20513e-08
3.5858e-10
-4.22259e-08
3.18047e-10
-4.2378e-08
2.77203e-10
-4.25075e-08
2.36082e-10
-4.26143e-08
1.94718e-10
-4.26983e-08
1.53145e-10
-4.27593e-08
1.11399e-10
-4.27974e-08
6.95124e-11
-4.28123e-08
2.75213e-11
-4.28042e-08
-1.45394e-11
-4.2773e-08
-5.66343e-11
-4.27186e-08
-9.87274e-11
-4.26412e-08
-1.40783e-10
-4.25406e-08
-1.82765e-10
-4.24171e-08
-2.24636e-10
-4.22707e-08
-2.66362e-10
-4.21015e-08
-3.07903e-10
-4.19096e-08
-3.49224e-10
-4.16951e-08
-3.90287e-10
-4.14583e-08
-4.31054e-10
-4.11993e-08
-4.71488e-10
-4.09182e-08
-5.11551e-10
-4.06154e-08
-5.51204e-10
-4.02911e-08
-5.9041e-10
-3.99456e-08
-6.29131e-10
-3.9579e-08
-6.67327e-10
-3.91918e-08
-7.04959e-10
-3.87843e-08
-7.4199e-10
-3.83568e-08
-7.7838e-10
-3.79098e-08
-8.14092e-10
-3.74435e-08
-8.49084e-10
-3.69584e-08
-8.8332e-10
-3.6455e-08
-9.16759e-10
-3.59337e-08
-9.49364e-10
-3.5395e-08
-9.81094e-10
-3.48394e-08
-1.01191e-09
-3.42674e-08
-1.04178e-09
-3.36796e-08
-1.07066e-09
-3.30764e-08
-1.09851e-09
-3.24586e-08
-1.12529e-09
-3.18268e-08
-1.15098e-09
-3.11814e-08
-1.17552e-09
-3.05233e-08
-1.19888e-09
-2.9853e-08
-1.22103e-09
-2.91712e-08
-1.24193e-09
-2.84787e-08
-1.26154e-09
-2.77762e-08
-1.27984e-09
-2.70644e-08
-1.29677e-09
-2.63441e-08
-1.31232e-09
-2.5616e-08
-1.32644e-09
-2.4881e-08
-1.3391e-09
-2.41399e-08
-1.35028e-09
-2.33934e-08
-1.35993e-09
-2.26426e-08
-1.36804e-09
-2.18881e-08
-1.37456e-09
-2.1131e-08
-1.37947e-09
-2.03721e-08
-1.38275e-09
-1.96123e-08
-1.38437e-09
-1.88525e-08
-1.38429e-09
-1.80937e-08
-1.3825e-09
-1.73368e-08
-1.37898e-09
-1.65828e-08
-1.3737e-09
-1.58327e-08
-1.36664e-09
-1.50874e-08
-1.35778e-09
-1.4348e-08
-1.34711e-09
-1.36154e-08
-1.33461e-09
-1.28906e-08
-1.32026e-09
-1.21746e-08
-1.30406e-09
-1.14686e-08
-1.286e-09
-1.07734e-08
-1.26606e-09
-1.00902e-08
-1.24424e-09
-9.41983e-09
-1.22054e-09
-8.76346e-09
-1.19496e-09
-8.12207e-09
-1.16751e-09
-7.49668e-09
-1.13818e-09
-6.88829e-09
-1.10699e-09
-6.29792e-09
-1.07395e-09
-5.72654e-09
-1.03908e-09
-5.17513e-09
-1.0024e-09
-4.64467e-09
-9.63938e-10
-4.13607e-09
-9.23732e-10
-3.65028e-09
-8.8182e-10
-3.18816e-09
-8.3825e-10
-2.75059e-09
-7.93079e-10
-2.33836e-09
-7.46373e-10
-1.95227e-09
-6.98211e-10
-1.59302e-09
-6.48684e-10
-1.26128e-09
-5.979e-10
-9.57625e-10
-5.45984e-10
-6.82568e-10
-4.93083e-10
-4.36512e-10
-4.39369e-10
-2.19748e-10
-3.85047e-10
-3.24357e-11
-3.30355e-10
1.25426e-10
-2.7558e-10
2.54026e-10
-2.21061e-10
3.53771e-10
-1.67202e-10
4.25336e-10
-1.14492e-10
4.69711e-10
-6.35195e-11
4.88264e-10
-1.5e-11
4.82814e-10
3.01955e-11
4.55726e-10
7.10014e-11
4.1001e-10
1.06114e-10
3.49436e-10
1.33941e-10
2.78649e-10
1.52566e-10
2.03259e-10
1.5974e-10
1.29872e-10
1.52987e-10
6.59822e-11
1.29879e-10
1.97027e-11
8.88261e-11
3.17144e-11
2.44066e-11
-5.74165e-11
7.85917e-11
-1.44155e-10
1.49673e-10
-2.00343e-10
2.27309e-10
-2.27366e-10
3.02534e-10
-2.28624e-10
3.67597e-10
-2.08047e-10
4.1591e-10
-1.69463e-10
4.41977e-10
-1.16326e-10
4.4129e-10
-5.16202e-11
4.10227e-10
2.21338e-11
3.4593e-10
1.02836e-10
2.46205e-10
1.88746e-10
1.09418e-10
2.78423e-10
-6.5586e-11
3.70676e-10
-2.79557e-10
4.64514e-10
-5.32905e-10
5.59117e-10
-8.25751e-10
6.53801e-10
-1.15797e-09
7.47994e-10
-1.52923e-09
8.41218e-10
-1.93903e-09
9.33072e-10
-2.38671e-09
1.02322e-09
-2.87149e-09
1.11138e-09
-3.39248e-09
1.19731e-09
-3.94871e-09
1.28081e-09
-4.53912e-09
1.36173e-09
-5.1626e-09
1.43991e-09
-5.81797e-09
1.51524e-09
-6.50401e-09
1.58764e-09
-7.21948e-09
1.65702e-09
-7.96309e-09
1.72332e-09
-8.73353e-09
1.78649e-09
-9.52948e-09
1.84649e-09
-1.03496e-08
1.90331e-09
-1.11925e-08
1.95691e-09
-1.20569e-08
2.0073e-09
-1.29414e-08
2.05446e-09
-1.38446e-08
2.0984e-09
-1.47652e-08
2.13913e-09
-1.57017e-08
2.17666e-09
-1.6653e-08
2.211e-09
-1.76176e-08
2.24219e-09
-1.85941e-08
2.27024e-09
-1.95813e-08
2.29518e-09
-2.05778e-08
2.31704e-09
-2.15824e-08
2.33586e-09
-2.25938e-08
2.35166e-09
-2.36106e-08
2.36449e-09
-2.46317e-08
2.37438e-09
-2.56557e-08
2.38137e-09
-2.66815e-08
2.38551e-09
-2.77079e-08
2.38684e-09
-2.87336e-08
2.3854e-09
-2.97576e-08
2.38124e-09
-3.07786e-08
2.37439e-09
-3.17955e-08
2.36492e-09
-3.28073e-08
2.35286e-09
-3.38128e-08
2.33826e-09
-3.48109e-08
2.32118e-09
-3.58007e-08
2.30166e-09
-3.67811e-08
2.27975e-09
-3.7751e-08
2.2555e-09
-3.87095e-08
2.22896e-09
-3.96557e-08
2.20018e-09
-4.05885e-08
2.16922e-09
-4.15071e-08
2.13612e-09
-4.24106e-08
2.10093e-09
-4.32981e-08
2.06371e-09
-4.41687e-08
2.02451e-09
-4.50217e-08
1.98339e-09
-4.58562e-08
1.94039e-09
-4.66714e-08
1.89556e-09
-4.74665e-08
1.84897e-09
-4.82409e-08
1.80066e-09
-4.89938e-08
1.75068e-09
-4.97245e-08
1.6991e-09
-5.04323e-08
1.64596e-09
-5.11166e-08
1.59131e-09
-5.17768e-08
1.53522e-09
-5.24123e-08
1.47774e-09
-5.30224e-08
1.41891e-09
-5.36068e-08
1.35881e-09
-5.41647e-08
1.29747e-09
-5.46957e-08
1.23496e-09
-5.51993e-08
1.17133e-09
-5.56751e-08
1.10663e-09
-5.61227e-08
1.04094e-09
-5.65416e-08
9.7429e-10
-5.69314e-08
9.06749e-10
-5.72918e-08
8.38373e-10
-5.76224e-08
7.69219e-10
-5.7923e-08
6.99345e-10
-5.81932e-08
6.28809e-10
-5.84328e-08
5.5767e-10
-5.86416e-08
4.85987e-10
-5.88194e-08
4.13818e-10
-5.89659e-08
3.41224e-10
-5.9081e-08
2.68266e-10
-5.91646e-08
1.95003e-10
-5.92166e-08
1.21496e-10
-5.92369e-08
4.78085e-11
-5.92254e-08
-2.59995e-11
-5.91822e-08
-9.98652e-11
-5.91072e-08
-1.73726e-10
-5.90004e-08
-2.47518e-10
-5.8862e-08
-3.21179e-10
-5.8692e-08
-3.94643e-10
-5.84905e-08
-4.67848e-10
-5.82577e-08
-5.40727e-10
-5.79937e-08
-6.13217e-10
-5.76987e-08
-6.85251e-10
-5.7373e-08
-7.56763e-10
-5.70168e-08
-8.27688e-10
-5.66304e-08
-8.97958e-10
-5.62141e-08
-9.67507e-10
-5.57683e-08
-1.03627e-09
-5.52932e-08
-1.10417e-09
-5.47894e-08
-1.17116e-09
-5.42572e-08
-1.23715e-09
-5.36971e-08
-1.30208e-09
-5.31096e-08
-1.36589e-09
-5.24952e-08
-1.4285e-09
-5.18544e-08
-1.48985e-09
-5.11879e-08
-1.54987e-09
-5.04962e-08
-1.60848e-09
-4.97799e-08
-1.66564e-09
-4.90397e-08
-1.72125e-09
-4.82764e-08
-1.77527e-09
-4.74906e-08
-1.82761e-09
-4.6683e-08
-1.87822e-09
-4.58545e-08
-1.92702e-09
-4.50058e-08
-1.97396e-09
-4.41378e-08
-2.01896e-09
-4.32514e-08
-2.06195e-09
-4.23474e-08
-2.10289e-09
-4.14267e-08
-2.14169e-09
-4.04904e-08
-2.1783e-09
-3.95393e-08
-2.21266e-09
-3.85744e-08
-2.2447e-09
-3.75968e-08
-2.27436e-09
-3.66075e-08
-2.30159e-09
-3.56077e-08
-2.32632e-09
-3.45983e-08
-2.3485e-09
-3.35805e-08
-2.36807e-09
-3.25554e-08
-2.38498e-09
-3.15243e-08
-2.39918e-09
-3.04882e-08
-2.41061e-09
-2.94485e-08
-2.41923e-09
-2.84062e-08
-2.42499e-09
-2.73628e-08
-2.42783e-09
-2.63193e-08
-2.42773e-09
-2.52772e-08
-2.42463e-09
-2.42377e-08
-2.4185e-09
-2.32021e-08
-2.4093e-09
-2.21717e-08
-2.39699e-09
-2.1148e-08
-2.38155e-09
-2.01321e-08
-2.36294e-09
-1.91256e-08
-2.34115e-09
-1.81297e-08
-2.31614e-09
-1.71459e-08
-2.2879e-09
-1.61755e-08
-2.25641e-09
-1.52198e-08
-2.22167e-09
-1.42804e-08
-2.18366e-09
-1.33586e-08
-2.14238e-09
-1.24557e-08
-2.09784e-09
-1.15732e-08
-2.05004e-09
-1.07124e-08
-1.99899e-09
-9.87464e-09
-1.94473e-09
-9.06133e-09
-1.88726e-09
-8.27376e-09
-1.82664e-09
-7.51326e-09
-1.7629e-09
-6.7811e-09
-1.6961e-09
-6.07854e-09
-1.62629e-09
-5.4068e-09
-1.55357e-09
-4.76704e-09
-1.478e-09
-4.16041e-09
-1.39972e-09
-3.58796e-09
-1.31882e-09
-3.05071e-09
-1.23546e-09
-2.54958e-09
-1.14981e-09
-2.08541e-09
-1.06206e-09
-1.65895e-09
-9.72443e-10
-1.27082e-09
-8.81213e-10
-9.2151e-10
-7.88684e-10
-6.11339e-10
-6.95218e-10
-3.40456e-10
-6.01239e-10
-1.08788e-10
-5.07248e-10
8.39843e-11
-4.13833e-10
2.38478e-10
-3.21696e-10
3.55653e-10
-2.31667e-10
4.36874e-10
-1.44741e-10
4.83979e-10
-6.21044e-11
4.99359e-10
1.48155e-11
4.86052e-10
8.43083e-11
4.4784e-10
1.44325e-10
3.89352e-10
1.92429e-10
3.16159e-10
2.25758e-10
2.34852e-10
2.41047e-10
1.53092e-10
2.34747e-10
7.96408e-11
2.03331e-10
2.44874e-11
1.4398e-10
5.62017e-11
2.5792e-11
-8.32086e-11
8.20227e-11
-2.00386e-10
1.53715e-10
-2.72036e-10
2.29106e-10
-3.02758e-10
2.98272e-10
-2.9779e-10
3.52724e-10
-2.62499e-10
3.85226e-10
-2.01965e-10
3.8967e-10
-1.2077e-10
3.60974e-10
-2.29247e-11
2.94981e-10
8.81272e-11
1.88353e-10
2.09464e-10
3.84777e-11
3.38622e-10
-1.56629e-10
4.7353e-10
-3.98405e-10
6.12452e-10
-6.87819e-10
7.53927e-10
-1.02543e-09
8.96731e-10
-1.41146e-09
1.03983e-09
-1.84583e-09
1.18236e-09
-2.32819e-09
1.32358e-09
-2.85798e-09
1.46287e-09
-3.43448e-09
1.59971e-09
-4.05677e-09
1.73366e-09
-4.7238e-09
1.86434e-09
-5.43443e-09
1.99144e-09
-6.18738e-09
2.11468e-09
-6.98133e-09
2.23385e-09
-7.81485e-09
2.34876e-09
-8.68646e-09
2.45925e-09
-9.59464e-09
2.5652e-09
-1.05378e-08
2.6665e-09
-1.15144e-08
2.76307e-09
-1.25228e-08
2.85484e-09
-1.35612e-08
2.94177e-09
-1.46281e-08
3.02383e-09
-1.57218e-08
3.10098e-09
-1.68406e-08
3.17322e-09
-1.79827e-08
3.24055e-09
-1.91466e-08
3.30298e-09
-2.03305e-08
3.36052e-09
-2.15327e-08
3.41319e-09
-2.27515e-08
3.46103e-09
-2.39853e-08
3.50406e-09
-2.52325e-08
3.54233e-09
-2.64913e-08
3.57588e-09
-2.77602e-08
3.60475e-09
-2.90375e-08
3.629e-09
-3.03217e-08
3.64868e-09
-3.16112e-08
3.66385e-09
-3.29044e-08
3.67456e-09
-3.41998e-08
3.68089e-09
-3.54958e-08
3.68289e-09
-3.6791e-08
3.68063e-09
-3.8084e-08
3.67417e-09
-3.93732e-08
3.6636e-09
-4.06572e-08
3.64896e-09
-4.19347e-08
3.63035e-09
-4.32043e-08
3.60783e-09
-4.44646e-08
3.58147e-09
-4.57143e-08
3.55136e-09
-4.69521e-08
3.51755e-09
-4.81767e-08
3.48014e-09
-4.9387e-08
3.4392e-09
-5.05816e-08
3.39481e-09
-5.17594e-08
3.34704e-09
-5.29193e-08
3.29597e-09
-5.40601e-08
3.24169e-09
-5.51806e-08
3.18427e-09
-5.62799e-08
3.12379e-09
-5.73568e-08
3.06034e-09
-5.84104e-08
2.99398e-09
-5.94397e-08
2.92482e-09
-6.04436e-08
2.85292e-09
-6.14213e-08
2.77837e-09
-6.23719e-08
2.70125e-09
-6.32944e-08
2.62164e-09
-6.41881e-08
2.53963e-09
-6.50521e-08
2.4553e-09
-6.58856e-08
2.36873e-09
-6.66879e-08
2.28001e-09
-6.74582e-08
2.18922e-09
-6.81958e-08
2.09645e-09
-6.89001e-08
2.00178e-09
-6.95705e-08
1.9053e-09
-7.02063e-08
1.80709e-09
-7.08069e-08
1.70724e-09
-7.13718e-08
1.60584e-09
-7.19004e-08
1.50297e-09
-7.23924e-08
1.39872e-09
-7.28472e-08
1.29319e-09
-7.32645e-08
1.18645e-09
-7.36437e-08
1.07861e-09
-7.39847e-08
9.69742e-10
-7.42869e-08
8.59945e-10
-7.45503e-08
7.49311e-10
-7.47744e-08
6.37929e-10
-7.4959e-08
5.25893e-10
-7.51041e-08
4.13296e-10
-7.52093e-08
3.00232e-10
-7.52746e-08
1.86795e-10
-7.52999e-08
7.30802e-11
-7.5285e-08
-4.08169e-11
-7.52301e-08
-1.548e-10
-7.51351e-08
-2.68772e-10
-7.5e-08
-3.82635e-10
-7.48248e-08
-4.96292e-10
-7.46098e-08
-6.09642e-10
-7.43551e-08
-7.22587e-10
-7.40608e-08
-8.35027e-10
-7.37272e-08
-9.46861e-10
-7.33544e-08
-1.05799e-09
-7.29429e-08
-1.16831e-09
-7.24929e-08
-1.27771e-09
-7.20047e-08
-1.38611e-09
-7.14788e-08
-1.49338e-09
-7.09157e-08
-1.59944e-09
-7.03157e-08
-1.70417e-09
-6.96794e-08
-1.80747e-09
-6.90073e-08
-1.90925e-09
-6.83e-08
-2.00938e-09
-6.75581e-08
-2.10777e-09
-6.67823e-08
-2.20432e-09
-6.59732e-08
-2.29891e-09
-6.51316e-08
-2.39144e-09
-6.42583e-08
-2.48182e-09
-6.3354e-08
-2.56993e-09
-6.24196e-08
-2.65567e-09
-6.14559e-08
-2.73893e-09
-6.04639e-08
-2.81962e-09
-5.94445e-08
-2.89762e-09
-5.83987e-08
-2.97285e-09
-5.73275e-08
-3.04518e-09
-5.62319e-08
-3.11453e-09
-5.5113e-08
-3.1808e-09
-5.3972e-08
-3.24388e-09
-5.28101e-08
-3.30367e-09
-5.16283e-08
-3.36009e-09
-5.04279e-08
-3.41303e-09
-4.92102e-08
-3.4624e-09
-4.79765e-08
-3.50811e-09
-4.6728e-08
-3.55006e-09
-4.54661e-08
-3.58817e-09
-4.41923e-08
-3.62235e-09
-4.29078e-08
-3.65252e-09
-4.16142e-08
-3.6786e-09
-4.03129e-08
-3.70049e-09
-3.90054e-08
-3.71813e-09
-3.76932e-08
-3.73144e-09
-3.63778e-08
-3.74035e-09
-3.50609e-08
-3.74479e-09
-3.37439e-08
-3.74468e-09
-3.24286e-08
-3.73998e-09
-3.11164e-08
-3.73062e-09
-2.98092e-08
-3.71655e-09
-2.85085e-08
-3.69771e-09
-2.7216e-08
-3.67406e-09
-2.59333e-08
-3.64555e-09
-2.46623e-08
-3.61216e-09
-2.34046e-08
-3.57384e-09
-2.2162e-08
-3.53056e-09
-2.09361e-08
-3.48232e-09
-1.97286e-08
-3.4291e-09
-1.85414e-08
-3.37088e-09
-1.73761e-08
-3.30766e-09
-1.62345e-08
-3.23946e-09
-1.51182e-08
-3.1663e-09
-1.4029e-08
-3.08818e-09
-1.29686e-08
-3.00517e-09
-1.19386e-08
-2.91728e-09
-1.09406e-08
-2.8246e-09
-9.97634e-09
-2.72719e-09
-9.04729e-09
-2.62514e-09
-8.15503e-09
-2.51855e-09
-7.30105e-09
-2.40756e-09
-6.48676e-09
-2.29229e-09
-5.71354e-09
-2.17293e-09
-4.98268e-09
-2.04968e-09
-4.2954e-09
-1.92275e-09
-3.65278e-09
-1.79243e-09
-3.05584e-09
-1.65901e-09
-2.50543e-09
-1.52285e-09
-2.00226e-09
-1.38438e-09
-1.54688e-09
-1.24406e-09
-1.13963e-09
-1.10247e-09
-7.80622e-10
-9.60247e-10
-4.69706e-10
-8.18164e-10
-2.06426e-10
-6.77113e-10
1.00246e-11
-5.38147e-10
1.80861e-10
-4.02504e-10
3.07765e-10
-2.71645e-10
3.9296e-10
-1.47299e-10
4.39286e-10
-3.15103e-11
4.50287e-10
7.33071e-11
4.30303e-10
1.6431e-10
3.84557e-10
2.38175e-10
3.19247e-10
2.91068e-10
2.41631e-10
3.18663e-10
1.60137e-10
3.16241e-10
8.45262e-11
2.78942e-10
2.62866e-11
2.02219e-10
8.24883e-11
2.48742e-11
-1.08083e-10
7.8136e-11
-2.53647e-10
1.43848e-10
-3.37748e-10
2.0937e-10
-3.68279e-10
2.64131e-10
-3.52551e-10
2.99143e-10
-2.97512e-10
3.06748e-10
-2.09569e-10
2.80443e-10
-9.44645e-11
2.14766e-10
4.2752e-11
1.05196e-10
1.97697e-10
-5.19441e-11
3.66604e-10
-2.59575e-10
5.46253e-10
-5.1995e-10
7.33905e-10
-8.34732e-10
9.27234e-10
-1.20507e-09
1.12426e-09
-1.63165e-09
1.32332e-09
-2.11479e-09
1.52297e-09
-2.65444e-09
1.72201e-09
-3.25028e-09
1.91941e-09
-3.9017e-09
2.11429e-09
-4.6079e-09
2.30592e-09
-5.36788e-09
2.49364e-09
-6.18045e-09
2.67692e-09
-7.04432e-09
2.85531e-09
-7.95805e-09
3.02841e-09
-8.92009e-09
3.1959e-09
-9.92882e-09
3.35749e-09
-1.09825e-08
3.51296e-09
-1.20794e-08
3.66212e-09
-1.32177e-08
3.8048e-09
-1.43955e-08
3.94088e-09
-1.5611e-08
4.07026e-09
-1.6862e-08
4.19286e-09
-1.81468e-08
4.30863e-09
-1.94634e-08
4.41752e-09
-2.08097e-08
4.51951e-09
-2.21837e-08
4.61459e-09
-2.35835e-08
4.70277e-09
-2.5007e-08
4.78407e-09
-2.64524e-08
4.8585e-09
-2.79174e-08
4.92611e-09
-2.94003e-08
4.98694e-09
-3.0899e-08
5.04104e-09
-3.24116e-08
5.08846e-09
-3.39361e-08
5.12927e-09
-3.54707e-08
5.16354e-09
-3.70133e-08
5.19134e-09
-3.85622e-08
5.21276e-09
-4.01155e-08
5.22786e-09
-4.16714e-08
5.23674e-09
-4.3228e-08
5.23948e-09
-4.47835e-08
5.23618e-09
-4.63363e-08
5.22693e-09
-4.78845e-08
5.21183e-09
-4.94265e-08
5.19097e-09
-5.09606e-08
5.16446e-09
-5.24852e-08
5.13239e-09
-5.39986e-08
5.09488e-09
-5.54993e-08
5.05202e-09
-5.69856e-08
5.00393e-09
-5.84562e-08
4.9507e-09
-5.99095e-08
4.89246e-09
-6.13439e-08
4.8293e-09
-6.27582e-08
4.76134e-09
-6.4151e-08
4.6887e-09
-6.55208e-08
4.61147e-09
-6.68663e-08
4.52979e-09
-6.81862e-08
4.44375e-09
-6.94794e-08
4.35347e-09
-7.07445e-08
4.25907e-09
-7.19803e-08
4.16067e-09
-7.31858e-08
4.05838e-09
-7.43597e-08
3.95231e-09
-7.5501e-08
3.84258e-09
-7.66087e-08
3.72931e-09
-7.76817e-08
3.61263e-09
-7.8719e-08
3.49263e-09
-7.97198e-08
3.36946e-09
-8.0683e-08
3.24322e-09
-8.16078e-08
3.11404e-09
-8.24934e-08
2.98203e-09
-8.33389e-08
2.84732e-09
-8.41436e-08
2.71003e-09
-8.49068e-08
2.57028e-09
-8.56278e-08
2.4282e-09
-8.63059e-08
2.28391e-09
-8.69404e-08
2.13754e-09
-8.75309e-08
1.9892e-09
-8.80768e-08
1.83903e-09
-8.85775e-08
1.68716e-09
-8.90326e-08
1.5337e-09
-8.94416e-08
1.3788e-09
-8.98043e-08
1.22257e-09
-9.01201e-08
1.06515e-09
-9.03889e-08
9.06678e-10
-9.06102e-08
7.47272e-10
-9.0784e-08
5.87071e-10
-9.091e-08
4.26208e-10
-9.0988e-08
2.64818e-10
-9.1018e-08
1.03037e-10
-9.09998e-08
-5.89996e-11
-9.09334e-08
-2.21154e-10
-9.08189e-08
-3.83289e-10
-9.06563e-08
-5.45264e-10
-9.04456e-08
-7.06941e-10
-9.01871e-08
-8.68177e-10
-8.98809e-08
-1.02883e-09
-8.95271e-08
-1.18876e-09
-8.91262e-08
-1.34783e-09
-8.86783e-08
-1.50588e-09
-8.81838e-08
-1.66278e-09
-8.76431e-08
-1.81837e-09
-8.70567e-08
-1.97252e-09
-8.6425e-08
-2.12507e-09
-8.57486e-08
-2.27589e-09
-8.50279e-08
-2.42481e-09
-8.42637e-08
-2.5717e-09
-8.34566e-08
-2.7164e-09
-8.26072e-08
-2.85877e-09
-8.17163e-08
-2.99865e-09
-8.07847e-08
-3.13591e-09
-7.98132e-08
-3.27038e-09
-7.88027e-08
-3.40193e-09
-7.77542e-08
-3.5304e-09
-7.66685e-08
-3.65564e-09
-7.55466e-08
-3.77751e-09
-7.43897e-08
-3.89585e-09
-7.31988e-08
-4.01053e-09
-7.1975e-08
-4.12139e-09
-7.07196e-08
-4.2283e-09
-6.94337e-08
-4.3311e-09
-6.81185e-08
-4.42965e-09
-6.67755e-08
-4.52382e-09
-6.54059e-08
-4.61346e-09
-6.40112e-08
-4.69843e-09
-6.25927e-08
-4.77859e-09
-6.11519e-08
-4.85382e-09
-5.96903e-08
-4.92398e-09
-5.82095e-08
-4.98893e-09
-5.6711e-08
-5.04856e-09
-5.51964e-08
-5.10273e-09
-5.36675e-08
-5.15132e-09
-5.21258e-08
-5.19422e-09
-5.05731e-08
-5.2313e-09
-4.90111e-08
-5.26245e-09
-4.74417e-08
-5.28757e-09
-4.58666e-08
-5.30656e-09
-4.42876e-08
-5.31929e-09
-4.27067e-08
-5.3257e-09
-4.11257e-08
-5.32567e-09
-3.95466e-08
-5.31912e-09
-3.79712e-08
-5.30598e-09
-3.64016e-08
-5.28617e-09
-3.48397e-08
-5.25961e-09
-3.32875e-08
-5.22624e-09
-3.17471e-08
-5.18601e-09
-3.02204e-08
-5.13886e-09
-2.87094e-08
-5.08476e-09
-2.72163e-08
-5.02366e-09
-2.57431e-08
-4.95555e-09
-2.42918e-08
-4.88041e-09
-2.28645e-08
-4.79822e-09
-2.14631e-08
-4.709e-09
-2.00898e-08
-4.61276e-09
-1.87466e-08
-4.50953e-09
-1.74354e-08
-4.39935e-09
-1.61583e-08
-4.28228e-09
-1.49172e-08
-4.15839e-09
-1.3714e-08