/*--------------------------------*- C++ -*----------------------------------*\
  =========                 |
  \\      /  F ield         | OpenFOAM: The Open Source CFD Toolbox
   \\    /   O peration     | Website:  https://openfoam.org
    \\  /    A nd           | Version:  7
     \\/     M anipulation  |
\*---------------------------------------------------------------------------*/
FoamFile
{
    version     2.0;
    format      ascii;
    class       volScalarField;
    location    "0.26";
    object      p;
}
// * * * * * * * * * * * * * * * * * * * * * * * * * * * * * * * * * * * * * //

dimensions      [0 2 -2 0 0 0 0];

internalField   nonuniform List<scalar> 
10000
(
3.46393e-06
0.000101454
-0.000121677
-0.000710436
-0.00161479
-0.00277847
-0.00414448
-0.00565802
-0.00726941
-0.00893468
-0.0106152
-0.0122775
-0.0138921
-0.0154337
-0.0168803
-0.018213
-0.0194156
-0.0204743
-0.0213776
-0.0221159
-0.0226812
-0.0230676
-0.0232701
-0.0232856
-0.0231118
-0.0227479
-0.0221939
-0.021451
-0.0205209
-0.0194066
-0.0181115
-0.0166398
-0.0149965
-0.0131871
-0.0112176
-0.0090948
-0.00682571
-0.00441796
-0.0018796
0.000780932
0.00355483
0.00643292
0.00940571
0.0124634
0.0155958
0.0187928
0.0220435
0.0253374
0.0286634
0.0320104
0.0353672
0.0387224
0.0420646
0.0453824
0.0486643
0.0518989
0.055075
0.0581811
0.0612063
0.0641397
0.0669705
0.0696884
0.0722834
0.0747456
0.0770659
0.0792354
0.0812459
0.0830896
0.0847597
0.0862496
0.087554
0.088668
0.0895878
0.0903105
0.0908344
0.0911586
0.0912835
0.091211
0.090944
0.0904871
0.0898462
0.0890291
0.0880452
0.0869058
0.0856243
0.0842162
0.0826997
0.0810954
0.0794269
0.077721
0.0760083
0.0743232
0.0727046
0.0711962
0.0698467
0.0687091
0.0678373
0.0672826
0.0670876
0.0671985
-8.93912e-05
6.87512e-06
-0.000210391
-0.000736486
-0.00152039
-0.00252257
-0.00370131
-0.00501332
-0.0064174
-0.00787574
-0.00935423
-0.0108224
-0.0122532
-0.0136229
-0.0149106
-0.0160981
-0.0171699
-0.0181123
-0.0189139
-0.0195651
-0.020058
-0.0203862
-0.0205448
-0.0205301
-0.0203397
-0.0199724
-0.0194278
-0.0187065
-0.0178101
-0.0167408
-0.0155018
-0.0140969
-0.0125304
-0.0108074
-0.00893348
-0.00691485
-0.00475812
-0.00247039
-5.91972e-05
0.00246753
0.00510149
0.00783403
0.0106562
0.0135586
0.0165318
0.019566
0.0226511
0.0257769
0.028933
0.0321088
0.0352937
0.0384769
0.0416476
0.044795
0.0479081
0.0509764
0.0539889
0.0569351
0.0598045
0.0625868
0.0652721
0.0678505
0.0703126
0.0726494
0.0748521
0.0769127
0.0788234
0.0805772
0.0821675
0.0835888
0.0848359
0.0859046
0.0867916
0.0874946
0.088012
0.0883435
0.0884899
0.0884533
0.0882368
0.0878453
0.0872847
0.0865629
0.0856892
0.0846746
0.0835324
0.0822774
0.0809271
0.0795011
0.0780217
0.0765138
0.0750055
0.0735278
0.072115
0.0708045
0.0696367
0.0686531
0.067893
0.0673923
0.0671977
0.0673091
0.000134011
0.000224791
7.78495e-06
-0.000486027
-0.00120145
-0.00210551
-0.00316438
-0.00434201
-0.00560335
-0.00691551
-0.00824824
-0.009574
-0.0108681
-0.0121083
-0.0132751
-0.0143514
-0.015322
-0.0161739
-0.0168959
-0.0174787
-0.0179144
-0.0181966
-0.0183202
-0.0182816
-0.018078
-0.017708
-0.017171
-0.0164673
-0.0155981
-0.0145655
-0.0133721
-0.0120214
-0.0105174
-0.00886479
-0.00706883
-0.00513525
-0.00307027
-0.000880598
0.00142665
0.00384396
0.00636345
0.0089769
0.0116758
0.0144512
0.0172941
0.0201951
0.0231446
0.0261329
0.02915
0.0321858
0.0352302
0.0382729
0.0413036
0.0443119
0.0472874
0.0502199
0.0530992
0.0559151
0.0586578
0.0613173
0.0638843
0.0663495
0.0687039
0.0709389
0.0730465
0.0750189
0.0768489
0.07853
0.0800561
0.0814219
0.0826229
0.0836551
0.0845158
0.0852027
0.0857147
0.0860519
0.0862151
0.0862066
0.0860298
0.0856895
0.0851917
0.0845441
0.0837558
0.0828376
0.0818022
0.080664
0.0794395
0.0781472
0.076808
0.075445
0.0740838
0.0727525
0.0714815
0.0703033
0.0692523
0.0683631
0.0676677
0.0671963
0.0670023
0.0671149
0.000721495
0.000751624
0.000502503
7.92136e-06
-0.000681116
-0.00153474
-0.00252337
-0.0036159
-0.00478192
-0.00599259
-0.00722102
-0.00844243
-0.00963426
-0.0107762
-0.01185
-0.0128395
-0.0137306
-0.0145108
-0.0151694
-0.0156972
-0.0160868
-0.0163317
-0.0164271
-0.016369
-0.0161549
-0.015783
-0.0152527
-0.0145641
-0.0137181
-0.0127165
-0.0115618
-0.0102571
-0.00880625
-0.0072135
-0.0054838
-0.00362256
-0.00163569
0.000470476
0.00268916
0.00501322
0.00743512
0.00994703
0.0125408
0.0152079
0.0179396
0.0207271
0.023561
0.0264321
0.0293308
0.0322475
0.0351723
0.0380954
0.041007
0.043897
0.0467557
0.049573
0.0523393
0.0550448
0.0576801
0.0602357
0.0627027
0.0650722
0.0673356
0.0694849
0.0715123
0.0734105
0.0751727
0.0767927
0.0782648
0.0795841
0.0807463
0.081748
0.0825863
0.0832595
0.0837667
0.0841079
0.0842844
0.0842984
0.0841533
0.0838539
0.0834061
0.0828174
0.0820966
0.0812541
0.080302
0.079254
0.0781257
0.0769344
0.0756994
0.0744423
0.0731863
0.0719566
0.0707804
0.0696863
0.0687042
0.0678643
0.0671946
0.0667233
0.0665012
0.0665626
0.00162604
0.00153823
0.00122011
0.000696123
4.60622e-06
-0.000827861
-0.00177526
-0.0028108
-0.0039082
-0.00504229
-0.00618935
-0.00732726
-0.00843569
-0.00949609
-0.0104917
-0.0114077
-0.0122306
-0.0129488
-0.0135523
-0.0140323
-0.0143814
-0.0145937
-0.0146643
-0.0145894
-0.0143663
-0.0139934
-0.0134697
-0.0127954
-0.0119712
-0.0109986
-0.00988001
-0.00861821
-0.00721674
-0.00567967
-0.00401164
-0.00221776
-0.000303603
0.00172479
0.00386098
0.00609816
0.00842915
0.0108464
0.0133422
0.0159084
0.0185366
0.0212183
0.0239446
0.0267066
0.0294951
0.0323008
0.0351144
0.0379264
0.0407272
0.0435075
0.0462575
0.048968
0.0516295
0.0542327
0.0567685
0.0592281
0.0616026
0.0638836
0.0660631
0.0681332
0.0700867
0.0719164
0.0736161
0.0751799
0.0766023
0.0778787
0.0790052
0.0799785
0.080796
0.0814562
0.0819584
0.0823027
0.0824904
0.0825238
0.0824062
0.0821422
0.0817378
0.0812
0.0805372
0.0797595
0.0788783
0.0779064
0.0768583
0.0757503
0.0746002
0.0734275
0.0722532
0.0711002
0.0699923
0.0689548
0.0680136
0.0671949
0.0665236
0.0660251
0.0657397
0.0656934
0.00279454
0.00254765
0.00212996
0.00155086
0.000831159
-5.97088e-06
-0.00093768
-0.00194118
-0.00299394
-0.00407414
-0.00516097
-0.00623487
-0.00727765
-0.00827258
-0.00920445
-0.0100595
-0.0108255
-0.0114916
-0.0120483
-0.0124874
-0.0128021
-0.0129864
-0.0130359
-0.0129469
-0.0127166
-0.0123435
-0.0118267
-0.011166
-0.0103622
-0.00941668
-0.00833151
-0.00710939
-0.0057536
-0.004268
-0.00265695
-0.000925279
0.000921692
0.00287823
0.00493821
0.00709512
0.0093421
0.011672
0.0140773
0.0165502
0.0190828
0.0216667
0.0242937
0.0269549
0.0296417
0.0323452
0.0350562
0.0377657
0.0404646
0.0431437
0.0457939
0.0484062
0.0509713
0.0534806
0.0559252
0.0582965
0.0605863
0.0627863
0.064889
0.0668867
0.0687725
0.0705398
0.0721824
0.0736947
0.0750717
0.076309
0.0774027
0.0783499
0.0791482
0.0797961
0.080293
0.0806392
0.080836
0.0808855
0.0807911
0.0805572
0.0801894
0.0796945
0.0790806
0.078357
0.0775344
0.0766248
0.0756418
0.0746003
0.0735165
0.0724082
0.0712942
0.070195
0.0691315
0.068126
0.0672008
0.0663783
0.0656806
0.0651303
0.0647514
0.0645561
0.00417392
0.00374126
0.00320088
0.00254511
0.00177496
0.000910421
-2.83948e-05
-0.00102236
-0.00205237
-0.00309961
-0.00414598
-0.00517428
-0.0061684
-0.00711337
-0.00799546
-0.00880222
-0.00952242
-0.0101461
-0.0106645
-0.0110699
-0.0113561
-0.0115174
-0.0115496
-0.0114492
-0.0112137
-0.0108414
-0.0103315
-0.00968383
-0.00889908
-0.00797853
-0.00692411
-0.00573836
-0.00442439
-0.00298584
-0.00142684
0.000247995
0.00203361
0.00392454
0.00591493
0.00799854
0.0101688
0.0124189
0.0147416
0.0171294
0.0195747
0.0220695
0.0246058
0.0271753
0.0297694
0.0323796
0.0349972
0.0376135
0.0402197
0.0428069
0.0453664
0.0478894
0.0503672
0.0527913
0.0551532
0.0574448
0.0596578
0.0617847
0.0638179
0.0657503
0.0675752
0.0692861
0.0708773
0.0723433
0.0736793
0.0748812
0.0759452
0.0768686
0.0776491
0.0782854
0.0787769
0.0791238
0.0793274
0.0793899
0.0793144
0.079105
0.0787672
0.0783073
0.077733
0.0770528
0.0762768
0.0754163
0.0744835
0.0734921
0.072457
0.0713941
0.0703204
0.0692538
0.0682129
0.067217
0.0662852
0.0654366
0.0646909
0.0640676
0.0635722
0.0632008
0.00571426
0.00507963
0.00440003
0.00365061
0.00281191
0.0019011
0.000935987
-6.76282e-05
-0.00109371
-0.00212619
-0.00314945
-0.00414849
-0.00510913
-0.00601812
-0.00686319
-0.00763313
-0.00831779
-0.00890809
-0.00939601
-0.00977458
-0.0100378
-0.0101808
-0.0101993
-0.0100903
-0.0098513
-0.00948083
-0.00897807
-0.00834293
-0.007576
-0.00667852
-0.00565233
-0.00449985
-0.00322404
-0.00182836
-0.000316765
0.00130635
0.00303616
0.00486743
0.00679453
0.00881151
0.0109121
0.0130896
0.0153372
0.0176477
0.0200137
0.0224276
0.0248817
0.0273678
0.0298778
0.0324036
0.0349366
0.0374685
0.0399907
0.0424949
0.0449724
0.0474148
0.0498138
0.0521612
0.0544486
0.0566683
0.0588125
0.0608736
0.0628445
0.0647183
0.0664884
0.0681489
0.0696939
0.0711184
0.0724177
0.0735877
0.0746251
0.0755269
0.0762911
0.0769164
0.0774022
0.0777488
0.0779572
0.0780296
0.0779688
0.0777789
0.0774648
0.0770326
0.0764891
0.0758427
0.0751024
0.0742785
0.0733825
0.0724267
0.0714245
0.0703903
0.0693391
0.0682867
0.0672494
0.0662438
0.0652864
0.064393
0.0635813
0.0628681
0.0622395
0.061675
0.00737115
0.00652583
0.00569593
0.00484002
0.00391847
0.00294608
0.00193876
0.000909369
-0.000128823
-0.00116223
-0.00217747
-0.00316159
-0.00410223
-0.00498773
-0.00580725
-0.00655078
-0.00720924
-0.00777446
-0.00823918
-0.00859709
-0.00884275
-0.00897162
-0.00897996
-0.00886486
-0.00862416
-0.00825648
-0.00776109
-0.00713797
-0.00638771
-0.00551152
-0.00451119
-0.00338905
-0.00214794
-0.00079118
0.000677447
0.00225372
0.003933
0.00571027
0.00758012
0.00953683
0.0115743
0.0136863
0.015866
0.0181066
0.0204011
0.0227419
0.0251217
0.0275326
0.0299669
0.0324165
0.0348733
0.0373292
0.039776
0.0422055
0.0446094
0.0469796
0.0493079
0.0515865
0.0538074
0.0559629
0.0580454
0.0600479
0.0619633
0.0637848
0.0655064
0.0671219
0.0686259
0.0700135
0.0712801
0.0724218
0.0734352
0.0743176
0.0750669
0.0756818
0.0761618
0.076507
0.0767184
0.0767979
0.0767482
0.076573
0.0762769
0.0758654
0.0753451
0.0747234
0.0740088
0.0732107
0.0723393
0.0714059
0.0704227
0.0694023
0.0683581
0.0673039
0.066254
0.0652226
0.0642234
0.0632699
0.0623778
0.0615617
0.0607885
0.0600216
0.00910606
0.00804641
0.00705933
0.0060876
0.00507216
0.00402593
0.00296334
0.00189469
0.00083077
-0.000217022
-0.00123735
-0.00221912
-0.00315166
-0.00402481
-0.00482906
-0.00555559
-0.00619635
-0.00674406
-0.00719225
-0.00753526
-0.00776821
-0.00788702
-0.00788835
-0.00776957
-0.00752879
-0.00716477
-0.00667696
-0.00606538
-0.00533068
-0.00447408
-0.00349734
-0.00240272
-0.00119297
0.000128677
0.00155859
0.00309271
0.00472655
0.00645528
0.0082737
0.0101763
0.0121572
0.0142102
0.0163291
0.018507
0.0207373
0.0230126
0.0253259
0.0276695
0.030036
0.0324175
0.0348063
0.0371944
0.0395739
0.0419368
0.0442752
0.0465811
0.0488468
0.0510643
0.0532262
0.0553248
0.057353
0.0593036
0.06117
0.0629455
0.0646242
0.0662002
0.0676682
0.0690233
0.0702611
0.0713778
0.07237
0.073235
0.0739709
0.0745762
0.0750503
0.0753933
0.075606
0.0756901
0.075648
0.0754832
0.0751999
0.074803
0.0742987
0.0736937
0.0729957
0.0722133
0.0713558
0.0704332
0.0694564
0.0684368
0.0673861
0.0663163
0.0652399
0.0641688
0.0631148
0.0620887
0.0611048
0.0601763
0.0592512
0.0582777
0.0108857
0.00961151
0.00846346
0.00736939
0.00625174
0.00512202
0.00399359
0.0028745
0.00177341
0.000699754
-0.000336958
-0.00132732
-0.0022622
-0.00313285
-0.00393099
-0.00464895
-0.00527965
-0.00581671
-0.00625443
-0.00658779
-0.0068125
-0.00692494
-0.00692217
-0.00680191
-0.0065625
-0.00620294
-0.00572282
-0.00512229
-0.00440206
-0.00356337
-0.002608
-0.00153817
-0.000356574
0.000933655
0.00232898
0.00382547
0.0054188
0.00710429
0.00887689
0.0107313
0.0126618
0.0146625
0.0167272
0.0188495
0.0210226
0.0232399
0.0254941
0.0277781
0.0300845
0.0324058
0.0347344
0.0370626
0.0393827
0.0416869
0.0439677
0.0462171
0.0484276
0.0505917
0.0527018
0.0547508
0.0567314
0.0586369
0.0604606
0.0621962
0.0638377
0.0653794
0.0668162
0.0681431
0.069356
0.0704509
0.0714246
0.0722745
0.0729983
0.0735948
0.0740631
0.0744032
0.0746157
0.0747022
0.0746648
0.0745066
0.0742312
0.0738435
0.0733487
0.072753
0.0720636
0.071288
0.0704346
0.0695125
0.0685312
0.0675009
0.0664319
0.0653347
0.0642199
0.0630978
0.061978
0.0608693
0.0597852
0.0587374
0.0576561
0.0564752
0.0126813
0.0111946
0.00988398
0.00866329
0.00743733
0.00621667
0.00501393
0.00383527
0.00268747
0.00157824
0.000515482
-0.000492926
-0.00143925
-0.00231602
-0.00311615
-0.00383301
-0.00446049
-0.00499305
-0.00542574
-0.0057542
-0.00597469
-0.00608408
-0.00607984
-0.00596003
-0.0057233
-0.00536885
-0.00489646
-0.00430642
-0.00359953
-0.0027771
-0.00184092
-0.000793205
0.000363381
0.00162578
0.00299053
0.0044538
0.0060114
0.00765876
0.00939102
0.011203
0.0130891
0.0150438
0.0170609
0.0191342
0.0212574
0.0234236
0.0256261
0.0278579
0.0301117
0.0323803
0.0346564
0.0369323
0.0392007
0.041454
0.0436846
0.0458851
0.048048
0.0501658
0.0522314
0.0542376
0.0561774
0.0580442
0.0598314
0.0615329
0.0631427
0.0646553
0.0660655
0.0673686
0.0685603
0.0696368
0.0705947
0.0714315
0.0721449
0.0727334
0.0731962
0.0735329
0.0737442
0.0738312
0.0737957
0.0736406
0.0733691
0.0729855
0.0724945
0.0719017
0.0712136
0.0704369
0.0695791
0.0686484
0.0676531
0.0666022
0.0655048
0.0643699
0.0632067
0.062024
0.0608296
0.0596305
0.0584396
0.0572679
0.0560285
0.0546416
0.014468
0.0127721
0.011299
0.00994902
0.00861044
0.00729319
0.00600948
0.00476384
0.00356144
0.0024085
0.0013115
0.000276953
-0.000688671
-0.00157909
-0.00238829
-0.00311065
-0.00374095
-0.00427447
-0.00470698
-0.00503475
-0.0052546
-0.00536388
-0.0053605
-0.00524284
-0.00500986
-0.00466102
-0.00419628
-0.0036161
-0.00292139
-0.00211355
-0.00119439
-0.000166151
0.000968517
0.00220659
0.00354469
0.00497905
0.00650557
0.00811982
0.00981703
0.0115922
0.0134399
0.0153546
0.0173305
0.0193615
0.0214414
0.0235635
0.0257214
0.0279081
0.0301167
0.0323401
0.034571
0.0368022
0.0390263
0.041236
0.043424
0.0455828
0.0477052
0.049784
0.051812
0.0537822
0.0556878
0.0575221
0.0592789
0.060952
0.0625355
0.064024
0.0654123
0.0666958
0.0678701
0.0689314
0.0698764
0.0707023
0.0714069
0.0719885
0.0724462
0.0727794
0.0729885
0.0730744
0.0730387
0.0728837
0.0726124
0.0722285
0.0717363
0.0711407
0.0704475
0.0696627
0.068793
0.0678457
0.0668281
0.065748
0.0646135
0.0634324
0.0622125
0.0609613
0.0596851
0.0583895
0.0570872
0.0557884
0.0543904
0.0528004
0.0162244
0.0143233
0.0126886
0.0112081
0.00975397
0.00833595
0.00696607
0.0056475
0.00438405
0.00318064
0.00204249
0.000974925
-1.67375e-05
-0.000927288
-0.00175172
-0.00248533
-0.00312376
-0.00366304
-0.00409962
-0.0044304
-0.00465275
-0.0047645
-0.00476396
-0.00464988
-0.00442153
-0.00407861
-0.00362131
-0.00305026
-0.0023665
-0.00157152
-0.000667197
0.000344187
0.00145999
0.00267721
0.0039925
0.00540216
0.00690218
0.0084882
0.0101556
0.0118994
0.0137144
0.0155952
0.0175361
0.0195312
0.0215743
0.0236592
0.0257793
0.027928
0.0300985
0.0322838
0.0344768
0.0366705
0.0388577
0.0410311
0.0431837
0.045308
0.0473971
0.0494437
0.0514408
0.0533816
0.0552594
0.0570676
0.0587998
0.0604502
0.0620127
0.0634821
0.0648532
0.0661212
0.0672819
0.0683314
0.0692662
0.0700836
0.0707812
0.0713572
0.0718104
0.0721402
0.0723465
0.0724302
0.0723923
0.072235
0.0719607
0.0715727
0.0710748
0.0704714
0.0697675
0.0689686
0.0680805
0.0671096
0.0660625
0.064946
0.063767
0.0625323
0.0612487
0.0599226
0.0585589
0.0571622
0.0557449
0.0543173
0.0527612
0.0509717
0.0179317
0.0158297
0.0140352
0.0124236
0.0108521
0.00933031
0.00787027
0.00647407
0.00514432
0.00388486
0.00269981
0.00159342
0.000569989
-0.000366254
-0.00121122
-0.00196107
-0.0026122
-0.00316139
-0.00360575
-0.00394275
-0.0041703
-0.0042867
-0.00429066
-0.00418132
-0.00395822
-0.00362136
-0.00317114
-0.00260836
-0.00193423
-0.00115034
-0.000258645
0.000738528
0.00183852
0.00303832
0.0043346
0.00572373
0.00720172
0.00876431
0.0104069
0.0121248
0.0139127
0.0157655
0.0176775
0.0196429
0.0216558
0.02371
0.0257991
0.0279167
0.030056
0.0322102
0.0343725
0.0365358
0.0386932
0.0408375
0.0429616
0.0450585
0.0471211
0.0491423
0.0511153
0.0530333
0.0548895
0.0566776
0.0583912
0.0600244
0.0615713
0.0630265
0.0643849
0.0656418
0.0667927
0.0678337
0.0687613
0.0695727
0.0702652
0.0708369
0.0712865
0.0716131
0.0718165
0.071897
0.0718556
0.0716939
0.071414
0.0710187
0.0705114
0.0698958
0.0691765
0.0683581
0.067446
0.0664457
0.0653628
0.0642036
0.0629738
0.0616795
0.0603265
0.0589201
0.0574644
0.0559629
0.0544284
0.052871
0.0511581
0.0491729
0.0195732
0.0172749
0.0153227
0.0135803
0.0118903
0.0102625
0.00870936
0.00723183
0.00583159
0.00451152
0.00327481
0.00212475
0.00106472
9.80761e-05
-0.000771944
-0.00154226
-0.00221004
-0.0027727
-0.00322798
-0.00357393
-0.00380895
-0.00393181
-0.00394162
-0.00383787
-0.00362044
-0.00328956
-0.00284589
-0.00229041
-0.00162448
-0.000849823
3.15148e-05
0.00101715
0.00210437
0.00329017
0.00457124
0.00594393
0.00740433
0.00894823
0.0105711
0.0122683
0.0140347
0.0158651
0.0177541
0.0196961
0.0216851
0.0237151
0.0257799
0.027873
0.029988
0.0321181
0.0342565
0.0363964
0.038531
0.0406531
0.0427558
0.0448321
0.046875
0.0488776
0.050833
0.0527345
0.0545755
0.0563495
0.0580503
0.0596718
0.0612084
0.0626544
0.0640048
0.0652547
0.0663997
0.0674357
0.0683592
0.0691671
0.0698566
0.0704258
0.0708729
0.0711969
0.0713974
0.0714742
0.0714282
0.0712605
0.0709729
0.0705677
0.0700477
0.0694164
0.0686775
0.0678353
0.0668943
0.0658593
0.0647356
0.0635282
0.0622424
0.0608834
0.0594562
0.0579653
0.056414
0.0548051
0.0531515
0.051464
0.0495958
0.0474188
0.0211345
0.0186442
0.0165364
0.0146638
0.0128549
0.0111199
0.0094713
0.00790961
0.00643555
0.0050512
0.00375892
0.00256117
0.00146052
0.000459518
-0.000439349
-0.00123372
-0.00192144
-0.00250057
-0.00296941
-0.00332657
-0.00357092
-0.00370168
-0.00371836
-0.00362079
-0.00340916
-0.003084
-0.00264616
-0.00209686
-0.0014376
-0.00067023
0.000203086
0.00117989
0.00225743
0.00343267
0.00470227
0.00606263
0.00750983
0.00903971
0.0106478
0.0123295
0.0140798
0.0158936
0.0177655
0.01969
0.0216613
0.0236735
0.0257204
0.0277958
0.0298931
0.0320058
0.0341273
0.0362507
0.0383693
0.040476
0.0425642
0.0446267
0.0466566
0.0486472
0.0505916
0.052483
0.0543149
0.0560808
0.0577745
0.05939
0.0609214
0.0623633
0.0637103
0.0649576
0.0661006
0.0671353
0.0680578
0.0688649
0.0695539
0.0701222
0.0705682
0.0708906
0.0710884
0.0711616
0.0711103
0.0709355
0.0706385
0.0702212
0.0696861
0.0690359
0.0682741
0.0674042
0.0664302
0.0653564
0.0641872
0.0629273
0.0615811
0.0601531
0.0586477
0.0570688
0.0554191
0.0537007
0.0519271
0.0501094
0.0480876
0.0457226
0.0226024
0.0199241
0.0176633
0.0156613
0.0137334
0.0118902
0.0101447
0.00849668
0.00694619
0.00549463
0.00414362
0.00289491
0.00175031
0.000711692
-0.000219165
-0.00104056
-0.00175096
-0.00234901
-0.00283358
-0.00320376
-0.0034589
-0.00359864
-0.00362288
-0.00353179
-0.00332588
-0.00300593
-0.00257305
-0.00202864
-0.00137438
-0.000612258
0.000255452
0.0012262
0.00229718
0.00346531
0.00472722
0.00607931
0.00751768
0.00903818
0.0106364
0.0123077
0.0140473
0.0158501
0.0177107
0.0196237
0.0215835
0.0235841
0.0256196
0.0276836
0.0297699
0.031872
0.0339832
0.0360969
0.0382062
0.0403045
0.0423848
0.0444402
0.0464639
0.048449
0.0503887
0.0522763
0.0541053
0.0558691
0.0575615
0.0591765
0.0607081
0.0621507
0.0634991
0.0647483
0.0658935
0.0669304
0.0678553
0.0686647
0.0693555
0.0699252
0.0703717
0.0706935
0.0708895
0.0709591
0.0709024
0.0707197
0.0704122
0.0699813
0.0694289
0.0687575
0.0679698
0.0670691
0.0660588
0.0649426
0.0637243
0.062408
0.0609977
0.0594972
0.0579105
0.0562408
0.0544904
0.052661
0.0507666
0.048819
0.0466452
0.0440955
0.0239652
0.0211027
0.0186909
0.0165607
0.0145141
0.0125622
0.0107187
0.00898274
0.00735383
0.00583274
0.00442049
0.00311816
0.00192695
0.000848053
-0.00011735
-0.000968174
-0.00170346
-0.00232241
-0.00282439
-0.00320899
-0.003476
-0.00362545
-0.00365763
-0.00357306
-0.00337251
-0.00305708
-0.00262808
-0.00208711
-0.00143605
-0.000677015
0.000187596
0.00115514
0.00222273
0.00338723
0.00464524
0.00599314
0.00742703
0.00894278
0.010536
0.0122021
0.0139363
0.0157335
0.0175886
0.0194961
0.0214503
0.0234456
0.0254759
0.0275351
0.0296169
0.0317149
0.0338225
0.0359331
0.03804
0.0401365
0.0422156
0.0442706
0.0462946
0.0482807
0.0502222
0.0521123
0.0539445
0.0557122
0.0574092
0.0590292
0.0605663
0.0620149
0.0633695
0.0646249
0.0657765
0.0668197
0.0677505
0.0685652
0.0692606
0.069834
0.070283
0.0706057
0.0708009
0.0708676
0.0708055
0.0706147
0.0702959
0.0698502
0.0692791
0.0685845
0.0677688
0.0668348
0.0657854
0.0646238
0.0633533
0.0619776
0.0605001
0.0589242
0.0572534
0.0554907
0.0536379
0.0516962
0.0496806
0.0476034
0.0452791
0.0425477
0.025212
0.0221688
0.0196082
0.0173507
0.0151858
0.0131251
0.0111829
0.00935789
0.00764905
0.00605665
0.00458117
0.00322315
0.00198319
0.000861919
-0.000140059
-0.00102221
-0.0017841
-0.00242546
-0.00294613
-0.00334614
-0.00362573
-0.0037853
-0.0038255
-0.00374718
-0.00355143
-0.00323957
-0.00281318
-0.00227405
-0.00162423
-0.000866005
-1.88582e-06
0.000965377
0.00203281
0.00319721
0.00445515
0.00580297
0.00723674
0.00875235
0.0103454
0.0120114
0.0137455
0.0155427
0.0173978
0.0193056
0.0212604
0.0232565
0.0252879
0.0273486
0.0294324
0.0315328
0.0336434
0.0357576
0.0378687
0.03997
0.0420546
0.0441158
0.0461466
0.0481403
0.0500899
0.0519889
0.0538304
0.0556081
0.0573154
0.0589461
0.0604942
0.0619539
0.0633196
0.064586
0.0657483
0.0668017
0.0677421
0.0685655
0.0692686
0.0698482
0.0703018
0.0706273
0.070823
0.0708878
0.0708209
0.0706221
0.0702918
0.0698306
0.0692397
0.0685206
0.0676753
0.0667059
0.0656152
0.0644058
0.0630807
0.061643
0.0600958
0.0584422
0.0566852
0.0548276
0.0528708
0.0508159
0.0486787
0.0464722
0.0439987
0.0410881
0.0263331
0.0231121
0.0204046
0.018021
0.0157383
0.0135688
0.0115274
0.00961254
0.00782265
0.00615761
0.00461741
0.0032021
0.00191175
0.00074648
-0.000293622
-0.00120853
-0.00199832
-0.00266317
-0.00320339
-0.00361945
-0.00391197
-0.00408174
-0.00412975
-0.00405717
-0.00386538
-0.00355595
-0.0031307
-0.00259162
-0.00194095
-0.00118111
-0.000314764
0.000655236
0.00172582
0.00289373
0.00415546
0.00550731
0.00694535
0.00846544
0.0100632
0.0117341
0.0134734
0.015276
0.0171369
0.0190508
0.021012
0.023015
0.0250538
0.0271223
0.0292144
0.0313238
0.033444
0.0355683
0.0376903
0.039803
0.0418998
0.0439737
0.046018
0.0480257
0.04999
0.051904
0.0537611
0.0555547
0.0572782
0.0589254
0.06049
0.0619661
0.063348
0.0646302
0.0658077
0.0668756
0.0678295
0.0686652
0.0693791
0.0699679
0.0704286
0.070759
0.070957
0.0710211
0.0709504
0.0707442
0.0704024
0.0699256
0.0693143
0.0685698
0.0676936
0.0666875
0.0655537
0.0642947
0.062913
0.0614113
0.0597924
0.058059
0.056214
0.05426
0.052198
0.0500292
0.04777
0.0454344
0.0428127
0.0397248
0.0273191
0.0239228
0.0210701
0.0185614
0.0161615
0.0138834
0.0117427
0.00973739
0.00786569
0.00612703
0.00452101
0.00304721
0.00170527
0.000494812
-0.000584537
-0.00153322
-0.00235177
-0.00304081
-0.00360109
-0.00403346
-0.00433894
-0.00451869
-0.00457401
-0.00450639
-0.00431748
-0.00400912
-0.00358334
-0.00304235
-0.00238857
-0.00162457
-0.00075316
0.000222695
0.00129983
0.00247489
0.00374433
0.0051044
0.00655112
0.00808034
0.00968768
0.0113686
0.0131183
0.0149318
0.0168041
0.0187298
0.0207035
0.0227194
0.0247717
0.0268544
0.0289613
0.031086
0.0332223
0.0353634
0.0375027
0.0396336
0.0417491
0.0438424
0.0459067
0.0479349
0.0499202
0.0518557
0.0537347
0.0555503
0.0572961
0.0589655
0.0605522
0.0620502
0.0634534
0.0647565
0.0659539
0.0670407
0.0680121
0.068864
0.0695922
0.0701932
0.0706639
0.0710016
0.0712039
0.0712692
0.0711959
0.0709832
0.0706307
0.0701383
0.0695066
0.0687362
0.0678283
0.0667845
0.0656065
0.0642964
0.0628565
0.0612892
0.059597
0.0577824
0.0558479
0.0537961
0.0516279
0.0493443
0.0469629
0.0444983
0.0417291
0.0384652
0.0281613
0.0245919
0.0215955
0.0189626
0.016446
0.0140595
0.0118193
0.00972337
0.00776934
0.0059564
0.00428379
0.00275069
0.00135632
9.98768e-05
-0.00101946
-0.00200255
-0.00285036
-0.00356393
-0.00414441
-0.00459304
-0.0049112
-0.0051004
-0.00516225
-0.00509855
-0.00491121
-0.00460233
-0.00417416
-0.00362913
-0.00296981
-0.00219897
-0.00131953
-0.000334593
0.000752577
0.00193854
0.00321968
0.00459218
0.00605204
0.00759505
0.00921684
0.0109128
0.0126782
0.0145082
0.0163974
0.0183408
0.0203328
0.0223677
0.0244397
0.0265428
0.0286708
0.0308174
0.0329762
0.0351406
0.037304
0.0394596
0.0416005
0.0437198
0.0458106
0.0478659
0.0498788
0.0518422
0.0537493
0.0555932
0.0573672
0.0590648
0.0606794
0.0622048
0.0636349
0.0649638
0.0661861
0.0672964
0.0682898
0.0691618
0.0699082
0.0705249
0.0710087
0.0713564
0.0715655
0.0716338
0.0715597
0.0713419
0.0709795
0.0704724
0.0698204
0.0690242
0.0680844
0.0670022
0.0657792
0.0644171
0.0629179
0.0612837
0.0595169
0.0576197
0.0555946
0.0534439
0.0511686
0.0487696
0.0462654
0.0436717
0.0407553
0.0373163
0.0288514
0.0251105
0.0219716
0.0192152
0.0165826
0.0140879
0.0117484
0.00956158
0.00752492
0.00563731
0.00389763
0.00230472
0.000857416
-0.000445482
-0.00160519
-0.00262298
-0.00350021
-0.00423831
-0.00483881
-0.00530333
-0.00563359
-0.00583143
-0.00589877
-0.0058377
-0.00565039
-0.00533918
-0.00490656
-0.00435516
-0.00368773
-0.0029072
-0.00201664
-0.00101928
8.15119e-05
0.0012822
0.0025791
0.00396832
0.00544582
0.00700736
0.00864851
0.0103647
0.0121511
0.0140029
0.0159148
0.0178816
0.0198977
0.0219577
0.0240555
0.0261853
0.0283408
0.0305157
0.0327036
0.0348979
0.0370919
0.0392788
0.0414518
0.0436037
0.0457278
0.0478168
0.0498637
0.0518615
0.0538032
0.0556817
0.0574902
0.059222
0.0608704
0.0624289
0.0638913
0.0652515
0.0665038
0.0676425
0.0686626
0.0695591
0.0703275
0.0709637
0.071464
0.0718248
0.0720434
0.0721173
0.0720444
0.0718232
0.0714524
0.0709315
0.0702601
0.0694384
0.0684668
0.0673462
0.0660777
0.064663
0.0631037
0.0614018
0.0595593
0.0575785
0.0554617
0.0532111
0.0508278
0.0483126
0.0456851
0.042962
0.0398983
0.0362845
0.0293812
0.0254703
0.0221897
0.0193106
0.0165622
0.0139597
0.0115209
0.00924326
0.00712386
0.00516137
0.00335439
0.00170144
0.000200981
-0.00114853
-0.00234869
-0.00340115
-0.00430764
-0.00506996
-0.00569001
-0.00616975
-0.00651125
-0.00671664
-0.00678816
-0.00672817
-0.00653912
-0.00622357
-0.00578424
-0.00522396
-0.00454567
-0.00375247
-0.00284757
-0.00183432
-0.000716205
0.000503138
0.00181993
0.00323024
0.00472995
0.00631477
0.00798025
0.00972177
0.0115345
0.0134136
0.0153537
0.0173497
0.0193961
0.0214871
0.023617
0.0257797
0.027969
0.0301787
0.0324022
0.034633
0.0368643
0.0390892
0.0413008
0.0434922
0.0456561
0.0477855
0.0498732
0.0519119
0.0538946
0.0558142
0.0576635
0.0594358
0.061124
0.0627216
0.0642221
0.0656191
0.0669066
0.0680789
0.0691305
0.0700561
0.0708511
0.0715108
0.0720312
0.0724087
0.07264
0.0727222
0.072653
0.0724304
0.072053
0.0715198
0.07083
0.0699836
0.0689807
0.0678218
0.066508
0.0650404
0.0634205
0.0616502
0.0597314
0.0576661
0.0554567
0.0531055
0.0506133
0.0479812
0.0452297
0.0423765
0.0391651
0.0353761
0.029743
0.0256628
0.0222414
0.0192398
0.0163762
0.0136661
0.0111282
0.00875973
0.00655761
0.00452022
0.00264593
0.000932922
-0.000620642
-0.00201666
-0.00325706
-0.00434387
-0.00527917
-0.00606512
-0.00670396
-0.00719797
-0.00754955
-0.00776115
-0.0078353
-0.00777462
-0.00758181
-0.0072597
-0.0068112
-0.00623936
-0.00554729
-0.00473827
-0.00381565
-0.00278292
-0.00164368
-0.000401662
0.000939271
0.0023751
0.00390165
0.00551459
0.00720941
0.00898146
0.0108259
0.0127377
0.0147118
0.0167429
0.0188253
0.0209535
0.0231216
0.0253235
0.0275531
0.029804
0.0320697
0.0343436
0.0366188
0.0388884
0.0411455
0.043383
0.0455936
0.0477701
0.0499052
0.0519916
0.054022
0.0559892
0.0578858
0.0597049
0.0614392
0.063082
0.0646265
0.0660661
0.0673946
0.0686058
0.069694
0.0706537
0.0714798
0.0721674
0.0727122
0.07311
0.0733574
0.0734511
0.0733884
0.073167
0.0727852
0.0722414
0.0715348
0.0706649
0.0696316
0.0684351
0.0670761
0.0655557
0.0638752
0.0620361
0.0600404
0.0578901
0.0555873
0.0531345
0.0505326
0.0477826
0.0449063
0.0419223
0.0385623
0.0345972
0.029929
0.02568
0.022118
0.0189945
0.0160158
0.0131983
0.0105615
0.00810235
0.00581763
0.00370549
0.00176404
-8.81812e-06
-0.00161522
-0.00305738
-0.00433757
-0.00545815
-0.00642154
-0.00723025
-0.00788682
-0.0083939
-0.00875416
-0.00897037
-0.00904533
-0.00898194
-0.00878316
-0.00845204
-0.00799172
-0.00740544
-0.00669651
-0.00586837
-0.00492452
-0.00386858
-0.00270428
-0.00143545
-6.60458e-05
0.00139983
0.00295794
0.00460389
0.00633312
0.00814093
0.0100225
0.0119727
0.0139864
0.0160583
0.0181828
0.0203543
0.0225668
0.0248142
0.0270905
0.0293891
0.0317036
0.0340272
0.036353
0.0386742
0.0409836
0.043274
0.0455381
0.0477685
0.0499579
0.0520988
0.0541837
0.0562051
0.0581557
0.0600281
0.0618151
0.0635093
0.065104
0.0665923
0.0679675
0.0692233
0.0703536
0.0713526
0.0722148
0.072935
0.0735086
0.073931
0.0741983
0.0743071
0.0742541
0.0740368
0.073653
0.073101
0.0723794
0.0714876
0.0704251
0.0691919
0.0677885
0.0662156
0.0644745
0.0625666
0.0604937
0.0582577
0.055861
0.0533058
0.0505932
0.0477245
0.0447223
0.0416063
0.0380965
0.033954
0.0299313
0.0255138
0.0218114
0.018566
0.0154723
0.0125476
0.00981205
0.00726246
0.00489536
0.00270873
0.000700429
-0.00113188
-0.00279064
-0.00427836
-0.00559764
-0.00675116
-0.00774167
-0.00857199
-0.00924501
-0.00976367
-0.010131
-0.0103499
-0.0104237
-0.0103553
-0.0101481
-0.00980535
-0.00933035
-0.00872657
-0.00799752
-0.00714678
-0.00617803
-0.00509502
-0.0039016
-0.00260171
-0.0011994
0.000301149
0.00189561
0.00357954
0.00534831
0.00719718
0.00912124
0.0111154
0.0131745
0.0152932
0.0174658
0.0196866
0.0219498
0.0242492
0.0265785
0.0289314
0.0313013
0.0336813
0.0360646
0.0384441
0.0408126
0.0431629
0.0454874
0.0477788
0.0500294
0.0522317
0.054378
0.0564606
0.058472
0.0604045
0.0622506
0.064003
0.0656543
0.0671975
0.0686256
0.0699319
0.0711101
0.072154
0.0730576
0.0738155
0.0744226
0.0748741
0.0751656
0.0752933
0.0752537
0.0750438
0.074661
0.0741033
0.0733691
0.0724572
0.0713671
0.0700985
0.0686516
0.067027
0.0652257
0.063249
0.0610987
0.0587768
0.0562854
0.0536271
0.050803
0.0478143
0.0446849