/*--------------------------------*- C++ -*----------------------------------*\
  =========                 |
  \\      /  F ield         | OpenFOAM: The Open Source CFD Toolbox
   \\    /   O peration     | Website:  https://openfoam.org
    \\  /    A nd           | Version:  7
     \\/     M anipulation  |
\*---------------------------------------------------------------------------*/
FoamFile
{
    version     2.0;
    format      ascii;
    class       volScalarField;
    location    "0.783";
    object      T;
}
// * * * * * * * * * * * * * * * * * * * * * * * * * * * * * * * * * * * * * //

dimensions      [0 2 -2 0 0 0 0];

internalField   nonuniform List<scalar> 
12359
(
-4.35646e-76
3.99014e-62
5.60354e-208
9.77255e-41
5.24252e-70
-7.69767e-28
6.20265e-23
-7.90593e-26
1.95223e-18
-2.45164e-31
1.70329e-20
1.03855e-13
0.260696
-4.71681e-38
3.27291e-43
9.27032e-06
0.002426
2.71391e-113
-6.15359e-116
2.17895e-51
-3.34021e-36
2.44564e-15
-1.7365e-56
-1.31216e-48
2.75098e-59
-1.12623e-54
8.81562e-150
-1.46326e-152
2.12059e-123
3.51626e-141
7.42866e-136
-2.92162e-167
1.10266e-184
-2.34499e-144
-1.86157e-196
2.42304e-134
6.11463e-92
-1.75407e-78
2.71772e-73
1.08772e-83
-1.73698e-64
-4.36446e-81
-2.53125e-99
-1.74081e-102
3.29433e-127
-1.63262e-124
-3.19724e-130
-2.15224e-138
6.81126e-119
-2.04853e-147
1.3051e-155
-1.90914e-161
1.51521e-170
1.869e-111
-6.66896e-176
-1.46356e-181
1.10422e-104
-3.37265e-188
-8.87974e-191
1.37109e-193
1.17073e-178
-3.658e-202
-8.59731e-160
9.76972
-1.42852e-107
4.94557e-33
-1.63967e-94
3.85397e-164
-1.72705e-90
-1.13103e-08
119.418
-1.14197e-68
-1.57915e-210
-1.82575e-86
-7.93321e-46
2.90352e-199
1.78615e-173
3.96133e-206
6.72575e-97
-1.34884e-10
-3.7398e-27
-4.28852e-122
-6.37399e-263
-1.78305e-76
0.00157978
3.57521e-74
-4.70668e-120
4.72341e-170
0.962828
0.00051495
-5.12955e-228
3.15002
-9.37253e-230
-6.62189e-100
-2.50867e-80
7.71407e-52
-2.23837e-105
-1.71226e-100
2.45706e-50
-1.52415e-63
9.90195e-23
1.04999e-223
8.00562e-75
29.5332
-5.66759e-130
4.85225e-28
7.38035e-224
0.00210107
4.28749e-83
3.59295e-29
2.83956e-108
-7.90357e-122
-1.67388e-31
2.238e-26
-5.95275e-81
-1.72319e-153
1.9109e-25
-3.34294e-121
3.27705
-2.44633e-260
-1.98173e-108
4.2565e-23
1.32534e-168
1.87007e-36
-2.41923e-120
-3.42988e-144
1.4958e-16
-9.11342e-76
-3.62606e-206
-2.16884e-121
3.46099e-152
3.42289e-06
0.000142639
8.6812e-05
-1.3285e-225
7.04254e-37
8.6779e-152
2.92718e-38
3.81335e-219
1.91827e-17
-8.70873e-252
3.08505e-76
1.43054e-37
-5.23906e-224
6.74427e-18
2.57583e-28
-1.74652e-262
0.000663314
-2.02379e-129
8.66997e-27
1.48986e-49
3.23323e-221
7.55574e-37
7.99274e-167
-2.77668e-235
118.542
1.69543e-23
2.9437e-06
-6.01385e-106
-1.52856e-169
4.47243e-34
-3.97809e-168
2.33107e-36
5.97188e-37
-6.75715e-249
-3.66617e-145
8.68561e-35
5.75905e-24
1.27032e-38
0.877272
1.39946e-202
6.92922e-201
7.67284e-40
1.09273e-61
-1.24871e-131
7.82693e-18
3.36581e-125
1.51923e-126
-2.67688e-31
8.76371e-19
-3.12882e-38
2.55158e-233
-9.79748e-206
-3.95277e-121
1.19806e-51
4.76159e-16
-2.75802e-101
-4.10281e-84
1.55458e-48
-1.6822e-100
-1.08691e-82
3.26624e-53
1.18449e-54
1.4263e-165
1.26221e-28
40.2308
7.91211e-62
-1.36118e-100
7.03647e-37
-4.08918e-120
5.23946e-27
4.76375e-49
-3.98639e-64
2.44269e-29
5.61247e-21
6.18187e-233
6.54506e-20
-1.06548e-62
2.05128e-31
-9.9911e-110
3.74266e-244
5.47987e-15
1.13847e-14
154.779
1.42592e-15
-4.67883e-217
-5.70193e-101
-3.28052e-82
-2.33341e-100
1.97726e-73
1.11667e-26
-3.18991e-111
2.05546e-37
3.43869
-8.71334e-122
1.0548e-243
1.5542e-72
1.32273e-84
2.92349e-19
-5.25221e-98
-3.49388e-97
-1.41153e-250
3.41989e-18
-2.18802e-58
-1.42069e-84
-1.42249e-59
3.68466e-258
9.56229e-35
-3.08734e-83
8.95516e-05
-1.91773e-240
5.82968e-71
-1.47468e-91
4.10299e-10
3.49718e-32
0.000998505
-5.38059e-192
2.32389e-32
2.23615e-137
7.78878e-55
9.22101e-21
5.27822e-81
1.88962e-129
-2.76648e-97
1.30149
126.663
8.10566e-258
2.15761e-114
1.50794
182.814
-1.23367e-62
1.32897e-32
3.661e-21
3.06195e-29
6.69993e-62
59.1732
3.23653
1.12534e-30
6.23502e-116
6.31427e-37
4.73298e-39
2.38245e-51
8.76052e-38
-5.43718e-99
1.89802e-112
-3.53687e-242
5.14737e-114
8.74686
1.86973e-30
1.56828e-207
-1.82664e-221
4.89802e-29
8.45585e-115
2.01135e-95
2.15687e-72
-4.17714e-255
2.65589e-21
4.30604e-222
8.36593e-223
-5.61026e-169
2.64814e-37
-6.32979e-124
52.6232
1.15536e-225
1.5023e-223
9.67949e-74
-6.22773e-138
1.4534e-27
-3.64919e-85
-6.04509e-159
-1.6438e-227
7.98296
2.77297e-20
-2.06423e-228
-5.16214e-100
-1.44924e-86
-2.70027e-136
7.77277e-152
-8.34574e-154
-1.93778e-133
-9.00716e-117
-4.34431e-16
1.51434e-137
2.31747e-136
1.17363e-79
2.58644e-34
1.51306
6.37326e-134
-1.30535e-53
3.67943e-06
-8.84803e-222
2.18533e-45
-5.95737e-206
7.11495e-61
-3.18086e-222
2.98843e-132
2.76114e-16
5.93788e-42
1.16058e-16
9.10084e-97
-8.17271e-92
7.63573e-55
7.7745e-51
-1.07943e-90
2.9014e-55
3.07985e-55
1.21951e-188
1.22376e-177
1.55947e-177
4.57978e-177
2.18058e-176
0.000380435
1.33614e-253
1.60485e-25
2.27768e-38
5.19157e-54
1.19505e-35
2.94056e-41
3.85058e-74
3.77688e-63
1.77323e-41
3.51326e-64
-3.25458e-54
1.74835e-31
9.92965e-31
6.98161e-31
-3.39372e-74
9.22364e-15
2.97657e-76
7.7067e-76
2.80649e-37
2.88899e-20
-4.75363e-124
2.42121e-175
2.11164e-61
-1.16428e-176
-8.86179e-124
169.732
17.7094
2.8857e-122
8.9539e-217
-3.9645e-227
1.60666e-238
3.35855e-42
-2.19611e-233
2.31521e-235
1.2304
3.71424e-37
0.000396685
1.07634e-124
1.65373e-31
1.98527e-116
-2.83983e-90
1.14688e-27
3.1354e-62
-9.81026e-40
1.1345e-63
1.3078e-124
8.2511e-207
9.60427e-38
1.59e-31
2.39003e-123
6.0912e-12
5.49738e-28
8.58119e-52
4.27754e-43
3.75388e-36
-6.21252e-216
10.7318
6.05535e-14
2.75906e-123
1.31142e-10
4.39522e-77
-1.32595e-249
1.1145e-249
-2.16634e-239
0.000746376
3.54801e-21
-6.54011e-53
1.77817e-46
3.17606e-50
-7.93904e-79
-2.98871e-38
1.48453e-44
7.36401e-11
1.49751
-7.65826e-12
1.09417e-53
6.64466e-32
1.49397e-81
1.18973e-28
-9.75416e-69
6.02223e-60
9.71591e-145
-1.23196e-69
9.94448e-40
-3.42612e-232
172.676
7.61564e-94
0.629438
8.63162e-33
9.48501e-105
9.58603e-30
0.98747
1.90848e-39
9.21268e-62
3.57537e-52
1.23928e-31
8.01249e-28
-1.87845e-117
-6.93084e-244
3.2835e-24
-7.75161e-221
1.39396e-06
8.45655e-151
-8.82731e-56
2.55754e-35
-2.75125e-99
0.0088744
1.02102e-24
-3.84722e-66
-4.75076e-117
3.18516e-05
5.6582e-194
1.37778e-128
3.93952e-15
2.50862e-215
-4.00081e-117
1.5025e-129
9.97999e-08
17.9379
-6.76974e-78
4.54081e-175
-4.60563e-33
4.73761e-37
9.87038e-46
2.71192e-35
1.74553e-38
2.77645e-187
-2.78422e-240
4.82407e-41
-1.81272e-225
2.06863e-36
3.65147e-46
3.38692e-29
3.46829e-128
2.43168e-25
1.16198e-13
-1.32212e-143
-1.29333e-79
1.02135e-121
-2.1322e-29
6.90252e-15
-1.58841e-218
1.29408e-39
2.38508e-40
4.68318e-84
2.62379e-38
6.21699e-150
2.007e-21
1.80425e-65
5.13368e-35
1.34453e-29
1.16254e-185
-2.45652e-80
5.17277e-10
0.000529055
-4.84157e-227
7.80523e-59
3.04517e-10
6.26744e-46
0.741465
-1.89352e-239
4.43337e-152
3.06416e-192
1.81807e-35
-5.70151e-63
-1.66999e-72
2.22658e-148
5.91226e-42
6.27131e-58
2.30718e-62
-5.57602e-107
0.000257556
1.32653e-215
0.000603505
1.22427e-171
149.898
2.83063e-64
9.26444e-11
-1.82439e-190
3.42881e-129
3.87606e-33
-7.79003e-123
-1.75716e-160
-2.09264e-99
-6.25106e-61
-1.32658e-61
3.18558e-12
4.30085e-24
3.20712e-24
-4.43847e-263
-1.1253e-122
4.89295e-44
0.000685036
-1.04676e-262
-1.37437e-211
1.49579e-39
5.36689e-190
8.08889e-17
1.18132
96.4098
-3.41851e-261
6.2197e-82
7.83782e-20
-4.03322e-70
-8.1181e-132
95.3525
-3.08786e-214
5.18467e-24
3.676e-34
-9.43762e-83
-1.62749e-134
-3.25997e-157
-6.56797e-101
6.00673e-39
1.03929e-64
-5.79113e-77
-6.21506e-260
2.51144e-204
-6.18801e-65
-5.14675e-125
4.10174e-28
8.324e-36
-1.38727e-167
6.43933e-210
7.46587e-31
167.024
2.20099e-137
3.24484e-11
-8.96766e-229
-2.35024e-76
3.43195e-24
3.85672e-46
1.36661e-21
9.36114e-29
-2.71961e-62
1.04436e-34
-5.01491e-246
-5.60339e-197
1.65298e-49
-9.78167e-73
-4.88202e-63
-1.08946e-74
2.05232e-236
5.18293e-208
-1.03751e-142
-8.18371e-51
2.78188e-30
-1.25084e-33
1.17007e-92
-8.34401e-32
5.69604e-38
2.92013e-60
-8.34557e-31
-8.13688e-56
0.775617
1.86379e-36
2.86757e-54
2.38875e-29
-2.34658e-198
1.22211e-23
1.08317e-32
1.16148e-263
1.73828e-215
4.27706e-189
3.16643e-192
4.0233e-07
5.70146e-60
8.56535e-91
-8.03617e-33
1.00874e-99
2.94602e-16
1.0073e-46
2.13758e-38
-1.20904e-141
4.6895e-11
1.35456e-237
-4.68698e-50
1.61383e-118
3.19846e-19
-4.30663e-30
6.46054e-68
2.31372e-59
8.55652
5.71065e-39
7.00678e-14
-1.19019e-68
1.14057e-11
0.55023
-9.00926e-180
-3.46268e-125
4.10699e-238
1.66656e-08
3.89992e-125
1.59821e-64
0.00738418
-1.75008e-212
6.87969e-63
2.17175e-32
1.5609e-65
-9.64629e-135
-6.62967e-69
3.40132e-172
-2.05473e-67
-4.22051e-173
-1.31567e-172
-1.65421e-71
1.85794e-36
6.89549e-39
7.47017e-64
1.11968e-08
4.46038e-47
17.6977
3.18359e-38
8.18002e-73
-2.46729e-69
6.02033e-40
1.07784e-52
4.06272e-53
0.606192
-6.81103e-36
2.40065e-55
1.35053e-53
-2.78789e-115
-2.13609e-126
2.18286e-31
-3.11185e-242
13.7647
-2.02699e-170
-6.90762e-35
1.47803e-22
2.75306e-07
1.00565e-19
6.95071e-31
1.1577e-33
-2.0558e-69
7.00194e-20
2.64724e-42
8.87674e-14
2.54149e-53
7.33169e-14
9.62836e-55
-4.28051e-255
-1.37913e-54
175.582
2.59987e-13
-3.32008e-96
2.79748e-247
-3.00106e-165
9.037e-88
-2.05463e-56
1.01852e-39
8.10057e-61
2.14955e-188
3.21292e-95
2.80601e-52
4.35954e-98
-3.43213e-107
4.61661e-13
1.79191e-105
3.1877e-44
1.52518e-27
-1.82716e-96
3.48418e-88
2.57264e-28
-8.52759e-265
-5.04403e-91
49.13
8.53972e-195
8.05316e-17
3.32403e-23
-2.35435e-89
4.52205e-33
1.48006e-27
-1.47767e-54
3.29828e-27
-7.58091e-126
-4.1296e-33
-2.72849e-132
2.82838e-56
1.03686e-29
-8.05202e-32
-1.01071e-124
4.56744e-34
1.03512e-06
5.80455e-47
-3.01657e-70
-1.6547e-118
5.1261e-23
6.06153e-07
-3.56147e-118
-3.75128e-218
1.71333e-54
-2.21587e-230
0.650932
6.26089e-54
1.53844e-12
3.07522e-68
3.61706e-62
12.5178
1.05619e-68
0.00149643
5.06292e-41
91.6969
1.41427e-43
-6.28831e-76
-3.04264e-68
1.56035e-85
0.00377167
0.000343339
6.19727e-176
3.68945e-173
-1.27412e-29
1.83319e-163
0.0034322
4.89971e-29
2.89376e-10
-2.80364e-118
131.738
0.0871681
4.86881e-53
-1.67823e-254
-1.91416e-129
-3.41829e-38
7.04819e-86
1.38651e-91
-4.86208e-83
1.93102e-39
1.61592e-43
38.6035
1.11314e-07
4.7728e-190
1.3685e-37
1.57974e-25
-2.41464e-28
-1.37393e-73
5.43856e-23
8.10156e-34
-4.10583e-37
9.82258e-134
4.6942e-252
1.21701e-21
1.48464e-18
9.07907e-63
-1.23057e-30
2.31978e-13
3.36808e-74
-3.88754e-56
-1.57249e-116
1.24486e-80
3.58608e-15
-5.45504e-78
1.42778e-26
1.18917e-40
1.18073e-49
6.30484e-99
-1.40741e-77
3.18934e-07
2.40061e-70
-6.88589e-74
39.0867
1.99101e-49
9.1207e-76
0.00953329
-1.69255e-258
7.57506e-69
3.35267e-61
-1.0186e-86
5.62507e-146
2.30648e-57
1.24474e-265
8.49658e-10
2.00564e-124
5.11327e-61
6.48997e-22
7.37321e-33
6.93451e-64
9.06846e-67
9.54445e-23
92.5121
-8.66786e-197
4.44131e-103
8.28433e-75
0.00723711
1.19744e-18
-2.22164e-126
3.02848
-4.64614e-252
-1.81215e-127
184.88
-1.06949e-95
-6.33292e-124
-2.08803e-120
6.32466e-42
-1.46019e-40
-1.92348e-193
-5.73126e-89
4.01067e-25
7.77642e-62
-2.37941e-65
-2.31357e-84
-1.68595e-178
-2.16622e-39
1.76494e-06
-6.39303e-68
-9.39936e-32
7.63305e-42
1.35073e-54
1.19576e-10
1.80328e-26
-7.41295e-83
-1.40926e-125
0.000435154
3.05569e-36
3.58434e-47
-2.06431e-115
9.72852e-191
-3.63875e-37
3.34862e-11
1.46513e-72
1.25109e-29
4.81591e-71
-1.08283e-81
-5.75146e-105
5.89401e-40
148.376
17.9509
9.31668e-39
-1.06467e-66
-1.93542e-106
4.20606e-41
0.0126509
-3.07643e-34
-7.57493e-128
6.67172e-12
5.622e-08
9.0853
7.98128e-91
89.5674
-2.80172e-193
-2.65177e-80
-2.42985e-189
3.89053e-11
5.79615e-46
83.7614
-2.77027e-132
0.0183912
3.11354e-162
-1.79168e-66
7.86094e-31
-5.4792e-88
1.61313e-12
0.114302
-8.56652e-94
8.43767e-98
4.43293e-69
-3.17649e-91
-2.64081e-95
6.40578e-14
1.95364e-48
3.6263e-66
1.10213e-15
-1.84476e-95
-3.4688e-186
-2.14601e-69
-6.04253e-164
2.98369e-27
5.7663e-69
2.53453e-09
3.65877e-11
-5.77031e-43
2.51829e-34
1.12248e-38
-6.6694e-69
0.012917
6.31522e-75
-7.87532e-100
6.60193e-236
1.35328e-11
-1.70442e-35
-1.17881e-133
1.01892e-26
-1.15328e-84
1.23601e-34
-6.97471e-38
-4.2804e-33
6.417e-40
86.3054
3.2016e-38
-8.72532e-42
0.119746
2.00021e-88
1.86807e-07
2.39681e-25
4.20282e-166
2.17583e-73
-6.99083e-106
-4.00279e-72
-1.3586e-247
-5.5577e-120
2.02026e-07
1.70006e-11
-4.90361e-121
202.501
1.8872e-29
-7.20349e-169
5.47816e-12
6.3887e-13
-5.73181e-171
8.1806e-11
6.85433e-23
2.06039e-11
1.40875e-170
8.77861e-128
-1.419e-103
-1.71684e-171
-6.80129e-37
29.7831
-2.52992e-134
4.18027e-12
-3.96403e-260
2.53279
1.51286e-27
4.0048e-37
-7.8319e-216
-5.83655e-136
-5.99973e-79
1.46146e-41
2.18361e-15
3.62674e-35
-1.48169e-96
-2.67051e-91
-5.48456e-171
5.82927e-29
1.0107e-38
-2.47863e-105
3.23181e-215
4.34038e-57
1.48014e-35
9.94316e-45
-5.6174e-142
5.85003e-07
1.24771e-29
3.24902e-162
8.39386e-47
-1.34487e-92
-2.31506e-75
195.008
-5.76681e-97
-1.10554e-166
2.75841e-40
-1.26948e-36
-1.96502e-45
2.73487
5.33148e-63
1.47498e-77
6.12509e-34
-4.8455e-87
8.01715e-86
5.352e-76
1.37476e-86
-3.12823e-29
-4.32576e-76
15.3172
-3.38998e-44
4.92545e-10
-1.51318e-83
0.00423804
1.04412e-31
6.93924e-10
4.77454e-14
2.24403e-35
1.96943e-76
3.02068e-82
4.54075e-60
1.79571e-260
-3.21469e-78
2.46663e-36
1.05812e-13
-1.43834e-87
1.82012e-163
6.71764e-38
1.83932e-36
1.59252e-17
6.34471e-40
5.31933e-12
1.85694e-17
-9.21203e-115
5.77314e-51
0.707792
1.55247e-37
1.1936e-250
4.87015e-91
-2.24133e-89
6.45272e-254
3.12388e-52
-2.4381e-195
-1.0521e-76
4.15527e-15
5.24523e-34
2.23103e-06
-2.98227e-191
7.66684e-135
-5.21299e-229
-1.50139e-88
-7.70798e-106
7.72208e-10
-1.50268e-105
3.72833e-135
4.44164e-07
5.72179e-37
3.15418e-50
1.55183e-53
1.56392e-17
1.51152e-96
3.27401e-12
4.0544e-83
-6.35309e-188
0.00191196
5.3704e-44
1.36346e-20
-7.79637e-101
53.3946
-2.62496e-40
5.06371e-46
2.35415e-36
8.9556e-31
35.9191
7.86683e-81
1.94045e-12
-2.60686e-49
3.95135e-48
-5.15548e-142
7.2951e-68
1.31448e-07
2.06966e-79
4.05604e-09
-2.94842e-94
-2.22303e-98
6.83175e-13
1.0446e-153
-7.27418e-124
3.40924e-79
1.04012e-42
3.05058e-11
-2.16979e-95
3.36314e-90
-4.52005e-232
-6.1125e-49
0.00219809
2.93664e-43
-1.30505e-89
-6.06696e-64
9.25936e-98
-3.43327e-131
13.2125
-6.31077e-48
-1.22738e-219
1.08231e-49
3.61492e-99
-4.90083e-39
-7.38171e-28
1.66837e-47
6.8109e-88
6.89296e-15
2.39624e-11
-1.20751e-220
5.31267e-63
9.0973e-12
-2.32876e-134
7.46061e-197
8.09454e-66
4.99834e-52
1.59019e-81
4.01951e-195
1.45986e-52
1.66763e-12
-8.02036e-171
1.35379e-23
-2.41506e-195
-5.43096e-105
3.4768e-56
4.65644e-05
-5.33827e-239
1.96059
-1.11663e-46
4.98445e-22
39.1707
-8.92164e-43
4.9766e-59
0.0339283
-3.2786e-88
1.53728e-05
3.34006e-19
-9.07795e-66
-1.43155e-79
-3.92025e-81
-4.36444e-100
-2.1724e-104
1.00481e-22
0.0274273
194.364
1.91377e-26
-2.82578e-29
0.0124689
8.86332e-29
12.3566
1.85149e-147
-4.53698e-98
4.99208e-19
3.13146e-44
-2.25267e-120
2.03889e-26
-7.44915e-83
32.9109
-1.48734e-249
3.84828e-132
1.212e-141
204.851
-7.31387e-37
6.55014e-45
-2.58089e-78
2.95063e-19
-1.54351e-84
-9.09757e-138
2.94217e-07
-2.45582e-81
2.80626e-07
9.5563e-23
2.10536e-70
1.51494e-14
2.8424e-44
-6.70157e-98
-8.29038e-133
-1.50514e-129
0.211367
1.60177e-13
-4.44535e-109
4.79559e-18
1.25634e-50
2.34028e-25
1.09409e-237
2.70155e-48
1.77398e-07
8.52405e-11
-1.68959e-41
-4.76293e-68
3.22255e-133
1.77279e-16
7.79411e-85
9.14397e-137
2.95359e-10
3.57793e-17
-5.22538e-110
2.87493e-31
7.73625e-45
-6.20692e-233
-5.92549e-122
-1.90354e-197
-1.55219e-40
86.4151
1.61167e-11
6.07811e-20
-9.26534e-115
5.44528e-84
3.65334e-43
4.93452e-223
3.00338e-09
4.48467e-45
86.1851
-5.25583e-28
2.56252e-74
4.73584e-112
1.62408e-146
6.75899e-81
-4.07975e-86
-3.40308e-119
13.5195
1.38697e-15
9.80344e-37
2.89095e-17
-4.81379e-43
-3.53559e-133
-6.77184e-260
-9.76693e-119
1.7015e-26
0.888116
-4.74623e-22
4.50832e-46
-3.50687e-49
1.32277e-74
3.85661e-16
0.035638
0.0246647
3.72746e-86
-4.59296e-70
2.47192e-29
3.78506e-100
6.57337e-191
-1.08632e-119
3.15437e-14
-4.65956e-107
4.33516e-61
-6.60921e-94
3.84727e-41
2.62492e-08
2.08609e-99
-2.54781e-119
1.59794e-10
1.74304e-15
3.07615e-94
3.57873e-141
-1.81194e-50
0.000232253
4.34563e-26
5.48621e-23
-4.74754e-53
3.56278e-60
0.0537709
3.00067e-82
-4.06549e-22
-4.50279e-131
1.25133e-12
7.27781e-12
-2.11857e-174
7.29735e-143
89.7729
3.17417e-121
1.36909e-74
3.26225e-28
3.12234e-110
-3.79227e-109
-4.73534e-95
9.18149e-123
-7.8942e-229
5.56744e-19
1.4713e-05
2.60824e-145
0.0181196
-1.94745e-85
-5.6722e-124
9.85724e-13
3.69159e-09
4.97118e-27
-1.04295e-86
-2.32159e-119
-2.71551e-45
150.087
-1.18879e-106
5.94642e-146
6.33286e-153
2.36779e-107
2.49314e-60
2.25399e-29
-1.0114e-109
1.94085e-78
8.06202e-127
7.01579
6.26367e-09
1.82592e-42
-2.88103e-39
-6.62314e-84
-6.78898e-124
1.96164e-16
1.32793
-7.08841e-74
2.36182e-151
-1.6798e-125
9.25297e-14
3.8472e-111
3.50046e-133
9.36934e-09
-1.78092e-87
6.15695e-122
113.2
1.75184e-06
8.3319
4.01811e-16
-9.69773e-110
4.38159e-13
1.63974e-10
0.166304
1.1674e-96
1.59488e-29
7.18877e-226
0.113517
-2.45078e-254
-1.16031e-98
2.03655e-84
2.70889e-151
5.72549e-42
7.25726e-93
-4.37394e-108
3.23064e-98
7.02975
2.80333e-14
5.81884e-39
-3.15099e-118
8.93541e-30
16.8581
5.88749e-09
1.31453e-43
-9.39985e-52
-2.26459e-99
4.98148e-86
2.71413e-147
-1.22637e-112
1.16332e-143
-7.63097e-121
-5.45905e-44
5.18622e-15
7.1189e-17
0.306887
0.000100781
1.07414e-08
1.24895e-24
0.114139
1.01244e-134
3.62065e-05
-6.22424e-126
0.00153849
2.6798e-09
3.50801e-36
-1.0226e-108
1.2089e-35
1.77313e-23
5.61103e-66
79.9397
1.24423e-12
0.361872
-2.06457e-122
8.01065e-10
2.79817e-07
4.81264e-10
1.40191e-07
6.36262e-11
-6.05818e-120
-1.50735e-97
7.32546e-42
-2.5943e-113
3.55184e-29
-3.57146e-102
7.95765e-39
1.22592e-175
-1.84014e-92
1.08842e-21
1.20911e-32
3.46718e-138
-7.42742e-48
0.930123
91.1793
-9.80978e-155
4.67346e-50
8.73396e-78
9.74778e-11
3.76888e-30
4.78981
4.04656e-05
5.59874e-99
2.70451e-40
2.16965e-07
-2.82363e-24
5.359e-06
7.77488e-55
6.93146e-12
5.21508e-140
0.192914
7.16313e-09
6.41619e-139
1.17717e-07
0.137896
4.07548e-46
4.13003
-4.69054e-88
6.68826e-09
6.87189e-80
7.38509e-158
5.2961e-75
-3.6087e-83
0.0825169
0.000107634
0.0389975
-1.2863e-139
6.82382
6.96711e-37
4.98162e-13
-6.48361e-32
3.15864e-42
2.97842e-51
0.018935
-1.74228e-86
5.54507e-98
9.86741e-21
3.32935e-09
8.94879e-29
1.62517e-18
-2.30829e-58
0.0479111
6.09267e-30
2.17462e-29
1.91605e-09
1.57577e-173
7.68199e-08
1.74953e-11
4.2356e-08
-2.78959e-77
0.00087534
8.60852e-146
5.53444e-30
1.10024e-43
3.84784e-06
7.64629e-73
1.05798e-21
1.34869e-08
76.7963
4.58284e-107
1.70558e-37
-4.21536e-48
1.3468e-09
3.29228e-19
-1.19917e-97
1.2841e-38
3.62355e-148
13.9949
5.8276e-234
1.37059e-147
-8.56253e-196
7.65294e-07
4.94197e-119
5.09016e-38
4.70493
2.05513e-53
4.60176e-59
-2.33767e-113
1.96264e-185
9.04116e-10
1.1777e-150
-9.50725e-42
2.64451e-12
-1.52191e-46
2.66323e-06
1.28268e-93
1.99288e-37
1.20815e-07
7.89071e-19
-3.14407e-71
86.6046
-4.53562e-238
2.87374e-180
2.57879e-89
222.624
-8.28784e-79
2.06259e-73
7.39405e-08
-8.22893e-109
5.82428e-92
6.7928e-14
8.00735e-06
9.72415e-32
0.00848094
-6.97346e-109
-5.8244e-89
1.08928e-42
7.42558e-48
3.36329e-06
-1.53333e-127
1.73468e-69
-1.12241e-55
-1.75536e-17
4.70734e-62
9.00726e-140
3.70925e-40
-5.48691e-19
2.04059e-204
1.5648e-201
4.02633e-05
2.57309e-31
7.7236e-05
-3.15267e-91
-2.89254e-249
-8.37172e-18
9.44212e-07
-1.07262e-132
-4.14075e-105
1.35123e-147
15.3794
2.70361e-204
6.50841e-33
6.6269e-05
4.42179e-197
8.84134e-184
4.33012e-19
8.30565e-161
6.89711e-201
3.7031e-41
2.41803e-13
4.19669e-142
6.36013e-22
9.42456e-154
8.25309e-08
-2.94214e-251
1.11665e-07
4.14965e-13
6.3104e-21
6.67068e-197
2.88632e-15
5.06985
3.54214e-100
1.12236e-48
4.35908e-162
1.14933e-13
1.23128e-154
7.46087e-07
1.96037e-09
-3.04345e-85
3.53787e-192
1.16801e-13
4.23935e-14
2.72464e-47
2.41149e-45
1.64816e-16
3.97897e-159
8.2508e-16
7.11546e-194
1.21057e-05
9.54467e-09
6.61944e-09
2.801e-20
-3.01676e-23
10.903
1.88157e-21
5.52124e-44
1.0656e-14
-2.15678e-102
2.33488e-12
2.11524e-16
-3.04609e-44
6.06207e-80
0.0944363
-4.54352e-211
0.044507
107.663
3.53908e-113
1.78692e-08
76.9119
3.99727e-35
1.39841e-41
1.44613e-16
-2.40164e-54
5.01538e-146
5.61568e-08
0.013008
0.76791
-2.76197e-101
8.35066e-16
0.000379301
2.6389e-14
-5.29216e-121
2.80924e-177
1.38648e-32
0.0209107
6.35729e-09
1.9279e-16
-6.89594e-241
3.1439e-156
1.30422e-14
-4.07309e-108
1.61829e-43
-1.18632e-103
5.01513e-189
2.08669e-07
2.43019e-87
0.000157528
1.79751e-46
1.233e-168
4.30198e-177
3.39726e-15
-1.16342e-102
2.12626e-34
3.4726e-16
0.711955
-1.82155e-50
4.75218e-141
2.16155e-06
5.91697e-95
1.15118e-149
4.32541e-68
6.10361e-14
-1.49856e-99
5.34223e-14
1.49809e-45
216.498
7.44192e-15
-7.76824e-132
8.10079e-05
-1.13873e-194
4.05788e-09
2.27609e-37
6.4777e-06
0.00448328
-1.48801e-45
0.000138856
5.98797e-167
7.93032e-09
-2.96455e-122
2.85134e-51
2.88137e-05
7.54508e-28
1.10098e-05
0.016447
-6.54844e-20
9.47542e-08
2.18102e-06
7.33806e-138
5.67607e-152
-3.8997e-193
0.000175344
-2.06713e-24
2.31774e-136
1.4611e-07
1.41822e-05
5.10783e-38
2.43081e-13
3.35676e-54
-2.12504e-34
0.00231709
-5.97992e-72
1.16073e-29
9.85111e-34
-5.07051e-226
2.25777e-224
-4.6325e-137
-3.3215e-101
3.38669e-46
3.71659e-170
-8.92666e-86
-1.4301e-105
1.57218e-64
7.31964e-19
-1.77022e-119
1.14274e-06
-6.29341e-253
1.30226e-11
3.45495e-06
-1.03456e-130
4.92168e-05
1.12974e-12
5.21495e-06
7.24415e-61
8.41871e-17
-1.44358e-110
7.43115e-38
2.40881e-48
9.38079e-179
-2.73163e-123
-2.33072e-92
-4.10777e-129
3.92383e-199
2.44834e-55
7.67438e-201
-5.29033e-31
2.02734e-23
0.0631495
6.26095e-172
2.94041e-64
1.7476e-168
-3.13073e-107
8.15662e-22
6.87172e-65
-8.56509e-134
120.653
1.73456e-14
2.26805e-31
3.32624e-60
2.82042e-15
8.56117e-24
1.69129e-65
2.88937e-18
1.3856e-13
8.07183e-107
1.36635e-195
-6.48577e-83
1.25661e-07
1.00656e-152
-1.79671e-137
7.01435e-14
-1.80041e-114
-1.71056e-108
5.86124e-76
1.5842e-140
0.000995902
3.1071e-170
-4.17417e-139
8.27048e-21
1.44583e-18
5.61826
2.32509e-13
-1.19979e-58
-2.89857e-132
3.49543e-17
-6.98267e-134
4.52295e-27
3.69779e-50
-1.11474e-106
5.05877e-06
4.51872e-200
5.47598e-22
6.54222e-54
5.13686e-15
-2.23364e-43
1.10913e-204
-4.98491e-107
1.69149e-251
3.78152e-25
2.40026e-155
3.73479e-19
7.71018e-44
-4.68475e-91
-5.29081e-57
4.09205e-39
2.71388e-197
1.65104e-21
4.43812e-22
-4.24793e-102
2.03948e-20
9.62378e-08
3.85854e-187
2.8936e-39
1.57343e-11
1.83199e-13
5.93025e-76
4.5876e-42
9.91317e-41
2.77162e-46
4.13433e-73
4.64211e-15
-3.07232e-73
7.08043e-131
3.51697e-132
0.0380834
1.60813e-08
6.35929e-05
1.49969e-06
-1.56642e-35
1.04104e-20
5.73942e-44
2.91242e-19
2.19406e-131
2.97313
-2.75321e-107
2.66804e-06
1.53386e-08
-1.8993e-135
-1.24264e-25
7.10119e-09
4.94332e-06
4.2427e-42
8.0819e-27
5.39594e-133
-4.61676e-219
4.17642e-15
1.45538e-195
5.70218e-174
2.13082e-17
1.42948e-108
-8.26806e-67
1.33863e-139
-1.96348e-89
4.09713e-15
10.529
5.19482e-104
-8.12525e-112
1.22398e-08
-2.33073e-38
3.99699e-11
5.19264e-25
3.89963e-26
-4.5388e-110
2.94476e-38
4.83541e-17
4.0164e-17
-1.58505e-30
-7.04669e-157
3.72326e-07
3.05099e-31
1.41842e-19
-2.07513e-84
5.11188e-138
8.61195e-17
7.33702e-102
-5.43001e-190
4.65629e-23
1.66418e-08
-1.16831e-172
1.13669e-21
5.16148e-47
-3.69699e-118
-5.51953e-76
-3.08211e-117
4.45682e-23
-4.76597e-131
1.83972e-139
7.73417e-45
1.62064e-23
-1.91585e-40
-1.58299e-30
9.47144
1.6579e-110
1.41457e-61
0.325959
1.61321e-33
-1.09947e-118
1.9454e-32
0.00161017
1.33252e-178
-1.60764e-111
1.71928e-190
2.78559e-26
9.79113e-15
5.17084e-48
1.37526e-202
-8.89308e-80
1.73836e-66
3.15713e-92
1.6249e-09
-9.43757e-105
-6.56441e-202
2.16283e-197
1.608e-28
8.20494e-43
1.56811e-05
-3.5476e-83
-3.90239e-49
2.20989e-31
2.07399e-15
1.65929e-150
2.33316e-24
5.91953e-182
7.905e-174
-5.60762e-202
5.11763e-10
1.20844e-111
1.59213e-24
1.82241e-23
5.15708e-27
1.54627e-16
5.76677e-28
1.15815e-13
4.61921e-26
2.50833e-103
2.00691e-29
-1.46106e-48
2.44485e-35
1.48371e-21
-2.50515e-110
40.9623
3.93052e-17
2.47275e-19
-2.78953e-172
1.44144
5.84376e-16
9.34591e-18
-9.37034e-32
1.43743e-07
-7.45365e-65
3.71365e-105
-5.05124e-91
4.02884e-94
1.24809e-88
2.128e-18
4.85998e-22
1.17565e-117
1.07001e-25
8.61771e-94
4.90747e-89
2.54254e-53
-9.11364e-47
-4.04164e-72
1.28472e-56
-1.85539e-45
7.92013e-26
3.10009e-26
4.52036e-49
-5.77538e-189
3.89005e-91
-2.934e-102
5.28222e-11
6.1253e-153
1.35764e-114
5.98721e-26
1.41811
-2.38813e-130
2.57118e-05
3.47858e-135
2.2386e-102
1.00229e-42
1.10236e-29
1.02457e-34
5.45901e-149
9.23125e-20
2.91573e-22
1.29531e-11
3.93975e-172
1.26893e-25
1.8702e-42
2.1082e-56
-2.00426e-200
-1.93923e-240
2.80228e-28
1.54406e-42
5.35792e-62
51.2065
1.3313e-23
5.15932e-33
-3.46024e-25
1.17389e-45
2.78835e-11
-1.1096e-107
9.41738e-49
-1.66203e-77
-1.46924e-89
0.00746357
3.32784e-24
3.75162e-22
1.47507e-36
-6.98377e-145
1.09363e-18
4.86055e-18
3.03911e-05
6.19242e-89
3.77717e-33
0.000150286
7.23193e-05
8.40722e-137
4.29945e-05
1.25646e-52
21.6366
2.53924e-187
3.88347e-25
3.40545e-37
8.92426e-210
1.64735e-15
3.19348e-67
-4.60374e-80
5.44959e-10
0.000972924
8.12916e-06
7.89317e-79
2.64996e-27
-2.41364e-187
-6.19362e-103
3.87588e-06
3.46551e-31
3.3956e-80
4.09062e-19
-1.96877e-23
2.00739e-28
5.6722e-41
2.22796e-38
1.77332e-23
0.00243025
4.94343e-143
2.46486e-40
1.04077e-48
2.73428e-28
1.92607e-07
4.91791e-24
2.54789e-33
1.89333e-68
1.09562e-190
6.81373e-27
6.6489e-32
4.89914e-22
8.70974e-149
1.73914e-58
9.11633e-26
3.22914e-25
-1.97743e-24
8.66655e-21
1.32461e-74
2.96213e-30
4.09631e-113
2.20941e-14
1.76895e-54
3.81259e-26
4.46888e-64
1.79339e-77
4.64421e-24
2.24012e-59
-2.15594e-68
4.80624e-83
2.21493e-144
2.69055e-31
9.32499e-53
6.60539e-56
13.6455
0.00927113
-1.8399e-114
9.46176e-82
2.00375e-39
7.91176e-42
6.84285e-203
1.49947e-30
-9.37347e-37
7.71792e-31
-1.88294e-188
8.68128e-14
1.0927e-19
4.57486e-16
1.77862e-30
-1.87632e-173
-2.08585e-96
1.85922e-63
6.17255e-30
5.23943e-09
15.057
-1.01841e-139
1.78067e-68
-3.84897e-73
3.19999e-07
0.000426728
1.35346e-05
7.58003e-53
1.06577e-22
-1.06633e-186
2.02521e-39
-2.99056e-53
-4.24665e-138
-1.48452e-25
1.30305e-41
8.90498e-36
1.78755e-21
-3.31165e-73
2.34812e-42
1.50986e-32
1.89273e-174
-3.02659e-262
5.14383e-44
-4.61127e-67
1.90485e-08
1.51146e-49
-3.59156e-23
1.3539e-13
-1.03076e-41
-1.93977e-139
-5.22703e-60
2.35151e-20
1.9042e-143
0.179961
0.0359454
-2.69441e-116
4.54024e-182
9.95008e-107
5.90378e-143
-5.26831e-212
3.06226e-62
5.55535e-68
-5.29557e-33
3.40803e-41
1.54608e-31
-2.40611e-49
1.25691e-05
1.0469e-20
1.27364e-32
5.88946e-42
1.54972e-52
8.31911e-36
-6.42219e-176
-1.91523e-75
1.39221e-69
-2.96439e-32
-2.37982e-26
1.30553e-09
-2.33268e-215
-2.79083e-27
1.95718e-38
2.02153e-50
4.59831e-23
-7.00965e-41
4.2651e-25
0.00286226
4.91568e-39
1.41441e-18
1.9811e-51
9.06634e-90
2.16742e-41
3.44744e-35
1.23907e-146
2.00117e-43
0.0213008
-2.24245e-79
0.000175864
1.64309e-137
8.17275e-35
-3.07856e-93
7.48635e-76
1.1559e-30
-4.56415e-21
1.93522e-22
-1.17798e-72
1.1485e-45
9.07707e-51
3.04413e-18
6.83013e-14
-9.64798e-47
2.66478e-09
4.78519e-211
4.82492e-41
7.29033
9.92167e-15
-2.03811e-73
0.330157
3.38418e-20
-1.28177e-69
-6.56865e-162
7.51395e-11
1.77098e-35
3.85931e-52
4.60174e-37
-2.30019e-154
1.90712e-22
-1.78302e-81
1.39783e-14
4.92281e-37
1.03169e-32
-1.64125e-30
-8.82635e-257
-2.00027e-105
8.04855e-51
-7.9994e-89
-1.12823e-91
1.63472e-57
4.55109e-77
6.89611e-65
-2.25653e-25
2.25553e-28
-5.04144e-199
2.18372e-16
-7.37909e-104
9.89691e-174
-4.91377e-28
-1.42583e-132
4.66569e-51
3.39877e-52
7.16632e-148
-3.92962e-143
-1.05374e-85
4.83937e-26
4.9821e-63
5.09746e-33
5.05925e-37
-5.01724e-27
3.18017e-26
6.91757e-53
2.12694e-44
2.48501e-39
-3.8891e-228
4.03176e-59
-2.71692e-80
1.07677e-53
0.168941
2.20614e-28
-1.94611e-72
3.66112e-43
-1.69083e-65
4.71328e-69
-1.36636e-74
2.41603e-64
1.75113e-70
-4.08077e-33
4.36039e-39
2.39347e-175
3.38892e-27
-1.0673e-50
2.76111e-25
1.5198e-161
-1.35122e-28
3.44372e-05
-1.14732e-99
-7.2688e-41
2.5776e-19
7.62719e-121
4.49046e-27
4.87931e-14
5.41173e-38
-2.22894e-38
2.62513e-15
8.52887e-44
-8.63107e-52
1.1413e-41
7.37902e-26
1.26366e-128
1.49522e-75
-1.09387e-218
-3.29979e-103
3.44799e-162
2.76577e-43
4.19799e-40
3.44499e-27
1.24189e-43
12.7485
-7.34919e-21
28.549
1.15748e-37
3.39104e-10
8.71484
1.82476e-16
21.1523
2.26015e-73
3.9313e-44
3.34987e-50
2.42154e-55
7.89455e-47
4.45729e-105
7.21944e-49
1.39684e-94
3.25539e-163
-3.88683e-53
3.18014
1.8496e-45
3.2281e-24
6.29897e-48
-3.23034e-87
1.39295e-39
3.88723e-40
-5.10486e-111
6.87018e-46
5.04046e-84
6.73017e-25
1.29912e-40
2.1226e-42
-2.2357e-43
0.163697
6.64544e-09
3.51905e-23
7.28429e-53
68.0071
4.88831e-47
-5.32113e-56
2.24249e-29
-8.24861e-30
-1.22497e-60
1.47981e-17
3.05588e-141
-5.77167e-38
-3.94055e-28
4.54308e-44
-8.25685e-46
6.43066e-77
2.98102e-42
-1.15048e-34
1.27144e-71
5.23523e-29
4.99996e-50
3.33758e-64
3.68149e-139
3.9275e-56
1.07804e-40
5.88633e-83
8.06332e-52
4.53553e-64
-1.93869e-105
-2.74924e-34
-4.9357e-83
3.10096e-16
1.9297e-47
-8.89578e-66
7.48777e-148
-3.21255e-102
1.49515e-16
5.62947e-42
9.85504e-206
1.67197e-46
6.66867
5.75672e-25
1.56036e-78
3.48201e-52
0.0691901
0.618295
33.9548
1.02406e-90
1.68908e-92
-1.54145e-108
2.59723e-63
1.59771e-30
0.000766976
0.0104428
2.67336e-13
1.03631e-21
2.64177e-78
2.62923e-159
3.22802e-155
-5.74481e-28
-2.00475e-77
4.65352e-26
-2.87124e-93
1.38517e-06
-9.58583e-90
4.95514e-45
2.32625e-12
-6.17743e-43
6.41466e-22
3.1022e-113
3.2693e-44
-7.04961e-172
7.99639e-19
3.46547e-22
1.83068e-70
6.89392e-164
7.92943e-70
-1.0102e-25
2.69165e-107
-6.40019e-46
0.0638367
2.46161e-182
3.57751e-69
-3.51913e-39
-1.19444e-39
5.13214e-49
6.11506e-120
-5.22398e-107
9.55785e-106
2.44942e-206
2.25002e-155
3.38086e-66
1.26705e-29
-5.31135e-174
1.11285e-75
4.21023e-116
147.828
-7.30792e-29
3.02764e-104
-6.90508e-217
3.51448e-25
1.82604e-46
1.05914e-21
-6.31125e-48
1.45355e-46
-5.64103e-166
-3.59885e-104
1.08494e-17
-5.34901e-228
1.12041e-47
3.31455e-29
1.15989e-52
5.37288e-150
1.05094e-41
-4.65986e-202
1.10328e-62
-1.50456e-64
1.10829e-105
8.67356e-09
1.30406e-56
1.89721e-68
1.14057e-65
-1.29962e-39
-4.13551e-51
-4.25077e-177
4.87422e-213