/*--------------------------------*- C++ -*----------------------------------*\
  =========                 |
  \\      /  F ield         | OpenFOAM: The Open Source CFD Toolbox
   \\    /   O peration     | Website:  https://openfoam.org
    \\  /    A nd           | Version:  7
     \\/     M anipulation  |
\*---------------------------------------------------------------------------*/
FoamFile
{
    version     2.0;
    format      ascii;
    class       volScalarField;
    location    "0.251";
    object      p;
}
// * * * * * * * * * * * * * * * * * * * * * * * * * * * * * * * * * * * * * //

dimensions      [0 2 -2 0 0 0 0];

internalField   nonuniform List<scalar> 
40000
(
1.99768e-06
9.54643e-05
0.000155047
0.0001395
3.38016e-05
-0.000166549
-0.000459421
-0.000838985
-0.0012978
-0.00182788
-0.00242118
-0.00306981
-0.00376618
-0.00450306
-0.00527367
-0.00607162
-0.00689096
-0.00772612
-0.0085719
-0.00942342
-0.0102761
-0.0111259
-0.0119686
-0.0128008
-0.0136188
-0.0144197
-0.0152004
-0.0159582
-0.0166906
-0.0173951
-0.0180696
-0.0187121
-0.0193207
-0.0198937
-0.0204295
-0.0209268
-0.0213841
-0.0218002
-0.0221742
-0.0225051
-0.0227919
-0.0230339
-0.0232305
-0.023381
-0.023485
-0.0235421
-0.0235518
-0.0235141
-0.0234287
-0.0232954
-0.0231143
-0.0228853
-0.0226085
-0.0222842
-0.0219123
-0.0214933
-0.0210275
-0.0205151
-0.0199565
-0.0193523
-0.0187029
-0.0180089
-0.0172708
-0.0164892
-0.0156648
-0.0147984
-0.0138906
-0.0129422
-0.011954
-0.0109269
-0.00986164
-0.00875922
-0.00762054
-0.00644655
-0.00523824
-0.00399661
-0.0027227
-0.00141758
-8.2322e-05
0.00128195
0.00267412
0.00409303
0.0055375
0.00700634
0.00849833
0.0100123
0.0115468
0.0131008
0.014673
0.0162619
0.0178664
0.019485
0.0211165
0.0227595
0.0244126
0.0260745
0.0277437
0.0294189
0.0310987
0.0327816
0.0344662
0.0361512
0.0378351
0.0395164
0.0411937
0.0428656
0.0445307
0.0461875
0.0478345
0.0494704
0.0510938
0.0527031
0.054297
0.055874
0.0574328
0.058972
0.0604902
0.061986
0.063458
0.064905
0.0663255
0.0677184
0.0690822
0.0704158
0.0717179
0.0729872
0.0742227
0.075423
0.0765871
0.0777139
0.0788023
0.0798513
0.0808598
0.0818269
0.0827517
0.0836332
0.0844706
0.0852632
0.0860102
0.0867109
0.0873645
0.0879706
0.0885286
0.089038
0.0894984
0.0899094
0.0902706
0.090582
0.0908432
0.0910542
0.091215
0.0913256
0.0913862
0.0913969
0.0913581
0.0912701
0.0911333
0.0909484
0.090716
0.0904368
0.0901117
0.0897416
0.0893277
0.088871
0.0883728
0.0878347
0.087258
0.0866445
0.085996
0.0853144
0.0846019
0.0838606
0.083093
0.0823017
0.0814893
0.080659
0.0798138
0.0789571
0.0780925
0.0772237
0.0763549
0.0754905
0.0746349
0.0737931
0.0729705
0.0721724
0.0714049
0.0706741
0.0699867
0.0693496
0.0687703
0.068256
0.0678145
0.0674531
0.0671785
0.0669954
0.0669049
0.0669009
0.0669669
0.0670599
-8.86156e-05
3.67557e-06
3.93557e-05
2.6182e-06
-0.000110201
-0.00030329
-0.00057653
-0.000926339
-0.00134738
-0.00183345
-0.00237799
-0.00297434
-0.00361595
-0.00429641
-0.00500958
-0.00574963
-0.00651102
-0.00728855
-0.00807731
-0.00887269
-0.00967036
-0.0104663
-0.0112566
-0.0120378
-0.0128066
-0.0135599
-0.0142948
-0.0150085
-0.0156987
-0.0163629
-0.0169991
-0.0176051
-0.0181793
-0.0187197
-0.019225
-0.0196937
-0.0201243
-0.0205158
-0.0208671
-0.0211771
-0.021445
-0.0216701
-0.0218515
-0.0219888
-0.0220814
-0.0221289
-0.0221309
-0.0220871
-0.0219974
-0.0218616
-0.0216796
-0.0214515
-0.0211772
-0.0208569
-0.0204908
-0.020079
-0.0196219
-0.0191197
-0.0185729
-0.0179819
-0.017347
-0.0166689
-0.0159481
-0.0151851
-0.0143807
-0.0135354
-0.0126499
-0.0117251
-0.0107616
-0.00976029
-0.008722
-0.00764757
-0.00653791
-0.00539395
-0.00421663
-0.00300693
-0.00176585
-0.000494423
0.000806296
0.00213523
0.00349129
0.00487334
0.00628025
0.00771086
0.00916399
0.0106384
0.012133
0.0136464
0.0151775
0.0167249
0.0182873
0.0198636
0.0214524
0.0230523
0.024662
0.0262802
0.0279056
0.0295368
0.0311724
0.032811
0.0344513
0.0360919
0.0377313
0.0393683
0.0410013
0.0426291
0.0442501
0.0458631
0.0474666
0.0490592
0.0506395
0.0522062
0.0537578
0.055293
0.0568105
0.0583088
0.0597867
0.0612428
0.0626757
0.0640843
0.0654672
0.0668231
0.0681508
0.0694492
0.0707168
0.0719527
0.0731556
0.0743245
0.0754581
0.0765555
0.0776157
0.0786375
0.0796202
0.0805626
0.081464
0.0823235
0.0831402
0.0839135
0.0846426
0.0853269
0.0859656
0.0865584
0.0871046
0.0876038
0.0880556
0.0884597
0.0888157
0.0891236
0.0893832
0.0895943
0.0897569
0.0898713
0.0899374
0.0899556
0.0899261
0.0898493
0.0897258
0.089556
0.0893407
0.0890806
0.0887766
0.0884295
0.0880406
0.0876109
0.0871417
0.0866345
0.0860908
0.0855122
0.0849005
0.0842576
0.0835857
0.0828868
0.0821634
0.0814181
0.0806534
0.0798724
0.079078
0.0782735
0.0774624
0.0766484
0.0758354
0.0750274
0.0742291
0.0734448
0.0726797
0.0719388
0.0712276
0.0705519
0.0699176
0.0693308
0.0687978
0.068325
0.0679184
0.0675836
0.0673253
0.0671463
0.067046
0.0670191
0.0670604
0.0671534
-0.000147663
-3.18038e-05
3.89838e-06
-3.88207e-05
-0.000152484
-0.000338989
-0.000598119
-0.0009269
-0.00132095
-0.0017751
-0.00228371
-0.00284098
-0.00344108
-0.00407829
-0.00474701
-0.00544186
-0.00615768
-0.00688959
-0.00763295
-0.0083834
-0.00913679
-0.00988924
-0.0106371
-0.0113769
-0.0121055
-0.0128198
-0.0135171
-0.0141947
-0.0148501
-0.015481
-0.0160854
-0.0166613
-0.0172068
-0.0177202
-0.0182
-0.0186448
-0.0190532
-0.0194241
-0.0197563
-0.0200489
-0.020301
-0.0205117
-0.0206805
-0.0208066
-0.0208896
-0.020929
-0.0209244
-0.0208756
-0.0207823
-0.0206443
-0.0204616
-0.0202341
-0.0199619
-0.0196451
-0.0192837
-0.018878
-0.0184283
-0.0179348
-0.0173979
-0.0168179
-0.0161954
-0.0155308
-0.0148246
-0.0140774
-0.0132898
-0.0124624
-0.011596
-0.0106911
-0.0097486
-0.00876923
-0.0077538
-0.00670315
-0.00561815
-0.00449969
-0.0033487
-0.00216613
-0.00095296
0.000289818
0.00156118
0.00286006
0.00418541
0.00553613
0.0069111
0.0083092
0.00972927
0.0111701
0.0126306
0.0141095
0.0156056
0.0171177
0.0186445
0.0201847
0.0217371
0.0233004
0.0248732
0.0264544
0.0280425
0.0296362
0.0312342
0.0328352
0.0344378
0.0360406
0.0376423
0.0392416
0.040837
0.0424272
0.0440109
0.0455867
0.0471531
0.0487089
0.0502527
0.0517832
0.053299
0.0547987
0.056281
0.0577447
0.0591884
0.0606108
0.0620107
0.0633867
0.0647377
0.0660623
0.0673595
0.0686279
0.0698664
0.071074
0.0722494
0.0733915
0.0744994
0.075572
0.0766082
0.0776072
0.0785679
0.0794895
0.0803712
0.081212
0.0820113
0.0827683
0.0834823
0.0841527
0.084779
0.0853604
0.0858967
0.0863873
0.0868319
0.0872302
0.087582
0.0878869
0.088145
0.0883562
0.0885205
0.0886379
0.0887088
0.0887332
0.0887115
0.0886442
0.0885317
0.0883746
0.0881736
0.0879294
0.0876429
0.0873151
0.086947
0.0865398
0.0860947
0.0856132
0.0850968
0.0845471
0.0839659
0.083355
0.0827165
0.0820526
0.0813656
0.080658
0.0799323
0.0791915
0.0784385
0.0776764
0.0769087
0.0761388
0.0753705
0.0746078
0.073855
0.0731163
0.0723964
0.0717001
0.0710326
0.0703991
0.069805
0.0692558
0.0687572
0.0683144
0.0679329
0.0676171
0.0673709
0.0671966
0.067094
0.0670603
0.067102
0.0672198
-0.000132253
4.98127e-06
4.68466e-05
4.21492e-06
-0.00010796
-0.000289204
-0.000538396
-0.000852356
-0.00122701
-0.0016577
-0.0021394
-0.00266686
-0.00323481
-0.00383801
-0.00447134
-0.00512982
-0.00580864
-0.00650321
-0.00720916
-0.00792232
-0.00863876
-0.00935477
-0.0100668
-0.0107716
-0.011466
-0.0121471
-0.0128122
-0.0134587
-0.0140842
-0.0146865
-0.0152635
-0.0158132
-0.0163338
-0.0168237
-0.0172814
-0.0177054
-0.0180943
-0.0184471
-0.0187627
-0.0190399
-0.0192781
-0.0194763
-0.0196338
-0.0197502
-0.0198247
-0.0198569
-0.0198465
-0.0197932
-0.0196967
-0.0195568
-0.0193734
-0.0191465
-0.0188762
-0.0185623
-0.0182052
-0.0178049
-0.0173618
-0.016876
-0.0163479
-0.0157779
-0.0151663
-0.0145137
-0.0138206
-0.0130875
-0.0123149
-0.0115035
-0.010654
-0.00976693
-0.00884315
-0.00788337
-0.00688838
-0.00585897
-0.00479601
-0.00370036
-0.00257292
-0.00141462
-0.000226403
0.000990749
0.00223584
0.00350784
0.00480571
0.00612838
0.00747477
0.00884377
0.0102343
0.0116451
0.0130751
0.0145231
0.0159879
0.0174683
0.0189632
0.0204711
0.021991
0.0235215
0.0250613
0.0266093
0.028164
0.0297242
0.0312886
0.0328559
0.0344248
0.0359939
0.0375618
0.0391274
0.0406892
0.0422459
0.0437961
0.0453386
0.046872
0.048395
0.0499062
0.0514043
0.052888
0.0543561
0.0558071
0.0572399
0.0586531
0.0600454
0.0614158
0.0627628
0.0640853
0.065382
0.0666519
0.0678937
0.0691063
0.0702886
0.0714395
0.0725579
0.0736429
0.0746934
0.0757083
0.0766869
0.0776282
0.0785313
0.0793954
0.0802198
0.0810035
0.0817461
0.0824467
0.0831049
0.08372
0.0842915
0.0848189
0.0853019
0.0857402
0.0861333
0.0864812
0.0867836
0.0870404
0.0872516
0.0874173
0.0875375
0.0876124
0.0876423
0.0876276
0.0875685
0.0874657
0.0873197
0.0871312
0.0869009
0.0866298
0.0863187
0.0859688
0.0855811
0.085157
0.0846979
0.0842051
0.0836804
0.0831255
0.0825423
0.0819326
0.0812987
0.0806429
0.0799675
0.0792752
0.0785686
0.0778506
0.0771244
0.0763931
0.0756602
0.0749293
0.0742041
0.0734887
0.0727872
0.0721041
0.0714438
0.0708111
0.0702108
0.0696479
0.0691276
0.0686547
0.0682342
0.0678707
0.0675686
0.0673312
0.0671614
0.0670598
0.0670262
0.0670749
0.0672163
-2.69422e-05
0.000117766
0.000160715
0.000116762
4.64813e-06
-0.000173515
-0.00041577
-0.000718609
-0.00107806
-0.00148981
-0.00194927
-0.00245167
-0.00299218
-0.003566
-0.0041684
-0.00479478
-0.00544067
-0.00610177
-0.00677395
-0.00745328
-0.00813602
-0.00881862
-0.00949772
-0.0101701
-0.0108329
-0.0114831
-0.0121182
-0.0127357
-0.0133332
-0.0139085
-0.0144596
-0.0149847
-0.0154818
-0.0159495
-0.0163861
-0.0167904
-0.0171609
-0.0174965
-0.0177961
-0.0180588
-0.0182837
-0.0184699
-0.0186167
-0.0187236
-0.01879
-0.0188154
-0.0187995
-0.0187419
-0.0186423
-0.0185005
-0.0183166
-0.0180903
-0.0178217
-0.0175108
-0.0171578
-0.0167628
-0.016326
-0.0158476
-0.0153281
-0.0147677
-0.0141668
-0.0135259
-0.0128454
-0.0121259
-0.0113679
-0.010572
-0.00973892
-0.00886921
-0.00796362
-0.00702287
-0.00604772
-0.00503896
-0.00399741
-0.00292392
-0.00181937
-0.000684652
0.000479302
0.00167154
0.00289109
0.00413695
0.0054081
0.0067035
0.00802209
0.0093628
0.0107245
0.0121061
0.0135065
0.0149244
0.0163588
0.0178085
0.0192722
0.0207488
0.022237
0.0237356
0.0252434
0.026759
0.0282813
0.029809
0.0313408
0.0328753
0.0344114
0.0359477
0.0374829
0.0390157
0.0405448
0.0420689
0.0435867
0.0450968
0.0465981
0.0480892
0.0495687
0.0510354
0.0524881
0.0539254
0.055346
0.0567488
0.0581324
0.0594957
0.0608374
0.0621562
0.0634511
0.0647209
0.0659643
0.0671804
0.0683679
0.0695257
0.0706529
0.0717484
0.0728111
0.0738402
0.0748346
0.0757935
0.076716
0.0776012
0.0784484
0.0792567
0.0800255
0.0807541
0.0814419
0.0820882
0.0826925
0.0832544
0.0837733
0.084249
0.0846811
0.0850693
0.0854134
0.0857133
0.0859688
0.0861801
0.086347
0.0864698
0.0865486
0.0865837
0.0865755
0.0865243
0.0864307
0.0862953
0.0861186
0.0859016
0.085645
0.0853499
0.0850172
0.084648
0.0842438
0.0838057
0.0833353
0.0828342
0.0823041
0.0817468
0.0811642
0.0805584
0.0799317
0.0792865
0.0786251
0.0779502
0.0772647
0.0765715
0.0758738
0.0751747
0.0744778
0.0737867
0.0731051
0.072437
0.0717866
0.071158
0.0705557
0.0699842
0.0694481
0.068952
0.0685005
0.068098
0.0677489
0.0674571
0.0672262
0.0670593
0.0669578
0.0669233
0.0669745
0.0671263
0.000172808
0.000310796
0.000347477
0.000298418
0.000183277
5.08662e-06
-0.000233634
-0.000529146
-0.000877509
-0.00127466
-0.00171635
-0.00219821
-0.00271578
-0.00326466
-0.00384048
-0.00443896
-0.00505595
-0.00568742
-0.00632951
-0.0069785
-0.00763084
-0.00828317
-0.00893227
-0.0095751
-0.0102088
-0.0108306
-0.011438
-0.0120286
-0.0126
-0.0131503
-0.0136773
-0.0141793
-0.0146545
-0.0151013
-0.0155182
-0.0159039
-0.016257
-0.0165764
-0.016861
-0.0171099
-0.0173222
-0.0174971
-0.0176338
-0.0177318
-0.0177905
-0.0178094
-0.0177882
-0.0177265
-0.017624
-0.0174806
-0.0172961
-0.0170704
-0.0168035
-0.0164955
-0.0161465
-0.0157565
-0.0153258
-0.0148547
-0.0143434
-0.0137923
-0.0132016
-0.012572
-0.0119037
-0.0111974
-0.0104535
-0.00967257
-0.00885532
-0.00800234
-0.00711431
-0.00619193
-0.00523595
-0.00424713
-0.00322627
-0.0021742
-0.00109176
2.01616e-05
0.00116067
0.00232882
0.00352368
0.00474427
0.00598959
0.00725863
0.00855035
0.00986369
0.0111976
0.0125509
0.0139226
0.0153115
0.0167165
0.0181364
0.0195701
0.0210163
0.022474
0.0239417
0.0254185
0.0269029
0.0283939
0.0298901
0.0313903
0.0328932
0.0343976
0.0359022
0.0374057
0.0389069
0.0404044
0.041897
0.0433835
0.0448625
0.0463328
0.047793
0.049242
0.0506785
0.0521011
0.0535087
0.0549001
0.0562739
0.057629
0.0589642
0.0602783
0.0615701
0.0628384
0.0640821
0.0653001
0.0664913
0.0676546
0.068789
0.0698933
0.0709667
0.0720081
0.0730166
0.0739913
0.0749312
0.0758356
0.0767037
0.0775345
0.0783275
0.0790819
0.0797971
0.0804724
0.0811074
0.0817014
0.082254
0.0827647
0.0832334
0.0836595
0.0840429
0.0843834
0.0846809
0.0849352
0.0851464
0.0853145
0.0854397
0.0855222
0.0855622
0.0855601
0.0855164
0.0854314
0.0853059
0.0851405
0.0849359
0.0846931
0.0844129
0.0840963
0.0837446
0.0833589
0.0829406
0.0824912
0.0820121
0.0815051
0.0809719
0.0804145
0.0798349
0.0792352
0.0786177
0.0779848
0.0773391
0.0766834
0.0760204
0.0753531
0.0746847
0.0740184
0.0733578
0.0727063
0.0720678
0.0714461
0.0708451
0.0702691
0.069722
0.0692083
0.0687321
0.0682978
0.0679093
0.0675707
0.0672859
0.0670585
0.0668917
0.0667877
0.066749
0.0667958
0.0669441
0.00046498
0.000584074
0.000607054
0.000548201
0.000426098
0.000244193
5.29774e-06
-0.000286785
-0.000628182
-0.00101502
-0.00144332
-0.00190906
-0.00240813
-0.00293645
-0.00348998
-0.00406475
-0.0046569
-0.00526266
-0.0058784
-0.00650063
-0.00712599
-0.00775129
-0.00837348
-0.00898964
-0.00959702
-0.010193
-0.0107752
-0.0113411
-0.0118887
-0.0124159
-0.0129208
-0.0134015
-0.0138563
-0.0142838
-0.0146824
-0.0150507
-0.0153876
-0.0156919
-0.0159626
-0.0161986
-0.0163991
-0.0165633
-0.0166906
-0.0167802
-0.0168317
-0.0168446
-0.0168184
-0.0167529
-0.0166477
-0.0165027
-0.0163177
-0.0160927
-0.0158275
-0.0155223
-0.0151771
-0.014792
-0.0143672
-0.013903
-0.0133996
-0.0128573
-0.0122765
-0.0116577
-0.0110011
-0.0103074
-0.00957696
-0.00881044
-0.0080084
-0.00717145
-0.00630026
-0.00539551
-0.00445791
-0.00348822
-0.0024872
-0.00145567
-0.00039445
0.000695603
0.00181361
0.00295866
0.00412983
0.00532616
0.00654669
0.00779042
0.00905635
0.0103434
0.0116506
0.0129768
0.014321
0.015682
0.0170588
0.0184502
0.019855
0.0212721
0.0227004
0.0241386
0.0255856
0.0270401
0.028501
0.029967
0.0314369
0.0329094
0.0343834
0.0358576
0.0373308
0.0388016
0.0402689
0.0417314
0.0431878
0.0446369
0.0460775
0.0475082
0.0489279
0.0503354
0.0517293
0.0531085
0.0544718
0.055818
0.0571458
0.0584541
0.0597418
0.0610076
0.0622505
0.0634694
0.0646631
0.0658305
0.0669707
0.0680826
0.0691652
0.0702174
0.0712384
0.0722273
0.0731831
0.074105
0.0749922
0.0758438
0.0766591
0.0774375
0.0781781
0.0788805
0.079544
0.0801681
0.0807522
0.081296
0.081799
0.0822609
0.0826813
0.0830602
0.0833972
0.0836922
0.0839453
0.0841564
0.0843256
0.084453
0.0845389
0.0845835
0.0845871
0.0845502
0.0844734
0.0843572
0.0842022
0.0840092
0.0837791
0.0835128
0.0832113
0.0828757
0.0825073
0.0821073
0.0816772
0.0812185
0.0807328
0.0802219
0.0796876
0.0791319
0.0785568
0.0779647
0.0773577
0.0767385
0.0761096
0.0754737
0.0748338
0.0741927
0.0735536
0.0729199
0.0722948
0.0716819
0.0710849
0.0705074
0.0699534
0.0694266
0.068931
0.0684705
0.0680491
0.0676707
0.0673389
0.0670575
0.06683
0.06666
0.0665498
0.0665028
0.066538
0.0666707
0.000843972
0.000934217
0.000936654
0.000863121
0.000729798
0.000540249
0.000297399
4.94634e-06
-0.000333382
-0.0007139
-0.00113289
-0.0015866
-0.00207124
-0.00258304
-0.00311826
-0.00367321
-0.00424429
-0.00482799
-0.0054209
-0.00601974
-0.00662135
-0.0072227
-0.00782089
-0.00841316
-0.00899687
-0.00956953
-0.0101288
-0.0106724
-0.0111982
-0.0117043
-0.0121888
-0.0126499
-0.013086
-0.0134956
-0.0138772
-0.0142295
-0.0145514
-0.0148417
-0.0150992
-0.0153233
-0.0155128
-0.0156671
-0.0157855
-0.0158674
-0.0159122
-0.0159194
-0.0158886
-0.0158196
-0.0157119
-0.0155655
-0.0153801
-0.0151557
-0.0148923
-0.0145897
-0.0142482
-0.0138678
-0.0134488
-0.0129912
-0.0124953
-0.0119616
-0.0113902
-0.0107817
-0.0101364
-0.00945471
-0.00873724
-0.00798449
-0.00719703
-0.00637545
-0.0055204
-0.00463254
-0.00371258
-0.00276122
-0.00177924
-0.000767408
0.000273462
0.00134254
0.00243896
0.00356184
0.00471028
0.00588335
0.00708009
0.00829955
0.00954072
0.0108026
0.0120842
0.0133844
0.0147021
0.0160364
0.0173861
0.0187501
0.0201272
0.0215164
0.0229165
0.0243263
0.0257448
0.0271706
0.0286026
0.0300397
0.0314805
0.032924
0.0343689
0.0358139
0.037258
0.0386997
0.040138
0.0415716
0.0429992
0.0444197
0.0458318
0.0472343
0.048626
0.0500057
0.0513722
0.0527242
0.0540606
0.0553803
0.056682
0.0579647
0.0592271
0.0604681
0.0616868
0.0628818
0.0640523
0.0651971
0.0663152
0.0674056
0.0684673
0.0694994
0.070501
0.0714711
0.0724089
0.0733136
0.0741843
0.0750202
0.0758208
0.0765852
0.0773128
0.0780029
0.0786551
0.0792689
0.0798436
0.0803789
0.0808745
0.0813299
0.0817449
0.0821193
0.082453
0.0827458
0.0829976
0.0832085
0.0833786
0.0835081
0.083597
0.0836458
0.0836547
0.0836243
0.0835549
0.0834473
0.083302
0.0831198
0.0829015
0.0826481
0.0823605
0.0820399
0.0816874
0.0813043
0.080892
0.080452
0.0799859
0.0794954
0.0789822
0.0784483
0.0778957
0.0773265
0.0767431
0.0761477
0.0755429
0.0749313
0.0743156
0.0736987
0.0730836
0.0724733
0.0718711
0.0712802
0.0707042
0.0701464
0.0696104
0.0690999
0.0686185
0.0681698
0.0677576
0.0673854
0.0670568
0.0667752
0.0665441
0.0663671
0.0662469
0.0661867
0.0662038
0.0663108
0.00130267
0.00135616
0.00133215
0.00123934
0.00109063
0.000889547
0.000639021
0.000342543
3.6105e-06
-0.00037431
-0.000787743
-0.0012332
-0.00170718
-0.00220619
-0.00272677
-0.00326549
-0.00381901
-0.00438405
-0.00495741
-0.00553603
-0.00611692
-0.00669722
-0.00727419
-0.0078452
-0.00840775
-0.00895945
-0.00949804
-0.0100214
-0.0105274
-0.0110143
-0.0114802
-0.0119233
-0.0123422
-0.0127354
-0.0131014
-0.0134389
-0.0137469
-0.0140242
-0.0142697
-0.0144825
-0.0146619
-0.014807
-0.0149172
-0.0149919
-0.0150304
-0.0150323
-0.0149973
-0.014925
-0.0148152
-0.0146675
-0.0144818
-0.0142581
-0.0139963
-0.0136965
-0.0133585
-0.0129827
-0.012569
-0.0121178
-0.0116293
-0.0111037
-0.0105414
-0.0099428
-0.00930823
-0.00863817
-0.0079331
-0.00719355
-0.00642006
-0.00561322
-0.00477365
-0.00390199
-0.00299892
-0.00206515
-0.00110141
-0.000108474
0.000912881
0.00196184
0.00303756
0.00413918
0.00526582
0.00641657
0.00759051
0.00878667
0.0100041
0.0112418
0.0124988
0.013774
0.0150665
0.0163751
0.0176988
0.0190365
0.0203871
0.0217495
0.0231226
0.0245053
0.0258963
0.0272946
0.028699
0.0301082
0.0315213
0.0329369
0.0343538
0.035771
0.0371871
0.038601
0.0400116
0.0414175
0.0428175
0.0442106
0.0455955
0.0469709
0.0483358
0.0496889
0.0510291
0.0523551
0.0536659
0.0549602
0.056237
0.0574951
0.0587333
0.0599507
0.0611461
0.0623185
0.0634667
0.0645899
0.0656869
0.0667568
0.0677987
0.0688116
0.0697946
0.0707468
0.0716675
0.0725557
0.0734107
0.0742317
0.0750181
0.0757692
0.0764843
0.0771629
0.0778043
0.0784081
0.0789739
0.0795012
0.0799896
0.0804388
0.0808487
0.0812188
0.0815492
0.0818398
0.0820903
0.082301
0.0824719
0.0826031
0.0826949
0.0827475
0.0827614
0.0827368
0.0826744
0.0825747
0.0824383
0.0822661
0.0820587
0.0818172
0.0815424
0.0812356
0.0808977
0.0805302
0.0801342
0.0797114
0.0792632
0.0787912
0.0782973
0.0777832
0.0772509
0.0767025
0.0761402
0.0755662
0.0749829
0.0743928
0.0737986
0.0732029
0.0726086
0.0720186
0.0714359
0.0708637
0.0703051
0.0697634
0.069242
0.0687441
0.0682733
0.0678328
0.0674261
0.0670566
0.0667276
0.0664423
0.0662042
0.0660166
0.0658823
0.0658044
0.0657974
0.0658709
0.0018335
0.00184408
0.00178867
0.00167248
0.00150457
0.00128829
0.00102655
0.000722575
0.000379585
7.96157e-07
-0.000410567
-0.000851268
-0.00131807
-0.00180775
-0.00231711
-0.00284296
-0.00338219
-0.00393174
-0.00448865
-0.00505003
-0.00561307
-0.00617507
-0.00673346
-0.00728572
-0.0078295
-0.00836252
-0.00888261
-0.00938773
-0.00987594
-0.0103454
-0.0107943
-0.0112212
-0.0116244
-0.0120025
-0.0123541
-0.0126781
-0.0129733
-0.0132386
-0.013473
-0.0136756
-0.0138456
-0.0139822
-0.0140848
-0.0141527
-0.0141855
-0.0141826
-0.0141437
-0.0140684
-0.0139565
-0.0138077
-0.0136219
-0.013399
-0.0131389
-0.0128416
-0.0125071
-0.0121357
-0.0117273
-0.0112822
-0.0108007
-0.010283
-0.00972937
-0.00914025
-0.00851599
-0.00785704
-0.00716386
-0.00643695
-0.00567685
-0.00488413
-0.00405938
-0.00320324
-0.00231637
-0.00139944
-0.000453192
0.000521646
0.0015243
0.00255398
0.00360987
0.00469112
0.00579687
0.00692623
0.0080783
0.00925215
0.0104468
0.0116614
0.0128948
0.0141461
0.0154143
0.0166983
0.0179971
0.0193097
0.0206349
0.0219716
0.0233188
0.0246754
0.0260402
0.0274121
0.02879
0.0301727
0.0315591
0.032948
0.0343383
0.0357287
0.0371181
0.0385054
0.0398893
0.0412687
0.0426425
0.0440093
0.0453681
0.0467177
0.048057
0.0493847
0.0506997
0.0520009
0.0532871
0.0545573
0.0558102
0.0570448
0.0582601
0.0594548
0.0606281
0.0617787
0.0629058
0.0640083
0.0650852
0.0661356
0.0671586
0.0681531
0.0691184
0.0700536
0.0709579
0.0718304
0.0726705
0.0734773
0.0742503
0.0749887
0.0756919
0.0763594
0.0769906
0.077585
0.0781422
0.0786617
0.0791434
0.0795867
0.0799915
0.0803576
0.0806849
0.0809732
0.0812225
0.0814329
0.0816044
0.0817372
0.0818315
0.0818876
0.0819059
0.0818868
0.0818307
0.0817383
0.0816102
0.081447
0.0812497
0.0810191
0.0807562
0.0804619
0.0801375
0.0797841
0.0794031
0.0789959
0.0785639
0.0781088
0.0776323
0.0771361
0.0766221
0.0760923
0.0755488
0.0749937
0.0744295
0.0738583
0.0732829
0.0727056
0.0721292
0.0715565
0.0709903
0.0704335
0.0698891
0.0693602
0.0688499
0.0683613
0.0678976
0.067462
0.0670575
0.0666873
0.0663546
0.0660624
0.0658138
0.0656121
0.0654599
0.0653604
0.0653241
0.0653578
0.00242889
0.00239183
0.00230099
0.00215787
0.00196733
0.00173253
0.00145632
0.00114161
0.000791348
0.000408472
-4.04717e-06
-0.000443229
-0.000906087
-0.00138964
-0.00189094
-0.00240703
-0.00293503
-0.00347209
-0.00401544
-0.00456237
-0.00511026
-0.00565658
-0.00619888
-0.0067348
-0.00726209
-0.0077786
-0.00828226
-0.00877113
-0.00924334
-0.00969712
-0.0101308
-0.0105429
-0.0109318
-0.0112962
-0.0116348
-0.0119464
-0.0122299
-0.0124842
-0.0127084
-0.0129015
-0.0130629
-0.0131917
-0.0132873
-0.0133491
-0.0133766
-0.0133693
-0.0133269
-0.0132489
-0.0131352
-0.0129855
-0.0127996
-0.0125775
-0.0123191
-0.0120243
-0.0116933
-0.0113261
-0.0109228
-0.0104836
-0.0100088
-0.00949864
-0.00895337
-0.00837336
-0.00775899
-0.00711068
-0.00642888
-0.00571408
-0.00496681
-0.0041876
-0.00337704
-0.00253576
-0.00166438
-0.000763592
0.000165922
0.00112343
0.00210819
0.00311941
0.00415631
0.00521806
0.00630381
0.00741269
0.00854383
0.00969632
0.0108692
0.0120616
0.0132725
0.0145009
0.0157458
0.0170063
0.0182813
0.0195697
0.0208706
0.0221828
0.0235052
0.0248369
0.0261766
0.0275233
0.0288758
0.0302331
0.031594
0.0329574
0.0343221
0.0356869
0.0370508
0.0384126
0.0397712
0.0411253
0.0424738
0.0438156
0.0451495
0.0464744
0.0477892
0.0490926
0.0503837
0.0516612
0.052924
0.054171
0.0554012
0.0566135
0.0578068
0.05898
0.0601321
0.0612621
0.062369
0.0634518
0.0645096
0.0655414
0.0665463
0.0675234
0.0684718
0.0693908
0.0702795
0.0711371
0.071963
0.0727563
0.0735164
0.0742428
0.0749346
0.0755916
0.076213
0.0767984
0.0773475
0.0778597
0.0783348
0.0787725
0.0791725
0.0795347
0.0798589
0.080145
0.080393
0.080603
0.080775
0.0809092
0.0810058
0.0810651
0.0810874
0.0810732
0.0810229
0.0809372
0.0808166
0.0806618
0.0804737
0.080253
0.0800008
0.079718
0.0794058
0.0790653
0.0786979
0.0783048
0.0778875
0.0774476
0.0769867
0.0765065
0.0760088
0.0754955
0.0749687
0.0744304
0.0738828
0.0733281
0.0727688
0.0722073
0.0716461
0.0710878
0.0705351
0.0699907
0.0694576
0.0689384
0.0684361
0.0679537
0.0674939
0.0670599
0.0666545
0.0662806
0.065941
0.0656388
0.0653767
0.0651575
0.0649841
0.0648593
0.0647899
0.0647789
0.00308147
0.00299323
0.00286372
0.00269065
0.0024745
0.00221823
0.00192459
0.0015962
0.00123571
0.00084578
0.00042913
-1.1512e-05
-0.000473403
-0.0009538
-0.00144997
-0.0019592
-0.00247881
-0.00300615
-0.00353865
-0.00407378
-0.00460908
-0.00514217
-0.00567074
-0.00619259
-0.00670557
-0.00720764
-0.00769685
-0.00817134
-0.00862933
-0.00906915
-0.00948919
-0.00988796
-0.010264
-0.0106161
-0.0109429
-0.0112432
-0.011516
-0.0117603
-0.0119752
-0.0121597
-0.0123132
-0.0124349
-0.0125241
-0.0125803
-0.012603
-0.0125917
-0.0125461
-0.0124657
-0.0123505
-0.0122
-0.0120142
-0.011793
-0.0115362
-0.011244
-0.0109163
-0.0105531
-0.0101548
-0.00972131
-0.00925298
-0.00875002
-0.00821274
-0.00764147
-0.00703657
-0.00639845
-0.00572754
-0.00502433
-0.00428932
-0.00352304
-0.00272607
-0.001899
-0.00104245
-0.000157081
0.000756424
0.00169736
0.00266499
0.00365857
0.0046773
0.00572039
0.00678702
0.00787632
0.00898744
0.0101195
0.0112716
0.0124427
0.013632
0.0148386
0.0160613
0.0172993
0.0185515
0.0198169
0.0210944
0.0223831
0.0236819
0.0249897
0.0263055
0.027628
0.0289564
0.0302894
0.0316259
0.0329649
0.0343051
0.0356456
0.0369851
0.0383226
0.0396569
0.0409868
0.0423113
0.0436292
0.0449394
0.0462408
0.0475322
0.0488125
0.0500806
0.0513355
0.052576
0.0538011
0.0550096
0.0562005
0.0573729
0.0585256
0.0596576
0.0607679
0.0618556
0.0629197
0.0639593
0.0649734
0.0659611
0.0669216
0.067854
0.0687576
0.0696315
0.070475
0.0712873
0.0720677
0.0728157
0.0735306
0.0742117
0.0748586
0.0754707
0.0760476
0.0765889
0.0770941
0.077563
0.0779953
0.0783907
0.0787491
0.0790703
0.0793543
0.079601
0.0798105
0.0799828
0.0801181
0.0802167
0.0802788
0.0803048
0.0802951
0.0802501
0.0801704
0.0800566
0.0799094
0.0797296
0.079518
0.0792756
0.0790032
0.078702
0.0783732
0.0780179
0.0776375
0.0772334
0.0768071
0.0763601
0.0758941
0.0754109
0.0749122
0.0743999
0.0738762
0.0733429
0.0728024
0.0722568
0.0717085
0.0711599
0.0706134
0.0700715
0.0695368
0.069012
0.0684996
0.0680025
0.0675232
0.0670646
0.0666293
0.06622
0.0658395
0.0654902
0.065175
0.0648964
0.064657
0.0644594
0.0643063
0.0642004
0.0641411
0.00378422
0.00364223
0.00347151
0.00326597
0.00302165
0.0027413
0.00242762
0.0020829
0.00170948
0.00130979
0.000886286
0.000441445
-2.22207e-05
-0.000502193
-0.000995957
-0.00150101
-0.00201487
-0.0025351
-0.00305928
-0.00358507
-0.00411017
-0.00463234
-0.00514943
-0.00565935
-0.00616008
-0.0066497
-0.00712634
-0.00758825
-0.00803373
-0.00846119
-0.00886909
-0.00925601
-0.00962059
-0.00996155
-0.0102777
-0.0105679
-0.0108311
-0.0110664
-0.0112728
-0.0114495
-0.0115958
-0.011711
-0.0117945
-0.0118456
-0.011864
-0.0118491
-0.0118006
-0.0117181
-0.0116015
-0.0114505
-0.0112649
-0.0110446
-0.0107896
-0.0104998
-0.0101753
-0.00981619
-0.00942256
-0.00899459
-0.00853247
-0.00803646
-0.00750685
-0.00694394
-0.00634811
-0.00571974
-0.00505926
-0.00436713
-0.00364384
-0.00288993
-0.00210593
-0.00129244
-0.000450058
0.000420569
0.00131878
0.00224388
0.00319515
0.00417186
0.00517324
0.00619851
0.00724686
0.00831745
0.00940945
0.010522
0.0116541
0.012805
0.0139738
0.0151594
0.0163609
0.0175773
0.0188078
0.0200512
0.0213065
0.0225728
0.023849
0.025134
0.0264269
0.0277264
0.0290316
0.0303415
0.0316547
0.0329704
0.0342874
0.0356046
0.0369209
0.0382352
0.0395463
0.0408532
0.0421548
0.0434499
0.0447375
0.0460164
0.0472855
0.0485438
0.0497902
0.0510236
0.0522428
0.0534469
0.0546349
0.0558055
0.056958
0.0580911
0.059204
0.0602957
0.0613651
0.0624114
0.0634337
0.0644309
0.0654024
0.0663471
0.0672644
0.0681533
0.0690131
0.0698431
0.0706426
0.0714109
0.0721473
0.0728513
0.0735222
0.0741595
0.0747629
0.0753316
0.0758655
0.0763641
0.0768271
0.0772542
0.0776452
0.0779999
0.0783182
0.0786001
0.0788454
0.0790543
0.0792268
0.0793632
0.0794635
0.0795281
0.0795573
0.0795516
0.0795113
0.0794371
0.0793294
0.0791891
0.0790168
0.0788134
0.0785797
0.0783167
0.0780254
0.077707
0.0773627
0.0769936
0.0766012
0.0761869
0.0757522
0.0752987
0.0748281
0.074342
0.0738424
0.0733312
0.0728102
0.0722816
0.0717475
0.07121
0.0706715
0.0701343
0.0696006
0.069073
0.0685539
0.0680457
0.0675509
0.0670722
0.0666119
0.0661726
0.0657568
0.065367
0.0650055
0.0646747
0.064377
0.0641147
0.0638903
0.0637065
0.0635614
0.0634512
0.00453054
0.00433298
0.00411912
0.00387908
0.00360441
0.00329773
0.00296169
0.00259827
0.00220952
0.00179761
0.00136475
0.000913206
0.00044525
-3.68141e-05
-0.000530679
-0.00103404
-0.00154462
-0.00206013
-0.00257837
-0.00309713
-0.00361427
-0.00412771
-0.00463543
-0.00513545
-0.00562589
-0.00610492
-0.00657079
-0.00702182
-0.00745643
-0.00787307
-0.00827031
-0.00864676
-0.00900114
-0.00933223
-0.00963887
-0.00991999
-0.0101746
-0.0104017
-0.0106006
-0.0107703
-0.0109101
-0.0110195
-0.0110978
-0.0111444
-0.0111588
-0.0111407
-0.0110897
-0.0110055
-0.0108877
-0.0107363
-0.010551
-0.0103317
-0.0100784
-0.00979112
-0.00946981
-0.00911457
-0.00872553
-0.00830284
-0.00784671
-0.00735737
-0.00683509
-0.0062802
-0.00569304
-0.00507399
-0.00442348
-0.00374194
-0.00302985
-0.00228774
-0.00151613
-0.000715606
0.000113248
0.000969804
0.00185341
0.0027634
0.00369906
0.00465967
0.0056445
0.00665275
0.00768366
0.0087364
0.00981014
0.010904
0.0120172
0.0131488
0.0142979
0.0154635
0.0166448
0.0178407
0.0190504
0.0202728
0.021507
0.0227519
0.0240065
0.0252698
0.0265408
0.0278185
0.0291016
0.0303893
0.0316805
0.032974
0.0342688
0.0355638
0.036858
0.0381501
0.0394393
0.0407243
0.042004
0.0432775
0.0445435
0.045801
0.047049
0.0482864
0.049512
0.0507249
0.051924
0.0531082
0.0542766
0.055428
0.0565615
0.0576761
0.0587709
0.0598448
0.0608969
0.0619263
0.0629322
0.0639135
0.0648695
0.0657993
0.0667021
0.0675772
0.0684237
0.069241
0.0700283
0.070785
0.0715105
0.0722041
0.0728653
0.0734937
0.0740886
0.0746497
0.0751765
0.0756688
0.0761261
0.0765483
0.076935
0.0772862
0.0776017
0.0778815
0.0781255
0.0783337
0.0785063
0.0786434
0.0787452
0.078812
0.0788441
0.0788418
0.0788058
0.0787364
0.0786343
0.0785001
0.0783346
0.0781384
0.0779125
0.0776579
0.0773755
0.0770663
0.0767316
0.0763726
0.0759905
0.0755868
0.0751628
0.0747202
0.0742604
0.0737852
0.0732964
0.0727956
0.0722849
0.0717661
0.0712412
0.0707124
0.0701817
0.0696514
0.0691236
0.0686006
0.0680847
0.0675782
0.0670834
0.0666027
0.0661383