/*--------------------------------*- C++ -*----------------------------------*\
  =========                 |
  \\      /  F ield         | OpenFOAM: The Open Source CFD Toolbox
   \\    /   O peration     | Website:  https://openfoam.org
    \\  /    A nd           | Version:  7
     \\/     M anipulation  |
\*---------------------------------------------------------------------------*/
FoamFile
{
    version     2.0;
    format      ascii;
    class       volScalarField;
    location    "5.5";
    object      T;
}
// * * * * * * * * * * * * * * * * * * * * * * * * * * * * * * * * * * * * * //

dimensions      [0 0 0 1 0 0 0];

internalField   nonuniform List<scalar> 
2413
(
1.22747
1.22774
1.22766
1.22766
1.22795
1.22878
1.23024
1.23265
1.23637
1.24194
1.25019
1.26071
1.27454
1.29186
1.31213
1.33375
1.35467
1.37308
1.3876
1.39664
1.39957
1.39868
1.3949
1.38837
1.38073
1.37227
1.36337
1.35447
1.34671
1.33955
1.33307
1.32738
1.32199
1.31671
1.31149
1.30625
1.30047
1.29439
1.28814
1.28153
1.2744
1.26684
1.2586
1.24955
1.23971
1.22907
1.21763
1.2056
1.19308
1.18005
1.16696
1.15428
1.1426
1.13208
1.12259
1.1145
1.10771
1.10142
1.09603
1.09343
1.09108
1.08911
1.08983
1.09175
1.0951
1.09885
1.10212
1.10566
1.10902
1.11062
1.11054
1.10934
1.10598
1.10085
1.09261
1.08234
1.07123
1.05898
1.04804
1.03741
1.03032
1.02909
1.03014
1.03418
1.04092
1.04657
1.04963
1.04943
1.14955
1.15476
1.15913
1.16274
1.16588
1.16873
1.17141
1.17412
1.17726
1.181
1.18562
1.19167
1.19915
1.20871
1.22108
1.23697
1.25633
1.27852
1.30191
1.32332
1.34055
1.35336
1.36152
1.36385
1.36255
1.35845
1.35203
1.34411
1.33575
1.32763
1.3199
1.31377
1.30847
1.3038
1.29954
1.29561
1.29158
1.28752
1.28351
1.27921
1.27434
1.26903
1.26318
1.25676
1.24966
1.24172
1.23298
1.22354
1.21369
1.20377
1.19376
1.18375
1.17417
1.16515
1.15605
1.14789
1.14147
1.13498
1.12896
1.12582
1.1236
1.12091
1.12083
1.12132
1.12309
1.1233
1.12271
1.12109
1.11973
1.11762
1.11468
1.11048
1.10413
1.0956
1.08401
1.0716
1.0591
1.04586
1.03434
1.02426
1.01753
1.01333
1.0135
1.01566
1.02049
1.02804
1.03686
1.04313
1.11431
1.11728
1.12086
1.1245
1.12794
1.13122
1.13457
1.13796
1.14127
1.14456
1.14775
1.15087
1.15438
1.15798
1.16276
1.16947
1.17888
1.19151
1.20754
1.22617
1.24592
1.26541
1.28297
1.29677
1.30638
1.31078
1.31067
1.3088
1.30469
1.29934
1.29323
1.2871
1.28067
1.27505
1.26961
1.26475
1.26063
1.25726
1.25457
1.25237
1.25035
1.24795
1.24522
1.24198
1.23791
1.2331
1.2276
1.22146
1.21491
1.20806
1.20093
1.19377
1.18681
1.17987
1.17274
1.16602
1.16037
1.15416
1.14818
1.14464
1.14191
1.13837
1.13636
1.13544
1.13493
1.13245
1.12832
1.12354
1.1172
1.10974
1.10356
1.09781
1.09038
1.08079
1.0695
1.05835
1.04808
1.03761
1.02833
1.02069
1.01403
1.00808
1.00667
1.00765
1.0104
1.01519
1.02229
1.03193
1.113
1.11344
1.11421
1.11551
1.11708
1.11874
1.12058
1.12273
1.12499
1.12727
1.12934
1.13147
1.13342
1.13527
1.1373
1.13948
1.14197
1.14551
1.15035
1.15681
1.16597
1.17779
1.19142
1.20563
1.21926
1.2306
1.23916
1.24531
1.24651
1.24555
1.24244
1.2375
1.23152
1.22532
1.21931
1.21411
1.20937
1.20564
1.20267
1.20031
1.19877
1.1978
1.19706
1.19639
1.19546
1.19458
1.19335
1.19164
1.18954
1.18656
1.18298
1.17921
1.17537
1.17133
1.16716
1.16351
1.15931
1.15291
1.1467
1.14209
1.13686
1.13107
1.12654
1.12461
1.12144
1.11877
1.11572
1.11015
1.10097
1.0904
1.0829
1.0773
1.07083
1.0627
1.05479
1.04716
1.03963
1.0328
1.02629
1.02017
1.01509
1.01101
1.00775
1.00632
1.0072
1.01057
1.01556
1.02227
1.11987
1.11813
1.11793
1.11813
1.11846
1.11894
1.11967
1.12066
1.12181
1.12294
1.12386
1.12477
1.12563
1.1265
1.1273
1.12815
1.12892
1.1297
1.1303
1.13123
1.13266
1.13471
1.13778
1.14264
1.14901
1.15602
1.16318
1.16975
1.17459
1.17823
1.17909
1.17847
1.17656
1.17351
1.1694
1.16481
1.15993
1.15514
1.15065
1.14633
1.14256
1.13916
1.13654
1.13456
1.13302
1.13269
1.13283
1.13336
1.13396
1.13414
1.13406
1.13397
1.13359
1.13285
1.13209
1.13096
1.12798
1.12308
1.11845
1.11372
1.10786
1.10139
1.09804
1.09443
1.09001
1.0909
1.08969
1.08522
1.07603
1.06588
1.06048
1.05647
1.05247
1.04857
1.04414
1.03997
1.03577
1.03122
1.02672
1.02261
1.0192
1.01649
1.01424
1.01212
1.01146
1.01227
1.01509
1.01946
1.128
1.12611
1.12498
1.12423
1.12358
1.12285
1.12255
1.1226
1.12286
1.12319
1.12366
1.12395
1.12413
1.12422
1.12405
1.12385
1.12383
1.12367
1.12364
1.12358
1.12323
1.12253
1.12149
1.12136
1.12138
1.12169
1.12266
1.12426
1.12618
1.12801
1.12939
1.12988
1.12963
1.12894
1.12744
1.12522
1.1225
1.11907
1.11547
1.11137
1.10715
1.10293
1.09875
1.09505
1.09165
1.08909
1.08712
1.08586
1.08499
1.08402
1.08322
1.08339
1.08406
1.08515
1.0874
1.08753
1.08579
1.08328
1.08076
1.0765
1.07125
1.06729
1.06534
1.06076
1.06008
1.06426
1.06449
1.0622
1.05582
1.0495
1.04541
1.04394
1.04303
1.04172
1.04013
1.03776
1.03487
1.032
1.02924
1.02672
1.02466
1.02311
1.02184
1.02056
1.01944
1.01877
1.01924
1.02112
1.13221
1.13222
1.13118
1.13019
1.12926
1.12817
1.12722
1.12657
1.12617
1.12583
1.12564
1.12533
1.12487
1.1243
1.12357
1.12297
1.1225
1.1221
1.12179
1.12125
1.1203
1.11898
1.11771
1.11617
1.11446
1.11293
1.11163
1.11056
1.1097
1.10868
1.10755
1.10644
1.1051
1.10393
1.10259
1.10094
1.09925
1.09685
1.09423
1.0912
1.08762
1.08408
1.08002
1.0763
1.07253
1.06915
1.06607
1.06334
1.06093
1.05815
1.05576
1.05457
1.05503
1.05599
1.0583
1.05846
1.05655
1.05502
1.05324
1.04963
1.04582
1.04449
1.04267
1.04052
1.04225
1.04797
1.05014
1.04918
1.04585
1.04255
1.0416
1.04018
1.04085
1.0409
1.04027
1.03917
1.0376
1.03604
1.03446
1.03282
1.03136
1.03025
1.0295
1.02886
1.02816
1.02736
1.02651
1.02667
1.11929
1.13565
1.13572
1.13463
1.13348
1.13244
1.13151
1.1307
1.13003
1.12942
1.1288
1.128
1.12691
1.12561
1.12448
1.1236
1.12278
1.12204
1.12147
1.12066
1.11965
1.11839
1.11691
1.11518
1.11352
1.11188
1.11018
1.10845
1.10679
1.10479
1.10255
1.10058
1.09845
1.09647
1.09442
1.09207
1.09
1.08751
1.08493
1.08234
1.07924
1.07635
1.07293
1.06967
1.06637
1.06322
1.06031
1.05741
1.05464
1.05131
1.04843
1.04705
1.04746
1.0479
1.04925
1.04953
1.0473
1.04558
1.04391
1.04099
1.03856
1.03784
1.03574
1.03566
1.03811
1.04313
1.04658
1.04605
1.04418
1.04243
1.04205
1.04251
1.04329
1.04334
1.04355
1.04341
1.04294
1.0426
1.04196
1.04097
1.03986
1.0388
1.03793
1.03721
1.03652
1.0357
1.0347
1.03364
1.07288
1.1251
1.1384
1.13792
1.1367
1.13584
1.13513
1.13437
1.1336
1.13282
1.13193
1.13083
1.12932
1.12758
1.12627
1.12518
1.12405
1.12301
1.12201
1.12079
1.11954
1.11822
1.11679
1.11521
1.11356
1.11192
1.11038
1.10881
1.10718
1.10521
1.10295
1.1008
1.0984
1.09617
1.09401
1.09154
1.08926
1.0867
1.08404
1.08154
1.07857
1.07587
1.07272
1.06973
1.06681
1.06402
1.06148
1.05885
1.05614
1.05298
1.05101
1.04989
1.05058
1.05108
1.05154
1.05133
1.0492
1.04707
1.04547
1.04366
1.04151
1.04066
1.03887
1.03926
1.0415
1.04677
1.04996
1.04968
1.04906
1.04784
1.04754
1.04857
1.04995
1.05079
1.05135
1.05136
1.05135
1.05133
1.05099
1.05018
1.04907
1.04784
1.04669
1.04566
1.04475
1.04379
1.04266
1.0412
1.02158
1.08023
1.12751
1.14048
1.14034
1.13942
1.13868
1.13793
1.13704
1.13595
1.13461
1.13297
1.13115
1.12975
1.12864
1.12749
1.12628
1.12503
1.1236
1.12199
1.12023
1.11856
1.11695
1.11545
1.114
1.11259
1.11117
1.10955
1.1078
1.10583
1.10381
1.10186
1.09956
1.09736
1.09512
1.09255
1.09022
1.08764
1.08511
1.08273
1.07989
1.07743
1.07456
1.07199
1.06965
1.0674
1.06531
1.06317
1.06054
1.05815
1.05754
1.05699
1.05844
1.05875
1.05862
1.05772
1.05565
1.05352
1.05213
1.05137
1.04984
1.04795
1.0465
1.04788
1.04979
1.05444
1.0569
1.05678
1.0562
1.05557
1.05561
1.05625
1.05733
1.05825
1.05905
1.05938
1.05979
1.05986
1.05948
1.05858
1.05726
1.05571
1.05414
1.05262
1.05117
1.04972
1.04815
1.04633
1.00282
1.02441
1.08373
1.12932
1.14405
1.14381
1.14263
1.14138
1.14014
1.13867
1.13691
1.13497
1.13334
1.13222
1.13121
1.13017
1.1289
1.12745
1.12578
1.12382
1.12183
1.12004
1.11838
1.11689
1.11547
1.11399
1.11236
1.11051
1.10873
1.10687
1.10503
1.10322
1.10114
1.09911
1.09694
1.09449
1.09221
1.08963
1.08715
1.08475
1.08202
1.07973
1.07713
1.07489
1.07318
1.07129
1.06976
1.06803
1.06558
1.06452
1.06483
1.06515
1.06732
1.0674
1.06695
1.06572
1.06407
1.06288
1.06154
1.06096
1.06011
1.05828
1.05679
1.0573
1.05899
1.06383
1.06575
1.06564
1.06494
1.06401
1.06371
1.06387
1.06459
1.06554
1.06645
1.0669
1.06734
1.06737
1.06693
1.06595
1.06453
1.06281
1.06098
1.05911
1.05724
1.05534
1.05337
1.05124
1.00017
1.00314
1.02638
1.08517
1.13431
1.14756
1.14684
1.14486
1.14298
1.14115
1.13929
1.13761
1.13629
1.13516
1.13412
1.13295
1.13157
1.12994
1.12801
1.12592
1.12398
1.12224
1.12059
1.1191
1.11757
1.11585
1.1139
1.11182
1.11004
1.10821
1.10645
1.10469
1.10263
1.10071
1.09855
1.09629
1.09416
1.09166
1.08937
1.08696
1.08433
1.08214
1.07971
1.07776
1.07641
1.07482
1.07355
1.07188
1.07
1.06999
1.07063
1.07219
1.07449
1.07424
1.07346
1.07212
1.0709
1.07055
1.06973
1.06932
1.06812
1.0663
1.06504
1.06556
1.06717
1.07151
1.07359
1.07345
1.07267
1.07142
1.07079
1.07084
1.07128
1.07203
1.07275
1.07314
1.07339
1.07332
1.0728
1.07177
1.07031
1.06846
1.06638
1.06416
1.06185
1.05952
1.05716
1.05478
1
1.00018
1.0034
1.02708
1.08879
1.13885
1.14986
1.14874
1.14634
1.14411
1.14241
1.14104
1.1397
1.13834
1.13697
1.13548
1.1338
1.13194
1.13005
1.12832
1.12678
1.12528
1.12366
1.12192
1.11996
1.11781
1.11559
1.11352
1.11178
1.10998
1.10822
1.10626
1.104
1.10194
1.09965
1.09755
1.09549
1.09311
1.09101
1.08857
1.08613
1.08405
1.08182
1.08019
1.07915
1.0778
1.07672
1.075
1.07398
1.07442
1.07554
1.0781
1.07959
1.07911
1.07796
1.07649
1.07568
1.07585
1.07518
1.07489
1.07388
1.07225
1.07097
1.07124
1.07282
1.07702
1.07979
1.07963
1.0789
1.07762
1.07667
1.07637
1.07663
1.07724
1.07786
1.07825
1.07842
1.07833
1.07783
1.07688
1.07549
1.07367
1.07151
1.06912
1.06654
1.06389
1.06121
1.05856
1
1
1.00019
1.00348
1.02762
1.09219
1.13984
1.15216
1.15094
1.14848
1.1463
1.14462
1.14304
1.14133
1.13954
1.13766
1.13573
1.1339
1.13232
1.13093
1.12965
1.12833
1.12675
1.12489
1.12272
1.12026
1.11769
1.1155
1.11361
1.11179
1.10988
1.1078
1.10534
1.1032
1.1008
1.09873
1.09649
1.09421
1.09197
1.08957
1.08733
1.08535
1.08339
1.08206
1.08123
1.08004
1.07904
1.07743
1.07715
1.07779
1.07985
1.08311
1.08361
1.08312
1.08144
1.08011
1.07938
1.07968
1.07926
1.07907
1.07801
1.07639
1.07527
1.07541
1.07685
1.08069
1.08438
1.08438
1.08392
1.08286
1.08172
1.08116
1.08122
1.0816
1.08208
1.08244
1.08259
1.0825
1.08208
1.08124
1.07996
1.07818
1.07597
1.07344
1.07068
1.06781
1.06491
1.06206
1
1
1
1.00018
1.00335
1.02793
1.0919
1.14188
1.15515
1.15388
1.15097
1.14833
1.14622
1.14414
1.14192
1.13974
1.13778
1.13616
1.13474
1.13343
1.1322
1.13086
1.12926
1.12738
1.12517
1.1227
1.12026
1.11811
1.11609
1.11413
1.11191
1.10963
1.10692
1.10461
1.10213
1.10004
1.09779
1.09556
1.09334
1.09107
1.08895
1.08708
1.08541
1.08422
1.08356
1.08249
1.08142
1.08007
1.08001
1.08096
1.08385
1.08705
1.08705
1.08646
1.08441
1.08324
1.08263
1.08288
1.08273
1.08239
1.08144
1.08
1.07877
1.07868
1.08001
1.08347
1.08769
1.08853
1.08826
1.08745
1.08627
1.08547
1.08525
1.08542
1.08572
1.08601
1.08616
1.08608
1.0857
1.08496
1.08378
1.08211
1.07998
1.07747
1.07466
1.07167
1.06863
1.06563
1
1
1
1
1.00016
1.00319
1.02729
1.09232
1.14505
1.15749
1.15586
1.1526
1.14963
1.14712
1.14459
1.14222
1.14032
1.13876
1.13723
1.13566
1.13412
1.13257
1.13092
1.12905
1.12699
1.12485
1.12278
1.12079
1.11879
1.11675
1.11439
1.11194
1.10908
1.1067
1.10419
1.10207
1.09973
1.09746
1.09515
1.09295
1.09093
1.08917
1.0877
1.08663
1.08607
1.08505
1.08394
1.08274
1.08283
1.08407
1.08772
1.09078
1.0905
1.08968
1.08748
1.08639
1.08585
1.08615
1.0861
1.08579
1.085
1.08348
1.08219
1.08213
1.08317
1.08594
1.09023
1.0923
1.09231
1.09181
1.09069
1.08965
1.08911
1.08901
1.08907
1.08923
1.0893
1.08918
1.08881
1.08811
1.08701
1.08547
1.08347
1.08107
1.07835
1.0754
1.07236
1.06935
1
1
1
1
1
1.00014
1.00299
1.02682
1.09331
1.14761
1.15885
1.1573
1.15386
1.15081
1.14798
1.14547
1.1433
1.14141
1.13959
1.13771
1.13589
1.13406
1.13222
1.13028
1.12837
1.12651
1.12469
1.12287
1.12098
1.11897
1.11667
1.11425
1.11155
1.1093
1.10698
1.1049
1.10256
1.10022
1.09791
1.09574
1.0938
1.09216
1.0908
1.08993
1.08941
1.08842
1.08735
1.08617
1.08634
1.08779
1.09206
1.095
1.09461
1.09356
1.09131
1.09019
1.08981
1.09007
1.09006
1.08994
1.08919
1.08769
1.08637
1.08586
1.08668
1.0888
1.09267
1.09559
1.09627
1.09601
1.0951
1.09395
1.09307
1.09257
1.09233
1.09223
1.0921
1.09184
1.09138
1.09066
1.08964
1.08828
1.08652
1.0844
1.08192
1.07918
1.07629
1.07337
1
1
1
1
1
1
1.00012
1.0028
1.02635
1.09419
1.1497
1.15952
1.15799
1.15485
1.15174
1.14903
1.14657
1.14432
1.14208
1.13981
1.13778
1.13569
1.13368
1.13159
1.12966
1.1278
1.12601
1.12422
1.12236
1.12038
1.11819
1.11594
1.11362
1.11166
1.10966
1.10777
1.10561
1.1034
1.1012
1.09911
1.09727
1.09578
1.09457
1.09398
1.09351
1.09267
1.09172
1.09049
1.09068
1.09224
1.09697
1.09993
1.09964
1.09841
1.09605
1.09484
1.0946
1.09476
1.09489
1.0947
1.09404
1.09282
1.09136
1.09025
1.09068
1.09206
1.09513
1.09852
1.10002
1.10002
1.0994
1.09824
1.09705
1.0961
1.09541
1.09491
1.09447
1.09402
1.09348
1.0928
1.09192
1.09078
1.08931
1.08751
1.08536
1.08293
1.0803
1.07762
1
1
1
1
1
1
1
1.00011
1.00265
1.02615
1.09658
1.15053
1.15944
1.15736
1.15457
1.15201
1.14949
1.1471
1.14469
1.14219
1.13991
1.13763
1.13556
1.08611
1.08924
1.0923
1.09528
1.09791
1.09981
1.10018
1.09791
1.08972
1.07794
1.06805
1.06027
1.05471
1.05077
1.42559
1.42638
1.426
1.42464
1.42223
1.41831
1.41281
1.40602
1.39842
1.39051
1.3828
1.37558
1.36884
1.36272
1.35732
1.35278
1.34932
1.34706
1.34555
1.34398
1.34167
1.33856
1.33495
1.33081
1.32627
1.32171
1.31716
1.3124
1.30731
1.30178
1.29576
1.28932
1.28274
1.27641
1.27047
1.26493
1.25964
1.25431
1.24855
1.24182
1.23346
1.22281
1.20928
1.19271
1.17353
1.1529
1.13231
1.11318
1.09692
1.08335
1.07322
1.0668
1.06349
1.06193
1.06017
1.0582
1.05696
1.05699
1.05769
1.05937
1.06235
1.0663
1.06937
1.07037
1.06921
1.06545
1.06238
1.06216
1.06273
1.06461
1.06795
1.07242
1.07745
1.08236
1.08671
1.09001
1.09232
1.09363
1.09391
1.09294
1.08941
1.08265
1.07404
1.06629
1.06036
1.05568
1.05204
1.04956
1.42572
1.42749
1.42817
1.42803
1.4271
1.42513
1.42165
1.41676
1.41064
1.40355
1.39585
1.38797
1.38035
1.3732
1.36649
1.36034
1.35495
1.35061
1.34741
1.34493
1.34243
1.33935
1.33572
1.33169
1.3271
1.32229
1.31768
1.3132
1.3086
1.30364
1.29833
1.29269
1.28678
1.28085
1.27507
1.26943
1.26381
1.25794
1.25143
1.24381
1.23455
1.22315
1.20909
1.19206
1.1721
1.15004
1.12743
1.10621
1.0888
1.07641
1.06831
1.0637
1.06178
1.06143
1.06131
1.0612
1.0609
1.0605
1.05954
1.05815
1.0568
1.05542
1.05332
1.05064
1.04823
1.04653
1.04641
1.04751
1.05027
1.05481
1.06092
1.06805
1.07543
1.08201
1.0871
1.09055
1.09266
1.09295
1.09207
1.08923
1.08406
1.07758
1.07038
1.06368
1.05817
1.05388
1.05077
1.04873
1.42487
1.42767
1.42954
1.43071
1.43121
1.43099
1.42972
1.42726
1.42346
1.41821
1.41168
1.40417
1.39622
1.38817
1.38019
1.37247
1.36522
1.35877
1.3533
1.34887
1.34509
1.34144
1.33754
1.33335
1.32902
1.32417
1.31892
1.31397
1.30938
1.30486
1.30017
1.29519
1.28992
1.28447
1.27895
1.27335
1.26756
1.2613
1.25417
1.24569
1.23544
1.22314
1.2085
1.19148
1.1723
1.1515
1.13029
1.1102
1.09284
1.07971
1.0713
1.06667
1.06441
1.06373
1.06378
1.06377
1.06307
1.0612
1.05842
1.05459
1.05033
1.04576
1.04095
1.03668
1.03442
1.03403
1.03465
1.03671
1.04075
1.04685
1.05466
1.06363
1.07265
1.08055
1.0868
1.09107
1.0933
1.09312
1.09158
1.0882
1.08319
1.07713
1.07091
1.06536
1.06069
1.05686
1.05374
1.05124
1.42247
1.42655
1.42954
1.43182
1.43355
1.43491
1.43558
1.43541
1.43404
1.43105
1.42658
1.42101
1.41426
1.40645
1.39797
1.3892
1.38058
1.37236
1.36467
1.35779
1.35177
1.34638
1.34133
1.3365
1.33173
1.32687
1.3217
1.31628
1.31101
1.3061
1.30143
1.29679
1.29202
1.28707
1.2819
1.27642
1.27049
1.2639
1.25635
1.2474
1.23667
1.22392
1.20907
1.1921
1.1737
1.15432
1.13485
1.11675
1.10097
1.08872
1.08016
1.07426
1.07032
1.0679
1.06642
1.065
1.06305
1.06035
1.05645
1.0515
1.04622
1.04074
1.03551
1.03114
1.02908
1.02921
1.03029
1.03296
1.03747
1.04388
1.05195
1.06135
1.0711
1.07973
1.08685
1.09234
1.09555
1.09516
1.09363
1.09033
1.08492
1.07862
1.07251
1.06717
1.06279
1.05914
1.05616
1.05374
1.41729
1.42255
1.42677
1.43021
1.43319
1.43584
1.43785
1.43904
1.43939
1.43917
1.43809
1.4355
1.43096
1.42445
1.41668
1.40813
1.39902
1.38984
1.38086
1.37217
1.36402
1.35659
1.34974
1.34328
1.33715
1.33141
1.3259
1.32015
1.31426
1.30869
1.30336
1.2982
1.29322
1.28835
1.28338
1.27806
1.27217
1.26551
1.25783
1.24879
1.23805
1.22538
1.2107
1.19419
1.17648
1.15828
1.14045
1.12406
1.10991
1.09886
1.09067
1.08452
1.07971
1.07582
1.07251
1.06942
1.06622
1.06246
1.05757
1.05185
1.04578
1.03983
1.03468
1.03062
1.02815
1.02836
1.02969
1.03275
1.03761
1.0443
1.05251
1.06197
1.07172
1.08081
1.08859
1.09586
1.10176
1.10169
1.10062
1.09767
1.09179
1.08423
1.07646
1.06952
1.06416
1.06007
1.05722
1.05509
1.40605
1.41128
1.41594
1.42029
1.42442
1.42826
1.43182
1.43507
1.438
1.44045
1.44188
1.44192
1.44076
1.43796
1.43315
1.42649
1.41801
1.40867
1.39892
1.38897
1.37939
1.37052
1.36237
1.35476
1.34744
1.34023
1.33322
1.32659
1.32034
1.31402
1.30766
1.3017
1.29615
1.29068
1.28509
1.27918
1.2729
1.26602
1.25831
1.24943
1.23906
1.22698
1.21314
1.19777
1.18132
1.16436
1.14773
1.1321
1.11846
1.1074
1.09882
1.09214
1.08673
1.08206
1.07762
1.07302
1.068
1.06241
1.05638
1.05023
1.04395
1.038
1.03307
1.02948
1.02781
1.02806
1.03011
1.03438
1.04051
1.04832
1.05751
1.06768
1.07752
1.08658
1.09433
1.10173
1.10709
1.10698
1.10642
1.10398
1.09792
1.09018
1.08146
1.07296
1.06564
1.05987
1.0563
1.05394
1.3869
1.38956
1.39226
1.39542
1.39915
1.40363
1.40902
1.41528
1.42197
1.42833
1.43389
1.43824
1.44076
1.44144
1.44032
1.43695
1.43187
1.42487
1.41609
1.40601
1.39572
1.38592
1.37688
1.36861
1.36077
1.35299
1.34523
1.33762
1.33014
1.323
1.31612
1.30949
1.30301
1.29645
1.28978
1.283
1.2761
1.26878
1.26081
1.25191
1.2418
1.2303
1.2174
1.20326
1.18814
1.17242
1.15676
1.14161
1.12792
1.11592
1.10592
1.09775
1.09097
1.08498
1.07921
1.07347
1.06767
1.06139
1.05504
1.04915
1.04363
1.03872
1.03466
1.03237
1.03235
1.03322
1.03615
1.04163
1.04904
1.05804
1.06809
1.07805
1.08701
1.09449
1.09908
1.10444
1.10685
1.10671
1.10663
1.10483
1.09944
1.09317
1.0861
1.0774
1.06877
1.06155
1.05601
1.05243
1.35502
1.35344
1.35229
1.35192
1.35261
1.35499
1.35942
1.3662
1.37512
1.38538
1.39681
1.40871
1.41967
1.42817
1.4337
1.43589
1.43543
1.43227
1.42593
1.41782
1.40895
1.39961
1.39018
1.381
1.37206
1.36378
1.35624
1.34923
1.34217
1.33499
1.32779
1.32065
1.31353
1.30642
1.29923
1.29203
1.2846
1.27678
1.26848
1.25947
1.24956
1.23857
1.22648
1.21337
1.19943
1.18486
1.17
1.15531
1.14121
1.12828
1.11675
1.1065
1.09751
1.08927
1.08151
1.0746
1.06846
1.06233
1.05651
1.05147
1.04685
1.04247
1.0398
1.03995
1.04125
1.04431
1.04954
1.05663
1.06529
1.07455
1.08319
1.09076
1.09722
1.10035
1.10113
1.1006
1.09739
1.09215
1.08882
1.08562
1.08137
1.08054
1.07798
1.07353
1.06902
1.06318
1.0568
1.05191
1.30744
1.30367
1.30035
1.2977
1.29621
1.29624
1.2976
1.30132
1.30795
1.3177
1.32985
1.34458
1.36102
1.37795
1.39424
1.40809
1.41762
1.42226
1.42238
1.42019
1.41507
1.40755
1.39842
1.38853
1.379
1.37019
1.36215
1.35476
1.3479
1.34118
1.33467
1.32842
1.32221
1.31593
1.30964
1.30326
1.29636
1.28902
1.28115
1.27266
1.26333
1.25292
1.2415
1.22922
1.21626
1.20281
1.18904
1.17512
1.16147
1.14855
1.13628
1.12478
1.11387
1.10369
1.09438
1.08635
1.07935
1.07261
1.06674
1.06307
1.05967
1.05705
1.05747
1.05959
1.06314
1.06801
1.07387
1.08048
1.08803
1.09442
1.09954
1.10341
1.10374
1.10275
1.09924
1.09273
1.08482
1.07482
1.06747
1.05929
1.05328
1.05444
1.05703
1.05929
1.06036
1.05849
1.05579
1.05242
)
;

boundaryField
{
    inlet
    {
        type            fixedValue;
        value           nonuniform 0();
    }
    outlet
    {
        type            inletOutlet;
        inletValue      nonuniform 0();
        value           nonuniform 0();
    }
    bottom
    {
        type            symmetryPlane;
    }
    top
    {
        type            symmetryPlane;
    }
    obstacle
    {
        type            zeroGradient;
    }
    front
    {
        type            empty;
    }
    back
    {
        type            empty;
    }
    procBoundary19to2
    {
        type            processor;
        value           nonuniform List<scalar> 
23
(
1.22614
1.1431
1.11261
1.11491
1.12283
1.12813
1.11301
1.06633
1.01873
1.00238
1.00014
1
1
1
1.42359
1.42274
1.42063
1.4169
1.41099
1.40015
1.38391
1.35651
1.31144
)
;
    }
    procBoundary19to10
    {
        type            processor;
        value           nonuniform List<scalar> 5(1 1 1 1 1);
    }
    procBoundary19to11
    {
        type            processor;
        value           nonuniform List<scalar> 
89
(
1.08536
1.08899
1.09284
1.09704
1.10144
1.10617
1.11086
1.11417
1.11233
1.10156
1.08508
1.07095
1.061
1.05305
1.42468
1.42475
1.42375
1.42135
1.41744
1.41179
1.40467
1.39661
1.38832
1.38044
1.37318
1.36665
1.36087
1.35586
1.35182
1.34907
1.34755
1.34681
1.34602
1.34437
1.34179
1.3386
1.33481
1.33057
1.32612
1.32152
1.31664
1.31146
1.30557
1.29912
1.29223
1.28491
1.27785
1.27135
1.26544
1.26009
1.25511
1.25019
1.2449
1.23868
1.23095
1.22119
1.20915
1.1947
1.1785
1.1615
1.14469
1.12847
1.11297
1.09867
1.08615
1.07601
1.06858
1.06344
1.05926
1.05572
1.05395
1.05419
1.05654
1.06185
1.06971
1.07928
1.0872
1.09089
1.08794
1.07972
1.07302
1.07043
1.07029
1.07094
1.07281
1.07569
1.0791
1.08269
1.08269
)
;
    }
    procBoundary19to12
    {
        type            processor;
        value           uniform 1.04801;
    }
    procBoundary19to20
    {
        type            processor;
        value           nonuniform List<scalar> 
27
(
1.04896
1.04652
1.04067
1.03121
1.02517
1.02459
1.02756
1.03285
1.03957
1.04422
1.0489
1.05232
1.05593
1.05929
1.06274
1.06648
1.07054
1.07497
1.04799
1.04759
1.04936
1.05181
1.05338
1.05259
1.05022
1.04883
1.04905
)
;
    }
    procBoundary19to27
    {
        type            processor;
        value           nonuniform List<scalar> 
89
(
1.13334
1.13128
1.1292
1.12725
1.12532
1.12345
1.12144
1.1193
1.11718
1.11515
1.11342
1.11162
1.10996
1.10804
1.10609
1.10409
1.10213
1.1004
1.09903
1.09803
1.09772
1.09742
1.09688
1.09612
1.09491
1.09508
1.09658
1.10161
1.10493
1.10472
1.10347
1.10113
1.09971
1.09957
1.09978
1.09995
1.0998
1.09916
1.09799
1.09646
1.09495
1.09484
1.09544
1.09752
1.10076
1.10289
1.10352
1.10314
1.10205
1.10064
1.0993
1.09819
1.09733
1.09662
1.09599
1.09536
1.0947
1.09395
1.09305
1.0919
1.09046
1.08871
1.08668
1.08443
1.08208
1
1
1
1
1
1
1
1
1.0001
1.0026
1.02712
1.09997
1.15176
1.15843
1.15602
1.15336
1.15081
1.1485
1.14634
1.14411
1.14191
1.13974
1.13334
1.1376
)
;
    }
}


// ************************************************************************* //
