/*--------------------------------*- C++ -*----------------------------------*\
  =========                 |
  \\      /  F ield         | OpenFOAM: The Open Source CFD Toolbox
   \\    /   O peration     | Website:  https://openfoam.org
    \\  /    A nd           | Version:  7
     \\/     M anipulation  |
\*---------------------------------------------------------------------------*/
FoamFile
{
    version     2.0;
    format      ascii;
    class       surfaceScalarField;
    location    "67";
    object      phi;
}
// * * * * * * * * * * * * * * * * * * * * * * * * * * * * * * * * * * * * * //

dimensions      [0 3 -1 0 0 0 0];

internalField   nonuniform List<scalar> 
53160
(
-0.000163462
0.000171088
-7.62576e-06
-0.000321429
0.000112332
4.56354e-05
-0.00050447
5.19707e-05
0.00013107
-0.000675998
-8.04583e-05
0.000251986
-0.000854336
-0.000203597
0.000381934
-0.00103158
-0.000294989
0.000472233
-0.00120896
-0.000284437
0.000461819
-0.00138304
-0.000119611
0.000293685
-0.00154849
0.000220056
-5.45995e-05
-0.00170151
0.000705578
-0.000552566
-0.00182734
0.00122857
-0.00110274
-0.00192879
0.00164589
-0.00154443
-0.0019706
0.00175045
-0.00170865
-0.00195514
0.00144914
-0.0014646
-0.00186114
0.000669835
-0.000763829
-0.00167897
-0.000503276
0.000321109
-0.00147967
-0.00159244
0.00139314
-0.001175
-0.00268373
0.00237906
-0.000881718
-0.00306347
0.00277019
-0.00286893
0.00239849
-0.000411284
-0.000163025
0.000334113
-0.000319979
0.000269286
-0.00050155
0.000233542
-0.00067071
8.87017e-05
-0.000844988
-2.93186e-05
-0.00101561
-0.000124371
-0.00118263
-0.000117416
-0.00134141
3.91729e-05
-0.00148504
0.000363689
-0.0016072
0.000827739
-0.00168907
0.00131044
-0.00172836
0.00168518
-0.00168494
0.00170703
-0.00156037
0.00132456
-0.00132734
0.000436809
-0.00101778
-0.000812833
-0.000664671
-0.00194555
-0.00028254
-0.00306586
6.16292e-05
-0.00340764
-0.00332132
0.000514025
-0.000161825
0.000495937
-0.000316073
0.000423534
-0.000493492
0.000410961
-0.000656177
0.000251387
-0.00082036
0.000134864
-0.000975898
3.1168e-05
-0.00112095
2.76312e-05
-0.00124886
0.000167087
-0.00135022
0.000465045
-0.00141521
0.000892733
-0.00142074
0.00131597
-0.00135837
0.0016228
-0.00118453
0.0015332
-0.000903469
0.0010435
-0.000467045
3.84942e-07
1.6192e-05
-0.00129607
0.000613241
-0.0025426
0.00118731
-0.00363993
0.00169853
-0.00391885
-0.00392871
0.00230592
-0.000159879
0.000655817
-0.000309739
0.000573394
-0.00048034
0.000581561
-0.000632485
0.000403532
-0.000780648
0.000283027
-0.00091293
0.00016345
-0.00102498
0.000139684
-0.00110754
0.000249641
-0.00114813
0.000505634
-0.00113275
0.000877362
-0.00103507
0.00121828
-0.000839821
0.00142755
-0.000502877
0.00119626
-3.96786e-05
0.000580302
0.000631238
-0.000670532
0.0013511
-0.00201593
0.00217731
-0.00336881
0.00300074
-0.00446336
0.0037558
-0.00467391
-0.00478089
0.00460797
-0.000157215
0.000813032
-0.000301034
0.000717213
-0.000462169
0.000742696
-0.000599763
0.000541126
-0.00072611
0.000409374
-0.000827274
0.000264614
-0.000896015
0.000208426
-0.000920063
0.000273689
-0.00088383
0.000469401
-0.000768686
0.000762218
-0.000547241
0.00099684
-0.000197083
0.00107739
0.000325593
0.00067358
0.0010029
-9.70092e-05
0.00188945
-0.00155707
0.00284518
-0.00297167
0.00388942
-0.00441305
0.00493366
-0.00550761
0.00593357
-0.00567382
-0.00586445
0.00701714
-0.000153872
0.000966904
-0.000290032
0.000853374
-0.000439081
0.000891745
-0.00055816
0.000660205
-0.000656995
0.000508209
-0.000719459
0.000327078
-0.000735234
0.0002242
-0.000688979
0.000227434
-0.000562344
0.000342767
-0.000331897
0.00053177
2.61075e-05
0.000638836
0.000549741
0.000553759
0.00126892
-4.55978e-05
0.00215966
-0.000987752
0.00324608
-0.00264349
0.00441172
-0.00413731
0.00562328
-0.0056246
0.00681176
-0.0066961
0.00799603
-0.00685809
-0.00708635
0.00921793
-0.000149899
0.0011168
-0.000276829
0.000980304
-0.00041119
0.00102611
-0.000507816
0.000756831
-0.000573483
0.000573877
-0.000589818
0.000343413
-0.000543441
0.000177823
-0.000416187
0.00010018
-0.000187668
0.000114248
0.000169916
0.000174185
0.000682554
0.000126198
0.00138003
-0.000143719
0.00229222
-0.000957791
0.00339069
-0.00208622
0.00464066
-0.00389346
0.0059602
-0.00545684
0.00726881
-0.00693321
0.00851026
-0.00793755
0.00977906
-0.00812689
-0.00833389
0.0110266
-0.000145353
0.00126216
-0.000261535
0.00109649
-0.000378617
0.00114319
-0.000448835
0.000827049
-0.000475616
0.000600657
-0.000438362
0.000306159
-0.000320798
6.02596e-05
-0.00010237
-0.000118248
0.000237811
-0.000225932
0.000730879
-0.000318882
0.00140245
-0.000545375
0.00227658
-0.00101785
0.00336875
-0.00204996
0.00464582
-0.00336329
0.00600971
-0.00525735
0.00740232
-0.00684945
0.00872402
-0.00825491
0.00993688
-0.00915042
0.0111832
-0.00937323
-0.00951803
0.0123674
-0.000140303
0.00140246
-0.000244275
0.00120046
-0.00034147
0.00124038
-0.000381251
0.000866829
-0.000363239
0.000582645
-0.000264703
0.000207623
-6.65003e-05
-0.000137944
0.000251611
-0.00043636
0.000713026
-0.000687347
0.00134712
-0.000952978
0.00217819
-0.00137644
0.00322087
-0.00206053
0.0044662
-0.00329529
0.00586738
-0.00476447
0.00727905
-0.00666902
0.00865463
-0.00822503
0.00990939
-0.00950967
0.0110322
-0.0102732
0.0121755
-0.0105166
-0.0105941
0.0132516
-0.00013482
0.00153728
-0.000225181
0.00129082
-0.000299837
0.00131504
-0.000304997
0.00087199
-0.000235963
0.000513611
-6.80961e-05
3.97559e-05
0.000219243
-0.000425283
0.000646807
-0.000863924
0.00123658
-0.00127712
0.00201317
-0.00172957
0.00299585
-0.00235913
0.0041853
-0.00324998
0.00553891
-0.0046489
0.0069899
-0.00621546
0.00837334
-0.00805247
0.00965373
-0.00950542
0.0107854
-0.0106414
0.0117858
-0.0112736
0.0127946
-0.0115253
-0.0115608
0.0137613
-0.000128983
0.00166626
-0.000204387
0.00136622
-0.000253759
0.00136441
-0.000219877
0.000838108
-9.30992e-05
0.000386833
0.00015247
-0.000205814
0.00053824
-0.000811052
0.00108265
-0.00140833
0.00180394
-0.00199841
0.00271791
-0.00264354
0.00383199
-0.0034732
0.00512839
-0.00454637
0.00652768
-0.00604819
0.00794766
-0.00763544
0.0092349
-0.0093397
0.0103723
-0.0106429
0.0113615
-0.0116305
0.0122401
-0.0121522
0.0131281
-0.0124133
-0.0124425
0.0140097
-0.000122869
0.00178913
-0.000182024
0.00142538
-0.000203217
0.0013856
-0.000125547
0.000760437
6.60568e-05
0.00019523
0.000397965
-0.000537722
0.000890228
-0.00130331
0.00155558
-0.00207369
0.00240451
-0.00284733
0.00344002
-0.00367906
0.00465047
-0.00468365
0.00599694
-0.00589284
0.00737192
-0.00742317
0.00869288
-0.0089564
0.00984234
-0.0104892
0.0108276
-0.0116281
0.0116878
-0.0124907
0.0124697
-0.012934
0.0132723
-0.0132159
-0.0132681
0.0140979
-0.000116557
0.00190569
-0.000158206
0.00146703
-0.000148093
0.00137549
-2.1743e-05
0.000634087
0.000242232
-6.8745e-05
0.000668848
-0.000964338
0.00127276
-0.00190723
0.00205721
-0.00285813
0.0030197
-0.00380983
0.0041472
-0.00480655
0.00540572
-0.00594218
0.00673819
-0.0072253
0.00802857
-0.00871355
0.00921176
-0.0101396
0.0102157
-0.0114931
0.0110702
-0.0124826
0.011833
-0.0132536
0.0125507
-0.0136516
0.0133021
-0.0139673
-0.01406
0.014094
-0.000110118
0.0020158
-0.000133022
0.00148993
-8.81202e-05
0.00133059
9.34634e-05
0.000452504
0.000436741
-0.000412023
0.00096439
-0.00149199
0.0016801
-0.00262294
0.00257296
-0.00375099
0.0036233
-0.00486017
0.00480109
-0.00598435
0.00605378
-0.00719487
0.00731657
-0.00848809
0.00848643
-0.00988341
0.00952602
-0.0111792
0.0104031
-0.0123702
0.0111613
-0.0132409
0.0118601
-0.0139524
0.0125406
-0.0143321
0.0132645
-0.0146913
-0.014832
0.0140366
-0.000103613
0.00211942
-0.000106513
0.00149283
-2.26668e-05
0.00124674
0.000220081
0.000209755
0.000649967
-0.000841908
0.00128182
-0.00212384
0.00210228
-0.0034434
0.00308264
-0.00473135
0.00418522
-0.00596275
0.00536654
-0.00716567
0.00656579
-0.00839411
0.00772422
-0.00964652
0.00876552
-0.0109247
0.00967927
-0.0120929
0.0104591
-0.01315
0.0111542
-0.0139359
0.0118147
-0.0146129
0.012476
-0.0149935
0.0131862
-0.0154014
-0.015592
0.0139462
-9.70864e-05
0.0022165
-7.86566e-05
0.0014744
4.79724e-05
0.00112011
0.000359351
-0.000101623
0.000881517
-0.00136407
0.00161551
-0.00285783
0.00252516
-0.00435306
0.00356317
-0.00576936
0.00467801
-0.00707759
0.00582083
-0.00830849
0.00693525
-0.00950853
0.00797857
-0.0106898
0.00890353
-0.0118497
0.00971854
-0.0129079
0.0104299
-0.0138614
0.0110866
-0.0145926
0.0117254
-0.0152517
0.0123781
-0.0156462
0.0130814
-0.0161047
-0.0163439
0.0138333
-9.05553e-05
0.00230706
-4.93454e-05
0.00143319
0.00012515
0.000945619
0.000512295
-0.000488768
0.00112945
-0.00198123
0.00195662
-0.00368499
0.00293184
-0.00532827
0.00399298
-0.0068305
0.00508323
-0.00816784
0.00615816
-0.00938342
0.00717524
-0.0105256
0.00811053
-0.0116251
0.00894023
-0.0126794
0.00968259
-0.0136503
0.0103479
-0.0145267
0.0109822
-0.0152269
0.011609
-0.0158785
0.0122587
-0.0162959
0.0129579
-0.016804
-0.0170891
0.0137032
-8.4002e-05
0.00239106
-1.84853e-05
0.00136767
0.000210004
0.00071713
0.000679335
-0.000958099
0.00138966
-0.00269156
0.00229356
-0.00458889
0.0033054
-0.00634012
0.00435649
-0.00788159
0.00539465
-0.009206
0.00638735
-0.0103761
0.00730937
-0.0114476
0.0081524
-0.0124682
0.00890841
-0.0134354
0.00959887
-0.0143408
0.0102337
-0.0151616
0.0108551
-0.0158482
0.0114749
-0.0164983
0.012124
-0.016945
0.0128197
-0.0174996
-0.017828
0.0135585
-7.73609e-05
0.00246842
1.50359e-05
0.00127528
0.000303528
0.000428638
0.0008598
-0.00151437
0.00165561
-0.00348737
0.00261352
-0.0055468
0.00363218
-0.00735878
0.00464654
-0.00889596
0.00561687
-0.0101763
0.00652551
-0.0112848
0.00736289
-0.012285
0.00813125
-0.0132365
0.00883177
-0.0141359
0.00948525
-0.0149942
0.0100999
-0.0157762
0.0107133
-0.0164616
0.0113282
-0.0171132
0.0119775
-0.0175943
0.0126686
-0.0181907
-0.0185603
0.0134009
-7.05086e-05
0.00253893
5.24771e-05
0.00115229
0.000406718
7.43972e-05
0.00105143
-0.00215908
0.00191874
-0.00435468
0.00290467
-0.00653273
0.00390396
-0.00835807
0.00486406
-0.00985606
0.00576124
-0.0110735
0.00659173
-0.0121152
0.00735771
-0.013051
0.00806719
-0.013946
0.00872623
-0.0147949
0.00935285
-0.0156209
0.00995342
-0.0163767
0.010561
-0.0170692
0.0111718
-0.017724
0.0118209
-0.0182434
0.0125061
-0.0188759
-0.0192856
0.0132314
-6.32479e-05
0.00260218
9.37599e-05
0.000995285
0.000520184
-0.000352027
0.00125015
-0.00288905
0.00216972
-0.00527425
0.00315814
-0.00752116
0.00411847
-0.0093184
0.00501563
-0.0107532
0.00584156
-0.0118994
0.00660338
-0.0128771
0.00731085
-0.0137585
0.00797432
-0.0146095
0.00860202
-0.0154226
0.00920832
-0.0162272
0.00979844
-0.0169669
0.0104007
-0.0176715
0.0110073
-0.0183306
0.0116549
-0.018891
0.0123327
-0.0195537
-0.0200036
0.0130507
-5.52861e-05
0.00265747
0.000140423
0.000799575
0.000643789
-0.000855393
0.00145027
-0.00369552
0.00239994
-0.00622393
0.00336913
-0.00849034
0.00427822
-0.0102275
0.00511061
-0.0115856
0.00587122
-0.01266
0.00657463
-0.0135805
0.00723473
-0.0144186
0.0078621
-0.0152369
0.00846553
-0.0160261
0.00905553
-0.0168172
0.00963707
-0.0175484
0.0102335
-0.0182679
0.0108354
-0.0189325
0.0114802
-0.0195359
0.012149
-0.0202225
-0.0207142
0.0128595
-4.62158e-05
0.00270368
0.000193807
0.000559553
0.00077632
-0.00143791
0.00164522
-0.00456442
0.00260289
-0.00718159
0.00353668
-0.00942413
0.00438868
-0.0110795
0.00515889
-0.0123558
0.00586177
-0.0133629
0.00651638
-0.0142351
0.00713815
-0.0150403
0.00773674
-0.0158354
0.00832058
-0.0166099
0.00889668
-0.0173933
0.00947044
-0.0181222
0.0100602
-0.0188577
0.0106567
-0.019529
0.011297
-0.0201762
0.0119554
-0.020881
-0.0214171
0.0126584
-3.54958e-05
0.00273918
0.000254982
0.000269074
0.000915346
-0.00209827
0.00182857
-0.00547765
0.0027748
-0.00812782
0.00366285
-0.0103122
0.00445664
-0.0118733
0.00516964
-0.0130688
0.00582258
-0.0140159
0.00643667
-0.0148492
0.00702714
-0.0156308
0.00760219
-0.0164105
0.00816946
-0.0171772
0.00873299
-0.0179568
0.00929909
-0.0186883
0.00988103
-0.0194396
0.0104714
-0.0201194
0.0111055
-0.0208102
0.0117525
-0.021528
-0.0221124
0.0124478
-2.2426e-05
0.0027616
0.000324482
-7.78335e-05
0.00105733
-0.00283112
0.00199495
-0.00641527
0.00291452
-0.00904739
0.00375143
-0.0111491
0.00448897
-0.0126108
0.00515074
-0.0137306
0.00576096
-0.0146261
0.00634132
-0.0154295
0.00690576
-0.0161952
0.00746095
-0.0169657
0.00801346
-0.0177297
0.00856514
-0.0185085
0.00912328
-0.0192464
0.0096962
-0.0200125
0.0102799
-0.020703
0.0109059
-0.0214362
0.0115406
-0.0221628
-0.0227997
0.012228
-5.91001e-06
0.00276751
0.0004021
-0.000485843
0.00119797
-0.00362699
0.00214066
-0.00735796
0.00302295
-0.00992968
0.00380706
-0.0119332
0.00449202
-0.0132958
0.00510864
-0.0143472
0.00568245
-0.0151999
0.00623447
-0.0159816
0.00677674
-0.0167375
0.00731454
-0.0175035
0.00785331
-0.0182685
0.00839347
-0.0190486
0.00894305
-0.019796
0.00950587
-0.0205753
0.0100822
-0.0212794
0.0106985
-0.0220525
0.0113201
-0.0227844
-0.0234792
0.0119995
1.3287e-05
0.00275423
0.000486871
-0.000959427
0.00133274
-0.00447286
0.00226382
-0.00828904
0.00310233
-0.0107682
0.00383445
-0.0126653
0.00447133
-0.0139327
0.00504849
-0.0149244
0.00559117
-0.0157426
0.00611899
-0.0165094
0.00664184
-0.0172604
0.0071639
-0.0180255
0.00768943
-0.018794
0.00821818
-0.0195774
0.0087584
-0.0203362
0.00931028
-0.0211272
0.00987879
-0.0218479
0.0104832
-0.0226568
0.0110912
-0.0233924
-0.0241502
0.0117622
3.65076e-05
0.00271772
0.000577212
-0.00150013
0.00145753
-0.00535318
0.0023641
-0.00919561
0.00315553
-0.0115596
0.00383803
-0.0133478
0.00443156
-0.0145262
0.00497433
-0.0154671
0.00549016
-0.0162584
0.00599687
-0.0170161
0.00650223
-0.0177657
0.00700957
-0.0185329
0.00752205
-0.0193065
0.00803932
-0.0200946
0.00856931
-0.0208662
0.00910974
-0.0216676
0.00966977
-0.022408
0.0102599
-0.0232469
0.0108542
-0.0239868
-0.0248121
0.0115161
6.41397e-05
0.00265358
0.000671078
-0.00210707
0.00156918
-0.00625128
0.00244228
-0.0100687
0.0031857
-0.012303
0.00382177
-0.0139839
0.0043765
-0.0150809
0.00488924
-0.0159799
0.00538162
-0.0167508
0.00586949
-0.0175039
0.00635867
-0.0182549
0.00685186
-0.0190261
0.00735132
-0.019806
0.00785693
-0.0206003
0.00837581
-0.0213851
0.00890454
-0.0221964
0.00945526
-0.0229587
0.0100286
-0.0238202
0.0106091
-0.0245673
-0.0254629
0.0112599
9.55589e-05
0.00255802
0.000766055
-0.00277757
0.00166577
-0.007151
0.00249984
-0.0109028
0.0031959
-0.0129991
0.0037891
-0.0145771
0.00430923
-0.015601
0.00479559
-0.0164662
0.00526714
-0.0172223
0.00573777
-0.0179746
0.00621163
-0.0187288
0.00669097
-0.0195054
0.00717732
-0.0202923
0.00767098
-0.0210939
0.00817796
-0.0218921
0.00869488
-0.0227133
0.00923504
-0.0234988
0.0097901
-0.0243753
0.0103542
-0.0251314
-0.0261078
0.0109991
0.000129773
0.00242825
0.000859433
-0.00350723
0.00174655
-0.00803811
0.00253856
-0.0116948
0.00318891
-0.0136494
0.00374285
-0.015131
0.00423212
-0.0160903
0.00469503
-0.0169292
0.00514772
-0.017675
0.00560221
-0.0184291
0.00606126
-0.0191878
0.00652684
-0.019971
0.00699991
-0.0207654
0.00748123
-0.0215752
0.00797564
-0.0223865
0.00848054
-0.0232182
0.00900862
-0.0240269
0.00954726
-0.0249139
0.0101071
-0.0256912
-0.0267034
0.0107027
0.000165556
0.00226269
0.000948406
-0.00429007
0.0018117
-0.00890141
0.00256048
-0.0124436
0.00316742
-0.0142564
0.00368558
-0.0156492
0.00414726
-0.016552
0.00458914
-0.017371
0.00502442
-0.0181103
0.00546356
-0.0188682
0.00590811
-0.0196324
0.00635992
-0.0204228
0.00681955
-0.021225
0.00728814
-0.0220438
0.0077695
-0.0228678
0.00826205
-0.0237107
0.0087766
-0.0245415
0.00930004
-0.0254374
0.00985752
-0.0262487
-0.0272632
0.0104174
0.000201788
0.0020609
0.00103033
-0.00511862
0.00186195
-0.00973303
0.00256747
-0.0131491
0.00313361
-0.0148225
0.00361923
-0.0161348
0.0040561
-0.0169889
0.00447878
-0.0177937
0.00489772
-0.0185292
0.00532196
-0.0192924
0.00575217
-0.0200626
0.00619011
-0.0208608
0.00663608
-0.021671
0.00709153
-0.0224993
0.00755939
-0.0233357
0.00803905
-0.0241904
0.00853914
-0.0250416
0.00905059
-0.0259488
0.00959139
-0.0267895
-0.0278063
0.0101344
0.000237792
0.00182311
0.00110313
-0.00598396
0.00189833
-0.0105282
0.00256137
-0.0138121
0.00308941
-0.0153506
0.00354543
-0.0165908
0.00395979
-0.0174032
0.00436471
-0.0181986
0.00476802
-0.0189325
0.00517764
-0.0197021
0.00559354
-0.0204785
0.00601747
-0.0212847
0.00644954
-0.022103
0.00689144
-0.0229412
0.00734542
-0.0237897
0.00781158
-0.0246566
0.00829728
-0.0255273
0.0087939
-0.0264454
0.00932055
-0.0273162
-0.0283411
0.00985532
0.000273527
0.00154958
0.00116555
-0.00687598
0.00192205
-0.0112847
0.00254384
-0.0144339
0.00303649
-0.0158432
0.0034655
-0.0170198
0.00385924
-0.017797
0.00424746
-0.0185869
0.00463563
-0.0193207
0.00503078
-0.0200972
0.00543232
-0.02088
0.00584207
-0.0216944
0.00625999
-0.022521
0.00668794
-0.0233691
0.00712764
-0.0242294
0.00757989
-0.0251088
0.00805023
-0.0259976
0.00853322
-0.0269284
0.00904347
-0.0278264
-0.028859
0.00956145
0.000309557
0.00124003
0.00121718
-0.0077836
0.00193438
-0.0120019
0.00251641
-0.015016
0.00297623
-0.016303
0.00338052
-0.0174241
0.00375517
-0.0181716
0.00412746
-0.0189592
0.00450079
-0.019694
0.0048815
-0.0204779
0.00526859
-0.0212671
0.00566395
-0.0220898
0.00606748
-0.0229245
0.00648112
-0.0237827
0.00690619
-0.0246544
0.00734391
-0.0255465
0.00779903
-0.0264527
0.00826654
-0.0273959
0.00876011
-0.02832
-0.0293635
0.00926453
0.000346821
0.000893206
0.00125831
-0.0086951
0.00193656
-0.0126802
0.00248044
-0.0155599
0.00290983
-0.0167324
0.00329134
-0.0178056
0.00364811
-0.0185284
0.00400502
-0.0193161
0.00436368
-0.0200527
0.00472992
-0.0208442
0.00510244
-0.0216396
0.00548321
-0.0224706
0.00587208
-0.0233134
0.00627105
-0.0241817
0.00668112
-0.0250645
0.00710397
-0.0259694
0.00754303
-0.0268918
0.00799525
-0.0278482
0.0084721
-0.0287968
-0.0298497
0.00895839
0.000386305
0.000506902
0.00128965
-0.00959844
0.00192976
-0.0133203
0.00243712
-0.0160672
0.00283828
-0.0171336
0.00319865
-0.018166
0.0035385
-0.0188682
0.00388038
-0.019658
0.00422444
-0.0203968
0.00457613
-0.0211959
0.00493393
-0.0219974
0.00529991
-0.0228366
0.00567386
-0.0236873
0.00605781
-0.0245657
0.00645258
-0.0254593
0.00686
-0.0263768
0.00728292
-0.0273147
0.00771895
-0.0282842
0.00817788
-0.0292558
-0.0303195
0.00864762
0.000428681
7.82202e-05
0.00131209
-0.0104819
0.001915
-0.0139232
0.00238749
-0.0165397
0.0027624
-0.0175085
0.00310302
-0.0185066
0.00342665
-0.0191918
0.00375373
-0.019985
0.0040832
-0.0207262
0.00442024
-0.0215329
0.00476316
-0.0223403
0.00511413
-0.0231875
0.00547291
-0.0240461
0.00584153
-0.0249343
0.00622063
-0.0258384
0.0066123
-0.0267685
0.00701847
-0.0277209
0.00743797
-0.0287037
0.00787919
-0.029697
-0.0307705
0.00833026
0.000474019
-0.000395799
0.00132651
-0.0113343
0.00189318
-0.0144899
0.00233244
-0.016979
0.00268288
-0.0178589
0.00300488
-0.0188286
0.00331282
-0.0194998
0.00362523
-0.0202974
0.00394006
-0.021041
0.00426233
-0.0218552
0.0045902
-0.0226682
0.00492596
-0.0235233
0.00526931
-0.0243894
0.00562229
-0.0252873
0.00598544
-0.0262015
0.00636085
-0.0271439
0.00675007
-0.0281101
0.00715255
-0.0291062
0.00757497
-0.0301194
-0.0312034
0.00800788
0.00052158
-0.000917379
0.00133366
-0.0121464
0.00186507
-0.0150213
0.00227274
-0.0173866
0.00260029
-0.0181865
0.00290458
-0.0191329
0.00319724
-0.0197925
0.00349501
-0.0205952
0.00379513
-0.0213412
0.00410248
-0.0221625
0.00441515
-0.0229809
0.00473548
-0.0238436
0.00506316
-0.0247171
0.00540021
-0.0256243
0.00574707
-0.0265484
0.00610591
-0.0275027
0.00647772
-0.0284819
0.00686269
-0.0294911
0.0072664
-0.0305231
-0.0316171
0.0076801
0.000569813
-0.00148719
0.00133413
-0.0129107
0.00183132
-0.0155185
0.00220905
-0.0177644
0.00251511
-0.0184926
0.00280242
-0.0194202
0.00308006
-0.0200701
0.00336319
-0.0208783
0.00364851
-0.0216265
0.00394079
-0.0224548
0.00423808
-0.0232782
0.00454278
-0.0241483
0.00485457
-0.0250289
0.0051754
-0.0259452
0.00550569
-0.0268787
0.00584754
-0.0278446
0.00620168
-0.028836
0.00656876
-0.0298582
0.00695299
-0.0309073
-0.0320116
0.00734744
0.000616504
-0.0021037
0.0013284
-0.0136226
0.00179251
-0.0159826
0.00214192
-0.0181138
0.00242773
-0.0187784
0.00269862
-0.0196911
0.00296144
-0.0203329
0.00322987
-0.0211468
0.00350028
-0.0218969
0.00377735
-0.0227319
0.00405909
-0.0235599
0.00434798
-0.0244372
0.00464363
-0.0253246
0.00494799
-0.0262495
0.00526141
-0.0271921
0.00558596
-0.0281691
0.00592206
-0.0291721
0.00627078
-0.0302069
0.00663545
-0.031272
-0.0323862
0.00701007
0.000659114
-0.00276281
0.00131685
-0.0142804
0.00174913
-0.0164148
0.00207184
-0.0184365
0.00233847
-0.019045
0.00259338
-0.019946
0.00284149
-0.020581
0.00309514
-0.0214004
0.00335054
-0.0221523
0.00361224
-0.0229936
0.00387828
-0.0238259
0.00415116
-0.0247101
0.00443045
-0.0256039
0.00471808
-0.0265372
0.00501437
-0.0274884
0.00532127
-0.028476
0.00563906
-0.0294899
0.0059691
-0.0305369
0.00631367
-0.0316166
-0.0327408
0.00666821
0.000695251
-0.00345806
0.00129985
-0.014885
0.00170167
-0.0168167
0.00199922
-0.018734
0.0022476
-0.0192934
0.00248687
-0.0201853
0.00272032
-0.0208145
0.00295911
-0.0216392
0.00319937
-0.0223926
0.00344557
-0.0232398
0.00369575
-0.0240761
0.00395243
-0.0249667
0.00421516
-0.0258666
0.00448583
-0.0268078
0.0047647
-0.0277673
0.00505366
-0.028765
0.00535285
-0.0297891
0.00566377
-0.0308479
0.0059881
-0.0319409
-0.0330748
0.00632215
0.000723131
-0.00418119
0.00127776
-0.0154396
0.00165058
-0.0171895
0.00192442
-0.0190079
0.00215537
-0.0195243
0.00237922
-0.0204091
0.00259804
-0.0210333
0.00282186
-0.021863
0.00304688
-0.0226176
0.00327742
-0.0234703
0.0035116
-0.0243103
0.0037519
-0.025207
0.00399787
-0.0261125
0.00425134
-0.0270613
0.00451256
-0.0280285
0.00478328
-0.0290357
0.00506359
-0.0300694
0.00535512
-0.0311394
0.00565881
-0.0322446
-0.0333881
0.00597207
0.000741878
-0.00492307
0.00125103
-0.0159487
0.00159632
-0.0175348
0.00184776
-0.0192593
0.00206196
-0.0197385
0.00227055
-0.0206177
0.00247473
-0.0212375
0.00268347
-0.0220718
0.00289314
-0.0228272
0.0031079
-0.0236851
0.00332593
-0.0245283
0.00354969
-0.0254308
0.0037787
-0.0263416
0.00401477
-0.0272974
0.00425808
-0.0282718
0.00451032
-0.029288
0.00477149
-0.0303306
0.00504324
-0.0314112
0.00532611
-0.0325275
-0.0336802
0.00561828
0.000751568
-0.00567464
0.00122012
-0.0164173
0.00153929
-0.0178539
0.00176951
-0.0194895
0.00196753
-0.0199365
0.00216098
-0.0208112
0.00235049
-0.021427
0.00254404
-0.0222653
0.00273826
-0.0230215
0.0029371
-0.0238839
0.00313885
-0.0247301
0.0033459
-0.0256379
0.00355778
-0.0265534
0.00377624
-0.0275158
0.00400143
-0.028497
0.00423492
-0.0295214
0.0044767
-0.0305724
0.00472843
-0.0316629
0.00499019
-0.0327892
-0.033951
0.00526096
0.000753034
-0.00642767
0.00118553
-0.0168498
0.00147989
-0.0181483
0.00168992
-0.0196996
0.00187224
-0.0201189
0.00205059
-0.0209895
0.00222541
-0.0216018
0.00240366
-0.0224436
0.00258232
-0.0232001
0.00276512
-0.0240667
0.00295046
-0.0249154
0.00314066
-0.0258281
0.00333524
-0.026748
0.0035359
-0.0277165
0.00374276
-0.0287038
0.00395728
-0.029736
0.00417945
-0.0307946
0.00441083
-0.0318943
0.0046513
-0.0330297
-0.0342001
0.00490042
0.000747542
-0.00717521
0.00114776
-0.01725
0.00141847
-0.018419
0.00160919
-0.0198903
0.0017762
-0.0202859
0.00193949
-0.0211528
0.00209956
-0.0217619
0.0022624
-0.0226064
0.00242543
-0.0233632
0.00259207
-0.0242334
0.00276088
-0.0250842
0.00293409
-0.0260013
0.00311121
-0.0269251
0.0032939
-0.0278992
0.00348223
-0.0288922
0.00367756
-0.0299313
0.00387989
-0.0309969
0.00409071
-0.0321051
0.00430965
-0.0332486
-0.0344273
0.00453685
0.000736463
-0.00791168
0.00110723
-0.0176208
0.00135537
-0.0186671
0.00152753
-0.0200625
0.00167954
-0.0204379
0.00182775
-0.021301
0.00197302
-0.0219071
0.00212037
-0.0227538
0.00226768
-0.0235105
0.00241805
-0.0243837
0.00257023
-0.0252364
0.0027263
-0.0261573
0.00288582
-0.0270847
0.00305037
-0.0280637
0.00321999
-0.0290618
0.00339595
-0.0301072
0.00357825
-0.0311792
0.00376826
-0.0322951
0.0039655
-0.0334459
-0.0346324
0.00417055
0.000721038
-0.00863271
0.00106434
-0.0179641
0.00129085
-0.0188937
0.0014451
-0.0202167
0.00158235
-0.0205751
0.00171547
-0.0214342
0.00184589
-0.0220376
0.00197765
-0.0228855
0.00210916
-0.023642
0.00224316
-0.0245177
0.0023786
-0.0253719
0.00251742
-0.0262962
0.00265922
-0.0272265
0.00280548
-0.02821
0.00295623
-0.0292125
0.00311264
-0.0302637
0.00327471
-0.0313413
0.00344371
-0.0324641
0.00361908
-0.0336212
-0.0348151
0.00380175
0.000702267
-0.00933498
0.00101944
-0.0182813
0.00122518
-0.0190994
0.00136205
-0.0203536
0.00148472
-0.0206978
0.00160273
-0.0215522
0.00171825
-0.0221531
0.00183433
-0.0230016
0.00194997
-0.0237576
0.00206751
-0.0246353
0.00218613
-0.0254905
0.00230759
-0.0264176
0.00243154
-0.0273504
0.00255937
-0.0283378
0.00269109
-0.0293443
0.00282779
-0.0304004
0.00296948
-0.0314829
0.00311729
-0.0326119
0.00327064
-0.0337746
-0.0349751
0.00343072
0.000680907
-0.0100159
0.000972865
-0.0185732
0.00115857
-0.0192851
0.00127851
-0.0204735
0.00138674
-0.020806
0.00148959
-0.021655
0.00159017
-0.0222537
0.0016905
-0.0231019
0.00179021
-0.0238573
0.00189121
-0.0247363
0.00199292
-0.0255922
0.00209692
-0.0265216
0.00220291
-0.0274564
0.0023122
-0.0284471
0.00242476
-0.0294568
0.00254161
-0.0305172
0.00266276
-0.0316041
0.00278922
-0.0327384
0.00292041
-0.0339058
-0.0351124
0.0030577
0.00065751
-0.0106734
0.000924889
-0.0188406
0.00109123
-0.0194514
0.0011946
-0.0205769
0.0012885
-0.0208999
0.00137614
-0.0217426
0.00146174
-0.0223393
0.00154624
-0.0231864
0.00162998
-0.023941
0.00171437
-0.0248207
0.0017991
-0.0256769
0.00188555
-0.0266081
0.0019735
-0.0275443
0.00206412
-0.0285377
0.00215741
-0.0295501
0.00225428
-0.0306141
0.00235475
-0.0317046
0.00245972
-0.0328433
0.00256865
-0.0340147
-0.0352267
0.00268295
0.000632485
-0.0113059
0.000875762
-0.0190839
0.00102332
-0.019599
0.00111042
-0.020664
0.00119007
-0.0209796
0.00126245
-0.021815
0.00133304
-0.0224099
0.00140166
-0.0232551
0.00146938
-0.0240088
0.00153709
-0.0248884
0.00160478
-0.0257446
0.00167362
-0.0266769
0.00174343
-0.0276141
0.0018153
-0.0286096
0.0018892
-0.029624
0.00196598
-0.0306909
0.00204565
-0.0317842
0.00212902
-0.0329267
0.00221562
-0.0341013
-0.0353179
0.00230677
0.000606139
-0.011912
0.000825708
-0.0193034
0.000954999
-0.0197283
0.00102608
-0.0207351
0.00109152
-0.021045
0.0011486
-0.0218721
0.00120416
-0.0224654
0.00125685
-0.0233078
0.0013085
-0.0240604
0.00135949
-0.0249394
0.0014101
-0.0257952
0.00146124
-0.0267281
0.00151285
-0.0276658
0.00156589
-0.0286626
0.00162032
-0.0296785
0.00167691
-0.0307474
0.00173567
-0.031843
0.00179733
-0.0329884
0.00186154
-0.0341655
-0.0353857
0.00192942
0.000578718
-0.0124907
0.000774923
-0.0194996
0.000886405
-0.0198398
0.000941664
-0.0207903
0.000992931
-0.0210963
0.00103467
-0.0219139
0.00107517
-0.0225059
0.00111188
-0.0233445
0.00114746
-0.024096
0.00118167
-0.0249736
0.00121516
-0.0258287
0.00124856
-0.0267615
0.00128191
-0.0276991
0.00131605
-0.0286968
0.00135095
-0.0297134
0.00138726
-0.0307838
0.00142501
-0.0318807
0.00146486
-0.0330282
0.00150659
-0.0342072
-0.0354302
0.00155101
0.000550421
-0.0130412
0.000723581
-0.0196728
0.000817659
-0.0199338
0.000857243
-0.0208299
0.000894371
-0.0211334
0.000920719
-0.0219402
0.000946172
-0.0225314
0.000966858
-0.0233651
0.000986352
-0.0241155
0.00100375
-0.024991
0.0010201
-0.025845
0.0010357
-0.0267771
0.00105077
-0.0277142
0.00106594
-0.0287119
0.00108125
-0.0297287
0.00109723
-0.0307997
0.00111392
-0.0318974
0.00113189
-0.0330462
0.00115088
-0.0342262
-0.0354512
0.00117188
0.000521419
-0.0135626
0.00067184
-0.0198232
0.000748873
-0.0200109
0.000772895
-0.0208539
0.000795913
-0.0211564
0.000806822
-0.0219511
0.000817241
-0.0225418
0.000821856
-0.0233698
0.000825292
-0.0241189
0.000825831
-0.0249915
0.000825033
-0.0258443
0.000822816
-0.0267748
0.000819562
-0.0277109
0.000815741
-0.0287081
0.000811409
-0.0297243
0.000807007
-0.0307953
0.000802618
-0.031893
0.000798722
-0.0330423
0.000794662
-0.0342222
-0.0354487
0.000792155
0.000491835
-0.0140544
0.000619789
-0.0199512
0.000680081
-0.0200712
0.000688599
-0.0208624
0.000697526
-0.0211654
0.000692915
-0.0219465
0.000688334
-0.0225372
0.00067679
-0.0233582
0.000664192
-0.0241063
0.000647813
-0.0249751
0.000629843
-0.0258263
0.000609774
-0.0267548
0.000588146
-0.0276893
0.000565293
-0.0286853
0.000541244
-0.0297003
0.000516421
-0.0307705
0.000490887
-0.0318675
0.000465155
-0.0330166
0.000438116
-0.0341951
-0.0354217
0.000411112
0.000461845
-0.0145163
0.000567644
-0.020057
0.000611502
-0.020115
0.000604582
-0.0208555
0.000599497
-0.0211603
0.000579301
-0.0219263
0.000559835
-0.0225177
0.000532089
-0.0233305
0.000503509
-0.0240777
0.000470261
-0.0249419
0.000435098
-0.0257911
0.000397253
-0.0267169
0.000357237
-0.0276493
0.00031539
-0.0286434
0.000271625
-0.0296565
0.000226424
-0.0307253
0.000179728
-0.0318208
0.000131869
-0.0329687
8.37602e-05
-0.034147
-0.035366
2.811e-05
0.00043154
-0.0149478
0.000515465
-0.0201409
0.000543159
-0.0201427
0.000520803
-0.0208332
0.000501807
-0.0211413
0.000465908
-0.0218904
0.000431676
-0.0224835
0.000387693
-0.0232865
0.000343127
-0.0240332
0.000293064
-0.0248918
0.000240704
-0.0257388
0.000185063
-0.0266613
0.000126731
-0.0275909
6.57404e-05
-0.0285824
2.66121e-06
-0.0295934
-6.3193e-05
-0.0306595
-0.000130995
-0.031753
-0.000200528
-0.0328992
-0.000272855
-0.0340747
-0.0352902
-0.000348672
0.000401021
-0.0153488
0.000463344
-0.0202032
0.000475134
-0.0201545
0.000437297
-0.0207953
0.000404537
-0.0211085
0.000352801
-0.0218387
0.000303937
-0.0224346
0.000243638
-0.0232262
0.00018327
-0.0239728
0.000116065
-0.0248246
4.71743e-05
-0.0256699
-2.6994e-05
-0.0265871
-0.000103241
-0.0275147
-0.000183086
-0.0285026
-0.000266182
-0.0295104
-0.000352128
-0.0305735
-0.000440943
-0.0316642
-0.000532397
-0.0328077
-0.000628542
-0.0339786
-0.0351925
-0.000726187
0.000370379
-0.0157192
0.000411361
-0.0202442
0.000407508
-0.0201507
0.000354091
-0.0207419
0.000307764
-0.0210622
0.000239996
-0.0217709
0.000176853
-0.0223715
9.95343e-05
-0.0231489
2.5078e-05
-0.0238983
-6.03315e-05
-0.0247392
-0.000146474
-0.0255837
-0.000237413
-0.0264962
-0.000332542
-0.0274196
-0.000431278
-0.0284038
-0.000534002
-0.0294076
-0.000640298
-0.0304672
-0.000750157
-0.0315543
-0.000863827
-0.032694
-0.0009826