/*--------------------------------*- C++ -*----------------------------------*\
  =========                 |
  \\      /  F ield         | OpenFOAM: The Open Source CFD Toolbox
   \\    /   O peration     | Website:  https://openfoam.org
    \\  /    A nd           | Version:  7
     \\/     M anipulation  |
\*---------------------------------------------------------------------------*/
FoamFile
{
    version     2.0;
    format      ascii;
    class       volVectorField;
    location    "20";
    object      U;
}
// * * * * * * * * * * * * * * * * * * * * * * * * * * * * * * * * * * * * * //

dimensions      [0 1 -1 0 0 0 0];

internalField   nonuniform List<vector> 
607
(
(1.05864 0.0239771 -1.58334e-19)
(1.05864 0.0271908 1.42693e-19)
(1.05888 0.0280677 -1.28474e-19)
(1.06808 0.0273911 1.10568e-20)
(1.05909 0.0294033 5.73815e-20)
(1.06846 0.0305899 -9.55201e-20)
(1.05929 0.031067 1.07329e-19)
(1.06869 0.033811 4.19148e-21)
(1.0594 0.0329794 1.54922e-20)
(1.06879 0.0370386 -7.27472e-20)
(1.05938 0.0350738 -1.60018e-19)
(1.07915 0.0397293 -2.33829e-19)
(1.06878 0.0402869 2.45282e-19)
(1.05923 0.0373216 2.63904e-20)
(1.07944 0.0427161 2.71744e-19)
(1.06866 0.043571 -9.88408e-20)
(1.05897 0.0397168 -1.80557e-20)
(1.07965 0.0458192 -2.1353e-19)
(1.06846 0.0468981 8.01126e-20)
(1.05859 0.042256 6.56307e-20)
(1.07979 0.0490516 8.49371e-20)
(1.06815 0.0502713 -1.46729e-19)
(1.05811 0.0449318 -3.98217e-20)
(1.07983 0.052425 -1.47211e-19)
(1.06775 0.0536929 8.31186e-20)
(1.05751 0.0477341 5.21037e-20)
(1.09404 0.0567455 -3.04378e-19)
(1.07976 0.0559497 5.80946e-20)
(1.06724 0.0571669 -4.87489e-20)
(1.0568 0.0506523 4.90787e-20)
(1.09434 0.0611338 -4.83858e-20)
(1.07958 0.0596343 4.99646e-20)
(1.06661 0.0606989 -2.31627e-20)
(1.05596 0.0536761 -5.98924e-21)
(1.09454 0.0656774 -1.481e-19)
(1.07927 0.0634859 -1.77766e-19)
(1.06586 0.0642952 1.4997e-20)
(1.055 0.0567966 -1.26725e-19)
(1.09463 0.0703826 8.97529e-20)
(1.07883 0.0675105 1.20724e-19)
(1.06495 0.0679626 5.18914e-20)
(1.05389 0.0600064 1.07998e-19)
(1.09459 0.0752578 -1.03545e-19)
(1.07823 0.071713 3.82918e-20)
(1.0639 0.0717073 -5.20525e-21)
(1.05262 0.063299 7.41967e-20)
(1.09439 0.0803121 1.30417e-20)
(1.07745 0.0760978 1.92754e-20)
(1.06266 0.0755352 -1.6488e-20)
(1.05119 0.0666682 -7.36212e-20)
(1.11417 0.0833463 2.42745e-19)
(1.09398 0.0855559 2.88483e-19)
(1.07647 0.0806683 1.59573e-19)
(1.06123 0.0794517 -4.81738e-20)
(1.04958 0.0701084 3.24166e-21)
(1.11405 0.0891089 -6.51156e-19)
(1.09328 0.0909991 9.23634e-20)
(1.07526 0.0854273 -1.19604e-19)
(1.05958 0.0834612 4.80619e-20)
(1.04777 0.0736137 2.03719e-20)
(1.11337 0.0951629 7.44011e-19)
(1.0922 0.0966511 -6.22551e-20)
(1.07374 0.090376 -1.53617e-19)
(1.05767 0.0875669 -1.07589e-19)
(1.04574 0.0771783 -3.76751e-20)
(1.11189 0.101514 -2.3659e-19)
(1.09058 0.102518 1.10604e-21)
(1.07184 0.0955134 3.83613e-20)
(1.05545 0.09177 1.38994e-19)
(1.04345 0.0807956 6.19255e-20)
(1.10924 0.108157 -2.09413e-19)
(1.08819 0.108602 -1.78893e-19)
(1.06942 0.100835 1.68859e-20)
(1.05285 0.096069 -9.60023e-20)
(1.04087 0.0844581 -4.68615e-20)
(1.10492 0.115072 3.89464e-21)
(1.0847 0.114893 8.70798e-20)
(1.06627 0.106329 -3.025e-20)
(1.04974 0.100458 -1.63491e-20)
(1.03793 0.0881561 2.35274e-20)
(1.07965 0.121367 1.53633e-19)
(1.06209 0.111976 -6.14425e-20)
(1.04593 0.104925 7.79429e-20)
(1.03454 0.0918767 -6.6243e-20)
(1.05647 0.117738 1.1411e-19)
(1.04115 0.109445 -5.74824e-20)
(1.03054 0.0956014 -8.50011e-21)
(1.03496 0.113978 5.38263e-20)
(1.02571 0.0993031 3.4343e-20)
(1.01967 0.102941 -1.57596e-20)
(1.04286 0.00918215 -4.68414e-21)
(1.04323 0.0108362 5.41796e-21)
(1.04371 0.0118085 -1.48776e-20)
(1.04461 0.0137666 2.35716e-21)
(1.04688 0.0118647 1.86012e-20)
(1.04732 0.0138202 -4.56967e-21)
(1.04786 0.0149491 2.23786e-20)
(1.04877 0.0172641 -2.47901e-21)
(1.05192 0.0148327 -1.22511e-20)
(1.05214 0.0172003 -8.9095e-21)
(1.05269 0.0184998 6.27818e-22)
(1.05386 0.0213399 6.12162e-21)
(1.01724 0.0244401 0)
(1.01508 0.0241292 0)
(1.01309 0.0236344 0)
(1.01128 0.0230012 0)
(1.00967 0.0222802 0)
(1.00824 0.0215041 0)
(1.00697 0.0206922 0)
(1.00585 0.0198672 0)
(1.04564 0.0157055 0)
(1.04419 0.0184633 0)
(1.04104 0.0207069 0)
(1.03739 0.0224547 0)
(1.03387 0.0238094 0)
(1.03067 0.0248539 0)
(1.02772 0.0256276 0)
(1.02492 0.026132 0)
(1.02218 0.026353 0)
(1.01952 0.0262893 0)
(1.01698 0.0259747 0)
(1.01461 0.0254529 0)
(1.01245 0.0247606 0)
(1.01054 0.0239454 0)
(1.00887 0.023066 0)
(1.00741 0.0221545 0)
(1.00614 0.0212233 0)
(1.00504 0.0202959 0)
(1.04965 0.0197236 0)
(1.04742 0.0231073 0)
(1.0434 0.0257584 0)
(1.03905 0.0278205 0)
(1.03504 0.0294152 0)
(1.03147 0.0305935 0)
(1.0282 0.0313518 0)
(1.0251 0.0316871 0)
(1.02208 0.0316094 0)
(1.01917 0.0311579 0)
(1.01643 0.0304098 0)
(1.01392 0.0294363 0)
(1.01168 0.0282872 0)
(1.00971 0.0270321 0)
(1.00802 0.0257449 0)
(1.00655 0.0244639 0)
(1.0053 0.0231998 0)
(1.00424 0.0219776 0)
(1.05511 0.0233164 0)
(1.05193 0.0252388 0)
(1.04693 0.0268853 0)
(1.04181 0.0283671 0)
(1.03711 0.0296954 0)
(1.03284 0.0307589 0)
(1.02887 0.031447 0)
(1.02511 0.0317263 0)
(1.02154 0.0316038 0)
(1.01821 0.0311243 0)
(1.01518 0.0303715 0)
(1.01247 0.0294126 0)
(1.01012 0.0282803 0)
(1.00811 0.0270389 0)
(1.0064 0.0257714 0)
(1.00496 0.0245108 0)
(1.00378 0.0232608 0)
(1.0028 0.0220583 0)
(1.05529 0.030355 -6.04074e-21)
(1.0514 0.0320275 -2.0344e-20)
(1.04641 0.0341997 1.20948e-21)
(1.04128 0.0361119 9.22083e-21)
(1.03647 0.037457 4.98412e-21)
(1.032 0.0382294 -6.44478e-21)
(1.02779 0.0384315 -2.39981e-21)
(1.02381 0.0381188 5.50523e-21)
(1.02007 0.037355 2.06429e-22)
(1.01665 0.0362163 -4.60976e-21)
(1.01358 0.0348034 1.54073e-21)
(1.01089 0.0331917 1.28465e-21)
(1.00858 0.0314383 -1.89531e-21)
(1.00664 0.029635 -1.06187e-21)
(1.00501 0.0278675 7.94403e-22)
(1.00367 0.0261583 7.03953e-22)
(1.00259 0.0245257 2.05848e-22)
(1.00172 0.0230244 -2.95158e-22)
(1.05509 0.0320012 -3.87558e-21)
(1.05096 0.0337155 -1.57882e-20)
(1.04589 0.0356991 2.2346e-21)
(1.04075 0.0373782 9.31514e-21)
(1.03595 0.0384708 1.80494e-21)
(1.03145 0.0389959 -3.65451e-21)
(1.02718 0.038955 4.89884e-21)
(1.02315 0.0384091 -3.0768e-21)
(1.01939 0.0374415 -8.84923e-21)
(1.01597 0.0361402 4.67622e-21)
(1.01293 0.0346062 8.26372e-22)
(1.01027 0.0329078 8.8044e-22)
(1.008 0.0311003 5.14371e-22)
(1.00609 0.0292749 -1.01193e-21)
(1.0045 0.0275064 -7.9341e-22)
(1.0032 0.0258057 2.45981e-22)
(1.00215 0.0241912 1.58169e-22)
(1.00132 0.0227211 1.2155e-22)
(1.05475 0.0340564 1.44526e-20)
(1.0504 0.0357598 -4.85764e-21)
(1.04525 0.037635 -1.78763e-20)
(1.04007 0.0391631 2.09661e-20)
(1.03524 0.0400388 -4.1416e-21)
(1.0307 0.0403163 3.70691e-21)
(1.02641 0.0400397 8.34932e-22)
(1.02236 0.0392765 -1.08262e-20)
(1.01863 0.0381099 3.55104e-21)
(1.01524 0.0366315 4.83667e-21)
(1.01225 0.0349421 -5.25701e-21)
(1.00965 0.0331092 1.0644e-21)
(1.00744 0.0311925 6.22382e-22)
(1.00558 0.0292864 -3.28523e-22)
(1.00405 0.0274586 8.37051e-22)
(1.00279 0.0257131 -1.65705e-22)
(1.00178 0.0240702 1.46739e-22)
(1.00099 0.0225898 4.88636e-24)
(1.05433 0.0361345 -4.51358e-21)
(1.04974 0.0378288 7.73509e-22)
(1.0445 0.0395277 1.89597e-21)
(1.03926 0.040858 -8.56181e-21)
(1.03439 0.0415068 7.38677e-21)
(1.02981 0.0415425 3.7877e-21)
(1.02549 0.0410368 -3.57268e-21)
(1.02146 0.0400614 -2.23855e-21)
(1.01776 0.0387028 4.85604e-21)
(1.01444 0.0370589 2.80449e-22)
(1.01152 0.0352305 3.81504e-22)
(1.009 0.0332827 -4.16198e-21)
(1.00686 0.0312773 -6.93413e-23)
(1.00508 0.0293089 1.34303e-21)
(1.00361 0.0274367 1.04971e-22)
(1.0024 0.0256577 -2.12574e-22)
(1.00144 0.0239938 1.69356e-22)
(1.00069 0.022507 -6.48154e-23)
(1.05384 0.0382557 -5.26199e-21)
(1.049 0.0399352 2.19935e-20)
(1.04367 0.0414444 -1.93871e-20)
(1.03836 0.0425524 3.44036e-21)
(1.03342 0.0429578 6.8863e-22)
(1.0288 0.0427369 -4.42149e-21)
(1.02447 0.0419897 -1.23088e-21)
(1.02045 0.0407939 2.19293e-21)
(1.0168 0.0392393 1.6871e-21)
(1.01355 0.0374284 -2.88496e-21)
(1.01072 0.0354616 1.12443e-21)
(1.00829 0.0334015 -1.6096e-23)
(1.00625 0.0313117 -1.17418e-21)
(1.00455 0.0292857 1.06202e-21)
(1.00316 0.0273742 -1.94024e-22)
(1.00202 0.0255674 1.34825e-22)
(1.00111 0.0238888 9.94374e-24)
(1.00041 0.022401 -4.06311e-23)
(1.05329 0.0404282 2.71877e-21)
(1.0482 0.0420756 8.20395e-21)
(1.04276 0.0433794 2.95204e-21)
(1.03737 0.0442388 -3.31752e-21)
(1.03236 0.0443879 -9.72273e-21)
(1.0277 0.0439044 4.89989e-21)
(1.02334 0.0429116 -2.66659e-21)
(1.01934 0.0414946 2.52565e-21)
(1.01575 0.0397453 -4.18789e-21)
(1.01259 0.0377702 4.00504e-21)
(1.00985 0.0356684 -1.62821e-21)
(1.00753 0.0335003 8.436e-22)
(1.00558 0.0313304 2.06986e-22)
(1.00398 0.0292499 4.30902e-22)
(1.00267 0.0273009 -5.08934e-23)
(1.00161 0.0254678 4.36482e-24)
(1.00077 0.0237752 -1.57697e-22)
(1.00013 0.0222852 -2.86039e-23)
(1.05267 0.0426608 -2.5554e-20)
(1.04734 0.0442435 2.12233e-20)
(1.04177 0.0453284 -6.69747e-21)
(1.0363 0.0459148 -8.92518e-21)
(1.03121 0.0457929 1.94595e-21)
(1.0265 0.0450395 3.90844e-21)
(1.02214 0.0437959 1.9778e-21)
(1.01817 0.0421554 1.29322e-21)
(1.01464 0.0402121 -2.63466e-21)
(1.01157 0.0380753 -1.14512e-21)
(1.00894 0.0358423 3.11992e-21)
(1.00672 0.0335715 1.47977e-22)
(1.00488 0.0313271 -5.11699e-22)
(1.00337 0.0291968 -1.98304e-22)
(1.00216 0.0272144 -7.66594e-23)
(1.00118 0.0253588 -1.5617e-23)
(1.00041 0.023655 -2.20098e-22)
(0.999831 0.0221627 2.88811e-22)
(1.05198 0.0449594 1.68428e-20)
(1.04642 0.0464351 -2.93609e-21)
(1.04071 0.0472873 -1.27241e-20)
(1.03514 0.0475796 1.82358e-21)
(1.02998 0.0471716 -5.54201e-21)
(1.02524 0.0461416 7.63085e-21)
(1.02087 0.0446426 -9.93967e-22)
(1.01695 0.0427767 -3.29213e-21)
(1.01349 0.0406403 9.56756e-22)
(1.01051 0.0383441 -2.22997e-21)
(1.00798 0.0359836 -5.02305e-23)
(1.00587 0.0336146 6.70672e-22)
(1.00413 0.0313005 7.80674e-22)
(1.00273 0.0291246 -5.02222e-22)
(1.00162 0.0271122 9.67463e-23)
(1.00072 0.0252374 -2.05614e-22)
(1.00003 0.0235251 -8.17206e-23)
(1.05123 0.0473238 -4.79804e-21)
(1.04544 0.0486465 -6.21815e-21)
(1.03957 0.0492511 1.21942e-20)
(1.0339 0.0492305 -5.91628e-21)
(1.02868 0.0485217 -2.71456e-22)
(1.0239 0.0472083 5.44453e-21)
(1.01955 0.0454501 -3.35276e-21)
(1.01567 0.0433575 -7.75171e-22)
(1.01229 0.0410294 1.12011e-21)
(1.00941 0.038577 -1.77965e-21)
(1.00699 0.0360929 1.11897e-21)
(1.005 0.0336305 -5.22655e-22)
(1.00337 0.0312515 2.04519e-22)
(1.00207 0.0290336 -2.2822e-22)
(1.00105 0.0269943 -1.52152e-22)
(1.00024 0.0251035 -1.10771e-23)
(0.999623 0.0233835 1.68118e-22)
(1.0504 0.0497514 -9.46428e-21)
(1.04438 0.0508747 6.08149e-21)
(1.03834 0.0512151 4.67039e-21)
(1.03258 0.050865 2.85362e-21)
(1.0273 0.0498408 4.68787e-21)
(1.02249 0.0482373 -3.23867e-21)
(1.01817 0.0462166 1.64475e-21)
(1.01435 0.0438967 -2.62676e-21)
(1.01107 0.0413789 -1.60724e-21)
(1.00829 0.0387736 3.06464e-21)
(1.00599 0.0361702 -1.48847e-21)
(1.00411 0.0336194 4.92358e-22)
(1.00259 0.0311802 7.14963e-23)
(1.0014 0.0289239 1.09801e-22)
(1.00047 0.0268607 8.9478e-23)
(0.999752 0.0249566 -2.72753e-23)
(0.999207 0.023229 -1.99019e-22)
(1.04948 0.05224 3.09141e-21)
(1.04325 0.0531176 -7.54455e-21)
(1.03703 0.0531749 -2.63317e-21)
(1.03118 0.0524802 -9.73265e-22)
(1.02584 0.0511264 7.19363e-22)
(1.02103 0.049226 -5.23852e-21)
(1.01674 0.0469402 2.06107e-21)
(1.013 0.0443929 -2.35892e-21)
(1.00982 0.0416878 2.01208e-21)
(1.00715 0.0389336 -9.43337e-22)
(1.00497 0.0362156 8.32228e-22)
(1.00321 0.0335815 1.20266e-22)
(1.0018 0.0310867 -1.67002e-22)
(1.00071 0.0287957 2.58609e-22)
(0.999885 0.0267116 3.03348e-22)
(0.999251 0.0247952 -4.87842e-22)
(0.998784 0.0230645 -2.02132e-22)
(1.04846 0.0547875 -6.80238e-21)
(1.04203 0.0553735 -2.07912e-21)
(1.03563 0.055126 -8.17328e-21)
(1.02968 0.0540722 9.19393e-21)
(1.02431 0.0523756 3.50556e-21)
(1.01951 0.0501716 4.03644e-22)
(1.01527 0.0476188 -2.02595e-21)
(1.01162 0.0448447 -1.15088e-21)
(1.00854 0.0419554 1.94917e-21)
(1.006 0.0390567 -6.7235e-22)
(1.00394 0.0362292 -5.29459e-22)
(1.0023 0.0335169 5.14219e-22)
(1.00101 0.0309712 -4.94413e-23)
(1.00003 0.0286488 -1.52075e-22)
(0.999296 0.0265466 4.66386e-22)
(0.998749 0.024618 -6.59398e-22)
(0.998361 0.0228934 2.49929e-22)
(1.04734 0.057391 -1.58326e-20)
(1.04071 0.0576403 1.05602e-20)
(1.03413 0.057064 -4.59479e-21)
(1.02809 0.055637 -4.76861e-21)
(1.0227 0.0535852 7.35746e-21)
(1.01793 0.0510714 -6.87816e-21)
(1.01376 0.0482501 2.78492e-21)
(1.01021 0.0452506 -3.36661e-21)
(1.00725 0.0421807 2.26094e-21)
(1.00484 0.0391424 4.02111e-22)
(1.00291 0.0362106 -3.46544e-22)
(1.00139 0.0334256 -1.36711e-22)
(1.00022 0.0308334 1.98903e-22)
(0.999345 0.0284836 -6.5218e-22)
(0.998708 0.0263639 8.72021e-22)
(0.998249 0.0244288 2.65647e-22)
(0.997941 0.0227164 -6.76281e-22)
(1.04609 0.0600466 -9.17534e-21)
(1.03929 0.0599157 -1.66937e-21)
(1.03253 0.0589842 -1.21544e-20)
(1.02641 0.0571701 1.17272e-20)
(1.02102 0.0547516 -6.88695e-21)
(1.01629 0.051922 3.28526e-21)
(1.01221 0.0488316 -5.39628e-22)
(1.00877 0.0456091 1.08703e-21)
(1.00595 0.0423628 1.321e-21)
(1.00367 0.0391901 -7.14023e-22)
(1.00187 0.0361598 -1.60299e-22)
(1.00049 0.0333073 3.78589e-23)
(0.999434 0.0306733 -1.33295e-22)
(0.998665 0.0282992 3.79647e-22)
(0.998125 0.0261621 -8.18559e-22)
(0.997756 0.0242316 -4.93194e-22)
(0.997528 0.0225335 2.48585e-22)
(1.04471 0.0627498 -2.69127e-20)
(1.03775 0.0621963 3.79052e-21)
(1.03082 0.0608815 1.96535e-21)
(1.02464 0.0586663 8.2953e-21)
(1.01925 0.0558708 -6.45656e-21)
(1.01459 0.0527202 5.84664e-21)
(1.01061 0.0493609 -4.26719e-21)
(1.0073 0.0459184 1.39778e-21)
(1.00462 0.0425005 1.53143e-21)
(1.00249 0.0391993 -3.81928e-22)
(1.00084 0.0360763 1.98117e-22)
(0.99958 0.0331616 2.08223e-22)
(0.99865 0.0304907 4.4337e-23)
(0.997991 0.0280932 -8.85787e-22)
(0.997549 0.0259458 -2.55812e-22)
(0.997272 0.0240271 7.19212e-22)
(0.997124 0.0223445 -6.38992e-22)
(1.04317 0.0654951 -1.85485e-20)
(1.03607 0.0644781 -2.7345e-21)
(1.02898 0.0627507 1.1532e-20)
(1.02275 0.06012 -2.20087e-21)
(1.01741 0.0569383 2.96807e-21)
(1.01283 0.0534625 -3.39336e-21)
(1.00897 0.0498353 2.04914e-22)
(1.00581 0.0461767 1.32435e-21)
(1.00328 0.0425927 -5.21687e-22)
(1.0013 0.0391693 -1.40811e-22)
(0.999795 0.0359596 5.39161e-22)
(0.998676 0.0329883 9.20231e-23)
(0.99787 0.0302846 9.47118e-24)
(0.997321 0.0278642 -5.74065e-22)
(0.996982 0.0257195 1.1733e-22)
(0.996798 0.0238152 -7.51294e-22)
(1.04148 0.0682767 8.67659e-21)
(1.03425 0.0667561 -5.07965e-22)
(1.02702 0.0645861 1.53589e-20)
(1.02076 0.0615253 -6.16469e-21)
(1.01548 0.0579495 3.2282e-21)
(1.01101 0.0541451 -5.01802e-21)
(1.00729 0.0502519 3.67997e-21)
(1.00428 0.0463821 -9.6149e-22)
(1.00192 0.0426383 -5.90397e-22)
(1.0001 0.0390991 -2.69505e-22)
(0.99875 0.0358089 -4.45473e-22)
(0.997771 0.0327871 1.15454e-21)
(0.997092 0.0300512 -1.28047e-21)
(0.996658 0.027618 9.08444e-22)
(0.996424 0.0254838 -1.45812e-22)
(0.996332 0.0235953 -3.40366e-23)
(1.0396 0.0710876 -4.25794e-22)
(1.03227 0.0690245 4.87751e-21)
(1.02491 0.0663811 -3.05824e-21)
(1.01864 0.0628757 -2.13894e-21)
(1.01345 0.058899 -4.90063e-21)
(1.00912 0.0547641 2.36769e-21)
(1.00556 0.0506077 1.61276e-21)
(1.00273 0.0465326 -1.04042e-21)
(1.00054 0.0426358 3.68499e-22)
(0.998893 0.0389878 -1.49104e-22)
(0.997697 0.0356236 1.05016e-22)
(0.996863 0.0325559 5.66131e-22)
(0.996312 0.0297904 -1.9337e-21)
(0.995998 0.0273595 1.57516e-21)
(0.995872 0.0252384 -1.90208e-22)
(0.99587 0.0233667 4.81048e-22)
(1.03751 0.0739206 5.43081e-21)
(1.0301 0.0712763 -2.69663e-21)
(1.02266 0.0681288 -4.24937e-22)
(1.0164 0.0641642 6.23107e-23)
(1.01133 0.0597813 1.40169e-21)
(1.00715 0.0553152 1.18502e-23)
(1.00377 0.0508997 -7.51103e-22)
(1.00113 0.046626 4.55878e-22)
(0.999129 0.0425838 1.7684e-22)
(0.997663 0.038834 4.67927e-22)
(0.996632 0.0354034 6.33593e-22)
(0.995943 0.0322903 -6.51813e-22)
(0.995528 0.0295091 -3.87969e-22)
(0.995337 0.0270888 1.79892e-23)
(0.995317 0.0249822 -5.61091e-22)
(0.995405 0.0231288 8.01372e-22)
(1.03519 0.0767669 1.07613e-20)
(1.02773 0.0735034 -2.44666e-22)
(1.02022 0.069821 2.87768e-21)
(1.01402 0.0653832 -2.92466e-21)
(1.00909 0.0605902 3.50434e-21)
(1.0051 0.0557941 -1.72833e-21)
(1.00192 0.0511247 -6.49256e-24)
(0.999483 0.0466602 -3.16013e-22)
(0.997683 0.0424807 6.35346e-22)
(0.996405 0.0386372 -7.37516e-22)
(0.995541 0.0351447 2.62086e-22)
(0.995005 0.0319921 1.18939e-22)
(0.994731 0.0292125 -2.2677e-22)
(0.994665 0.0268053 1.06502e-22)
(0.994749 0.0247143 1.19515e-22)
(0.994926 0.0228814 9.09049e-23)
(1.03261 0.0796169 1.34771e-22)
(1.02513 0.0756963 -2.93214e-21)
(1.01759 0.0714488 2.92938e-22)
(1.01147 0.0665244 6.14679e-21)
(1.00672 0.0613192 -2.47341e-21)
(1.00295 0.0561962 -3.99629e-22)
(0.99999 0.0512794 -1.0739e-22)
(0.997773 0.0466329 1.41532e-22)
(0.996185 0.0423246 2.51399e-23)
(0.995101 0.038396 2.589e-22)
(0.994411 0.0348426 -1.25845e-21)
(0.994034 0.0316699 1.02251e-21)
(0.993905 0.0289002 -6.77416e-22)
(0.993962 0.0265075 4.41703e-22)
(0.99415 0.0244343 1.22938e-22)
(0.994414 0.0226242 -6.59981e-22)
(1.0297 0.082459 5.55102e-21)
(1.02224 0.0778434 -3.49274e-21)
(1.01472 0.0730015 -1.66583e-21)
(1.00872 0.0675783 -5.75048e-22)
(1.00419 0.0619611 8.2258e-22)
(1.00066 0.0565162 1.2471e-22)
(0.997951 0.0513602 1.00869e-22)
(0.995971 0.0465412 2.96603e-22)
(0.994607 0.0421146 -1.08761e-22)
(0.993724 0.0381053 -1.0687e-21)
(0.993215 0.0345023 2.16355e-22)
(0.993006 0.0313281 1.65322e-21)
(0.993022 0.0285709 -2.85623e-22)
(0.993201 0.0261946 -7.0576e-22)
(0.993491 0.0241418 -4.77072e-22)
(0.993841 0.0223574 1.95969e-22)
(1.02639 0.0852787 -7.06635e-21)
(1.019 0.0799308 1.91458e-21)
(1.01155 0.0744661 1.82765e-21)
(1.00572 0.0685344 -2.18085e-21)
(1.00144 0.0625079 7.35392e-22)
(0.998197 0.0567486 1.08102e-22)
(0.995758 0.051363 -4.20547e-22)
(0.994034 0.0463824 6.41008e-22)
(0.992904 0.0418477 -6.00979e-22)
(0.992231 0.0377607 9.07532e-23)
(0.991914 0.0341335 -7.66708e-22)
(0.991876 0.0309657 1.17815e-21)
(0.992037 0.0282231 -1.83296e-22)
(0.992335 0.025866 4.25332e-22)
(0.992725 0.0238367 -1.23148e-21)
(0.993159 0.0220809 6.3693e-22)
(1.02254 0.0880573 1.37471e-21)
(1.01529 0.0819401 1.34805e-21)
(1.00798 0.0758268 -8.53997e-22)
(1.00238 0.0693795 -3.04399e-22)
(0.998402 0.0629499 -8.87458e-23)
(0.995473 0.0568868 -2.29609e-22)
(0.993333 0.0512827 -7.79464e-22)
(0.991885 0.0461544 -2.46343e-23)
(0.991002 0.041516 1.8541e-21)
(0.990551 0.0373711 -2.14918e-22)
(0.990437 0.0337384 -1.23945e-21)
(0.990571 0.0305805 3.0705e-22)
(0.990874 0.0278556 8.37272e-22)
(0.991292 0.0255213 2.75853e-22)
(0.99178 0.0235192 -8.05398e-22)
(0.992295 0.0217949 -1.06907e-22)
(1.01796 0.0907695 1.74848e-21)
(1.01092 0.0838472 9.3242e-22)
(1.00383 0.0770627 2.81371e-22)
(0.99854 0.0700974 2.65817e-22)
(0.994925 0.0632755 -3.10514e-22)
(0.992359 0.0569219 -5.06187e-22)
(0.990551 0.0511139 9.94537e-22)
(0.989401 0.0458502 1.20363e-21)
(0.988782 0.0411177 -2.45025e-21)
(0.988572 0.0369452 4.52103e-22)
(0.988667 0.033315 1.90765e-21)
(0.988974 0.0301705 -6.03512e-22)
(0.98942 0.0274677 2.19942e-23)
(0.989955 0.0251606 2.97848e-22)
(0.99054 0.0231892 -1.82565e-21)
(0.991134 0.0214996 8.30745e-22)
(1.01231 0.0933789 -1.73642e-21)
(1.0056 0.0856185 -2.23725e-23)
(0.998861 0.0781455 1.88057e-22)
(0.99397 0.0706668 -5.15688e-22)
(0.990792 0.063469 9.84346e-23)
(0.988643 0.0568422 -3.77877e-22)
(0.987211 0.0508492 2.14044e-21)
(0.986387 0.0454578 -8.874e-22)
(0.98606 0.0406621 -1.81741e-21)
(0.986109 0.0364815 7.83277e-22)
(0.98642 0.0328589 -1.21805e-21)
(0.986904 0.0297335 1.49168e-21)
(0.987494 0.0270585 -1.92237e-22)
(0.988147 0.0247834 6.39359e-22)
(0.988827 0.0228468 -1.63982e-21)
(0.989498 0.0211949 1.55912e-21)
(1.0051 0.0958324 2.31721e-21)
(0.998898 0.0872058 -5.29092e-22)
(0.992659 0.0790364 5.19977e-22)
(0.988302 0.0710588 9.80581e-22)
(0.985658 0.0635088 -6.67045e-22)
)
;

boundaryField
{
    inlet
    {
        type            uniformFixedValue;
        uniformValue    constant (1 0 0);
        value           nonuniform 0();
    }
    outlet
    {
        type            pressureInletOutletVelocity;
        value           nonuniform 0();
    }
    cylinder
    {
        type            fixedValue;
        value           nonuniform 0();
    }
    top
    {
        type            symmetryPlane;
    }
    bottom
    {
        type            symmetryPlane;
    }
    defaultFaces
    {
        type            empty;
    }
    procBoundary21to13
    {
        type            processor;
        value           nonuniform List<vector> 
23
(
(1.03909 0.00697594 3.42304e-21)
(1.03949 0.00836061 1.58269e-20)
(1.04 0.00919686 -2.7442e-21)
(1.04086 0.0108226 -3.71434e-21)
(1.01737 0.0217942 0)
(1.0154 0.0216704 0)
(1.01355 0.0213825 0)
(1.01184 0.0209643 0)
(1.01029 0.0204532 0)
(1.0089 0.0198768 0)
(1.00764 0.019254 0)
(1.00652 0.0186045 0)
(1.04186 0.0125774 0)
(1.04081 0.0151937 0)
(1.03823 0.0174883 0)
(1.03512 0.0194022 0)
(1.03206 0.0209711 0)
(1.02925 0.0222324 0)
(1.02667 0.0232159 0)
(1.02423 0.0239304 0)
(1.02185 0.0243689 0)
(1.01951 0.0245315 0)
(1.01951 0.0245315 0)
)
;
    }
    procBoundary21to14
    {
        type            processor;
        value           nonuniform List<vector> 2((1.00487 0.019055 0) (1.00409 0.0194076 0));
    }
    procBoundary21to20
    {
        type            processor;
        value           nonuniform List<vector> 
32
(
(1.0583 0.0193885 -2.95279e-21)
(1.05843 0.0218938 8.53329e-21)
(1.05843 0.0218938 8.53329e-21)
(1.06661 0.0190927 -1.23539e-19)
(1.06709 0.0214888 -7.5212e-20)
(1.0676 0.0243023 1.02603e-19)
(1.0676 0.0243023 1.02603e-19)
(1.07748 0.0285357 -2.5188e-19)
(1.07796 0.031281 1.68484e-19)
(1.07841 0.0340373 -2.68019e-19)
(1.07881 0.0368434 4.68776e-21)
(1.07881 0.0368434 4.68776e-21)
(1.09133 0.0370127 8.03598e-20)
(1.09202 0.0406695 -1.60708e-19)
(1.09264 0.0444709 1.31722e-21)
(1.09318 0.0484166 3.22826e-19)
(1.09365 0.0525075 -5.20725e-19)
(1.09365 0.0525075 -5.20725e-19)
(1.10991 0.0540736 1.75876e-19)
(1.11091 0.0584061 4.28734e-19)
(1.11184 0.0629337 -3.45258e-19)
(1.11268 0.067674 4.14496e-19)
(1.11339 0.0726446 -3.73498e-19)
(1.11392 0.0778632 -8.5894e-20)
(1.11392 0.0778632 -8.5894e-20)
(1.13501 0.0793713 -4.82239e-19)
(1.13515 0.0854077 3.51355e-19)
(1.13443 0.0917183 -2.8793e-19)
(1.13244 0.0983006 4.05829e-19)
(1.04257 0.00812279 -2.08455e-20)
(1.04651 0.0106047 9.93158e-21)
(1.05175 0.0132669 1.86332e-20)
)
;
    }
    procBoundary21to22
    {
        type            processor;
        value           nonuniform List<vector> 
30
(
(1.00334 0.0208375 0)
(1.00198 0.0209577 0)
(1.00101 0.0216943 -1.9882e-23)
(1.00065 0.0214277 3.25053e-23)
(1.00035 0.0212955 -6.36697e-24)
(1.0001 0.021212 -1.15946e-22)
(0.999871 0.0211088 -2.93442e-22)
(0.999643 0.0209933 -1.72175e-22)
(0.999406 0.0208732 1.39539e-22)
(0.999514 0.0220303 -1.58975e-22)
(0.999514 0.0220303 -1.58975e-22)
(0.999181 0.0218895 3.78418e-22)
(0.998836 0.0217426 3.08604e-23)
(0.998485 0.02159 -1.12784e-22)
(0.998132 0.0214319 -1.1206e-22)
(0.997782 0.0212683 -2.62894e-22)
(0.997436 0.021099 -1.47884e-21)
(0.997097 0.0209239 -9.65912e-22)
(0.996728 0.0221489 -1.18189e-21)
(0.996728 0.0221489 -1.18189e-21)
(0.996339 0.0219463 -1.68361e-22)
(0.995953 0.0217365 3.00276e-22)
(0.995562 0.0215195 4.76369e-22)
(0.995157 0.0212951 -4.58132e-22)
(0.994718 0.0210633 -2.89239e-22)
(0.994216 0.0208242 -3.95622e-23)
(0.993603 0.0205781 -6.05755e-22)
(0.992805 0.020325 -4.57746e-22)
(0.991707 0.0200651 -5.11004e-22)
(0.990133 0.0197982 5.29309e-22)
)
;
    }
    procBoundary21to28
    {
        type            processor;
        value           nonuniform List<vector> 2((1.12861 0.105137 1.74301e-19) (1.12214 0.112188 -1.42011e-19));
    }
    procBoundary21to29
    {
        type            processor;
        value           nonuniform List<vector> 
26
(
(1.0982 0.122211 -2.80055e-19)
(1.0982 0.122211 -2.80055e-19)
(1.07238 0.127974 6.44635e-20)
(1.07238 0.127974 6.44635e-20)
(1.04876 0.123553 -1.69278e-20)
(1.04876 0.123553 -1.69278e-20)
(1.02673 0.118457 1.82499e-20)
(1.02673 0.118457 1.82499e-20)
(1.01185 0.106453 -3.31354e-20)
(1.01185 0.106453 -3.31354e-20)
(0.984002 0.0566331 -8.8249e-22)
(0.982999 0.0504727 1.99598e-21)
(0.982546 0.0449746 -7.5612e-22)
(0.982548 0.040152 7.78585e-22)
(0.982876 0.0359734 -9.68773e-22)
(0.983415 0.0323657 3.42268e-22)
(0.984084 0.029267 -1.43524e-21)
(0.984824 0.0266264 -1.0363e-22)
(0.985598 0.0243886 1.42351e-21)
(0.986376 0.022491 9.72497e-22)
(0.995599 0.0980504 -1.60477e-21)
(0.990146 0.0885399 1.22575e-21)
(0.98463 0.0796806 1.64121e-22)
(0.980984 0.0712329 7.00782e-22)
(0.984002 0.0566331 -8.8249e-22)
(0.979007 0.0633648 6.79767e-22)
)
;
    }
    procBoundary21to30
    {
        type            processor;
        value           uniform (0.987125 0.0208801 8.32918e-22);
    }
}


// ************************************************************************* //
