/*--------------------------------*- C++ -*----------------------------------*\
  =========                 |
  \\      /  F ield         | OpenFOAM: The Open Source CFD Toolbox
   \\    /   O peration     | Website:  https://openfoam.org
    \\  /    A nd           | Version:  7
     \\/     M anipulation  |
\*---------------------------------------------------------------------------*/
FoamFile
{
    version     2.0;
    format      ascii;
    class       volScalarField;
    location    "0.6";
    object      p;
}
// * * * * * * * * * * * * * * * * * * * * * * * * * * * * * * * * * * * * * //

dimensions      [0 2 -2 0 0 0 0];

internalField   nonuniform List<scalar> 
20000
(
-4.30569e-07
1.20485e-05
1.74573e-05
1.01497e-05
-1.1312e-05
-4.68661e-05
-9.56019e-05
-0.000156201
-0.000227194
-0.000307101
-0.000394513
-0.000488129
-0.000586767
-0.000689373
-0.000795017
-0.000902873
-0.00101223
-0.00112248
-0.00123311
-0.00134369
-0.00145389
-0.00156342
-0.00167206
-0.00177967
-0.00188612
-0.00199134
-0.0020953
-0.002198
-0.00229948
-0.00239977
-0.00249893
-0.00259706
-0.00269423
-0.00279055
-0.00288611
-0.002981
-0.00307533
-0.00316921
-0.00326273
-0.00335598
-0.00344905
-0.003542
-0.00363491
-0.00372784
-0.00382085
-0.00391399
-0.00400729
-0.00410077
-0.00419446
-0.00428837
-0.00438249
-0.00447682
-0.00457133
-0.00466598
-0.00476075
-0.00485559
-0.00495044
-0.00504524
-0.0051399
-0.00523434
-0.00532846
-0.00542215
-0.00551531
-0.00560782
-0.00569953
-0.0057903
-0.00587996
-0.00596834
-0.00605528
-0.00614058
-0.00622403
-0.00630542
-0.00638451
-0.00646105
-0.00653479
-0.00660544
-0.00667272
-0.00673631
-0.00679589
-0.00685108
-0.00690154
-0.00694685
-0.00698661
-0.00702037
-0.00704767
-0.007068
-0.00708086
-0.0070857
-0.00708192
-0.00706892
-0.00704607
-0.00701267
-0.00696803
-0.00691141
-0.00684201
-0.00675903
-0.0066616
-0.00654882
-0.00641976
-0.00627343
-0.00610881
-0.00592484
-0.0057204
-0.00549436
-0.00524554
-0.00497269
-0.00467456
-0.00434985
-0.00399721
-0.00361528
-0.00320266
-0.00275793
-0.00227966
-0.00176639
-0.00121667
-0.000629026
-2.00578e-06
0.000665836
0.00137592
0.00212964
0.00292832
0.00377328
0.00466574
0.00560684
0.00659766
0.00763915
0.00873214
0.00987734
0.0110753
0.0123264
0.0136307
0.0149884
0.0163992
0.0178626
0.0193779
0.0209441
0.02256
0.0242239
0.0259341
0.0276882
0.0294838
0.031318
0.0331875
0.0350889
0.0370181
0.038971
0.0409429
0.042929
0.0449239
0.0469224
0.0489184
0.0509062
0.0528794
0.0548318
0.0567568
0.0586479
0.0604986
0.0623022
0.0640525
0.065743
0.0673677
0.0689207
0.0703966
0.0717902
0.0730969
0.0743125
0.0754335
0.0764567
0.0773799
0.0782015
0.0789203
0.0795363
0.0800499
0.0804625
0.080776
0.0809932
0.0811177
0.0811536
0.0811057
0.0809795
0.0807812
0.0805172
0.0801947
0.0798213
0.0794049
0.0789537
0.0784764
0.077982
0.0774798
0.0769793
0.0764904
0.0760233
0.0755887
0.0751976
0.0748614
0.0745913
0.0743975
0.0742878
0.0742651
0.0743102
-1.34353e-05
-6.31113e-07
1.9133e-06
-7.48732e-06
-2.87629e-05
-6.20091e-05
-0.000106737
-0.000162025
-0.000226785
-0.000299856
-0.000380082
-0.000466361
-0.000557664
-0.000653054
-0.000751689
-0.000852812
-0.000955756
-0.00105995
-0.0011649
-0.0012702
-0.0013755
-0.00148051
-0.00158501
-0.00168882
-0.00179182
-0.00189391
-0.00199504
-0.00209519
-0.00219435
-0.00229256
-0.00238984
-0.00248626
-0.00258188
-0.00267678
-0.00277102
-0.00286469
-0.00295787
-0.00305064
-0.00314309
-0.00323527
-0.00332726
-0.00341912
-0.00351092
-0.00360269
-0.00369449
-0.00378634
-0.00387827
-0.0039703
-0.00406244
-0.00415468
-0.00424703
-0.00433947
-0.00443196
-0.00452446
-0.00461694
-0.00470933
-0.00480159
-0.00489363
-0.00498538
-0.00507674
-0.00516761
-0.00525787
-0.00534743
-0.00543614
-0.00552387
-0.00561046
-0.00569575
-0.00577957
-0.00586174
-0.00594207
-0.00602035
-0.00609636
-0.00616986
-0.0062406
-0.00630833
-0.00637275
-0.0064336
-0.00649054
-0.00654326
-0.00659139
-0.00663458
-0.00667242
-0.0067045
-0.0067304
-0.00674964
-0.00676175
-0.0067662
-0.00676246
-0.00674995
-0.00672808
-0.00669623
-0.00665372
-0.00659987
-0.00653395
-0.0064552
-0.00636282
-0.00625599
-0.00613382
-0.0059954
-0.00583979
-0.005666
-0.00547299
-0.0052597
-0.00502503
-0.00476783
-0.00448692
-0.00418109
-0.00384908
-0.00348962
-0.00310139
-0.00268306
-0.00223327
-0.00175065
-0.00123382
-0.000681374
-9.19356e-05
0.000535882
0.00120345
0.0019121
0.00266315
0.00345788
0.00429749
0.00518314
0.0061159
0.00709676
0.00812661
0.00920621
0.0103362
0.011517
0.0127491
0.0140325
0.0153671
0.0167528
0.018189
0.019675
0.0212099
0.0227923
0.0244207
0.0260932
0.0278078
0.0295619
0.0313527
0.0331772
0.0350318
0.0369129
0.0388162
0.0407375
0.0426718
0.0446144
0.0465598
0.0485026
0.050437
0.0523572
0.054257
0.0561302
0.0579707
0.0597722
0.0615285
0.0632334
0.064881
0.0664655
0.0679814
0.0694234
0.0707869
0.0720673
0.0732608
0.074364
0.075374
0.0762888
0.0771068
0.077827
0.0784494
0.0789745
0.0794036
0.0797385
0.0799821
0.0801376
0.0802091
0.0802011
0.0801189
0.0799684
0.0797556
0.0794874
0.079171
0.0788138
0.0784237
0.0780088
0.0775776
0.0771386
0.0767008
0.0762732
0.0758651
0.0754859
0.075145
0.0748519
0.0746151
0.0744421
0.074338
0.07431
0.0743552
-1.87423e-05
-3.03855e-06
-5.40505e-07
-1.04497e-05
-3.12899e-05
-6.29718e-05
-0.00010508
-0.000156844
-0.00021736
-0.000285653
-0.000360748
-0.000441687
-0.000527561
-0.00061753
-0.000710824
-0.000806745
-0.000904678
-0.00100409
-0.0011045
-0.00120553
-0.00130683
-0.00140811
-0.00150916
-0.00160978
-0.00170984
-0.00180924
-0.0019079
-0.0020058
-0.00210291
-0.00219924
-0.00229481
-0.00238967
-0.00248384
-0.0025774
-0.0026704
-0.00276291
-0.00285498
-0.0029467
-0.00303811
-0.00312928
-0.00322026
-0.0033111
-0.00340185
-0.00349256
-0.00358325
-0.00367394
-0.00376464
-0.00385538
-0.00394616
-0.00403696
-0.00412777
-0.00421856
-0.00430931
-0.00439997
-0.00449048
-0.0045808
-0.00467085
-0.00476057
-0.00484985
-0.0049386
-0.00502672
-0.0051141
-0.00520063
-0.00528615
-0.00537054
-0.00545364
-0.00553527
-0.00561528
-0.00569347
-0.00576965
-0.00584362
-0.00591515
-0.005984
-0.00604993
-0.00611268
-0.00617195
-0.00622748
-0.00627894
-0.00632601
-0.00636833
-0.00640555
-0.00643727
-0.00646309
-0.00648257
-0.00649526
-0.00650069
-0.00649834
-0.00648768
-0.00646815
-0.00643917
-0.00640013
-0.00635037
-0.00628922
-0.00621596
-0.00612987
-0.00603016
-0.00591602
-0.0057866
-0.00564101
-0.00547834
-0.00529761
-0.00509784
-0.00487799
-0.00463699
-0.00437374
-0.00408709
-0.00377587
-0.00343888
-0.00307487
-0.00268258
-0.00226074
-0.00180802
-0.00132311
-0.000804689
-0.000251408
0.000338064
0.000965052
0.00163086
0.00233679
0.00308408
0.00387394
0.00470754
0.00558598
0.00651027
0.00748136
0.00850008
0.00956715
0.0106832
0.0118486
0.0130636
0.0143285
0.0156432
0.0170072
0.0184203
0.0198815
0.0213901
0.0229446
0.0245437
0.0261854
0.0278678
0.0295883
0.0313443
0.0331328
0.0349504
0.0367934
0.0386578
0.0405395
0.0424337
0.0443358
0.0462405
0.0481425
0.0500363
0.0519162
0.0537763
0.0556107
0.0574133
0.0591782
0.0608993
0.0625707
0.0641868
0.0657418
0.0672306
0.0686482
0.0699898
0.0712514
0.0724291
0.0735197
0.0745207
0.0754298
0.0762456
0.0769674
0.077595
0.078129
0.0785706
0.0789218
0.0791851
0.0793638
0.0794618
0.0794836
0.0794341
0.0793189
0.0791442
0.0789162
0.078642
0.0783285
0.0779835
0.0776145
0.0772295
0.0768366
0.0764442
0.0760605
0.0756942
0.0753534
0.0750468
0.0747823
0.0745672
0.0744078
0.0743088
0.0742816
0.074333
-1.12999e-05
6.49957e-06
9.38707e-06
-6.38818e-07
-2.12087e-05
-5.19723e-05
-9.24695e-05
-0.000141957
-0.000199605
-0.000264564
-0.000335958
-0.000412939
-0.0004947
-0.000580479
-0.000669569
-0.000761331
-0.000855201
-0.000950673
-0.00104731
-0.00114472
-0.0012426
-0.00134066
-0.00143869
-0.00153648
-0.00163391
-0.00173087
-0.00182728
-0.00192309
-0.00201827
-0.00211281
-0.00220674
-0.00230008
-0.00239284
-0.00248509
-0.00257685
-0.00266819
-0.00275915
-0.0028498
-0.00294018
-0.00303034
-0.00312031
-0.00321014
-0.00329988
-0.00338955
-0.00347916
-0.00356874
-0.00365829
-0.00374782
-0.00383732
-0.00392679
-0.00401618
-0.00410548
-0.00419464
-0.00428362
-0.00437237
-0.00446082
-0.00454889
-0.00463652
-0.0047236
-0.00481003
-0.00489572
-0.00498054
-0.00506437
-0.00514708
-0.00522852
-0.00530853
-0.00538694
-0.00546359
-0.00553828
-0.00561083
-0.00568102
-0.00574863
-0.00581342
-0.00587515
-0.00593355
-0.00598835
-0.00603926
-0.00608597
-0.00612815
-0.00616547
-0.00619756
-0.00622403
-0.00624448
-0.00625849
-0.00626561
-0.00626538
-0.00625728
-0.0062408
-0.0062154
-0.0061805
-0.00613548
-0.00607974
-0.0060126
-0.00593337
-0.00584133
-0.00573573
-0.00561576
-0.00548061
-0.00532941
-0.00516127
-0.00497525
-0.00477039
-0.00454568
-0.00430009
-0.00403254
-0.00374194
-0.00342713
-0.00308695
-0.0027202
-0.00232567
-0.0019021
-0.00144824
-0.000962806
-0.000444513
0.000107931
0.000695815
0.00132042
0.00198302
0.00268484
0.0034271
0.00421097
0.00503757
0.00590796
0.00682313
0.00778398
0.00879133
0.00984585
0.0109481
0.0120986
0.0132975
0.014545
0.015841
0.0171853
0.0185773
0.0200163
0.0215014
0.0230315
0.0246049
0.02622
0.0278747
0.0295667
0.0312934
0.0330517
0.0348385
0.0366501
0.0384828
0.0403323
0.0421942
0.0440638
0.0459362
0.047806
0.049668
0.0515166
0.0533461
0.0551506
0.0569244
0.0586615
0.0603562
0.0620026
0.0635952
0.0651286
0.0665976
0.0679974
0.0693234
0.0705716
0.0717383
0.0728204
0.0738153
0.074721
0.0755361
0.0762598
0.0768921
0.0774335
0.0778852
0.0782491
0.0785278
0.0787244
0.0788427
0.0788872
0.0788626
0.0787744
0.0786284
0.0784309
0.0781884
0.077908
0.0775967
0.0772619
0.0769113
0.0765524
0.0761931
0.0758411
0.0755042
0.07519
0.0749061
0.0746596
0.0744576
0.0743053
0.0742078
0.0741779
0.0742256
1.04833e-05
2.80985e-05
3.03707e-05
1.9724e-05
-1.08511e-06
-3.15292e-05
-7.10928e-05
-0.000119046
-0.000174615
-0.000237024
-0.00030549
-0.000379254
-0.000457592
-0.000539811
-0.00062527
-0.000713391
-0.000803652
-0.000895586
-0.00098878
-0.00108288
-0.00117758
-0.00127262
-0.00136777
-0.00146286
-0.00155775
-0.00165232
-0.00174651
-0.00184025
-0.0019335
-0.00202625
-0.0021185
-0.00221027
-0.00230158
-0.00239245
-0.00248293
-0.00257304
-0.00266285
-0.00275238
-0.00284166
-0.00293075
-0.00301967
-0.00310846
-0.00319714
-0.00328574
-0.00337426
-0.00346271
-0.00355109
-0.00363941
-0.00372764
-0.00381577
-0.00390377
-0.0039916
-0.00407921
-0.00416655
-0.00425357
-0.0043402
-0.00442636
-0.00451197
-0.00459693
-0.00468113
-0.00476446
-0.00484682
-0.00492807
-0.00500808
-0.0050867
-0.00516376
-0.0052391
-0.00531254
-0.0053839
-0.00545298
-0.00551959
-0.00558348
-0.00564443
-0.00570218
-0.00575649
-0.00580707
-0.00585363
-0.00589588
-0.0059335
-0.00596613
-0.00599343
-0.00601502
-0.0060305
-0.00603945
-0.00604144
-0.006036
-0.00602265
-0.00600087
-0.00597014
-0.00592988
-0.00587952
-0.00581844
-0.00574598
-0.00566149
-0.00556426
-0.00545354
-0.00532858
-0.00518857
-0.00503267
-0.00486001
-0.00466969
-0.00446077
-0.00423227
-0.0039832
-0.00371251
-0.00341913
-0.00310196
-0.00275986
-0.00239168
-0.00199623
-0.00157231
-0.00111869
-0.000634127
-0.000117385
0.00043279
0.00101765
0.00163844
0.00229639
0.0029927
0.00372855
0.00450508
0.00532338
0.00618448
0.00708935
0.00803886
0.00903382
0.0100749
0.0111626
0.0122975
0.0134798
0.0147095
0.0159867
0.0173111
0.0186823
0.0200995
0.0215619
0.0230683
0.0246172
0.026207
0.0278358
0.0295011
0.0312006
0.0329312
0.0346899
0.0364732
0.0382773
0.0400982
0.0419315
0.0437727
0.0456169
0.047459
0.0492937
0.0511157
0.0529193
0.0546989
0.0564487
0.0581631
0.0598361
0.0614624
0.0630363
0.0645525
0.066006
0.0673921
0.0687062
0.0699444
0.0711032
0.0721794
0.0731705
0.0740745
0.0748901
0.0756165
0.0762536
0.076802
0.0772629
0.0776381
0.0779302
0.0781423
0.078278
0.0783417
0.0783381
0.0782725
0.0781505
0.0779784
0.0777623
0.0775091
0.0772256
0.0769189
0.0765961
0.0762646
0.0759317
0.0756045
0.0752902
0.0749958
0.0747282
0.0744938
0.0742988
0.0741482
0.0740471
0.0740071
0.0740376
4.68183e-05
6.20278e-05
6.24365e-05
5.04162e-05
2.86834e-05
-2.12876e-06
-4.14583e-05
-8.85968e-05
-0.000142822
-0.000203419
-0.000269683
-0.000340929
-0.000416498
-0.000495764
-0.000578155
-0.000663142
-0.000750246
-0.000839041
-0.000929148
-0.00102024
-0.00111202
-0.00120425
-0.00129671
-0.00138924
-0.0014817
-0.00157398
-0.00166601
-0.00175771
-0.00184905
-0.00194001
-0.00203059
-0.00212078
-0.00221061
-0.00230008
-0.00238923
-0.00247809
-0.00256669
-0.00265506
-0.00274323
-0.00283121
-0.00291905
-0.00300677
-0.00309438
-0.00318189
-0.0032693
-0.00335662
-0.00344384
-0.00353095
-0.00361794
-0.00370476
-0.00379139
-0.00387778
-0.00396389
-0.00404966
-0.00413502
-0.0042199
-0.00430422
-0.0043879
-0.00447082
-0.00455289
-0.004634
-0.00471402
-0.00479282
-0.00487027
-0.00494621
-0.00502048
-0.00509292
-0.00516334
-0.00523157
-0.0052974
-0.00536063
-0.00542104
-0.0054784
-0.00553244
-0.00558293
-0.00562958
-0.00567212
-0.00571024
-0.00574363
-0.00577196
-0.00579486
-0.00581198
-0.00582292
-0.00582728
-0.00582462
-0.0058145
-0.00579643
-0.00576993
-0.00573447
-0.0056895
-0.00563446
-0.00556874
-0.00549172
-0.00540274
-0.00530113
-0.00518616
-0.0050571
-0.00491316
-0.00475354
-0.00457738
-0.00438382
-0.00417195
-0.00394081
-0.00368945
-0.00341685
-0.00312196
-0.00280373
-0.00246106
-0.00209282
-0.00169785
-0.001275
-0.000823079
-0.000340874
0.000172825
0.000719235
0.00129957
0.00191505
0.00256687
0.0032562
0.00398421
0.004752
0.00556064
0.00641116
0.0073045
0.00824154
0.00922305
0.0102497
0.0113221
0.0124407
0.0136057
0.0148174
0.0160756
0.0173801
0.0187306
0.0201264
0.0215666
0.0230502
0.0245757
0.0261416
0.0277459
0.0293865
0.0310608
0.0327662
0.0344994
0.0362573
0.038036
0.0398317
0.0416401
0.0434567
0.0452768
0.0470954
0.0489073
0.0507073
0.0524897
0.0542491
0.0559798
0.0576761
0.0593325
0.0609432
0.062503
0.0640066
0.065449
0.0668254
0.0681315
0.0693633
0.0705172
0.0715903
0.0725799
0.0734842
0.0743018
0.0750318
0.0756743
0.0762298
0.0766993
0.0770849
0.0773889
0.0776143
0.0777649
0.0778448
0.0778587
0.0778118
0.0777096
0.0775581
0.0773635
0.0771322
0.0768709
0.0765864
0.0762855
0.0759752
0.0756623
0.0753535
0.0750555
0.0747748
0.0745174
0.0742891
0.0740956
0.0739415
0.0738316
0.0737747
0.0737777
9.70682e-05
0.000107988
0.000105326
9.10943e-05
6.76935e-05
3.5796e-05
-4.01208e-06
-5.10517e-05
-0.000104647
-0.000164141
-0.000228896
-0.000298285
-0.000371715
-0.000448625
-0.000528495
-0.000610849
-0.000695253
-0.000781318
-0.000868701
-0.000957096
-0.00104624
-0.00113589
-0.00122586
-0.001316
-0.00140617
-0.00149627
-0.00158621
-0.00167594
-0.00176542
-0.00185463
-0.00194355
-0.00203217
-0.00212051
-0.00220857
-0.00229639
-0.00238398
-0.00247136
-0.00255855
-0.00264557
-0.00273244
-0.00281919
-0.00290583
-0.00299236
-0.00307878
-0.00316509
-0.00325129
-0.00333737
-0.00342331
-0.00350907
-0.00359463
-0.00367994
-0.00376495
-0.00384962
-0.00393388
-0.00401766
-0.00410088
-0.00418346
-0.00426531
-0.00434632
-0.00442639
-0.0045054
-0.00458322
-0.00465973
-0.00473479
-0.00480823
-0.0048799
-0.00494963
-0.00501725
-0.00508256
-0.00514538
-0.0052055
-0.0052627
-0.00531674
-0.00536737
-0.00541436
-0.00545742
-0.00549628
-0.00553065
-0.00556021
-0.00558464
-0.0056036
-0.00561671
-0.00562361
-0.00562388
-0.00561712
-0.00560289
-0.00558071
-0.00555012
-0.0055106
-0.00546163
-0.00540264
-0.00533306
-0.00525228
-0.00515967
-0.00505457
-0.00493629
-0.00480411
-0.00465726
-0.00449497
-0.00431643
-0.00412078
-0.00390714
-0.0036746
-0.00342222
-0.00314902
-0.00285399
-0.0025361
-0.00219428
-0.00182744
-0.00143446
-0.00101421
-0.000565521
-8.72304e-05
0.000421849
0.000962909
0.00153714
0.00214573
0.00278985
0.00347067
0.00418932
0.0049469
0.00574447
0.00658304
0.00746357
0.00838693
0.00935391
0.0103652
0.0114214
0.0125229
0.0136702
0.0148632
0.0161022
0.0173868
0.0187168
0.0200914
0.0215101
0.0229716
0.0244747
0.0260179
0.0275994
0.0292169
0.0308682
0.0325506
0.034261
0.0359962
0.0377527
0.0395265
0.0413135
0.0431094
0.0449094
0.0467086
0.0485021
0.0502845
0.0520504
0.0537943
0.0555106
0.0571938
0.0588381
0.0604381
0.0619885
0.0634839
0.0649194
0.0662904
0.0675923
0.0688213
0.0699738
0.0710467
0.0720376
0.0729443
0.0737656
0.0745007
0.0751494
0.0757122
0.0761903
0.0765855
0.0769002
0.0771375
0.0773008
0.0773943
0.0774228
0.0773911
0.0773048
0.0771697
0.0769919
0.0767776
0.0765333
0.0762655
0.0759809
0.075686
0.0753872
0.075091
0.0748034
0.0745304
0.0742775
0.07405
0.0738529
0.0736904
0.0735669
0.0734878
0.0734561
0.000160165
0.000165267
0.000158429
0.00014115
0.000115335
8.16494e-05
4.06811e-05
-6.92831e-06
-6.05543e-05
-0.000119596
-0.000183468
-0.000251602
-0.000323466
-0.000398559
-0.000476412
-0.000556597
-0.000638722
-0.000722441
-0.000807442
-0.000893444
-0.000980203
-0.00106751
-0.00115519
-0.00124311
-0.00133113
-0.00141916
-0.00150712
-0.00159496
-0.00168263
-0.00177012
-0.00185741
-0.00194448
-0.00203134
-0.00211801
-0.00220449
-0.0022908
-0.00237695
-0.00246295
-0.00254883
-0.00263459
-0.00272024
-0.0028058
-0.00289126
-0.0029766
-0.00306184
-0.00314694
-0.0032319
-0.00331669
-0.00340128
-0.00348561
-0.00356966
-0.00365336
-0.00373665
-0.00381948
-0.00390176
-0.00398342
-0.00406437
-0.0041445
-0.00422372
-0.00430191
-0.00437896
-0.00445474
-0.00452911
-0.00460194
-0.00467307
-0.00474233
-0.00480956
-0.00487459
-0.00493722
-0.00499728
-0.00505454
-0.0051088
-0.00515981
-0.00520735
-0.00525115
-0.00529097
-0.00532652
-0.00535752
-0.00538366
-0.00540462
-0.00542008
-0.00542967
-0.00543302
-0.00542974
-0.00541944
-0.00540168
-0.00537602
-0.005342
-0.00529911
-0.00524685
-0.00518468
-0.00511204
-0.00502835
-0.00493299
-0.00482532
-0.00470469
-0.00457039
-0.00442169
-0.00425783
-0.00407804
-0.00388148
-0.00366731
-0.00343465
-0.00318257
-0.00291014
-0.00261637
-0.00230026
-0.00196078
-0.00159686
-0.00120742
-0.000791346
-0.000347508
0.000125241
0.000628058
0.00116211
0.00172858
0.00232862
0.00296341
0.00363408
0.00434178
0.00508759
0.00587257
0.00669774
0.00756407
0.00847244
0.00942365
0.0104184
0.0114574
0.012541
0.0136697
0.0148437
0.0160629
0.0173274
0.0186367
0.0199904
0.0213878
0.0228279
0.0243094
0.025831
0.0273908
0.0289868
0.0306168
0.0322782
0.0339681
0.0356832
0.0374201
0.039175
0.0409438
0.0427223
0.0445059
0.0462896
0.0480686
0.0498376
0.0515912
0.053324
0.0550304
0.0567048
0.0583416
0.0599354
0.0614807
0.0629723
0.0644053
0.0657748
0.0670765
0.0683063
0.0694608
0.0705366
0.0715314
0.0724431
0.0732701
0.0740118
0.074668
0.075239
0.075726
0.0761308
0.0764556
0.0767036
0.0768782
0.0769835
0.077024
0.0770048
0.0769312
0.076809
0.076644
0.0764425
0.0762108
0.075955
0.0756817
0.0753971
0.0751073
0.0748183
0.0745359
0.0742655
0.0740122
0.0737808
0.0735756
0.0734006
0.0732595
0.0731541
0.0730835
0.000234881
0.000232948
0.000220982
0.000199881
0.00017094
0.000134796
9.20282e-05
4.32283e-05
-1.10357e-05
-7.02116e-05
-0.000133768
-0.000201195
-0.000272016
-0.000345783
-0.000422077
-0.000500518
-0.000580759
-0.000662489
-0.000745426
-0.000829319
-0.000913952
-0.00099914
-0.00108473
-0.00117058
-0.0012566
-0.00134267
-0.00142875
-0.00151478
-0.00160072
-0.00168654
-0.00177223
-0.00185779
-0.0019432
-0.00202848
-0.00211364
-0.00219868
-0.00228361
-0.00236844
-0.00245317
-0.00253783
-0.0026224
-0.00270689
-0.00279128
-0.00287558
-0.00295975
-0.00304379
-0.00312767
-0.00321136
-0.00329481
-0.00337798
-0.00346082
-0.00354327
-0.00362527
-0.00370675
-0.00378763
-0.00386782
-0.00394724
-0.00402577
-0.00410332
-0.00417977
-0.004255
-0.00432889
-0.00440129
-0.00447207
-0.00454107
-0.00460812
-0.00467306
-0.00473572
-0.00479591
-0.00485345
-0.00490812
-0.00495972
-0.00500801
-0.00505276
-0.00509372
-0.00513064
-0.00516325
-0.00519127
-0.00521441
-0.00523235
-0.00524477
-0.00525132
-0.00525164
-0.00524537
-0.0052321
-0.00521143
-0.00518292
-0.00514614
-0.0051006
-0.0050458
-0.00498123
-0.00490636
-0.00482062
-0.00472341
-0.00461414
-0.00449215
-0.00435677
-0.0042073
-0.00404302
-0.00386315
-0.00366692
-0.0034535
-0.00322203
-0.00297163
-0.00270137
-0.00241033
-0.0020975
-0.0017619
-0.00140249
-0.0010182
-0.000607947
-0.00017063
0.00029488
0.000789721
0.00131504
0.00187201
0.00246178
0.0030855
0.00374432
0.00443937
0.00517175
0.00594254
0.00675275
0.00760338
0.00849533
0.00942944
0.0104065
0.0114271
0.0124918
0.013601
0.0147551
0.015954
0.0171979
0.0184864
0.0198191
0.0211953
0.0226143
0.0240748
0.0255754
0.0271146
0.0286904
0.0303006
0.0319427
0.0336138
0.035311
0.0370307
0.0387694
0.0405229
0.0422872
0.0440575
0.0458292
0.0475974
0.0493567
0.051102
0.0528277
0.0545283
0.0561981
0.0578317
0.0594235
0.060968
0.0624601
0.0638945
0.0652666
0.0665719
0.0678063
0.0689661
0.0700481
0.0710498
0.071969
0.0728042
0.0735545
0.0742197
0.0748001
0.0752968
0.0757115
0.0760465
0.0763048
0.0764897
0.0766054
0.0766564
0.0766475
0.0765842
0.0764719
0.0763167
0.0761244
0.0759013
0.0756536
0.0753873
0.0751086
0.0748232
0.074537
0.0742552
0.0739829
0.0737249
0.0734855
0.0732683
0.0730772
0.0729156
0.0727812
0.0726693
0.000319951
0.00031002
0.000292133
0.000266521
0.000233802
0.000194582
0.000149422
9.88549e-05
4.34005e-05
-1.64432e-05
-8.02013e-05
-0.000147421
-0.000217675
-0.000290565
-0.000365722
-0.000442813
-0.000521533
-0.000601605
-0.000682779
-0.000764835
-0.000847585
-0.000930872
-0.00101456
-0.00109852
-0.00118267
-0.00126692
-0.00135122
-0.00143553
-0.00151981
-0.00160403
-0.00168818
-0.00177225
-0.00185625
-0.00194018
-0.00202404
-0.00210783
-0.00219156
-0.00227522
-0.00235884
-0.0024424
-0.00252591
-0.00260936
-0.00269272
-0.00277599
-0.00285914
-0.00294215
-0.00302499
-0.00310763
-0.00319
-0.00327207
-0.00335377
-0.00343505
-0.00351584
-0.00359606
-0.00367563
-0.00375446
-0.00383245
-0.00390951
-0.00398552
-0.00406037
-0.00413393
-0.00420609
-0.00427669
-0.0043456
-0.00441266
-0.0044777
-0.00454057
-0.00460109
-0.00465909
-0.00471436
-0.00476672
-0.00481595
-0.00486182
-0.0049041
-0.00494256
-0.00497695
-0.00500701
-0.00503246
-0.00505302
-0.00506839
-0.00507825
-0.00508227
-0.00508011
-0.00507139
-0.00505575
-0.0050328
-0.00500212
-0.00496327
-0.0049158
-0.00485925
-0.0047931
-0.00471685
-0.00462995
-0.00453185
-0.00442195
-0.00429963
-0.00416426
-0.00401516
-0.00385162
-0.00367292
-0.00347829
-0.00326694
-0.00303803
-0.00279073
-0.00252412
-0.00223731
-0.00192933
-0.00159921
-0.00124594
-0.000868483
-0.000465771
-3.67176e-05
0.000419785
0.000904862
0.00141965
0.00196531
0.00254298
0.00315383
0.003799
0.00447964
0.00519684
0.00595172
0.00674531
0.00757864
0.00845263
0.00936819
0.0103261
0.0113271
0.0123717
0.0134605
0.0145937
0.0157717
0.0169943
0.0182615
0.0195729
0.020928
0.0223259
0.0237657
0.025246
0.0267653
0.0283218
0.0299133
0.0315375
0.0331917
0.0348728
0.0365775
0.0383021
0.0400429
0.0417956
0.0435557
0.0453186
0.0470792
0.0488324
0.0505729
0.0522953
0.0539939
0.0556633
0.0572976
0.0588915
0.0604393
0.0619358
0.0633758
0.0647544
0.0660671
0.0673097
0.0684785
0.0695701
0.0705819
0.0715115
0.0723574
0.0731186
0.0737948
0.0743862
0.0748939
0.0753194
0.0756651
0.0759337
0.0761287
0.0762541
0.0763143
0.0763143
0.0762593
0.0761548
0.0760066
0.0758207
0.0756031
0.0753599
0.075097
0.0748204
0.0745356
0.0742481
0.073963
0.073685
0.0734186
0.0731675
0.0729353
0.0727254
0.0725409
0.0723757
0.0722217
0.000414138
0.000395444
0.000370972
0.000340251
0.000303173
0.000260319
0.000212227
0.000159375
0.000102227
4.12273e-05
-2.32048e-05
-9.06688e-05
-0.000160787
-0.000233211
-0.00030762
-0.000383725
-0.000461259
-0.00053998
-0.000619672
-0.00070015
-0.000781254
-0.000862847
-0.000944812
-0.00102705
-0.00110948
-0.00119203
-0.00127467
-0.00135735
-0.00144005
-0.00152273
-0.00160541
-0.00168806
-0.00177069
-0.00185331
-0.0019359
-0.00201847
-0.00210103
-0.00218357
-0.00226609
-0.0023486
-0.00243108
-0.00251351
-0.00259587
-0.00267816
-0.00276033
-0.00284236
-0.00292422
-0.00300585
-0.00308721
-0.00316824
-0.00324888
-0.00332907
-0.00340873
-0.00348779
-0.00356615
-0.00364373
-0.00372042
-0.00379613
-0.00387074
-0.00394413
-0.00401618
-0.00408676
-0.00415574
-0.00422296
-0.00428828
-0.00435152
-0.00441254
-0.00447116
-0.00452721
-0.00458049
-0.00463081
-0.00467797
-0.00472173
-0.00476189
-0.0047982
-0.00483043
-0.00485832
-0.00488163
-0.00490006
-0.00491333
-0.00492112
-0.00492314
-0.00491903
-0.00490846
-0.00489107
-0.00486648
-0.0048343
-0.00479412
-0.00474549
-0.00468798
-0.00462109
-0.00454435
-0.00445723
-0.0043592
-0.0042497
-0.00412813
-0.00399389
-0.00384632
-0.00368475
-0.00350848
-0.00331677
-0.00310886
-0.00288395
-0.00264121
-0.00237978
-0.00209877
-0.00179726
-0.00147428
-0.00112886
-0.000759968
-0.000366568
5.24142e-05
0.000498074
0.000971529
0.00147391
0.00200637
0.00257007
0.00316616
0.0037958
0.00446015
0.00516036
0.00589752
0.00667274
0.00748706
0.00834146
0.00923689
0.0101742
0.0111542
0.0121774
0.0132446
0.014356
0.015512
0.0167127
0.017958
0.0192477
0.0205813
0.0219581
0.0233772
0.0248375
0.0263374
0.0278753
0.0294491
0.0310566
0.032695
0.0343616
0.0360531
0.0377658
0.0394961
0.0412396
0.0429922
0.0447489
0.046505
0.0482553
0.0499944
0.051717
0.0534173
0.0550898
0.0567288
0.0583287
0.0598837
0.0613886
0.0628381
0.0642272
0.0655513
0.0668059
0.0679873
0.069092
0.0701171
0.0710603
0.0719198
0.0726945
0.0733841
0.0739885
0.0745089
0.0749466
0.0753038
0.0755834
0.0757887
0.0759236
0.0759925
0.0760004
0.0759523
0.0758539
0.0757108
0.075529
0.0753143
0.0750727
0.0748102
0.0745323
0.0742447
0.0739526
0.0736608
0.0733738
0.0730958
0.0728303
0.0725803
0.0723493
0.0721402
0.0719434
0.0717474
0.000516254
0.000488182
0.000456571
0.000420228
0.000378279
0.000331289
0.000279786
0.000224187
0.000164891
0.000102292
3.67593e-05
-3.13582e-05
-0.000101732
-0.000174066
-0.000248084
-0.000323534
-0.000400189
-0.000477843
-0.000556319
-0.000635463
-0.000715144
-0.000795245
-0.00087567
-0.000956339
-0.00103719
-0.00111818
-0.00119927
-0.00128043
-0.00136163
-0.00144287
-0.00152413
-0.00160543
-0.00168675
-0.0017681
-0.00184947
-0.00193087
-0.0020123
-0.00209375
-0.00217523
-0.00225672
-0.0023382
-0.00241966
-0.00250107
-0.00258242
-0.00266366
-0.00274477
-0.0028257
-0.0029064
-0.00298681
-0.00306688
-0.00314654
-0.00322572
-0.00330435
-0.00338234
-0.00345961
-0.00353605
-0.00361156
-0.00368605
-0.00375939
-0.00383147
-0.00390217
-0.00397136
-0.00403888
-0.00410461
-0.00416838
-0.00423005
-0.00428945
-0.00434641
-0.00440076
-0.00445232
-0.00450089
-0.00454627
-0.00458825
-0.00462662
-0.00466114
-0.0046916
-0.00471774
-0.00473932
-0.00475608
-0.00476772
-0.00477397
-0.00477451
-0.00476903
-0.00475721
-0.0047387
-0.00471315
-0.00468019
-0.00463941
-0.00459041
-0.00453276
-0.00446601
-0.00438969
-0.00430331
-0.00420636
-0.00409832
-0.0039786
-0.00384664
-0.00370181
-0.00354347
-0.00337094
-0.00318352
-0.00298047
-0.00276102
-0.00252437
-0.00226969
-0.00199611
-0.00170272
-0.00138861
-0.00105279
-0.000694264
-0.000312011
9.50317e-05
0.000527953
0.000987866
0.0014759
0.00199322
0.00254097
0.00312034
0.00373251
0.00437864
0.00505992
0.0057775
0.0065325
0.00732601
0.0081591
0.00903273
0.00994785
0.0109053
0.0119058
0.01295
0.0140384
0.0151714
0.0163492
0.0175718
0.0188391
0.0201508
0.0215062
0.0229046
0.0243449
0.0258257
0.0273454
0.0289022
0.0304938
0.0321177
0.0337711
0.0354507
0.0371533
0.0388749
0.0406115
0.0423587
0.044112
0.0458663
0.0476165
0.0493574
0.0510834
0.0527888
0.0544681
0.0561153
0.0577248
0.059291
0.0608082
0.0622711
0.0636746
0.0650139
0.0662844
0.0674821
0.0686035
0.0696455
0.0706056
0.0714819
0.0722731
0.0729786
0.0735985
0.0741336
0.0745852
0.0749555
0.0752471
0.0754634
0.0756082
0.0756858
0.0757011
0.0756593
0.0755658
0.0754264
0.0752467
0.0750329
0.0747907
0.0745259
0.0742442
0.073951
0.0736513
0.0733498
0.0730511
0.0727588
0.0724764
0.0722066
0.0719529
0.071718
0.0714891
0.0712517
0.000625162
0.000587214
0.000548002
0.000505594
0.000458331
0.000406769
0.000351429
0.000292664
0.000230813
0.000166218
9.92021e-05
3.00613e-05
-4.09271e-05
-0.00011351
-0.000187457
-0.000262554
-0.000338613
-0.000415468
-0.000492976
-0.000571017
-0.000649483
-0.000728282
-0.000807342
-0.000886606
-0.000966033
-0.00104559
-0.00112525
-0.00120498
-0.00128479
-0.00136466
-0.00144459
-0.0015246
-0.00160468
-0.00168482
-0.00176504
-0.00184531
-0.00192566
-0.00200608
-0.00208656
-0.00216707
-0.00224761
-0.00232815
-0.00240867
-0.00248913
-0.00256951
-0.00264976
-0.00272983
-0.00280966
-0.0028892
-0.00296839
-0.00304715
-0.00312542
-0.00320312
-0.00328015
-0.00335643
-0.00343185
-0.00350631
-0.00357971
-0.00365193
-0.00372286
-0.00379237
-0.00386032
-0.00392658
-0.003991
-0.00405344
-0.00411375
-0.00417175
-0.0042273
-0.00428021
-0.00433033
-0.00437744
-0.00442136
-0.00446189
-0.00449882
-0.00453192
-0.00456099
-0.0045858
-0.0046061
-0.00462164
-0.00463216
-0.00463737
-0.004637
-0.00463073
-0.00461827
-0.0045993
-0.00457348
-0.00454045
-0.00449984
-0.00445128
-0.00439434
-0.00432862
-0.00425366
-0.00416902
-0.00407419
-0.00396868
-0.00385196
-0.00372347
-0.00358263
-0.00342881
-0.00326138
-0.00307965
-0.00288292
-0.00267044
-0.00244145
-0.00219512
-0.00193063
-0.0016471
-0.0013436
-0.00101919
-0.000672884
-0.000303665
8.95189e-05
0.000507752
0.000952145
0.00142384
0.00192399
0.00245379
0.00301442
0.00360709
0.00423301
0.00489338
0.0055894
0.00632226
0.0070931
0.00790303
0.00875311
0.00964434
0.0105776
0.0115538
0.0125737
0.0136377
0.0147465
0.0159004
0.0170994
0.0183435
0.0196326
0.0209662
0.0223435
0.0237636
0.0252254
0.0267272
0.0282673
0.0298436
0.0314537
0.0330949
0.034764
0.0364578
0.0381724
0.0399039
0.0416479
0.0433998
0.0451548
0.0469077
0.0486531
0.0503855
0.0520992
0.0537885
0.0554475
0.0570703
0.0586513
0.0601846
0.0616647
0.0630865
0.0644449
0.0657351
0.0669531
0.068095
0.0691576
0.0701381
0.0710345
0.0718454
0.0725699
0.0732081
0.0737604
0.0742281
0.0746133
0.0749185
0.0751469
0.0753024
0.0753892
0.0754121
0.0753763
0.0752871
0.0751503
0.0749716
0.074757
0.0745123
0.0742433
0.0739555
0.0736543
0.0733446
0.0730312
0.0727182
0.0724095
0.0721082
0.0718169
0.0715392
0.0712777
0.0710168
0.0707391
0.00073977
0.000691538
0.000644336
0.000595488
0.000542535
0.000486021
0.000426464
0.00036416
0.000299393
0.000232451
0.000163606
9.31077e-05
2.11838e-05
-5.1956e-05
-0.000126121
-0.000201139
-0.000276863
-0.000353167
-0.000429941