/*--------------------------------*- C++ -*----------------------------------*\
  =========                 |
  \\      /  F ield         | OpenFOAM: The Open Source CFD Toolbox
   \\    /   O peration     | Website:  https://openfoam.org
    \\  /    A nd           | Version:  7
     \\/     M anipulation  |
\*---------------------------------------------------------------------------*/
FoamFile
{
    version     2.0;
    format      ascii;
    class       volScalarField;
    location    "20";
    object      p;
}
// * * * * * * * * * * * * * * * * * * * * * * * * * * * * * * * * * * * * * //

dimensions      [0 2 -2 0 0 0 0];

internalField   nonuniform List<scalar> 
607
(
0.00104003
0.000704887
0.000422156
4.17052e-05
-0.000441092
-0.000951628
0.00306596
0.001841
0.00214104
0.00269552
0.00260032
0.00189179
0.00108185
0.00052066
0.000208167
-3.89259e-05
-0.000362136
-0.000778726
-0.00122961
0.00638135
0.00481138
0.00238526
0.00126868
0.00152948
0.00203937
0.00198136
0.00136421
0.000635033
0.000117714
-0.000171608
-0.000389402
-0.000666062
-0.00102574
-0.00142166
0.0054258
0.00400652
0.00182933
0.00081676
0.00103892
0.00150143
0.00147116
0.000936568
0.000285225
-0.000187358
-0.000454022
-0.000647327
-0.000885537
-0.00119652
-0.00154335
0.00459568
0.003322
0.00138166
0.000467872
0.00065229
0.00106623
0.00105642
0.000596146
1.83971e-05
-0.000410301
-0.00065535
-0.000827911
-0.0010339
-0.00130294
-0.00160623
0.00387378
0.00274077
0.00102619
0.000206531
0.000354552
0.000719654
0.000724443
0.000330882
-0.000178009
-0.000564519
-0.000789245
-0.000944165
-0.00112299
-0.00135579
-0.00162059
0.00324914
0.00225206
0.000751404
2.00098e-05
0.000132506
0.000449132
0.000463949
0.000130221
-0.000314727
-0.000661159
-0.000866815
-0.00100657
-0.00116239
-0.00136388
-0.00159474
0.00269146
0.00183089
0.000542612
-0.000101667
-2.39049e-05
0.000243989
0.000264981
-1.47118e-05
-0.000400286
-0.000709027
-0.000897006
-0.00102363
-0.00115973
-0.00133397
-0.00153495
0.00219974
0.00147836
0.000398953
-0.000163775
-0.000122934
9.57324e-05
0.000120541
-0.000109134
-0.000438724
-0.000711892
-0.000884027
-0.00100013
-0.00112004
-0.00127089
-0.00144569
0.0016946
0.00114286
0.000313887
-0.000156452
-0.000158707
4.66113e-06
2.85433e-05
-0.000156773
-0.000435177
-0.000674942
-0.000831944
-0.000939239
-0.00104659
-0.00117873
-0.00133171
0.00118229
0.000846567
0.000320302
-6.23057e-05
-0.000136995
-4.14204e-05
-1.23598e-05
-0.00014867
-0.000381579
-0.000597996
-0.000746617
-0.000847633
-0.000944173
-0.001061
-0.00119692
0.000480371
0.00045518
0.000413195
0.000188475
-7.10006e-06
-5.16075e-05
-4.3737e-05
-0.000117909
-0.000289779
-0.000483892
-0.000635788
-0.000740636
-0.000830545
-0.000933161
-0.00105367
-8.72231e-05
0.000114199
0.000497749
0.00047676
0.00020162
-7.54752e-06
-7.04054e-05
-0.000103059
-0.000202664
-0.00035892
-0.000512161
-0.00062946
-0.000721182
-0.000812738
-0.000917503
-0.000410736
-0.000102856
0.000525853
0.000674526
0.00039053
6.96154e-05
-7.5906e-05
-0.000103618
-0.000146597
-0.00025546
-0.000396193
-0.000522394
-0.000621065
-0.000707177
-0.000797923
-0.000491543
-0.000179623
0.000517188
0.000759233
0.000508259
0.000145335
-5.85132e-05
-0.000102257
-0.000114811
-0.000182184
-0.000300426
-0.000425702
-0.000529896
-0.000614774
-0.000695347
-0.000365333
-0.00015178
0.000452501
0.00072692
0.000550287
0.000208119
-2.811e-05
-0.000102189
-0.000108982
-0.000145226
-0.000234804
-0.000348137
-0.00045212
-0.000536748
-0.000610562
8.30085e-05
5.67982e-05
0.000321969
0.000523783
0.000470671
0.000242147
2.29227e-05
-8.86226e-05
-0.000119054
-0.000142184
-0.000200756
-0.000289559
-0.000383151
-0.000464758
-0.000534051
0.000752424
0.000446452
0.000222507
0.000232778
0.000291633
0.000241153
0.000100975
-3.12808e-05
-0.000105199
-0.000140351
-0.000177852
-0.000237125
-0.000311257
-0.000385305
-0.000451464
0.00141169
0.00087701
0.000202641
-1.7795e-05
9.96035e-05
0.00021884
0.000188618
6.41942e-05
-5.11121e-05
-0.000115495
-0.000149032
-0.000184901
-0.000236799
-0.000299036
-0.000361178
0.00194927
0.00125064
0.000235633
-0.000180895
-4.37791e-05
0.000199624
0.000270105
0.000170565
2.9082e-05
-6.53853e-05
-0.000106211
-0.00012867
-0.000161534
-0.000210371
-0.000266584
0.00239171
0.00157172
0.000298626
-0.000275132
-0.000137353
0.000191627
0.000341948
0.000272148
0.000118518
9.42252e-07
-5.0681e-05
-6.74604e-05
-8.66162e-05
-0.000123132
-0.000172273
0.00274304
0.00183709
0.000376489
-0.000317412
-0.000188768
0.000196195
0.000405759
0.000364117
0.000207578
7.48431e-05
1.32725e-05
-2.13826e-06
-1.23434e-05
-3.88885e-05
-8.1016e-05
0.00303387
0.00206296
0.000458448
-0.00033079
-0.000215483
0.000207264
0.000461701
0.000445252
0.00029085
0.000148746
7.9131e-05
6.31577e-05
5.87359e-05
4.00035e-05
4.30796e-06
0.00329294
0.00227116
0.000548075
-0.000323956
-0.000227431
0.000219864
0.000509306
0.00051605
0.00036726
0.000219944
0.000143936
0.000126347
0.000125538
0.000112905
8.29753e-05
0.00347398
0.002419
0.000619103
-0.000308873
-0.000228554
0.000232776
0.00054671
0.000572405
0.000430606
0.000281357
0.000201075
0.000181934
0.000183556
0.000175808
0.000151093
0.00373103
0.0026286
0.000709364
-0.000305439
-0.00025298
0.000222548
0.000565039
0.000613579
0.000481377
0.000331641
0.000247764
0.000227296
0.000231385
0.00022858
0.00371558
0.00261729
0.000711895
-0.000300094
0.0102122
0.0102707
0.0101882
0.00993916
0.00952454
0.00888765
0.00808675
0.00720062
0.00653857
0.00974657
0.0097326
0.00957528
0.00925264
0.00877638
0.00809209
0.00725808
0.00635415
0.00565806
0.00928968
0.00921182
0.00899063
0.00860796
0.0080847
0.00736827
0.00651509
0.0056058
0.00488703
0.00884405
0.00871021
0.00843627
0.00800663
0.00744876
0.00671337
0.00585313
0.00494716
0.00421316
0.00841177
0.00822971
0.00791358
0.00744886
0.00686765
0.00612499
0.00526731
0.00436961
0.00362314
0.0079946
0.00777175
0.00742292
0.00693438
0.00634053
0.00560055
0.00475321
0.00386588
0.0031041
0.00759389
0.00733716
0.00696418
0.00646229
0.00586585
0.00513785
0.00430728
0.00342862
0.00263913
0.00721047
0.00692623
0.00653666
0.00603058
0.00544131
0.00473464
0.00392813
0.00305508
0.00220947
0.00684476
0.0065388
0.00613894
0.00563617
0.00506282
0.00438736
0.00361329
0.00274137
0.00178775
0.00649689
0.00617421
0.00576909
0.00527483
0.0047239
0.00408674
0.00335724
0.00249574
0.00137311
0.00616675
0.00583159
0.00542479
0.00494186
0.00441599
0.00381761
0.00313142
0.00227477
0.00101318
0.00585408
0.00550989
0.00510362
0.00463261
0.0041305
0.00356636
0.00292257
0.00208577
0.000783416
0.00555861
0.00520812
0.00480352
0.00434361
0.00386147
0.00332675
0.00272868
0.0019469
0.000705482
0.00528006
0.00492546
0.00452313
0.00407325
0.00360701
0.00309744
0.00254777
0.00185686
0.000776527
0.0050182
0.00466137
0.00426192
0.00382167
0.00336863
0.00288187
0.00237735
0.00179273
0.000994994
0.00477295
0.00441555
0.00402007
0.00358995
0.00314993
0.00268717
0.00222921
0.00176265
0.00129265
0.00454424
0.0041879
0.00379799
0.00337955
0.0029549
0.0025211
0.00211583
0.00177045
0.0015973
0.00433207
0.00397838
0.00359611
0.00319137
0.00278561
0.00238553
0.00203658
0.00180286
0.00186442
0.00413636
0.00378691
0.00341432
0.00302521
0.00264108
0.00227669
0.00198213
0.00184352
0.00209087
0.00395698
0.00361316
0.00325206
0.00287962
0.00251839
0.00218928
0.00194509
0.00188747
0.00227979
0.00379364
0.00345669
0.00310825
0.00275267
0.00241419
0.00211789
0.0019186
0.00192829
0.00243906
0.00364611
0.00331695
0.00298168
0.00264239
0.00232503
0.00205854
0.00189733
0.00196416
0.00257392
0.00351416
0.00319353
0.00287155
0.00254652
0.00224908
0.00200706
0.00187793
0.00199341
0.00268549
0.00339769
0.00308682
0.00277708
0.00246472
0.00218317
0.0019639
0.00185644
0.00200237
0.00277864
0.00329733
0.00299627
0.0027006
0.00239572
0.00212574
0.00192246
0.00184548
0.0020363
0.0028275
)
;

boundaryField
{
    inlet
    {
        type            zeroGradient;
    }
    outlet
    {
        type            fixedValue;
        value           nonuniform 0();
    }
    cylinder
    {
        type            zeroGradient;
    }
    top
    {
        type            symmetryPlane;
    }
    bottom
    {
        type            symmetryPlane;
    }
    defaultFaces
    {
        type            empty;
    }
    procBoundary41to33
    {
        type            processor;
        value           nonuniform List<scalar> 
26
(
0.00169556
0.00133857
0.00100939
0.000555794
-3.96334e-06
-0.000576907
0.00389038
0.00255466
0.00289344
0.0034863
0.00334109
0.0025321
0.00164113
0.00164113
0.00747754
0.0057523
0.0057523
0.0106838
0.0108235
0.0108274
0.0106656
0.0103285
0.00975744
0.00900626
0.00815343
0.00754075
)
;
    }
    procBoundary41to40
    {
        type            processor;
        value           nonuniform List<scalar> 
22
(
0.0100494
0.00965505
0.00926364
0.00887741
0.0084981
0.00812714
0.00776584
0.00741536
0.00707675
0.00675087
0.00643837
0.00613972
0.00585523
0.00558509
0.0053294
0.00508823
0.00486164
0.00464967
0.00445239
0.00426979
0.00410192
0.00394872
)
;
    }
    procBoundary41to42
    {
        type            processor;
        value           nonuniform List<scalar> 
24
(
-0.00142857
-0.00165795
-0.00180306
-0.00188144
-0.00190501
-0.00188404
-0.00182662
-0.00173886
-0.00162499
-0.00148995
-0.00133877
-0.00118222
-0.00103242
-0.000898105
-0.000781602
-0.000684742
-0.000598918
-0.000511116
-0.000418185
-0.000321199
-0.000223704
-0.000128619
-3.91689e-05
4.36997e-05
)
;
    }
    procBoundary41to48
    {
        type            processor;
        value           nonuniform List<scalar> 3(0.00381023 0.00368636 0.00357687);
    }
    procBoundary41to49
    {
        type            processor;
        value           nonuniform List<scalar> 
24
(
-0.000255268
0.000217032
0.000566704
0.000627626
0.000504555
0.000357687
0.000273025
0.000252463
0.000259574
0.000262538
0.00417063
0.00298361
0.00085433
-0.000255268
-0.000316014
0.00321211
0.00292436
0.00264161
0.00234547
0.00208184
0.00186303
0.00176589
0.00196833
0.00292788
)
;
    }
    procBoundary41to50
    {
        type            processor;
        value           nonuniform List<scalar> 3(0.000116133 0.0002093 0.0002093);
    }
}


// ************************************************************************* //
