/*--------------------------------*- C++ -*----------------------------------*\
  =========                 |
  \\      /  F ield         | OpenFOAM: The Open Source CFD Toolbox
   \\    /   O peration     | Website:  https://openfoam.org
    \\  /    A nd           | Version:  7
     \\/     M anipulation  |
\*---------------------------------------------------------------------------*/
FoamFile
{
    version     2.0;
    format      ascii;
    class       volVectorField;
    location    "0.5";
    object      U;
}
// * * * * * * * * * * * * * * * * * * * * * * * * * * * * * * * * * * * * * //

dimensions      [0 1 -1 0 0 0 0];

internalField   nonuniform List<vector> 
2418
(
(1.4 -9.38522e-16 0)
(1.4 -8.83488e-16 0)
(1.4 -8.77348e-16 0)
(1.4 -8.0583e-16 0)
(1.4 -5.71778e-16 0)
(1.4 -3.96367e-16 0)
(1.4 -2.19652e-16 0)
(1.4 -5.09018e-17 0)
(1.4 1.0613e-16 0)
(1.4 1.32362e-16 0)
(1.4 1.70055e-16 0)
(1.4 2.28452e-16 0)
(1.4 2.94401e-16 0)
(1.4 4.27157e-16 0)
(1.4 6.33799e-16 0)
(1.4 6.71851e-16 0)
(1.4 8.12945e-16 0)
(1.4 1.08299e-15 0)
(1.4 1.05519e-15 0)
(1.4 1.33914e-15 0)
(1.4 1.42884e-15 0)
(1.4 1.32316e-15 0)
(1.4 1.19392e-15 0)
(1.4 9.93959e-16 0)
(1.4 8.80163e-16 0)
(1.4 5.66388e-16 0)
(1.4 3.31972e-16 0)
(1.4 3.25286e-16 0)
(1.4 3.78169e-16 0)
(1.4 6.88843e-16 0)
(1.4 1.16164e-15 0)
(1.4 1.47932e-15 0)
(1.4 1.9577e-15 0)
(1.4 1.96266e-15 0)
(1.4 1.82307e-15 0)
(1.4 1.66567e-15 0)
(1.4 1.46804e-15 0)
(1.4 1.43434e-15 0)
(1.4 1.42225e-15 0)
(1.4 1.55889e-15 0)
(1.4 1.54177e-15 0)
(1.4 1.75688e-15 0)
(1.4 1.88455e-15 0)
(1.4 2.08343e-15 0)
(1.4 1.88552e-15 0)
(1.4 1.52128e-15 0)
(1.4 -2.02394e-15 0)
(1.4 -2.13963e-15 0)
(1.4 -2.41357e-15 0)
(1.4 -2.54778e-15 0)
(1.4 -2.49674e-15 0)
(1.4 -2.38288e-15 0)
(1.4 -2.24522e-15 0)
(1.4 -1.95663e-15 0)
(1.4 -1.97022e-15 0)
(1.4 -2.13595e-15 0)
(1.4 -2.3933e-15 0)
(1.4 -2.65635e-15 0)
(1.4 -3.11954e-15 0)
(1.4 -3.44124e-15 0)
(1.4 -3.35811e-15 0)
(1.4 -3.26792e-15 0)
(1.4 -3.24724e-15 0)
(1.4 -3.30168e-15 0)
(1.4 -3.19429e-15 0)
(1.4 -2.90536e-15 0)
(1.4 -2.72221e-15 0)
(1.4 -2.48755e-15 0)
(1.4 -2.14915e-15 0)
(1.4 -2.07315e-15 0)
(1.4 -1.61211e-15 0)
(1.4 -1.32784e-15 0)
(1.4 -6.9264e-16 0)
(1.4 -5.0021e-16 0)
(1.4 -3.82865e-16 0)
(1.4 -1.92689e-16 0)
(1.4 6.35041e-17 0)
(1.4 3.25436e-16 0)
(1.4 5.7295e-16 0)
(1.4 3.61136e-16 0)
(1.4 5.30498e-17 0)
(1.4 -2.40588e-16 0)
(1.4 -3.87164e-16 0)
(1.4 -6.79682e-16 0)
(1.4 -8.51166e-16 0)
(1.4 -1.15665e-15 0)
(1.4 -1.29381e-15 0)
(1.4 -1.60665e-15 0)
(1.4 -2.13158e-15 0)
(1.4 -2.4718e-15 0)
(1.4 -2.57734e-15 0)
(1.4 -2.81552e-15 0)
(1.4 -2.81622e-15 0)
(1.4 -2.93855e-15 0)
(1.4 -3.00829e-15 0)
(1.4 -2.98971e-15 0)
(1.4 -3.06747e-15 0)
(1.4 -3.21954e-15 0)
(1.4 -3.36804e-15 0)
(1.4 -3.32285e-15 0)
(1.4 -3.31931e-15 0)
(1.4 -3.29442e-15 0)
(1.4 -3.44691e-15 0)
(1.4 -3.35525e-15 0)
(1.4 -3.06231e-15 0)
(1.4 -2.802e-15 0)
(1.4 -2.63666e-15 0)
(1.4 -1.9817e-15 0)
(1.4 -1.36065e-15 0)
(1.4 -1.16485e-15 0)
(1.4 -1.10297e-15 0)
(1.4 -1.07035e-15 0)
(1.4 -1.05534e-15 0)
(1.4 -1.13538e-15 0)
(1.4 -1.22281e-15 0)
(1.4 -1.20546e-15 0)
(1.4 -1.07105e-15 0)
(1.4 -1.05498e-15 0)
(1.4 -1.07809e-15 0)
(1.4 -1.09246e-15 0)
(1.4 -8.23908e-16 0)
(1.4 -9.31269e-16 0)
(1.4 -1.12442e-15 0)
(1.4 -1.19508e-15 0)
(1.4 -1.3606e-15 0)
(1.4 -1.76087e-15 0)
(1.4 -2.10347e-15 0)
(1.4 -2.37087e-15 0)
(1.4 -2.39834e-15 0)
(1.4 -2.38323e-15 0)
(1.4 -2.38229e-15 0)
(1.4 -2.40311e-15 0)
(1.4 -2.38672e-15 0)
(1.4 -2.31594e-15 0)
(1.4 -2.31313e-15 0)
(1.4 -2.21032e-15 0)
(1.4 -1.96757e-15 0)
(1.4 -1.43724e-15 0)
(1.4 -1.22844e-15 0)
(1.4 -6.71285e-16 0)
(1.4 -4.57083e-16 0)
(1.4 -3.92361e-16 0)
(1.4 -4.68181e-16 0)
(1.4 -6.05007e-16 0)
(1.4 -6.11583e-16 0)
(1.4 -6.6558e-16 0)
(1.4 -7.38036e-16 0)
(1.4 -8.11416e-16 0)
(1.4 -1.01093e-15 0)
(1.4 -7.4456e-16 0)
(1.4 -3.79565e-16 0)
(1.4 -2.25009e-18 0)
(1.4 2.86661e-16 0)
(1.4 2.62645e-16 0)
(1.4 2.6612e-16 0)
(1.4 3.32085e-16 0)
(1.4 3.54766e-16 0)
(1.4 1.89641e-16 0)
(1.4 2.67864e-16 0)
(1.4 3.2872e-16 0)
(1.4 5.18166e-16 0)
(1.4 8.52526e-16 0)
(1.4 1.11959e-15 0)
(1.4 1.30463e-15 0)
(1.4 1.44445e-15 0)
(1.4 1.50538e-15 0)
(1.4 1.50835e-15 0)
(1.4 1.26014e-15 0)
(1.4 1.34801e-15 0)
(1.4 1.49862e-15 0)
(1.4 1.71153e-15 0)
(1.4 1.91717e-15 0)
(1.4 2.28814e-15 0)
(1.4 2.48281e-15 0)
(1.4 2.50299e-15 0)
(1.4 2.41805e-15 0)
(1.4 2.34622e-15 0)
(1.4 2.09233e-15 0)
(1.4 -2.46374e-15 0)
(1.4 -2.12955e-15 0)
(1.4 -2.10921e-15 0)
(1.4 -2.21689e-15 0)
(1.4 -2.38641e-15 0)
(1.4 -2.63835e-15 0)
(1.4 -2.98868e-15 0)
(1.4 -3.24441e-15 0)
(1.4 -3.34271e-15 0)
(1.4 -3.39371e-15 0)
(1.4 -3.51725e-15 0)
(1.4 -3.68706e-15 0)
(1.4 -3.82278e-15 0)
(1.4 -3.87154e-15 0)
(1.4 -3.89349e-15 0)
(1.4 -3.53089e-15 0)
(1.4 -3.26115e-15 0)
(1.4 -3.04414e-15 0)
(1.4 -2.82941e-15 0)
(1.4 -2.75294e-15 0)
(1.4 -2.51259e-15 0)
(1.4 -2.25686e-15 0)
(1.4 -1.99919e-15 0)
(1.4 -1.53665e-15 0)
(1.4 -1.12191e-15 0)
(1.4 -6.16557e-16 0)
(1.4 -3.27557e-16 0)
(1.4 -1.29092e-16 0)
(1.4 4.01225e-16 0)
(1.4 4.5753e-16 0)
(1.4 5.1631e-16 0)
(1.4 4.81721e-16 0)
(1.4 3.25645e-16 0)
(1.4 1.42408e-16 0)
(1.4 -1.84528e-16 0)
(1.4 -3.40346e-16 0)
(1.4 -3.73711e-16 0)
(1.4 -4.37653e-16 0)
(1.4 -5.48471e-16 0)
(1.4 -5.73052e-16 0)
(1.4 -6.30521e-16 0)
(1.4 -8.29058e-16 0)
(1.4 -1.11974e-15 0)
(1.4 -1.37099e-15 0)
(1.4 -1.80766e-15 0)
(1.4 -2.11005e-15 0)
(1.4 -1.85764e-15 0)
(1.4 -1.61132e-15 0)
(1.4 -1.46157e-15 0)
(1.4 -1.4347e-15 0)
(1.4 -1.49368e-15 0)
(1.4 -1.63421e-15 0)
(1.4 -1.74645e-15 0)
(1.4 -1.83379e-15 0)
(1.4 -1.84772e-15 0)
(1.4 -1.78644e-15 0)
(1.4 -1.68005e-15 0)
(1.4 -1.69136e-15 0)
(1.4 -1.66126e-15 0)
(1.4 -1.48811e-15 0)
(1.4 -1.08497e-15 0)
(1.4 -7.92948e-16 0)
(1.4 -7.66592e-16 0)
(1.4 -9.63406e-16 0)
(1.4 -1.52835e-15 0)
(1.4 -1.9316e-15 0)
(1.4 -1.97925e-15 0)
(1.4 -1.93969e-15 0)
(1.4 -2.35836e-15 0)
(1.4 -2.51315e-15 0)
(1.4 -2.68037e-15 0)
(1.4 -2.67332e-15 0)
(1.4 -2.646e-15 0)
(1.4 -2.70943e-15 0)
(1.4 -2.68201e-15 0)
(1.4 -2.56415e-15 0)
(1.4 -2.46666e-15 0)
(1.4 -2.41032e-15 0)
(1.4 -2.54434e-15 0)
(1.4 -2.54081e-15 0)
(1.4 -2.8478e-15 0)
(1.4 -2.92832e-15 0)
(1.4 -3.33791e-15 0)
(1.4 -3.74481e-15 0)
(1.4 -3.79492e-15 0)
(1.4 -3.78024e-15 0)
(1.4 -3.72809e-15 0)
(1.4 -3.81195e-15 0)
(1.4 -3.4481e-15 0)
(1.4 -3.1794e-15 0)
(1.4 -3.09384e-15 0)
(1.4 -3.09306e-15 0)
(1.4 -3.05617e-15 0)
(1.4 -2.97227e-15 0)
(1.4 -2.70024e-15 0)
(1.4 -2.43659e-15 0)
(1.4 -2.15587e-15 0)
(1.4 -1.94336e-15 0)
(1.4 -1.80838e-15 0)
(1.4 -1.79601e-15 0)
(1.4 -1.75666e-15 0)
(1.4 -1.68057e-15 0)
(1.4 -1.54311e-15 0)
(1.4 -1.38697e-15 0)
(1.4 -1.13929e-15 0)
(1.4 -1.12854e-15 0)
(1.4 -9.40506e-16 0)
(1.4 -6.6807e-16 0)
(1.4 -4.69258e-16 0)
(1.4 -4.34771e-16 0)
(1.4 -3.01304e-16 0)
(1.4 -2.53947e-16 0)
(1.4 -3.62029e-16 0)
(1.4 -2.78548e-16 0)
(1.4 -2.07734e-16 0)
(1.4 -2.43311e-16 0)
(1.4 -2.87284e-16 0)
(1.4 -2.59908e-16 0)
(1.4 -3.84323e-16 0)
(1.4 -2.07312e-16 0)
(1.4 -5.22612e-19 0)
(1.4 8.73371e-16 0)
(1.4 1.20948e-15 0)
(1.4 1.5206e-15 0)
(1.4 1.79562e-15 0)
(1.4 1.9177e-15 0)
(1.4 2.18622e-15 0)
(1.4 2.54605e-15 0)
(1.4 2.70617e-15 0)
(1.4 2.90025e-15 0)
(1.4 3.10082e-15 0)
(1.4 2.9248e-15 0)
(1.4 -3.91913e-16 0)
(1.4 -1.33897e-16 0)
(1.4 -1.00258e-16 0)
(1.4 -2.91946e-16 0)
(1.4 -6.75329e-16 0)
(1.4 -1.31485e-15 0)
(1.4 -2.25685e-15 0)
(1.4 -2.94276e-15 0)
(1.4 -3.2236e-15 0)
(1.4 -3.13494e-15 0)
(1.4 -2.9466e-15 0)
(1.4 -2.76363e-15 0)
(1.4 -2.57274e-15 0)
(1.4 -2.3512e-15 0)
(1.4 -2.22813e-15 0)
(1.4 -2.15175e-15 0)
(1.4 -2.0209e-15 0)
(1.4 -1.73397e-15 0)
(1.4 -1.54861e-15 0)
(1.4 -1.27169e-15 0)
(1.4 -9.96574e-16 0)
(1.4 -6.7967e-16 0)
(1.4 -4.35825e-16 0)
(1.4 -2.28047e-16 0)
(1.4 9.51089e-17 0)
(1.4 2.48807e-16 0)
(1.4 4.71157e-16 0)
(1.4 6.01381e-16 0)
(1.4 5.92156e-16 0)
(1.4 6.0435e-16 0)
(1.4 7.25665e-16 0)
(1.4 7.607e-16 0)
(1.4 5.59167e-16 0)
(1.4 4.93232e-17 0)
(1.4 -1.63145e-16 0)
(1.4 3.44674e-18 0)
(1.4 2.21785e-16 0)
(1.4 3.44454e-16 0)
(1.4 3.72931e-16 0)
(1.4 5.2913e-16 0)
(1.4 5.40949e-16 0)
(1.4 5.2421e-16 0)
(1.4 4.54414e-16 0)
(1.4 5.12573e-16 0)
(1.4 5.15122e-16 0)
(1.4 4.8982e-16 0)
(1.4 4.83513e-16 0)
(1.4 1.02742e-15 0)
(1.4 1.01699e-15 0)
(1.4 1.0201e-15 0)
(1.4 1.04809e-15 0)
(1.4 1.28236e-15 0)
(1.4 1.41973e-15 0)
(1.4 1.26175e-15 0)
(1.4 1.2121e-15 0)
(1.4 1.15498e-15 0)
(1.4 1.16968e-15 0)
(1.4 1.26302e-15 0)
(1.4 9.435e-16 0)
(1.4 4.83406e-16 0)
(1.4 4.25712e-16 0)
(1.4 -1.95119e-16 0)
(1.4 -1.31711e-15 0)
(1.4 -1.64419e-15 0)
(1.4 -1.9553e-15 0)
(1.4 -2.39239e-15 0)
(1.4 -2.88362e-15 0)
(1.4 -3.34666e-15 0)
(1.4 -3.40925e-15 0)
(1.4 -3.11051e-15 0)
(1.4 -3.18033e-15 0)
(1.4 -2.99823e-15 0)
(1.4 -2.7375e-15 0)
(1.4 -2.5404e-15 0)
(1.4 -2.33347e-15 0)
(1.4 -2.09233e-15 0)
(1.4 -1.9953e-15 0)
(1.4 -1.86758e-15 0)
(1.4 -1.71476e-15 0)
(1.4 -1.67498e-15 0)
(1.4 -1.67567e-15 0)
(1.4 -1.79556e-15 0)
(1.4 -1.96133e-15 0)
(1.4 -2.08313e-15 0)
(1.4 -2.29997e-15 0)
(1.4 -2.39802e-15 0)
(1.4 -2.32738e-15 0)
(1.4 -2.24998e-15 0)
(1.4 -1.83859e-15 0)
(1.4 -1.79312e-15 0)
(1.4 -1.89212e-15 0)
(1.4 -1.88971e-15 0)
(1.4 -1.85208e-15 0)
(1.4 -1.85848e-15 0)
(1.4 -1.91529e-15 0)
(1.4 -1.97345e-15 0)
(1.4 -1.94583e-15 0)
(1.4 -1.6516e-15 0)
(1.4 -1.57215e-15 0)
(1.4 -1.49031e-15 0)
(1.4 -1.32618e-15 0)
(1.4 -1.18233e-15 0)
(1.4 -1.12125e-15 0)
(1.4 -1.03972e-15 0)
(1.4 -1.03755e-15 0)
(1.4 -1.01079e-15 0)
(1.4 -1.04664e-15 0)
(1.4 -1.2445e-15 0)
(1.4 -1.39369e-15 0)
(1.4 -1.56264e-15 0)
(1.4 -1.79059e-15 0)
(1.4 -2.1864e-15 0)
(1.4 -2.63698e-15 0)
(1.4 -2.99681e-15 0)
(1.4 -3.2066e-15 0)
(1.4 -3.27902e-15 0)
(1.4 -2.78778e-15 0)
(1.4 -2.51095e-15 0)
(1.4 -1.90773e-15 0)
(1.4 -1.40946e-15 0)
(1.4 -7.09828e-16 0)
(1.4 1.10636e-16 0)
(1.4 7.46976e-16 0)
(1.4 1.31158e-15 0)
(1.4 1.53703e-15 0)
(1.4 1.691e-15 0)
(1.4 1.81884e-15 0)
(1.4 2.01619e-15 0)
(1.4 2.21473e-15 0)
(1.4 2.50784e-15 0)
(1.4 2.72606e-15 0)
(1.4 2.85677e-15 0)
(1.4 7.76012e-16 0)
(1.4 5.46771e-16 0)
(1.4 4.08584e-16 0)
(1.4 5.78871e-18 0)
(1.4 -6.8798e-16 0)
(1.4 -8.52242e-16 0)
(1.4 -1.01476e-15 0)
(1.4 -1.28227e-15 0)
(1.4 -1.16224e-15 0)
(1.4 -1.13534e-15 0)
(1.4 -9.13365e-16 0)
(1.4 -7.02775e-16 0)
(1.4 -7.3579e-16 0)
(1.4 -6.52994e-16 0)
(1.4 -5.76753e-16 0)
(1.4 -6.63807e-16 0)
(1.4 -4.3142e-16 0)
(1.4 -4.03245e-17 0)
(1.4 2.89898e-17 0)
(1.4 8.23258e-17 0)
(1.4 1.72451e-16 0)
(1.4 3.88058e-16 0)
(1.4 5.41773e-16 0)
(1.4 7.60292e-16 0)
(1.4 7.33504e-16 0)
(1.4 4.943e-16 0)
(1.4 3.26422e-16 0)
(1.4 2.45981e-16 0)
(1.4 -3.13614e-17 0)
(1.4 -7.82438e-17 0)
(1.4 1.17811e-16 0)
(1.4 3.54973e-16 0)
(1.4 3.80267e-16 0)
(1.4 4.06644e-16 0)
(1.4 6.02708e-16 0)
(1.4 6.69148e-16 0)
(1.4 8.49756e-16 0)
(1.4 1.17305e-15 0)
(1.4 1.35411e-15 0)
(1.4 1.89415e-15 0)
(1.4 2.07828e-15 0)
(1.4 2.10618e-15 0)
(1.4 2.04094e-15 0)
(1.4 1.93604e-15 0)
(1.4 1.90321e-15 0)
(1.4 2.01199e-15 0)
(1.4 1.78274e-15 0)
(1.4 2.25369e-15 0)
(1.4 2.47576e-15 0)
(1.4 2.92934e-15 0)
(1.4 3.13562e-15 0)
(1.4 3.23836e-15 0)
(1.4 3.09428e-15 0)
(1.4 2.98395e-15 0)
(1.4 2.90666e-15 0)
(1.4 2.54295e-15 0)
(1.4 2.51674e-15 0)
(1.4 2.42166e-15 0)
(1.4 2.04808e-15 0)
(1.4 1.47826e-15 0)
(1.4 9.35231e-16 0)
(1.4 -4.60514e-16 0)
(1.4 -1.07025e-15 0)
(1.4 -1.60159e-15 0)
(1.4 -2.18797e-15 0)
(1.4 -2.67461e-15 0)
(1.4 -2.87722e-15 0)
(1.4 -2.85332e-15 0)
(1.4 -2.72829e-15 0)
(1.4 -2.62565e-15 0)
(1.4 -2.53008e-15 0)
(1.4 -2.60768e-15 0)
(1.4 -2.61958e-15 0)
(1.4 -2.24998e-15 0)
(1.4 -2.01047e-15 0)
(1.4 -1.65923e-15 0)
(1.4 -1.36047e-15 0)
(1.4 -1.04251e-15 0)
(1.4 -8.8456e-16 0)
(1.4 -8.91814e-16 0)
(1.4 -8.31597e-16 0)
(1.4 -7.01434e-16 0)
(1.4 -4.68685e-16 0)
(1.4 -5.91806e-16 0)
(1.4 -6.32505e-16 0)
(1.4 -7.05978e-16 0)
(1.4 -7.98117e-16 0)
(1.4 -7.87948e-16 0)
(1.4 -8.00067e-16 0)
(1.4 -2.82989e-16 0)
(1.4 5.06883e-17 0)
(1.4 5.4836e-16 0)
(1.4 7.7435e-16 0)
(1.4 7.52433e-16 0)
(1.4 7.0884e-16 0)
(1.4 8.23062e-16 0)
(1.4 9.44383e-16 0)
(1.4 1.01667e-15 0)
(1.4 1.02267e-15 0)
(1.4 9.11578e-16 0)
(1.4 6.59598e-16 0)
(1.4 3.79823e-16 0)
(1.4 2.75113e-16 0)
(1.4 -7.51571e-17 0)
(1.4 -3.67228e-16 0)
(1.4 -5.65385e-16 0)
(1.4 -8.0861e-16 0)
(1.4 -1.03119e-15 0)
(1.4 -1.18412e-15 0)
(1.4 -1.2364e-15 0)
(1.4 -1.58259e-15 0)
(1.4 -1.73958e-15 0)
(1.4 -2.02485e-15 0)
(1.4 -2.1122e-15 0)
(1.4 -2.48879e-15 0)
(1.4 -2.86466e-15 0)
(1.4 -3.04981e-15 0)
(1.4 -3.22159e-15 0)
(1.4 -3.15677e-15 0)
(1.4 -2.86875e-15 0)
(1.4 -2.55013e-15 0)
(1.4 -1.85264e-15 0)
(1.4 -1.61377e-15 0)
(1.4 -1.03172e-15 0)
(1.4 -5.66349e-16 0)
(1.4 -1.89091e-16 0)
(1.4 -4.76032e-17 0)
(1.4 4.87726e-16 0)
(1.4 7.11116e-16 0)
(1.4 8.48562e-16 0)
(1.4 1.29142e-15 0)
(1.4 1.91014e-15 0)
(1.4 -1.69185e-16 0)
(1.4 -4.34909e-16 0)
(1.4 -7.00059e-16 0)
(1.4 -8.73478e-16 0)
(1.4 -8.68646e-16 0)
(1.4 -6.15712e-16 0)
(1.4 -3.15418e-16 0)
(1.4 1.23023e-16 0)
(1.4 6.33115e-16 0)
(1.4 7.32493e-16 0)
(1.4 8.30568e-16 0)
(1.4 8.87928e-16 0)
(1.4 1.01175e-15 0)
(1.4 1.16434e-15 0)
(1.4 1.47466e-15 0)
(1.4 1.64389e-15 0)
(1.4 2.15135e-15 0)
(1.4 2.46432e-15 0)
(1.4 2.51846e-15 0)
(1.4 2.3269e-15 0)
(1.4 1.97484e-15 0)
(1.4 1.54422e-15 0)
(1.4 1.20083e-15 0)
(1.4 1.02031e-15 0)
(1.4 9.97898e-16 0)
(1.4 7.78045e-16 0)
(1.4 4.1971e-16 0)
(1.4 3.89108e-16 0)
(1.4 4.03312e-16 0)
(1.4 5.59104e-16 0)
(1.4 6.6182e-16 0)
(1.4 6.86515e-16 0)
(1.4 7.5184e-16 0)
(1.4 8.67411e-16 0)
(1.4 1.13357e-15 0)
(1.4 1.45406e-15 0)
(1.4 1.66517e-15 0)
(1.4 2.02573e-15 0)
(1.4 2.2256e-15 0)
(1.4 2.72131e-15 0)
(1.4 3.17979e-15 0)
(1.4 3.56431e-15 0)
(1.4 3.91619e-15 0)
(1.4 3.91986e-15 0)
(1.4 3.66679e-15 0)
(1.4 3.42972e-15 0)
(1.4 3.27083e-15 0)
(1.4 3.06923e-15 0)
(1.4 2.95242e-15 0)
(1.4 3.17471e-15 0)
(1.4 3.5906e-15 0)
(1.4 3.74073e-15 0)
(1.4 3.58333e-15 0)
(1.4 3.15249e-15 0)
(1.4 2.61828e-15 0)
(1.4 2.27259e-15 0)
(1.4 1.713e-15 0)
(1.4 9.92655e-16 0)
(1.4 2.93556e-16 0)
(1.4 -2.43506e-16 0)
(1.4 -4.85797e-16 0)
(1.4 -8.30985e-16 0)
(1.4 -1.08412e-15 0)
(1.4 -1.3268e-15 0)
(1.4 -1.36623e-15 0)
(1.4 -1.32855e-15 0)
(1.4 -1.33147e-15 0)
(1.4 -1.22011e-15 0)
(1.4 -1.32099e-15 0)
(1.4 -1.73409e-15 0)
(1.4 -1.95168e-15 0)
(1.4 -2.22054e-15 0)
(1.4 -2.34582e-15 0)
(1.4 -2.75642e-15 0)
(1.4 -2.72997e-15 0)
(1.4 -2.57134e-15 0)
(1.4 -2.39764e-15 0)
(1.4 -2.23984e-15 0)
(1.4 -1.91091e-15 0)
(1.4 -1.65339e-15 0)
(1.4 -1.43409e-15 0)
(1.4 -1.44767e-15 0)
(1.4 -1.4092e-15 0)
(1.4 -1.51984e-15 0)
(1.4 -1.3688e-15 0)
(1.4 -1.05165e-15 0)
(1.4 -7.86547e-16 0)
(1.4 -7.02729e-16 0)
(1.4 -6.50387e-16 0)
(1.4 -2.69034e-16 0)
(1.4 2.41e-16 0)
(1.4 1.01055e-15 0)
(1.4 1.84075e-15 0)
(1.4 2.61142e-15 0)
(1.4 2.94429e-15 0)
(1.4 2.9346e-15 0)
(1.4 2.88301e-15 0)
(1.4 2.75771e-15 0)
(1.4 2.57574e-15 0)
(1.4 2.34988e-15 0)
(1.4 1.99502e-15 0)
(1.4 1.66479e-15 0)
(1.4 1.08372e-15 0)
(1.4 7.62451e-16 0)
(1.4 5.57137e-17 0)
(1.4 -1.89365e-16 0)
(1.4 -4.60332e-16 0)
(1.4 -5.04144e-16 0)
(1.4 -3.56096e-16 0)
(1.4 -3.66573e-16 0)
(1.4 -3.5945e-16 0)
(1.4 -1.30995e-16 0)
(1.4 -6.9443e-17 0)
(1.4 -9.35762e-17 0)
(1.4 -3.95032e-16 0)
(1.4 -6.99754e-16 0)
(1.4 -1.13808e-15 0)
(1.4 -1.90754e-15 0)
(1.4 -2.11436e-15 0)
(1.4 -2.53031e-15 0)
(1.4 -2.611e-15 0)
(1.4 -2.67823e-15 0)
(1.4 -2.43565e-15 0)
(1.4 -2.23762e-15 0)
(1.4 -2.49595e-15 0)
(1.4 -2.47032e-15 0)
(1.4 -1.87723e-15 0)
(1.4 -1.35309e-15 0)
(1.4 -1.1417e-15 0)
(1.4 -9.63817e-16 0)
(1.4 -3.90505e-16 0)
(1.4 1.57285e-16 0)
(1.4 -5.60336e-16 0)
(1.4 -8.23865e-16 0)
(1.4 -7.92219e-16 0)
(1.4 -4.88871e-16 0)
(1.4 -1.74502e-16 0)
(1.4 2.26903e-16 0)
(1.4 8.41431e-16 0)
(1.4 1.6923e-15 0)
(1.4 2.52191e-15 0)
(1.4 2.94611e-15 0)
(1.4 3.22596e-15 0)
(1.4 3.31198e-15 0)
(1.4 3.59542e-15 0)
(1.4 3.91372e-15 0)
(1.4 3.89207e-15 0)
(1.4 4.22055e-15 0)
(1.4 4.18962e-15 0)
(1.4 4.17204e-15 0)
(1.4 4.19589e-15 0)
(1.4 4.16783e-15 0)
(1.4 3.75251e-15 0)
(1.4 3.33225e-15 0)
(1.4 2.77722e-15 0)
(1.4 2.32332e-15 0)
(1.4 1.71993e-15 0)
(1.4 1.49268e-15 0)
(1.4 1.36328e-15 0)
(1.4 1.28708e-15 0)
(1.4 1.49285e-15 0)
(1.4 1.60904e-15 0)
(1.4 1.72709e-15 0)
(1.4 1.79567e-15 0)
(1.4 1.8456e-15 0)
(1.4 2.00624e-15 0)
(1.4 2.32115e-15 0)
(1.4 2.4726e-15 0)
(1.4 2.82046e-15 0)
(1.4 2.8496e-15 0)
(1.4 2.88428e-15 0)
(1.4 3.05639e-15 0)
(1.4 3.59588e-15 0)
(1.4 3.85116e-15 0)
(1.4 4.0822e-15 0)
(1.4 4.07763e-15 0)
(1.4 4.34361e-15 0)
(1.4 4.59506e-15 0)
(1.4 4.59274e-15 0)
(1.4 4.53794e-15 0)
(1.4 4.32859e-15 0)
(1.4 4.23464e-15 0)
(1.4 4.23489e-15 0)
(1.4 4.64791e-15 0)
(1.4 5.15724e-15 0)
(1.4 5.47502e-15 0)
(1.4 5.40009e-15 0)
(1.4 4.9853e-15 0)
(1.4 4.8899e-15 0)
(1.4 4.20699e-15 0)
(1.4 3.9859e-15 0)
(1.4 3.4676e-15 0)
(1.4 2.87748e-15 0)
(1.4 1.98665e-15 0)
(1.4 1.47638e-15 0)
(1.4 9.06519e-16 0)
(1.4 5.53865e-16 0)
(1.4 3.00204e-16 0)
(1.4 8.71163e-17 0)
(1.4 -1.69813e-16 0)
(1.4 -4.38184e-16 0)
(1.4 -6.47467e-16 0)
(1.4 -8.64312e-16 0)
(1.4 -1.11955e-15 0)
(1.4 -1.46099e-15 0)
(1.4 -1.77688e-15 0)
(1.4 -1.90379e-15 0)
(1.4 -2.08252e-15 0)
(1.4 -2.16215e-15 0)
(1.4 -2.09784e-15 0)
(1.4 -1.94542e-15 0)
(1.4 -1.87339e-15 0)
(1.4 -1.80935e-15 0)
(1.4 -1.65976e-15 0)
(1.4 -1.59602e-15 0)
(1.4 -1.43422e-15 0)
(1.4 -1.3727e-15 0)
(1.4 -1.28121e-15 0)
(1.4 -9.93745e-16 0)
(1.4 -5.30373e-16 0)
(1.4 -7.97671e-18 0)
(1.4 3.59423e-16 0)
(1.4 5.1857e-16 0)
(1.4 8.10301e-16 0)
(1.4 1.22802e-15 0)
(1.4 1.86386e-15 0)
(1.4 2.22939e-15 0)
(1.4 2.48294e-15 0)
(1.4 2.56924e-15 0)
(1.4 2.57034e-15 0)
(1.4 2.42891e-15 0)
(1.4 2.15189e-15 0)
(1.4 2.0513e-15 0)
(1.4 1.8044e-15 0)
(1.4 1.34357e-15 0)
(1.4 1.15946e-15 0)
(1.4 1.01546e-15 0)
(1.4 8.0391e-16 0)
(1.4 8.50185e-16 0)
(1.4 9.26183e-16 0)
(1.4 1.06772e-15 0)
(1.4 1.16796e-15 0)
(1.4 1.19272e-15 0)
(1.4 1.14522e-15 0)
(1.4 1.06741e-15 0)
(1.4 8.06947e-16 0)
(1.4 5.52876e-16 0)
(1.4 3.25159e-16 0)
(1.4 -6.02416e-17 0)
(1.4 -5.88377e-16 0)
(1.4 -1.57883e-15 0)
(1.4 -2.52048e-15 0)
(1.4 -2.8189e-15 0)
(1.4 -2.9335e-15 0)
(1.4 -3.24366e-15 0)
(1.4 -3.38841e-15 0)
(1.4 -3.44718e-15 0)
(1.4 -3.36858e-15 0)
(1.4 -3.20419e-15 0)
(1.4 -3.17999e-15 0)
(1.4 -3.14794e-15 0)
(1.4 -3.18817e-15 0)
(1.4 -3.06916e-15 0)
(1.4 -2.7605e-15 0)
(1.4 -1.0902e-15 0)
(1.4 -1.09179e-15 0)
(1.4 -1.01758e-15 0)
(1.4 -9.24882e-16 0)
(1.4 -8.32062e-16 0)
(1.4 -1.02419e-16 0)
(1.4 4.42886e-16 0)
(1.4 4.95486e-16 0)
(1.4 1.92818e-15 0)
(1.4 2.63475e-15 0)
(1.4 3.52701e-15 0)
(1.4 3.75e-15 0)
(1.4 3.90815e-15 0)
(1.4 4.16569e-15 0)
(1.4 4.21988e-15 0)
(1.4 4.22491e-15 0)
(1.4 3.80558e-15 0)
(1.4 3.74362e-15 0)
(1.4 3.63468e-15 0)
(1.4 3.39474e-15 0)
(1.4 3.22859e-15 0)
(1.4 3.11361e-15 0)
(1.4 2.86627e-15 0)
(1.4 2.5921e-15 0)
(1.4 2.22595e-15 0)
(1.4 1.92303e-15 0)
(1.4 1.81247e-15 0)
(1.4 1.68542e-15 0)
(1.4 1.62878e-15 0)
(1.4 1.66358e-15 0)
(1.4 1.83037e-15 0)
(1.4 2.08299e-15 0)
(1.4 2.30714e-15 0)
(1.4 2.64172e-15 0)
(1.4 2.80323e-15 0)
(1.4 2.91266e-15 0)
(1.4 2.95891e-15 0)
(1.4 2.98824e-15 0)
(1.4 3.05179e-15 0)
(1.4 3.16155e-15 0)
(1.4 3.29762e-15 0)
(1.4 3.37901e-15 0)
(1.4 3.28048e-15 0)
(1.4 3.13239e-15 0)
(1.4 2.99921e-15 0)
(1.4 3.10062e-15 0)
(1.4 3.20805e-15 0)
(1.4 3.44608e-15 0)
(1.4 3.74532e-15 0)
(1.4 4.17268e-15 0)
(1.4 4.40232e-15 0)
(1.4 4.70906e-15 0)
(1.4 4.60211e-15 0)
(1.4 4.71137e-15 0)
(1.4 5.20152e-15 0)
(1.4 5.24145e-15 0)
(1.4 5.21264e-15 0)
(1.4 5.3651e-15 0)
(1.4 5.35178e-15 0)
(1.4 4.94249e-15 0)
(1.4 4.43573e-15 0)
(1.4 3.89185e-15 0)
(1.4 3.53298e-15 0)
(1.4 3.54302e-15 0)
(1.4 3.17074e-15 0)
(1.4 3.01313e-15 0)
(1.4 2.92019e-15 0)
(1.4 2.49418e-15 0)
(1.4 1.78449e-15 0)
(1.4 1.32779e-15 0)
(1.4 9.23195e-16 0)
(1.4 6.07843e-16 0)
(1.4 7.03533e-17 0)
(1.4 -1.58397e-16 0)
(1.4 -4.54463e-16 0)
(1.4 -8.41319e-16 0)
(1.4 -8.82554e-16 0)
(1.4 -1.41084e-15 0)
(1.4 -1.62754e-15 0)
(1.4 -1.62617e-15 0)
(1.4 -1.54793e-15 0)
(1.4 -1.2483e-15 0)
(1.4 -6.91539e-16 0)
(1.4 -7.13753e-17 0)
(1.4 -3.86008e-17 0)
(1.4 -1.41333e-16 0)
(1.4 -7.57643e-17 0)
(1.4 -3.14718e-17 0)
(1.4 2.25986e-17 0)
(1.4 8.74647e-18 0)
(1.4 -7.14094e-17 0)
(1.4 -1.21655e-16 0)
(1.4 -7.43917e-17 0)
(1.4 9.06188e-17 0)
(1.4 1.26733e-16 0)
(1.4 2.72126e-16 0)
(1.4 2.36395e-16 0)
(1.4 7.00412e-17 0)
(1.4 -6.85732e-18 0)
(1.4 -6.49639e-18 0)
(1.4 -9.30147e-17 0)
(1.4 -1.92942e-16 0)
(1.4 7.35192e-18 0)
(1.4 3.17457e-16 0)
(1.4 3.24063e-16 0)
(1.4 1.17739e-16 0)
(1.4 1.37496e-16 0)
(1.4 1.24044e-16 0)
(1.4 2.5255e-16 0)
(1.4 6.52597e-16 0)
(1.4 8.6839e-16 0)
(1.4 8.93344e-16 0)
(1.4 6.29756e-16 0)
(1.4 4.32874e-16 0)
(1.4 2.16657e-16 0)
(1.4 -1.37692e-16 0)
(1.4 -2.25383e-16 0)
(1.4 -6.09595e-16 0)
(1.4 -8.66397e-16 0)
(1.4 -1.01421e-15 0)
(1.4 -8.13447e-16 0)
(1.4 -1.76423e-15 0)
(1.4 -2.73924e-15 0)
(1.4 -3.03128e-15 0)
(1.4 -3.0362e-15 0)
(1.4 -2.97474e-15 0)
(1.4 -3.00157e-15 0)
(1.4 -3.15949e-15 0)
(1.4 -3.22638e-15 0)
(1.4 -3.37098e-15 0)
(1.4 -3.50281e-15 0)
(1.4 -3.55397e-15 0)
(1.4 -1.41429e-15 0)
(1.4 -9.52884e-16 0)
(1.4 -6.99689e-16 0)
(1.4 -2.17363e-16 0)
(1.4 5.01129e-16 0)
(1.4 8.65841e-16 0)
(1.4 9.38933e-16 0)
(1.4 1.1337e-15 0)
(1.4 1.06812e-15 0)
(1.4 1.09824e-15 0)
(1.4 1.38748e-15 0)
(1.4 1.63615e-15 0)
(1.4 1.79087e-15 0)
(1.4 1.85076e-15 0)
(1.4 2.07521e-15 0)
(1.4 2.09554e-15 0)
(1.4 2.02229e-15 0)
(1.4 1.91338e-15 0)
(1.4 1.75443e-15 0)
(1.4 1.69187e-15 0)
(1.4 1.7162e-15 0)
(1.4 1.90134e-15 0)
(1.4 2.26664e-15 0)
(1.4 2.46994e-15 0)
(1.4 2.98591e-15 0)
(1.4 3.07851e-15 0)
(1.4 3.23884e-15 0)
(1.4 3.19331e-15 0)
(1.4 3.18699e-15 0)
(1.4 3.28832e-15 0)
(1.4 3.55499e-15 0)
(1.4 3.80279e-15 0)
(1.4 4.03774e-15 0)
(1.4 4.20984e-15 0)
(1.4 4.38164e-15 0)
(1.4 4.51499e-15 0)
(1.4 4.59992e-15 0)
(1.4 4.66783e-15 0)
(1.4 4.90215e-15 0)
(1.4 4.84343e-15 0)
(1.4 4.60276e-15 0)
(1.4 4.55877e-15 0)
(1.4 3.68281e-15 0)
(1.4 3.34295e-15 0)
(1.4 2.99415e-15 0)
(1.4 2.63266e-15 0)
(1.4 2.50264e-15 0)
(1.4 2.51805e-15 0)
(1.4 2.73752e-15 0)
(1.4 2.89231e-15 0)
(1.4 2.97356e-15 0)
(1.4 3.02079e-15 0)
(1.4 2.90924e-15 0)
(1.4 2.61811e-15 0)
(1.4 2.41796e-15 0)
(1.4 2.34476e-15 0)
(1.4 2.39816e-15 0)
(1.4 2.42998e-15 0)
(1.4 2.53939e-15 0)
(1.4 2.63485e-15 0)
(1.4 2.81808e-15 0)
(1.4 2.94552e-15 0)
(1.4 3.12087e-15 0)
(1.4 3.43281e-15 0)
(1.4 3.69803e-15 0)
(1.4 3.96466e-15 0)
(1.4 4.09501e-15 0)
(1.4 3.9016e-15 0)
(1.4 3.84848e-15 0)
(1.4 3.34939e-15 0)
(1.4 2.82777e-15 0)
(1.4 2.43317e-15 0)
(1.4 2.00512e-15 0)
(1.4 1.46865e-15 0)
(1.4 1.14388e-15 0)
(1.4 1.0808e-15 0)
(1.4 1.09252e-15 0)
(1.4 1.17223e-15 0)
(1.4 1.14568e-15 0)
(1.4 9.60429e-16 0)
(1.4 7.53774e-16 0)
(1.4 6.3853e-16 0)
(1.4 5.40535e-16 0)
(1.4 5.90658e-16 0)
(1.4 5.50242e-16 0)
(1.4 2.02321e-16 0)
(1.4 -1.83357e-17 0)
(1.4 -6.2637e-17 0)
(1.4 -1.12378e-16 0)
(1.4 -3.03444e-16 0)
(1.4 -4.17392e-16 0)
(1.4 -6.87456e-16 0)
(1.4 -8.37544e-16 0)
(1.4 -9.76908e-16 0)
(1.4 -1.08315e-15 0)
(1.4 -1.56914e-15 0)
(1.4 -1.79758e-15 0)
(1.4 -1.94036e-15 0)
(1.4 -1.77754e-15 0)
(1.4 -1.63492e-15 0)
(1.4 -1.37383e-15 0)
(1.4 -1.10885e-15 0)
(1.4 -9.90982e-16 0)
(1.4 -8.92323e-16 0)
(1.4 -7.47957e-16 0)
(1.4 -5.86836e-16 0)
(1.4 -5.16861e-16 0)
(1.4 -5.85066e-16 0)
(1.4 -6.01353e-16 0)
(1.4 -4.40613e-16 0)
(1.4 2.10145e-16 0)
(1.4 1.02604e-15 0)
(1.4 1.45068e-15 0)
(1.4 1.5527e-15 0)
(1.4 1.48535e-15 0)
(1.4 1.35278e-15 0)
(1.4 1.36349e-15 0)
(1.4 1.00793e-15 0)
(1.4 8.60989e-16 0)
(1.4 8.45232e-16 0)
(1.4 7.04726e-16 0)
(1.4 3.91903e-16 0)
(1.4 -3.77669e-16 0)
(1.4 -7.47424e-16 0)
(1.4 -8.06409e-16 0)
(1.4 -1.37453e-15 0)
(1.4 -1.69644e-15 0)
(1.4 -1.95114e-15 0)
(1.4 -2.2273e-15 0)
(1.4 -2.26682e-15 0)
(1.4 -2.43849e-15 0)
(1.4 -2.65535e-15 0)
(1.4 -4.82409e-16 0)
(1.4 7.05205e-16 0)
(1.4 1.24591e-15 0)
(1.4 1.83356e-15 0)
(1.4 2.36512e-15 0)
(1.4 2.53917e-15 0)
(1.4 2.51875e-15 0)
(1.4 2.13941e-15 0)
(1.4 1.53374e-15 0)
(1.4 1.32381e-15 0)
(1.4 9.20307e-16 0)
(1.4 5.96022e-16 0)
(1.4 6.43762e-16 0)
(1.4 6.71765e-16 0)
(1.4 7.92132e-16 0)
(1.4 1.15965e-15 0)
(1.4 1.35643e-15 0)
(1.4 1.46756e-15 0)
(1.4 1.63892e-15 0)
(1.4 2.01374e-15 0)
(1.4 2.06655e-15 0)
(1.4 2.17706e-15 0)
(1.4 2.43838e-15 0)
(1.4 2.59649e-15 0)
(1.4 2.77496e-15 0)
(1.4 2.95965e-15 0)
(1.4 3.02868e-15 0)
(1.4 2.95788e-15 0)
(1.4 3.04051e-15 0)
(1.4 3.19345e-15 0)
(1.4 3.25329e-15 0)
(1.4 3.39825e-15 0)
(1.4 3.74885e-15 0)
(1.4 4.35167e-15 0)
(1.4 4.88543e-15 0)
(1.4 5.03475e-15 0)
(1.4 5.03718e-15 0)
(1.4 4.92928e-15 0)
(1.4 4.75753e-15 0)
(1.4 4.06426e-15 0)
(1.4 3.40479e-15 0)
(1.4 2.87002e-15 0)
(1.4 2.81838e-15 0)
(1.4 2.43193e-15 0)
(1.4 2.00126e-15 0)
(1.4 1.88206e-15 0)
(1.4 1.77322e-15 0)
(1.4 1.65993e-15 0)
(1.4 1.47535e-15 0)
(1.4 1.45446e-15 0)
(1.4 1.51768e-15 0)
(1.4 1.48978e-15 0)
(1.4 1.51602e-15 0)
(1.4 1.32806e-15 0)
(1.4 9.78578e-16 0)
(1.4 9.17647e-16 0)
(1.4 9.3844e-16 0)
(1.4 8.93349e-16 0)
(1.4 1.18962e-15 0)
(1.4 1.29804e-15 0)
(1.4 1.99384e-15 0)
(1.4 2.45586e-15 0)
(1.4 3.06507e-15 0)
(1.4 3.15007e-15 0)
(1.4 3.33313e-15 0)
(1.4 3.28737e-15 0)
(1.4 3.35441e-15 0)
(1.4 3.69446e-15 0)
(1.4 3.59093e-15 0)
(1.4 3.48172e-15 0)
(1.4 3.40301e-15 0)
(1.4 3.45873e-15 0)
(1.4 3.64737e-15 0)
(1.4 3.69971e-15 0)
(1.4 3.67694e-15 0)
(1.4 3.69395e-15 0)
(1.4 3.59864e-15 0)
(1.4 3.39845e-15 0)
(1.4 3.05113e-15 0)
(1.4 3.01889e-15 0)
(1.4 2.67666e-15 0)
(1.4 1.87603e-15 0)
(1.4 1.05002e-15 0)
(1.4 5.14728e-16 0)
(1.4 7.83713e-17 0)
(1.4 3.12682e-16 0)
(1.4 4.67201e-16 0)
(1.4 1.50486e-16 0)
(1.4 -8.7228e-17 0)
(1.4 -1.92823e-16 0)
(1.4 -1.23718e-16 0)
(1.4 -1.44522e-16 0)
(1.4 -2.80139e-16 0)
(1.4 -3.67521e-16 0)
(1.4 -5.31282e-16 0)
(1.4 -6.5979e-16 0)
(1.4 -9.17602e-16 0)
(1.4 -1.28926e-15 0)
(1.4 -1.54732e-15 0)
(1.4 -1.7866e-15 0)
(1.4 -1.78119e-15 0)
(1.4 -1.78978e-15 0)
(1.4 -1.51819e-15 0)
(1.4 -1.24515e-15 0)
(1.4 -8.57247e-16 0)
(1.4 -3.77964e-16 0)
(1.4 1.88909e-16 0)
(1.4 4.67544e-16 0)
(1.4 7.49089e-16 0)
(1.4 1.01871e-15 0)
(1.4 1.19153e-15 0)
(1.4 1.53418e-15 0)
(1.4 2.18832e-15 0)
(1.4 2.23823e-15 0)
(1.4 2.08764e-15 0)
(1.4 2.08715e-15 0)
(1.4 2.15249e-15 0)
(1.4 1.96884e-15 0)
(1.4 2.08559e-15 0)
(1.4 1.73829e-15 0)
(1.4 1.41132e-15 0)
(1.4 8.4904e-16 0)
(1.4 4.59024e-16 0)
(1.4 -3.77828e-17 0)
(1.4 1.32578e-16 0)
(1.4 -1.98842e-16 0)
(1.4 -7.67244e-16 0)
(1.4 -1.14235e-15 0)
(1.4 -1.29716e-15 0)
(1.4 -1.67638e-15 0)
(1.4 -1.84802e-15 0)
(1.4 -2.27477e-15 0)
(1.4 1.55088e-15 0)
(1.4 2.12718e-15 0)
(1.4 2.53699e-15 0)
(1.4 2.68955e-15 0)
(1.4 2.88115e-15 0)
(1.4 2.85047e-15 0)
(1.4 2.3733e-15 0)
(1.4 2.08559e-15 0)
(1.4 1.88642e-15 0)
(1.4 1.80039e-15 0)
(1.4 1.60542e-15 0)
(1.4 1.54479e-15 0)
(1.4 1.36367e-15 0)
(1.4 1.25754e-15 0)
(1.4 1.03717e-15 0)
(1.4 1.16762e-15 0)
(1.4 1.19706e-15 0)
(1.4 1.28301e-15 0)
(1.4 1.4069e-15 0)
(1.4 1.58172e-15 0)
(1.4 1.47614e-15 0)
(1.4 1.25885e-15 0)
(1.4 1.03091e-15 0)
(1.4 7.38546e-16 0)
(1.4 3.24706e-16 0)
(1.4 1.09321e-16 0)
(1.4 -2.44738e-17 0)
(1.4 1.38244e-16 0)
(1.4 2.73578e-16 0)
(1.4 6.58367e-16 0)
(1.4 4.69734e-16 0)
(1.4 8.31592e-16 0)
(1.4 8.92988e-16 0)
(1.4 1.07013e-15 0)
(1.4 1.40189e-15 0)
(1.4 1.50845e-15 0)
(1.4 1.42304e-15 0)
(1.4 1.51062e-15 0)
(1.4 1.45759e-15 0)
(1.4 1.61686e-15 0)
(1.4 2.00473e-15 0)
(1.4 2.30836e-15 0)
(1.4 2.69642e-15 0)
(1.4 3.03173e-15 0)
(1.4 3.09144e-15 0)
(1.4 3.33449e-15 0)
(1.4 2.94479e-15 0)
(1.4 2.67137e-15 0)
(1.4 2.42192e-15 0)
(1.4 2.38786e-15 0)
(1.4 1.9812e-15 0)
(1.4 1.40645e-15 0)
(1.4 1.28482e-15 0)
(1.4 1.34703e-15 0)
(1.4 1.3956e-15 0)
(1.4 1.57011e-15 0)
(1.4 1.64467e-15 0)
(1.4 2.02999e-15 0)
(1.4 2.27307e-15 0)
(1.4 2.61024e-15 0)
(1.4 2.78247e-15 0)
(1.4 2.8412e-15 0)
(1.4 2.84498e-15 0)
(1.4 2.91458e-15 0)
(1.4 2.96613e-15 0)
(1.4 3.07551e-15 0)
(1.4 2.8063e-15 0)
(1.4 2.72238e-15 0)
(1.4 2.6652e-15 0)
(1.4 2.57231e-15 0)
(1.4 2.56746e-15 0)
(1.4 2.63867e-15 0)
(1.4 2.72415e-15 0)
(1.4 2.99165e-15 0)
(1.4 2.98256e-15 0)
(1.4 2.94092e-15 0)
(1.4 2.8586e-15 0)
(1.4 2.3685e-15 0)
(1.4 2.18512e-15 0)
(1.4 2.09336e-15 0)
(1.4 1.66865e-15 0)
(1.4 1.55526e-15 0)
(1.4 1.44776e-15 0)
(1.4 1.63212e-15 0)
(1.4 1.39885e-15 0)
(1.4 1.1613e-15 0)
(1.4 5.24891e-16 0)
(1.4 7.24519e-17 0)
(1.4 -1.12457e-16 0)
(1.4 -5.99051e-16 0)
(1.4 -8.30214e-16 0)
(1.4 -1.13349e-15 0)
(1.4 -1.42577e-15 0)
(1.4 -1.62273e-15 0)
(1.4 -1.70968e-15 0)
(1.4 -1.70497e-15 0)
(1.4 -1.82547e-15 0)
(1.4 -1.88496e-15 0)
(1.4 -1.84825e-15 0)
(1.4 -1.92898e-15 0)
(1.4 -1.63225e-15 0)
(1.4 -1.16075e-15 0)
(1.4 -7.18982e-16 0)
(1.4 2.38993e-17 0)
(1.4 6.47171e-16 0)
(1.4 7.98402e-16 0)
(1.4 1.16394e-15 0)
(1.4 1.76184e-15 0)
(1.4 2.08367e-15 0)
(1.4 2.27442e-15 0)
(1.4 2.21646e-15 0)
(1.4 2.17656e-15 0)
(1.4 2.34275e-15 0)
(1.4 2.32684e-15 0)
(1.4 2.22056e-15 0)
(1.4 2.23843e-15 0)
(1.4 2.1064e-15 0)
(1.4 1.48891e-15 0)
(1.4 1.26764e-15 0)
(1.4 1.06437e-15 0)
(1.4 7.08672e-16 0)
(1.4 5.62688e-16 0)
(1.4 1.3022e-16 0)
(1.4 -3.32387e-16 0)
(1.4 -5.68665e-16 0)
(1.4 -4.75701e-16 0)
(1.4 -6.30015e-16 0)
(1.4 -1.07783e-15 0)
(1.4 -1.41699e-15 0)
(1.4 -1.86377e-15 0)
(1.4 -2.02741e-15 0)
(1.4 -2.20404e-15 0)
(1.4 4.12093e-15 0)
(1.4 4.32647e-15 0)
(1.4 4.46331e-15 0)
(1.4 4.50502e-15 0)
(1.4 4.48622e-15 0)
(1.4 4.24836e-15 0)
(1.4 3.88665e-15 0)
(1.4 3.42006e-15 0)
(1.4 2.94628e-15 0)
(1.4 2.47469e-15 0)
(1.4 1.9414e-15 0)
(1.4 1.22296e-15 0)
(1.4 1.15616e-15 0)
(1.4 7.75463e-16 0)
(1.4 2.3537e-16 0)
(1.4 -3.57564e-16 0)
(1.4 -9.13979e-16 0)
(1.4 -1.22581e-15 0)
(1.4 -1.34802e-15 0)
(1.4 -1.4529e-15 0)
(1.4 -1.59555e-15 0)
(1.4 -1.60453e-15 0)
(1.4 -1.51536e-15 0)
(1.4 -1.59179e-15 0)
(1.4 -1.52031e-15 0)
(1.4 -1.45295e-15 0)
(1.4 -1.36437e-15 0)
(1.4 -1.41542e-15 0)
(1.4 -1.46496e-15 0)
(1.4 -1.55921e-15 0)
(1.4 -1.49248e-15 0)
(1.4 -1.27427e-15 0)
(1.4 -1.35991e-15 0)
(1.4 -1.43261e-15 0)
(1.4 -1.62653e-15 0)
(1.4 -1.18107e-15 0)
(1.4 -9.37671e-17 0)
(1.4 9.17593e-17 0)
(1.4 4.25916e-16 0)
(1.4 7.11431e-16 0)
(1.4 1.15986e-15 0)
(1.4 1.42876e-15 0)
(1.4 2.03297e-15 0)
(1.4 2.57181e-15 0)
(1.4 2.7295e-15 0)
(1.4 2.69542e-15 0)
(1.4 2.69028e-15 0)
(1.4 2.8283e-15 0)
(1.4 2.81159e-15 0)
(1.4 2.6308e-15 0)
(1.4 2.31905e-15 0)
(1.4 1.96787e-15 0)
(1.4 1.59783e-15 0)
(1.4 1.62242e-15 0)
(1.4 1.51201e-15 0)
(1.4 1.61708e-15 0)
(1.4 1.72186e-15 0)
(1.4 2.01316e-15 0)
(1.4 1.86573e-15 0)
(1.4 2.32864e-15 0)
(1.4 2.86803e-15 0)
(1.4 2.92315e-15 0)
(1.4 3.37292e-15 0)
(1.4 3.57188e-15 0)
(1.4 3.6158e-15 0)
(1.4 3.5303e-15 0)
(1.4 3.30746e-15 0)
(1.4 3.041e-15 0)
(1.4 2.90826e-15 0)
(1.4 2.91882e-15 0)
(1.4 2.78315e-15 0)
(1.4 2.61496e-15 0)
(1.4 2.41054e-15 0)
(1.4 2.20349e-15 0)
(1.4 2.11406e-15 0)