/*--------------------------------*- C++ -*----------------------------------*\
  =========                 |
  \\      /  F ield         | OpenFOAM: The Open Source CFD Toolbox
   \\    /   O peration     | Website:  https://openfoam.org
    \\  /    A nd           | Version:  7
     \\/     M anipulation  |
\*---------------------------------------------------------------------------*/
FoamFile
{
    version     2.0;
    format      ascii;
    class       volScalarField;
    location    "10";
    object      p;
}
// * * * * * * * * * * * * * * * * * * * * * * * * * * * * * * * * * * * * * //

dimensions      [0 2 -2 0 0 0 0];

internalField   nonuniform List<scalar> 
385
(
0.00857512
0.00851972
0.0084187
0.0082801
0.00811049
0.00791564
0.00770084
0.00747105
0.00723085
0.00698444
0.00673553
0.0064874
0.00624274
0.00600383
0.00857877
0.00852348
0.00842264
0.00828425
0.00811486
0.0079202
0.00770556
0.00747586
0.00723569
0.00698923
0.00674022
0.00649191
0.00624703
0.00600787
0.00858595
0.00853087
0.00843036
0.0082924
0.00812344
0.00792917
0.00771483
0.00748532
0.0072452
0.00699867
0.00674943
0.0065008
0.00625549
0.00601583
0.00859653
0.00854173
0.00844174
0.0083044
0.00813608
0.00794239
0.00772851
0.00749929
0.00725926
0.00701261
0.00676306
0.00651395
0.006268
0.0060276
0.00861035
0.00855595
0.00845663
0.00832011
0.00815265
0.00795974
0.00774646
0.00751763
0.00727773
0.00703095
0.00678099
0.00653127
0.00628448
0.00604312
0.00862728
0.00857337
0.00847488
0.0083394
0.008173
0.00798107
0.00776857
0.00754024
0.00730051
0.00705358
0.00680315
0.00655266
0.00630486
0.0060623
0.00864718
0.00859385
0.00849637
0.00836211
0.00819701
0.00800625
0.0077947
0.00756699
0.00732751
0.00708043
0.00682945
0.00657808
0.00632908
0.00608511
0.00866991
0.00861726
0.00852094
0.00838813
0.00822453
0.00803517
0.00782475
0.0075978
0.00735864
0.00711142
0.00685983
0.00660748
0.0063571
0.00611151
0.00869532
0.00864345
0.00854846
0.0084173
0.00825545
0.0080677
0.00785861
0.00763257
0.00739382
0.00714649
0.00689427
0.00664082
0.00638891
0.00614149
0.00872328
0.00867227
0.00857879
0.00844951
0.00828963
0.00810374
0.00789619
0.00767123
0.007433
0.00718561
0.00693272
0.00667809
0.0064245
0.00617505
0.00875364
0.0087036
0.00861179
0.00848461
0.00832696
0.00814318
0.00793739
0.0077137
0.00747612
0.00722874
0.00697517
0.00671929
0.00646387
0.0062122
0.00878625
0.00873728
0.00864732
0.00852247
0.00836731
0.0081859
0.00798212
0.00775991
0.00752314
0.00727585
0.00702162
0.00676443
0.00650705
0.00625297
0.00882098
0.00877318
0.00868526
0.00856297
0.00841056
0.0082318
0.0080303
0.00780979
0.00757401
0.00732692
0.00707207
0.00681353
0.00655407
0.00629741
0.00885769
0.00881116
0.00872545
0.00860597
0.0084566
0.00828078
0.00808184
0.0078633
0.0076287
0.00738196
0.00712654
0.00686664
0.006605
0.00634558
0.00889623
0.00885107
0.00876777
0.00865134
0.00850531
0.00833274
0.00813667
0.00792037
0.00768719
0.00744096
0.00718506
0.00692379
0.00665989
0.00639756
0.00893646
0.00889279
0.00881208
0.00869896
0.00855656
0.00838757
0.00819471
0.00798096
0.00774946
0.00750393
0.00724766
0.00698507
0.00671882
0.00645344
0.00897825
0.00893616
0.00885824
0.0087487
0.00861024
0.00844518
0.00825587
0.00804501
0.00781548
0.00757089
0.00731439
0.00705053
0.0067819
0.00651332
0.00902146
0.00898106
0.00890613
0.00880043
0.00866624
0.00850546
0.00832008
0.00811247
0.00788524
0.00764186
0.00738532
0.00712027
0.00684922
0.00657734
0.00906595
0.00902735
0.0089556
0.00885401
0.00872443
0.00856832
0.00838726
0.0081833
0.00795873
0.00771687
0.00746049
0.00719438
0.00692093
0.00664564
0.00911159
0.0090749
0.00900652
0.00890933
0.00878469
0.00863364
0.00845734
0.00825746
0.00803595
0.00779593
0.00753998
0.00727297
0.00699715
0.00671838
0.00915824
0.00912356
0.00905876
0.00896624
0.0088469
0.00870132
0.00853022
0.00833488
0.00811687
0.0078791
0.00762387
0.00735617
0.00707804
0.00679575
0.00920577
0.00917321
0.00911219
0.00902462
0.00891093
0.00877126
0.00860583
0.00841552
0.00820148
0.0079664
0.00771224
0.0074441
0.00716376
0.00687794
0.00925405
0.00922372
0.00916667
0.00908434
0.00897668
0.00884333
0.00868408
0.00849932
0.00828978
0.00805786
0.00780518
0.00753689
0.00725451
0.00696518
0.00930297
0.00927496
0.00922207
0.00914526
0.00904399
0.00891744
0.00876487
0.00858622
0.00838174
0.00815353
0.00790278
0.00763471
0.00735048
0.0070577
0.00935238
0.00932679
0.00927827
0.00920726
0.00911276
0.00899345
0.0088481
0.00867616
0.00847735
0.00825343
0.00800513
0.00773771
0.00745189
0.00715577
0.00940218
0.00937911
0.00933512
0.0092702
0.00918284
0.00907125
0.00893368
0.00876906
0.00857657
0.00835761
0.00811233
0.00784604
0.00755895
0.00725967
0.00945223
0.00943178
0.00939252
0.00933394
0.0092541
0.00915071
0.00902149
0.00886485
0.00867939
0.00846607
0.00822447
0.00795988
0.00767191
0.00736971
0.00950243
0.00948468
0.00945031
0.00939836
0.0093264
0.00923169
0.00911141
)
;

boundaryField
{
    inlet
    {
        type            zeroGradient;
    }
    outlet
    {
        type            fixedValue;
        value           nonuniform 0();
    }
    cylinder
    {
        type            zeroGradient;
    }
    top
    {
        type            symmetryPlane;
    }
    bottom
    {
        type            symmetryPlane;
    }
    defaultFaces
    {
        type            empty;
    }
    procBoundary0to1
    {
        type            processor;
        value           nonuniform List<scalar> 
23
(
0.00577234
0.0057761
0.0057835
0.00579445
0.00580887
0.00582671
0.00584793
0.00587249
0.00590038
0.0059316
0.00596618
0.00600413
0.00604551
0.00609039
0.00613883
0.00619095
0.00624684
0.00630666
0.00637054
0.00643867
0.00651123
0.00658845
0.00667057
)
;
    }
    procBoundary0to8
    {
        type            processor;
        value           nonuniform List<scalar> 
15
(
0.00896345
0.00878574
0.00857885
0.00834164
0.0080794
0.00779102
0.0074862
0.00955266
0.00953769
0.00950839
0.00946332
0.00939961
0.00931407
0.00896345
0.00920333
)
;
    }
    procBoundary0to9
    {
        type            processor;
        value           nonuniform List<scalar> 4(0.00675786 0.00685061 0.00694914 0.0070538);
    }
}


// ************************************************************************* //
