/*--------------------------------*- C++ -*----------------------------------*\
  =========                 |
  \\      /  F ield         | OpenFOAM: The Open Source CFD Toolbox
   \\    /   O peration     | Website:  https://openfoam.org
    \\  /    A nd           | Version:  7
     \\/     M anipulation  |
\*---------------------------------------------------------------------------*/
FoamFile
{
    version     2.0;
    format      ascii;
    class       surfaceScalarField;
    location    "0.838";
    object      phi;
}
// * * * * * * * * * * * * * * * * * * * * * * * * * * * * * * * * * * * * * //

dimensions      [0 3 -1 0 0 0 0];

internalField   nonuniform List<scalar> 
18389
(
-7.9742e-05
7.9742e-05
4.34566e-05
-4.34566e-05
-5.20446e-05
5.20446e-05
4.01713e-05
-4.01713e-05
-5.17873e-05
5.17873e-05
-4.00127e-05
4.00127e-05
-3.46029e-05
3.46029e-05
3.89835e-05
-3.89835e-05
-3.55999e-05
3.55999e-05
4.14798e-05
-4.14798e-05
4.49836e-05
-4.49835e-05
-3.46999e-05
3.46999e-05
-1.34407e-05
1.34407e-05
-4.2828e-05
4.2828e-05
4.34763e-05
-4.34763e-05
2.3582e-05
-2.3582e-05
1.8181e-05
-1.8181e-05
4.58889e-05
-4.58889e-05
4.59208e-05
-4.59208e-05
4.33439e-05
-4.33439e-05
-4.24634e-05
4.24634e-05
3.5522e-05
-3.5522e-05
4.2974e-05
-4.2974e-05
-5.84492e-05
5.84492e-05
-4.97232e-05
4.97232e-05
-4.18227e-05
4.18227e-05
-4.45385e-05
4.45385e-05
4.56215e-05
-4.56215e-05
4.58458e-05
-4.58458e-05
4.41362e-05
-4.41362e-05
-4.13342e-05
4.13342e-05
-6.30773e-05
6.30773e-05
4.3116e-05
-4.3116e-05
-4.47411e-05
4.47412e-05
4.08605e-05
-4.08605e-05
4.66901e-05
-4.66901e-05
-4.55527e-05
4.55527e-05
5.35684e-05
-5.35684e-05
-5.88833e-05
5.88833e-05
3.78752e-05
-3.78752e-05
4.48366e-05
-4.48366e-05
4.53773e-05
-4.53773e-05
-4.10152e-05
4.10152e-05
4.48991e-05
-4.48991e-05
4.58654e-05
-4.58654e-05
-4.58492e-05
4.58492e-05
-4.58466e-05
4.58466e-05
-4.06563e-05
4.06563e-05
-4.58789e-05
4.58789e-05
4.59354e-05
-4.59354e-05
4.59546e-05
-4.59546e-05
4.46195e-05
-4.46195e-05
3.77333e-05
-3.77333e-05
-4.57661e-05
4.57661e-05
-5.5544e-05
5.5544e-05
-4.38147e-05
4.38147e-05
4.57546e-05
-4.57546e-05
-4.59939e-05
4.59939e-05
4.32263e-05
-4.32263e-05
-5.93195e-05
5.93195e-05
-4.71477e-05
4.71477e-05
4.96051e-05
-4.96051e-05
4.57358e-05
-4.57358e-05
-9.34669e-06
9.3467e-06
4.57726e-05
-4.57726e-05
4.13644e-05
-4.13644e-05
5.12142e-05
-5.12142e-05
-4.58737e-05
4.58737e-05
4.23124e-05
-4.23123e-05
3.14313e-05
-3.14313e-05
9.93851e-07
-9.93851e-07
-4.40773e-05
4.40773e-05
3.28686e-05
-3.28686e-05
-3.65705e-05
3.65705e-05
3.97185e-05
-3.97185e-05
2.66258e-05
-2.66258e-05
2.61987e-05
-2.61987e-05
2.70488e-05
-2.70488e-05
2.43918e-05
-2.43918e-05
1.31947e-05
-1.31947e-05
0.00107204
-0.000882058
-0.000189976
0.00546655
-0.0020753
-0.00339124
-0.00594644
0.00594641
2.39949e-08
0.00335434
-0.0025989
-0.00075545
-0.00155229
0.00177087
-0.000218579
-0.00676014
0.00284106
0.00391909
0.0012149
0.00425166
0.00725513
-0.0058756
-0.00137953
0.00118642
-0.00191425
0.000727829
-0.00086317
-0.000689125
-0.00144219
-0.000314621
0.00175681
0.000142282
6.47898e-06
-0.000148761
0.000778521
-0.00222071
-0.00360341
0.000122824
0.00348058
-0.00320194
0.00289226
0.000309689
-0.00571986
0.00725411
-0.00153426
-0.00370933
0.00289733
0.000811997
-0.000564072
-0.00303934
-0.00174945
0.00238912
-0.000639663
-0.000464826
0.00255923
-0.0020944
-0.00161161
0.00111224
0.000499366
0.000583525
0.000581834
-0.00159418
-0.00516596
0.00126534
-0.00178793
0.000522591
0.00578034
-0.00386074
-0.00191959
-0.000662573
0.00331152
-0.00264894
-0.00583495
0.00583493
0.000484763
0.00128611
-0.00632835
0.000972875
0.00535548
0.00232396
-0.00298654
-0.00378949
0.00311381
0.000675676
0.00214826
-0.00422356
0.00108581
-0.000201711
-0.000884094
0.00150495
-0.00128827
-0.000216671
-0.00280162
-0.000400318
0.00535245
-0.00534778
0.000368515
0.00113643
0.0052282
-0.00133657
-0.00389164
0.002009
-0.000822579
0.0030857
0.00190866
-0.00499436
-0.000721546
-0.00306795
-8.8717e-05
-0.00015483
0.000243547
0.00393584
0.00331929
0.00116286
-0.00488768
0.00372482
0.0016271
0.0036011
-0.00498316
0.00632135
-0.00133819
-0.00114001
-0.000589958
0.00172997
0.00133711
0.00201722
0.000135293
0.000103626
-0.000238918
0.00502243
-0.00339533
0.00645667
-0.000840176
-0.0056165
0.00321637
-0.00265798
-0.000558396
0.00221826
0.000451143
-0.00266941
0.00295055
-0.000732292
0.0065036
-0.00539843
-0.00110516
0.000501027
-0.00386652
0.00336549
6.7713e-05
0.00638896
0.00480355
-0.00430252
-0.000535789
0.00105939
-0.0005236
-0.00176096
0.000620956
0.00191707
0.00224909
-0.00416615
0.00025343
-0.000333622
8.01924e-05
-0.00126425
-0.00284789
0.00411214
-2.63329e-05
0.00652994
-0.00281696
0.00229528
0.000521687
0.00038937
-1.20421e-05
-0.000377328
-0.00569231
-0.000254122
0.00187957
-0.0013948
0.000827376
0.00495296
0.000891745
0.000180293
0.00264033
-0.00646882
0.00382849
-0.0011202
0.000584417
0.0026401
-0.00390435
0.00619702
-0.00226117
0.00109209
0.00117729
-0.000792722
0.00103472
-0.000242001
-0.00110954
-0.000502065
0.00188848
0.0013279
-0.000595517
0.00142982
-0.00123752
-0.000192305
-0.00265534
0.00198755
0.000667794
0.00116688
0.000262947
0.0011315
-0.00497339
0.00384188
-0.00475914
0.00141878
0.00334035
-0.0045543
0.00611803
-0.00156373
-0.00506254
7.93861e-05
-0.00201975
-0.00063559
-0.000215331
0.000126614
-0.00122331
0.004648
-0.00342469
-0.00121132
-0.000702924
0.000103308
-0.000192024
8.87158e-05
0.000126287
-2.29793e-05
-0.00125905
0.0046379
-0.00337885
-0.000156184
2.45499e-05
0.000131635
-0.0055682
0.00170747
-0.00119442
-0.000566538
-0.000449415
-1.89425e-05
0.000468357
-0.000543239
9.38228e-05
0.00101018
7.56221e-05
-0.00181059
0.000616166
-0.000150309
1.73105e-05
0.000132998
0.00136802
-0.00234447
0.000976454
0.000271103
-0.00013581
-0.00392585
0.00514075
-0.00245754
0.000708102
-8.91303e-05
-0.000424323
0.000513453
0.00568581
-0.00216878
-0.00351703
7.74774e-05
0.00250731
-0.00258479
0.0044662
-0.0056178
0.00115161
0.00263386
0.00305195
0.00291385
-0.00283637
-0.00615773
0.000437881
-0.00646041
0.00363517
0.00282524
0.00229278
0.00390424
-0.00439118
0.00137956
0.00301161
0.00152039
-0.00025505
-0.0010244
0.00401985
-0.00299545
0.00463866
-0.00162601
-0.00301266
-0.00460645
0.00374875
0.000857702
0.00369398
-0.00503056
5.85672e-05
0.000330803
-0.00136912
0.00583533
-9.21696e-05
0.00214994
-0.00205776
-0.00206722
0.0026095
0.000171376
-0.00278087
-0.0012774
0.00264541
-0.000646899
0.0032564
0.00164134
-0.0017335
0.00090537
0.00397216
-0.00487754
-0.00504206
0.00384258
0.00119949
0.00255189
-0.00359409
0.00104221
-0.00332698
0.00411667
-0.000789693
0.000343099
-0.00367008
-0.000877968
0.000877968
-0.000448822
0.000359692
-0.000126971
-0.000973461
0.00110043
0.0050695
-0.00184194
-0.00322756
-0.00243322
-0.000368406
0.00290072
0.000157873
1.65187e-05
-0.000174392
-0.0014707
0.00112595
0.000344748
-0.00014159
-0.00490047
0.00505426
-0.00389141
0.000227552
-8.52703e-05
0.00444383
0.0005786
0.00406759
-0.00151569
0.000164969
-7.09602e-06
-0.00632998
-0.000986677
-0.000823914
0.00430031
-0.00190403
-0.00239628
0.00275687
0.00154345
0.00107771
-0.005632
-0.00226133
-0.000555634
-0.00112161
-0.000958093
0.00207971
4.00521e-05
-0.00272243
0.00268238
-0.00235892
0.00123731
-0.00221809
0.00530379
-0.00461939
0.00160081
0.00301858
0.00254736
0.000666859
-0.000330266
-0.000336593
-0.00601506
0.000582774
0.00543229
-0.0041922
0.00583099
-0.0016388
0.00182502
0.00163006
-0.00345509
-0.00167444
0.000902042
0.000772399
-0.0027145
0.00208174
0.000632755
0.00111224
0.000767325
0.000247201
-0.00032894
8.17403e-05
0.00489946
-0.00399409
-0.00638468
0.00557749
0.000807197
-0.00479481
-0.0016656
0.00334479
0.00064013
-0.00398492
0.000153963
-0.000162154
8.19122e-06
0.000590448
-0.00012528
-0.000465167
-0.00451845
0.00261442
0.000385782
-0.00057009
0.000184308
5.867e-05
-0.00093664
-0.00257575
0.00448442
-0.00530408
-0.000323939
0.00562803
0.000196465
0.000196205
-0.000392669
0.000814124
-0.000814124
0.00168511
-0.00072695
-0.00211057
0.0018144
0.000296166
0.00440202
-0.00302246
-0.00016245
6.26631e-06
-0.00120534
0.001264
0.000708934
0.00130007
0.00234875
-0.000267004
-0.00401913
-0.00128495
0.00111644
-0.00498297
0.00321277
-0.00447183
0.000835091
-0.00213565
0.00130056
0.00336019
-0.0045835
-0.00271143
-0.00180702
-0.00483604
0.00469445
-0.000676341
-0.00533872
-0.00515998
0.00149719
-0.00146458
-3.26027e-05
0.00223073
0.00011802
-0.00601418
0.00204872
0.00396546
-0.00121933
0.000526001
0.000693325
0.00145328
0.00294874
-0.00462504
-0.00101506
0.00564011
-0.00021281
0.00013852
7.42895e-05
-0.00551822
0.00132602
0.00375309
-0.00493691
0.00118382
-0.00149324
-0.000617324
-0.000536681
-0.000637494
0.000138363
-0.000203831
6.54675e-05
0.00499293
-0.00386144
-0.00130094
0.00512552
-0.00382459
-0.000394347
-0.000810991
-0.00586128
0.000439791
0.00539513
-0.00616338
0.00456919
-0.000920524
-0.00546417
-0.00109337
-0.000377332
-0.00181719
0.00285757
-0.00104038
-0.000419169
0.000322038
9.7131e-05
-0.00173205
0.00141743
0.00161668
-0.000119492
0.000827723
-3.6749e-05
-0.0016953
0.00279672
0.00121759
-0.00303477
0.00605733
-0.000479843
0.00528403
6.84106e-05
-0.00528006
0.00439165
0.0011443
-0.00553596
0.000556445
-0.000768802
0.000212358
-4.0614e-05
-0.000408208
-9.5584e-06
0.00606689
-0.000162179
0.000156824
5.35564e-06
0.000133357
2.06048e-05
0.00253815
-0.00335771
0.000819558
-0.00191925
0.000716245
0.001203
0.0079271
-0.00345545
-0.00447164
0.00117027
0.00126491
-0.00243519
0.00010821
-0.000174404
6.6195e-05
-0.000805879
0.00133187
0.00116117
0.00318211
-0.00434328
-0.00561375
0.000165557
0.00544819
-0.00401967
0.00299527
0.00173523
0.0047947
0.00459086
0.00333623
-2.1405e-05
0.000190668
-0.000169263
-0.00130832
0.00439627
-0.00308795
0.000300513
-0.000341127
-0.000131329
-8.14815e-05
0.00410121
-0.0022762
0.00474946
-0.00501292
0.000263455
-0.00323693
0.00607586
-0.00283893
0.00252684
0.00157437
0.00575076
-0.0010013
-0.00137773
-0.00562122
0.00137284
0.00424839
0.000654748
0.00052062
-0.00117537
0.0012696
-0.000614852
0.00058546
-0.00111029
0.000524831
0.00110608
0.000275991
0.000390869
-0.000678257
0.00443135
0.00151585
-0.0003899
0.003539
-0.00612966
0.00259067
0.00153395
-0.00258464
0.00105068
-0.00432042
0.00116466
0.00315576
0.00291417
-0.00422249
-0.00491085
-0.00125253
-0.00409965
0.0012678
0.00283184
0.00124652
0.00314975
-0.00326438
-0.000835272
0.00222661
-0.00105635
-0.000680088
-0.0025319
0.00321198
0.00240781
0.000616947
-0.00302475
-0.00158942
0.00120146
0.000387956
0.000269948
0.00148915
-0.0019662
0.000477053
-0.00011089
-0.000222733
-0.000264423
0.000153533
-0.00435374
-0.000252706
-0.000294974
0.00117434
-0.000879363
0.00435151
-0.00464542
0.000293913
-8.84239e-05
0.00011777
-2.93455e-05
0.000972505
0.00338205
-0.00435455
-0.000157004
6.85803e-05
-0.00475196
0.000710667
0.0040413
-0.000742334
0.00012405
0.000618282
8.54418e-05
-7.89627e-05
-0.000400443
0.00086467
-0.000347475
-0.000517196
-0.00603566
0.000637226
-0.00254967
-0.000128204
0.00267786
-0.00317075
0.00441726
0.00218083
-0.00108873
-0.00116718
-0.00117758
-3.3738e-05
-0.00351999
-0.00123914
0.00151002
-0.000410781
-0.00109923
0.00191937
0.00183824
-0.00375761
0.00504594
-0.00161402
-0.00343192
0.00079367
-0.0054187
-0.00137308
0.00300314
0.00195939
0.000782505
-0.00274189
-0.0034993
0.00447181
-0.000152966
2.65663e-06
0.000935403
-0.0044347
-0.00449731
-0.00014812
-0.000997887
-0.00461586
0.00463155
0.00148812
0.00355782
0.00415925
0.00114375
-0.00530301
3.60378e-05
5.9478e-05
-9.55159e-05
-0.00140722
0.00336661
0.00371434
0.00353977
-0.00139996
0.00237107
-0.000971101
-0.00248172
0.000461975
-0.000878412
0.00075144
-0.000209275
0.000405741
-0.000211658
0.00170081
0.00376357
-0.0018442
-0.00107365
-0.000600793
-0.000107184
-0.000157239
0.00355042
-0.00163335
-0.0024037
0.00465281
0.000674533
-0.00309589
0.00242136
0.000646847
0.000762899
-0.00105787
0.0021
-0.00131325
-0.00327589
0.00458913
-0.00218753
0.00482786
-0.00055337
0.00344562
0.000239219
-0.000221908
-0.00236236
0.000962406
0.0023193
-0.00386786
0.00154858
-0.00121032
5.75429e-05
-2.15051e-05
0.00214815
-0.00279671
0.000648559
-0.0011688
-0.000420614
-0.00352798
0.00450085
0.00119273
0.00167693
-0.00286966
-0.00169084
0.00366467
-0.00197383
0.00424128
-0.000859236
0.000234352
1.41097e-05
-0.000248462
-0.00372301
0.00203217
-0.0014276
0.00471865
-0.00329105
0.000877986
0.00130284
0.000164281
0.000649841
0.000253027
-0.000300721
4.76933e-05
0.00169502
0.000209281
-0.0019043
0.00301924
-0.00459099
0.00157175
-5.28443e-05
0.000374293
-0.000321448
0.00156265
-0.000361196
0.00140503
-0.00060615
-0.000798875
0.00282506
-0.0039259
0.00110084
0.00268027
-0.00374305
0.00106278
-0.00518406
0.00194713
0.00390328
-0.000884034
-0.000633782
-0.00237612
0.00300991
0.00140717
-0.00511776
0.00371059
0.00336053
-0.00145894
-0.00190159
-0.000683485
0.00172644
-0.00104295
0.00477147
-0.00303624
-0.000697183
-0.00196079
-0.0059824
0.00514222
3.90472e-06
0.00012173
-0.000125635
-0.00157767
0.00120021
0.000377464
-0.00490942
0.00630999
-0.00140058
-0.00188814
0.000724192
0.00116395
0.000406312
0.00268613
-0.00208835
-0.000597773
0.00343504
0.000489656
-0.0039247
0.000129143
-2.09334e-05
0.00517228
0.00033698
-0.00550926
-0.00194081
0.00379767
-0.00185686
0.00276962
-0.000640639
-0.00212899
0.000462553
0.000402117
-0.000437271
0.00387231
0.00202591
-0.00396672
0.00070571
-0.000266886
-0.000438824
-0.000663374
3.70256e-05
0.00062635
-0.00315227
-0.00576434
0.00576623
-0.000274601
0.000951011
-0.000676411
-0.00228865
-0.000193081
-0.0045535
0.00324025
-0.000870648
0.00112801
0.00360729
-0.00501922
0.00141194
0.000410678
-0.00296034
0.00233135
-0.00244103
0.000109672
-0.00157143
0.00148228
8.91459e-05
-0.00120952
-0.00036815
-0.00339233
0.0034287
-0.00223596
0.000457245
0.000133203
-0.00173489
0.0010514
-0.002795
0.000743557
0.00205145
0.000242363
-8.01079e-06
-0.00347806
0.00102418
0.00245388
-0.00144473
0.00560399
0.000338917
-0.000955055
0.000616139
0.00212069
0.000648924
-0.00127774
0.000304283
0.00111443
0.00121692
-0.00142717
0.00495763
-0.00353046
-0.004847
0.00576566
-0.000918661
-0.00117421
0.00228285
0.00410612
0.00107252
3.97219e-05
0.00586464
-0.00553006
-0.00033458
0.00355328
-0.00465968
0.00110641
0.003093
-0.000685197
0.00542699
-0.0018197
-0.00250313
-0.000974931
-0.00217646
-0.000317908
0.00249438
0.00241278
-0.00196164
-0.00160818
-0.00424232
0.00274799
0.00149433
-0.00032646
0.0012285
0.00121558
0.00365718
-0.00487275
-0.000293276
0.000679058
0.00305957
-0.00238504
-0.0047247
-0.0012577
0.00647069
-0.00129841
0.00424091
0.0020615
0.000497735
0.00285471
-0.00212543
-0.000729273
0.00473619
-0.00245334
-6.99638e-05
-0.00332757
-0.000866875
0.00419444
0.000388079
-8.64714e-05
-0.000301608
-0.00514223
0.00610749
-0.000965263
-0.000736213
0.00190821
-0.001172
-0.000696979
0.00525241
-0.00455544
0.00117804
-0.00191425
-0.000112772
-0.00576282
-0.000792722
0.00203784
0.0038268
-0.000249682
-0.00192678
0.000251402
-4.20078e-06
0.000362571
-0.000487851
0.00336149
-0.000823341
-0.00522679
-0.000271604
-0.000147565
0.000150193
-0.000133569
-1.66237e-05
-0.0024833
0.000124372
-0.000421804
0.00159053
-0.00101529
-0.000575238
0.00246872
0.000595655
-0.00306437
-0.000716126
0.00318483
-0.00520291
-0.000271535
0.00547444
0.00375057
0.00137496
0.00441059
-0.00122847
-0.000130791
0.00254357
0.00540384
-0.00020664
-0.00519721
-0.00608729
0.00425267
0.00183463
0.00321074
-0.00126819
-0.00435303
0.000203342
-0.000224746
0.000574264
0.000830759
0.00111543
0.000139871
-0.0012553
0.0042123
0.00119154
-0.000960457
0.00317165
-0.0022112
0.00473464
-0.00138985
-0.00217929
0.00279258
-0.000613283
-0.00117655
-0.000110141
0.000307332
-0.000197191
0.00344637
-0.00414335
0.00134781
-0.000991594
-0.000356213
0.00159711
-0.000396896
-0.00325123
0.00229077
0.00548923
-0.00434494
-3.06415e-05
0.00035268
-0.00535452
0.000445095
0.00544251
-0.00190351
-0.00100135
-0.00361461
0.00461597
-0.000646286
0.00288298
-0.00223669
0.00549725
-0.00286245
-0.00263481
-8.8398e-05
0.000591732
-0.000677184
0.000660539
1.66446e-05
-0.000690807
0.00173198
-0.00104117
-0.00314937
-0.00117105
0.000155567
-1.72038e-05
-0.00122487
-0.00478931
-0.00307572
0.00239563
-0.000576855
-0.000237268
-7.26122e-05
-8.95668e-05
-0.00121191
-0.000805678
-0.00522999
-0.00283843
0.00219215
-0.00081891
0.00118742
0.00113168
0.00437896
-0.00551063
0.00339518
-0.00275505
0.000469284
0.000773019
-0.00288403
0.00211101
0.00498787
-0.00493482
-5.30487e-05
-0.00320953
0.00361559
-0.000406052
0.000207792
-9.56072e-05
-0.000112185
-0.00498727
-0.00148156
-0.00175778
0.00368981
-0.00193203
0.00298164
-0.00220862
-0.00378344
0.00202566
0.00139503
-0.00258174
0.00118671
-0.0036327
0.00568143
0.00649977
-0.00219549
-0.00430428
-0.00240026
0.00237455
2.5713e-05
0.00561186
-0.0016397
0.00118458
-0.00092343
-0.000261153
-9.11408e-06
0.000262142
0.000249919
-0.000774497
0.000524578
-0.00304665
0.00365068
-0.000970405
0.000847498
-0.00104921
0.00236283
-0.000631859
-0.00173097
0.00219952
-0.0005045
0.00452484
0.000630459
0.00173237
-0.00175392
0.00106312
0.000408596
-0.000464695
5.60989e-05
0.00221458
-0.0017445
-0.000470076
0.000829595
-0.0051478
-0.000544516
0.000369497
-0.000588347
0.00021885
-0.00410119
0.00547403
0.000942138
-0.00111663
0.000174494
-0.00152791
0.00216497
-0.00063706
-0.00149006
-0.00275226
-0.00538213
-0.000155787
0.00553792
0.00030049
0.000108304
4.189e-05
0.000127564
-0.000127486
-7.80833e-08
0.00411626
-0.00290069
-0.00380338
-0.00232628
0.00346745
0.00303232
-0.0025951
0.000728349
0.00186675
-0.000844665
0.00223969
-0.00229725
-0.000103016
0.00272911
-0.00377751
0.00104839
0.00130952
-0.000135187
0.000459824
0.000550358
-0.00327805
0.000964607
0.00231345
0.00091371
-0.000603971
-5.94048e-05
-0.0042755
0.00172477
0.00010091
-0.00182567
-0.00396517
0.00146435
0.00250081
0.000516877
0.00147138
-0.000897121
-0.000246695
-0.00466041
0.00490711
0.000784416
-0.00247673
0.00169232
0.0012022
0.00131232
-0.000468598
-0.00171818
0.00218678
0.00258004
-0.00179562
0.00446945
-0.00353405
-0.000775898
-0.00264093
-0.00022728
0.00025183
-0.000704172
0.0017637
-0.00105953
0.0026602
-0.00366696
0.00100675
0.000136436
2.03876e-05
-0.00236413
-0.000913935
0.00142122
-0.00163644
0.000215217
-0.00277457
0.000686219
0.00127628
-0.00141879
0.000142511
0.00161853
-0.00180791
0.000189386
0.00067542
-0.00372554
-0.00116214
0.00134898
-0.00489909
0.00355011
-0.000913417
0.00357361
0.000118706
-7.93994e-05
-3.93064e-05
0.00475939
-0.0036277
-0.000319416
-0.00152868
-0.00402057
-0.00149766
0.00209163
0.000700938
-0.00101173
-0.00092359
-0.00452912
-0.00162862
-0.000373885
0.001242
-0.000930643
-0.000311353
-0.00149612
-0.00108853
0.000655754
0.00225832
-0.00291407
-0.000114259
0.000670703
-0.000715949
3.87643e-05
-0.00245877
0.00196645
0.00139407
-0.000709104
0.00162138
-0.000912273
-8.68723e-05
-0.000116959
0.000318568
-0.00194618
0.000452943
0.0016086
-0.00231089
0.000702288
-0.00334299
0.00258246
0.00076051
0.00119822
0.00241434
-0.00361256
-0.00175344
0.00104926
-0.00294134
-0.00102382
-0.000790663
-0.00255232
-0.00167625
0.00125264
0.000423619
0.00176712
-4.23551e-05
-0.000761333
-0.00243493
0.00319626
-0.000674305
0.00291397
-0.00225821
-0.000858548
-0.00394759
0.00480615
-0.00234404
0.00234012
3.92715e-06
-0.000742333
-0.00156245
0.000547161
-0.00240519
0.00381931
-0.00141412
0.00323287
0.00288515
0.00019438
3.62309e-05
-0.000230612
0.00234028
-0.000602609
-0.00173766
0.000188068
-0.000184163
-0.00359139
0.00494037
-0.00328706
0.00523695
-0.00194989
-0.0035098
-0.00150942
-0.000914734
0.00323214
-0.00231741
0.00285626
0.0017751
-0.0041803
-0.00499707
-0.000145155
-0.000789796
0.00284843
-0.00205863
-0.000431668
0.000378824
-0.000530016
0.00167586
-0.00114585
-0.00403208
0.00334123
0.000690849
-0.0032694
0.00235466
-0.0038688
0.000674125
0.00319467
0.00141188
-0.00101493
-0.000396953
-0.00589957
0.000696654
0.00184667
-0.00141092
-0.000435753
0.00141316
-0.000409662
-0.0010035
7.83746e-05
0.000129417
0.00293175
-0.000636464
-0.000219747
-0.00348756
-0.000381238
0.000428307
-0.00305452
-0.000977565
-0.00233673
-7.30969e-06
-0.00292445
0.00229067
0.000720573
0.00260188
-0.00332245
0.000585383
-0.000859985
0.00140661
-0.00671686
0.00531025
-0.00577299
0.000978175
-0.00234255
0.00354077
0.000692677
0.000258335
-0.00273296
0.00345353
-9.36733e-05
0.00508154
0.00061382
0.00170579
-0.00231961
-0.00177593
0.00124592
0.00274736
-0.00369575
0.000948385
0.00510115
0.000671114
0.00154346
0.000315215
0.000390494
-0.000364049
-0.000404753
0.00018098
-0.00174602
0.00176684
-0.000888859
0.000861301
0.000610079
-0.000583826
0.00301038
-0.00242655
-0.00150375
0.00184282
-0.000339061
-0.00489496
0.00380326
0.0010917
-0.00480351
0.00151645
-4.03326e-05
4.00692e-05
2.63455e-07
-0.00281083
-0.000856119
0.00108274
-0.00129458
0.00021184
0.00135434
-0.00494573
0.00108294
3.24909e-05
0.00123983
0.000694429
0.00218855
-0.00366732
0.000856488
0.000196752
-0.00504375
0.00190223
0.00122062
0.000687589
-0.0052724
-0.00049194
0.00565346
0.00118642
0.00710747
-0.00218388
-0.00492359
0.000787813
-0.000376249
-0.000411565
0.000716872
-0.00138194
0.000781143
-0.00386076
-0.00125701
0.000307332
-0.000939689
-0.000419323
0.00135901
0.00233015
0.00400854
-0.00486708
0.00270277
0.000834573
-0.00353735
0.00124921
-0.000963647
-0.000285562
0.000745065
0.00159521
-0.000135068
0.000138308
-3.24017e-06
-0.000709611
0.0028836
-0.00217399
0.00362073
0.00109793
-0.00126248
-0.000413775
0.00141269
-0.00156048
0.000147788
4.71146e-05
7.15913e-05
-0.0044778
0.000967998
-0.00165387
0.000444347
-0.0036481
0.00293196
-0.000950287
6.82281e-05
0.000934565
0.00268002
-0.00361459
0.000845746
-0.00126609
0.0041903
-0.00292422
0.000318563
0.000279881
4.65683e-05
-0.00032645
7.838e-05
-0.00539155
0.00531317
-0.0026345
-0.000778015
0.00341253
-0.00349237
0.00260902
0.000883357
-0.00276567
-0.000262378
-0.00171541
-0.00491335
0.000892784
-0.00145508
-0.00088165
-0.00106322
0.00379233
0.00170934
-0.00372608
0.00201674
0.000105237
2.23272e-05
0.00372643
-0.00201709
0.00286531
0.000956936
-0.00382223
-0.00130252
0.00174109
-0.000438558
0.00357403
0.00110103
-0.00467506
0.00718685
-0.00197089
-0.00521595
-0.00212723
-0.000711199
-0.00173118
0.00234499
0.00377291
-0.00492728
0.00115437
-0.00280291
0.00373747
0.00113561
-1.47968e-06
-0.00113413
0.00148184
0.000907265
-0.00550746
0.000596605
0.000429089
0.000358723
0.00292151
-0.00112205
-0.00252155
0.00247987
4.16784e-05
0.000504818
-0.00184058
0.00133576
-0.00387046
-0.00119208
0.00108918
-0.00254426
-0.0052991
0.000151302
-0.00125307
-0.000523709
0.00177678
0.00563681
-0.00449306
0.000104266
0.000283814
-0.0030167
0.00318808
0.0014408
-0.00107194
-0.000368856
0.0034681
0.00475882
-0.000955562
0.000642175
-0.00327668
0.00111018
-0.00098613
-5.2882e-05
0.000461478
0.000394003
-1.97108e-05
-0.00207229
-0.000453008
0.00153574
-0.000909914
-0.00349749
0.000764542
-2.71892e-05
-1.31435e-05
0.00599848
-0.00492076
0.00522152
-0.00439414
1.45017e-05
-0.000618282
0.00060378
0.00194897
-0.000458408
-0.00149056
0.0033588
-0.000756924
-0.00256801
0.00336097
-0.000792961
-0.00183381
0.000531291
0.00127805
-0.000952416
-0.000325633
-0.000118766
-0.000210173
0.00205909
-0.000548167
-0.00151092
-0.0013815
-0.002394
-0.000127545
0.00208986
-0.00274478
0.000654918
0.00280645
-0.000750699
-0.00205575
0.00410318
-0.00434987
0.000314403
0.00224176
-0.000633159
-0.000682944
0.000835302
-0.00367955
0.00503388
0.00122164
0.000462522
-0.00171559
-0.00286559
0.00209684
0.00363274
0.00158878
-0.00114692
-0.00383043
-0.00114296
0.00130363
-0.0017176
0.000413962
0.00367553
-0.00318588
-0.000193852
0.00113599
-3.84735e-05
-0.00026941
0.000307884
-0.000696853
-0.00189825
0.00377235
-0.00490869
0.00113635
-0.00185965
0.0023534
-0.00049375
-0.00115493
0.00213277
0.000750825
-0.00226247
0.0037546
-0.00149213
0.00150567
-0.00114207
-0.000363602
-0.00102272
0.000280388
0.000197387
-0.000434123
0.000236736
-0.000426242
-0.00122763
-0.00248009
0.00250461
-2.45205e-05
0.00144906
-0.00371153
0.00162418
-0.000371538
0.000368895
-0.000431153
6.22576e-05
-0.000827337
0.000594158
0.000233179
-0.000794722
-0.00285022
0.000829793
0.00202043
-0.0019965
-0.000855548
-0.000720206
0.00157575
-0.00524315
0.00389497
0.00134818
-0.00126434
0.00127884
-0.000576387
-0.000115925
0.000692312
0.00286862
-0.000735852
-0.000770366
-0.000160199
0.000930565
0.00183884
-0.00137632
0.0016982
-0.000394562
-0.000154163
-0.000634721
-0.00420548
0.0048402
-0.0013927
0.00283063
0.00427684
-0.00239886
-8.12203e-05
0.00312141
-0.00473543
0.00073324
0.00158164
-0.00231489
0.00201022
-0.00280001
0.00199371
-0.000722825
-0.00127089
-0.00179593
0.000455769
0.00134016
0.00431914
0.00286771
-0.00552078
0.00133716
0.00418362
-0.00125127
-0.00399187
-0.000460033
-0.0013359
-0.000998651
-0.000563798
-0.00129263
-0.000424965
0.00114421
-0.000533726
0.00150842
-0.000974694
-0.00175711
0.00129707
-0.000944522
-0.000207151
0.00115167
0.00217211
-0.00286744
0.000695336
-1.17754e-05
0.000206155
0.00103455
0.00606825
-0.00140912
-0.00465914
-0.00203608
-0.00187373
0.00133847
0.000535263
0.0012713
-0.00097894
-0.000292363
-0.00229307
-0.001026
0.00331908
-0.0026706
0.00358299
-0.000912385
-0.000919961
0.00111636
9.73181e-06
-0.00112609
0.00376113
-0.00493726
0.00117612
0.00174752
-0.00135545
-0.000392066
0.00242708
-0.00122487
0.00273857
-0.000636237
-0.0001911
-0.00409017
0.00229271
-0.00180235
-0.000490367
0.000560571
-0.00200916
0.00144859
-0.00251578
-0.000841929
0.000859746
-0.000658261
-0.000201486
-0.000180339
-0.00364326
0.000972654
0.000660646
-0.000463257
0.00259206
0.000990923
0.000318888
0.00130751
0.000686202
-0.00160333
0.00233656
-0.00150178
0.000985008
0.000516766
0.00355113
-0.000685817
-0.00381001
0.00610279
-0.00114756
-0.00248984
0.00683289
-0.00434305
-0.000888636
0.00356866
-0.00414182
0.000932299
-0.0021014
0.00424966
-0.000690946
-0.00161994
-0.00244999
0.00171243
0.000737564
-0.00127999
0.00043633
-0.000469157
3.2828e-05
-0.00137613
-0.000776711
-0.000153638
0.000930349
-0.00156253
0.00136315
0.000199375
0.00203802
0.00081041
6.26699e-05
-0.00130018
-0.000551527
-0.00083041
-0.00242105
-0.000479881
-0.00139385
-0.000171351
0.00159258
-0.000180667
0.00341133
-0.000514
0.00133895
0.000200746
-0.000809053
-0.000978874
-0.00193004
0.00247689
-0.000546842
-0.00104565
-0.0057289
0.00351082
0.00148146
-0.000620165
0.00288652
-0.00120959
0.000962773
-0.00135902
-0.00453025
0.00588927
0.000620323
-0.00255037
0.000741388
-0.00368887
0.00269902
0.000989846
0.000889964
-0.00142369
0.00222552
-0.00311854
0.000893004
0.00119554
-0.00342978
0.00223423
0.000860806
0.00168804
-0.00254885
-0.000174668
0.0017932
0.00274349
0.00107943
0.00361766
-0.000413518
0.000783014
0.0031589
-0.00402576
0.000983056
-0.00327612
0.000435718
0.00412586
0.00147402
-1.10808e-05
-0.000274359
0.000285439
-0.00619263
0.00385642
0.00233621
-0.000829623
-0.0026149
0.00344453
0.00263961
-0.00177881
-0.00369713
0.00089422
-0.00132142
-0.000435694
-0.000152859
0.00131974
0.00372717
0.00123045
0.00022351
0.00130883
-0.000992081
-0.000316749
0.000889971
0.000591497
-0.000313751
0.00376841
-0.00493438
0.00116597
0.00307828
-0.000852769
-0.00139858
0.0019034
0.00125852
-0.00355454
0.00229602
-0.00116886
0.00145609
0.000678381
-0.00213448
0.000192958
-0.000204039
0.00219883
-0.000861718
-0.0012499
0.00032989
0.000926492
-0.000349013
-0.000577479
0.00353313
-0.00227461
-0.000508884
0.00229098
-0.0017821
0.00102018
-0.00296886
0.00208361
0.000885252
0.000106059
-8.22107e-07
0.00466971
0.000536414
-0.00570239
-0.00519691
0.00392864
0.00126827
-0.00107821
-0.00269464
0.00377285
0.00222133
0.00372509
0.00282741
-0.00375401
0.000926606
-0.00146917
0.00110102
-0.000955025
0.00337457
-0.00241954
0.00149685
0.000562242
-0.00378568
-0.00240695
0.001078
-0.00230359
0.00321519
-0.000911601
0.00343503
-0.00082601
0.000396545
-0.000812211
0.0025435
0.000891531
-0.000635271
0.0043108
-0.00130879
0.00171627
-0.000407481
0.00199691
-0.00128066
-0.000389741
0.00607686
-0.00491852
-0.000463602
0.000858554
-0.00246188
-0.00539161
-0.00172239
0.000413592
-0.000678153
0.000101766
-0.000869718
0.000212995
-0.00146884
0.00067019
0.00157156
-0.000905439
0.000135073
0.000805229
0.00251604
-0.00332128
-0.00109512
0.00187364
-0.00194675
-0.000474287
0.00196109
-0.0014868
-0.000884484
-0.00208437
-0.00195169
0.0014774
-0.00265745
0.00346267
-0.00164188
0.000586033
0.00105585
-0.000980207
0.00357226
0.00602243
-0.0023081
-0.00130282
-0.000419568
-0.00174022
0.00110181
0.00063841
0.000905379
-0.00452001
0.00361463
-0.00131379
0.000546884
0.0007669
-0.00403568
-0.00116123
0.000191674
-0.00113619
0.00193832
-0.000717696
-0.00134631
-0.00380409
0.0051504
0.00100258
6.99374e-05
0.00329733
-0.00252818
-0.000769145
0.000145977
0.00126718
0.0008772
-0.000669878
-0.000207322
-0.00134625
-0.00101611
-0.00108507
0.00512296
-0.00403788
0.000637942
-0.0024976
0.000122832
0.00128986
0.0037725
-0.00496213
0.00118963
0.0028787
-0.0020489
0.000101954
-0.00016842
6.6467e-05
0.0010283
0.000138089
0.000104274
0.00236112
0.00370714
-0.000583826
-0.00080796
0.00139179
0.000653051
0.00177125
-0.0024243
0.0024027
-0.00170498
-0.000697713
0.000475743
0.00147322
0.000426109
-0.000511532
-0.000802253
0.000599302
-0.00532401
0.000690315
-2.97761e-05
-0.00116187
-0.00131729
-0.00379212
0.00510941
0.00103669
0.00143707
-0.00189548
0.0025466
-0.000394745
-0.00490877
0.00530352
0.000120684
-1.87306e-05
0.000659121
0.0012792
0.00272803
0.00094476
-0.00367279
0.00137512
0.000471553
0.0025876
-0.0036409
0.00454628
0.00277386
0.0008436
-0.00361746
0.00163842
-0.000838007
-0.000800408
0.00132796
-0.00101854
-0.000309416
0.000423639
0.00105921
-0.00470012
0.000218939
-6.79305e-06
0.000199751
0.00603591
-0.00127653
0.00152604
-0.00212865
0.00252786
-0.0018251
-0.00070276
0.000861992
-0.00254577
0.00168378
0.00523449
-0.00281646
-0.000926577
-0.001588
0.00500939
0.00148632
-0.00178139
0.000295068
0.000499751
-0.000103723
-0.000396027
-0.00099488
-0.00314066
0.00413554
0.000742473
0.00181951
-0.00256198
0.00176753
-0.000281212
0.00224904
0.00140564
-0.000858763
-0.000937415
0.000160704
-0.0015682