/*--------------------------------*- C++ -*----------------------------------*\
  =========                 |
  \\      /  F ield         | OpenFOAM: The Open Source CFD Toolbox
   \\    /   O peration     | Website:  https://openfoam.org
    \\  /    A nd           | Version:  7
     \\/     M anipulation  |
\*---------------------------------------------------------------------------*/
FoamFile
{
    version     2.0;
    format      ascii;
    class       volScalarField;
    location    "27";
    object      p;
}
// * * * * * * * * * * * * * * * * * * * * * * * * * * * * * * * * * * * * * //

dimensions      [0 2 -2 0 0 0 0];

internalField   nonuniform List<scalar> 
41600
(
-0.225012
-0.229394
-0.232602
-0.233988
-0.235711
-0.235541
-0.235253
-0.233821
-0.231985
-0.229363
-0.226229
-0.222373
-0.217937
-0.212615
-0.206573
-0.199254
-0.190881
-0.180626
-0.168717
-0.154652
-0.137764
-0.120485
-0.0986257
-0.0792103
-0.0574916
-0.225086
-0.229433
-0.232651
-0.234024
-0.235751
-0.235577
-0.23529
-0.233858
-0.232022
-0.229401
-0.22627
-0.222417
-0.217993
-0.212683
-0.206674
-0.199385
-0.191075
-0.180877
-0.169052
-0.155097
-0.138238
-0.12114
-0.0992234
-0.0799836
-0.0581795
-0.225233
-0.229509
-0.232748
-0.234094
-0.235828
-0.235648
-0.235363
-0.233931
-0.232098
-0.229481
-0.226358
-0.222514
-0.218114
-0.212826
-0.206874
-0.199634
-0.191427
-0.181325
-0.16963
-0.15586
-0.139046
-0.122283
-0.10026
-0.08124
-0.0595009
-0.225453
-0.229623
-0.232892
-0.234198
-0.235941
-0.235751
-0.235469
-0.234039
-0.23221
-0.2296
-0.226489
-0.222658
-0.218291
-0.213031
-0.207153
-0.199968
-0.191889
-0.181908
-0.170357
-0.156806
-0.140034
-0.123595
-0.101643
-0.0827253
-0.0612279
-0.225744
-0.229772
-0.233081
-0.234333
-0.236087
-0.235885
-0.235605
-0.234176
-0.232353
-0.229751
-0.226655
-0.22284
-0.218511
-0.213279
-0.207479
-0.200347
-0.192414
-0.182526
-0.171119
-0.157753
-0.141099
-0.124853
-0.103128
-0.0842175
-0.0631399
-0.226105
-0.229955
-0.233312
-0.234496
-0.236263
-0.236044
-0.235766
-0.234338
-0.232521
-0.229928
-0.226846
-0.223046
-0.218755
-0.213547
-0.207822
-0.200745
-0.192914
-0.183108
-0.171806
-0.158593
-0.142033
-0.125895
-0.104558
-0.0855657
-0.0650284
-0.226533
-0.23017
-0.233582
-0.234684
-0.236465
-0.236224
-0.235948
-0.234519
-0.232707
-0.230121
-0.227053
-0.223265
-0.219008
-0.213814
-0.208158
-0.201095
-0.193332
-0.183585
-0.172312
-0.159216
-0.142732
-0.126577
-0.105784
-0.0867052
-0.066744
-0.227028
-0.230413
-0.233889
-0.234893
-0.236689
-0.236421
-0.236145
-0.234713
-0.232902
-0.230321
-0.227264
-0.223482
-0.219248
-0.214057
-0.208428
-0.201369
-0.193611
-0.183888
-0.172553
-0.159517
-0.143112
-0.126836
-0.106677
-0.0876101
-0.0682165
-0.227585
-0.230683
-0.234228
-0.235119
-0.23693
-0.236629
-0.23635
-0.23491
-0.233099
-0.230518
-0.227465
-0.22368
-0.219454
-0.214249
-0.208608
-0.201525
-0.19369
-0.183954
-0.172464
-0.159414
-0.143102
-0.126663
-0.107153
-0.0882642
-0.0694392
-0.228203
-0.230976
-0.234595
-0.235357
-0.237181
-0.236841
-0.236556
-0.235105
-0.233288
-0.230702
-0.227643
-0.223846
-0.219602
-0.214361
-0.208659
-0.201514
-0.193511
-0.183714
-0.171996
-0.158854
-0.142652
-0.126081
-0.107195
-0.0886607
-0.0704392
-0.22888
-0.231288
-0.234986
-0.235602
-0.237438
-0.237052
-0.236756
-0.235288
-0.233459
-0.23086
-0.227783
-0.223956
-0.219666
-0.214361
-0.208535
-0.201287
-0.193023
-0.183103
-0.171114
-0.157814
-0.141747
-0.125133
-0.106847
-0.0888121
-0.0712518
-0.229611
-0.231616
-0.235396
-0.23585
-0.237694
-0.237254
-0.236942
-0.235452
-0.233603
-0.230979
-0.227867
-0.22399
-0.219617
-0.214211
-0.208188
-0.200787
-0.192181
-0.182067
-0.169803
-0.156313
-0.140414
-0.123878
-0.106187
-0.0887524
-0.0719067
-0.230394
-0.231957
-0.235819
-0.236094
-0.237944
-0.237442
-0.237109
-0.235587
-0.233709
-0.231046
-0.227878
-0.223922
-0.219419
-0.213868
-0.207573
-0.199959
-0.190955
-0.180585
-0.16807
-0.154406
-0.138718
-0.122389
-0.105306
-0.0885286
-0.0724254
-0.231227
-0.232307
-0.236251
-0.236331
-0.23818
-0.237608
-0.237247
-0.235684
-0.233765
-0.231046
-0.227793
-0.223724
-0.219036
-0.213288
-0.206647
-0.19876
-0.189331
-0.178667
-0.165954
-0.152175
-0.136749
-0.120741
-0.104284
-0.0881872
-0.0728237
-0.232106
-0.232662
-0.236687
-0.236553
-0.238398
-0.237746
-0.23735
-0.235735
-0.233758
-0.23096
-0.227589
-0.223363
-0.21843
-0.212427
-0.205381
-0.197167
-0.18732
-0.176362
-0.163518
-0.149713
-0.134602
-0.119005
-0.103184
-0.0877661
-0.0731154
-0.233028
-0.233018
-0.237122
-0.236757
-0.238592
-0.23785
-0.23741
-0.23573
-0.233676
-0.230768
-0.227238
-0.222805
-0.217565
-0.211248
-0.203759
-0.195184
-0.184956
-0.17374
-0.160843
-0.147111
-0.132359
-0.117234
-0.102047
-0.0872916
-0.0733128
-0.233991
-0.233373
-0.237551
-0.236938
-0.238756
-0.237913
-0.23742
-0.235657
-0.233503
-0.23045
-0.226712
-0.222015
-0.216411
-0.20973
-0.201785
-0.192841
-0.182294
-0.170886
-0.158012
-0.144446
-0.130084
-0.115467
-0.1009
-0.0867802
-0.0734275
-0.234993
-0.233722
-0.237969
-0.23709
-0.238884
-0.237932
-0.237372
-0.235506
-0.233221
-0.229981
-0.225981
-0.220965
-0.214948
-0.207867
-0.199483
-0.190192
-0.179402
-0.167881
-0.155098
-0.141774
-0.127823
-0.113727
-0.0997567
-0.0862411
-0.0734695
-0.236031
-0.234063
-0.238371
-0.237209
-0.238974
-0.237899
-0.237258
-0.235263
-0.232811
-0.229335
-0.225019
-0.219632
-0.213174
-0.205677
-0.196894
-0.1873
-0.176348
-0.164798
-0.152161
-0.139136
-0.125601
-0.112026
-0.0986243
-0.0856794
-0.0734472
-0.237104
-0.234393
-0.238755
-0.237298
-0.239015
-0.237808
-0.237069
-0.234914
-0.232254
-0.228491
-0.223804
-0.218007
-0.211096
-0.203194
-0.19407
-0.184234
-0.173198
-0.16169
-0.149245
-0.136553
-0.123433
-0.110369
-0.0975047
-0.0850974
-0.0733672
-0.238211
-0.23471
-0.239117
-0.237345
-0.239009
-0.237652
-0.236794
-0.234445
-0.231528
-0.227427
-0.222326
-0.216091
-0.208741
-0.200462
-0.191067
-0.181056
-0.170005
-0.158599
-0.146376
-0.134039
-0.121324
-0.108758
-0.0963974
-0.0844966
-0.0732347
-0.239349
-0.235012
-0.239457
-0.237347
-0.238952
-0.237427
-0.236422
-0.233838
-0.230616
-0.226128
-0.220581
-0.2139
-0.206143
-0.197533
-0.187938
-0.177817
-0.166811
-0.155549
-0.143571
-0.131598
-0.119274
-0.107189
-0.0953003
-0.0838777
-0.0730542
-0.24052
-0.235299
-0.239755
-0.237315
-0.238838
-0.237123
-0.235942
-0.233078
-0.229501
-0.224586
-0.218577
-0.211463
-0.203344
-0.194459
-0.184732
-0.174558
-0.163645
-0.152557
-0.140841
-0.129229
-0.117281
-0.105661
-0.094211
-0.0832412
-0.0728294
-0.241723
-0.235568
-0.240026
-0.237236
-0.238663
-0.236735
-0.235341
-0.232151
-0.228174
-0.222803
-0.216332
-0.208814
-0.200386
-0.191286
-0.181486
-0.171309
-0.160527
-0.14963
-0.138186
-0.12693
-0.115342
-0.104169
-0.0931265
-0.082588
-0.0725633
-0.242958
-0.235818
-0.24027
-0.237109
-0.238421
-0.236253
-0.234609
-0.231046
-0.226629
-0.220787
-0.213872
-0.205989
-0.197311
-0.188054
-0.178232
-0.168093
-0.157468
-0.146772
-0.135608
-0.124693
-0.113451
-0.102709
-0.0920439
-0.081919
-0.0722583
-0.244226
-0.236047
-0.240485
-0.236933
-0.238108
-0.235671
-0.233734
-0.229754
-0.224869
-0.218556
-0.211227
-0.203028
-0.194156
-0.184795
-0.174992
-0.164921
-0.154474
-0.143983
-0.133103
-0.122515
-0.111607
-0.101275
-0.0909606
-0.0812352
-0.0719162
-0.24553
-0.236283
-0.240648
-0.236708
-0.237719
-0.234981
-0.232711
-0.228272
-0.222902
-0.216131
-0.208428
-0.199966
-0.190952
-0.181533
-0.171782
-0.161803
-0.151547
-0.141261
-0.130668
-0.120387
-0.109804
-0.0998647
-0.0898744
-0.0805378
-0.071538
-0.246872
-0.236502
-0.240779
-0.23643
-0.237248
-0.234179
-0.231532
-0.226601
-0.220741
-0.213538
-0.205508
-0.196834
-0.187723
-0.178286
-0.168611
-0.158743
-0.148686
-0.138603
-0.128298
-0.118305
-0.10804
-0.0984715
-0.0887834
-0.0798276
-0.0711243
-0.248255
-0.23671
-0.240876
-0.236096
-0.236692
-0.233259
-0.230194
-0.224745
-0.218405
-0.210805
-0.202495
-0.193658
-0.18449
-0.175067
-0.165486
-0.155744
-0.145889
-0.136006
-0.125987
-0.116263
-0.106313
-0.0970907
-0.0876866
-0.0791049
-0.0706749
-0.249682
-0.236914
-0.240932
-0.235705
-0.23605
-0.232219
-0.228696
-0.222714
-0.215915
-0.207957
-0.199417
-0.190459
-0.181266
-0.171885
-0.16241
-0.152804
-0.143152
-0.133468
-0.123731
-0.114256
-0.104619
-0.095717
-0.0865837
-0.078369
-0.0701887
-0.251158
-0.237122
-0.240945
-0.235256
-0.235323
-0.231054
-0.227042
-0.22052
-0.213293
-0.20502
-0.196293
-0.187254
-0.178064
-0.168743
-0.159384
-0.149923
-0.140471
-0.130984
-0.121523
-0.112282
-0.102957
-0.0943454
-0.085475
-0.0776184
-0.069664
-0.252688
-0.237338
-0.240911
-0.234751
-0.234512
-0.229761
-0.225235
-0.21818
-0.210561
-0.202015
-0.193144
-0.184055
-0.174889
-0.165646
-0.156409
-0.147099
-0.137843
-0.128553
-0.119358
-0.110338
-0.101321
-0.0929713
-0.0843614
-0.0768505
-0.069099
-0.254278
-0.237568
-0.240823
-0.234197
-0.23362
-0.228337
-0.223284
-0.215712
-0.20774
-0.198963
-0.189982
-0.180871
-0.171747
-0.162594
-0.153482
-0.144329
-0.135263
-0.12617
-0.117232
-0.108421
-0.09971
-0.0915905
-0.0832444
-0.0760617
-0.0684919
-0.255934
-0.237815
-0.240679
-0.233604
-0.232646
-0.226783
-0.2212
-0.213131
-0.204849
-0.195878
-0.18682
-0.177709
-0.168641
-0.159586
-0.150604
-0.141609
-0.13273
-0.123834
-0.115139
-0.106532
-0.0981183
-0.0901996
-0.0821254
-0.0752468
-0.0678403
-0.257661
-0.238081
-0.240478
-0.232982
-0.231587
-0.2251
-0.218995
-0.210457
-0.201904
-0.192774
-0.183667
-0.174574
-0.165573
-0.156623
-0.147772
-0.138937
-0.130238
-0.12154
-0.113076
-0.104668
-0.0965411
-0.0887961
-0.0810059
-0.0743972
-0.0671383
-0.259467
-0.238362
-0.240224
-0.232339
-0.23044
-0.223292
-0.216683
-0.207706
-0.198921
-0.189662
-0.180527
-0.171467
-0.162541
-0.153702
-0.144983
-0.13631
-0.127787
-0.119286
-0.111039
-0.102831
-0.0949731
-0.0873803
-0.079886
-0.0734966
-0.0663739
-0.261359
-0.23865
-0.239931
-0.23168
-0.229203
-0.221365
-0.214276
-0.204891
-0.19591
-0.18655
-0.177407
-0.16839
-0.159547
-0.150822
-0.142237
-0.133725
-0.125374
-0.117068
-0.109027
-0.101019
-0.0934095
-0.0859561
-0.0787636
-0.0725171
-0.0655319
-0.263343
-0.238929
-0.239618
-0.230999
-0.227875
-0.21933
-0.211788
-0.202026
-0.192883
-0.183443
-0.174308
-0.165345
-0.15659
-0.147981
-0.13953
-0.131178
-0.122995
-0.114883
-0.107037
-0.0992305
-0.0918471
-0.0845324
-0.077632
-0.0714248
-0.0646107
-0.26541
-0.239193
-0.239314
-0.230284
-0.226457
-0.217193
-0.20923
-0.199122
-0.189846
-0.180346
-0.171233
-0.16233
-0.153667
-0.145176
-0.13686
-0.128667
-0.12065
-0.112728
-0.105069
-0.0974644
-0.0902855
-0.0831199
-0.0764812
-0.0702067
-0.0636465
-0.267555
-0.23943
-0.239048
-0.229518
-0.224951
-0.214964
-0.206613
-0.196189
-0.186807
-0.177263
-0.168182
-0.159345
-0.150778
-0.142407
-0.134226
-0.126189
-0.118337
-0.110601
-0.103122
-0.0957175
-0.0887261
-0.081726
-0.0753035
-0.068916
-0.0627114
-0.269784
-0.239618
-0.238843
-0.228686
-0.223362
-0.212653
-0.203947
-0.193234
-0.183769
-0.174195
-0.165156
-0.15639
-0.147922
-0.13967
-0.131625
-0.123743
-0.116052
-0.108498
-0.101195
-0.0939871
-0.087172
-0.0803502
-0.0741013
-0.0676853
-0.0618247
-0.272079
-0.23975
-0.238716
-0.227774
-0.221692
-0.210269
-0.201241
-0.190264
-0.180736
-0.171144
-0.162153
-0.153462
-0.145095
-0.136964
-0.129054
-0.121326
-0.113794
-0.106419
-0.0992868
-0.092271
-0.0856254
-0.0789866
-0.0728872
-0.0665812
-0.0609322
-0.27441
-0.239833
-0.238667
-0.226776
-0.219946
-0.207819
-0.1985
-0.187284
-0.177711
-0.168111
-0.159175
-0.150561
-0.142298
-0.134287
-0.126513
-0.118935
-0.111562
-0.10436
-0.0973965
-0.0905677
-0.0840872
-0.0776305
-0.0716836
-0.0655344
-0.0600165
-0.276739
-0.239882
-0.238678
-0.22569
-0.218127
-0.205311
-0.195732
-0.184297
-0.174695
-0.165094
-0.156219
-0.147685
-0.139527
-0.131637
-0.123998
-0.11657
-0.109353
-0.102321
-0.0955226
-0.088876
-0.082557
-0.0762816
-0.0704865
-0.0645169
-0.0591621
-0.279022
-0.239927
-0.238714
-0.224519
-0.216238
-0.202752
-0.19294
-0.181307
-0.171689
-0.162094
-0.153285
-0.144833
-0.136781
-0.129012
-0.121509
-0.114228
-0.107165
-0.1003
-0.0936639
-0.0871948
-0.0810347
-0.0749372
-0.0692975
-0.0635128
-0.0583206
-0.281207
-0.240005
-0.238732
-0.223269
-0.214282
-0.200148
-0.19013
-0.178315
-0.168693
-0.15911
-0.150371
-0.142003
-0.134059
-0.126411
-0.119042
-0.111907
-0.104998
-0.0982949
-0.0918191
-0.0855232
-0.079519
-0.0735975
-0.0681119
-0.0625083
-0.0574951
-0.283243
-0.240167
-0.238682
-0.221943
-0.212261
-0.197502
-0.187304
-0.175323
-0.165708
-0.156142
-0.147475
-0.139194
-0.131358
-0.123832
-0.116598
-0.109607
-0.102848
-0.0963052
-0.0899871
-0.0838602
-0.0780094
-0.0722606
-0.0669271
-0.0615024
-0.0566611
-0.285079
-0.240469
-0.238517
-0.220547
-0.210179
-0.194819
-0.184465
-0.172332
-0.162732
-0.153187
-0.144597
-0.136404
-0.128678
-0.121273
-0.114173
-0.107325
-0.100716
-0.0943294
-0.0881668
-0.0822047
-0.076505
-0.0709259
-0.0657411
-0.060489
-0.0558169
-0.286674
-0.240967
-0.238201
-0.219083
-0.208037
-0.192102
-0.181613
-0.169341
-0.159765
-0.150246
-0.141736
-0.133631
-0.126017
-0.118734
-0.111767
-0.10506
-0.0985995
-0.0923663
-0.086357
-0.0805559
-0.075005
-0.069592
-0.064552
-0.0594687
-0.0549558
-0.287995
-0.241716
-0.237714
-0.217551
-0.205839
-0.189353
-0.178751
-0.166351
-0.156806
-0.147316
-0.138889
-0.130874
-0.123373
-0.116211
-0.109378
-0.102811
-0.096497
-0.0904147
-0.0845568
-0.0789129
-0.0735086
-0.0682582
-0.0633591
-0.058439
-0.0540779
-0.289021
-0.242757
-0.237049
-0.215949
-0.203589
-0.186574
-0.175878
-0.163361
-0.153854
-0.144396
-0.136055
-0.128132
-0.120744
-0.113705
-0.107004
-0.100577
-0.0944074
-0.0884737
-0.082765
-0.0772748
-0.072015
-0.0669234
-0.0621612
-0.0574002
-0.0531827
-0.289739
-0.244116
-0.236213
-0.214276
-0.201288
-0.183767
-0.172995
-0.16037
-0.150907
-0.141486
-0.133233
-0.125404
-0.11813
-0.111213
-0.104645
-0.0983555
-0.0923297
-0.0865422
-0.0809809
-0.075641
-0.0705237
-0.0655868
-0.060958
-0.0563517
-0.0522707
-0.290147
-0.245793
-0.235224
-0.212527
-0.198939
-0.180932
-0.170101
-0.157377
-0.147965
-0.138583
-0.130421
-0.122687
-0.115529
-0.108734
-0.102298
-0.0961464
-0.0902626
-0.0846193
-0.0792034
-0.0740106
-0.0690339
-0.064248
-0.059749
-0.0552935
-0.0513426
-0.290251
-0.247761
-0.234104
-0.210698
-0.196545
-0.17807
-0.167196
-0.154382
-0.145025
-0.135686
-0.127619
-0.119981
-0.11294
-0.106268
-0.099964
-0.0939482
-0.0882052
-0.0827042
-0.0774318
-0.072383
-0.0675452
-0.0629062
-0.0585341
-0.0542256
-0.0503989
-0.290061
-0.249961
-0.232878
-0.208784
-0.194108
-0.17518
-0.164279
-0.151383
-0.142087
-0.132794
-0.124824
-0.117284
-0.110362
-0.103812
-0.0976404
-0.0917601
-0.0861565
-0.0807961
-0.0756652
-0.0707577
-0.0660568
-0.0615611
-0.0573131
-0.0531481
-0.0494403
-0.289594
-0.252309
-0.231571
-0.20678
-0.191628
-0.172263
-0.16135
-0.148379
-0.13915
-0.129906
-0.122036
-0.114596
-0.107792
-0.101367
-0.0953265
-0.0895809
-0.0841156
-0.078894
-0.073903
-0.0691341
-0.0645685
-0.0602122
-0.0560858
-0.0520611
-0.0484674
-0.288871
-0.254698
-0.230202
-0.204679
-0.189106
-0.169318
-0.158406
-0.145369
-0.136211
-0.12702
-0.119253
-0.111914
-0.105232
-0.0989297
-0.0930212
-0.0874098
-0.0820817
-0.0769975
-0.0721445
-0.0675118
-0.0630796
-0.0588592
-0.0548524
-0.0509649
-0.0474807
-0.28792
-0.257004
-0.228787
-0.202479
-0.186542
-0.166344
-0.155447
-0.142351
-0.13327
-0.124136
-0.116474
-0.109239
-0.102678
-0.0965005
-0.0907238
-0.0852459
-0.0800539
-0.0751057
-0.0703889
-0.0658902
-0.0615898
-0.0575019
-0.0536129
-0.0498594
-0.0464808
-0.286778
-0.259101
-0.227334
-0.200174
-0.183936
-0.163342
-0.152471
-0.139324
-0.130325
-0.121251
-0.113698
-0.106568
-0.100131
-0.0940781
-0.0884332
-0.0830883
-0.0780315
-0.073218
-0.0686359
-0.0642691
-0.0600988
-0.0561402
-0.0523673
-0.0487449
-0.0454681
-0.28549
-0.260865
-0.225848
-0.197762
-0.181287
-0.160309
-0.149477
-0.136287
-0.127375
-0.118365
-0.110924
-0.103901
-0.0975885
-0.0916616
-0.0861487
-0.0809364
-0.0760139
-0.0713338
-0.0668848
-0.062648
-0.0586061
-0.0547738
-0.0511157
-0.0476215
-0.0444432
-0.284112
-0.262193
-0.22433
-0.19524
-0.178594
-0.157245
-0.146463
-0.133238
-0.124418
-0.115476
-0.10815
-0.101237
-0.0950507
-0.0892501
-0.0838694
-0.0787893
-0.0740004
-0.0694527
-0.0651352
-0.0610267
-0.0571116
-0.0534027
-0.0498583
-0.0464894
-0.0434065
-0.282708
-0.263003
-0.222778
-0.192608
-0.175855
-0.154148
-0.143428
-0.130176
-0.121454
-0.112584
-0.105377
-0.0985743
-0.0925164
-0.0868428
-0.0815946
-0.0766465
-0.0719905
-0.067574
-0.0633867
-0.0594049
-0.055615
-0.0520269
-0.0485951
-0.0453487
-0.0423584
-0.28135
-0.263245
-0.221187
-0.189866
-0.173069
-0.151019
-0.140371
-0.1271
-0.118481
-0.109687
-0.102602
-0.0959128
-0.0899846
-0.084439
-0.0793236
-0.0745073
-0.0699835
-0.0656974
-0.0616388
-0.0577823
-0.054116
-0.0506464
-0.0473263
-0.0441994
-0.0412994
-0.280112
-0.262902
-0.21955
-0.187016
-0.170233
-0.147856
-0.137289
-0.124008
-0.115497
-0.106785
-0.0998244
-0.0932516
-0.0874548
-0.0820379
-0.0770558
-0.0723711
-0.067979
-0.0638224
-0.0598914
-0.0561587
-0.0526145
-0.0492612
-0.0460519
-0.0430419
-0.04023
-0.279071
-0.261986
-0.217863
-0.18406
-0.167347
-0.144657
-0.134183
-0.1209
-0.112503
-0.103876
-0.0970441
-0.0905896
-0.084926
-0.079639
-0.0747905
-0.0702374
-0.0659766
-0.0619486
-0.058144
-0.054534
-0.0511103
-0.0478713
-0.0447721
-0.0418762
-0.0391506
-0.278297
-0.260535
-0.21612
-0.181003
-0.164409
-0.141422
-0.131049
-0.117773
-0.109496
-0.10096
-0.0942599
-0.0879263
-0.0823976
-0.0772415
-0.0725273
-0.0681057
-0.0639758
-0.0600757
-0.0563965
-0.052908
-0.0496033
-0.046477
-0.043487
-0.0407025
-0.0380617
-0.277852
-0.258605
-0.214315
-0.177847
-0.161416
-0.138149
-0.127888
-0.114628
-0.106476
-0.0980355
-0.0914709
-0.0852609
-0.0798691
-0.0748449
-0.0702656
-0.0659756
-0.0619762
-0.0582035
-0.0546486
-0.0512805
-0.0480935
-0.0450781
-0.0421967
-0.039521
-0.0369637
-0.277787
-0.256263
-0.212445
-0.174597
-0.158368
-0.134838
-0.124697
-0.111463
-0.103442
-0.0951019
-0.0886765
-0.0825927
-0.0773397
-0.0724487
-0.0680049
-0.0638467
-0.0599776
-0.0563315
-0.0529001
-0.0496515
-0.0465808
-0.0436749
-0.0409012
-0.0383318
-0.0358572
-0.278139
-0.253578
-0.210504
-0.171257
-0.155262
-0.131487
-0.121475
-0.108276
-0.100392
-0.0921584
-0.0858759
-0.0799212
-0.074809
-0.0700524
-0.0657449
-0.0617186
-0.0579797
-0.0544597
-0.051151
-0.0480208
-0.0450652
-0.0422675
-0.0396007
-0.037135
-0.0347425
-0.278928
-0.250618
-0.20849
-0.167831
-0.152098
-0.128096
-0.118222
-0.105068
-0.0973271
-0.0892044
-0.0830686
-0.0772458
-0.0722765
-0.0676557
-0.0634851
-0.0595911
-0.0559822
-0.0525878
-0.049401
-0.0463885
-0.0435466
-0.040856
-0.0382953
-0.035931
-0.0336201
-0.280162
-0.247441
-0.206397
-0.164321
-0.148873
-0.124662
-0.114935
-0.101836
-0.094245
-0.086239
-0.0802539
-0.074566
-0.0697417
-0.065258
-0.0612253
-0.0574638
-0.0539848
-0.0507156
-0.0476502
-0.0447545
-0.0420252
-0.0394406
-0.0369851
-0.0347199
-0.0324904
-0.281832
-0.244098
-0.204223
-0.160731
-0.145586
-0.121186
-0.111615
-0.0985809
-0.0911454
-0.0832619
-0.0774312
-0.0718814
-0.0672041
-0.0628591
-0.0589651
-0.0553365
-0.0519875
-0.0488432
-0.0458984
-0.0431188
-0.040501
-0.0380215
-0.0356702
-0.0335021
-0.0313536
-0.283918
-0.240628
-0.201962
-0.157063
-0.142235
-0.117667
-0.108259
-0.0953009
-0.0880275
-0.0802723
-0.0746002
-0.0691915
-0.0646636
-0.0604586
-0.0567043
-0.053209
-0.0499901
-0.0469703
-0.0441457
-0.0414814
-0.0389742
-0.0365989
-0.0343509
-0.0322778
-0.0302104
-0.286388
-0.237061
-0.19961
-0.153318
-0.138819
-0.114102
-0.104868
-0.0919955
-0.0848908
-0.0772697
-0.0717603
-0.066496
-0.0621196
-0.0580563
-0.0544427
-0.0510812
-0.0479924
-0.0450969
-0.0423921
-0.0398424
-0.0374447
-0.035173
-0.0330273
-0.0310475
-0.0290612
-0.289203
-0.233418
-0.197161
-0.149498
-0.135336
-0.110491
-0.101439
-0.0886638
-0.0817346
-0.0742538
-0.0689112
-0.0637945
-0.0595721
-0.0556521
-0.0521801
-0.0489529
-0.0459944
-0.043223
-0.0406375
-0.0382019
-0.0359129
-0.0337438
-0.0316997
-0.029812
-0.0279073
-0.292313
-0.229709
-0.19461
-0.145603
-0.131784
-0.106833
-0.0979726
-0.0853053
-0.0785584
-0.0712242
-0.0660525
-0.0610869
-0.0570207
-0.0532457
-0.0499163
-0.0468242
-0.0439961
-0.0413487
-0.0388821
-0.03656
-0.0343787
-0.0323116
-0.0303681
-0.0285717
-0.0267498
-0.295667
-0.225942
-0.19195
-0.141631
-0.128162
-0.103127
-0.0944673
-0.0819194
-0.0753618
-0.0681804
-0.063184
-0.0583729
-0.0544652
-0.0508369
-0.0476514
-0.0446948
-0.0419974
-0.0394739
-0.0371259
-0.0349167
-0.0328424
-0.0308765
-0.0290325
-0.027327
-0.0255897
-0.299205
-0.222115
-0.189174
-0.137584
-0.124468
-0.0993721
-0.0909226
-0.0785055
-0.0721443
-0.0651221
-0.0603055
-0.0556523
-0.0519057
-0.0484259
-0.0453853
-0.0425649
-0.0399985
-0.0375987
-0.0353691
-0.0332723
-0.0313042
-0.0294386
-0.0276933
-0.026078
-0.0244262
-0.302868
-0.218226
-0.186275
-0.133459
-0.1207
-0.0955667
-0.0873378
-0.075063
-0.0689058
-0.0620492
-0.0574169
-0.052925
-0.0493419
-0.0460124
-0.043118
-0.0404345
-0.0379993
-0.0357233
-0.0336118
-0.0316269
-0.0297641
-0.0279983
-0.026351
-0.0248247
-0.0232549
-0.306592
-0.214266
-0.183246
-0.129254
-0.116857
-0.0917101
-0.0837124
-0.0715916
-0.065646
-0.0589613
-0.0545179
-0.050191
-0.0467739
-0.0435966
-0.0408494
-0.0383037
-0.036
-0.0338479
-0.0318543
-0.0299807
-0.0282225
-0.0265558
-0.025007
-0.0235683
-0.0220679
-0.310314
-0.210227
-0.180078
-0.124968
-0.112936
-0.0878013
-0.0800457
-0.0680907
-0.0623651
-0.0558583
-0.0516086
-0.0474505
-0.0442016
-0.0411785
-0.0385797
-0.0361724
-0.0340008
-0.0319725
-0.0300967
-0.028334
-0.0266796
-0.0251114
-0.0236621
-0.0223108
-0.0208579
-0.31397
-0.206095
-0.176765
-0.120598
-0.108937
-0.0838392
-0.0763377
-0.0645597
-0.0590628
-0.0527405
-0.0486887
-0.0447035
-0.0416248
-0.0387579
-0.036309
-0.0340409
-0.0320017
-0.0300973
-0.0283392
-0.026687
-0.0251358
-0.0236656
-0.0223167
-0.0210513
-0.0196308
-0.317498
-0.201859
-0.173298
-0.116142
-0.104858
-0.0798226
-0.0725884
-0.0609982
-0.0557381
-0.0496088
-0.0457584
-0.0419497
-0.0390442
-0.0363348
-0.0340377
-0.0319093
-0.0300031
-0.0282226
-0.0265822
-0.0250399
-0.0235913
-0.0222196
-0.0209706
-0.0197806
-0.0184129
-0.320834
-0.197504
-0.169669
-0.111596
-0.100698
-0.07575
-0.068798
-0.0574069
-0.0523897
-0.046463
-0.0428188
-0.0391876
-0.0364609
-0.0339091
-0.0317663
-0.029778
-0.0280051
-0.0263486
-0.0248258
-0.0233928
-0.0220462
-0.0207752
-0.0196228
-0.0184956
-0.017213
-0.323919
-0.193016
-0.165871
-0.106958
-0.096456
-0.0716203
-0.0649655
-0.0537868
-0.0490187
-0.0432994
-0.0398728
-0.0364152
-0.0338764
-0.0314817
-0.0294949
-0.0276474
-0.0260079
-0.0244759
-0.0230702
-0.0217462
-0.0205015
-0.0193315
-0.0182712
-0.017205
-0.0160225
-0.326695
-0.18838
-0.161898
-0.102225
-0.0921313
-0.0674339
-0.0610886
-0.0501357
-0.0456348
-0.0401091
-0.0369229
-0.0336342
-0.0312898
-0.029055
-0.0272219
-0.0255176
-0.0240117
-0.0226045
-0.0213158
-0.0201003
-0.0189578
-0.0178879
-0.0169158
-0.015914
-0.0148343
-0.329106
-0.183581
-0.157741
-0.0973914
-0.0877239
-0.0631926
-0.0571685
-0.0464422
-0.0422561
-0.0368857
-0.0339653
-0.0308549
-0.0286938
-0.026628
-0.0249486
-0.0233887
-0.022017
-0.0207347
-0.0195629
-0.0184557
-0.0174154
-0.0164441
-0.0155581
-0.0146244
-0.013645
-0.3311
-0.178606
-0.153396
-0.0924551
-0.0832322
-0.0588935
-0.0532204
-0.0426876
-0.0388866
-0.0336476
-0.0309854
-0.028076
-0.0260932
-0.0241999
-0.022676
-0.021261
-0.0200241
-0.018867
-0.0178119
-0.0168128
-0.0158744
-0.0150006
-0.0141996
-0.0133361
-0.0124537
-0.332627
-0.173441
-0.148856
-0.087414
-0.0786544
-0.0545144
-0.0492761
-0.038873
-0.0354721
-0.0304325
-0.0279885
-0.0252936
-0.0234903
-0.0217709
-0.0204044
-0.019135
-0.0180334
-0.0170016
-0.0160632
-0.0151721
-0.0143354
-0.0135579
-0.0128413
-0.0120488
-0.0112607
-0.333643
-0.168072
-0.144117
-0.0822692
-0.0739958
-0.050015
-0.0453497
-0.0350536
-0.0319959
-0.0272177
-0.0249809
-0.0225058
-0.0208861
-0.0193413
-0.0181342
-0.017011
-0.0160454
-0.015139
-0.0143173
-0.0135339
-0.0127985
-0.0121168
-0.0114839
-0.0107622
-0.0100667
-0.334104
-0.162486
-0.139175
-0.0770157
-0.0692807
-0.0453907
-0.0413719
-0.031262
-0.0284816
-0.023994
-0.0219661
-0.0197126
-0.0182812
-0.0169119
-0.0158657
-0.0148896
-0.0140604
-0.0132797
-0.0125746
-0.0118987
-0.0112643
-0.0106777
-0.0101279
-0.00947644
-0.00887251
-0.333972
-0.156672
-0.134025
-0.0716217
-0.0645436
-0.0407613
-0.0372587
-0.0274685
-0.0249418
-0.0207573
-0.0189457
-0.0169148
-0.0156757
-0.0144832
-0.0135994
-0.0127712
-0.0120789
-0.0114241
-0.0108356
-0.0102671
-0.00973325
-0.00924127
-0.00877374
-0.00819187
-0.00767875
-0.333213
-0.150619
-0.128661
-0.0660271
-0.0597784
-0.0361321
-0.033063
-0.0236587
-0.0213831
-0.0175071
-0.0159202
-0.0141132
-0.0130702
-0.012056
-0.0113358
-0.0106563
-0.0101015
-0.00957272
-0.00910078
-0.00863938
-0.00820594
-0.00780802
-0.00742178
-0.00690893
-0.00648616
-0.331796
-0.144315
-0.123089
-0.0602274
-0.0549508
-0.031511
-0.0288071
-0.0198258
-0.0178084
-0.0142437
-0.0128901
-0.0113088
-0.010465
-0.00963076
-0.00907549
-0.00854556
-0.00812851
-0.00772607
-0.00737062
-0.00701618
-0.00668289
-0.00637846
-0.00607254
-0.00562816
-0.00529535
-0.329695
-0.137756
-0.117338
-0.0544195
-0.0498901
-0.0268674
-0.0245036
-0.0159672
-0.0142195
-0.0109685
-0.00985588
-0.00850247
-0.00786071
-0.00720824
-0.00681898
-0.00643944
-0.00616064
-0.00588468
-0.00564566
-0.00539803
-0.00516466
-0.00495312
-0.00472654
-0.00435015
-0.00410693
-0.326887
-0.130933
-0.111438
-0.0484954
-0.0446755
-0.0221867
-0.020159
-0.0120825
-0.0106174
-0.00768262
-0.00681798
-0.00569516
-0.00525801
-0.00478906
-0.0045669
-0.00433854
-0.00419841
-0.00404911
-0.00392646
-0.0037855
-0.00365182
-0.00353254
-0.00338434
-0.00307552
-0.00292142
-0.323354
-0.123827
-0.105352
-0.0424732
-0.0393388
-0.0174616
-0.0157776
-0.00817241
-0.00700287
-0.00438753
-0.0037771
-0.00288777
-0.00265763
-0.00237393
-0.00231993
-0.00224349
-0.00224242
-0.00221993
-0.00221359
-0.00217917
-0.00214495
-0.00211727
-0.00204655
-0.00180494
-0.00173935
-0.319079
-0.116384
-0.0989928
-0.0364496
-0.0338988
-0.0126891
-0.0113619
-0.00423803
-0.00337681
-0.0010846
-0.000734037
-8.1221e-05
-6.03225e-05
3.64286e-05
-7.87367e-05
-0.000154924
-0.000293278
-0.000397747
-0.00050765
-0.000579656
-0.000644638
-0.0007079
-0.000713804
-0.000539094
-0.00056128
-0.314054
-0.10856
-0.0924646
-0.0303617
-0.0283648
-0.00786811
-0.00691432
-0.000280947
0.000259887
0.00222477
0.00231032
0.00272353
0.00253307
0.00244126
0.00215596
0.00192648
0.00164838
0.00141683
0.00119075
0.00101242
0.000848497
0.000694983
0.000613229
0.000721282
0.000612138
-0.308271
-0.10044
-0.0857095
-0.0241916
-0.0227433
-0.00299893
-0.00243663
0.00369709
0.00390618
0.00553918
0.00535497
0.00552551
0.00512167
0.00483975
0.00438343
0.00400003
0.00358189
0.00322318
0.00288099
0.00259644
0.00233383
0.00209075
0.00193385
0.0019754
0.00178015
-0.301728
-0.0921853
-0.0786044
-0.0179295
-0.0170391
0.00191735
0.00206932
0.0076942
0.0075609
0.0088572
0.00839884
0.00832368
0.00770457
0.00723109
0.0066029
0.00606501
0.00550658
0.00502063
0.00456241
0.00417173
0.00381073
0.00347876
0.00324729
0.00322237
0.00294199
-0.294425
-0.0837057
-0.0712284
-0.0115714
-0.0112567
0.00687902
0.00660165
0.0117084
0.0112227
0.0121774
0.0114408
0.011117
0.0102808
0.00961439
0.00881357
0.00812068
0.00742175
0.00680852
0.00623435
0.00573764
0.00527854
0.00485833
0.00455275
0.00446127
0.00409701
-0.286381
-0.0749616
-0.0636091
-0.00511593
-0.00539984
0.0118839
0.0111584
0.0157376
0.0148903
0.0154982
0.0144795
0.0139043
0.0128494
0.0119888
0.0110146
0.0101663
0.00932668
0.00858618
0.00789616
0.00729349
0.00673659
0.00622877
0.00584938
0.00569112
0.00524468
-0.277645
-0.0659009
-0.0557619
0.0014357
0.00052743
0.0169296
0.0157376
0.0197796
0.0185619
0.0188182
0.0175138
0.0166846
0.0154093
0.0143533
0.0132052
0.012201
0.0112207
0.0103529
0.00954714
0.00883861
0.00818422
0.00758938
0.00713634
0.00691094
0.00638421
-0.268267
-0.0564842
-0.0476977
0.00808093
0.00652117
0.0220132
0.0203369
0.0238323
0.022236
0.0221357
0.0205423
0.0194565
0.0179595
0.016707
0.0153845
0.0142241
0.0131029
0.012108
0.0111866
0.0103723
0.00962074
0.00893949
0.00841285
0.00811972
0.00751413
-0.258156
-0.0468099
-0.0394275
0.0148163
0.0125773
0.0271318
0.0249539
0.0278932
0.0259108
0.0254491
0.0235637
0.0222188
0.0204988
0.0190489
0.0175515
0.0162347
0.0149727
0.0138507
0.0128138
0.0118939
0.0110455
0.0102784
0.00967808
0.00931629
0.00863247
-0.24712
-0.0370775
-0.0309627
0.021638
0.0186915
0.032282
0.0295862
0.0319601
0.0295844
0.0287568
0.0265763
0.0249703
0.0230261
0.021378
0.0197053
0.018232
0.0168293
0.0155804
0.0144282
0.0134026
0.0124577
0.0116054
0.0109311
0.0104992
0.00973786
-0.235354
-0.0271641
-0.0223131
0.0285417
0.0248594
0.0374604
0.034231
0.0360304
0.0332547
0.0320568
0.0295788
0.0277097
0.0255403
0.0236932
0.0218451
0.0202152
0.0186719
0.0172962
0.0160289
0.0148978
0.0138568
0.0129197
0.0121707
0.0116667
0.0108303
-0.222891
-0.0170512
-0.0134889
0.0355227
0.0310763
0.0426634
0.0388854
0.0401017
0.0369199
0.0353476
0.0325695
0.0304356
0.0280401
0.0259936
0.0239698
0.0221833
0.0204996
0.0189975
0.0176152
0.0163789
0.0152421
0.0142207
0.0133956
0.0128168
0.0119094
-0.209753
-0.00673898
-0.00450035
0.0425757
0.0373372
0.0478871
0.0435464
0.0441712
0.0405776
0.0386271
0.0355469
0.0331465
0.0305243
0.0282779
0.0260785
0.0241355
0.0223118
0.0206835
0.0191866
0.0178451
0.0166131
0.0155076
0.0146047
0.0139476
0.0129701
-0.19597
0.00376799
0.00464183
0.0496948
0.0436369
0.0531275
0.048211
0.0482362
0.0442257
0.0418935
0.0385094
0.0358412
0.0329917
0.0305451
0.0281702
0.0260709
0.0241075
0.0223535
0.0207422
0.0192959
0.0179691
0.0167799
0.0157973
0.0150568
0.0140028
-0.181569
0.014462
0.0139266
0.056874
0.0499702
0.0583806
0.0528757
0.052294
0.0478619
0.0451449
0.0414552
0.038518
0.035441
0.032794
0.0302438
0.0279885
0.0258861
0.0240068
0.0222815
0.0207306
0.0193096
0.018037
0.0169728
0.016143
0.0150042
-0.166584
0.0253332
0.0233423
0.0641067
0.0563312
0.0636419
0.0575371
0.0563418
0.0514837
0.0483791
0.0443825
0.0411756
0.0378708
0.0350235
0.0322985
0.0298876
0.0276465
0.0256425
0.0238037
0.0221486
0.0206337
0.0192782
0.018131
0.0172079
0.0159915
-0.151046
0.03637
0.0328771
0.0713859
0.0627143