/*--------------------------------*- C++ -*----------------------------------*\
  =========                 |
  \\      /  F ield         | OpenFOAM: The Open Source CFD Toolbox
   \\    /   O peration     | Website:  https://openfoam.org
    \\  /    A nd           | Version:  7
     \\/     M anipulation  |
\*---------------------------------------------------------------------------*/
FoamFile
{
    version     2.0;
    format      ascii;
    class       volScalarField;
    location    "14";
    object      p;
}
// * * * * * * * * * * * * * * * * * * * * * * * * * * * * * * * * * * * * * //

dimensions      [1 -1 -2 0 0 0 0];

internalField   nonuniform List<scalar> 
2413
(
0.911509
0.911914
0.911888
0.911709
0.911811
0.912397
0.912546
0.912947
0.913811
0.914358
0.915337
0.916432
0.917182
0.918617
0.920644
0.923264
0.92803
0.93882
0.96063
0.997952
1.04421
0.869039
0.863752
0.860014
0.857474
0.85336
0.848759
0.844138
0.83928
0.838495
0.840386
0.849885
0.874849
0.921393
0.975512
1.00424
1.00887
1.00882
1.00806
1.00533
1.00111
0.997879
0.994971
0.993408
0.992808
0.992344
0.990872
0.988755
0.986216
0.983053
0.979763
0.976348
0.972595
0.968313
0.964052
0.959711
0.954795
0.950459
0.946418
0.941797
0.937114
0.933036
0.929091
0.924671
0.920199
0.916412
0.912412
0.906614
0.900569
0.897101
0.893518
0.888686
0.884566
0.881184
0.877209
0.871705
0.866814
0.863556
0.860053
0.855233
0.850792
0.848007
0.844967
0.840899
0.836516
0.833479
0.830371
0.82644
0.82205
0.81986
0.818108
0.815785
0.814256
0.814131
0.814238
0.81478
0.816439
0.818272
0.820769
0.826708
0.834962
0.842949
0.855127
0.865626
0.872089
0.87922
0.885637
0.888946
0.892594
0.89613
0.898258
0.900574
0.902224
0.902582
0.903145
0.903929
0.90425
0.903929
0.904032
0.905036
0.906443
0.907474
0.908287
0.909235
0.910109
0.910449
0.910653
0.911304
0.911952
0.912177
0.912391
0.912435
0.912462
0.912874
0.913046
0.912972
0.913105
0.913795
0.914132
0.914386
0.915296
0.916121
0.916817
0.917946
0.918713
0.919605
0.921325
0.923418
0.927035
0.934181
0.949741
0.979637
1.02463
0.883145
0.878212
0.874595
0.87194
0.86854
0.863648
0.859734
0.854808
0.851158
0.851547
0.85543
0.869553
0.902553
0.955884
1.00534
1.02166
1.02284
1.02196
1.01888
1.01288
1.00771
1.00346
1.00052
0.998733
0.996628
0.993847
0.991866
0.989564
0.986584
0.983354
0.98009
0.97665
0.972811
0.96927
0.965594
0.961127
0.95665
0.952462
0.947932
0.943274
0.939447
0.935947
0.931949
0.928002
0.925052
0.921652
0.916734
0.910858
0.90618
0.901864
0.896236
0.89085
0.887532
0.883936
0.878984
0.874498
0.871741
0.868682
0.8644
0.86021
0.857326
0.854237
0.849963
0.845188
0.842161
0.839171
0.835329
0.830668
0.828067
0.825657
0.822658
0.820131
0.818184
0.817321
0.817022
0.817229
0.818102
0.819538
0.821784
0.825379
0.830448
0.838836
0.850932
0.859568
0.868942
0.879984
0.885288
0.89013
0.896079
0.899495
0.902459
0.905936
0.907734
0.908784
0.909886
0.910334
0.910277
0.910512
0.911058
0.911673
0.912084
0.912308
0.912682
0.913275
0.913846
0.914087
0.914369
0.915098
0.915088
0.914597
0.914547
0.914586
0.914713
0.914665
0.914564
0.914765
0.915583
0.916494
0.917206
0.918176
0.919319
0.919983
0.920738
0.921422
0.921818
0.922849
0.924608
0.927326
0.932558
0.943049
0.964817
1.00336
0.897309
0.892061
0.88914
0.886216
0.88289
0.878336
0.874331
0.870444
0.864821
0.862911
0.864031
0.870422
0.889303
0.930958
0.987599
1.02908
1.03919
1.03931
1.03698
1.03094
1.02251
1.01596
1.01057
1.00734
1.00533
1.00309
1.00108
0.998459
0.994943
0.991076
0.987424
0.983659
0.980255
0.977464
0.974106
0.970116
0.965922
0.961586
0.957248
0.952758
0.948709
0.944953
0.940655
0.935604
0.931736
0.928144
0.923609
0.918596
0.914733
0.910865
0.905826
0.900462
0.896745
0.893162
0.888292
0.882976
0.880161
0.877331
0.873063
0.868856
0.866325
0.863461
0.859493
0.855035
0.851945
0.848983
0.845373
0.840623
0.837404
0.83468
0.831409
0.827222
0.824768
0.823691
0.822048
0.820869
0.820827
0.821008
0.821689
0.823195
0.825137
0.828034
0.834803
0.843766
0.85301
0.866388
0.876186
0.883235
0.892059
0.898046
0.901625
0.90641
0.91048
0.912182
0.914303
0.916777
0.917391
0.917729
0.918055
0.918085
0.918034
0.918228
0.918538
0.918906
0.918663
0.917694
0.91738
0.917465
0.917527
0.917672
0.918084
0.918505
0.918838
0.919015
0.918837
0.918849
0.919563
0.920322
0.920935
0.92175
0.922757
0.92339
0.923852
0.92445
0.924866
0.92553
0.926993
0.92903
0.932447
0.939394
0.953402
0.982446
0.911872
0.905951
0.902998
0.900537
0.896834
0.892698
0.888722
0.885185
0.880255
0.874737
0.87423
0.876294
0.885225
0.909036
0.958363
1.01498
1.05023
1.05687
1.05622
1.05205
1.04426
1.03586
1.02888
1.02219
1.01581
1.01316
1.0115
1.00879
1.00523
1.00166
0.998423
0.994339
0.989457
0.985751
0.981888
0.977478
0.973656
0.97007
0.966374
0.962463
0.958716
0.954967
0.950936
0.946339
0.941827
0.937764
0.933293
0.927433
0.922546
0.918858
0.914495
0.909373
0.90632
0.903377
0.899137
0.894106
0.890827
0.887805
0.883652
0.878719
0.87571
0.872834
0.868859
0.864396
0.861838
0.859247
0.855817
0.851321
0.847965
0.845121
0.841695
0.837088
0.833389
0.831369
0.828903
0.826052
0.825028
0.824592
0.824645
0.825177
0.825764
0.826509
0.82823
0.832462
0.838212
0.847417
0.859473
0.868458
0.878983
0.891191
0.896795
0.902317
0.909148
0.912878
0.915439
0.919396
0.922465
0.923721
0.924947
0.92517
0.925135
0.925095
0.925061
0.92502
0.924222
0.923523
0.92344
0.923422
0.923135
0.922709
0.922556
0.922525
0.92254
0.922726
0.923127
0.923749
0.924741
0.925763
0.926423
0.927016
0.927758
0.928233
0.928532
0.929062
0.929552
0.929946
0.930665
0.931653
0.932994
0.936602
0.945197
0.963804
0.926506
0.920894
0.916437
0.914242
0.911019
0.906283
0.902924
0.899526
0.895418
0.889503
0.885049
0.885267
0.888546
0.899645
0.929469
0.983595
1.03788
1.07005
1.07412
1.07264
1.06734
1.05877
1.0503
1.04204
1.03511
1.02978
1.02571
1.02184
1.01715
1.01272
1.00984
1.00646
1.00206
0.997919
0.993894
0.98949
0.985302
0.981528
0.977893
0.973813
0.969492
0.964464
0.958713
0.954772
0.951089
0.947619
0.94427
0.939812
0.93456
0.930232
0.925838
0.920125
0.916147
0.913458
0.90988
0.904929
0.901733
0.899022
0.895131
0.890092
0.886839
0.883876
0.879871
0.875252
0.872359
0.869566
0.866082
0.861415
0.858048
0.855495
0.852341
0.848025
0.844226
0.84203
0.839275
0.835427
0.83195
0.830474
0.82869
0.827256
0.827101
0.827486
0.828503
0.82958
0.830879
0.83362
0.840308
0.849736
0.859069
0.87215
0.884052
0.892129
0.90159
0.908583
0.912659
0.917752
0.923245
0.925991
0.928008
0.930279
0.931918
0.932998
0.93344
0.932805
0.931519
0.931222
0.931055
0.931014
0.930642
0.93002
0.92969
0.929603
0.929778
0.930441
0.931298
0.932078
0.932725
0.933248
0.933502
0.933644
0.933948
0.934211
0.934309
0.934704
0.934825
0.934062
0.9334
0.933116
0.933231
0.934439
0.939184
0.950323
0.94054
0.936261
0.930586
0.927214
0.924807
0.920478
0.916366
0.913666
0.909909
0.905145
0.89883
0.89545
0.89603
0.900161
0.913417
0.948812
1.00337
1.05648
1.08822
1.09073
1.08884
1.08343
1.07527
1.06492
1.05405
1.04739
1.04227
1.03764
1.03366
1.02962
1.02552
1.02125
1.01593
1.01044
1.00553
1.00082
0.996602
0.99307
0.989962
0.986876
0.983315
0.978979
0.973441
0.968266
0.963381
0.957357
0.953534
0.950506
0.946313
0.942461
0.938984
0.934199
0.929293
0.926137
0.922495
0.917303
0.913314
0.910275
0.906448
0.9013
0.897904
0.895172
0.891591
0.887078
0.884081
0.881251
0.877597
0.872527
0.868816
0.866304
0.863239
0.858932
0.855068
0.852878
0.850153
0.846147
0.84175
0.839656
0.837256
0.834238
0.832061
0.831241
0.830257
0.829837
0.830103
0.830901
0.83241
0.835835
0.841324
0.849243
0.860982
0.872286
0.882765
0.894229
0.90311
0.911061
0.918528
0.922492
0.926269
0.931507
0.935245
0.937302
0.938999
0.939691
0.940122
0.941009
0.941605
0.941452
0.940296
0.939125
0.9388
0.938788
0.939206
0.940076
0.940937
0.941209
0.941073
0.940845
0.940619
0.940435
0.940405
0.939983
0.939194
0.938539
0.937583
0.935932
0.934067
0.93291
0.932774
0.933113
0.935259
0.941623
0.954118
0.950758
0.945808
0.94041
0.937833
0.935142
0.9304
0.926979
0.924105
0.91968
0.914399
0.908094
0.905464
0.906304
0.911408
0.926966
0.96472
1.01875
1.07566
1.10548
1.10658
1.10476
1.099
1.08974
1.07884
1.06984
1.06238
1.05464
1.0478
1.04378
1.04052
1.03731
1.03342
1.02879
1.02403
1.01901
1.01377
1.00796
1.00057
0.995976
0.993671
0.990757
0.987266
0.983663
0.979512
0.974019
0.968851
0.96464
0.959533
0.954147
0.950725
0.946709
0.942259
0.939108
0.935919
0.931333
0.926941
0.923593
0.919713
0.914283
0.910381
0.907541
0.903811
0.898791
0.895604
0.892808
0.889262
0.884557
0.881065
0.878555
0.875524
0.871295
0.866997
0.86435
0.861334
0.857037
0.851945
0.849411
0.846931
0.843352
0.839491
0.838128
0.836551
0.834171
0.833349
0.833347
0.833522
0.833466
0.833906
0.835457
0.839892
0.847598
0.857323
0.869924
0.882907
0.892657
0.902838
0.911734
0.918858
0.927089
0.932091
0.934094
0.93693
0.941151
0.944818
0.947392
0.948864
0.949224
0.948868
0.949019
0.949702
0.950266
0.950727
0.951059
0.950478
0.949334
0.948243
0.947509
0.946844
0.945968
0.944929
0.94364
0.941843
0.939943
0.938211
0.9362
0.933894
0.931941
0.930791
0.930725
0.931565
0.935091
0.968267
0.965053
0.960789
0.955192
0.951351
0.94903
0.945454
0.940294
0.937332
0.934103
0.929036
0.923538
0.917439
0.915423
0.916577
0.922823
0.940089
0.977084
1.03391
1.09461
1.12015
1.12151
1.12006
1.11441
1.10351
1.09345
1.08513
1.07705
1.07018
1.06422
1.05759
1.0508
1.04681
1.04343
1.03947
1.03535
1.03135
1.02683
1.02064
1.0141
1.00996
1.0057
1.00019
0.996141
0.992338
0.987742
0.983733
0.98002
0.975622
0.970709
0.966527
0.96229
0.956807
0.952827
0.949264
0.944266
0.940001
0.93671
0.933045
0.928242
0.924418
0.921397
0.9177
0.912421
0.908132
0.905048
0.901295
0.896003
0.892692
0.890561
0.887639
0.883527
0.879598
0.876931
0.873779
0.869398
0.863998
0.861044
0.858333
0.854405
0.849298
0.846826
0.844507
0.841158
0.837705
0.836477
0.835499
0.834219
0.833734
0.833699
0.833922
0.835279
0.838354
0.844012
0.853517
0.864251
0.875758
0.890687
0.90098
0.909755
0.920373
0.925174
0.930045
0.937364
0.942662
0.944765
0.947075
0.949353
0.951531
0.954109
0.956344
0.957366
0.957296
0.956385
0.955244
0.954165
0.952937
0.951415
0.949807
0.948064
0.946037
0.944183
0.942416
0.940548
0.938521
0.936155
0.933387
0.931021
0.928688
0.927222
0.927319
0.928733
0.983238
0.979585
0.975985
0.970655
0.965979
0.963292
0.960006
0.955024
0.950481
0.948121
0.944274
0.938655
0.933307
0.927432
0.925665
0.927203
0.934635
0.951698
0.988337
1.05115
1.10578
1.13565
1.13839
1.13732
1.13087
1.12015
1.10927
1.09938
1.09074
1.08423
1.07869
1.073
1.06762
1.06272
1.05782
1.05177
1.04508
1.04081
1.03666
1.03157
1.02714
1.02338
1.01881
1.01406
1.00978
1.00462
0.999437
0.994882
0.989468
0.984789
0.981131
0.977077
0.972429
0.96859
0.964831
0.960056
0.955203
0.951514
0.947646
0.942344
0.937855
0.934721
0.931067
0.925814
0.921516
0.918751
0.915325
0.910387
0.906536
0.903826
0.900623
0.895838
0.891199
0.88867
0.885686
0.88153
0.876377
0.87354
0.870883
0.866949
0.861443
0.857969
0.855089
0.851137
0.845963
0.844029
0.842448
0.839868
0.837478
0.836888
0.836158
0.835011
0.83394
0.834177
0.835909
0.840112
0.84639
0.855894
0.869196
0.880403
0.89238
0.905547
0.915684
0.925972
0.935366
0.937207
0.939855
0.94517
0.949423
0.952313
0.954876
0.95578
0.955267
0.955127
0.955674
0.955705
0.955001
0.953605
0.951649
0.9495
0.947227
0.944766
0.942241
0.939924
0.937712
0.935569
0.933203
0.930916
0.928447
0.925861
0.924557
0.924771
1.00019
0.995711
0.992158
0.98733
0.981748
0.978469
0.975222
0.970572
0.965648
0.962882
0.959906
0.954675
0.949193
0.944311
0.938214
0.936435
0.938199
0.946044
0.962238
0.999306
1.06384
1.11566
1.14938
1.1568
1.1548
1.14783
1.13774
1.12762
1.11838
1.10821
1.09882
1.09313
1.08778
1.08235
1.07743
1.07232
1.06659
1.06136
1.05661
1.05118
1.04391
1.03819
1.03465
1.03046
1.02615
1.02191
1.01739
1.0126
1.00728
1.00233
0.99832
0.993798
0.98763
0.983288
0.979366
0.974186
0.970309
0.966895
0.963152
0.95889
0.954328
0.950209
0.946206
0.940707
0.934878
0.931998
0.928936
0.924126
0.920114
0.91754
0.914393
0.909769
0.904893
0.901842
0.898659
0.894369
0.888911
0.886087
0.883525
0.87966
0.874214
0.870465
0.867281
0.86314
0.857315
0.854085
0.851481
0.847797
0.842873
0.840802
0.839245
0.836588
0.834454
0.834211
0.833587
0.832319
0.832743
0.83481
0.839865
0.847312
0.855858
0.868056
0.880921
0.892209
0.904913
0.916048
0.925239
0.93732
0.944157
0.94496
0.947474
0.948472
0.949218
0.95072
0.952423
0.953498
0.952896
0.95133
0.949036
0.946546
0.944407
0.942298
0.939822
0.93699
0.933978
0.931273
0.929304
0.927289
0.925438
0.923579
0.922155
0.922015
1.01908
1.01409
1.01012
1.00541
0.999469
0.995587
0.992558
0.988145
0.982733
0.979464
0.976184
0.971599
0.965996
0.961801
0.956931
0.950523
0.948695
0.950611
0.958059
0.974858
1.01358
1.07347
1.12481
1.16387
1.17616
1.17424
1.16818
1.15886
1.1484
1.13803
1.12801
1.11947
1.11198
1.10526
1.09862
1.0925
1.08688
1.08104
1.07613
1.07126
1.06523
1.05933
1.05474
1.0505
1.04509
1.03882
1.03372
1.02918
1.02358
1.01892
1.01536
1.01086
1.00531
1.00088
0.997147
0.992067
0.987349
0.983338
0.978254
0.973518
0.969302
0.964805
0.961127
0.956956
0.951543
0.947883
0.944598
0.939725
0.934701
0.931446
0.928018
0.923225
0.918242
0.9153
0.912281
0.908247
0.902817
0.899557
0.896744
0.892668
0.886884
0.883133
0.879955
0.875898
0.870262
0.866644
0.86363
0.859558
0.853518
0.849933
0.847543
0.843796
0.838983
0.837489
0.836602
0.834523
0.831575
0.830541
0.830474
0.830067
0.830909
0.834415
0.841956
0.850904
0.860835
0.874029
0.88578
0.897915
0.910132
0.918628
0.926053
0.936288
0.94157
0.944597
0.946103
0.945259
0.943282
0.941216
0.939329
0.938363
0.937966
0.937071
0.93516
0.93242
0.929448
0.926688
0.924436
0.922201
0.920079
0.918341
0.915695
0.914077
1.03871
1.03349
1.02901
1.02435
1.01858
1.0145
1.01147
1.0073
1.00147
0.997225
0.993832
0.989462
0.984268
0.980747
0.977021
0.971531
0.965053
0.962863
0.964528
0.971671
0.986981
1.02431
1.0794
1.13263
1.17494
1.19125
1.19151
1.18922
1.18197
1.17103
1.1597
1.15002
1.14163
1.13432
1.12742
1.12006
1.11239
1.10536
1.09855
1.09188
1.08634
1.08008
1.07428
1.07054
1.06581
1.0595
1.05361
1.04905
1.04417
1.03877
1.03374
1.02878
1.02202
1.01669
1.01325
1.00893
1.00474
1.00092
0.996346
0.99161
0.987104
0.981667
0.976603
0.972711
0.96757
0.963236
0.960054
0.955686
0.950477
0.946875
0.943136
0.938087
0.932619
0.929284
0.926224
0.922304
0.917006
0.913511
0.910419
0.906246
0.900445
0.896543
0.893174
0.888865
0.88301
0.87921
0.875903
0.871651
0.865401
0.860945
0.857988
0.853956
0.847729
0.843994
0.842275
0.839407
0.834324
0.831831
0.830818
0.828652
0.824678
0.822579
0.822822
0.82321
0.824512
0.829034
0.837296
0.845826
0.855426
0.866956
0.876955
0.888579
0.899054
0.906848
0.915123
0.921226
0.925427
0.929049
0.930967
0.933081
0.933214
0.932104
0.929907
0.927553
0.925463
0.924139
0.922695
0.920938
0.918267
0.915299
0.910504
0.904963
1.05186
1.04724
1.04306
1.03912
1.03431
1.03046
1.02737
1.02332
1.0178
1.01324
1.01015
1.00652
1.00165
0.998676
0.995783
0.991045
0.985102
0.979465
0.975971
0.976839
0.981793
0.996758
1.03089
1.08125
1.14352
1.18094
1.20128
1.20749
1.206
1.20102
1.19362
1.18486
1.17578
1.16694
1.15844
1.15054
1.14223
1.13408
1.12734
1.12071
1.11462
1.10828
1.10114
1.09404
1.08759
1.08153
1.07503
1.06967
1.06515
1.05981
1.05396
1.04878
1.04387
1.0389
1.03394
1.02832
1.02311
1.01816
1.01237
1.00785
1.00395
0.999085
0.9945
0.990674
0.985856
0.980304
0.976334
0.971814
0.966145
0.962289
0.958529
0.953516
0.948127
0.944576
0.941123
0.936806
0.931157
0.92705
0.923627
0.919403
0.913823
0.910237
0.906897
0.902429
0.896636
0.892683
0.888925
0.884444
0.878223
0.872833
0.868992
0.864712
0.857992
0.85281
0.850578
0.847356
0.841619
0.836834
0.834478
0.831447
0.826752
0.822414
0.820169
0.817616
0.813529
0.810402
0.80997
0.810075
0.810993
0.814434
0.82085
0.828511
0.838083
0.847654
0.857579
0.869207
0.878584
0.887467
0.895179
0.902278
0.907866
0.90812
0.908541
0.910234
0.911018
0.911481
0.910462
0.910396
0.909877
0.909673
0.909503
0.907646
1.05512
1.05108
1.04768
1.04465
1.04111
1.03742
1.034
1.03026
1.02538
1.02175
1.0196
1.01657
1.01223
1.00883
1.00571
1.00153
0.996073
0.991979
0.987804
0.983346
0.983548
0.98707
1.00015
1.02871
1.07896
1.14008
1.18111
1.20254
1.21478
1.21933
1.21874
1.2158
1.20987
1.20169
1.19301
1.18485
1.17739
1.17001
1.16281
1.15572
1.14801
1.14018
1.13213
1.1242
1.11739
1.1116
1.10526
1.09811
1.09091
1.08426
1.07819
1.07146
1.06536
1.06072
1.05534
1.04923
1.04428
1.03968
1.03341
1.02754
1.02295
1.01749
1.01211
1.00796
1.0031
0.997691
0.993547
0.989111
0.983018
0.978326
0.974321
0.969064
0.963569
0.960148
0.956453
0.951768
0.946048
0.9413
0.937254
0.932614
0.926541
0.922675
0.919294
0.914564
0.908465
0.904765
0.901067
0.896294
0.89055
0.885221
0.880774
0.876425
0.870447
0.864034
0.859775
0.855325
0.848463
0.842041
0.83896
0.835618
0.830369
0.824964
0.821728
0.818217
0.813368
0.807962
0.804771
0.801877
0.798142
0.794945
0.793973
0.794366
0.795286
0.798084
0.802934
0.810411
0.819533
0.829737
0.840586
0.851265
0.862659
0.871926
0.879629
0.887513
0.896761
0.899787
0.899508
0.898828
0.899406
0.901908
0.907968
0.918605
1.05638
1.05185
1.0486
1.04641
1.04319
1.03943
1.0357
1.0324
1.02847
1.02462
1.02185
1.01857
1.01425
1.0106
1.00737
1.00378
0.999342
0.996438
0.993518
0.98867
0.98524
0.985704
0.988843
0.999322
1.02382
1.07122
1.12782
1.16913
1.19796
1.21505
1.22041
1.22095
1.21871
1.21537
1.21209
1.2093
1.2061
1.20207
1.19695
1.19041
1.18293
1.17568
1.16854
1.16117
1.15373
1.14644
1.13889
1.13051
1.12213
1.11474
1.10876
1.10242
1.09515
1.08798
1.08103
1.07368
1.06683
1.06176
1.05584
1.04927
1.04412
1.03877
1.03292
1.02737
1.02142
1.01536
1.01088
1.00614
0.999873
0.99497
0.99079
0.985555
0.979465
0.975138
0.970856
0.965521
0.959984
0.955459
0.951187
0.946563
0.940659
0.935801
0.931798
0.926812
0.919755
0.9151
0.911105
0.90556
0.899669
0.894877
0.890454
0.886232
0.880951
0.874718
0.86945
0.864323
0.857622
0.850464
0.845666
0.84102
0.834543
0.828033
0.824071
0.820007
0.814624
0.808525
0.805073
0.80191
0.797898
0.793091
0.78977
0.786973
0.784605
0.782086
0.781903
0.782853
0.78504
0.788608
0.794064
0.801309
0.81098
0.822955
0.835814
0.849797
0.865077
0.880075
0.894119
0.908382
0.921961
0.938218
0.957546
0.979771
1.05344
1.05149
1.04904
1.04614
1.04239
1.03845
1.03591
1.03316
1.02959
1.02611
1.02249
1.01844
1.01348
1.00871
1.0068
1.00466
1.00081
0.998189
0.995467
0.991064
0.985811
0.981604
0.981113
0.983351
0.99188
1.01296
1.05222
1.10847
1.15554
1.19188
1.20517
1.21028
1.21137
1.21146
1.21118
1.21072
1.20907
1.20657
1.20312
1.19998
1.19745
1.19517
1.19254
1.18879
1.18341
1.17635
1.16906
1.16225
1.15519
1.14823
1.14195
1.13507
1.12666
1.11826
1.1109
1.10396
1.09671
1.08931
1.08184
1.07456
1.06802
1.06146
1.05478
1.04849
1.04181
1.03523
1.02992
1.02427
1.01687
1.01141
1.00715
1.00185
0.995725
0.990348
0.985212
0.979394
0.973436
0.968542
0.963529
0.958099
0.95253
0.947184
0.942902
0.938278
0.931532
0.925998
0.921589
0.915911
0.909653
0.90462
0.899379
0.8937
0.887273
0.880519
0.875554
0.871212
0.865599
0.859105
0.853721
0.848341
0.841461
0.834271
0.829118
0.824415
0.81874
0.812156
0.807989
0.80436
0.7998
0.794122
0.790663
0.788041
0.785465
0.782501
0.780636
0.780157
0.779464
0.779123
0.779727
0.781578
0.785393
0.791931
0.801688
0.815234
0.832235
0.853559
0.880577
0.911397
0.946373
0.979073
1.00585
1.0287
1.04225
1.04025
1.0385
1.03645
1.03424
1.03194
1.02926
1.02589
1.02187
1.01884
1.01678
1.01366
1.00998
1.00774
1.00543
1.00217
0.997462
0.993455
0.990339
0.986432
0.981231
0.975751
0.972078
0.971205
0.972433
0.978949
0.994902
1.02628
1.07118
1.12296
1.16363
1.18451
1.19588
1.2019
1.20422
1.20289
1.20134
1.19878
1.19592
1.19486
1.19438
1.19528
1.19433
1.19085
1.18669
1.18335
1.1801
1.17686
1.17278
1.16783
1.16265
1.15653
1.14997
1.14315
1.13714
1.13175
1.12523
1.11748
1.10937
1.10192
1.09489
1.08699
1.07904
1.07229
1.06539
1.05791
1.05106
1.04445
1.03646
1.02972
1.02447
1.01804
1.01106
1.00498
0.99917
0.993286
0.987477
0.981937
0.976304
0.969543
0.963296
0.957361
0.951868
0.946693
0.940095
0.933969
0.929392
0.924159
0.918153
0.913232
0.907976
0.901822
0.895418
0.888928
0.883208
0.877926
0.871335
0.864125
0.859004
0.854276
0.848166
0.841577
0.836327
0.831281
0.825585
0.818981
0.813488
0.809011
0.804388
0.797795
0.793532
0.792077
0.789954
0.787221
0.786561
0.78725
0.788936
0.792608
0.799067
0.808525
0.821665
0.837646
0.85675
0.877244
0.899567
0.92377
0.946203
0.9672
0.988528
1.00741
1.02441
1.03852
1.01753
1.01723
1.01708
1.01567
1.01403
1.01264
1.0108
1.0083
1.00569
1.00383
1.00171
0.998749
0.995147
0.9929
0.990922
0.988112
0.984235
0.981548
0.979429
0.976334
0.971817
0.967816
0.964259
0.960419
0.957016
0.956236
0.958924
0.96865
0.989927
1.02438
1.06933
1.10693
1.13202
1.14935
1.16115
1.16728
1.17297
1.17856
1.18237
1.18628
1.18791
1.18705
1.1842
1.18
1.17866
1.17753
1.17758
1.1771
1.17369
1.16927
1.16477
1.16066
1.15625
1.15154
1.14725
1.14302
1.13768
1.1314
1.12584
1.12102
1.11537
1.10844
1.10085
1.09486
1.08886
1.08109
1.07276
1.06542
1.05797
1.05039
1.0435
1.03588
1.02775
1.02081
1.01409
1.00712
1.0006
0.993888
0.987754
0.981118
0.974317
0.968499
0.962675
0.956522
0.949756
0.943187
0.93738
0.931295
0.924032
0.918094
0.913276
0.907811
0.902297
0.896838
0.891079
0.885533
0.879301
0.872224
0.866809
0.86213
0.856064
0.849491
0.844356
0.839163
0.833152
0.8267
0.82131
0.81735
0.813832
0.809295
0.80563
0.804828
0.804613
0.806388
0.810693
0.817083
0.827487
0.842628
0.857942
0.87578
0.895426
0.912479
0.927773
0.942058
0.957718
0.969827
0.979861
0.990419
0.999227
1.00671
1.01555
1.02428
0.988446
0.988239
0.987979
0.986446
0.984961
0.984192
0.982953
0.980794
0.978467
0.977216
0.97568
0.973241
0.970193
0.968455
0.966663
0.964032
)
;

boundaryField
{
    inlet
    {
        type            fixedValue;
        value           nonuniform 0();
    }
    outlet
    {
        type            zeroGradient;
    }
    bottom
    {
        type            symmetryPlane;
    }
    top
    {
        type            symmetryPlane;
    }
    obstacle
    {
        type            zeroGradient;
    }
    front
    {
        type            empty;
    }
    back
    {
        type            empty;
    }
    procBoundary30to22
    {
        type            processor;
        value           nonuniform List<scalar> 
133
(
0.910398
0.911143
0.911537
0.911392
0.911705
0.912125
0.912015
0.912514
0.913145
0.913688
0.914787
0.915661
0.916602
0.918383
0.92066
0.924006
0.930954
0.946475
0.975532
1.01739
1.05787
0.854483
0.848832
0.84522
0.841879
0.837313
0.832614
0.82709
0.824431
0.825327
0.831099
0.848969
0.886769
0.941349
0.982087
0.996477
0.999443
1.00072
1.00112
0.999924
0.997898
0.996413
0.99496
0.993394
0.992387
0.991092
0.988658
0.985725
0.982686
0.979284
0.975928
0.972495
0.968601
0.96409
0.959712
0.955189
0.949912
0.945455
0.94116
0.936023
0.930927
0.92646
0.921975
0.916747
0.911543
0.907304
0.903029
0.897526
0.893545
0.890894
0.887427
0.882336
0.877501
0.873508
0.869156
0.863266
0.858598
0.855553
0.852054
0.847276
0.843212
0.840397
0.837239
0.832876
0.828177
0.825404
0.822416
0.818256
0.815032
0.813387
0.812152
0.811553
0.811605
0.8123
0.813374
0.815024
0.817693
0.821544
0.827971
0.83915
0.848644
0.857182
0.868653
0.874411
0.878341
0.883578
0.887343
0.889168
0.891978
0.894192
0.895175
0.896513
0.897103
0.897222
0.897873
0.898869
0.89946
0.899722
0.900392
0.901851
0.902854
0.903575
0.904598
0.905902
0.906892
0.90716
0.907636
0.908973
0.909656
0.91028
0.911127
0.911335
0.911335
)
;
    }
    procBoundary30to23
    {
        type            processor;
        value           uniform 1.07616;
    }
    procBoundary30to29
    {
        type            processor;
        value           nonuniform List<scalar> 
16
(
0.87315
0.887598
0.902068
0.916381
0.930304
0.943776
0.957796
0.973046
0.989042
1.00593
1.02482
1.04379
1.05597
1.05893
1.06023
1.05566
)
;
    }
    procBoundary30to31
    {
        type            processor;
        value           nonuniform List<scalar> 
18
(
1.0681
1.05197
1.02936
1.00297
0.976827
0.957348
0.944248
0.933859
0.926723
0.922785
0.913417
0.904374
0.906219
0.93143
0.999821
1.0467
1.05116
1.03318
)
;
    }
    procBoundary30to37
    {
        type            processor;
        value           nonuniform List<scalar> 3(1.04442 1.01816 0.989472);
    }
    procBoundary30to38
    {
        type            processor;
        value           nonuniform List<scalar> 
133
(
0.96041
0.958016
0.956117
0.953476
0.949482
0.946064
0.943097
0.939149
0.935421
0.932832
0.931276
0.932486
0.937905
0.95184
0.976585
1.00715
1.0355
1.05835
1.07592
1.09031
1.10124
1.1126
1.12382
1.13254
1.13967
1.14656
1.15264
1.15699
1.16178
1.16617
1.16621
1.1632
1.15925
1.15776
1.15644
1.15551
1.15502
1.15205
1.14814
1.14384
1.13831
1.13179
1.12846
1.12521
1.12023
1.11457
1.10899
1.10404
1.09932
1.0936
1.08673
1.08034
1.07483
1.06844
1.0614
1.05391
1.04603
1.03831
1.03064
1.02243
1.01469
1.00718
0.999866
0.993146
0.985911
0.978976
0.972866
0.966479
0.959247
0.952718
0.946761
0.940426
0.933471
0.927009
0.921555
0.915638
0.908956
0.90317
0.897155
0.891502
0.886689
0.880899
0.875538
0.871348
0.866161
0.859843
0.855299
0.851294
0.846247
0.841137
0.837937
0.835863
0.83471
0.836129
0.838825
0.845033
0.855034
0.86793
0.882428
0.898044
0.91549
0.928915
0.941618
0.95951
0.968077
0.974523
0.984393
0.989297
0.992973
0.996323
0.997713
0.999463
1.00078
1.00176
1.00229
1.00319
0.974896
0.973064
0.971564
0.969233
0.966051
0.964351
0.962757
0.960309
0.957201
0.9556
0.953897
0.951283
0.947902
0.945967
0.944058
0.96041
0.941388
)
;
    }
}


// ************************************************************************* //
