/*--------------------------------*- C++ -*----------------------------------*\
  =========                 |
  \\      /  F ield         | OpenFOAM: The Open Source CFD Toolbox
   \\    /   O peration     | Website:  https://openfoam.org
    \\  /    A nd           | Version:  7
     \\/     M anipulation  |
\*---------------------------------------------------------------------------*/
FoamFile
{
    version     2.0;
    format      ascii;
    class       surfaceScalarField;
    location    "2.6";
    object      phi;
}
// * * * * * * * * * * * * * * * * * * * * * * * * * * * * * * * * * * * * * //

dimensions      [0 3 -1 0 0 0 0];

internalField   nonuniform List<scalar> 
39700
(
-2.9028e-12
3.28192e-12
-1.0618e-11
7.71395e-12
-1.92098e-11
8.59209e-12
-2.61393e-11
6.92967e-12
-2.99068e-11
3.7682e-12
-2.96596e-11
-2.47473e-13
-2.49556e-11
-4.70451e-12
-1.561e-11
-9.34675e-12
-1.60204e-12
-1.40088e-11
1.69794e-11
-1.85815e-11
3.99761e-11
-2.29961e-11
6.71772e-11
-2.72005e-11
9.83368e-11
-3.11593e-11
1.33185e-10
-3.48482e-11
1.71436e-10
-3.82503e-11
2.12791e-10
-4.13544e-11
2.56945e-10
-4.41533e-11
3.03587e-10
-4.66426e-11
3.52408e-10
-4.88202e-11
4.03096e-10
-5.06864e-11
4.5534e-10
-5.22436e-11
5.08836e-10
-5.3495e-11
5.63282e-10
-5.44454e-11
6.18383e-10
-5.51004e-11
6.73849e-10
-5.54662e-11
7.294e-10
-5.55504e-11
7.84762e-10
-5.53613e-11
8.3967e-10
-5.49079e-11
8.93871e-10
-5.41995e-11
9.47118e-10
-5.32464e-11
9.99177e-10
-5.2059e-11
1.04983e-09
-5.06481e-11
1.09885e-09
-4.9025e-11
1.14605e-09
-4.72016e-11
1.19124e-09
-4.51897e-11
1.23425e-09
-4.30012e-11
1.27489e-09
-4.06484e-11
1.31304e-09
-3.81439e-11
1.34854e-09
-3.55003e-11
1.38127e-09
-3.27302e-11
1.41112e-09
-2.9846e-11
1.43798e-09
-2.68603e-11
1.46176e-09
-2.37857e-11
1.4824e-09
-2.06348e-11
1.49982e-09
-1.74199e-11
1.51397e-09
-1.41533e-11
1.52482e-09
-1.08468e-11
1.53233e-09
-7.51257e-12
1.5365e-09
-4.16257e-12
1.5373e-09
-8.08361e-13
1.53477e-09
2.53863e-12
1.5289e-09
5.86729e-12
1.51973e-09
9.16668e-12
1.50731e-09
1.24259e-11
1.49167e-09
1.56342e-11
1.47289e-09
1.87811e-11
1.45103e-09
2.18563e-11
1.42618e-09
2.48497e-11
1.39843e-09
2.77516e-11
1.36788e-09
3.05522e-11
1.33464e-09
3.32418e-11
1.29883e-09
3.58106e-11
1.26058e-09
3.82494e-11
1.22003e-09
4.05489e-11
1.17733e-09
4.27002e-11
1.13263e-09
4.4694e-11
1.08611e-09
4.6521e-11
1.03794e-09
4.8172e-11
9.88297e-10
4.96385e-11
9.37385e-10
5.09117e-11
8.85401e-10
5.19828e-11
8.32558e-10
5.28428e-11
7.79075e-10
5.34826e-11
7.25181e-10
5.38938e-11
6.71112e-10
5.4068e-11
6.17115e-10
5.39967e-11
5.63443e-10
5.36716e-11
5.10359e-10
5.30844e-11
4.58131e-10
5.22273e-11
4.07037e-10
5.10932e-11
3.5736e-10
4.96756e-11
3.09392e-10
4.79678e-11
2.63427e-10
4.59645e-11
2.19765e-10
4.36616e-11
1.78707e-10
4.10572e-11
1.40556e-10
3.81505e-11
1.05614e-10
3.49431e-11
7.41736e-11
3.14406e-11
4.65179e-11
2.76544e-11
2.29119e-11
2.36036e-11
3.59275e-12
1.93171e-11
-1.12463e-11
1.48391e-11
-2.14781e-11
1.02334e-11
-2.70783e-11
5.60096e-12
-2.81852e-11
1.10528e-12
-2.51847e-11
-3.00299e-12
-1.88692e-11
-6.31566e-12
-1.06889e-11
-8.17572e-12
-3.17974e-12
-7.49942e-12
-3.17179e-12
-7.51844e-12
1.07986e-11
-2.11118e-11
2.13102e-11
-3.45071e-11
2.19905e-11
-4.31533e-11
1.55737e-11
-4.38535e-11
4.46652e-12
-3.4531e-11
-9.56959e-12
-1.38982e-11
-2.53347e-11
1.86738e-11
-4.1917e-11
6.34179e-11
-5.87524e-11
1.20255e-10
-7.54191e-11
1.88879e-10
-9.16204e-11
2.68824e-10
-1.07144e-10
3.59502e-10
-1.21836e-10
4.60242e-10
-1.35587e-10
5.70308e-10
-1.48315e-10
6.88917e-10
-1.59964e-10
8.15259e-10
-1.70495e-10
9.48499e-10
-1.79882e-10
1.08779e-09
-1.88111e-10
1.23228e-09
-1.95176e-10
1.38112e-09
-2.0108e-10
1.53345e-09
-2.05832e-10
1.68845e-09
-2.09445e-10
1.84529e-09
-2.11936e-10
2.00315e-09
-2.1333e-10
2.16125e-09
-2.13652e-10
2.31882e-09
-2.12931e-10
2.47511e-09
-2.112e-10
2.6294e-09
-2.08494e-10
2.78101e-09
-2.0485e-10
2.92925e-09
-2.00307e-10
3.07351e-09
-1.94906e-10
3.21318e-09
-1.88689e-10
3.34767e-09
-1.81701e-10
3.47647e-09
-1.73986e-10
3.59906e-09
-1.65591e-10
3.71497e-09
-1.56562e-10
3.82378e-09
-1.46947e-10
3.92507e-09
-1.36793e-10
4.01849e-09
-1.26148e-10
4.1037e-09
-1.15061e-10
4.18042e-09
-1.0358e-10
4.24839e-09
-9.17536e-11
4.30738e-09
-7.96294e-11
4.35722e-09
-6.72548e-11
4.39774e-09
-5.46774e-11
4.42884e-09
-4.19437e-11
4.45043e-09
-2.91001e-11
4.46246e-09
-1.61923e-11
4.46492e-09
-3.26527e-12
4.45782e-09
9.63696e-12
4.44122e-09
2.24708e-11
4.41519e-09
3.51933e-11
4.37986e-09
4.77622e-11
4.33535e-09
6.0136e-11
4.28186e-09
7.22742e-11
4.21958e-09
8.41368e-11
4.14875e-09
9.56847e-11
4.06962e-09
1.06879e-10
3.9825e-09
1.17681e-10
3.88768e-09
1.28054e-10
3.78554e-09
1.37961e-10
3.67642e-09
1.47366e-10
3.56074e-09
1.56231e-10
3.43892e-09
1.64522e-10
3.31141e-09
1.72203e-10
3.17869e-09
1.7924e-10
3.04127e-09
1.85597e-10
2.89967e-09
1.91241e-10
2.75444e-09
1.96138e-10
2.60617e-09
2.00253e-10
2.45546e-09
2.03554e-10
2.30293e-09
2.06008e-10
2.14925e-09
2.07583e-10
1.99507e-09
2.08247e-10
1.8411e-09
2.07969e-10
1.68805e-09
2.06719e-10
1.53666e-09
2.04469e-10
1.3877e-09
2.01192e-10
1.24193e-09
1.96864e-10
1.10014e-09
1.91462e-10
9.6314e-10
1.84967e-10
8.31737e-10
1.77366e-10
7.06749e-10
1.68649e-10
5.8899e-10
1.58815e-10
4.79265e-10
1.47872e-10
3.78363e-10
1.35842e-10
2.87042e-10
1.22761e-10
2.06009e-10
1.08687e-10
1.35903e-10
9.37093e-11
7.72568e-11
7.79607e-11
3.04605e-11
6.16318e-11
-4.30566e-12
4.4997e-11
-2.71597e-11
2.8454e-11
-3.86335e-11
1.25782e-11
-3.98598e-11
-1.7801e-12
-3.27946e-11
-1.33906e-11
-2.05236e-11
-2.04647e-11
-7.51888e-12
-2.05272e-11
-1.06847e-11
-8.52849e-12
1.93276e-11
-2.19466e-11
3.47282e-11
-3.25992e-11
3.26442e-11
-3.49875e-11
1.79612e-11
-2.50776e-11
-5.44575e-12
-6.20109e-14
-3.45874e-11
4.18074e-11
-6.7205e-11
1.01614e-10
-1.01722e-10
1.79777e-10
-1.36914e-10
2.76271e-10
-1.71913e-10
3.9073e-10
-2.0608e-10
5.22526e-10
-2.3894e-10
6.70834e-10
-2.70143e-10
8.34676e-10
-2.99428e-10
1.01296e-09
-3.26602e-10
1.20452e-09
-3.51524e-10
1.40813e-09
-3.74094e-10
1.62249e-09
-3.94244e-10
1.84631e-09
-4.1193e-10
2.07827e-09
-4.27132e-10
2.31703e-09
-4.39846e-10
2.56128e-09
-4.50083e-10
2.80971e-09
-4.57866e-10
3.061e-09
-4.6323e-10
3.31389e-09
-4.6622e-10
3.56713e-09
-4.66889e-10
3.8195e-09
-4.65298e-10
4.06981e-09
-4.61513e-10
4.31693e-09
-4.55609e-10
4.55974e-09
-4.47663e-10
4.79719e-09
-4.3776e-10
5.02827e-09
-4.25987e-10
5.25202e-09
-4.12435e-10
5.46752e-09
-3.97198e-10
5.67391e-09
-3.80374e-10
5.87038e-09
-3.62062e-10
6.05618e-09
-3.42363e-10
6.23062e-09
-3.2138e-10
6.39304e-09
-2.99216e-10
6.54287e-09
-2.75976e-10
6.67957e-09
-2.51765e-10
6.80268e-09
-2.26688e-10
6.91178e-09
-2.0085e-10
7.0065e-09
-1.74356e-10
7.08656e-09
-1.4731e-10
7.1517e-09
-1.19815e-10
7.20173e-09
-9.19738e-11
7.23651e-09
-6.38873e-11
7.25598e-09
-3.56554e-11
7.26009e-09
-7.37679e-12
7.24887e-09
2.08513e-11
7.22241e-09
4.89331e-11
7.18083e-09
7.67742e-11
7.12431e-09
1.04282e-10
7.05308e-09
1.31366e-10
6.96742e-09
1.57936e-10
6.86765e-09
1.83904e-10
6.75415e-09
2.09183e-10
6.62734e-09
2.33689e-10
6.48769e-09
2.57337e-10
6.3357e-09
2.80044e-10
6.17193e-09
3.01731e-10
5.99697e-09
3.22316e-10
5.81149e-09
3.41719e-10
5.61614e-09
3.59863e-10
5.41167e-09
3.76671e-10
5.19885e-09
3.92067e-10
4.97847e-09
4.05974e-10
4.75139e-09
4.18319e-10
4.5185e-09
4.29028e-10
4.28072e-09
4.38029e-10
4.03902e-09
4.45249e-10
3.79441e-09
4.50619e-10
3.54792e-09
4.5407e-10
3.30063e-09
4.55537e-10
3.05365e-09
4.54953e-10
2.80811e-09
4.52258e-10
2.56518e-09
4.47395e-10
2.32606e-09
4.40308e-10
2.09198e-09
4.30951e-10
1.86416e-09
4.1928e-10
1.64386e-09
4.05265e-10
1.43234e-09
3.88883e-10
1.23086e-09
3.70126e-10
1.04067e-09
3.49005e-10
8.62993e-10
3.2555e-10
6.99011e-10
2.99823e-10
5.49845e-10
2.71925e-10
4.16526e-10
2.42004e-10
2.99956e-10
2.10279e-10
2.00862e-10
1.77054e-10
1.19732e-10
1.42762e-10
5.67267e-11
1.08e-10
1.15749e-11
7.36042e-11
-1.65806e-11
4.07348e-11
-2.93624e-11
1.1007e-11
-2.93925e-11
-1.33501e-11
-2.05453e-11
-2.93036e-11
-8.21707e-12
-3.28659e-11
-1.88994e-11
-6.98091e-12
2.6309e-11
-1.58274e-11
4.35718e-11
-1.84165e-11
3.52324e-11
-8.86216e-12
8.40695e-12
1.72087e-11
-3.15167e-11
6.29217e-11
-8.03012e-11
1.30392e-10
-1.34676e-10
2.20846e-10
-1.92176e-10
3.34857e-10
-2.50925e-10
4.72452e-10
-3.09509e-10
6.33228e-10
-3.66856e-10
8.16444e-10
-4.22156e-10
1.02109e-09
-4.74793e-10
1.24597e-09
-5.243e-10
1.48969e-09
-5.70325e-10
1.75077e-09
-6.12604e-10
2.02762e-09
-6.50947e-10
2.31859e-09
-6.85217e-10
2.62199e-09
-7.15326e-10
2.93608e-09
-7.41223e-10
3.25912e-09
-7.62889e-10
3.58937e-09
-7.80333e-10
3.92509e-09
-7.93586e-10
4.26456e-09
-8.02701e-10
4.60609e-09
-8.07747e-10
4.94801e-09
-8.08809e-10
5.2887e-09
-8.05988e-10
5.62658e-09
-7.99394e-10
5.96012e-09
-7.8915e-10
6.28785e-09
-7.75389e-10
6.60834e-09
-7.58251e-10
6.92023e-09
-7.37884e-10
7.22224e-09
-7.14445e-10
7.51314e-09
-6.88094e-10
7.79176e-09
-6.58996e-10
8.05702e-09
-6.27322e-10
8.3079e-09
-5.93245e-10
8.54346e-09
-5.56941e-10
8.76284e-09
-5.1859e-10
8.96523e-09
-4.78371e-10
9.14993e-09
-4.36465e-10
9.3163e-09
-3.93053e-10
9.46376e-09
-3.48316e-10
9.59184e-09
-3.02436e-10
9.70013e-09
-2.55593e-10
9.78828e-09
-2.07965e-10
9.85603e-09
-1.5973e-10
9.90321e-09
-1.11063e-10
9.92969e-09
-6.21378e-11
9.93544e-09
-1.31253e-11
9.92048e-09
3.58053e-11
9.88493e-09
8.44875e-11
9.82895e-09
1.32758e-10
9.75277e-09
1.80454e-10
9.65672e-09
2.27419e-10
9.54116e-09
2.73496e-10
9.40653e-09
3.18532e-10
9.25334e-09
3.62376e-10
9.08215e-09
4.04879e-10
8.89359e-09
4.45895e-10
8.68835e-09
4.85281e-10
8.46719e-09
5.22895e-10
8.2309e-09
5.58598e-10
7.98037e-09
5.92252e-10
7.71651e-09
6.23722e-10
7.44031e-09
6.52873e-10
7.1528e-09
6.79574e-10
6.85508e-09
7.03695e-10
6.54829e-09
7.25107e-10
6.23364e-09
7.43685e-10
5.91236e-09
7.59305e-10
5.58576e-09
7.71844e-10
5.2552e-09
7.81185e-10
4.92205e-09
7.87212e-10
4.58778e-09
7.89813e-10
4.25385e-09
7.88882e-10
3.92179e-09
7.84318e-10
3.59316e-09
7.76026e-10
3.26954e-09
7.63923e-10
2.95256e-09
7.47933e-10
2.64384e-09
7.27995e-10
2.34504e-09
7.04065e-10
2.0578e-09
6.76118e-10
1.78377e-09
6.44157e-10
1.52456e-09
6.08216e-10
1.28174e-09
5.68369e-10
1.05682e-09
5.24744e-10
8.51204e-10
4.77537e-10
6.66178e-10
4.27029e-10
5.02841e-10
3.73614e-10
3.62056e-10
3.17838e-10
2.44376e-10
2.60441e-10
1.49947e-10
2.02428e-10
7.83924e-11
1.45156e-10
2.86723e-11
9.04511e-11
-1.09019e-12
4.07652e-11
-1.38205e-11
-6.20101e-13
-1.3684e-11
-2.94319e-11
-6.41946e-12
-4.01338e-11
-2.53183e-11
-3.96824e-12
3.02778e-11
-5.16263e-12
4.47628e-11
4.18879e-12
2.58779e-11
2.98896e-11
-1.72947e-11
7.63229e-11
-7.79496e-11
1.4668e-10
-1.50658e-10
2.43143e-10
-2.3114e-10
3.6704e-10
-3.16073e-10
5.18988e-10
-4.02875e-10
6.99021e-10
-4.89542e-10
9.06689e-10
-5.74525e-10
1.14115e-09
-6.56621e-10
1.40126e-09
-7.34899e-10
1.6856e-09
-8.08642e-10
1.99258e-09
-8.77298e-10
2.32042e-09
-9.40447e-10
2.66725e-09
-9.97777e-10
3.0311e-09
-1.04906e-09
3.40992e-09
-1.09415e-09
3.80164e-09
-1.13294e-09
4.20415e-09
-1.1654e-09
4.61534e-09
-1.19152e-09
5.03309e-09
-1.21134e-09
5.45531e-09
-1.22492e-09
5.87992e-09
-1.23236e-09
6.3049e-09
-1.23379e-09
6.72825e-09
-1.22934e-09
7.14804e-09
-1.21918e-09
7.56238e-09
-1.20349e-09
7.96947e-09
-1.18247e-09
8.36754e-09
-1.15632e-09
8.75493e-09
-1.12527e-09
9.13003e-09
-1.08955e-09
9.49134e-09
-1.0494e-09
9.83741e-09
-1.00507e-09
1.01669e-08
-9.56818e-10
1.04786e-08
-9.04904e-10
1.07712e-08
-8.49595e-10
1.10438e-08
-7.91161e-10
1.12953e-08
-7.29876e-10
1.15248e-08
-6.66013e-10
1.17316e-08
-5.99848e-10
1.1915e-08
-5.31656e-10
1.20743e-08
-4.61713e-10
1.2209e-08
-3.90292e-10
1.23187e-08
-3.17666e-10
1.2403e-08
-2.44106e-10
1.24618e-08
-1.69877e-10
1.2495e-08
-9.52466e-11
1.25023e-08
-2.04749e-11
1.24839e-08
5.41798e-11
1.244e-08
1.28463e-10
1.23706e-08
2.02124e-10
1.22761e-08
2.74916e-10
1.21569e-08
3.46597e-10
1.20135e-08
4.16928e-10
1.18464e-08
4.85674e-10
1.16561e-08
5.52603e-10
1.14435e-08
6.17489e-10
1.12093e-08
6.80109e-10
1.09544e-08
7.40241e-10
1.06796e-08
7.9767e-10
1.0386e-08
8.52183e-10
1.00747e-08
9.03569e-10
9.74677e-09
9.51621e-10
9.40351e-09
9.96137e-10
9.04617e-09
1.03692e-09
8.6761e-09
1.07376e-09
8.29473e-09
1.10647e-09
7.90355e-09
1.13487e-09
7.50409e-09
1.15876e-09
7.09797e-09
1.17796e-09
6.68686e-09
1.1923e-09
6.27246e-09
1.20161e-09
5.85656e-09
1.20571e-09
5.44099e-09
1.20446e-09
5.0276e-09
1.19771e-09
4.61831e-09
1.18532e-09
4.21505e-09
1.16718e-09
3.8198e-09
1.14318e-09
3.43454e-09
1.11325e-09
3.06127e-09
1.07734e-09
2.70197e-09
1.03542e-09
2.35861e-09
9.87515e-10
2.03312e-09
9.33705e-10
1.72737e-09
8.74124e-10
1.44312e-09
8.08991e-10
1.18203e-09
7.38626e-10
9.45583e-10
6.63477e-10
7.35036e-10
5.8416e-10
5.5137e-10
5.01503e-10
3.95204e-10
4.16608e-10
2.66701e-10
3.30932e-10
1.65462e-10
2.46397e-10
9.03921e-11
1.65521e-10
3.95544e-11
9.16002e-11
1.00121e-11
2.89187e-11
-2.38081e-12
-1.70358e-11
-3.20694e-12
-3.9307e-11
-2.85256e-11
-1.45927e-13
3.04243e-11
8.31488e-12
3.63004e-11
3.23024e-11
1.88877e-12
7.71803e-11
-6.21735e-11
1.47075e-10
-1.47844e-10
2.45033e-10
-2.48615e-10
3.73159e-10
-3.59267e-10
5.3274e-10
-4.75654e-10
7.24356e-10
-5.94493e-10
9.47994e-10
-7.1318e-10
1.20313e-09
-8.29661e-10
1.48882e-09
-9.42312e-10
1.80377e-09
-1.04985e-09
2.14641e-09
-1.15128e-09
2.51493e-09
-1.24582e-09
2.90733e-09
-1.33285e-09
3.32148e-09
-1.41193e-09
3.75512e-09
-1.48271e-09
4.20593e-09
-1.54496e-09
4.67151e-09
-1.59852e-09
5.14943e-09
-1.64332e-09
5.63725e-09
-1.67934e-09
6.13253e-09
-1.70661e-09
6.63283e-09
-1.72522e-09
7.13574e-09
-1.73528e-09
7.63891e-09
-1.73695e-09
8.14e-09
-1.73043e-09
8.63676e-09
-1.71594e-09
9.12699e-09
-1.69372e-09
9.60855e-09
-1.66404e-09
1.00794e-08
-1.62718e-09
1.05376e-08
-1.58346e-09
1.09812e-08
-1.53319e-09
1.14085e-08
-1.47671e-09
1.18178e-08
-1.41436e-09
1.22075e-08
-1.34651e-09
1.25761e-08
-1.27351e-09
1.29223e-08
-1.19574e-09
1.32447e-08
-1.11357e-09
1.35422e-08
-1.02739e-09
1.38138e-08
-9.37585e-10
1.40584e-08
-8.44532e-10
1.42754e-08
-7.48621e-10
1.44639e-08
-6.50237e-10
1.46234e-08
-5.49766e-10
1.47533e-08
-4.47589e-10
1.48533e-08
-3.44086e-10
1.49231e-08
-2.39634e-10
1.49624e-08
-1.34606e-10
1.49713e-08
-2.93692e-11
1.49498e-08
7.57125e-11
1.4898e-08
1.80281e-10
1.48161e-08
2.83982e-10
1.47046e-08
3.86469e-10
1.45638e-08
4.87399e-10
1.43942e-08
5.86434e-10
1.41967e-08
6.83244e-10
1.39718e-08
7.77503e-10
1.37204e-08
8.68889e-10
1.34434e-08
9.57088e-10
1.31419e-08
1.04179e-09
1.28168e-08
1.12269e-09
1.24695e-08
1.19948e-09
1.21012e-08
1.27188e-09
1.17133e-08
1.33959e-09
1.13071e-08
1.40232e-09
1.08842e-08
1.45979e-09
1.04462e-08
1.51174e-09
9.99481e-09
1.55788e-09
9.53172e-09
1.59796e-09
9.05878e-09
1.63171e-09
8.57786e-09
1.65888e-09
8.09093e-09
1.67923e-09
7.60001e-09
1.69253e-09
7.10717e-09
1.69855e-09
6.61454e-09
1.69708e-09
6.12431e-09
1.68794e-09
5.6387e-09
1.67093e-09
5.15996e-09
1.64592e-09
4.69038e-09
1.61276e-09
4.23225e-09
1.57138e-09
3.78788e-09
1.52171e-09
3.35954e-09
1.46376e-09
2.94949e-09
1.39756e-09
2.55993e-09
1.32327e-09
2.19297e-09
1.24108e-09
1.85063e-09
1.15134e-09
1.53474e-09
1.05451e-09
1.24698e-09
9.51237e-10
9.88756e-10
8.42387e-10
7.61155e-10
7.29103e-10
5.64887e-10
6.12874e-10
4.00184e-10
4.95635e-10
2.66703e-10
3.79878e-10
1.63419e-10
2.68808e-10
8.85009e-11
1.6652e-10
3.91858e-11
7.82333e-11
1.16371e-11
1.05136e-11
7.79342e-13
-2.84482e-11
-2.77467e-11
4.09888e-12
2.63246e-11
2.34309e-11
1.69684e-11
6.38217e-11
-3.85021e-11
1.29965e-10
-1.28318e-10
2.25533e-10
-2.43413e-10
3.53269e-10
-3.76351e-10
5.15068e-10
-5.21066e-10
7.12068e-10
-6.72655e-10
9.44733e-10
-8.27159e-10
1.21294e-09
-9.8139e-10
1.51606e-09
-1.13278e-09
1.85303e-09
-1.27928e-09
2.22241e-09
-1.41923e-09
2.62246e-09
-1.55133e-09
3.05119e-09
-1.67454e-09
3.50639e-09
-1.78805e-09
3.9857e-09
-1.89124e-09
4.48662e-09
-1.98363e-09
5.00656e-09
-2.06489e-09
5.54285e-09
-2.13481e-09
6.09277e-09
-2.19325e-09
6.65359e-09
-2.24017e-09
7.22257e-09
-2.27559e-09
7.79697e-09
-2.29962e-09
8.37409e-09
-2.31239e-09
8.95125e-09
-2.31411e-09
9.52583e-09
-2.30502e-09
1.00953e-08
-2.28539e-09
1.06571e-08
-2.25555e-09
1.12089e-08
-2.21584e-09
1.17484e-08
-2.16663e-09
1.22732e-08
-2.10832e-09
1.27814e-08
-2.04134e-09
1.32708e-08
-1.96612e-09
1.37395e-08
-1.88312e-09
1.41858e-08
-1.79281e-09
1.4608e-08
-1.69566e-09
1.50044e-08
-1.59217e-09
1.53737e-08
-1.48284e-09
1.57144e-08
-1.36816e-09
1.60255e-08
-1.24865e-09
1.63058e-08
-1.12483e-09
1.65544e-08
-9.97189e-10
1.67704e-08
-8.66253e-10
1.69532e-08
-7.32529e-10
1.71021e-08
-5.96524e-10
1.72168e-08
-4.58745e-10
1.72968e-08
-3.19691e-10
1.73421e-08
-1.79858e-10
1.73524e-08
-3.97357e-11
1.73279e-08
1.00192e-10
1.72688e-08
2.39446e-10
1.71752e-08
3.77557e-10
1.70476e-08
5.14062e-10
1.68865e-08
6.48502e-10
1.66925e-08
7.80429e-10
1.64663e-08
9.094e-10
1.62089e-08
1.03498e-09
1.5921e-08
1.15675e-09
1.56038e-08
1.27427e-09
1.52585e-08
1.38715e-09
1.48862e-08
1.49496e-09
1.44884e-08
1.59732e-09
1.40664e-08
1.69383e-09
1.36219e-08
1.7841e-09
1.31565e-08
1.86775e-09
1.26718e-08
1.94442e-09
1.21698e-08
2.01373e-09
1.16524e-08
2.07533e-09
1.11215e-08
2.12888e-09
1.05791e-08
2.17403e-09
1.00276e-08
2.21045e-09
9.46897e-09
2.23784e-09
8.90562e-09
2.25587e-09
8.33989e-09
2.26428e-09
7.77419e-09
2.26279e-09
7.21097e-09
2.25115e-09
6.65275e-09
2.22915e-09
6.10207e-09
2.1966e-09
5.56149e-09
2.15335e-09
5.03358e-09
2.09929e-09
4.52091e-09
2.03438e-09
4.02603e-09
1.95863e-09
3.55145e-09
1.87215e-09
3.09959e-09
1.77512e-09
2.6728e-09
1.66787e-09
2.2733e-09
1.55085e-09
1.90311e-09
1.4247e-09
1.56406e-09
1.29028e-09
1.25772e-09
1.14873e-09
9.85313e-10
1.00152e-09
7.47656e-10
8.50531e-10
5.45108e-10
6.98182e-10
3.77462e-10
5.47523e-10
2.43866e-10
4.02405e-10
1.42727e-10
2.67661e-10
7.16218e-11
1.4934e-10
2.72114e-11
5.49242e-11
5.15323e-12
-6.38928e-12
-2.25934e-11
8.52237e-12
1.78004e-11
3.93951e-11
-1.39049e-11
9.72745e-11
-9.63803e-11
1.86041e-10
-2.17085e-10
3.08789e-10
-3.66161e-10
4.67835e-10
-5.35399e-10
6.64765e-10
-7.17996e-10
9.00477e-10
-9.08367e-10
1.17525e-09
-1.10193e-09
1.48879e-09
-1.29493e-09
1.84033e-09
-1.48432e-09
2.22864e-09
-1.66759e-09
2.65215e-09
-1.84274e-09
3.10894e-09
-2.00812e-09
3.59683e-09
-2.16244e-09
4.11343e-09
-2.30466e-09
4.65617e-09
-2.43397e-09
5.22231e-09
-2.54977e-09
5.80904e-09
-2.65162e-09
6.41342e-09
-2.7392e-09
7.0325e-09
-2.81233e-09
7.66328e-09
-2.87094e-09
8.30273e-09
-2.91504e-09
8.94785e-09
-2.94474e-09
9.59567e-09
-2.96021e-09
1.02432e-08
-2.96167e-09
1.08876e-08
-2.94944e-09
1.15261e-08
-2.92384e-09
1.21558e-08
-2.88528e-09
1.27742e-08
-2.83418e-09
1.33785e-08
-2.77101e-09
1.39665e-08
-2.69627e-09
1.45357e-08
-2.61049e-09
1.50838e-08
-2.51423e-09
1.56087e-08
-2.40805e-09
1.61084e-08
-2.29256e-09
1.65811e-08
-2.16835e-09
1.7025e-08
-2.03605e-09
1.74385e-08
-1.89629e-09
1.782e-08
-1.74972e-09
1.81683e-08
-1.59697e-09
1.84822e-08
-1.4387e-09
1.87606e-08
-1.27555e-09
1.90025e-08
-1.10818e-09
1.92072e-08
-9.37241e-10
1.93741e-08
-7.63378e-10
1.95026e-08
-5.87235e-10
1.95923e-08
-4.09451e-10
1.96431e-08
-2.30658e-10
1.96549e-08
-5.14841e-11
1.96276e-08
1.27454e-10
1.95615e-08
3.05544e-10
1.94569e-08
4.82186e-10
1.93141e-08
6.56784e-10
1.91339e-08
8.28756e-10
1.89168e-08
9.97526e-10
1.86637e-08
1.16253e-09
1.83754e-08
1.3232e-09
1.80532e-08
1.47901e-09
1.7698e-08
1.62941e-09
1.73113e-08
1.77386e-09
1.68944e-08
1.91186e-09
1.64488e-08
2.0429e-09
1.59762e-08
2.16646e-09
1.54782e-08
2.28206e-09
1.49568e-08
2.38921e-09
1.44137e-08
2.48745e-09
1.38512e-08
2.57631e-09
1.32712e-08
2.65534e-09
1.26759e-08
2.72409e-09
1.20678e-08
2.78215e-09
1.14492e-08
2.82909e-09
1.08225e-08
2.86453e-09
1.01903e-08
2.88809e-09
9.55515e-09
2.8994e-09
8.91979e-09
2.89816e-09
8.28689e-09
2.88405e-09
7.65923e-09
2.85681e-09
7.03961e-09
2.81622e-09
6.43083e-09
2.76212e-09
5.83572e-09
2.69439e-09
5.2571e-09
2.613e-09
4.69775e-09
2.51799e-09
4.16038e-09
2.40951e-09
3.64767e-09
2.28784e-09
3.16215e-09
2.15339e-09
2.70622e-09
2.00678e-09
2.28209e-09
1.84882e-09
1.89177e-09
1.6806e-09
1.53697e-09
1.50353e-09
1.21907e-09
1.31942e-09
9.39046e-10
1.13055e-09
6.97439e-10
9.3979e-10
4.94244e-10
7.50718e-10
3.28871e-10
5.67779e-10
2.00069e-10
3.96464e-10
1.05875e-10
2.43535e-10
4.35743e-11
1.17225e-10
9.68987e-12
2.74958e-11
-1.29027e-11
1.2985e-11
4.81485e-12
5.57003e-11
-5.6621e-11
1.31649e-10
-1.72328e-10
2.43847e-10
-3.29282e-10
3.94726e-10
-5.17041e-10
5.86101e-10
-7.26774e-10
8.19163e-10
-9.51059e-10
1.0945e-09
-1.18371e-09
1.41214e-09
-1.41957e-09
1.77159e-09
-1.65438e-09
2.17187e-09
-1.8846e-09
2.61159e-09
-2.10732e-09
3.089e-09
-2.32014e-09
3.602e-09
-2.52112e-09
4.14824e-09
-2.70868e-09
4.72513e-09
-2.88155e-09
5.3299e-09
-3.03874e-09
5.9596e-09
-3.17948e-09
6.6112e-09
-3.30321e-09
7.28154e-09
-3.40954e-09
7.96742e-09
-3.49821e-09
8.6656e-09
-3.56912e-09
9.37282e-09
-3.62226e-09
1.00858e-08
-3.65774e-09
1.08014e-08
-3.67576e-09
1.15163e-08
-3.67659e-09
1.22274e-08
-3.66057e-09
1.29317e-08
-3.62812e-09
1.36261e-08
-3.57972e-09
1.43078e-08
-3.51587e-09
1.4974e-08
-3.43716e-09
1.56219e-08
-3.34418e-09
1.6249e-08
-3.23759e-09
1.68528e-08
-3.11805e-09
1.74311e-08
-2.98628e-09
1.79815e-08
-2.84299e-09
1.85021e-08
-2.68894e-09
1.89909e-08
-2.52489e-09
1.94462e-08
-2.35161e-09
1.98664e-08
-2.16989e-09
2.025e-08
-1.98053e-09
2.05956e-08
-1.78432e-09
2.09021e-08
-1.58208e-09
2.11685e-08
-1.3746e-09
2.1394e-08
-1.16269e-09
2.15778e-08
-9.47155e-10
2.17193e-08
-7.28779e-10
2.18182e-08
-5.08359e-10
2.18742e-08
-2.86676e-10
2.18873e-08
-6.45074e-11
2.18573e-08
1.57382e-10
2.17846e-08
3.78235e-10
2.16695e-08
5.97306e-10
2.15124e-08
8.13859e-10
2.1314e-08
1.02717e-09
2.1075e-08
1.23652e-09
2.07963e-08
1.44122e-09
2.0479e-08
1.64057e-09
2.01241e-08
1.83389e-09
1.9733e-08
2.02052e-09
1.9307e-08
2.19981e-09
1.88478e-08
2.3711e-09
1.83569e-08
2.53377e-09
1.78362e-08
2.68719e-09
1.72875e-08
2.83077e-09
1.67128e-08
2.9639e-09
1.61142e-08
3.086e-09
1.54941e-08
3.1965e-09
1.48545e-08
3.29485e-09
1.41981e-08
3.3805e-09
1.35273e-08
3.45295e-09
1.28447e-08
3.51168e-09
1.21531e-08
3.55622e-09
1.1455e-08
3.5861e-09
1.07535e-08
3.60092e-09
1.00514e-08
3.60027e-09
9.35165e-09
3.58381e-09
8.65723e-09
3.55122e-09
7.9712e-09
3.50226e-09
7.29659e-09
3.43673e-09
6.63645e-09
3.35454e-09
5.99381e-09
3.25564e-09
5.37168e-09
3.14012e-09
4.77299e-09
3.00821e-09
4.20058e-09
2.86024e-09
3.65721e-09
2.69677e-09
3.14545e-09
2.51854e-09
2.6677e-09
2.32657e-09
2.22612e-09
2.12218e-09
1.82261e-09
1.90705e-09
1.45872e-09
1.68331e-09
1.13565e-09
1.45362e-09
8.5414e-10
1.2213e-09
6.14465e-10
9.90394e-10
4.16361e-10
7.65883e-10
2.59001e-10
5.53826e-10
1.40962e-10
3.61574e-10
6.02336e-11
1.97953e-10
1.42514e-11
7.34784e-11
1.34929e-12
1.7402e-11
-1.25865e-11
7.2021e-11
-1.11241e-10
1.66271e-10
-2.66578e-10
3.02297e-10
-4.65309e-10
4.81838e-10
-6.96582e-10
7.0615e-10
-9.51086e-10
9.75977e-10
-1.22089e-09
1.29154e-09
-1.49927e-09
1.65258e-09
-1.7806e-09
2.05832e-09
-2.06012e-09
2.50757e-09
-2.33385e-09
2.99873e-09
-2.59848e-09
3.52986e-09
-2.85127e-09
4.09867e-09
-3.08993e-09
4.70261e-09
-3.31262e-09
5.33892e-09
-3.51785e-09
6.0046e-09
-3.70442e-09
6.69653e-09
-3.87141e-09
7.41145e-09
-4.01813e-09
8.14599e-09
-4.14408e-09
8.89674e-09
-4.24896e-09
9.66022e-09
-4.3326e-09
1.0433e-08
-4.39499e-09
1.12115e-08
-4.43624e-09
1.19923e-08
-4.45656e-09
1.2772e-08
-4.45627e-09
1.35472e-08
-4.43578e-09
1.43146e-08
-4.39555e-09
1.5071e-08
-4.33616e-09
1.58134e-08
-4.2582e-09
1.65386e-08
-4.16237e-09
1.72437e-08
-4.04937e-09
1.79261e-08
-3.91998e-09
1.85831e-08
-3.77501e-09
1.92121e-08
-3.61529e-09
1.98108e-08
-3.44169e-09
2.0377e-08
-3.25512e-09
2.09086e-08
-3.05648e-09
2.14037e-08
-2.8467e-09
2.18605e-08
-2.62674e-09
2.22775e-08
-2.39755e-09
2.26533e-08
-2.1601e-09
2.29866e-08
-1.91534e-09
2.32762e-08
-1.66425e-09
2.35213e-08
-1.4078e-09
2.37211e-08
-1.14695e-09
2.3875e-08
-8.82669e-10
2.39826e-08
-6.15899e-10
2.40435e-08
-3.47591e-10
2.40577e-08
-7.86821e-11
2.40251e-08
1.89903e-10
2.39461e-08
4.57249e-10
2.3821e-08
7.22453e-10
2.36502e-08
9.84627e-10
2.34345e-08
1.24289e-09
2.31746e-08
1.49639e-09
2.28716e-08
1.74427e-09
2.25264e-08
1.98569e-09
2.21405e-08
2.21985e-09
2.17151e-08
2.44592e-09
2.12518e-08
2.66312e-09
2.07522e-08
2.87067e-09
2.02182e-08
3.06781e-09
1.96516e-08
3.25379e-09
1.90545e-08
3.42788e-09
1.8429e-08
3.58936e-09
1.77775e-08
3.73753e-09
1.71023e-08
3.87171e-09
1.64059e-08
3.99123e-09
1.56909e-08
4.09545e-09
1.49601e-08
4.18375e-09
1.42163e-08
4.25554e-09
1.34623e-08
4.31024e-09
1.2701e-08
4.34732e-09
1.19357e-08
4.36627e-09
1.11693e-08
4.36666e-09
1.04051e-08
4.34806e-09
9.64616e-09
4.31012e-09
8.89584e-09
4.25258e-09
8.15737e-09
4.17521e-09
7.43399e-09
4.07791e-09
6.72896e-09
3.96068e-09
6.04545e-09
3.82363e-09
5.38661e-09
3.66704e-09
4.75548e-09
3.49137e-09
4.15499e-09
3.29727e-09
3.58789e-09
3.08564e-09
3.05678e-09
2.85769e-09
2.564e-09
2.61496e-09
2.11164e-09
2.35941e-09
1.70147e-09
2.09348e-09
1.3349e-09
1.82019e-09
1.01296e-09
1.54324e-09
7.36241e-10
1.26712e-09
5.04858e-10
9.97266e-10
3.18464e-10
7.40221e-10
1.76227e-10
5.03811e-10
7.68755e-11
2.97306e-10
1.87582e-11
1.31596e-10
2.01069e-11
2.17269e-11
-3.43121e-11
8.81558e-11
-1.7767e-10
2.00698e-10
-3.79121e-10
3.60661e-10
-6.25271e-10
5.69079e-10
-9.05e-10
8.26627e-10
-1.20863e-09
1.13356e-09
-1.52782e-09
1.48971e-09
-1.85542e-09
1.89444e-09
-2.18534e-09
2.34672e-09
-2.51239e-09
2.84508e-09
-2.83221e-09
3.3877e-09
-3.1411e-09
3.97239e-09
-3.43596e-09
4.59669e-09
-3.71423e-09
5.25784e-09
-3.97377e-09
5.95287e-09
-4.21288e-09
6.67859e-09
-4.43015e-09
7.43169e-09
-4.6245e-09
8.20868e-09
-4.79512e-09
9.00602e-09
-4.94141e-09
9.82006e-09
-5.063e-09
1.06471e-08
-5.15967e-09
1.14835e-08
-5.23139e-09
1.23256e-08
-5.27827e-09
1.31695e-08
-5.30055e-09
1.40119e-08
-5.29859e-09
1.48489e-08
-5.27284e-09
1.56772e-08
-5.22386e-09
1.64934e-08
-5.15228e-09
1.7294e-08
-5.05884e-09
1.80759e-08
-4.9443e-09
1.88361e-08
-4.80952e-09
1.95715e-08
-4.65539e-09
2.02793e-08
-4.48285e-09
2.09569e-08
-4.2929e-09
2.16018e-08
-4.08655e-09
2.22116e-08
-3.86486e-09
2.2784e-08
-3.6289e-09
2.33171e-08
-3.37978e-09
2.38089e-08
-3.11859e-09
2.42578e-08
-2.84649e-09
2.46623e-08
-2.56459e-09
2.5021e-08
-2.27404e-09
2.53328e-08
-1.976e-09
2.55966e-08
-1.67159e-09
2.58116e-08
-1.36196e-09
2.59771e-08
-1.04825e-09
2.60928e-08
-7.31589e-10
2.61583e-08
-4.13092e-10
2.61735e-08
-9.38697e-11
2.61384e-08
2.24981e-10
2.60533e-08
5.42377e-10
2.59185e-08
8.57249e-10
2.57346e-08
1.16854e-09
2.55023e-08
1.47522e-09
2.52224e-08
1.77625e-09
2.48961e-08
2.07064e-09
2.45244e-08
2.35739e-09
2.41087e-08
2.63554e-09
2.36505e-08
2.90412e-09
2.31514e-08
3.1622e-09
2.26132e-08
3.40885e-09
2.20378e-08
3.64319e-09
2.14273e-08
3.86431e-09
2.07838e-08
4.07136e-09
2.01097e-08
4.26349e-09
1.94073e-08
4.43988e-09
1.86793e-08
4.59972e-09
1.79283e-08
4.74223e-09
1.71571e-08
4.86666e-09
1.63686e-08
4.97227e-09
1.55658e-08
5.05839e-09
1.47517e-08
5.12433e-09
1.39295e-08
5.16949e-09
1.31025e-08
5.1933e-09
1.22739e-08
5.19521e-09
1.14472e-08
5.17478e-09
1.06257e-08
5.13162e-09
9.81287e-09
5.06539e-09
9.01218e-09
4.9759e-09
8.22706e-09
4.86303e-09
7.46095e-09
4.72679e-09
6.71723e-09
4.56735e-09
5.99923e-09
4.38505e-09
5.31017e-09
4.18043e-09
4.65316e-09
3.95428e-09
4.03116e-09
3.70764e-09
3.44694e-09
3.44191e-09
2.90306e-09
3.15884e-09
2.40181e-09
2.86066e-09
1.9452e-09
2.55009e-09
1.53491e-09
2.23048e-09
1.17228e-09
1.90588e-09
8.58233e-10
1.58116e-09
5.93335e-10
1.26216e-09
3.77743e-10
9.55814e-10
2.11244e-10
6.7031e-10
9.33073e-11
4.15244e-10
2.31691e-11
2.01734e-10
4.32745e-11
2.5935e-11
-6.02463e-11
1.03987e-10
-2.5572e-10
2.3466e-10
-5.09794e-10
4.18466e-10
-8.09077e-10
6.55752e-10
-1.14229e-09
9.46604e-10
-1.49948e-09
1.29077e-09
-1.87199e-09
1.68765e-09
-2.2523e-09
2.13625e-09
-2.63393e-09
2.63518e-09
-3.01133e-09
3.18272e-09
-3.37975e-09
3.77676e-09
-3.73514e-09
4.4149e-09
-4.0741e-09
5.09444e-09
-4.39376e-09
5.81241e-09
-4.69174e-09
6.56562e-09
-4.96609e-09
7.35071e-09
-5.21524e-09
8.16414e-09
-5.43793e-09
9.00224e-09
-5.63322e-09
9.86124e-09
-5.80042e-09
1.07373e-08
-5.93907e-09
1.16266e-08
-6.04894e-09
1.25252e-08
-6.12995e-09
1.34291e-08
-6.18223e-09
1.43346e-08
-6.20603e-09
1.52377e-08
-6.20174e-09
1.61348e-08
-6.1699e-09
1.70221e-08
-6.11114e-09
1.7896e-08
-6.02617e-09
1.8753e-08
-5.91582e-09
1.95897e-08
-5.781e-09
2.04028e-08
-5.62267e-09
2.11893e-08
-5.44187e-09
2.19461e-08
-5.23968e-09
2.26705e-08
-5.01725e-09
2.33597e-08
-4.77576e-09
2.40113e-08
-4.51643e-09
2.46229e-08
-4.2405e-09
2.51923e-08
-3.94924e-09
2.57177e-08
-3.64396e-09
2.61971e-08
-3.32595e-09
2.66291e-08
-2.99654e-09
2.70121e-08
-2.65705e-09
2.73449e-08
-2.30882e-09
2.76265e-08
-1.95317e-09
2.7856e-08
-1.59143e-09
2.80326e-08
-1.22493e-09
2.8156e-08
-8.54977e-10
2.82258e-08
-4.82874e-10
2.82419e-08
-1.09915e-10
2.82042e-08
2.62622e-10
2.81131e-08
6.33476e-10
2.7969e-08
1.0014e-09
2.77723e-08
1.36516e-09
2.7524e-08
1.72355e-09
2.72249e-08
2.07538e-09
2.68761e-08
2.41947e-09
2.64788e-08
2.75467e-09
2.60345e-08
3.07984e-09
2.55447e-08
3.39388e-09
2.50112e-08
3.69568e-09
2.44359e-08
3.98419e-09
2.38207e-08
4.25834e-09
2.31679e-08
4.51711e-09
2.24798e-08
4.7595e-09
2.17588e-08
4.98451e-09
2.10075e-08
5.19121e-09
2.02285e-08
5.37864e-09
1.94249e-08
5.54592e-09
1.85993e-08
5.69218e-09
1.7755e-08
5.81656e-09
1.68951e-08
5.91829e-09
1.60229e-08
5.99659e-09
1.51416e-08
6.05077e-09
1.42548e-08
6.08016e-09
1.33658e-08
6.08419e-09
1.24782e-08
6.06232e-09
1.15958e-08
6.01411e-09
1.07219e-08
5.93924e-09
9.86035e-09
5.83746e-09
9.01473e-09
5.70865e-09
8.18864e-09
5.55288e-09
7.38566e-09
5.37033e-09
6.6093e-09
5.16141e-09
5.86297e-09
4.92676e-09
5.14997e-09
4.66728e-09
4.47345e-09
4.38416e-09
3.83638e-09
4.07897e-09
3.24154e-09
3.75368e-09
2.69145e-09
3.41074e-09
2.1884e-09
3.05315e-09
1.73433e-09
2.68454e-09
1.33093e-09
2.30928e-09
9.79515e-10
1.93257e-09
6.81099e-10
1.56058e-09
4.36372e-10
1.20054e-09
2.45746e-10
8.60937e-10
1.09415e-10
5.51574e-10
2.74591e-11
2.8369e-10
7.07321e-11
3.00171e-11
-9.02635e-11
1.19453e-10
-3.45155e-10
2.67999e-10
-6.58339e-10
4.75427e-10
-1.0165e-09
7.41422e-10
-1.40828e-09
1.06549e-09
-1.82354e-09
1.44686e-09
-2.25336e-09
1.88448e-09
-2.68992e-09
2.37697e-09
-3.12642e-09
2.9226e-09