/*--------------------------------*- C++ -*----------------------------------*\
  =========                 |
  \\      /  F ield         | OpenFOAM: The Open Source CFD Toolbox
   \\    /   O peration     | Website:  https://openfoam.org
    \\  /    A nd           | Version:  7
     \\/     M anipulation  |
\*---------------------------------------------------------------------------*/
FoamFile
{
    version     2.0;
    format      ascii;
    class       volScalarField;
    location    "0.998";
    object      p;
}
// * * * * * * * * * * * * * * * * * * * * * * * * * * * * * * * * * * * * * //

dimensions      [0 2 -2 0 0 0 0];

internalField   nonuniform List<scalar> 
12359
(
0.0643001
0.0736935
0.0475867
0.106806
0.0677049
0.153679
0.185434
0.167788
0.224727
0.142119
0.206964
0.275442
0.485552
0.114195
0.101487
0.39403
0.441767
0.0522263
0.0518339
0.086636
0.122398
0.248983
0.0799022
0.0920516
0.0766313
0.0830494
0.0488114
0.0486667
0.0511141
0.0493278
0.0497583
0.0481349
0.047762
0.0490924
0.0476237
0.0499579
0.057497
0.0626509
0.066103
0.0600336
0.0715338
0.0612184
0.0550225
0.0543292
0.0504905
0.0507499
0.050234
0.0495678
0.0514666
0.048937
0.0485273
0.0483803
0.0480496
0.0526486
0.0479576
0.0478011
0.0536911
0.0477459
0.0477369
0.0476682
0.0478516
0.0476148
0.0484313
0.515043
0.0531419
0.131552
0.056765
0.0482872
0.0582566
0.347005
0.530584
0.0695635
0.0475758
0.0591181
0.0969285
0.0476264
0.0480323
0.047592
0.0559954
0.316111
0.126144
0.0431798
0.046523
0.0497643
-0.0586235
0.0257011
0.0430328
0.0448887
-0.0699489
-0.0526031
0.0473455
0.471289
0.0472942
0.0478185
0.048447
0.0092966
0.0472026
0.0479465
0.0575896
0.0539804
0.106292
0.0474637
0.026823
-0.129135
0.0415937
0.013894
0.0462067
-0.057055
0.0302711
0.0143176
0.0471975
0.04332
0.108765
0.0896842
0.0486559
0.0434621
0.0914994
0.0421928
-0.0759571
0.046569
0.047285
0.173889
0.0447513
0.00632567
0.0420384
0.0431297
0.0373603
0.0496205
0.0475822
0.0417761
0.0439439
-0.00240478
-0.00399248
-0.00282714
0.0462721
0.00759447
0.0435468
0.00785789
0.047499
0.0383634
0.0467332
0.065638
0.0158575
0.0462366
0.00863506
0.14609
0.0465289
-0.0473365
0.0414497
0.126192
0.00220522
0.047481
0.0158341
0.0446795
0.047238
-0.169092
0.107562
-0.00165652
0.0473072
0.0482152
0.0455419
0.048267
0.00483143
0.0128948
0.0465035
0.0431387
0.0466612
0.173118
0.0144661
-0.0720296
0.0475956
0.0476171
0.013516
0.0765063
0.0415654
0.0416084
0.0511209
0.0508955
0.110562
0.0420113
0.114097
0.0472162
0.0475837
0.0428774
0.0564451
0.205055
0.0430417
0.0475224
0.00573683
0.0428424
0.0478251
0.00863937
0.0132561
0.0445994
0.0129562
-0.139242
0.0332491
0.0438708
0.0161606
0.0423433
0.150496
0.00510863
0.0550368
0.0138237
0.0120036
0.0471936
0.0110487
0.0556609
0.00250892
0.0417551
0.0469041
0.000195004
9.45072e-05
-0.532543
0.200894
0.0475032
0.0434785
0.0486033
0.0433296
0.0663159
0.100184
0.0418425
0.00645023
0.470231
0.0415669
0.0468794
0.0670591
0.0308592
0.0454134
0.0446976
0.0445041
0.0465101
0.00945761
0.0552439
0.0470484
0.0543939
0.046561
0.0150779
0.0472123
0.293635
0.0464607
0.0237346
0.0472516
0.0545895
0.0445901
-0.0476194
0.0477112
0.00238664
0.041767
0.0132639
0.00181557
0.0619607
0.0504999
0.0449736
0.32439
-0.585507
0.0465779
0.0415665
0.397016
-0.0515093
0.054616
0.0455611
0.0450926
0.0128908
0.0748863
-0.457061
-0.0695767
0.0445851
0.0417512
0.0080245
0.0135063
0.0603182
0.014371
0.0450932
0.0416219
0.0464871
0.0416492
-0.120685
0.0432773
0.046102
0.0474511
0.0121862
0.0399996
0.0568265
0.0236157
0.046654
0.0473874
0.047474
0.0474521
0.0481799
0.00494128
0.0426883
-0.457613
0.0462403
0.0461912
0.0268388
0.0420049
0.100658
0.0484286
0.0485802
0.0473684
-0.110023
0.0444323
0.0473684
0.0437113
0.0480838
0.0411919
0.0432745
0.0435677
0.041883
0.0522235
0.20438
0.0410275
0.0498497
0.0625733
0.0226952
-0.0574362
0.040492
0.0582107
0.371687
0.0474414
0.0200951
0.0459984
0.0334264
0.0462204
0.0401651
0.226477
0.0192517
0.206263
0.0563092
0.0469429
0.0130987
0.00712179
0.0469113
0.012846
0.0140415
0.045635
0.0479279
0.0479236
0.0479927
0.047966
0.294339
0.0466308
0.103603
0.00117881
0.0554096
0.0141364
0.019364
0.0273239
0.034297
0.0184682
0.0347667
0.0571166
0.0205538
0.0218932
0.09227
0.0664892
0.0147549
0.0648114
0.0645759
0.016731
0.104278
0.0436856
0.0480241
0.031967
0.047984
0.0434821
-0.197127
0.501895
0.0436745
0.0475382
0.0463076
0.0470859
0.0183701
0.0472458
0.0472249
-0.0767509
0.0135323
-0.0486968
0.045549
0.0110392
0.0399408
0.047538
0.0162184
0.0316657
0.109908
0.032101
0.0438989
0.0460574
0.0130344
0.0102673
0.0408705
0.292902
0.0159721
0.00764419
0.050081
0.0471087
0.0475202
0.383752
0.0128516
0.0456698
0.0621907
0.0636765
0.0467555
0.0467196
0.0470166
-0.0572438
0.098751
0.0593761
0.0192795
0.00249618
0.0486095
0.114029
0.0495028
-3.52362e-05
-0.0613194
0.299467
0.0542206
0.0917326
0.0297007
0.0225089
0.0359333
0.0316323
0.0493819
0.0359181
0.0163031
0.0472514
-0.0526427
0.0573447
-0.00662009
0.00936004
0.0542042
0.0962825
-0.146797
0.0179481
0.0395252
0.00744943
0.00900446
0.0190764
0.0424761
0.0469519
0.0525122
0.0462406
-0.00304827
0.0438495
0.0826478
0.0852946
0.0372111
-0.0558406
0.103798
0.0535944
0.0461549
0.388398
0.0457647
0.0454477
0.00526044
0.0475435
0.04604
0.0453958
0.237608
0.200406
0.049298
0.0451367
0.109619
0.0484132
0.0193675
0.0156442
0.0141707
0.0455843
0.04707
0.0480741
0.0473815
0.0847868
0.0199316
0.0222486
0.0507263
0.051664
0.00266135
0.0494774
0.0462784
0.0408184
0.12001
0.00465848
0.047476
0.0479026
0.0128045
0.0318913
0.0487726
0.0432442
0.112352
0.0193446
0.00810541
0.0210127
0.045545
0.0465827
-0.00590982
-0.00443955
0.0473743
0.0370688
0.0496631
0.00609048
0.280874
0.046994
0.044056
0.0457043
0.015133
0.0535866
0.0523919
0.0431918
0.049433
0.0305143
0.0751706
0.0390497
-0.0361408
0.0461667
-0.0412145
0.0449291
-0.107719
0.0185544
-0.00288614
0.0477235
0.0504919
0.0220942
0.0428933
0.0484944
0.0554373
0.0537796
0.0540436
0.0710043
0.0142101
0.0138031
0.0465412
0.0425118
0.0196882
-0.00343221
0.0465444
0.0461359
0.012882
0.0457051
0.224422
-0.152548
-0.112451
0.046544
0.0411008
0.00133804
0.0528912
0.0418247
0.445764
0.0461744
0.11312
0.088154
0.0409532
0.041681
0.0486524
0.0375193
0.000761823
0.0308799
0.0510182
0.046584
0.0475879
0.053389
0.0511296
0.0554442
0.0145703
0.0482327
0.0461451
0.0207904
-0.0848425
0.0497234
-3.21768e-05
0.0463396
0.0515048
0.0936325
0.0014273
0.00186695
0.0967548
0.0456892
0.00205188
0.0468012
0.0476622
0.00296001
0.0371627
0.0451546
0.0371385
0.0471492
0.0460981
0.0426421
0.0489784
0.00202821
0.103301
0.0577489
0.118035
0.0163572
0.0395686
0.111629
0.0624501
-0.00509427
0.0140556
0.0634231
0.0543027
0.0476743
0.0376215
0.0212285
0.0465284
0.0475569
0.0456124
0.047714
-0.0161493
0.0375283
0.0347271
0.104339
0.0557302
0.234681
0.0059539
0.00204061
0.0423102
-0.00170883
0.04713
0.0499945
0.04662
0.104959
0.113969
0.0460373
0.0309443
0.22606
0.0163818
0.00545836
0.0384621
0.0645139
-0.129899
0.0453294
0.0490018
0.0471705
-0.0103413
0.048874
0.0317466
-0.0551916
0.0461661
0.0767904
0.0568314
0.0412281
0.0499835
0.0463052
0.0480427
0.05302
0.048098
0.0479689
0.0522984
0.00669336
0.0109999
0.0412816
0.33272
0.00135981
0.414686
0.0174094
0.0246254
0.0527096
0.0187951
0.0562979
0.0104269
0.318639
0.0980343
0.0554957
0.0435879
0.052505
0.0510976
0.0216705
0.0469486
-0.00822514
0.0481062
0.0994708
0.0484026
-0.0143851
0.0079915
0.011831
0.0557214
0.0388617
0.00853911
0.0767049
0.00516591
0.0403896
0.00322083
0.0429676
0.0465992
0.0495975
-0.210464
0.0707177
0.0411696
0.0464922
0.0483273
0.0532656
0.082393
0.0109314
0.0181974
0.0455871
0.0425561
0.0550034
0.0411026
0.0391164
0.00206394
0.0541136
0.0571265
0.00966123
0.0424174
0.0398274
0.103578
0.0465418
0.0544098
-0.256482
0.047702
0.00745731
0.051162
0.0401891
0.0886012
0.0102685
0.0505812
0.0189103
0.0474767
0.111389
0.041249
0.0134909
0.0113696
0.112123
0.0473407
0.00130438
-0.00572796
0.0561106
0.042059
0.0423287
0.0361837
0.238653
0.051942
0.0475192
0.0544816
0.0472658
-0.127092
0.0417621
0.0100904
0.0320386
0.0182346
0.520187
0.0417166
-0.0568324
0.0113288
-0.0923024
0.0189408
0.0509715
0.0416752
0.0321955
-0.0481838
-0.0365103
0.0452416
0.0448498
0.117677
0.0443865
0.211728
0.0200583
0.0701249
0.0426919
0.397322
-0.104478
0.04235
0.0466079
0.0471288
0.0929186
0.0533475
0.0579856
0.0507852
0.0156413
0.0762527
-0.0267432
0.350423
0.0455663
0.0821541
0.014338
0.120762
0.0433294
0.113301
0.00837791
0.0942425
0.0502431
0.0464859
0.00960811
0.00689585
0.0186236
0.117221
0.0125642
0.02539
0.0508223
0.0467054
0.0383386
0.24516
0.0383652
0.0121505
0.0660153
0.0205323
0.0363458
0.0515324
-0.00488907
0.0327633
0.0428645
-0.0164257
0.0574971
0.0277246
0.200285
0.0465837
0.0324423
0.0494555
0.0553197
0.0432271
0.0503212
0.0465343
0.00140747
0.0407723
0.0765666
0.0124165
0.0941246
0.0311479
0.0318864
0.0104234
-0.195909
0.0476937
0.0546963
0.0259233
-0.0702998
0.00725296
0.0472245
0.508
0.0464952
0.0415819
-0.167283
0.0531617
0.0475684
0.047665
0.0647741
0.0887705
0.0477139
0.0543285
0.108494
0.050022
0.0523166
0.0512012
0.0453373
0.0898377
-0.0172773
0.0531502
0.115807
0.0114036
0.0130864
0.00536814
0.0155173
0.0511727
0.0415359
-0.0408808
0.00508575
0.0723942
0.0463913
0.0477502
0.117141
-0.0014064
0.0337269
0.037158
0.033409
0.0507219
0.0418741
0.0830864
-0.228177
0.365562
0.0817571
0.0492143
0.0418441
0.0790461
0.346374
0.110796
0.0472307
0.00029424
-0.0125941
-0.240202
0.0362313
-0.158486
0.0477123
0.0511389
0.047769
0.00639928
0.0740628
-0.163456
0.0405147
-0.085407
0.0441609
0.0497371
0.0111688
0.05259
0.000990682
-0.0424632
0.0539481
0.035934
0.0249446
0.0364589
0.0537505
0.0754654
0.0717734
0.0312935
0.0782402
0.0539555
0.0478056
0.0518836
0.0483831
0.104497
0.0221266
-0.00751537
0.00283932
0.085039
0.0245616
0.0230969
0.0420836
-0.0123074
0.0343152
0.0532022
0.0471867
-0.000396128
0.108107
0.0405506
0.0401263
0.055145
0.0234974
0.101697
0.115243
0.0236548
0.234714
0.0223027
0.0861262
-0.0401159
0.0523001
0.0180879
0.0113765
0.0445335
0.0341182
0.0389508
0.0434055
0.0467955
0.0434072
-0.0140788
-0.00154609
0.0425445
-0.137747
0.0995093
0.0482635
0.0509576
0.00173566
0.0481607
0.0781704
0.0135868
0.00482029
0.0481048
0.0506795
0.0473331
0.0481655
0.117661
-0.138859
0.0484378
0.0568379
0.0465566
-0.145709
0.0214096
0.0151074
0.0462544
0.0483245
0.0510715
0.0250661
0.0843992
0.0280841
0.0462454
0.0512284
0.0480389
0.0210403
0.0838887
0.0389352
0.0475499
0.0308168
0.0252158
0.0744169
0.04292
-0.0169527
0.144982
0.0446277
0.0327229
0.050974
0.0427686
-0.185791
0.0537679
0.0483249
0.0122025
0.104173
0.0817487
-0.138178
0.0751912
0.0351062
0.027434
0.0550645
0.0391681
0.0347874
0.0543138
0.14578
0.0491008
-0.33168
0.0826666
0.180678
0.0392067
-0.00564338
0.0947724
-0.00169317
0.260653
0.00782737
0.0276943
0.034296
0.0383413
0.0465133
0.0430421
0.0874108
0.00129665
0.0544965
0.0446121
0.00747541
0.0173771
0.00600859
0.079436
0.000425057
0.00568591
0.0465395
0.0696482
-0.0501993
0.0866117
0.0464832
0.0350817
0.0518676
0.0464884
0.0682986
0.0476942
0.0431283
0.244377
0.0908154
-0.0173207
0.047742
0.0473456
0.0472873
0.0545912
0.0517427
-0.00198704
0.0518802
0.0472248
-0.0163878
0.021812
0.00687017
0.0679588
0.0497467
0.0406523
0.0911642
0.0346218
0.0477723
-0.0420267
0.0117229
0.111097
0.0482372
-0.234716
0.096275
0.0498675
0.00317097
0.0377703
-0.0233643
0.0356659
0.00120027
0.0933895
0.0489984
0.0495868
0.0219853
0.0390267
0.0532802
-0.00727448
0.0533308
0.0534003
0.0967749
0.0442534
0.051265
0.0355171
0.0108443
0.0496828
0.0533634
0.0515471
0.0463861
0.0953121
-0.0415664
0.0262468
0.0546303
0.0528203
0.0404509
0.0469074
-0.192925
0.0785939
0.0474641
0.0700782
0.0404763
0.0982895
0.152
0.00104768
0.0535731
0.0052709
-0.00192631
0.0462053
0.0401175
-0.000705413
0.0414225
0.0475287
0.0714519
0.0273993
0.0523539
0.0475617
0.0410251
0.0833152
0.0482076
0.0314296
0.0477134
0.0386332
0.0661958
0.131797
0.0470515
-0.2
0.0795387
0.0156126
-0.120507
0.0916067
0.0317896
-0.0330471
0.0551015
0.141918
0.206686
0.0526602
0.0433676
0.0432681
0.050097
0.0518749
0.00726246
-0.0787647
-0.145398
0.00909437
0.147374
-0.0067067
0.0107233
-0.0573501
0.0470771
0.0503774
0.0474636
0.0250279
0.0471822
0.00847518
0.0363603
-0.0119798
0.046618
0.0503766
0.0447785
-0.152327
0.118516
0.0773889
0.0600789
0.121243
0.0434456
0.0483326
-0.0164149
0.0361189
-0.0124576
0.00775352
0.0228034
0.00447132
0.0160399
0.0554212
0.0465353
0.0470018
-0.122229
0.0413133
0.0395416
0.0529837
0.00565423
0.0180784
0.0471011
0.0200468
-0.013606
-0.000110773
0.09335
0.0523569
0.0474348
0.00483669
0.054837
0.0471321
-0.000878219
0.00740754
0.0513427
0.13763
0.00154847
0.0472324
0.0475471
0.046366
0.106314
-0.140353
0.0404901
0.0102654
0.0506073
0.0515199
0.0119138
0.0474297
0.179474
0.0158613
-0.0521541
0.153086
0.0307905
0.0469333
0.0468738
0.0332466
0.0549743
0.046715
-0.17972
0.00544465
0.0436362
0.219403
0.100375
0.0409303
0.0465435
0.0476299
0.0523751
-0.0735787
0.159993
0.0331089
0.0764657
0.0654178
0.00603668
-0.0780395
0.0215658
0.0529954
0.0519778
0.0166308
0.0399614
0.0456269
0.0499554
0.00372667
0.0517362
0.0327472
0.0537543
0.0808251
-0.0113415
0.0452745
0.0500617
-0.00357398
0.00347633
0.0573191
0.04963
0.075422
-0.000693513
0.038663
0.0171772
0.0729283
0.0171741
-0.0331111
0.0519778
0.156987
0.0466145
0.105085
2.19283e-05
0.0474304
0.0470287
0.371892
0.0478286
0.0548999
0.0259945
0.0529585
0.0531194
0.0562183
0.047716
0.0472738
0.000260076
-0.026204
0.0450858
0.329212
0.0369536
0.0497069
0.23574
0.0980587
0.0544415
0.0442664
0.0494455
0.0872217
-0.2633
0.0528048
0.0449851
0.0465528
0.0501341
0.062793
0.0163759
0.0523059
0.0633378
0.0509386
-0.152217
-0.00635289
0.00903974
0.109235
0.0367355
0.049799
0.0044262
-0.117517
0.051977
0.0468025
0.0497167
0.0463222
0.0528904
0.0462459
-0.00340069
0.0439059
0.0415972
0.30466
-0.000965003
-0.00853361
0.00385437
0.052754
0.00099109
0.0859347
-0.0890559
0.0459979
0.0108177
0.0474153
0.240962
0.0466176
0.0476653
0.0312175
0.0466008
0.0257599
0.0576992
0.0530515
0.0458366
-0.0948739
0.0867597
0.0115483
0.0500393
0.0353466
-0.0559044
-0.00759488
0.0780745
0.0736884
0.0482371
0.0539686
0.0432489
0.049959
0.0450712
0.0499734
0.0888497
0.0741388
0.00694214
-0.105364
0.0242899
-0.00879122
0.0321934
-0.110981
0.0461707
-0.030047
0.0498056
-0.0128143
-0.00603012
0.0249645
0.047602
0.0291451
0.0106098
0.0320108
-0.0118272
0.233012
-0.103156
0.0497863
-0.00202839
0.0454331
-0.00504839
0.0898945
0.00366216
0.0427029
0.056108
0.0109158
0.0507238
0.0358419
0.048036
0.0445467
0.0467224
0.0539571
0.00651755
0.00140268
0.047153
0.0835955
-0.0827534
0.492657
0.0463547
0.072387
0.02933
0.193693
0.0309768
-0.179891
-0.0344662
0.0456392
0.0245412
0.066431
0.175565
0.0481824
0.0664862
0.0778145
0.0447802
-0.0874688
-0.00453857
0.0496577
0.0244745
-0.0347552
0.0753314
-0.0910316
0.0375291
0.0792856
0.0527939
0.0463175
0.0543944
0.0435443
-0.0753057
-0.000498268
-0.0637667
0.0482152
-0.0866435
0.0296266
0.00345815
0.1097
0.0247646
0.0276845
-0.0555876
0.0373135
0.036726
0.00528689
0.0694079
0.0254032
0.00871865
0.0686607
-0.0904878
0.0845912
0.0339402
0.0876785
0.0480506
0.11336
-0.000132147
0.100295
0.0520106
-0.0363171
0.0471384
0.0331149
0.00952431
-0.00101606
0.0559809
0.00611873
0.0444109
0.507546
0.0537525
0.00586541
0.0903364
-0.000146925
0.00727572
0.0480558
0.0310159
0.046825
0.464972
0.0471794
0.0469827
0.0463662
-0.0145338
0.0416222
0.0435671
-0.0120903
0.0279003
0.0629711
0.0419875
0.0467682
0.10662
0.0450603
0.103259
0.00747736
0.0848289
0.0383092
0.0406625
0.0255765
-0.0130232
0.00929016
0.0424756
0.532021
0.0471525
0.0468551
0.0541929
-0.137772
0.0519673
0.0309313
0.0788024
0.0517213
0.0404489
0.00295408
-0.0231025
0.0329207
-0.0467203
0.0526735
0.0438797
0.0146426
0.0196027
-0.00068766
0.0497195
0.0254326
0.0707271
0.193738
0.0366215
0.0470804
0.0445368
0.177842
0.0475499
0.0475578
-0.0353774
0.0316123
-0.0399093
0.0404292
0.0466243
0.18903
-0.0144751
0.0414821
0.0530541
0.044993
-0.113201
0.0475572
0.0332642
-0.0277325
0.0475575
0.0467555
0.00914252
0.0463305
0.0475654
0.0140502
0.0504761
0.0469063
0.0213397
0.0464738
-0.0129829
0.0466105
0.0576759
0.118615
0.00822766
0.0475741
0.00496998
-0.173327
0.0403371
0.0729211
0.0444645
0.0337053
0.0453035
-0.0178979
-0.00584534
0.0443043
0.0467461
0.131507
0.0294262
0.0164875
0.0124884
0.129142
0.0463546
0.0058273
0.0467265
-0.0201441
-0.00583298
-0.00457988
0.00790157
0.155066
-0.088967
0.00541831
0.0112049
0.0474054
0.0502644
0.000726995
0.13558
0.097433
0.0333146
-0.0733708
0.0461162
-0.0631053
0.197057
0.0467977
-0.00791133
-0.0207453
0.0794795
0.00902773
0.00676641
0.0714466
0.0469633
-0.0124198
-0.0647008
0.261713
0.052864
0.00249578
-0.0312403
0.141907
0.0492286
0.0467383
0.00668252
-0.0537591
0.0401745
0.0682201
0.0470216
0.0463588
0.0562583
0.0525068
0.02528
0.0533971
0.0466881
-0.015979
0.0355243
-0.0266104
0.0163838
0.0470806
0.0467852
0.142792
0.0523803
0.0788333
0.0603284
-0.0470833
0.0801836
0.0461604
-0.0225397
0.0569332
0.0468533
0.0280274
0.0379468
0.0401255
0.0937349
0.0254205
-0.146948
0.0397847
0.0467873
-0.0275754
0.0463107
-0.00603848
0.0305726
-0.0258044
-0.048359
0.0948893
-0.0314531
0.0471289
-0.00899584
0.0513843
0.0707991
-0.0236759
0.0197685
-0.0237089
-0.063842
0.17175
-0.0118069
0.0634678
0.0461699
0.046715
0.0462857
-0.0317027
0.138079
0.0462244
-0.0144975
-0.0197923
0.0149241
0.00224557
0.0277054
0.109044
-0.0293433
0.0529883
0.0122637
0.0249976
0.0474017
0.0474275
0.0490461
0.0527214
0.0124853
0.0469825
0.0504745
0.053941
0.0727168
0.000568077
0.0469475
-0.0190036
0.0466112
0.00365942
0.0132602
0.0494798
0.0407243
0.00117506
-0.0204766
0.0360587
0.0769233
0.0524034
0.0264632
0.0318451
0.046799
0.0514202
0.0520845
0.0495553
0.0468185
0.0684338
0.0467984
0.124987
0.0128223
-0.0912606
0.0468938
0.0581617
0.0470279
0.0475118
0.12067
0.0574847
0.0464185
0.314902
0.132965
0.0368631
0.0635946
0.0380108
0.119688
0.0194447
0.00854879
0.0551794
0.0538651
0.0467388
0.0488532
-0.0118908
0.0464365
0.0491093
0.122329
0.0497275
0.0514686
0.0283603
0.0469874
-0.0358776
0.0469325
0.0490396
0.00794104
0.00917727
-0.0708317
0.109521
0.0692961
0.0493402
0.0071186
0.0492638
0.0249713
0.00690519
0.0537038
-0.0275845
0.0476353
0.0258523
0.0688854
0.051891
0.100217
0.0468408
0.0536431
0.0467063
0.0287965
0.0463187
0.0528875
0.0242389
0.0440978
0.0693665
0.0269475
0.0467802
0.0264693
0.0121242
0.0536341
0.00834762
-0.0141243
0.0467439
0.0304995
0.109424
0.00260579
0.0547795
0.0434563
0.0435563
0.0251344
0.0554925
0.150348
0.0530455
0.0472716
0.0472955
-0.0215015
-0.00821651
-0.022425
0.28105
0.099994
0.0501923
0.0259834
0.0105943
0.047655
-0.0595573
0.0518754
0.103304
-0.000464525
0.049112
0.143551
-0.00789149
-0.0168119
0.0230379
0.0288145
0.0475377
0.0462058
0.0604519
0.0467687
0.0467562
0.136489
0.0498787
0.0624114
0.0462146
0.0378616
0.0443856
0.366903
0.0400255
0.0420482
-0.00934512
0.102582
0.0930549
0.0336622
0.108906
0.0474439
0.0457482
0.00457144
0.072162
0.123139
0.0486368
-0.000638982
0.0395155
0.0500489
0.0504352
0.0470316
0.0637506
0.0400788
0.0473442
0.0296465
0.257195
0.0474827
0.0116592
0.0315811
0.0468819
0.0614835
0.0499984
0.027001
0.0471436
0.046964
0.0151432
0.028753
0.0902322
0.140767
-0.225147
0.053538
0.0631566
-0.0388464
0.0325847
0.049919
0.0397393
-0.00088331
0.0468443
0.0510996
0.0467349
0.0295582
0.0642155
0.0188912
0.0468066
0.0594232
0.0339697
0.0523836
0.118296
0.0436294
0.0464824
0.0468087
0.0290655
0.0227994
0.306952
0.058758
0.0815225
0.00579102
0.00443856
0.046687
0.0979628
0.0468246
0.046808
0.0474149
-0.00283486
0.0527451
0.0343859
0.00684893
0.0196078
0.00607199
0.0295669
0.0636363
0.112932
0.0450546
0.0116267
0.0905576
0.0322866
0.127182
0.0514517
-0.161209
0.142085
0.133823
0.0461532
-0.113596
0.00551531
0.00765563
0.1361
-0.000406625
0.0574607
0.0541958
0.0379167
0.0361201
0.0331685
0.211038
0.0734411
0.0518282
0.0141326
0.0522852
0.0359343
0.0240742
0.0922429
0.0354971
0.0671061
0.0827092
0.00588326
0.0960975
0.0314407
0.0477455
0.058393
0.0471291
0.0441935
0.0453214
0.0522254
0.0186499
-0.0495063
0.0467492
0.165163
0.0460646
0.0399144
0.010246
0.0297824
0.0329676
0.0450682
0.00725464
0.0118886
0.249959
0.046846
0.00914533
0.0358905
0.0138154
0.0474295
0.0470376
0.150885
0.0237805
0.0324555
-0.123021
0.0262091
0.0387035
0.135118
0.0149269
0.119739
0.0535234
0.0187291
0.0368082
0.0441874
-0.0279721
0.00699728
0.0194737
0.0327256
0.046315
0.00615167
0.00580023
-0.000939618
0.0388715
0.0364228
0.416948
-0.038475
0.0459977
-0.013451
0.020821
-0.10859
0.0467082
0.0314131
0.0321187
0.0466734
0.00367162
0.0281357
0.0515486
1.38407e-05
-0.0230399
-0.00148932
0.0541514
0.0233226
0.0474742
0.0429887
-0.025257
0.081656
0.0291701
0.00690031
0.146198
0.0241588
0.0200848
0.0212869
0.0072791
-0.0276645
0.045164
0.0217486
0.0165735
0.0914544
0.277645
0.0130768
0.0344351
0.0198786
0.0467011
0.0918524
0.0309328
0.00904995
0.0466109
0.0352914
0.00626816
0.0136525
0.147905
0.010468
0.0300243
0.029157
0.0524693
0.00323927
0.0266658
0.0731866
0.0581098
0.0542371
0.010348
0.0358744
0.0411466
0.0379498
0.0470366
0.00619517
0.0617306
0.0295891
-0.0039591
-0.0455869
0.0418401
0.0280967
0.0170443
0.0240018
0.0468344
0.0983607
0.0980049
0.0717954
0.0474085
0.229485
0.00686721
0.0522426
0.0885713
0.0462356
0.0557644
0.0327092
0.0262076
0.0534074
-0.104961
0.0484083
0.0580356
0.0419836
-0.0118281
-0.0305108
-0.000480339
0.0618004
0.00927258
0.0474491
0.0291213
0.0738257
0.0484398
0.148807
0.0176897
0.0275167
0.00828305
0.0652724
0.0221355
0.0373591
0.0464456
0.0465427
0.0463987
0.0619811
0.122764
0.0166607
0.145323
0.0820536
0.0891069
0.0491011
0.0685231
0.00707194
0.0469214
-0.0241721
-0.0191969
0.0503734
0.0467828
0.0394392
0.0448712
0.0465389
0.0636698
0.0342705
0.13142
0.0168955
0.034932
0.087925
-0.0109224
0.00554854
0.0858236
0.0138033
0.024311
0.0698171
0.0463183
0.0613053
0.0283815
0.12143
0.128476
0.217933
0.0465887
0.126599
0.032551
0.0317524
0.102772
0.106648
0.0987685
-0.0246608
0.0211806
0.0666086
0.0215417
0.0389887
0.0455531
0.0901849
0.0462261
0.0173087
-0.0295682
0.0580082
-0.0258246
0.0458707
0.0830345
0.0531908
0.031196
0.101172
0.162341
0.0212091
0.0424587
0.017632
0.0334965
0.0710461
0.000150452
0.0813244
-0.00221828
0.0466041
0.0215701
-0.143086
0.0982816
0.0357453
-0.0419141
0.0100497
0.0412004
0.0455884
0.10327
0.0924738
0.0337873
0.0565178
0.0486736
0.00599984
0.0428962
0.00420186
0.0803122
0.0352787
0.140686
0.0465939
0.0437519
0.00431432
0.0372945
0.037837
0.0649897
0.0551614
0.0300816
0.167498
0.106579
0.0463877
0.00548389
0.042783
0.0463715
0.133084
0.0463644
0.0223841
0.0251666
0.0461776
0.046353
0.0508277
0.0077724
0.0601196
0.0966148
0.0281115
0.129113
0.0320619
0.0334107
0.0369365
0.077565
0.0468613
0.0390152
0.0369753
0.0269873
-0.0214638
0.00952523
0.065206
0.0443038
0.0544253
0.0318325
0.0419298
0.0599191
0.0221568
0.105698
0.0319975
0.0463989
0.00857287
0.0861048
0.00757416
0.0466419
0.134292
-0.0235401
0.044147
0.0970456
0.00589154
0.0514302
0.0958273
0.00336958
0.0882937
0.113141
0.00412281
0.0475531
0.0780513
0.0749781
0.013928
0.0437715
0.0317803
0.0465542
0.0468372
0.0463656
0.0142954
0.017886
0.0203853
0.0816867
-0.0637058
0.168196
-0.0616096
0.0277156
0.0418277
-0.0404196
0.04917
-0.101445
0.0334314
0.0232577
0.0191348
0.0289232
0.0639485
0.0401918
0.0325587
0.0525255
0.0466079
0.0766879
-0.0374656
0.0144852
0.0066766
0.0181277
0.0508101
0.0278585
0.0169867
0.0529383
0.0244721
0.0381192
0.117907
0.0850011
0.080221
0.092275
-0.00167557
-0.000124645
0.00610736
0.0234603
-0.00595061
0.0158963
0.0575409
0.0427878
0.129914
0.0730385
0.00702734
0.0470988
0.0946897
0.125847
0.0730436
0.0786975
0.0555127
0.0175472
0.113191
0.029455
0.0237481
0.0338659
0.0332593
0.0458298
0.028597
0.0296327
0.0523581
0.0209049
0.0302634
0.0426888
0.103822
0.0428047
0.0402802
0.0746009
0.0546112
0.0460857
0.0493386
0.00254154
0.0168002
0.0475927
0.0710258
-0.0515261
0.00678938
0.0545374
0.0201714
-0.0191508
-0.0404214
-0.00660994
0.0336473
0.0347842
0.0534306
0.0334855
0.0256641
-0.00030314
-0.00127718
0.00288451
0.000870941
0.0349515
0.0455191
0.0452404
0.128179
0.0609004
0.0342725
0.0380443
-0.000335266
0.0435955
0.0274405
0.148178
0.0864422
0.0113791
0.0524395
0.0171917
0.0461973
0.00862229
0.000815657
0.028266
0.0463394
0.0578641
0.16642
0.0406741
0.0881515
-0.0167024
0.0467007
0.0348074
0.0932564
0.100212
0.0691005
0.0478103
0.0437183
0.0448231
0.0473392
0.046433
0.0407538
0.00755344
0.0462879
0.0553011
0.0519973
-0.336577
0.118792
0.0448454
0.0465796
0.0108447
0.0175089
0.0233844
0.075851
0.018343
0.0457172
0.041086
0.00491893
0.0472517
0.014921
0.0914944
0.0703693
0.0449057
0.0131768
0.0469686
0.0389976
0.0372169
0.0405783
-0.0029445
0.0587234
0.035076
0.033515
0.109937
0.0803901
0.0461671
0.0467378
0.0362123
0.0318394
0.0147669
0.0201678
0.0395672
0.00755294
0.0791245
0.0473827
0.0375365
0.00634938
0.0397081
0.0840547
0.0624076
0.0500078
0.149314
0.0224617
0.124497
0.138576
0.0280674
-0.0024664
0.000187272
0.12445
0.0393715
0.00639899
0.0734701
0.036221
0.0230074
0.0888935
0.0714083
0.049538
0.00295855
0.0314297
0.0288194
0.0402009
0.00662159
0.0486951
0.079165
0.0484915
0.0564381
0.0852137
0.053246
0.0411945
0.105401
0.00780434
0.0905921
0.0293512
0.0711753
0.00885994
0.0605493
0.0123254
0.04813
0.0311708
0.00998483
0.0665467
0.0271747
0.048083
0.0416446
0.0162926
0.0454122
0.0349926
0.0554197
0.0364554
0.0230771
-0.000973245
0.0946496
0.103364
0.0996892
0.04073
0.0399662
0.0353804
0.0196689
0.0289754
0.0470751
0.0529159
0.069107
0.0249655
0.0577067
0.00492584
0.0316841
0.0560612
0.0332726
0.0325799
0.0433666
0.0306281
0.0374017
0.133189
0.257461
0.0230149
0.0279181
0.0291182
0.0329555
0.037641
0.036279
0.0340461
0.0229445
0.0143022
0.0452415
0.046561
0.0455299
0.00657375
0.0467169
0.029947
0.0414973
0.0309419
0.0585344
0.0339544
0.122328
-0.00732403
0.0462502
0.0348931
0.0903828
0.0411448
0.0596627
0.0883786
0.0518471
0.0465626
0.0296532
0.0063515
0.0859697
0.00381467
0.114161
0.0828125
0.00400425
0.0619119
0.0674616
0.0118241
0.0423104
0.0466446
0.0480676
0.0363541
0.0460492
0.0325888
-0.0369439
0.045176
0.0790246
0.0425898
0.0610374
0.0617529
0.161015
0.0531605
0.0414838
0.0056948
0.014581
0.0860002
0.0311466
0.0822163
0.0479878
0.0376623
0.0638309
0.0451517
0.0328121
0.0473852
0.0480254
0.0320236
0.0460284
0.034774
0.0606959
0.0799204
0.015651
0.0457554
0.00739139
0.00145933
0.0665064
0.0593752
0.0493479
0.0670941
0.130716
0.0465451
0.0402031
0.0455831
0.0595624
0.0384362
0.035455
0.0388148
0.0726597
0.082099
0.0324147
0.0780768
0.0894376
0.0590271
0.106938
0.0566395
0.0771779
0.0279157
0.0418805
0.0212593
0.0474837
0.0637015
0.0483843
0.0821622
0.00224442
0.0538766
-0.0125188
0.0429107
0.027189
0.116716
0.00831915
0.0457387
0.0461939
0.00485448
0.106173
0.0271895
0.0296456
0.0164393
0.0442003
0.080277
0.0375605
0.0449028
0.0361462
0.0090158
0.0414492
0.039868
0.391641
0.0388075
0.048431
0.0579063
0.0633266
0.0421852
0.0320868
0.0465739
0.10119
0.0422924
0.0465528
0.0142591
0.0367248
0.0295364
0.0406868
0.0620212
0.0411545
0.0437203
0.0430721
0.0341132
0.0789679
0.0465957
0.038651
0.056801
0.0447661
0.0391557
0.0532827
0.0537796
0.0584231
0.0588027
0.0466843
0.042473
0.0494287
0.029348
-0.00155861
-0.000697017
0.145329
0.0736743
-0.00972248
0.0315669
0.0462115
0.0496728
0.0571394
0.0729018
0.0470627
0.0282178
0.0748382
0.0559599
0.0264284
-0.00990168
0.021912
0.0460538
0.0373455
0.0463962
0.0928525
0.232525
0.0389377
0.0560749
0.0425463
0.00688441
0.0461977
0.0714391
0.0276435
0.0441986
0.0472314
0.0335915
0.0958172
0.0384887
0.0553573
0.0261107
0.0415806
0.0426739
0.0867067
0.0597915
0.0396952
0.0490335
0.0384921
0.0528729
0.0379145
0.0469672
0.0390474
0.0461966
0.0530355
0.0116186
0.0671784
0.0166793
0.0729157
0.0727873
0.0512666
0.0383282
0.0354465
0.0762514
0.0910687
0.0106547
0.0409349
0.0560864
0.0569451
0.0396091
0.0451822
0.0429557
0.036791
0.0282007
0.028327
0.0429063
0.0151009
0.0389206
0.0782684
0.0402458
0.0422546
0.0388991
0.0240988
0.082549
0.0525311
-0.000600332
0.0388547
0.0403251
0.0111974
0.0498265
0.000900488
0.0492443
0.040792
0.0456501
0.0452693
0.0476558
0.0416999
0.00509317
0.0465676
0.0214276
0.0708626
0.0493411
0.0566282
0.0336822
0.0949593
0.0593894
0.0470757
0.0350962
-0.0665371
0.0467559
0.00603181
-0.0818423
0.0646642
0.0842391
0.0508412
0.040726
0.0297964
0.0702447
0.0574986
0.0471203
0.0912662
0.0113064
0.080794
0.0466129
0.0458549
0.0425539
0.0432825
0.043765
0.0647493
0.0757394
0.0451748
-0.00149113
0.0437969
0.0513868
0.0410902
0.0323981
0.000443114
0.0459963
0.0409811
0.0242557
0.0404039
0.0453673
0.0493266
0.127065
0.0725628
0.0471571
0.0615816
0.0519398
0.0409438
0.0744402
0.0583703
0.0430221
0.0618109
0.0368112
0.0615621
0.0841297
0.00188226
0.024001
0.0472628
0.0689093
0.0455593
0.0494864
0.0482709
0.0414778
0.00170223
0.000524262
0.0574379
0.033214
0.035749
0.0278204
0.0459079
0.0452042
0.0471752
0.0702117
0.0350293
0.0466535
0.0408424
0.0527345
0.0235146
0.00932247
0.0467167
0.0461455
0.03648
0.0468631
0.0453381
0.0418482
0.0439217
0.0392469
0.0647145
0.060609
0.0342447
0.0446517
0.0511796
0.0573747
0.040922
0.046586
0.0421565
0.0313217
0.00112205
0.00594609
0.0358113
0.122249
0.0413072
-0.0602186
0.087363
0.0408027
0.0399111
0.0518736
0.0469477
0.0467263
0.0529622
0.0554593
0.0406384
0.0486124
0.0457304
0.0956355
0.00557869
0.0336107
0.0468683
0.0531978
0.0613235
0.068883
0.0329491
0.0493066
0.0465008
0.0449919
0.0416801
0.0288061
0.0268475
0.00547274
0.060432
0.0451216
0.0397297
0.0547641
0.0517112
0.0508739
0.0438771
0.0565717
0.0466787
0.0157608
-0.00247457
0.045643
0.0651396
0.0405243
0.0433715
0.0447997
0.0482133
-0.0464539
0.0621016
-0.000261194
0.0424015
0.00936842
0.0504696
0.0687741
0.126683
0.053656
0.0469162
0.0309597
0.0235497
0.109961
0.0403181
0.0654039
0.0437054
0.0461829
0.0639797
0.0441991
0.121038
0.000138993
0.077941
0.050346
0.0460526
0.0466472
0.0457223
-0.0268117
0.0383504
0.046028
0.0542334
0.0448487
0.04622
0.0458198
0.0109754
0.00371685
0.052516
0.0458199
0.0807425
0.0541011
0.0999735
0.382598
0.0217718
0.0426318