/*--------------------------------*- C++ -*----------------------------------*\
  =========                 |
  \\      /  F ield         | OpenFOAM: The Open Source CFD Toolbox
   \\    /   O peration     | Website:  https://openfoam.org
    \\  /    A nd           | Version:  7
     \\/     M anipulation  |
\*---------------------------------------------------------------------------*/
FoamFile
{
    version     2.0;
    format      ascii;
    class       volVectorField;
    location    "0.453";
    object      U;
}
// * * * * * * * * * * * * * * * * * * * * * * * * * * * * * * * * * * * * * //

dimensions      [0 1 -1 0 0 0 0];

internalField   nonuniform List<vector> 
12359
(
(0.982786 0.000674191 -1.29657e-18)
(0.970343 -0.00151142 9.71265e-17)
(0.999954 -2.01879e-05 -5.60392e-17)
(0.928527 0.00109575 1.56325e-17)
(0.976645 -0.000336313 4.04381e-17)
(0.879541 0.00100795 1.15059e-17)
(0.846585 -0.00864745 8.09857e-17)
(0.872875 0.00376093 -3.22512e-17)
(0.774833 0.0213853 -1.18515e-17)
(0.889969 0.00121028 -8.66464e-18)
(0.797537 0.00443701 7.41677e-17)
(0.71118 0.0136076 -2.58557e-16)
(0.244045 0.0706702 -1.66492e-16)
(0.922367 0.0016116 -6.4421e-17)
(0.937556 -0.0015464 -2.98904e-17)
(0.535404 0.00302512 3.09616e-16)
(0.42215 0.0039734 2.27789e-16)
(0.99442 -5.03515e-05 7.40909e-17)
(0.99499 -2.43944e-05 5.75555e-17)
(0.95433 -0.0022185 -5.51533e-17)
(0.911671 -0.00253378 -1.24042e-16)
(0.755726 0.0193359 -2.10308e-16)
(0.961165 0.00011477 -1.39502e-16)
(0.948362 -0.000954252 -1.54921e-17)
(0.967206 -0.00044751 3.00876e-18)
(0.958286 -0.000199378 -1.5735e-16)
(0.998423 -2.66905e-05 -2.14724e-20)
(0.998458 -0.000120697 -3.06119e-18)
(0.99578 5.31464e-05 4.733e-17)
(0.997698 8.63196e-05 4.1227e-18)
(0.997217 -1.56747e-05 -2.82312e-17)
(0.999202 -3.01375e-05 -3.58221e-17)
(0.99981 2.49375e-06 5.10352e-17)
(0.997944 -1.724e-05 -2.84616e-18)
(0.999943 -1.0545e-05 5.45195e-17)
(0.997039 -0.000140109 -1.96077e-17)
(0.988989 0.000232211 -1.78023e-16)
(0.983715 -9.55038e-05 -2.18079e-17)
(0.978993 -0.00121368 -9.74831e-17)
(0.985745 -0.000235221 3.22344e-16)
(0.972894 -0.00164449 -1.1842e-16)
(0.984269 -0.00052913 2.58626e-16)
(0.991252 -0.000115567 3.77419e-18)
(0.99244 -0.000338934 1.2894e-16)
(0.996502 -0.000133383 -4.47908e-17)
(0.996256 1.19193e-05 2.05651e-17)
(0.996698 -5.51505e-05 -4.83532e-17)
(0.997489 -7.36854e-05 -3.16085e-18)
(0.995514 4.4518e-05 -8.25438e-18)
(0.998163 -2.8365e-05 -4.13013e-19)
(0.998555 -8.42625e-05 -8.28359e-18)
(0.998856 -9.92015e-06 -2.07682e-17)
(0.999234 6.02941e-06 -6.18537e-18)
(0.994161 -3.34373e-05 -7.18105e-17)
(0.999443 5.1395e-05 -2.74873e-17)
(0.999703 -1.33993e-05 -6.50305e-18)
(0.99304 6.3513e-05 -1.86505e-16)
(0.999762 1.56818e-05 1.20784e-17)
(0.999759 -4.58599e-05 9.76938e-18)
(0.99988 -3.97418e-05 -1.04021e-16)
(0.999527 1.99942e-05 -7.55686e-17)
(0.999938 -1.90737e-05 3.65921e-17)
(0.99881 -5.56453e-05 -1.68253e-17)
(0.20387 0.113582 -7.6255e-16)
(0.993806 2.94776e-05 -1.24427e-16)
(0.899795 -0.00193682 -1.00691e-16)
(0.989929 0.000284919 2.49851e-16)
(0.998899 -3.42962e-05 -1.75798e-17)
(0.988261 -0.000199313 -9.38691e-17)
(0.612733 0.0238265 6.91614e-17)
(-0.0541356 -0.095855 2.40004e-15)
(0.974829 -0.000165388 -1.33853e-16)
(0.999972 -1.42067e-05 3.84888e-17)
(0.987201 -6.77288e-05 3.27105e-16)
(0.942741 -0.00351746 8.13609e-17)
(0.999927 1.14948e-05 -4.04893e-17)
(0.999315 6.09218e-05 1.02753e-17)
(0.999946 -2.25442e-06 -1.37308e-16)
(0.989841 -0.000424486 -1.68373e-16)
(0.63733 0.0137594 2.36448e-16)
(0.924625 0.0573476 2.83672e-17)
(1.00363 0.00272772 -6.89398e-18)
(1.00002 2.34574e-06 4.36431e-18)
(0.998651 0.0120353 1.81538e-17)
(1.10377 0.138108 1.81914e-17)
(1.02161 0.00115276 -5.77356e-19)
(1.0035 0.00237608 -2.09383e-18)
(1.00156 -7.66407e-06 -3.94605e-18)
(1.11554 0.050402 -1.00446e-18)
(1.09967 0.145446 -5.97609e-18)
(0.999964 8.17207e-05 2.66999e-17)
(0.297012 0.208745 -3.91549e-16)
(0.999999 8.61175e-06 -6.69398e-18)
(0.999537 0.00577178 6.02278e-18)
(0.999436 0.0105202 -4.7229e-17)
(1.03311 0.000162553 -2.02723e-19)
(0.999857 0.00493504 -1.99219e-17)
(0.999511 0.00578567 -1.39985e-17)
(0.990948 0.0296558 7.35237e-18)
(0.994907 0.0177153 -3.28311e-18)
(0.937196 0.0809306 -2.78122e-17)
(0.999998 1.62405e-05 -8.48923e-19)
(1.02078 0.00107215 -3.00045e-18)
(1.20917 0.0552629 -2.68848e-18)
(1.00451 0.00122328 4.91918e-19)
(1.03151 0.0196724 -2.23864e-17)
(1.00029 -2.03715e-05 -1.12645e-17)
(1.10245 0.141735 -1.08568e-17)
(1.0177 -0.00212143 -2.20211e-18)
(1.03255 0.0188788 -1.21988e-17)
(1.00002 0.00502971 -3.67695e-18)
(1.00331 0.00261054 -2.63017e-18)
(0.939069 0.0425053 4.57299e-17)
(0.955737 0.0750366 9.19383e-17)
(0.999609 0.0103355 1.23753e-17)
(1.00332 -9.05884e-05 1.0567e-18)
(0.95326 0.0778498 8.99615e-17)
(1.00438 0.0025951 9.12464e-18)
(1.11858 0.0341889 -1.27037e-17)
(1 2.11082e-05 1.15684e-19)
(0.999989 0.0047765 -1.31106e-17)
(0.8722 0.0215068 -1.99849e-16)
(1.00153 0.000274648 1.74335e-19)
(1.03638 0.00514918 2.81351e-18)
(1.00456 0.00202501 7.22431e-18)
(1.00336 0.000740438 2.53616e-20)
(1.01056 0.0892786 2.54838e-17)
(0.998444 0.0133687 -8.61157e-18)
(0.999971 4.22941e-06 7.29491e-17)
(1.00463 0.00176306 6.83896e-18)
(1.00244 -0.000238132 2.01995e-18)
(1.05152 0.016039 -3.33863e-18)
(1.05376 0.0150742 1.25512e-18)
(1.05214 0.0141886 5.9224e-18)
(1.00028 9.95792e-05 -4.55731e-18)
(1.0352 0.00537547 -1.31192e-18)
(1.00313 -5.31833e-05 6.12487e-18)
(1.03472 0.00626692 5.59558e-18)
(1.00001 9.27505e-05 2.72958e-17)
(1.01172 0.0905435 1.41867e-17)
(0.999999 3.42506e-05 8.58461e-18)
(0.982939 0.0021534 7.92788e-17)
(1.0301 0.0127331 -4.86207e-18)
(1.0003 3.62252e-05 -1.24026e-18)
(1.03929 0.0373087 -1.19692e-18)
(0.897572 0.0277209 -2.23295e-16)
(1.00002 7.33906e-06 6.63401e-19)
(1.09367 0.115049 4.32079e-18)
(1.0046 0.0011493 2.51115e-19)
(0.919358 0.0569763 -7.70164e-18)
(1.03476 0.00243425 -4.89114e-19)
(0.999987 3.46817e-05 -4.24426e-18)
(1.02979 0.0122221 8.31279e-19)
(1.00173 0.000117544 -4.55931e-18)
(1.00001 -3.85725e-06 4.00283e-18)
(0.551477 1.31038 -6.49169e-18)
(0.939524 0.0853074 -5.68433e-17)
(1.05187 0.0153382 -5.49461e-18)
(1.00017 0.00507133 1.8565e-17)
(0.999046 0.000549297 -6.86289e-18)
(1.00199 0.0453466 -3.38359e-17)
(0.998978 0.000612209 -1.11931e-17)
(1.03726 0.00438446 -1.66194e-18)
(1.03255 0.0109411 4.18561e-19)
(1.00005 1.07039e-05 3.36789e-18)
(1.00322 0.000266975 4.81638e-18)
(1.00251 0.0432724 -2.75994e-17)
(0.864619 0.0141498 1.75871e-16)
(1.03102 0.0104742 5.23925e-18)
(1.11823 0.049522 -1.46176e-17)
(0.999977 4.47567e-06 -1.7488e-17)
(0.99999 3.51922e-05 -9.02354e-17)
(1.03099 0.00793919 2.3938e-18)
(0.972814 0.00335054 1.74224e-16)
(1.0045 0.00110809 1.35717e-17)
(1.00756 0.087896 -4.82173e-17)
(0.996473 0.000512773 -1.3178e-16)
(0.99641 0.00071362 9.25684e-17)
(0.937292 0.0499147 -8.72586e-17)
(1.00437 0.0810199 -2.8631e-17)
(0.93187 0.00650381 -2.43844e-16)
(1.00001 3.49899e-05 -1.29832e-17)
(0.999977 1.60044e-05 1.1032e-16)
(1.00391 0.00266192 -7.84765e-18)
(0.991755 0.0276499 -1.60654e-17)
(0.81633 0.099246 1.65351e-16)
(1.00413 0.00542306 1.13752e-17)
(1.0001 0.0101887 1.10347e-17)
(1.0346 0.00264629 3.60108e-19)
(1.00459 0.00568123 1.90667e-17)
(0.999112 0.0100491 2.20197e-17)
(1.0339 0.000692538 -4.82412e-20)
(1.03333 -0.000702144 4.43506e-18)
(1.00181 0.000113744 -5.91777e-18)
(1.03359 0.0179649 -1.32974e-17)
(1.18562 0.0287333 -7.50064e-18)
(1.01457 0.011512 -2.30606e-18)
(1.00323 0.00594762 -6.51194e-18)
(1.03002 0.013458 -7.74904e-18)
(1.00424 0.00224671 -1.07302e-17)
(0.894978 0.0279762 -4.65764e-17)
(1.03523 0.00139637 -2.53323e-19)
(0.992926 0.0186196 1.63725e-17)
(1.03254 0.0180042 -7.44893e-18)
(1.03572 0.0344905 9.03521e-19)
(1.00001 3.85533e-05 -3.30446e-18)
(1.03691 0.0351079 5.31583e-18)
(0.992481 0.0165995 3.45687e-17)
(1.03814 0.00433919 -3.5829e-19)
(1.0056 0.00376611 -1.36989e-17)
(1.00002 5.33148e-05 -1.54089e-18)
(1.04443 0.0106706 3.65015e-18)
(1.04399 0.011624 2.47564e-18)
(1.07494 0.113464 -1.03146e-16)
(0.835885 0.0957022 1.46639e-16)
(0.999967 1.95583e-05 -3.51294e-17)
(1.00362 0.00599908 2.1735e-17)
(0.999104 0.00957244 5.12144e-18)
(1.00422 0.00566426 -5.1797e-18)
(0.981401 0.00121804 -3.68089e-17)
(0.946555 0.0642363 2.47827e-17)
(1.00531 0.00367082 7.57754e-19)
(1.03555 0.00452088 -7.61418e-19)
(0.372933 0.286524 1.72664e-16)
(1.00494 0.00225178 1.33308e-17)
(1.00001 4.38325e-05 4.2352e-18)
(0.981982 0.00054296 4.50167e-16)
(1.0178 0.000385806 -7.08019e-18)
(1.00198 0.0834434 3.54606e-17)
(1.00276 0.00593032 8.94878e-18)
(1.00315 0.00598561 1.41366e-17)
(1.00002 -2.95189e-06 -6.4914e-19)
(1.03822 0.0372531 1.398e-17)
(0.991797 0.0232712 -5.53576e-18)
(1.00079 0.00977555 1.48928e-17)
(0.994115 0.0215079 1.82719e-17)
(1 1.89784e-05 -7.26942e-19)
(1.02993 0.0134873 5.17145e-19)
(1.00052 0.0099018 1.05067e-17)
(0.626625 0.276785 4.33715e-17)
(1.00012 4.70261e-05 -9.80849e-19)
(1.02412 0.000246973 -2.66918e-18)
(1.00035 0.00756851 -7.72844e-18)
(0.989095 0.162771 1.45921e-17)
(1.00364 0.0469515 -2.63171e-17)
(1.09331 0.118962 -1.45752e-18)
(0.999904 7.38671e-05 1.16706e-17)
(1.03834 0.00383534 2.89079e-18)
(1.00412 0.00142749 -1.68818e-17)
(1.03366 0.00136682 -1.20639e-18)
(1.04267 0.00848298 1.7697e-19)
(0.985841 0.00031676 9.43935e-17)
(0.996981 0.000680734 9.20818e-17)
(1.00225 0.0062362 -3.28369e-18)
(0.532006 0.472553 -3.39392e-17)
(1.26696 0.173247 -1.04603e-16)
(0.999988 -4.43652e-07 1.77135e-18)
(1.00525 0.00295761 -7.92943e-18)
(0.374014 0.3822 3.4386e-16)
(0.79606 -0.0187677 2.03034e-17)
(0.99342 0.018018 -1.49987e-17)
(1.00331 0.0458629 -1.79543e-17)
(1.00451 0.0771996 -5.67343e-18)
(1.03325 0.0167759 -1.57406e-18)
(0.973688 -0.00024797 -1.70305e-17)
(1.3765 0.424205 -2.8176e-17)
(1.11393 0.0361888 7.18689e-19)
(1.00467 0.050643 1.91895e-18)
(1.00507 0.00232663 7.32199e-18)
(1.03586 0.0054057 -9.48359e-19)
(1.03127 0.00954865 -2.62911e-18)
(0.988929 0.0262215 -1.28289e-17)
(1.03063 0.0104714 1.87156e-19)
(1.00235 0.00598831 5.81306e-18)
(1.00523 0.00303637 5.92526e-18)
(1.00007 4.3032e-05 -1.29841e-18)
(1.00533 0.002871 2.87343e-18)
(1.16951 0.0843344 -1.13945e-17)
(1.00346 0.0509456 -8.12334e-19)
(1.00047 0.000128247 -1.28547e-18)
(0.999997 4.87618e-05 -1.89183e-17)
(1.03346 0.0158778 1.7977e-18)
(1.00803 0.00136975 1.33032e-17)
(0.991313 0.000209098 2.02529e-16)
(1.02119 0.00119368 3.76403e-18)
(1.00002 3.24361e-05 -7.39498e-18)
(1.00351 0.0723108 1.67382e-17)
(1.00002 1.37887e-06 -2.84112e-17)
(0.999989 -2.20738e-06 -3.72797e-19)
(0.999268 9.7431e-05 -1.45256e-16)
(1.03642 0.00346213 1.07822e-18)
(1.00398 0.0022504 -9.20975e-18)
(1.43472 0.452859 2.08315e-17)
(1.00035 6.09259e-05 9.12371e-18)
(1.00038 1.53261e-05 -1.99519e-18)
(1.02137 0.0012073 -7.17764e-19)
(1.00387 0.000233053 1.34128e-17)
(0.950444 0.0614187 6.1035e-17)
(0.99947 0.00898514 -8.9747e-18)
(0.99876 0.000242115 4.41287e-17)
(0.999991 2.34317e-05 -2.09838e-17)
(1.16523 0.0694075 -3.67817e-17)
(1.00435 0.0792326 -1.00465e-17)
(0.99997 3.95192e-05 -1.93385e-18)
(1.00386 0.00551392 -1.63065e-18)
(0.999722 0.00859395 -1.79881e-17)
(1.00432 0.000198147 6.38436e-18)
(1.00277 0.000494297 -2.79141e-18)
(1.00262 -0.000286862 4.88298e-19)
(1.00412 0.000741664 1.55067e-17)
(0.995575 0.0011788 3.88003e-17)
(0.838948 0.0536152 -1.41672e-16)
(1.00393 0.000331579 3.51115e-18)
(0.997567 6.33206e-05 1.78227e-16)
(0.986035 0.00061333 7.91534e-17)
(1.02484 0.0252012 1.14023e-17)
(1.10028 0.0315942 -1.14001e-17)
(1.00478 0.000593167 -3.50935e-18)
(0.990808 0.0249941 6.78282e-18)
(0.580005 0.107822 1.80343e-16)
(0.999995 1.44284e-05 -1.68267e-17)
(1.02602 0.0116766 -4.34639e-18)
(1.00057 0.000161655 1.46593e-18)
(1.01389 0.0121788 1.26912e-17)
(1.00033 1.39646e-05 -4.48854e-18)
(1.00523 0.000219226 -2.37196e-18)
(0.814175 0.0441773 6.2465e-17)
(1.02641 0.0130073 -5.16096e-19)
(0.822933 0.0975522 -2.80068e-16)
(0.991204 0.000268338 3.81359e-16)
(1.00083 0.00743852 -5.34367e-18)
(1.03305 0.000575709 2.12616e-19)
(1.03859 0.00144496 -1.5542e-18)
(1.00054 0.00760401 3.57338e-18)
(1.03346 0.00361639 -1.38386e-18)
(1.03412 0.000966297 2.08613e-18)
(1.00078 8.17233e-05 4.0672e-18)
(0.9994 0.000578907 2.28411e-17)
(0.999384 0.000550427 1.72745e-17)
(0.999363 0.000537748 4.7276e-17)
(0.99934 0.000490914 2.88805e-17)
(0.699769 0.262514 9.25403e-17)
(1.00003 3.27413e-05 -2.2088e-18)
(0.944324 0.0759727 -7.01192e-17)
(1.03829 0.0026725 7.03459e-19)
(0.993249 0.0258182 6.35202e-19)
(1.03195 0.012732 -4.79795e-18)
(1.02795 0.0140621 -5.97959e-18)
(1.01983 0.00146543 6.48583e-18)
(1.01317 0.0118141 5.53737e-18)
(1.02808 0.0125344 -1.14607e-18)
(1.01308 0.0119555 8.7611e-18)
(0.99171 0.0258399 7.05707e-17)
(1.02661 0.0269032 4.05318e-18)
(1.02662 0.0302958 -2.3007e-18)
(0.954061 0.050308 1.42365e-17)
(0.981043 0.0019525 1.88595e-16)
(1.03399 0.0769631 -3.85685e-17)
(0.9836 0.00166856 -1.61411e-16)
(0.98367 0.00122858 6.49463e-17)
(1.02874 0.0137042 -5.06076e-18)
(0.94194 0.0956208 4.09662e-17)
(1.00301 0.00252951 -2.69204e-18)
(0.999532 0.000146676 -4.57176e-17)
(1.01533 0.0107004 -5.23375e-18)
(0.999537 0.000110984 2.85937e-17)
(1.00336 0.00285309 -4.53158e-18)
(0.840335 0.0128464 1.71778e-16)
(0.22619 0.233961 -3.96383e-16)
(1.00321 0.00286609 -3.23949e-18)
(0.999984 6.57385e-06 -2.35808e-17)
(1.00027 -1.13192e-05 -8.84153e-18)
(0.999985 2.23077e-05 -3.59588e-18)
(1.02778 0.0115664 -2.18576e-18)
(0.999996 3.41095e-05 8.13502e-18)
(0.999996 1.88255e-05 -2.81915e-18)
(1.12293 0.05342 -5.91204e-18)
(1.0315 0.00946823 -3.42879e-18)
(1.09036 0.170457 -4.14176e-18)
(1.00147 0.0030625 5.72928e-18)
(1.03411 0.0118513 -3.16582e-18)
(1.00679 0.000136545 2.57491e-18)
(1.00028 0.0084504 -6.86118e-18)
(1.03178 0.0264552 -6.87079e-19)
(1.01602 0.0105592 -2.47003e-18)
(0.940263 0.00456143 -6.1631e-17)
(1.01544 0.00943472 -3.39292e-18)
(1.00289 0.00252351 -3.28987e-18)
(1.00052 0.000158238 -1.22827e-18)
(1.03215 0.00850922 -7.04817e-18)
(1.03451 0.0120571 -1.25123e-18)
(1.00503 0.000811438 -1.01516e-17)
(0.723705 0.0334796 5.30447e-16)
(1.03084 0.027079 -8.26041e-18)
(1.03666 0.000457816 -2.05286e-18)
(0.998547 0.033173 -1.12355e-17)
(1.00315 0.0393507 -2.22189e-17)
(0.999985 0.000110337 -2.66133e-17)
(0.392643 0.565475 -3.65558e-18)
(1.03543 0.0786474 -1.87291e-17)
(1.00121 0.00350763 -4.61167e-18)
(0.975666 0.180513 2.51523e-17)
(0.983962 0.000882559 1.86611e-16)
(0.999979 4.32724e-05 -1.49756e-18)
(1 3.29455e-05 -3.73785e-18)
(0.999994 3.9665e-05 4.92521e-18)
(1.10098 0.159696 2.70173e-17)
(0.947568 0.0949586 3.21225e-17)
(0.989118 0.0281469 1.66965e-17)
(1.02663 0.0096726 -5.89195e-19)
(1.03885 0.00411076 7.73568e-19)
(0.99959 0.0102454 5.09867e-17)
(0.931616 0.00796663 -1.85813e-16)
(0.999262 0.0337914 -1.14144e-17)
(1.04716 0.0132014 -5.98798e-18)
(1.10524 0.0292718 -4.5513e-19)
(0.711478 0.0420181 -1.27224e-16)
(0.994677 0.0260316 -1.3842e-17)
(0.958448 0.0486795 3.85607e-17)
(1.01889 0.000759066 -5.23294e-18)
(1.02578 0.0370653 3.36358e-18)
(1.01125 0.0107764 -1.99964e-17)
(1.01601 0.0117812 -3.66478e-18)
(0.998024 0.000231193 2.00788e-16)
(1.01191 0.0101716 1.06549e-17)
(1.0298 0.010957 8.20562e-19)
(1.00001 1.24454e-05 -5.17604e-18)
(0.998277 -0.021567 -4.55034e-17)
(0.990615 0.00105956 -5.48634e-17)
(1.05776 0.0116907 7.03916e-18)
(1.03616 0.00961796 4.84737e-18)
(0.994058 0.00109914 -1.80619e-16)
(0.956766 0.0565309 -3.47773e-17)
(1.17554 0.25181 -5.28728e-19)
(1.02857 0.0146444 2.60071e-18)
(1.00831 0.0151899 1.48857e-17)
(1.03485 0.00112126 -1.69143e-18)
(1.03484 0.00953375 2.09697e-18)
(1.02866 0.0314147 2.06417e-17)
(1.00455 0.00279522 6.81764e-18)
(1.00001 4.00963e-06 -6.01436e-18)
(0.99732 0.0667693 1.94829e-17)
(1.00033 0.000149629 -1.12977e-18)
(1.05183 0.017716 -3.16121e-18)
(1.00245 4.63626e-05 6.63827e-18)
(0.96547 0.00343435 3.01333e-16)
(0.961073 0.0417457 6.03528e-17)
(1.01044 0.00137851 -4.76415e-18)
(1.10308 0.102502 1.43893e-18)
(0.942897 0.0698444 2.15374e-17)
(0.994466 0.0171952 2.52419e-17)
(1.0009 0.0038704 -5.7204e-19)
(0.579432 0.0753753 -6.29772e-16)
(1.00066 6.06615e-05 4.26518e-18)
(1.00132 0.00311522 5.67759e-18)
(1.04256 0.0398785 3.21035e-18)
(0.999986 1.97688e-05 2.91839e-18)
(1.00128 0.00356766 6.7645e-19)
(1.00151 0.00273114 1.21881e-17)
(0.731125 0.232338 1.69607e-16)
(0.698955 0.491007 -8.23844e-17)
(0.998598 0.0112447 1.54069e-18)
(1.00155 0.000400037 3.1047e-18)
(0.942799 0.0346774 7.67206e-17)
(0.99961 0.0414579 -2.96887e-18)
(1.0272 0.0112493 5.62597e-19)
(1.03064 0.0147672 7.83986e-18)
(1.03091 0.00989636 -1.16592e-18)
(1.0008 6.23084e-05 3.71573e-18)
(1 4.4963e-05 -9.14745e-18)
(1.00128 0.0364874 -1.44586e-17)
(0.999991 9.3855e-06 7.97001e-18)
(0.966897 0.0411656 6.69771e-17)
(1.0261 0.0100711 -1.29294e-18)
(1.02544 0.0350975 -1.44556e-18)
(0.996764 0.000703253 6.39973e-18)
(0.99906 0.0648146 -1.61734e-17)
(1.04458 0.0370399 -3.23863e-18)
(0.997817 4.7069e-05 9.57673e-17)
(1.00145 0.0115708 -6.72197e-18)
(1.00565 0.00112698 -2.62795e-17)
(0.925409 0.0519935 -9.00446e-17)
(1.04323 0.0387928 8.50361e-18)
(0.999991 6.12291e-05 2.38334e-17)
(1.00121 0.0375647 -6.59711e-18)
(1.03209 0.00730079 6.0528e-18)
(1.01665 -0.000505747 -1.8749e-18)
(1.00029 0.0389063 -1.81874e-17)
(1.00305 0.000826608 -1.67855e-18)
(0.938087 0.0899103 -1.05854e-17)
(1.0264 0.00207853 7.65817e-18)
(1.0358 0.00710984 -2.43039e-18)
(1.02709 0.0304298 -1.30372e-17)
(1.00098 -0.000311058 5.67282e-18)
(1.00172 0.0113942 -1.51261e-17)
(1.05446 0.0571437 -7.3566e-18)
(1.05435 0.0175323 1.07632e-17)
(1 3.584e-05 2.73665e-18)
(1.01098 0.015591 2.06776e-17)
(0.99509 0.17162 2.89061e-17)
(1.03585 0.00100367 9.60023e-19)
(0.523261 0.458124 -3.52668e-16)
(0.999995 4.15813e-05 -8.41828e-18)
(1.00242 0.000376278 4.18873e-19)
(1.00071 3.83449e-05 -6.3214e-18)
(1.03174 0.0131716 -1.64968e-18)
(0.994238 0.0198112 -6.0138e-18)
(0.996283 0.0131916 9.28205e-18)
(1.00294 0.000290405 -1.18897e-17)
(0.999145 0.0361316 -3.74676e-17)
(1.01717 0.0120931 4.1175e-18)
(0.972733 0.00347259 -1.42758e-17)
(1.00937 0.00126722 -1.57092e-17)
(1.08496 0.0832637 -1.30829e-17)
(1.00045 6.1834e-05 2.81531e-18)
(1.0896 0.0979573 -7.62929e-18)
(1.00146 -3.53567e-05 3.63327e-18)
(0.649863 0.617979 3.06467e-16)
(1.02702 -0.00085734 -2.92161e-18)
(1.05184 0.0596802 5.97971e-19)
(0.999858 5.93576e-05 -2.40962e-16)
(0.996856 0.000672253 6.97228e-17)
(1.02581 0.0266188 -4.36396e-18)
(1.00381 0.00216689 -2.59911e-17)
(0.998839 0.000195125 -6.61598e-17)
(0.992167 -0.000137661 -1.16397e-16)
(0.995082 0.0200648 -4.31696e-19)
(0.994799 0.0187699 5.77631e-17)
(0.970196 0.156756 3.41994e-17)
(1.03321 0.0309721 7.75175e-18)
(1.03397 0.0303278 -4.39838e-18)
(1 8.93867e-06 6.1455e-19)
(1.00416 0.00220021 2.26914e-18)
(1.02715 0.0117076 3.02738e-18)
(1.05411 0.0155776 -1.24219e-18)
(1 4.02938e-06 -8.19811e-18)
(1.0005 1.95275e-05 1.16221e-18)
(1.03279 0.00823563 1.2164e-17)
(1.00078 0.000187323 -2.53393e-18)
(0.810898 0.0528837 -3.16886e-16)
(1.17044 0.232445 -1.9009e-17)
(1.13234 -0.0587973 1.27294e-17)
(1.00001 1.38548e-05 -7.61166e-19)
(1.00602 0.0092255 -4.03009e-18)
(1.04149 0.00893513 5.8969e-19)
(0.995579 0.0142182 1.79554e-19)
(1.00398 0.000728097 -2.60088e-18)
(0.336765 0.657496 3.5251e-16)
(1.00039 4.41188e-05 -4.45251e-18)
(0.934732 0.0753514 -3.26766e-17)
(0.96376 0.0428 -3.88979e-17)
(1.00643 0.00907264 -1.45458e-17)
(1.00424 0.00124696 -1.08299e-17)
(0.998675 0.000217852 2.01739e-16)
(1.01037 0.000906537 -4.29125e-18)
(1.03858 0.00226723 6.87773e-21)
(1.01669 0.00846135 -1.98435e-18)
(0.997258 0.0114895 6.79247e-18)
(1 2.21616e-05 3.80855e-19)
(1 1.81429e-05 -3.42857e-17)
(0.995276 0.0168241 3.50843e-18)
(0.996363 0.00125281 -5.44044e-17)
(0.994707 0.0589197 -1.9632e-17)
(1.03094 0.0123901 -6.88626e-18)
(0.999147 7.0977e-05 -8.5977e-17)
(1.00044 0.000181651 -2.24544e-19)
(1.02706 0.0280456 8.43525e-18)
(0.96475 -0.0353115 4.4461e-18)
(0.997674 0.000147433 1.99354e-17)
(1.04692 0.0120054 -3.60349e-18)
(1.00021 6.21284e-05 -7.12912e-18)
(0.996268 0.0112982 1.27874e-17)
(0.954561 0.0801285 -8.21386e-17)
(1.037 0.000676995 9.94822e-19)
(1.0393 0.0101005 1.71533e-18)
(0.949554 0.0579217 9.76434e-17)
(1.00223 0.0186921 1.08744e-17)
(1.0395 0.00443218 3.27427e-19)
(1 2.2894e-05 -3.53123e-18)
(0.999911 -4.70699e-06 -2.82531e-16)
(1.03762 -0.000945642 -1.52893e-19)
(1.01048 0.0095434 1.04987e-17)
(1.00319 0.0187793 -5.73454e-18)
(1.01093 0.00900224 7.2657e-18)
(0.999996 3.67748e-05 -1.2582e-17)
(1.00049 0.000188565 1.11753e-19)
(1.00399 0.000375318 -3.6779e-18)
(0.999243 0.0294091 -8.54406e-18)
(1.03821 0.00515744 -1.2419e-18)
(0.944123 0.0413614 1.22426e-16)
(0.98984 0.000997009 -4.41104e-16)
(0.931254 0.0334639 6.06771e-17)
(1.02997 0.0138111 1.0428e-18)
(1.00859 0.0168246 -8.96676e-18)
(0.934965 0.0481127 -1.64974e-16)
(0.986513 0.0210495 -3.94943e-18)
(1.05682 0.0114597 1.51581e-18)
(1.03129 0.0112165 -7.28095e-18)
(0.984979 0.0201629 3.10846e-17)
(0.993626 0.0570392 -4.56747e-18)
(0.999912 6.49913e-05 -8.07101e-17)
(1.01303 0.0622371 2.87769e-17)
(1.02642 0.0254785 1.26567e-18)
(1.00001 -1.45847e-05 -1.29272e-18)
(1 2.53866e-05 1.96298e-17)
(1.00078 0.000165454 -5.25951e-18)
(0.999684 0.000461874 1.21428e-18)
(1.06342 0.0659803 1.08264e-17)
(1.01066 0.0164383 -3.72614e-18)
(1.01306 -0.000373951 7.32902e-19)
(0.940356 0.0424352 -1.36316e-17)
(0.992492 0.000498701 -4.00202e-16)
(0.796844 0.016885 3.67078e-16)
(1.03506 0.00174432 9.7262e-19)
(1.03779 0.00312622 3.68324e-19)
(1.00409 0.000528483 -2.16302e-18)
(1.04986 0.0373727 -2.17084e-18)
(0.999997 3.04532e-05 -1.94243e-18)
(0.998982 0.0294365 4.46119e-18)
(1.00052 0.00339944 -1.07216e-17)
(0.940281 0.118414 3.07505e-17)
(0.931209 0.0467829 2.28628e-17)
(1.00198 0.0162201 -8.55024e-18)
(1.01665 0.0113038 -7.99012e-21)
(0.441578 0.657784 1.96241e-16)
(1.03067 0.0115277 2.36661e-19)
(1.04342 0.0595689 -1.38993e-17)
(1.00904 0.0126264 -1.37608e-17)
(0.981401 0.142298 1.1761e-17)
(1.16295 0.187194 2.04073e-17)
(1.00112 0.000126229 -5.17938e-18)
(0.998297 0.00329134 -1.40564e-17)
(1 6.25245e-06 3.54276e-18)
(1.05864 0.0614468 4.8624e-18)
(0.998481 0.00307126 2.11942e-17)
(1.01606 0.009038 -1.78939e-17)
(1.10258 0.104202 2.89899e-18)
(1.0004 0.000121715 -1.3614e-18)
(0.971073 0.00312684 -4.66518e-16)
(0.992396 0.0503728 -8.38738e-18)
(1.00657 0.0148156 -1.85743e-17)
(0.997606 0.000240182 -1.40148e-16)
(1.00219 0.0163151 -3.82358e-18)
(0.999175 0.000804616 -1.50309e-18)
(0.995643 0.0151221 -2.36549e-17)
(0.99917 0.000678587 -1.42209e-17)
(0.999213 0.000889232 2.76185e-19)
(0.995586 0.0135175 -8.21753e-18)
(1.0355 0.00591712 4.49989e-18)
(1.033 0.00769016 2.60017e-18)
(1.00692 0.0161972 1.64929e-17)
(0.661377 0.0317703 -4.06939e-16)
(1.03598 0.00217738 4.97119e-19)
(0.258501 0.296385 -3.72065e-16)
(1.02916 0.0133015 5.77077e-18)
(1.02199 0.000892332 4.37061e-19)
(0.995718 0.0143166 2.87885e-17)
(1.02723 0.0137822 -3.39924e-18)
(0.992463 0.0261073 -2.784e-17)
(1.03236 -0.000389365 3.79863e-20)
(0.528768 0.380048 -1.4602e-16)
(0.947717 0.0339332 6.51433e-17)
(0.993004 0.0242724 -1.02271e-17)
(1.00477 0.0227758 -1.19846e-17)
(0.99501 0.00103123 -9.29509e-17)
(0.996526 0.000951178 1.07466e-16)
(1.02625 0.0282114 -2.12492e-18)
(0.999994 3.22823e-05 -3.11923e-18)
(1.05588 0.00541818 -7.38524e-18)
(0.999238 7.36231e-06 -1.34711e-16)
(0.951252 0.0382703 -6.55876e-17)
(0.99973 0.0749257 3.44764e-17)
(1.0623 0.0582432 -1.72068e-18)
(1.03922 0.023516 8.4542e-18)
(1.03403 0.0136058 5.62683e-19)
(0.991187 0.0511234 1.34892e-17)
(1.00927 0.0125078 -1.35248e-17)
(1.03793 0.0236414 5.92684e-18)
(0.972532 0.0273173 8.61122e-17)
(1.04335 0.0601628 -1.31204e-17)
(1.00806 0.0215495 -2.12133e-17)
(1.04487 0.0374107 1.1302e-17)
(1.00549 0.0225191 7.38515e-18)
(1 1.01157e-05 -7.66382e-19)
(0.998928 0.0253845 5.16958e-17)
(0.699017 0.0528375 1.41832e-16)
(0.974651 0.131302 -3.37827e-17)
(1.00595 0.00546707 -1.02109e-17)
(1.00007 -1.88091e-05 7.57205e-19)
(0.999063 0.000148184 -4.59328e-18)
(0.994738 0.00728962 -4.39264e-19)
(0.96652 0.00377029 -4.14955e-16)
(1.03284 0.00574602 1.20961e-18)
(1.02856 0.00263049 -3.92226e-18)
(1.00087 4.85967e-05 -9.01077e-19)
(1.00456 0.00679588 -6.76442e-18)
(0.994135 0.0261298 3.00504e-18)
(1.00638 0.00512639 -1.69253e-17)
(1.00831 0.00122568 -1.56965e-17)
(1.04614 0.0327608 -4.83396e-18)
(0.993604 0.00141555 1.60752e-17)
(0.991911 0.0350556 2.46654e-17)
(1.03559 0.0139595 9.73484e-18)
(1.00513 0.00582208 1.20901e-18)
(1.00794 0.00635617 -4.24823e-18)
(0.946335 0.0591918 1.22257e-17)
(1 -4.58748e-06 2.07715e-18)
(0.993536 0.00543333 -5.4066e-18)
(1.29732 0.180311 -3.28904e-17)
(0.999866 1.20819e-05 -1.11574e-16)
(1.04075 0.0367206 9.18804e-18)
(0.998468 0.0723659 8.13896e-18)
(1.00745 0.00619964 1.59265e-18)
(0.958766 0.0476687 5.45326e-17)
(1.03467 0.0129764 9.42233e-18)
(0.997969 0.0258494 -7.18975e-18)
(1.02844 0.0340062 3.21718e-18)
(0.999656 0.00304789 1.01044e-17)
(0.936281 0.0374978 7.96687e-17)
(1.00508 0.000860788 -1.65298e-17)
(1.0325 0.00202283 -2.66209e-18)
(1.03343 0.0137067 -6.15829e-18)
(0.935857 0.0418614 1.17266e-18)
(0.999711 0.00307697 -7.43175e-18)
(1.0389 0.00395199 -3.38498e-19)
(1.05545 0.0203337 -2.41345e-18)
(0.99311 0.0330751 4.13695e-17)
(1.00574 0.0132179 1.85069e-17)
(1.00441 0.00295182 9.36114e-19)
(1.01446 0.0629926 3.32181e-17)
(0.799673 0.179521 -1.16207e-16)
(0.995579 0.0010498 1.69481e-16)
(0.999975 5.5409e-05 -3.33735e-17)
(0.994308 0.0244986 1.38827e-17)
(0.999984 1.33734e-05 7.06004e-18)
(1.15191 0.180917 -4.97221e-18)
(1.00671 0.0220226 -1.36261e-18)
(1.03778 0.0853634 -1.90771e-17)
(1.01549 0.00702995 -8.80058e-18)
(1.0286 4.93512e-05 -6.80109e-18)
(0.237075 0.0871467 -2.20451e-16)
(1.00636 0.0153761 -1.00512e-17)
(1.08489 0.20523 -5.50402e-18)
(1.0338 0.00712277 -1.25875e-18)
(1.09109 -0.0554749 -1.50025e-17)
(1.02744 0.0120439 8.60586e-19)
(0.9969 0.0118337 -1.13435e-17)
(1.00629 0.0137446 -2.9722e-18)
(1.01626 -0.000505807 8.49368e-19)
(1.09612 0.0859827 3.74222e-18)
(1.0855 0.0839064 -1.23978e-17)
(1.00143 -0.000228542 7.6288e-18)
(1.00119 -9.30396e-05 -2.12517e-18)
(0.930669 0.0381881 1.17919e-16)
(1.00203 -0.000125539 9.11574e-19)
(0.678946 0.402127 1.20909e-16)
(1.02675 0.0301738 1.66107e-18)
(0.970983 0.16183 9.44253e-18)
(1.0042 0.00284796 4.18189e-18)
(0.0832362 0.230842 -4.04111e-16)
(1.13666 0.237039 -4.79034e-17)
(1.00589 0.0216733 9.65519e-18)
(0.999993 1.83863e-05 2.54194e-18)
(0.999926 0.00272826 3.51816e-18)
(0.956406 0.0312906 3.86729e-17)
(0.994467 0.00794295 -8.02111e-18)
(0.990168 0.000314508 -2.7796e-16)
(0.997179 0.00985911 2.00296e-17)
(1.02998 0.0105838 -4.65336e-19)
(0.972659 0.0314794 1.75522e-17)
(1.06254 0.00364982 -4.11288e-17)
(0.623988 0.0461999 -8.04703e-16)
(1.00075 -6.36038e-05 3.87253e-18)
(0.966416 0.0364604 1.40795e-18)
(1.03303 0.0271273 -1.0036e-17)
(0.929691 0.0570464 -4.71568e-17)
(1.0045 0.0125036 6.65659e-18)
(0.929313 0.0786178 -3.36513e-17)
(1.03494 0.00798402 -3.06149e-18)
(0.954771 0.0354622 3.50336e-17)
(0.997109 0.000561263 -4.38364e-17)
(1.00005 -1.28808e-05 -2.01716e-18)
(1.0378 0.0230611 4.43865e-18)
(1.04003 0.023908 4.97595e-18)
(1.02561 0.000739055 -1.76988e-18)
(0.93368 0.0344627 -6.91988e-17)
(1.03508 0.0845666 -3.86742e-17)
(1.02178 0.000271676 1.85337e-18)
(0.997739 0.0236938 7.24745e-18)
(1.00065 0.00377725 5.44493e-18)
(1.00921 0.00794385 3.38422e-18)
(0.778231 0.0345815 2.19978e-16)
(1.00899 0.00852342 1.76711e-19)
(1.03402 0.0206493 -1.46109e-17)
(0.982608 0.0417344 -1.1487e-17)
(1.0259 0.00932956 6.6332e-18)
(1.01137 0.000739278 1.51281e-17)
(0.996852 0.0112895 1.74483e-17)
(1.05288 0.0185248 -1.8249e-18)
(1.01465 0.00671352 1.46144e-17)
(1.00527 0.0128413 1.05491e-17)
(1.05782 0.00446225 -1.23428e-17)
(0.991278 0.0291049 -2.63097e-17)
(1.01966 0.00223248 -9.28863e-19)
(0.815235 0.339884 -1.00871e-17)
(1 1.10396e-05 -3.45851e-19)
(1.01514 0.0076203 6.67206e-18)
(0.999017 0.0204928 -3.91557e-17)
(0.992574 0.00696671 2.0141e-17)
(1.00306 0.000376498 -9.49225e-18)
(0.997701 0.023617 -1.38179e-17)
(1.00001 2.70903e-06 -2.41638e-18)
(1.04668 0.102877 1.4587e-17)
(1.00551 0.000859631 7.42061e-19)
(0.973557 0.00524087 4.34981e-18)
(1.03466 0.0323811 5.04061e-18)
(0.955779 0.0439314 -9.7193e-17)
(1.0163 0.00888521 -6.14369e-18)
(1.01599 0.00810141 -6.84912e-18)
(1.0364 0.0228039 2.61847e-18)
(1.16755 0.116747 2.55358e-17)
(0.99987 5.20954e-05 -5.26424e-17)
(0.992706 0.000848873 3.82407e-16)
(1.02161 0.00123644 -4.69972e-18)
(1.10507 0.199657 -2.64868e-17)
(1.03957 0.0229822 6.31967e-18)
(0.999919 0.00288955 9.31041e-18)
(0.267732 0.140617 -1.14545e-15)
(1.00005 5.01091e-06 -1.07758e-19)
(1.00449 0.0016887 -1.24191e-17)
(0.796783 -0.00185318 2.12061e-16)
(0.994681 0.00507279 3.04521e-18)
(0.999573 0.00327868 -7.83235e-18)
(0.999518 0.00340213 -1.01849e-17)
(0.983641 0.03759 2.48849e-17)
(0.962013 0.0283714 1.17525e-16)
(0.999848 4.69866e-05 -7.61625e-18)
(0.993628 0.00636069 1.38094e-17)
(0.933404 0.069654 -1.28621e-16)
(0.997423 0.0210012 -7.07448e-18)
(0.995557 0.017925 2.14826e-17)
(0.996929 0.00908871 -1.19331e-17)
(1.00106 4.14417e-05 1.28029e-17)
(0.956685 0.0307859 -4.43121e-17)
(1.06474 0.0540227 1.62283e-17)
(0.995086 0.0151452 1.40107e-18)
(0.932847 0.034957 4.76389e-17)
(1.0326 0.00532105 3.44931e-18)
(1.03298 0.00215275 -1.38324e-18)
(1.04221 0.101314 -2.71928e-17)
(1.03142 0.0273952 -3.71818e-18)
(0.996832 0.00922542 1.42777e-17)
(1.00516 0.00152962 -1.42668e-18)
(1.08787 0.0987414 -3.05387e-18)
(1.03606 0.00472225 5.93316e-19)
(0.97597 0.0246111 5.03972e-17)
(1.00068 0.00397379 5.72812e-19)
(0.999639 0.000422752 3.229e-17)
(0.932747 0.0119278 -2.98914e-16)
(1.04881 0.0382536 -1.78114e-17)
(1.014 0.00636476 4.37075e-18)
(1.01156 0.0492009 1.80397e-17)
(1.01454 0.00730162 1.67634e-17)
(0.9971 0.00909302 -2.09032e-17)
(1.00544 0.00450136 1.60624e-18)
(0.965776 0.0337553 1.68065e-17)
(0.878951 6.07893e-05 1.52539e-17)
(0.334854 0.415622 9.74342e-17)
(0.967386 0.0378141 5.42002e-17)
(0.999233 0.0173768 -2.74982e-17)
(1.00528 0.00419467 -1.68469e-17)
(0.969647 0.0351099 3.88715e-17)
(0.547003 0.307485 -2.41483e-16)
(0.937377 0.0333197 -1.1541e-16)
(0.999868 0.0028277 -8.25184e-18)
(1.04714 0.0314701 -9.12656e-18)