/*--------------------------------*- C++ -*----------------------------------*\
  =========                 |
  \\      /  F ield         | OpenFOAM: The Open Source CFD Toolbox
   \\    /   O peration     | Website:  https://openfoam.org
    \\  /    A nd           | Version:  7
     \\/     M anipulation  |
\*---------------------------------------------------------------------------*/
FoamFile
{
    version     2.0;
    format      ascii;
    class       volVectorField;
    location    "8";
    object      U;
}
// * * * * * * * * * * * * * * * * * * * * * * * * * * * * * * * * * * * * * //

dimensions      [0 1 -1 0 0 0 0];

internalField   nonuniform List<vector> 
2413
(
(2 5.11567e-16 0)
(2 -4.1322e-16 0)
(2 -6.8972e-16 0)
(2 -1.1815e-15 0)
(2 -1.31644e-15 0)
(2 -1.25676e-15 0)
(2 -1.06293e-15 0)
(2 -1.16341e-15 0)
(2 -1.30311e-15 0)
(2 -1.90463e-15 0)
(2 -1.16225e-15 0)
(2 -3.49508e-16 0)
(2 2.90089e-16 0)
(2 6.61448e-16 0)
(2 1.16783e-15 0)
(2 1.52058e-15 0)
(2 1.92191e-15 0)
(2 1.91008e-15 0)
(2 1.90032e-15 0)
(2 1.9298e-15 0)
(2 1.6993e-15 0)
(2 1.12538e-15 0)
(2 6.4191e-16 0)
(2 2.12218e-16 0)
(2 1.23098e-16 0)
(2 5.80714e-17 0)
(2 -1.10211e-17 0)
(2 -9.00804e-16 0)
(2 -1.13071e-15 0)
(2 -1.03747e-15 0)
(2 -7.53006e-16 0)
(2 -6.88088e-16 0)
(2 -6.41485e-16 0)
(2 -6.97972e-16 0)
(2 -4.81407e-16 0)
(2 -3.57512e-16 0)
(2 -3.57359e-16 0)
(2 -3.88315e-16 0)
(2 -3.91617e-16 0)
(2 -8.5727e-16 0)
(2 -1.17014e-15 0)
(2 -1.00687e-15 0)
(2 -8.48584e-16 0)
(2 -8.40873e-16 0)
(2 -5.51615e-16 0)
(2 -4.10709e-16 0)
(2 -3.62716e-16 0)
(2 -2.75115e-16 0)
(2 -2.73267e-16 0)
(2 -2.78289e-16 0)
(2 -3.72902e-16 0)
(2 -5.13189e-16 0)
(2 -6.37297e-16 0)
(2 -6.78704e-16 0)
(2 -8.12468e-16 0)
(2 -5.65218e-16 0)
(2 -2.75945e-16 0)
(2 -1.95212e-16 0)
(2 -1.83733e-16 0)
(2 -8.59103e-17 0)
(2 5.33178e-17 0)
(2 1.15094e-16 0)
(2 1.06438e-16 0)
(2 1.18608e-16 0)
(2 1.89011e-16 0)
(2 1.69996e-16 0)
(2 2.52571e-16 0)
(2 4.1922e-16 0)
(2 4.81078e-16 0)
(2 -1.59732e-16 0)
(2 -4.02008e-16 0)
(2 -6.99226e-16 0)
(2 -9.30996e-16 0)
(2 -8.4174e-16 0)
(2 -6.3238e-16 0)
(2 -4.12209e-16 0)
(2 1.01237e-16 0)
(2 1.18021e-15 0)
(2 1.65292e-15 0)
(2 1.83679e-15 0)
(2 1.96437e-15 0)
(2 2.07921e-15 0)
(2 1.58421e-15 0)
(2 1.465e-15 0)
(2 1.43358e-15 0)
(2 1.4572e-15 0)
(2 1.36765e-15 0)
(2 1.32662e-15 0)
(2 1.33346e-15 0)
(2 1.30915e-15 0)
(2 1.22526e-15 0)
(2 1.15625e-15 0)
(2 1.09964e-15 0)
(2 1.3404e-15 0)
(2 1.56354e-15 0)
(2 1.63609e-15 0)
(2 1.76208e-15 0)
(2 1.78872e-15 0)
(2 1.79776e-15 0)
(2 1.79919e-15 0)
(2 1.80937e-15 0)
(2 1.82479e-15 0)
(2 1.75746e-15 0)
(2 1.95863e-15 0)
(2 1.69071e-15 0)
(2 1.69078e-15 0)
(2 8.09619e-16 0)
(2 5.15454e-16 0)
(2 -6.15534e-17 0)
(2 -2.76655e-16 0)
(2 -1.80039e-16 0)
(2 4.50231e-16 0)
(2 8.59045e-16 0)
(2 1.15629e-15 0)
(2 1.09272e-15 0)
(2 1.09959e-15 0)
(2 1.1017e-15 0)
(2 1.05748e-15 0)
(2 1.02256e-15 0)
(2 7.85354e-16 0)
(2 7.33137e-16 0)
(2 6.11669e-16 0)
(2 3.24677e-16 0)
(2 -9.93549e-17 0)
(2 -2.56316e-16 0)
(2 -7.59893e-16 0)
(2 -1.08681e-15 0)
(2 -6.48077e-16 0)
(2 5.49763e-16 0)
(2 5.88042e-16 0)
(2 9.48492e-16 0)
(2 1.24001e-15 0)
(2 1.628e-15 0)
(2 1.68364e-15 0)
(2 1.77666e-15 0)
(2 1.40844e-15 0)
(2 1.56839e-15 0)
(2 2.1461e-15 0)
(2 2.57847e-15 0)
(2 2.89677e-15 0)
(2 2.933e-15 0)
(2 2.84563e-15 0)
(2 2.67363e-15 0)
(2 2.24055e-15 0)
(2 1.41539e-15 0)
(2 1.00359e-15 0)
(2 8.5397e-16 0)
(2 8.99648e-16 0)
(2 8.94771e-16 0)
(2 8.57528e-16 0)
(2 7.24081e-16 0)
(2 6.68471e-16 0)
(2 7.18249e-16 0)
(2 7.00859e-16 0)
(2 -3.07972e-16 0)
(2 1.20177e-17 0)
(2 2.07288e-16 0)
(2 3.21918e-16 0)
(2 3.9868e-16 0)
(2 3.74209e-16 0)
(2 2.95332e-16 0)
(2 -2.0449e-16 0)
(2 -7.84244e-16 0)
(2 -8.55769e-16 0)
(2 -8.17409e-16 0)
(2 -7.00055e-16 0)
(2 -6.97078e-16 0)
(2 -7.25215e-16 0)
(2 -6.93171e-16 0)
(2 -6.24395e-16 0)
(2 -4.9835e-16 0)
(2 -3.37258e-16 0)
(2 -5.8703e-16 0)
(2 -7.81704e-16 0)
(2 -9.60294e-16 0)
(2 -1.08905e-15 0)
(2 -7.97216e-16 0)
(2 -6.55063e-16 0)
(2 -5.1587e-16 0)
(2 -2.53797e-16 0)
(2 -1.74173e-16 0)
(2 1.98215e-16 0)
(2 1.27112e-16 0)
(2 1.05917e-16 0)
(2 4.61143e-16 0)
(2 6.89055e-16 0)
(2 7.62456e-16 0)
(2 8.23304e-16 0)
(2 7.11278e-16 0)
(2 6.35117e-16 0)
(2 6.54389e-16 0)
(2 6.27316e-16 0)
(2 5.73224e-16 0)
(2 4.63786e-16 0)
(2 4.98919e-16 0)
(2 7.7067e-16 0)
(2 7.95397e-16 0)
(2 8.58923e-16 0)
(2 1.02925e-15 0)
(2 1.25791e-15 0)
(2 1.13401e-15 0)
(2 9.75315e-16 0)
(2 7.1762e-16 0)
(2 8.43694e-16 0)
(2 1.01869e-15 0)
(2 1.38143e-15 0)
(2 1.46207e-15 0)
(2 1.56187e-15 0)
(2 1.59963e-15 0)
(2 1.70239e-15 0)
(2 1.80221e-15 0)
(2 1.92788e-15 0)
(2 2.07565e-15 0)
(2 2.12058e-15 0)
(2 1.87327e-15 0)
(2 1.69074e-15 0)
(2 1.69021e-15 0)
(2 1.76605e-15 0)
(2 1.51878e-15 0)
(2 1.43059e-15 0)
(2 1.04102e-15 0)
(2 7.07972e-16 0)
(2 5.63446e-16 0)
(2 6.11909e-16 0)
(2 8.45351e-16 0)
(2 1.12144e-15 0)
(2 8.97161e-16 0)
(2 1.02073e-15 0)
(2 1.44858e-15 0)
(2 2.05864e-15 0)
(2 2.09619e-15 0)
(2 2.11106e-15 0)
(2 2.05994e-15 0)
(2 2.05842e-15 0)
(2 2.19426e-15 0)
(2 2.68578e-15 0)
(2 2.92766e-15 0)
(2 2.35882e-15 0)
(2 1.86911e-15 0)
(2 1.76458e-15 0)
(2 1.87784e-15 0)
(2 1.88143e-15 0)
(2 1.84181e-15 0)
(2 1.50816e-15 0)
(2 1.20408e-15 0)
(2 1.11839e-15 0)
(2 1.18208e-15 0)
(2 1.4674e-15 0)
(2 1.79204e-15 0)
(2 2.11655e-15 0)
(2 2.24679e-15 0)
(2 2.17193e-15 0)
(2 2.06522e-15 0)
(2 2.01523e-15 0)
(2 2.07901e-15 0)
(2 2.32126e-15 0)
(2 2.5239e-15 0)
(2 2.6477e-15 0)
(2 2.76942e-15 0)
(2 2.8262e-15 0)
(2 2.94156e-15 0)
(2 3.04969e-15 0)
(2 3.15936e-15 0)
(2 3.1272e-15 0)
(2 2.97422e-15 0)
(2 2.8023e-15 0)
(2 2.49153e-15 0)
(2 2.17012e-15 0)
(2 2.13041e-15 0)
(2 1.90552e-15 0)
(2 1.71144e-15 0)
(2 1.50175e-15 0)
(2 1.03265e-15 0)
(2 1.09781e-15 0)
(2 3.12371e-16 0)
(2 2.94457e-16 0)
(2 2.34369e-16 0)
(2 3.69432e-16 0)
(2 5.29817e-16 0)
(2 6.52826e-16 0)
(2 7.39198e-16 0)
(2 7.27907e-16 0)
(2 8.36683e-16 0)
(2 9.74108e-16 0)
(2 7.78901e-16 0)
(2 5.18723e-16 0)
(2 3.84965e-16 0)
(2 1.2429e-16 0)
(2 1.45921e-16 0)
(2 -1.27175e-16 0)
(2 -4.99393e-16 0)
(2 -5.57065e-16 0)
(2 -5.70425e-16 0)
(2 -6.47116e-16 0)
(2 -6.51966e-16 0)
(2 -9.01992e-16 0)
(2 -1.02342e-15 0)
(2 -9.81087e-16 0)
(2 -1.01719e-15 0)
(2 -1.02515e-15 0)
(2 -1.04145e-15 0)
(2 -9.65654e-16 0)
(2 -7.2795e-16 0)
(2 -7.11463e-16 0)
(2 -6.04841e-16 0)
(2 -3.05273e-16 0)
(2 6.81352e-18 0)
(2 1.80711e-16 0)
(2 4.68024e-16 0)
(2 5.70373e-16 0)
(2 4.61038e-16 0)
(2 5.16537e-16 0)
(2 1.04454e-15 0)
(2 1.49615e-15 0)
(2 1.64857e-15 0)
(2 1.80525e-15 0)
(2 1.25612e-15 0)
(2 1.01779e-15 0)
(2 9.93242e-16 0)
(2 8.16909e-16 0)
(2 6.6779e-16 0)
(2 5.83889e-16 0)
(2 6.00783e-16 0)
(2 6.51144e-16 0)
(2 7.40281e-16 0)
(2 8.40767e-16 0)
(2 1.08251e-15 0)
(2 1.19634e-15 0)
(2 1.0185e-15 0)
(2 9.20213e-16 0)
(2 9.28069e-16 0)
(2 9.44647e-16 0)
(2 9.10581e-16 0)
(2 5.62946e-16 0)
(2 8.10401e-16 0)
(2 9.75553e-16 0)
(2 9.83727e-16 0)
(2 9.46388e-16 0)
(2 9.226e-16 0)
(2 8.57204e-16 0)
(2 8.71057e-16 0)
(2 8.56222e-16 0)
(2 8.69056e-16 0)
(2 1.05179e-15 0)
(2 1.14486e-15 0)
(2 1.51382e-15 0)
(2 2.34583e-15 0)
(2 2.74639e-15 0)
(2 2.98458e-15 0)
(2 2.92862e-15 0)
(2 2.81569e-15 0)
(2 2.74327e-15 0)
(2 2.5739e-15 0)
(2 2.49903e-15 0)
(2 2.51419e-15 0)
(2 2.52923e-15 0)
(2 2.44193e-15 0)
(2 1.89807e-15 0)
(2 1.30754e-15 0)
(2 1.26795e-15 0)
(2 1.35213e-15 0)
(2 1.52349e-15 0)
(2 1.72679e-15 0)
(2 1.84932e-15 0)
(2 1.83829e-15 0)
(2 1.87534e-15 0)
(2 2.0196e-15 0)
(2 2.22825e-15 0)
(2 2.47072e-15 0)
(2 2.41644e-15 0)
(2 2.14445e-15 0)
(2 2.20364e-15 0)
(2 2.21859e-15 0)
(2 2.24742e-15 0)
(2 2.26641e-15 0)
(2 2.47717e-15 0)
(2 2.58895e-15 0)
(2 2.54443e-15 0)
(2 2.04624e-15 0)
(2 1.88989e-15 0)
(2 1.81186e-15 0)
(2 1.8314e-15 0)
(2 1.97429e-15 0)
(2 2.31082e-15 0)
(2 2.56176e-15 0)
(2 2.46565e-15 0)
(2 2.32869e-15 0)
(2 2.149e-15 0)
(2 1.94844e-15 0)
(2 1.57822e-15 0)
(2 1.40094e-15 0)
(2 1.22311e-15 0)
(2 1.20102e-15 0)
(2 1.20118e-15 0)
(2 1.76642e-15 0)
(2 1.38647e-15 0)
(2 1.18441e-15 0)
(2 1.25845e-15 0)
(2 1.34476e-15 0)
(2 1.38507e-15 0)
(2 1.41408e-15 0)
(2 1.51937e-15 0)
(2 1.58325e-15 0)
(2 1.62385e-15 0)
(2 1.40654e-15 0)
(2 1.24171e-15 0)
(2 9.17036e-16 0)
(2 4.01791e-16 0)
(2 1.34333e-16 0)
(2 -2.0374e-16 0)
(2 -5.78984e-16 0)
(2 -7.25889e-16 0)
(2 -9.77661e-16 0)
(2 -8.75066e-16 0)
(2 -7.95234e-16 0)
(2 -6.90254e-16 0)
(2 -4.88713e-16 0)
(2 -3.3432e-16 0)
(2 -2.52065e-16 0)
(2 -2.94507e-16 0)
(2 -4.36922e-16 0)
(2 -6.00436e-16 0)
(2 -5.58916e-16 0)
(2 -3.07432e-16 0)
(2 -1.8481e-16 0)
(2 9.1007e-17 0)
(2 1.69286e-16 0)
(2 3.16234e-16 0)
(2 4.56465e-16 0)
(2 7.06424e-16 0)
(2 9.04359e-16 0)
(2 1.28536e-15 0)
(2 1.79631e-15 0)
(2 2.39119e-15 0)
(2 2.45096e-15 0)
(2 2.81474e-15 0)
(2 2.62051e-15 0)
(2 2.34849e-15 0)
(2 2.53127e-15 0)
(2 1.64855e-15 0)
(2 1.55314e-15 0)
(2 1.36371e-15 0)
(2 1.09497e-15 0)
(2 7.38881e-16 0)
(2 4.5552e-16 0)
(2 2.39281e-16 0)
(2 8.19883e-17 0)
(2 3.69476e-16 0)
(2 4.90864e-16 0)
(2 3.87665e-16 0)
(2 3.21772e-16 0)
(2 5.54222e-16 0)
(2 4.7006e-16 0)
(2 2.89332e-16 0)
(2 2.56753e-16 0)
(2 2.1252e-16 0)
(2 2.64765e-16 0)
(2 3.11373e-16 0)
(2 3.26477e-16 0)
(2 3.71272e-16 0)
(2 4.68038e-16 0)
(2 4.6004e-16 0)
(2 1.03856e-15 0)
(2 1.09363e-15 0)
(2 7.6849e-16 0)
(2 6.52781e-16 0)
(2 1.11943e-15 0)
(2 1.80389e-15 0)
(2 1.91618e-15 0)
(2 1.7192e-15 0)
(2 1.63396e-15 0)
(2 1.43498e-15 0)
(2 1.29161e-15 0)
(2 1.0944e-15 0)
(2 8.64211e-16 0)
(2 6.18586e-16 0)
(2 4.27298e-16 0)
(2 6.06009e-16 0)
(2 6.63478e-16 0)
(2 9.19929e-16 0)
(2 1.04673e-15 0)
(2 1.23986e-15 0)
(2 1.45056e-15 0)
(2 1.6293e-15 0)
(2 1.6825e-15 0)
(2 1.4362e-15 0)
(2 1.34242e-15 0)
(2 1.25803e-15 0)
(2 1.48713e-15 0)
(2 1.75257e-15 0)
(2 2.01571e-15 0)
(2 2.26926e-15 0)
(2 2.39759e-15 0)
(2 2.56048e-15 0)
(2 2.63264e-15 0)
(2 2.47778e-15 0)
(2 2.18129e-15 0)
(2 2.06092e-15 0)
(2 1.8451e-15 0)
(2 1.63086e-15 0)
(2 1.61908e-15 0)
(2 1.6981e-15 0)
(2 1.7992e-15 0)
(2 2.00289e-15 0)
(2 2.62049e-15 0)
(2 3.12231e-15 0)
(2 3.27745e-15 0)
(2 3.41998e-15 0)
(2 3.38704e-15 0)
(2 3.18954e-15 0)
(2 2.83022e-15 0)
(2 2.62312e-15 0)
(2 2.29991e-15 0)
(2 1.96723e-15 0)
(2 1.02793e-15 0)
(2 1.14434e-15 0)
(2 1.25459e-15 0)
(2 1.33675e-15 0)
(2 1.30219e-15 0)
(2 1.16762e-15 0)
(2 1.14943e-15 0)
(2 1.09275e-15 0)
(2 1.01579e-15 0)
(2 8.69456e-16 0)
(2 5.65296e-16 0)
(2 1.53369e-16 0)
(2 -4.22843e-16 0)
(2 -6.70294e-16 0)
(2 -7.08555e-16 0)
(2 -5.05117e-16 0)
(2 -5.01727e-16 0)
(2 -2.04119e-16 0)
(2 -2.56639e-17 0)
(2 1.58198e-18 0)
(2 -1.05827e-16 0)
(2 6.75151e-16 0)
(2 9.55289e-16 0)
(2 1.07932e-15 0)
(2 1.20958e-15 0)
(2 1.14948e-15 0)
(2 1.11727e-15 0)
(2 9.8773e-16 0)
(2 1.04098e-15 0)
(2 1.13848e-15 0)
(2 1.19588e-15 0)
(2 1.29034e-15 0)
(2 1.31987e-15 0)
(2 1.43297e-15 0)
(2 1.45341e-15 0)
(2 1.51302e-15 0)
(2 1.47878e-15 0)
(2 2.69071e-15 0)
(2 3.74631e-15 0)
(2 3.9038e-15 0)
(2 3.94868e-15 0)
(2 4.01152e-15 0)
(2 3.90745e-15 0)
(2 3.61002e-15 0)
(2 3.33982e-15 0)
(2 3.14034e-15 0)
(2 3.01031e-15 0)
(2 2.82284e-15 0)
(2 2.47235e-15 0)
(2 2.32542e-15 0)
(2 2.16262e-15 0)
(2 2e-15 0)
(2 1.55668e-15 0)
(2 1.26172e-15 0)
(2 1.26425e-15 0)
(2 1.2183e-15 0)
(2 1.22775e-15 0)
(2 1.09779e-15 0)
(2 9.84482e-16 0)
(2 9.38309e-16 0)
(2 8.2584e-16 0)
(2 7.76629e-16 0)
(2 9.6029e-16 0)
(2 8.64078e-16 0)
(2 8.09822e-16 0)
(2 7.44812e-16 0)
(2 6.94228e-16 0)
(2 8.05912e-16 0)
(2 7.47241e-16 0)
(2 6.88893e-16 0)
(2 7.07943e-16 0)
(2 9.20027e-16 0)
(2 9.49553e-16 0)
(2 9.56964e-16 0)
(2 1.13882e-15 0)
(2 1.26586e-15 0)
(2 1.34198e-15 0)
(2 1.37599e-15 0)
(2 1.54422e-15 0)
(2 1.36422e-15 0)
(2 1.02839e-15 0)
(2 1.20251e-15 0)
(2 1.30751e-15 0)
(2 1.22139e-15 0)
(2 1.14065e-15 0)
(2 9.6752e-16 0)
(2 9.46332e-16 0)
(2 9.34725e-16 0)
(2 8.76485e-16 0)
(2 8.19673e-16 0)
(2 1.08104e-15 0)
(2 1.1961e-15 0)
(2 1.12097e-15 0)
(2 1.41735e-15 0)
(2 2.17394e-15 0)
(2 2.23448e-15 0)
(2 2.88993e-15 0)
(2 3.05491e-15 0)
(2 2.91543e-15 0)
(2 2.92238e-15 0)
(2 2.72686e-15 0)
(2 2.09741e-15 0)
(2 1.90536e-15 0)
(2 1.80399e-15 0)
(2 1.93777e-15 0)
(2 2.18357e-15 0)
(2 2.02248e-15 0)
(2 1.84765e-15 0)
(2 1.63031e-15 0)
(2 1.75302e-15 0)
(2 2.08653e-15 0)
(2 2.79376e-15 0)
(2 3.64604e-15 0)
(2 3.64938e-15 0)
(2 3.71129e-15 0)
(2 3.90052e-15 0)
(2 3.9532e-15 0)
(2 3.54633e-15 0)
(2 3.2061e-15 0)
(2 3.03372e-15 0)
(2 -5.02233e-17 0)
(2 5.58072e-17 0)
(2 2.57014e-16 0)
(2 4.98286e-16 0)
(2 5.48039e-16 0)
(2 4.79172e-16 0)
(2 9.32801e-16 0)
(2 1.01458e-15 0)
(2 8.96698e-16 0)
(2 8.40199e-16 0)
(2 6.1394e-16 0)
(2 3.70054e-17 0)
(2 -7.91859e-17 0)
(2 -2.71362e-16 0)
(2 -4.69305e-16 0)
(2 -5.7386e-16 0)
(2 -5.28373e-16 0)
(2 -4.04482e-16 0)
(2 -3.90028e-16 0)
(2 -4.45124e-16 0)
(2 5.69269e-16 0)
(2 8.29255e-16 0)
(2 8.83792e-16 0)
(2 1.15788e-15 0)
(2 1.21727e-15 0)
(2 1.25671e-15 0)
(2 1.3294e-15 0)
(2 1.42256e-15 0)
(2 1.53279e-15 0)
(2 1.56164e-15 0)
(2 1.5825e-15 0)
(2 1.58665e-15 0)
(2 1.44077e-15 0)
(2 1.60645e-15 0)
(2 1.79372e-15 0)
(2 1.99807e-15 0)
(2 2.16848e-15 0)
(2 2.80002e-15 0)
(2 3.06776e-15 0)
(2 3.21991e-15 0)
(2 3.21523e-15 0)
(2 3.06421e-15 0)
(2 3.95123e-15 0)
(2 4.33057e-15 0)
(2 4.34249e-15 0)
(2 3.68727e-15 0)
(2 2.934e-15 0)
(2 2.87103e-15 0)
(2 2.83908e-15 0)
(2 2.77996e-15 0)
(2 2.35201e-15 0)
(2 1.90875e-15 0)
(2 1.87504e-15 0)
(2 1.78506e-15 0)
(2 1.70637e-15 0)
(2 1.73424e-15 0)
(2 1.60983e-15 0)
(2 1.58133e-15 0)
(2 1.58881e-15 0)
(2 1.65866e-15 0)
(2 1.9422e-15 0)
(2 2.01482e-15 0)
(2 2.0052e-15 0)
(2 2.01608e-15 0)
(2 1.96546e-15 0)
(2 1.98257e-15 0)
(2 1.86941e-15 0)
(2 1.9019e-15 0)
(2 1.88608e-15 0)
(2 1.78577e-15 0)
(2 1.48779e-15 0)
(2 1.20929e-15 0)
(2 7.98182e-16 0)
(2 5.60778e-16 0)
(2 2.13877e-16 0)
(2 9.46731e-16 0)
(2 1.85303e-15 0)
(2 2.00519e-15 0)
(2 2.72964e-15 0)
(2 2.86488e-15 0)
(2 1.97394e-15 0)
(2 7.41407e-16 0)
(2 2.88233e-16 0)
(2 3.6703e-16 0)
(2 2.86183e-16 0)
(2 6.54318e-17 0)
(2 -9.86377e-17 0)
(2 3.988e-16 0)
(2 6.14157e-16 0)
(2 6.03921e-16 0)
(2 6.14528e-16 0)
(2 8.97604e-16 0)
(2 1.06061e-15 0)
(2 1.43364e-15 0)
(2 1.58999e-15 0)
(2 1.92937e-15 0)
(2 2.04024e-15 0)
(2 1.67827e-15 0)
(2 1.56824e-15 0)
(2 1.58664e-15 0)
(2 1.79209e-15 0)
(2 1.82747e-15 0)
(2 1.72358e-15 0)
(2 1.26689e-15 0)
(2 1.07078e-15 0)
(2 1.16051e-15 0)
(2 1.22888e-15 0)
(2 1.30777e-15 0)
(2 2.03319e-15 0)
(2 2.28756e-15 0)
(2 2.23941e-15 0)
(2 2.14528e-15 0)
(2 1.66658e-15 0)
(2 1.23328e-15 0)
(2 1.15889e-15 0)
(2 1.14933e-15 0)
(2 1.15837e-15 0)
(2 1.11699e-15 0)
(2 1.16707e-15 0)
(2 1.46214e-15 0)
(2 -1.37813e-16 0)
(2 -3.28753e-16 0)
(2 -6.15319e-16 0)
(2 -8.86032e-16 0)
(2 -8.77238e-16 0)
(2 -5.10534e-16 0)
(2 -3.08117e-16 0)
(2 -9.76626e-17 0)
(2 1.44229e-16 0)
(2 3.87131e-16 0)
(2 3.91855e-16 0)
(2 5.12282e-16 0)
(2 6.10009e-16 0)
(2 6.84582e-16 0)
(2 6.21734e-16 0)
(2 5.94756e-16 0)
(2 6.80542e-16 0)
(2 6.92077e-16 0)
(2 6.00123e-16 0)
(2 4.38829e-16 0)
(2 3.27016e-16 0)
(2 2.9003e-16 0)
(2 3.01002e-16 0)
(2 3.67476e-16 0)
(2 4.30461e-16 0)
(2 6.46008e-16 0)
(2 1.08098e-15 0)
(2 1.27323e-15 0)
(2 1.33414e-15 0)
(2 1.36601e-15 0)
(2 1.29913e-15 0)
(2 1.28198e-15 0)
(2 1.38627e-15 0)
(2 1.3699e-15 0)
(2 1.79622e-15 0)
(2 2.06869e-15 0)
(2 2.39377e-15 0)
(2 2.50188e-15 0)
(2 2.53114e-15 0)
(2 2.46447e-15 0)
(2 2.39696e-15 0)
(2 2.38288e-15 0)
(2 2.38968e-15 0)
(2 2.44156e-15 0)
(2 2.44507e-15 0)
(2 2.57787e-15 0)
(2 2.14475e-15 0)
(2 1.96635e-15 0)
(2 2.07629e-15 0)
(2 1.91652e-15 0)
(2 1.75575e-15 0)
(2 1.319e-15 0)
(2 1.26099e-15 0)
(2 1.30776e-15 0)
(2 1.34638e-15 0)
(2 1.46222e-15 0)
(2 1.78015e-15 0)
(2 1.88045e-15 0)
(2 1.97082e-15 0)
(2 2.00739e-15 0)
(2 2.0288e-15 0)
(2 2.03397e-15 0)
(2 2.03103e-15 0)
(2 2.03843e-15 0)
(2 2.32369e-15 0)
(2 2.56246e-15 0)
(2 2.80619e-15 0)
(2 2.7231e-15 0)
(2 2.57546e-15 0)
(2 2.07088e-15 0)
(2 1.54637e-15 0)
(2 1.43399e-15 0)
(2 1.15246e-15 0)
(2 8.91811e-16 0)
(2 7.78904e-16 0)
(2 4.6623e-16 0)
(2 4.13615e-17 0)
(2 -2.17876e-16 0)
(2 -4.49787e-16 0)
(2 -4.12282e-16 0)
(2 -4.15745e-16 0)
(2 -3.48798e-16 0)
(2 -2.71596e-16 0)
(2 -2.09554e-16 0)
(2 -4.2162e-17 0)
(2 9.9373e-17 0)
(2 3.26574e-16 0)
(2 5.43087e-16 0)
(2 5.35968e-16 0)
(2 7.80268e-16 0)
(2 7.66618e-16 0)
(2 6.49625e-16 0)
(2 7.35592e-16 0)
(2 1.12127e-15 0)
(2 1.1926e-15 0)
(2 1.18052e-15 0)
(2 1.06139e-15 0)
(2 1.10305e-15 0)
(2 1.03964e-15 0)
(2 9.87304e-16 0)
(2 7.62559e-16 0)
(2 5.70525e-16 0)
(2 4.40046e-16 0)
(2 2.37137e-16 0)
(2 1.40915e-16 0)
(2 1.64984e-16 0)
(2 7.89496e-17 0)
(2 1.71855e-16 0)
(2 1.74375e-16 0)
(2 4.3642e-16 0)
(2 5.77979e-16 0)
(2 1.19935e-15 0)
(2 6.4918e-16 0)
(2 -5.35405e-17 0)
(2 -2.86951e-17 0)
(2 1.49243e-16 0)
(2 3.12689e-16 0)
(2 5.99746e-16 0)
(2 1.07563e-15 0)
(2 1.49486e-15 0)
(2 -6.66694e-16 0)
(2 -5.90151e-16 0)
(2 -6.28588e-16 0)
(2 -6.75538e-16 0)
(2 -8.96239e-16 0)
(2 -9.88315e-16 0)
(2 -1.03523e-15 0)
(2 -1.0344e-15 0)
(2 -1.12598e-15 0)
(2 -1.11358e-15 0)
(2 -9.3763e-16 0)
(2 -8.23937e-16 0)
(2 -2.40896e-16 0)
(2 -3.54482e-17 0)
(2 2.98662e-16 0)
(2 2.88228e-16 0)
(2 1.23467e-16 0)
(2 1.40583e-17 0)
(2 9.42956e-17 0)
(2 5.1803e-16 0)
(2 6.53009e-16 0)
(2 7.53682e-16 0)
(2 7.68137e-16 0)
(2 7.59143e-16 0)
(2 8.14964e-16 0)
(2 9.88407e-16 0)
(2 1.06439e-15 0)
(2 1.08552e-15 0)
(2 1.09514e-15 0)
(2 1.12348e-15 0)
(2 9.92541e-16 0)
(2 8.33112e-16 0)
(2 7.27192e-16 0)
(2 5.35915e-16 0)
(2 2.65492e-16 0)
(2 2.66036e-16 0)
(2 4.66866e-16 0)
(2 4.72205e-16 0)
(2 1.85101e-16 0)
(2 -6.04238e-17 0)
(2 -6.82666e-16 0)
(2 -1.58345e-15 0)
(2 -1.71947e-15 0)
(2 -1.65777e-15 0)
(2 -1.46789e-15 0)
(2 -6.84486e-16 0)
(2 -1.17258e-16 0)
(2 7.42529e-17 0)
(2 -3.52713e-16 0)
(2 -5.59748e-16 0)
(2 -6.92782e-16 0)
(2 -9.85195e-16 0)
(2 -9.2314e-16 0)
(2 -7.64305e-16 0)
(2 -2.57661e-16 0)
(2 -2.89981e-17 0)
(2 2.20356e-16 0)
(2 4.61816e-16 0)
(2 6.08653e-16 0)
(2 7.28171e-16 0)
(2 7.53493e-16 0)
(2 7.14973e-16 0)
(2 6.00252e-16 0)
(2 5.44023e-16 0)
(2 3.0269e-16 0)
(2 -4.91321e-17 0)
(2 -3.02648e-16 0)
(2 1.84996e-16 0)
(2 6.56804e-16 0)
(2 8.23933e-16 0)
(2 1.12044e-15 0)
(2 1.08136e-15 0)
(2 4.9289e-16 0)
(2 2.37225e-16 0)
(2 3.75904e-16 0)
(2 5.54333e-16 0)
(2 4.12421e-16 0)
(2 2.05148e-16 0)
(2 -5.97734e-16 0)
(2 -8.00135e-16 0)
(2 -7.69852e-16 0)
(2 -6.34434e-16 0)
(2 -6.11208e-16 0)
(2 -8.29306e-16 0)
(2 -7.20497e-16 0)
(2 -6.1298e-16 0)
(2 -4.56176e-16 0)
(2 -6.0395e-16 0)
(2 -6.93367e-16 0)
(2 -9.5059e-16 0)
(2 -1.04858e-15 0)
(2 -6.9387e-16 0)
(2 -2.82931e-16 0)
(2 -5.53351e-17 0)
(2 2.11814e-17 0)
(2 -3.62196e-18 0)
(2 -5.90626e-17 0)
(2 -4.76162e-17 0)
(2 2.20528e-16 0)
(2 1.90351e-16 0)
(2 -8.54334e-17 0)
(2 -1.93343e-16 0)
(2 -2.60569e-16 0)
(2 -5.07406e-16 0)
(2 -5.3302e-16 0)
(2 -9.64455e-16 0)
(2 -1.11838e-15 0)
(2 -1.39306e-15 0)
(2 -1.51426e-15 0)
(2 -1.60253e-15 0)
(2 -1.97079e-15 0)
(2 -1.82534e-15 0)
(2 -4.93196e-16 0)
(2 -2.55635e-16 0)
(2 -4.92449e-17 0)
(2 -1.04872e-17 0)
(2 -6.3887e-17 0)
(2 -1.19713e-16 0)
(2 -4.78091e-16 0)
(2 -6.84286e-16 0)
(2 -1.04483e-15 0)
(2 -8.02752e-16 0)
(2 -5.79897e-16 0)
(2 -4.97331e-16 0)
(2 -2.35487e-16 0)
(2 -3.33642e-17 0)
(2 -2.14784e-17 0)
(2 -1.76871e-16 0)
(2 -3.42524e-16 0)
(2 -5.48745e-16 0)
(2 -3.2131e-16 0)
(2 -3.05351e-16 0)
(2 -3.15097e-16 0)
(2 -4.70791e-16 0)
(2 -3.71741e-16 0)
(2 8.36014e-18 0)
(2 1.32615e-16 0)
(2 2.19222e-16 0)
(2 1.57602e-16 0)
(2 1.47868e-16 0)
(2 1.88395e-16 0)
(2 2.00217e-16 0)
(2 3.57412e-16 0)
(2 5.09693e-16 0)
(2 6.05774e-16 0)
(2 5.87651e-16 0)
(2 5.57285e-16 0)
(2 4.18685e-16 0)
(2 8.76385e-17 0)
(2 -4.35331e-16 0)
(2 -6.22281e-16 0)
(2 -8.48565e-16 0)
(2 -8.2376e-16 0)
(2 -1.29271e-15 0)
(2 -1.22329e-15 0)
(2 -1.65011e-15 0)
(2 -2.20935e-15 0)
(2 -2.7647e-15 0)
(2 -3.0523e-15 0)
(2 -2.98708e-15 0)
(2 -2.77681e-15 0)
(2 -2.9049e-15 0)
(2 -2.89606e-15 0)
(2 -2.83508e-15 0)
(2 -2.37254e-15 0)
(2 -2.34625e-15 0)
(2 -2.2683e-15 0)
(2 -1.97546e-15 0)
(2 -1.54961e-15 0)
(2 -1.13925e-15 0)
(2 -7.7902e-16 0)
(2 -8.66671e-16 0)
(2 -9.68862e-16 0)
(2 -9.02602e-16 0)
(2 -8.71718e-16 0)
(2 -8.40127e-16 0)
(2 -7.36448e-16 0)
(2 -5.20261e-16 0)
(2 -5.15472e-16 0)
(2 -5.86535e-16 0)
(2 -6.63778e-16 0)
(2 -7.16417e-16 0)
(2 -6.67336e-16 0)
(2 -5.84112e-16 0)
(2 -4.67168e-16 0)
(2 -3.87428e-16 0)
(2 -5.16235e-16 0)
(2 -6.23855e-16 0)
(2 -4.55023e-16 0)
(2 2.8624e-16 0)
(2 9.67344e-16 0)
(2 1.18282e-15 0)
(2 1.31067e-15 0)
(2 1.36084e-15 0)
(2 1.31125e-15 0)
(2 1.47704e-15 0)
(2 1.46212e-15 0)
(2 9.56073e-16 0)
(2 6.6184e-16 0)
(2 5.60161e-16 0)
(2 1.36842e-16 0)
(2 -3.1247e-16 0)
(2 -4.17009e-16 0)
(2 -5.88988e-16 0)
(2 -7.43329e-16 0)
(2 -7.93856e-16 0)
(2 -7.65781e-16 0)
(2 -7.33609e-16 0)
(2 -7.84886e-16 0)
(2 -1.13699e-15 0)
(2 -1.22487e-15 0)
(2 -7.43981e-16 0)
(2 -7.05615e-16 0)
(2 -8.24345e-16 0)
(2 -1.16308e-15 0)
(2 -1.18437e-15 0)
(2 -1.17478e-15 0)
(2 -1.07193e-15 0)
(2 -9.2925e-16 0)
(2 -9.22063e-16 0)
(2 -9.3298e-16 0)
(2 -8.84702e-16 0)
(2 -8.95315e-16 0)
(2 -9.99931e-16 0)
(2 -1.08902e-15 0)
(2 -1.17119e-15 0)
(2 -1.11329e-15 0)
(2 -1.42557e-15 0)
(2 -1.68898e-15 0)
(2 -2.42423e-15 0)
(2 -2.81854e-15 0)
(2 -2.60984e-15 0)
(2 -2.48935e-15 0)
(2 -2.41201e-15 0)
(2 -2.46022e-15 0)
(2 -2.66314e-15 0)
(2 -2.81748e-15 0)
(2 -2.96233e-15 0)
(2 -3.08591e-15 0)
(2 -3.23175e-15 0)
(2 -8.74809e-16 0)
(2 -7.44837e-16 0)
(2 -5.48824e-16 0)
(2 -9.42178e-17 0)
(2 -1.06607e-16 0)
(2 -2.73345e-16 0)
(2 -1.95408e-16 0)
(2 3.5302e-16 0)
(2 1.04715e-15 0)
(2 1.41808e-15 0)
(2 1.30669e-15 0)
(2 8.69899e-16 0)
(2 8.03138e-16 0)
(2 7.76609e-16 0)
(2 7.04341e-16 0)
(2 8.61279e-16 0)
(2 1.07985e-15 0)
(2 1.35859e-15 0)
(2 1.18092e-15 0)
(2 9.07275e-16 0)
(2 7.59405e-16 0)
(2 5.74423e-16 0)
(2 4.87024e-16 0)
(2 4.4918e-16 0)
(2 5.04931e-16 0)
(2 3.84079e-16 0)
(2 2.68569e-16 0)
(2 -1.45709e-17 0)
(2 -1.58006e-16 0)
(2 -3.76395e-16 0)
(2 -4.85606e-16 0)
(2 -4.23581e-16 0)
(2 -4.36911e-16 0)
(2 -4.5145e-16 0)
(2 -4.33007e-16 0)
(2 -1.0863e-15 0)
(2 -1.26173e-15 0)
(2 -1.23484e-15 0)
(2 -1.32228e-15 0)
(2 -1.23869e-15 0)
(2 -1.10675e-15 0)
(2 -1.08942e-15 0)
(2 -1.35623e-15 0)
(2 -1.46665e-15 0)
(2 -1.56883e-15 0)
(2 -1.61016e-15 0)
(2 -1.29476e-15 0)
(2 -1.04602e-15 0)
(2 -7.70581e-16 0)
(2 -5.23898e-16 0)
(2 -2.7681e-16 0)
(2 -3.9164e-17 0)
(2 -1.78118e-19 0)
(2 6.25279e-17 0)
(2 1.56387e-16 0)
(2 2.20845e-16 0)
(2 2.20352e-16 0)
(2 -2.54059e-18 0)
(2 -1.14935e-16 0)
(2 -1.6931e-16 0)
(2 -3.62495e-16 0)
(2 -3.49682e-16 0)
(2 -1.31483e-16 0)
(2 -1.10766e-16 0)
(2 5.17318e-16 0)
(2 7.12929e-16 0)
(2 7.87397e-16 0)
(2 6.72493e-16 0)
(2 5.74357e-16 0)
(2 5.89822e-16 0)
(2 5.80781e-16 0)
(2 5.58363e-16 0)
(2 6.00094e-16 0)
(2 6.19286e-16 0)
(2 4.97153e-16 0)
(2 3.52103e-16 0)
(2 2.17043e-16 0)
(2 3.03123e-16 0)
(2 7.18449e-16 0)
(2 7.25465e-16 0)
(2 5.35952e-16 0)
(2 3.96171e-16 0)
(2 8.94089e-17 0)
(2 -2.05571e-16 0)
(2 -7.0605e-16 0)
(2 -9.36425e-16 0)
(2 -9.65802e-16 0)
(2 -9.32112e-16 0)
(2 -7.05788e-16 0)
(2 -4.36481e-16 0)
(2 -4.62866e-16 0)
(2 -1.11426e-15 0)
(2 -1.23285e-15 0)
(2 -1.25676e-15 0)
(2 -1.23186e-15 0)
(2 -1.18569e-15 0)
(2 -1.14249e-15 0)
(2 -1.10481e-15 0)
(2 -7.19372e-16 0)
(2 -7.74749e-16 0)
(2 -1.23187e-15 0)
(2 -1.26639e-15 0)
(2 -1.0454e-15 0)
(2 -2.26764e-16 0)
(2 1.38098e-16 0)
(2 3.13755e-16 0)
(2 -2.15219e-17 0)
(2 -8.20482e-16 0)
(2 -1.45609e-15 0)
(2 -2.22508e-15 0)
(2 -2.47257e-15 0)
(2 -2.48529e-15 0)
(2 -2.66817e-15 0)
(2 -2.76401e-15 0)
(2 -2.87363e-15 0)
(2 -3.29858e-15 0)
(2 -3.49497e-15 0)
(2 -3.84787e-15 0)
(2 -4.24402e-15 0)
(2 -4.39005e-15 0)
(2 -3.48192e-16 0)
(2 -1.69652e-16 0)
(2 3.83055e-16 0)
(2 4.55233e-16 0)
(2 4.36653e-16 0)
(2 2.57727e-16 0)
(2 7.41758e-16 0)
(2 1.15346e-15 0)
(2 1.33203e-15 0)
(2 1.5791e-15 0)
(2 1.64493e-15 0)
(2 1.63236e-15 0)
(2 1.36976e-15 0)
(2 1.24656e-15 0)
(2 1.2389e-15 0)
(2 7.76804e-16 0)
(2 4.6442e-16 0)
(2 5.54893e-16 0)
(2 6.26941e-16 0)
(2 5.0861e-16 0)
(2 3.62565e-16 0)
(2 2.19395e-16 0)
(2 1.60224e-17 0)
(2 -1.40604e-16 0)
(2 -1.14676e-16 0)
(2 -4.91045e-17 0)
(2 -2.91206e-17 0)
(2 -3.63967e-16 0)
(2 -6.69244e-16 0)
(2 -6.47678e-16 0)
(2 -8.52077e-16 0)
(2 -1.04926e-15 0)
(2 -1.15995e-15 0)
(2 -1.05183e-15 0)
(2 -8.52579e-16 0)
(2 -8.95555e-16 0)
(2 -8.53952e-16 0)
(2 -1.0471e-15 0)
(2 -1.10622e-15 0)
(2 -1.53764e-15 0)
(2 -1.86103e-15 0)
(2 -1.93879e-15 0)
(2 -2.07416e-15 0)
(2 -2.24052e-15 0)
(2 -2.44916e-15 0)
(2 -2.54006e-15 0)
(2 -2.63565e-15 0)
(2 -2.60511e-15 0)
(2 -2.3738e-15 0)
(2 -2.24603e-15 0)
(2 -1.83177e-15 0)
(2 -1.09688e-15 0)
(2 -8.38785e-16 0)
(2 -7.90798e-16 0)
(2 -8.48805e-16 0)
(2 -7.5425e-16 0)
(2 -7.1318e-16 0)
(2 -6.55364e-16 0)
(2 -4.41006e-16 0)
(2 -8.73425e-17 0)
(2 2.96952e-17 0)
(2 8.66078e-17 0)
(2 2.68017e-17 0)
(2 -1.12323e-17 0)
(2 -6.20508e-17 0)
(2 -1.03859e-16 0)
(2 -1.66769e-16 0)
(2 -2.374e-16 0)
(2 -4.69349e-16 0)
(2 -4.75463e-16 0)
(2 -2.80118e-16 0)
(2 -2.22346e-16 0)
(2 -1.88729e-16 0)
(2 -2.35301e-16 0)
(2 -4.44183e-16 0)
(2 -1.10535e-16 0)
(2 5.95414e-16 0)
(2 7.57189e-16 0)
(2 8.82576e-16 0)
(2 8.99158e-16 0)
(2 4.82788e-16 0)
(2 2.96482e-16 0)
(2 3.32319e-16 0)
(2 3.88127e-16 0)
(2 4.20028e-16 0)
(2 3.9702e-16 0)
(2 2.60766e-16 0)
(2 -8.57803e-17 0)
(2 -3.69768e-16 0)
(2 -5.0437e-16 0)
(2 -6.21076e-16 0)
(2 -7.62741e-16 0)
(2 -9.22466e-16 0)
(2 -8.66862e-16 0)
(2 -7.33228e-16 0)
(2 -8.26579e-16 0)
(2 -7.06997e-16 0)
(2 -6.59093e-16 0)
(2 -8.57615e-16 0)
(2 -3.9787e-16 0)
(2 -5.13565e-17 0)
(2 -5.00884e-17 0)
(2 2.26231e-17 0)
(2 4.59433e-17 0)
(2 6.61836e-17 0)
(2 -5.79197e-18 0)
(2 -6.2342e-16 0)
(2 -8.17494e-16 0)
(2 -1.4869e-15 0)
(2 -1.80518e-15 0)
(2 -1.94857e-15 0)
(2 -1.85651e-15 0)
(2 -1.75146e-15 0)
(2 -1.85076e-15 0)
(2 -2.26215e-15 0)
(2 -2.26146e-15 0)
(2 -2.19001e-15 0)
(2 -1.94311e-15 0)
(2 -1.91295e-15 0)
(2 -1.91932e-15 0)
(2 9.29842e-16 0)
(2 8.78884e-16 0)
(2 6.23759e-16 0)
(2 2.55292e-16 0)
(2 4.6799e-16 0)
(2 1.3741e-15 0)
(2 1.70825e-15 0)
(2 1.64819e-15 0)
(2 1.58439e-15 0)
(2 1.44418e-15 0)
(2 1.30527e-15 0)
(2 1.19738e-15 0)
(2 1.2545e-15 0)
(2 1.41001e-15 0)
(2 1.65751e-15 0)
(2 1.71655e-15 0)
(2 1.70662e-15 0)
(2 1.72509e-15 0)
(2 1.73108e-15 0)
(2 1.60011e-15 0)
(2 1.37652e-15 0)
(2 5.72498e-16 0)
(2 1.89583e-16 0)
(2 4.31802e-17 0)
(2 -2.1921e-16 0)
(2 -3.22108e-16 0)
(2 -4.52102e-16 0)
(2 -3.43476e-16 0)
(2 -2.10495e-16 0)
(2 -5.39685e-17 0)
(2 1.73396e-16 0)
(2 1.36e-16 0)
(2 9.95219e-17 0)
(2 -1.05739e-16 0)
(2 -2.76057e-16 0)
(2 -3.42574e-16 0)
(2 -5.44305e-16 0)
(2 -6.67904e-16 0)
(2 -7.86728e-16 0)
(2 -9.03212e-16 0)
(2 -9.78991e-16 0)
(2 -8.87037e-16 0)
(2 -6.75388e-16 0)
(2 -1.01371e-15 0)
(2 -1.2517e-15 0)
(2 -1.55454e-15 0)
(2 -1.75969e-15 0)
(2 -1.85164e-15 0)
(2 -2.0019e-15 0)
(2 -1.85848e-15 0)
(2 -1.37697e-15 0)
(2 -1.1649e-15 0)
(2 -9.43451e-16 0)
(2 -9.86248e-16 0)
(2 -1.02383e-15 0)
(2 -6.47598e-16 0)
(2 -5.31983e-16 0)
(2 -3.76369e-16 0)
(2 -3.30974e-16 0)
(2 -2.1111e-16 0)
(2 -5.56776e-17 0)
(2 -5.62961e-17 0)
(2 -2.33903e-16 0)
(2 -4.07351e-16 0)
(2 -1.55448e-16 0)
(2 1.25938e-16 0)
(2 3.9417e-16 0)
(2 7.17292e-16 0)
(2 8.02795e-16 0)
(2 8.90499e-16 0)
(2 8.76214e-16 0)
(2 9.3577e-16 0)
(2 6.98762e-16 0)
(2 3.12828e-16 0)
(2 1.77207e-16 0)
(2 -1.12906e-16 0)
(2 -3.08912e-16 0)
(2 -2.04666e-16 0)
(2 -4.70833e-16 0)
(2 1.79316e-16 0)
(2 1.95684e-15 0)
(2 2.54956e-15 0)
(2 2.57024e-15 0)
(2 2.5915e-15 0)
(2 2.43055e-15 0)
(2 2.04467e-15 0)
(2 1.57484e-15 0)
(2 1.41962e-15 0)
(2 1.24043e-15 0)
(2 1.10566e-15 0)
(2 1.01354e-15 0)
(2 1.19192e-15 0)
(2 1.10395e-15 0)
(2 4.85972e-16 0)
(2 -2.24677e-16 0)
(2 -6.70443e-16 0)
(2 -1.04568e-15 0)
(2 -1.14113e-15 0)
(2 -1.51507e-15 0)
(2 -7.46532e-16 0)
(2 -8.09672e-16 0)
(2 -8.29002e-16 0)
(2 -1.13003e-15 0)
(2 -1.30032e-15 0)
(2 -1.47899e-15 0)
(2 -1.42615e-15 0)
(2 -1.19619e-15 0)
(2 -1.04005e-15 0)
(2 -1.21805e-15 0)
(2 -1.1558e-15 0)
(2 -9.54531e-16 0)
(2 -1.04468e-15 0)
(2 -1.30431e-15 0)
(2 -1.09931e-15 0)
(2 -6.47185e-16 0)
(2 -4.11015e-16 0)
(2 -3.3238e-16 0)
(2 -2.47e-16 0)
(2 2.15089e-16 0)
(2 9.08457e-16 0)
(2 1.16602e-15 0)
(2 7.79016e-16 0)
(2 2.9425e-16 0)
(2 -1.94296e-16 0)
(2 -3.89993e-16 0)
(2 -3.96056e-16 0)
(2 -3.60258e-16 0)
(2 -3.05075e-16 0)
(2 -2.71753e-16 0)
(2 -5.3792e-17 0)
(2 1.08372e-16 0)
(2 4.58206e-16 0)
(2 4.31333e-16 0)
(2 8.30732e-16 0)
(2 1.0112e-15 0)
(2 1.24055e-15 0)
(2 1.22917e-15 0)
(2 1.16191e-15 0)
(2 1.14077e-15 0)
(2 7.11393e-16 0)
(2 5.5298e-16 0)
(2 2.60444e-16 0)
(2 -2.70847e-16 0)
(2 -4.57047e-16 0)
(2 -6.32693e-16 0)
(2 -1.28501e-15 0)
(2 -1.54863e-15 0)
(2 -1.77486e-15 0)
(2 -1.65537e-15 0)
(2 -1.45097e-15 0)
(2 -1.24739e-15 0)
(2 -1.08708e-15 0)
(2 -1.01001e-15 0)
(2 -9.36645e-16 0)
(2 -9.62088e-16 0)
(2 -1.0867e-15 0)
(2 -1.08344e-15 0)
(2 -9.29018e-16 0)
(2 -7.35358e-16 0)
(2 -5.5654e-16 0)
(2 -3.95447e-16 0)
(2 -4.58862e-16 0)
(2 -5.42287e-16 0)
(2 -4.94577e-16 0)
(2 -3.69953e-16 0)
(2 -4.73473e-16 0)
(2 -1.84034e-16 0)
(2 1.3505e-16 0)
(2 -9.02309e-16 0)
(2 -2.05609e-15 0)
(2 -2.12245e-15 0)
(2 -2.4014e-15 0)
(2 -2.52966e-15 0)
(2 -2.14352e-15 0)
(2 -1.73373e-15 0)
(2 -1.34671e-15 0)
(2 -1.04534e-15 0)
(2 -9.96809e-16 0)
(2 -1.46912e-15 0)
(2 -1.62902e-15 0)
(2 -1.71373e-15 0)
(2 -1.70723e-15 0)
(2 -1.57946e-15 0)
(2 -1.31119e-15 0)
(2 -1.16092e-15 0)
(2 -9.31029e-16 0)
(2 -7.5944e-16 0)
(2 -3.76459e-16 0)
(2 2.26949e-17 0)
(2 1.01116e-16 0)
(2 -7.9629e-17 0)
(2 -7.28951e-16 0)
(2 -1.32611e-15 0)
(2 -1.33474e-15 0)
(2 -1.39071e-15 0)
(2 -2.05782e-15 0)
(2 -2.4842e-15 0)
(2 -2.57281e-15 0)
(2 -2.23571e-15 0)
(2 -2.19737e-15 0)
(2 -1.56942e-15 0)
(2 -7.71717e-16 0)
(2 -5.26127e-17 0)
(2 1.32689e-16 0)
(2 3.51937e-16 0)
(2 3.53617e-16 0)
(2 1.23442e-15 0)
(2 1.55031e-15 0)
(2 1.61649e-15 0)
(2 1.36886e-15 0)
(2 5.95852e-16 0)
(2 7.11095e-17 0)
(2 -1.51885e-17 0)
(2 -5.03766e-16 0)
(2 -1.16473e-15 0)
(2 -1.2619e-15 0)
(2 -1.59843e-15 0)
(2 -2.27256e-15 0)
(2 -3.61813e-15 0)
(2 -3.88339e-15 0)
(2 -3.47978e-15 0)
(2 -3.40481e-15 0)
(2 -4.00485e-15 0)
(2 -4.12384e-15 0)
(2 -3.84576e-15 0)
(2 -3.15649e-15 0)
(2 -2.59022e-15 0)
(2 -2.42571e-15 0)
(2 -2.56558e-15 0)
(2 -2.46366e-15 0)
(2 -2.32662e-15 0)
(2 -2.39369e-15 0)
(2 -2.09916e-15 0)
(2 -1.94117e-15 0)
(2 -1.45087e-15 0)
(2 -1.29546e-15 0)
(2 -1.2013e-15 0)
(2 -9.2423e-16 0)
(2 -3.93446e-16 0)
(2 -4.94666e-17 0)
(2 3.92076e-16 0)
(2 4.58012e-16 0)
(2 6.5813e-16 0)
(2 6.43269e-16 0)
(2 2.34472e-16 0)
(2 -9.9371e-17 0)
(2 -4.19649e-16 0)
(2 -5.03449e-16 0)
(2 -5.10264e-16 0)