/*--------------------------------*- C++ -*----------------------------------*\
  =========                 |
  \\      /  F ield         | OpenFOAM: The Open Source CFD Toolbox
   \\    /   O peration     | Website:  https://openfoam.org
    \\  /    A nd           | Version:  7
     \\/     M anipulation  |
\*---------------------------------------------------------------------------*/
FoamFile
{
    version     2.0;
    format      ascii;
    class       volScalarField;
    location    "0.041";
    object      p;
}
// * * * * * * * * * * * * * * * * * * * * * * * * * * * * * * * * * * * * * //

dimensions      [0 2 -2 0 0 0 0];

internalField   nonuniform List<scalar> 
12359
(
0.0810657
0.0893853
0.0649354
0.124608
0.0835399
0.175859
0.21139
0.190662
0.260175
0.164345
0.237666
0.318131
0.544447
0.134979
0.120294
0.445321
0.492675
0.0689107
0.0685465
0.104283
0.144108
0.288019
0.096735
0.109603
0.0934422
0.100491
0.0658713
0.0657803
0.0678591
0.0663043
0.0666898
0.0654255
0.0650854
0.0661148
0.0649699
0.0669162
0.0738687
0.0791996
0.0827401
0.0759997
0.0877227
0.0771814
0.0714462
0.0707373
0.0672966
0.0675428
0.0671047
0.0666231
0.0682043
0.0659865
0.0656732
0.0655335
0.065276
0.069314
0.065179
0.0651092
0.0702168
0.0650605
0.0650436
0.0650304
0.0651263
0.0649404
0.0655756
0.567774
0.0697503
0.153654
0.0735475
0.0655032
0.0742858
0.395077
0.606136
0.0848488
0.0649348
0.0748058
0.114091
0.0649542
0.0652228
0.0649376
0.0729359
0.36766
0.144469
0.0606178
0.0641702
0.0650358
-0.0422336
0.0374471
0.0603123
0.0631025
-0.0569876
-0.0354723
0.0647595
0.523127
0.0647326
0.0637258
0.0632253
0.0140967
0.0636529
0.0638579
0.072865
0.0675614
0.122399
0.0648494
0.0381255
-0.109867
0.0599505
0.0196077
0.0639958
-0.0505129
0.0410578
0.0213128
0.0637936
0.0609324
0.12422
0.103201
0.0641117
0.0618492
0.108241
0.0598823
-0.0579639
0.0641987
0.0639789
0.199338
0.0630467
0.00986845
0.059804
0.061263
0.0517244
0.0646956
0.0649333
0.0595452
0.0619877
-0.00361657
6.97203e-06
-0.00360106
0.0640149
0.00956357
0.061825
0.0100159
0.0648786
0.0526805
0.0643191
0.0818732
0.022771
0.0639878
0.0166933
0.173016
0.0641725
-0.0386372
0.0598674
0.144317
0.00554806
0.0648675
0.0229186
0.0629849
0.0646744
-0.112259
0.12343
-0.00424473
0.0637867
0.0654172
0.0582743
0.065437
0.00763494
0.0187365
0.0641509
0.0614119
0.0588651
0.202636
0.0219737
-0.053064
0.0649512
0.0649673
0.02
0.0941029
0.0602098
0.0588269
0.068045
0.067801
0.126802
0.0598282
0.134868
0.0646459
0.064932
0.0603752
0.0718595
0.234724
0.059221
0.0625096
0.0114514
0.0589178
0.0622285
0.015436
0.0169021
0.0628978
0.0172933
-0.0999807
0.0454027
0.0598311
0.0216453
0.0599312
0.174602
0.00973378
0.0684847
0.0204288
0.0207037
0.064623
0.0181812
0.0689004
0.00513404
0.058031
0.0643989
-0.00130686
0.0020405
-0.702061
0.215215
0.0648665
0.0593268
0.0640886
0.0591275
0.0823426
0.118572
0.0583157
0.00998544
0.520323
0.0591165
0.0643776
0.0832478
0.0412526
0.0644733
0.0604196
0.0603062
0.0641572
0.0176298
0.0691359
0.0622238
0.0678909
0.0641896
0.0217774
0.0622756
0.323489
0.0641084
0.0353751
0.0629096
0.079231
0.0577763
-0.0370201
0.0650612
0.00383594
0.0605935
0.0179578
0.00434854
0.0794125
0.0672897
0.0604958
0.394626
-0.711647
0.0642109
0.0584146
0.459413
-0.0446078
0.0677031
0.05878
0.0594003
0.0183022
0.0922647
-0.446236
-0.0492861
0.0572395
0.0590692
0.00998014
0.0200021
0.0735202
0.0217105
0.0607414
0.0585447
0.0641222
0.0586924
-0.0999132
0.0545401
0.0638707
0.0648316
0.0183452
0.0564191
0.0738425
0.0358879
0.0642484
0.0617969
0.0648648
0.0648377
0.0654432
0.00739726
0.0603816
-0.423595
0.0640011
0.0639903
0.0380381
0.0606546
0.117506
0.064122
0.0657729
0.0647432
-0.0964143
0.0615339
0.0647651
0.059541
0.0637435
0.0605658
0.0616387
0.0619845
0.0605464
0.0691379
0.226312
0.0605775
0.0668839
0.0794761
0.0322596
-0.0392317
0.0601867
0.0720789
0.41812
0.0648277
0.0292722
0.063804
0.0455276
0.0639729
0.0589035
0.260654
0.0282656
0.231554
0.0727576
0.0624873
0.0198045
0.0117112
0.0622119
0.0186829
0.0175636
0.0636717
0.0651246
0.0651149
0.0651766
0.0651462
0.315292
0.0642278
0.122783
0.000237843
0.0688359
0.0204556
0.0279478
0.0385092
0.0465126
0.0267765
0.0467145
0.07143
0.0301799
0.0317384
0.106933
0.0826106
0.0270662
0.0811357
0.0816843
0.0239721
0.122037
0.0608025
0.0652727
0.0442252
0.0652233
0.0607516
-0.164341
0.574453
0.0608975
0.0649022
0.0640285
0.064582
0.0262469
0.0646762
0.0646607
-0.0592963
0.0194915
-0.0370279
0.0627664
0.0154608
0.0568581
0.0633408
0.0255002
0.0440334
0.130448
0.0445628
0.061223
0.0638163
0.0191798
0.0150479
0.0590496
0.338571
0.0230285
0.012058
0.0638122
0.0588599
0.0648738
0.420829
0.0266404
0.0629976
0.0881081
0.0796366
0.0643466
0.0642979
0.0644928
-0.0518179
0.115204
0.0725486
0.0280563
0.00692533
0.0627558
0.134476
0.0618868
-0.00223857
-0.0431371
0.351119
0.0676522
0.106469
0.0413047
0.0315518
0.0489666
0.043745
0.0665176
0.0490003
0.0236978
0.0646727
-0.0395055
0.0737861
-0.00387042
0.0139555
0.0704692
0.111469
-0.147015
0.0258821
0.0523067
0.0141206
0.0136949
0.0275522
0.0597373
0.0644636
0.0713509
0.0639822
0.00165861
0.0620125
0.0992119
0.100197
0.0523994
-0.0444779
0.122197
0.0675837
0.0629296
0.436078
0.0637184
0.0629144
0.0135239
0.0649018
0.0625109
0.0627856
0.27252
0.262371
0.0643632
0.0630511
0.127375
0.0610627
0.0281294
0.0211824
0.0207621
0.0636154
0.0645626
0.0594867
0.06478
0.0998164
0.0289252
0.0310407
0.067433
0.066223
0.0105673
0.0665447
0.0606113
0.0586734
0.13976
0.0125769
0.0648562
0.0603419
0.0191979
0.044263
0.0630833
0.0616429
0.129562
0.0294049
0.0114065
0.0303494
0.0635828
0.0608586
0.0048344
-6.75728e-05
0.0647551
0.0490761
0.0646262
0.01014
0.334803
0.0644938
0.0620523
0.0636859
0.0220293
0.0674501
0.0670594
0.0615552
0.0620495
0.0422932
0.0914642
0.0549274
-0.025263
0.0639079
-0.0315366
0.0632026
0.0490793
0.0281681
0.00891688
0.0650909
0.0672644
0.0315425
0.0604518
0.0656476
0.0720273
0.0674108
0.0679279
0.0917318
0.0218849
0.0190333
0.0641861
0.0602086
0.0286758
-0.00446821
0.0641851
0.0638597
0.0193372
0.0636823
0.251964
-0.14832
-0.0632396
0.064192
0.0554611
0.00204607
0.0673397
0.0603988
0.486905
0.0639478
0.132435
0.103072
0.0553849
0.0606237
0.0658383
0.0529787
0.000183397
0.0432296
0.0660034
0.0642079
0.0649376
0.0671198
0.0681205
0.0728244
0.0209658
0.0655049
0.0639044
0.0306084
-0.0489643
0.0665477
-0.00273664
0.0640469
0.0665644
0.110263
0.00352995
0.00457695
0.111028
0.0588534
0.00240166
0.064359
0.064988
0.00800534
0.0509798
0.058397
0.050922
0.0645927
0.0638579
0.0608594
0.0608733
0.00263107
0.120778
0.073996
0.137042
0.0224384
0.0522757
0.128706
0.0765636
-0.0032124
0.0206345
0.0795055
0.0677475
0.0650066
0.0513873
0.0305756
0.0641759
0.0649057
0.0636736
0.0650407
-0.00638905
0.0495958
0.048551
0.122187
0.0724345
0.270081
0.010737
0.00261018
0.0606998
0.00637974
0.0645786
0.0624044
0.0635807
0.127443
0.131673
0.0593402
0.0429983
0.27324
0.0236879
0.0149862
0.0512928
0.0871548
-0.120526
0.0634191
0.0657356
0.0646291
-0.000342365
0.0656404
0.0443051
-0.0451173
0.0639239
0.094066
0.0732844
0.0544015
0.0670497
0.0597406
0.0652875
0.0670745
0.065332
0.065232
0.0669358
0.0104243
0.0162435
0.0543515
0.380759
0.00419497
0.527431
0.0252155
0.0369152
0.0669959
0.0269783
0.0708232
0.0144188
0.417229
0.114613
0.068735
0.0565264
0.0693066
0.0679948
0.0316408
0.0644653
-0.00777098
0.0653039
0.116294
0.0652808
-0.00570722
0.0146045
0.0168136
0.0693227
0.0518629
0.0153714
0.0913763
0.00950279
0.0529318
0.0110816
0.0558218
0.0642195
0.0614365
-0.21674
0.0877339
0.0573278
0.0641364
0.0654949
0.0690266
0.0990419
0.0171438
0.0276715
0.0636734
0.0580357
0.0682758
0.0571629
0.0553908
0.00993844
0.0705634
0.0705913
0.0148594
0.0579549
0.0547466
0.119908
0.0641847
0.0704823
-0.236513
0.0650658
0.0153598
0.0680447
0.0554728
0.103206
0.014746
0.0633891
0.028104
0.064452
0.129034
0.0596789
0.0185544
0.0169356
0.130699
0.0643329
0.00163765
0.00127717
0.0690695
0.0556552
0.0597471
0.0504028
0.26716
0.0685787
0.0648851
0.0677092
0.0647017
-0.120711
0.0548814
0.0230471
0.0447439
0.0296571
0.561949
0.0551602
-0.0374522
0.0174741
-0.0586641
0.0274348
0.0657857
0.0551787
0.0449738
-0.0376494
-0.0250203
0.0631684
0.0631043
0.138962
0.0624912
0.230509
0.029197
0.0914815
0.0599397
0.49356
-0.0889068
0.0552335
0.0642158
0.064214
0.1099
0.0689654
0.0739562
0.0662125
0.0226018
0.090975
-0.0175458
0.397023
0.0637687
0.0965614
0.0215553
0.138941
0.0572102
0.130976
0.0113898
0.110936
0.0670407
0.0641373
0.0161964
0.0132586
0.0280208
0.136526
0.0259622
0.0391064
0.0647346
0.0636637
0.0525925
0.276075
0.052565
0.01709
0.0797679
0.0298747
0.0510472
0.0666156
0.00157934
0.0456746
0.0567261
-0.0027251
0.0720474
0.0392203
0.216917
0.0642097
0.0452953
0.0619381
0.0711765
0.0616774
0.0632305
0.0641837
0.0124638
0.0588639
0.0930214
0.0202573
0.109162
0.0435636
0.0443812
0.0171125
-0.153378
0.0650193
0.0711428
0.0382921
-0.0564994
0.0138253
0.0642597
0.57773
0.0641501
0.0597717
-0.125572
0.0693018
0.0645218
0.0645414
0.0785999
0.104886
0.0650021
0.0701725
0.12692
0.0629703
0.0656314
0.0666052
0.063412
0.106349
-0.0072486
0.0672933
0.13435
0.0176875
0.0170958
0.0177226
0.0243301
0.0665855
0.0593669
-0.0319876
0.00771582
0.0868324
0.0633842
0.0650638
0.137414
0.00656899
0.0467223
0.0474358
0.0463004
0.0660715
0.0585628
0.0982475
-0.242542
0.420988
0.0963408
0.0621127
0.0587409
0.0938537
0.418066
0.129286
0.0642884
0.00767669
-0.00267382
-0.246866
0.0506449
-0.12159
0.0650376
0.0663626
0.0650753
0.018451
0.0887264
-0.127062
0.0604984
-0.0725223
0.0622605
0.0629358
0.0147323
0.0682384
0.00894075
-0.0281792
0.0700625
0.0502027
0.0367551
0.0510724
0.0698847
0.0931239
0.0864062
0.0435214
0.096435
0.0701043
0.0651084
0.0659168
0.0655412
0.122054
0.0345371
0.00259491
0.0124741
0.101151
0.0339805
0.0326999
0.0556086
0.00291856
0.0476748
0.0695001
0.0646308
0.00754317
0.126932
0.0608996
0.0510669
0.0708678
0.0330732
0.120045
0.134695
0.0333401
0.375923
0.0318619
0.102132
-0.0256509
0.0678946
0.0342842
0.0172365
0.0629621
0.0473006
0.0558081
0.0571963
0.0643502
0.0610789
-0.00553129
0.00641278
0.0600873
-0.0790281
0.115133
0.065471
0.0622182
0.00941221
0.0653975
0.09935
0.0229959
0.014877
0.06534
0.0674556
0.0638201
0.0653998
0.137349
-0.106986
0.0653884
0.0697904
0.0641924
-0.137686
0.0307076
0.0217484
0.0639947
0.0652964
0.066239
0.0348922
0.102463
0.03842
0.0621522
0.0669444
0.0652925
0.0286375
0.0985708
0.0548671
0.0649002
0.0424133
0.0348073
0.0889367
0.0609977
-0.00784964
0.168446
0.062723
0.0442392
0.0667098
0.0568219
-0.140213
0.0699359
0.065505
0.0176595
0.122426
0.0973447
-0.127833
0.0919949
0.0486677
0.0378158
0.0708624
0.0538319
0.048274
0.0699453
0.168405
0.0637376
-0.268246
0.0983714
0.206526
0.0538158
-0.00237
0.109854
0.0042346
0.301754
0.0100746
0.0392778
0.0477429
0.0505502
0.064168
0.0573365
0.102291
0.0049038
0.0703011
0.0628471
0.0110385
0.0250137
0.012418
0.0941821
0.00815214
0.0119136
0.0634988
0.0847268
-0.0343232
0.10128
0.0641347
0.0493912
0.0675132
0.0641414
0.0835203
0.0650264
0.0573179
0.276922
0.105735
-0.00716113
0.0650594
0.0644601
0.0646998
0.0704493
0.0681461
0.00449437
0.0683071
0.0643702
-0.00585845
0.0311339
0.0125895
0.0829951
0.0667454
0.0563518
0.111958
0.0482569
0.0650773
-0.02929
0.0179519
0.126868
0.0646002
-0.230309
0.114007
0.0633288
0.00501689
0.0482992
-0.0140348
0.049595
0.00843613
0.112114
0.061603
0.0664252
0.0324952
0.0558238
0.0685562
0.000617753
0.0694478
0.0696374
0.116858
0.062137
0.0679661
0.0492262
0.0164112
0.064514
0.0694961
0.0672124
0.0640745
0.114926
-0.0285101
0.0365547
0.07065
0.0657211
0.0564991
0.0640569
-0.191928
0.0942211
0.0648445
0.0848516
0.0566206
0.116232
0.174152
0.0031137
0.0693087
0.0133973
0.00269439
0.0639808
0.0530591
0.00722106
0.060524
0.0648936
0.087622
0.0383308
0.0676655
0.064918
0.053559
0.104011
0.0654351
0.0438173
0.0650275
0.0546718
0.0811223
0.153392
0.0645609
-0.189827
0.0950815
0.0248297
-0.0842911
0.108843
0.0438762
-0.00758061
0.0710587
0.16702
0.235463
0.0662186
0.05778
0.0577553
0.0663284
0.0682679
0.0122363
-0.0674697
-0.0987459
0.0139858
0.169654
-0.00023321
0.0146622
-0.0344319
0.0643571
0.0665279
0.0653018
0.0350421
0.0640927
0.0134042
0.0505138
-0.00343388
0.0642276
0.0671983
0.0624541
-0.114063
0.138737
0.0922449
0.0759903
0.142718
0.0581421
0.0653779
-0.00728556
0.0501456
-0.000681963
0.0129364
0.0343038
0.0125999
0.0234498
0.0717498
0.0637575
0.0641145
-0.115444
0.0600234
0.0555464
0.0693997
0.00918925
0.0273587
0.0645806
0.0293088
-0.00338616
-0.00104362
0.110714
0.0662447
0.0645198
0.0110686
0.0704611
0.0643173
0.00853893
0.0151936
0.0678566
0.160084
0.00163273
0.0646733
0.0644688
0.064031
0.124731
-0.104457
0.0540788
0.0172802
0.0672331
0.0669539
0.0180878
0.0648199
0.20341
0.0233986
-0.0391929
0.175053
0.0432309
0.0637154
0.0641971
0.0466172
0.070755
0.0636843
-0.174949
0.0127349
0.0553138
0.256237
0.118417
0.0600222
0.0641925
0.0644663
0.0660721
-0.0678887
0.183392
0.0446817
0.0921119
0.0822418
0.0131928
-0.0699902
0.0487016
0.068593
0.0662102
0.0240134
0.0558753
0.063667
0.0666738
0.011493
0.0681923
0.0449928
0.069872
0.0957698
-0.0022992
0.0611889
0.0667832
0.00457726
0.00927353
0.0741812
0.0665761
0.0912069
-0.00208138
0.0499119
0.0282056
0.0886708
0.0268388
-0.0199989
0.0672482
0.181079
0.063805
0.125876
0.00362763
0.0647777
0.0642744
0.431774
0.0647256
0.069955
0.0366879
0.0694543
0.0695698
0.0725395
0.0646438
0.0646871
0.000324155
-0.015958
0.0627491
0.39138
0.0513548
0.0664959
0.283553
0.120457
0.0694371
0.0592438
0.0661813
0.104048
-0.291746
0.0693041
0.0626924
0.0639832
0.0665372
0.0775274
0.0228435
0.0688166
0.0786737
0.0677224
-0.140873
0.00285994
0.013851
0.128221
0.0510024
0.0665864
0.0106239
-0.105388
0.0667494
0.0641609
0.0665266
0.0641277
0.0693845
0.0634934
0.00361653
0.0589278
0.0590818
0.326108
-0.00470416
-0.00820239
0.0095593
0.0692264
0.00474488
0.107802
-0.0795821
0.0618868
0.0152267
0.0648156
0.237478
0.0642429
0.0638339
0.0429699
0.0640072
0.0358356
0.0738517
0.0694924
0.0619033
-0.068975
0.105245
0.0166538
0.0667332
0.046034
-0.0332063
9.05507e-05
0.0927621
0.0894165
0.0645787
0.0696218
0.06179
0.0664757
0.0627155
0.0667134
0.105859
0.0923949
0.0146222
-0.0981196
0.0355793
0.000503888
0.0439109
-0.0975613
0.0634653
-0.0200807
0.0666104
0.0124308
0.00205904
0.0345907
0.0641856
0.0396758
0.0170652
0.0446218
-0.00554223
0.288827
-0.0948366
0.0665535
0.00714624
0.0648304
0.00308543
0.112307
0.0143338
0.0601435
0.072518
0.0168415
0.0673073
0.0470996
0.0644063
0.0569334
0.0642298
0.0700596
0.0115965
0.00109933
0.0643476
0.0999297
-0.0664109
0.526293
0.0638265
0.0873209
0.0383496
0.221349
0.0419565
-0.177066
-0.0297318
0.0615189
0.0342752
0.0875579
0.202186
0.0609748
0.0814842
0.0992027
0.0624195
-0.0748848
0.00319094
0.0664597
0.0406329
-0.0207824
0.0902463
-0.0705567
0.052192
0.101033
0.0680937
0.0638418
0.0694775
0.058105
-0.0633156
-0.000513546
-0.0497915
0.0652898
-0.0636755
0.0403082
0.00954634
0.126985
0.0346158
0.0385566
-0.0402293
0.0518624
0.0515238
0.00966421
0.0919472
0.0366286
0.0158722
0.0840351
-0.0823475
0.100485
0.0446463
0.109831
0.0652729
0.136892
0.00235137
0.123032
0.0671042
-0.024284
0.0644009
0.0440457
0.0146574
-0.00139521
0.0710534
0.0110279
0.0618692
0.563539
0.0702507
0.00922002
0.107416
-0.001057
0.0134834
0.0646938
0.0419489
0.0641624
0.529947
0.0646179
0.0642911
0.0640306
-0.00505953
0.058988
0.05561
-0.00709284
0.0388824
0.0777455
0.0589569
0.0642887
0.12849
0.0628502
0.121133
0.0188952
0.10151
0.055905
0.0556878
0.0355722
-0.00443761
0.0164091
0.0561972
0.584917
0.0646055
0.0643378
0.0699841
-0.0736069
0.0672177
0.0433326
0.10071
0.0682012
0.0556744
0.0100549
-0.0126463
0.0439399
-0.0325205
0.0691415
0.0590018
0.0219219
0.028539
-0.000690191
0.0665481
0.037194
0.0862265
0.228109
0.049477
0.0642959
0.0566142
0.202493
0.0649105
0.0649132
-0.0270826
0.0426066
-0.0351036
0.0555746
0.0642348
0.2175
-0.00493343
0.0600965
0.0695033
0.0627287
-0.0928609
0.0649174
0.0443806
-0.0165389
0.0649123
0.0642764
0.0162499
0.0638642
0.0649237
0.0207487
0.0681287
0.0641662
0.0340344
0.0639257
-0.00371549
0.0642234
0.0771382
0.140393
0.0143367
0.0649251
0.0128391
-0.165944
0.0564277
0.087724
0.0625712
0.0461747
0.0630725
-0.0082382
0.0020828
0.0592137
0.0642833
0.154049
0.0429407
0.0239521
0.0185294
0.151296
0.0638774
0.0134415
0.0642713
-0.0094916
0.0040471
0.00318408
0.0141904
0.178702
-0.0614674
0.00970695
0.0171049
0.0625984
0.0665566
0.00800046
0.158068
0.115215
0.0466931
-0.0592823
0.063844
-0.0479227
0.261144
0.0636174
0.000508072
-0.00903041
0.0950162
0.0137475
0.0146482
0.0870048
0.0642646
-0.00261835
-0.0581357
0.266021
0.0692167
0.00658988
-0.0190144
0.165495
0.0659847
0.064243
0.00781172
-0.0377025
0.0576447
0.0853669
0.0645149
0.0638545
0.070591
0.0690144
0.0353114
0.0698022
0.0642366
-0.00665534
0.0497473
-0.0147367
0.024043
0.0644815
0.0642749
0.165541
0.0687416
0.0944348
0.0762529
-0.0307645
0.0962052
0.0635421
-0.0135333
0.0736049
0.0641929
0.0396962
0.0534854
0.0560005
0.1131
0.0355609
-0.0884866
0.0553781
0.0639575
-0.0160296
0.063994
0.0026181
0.0414176
-0.0175191
-0.0360158
0.112699
-0.0205146
0.0645133
-0.000598283
0.0680042
0.0858227
-0.0125328
0.0272522
-0.0132109
-0.0551224
0.196715
-0.00343703
0.0813538
0.0635051
0.0641014
0.0639736
-0.0204138
0.166382
0.063531
-0.00542418
-0.00925372
0.0218899
0.00952663
0.0386414
0.126473
-0.017213
0.0676162
0.0184084
0.0345654
0.0648048
0.0648206
0.0660189
0.0690572
0.0183854
0.0644119
0.0660312
0.0704124
0.0887544
0.000516951
0.0638993
-0.00928667
0.064223
0.0137326
0.0351578
0.066358
0.0531586
0.00912143
-0.0100067
0.0485407
0.0944535
0.0688875
0.0365218
0.0432562
0.0642901
0.0682585
0.0680571
0.0664122
0.0643437
0.0833188
0.0643318
0.144882
0.0196221
-0.0838664
0.0643485
0.0726035
0.0644419
0.0641131
0.14092
0.0715635
0.0636578
0.414881
0.156629
0.0483642
0.0784291
0.0558729
0.13651
0.0306571
0.016056
0.0706282
0.070276
0.064282
0.0640063
-0.00331339
0.0638866
0.0660761
0.144019
0.0662931
0.0679691
0.039926
0.0642135
-0.0233538
0.064374
0.0660261
0.0138581
0.0166121
-0.0499335
0.130745
0.0846625
0.0662288
0.0142797
0.0661779
0.0354103
0.0119298
0.0701886
-0.0163097
0.0649677
0.0369764
0.0838514
0.0667098
0.118698
0.0643654
0.0701601
0.0642942
0.0400286
0.0638104
0.0691394
0.0340936
0.0594158
0.084751
0.0372333
0.0643135
0.0376895
0.0183369
0.069999
0.0147478
-0.00385709
0.0642745
0.0413689
0.130601
0.0100302
0.0699364
0.055638
0.055604
0.0352636
0.0705257
0.173828
0.06781
0.0643487
0.0643903
-0.0106822
0.000911528
-0.0112169
0.327004
0.116649
0.0654986
0.0362226
0.0180836
0.0646951
-0.0393504
0.0683097
0.130814
-0.00308777
0.066067
0.165613
0.00106516
-0.00688025
0.0325287
0.0399234
0.0646183
0.0639764
0.0758615
0.0643037
0.0642508
0.158721
0.0663637
0.0778764
0.0635617
0.05266
0.059383
0.392065
0.056183
0.058792
-0.000993637
0.1209
0.114598
0.0445625
0.126838
0.0641287
0.0575944
0.0103513
0.0890485
0.143155
0.0658365
-0.00238762
0.0505843
0.0672133
0.0659293
0.0642279
0.0805239
0.0560918
0.0647334
0.0411562
0.299918
0.0648157
0.0187395
0.0428375
0.0638265
0.0773457
0.0666594
0.0382548
0.0642421
0.0641782
0.0226115
0.040194
0.10653
0.16377
-0.264157
0.0700343
0.0780404
-0.0238772
0.0436003
0.0666123
0.0517729
-0.00182399
0.0643218
0.0676409
0.0642731
0.0407229
0.0821951
0.0273294
0.0643396
0.0753974
0.0465392
0.0683381
0.140682
0.0600423
0.0641121
0.0643349
0.0399356
0.0322542
0.348232
0.074739
0.0976652
0.00857494
0.0114379
0.0640684
0.116702
0.0643216
0.064287
0.0648016
0.0061189
0.0692705
0.0423909
0.0116456
0.0270949
0.0129595
0.0405959
0.0805169
0.130385
0.060988
0.0163909
0.107569
0.0433508
0.143589
0.0679723
-0.120058
0.161449
0.153899
0.0638081
-0.0966862
0.0125804
0.0146192
0.158656
-0.0025388
0.0714425
0.0712077
0.052976
0.0497135
0.0467965
0.246841
0.0894366
0.0684399
0.0200178
0.0682856
0.0502549
0.0342963
0.109765
0.0485506
0.0819759
0.098619
0.00932068
0.111337
0.0427635
0.0650757
0.0744083
0.0633598
0.0602726
0.0630457
0.0688349
0.0271051
-0.0308092
0.0639092
0.186371
0.0633723
0.0559788
0.0154902
0.040663
0.0440828
0.0628151
0.0131783
0.0188949
0.295061
0.0643114
0.0142305
0.0475301
0.0186885
0.0648091
0.0645388
0.1752
0.033452
0.0450216
-0.0798316
0.0373133
0.0501454
0.162781
0.0224879
0.141564
0.0700624
0.0271657
0.0504984
0.0593586
-0.0157983
0.01168
0.032676
0.0438297
0.063712
0.0118476
0.011661
0.000299834
0.0536882
0.047878
0.464901
-0.0322397
0.0633509
-0.00392291
0.0301726
-0.0773087
0.0642484
0.0428176
0.0431776
0.0642519
0.00975039
0.0398298
0.0668282
1.49839e-05
-0.0120019
-0.00170297
0.0694877
0.0338003
0.0648338
0.0593825
-0.0161641
0.0945098
0.040979
0.013
0.171962
0.0359662
0.028869
0.030251
0.0121862
-0.015986
0.0627793
0.0309478
0.0246416
0.106082
0.319807
0.0200688
0.0456375
0.0310588
0.0642491
0.10484
0.0418395
0.0150232
0.0639944
0.0474794
0.0101203
0.0213199
0.170782
0.0175614
0.0425439
0.0400439
0.0690215
0.0100321
0.0376275
0.0882132
0.0724453
0.0694531
0.0164677
0.0482044
0.0546431
0.0521819
0.0643061
0.0084616
0.0751245
0.0410377
-0.0028106
-0.0318135
0.058913
0.0413826
0.0235983
0.0337215
0.0643588
0.114053
0.115235
0.0861032
0.064783
0.265651
0.0126086
0.0678906
0.102405
0.0638726
0.0721115
0.0453276
0.037159
0.0733817
-0.0783426
0.065437
0.0729919
0.0557537
-0.00293645
-0.0181562
0.000372307
0.0752243
0.0152262
0.0648117
0.0398275
0.0894547
0.0654421
0.170518
0.0251244
0.0378465
0.0140648
0.0813531
0.0313781
0.0488161
0.0640228
0.064183
0.0591786
0.0773404
0.146082
0.0245349
0.168523
0.100628
0.105335
0.0660793
0.0840096
0.0127459
0.0641992
-0.0127022
-0.00915859
0.0670335
0.0642923
0.0556279
0.0625613
0.0641621
0.0787769
0.0470506
0.153099
0.024241
0.046
0.104861
-0.00161257
0.0102916
0.0994453
0.0205574
0.034452
0.0832925
0.0639331
0.0771303
0.0402503
0.140914
0.14905
0.253265
0.0641971
0.146857
0.0436542
0.0431486
0.115491
0.125299
0.116913
-0.0131309
0.029931
0.0833037
0.0311012
0.054083
0.0575923
0.105092
0.0636412
0.024997
-0.0168928
0.0737582
-0.0140251
0.063262
0.0970284
0.0691659
0.0437595
0.117221
0.186933
0.0334296
0.0562224
0.0256989
0.0451496
0.0877146
-0.00298115
0.0974698
0.00371576
0.0642057
0.0307482
-0.124393
0.117254
0.0490857
-0.0265262
0.0170714
0.0546602
0.0633486
0.124492
0.107245
0.0455101
0.0717887
0.065798
0.0104093
0.0574004
0.0116849
0.0942633
0.0464481
0.163238
0.0642131
0.0602596
0.00858736
0.0520516
0.0528533
0.0799975
0.0704148
0.041957
0.188915
0.123128
0.0640486
0.0123565
0.0588199
0.0639652
0.153681
0.0635951
0.0320064
0.0354602
0.0636276
0.0637327
0.0663587
0.0124685
0.0748161
0.111413
0.0386204
0.151973
0.0431454
0.0451154
0.0486713
0.0918415
0.0643939
0.051448
0.0509286
0.0378821
-0.0109652
0.0146641
0.0812381
0.0566627
0.0680762
0.0443203
0.0557894
0.0746735
0.0322855
0.122296
0.0430367
0.0639908
0.0135725
0.102718
0.0123116
0.0641117
0.155372
-0.0122089
0.060054
0.114847
0.0113831
0.0680961
0.110943
0.0110853
0.103562
0.132881
0.0109113
0.0592673
0.0942369
0.089467
0.0217294
0.0611892
0.0444627
0.0641785
0.0632535
0.0638949
0.0210645
0.0255458
0.0299432
0.0967543
-0.0394759
0.192169
-0.0374574
0.0380785
0.0562637
-0.0232738
0.0655202
-0.0677347
0.0464304
0.0328967
0.0278523
0.0402128
0.0772277
0.0564768
0.0441454
0.0685477
0.0640927
0.0929701
-0.0214767
0.0216161
0.0110533
0.0263588
0.0664731
0.0382675
0.0243624
0.0695166
0.0343969
0.0525801
0.1358
0.100205
0.0950462
0.109597
-0.00470954
-0.000624933
0.0103751
0.0335351
-0.00493976
0.0231538
0.0705712
0.0556775
0.15061
0.0890259
0.0139227
0.0643219
0.111791
0.148181
0.0872851
0.093696
0.0708734
0.0250988
0.132331
0.0414347
0.0331811
0.045532
0.0457286
0.0632478
0.0399058
0.0403161
0.0678191
0.0302832
0.042312
0.0591104
0.120428
0.057448
0.0559284
0.0896253
0.0681552
0.0635616
0.0656721
0.00596983
0.0241878
0.064921
0.0853869
-0.0308909
0.0110239
0.0699362
0.0293626
-0.00935514
-0.0241698
-0.0063939
0.0480645
0.0493425
0.0699648
0.0457225
0.0358442
-0.00074094
-0.00149071
0.0107068
-2.05373e-05
0.048439
0.0632688
0.0630318
0.150454
0.0768265
0.0449786
0.0531896
-0.000431849
0.0586869
0.0378821
0.1726
0.102652
0.0185518
0.0690885
0.0248358
0.0638403
0.0156241
0.00107241
0.040116
0.0638882
0.0728778
0.19217
0.0570361
0.104718
-0.0078412
0.0642327
0.0476553
0.109899
0.11826
0.0836362
0.0646849
0.0602878
0.0611665
0.0647442
0.0639076
0.0537342
0.0108123
0.0639047
0.0704319
0.0686127
-0.353789
0.139153
0.0611832
0.0641937
0.0174118
0.0256265
0.0351654
0.0909543
0.0266588
0.0634705
0.0571979
0.0105293
0.0646583
0.0221975
0.106365
0.085308
0.0627188
0.0197399
0.0644578
0.0515395
0.0503548
0.0568757
0.00346976
0.0722718
0.0474814
0.0460303
0.128929
0.0967557
0.0638423
0.0643002
0.0503431
0.0426536
0.0218102
0.0314415
0.0524101
0.0149337
0.0952598
0.0647608
0.0523908
0.00930189
0.0557222
0.100533
0.0779781
0.0663596
0.173322
0.031923
0.145562
0.163249
0.0391256
-0.00342116
-0.00039017
0.146619
0.0553823
0.0136223
0.0884582
0.0498277
0.0322065
0.102988
0.0862712
0.0653814
0.00656565
0.0423384
0.0406429
0.0533138
0.0083821
0.0656841
0.0952879
0.0655114
0.0696532
0.101159
0.0697204
0.0578284
0.122546
0.0134827
0.107442
0.0413207
0.0867934
0.0147496
0.0753186
0.0178692
0.0652885
0.0436644
0.0160339
0.0815561
0.0382631
0.0652364
0.0551323
0.023713
0.0579385
0.0479724
0.0695066
0.049426
0.032837
0.00454524
0.111457
0.122043
0.116794
0.0541586
0.056465
0.0497147
0.0286667
0.0403992
0.0645337
0.0688825
0.0842101
0.0352559
0.070918
0.0109276
0.0443423
0.0705296
0.0459122
0.0451535
0.0564036
0.04304
0.0515723
0.155053
0.298166
0.0326607
0.0387341
0.042023
0.0459465
0.0538951
0.0496661
0.0488444
0.0349736
0.0208867
0.0630656
0.0641811
0.0632485
0.012092
0.064061
0.0415557
0.0572034
0.0418462
0.0731875
0.0468563
0.141475
0.000951515
0.0637894
0.0460738
0.10664
0.0547124
0.0734736
0.106444
0.0684634
0.0639692
0.0411995
0.0112077
0.0997267
0.0111034
0.13325
0.0971413
0.00829905
0.0779297
0.0823572
0.0175728
0.0563627
0.0631024
0.0653504
0.0500767
0.0637463
0.0453221
-0.0208612
0.0630313
0.0952058
0.0569162
0.0770178
0.0777478
0.18487
0.0697294
0.0553165
0.00847082
0.0214855
0.102321
0.0420309
0.0988807
0.0651593
0.0512219
0.0793967
0.0586377
0.0444336
0.0647796
0.0651758
0.0448413
0.0636977
0.0479055
0.0742325
0.0939918
0.0230302
0.0635018
0.01176
0.00858706
0.0821389
0.0761255
0.065604
0.0823568
0.150502
0.0641648
0.0530741
0.0608538
0.0740444
0.053159
0.0488048
0.0538537
0.0887301
0.0984925
0.0439842
0.0941255
0.106204
0.0738364
0.125781
0.0710119
0.0918744
0.0401458
0.0560751
0.0330022
0.0648428
0.078376
0.0655069
0.0987237
0.00658165
0.0679746
-0.00319171
0.0594325
0.0375371
0.136128
0.0132192
0.0608879
0.0638729
0.0126497
0.124774
0.037981
0.0403403
0.0241474
0.0573587
0.0979393
0.0517998
0.0626774
0.0498892
0.0138696
0.0576852
0.0540587
0.439083
0.0539701
0.0655354
0.072476
0.0789346
0.056663
0.0446558
0.0641871
0.119227
0.0543874
0.0641733
0.0212819
0.0507047
0.0419017
0.0539678
0.0775638
0.0574399
0.0585241
0.0578045
0.0474181
0.0950628
0.0642081
0.0528552
0.0699355
0.0583741
0.0547722
0.0697732
0.0689919
0.0731482
0.0737205
0.0642592
0.0571266
0.0652361
0.0400632
-0.00179882
-0.00053947
0.167494
0.0892533
-0.00124079
0.0441102
0.0636021
0.0665734
0.0722057
0.0885096
0.0644989
0.0393686
0.0893056
0.0702531
0.0366815
-0.00131163
0.0311635
0.0635536
0.0516465
0.0640753
0.110287
0.267268
0.0541219
0.070549
0.0541847
0.00867702
0.0638704
0.086905
0.0385632
0.0598157
0.0646444
0.0468056
0.113357
0.0507084
0.0697926
0.0363713
0.0552226
0.0574688
0.103524
0.0732388
0.0546834
0.0660303
0.0533431
0.0693625
0.0523735
0.0644535
0.0518041
0.0639687
0.0690765
0.0174198
0.0827587
0.0259473
0.0871688
0.0883291
0.0676692
0.0532079
0.04939
0.0919894
0.108155
0.0177075
0.0568876
0.0723998
0.0721179
0.0525414
0.0627543
0.0579123
0.0481955
0.0387399
0.0388238
0.059532
0.0213321
0.0542328
0.094704
0.0533881
0.0564623
0.050455
0.033506
0.0994275
0.0674132
-0.000434632
0.0541136
0.0565856
0.0168966
0.0668345
0.000790441
0.0661861
0.0567989
0.0600713
0.0613696
0.0649918
0.0569341
0.00855646
0.0641877
0.030976
0.085326
0.0663316
0.0708915
0.0471536
0.112574
0.0743553
0.0645317
0.048812
-0.044312
0.0642865
0.00858552
-0.0554995
0.0796033
0.100775
0.0675777
0.0542464
0.0405966
0.0859788
0.0723847
0.0640318
0.106543
0.0173445
0.0959372
0.0642104
0.0637025
0.0569371
0.0585472
0.0591564
0.0799044
0.0911295
0.0593691
-0.00151683
0.0613849
0.0677488
0.0546929
0.0434561
0.000213734
0.0637183
0.0572394
0.0341293
0.0588619
0.059929
0.0663232
0.148065
0.0861764
0.0645963
0.0761504
0.0669278
0.0569523
0.0889501
0.0734585
0.0578595
0.0764405
0.0512014
0.0762548
0.0992763
0.011325
0.0337981
0.0646836
0.0835638
0.0620697
0.0664037
0.0654101
0.0553673
0.00484363
0.000720487
0.0726438
0.0477462
0.0497371
0.0388536
0.0633189
0.0630678
0.0645937
0.083555
0.0492141
0.0642474
0.0569145
0.0682296
0.0344107
0.0221096
0.0642482
0.0638093
0.0506835
0.0621021
0.0626057
0.0563344
0.0595988
0.0546991
0.0806526
0.0753637
0.0461977
0.0620757
0.0668213
0.0726182
0.0573993
0.0641994
0.0566482
0.0435588
0.00436625
0.00910232
0.0501915
0.142234
0.0578755
-0.0457252
0.102823
0.057286
0.056258
0.0675232
0.0628428
0.0642468
0.0688447
0.0699559
0.0568551
0.0656103
0.0635254
0.11037
0.0112669
0.0454421
0.0643841
0.0686209
0.0773633
0.0846083
0.0457534
0.0662395
0.0641453
0.0628041
0.0585072
0.0401357
0.0368448
0.0134532
0.0751012
0.0625151
0.056133
0.0692242
0.0677591
0.0676185
0.0617408
0.0716538
0.0642664
0.0237586
-0.00561353
0.063571
0.0805888
0.0569425
0.0590808
0.0607582
0.0653606
-0.027363
0.0769886
0.00237635
0.05717
0.0146331
0.0662438
0.0866653
0.147129
0.0690573
0.0644177
0.0430447
0.0324937
0.129844
0.0581308
0.0806492
0.05923
0.0638405
0.0773626
0.0619695
0.143646
0.000275051
0.0929733
0.0671542
0.0623861
0.0642401
0.0621542
-0.0162888
0.0536037
0.0637669
0.0706582
0.0626745
0.0637801
0.0636911
0.0175952
0.0077511
0.068642
0.0632012
0.096927
0.0686986
0.115867
0.432779
0.0331136
0.0574199
0.0889723
0.0628143
-0.0277712
0.0642281
0.0626926
0.140125
0.399925
0.013874
0.0639843
0.181029
0.0489353
0.0613096
0.0617095
0.0318551
0.0637594
0.0739839
0.236238
0.0754643
0.0671187
0.0633109
0.120589
0.0610165
0.0842191