/*--------------------------------*- C++ -*----------------------------------*\
  =========                 |
  \\      /  F ield         | OpenFOAM: The Open Source CFD Toolbox
   \\    /   O peration     | Website:  https://openfoam.org
    \\  /    A nd           | Version:  7
     \\/     M anipulation  |
\*---------------------------------------------------------------------------*/
FoamFile
{
    version     2.0;
    format      ascii;
    class       surfaceScalarField;
    location    "0.286";
    object      phi;
}
// * * * * * * * * * * * * * * * * * * * * * * * * * * * * * * * * * * * * * //

dimensions      [0 3 -1 0 0 0 0];

internalField   nonuniform List<scalar> 
79600
(
1.07292e-12
-1.14468e-12
1.28283e-11
-1.17485e-11
3.28135e-11
-1.99673e-11
5.71625e-11
-2.43555e-11
8.28254e-11
-2.56667e-11
1.07488e-10
-2.46673e-11
1.29443e-10
-2.19529e-11
1.47429e-10
-1.79836e-11
1.60531e-10
-1.31021e-11
1.68093e-10
-7.56287e-12
1.69646e-10
-1.5555e-12
1.64868e-10
4.77952e-12
1.53543e-10
1.13288e-11
1.35538e-10
1.8003e-11
1.10799e-10
2.47358e-11
7.93235e-11
3.14747e-11
4.11516e-11
3.81745e-11
-3.64403e-12
4.47969e-11
-5.49586e-11
5.13136e-11
-1.12662e-10
5.77032e-11
-1.76608e-10
6.39464e-11
-2.46633e-10
7.00266e-11
-3.22562e-10
7.59299e-11
-4.04208e-10
8.16461e-11
-4.91375e-10
8.71673e-11
-5.83861e-10
9.24863e-11
-6.81459e-10
9.75972e-11
-7.83956e-10
1.02496e-10
-8.91136e-10
1.0718e-10
-1.00278e-09
1.11647e-10
-1.11868e-09
1.15894e-10
-1.2386e-09
1.1992e-10
-1.36232e-09
1.23726e-10
-1.48963e-09
1.2731e-10
-1.62031e-09
1.30674e-10
-1.75413e-09
1.33817e-10
-1.89087e-09
1.36742e-10
-2.03032e-09
1.3945e-10
-2.17226e-09
1.41942e-10
-2.31648e-09
1.4422e-10
-2.46276e-09
1.46285e-10
-2.6109e-09
1.48141e-10
-2.76069e-09
1.49789e-10
-2.91192e-09
1.51232e-10
-3.0644e-09
1.52473e-10
-3.21791e-09
1.53514e-10
-3.37227e-09
1.54358e-10
-3.52728e-09
1.55008e-10
-3.68274e-09
1.55466e-10
-3.83848e-09
1.55737e-10
-3.9943e-09
1.55823e-10
-4.15003e-09
1.55727e-10
-4.30548e-09
1.55452e-10
-4.46048e-09
1.55001e-10
-4.61486e-09
1.54378e-10
-4.76845e-09
1.53586e-10
-4.92107e-09
1.52628e-10
-5.07258e-09
1.51507e-10
-5.22281e-09
1.50227e-10
-5.3716e-09
1.48791e-10
-5.51881e-09
1.47204e-10
-5.66427e-09
1.45467e-10
-5.80786e-09
1.43584e-10
-5.94942e-09
1.41559e-10
-6.08881e-09
1.39395e-10
-6.22591e-09
1.37095e-10
-6.36057e-09
1.34664e-10
-6.49267e-09
1.32104e-10
-6.62209e-09
1.29418e-10
-6.74871e-09
1.26611e-10
-6.87239e-09
1.23686e-10
-6.99304e-09
1.20646e-10
-7.11053e-09
1.17494e-10
-7.22477e-09
1.14235e-10
-7.33564e-09
1.10871e-10
-7.44304e-09
1.07406e-10
-7.54689e-09
1.03843e-10
-7.64707e-09
1.00187e-10
-7.74351e-09
9.64397e-11
-7.83612e-09
9.2606e-11
-7.92481e-09
8.86891e-11
-8.0095e-09
8.46923e-11
-8.09012e-09
8.06192e-11
-8.1666e-09
7.64733e-11
-8.23885e-09
7.22584e-11
-8.30683e-09
6.79783e-11
-8.37047e-09
6.36365e-11
-8.4297e-09
5.92365e-11
-8.48449e-09
5.47819e-11
-8.53476e-09
5.02764e-11
-8.58049e-09
4.57239e-11
-8.62162e-09
4.11283e-11
-8.65811e-09
3.64933e-11
-8.68993e-09
3.18226e-11
-8.71705e-09
2.71198e-11
-8.73944e-09
2.2389e-11
-8.75707e-09
1.7634e-11
-8.76993e-09
1.28588e-11
-8.778e-09
8.06744e-12
-8.78126e-09
3.26369e-12
-8.77972e-09
-1.54854e-12
-8.77335e-09
-6.36518e-12
-8.76217e-09
-1.11821e-11
-8.74618e-09
-1.5995e-11
-8.72538e-09
-2.07999e-11
-8.69978e-09
-2.55927e-11
-8.66941e-09
-3.03693e-11
-8.63429e-09
-3.51253e-11
-8.59443e-09
-3.98568e-11
-8.54987e-09
-4.45593e-11
-8.50064e-09
-4.92286e-11
-8.44678e-09
-5.38604e-11
-8.38833e-09
-5.84504e-11
-8.32534e-09
-6.29942e-11
-8.25785e-09
-6.74874e-11
-8.18593e-09
-7.19257e-11
-8.10962e-09
-7.63046e-11
-8.029e-09
-8.06196e-11
-7.94414e-09
-8.48664e-11
-7.8551e-09
-8.90405e-11
-7.76196e-09
-9.31374e-11
-7.66481e-09
-9.71526e-11
-7.56373e-09
-1.01082e-10
-7.4588e-09
-1.0492e-10
-7.35014e-09
-1.08664e-10
-7.23783e-09
-1.12307e-10
-7.12199e-09
-1.15847e-10
-7.00271e-09
-1.19279e-10
-6.88011e-09
-1.22598e-10
-6.75431e-09
-1.25799e-10
-6.62543e-09
-1.28879e-10
-6.4936e-09
-1.31832e-10
-6.35894e-09
-1.34655e-10
-6.2216e-09
-1.37344e-10
-6.08171e-09
-1.39893e-10
-5.93941e-09
-1.423e-10
-5.79485e-09
-1.44559e-10
-5.64818e-09
-1.46666e-10
-5.49956e-09
-1.48618e-10
-5.34915e-09
-1.50411e-10
-5.19711e-09
-1.5204e-10
-5.04361e-09
-1.53501e-10
-4.88882e-09
-1.54791e-10
-4.73291e-09
-1.55907e-10
-4.57607e-09
-1.56844e-10
-4.41847e-09
-1.576e-10
-4.2603e-09
-1.58169e-10
-4.10175e-09
-1.5855e-10
-3.94301e-09
-1.5874e-10
-3.78427e-09
-1.58734e-10
-3.62574e-09
-1.5853e-10
-3.46762e-09
-1.58125e-10
-3.3101e-09
-1.57517e-10
-3.1534e-09
-1.56703e-10
-2.99772e-09
-1.5568e-10
-2.84327e-09
-1.54447e-10
-2.69027e-09
-1.53001e-10
-2.53893e-09
-1.5134e-10
-2.38947e-09
-1.49464e-10
-2.2421e-09
-1.47369e-10
-2.09704e-09
-1.45055e-10
-1.95452e-09
-1.42522e-10
-1.81475e-09
-1.39768e-10
-1.67796e-09
-1.36794e-10
-1.54436e-09
-1.33597e-10
-1.41418e-09
-1.3018e-10
-1.28763e-09
-1.26542e-10
-1.16495e-09
-1.22685e-10
-1.04634e-09
-1.18609e-10
-9.32022e-10
-1.14318e-10
-8.22211e-10
-1.09812e-10
-7.17117e-10
-1.05095e-10
-6.16947e-10
-1.0017e-10
-5.21905e-10
-9.50423e-11
-4.32187e-10
-8.97175e-11
-3.47985e-10
-8.42019e-11
-2.69483e-10
-7.85024e-11
-1.96855e-10
-7.2628e-11
-1.30264e-10
-6.65899e-11
-6.98618e-11
-6.04015e-11
-1.57852e-11
-5.40772e-11
3.18479e-11
-4.76341e-11
7.29412e-11
-4.10936e-11
1.07424e-10
-3.44821e-11
1.35256e-10
-2.7831e-11
1.56433e-10
-2.11774e-11
1.70999e-10
-1.45667e-11
1.79053e-10
-8.05512e-12
1.80765e-10
-1.71268e-12
1.76391e-10
4.3733e-12
1.663e-10
1.00912e-11
1.51004e-10
1.52965e-11
1.31204e-10
1.98007e-11
1.07849e-10
2.33555e-11
8.22214e-11
2.56268e-11
5.60525e-11
2.61688e-11
3.16421e-11
2.44128e-11
1.1989e-11
1.96543e-11
7.65642e-13
1.12215e-11
7.64619e-13
1.17047e-11
-1.28422e-11
4.34088e-11
-4.3435e-11
8.94724e-11
-6.60216e-11
1.43442e-10
-7.83128e-11
1.99307e-10
-8.15408e-11
2.52017e-10
-7.73889e-11
2.97498e-10
-6.74345e-11
3.3254e-10
-5.30184e-11
3.5466e-10
-3.52214e-11
3.61981e-10
-1.48892e-11
3.53109e-10
7.3175e-12
3.27021e-10
3.08722e-11
2.83e-10
5.53514e-11
2.20581e-10
8.04205e-11
1.39502e-10
1.05815e-10
3.96613e-11
1.31318e-10
-7.89139e-11
1.5675e-10
-2.16081e-10
1.81963e-10
-3.71607e-10
2.0684e-10
-5.45185e-10
2.31284e-10
-7.36447e-10
2.55211e-10
-9.44974e-10
2.78554e-10
-1.1703e-09
3.01257e-10
-1.41193e-09
3.23276e-10
-1.66934e-09
3.44571e-10
-1.94197e-09
3.65113e-10
-2.22924e-09
3.84874e-10
-2.53058e-09
4.03837e-10
-2.84539e-09
4.21985e-10
-3.17304e-09
4.39305e-10
-3.51294e-09
4.55788e-10
-3.86444e-09
4.71427e-10
-4.22694e-09
4.8622e-10
-4.59979e-09
5.00163e-10
-4.98237e-09
5.13256e-10
-5.37406e-09
5.25502e-10
-5.77421e-09
5.36901e-10
-6.18222e-09
5.4746e-10
-6.59746e-09
5.57183e-10
-7.01931e-09
5.66075e-10
-7.44717e-09
5.74143e-10
-7.88043e-09
5.81395e-10
-8.31848e-09
5.8784e-10
-8.76073e-09
5.93487e-10
-9.2066e-09
5.98345e-10
-9.65551e-09
6.02423e-10
-1.01069e-08
6.05732e-10
-1.05602e-08
6.08283e-10
-1.10148e-08
6.10086e-10
-1.14702e-08
6.11154e-10
-1.19259e-08
6.11498e-10
-1.23813e-08
6.1113e-10
-1.28359e-08
6.10061e-10
-1.32892e-08
6.08303e-10
-1.37407e-08
6.0587e-10
-1.41899e-08
6.02774e-10
-1.46363e-08
5.99027e-10
-1.50794e-08
5.94641e-10
-1.55188e-08
5.89631e-10
-1.5954e-08
5.84009e-10
-1.63846e-08
5.77789e-10
-1.68101e-08
5.70982e-10
-1.72301e-08
5.63603e-10
-1.76442e-08
5.55664e-10
-1.8052e-08
5.47179e-10
-1.84531e-08
5.38161e-10
-1.88471e-08
5.28624e-10
-1.92335e-08
5.18581e-10
-1.96122e-08
5.08045e-10
-1.99826e-08
4.9703e-10
-2.03444e-08
4.8555e-10
-2.06974e-08
4.73617e-10
-2.10412e-08
4.61246e-10
-2.13754e-08
4.48451e-10
-2.16998e-08
4.35244e-10
-2.2014e-08
4.2164e-10
-2.23178e-08
4.07653e-10
-2.26109e-08
3.93295e-10
-2.28931e-08
3.78582e-10
-2.3164e-08
3.63527e-10
-2.34234e-08
3.48144e-10
-2.36712e-08
3.32447e-10
-2.3907e-08
3.16449e-10
-2.41307e-08
3.00166e-10
-2.43421e-08
2.83612e-10
-2.45409e-08
2.66801e-10
-2.4727e-08
2.49746e-10
-2.49002e-08
2.32463e-10
-2.50604e-08
2.14966e-10
-2.52074e-08
1.9727e-10
-2.53411e-08
1.79389e-10
-2.54613e-08
1.61338e-10
-2.55679e-08
1.43133e-10
-2.56609e-08
1.24788e-10
-2.57401e-08
1.06317e-10
-2.58054e-08
8.77371e-11
-2.58569e-08
6.90627e-11
-2.58943e-08
5.03096e-11
-2.59177e-08
3.1493e-11
-2.59271e-08
1.26286e-11
-2.59224e-08
-6.26782e-12
-2.59036e-08
-2.51804e-11
-2.58707e-08
-4.40931e-11
-2.58237e-08
-6.29898e-11
-2.57626e-08
-8.18542e-11
-2.56875e-08
-1.0067e-10
-2.55985e-08
-1.19421e-10
-2.54955e-08
-1.38091e-10
-2.53787e-08
-1.56663e-10
-2.52481e-08
-1.7512e-10
-2.51039e-08
-1.93445e-10
-2.49462e-08
-2.11622e-10
-2.4775e-08
-2.29633e-10
-2.45905e-08
-2.47461e-10
-2.43929e-08
-2.6509e-10
-2.41823e-08
-2.82501e-10
-2.3959e-08
-2.99678e-10
-2.3723e-08
-3.16604e-10
-2.34746e-08
-3.3326e-10
-2.3214e-08
-3.49629e-10
-2.29414e-08
-3.65694e-10
-2.26572e-08
-3.81437e-10
-2.23614e-08
-3.96841e-10
-2.20544e-08
-4.11889e-10
-2.17365e-08
-4.26562e-10
-2.1408e-08
-4.40843e-10
-2.10691e-08
-4.54716e-10
-2.07202e-08
-4.68161e-10
-2.03617e-08
-4.81164e-10
-1.99938e-08
-4.93705e-10
-1.96169e-08
-5.05767e-10
-1.92314e-08
-5.17335e-10
-1.88377e-08
-5.2839e-10
-1.84361e-08
-5.38916e-10
-1.80271e-08
-5.48897e-10
-1.76111e-08
-5.58315e-10
-1.71885e-08
-5.67156e-10
-1.67597e-08
-5.75403e-10
-1.63253e-08
-5.83039e-10
-1.58857e-08
-5.90049e-10
-1.54413e-08
-5.96419e-10
-1.49927e-08
-6.02134e-10
-1.45403e-08
-6.07177e-10
-1.40846e-08
-6.11536e-10
-1.36263e-08
-6.15197e-10
-1.31657e-08
-6.18146e-10
-1.27035e-08
-6.20369e-10
-1.22402e-08
-6.21854e-10
-1.17764e-08
-6.22589e-10
-1.13126e-08
-6.22563e-10
-1.08493e-08
-6.21763e-10
-1.03873e-08
-6.20179e-10
-9.92699e-09
-6.17801e-10
-9.46908e-09
-6.14619e-10
-9.01413e-09
-6.10625e-10
-8.56277e-09
-6.0581e-10
-8.1156e-09
-6.00167e-10
-7.67325e-09
-5.9369e-10
-7.23635e-09
-5.86372e-10
-6.80551e-09
-5.78208e-10
-6.38137e-09
-5.69194e-10
-5.96457e-09
-5.59328e-10
-5.55573e-09
-5.48607e-10
-5.15549e-09
-5.3703e-10
-4.76449e-09
-5.24598e-10
-4.38335e-09
-5.11314e-10
-4.01272e-09
-4.97181e-10
-3.6532e-09
-4.82202e-10
-3.30542e-09
-4.66385e-10
-2.97e-09
-4.49739e-10
-2.64754e-09
-4.32275e-10
-2.33863e-09
-4.14008e-10
-2.04384e-09
-3.94953e-10
-1.76376e-09
-3.75131e-10
-1.49891e-09
-3.54564e-10
-1.24983e-09
-3.33282e-10
-1.01701e-09
-3.11317e-10
-8.00935e-10
-2.88709e-10
-6.02025e-10
-2.65501e-10
-4.20676e-10
-2.4175e-10
-2.57233e-10
-2.17519e-10
-1.11986e-10
-1.92882e-10
1.48464e-11
-1.67927e-10
1.23124e-10
-1.42761e-10
2.12803e-10
-1.17509e-10
2.83952e-10
-9.23259e-11
3.36778e-10
-6.73922e-11
3.71654e-10
-4.29303e-11
3.89156e-10
-1.92133e-11
3.90108e-10
3.42248e-12
3.75636e-10
2.45611e-11
3.47249e-10
4.36823e-11
3.0692e-10
6.01303e-11
2.57203e-10
7.30754e-11
2.01354e-10
8.14756e-11
1.43468e-10
8.40548e-11
8.8543e-11
7.9334e-11
4.24147e-11
6.57797e-11
1.12193e-11
4.2423e-11
1.19814e-11
1.99645e-11
-3.27886e-11
6.60198e-11
-8.95046e-11
1.28652e-10
-1.28658e-10
1.99407e-10
-1.49066e-10
2.706e-10
-1.52735e-10
3.35566e-10
-1.42359e-10
3.88723e-10
-1.20589e-10
4.25499e-10
-8.97953e-11
4.42238e-10
-5.19665e-11
4.3608e-10
-8.73038e-12
4.04816e-10
3.85868e-11
3.46784e-10
8.89033e-11
2.60785e-10
1.41344e-10
1.46005e-10
1.95201e-10
1.93488e-12
2.4989e-10
-1.71675e-10
3.04931e-10
-3.74859e-10
3.59932e-10
-6.07462e-10
4.14566e-10
-8.69185e-10
4.68565e-10
-1.1596e-09
5.21702e-10
-1.47818e-09
5.7379e-10
-1.8243e-09
6.24672e-10
-2.19726e-09
6.7422e-10
-2.59631e-09
7.22324e-10
-3.02063e-09
7.68894e-10
-3.46938e-09
8.13857e-10
-3.94165e-09
8.5715e-10
-4.43654e-09
8.98726e-10
-4.9531e-09
9.38543e-10
-5.49036e-09
9.76569e-10
-6.04736e-09
1.01278e-09
-6.62309e-09
1.04716e-09
-7.21657e-09
1.0797e-09
-7.82679e-09
1.11038e-09
-8.45274e-09
1.13921e-09
-9.09342e-09
1.16618e-09
-9.74782e-09
1.1913e-09
-1.04149e-08
1.21458e-09
-1.10938e-08
1.23602e-09
-1.17833e-08
1.25564e-09
-1.24827e-08
1.27345e-09
-1.31907e-08
1.28946e-09
-1.39066e-08
1.30369e-09
-1.46293e-08
1.31617e-09
-1.53578e-08
1.3269e-09
-1.60913e-08
1.33592e-09
-1.68288e-08
1.34324e-09
-1.75694e-08
1.34888e-09
-1.83122e-08
1.35287e-09
-1.90563e-08
1.35524e-09
-1.98008e-08
1.356e-09
-2.05448e-08
1.35519e-09
-2.12876e-08
1.35282e-09
-2.20282e-08
1.34894e-09
-2.27659e-08
1.34355e-09
-2.34998e-08
1.3367e-09
-2.42292e-08
1.3284e-09
-2.49533e-08
1.31869e-09
-2.56712e-08
1.3076e-09
-2.63824e-08
1.29514e-09
-2.70859e-08
1.28136e-09
-2.77812e-08
1.26628e-09
-2.84676e-08
1.24993e-09
-2.91442e-08
1.23233e-09
-2.98106e-08
1.21353e-09
-3.0466e-08
1.19354e-09
-3.11097e-08
1.1724e-09
-3.17413e-08
1.15013e-09
-3.236e-08
1.12677e-09
-3.29653e-08
1.10235e-09
-3.35567e-08
1.07689e-09
-3.41335e-08
1.05042e-09
-3.46952e-08
1.02299e-09
-3.52414e-08
9.94608e-10
-3.57714e-08
9.65315e-10
-3.62849e-08
9.35139e-10
-3.67814e-08
9.04111e-10
-3.72604e-08
8.72261e-10
-3.77214e-08
8.39621e-10
-3.81641e-08
8.06221e-10
-3.8588e-08
7.72093e-10
-3.89929e-08
7.37267e-10
-3.93782e-08
7.01775e-10
-3.97437e-08
6.65648e-10
-4.0089e-08
6.28919e-10
-4.04138e-08
5.91619e-10
-4.07178e-08
5.53779e-10
-4.10008e-08
5.15432e-10
-4.12624e-08
4.76611e-10
-4.15025e-08
4.37347e-10
-4.17208e-08
3.97674e-10
-4.19171e-08
3.57625e-10
-4.20912e-08
3.17232e-10
-4.22429e-08
2.7653e-10
-4.23722e-08
2.35551e-10
-4.24788e-08
1.94329e-10
-4.25626e-08
1.52899e-10
-4.26236e-08
1.11296e-10
-4.26616e-08
6.95524e-11
-4.26767e-08
2.77043e-11
-4.26688e-08
-1.42135e-11
-4.26378e-08
-5.61657e-11
-4.25838e-08
-9.81166e-11
-4.25067e-08
-1.40031e-10
-4.24067e-08
-1.81872e-10
-4.22838e-08
-2.23603e-10
-4.2138e-08
-2.6519e-10
-4.19695e-08
-3.06593e-10
-4.17784e-08
-3.47778e-10
-4.15648e-08
-3.88706e-10
-4.13289e-08
-4.29339e-10
-4.10709e-08
-4.69642e-10
-4.07909e-08
-5.09575e-10
-4.04893e-08
-5.49101e-10
-4.01662e-08
-5.88181e-10
-3.98219e-08
-6.26778e-10
-3.94568e-08
-6.64853e-10
-3.9071e-08
-7.02368e-10
-3.8665e-08
-7.39283e-10
-3.8239e-08
-7.75561e-10
-3.77936e-08
-8.11162e-10
-3.7329e-08
-8.46048e-10
-3.68456e-08
-8.8018e-10
-3.6344e-08
-9.13519e-10
-3.58245e-08
-9.46026e-10
-3.52877e-08
-9.77663e-10
-3.4734e-08
-1.00839e-09
-3.4164e-08
-1.03817e-09
-3.35782e-08
-1.06697e-09
-3.29772e-08
-1.09474e-09
-3.23615e-08
-1.12145e-09
-3.17318e-08
-1.14707e-09
-3.10886e-08
-1.17154e-09
-3.04327e-08
-1.19485e-09
-2.97646e-08
-1.21694e-09
-2.90852e-08
-1.23779e-09
-2.8395e-08
-1.25735e-09
-2.76948e-08
-1.2756e-09
-2.69853e-08
-1.2925e-09
-2.62673e-08
-1.30801e-09
-2.55417e-08
-1.32211e-09
-2.4809e-08
-1.33475e-09
-2.40703e-08
-1.34591e-09
-2.33263e-08
-1.35555e-09
-2.25778e-08
-1.36365e-09
-2.18258e-08
-1.37017e-09
-2.10711e-08
-1.37509e-09
-2.03146e-08
-1.37837e-09
-1.95572e-08
-1.38e-09
-1.87998e-08
-1.37995e-09
-1.80434e-08
-1.37819e-09
-1.72888e-08
-1.37469e-09
-1.65372e-08
-1.36945e-09
-1.57894e-08
-1.36243e-09
-1.50464e-08
-1.35362e-09
-1.43092e-08
-1.343e-09
-1.35788e-08
-1.33056e-09
-1.28562e-08
-1.31628e-09
-1.21424e-08
-1.30015e-09
-1.14385e-08
-1.28216e-09
-1.07454e-08
-1.2623e-09
-1.00641e-08
-1.24057e-09
-9.39579e-09
-1.21696e-09
-8.74134e-09
-1.19148e-09
-8.10182e-09
-1.16412e-09
-7.47824e-09
-1.1349e-09
-6.87159e-09
-1.10382e-09
-6.2829e-09
-1.0709e-09
-5.71313e-09
-1.03615e-09
-5.16328e-09
-9.99597e-10
-4.63428e-09
-9.61268e-10
-4.12709e-09
-9.21196e-10
-3.64262e-09
-8.79424e-10
-3.18176e-09
-8.35998e-10
-2.74535e-09
-7.90973e-10
-2.33421e-09
-7.44417e-10
-1.94912e-09
-6.96409e-10
-1.59079e-09
-6.47039e-10
-1.25988e-09
-5.96414e-10
-9.56972e-10
-5.44658e-10
-6.82572e-10
-4.91918e-10
-4.37084e-10
-4.38368e-10
-2.20803e-10
-3.84209e-10
-3.38857e-11
-3.2968e-10
1.23668e-10
-2.75065e-10
2.52044e-10
-2.20702e-10
3.51648e-10
-1.66996e-10
4.23151e-10
-1.14433e-10
4.67537e-10
-6.35995e-11
4.8617e-10
-1.52087e-11
4.80863e-10
2.98697e-11
4.53972e-10
7.05743e-11
4.08494e-10
1.05606e-10
3.48188e-10
1.33377e-10
2.77685e-10
1.51978e-10
2.02578e-10
1.59165e-10
1.29448e-10
1.52465e-10
6.57765e-11
1.29459e-10
1.9643e-11
8.85538e-11
3.16246e-11
2.43673e-11
-5.71477e-11
7.8391e-11
-1.43526e-10
1.49207e-10
-1.99492e-10
2.26533e-10
-2.26402e-10
3.01441e-10
-2.27639e-10
3.66204e-10
-2.07116e-10
4.14262e-10
-1.68647e-10
4.40135e-10
-1.15676e-10
4.39341e-10
-5.1175e-11
4.08272e-10
2.23458e-11
3.44075e-10
1.02788e-10
2.4456e-10
1.88415e-10
1.08106e-10
2.77795e-10
-6.64352e-11
3.69743e-10
-2.79813e-10
4.6327e-10
-5.32438e-10
5.57557e-10
-8.24429e-10
6.51922e-10
-1.15566e-09
7.45797e-10
-1.5258e-09
8.38706e-10
-1.93434e-09
9.30248e-10
-2.38064e-09
1.02009e-09
-2.86391e-09
1.10795e-09
-3.38328e-09
1.19358e-09
-3.93775e-09
1.2768e-09
-4.5263e-09
1.35744e-09
-5.14779e-09
1.43535e-09
-5.80107e-09
1.51043e-09
-6.48491e-09
1.58257e-09
-7.19808e-09
1.65171e-09
-7.93929e-09
1.71778e-09
-8.70724e-09
1.78073e-09
-9.50061e-09
1.84053e-09
-1.03181e-08
1.89715e-09
-1.11582e-08
1.95057e-09
-1.20198e-08
2.00077e-09
-1.29014e-08
2.04777e-09
-1.38017e-08
2.09156e-09
-1.47192e-08
2.13215e-09
-1.56527e-08
2.16954e-09
-1.66009e-08
2.20377e-09
-1.75623e-08
2.23485e-09
-1.85356e-08
2.2628e-09
-1.95196e-08
2.28765e-09
-2.05128e-08
2.30944e-09
-2.15141e-08
2.32818e-09
-2.25221e-08
2.34393e-09
-2.35356e-08
2.35671e-09
-2.45533e-08
2.36657e-09
-2.55739e-08
2.37354e-09
-2.65964e-08
2.37767e-09
-2.76194e-08
2.37899e-09
-2.86417e-08
2.37755e-09
-2.96623e-08
2.3734e-09
-3.06799e-08
2.36658e-09
-3.16935e-08
2.35714e-09
-3.2702e-08
2.34512e-09
-3.37041e-08
2.33058e-09
-3.4699e-08
2.31356e-09
-3.56855e-08
2.2941e-09
-3.66626e-08
2.27227e-09
-3.76294e-08
2.2481e-09
-3.85848e-08
2.22166e-09
-3.95278e-08
2.19298e-09
-4.04576e-08
2.16212e-09
-4.13732e-08
2.12914e-09
-4.22738e-08
2.09408e-09
-4.31583e-08
2.05699e-09
-4.40262e-08
2.01793e-09
-4.48763e-08
1.97695e-09
-4.57081e-08
1.9341e-09
-4.65206e-08
1.88944e-09
-4.73132e-08
1.84301e-09
-4.80851e-08
1.79487e-09
-4.88356e-08
1.74507e-09
-4.95639e-08
1.69367e-09
-5.02695e-08
1.64071e-09
-5.09516e-08
1.58626e-09
-5.16098e-08
1.53037e-09
-5.22432e-08
1.47309e-09
-5.28515e-08
1.41447e-09
-5.3434e-08
1.35457e-09
-5.39901e-08
1.29345e-09
-5.45195e-08
1.23116e-09
-5.50216e-08
1.16775e-09
-5.5496e-08
1.10329e-09
-5.59422e-08
1.03782e-09
-5.63598e-08
9.71409e-10
-5.67485e-08
9.04105e-10
-5.71079e-08
8.35968e-10
-5.74376e-08
7.67055e-10
-5.77373e-08
6.97424e-10
-5.80068e-08
6.27134e-10
-5.82458e-08
5.56242e-10
-5.84541e-08
4.84806e-10
-5.86315e-08
4.12887e-10
-5.87777e-08
3.40543e-10
-5.88926e-08
2.67836e-10
-5.89761e-08
1.94824e-10
-5.90282e-08
1.2157e-10
-5.90486e-08
4.81329e-11
-5.90374e-08
-2.54241e-11
-5.89945e-08
-9.90392e-11
-5.892e-08
-1.7265e-10
-5.88138e-08
-2.46194e-10
-5.86761e-08
-3.19607e-10
-5.85068e-08
-3.92826e-10
-5.83063e-08
-4.65786e-10
-5.80744e-08
-5.38424e-10
-5.78115e-08
-6.10674e-10
-5.75178e-08
-6.8247e-10
-5.71934e-08
-7.53749e-10
-5.68386e-08
-8.24442e-10
-5.64536e-08
-8.94484e-10
-5.60389e-08
-9.63809e-10
-5.55948e-08
-1.03235e-09
-5.51215e-08
-1.10004e-09
-5.46196e-08
-1.16681e-09
-5.40893e-08
-1.23259e-09
-5.35313e-08
-1.29732e-09
-5.29459e-08
-1.36093e-09
-5.23337e-08
-1.42335e-09
-5.16953e-08
-1.48451e-09
-5.10311e-08
-1.54435e-09
-5.03418e-08
-1.60279e-09
-4.96281e-08
-1.65977e-09
-4.88905e-08
-1.71522e-09
-4.81298e-08
-1.76908e-09
-4.73467e-08
-1.82128e-09
-4.6542e-08
-1.87174e-09
-4.57163e-08
-1.92041e-09
-4.48705e-08
-1.96721e-09
-4.40055e-08
-2.01209e-09
-4.31221e-08
-2.05497e-09
-4.22211e-08
-2.0958e-09
-4.13036e-08
-2.1345e-09
-4.03703e-08
-2.17102e-09
-3.94224e-08
-2.20529e-09
-3.84607e-08
-2.23726e-09
-3.74864e-08
-2.26686e-09
-3.65004e-08
-2.29403e-09
-3.55038e-08
-2.31871e-09
-3.44977e-08
-2.34085e-09
-3.34832e-08
-2.36039e-09
-3.24615e-08
-2.37728e-09
-3.14336e-08
-2.39147e-09
-3.04009e-08
-2.4029e-09
-2.93645e-08
-2.41152e-09
-2.83255e-08
-2.4173e-09
-2.72854e-08
-2.42017e-09
-2.62452e-08
-2.4201e-09
-2.52064e-08
-2.41704e-09
-2.41701e-08
-2.41096e-09
-2.31377e-08
-2.40183e-09
-2.21106e-08
-2.38959e-09
-2.10899e-08
-2.37424e-09
-2.00772e-08
-2.35572e-09
-1.90738e-08
-2.33403e-09
-1.80809e-08
-2.30913e-09
-1.71e-08
-2.28101e-09
-1.61325e-08
-2.24966e-09
-1.51798e-08
-2.21505e-09
-1.42432e-08
-2.17719e-09
-1.3324e-08
-2.13607e-09
-1.24238e-08
-2.0917e-09
-1.15439e-08
-2.04407e-09
-1.06856e-08
-1.99322e-09
-9.85023e-09
-1.93915e-09
-9.03924e-09
-1.88189e-09
-8.25391e-09
-1.82147e-09
-7.49556e-09
-1.75795e-09
-6.76545e-09
-1.69138e-09
-6.06484e-09
-1.62181e-09
-5.39494e-09
-1.54932e-09
-4.75692e-09
-1.47401e-09
-4.15192e-09
-1.39598e-09
-3.58099e-09
-1.31534e-09
-3.04515e-09
-1.23225e-09
-2.54532e-09
-1.14687e-09
-2.08233e-09
-1.0594e-09
-1.65694e-09
-9.70053e-10
-1.26975e-09
-8.79103e-10
-9.21266e-10
-7.86856e-10
-6.11805e-10
-6.9367e-10
-3.41515e-10
-5.9997e-10
-1.10326e-10
-5.06253e-10
8.20809e-11
-4.13108e-10
2.36319e-10
-3.21233e-10
3.53343e-10
-2.31457e-10
4.3451e-10
-1.44768e-10
4.81652e-10
-6.23524e-11
4.97152e-10
1.43689e-11
4.84039e-10
8.36897e-11
4.46077e-10
1.43567e-10
3.87883e-10
1.91573e-10
3.1501e-10
2.24854e-10
2.34025e-10
2.4015e-10
1.52569e-10
2.33921e-10
7.93777e-11
2.02651e-10
2.44074e-11
1.43521e-10
5.60343e-11
2.57208e-11
-8.28663e-11
8.17661e-11
-1.99572e-10
1.53188e-10
-2.70922e-10
2.28272e-10
-3.01492e-10
2.97133e-10
-2.96499e-10
3.51312e-10
-2.61292e-10
3.83595e-10
-2.00935e-10
3.87905e-10
-1.19989e-10
3.59181e-10
-2.24482e-11
2.93277e-10
8.82519e-11
1.86866e-10
2.09196e-10
3.73489e-11
3.3793e-10
-1.57249e-10
4.72395e-10
-3.98362e-10
6.10858e-10
-6.86954e-10
7.51862e-10
-1.02359e-09
8.94187e-10
-1.40847e-09
1.03681e-09
-1.84152e-09
1.17885e-09
-2.32241e-09
1.3196e-09
-2.85058e-09
1.45842e-09
-3.42528e-09
1.59479e-09
-4.04562e-09
1.72828e-09
-4.71056e-09
1.85852e-09
-5.41893e-09
1.98518e-09
-6.1695e-09
2.108e-09
-6.96091e-09
2.22676e-09
-7.79175e-09
2.34127e-09
-8.66056e-09
2.45138e-09
-9.56582e-09
2.55696e-09
-1.05059e-08
2.65791e-09
-1.14794e-08
2.75415e-09
-1.24844e-08
2.8456e-09
-1.35195e-08
2.93223e-09
-1.4583e-08
3.014e-09
-1.56731e-08
3.09088e-09
-1.67882e-08
3.16287e-09
-1.79266e-08
3.22997e-09
-1.90866e-08
3.29218e-09
-2.02666e-08
3.34952e-09
-2.14648e-08
3.40201e-09
-2.26797e-08
3.44968e-09
-2.39094e-08
3.49256e-09
-2.51525e-08
3.53069e-09
-2.64071e-08
3.56412e-09
-2.76718e-08
3.59289e-09
-2.8945e-08
3.61706e-09
-3.02249e-08
3.63667e-09
-3.15101e-08
3.65178e-09
-3.27991e-08
3.66246e-09
-3.40901e-08
3.66876e-09
-3.53819e-08
3.67075e-09
-3.66729e-08
3.6685e-09
-3.79615e-08
3.66207e-09
-3.92465e-08
3.65153e-09
-4.05263e-08
3.63695e-09
-4.17996e-08
3.6184e-09
-4.30649e-08
3.59595e-09
-4.43211e-08
3.56969e-09
-4.55666e-08
3.53968e-09
-4.68004e-08
3.506e-09
-4.8021e-08
3.46872e-09
-4.92273e-08
3.42792e-09
-5.0418e-08
3.38368e-09
-5.15919e-08
3.33608e-09
-5.2748e-08
3.2852e-09
-5.3885e-08
3.23111e-09
-5.50019e-08
3.17389e-09
-5.60976e-08
3.11362e-09
-5.7171e-08
3.05039e-09
-5.82212e-08
2.98428e-09
-5.92471e-08
2.91535e-09
-6.02478e-08
2.84371e-09
-6.12224e-08
2.76942e-09
-6.21699e-08
2.69257e-09
-6.30895e-08
2.61325e-09
-6.39803e-08
2.53153e-09
-6.48415e-08
2.4475e-09
-6.56724e-08
2.36123e-09
-6.64721e-08
2.27283e-09
-6.724e-08
2.18236e-09
-6.79753e-08
2.08992e-09
-6.86775e-08
1.99558e-09
-6.93457e-08
1.89944e-09
-6.99796e-08
1.80157e-09
-7.05783e-08
1.70207e-09
-7.11416e-08
1.60103e-09
-7.16687e-08
1.49852e-09
-7.21592e-08
1.39464e-09
-7.26127e-08
1.28948e-09
-7.30288e-08
1.18311e-09
-7.3407e-08
1.07564e-09
-7.3747e-08
9.67156e-10
-7.40485e-08
8.57742e-10
-7.43112e-08
7.4749e-10
-7.45348e-08
6.36494e-10
-7.47191e-08
5.24845e-10
-7.48639e-08
4.12636e-10
-7.4969e-08
2.9996e-10
-7.50344e-08
1.86912e-10
-7.50598e-08
7.35853e-11
-7.50453e-08
-3.99239e-11
-7.49909e-08
-1.5352e-10
-7.48964e-08
-2.67106e-10
-7.4762e-08
-3.80585e-10
-7.45878e-08
-4.93859e-10
-7.43738e-08
-6.0683e-10
-7.41201e-08
-7.19398e-10
-7.38271e-08
-8.31464e-10
-7.34949e-08
-9.42928e-10
-7.31236e-08
-1.05369e-09
-7.27137e-08
-1.16364e-09
-7.22655e-08
-1.27269e-09
-7.17792e-08
-1.38074e-09
-7.12554e-08
-1.48767e-09
-7.06943e-08
-1.59338e-09
-7.00966e-08
-1.69778e-09
-6.94627e-08
-1.80076e-09
-6.8793e-08
-1.90221e-09
-6.80883e-08
-2.00203e-09
-6.73492e-08
-2.10011e-09
-6.65762e-08
-2.19636e-09
-6.577e-08
-2.29066e-09
-6.49314e-08
-2.38292e-09
-6.40612e-08
-2.47302e-09
-6.31601e-08
-2.56087e-09
-6.2229e-08
-2.64635e-09
-6.12687e-08
-2.72937e-09
-6.02801e-08
-2.80983e-09
-5.92643e-08
-2.88761e-09
-5.8222e-08
-2.96262e-09
-5.71545e-08
-3.03476e-09
-5.60627e-08
-3.10392e-09
-5.49476e-08
-3.17001e-09
-5.38105e-08
-3.23292e-09
-5.26524e-08
-3.29257e-09
-5.14746e-08
-3.34884e-09
-5.02782e-08
-3.40165e-09
-4.90646e-08
-3.45091e-09
-4.78349e-08
-3.49651e-09
-4.65906e-08
-3.53838e-09
-4.53329e-08
-3.57642e-09
-4.40632e-08
-3.61054e-09
-4.27829e-08
-3.64066e-09
-4.14935e-08
-3.6667e-09
-4.01964e-08
-3.68858e-09
-3.88931e-08
-3.70621e-09
-3.75851e-08
-3.71953e-09
-3.62739e-08
-3.72846e-09
-3.49611e-08
-3.73294e-09
-3.36483e-08
-3.73289e-09
-3.23371e-08
-3.72826e-09
-3.10291e-08
-3.71898e-09
-2.97259e-08
-3.705e-09
-2.84292e-08
-3.68628e-09
-2.71407e-08
-3.66275e-09
-2.58621e-08
-3.63439e-09
-2.45949e-08
-3.60115e-09
-2.33411e-08
-3.563e-09
-2.21022e-08
-3.51992e-09
-2.088e-08
-3.47187e-09
-1.96761e-08
-3.41886e-09
-1.84925e-08
-3.36087e-09
-1.73306e-08
-3.2979e-09
-1.61924e-08
-3.22996e-09
-1.50794e-08
-3.15706e-09
-1.39934e-08
-3.07924e-09
-1.2936e-08
-2.99652e-09
-1.19089e-08
-2.90895e-09
-1.09138e-08
-2.81659e-09
-9.95226e-09
-2.71951e-09
-9.02583e-09
-2.61781e-09
-8.13606e-09
-2.51158e-09
-7.28444e-09
-2.40095e-09
-6.47238e-09
-2.28607e-09
-5.70126e-09
-2.1671e-09
-4.97236e-09
-2.04424e-09
-4.2869e-09
-1.91772e-09
-3.64596e-09
-1.78781e-09
-3.05055e-09
-1.65481e-09
-2.50153e-09
-1.51907e-09
-1.99961e-09
-1.38102e-09
-1.54533e-09
-1.24113e-09
-1.13904e-09
-1.09996e-09
-7.80845e-10
-9.58165e-10
-4.70602e-10
-8.16498e-10
-2.07856e-10
-6.75854e-10
8.19672e-12
-5.37283e-10
1.78763e-10
-4.02021e-10
3.05517e-10
-2.71524e-10
3.90673e-10
-1.47513e-10
4.37063e-10
-3.20226e-11
4.48218e-10
7.25359e-11
4.28462e-10
1.63326e-10
3.83002e-10
2.37036e-10
3.18014e-10
2.89843e-10
2.40731e-10
3.17428e-10
1.5956e-10
3.15091e-10
8.42318e-11
2.7798e-10
2.61965e-11
2.01555e-10
8.22325e-11
2.47871e-11
-1.07662e-10
7.78593e-11
-2.52642e-10
1.43316e-10
-3.36377e-10
2.08558e-10
-3.66732e-10
2.63052e-10
-3.50993e-10
2.97843e-10
-2.96088e-10
3.05303e-10
-2.08397e-10
2.78957e-10
-9.36386e-11
2.13362e-10
4.31514e-11
1.04009e-10
1.97603e-10
-5.27623e-11
3.65963e-10
-2.59857e-10
5.45026e-10
-5.19522e-10
7.32063e-10
-8.33414e-10
9.24751e-10
-1.20268e-09
1.12112e-09
-1.628e-09
1.31951e-09
-2.10969e-09
1.51849e-09
-2.64769e-09
1.71686e-09
-3.24169e-09
1.9136e-09
-3.89109e-09
2.10782e-09
-4.59509e-09
2.29879e-09
-5.35267e-09
2.48587e-09
-6.16268e-09
2.66852e-09
-7.0238e-09
2.8463e-09
-7.93461e-09
3.01881e-09
-8.89356e-09
3.18572e-09
-9.89904e-09
3.34675e-09
-1.09494e-08
3.50169e-09
-1.20427e-08
3.65033e-09
-1.31773e-08
3.79252e-09
-1.43513e-08
3.92813e-09
-1.55628e-08
4.05706e-09
-1.68098e-08
4.17923e-09
-1.80904e-08
4.2946e-09
-1.94026e-08
4.40311e-09
-2.07444e-08
4.50474e-09
-2.2114e-08
4.5995e-09
-2.35092e-08
4.68737e-09
-2.4928e-08
4.76838e-09
-2.63686e-08
4.84256e-09
-2.78288e-08
4.90993e-09
-2.93068e-08
4.97054e-09
-3.08006e-08
5.02445e-09
-3.23081e-08
5.07171e-09
-3.38276e-08
5.11238e-09
-3.53571e-08
5.14652e-09
-3.68947e-08
5.17423e-09
-3.84384e-08
5.19556e-09
-3.99866e-08
5.21061e-09
-4.15373e-08
5.21946e-09
-4.30887e-08
5.22219e-09
-4.46391e-08
5.2189e-09
-4.61867e-08
5.20969e-09
-4.77299e-08
5.19464e-09
-4.92668e-08
5.17385e-09
-5.07958e-08
5.14743e-09
-5.23153e-08
5.11548e-09
-5.38237e-08
5.0781e-09
-5.53194e-08
5.03539e-09
-5.68009e-08
4.98747e-09
-5.82666e-08
4.93443e-09
-5.97151e-08
4.87639e-09
-6.11449e-08
4.81346e-09
-6.25545e-08
4.74574e-09
-6.39427e-08
4.67335e-09
-6.5308e-08
4.5964e-09
-6.66491e-08
4.515e-09
-6.79647e-08
4.42927e-09
-6.92536e-08
4.33931e-09
-7.05146e-08
4.24525e-09
-7.17464e-08
4.14719e-09
-7.2948e-08
4.04526e-09
-7.41181e-08
3.93957e-09
-7.52558e-08
3.83023e-09
-7.63599e-08
3.71737e-09
-7.74295e-08
3.60109e-09
-7.84635e-08
3.48152e-09
-7.94611e-08
3.35878e-09
-8.04212e-08
3.23299e-09
-8.13431e-08
3.10426e-09
-8.22259e-08
2.97272e-09
-8.30689e-08
2.83849e-09
-8.38711e-08
2.70169e-09
-8.4632e-08
2.56243e-09
-8.53507e-08
2.42085e-09
-8.60268e-08
2.27707e-09
-8.66595e-08
2.13121e-09
-8.72482e-08
1.98339e-09
-8.77925e-08
1.83375e-09
-8.82918e-08
1.68241e-09
-8.87456e-08
1.52949e-09
-8.91536e-08
1.37512e-09
-8.95153e-08
1.21944e-09
-8.98304e-08
1.06257e-09
-9.00985e-08
9.04639e-10
-9.03195e-08
7.45784e-10
-9.0493e-08
5.86136e-10
-9.06188e-08
4.25827e-10
-9.06969e-08
2.6499e-10
-9.07271e-08
1.03762e-10
-9.07093e-08
-5.77222e-11
-9.06435e-08
-2.19326e-10
-9.05297e-08
-3.80911e-10
-9.03679e-08
-5.42339e-10
-9.01583e-08
-7.03471e-10
-8.9901e-08
-8.64167e-10
-8.95961e-08
-1.02428e-09
-8.92439e-08
-1.18368e-09
-8.88446e-08
-1.34222e-09
-8.83985e-08
-1.49975e-09
-8.7906e-08
-1.65613e-09
-8.73675e-08
-1.81122e-09
-8.67834e-08
-1.96487e-09
-8.61541e-08
-2.11693e-09
-8.54802e-08
-2.26726e-09
-8.47623e-08
-2.4157e-09
-8.40009e-08
-2.56213e-09
-8.31968e-08
-2.70637e-09
-8.23505e-08
-2.84829e-09
-8.14629e-08
-2.98774e-09
-8.05347e-08
-3.12458e-09
-7.95667e-08
-3.25864e-09
-7.85598e-08
-3.38978e-09
-7.7515e-08
-3.51786e-09
-7.64331e-08
-3.64273e-09
-7.53152e-08
-3.76424e-09
-7.41624e-08
-3.88224e-09
-7.29756e-08
-3.99659e-09
-7.17561e-08
-4.10713e-09
-7.0505e-08
-4.21374e-09
-6.92235e-08
-4.31625e-09
-6.79128e-08
-4.41454e-09
-6.65744e-08
-4.50845e-09
-6.52095e-08
-4.59786e-09
-6.38194e-08
-4.68261e-09
-6.24057e-08
-4.76258e-09
-6.09697e-08
-4.83762e-09
-5.9513e-08
-4.90762e-09
-5.80371e-08
-4.97243e-09
-5.65436e-08
-5.03193e-09
-5.5034e-08
-5.08599e-09
-5.351e-08
-5.1345e-09
-5.19734e-08
-5.17732e-09
-5.04257e-08
-5.21436e-09
-4.88688e-08
-5.24549e-09
-4.73044e-08
-5.2706e-09
-4.57344e-08
-5.28959e-09
-4.41605e-08
-5.30237e-09
-4.25846e-08
-5.30882e-09
-4.10086e-08
-5.30887e-09
-3.94344e-08
-5.30242e-09
-3.7864e-08
-5.2894e-09
-3.62993e-08
-5.26972e-09
-3.47423e-08
-5.24332e-09
-3.31949e-08
-5.21013e-09
-3.16592e-08
-5.1701e-09
-3.01372e-08
-5.12317e-09
-2.86308e-08
-5.06931e-09
-2.71423e-08
-5.00848e-09
-2.56735e-08
-4.94065e-09
-2.42266e-08
-4.86581e-09
-2.28035e-08
-4.78395e-09
-2.14063e-08
-4.69507e-09
-2.00371e-08
-4.5992e-09
-1.86978e-08
-4.49635e-09
-1.73904e-08
-4.38657e-09
-1.6117e-08
-4.26992e-09
-1.48795e-08
-4.14647e-09
-1.36798e-08
-4.0163e-09