/*--------------------------------*- C++ -*----------------------------------*\
  =========                 |
  \\      /  F ield         | OpenFOAM: The Open Source CFD Toolbox
   \\    /   O peration     | Website:  https://openfoam.org
    \\  /    A nd           | Version:  7
     \\/     M anipulation  |
\*---------------------------------------------------------------------------*/
FoamFile
{
    version     2.0;
    format      ascii;
    class       volScalarField;
    location    "11.5";
    object      rho;
}
// * * * * * * * * * * * * * * * * * * * * * * * * * * * * * * * * * * * * * //

dimensions      [1 -3 0 0 0 0 0];

internalField   nonuniform List<scalar> 
2413
(
1.51765
1.51516
1.51272
1.51043
1.50826
1.50619
1.50422
1.50226
1.50036
1.4985
1.49669
1.49514
1.49379
1.49252
1.49128
1.49004
1.48876
1.48744
1.48604
1.48462
1.48328
1.482
1.48068
1.47952
1.47849
1.47745
1.47659
1.47567
1.47451
1.47318
1.47184
1.47046
1.469
1.46756
1.46607
1.46437
1.46248
1.46054
1.45871
1.45686
1.4543
1.45207
1.45108
1.44967
1.44811
1.44695
1.4461
1.44502
1.44395
1.44326
1.44283
1.44252
1.44227
1.44214
1.44219
1.44268
1.44334
1.44368
1.44413
1.44482
1.4455
1.44594
1.44632
1.44667
1.44699
1.44727
1.44747
1.44768
1.44769
1.44748
1.44706
1.44654
1.44604
1.44561
1.44545
1.44548
1.44564
1.44609
1.44666
1.4473
1.44821
1.44884
1.4491
1.44931
1.44948
1.44953
1.44936
1.44934
1.44951
1.44933
1.4492
1.44948
1.44928
1.44914
1.44938
1.63932
1.65482
1.65972
1.65958
1.65822
1.65486
1.64927
1.6416
1.63319
1.62475
1.61672
1.60887
1.60231
1.59684
1.59135
1.58633
1.58151
1.57716
1.57361
1.57009
1.56665
1.5635
1.56063
1.55773
1.55466
1.55155
1.54835
1.54511
1.54182
1.53842
1.53525
1.53233
1.52949
1.52687
1.52426
1.52167
1.51917
1.5168
1.51447
1.51226
1.51015
1.50821
1.50634
1.50447
1.50261
1.50079
1.49904
1.49734
1.49568
1.49426
1.49309
1.49197
1.49081
1.48961
1.48838
1.48705
1.48562
1.48422
1.48282
1.48136
1.4801
1.47897
1.47781
1.47678
1.47568
1.47437
1.47295
1.47154
1.47009
1.46862
1.4672
1.46573
1.46414
1.46242
1.46065
1.45899
1.45711
1.4546
1.45301
1.45189
1.45065
1.44955
1.4488
1.44811
1.44707
1.44626
1.44585
1.44563
1.44546
1.44532
1.44528
1.44545
1.44601
1.44651
1.44691
1.44743
1.44805
1.44832
1.44831
1.44831
1.44829
1.44823
1.44823
1.44827
1.44839
1.44834
1.44814
1.44785
1.44748
1.44707
1.44661
1.44631
1.44626
1.44629
1.44648
1.44691
1.44746
1.44824
1.44903
1.44928
1.44957
1.44985
1.44982
1.4496
1.44964
1.44955
1.44907
1.44905
1.44909
1.44875
1.4486
1.44897
1.63327
1.6505
1.66027
1.66109
1.66029
1.65762
1.65271
1.64559
1.63732
1.62885
1.62069
1.61258
1.60571
1.59998
1.5942
1.589
1.58402
1.57945
1.57571
1.57193
1.56823
1.56489
1.5618
1.55868
1.55545
1.55217
1.5488
1.54542
1.54202
1.53853
1.53543
1.53252
1.52955
1.5268
1.52411
1.52154
1.51911
1.51684
1.51469
1.51263
1.51049
1.50849
1.50678
1.50507
1.50333
1.50152
1.49974
1.49821
1.49678
1.49549
1.49431
1.49314
1.49193
1.49068
1.48937
1.48796
1.48643
1.48493
1.48342
1.48185
1.48058
1.47942
1.47815
1.47693
1.47568
1.47428
1.47283
1.4714
1.47002
1.46871
1.46739
1.46593
1.46437
1.46269
1.46095
1.45938
1.45774
1.45564
1.45434
1.45343
1.45245
1.45152
1.45088
1.45021
1.44931
1.44874
1.44847
1.44831
1.44814
1.44805
1.44809
1.4483
1.44866
1.44905
1.44957
1.45012
1.45051
1.45049
1.45029
1.45009
1.44974
1.4492
1.44886
1.44878
1.44869
1.44849
1.44832
1.44817
1.44801
1.44783
1.44758
1.44733
1.4472
1.44716
1.44718
1.44738
1.44775
1.4483
1.44895
1.44913
1.44936
1.44973
1.44967
1.44952
1.44957
1.44924
1.44882
1.449
1.44885
1.44856
1.44865
1.44967
1.62646
1.64343
1.65801
1.66157
1.66129
1.65949
1.65564
1.64949
1.64173
1.6334
1.62509
1.61661
1.60924
1.60297
1.59675
1.59126
1.58593
1.58107
1.57728
1.5733
1.5694
1.56589
1.56267
1.55947
1.55616
1.55274
1.54934
1.54605
1.54265
1.53919
1.53626
1.53341
1.53044
1.52765
1.52487
1.52222
1.5197
1.51739
1.51531
1.51329
1.51122
1.50922
1.50742
1.50572
1.50408
1.50241
1.5007
1.49925
1.49795
1.49672
1.49553
1.4943
1.49304
1.49171
1.49027
1.48872
1.48705
1.48543
1.48375
1.48215
1.48095
1.47978
1.47843
1.47722
1.47606
1.47474
1.47325
1.47172
1.47021
1.46873
1.4672
1.46562
1.464
1.46235
1.46096
1.45993
1.45884
1.45737
1.45601
1.45516
1.45435
1.45356
1.45294
1.45224
1.4515
1.45108
1.45086
1.45071
1.45057
1.45048
1.45049
1.45057
1.45082
1.45113
1.45151
1.45187
1.45199
1.45192
1.45183
1.45158
1.45113
1.45045
1.4497
1.44925
1.44886
1.44851
1.44833
1.44829
1.44826
1.44824
1.44823
1.44821
1.44817
1.44811
1.44807
1.44813
1.44826
1.44847
1.44882
1.44886
1.44896
1.44929
1.44916
1.44911
1.44919
1.44883
1.44878
1.44904
1.449
1.44947
1.45221
1.46234
1.619
1.63464
1.65114
1.66026
1.66075
1.6598
1.65715
1.6525
1.64587
1.63809
1.6298
1.62105
1.61312
1.60615
1.59937
1.59343
1.58773
1.58251
1.57829
1.57394
1.56988
1.56635
1.56305
1.55982
1.55643
1.5529
1.54946
1.54624
1.54293
1.53974
1.53695
1.53407
1.53117
1.52835
1.5255
1.52292
1.52045
1.51815
1.51619
1.51424
1.5122
1.51022
1.50839
1.50662
1.50488
1.50314
1.5015
1.50017
1.49891
1.49765
1.4964
1.49511
1.49377
1.49234
1.4908
1.48912
1.48724
1.48544
1.48358
1.48195
1.48096
1.48
1.47883
1.47768
1.47655
1.47526
1.47375
1.47218
1.47058
1.46892
1.46727
1.46567
1.46404
1.46234
1.46144
1.46077
1.45977
1.45873
1.45777
1.45689
1.4561
1.4554
1.45477
1.4541
1.45352
1.45317
1.45298
1.45289
1.45285
1.45278
1.45267
1.45269
1.45281
1.45271
1.45266
1.4527
1.45267
1.45262
1.45261
1.45237
1.45196
1.45141
1.45066
1.4499
1.44924
1.44864
1.4484
1.44836
1.44837
1.44842
1.44853
1.44868
1.44882
1.44889
1.44895
1.44892
1.44885
1.44884
1.44884
1.44864
1.44867
1.44872
1.44839
1.44851
1.44854
1.44847
1.44862
1.44918
1.45177
1.46017
1.47868
1.51867
1.61184
1.62512
1.6406
1.65463
1.6591
1.65881
1.65731
1.65422
1.64908
1.64227
1.63437
1.62565
1.61729
1.60959
1.6022
1.59572
1.58945
1.58394
1.57945
1.57477
1.57058
1.56689
1.56333
1.55998
1.55645
1.55278
1.54927
1.54603
1.54282
1.53989
1.53716
1.53437
1.53162
1.52886
1.52613
1.52369
1.5212
1.51898
1.51712
1.51522
1.51321
1.51122
1.50938
1.50756
1.50573
1.50396
1.5023
1.50088
1.49955
1.49822
1.49689
1.49551
1.4941
1.49261
1.491
1.48924
1.48731
1.48542
1.48352
1.48207
1.48102
1.47988
1.47849
1.47732
1.47634
1.47524
1.47398
1.47261
1.47115
1.46961
1.46804
1.4663
1.4645
1.46314
1.46234
1.46164
1.4608
1.46001
1.45926
1.45842
1.45759
1.45689
1.45625
1.45566
1.45522
1.45497
1.45485
1.45484
1.45491
1.45494
1.45483
1.45476
1.45434
1.45382
1.45342
1.45305
1.45287
1.45282
1.45271
1.45243
1.45208
1.45166
1.45111
1.45045
1.44981
1.44914
1.44861
1.44847
1.44848
1.44855
1.44871
1.44891
1.44913
1.44933
1.4494
1.44931
1.44922
1.44912
1.44876
1.44857
1.44855
1.4482
1.44795
1.44821
1.44824
1.44854
1.45072
1.45717
1.4747
1.51075
1.56018
1.62648
1.60637
1.61529
1.62892
1.64337
1.65422
1.65673
1.6565
1.65479
1.65105
1.64549
1.63841
1.63011
1.62159
1.61327
1.60534
1.59828
1.59144
1.58569
1.58089
1.57591
1.57169
1.5678
1.56385
1.56028
1.55656
1.55277
1.54921
1.54603
1.54295
1.54014
1.53744
1.53473
1.53213
1.52944
1.52685
1.52444
1.52187
1.51975
1.51799
1.51612
1.51415
1.51219
1.51031
1.50842
1.50652
1.5047
1.50301
1.50148
1.50003
1.4986
1.49715
1.49567
1.49418
1.49265
1.49102
1.48926
1.4874
1.48553
1.48369
1.48223
1.48104
1.47981
1.4785
1.4774
1.47648
1.47546
1.47429
1.47308
1.4719
1.47055
1.4689
1.46729
1.46582
1.46452
1.46369
1.46288
1.46209
1.46136
1.46059
1.45969
1.45887
1.45821
1.45759
1.45704
1.4567
1.45654
1.45649
1.45661
1.45682
1.45691
1.45674
1.45631
1.45565
1.45485
1.45418
1.45345
1.45291
1.45268
1.45246
1.45215
1.45182
1.45149
1.45117
1.45077
1.45033
1.44988
1.44933
1.4489
1.44879
1.44882
1.44894
1.44911
1.44934
1.44948
1.44943
1.44937
1.44936
1.449
1.44857
1.44856
1.4483
1.44799
1.44805
1.44835
1.44984
1.45498
1.47102
1.50042
1.55081
1.61136
1.66698
1.71923
1.6024
1.60743
1.61703
1.63028
1.64363
1.65242
1.65433
1.65388
1.65169
1.64749
1.64147
1.63395
1.62569
1.61719
1.60903
1.6015
1.59407
1.58797
1.58272
1.57749
1.57324
1.56905
1.56481
1.56103
1.55713
1.55323
1.54965
1.54652
1.54355
1.54076
1.538
1.53541
1.53293
1.5303
1.52779
1.52532
1.52275
1.52077
1.51896
1.517
1.515
1.51303
1.51115
1.50925
1.50734
1.50552
1.5038
1.50216
1.50058
1.49901
1.49739
1.49574
1.49411
1.49248
1.49076
1.48905
1.48738
1.48569
1.48403
1.48266
1.48144
1.48018
1.4789
1.47771
1.47658
1.47546
1.47438
1.47347
1.47242
1.47102
1.4697
1.46866
1.46735
1.46587
1.46492
1.4641
1.46333
1.46258
1.46172
1.46082
1.46014
1.45956
1.45902
1.4585
1.45815
1.45801
1.458
1.45814
1.45826
1.45826
1.45794
1.45744
1.4568
1.45587
1.45495
1.45405
1.45312
1.45252
1.4521
1.45171
1.45143
1.45127
1.45111
1.45092
1.45071
1.45049
1.45019
1.44975
1.44938
1.44924
1.44927
1.44936
1.44943
1.44942
1.44934
1.44928
1.44892
1.44857
1.44859
1.44845
1.44822
1.44841
1.44959
1.45415
1.46673
1.49274
1.54107
1.59712
1.65966
1.70356
1.73024
1.74987
1.59958
1.60184
1.60723
1.61738
1.63049
1.6434
1.65047
1.65132
1.65022
1.64706
1.64219
1.6359
1.62846
1.62048
1.61265
1.60504
1.59748
1.59116
1.58542
1.57995
1.57537
1.57062
1.56615
1.56227
1.55825
1.55438
1.55076
1.54763
1.54471
1.54185
1.53893
1.53634
1.53394
1.5314
1.52893
1.52641
1.52392
1.52195
1.52001
1.51793
1.51592
1.51393
1.51204
1.51017
1.5083
1.50651
1.50478
1.5031
1.50142
1.4997
1.49789
1.49606
1.49427
1.49249
1.49067
1.48893
1.48735
1.48588
1.48449
1.48325
1.48204
1.48074
1.47941
1.47814
1.4769
1.47563
1.4744
1.47325
1.47207
1.47108
1.47047
1.46966
1.46847
1.46717
1.46606
1.46519
1.46441
1.4636
1.46275
1.46208
1.46156
1.46107
1.46066
1.46024
1.45982
1.45955
1.45942
1.45932
1.45914
1.45894
1.45861
1.45807
1.45743
1.45659
1.45554
1.45451
1.45347
1.45255
1.45185
1.45136
1.45117
1.45109
1.45104
1.45098
1.45091
1.45088
1.45079
1.45051
1.45016
1.44985
1.4497
1.44962
1.44949
1.4493
1.44912
1.44868
1.44839
1.44843
1.44849
1.44844
1.44923
1.45319
1.46305
1.48799
1.53057
1.58543
1.64868
1.69171
1.72585
1.74743
1.75614
1.7624
1.59788
1.59822
1.60065
1.60661
1.61738
1.63063
1.64283
1.6477
1.64752
1.64566
1.64184
1.63638
1.62987
1.62283
1.61576
1.60843
1.60105
1.59464
1.58854
1.5829
1.57788
1.57264
1.5681
1.56407
1.55995
1.5562
1.55253
1.54932
1.5464
1.54345
1.54038
1.53774
1.53535
1.53283
1.53035
1.52782
1.5254
1.52332
1.52116
1.51898
1.51694
1.51487
1.51299
1.51121
1.50939
1.50761
1.50589
1.50419
1.50246
1.50062
1.49865
1.49669
1.49475
1.49283
1.49094
1.4892
1.48772
1.48642
1.48521
1.48406
1.48287
1.48157
1.48018
1.47878
1.47739
1.47605
1.47482
1.47355
1.47245
1.47196
1.47138
1.4705
1.46951
1.46845
1.46728
1.46629
1.4655
1.46466
1.46392
1.46344
1.46307
1.46273
1.46248
1.46219
1.46162
1.46113
1.46074
1.46021
1.4597
1.45933
1.4589
1.45826
1.45752
1.45673
1.45578
1.45474
1.45373
1.45277
1.45185
1.45123
1.45101
1.45098
1.45099
1.45104
1.45108
1.45114
1.45112
1.45095
1.4507
1.4504
1.4501
1.44979
1.44946
1.44917
1.44883
1.44831
1.44835
1.44857
1.44917
1.45171
1.46015
1.4826
1.5186
1.57574
1.63285
1.68232
1.72548
1.74287
1.75115
1.75674
1.75891
1.76036
1.59628
1.59568
1.59628
1.59913
1.60574
1.61727
1.6302
1.64087
1.64351
1.64286
1.64046
1.63612
1.63061
1.6245
1.6181
1.61123
1.60432
1.59799
1.5918
1.5861
1.5807
1.57519
1.57062
1.56643
1.56231
1.55862
1.55482
1.55153
1.54857
1.54551
1.54232
1.53967
1.53732
1.53483
1.53232
1.52978
1.52735
1.52503
1.5226
1.5203
1.51819
1.51595
1.51401
1.51226
1.51044
1.50866
1.50695
1.50526
1.50352
1.5016
1.49955
1.49754
1.49552
1.49352
1.4916
1.48984
1.48839
1.48719
1.48606
1.48491
1.48369
1.48236
1.48095
1.4795
1.47809
1.47676
1.47531
1.474
1.47349
1.47311
1.47239
1.47154
1.47071
1.46977
1.46862
1.46759
1.46678
1.46595
1.46528
1.46487
1.4646
1.46441
1.46431
1.46387
1.46325
1.46266
1.46199
1.46114
1.46023
1.45961
1.45894
1.45816
1.45739
1.45666
1.45587
1.45495
1.45399
1.45304
1.45212
1.45145
1.45113
1.45103
1.45105
1.45112
1.45124
1.45133
1.45128
1.45115
1.45098
1.45076
1.45042
1.44987
1.44947
1.44904
1.44864
1.44852
1.44899
1.45105
1.45843
1.4758
1.50988
1.5636
1.61964
1.67831
1.71187
1.7314
1.74534
1.75371
1.75787
1.75919
1.75818
1.75748
1.59478
1.59328
1.59271
1.59375
1.59691
1.6048
1.61617
1.62822
1.63753
1.63886
1.63777
1.63507
1.63094
1.62574
1.61997
1.61356
1.60704
1.60087
1.59483
1.58924
1.58372
1.57826
1.57369
1.56933
1.56522
1.56147
1.55751
1.55417
1.55118
1.54806
1.54478
1.54205
1.53968
1.53717
1.53457
1.53196
1.52946
1.52694
1.52429
1.52191
1.51964
1.51726
1.5153
1.51351
1.51162
1.50979
1.50801
1.50624
1.50443
1.50242
1.50032
1.49832
1.49633
1.49439
1.49251
1.49077
1.48936
1.48812
1.48685
1.48555
1.48424
1.4829
1.48155
1.48023
1.47893
1.47753
1.47595
1.47499
1.4745
1.47405
1.47351
1.47283
1.47206
1.4712
1.47016
1.46912
1.46826
1.46745
1.46678
1.46633
1.46605
1.4659
1.46569
1.46522
1.46466
1.46401
1.4632
1.46209
1.46086
1.45989
1.45895
1.45807
1.45728
1.45659
1.4559
1.45512
1.45427
1.45337
1.45254
1.45195
1.45154
1.45131
1.45127
1.45132
1.45144
1.45147
1.45139
1.45126
1.45106
1.45073
1.45021
1.44969
1.44946
1.44913
1.44921
1.45071
1.45648
1.47024
1.5025
1.54999
1.60894
1.66546
1.70146
1.7289
1.74483
1.75059
1.75511
1.75705
1.75701
1.75569
1.75375
1.75206
1.5937
1.591
1.58925
1.58935
1.59052
1.59431
1.60292
1.61323
1.62597
1.63341
1.63371
1.633
1.63049
1.62615
1.62104
1.61536
1.60933
1.60344
1.59771
1.59229
1.58678
1.58153
1.57701
1.57255
1.56842
1.5645
1.56045
1.55711
1.55402
1.55083
1.54749
1.5446
1.54214
1.53952
1.5368
1.53407
1.53149
1.52882
1.52609
1.52365
1.5212
1.51883
1.51685
1.5149
1.51291
1.511
1.50908
1.50713
1.50516
1.50299
1.50082
1.49884
1.49692
1.49511
1.49334
1.49171
1.49038
1.48913
1.48777
1.48636
1.48494
1.4835
1.48213
1.4809
1.4797
1.4783
1.47705
1.4764
1.47582
1.47524
1.4747
1.47419
1.47355
1.47275
1.4718
1.47084
1.46996
1.46908
1.46833
1.46775
1.46732
1.467
1.46666
1.46623
1.46573
1.4651
1.46422
1.46301
1.46158
1.46032
1.45917
1.45813
1.45724
1.45659
1.45597
1.4553
1.45457
1.45377
1.45305
1.45255
1.45212
1.45183
1.45169
1.45168
1.45169
1.45161
1.45149
1.45132
1.45112
1.45067
1.45016
1.44984
1.44983
1.45083
1.45466
1.46671
1.49467
1.53651
1.59731
1.64996
1.6939
1.7278
1.74039
1.74773
1.75157
1.75259
1.75249
1.75199
1.75091
1.74881
1.74749
1.74652
1.59314
1.58908
1.5857
1.58524
1.5856
1.58676
1.59147
1.59938
1.61051
1.62359
1.62894
1.62946
1.62823
1.62541
1.62172
1.61721
1.61192
1.60634
1.60084
1.59547
1.58992
1.58486
1.58041
1.57592
1.5717
1.56756
1.56351
1.56007
1.55678
1.55349
1.55009
1.54699
1.54434
1.54158
1.53874
1.53592
1.53329
1.5306
1.5279
1.52536
1.52278
1.5205
1.51845
1.51634
1.51426
1.51231
1.51026
1.5081
1.50593
1.50358
1.50131
1.49928
1.49739
1.49569
1.49402
1.49253
1.49131
1.49006
1.48869
1.48727
1.48582
1.48432
1.48293
1.48173
1.4805
1.47923
1.47843
1.47777
1.47711
1.47648
1.47591
1.47543
1.47492
1.47422
1.47339
1.47254
1.47168
1.47075
1.46982
1.4691
1.46847
1.46788
1.46738
1.46693
1.46645
1.46582
1.46497
1.46382
1.46238
1.46096
1.45972
1.45852
1.4574
1.45673
1.45615
1.45553
1.45492
1.45428
1.45364
1.45314
1.45276
1.45249
1.45226
1.45206
1.45191
1.45174
1.45157
1.45138
1.45109
1.45071
1.45032
1.45085
1.45361
1.46387
1.48543
1.52646
1.58281
1.63796
1.69192
1.71758
1.73149
1.74147
1.74671
1.75059
1.75104
1.7503
1.74859
1.74694
1.7457
1.74413
1.74303
1.74231
1.59311
1.58811
1.58355
1.58101
1.58105
1.58128
1.58306
1.58787
1.59638
1.60972
1.62037
1.62427
1.62494
1.62413
1.62191
1.61859
1.61439
1.60944
1.60425
1.59895
1.59337
1.58836
1.58387
1.57937
1.57501
1.57062
1.56662
1.56296
1.55936
1.55592
1.55244
1.54913
1.54625
1.54335
1.54047
1.53757
1.53491
1.53228
1.52962
1.52701
1.52437
1.52211
1.51994
1.51768
1.51557
1.51357
1.51143
1.50914
1.5068
1.50436
1.50206
1.5
1.49809
1.49641
1.49478
1.4934
1.49225
1.491
1.48963
1.48822
1.48676
1.48519
1.48378
1.48266
1.4816
1.48069
1.47989
1.47911
1.47838
1.4777
1.47709
1.47654
1.47601
1.47542
1.47474
1.47401
1.47323
1.47236
1.47138
1.47045
1.46955
1.46872
1.46798
1.4674
1.46686
1.46623
1.46544
1.46445
1.46317
1.46174
1.46044
1.45918
1.45786
1.45707
1.45646
1.45584
1.45531
1.45483
1.4543
1.45374
1.45336
1.45305
1.45272
1.45238
1.4521
1.45186
1.4516
1.45151
1.45125
1.45135
1.45324
1.46052
1.47803
1.51624
1.56698
1.62832
1.67816
1.70888
1.73079
1.74248
1.74616
1.74832
1.7493
1.74903
1.7477
1.74585
1.74351
1.74165
1.74072
1.73959
1.73837
1.73784
1.59362
1.58809
1.58275
1.57832
1.57657
1.57646
1.57702
1.57958
1.58505
1.59566
1.60819
1.61669
1.6211
1.62198
1.62112
1.61911
1.61621
1.61218
1.60744
1.60234
1.59682
1.59174
1.58716
1.58266
1.57818
1.57364
1.56969
1.56585
1.56195
1.55831
1.55474
1.55124
1.54809
1.5451
1.5422
1.5392
1.53649
1.53391
1.53127
1.52862
1.52598
1.52365
1.52133
1.51897
1.51679
1.5147
1.51253
1.5102
1.5078
1.50544
1.50328
1.50124
1.49924
1.49745
1.49581
1.49444
1.49323
1.49194
1.49062
1.48931
1.48785
1.4862
1.4849
1.4838
1.48289
1.48206
1.48129
1.48044
1.47957
1.47885
1.47816
1.47748
1.47688
1.47639
1.47585
1.47526
1.4746
1.47383
1.47291
1.47185
1.47072
1.46963
1.4686
1.4678
1.46716
1.46649
1.46574
1.4649
1.46384
1.46251
1.46115
1.45985
1.45852
1.45766
1.457
1.4563
1.45576
1.45535
1.45488
1.45436
1.45384
1.45337
1.45292
1.45266
1.4523
1.45211
1.45193
1.45213
1.45339
1.45803
1.47319
1.50527
1.55203
1.6139
1.66346
1.70377
1.7307
1.74018
1.74455
1.74709
1.74684
1.74569
1.74454
1.74263
1.7409
1.73978
1.73818
1.73694
1.73664
1.73606
1.73504
1.73451
1.59437
1.58876
1.58278
1.57785
1.57381
1.57218
1.57232
1.57384
1.57706
1.58401
1.59542
1.60627
1.61506
1.61932
1.6194
1.61866
1.61694
1.61378
1.60967
1.60507
1.59988
1.59483
1.59023
1.58576
1.58122
1.57662
1.57266
1.56877
1.56473
1.56087
1.55726
1.55368
1.55027
1.54719
1.54425
1.54113
1.53828
1.53568
1.53301
1.53034
1.5277
1.5253
1.52283
1.52038
1.51809
1.51579
1.51356
1.51126
1.50892
1.50678
1.50485
1.50291
1.50091
1.499
1.49727
1.49575
1.49433
1.4929
1.49158
1.49035
1.48898
1.48764
1.48643
1.48531
1.48438
1.48353
1.4827
1.48177
1.48078
1.47994
1.47911
1.47834
1.47776
1.47727
1.47683
1.47634
1.47579
1.47511
1.47425
1.4732
1.47197
1.47064
1.46933
1.46828
1.46746
1.46672
1.46601
1.46525
1.46433
1.46315
1.46179
1.46045
1.45923
1.45841
1.45769
1.45694
1.45634
1.45587
1.45536
1.45482
1.45419
1.45363
1.45308
1.45274
1.45245
1.45255
1.45338
1.45687
1.46918
1.49367
1.54002
1.59739
1.65178
1.70112
1.72145
1.73348
1.7408
1.74436
1.745
1.74474
1.74313
1.74101
1.73936
1.73732
1.73639
1.73574
1.73486
1.73365
1.73307
1.73234
1.73102
1.73033
1.59526
1.5897
1.5837
1.57813
1.57337
1.57002
1.56954
1.5701
1.5718
1.57579
1.58405
1.5946
1.60564
1.61504
1.61706
1.61685
1.61592
1.61411
1.61122
1.60736
1.60269
1.59774
1.59316
1.58875
1.58418
1.57953
1.57556
1.57169
1.56768
1.56368
1.5601
1.55659
1.55305
1.54982
1.5468
1.54359
1.54052
1.53776
1.53502
1.53231
1.52962
1.52714
1.52458
1.52206
1.51966
1.51717
1.51486
1.51253
1.51027
1.50828
1.50651
1.50473
1.50282
1.50092
1.49916
1.49747
1.49577
1.49412
1.49261
1.49128
1.49004
1.489
1.48795
1.4869
1.486
1.48511
1.48416
1.48314
1.48202
1.48099
1.48008
1.47927
1.47865
1.47814
1.47774
1.47733
1.47683
1.47621
1.47541
1.47438
1.47312
1.47167
1.47016
1.46886
1.46783
1.46697
1.4662
1.46543
1.46457
1.46354
1.46229
1.46099
1.45992
1.45918
1.45848
1.45773
1.45701
1.45639
1.45575
1.45513
1.45442
1.45377
1.45331
1.45305
1.45345
1.45616
1.46473
1.48524
1.52722
1.57956
1.6428
1.68583
1.71403
1.73272
1.74132
1.74506
1.74526
1.74468
1.74343
1.74129
1.73853
1.73624
1.73444
1.73264
1.7317
1.73139
1.73074
1.72962
1.72924
1.72865
1.72741
1.72685
1.59575
1.59042
1.58505
1.57922
1.57401
1.56963
1.56791
1.56779
1.56827
1.57033
1.57544
1.58345
1.59408
1.60662
1.61335
1.61471
1.61482
1.61401
1.61206
1.60911
1.60525
1.60063
1.59605
1.59166
1.58708
1.58236
1.57835
1.57456
1.57067
1.56667
1.56315
1.55979
1.5563
1.55294
1.54982
1.5466
1.54331
1.5403
1.53746
1.53467
1.53182
1.5292
1.52659
1.52406
1.52159
1.51905
1.51666
1.51424
1.51199
1.50991
1.50807
1.50639
1.50461
1.50281
1.50108
1.49935
1.49753
1.49575
1.49401
1.49234
1.49114
1.49022
1.48925
1.48831
1.48748
1.48657
1.48555
1.48447
1.48332
1.48212
1.48116
1.48035
1.47964
1.47909
)
;

boundaryField
{
    inlet
    {
        type            calculated;
        value           nonuniform 0();
    }
    outlet
    {
        type            calculated;
        value           nonuniform 0();
    }
    bottom
    {
        type            symmetryPlane;
    }
    top
    {
        type            symmetryPlane;
    }
    obstacle
    {
        type            calculated;
        value           nonuniform 0();
    }
    front
    {
        type            empty;
    }
    back
    {
        type            empty;
    }
    procBoundary14to6
    {
        type            processor;
        value           nonuniform List<scalar> 
133
(
1.51891
1.51633
1.51369
1.51116
1.50877
1.50648
1.50425
1.50211
1.50011
1.49829
1.49662
1.49506
1.49362
1.49227
1.49097
1.48969
1.48836
1.48692
1.48538
1.48387
1.48252
1.48127
1.48001
1.47881
1.47786
1.477
1.47625
1.47552
1.47465
1.47367
1.47255
1.47129
1.46982
1.46823
1.4666
1.46478
1.46276
1.46069
1.45862
1.45667
1.45465
1.45209
1.4501
1.44928
1.44762
1.44577
1.44435
1.44303
1.44179
1.44072
1.43996
1.43941
1.43896
1.43865
1.43854
1.43879
1.4395
1.44
1.44049
1.44126
1.44222
1.44313
1.4439
1.44456
1.44518
1.4457
1.44605
1.4463
1.44637
1.4462
1.44577
1.44537
1.44501
1.44478
1.44475
1.44485
1.44519
1.44581
1.44639
1.44706
1.4478
1.44818
1.44836
1.4484
1.44855
1.44883
1.44888
1.44913
1.44957
1.44954
1.44966
1.45019
1.45006
1.45007
1.45016
1.64426
1.65645
1.65815
1.65775
1.65599
1.65213
1.64598
1.63794
1.62942
1.62092
1.61284
1.60504
1.59857
1.59313
1.58775
1.58289
1.57827
1.57422
1.57097
1.56782
1.56477
1.56199
1.55942
1.55683
1.5541
1.5512
1.54818
1.54507
1.54197
1.53875
1.53566
1.53278
1.53008
1.52762
1.52516
1.52262
1.5201
1.5201
)
;
    }
    procBoundary14to7
    {
        type            processor;
        value           uniform 1.44927;
    }
    procBoundary14to13
    {
        type            processor;
        value           nonuniform List<scalar> 
14
(
1.62254
1.61745
1.61229
1.60768
1.60404
1.6014
1.59975
1.59884
1.59799
1.59721
1.59687
1.59693
1.59728
1.59772
)
;
    }
    procBoundary14to15
    {
        type            processor;
        value           nonuniform List<scalar> 
17
(
1.44915
1.45331
1.4846
1.57261
1.67792
1.74276
1.76113
1.76525
1.76072
1.75596
1.74969
1.74495
1.74117
1.73695
1.73361
1.72942
1.72597
)
;
    }
    procBoundary14to21
    {
        type            processor;
        value           nonuniform List<scalar> 4(1.59861 1.59968 1.6005 1.60066);
    }
    procBoundary14to22
    {
        type            processor;
        value           nonuniform List<scalar> 
133
(
1.47867
1.47825
1.47773
1.47711
1.47632
1.4753
1.47403
1.47255
1.47097
1.46952
1.46829
1.46724
1.46633
1.4655
1.46466
1.46375
1.46264
1.46145
1.46059
1.45994
1.45929
1.45853
1.45774
1.45693
1.45618
1.45533
1.45477
1.45413
1.4542
1.45575
1.46136
1.47906
1.51314
1.56365
1.62537
1.67289
1.71161
1.73235
1.73911
1.74381
1.74458
1.74405
1.74218
1.73956
1.73709
1.735
1.73271
1.73123
1.73008
1.72869
1.72799
1.72795
1.72755
1.72661
1.72612
1.72526
1.72374
1.72297
1.59642
1.59146
1.5865
1.58098
1.57566
1.57114
1.56798
1.56726
1.56712
1.56755
1.57007
1.57515
1.58324
1.59532
1.60545
1.61133
1.61335
1.61344
1.61236
1.61032
1.60745
1.60345
1.59889
1.59447
1.5899
1.58512
1.58102
1.57734
1.57359
1.56964
1.56619
1.56298
1.55962
1.55621
1.55304
1.54981
1.54644
1.54324
1.54029
1.53736
1.53429
1.53145
1.52881
1.52627
1.52379
1.5213
1.51894
1.51652
1.51421
1.5119
1.50972
1.5079
1.50609
1.50434
1.50266
1.501
1.49928
1.49753
1.49571
1.49374
1.49226
1.49133
1.49037
1.48946
1.48867
1.48782
1.48683
1.48579
1.48468
1.48351
1.48244
1.48154
1.48071
1.47867
1.4801
)
;
    }
}


// ************************************************************************* //
