/*--------------------------------*- C++ -*----------------------------------*\
  =========                 |
  \\      /  F ield         | OpenFOAM: The Open Source CFD Toolbox
   \\    /   O peration     | Website:  https://openfoam.org
    \\  /    A nd           | Version:  7
     \\/     M anipulation  |
\*---------------------------------------------------------------------------*/
FoamFile
{
    version     2.0;
    format      ascii;
    class       volScalarField;
    location    "3.5";
    object      p;
}
// * * * * * * * * * * * * * * * * * * * * * * * * * * * * * * * * * * * * * //

dimensions      [1 -1 -2 0 0 0 0];

internalField   nonuniform List<scalar> 
2413
(
1.32248
1.33689
1.36024
1.38635
1.40264
1.40776
1.41467
1.44999
1.48744
1.4396
0.96813
0.556097
0.551642
0.568048
0.593506
0.627564
0.663429
0.694523
0.719236
0.738861
0.755315
0.770036
0.783918
0.796871
0.807702
0.818403
0.830295
0.843403
0.857419
0.872137
0.887298
0.902589
0.91787
0.933122
0.948403
0.96387
0.979589
0.995522
1.01145
1.02727
1.04284
1.05826
1.07346
1.08837
1.10289
1.11701
1.13064
1.14369
1.15615
1.16811
1.1797
1.52539
1.52849
1.52258
1.51005
1.48641
1.45574
1.42119
1.38862
1.36504
1.35138
1.3439
1.33808
1.33238
1.32735
1.32425
1.32343
1.32427
1.32293
1.31805
1.31041
1.30426
1.30436
1.30388
1.29838
1.28839
1.27679
1.26894
1.26822
1.27035
1.26794
1.25969
1.24978
1.24869
1.25921
1.27519
1.29049
1.30024
1.30922
1.32603
1.35179
1.38049
1.39877
1.40067
1.3974
1.41861
1.43576
1.36309
0.869515
0.526453
0.53109
0.544839
0.566317
0.597587
0.633788
0.666865
0.693372
0.7141
0.731098
0.746059
0.76001
0.773482
0.785886
0.797015
0.808578
0.821275
0.835031
0.849643
0.864819
0.880219
0.895789
0.911613
0.92776
0.944281
0.961137
0.978179
0.995201
1.0121
1.0288
1.04527
1.06139
1.07696
1.09195
1.10632
1.12005
1.13309
1.14542
1.15704
1.16795
1.50789
1.51017
1.50287
1.4914
1.46897
1.43856
1.40294
1.36693
1.33962
1.32338
1.31481
1.3089
1.30324
1.29782
1.29395
1.29264
1.29396
1.29345
1.28902
1.28005
1.27182
1.27013
1.27005
1.26549
1.25512
1.24148
1.23077
1.22914
1.23386
1.23685
1.23473
1.2282
1.23011
1.2485
1.2752
1.30139
1.3218
1.33889
1.36059
1.39001
1.4222
1.44409
1.44498
1.43558
1.44626
1.45391
1.35871
0.836469
0.50543
0.514374
0.526954
0.545365
0.57354
0.609154
0.643767
0.67211
0.694189
0.712055
0.727549
0.74182
0.755483
0.768658
0.780554
0.791718
0.80361
0.81654
0.830388
0.844994
0.859965
0.875154
0.890722
0.906745
0.923233
0.940183
0.957484
0.974982
0.992588
1.01023
1.02783
1.04521
1.06224
1.07874
1.09457
1.10954
1.1234
1.13608
1.14755
1.15794
1.48556
1.48632
1.47806
1.46749
1.44685
1.41866
1.38399
1.34653
1.31589
1.29643
1.28633
1.28021
1.27471
1.26885
1.26382
1.26142
1.26238
1.2628
1.259
1.24942
1.23919
1.23452
1.23427
1.23073
1.22188
1.20969
1.19999
1.19987
1.21057
1.21865
1.22373
1.22989
1.24423
1.26987
1.30246
1.33452
1.36201
1.38517
1.41126
1.44139
1.47104
1.49085
1.49023
1.48202
1.49722
1.52123
1.43439
0.924152
0.503885
0.50228
0.516186
0.532145
0.557185
0.591456
0.627194
0.657555
0.681374
0.70054
0.716946
0.73181
0.745797
0.759203
0.771828
0.782968
0.794044
0.806051
0.818956
0.832602
0.846672
0.860845
0.875249
0.890157
0.905613
0.921519
0.937786
0.954424
0.971498
0.988984
1.00677
1.02461
1.04229
1.05973
1.07661
1.09268
1.10771
1.12164
1.13436
1.1458
1.46027
1.45742
1.45014
1.43887
1.42121
1.39621
1.36444
1.32747
1.29409
1.27102
1.25877
1.25194
1.24668
1.24062
1.23433
1.23034
1.22987
1.23087
1.2275
1.21813
1.20654
1.19894
1.19823
1.19638
1.19199
1.1854
1.18277
1.18915
1.20264
1.22124
1.23606
1.25054
1.27094
1.29754
1.32666
1.35426
1.37958
1.40298
1.42837
1.45285
1.47259
1.48301
1.47854
1.47587
1.49949
1.54075
1.50113
1.1511
0.576892
0.495491
0.512481
0.526881
0.548615
0.580551
0.617064
0.649822
0.676005
0.696931
0.714561
0.730269
0.744854
0.758724
0.771996
0.783748
0.794506
0.805832
0.817927
0.830594
0.843687
0.856811
0.869752
0.88273
0.895966
0.909593
0.923701
0.938355
0.953645
0.969564
0.98604
1.00299
1.02026
1.03759
1.05469
1.07132
1.08718
1.10221
1.11635
1.1294
1.43141
1.42647
1.41873
1.40794
1.39158
1.37134
1.3436
1.30915
1.27421
1.24754
1.23243
1.22415
1.21884
1.21286
1.20527
1.19935
1.19713
1.1976
1.19459
1.18571
1.17373
1.1658
1.16561
1.16927
1.17308
1.17682
1.18248
1.19399
1.21299
1.23277
1.25021
1.26628
1.28387
1.30343
1.32338
1.34219
1.36142
1.38194
1.40382
1.42183
1.43178
1.43206
1.42431
1.41788
1.42632
1.45797
1.47084
1.32594
0.80804
0.507251
0.512889
0.527667
0.545719
0.573703
0.609733
0.644913
0.673954
0.697029
0.716117
0.732901
0.748385
0.763083
0.777227
0.790278
0.801667
0.812969
0.824866
0.837221
0.849746
0.862118
0.874179
0.885945
0.897483
0.90895
0.920515
0.932324
0.944585
0.95757
0.971404
0.985989
1.00121
1.01699
1.03304
1.04914
1.06515
1.08094
1.09633
1.11087
1.39904
1.39371
1.38556
1.37571
1.36219
1.34467
1.321
1.29054
1.25592
1.22622
1.20751
1.19702
1.19101
1.18509
1.17677
1.16886
1.16438
1.16267
1.15963
1.15272
1.14414
1.14017
1.14625
1.15845
1.17132
1.18219
1.1928
1.20614
1.222
1.237
1.25122
1.26383
1.27514
1.28593
1.29648
1.30726
1.32031
1.33648
1.35359
1.366
1.36904
1.36299
1.35123
1.33887
1.33308
1.35491
1.3928
1.34838
1.07318
0.599865
0.513837
0.528214
0.543152
0.565393
0.598389
0.635331
0.667892
0.693767
0.714616
0.732645
0.749236
0.765057
0.780316
0.794826
0.807586
0.819422
0.831745
0.844601
0.857635
0.870519
0.883041
0.8948
0.905597
0.915858
0.926049
0.936412
0.946932
0.957496
0.96816
0.979195
0.991141
1.00405
1.01788
1.03259
1.04798
1.06353
1.07889
1.09375
1.36472
1.35873
1.35083
1.34262
1.33256
1.31652
1.2974
1.27106
1.23851
1.20699
1.18446
1.17092
1.16322
1.15675
1.14778
1.13808
1.13109
1.12735
1.12571
1.12302
1.12425
1.13067
1.14359
1.16068
1.17851
1.19146
1.20136
1.21048
1.22005
1.22862
1.23676
1.24356
1.24833
1.25227
1.25667
1.26252
1.27131
1.28338
1.2957
1.30356
1.30217
1.29181
1.27614
1.25944
1.24972
1.26221
1.28648
1.28984
1.20573
0.808855
0.528743
0.523658
0.537336
0.55329
0.579225
0.615017
0.651397
0.681494
0.704987
0.724352
0.741753
0.758356
0.774497
0.790079
0.804313
0.817192
0.83041
0.844332
0.858567
0.872652
0.886313
0.899306
0.911445
0.92285
0.933686
0.944263
0.954821
0.964949
0.974642
0.984127
0.993511
1.00302
1.01336
1.02485
1.03738
1.05068
1.06456
1.07867
1.33056
1.32287
1.31563
1.30852
1.30148
1.28868
1.27287
1.25065
1.22128
1.18937
1.16315
1.14582
1.13551
1.12784
1.11793
1.10615
1.09751
1.09429
1.09754
1.10909
1.1204
1.13494
1.15255
1.17122
1.18574
1.19599
1.19991
1.20221
1.20531
1.20827
1.21067
1.21202
1.21237
1.21266
1.21401
1.21736
1.22372
1.23269
1.24146
1.24592
1.24136
1.22694
1.20726
1.18849
1.17769
1.17899
1.18674
1.2034
1.20131
1.00068
0.615107
0.516748
0.526384
0.538808
0.555874
0.584756
0.62212
0.657781
0.686387
0.708479
0.726806
0.743612
0.759859
0.775658
0.790489
0.80425
0.818296
0.832998
0.847949
0.863021
0.878272
0.893502
0.908355
0.922501
0.935822
0.94856
0.960948
0.972678
0.983482
0.993399
1.0023
1.01069
1.01878
1.02683
1.03557
1.0454
1.05605
1.06751
1.29665
1.2879
1.28038
1.27373
1.26935
1.26088
1.24715
1.22884
1.20345
1.17256
1.14369
1.12222
1.10833
1.0981
1.0863
1.07406
1.06765
1.07085
1.08735
1.10847
1.12888
1.14813
1.16567
1.17727
1.18538
1.18737
1.18535
1.1836
1.18242
1.18073
1.17851
1.17614
1.17444
1.17331
1.17322
1.17525
1.1802
1.18703
1.19323
1.19463
1.18695
1.16903
1.14632
1.1257
1.11673
1.11452
1.11354
1.12577
1.13832
1.0806
0.784475
0.529635
0.514806
0.525881
0.537993
0.556205
0.586517
0.623992
0.659023
0.68698
0.70848
0.726098
0.742134
0.757552
0.771816
0.785173
0.798861
0.813339
0.82851
0.844272
0.860468
0.876883
0.893373
0.909967
0.926545
0.942855
0.958558
0.973339
0.986891
0.999163
1.01004
1.01953
1.02766
1.03471
1.04128
1.04782
1.05469
1.06269
1.2604
1.25364
1.24586
1.23976
1.23693
1.23279
1.22107
1.20617
1.18449
1.15581
1.12527
1.0993
1.08053
1.06678
1.05488
1.04695
1.04929
1.06464
1.09129
1.12035
1.14388
1.1607
1.16876
1.17293
1.17278
1.16906
1.16331
1.15909
1.15475
1.14926
1.14373
1.13912
1.13616
1.13434
1.13351
1.13468
1.13819
1.14266
1.14568
1.14352
1.13297
1.11403
1.09007
1.07022
1.06167
1.06017
1.05702
1.05894
1.07398
1.06722
0.925789
0.613662
0.509541
0.514279
0.52552
0.537417
0.555869
0.586341
0.623525
0.658504
0.686586
0.708259
0.725947
0.741877
0.757266
0.770849
0.783238
0.795932
0.809551
0.824271
0.839943
0.856159
0.872738
0.889955
0.907662
0.925459
0.943199
0.960706
0.977651
0.993772
1.00869
1.02174
1.03249
1.04089
1.04747
1.0528
1.05827
1.06419
1.22436
1.2196
1.21273
1.20693
1.20403
1.20279
1.19422
1.18277
1.16456
1.13818
1.10663
1.07601
1.05207
1.03663
1.02929
1.03326
1.04731
1.07447
1.10874
1.13528
1.1525
1.15941
1.15976
1.15591
1.15172
1.14495
1.13688
1.13051
1.12347
1.11521
1.10772
1.10254
1.09955
1.09747
1.09543
1.0947
1.09584
1.09777
1.09788
1.09329
1.0815
1.06383
1.04088
1.02241
1.01344
1.01085
1.00848
1.00458
1.01325
1.0202
0.977336
0.75087
0.528912
0.508175
0.515864
0.526859
0.538525
0.556373
0.585648
0.621774
0.656791
0.685983
0.708883
0.727225
0.74335
0.758428
0.771132
0.783002
0.795435
0.808647
0.822425
0.836767
0.85206
0.868672
0.88609
0.903645
0.921138
0.938464
0.955901
0.974046
0.992516
1.0098
1.02489
1.03746
1.04805
1.05733
1.06526
1.0715
1.19002
1.1856
1.18135
1.17594
1.17221
1.17239
1.16738
1.15761
1.14207
1.11878
1.08637
1.05167
1.0252
1.0133
1.01887
1.03484
1.06382
1.09742
1.12434
1.14101
1.1479
1.14611
1.13865
1.13206
1.12549
1.11629
1.10696
1.09938
1.09099
1.08174
1.0738
1.06831
1.0642
1.06057
1.05727
1.0554
1.05496
1.05472
1.0519
1.04468
1.03146
1.01559
0.995744
0.979456
0.970811
0.965878
0.964168
0.959375
0.960977
0.967917
0.95885
0.846068
0.59402
0.503559
0.505388
0.515066
0.525207
0.536796
0.553452
0.580752
0.616132
0.652657
0.68461
0.710014
0.729819
0.746317
0.761065
0.773612
0.784924
0.796046
0.808129
0.822039
0.837903
0.854823
0.871604
0.887885
0.904097
0.920701
0.938025
0.956195
0.974365
0.99146
1.0076
1.02372
1.0402
1.05651
1.07028
1.08011
1.15436
1.15092
1.14959
1.14633
1.14243
1.14233
1.1409
1.13311
1.11892
1.09548
1.06272
1.02871
1.0063
1.00541
1.02312
1.05692
1.09102
1.11573
1.12904
1.13386
1.13016
1.12081
1.11253
1.10543
1.09666
1.08621
1.07712
1.06932
1.06039
1.0509
1.0429
1.037
1.03242
1.02846
1.02466
1.02122
1.018
1.01454
1.00873
0.999702
0.986533
0.973048
0.957029
0.942958
0.93466
0.928024
0.925624
0.921832
0.920078
0.920391
0.91523
0.868252
0.676198
0.509085
0.496255
0.502454
0.511855
0.520819
0.531737
0.546523
0.569974
0.602993
0.640499
0.676237
0.706086
0.729289
0.747605
0.762206
0.772353
0.781233
0.791426
0.80441
0.820198
0.837306
0.854408
0.872063
0.891343
0.911698
0.932188
0.95191
0.969522
0.984434
0.998743
1.01472
1.03327
1.05237
1.0684
1.08043
1.1203
1.11718
1.11662
1.11505
1.11195
1.11174
1.11227
1.10453
1.09265
1.07007
1.04023
1.01328
1.00308
1.01549
1.04989
1.08699
1.11086
1.11874
1.11832
1.11157
1.10212
1.09405
1.08704
1.07939
1.0698
1.06002
1.05187
1.04448
1.03608
1.02733
1.01964
1.01338
1.00757
1.00092
0.993847
0.987641
0.982634
0.977912
0.970878
0.960811
0.947716
0.934613
0.920684
0.908108
0.900043
0.893189
0.889982
0.887244
0.885049
0.883684
0.879908
0.86058
0.733888
0.535897
0.489127
0.492403
0.502019
0.511255
0.519478
0.529198
0.543396
0.562558
0.589845
0.624536
0.661625
0.695519
0.723126
0.744695
0.762987
0.778687
0.792579
0.805741
0.817388
0.827392
0.838192
0.853227
0.873319
0.896458
0.919561
0.940651
0.959563
0.977936
0.996872
1.01592
1.03489
1.0513
1.06362
1.07358
1.08737
1.08363
1.08366
1.08418
1.0822
1.08142
1.08147
1.07468
1.06037
1.03966
1.02422
1.0169
1.02392
1.05335
1.08933
1.10755
1.11277
1.10838
1.09719
1.08698
1.08067
1.07574
1.06934
1.06187
1.05358
1.0461
1.03991
1.03314
1.02408
1.01426
1.00579
0.998232
0.990301
0.981161
0.97168
0.963062
0.955474
0.947648
0.93747
0.925071
0.911171
0.897647
0.884507
0.873571
0.86566
0.858999
0.855501
0.853341
0.85164
0.850008
0.846535
0.833663
0.750994
0.558408
0.475709
0.475762
0.485231
0.495972
0.505003
0.513144
0.521728
0.532545
0.547896
0.568264
0.597238
0.633437
0.671839
0.70864
0.7418
0.769547
0.792076
0.808569
0.82041
0.830515
0.841638
0.854852
0.870182
0.887151
0.905199
0.92408
0.943666
0.964212
0.985975
1.00833
1.02873
1.04476
1.05645
1.06787
1.09681
1.08208
1.07183
1.0656
1.05989
1.05615
1.05337
1.04737
1.04204
1.04618
1.06548
1.09393
1.12001
1.13361
1.13461
1.13103
1.11964
1.10456
1.09217
1.08658
1.08538
1.0831
1.07796
1.07052
1.06196
1.05434
1.04806
1.04073
1.03077
1.01952
1.00809
0.996912
0.98584
0.974058
0.961341
0.94796
0.934789
0.921946
0.908266
0.893578
0.879271
0.866156
0.853263
0.842126
0.833122
0.82565
0.821349
0.818681
0.817791
0.817659
0.815481
0.803247
0.744763
0.568425
0.463493
0.45995
0.469061
0.481256
0.492196
0.501665
0.510276
0.518646
0.527514
0.538289
0.553688
0.574802
0.603533
0.639437
0.678445
0.716716
0.751052
0.77998
0.804653
0.825735
0.844315
0.859729
0.872082
0.883443
0.897477
0.91514
0.934838
0.955583
0.977126
0.999032
1.01826
1.03428
1.04805
1.06213
1.42483
1.37335
1.32543
1.28673
1.25609
1.24653
1.26797
1.31788
1.39016
1.47048
1.53522
1.55945
1.53219
1.46015
1.36744
1.28241
1.21786
1.17515
1.15221
1.14038
1.13315
1.12699
1.1207
1.11317
1.10396
1.09441
1.0845
1.07236
1.05687
1.03996
1.02406
1.00774
0.991818
0.976085
0.958904
0.940597
0.922831
0.905255
0.886976
0.868533
0.851188
0.836036
0.822319
0.810139
0.799847
0.791003
0.785001
0.780341
0.779303
0.78096
0.785002
0.782879
0.730332
0.566287
0.449207
0.44255
0.450935
0.4635
0.475671
0.486761
0.496934
0.506214
0.514899
0.523655
0.533045
0.544483
0.559752
0.580683
0.607838
0.641549
0.680212
0.720441
0.759268
0.794277
0.82391
0.848769
0.86891
0.886613
0.904301
0.920521
0.93496
0.950341
0.969116
0.989058
1.0073
1.02382
1.04105
1.05813
1.80438
1.78398
1.78115
1.80091
1.82566
1.85371
1.88116
1.91186
1.93782
1.95336
1.94728
1.90883
1.84586
1.75597
1.65651
1.55953
1.4728
1.40341
1.34774
1.30291
1.2674
1.23868
1.21374
1.19019
1.1694
1.15204
1.13574
1.1175
1.09835
1.079
1.05805
1.03737
1.01782
0.995735
0.97119
0.94647
0.922235
0.899076
0.876078
0.85266
0.830425
0.809696
0.790373
0.772663
0.757724
0.746244
0.737539
0.731065
0.72934
0.735297
0.748651
0.754671
0.703609
0.545659
0.428767
0.422337
0.430713
0.443251
0.455596
0.46734
0.478697
0.489662
0.500349
0.510714
0.520421
0.529826
0.539487
0.550432
0.564108
0.582414
0.606894
0.638286
0.675479
0.716358
0.758549
0.799577
0.837574
0.871353
0.899821
0.923263
0.944241
0.965786
0.985434
0.997863
1.00492
1.01227
1.02728
1.04596
1.95085
1.94589
1.9604
1.98871
2.02567
2.05375
2.07154
2.07886
2.06472
2.03583
2.00054
1.95283
1.8963
1.83744
1.77532
1.70689
1.63644
1.56873
1.50456
1.44662
1.39585
1.35122
1.31059
1.27405
1.24182
1.21414
1.1905
1.16817
1.14496
1.12069
1.09639
1.07319
1.04853
1.02239
0.993598
0.96393
0.934274
0.904557
0.874768
0.844483
0.814558
0.785044
0.757143
0.7324
0.712286
0.697331
0.68637
0.679161
0.67544
0.681509
0.704466
0.722501
0.675174
0.518318
0.407186
0.402299
0.411699
0.424428
0.436942
0.449222
0.461607
0.47411
0.486481
0.498264
0.50928
0.5195
0.529224
0.538709
0.548434
0.559186
0.572037
0.588178
0.608551
0.634698
0.667676
0.706921
0.750505
0.794959
0.837544
0.878105
0.917623
0.954723
0.983696
1.00314
1.0181
1.03516
1.05329
1.06636
2.03588
2.03706
2.0399
2.04727
2.0544
2.05092
2.03775
2.0162
1.98031
1.94791
1.91919
1.89048
1.86132
1.83051
1.79309
1.7465
1.69349
1.63646
1.57797
1.52116
1.46953
1.42213
1.37662
1.33241
1.29173
1.25778
1.22849
1.20178
1.17761
1.15324
1.12709
1.10095
1.07578
1.04981
1.0227
0.992921
0.960042
0.925349
0.889455
0.850979
0.811178
0.77007
0.730488
0.69486
0.665969
0.644186
0.628159
0.615669
0.607685
0.615976
0.646796
0.674045
0.635875
0.487554
0.385613
0.380579
0.389614
0.401475
0.413918
0.426824
0.440371
0.454395
0.468583
0.482509
0.495944
0.508585
0.520247
0.53087
0.540483
0.549278
0.557648
0.566097
0.575856
0.588368
0.60489
0.627465
0.658041
0.696794
0.740496
0.786057
0.83196
0.876431
0.918844
0.960033
1.00012
1.03582
1.05897
1.0726
2.10145
2.10717
2.10367
2.09221
2.07129
2.04356
2.00725
1.96123
1.92104
1.89108
1.8671
1.8475
1.82771
1.80536
1.77822
1.74401
1.70193
1.65353
1.60002
1.54484
1.4931
1.44566
1.40101
1.35769
1.31906
1.28465
1.25378
1.22802
1.20196
1.17372
1.14678
1.12143
1.09808
1.07381
1.04802
1.01844
0.98699
0.95167
0.911778
0.867055
0.819439
0.76748
0.713811
0.662765
0.619257
0.587264
0.564786
0.547704
0.536735
0.544236
0.572742
0.598322
0.57492
0.453069
0.36858
0.360559
0.368869
0.379828
0.391996
0.404999
0.418816
0.433174
0.447696
0.462204
0.476587
0.490385
0.503431
0.515465
0.52651
0.536619
0.545847
0.554369
0.562584
0.571162
0.580963
0.59305
0.608644
0.628638
0.654036
0.686804
0.727889
0.775831
0.826843
0.876677
0.922885
0.963277
0.99758
1.03057
2.15434
2.15968
2.14982
2.12919
2.09445
2.0582
2.01479
1.9621
1.92258
1.89088
1.86364
1.84318
1.82119
1.795
1.76451
1.73062
1.69299
1.6508
1.60379
1.55474
1.50821
1.46547
1.42421
1.38352
1.34383
1.30727
1.27721
1.24915
1.22027
1.19444
1.16734
1.1408
1.11706
1.09296
1.06792
1.03949
1.00942
0.9753
0.933724
0.89248
0.844468
0.787417
0.722693
0.657045
0.596024
0.545379
0.507952
0.478832
0.458034
0.456495
0.474923
0.495977
0.485127
0.409961
0.355146
0.344937
0.351464
0.361751
0.374037
0.387311
0.401268
0.416092
0.43197
0.44851
0.464867
0.479857
0.49364
0.506698
0.518928
0.530483
0.541001
0.550428
0.559016
0.566846
0.574766
0.583275
0.592763
0.604596
0.620445
0.640785
0.665266
0.693994
0.726505
0.764462
0.810272
0.864283
0.92142
0.972454
2.19755
2.19877
2.18421
2.16103
2.12194
2.07724
2.03229
1.97853
1.94181
1.90931
1.87658
1.85055
1.82571
1.79779
1.7661
1.73178
1.69544
1.65733
1.61589
1.57191
1.52848
1.48642
1.44593
1.40582
1.36531
1.33116
1.29857
1.26503
1.23766
1.21179
1.18725
1.16069
1.13573
1.11087
1.08024
1.05085
1.02184
0.988851
0.956079
0.91907
0.87663
0.824697
0.761004
0.688107
0.612308
0.542128
0.482996
0.435499
0.401988
0.388454
0.39243
0.402026
0.393668
0.358314
0.33626
0.332705
0.338822
0.348246
0.359892
0.373544
0.389335
0.407042
0.425578
0.442734
0.457481
0.471031
0.484872
0.498806
0.511694
0.524256
0.536114
0.546405
0.556451
0.565619
0.574514
0.583444
0.592037
0.601249
0.612783
0.626236
0.641081
0.658686
0.680067
0.705064
0.73351
0.765663
0.801049
0.84033
2.23565
2.23249
2.21594
2.19043
2.15016
2.10167
2.05821
2.00387
1.96894
1.93714
1.90345
1.87302
1.84198
1.80988
1.77565
1.73915
1.70339
1.66769
1.62909
1.58823
1.54693
1.50648
1.46914
1.42816
1.3893
1.35624
1.32017
1.29112
1.26451
1.23853
1.2101
1.18224
1.15504
1.12463
1.09328
1.06315
1.03405
1.00356
0.972531
0.938963
0.902009
0.857583
0.803967
0.74007
0.666
0.586001
0.50715
0.436476
0.3829
0.352322
0.340343
0.338915
0.333105
0.322119
0.319334
0.323845
0.331338
0.341952
0.354969
0.370165
0.387598
0.404836
0.420695
0.436041
0.451381
0.466358
0.480139
0.494624
0.508592
0.522116
0.5363
0.547593
0.55735
0.566515
0.57633
0.586558
0.59629
0.606349
0.618723
0.633196
0.647825
0.663859
0.681656
0.697756
0.713163
0.729717
0.749968
0.775682
2.27134
2.26532
2.24846
2.2214
2.18271
2.13574
2.08934
2.03888
2.00417
1.97261
1.9411
1.90924
1.87239
1.8326
1.79206
1.75317
1.71698
1.681
1.64379
1.60556
1.56392
1.52249
1.4842
1.44246
1.40979
1.37607
1.33868
1.31249
1.28661
1.25955
1.23249
1.20832
1.17831
1.14299
1.11321
1.08178
1.05295
1.02058
0.991118
0.957374
0.921645
0.879924
0.831022
0.774682
0.709686
0.635269
0.554134
0.473313
0.405201
0.35798
0.331011
0.31899
0.309862
0.303744
0.30562
0.312696
0.322791
0.335156
0.348614
0.362709
0.378316
0.396008
0.414552
0.432065
0.448532
0.464115
0.478199
0.49335
0.507912
0.517464
0.529296
0.541521
0.549828
0.560483
0.573228
0.58336
0.594413
0.606806
0.620231
0.636778
0.654105
0.671915
0.689802
0.706076
0.720961
0.734998
0.748204
0.759449
2.3068
2.29882
2.28193
2.25399
2.21593
2.17077
2.13039
2.08231
2.04355
2.0101
1.97823
1.94403
1.90584
1.8658
1.82368
1.78041
1.7382
1.69861
1.66079
1.62343
1.58084
1.539
1.49955
1.45694
1.42836
1.39138
1.35904
1.33321
1.30693
1.27941
1.25177
1.22662
1.19521
1.1614
1.13146
1.09998
1.07087
1.03361
1.00426
0.968761
0.931714
0.888076
0.837956
0.780669
0.716471
0.645267
0.569502
0.493645
0.425648
0.373571
0.338892
0.317041
0.303473
0.299005
0.30377
0.311978
0.321206
0.331399
0.343072
0.356374
0.371519
0.388103
0.405383
0.421604
0.437024
0.452771
0.466145
0.47953
0.498066
0.512046
0.524588
0.540191
0.550622
0.561451
0.575416
0.586667
0.601502
0.618838
0.632523
0.646699
0.662212
0.678141
0.695715
0.712481
0.727735
0.741769
0.753884
0.763284
2.342
2.33253
2.31589
2.28939
2.25325
2.21046
2.16927
2.13048
2.08683
2.04922
2.01322
1.97457
1.93408
1.89325
1.85166
1.81049
1.76963
1.72899
1.68905
1.65045
1.60712
1.56362
1.523
1.47704
1.44647
1.4087
1.37693
1.35445
1.32894
1.30139
1.27085
1.2448
1.21181
1.17836
1.14852
1.11615
1.08442
1.05468
1.02218
0.98719
0.950063
0.906512
0.855563
0.797334
0.731353
0.657995
0.579667
0.504514
0.437367
0.385749
0.35173
0.329604
0.316399
0.310814
0.310754
0.314105
0.319617
0.3275
0.337269
0.348206
0.361095
0.376485
0.392
0.407126
0.422198
0.439892
0.457602
0.471484
0.486743
0.502277
0.512496
0.526251
0.539808
0.549735
)
;

boundaryField
{
    inlet
    {
        type            fixedValue;
        value           nonuniform 0();
    }
    outlet
    {
        type            zeroGradient;
    }
    bottom
    {
        type            symmetryPlane;
    }
    top
    {
        type            symmetryPlane;
    }
    obstacle
    {
        type            zeroGradient;
    }
    front
    {
        type            empty;
    }
    back
    {
        type            empty;
    }
    procBoundary11to2
    {
        type            processor;
        value           nonuniform List<scalar> 
27
(
1.51507
1.4986
1.4792
1.4559
1.42949
1.40018
1.36814
1.33388
1.29923
1.26354
1.22741
1.19327
1.15794
1.124
1.09354
1.11125
1.47774
1.84116
1.97223
2.0462
2.10535
2.15229
2.19284
2.23131
2.26861
2.30535
2.34203
)
;
    }
    procBoundary11to3
    {
        type            processor;
        value           nonuniform List<scalar> 
89
(
1.36382
1.38087
1.40491
1.43002
1.44693
1.45777
1.47503
1.52002
1.5705
1.53672
1.09725
0.599352
0.575277
0.596108
0.625942
0.661617
0.695842
0.72431
0.746997
0.765546
0.781612
0.796329
0.810283
0.821919
0.831854
0.842501
0.854379
0.867228
0.880752
0.89479
0.909183
0.923721
0.938256
0.95272
0.967062
0.981429
0.995962
1.01077
1.02571
1.04071
1.05561
1.07042
1.08505
1.09955
1.11381
1.12787
1.14168
1.15514
1.1682
1.18083
1.19313
1.53781
1.5411
1.5364
1.52334
1.49936
1.46975
1.4386
1.41121
1.39171
1.3801
1.37329
1.3674
1.36195
1.35729
1.35446
1.35356
1.35361
1.35163
1.34656
1.34026
1.33619
1.33716
1.3358
1.32951
1.32065
1.31262
1.30909
1.31009
1.30965
1.30446
1.29488
1.28536
1.28334
1.29274
1.30553
1.31529
1.31768
1.31768
)
;
    }
    procBoundary11to4
    {
        type            processor;
        value           uniform 1.19086;
    }
    procBoundary11to12
    {
        type            processor;
        value           nonuniform List<scalar> 
26
(
1.17816
1.16746
1.156
1.14129
1.1242
1.10776
1.09245
1.07935
1.07164
1.07014
1.07601
1.08616
1.08957
1.08315
1.08027
1.07848
1.0777
1.06816
1.07121
1.08207
1.06536
1.01424
0.887003
0.801377
0.76864
0.771134
)
;
    }
    procBoundary11to19
    {
        type            processor;
        value           nonuniform List<scalar> 
89
(
0.564498
0.58043
0.596913
0.61575
0.633467
0.651366
0.668204
0.685219
0.702475
0.717802
0.731934
0.746222
0.759908
0.77144
2.38063
2.36953
2.35178
2.32513
2.28934
2.24938
2.21141
2.17489
2.12791
2.08978
2.05005
2.0086
1.96562
1.92292
1.8804
1.83809
1.7951
1.75209
1.71009
1.66933
1.62578
1.58108
1.54144
1.4964
1.46257
1.4284
1.39388
1.36593
1.33774
1.31035
1.28098
1.25902
1.22709
1.188
1.15898
1.12662
1.09795
1.06863
1.03863
1.00786
0.970439
0.925678
0.873326
0.814467
0.747419
0.672882
0.597001
0.529349
0.4678
0.416378
0.379688
0.353925
0.336535
0.327323
0.322678
0.322434
0.325632
0.331022
0.338579
0.346502
0.353244
0.362847
0.375861
0.391136
0.406025
0.421019
0.438289
0.453127
0.467689
0.484666
0.496221
0.508061
0.524937
0.564498
0.536196
)
;
    }
}


// ************************************************************************* //
