/*--------------------------------*- C++ -*----------------------------------*\
  =========                 |
  \\      /  F ield         | OpenFOAM: The Open Source CFD Toolbox
   \\    /   O peration     | Website:  https://openfoam.org
    \\  /    A nd           | Version:  7
     \\/     M anipulation  |
\*---------------------------------------------------------------------------*/
FoamFile
{
    version     2.0;
    format      ascii;
    class       surfaceScalarField;
    location    "0.475";
    object      phi;
}
// * * * * * * * * * * * * * * * * * * * * * * * * * * * * * * * * * * * * * //

dimensions      [0 3 -1 0 0 0 0];

internalField   nonuniform List<scalar> 
79600
(
6.97138e-13
-1.50846e-12
1.26784e-11
-1.19813e-11
3.28056e-11
-2.01273e-11
5.7291e-11
-2.44855e-11
8.30774e-11
-2.57865e-11
1.07854e-10
-2.47764e-11
1.29903e-10
-2.20498e-11
1.4797e-10
-1.80665e-11
1.61139e-10
-1.31693e-11
1.6875e-10
-7.61139e-12
1.70333e-10
-1.58275e-12
1.65561e-10
4.77237e-12
1.54218e-10
1.13423e-11
1.36178e-10
1.80402e-11
1.11381e-10
2.4797e-11
7.9823e-11
3.15579e-11
4.15442e-11
3.82788e-11
-3.37975e-12
4.49239e-11
-5.48439e-11
5.14641e-11
-1.1272e-10
5.78759e-11
-1.7686e-10
6.41398e-11
-2.471e-10
7.024e-11
-3.23263e-10
7.61635e-11
-4.05163e-10
8.18996e-11
-4.92603e-10
8.74399e-11
-5.8538e-10
9.27773e-11
-6.83286e-10
9.79064e-11
-7.86109e-10
1.02823e-10
-8.93632e-10
1.07523e-10
-1.00564e-09
1.12005e-10
-1.1219e-09
1.16267e-10
-1.24221e-09
1.20307e-10
-1.36634e-09
1.24126e-10
-1.49406e-09
1.27723e-10
-1.62516e-09
1.31099e-10
-1.75941e-09
1.34254e-10
-1.8966e-09
1.37189e-10
-2.03651e-09
1.39906e-10
-2.17891e-09
1.42406e-10
-2.32361e-09
1.44692e-10
-2.47037e-09
1.46765e-10
-2.619e-09
1.48627e-10
-2.76928e-09
1.50281e-10
-2.92101e-09
1.51729e-10
-3.07398e-09
1.52974e-10
-3.228e-09
1.54019e-10
-3.38287e-09
1.54866e-10
-3.53838e-09
1.55518e-10
-3.69436e-09
1.55979e-10
-3.85061e-09
1.56251e-10
-4.00695e-09
1.56337e-10
-4.16319e-09
1.5624e-10
-4.31915e-09
1.55964e-10
-4.47467e-09
1.55512e-10
-4.62955e-09
1.54886e-10
-4.78364e-09
1.54091e-10
-4.93677e-09
1.5313e-10
-5.08878e-09
1.52006e-10
-5.2395e-09
1.50722e-10
-5.38878e-09
1.49281e-10
-5.53647e-09
1.47687e-10
-5.68241e-09
1.45944e-10
-5.82647e-09
1.44055e-10
-5.96849e-09
1.42023e-10
-6.10834e-09
1.39851e-10
-6.24588e-09
1.37544e-10
-6.38099e-09
1.35103e-10
-6.51352e-09
1.32534e-10
-6.64336e-09
1.29839e-10
-6.77038e-09
1.27022e-10
-6.89447e-09
1.24087e-10
-7.01551e-09
1.21036e-10
-7.13338e-09
1.17873e-10
-7.24798e-09
1.14602e-10
-7.35921e-09
1.11226e-10
-7.46695e-09
1.07749e-10
-7.57113e-09
1.04174e-10
-7.67163e-09
1.00504e-10
-7.76838e-09
9.67444e-11
-7.86127e-09
9.28971e-11
-7.95024e-09
8.89662e-11
-8.0352e-09
8.49552e-11
-8.11606e-09
8.08678e-11
-8.19277e-09
7.67075e-11
-8.26525e-09
7.24779e-11
-8.33343e-09
6.81825e-11
-8.39726e-09
6.38252e-11
-8.45667e-09
5.94096e-11
-8.51161e-09
5.49395e-11
-8.56202e-09
5.04184e-11
-8.60787e-09
4.58502e-11
-8.64911e-09
4.12385e-11
-8.6857e-09
3.65871e-11
-8.7176e-09
3.19e-11
-8.74478e-09
2.7181e-11
-8.76721e-09
2.24339e-11
-8.78488e-09
1.76627e-11
-8.79775e-09
1.28711e-11
-8.80581e-09
8.06315e-12
-8.80905e-09
3.24283e-12
-8.80747e-09
-1.58577e-12
-8.80105e-09
-6.41859e-12
-8.7898e-09
-1.12516e-11
-8.77372e-09
-1.60807e-11
-8.75282e-09
-2.09018e-11
-8.72711e-09
-2.57109e-11
-8.6966e-09
-3.05036e-11
-8.66133e-09
-3.52756e-11
-8.6213e-09
-4.00228e-11
-8.57656e-09
-4.47408e-11
-8.52714e-09
-4.94254e-11
-8.47307e-09
-5.40724e-11
-8.41439e-09
-5.86774e-11
-8.35115e-09
-6.3236e-11
-8.28341e-09
-6.77436e-11
-8.21121e-09
-7.2196e-11
-8.13463e-09
-7.65887e-11
-8.05371e-09
-8.09172e-11
-7.96853e-09
-8.51773e-11
-7.87917e-09
-8.93645e-11
-7.78569e-09
-9.34741e-11
-7.68819e-09
-9.75016e-11
-7.58675e-09
-1.01443e-10
-7.48146e-09
-1.05293e-10
-7.37241e-09
-1.09047e-10
-7.25971e-09
-1.12702e-10
-7.14346e-09
-1.16252e-10
-7.02376e-09
-1.19694e-10
-6.90074e-09
-1.23022e-10
-6.77451e-09
-1.26232e-10
-6.64519e-09
-1.2932e-10
-6.51291e-09
-1.32282e-10
-6.3778e-09
-1.35112e-10
-6.23999e-09
-1.37808e-10
-6.09962e-09
-1.40364e-10
-5.95685e-09
-1.42776e-10
-5.81181e-09
-1.45041e-10
-5.66465e-09
-1.47153e-10
-5.51555e-09
-1.49109e-10
-5.36464e-09
-1.50905e-10
-5.2121e-09
-1.52538e-10
-5.0581e-09
-1.54002e-10
-4.90281e-09
-1.55294e-10
-4.7464e-09
-1.56411e-10
-4.58905e-09
-1.57349e-10
-4.43094e-09
-1.58104e-10
-4.27227e-09
-1.58674e-10
-4.11322e-09
-1.59054e-10
-3.95397e-09
-1.59241e-10
-3.79474e-09
-1.59233e-10
-3.63572e-09
-1.59026e-10
-3.4771e-09
-1.58618e-10
-3.31909e-09
-1.58005e-10
-3.16191e-09
-1.57186e-10
-3.00575e-09
-1.56158e-10
-2.85083e-09
-1.54919e-10
-2.69737e-09
-1.53466e-10
-2.54557e-09
-1.51798e-10
-2.39566e-09
-1.49913e-10
-2.24785e-09
-1.4781e-10
-2.10236e-09
-1.45487e-10
-1.95942e-09
-1.42944e-10
-1.81924e-09
-1.40179e-10
-1.68204e-09
-1.37193e-10
-1.54806e-09
-1.33985e-10
-1.41751e-09
-1.30555e-10
-1.2906e-09
-1.26904e-10
-1.16757e-09
-1.23033e-10
-1.04863e-09
-1.18943e-10
-9.3399e-10
-1.14636e-10
-8.23875e-10
-1.10115e-10
-7.18494e-10
-1.05382e-10
-6.18053e-10
-1.00441e-10
-5.22757e-10
-9.52963e-11
-4.32803e-10
-8.99541e-11
-3.48383e-10
-8.44203e-11
-2.69681e-10
-7.87026e-11
-1.96871e-10
-7.28099e-11
-1.30118e-10
-6.67531e-11
-6.95731e-11
-6.05449e-11
-1.53727e-11
-5.42004e-11
3.2365e-11
-4.77377e-11
7.3543e-11
-4.11781e-11
1.0809e-10
-3.45474e-11
1.35966e-10
-2.78765e-11
1.57169e-10
-2.1203e-11
1.71742e-10
-1.45729e-11
1.79785e-10
-8.04274e-12
1.81468e-10
-1.68271e-12
1.77048e-10
4.41921e-12
1.66897e-10
1.0151e-11
1.51529e-10
1.53684e-11
1.31645e-10
1.98833e-11
1.082e-10
2.34456e-11
8.24802e-11
2.57195e-11
5.62222e-11
2.6258e-11
3.17315e-11
2.44906e-11
1.20177e-11
1.97137e-11
7.63909e-13
1.12537e-11
7.63829e-13
1.15605e-11
-1.3069e-11
4.33664e-11
-4.37874e-11
8.96372e-11
-6.63982e-11
1.43843e-10
-7.86915e-11
1.9996e-10
-8.19035e-11
2.5291e-10
-7.77268e-11
2.98599e-10
-6.77391e-11
3.33811e-10
-5.32785e-11
3.56064e-10
-3.54224e-11
3.63473e-10
-1.50203e-11
3.54631e-10
7.25925e-12
3.28514e-10
3.08886e-11
2.84408e-10
5.54487e-11
2.21844e-10
8.06042e-11
1.40555e-10
1.06085e-10
4.04397e-11
1.31674e-10
-7.84721e-11
1.5719e-10
-2.16038e-10
1.8249e-10
-3.72027e-10
2.07453e-10
-5.4613e-10
2.31979e-10
-7.37979e-10
2.55988e-10
-9.4715e-10
2.79411e-10
-1.17318e-09
3.02193e-10
-1.41557e-09
3.24288e-10
-1.67378e-09
3.45657e-10
-1.94728e-09
3.66269e-10
-2.23547e-09
3.861e-10
-2.53778e-09
4.05129e-10
-2.85359e-09
4.23339e-10
-3.18231e-09
4.40719e-10
-3.5233e-09
4.5726e-10
-3.87594e-09
4.72954e-10
-4.23962e-09
4.87798e-10
-4.61368e-09
5.0179e-10
-4.99751e-09
5.1493e-10
-5.39048e-09
5.27218e-10
-5.79195e-09
5.38658e-10
-6.2013e-09
5.49254e-10
-6.6179e-09
5.5901e-10
-7.04114e-09
5.67933e-10
-7.47041e-09
5.7603e-10
-7.90509e-09
5.83308e-10
-8.34458e-09
5.89776e-10
-8.7883e-09
5.95443e-10
-9.23564e-09
6.00318e-10
-9.68603e-09
6.0441e-10
-1.01389e-08
6.07732e-10
-1.05937e-08
6.10292e-10
-1.10498e-08
6.12102e-10
-1.15067e-08
6.13174e-10
-1.19639e-08
6.13519e-10
-1.24208e-08
6.13149e-10
-1.28769e-08
6.12076e-10
-1.33317e-08
6.10313e-10
-1.37847e-08
6.07871e-10
-1.42354e-08
6.04764e-10
-1.46833e-08
6.01004e-10
-1.51278e-08
5.96604e-10
-1.55687e-08
5.91576e-10
-1.60054e-08
5.85935e-10
-1.64374e-08
5.79692e-10
-1.68643e-08
5.72861e-10
-1.72857e-08
5.65456e-10
-1.77011e-08
5.57489e-10
-1.81103e-08
5.48974e-10
-1.85126e-08
5.39924e-10
-1.89079e-08
5.30353e-10
-1.92956e-08
5.20275e-10
-1.96755e-08
5.09701e-10
-2.00471e-08
4.98647e-10
-2.04102e-08
4.87126e-10
-2.07643e-08
4.75152e-10
-2.11091e-08
4.62737e-10
-2.14444e-08
4.49896e-10
-2.17699e-08
4.36642e-10
-2.20851e-08
4.2299e-10
-2.23899e-08
4.08953e-10
-2.26839e-08
3.94545e-10
-2.2967e-08
3.7978e-10
-2.32387e-08
3.64671e-10
-2.3499e-08
3.49234e-10
-2.37475e-08
3.33481e-10
-2.39841e-08
3.17427e-10
-2.42085e-08
3.01087e-10
-2.44205e-08
2.84474e-10
-2.46199e-08
2.67603e-10
-2.48065e-08
2.50489e-10
-2.49803e-08
2.33145e-10
-2.51409e-08
2.15587e-10
-2.52883e-08
1.97828e-10
-2.54224e-08
1.79885e-10
-2.55429e-08
1.61771e-10
-2.56498e-08
1.43502e-10
-2.5743e-08
1.25092e-10
-2.58224e-08
1.06558e-10
-2.58879e-08
8.79135e-11
-2.59394e-08
6.91746e-11
-2.59769e-08
5.03567e-11
-2.60003e-08
3.14754e-11
-2.60096e-08
1.25462e-11
-2.60047e-08
-6.41485e-12
-2.59858e-08
-2.53919e-11
-2.59527e-08
-4.43688e-11
-2.59054e-08
-6.33294e-11
-2.58441e-08
-8.22576e-11
-2.57686e-08
-1.01137e-10
-2.56792e-08
-1.19951e-10
-2.55758e-08
-1.38683e-10
-2.54585e-08
-1.57317e-10
-2.53274e-08
-1.75834e-10
-2.51826e-08
-1.9422e-10
-2.50242e-08
-2.12456e-10
-2.48524e-08
-2.30526e-10
-2.46672e-08
-2.48412e-10
-2.44688e-08
-2.66098e-10
-2.42575e-08
-2.83565e-10
-2.40333e-08
-3.00797e-10
-2.37964e-08
-3.17775e-10
-2.35471e-08
-3.34483e-10
-2.32856e-08
-3.50904e-10
-2.3012e-08
-3.67019e-10
-2.27267e-08
-3.82811e-10
-2.24299e-08
-3.98262e-10
-2.21218e-08
-4.13354e-10
-2.18028e-08
-4.28071e-10
-2.14731e-08
-4.42395e-10
-2.1133e-08
-4.56308e-10
-2.07829e-08
-4.69793e-10
-2.04231e-08
-4.82832e-10
-2.0054e-08
-4.95408e-10
-1.96758e-08
-5.07504e-10
-1.9289e-08
-5.19103e-10
-1.88939e-08
-5.30188e-10
-1.8491e-08
-5.40741e-10
-1.80806e-08
-5.50748e-10
-1.76632e-08
-5.6019e-10
-1.72391e-08
-5.69052e-10
-1.6809e-08
-5.77317e-10
-1.63731e-08
-5.8497e-10
-1.5932e-08
-5.91995e-10
-1.54862e-08
-5.98378e-10
-1.50361e-08
-6.04102e-10
-1.45822e-08
-6.09154e-10
-1.41251e-08
-6.13519e-10
-1.36653e-08
-6.17183e-10
-1.32033e-08
-6.20132e-10
-1.27396e-08
-6.22354e-10
-1.22748e-08
-6.23835e-10
-1.18095e-08
-6.24563e-10
-1.13442e-08
-6.24527e-10
-1.08795e-08
-6.23716e-10
-1.0416e-08
-6.22117e-10
-9.95429e-09
-6.19722e-10
-9.49495e-09
-6.16522e-10
-9.0386e-09
-6.12506e-10
-8.58586e-09
-6.07667e-10
-8.13732e-09
-6.01997e-10
-7.69363e-09
-5.95491e-10
-7.25541e-09
-5.88141e-10
-6.82327e-09
-5.79942e-10
-6.39787e-09
-5.70892e-10
-5.97983e-09
-5.60987e-10
-5.56978e-09
-5.50224e-10
-5.16837e-09
-5.38604e-10
-4.77623e-09
-5.26126e-10
-4.39399e-09
-5.12793e-10
-4.02229e-09
-4.98608e-10
-3.66175e-09
-4.83575e-10
-3.31299e-09
-4.67703e-10
-2.97662e-09
-4.51e-10
-2.65326e-09
-4.33476e-10
-2.3435e-09
-4.15147e-10
-2.04791e-09
-3.96028e-10
-1.76707e-09
-3.7614e-10
-1.50151e-09
-3.55506e-10
-1.25178e-09
-3.34155e-10
-1.01836e-09
-3.1212e-10
-8.01733e-10
-2.89439e-10
-6.02327e-10
-2.6616e-10
-4.20537e-10
-2.42334e-10
-2.5671e-10
-2.18028e-10
-1.11133e-10
-1.93315e-10
1.59735e-11
-1.68285e-10
1.2447e-10
-1.43044e-10
2.14313e-10
-1.17719e-10
2.85571e-10
-9.24619e-11
3.38455e-10
-6.74565e-11
3.73338e-10
-4.29261e-11
3.90799e-10
-1.91441e-11
3.91665e-10
3.55287e-12
3.7707e-10
2.47468e-11
3.48523e-10
4.39147e-11
3.08008e-10
6.03988e-11
2.58084e-10
7.33687e-11
2.02023e-10
8.17804e-11
1.43929e-10
8.43521e-11
8.88188e-11
7.96009e-11
4.25418e-11
6.59905e-11
1.12482e-11
4.25472e-11
1.2012e-11
1.99423e-11
-3.30114e-11
6.61272e-11
-8.99725e-11
1.28995e-10
-1.29266e-10
2.00036e-10
-1.49733e-10
2.71535e-10
-1.53403e-10
3.36796e-10
-1.42988e-10
3.90209e-10
-1.21152e-10
4.27192e-10
-9.02612e-11
4.44078e-10
-5.23081e-11
4.37988e-10
-8.93051e-12
4.06707e-10
3.85394e-11
3.48574e-10
8.90214e-11
2.62385e-10
1.41638e-10
1.47315e-10
1.95674e-10
2.85418e-12
2.50546e-10
-1.71246e-10
3.05773e-10
-3.75016e-10
3.60961e-10
-6.08308e-10
4.15782e-10
-8.70819e-10
4.69964e-10
-1.16212e-09
5.23282e-10
-1.48168e-09
5.75549e-10
-1.82888e-09
6.26607e-10
-2.20301e-09
6.76325e-10
-2.60332e-09
7.24595e-10
-3.02899e-09
7.71327e-10
-3.47916e-09
8.16445e-10
-3.95295e-09
8.5989e-10
-4.44943e-09
9.01609e-10
-4.96766e-09
9.41565e-10
-5.50666e-09
9.79724e-10
-6.06547e-09
1.01606e-09
-6.64308e-09
1.05056e-09
-7.23849e-09
1.08321e-09
-7.8507e-09
1.114e-09
-8.47871e-09
1.14293e-09
-9.12149e-09
1.17e-09
-9.77804e-09
1.19521e-09
-1.04474e-08
1.21857e-09
-1.11284e-08
1.24009e-09
-1.18203e-08
1.25977e-09
-1.25219e-08
1.27764e-09
-1.32323e-08
1.29371e-09
-1.39505e-08
1.308e-09
-1.46756e-08
1.32052e-09
-1.54066e-08
1.33129e-09
-1.61425e-08
1.34034e-09
-1.68824e-08
1.34768e-09
-1.76255e-08
1.35334e-09
-1.83707e-08
1.35735e-09
-1.91173e-08
1.35972e-09
-1.98643e-08
1.36049e-09
-2.06108e-08
1.35967e-09
-2.1356e-08
1.3573e-09
-2.20991e-08
1.3534e-09
-2.28392e-08
1.348e-09
-2.35756e-08
1.34112e-09
-2.43074e-08
1.3328e-09
-2.50338e-08
1.32305e-09
-2.57542e-08
1.31192e-09
-2.64676e-08
1.29942e-09
-2.71735e-08
1.28559e-09
-2.78711e-08
1.27046e-09
-2.85597e-08
1.25405e-09
-2.92386e-08
1.23639e-09
-2.99072e-08
1.21752e-09
-3.05647e-08
1.19746e-09
-3.12106e-08
1.17624e-09
-3.18442e-08
1.15389e-09
-3.2465e-08
1.13045e-09
-3.30722e-08
1.10594e-09
-3.36655e-08
1.08039e-09
-3.42442e-08
1.05383e-09
-3.48078e-08
1.0263e-09
-3.53557e-08
9.97818e-10
-3.58875e-08
9.68421e-10
-3.64026e-08
9.38138e-10
-3.69007e-08
9.07e-10
-3.73811e-08
8.75037e-10
-3.78436e-08
8.42281e-10
-3.82877e-08
8.08763e-10
-3.8713e-08
7.74513e-10
-3.91191e-08
7.39564e-10
-3.95056e-08
7.03946e-10
-3.98722e-08
6.67692e-10
-4.02186e-08
6.30833e-10
-4.05444e-08
5.93401e-10
-4.08493e-08
5.55427e-10
-4.11331e-08
5.16945e-10
-4.13955e-08
4.77987e-10
-4.16363e-08
4.38586e-10
-4.18552e-08
3.98774e-10
-4.2052e-08
3.58584e-10
-4.22265e-08
3.1805e-10
-4.23786e-08
2.77206e-10
-4.25082e-08
2.36084e-10
-4.2615e-08
1.9472e-10
-4.26989e-08
1.53147e-10
-4.276e-08
1.11399e-10
-4.2798e-08
6.9512e-11
-4.2813e-08
2.75202e-11
-4.28049e-08
-1.45412e-11
-4.27736e-08
-5.66367e-11
-4.27193e-08
-9.87305e-11
-4.26418e-08
-1.40787e-10
-4.25413e-08
-1.82769e-10
-4.24178e-08
-2.24642e-10
-4.22714e-08
-2.66367e-10
-4.21021e-08
-3.0791e-10
-4.19102e-08
-3.49231e-10
-4.16958e-08
-3.90295e-10
-4.14589e-08
-4.31063e-10
-4.11999e-08
-4.71497e-10
-4.09189e-08
-5.1156e-10
-4.06161e-08
-5.51215e-10
-4.02917e-08
-5.90421e-10
-3.99462e-08
-6.29142e-10
-3.95796e-08
-6.67339e-10
-3.91924e-08
-7.04972e-10
-3.87849e-08
-7.42004e-10
-3.83574e-08
-7.78394e-10
-3.79103e-08
-8.14106e-10
-3.7444e-08
-8.49099e-10
-3.6959e-08
-8.83335e-10
-3.64555e-08
-9.16775e-10
-3.59342e-08
-9.4938e-10
-3.53955e-08
-9.81111e-10
-3.48399e-08
-1.01193e-09
-3.42679e-08
-1.0418e-09
-3.368e-08
-1.07068e-09
-3.30769e-08
-1.09853e-09
-3.24591e-08
-1.12531e-09
-3.18272e-08
-1.151e-09
-3.11819e-08
-1.17554e-09
-3.05237e-08
-1.1989e-09
-2.98534e-08
-1.22105e-09
-2.91717e-08
-1.24195e-09
-2.84791e-08
-1.26156e-09
-2.77766e-08
-1.27986e-09
-2.70648e-08
-1.29679e-09
-2.63444e-08
-1.31234e-09
-2.56164e-08
-1.32646e-09
-2.48813e-08
-1.33912e-09
-2.41402e-08
-1.3503e-09
-2.33938e-08
-1.35995e-09
-2.26429e-08
-1.36806e-09
-2.18884e-08
-1.37458e-09
-2.11313e-08
-1.3795e-09
-2.03724e-08
-1.38277e-09
-1.96125e-08
-1.38439e-09
-1.88527e-08
-1.38431e-09
-1.80939e-08
-1.38253e-09
-1.73371e-08
-1.379e-09
-1.65831e-08
-1.37372e-09
-1.58329e-08
-1.36666e-09
-1.50876e-08
-1.3578e-09
-1.43482e-08
-1.34713e-09
-1.36155e-08
-1.33463e-09
-1.28907e-08
-1.32028e-09
-1.21748e-08
-1.30408e-09
-1.14687e-08
-1.28601e-09
-1.07735e-08
-1.26608e-09
-1.00903e-08
-1.24426e-09
-9.41994e-09
-1.22056e-09
-8.76357e-09
-1.19498e-09
-8.12217e-09
-1.16752e-09
-7.49677e-09
-1.13819e-09
-6.88838e-09
-1.107e-09
-6.29799e-09
-1.07396e-09
-5.7266e-09
-1.03909e-09
-5.17519e-09
-1.00241e-09
-4.64472e-09
-9.63951e-10
-4.13612e-09
-9.23745e-10
-3.65031e-09
-8.81832e-10
-3.18819e-09
-8.38261e-10
-2.75061e-09
-7.93089e-10
-2.33838e-09
-7.46382e-10
-1.95228e-09
-6.9822e-10
-1.59303e-09
-6.48692e-10
-1.26128e-09
-5.97908e-10
-9.57629e-10
-5.45991e-10
-6.82568e-10
-4.93089e-10
-4.36509e-10
-4.39374e-10
-2.19743e-10
-3.85051e-10
-3.24289e-11
-3.30359e-10
1.25435e-10
-2.75583e-10
2.54035e-10
-2.21062e-10
3.53781e-10
-1.67203e-10
4.25347e-10
-1.14492e-10
4.69722e-10
-6.35192e-11
4.88274e-10
-1.4999e-11
4.82823e-10
3.01971e-11
4.55734e-10
7.10035e-11
4.10017e-10
1.06116e-10
3.49442e-10
1.33944e-10
2.78654e-10
1.52568e-10
2.03263e-10
1.59743e-10
1.29874e-10
1.5299e-10
6.59832e-11
1.29881e-10
1.9703e-11
8.88274e-11
3.17149e-11
2.44066e-11
-5.7418e-11
7.85922e-11
-1.44158e-10
1.49674e-10
-2.00348e-10
2.27313e-10
-2.27371e-10
3.02539e-10
-2.28629e-10
3.67603e-10
-2.08052e-10
4.15918e-10
-1.69467e-10
4.41985e-10
-1.16329e-10
4.41299e-10
-5.16225e-11
4.10236e-10
2.21328e-11
3.45939e-10
1.02837e-10
2.46212e-10
1.88748e-10
1.09424e-10
2.78427e-10
-6.55823e-11
3.7068e-10
-2.79557e-10
4.6452e-10
-5.32908e-10
5.59125e-10
-8.25758e-10
6.53811e-10
-1.15798e-09
7.48005e-10
-1.52925e-09
8.41231e-10
-1.93905e-09
9.33086e-10
-2.38674e-09
1.02323e-09
-2.87153e-09
1.11139e-09
-3.39253e-09
1.19733e-09
-3.94876e-09
1.28083e-09
-4.53919e-09
1.36175e-09
-5.16267e-09
1.43993e-09
-5.81805e-09
1.51527e-09
-6.50411e-09
1.58767e-09
-7.21958e-09
1.65704e-09
-7.9632e-09
1.72334e-09
-8.73366e-09
1.78652e-09
-9.52962e-09
1.84652e-09
-1.03497e-08
1.90334e-09
-1.11927e-08
1.95694e-09
-1.20571e-08
2.00733e-09
-1.29416e-08
2.05449e-09
-1.38448e-08
2.09843e-09
-1.47654e-08
2.13916e-09
-1.5702e-08
2.17669e-09
-1.66532e-08
2.21104e-09
-1.76178e-08
2.24223e-09
-1.85944e-08
2.27028e-09
-1.95816e-08
2.29522e-09
-2.05782e-08
2.31708e-09
-2.15828e-08
2.33589e-09
-2.25941e-08
2.3517e-09
-2.3611e-08
2.36452e-09
-2.4632e-08
2.37442e-09
-2.56561e-08
2.38141e-09
-2.66819e-08
2.38555e-09
-2.77083e-08
2.38688e-09
-2.87341e-08
2.38544e-09
-2.97581e-08
2.38127e-09
-3.07791e-08
2.37443e-09
-3.1796e-08
2.36496e-09
-3.28078e-08
2.3529e-09
-3.38133e-08
2.3383e-09
-3.48115e-08
2.32122e-09
-3.58013e-08
2.3017e-09
-3.67816e-08
2.27978e-09
-3.77516e-08
2.25553e-09
-3.87101e-08
2.22899e-09
-3.96563e-08
2.20022e-09
-4.05891e-08
2.16925e-09
-4.15078e-08
2.13615e-09
-4.24113e-08
2.10096e-09
-4.32988e-08
2.06375e-09
-4.41694e-08
2.02455e-09
-4.50224e-08
1.98342e-09
-4.58569e-08
1.94042e-09
-4.66721e-08
1.89559e-09
-4.74673e-08
1.849e-09
-4.82416e-08
1.80069e-09
-4.89945e-08
1.75071e-09
-4.97252e-08
1.69912e-09
-5.04331e-08
1.64598e-09
-5.11174e-08
1.59134e-09
-5.17776e-08
1.53525e-09
-5.24131e-08
1.47776e-09
-5.30233e-08
1.41894e-09
-5.36076e-08
1.35883e-09
-5.41655e-08
1.29749e-09
-5.46965e-08
1.23497e-09
-5.52002e-08
1.17134e-09
-5.5676e-08
1.10665e-09
-5.61236e-08
1.04095e-09
-5.65424e-08
9.74303e-10
-5.69323e-08
9.06762e-10
-5.72927e-08
8.38385e-10
-5.76233e-08
7.6923e-10
-5.79239e-08
6.99354e-10
-5.81941e-08
6.28817e-10
-5.84337e-08
5.57677e-10
-5.86425e-08
4.85992e-10
-5.88203e-08
4.13822e-10
-5.89668e-08
3.41227e-10
-5.90819e-08
2.68267e-10
-5.91655e-08
1.95003e-10
-5.92175e-08
1.21496e-10
-5.92378e-08
4.78066e-11
-5.92263e-08
-2.60026e-11
-5.91831e-08
-9.98696e-11
-5.91081e-08
-1.73731e-10
-5.90013e-08
-2.47525e-10
-5.88629e-08
-3.21187e-10
-5.86929e-08
-3.94653e-10
-5.84914e-08
-4.67858e-10
-5.82586e-08
-5.40739e-10
-5.79946e-08
-6.1323e-10
-5.76996e-08
-6.85265e-10
-5.73739e-08
-7.56778e-10
-5.70177e-08
-8.27704e-10
-5.66313e-08
-8.97975e-10
-5.6215e-08
-9.67525e-10
-5.57691e-08
-1.03629e-09
-5.52941e-08
-1.10419e-09
-5.47902e-08
-1.17118e-09
-5.4258e-08
-1.23717e-09
-5.36979e-08
-1.3021e-09
-5.31104e-08
-1.36591e-09
-5.2496e-08
-1.42852e-09
-5.18552e-08
-1.48987e-09
-5.11887e-08
-1.54989e-09
-5.04969e-08
-1.60851e-09
-4.97806e-08
-1.66566e-09
-4.90405e-08
-1.72128e-09
-4.82771e-08
-1.7753e-09
-4.74913e-08
-1.82764e-09
-4.66837e-08
-1.87825e-09
-4.58552e-08
-1.92706e-09
-4.50065e-08
-1.97399e-09
-4.41385e-08
-2.01899e-09
-4.3252e-08
-2.06199e-09
-4.2348e-08
-2.10292e-09
-4.14273e-08
-2.14173e-09
-4.04909e-08
-2.17834e-09
-3.95398e-08
-2.21269e-09
-3.85749e-08
-2.24473e-09
-3.75973e-08
-2.2744e-09
-3.66081e-08
-2.30162e-09
-3.56082e-08
-2.32635e-09
-3.45987e-08
-2.34854e-09
-3.35809e-08
-2.36811e-09
-3.25559e-08
-2.38502e-09
-3.15247e-08
-2.39922e-09
-3.04886e-08
-2.41065e-09
-2.94489e-08
-2.41927e-09
-2.84066e-08
-2.42502e-09
-2.73631e-08
-2.42787e-09
-2.63197e-08
-2.42777e-09
-2.52775e-08
-2.42467e-09
-2.4238e-08
-2.41853e-09
-2.32024e-08
-2.40933e-09
-2.2172e-08
-2.39703e-09
-2.11482e-08
-2.38159e-09
-2.01324e-08
-2.36298e-09
-1.91258e-08
-2.34118e-09
-1.81299e-08
-2.31617e-09
-1.71461e-08
-2.28793e-09
-1.61757e-08
-2.25644e-09
-1.522e-08
-2.2217e-09
-1.42806e-08
-2.18369e-09
-1.33588e-08
-2.14241e-09
-1.24559e-08
-2.09787e-09
-1.15733e-08
-2.05006e-09
-1.07125e-08
-1.99902e-09
-9.87476e-09
-1.94475e-09
-9.06144e-09
-1.88729e-09
-8.27386e-09
-1.82667e-09
-7.51335e-09
-1.76292e-09
-6.78118e-09
-1.69612e-09
-6.07861e-09
-1.62632e-09
-5.40686e-09
-1.55359e-09
-4.76709e-09
-1.47802e-09
-4.16045e-09
-1.39973e-09
-3.58799e-09
-1.31884e-09
-3.05073e-09
-1.23548e-09
-2.5496e-09
-1.14983e-09
-2.08543e-09
-1.06208e-09
-1.65896e-09
-9.72454e-10
-1.27083e-09
-8.81223e-10
-9.21512e-10
-7.88693e-10
-6.11337e-10
-6.95225e-10
-3.40451e-10
-6.01245e-10
-1.08781e-10
-5.07252e-10
8.39932e-11
-4.13837e-10
2.38488e-10
-3.21698e-10
3.55665e-10
-2.31668e-10
4.36886e-10
-1.44741e-10
4.8399e-10
-6.21034e-11
4.99369e-10
1.48176e-11
4.86062e-10
8.43112e-11
4.47849e-10
1.44329e-10
3.89359e-10
1.92433e-10
3.16165e-10
2.25763e-10
2.34856e-10
2.41052e-10
1.53095e-10
2.34751e-10
7.96421e-11
2.03334e-10
2.44877e-11
1.43982e-10
5.62025e-11
2.57922e-11
-8.32103e-11
8.20237e-11
-2.0039e-10
1.53717e-10
-2.72042e-10
2.2911e-10
-3.02764e-10
2.98278e-10
-2.97797e-10
3.52731e-10
-2.62505e-10
3.85233e-10
-2.0197e-10
3.89678e-10
-1.20774e-10
3.60983e-10
-2.29271e-11
2.94989e-10
8.81266e-11
1.8836e-10
2.09465e-10
3.84826e-11
3.38625e-10
-1.56627e-10
4.73536e-10
-3.98406e-10
6.1246e-10
-6.87824e-10
7.53938e-10
-1.02544e-09
8.96744e-10
-1.41148e-09
1.03985e-09
-1.84585e-09
1.18238e-09
-2.32821e-09
1.3236e-09
-2.85802e-09
1.46289e-09
-3.43453e-09
1.59974e-09
-4.05682e-09
1.73369e-09
-4.72387e-09
1.86437e-09
-5.4345e-09
1.99147e-09
-6.18747e-09
2.11472e-09
-6.98143e-09
2.23389e-09
-7.81496e-09
2.3488e-09
-8.68659e-09
2.45929e-09
-9.59479e-09
2.56524e-09
-1.0538e-08
2.66654e-09
-1.15146e-08
2.76311e-09
-1.25229e-08
2.85489e-09
-1.35614e-08
2.94182e-09
-1.46284e-08
3.02388e-09
-1.57221e-08
3.10103e-09
-1.68408e-08
3.17327e-09
-1.7983e-08
3.24061e-09
-1.91469e-08
3.30303e-09
-2.03308e-08
3.36057e-09
-2.1533e-08
3.41325e-09
-2.27518e-08
3.46109e-09
-2.39857e-08
3.50412e-09
-2.52329e-08
3.54239e-09
-2.64917e-08
3.57593e-09
-2.77606e-08
3.60481e-09
-2.9038e-08
3.62906e-09
-3.03222e-08
3.64874e-09
-3.16117e-08
3.66391e-09
-3.29049e-08
3.67462e-09
-3.42003e-08
3.68095e-09
-3.54964e-08
3.68295e-09
-3.67916e-08
3.68069e-09
-3.80846e-08
3.67423e-09
-3.93738e-08
3.66366e-09
-4.06579e-08
3.64902e-09
-4.19354e-08
3.63041e-09
-4.3205e-08
3.60789e-09
-4.44653e-08
3.58153e-09
-4.5715e-08
3.55141e-09
-4.69528e-08
3.51761e-09
-4.81775e-08
3.4802e-09
-4.93878e-08
3.43926e-09
-5.05824e-08
3.39486e-09
-5.17603e-08
3.34709e-09
-5.29201e-08
3.29603e-09
-5.40609e-08
3.24174e-09
-5.51815e-08
3.18432e-09
-5.62808e-08
3.12384e-09
-5.73577e-08
3.06038e-09
-5.84114e-08
2.99403e-09
-5.94406e-08
2.92486e-09
-6.04446e-08
2.85296e-09
-6.14223e-08
2.77841e-09
-6.23729e-08
2.70129e-09
-6.32955e-08
2.62168e-09
-6.41891e-08
2.53967e-09
-6.50531e-08
2.45534e-09
-6.58867e-08
2.36877e-09
-6.66889e-08
2.28005e-09
-6.74593e-08
2.18926e-09
-6.81969e-08
2.09648e-09
-6.89012e-08
2.00181e-09
-6.95716e-08
1.90533e-09
-7.02074e-08
1.80712e-09
-7.0808e-08
1.70726e-09
-7.13729e-08
1.60586e-09
-7.19016e-08
1.50299e-09
-7.23936e-08
1.39874e-09
-7.28484e-08
1.29321e-09
-7.32656e-08
1.18647e-09
-7.36449e-08
1.07862e-09
-7.39858e-08
9.69754e-10
-7.42881e-08
8.59956e-10
-7.45514e-08
7.49319e-10
-7.47755e-08
6.37936e-10
-7.49602e-08
5.25898e-10
-7.51052e-08
4.13299e-10
-7.52105e-08
3.00233e-10
-7.52758e-08
1.86794e-10
-7.5301e-08
7.30772e-11
-7.52862e-08
-4.08217e-11
-7.52313e-08
-1.54807e-10
-7.51362e-08
-2.68781e-10
-7.50011e-08
-3.82646e-10
-7.4826e-08
-4.96304e-10
-7.4611e-08
-6.09656e-10
-7.43562e-08
-7.22603e-10
-7.40619e-08
-8.35045e-10
-7.37283e-08
-9.4688e-10
-7.33555e-08
-1.05801e-09
-7.2944e-08
-1.16833e-09
-7.2494e-08
-1.27774e-09
-7.20058e-08
-1.38613e-09
-7.14799e-08
-1.49341e-09
-7.09167e-08
-1.59947e-09
-7.03167e-08
-1.7042e-09
-6.96804e-08
-1.80751e-09
-6.90083e-08
-1.90928e-09
-6.8301e-08
-2.00942e-09
-6.75591e-08
-2.10781e-09
-6.67833e-08
-2.20435e-09
-6.59742e-08
-2.29895e-09
-6.51326e-08
-2.39149e-09
-6.42592e-08
-2.48186e-09
-6.33549e-08
-2.56997e-09
-6.24205e-08
-2.65571e-09
-6.14568e-08
-2.73898e-09
-6.04648e-08
-2.81967e-09
-5.94454e-08
-2.89767e-09
-5.83995e-08
-2.9729e-09
-5.73283e-08
-3.04523e-09
-5.62327e-08
-3.11459e-09
-5.51138e-08
-3.18085e-09
-5.39728e-08
-3.24393e-09
-5.28108e-08
-3.30373e-09
-5.1629e-08
-3.36014e-09
-5.04286e-08
-3.41308e-09
-4.92109e-08
-3.46245e-09
-4.79771e-08
-3.50816e-09
-4.67287e-08
-3.55012e-09
-4.54668e-08
-3.58823e-09
-4.41929e-08
-3.62241e-09
-4.29084e-08
-3.65258e-09
-4.16148e-08
-3.67865e-09
-4.03135e-08
-3.70055e-09
-3.90059e-08
-3.71819e-09
-3.76937e-08
-3.7315e-09
-3.63783e-08
-3.74041e-09
-3.50613e-08
-3.74484e-09
-3.37444e-08
-3.74474e-09
-3.2429e-08
-3.74004e-09
-3.11169e-08
-3.73068e-09
-2.98096e-08
-3.71661e-09
-2.85088e-08
-3.69777e-09
-2.72163e-08
-3.67411e-09
-2.59337e-08
-3.64561e-09
-2.46627e-08
-3.61221e-09
-2.34049e-08
-3.57389e-09
-2.21623e-08
-3.53062e-09
-2.09363e-08
-3.48237e-09
-1.97289e-08
-3.42915e-09
-1.85417e-08
-3.37092e-09
-1.73764e-08
-3.30771e-09
-1.62347e-08
-3.23951e-09
-1.51184e-08
-3.16634e-09
-1.40292e-08
-3.08823e-09
-1.29688e-08
-3.00521e-09
-1.19387e-08
-2.91733e-09
-1.09408e-08
-2.82464e-09
-9.97645e-09
-2.72723e-09
-9.0474e-09
-2.62518e-09
-8.15513e-09
-2.51859e-09
-7.30113e-09
-2.40759e-09
-6.48683e-09
-2.29232e-09
-5.7136e-09
-2.17296e-09
-4.98274e-09
-2.0497e-09
-4.29544e-09
-1.92278e-09
-3.65282e-09
-1.79245e-09
-3.05586e-09
-1.65903e-09
-2.50544e-09
-1.52287e-09
-2.00227e-09
-1.3844e-09
-1.54689e-09
-1.24408e-09
-1.13963e-09
-1.10248e-09
-7.80621e-10
-9.60257e-10
-4.69702e-10
-8.18172e-10
-2.0642e-10
-6.77119e-10
1.00332e-11
-5.38151e-10
1.80871e-10
-4.02506e-10
3.07776e-10
-2.71646e-10
3.92971e-10
-1.47299e-10
4.39297e-10
-3.1508e-11
4.50297e-10
7.33107e-11
4.30312e-10
1.64314e-10
3.84564e-10
2.3818e-10
3.19253e-10
2.91074e-10
2.41636e-10
3.18669e-10
1.6014e-10
3.16246e-10
8.45276e-11
2.78946e-10
2.6287e-11
2.02222e-10
8.24895e-11
2.48745e-11
-1.08085e-10
7.81371e-11
-2.53653e-10
1.43851e-10
-3.37755e-10
2.09374e-10
-3.68287e-10
2.64135e-10
-3.52559e-10
2.99149e-10
-2.97519e-10
3.06755e-10
-2.09575e-10
2.80449e-10
-9.44686e-11
2.14772e-10
4.275e-11
1.05201e-10
1.97698e-10
-5.19408e-11
3.66607e-10
-2.59575e-10
5.46259e-10
-5.19953e-10
7.33914e-10
-8.3474e-10
9.27246e-10
-1.20508e-09
1.12428e-09
-1.63167e-09
1.32334e-09
-2.11482e-09
1.52299e-09
-2.65448e-09
1.72204e-09
-3.25032e-09
1.91944e-09
-3.90175e-09
2.11433e-09
-4.60797e-09
2.30595e-09
-5.36795e-09
2.49368e-09
-6.18054e-09
2.67696e-09
-7.04443e-09
2.85535e-09
-7.95817e-09
3.02846e-09
-8.92022e-09
3.19595e-09
-9.92897e-09
3.35754e-09
-1.09827e-08
3.51302e-09
-1.20796e-08
3.66217e-09
-1.32179e-08
3.80486e-09
-1.43958e-08
3.94094e-09
-1.56112e-08
4.07033e-09
-1.68623e-08
4.19293e-09
-1.81471e-08
4.3087e-09
-1.94637e-08
4.41759e-09
-2.081e-08
4.51958e-09
-2.2184e-08
4.61466e-09
-2.35839e-08
4.70285e-09
-2.50074e-08
4.78415e-09
-2.64528e-08
4.85858e-09
-2.79179e-08
4.92619e-09
-2.94008e-08
4.98702e-09
-3.08995e-08
5.04112e-09
-3.24121e-08
5.08854e-09
-3.39367e-08
5.12936e-09
-3.54712e-08
5.16363e-09
-3.70139e-08
5.19143e-09
-3.85629e-08
5.21284e-09
-4.01162e-08
5.22794e-09
-4.1672e-08
5.23682e-09
-4.32287e-08
5.23957e-09
-4.47842e-08
5.23627e-09
-4.6337e-08
5.22702e-09
-4.78853e-08
5.21191e-09
-4.94273e-08
5.19105e-09
-5.09614e-08
5.16454e-09
-5.2486e-08
5.13248e-09
-5.39995e-08
5.09496e-09
-5.55001e-08
5.0521e-09
-5.69865e-08
5.00401e-09
-5.84571e-08
4.95078e-09
-5.99104e-08
4.89254e-09
-6.13449e-08
4.82938e-09
-6.27592e-08
4.76142e-09
-6.4152e-08
4.68877e-09
-6.55218e-08
4.61155e-09
-6.68673e-08
4.52986e-09
-6.81873e-08
4.44382e-09
-6.94805e-08
4.35354e-09
-7.07456e-08
4.25914e-09
-7.19815e-08
4.16074e-09
-7.31869e-08
4.05844e-09
-7.43609e-08
3.95237e-09
-7.55022e-08
3.84264e-09
-7.66099e-08
3.72937e-09
-7.76829e-08
3.61268e-09
-7.87203e-08
3.49269e-09
-7.9721e-08
3.36951e-09
-8.06843e-08
3.24327e-09
-8.16091e-08
3.11408e-09
-8.24947e-08
2.98207e-09
-8.33402e-08
2.84736e-09
-8.4145e-08
2.71007e-09
-8.49082e-08
2.57032e-09
-8.56292e-08
2.42824e-09
-8.63072e-08
2.28395e-09
-8.69418e-08
2.13757e-09
-8.75323e-08
1.98923e-09
-8.80782e-08
1.83906e-09
-8.85789e-08
1.68718e-09
-8.9034e-08
1.53372e-09
-8.9443e-08
1.37882e-09
-8.98057e-08
1.22259e-09
-9.01215e-08
1.06517e-09
-9.03903e-08
9.06687e-10
-9.06117e-08
7.47279e-10
-9.07854e-08
5.87075e-10
-9.09114e-08
4.26209e-10
-9.09894e-08
2.64817e-10
-9.10194e-08
1.03033e-10
-9.10012e-08
-5.90064e-11
-9.09348e-08
-2.21164e-10
-9.08203e-08
-3.83301e-10
-9.06577e-08
-5.45279e-10
-9.0447e-08
-7.06958e-10
-9.01885e-08
-8.68197e-10
-8.98822e-08
-1.02885e-09
-8.95285e-08
-1.18879e-09
-8.91275e-08
-1.34785e-09
-8.86796e-08
-1.50591e-09
-8.81851e-08
-1.66281e-09
-8.76445e-08
-1.81841e-09
-8.70581e-08
-1.97256e-09
-8.64264e-08
-2.12511e-09
-8.57499e-08
-2.27593e-09
-8.50292e-08
-2.42485e-09
-8.4265e-08
-2.57174e-09
-8.34578e-08
-2.71645e-09
-8.26084e-08
-2.85882e-09
-8.17175e-08
-2.99871e-09
-8.07859e-08
-3.13596e-09
-7.98144e-08
-3.27044e-09
-7.88039e-08
-3.40199e-09
-7.77553e-08
-3.53046e-09
-7.66696e-08
-3.6557e-09
-7.55477e-08
-3.77757e-09
-7.43908e-08
-3.89592e-09
-7.31999e-08
-4.0106e-09
-7.19761e-08
-4.12146e-09
-7.07206e-08
-4.22837e-09
-6.94347e-08
-4.33117e-09
-6.81195e-08
-4.42973e-09
-6.67765e-08
-4.52389e-09
-6.54069e-08
-4.61353e-09
-6.40121e-08
-4.6985e-09
-6.25936e-08
-4.77867e-09
-6.11528e-08
-4.8539e-09
-5.96912e-08
-4.92406e-09
-5.82103e-08
-4.98901e-09
-5.67118e-08
-5.04864e-09
-5.51972e-08
-5.10281e-09
-5.36682e-08
-5.1514e-09
-5.21265e-08
-5.1943e-09
-5.05738e-08
-5.23138e-09
-4.90118e-08
-5.26254e-09
-4.74423e-08
-5.28766e-09
-4.58672e-08
-5.30664e-09
-4.42882e-08
-5.31938e-09
-4.27073e-08
-5.32578e-09
-4.11263e-08
-5.32575e-09
-3.95471e-08
-5.31921e-09
-3.79717e-08
-5.30606e-09
-3.64021e-08
-5.28625e-09
-3.48402e-08
-5.25969e-09
-3.3288e-08
-5.22632e-09
-3.17475e-08
-5.18609e-09
-3.02208e-08
-5.13894e-09
-2.87098e-08
-5.08483e-09
-2.72167e-08
-5.02374e-09
-2.57434e-08
-4.95563e-09
-2.42921e-08
-4.88048e-09
-2.28647e-08
-4.79829e-09
-2.14634e-08
-4.70907e-09
-2.00901e-08
-4.61283e-09
-1.87468e-08
-4.5096e-09
-1.74356e-08
-4.39942e-09
-1.61585e-08
-4.28234e-09
-1.49174e-08
-4.15845e-09