/*--------------------------------*- C++ -*----------------------------------*\
  =========                 |
  \\      /  F ield         | OpenFOAM: The Open Source CFD Toolbox
   \\    /   O peration     | Website:  https://openfoam.org
    \\  /    A nd           | Version:  7
     \\/     M anipulation  |
\*---------------------------------------------------------------------------*/
FoamFile
{
    version     2.0;
    format      ascii;
    class       volVectorField;
    location    "2.5";
    object      U;
}
// * * * * * * * * * * * * * * * * * * * * * * * * * * * * * * * * * * * * * //

dimensions      [0 1 -1 0 0 0 0];

internalField   nonuniform List<vector> 
2418
(
(2 -1.23645e-15 0)
(2 -2.65643e-15 0)
(2 -3.05163e-15 0)
(2 -2.92336e-15 0)
(2 -2.79851e-15 0)
(2 -2.9898e-15 0)
(2 -4.32771e-15 0)
(2 -5.41476e-15 0)
(2 -4.47364e-15 0)
(2 -3.13522e-15 0)
(2 -2.55902e-15 0)
(2 -1.86255e-15 0)
(2 -1.71134e-15 0)
(2 -1.27623e-16 0)
(2 -1.49078e-17 0)
(2 4.55627e-18 0)
(2 -1.47424e-15 0)
(2 -1.78925e-15 0)
(2 -6.4997e-16 0)
(2 6.06934e-17 0)
(2 1.06502e-16 0)
(2 -5.4985e-16 0)
(2 2.36621e-16 0)
(2 6.35737e-16 0)
(2 -3.40201e-16 0)
(2 -1.14891e-15 0)
(2 -2.22223e-15 0)
(2 -9.81658e-16 0)
(2 -8.60211e-16 0)
(2 -1.21187e-15 0)
(2 -1.22104e-15 0)
(2 -8.68215e-16 0)
(2 -4.90171e-16 0)
(2 -1.19578e-15 0)
(2 -1.57951e-15 0)
(2 -2.00448e-15 0)
(2 -1.42373e-15 0)
(2 -2.21413e-15 0)
(2 -2.70214e-15 0)
(2 -2.93011e-15 0)
(2 -3.29553e-15 0)
(2 -3.83763e-15 0)
(2 7.70993e-16 0)
(2 -5.8876e-16 0)
(2 -3.52117e-16 0)
(2 2.61855e-16 0)
(2 -5.86447e-16 0)
(2 -3.88337e-15 0)
(2 -4.68892e-15 0)
(2 -5.6603e-15 0)
(2 -5.1643e-15 0)
(2 -3.66717e-15 0)
(2 -1.78691e-15 0)
(2 -8.68314e-16 0)
(2 -1.58242e-15 0)
(2 -2.18096e-15 0)
(2 -3.82377e-15 0)
(2 -6.38861e-15 0)
(2 -6.76803e-15 0)
(2 -6.50573e-15 0)
(2 -6.88434e-15 0)
(2 -6.24982e-15 0)
(2 -5.46853e-15 0)
(2 -3.76414e-15 0)
(2 -2.32933e-15 0)
(2 -2.62776e-15 0)
(2 -2.75726e-15 0)
(2 -2.60859e-15 0)
(2 -2.36829e-15 0)
(2 -2.3259e-15 0)
(2 -2.16269e-15 0)
(2 -1.05621e-15 0)
(2 -4.44437e-16 0)
(2 -2.42899e-16 0)
(2 7.84129e-16 0)
(2 4.10084e-15 0)
(2 4.75025e-15 0)
(2 5.42928e-15 0)
(2 5.39693e-15 0)
(2 5.28006e-15 0)
(2 4.24395e-15 0)
(2 3.72612e-15 0)
(2 1.50627e-15 0)
(2 -3.19682e-16 0)
(2 -2.0063e-15 0)
(2 -2.49713e-15 0)
(2 -3.90612e-15 0)
(2 -4.11713e-15 0)
(2 -5.31899e-15 0)
(2 -6.51203e-15 0)
(2 -6.7623e-15 0)
(2 -6.58199e-15 0)
(2 -6.41009e-15 0)
(2 -6.21389e-15 0)
(2 -6.33248e-15 0)
(2 -5.83511e-15 0)
(2 -4.56147e-15 0)
(2 -4.45983e-15 0)
(2 -3.55121e-15 0)
(2 -1.62308e-15 0)
(2 7.17732e-16 0)
(2 8.17739e-16 0)
(2 8.91239e-16 0)
(2 1.41922e-15 0)
(2 1.0625e-15 0)
(2 3.08171e-16 0)
(2 -1.64926e-15 0)
(2 -1.37027e-15 0)
(2 -7.27e-17 0)
(2 8.45378e-16 0)
(2 8.2457e-16 0)
(2 7.33722e-16 0)
(2 5.97425e-16 0)
(2 9.61698e-16 0)
(2 3.41072e-15 0)
(2 3.15413e-15 0)
(2 2.04416e-15 0)
(2 2.40272e-15 0)
(2 1.38555e-15 0)
(2 7.91062e-16 0)
(2 -1.37387e-15 0)
(2 -2.10926e-15 0)
(2 -3.23068e-15 0)
(2 -4.16654e-15 0)
(2 -4.8985e-15 0)
(2 -5.30745e-15 0)
(2 -5.82407e-15 0)
(2 -5.79086e-15 0)
(2 -6.22844e-15 0)
(2 -6.14314e-15 0)
(2 -2.04895e-16 0)
(2 -2.13287e-15 0)
(2 -1.48018e-15 0)
(2 -1.71271e-15 0)
(2 -1.98179e-15 0)
(2 -2.15718e-15 0)
(2 -1.7517e-15 0)
(2 -2.59935e-15 0)
(2 -3.34507e-15 0)
(2 -2.78493e-15 0)
(2 -1.45045e-15 0)
(2 -1.14782e-15 0)
(2 -2.67956e-15 0)
(2 -3.43441e-15 0)
(2 -5.01113e-15 0)
(2 -5.70476e-15 0)
(2 -6.65437e-15 0)
(2 -6.31301e-15 0)
(2 -5.38402e-15 0)
(2 -5.49718e-15 0)
(2 -5.20073e-15 0)
(2 -5.79385e-15 0)
(2 -5.59134e-15 0)
(2 -4.23396e-15 0)
(2 -2.79085e-15 0)
(2 -2.85828e-15 0)
(2 -2.59139e-15 0)
(2 -2.40699e-15 0)
(2 -1.05762e-15 0)
(2 -1.05051e-15 0)
(2 -6.75018e-16 0)
(2 -6.79357e-16 0)
(2 -2.09401e-17 0)
(2 7.30094e-17 0)
(2 -5.18245e-16 0)
(2 -4.10414e-16 0)
(2 2.58527e-16 0)
(2 2.44983e-15 0)
(2 2.79922e-15 0)
(2 1.82809e-15 0)
(2 5.48354e-16 0)
(2 -9.25266e-18 0)
(2 -1.19506e-15 0)
(2 -2.90066e-15 0)
(2 -5.68893e-15 0)
(2 -7.88232e-15 0)
(2 -8.46996e-15 0)
(2 -6.69674e-15 0)
(2 -6.17326e-15 0)
(2 -7.28757e-15 0)
(2 -7.01288e-15 0)
(2 -6.14172e-15 0)
(2 -5.11252e-15 0)
(2 -4.30645e-15 0)
(2 -4.23256e-15 0)
(2 -4.16636e-15 0)
(2 -3.33245e-15 0)
(2 -2.37025e-15 0)
(2 -9.48726e-16 0)
(2 -1.66327e-15 0)
(2 -1.7139e-15 0)
(2 -1.63692e-15 0)
(2 -1.45276e-15 0)
(2 -1.43785e-15 0)
(2 -1.97906e-15 0)
(2 -2.15492e-15 0)
(2 -1.27406e-15 0)
(2 1.76132e-16 0)
(2 -1.53539e-16 0)
(2 3.47938e-16 0)
(2 1.13259e-15 0)
(2 3.5988e-15 0)
(2 4.87142e-15 0)
(2 3.55297e-15 0)
(2 2.32501e-15 0)
(2 1.83362e-15 0)
(2 1.55645e-15 0)
(2 1.01121e-15 0)
(2 1.49807e-16 0)
(2 -1.02545e-15 0)
(2 -2.30724e-15 0)
(2 -3.23966e-15 0)
(2 -4.17895e-15 0)
(2 -4.77689e-15 0)
(2 -5.02546e-15 0)
(2 -5.38743e-15 0)
(2 -6.43326e-15 0)
(2 -5.98831e-15 0)
(2 -5.28407e-15 0)
(2 -3.51127e-15 0)
(2 -3.13312e-15 0)
(2 -2.93244e-15 0)
(2 -1.65011e-15 0)
(2 -5.07718e-16 0)
(2 1.53381e-15 0)
(2 2.4637e-15 0)
(2 2.52808e-15 0)
(2 1.20161e-15 0)
(2 1.05482e-15 0)
(2 -5.53e-16 0)
(2 -1.13771e-15 0)
(2 -2.22011e-15 0)
(2 -2.20517e-15 0)
(2 -2.54094e-15 0)
(2 -3.31501e-15 0)
(2 -3.42749e-15 0)
(2 -2.37243e-15 0)
(2 -2.20589e-15 0)
(2 -3.82374e-15 0)
(2 -4.32731e-15 0)
(2 -4.62222e-15 0)
(2 -4.50073e-15 0)
(2 -3.54354e-15 0)
(2 -3.65916e-15 0)
(2 -3.8007e-15 0)
(2 -2.82959e-15 0)
(2 -2.01282e-15 0)
(2 -2.34117e-15 0)
(2 -2.29237e-15 0)
(2 -3.11896e-15 0)
(2 -3.35429e-15 0)
(2 -4.63026e-15 0)
(2 -3.82656e-15 0)
(2 -2.76347e-15 0)
(2 -2.39983e-15 0)
(2 -2.6532e-15 0)
(2 -2.73102e-15 0)
(2 -2.00321e-15 0)
(2 -1.47447e-15 0)
(2 -1.20715e-15 0)
(2 -1.67846e-15 0)
(2 -2.48136e-15 0)
(2 -2.60103e-15 0)
(2 -3.10252e-15 0)
(2 -3.417e-15 0)
(2 -3.65196e-15 0)
(2 -3.01374e-15 0)
(2 -2.18023e-15 0)
(2 -1.93716e-15 0)
(2 -1.15524e-15 0)
(2 -2.26155e-16 0)
(2 -7.62875e-16 0)
(2 -1.6682e-15 0)
(2 -2.61055e-15 0)
(2 -3.6051e-15 0)
(2 -3.60731e-15 0)
(2 -3.5453e-15 0)
(2 -3.63735e-15 0)
(2 -4.35879e-15 0)
(2 -4.4919e-15 0)
(2 -3.60055e-15 0)
(2 -3.09531e-15 0)
(2 -2.2098e-15 0)
(2 -2.12286e-15 0)
(2 -2.03666e-15 0)
(2 -1.93602e-15 0)
(2 -1.60866e-15 0)
(2 -1.79383e-15 0)
(2 -9.26945e-16 0)
(2 -8.43108e-16 0)
(2 -1.10221e-15 0)
(2 -8.98087e-16 0)
(2 -1.08594e-15 0)
(2 -8.23868e-16 0)
(2 -4.03247e-16 0)
(2 -7.32241e-16 0)
(2 -1.42845e-15 0)
(2 -2.5556e-15 0)
(2 -3.73797e-15 0)
(2 -4.58538e-15 0)
(2 -5.07244e-15 0)
(2 -5.29213e-15 0)
(2 -6.2486e-15 0)
(2 -6.04266e-15 0)
(2 -5.39294e-15 0)
(2 -4.99289e-15 0)
(2 -5.2883e-15 0)
(2 -4.63715e-15 0)
(2 -3.86448e-15 0)
(2 -1.59308e-15 0)
(2 1.74485e-15 0)
(2 5.28781e-15 0)
(2 5.75153e-15 0)
(2 4.58113e-15 0)
(2 3.87887e-15 0)
(2 1.63144e-15 0)
(2 9.56893e-16 0)
(2 -2.35828e-17 0)
(2 -1.55401e-15 0)
(2 -1.58603e-15 0)
(2 -9.03433e-16 0)
(2 -1.56621e-16 0)
(2 -3.34355e-16 0)
(2 -1.88391e-15 0)
(2 -1.64903e-15 0)
(2 -1.00752e-15 0)
(2 -6.34174e-16 0)
(2 2.98328e-16 0)
(2 1.53907e-16 0)
(2 -9.69073e-17 0)
(2 -1.15059e-15 0)
(2 -3.45896e-15 0)
(2 -4.20496e-15 0)
(2 -3.85188e-15 0)
(2 -3.9343e-15 0)
(2 -5.14504e-15 0)
(2 -6.33183e-15 0)
(2 -7.24814e-15 0)
(2 -7.20814e-15 0)
(2 -6.67314e-15 0)
(2 -5.37057e-15 0)
(2 -4.19894e-15 0)
(2 -4.66658e-15 0)
(2 -6.98476e-15 0)
(2 -6.0649e-15 0)
(2 -4.28711e-15 0)
(2 -3.34444e-15 0)
(2 -3.69719e-15 0)
(2 -3.93784e-15 0)
(2 -3.32609e-15 0)
(2 -2.21881e-15 0)
(2 -1.73784e-16 0)
(2 -1.35849e-15 0)
(2 -2.30433e-15 0)
(2 -2.26551e-15 0)
(2 -1.31068e-15 0)
(2 -1.03741e-15 0)
(2 -8.65387e-16 0)
(2 -1.67661e-15 0)
(2 -1.18834e-15 0)
(2 -1.26673e-15 0)
(2 -2.79129e-15 0)
(2 -2.42267e-15 0)
(2 -2.3834e-15 0)
(2 -3.87607e-15 0)
(2 -4.28051e-15 0)
(2 -4.09356e-15 0)
(2 -3.91669e-15 0)
(2 -3.77747e-15 0)
(2 -2.77054e-15 0)
(2 -1.36057e-15 0)
(2 -6.71012e-16 0)
(2 -1.49477e-15 0)
(2 -2.34897e-15 0)
(2 -1.75925e-15 0)
(2 -2.12361e-15 0)
(2 -1.21954e-15 0)
(2 -2.54057e-15 0)
(2 -2.52885e-15 0)
(2 -1.58965e-15 0)
(2 -1.63336e-15 0)
(2 -2.25165e-15 0)
(2 -4.06065e-15 0)
(2 -5.43151e-15 0)
(2 -5.98945e-15 0)
(2 -6.3058e-15 0)
(2 -6.51743e-15 0)
(2 -6.92665e-15 0)
(2 -7.16463e-15 0)
(2 -6.73747e-15 0)
(2 -6.51888e-15 0)
(2 -5.55067e-15 0)
(2 -3.97936e-15 0)
(2 -3.3156e-15 0)
(2 1.52641e-16 0)
(2 -2.79032e-16 0)
(2 5.75663e-16 0)
(2 2.57707e-15 0)
(2 3.84167e-15 0)
(2 3.43387e-15 0)
(2 1.81942e-15 0)
(2 1.03957e-15 0)
(2 -6.74958e-16 0)
(2 -1.70475e-15 0)
(2 -1.25454e-15 0)
(2 -9.65381e-16 0)
(2 -9.58091e-16 0)
(2 -6.48558e-16 0)
(2 -9.41544e-16 0)
(2 -1.44352e-15 0)
(2 -1.66508e-15 0)
(2 -2.11162e-15 0)
(2 -1.15373e-15 0)
(2 -7.79812e-16 0)
(2 2.26848e-16 0)
(2 9.01755e-16 0)
(2 1.42563e-15 0)
(2 1.6928e-15 0)
(2 6.61406e-16 0)
(2 -1.79178e-16 0)
(2 -1.23781e-15 0)
(2 -2.21467e-15 0)
(2 -2.52024e-15 0)
(2 -4.84506e-15 0)
(2 -5.29431e-15 0)
(2 -5.79238e-15 0)
(2 -5.80115e-15 0)
(2 -5.94866e-15 0)
(2 -6.78419e-15 0)
(2 -7.28572e-15 0)
(2 -7.09695e-15 0)
(2 -7.13914e-15 0)
(2 -7.05523e-15 0)
(2 -7.23229e-15 0)
(2 -6.29665e-15 0)
(2 -6.60226e-15 0)
(2 -5.12304e-15 0)
(2 -4.50192e-15 0)
(2 -4.80363e-15 0)
(2 -2.77715e-15 0)
(2 -2.37992e-15 0)
(2 -2.1501e-15 0)
(2 -2.04155e-15 0)
(2 -2.27907e-15 0)
(2 -1.57964e-15 0)
(2 -1.19203e-15 0)
(2 -1.19183e-15 0)
(2 -1.37369e-15 0)
(2 -1.89543e-15 0)
(2 -2.00831e-15 0)
(2 -1.04659e-15 0)
(2 -2.93221e-16 0)
(2 -1.25455e-15 0)
(2 -2.60685e-15 0)
(2 -2.67145e-15 0)
(2 -2.66386e-15 0)
(2 -2.39108e-15 0)
(2 -4.34338e-16 0)
(2 9.32454e-16 0)
(2 1.01695e-15 0)
(2 -2.71054e-16 0)
(2 -8.30441e-16 0)
(2 -1.48887e-15 0)
(2 -1.27448e-15 0)
(2 -1.51596e-15 0)
(2 -1.53793e-15 0)
(2 -1.5973e-15 0)
(2 -2.56154e-15 0)
(2 -2.82891e-15 0)
(2 -3.97073e-15 0)
(2 -5.41082e-15 0)
(2 -5.80006e-15 0)
(2 -6.12741e-15 0)
(2 -5.41885e-15 0)
(2 -5.07843e-15 0)
(2 -4.94807e-15 0)
(2 -5.10936e-15 0)
(2 -3.4917e-15 0)
(2 -1.51508e-15 0)
(2 -1.8814e-15 0)
(2 -2.16111e-15 0)
(2 -1.97715e-15 0)
(2 2.45378e-15 0)
(2 3.9511e-15 0)
(2 2.9232e-15 0)
(2 2.07104e-15 0)
(2 4.4965e-16 0)
(2 -1.19906e-15 0)
(2 -3.21354e-15 0)
(2 -4.09973e-15 0)
(2 -4.1088e-15 0)
(2 -3.37682e-15 0)
(2 -3.50398e-15 0)
(2 -2.22989e-15 0)
(2 -4.57111e-16 0)
(2 -4.02054e-16 0)
(2 -1.20635e-15 0)
(2 -1.14635e-15 0)
(2 -1.12876e-15 0)
(2 -7.32031e-16 0)
(2 -1.88996e-16 0)
(2 1.35772e-15 0)
(2 2.20024e-15 0)
(2 3.01636e-15 0)
(2 3.16373e-15 0)
(2 3.10081e-15 0)
(2 2.41084e-15 0)
(2 2.3763e-15 0)
(2 1.68228e-15 0)
(2 5.95399e-17 0)
(2 -2.09274e-15 0)
(2 -3.09127e-15 0)
(2 -4.03684e-15 0)
(2 -4.74419e-15 0)
(2 -4.85227e-15 0)
(2 -4.83617e-15 0)
(2 -6.46086e-15 0)
(2 -6.55386e-15 0)
(2 -5.8481e-15 0)
(2 -4.69305e-15 0)
(2 -5.50627e-15 0)
(2 -5.44752e-15 0)
(2 -5.43777e-15 0)
(2 -4.66974e-15 0)
(2 -3.94048e-15 0)
(2 -4.21418e-15 0)
(2 -4.18761e-15 0)
(2 -3.44161e-15 0)
(2 -1.77483e-15 0)
(2 1.29183e-16 0)
(2 7.03313e-16 0)
(2 8.11303e-16 0)
(2 1.83368e-15 0)
(2 2.02823e-15 0)
(2 2.67637e-15 0)
(2 1.79685e-15 0)
(2 9.44908e-16 0)
(2 1.56476e-15 0)
(2 -1.03109e-15 0)
(2 -9.45203e-16 0)
(2 -1.02514e-15 0)
(2 -4.25931e-16 0)
(2 -7.45628e-16 0)
(2 -8.2662e-16 0)
(2 -1.61494e-16 0)
(2 1.42965e-15 0)
(2 1.11904e-15 0)
(2 7.57485e-16 0)
(2 1.05224e-15 0)
(2 1.22429e-15 0)
(2 5.2821e-17 0)
(2 3.66089e-16 0)
(2 -1.68276e-15 0)
(2 -2.31316e-15 0)
(2 -3.50062e-15 0)
(2 -4.70444e-15 0)
(2 -5.98556e-15 0)
(2 -6.89238e-15 0)
(2 -6.52393e-15 0)
(2 -7.21654e-15 0)
(2 -7.34361e-15 0)
(2 -6.44259e-15 0)
(2 -4.90841e-15 0)
(2 -2.36241e-15 0)
(2 -1.01951e-15 0)
(2 -1.56811e-15 0)
(2 -1.43227e-15 0)
(2 -1.95879e-15 0)
(2 -2.3326e-15 0)
(2 -2.71888e-15 0)
(2 -2.04796e-15 0)
(2 -1.63356e-15 0)
(2 -1.96718e-15 0)
(2 -3.53467e-15 0)
(2 -4.14189e-15 0)
(2 -4.05218e-15 0)
(2 -3.4224e-15 0)
(2 -3.39099e-15 0)
(2 -4.12229e-15 0)
(2 -3.32275e-15 0)
(2 -3.8096e-15 0)
(2 -2.78935e-15 0)
(2 -7.78213e-16 0)
(2 -2.4719e-16 0)
(2 -1.60729e-16 0)
(2 4.55257e-16 0)
(2 8.37607e-16 0)
(2 1.59984e-15 0)
(2 3.12398e-15 0)
(2 4.43175e-15 0)
(2 4.84562e-15 0)
(2 4.50389e-15 0)
(2 3.74185e-15 0)
(2 1.92579e-15 0)
(2 1.26886e-15 0)
(2 1.56766e-15 0)
(2 9.24688e-16 0)
(2 5.46055e-17 0)
(2 -2.6767e-15 0)
(2 -2.7561e-15 0)
(2 -3.65609e-15 0)
(2 -3.34146e-15 0)
(2 -3.12067e-15 0)
(2 -3.0868e-15 0)
(2 -3.0645e-15 0)
(2 -3.49421e-15 0)
(2 -3.73053e-15 0)
(2 -3.28673e-15 0)
(2 -3.22194e-15 0)
(2 -3.33916e-15 0)
(2 -3.84169e-15 0)
(2 -1.19375e-15 0)
(2 -7.88537e-16 0)
(2 -5.54202e-16 0)
(2 1.29171e-15 0)
(2 9.5248e-16 0)
(2 8.20401e-16 0)
(2 1.23967e-15 0)
(2 1.88914e-15 0)
(2 3.28969e-15 0)
(2 3.93382e-15 0)
(2 3.97444e-15 0)
(2 3.37289e-15 0)
(2 2.45766e-15 0)
(2 2.38264e-15 0)
(2 2.72426e-15 0)
(2 1.95704e-15 0)
(2 1.05303e-15 0)
(2 1.45852e-15 0)
(2 2.20386e-15 0)
(2 2.3348e-15 0)
(2 2.3585e-15 0)
(2 2.18982e-15 0)
(2 1.39779e-15 0)
(2 1.68469e-15 0)
(2 1.02456e-15 0)
(2 4.83621e-17 0)
(2 -1.13263e-15 0)
(2 -7.43529e-16 0)
(2 -8.42802e-16 0)
(2 -5.65106e-16 0)
(2 -1.64576e-15 0)
(2 -2.79304e-15 0)
(2 -4.31013e-15 0)
(2 -5.30555e-15 0)
(2 -5.70026e-15 0)
(2 -5.26661e-15 0)
(2 -4.72661e-15 0)
(2 -3.91495e-15 0)
(2 -3.20475e-15 0)
(2 -2.83428e-15 0)
(2 -2.29295e-15 0)
(2 -1.73461e-15 0)
(2 -1.92294e-15 0)
(2 -2.29406e-15 0)
(2 -2.52153e-15 0)
(2 -2.72933e-15 0)
(2 -2.91393e-15 0)
(2 -5.30157e-15 0)
(2 -6.22794e-15 0)
(2 -6.65982e-15 0)
(2 -6.82707e-15 0)
(2 -6.36708e-15 0)
(2 -6.28231e-15 0)
(2 -5.24973e-15 0)
(2 -2.72051e-15 0)
(2 -2.19588e-15 0)
(2 -2.01947e-15 0)
(2 -2.64151e-15 0)
(2 -2.5063e-15 0)
(2 -1.90037e-15 0)
(2 -5.26992e-16 0)
(2 4.68134e-16 0)
(2 1.32141e-15 0)
(2 2.45823e-15 0)
(2 4.09626e-15 0)
(2 5.08474e-15 0)
(2 5.3185e-15 0)
(2 4.99427e-15 0)
(2 4.44911e-15 0)
(2 2.17075e-15 0)
(2 6.32319e-16 0)
(2 3.78866e-16 0)
(2 -7.07177e-16 0)
(2 -9.63276e-16 0)
(2 -7.7314e-16 0)
(2 -1.01375e-15 0)
(2 -6.59744e-16 0)
(2 -6.00264e-16 0)
(2 -1.36283e-16 0)
(2 -5.26668e-17 0)
(2 -5.41836e-16 0)
(2 -1.13734e-16 0)
(2 -8.98509e-16 0)
(2 -1.71131e-15 0)
(2 -1.23021e-15 0)
(2 -1.19132e-15 0)
(2 -7.01e-16 0)
(2 -6.61011e-16 0)
(2 7.25053e-16 0)
(2 1.35388e-15 0)
(2 1.57607e-15 0)
(2 2.32607e-15 0)
(2 2.31565e-15 0)
(2 1.69647e-15 0)
(2 6.56345e-16 0)
(2 1.0241e-15 0)
(2 2.4949e-15 0)
(2 2.78118e-15 0)
(2 3.17834e-15 0)
(2 3.7693e-15 0)
(2 3.22914e-15 0)
(2 3.55331e-15 0)
(2 3.99777e-15 0)
(2 4.71552e-15 0)
(2 4.425e-15 0)
(2 4.13525e-15 0)
(2 3.16961e-15 0)
(2 3.36312e-15 0)
(2 4.25666e-15 0)
(2 4.10314e-15 0)
(2 2.89918e-15 0)
(2 2.09586e-15 0)
(2 2.65261e-16 0)
(2 -9.28986e-16 0)
(2 -1.38724e-15 0)
(2 -2.42725e-15 0)
(2 -2.69645e-15 0)
(2 -3.06414e-15 0)
(2 -2.74226e-15 0)
(2 -2.32072e-15 0)
(2 -2.0882e-15 0)
(2 -2.31961e-15 0)
(2 -2.80989e-15 0)
(2 -2.74231e-15 0)
(2 -2.28298e-15 0)
(2 -1.43188e-15 0)
(2 -7.91564e-16 0)
(2 -8.77467e-16 0)
(2 -1.08593e-15 0)
(2 -1.22338e-15 0)
(2 -1.30469e-15 0)
(2 -1.441e-15 0)
(2 -1.65977e-15 0)
(2 -1.88427e-15 0)
(2 -2.21857e-15 0)
(2 -3.06724e-15 0)
(2 -4.36506e-15 0)
(2 -6.06183e-15 0)
(2 -5.41194e-15 0)
(2 -5.00071e-15 0)
(2 -4.72122e-15 0)
(2 -4.01036e-15 0)
(2 -4.26347e-15 0)
(2 -1.3604e-15 0)
(2 -9.57186e-16 0)
(2 -7.92722e-16 0)
(2 -1.08826e-15 0)
(2 -1.11225e-15 0)
(2 8.92289e-16 0)
(2 2.15003e-15 0)
(2 3.12304e-15 0)
(2 3.68272e-15 0)
(2 3.41933e-15 0)
(2 3.38491e-15 0)
(2 2.47886e-15 0)
(2 1.74513e-15 0)
(2 1.83399e-15 0)
(2 8.90193e-16 0)
(2 1.28647e-15 0)
(2 1.36663e-15 0)
(2 2.99206e-17 0)
(2 -1.23358e-15 0)
(2 -1.17743e-15 0)
(2 -6.66619e-16 0)
(2 -3.09262e-16 0)
(2 8.28676e-16 0)
(2 7.92667e-16 0)
(2 5.89985e-16 0)
(2 4.87978e-16 0)
(2 8.85459e-16 0)
(2 1.68278e-15 0)
(2 1.51088e-15 0)
(2 1.32766e-15 0)
(2 2.20846e-15 0)
(2 2.32416e-15 0)
(2 3.81608e-15 0)
(2 3.83622e-15 0)
(2 3.8672e-15 0)
(2 4.0681e-15 0)
(2 3.93628e-15 0)
(2 3.74125e-15 0)
(2 3.26584e-15 0)
(2 2.54008e-15 0)
(2 2.89289e-15 0)
(2 1.58465e-15 0)
(2 7.05042e-16 0)
(2 2.08562e-16 0)
(2 1.04941e-15 0)
(2 2.22002e-15 0)
(2 3.61979e-15 0)
(2 4.07044e-15 0)
(2 3.57334e-15 0)
(2 3.89291e-15 0)
(2 4.11855e-15 0)
(2 4.07795e-15 0)
(2 3.96568e-15 0)
(2 3.72435e-15 0)
(2 2.90959e-15 0)
(2 2.47997e-15 0)
(2 -1.25837e-17 0)
(2 -9.84605e-16 0)
(2 -6.02486e-16 0)
(2 -3.7063e-16 0)
(2 -3.19582e-16 0)
(2 -2.45245e-15 0)
(2 -5.11106e-15 0)
(2 -4.55098e-15 0)
(2 -3.39744e-15 0)
(2 -2.41307e-15 0)
(2 -2.56589e-15 0)
(2 -2.7285e-15 0)
(2 -2.49897e-15 0)
(2 -1.74224e-15 0)
(2 -1.76703e-15 0)
(2 -1.73773e-15 0)
(2 -1.55668e-15 0)
(2 -1.42221e-15 0)
(2 -1.17636e-15 0)
(2 -6.49012e-16 0)
(2 -7.9382e-16 0)
(2 -1.10418e-15 0)
(2 -1.41074e-15 0)
(2 -2.1922e-15 0)
(2 -1.15402e-15 0)
(2 -2.17562e-15 0)
(2 -2.86254e-15 0)
(2 -3.28977e-15 0)
(2 -3.76516e-15 0)
(2 -4.70675e-15 0)
(2 -4.97251e-15 0)
(2 -4.89578e-15 0)
(2 -4.15007e-15 0)
(2 -3.62547e-15 0)
(2 -2.66788e-15 0)
(2 -9.91373e-16 0)
(2 3.69945e-16 0)
(2 1.22542e-16 0)
(2 3.06966e-16 0)
(2 9.15213e-16 0)
(2 1.39973e-15 0)
(2 1.94156e-15 0)
(2 8.44207e-16 0)
(2 1.19083e-15 0)
(2 4.81118e-16 0)
(2 7.10883e-16 0)
(2 8.90058e-16 0)
(2 1.28181e-15 0)
(2 1.49807e-15 0)
(2 1.80069e-15 0)
(2 1.05041e-15 0)
(2 1.00459e-15 0)
(2 9.47324e-16 0)
(2 9.36529e-16 0)
(2 1.6529e-15 0)
(2 1.21029e-15 0)
(2 1.40436e-15 0)
(2 1.49372e-15 0)
(2 1.61262e-15 0)
(2 2.37458e-15 0)
(2 2.7732e-15 0)
(2 2.68157e-15 0)
(2 2.45018e-15 0)
(2 2.49211e-15 0)
(2 2.76295e-15 0)
(2 2.90684e-15 0)
(2 3.23151e-15 0)
(2 3.65532e-15 0)
(2 4.24942e-15 0)
(2 4.36205e-15 0)
(2 4.49495e-15 0)
(2 4.20056e-15 0)
(2 3.38499e-15 0)
(2 2.97683e-15 0)
(2 2.12839e-15 0)
(2 2.16598e-15 0)
(2 1.42279e-15 0)
(2 6.62973e-16 0)
(2 6.92009e-16 0)
(2 8.4435e-16 0)
(2 3.6665e-16 0)
(2 8.2943e-16 0)
(2 1.25327e-15 0)
(2 1.17878e-15 0)
(2 9.87478e-16 0)
(2 4.9914e-16 0)
(2 -1.03659e-15 0)
(2 -1.7468e-15 0)
(2 -3.00339e-15 0)
(2 -4.09273e-15 0)
(2 -2.85219e-15 0)
(2 -2.74567e-15 0)
(2 -3.19243e-15 0)
(2 -1.84766e-15 0)
(2 -2.49142e-15 0)
(2 -2.87633e-15 0)
(2 -3.55903e-15 0)
(2 -3.62084e-15 0)
(2 -2.94501e-15 0)
(2 -2.54294e-15 0)
(2 -2.62082e-15 0)
(2 -3.25312e-15 0)
(2 -3.86708e-15 0)
(2 -4.30237e-15 0)
(2 -4.16035e-15 0)
(2 -3.62656e-15 0)
(2 -2.97593e-15 0)
(2 -2.17408e-15 0)
(2 -2.32872e-15 0)
(2 -2.49368e-15 0)
(2 -2.82246e-15 0)
(2 -2.74929e-15 0)
(2 -3.25415e-15 0)
(2 -2.26115e-15 0)
(2 -3.01949e-15 0)
(2 -3.29713e-15 0)
(2 -4.76513e-15 0)
(2 -5.96149e-15 0)
(2 -6.41234e-15 0)
(2 -6.2188e-15 0)
(2 -5.34182e-15 0)
(2 -4.46211e-15 0)
(2 -2.06407e-15 0)
(2 -1.16331e-15 0)
(2 -9.16421e-16 0)
(2 -8.08634e-16 0)
(2 -1.089e-15 0)
(2 -1.36706e-15 0)
(2 -4.78878e-16 0)
(2 -2.88784e-16 0)
(2 -1.04008e-15 0)
(2 -5.28801e-16 0)
(2 -6.61442e-16 0)
(2 -2.60775e-16 0)
(2 1.45119e-15 0)
(2 1.61168e-15 0)
(2 1.47272e-15 0)
(2 2.37128e-15 0)
(2 3.97357e-15 0)
(2 3.58177e-15 0)
(2 3.19129e-15 0)
(2 2.63845e-15 0)
(2 2.11638e-15 0)
(2 2.05315e-15 0)
(2 1.20957e-15 0)
(2 1.59116e-15 0)
(2 2.41785e-15 0)
(2 2.28318e-15 0)
(2 2.48686e-15 0)
(2 1.98507e-15 0)
(2 9.97812e-16 0)
(2 7.92036e-16 0)
(2 1.36504e-15 0)
(2 1.9719e-15 0)
(2 2.68388e-15 0)
(2 3.11649e-15 0)
(2 3.1963e-15 0)
(2 4.34965e-15 0)
(2 4.42619e-15 0)
(2 4.22532e-15 0)
(2 2.9996e-15 0)
(2 2.40442e-15 0)
(2 2.36391e-15 0)
(2 1.96426e-15 0)
(2 1.97507e-15 0)
(2 1.53764e-15 0)
(2 1.31619e-15 0)
(2 -1.00044e-15 0)
(2 6.43284e-18 0)
(2 -6.76208e-16 0)
(2 -2.36585e-15 0)
(2 -2.8579e-15 0)
(2 -3.48095e-15 0)
(2 -3.27715e-15 0)
(2 -3.16263e-15 0)
(2 -3.22784e-15 0)
(2 -4.2562e-15 0)
(2 -4.01767e-15 0)
(2 -3.96911e-15 0)
(2 -4.06573e-15 0)
(2 -4.06646e-15 0)
(2 -3.4926e-15 0)
(2 -3.43081e-15 0)
(2 -3.52698e-15 0)
(2 -4.04822e-15 0)
(2 -4.53547e-15 0)
(2 -4.35628e-15 0)
(2 -3.91647e-15 0)
(2 -3.93524e-15 0)
(2 -4.55566e-15 0)
(2 -4.40489e-15 0)
(2 -3.62891e-15 0)
(2 -1.92792e-15 0)
(2 -1.83788e-16 0)
(2 1.80291e-15 0)
(2 1.17705e-15 0)
(2 1.39632e-15 0)
(2 1.37794e-15 0)
(2 1.37979e-15 0)
(2 1.46561e-15 0)
(2 -3.16785e-15 0)
(2 -3.23986e-15 0)
(2 -3.96218e-15 0)
(2 -5.16723e-15 0)
(2 -5.00101e-15 0)
(2 -5.19425e-15 0)
(2 -5.08935e-15 0)
(2 -5.10195e-15 0)
(2 -4.90378e-15 0)
(2 -4.65061e-15 0)
(2 -3.7136e-15 0)
(2 -3.69918e-15 0)
(2 -3.68612e-15 0)
(2 -3.07906e-15 0)
(2 -3.19935e-15 0)
(2 -3.59065e-15 0)
(2 -3.65299e-15 0)
(2 -3.68735e-15 0)
(2 -3.28757e-15 0)
(2 -2.88483e-15 0)
(2 -3.5453e-15 0)
(2 -4.8207e-15 0)
(2 -3.23375e-15 0)
(2 -2.67361e-15 0)
(2 -1.30732e-15 0)
(2 -3.53492e-17 0)
(2 1.59672e-15 0)
(2 2.17519e-15 0)
(2 3.21758e-15 0)
(2 3.32823e-15 0)
(2 3.30354e-15 0)
(2 3.19313e-15 0)
(2 2.27608e-15 0)
(2 2.42153e-15 0)
(2 2.55415e-15 0)
(2 1.61536e-15 0)
(2 1.21764e-15 0)
(2 8.69419e-16 0)
(2 1.23254e-15 0)
(2 1.38901e-15 0)
(2 1.76636e-15 0)
(2 2.52534e-15 0)
(2 2.55216e-15 0)
(2 3.0447e-15 0)
(2 2.67127e-15 0)
(2 2.6234e-15 0)
(2 2.4456e-15 0)
(2 3.40092e-15 0)
(2 3.19473e-15 0)
(2 2.50355e-15 0)
(2 1.83049e-15 0)
(2 8.94382e-16 0)
(2 1.30838e-15 0)
(2 1.54297e-15 0)
(2 1.3512e-15 0)
(2 1.89013e-16 0)
(2 -6.59529e-17 0)
(2 -1.43183e-16 0)
(2 6.07189e-17 0)
(2 4.34826e-16 0)
(2 3.03595e-16 0)
(2 -4.12798e-16 0)
(2 -1.94612e-15 0)
(2 -2.94269e-15 0)
(2 -2.76401e-15 0)
(2 -2.1175e-15 0)
(2 -3.01033e-15 0)
(2 -2.96107e-15 0)
(2 -2.76109e-15 0)
(2 -2.74e-15 0)
(2 -2.1684e-15 0)
(2 -1.57847e-15 0)
(2 -1.70332e-15 0)
(2 -2.23251e-15 0)
(2 -2.36195e-15 0)
(2 -2.26229e-15 0)
(2 -2.1615e-15 0)
(2 -2.28523e-15 0)
(2 -9.70237e-16 0)
(2 3.82562e-16 0)
(2 9.97682e-16 0)
(2 1.2073e-15 0)
(2 1.31955e-15 0)
(2 1.38713e-15 0)
(2 1.56124e-15 0)
(2 1.89571e-15 0)
(2 2.38714e-15 0)
(2 2.7696e-15 0)
(2 -2.37798e-15 0)
(2 -2.69321e-15 0)
(2 -2.85824e-15 0)
(2 -3.9957e-15 0)
(2 -3.55442e-15 0)
(2 -3.74789e-15 0)
(2 -4.28806e-15 0)
(2 -5.10913e-15 0)
(2 -5.05299e-15 0)
(2 -4.08849e-15 0)
(2 -4.3471e-15 0)
(2 -5.28429e-15 0)
(2 -5.35654e-15 0)
(2 -6.56478e-15 0)
(2 -6.87647e-15 0)
(2 -6.34469e-15 0)
(2 -6.07844e-15 0)
(2 -4.49056e-15 0)
(2 -4.05618e-15 0)
(2 -4.48363e-15 0)
(2 -5.38422e-15 0)
(2 -6.05867e-15 0)
(2 -4.62231e-15 0)
(2 -4.4697e-15 0)
(2 -4.21897e-15 0)
(2 -3.12476e-15 0)
(2 -1.49424e-15 0)
(2 1.98252e-15 0)
(2 4.5269e-15 0)
(2 5.37095e-15 0)
(2 5.90223e-15 0)
(2 5.60578e-15 0)
(2 5.2128e-15 0)
(2 3.18209e-15 0)
(2 2.12125e-15 0)
(2 4.22805e-16 0)
(2 2.95028e-16 0)
(2 2.02723e-15 0)
(2 2.92439e-15 0)
(2 1.43395e-15 0)
(2 1.04883e-15 0)
(2 -3.49565e-16 0)
(2 -2.03041e-16 0)
(2 1.75211e-16 0)
(2 5.74746e-16 0)
(2 1.57285e-15 0)
(2 2.48973e-15 0)
(2 2.3031e-15 0)
(2 2.9693e-15 0)
(2 3.55305e-15 0)
(2 2.56772e-15 0)
(2 2.32059e-15 0)
(2 1.23839e-15 0)
(2 5.92253e-16 0)
(2 -4.42347e-16 0)
(2 -1.40227e-17 0)
(2 5.58662e-16 0)
(2 1.19545e-15 0)
(2 1.94068e-15 0)
(2 3.09029e-15 0)
(2 3.17296e-15 0)
(2 8.11376e-17 0)
(2 -1.04151e-15 0)
(2 -1.88201e-15 0)
(2 -2.61176e-15 0)
(2 -2.76037e-15 0)
(2 -1.95346e-15 0)
(2 -8.83526e-16 0)
(2 -7.50441e-16 0)
(2 1.97712e-16 0)
(2 1.43279e-15 0)
(2 2.51962e-15 0)
(2 2.29649e-15 0)
(2 1.98721e-15 0)
(2 1.97206e-15 0)
(2 2.09944e-15 0)
(2 2.28933e-15 0)
(2 2.72026e-15 0)
(2 2.77067e-15 0)
(2 1.96975e-15 0)
(2 7.53573e-17 0)
(2 -1.11964e-15 0)
(2 -1.71851e-15 0)
(2 -1.0759e-15 0)
(2 -4.19771e-16 0)
(2 3.41071e-16 0)
(2 1.35343e-15 0)
(2 2.55459e-15 0)
(2 2.05417e-16 0)
(2 -7.49064e-16 0)
(2 -1.95128e-15 0)
(2 -2.78636e-15 0)
(2 -4.17216e-15 0)
(2 -5.19281e-15 0)
(2 -5.32915e-15 0)
(2 -5.2079e-15 0)
(2 -4.27207e-15 0)
(2 -3.86887e-15 0)
(2 -3.49492e-15 0)
(2 -3.55092e-15 0)
(2 -5.01316e-15 0)
(2 -5.46626e-15 0)
(2 -4.47976e-15 0)
(2 -4.28098e-15 0)
(2 -4.17222e-15 0)
(2 -4.99827e-15 0)
(2 -4.74805e-15 0)
(2 -5.36421e-15 0)
(2 -5.19229e-15 0)
(2 -2.70441e-15 0)
(2 -2.16664e-15 0)
(2 -3.23942e-15 0)
(2 -1.86794e-15 0)
(2 -2.02891e-15 0)
(2 -9.75149e-16 0)
(2 -1.74656e-16 0)
(2 -1.91328e-16 0)
(2 3.18221e-15 0)
(2 3.47212e-15 0)
(2 3.72059e-15 0)
(2 2.97543e-15 0)
(2 2.45703e-15 0)
(2 1.90869e-15 0)
(2 1.25058e-15 0)
(2 1.61477e-15 0)
(2 2.20681e-15 0)
(2 1.34363e-15 0)
(2 1.51325e-15 0)
(2 8.0085e-16 0)
(2 -9.3869e-17 0)
(2 -1.26288e-15 0)
(2 -2.24518e-15 0)
(2 -1.08734e-15 0)
(2 -5.19207e-16 0)
(2 7.57935e-16 0)
(2 1.43315e-15 0)
(2 1.7865e-15 0)
(2 1.97257e-15 0)
(2 2.36442e-15 0)
(2 2.97395e-15 0)
(2 2.06498e-15 0)
(2 1.85332e-15 0)
(2 2.1729e-15 0)
(2 2.16093e-15 0)
(2 1.71144e-15 0)
(2 1.85126e-15 0)
(2 1.57802e-15 0)
(2 9.65613e-16 0)
(2 2.00797e-15 0)
(2 1.44678e-15 0)
(2 1.31216e-15 0)
(2 7.84617e-16 0)
(2 1.30809e-16 0)
(2 -1.3087e-16 0)
(2 2.75757e-16 0)
(2 1.37689e-16 0)
(2 1.35628e-15 0)
(2 2.58618e-15 0)
(2 2.80135e-15 0)
(2 3.70299e-15 0)
(2 3.84939e-15 0)
(2 3.3694e-15 0)
(2 3.84952e-15 0)
(2 3.63515e-15 0)
(2 3.84723e-15 0)
(2 5.16666e-15 0)
(2 5.23996e-15 0)
(2 3.92173e-15 0)
(2 2.81161e-15 0)
(2 2.1623e-15 0)
(2 1.91013e-15 0)
(2 2.18502e-15 0)
(2 2.80376e-15 0)
(2 3.22398e-15 0)
(2 4.60559e-15 0)
(2 6.00057e-15 0)
(2 2.34115e-15 0)
(2 1.85932e-15 0)
(2 1.42256e-15 0)
(2 1.19485e-15 0)
(2 1.34152e-16 0)
(2 -5.0385e-16 0)
(2 -1.02997e-15 0)
(2 -6.27801e-16 0)
(2 5.62804e-17 0)
(2 -2.24358e-16 0)
(2 -8.33933e-16 0)
(2 -8.6691e-16 0)
(2 -2.52356e-15 0)
(2 -3.03437e-15 0)
(2 -2.4277e-15 0)
(2 -2.58975e-15 0)
(2 -3.49733e-15 0)
(2 -4.49837e-15 0)
(2 -4.75033e-15 0)
(2 -3.17047e-15 0)
(2 -2.50219e-15 0)
(2 -8.65786e-16 0)
(2 -1.09633e-15 0)
(2 -1.38494e-15 0)
(2 -1.01009e-15 0)
(2 2.93665e-17 0)
(2 -5.35128e-16 0)
(2 -1.3609e-15 0)
(2 -1.90611e-15 0)
(2 -1.12121e-15 0)
(2 -5.15934e-16 0)
(2 1.23045e-15 0)
(2 2.01824e-15 0)
(2 2.19815e-15 0)
(2 3.10447e-15 0)
(2 3.5311e-15 0)
(2 4.16935e-15 0)
(2 4.64025e-15 0)
(2 4.2119e-15 0)
(2 3.34615e-15 0)
(2 2.37756e-15 0)
(2 1.89597e-15 0)
(2 1.44205e-15 0)
(2 1.38675e-15 0)
(2 7.50152e-16 0)
(2 4.05067e-16 0)
(2 3.74351e-16 0)
(2 1.52071e-15 0)
(2 1.19652e-15 0)
(2 2.13194e-15 0)
(2 2.71202e-15 0)
(2 2.8387e-15 0)
(2 3.34209e-15 0)
(2 3.23594e-15 0)
(2 3.96632e-15 0)
(2 4.02879e-15 0)
(2 2.93477e-15 0)
(2 2.10606e-15 0)
(2 1.8128e-15 0)
(2 1.7819e-15 0)
(2 2.08473e-15 0)
(2 4.68864e-15 0)
(2 5.57837e-15 0)
(2 5.1523e-15 0)
(2 4.69367e-15 0)
(2 5.3266e-15 0)
(2 3.84287e-15 0)
(2 2.25156e-15 0)
(2 2.76588e-15 0)
(2 2.14758e-15 0)
(2 1.25304e-15 0)
(2 9.71105e-16 0)
(2 1.39618e-15 0)
(2 1.77329e-15 0)
(2 2.76837e-15 0)
(2 3.6379e-15 0)
(2 4.43735e-15 0)
(2 5.11214e-15 0)
(2 5.51215e-15 0)
(2 5.7535e-15 0)
(2 5.26795e-15 0)
(2 4.54161e-15 0)
(2 3.87047e-15 0)
(2 4.08376e-15 0)
(2 4.74436e-15 0)
(2 5.28627e-15 0)
(2 5.83714e-15 0)
(2 6.09412e-15 0)
(2 8.64117e-16 0)
(2 1.22144e-15 0)
(2 2.42071e-15 0)
(2 2.98393e-15 0)
(2 3.06047e-15 0)
(2 2.4621e-15 0)
(2 2.1619e-15 0)
(2 2.16758e-15 0)
(2 3.00802e-15 0)
(2 2.59681e-15 0)
(2 2.38376e-15 0)
(2 1.99241e-15 0)
(2 1.02674e-15 0)
(2 -1.08128e-15 0)
(2 -2.59903e-15 0)
(2 -3.98917e-15 0)
(2 -3.73265e-15 0)
(2 -2.31804e-15 0)
(2 -2.89916e-15 0)
(2 -3.19889e-15 0)
(2 -2.27195e-15 0)
(2 -2.18401e-15 0)
(2 -2.26767e-15 0)
(2 -3.1271e-16 0)
(2 3.01652e-17 0)
(2 4.31827e-16 0)
(2 -3.93651e-16 0)
(2 -3.05453e-16 0)
(2 8.59392e-17 0)
(2 -5.09333e-16 0)
(2 1.09478e-16 0)
(2 7.96507e-16 0)
(2 2.59256e-15 0)
(2 2.80184e-15 0)
(2 3.11493e-15 0)
(2 3.75942e-15 0)
(2 3.36694e-15 0)
(2 4.23861e-15 0)
(2 4.27492e-15 0)
(2 3.81481e-15 0)
(2 3.69708e-15 0)
(2 3.47689e-15 0)
(2 3.73919e-15 0)
(2 4.08167e-15 0)
(2 3.24192e-15 0)
(2 2.19927e-15 0)
(2 2.36462e-15 0)
(2 2.32365e-15 0)
(2 2.50629e-15 0)
(2 2.17792e-15 0)
(2 2.35002e-15 0)
(2 2.07143e-15 0)
(2 2.05615e-15 0)
(2 2.34869e-15 0)
(2 2.37688e-15 0)
(2 2.32418e-15 0)
(2 2.30302e-15 0)
(2 1.41416e-15 0)
(2 1.51203e-15 0)
(2 3.86941e-15 0)
(2 4.63344e-15 0)
(2 5.25469e-15 0)
(2 5.85374e-15 0)
(2 6.17182e-15 0)
(2 6.08706e-15 0)
(2 5.27079e-15 0)
(2 3.78389e-15 0)
(2 2.80362e-15 0)
(2 2.58646e-15 0)
(2 1.45397e-15 0)
(2 1.88004e-15 0)
(2 2.26153e-15 0)
(2 3.30045e-15 0)
(2 5.01604e-15 0)
(2 5.75413e-15 0)
(2 6.75868e-15 0)
(2 7.75873e-15 0)
(2 7.66363e-15 0)
(2 6.96568e-15 0)
(2 5.78508e-15 0)
(2 5.41619e-15 0)
(2 5.60979e-15 0)
(2 6.04272e-15 0)
(2 6.63571e-15 0)
(2 7.30507e-15 0)
(2 8.59255e-15 0)
(2 8.43795e-15 0)
(2 8.8454e-15 0)
(2 -1.28365e-15 0)
(2 -2.2245e-15 0)
(2 -2.56827e-15 0)
(2 -1.98624e-15 0)
(2 -5.91059e-16 0)
(2 1.52821e-15 0)
(2 2.60255e-15 0)
(2 2.38936e-15 0)
(2 3.0588e-16 0)
(2 -2.42721e-15 0)
(2 -2.39171e-15 0)
(2 -2.69753e-15 0)
(2 -2.63695e-15 0)
(2 -2.79604e-15 0)
(2 -3.095e-15 0)
(2 -3.81652e-15 0)
(2 -4.24158e-15 0)
(2 -4.55214e-15 0)
(2 -5.20152e-15 0)
(2 -5.54745e-15 0)
(2 -5.08125e-15 0)
(2 -5.21297e-15 0)
(2 -5.46969e-15 0)
(2 -5.3287e-15 0)
(2 -3.56815e-15 0)
(2 -3.58991e-15 0)
(2 -1.90719e-15 0)
(2 -1.72643e-17 0)
(2 -4.575e-17 0)
(2 -7.47907e-16 0)
(2 -3.19504e-16 0)
(2 -8.93409e-16 0)
(2 -1.19253e-15 0)
(2 -9.86237e-16 0)
(2 -7.80064e-16 0)
(2 2.25666e-16 0)
(2 9.7826e-16 0)
(2 1.50505e-15 0)
(2 1.27951e-15 0)
(2 1.66095e-15 0)
(2 2.29784e-15 0)
(2 2.24859e-15 0)
(2 2.01825e-15 0)
(2 -3.29843e-16 0)
(2 1.85622e-16 0)
(2 1.18331e-15 0)
(2 8.47905e-17 0)
(2 -2.8524e-16 0)
(2 -5.42973e-16 0)
(2 -1.23026e-15 0)
(2 -1.90495e-15 0)
(2 -1.62545e-15 0)
(2 3.12698e-16 0)
(2 1.57122e-15 0)
(2 9.62192e-16 0)
(2 1.16037e-15 0)
(2 1.68055e-15 0)
(2 1.70907e-15 0)
(2 1.22455e-15 0)
(2 9.93153e-16 0)
(2 2.34595e-15 0)
(2 1.96105e-15 0)
(2 1.70319e-15 0)
(2 2.43412e-15 0)
(2 2.88428e-15 0)
(2 1.31967e-15 0)
(2 9.33548e-16 0)
(2 1.17638e-15 0)
(2 2.27914e-16 0)
(2 1.32843e-16 0)
(2 5.71164e-17 0)
(2 7.21484e-17 0)
(2 7.28378e-16 0)
(2 2.0378e-15 0)
(2 3.56475e-15 0)
(2 4.16832e-15 0)
(2 3.99321e-15 0)
(2 2.07899e-15 0)
(2 2.20283e-15 0)
(2 2.62435e-15 0)
(2 3.01594e-15 0)
(2 3.90954e-15 0)
(2 5.00448e-15 0)
(2 6.00919e-15 0)
(2 6.23828e-15 0)
(2 6.92544e-15 0)
(2 6.93358e-15 0)
(2 7.02632e-15 0)
(2 -1.54528e-15 0)
(2 -2.52228e-15 0)
(2 -2.18372e-15 0)
(2 -1.63733e-15 0)
(2 -1.24077e-15 0)
(2 6.97468e-18 0)
(2 5.40218e-16 0)
(2 2.03466e-16 0)
(2 -1.37727e-15 0)
(2 -3.61324e-15 0)
(2 -5.94952e-15 0)
(2 -6.71127e-15 0)
(2 -5.92482e-15 0)
(2 -4.08466e-15 0)
(2 -3.02049e-15 0)
(2 -3.09374e-15 0)
(2 -3.81137e-15 0)
(2 -6.22146e-15 0)
(2 -6.54286e-15 0)
(2 -6.32867e-15 0)
(2 -6.98961e-15 0)
(2 -7.34814e-15 0)
(2 -7.74726e-15 0)
(2 -9.03428e-15 0)
(2 -9.20726e-15 0)
(2 -9.3057e-15 0)
(2 -7.47925e-15 0)
(2 -6.02905e-15 0)
(2 -4.78801e-15 0)
(2 -3.84757e-15 0)
(2 -3.39396e-15 0)
(2 -2.92891e-15 0)
(2 -3.55713e-15 0)
(2 -4.00452e-15 0)
(2 -3.52342e-15 0)
(2 -2.71921e-15 0)
(2 -2.15391e-15 0)
(2 -1.77361e-15 0)
(2 -1.66774e-15 0)
(2 -1.25995e-15 0)
(2 -1.21411e-15 0)
(2 -1.27826e-15 0)
(2 3.99351e-16 0)
(2 1.63877e-16 0)
(2 -3.84853e-16 0)
(2 1.1007e-16 0)
(2 -9.97011e-16 0)