/*--------------------------------*- C++ -*----------------------------------*\
  =========                 |
  \\      /  F ield         | OpenFOAM: The Open Source CFD Toolbox
   \\    /   O peration     | Website:  https://openfoam.org
    \\  /    A nd           | Version:  7
     \\/     M anipulation  |
\*---------------------------------------------------------------------------*/
FoamFile
{
    version     2.0;
    format      ascii;
    class       volScalarField;
    location    "0.257";
    object      p;
}
// * * * * * * * * * * * * * * * * * * * * * * * * * * * * * * * * * * * * * //

dimensions      [0 2 -2 0 0 0 0];

internalField   nonuniform List<scalar> 
40000
(
1.09256e-06
9.38078e-05
0.000153329
0.000137746
3.19398e-05
-0.000168471
-0.000461373
-0.000840995
-0.00129996
-0.00183028
-0.00242385
-0.00307277
-0.0037694
-0.00450654
-0.0052774
-0.00607568
-0.00689538
-0.00773091
-0.00857704
-0.00942891
-0.010282
-0.0111321
-0.0119752
-0.0128076
-0.0136261
-0.0144273
-0.0152084
-0.0159666
-0.0166992
-0.0174041
-0.0180789
-0.0187218
-0.0193307
-0.019904
-0.0204401
-0.0209375
-0.0213951
-0.0218115
-0.0221857
-0.0225168
-0.0228038
-0.023046
-0.0232427
-0.0233934
-0.0234975
-0.0235547
-0.0235646
-0.023527
-0.0234416
-0.0233083
-0.0231273
-0.0228983
-0.0226216
-0.0222973
-0.0219255
-0.0215065
-0.0210406
-0.0205282
-0.0199696
-0.0193654
-0.0187159
-0.0180217
-0.0172835
-0.0165018
-0.0156773
-0.0148107
-0.0139027
-0.0129542
-0.0119659
-0.0109386
-0.00987317
-0.00877057
-0.00763168
-0.00645747
-0.00524892
-0.00400705
-0.00273289
-0.0014275
-9.19774e-05
0.00127256
0.00266499
0.00408416
0.00552889
0.00699799
0.00849026
0.0100045
0.0115393
0.0130936
0.0146661
0.0162553
0.0178601
0.0194791
0.0211109
0.0227542
0.0244076
0.0260698
0.0277393
0.0294148
0.0310949
0.0327782
0.0344632
0.0361485
0.0378326
0.0395143
0.0411919
0.0428642
0.0445295
0.0461866
0.047834
0.0494702
0.0510938
0.0527034
0.0542976
0.0558749
0.0574341
0.0589735
0.060492
0.061988
0.0634603
0.0649075
0.0663283
0.0677214
0.0690854
0.0704192
0.0717215
0.072991
0.0742267
0.0754272
0.0765915
0.0777185
0.078807
0.0798561
0.0808647
0.0818319
0.0827567
0.0836383
0.0844758
0.0852684
0.0860154
0.0867161
0.0873698
0.0879759
0.0885338
0.0890432
0.0895035
0.0899144
0.0902756
0.0905868
0.0908479
0.0910588
0.0912195
0.09133
0.0913904
0.091401
0.0913619
0.0912737
0.0911368
0.0909517
0.0907191
0.0904396
0.0901143
0.089744
0.0893297
0.0888728
0.0883743
0.0878359
0.0872589
0.0866451
0.0859963
0.0853144
0.0846016
0.08386
0.083092
0.0823003
0.0814877
0.080657
0.0798114
0.0789544
0.0780894
0.0772203
0.0763512
0.0754864
0.0746306
0.0737886
0.0729656
0.0721673
0.0713995
0.0706685
0.0699809
0.0693436
0.0687641
0.0682497
0.0678081
0.0674466
0.0671719
0.0669887
0.0668981
0.0668942
0.0669603
0.0670534
-9.03918e-05
1.86996e-06
3.76536e-05
9.01015e-07
-0.000112062
-0.000305285
-0.00057859
-0.000928436
-0.00134957
-0.00183584
-0.00238065
-0.00297729
-0.00361913
-0.00429982
-0.00501325
-0.00575361
-0.00651533
-0.0072932
-0.00808229
-0.00887802
-0.00967603
-0.0104723
-0.0112629
-0.0120445
-0.0128136
-0.0135672
-0.0143024
-0.0150165
-0.015707
-0.0163716
-0.0170081
-0.0176144
-0.0181889
-0.0187296
-0.0192351
-0.019704
-0.0201349
-0.0205266
-0.0208781
-0.0211883
-0.0214565
-0.0216817
-0.0218633
-0.0220007
-0.0220935
-0.0221411
-0.0221432
-0.0220995
-0.0220098
-0.0218741
-0.0216921
-0.021464
-0.0211898
-0.0208696
-0.0205035
-0.0200917
-0.0196346
-0.0191324
-0.0185855
-0.0179944
-0.0173595
-0.0166813
-0.0159604
-0.0151973
-0.0143927
-0.0135472
-0.0126616
-0.0117367
-0.0107731
-0.0097716
-0.00873314
-0.00765854
-0.00654869
-0.00540452
-0.00422697
-0.00301704
-0.00177571
-0.000504035
0.000796937
0.00212612
0.00348243
0.00486472
0.00627188
0.00770275
0.00915613
0.0106308
0.0121257
0.0136394
0.0151707
0.0167184
0.0182812
0.0198578
0.0214468
0.023047
0.0246571
0.0262756
0.0279013
0.0295327
0.0311686
0.0328076
0.0344482
0.0360891
0.0377288
0.0393661
0.0409995
0.0426275
0.0442489
0.0458621
0.0474659
0.0490588
0.0506394
0.0522063
0.0537582
0.0552937
0.0568114
0.0583101
0.0597882
0.0612445
0.0626778
0.0640866
0.0654697
0.0668258
0.0681537
0.0694522
0.0707201
0.0719561
0.0731592
0.0743283
0.0754621
0.0765597
0.07762
0.0786419
0.0796247
0.0805672
0.0814686
0.0823281
0.0831449
0.0839183
0.0846474
0.0853316
0.0859704
0.0865631
0.0871093
0.0876085
0.0880602
0.0884642
0.0888202
0.089128
0.0893874
0.0895984
0.089761
0.0898752
0.0899412
0.0899592
0.0899295
0.0898526
0.0897288
0.0895589
0.0893433
0.089083
0.0887787
0.0884314
0.0880422
0.0876123
0.0871428
0.0866354
0.0860913
0.0855125
0.0849005
0.0842573
0.083585
0.0828859
0.0821622
0.0814165
0.0806515
0.0798701
0.0790754
0.0782706
0.0774592
0.0766449
0.0758315
0.0750233
0.0742247
0.0734402
0.0726748
0.0719336
0.0712222
0.0705463
0.0699118
0.0693248
0.0687916
0.0683187
0.067912
0.0675771
0.0673188
0.0671397
0.0670393
0.0670124
0.0670539
0.0671469
-0.000149572
-3.36704e-05
2.09784e-06
-4.05972e-05
-0.000154312
-0.00034094
-0.000600172
-0.000929031
-0.00132319
-0.00177752
-0.00228635
-0.00284386
-0.0034442
-0.00408164
-0.00475062
-0.00544576
-0.00616189
-0.00689411
-0.0076378
-0.00838859
-0.00914231
-0.00989507
-0.0106432
-0.0113833
-0.0121122
-0.0128269
-0.0135245
-0.0142024
-0.0148581
-0.0154894
-0.0160941
-0.0166703
-0.0172161
-0.0177297
-0.0182098
-0.0186548
-0.0190635
-0.0194345
-0.019767
-0.0200598
-0.020312
-0.020523
-0.0206919
-0.0208182
-0.0209013
-0.0209408
-0.0209363
-0.0208875
-0.0207943
-0.0206563
-0.0204737
-0.0202463
-0.0199741
-0.0196573
-0.019296
-0.0188903
-0.0184406
-0.017947
-0.0174101
-0.0168301
-0.0162075
-0.0155428
-0.0148365
-0.0140892
-0.0133015
-0.0124739
-0.0116073
-0.0107024
-0.00975972
-0.00878021
-0.00776462
-0.00671381
-0.00562862
-0.00450996
-0.00335876
-0.00217597
-0.000962554
0.000280468
0.00155207
0.00285119
0.00417678
0.00552773
0.00690293
0.00830127
0.00972159
0.0111627
0.0126235
0.0141027
0.015599
0.0171114
0.0186384
0.0201789
0.0217316
0.0232952
0.0248683
0.0264498
0.0280381
0.0296322
0.0312305
0.0328317
0.0344346
0.0360378
0.0376398
0.0392394
0.0408351
0.0424256
0.0440095
0.0455856
0.0471523
0.0487084
0.0502524
0.0517832
0.0532992
0.0547992
0.0562818
0.0577458
0.0591897
0.0606124
0.0620125
0.0633887
0.0647399
0.0660647
0.067362
0.0686306
0.0698694
0.0710771
0.0722527
0.073395
0.0745031
0.0755758
0.0766121
0.0776112
0.078572
0.0794937
0.0803754
0.0812163
0.0820156
0.0827727
0.0834867
0.0841571
0.0847833
0.0853648
0.085901
0.0863916
0.0868362
0.0872344
0.087586
0.0878909
0.0881489
0.0883599
0.0885241
0.0886414
0.0887121
0.0887364
0.0887145
0.088647
0.0885344
0.0883771
0.0881759
0.0879315
0.0876448
0.0873167
0.0869483
0.0865409
0.0860955
0.0856138
0.0850971
0.0845471
0.0839656
0.0833544
0.0827156
0.0820514
0.0813641
0.0806562
0.0799302
0.0791891
0.0784357
0.0776734
0.0769053
0.0761351
0.0753666
0.0746036
0.0738505
0.0731115
0.0723914
0.0716949
0.0710272
0.0703935
0.0697992
0.0692498
0.068751
0.0683082
0.0679265
0.0676106
0.0673644
0.0671901
0.0670873
0.0670536
0.0670953
0.0672132
-0.000134082
3.13389e-06
4.49782e-05
2.35891e-06
-0.000109795
-0.000291068
-0.000540357
-0.000854454
-0.00122927
-0.00166015
-0.00214203
-0.00266968
-0.00323784
-0.00384128
-0.00447488
-0.00513364
-0.00581275
-0.00650762
-0.00721389
-0.00792738
-0.00864412
-0.0093604
-0.0100727
-0.0107778
-0.0114726
-0.012154
-0.0128194
-0.0134662
-0.014092
-0.0146946
-0.0152719
-0.0158219
-0.0163428
-0.0168329
-0.0172908
-0.017715
-0.0181042
-0.0184572
-0.018773
-0.0190504
-0.0192888
-0.0194871
-0.0196449
-0.0197613
-0.019836
-0.0198683
-0.019858
-0.0198048
-0.0197083
-0.0195684
-0.0193851
-0.0191583
-0.018888
-0.0185742
-0.0182171
-0.0178169
-0.0173737
-0.0168879
-0.0163598
-0.0157897
-0.0151781
-0.0145254
-0.0138321
-0.0130989
-0.0123262
-0.0115147
-0.010665
-0.00977787
-0.00885398
-0.00789406
-0.00689892
-0.00586935
-0.00480622
-0.00371037
-0.00258273
-0.0014242
-0.000235755
0.000981631
0.00222695
0.00349918
0.00479728
0.00612017
0.00746678
0.00883601
0.0102267
0.0116378
0.0130681
0.0145163
0.0159814
0.0174621
0.0189572
0.0204654
0.0219856
0.0235163
0.0250565
0.0266047
0.0281597
0.0297202
0.0312849
0.0328525
0.0344216
0.035991
0.0375593
0.0391251
0.0406872
0.0422442
0.0437947
0.0453374
0.0468711
0.0483943
0.0499057
0.0514041
0.0528881
0.0543564
0.0558077
0.0572407
0.0586542
0.0600468
0.0614173
0.0627645
0.0640872
0.0653841
0.0666542
0.0678962
0.0691089
0.0702914
0.0714425
0.0725611
0.0736462
0.0746968
0.075712
0.0766907
0.077632
0.0785352
0.0793994
0.0802237
0.0810075
0.0817501
0.0824508
0.0831089
0.083724
0.0842955
0.0848229
0.0853059
0.085744
0.0861371
0.0864849
0.0867872
0.0870439
0.087255
0.0874206
0.0875406
0.0876154
0.0876452
0.0876302
0.087571
0.087468
0.0873218
0.0871331
0.0869026
0.0866313
0.08632
0.0859698
0.0855819
0.0851575
0.0846981
0.0842051
0.0836802
0.083125
0.0825414
0.0819315
0.0812973
0.0806412
0.0799655
0.0792729
0.0785659
0.0778477
0.0771212
0.0763896
0.0756564
0.0749252
0.0741998
0.0734841
0.0727824
0.072099
0.0714385
0.0708056
0.0702051
0.0696421
0.0691216
0.0686485
0.0682279
0.0678643
0.0675621
0.0673248
0.067155
0.0670533
0.0670195
0.0670683
0.0672097
-2.8718e-05
0.000115997
0.000158866
0.000114886
2.81306e-06
-0.000175316
-0.00041764
-0.000720655
-0.00108032
-0.00149225
-0.00195187
-0.00245442
-0.00299513
-0.00356919
-0.00417186
-0.0047985
-0.00544468
-0.00610607
-0.00677857
-0.00745819
-0.0081412
-0.00882407
-0.00950344
-0.0101762
-0.0108392
-0.0114898
-0.0121251
-0.0127429
-0.0133407
-0.0139163
-0.0144678
-0.0149931
-0.0154905
-0.0159584
-0.0163953
-0.0167997
-0.0171704
-0.0175062
-0.0178061
-0.018069
-0.018294
-0.0184804
-0.0186274
-0.0187345
-0.018801
-0.0188265
-0.0188106
-0.018753
-0.0186535
-0.0185118
-0.0183279
-0.0181017
-0.0178332
-0.0175223
-0.0171694
-0.0167744
-0.0163376
-0.0158592
-0.0153396
-0.0147792
-0.0141782
-0.0135372
-0.0128566
-0.012137
-0.0113789
-0.0105829
-0.00974967
-0.00887986
-0.00797415
-0.00703327
-0.00605798
-0.00504907
-0.00400735
-0.00293368
-0.00182892
-0.000693991
0.000470185
0.00166265
0.00288242
0.0041285
0.00539986
0.00669547
0.00801428
0.0093552
0.0107171
0.012099
0.0134996
0.0149178
0.0163525
0.0178024
0.0192664
0.0207432
0.0222317
0.0237305
0.0252386
0.0267545
0.0282771
0.029805
0.031337
0.0328719
0.0344082
0.0359448
0.0374802
0.0390133
0.0405427
0.0420671
0.0435851
0.0450956
0.0465971
0.0480884
0.0495681
0.0510351
0.052488
0.0539255
0.0553464
0.0567495
0.0581333
0.0594968
0.0608387
0.0621578
0.0634528
0.0647228
0.0659664
0.0671826
0.0683702
0.0695283
0.0706556
0.0717513
0.0728142
0.0738434
0.074838
0.0757969
0.0767195
0.0776048
0.078452
0.0792604
0.0800292
0.0807578
0.0814456
0.0820919
0.0826962
0.083258
0.0837769
0.0842526
0.0846846
0.0850727
0.0854167
0.0857165
0.085972
0.0861831
0.0863499
0.0864726
0.0865513
0.0865862
0.0865779
0.0865265
0.0864327
0.0862971
0.0861203
0.085903
0.0856463
0.0853509
0.0850179
0.0846485
0.084244
0.0838057
0.0833351
0.0828337
0.0823033
0.0817457
0.0811629
0.0805568
0.0799298
0.0792843
0.0786226
0.0779474
0.0772617
0.0765682
0.0758702
0.0751708
0.0744737
0.0737823
0.0731005
0.0724321
0.0717815
0.0711527
0.0705502
0.0699785
0.0694423
0.068946
0.0684943
0.0680917
0.0677425
0.0674505
0.0672196
0.0670527
0.0669513
0.0669167
0.0669679
0.0671197
0.000171014
0.000309095
0.000345759
0.000296653
0.000181502
3.31271e-06
-0.000235482
-0.000531165
-0.000879722
-0.00127703
-0.00171886
-0.00220088
-0.00271866
-0.00326777
-0.00384383
-0.00444257
-0.00505984
-0.00569162
-0.006334
-0.00698326
-0.00763585
-0.00828843
-0.00893781
-0.00958094
-0.0102149
-0.010837
-0.0114447
-0.0120355
-0.0126073
-0.0131579
-0.0136852
-0.0141875
-0.0146629
-0.0151099
-0.015527
-0.0159129
-0.0162662
-0.0165858
-0.0168706
-0.0171197
-0.0173322
-0.0175072
-0.0176441
-0.0177423
-0.0178011
-0.0178201
-0.017799
-0.0177373
-0.0176349
-0.0174915
-0.017307
-0.0170814
-0.0168146
-0.0165067
-0.0161577
-0.0157677
-0.0153371
-0.0148659
-0.0143546
-0.0138034
-0.0132127
-0.0125829
-0.0119146
-0.0112081
-0.0104641
-0.00968312
-0.00886577
-0.00801269
-0.00712455
-0.00620206
-0.00524594
-0.00425698
-0.00323595
-0.0021837
-0.00110107
1.10659e-05
0.00115178
0.00232016
0.00351523
0.00473602
0.00598154
0.00725078
0.0085427
0.00985625
0.0111904
0.0125439
0.0139159
0.015305
0.0167102
0.0181304
0.0195643
0.0210108
0.0224687
0.0239367
0.0254137
0.0268984
0.0283896
0.0298861
0.0313865
0.0328897
0.0343944
0.0358993
0.0374031
0.0389045
0.0404023
0.0418952
0.0433819
0.0448611
0.0463316
0.0477921
0.0492413
0.050678
0.0521009
0.0535087
0.0549003
0.0562744
0.0576297
0.0589651
0.0602794
0.0615714
0.0628398
0.0640837
0.0653019
0.0664933
0.0676567
0.0687912
0.0698958
0.0709693
0.0720109
0.0730195
0.0739943
0.0749343
0.0758388
0.0767069
0.0775378
0.0783308
0.0790853
0.0798005
0.0804758
0.0811107
0.0817047
0.0822573
0.082768
0.0832366
0.0836627
0.084046
0.0843864
0.0846838
0.084938
0.0851491
0.0853171
0.0854422
0.0855245
0.0855644
0.0855622
0.0855182
0.0854331
0.0853075
0.0851418
0.0849371
0.084694
0.0844135
0.0840968
0.0837448
0.0833589
0.0829404
0.0824907
0.0820113
0.0815041
0.0809707
0.080413
0.0798331
0.0792331
0.0786153
0.0779821
0.0773362
0.0766801
0.0760168
0.0753493
0.0746806
0.0740141
0.0733533
0.0727016
0.0720628
0.0714409
0.0708397
0.0702634
0.0697162
0.0692024
0.0687261
0.0682916
0.067903
0.0675643
0.0672794
0.0670518
0.066885
0.066781
0.0667424
0.0667892
0.0669375
0.000463211
0.000582444
0.000605497
0.000546625
0.000424444
0.000242445
3.43968e-06
-0.000288779
-0.00063031
-0.00101727
-0.00144573
-0.00191164
-0.00241091
-0.00293945
-0.00349322
-0.00406825
-0.00466069
-0.00526674
-0.00588275
-0.00650522
-0.00713082
-0.00775638
-0.00837884
-0.00899528
-0.00960292
-0.0101992
-0.0107816
-0.0113479
-0.0118958
-0.0124233
-0.0129284
-0.0134093
-0.0138644
-0.0142921
-0.0146909
-0.0150594
-0.0153965
-0.015701
-0.0159718
-0.016208
-0.0164087
-0.0165731
-0.0167006
-0.0167903
-0.016842
-0.0168549
-0.0168288
-0.0167633
-0.0166582
-0.0165133
-0.0163284
-0.0161034
-0.0158383
-0.0155331
-0.0151879
-0.0148029
-0.0143781
-0.0139139
-0.0134105
-0.0128681
-0.0122873
-0.0116683
-0.0110116
-0.0103178
-0.0095873
-0.00882069
-0.00801855
-0.00718151
-0.00631022
-0.00540535
-0.00446763
-0.0034978
-0.00249662
-0.00146492
-0.000403504
0.000686751
0.00180496
0.00295021
0.00412158
0.00531811
0.00653883
0.00778275
0.00904886
0.0103361
0.0116435
0.01297
0.0143144
0.0156756
0.0170526
0.0184442
0.0198493
0.0212667
0.0226952
0.0241336
0.0255808
0.0270356
0.0284967
0.029963
0.0314331
0.032906
0.0343802
0.0358547
0.0373281
0.0387992
0.0402667
0.0417294
0.0431861
0.0446354
0.0460762
0.0475072
0.0489271
0.0503348
0.0517289
0.0531084
0.0544719
0.0558183
0.0571463
0.0584548
0.0597427
0.0610087
0.0622518
0.0634708
0.0646646
0.0658322
0.0669726
0.0680846
0.0691673
0.0702198
0.0712409
0.0722299
0.0731858
0.0741078
0.074995
0.0758467
0.0766621
0.0774404
0.0781812
0.0788836
0.0795471
0.0801711
0.0807553
0.081299
0.081802
0.0822638
0.0826842
0.0830629
0.0833998
0.0836948
0.0839478
0.0841588
0.0843279
0.0844551
0.0845409
0.0845853
0.0845888
0.0845518
0.0844748
0.0843584
0.0842032
0.0840101
0.0837797
0.0835132
0.0832115
0.0828757
0.082507
0.0821068
0.0816764
0.0812175
0.0807315
0.0802203
0.0796858
0.0791298
0.0785545
0.0779621
0.0773549
0.0767354
0.0761062
0.0754701
0.0748298
0.0741885
0.0735492
0.0729152
0.0722899
0.0716769
0.0710796
0.0705019
0.0699476
0.0694207
0.0689249
0.0684644
0.0680429
0.0676643
0.0673325
0.0670509
0.0668233
0.0666532
0.0665431
0.066496
0.0665314
0.0666641
0.000842321
0.00093269
0.00093523
0.000861693
0.00072826
0.00053856
0.000295573
3.01693e-06
-0.000335401
-0.000716033
-0.00113518
-0.00158908
-0.00207392
-0.00258593
-0.00312139
-0.00367661
-0.00424797
-0.00483194
-0.00542508
-0.00602414
-0.00662599
-0.0072276
-0.00782607
-0.00841859
-0.00900254
-0.00957546
-0.010135
-0.0106789
-0.011205
-0.0117114
-0.0121961
-0.0126575
-0.0130938
-0.0135036
-0.0138854
-0.0142379
-0.01456
-0.0148504
-0.0151082
-0.0153324
-0.0155221
-0.0156766
-0.0157952
-0.0158772
-0.0159221
-0.0159294
-0.0158987
-0.0158297
-0.0157221
-0.0155757
-0.0153904
-0.0151661
-0.0149027
-0.0146002
-0.0142587
-0.0138784
-0.0134593
-0.0130017
-0.0125059
-0.011972
-0.0114006
-0.010792
-0.0101466
-0.00946483
-0.00874727
-0.00799444
-0.00720689
-0.00638523
-0.00553008
-0.00464212
-0.00372203
-0.00277054
-0.0017884
-0.000776398
0.000264658
0.00133393
0.00243054
0.00355362
0.00470225
0.00587549
0.00707241
0.00829204
0.0095334
0.0107955
0.0120772
0.0133776
0.0146956
0.0160301
0.01738
0.0187442
0.0201216
0.0215111
0.0229114
0.0243214
0.0257401
0.0271661
0.0285984
0.0300357
0.0314768
0.0329205
0.0343656
0.035811
0.0372553
0.0386973
0.0401358
0.0415696
0.0429975
0.0444181
0.0458305
0.0472332
0.0486251
0.050005
0.0513716
0.0527239
0.0540606
0.0553804
0.0566824
0.0579652
0.0592278
0.060469
0.0616878
0.062883
0.0640536
0.0651985
0.0663168
0.0674073
0.0684692
0.0695015
0.0705032
0.0714735
0.0724114
0.0733161
0.0741868
0.0750229
0.0758234
0.0765878
0.0773154
0.0780056
0.0786579
0.0792716
0.0798463
0.0803816
0.0808771
0.0813325
0.0817474
0.0821218
0.0824553
0.082748
0.0829997
0.0832106
0.0833805
0.0835098
0.0835987
0.0836473
0.0836561
0.0836255
0.083556
0.0834482
0.0833027
0.0831203
0.0829019
0.0826482
0.0823604
0.0820395
0.0816868
0.0813035
0.080891
0.0804507
0.0799844
0.0794936
0.0789802
0.078446
0.0778932
0.0773238
0.0767401
0.0761444
0.0755394
0.0749275
0.0743116
0.0736944
0.0730791
0.0724686
0.0718661
0.0712751
0.0706988
0.0701408
0.0696046
0.0690939
0.0686124
0.0681636
0.0677513
0.067379
0.0670502
0.0667685
0.0665374
0.0663603
0.06624
0.0661798
0.0661969
0.0663041
0.00130123
0.00135478
0.0013308
0.00123797
0.00108917
0.000887956
0.000637305
0.000340734
1.714e-06
-0.000376327
-0.000789921
-0.00123556
-0.00170973
-0.00220896
-0.00272979
-0.00326879
-0.00382257
-0.00438783
-0.00496141
-0.00554025
-0.00612138
-0.00670195
-0.00727917
-0.00785041
-0.0084132
-0.00896516
-0.00950404
-0.0100277
-0.010534
-0.0110211
-0.0114872
-0.0119306
-0.0123498
-0.0127431
-0.0131093
-0.013447
-0.0137552
-0.0140326
-0.0142783
-0.0144914
-0.0146709
-0.0148162
-0.0149266
-0.0150013
-0.01504
-0.015042
-0.015007
-0.0149348
-0.014825
-0.0146773
-0.0144918
-0.0142681
-0.0140064
-0.0137066
-0.0133687
-0.0129929
-0.0125793
-0.012128
-0.0116395
-0.0111138
-0.0105515
-0.00995277
-0.00931811
-0.00864797
-0.00794283
-0.0072032
-0.00642964
-0.00562271
-0.00478305
-0.00391128
-0.0030081
-0.0020742
-0.00111031
-0.000117209
0.000904326
0.00195347
0.00302937
0.00413118
0.00525799
0.00640891
0.00758301
0.00877934
0.00999695
0.0112348
0.012492
0.0137675
0.0150601
0.0163689
0.0176929
0.0190308
0.0203816
0.0217442
0.0231175
0.0245004
0.0258916
0.0272901
0.0286947
0.0301043
0.0315175
0.0329334
0.0343506
0.035768
0.0371844
0.0385985
0.0400093
0.0414154
0.0428157
0.0442089
0.045594
0.0469697
0.0483347
0.049688
0.0510284
0.0523547
0.0536656
0.0549602
0.0562371
0.0574954
0.0587338
0.0599514
0.0611469
0.0623194
0.0634678
0.0645911
0.0656883
0.0667583
0.0678004
0.0688134
0.0697965
0.0707489
0.0716696
0.0725579
0.0734129
0.074234
0.0750205
0.0757716
0.0764867
0.0771652
0.0778067
0.0784105
0.0789763
0.0795035
0.0799919
0.0804411
0.0808509
0.081221
0.0815513
0.0818417
0.0820922
0.0823027
0.0824735
0.0826046
0.0826963
0.0827488
0.0827624
0.0827377
0.0826752
0.0825753
0.0824388
0.0822663
0.0820588
0.081817
0.0815421
0.081235
0.0808969
0.0805291
0.0801329
0.0797099
0.0792614
0.0787892
0.078295
0.0777807
0.0772482
0.0766995
0.076137
0.0755627
0.0749792
0.0743889
0.0737944
0.0731985
0.0726039
0.0720137
0.0714308
0.0708584
0.0702996
0.0697577
0.0692361
0.068738
0.068267
0.0678264
0.0674197
0.0670501
0.0667209
0.0664356
0.0661974
0.0660097
0.0658753
0.0657975
0.0657904
0.065864
0.00183229
0.00184284
0.00178739
0.00167115
0.00150319
0.00128684
0.00102501
0.000720924
0.000377818
-1.10774e-06
-0.000412627
-0.000853501
-0.0013205
-0.00181041
-0.00232002
-0.00284612
-0.00338558
-0.00393534
-0.00449246
-0.00505407
-0.00561735
-0.0061796
-0.00673822
-0.00729071
-0.00783473
-0.00836802
-0.00888841
-0.00939382
-0.00988229
-0.010352
-0.0108012
-0.0112282
-0.0116316
-0.0120099
-0.0123618
-0.0126859
-0.0129813
-0.0132468
-0.0134813
-0.0136841
-0.0138543
-0.013991
-0.0140938
-0.0141618
-0.0141947
-0.0141919
-0.0141531
-0.0140778
-0.013966
-0.0138173
-0.0136315
-0.0134087
-0.0131486
-0.0128514
-0.012517
-0.0121455
-0.0117372
-0.0112921
-0.0108105
-0.0102928
-0.00973909
-0.00914989
-0.00852556
-0.00786653
-0.00717328
-0.00644631
-0.00568614
-0.00489334
-0.0040685
-0.00321226
-0.00232528
-0.00140823
-0.000461833
0.000513166
0.00151599
0.00254585
0.00360191
0.00468333
0.00578924
0.00691876
0.00807098
0.00924499
0.0104398
0.0116546
0.0128882
0.0141397
0.0154081
0.0166923
0.0179913
0.019304
0.0206294
0.0219664
0.0233138
0.0246706
0.0260356
0.0274077
0.0287858
0.0301688
0.0315554
0.0329445
0.034335
0.0357256
0.0371153
0.0385028
0.039887
0.0412666
0.0426405
0.0440075
0.0453665
0.0467163
0.0480558
0.0493837
0.0506989
0.0520003
0.0532867
0.0545571
0.0558102
0.057045
0.0582604
0.0594553
0.0606287
0.0617795
0.0629067
0.0640093
0.0650864
0.0661369
0.06716
0.0681547
0.0691201
0.0700554
0.0709598
0.0718324
0.0726725
0.0734794
0.0742523
0.0749907
0.075694
0.0763614
0.0769926
0.0775871
0.0781442
0.0786638
0.0791454
0.0795887
0.0799934
0.0803594
0.0806866
0.0809748
0.081224
0.0814342
0.0816056
0.0817383
0.0818325
0.0818885
0.0819067
0.0818874
0.0818312
0.0817386
0.0816103
0.081447
0.0812495
0.0810187
0.0807555
0.080461
0.0801364
0.0797828
0.0794016
0.0789941
0.0785619
0.0781066
0.0776298
0.0771333
0.0766191
0.0760891
0.0755453
0.0749901
0.0744256
0.0738542
0.0732785
0.072701
0.0721244
0.0715514
0.070985
0.070428
0.0698835
0.0693544
0.0688439
0.0683551
0.0678913
0.0674555
0.0670509
0.0666806
0.0663478
0.0660556
0.0658069
0.0656051
0.0654528
0.0653533
0.065317
0.0653508
0.00242785
0.00239074
0.00229981
0.00215663
0.00196608
0.00173125
0.00145495
0.00114012
0.000789716
0.000406697
-5.97529e-06
-0.00044533
-0.000908396
-0.00139219
-0.00189373
-0.00241004
-0.00293824
-0.0034755
-0.00401907
-0.00456624
-0.00511437
-0.00566091
-0.00620342
-0.00673957
-0.00726712
-0.00778391
-0.00828786
-0.008777
-0.00924947
-0.0097035
-0.0101374
-0.0105497
-0.0109388
-0.0113034
-0.0116422
-0.011954
-0.0122376
-0.0124921
-0.0127164
-0.0129098
-0.0130713
-0.0132003
-0.013296
-0.0133579
-0.0133855
-0.0133783
-0.0133359
-0.013258
-0.0131443
-0.0129947
-0.0128089
-0.0125869
-0.0123285
-0.0120338
-0.0117028
-0.0113356
-0.0109323
-0.0104932
-0.0100183
-0.0095081
-0.00896277
-0.00838268
-0.00776825
-0.00711987
-0.00643801
-0.00572315
-0.00497581
-0.00419653
-0.00338589
-0.00254452
-0.00167304
-0.000772118
0.000157537
0.0011152
0.00210012
0.00311151
0.00414857
0.00521047
0.00629637
0.0074054
0.00853669
0.00968932
0.0108624
0.0120549
0.013266
0.0144946
0.0157397
0.0170004
0.0182756
0.0195642
0.0208652
0.0221776
0.0235003
0.0248321
0.026172
0.0275189
0.0288716
0.0302291
0.0315902
0.0329538
0.0343187
0.0356839
0.037048
0.03841
0.0397687
0.041123
0.0424717
0.0438137
0.0451478
0.0464729
0.0477879
0.0490915
0.0503827
0.0516604
0.0529234
0.0541707
0.055401
0.0566135
0.0578069
0.0589802
0.0601325
0.0612626
0.0623696
0.0634526
0.0645105
0.0655424
0.0665474
0.0675247
0.0684733
0.0693923
0.0702811
0.0711388
0.0719647
0.072758
0.0735182
0.0742445
0.0749364
0.0755934
0.0762148
0.0768002
0.0773493
0.0778615
0.0783365
0.0787742
0.0791741
0.0795362
0.0798603
0.0801463
0.0803942
0.0806041
0.080776
0.08091
0.0810065
0.0810657
0.0810879
0.0810735
0.0810231
0.0809372
0.0808165
0.0806615
0.0804732
0.0802523
0.0799999
0.0797169
0.0794045
0.0790638
0.0786961
0.0783028
0.0778853
0.0774452
0.076984
0.0765036
0.0760056
0.0754921
0.0749651
0.0744265
0.0738787
0.0733238
0.0727643
0.0722025
0.0716411
0.0710826
0.0705297
0.0699852
0.0694518
0.0689325
0.06843
0.0679474
0.0674875
0.0670533
0.0666478
0.0662738
0.0659342
0.0656318
0.0653696
0.0651504
0.0649769
0.0648521
0.0647826
0.0647717
0.00308058
0.00299232
0.00286275
0.00268962
0.00247344
0.00221711
0.00192338
0.00159486
0.00123423
0.000844152
0.000427341
-1.34906e-05
-0.0004756
-0.000956227
-0.00145261
-0.00196204
-0.00248184
-0.00300939
-0.00354212
-0.00407747
-0.00461299
-0.00514628
-0.00567507
-0.00619716
-0.0067104
-0.00721276
-0.00770225
-0.008177
-0.00863525
-0.00907529
-0.00949554
-0.0098945
-0.0102707
-0.010623
-0.0109499
-0.0112505
-0.0115235
-0.0117679
-0.011983
-0.0121677
-0.0123213
-0.0124432
-0.0125325
-0.0125888
-0.0126116
-0.0126003
-0.0125548
-0.0124745
-0.0123593
-0.0122089
-0.0120231
-0.011802
-0.0115453
-0.0112531
-0.0109254
-0.0105624
-0.010164
-0.00973053
-0.00926217
-0.00875916
-0.00822182
-0.00765049
-0.00704553
-0.00640735
-0.00573639
-0.00503313
-0.00429805
-0.00353171
-0.00273466
-0.00190749
-0.00105084
-0.000165356
0.000748287
0.00168937
0.00265716
0.00365089
0.00466977
0.00571301
0.00677977
0.00786921
0.00898047
0.0101127
0.0112649
0.0124362
0.0136257
0.0148324
0.0160553
0.0172934
0.0185458
0.0198114
0.0210892
0.0223781
0.023677
0.024985
0.0263009
0.0276237
0.0289522
0.0302854
0.0316221
0.0329613
0.0343018
0.0356425
0.0369822
0.0383199
0.0396544
0.0409845
0.0423092
0.0436273
0.0449376
0.0462391
0.0475307
0.0488112
0.0500796
0.0513346
0.0525753
0.0538006
0.0550093
0.0562004
0.0573728
0.0585256
0.0596578
0.0607682
0.0618561
0.0629203
0.0639599
0.0649742
0.065962
0.0669227
0.0678552
0.0687589
0.0696329
0.0704764
0.0712887
0.0720692
0.0728172
0.0735321
0.0742132
0.0748601
0.0754722
0.0760491
0.0765904
0.0770956
0.0775645
0.0779967
0.078392
0.0787503
0.0790714
0.0793553
0.0796019
0.0798112
0.0799835
0.0801187
0.0802172
0.0802792
0.0803051
0.0802952
0.08025
0.0801702
0.0800562
0.0799089
0.0797289
0.0795171
0.0792744
0.0790018
0.0787004
0.0783714
0.0780159
0.0776353
0.077231
0.0768045
0.0763572
0.075891
0.0754075
0.0749086
0.0743961
0.0738721
0.0733387
0.072798
0.0722522
0.0717037
0.0711548
0.070608
0.0700659
0.0695311
0.0690061
0.0684936
0.0679963
0.0675168
0.067058
0.0666226
0.0662132
0.0658325
0.0654832
0.0651679
0.0648893
0.0646498
0.0644521
0.0642989
0.064193
0.0641337
0.00378354
0.00364155
0.0034708
0.0032652
0.0030208
0.00274035
0.00242656
0.00208172
0.00170817
0.00130832
0.00088463
0.000439583
-2.42978e-05
-0.000504474
-0.000998425
-0.00150366
-0.00201772
-0.00253817
-0.00306258
-0.00358857
-0.00411387
-0.00463625
-0.00515356
-0.00566374
-0.00616474
-0.00665463
-0.00713154
-0.0075937
-0.00803943
-0.0084671
-0.0088752
-0.0092623
-0.00962705
-0.00996818
-0.0102845
-0.0105749
-0.0108383
-0.0110737
-0.0112803
-0.0114572
-0.0116037
-0.011719
-0.0118026
-0.0118538
-0.0118722
-0.0118574
-0.0118089
-0.0117266
-0.01161
-0.011459
-0.0112735
-0.0110533
-0.0107983
-0.0105086
-0.0101842
-0.0098251
-0.00943149
-0.0090035
-0.00854136
-0.0080453
-0.00751563
-0.00695267
-0.00635678
-0.00572836
-0.00506783
-0.00437566
-0.00365231
-0.00289833
-0.00211427
-0.00130069
-0.000458208
0.000412536
0.00131088
0.00223612
0.00318754
0.00416439
0.00516591
0.00619131
0.00723979
0.00831051
0.00940263
0.0105153
0.0116476
0.0127987
0.0139675
0.0151533
0.016355
0.0175716
0.0188022
0.0200458
0.0213013
0.0225678
0.0238441
0.0251293
0.0264223
0.0277221
0.0290275
0.0303375
0.031651
0.0329669
0.0342841
0.0356015
0.036918
0.0382324
0.0395438
0.0408508
0.0421526
0.0434479
0.0447356
0.0460147
0.047284
0.0485425
0.049789
0.0510226
0.052242
0.0534463
0.0546344
0.0558052
0.0569578
0.058091
0.059204
0.0602958
0.0613654
0.0624118
0.0634341
0.0644316
0.0654031
0.066348
0.0672653
0.0681544
0.0690143
0.0698443
0.0706438
0.0714121
0.0721485
0.0728525
0.0735234
0.0741608
0.0747641
0.0753329
0.0758667
0.0763653
0.0768282
0.0772553
0.0776462
0.0780008
0.078319
0.0786008
0.078846
0.0790548
0.0792272
0.0793635
0.0794637
0.0795282
0.0795573
0.0795514
0.079511
0.0794366
0.0793288
0.0791883
0.0790158
0.0788122
0.0785783
0.0783151
0.0780236
0.077705
0.0773604
0.0769912
0.0765986
0.0761841
0.0757492
0.0752954
0.0748246
0.0743383
0.0738384
0.0733269
0.0728058
0.0722769
0.0717426
0.071205
0.0706663
0.0701288
0.0695949
0.0690671
0.0685478
0.0680395
0.0675446
0.0670657
0.0666052
0.0661658
0.0657499
0.0653599
0.0649983
0.0646674
0.0643697
0.0641073
0.0638828
0.0636989
0.0635538
0.0634436
0.00453014
0.00433255
0.00411866
0.00387853
0.00360375
0.00329695
0.0029608
0.00259726
0.00220836
0.00179628
0.00136322
0.000911472
0.000443321
-3.8921e-05
-0.00053296
-0.00103651
-0.00154729
-0.00206303
-0.00258147
-0.00310042
-0.00361776
-0.00413142
-0.00463937
-0.00513966
-0.00563036
-0.00610966
-0.00657579
-0.00702707
-0.0074619
-0.00787875
-0.00827617
-0.0086528
-0.00900736
-0.00933862
-0.00964543
-0.00992671
-0.0101815
-0.0104088
-0.0106078
-0.0107777
-0.0109177
-0.0110272
-0.0111056
-0.0111522
-0.0111668
-0.0111487
-0.0110978
-0.0110136
-0.0108959
-0.0107446
-0.0105593
-0.0103401
-0.0100869
-0.00979968
-0.00947841
-0.0091232
-0.00873417
-0.00831147
-0.0078553
-0.00736591
-0.00684358
-0.00628865
-0.00570144
-0.00508235
-0.00443179
-0.00375021
-0.00303807
-0.0022959
-0.00152423
-0.000723618
0.000105332
0.000962002
0.00184574
0.00275586
0.00369165
0.0046524
0.00563735
0.00664573
0.00767676
0.00872962
0.00980349
0.0108975
0.0120108
0.0131425
0.0142917
0.0154575
0.016639
0.0178351
0.0190449
0.0202675
0.0215018
0.0227469
0.0240017
0.0252652
0.0265363
0.0278141
0.0290975
0.0303854
0.0316767
0.0329704
0.0342654
0.0355607
0.036855
0.0381474
0.0394366
0.0407218
0.0420017
0.0432753
0.0445415
0.0457992
0.0470474
0.0482849
0.0495107
0.0507238
0.0519231
0.0531074
0.0542759
0.0554275
0.0565611
0.0576759
0.0587707
0.0598447
0.060897
0.0619265
0.0629325
0.0639139
0.06487
0.0658
0.0667029
0.067578
0.0684246
0.0692419
0.0700292
0.070786
0.0715114
0.0722051
0.0728663
0.0734947
0.0740896
0.0746507
0.0751775
0.0756697
0.076127
0.0765491
0.0769358
0.0772869
0.0776023
0.0778819
0.0781258
0.0783339
0.0785064
0.0786434
0.0787451
0.0788118
0.0788438
0.0788414
0.0788052
0.0787357
0.0786334
0.0784991
0.0783333
0.078137
0.0779109
0.0776561
0.0773734
0.0770641
0.0767292
0.0763699
0.0759877
0.0755837
0.0751595
0.0747167
0.0742567
0.0737813
0.0732922
0.0727912
0.0722803
0.0717612
0.0712362
0.0707072
0.0701763
0.0696458
0.0691178
0.0685946
0.0680785
0.0675718
0.0670769
0.066596