/*--------------------------------*- C++ -*----------------------------------*\
  =========                 |
  \\      /  F ield         | OpenFOAM: The Open Source CFD Toolbox
   \\    /   O peration     | Website:  https://openfoam.org
    \\  /    A nd           | Version:  7
     \\/     M anipulation  |
\*---------------------------------------------------------------------------*/
FoamFile
{
    version     2.0;
    format      ascii;
    class       volVectorField;
    location    "14.5";
    object      U;
}
// * * * * * * * * * * * * * * * * * * * * * * * * * * * * * * * * * * * * * //

dimensions      [0 1 -1 0 0 0 0];

internalField   nonuniform List<vector> 
2413
(
(2 -1.44402e-16 0)
(2 -8.55168e-16 0)
(2 -1.26315e-15 0)
(2 -1.53708e-15 0)
(2 -1.51115e-15 0)
(2 -1.55143e-15 0)
(2 -1.16842e-15 0)
(2 -7.77275e-16 0)
(2 -7.11319e-16 0)
(2 3.30104e-16 0)
(2 1.21401e-15 0)
(2 1.86778e-15 0)
(2 2.15088e-15 0)
(2 2.18271e-15 0)
(2 2.04779e-15 0)
(2 2.19572e-15 0)
(2 2.27937e-15 0)
(2 1.95266e-15 0)
(2 1.86786e-15 0)
(2 1.61198e-15 0)
(2 1.59408e-15 0)
(2 9.58941e-16 0)
(2 7.412e-16 0)
(2 7.38587e-16 0)
(2 8.02734e-16 0)
(2 1.32845e-15 0)
(2 1.94798e-15 0)
(2 1.87128e-15 0)
(2 1.55731e-15 0)
(2 9.79183e-16 0)
(2 7.26758e-16 0)
(2 6.16583e-16 0)
(2 6.13172e-16 0)
(2 4.9525e-16 0)
(2 3.62923e-16 0)
(2 3.51843e-16 0)
(2 5.11657e-16 0)
(2 6.03861e-16 0)
(2 5.99743e-16 0)
(2 3.90561e-16 0)
(2 -6.85683e-17 0)
(2 -2.71692e-16 0)
(2 -4.18719e-16 0)
(2 -6.57922e-16 0)
(2 -1.06184e-15 0)
(2 -1.39984e-15 0)
(2 -1.76597e-15 0)
(2 -1.91523e-15 0)
(2 -1.77034e-15 0)
(2 -1.82288e-15 0)
(2 -2.33351e-15 0)
(2 -2.58578e-15 0)
(2 -3.00312e-15 0)
(2 -3.37673e-15 0)
(2 -1.03434e-17 0)
(2 -4.64763e-18 0)
(2 -2.9322e-17 0)
(2 -6.45171e-18 0)
(2 4.14489e-17 0)
(2 8.89575e-17 0)
(2 1.14413e-16 0)
(2 9.19844e-17 0)
(2 8.39586e-18 0)
(2 -1.91061e-17 0)
(2 2.67254e-17 0)
(2 1.26604e-16 0)
(2 1.6957e-16 0)
(2 1.41978e-16 0)
(2 1.32949e-16 0)
(2 2.00485e-16 0)
(2 3.00052e-16 0)
(2 2.51968e-16 0)
(2 2.75808e-16 0)
(2 4.94353e-16 0)
(2 6.28841e-16 0)
(2 6.11117e-16 0)
(2 6.73729e-16 0)
(2 8.96167e-16 0)
(2 8.35926e-16 0)
(2 5.9487e-16 0)
(2 2.84912e-16 0)
(2 -1.6817e-16 0)
(2 -5.85347e-16 0)
(2 -6.30031e-16 0)
(2 -5.4109e-16 0)
(2 -5.32965e-16 0)
(2 -4.92411e-16 0)
(2 -4.80736e-16 0)
(2 -3.38791e-16 0)
(2 -5.74875e-16 0)
(2 -8.38114e-16 0)
(2 -8.52544e-16 0)
(2 -5.99658e-16 0)
(2 -4.55612e-16 0)
(2 -5.51333e-16 0)
(2 -6.40122e-16 0)
(2 -7.34129e-16 0)
(2 -9.03575e-16 0)
(2 -7.80186e-16 0)
(2 -5.40865e-16 0)
(2 -2.45298e-16 0)
(2 -5.5967e-17 0)
(2 3.40622e-16 0)
(2 8.27032e-16 0)
(2 9.97287e-16 0)
(2 9.07434e-16 0)
(2 7.10891e-16 0)
(2 5.2668e-16 0)
(2 4.54933e-16 0)
(2 5.12692e-16 0)
(2 6.06528e-16 0)
(2 4.40544e-16 0)
(2 2.66886e-16 0)
(2 1.82702e-16 0)
(2 6.03944e-16 0)
(2 8.67871e-16 0)
(2 9.84582e-16 0)
(2 1.10089e-15 0)
(2 9.89173e-16 0)
(2 9.00002e-16 0)
(2 1.07011e-15 0)
(2 1.26465e-15 0)
(2 1.45344e-15 0)
(2 1.4243e-15 0)
(2 1.41533e-15 0)
(2 1.39539e-15 0)
(2 1.35377e-15 0)
(2 1.36521e-15 0)
(2 1.13454e-15 0)
(2 1.0094e-15 0)
(2 1.4986e-15 0)
(2 2.03083e-15 0)
(2 2.24374e-15 0)
(2 1.99461e-15 0)
(2 1.50639e-15 0)
(2 1.48729e-15 0)
(2 1.52985e-15 0)
(2 1.73382e-15 0)
(2 2.02722e-15 0)
(2 2.45364e-15 0)
(2 2.47504e-15 0)
(2 2.46064e-15 0)
(2 2.74819e-15 0)
(2 2.87782e-15 0)
(2 2.90188e-15 0)
(2 2.87579e-15 0)
(2 2.98135e-15 0)
(2 3.04538e-15 0)
(2 3.19892e-15 0)
(2 3.84304e-15 0)
(2 3.75777e-15 0)
(2 2.4518e-15 0)
(2 2.04684e-15 0)
(2 1.67383e-15 0)
(2 1.24461e-15 0)
(2 9.9015e-16 0)
(2 8.21327e-16 0)
(2 1.37962e-15 0)
(2 2.06742e-15 0)
(2 2.2597e-15 0)
(2 2.30072e-15 0)
(2 2.27319e-15 0)
(2 2.51373e-15 0)
(2 2.53372e-15 0)
(2 2.36122e-15 0)
(2 1.99146e-15 0)
(2 1.12708e-15 0)
(2 8.8017e-16 0)
(2 1.54354e-15 0)
(2 1.65069e-15 0)
(2 1.30834e-15 0)
(2 8.60727e-16 0)
(2 5.39426e-16 0)
(2 5.58808e-16 0)
(2 4.98339e-16 0)
(2 3.33245e-16 0)
(2 1.26047e-16 0)
(2 -2.74727e-17 0)
(2 3.49071e-17 0)
(2 3.2082e-18 0)
(2 4.26e-18 0)
(2 -5.02533e-17 0)
(2 -3.058e-16 0)
(2 -5.46036e-16 0)
(2 -5.82944e-16 0)
(2 -6.02073e-16 0)
(2 -1.91651e-18 0)
(2 2.88132e-18 0)
(2 4.95851e-18 0)
(2 -3.21109e-17 0)
(2 -3.55163e-17 0)
(2 1.31027e-17 0)
(2 -1.16266e-16 0)
(2 -3.69414e-16 0)
(2 -4.94032e-16 0)
(2 -6.56005e-16 0)
(2 -7.0961e-16 0)
(2 -5.53971e-16 0)
(2 -3.67337e-16 0)
(2 -6.77969e-16 0)
(2 -7.6253e-16 0)
(2 -8.45033e-16 0)
(2 -8.13724e-16 0)
(2 -7.01055e-16 0)
(2 -4.94862e-16 0)
(2 8.19673e-17 0)
(2 1.68559e-16 0)
(2 2.38822e-16 0)
(2 4.19514e-16 0)
(2 5.48303e-16 0)
(2 4.94854e-16 0)
(2 3.83696e-16 0)
(2 2.85047e-16 0)
(2 2.71492e-16 0)
(2 4.22026e-16 0)
(2 4.31987e-16 0)
(2 2.62886e-16 0)
(2 -2.54335e-17 0)
(2 -9.55232e-17 0)
(2 -8.29929e-16 0)
(2 -1.07873e-15 0)
(2 -1.35359e-15 0)
(2 -1.45706e-15 0)
(2 -1.34122e-15 0)
(2 -1.32329e-15 0)
(2 -1.24535e-15 0)
(2 -1.01493e-15 0)
(2 -9.17548e-16 0)
(2 -4.82455e-16 0)
(2 -2.45293e-16 0)
(2 -1.05412e-16 0)
(2 -9.60615e-17 0)
(2 -1.70176e-16 0)
(2 -7.90103e-17 0)
(2 2.94112e-16 0)
(2 4.46101e-16 0)
(2 6.39913e-16 0)
(2 7.73942e-16 0)
(2 9.78583e-16 0)
(2 9.84365e-16 0)
(2 9.34297e-16 0)
(2 7.04347e-16 0)
(2 5.30622e-16 0)
(2 4.83032e-16 0)
(2 5.22107e-16 0)
(2 4.92867e-16 0)
(2 6.977e-16 0)
(2 1.00793e-15 0)
(2 1.17665e-15 0)
(2 1.23426e-15 0)
(2 1.18104e-15 0)
(2 1.0256e-15 0)
(2 8.29967e-16 0)
(2 7.19266e-16 0)
(2 7.12559e-16 0)
(2 6.9152e-16 0)
(2 9.09568e-16 0)
(2 1.11656e-15 0)
(2 1.48215e-15 0)
(2 1.96279e-15 0)
(2 2.40857e-15 0)
(2 2.67873e-15 0)
(2 3.25411e-15 0)
(2 3.69395e-15 0)
(2 3.98534e-15 0)
(2 4.72918e-15 0)
(2 5.08348e-15 0)
(2 4.9501e-15 0)
(2 4.91157e-15 0)
(2 4.87749e-15 0)
(2 5.39046e-15 0)
(2 5.52395e-15 0)
(2 5.19225e-15 0)
(2 4.59069e-15 0)
(2 3.7918e-15 0)
(2 2.55976e-15 0)
(2 2.22193e-15 0)
(2 2.45276e-15 0)
(2 2.63224e-15 0)
(2 2.51145e-15 0)
(2 2.74679e-15 0)
(2 2.9967e-15 0)
(2 3.11513e-15 0)
(2 3.06066e-15 0)
(2 2.67467e-15 0)
(2 2.45879e-15 0)
(2 2.5865e-15 0)
(2 2.79019e-15 0)
(2 2.85912e-15 0)
(2 2.78064e-15 0)
(2 2.80698e-15 0)
(2 3.19074e-15 0)
(2 3.24183e-15 0)
(2 3.32478e-15 0)
(2 3.30278e-15 0)
(2 3.0033e-15 0)
(2 2.76612e-15 0)
(2 2.0206e-15 0)
(2 1.82527e-15 0)
(2 1.91688e-15 0)
(2 1.74908e-15 0)
(2 5.15591e-16 0)
(2 3.79473e-16 0)
(2 4.57034e-16 0)
(2 4.73037e-16 0)
(2 4.73613e-16 0)
(2 5.99658e-16 0)
(2 9.02633e-16 0)
(2 1.19981e-15 0)
(2 1.12195e-15 0)
(2 9.90294e-16 0)
(2 1.0218e-15 0)
(2 1.16016e-15 0)
(2 1.33358e-15 0)
(2 1.64659e-15 0)
(2 1.74227e-15 0)
(2 1.96069e-15 0)
(2 2.06452e-15 0)
(2 1.69958e-18 0)
(2 1.87389e-17 0)
(2 2.84837e-17 0)
(2 4.43095e-17 0)
(2 2.27487e-17 0)
(2 -9.83334e-17 0)
(2 -1.03126e-16 0)
(2 -3.9983e-16 0)
(2 -4.8397e-16 0)
(2 -5.89376e-16 0)
(2 -7.07041e-16 0)
(2 -7.71493e-16 0)
(2 -9.50327e-16 0)
(2 -1.17683e-15 0)
(2 -1.01031e-15 0)
(2 -8.00838e-16 0)
(2 -7.35242e-16 0)
(2 -3.50647e-16 0)
(2 -1.11676e-16 0)
(2 -6.01509e-17 0)
(2 -6.74429e-17 0)
(2 2.06442e-18 0)
(2 6.23967e-17 0)
(2 6.92224e-18 0)
(2 3.68917e-16 0)
(2 9.61506e-16 0)
(2 1.01549e-15 0)
(2 1.17092e-15 0)
(2 1.30869e-15 0)
(2 1.28863e-15 0)
(2 1.19566e-15 0)
(2 7.49199e-16 0)
(2 4.74167e-16 0)
(2 2.43738e-16 0)
(2 4.2787e-16 0)
(2 5.97109e-16 0)
(2 9.62273e-16 0)
(2 9.87804e-16 0)
(2 9.63092e-16 0)
(2 1.21825e-15 0)
(2 1.23289e-15 0)
(2 1.03133e-15 0)
(2 9.12296e-16 0)
(2 6.94484e-16 0)
(2 5.61673e-16 0)
(2 4.81321e-16 0)
(2 2.90276e-16 0)
(2 1.3829e-16 0)
(2 -6.01756e-16 0)
(2 -6.52557e-16 0)
(2 -5.51373e-16 0)
(2 -4.99885e-16 0)
(2 -3.07952e-16 0)
(2 -1.08898e-17 0)
(2 6.48918e-17 0)
(2 6.48739e-17 0)
(2 3.61315e-18 0)
(2 1.89163e-16 0)
(2 5.36322e-16 0)
(2 7.83296e-16 0)
(2 8.61009e-16 0)
(2 8.80299e-16 0)
(2 9.31045e-16 0)
(2 8.20447e-16 0)
(2 6.34685e-16 0)
(2 6.84636e-16 0)
(2 7.8372e-16 0)
(2 4.92608e-16 0)
(2 3.34309e-16 0)
(2 4.8242e-16 0)
(2 5.8778e-16 0)
(2 8.77415e-16 0)
(2 1.17892e-15 0)
(2 1.84081e-15 0)
(2 2.13589e-15 0)
(2 2.50443e-15 0)
(2 2.54306e-15 0)
(2 2.58849e-15 0)
(2 2.54401e-15 0)
(2 2.5485e-15 0)
(2 3.53146e-15 0)
(2 3.80139e-15 0)
(2 3.82857e-15 0)
(2 3.75186e-15 0)
(2 3.5325e-15 0)
(2 3.27977e-15 0)
(2 3.36652e-15 0)
(2 3.25995e-15 0)
(2 3.19939e-15 0)
(2 3.12426e-15 0)
(2 3.20589e-15 0)
(2 1.92939e-15 0)
(2 1.45829e-15 0)
(2 1.67211e-15 0)
(2 1.44474e-15 0)
(2 1.14906e-15 0)
(2 9.35321e-16 0)
(2 1.02346e-15 0)
(2 1.23934e-15 0)
(2 1.44904e-15 0)
(2 2.14199e-15 0)
(2 2.45266e-15 0)
(2 2.6252e-15 0)
(2 2.47422e-15 0)
(2 2.34246e-15 0)
(2 2.25854e-15 0)
(2 2.15651e-15 0)
(2 2.06108e-15 0)
(2 1.79959e-15 0)
(2 1.68384e-15 0)
(2 1.61251e-15 0)
(2 1.63802e-15 0)
(2 1.65061e-15 0)
(2 1.59671e-15 0)
(2 1.34122e-15 0)
(2 1.48035e-15 0)
(2 1.74704e-15 0)
(2 1.90271e-15 0)
(2 2.24167e-15 0)
(2 2.36647e-15 0)
(2 2.26208e-15 0)
(2 2.35504e-15 0)
(2 2.73272e-15 0)
(2 2.82704e-15 0)
(2 2.79667e-15 0)
(2 2.44036e-15 0)
(2 2.26801e-15 0)
(2 2.30145e-15 0)
(2 2.32567e-15 0)
(2 2.28671e-15 0)
(2 2.42713e-15 0)
(2 2.44104e-15 0)
(2 -4.59964e-18 0)
(2 -3.55573e-17 0)
(2 -8.87828e-17 0)
(2 -3.93148e-17 0)
(2 1.4517e-16 0)
(2 1.94162e-16 0)
(2 1.90723e-16 0)
(2 1.83676e-16 0)
(2 2.01223e-16 0)
(2 2.57961e-16 0)
(2 6.53027e-17 0)
(2 -9.31239e-17 0)
(2 -1.32482e-16 0)
(2 -2.37379e-16 0)
(2 -3.21493e-16 0)
(2 -4.24579e-16 0)
(2 -2.70023e-16 0)
(2 -1.75618e-16 0)
(2 -9.10498e-17 0)
(2 3.29333e-17 0)
(2 2.7044e-16 0)
(2 3.80668e-16 0)
(2 4.93441e-16 0)
(2 6.66683e-16 0)
(2 9.22256e-16 0)
(2 1.32831e-15 0)
(2 1.40596e-15 0)
(2 1.53496e-15 0)
(2 1.63263e-15 0)
(2 1.30387e-15 0)
(2 1.22018e-15 0)
(2 1.13978e-15 0)
(2 9.01801e-16 0)
(2 8.67955e-16 0)
(2 9.07866e-16 0)
(2 9.95751e-16 0)
(2 1.24635e-15 0)
(2 1.24684e-15 0)
(2 1.17191e-15 0)
(2 1.13086e-15 0)
(2 9.02013e-16 0)
(2 7.37911e-16 0)
(2 3.08575e-16 0)
(2 -1.41311e-16 0)
(2 -2.77514e-16 0)
(2 -4.16411e-16 0)
(2 -9.60999e-16 0)
(2 -1.55039e-15 0)
(2 -1.7578e-15 0)
(2 -2.02683e-15 0)
(2 -2.12958e-15 0)
(2 -2.31198e-15 0)
(2 -2.09752e-15 0)
(2 -2.03868e-15 0)
(2 -1.97388e-15 0)
(2 -1.81742e-15 0)
(2 -1.68982e-15 0)
(2 -1.58706e-15 0)
(2 -1.19265e-15 0)
(2 -1.11281e-15 0)
(2 -1.10756e-15 0)
(2 -1.10949e-15 0)
(2 -8.20747e-16 0)
(2 -5.54062e-16 0)
(2 -4.89106e-16 0)
(2 -3.93682e-16 0)
(2 -2.50121e-16 0)
(2 1.13938e-16 0)
(2 2.845e-16 0)
(2 5.06862e-16 0)
(2 1.02619e-15 0)
(2 1.14489e-15 0)
(2 1.51126e-15 0)
(2 1.60884e-15 0)
(2 1.64755e-15 0)
(2 1.6625e-15 0)
(2 1.62247e-15 0)
(2 1.53463e-15 0)
(2 1.38833e-15 0)
(2 1.1146e-15 0)
(2 1.03551e-15 0)
(2 1.12267e-15 0)
(2 9.11989e-16 0)
(2 7.22663e-16 0)
(2 4.82793e-16 0)
(2 3.90517e-16 0)
(2 3.92277e-16 0)
(2 4.11633e-16 0)
(2 4.60968e-16 0)
(2 5.40044e-16 0)
(2 7.23711e-16 0)
(2 5.40213e-16 0)
(2 -5.08945e-17 0)
(2 -3.44379e-16 0)
(2 -3.01712e-16 0)
(2 -1.83563e-16 0)
(2 -2.17258e-16 0)
(2 -4.41623e-16 0)
(2 1.11526e-15 0)
(2 1.66587e-15 0)
(2 1.69067e-15 0)
(2 1.75084e-15 0)
(2 1.80888e-15 0)
(2 1.71854e-15 0)
(2 1.60666e-15 0)
(2 1.5071e-15 0)
(2 1.47639e-15 0)
(2 1.46922e-15 0)
(2 1.31973e-15 0)
(2 1.64042e-15 0)
(2 2.45533e-15 0)
(2 2.13675e-15 0)
(2 1.76807e-15 0)
(2 1.57235e-15 0)
(2 1.50391e-15 0)
(2 1.36771e-15 0)
(2 1.3436e-15 0)
(2 1.03012e-15 0)
(2 1.6752e-15 0)
(2 2.41074e-15 0)
(2 2.46343e-15 0)
(2 2.57034e-15 0)
(2 2.79374e-15 0)
(2 3.6418e-15 0)
(2 3.6597e-15 0)
(2 3.58775e-15 0)
(2 3.38406e-15 0)
(2 3.07153e-15 0)
(2 2.76455e-15 0)
(2 2.49614e-15 0)
(2 2.23365e-15 0)
(2 2.17029e-15 0)
(2 -2.67666e-17 0)
(2 -1.01733e-16 0)
(2 1.03608e-16 0)
(2 1.77891e-16 0)
(2 2.6703e-16 0)
(2 2.23759e-16 0)
(2 2.2168e-16 0)
(2 3.87983e-16 0)
(2 5.86701e-16 0)
(2 6.44395e-16 0)
(2 5.38636e-16 0)
(2 4.3643e-16 0)
(2 3.95521e-16 0)
(2 3.97108e-16 0)
(2 4.34709e-16 0)
(2 3.80054e-16 0)
(2 1.978e-16 0)
(2 1.6011e-16 0)
(2 2.11334e-16 0)
(2 1.68638e-16 0)
(2 4.69657e-17 0)
(2 -1.28867e-16 0)
(2 -9.24669e-17 0)
(2 -1.56618e-16 0)
(2 -5.32421e-16 0)
(2 -7.16775e-16 0)
(2 -8.36657e-16 0)
(2 -8.40708e-16 0)
(2 -7.92612e-16 0)
(2 -6.00187e-16 0)
(2 -3.08976e-16 0)
(2 -5.16969e-17 0)
(2 1.95542e-16 0)
(2 7.93575e-17 0)
(2 -5.77455e-16 0)
(2 -9.3544e-16 0)
(2 -1.57406e-15 0)
(2 -1.49377e-15 0)
(2 -1.29181e-15 0)
(2 -1.03019e-15 0)
(2 -8.46494e-16 0)
(2 -9.75575e-16 0)
(2 -1.2232e-15 0)
(2 -1.43074e-15 0)
(2 -1.5792e-15 0)
(2 -1.61951e-15 0)
(2 -1.68432e-15 0)
(2 -1.66618e-15 0)
(2 -1.69258e-15 0)
(2 -1.88872e-15 0)
(2 -2.29394e-15 0)
(2 -2.40426e-15 0)
(2 -2.52895e-15 0)
(2 -2.61856e-15 0)
(2 -2.42801e-15 0)
(2 -1.98914e-15 0)
(2 -1.91358e-15 0)
(2 -1.63292e-15 0)
(2 -1.29824e-15 0)
(2 -1.0844e-15 0)
(2 -8.78287e-16 0)
(2 -6.89597e-16 0)
(2 -5.87826e-16 0)
(2 -4.00344e-16 0)
(2 -3.55972e-17 0)
(2 1.09299e-16 0)
(2 5.34069e-16 0)
(2 9.86718e-16 0)
(2 1.28814e-15 0)
(2 1.54094e-15 0)
(2 1.72762e-15 0)
(2 1.81253e-15 0)
(2 2.12018e-15 0)
(2 2.22044e-15 0)
(2 2.23054e-15 0)
(2 2.23395e-15 0)
(2 2.21407e-15 0)
(2 2.05412e-15 0)
(2 2.06887e-15 0)
(2 1.80577e-15 0)
(2 1.35252e-15 0)
(2 6.67202e-16 0)
(2 5.47141e-16 0)
(2 4.08044e-17 0)
(2 -5.00079e-16 0)
(2 -5.40049e-16 0)
(2 -6.00928e-16 0)
(2 -7.33621e-16 0)
(2 -9.26648e-16 0)
(2 -1.32773e-15 0)
(2 -1.48606e-15 0)
(2 -1.36065e-15 0)
(2 -1.01366e-15 0)
(2 -1.20454e-15 0)
(2 -9.51849e-16 0)
(2 -1.7677e-16 0)
(2 3.79637e-16 0)
(2 5.68368e-16 0)
(2 5.2979e-16 0)
(2 6.66539e-16 0)
(2 8.60463e-16 0)
(2 9.84835e-16 0)
(2 1.26801e-15 0)
(2 1.47121e-15 0)
(2 1.72737e-15 0)
(2 2.04227e-15 0)
(2 1.9618e-15 0)
(2 1.82703e-15 0)
(2 1.6433e-15 0)
(2 9.61383e-16 0)
(2 5.26274e-16 0)
(2 3.10898e-16 0)
(2 6.23407e-16 0)
(2 8.87211e-16 0)
(2 6.94691e-16 0)
(2 1.1507e-15 0)
(2 1.44539e-15 0)
(2 1.3865e-15 0)
(2 1.73848e-15 0)
(2 1.80987e-15 0)
(2 2.1002e-15 0)
(2 2.65771e-15 0)
(2 2.73742e-15 0)
(2 2.75762e-15 0)
(2 2.63882e-15 0)
(2 2.50231e-15 0)
(2 2.43692e-15 0)
(2 2.25445e-15 0)
(2 2.08302e-15 0)
(2 1.90461e-15 0)
(2 1.70566e-15 0)
(2 1.59568e-15 0)
(2 -4.00054e-18 0)
(2 1.26629e-17 0)
(2 5.82283e-17 0)
(2 6.35713e-17 0)
(2 -3.68976e-17 0)
(2 -1.21822e-16 0)
(2 -9.744e-17 0)
(2 -1.54613e-17 0)
(2 5.94735e-17 0)
(2 1.07037e-16 0)
(2 1.49476e-16 0)
(2 1.81462e-16 0)
(2 2.61155e-16 0)
(2 2.98677e-16 0)
(2 2.80087e-16 0)
(2 2.97256e-16 0)
(2 2.31676e-16 0)
(2 1.20295e-16 0)
(2 8.24521e-17 0)
(2 -3.24675e-17 0)
(2 -3.60845e-16 0)
(2 -4.48271e-16 0)
(2 -6.40248e-16 0)
(2 -7.20278e-16 0)
(2 -1.26094e-15 0)
(2 -1.85468e-15 0)
(2 -2.04303e-15 0)
(2 -2.15724e-15 0)
(2 -2.34167e-15 0)
(2 -2.00319e-15 0)
(2 -1.72346e-15 0)
(2 -1.42366e-15 0)
(2 -1.15436e-15 0)
(2 -9.14193e-16 0)
(2 -6.33294e-16 0)
(2 -4.00074e-16 0)
(2 -2.47529e-16 0)
(2 -1.24665e-16 0)
(2 -1.73824e-16 0)
(2 -3.55203e-16 0)
(2 -5.69221e-16 0)
(2 -9.45694e-16 0)
(2 -1.01868e-15 0)
(2 -1.15344e-15 0)
(2 -1.3971e-15 0)
(2 -1.51597e-15 0)
(2 -1.31699e-15 0)
(2 -1.34703e-15 0)
(2 -1.45089e-15 0)
(2 -1.55227e-15 0)
(2 -1.49675e-15 0)
(2 -1.42354e-15 0)
(2 -1.57289e-15 0)
(2 -1.70391e-15 0)
(2 -1.38448e-15 0)
(2 -9.62016e-16 0)
(2 -6.80848e-16 0)
(2 -4.62824e-16 0)
(2 -2.46081e-16 0)
(2 -1.79801e-16 0)
(2 -2.72202e-16 0)
(2 -4.34264e-16 0)
(2 -5.30337e-16 0)
(2 -5.40755e-17 0)
(2 4.24211e-16 0)
(2 6.0516e-16 0)
(2 1.15546e-15 0)
(2 1.58272e-15 0)
(2 1.71211e-15 0)
(2 2.24543e-15 0)
(2 1.76808e-15 0)
(2 1.55372e-15 0)
(2 8.73686e-16 0)
(2 5.65096e-16 0)
(2 8.95743e-16 0)
(2 1.97002e-15 0)
(2 2.19288e-15 0)
(2 2.08127e-15 0)
(2 1.87607e-15 0)
(2 1.75273e-15 0)
(2 1.45587e-15 0)
(2 1.27959e-15 0)
(2 1.16941e-15 0)
(2 7.5176e-16 0)
(2 3.43461e-16 0)
(2 2.56323e-16 0)
(2 2.34732e-16 0)
(2 2.03254e-16 0)
(2 5.06422e-17 0)
(2 -2.00011e-16 0)
(2 -4.71264e-16 0)
(2 -4.1655e-16 0)
(2 -3.46194e-16 0)
(2 -9.53221e-17 0)
(2 -3.00143e-17 0)
(2 2.534e-17 0)
(2 1.69607e-16 0)
(2 4.57059e-16 0)
(2 4.98107e-16 0)
(2 4.77103e-16 0)
(2 5.77234e-16 0)
(2 7.46989e-16 0)
(2 5.18687e-16 0)
(2 3.17773e-16 0)
(2 4.55085e-16 0)
(2 1.20165e-15 0)
(2 1.28759e-15 0)
(2 6.44263e-16 0)
(2 -4.56803e-17 0)
(2 -4.21067e-16 0)
(2 -6.42904e-16 0)
(2 -5.60799e-16 0)
(2 8.58532e-17 0)
(2 3.1937e-16 0)
(2 3.52993e-16 0)
(2 2.64782e-16 0)
(2 2.06033e-16 0)
(2 9.91485e-17 0)
(2 -8.56952e-18 0)
(2 -1.87451e-16 0)
(2 -3.83323e-16 0)
(2 -4.41577e-16 0)
(2 -3.85073e-16 0)
(2 -6.65478e-16 0)
(2 -7.44012e-16 0)
(2 -7.30445e-16 0)
(2 -7.13982e-16 0)
(2 -6.93964e-16 0)
(2 -5.10493e-16 0)
(2 -3.23912e-16 0)
(2 -3.26268e-16 0)
(2 -3.97207e-16 0)
(2 1.03068e-17 0)
(2 6.22177e-18 0)
(2 -1.21808e-16 0)
(2 -2.21448e-16 0)
(2 -2.23337e-16 0)
(2 -1.60891e-16 0)
(2 -1.11889e-16 0)
(2 -7.50682e-18 0)
(2 -3.4684e-17 0)
(2 1.52484e-17 0)
(2 1.07601e-16 0)
(2 2.29914e-16 0)
(2 3.87249e-16 0)
(2 5.09055e-16 0)
(2 5.60747e-16 0)
(2 6.69022e-16 0)
(2 5.26238e-16 0)
(2 3.85495e-16 0)
(2 5.04742e-17 0)
(2 -4.93669e-17 0)
(2 1.83514e-17 0)
(2 2.11141e-16 0)
(2 2.80128e-16 0)
(2 4.27475e-16 0)
(2 6.24205e-16 0)
(2 6.75892e-16 0)
(2 6.64781e-16 0)
(2 6.05095e-16 0)
(2 5.45903e-16 0)
(2 4.3179e-16 0)
(2 3.6055e-16 0)
(2 2.39383e-16 0)
(2 1.31146e-16 0)
(2 2.54891e-17 0)
(2 2.85744e-16 0)
(2 4.5413e-16 0)
(2 4.87706e-16 0)
(2 3.95743e-16 0)
(2 -8.17332e-17 0)
(2 -3.02063e-16 0)
(2 -8.2989e-16 0)
(2 -1.00363e-15 0)
(2 -1.1732e-15 0)
(2 -1.70618e-15 0)
(2 -2.07604e-15 0)
(2 -2.32494e-15 0)
(2 -2.23538e-15 0)
(2 -1.84363e-15 0)
(2 -1.63804e-15 0)
(2 -1.19416e-15 0)
(2 -7.23826e-16 0)
(2 -6.20451e-16 0)
(2 -1.6494e-16 0)
(2 5.98681e-18 0)
(2 3.59079e-16 0)
(2 -1.71825e-16 0)
(2 -4.21151e-16 0)
(2 -5.03163e-16 0)
(2 -4.13924e-16 0)
(2 -6.09596e-16 0)
(2 -7.04311e-16 0)
(2 -7.92069e-16 0)
(2 -8.93055e-16 0)
(2 -6.95206e-16 0)
(2 2.25123e-16 0)
(2 5.18557e-16 0)
(2 5.39654e-16 0)
(2 4.94821e-16 0)
(2 5.70184e-16 0)
(2 6.41686e-16 0)
(2 7.74919e-16 0)
(2 8.09659e-16 0)
(2 5.68181e-16 0)
(2 2.16551e-16 0)
(2 3.40021e-16 0)
(2 5.86022e-16 0)
(2 4.91408e-16 0)
(2 5.23868e-16 0)
(2 9.11452e-16 0)
(2 5.84178e-16 0)
(2 2.41016e-16 0)
(2 1.57839e-16 0)
(2 -1.73551e-16 0)
(2 -1.94367e-16 0)
(2 -9.23315e-17 0)
(2 -1.27162e-16 0)
(2 3.15273e-16 0)
(2 3.63681e-16 0)
(2 3.17856e-16 0)
(2 4.76779e-16 0)
(2 -3.94476e-17 0)
(2 -9.63933e-16 0)
(2 -1.579e-15 0)
(2 -2.10715e-15 0)
(2 -1.92098e-15 0)
(2 -1.58126e-15 0)
(2 -1.46284e-15 0)
(2 -1.22422e-15 0)
(2 -1.02303e-15 0)
(2 -9.3989e-16 0)
(2 -9.38993e-16 0)
(2 -9.91019e-16 0)
(2 -1.08267e-15 0)
(2 -9.04614e-16 0)
(2 -7.32644e-16 0)
(2 -5.63586e-16 0)
(2 -5.58909e-16 0)
(2 -4.86583e-16 0)
(2 -4.44375e-16 0)
(2 -4.24896e-16 0)
(2 -2.85619e-16 0)
(2 -5.84548e-17 0)
(2 -1.1256e-16 0)
(2 -9.69369e-17 0)
(2 1.00618e-16 0)
(2 3.20765e-17 0)
(2 -1.82576e-16 0)
(2 -4.74256e-16 0)
(2 -6.2972e-16 0)
(2 -7.619e-16 0)
(2 -9.71882e-16 0)
(2 -1.05755e-15 0)
(2 -1.59313e-15 0)
(2 -1.80929e-15 0)
(2 -2.04376e-15 0)
(2 -1.70341e-15 0)
(2 -9.56037e-16 0)
(2 -7.47957e-16 0)
(2 -6.5694e-16 0)
(2 -6.26161e-16 0)
(2 1.54071e-16 0)
(2 6.58486e-16 0)
(2 -2.06173e-17 0)
(2 -4.60193e-17 0)
(2 -2.6129e-17 0)
(2 -7.82813e-17 0)
(2 -1.52068e-16 0)
(2 -9.33646e-17 0)
(2 -1.30976e-16 0)
(2 -1.21106e-16 0)
(2 -3.45435e-17 0)
(2 -5.64852e-17 0)
(2 8.67989e-17 0)
(2 1.35965e-16 0)
(2 2.47988e-16 0)
(2 3.97978e-16 0)
(2 4.97306e-16 0)
(2 4.93703e-16 0)
(2 5.0622e-16 0)
(2 1.51792e-16 0)
(2 3.08299e-16 0)
(2 -3.17623e-16 0)
(2 -7.85396e-16 0)
(2 -7.93371e-16 0)
(2 -5.1905e-16 0)
(2 -4.92009e-16 0)
(2 -2.35413e-16 0)
(2 5.44918e-16 0)
(2 8.25378e-16 0)
(2 1.05545e-15 0)
(2 1.19518e-15 0)
(2 1.19979e-15 0)
(2 1.13295e-15 0)
(2 8.41961e-16 0)
(2 4.23184e-16 0)
(2 1.00298e-16 0)
(2 -3.40163e-16 0)
(2 -4.97413e-16 0)
(2 -6.56542e-16 0)
(2 -1.23368e-15 0)
(2 -1.56379e-15 0)
(2 -1.67895e-15 0)
(2 -1.67512e-15 0)
(2 -1.67933e-15 0)
(2 -1.70432e-15 0)
(2 -1.20063e-15 0)
(2 -8.3749e-16 0)
(2 -6.38931e-16 0)
(2 -7.88378e-16 0)
(2 -8.96258e-16 0)
(2 -9.76258e-16 0)
(2 -6.74669e-16 0)
(2 -3.40934e-16 0)
(2 -1.33363e-16 0)
(2 2.34085e-17 0)
(2 4.33971e-16 0)
(2 5.39136e-16 0)
(2 6.22888e-16 0)
(2 6.95189e-16 0)
(2 6.32327e-16 0)
(2 6.67424e-16 0)
(2 6.9294e-16 0)
(2 7.56283e-16 0)
(2 8.82089e-16 0)
(2 8.64781e-16 0)
(2 7.56994e-16 0)
(2 6.97982e-16 0)
(2 7.95223e-16 0)
(2 9.05789e-16 0)
(2 8.04578e-16 0)
(2 4.94662e-16 0)
(2 2.40378e-16 0)
(2 9.02228e-16 0)
(2 1.23898e-15 0)
(2 1.31153e-15 0)
(2 4.10877e-16 0)
(2 -1.09681e-15 0)
(2 -1.30962e-15 0)
(2 -1.34445e-15 0)
(2 -1.63142e-15 0)
(2 -1.72067e-15 0)
(2 -1.89745e-15 0)
(2 -1.96115e-15 0)
(2 -1.95715e-15 0)
(2 -2.00978e-15 0)
(2 -2.03812e-15 0)
(2 -1.95893e-15 0)
(2 -1.90987e-15 0)
(2 -1.21247e-15 0)
(2 -7.48077e-16 0)
(2 -2.76362e-16 0)
(2 -2.55418e-16 0)
(2 -2.63128e-16 0)
(2 -2.34489e-16 0)
(2 -3.04082e-16 0)
(2 -8.48319e-16 0)
(2 -1.20477e-15 0)
(2 -1.24308e-15 0)
(2 -1.24195e-15 0)
(2 -1.33021e-15 0)
(2 -1.61786e-15 0)
(2 -1.97209e-15 0)
(2 -2.12901e-15 0)
(2 -2.20254e-15 0)
(2 -2.25541e-15 0)
(2 -2.1065e-15 0)
(2 -1.97854e-15 0)
(2 -1.737e-15 0)
(2 -1.26337e-15 0)
(2 -1.10865e-15 0)
(2 -1.06759e-15 0)
(2 -7.7114e-16 0)
(2 -6.81679e-16 0)
(2 -3.38218e-16 0)
(2 -1.54811e-16 0)
(2 2.55153e-16 0)
(2 7.37131e-16 0)
(2 8.66947e-16 0)
(2 7.91055e-16 0)
(2 7.13224e-16 0)
(2 3.67474e-16 0)
(2 2.08703e-16 0)
(2 -6.25851e-17 0)
(2 -5.44707e-16 0)
(2 -8.30407e-16 0)
(2 -1.06162e-15 0)
(2 -9.34892e-16 0)
(2 -5.74795e-16 0)
(2 -1.66024e-16 0)
(2 1.46236e-17 0)
(2 3.2771e-16 0)
(2 8.11616e-16 0)
(2 1.2088e-15 0)
(2 1.44936e-15 0)
(2 -1.04665e-17 0)
(2 -1.31214e-18 0)
(2 -1.73433e-17 0)
(2 -6.55457e-17 0)
(2 -9.44068e-17 0)
(2 -1.52557e-17 0)
(2 -7.25151e-18 0)
(2 -1.15001e-16 0)
(2 -2.45374e-16 0)
(2 -2.76442e-16 0)
(2 -2.91445e-16 0)
(2 -3.55333e-16 0)
(2 -3.89668e-16 0)
(2 -4.58369e-16 0)
(2 -6.64379e-16 0)
(2 -7.31579e-16 0)
(2 -7.50463e-16 0)
(2 -6.07843e-16 0)
(2 -5.80175e-16 0)
(2 -7.39002e-16 0)
(2 -7.37319e-16 0)
(2 -6.88425e-16 0)
(2 -6.18502e-16 0)
(2 -6.47354e-16 0)
(2 -6.56318e-16 0)
(2 -6.95477e-16 0)
(2 -7.64558e-16 0)
(2 -8.81412e-16 0)
(2 -8.50132e-16 0)
(2 -8.31581e-16 0)
(2 -8.21284e-16 0)
(2 -8.03448e-16 0)
(2 -7.49502e-16 0)
(2 -5.03369e-16 0)
(2 -1.91746e-16 0)
(2 1.28522e-16 0)
(2 3.33375e-16 0)
(2 3.96375e-16 0)
(2 1.06545e-16 0)
(2 4.68484e-16 0)
(2 8.86456e-16 0)
(2 8.63416e-16 0)
(2 1.04237e-15 0)
(2 1.35356e-15 0)
(2 1.31871e-15 0)
(2 1.27752e-15 0)
(2 1.40744e-15 0)
(2 1.5652e-15 0)
(2 1.56366e-15 0)
(2 1.34597e-15 0)
(2 1.30835e-15 0)
(2 1.33228e-15 0)
(2 1.15989e-15 0)
(2 1.10729e-15 0)
(2 1.04662e-15 0)
(2 1.05277e-15 0)
(2 1.0902e-15 0)
(2 1.09036e-15 0)
(2 1.0515e-15 0)
(2 1.05509e-15 0)
(2 1.16913e-15 0)
(2 1.37449e-15 0)
(2 1.46046e-15 0)
(2 1.23122e-15 0)
(2 2.83528e-16 0)
(2 -2.3935e-17 0)
(2 -1.29037e-17 0)
(2 -8.62454e-18 0)
(2 -5.52034e-17 0)
(2 -1.70022e-16 0)
(2 -2.99299e-16 0)
(2 -4.46691e-16 0)
(2 -1.81108e-16 0)
(2 -1.15116e-16 0)
(2 -2.43968e-16 0)
(2 -2.66742e-16 0)
(2 -1.01825e-16 0)
(2 -7.7092e-16 0)
(2 -9.81104e-16 0)
(2 -9.17854e-16 0)
(2 -8.04756e-16 0)
(2 -5.35641e-16 0)
(2 -2.79665e-16 0)
(2 -2.2721e-16 0)
(2 -2.5432e-16 0)
(2 -3.23209e-16 0)
(2 -5.03434e-16 0)
(2 -5.86838e-16 0)
(2 -3.64449e-16 0)
(2 1.72115e-18 0)
(2 -1.80039e-16 0)
(2 -4.1714e-16 0)
(2 -4.77481e-16 0)
(2 -7.22391e-16 0)
(2 -5.39555e-16 0)
(2 -9.75931e-16 0)
(2 -1.49997e-15 0)
(2 -1.57804e-15 0)
(2 -1.73425e-15 0)
(2 -1.85568e-15 0)
(2 -1.84436e-15 0)
(2 -1.66207e-15 0)
(2 -1.53435e-15 0)
(2 -1.63245e-15 0)
(2 -1.60022e-15 0)
(2 -1.7462e-15 0)
(2 -1.77693e-15 0)
(2 -1.75706e-15 0)
(2 -1.64051e-15 0)
(2 -1.36919e-15 0)
(2 -1.1085e-15 0)
(2 -4.80964e-16 0)
(2 -3.28766e-16 0)
(2 -4.14623e-16 0)
(2 -6.27101e-16 0)
(2 -7.27769e-16 0)
(2 -7.18765e-16 0)
(2 -3.47073e-16 0)
(2 -6.0823e-17 0)
(2 -8.64824e-17 0)
(2 -2.28892e-16 0)
(2 -2.4298e-16 0)
(2 -2.1931e-16 0)
(2 -3.24793e-16 0)
(2 -6.6227e-16 0)
(2 -6.67294e-16 0)
(2 -5.00001e-16 0)
(2 -1.85587e-16 0)
(2 -1.35123e-16 0)
(2 4.2875e-17 0)
(2 5.50489e-16 0)
(2 7.41635e-16 0)
(2 -1.81946e-17 0)
(2 6.37821e-17 0)
(2 1.25556e-17 0)
(2 2.32445e-17 0)
(2 1.09705e-16 0)
(2 1.52911e-16 0)
(2 1.56452e-16 0)
(2 1.74788e-16 0)
(2 1.8676e-16 0)
(2 2.18665e-16 0)
(2 1.89718e-16 0)
(2 9.18561e-17 0)
(2 -6.34102e-17 0)
(2 -2.59145e-16 0)
(2 -7.78832e-17 0)
(2 1.23898e-16 0)
(2 1.15448e-16 0)
(2 5.68494e-17 0)
(2 2.62352e-16 0)
(2 8.48241e-16 0)
(2 1.12375e-15 0)
(2 1.2395e-15 0)
(2 1.31561e-15 0)
(2 1.36369e-15 0)
(2 1.21158e-15 0)
(2 8.21507e-16 0)
(2 5.99193e-16 0)
(2 1.97151e-16 0)
(2 -7.25188e-17 0)
(2 -2.35851e-16 0)
(2 -3.3223e-16 0)
(2 -2.64071e-16 0)
(2 -1.05089e-16 0)
(2 4.10024e-16 0)
(2 6.9641e-16 0)
(2 1.03697e-15 0)
(2 1.05347e-15 0)
(2 9.1241e-16 0)
(2 1.73412e-15 0)
(2 2.39558e-15 0)
(2 2.26163e-15 0)
(2 2.16876e-15 0)
(2 1.83179e-15 0)
(2 1.63038e-15 0)
(2 1.51788e-15 0)
(2 1.42274e-15 0)
(2 1.03943e-15 0)
(2 1.39642e-15 0)
(2 2.21281e-15 0)
(2 2.3488e-15 0)
(2 2.32371e-15 0)
(2 2.22314e-15 0)
(2 2.16124e-15 0)
(2 2.05703e-15 0)
(2 1.98779e-15 0)
(2 1.64664e-15 0)
(2 1.49402e-15 0)
(2 1.57154e-15 0)
(2 1.60463e-15 0)
(2 1.7185e-15 0)
(2 1.72303e-15 0)
(2 1.59434e-15 0)
(2 1.58971e-15 0)
(2 1.61345e-15 0)
(2 1.40939e-15 0)
(2 1.17377e-15 0)
(2 1.34343e-15 0)
(2 3.61064e-16 0)
(2 -2.42236e-16 0)
(2 -5.77737e-16 0)
(2 -5.86667e-16 0)
(2 -5.06055e-16 0)
(2 -3.33553e-16 0)
(2 -1.31245e-17 0)
(2 4.12689e-16 0)
(2 3.46862e-16 0)
(2 6.95587e-16 0)
(2 8.98628e-16 0)
(2 7.35531e-16 0)
(2 1.72484e-15 0)
(2 2.88001e-15 0)
(2 3.27162e-15 0)
(2 3.41719e-15 0)
(2 3.21971e-15 0)
(2 2.19218e-15 0)
(2 1.92114e-15 0)
(2 1.61968e-15 0)
(2 1.29373e-15 0)
(2 8.42089e-16 0)
(2 5.83575e-16 0)
(2 1.99533e-16 0)
(2 2.50675e-16 0)
(2 2.82335e-16 0)
(2 2.26544e-16 0)
(2 1.96035e-16 0)
(2 2.76245e-17 0)
(2 -5.9895e-16 0)
(2 -6.88254e-16 0)
(2 -7.25664e-16 0)
(2 -6.57328e-16 0)
(2 -5.73126e-16 0)
(2 -7.04615e-16 0)
(2 -1.3687e-15 0)
(2 -1.49135e-15 0)
(2 -1.44901e-15 0)
(2 -1.3049e-15 0)
(2 -8.32567e-16 0)
(2 -3.47204e-16 0)
(2 4.77961e-16 0)
(2 1.88991e-16 0)
(2 9.77458e-17 0)
(2 -6.4399e-17 0)
(2 -2.41586e-16 0)
(2 -3.52853e-16 0)
(2 -3.81e-16 0)
(2 -5.278e-16 0)
(2 -6.65317e-16 0)
(2 -7.22464e-16 0)
(2 -2.34643e-16 0)
(2 -1.87862e-16 0)
(2 8.03682e-17 0)
(2 3.82183e-16 0)
(2 4.60308e-16 0)
(2 4.28747e-16 0)
(2 4.76681e-16 0)
(2 4.71864e-16 0)
(2 6.17137e-17 0)
(2 -1.52485e-17 0)
(2 9.61366e-17 0)
(2 2.35132e-16 0)
(2 4.99682e-16 0)
(2 8.70447e-16 0)
(2 -8.95882e-18 0)
(2 -2.17738e-17 0)
(2 3.58754e-17 0)
(2 6.52814e-17 0)
(2 3.62099e-17 0)
(2 2.67124e-17 0)
(2 3.12915e-17 0)
(2 5.42694e-17 0)
(2 1.08115e-16 0)
(2 8.97155e-17 0)
(2 2.84907e-17 0)
(2 3.42157e-17 0)
(2 -2.08966e-16 0)
(2 -4.32988e-16 0)
(2 -9.0062e-17 0)
(2 -1.06082e-18 0)
(2 9.62146e-17 0)
(2 4.57685e-16 0)
(2 6.67671e-16 0)
(2 7.21634e-16 0)
(2 5.77525e-16 0)
(2 5.01834e-16 0)
(2 4.21363e-16 0)
(2 3.39837e-16 0)
(2 2.21107e-16 0)
(2 1.18548e-16 0)
(2 3.67436e-17 0)
(2 4.88149e-17 0)
(2 2.4081e-17 0)
(2 3.9037e-17 0)
(2 7.93392e-17 0)
(2 3.53909e-16 0)
(2 5.64756e-16 0)
(2 7.04743e-16 0)
(2 5.65233e-16 0)
(2 3.55313e-16 0)
(2 -1.54371e-16 0)
(2 -5.33165e-17 0)
(2 1.64486e-16 0)
(2 1.5317e-16 0)
(2 1.68715e-16 0)
(2 1.4837e-16 0)
(2 7.29517e-17 0)
(2 1.06246e-16 0)
(2 5.34116e-16 0)
(2 6.16964e-16 0)
(2 4.53625e-16 0)
(2 4.07909e-16 0)
(2 5.2087e-16 0)
(2 1.04225e-15 0)
(2 1.37956e-15 0)
(2 1.66397e-15 0)
(2 1.76279e-15 0)
(2 1.87282e-15 0)
(2 1.74737e-15 0)
(2 1.37571e-15 0)
(2 1.38329e-15 0)
(2 1.48239e-15 0)
(2 1.54069e-15 0)
(2 1.61e-15 0)
(2 1.63922e-15 0)
(2 1.65672e-15 0)
(2 1.68389e-15 0)
(2 1.73782e-15 0)
(2 1.03719e-15 0)
(2 7.39193e-16 0)
(2 4.58753e-16 0)
(2 1.63552e-16 0)
(2 4.54089e-17 0)
(2 -4.5049e-16 0)
(2 -4.88378e-16 0)
(2 -2.84615e-16 0)
(2 -2.21552e-17 0)
(2 1.90195e-16 0)
(2 2.50916e-16 0)
(2 1.68395e-16 0)
(2 1.15579e-16 0)
(2 1.41051e-16 0)
(2 1.98789e-16 0)
(2 5.54576e-16 0)
(2 1.30953e-15 0)
(2 1.73955e-15 0)
(2 2.14637e-15 0)
(2 2.39437e-15 0)
(2 2.62716e-15 0)
(2 3.02527e-15 0)
(2 3.16339e-15 0)
(2 2.6595e-15 0)
(2 2.26581e-15 0)
(2 1.61012e-15 0)
(2 1.25634e-15 0)
(2 1.2793e-15 0)
(2 1.46706e-15 0)
(2 1.67538e-15 0)
(2 1.84537e-15 0)
(2 1.70933e-15 0)
(2 1.35393e-15 0)
(2 1.11299e-15 0)
(2 9.87702e-16 0)
(2 6.23341e-16 0)
(2 1.81763e-16 0)
(2 -1.04198e-16 0)
(2 -2.64921e-16 0)
(2 -3.76604e-16 0)
(2 -3.71301e-16 0)
(2 -6.31541e-16 0)
(2 -8.83672e-16 0)
(2 -1.03091e-15 0)
(2 -1.40605e-15 0)
(2 -1.5829e-15 0)
(2 -1.39812e-15 0)
(2 -8.81907e-16 0)
(2 -2.582e-16 0)
(2 4.00006e-16 0)
(2 6.73516e-16 0)
(2 1.01588e-15 0)
(2 1.16852e-15 0)
(2 1.31756e-15 0)
(2 1.42919e-15 0)
(2 1.51865e-15 0)
(2 1.60966e-15 0)
(2 1.66799e-15 0)
(2 1.81099e-15 0)
(2 1.85357e-15 0)
(2 2.12162e-15 0)
(2 1.86914e-15 0)
(2 1.56704e-15 0)
(2 1.09701e-15 0)
(2 8.34892e-16 0)
(2 5.63396e-16 0)
(2 5.29666e-16 0)
(2 7.08444e-16 0)
(2 7.06006e-18 0)
(2 -8.36916e-18 0)
(2 1.23919e-17 0)
(2 6.11487e-17 0)
(2 5.50027e-17 0)
(2 3.03964e-17 0)
(2 -3.53116e-17 0)
(2 -1.08252e-16 0)
(2 -1.46046e-16 0)
(2 -2.1703e-16 0)
(2 -3.84883e-16 0)
(2 -4.54787e-16 0)
(2 -4.55362e-16 0)
(2 -3.28247e-16 0)
(2 -1.97563e-16 0)
(2 -1.89018e-16 0)
(2 -1.35859e-16 0)
(2 -1.51164e-16 0)
(2 -2.02778e-16 0)
(2 -3.26595e-16 0)
(2 -5.10305e-16 0)
(2 -7.47957e-16 0)
(2 -9.19718e-16 0)
(2 -1.17489e-15 0)
(2 -1.33675e-15 0)
(2 -1.3127e-15 0)
(2 -1.32475e-15 0)
(2 -1.33334e-15 0)
(2 -1.07283e-15 0)
(2 -8.54836e-16 0)
(2 -6.5626e-16 0)
(2 -4.88773e-16 0)
(2 -5.35466e-16 0)
(2 -6.47784e-16 0)
(2 -9.32156e-16 0)
(2 -1.12659e-15 0)
(2 -1.18043e-15 0)
(2 -9.80286e-16 0)
(2 -9.83772e-16 0)
(2 -9.75621e-16 0)
(2 -7.5334e-16 0)
(2 -5.74472e-17 0)
(2 1.99659e-16 0)
(2 4.23421e-16 0)
(2 1.42792e-15 0)
(2 1.63835e-15 0)
(2 1.86202e-15 0)
(2 1.66269e-15 0)
(2 1.40729e-15 0)
(2 9.98264e-16 0)
(2 7.11404e-16 0)
(2 8.14415e-16 0)
(2 8.43992e-16 0)
(2 7.78355e-16 0)
(2 7.99855e-16 0)
(2 8.24179e-16 0)
(2 8.0673e-16 0)
(2 6.78483e-16 0)
(2 4.78288e-16 0)
(2 3.78917e-16 0)
(2 3.18681e-16 0)
(2 2.38313e-16 0)
(2 2.25902e-16 0)
(2 1.02276e-16 0)
(2 -1.79555e-16 0)
(2 -5.10027e-16 0)
(2 -6.86647e-16 0)
(2 -6.19124e-16 0)
(2 -4.60488e-16 0)
(2 -3.44971e-16 0)
(2 -3.85625e-16 0)
(2 -3.98265e-16 0)
(2 -4.08571e-16 0)
(2 -4.11375e-16 0)
(2 -4.41221e-16 0)
(2 -2.08821e-16 0)
(2 1.03273e-16 0)
(2 -1.46055e-16 0)
(2 -4.77277e-16 0)
(2 -7.17225e-16 0)
(2 -7.86912e-16 0)
(2 -8.03133e-16 0)
(2 -5.13356e-16 0)
(2 -6.86687e-17 0)
(2 3.1795e-16 0)
(2 5.41267e-16 0)
(2 9.17534e-16 0)
(2 1.33504e-15 0)
(2 1.53608e-15 0)
(2 1.72334e-15 0)
(2 1.73579e-15 0)
(2 1.79571e-15 0)
(2 1.86402e-15 0)
(2 1.78727e-15 0)
(2 1.75584e-15 0)