/*--------------------------------*- C++ -*----------------------------------*\
  =========                 |
  \\      /  F ield         | OpenFOAM: The Open Source CFD Toolbox
   \\    /   O peration     | Website:  https://openfoam.org
    \\  /    A nd           | Version:  7
     \\/     M anipulation  |
\*---------------------------------------------------------------------------*/
FoamFile
{
    version     2.0;
    format      ascii;
    class       surfaceScalarField;
    location    "1.321";
    object      phi;
}
// * * * * * * * * * * * * * * * * * * * * * * * * * * * * * * * * * * * * * //

dimensions      [0 3 -1 0 0 0 0];

internalField   nonuniform List<scalar> 
18389
(
-7.97431e-05
7.97431e-05
4.3457e-05
-4.3457e-05
-5.20444e-05
5.20444e-05
4.0171e-05
-4.0171e-05
-5.18159e-05
5.18159e-05
-4.00362e-05
4.00362e-05
-3.47137e-05
3.47137e-05
3.90821e-05
-3.90821e-05
-3.57015e-05
3.57015e-05
4.15515e-05
-4.15515e-05
4.50417e-05
-4.50417e-05
-3.46214e-05
3.46215e-05
-1.60159e-05
1.60159e-05
-4.28557e-05
4.28557e-05
4.34773e-05
-4.34773e-05
2.45543e-05
-2.45543e-05
1.94518e-05
-1.94518e-05
4.58946e-05
-4.58946e-05
4.59281e-05
-4.5928e-05
4.33512e-05
-4.33512e-05
-4.25699e-05
4.25699e-05
3.55746e-05
-3.55746e-05
4.29464e-05
-4.29464e-05
-5.84899e-05
5.84899e-05
-4.96937e-05
4.96937e-05
-4.17699e-05
4.17699e-05
-4.45455e-05
4.45455e-05
4.56276e-05
-4.56276e-05
4.58558e-05
-4.58558e-05
4.41466e-05
-4.41465e-05
-4.13478e-05
4.13478e-05
-6.30751e-05
6.30751e-05
4.31162e-05
-4.31162e-05
-4.47507e-05
4.47507e-05
4.08604e-05
-4.08604e-05
4.67025e-05
-4.67025e-05
-4.55514e-05
4.55514e-05
5.35755e-05
-5.35755e-05
-5.88844e-05
5.88844e-05
3.78691e-05
-3.78691e-05
4.48746e-05
-4.48746e-05
4.53741e-05
-4.53741e-05
-4.1009e-05
4.1009e-05
4.48997e-05
-4.48996e-05
4.58734e-05
-4.58734e-05
-4.58564e-05
4.58564e-05
-4.58583e-05
4.58583e-05
-4.06699e-05
4.06699e-05
-4.5887e-05
4.5887e-05
4.59446e-05
-4.59446e-05
4.59595e-05
-4.59595e-05
4.46198e-05
-4.46198e-05
3.77331e-05
-3.77331e-05
-4.57671e-05
4.57671e-05
-5.55457e-05
5.55457e-05
-4.38146e-05
4.38146e-05
4.57579e-05
-4.57579e-05
-4.5994e-05
4.5994e-05
4.32271e-05
-4.32271e-05
-5.9319e-05
5.9319e-05
-4.71477e-05
4.71477e-05
4.96054e-05
-4.96054e-05
4.57376e-05
-4.57376e-05
-1.13221e-05
1.13221e-05
4.57779e-05
-4.57779e-05
4.15671e-05
-4.15671e-05
5.12097e-05
-5.12097e-05
-4.58723e-05
4.58723e-05
4.2322e-05
-4.2322e-05
3.16385e-05
-3.16385e-05
2.525e-06
-2.525e-06
-4.41276e-05
4.41276e-05
3.28687e-05
-3.28687e-05
-3.6574e-05
3.6574e-05
3.97688e-05
-3.97688e-05
2.66257e-05
-2.66257e-05
2.61994e-05
-2.61993e-05
2.70487e-05
-2.70487e-05
2.43932e-05
-2.43932e-05
1.34906e-05
-1.34906e-05
0.00107386
-0.000881649
-0.000192211
0.00546707
-0.00207591
-0.00339115
-0.00594631
0.00594627
4.40214e-08
0.00335434
-0.00259824
-0.000756105
-0.00154518
0.0017622
-0.000217023
-0.00676394
0.00284176
0.00392219
0.00121516
0.00425192
0.00725565
-0.00587624
-0.00137941
0.00116932
-0.00191754
0.000748226
-0.000869779
-0.000675401
-0.00144233
-0.000314611
0.00175695
0.000160078
4.70502e-07
-0.000160549
0.000778425
-0.00222076
-0.00360334
0.000123215
0.00348012
-0.00320237
0.00289146
0.000310924
-0.00572634
0.0072747
-0.00154837
-0.00370937
0.00289688
0.000812484
-0.000564374
-0.00303897
-0.00174722
0.00238822
-0.000640994
-0.000465325
0.00255843
-0.00209311
-0.00160754
0.0011085
0.000499031
0.000583527
0.000581833
-0.00159987
-0.00516408
0.00125033
-0.00180236
0.000552037
0.00578018
-0.00386102
-0.00191915
-0.000656692
0.00330994
-0.00265325
-0.0058352
0.00583492
0.000487092
0.00127511
-0.00633121
0.000975182
0.00535603
0.0023287
-0.0029854
-0.00378991
0.0031135
0.00067641
0.00214817
-0.00422408
0.00109017
-0.000204255
-0.000885917
0.00150366
-0.00128942
-0.000214232
-0.0028011
-0.000401268
0.00535045
-0.0053517
0.000368608
0.00113505
0.00522917
-0.00133783
-0.00389135
0.00200492
-0.000835606
0.00308567
0.0019087
-0.00499436
-0.000722101
-0.00306781
-8.90781e-05
-0.000154928
0.000244006
0.00393522
0.00332043
0.00117161
-0.00489915
0.00372754
0.00162734
0.00360182
-0.00498157
0.00632141
-0.00133984
-0.00113248
-0.000595178
0.00172766
0.00133832
0.00201602
0.000135294
0.000103626
-0.00023892
0.00502362
-0.00339628
0.00645797
-0.000839645
-0.00561832
0.0032202
-0.00265581
-0.00056438
0.00222693
0.000445881
-0.00267282
0.00295369
-0.00072675
0.0065038
-0.00539844
-0.00110536
0.000508889
-0.00387522
0.00336634
7.01647e-05
0.00638781
0.00481332
-0.00430442
-0.000535792
0.00105937
-0.000523573
-0.00175753
0.000625045
0.00191713
0.00224904
-0.00416617
0.000253468
-0.00033368
8.02116e-05
-0.00127107
-0.00284525
0.00411632
-2.60977e-05
0.00652991
-0.00281831
0.00229018
0.000528128
0.00038807
-1.24731e-05
-0.000375597
-0.00569227
-0.000254043
0.00187645
-0.00138936
0.000826921
0.00495326
0.000893837
0.000180026
0.00266643
-0.00648488
0.00381846
-0.0011202
0.000584411
0.00263802
-0.00390909
0.00619656
-0.00226133
0.0010921
0.00117729
-0.000771356
0.00101134
-0.000239981
-0.00110965
-0.000497889
0.00189698
0.00132321
-0.000595869
0.00142982
-0.00123774
-0.000192077
-0.00265476
0.00198534
0.000669426
0.00116712
0.000262701
0.00114276
-0.00498478
0.00384201
-0.00476322
0.00142337
0.00333984
-0.00455428
0.00611796
-0.00156368
-0.00506277
8.12054e-05
-0.00201758
-0.000637179
-0.000214479
0.000125401
-0.00123117
0.00465484
-0.00342368
-0.00122963
-0.000687911
0.000103315
-0.000192024
8.8709e-05
0.000126294
-2.29796e-05
-0.00126386
0.00464453
-0.00338067
-0.000156009
2.43922e-05
0.000131617
-0.00556886
0.00170785
-0.00118896
-0.000568564
-0.000449489
-1.89497e-05
0.000468438
-0.000543354
9.3864e-05
0.00101314
7.70321e-05
-0.00180829
0.000619332
-0.000150249
1.71815e-05
0.000133068
0.00136799
-0.00234448
0.000976487
0.000271106
-0.000135811
-0.00392577
0.00514093
-0.00245659
0.000709373
-9.36278e-05
-0.000428557
0.000522185
0.00568657
-0.00217005
-0.00351653
7.63488e-05
0.00250789
-0.00258424
0.00446887
-0.00562015
0.00115129
0.00263388
0.00305269
0.00291327
-0.00283692
-0.00615414
0.000427802
-0.00646993
0.00363651
0.00283343
0.00229329
0.00390327
-0.00439267
0.00138515
0.00300752
0.00149458
-0.000244248
-0.0010279
0.00402207
-0.00299417
0.0046394
-0.00162709
-0.00301231
-0.0046107
0.00374726
0.000863447
0.00369321
-0.00503104
5.90133e-05
0.000329057
-0.00138544
0.00585432
-9.34683e-05
0.00214933
-0.00205586
-0.00206396
0.00260486
0.000178155
-0.00278301
-0.00127742
0.00264541
-0.000653124
0.00325798
0.00164046
-0.00173392
0.000914352
0.0039734
-0.00488775
-0.00504223
0.00384406
0.00119818
0.00255188
-0.00359409
0.00104222
-0.00334055
0.00412009
-0.000779537
0.000334527
-0.00367508
-0.000886244
0.000886244
-0.000447295
0.000353668
-0.000126979
-0.00097347
0.00110045
0.0050703
-0.00184316
-0.00322713
-0.00243323
-0.00036788
0.00290025
0.000157754
1.65273e-05
-0.000174282
-0.00146825
0.00112261
0.000345643
-0.000140934
-0.0049013
0.00506397
-0.00389236
0.000259112
-9.90343e-05
0.00444393
0.000579687
0.00406758
-0.0015157
0.000164823
-7.06855e-06
-0.00634642
-0.00098249
-0.000825804
0.00430057
-0.0019051
-0.00239548
0.00275606
0.00154452
0.0010777
-0.00563198
-0.00225533
-0.000562976
-0.00111936
-0.000958671
0.00207803
3.82728e-05
-0.00272165
0.00268337
-0.00235779
0.00123843
-0.00221813
0.0053038
-0.00462441
0.00160752
0.0030169
0.00254616
0.000665702
-0.000332966
-0.000332736
-0.00601423
0.000583062
0.00543117
-0.00418696
0.00582912
-0.00164216
0.00182581
0.00162888
-0.0034547
-0.00167116
0.000900025
0.000771135
-0.00271513
0.00207927
0.000635861
0.00109709
0.000779357
0.000247199
-0.000328938
8.17407e-05
0.00491251
-0.00399817
-0.00638633
0.00557474
0.000811595
-0.00479411
-0.00167581
0.0033413
0.000651244
-0.00399254
0.00015393
-0.000162132
8.20159e-06
0.00059052
-0.000125323
-0.000465197
-0.00451867
0.00261357
0.000360942
-0.000559084
0.000198142
5.43139e-05
-0.00094056
-0.00257571
0.00448442
-0.00530517
-0.000324052
0.00562923
0.000200329
0.000184873
-0.000385202
0.000639963
-0.000639963
0.00168401
-0.000729794
-0.0021098
0.00181065
0.000299149
0.00440532
-0.00302018
-0.000162245
6.23654e-06
-0.00120154
0.00125586
0.00072426
0.00128066
0.00234891
-0.000269637
-0.00402023
-0.00128493
0.00111424
-0.00498948
0.0032134
-0.00447726
0.000836028
-0.00213504
0.00129901
0.00335878
-0.00458995
-0.00271184
-0.00180683
-0.00483637
0.00469544
-0.000675834
-0.00533839
-0.00516042
0.00150702
-0.00146166
-4.53538e-05
0.0022289
0.000120015
-0.00601368
0.00204819
0.00396549
-0.00121933
0.000525995
0.000693336
0.00145864
0.00294668
-0.00462614
-0.00101729
0.00564344
-0.000212793
0.000138486
7.43065e-05
-0.00551925
0.00133229
0.00375305
-0.0049369
0.00118386
-0.00149119
-0.000618603
-0.000536677
-0.0006375
0.000138368
-0.000203834
6.54651e-05
0.00500695
-0.0038642
-0.00130128
0.00512607
-0.00382479
-0.000408952
-0.000792592
-0.0058613
0.000439911
0.005395
-0.00616805
0.00456818
-0.000921209
-0.00546513
-0.00109205
-0.000376199
-0.00181616
0.00285706
-0.00104091
-0.000419205
0.000322093
9.71122e-05
-0.00173202
0.00141741
0.00160507
-9.80483e-05
0.000828157
-3.67471e-05
-0.00169528
0.00279624
0.00121826
-0.00303441
0.00605564
-0.000480894
0.00528016
7.02838e-05
-0.00528154
0.00439129
0.00114561
-0.0055369
0.000556438
-0.000768843
0.000212406
-4.01673e-05
-0.000407128
-1.15307e-05
0.00606717
-0.000162218
0.000156864
5.35447e-06
0.000133313
2.06165e-05
0.00253506
-0.00335907
0.000824006
-0.00192632
0.000738307
0.00118801
0.00792743
-0.00345796
-0.00446947
0.00117128
0.00126329
-0.00243458
0.000105582
-0.000176269
7.06877e-05
-0.00080587
0.00133186
0.00116559
0.00318095
-0.00434654
-0.00561369
0.000166607
0.00544708
-0.00402143
0.00299353
0.00173542
0.00479448
0.00459337
0.00333406
-2.24515e-05
0.000189496
-0.000167044
-0.00131367
0.00440064
-0.00308696
0.000301602
-0.000341769
-0.000131304
-8.1489e-05
0.00410125
-0.00227545
0.00476479
-0.00502079
0.000256
-0.00323164
0.00607789
-0.00284625
0.00252671
0.00157455
0.00577289
-0.00100811
-0.00138428
-0.00562082
0.00137277
0.00424806
0.00065463
0.000520694
-0.00117532
0.00126957
-0.000614939
0.000585365
-0.00111024
0.000524877
0.00110606
0.000275141
0.000390561
-0.000678279
0.00443133
0.00151646
-0.000393859
0.0035509
-0.00614404
0.00259315
0.0015325
-0.00258402
0.00105152
-0.00432578
0.00117043
0.00315535
0.00291117
-0.00422484
-0.0049096
-0.00125844
-0.00410153
0.00127092
0.00283061
0.00125263
0.00314801
-0.00326441
-0.000837125
0.00222591
-0.00105464
-0.000684955
-0.00252822
0.00321317
0.00240387
0.000622647
-0.00302651
-0.00158754
0.00119866
0.000388884
0.000269995
0.00148258
-0.00196315
0.000480582
-0.000110912
-0.000222769
-0.000264335
0.000153423
-0.00435544
-0.000255259
-0.000291799
0.00117046
-0.000878659
0.00435147
-0.00464592
0.000294446
-8.84228e-05
0.00011777
-2.93465e-05
0.000975748
0.00338158
-0.00435732
-0.000157002
6.85793e-05
-0.00475257
0.000711274
0.0040413
-0.000706335
0.000121379
0.000584954
6.42507e-05
-6.37801e-05
-0.000401088
0.00086467
-0.000347474
-0.000517197
-0.00603571
0.000637271
-0.00254968
-0.000128172
0.00267785
-0.0031688
0.00442143
0.00218082
-0.00108872
-0.00116719
-0.00117213
-5.74984e-05
-0.00351946
-0.00124375
0.00150485
-0.000401829
-0.00110302
0.00191863
0.00183892
-0.00375755
0.0050518
-0.00162097
-0.00343082
0.000794377
-0.00542051
-0.00137415
0.00300303
0.00196466
0.000777895
-0.00274255
-0.00349692
0.00447267
-0.000152934
2.68461e-06
0.000939205
-0.00443613
-0.00449747
-0.000148456
-0.000997366
-0.00461633
0.00463677
0.00149602
0.00355578
0.0041616
0.00114204
-0.00530364
3.59353e-05
5.92029e-05
-9.51382e-05
-0.0014036
0.00336826
0.00371801
0.00355669
-0.00139719
0.00236896
-0.00097176
-0.00248177
0.000464188
-0.000878415
0.000751435
-0.00020997
0.000410299
-0.000216851
0.00169943
0.00376338
-0.00184474
-0.00106788
-0.00060328
-0.000107146
-0.000157189
0.00355042
-0.00163328
-0.00240372
0.00465277
0.000674521
-0.00309588
0.00242136
0.000635072
0.000762908
-0.00105471
0.00209932
-0.00131766
-0.0032747
0.00459235
-0.00214335
0.00480978
-0.000553844
0.00344529
0.000238038
-0.000220857
-0.002362
0.000964816
0.00232999
-0.00386959
0.00153961
-0.00120206
5.7066e-05
-2.11308e-05
0.00214598
-0.00279668
0.000650702
-0.00116648
-0.000421057
-0.00352892
0.00450411
0.00119803
0.00167279
-0.00287083
-0.00168862
0.00366531
-0.0019767
0.00424272
-0.000861149
0.00023441
1.41149e-05
-0.000248525
-0.00372281
0.00203419
-0.00143503
0.00472389
-0.00328886
0.000878041
0.00130278
0.000172776
0.000467186
0.000253012
-0.000300712
4.76992e-05
0.00169857
0.000212175
-0.00191074
0.00301877
-0.00459519
0.00157643
-5.27939e-05
0.000374232
-0.000321438
0.0015608
-0.00036214
0.00139387
-0.000604969
-0.000788897
0.00282172
-0.00392795
0.00110622
0.0026786
-0.00374351
0.00106492
-0.00517566
0.00194402
0.00390846
-0.000889696
-0.000639033
-0.0023725
0.00301154
0.00140808
-0.00511875
0.00371067
0.00336053
-0.00145893
-0.00190161
-0.000678876
0.00172251
-0.00104363
0.00477143
-0.00303601
-0.000690817
-0.00196499
-0.00598229
0.00514264
3.88802e-06
0.000121673
-0.000125561
-0.00157716
0.00119823
0.000378929
-0.0049077
0.00630989
-0.0014022
-0.00188232
0.00072672
0.0011556
0.000406821
0.00268634
-0.00208722
-0.000599119
0.00343575
0.000488983
-0.00392474
0.000125705
-2.01227e-05
0.00517249
0.000335801
-0.00550829
-0.00194053
0.0037976
-0.00185708
0.00277103
-0.000646207
-0.00212482
0.000462558
0.000402112
-0.000436655
0.0038724
0.00202621
-0.00396674
0.000699841
-0.000265265
-0.000434575
-0.000636188
-4.13576e-06
0.000640325
-0.00315209
-0.00576485
0.00576517
-0.000274433
0.000949412
-0.000674981
-0.00228633
-0.000195438
-0.00455732
0.00323966
-0.000877158
0.00113539
0.00360785
-0.00501893
0.00141108
0.000410663
-0.00296034
0.00232925
-0.0024411
0.000111835
-0.00157142
0.00148228
8.91398e-05
-0.00120801
-0.000369148
-0.00339173
0.00342992
-0.00223189
0.000457262
0.000133258
-0.00173236
0.00105348
-0.00279754
0.000751905
0.00204563
0.00024243
-8.01995e-06
-0.00347792
0.00102465
0.00245328
-0.0014446
0.0056062
0.000339159
-0.000952844
0.000613686
0.00211652
0.000654508
-0.00127775
0.000304278
0.0011105
0.00121876
-0.00143438
0.00496444
-0.00353006
-0.0048511
0.00577037
-0.000919278
-0.00117583
0.00228257
0.00410524
0.00107197
3.65364e-05
0.00586847
-0.00553256
-0.000335913
0.00356341
-0.00466468
0.00110128
0.00309376
-0.000689897
0.00542681
-0.00181896
-0.00250266
-0.000975261
-0.00217037
-0.00032477
0.00249515
0.00241252
-0.00196665
-0.00160816
-0.00424261
0.00274621
0.00149641
-0.000325789
0.00122581
0.00121417
0.00366481
-0.00487897
-0.000303411
0.000664353
0.00305956
-0.00238504
-0.00472435
-0.00125794
0.00647031
-0.00129782
0.00424553
0.00206044
0.000497995
0.00285514
-0.00212515
-0.000729989
0.00473685
-0.00245427
-7.21429e-05
-0.00332524
-0.000870634
0.00419588
0.000387907
-8.65523e-05
-0.000301355
-0.00514775
0.0061105
-0.000962751
-0.000738794
0.00190322
-0.00116443
-0.000697104
0.00525278
-0.00455568
0.00117132
-0.00191011
-0.000113283
-0.00576295
-0.000771356
0.00203659
0.00383189
-0.000242906
-0.00192746
0.0002514
-4.20182e-06
0.000362619
-0.000487942
0.00336283
-0.000827768
-0.00522705
-0.000271645
-0.000147561
0.000150191
-0.000133574
-1.6616e-05
-0.00248351
0.000125712
-0.000423067
0.00158994
-0.00101183
-0.000578113
0.00247343
0.000591427
-0.00306486
-0.000711879
0.0031853
-0.00520293
-0.000271511
0.00547444
0.0037509
0.00137518
0.00441411
-0.00123315
-0.000136189
0.00254871
0.00540386
-0.000206645
-0.00519722
-0.00608651
0.00425169
0.00183483
0.00321015
-0.00126783
-0.00435299
0.000201922
-0.000224373
0.000580086
0.000813777
0.00107489
0.000110599
-0.00118549
0.00421229
0.00119158
-0.000959105
0.00317191
-0.00221281
0.00474071
-0.00139941
-0.00217846
0.00279267
-0.000614208
-0.00117758
-0.000126753
0.000312211
-0.000185458
0.00344601
-0.00414312
0.00134531
-0.000986302
-0.000359004
0.00159476
-0.000396521
-0.00325114
0.00229203
0.00549001
-0.0043444
-3.06319e-05
0.000352726
-0.0053596
0.0004519
0.0054546
-0.0019037
-0.00100439
-0.0036133
0.0046177
-0.000647066
0.00288282
-0.00223575
0.00549725
-0.00286245
-0.00263481
-8.83978e-05
0.000593241
-0.000677259
0.000660592
1.66664e-05
-0.000688557
0.00172936
-0.0010408
-0.00314876
-0.00117702
0.000155571
-1.72031e-05
-0.00122447
-0.00478921
-0.00307735
0.00239239
-0.000440402
-0.00019956
-7.26334e-05
-8.95842e-05
-0.00120259
-0.000805739
-0.00522997
-0.00283835
0.00219128
-0.000817324
0.00118593
0.00113161
0.00438677
-0.00551837
0.00340515
-0.0027539
0.000468744
0.000773923
-0.0028847
0.00211078
0.00499341
-0.00494728
-4.61196e-05
-0.00320958
0.00361559
-0.000406006
0.000207796
-9.56096e-05
-0.000112187
-0.00499425
-0.00149064
-0.00175613
0.00369048
-0.00193435
0.00298204
-0.00220812
-0.00378411
0.00202798
0.00139498
-0.00258174
0.00118675
-0.00363267
0.00568086
0.00649885
-0.00219581
-0.00430304
-0.00240063
0.00237286
2.77726e-05
0.00562241
-0.00164902
0.00118608
-0.000924242
-0.000261836
-9.1138e-06
0.000262126
0.000249459
-0.000773161
0.000523702
-0.00304564
0.00365153
-0.000972926
0.000844486
-0.00104874
0.00236229
-0.00063187
-0.00173042
0.00220691
-0.000508338
0.00452921
0.000629678
0.00173261
-0.00175386
0.00106531
0.000408594
-0.000464692
5.60973e-05
0.00221103
-0.00174513
-0.000465903
0.000834612
-0.00514775
-0.000544514
0.000369491
-0.000588342
0.00021885
-0.00410059
0.00547336
0.000942162
-0.00111663
0.00017447
-0.00151924
0.00216573
-0.000646487
-0.00149245
-0.00275016
-0.00538349
-0.000156239
0.00553973
0.000300162
0.000108305
4.18858e-05
0.000128275
-0.000128147
-1.27075e-07
0.00412382
-0.00290965
-0.0038088
-0.00233523
0.00346647
0.00303238
-0.00259657
0.000736103
0.00186046
-0.000844699
0.00223968
-0.0022962
-0.000104432
0.00272891
-0.00377759
0.00104868
0.00130499
-0.000134537
0.000462419
0.00055072
-0.00327852
0.000965895
0.00231262
0.00091747
-0.000599538
-3.66517e-05
-0.00428028
0.00172713
9.65111e-05
-0.00182364
-0.00396617
0.0014662
0.00249998
0.000522058
0.0014621
-0.000882018
-0.000246508
-0.00466017
0.00490669
0.000784825
-0.00247685
0.00169203
0.0012022
0.00131232
-0.000476264
-0.00171032
0.00218659
0.00258018
-0.00179535
0.00447246
-0.00353325
-0.000785226
-0.00264051
-0.000227538
0.00025193
-0.000701726
0.00176281
-0.00106109
0.00265896
-0.00366806
0.00100909
0.000136464
2.03993e-05
-0.00236306
-0.000915468
0.00142158
-0.00163643
0.000214849
-0.00277443
0.000687206
0.00127655
-0.00141877
0.000142219
0.00161891
-0.00180789
0.000188979
0.000676687
-0.00372965
-0.0011695
0.00135563
-0.00490604
0.00355041
-0.000915469
0.00357442
0.000116044
-7.71252e-05
-3.89182e-05
0.00476273
-0.00363111
-0.000336723
-0.00153373
-0.00401773
-0.00150152
0.00209109
0.000701567
-0.00101678
-0.000924088
-0.00452532
-0.00162882
-0.00037421
0.00124277
-0.000931364
-0.000311401
-0.00149493
-0.0010891
0.000658776
0.00225602
-0.00291479
-0.00011428
0.000670717
-0.000716035
3.87759e-05
-0.0024547
0.00196645
0.00139408
-0.000724599
0.00165475
-0.000930155
-8.68722e-05
-0.000116961
0.000318524
-0.00194545
0.000454256
0.00160133
-0.00231145
0.000710112
-0.00334579
0.00257839
0.000767391
0.00119261
0.0024194
-0.00361202
-0.00175231
0.00105058
-0.00294073
-0.00102544
-0.000798134
-0.00254766
-0.00167643
0.00125197
0.00042446
0.00176258
-3.54498e-05
-0.000764392
-0.00243252
0.0031969
-0.000681019
0.00291469
-0.00225591
-0.000858511
-0.00394762
0.00480614
-0.00234399
0.00233858
5.40355e-06
-0.000706335
-0.0015589
0.00054707
-0.0024048
0.00381966
-0.00141486
0.00323277
0.00288519
0.000194395
3.62209e-05
-0.000230617
0.00234027
-0.000603118
-0.00173715
0.000188184
-0.000184296
-0.00359155
0.00494717
-0.00328972
0.00524667
-0.00195695
-0.00350967
-0.00150926
-0.000913317
0.00323162
-0.0023183
0.00285536
0.00177613
-0.00418094
-0.00499801
-0.000149736
-0.000797224
0.00284981
-0.00205258
-0.000431678
0.000378885
-0.000528061
0.00167447
-0.00114641
-0.00403826
0.00334136
0.000696905
-0.00326976
0.00235644
-0.00387005
0.000676089
0.00319396
0.00140877
-0.00101193
-0.000396839
-0.00589956
0.000696625
0.00184658
-0.00141053
-0.000436046
0.00140603
-0.000394803
-0.00101123
7.83762e-05
0.000129421
0.00293313
-0.000642945
-0.00022294
-0.00348775
-0.000382301
0.000428273
-0.00305326
-0.00098501
-0.00233527
-8.71175e-06
-0.0029264
0.00228737
0.000721155
0.00260155
-0.0033227
0.000584343
-0.000858776
0.00140693
-0.00671697
0.00531004
-0.00578631
0.000992188
-0.00234731
0.00353992
0.000690598
0.000258815
-0.00273252
0.00345368
-9.98557e-05
0.00509326
0.00062446
0.00170108
-0.00232555
-0.0017749
0.00124684
0.00274647
-0.00369641
0.000949934
0.00510128
0.000666528
0.0015445
0.000313791
0.000386048
-0.000364084
-0.000404759
0.000180954
-0.00174515
0.00176685
-0.000888808
0.00084995
0.000612149
-0.000586536
0.00301091
-0.00242437
-0.00149661
0.00184155
-0.000344937
-0.00489653
0.00380309
0.00109345
-0.0048021
0.00151238
-3.97598e-05
3.92376e-05
5.22253e-07
-0.00280995
-0.000858095
0.0010743
-0.00129004
0.000215737
0.00136146
-0.00495301
0.00101867
5.62211e-05
0.00124529
0.000695473
0.00218734
-0.00366769
0.000857746
0.000191363
-0.00504246
0.00189804
0.00120535
0.000697868
-0.00527285
-0.000491998
0.00565189
0.00118364
0.00710743
-0.00218445
-0.00492298
0.000782065
-0.000378032
-0.000404034
0.000721261
-0.00138068
0.000777394
-0.00386079
-0.00125797
0.000312211
-0.000929572
-0.000418559
0.00134813
0.00232816
0.00400856
-0.00486707
0.00270231
0.000835096
-0.00353741
0.00124949
-0.000963611
-0.000285878
0.000745571
0.0015947
-0.000135031
0.00013826
-3.22929e-06
-0.000710184
0.00288336
-0.00217317
0.00362238
0.00110151
-0.00126129
-0.000415144
0.00142194
-0.00154014
0.000118201
4.74808e-05
6.85627e-05
-0.0044768
0.000967132
-0.00165246
0.000444445
-0.00364622
0.00293433
-0.000950621
6.89712e-05
0.000936159
0.00267901
-0.00361517
0.00084742
-0.0012617
0.00419371
-0.00293201
0.000318123
0.000279937
4.65843e-05
-0.000326521
7.83368e-05
-0.00539167
0.00531333
-0.0026305
-0.000784742
0.00341525
-0.00349592
0.00260523
0.000890698
-0.00276552
-0.000262246
-0.00171346
-0.00491114
0.000893408
-0.00145301
-0.00088226
-0.00106359
0.0037925
0.00170733
-0.00372632
0.00201899
0.000105513
2.27617e-05
0.00372619
-0.00201886
0.0028621
0.000964697
-0.00382679
-0.00130087
0.00174066
-0.000439779
0.00357472
0.00110397
-0.00467869
0.00718428
-0.00197465
-0.00520962
-0.0021267
-0.00071164
-0.00172503
0.00234948
0.00377189
-0.00492864
0.00115673
-0.00280149
0.00373765
0.00113444
-8.72727e-06
-0.00112571
0.00148212
0.000906086
-0.00550987
0.000600258
0.000432287
0.000349777
0.00292155
-0.00112464
-0.00252177
0.00247905
4.27235e-05
0.000504891
-0.00184039
0.00133549
-0.00387179
-0.00119098
0.00109097
-0.00254398
-0.00529911
0.000151357
-0.00124515
-0.000528499
0.00177365
0.00563676
-0.00449472
0.000104445
0.000283463
-0.00301405
0.00319222
0.00143945
-0.00107127
-0.000368177
0.00346807
0.00476077
-0.000957691
0.000649724
-0.00328022
0.00106359
-0.000942217
-5.2887e-05
0.000461481
0.00039397
-1.97381e-05
-0.00206936
-0.000455173
0.00152947
-0.000917539
-0.00349757
0.000765052
-2.86338e-05
-1.11261e-05
0.00599849
-0.00492077
0.00522153
-0.00439461
1.01231e-05
-0.000584954
0.00057483
0.00194882
-0.000458694
-0.00149013
0.00335897
-0.000757421
-0.00256767
0.00336109
-0.000793417
-0.00183255
0.000531674
0.00127842
-0.000951568
-0.000326852
-0.000118766
-0.000210172
0.00205896
-0.000548425
-0.00151053
-0.00138016
-0.00239366
-0.000128097
0.00208905
-0.00274567
0.000656619
0.00280636
-0.000751023
-0.00205534
0.00410337
-0.00434987
0.00031481
0.00224242
-0.000641083
-0.000683337
0.000833803
-0.00368031
0.00504177
0.00124757
0.000470505
-0.00171566
-0.00286832
0.00209617
0.0036334
0.00158813
-0.00113076
-0.00383511
-0.00114967
0.00130281
-0.00171746
0.000414644
0.00367515
-0.00318617
-0.000193828
0.00113599
-3.87392e-05
-0.00027067
0.000309409
-0.000703241
-0.00189333
0.00377139
-0.00491082
0.00113944
-0.0018587
0.00235234
-0.000493637
-0.00115725
0.00213173
0.000751627
-0.00226256
0.00375597
-0.00149342
0.00150505
-0.00114055
-0.000364499
-0.000996931
0.000290599
0.000191578
-0.000434644
0.000243066
-0.000426319
-0.00122614
-0.00248065
0.00250395
-2.33023e-05
0.00144895
-0.00371152
0.00162315
-0.000371173
0.000365459
-0.000421359
5.59005e-05
-0.000825973
0.000592896
0.000233077
-0.000795265
-0.00285255
0.000838334
0.00201422
-0.00199551
-0.000839885
-0.000714078
0.00155396
-0.00524491
0.00389522
0.00134969
-0.00120233
0.00121245
-0.000576392
-0.000115918
0.000692309
0.0028684
-0.000736682
-0.000770356
-0.000160198
0.000930555
0.00183905
-0.00136855
0.00169718
-0.00039437
-0.000138732
-0.000632973
-0.00420705
0.00484003
-0.00138475
0.00283077
0.00427667
-0.00239846
-8.21896e-05
0.0031184
-0.00473937
0.00073363
0.00158095
-0.00231458
0.00200533
-0.00280255
0.00199722
-0.000742751
-0.00125447
-0.00179585
0.000456046
0.00133981
0.00431975
0.00286453
-0.00552205
0.0013388
0.00418326
-0.00125492
-0.00398999
-0.000460287
-0.00133557
-0.00099689
-0.000562004
-0.00129175
-0.000425704
0.00114748
-0.000536033
0.00150705
-0.000971018
-0.00175709
0.00129681
-0.000944492
-0.000207202
0.00115169
0.00217051
-0.00286732
0.000696813
-1.17691e-05
0.000206165
0.00103258
0.00606671
-0.00140466
-0.00466205
-0.00203508
-0.00187268
0.00133034
0.000542337
0.00127088
-0.000978164
-0.000292715
-0.00228992
-0.00103013
0.00332006
-0.00266802
0.00358533
-0.000917315
-0.000921233
0.00111348
1.08351e-05
-0.00112432
0.00376043
-0.00493841
0.00117798
0.00174752
-0.00135517
-0.000392343
0.00242707
-0.00122486
0.00274143
-0.000634496
-0.000191477
-0.00409093
0.00228973
-0.00180253
-0.000487193
0.000561033
-0.00200896
0.00144792
-0.00251283
-0.000846244
0.000858811
-0.000657477
-0.000201335
-0.000180265
-0.0036448
0.000976783
0.000677587
-0.000486008
0.00258959
0.000995739
0.000319313
0.00129498
0.000702239
-0.00160292
0.00233654
-0.00150004
0.000985398
0.000514638
0.00355493
-0.000692814
-0.00380933
0.00610262
-0.00115039
-0.00249089
0.00683395
-0.00434305
-0.000890523
0.00356954
-0.0041418
0.000932234
-0.00210182
0.00424999
-0.000700422
-0.00161102
-0.00245064
0.00170476
0.000745875
-0.00128014
0.000368353
-0.000436569
6.82171e-05
-0.00137408
-0.000776891
-0.000153494
0.000930386
-0.00156404
0.00135883
0.000205211
0.00203149
0.000818312
6.24047e-05
-0.00130015
-0.000555746
-0.000824928
-0.00242263
-0.000483212
-0.00138946
-0.000171025
0.0015926
-0.000180734
0.00341165
-0.00051477
0.00133895
0.0001993
-0.000835709
-0.000966656
-0.00192976
0.00247705
-0.000547292
-0.00104198
-0.0057289
0.00351077
0.00146913
-0.000619178
0.00288642
-0.00121362
0.000967562
-0.00135895
-0.00453018
0.00588912
0.000620801
-0.00255056
0.000741702
-0.00369095
0.00269662
0.000994318
0.000885943
-0.00142198
0.0022234
-0.0031191
0.00089569
0.00119695
-0.00343021
0.00223326
0.000861465
0.00168742
-0.00254889
-0.000174326
0.00179324
0.00274002
0.00107873
0.00361962
-0.000413522
0.000783012
0.00315745
-0.00402808
0.000987004
-0.00327692
0.000435892
0.0041256
0.00146531
-1.06438e-05
-0.000275574
0.000286217
-0.00619335
0.00385621
0.00233715
-0.000832346
-0.00261335
0.0034457
0.00263984
-0.00177838
-0.00369725
0.000895763
-0.00132123
-0.000435868
-0.000152679
0.00131981
0.00372871
0.00123573
0.000224316
0.00130858
-0.000991534
-0.000317046
0.000876321
0.000592808
-0.00031409
0.00376756
-0.00493631
0.00116875
0.00307867
-0.000855276
-0.0013982
0.00190309
0.00125674
-0.00355445
0.00229771
-0.00117085
0.00145565
0.000678655
-0.0021343
0.000192111
-0.000202755
0.00219842
-0.000860097
-0.00124884
0.000330415
0.000926083
-0.000348157
-0.000577926
0.00353247
-0.00227574
-0.000517126
0.002299
-0.00178188
0.00101839
-0.00297304
0.00207843
0.000894608
0.000106466
-9.53157e-07
0.00467764
0.000541244
-0.00570534
-0.00519818
0.00392704
0.00127115
-0.00107977
-0.00269378
0.00377355
0.00222129
0.00372498
0.00282626
-0.0037545
0.000928246
-0.00146876
0.00109961
-0.000965477
0.00337945
-0.00241398
0.00149636
0.000562594
-0.00378536
-0.00240799
0.00108367
-0.00230107
0.00321685
-0.000915789
0.00343869
-0.000833452
0.000397005
-0.000821069
0.00253976
0.000898922
-0.000635757
0.0043109
-0.00130786
0.00171555
-0.000407692
0.00200438
-0.00126607
-0.000390027
0.00607682
-0.00491949
-0.000464
0.000858898
-0.00246182
-0.00539159
-0.00172222
0.000414357
-0.000678152
0.00010176
-0.000870987
0.000212258
-0.00146779
0.000678773
0.00156364
-0.000905429
0.000135073
0.000805679
0.00251568
-0.00332137
-0.00109516
0.00187358
-0.00194662
-0.000474611
0.00196117
-0.00148656
-0.000893764
-0.00207927
-0.00195171
0.00147709
-0.00265717
0.00346284
-0.0016378
0.000588034
0.00104977
-0.000984672
0.00357426
0.00603063
-0.00231263
-0.00130213
-0.000420081
-0.00173805
0.00109656
0.000641487
0.000906567
-0.00452105
0.00361448
-0.0013098
0.000545014
0.000764781
-0.00403459
-0.00116359
0.000191712
-0.0011362
0.00193447
-0.000729114
-0.00135202
-0.00380568
0.0051577
0.00100011
7.18539e-05
0.00329731
-0.00252756
-0.000769745
0.00012881
0.00127722
0.000876007
-0.000668991
-0.000207016
-0.00134362
-0.00101839
-0.00108963
0.00513401
-0.00404437
0.000638325
-0.00249703
0.000147654
0.00127429
0.00377244
-0.00496374
0.0011913
0.00288248
-0.00204415
0.000101879
-0.000168285
6.64059e-05
0.00102925
0.000138135
0.000104295
0.00235737
0.00370934
-0.000584743
-0.000803402
0.00138814
0.000653747
0.00177068
-0.00242442
0.00240274
-0.0016978
-0.000704937
0.000476039
0.00147278
0.000426289
-0.000511724
-0.000798071
0.000601163
-0.00532551
0.000690476
-2.98835e-05
-0.00116386
-0.0013226
-0.00379423
0.00511682
0.00103304
0.00143667
-0.00189536
0.00254632
-0.000394776
-0.00490872
0.0053035
0.0001206
-1.87209e-05
0.000664016
0.00127045
0.00272685
0.000948122
-0.00367496
0.00137479
0.000471784
0.00258705
-0.00364109
0.00454766
0.00277357
0.000844145
-0.00361771
0.00161651
-0.000823327
-0.000793181
0.00132733
-0.00101813
-0.000309205
0.000423798
0.00106056
-0.00470165
0.000218529
-6.73332e-06
0.000198844
0.00606714
-0.00130442
0.00152553
-0.00212865
0.00252937
-0.00181912
-0.000710242
0.000869483
-0.00254399
0.00167451
0.00523439
-0.00281495
-0.000928551
-0.00158115
0.00500911
0.00148635
-0.00178137
0.000295021
0.000499453
-0.000103572
-0.00039588
-0.000999028
-0.00313906
0.00413809
0.000743252
0.00181854
-0.0025618
0.00176752