/*--------------------------------*- C++ -*----------------------------------*\
  =========                 |
  \\      /  F ield         | OpenFOAM: The Open Source CFD Toolbox
   \\    /   O peration     | Website:  https://openfoam.org
    \\  /    A nd           | Version:  7
     \\/     M anipulation  |
\*---------------------------------------------------------------------------*/
FoamFile
{
    version     2.0;
    format      ascii;
    class       volScalarField;
    location    "9.5";
    object      T;
}
// * * * * * * * * * * * * * * * * * * * * * * * * * * * * * * * * * * * * * //

dimensions      [0 0 0 1 0 0 0];

internalField   nonuniform List<scalar> 
2413
(
1.38078
1.40115
1.41955
1.43426
1.44919
1.46545
1.48135
1.49524
1.50665
1.51728
1.52716
1.53431
1.53701
1.53526
1.52834
1.51679
1.50148
1.48139
1.46018
1.44047
1.41903
1.39692
1.374
1.34945
1.32458
1.30608
1.29054
1.2757
1.26114
1.24679
1.23283
1.21952
1.20743
1.19669
1.18715
1.17894
1.17182
1.1652
1.15859
1.15145
1.14391
1.1365
1.12933
1.12208
1.11468
1.10747
1.10038
1.09333
1.08619
1.07901
1.07206
1.06509
1.05828
1.05179
1.04529
1.03882
1.03259
1.02657
1.02085
1.01536
1.01011
1.00513
1.00032
0.995756
0.991496
0.987546
0.983946
0.980678
0.977648
0.974813
0.972204
0.969778
0.967606
0.965726
0.964162
0.962878
0.961876
0.961109
0.960653
0.960327
0.960416
0.960713
0.961285
0.962202
0.963496
0.965132
0.967108
0.969364
1.20376
1.21619
1.2255
1.23532
1.24991
1.27005
1.29349
1.31679
1.33818
1.35754
1.37484
1.38846
1.39783
1.40072
1.39993
1.3969
1.39096
1.37996
1.36406
1.34998
1.33372
1.31442
1.29688
1.27692
1.25307
1.23208
1.2137
1.19638
1.17958
1.16322
1.14685
1.13084
1.11583
1.10215
1.08996
1.07971
1.07167
1.06547
1.06078
1.05434
1.0479
1.04265
1.03749
1.03218
1.02748
1.023
1.01797
1.01334
1.00911
1.00461
1.00027
0.996084
0.992295
0.988594
0.984897
0.981583
0.978288
0.975074
0.972163
0.969479
0.966876
0.964353
0.96202
0.95981
0.957716
0.955857
0.954254
0.952817
0.95145
0.950135
0.948838
0.947592
0.946471
0.945488
0.944674
0.943998
0.94347
0.943079
0.942857
0.942754
0.942861
0.94315
0.943628
0.94431
0.945196
0.946269
0.947521
0.949074
1.10568
1.12443
1.13733
1.14543
1.14756
1.14966
1.15414
1.16257
1.17397
1.18678
1.20029
1.21238
1.22195
1.2278
1.2321
1.2324
1.23091
1.2261
1.2176
1.20704
1.19532
1.18157
1.16797
1.15647
1.1421
1.12525
1.1114
1.09907
1.08789
1.07789
1.06761
1.0568
1.04603
1.03561
1.02575
1.01729
1.01112
1.00585
1.00044
0.995221
0.990555
0.986431
0.982598
0.978819
0.975691
0.972868
0.969907
0.967211
0.965158
0.962888
0.96052
0.958702
0.957212
0.955574
0.954126
0.952721
0.951389
0.950536
0.949897
0.948935
0.947924
0.947079
0.946203
0.945418
0.94469
0.94403
0.943564
0.943178
0.94274
0.942198
0.941732
0.941317
0.940837
0.940296
0.939755
0.939257
0.938804
0.938447
0.938213
0.937998
0.938034
0.938184
0.938485
0.938948
0.939568
0.94038
0.941336
0.942458
1.06646
1.08189
1.09318
1.10215
1.11
1.11412
1.11296
1.11083
1.10864
1.10621
1.10652
1.10803
1.1101
1.10992
1.10968
1.10924
1.10748
1.10302
1.0979
1.09121
1.08234
1.07366
1.06487
1.0568
1.04947
1.04233
1.03397
1.02485
1.02049
1.01792
1.01351
1.00832
1.0033
0.99826
0.992818
0.988094
0.984133
0.980297
0.976334
0.972519
0.969101
0.965915
0.962768
0.959753
0.957036
0.954544
0.952032
0.949525
0.947698
0.945969
0.943939
0.942326
0.941404
0.940432
0.939523
0.938488
0.938347
0.93841
0.93827
0.93814
0.938204
0.938289
0.938406
0.938601
0.938798
0.939058
0.939409
0.939787
0.940151
0.940503
0.940784
0.941088
0.941289
0.941234
0.941094
0.940875
0.940587
0.940261
0.939973
0.939703
0.939533
0.93942
0.939329
0.939419
0.939658
0.939975
0.940349
0.940899
1.04038
1.05868
1.07481
1.08508
1.09385
1.09891
1.10255
1.10218
1.09989
1.09533
1.08883
1.08175
1.07554
1.06845
1.06137
1.05639
1.05113
1.04323
1.03684
1.03109
1.02331
1.01624
1.01099
1.00538
1.0007
0.998174
0.996038
0.991448
0.990569
0.990715
0.989682
0.988175
0.986468
0.984649
0.982681
0.980375
0.977875
0.975355
0.972682
0.969698
0.966884
0.96426
0.961372
0.958175
0.955255
0.952727
0.950076
0.947044
0.944585
0.942892
0.940936
0.938642
0.937448
0.93663
0.935653
0.934665
0.934592
0.934761
0.93468
0.934752
0.935075
0.935477
0.936035
0.936538
0.93694
0.937459
0.93806
0.938635
0.939204
0.939797
0.940354
0.940932
0.941511
0.942015
0.942426
0.942881
0.943199
0.943381
0.94356
0.943689
0.943766
0.943772
0.943763
0.943771
0.943829
0.943912
0.944093
0.944337
1.0149
1.02877
1.04921
1.06696
1.0836
1.09199
1.09817
1.09922
1.09853
1.09666
1.09278
1.08648
1.07885
1.06993
1.06019
1.05204
1.0439
1.03309
1.02463
1.01841
1.01015
1.00146
0.997118
0.99256
0.987454
0.985724
0.986036
0.984999
0.983944
0.984926
0.984912
0.984515
0.984165
0.983465
0.982387
0.980901
0.978928
0.976891
0.974909
0.972559
0.969955
0.967547
0.965176
0.962398
0.959247
0.956438
0.953972
0.951195
0.948094
0.945825
0.944125
0.941931
0.939862
0.938665
0.937725
0.936948
0.93617
0.935763
0.935894
0.936093
0.936076
0.936216
0.936806
0.937288
0.937662
0.938009
0.938519
0.939039
0.939572
0.940182
0.940816
0.941511
0.942233
0.942971
0.943717
0.944502
0.94525
0.945927
0.946629
0.94726
0.947858
0.948377
0.94877
0.949194
0.949589
0.949969
0.950322
0.950601
1.00232
1.00683
1.01815
1.03443
1.05602
1.07523
1.09014
1.09885
1.09864
1.09756
1.0957
1.09248
1.08707
1.07954
1.06974
1.06
1.05105
1.03992
1.02953
1.02252
1.01473
1.00495
0.999244
0.994908
0.989299
0.986326
0.986668
0.986684
0.985786
0.986338
0.986754
0.986739
0.986944
0.986695
0.98563
0.984424
0.983127
0.981413
0.979494
0.977575
0.975474
0.97294
0.970351
0.968024
0.965396
0.962282
0.959476
0.957258
0.954872
0.951977
0.949658
0.948037
0.946195
0.944432
0.942907
0.942105
0.941495
0.940628
0.940137
0.940258
0.94009
0.940097
0.940332
0.940433
0.940375
0.940613
0.940994
0.941288
0.941608
0.9421
0.942678
0.943339
0.944073
0.944796
0.945539
0.946313
0.947095
0.947808
0.948576
0.949382
0.950109
0.950882
0.951643
0.952456
0.953312
0.954114
0.954951
0.955714
1.00013
1.00066
1.00288
1.00852
1.02085
1.0407
1.06267
1.08169
1.09348
1.09822
1.09785
1.09581
1.09224
1.08772
1.0813
1.07299
1.06433
1.05405
1.04347
1.03484
1.02596
1.01652
1.00909
1.00331
0.997727
0.992385
0.991028
0.991339
0.991069
0.991099
0.991762
0.991788
0.991515
0.991482
0.990899
0.989137
0.987649
0.98637
0.984381
0.981985
0.980021
0.977768
0.974792
0.97215
0.970184
0.968035
0.965222
0.962546
0.960821
0.959005
0.956415
0.95437
0.953032
0.95163
0.950081
0.949081
0.948591
0.947983
0.947143
0.946826
0.946734
0.946458
0.946307
0.946077
0.945719
0.945719
0.945712
0.945702
0.945918
0.946209
0.946357
0.946712
0.947196
0.947645
0.948139
0.948713
0.949301
0.949905
0.950578
0.951341
0.952097
0.952868
0.953688
0.954558
0.955537
0.9565
0.957503
0.958557
1
1.00002
1.00018
1.00086
1.00347
1.0106
1.02455
1.04561
1.06758
1.08402
1.09343
1.09444
1.09342
1.09046
1.08605
1.08095
1.07509
1.06735
1.05836
1.05031
1.04161
1.03181
1.02421
1.01723
1.01072
1.00541
1.00111
0.999438
0.999157
0.998707
0.99859
0.998823
0.998697
0.998018
0.997225
0.996
0.993887
0.991631
0.98952
0.986876
0.983875
0.98156
0.979397
0.97689
0.974423
0.972659
0.970875
0.96837
0.965913
0.964481
0.962846
0.960769
0.959119
0.95798
0.956757
0.955415
0.954776
0.954494
0.954012
0.953355
0.952918
0.952495
0.952122
0.951809
0.951284
0.95105
0.950956
0.950733
0.950743
0.950813
0.95067
0.950728
0.950939
0.951104
0.951365
0.951731
0.95206
0.9524
0.952842
0.953378
0.953965
0.954557
0.95516
0.955835
0.956643
0.957511
0.9584
0.959424
1
1
1
1.00003
1.00023
1.00112
1.0044
1.01261
1.02814
1.04909
1.06869
1.08331
1.08932
1.08843
1.08653
1.08316
1.07869
1.07348
1.06754
1.06143
1.05446
1.04602
1.03868
1.03179
1.02422
1.0184
1.01375
1.00969
1.00767
1.00695
1.00627
1.00572
1.00571
1.00535
1.00419
1.00297
1.00132
0.998816
0.996179
0.993615
0.990685
0.987674
0.9854
0.983384
0.980762
0.977692
0.97586
0.974063
0.971285
0.968879
0.96731
0.96564
0.963833
0.962418
0.961417
0.960295
0.958956
0.958529
0.958345
0.957902
0.957369
0.95687
0.956406
0.956062
0.955674
0.955427
0.95537
0.955301
0.955264
0.95521
0.954982
0.954797
0.954812
0.954793
0.954816
0.954935
0.955057
0.955137
0.955293
0.955547
0.955873
0.95622
0.956546
0.956976
0.957543
0.95825
0.959058
0.96001
1
1
1
1
1.00001
1.00004
1.00031
1.00142
1.00543
1.01435
1.03049
1.04957
1.06676
1.07629
1.08211
1.08145
1.07896
1.07525
1.07028
1.06565
1.06086
1.05479
1.04888
1.04327
1.03653
1.03062
1.02564
1.02055
1.01721
1.01545
1.0143
1.01356
1.01305
1.01284
1.01231
1.01113
1.00935
1.00723
1.00475
1.00179
0.999105
0.996471
0.993201
0.990119
0.98765
0.984789
0.981472
0.979213
0.976987
0.974616
0.972379
0.970328
0.968593
0.966812
0.965279
0.964487
0.963621
0.962642
0.962094
0.961579
0.961099
0.960638
0.960223
0.959953
0.959624
0.959256
0.958941
0.958629
0.958462
0.958334
0.958194
0.958071
0.95815
0.958276
0.95831
0.95838
0.958382
0.958315
0.9583
0.958348
0.958445
0.958618
0.95882
0.959007
0.959346
0.959825
0.960393
0.961097
1
1
1
1
1
1
1.00001
1.00006
1.00041
1.00172
1.00621
1.01515
1.03031
1.0466
1.0605
1.06913
1.07274
1.0722
1.07011
1.06666
1.06257
1.05744
1.05282
1.04879
1.044
1.03902
1.03469
1.02993
1.026
1.02372
1.02183
1.02057
1.02017
1.02011
1.0199
1.01927
1.01818
1.01663
1.01495
1.01291
1.01035
1.00759
1.00435
1.0007
0.997341
0.99433
0.991121
0.987991
0.98493
0.982218
0.979835
0.977201
0.974916
0.973104
0.970811
0.96918
0.968272
0.967094
0.966096
0.96519
0.964416
0.963867
0.963307
0.96291
0.962594
0.962334
0.96215
0.961944
0.961797
0.961789
0.96191
0.961948
0.962124
0.962309
0.962289
0.962245
0.962154
0.961977
0.961844
0.961778
0.961706
0.961667
0.961659
0.961739
0.96195
0.962231
0.96247
0.962795
1
1
1
1
1
1
1
1
1.00001
1.00008
1.00047
1.00191
1.00624
1.01461
1.0272
1.04077
1.0525
1.05927
1.06311
1.06224
1.06051
1.05759
1.05389
1.05033
1.04602
1.04179
1.03825
1.03432
1.03078
1.0282
1.02581
1.02396
1.02309
1.02278
1.02257
1.02236
1.02215
1.02181
1.02132
1.02044
1.01901
1.01708
1.01458
1.01167
1.00887
1.00584
1.00239
0.999066
0.995598
0.991884
0.988717
0.985685
0.982376
0.979813
0.977612
0.975192
0.973248
0.971539
0.97006
0.969029
0.967929
0.967124
0.966603
0.966138
0.965737
0.965279
0.965265
0.96542
0.965327
0.965414
0.965653
0.965765
0.965807
0.965739
0.965519
0.96534
0.965168
0.965012
0.964945
0.964949
0.964975
0.964961
0.964907
0.965054
0.96531
0.96553
0.965614
0.965731
1
1
1
1
1
1
1
1
1
1
1.00001
1.00008
1.00047
1.00183
1.00546
1.0123
1.02228
1.03288
1.04258
1.04843
1.05164
1.05213
1.05108
1.04876
1.04567
1.04229
1.03934
1.03576
1.03235
1.02954
1.02656
1.02448
1.02326
1.0226
1.02242
1.02233
1.02219
1.02207
1.02185
1.02154
1.02093
1.02003
1.01894
1.01739
1.01568
1.01357
1.01102
1.00835
1.00547
1.00226
0.999183
0.996171
0.993015
0.989982
0.987306
0.984629
0.982137
0.980014
0.977961
0.976467
0.975226
0.974051
0.973319
0.97268
0.972074
0.971482
0.970991
0.970567
0.970136
0.969765
0.969346
0.968928
0.968599
0.968382
0.968086
0.968043
0.968174
0.968322
0.968313
0.968513
0.968743
0.968842
0.968878
0.969039
0.969205
0.969307
0.969269
0.969432
1
1
1
1
1
1
1
1
1
1
1
1
1.00001
1.00008
1.00039
1.00145
1.00406
1.00907
1.01609
1.02426
1.0314
1.03682
1.04018
1.04107
1.04062
1.03924
1.03711
1.0346
1.03134
1.02905
1.02662
1.02395
1.02235
1.02087
1.01992
1.01971
1.01966
1.01971
1.01987
1.02011
1.0201
1.01996
1.01936
1.0182
1.01667
1.01492
1.01284
1.01089
1.00918
1.00717
1.00514
1.00316
1.00087
0.998551
0.996279
0.993853
0.991406
0.989141
0.987084
0.985309
0.983849
0.982541
0.9815
0.980661
0.979803
0.978992
0.978247
0.977539
0.976811
0.97618
0.975489
0.974689
0.974135
0.973899
0.973623
0.973312
0.973345
0.973284
0.972837
0.972725
0.972717
0.972597
0.972592
0.97266
0.972692
0.972723
0.972697
0.972928
1
1
1
1
1
1
1
1
1
1
1
1
1
1
1.00001
1.00005
1.00025
1.00092
1.00251
1.00565
1.01007
1.01551
1.02081
1.02517
1.02794
1.02954
1.02951
1.02884
1.02733
1.02556
1.02374
1.02105
1.01899
1.01735
1.01556
1.01509
1.01476
1.01475
1.01507
1.0153
1.01538
1.01564
1.01541
1.01485
1.01437
1.01363
1.0124
1.0112
1.00991
1.00807
1.00609
1.00415
1.00204
1.00002
0.998118
0.996128
0.994237
0.992516
0.990904
0.989615
0.988572
0.987723
0.987223
0.98682
0.986494
0.986237
0.985978
0.985655
0.985332
0.984898
0.984242
0.983395
0.982526
0.981865
0.981155
0.980303
0.979476
0.978654
0.977786
0.97699
0.976535
0.976224
0.97592
0.975934
0.975982
0.976032
0.97611
0.976448
1
1
1
1
1
1
1
1
1
1
1
1
1
1
1
1
1
1.00003
1.00013
1.00045
1.00125
1.00282
1.00517
1.00834
1.01151
1.01441
1.01665
1.01788
1.01811
1.01777
1.01703
1.01555
1.01352
1.01183
1.00974
1.0081
1.00698
1.00566
1.00503
1.00473
1.00473
1.00513
1.00581
1.0062
1.00683
1.00709
1.00679
1.00633
1.00569
1.00458
1.00313
1.00163
1.00002
0.998336
0.996723
0.994985
0.993304
0.991858
0.990501
0.989495
0.988713
0.988162
0.98804
0.988078
0.988242
0.988549
0.989075
0.98964
0.990019
0.99038
0.990834
0.990975
0.990731
0.990303
0.989633
0.988609
0.987545
0.986559
0.985797
0.98507
0.984376
0.983651
0.982864
0.982249
0.981866
0.981483
0.981103
0.981111
1
1
1
1
1
1
1
1
1
1
1
1
1
1
1
1
1
1
1
1.00001
1.00005
1.00016
1.00045
1.00106
1.00203
1.00337
1.00485
1.00637
1.00744
1.00799
1.00815
1.00778
1.0067
1.00534
1.00371
1.00157
0.999828
0.997841
0.995959
0.994926
0.993618
0.993016
0.993019
0.992817
0.993194
0.993927
0.994294
0.994933
0.995578
0.995717
0.99573
0.995527
0.995151
0.99456
0.99387
0.992969
0.992032
0.991203
0.990207
0.989347
0.988608
0.987916
0.98762
0.987586
0.987581
0.987784
0.988311
0.988914
0.989255
0.989785
0.99066
0.99113
0.991592
0.991938
0.992127
0.992114
0.991992
0.992208
0.992703
0.99267
0.992416
0.991828
0.990815
0.989586
0.988512
0.987559
0.986628
0.985917
1
1
1
1
1
1
1
1
1
1
1
1
1
1
1
1
1
1
1
1
1
1
1.00001
1.33875
1.34177
1.34564
1.35056
1.3568
1.3641
1.37189
1.37957
1.38668
1.39303
1.3986
1.40342
1.40769
1.41174
1.43707
1.42684
1.42082
1.41711
1.41468
1.41368
1.41329
1.41285
1.41133
1.40942
1.40684
1.40301
1.39782
1.39081
1.38149
1.37033
1.3618
1.36036
1.36292
1.36788
1.3773
1.39013
1.40096
1.40584
1.4062
1.39574
1.37131
1.34943
1.34408
1.3451
1.3468
1.34784
1.34778
1.34669
1.34461
1.34189
1.33874
1.3353
1.3317
1.32813
1.32467
1.32134
1.31802
1.3146
1.31105
1.30753
1.30429
1.30159
1.29951
1.29811
1.29758
1.29829
1.30009
1.30286
1.30635
1.31003
1.31358
1.31671
1.31891
1.32052
1.32184
1.32293
1.32393
1.32495
1.32603
1.32721
1.32847
1.32978
1.33107
1.33229
1.33345
1.33469
1.33611
1.33773
1.3396
1.34176
1.34434
1.34755
1.35166
1.35681
1.36302
1.37004
1.37738
1.38456
1.39123
1.3972
1.40243
1.40705
1.46221
1.45092
1.44356
1.43869
1.43526
1.43325
1.43205
1.43077
1.42845
1.42532
1.42155
1.41683
1.41125
1.40454
1.39559
1.3834
1.37046
1.3632
1.36211
1.36555
1.37378
1.38572
1.39653
1.40168
1.40177
1.39159
1.37003
1.3525
1.34923
1.35052
1.35269
1.3544
1.35481
1.35401
1.35203
1.34926
1.346
1.3424
1.3386
1.33467
1.33082
1.32708
1.32341
1.31971
1.31598
1.31238
1.30914
1.3063
1.30387
1.30191
1.30048
1.29986
1.30022
1.30166
1.3042
1.30764
1.3116
1.31557
1.31906
1.32189
1.32408
1.32581
1.32731
1.32866
1.32991
1.33105
1.33204
1.33286
1.33349
1.33403
1.33466
1.33545
1.33647
1.33776
1.33932
1.34108
1.34291
1.34489
1.34719
1.35015
1.35402
1.35899
1.36498
1.37181
1.37902
1.38614
1.39273
1.39859
1.49366
1.48164
1.4728
1.46648
1.46171
1.45779
1.45475
1.45215
1.44885
1.44451
1.43931
1.43334
1.42685
1.41986
1.41147
1.40036
1.38609
1.37247
1.3658
1.36693
1.37296
1.38315
1.39295
1.39801
1.39792
1.38888
1.3703
1.35743
1.35586
1.35692
1.35919
1.36115
1.36205
1.36165
1.35978
1.35691
1.35343
1.34949
1.34538
1.34113
1.33689
1.3327
1.32858
1.32451
1.32055
1.31683
1.31346
1.31046
1.3078
1.30546
1.30343
1.3018
1.30088
1.30094
1.30214
1.3045
1.30783
1.31192
1.31635
1.32051
1.32403
1.32692
1.32921
1.33097
1.33236
1.33337
1.3338
1.33382
1.33378
1.33387
1.33416
1.33464
1.33527
1.33606
1.33701
1.3381
1.33922
1.34025
1.34122
1.3423
1.34377
1.34596
1.34913
1.3534
1.35863
1.36459
1.37086
1.37712
1.53334
1.52101
1.51066
1.50216
1.49527
1.48943
1.48405
1.47911
1.47408
1.46816
1.46144
1.45414
1.44654
1.43884
1.43058
1.42053
1.40709
1.39024
1.37614
1.3727
1.37569
1.38386
1.39185
1.39638
1.39592
1.3867
1.37178
1.36439
1.36409
1.36528
1.36753
1.36931
1.37008
1.3698
1.36818
1.36533
1.36177
1.35774
1.3533
1.34856
1.34371
1.33885
1.33411
1.32952
1.32512
1.32104
1.31733
1.31397
1.31096
1.30822
1.30574
1.30357
1.3018
1.30065
1.30035
1.30097
1.30242
1.30489
1.30829
1.31228
1.31638
1.32009
1.32311
1.32535
1.32677
1.3275
1.32788
1.32803
1.32804
1.32806
1.32807
1.32805
1.32794
1.3278
1.32764
1.3275
1.32734
1.32708
1.32664
1.32607
1.32554
1.32526
1.32549
1.32623
1.32775
1.33015
1.33346
1.33759
1.58028
1.56863
1.55773
1.548
1.53916
1.53086
1.52263
1.51437
1.50631
1.49815
1.48952
1.4805
1.47119
1.46192
1.45277
1.44319
1.4315
1.41585
1.3978
1.38577
1.38385
1.38648
1.39145
1.39434
1.3929
1.38422
1.37425
1.37149
1.3718
1.3738
1.37648
1.37863
1.37946
1.37906
1.37741
1.37449
1.3706
1.366
1.36099
1.35568
1.35021
1.34471
1.33925
1.334
1.32909
1.32457
1.32039
1.31648
1.31283
1.30952
1.30679
1.30442
1.30227
1.30038
1.29869
1.29751
1.29673
1.29642
1.2968
1.29773
1.29924
1.30109
1.30296
1.3046
1.3057
1.30619
1.30654
1.30672
1.30655
1.30589
1.30468
1.30302
1.30101
1.29876
1.29636
1.2939
1.29149
1.2892
1.28702
1.28497
1.28307
1.28132
1.27973
1.27844
1.27753
1.27717
1.27758
1.27852
1.61889
1.61047
1.60236
1.59447
1.58646
1.57849
1.5704
1.56146
1.55159
1.54097
1.52917
1.51659
1.50371
1.49095
1.47864
1.46714
1.45579
1.44224
1.42502
1.40801
1.3987
1.39502
1.39446
1.39406
1.39002
1.38202
1.37703
1.37616
1.3771
1.37895
1.38127
1.38325
1.384
1.38348
1.38168
1.37893
1.37522
1.37063
1.36547
1.35996
1.35424
1.34837
1.34248
1.33686
1.33163
1.32672
1.32206
1.31761
1.31333
1.30922
1.30526
1.30148
1.29796
1.29469
1.29149
1.2882
1.28467
1.28101
1.27738
1.27388
1.27064
1.26773
1.26519
1.26301
1.26105
1.25946
1.25768
1.25561
1.25331
1.25077
1.24793
1.2448
1.24139
1.23772
1.23386
1.2299
1.22594
1.22205
1.21839
1.21495
1.21175
1.20877
1.20602
1.20351
1.20123
1.1993
1.19783
1.19674
1.64303
1.63791
1.63264
1.62719
1.62178
1.61617
1.60997
1.60256
1.59351
1.58315
1.57093
1.55735
1.54293
1.5278
1.51242
1.497
1.48186
1.46685
1.45027
1.4317
1.41626
1.40532
1.39721
1.39103
1.3835
1.37623
1.37241
1.37203
1.3732
1.37603
1.37933
1.38195
1.38317
1.38298
1.38142
1.37865
1.37515
1.37066
1.36514
1.3591
1.35278
1.34633
1.3399
1.33338
1.32676
1.32019
1.31374
1.30736
1.30103
1.29465
1.28823
1.28179
1.27573
1.26968
1.26335
1.25663
1.24962
1.24237
1.23494
1.22739
1.21986
1.2125
1.20544
1.19876
1.19254
1.18686
1.18165
1.17685
1.17236
1.16814
1.1642
1.16048
1.15698
1.15362
1.15034
1.14709
1.14388
1.14066
1.13749
1.13438
1.13135
1.12842
1.12567
1.12306
1.12064
1.11836
1.11633
1.11459
1.64298
1.63983
1.63686
1.63408
1.63195
1.62968
1.62661
1.62217
1.6159
1.60854
1.60005
1.58833
1.57381
1.55822
1.54258
1.52613
1.50828
1.48996
1.47109
1.45064
1.43106
1.41316
1.39739
1.38325
1.37099
1.36266
1.35872
1.35678
1.35675
1.35814
1.36035
1.3621
1.36267
1.3622
1.36021
1.3564
1.35167
1.34614
1.34005
1.33343
1.32628
1.31874
1.31075
1.3024
1.29397
1.28559
1.27718
1.26865
1.25991
1.25108
1.24227
1.23334
1.22433
1.21509
1.20569
1.19616
1.18662
1.17716
1.16779
1.15847
1.1493
1.1403
1.1315
1.12304
1.11503
1.10748
1.10047
1.09406
1.08821
1.08288
1.07808
1.0738
1.0701
1.06693
1.06422
1.06188
1.05987
1.05813
1.05664
1.05531
1.05421
1.0533
1.05259
1.052
1.05147
1.05091
1.05037
1.04987
1.57475
1.58247
1.58877
1.59337
1.59778
1.60267
1.60726
1.6103
1.61027
1.60815
1.60358
1.59493
1.58232
1.56865
1.55454
1.53917
1.52116
1.50093
1.48032
1.45889
1.43666
1.4146
1.39329
1.37237
1.35419
1.34272
1.33488
1.32791
1.32141
1.31544
1.31009
1.30532
1.30101
1.29671
1.29206
1.28699
1.28163
1.27548
1.26839
1.26094
1.25316
1.24473
1.2359
1.22702
1.21813
1.20917
1.2002
1.19104
1.18172
1.1723
1.16291
1.15362
1.1443
1.13507
1.12594
1.11693
1.10808
1.09946
1.09109
1.08297
1.07504
1.06734
1.05994
1.05284
1.0461
1.03982
1.03398
1.02858
1.02362
1.01907
1.01493
1.01117
1.00785
1.00501
1.00263
1.00067
0.999094
0.997884
0.997117
0.99645
0.996443
0.996618
0.997092
0.997899
0.999
1.00033
1.00189
1.00368
)
;

boundaryField
{
    inlet
    {
        type            fixedValue;
        value           nonuniform 0();
    }
    outlet
    {
        type            inletOutlet;
        inletValue      nonuniform 0();
        value           nonuniform 0();
    }
    bottom
    {
        type            symmetryPlane;
    }
    top
    {
        type            symmetryPlane;
    }
    obstacle
    {
        type            zeroGradient;
    }
    front
    {
        type            empty;
    }
    back
    {
        type            empty;
    }
    procBoundary19to2
    {
        type            processor;
        value           nonuniform List<scalar> 
23
(
1.36202
1.18714
1.08746
1.05299
1.02587
1.00613
1.00054
1.00002
1
1
1
1
1
1
1.45282
1.47839
1.50943
1.54769
1.59214
1.62747
1.6487
1.64682
1.56674
)
;
    }
    procBoundary19to10
    {
        type            processor;
        value           nonuniform List<scalar> 5(1 1 1 1 1);
    }
    procBoundary19to11
    {
        type            processor;
        value           nonuniform List<scalar> 
89
(
1.33744
1.34199
1.34796
1.35529
1.3635
1.37185
1.37973
1.38676
1.39289
1.39823
1.40282
1.4069
1.41084
1.41477
1.41724
1.40814
1.40268
1.39946
1.398
1.39781
1.39801
1.39817
1.39747
1.39631
1.39429
1.39085
1.38556
1.37806
1.3694
1.36252
1.35938
1.36114
1.36629
1.3723
1.38242
1.39549
1.40588
1.41022
1.41047
1.39968
1.37306
1.34689
1.33904
1.33945
1.34043
1.34094
1.34049
1.33904
1.33678
1.33399
1.33087
1.32761
1.32434
1.3211
1.318
1.31502
1.31199
1.30878
1.30536
1.30194
1.29884
1.29641
1.29484
1.29416
1.29477
1.29687
1.29988
1.30342
1.30696
1.31009
1.31274
1.3148
1.31607
1.31696
1.31772
1.31852
1.31939
1.32035
1.3214
1.32255
1.32386
1.32536
1.32702
1.32877
1.33053
1.33233
1.33424
1.33635
1.33635
)
;
    }
    procBoundary19to12
    {
        type            processor;
        value           uniform 1.41578;
    }
    procBoundary19to20
    {
        type            processor;
        value           nonuniform List<scalar> 
27
(
0.97178
0.951062
0.943648
0.941668
0.94475
0.951021
0.956455
0.959552
0.960498
0.961096
0.961971
0.963322
0.966137
0.969812
0.973326
0.97687
0.981172
0.985495
1.41132
1.40367
1.38298
1.34227
1.28018
1.19627
1.1132
1.04933
1.00554
)
;
    }
    procBoundary19to27
    {
        type            processor;
        value           nonuniform List<scalar> 
89
(
1.00004
1.00011
1.00026
1.00052
1.00091
1.00133
1.0017
1.00191
1.00184
1.00149
1.00074
0.999806
0.998424
0.997005
0.995598
0.993831
0.992444
0.990793
0.988812
0.98762
0.98603
0.984526
0.983855
0.982862
0.982224
0.98221
0.981903
0.982012
0.982345
0.982272
0.982368
0.982596
0.982451
0.982292
0.982229
0.981885
0.981501
0.981327
0.980996
0.98085
0.981098
0.981332
0.981703
0.98254
0.983547
0.984231
0.985128
0.98645
0.987441
0.988538
0.989245
0.989869
0.990874
0.992291
0.993117
0.993197
0.993711
0.994315
0.99456
0.994554
0.994316
0.994059
0.993896
0.993512
0.993094
1
1
1
1
1
1
1
1
1
1
1
1
1
1
1
1
1
1
1
1
1
1
1.00004
1
)
;
    }
}


// ************************************************************************* //
