/*--------------------------------*- C++ -*----------------------------------*\
  =========                 |
  \\      /  F ield         | OpenFOAM: The Open Source CFD Toolbox
   \\    /   O peration     | Website:  https://openfoam.org
    \\  /    A nd           | Version:  7
     \\/     M anipulation  |
\*---------------------------------------------------------------------------*/
FoamFile
{
    version     2.0;
    format      ascii;
    class       volScalarField;
    location    "17";
    object      p;
}
// * * * * * * * * * * * * * * * * * * * * * * * * * * * * * * * * * * * * * //

dimensions      [0 2 -2 0 0 0 0];

internalField   nonuniform List<scalar> 
26800
(
-0.251549
-0.255992
-0.265073
-0.267754
-0.273784
-0.278466
-0.285407
-0.292073
-0.297949
-0.298499
-0.285151
-0.250709
-0.196632
-0.134544
-0.0774658
-0.029989
0.00061008
0.021108
0.0309235
0.0350909
-0.251754
-0.256063
-0.265179
-0.267817
-0.273838
-0.27852
-0.285505
-0.292289
-0.298417
-0.299459
-0.286795
-0.252953
-0.199022
-0.136778
-0.0794746
-0.0316692
-0.000854334
0.0197577
0.029773
0.0340573
-0.252161
-0.256204
-0.265386
-0.267937
-0.273939
-0.278617
-0.28568
-0.292669
-0.299245
-0.301153
-0.289681
-0.256871
-0.203232
-0.140744
-0.0830307
-0.0350375
-0.00376851
0.0169665
0.0273359
0.0318335
-0.252764
-0.256408
-0.265687
-0.268106
-0.274073
-0.278736
-0.285889
-0.293126
-0.300245
-0.303204
-0.293171
-0.261593
-0.208339
-0.145588
-0.087831
-0.0397879
-0.00804913
0.0127406
0.0235598
0.0283816
-0.253558
-0.256668
-0.266068
-0.268309
-0.274224
-0.278849
-0.286083
-0.293553
-0.301196
-0.305176
-0.296638
-0.266116
-0.213307
-0.150801
-0.0932073
-0.0455447
-0.0134929
0.00727671
0.0185802
0.023854
-0.254532
-0.256975
-0.266515
-0.268532
-0.274371
-0.278928
-0.286208
-0.293846
-0.301888
-0.306662
-0.299277
-0.269606
-0.217524
-0.155634
-0.0986454
-0.051839
-0.0197573
0.000950713
0.0127393
0.0185728
-0.255676
-0.257318
-0.267011
-0.268756
-0.274492
-0.278945
-0.28622
-0.293919
-0.302173
-0.307486
-0.30062
-0.27158
-0.22038
-0.159603
-0.103735
-0.0582108
-0.0264258
-0.00580506
0.00645039
0.012902
-0.256977
-0.257684
-0.267536
-0.268965
-0.274569
-0.278876
-0.286086
-0.293729
-0.301973
-0.307282
-0.300485
-0.27175
-0.221578
-0.162425
-0.108196
-0.0642916
-0.0331028
-0.0126038
7.96329e-05
0.00715622
-0.258423
-0.258061
-0.268072
-0.269141
-0.274587
-0.278706
-0.285789
-0.29325
-0.301218
-0.306059
-0.298778
-0.270049
-0.221065
-0.164005
-0.111878
-0.0698376
-0.0394804
-0.0191566
-0.00610587
0.00155697
-0.260001
-0.258437
-0.2686
-0.26927
-0.274532
-0.278426
-0.285318
-0.292474
-0.299905
-0.303814
-0.295522
-0.266572
-0.218961
-0.164397
-0.114743
-0.0747217
-0.0453608
-0.0252811
-0.0119418
-0.00376332
-0.261697
-0.2588
-0.269103
-0.269337
-0.274398
-0.27803
-0.284667
-0.291394
-0.298021
-0.300548
-0.290816
-0.261531
-0.215514
-0.163758
-0.116833
-0.0789054
-0.050645
-0.0308832
-0.0173456
-0.00873604
-0.263501
-0.25914
-0.269563
-0.269331
-0.274173
-0.277515
-0.283828
-0.289988
-0.295524
-0.296279
-0.284818
-0.255223
-0.211041
-0.1623
-0.118234
-0.0824078
-0.0553058
-0.0359305
-0.0222878
-0.0133338
-0.2654
-0.259447
-0.269967
-0.269247
-0.273858
-0.27687
-0.282778
-0.288203
-0.292353
-0.291046
-0.27774
-0.248001
-0.205874
-0.160241
-0.11905
-0.0852802
-0.0593602
-0.0404284
-0.0267687
-0.0175532
-0.267386
-0.259716
-0.270304
-0.269074
-0.273447
-0.276082
-0.281479
-0.285968
-0.288464
-0.284932
-0.269851
-0.240227
-0.200316
-0.157774
-0.119382
-0.0875867
-0.0628481
-0.0444022
-0.0308044
-0.021404
-0.26945
-0.259941
-0.270557
-0.268806
-0.272931
-0.275127
-0.279877
-0.283214
-0.283855
-0.278078
-0.261449
-0.232229
-0.194608
-0.155051
-0.119321
-0.0893936
-0.0658188
-0.0478864
-0.0344189
-0.0249014
-0.271586
-0.260119
-0.270708
-0.268449
-0.272291
-0.273971
-0.277914
-0.279899
-0.278573
-0.27067
-0.252819
-0.224262
-0.188919
-0.152183
-0.118937
-0.090763
-0.0683229
-0.0509184
-0.0376394
-0.0280637
-0.273791
-0.260246
-0.270773
-0.26798
-0.271502
-0.272574
-0.275541
-0.276016
-0.272714
-0.262916
-0.244197
-0.216501
-0.183358
-0.149245
-0.118289
-0.0917511
-0.0704081
-0.0535351
-0.0404943
-0.0309095
-0.276064
-0.260326
-0.270745
-0.267389
-0.27053
-0.270896
-0.272732
-0.271596
-0.266406
-0.255008
-0.235756
-0.209052
-0.177988
-0.146285
-0.117421
-0.0924076
-0.0721171
-0.0557719
-0.0430117
-0.0334571
-0.278405
-0.260424
-0.270566
-0.266667
-0.269347
-0.268906
-0.269482
-0.266702
-0.259789
-0.247108
-0.227609
-0.201965
-0.172834
-0.143333
-0.11637
-0.0927761
-0.0734874
-0.0576622
-0.0452191
-0.0357239
-0.280817
-0.260494
-0.270265
-0.265804
-0.267932
-0.26658
-0.265812
-0.26142
-0.252997
-0.239335
-0.219816
-0.195256
-0.167907
-0.140406
-0.115164
-0.0928945
-0.0745512
-0.0592369
-0.0471421
-0.0377259
-0.283304
-0.260547
-0.269825
-0.264804
-0.266275
-0.263904
-0.26176
-0.255845
-0.246146
-0.23177
-0.212405
-0.188916
-0.1632
-0.137514
-0.113827
-0.0927956
-0.0753362
-0.0605251
-0.048804
-0.0394778
-0.285872
-0.260602
-0.269221
-0.263681
-0.264371
-0.260875
-0.257382
-0.25007
-0.239325
-0.224461
-0.205375
-0.182924
-0.158701
-0.134658
-0.112379
-0.0925075
-0.0758671
-0.0615537
-0.050225
-0.0409927
-0.288523
-0.26066
-0.268442
-0.262457
-0.26222
-0.257506
-0.252739
-0.244178
-0.2326
-0.217432
-0.198712
-0.177253
-0.154397
-0.13184
-0.110838
-0.0920533
-0.0761657
-0.0623479
-0.0514221
-0.0422822
-0.29126
-0.260699
-0.267498
-0.26114
-0.259826
-0.253824
-0.247894
-0.23824
-0.226015
-0.210689
-0.192394
-0.171873
-0.15027
-0.129056
-0.10922
-0.0914518
-0.0762513
-0.0629322
-0.0524091
-0.0433553
-0.29408
-0.260676
-0.266429
-0.259711
-0.257198
-0.249869
-0.242903
-0.232308
-0.219599
-0.204227
-0.186393
-0.166757
-0.146303
-0.126305
-0.107538
-0.0907177
-0.0761426
-0.0633302
-0.0531937
-0.0442154
-0.296959
-0.260533
-0.265292
-0.258127
-0.254352
-0.245683
-0.237817
-0.226424
-0.213364
-0.198036
-0.180682
-0.161877
-0.142481
-0.123585
-0.105806
-0.089862
-0.0758594
-0.0635649
-0.053775
-0.0448558
-0.299802
-0.260273
-0.264142
-0.256341
-0.251308
-0.24131
-0.232676
-0.220615
-0.207318
-0.192098
-0.175233
-0.157209
-0.138787
-0.120892
-0.104031
-0.0888935
-0.0754247
-0.0636568
-0.0541418
-0.0452636
-0.302578
-0.259854
-0.262997
-0.254321
-0.248087
-0.236791
-0.227515
-0.214901
-0.201459
-0.186395
-0.170019
-0.15273
-0.135208
-0.118227
-0.10222
-0.0878209
-0.0748642
-0.0636192
-0.0542787
-0.04545
-0.30519
-0.259308
-0.26182
-0.25206
-0.244709
-0.232163
-0.222358
-0.209292
-0.19578
-0.18091
-0.165018
-0.14842
-0.131729
-0.115588
-0.100379
-0.0866546
-0.0742025
-0.063454
-0.0541878
-0.0455016
-0.307488
-0.258739
-0.260523
-0.249569
-0.241193
-0.227457
-0.217225
-0.203794
-0.190275
-0.175624
-0.160207
-0.14426
-0.12834
-0.112975
-0.0985089
-0.0854064
-0.0734576
-0.0631556
-0.0539207
-0.0455974
-0.309318
-0.258308
-0.258996
-0.246867
-0.237559
-0.222699
-0.212131
-0.198408
-0.184932
-0.170519
-0.155566
-0.140235
-0.125031
-0.110385
-0.096612
-0.0840883
-0.0726383
-0.0627275
-0.0535968
-0.0458274
-0.310547
-0.258226
-0.25715
-0.24397
-0.233825
-0.217908
-0.207084
-0.193132
-0.179741
-0.165579
-0.151078
-0.136329
-0.121793
-0.107816
-0.0946899
-0.0827104
-0.071746
-0.0621945
-0.0533286
-0.0459287
-0.311083
-0.258719
-0.254953
-0.240889
-0.230009
-0.213101
-0.202089
-0.187963
-0.174691
-0.160787
-0.146727
-0.132529
-0.118618
-0.105266
-0.0927447
-0.0812796
-0.0707821
-0.061586
-0.0530408
-0.0458875
-0.310876
-0.259991
-0.252436
-0.237632
-0.226126
-0.20829
-0.197151
-0.182894
-0.169769
-0.156129
-0.142498
-0.128823
-0.115498
-0.102734
-0.0907782
-0.0798007
-0.0697521
-0.0609022
-0.0526927
-0.0457939
-0.309918
-0.262176
-0.249689
-0.234202
-0.22219
-0.203486
-0.192269
-0.17792
-0.164966
-0.151593
-0.138379
-0.125202
-0.112428
-0.100216
-0.088792
-0.0782781
-0.0686584
-0.0601478
-0.0522677
-0.0456079
-0.308222
-0.265286
-0.246825
-0.230602
-0.218209
-0.198694
-0.187443
-0.173035
-0.160271
-0.147166
-0.134358
-0.121655
-0.109402
-0.0977111
-0.0867872
-0.0767147
-0.067506
-0.0593215
-0.0517555
-0.045346
-0.305811
-0.269182
-0.243961
-0.226831
-0.214189
-0.193919
-0.18267
-0.16823
-0.155673
-0.142838
-0.130424
-0.118175
-0.106415
-0.0952166
-0.0847649
-0.0751137
-0.066297
-0.0584254
-0.0511634
-0.0449918
-0.302705
-0.27356
-0.241189
-0.222889
-0.210133
-0.189164
-0.177946
-0.1635
-0.151164
-0.138597
-0.126569
-0.114753
-0.103462
-0.0927308
-0.082726
-0.0734774
-0.0650348
-0.0574627
-0.0504914
-0.0445525
-0.298928
-0.277967
-0.238565
-0.218777
-0.206041
-0.184428
-0.173269
-0.158838
-0.146735
-0.134436
-0.122784
-0.111383
-0.10054
-0.0902518
-0.0806712
-0.0718082
-0.063722
-0.0564369
-0.0497477
-0.0440266
-0.294523
-0.281854
-0.236106
-0.214497
-0.201908
-0.179711
-0.168633
-0.154236
-0.142377
-0.130345
-0.119061
-0.10806
-0.0976433
-0.087778
-0.0786012
-0.0701078
-0.0623616
-0.0553529
-0.048935
-0.0434199
-0.289574
-0.284656
-0.233794
-0.210055
-0.197733
-0.175011
-0.164034
-0.149689
-0.138083
-0.126317
-0.115393
-0.104777
-0.0947699
-0.0853081
-0.0765166
-0.0683781
-0.0609563
-0.0542148
-0.0480598
-0.0427383
-0.284229
-0.285882
-0.231584
-0.205461
-0.193509
-0.170325
-0.159469
-0.145191
-0.133846
-0.122345
-0.111774
-0.10153
-0.0919163
-0.0828405
-0.0744179
-0.0666204
-0.0595089
-0.053027
-0.0471258
-0.0419892
-0.278712
-0.28521
-0.22942
-0.200729
-0.189235
-0.165649
-0.154932
-0.140735
-0.129659
-0.118422
-0.108199
-0.0983137
-0.0890797
-0.0803742
-0.0723056
-0.0648364
-0.0580223
-0.0517932
-0.0461381
-0.041179
-0.273312
-0.282537
-0.227239
-0.195878
-0.184907
-0.160981
-0.150419
-0.136317
-0.125516
-0.114544
-0.104661
-0.0951252
-0.0862576
-0.0779081
-0.0701801
-0.0630273
-0.0564991
-0.0505171
-0.0451003
-0.040313
-0.268357
-0.277993
-0.22499
-0.190928
-0.180526
-0.156316
-0.145927
-0.131931
-0.121412
-0.110704
-0.101157
-0.0919604
-0.0834475
-0.0754413
-0.0680417
-0.0611943
-0.0549416
-0.0492017
-0.0440164
-0.039396
-0.264175
-0.271887
-0.222633
-0.185898
-0.176092
-0.151651
-0.14145
-0.127573
-0.117341
-0.106897
-0.0976824
-0.0888162
-0.0806475
-0.0729729
-0.065891
-0.0593386
-0.0533523
-0.0478499
-0.0428893
-0.0384318
-0.261045
-0.264635
-0.220145
-0.180809
-0.171605
-0.146982
-0.136985
-0.123239
-0.1133
-0.10312
-0.0942328
-0.0856896
-0.0778556
-0.0705022
-0.0637281
-0.0574614
-0.0517333
-0.046464
-0.0417219
-0.037424
-0.259173
-0.256668
-0.21751
-0.175674
-0.167067
-0.142307
-0.132527
-0.118923
-0.109282
-0.0993681
-0.090805
-0.082578
-0.0750703
-0.0680288
-0.0615534
-0.0555637
-0.0500865
-0.0450464
-0.0405165
-0.0363757
-0.25867
-0.248368
-0.214724
-0.170507
-0.16248
-0.137621
-0.128074
-0.114624
-0.105286
-0.0956375
-0.0873959
-0.0794791
-0.0722901
-0.065552
-0.0593672
-0.0536465
-0.0484139
-0.0435989
-0.0392753
-0.03529
-0.25956
-0.240033
-0.211788
-0.165314
-0.157844
-0.132922
-0.123622
-0.110336
-0.101306
-0.0919251
-0.0840025
-0.0763908
-0.0695137
-0.0630714
-0.0571698
-0.0517109
-0.046717
-0.0421234
-0.038
-0.0341692
-0.261796
-0.231866
-0.208704
-0.160102
-0.15316
-0.128207
-0.119168
-0.106057
-0.097339
-0.0882277
-0.0806224
-0.0733112
-0.0667399
-0.0605868
-0.0549616
-0.0497579
-0.0449977
-0.0406212
-0.0366922
-0.033016
-0.265277
-0.223986
-0.205478
-0.154873
-0.148429
-0.123472
-0.114707
-0.101783
-0.0933827
-0.0845427
-0.0772532
-0.0702386
-0.0639679
-0.0580979
-0.052743
-0.0477884
-0.0432572
-0.039094
-0.0353539
-0.0318322
-0.269865
-0.216453
-0.202111
-0.149624
-0.143648
-0.118714
-0.110238
-0.0975113
-0.0894341
-0.0808675
-0.0738929
-0.0671716
-0.0611968
-0.0556044
-0.0505142
-0.0458035
-0.0414971
-0.0375433
-0.0339874
-0.0306201
-0.275398
-0.209283
-0.198603
-0.144353
-0.138818
-0.113931
-0.105758
-0.0932393
-0.0854905
-0.0772
-0.0705397
-0.0641091
-0.0584259
-0.0531064
-0.0482759
-0.043804
-0.0397186
-0.0359704
-0.0325951
-0.0293826
-0.281699
-0.202461
-0.19495
-0.139056
-0.133936
-0.10912
-0.101263
-0.0889641
-0.0815499
-0.0735379
-0.067192
-0.0610498
-0.0556547
-0.0506038
-0.0460283
-0.0417907
-0.0379226
-0.0343767
-0.0311793
-0.0281234
-0.288587
-0.195956
-0.191149
-0.133725
-0.129
-0.104277
-0.0967522
-0.0846831
-0.0776105
-0.0698796
-0.0638485
-0.0579931
-0.0528829
-0.0480967
-0.043772
-0.0397647
-0.0361103
-0.0327632
-0.029742
-0.0268457
-0.295876
-0.189725
-0.18719
-0.128352
-0.124008
-0.0993982
-0.0922232
-0.0803935
-0.0736705
-0.0662237
-0.060508
-0.054938
-0.0501099
-0.0455853
-0.0415077
-0.0377267
-0.0342826
-0.031131
-0.0282842
-0.02555
-0.303381
-0.183718
-0.183066
-0.122929
-0.118957
-0.0944809
-0.0876753
-0.0760929
-0.0697281
-0.0625694
-0.0571691
-0.051884
-0.0473357
-0.0430698
-0.0392357
-0.0356775
-0.0324408
-0.029482
-0.0268069
-0.0242313
-0.310923
-0.177878
-0.178765
-0.117445
-0.113845
-0.0895202
-0.0831073
-0.0717807
-0.0657812
-0.0589161
-0.0538309
-0.0488303
-0.0445601
-0.0405505
-0.0369569
-0.0336179
-0.0305862
-0.0278187
-0.0253119
-0.0228792
-0.318328
-0.17215
-0.174277
-0.11189
-0.108671
-0.0845122
-0.0785163
-0.0674574
-0.0618279
-0.0552622
-0.0504936
-0.045776
-0.0417839
-0.0380278
-0.034672
-0.0315485
-0.0287198
-0.0261434
-0.0238024
-0.0214833
-0.32543
-0.166475
-0.16959
-0.106252
-0.103435
-0.0794547
-0.0738974
-0.0631225
-0.0578704
-0.0516013
-0.0471605
-0.0427197
-0.0390087
-0.0355015
-0.0323819
-0.0294702
-0.026843
-0.0244573
-0.0222787
-0.0200467
-0.332072
-0.160797
-0.164693
-0.100516
-0.0981346
-0.0743474
-0.0692494
-0.0587653
-0.0539206
-0.0479214
-0.0438385
-0.0396603
-0.0362361
-0.0329717
-0.0300873
-0.0273846
-0.0249579
-0.0227608
-0.0207311
-0.0185977
-0.338111
-0.155058
-0.159576
-0.0946723
-0.0927623
-0.069185
-0.0645901
-0.0543546
-0.0499998
-0.0442114
-0.0405313
-0.0366011
-0.0334643
-0.0304404
-0.0277878
-0.0252945
-0.0230681
-0.0210523
-0.0191483
-0.0171634
-0.343412
-0.149205
-0.154232
-0.0887112
-0.087314
-0.0639401
-0.0599695
-0.049848
-0.0461183
-0.0404849
-0.0372233
-0.0335536
-0.0306843
-0.0279125
-0.0254837
-0.0232008
-0.0211727
-0.0193283
-0.0175447
-0.0157358
-0.347853
-0.143183
-0.148653
-0.082624
-0.0818119
-0.0585525
-0.0554445
-0.0452455
-0.042232
-0.0368011
-0.0338765
-0.0305196
-0.0279023
-0.0253843
-0.0231777
-0.0211042
-0.019271
-0.0175894
-0.0159307
-0.0143052
-0.351326
-0.136942
-0.142827
-0.0763808
-0.0763335
-0.0529651
-0.0509816
-0.0406655
-0.038247
-0.0331673
-0.0305113
-0.0274883
-0.0251235
-0.0228553
-0.0208714
-0.0190054
-0.0173633
-0.015839
-0.0143107
-0.0128662
-0.353734
-0.130437
-0.136738
-0.0699044
-0.0709822
-0.0472272
-0.0463688
-0.0362251
-0.0341856
-0.0295545
-0.0271457
-0.0244546
-0.0223495
-0.020327
-0.0185658
-0.0169055
-0.0154507
-0.0140809
-0.0126858
-0.0114171
-0.354996
-0.123631
-0.130401
-0.0630923
-0.0657344
-0.0415274
-0.0415473
-0.0318643
-0.0300851
-0.0259415
-0.0237888
-0.0214189
-0.0195803
-0.017801
-0.016262
-0.0148055
-0.0135349
-0.0123178
-0.0110568
-0.00995852
-0.35504
-0.116483
-0.123904
-0.0559495
-0.0602885
-0.0360219
-0.0365764
-0.027534
-0.0259726
-0.0223187
-0.0204426
-0.0183838
-0.0168159
-0.0152789
-0.0139611
-0.0127067
-0.0116178
-0.0105518
-0.00942426
-0.0084921
-0.35381
-0.108916
-0.117395
-0.0487039
-0.0544323
-0.0306259
-0.03151
-0.0232018
-0.0218626
-0.0186843
-0.0171062
-0.0153524
-0.0140567
-0.012762
-0.0116644
-0.0106106
-0.00970099
-0.00878455
-0.00778942
-0.00701958
-0.35126
-0.100796
-0.110869
-0.0413731
-0.0482674
-0.0252751
-0.0263857
-0.018851
-0.0177613
-0.0150411
-0.0137785
-0.012327
-0.011304
-0.0102516
-0.00937333
-0.00851872
-0.00778636
-0.00701775
-0.00615382
-0.00554281
-0.347354
-0.0920325
-0.103897
-0.034305
-0.0418733
-0.0199249
-0.0212273
-0.0144742
-0.0136702
-0.0113929
-0.0104587
-0.00930959
-0.008559
-0.00774896
-0.00708933
-0.00643256
-0.00587555
-0.00525309
-0.0045192
-0.0040638
-0.342072
-0.082814
-0.0964737
-0.027325
-0.0353053
-0.0145484
-0.0160494
-0.0100705
-0.00958891
-0.00774401
-0.00714695
-0.00630176
-0.0058233
-0.00525556
-0.00481389
-0.00435375
-0.0039702
-0.00349225
-0.0028874
-0.00258485
-0.335413
-0.0734622
-0.0883861
-0.0203473
-0.0286003
-0.00912928
-0.0108603
-0.00564211
-0.00551648
-0.00409814
-0.00384421
-0.00330498
-0.0030985
-0.00277289
-0.00254859
-0.00228392
-0.00207193
-0.00173694
-0.00126038
-0.00110865
-0.327422
-0.0638138
-0.079761
-0.0133147
-0.0217846
-0.00365954
-0.00566482
-0.00119331
-0.00145248
-0.000458532
-0.000551901
-0.000320748
-0.00038625
-0.00030257
-0.000295058
-0.000224698
-0.000182412
1.10075e-05
0.000359658
0.000361884
-0.318195
-0.0537285
-0.0706771
-0.00619654
-0.0148774
0.0018638
-0.000465932
0.00327102
0.00260289
0.00317195
0.00272819
0.00264933
0.00231177
0.00215374
0.00194505
0.00182226
0.00169663
0.0017495
0.00197004
0.00182405
-0.307755
-0.0431728
-0.0611927
0.00102469
-0.00789329
0.00744003
0.00473432
0.00774578
0.0066487
0.00679068
0.00599405
0.00560353
0.00499383
0.00459432
0.00417005
0.00385529
0.00356338
0.00347608
0.00356751
0.00327573
-0.295854
-0.032365
-0.0513522
0.00835804
-0.00084402
0.013066
0.00993406
0.0122258
0.0106834
0.0103951
0.00924354
0.00854
0.00765813
0.00701741
0.00637826
0.00587277
0.00541598
0.00518806
0.00514843
0.00471474
-0.282352
-0.0214567
-0.0411923
0.0158075
0.0062605
0.0187367
0.0151312
0.0167063
0.0147047
0.0139827
0.0124744
0.0114568
0.0103028
0.00942124
0.00856799
0.00787307
0.00725258
0.00688289
0.00670931
0.0061371
-0.26744
-0.0103302
-0.0307438
0.0233731
0.0134114
0.0244461
0.0203233
0.0211821
0.0187103
0.0175509
0.0156843
0.0143517
0.012926
0.011804
0.0107375
0.00985451
0.00907139
0.0085584
0.00824731
0.00753599
-0.251212
0.00106069
-0.020035
0.0310513
0.0206003
0.0301873
0.0255073
0.0256487
0.022697
0.0210969
0.0188707
0.0172228
0.0155257
0.0141639
0.0128851
0.0118154
0.0108707
0.0102129
0.00976053
0.00890558
-0.233748
0.012735
-0.00909239
0.0388359
0.0278191
0.0359528
0.0306796
0.0301012
0.0266617
0.0246178
0.0220311
0.0200678
0.0180999
0.016499
0.015009
0.0137539
0.0126488
0.0118452
0.0112482
0.0102494
-0.215126
0.0246958
0.00205813
0.0467186
0.0350593
0.0417347
0.0358361
0.0345349
0.0306009
0.0281108
0.025163
0.0228843
0.0206466
0.0188074
0.0171072
0.0156682
0.0144046
0.0134548
0.0127112
0.0115828
-0.195425
0.0369362
0.013391
0.054689
0.0423123
0.0475248
0.0409722
0.0389448
0.034511
0.0315727
0.0282637
0.0256701
0.0231637
0.0210871
0.0191777
0.017557
0.0161377
0.0150423
0.0141504
0.0129128
-0.174727
0.0494428
0.0248808
0.0627351
0.0495691
0.0533145
0.0460829
0.0433262
0.0383881
0.0350002
0.0313303
0.0284228
0.025649
0.023336
0.0212189
0.0194193
0.0178488
0.0166079
0.0155596
0.0142014
-0.153119
0.0621966
0.0365015
0.0708436
0.0568201
0.0590951
0.0511626
0.047674
0.0422282
0.0383902
0.03436
0.0311398
0.0281002
0.025552
0.0232293
0.0212554
0.0195383
0.0181466
0.0169131
0.0153576
-0.130687
0.0751743
0.0482269
0.079
0.0640554
0.0648575
0.0562055
0.051983
0.0460273
0.0417391
0.0373501
0.0338188
0.030515
0.0277333
0.0252082
0.0230658
0.0212047
0.0196437
0.0181653
0.0163237
-0.107522
0.088349
0.0600305
0.0871889
0.0712645
0.0705928
0.0612055
0.056248
0.0497811
0.0450436
0.0402974
0.0364571
0.0328911
0.0298782
0.0271552
0.0248503
0.0228423
0.0210787
0.0192885
0.0171969
-0.0837164
0.101691
0.071885
0.095394
0.0784364
0.0762916
0.066156
0.0604637
0.0534853
0.0483001
0.043199
0.0390521
0.0352263
0.0319852
0.0290698
0.0266068
0.0244416
0.0224401
0.020325
0.0181907
-0.0593651
0.115168
0.0837628
0.103598
0.0855598
0.0819445
0.0710506
0.0646246
0.0571356
0.051505
0.046052
0.0416012
0.0375184
0.0340532
0.0309512
0.0283309
0.0259934
0.023737
0.0213675
0.0194337
-0.0345642
0.128745
0.0956358
0.111784
0.0926229
0.087542
0.0758822
0.0687253
0.0607274
0.0546546
0.048853
0.0441015
0.0397653
0.0360807
0.0327972
0.0300171
0.0274933
0.0249914
0.0224564
0.0209539
-0.00941075
0.142387
0.107476
0.119934
0.0996134
0.0930743
0.0806438
0.0727599
0.0642561
0.0577451
0.051599
0.0465506
0.041965
0.0380663
0.034605
0.0316605
0.0289439
0.0262315
0.0236373
0.0223982
0.0159972
0.156055
0.119253
0.128028
0.106519
0.0985318
0.0853283
0.076723
0.0677173
0.060773
0.0542867
0.0489457
0.0441154
0.040008
0.0363714
0.0332586
0.0303535
0.0274767
0.0248782
0.0237212
0.0415613
0.16971
0.13094
0.136049
0.113327
0.103905
0.0899285
0.0806087
0.0711062
0.0637343
0.0569131
0.0512842
0.0462146
0.0419035
0.0380933
0.0348107
0.0317291
0.0287256
0.0261288
0.0249523
0.0671833
0.183313
0.142506
0.143978
0.120025
0.109183
0.0944369
0.0844114
0.0744184
0.0666253
0.0594749
0.0535637
0.0482603
0.0437503
0.0397681
0.0363177
0.0330755
0.029971
0.0273605
0.0261117
0.092765
0.196822
0.153923
0.151795
0.126599
0.114357
0.0988464
0.0881253
0.0776491
0.0694423
0.061969
0.0557815
0.0502503
0.0455461
0.0413941
0.0377802
0.0343928
0.0312018
0.0285607
0.0272191
0.118209
0.210198
0.16516
0.159481
0.133037
0.119417
0.103149
0.0917446
0.0807938
0.0721815
0.0643923
0.057935
0.0521821
0.0472884
0.0429697
0.039199
0.0356796
0.0324091
0.0297232
0.0282797
0.14342
0.223397
0.17619
0.167018
0.139325
0.124353
0.107339
0.0952638
0.0838479
0.0748392
0.0667418
0.0600218
0.0540535
0.048975
0.0444936
0.0405735
0.0369328
0.0335864
0.0308473
0.0292973
0.168303
0.23638
0.186983
0.174387
0.145451
0.129155
0.111407
0.0986771
0.0868069
0.0774118
0.0690143
0.0620393
0.0558621
0.050604
0.0459649
0.0419026
0.038149
0.034729
0.0319311
0.0302719
0.192764
0.249105
0.19751
0.181568
0.151401
0.133814
0.115347
0.101979
0.0896663
0.0798955
0.071207
0.0639849
0.0576056
0.0521733
0.0473821
0.043185
0.0393255
0.0358339
0.032974
0.0312035
0.216714
0.261532
0.207744
0.188544
0.157164
0.138321
0.119152
0.105164
0.0924218
0.082287
0.0733168
0.0658561
0.0592817
0.0536813
0.0487438
0.0444188
0.0404594
0.0368984
0.0339748
0.0320913
0.240062
0.27362
0.217657
0.195297
0.162725
0.142667
0.122815
0.108227
0.095069
0.0845827
0.0753409
0.0676504
0.0608884
0.0551262
0.0500486
0.0456024
0.0415487
0.0379206
0.0349322
0.032935
0.262725
0.28533
0.227222
0.201808
0.168074
0.146841
0.126329
0.111162
0.0976039
0.0867793
0.0772765
0.0693655
0.0624236
0.0565063
0.0512951
0.0467339
0.0425911
0.0388987
0.0358451
0.0337341
0.284619
0.296624
0.236414
0.208062
0.173199
0.150837
0.129688
0.113965
0.100022
0.0888734
0.079121
0.0709991
0.0638853
0.0578198
0.0524815
0.0478118
0.0435851
0.0398311
0.0367124
0.0344883
0.305663
0.307464
0.245206
0.21404
0.178087
0.154645
0.132885
0.116631
0.10232
0.090862
0.0808715
0.0725489
0.0652715
0.0590653
0.0536065
0.0488344
0.0445289
0.0407163
0.0375331
0.0351974
0.325783
0.317816
0.253575
0.219728
0.182727
0.158257
0.135913
0.119154
0.104494
0.0927421
0.0825258
0.0740129
0.0665806
0.0602411
0.0546687
0.0498002
0.0454211
0.0415528
0.0383063
0.0358613
0.344905
0.327644
0.261498
0.22511
0.18711
0.161665
0.138769
0.121531
0.10654
0.0945106
0.0840812
0.0753889
0.0678106
0.0613458
0.0556665
0.050708
0.0462602
0.0423395
0.0390311
0.0364799
0.36296
0.336915
0.268952
0.230172
0.191225
0.164863
0.141444
0.123757
0.108455
0.096165
0.0855356
0.0766751
0.0689601
0.0623778
0.0565988
0.0515565
0.047045
0.043075
0.0397068
0.0370532
0.379884
0.345599
0.275917
0.234899
0.195061
0.167842
0.143935
0.125828
0.110236
0.0977025
0.0868868
0.0778696
0.0700274
0.0633359
0.0574642
0.0523444
0.0477743
0.0437584
0.0403327
0.0375814
0.395617
0.353667
0.282373
0.23928
0.198611
0.170598
0.146237
0.12774
0.111879
0.0991208
0.0881328
0.0789707
0.0710111
0.0642187
0.0582616
0.0530706
0.0484468
0.0443885
0.0409083
0.0380645
0.410103
0.361091
0.288302
0.243302
0.201866
0.173123
0.148344
0.12949
0.113383
0.100418
0.0892716
0.079977
0.0719097
0.0650251
0.05899
0.0537341
0.0490616
0.0449644
0.0414331
0.0385027
0.42329
0.367846
0.293687
0.246954
0.204819
0.175411
0.150254
0.131075
0.114743
0.101591
0.0903016
0.0808868
0.0727222
0.0657541
0.0596484
0.054334
0.0496178
0.0454852
0.0419066
0.0388962
0.435132
0.373908
0.298512
0.250226
0.207461
0.177459
0.151961
0.132491
0.115958
0.102639
0.0912212
0.081699
0.0734473
0.0664045
0.0602358
0.0548694
0.0501144
0.0459502
0.0423284
0.0392451
0.445587
0.379259
0.302765
0.253109
0.209787
0.179261
0.153462
0.133736
0.117027
0.103559
0.092029
0.0824122
0.074084
0.0669757
0.0607516
0.0553396
0.0505507
0.0463587
0.0426981
0.0395498
0.454618
0.38388
0.306434
0.255595
0.211792
0.180813
0.154754
0.134808
0.117946
0.104351
0.0927237
0.0830256
0.0746315
0.0674666
0.061195
0.0557439
0.0509259
0.0467099
0.0430155
0.0398104
0.462193
0.387754
0.309507
0.257678
0.213469
0.182112
0.155836
0.135704
0.118714
0.105013
0.0933043
0.0835381
0.0750888
0.0678768
0.0615654
0.0560817
0.0512395
0.0470035
0.0432804
0.0400271
0.468286
0.390869
0.311976
0.259351
0.214816
0.183155
0.156703
0.136423
0.11933
0.105544
0.0937699
0.083949
0.0754555
0.0682056
0.0618624
0.0563525
0.0514911
0.0472389
0.0434925
0.0402003
0.472874
0.393215
0.313833
0.260609
0.21583
0.183939
0.157355
0.136963
0.119793
0.105942
0.0941197
0.0842577
0.075731
0.0684526
0.0620854
0.0565559
0.05168
0.0474158
0.0436517
0.0403299
0.475942
0.394783
0.315075
0.26145
0.216506
0.184462
0.157791
0.137324
0.120103
0.106209
0.0943531
0.0844637
0.0759148
0.0686174
0.0622343
0.0566917
0.0518062
0.0475338
0.043758
0.0404163
0.477478
0.395569
0.315697
0.261872
0.216845
0.184724
0.158009
0.137504
0.120257
0.106342
0.09447
0.0845668
0.0760068
0.0686999
0.0623087
0.0567596
0.0518693
0.0475929
0.0438111
0.0404594
0.477478
0.395569
0.315697
0.261872
0.216845
0.184724
0.158009
0.137504
0.120257
0.106342
0.09447
0.0845668
0.0760068
0.0686999
0.0623087
0.0567596
0.0518693
0.0475929
0.0438111
0.0404594
0.475941
0.394783
0.315075
0.26145
0.216506
0.184462
0.157791
0.137324
0.120103
0.106209
0.0943531
0.0844637
0.0759148
0.0686174
0.0622343
0.0566917
0.0518062
0.0475338
0.0437579
0.0404163
0.472874
0.393215
0.313833
0.260609
0.21583
0.183939
0.157355
0.136963
0.119793
0.105942
0.0941197
0.0842576
0.075731
0.0684526
0.0620854
0.0565559
0.05168
0.0474158
0.0436517
0.0403299
0.468286
0.390869
0.311976
0.259351
0.214816
0.183155
0.156703
0.136423
0.11933
0.105544
0.0937699
0.083949
0.0754555
0.0682056
0.0618624
0.0563525
0.051491
0.0472389
0.0434925
0.0402003
0.462193
0.387754
0.309507
0.257678
0.213469
0.182112
0.155836
0.135704
0.118714
0.105013
0.0933043
0.0835381
0.0750888
0.0678768
0.0615654
0.0560817
0.0512395
0.0470035
0.0432804
0.0400271
0.454618
0.38388
0.306434
0.255595
0.211792
0.180813
0.154754
0.134808
0.117946
0.104351
0.0927237
0.0830256
0.0746314
0.0674666
0.061195
0.0557439
0.0509259
0.0467099
0.0430155
0.0398104
0.445587
0.379259
0.302765
0.253109
0.209787
0.179261
0.153462
0.133736
0.117027
0.103559
0.092029
0.0824122
0.074084
0.0669756
0.0607516
0.0553396
0.0505507
0.0463587
0.0426981
0.0395498
0.435132
0.373908
0.298512
0.250226
0.207461
0.177459
0.151961
0.132491
0.115958
0.102639
0.0912212
0.081699
0.0734473
0.0664045
0.0602358
0.0548694
0.0501144
0.0459502
0.0423283
0.0392451
0.42329
0.367846
0.293687
0.246954
0.204819
0.175411
0.150254
0.131075
0.114743
0.101591
0.0903016
0.0808868
0.0727222
0.0657541
0.0596484
0.054334
0.0496178
0.0454852
0.0419066
0.0388962
0.410103
0.361091
0.288302
0.243302
0.201866
0.173123
0.148344
0.12949
0.113383
0.100418
0.0892716
0.079977
0.0719097
0.0650251
0.05899
0.0537341
0.0490616
0.0449644
0.0414331
0.0385027
0.395617
0.353667
0.282373
0.23928
0.198611
0.170598
0.146237
0.12774
0.111879
0.0991208
0.0881327
0.0789707
0.071011
0.0642187
0.0582616
0.0530706
0.0484468
0.0443885
0.0409083
0.0380645
0.379884
0.345599
0.275917
0.234899
0.195061
0.167842
0.143935
0.125828
0.110236
0.0977025
0.0868868
0.0778696
0.0700274
0.0633359
0.0574642
0.0523444
0.0477742
0.0437584
0.0403327
0.0375814
0.36296
0.336915
0.268952
0.230172
0.191224
0.164863
0.141444
0.123757
0.108455
0.096165
0.0855356
0.076675
0.0689601
0.0623778
0.0565987
0.0515565
0.047045
0.043075
0.0397068
0.0370532
0.344905
0.327644
0.261498
0.22511
0.18711
0.161665
0.138769
0.121531
0.10654
0.0945106
0.0840812
0.0753889
0.0678106
0.0613458
0.0556665
0.050708
0.0462602
0.0423395
0.0390311
0.0364799
0.325783
0.317816
0.253575
0.219728
0.182727
0.158257
0.135913
0.119154
0.104494
0.0927421
0.0825257
0.0740128
0.0665806
0.0602411
0.0546687
0.0498002
0.0454211
0.0415528
0.0383063
0.0358613
0.305663
0.307464
0.245206
0.21404
0.178087
0.154645
0.132885
0.116631
0.10232
0.090862
0.0808715
0.0725489
0.0652715
0.0590653
0.0536065
0.0488343
0.0445289
0.0407163
0.0375331
0.0351974
0.284619
0.296624
0.236414
0.208061
0.173199
0.150837
0.129688
0.113965
0.100022
0.0888734
0.0791209
0.0709991
0.0638853
0.0578198
0.0524815
0.0478117
0.0435851
0.0398311
0.0367124
0.0344883
0.262725
0.28533
0.227222
0.201808
0.168074
0.146841
0.126329
0.111162
0.0976038
0.0867792
0.0772765
0.0693655
0.0624236
0.0565062
0.051295
0.0467339
0.0425911
0.0388987
0.0358451
0.0337341
0.240062
0.27362
0.217657
0.195297
0.162725
0.142667
0.122815
0.108227
0.095069
0.0845827
0.0753409
0.0676504
0.0608884
0.0551262
0.0500486
0.0456024
0.0415486
0.0379206
0.0349322
0.032935
0.216713
0.261532
0.207744
0.188544
0.157164
0.138321
0.119152
0.105164
0.0924218
0.082287
0.0733168
0.065856
0.0592817
0.0536813
0.0487438
0.0444188
0.0404594
0.0368984
0.0339748
0.0320913
0.192764
0.249105
0.19751
0.181568
0.151401
0.133814
0.115347
0.101979
0.0896663
0.0798955
0.0712069
0.0639848
0.0576056
0.0521733
0.047382
0.043185
0.0393255
0.0358339
0.032974
0.0312034
0.168303
0.23638
0.186983
0.174387
0.145451
0.129155
0.111407
0.0986771
0.0868069
0.0774117
0.0690143
0.0620393
0.0558621
0.0506039
0.0459649
0.0419026
0.038149
0.034729
0.0319311
0.0302719
0.14342
0.223397
0.17619
0.167018
0.139325
0.124353
0.107339
0.0952638
0.0838479
0.0748392
0.0667417
0.0600218
0.0540535
0.048975
0.0444936
0.0405735
0.0369327
0.0335864
0.0308473
0.0292973
0.118209
0.210198
0.16516
0.159481
0.133037
0.119417
0.103149
0.0917446
0.0807938
0.0721815
0.0643923
0.057935
0.0521821
0.0472884
0.0429696
0.039199
0.0356796
0.032409
0.0297232
0.0282797
0.0927649
0.196822
0.153923
0.151795
0.126599
0.114357
0.0988463
0.0881252
0.0776491
0.0694423
0.061969
0.0557814
0.0502502
0.0455461
0.041394
0.0377802
0.0343928
0.0312018
0.0285607
0.0272191
0.0671831
0.183313
0.142506
0.143978
0.120025
0.109183
0.0944369
0.0844114
0.0744183
0.0666253
0.0594748
0.0535636
0.0482603
0.0437503
0.0397681
0.0363176
0.0330755
0.029971
0.0273604
0.0261117
0.0415612
0.16971
0.13094
0.136049
0.113327
0.103905
0.0899284
0.0806087
0.0711062