/*--------------------------------*- C++ -*----------------------------------*\
  =========                 |
  \\      /  F ield         | OpenFOAM: The Open Source CFD Toolbox
   \\    /   O peration     | Website:  https://openfoam.org
    \\  /    A nd           | Version:  7
     \\/     M anipulation  |
\*---------------------------------------------------------------------------*/
FoamFile
{
    version     2.0;
    format      ascii;
    class       volScalarField;
    location    "14";
    object      rho;
}
// * * * * * * * * * * * * * * * * * * * * * * * * * * * * * * * * * * * * * //

dimensions      [1 -3 0 0 0 0 0];

internalField   nonuniform List<scalar> 
2418
(
1.40001
1.40001
1.40001
1.40001
1.40001
1.40001
1.40001
1.40001
1.40001
1.40001
1.40001
1.40001
1.40001
1.40001
1.40001
1.40001
1.40001
1.40001
1.40001
1.40001
1.40001
1.40001
1.40001
1.40001
1.40001
1.40001
1.40001
1.40001
1.40001
1.40001
1.40001
1.40001
1.40001
1.40001
1.40001
1.40001
1.40001
1.40001
1.40001
1.40001
1.40001
1.40001
1.40001
1.40001
1.40001
1.40001
1.40001
1.40001
1.40001
1.40001
1.40001
1.40001
1.40001
1.40001
1.40001
1.40001
1.40001
1.40001
1.40001
1.40001
1.40001
1.40001
1.40001
1.40001
1.40001
1.40001
1.40001
1.40001
1.40001
1.40001
1.40001
1.40001
1.40001
1.40001
1.40001
1.40001
1.40001
1.40001
1.40001
1.40001
1.40001
1.40001
1.40001
1.40001
1.40001
1.40001
1.40001
1.40001
1.40001
1.40001
1.40001
1.40001
1.40001
1.40001
1.40001
1.40001
1.40001
1.40001
1.40001
1.40001
1.40001
1.40001
1.40001
1.40001
1.40001
1.40001
1.40001
1.40001
1.40001
1.40001
1.40001
1.40001
1.40001
1.40001
1.40001
1.40001
1.40001
1.40001
1.40001
1.40001
1.40001
1.40001
1.40001
1.40001
1.40001
1.40001
1.40001
1.40001
1.40001
1.40001
1.40001
1.40001
1.40001
1.40001
1.40001
1.40001
1.40001
1.40001
1.40001
1.40001
1.40001
1.40001
1.40001
1.40001
1.40001
1.40001
1.40001
1.40002
1.40014
1.40072
1.40315
1.41211
1.43151
1.47166
1.52871
1.58884
1.64784
1.67563
1.69214
1.70091
1.70532
1.70721
1.70649
1.70329
1.69857
1.69337
1.68829
1.68398
1.67978
1.67555
1.67204
1.6696
1.66686
1.66422
1.66197
1.65924
1.65622
1.65375
1.65116
1.64814
1.6461
1.64409
1.64145
1.63935
1.63751
1.63515
1.63242
1.62968
1.62672
1.62322
1.62038
1.61816
1.61572
1.61321
1.6111
1.60867
1.60535
1.60192
1.59864
1.595
1.59091
1.58814
1.58568
1.58283
1.57974
1.57686
1.57369
1.57011
1.56602
1.56191
1.55865
1.55549
1.552
1.54957
1.54727
1.54412
1.54052
1.53735
1.53413
1.53064
1.52651
1.52335
1.52099
1.51846
1.51566
1.51263
1.51016
1.50747
1.50419
1.50108
1.49794
1.49503
1.49295
1.49111
1.48902
1.48932
1.49138
1.49669
1.5064
1.5217
1.54282
1.57051
1.60293
1.63491
1.66901
1.70875
1.73467
1.74719
1.75834
1.77022
1.77484
1.77387
1.77042
1.7673
1.76292
1.75669
1.74882
1.74016
1.40001
1.40001
1.40001
1.40001
1.40001
1.40001
1.40001
1.40001
1.40001
1.40001
1.40001
1.40003
1.40021
1.40115
1.40431
1.41513
1.44049
1.48186
1.54392
1.60057
1.65061
1.6863
1.69688
1.70456
1.70789
1.70666
1.7049
1.70231
1.69762
1.69214
1.68707
1.68212
1.67819
1.67511
1.67225
1.66905
1.666
1.66298
1.6599
1.65745
1.6551
1.65236
1.65025
1.64824
1.64557
1.64307
1.64091
1.63821
1.63523
1.63261
1.62988
1.62669
1.62445
1.62261
1.62039
1.61817
1.61614
1.61371
1.61032
1.60664
1.60337
1.59996
1.59661
1.59448
1.59237
1.58958
1.58648
1.58365
1.58052
1.57647
1.57193
1.5687
1.5659
1.56301
1.55975
1.55728
1.55487
1.5517
1.54799
1.54447
1.54105
1.53764
1.53401
1.53109
1.52864
1.52591
1.52289
1.51982
1.51693
1.51416
1.51053
1.50803
1.50627
1.50461
1.50469
1.50674
1.51207
1.52188
1.53707
1.55742
1.5822
1.61109
1.64152
1.66792
1.69263
1.71973
1.74694
1.76282
1.77358
1.78139
1.78641
1.78792
1.78697
1.78385
1.78016
1.77559
1.7701
1.76395
1.75735
1.75031
1.40001
1.40001
1.40001
1.40001
1.40001
1.40001
1.40001
1.40001
1.40001
1.40001
1.40001
1.40001
1.40001
1.40005
1.40029
1.40157
1.4062
1.41831
1.44859
1.49442
1.55587
1.61366
1.65435
1.68561
1.70068
1.7064
1.70915
1.70905
1.70715
1.70284
1.69753
1.6919
1.68635
1.68138
1.67794
1.67454
1.67097
1.6678
1.66469
1.66183
1.6594
1.65666
1.65437
1.65223
1.64932
1.6465
1.64413
1.64139
1.63842
1.636
1.63361
1.63091
1.62909
1.62736
1.62503
1.62241
1.61987
1.61706
1.61356
1.61036
1.60784
1.60526
1.60261
1.60071
1.59868
1.59588
1.59255
1.58934
1.58604
1.58214
1.57826
1.57557
1.57315
1.5704
1.56739
1.56483
1.56224
1.55883
1.5548
1.55134
1.54807
1.54487
1.54141
1.53832
1.53592
1.53321
1.5303
1.52725
1.52433
1.52226
1.52025
1.52019
1.52193
1.52741
1.53875
1.55515
1.57612
1.60297
1.6309
1.65703
1.68293
1.70467
1.72237
1.73925
1.7541
1.76787
1.7806
1.79243
1.80223
1.80468
1.80357
1.79962
1.79371
1.78669
1.77963
1.77387
1.76871
1.76362
1.7581
1.7524
1.40001
1.40001
1.40001
1.40001
1.40001
1.40001
1.40001
1.40001
1.40001
1.40001
1.40001
1.40001
1.40001
1.40001
1.40001
1.40008
1.40044
1.40198
1.40821
1.42306
1.45486
1.50661
1.56392
1.6259
1.6603
1.68411
1.69885
1.70638
1.70903
1.70871
1.70604
1.70246
1.69789
1.69234
1.68713
1.6824
1.67731
1.67277
1.6697
1.66686
1.66435
1.6618
1.65921
1.65681
1.65382
1.65049
1.64774
1.64478
1.64146
1.63937
1.63737
1.63502
1.6334
1.63171
1.62937
1.62663
1.62377
1.62064
1.61693
1.61419
1.61237
1.61019
1.6078
1.60596
1.60392
1.60113
1.59772
1.59453
1.59137
1.58785
1.58445
1.58238
1.5802
1.57755
1.5746
1.57164
1.56871
1.56521
1.56145
1.55819
1.55511
1.55204
1.5489
1.54587
1.5434
1.54086
1.5383
1.53678
1.53642
1.53822
1.54373
1.5546
1.57222
1.59643
1.62222
1.64995
1.68174
1.70687
1.7212
1.7366
1.75283
1.75856
1.76291
1.76858
1.77265
1.77849
1.78693
1.79674
1.80724
1.80973
1.80883
1.80578
1.80054
1.79387
1.78618
1.77862
1.77154
1.76463
1.75811
1.75221
1.40001
1.40001
1.40001
1.40001
1.40001
1.40001
1.40001
1.40001
1.40001
1.40001
1.40001
1.40001
1.40001
1.40001
1.40001
1.40001
1.40002
1.40011
1.40064
1.40263
1.40965
1.42855
1.46113
1.51555
1.57333
1.62725
1.67318
1.68955
1.69891
1.70467
1.70653
1.70689
1.70596
1.70247
1.69713
1.69173
1.68626
1.68144
1.67757
1.67411
1.67061
1.66717
1.66354
1.66056
1.65785
1.65487
1.65232
1.64975
1.64684
1.64458
1.64247
1.63976
1.63743
1.63531
1.63243
1.62937
1.62678
1.62406
1.62094
1.61896
1.61744
1.6155
1.6132
1.61106
1.60869
1.60564
1.60198
1.59886
1.59619
1.5932
1.59061
1.58882
1.58678
1.58408
1.58105
1.57798
1.5749
1.57134
1.5674
1.56445
1.56184
1.55931
1.55676
1.55428
1.55284
1.55271
1.55424
1.55946
1.5709
1.58855
1.61184
1.64228
1.67316
1.69849
1.72549
1.75157
1.76284
1.77065
1.78026
1.78599
1.78898
1.79023
1.78928
1.78769
1.78616
1.78576
1.78923
1.79578
1.80403
1.80694
1.80664
1.80503
1.8015
1.79638
1.79015
1.78335
1.77635
1.76912
1.76214
1.75615
1.40001
1.40001
1.40001
1.40001
1.40001
1.40001
1.40001
1.40001
1.40001
1.40001
1.40001
1.40001
1.40001
1.40001
1.40001
1.40001
1.40001
1.40001
1.40003
1.40014
1.4008
1.40354
1.41122
1.43232
1.46933
1.52212
1.58286
1.63032
1.66907
1.69414
1.70279
1.70794
1.70953
1.7084
1.70551
1.70171
1.69683
1.69137
1.68618
1.68181
1.678
1.67425
1.6705
1.66665
1.66319
1.65987
1.6569
1.65426
1.6516
1.64943
1.64738
1.64486
1.64217
1.63958
1.63645
1.63301
1.63038
1.62804
1.62537
1.62356
1.62201
1.61982
1.61734
1.61514
1.61274
1.60983
1.60649
1.60382
1.60158
1.59912
1.59664
1.59458
1.59214
1.58919
1.58614
1.58317
1.58022
1.57716
1.5739
1.57165
1.56976
1.56802
1.56781
1.56958
1.57498
1.58568
1.60384
1.62957
1.65719
1.68857
1.72402
1.74674
1.763
1.78305
1.79708
1.79796
1.79742
1.79958
1.80094
1.79973
1.79782
1.79587
1.79369
1.79309
1.7931
1.79342
1.79601
1.80266
1.80706
1.8073
1.80617
1.80397
1.80047
1.79614
1.79127
1.78618
1.78075
1.77475
1.76883
1.76409
1.40001
1.40001
1.40001
1.40001
1.40001
1.40001
1.40001
1.40001
1.40001
1.40001
1.40001
1.40001
1.40001
1.40001
1.40001
1.40001
1.40001
1.40001
1.40001
1.40001
1.40003
1.40019
1.40095
1.40432
1.41355
1.43491
1.47593
1.52754
1.58991
1.63571
1.66855
1.69244
1.70386
1.7072
1.70905
1.70892
1.70716
1.70337
1.69844
1.69297
1.68725
1.68131
1.67665
1.67309
1.66985
1.6668
1.66365
1.66065
1.6578
1.6552
1.65246
1.64927
1.64623
1.64349
1.64057
1.63737
1.63506
1.633
1.63071
1.6288
1.62687
1.62449
1.62168
1.61905
1.61639
1.6133
1.61035
1.60835
1.60649
1.60415
1.60185
1.59972
1.59722
1.59425
1.59086
1.58794
1.58566
1.5835
1.5816
1.58171
1.58357
1.58877
1.59986
1.6172
1.64187
1.67371
1.7066
1.7356
1.76435
1.79204
1.80389
1.81225
1.82249
1.82998
1.83035
1.82798
1.8244
1.82051
1.81462
1.80781
1.80143
1.79565
1.79125
1.79034
1.79054
1.79189
1.79367
1.79753
1.80381
1.8066
1.80655
1.80524
1.80236
1.79824
1.7934
1.78872
1.78401
1.77954
1.77537
1.7726
1.40001
1.40001
1.40001
1.40001
1.40001
1.40001
1.40001
1.40001
1.40001
1.40001
1.40001
1.40001
1.40001
1.40001
1.40001
1.40001
1.40001
1.40001
1.40001
1.40001
1.40001
1.40001
1.40004
1.40025
1.40118
1.40474
1.41592
1.43796
1.47994
1.53449
1.59164
1.64524
1.67013
1.68824
1.69915
1.70576
1.70888
1.70859
1.70683
1.70358
1.69883
1.69332
1.68787
1.68259
1.67715
1.67306
1.67009
1.66733
1.66424
1.66115
1.65814
1.655
1.6518
1.64873
1.64564
1.64288
1.6406
1.63833
1.63557
1.63319
1.63098
1.62847
1.6259
1.62349
1.62091
1.61815
1.61558
1.61334
1.61105
1.60848
1.60567
1.60337
1.60097
1.59843
1.59629
1.59441
1.59397
1.59532
1.60021
1.61077
1.62725
1.65397
1.68397
1.71658
1.75516
1.78052
1.80161
1.82357
1.83347
1.8364
1.83771
1.84022
1.84138
1.83978
1.83687
1.83347
1.83106
1.82747
1.82286
1.81757
1.8112
1.80379
1.79685
1.79128
1.78906
1.7898
1.79077
1.79279
1.79818
1.80518
1.80811
1.8079
1.80641
1.80292
1.79802
1.79279
1.78802
1.78407
1.78141
1.7812
1.40001
1.40001
1.40001
1.40001
1.40001
1.40001
1.40001
1.40001
1.40001
1.40001
1.40001
1.40001
1.40001
1.40001
1.40001
1.40001
1.40001
1.40001
1.40001
1.40001
1.40001
1.40001
1.40001
1.40001
1.40005
1.40029
1.40147
1.40525
1.41713
1.44208
1.48245
1.53874
1.59173
1.64252
1.67929
1.69115
1.69972
1.70446
1.70578
1.7068
1.7059
1.7028
1.69825
1.69334
1.68833
1.68331
1.67858
1.67446
1.67099
1.66784
1.66435
1.66036
1.6571
1.65431
1.65173
1.64928
1.64677
1.64416
1.64141
1.63858
1.63583
1.63271
1.62976
1.62738
1.62503
1.62237
1.62021
1.61801
1.61562
1.61289
1.60983
1.60775
1.60614
1.60492
1.60583
1.6102
1.61936
1.63599
1.66204
1.69047
1.72787
1.76467
1.79131
1.82207
1.84046
1.8497
1.86058
1.8668
1.8673
1.86546
1.86287
1.85932
1.85361
1.84632
1.83893
1.83234
1.82782
1.82376
1.81936
1.81457
1.80928
1.80336
1.79754
1.79237
1.78962
1.78971
1.79026
1.79198
1.79652
1.80382
1.80914
1.81
1.8094
1.80725
1.8035
1.79872
1.79443
1.79061
1.7895
1.79055
1.40001
1.40001
1.40001
1.40001
1.40001
1.40001
1.40001
1.40001
1.40001
1.40001
1.40001
1.40001
1.40001
1.40001
1.40001
1.40001
1.40001
1.40001
1.40001
1.40001
1.40001
1.40001
1.40001
1.40001
1.40001
1.40001
1.40006
1.40032
1.40165
1.40602
1.41759
1.44462
1.48487
1.54156
1.59564
1.63855
1.6741
1.69522
1.7018
1.70658
1.70729
1.70633
1.70491
1.70261
1.69867
1.69336
1.68857
1.68398
1.67912
1.67493
1.67123
1.6677
1.66468
1.66155
1.65791
1.65505
1.6523
1.64936
1.64658
1.64387
1.64114
1.63835
1.63531
1.63248
1.62982
1.62668
1.62403
1.62172
1.61978
1.61813
1.61625
1.61647
1.61946
1.62719
1.64332
1.66621
1.69546
1.73595
1.76786
1.80053
1.83606
1.84905
1.86279
1.87457
1.87396
1.87471
1.87518
1.87447
1.87283
1.87038
1.86808
1.86458
1.85971
1.85383
1.84671
1.83812
1.82999
1.82329
1.81725
1.81162
1.80663
1.80183
1.79727
1.79336
1.79102
1.7904
1.79111
1.79308
1.797
1.80385
1.80974
1.81109
1.81133
1.81079
1.80886
1.80554
1.80226
1.79967
1.79983
1.80108
1.40001
1.40001
1.40001
1.40001
1.40001
1.40001
1.40001
1.40001
1.40001
1.40001
1.40001
1.40001
1.40001
1.40001
1.40001
1.40001
1.40001
1.40001
1.40001
1.40001
1.40001
1.40001
1.40001
1.40001
1.40001
1.40001
1.40001
1.40001
1.40007
1.40036
1.40169
1.4067
1.41848
1.44492
1.48789
1.53971
1.59772
1.63818
1.66946
1.69235
1.70164
1.70497
1.70761
1.70776
1.70653
1.70366
1.69959
1.69436
1.68863
1.68392
1.67936
1.67467
1.67166
1.66884
1.66565
1.66253
1.65924
1.65548
1.65205
1.64893
1.64559
1.64288
1.64034
1.63774
1.63529
1.63268
1.62975
1.62739
1.62766
1.62987
1.63623
1.64968
1.66939
1.69986
1.73672
1.77005
1.81074
1.84063
1.85969
1.88236
1.89269
1.89615
1.90007
1.89976
1.89674
1.89222
1.88622
1.8795
1.87301
1.86773
1.86332
1.85855
1.85306
1.8471
1.84097
1.83488
1.82878
1.82296
1.81749
1.81203
1.80701
1.80234
1.79755
1.79325
1.79108
1.79047
1.79054
1.79167
1.79433
1.79941
1.80532
1.80951
1.81193
1.8121
1.8115
1.80985
1.80802
1.80761
1.80929
1.81124
1.40001
1.40001
1.40001
1.40001
1.40001
1.40001
1.40001
1.40001
1.40001
1.40001
1.40001
1.40001
1.40001
1.40001
1.40001
1.40001
1.40001
1.40001
1.40001
1.40001
1.40001
1.40001
1.40001
1.40001
1.40001
1.40001
1.40001
1.40001
1.40001
1.40001
1.40007
1.40041
1.40175
1.4067
1.41962
1.44425
1.48769
1.53948
1.59642
1.641
1.66596
1.68563
1.69796
1.70459
1.70672
1.70702
1.70638
1.70382
1.69979
1.69537
1.69022
1.68497
1.68064
1.67629
1.6717
1.6683
1.6654
1.6623
1.65882
1.65535
1.65177
1.64846
1.64555
1.64268
1.64089
1.64052
1.64162
1.646
1.65633
1.67374
1.70324
1.735
1.77221
1.81606
1.84127
1.86881
1.89313
1.89761
1.90447
1.9083
1.90685
1.90643
1.90579
1.9037
1.89984
1.89504
1.89029
1.88374
1.87574
1.86801
1.86036
1.85335
1.84711
1.84154
1.83658
1.83234
1.82803
1.8234
1.81868
1.81365
1.80857
1.80394
1.79897
1.79418
1.79097
1.7894
1.7891
1.79016
1.79175
1.79553
1.80191
1.80997
1.81337
1.81357
1.81376
1.81371
1.81361
1.8152
1.81859
1.82237
1.40001
1.40001
1.40001
1.40001
1.40001
1.40001
1.40001
1.40001
1.40001
1.40001
1.40001
1.40001
1.40001
1.40001
1.40001
1.40001
1.40001
1.40001
1.40001
1.40001
1.40001
1.40001
1.40001
1.40001
1.40001
1.40001
1.40001
1.40001
1.40001
1.40001
1.40001
1.40001
1.40007
1.40042
1.40187
1.40645
1.41977
1.44433
1.4856
1.53768
1.58898
1.64155
1.66906
1.68376
1.69431
1.70033
1.70434
1.70482
1.70442
1.70342
1.70061
1.69643
1.69163
1.68638
1.68147
1.67687
1.67189
1.66717
1.66335
1.66005
1.65786
1.65606
1.65398
1.6539
1.65637
1.66371
1.67924
1.70524
1.73472
1.77565
1.81548
1.84547
1.88066
1.90132
1.91324
1.92702
1.93257
1.93086
1.92953
1.92617
1.91938
1.91196
1.905
1.89974
1.89405
1.88812
1.88218
1.87612
1.87016
1.86408
1.85751
1.85118
1.84531
1.83998
1.83505
1.83072
1.82652
1.82222
1.81795
1.81349
1.80867
1.80396
1.79911
1.79417
1.79001
1.78729
1.78642
1.78693
1.78795
1.79041
1.79576
1.80291
1.8097
1.81211
1.81411
1.81586
1.81823
1.82264
1.82757
1.8333
1.40001
1.40001
1.40001
1.40001
1.40001
1.40001
1.40001
1.40001
1.40001
1.40001
1.40001
1.40001
1.40001
1.40001
1.40001
1.40001
1.40001
1.40001
1.40001
1.40001
1.40001
1.40001
1.40001
1.40001
1.40001
1.40001
1.40001
1.40001
1.40001
1.40001
1.40001
1.40001
1.40001
1.40001
1.40007
1.4004
1.4019
1.40634
1.41848
1.44425
1.48203
1.53586
1.5852
1.6297
1.67052
1.68661
1.69358
1.69912
1.70127
1.7022
1.70305
1.70236
1.69986
1.69603
1.69142
1.68615
1.68068
1.67571
1.67179
1.66746
1.66637
1.66828
1.67412
1.6877
1.7093
1.73661
1.77751
1.81215
1.84739
1.88697
1.9037
1.92163
1.93619
1.93673
1.93902
1.93939
1.93867
1.93595
1.9329
1.92841
1.92185
1.91424
1.90589
1.89725
1.88913
1.88178
1.87524
1.8697
1.86484
1.85987
1.85493
1.85007
1.84519
1.84037
1.83547
1.83055
1.82588
1.82124
1.81674
1.81239
1.80778
1.80332
1.7992
1.79465
1.79005
1.78585
1.78391
1.7842
1.78479
1.78603
1.79007
1.79669
1.80506
1.81168
1.81574
1.81931
1.82447
1.83096
1.83798
1.84281
1.40001
1.40001
1.40001
1.40001
1.40001
1.40001
1.40001
1.40001
1.40001
1.40001
1.40001
1.40001
1.40001
1.40001
1.40001
1.40001
1.40001
1.40001
1.40001
1.40001
1.40001
1.40001
1.40001
1.40001
1.40001
1.40001
1.40001
1.40001
1.40001
1.40001
1.40001
1.40001
1.40001
1.40001
1.40001
1.40001
1.40007
1.40037
1.40173
1.40634
1.41711
1.44178
1.47948
1.52889
1.58308
1.62381
1.65829
1.68544
1.69508
1.69893
1.70216
1.70186
1.70083
1.69945
1.69742
1.69418
1.69004
1.68701
1.68619
1.68863
1.69786
1.71351
1.73883
1.77593
1.80963
1.85111
1.88921
1.91147
1.93814
1.95427
1.95878
1.96538
1.96601
1.96279
1.95674
1.94879
1.94017
1.93234
1.92608
1.91975
1.91298
1.90655
1.89998
1.8929
1.88587
1.87911
1.87266
1.8671
1.86204
1.85705
1.8525
1.848
1.84327
1.83846
1.83366
1.82872
1.82399
1.81933
1.81468
1.81035
1.80592
1.80134
1.79709
1.79259
1.78766
1.78265
1.78003
1.78012
1.78024
1.78115
1.78439
1.79012
1.79812
1.80682
1.81407
1.8218
1.83044
1.83908
1.84583
1.84726
1.40001
1.40001
1.40001
1.40001
1.40001
1.40001
1.40001
1.40001
1.40001
1.40001
1.40001
1.40001
1.40001
1.40001
1.40001
1.40001
1.40001
1.40001
1.40001
1.40001
1.40001
1.40001
1.40001
1.40001
1.40001
1.40001
1.40001
1.40001
1.40001
1.40001
1.40001
1.40001
1.40001
1.40001
1.40001
1.40001
1.40001
1.40001
1.40007
1.40036
1.4015
1.4058
1.41631
1.43772
1.47598
1.52176
1.57622
1.62034
1.65145
1.67612
1.69262
1.69734
1.69991
1.69921
1.69845
1.69891
1.70131
1.70883
1.7228
1.7476
1.77748
1.80976
1.85469
1.8852
1.91317
1.94637
1.95524
1.96454
1.97441
1.97506
1.9744
1.97396
1.97195
1.96679
1.96009
1.95234
1.94234
1.9318
1.9223
1.91392
1.90664
1.90018
1.89401
1.88831
1.88311
1.87836
1.87352
1.86829
1.86271
1.85694
1.85133
1.84603
1.84103
1.83649
1.83227
1.82788
1.82339
1.81876
1.81374
1.80884
1.80412
1.79931
1.79494
1.79077
1.78592
1.78081
1.77681
1.77637
1.7765
1.777
1.77948
1.78433
1.79166
1.80141
1.81268
1.825
1.83711
1.84824
1.85114
1.85109
1.40001
1.40001
1.40001
1.40001
1.40001
1.40001
1.40001
1.40001
1.40001
1.40001
1.40001
1.40001
1.40001
1.40001
1.40001
1.40001
1.40001
1.40001
1.40001
1.40001
1.40001
1.40001
1.40001
1.40001
1.40001
1.40001
1.40001
1.40001
1.40001
1.40001
1.40001
1.40001
1.40001
1.40001
1.40001
1.40001
1.40001
1.40001
1.40001
1.40001
1.40006
1.40032
1.40137
1.4049
1.41512
1.43451
1.46895
1.51619
1.56552
1.61414
1.64602
1.66593
1.6815
1.69337
1.70624
1.72405
1.74983
1.77934
1.81566
1.85431
1.88532
1.92164
1.95487
1.97046
1.98609
1.99816
1.9981
1.99897
1.99744
1.99206
1.98492
1.9751
1.96633
1.9584
1.95115
1.94427
1.9369
1.92911
1.9206
1.91238
1.90501
1.89837
1.89248
1.88728
1.88231
1.87741
1.87235
1.86713
1.86184
1.85644
1.85106
1.8458
1.84075
1.83599
1.83133
1.82669
1.82206
1.81743
1.81268
1.80792
1.80333
1.79876
1.79424
1.78993
1.78537
1.7799
1.77484
1.77333
1.77328
1.77359
1.77546
1.77945
1.78595
1.79573
1.80953
1.82606
1.84274
1.85256
1.85377
1.85328
1.40001
1.40001
1.40001
1.40001
1.40001
1.40001
1.40001
1.40001
1.40001
1.40001
1.40001
1.40001
1.40001
1.40001
1.40001
1.40001
1.40001
1.40001
1.40001
1.40001
1.40001
1.40001
1.40001
1.40001
1.40001
1.40001
1.40001
1.40001
1.40001
1.40001
1.40001
1.40001
1.40001
1.40001
1.40001
1.40001
1.40001
1.40001
1.40001
1.40001
1.40001
1.40001
1.40005
1.40025
1.4012
1.40424
1.41291
1.43148
1.46251
1.50618
1.5557
1.61008
1.65133
1.69052
1.734
1.78459
1.83392
1.87887
1.92853
1.95141
1.96641
1.99139
2.00106
2.00646
2.01328
2.01674
2.01462
2.0094
2.0014
1.99067
1.9797
1.96995
1.96051
1.95177
1.94436
1.93783
1.93161
1.9258
1.91977
1.91369
1.90778
1.90209
1.89654
1.89073
1.88463
1.87873
1.873
1.86747
1.86228
1.85745
1.85283
1.84789
1.8428
1.83762
1.83225
1.82717
1.82227
1.81751
1.81325
1.80897
1.80457
1.80026
1.79569
1.7912
1.7868
1.7811
1.77469
1.77201
1.77162
1.772
1.77364
1.77697
1.78283
1.7927
1.80766
1.82698
1.84731
1.85587
1.85601
1.85506
1.40001
1.40001
1.40001
1.40001
1.40001
1.40001
1.40001
1.40001
1.40001
1.40001
1.40001
1.40001
1.40001
1.40001
1.40001
1.40001
1.40001
1.40001
1.40001
1.40001
1.40001
1.40001
1.40001
1.40001
1.40001
1.40001
1.40001
1.40001
1.40001
1.40001
1.40001
1.40001
1.40001
1.40001
1.40001
1.40001
1.40001
1.40001
1.40001
1.40001
1.40001
1.40001
1.40001
1.40001
1.40004
1.40022
1.40108
1.40402
1.41226
1.43222
1.46741
1.52324
1.60033
1.68736
1.77237
1.84755
1.90819
1.95875
2.00106
2.03413
2.05771
2.07295
2.06982
2.05956
2.04882
2.03711
2.02463
2.01076
1.99844
1.98724
1.97653
1.96678
1.95746
1.94867
1.94079
1.93354
1.92717
1.92152
1.91625
1.91104
1.90568
1.90006
1.89434
1.88855
1.88252
1.87643
1.8704
1.86441
1.85874
1.85357
1.84863
1.84391
1.8392
1.8342
1.8292
1.82404
1.81874
1.81376
1.80908
1.80446
1.80004
1.79571
1.79133
1.78696
1.78251
1.77715
1.7709
1.76773
1.76742
1.76786
1.7693
1.77233
1.7782
1.78846
1.80405
1.8253
1.84764
1.85552
1.85562
1.85485
)
;

boundaryField
{
    inlet
    {
        type            calculated;
        value           nonuniform 0();
    }
    outlet
    {
        type            calculated;
        value           nonuniform 0();
    }
    bottom
    {
        type            symmetryPlane;
    }
    top
    {
        type            symmetryPlane;
    }
    obstacle
    {
        type            calculated;
        value           nonuniform 0();
    }
    front
    {
        type            empty;
    }
    back
    {
        type            empty;
    }
    procBoundary53to45
    {
        type            processor;
        value           nonuniform List<scalar> 
129
(
1.40001
1.40001
1.40001
1.40001
1.40001
1.40001
1.40001
1.40001
1.40001
1.40002
1.40009
1.40046
1.40239
1.40857
1.42455
1.46105
1.51256
1.57861
1.63335
1.66843
1.69133
1.70342
1.70798
1.70816
1.70702
1.70399
1.69956
1.69431
1.68936
1.68473
1.68057
1.67683
1.67328
1.67014
1.66774
1.66551
1.66274
1.66049
1.65824
1.65529
1.65261
1.65042
1.64798
1.64527
1.64309
1.64088
1.63811
1.63578
1.63381
1.63139
1.6286
1.62598
1.62317
1.61979
1.61652
1.61362
1.61061
1.60753
1.60525
1.60291
1.59977
1.59652
1.59334
1.58953
1.58531
1.58173
1.57859
1.57557
1.57247
1.56961
1.56675
1.56343
1.55909
1.55504
1.55168
1.54818
1.54406
1.54153
1.53923
1.53629
1.5331
1.53005
1.52695
1.52363
1.51963
1.51611
1.51356
1.51093
1.50799
1.50553
1.50334
1.50065
1.49759
1.49461
1.49165
1.48855
1.48556
1.48257
1.47997
1.47771
1.47604
1.47631
1.47742
1.48042
1.48675
1.49756
1.51493
1.5409
1.57263
1.60719
1.64459
1.67675
1.69568
1.71318
1.73221
1.73906
1.73929
1.73947
1.74071
1.7411
1.73824
1.73319
1.40001
1.40001
1.40001
1.40001
1.40001
1.40001
1.40001
)
;
    }
    procBoundary53to46
    {
        type            processor;
        value           uniform 1.7321;
    }
    procBoundary53to52
    {
        type            processor;
        value           nonuniform List<scalar> 
18
(
1.40001
1.40001
1.40001
1.40001
1.40001
1.40001
1.40001
1.40001
1.40001
1.40001
1.40001
1.40001
1.40001
1.40001
1.40001
1.40001
1.40001
1.40001
)
;
    }
    procBoundary53to54
    {
        type            processor;
        value           nonuniform List<scalar> 
18
(
1.74224
1.74584
1.74684
1.75159
1.76147
1.77243
1.78234
1.79151
1.80211
1.81435
1.82796
1.83697
1.84342
1.84706
1.85035
1.85168
1.85283
1.85268
)
;
    }
}


// ************************************************************************* //
