/*--------------------------------*- C++ -*----------------------------------*\
  =========                 |
  \\      /  F ield         | OpenFOAM: The Open Source CFD Toolbox
   \\    /   O peration     | Website:  https://openfoam.org
    \\  /    A nd           | Version:  7
     \\/     M anipulation  |
\*---------------------------------------------------------------------------*/
FoamFile
{
    version     2.0;
    format      ascii;
    class       volVectorField;
    location    "102";
    object      U;
}
// * * * * * * * * * * * * * * * * * * * * * * * * * * * * * * * * * * * * * //

dimensions      [0 1 -1 0 0 0 0];

internalField   nonuniform List<vector> 
34000
(
(-0.0998035 -0.244085 1.08501e-19)
(-0.0954759 0.109068 1.46221e-19)
(0.00910932 0.55053 -4.54534e-20)
(0.0126279 0.713909 1.81132e-20)
(-0.00546994 0.746062 -7.99551e-20)
(0.115644 0.464592 -2.05084e-20)
(0.377739 0.015879 -8.9528e-21)
(0.56809 -0.334146 -9.68351e-20)
(0.658396 -0.534978 6.98523e-20)
(0.703986 -0.609079 9.07033e-21)
(0.685603 -0.625319 -1.96117e-20)
(0.606173 -0.653648 1.21557e-20)
(0.553875 -0.525636 -1.5704e-20)
(0.618793 -0.188197 3.87577e-21)
(0.71067 0.145047 -1.39373e-20)
(0.813937 0.35402 1.66776e-20)
(0.834139 0.464506 -9.41089e-21)
(0.785936 0.559519 2.10421e-20)
(0.757679 0.545303 1.81231e-20)
(0.766702 0.34472 1.01025e-20)
(-0.0970158 -0.238375 7.87862e-21)
(-0.103518 0.103845 -2.41202e-19)
(-0.00912822 0.545064 -3.33864e-20)
(-0.00823666 0.71369 -6.06927e-20)
(-0.0182057 0.738159 2.02026e-19)
(0.136231 0.435484 2.07808e-20)
(0.412141 -0.0176691 -6.21988e-20)
(0.602925 -0.35666 1.44397e-19)
(0.690223 -0.545816 -7.12865e-20)
(0.723658 -0.610884 6.45983e-20)
(0.705428 -0.614571 5.58153e-20)
(0.626648 -0.638485 1.09574e-20)
(0.564713 -0.526214 2.62962e-20)
(0.6076 -0.20704 -1.87868e-20)
(0.696997 0.118634 3.49934e-20)
(0.797702 0.336549 8.55171e-21)
(0.815549 0.467678 2.37162e-20)
(0.772162 0.569057 -6.78963e-20)
(0.739246 0.547413 -7.43236e-21)
(0.754688 0.335934 -1.43813e-20)
(-0.0943814 -0.232383 -2.29534e-19)
(-0.110316 0.0987201 2.86715e-19)
(-0.0257573 0.539244 4.31357e-19)
(-0.0269727 0.712568 -3.76222e-19)
(-0.0262099 0.727733 -1.21238e-19)
(0.161818 0.40482 1.26012e-19)
(0.450214 -0.0500795 3.46346e-20)
(0.639088 -0.377336 3.37936e-22)
(0.723229 -0.554103 1.03107e-19)
(0.743782 -0.611053 -1.3396e-20)
(0.725568 -0.603479 -5.39193e-20)
(0.647391 -0.622129 -6.69933e-20)
(0.578419 -0.524129 2.86899e-20)
(0.603501 -0.2247 3.91406e-20)
(0.688546 0.0917425 2.07197e-20)
(0.783416 0.319097 -9.11072e-20)
(0.798899 0.46937 -1.09005e-20)
(0.759434 0.578154 1.15189e-20)
(0.720498 0.549506 -1.54689e-20)
(0.747812 0.325594 -1.60452e-20)
(-0.0919087 -0.226144 -3.73761e-19)
(-0.115904 0.0936901 -3.50446e-19)
(-0.0407113 0.533111 -4.5259e-21)
(-0.0434594 0.710412 1.31813e-19)
(-0.0292885 0.714882 3.42381e-19)
(0.192388 0.372982 -3.55947e-19)
(0.491655 -0.0809939 2.21295e-19)
(0.676607 -0.395967 9.656e-20)
(0.75668 -0.559845 -1.18344e-19)
(0.76461 -0.60952 -3.55816e-20)
(0.745521 -0.59212 2.32018e-20)
(0.668513 -0.604719 7.70291e-20)
(0.593333 -0.519895 -8.93607e-20)
(0.605083 -0.241095 -9.77808e-20)
(0.684475 0.0651526 -6.97053e-21)
(0.771326 0.30191 3.28091e-20)
(0.784658 0.469704 -9.56028e-22)
(0.746956 0.587162 2.43807e-20)
(0.703349 0.550951 -5.31908e-20)
(0.750185 0.313592 1.41534e-20)
(-0.0896045 -0.219707 8.10739e-20)
(-0.120312 0.0887425 7.26502e-19)
(-0.0539378 0.526728 -6.58838e-19)
(-0.0575934 0.707073 3.59865e-19)
(-0.0273655 0.699713 -3.93481e-19)
(0.227827 0.340359 5.45632e-19)
(0.53596 -0.110111 -2.27129e-19)
(0.71543 -0.412323 -2.21764e-19)
(0.789895 -0.563112 -5.75448e-20)
(0.786413 -0.606198 5.61132e-20)
(0.764687 -0.580599 1.12671e-20)
(0.690183 -0.586289 -2.86602e-20)
(0.608098 -0.513927 9.09283e-20)
(0.610889 -0.256327 1.30048e-19)
(0.68425 0.0393529 -1.37845e-22)
(0.76171 0.285116 1.51209e-19)
(0.772784 0.468973 6.07199e-20)
(0.733947 0.596064 4.91105e-21)
(0.690752 0.550605 1.50843e-20)
(0.764624 0.299911 -1.08614e-20)
(-0.087477 -0.213116 5.10898e-19)
(-0.123572 0.0838636 -5.30753e-20)
(-0.0653955 0.520103 -1.86337e-20)
(-0.0692921 0.702493 -4.80503e-19)
(-0.0204554 0.682344 -6.92973e-20)
(0.26791 0.307346 -6.38428e-19)
(0.582534 -0.137187 1.95323e-20)
(0.755348 -0.426186 4.1439e-19)
(0.82236 -0.564035 2.86137e-19)
(0.809322 -0.600984 -1.89853e-19)
(0.782566 -0.569026 -3.21472e-20)
(0.712428 -0.566846 6.29688e-20)
(0.621994 -0.506506 8.3188e-20)
(0.619782 -0.270716 -1.18587e-20)
(0.68751 0.014585 9.17347e-20)
(0.754713 0.268859 -6.23365e-20)
(0.762485 0.467528 1.1425e-20)
(0.720052 0.604325 -3.19133e-20)
(0.685611 0.547081 1.28597e-19)
(0.791134 0.284714 -6.12555e-20)
(-0.0855347 -0.206413 -4.38196e-19)
(-0.125722 0.0790344 -9.16408e-19)
(-0.0750435 0.513189 1.29681e-18)
(-0.07849 0.696681 7.20545e-19)
(-0.00861545 0.662899 1.47173e-19)
(0.312314 0.27433 4.99569e-19)
(0.630794 -0.162025 3.65791e-19)
(0.795981 -0.43738 -3.67028e-19)
(0.853783 -0.562771 -5.54649e-20)
(0.8332 -0.593792 5.05173e-20)
(0.798941 -0.557479 3.21871e-20)
(0.734943 -0.546476 -6.51997e-20)
(0.635173 -0.497747 -6.84588e-20)
(0.630807 -0.28463 -9.00411e-20)
(0.693535 -0.00914943 -1.4247e-19)
(0.749996 0.253363 -3.13822e-20)
(0.752272 0.46561 -1.42265e-20)
(0.705612 0.610918 -1.9645e-20)
(0.689279 0.539128 -3.35761e-20)
(0.826527 0.268363 1.66382e-20)
(-0.0837873 -0.199642 -3.33616e-19)
(-0.126805 0.0742321 -5.98911e-19)
(-0.0828545 0.506004 -1.85785e-18)
(-0.0851241 0.689604 5.23455e-19)
(0.00811426 0.641521 7.21199e-19)
(0.360632 0.241692 -4.32971e-19)
(0.680209 -0.184453 1.14e-19)
(0.836831 -0.445798 -5.39466e-20)
(0.884077 -0.55947 -2.10864e-20)
(0.857606 -0.584601 -2.60104e-19)
(0.813989 -0.545944 -1.54121e-19)
(0.75703 -0.525446 1.98773e-20)
(0.648601 -0.487543 2.92754e-21)
(0.642772 -0.298327 1.54519e-19)
(0.700618 -0.0320547 1.14214e-19)
(0.746443 0.238849 4.0465e-20)
(0.740407 0.463173 -4.80016e-20)
(0.691516 0.614555 1.63065e-19)
(0.700792 0.525861 -4.57068e-20)
(0.86606 0.250742 1.56978e-19)
(-0.0822453 -0.192843 9.07942e-19)
(-0.12687 0.0694298 2.23024e-18)
(-0.088825 0.498606 1.82033e-18)
(-0.0891365 0.681215 -3.12806e-19)
(0.0297643 0.618384 -1.48339e-18)
(0.412384 0.209791 3.84973e-19)
(0.7303 -0.204323 -3.93428e-19)
(0.877348 -0.45141 -6.53153e-19)
(0.91328 -0.554248 3.86523e-19)
(0.881876 -0.573498 3.23249e-19)
(0.828236 -0.534275 4.16604e-20)
(0.777735 -0.504237 -8.83374e-20)
(0.663642 -0.475572 -1.45871e-21)
(0.654065 -0.311727 -6.41468e-20)
(0.705968 -0.0544873 -1.71149e-19)
(0.742178 0.225316 -7.77416e-20)
(0.725589 0.459842 -5.98324e-20)
(0.678577 0.614034 -3.96251e-20)
(0.717468 0.506924 -2.75995e-20)
(0.905504 0.231777 5.54955e-20)
(-0.0809205 -0.186057 -7.59864e-19)
(-0.125972 0.0645951 -7.44555e-19)
(-0.0929643 0.491002 -1.01847e-18)
(-0.0904806 0.671487 1.72372e-19)
(0.0564498 0.593719 5.11686e-19)
(0.46702 0.178963 4.86582e-19)
(0.780599 -0.221507 1.80789e-19)
(0.917013 -0.454256 9.49217e-20)
(0.941454 -0.547185 -9.44785e-19)
(0.905302 -0.560687 5.76006e-20)
(0.842365 -0.522203 1.27616e-19)
(0.796146 -0.483476 2.89092e-20)
(0.681343 -0.461394 -1.77447e-19)
(0.662992 -0.324253 1.0941e-20)
(0.706492 -0.0769587 -1.09859e-20)
(0.735068 0.212304 1.27109e-19)
(0.707379 0.455028 3.33805e-20)
(0.66691 0.608483 -5.47593e-20)
(0.737164 0.482688 -7.62435e-20)
(0.943157 0.211859 -2.51866e-19)
(-0.0798261 -0.179321 1.47441e-18)
(-0.12418 0.0596897 -5.15459e-19)
(-0.0952994 0.483178 3.45405e-19)
(-0.0891248 0.660403 -6.4181e-19)
(0.0883404 0.567812 -7.00044e-19)
(0.523924 0.149519 -3.34346e-19)
(0.830629 -0.235912 5.50283e-19)
(0.955381 -0.454434 5.45553e-19)
(0.968593 -0.538333 5.74401e-20)
(0.927312 -0.54646 -3.92135e-19)
(0.856958 -0.509402 -7.90035e-20)
(0.811704 -0.463769 -1.30619e-20)
(0.701781 -0.444672 7.43379e-20)
(0.6686 -0.334785 -4.15794e-20)
(0.700027 -0.0999236 -3.65841e-20)
(0.723263 0.198873 -1.88729e-19)
(0.685886 0.448053 9.80227e-20)
(0.656195 0.597329 1.28857e-20)
(0.760116 0.454099 6.75051e-20)
(0.979549 0.191477 7.13208e-20)
(-0.0789766 -0.172672 -3.07456e-19)
(-0.121581 0.0546687 -8.37366e-19)
(-0.0958783 0.475105 1.33437e-19)
(-0.0850555 0.647945 6.22134e-19)
(0.125588 0.540995 8.82415e-19)
(0.582428 0.12175 -3.63477e-19)
(0.879895 -0.24749 -1.54428e-18)
(0.992098 -0.45208 -1.16383e-19)
(0.994587 -0.527754 3.82707e-19)
(0.947598 -0.531139 1.706e-19)
(0.872272 -0.495583 2.04673e-19)
(0.824418 -0.445501 1.09272e-19)
(0.723858 -0.425431 -1.40049e-19)
(0.671484 -0.341778 -5.49343e-20)
(0.686121 -0.123405 9.38594e-20)
(0.705336 0.183838 2.23833e-19)
(0.661005 0.438073 -1.31601e-19)
(0.646871 0.580029 -2.45921e-20)
(0.788515 0.422237 -2.7508e-20)
(1.01572 0.171501 -3.65082e-21)
(-0.0783885 -0.16614 -8.82057e-19)
(-0.118274 0.0494801 1.00788e-18)
(-0.0947773 0.466753 -1.60989e-19)
(-0.0782784 0.634069 -9.3164e-19)
(0.168232 0.513624 1.29657e-18)
(0.641825 0.0959216 3.5972e-19)
(0.927903 -0.256247 3.032e-19)
(1.02689 -0.447356 6.29315e-19)
(1.01924 -0.51554 2.66527e-20)
(0.96613 -0.515013 8.83034e-20)
(0.88815 -0.480603 -7.91468e-20)
(0.834882 -0.428694 -6.18435e-21)
(0.745713 -0.40422 1.12359e-19)
(0.673829 -0.34349 1.41806e-19)
(0.665998 -0.146561 3.38704e-20)
(0.680123 0.166214 -1.81913e-19)
(0.632215 0.423842 1.11978e-19)
(0.640895 0.555789 8.75681e-20)
(0.823929 0.38796 2.9787e-20)
(1.05136 0.152984 1.42416e-19)
(-0.0780799 -0.159756 -4.48201e-19)
(-0.114379 0.0440643 -1.17499e-18)
(-0.0921036 0.458084 -4.63242e-20)
(-0.0688132 0.618714 6.7071e-19)
(0.216108 0.486041 1.49691e-18)
(0.701394 0.0722676 -1.58303e-19)
(0.97418 -0.262238 3.71172e-21)
(1.05954 -0.440443 -4.07381e-19)
(1.04234 -0.50183 2.96472e-19)
(0.983086 -0.498296 2.24188e-19)
(0.904102 -0.464512 -5.77534e-20)
(0.844085 -0.413005 1.9191e-19)
(0.765505 -0.382042 1.7196e-19)
(0.678394 -0.338376 -1.09803e-19)
(0.642212 -0.167423 -1.67119e-19)
(0.64706 0.145429 1.71041e-19)
(0.599578 0.403724 -9.78372e-20)
(0.641288 0.523674 -1.23417e-20)
(0.865543 0.351773 1.9672e-20)
(1.08455 0.136608 -7.30517e-20)
(-0.078071 -0.153543 2.6899e-18)
(-0.110033 0.0383542 1.31896e-18)
(-0.0879967 0.449052 9.62157e-20)
(-0.0566785 0.601817 -4.39455e-19)
(0.2688 0.458548 -6.46344e-19)
(0.760419 0.050972 -5.25549e-19)
(1.0183 -0.265565 -2.46517e-19)
(1.08987 -0.431534 -1.72094e-19)
(1.06369 -0.486809 -6.92553e-19)
(0.998719 -0.481117 -7.98062e-20)
(0.919512 -0.447546 6.9636e-20)
(0.853103 -0.397862 -3.06049e-19)
(0.782112 -0.36006 -3.82879e-21)
(0.687089 -0.325671 1.98899e-20)
(0.618576 -0.182996 -1.14597e-19)
(0.607351 0.121828 -6.97676e-20)
(0.565814 0.376333 2.98298e-20)
(0.651649 0.483413 -1.79079e-20)
(0.910836 0.314406 -7.50252e-20)
(1.11289 0.122557 1.24547e-20)
(-0.0783839 -0.147519 -2.61792e-18)
(-0.105392 0.0322744 -1.93824e-18)
(-0.0826288 0.439589 -4.90638e-19)
(-0.0418617 0.583335 3.73691e-19)
(0.325646 0.431378 5.02895e-19)
(0.818211 0.0321593 -9.68703e-19)
(1.05988 -0.266372 4.4421e-20)
(1.11776 -0.420835 2.57091e-19)
(1.08316 -0.470685 3.14452e-19)
(1.01324 -0.463549 1.154e-19)
(0.933885 -0.430049 1.87784e-19)
(0.862751 -0.382678 5.46043e-20)
(0.795426 -0.339243 -1.02894e-19)
(0.700175 -0.305935 -4.61317e-20)
(0.60038 -0.1899 -3.32534e-20)
(0.565687 0.0972403 -8.59206e-20)
(0.53829 0.341647 -1.46238e-20)
(0.676205 0.436415 1.79975e-21)
(0.957167 0.277467 6.62846e-20)
(1.13452 0.110863 8.71919e-20)
(-0.0790429 -0.141698 1.01232e-18)
(-0.100624 0.025741 1.75105e-18)
(-0.076204 0.429604 -3.53345e-19)
(-0.0242786 0.563278 4.86798e-19)
(0.385793 0.4047 -2.94573e-19)
(0.874134 0.0158848 1.46213e-18)
(1.09862 -0.264836 4.91906e-19)
(1.14308 -0.408565 7.22194e-19)
(1.10072 -0.453675 -1.49632e-19)
(1.02673 -0.445646 9.6736e-20)
(0.947002 -0.412363 -6.22355e-20)
(0.873351 -0.367054 1.67074e-19)
(0.806274 -0.320096 -3.94909e-20)
(0.716475 -0.281217 -1.43762e-20)
(0.593591 -0.18549 5.40527e-20)
(0.531854 0.0748348 6.27506e-20)
(0.529178 0.30194 -1.41923e-20)
(0.718309 0.386029 -7.89723e-21)
(1.00191 0.242922 -2.62052e-21)
(1.1482 0.101502 -1.35457e-20)
(-0.0800745 -0.136085 -9.28878e-19)
(-0.095906 0.0186602 -1.62255e-18)
(-0.0689595 0.41897 -3.54515e-19)
(-0.00372696 0.541738 -4.1873e-19)
(0.448288 0.378627 7.73853e-20)
(0.927622 0.002135 9.21271e-20)
(1.13428 -0.261161 2.33371e-19)
(1.16579 -0.394955 4.61783e-20)
(1.1164 -0.435984 4.98899e-19)
(1.0392 -0.427486 2.01533e-20)
(0.958937 -0.394741 6.65336e-20)
(0.884694 -0.3509 -1.12325e-19)
(0.81607 -0.302558 6.45443e-20)
(0.734202 -0.254615 2.85073e-20)
(0.6026 -0.169521 -2.66555e-20)
(0.519585 0.0587914 -4.00217e-20)
(0.5511 0.261921 1.91914e-21)
(0.776693 0.336762 -1.73993e-20)
(1.04146 0.212611 4.30625e-20)
(1.15331 0.0943183 -9.34457e-20)
(-0.0815067 -0.130678 -9.83202e-19)
(-0.0914157 0.0109323 2.96994e-19)
(-0.0611676 0.407525 1.2632e-19)
(0.0201471 0.518913 -4.52146e-19)
(0.512167 0.353253 1.20122e-18)
(0.978199 -0.00916603 -1.58706e-18)
(1.16667 -0.255572 -1.8594e-18)
(1.18586 -0.380236 -2.17287e-18)
(1.13025 -0.4178 -4.26998e-19)
(1.0506 -0.409176 -5.15671e-19)
(0.969933 -0.377307 -3.22467e-19)
(0.896251 -0.334432 -1.25632e-19)
(0.826254 -0.286108 9.29732e-20)
(0.751792 -0.22933 -1.04071e-20)
(0.627625 -0.145473 -1.48649e-20)
(0.540315 0.052092 -1.48419e-20)
(0.60796 0.227203 -4.09455e-20)
(0.843169 0.292697 8.36353e-21)
(1.07126 0.187544 -1.37576e-20)
(1.14994 0.0888269 3.72616e-20)
(-0.0833694 -0.125469 2.01492e-18)
(-0.087334 0.00250203 1.29031e-18)
(-0.0531177 0.395005 6.96679e-19)
(0.0478536 0.495123 -7.06502e-20)
(0.576518 0.328676 -1.29728e-18)
(1.02549 -0.0181435 3.14529e-19)
(1.19568 -0.248307 8.16087e-19)
(1.20333 -0.36464 2.25169e-18)
(1.14235 -0.399296 3.05747e-19)
(1.06091 -0.390843 5.51288e-20)
(0.980225 -0.360097 2.18814e-19)
(0.907528 -0.318025 1.56499e-19)
(0.837678 -0.270138 -1.45229e-19)
(0.768591 -0.207465 3.55167e-20)
(0.663623 -0.11963 6.24233e-21)
(0.593518 0.0537129 1.5796e-20)
(0.68818 0.200729 6.26835e-20)
(0.904625 0.255696 -1.13014e-20)
(1.08762 0.167184 -7.85663e-21)
(1.13909 0.0841775 -2.24781e-20)
(-0.0856899 -0.120441 -2.68666e-19)
(-0.0838238 -0.00667653 6.87577e-19)
(-0.0451221 0.381055 -1.39454e-19)
(0.0800206 0.470798 -3.12282e-19)
(0.640517 0.305021 1.77375e-19)
(1.0692 -0.0249579 8.15596e-19)
(1.22128 -0.239609 -7.32333e-19)
(1.21827 -0.348387 -8.0543e-19)
(1.15278 -0.380628 -4.11955e-19)
(1.07017 -0.372611 -2.168e-20)
(0.98993 -0.343127 -5.92457e-20)
(0.918323 -0.301996 -1.30344e-19)
(0.850306 -0.254385 2.72103e-20)
(0.785056 -0.189335 -1.88505e-20)
(0.702939 -0.0978465 -1.61449e-20)
(0.663181 0.058399 7.03565e-20)
(0.768813 0.180406 -7.15455e-22)
(0.949069 0.224536 -6.85635e-21)
(1.08989 0.149872 -2.28572e-21)
(1.12306 0.0795464 4.03831e-20)
(-0.0884934 -0.11557 -1.72166e-18)
(-0.0809885 -0.016646 -1.60649e-19)
(-0.0374945 0.365294 -6.6448e-19)
(0.117298 0.446446 2.29205e-19)
(0.703421 0.282454 -7.24586e-19)
(1.10915 -0.0297924 1.56836e-18)
(1.24348 -0.229722 1.54615e-18)
(1.23079 -0.331687 2.17453e-19)
(1.16165 -0.361943 8.93915e-19)
(1.07843 -0.354581 1.94604e-19)
(0.999063 -0.326441 -1.29814e-19)
(0.928696 -0.286487 -4.75595e-20)
(0.863512 -0.239049 6.17821e-20)
(0.802068 -0.174053 7.83884e-21)
(0.739809 -0.0827454 -1.31874e-20)
(0.728161 0.059593 -1.9217e-19)
(0.829941 0.1611 2.81086e-20)
(0.972083 0.196302 6.04168e-20)
(1.08134 0.133911 8.62398e-21)
(1.10496 0.07442 -5.92647e-21)
(-0.0917999 -0.110825 1.20968e-18)
(-0.0788661 -0.0273964 1.4524e-19)
(-0.0304688 0.347293 1.69213e-18)
(0.160227 0.422583 -8.19324e-21)
(0.764557 0.261166 -3.87487e-19)
(1.14523 -0.0328421 -1.30115e-18)
(1.26237 -0.218883 9.55324e-19)
(1.24102 -0.31473 -1.19146e-18)
(1.16905 -0.34337 -7.54031e-19)
(1.08578 -0.336836 -2.64571e-19)
(1.00761 -0.310107 1.47793e-19)
(0.93876 -0.271516 -2.21111e-21)
(0.876679 -0.224487 -2.46046e-20)
(0.819808 -0.160737 -1.78661e-20)
(0.77211 -0.0734699 -3.50171e-20)
(0.776774 0.0543651 1.74618e-19)
(0.866674 0.13971 -2.67222e-20)
(0.978602 0.169367 4.50471e-20)
(1.06773 0.118617 -9.92245e-21)
(1.08753 0.0687882 5.91202e-21)
(-0.0956206 -0.106173 2.76083e-19)
(-0.0774051 -0.0388474 -2.0903e-19)
(-0.0240901 0.326644 -1.47593e-18)
(0.209101 0.399659 5.57529e-19)
(0.823302 0.241356 2.5237e-18)
(1.17738 -0.0343074 -5.29521e-19)
(1.27805 -0.207318 -4.17547e-20)
(1.24912 -0.297692 3.85674e-19)
(1.17511 -0.325024 5.1453e-20)
(1.09227 -0.319448 -1.13201e-19)
(1.01558 -0.294188 7.89545e-20)
(0.948542 -0.257078 1.16138e-20)
(0.889512 -0.210887 -9.67444e-21)
(0.837621 -0.14902 3.64145e-21)
(0.800033 -0.0676986 5.87331e-20)
(0.810329 0.0447331 -9.47117e-20)
(0.886913 0.117457 -1.12527e-19)
(0.977649 0.144286 -7.11448e-20)
(1.05401 0.104258 1.38483e-20)
(1.0723 0.0629443 1.46268e-21)
(-0.0999531 -0.101578 -9.21604e-19)
(-0.0764336 -0.0508444 -5.87256e-19)
(-0.0180606 0.303092 7.22501e-19)
(0.263846 0.377986 -8.5151e-19)
(0.879075 0.223203 -7.35191e-20)
(1.20563 -0.0343898 3.02133e-19)
(1.29072 -0.195236 -7.3714e-19)
(1.25526 -0.280724 2.87624e-19)
(1.17995 -0.307002 -4.83772e-19)
(1.09798 -0.302476 3.15848e-19)
(1.02301 -0.278726 -4.72302e-20)
(0.957997 -0.243192 1.6728e-19)
(0.901932 -0.19824 -2.82822e-20)
(0.854778 -0.138779 -1.14977e-20)
(0.824438 -0.0637024 2.13298e-20)
(0.835339 0.0341342 -1.13132e-20)
(0.900225 0.0969548 -2.37899e-21)
(0.975593 0.1221 -1.01963e-20)
(1.04243 0.091229 1.39435e-20)
(1.05955 0.0571582 3.03078e-21)
(-0.104777 -0.0970049 2.09673e-18)
(-0.0756342 -0.0631505 1.41102e-18)
(-0.0115607 0.276699 -4.81101e-19)
(0.323947 0.357686 6.9244e-19)
(0.931344 0.206835 -4.87576e-19)
(1.23005 -0.0332896 -4.11385e-19)
(1.30056 -0.182831 5.64679e-19)
(1.25963 -0.263961 1.12566e-18)
(1.18368 -0.289385 2.89194e-19)
(1.10297 -0.285968 1.92622e-19)
(1.02991 -0.263751 -1.20857e-20)
(0.967069 -0.229878 -1.35203e-19)
(0.913888 -0.186464 -8.60423e-21)
(0.870951 -0.129835 1.26399e-20)
(0.846011 -0.0606971 -1.10852e-20)
(0.856204 0.0244642 8.58557e-20)
(0.911324 0.0793912 2.85041e-20)
(0.974489 0.103027 -7.75905e-22)
(1.03316 0.0796108 -2.60537e-21)
(1.04898 0.051568 -3.25783e-21)
(-0.110047 -0.092424 -1.58583e-18)
(-0.0745178 -0.0754568 -2.42173e-18)
(-0.00311173 0.248023 -2.63526e-19)
(0.388448 0.338688 4.2598e-19)
(0.979647 0.192313 -4.50423e-19)
(1.25075 -0.0312039 1.46692e-18)
(1.30781 -0.170275 -2.20961e-19)
(1.26241 -0.247515 -4.65001e-19)
(1.18643 -0.272239 -5.02525e-20)
(1.1073 -0.269963 3.78574e-20)
(1.03632 -0.249283 -1.68832e-19)
(0.975728 -0.217141 3.15668e-20)
(0.925323 -0.175483 -1.0261e-20)
(0.886085 -0.121943 6.21423e-21)
(0.865158 -0.0583581 -7.18789e-20)
(0.874406 0.016087 -9.31775e-20)
(0.921266 0.064602 -1.91541e-20)
(0.974331 0.0866915 -4.25421e-20)
(1.02581 0.0692921 -9.26982e-21)
(1.04026 0.0462448 -1.29044e-20)
(-0.115695 -0.0878167 -4.4883e-20)
(-0.0724029 -0.0874071 8.62961e-19)
(0.00942485 0.218242 1.13652e-18)
(0.456014 0.320776 -3.84039e-19)
(1.02362 0.179618 3.31115e-20)
(1.26792 -0.0283243 -2.11884e-18)
(1.31272 -0.157719 1.43919e-19)
(1.26379 -0.231476 -6.53947e-19)
(1.18831 -0.255613 -4.98833e-21)
(1.11104 -0.254489 1.61056e-19)
(1.04225 -0.235334 1.60333e-19)
(0.983953 -0.204974 6.48119e-20)
(0.936188 -0.165228 -5.03575e-20)
(0.900185 -0.114894 3.78485e-21)
(0.88219 -0.0564823 1.89094e-20)
(0.890405 0.00888663 7.97685e-20)
(0.930174 0.0521071 5.09029e-20)
(0.974864 0.0726621 5.81595e-20)
(1.02001 0.0601468 -8.37948e-21)
(1.03309 0.0412391 1.95307e-20)
(-0.121624 -0.0831813 1.65756e-18)
(-0.0684429 -0.0985777 -6.84699e-19)
(0.0286393 0.189088 -3.10145e-19)
(0.525064 0.30368 -2.87031e-19)
(1.06305 0.168657 1.40593e-18)
(1.28175 -0.0248308 -2.82314e-19)
(1.31554 -0.145291 -1.32463e-18)
(1.26395 -0.215919 8.50522e-19)
(1.18943 -0.239546 5.01349e-20)
(1.11423 -0.239564 -5.09243e-19)
(1.04773 -0.221911 -6.92214e-20)
(0.991733 -0.193361 -7.81388e-20)
(0.946459 -0.15563 -1.93611e-20)
(0.913267 -0.108523 2.28301e-21)
(0.8974 -0.0549095 1.47095e-20)
(0.904546 0.00273932 -8.71619e-20)
(0.938173 0.0415227 9.57938e-21)
(0.975939 0.0606033 -4.78443e-21)
(1.01549 0.0520622 2.25752e-21)
(1.02724 0.036583 1.80326e-22)
(-0.127711 -0.0785386 -7.20036e-19)
(-0.061663 -0.108503 9.42318e-19)
(0.0570744 0.162601 -2.02434e-19)
(0.593952 0.287198 -6.99844e-19)
(1.09785 0.159288 -2.93312e-19)
(1.29251 -0.0208881 -7.2174e-19)
(1.31653 -0.133096 1.35455e-18)
(1.26306 -0.200897 -6.34067e-19)
(1.18989 -0.224062 1.87815e-19)
(1.11693 -0.225199 2.22927e-19)
(1.05278 -0.209014 -1.3459e-19)
(0.99906 -0.182284 6.95504e-20)
(0.956123 -0.146626 2.75188e-20)
(0.925365 -0.102705 -2.63913e-20)
(0.911038 -0.0535205 -1.76502e-20)
(0.917114 -0.0024617 -3.28791e-20)
(0.94539 0.0325491 -4.26046e-20)
(0.977449 0.050243 -1.1254e-20)
(1.01198 0.044929 8.02983e-21)
(1.0225 0.0322911 -4.56477e-21)
(-0.133811 -0.0739385 -2.96542e-19)
(-0.0509787 -0.116755 -1.48679e-20)
(0.0965073 0.140751 7.09599e-19)
(0.661144 0.271282 1.68362e-18)
(1.12811 0.151339 -1.68806e-18)
(1.30047 -0.0166408 2.15395e-19)
(1.31595 -0.121215 -1.03299e-18)
(1.26129 -0.186449 -2.93552e-19)
(1.18978 -0.209177 -2.4471e-19)
(1.11919 -0.211398 1.57689e-20)
(1.05741 -0.196636 7.86927e-20)
(1.00594 -0.171719 2.05006e-19)
(0.965181 -0.138157 5.61437e-20)
(0.936526 -0.0973332 7.59094e-21)
(0.923313 -0.05223 1.44724e-20)
(0.928324 -0.00682109 -9.93956e-21)
(0.951937 0.0249392 2.56397e-22)
(0.979295 0.0413515 3.07996e-20)
(1.00929 0.0386426 -2.20537e-20)
(1.0187 0.0283649 -5.24323e-21)
(-0.139769 -0.0694673 -9.92005e-19)
(-0.0352804 -0.122937 6.79301e-19)
(0.147332 0.124926 -1.49131e-18)
(0.725343 0.256051 -1.5986e-18)
(1.15403 0.144635 7.49683e-19)
(1.30593 -0.0122108 6.77351e-19)
(1.31403 -0.10971 -3.0412e-19)
(1.25879 -0.172599 8.29621e-19)
(1.18919 -0.194896 4.63313e-19)
(1.12106 -0.198159 -3.44252e-20)
(1.06165 -0.184768 -8.42119e-20)
(1.01236 -0.161644 -1.82099e-19)
(0.973641 -0.130173 1.05391e-20)
(0.946805 -0.0923261 -2.84014e-21)
(0.934396 -0.050977 -5.97951e-21)
(0.938354 -0.0104354 6.19139e-20)
(0.957918 0.0184916 -7.03864e-20)
(0.981388 0.0337344 -2.4139e-20)
(1.00725 0.0331059 3.68029e-20)
(1.01571 0.0247991 2.23946e-21)
(-0.145421 -0.0652499 7.94546e-19)
(-0.0135706 -0.126636 -9.77992e-19)
(0.208292 0.115503 8.39238e-20)
(0.785547 0.241726 8.87654e-19)
(1.1759 0.139013 1.32944e-18)
(1.3092 -0.00769652 -8.58895e-19)
(1.31099 -0.0986233 5.55998e-19)
(1.25568 -0.159359 -6.31179e-19)
(1.18818 -0.181219 -4.32105e-19)
(1.12257 -0.185477 -1.30675e-19)
(1.06551 -0.173399 1.48732e-19)
(1.01835 -0.152034 -2.84458e-19)
(0.981516 -0.122624 -9.52878e-21)
(0.956259 -0.0876167 2.35269e-20)
(0.944427 -0.049719 9.25968e-21)
(0.947352 -0.0133912 8.51975e-21)
(0.963421 0.013041 -8.56071e-22)
(0.983641 0.0272245 3.28313e-20)
(1.00571 0.0282309 -6.87763e-21)
(1.0134 0.0215869 -1.25154e-20)
(-0.150604 -0.0614479 -2.68327e-19)
(0.0149039 -0.12743 -2.63825e-19)
(0.276699 0.11178 8.08315e-19)
(0.841058 0.228521 -6.74917e-19)
(1.1941 0.134323 -6.06384e-19)
(1.31058 -0.00317507 -2.60262e-19)
(1.30705 -0.0879818 1.17397e-18)
(1.25209 -0.146731 6.44745e-19)
(1.18683 -0.168139 3.97417e-19)
(1.12376 -0.17334 -4.32541e-19)
(1.06902 -0.162515 -2.54375e-19)
(1.02391 -0.142864 8.90032e-20)
(0.988828 -0.115471 -7.48736e-20)
(0.964945 -0.0831524 -5.39145e-20)
(0.953525 -0.0484278 -6.04883e-22)
(0.955448 -0.0157654 3.92407e-21)
(0.968521 0.00845015 2.78407e-20)
(0.985971 0.0216757 -4.41335e-20)
(1.00458 0.0239412 1.18646e-20)
(1.01169 0.0187219 4.78379e-21)
(-0.15516 -0.0582493 -1.84317e-18)
(0.0505209 -0.124941 -1.02767e-18)
(0.349083 0.112278 -2.15934e-19)
(0.891472 0.216557 -5.86226e-19)
(1.20898 0.130436 -3.19718e-19)
(1.31035 0.00129546 -5.46636e-19)
(1.30237 -0.0777986 -1.01834e-18)
(1.24813 -0.134709 -1.05453e-18)
(1.1852 -0.155642 1.97573e-19)
(1.12466 -0.161737 -2.81288e-20)
(1.0722 -0.152097 6.27351e-20)
(1.02905 -0.134113 1.83368e-19)
(0.995597 -0.108675 4.09521e-20)
(0.972918 -0.0788914 6.06261e-20)
(0.96179 -0.0470852 1.7385e-22)
(0.962754 -0.0176257 -3.75429e-20)
(0.973269 0.00460324 -1.41992e-20)
(0.988309 0.0169594 -2.1961e-20)
(1.00381 0.0201745 -3.60569e-20)
(1.01051 0.0161964 -4.94851e-21)
(-0.158927 -0.0558501 6.13869e-19)
(0.0931726 -0.11893 6.26562e-19)
(0.422006 0.115262 5.40999e-19)
(0.936657 0.205838 1.39221e-18)
(1.22094 0.127237 -4.8564e-19)
(1.30878 0.00567312 4.50822e-19)
(1.29712 -0.0680764 6.69159e-19)
(1.24388 -0.123281 8.21092e-19)
(1.18333 -0.143714 -1.29299e-19)
(1.1253 -0.15065 5.28137e-19)
(1.07505 -0.14213 1.8811e-19)
(1.03379 -0.125756 -1.76104e-19)
(1.00185 -0.102202 -8.09432e-20)
(0.980231 -0.0748014 4.88901e-21)
(0.969308 -0.0456803 -3.55235e-21)
(0.969367 -0.0190317 1.96855e-20)
(0.977703 0.00139994 -2.09167e-20)
(0.990603 0.0129662 -4.60798e-20)
(1.00334 0.0168805 1.46522e-20)
(1.00979 0.0139906 2.20328e-20)
(-0.161742 -0.0544253 2.116e-18)
(0.142214 -0.109416 1.3349e-18)
(0.492709 0.119233 3.9125e-19)
(0.976727 0.196287 -1.23475e-18)
(1.23033 0.124629 3.98149e-19)
(1.3061 0.00992931 2.11534e-19)
(1.29144 -0.0588101 -1.62765e-19)
(1.23942 -0.112428 -1.03639e-19)
(1.18126 -0.132336 2.77355e-19)
(1.1257 -0.140064 -3.2036e-19)
(1.0776 -0.132595 -3.15682e-20)
(1.03814 -0.117772 2.33925e-19)
(1.00761 -0.0960248 1.55259e-19)
(0.986932 -0.0708574 -1.44124e-20)
(0.976152 -0.044207 1.01496e-20)
(0.97537 -0.0200366 -8.97844e-21)
(0.98185 -0.00124711 1.74147e-20)
(0.992817 0.00960771 3.31194e-20)
(1.00317 0.0140101 -3.48759e-21)
(1.0095 0.0120685 -8.09706e-22)
(-0.163426 -0.0540928 -1.34709e-18)
(0.196502 -0.0967638 3.81825e-19)
(0.559394 0.123209 -1.38338e-18)
(1.01198 0.187795 4.36836e-19)
(1.23752 0.122534 -1.83728e-19)
(1.30254 0.0140467 -5.80866e-19)
(1.28544 -0.0499878 -1.12873e-18)
(1.23482 -0.10213 -4.08319e-19)
(1.17904 -0.121487 -6.73444e-19)
(1.1259 -0.129959 2.72788e-19)
(1.07987 -0.123473 -1.0225e-19)
(1.04213 -0.110141 -2.56254e-19)
(1.01291 -0.0901157 -1.78346e-19)
(0.993066 -0.0670403 2.63908e-20)
(0.982388 -0.0426625 -6.55102e-21)
(0.980831 -0.0206893 5.07106e-21)
(0.985728 -0.00341149 -5.89466e-21)
(0.994931 0.0068137 -2.0444e-20)
(1.00328 0.0115021 9.34181e-21)
(1.00956 0.0104002 -1.45718e-20)
(-0.163772 -0.054879 -1.48567e-18)
(0.254534 -0.0816752 1.52221e-18)
(0.62115 0.12673 6.12497e-19)
(1.04284 0.180254 -1.18563e-18)
(1.24282 0.120887 1.11539e-18)
(1.29827 0.018016 -1.01026e-18)
(1.27922 -0.041593 -5.31214e-19)
(1.23013 -0.0923637 4.92642e-19)
(1.17669 -0.111145 -1.25351e-19)
(1.1259 -0.120317 -1.44071e-19)
(1.08186 -0.114747 8.72963e-20)
(1.04576 -0.102843 -6.22055e-20)
(1.01777 -0.0844526 1.17666e-20)
(0.998678 -0.0633352 -4.21212e-20)
(0.988073 -0.0410468 -5.41118e-21)
(0.985811 -0.0210354 1.66589e-22)
(0.989349 -0.00515102 3.67978e-21)
(0.996935 0.00451832 2.54395e-20)
(1.00367 0.00928971 -1.42203e-20)
(1.00989 0.00901183 -3.8538e-21)
(-0.162533 -0.0566874 1.24768e-18)
(0.314656 -0.0650909 -6.98772e-19)
(0.677704 0.129709 1.17944e-19)
(1.06974 0.17357 9.08439e-19)
(1.2465 0.11964 -2.36224e-19)
(1.29345 0.0218347 5.65345e-19)
(1.27287 -0.0336074 -2.13731e-19)
(1.22539 -0.0831032 -5.05967e-19)
(1.17424 -0.101288 -5.53791e-20)
(1.12573 -0.111119 1.67374e-19)
(1.0836 -0.106398 -9.77661e-20)
(1.04906 -0.0958611 2.55653e-19)
(1.02221 -0.0790158 3.0274e-20)
(1.00381 -0.0597306 3.42008e-20)
(0.993256 -0.039362 1.67905e-20)
(0.99036 -0.0211158 1.05336e-21)
(0.992726 -0.0065102 5.5747e-21)
(0.998837 0.00264612 -1.29631e-20)
(1.00432 0.00734735 -1.67472e-20)
(1.01031 0.007977 1.84145e-20)
(-0.159442 -0.0592384 -1.26539e-18)
(0.375348 -0.0480628 -1.84179e-18)
(0.729159 0.132241 -8.54325e-20)
(1.09314 0.167666 3.8101e-19)
(1.24882 0.118752 1.87838e-19)
(1.28821 0.0255051 5.98339e-19)
(1.26646 -0.0260097 2.57648e-19)
(1.22064 -0.0743232 5.22002e-19)
(1.17172 -0.0918932 -3.98058e-19)
(1.1254 -0.102344 -1.23807e-19)
(1.0851 -0.0984087 7.73713e-20)
(1.05204 -0.0891766 -2.54595e-19)
(1.02626 -0.0737881 1.10947e-19)
(1.00849 -0.0562172 -3.88288e-20)
(0.997983 -0.0376124 -1.84211e-20)
(0.994521 -0.0209656 -1.15729e-21)
(0.995867 -0.00752862 -5.33642e-21)
(1.00066 0.00112161 -6.46218e-21)
(1.00518 0.00572342 8.74912e-21)
(1.01062 0.00730065 -1.57893e-20)
(-0.154219 -0.0621061 1.48877e-18)
(0.435322 -0.0315415 1.03214e-18)
(0.775803 0.134472 3.81458e-19)
(1.11344 0.16247 -1.40404e-18)
(1.24999 0.11819 -1.0379e-18)
(1.28268 0.0290329 -1.17329e-18)
(1.26003 -0.0187776 2.01842e-19)
(1.21591 -0.0659967 -4.72853e-19)
(1.16913 -0.0829368 1.51815e-19)
(1.12493 -0.0939738 -1.4654e-19)
(1.08637 -0.0907613 -7.32871e-20)
(1.05472 -0.0827736 5.76172e-20)
(1.02995 -0.0687544 -1.55143e-19)
(1.01275 -0.0527877 5.93479e-20)
(1.00229 -0.035804 6.75887e-21)
(0.998332 -0.0206146 3.78199e-21)
(0.998784 -0.0082469 3.57852e-21)
(1.00242 -0.000101963 -2.64364e-21)
(1.00615 0.00447486 9.69303e-21)
(1.01015 0.0061548 4.08386e-21)
(-0.146506 -0.0647621 1.34787e-18)
(0.493641 -0.0162042 -3.49647e-19)
(0.818007 0.136543 -6.27104e-19)
(1.13101 0.157921 8.42535e-19)
(1.25019 0.117925 1.79257e-19)
(1.27694 0.0324252 1.50247e-18)
(1.25364 -0.0118894 -7.41553e-19)
(1.21122 -0.0580992 3.34635e-19)
(1.1665 -0.0743968 5.79048e-19)
(1.12433 -0.0859884 5.28021e-20)
(1.08742 -0.0834395 7.74047e-20)
(1.05712 -0.076637 2.46479e-19)
(1.0333 -0.0639017 4.67631e-20)
(1.01664 -0.0494363 -3.28175e-20)
(1.00622 -0.0339432 -1.68595e-20)
(1.00182 -0.020088 -8.44256e-21)
(1.00149 -0.00870226 -3.4775e-21)
(1.00413 -0.00104196 7.87903e-21)
(1.00701 0.00342246 -6.24584e-21)
(1.01043 0.00543235 -1.20015e-20)
(-0.135941 -0.0665629 -2.16541e-18)
(0.549736 -0.00243472 -1.41406e-18)
(0.856168 0.138571 -9.54948e-19)
(1.14616 0.153961 1.33406e-18)
(1.24958 0.117934 9.02841e-19)
(1.27107 0.0356912 -1.15145e-18)
(1.24732 -0.00532266 8.97566e-19)
(1.20659 -0.0506045 4.98755e-19)
(1.16383 -0.0662515 -6.10146e-19)
(1.12361 -0.0783693 2.67162e-19)
(1.08828 -0.076427 1.71458e-20)
(1.05925 -0.0707526 -2.2303e-19)
(1.03633 -0.0592187 1.13978e-19)
(1.02016 -0.0461586 2.40816e-20)
(1.00979 -0.0320374 1.37891e-21)
(1.00502 -0.0194085 1.76604e-20)
(1.004 -0.00892445 -2.91157e-22)
(1.00576 -0.00174917 -1.03043e-20)
(1.00801 0.00263613 9.99887e-22)
(1.01048 0.00476195 1.69644e-21)
(-0.122167 -0.066797 1.55509e-18)
(0.603337 0.00966754 -6.78913e-19)
(0.890684 0.140654 4.94156e-19)
(1.15918 0.150539 -1.46316e-18)
(1.24829 0.118195 -8.69786e-19)
(1.26513 0.0388402 7.07145e-19)