/*--------------------------------*- C++ -*----------------------------------*\
  =========                 |
  \\      /  F ield         | OpenFOAM: The Open Source CFD Toolbox
   \\    /   O peration     | Website:  https://openfoam.org
    \\  /    A nd           | Version:  7
     \\/     M anipulation  |
\*---------------------------------------------------------------------------*/
FoamFile
{
    version     2.0;
    format      ascii;
    class       volVectorField;
    location    "3.5";
    object      U;
}
// * * * * * * * * * * * * * * * * * * * * * * * * * * * * * * * * * * * * * //

dimensions      [0 1 -1 0 0 0 0];

internalField   nonuniform List<vector> 
2413
(
(1.96072 0.0233332 0)
(1.9624 0.0232767 0)
(1.96474 0.0209898 0)
(1.96782 0.0156614 0)
(1.96977 0.0126507 0)
(1.97129 0.0125901 0)
(1.97368 0.0099421 0)
(1.97663 0.00447463 0)
(1.97846 0.00160919 0)
(1.97986 0.00145865 0)
(1.98229 -0.00143598 0)
(1.98506 -0.00688698 0)
(1.98679 -0.00952279 0)
(1.98808 -0.00964005 0)
(1.99053 -0.012697 0)
(1.99321 -0.0181696 0)
(1.99491 -0.0206194 0)
(1.99616 -0.0208271 0)
(1.99858 -0.0238951 0)
(2.00116 -0.0286839 0)
(2.00284 -0.0315767 0)
(2.0042 -0.0322965 0)
(2.00578 -0.033854 0)
(2.00838 -0.0382195 0)
(2.00997 -0.0429895 0)
(2.01128 -0.0443448 0)
(2.01247 -0.0448222 0)
(2.01496 -0.0487897 0)
(2.01684 -0.0542819 0)
(2.01827 -0.0562769 0)
(2.01984 -0.0565869 0)
(2.02238 -0.0597772 0)
(2.02448 -0.0651224 0)
(2.02567 -0.067901 0)
(2.0272 -0.0677191 0)
(2.02884 -0.0696983 0)
(2.03063 -0.0749469 0)
(2.03138 -0.0782325 0)
(2.03246 -0.0783795 0)
(2.03376 -0.0802541 0)
(2.03617 -0.0851361 0)
(2.03731 -0.0884668 0)
(2.03869 -0.0888222 0)
(2.04063 -0.0908969 0)
(2.04315 -0.0957097 0)
(2.04421 -0.0987007 0)
(2.04542 -0.0991393 0)
(2.04721 -0.101653 0)
(2.04892 -0.106635 0)
(2.04953 -0.109427 0)
(2.05002 -0.109637 0)
(2.05132 -0.113056 0)
(2.05184 -0.118191 0)
(2.05173 -0.120025 0)
(2.05175 -0.121587 0)
(2.05196 -0.125475 0)
(2.05161 -0.130663 0)
(2.05082 -0.132723 0)
(2.04995 -0.134406 0)
(2.04937 -0.140085 0)
(2.04847 -0.14436 0)
(2.04794 -0.14649 0)
(2.04887 -0.14927 0)
(2.051 -0.151566 0)
(2.05246 -0.153364 0)
(2.05423 -0.154328 0)
(2.05675 -0.156508 0)
(2.05837 -0.159907 0)
(2.05952 -0.161308 0)
(2.06091 -0.162039 0)
(2.0629 -0.165232 0)
(2.06361 -0.168977 0)
(2.06434 -0.169874 0)
(2.06514 -0.170964 0)
(2.0669 -0.174797 0)
(2.06745 -0.178196 0)
(2.06827 -0.178765 0)
(2.06938 -0.180256 0)
(2.07114 -0.184132 0)
(2.07164 -0.187078 0)
(2.07246 -0.187513 0)
(2.0735 -0.189229 0)
(2.07485 -0.193152 0)
(2.07528 -0.195456 0)
(2.07607 -0.195828 0)
(2.07728 -0.197737 0)
(2.07877 -0.201269 0)
(2.07934 -0.203319 0)
(2.08025 -0.203699 0)
(2.08172 -0.205836 0)
(2.08301 -0.209526 0)
(2.08351 -0.211452 0)
(2.0843 -0.211842 0)
(2.08554 -0.214052 0)
(2.08664 -0.217659 0)
(2.08715 -0.219272 0)
(2.08798 -0.219676 0)
(2.08946 -0.221744 0)
(2.0907 -0.225014 0)
(2.09119 -0.226789 0)
(2.09207 -0.227011 0)
(2.09322 -0.228908 0)
(2.09411 -0.232386 0)
(2.09442 -0.234209 0)
(2.09505 -0.234659 0)
(2.09576 -0.236356 0)
(2.09699 -0.239202 0)
(2.09746 -0.241281 0)
(2.09844 -0.241834 0)
(2.09942 -0.24311 0)
(2.1008 -0.245484 0)
(2.10134 -0.248203 0)
(2.10212 -0.249112 0)
(2.10319 -0.249673 0)
(2.10447 -0.251721 0)
(2.10527 -0.254541 0)
(1.92039 0.0767513 0)
(1.92245 0.0756568 0)
(1.92443 0.074515 0)
(1.92783 0.0695893 0)
(1.93017 0.0649169 0)
(1.93203 0.0643541 0)
(1.93401 0.062875 0)
(1.93716 0.0577412 0)
(1.93925 0.0540574 0)
(1.94093 0.0539459 0)
(1.94321 0.0518624 0)
(1.94652 0.0464915 0)
(1.94867 0.0432639 0)
(1.95039 0.0430261 0)
(1.95307 0.040289 0)
(1.95617 0.0349742 0)
(1.95827 0.0324847 0)
(1.95993 0.0324336 0)
(1.96272 0.0294095 0)
(1.96552 0.024153 0)
(1.9674 0.0220595 0)
(1.96882 0.0219506 0)
(1.97158 0.018534 0)
(1.9742 0.0131031 0)
(1.97594 0.0110767 0)
(1.97725 0.0107671 0)
(1.98005 0.00709555 0)
(1.98255 0.00170736 0)
(1.98424 -0.000154427 0)
(1.98553 -0.00054748 0)
(1.98839 -0.0043341 0)
(1.99075 -0.00959675 0)
(1.9924 -0.0110899 0)
(1.99357 -0.0114177 0)
(1.99656 -0.0153913 0)
(1.9988 -0.0200662 0)
(2.00041 -0.0213986 0)
(2.00193 -0.0228383 0)
(2.0041 -0.0259402 0)
(2.00639 -0.0296483 0)
(2.008 -0.0336336 0)
(2.00913 -0.0353861 0)
(2.01034 -0.0360204 0)
(2.01263 -0.0394978 0)
(2.01476 -0.0449269 0)
(2.01613 -0.0473445 0)
(2.01781 -0.0476155 0)
(2.02019 -0.0503415 0)
(2.0224 -0.0555331 0)
(2.02355 -0.0585507 0)
(2.02512 -0.0584783 0)
(2.02674 -0.0603437 0)
(2.0286 -0.0656656 0)
(2.02936 -0.069094 0)
(2.03043 -0.0692957 0)
(2.03189 -0.0712937 0)
(2.03436 -0.0761248 0)
(2.03554 -0.0793326 0)
(2.03698 -0.0796079 0)
(2.03888 -0.0814876 0)
(2.04132 -0.0862266 0)
(2.0423 -0.0891203 0)
(2.04336 -0.0894034 0)
(2.04511 -0.0920207 0)
(2.04674 -0.0970228 0)
(2.04732 -0.100045 0)
(2.04773 -0.100571 0)
(2.04877 -0.103863 0)
(2.04932 -0.109524 0)
(2.04911 -0.111816 0)
(2.04892 -0.113054 0)
(2.04901 -0.117167 0)
(2.04853 -0.122303 0)
(2.04768 -0.125009 0)
(2.04653 -0.126535 0)
(2.04603 -0.131941 0)
(2.04577 -0.136147 0)
(2.0461 -0.137461 0)
(2.04779 -0.139581 0)
(2.05013 -0.141692 0)
(2.05166 -0.14407 0)
(2.05336 -0.144823 0)
(2.05577 -0.146943 0)
(2.05756 -0.150508 0)
(2.05851 -0.152303 0)
(2.05967 -0.152723 0)
(2.06146 -0.155665 0)
(2.06234 -0.159807 0)
(2.06295 -0.161047 0)
(2.06365 -0.161856 0)
(2.0655 -0.165376 0)
(2.06626 -0.169138 0)
(2.06705 -0.16994 0)
(2.06801 -0.17104 0)
(2.0699 -0.1747 0)
(2.07048 -0.17804 0)
(2.07127 -0.17863 0)
(2.07219 -0.179963 0)
(2.07378 -0.18371 0)
(2.07426 -0.186445 0)
(2.07506 -0.186857 0)
(2.07613 -0.188418 0)
(2.0778 -0.191895 0)
(2.07837 -0.194381 0)
(2.07924 -0.194759 0)
(2.08049 -0.196531 0)
(2.08198 -0.200168 0)
(2.08244 -0.20248 0)
(2.08322 -0.202866 0)
(2.08428 -0.204684 0)
(2.08564 -0.208223 0)
(2.08613 -0.210251 0)
(2.08696 -0.210598 0)
(2.08828 -0.212369 0)
(2.08976 -0.215591 0)
(2.09023 -0.217812 0)
(2.09107 -0.218069 0)
(2.09205 -0.219584 0)
(2.09313 -0.223105 0)
(2.09339 -0.225318 0)
(2.09402 -0.225779 0)
(2.09465 -0.227212 0)
(2.09606 -0.229962 0)
(2.0966 -0.232352 0)
(2.09752 -0.233041 0)
(2.09846 -0.233889 0)
(2.09988 -0.236147 0)
(2.10074 -0.239035 0)
(2.10132 -0.240447 0)
(2.10247 -0.240817 0)
(2.10363 -0.242386 0)
(2.10477 -0.245084 0)
(1.91745 0.0850466 0)
(1.91938 0.0844598 0)
(1.92165 0.0826044 0)
(1.92502 0.0772129 0)
(1.92719 0.0733019 0)
(1.9289 0.0731557 0)
(1.93114 0.0710907 0)
(1.93422 0.0657621 0)
(1.93629 0.0627941 0)
(1.93795 0.0626781 0)
(1.94068 0.0597887 0)
(1.94372 0.0544685 0)
(1.94581 0.0522422 0)
(1.94748 0.0520169 0)
(1.95057 0.0486507 0)
(1.95351 0.0435004 0)
(1.95563 0.0417972 0)
(1.95734 0.0414519 0)
(1.96052 0.037717 0)
(1.9631 0.0326895 0)
(1.96497 0.0313344 0)
(1.96647 0.0307992 0)
(1.96953 0.0266385 0)
(1.97179 0.0215957 0)
(1.97345 0.0204151 0)
(1.97476 0.0197942 0)
(1.97778 0.0154996 0)
(1.97995 0.010514 0)
(1.98157 0.00938563 0)
(1.98292 0.00858227 0)
(1.98603 0.00419492 0)
(1.98815 -0.000689884 0)
(1.98978 -0.00162075 0)
(1.99118 -0.00249284 0)
(1.9944 -0.00705629 0)
(1.99633 -0.0114827 0)
(1.99784 -0.0117842 0)
(1.99964 -0.0136047 0)
(2.00223 -0.0183108 0)
(2.00397 -0.0208178 0)
(2.00546 -0.0230064 0)
(2.00687 -0.0260984 0)
(2.0083 -0.027663 0)
(2.01032 -0.0303227 0)
(2.01273 -0.0353921 0)
(2.01404 -0.0383858 0)
(2.01568 -0.03879 0)
(2.01794 -0.0411211 0)
(2.02038 -0.0461887 0)
(2.02153 -0.0495807 0)
(2.02308 -0.0496744 0)
(2.0246 -0.051235 0)
(2.0265 -0.0563875 0)
(2.02726 -0.0599143 0)
(2.02835 -0.0601358 0)
(2.02989 -0.0620896 0)
(2.0324 -0.0668597 0)
(2.03361 -0.0699587 0)
(2.03505 -0.070237 0)
(2.03693 -0.0721433 0)
(2.03941 -0.0770013 0)
(2.04039 -0.0801132 0)
(2.04135 -0.0804769 0)
(2.04309 -0.0833685 0)
(2.04453 -0.0884233 0)
(2.04501 -0.0913918 0)
(2.0453 -0.0920881 0)
(2.04609 -0.0953039 0)
(2.04648 -0.10099 0)
(2.04609 -0.103295 0)
(2.04574 -0.104429 0)
(2.04575 -0.108767 0)
(2.04505 -0.11371 0)
(2.04414 -0.116521 0)
(2.04285 -0.118352 0)
(2.04281 -0.123214 0)
(2.04372 -0.127188 0)
(2.04481 -0.128039 0)
(2.04679 -0.129752 0)
(2.04931 -0.132009 0)
(2.05084 -0.134815 0)
(2.05248 -0.135477 0)
(2.05466 -0.137444 0)
(2.05657 -0.141227 0)
(2.05738 -0.14344 0)
(2.05834 -0.143764 0)
(2.05991 -0.146467 0)
(2.06096 -0.150859 0)
(2.06152 -0.15241 0)
(2.06219 -0.152969 0)
(2.06402 -0.156136 0)
(2.065 -0.160083 0)
(2.06575 -0.161136 0)
(2.06661 -0.161983 0)
(2.06856 -0.165451 0)
(2.0693 -0.16912 0)
(2.07007 -0.16991 0)
(2.07093 -0.171015 0)
(2.07271 -0.174588 0)
(2.0733 -0.177687 0)
(2.0741 -0.178209 0)
(2.07506 -0.179516 0)
(2.07687 -0.182957 0)
(2.07746 -0.185802 0)
(2.07829 -0.186255 0)
(2.07938 -0.18777 0)
(2.08102 -0.191353 0)
(2.0815 -0.194 0)
(2.08225 -0.194459 0)
(2.08322 -0.196061 0)
(2.08478 -0.199536 0)
(2.08529 -0.201923 0)
(2.08611 -0.20229 0)
(2.08732 -0.203855 0)
(2.08895 -0.207046 0)
(2.08943 -0.209548 0)
(2.09023 -0.209849 0)
(2.0911 -0.211084 0)
(2.09227 -0.214575 0)
(2.09254 -0.216994 0)
(2.09315 -0.21742 0)
(2.09378 -0.218658 0)
(2.09535 -0.22136 0)
(2.09601 -0.223859 0)
(2.09689 -0.224701 0)
(2.09788 -0.225333 0)
(2.09919 -0.227481 0)
(2.1003 -0.230381 0)
(2.10073 -0.232587 0)
(2.10141 -0.233188 0)
(2.1028 -0.235077 0)
(2.10275 -0.23785 0)
(1.91441 0.0936384 0)
(1.91633 0.0930243 0)
(1.91894 0.0904478 0)
(1.92208 0.0849215 0)
(1.9241 0.081999 0)
(1.92574 0.0818778 0)
(1.92852 0.0788359 0)
(1.93145 0.0734383 0)
(1.93348 0.0713401 0)
(1.9351 0.0711905 0)
(1.93813 0.0677001 0)
(1.94092 0.0626387 0)
(1.94296 0.0611723 0)
(1.94473 0.0605639 0)
(1.94815 0.0565506 0)
(1.95083 0.0518671 0)
(1.95291 0.0509313 0)
(1.95475 0.0501559 0)
(1.95813 0.0458725 0)
(1.96049 0.0413823 0)
(1.96232 0.0406706 0)
(1.96403 0.0395966 0)
(1.9672 0.0349125 0)
(1.96923 0.0304808 0)
(1.9708 0.0299064 0)
(1.97232 0.0286783 0)
(1.97543 0.0237942 0)
(1.97737 0.0193523 0)
(1.9789 0.0187266 0)
(1.98049 0.0172961 0)
(1.98365 0.0124078 0)
(1.98556 0.00815465 0)
(1.98714 0.00767128 0)
(1.98883 0.00628379 0)
(1.99203 0.0014778 0)
(1.99386 -0.00253333 0)
(1.99545 -0.00276757 0)
(1.99736 -0.00463333 0)
(1.99995 -0.00997424 0)
(2.0014 -0.0125762 0)
(2.00251 -0.0130295 0)
(2.00468 -0.0169178 0)
(2.00639 -0.0201978 0)
(2.00802 -0.0216165 0)
(2.01042 -0.0254789 0)
(2.012 -0.0293242 0)
(2.01357 -0.0301464 0)
(2.01568 -0.0320211 0)
(2.01827 -0.03682 0)
(2.01944 -0.0404115 0)
(2.02086 -0.0406226 0)
(2.02226 -0.0420318 0)
(2.02433 -0.0471506 0)
(2.02521 -0.0509115 0)
(2.02633 -0.0512248 0)
(2.02798 -0.0531982 0)
(2.0305 -0.0579912 0)
(2.03171 -0.0609733 0)
(2.03312 -0.0612549 0)
(2.035 -0.0631957 0)
(2.03731 -0.0680277 0)
(2.03821 -0.0710554 0)
(2.03899 -0.0712729 0)
(2.04056 -0.0741895 0)
(2.04184 -0.0794152 0)
(2.0422 -0.082281 0)
(2.04244 -0.0834104 0)
(2.04305 -0.0867153 0)
(2.04343 -0.0925681 0)
(2.04298 -0.0952917 0)
(2.04252 -0.0963451 0)
(2.04246 -0.100855 0)
(2.04166 -0.105987 0)
(2.04077 -0.108692 0)
(2.0398 -0.111013 0)
(2.04062 -0.114856 0)
(2.0423 -0.117956 0)
(2.04377 -0.118701 0)
(2.04587 -0.120223 0)
(2.04852 -0.122661 0)
(2.04999 -0.125768 0)
(2.05155 -0.126397 0)
(2.05347 -0.128101 0)
(2.05541 -0.13204 0)
(2.05608 -0.134607 0)
(2.05688 -0.134901 0)
(2.05823 -0.137323 0)
(2.05947 -0.141822 0)
(2.06002 -0.143672 0)
(2.06073 -0.144085 0)
(2.06252 -0.146977 0)
(2.06371 -0.151078 0)
(2.06442 -0.152409 0)
(2.06522 -0.153107 0)
(2.06716 -0.156402 0)
(2.06804 -0.160238 0)
(2.0688 -0.161175 0)
(2.06964 -0.162082 0)
(2.07153 -0.165453 0)
(2.07223 -0.168768 0)
(2.07303 -0.169401 0)
(2.07391 -0.170498 0)
(2.07577 -0.173889 0)
(2.07641 -0.176961 0)
(2.07719 -0.177487 0)
(2.07816 -0.178786 0)
(2.07988 -0.182273 0)
(2.0804 -0.185112 0)
(2.08112 -0.185615 0)
(2.08199 -0.186999 0)
(2.08367 -0.19036 0)
(2.08422 -0.192948 0)
(2.08504 -0.193327 0)
(2.08614 -0.194673 0)
(2.08787 -0.197801 0)
(2.08839 -0.200485 0)
(2.0892 -0.200845 0)
(2.09002 -0.201849 0)
(2.09131 -0.205289 0)
(2.09162 -0.207914 0)
(2.09223 -0.208369 0)
(2.09295 -0.209526 0)
(2.09456 -0.212209 0)
(2.09527 -0.214879 0)
(2.09585 -0.215988 0)
(2.09656 -0.21704 0)
(2.09774 -0.219731 0)
(2.09778 -0.223223 0)
(2.09776 -0.228026 0)
(2.09687 -0.235158 0)
(2.09498 -0.245454 0)
(2.09111 -0.260635 0)
(1.91153 0.101674 0)
(1.91328 0.10136 0)
(1.91597 0.0984923 0)
(1.919 0.0930235 0)
(1.92107 0.0906295 0)
(1.92282 0.0902142 0)
(1.92591 0.0865797 0)
(1.92856 0.0816004 0)
(1.93053 0.0803524 0)
(1.93228 0.0797385 0)
(1.93562 0.0754784 0)
(1.93814 0.0708533 0)
(1.94009 0.0700754 0)
(1.94203 0.0690392 0)
(1.94555 0.0645813 0)
(1.94801 0.0605591 0)
(1.94997 0.0601458 0)
(1.95209 0.0587156 0)
(1.95555 0.0539486 0)
(1.95779 0.0501307 0)
(1.95954 0.0497883 0)
(1.96165 0.0479189 0)
(1.9648 0.0428313 0)
(1.9667 0.0392427 0)
(1.96818 0.0390595 0)
(1.97008 0.0370611 0)
(1.97307 0.0318164 0)
(1.97483 0.0282052 0)
(1.97623 0.0279729 0)
(1.97808 0.0259436 0)
(1.98111 0.0207704 0)
(1.98289 0.0172609 0)
(1.98436 0.0170091 0)
(1.98644 0.0149242 0)
(1.98963 0.00979775 0)
(1.99146 0.00631238 0)
(1.99307 0.00613195 0)
(1.99521 0.00385923 0)
(1.99756 -0.00139674 0)
(1.99887 -0.00394378 0)
(1.99991 -0.00402255 0)
(2.00212 -0.00755419 0)
(2.00402 -0.0119355 0)
(2.00551 -0.0130239 0)
(2.00761 -0.0156186 0)
(2.00986 -0.0200722 0)
(2.01146 -0.0216096 0)
(2.01343 -0.0231255 0)
(2.01611 -0.0276584 0)
(2.01732 -0.031409 0)
(2.01859 -0.0317541 0)
(2.01996 -0.0332001 0)
(2.02218 -0.0382541 0)
(2.02317 -0.0420339 0)
(2.02431 -0.0423398 0)
(2.02598 -0.0442151 0)
(2.02847 -0.0490191 0)
(2.02964 -0.0518829 0)
(2.03098 -0.0521728 0)
(2.03283 -0.0542538 0)
(2.03501 -0.0591163 0)
(2.03588 -0.0622448 0)
(2.03655 -0.0626439 0)
(2.038 -0.065811 0)
(2.03912 -0.0713742 0)
(2.03934 -0.0740865 0)
(2.03954 -0.075447 0)
(2.03999 -0.0788551 0)
(2.04021 -0.0843728 0)
(2.03971 -0.0872775 0)
(2.0391 -0.0881655 0)
(2.03887 -0.092633 0)
(2.03804 -0.0979214 0)
(2.03737 -0.10031 0)
(2.03718 -0.102725 0)
(2.0391 -0.105557 0)
(2.04104 -0.108259 0)
(2.04267 -0.109256 0)
(2.04484 -0.110685 0)
(2.04758 -0.113289 0)
(2.049 -0.116661 0)
(2.05045 -0.117332 0)
(2.0521 -0.118771 0)
(2.05406 -0.122899 0)
(2.05464 -0.1259 0)
(2.05535 -0.126283 0)
(2.05657 -0.128486 0)
(2.05804 -0.132972 0)
(2.05861 -0.135112 0)
(2.05938 -0.135411 0)
(2.06108 -0.138023 0)
(2.0624 -0.142205 0)
(2.06307 -0.143778 0)
(2.06381 -0.144357 0)
(2.06568 -0.147448 0)
(2.06673 -0.151389 0)
(2.06749 -0.15248 0)
(2.06833 -0.15327 0)
(2.07032 -0.156497 0)
(2.07115 -0.160026 0)
(2.07193 -0.16081 0)
(2.07275 -0.161795 0)
(2.07464 -0.165176 0)
(2.07532 -0.168436 0)
(2.07608 -0.169037 0)
(2.07696 -0.170202 0)
(2.07875 -0.173622 0)
(2.07932 -0.176603 0)
(2.08004 -0.177153 0)
(2.08087 -0.178415 0)
(2.08265 -0.181727 0)
(2.08326 -0.184486 0)
(2.08414 -0.184894 0)
(2.08523 -0.186094 0)
(2.08708 -0.189191 0)
(2.08768 -0.192053 0)
(2.0885 -0.192561 0)
(2.08929 -0.193403 0)
(2.0906 -0.196712 0)
(2.09089 -0.199771 0)
(2.09105 -0.200431 0)
(2.09213 -0.202458 0)
(2.09247 -0.205356 0)
(2.09274 -0.209252 0)
(2.09204 -0.215161 0)
(2.09073 -0.22362 0)
(2.0878 -0.236773 0)
(2.08228 -0.256481 0)
(2.07464 -0.282305 0)
(2.06434 -0.315325 0)
(2.0528 -0.35406 0)
(2.0406 -0.39499 0)
(1.90819 0.110497 0)
(1.90986 0.110103 0)
(1.91317 0.106208 0)
(1.91603 0.100756 0)
(1.91804 0.0992108 0)
(1.91982 0.0986357 0)
(1.92318 0.0945044 0)
(1.92578 0.0898123 0)
(1.92777 0.0889473 0)
(1.92976 0.0877772 0)
(1.93309 0.0831359 0)
(1.93536 0.0793057 0)
(1.93718 0.0790035 0)
(1.93946 0.077257 0)
(1.94289 0.0724096 0)
(1.94517 0.0692483 0)
(1.94699 0.069116 0)
(1.94954 0.0668821 0)
(1.95286 0.0618341 0)
(1.95499 0.0589107 0)
(1.95663 0.0587615 0)
(1.95916 0.0561662 0)
(1.96214 0.0509878 0)
(1.964 0.0483344 0)
(1.9654 0.0481753 0)
(1.96782 0.045287 0)
(1.97057 0.0398979 0)
(1.97226 0.0371761 0)
(1.97354 0.0370616 0)
(1.97577 0.0342766 0)
(1.97855 0.0289785 0)
(1.98026 0.0262838 0)
(1.98162 0.0260751 0)
(1.98411 0.0233495 0)
(1.98714 0.0180764 0)
(1.98897 0.0152224 0)
(1.99051 0.0151403 0)
(1.99287 0.0123613 0)
(1.99508 0.00704521 0)
(1.99639 0.00495597 0)
(1.9974 0.00483289 0)
(1.99981 0.0010262 0)
(2.00166 -0.00360405 0)
(2.00305 -0.00455511 0)
(2.00495 -0.0065171 0)
(2.00767 -0.0111263 0)
(2.00932 -0.0133079 0)
(2.01109 -0.0143994 0)
(2.0137 -0.0184835 0)
(2.01498 -0.0222948 0)
(2.01615 -0.0227763 0)
(2.01756 -0.0243673 0)
(2.01992 -0.0294096 0)
(2.02103 -0.0331647 0)
(2.02218 -0.0334823 0)
(2.02384 -0.0353297 0)
(2.02635 -0.040186 0)
(2.02752 -0.0430553 0)
(2.02879 -0.0434035 0)
(2.03065 -0.0457968 0)
(2.03255 -0.0506556 0)
(2.03331 -0.0537376 0)
(2.03381 -0.0541414 0)
(2.03498 -0.0572475 0)
(2.03594 -0.0630008 0)
(2.03602 -0.0656798 0)
(2.03615 -0.0670263 0)
(2.03664 -0.070807 0)
(2.03677 -0.0760946 0)
(2.03635 -0.0794529 0)
(2.03567 -0.0804715 0)
(2.03527 -0.0848182 0)
(2.03475 -0.0903759 0)
(2.03474 -0.0923677 0)
(2.03552 -0.0942885 0)
(2.03807 -0.0963819 0)
(2.04007 -0.0991492 0)
(2.04172 -0.10037 0)
(2.04384 -0.101561 0)
(2.04662 -0.104255 0)
(2.04797 -0.107864 0)
(2.04925 -0.108665 0)
(2.05064 -0.109786 0)
(2.05254 -0.113965 0)
(2.05305 -0.117336 0)
(2.05373 -0.117791 0)
(2.05486 -0.119661 0)
(2.05658 -0.123978 0)
(2.05718 -0.126443 0)
(2.05803 -0.126705 0)
(2.05959 -0.129051 0)
(2.06106 -0.133339 0)
(2.06168 -0.135188 0)
(2.06238 -0.13574 0)
(2.06421 -0.138661 0)
(2.06543 -0.142651 0)
(2.06619 -0.143881 0)
(2.06706 -0.144565 0)
(2.06908 -0.14768 0)
(2.06998 -0.151302 0)
(2.07071 -0.152167 0)
(2.07146 -0.153038 0)
(2.07334 -0.156386 0)
(2.07405 -0.159714 0)
(2.0748 -0.160328 0)
(2.07567 -0.161391 0)
(2.0775 -0.164756 0)
(2.07812 -0.167772 0)
(2.07889 -0.168322 0)
(2.07972 -0.169407 0)
(2.08158 -0.172608 0)
(2.08228 -0.175495 0)
(2.08317 -0.175982 0)
(2.08427 -0.176997 0)
(2.08603 -0.179952 0)
(2.08663 -0.183173 0)
(2.08698 -0.184177 0)
(2.08761 -0.18583 0)
(2.0878 -0.18962 0)
(2.0876 -0.194524 0)
(2.08638 -0.201951 0)
(2.084 -0.213235 0)
(2.08008 -0.22897 0)
(2.07303 -0.252028 0)
(2.06348 -0.282663 0)
(2.05201 -0.320208 0)
(2.03971 -0.362262 0)
(2.02649 -0.405052 0)
(2.01339 -0.44953 0)
(2.00012 -0.49004 0)
(1.99492 -0.520185 0)
(1.978 -0.561777 0)
(1.90513 0.118602 0)
(1.90709 0.117669 0)
(1.91035 0.113632 0)
(1.91283 0.10905 0)
(1.91475 0.108217 0)
(1.91697 0.106836 0)
(1.9206 0.101997 0)
(1.92297 0.0980493 0)
(1.92483 0.0977886 0)
(1.92714 0.0960017 0)
(1.93045 0.0909854 0)
(1.93263 0.0878297 0)
(1.93433 0.0877075 0)
(1.93692 0.0853054 0)
(1.94011 0.0803824 0)
(1.94228 0.0780821 0)
(1.944 0.0778427 0)
(1.94702 0.0747526 0)
(1.95002 0.0697299 0)
(1.95206 0.0678052 0)
(1.95363 0.0675086 0)
(1.95667 0.0640754 0)
(1.95941 0.0590242 0)
(1.96126 0.0573037 0)
(1.96268 0.0568506 0)
(1.96556 0.0531381 0)
(1.968 0.0479363 0)
(1.96966 0.0461447 0)
(1.97086 0.0458922 0)
(1.97348 0.0423672 0)
(1.97592 0.0372477 0)
(1.97759 0.0353968 0)
(1.97889 0.0349936 0)
(1.98182 0.0316084 0)
(1.9846 0.0263239 0)
(1.98644 0.0240769 0)
(1.98794 0.023886 0)
(1.99046 0.0206473 0)
(1.99251 0.0154222 0)
(1.99384 0.0137432 0)
(1.99485 0.0135737 0)
(1.99743 0.00957107 0)
(1.9992 0.00510106 0)
(2.00054 0.00431642 0)
(2.00253 0.00235497 0)
(2.00541 -0.0023758 0)
(2.00701 -0.00479176 0)
(2.00855 -0.0055743 0)
(2.01114 -0.00941245 0)
(2.01261 -0.0134936 0)
(2.01375 -0.0142001 0)
(2.01525 -0.0159978 0)
(2.01761 -0.0209558 0)
(2.01877 -0.0243498 0)
(2.01988 -0.024604 0)
(2.02165 -0.0266182 0)
(2.02416 -0.0315773 0)
(2.02531 -0.0344496 0)
(2.02645 -0.0347331 0)
(2.02821 -0.037377 0)
(2.02976 -0.0421983 0)
(2.0304 -0.0452227 0)
(2.0308 -0.0459626 0)
(2.03182 -0.0492611 0)
(2.03271 -0.0553109 0)
(2.03272 -0.0582283 0)
(2.03285 -0.0594394 0)
(2.03339 -0.0633419 0)
(2.03334 -0.0683118 0)
(2.03295 -0.0716775 0)
(2.03228 -0.0730644 0)
(2.03158 -0.0767752 0)
(2.03185 -0.0821599 0)
(2.0327 -0.0837559 0)
(2.03419 -0.0849874 0)
(2.03696 -0.0868542 0)
(2.03908 -0.0898175 0)
(2.04065 -0.0914097 0)
(2.04266 -0.092283 0)
(2.04542 -0.0950512 0)
(2.04675 -0.0989711 0)
(2.04782 -0.100076 0)
(2.04894 -0.100896 0)
(2.05079 -0.104991 0)
(2.05136 -0.108851 0)
(2.05209 -0.10948 0)
(2.05321 -0.110998 0)
(2.05517 -0.115068 0)
(2.05583 -0.117936 0)
(2.05673 -0.118252 0)
(2.05812 -0.120282 0)
(2.05968 -0.124633 0)
(2.06026 -0.126768 0)
(2.06095 -0.127274 0)
(2.0627 -0.129942 0)
(2.06409 -0.133894 0)
(2.06486 -0.135283 0)
(2.06575 -0.13586 0)
(2.06776 -0.138874 0)
(2.06873 -0.142618 0)
(2.06944 -0.143585 0)
(2.07015 -0.1444 0)
(2.07204 -0.147733 0)
(2.07281 -0.151131 0)
(2.07362 -0.151767 0)
(2.07453 -0.152702 0)
(2.07644 -0.155978 0)
(2.07717 -0.159089 0)
(2.07794 -0.159767 0)
(2.07879 -0.160775 0)
(2.08044 -0.163831 0)
(2.08129 -0.167217 0)
(2.08152 -0.168294 0)
(2.08302 -0.170534 0)
(2.0829 -0.174289 0)
(2.08265 -0.180188 0)
(2.08106 -0.189152 0)
(2.07754 -0.203121 0)
(2.07208 -0.222495 0)
(2.06355 -0.249237 0)
(2.05244 -0.283654 0)
(2.0394 -0.324437 0)
(2.02581 -0.370057 0)
(2.0133 -0.412276 0)
(1.99971 -0.457177 0)
(1.98591 -0.497726 0)
(1.98277 -0.523879 0)
(1.96527 -0.563735 0)
(1.96902 -0.574706 0)
(1.95625 -0.599309 0)
(1.9549 -0.611507 0)
(1.95678 -0.617932 0)
(1.90215 0.126337 0)
(1.90375 0.125954 0)
(1.90698 0.122011 0)
(1.90975 0.117386 0)
(1.91188 0.11633 0)
(1.91428 0.114663 0)
(1.91772 0.109935 0)
(1.91999 0.106785 0)
(1.92188 0.10641 0)
(1.92481 0.103591 0)
(1.92782 0.0985025 0)
(1.9298 0.0965239 0)
(1.93138 0.0964546 0)
(1.93445 0.0931809 0)
(1.93735 0.0882804 0)
(1.9394 0.0868041 0)
(1.94109 0.0862405 0)
(1.94441 0.0824228 0)
(1.9471 0.0777333 0)
(1.94907 0.0765963 0)
(1.95075 0.0758217 0)
(1.9541 0.0717317 0)
(1.95655 0.0672522 0)
(1.95835 0.0663508 0)
(1.95998 0.0653045 0)
(1.96314 0.0608767 0)
(1.96528 0.0561908 0)
(1.96688 0.0552672 0)
(1.96814 0.0545445 0)
(1.97108 0.0502969 0)
(1.97325 0.0455853 0)
(1.97489 0.0444314 0)
(1.97628 0.0435899 0)
(1.97955 0.0395969 0)
(1.98203 0.0345171 0)
(1.98385 0.0329512 0)
(1.98528 0.0325814 0)
(1.98794 0.0288521 0)
(1.98982 0.0238134 0)
(1.99119 0.022571 0)
(1.99224 0.0221471 0)
(1.99504 0.0178385 0)
(1.99681 0.0135297 0)
(1.99817 0.0128669 0)
(2.0003 0.0108188 0)
(2.00313 0.00610485 0)
(2.00466 0.00382059 0)
(2.00605 0.00306499 0)
(2.00865 -0.000798424 0)
(2.01018 -0.00490122 0)
(2.01125 -0.00559153 0)
(2.01272 -0.00746112 0)
(2.01509 -0.0123239 0)
(2.01635 -0.0154721 0)
(2.01751 -0.01587 0)
(2.01947 -0.0181982 0)
(2.02185 -0.0231976 0)
(2.02293 -0.0259444 0)
(2.02386 -0.0261496 0)
(2.02549 -0.0290749 0)
(2.02681 -0.034119 0)
(2.02732 -0.0372061 0)
(2.02767 -0.0383536 0)
(2.0284 -0.0414782 0)
(2.02916 -0.0473837 0)
(2.02909 -0.0506216 0)
(2.0292 -0.0515492 0)
(2.02981 -0.055218 0)
(2.02979 -0.0604798 0)
(2.02941 -0.0638811 0)
(2.029 -0.0659293 0)
(2.02837 -0.0691159 0)
(2.02982 -0.0735042 0)
(2.0312 -0.0751694 0)
(2.03311 -0.0759546 0)
(2.03595 -0.0778603 0)
(2.0382 -0.0809393 0)
(2.03962 -0.0830228 0)
(2.04153 -0.0835211 0)
(2.04405 -0.0861226 0)
(2.04544 -0.0903307 0)
(2.04625 -0.0919344 0)
(2.04716 -0.0925145 0)
(2.04891 -0.0962068 0)
(2.04967 -0.100456 0)
(2.05048 -0.10134 0)
(2.05161 -0.102389 0)
(2.05372 -0.1061 0)
(2.05447 -0.109415 0)
(2.05535 -0.109912 0)
(2.0565 -0.111532 0)
(2.05816 -0.115861 0)
(2.05872 -0.118329 0)
(2.05943 -0.118828 0)
(2.06114 -0.121248 0)
(2.06274 -0.125146 0)
(2.06353 -0.126738 0)
(2.06449 -0.127229 0)
(2.06648 -0.130157 0)
(2.06748 -0.133956 0)
(2.0682 -0.134972 0)
(2.06892 -0.135663 0)
(2.07081 -0.138857 0)
(2.07172 -0.142301 0)
(2.0725 -0.143057 0)
(2.07346 -0.14391 0)
(2.0752 -0.147072 0)
(2.0759 -0.150559 0)
(2.0759 -0.151743 0)
(2.07722 -0.154472 0)
(2.07691 -0.158954 0)
(2.07643 -0.165488 0)
(2.07444 -0.175801 0)
(2.07032 -0.192331 0)
(2.06394 -0.214985 0)
(2.05416 -0.245498 0)
(2.04153 -0.284434 0)
(2.02808 -0.326945 0)
(2.01271 -0.375717 0)
(1.99904 -0.418909 0)
(1.98816 -0.459338 0)
(1.97069 -0.504409 0)
(1.97178 -0.524288 0)
(1.9535 -0.562445 0)
(1.95705 -0.572581 0)
(1.94629 -0.592893 0)
(1.94365 -0.605471 0)
(1.94617 -0.609813 0)
(1.93983 -0.620495 0)
(1.94091 -0.624388 0)
(1.94156 -0.626247 0)
(1.94151 -0.629472 0)
(1.89832 0.135501 0)
(1.90062 0.133871 0)
(1.90443 0.128715 0)
(1.90682 0.125038 0)
(1.90867 0.124925 0)
(1.91117 0.123006 0)
(1.91478 0.117996 0)
(1.9172 0.114973 0)
(1.91913 0.11448 0)
(1.92212 0.111465 0)
(1.92491 0.106764 0)
(1.92689 0.105352 0)
(1.9287 0.104656 0)
(1.93208 0.100587 0)
(1.93455 0.0962865 0)
(1.93638 0.0956508 0)
(1.93832 0.0943691 0)
(1.9418 0.0897506 0)
(1.94413 0.0857936 0)
(1.94589 0.0854099 0)
(1.94787 0.0839658 0)
(1.95138 0.0793446 0)
(1.95369 0.0755571 0)
(1.95544 0.0750773 0)
(1.95747 0.0732478 0)
(1.96058 0.0683694 0)
(1.96251 0.0645755 0)
(1.96397 0.0642854 0)
(1.96552 0.062777 0)
(1.96857 0.0579595 0)
(1.97052 0.0540088 0)
(1.97209 0.0534282 0)
(1.97377 0.0519347 0)
(1.97721 0.0473933 0)
(1.97941 0.0427724 0)
(1.98116 0.04185 0)
(1.98258 0.0410866 0)
(1.98537 0.0368365 0)
(1.98713 0.0320908 0)
(1.98852 0.031281 0)
(1.98967 0.0304955 0)
(1.99262 0.0259241 0)
(1.99432 0.0220893 0)
(1.99569 0.0215911 0)
(1.99808 0.0192173 0)
(2.00077 0.0144931 0)
(2.00221 0.0125434 0)
(2.0035 0.0116865 0)
(2.00613 0.00758583 0)
(2.00767 0.00359525 0)
(2.00862 0.00296471 0)
(2.0102 0.000764834 0)
(2.01261 -0.00413971 0)
(2.01396 -0.00695019 0)
(2.01515 -0.00741134 0)
(2.01722 -0.010034 0)
(2.0194 -0.0149834 0)
(2.02042 -0.0174997 0)
(2.02114 -0.017865 0)
(2.02262 -0.0211696 0)
(2.02369 -0.026429 0)
(2.02395 -0.0292894 0)
(2.0242 -0.0308875 0)
(2.02477 -0.0340609 0)
(2.02555 -0.0395738 0)
(2.0256 -0.0435056 0)
(2.02583 -0.0446005 0)
(2.02638 -0.0475238 0)
(2.0264 -0.0529114 0)
(2.02596 -0.0564612 0)
(2.02589 -0.0585029 0)
(2.02611 -0.0613151 0)
(2.02821 -0.0640383 0)
(2.02985 -0.0662934 0)
(2.03197 -0.0669732 0)
(2.03467 -0.0687436 0)
(2.03714 -0.0717354 0)
(2.03842 -0.0744859 0)
(2.04019 -0.0748899 0)
(2.04227 -0.0769639 0)
(2.04383 -0.0814677 0)
(2.04441 -0.0838535 0)
(2.04522 -0.0843737 0)
(2.04678 -0.0873632 0)
(2.04801 -0.0918313 0)
(2.04884 -0.0932352 0)
(2.05004 -0.0938602 0)
(2.0522 -0.0971539 0)
(2.0531 -0.100931 0)
(2.05389 -0.101791 0)
(2.05479 -0.103001 0)
(2.05653 -0.107175 0)
(2.05715 -0.110047 0)
(2.05796 -0.110528 0)
(2.05963 -0.112596 0)
(2.06144 -0.116344 0)
(2.06228 -0.118172 0)
(2.06331 -0.118525 0)
(2.06522 -0.121186 0)
(2.06639 -0.1251 0)
(2.067 -0.126381 0)
(2.06773 -0.12709 0)
(2.06936 -0.130124 0)
(2.07044 -0.133891 0)
(2.07028 -0.135478 0)
(2.07163 -0.13831 0)
(2.07147 -0.143166 0)
(2.07018 -0.151135 0)
(2.06747 -0.16307 0)
(2.06237 -0.181851 0)
(2.05463 -0.207776 0)
(2.04356 -0.241537 0)
(2.02991 -0.284039 0)
(2.01578 -0.328479 0)
(2.00092 -0.377925 0)
(1.98512 -0.424103 0)
(1.97832 -0.458745 0)
(1.9573 -0.507602 0)
(1.96026 -0.523381 0)
(1.94262 -0.556726 0)
(1.94328 -0.569295 0)
(1.93898 -0.583276 0)
(1.93276 -0.598807 0)
(1.93606 -0.600726 0)
(1.93168 -0.607422 0)
(1.93111 -0.613569 0)
(1.93217 -0.614708 0)
(1.93259 -0.616932 0)
(1.93388 -0.617967 0)
(1.9354 -0.619266 0)
(1.93828 -0.618975 0)
(1.9415 -0.618719 0)
(1.89573 0.142411 0)
(1.89828 0.140588 0)
(1.90142 0.136288 0)
(1.90348 0.133894 0)
(1.90539 0.133486 0)
(1.90887 0.13015 0)
(1.91204 0.125015 0)
(1.91414 0.123473 0)
(1.91591 0.123057 0)
(1.91937 0.119279 0)
(1.92212 0.114665 0)
(1.92411 0.113698 0)
(1.92605 0.11267 0)
(1.92943 0.108324 0)
(1.93179 0.104497 0)
(1.93357 0.103964 0)
(1.93586 0.101909 0)
(1.93901 0.0970574 0)
(1.94103 0.0943008 0)
(1.94259 0.0941742 0)
(1.94527 0.0916428 0)
(1.94864 0.0866331 0)
(1.95079 0.0839514 0)
(1.9524 0.0837231 0)
(1.95496 0.0810152 0)
(1.95787 0.075891 0)
(1.95969 0.0731138 0)
(1.96096 0.0730995 0)
(1.96296 0.0706876 0)
(1.96587 0.0656246 0)
(1.96773 0.062619 0)
(1.9692 0.0622444 0)
(1.97141 0.0599319 0)
(1.97476 0.054984 0)
(1.97674 0.0511335 0)
(1.97834 0.0507637 0)
(1.97993 0.0493432 0)
(1.98277 0.0445463 0)
(1.98442 0.0403773 0)
(1.98574 0.0400324 0)
(1.98712 0.0386953 0)
(1.9902 0.0338425 0)
(1.99189 0.0304835 0)
(1.99329 0.0300185 0)
(1.99594 0.0272439 0)
(1.99835 0.0227278 0)
(1.99967 0.0212777 0)
(2.00098 0.0200557 0)
(2.00361 0.0155536 0)
(2.00504 0.0119841 0)
(2.00586 0.0115142 0)
(2.00763 0.00893075 0)
(2.01002 0.00402772 0)
(2.01143 0.00164799 0)
(2.01263 0.00104868 0)
(2.01488 -0.00211668 0)
(2.01678 -0.00705741 0)
(2.01772 -0.00914082 0)
(2.0182 -0.00979132 0)
(2.0195 -0.0136387 0)
(2.02035 -0.0188722 0)
(2.02041 -0.021576 0)
(2.02052 -0.0237172 0)
(2.02118 -0.0273039 0)
(2.02187 -0.031779 0)
(2.02223 -0.0360337 0)
(2.02252 -0.0377895 0)
(2.02274 -0.0395499 0)
(2.02286 -0.0446067 0)
(2.0227 -0.0490229 0)
(2.02325 -0.05082 0)
(2.02449 -0.0529566 0)
(2.02696 -0.054862 0)
(2.02882 -0.0575841 0)
(2.03084 -0.0586247 0)
(2.0333 -0.0598958 0)
(2.03601 -0.0628135 0)
(2.03726 -0.0662549 0)
(2.03872 -0.06699 0)
(2.04029 -0.0682898 0)
(2.04196 -0.0727723 0)
(2.04245 -0.0760397 0)
(2.04327 -0.0766916 0)
(2.04464 -0.0788836 0)
(2.04643 -0.0830864 0)
(2.04726 -0.0852285 0)
(2.04854 -0.0855667 0)
(2.05054 -0.0882661 0)
(2.05165 -0.0923768 0)
(2.05231 -0.0937314 0)
(2.05303 -0.0945512 0)
(2.05478 -0.0983052 0)
(2.05561 -0.10153 0)
(2.05659 -0.102055 0)
(2.05819 -0.103683 0)
(2.06034 -0.107234 0)
(2.06117 -0.10958 0)
(2.06216 -0.11003 0)
(2.06362 -0.112508 0)
(2.06492 -0.116677 0)
(2.06448 -0.118805 0)
(2.06541 -0.122245 0)
(2.06541 -0.127486 0)
(2.06395 -0.13627 0)
(2.06062 -0.149564 0)
(2.05442 -0.171076 0)
(2.04561 -0.200142 0)
(2.0337 -0.236524 0)
(2.0184 -0.282217 0)
(2.00315 -0.328778 0)
(1.98943 -0.37651 0)
(1.97 -0.427229 0)
(1.96829 -0.455925 0)
(1.94495 -0.506149 0)
(1.94831 -0.520799 0)
(1.93432 -0.547477 0)
(1.929 -0.566387 0)
(1.93194 -0.572901 0)
(1.92296 -0.587571 0)
(1.92371 -0.59304 0)
(1.92372 -0.595577 0)
(1.92304 -0.600415 0)
(1.9231 -0.603148 0)
(1.92404 -0.604448 0)
(1.92581 -0.604363 0)
(1.92801 -0.605495 0)
(1.93078 -0.60554 0)
(1.93419 -0.604864 0)
(1.93791 -0.604041 0)
(1.94152 -0.602951 0)
(1.94492 -0.601496 0)
(1.94821 -0.599744 0)
(1.89273 0.15018 0)
(1.89462 0.149239 0)
(1.8982 0.144932 0)
(1.90091 0.141339 0)
(1.90308 0.140426 0)
(1.9061 0.137545 0)
(1.90889 0.133218 0)
(1.91095 0.132025 0)
(1.91325 0.130687 0)
(1.91685 0.126222 0)
(1.91911 0.122799 0)
(1.92083 0.122667 0)
(1.92338 0.120625 0)
(1.9269 0.115511 0)
(1.9291 0.112393 0)
(1.93069 0.112165 0)
(1.93318 0.109553 0)
(1.9361 0.104667 0)
(1.93808 0.102584 0)
(1.93963 0.102239 0)
(1.94272 0.0990676 0)
(1.9457 0.0943402 0)
(1.94774 0.0926915 0)
(1.94943 0.0920195 0)
(1.95257 0.0882687 0)