/*--------------------------------*- C++ -*----------------------------------*\
  =========                 |
  \\      /  F ield         | OpenFOAM: The Open Source CFD Toolbox
   \\    /   O peration     | Website:  https://openfoam.org
    \\  /    A nd           | Version:  7
     \\/     M anipulation  |
\*---------------------------------------------------------------------------*/
FoamFile
{
    version     2.0;
    format      ascii;
    class       surfaceScalarField;
    location    "10";
    object      phi;
}
// * * * * * * * * * * * * * * * * * * * * * * * * * * * * * * * * * * * * * //

dimensions      [0 3 -1 0 0 0 0];

internalField   nonuniform List<scalar> 
1116
(
-0.00149264
0.000413321
9.84615e-08
-0.00189527
0.000402616
1.40973e-08
-0.00214154
0.000246357
-8.83494e-08
-0.00209523
-4.61581e-05
-1.4921e-07
-0.00175328
-0.000341795
-1.58818e-07
-0.00119033
-0.00056281
-1.3713e-07
-0.000485437
-0.000704793
-1.01328e-07
0.000294263
-0.000779636
-6.37496e-08
0.0011157
-0.000821408
-3.17417e-08
-0.000834152
-7.09055e-09
-0.00146764
0.000816268
-0.00185562
0.000790595
-0.00208257
0.000473306
-0.00201359
-0.000115135
-0.00164796
-0.000707429
-0.00106256
-0.00114821
-0.000337379
-0.00142997
0.000461711
-0.00157873
0.00129953
-0.00165923
-0.00168327
-0.00141828
0.00119862
-0.0017777
0.00115001
-0.00196752
0.000663126
-0.00185592
-0.000226736
-0.00144694
-0.00111641
-0.000821543
-0.00177361
-6.20806e-05
-0.00218943
0.000770199
-0.00241101
0.00163509
-0.00252412
-0.00255654
-0.00134579
0.00155089
-0.00166409
0.00146831
-0.00180159
0.000800633
-0.00163196
-0.000396374
-0.00116648
-0.00158189
-0.000491329
-0.00244876
0.000311128
-0.00299189
0.00117796
-0.00327784
0.00207155
-0.00341771
-0.00345437
-0.00125189
0.00186451
-0.00151823
0.00173464
-0.00159137
0.000873777
-0.00135336
-0.000634387
-0.00082517
-0.00211007
-9.81762e-05
-0.00317575
0.000744051
-0.00383412
0.00164146
-0.00417525
0.00255689
-0.00433314
-0.00436907
-0.00113868
0.00213196
-0.0013441
0.00194007
-0.00134395
0.000873628
-0.00103177
-0.00094657
-0.000440275
-0.00270157
0.000332789
-0.00394881
0.00120733
-0.00470866
0.0021247
-0.00509261
0.00304984
-0.00525828
-0.00528787
-0.00100853
0.00234684
-0.00114597
0.0020775
-0.00106638
0.000794041
-0.00067775
-0.0013352
-2.24502e-05
-0.00335687
0.000783489
-0.00475475
0.00167833
-0.0056035
0.00260211
-0.00601639
0.003523
-0.00617917
-0.00619649
-0.000864048
0.00250401
-0.000928205
0.00214166
-0.000765371
0.000631207
-0.000300103
-0.00180047
0.000398999
-0.00405597
0.00123887
-0.00559463
0.00214089
-0.00650552
0.00305703
-0.00693253
0.00396026
-0.00708239
-0.00708185
-0.000707962
0.00259952
-0.000695232
0.00212893
-0.000447266
0.000383241
9.20692e-05
-0.0023398
0.000830047
-0.00479395
0.00168716
-0.00645174
0.00258334
-0.0074017
0.00347888
-0.00782807
0.00435292
-0.00795643
-0.00793352
-0.00054314
0.00263073
-0.000451509
0.0020373
-0.000117462
4.91938e-05
0.000482003
-0.00293927
0.00125752
-0.00556946
0.00211892
-0.00731314
0.00299713
-0.00827991
0.00386109
-0.00869204
0.00469705
-0.00879239
-0.00874435
-0.000372538
0.00259628
-0.00020173
0.00186649
0.000214862
-0.000367399
0.000872941
-0.00359735
0.00167273
-0.00636925
0.00252651
-0.00816693
0.00337621
-0.0091296
0.00420007
-0.00951591
0.00499189
-0.0095842
-0.00951032
-0.000199207
0.00249614
4.92889e-05
0.001618
0.000546218
-0.000864328
0.00125568
-0.00430681
0.00206852
-0.00718208
0.002904
-0.00900242
0.00371664
-0.00994224
0.00449456
-0.0102938
0.00523896
-0.0103286
-0.0102302
-2.71162e-05
0.000303319
0.00128756
0.000872262
-0.00143327
0.00162392
-0.00505847
0.00243913
-0.00799729
0.00324717
-0.00981045
0.00401645
-0.0107115
0.00474517
-0.0110225
0.00544136
-0.0110248
-0.0109052
0.00055059
0.000882382
0.00118836
-0.00207104
0.00197266
-0.00584277
0.00278026
-0.00880488
0.00355343
-0.0105836
0.00427534
-0.0114334
0.00495395
-0.0117012
0.00560318
-0.011674
-0.0115379
0.000790197
0.0004044
0.00149114
-0.00277199
0.00229809
-0.00664972
0.00308896
-0.00959575
0.00382171
-0.0113164
0.00449438
-0.0121061
0.00512396
-0.0123307
0.00572899
-0.012279
0.00632325
-0.0121321
-0.0119756
0.00102079
-0.000143934
0.00177818
-0.00352938
0.00259747
-0.00746901
0.00336358
-0.0103619
0.00405219
-0.012005
0.00467568
-0.0127296
0.00525885
-0.0129139
0.00582352
-0.0128437
0.00638374
-0.0126924
-0.0125421
0.00124195
-0.000760157
0.00204781
-0.00433524
0.00286898
-0.00829017
0.00360355
-0.0110964
0.00424611
-0.0126475
0.00482209
-0.0133056
0.00536259
-0.0134544
0.00589129
-0.0133724
0.00642207
-0.0132232
-0.0130854
0.00145409
-0.0014417
0.00229885
-0.00517999
0.00311152
-0.00910285
0.00380923
-0.0117942
0.00440548
-0.0132438
0.00493691
-0.013837
0.00543915
-0.0139567
0.0059365
-0.0138698
0.00644228
-0.0137289
-0.0136092
0.00165806
-0.00218529
0.00253031
-0.00605224
0.00332463
-0.00989717
0.00398172
-0.0124512
0.00453291
-0.013795
0.00502364
-0.0143277
0.00549235
-0.0144254
0.0059629
-0.0143403
0.00644774
-0.0142138
-0.0141168
0.00185453
-0.00298606
0.0027412
-0.0069389
0.00350834
-0.0106643
0.00412277
-0.0130657
0.00463136
-0.0143036
0.00508582
-0.0147822
0.00552571
-0.0148652
0.0059737
-0.0147883
0.00644119
-0.0146813
-0.0146108
0.00204337
-0.0038366
0.00293046
-0.007826
0.00366321
-0.0113971
0.00423459
-0.0136371
0.00470399
-0.014773
0.0051268
-0.015205
0.00554238
-0.0152808
0.00597161
-0.0152175
0.00642478
-0.0151344
0.00222339
-0.00472644
0.00309715
-0.00869976
0.00379031
-0.0120902
0.00431976
-0.0141665
0.00475395
-0.0152072
0.00514972
-0.0156008
0.00554509
-0.0156762
0.00595888
-0.0156313
0.00239241
-0.00564219
0.00324061
-0.00954796
0.00389119
-0.0127408
0.00438105
-0.0146564
0.00478431
-0.0156104
0.00515739
-0.0159738
0.00553616
-0.016055
-0.0160325
0.00254775
-0.00656862
0.00336072
-0.0103609
0.00396782
-0.0133479
0.0044213
-0.0151099
0.00479793
-0.015987
0.00515224
-0.0163282
0.00551753
-0.0164203
-0.0164232
0.0026869
-0.00749026
0.00345798
-0.011132
0.00402246
-0.0139124
0.00444329
-0.0155307
0.00479739
-0.0163411
0.0051364
-0.0166672
0.00549078
-0.0167746
0.00280799
-0.00839309
0.0035335
-0.0118575
0.00405756
-0.0144364
0.00444964
-0.0159228
0.00478496
-0.0166765
0.00511162
-0.0169938
-0.0171202
0.0029101
-0.00926579
0.0035889
-0.0125363
0.00407557
-0.0149231
0.00444273
-0.0162899
0.0047626
-0.0169963
0.00507937
-0.0173106
0.00299322
-0.0101003
0.0036261
-0.0131692
0.00407886
-0.0153759
0.00442469
-0.0166358
0.00473196
-0.0173036
-0.0176195
0.00305812
0.00364713
-0.0137582
0.00406961
-0.0157984
0.00439737
-0.0169635
0.00469444
-0.0176007
-0.017922
0.00365407
-0.0143062
0.00404979
-0.0161941
0.00436233
-0.0172761
0.00465116
-0.0178895
0.00364886
-0.0148165
0.00402112
-0.0165663
0.0043209
-0.0175758
-0.0181717
0.00363328
-0.0152925
0.00398509
-0.0169181
0.00427416
-0.0178649
-0.0184484
0.00360893
-0.0157373
0.00394295
-0.0172522
0.00422302
-0.018145
0.0035772
-0.0161542
0.00389575
-0.0175707
-0.0184174
0.00353929
-0.0165461
0.00384438
-0.0178758
-0.0186834
0.00349622
-0.0169155
0.00378955
-0.0181691
-0.0189436
0.00344886
-0.0172648
0.00373185
-0.0184521
-0.0191989
0.00339794
0.00367177
-0.0187259
-0.0189916
-0.0192498
-0.0195011
-0.019746
0.0197461
0.0195011
0.0192498
0.0189916
0.018726
0.00339794
0.0172649
0.0184522
0.00344886
0.0169155
0.00373185
0.0181692
0.0189437
0.00349622
0.0165461
0.00378954
0.0178759
0.0186834
0.00353929
0.0161543
0.00384437
0.0175708
0.0184175
0.0035772
0.0157374
0.00389574
0.0172522
0.018145
0.00360893
0.0152925
0.00394294
0.0169182
0.00422301
0.017865
0.0184484
0.00363328
0.0148166
0.00398508
0.0165664
0.00427415
0.0175759
0.0181717
0.00364886
0.0143063
0.00402112
0.0161942
0.00432089
0.0172761
0.0178895
0.00365407
0.0137583
0.00404978
0.0157984
0.00436232
0.0169636
0.00465115
0.0176007
0.017922
0.00305812
0.0101004
0.00364713
0.0131693
0.0040696
0.015376
0.00439736
0.0166358
0.00469443
0.0173036
0.0176195
0.00299323
0.0092659
0.00362609
0.0125365
0.00407885
0.0149232
0.00442468
0.01629
0.00473195
0.0169964
0.0173106
0.00291011
0.00839321
0.0035889
0.0118577
0.00407556
0.0144366
0.00444272
0.0159228
0.00476258
0.0166765
0.00507936
0.0169938
0.0171202
0.002808
0.00749039
0.0035335
0.0111322
0.00405755
0.0139125
0.00444962
0.0155308
0.00478495
0.0163412
0.00511161
0.0166672
0.0167746
0.00268691
0.00656876
0.00345798
0.0103611
0.00402245
0.013348
0.00444328
0.0151099
0.00479738
0.0159871
0.00513639
0.0163282
0.0164202
0.00254777
0.00564233
0.00336072
0.00954814
0.00396781
0.012741
0.00442129
0.0146565
0.00479792
0.0156105
0.00515223
0.0159739
0.00551752
0.016055
0.0160324
0.00239243
0.00472658
0.00324062
0.00869996
0.00389119
0.0120904
0.00438104
0.0141666
0.0047843
0.0152072
0.00515737
0.0156008
0.00553615
0.0156762
0.0156313
0.00222342
0.00383675
0.00309716
0.00782621
0.00379031
0.0113972
0.00431975
0.0136372
0.00475393
0.014773
0.00514971
0.015205
0.00554507
0.0152808
0.00595886
0.0152175
0.0151344
0.0020434
0.00298621
0.00293048
0.00693913
0.00366321
0.0106645
0.00423458
0.0130658
0.00470397
0.0143036
0.00512679
0.0147822
0.00554237
0.0148652
0.0059716
0.0147883
0.0146812
0.00185456
0.00218544
0.00274121
0.00605248
0.00350834
0.00989737
0.00412276
0.0124514
0.00463135
0.013795
0.0050858
0.0143277
0.0055257
0.0144253
0.00597368
0.0143403
0.00644118
0.0142137
0.0141168
0.0016581
0.00144185
0.00253033
0.00518024
0.00332463
0.00910307
0.00398171
0.0117943
0.0045329
0.0132439
0.00502363
0.013837
0.00549233
0.0139566
0.00596288
0.0138697
0.00644774
0.0137289
0.0136092
0.00145413
0.000760301
0.00229887
0.0043355
0.00311153
0.00829041
0.00380922
0.0110966
0.00440547
0.0126476
0.00493689
0.0133056
0.00543913
0.0134544
0.00593649
0.0133724
0.00644227
0.0132231
0.0130853
0.00124199
0.000144074
0.00204784
0.00352965
0.00286899
0.00746926
0.00360356
0.010362
0.0042461
0.0120051
0.00482207
0.0127296
0.00536257
0.0129139
0.00589127
0.0128437
0.00642206
0.0126923
0.012542
0.00102083
-0.000404266
0.00177822
0.00277226
0.00259749
0.00664998
0.00336359
0.00959593
0.00405219
0.0113165
0.00467567
0.0121061
0.00525884
0.0123307
0.0058235
0.012279
0.00638373
0.0121321
0.0119756
0.00079024
-0.000882255
0.00149118
0.00207132
0.00229812
0.00584305
0.00308897
0.00880508
0.00382171
0.0105837
0.00449437
0.0114335
0.00512395
0.0117011
0.00572898
0.011674
0.00632324
0.0115378
0.000550635
-0.00128744
0.00118841
0.00143355
0.0019727
0.00505876
0.00278027
0.0079975
0.00355343
0.00981057
0.00427534
0.0107116
0.00495394
0.0110225
0.00560317
0.0110248
0.0109051
-2.70804e-05
-0.00249622
0.000303366
-0.00161789
0.000872311
0.000864604
0.00162396
0.00430711
0.00243916
0.0071823
0.00324718
0.00900255
0.00401645
0.0099423
0.00474516
0.0102938
0.00544135
0.0103286
0.0102302
-0.000199169
-0.00259637
4.93399e-05
-0.0018664
0.000546271
0.000367673
0.00125573
0.00359765
0.00206855
0.00636949
0.00290402
0.00816708
0.00371664
0.00912967
0.00449456
0.00951591
0.00523895
0.00958417
0.00951027
-0.000372501
-0.00263084
-0.00020168
-0.00203722
0.000214919
-4.89264e-05
0.000872991
0.00293958
0.00167276
0.00556972
0.00252653
0.00731331
0.00337621
0.00827999
0.00420007
0.00869205
0.00499188
0.00879236
0.0087443
-0.000543103
-0.00259964
-0.000451458
-0.00212886
-0.000117402
-0.000382983
0.000482058
0.00234012
0.00125756
0.00479422
0.00211895
0.00645192
0.00299714
0.0074018
0.00386109
0.0078281
0.00469704
0.00795641
0.00793348
-0.000707926
-0.00250414
-0.000695182
-0.00214161
-0.000447206
-0.000630959
9.21258e-05
0.00180079
0.000830093
0.00405625
0.00168719
0.00559482
0.00258335
0.00650563
0.00347888
0.00693257
0.00435291
0.00708238
0.0070818
-0.000864014
-0.00234699
-0.000928157
-0.00207747
-0.000765311
-0.000793804
-0.000300043
0.00133552
0.000399048
0.00335716
0.00123891
0.00475496
0.00214091
0.00560363
0.00305704
0.00601644
0.00396025
0.00617917
0.00619646
-0.0010085
-0.00213211
-0.00114592
-0.00194005
-0.00106632
-0.000873403
-0.000677691
0.000946887
-2.23966e-05
0.00270187
0.000783525
0.00394904
0.00167835
0.0047088
0.00260212
0.00509268
0.003523
0.00525829
0.00528785
-0.00113865
-0.00186468
-0.00134406
-0.00173464
-0.0013439
-0.000873564
-0.00103171
0.000634701
-0.000440225
0.00211038
0.000332825
0.00317599
0.00120735
0.00383427
0.0021247
0.00417533
0.00304983
0.00433316
0.00436905
-0.00125187
-0.00155107
-0.00151819
-0.00146831
-0.00159132
-0.000800431
-0.00135331
0.000396684
-0.000825124
0.0015822
-9.81417e-05
0.00244901
0.000744071
0.00299206
0.00164147
0.00327793
0.00255688
0.00341774
0.00345436
-0.00134577
-0.0011988
-0.00166406
-0.00115003
-0.00180155
-0.000662935
-0.00163191
0.000227041
-0.00116644
0.00111672
-0.000491299
0.00177387
0.000311146
0.00218962
0.00117796
0.00241111
0.00207154
0.00252416
0.00255653
-0.00141827
-0.00081646
-0.00177768
-0.000790616
-0.00196749
-0.000473122
-0.00185589
0.000115437
-0.00144691
0.000707745
-0.000821519
0.00114848
-6.20667e-05
0.00143016
0.000770202
0.00157884
0.00163509
0.00165928
0.00168328
-0.00146763
-0.000413517
-0.00185561
-0.000402642
-0.00208255
-0.000246178
-0.00201357
4.64574e-05
-0.00164794
0.000342112
-0.00106254
0.000563083
-0.00033737
0.000704994
0.000461713
0.000779761
0.00129952
0.000821469
0.000834164
-0.00149264
-0.00189527
-0.00214153
-0.00209522
-0.00175327
-0.00119033
-0.000485434
0.000294263
0.0011157
)
;

boundaryField
{
    inlet
    {
        type            calculated;
        value           nonuniform 0();
    }
    outlet
    {
        type            calculated;
        value           nonuniform 0();
    }
    cylinder
    {
        type            calculated;
        value           nonuniform 0();
    }
    top
    {
        type            symmetryPlane;
        value           nonuniform 0();
    }
    bottom
    {
        type            symmetryPlane;
        value           nonuniform 0();
    }
    defaultFaces
    {
        type            empty;
        value           nonuniform 0();
    }
    procBoundary28to19
    {
        type            processor;
        value           nonuniform List<scalar> 
17
(
-0.00310759
-0.00316913
-0.00322923
-0.00328771
-0.00334405
-0.0175963
-0.00306656
-0.00309951
-0.0031268
-0.00314744
-0.0031603
-0.00316409
-0.00315737
-0.00313857
-0.00310605
-0.010892
-0.00226659
)
;
    }
    procBoundary28to20
    {
        type            processor;
        value           nonuniform List<scalar> 
31
(
-0.019985
0.00334652
0.00341409
0.00348057
0.00354589
0.00360968
0.00367176
-0.0191989
0.00398707
0.0040498
0.0041103
0.0041682
-0.0187206
0.00449522
0.00455087
0.00460305
-0.0182195
0.00494859
0.00499698
0.00504083
-0.0174587
0.00541781
0.00545719
0.00549077
-0.0164232
0.00590829
0.00593728
-0.0155757
0.00640019
0.00642477
-0.0146107
)
;
    }
    procBoundary28to21
    {
        type            processor;
        value           nonuniform List<scalar> 2(0.00693514 0.00695534);
    }
    procBoundary28to27
    {
        type            processor;
        value           nonuniform List<scalar> 
58
(
0.00107922
0.00106469
0.00103593
0.000993516
0.000938268
0.000871236
0.000793647
0.000706884
0.000612446
0.000511929
0.000406995
0.000299343
0.000190664
0.00233259
-0.000145411
-0.000312216
-0.000472459
-0.000625729
-0.000772552
-0.000914472
-0.00105376
-0.00119283
-0.00133356
-0.00147666
-0.00162132
-0.00176526
-0.00190517
-0.0020374
-0.00215867
-0.00215869
-0.00203742
-0.00190519
-0.00176528
-0.00162134
-0.00147668
-0.00133358
-0.00119285
-0.00105379
-0.000914503
-0.000772584
-0.000625762
-0.000472493
-0.000312251
-0.000145448
0.00233267
0.000190638
0.000299318
0.00040697
0.000511905
0.000612423
0.000706863
0.000793628
0.000871219
0.000938254
0.000993505
0.00103593
0.00106469
0.00107922
)
;
    }
    procBoundary28to29
    {
        type            processor;
        value           nonuniform List<scalar> 
39
(
0.00194986
0.00214865
0.00250836
0.00296939
0.00347159
0.00396864
0.00443162
0.00484561
0.0052046
0.00550787
0.00575786
0.00595889
0.00611631
0.00623587
0.0113817
0.0069171
0.00695021
0.00696536
0.00696613
0.00695534
0.00696612
0.00696535
0.00695021
0.0069171
0.0113817
0.00623586
0.0061163
0.00595888
0.00575785
0.00550786
0.00520459
0.0048456
0.00443161
0.00396862
0.00347157
0.00296937
0.00250834
0.00214864
0.00194986
)
;
    }
    procBoundary28to35
    {
        type            processor;
        value           nonuniform List<scalar> 
17
(
-0.00226657
-0.0108919
-0.00310604
-0.00313857
-0.00315736
-0.00316408
-0.0031603
-0.00314744
-0.0031268
-0.00309951
-0.00306656
-0.0175962
-0.00334405
-0.00328771
-0.00322923
-0.00316913
-0.00310759
)
;
    }
    procBoundary28to36
    {
        type            processor;
        value           nonuniform List<scalar> 
30
(
-0.0150932
0.00640019
-0.0155758
0.0059373
0.0059083
0.00587303
-0.0168055
0.00545721
0.00541782
-0.0174587
0.00504084
0.00499699
0.0049486
-0.0182195
0.00460306
0.00455088
0.00449523
-0.0187206
0.00416821
0.00411031
0.00404981
0.00398708
0.00392241
-0.0194495
0.00360968
0.0035459
0.00348057
0.00341409
0.00334652
-0.019985
)
;
    }
    procBoundary28to37
    {
        type            processor;
        value           nonuniform List<scalar> 2(0.00693515 0.00690717);
    }
}


// ************************************************************************* //
