/*--------------------------------*- C++ -*----------------------------------*\
  =========                 |
  \\      /  F ield         | OpenFOAM: The Open Source CFD Toolbox
   \\    /   O peration     | Website:  https://openfoam.org
    \\  /    A nd           | Version:  7
     \\/     M anipulation  |
\*---------------------------------------------------------------------------*/
FoamFile
{
    version     2.0;
    format      ascii;
    class       volScalarField;
    location    "12";
    object      T;
}
// * * * * * * * * * * * * * * * * * * * * * * * * * * * * * * * * * * * * * //

dimensions      [0 0 0 1 0 0 0];

internalField   nonuniform List<scalar> 
2413
(
1.00431
1.0046
1.00715
1.01329
1.02343
1.03418
1.04319
1.04851
1.00439
1.00357
1.00334
1.00373
1.00612
1.01191
1.0199
1.03028
1.00672
1.00475
1.0035
1.00273
1.00211
1.00241
1.00435
1.00914
1.01174
1.00813
1.00537
1.00342
1.00214
1.00141
1.00098
1.00099
1.01771
1.01368
1.00985
1.00674
1.00416
1.00237
1.00114
1.0003
1.02269
1.01926
1.01549
1.01187
1.0086
1.00551
1.00313
1.00161
1.02593
1.02362
1.02076
1.01736
1.01392
1.01067
1.00743
1.00478
1.02704
1.02615
1.02453
1.02224
1.01935
1.01623
1.01293
1.0096
1.02607
1.02618
1.02591
1.02497
1.02334
1.02098
1.01815
1.01495
1.02286
1.02486
1.02557
1.02564
1.02514
1.02378
1.02184
1.01942
1.01686
1.02072
1.024
1.02503
1.02496
1.02435
1.02344
1.02228
1.01013
1.01415
1.01883
1.02244
1.02366
1.02367
1.0235
1.02323
1.0061
1.00857
1.01217
1.01693
1.02013
1.02187
1.02283
1.02306
1.00522
1.00627
1.00784
1.0107
1.01454
1.01757
1.02015
1.02206
1.00569
1.00598
1.00671
1.00763
1.00949
1.01229
1.01551
1.01857
1.00678
1.00658
1.00674
1.00704
1.0078
1.00894
1.01081
1.01364
1.00944
1.00813
1.00745
1.00747
1.0078
1.00829
1.00889
1.0101
1.0133
1.01107
1.00979
1.00883
1.00816
1.00823
1.0086
1.00916
1.01771
1.01473
1.01295
1.01151
1.01012
1.00922
1.00921
1.00926
0.996586
1.02031
1.02464
1.02481
1.02372
1.02171
1.01999
1.01849
1.01745
1.01666
1.01623
1.01632
1.01676
1.01761
1.01876
1.02081
1.0233
1.02554
1.02732
1.02861
1.02911
1.02915
1.02911
1.02868
1.028
1.02739
1.02688
1.02642
1.02596
1.02557
1.02533
1.0248
1.02405
1.02315
1.02219
1.02121
1.01997
1.01867
1.05059
1.05177
1.0521
1.0514
1.05014
1.04857
1.04667
1.0447
1.04271
1.04069
1.03863
1.03648
1.03411
1.03148
1.02867
1.02575
1.02284
1.02002
1.0172
1.01429
1.01143
1.00873
1.00613
1.00339
1.00053
0.997931
0.995506
0.992858
0.989883
0.987554
0.985502
0.983113
0.980152
0.978021
0.976191
0.974031
0.971095
0.968463
0.966761
0.964864
0.962339
0.959349
0.95773
0.95629
0.954358
0.951516
0.94928
0.948114
0.946636
0.944442
0.94167
0.940415
0.939425
0.937859
0.935262
0.933243
0.932335
0.931174
0.929228
0.926953
0.926195
0.925545
0.924264
0.922161
0.921183
0.920619
0.919537
0.917455
0.916139
0.915555
0.914712
0.913288
0.912562
0.912466
0.912023
0.910875
0.910315
0.909705
0.909488
0.910274
0.914099
0.927496
0.96357
1.00373
1.02604
1.02998
1.02982
1.02845
1.02656
1.02447
1.02348
1.02287
1.0224
1.02251
1.0229
1.02353
1.02427
1.025
1.02559
1.02607
1.02675
1.02748
1.02819
1.02896
1.02946
1.02948
1.02935
1.02903
1.02854
1.02817
1.02789
1.02761
1.02733
1.02711
1.0266
1.0259
1.02514
1.0243
1.02325
1.02204
1.03851
1.04176
1.04524
1.04658
1.04656
1.04636
1.04543
1.04399
1.04247
1.04093
1.03938
1.03768
1.03573
1.0336
1.03141
1.02917
1.0269
1.02455
1.022
1.01923
1.01636
1.01358
1.01083
1.00802
1.00518
1.00249
0.999965
0.997354
0.994464
0.991927
0.989733
0.987338
0.984433
0.982141
0.980222
0.978096
0.975267
0.972748
0.971029
0.969154
0.966718
0.963834
0.962191
0.960708
0.958772
0.955983
0.953789
0.952666
0.951246
0.949134
0.946464
0.945228
0.944214
0.942658
0.940135
0.938098
0.937186
0.936046
0.934184
0.931956
0.931137
0.930448
0.929196
0.927137
0.926064
0.925483
0.924464
0.922523
0.921237
0.920638
0.919772
0.918434
0.917785
0.917617
0.917218
0.916187
0.915456
0.915294
0.914811
0.91478
0.915909
0.920489
0.936053
0.972626
1.01244
1.0346
1.03682
1.03648
1.03514
1.0327
1.03056
1.02961
1.02883
1.02913
1.02989
1.03051
1.03112
1.03123
1.03092
1.03017
1.02929
1.0288
1.02878
1.02866
1.02858
1.02868
1.02898
1.02911
1.02897
1.02875
1.02859
1.02843
1.02838
1.02822
1.02773
1.0272
1.02667
1.02604
1.02527
1.02428
1.01596
1.02251
1.02854
1.03413
1.03831
1.04139
1.0417
1.04108
1.04044
1.03977
1.0388
1.03742
1.0358
1.03409
1.03229
1.03042
1.02856
1.02673
1.02483
1.02274
1.02051
1.01821
1.01574
1.01306
1.01037
1.00781
1.00531
1.00272
0.99997
0.997345
0.99494
0.992454
0.98961
0.987155
0.985113
0.982988
0.980272
0.977823
0.975996
0.974096
0.971692
0.968892
0.967208
0.965665
0.963737
0.961004
0.958907
0.9578
0.956399
0.954333
0.951704
0.950438
0.949389
0.94783
0.945358
0.94339
0.942488
0.941351
0.939524
0.937351
0.936496
0.935733
0.934435
0.932407
0.93133
0.930718
0.929705
0.927871
0.926672
0.926068
0.925143
0.923808
0.923205
0.923086
0.922698
0.921964
0.921265
0.92109
0.921145
0.920827
0.920865
0.922224
0.92722
0.94354
0.979723
1.01875
1.0433
1.04565
1.04577
1.04409
1.04101
1.03889
1.03649
1.03508
1.03533
1.03535
1.03586
1.03652
1.03644
1.03593
1.03476
1.03316
1.03194
1.03093
1.0303
1.02991
1.02951
1.02899
1.02856
1.02833
1.02822
1.02822
1.02826
1.028
1.02758
1.0272
1.02677
1.02619
1.02542
1.02447
1.00186
1.00437
1.00853
1.01412
1.02024
1.02543
1.02976
1.03315
1.03556
1.03647
1.03571
1.0349
1.03432
1.0335
1.03223
1.03071
1.029
1.02726
1.02542
1.0236
1.02191
1.02023
1.01841
1.01636
1.01423
1.01218
1.01006
1.00774
1.00532
1.00297
1.00068
0.998284
0.995648
0.993188
0.991045
0.988878
0.986282
0.983871
0.981922
0.979989
0.977627
0.974909
0.973106
0.971489
0.969578
0.966944
0.964924
0.96374
0.962292
0.960222
0.957619
0.956298
0.955191
0.953622
0.951206
0.949317
0.948455
0.947319
0.945478
0.943327
0.942424
0.941565
0.940167
0.938149
0.937132
0.936566
0.93557
0.933833
0.932751
0.932287
0.931392
0.930033
0.929353
0.929369
0.92913
0.928472
0.927931
0.927957
0.92818
0.928004
0.927626
0.927713
0.92912
0.934135
0.94963
0.984374
1.02238
1.05008
1.0582
1.05773
1.05583
1.05286
1.04994
1.04665
1.04502
1.04319
1.04095
1.0408
1.04017
1.03943
1.03882
1.03739
1.0362
1.03501
1.03376
1.03284
1.03173
1.03071
1.02987
1.02915
1.02851
1.02805
1.0278
1.02748
1.02698
1.02656
1.02607
1.02545
1.02467
1.02373
0.999742
0.999329
0.999447
1.00038
1.00265
1.00633
1.01081
1.01598
1.02051
1.02453
1.02772
1.02917
1.03021
1.03028
1.02983
1.02907
1.02825
1.02707
1.02551
1.02376
1.02224
1.02066
1.01897
1.01723
1.01559
1.014
1.01229
1.01039
1.0084
1.00655
1.00474
1.0028
1.00069
0.998632
0.996738
0.994762
0.992416
0.990151
0.988255
0.986405
0.98416
0.981647
0.979833
0.978153
0.976242
0.973703
0.971748
0.970434
0.968897
0.966813
0.964272
0.962918
0.961757
0.96017
0.957791
0.955995
0.955126
0.953931
0.952018
0.949842
0.948929
0.948051
0.946586
0.944569
0.94365
0.943169
0.942176
0.940419
0.939428
0.939103
0.938277
0.936772
0.936051
0.936131
0.93594
0.935137
0.934588
0.934729
0.934828
0.934419
0.93416
0.934066
0.933999
0.934994
0.938775
0.953105
0.985526
1.02415
1.05251
1.06908
1.06945
1.06849
1.06663
1.06257
1.05934
1.05609
1.05225
1.05022
1.04797
1.04545
1.04385
1.04153
1.03996
1.03868
1.03674
1.03553
1.03412
1.03277
1.03175
1.03063
1.02964
1.02869
1.0281
1.02747
1.02655
1.02584
1.02517
1.02443
1.02365
1.02272
1.00041
0.999509
0.999016
0.998099
0.997512
0.997444
0.998206
1.00014
1.00326
1.0069
1.01093
1.01486
1.01811
1.02091
1.02281
1.02362
1.02412
1.02406
1.02359
1.02264
1.02155
1.02027
1.01879
1.01732
1.01595
1.0145
1.0129
1.01121
1.00955
1.008
1.00642
1.00475
1.00304
1.00139
0.999803
0.998122
0.996221
0.994388
0.992829
0.991295
0.989355
0.987202
0.985578
0.984034
0.982251
0.979857
0.978009
0.97672
0.975204
0.973168
0.970773
0.9695
0.968327
0.9667
0.964325
0.962631
0.961702
0.960408
0.958406
0.956176
0.955278
0.954436
0.952956
0.950902
0.950038
0.94953
0.948452
0.946531
0.945418
0.94502
0.944156
0.942438
0.941363
0.941326
0.941006
0.939829
0.939003
0.93908
0.939062
0.938335
0.937688
0.937844
0.937831
0.937239
0.937875
0.941234
0.952864
0.981198
1.02037
1.05063
1.06969
1.07941
1.07976
1.07882
1.07606
1.07184
1.06625
1.06222
1.05837
1.05476
1.0521
1.04892
1.04634
1.04416
1.0411
1.03892
1.03701
1.03467
1.03342
1.03193
1.03072
1.02971
1.02874
1.02768
1.02621
1.025
1.02403
1.02293
1.02206
1.021
1.00276
1.00091
0.999608
0.998547
0.997513
0.996982
0.996421
0.995794
0.995373
0.995681
0.996734
0.998843
1.0018
1.00503
1.00819
1.01119
1.01359
1.01538
1.01648
1.01717
1.01744
1.01723
1.01686
1.01599
1.01485
1.01366
1.01243
1.01123
1.01005
1.00876
1.00733
1.00577
1.00418
1.00266
1.00114
0.99958
0.998013
0.996461
0.994957
0.993432
0.991676
0.989782
0.988343
0.986999
0.985418
0.983197
0.981475
0.980356
0.97899
0.977001
0.974803
0.973726
0.972602
0.970952
0.968571
0.966951
0.965988
0.964622
0.962581
0.960335
0.959422
0.958548
0.956999
0.954807
0.953838
0.953216
0.951994
0.949891
0.948507
0.947951
0.946978
0.94517
0.943578
0.943262
0.942805
0.941476
0.940273
0.940206
0.940234
0.93959
0.938805
0.938878
0.938935
0.938211
0.937085
0.937003
0.938872
0.947468
0.970544
1.00993
1.05031
1.06962
1.08087
1.08652
1.08628
1.08443
1.07961
1.07423
1.06838
1.06336
1.05967
1.0558
1.05278
1.05006
1.04653
1.04384
1.04158
1.03863
1.03671
1.03476
1.03261
1.03095
1.02916
1.02754
1.02571
1.02425
1.02303
1.02139
1.01998
1.01863
1.00692
1.00457
1.00231
1.00064
0.999151
0.99785
0.996905
0.996117
0.995184
0.994381
0.993668
0.993191
0.993013
0.993425
0.994471
0.996227
0.998375
1.00079
1.00309
1.00516
1.00707
1.00846
1.00943
1.00998
1.01037
1.0105
1.01011
1.00925
1.00841
1.00761
1.00665
1.00551
1.00427
1.00313
1.00191
1.00053
0.999166
0.997787
0.996291
0.994737
0.993034
0.991264
0.989765
0.988354
0.986763
0.98478
0.98318
0.98195
0.980513
0.978514
0.97634
0.975181
0.973991
0.97231
0.969921
0.968329
0.967451
0.966143
0.964116
0.961987
0.961073
0.960088
0.958422
0.955997
0.954885
0.95423
0.952986
0.95081
0.949468
0.949005
0.948095
0.946351
0.944369
0.943891
0.943558
0.942302
0.940615
0.940385
0.940609
0.940038
0.939121
0.938874
0.938414
0.937357
0.935946
0.9343
0.933225
0.934131
0.93883
0.954455
0.98701
1.03001
1.06808
1.0818
1.0869
1.08758
1.08662
1.0837
1.07821
1.07203
1.06671
1.06086
1.05716
1.05446
1.0511
1.04844
1.04609
1.04274
1.04022
1.03782
1.03485
1.03265
1.03029
1.02819
1.02623
1.02433
1.02266
1.02061
1.01868
1.01709
1.01199
1.00941
1.00676
1.00448
1.00259
1.00071
0.9989
0.997603
0.996389
0.995235
0.994346
0.993591
0.992668
0.991722
0.990871
0.990223
0.989891
0.990025
0.990656
0.991873
0.993368
0.995029
0.996636
0.998203
0.999734
1.00108
1.00201
1.0025
1.00276
1.00312
1.00302
1.00241
1.00178
1.00123
1.00054
0.999582
0.998364
0.997074
0.995874
0.994613
0.993242
0.991888
0.990528
0.989079
0.987443
0.985586
0.984198
0.982924
0.981405
0.979407
0.977266
0.976048
0.974813
0.973139
0.970785
0.969173
0.968318
0.967038
0.964954
0.962777
0.96189
0.960886
0.95919
0.956748
0.955426
0.954803
0.953641
0.951397
0.949962
0.949598
0.948766
0.947059
0.944971
0.944293
0.943878
0.942827
0.940762
0.939794
0.939546
0.938707
0.936789
0.936238
0.935779
0.934508
0.933209
0.93191
0.929775
0.92738
0.92523
0.926682
0.934316
0.956526
0.996984
1.03702
1.07033
1.08628
1.08814
1.08695
1.08431
1.08073
1.07553
1.06887
1.06344
1.05914
1.05464
1.05166
1.04906
1.04536
1.04243
1.04003
1.03664
1.03408
1.03165
1.02936
1.02727
1.02475
1.02296
1.02103
1.01871
1.01674
1.01688
1.01446
1.01197
1.00951
1.00731
1.00514
1.00282
1.0009
0.999246
0.997544
0.995826
0.994546
0.993361
0.992172
0.991243
0.990543
0.989543
0.988565
0.987707
0.987008
0.986638
0.986458
0.98662
0.987261
0.988153
0.98909
0.989954
0.99094
0.99194
0.99297
0.993784
0.994197
0.994414
0.994703
0.994878
0.994468
0.993832
0.99326
0.992625
0.991718
0.990649
0.989563
0.988383
0.987129
0.985733
0.984095
0.982657
0.98141
0.98001
0.978169
0.976302
0.975246
0.974077
0.97241
0.970095
0.968639
0.967627
0.966213
0.964071
0.961671
0.960676
0.959741
0.958129
0.955648
0.954467
0.953804
0.952566
0.950127
0.948408
0.947486
0.94621
0.944314
0.94212
0.940674
0.939769
0.938658
0.936569
0.934671
0.93412
0.933252
0.931193
0.929821
0.928876
0.927224
0.925587
0.924294
0.922607
0.920465
0.918507
0.91664
0.916377
0.919194
0.931432
0.957159
1.0017
1.04236
1.06905
1.08383
1.08414
1.08322
1.08038
1.0761
1.0705
1.06436
1.05836
1.05516
1.05236
1.04866
1.04562
1.0431
1.03968
1.03671
1.03409
1.0311
1.02867
1.02595
1.02359
1.02166
1.01919
1.01706
1.02076
1.01895
1.01688
1.01465
1.01242
1.01014
1.00769
1.00534
1.0033
1.00126
0.999112
0.997411
0.995937
0.994397
0.992856
0.9917
0.990536
0.989379
0.988259
0.98754
0.986683
0.985837
0.984975
0.984295
0.983747
0.983302
0.98287
0.982786
0.982966
0.983247
0.983374
0.983568
0.983934
0.984497
0.984767
0.984667
0.984615
0.984666
0.984663
0.98399
0.983241
0.982704
0.98211
0.981136
0.979941
0.978699
0.977725
0.97676
0.975479
0.973771
0.97207
0.971052
0.969934
0.968354
0.966157
0.964627
0.96369
0.962398
0.960375
0.958101
0.957016
0.955938
0.954285
0.95171
0.950053
0.949052
0.947707
0.945341
0.943238
0.942111
0.94073
0.938686
0.936503
0.934702
0.933204
0.931769
0.929816
0.927576
0.926455
0.925549
0.923874
0.922486
0.92174
0.920588
0.919316
0.918747
0.918055
0.917019
0.916276
0.915509
0.914824
0.914497
0.915142
0.918477
0.932571
0.965141
1.00833
1.04939
1.06971
1.07748
1.07723
1.0764
1.07359
1.0688
1.06274
1.0588
1.05567
1.05176
1.04872
1.04611
1.04267
1.03959
1.03698
1.03375
1.03118
1.02853
1.02581
1.02359
1.02098
1.01847
1.02268
1.02172
1.02038
1.01875
1.01687
1.01478
1.01247
1.01011
1.00793
1.00578
1.00351
1.00145
0.999649
0.997834
0.995932
0.994389
0.993024
0.991656
0.990175
0.989035
0.988012
0.98701
0.985874
0.985017
0.984352
0.983547
0.982646
0.981653
0.980981
0.980257
0.979486
0.978538
0.977977
0.977665
0.977187
0.976427
0.975831
0.975628
0.975352
0.974562
0.97363
0.973088
0.972684
0.971901
0.970734
0.969532
0.968816
0.968143
0.967025
0.965445
0.963845
0.962997
0.962051
0.960627
0.958593
0.957081
0.956168
0.954957
0.953104
0.95092
0.949663
0.948486
0.946882
0.944512
0.942741
0.941559
0.940181
0.938044
0.935959
0.934754
0.933448
0.931553
0.929625
0.928113
0.926766
0.925635
0.924268
0.922663
0.921984
0.921594
0.920621
0.919844
0.91962
0.919066
0.918213
0.918038
0.917816
0.917203
0.916785
0.916338
0.915654
0.915123
0.9149
0.914845
0.915898
0.92109
0.937543
0.973308
1.02078
1.05822
1.07263
1.07531
1.07485
1.07328
1.06943
1.06474
1.06051
1.05561
1.05198
1.04907
1.04563
1.04251
1.03981
1.03643
1.03372
1.03126
1.02847
1.0265
1.02415
1.0216
1.02291
1.02238
1.02168
1.02089
1.01983
1.01839
1.01664
1.01467
1.0126
1.01048
1.00826
1.0061
1.00411
1.00214
1.00007
0.998218
0.996617
0.995075
0.993401
0.991945
0.990753
0.989625
0.9883
0.987056
0.986199
0.985265
0.984149
0.982829
0.982046
0.981285
0.980297
0.979017
0.977811
0.977007
0.976017
0.974755
0.973228
0.972285
0.971448
0.970311
0.968807
0.967583
0.966879
0.965893
0.964484
0.962809
0.961879
0.961076
0.959929
0.958321
0.956571
0.955666
0.954815
0.953533
0.951643
0.950089
0.949257
0.948218
0.946592
0.944597
0.943454
0.94242
0.941007
0.938917
0.937458
0.936533
0.935391
0.933581
0.931942
0.931104
0.930127
0.928565
0.927022
0.925989
0.924969
0.924063
0.923166
0.922127
0.921624
0.921395
0.920826
0.920145
0.919964
0.919743
0.919022
0.918594
0.918603
0.918205
0.91778
0.91764
0.917155
0.916701
0.916258
0.915783
0.915984
0.916758
0.919084
0.927122
0.949625
0.99238
1.03266
1.06199
1.07401
1.07484
1.07387
1.07074
1.06696
1.06152
1.05651
1.05291
1.04942
1.04662
1.04406
1.04109
1.03835
1.03577
1.03293
1.0306
1.02801
1.02513
1.02213
1.02187
1.02171
1.02148
1.02096
1.02017
1.01919
1.01797
1.01645
1.01468
1.01271
1.01065
1.00863
1.00661
1.00455
1.00261
1.00091
0.999302
0.997603
0.995966
0.994552
0.993268
0.991831
0.990268
0.989094
0.988017
0.98677
0.985165
0.984022
0.983131
0.982044
0.980567
0.979077
0.978203
0.977166
0.975782
0.974022
0.972933
0.972055
0.970833
0.969091
0.967581
0.966616
0.965425
0.963868
0.962039
0.960778
0.959679
0.958407
0.956883
0.955027
0.953817
0.952911
0.951679
0.949911
0.948247
0.947452
0.946526
0.945061
0.943144
0.942116
0.941263
0.940025
0.938083
0.936818
0.936094
0.935121
0.933493
0.93207
0.931365
0.930531
0.929048
0.927731
0.926886
0.925835
0.924821
0.924033
0.923088
0.922503
0.922299
0.921885
0.921175
0.920933
0.920851
0.9204
0.919884
0.919879
0.919812
0.919429
0.919449
0.919431
0.91904
0.918942
0.918779
0.918526
0.918665
0.919472
0.921135
0.924802
0.938437
0.967471
1.01094
1.04827
1.06564
1.07154
1.07207
1.07078
1.06685
1.06193
1.05828
1.05431
1.0509
1.0482
1.0454
1.04297
1.04056
1.03772
1.03545
1.03298
1.03007
1.02003
1.02077
1.02117
1.02122
1.02096
1.02034
1.01987
1.01937
1.01863
1.01755
1.01616
1.01453
1.01278
1.01093
1.009
1.00711
1.00539
1.00376
1.00212
1.00049
0.99894
0.997508
0.99602
0.994352
0.9929
0.991677
0.990359
0.988649
0.987096
0.985945
0.984685
0.983044
0.981219
0.980134
0.979036
0.977576
0.975613
0.974273
0.973309
0.972034
0.970181
0.968582
0.967585
0.966361
0.964656
0.962935
0.961758
0.960437
0.959039
0.95775
0.956171
0.954499
0.953512
0.95252
0.951033
0.949114
0.948078
0.947349
0.946136
0.944221
0.942949
0.942196
0.941123
0.939325
0.93786
0.937137
0.936255
0.934794
0.933314
0.932589
0.931857
0.930572
0.929019
0.928441
0.927722
0.926567
0.925937
0.925325
0.924663
0.924584
0.92449
0.92396
0.923612
0.92372
0.923623
0.923289
0.92337
0.923394
0.92325
0.923423
0.923568
0.923452
0.923534
0.923681
0.923506
0.92322
0.923077
0.923343
0.924366
0.926867
0.933518
0.951186
0.990813
1.03316
1.05847
1.07154
1.07313
1.07206
1.069
1.06564
1.06189
1.05781
1.05444
1.0513
1.04845
1.0457
1.0424
1.03966
1.03716
1.03442
1.01623
1.0178
1.01916
1.02033
1.02038
1.02003
1.01979
1.01954
1.01919
1.01876
1.01811
1.01718
1.01601
1.01461
1.01301
1.01133
1.00971
1.00815
1.00657
1.00499
1.00341
1.00184
1.0003
0.998652
0.997011
0.995654
0.994322
0.992647
0.990903
0.989554
0.988183
0.986485
0.984445
0.983106
0.981924
0.98043
0.978382
0.976825
0.97578
0.97447
0.972558
0.970818
0.969756
0.968534
0.966727
0.964892
0.963805
0.962543
0.960753
0.959412
0.958298
0.956685
0.955147
0.954194
0.953055
0.951284
0.949879
0.949136
0.948131
0.946425
0.945021
0.944218
0.94323
0.941596
0.940179
0.939455
0.938604
0.937217
0.935885
0.935201
0.934453
0.933287
0.931909
0.93129
0.930685
0.929609
0.928835
0.928555
0.928059
0.927743
0.927764
0.927621
0.927301
0.927383
0.927497
0.927358
0.927465
0.927546
0.927498
0.927676
0.927919
0.927885
0.927975
0.928303
0.928313
0.928171
0.928085
0.927845
0.927617
0.928118
0.929787
0.933245
0.944791
0.975675
1.01248
1.04623
1.06834
1.07244
1.07187
1.07047
1.06855
1.0651
1.06077
1.05693
1.05377
1.05084
1.04798
1.04524
1.04227
1.03915
1.01194
1.01389
1.01549
1.01726
1.01885
1.0192
1.01933
1.0193
1.01923
1.01902
1.01868
1.01832
1.01783
1.01713
1.01614
1.01494
1.01365
1.01229
1.01081
1.00926
1.00767
1.00601
1.00442
1.00284
1.00116
0.99964
0.998245
0.996611
0.994766
0.993289
0.991881
0.990216
0.988198
0.986681
0.985402
0.983914
0.981888
0.980116
0.978985
0.97768
0.975796
0.973898
0.972775
0.971574
0.969822
0.967833
0.966709
0.965596
0.96389
0.962132
0.961152
0.959911
0.958133
0.956959
0.956008
0.954553
0.952854
0.952011
0.951152
0.949691
0.948115
0.947319
0.946459
0.945004
0.943532
0.942834
0.942058
0.940749
0.939452
0.938822
0.938122
0.936998
0.935775
0.93521
0.934634
0.933699
0.932775
0.932599
0.932382
0.932003
0.931881
0.931771
0.931541
0.931625
0.931864
0.931788
0.931759
0.931899
0.931854
0.931889
0.932154
0.932162
0.932134
0.932373
0.932474
0.932342
0.932331
0.932303
0.931977
0.931599
0.931852
0.933036
0.935435
0.942668
0.961597
0.99262
1.03517
1.05818
1.06796
1.07013
1.07011
1.06902
1.06647
1.06324
1.05997
1.05602
1.05252
1.05011
1.04749
1.04457
1.00978
1.01072
1.01206
1.01346
1.01541
1.01688
1.01755
1.01826
1.01897
1.01899
1.01871
1.01856
1.01853
1.01835
1.01791
1.01727
1.01649
1.01554
1.01437
1.013
1.01153
1.00997
1.00838
1.00683
1.00518
1.00353
1.00202
1.00039
0.998492
0.996919
0.995487
0.993848
0.991942
0.990371
0.988972
0.98751
0.985654
0.983755
0.982504
0.981239
0.979486
0.977467
0.976254
0.975089
0.973446
0.971429
0.970224
0.969146
0.967587
0.965726
0.964677
0.963612
0.961952
0.960514
0.95962
0.958425
0.956701
0.95568
0.954868
0.953607
0.951985
0.951131
0.95034
0.949033
0.947541
0.946829
0.946088
0.944831
0.943529
0.942911
0.942229
0.941091
0.939941
0.939419
0.938831
0.93788
0.936887
0.936663
0.936495
0.936117
0.935861
0.935659
0.935459
0.935582
0.93575
0.935666
0.935535
0.935681
0.93567
0.93558
0.935804
0.935874
0.935746
0.935859
0.935985
0.93584
0.935804
0.935899
0.935776
0.935558
0.935419
0.935498
0.936225
0.938189
0.942433
0.952985
0.979296
1.01873
1.04587
1.06213
1.06967
1.06991
1.0689
1.0674
1.06553
1.0624
1.0585
1.05522
1.05242
1.04962
1.00945
1.00995
1.01065
1.0112
1.01213
1.01375
1.01497
1.01612
1.01746
1.01804
1.01819
1.01856
1.01878
1.01863
1.01837
1.01813
1.0178
1.01732
1.01667
1.01578
1.01466
1.01336
1.01194
1.01046
1.0089
1.00721
1.00562
1.00403
1.00214
1.00048
0.99905
0.997384
0.995541
0.994047
0.992512
0.990965
0.989359
0.987486
0.985958
0.98471
0.983157
0.981132
0.979775
0.978651
0.977144
0.975144
0.973857
0.972808
0.971347
0.969504
0.968402
0.967396
0.965868
0.964268
0.963377
0.962341
0.960703
0.959527
0.958732
0.957617
0.955999
0.955062
0.954309
)
;

boundaryField
{
    inlet
    {
        type            fixedValue;
        value           nonuniform 0();
    }
    outlet
    {
        type            inletOutlet;
        inletValue      nonuniform 0();
        value           nonuniform 0();
    }
    bottom
    {
        type            symmetryPlane;
    }
    top
    {
        type            symmetryPlane;
    }
    obstacle
    {
        type            zeroGradient;
    }
    front
    {
        type            empty;
    }
    back
    {
        type            empty;
    }
    procBoundary21to13
    {
        type            processor;
        value           nonuniform List<scalar> 
129
(
1.00757
1.01411
1.02464
1.03644
1.04731
1.05339
1.05733
1.05702
1.0156
1.02024
1.02049
1.01978
1.01775
1.01537
1.01427
1.01313
1.01215
1.01185
1.01194
1.01243
1.01345
1.01467
1.01671
1.01929
1.0218
1.02418
1.02581
1.02701
1.02763
1.02761
1.02729
1.02669
1.02596
1.02528
1.02482
1.02456
1.02398
1.02334
1.02263
1.02175
1.02091
1.01991
1.01905
1.01814
1.01703
1.01581
1.05653
1.05588
1.05444
1.05257
1.05048
1.04828
1.04603
1.04369
1.04126
1.03871
1.03602
1.03324
1.03041
1.02754
1.02458
1.0215
1.0184
1.01546
1.01271
1.01006
1.00743
1.00489
1.00237
0.999537
0.996597
0.994185
0.991882
0.989206
0.986171
0.983926
0.981875
0.97941
0.976399
0.974339
0.972527
0.970316
0.967293
0.964569
0.962844
0.960896
0.958279
0.955189
0.953561
0.952135
0.950191
0.947302
0.945035
0.943847
0.942321
0.940021
0.937127
0.935838
0.934833
0.933225
0.930541
0.928555
0.927692
0.926523
0.924506
0.922213
0.921495
0.920839
0.919465
0.917347
0.916528
0.915961
0.914765
0.912535
0.911277
0.910719
0.909783
0.908166
0.907636
0.907593
0.906947
0.906001
0.905091
0.904659
0.90532
0.908512
0.919715
0.952408
0.952408
)
;
    }
    procBoundary21to14
    {
        type            processor;
        value           nonuniform List<scalar> 4(1.01712 1.0206 1.02307 1.0233);
    }
    procBoundary21to22
    {
        type            processor;
        value           nonuniform List<scalar> 
15
(
1.02259
1.02157
1.01982
1.01714
1.01518
1.01455
1.0147
1.01586
1.01896
1.02219
1.02718
1.03192
1.03675
1.04217
1.04713
)
;
    }
    procBoundary21to28
    {
        type            processor;
        value           nonuniform List<scalar> 
11
(
1.00458
1.00601
1.01012
1.0159
1.02163
1.02571
1.02764
1.02733
1.0249
1.01977
1.01214
)
;
    }
    procBoundary21to29
    {
        type            processor;
        value           nonuniform List<scalar> 
129
(
1.02201
1.01926
1.0169
1.01509
1.01307
1.01122
1.01077
1.01026
0.953114
0.951589
0.950821
0.95009
0.948874
0.947536
0.946894
0.94621
0.945052
0.943922
0.943398
0.942795
0.941785
0.940771
0.940493
0.940221
0.939799
0.939447
0.939157
0.939058
0.939167
0.939188
0.939003
0.938889
0.939046
0.939032
0.938913
0.939126
0.939251
0.939082
0.939059
0.939178
0.939059
0.938882
0.939027
0.939038
0.938875
0.939017
0.939056
0.93905
0.939624
0.941517
0.944681
0.951714
0.970391
1.00033
1.02845
1.05462
1.06467
1.06723
1.06818
1.06792
1.0667
1.0641
1.06121
1.05819
1.05525
1.01015
1.0103
1.01058
1.01091
1.01138
1.01223
1.01319
1.01394
1.01511
1.01608
1.01691
1.01782
1.01828
1.01856
1.01865
1.01857
1.01827
1.01788
1.01746
1.01695
1.01632
1.01552
1.01454
1.01336
1.01201
1.01049
1.00894
1.00743
1.0057
1.00402
1.00259
1.00097
0.99909
0.99763
0.996146
0.994358
0.992872
0.991295
0.989499
0.988118
0.986747
0.984839
0.983233
0.9821
0.980728
0.978781
0.977389
0.976392
0.975054
0.973229
0.972068
0.971096
0.96968
0.968001
0.967062
0.966103
0.964557
0.963253
0.962469
0.961449
0.959867
0.958848
0.953114
0.958101
)
;
    }
    procBoundary21to36
    {
        type            processor;
        value           nonuniform List<scalar> 8(1.0064 1.00471 1.00469 1.00562 1.00779 1.0115 1.01565 1.01992);
    }
}


// ************************************************************************* //
