/*--------------------------------*- C++ -*----------------------------------*\
  =========                 |
  \\      /  F ield         | OpenFOAM: The Open Source CFD Toolbox
   \\    /   O peration     | Website:  https://openfoam.org
    \\  /    A nd           | Version:  7
     \\/     M anipulation  |
\*---------------------------------------------------------------------------*/
FoamFile
{
    version     2.0;
    format      ascii;
    class       volScalarField;
    location    "1.377";
    object      p;
}
// * * * * * * * * * * * * * * * * * * * * * * * * * * * * * * * * * * * * * //

dimensions      [0 2 -2 0 0 0 0];

internalField   nonuniform List<scalar> 
12359
(
0.0618979
0.0713075
0.0448926
0.104825
0.0654712
0.151843
0.183346
0.165993
0.224018
0.139968
0.204312
0.274698
0.481893
0.112135
0.0994634
0.393094
0.436502
0.0496161
0.0492074
0.0846798
0.120632
0.249106
0.0776989
0.0900568
0.0742074
0.0807614
0.0461161
0.0459825
0.0484704
0.0466492
0.0471044
0.0454485
0.045067
0.0464369
0.0449253
0.0472947
0.054921
0.0601198
0.0638518
0.0575188
0.0692279
0.0587067
0.0524471
0.0517702
0.0478396
0.0481338
0.04756
0.0468976
0.0488324
0.0462619
0.045845
0.0456931
0.0453643
0.0500424
0.0452773
0.0451011
0.0511098
0.0450567
0.0450366
0.0449743
0.0451509
0.044921
0.0457513
0.51194
0.0505279
0.129384
0.054166
0.0456008
0.0556523
0.346834
0.530057
0.0672463
0.0448837
0.0565217
0.0950794
0.0449372
0.0453509
0.0449029
0.053404
0.315945
0.122737
0.0404803
0.04383
0.0470589
-0.0579534
0.0218375
0.0403523
0.0420062
-0.0694948
-0.0519694
0.0446577
0.473916
0.0445918
0.0451302
0.0457837
0.00474235
0.0444754
0.045159
0.055286
0.0513949
0.10558
0.0447668
0.0224519
-0.123472
0.0392557
0.0119837
0.0435561
-0.0565751
0.0265484
0.0123415
0.044535
0.0406195
0.10717
0.0885046
0.0460572
0.0407805
0.0904589
0.0395428
-0.074277
0.0438717
0.0446432
0.171872
0.0418037
0.00455805
0.0392899
0.0404694
0.036583
0.0469383
0.0448895
0.0390981
0.0410351
-0.00259643
-0.00414633
-0.00279427
0.0435853
0.00552625
0.04072
0.00545899
0.0448029
0.0367985
0.0440313
0.0633498
0.0133429
0.0435476
0.00728171
0.144286
0.0438425
-0.046208
0.0390703
0.124286
0.000755126
0.0447847
0.0134677
0.0417334
0.0445391
-0.181039
0.106441
-0.00171856
0.0445756
0.0455209
0.0435226
0.045576
0.00321835
0.0104033
0.0438101
0.0404631
0.0445875
0.171386
0.0119988
-0.0712686
0.0449025
0.044931
0.0106986
0.0740619
0.0393935
0.0404859
0.0484817
0.0482644
0.108425
0.0409571
0.112396
0.044516
0.0448909
0.0402216
0.0542208
0.20313
0.0402434
0.0448823
0.00158069
0.0400307
0.0451632
0.00384016
0.00718414
0.0416183
0.0111216
-0.134613
0.0301389
0.0411204
0.0138939
0.0396745
0.14831
0.00104321
0.0524801
0.012008
0.010545
0.0444928
0.00953416
0.0530839
0.00180669
0.0389009
0.0442019
0.000105204
9.62348e-05
-0.526494
0.198471
0.0448072
0.0406412
0.0460277
0.0405142
0.0640285
0.0985503
0.038891
0.00448798
0.465264
0.0389812
0.0441768
0.0648282
0.0268621
0.043869
0.0419468
0.0417678
0.0438193
0.00807514
0.0528011
0.0443241
0.0519169
0.0438641
0.0128302
0.0445249
0.290298
0.0437652
0.0198979
0.0445952
0.053743
0.0425012
-0.0465234
0.0450218
0.00156255
0.0392342
0.00780628
0.00135381
0.0594769
0.0478604
0.0422269
0.32088
-0.579528
0.0438792
0.0387239
0.397791
-0.0551248
0.052045
0.0434948
0.0435152
0.0109439
0.0724495
-0.447094
-0.0688601
0.042401
0.0389421
0.00593398
0.0108668
0.0580528
0.011964
0.042317
0.038783
0.0438235
0.0388373
-0.116779
0.04119
0.0434155
0.0447549
0.0103461
0.036587
0.0542703
0.0203778
0.0439515
0.0458045
0.0447755
0.0447549
0.0454828
0.00311539
0.0400703
-0.452119
0.0435272
0.0435349
0.0226192
0.0394497
0.0984736
0.0457394
0.0459004
0.0446814
-0.104914
0.0430178
0.044679
0.0409008
0.0453559
0.0391232
0.04027
0.0409948
0.0397566
0.0496065
0.20143
0.0389367
0.0471901
0.0600906
0.0205649
-0.0571428
0.0385857
0.0559324
0.368661
0.0447457
0.0171997
0.0433241
0.0304315
0.0435009
0.0381717
0.227202
0.0166588
0.203259
0.0537623
0.0442737
0.00679597
0.00234817
0.0441944
0.0065325
0.00718532
0.0429866
0.0452385
0.0452315
0.0453023
0.0452782
0.288446
0.043926
0.102491
0.000642567
0.0529982
0.0117247
0.0168051
0.0229695
0.0311073
0.0159022
0.0316392
0.0548121
0.0185429
0.0199225
0.0903614
0.0641452
0.0137067
0.0623773
0.0622285
0.0144863
0.102927
0.0410129
0.0453406
0.0287897
0.0452992
0.0407787
-0.183932
0.496613
0.0409643
0.0448473
0.0435963
0.0443857
0.0156762
0.044547
0.0445262
-0.0757017
0.0108911
-0.0476379
0.0428307
0.00885727
0.0366493
0.0448573
0.0143714
0.0284958
0.10848
0.0287685
0.0412308
0.0434352
0.0104293
0.00840809
0.0383276
0.294357
0.0141368
0.00361577
0.0477434
0.0448922
0.0448232
0.382228
0.0119442
0.0429666
0.0615795
0.0612462
0.0440519
0.0440166
0.0443121
-0.0561402
0.0972315
0.05704
0.0162899
0.000434023
0.0459685
0.112184
0.0471924
-0.000123363
-0.0613316
0.300372
0.0518202
0.0899039
0.0260843
0.0207014
0.0328908
0.028483
0.0466826
0.03276
0.0137202
0.0445533
-0.0582469
0.054844
-0.00738454
0.00733747
0.0515631
0.0940552
-0.145068
0.0153819
0.036817
0.00260973
0.00707174
0.0173377
0.0397797
0.0442484
0.0509303
0.0435059
-0.00336145
0.0409065
0.0805601
0.0833669
0.03326
-0.0552379
0.102524
0.0510433
0.0434273
0.390282
0.0430854
0.0426995
0.00405716
0.0448551
0.0433306
0.042654
0.234239
0.199442
0.0466528
0.0420826
0.107703
0.0462063
0.0164996
0.0133058
0.0115354
0.0428702
0.0443671
0.0458175
0.0446932
0.0827924
0.0170557
0.0203512
0.0480701
0.0497608
0.00163748
0.0467828
0.0436521
0.0382138
0.118168
0.00341046
0.044781
0.0456066
0.0100612
0.0277385
0.0465466
0.0404952
0.110908
0.0159346
0.00610721
0.0191275
0.0428402
0.0438541
-0.00640303
-0.0047086
0.0446863
0.0342524
0.0489088
0.00297395
0.281589
0.0442901
0.0411093
0.0430479
0.012811
0.0510472
0.049817
0.0405954
0.0472023
0.0275354
0.0729404
0.0350695
-0.0356197
0.0436437
-0.0409985
0.0421379
-0.119499
0.0152949
-0.00352329
0.0450327
0.0478392
0.0200003
0.0402239
0.0458139
0.0528598
0.0513073
0.0515783
0.0700074
0.0126666
0.012217
0.0438523
0.0398894
0.0169536
-0.00373687
0.0438515
0.0433727
0.0101714
0.04301
0.221601
-0.150106
-0.122135
0.0438506
0.0380713
0.000928228
0.050216
0.0396235
0.451656
0.0434712
0.111444
0.0863292
0.0379185
0.0397323
0.0459657
0.0336515
0.000465591
0.0276612
0.0483501
0.0438854
0.0448908
0.050829
0.048473
0.0535475
0.0122914
0.0455366
0.0434449
0.0188066
-0.0871339
0.0470521
-7.32733e-05
0.043633
0.0488931
0.0928257
0.000428862
0.00138725
0.0943649
0.0430881
0.00113764
0.0440974
0.0449642
0.000466748
0.0340654
0.0424909
0.0340038
0.0444456
0.0434104
0.0399208
0.0467368
0.0013082
0.10105
0.0551925
0.116105
0.0139121
0.036816
0.110671
0.0599734
-0.00590368
0.0116135
0.0609577
0.0521425
0.0449809
0.0362929
0.0191465
0.0438476
0.0448632
0.0429581
0.045024
-0.0164733
0.0346512
0.0308053
0.102391
0.0531676
0.231186
0.00266078
0.00109496
0.0396485
-0.0026317
0.044426
0.0476966
0.0439155
0.103659
0.111719
0.0433728
0.0278401
0.225556
0.0139267
0.00482093
0.035509
0.0642047
-0.126191
0.0425367
0.0463218
0.044471
-0.0108126
0.0461962
0.0284693
-0.0545111
0.0434232
0.074353
0.0550997
0.0384819
0.0473207
0.0436697
0.045355
0.0505
0.0454034
0.0452812
0.0497532
0.00470277
0.0082649
0.0385314
0.335566
0.00039804
0.407336
0.015077
0.020545
0.0501002
0.0162283
0.0539725
0.00415613
0.317199
0.0957474
0.053068
0.0410541
0.0499061
0.0484406
0.019656
0.0442452
-0.00941537
0.0454272
0.0971415
0.0468989
-0.0149643
0.00665382
0.00976585
0.0537282
0.0359396
0.00714652
0.0746475
0.00445836
0.0377926
0.002025
0.0403653
0.0438981
0.0472612
-0.197791
0.0693259
0.0381299
0.0437927
0.0456482
0.0506295
0.0799425
0.00820655
0.014316
0.0429436
0.0396461
0.0525483
0.0380499
0.0352588
0.00099737
0.0515867
0.054872
0.00793224
0.0394368
0.0366923
0.101597
0.043855
0.0517909
-0.253254
0.0450189
0.00608996
0.0496113
0.0370796
0.0867122
0.00839875
0.0481406
0.0172752
0.0447552
0.109023
0.0388271
0.00880765
0.00941279
0.110448
0.0446051
0.000672289
-0.00638233
0.053812
0.0392638
0.0396346
0.0348174
0.23549
0.0493139
0.0448253
0.0520477
0.0445686
-0.124087
0.0391943
0.0093212
0.0286777
0.0139367
0.515252
0.0389409
-0.0549309
0.00874179
-0.093719
0.016331
0.0483207
0.0388773
0.0279539
-0.0478492
-0.0362924
0.0422851
0.0418023
0.115968
0.0411548
0.207697
0.0182059
0.0691381
0.0399659
0.404111
-0.101607
0.0397589
0.0439049
0.0444197
0.0908816
0.0507435
0.055348
0.0481586
0.0130551
0.0741656
-0.0328316
0.353552
0.0429625
0.0800842
0.012571
0.118151
0.0405154
0.111855
0.00628711
0.0920861
0.0475767
0.0437824
0.00822279
0.00550706
0.0149097
0.115289
0.0116836
0.0208098
0.0483631
0.0439958
0.0351425
0.241211
0.0351906
0.0104113
0.0639672
0.0175846
0.0322252
0.0489263
-0.00553448
0.0294179
0.0400423
-0.0183572
0.0552216
0.0235219
0.194522
0.0438853
0.0292008
0.0470265
0.0527698
0.0404857
0.047807
0.0438514
0.00109368
0.0380829
0.0743192
0.0109596
0.0924338
0.0279711
0.0284375
0.00888699
-0.186035
0.0450001
0.0520808
0.0218506
-0.0685425
0.00589557
0.0445032
0.50223
0.0438066
0.0391465
-0.157339
0.0505267
0.0448752
0.0449814
0.0626653
0.0867083
0.0450296
0.0517507
0.106635
0.0476102
0.0498331
0.0485716
0.0425608
0.0878189
-0.0176392
0.0506974
0.113861
0.00840168
0.0057775
0.00501505
0.0136705
0.0485671
0.0390308
-0.0404787
0.00356699
0.0699315
0.0436939
0.0450534
0.114839
-0.00242656
0.0302228
0.0357171
0.0299705
0.0481128
0.0389838
0.0811089
-0.217015
0.367948
0.0797247
0.0467371
0.0389083
0.0769381
0.346733
0.108334
0.0445305
-0.000750537
-0.0131574
-0.23958
0.0323724
-0.150085
0.0450198
0.0485109
0.0450701
0.00568443
0.0717334
-0.154568
0.0385118
-0.0831888
0.0409224
0.0472458
0.00910897
0.0500002
-5.48626e-05
-0.0430531
0.0513788
0.0315795
0.0213769
0.0326572
0.0511953
0.0743024
0.0694745
0.0278974
0.0770912
0.05138
0.0451119
0.049308
0.0457051
0.102347
0.0195233
-0.00808044
0.00191362
0.0827541
0.0225217
0.0207739
0.0393251
-0.00946881
0.0308958
0.0505941
0.044487
-0.00133397
0.105782
0.038576
0.037969
0.0525876
0.0213761
0.0997321
0.113202
0.0212516
0.238506
0.0199869
0.0839301
-0.0402383
0.0496436
0.0182819
0.00972843
0.0414968
0.0306645
0.0348281
0.0406164
0.0440914
0.0406872
-0.0146998
-0.0024719
0.0398581
-0.129343
0.0977445
0.0455724
0.0496849
0.000649083
0.0454701
0.0767562
0.01198
0.00408278
0.0454141
0.0480269
0.044652
0.0454729
0.11552
-0.133334
0.0457502
0.0557875
0.0438597
-0.141647
0.0197141
0.0126318
0.0435595
0.0456341
0.0485126
0.0225489
0.0832082
0.0259247
0.0435816
0.0485762
0.0453485
0.0191901
0.0818327
0.034751
0.0448574
0.0278372
0.0230861
0.0721472
0.0401805
-0.0172911
0.142659
0.0416166
0.0301524
0.0482967
0.0399481
-0.17456
0.0511708
0.0456344
0.0095457
0.101882
0.079168
-0.134949
0.0727756
0.0316465
0.0254486
0.052517
0.0360346
0.0314198
0.0517136
0.143981
0.046389
-0.327243
0.0802031
0.178648
0.0360874
-0.00593898
0.0931331
-0.00242517
0.259947
0.00580085
0.0228898
0.0304373
0.0356358
0.0438098
0.0402186
0.0852108
0.000695871
0.0519217
0.0416023
0.00492814
0.0150436
0.00476088
0.0774081
-0.000538706
0.00439633
0.0438577
0.0675066
-0.050955
0.0844487
0.0437902
0.0310363
0.0492046
0.0437996
0.0660375
0.0450064
0.0403408
0.241099
0.0890885
-0.0178458
0.0450514
0.0446224
0.0445863
0.0520063
0.0491215
-0.00269892
0.049288
0.0445081
-0.0167461
0.0194669
0.00302092
0.0655344
0.0485949
0.0375332
0.0898612
0.0308572
0.0450819
-0.041831
0.00892191
0.1095
0.0456026
-0.228802
0.0943063
0.0476184
0.00206898
0.0360062
-0.0275744
0.0321948
6.56509e-05
0.0913031
0.0467073
0.0468967
0.0193068
0.038894
0.0506616
-0.00798272
0.0506952
0.0508085
0.09535
0.0413184
0.0486161
0.0320398
0.0077654
0.0488458
0.0507644
0.0489265
0.0436935
0.0931672
-0.0413569
0.0236831
0.0520321
0.0503005
0.0373472
0.0441965
-0.186189
0.0761211
0.0447697
0.0678297
0.0373991
0.0962542
0.150012
0.000215266
0.0509671
0.00413768
-0.00285361
0.0434816
0.0374177
-0.00164364
0.0398438
0.0448329
0.0691386
0.0246315
0.0497606
0.0448643
0.0384676
0.0826287
0.0455159
0.0299609
0.0450169
0.0345756
0.063659
0.130592
0.0443501
-0.195528
0.0770812
0.0140148
-0.116166
0.0894394
0.0287791
-0.028484
0.0525272
0.140333
0.206501
0.0501043
0.040504
0.0403939
0.0474462
0.0492727
0.00574848
-0.0772006
-0.138545
0.0074375
0.145454
-0.00707652
0.00884795
-0.059524
0.0443547
0.0477359
0.0460689
0.0223824
0.0444767
0.0069346
0.0329347
-0.0125936
0.0439171
0.0477251
0.0420005
-0.14371
0.116412
0.0751115
0.0576112
0.11967
0.0406253
0.0456456
-0.0165581
0.0326521
-0.0123112
0.00618316
0.0188579
0.00332673
0.0130668
0.0528908
0.0438093
0.0442878
-0.120248
0.0402198
0.0355181
0.051677
0.00120683
0.0165099
0.0443974
0.0171991
-0.0137489
-0.000220084
0.0911642
0.049756
0.0447279
0.0036528
0.0522509
0.0444189
-0.00135421
0.00622326
0.0487185
0.135573
0.000618191
0.0445337
0.0448534
0.0436472
0.104286
-0.130304
0.039699
0.00882579
0.0479602
0.048906
0.00908033
0.0447328
0.177693
0.0128509
-0.0548315
0.150795
0.0269267
0.0442389
0.0441711
0.029546
0.0524199
0.0439821
-0.172838
0.00416797
0.0414953
0.219646
0.0984183
0.0383758
0.0438503
0.044946
0.0504646
-0.074045
0.158446
0.0305864
0.0742088
0.0630842
0.00472376
-0.0764934
0.0243895
0.0504324
0.0494278
0.0147314
0.036759
0.0430044
0.0473035
0.00259438
0.0491561
0.0295779
0.0511511
0.0787191
-0.0118765
0.0425041
0.0474067
-0.00449084
0.00237354
0.0546871
0.0469668
0.0733157
-0.000747249
0.0365826
0.0155181
0.0708173
0.0138036
-0.0339149
0.0493692
0.156223
0.0439015
0.103645
-0.000938714
0.0447266
0.044301
0.370992
0.0451495
0.0523052
0.0241305
0.0503504
0.0504934
0.0536729
0.045022
0.0445757
0.000211656
-0.0259944
0.0422852
0.330809
0.0334236
0.0470588
0.234308
0.0974499
0.0527004
0.0415171
0.0467764
0.085124
-0.253135
0.0502201
0.0421875
0.0438258
0.0474644
0.0603031
0.0145282
0.0497031
0.0607153
0.048294
-0.148798
-0.00681287
0.00611121
0.107262
0.0333412
0.0471462
0.00341738
-0.114832
0.049336
0.0440715
0.0470692
0.0452763
0.0502811
0.0435169
-0.00407708
0.0411687
0.0389204
0.305508
-0.00109779
-0.00994228
0.00281829
0.0501275
0.000342829
0.0852505
-0.0874522
0.0432941
0.00876026
0.044717
0.234765
0.0439137
0.0449473
0.0268445
0.0438692
0.0232915
0.0550892
0.050418
0.0431352
-0.0920572
0.0855002
0.00893588
0.047395
0.0335524
-0.0594366
-0.0083519
0.0758039
0.0715281
0.0455471
0.0514357
0.0404982
0.0472882
0.0423111
0.0473221
0.0867204
0.0731933
0.00570605
-0.103627
0.0241964
-0.00900928
0.0306467
-0.107348
0.0434497
-0.0299124
0.0471458
-0.0112559
-0.00692232
0.0227552
0.0448697
0.026933
0.00901026
0.0287042
-0.0180131
0.231002
-0.101437
0.0471417
-0.00265556
0.0455011
-0.00593167
0.0893079
0.00303604
0.0400056
0.0535564
0.00782316
0.0480894
0.0342579
0.0453406
0.0424074
0.0440053
0.0513459
0.00528642
0.000938098
0.0444375
0.0812257
-0.0827782
0.495908
0.0436211
0.070087
0.0235605
0.191727
0.029262
-0.176245
-0.0343553
0.0428892
0.022012
0.0661658
0.173335
0.0482846
0.0641311
0.0768668
0.0420191
-0.0859979
-0.00537431
0.0470164
0.0247311
-0.0354391
0.0731
-0.0882073
0.0340363
0.0780834
0.0502097
0.0435886
0.0518406
0.0407089
-0.0734264
-0.000506282
-0.0637502
0.0455263
-0.0851391
0.0274368
0.00259183
0.108323
0.0222719
0.0249273
-0.0547593
0.0337972
0.0326595
0.00411378
0.0687389
0.0236392
0.00729396
0.066226
-0.088135
0.0826783
0.0321878
0.0869517
0.0453728
0.11221
-0.000226003
0.0995373
0.0494278
-0.0362672
0.0444281
0.0313054
0.00645402
-0.00105188
0.0533814
0.00490916
0.0443916
0.502836
0.0511979
0.00393602
0.0882476
-0.00016719
0.0058922
0.0452251
0.0287601
0.0440991
0.46304
0.0444784
0.0442686
0.0436543
-0.0150635
0.0390282
0.0414033
-0.0137354
0.0248976
0.0606586
0.0392197
0.0440589
0.105449
0.0422632
0.101061
0.00689126
0.0827175
0.0385581
0.0376071
0.0232819
-0.0135815
0.00781952
0.0396723
0.522481
0.0444506
0.0441412
0.0516009
-0.130135
0.0494408
0.027191
0.0781527
0.0490916
0.0373333
0.00182662
-0.023322
0.0309359
-0.0465016
0.0500402
0.041084
0.0120106
0.0166236
-0.000748146
0.047062
0.0218261
0.0684182
0.191929
0.033748
0.0443596
0.0422537
0.175852
0.044852
0.0448598
-0.0355165
0.029762
-0.040032
0.0373326
0.0439224
0.186446
-0.0149379
0.0393878
0.0504477
0.0422023
-0.108406
0.0448615
0.0313166
-0.0278563
0.0448606
0.0440446
0.00776678
0.0435926
0.0448734
0.0111367
0.0496046
0.0441787
0.0198717
0.043748
-0.0132274
0.0439084
0.0574142
0.1173
0.00685165
0.0448809
0.00387861
-0.168312
0.0372027
0.0706823
0.0414334
0.0327723
0.0425361
-0.0183162
-0.00667901
0.0416002
0.0440369
0.129818
0.0280992
0.0132174
0.00911295
0.127484
0.0436246
0.00463285
0.0440157
-0.0207545
-0.00618506
-0.00552131
0.00653545
0.153265
-0.0877261
0.00429494
0.00817888
0.0463128
0.0475898
-0.000207834
0.133681
0.0954852
0.0297233
-0.0725097
0.043431
-0.062691
0.19609
0.0441165
-0.00871483
-0.0254444
0.0774866
0.00614371
0.00551087
0.0691872
0.0442535
-0.0125874
-0.064379
0.255887
0.0502586
0.00176422
-0.0314425
0.140115
0.0465628
0.0440234
0.00497196
-0.0531756
0.0395069
0.0671705
0.0443183
0.0436246
0.0550503
0.0499136
0.0226761
0.0507717
0.0439731
-0.0161342
0.0317667
-0.0269006
0.013339
0.0443681
0.0440692
0.140676
0.049739
0.0770995
0.0591326
-0.0476241
0.0777625
0.0434163
-0.0227648
0.0544087
0.0441247
0.0244149
0.0371455
0.0369054
0.0927171
0.0227192
-0.135595
0.0390762
0.0440645
-0.0278672
0.0435942
-0.00674885
0.0283859
-0.0259077
-0.0479585
0.0930753
-0.0315834
0.0444133
-0.00969752
0.0487192
0.068532
-0.0240066
0.0181329
-0.0238903
-0.0632121
0.170103
-0.0123932
0.0630443
0.0434412
0.0439859
0.0435642
-0.0317169
0.138057
0.0435029
-0.0151293
-0.0203245
0.0124495
0.00122536
0.0246503
0.106653
-0.0298388
0.0503915
0.0101814
0.0228772
0.0447042
0.044729
0.0463787
0.0500876
0.00911794
0.044274
0.0478276
0.0513588
0.0703245
0.000379341
0.0442455
-0.0195588
0.0439075
0.00297376
0.0139789
0.0468133
0.0408543
0.000189824
-0.020902
0.0331738
0.0755385
0.0497752
0.0241951
0.0292397
0.0440839
0.0487969
0.0494456
0.0468958
0.0441113
0.0659177
0.0440903
0.122965
0.0111459
-0.0895233
0.044178
0.0557438
0.0443184
0.0448269
0.119749
0.0548932
0.0436891
0.314309
0.131926
0.0351561
0.0610183
0.0370964
0.117772
0.0164279
0.00726901
0.0541606
0.051237
0.0440272
0.0462091
-0.0126868
0.0437104
0.0464407
0.120757
0.0470826
0.0488666
0.0243024
0.0442551
-0.03594
0.0442186
0.0463699
0.00652913
0.00775096
-0.0712341
0.108045
0.0668336
0.0466614
0.0058377
0.0465909
0.023288
0.00290108
0.0511541
-0.0274646
0.044948
0.0242486
0.0664704
0.0508191
0.098447
0.0441343
0.051072
0.0440038
0.0272298
0.0435843
0.0515558
0.0216434
0.0413017
0.0669312
0.0246328
0.0440714
0.0250865
0.0105228
0.0510215
0.00689868
-0.0141713
0.0440339
0.0282823
0.108001
0.00155146
0.0522156
0.0411518
0.0412462
0.0224605
0.0528876
0.148992
0.0504223
0.0445736
0.0445968
-0.0226216
-0.00869482
-0.0227061
0.28024
0.0977234
0.0486626
0.0233603
0.00923968
0.0449514
-0.0600611
0.0492587
0.102519
-0.000506156
0.0464461
0.14147
-0.00863183
-0.0173601
0.0204728
0.0271447
0.0448412
0.043494
0.059218
0.0440601
0.0440403
0.134441
0.0472552
0.0601189
0.043482
0.0344123
0.0432648
0.36561
0.0367755
0.0391083
-0.00995924
0.100694
0.0922242
0.032069
0.106364
0.0447124
0.0435616
0.0034876
0.070935
0.121441
0.0459521
-0.000714471
0.0376913
0.0486982
0.0477839
0.0443117
0.0626045
0.0368188
0.0446421
0.0282256
0.254848
0.0447795
0.0101059
0.0289876
0.0441719
0.0589658
0.0473465
0.0254733
0.0444471
0.044229
0.0122521
0.027367
0.0881869
0.139029
-0.224892
0.0509738
0.0606495
-0.0399297
0.0305554
0.0472652
0.0378637
-0.000960922
0.0441312
0.0484532
0.0440246
0.0279887
0.0630432
0.0158661
0.0440991
0.0569447
0.0308124
0.0497831
0.116971
0.0408158
0.0437679
0.0441018
0.0272426
0.0202105
0.305875
0.0561966
0.079086
0.00430591
0.00337003
0.0439584
0.0971279
0.0441103
0.0440931
0.044714
-0.00321713
0.0501178
0.0328092
0.00549044
0.0179316
0.00476116
0.0278669
0.0626389
0.110734
0.0423207
0.00958607
0.0884849
0.0302511
0.125173
0.0488269
-0.152937
0.140336
0.132325
0.0434111
-0.110825
0.00431575
0.00632231
0.1343
-0.000380591
0.0549787
0.0515327
0.0345255
0.0315805
0.0296143
0.210286
0.0717454
0.0491796
0.0125088
0.0496879
0.0321623
0.02112
0.0904179
0.032311
0.064452
0.0802747
0.00454921
0.0941002
0.0287889
0.0450441
0.0557178
0.0443943
0.0436694
0.0425202
0.0496162
0.0171897
-0.0498383
0.0440233
0.162798
0.0433115
0.0366576
0.00736358
0.0279085
0.0308608
0.042287
0.0059
0.0103948
0.248827
0.0441298
0.00740351
0.0335394
0.00928214
0.0447277
0.0443356
0.147851
0.0211948
0.0293281
-0.119711
0.0246733
0.0367016
0.13458
0.0122398
0.118056
0.0509104
0.0156994
0.0335798
0.0413585
-0.0284354
0.0056335
0.0180346
0.0305715
0.0435826
0.00483843
0.00452073
-0.00101071
0.0355904
0.0345211
0.414236
-0.0384648
0.0432504
-0.0142059
0.0176681
-0.104091
0.0439961
0.0297606
0.0299977
0.0439639
0.0026258
0.0245604
0.0489125
-9.96277e-05
-0.0236432
-0.00164203
0.0515981
0.0215371
0.0447789
0.0402381
-0.0252386
0.0797097
0.0249914
0.00556699
0.14412
0.0223746
0.0175029
0.0189586
0.00587474
-0.0285171
0.0424161
0.0192719
0.0136081
0.0896375
0.275067
0.011373
0.0325054
0.0182472
0.043989
0.0899144
0.0289997
0.00748785
0.0438899
0.0323701
0.00499478
0.0120654
0.146159
0.00900064
0.0264717
0.0272967
0.0498381
0.00214328
0.0237722
0.071519
0.0555733
0.0516536
0.00869417
0.0329931
0.0383862
0.0346819
0.0443197
0.00472685
0.059302
0.0265529
-0.00465167
-0.0453292
0.0390423
0.0246067
0.0144396
0.0215277
0.044128
0.096798
0.0960148
0.0698686
0.0447087
0.225891
0.0054923
0.051175
0.0868172
0.0435115
0.0532184
0.0296103
0.0242686
0.0528311
-0.101009
0.0457171
0.0554791
0.0391399
-0.0126879
-0.0308059
-0.000573076
0.059274
0.00771126
0.0447497
0.0268386
0.0714613
0.0457485
0.147017
0.0149015
0.0254246
0.00674925
0.0629274
0.0195074
0.0354362
0.0437161
0.0438504
0.0440037
0.0595401
0.121268
0.0134884
0.144343
0.0810055
0.08671
0.0464306
0.0660686
0.00576684
0.0442048
-0.0254691
-0.0203676
0.0477193
0.0440689
0.0359414
0.042102
0.0438308
0.0613803
0.0310864
0.129044
0.0141331
0.0330317
0.0858929
-0.0115306
0.00442787
0.0838682
0.0109029
0.0212419
0.0677422
0.043592
0.058793
0.0246855
0.119321
0.127214
0.217152
0.0438791
0.124013
0.0303268
0.0290194
0.101844
0.104416
0.0973443
-0.0254401
0.0186532
0.0652852
0.018587
0.035724
0.0432837
0.0881412
0.0434882
0.0143645
-0.0302607
0.0555155
-0.0263645
0.0431156
0.0809745
0.0506014
0.0274797
0.0995808
0.161164
0.019587
0.0396328
0.0148146
0.0307923
0.0694554
1.19857e-05
0.0791918
-0.00293651
0.0438966
0.0190147
-0.139196
0.0967714
0.032522
-0.0425531
0.00865458
0.0383388
0.0428188
0.101877
0.0905282
0.0310443
0.0543292
0.0459873
0.00470133
0.0400199
0.0030023
0.0780983
0.0333198
0.139147
0.0438943
0.0410207
-0.000698182
0.0337934
0.0343383
0.0624955
0.0525737
0.026742
0.164669
0.104659
0.043672
0.00424319
0.0398733
0.0436377
0.130709
0.0436476
0.0193188
0.0221313
0.0434329
0.0436262
0.0481909
0.00617674
0.057625
0.0948244
0.0259628
0.127138
0.0304028
0.0305771
0.0345125
0.0754456
0.0441597
0.0362602
0.0337094
0.0240681
-0.0229232
0.0078555
0.062788
0.0420393
0.051854
0.0283827
0.0390807
0.0573249
0.0186129
0.103539
0.0297299
0.0436657
0.00695444
0.0838997
0.00602697
0.0439225
0.132522
-0.0237856
0.0414146
0.0952001
0.00481922
0.0487788
0.0937801
0.0022571
0.0861786
0.111036
0.00303088
0.0451968
0.0758618
0.0731127
0.0122572
0.0410728
0.0280903
0.0438464
0.0441234
0.0436275
0.0113903
0.0152321
0.0187019
0.0795043
-0.0659402
0.16622
-0.0654239
0.0254877
0.0411616
-0.0442408
0.0481202
-0.0981067
0.0299353
0.0206479
0.0160925
0.0259541
0.061718
0.0370512
0.0299128
0.049959
0.0438811
0.0747058
-0.039982
0.0117746
0.0052923
0.0151024
0.0481671
0.0254375
0.0144698
0.0503167
0.0217434
0.0347547
0.116344
0.0827556
0.0779837
0.0901597
-0.00189005
-0.000157011
0.00483639
0.0205226
-0.00545755
0.0125165
0.0551004
0.0408036
0.128218
0.0705817
0.00574268
0.0443831
0.0926585
0.12416
0.0709094
0.0764081
0.0529371
0.0147441
0.111462
0.0258008
0.0219342
0.031254
0.0300947
0.0430821
0.0256379
0.0272342
0.0497346
0.0178663
0.0270042
0.0398927
0.101502
0.0399465
0.0388663
0.0724474
0.0520805
0.0433397
0.0466828
0.00177197
0.0140875
0.0448944
0.0687226
-0.0541777
0.0053582
0.0519982
0.0170519
-0.0202031
-0.0413202
-0.00610007
0.0304477
0.0304856
0.0508652
0.0303719
0.0236901
-0.000266147
-0.00138107
0.00183796
0.000636778
0.0313835
0.042745
0.0424648
0.126549
0.0583885
0.0326555
0.0345583
-0.000410733
0.0407569
0.0248029
0.146801
0.084017
0.00990068
0.0498406
0.0141749
0.0434698
0.00725932
0.000477857
0.0245841
0.0436018
0.0553098
0.163895
0.0375118
0.0856605
-0.0175656
0.0439875
0.0315795
0.0911635
0.0982942
0.0668201
0.0451471
0.0409556
0.0420544
0.0446403
0.043704
0.0378811
0.00585003
0.0435611
0.0527073
0.0493709
-0.329674
0.116304
0.0421091
0.0438713
0.00918145
0.0144697
0.0220305
0.0736028
0.0155571
0.0429497
0.0379962
0.00385289
0.0445483
0.0118183
0.0899367
0.0679485
0.0421211
0.0103283
0.0442654
0.0361608
0.0342851
0.0374607
-0.00365784
0.0563021
0.0318703
0.0302689
0.107748
0.0783453
0.0434316
0.0440335
0.032695
0.0300309
0.0119582
0.0178667
0.0367818
0.00636413
0.0768459
0.0446801
0.0339933
0.00491191
0.0356153
0.0818197
0.0601497
0.0473396
0.14828
0.0200523
0.122849
0.137703
0.0249429
-0.00267193
8.58214e-05
0.123024
0.0358206
0.00526653
0.0711265
0.0329198
0.0183596
0.087038
0.068856
0.0468656
0.00214079
0.0295034
0.0247497
0.0373604
0.00472675
0.0460162
0.0770224
0.0458028
0.0539757
0.0826136
0.0506346
0.0383065
0.103394
0.0063709
0.0882063
0.0253945
0.0687673
0.00737791
0.0581334
0.0103795
0.0454395
0.0273071
0.0082965
0.0639516
0.0255842
0.0453894
0.0387644
0.0128658
0.043105
0.031716
0.0529103
0.0332027
0.0199173
-0.00179818
0.0925964
0.101356
0.09757
0.0378772
0.0367261
0.0315874
0.0166771
0.0259816
0.0443721
0.0503226
0.0667383
0.0218455
0.0552797
0.00382819
0.0279945
0.0535293
0.0299576
0.0293689
0.0407675
0.0267398
0.0341489
0.131433
0.256434
0.0203579
0.0226233
0.0255955
0.0282873
0.0342468
0.0319753
0.0301014
0.0216396
0.0110789
0.0424579
0.0438523
0.042753
0.00537886
0.0439835
0.0269073
0.0384828
0.0286008
0.0560852
0.0308102
0.120215
-0.00802874
0.0435193
0.0328056
0.0878617
0.0382239
0.0572934
0.0871585
0.0492063
0.0438359
0.0281532
0.00268597
0.0837706
0.00258844
0.112161
0.0807021
0.00302257
0.0594152
0.0651458
0.00851618
0.0394876
0.0439518
0.0453792
0.0330781
0.0433143
0.0291429
-0.0394178
0.0423915
0.0766134
0.0397791
0.0585248
0.0592466
0.157768
0.0505681
0.0386296
0.0041569
0.011541
0.0836422
0.0289182
0.0803147
0.0452913
0.0344475
0.0615731
0.0425169
0.0301406
0.0446866
0.0453297
0.0281918
0.0432983
0.0314173
0.0582961
0.0778933
0.0123066
0.0430047
0.00585054
0.0005783
0.0643068
0.0581195
0.0466645
0.064811
0.129154
0.0438347
0.0373613
0.0428775
0.0571291
0.0351772
0.0322167
0.0355073
0.0703792
0.0800988
0.0297384
0.0760149
0.0869873
0.0565172
0.105394
0.0542016
0.0752786
0.0234335
0.0389813
0.0189139
0.0447857
0.0612907
0.045698
0.0800174
0.0014463
0.0514221
-0.0131983
0.0401336
0.0244833
0.114742
0.00657396
0.0429993
0.0434624
0.00384951
0.104349
0.0253701
0.0273117
0.0132594
0.0414738
0.078957
0.0342817
0.0420833
0.0328196
0.00730488
0.0384923
0.0368923
0.387723
0.0354481
0.0457491
0.0554498
0.0610892
0.0393191
0.0286697
0.0438654
0.0992098
0.0402501
0.0438459
0.011399
0.0333923
0.0260507
0.037908
0.0596241
0.0380639
0.0409241
0.0402497
0.0306725
0.0768855
0.0438932
0.0354575
0.0543545
0.042031
0.0358084
0.0506778
0.0511697
0.0559012
0.0562556
0.0439754
0.0395924
0.0467982
0.0266642
-0.00169363
-0.000733333
0.14324
0.0711313
-0.0105306
0.027615
0.0434755
0.0470252
0.0545991
0.0705185
0.0443553
0.0249815
0.0728391
0.0534872
0.0237702
-0.0105573
0.0193175
0.0433045
0.0340488
0.0437021
0.0908791
0.22965
0.0356588
0.0535581
0.0404549
0.00531388
0.0434707
0.069059
0.0259705
0.041405
0.0445286
0.0302048
0.0936449
0.0356923
0.0528437
0.0233845
0.038727
0.0398145
0.0846005
0.0572889
0.036529
0.0463664
0.0352922
0.0502636
0.0345052
0.0442614
0.0362112
0.0435047
0.050441
0.00955403
0.0648833
0.0137166
0.0705441
0.0702535
0.0486288
0.0350779
0.0319787
0.0738368
0.0888504
0.00922384
0.0378081
0.0546309
0.0544664
0.0367951
0.0424314
0.040095
0.0347889
0.0259685
0.0258987
0.0401051
0.0132571
0.0355675
0.0755999
0.037381
0.0394172
0.0368847
0.0219386
0.0807125
0.0499236
-0.000670417
0.0353801
0.0372169
0.00785006
0.0471783
0.00046461
0.0465633
0.0376856
0.0429649
0.0425655
0.0449657
0.0387378
0.00325322
0.0438598
0.0184097
0.0684539
0.0466718
0.0542627
0.0298983
0.0930764
0.0568788
0.0443702
0.0315813
-0.0668822
0.0440467
0.00446994
-0.0806854
0.0620808
0.0820671
0.0481777
0.0378267
0.0277666
0.0680442
0.054918
0.0444056
0.0891227
0.0097013
0.0785501
0.0439042
0.0431156
0.0397052
0.0403851
0.0409872
0.0624134
0.0739315
0.042447
-0.00163619
0.0410776
0.0487309
0.0381835
0.0300807
0.000249264
0.0432591
0.0378346
0.0214884
0.0378922
0.0426375
0.0466602
0.124565
0.070545
0.0444541
0.0590233
0.0493977
0.0378782
0.0726289
0.0558812
0.0401844
0.0592723
0.0332477
0.0589267
0.0818972
0.0011156
0.02134
0.0445621
0.0666697
0.042866
0.0468176
0.0455848
0.0385995
0.00106978
0.000290757
0.0548707
0.0306694
0.0310284
0.0260693
0.0431446
0.0423862
0.0444693
0.0682197
0.0312429
0.0439476
0.0377582
0.0501554
0.0202036
0.00867176
0.0440028
0.0434032
0.0329203
0.0441971
0.0425856
0.0389337
0.0410733
0.0360611
0.0622936
0.0579538
0.0314295
0.0419412
0.0485276
0.05522
0.0379213
0.0438797
0.0392851
0.0278329
0.000766995
0.00464139
0.0318918
0.119942
0.0383487
-0.0597068
0.0852755
0.0377368
0.0365804
0.0492791
0.0442286
0.0440126
0.0515357
0.0528429
0.0375842
0.0459287
0.0429687
0.0935717
0.00453776
0.0307869
0.0441623
0.0506298
0.0588264
0.0666793
0.0293711
0.0466158
0.0437897
0.0422082
0.0386818
0.0274807
0.0245107
0.00436452
0.0580309
0.0423831
0.0352798
0.0521833
0.0490978
0.0482334
0.0411487
0.0540375
0.0439742
0.0137528
-0.00262676
0.0428902
0.0626735
0.0373648
0.0406156
0.0420334
0.0455252
-0.0487977
0.0595959
-0.000442511
0.0395166
0.00619196
0.0478113
0.0674985
0.124966
0.0510494
0.044212
0.027568
0.019739
0.107974
0.0375786
0.0630991
0.0408797
0.0434431
0.0617587
0.0414993
0.118311
0.00018363
0.0755789
0.0476964
0.0433811
0.0439373
0.0429965
-0.0270383
0.0349179
0.0432971
0.0516812
0.0420351
0.043485
0.0430849