/*--------------------------------*- C++ -*----------------------------------*\
  =========                 |
  \\      /  F ield         | OpenFOAM: The Open Source CFD Toolbox
   \\    /   O peration     | Website:  https://openfoam.org
    \\  /    A nd           | Version:  7
     \\/     M anipulation  |
\*---------------------------------------------------------------------------*/
FoamFile
{
    version     2.0;
    format      ascii;
    class       volVectorField;
    location    "85";
    object      U;
}
// * * * * * * * * * * * * * * * * * * * * * * * * * * * * * * * * * * * * * //

dimensions      [0 1 -1 0 0 0 0];

internalField   nonuniform List<vector> 
41600
(
(-0.0409681 -0.297606 -6.11274e-20)
(-0.113932 -0.389831 -1.05496e-19)
(-0.148751 -0.416267 4.56013e-23)
(-0.136807 -0.339746 -1.38182e-19)
(-0.0769366 -0.156881 2.18426e-19)
(0.0124402 0.0961717 -4.90237e-19)
(0.114259 0.327805 -6.40077e-20)
(0.194276 0.494255 4.20282e-19)
(0.241037 0.591928 -7.83972e-20)
(0.246748 0.641353 -1.09481e-19)
(0.216806 0.65048 -4.11812e-20)
(0.206466 0.574932 1.32402e-19)
(0.278178 0.372491 -8.36675e-20)
(0.403427 0.0956598 -9.26916e-20)
(0.527502 -0.156738 -8.886e-20)
(0.619692 -0.341377 1.95964e-20)
(0.671345 -0.446205 3.54499e-21)
(0.690173 -0.491329 -8.55343e-20)
(0.682472 -0.504655 1.50858e-20)
(0.636073 -0.510881 1.9406e-20)
(0.582948 -0.478568 -9.29558e-20)
(0.56764 -0.354148 9.12464e-20)
(0.606239 -0.146167 -3.12454e-20)
(0.659476 0.0800252 9.27825e-21)
(0.719747 0.244324 3.48033e-20)
(-0.0419291 -0.290893 -2.81889e-19)
(-0.121278 -0.384469 5.35017e-19)
(-0.1627 -0.415019 -1.37888e-19)
(-0.156163 -0.345029 7.72713e-20)
(-0.102003 -0.168307 -6.28399e-19)
(-0.0179219 0.0798794 7.48852e-19)
(0.080809 0.31076 -1.01184e-19)
(0.16084 0.480894 -5.44923e-19)
(0.209542 0.585462 1.1967e-19)
(0.217723 0.642673 -3.54478e-19)
(0.195555 0.652989 5.93921e-20)
(0.205288 0.565214 2.31035e-19)
(0.299653 0.346889 2.45421e-19)
(0.439549 0.0636815 5.53263e-19)
(0.567892 -0.185049 1.68669e-19)
(0.657935 -0.360336 1.82514e-19)
(0.703474 -0.455108 2.29924e-20)
(0.714707 -0.491764 2.80133e-19)
(0.703908 -0.495195 1.97864e-20)
(0.655903 -0.493597 -6.74613e-20)
(0.596889 -0.465521 -7.05677e-20)
(0.569797 -0.356451 -1.71638e-19)
(0.593616 -0.161846 -7.71795e-20)
(0.641502 0.0573235 -8.98018e-21)
(0.701245 0.225556 -7.25866e-20)
(-0.0430517 -0.283392 6.21975e-20)
(-0.128317 -0.378494 -1.80482e-19)
(-0.175773 -0.413387 -3.05415e-19)
(-0.174145 -0.350222 2.38995e-19)
(-0.125273 -0.179988 5.76369e-19)
(-0.0459591 0.062956 -8.26081e-19)
(0.0498878 0.292716 4.29835e-19)
(0.129826 0.466266 3.38462e-20)
(0.180351 0.577647 4.77343e-19)
(0.191667 0.642055 6.26434e-19)
(0.179619 0.651979 4.41863e-19)
(0.211259 0.551279 4.4322e-20)
(0.328031 0.318794 8.94091e-21)
(0.481337 0.0317541 -5.27394e-19)
(0.61211 -0.211409 -5.74104e-19)
(0.698379 -0.376467 -2.43066e-19)
(0.737153 -0.460861 3.8594e-20)
(0.740466 -0.489883 -3.01354e-19)
(0.725839 -0.484588 6.60299e-20)
(0.676769 -0.474949 -8.07462e-20)
(0.614471 -0.449757 9.63993e-20)
(0.5769 -0.355116 2.74677e-19)
(0.587599 -0.175613 2.20465e-19)
(0.629779 0.0344205 -6.58306e-20)
(0.687392 0.20576 -5.60404e-20)
(-0.0443142 -0.275154 -4.73277e-19)
(-0.134988 -0.371933 8.2381e-20)
(-0.187874 -0.411366 1.03465e-18)
(-0.190623 -0.355289 -7.37778e-19)
(-0.146627 -0.191882 4.93295e-19)
(-0.0715964 0.0454631 2.10101e-18)
(0.0215862 0.273757 -1.05071e-18)
(0.101373 0.45045 1.46494e-18)
(0.153736 0.568455 6.28648e-19)
(0.169121 0.639273 7.16043e-19)
(0.169543 0.647302 2.07166e-19)
(0.224487 0.533415 -9.55056e-19)
(0.363219 0.288769 -6.39368e-19)
(0.528321 0.000475983 4.35083e-19)
(0.659583 -0.235313 5.14402e-19)
(0.740411 -0.389497 3.40297e-20)
(0.771724 -0.463425 -2.05743e-19)
(0.767164 -0.485575 2.12175e-19)
(0.747976 -0.472891 -4.82647e-19)
(0.698111 -0.455491 -2.60359e-19)
(0.635177 -0.431675 1.93167e-19)
(0.588076 -0.350304 -8.26228e-20)
(0.5877 -0.187316 5.39672e-20)
(0.62377 0.0120167 1.3174e-19)
(0.677784 0.185469 7.01234e-20)
(-0.0457288 -0.266211 6.35548e-20)
(-0.141248 -0.364811 -1.17827e-18)
(-0.198907 -0.40895 1.17539e-18)
(-0.205464 -0.360186 -1.53572e-19)
(-0.165934 -0.203929 -1.8994e-18)
(-0.0947546 0.0274787 -1.74626e-18)
(-0.00400918 0.253968 4.9751e-19)
(0.0756248 0.433518 -1.30741e-18)
(0.129998 0.55784 -7.76426e-19)
(0.150622 0.634123 -1.1559e-18)
(0.16574 0.638899 -1.03282e-19)
(0.24501 0.51197 3.73543e-19)
(0.404984 0.257395 1.03836e-18)
(0.579842 -0.0295683 -6.99581e-19)
(0.709567 -0.256311 9.31192e-19)
(0.783391 -0.399187 -6.81538e-19)
(0.80651 -0.462844 -5.26081e-19)
(0.79445 -0.4788 -2.07208e-19)
(0.770062 -0.46012 -1.05887e-19)
(0.719425 -0.435753 3.25781e-19)
(0.658365 -0.41169 -3.02234e-19)
(0.602391 -0.342191 1.17772e-19)
(0.592976 -0.196854 -2.14464e-19)
(0.6225 -0.00924958 -1.51612e-19)
(0.671696 0.165069 -1.12031e-20)
(-0.0472938 -0.256611 2.28928e-19)
(-0.147046 -0.357156 1.07851e-18)
(-0.208771 -0.406131 -3.10135e-18)
(-0.218528 -0.364863 1.97405e-18)
(-0.183049 -0.216055 1.14912e-18)
(-0.115343 0.00908379 -2.8333e-19)
(-0.0268068 0.233435 1.24532e-18)
(0.0527461 0.415532 -1.49692e-19)
(0.109473 0.545745 2.95474e-19)
(0.136681 0.626445 1.08095e-18)
(0.168503 0.626794 7.43249e-19)
(0.272791 0.487349 -5.56153e-20)
(0.452924 0.225282 -5.9548e-19)
(0.635087 -0.0578138 2.49442e-18)
(0.761182 -0.274031 -4.42348e-19)
(0.826634 -0.405358 1.05193e-18)
(0.84087 -0.459226 2.80857e-19)
(0.821909 -0.469599 6.63244e-19)
(0.791879 -0.446256 9.69156e-20)
(0.740321 -0.416199 -3.0228e-19)
(0.683219 -0.390257 2.06529e-19)
(0.61907 -0.330909 -2.52028e-19)
(0.60233 -0.204143 -5.53141e-20)
(0.624742 -0.0288428 -1.97756e-19)
(0.668181 0.14477 -4.62078e-20)
(-0.0490097 -0.246402 -4.24625e-19)
(-0.152333 -0.348997 -1.48202e-18)
(-0.21736 -0.402896 1.1726e-18)
(-0.229665 -0.369259 -3.12913e-18)
(-0.197812 -0.22817 -1.1921e-18)
(-0.133246 -0.00962754 3.9836e-19)
(-0.0466931 0.212257 -1.88224e-18)
(0.0329328 0.396549 9.91199e-19)
(0.0925213 0.532115 -7.32762e-19)
(0.127763 0.616135 -3.94363e-19)
(0.178011 0.611085 -5.82675e-19)
(0.307709 0.460006 1.41316e-18)
(0.506441 0.193063 -1.83092e-18)
(0.693123 -0.0837271 -1.08354e-18)
(0.813469 -0.288192 -4.4597e-19)
(0.869417 -0.40791 -8.75529e-19)
(0.87424 -0.452732 5.57967e-19)
(0.84907 -0.4581 -2.02535e-19)
(0.81324 -0.431278 6.67912e-20)
(0.760581 -0.397163 3.09487e-19)
(0.708747 -0.367926 1.74249e-19)
(0.637628 -0.316569 -2.60323e-19)
(0.614873 -0.209015 3.09935e-19)
(0.629288 -0.0463033 3.6208e-19)
(0.666211 0.124671 -3.08098e-20)
(-0.0508745 -0.235636 1.88899e-18)
(-0.157055 -0.340363 1.53382e-18)
(-0.224561 -0.399234 5.93727e-19)
(-0.238713 -0.373306 3.30418e-18)
(-0.210043 -0.240165 1.71286e-18)
(-0.148316 -0.0285419 2.95381e-18)
(-0.0635219 0.190539 -1.29455e-18)
(0.0164158 0.376625 2.17939e-19)
(0.0795149 0.516905 8.36333e-20)
(0.124265 0.603145 -5.69528e-19)
(0.19435 0.591934 -2.45769e-19)
(0.349524 0.430439 -1.44741e-18)
(0.564733 0.161366 2.19041e-18)
(0.752906 -0.10683 2.9152e-19)
(0.865443 -0.298605 -1.48182e-18)
(0.910994 -0.406844 -1.72892e-19)
(0.906157 -0.443558 -6.57303e-19)
(0.875436 -0.444514 -2.1074e-19)
(0.833973 -0.415202 5.40355e-19)
(0.780188 -0.378805 2.96715e-19)
(0.73386 -0.345339 1.7131e-20)
(0.657806 -0.299403 3.66251e-19)
(0.630216 -0.211169 1.43549e-20)
(0.635154 -0.0611381 -9.07648e-21)
(0.664886 0.104785 1.21619e-19)
(-0.0528838 -0.224369 -1.64635e-18)
(-0.161158 -0.331287 1.13936e-18)
(-0.230257 -0.395131 -1.16015e-19)
(-0.245498 -0.37693 5.815e-19)
(-0.219543 -0.251919 7.47338e-19)
(-0.160371 -0.0475252 -4.20215e-18)
(-0.0771062 0.168393 2.22577e-18)
(0.00346176 0.355823 -2.33461e-18)
(0.0708281 0.500092 -5.61204e-19)
(0.126504 0.587491 -8.00498e-19)
(0.217536 0.569571 -1.62459e-18)
(0.397847 0.39919 4.53753e-20)
(0.626805 0.130798 -4.02111e-19)
(0.81331 -0.126724 -1.73536e-18)
(0.916133 -0.305182 2.84846e-18)
(0.950637 -0.402273 1.79783e-18)
(0.936255 -0.43193 -5.96376e-19)
(0.900529 -0.429112 -3.33302e-19)
(0.853916 -0.398122 -2.65233e-19)
(0.799285 -0.361081 -5.33748e-19)
(0.757542 -0.32318 -2.70968e-19)
(0.679381 -0.279916 7.74935e-21)
(0.648495 -0.210128 -3.78714e-19)
(0.641666 -0.0727674 -7.71955e-20)
(0.6636 0.0852231 -2.746e-19)
(-0.055031 -0.212661 1.89673e-18)
(-0.164586 -0.321803 -3.23317e-18)
(-0.234321 -0.390571 -2.53828e-18)
(-0.249832 -0.380046 -3.59049e-18)
(-0.226093 -0.26329 8.19958e-19)
(-0.169192 -0.0664217 6.85757e-19)
(-0.0872141 0.145938 9.25256e-19)
(-0.0056342 0.334233 2.78229e-19)
(0.0668197 0.481689 3.58659e-19)
(0.134698 0.569243 -6.36628e-19)
(0.247528 0.544289 1.63447e-18)
(0.452106 0.366835 -3.70832e-19)
(0.691498 0.10193 2.43272e-18)
(0.873155 -0.143112 -6.47609e-19)
(0.964621 -0.307935 8.70473e-19)
(0.987686 -0.394417 -3.15188e-18)
(0.964239 -0.4181 -5.10763e-19)
(0.923948 -0.412201 -1.04587e-18)
(0.872918 -0.380226 -3.58726e-19)
(0.81807 -0.343784 -2.23855e-19)
(0.779058 -0.302053 2.01413e-19)
(0.701977 -0.258962 -9.15558e-20)
(0.67003 -0.205333 1.04375e-19)
(0.648519 -0.0804343 1.03179e-20)
(0.662136 0.0662277 1.00813e-19)
(-0.057307 -0.200575 2.08486e-19)
(-0.167281 -0.311948 3.55036e-18)
(-0.236624 -0.385538 -2.97322e-19)
(-0.25151 -0.382564 1.5985e-18)
(-0.229454 -0.274121 -5.09472e-18)
(-0.17453 -0.0850527 -1.90432e-19)
(-0.0935752 0.123331 -1.45041e-18)
(-0.0105507 0.31195 1.15793e-18)
(0.067815 0.46175 1.26599e-18)
(0.148969 0.54852 2.47878e-19)
(0.284219 0.516446 4.03265e-19)
(0.511525 0.333979 -5.13318e-19)
(0.757536 0.0752778 -1.50894e-18)
(0.931263 -0.155813 -2.76989e-18)
(1.01006 -0.306978 -5.03983e-19)
(1.0216 -0.383587 8.8842e-19)
(0.989866 -0.402351 2.33754e-18)
(0.945417 -0.394099 3.4803e-20)
(0.890849 -0.361786 3.62169e-19)
(0.83667 -0.326635 3.12007e-19)
(0.798105 -0.282348 -4.09467e-19)
(0.725013 -0.237684 -3.06012e-20)
(0.694775 -0.196385 1.22552e-19)
(0.655893 -0.083161 -1.15143e-19)
(0.66092 0.0482357 5.74333e-20)
(-0.059701 -0.188175 -4.41639e-18)
(-0.169186 -0.301763 -2.98974e-18)
(-0.237026 -0.380018 3.06514e-18)
(-0.250312 -0.384385 -1.7378e-18)
(-0.229364 -0.284241 6.54898e-18)
(-0.176098 -0.103215 -1.3461e-18)
(-0.0958923 0.100766 2.5628e-18)
(-0.010956 0.289085 4.02393e-19)
(0.0740919 0.440379 -1.15599e-18)
(0.169346 0.525482 1.47459e-18)
(0.327407 0.486463 8.44921e-19)
(0.575123 0.301238 -3.44374e-21)
(0.823576 0.0512773 -2.44624e-18)
(0.986512 -0.164765 1.69879e-18)
(1.05172 -0.302532 -2.60682e-18)
(1.05197 -0.37016 1.29116e-18)
(1.01293 -0.384999 -1.08359e-18)
(0.964799 -0.375112 1.60421e-19)
(0.907623 -0.343115 -2.03062e-19)
(0.855027 -0.309405 -9.53814e-20)
(0.814864 -0.264167 1.99549e-19)
(0.747852 -0.217296 4.26543e-20)
(0.721878 -0.183367 -7.46443e-21)
(0.664565 -0.0800622 3.21008e-21)
(0.66179 0.0322119 5.58837e-21)
(-0.0621997 -0.175529 4.04695e-18)
(-0.170243 -0.291289 1.22118e-18)
(-0.235389 -0.373998 -7.0345e-19)
(-0.246005 -0.385402 1.54021e-18)
(-0.225539 -0.293456 -5.34878e-18)
(-0.173591 -0.120682 3.21055e-18)
(-0.0938412 0.07843 -1.01252e-18)
(-0.0065333 0.265822 -8.83678e-19)
(0.0858614 0.41773 -2.72294e-19)
(0.19579 0.500332 -1.33785e-18)
(0.376757 0.454821 -1.36031e-18)
(0.641741 0.269223 1.63552e-18)
(0.888269 0.0302705 3.67742e-18)
(1.03789 -0.170025 5.94238e-18)
(1.089 -0.294912 -1.9617e-18)
(1.07855 -0.354557 8.88439e-19)
(1.03329 -0.366394 1.0947e-18)
(0.982076 -0.35553 1.33373e-18)
(0.923217 -0.324503 4.03349e-19)
(0.872867 -0.292015 4.91427e-19)
(0.829906 -0.247356 8.05599e-20)
(0.770075 -0.198767 1.91433e-19)
(0.749632 -0.167192 -6.11023e-20)
(0.675846 -0.0710278 5.40031e-20)
(0.669105 0.0198488 2.83302e-20)
(-0.0647884 -0.162707 -6.76381e-19)
(-0.170394 -0.280576 -2.03828e-18)
(-0.231568 -0.367469 -2.48666e-18)
(-0.238346 -0.385504 1.40327e-18)
(-0.217672 -0.301557 4.49964e-18)
(-0.166682 -0.137198 -7.917e-19)
(-0.0870992 0.0565854 -7.53707e-19)
(0.00302629 0.242346 -7.2468e-19)
(0.103243 0.394 -4.52495e-19)
(0.228204 0.473318 7.12054e-20)
(0.431767 0.422045 -3.60423e-19)
(0.710092 0.238513 -4.4531e-18)
(0.950308 0.0124911 -3.39626e-18)
(1.08452 -0.171765 5.93992e-19)
(1.12148 -0.284515 1.53106e-18)
(1.10121 -0.337223 -2.15168e-18)
(1.05088 -0.346902 -1.87708e-18)
(0.997311 -0.335631 -8.4667e-19)
(0.937672 -0.306159 1.19389e-19)
(0.889783 -0.274576 -3.71341e-19)
(0.843964 -0.231636 -2.23885e-19)
(0.791685 -0.182514 -3.09639e-19)
(0.775798 -0.149629 7.17548e-20)
(0.691435 -0.0575237 -2.79909e-20)
(0.689111 0.0130899 -5.5376e-20)
(-0.0674507 -0.149781 2.00805e-18)
(-0.169586 -0.269674 1.86068e-18)
(-0.225423 -0.360427 3.02904e-18)
(-0.227088 -0.38458 -2.21602e-18)
(-0.205437 -0.308316 -5.27904e-18)
(-0.155018 -0.152476 -2.58523e-18)
(-0.0753579 0.0355306 5.89056e-19)
(0.0179814 0.218871 2.04117e-19)
(0.126263 0.369427 1.66371e-18)
(0.26646 0.444737 9.04871e-19)
(0.491777 0.388703 8.18755e-19)
(0.778818 0.209643 4.63781e-18)
(1.00848 -0.0019404 -1.65116e-18)
(1.12571 -0.170256 -2.70673e-18)
(1.1489 -0.271795 1.53009e-18)
(1.11999 -0.318612 1.43716e-18)
(1.06576 -0.326878 7.6683e-19)
(1.01061 -0.315683 4.67891e-19)
(0.951056 -0.288203 -2.26714e-19)
(0.905402 -0.25733 1.04507e-19)
(0.857672 -0.216788 2.09954e-19)
(0.812944 -0.168244 3.06898e-19)
(0.798309 -0.132821 -1.11004e-20)
(0.713112 -0.0426343 -3.29131e-20)
(0.725018 0.0127647 6.04212e-20)
(-0.070169 -0.136822 -2.96843e-18)
(-0.167767 -0.25864 2.44501e-18)
(-0.216817 -0.352874 3.31187e-18)
(-0.211993 -0.382519 1.66615e-19)
(-0.188495 -0.313489 1.68902e-18)
(-0.138228 -0.166193 1.02382e-18)
(-0.0583009 0.0155488 -1.71614e-18)
(0.0385126 0.195717 8.33101e-19)
(0.154844 0.344271 -1.28706e-18)
(0.310424 0.414948 -5.77703e-19)
(0.555999 0.355402 3.43594e-20)
(0.846544 0.183084 2.57915e-18)
(1.06172 -0.0130172 4.78608e-18)
(1.16097 -0.165859 -1.01063e-18)
(1.17121 -0.257243 1.95386e-18)
(1.13499 -0.299171 8.35275e-19)
(1.07805 -0.306657 6.19074e-19)
(1.0221 -0.295933 1.95186e-19)
(0.963416 -0.27069 -2.55594e-19)
(0.919553 -0.240545 -3.28628e-19)
(0.871413 -0.202737 -3.02867e-19)
(0.833853 -0.155225 7.04299e-20)
(0.816338 -0.118374 -4.67078e-20)
(0.741861 -0.0297916 -1.21519e-19)
(0.771215 0.0166206 1.12717e-19)
(-0.0729249 -0.123905 1.59376e-18)
(-0.164889 -0.247536 -2.26097e-18)
(-0.205625 -0.344823 -5.29387e-18)
(-0.192842 -0.379226 3.70007e-19)
(-0.166509 -0.316826 1.53038e-18)
(-0.115917 -0.177988 -4.22151e-19)
(-0.0356149 -0.00300622 3.87976e-19)
(0.0647321 0.173231 3.43984e-19)
(0.188846 0.31881 -2.12004e-19)
(0.360034 0.384389 2.67076e-18)
(0.623557 0.322794 -2.51268e-19)
(0.911901 0.159236 -1.65194e-18)
(1.10909 -0.0208436 -3.03551e-18)
(1.19004 -0.159004 -1.0181e-19)
(1.18852 -0.241362 -2.53286e-18)
(1.14647 -0.279322 -1.43136e-18)
(1.08797 -0.286532 -6.69097e-19)
(1.03193 -0.276599 -6.18852e-20)
(0.974762 -0.253663 -3.73608e-19)
(0.932304 -0.224434 5.40184e-19)
(0.885294 -0.189479 -4.1953e-19)
(0.853761 -0.14292 5.99799e-20)
(0.831238 -0.106738 1.3918e-20)
(0.776185 -0.0209799 -3.16704e-20)
(0.815328 0.02 -2.78241e-19)
(-0.0756994 -0.111102 -2.17447e-18)
(-0.160911 -0.236429 1.07145e-18)
(-0.191737 -0.336297 2.26746e-18)
(-0.169461 -0.374624 -5.20064e-19)
(-0.139178 -0.318085 1.33464e-18)
(-0.0876753 -0.187463 2.00129e-18)
(-0.00696885 -0.0196987 2.75954e-19)
(0.0967124 0.151807 -6.82121e-19)
(0.228203 0.293356 8.07153e-19)
(0.41539 0.353624 -2.10753e-18)
(0.693456 0.291571 -1.01528e-18)
(0.973523 0.138405 -1.76757e-18)
(1.1499 -0.0256329 4.96775e-19)
(1.21286 -0.150172 3.68442e-19)
(1.20112 -0.224642 5.71757e-19)
(1.15473 -0.259449 3.65283e-19)
(1.09575 -0.266758 -2.88501e-20)
(1.04028 -0.257848 1.08297e-19)
(0.985089 -0.237176 1.2615e-18)
(0.943873 -0.209125 4.26533e-19)
(0.899175 -0.176945 6.46282e-20)
(0.871756 -0.131384 -5.21328e-20)
(0.845869 -0.0973761 1.64215e-20)
(0.811475 -0.0162177 1.0433e-19)
(0.848548 0.0196434 1.95876e-19)
(-0.0784735 -0.0984874 1.41273e-18)
(-0.155799 -0.225391 2.30014e-18)
(-0.175065 -0.32733 -1.27857e-18)
(-0.141735 -0.368667 1.82419e-19)
(-0.106275 -0.31706 1.86361e-18)
(-0.0531133 -0.194205 8.41541e-19)
(0.0280117 -0.0340117 1.59024e-18)
(0.134579 0.131917 4.07726e-19)
(0.273162 0.268324 -9.28715e-20)
(0.476763 0.32339 5.95524e-19)
(0.764453 0.26244 2.75634e-18)
(1.03006 0.120774 4.5289e-19)
(1.18364 -0.0277024 4.58025e-19)
(1.22963 -0.139867 1.18069e-18)
(1.20941 -0.207544 -1.57877e-18)
(1.16019 -0.239882 1.11985e-19)
(1.10167 -0.247541 -7.09806e-19)
(1.04731 -0.239804 -1.41015e-18)
(0.994417 -0.221298 -4.41241e-19)
(0.95449 -0.194676 2.32032e-19)
(0.912707 -0.165032 1.07977e-19)
(0.887571 -0.120985 1.38662e-19)
(0.86206 -0.0894478 4.65947e-20)
(0.842357 -0.0145813 -2.96281e-20)
(0.871454 0.0159293 -5.88923e-20)
(-0.0812284 -0.0861315 -2.22914e-19)
(-0.149522 -0.214498 -5.09503e-18)
(-0.155545 -0.317968 1.44457e-18)
(-0.109634 -0.361349 1.3571e-18)
(-0.0676989 -0.313611 -4.4315e-18)
(-0.0119313 -0.197835 6.41417e-19)
(0.0697325 -0.0453641 -3.05469e-19)
(0.178649 0.114129 4.31272e-19)
(0.324493 0.244332 -2.95244e-19)
(0.544304 0.294598 -2.12091e-18)
(0.834879 0.236055 1.54253e-21)
(1.0802 0.106371 -1.32067e-18)
(1.2101 -0.027463 -2.21677e-18)
(1.24074 -0.128596 -1.59539e-18)
(1.21393 -0.190478 2.94338e-19)
(1.16324 -0.220891 -4.45621e-19)
(1.10599 -0.229044 3.00542e-19)
(1.05319 -0.222555 7.98887e-19)
(1.0028 -0.206086 2.64339e-19)
(0.9643 -0.181085 -8.22954e-19)
(0.925518 -0.153703 -8.84668e-21)
(0.901731 -0.111872 -1.49557e-19)
(0.879147 -0.0824591 -1.74514e-20)
(0.866701 -0.0150068 -2.66119e-20)
(0.889183 0.0111635 1.61e-19)
(-0.0839458 -0.0741047 -2.42245e-18)
(-0.14206 -0.203829 1.76142e-18)
(-0.133146 -0.308264 5.71031e-19)
(-0.0732281 -0.352713 -1.34525e-18)
(-0.0235305 -0.307696 3.72025e-18)
(0.0359718 -0.198069 -1.91851e-18)
(0.118545 -0.0531912 -1.13441e-18)
(0.229499 0.0990866 -4.17056e-19)
(0.383349 0.22226 3.78663e-19)
(0.617424 0.268211 1.69419e-18)
(0.902552 0.212894 4.813e-19)
(1.12283 0.0950322 3.52443e-18)
(1.22937 -0.0253973 3.30896e-18)
(1.24678 -0.116836 5.58838e-19)
(1.21526 -0.173787 2.94223e-19)
(1.16433 -0.202679 2.36453e-18)
(1.10896 -0.211381 1.88839e-18)
(1.05807 -0.206155 1.37539e-18)
(1.01033 -0.191584 5.57983e-19)
(0.973363 -0.168324 5.25643e-19)
(0.937412 -0.142994 -7.86092e-20)
(0.914815 -0.103877 1.17657e-19)
(0.895502 -0.0763118 -1.21325e-20)
(0.886029 -0.0164558 2.87103e-20)
(0.904907 0.00675741 -1.60663e-19)
(-0.0866083 -0.0624743 1.62879e-18)
(-0.133395 -0.193465 5.23251e-19)
(-0.107864 -0.298278 4.29366e-19)
(-0.0327019 -0.342843 -3.73292e-18)
(0.0259291 -0.299396 -6.68336e-18)
(0.0903769 -0.194811 -5.18382e-20)
(0.174559 -0.0570824 1.32791e-18)
(0.287783 0.0874253 -1.93418e-19)
(0.450534 0.203106 4.70909e-19)
(0.694153 0.244991 1.28299e-19)
(0.964956 0.193136 -1.82273e-18)
(1.15719 0.0864015 -4.82725e-18)
(1.24189 -0.0220214 -3.00184e-18)
(1.24849 -0.105012 5.48878e-19)
(1.214 -0.157739 2.02455e-18)
(1.16384 -0.18539 -7.96541e-20)
(1.11083 -0.194628 4.13597e-19)
(1.0621 -0.190633 -7.03605e-19)
(1.01706 -0.177813 -8.2812e-19)
(0.981702 -0.156353 -4.41659e-20)
(0.948367 -0.132935 -2.09218e-19)
(0.927007 -0.0967561 3.41419e-20)
(0.910336 -0.0709649 -1.53959e-20)
(0.902414 -0.0181539 1.1736e-19)
(0.918979 0.00286496 -1.15738e-20)
(-0.089199 -0.0513046 -1.81029e-18)
(-0.123513 -0.183485 3.51393e-18)
(-0.0797282 -0.28807 1.03925e-18)
(0.0116459 -0.331868 2.1629e-18)
(0.0801398 -0.288921 3.17627e-18)
(0.150655 -0.188214 -9.08434e-19)
(0.237406 -0.0569341 -8.50908e-19)
(0.353728 0.0795882 1.76066e-19)
(0.525383 0.187623 -5.10964e-19)
(0.771025 0.225237 -8.41138e-19)
(1.01969 0.176599 3.03189e-19)
(1.18303 0.0799773 3.45088e-18)
(1.24839 -0.0178363 3.35441e-18)
(1.24667 -0.0934671 -1.57055e-18)
(1.21075 -0.142527 1.44714e-19)
(1.16215 -0.169111 -1.66502e-18)
(1.11179 -0.178824 2.06834e-18)
(1.06541 -0.175997 1.49207e-19)
(1.02307 -0.164781 -7.1836e-19)
(0.989336 -0.145129 3.09186e-19)
(0.958421 -0.123519 2.82418e-19)
(0.9383 -0.0903252 1.27823e-19)
(0.923652 -0.0662932 2.11691e-20)
(0.916773 -0.0197263 -9.49635e-20)
(0.931207 -0.000649471 7.96006e-20)
(-0.0917022 -0.0406563 4.18951e-18)
(-0.112401 -0.173966 2.03998e-18)
(-0.0487993 -0.277694 4.16162e-19)
(0.0594108 -0.319947 7.35061e-18)
(0.138331 -0.276578 1.1996e-18)
(0.215742 -0.178704 -1.10244e-18)
(0.306042 -0.0530669 -1.05662e-18)
(0.426468 0.0756037 -3.64967e-19)
(0.605052 0.175912 -1.72576e-19)
(0.843777 0.208684 -5.24727e-19)
(1.06502 0.1628 4.56201e-19)
(1.20074 0.0751979 1.69241e-18)
(1.24986 -0.0132788 -1.16618e-18)
(1.24215 -0.082457 5.65192e-18)
(1.20604 -0.128267 -5.26657e-18)
(1.15956 -0.15388 1.62529e-19)
(1.11204 -0.163982 -1.61214e-18)
(1.0681 -0.162237 7.76659e-19)
(1.02842 -0.15248 8.88072e-19)
(0.99629 -0.134613 -7.21836e-19)
(0.967629 -0.114717 -3.81802e-19)
(0.948689 -0.0844527 -3.20375e-19)
(0.935601 -0.0621512 1.32127e-20)
(0.929391 -0.0210533 4.27552e-20)
(0.941814 -0.00379009 -2.88437e-20)
(-0.0941028 -0.0305864 -1.75532e-18)
(-0.100043 -0.164975 -8.72351e-18)
(-0.0151659 -0.267196 -4.56475e-18)
(0.110103 -0.307253 -8.64498e-18)
(0.199554 -0.26275 5.45214e-19)
(0.284197 -0.16693 -2.65918e-19)
(0.378719 -0.046213 -1.53368e-19)
(0.503655 0.0749339 2.95079e-19)
(0.684935 0.167286 1.67111e-20)
(0.908551 0.194641 -5.24934e-19)
(1.10029 0.15111 -8.15134e-19)
(1.21125 0.0715386 -3.04793e-18)
(1.24736 -0.00868783 -4.07646e-18)
(1.23569 -0.0721464 -2.74324e-18)
(1.20032 -0.115017 -4.56082e-19)
(1.15634 -0.1397 5.51768e-19)
(1.11171 -0.150092 1.35387e-18)
(1.07028 -0.14933 7.9743e-19)
(1.03314 -0.140896 -5.36212e-19)
(1.0026 -0.124762 5.3612e-19)
(0.976045 -0.106493 3.95597e-19)
(0.958192 -0.0790376 1.41883e-19)
(0.946307 -0.0584192 4.74071e-21)
(0.940495 -0.0221029 8.70943e-22)
(0.951118 -0.00651492 -7.68267e-20)
(-0.0963862 -0.0211476 -4.05147e-19)
(-0.0864142 -0.156572 -5.38458e-18)
(0.0210543 -0.256607 5.41832e-19)
(0.163162 -0.293953 5.33439e-18)
(0.262769 -0.247865 -1.83335e-18)
(0.354357 -0.153645 2.69751e-18)
(0.453149 -0.0373758 -8.11323e-19)
(0.581731 0.0765266 -1.18204e-19)
(0.760084 0.160559 4.90094e-19)
(0.962921 0.182291 1.62588e-18)
(1.12596 0.140932 2.2976e-19)
(1.21587 0.0685816 1.40526e-18)
(1.24197 -0.00429382 1.20356e-18)
(1.22794 -0.0626209 -2.86434e-18)
(1.19398 -0.102783 -5.16574e-18)
(1.1527 -0.126547 -5.00568e-19)
(1.11095 -0.137128 -2.25763e-19)
(1.07201 -0.137245 -5.84253e-19)
(1.0373 -0.130006 7.02416e-19)
(1.00831 -0.115536 -2.41159e-19)
(0.983721 -0.0988028 -3.03964e-19)
(0.966832 -0.0740047 1.28505e-19)
(0.955891 -0.0550009 -1.83826e-20)
(0.950306 -0.0228727 1.25361e-20)
(0.959342 -0.00880602 1.82457e-20)
(-0.0985377 -0.0123889 6.78334e-18)
(-0.071478 -0.1488 1.27527e-17)
(0.0597138 -0.245949 3.97783e-18)
(0.217989 -0.280202 1.66771e-18)
(0.326908 -0.232331 4.63351e-18)
(0.42454 -0.1396 -1.21503e-19)
(0.526843 -0.0276208 4.8476e-19)
(0.656811 0.0790988 -3.52079e-20)
(0.826749 0.154542 -5.67801e-19)
(1.00625 0.170967 -4.83333e-19)
(1.14331 0.13182 -7.67789e-19)
(1.21598 0.0660414 4.2356e-18)
(1.23463 -0.000229009 2.08015e-18)
(1.21945 -0.0539046 1.16266e-18)
(1.1873 -0.0915385 8.45068e-19)
(1.14878 -0.114378 5.22898e-19)
(1.10985 -0.125052 -4.8164e-20)
(1.07336 -0.125943 -8.81685e-19)
(1.04093 -0.119784 -4.15363e-19)
(1.01347 -0.106892 1.33101e-19)
(0.9907 -0.0916031 6.25973e-19)
(0.974647 -0.069298 5.78542e-20)
(0.964477 -0.0518191 7.50781e-20)
(0.959006 -0.0233763 -9.54384e-20)
(0.966645 -0.0106688 2.84515e-20)
(-0.100542 -0.00435546 -7.36638e-18)
(-0.0551818 -0.14168 -1.07821e-17)
(0.100632 -0.235228 -9.68508e-18)
(0.273971 -0.266141 -1.31852e-18)
(0.390949 -0.216502 -7.28109e-18)
(0.493207 -0.125446 -2.27784e-19)
(0.597505 -0.0178804 -5.74496e-19)
(0.725727 0.0815165 7.16403e-21)
(0.883145 0.148437 6.88578e-19)
(1.03935 0.160283 8.12779e-20)
(1.154 0.1235 1.26177e-18)
(1.21289 0.0637497 -3.92679e-18)
(1.2261 0.00344942 -1.83722e-18)
(1.21061 -0.045979 -7.58486e-19)
(1.18049 -0.0812343 2.50088e-18)
(1.14472 -0.103139 -8.89653e-19)
(1.1085 -0.113821 -1.57236e-19)
(1.07439 -0.115383 2.07576e-18)
(1.04407 -0.110199 -5.3727e-19)
(1.01813 -0.0987909 3.03235e-19)
(0.997014 -0.0848539 -3.89594e-19)
(0.981687 -0.0648739 -3.50078e-19)
(0.972181 -0.0488142 -2.21837e-19)
(0.966747 -0.023635 1.01233e-19)
(0.97315 -0.0121247 -5.26541e-20)
(-0.102384 0.00291048 4.65181e-18)
(-0.0374531 -0.135207 6.94317e-18)
(0.143589 -0.224444 4.35242e-19)
(0.33051 -0.251894 -1.08469e-18)
(0.453974 -0.200669 3.71019e-18)
(0.559098 -0.111668 1.98605e-18)
(0.66336 -0.0088294 1.20108e-18)
(0.78665 0.0830645 2.39724e-19)
(0.92927 0.141924 -3.27268e-19)
(1.06384 0.150106 8.2531e-19)
(1.1597 0.115836 -2.60606e-19)
(1.20769 0.0616215 2.31668e-18)
(1.21696 0.00673385 -1.62211e-18)
(1.20173 -0.0387994 3.49514e-19)
(1.17373 -0.071808 8.6331e-20)
(1.14061 -0.0927701 4.8764e-19)
(1.10696 -0.103387 -1.90297e-18)
(1.07513 -0.105524 -1.76509e-18)
(1.04678 -0.101221 2.53616e-19)
(1.02233 -0.0911926 -9.35846e-19)
(1.00269 -0.0785195 -2.20174e-19)
(0.988019 -0.0606961 -1.18596e-20)
(0.979105 -0.0459411 -8.9668e-21)
(0.973647 -0.0236738 8.16109e-20)
(0.978953 -0.0132038 1.14469e-19)
(-0.104043 0.00936913 1.96825e-18)
(-0.0181983 -0.129346 -6.1267e-18)
(0.188324 -0.213595 4.24272e-18)
(0.387024 -0.23756 -1.76315e-18)
(0.515204 -0.18505 1.90594e-18)
(0.621276 -0.098583 -2.01979e-19)
(0.723322 -0.000845673 -9.48525e-19)
(0.839095 0.0834928 8.92993e-20)
(0.96623 0.135045 -1.12946e-19)
(1.08152 0.14045 2.69755e-20)
(1.16183 0.108768 1.10354e-18)
(1.20118 0.0596223 -1.89673e-18)
(1.20764 0.00964578 1.66449e-18)
(1.193 -0.0323072 2.06825e-19)
(1.1671 -0.0631915 1.50412e-18)
(1.13651 -0.083209 9.19156e-19)
(1.10528 -0.0936989 1.03102e-18)
(1.07561 -0.0963214 -2.17008e-19)
(1.04909 -0.0928163 9.3622e-19)
(1.02611 -0.08406 4.67661e-19)
(1.00776 -0.0725687 2.25358e-19)
(0.993719 -0.0567332 1.68017e-19)
(0.98533 -0.0431693 1.71382e-19)
(0.979801 -0.0235183 -4.01786e-20)
(0.984137 -0.0139397 -1.16724e-19)
(-0.1055 0.0149822 -2.89246e-18)
(0.00269585 -0.124025 1.38411e-18)
(0.234535 -0.202685 8.6969e-18)
(0.442975 -0.223216 7.06659e-18)
(0.574022 -0.169803 -2.9934e-18)
(0.67914 -0.0863547 -1.69114e-18)
(0.776969 0.00595499 -9.72789e-20)
(0.88352 0.0828882 -1.50063e-19)
(0.995544 0.128009 7.97566e-19)
(1.09404 0.13138 1.54474e-19)
(1.16149 0.102269 6.7735e-19)
(1.19399 0.0577433 5.61137e-19)
(1.19842 0.0122218 5.04136e-19)
(1.18457 -0.026438 -2.87129e-18)
(1.1607 -0.0553158 -2.09414e-18)
(1.13247 -0.0743937 -2.73446e-18)
(1.10351 -0.0847067 -7.7141e-19)
(1.07587 -0.0877348 1.74056e-19)
(1.05106 -0.0849505 -1.31502e-18)
(1.02948 -0.0773587 -2.52671e-19)
(1.01228 -0.0669737 -1.35314e-19)
(0.998863 -0.052957 -2.59348e-19)
(0.990912 -0.0404798 4.16639e-20)
(0.98529 -0.0231919 -4.39528e-20)
(0.988776 -0.0143674 -2.03171e-20)
(-0.106729 0.0197119 -3.57808e-18)
(0.0253575 -0.119132 3.29637e-18)
(0.281884 -0.191728 -1.88808e-19)
(0.497878 -0.208928 -3.7239e-18)
(0.629951 -0.15503 2.32399e-18)
(0.73238 -0.0750355 1.26913e-18)
(0.824388 0.0116398 -3.5045e-19)
(0.920838 0.0814977 -6.11886e-19)
(1.0187 0.121046 -2.18576e-19)
(1.10271 0.122954 -2.26932e-18)
(1.15953 0.0963238 -2.55849e-18)
(1.18653 0.0559875 5.42621e-19)
(1.18949 0.0145042 1.69047e-18)
(1.17651 -0.0211271 1.68507e-18)
(1.15455 -0.048113 -1.81926e-18)
(1.12853 -0.0662641 1.48834e-18)
(1.10168 -0.0763612 5.05504e-19)
(1.07593 -0.0797232 2.63734e-20)
(1.05271 -0.07759 9.08815e-19)
(1.03248 -0.0710572 -1.81267e-19)
(1.01627 -0.0617087 -6.48185e-20)
(1.00351 -0.0493433 2.69778e-19)
(0.995894 -0.0378633 -7.24106e-20)
(0.990197 -0.0227147 2.65325e-19)
(0.992935 -0.0145179 -1.78915e-19)
(-0.107698 0.023521 1.40314e-18)
(0.0499201 -0.114524 -7.77854e-18)
(0.330003 -0.180743 -8.35115e-18)
(0.551314 -0.194749 -4.70974e-18)
(0.682674 -0.140791 3.52896e-18)
(0.780924 -0.0646024 -1.58747e-18)
(0.865974 0.0163712 1.56401e-18)
(0.952077 0.0795963 8.21198e-19)
(1.03699 0.114343 -2.12598e-19)
(1.10855 0.115204 3.51147e-19)
(1.15653 0.0909134 1.58007e-18)
(1.17908 0.0543619 -3.84774e-19)
(1.18096 0.0165358 -5.52346e-19)
(1.16887 -0.0163121 -3.38513e-19)
(1.14869 -0.041519 7.56632e-19)
(1.12469 -0.0587627 -1.83478e-18)
(1.0998 -0.0686147 -1.00738e-18)
(1.07583 -0.0722471 1.06687e-18)
(1.05409 -0.0707016 -3.0483e-19)
(1.03512 -0.0651271 -1.02317e-19)
(1.01981 -0.0567494 4.24201e-19)
(1.00772 -0.045872 -1.5885e-19)
(1.00031 -0.0353175 -3.80075e-19)
(0.994604 -0.0221005 -2.38565e-19)
(0.996658 -0.0144165 3.0745e-19)
(-0.10837 0.0263724 1.74386e-19)
(0.0765074 -0.110025 2.21582e-18)
(0.378506 -0.169753 2.65542e-18)
(0.602931 -0.180721 7.83777e-18)
(0.731992 -0.12711 -5.7376e-18)
(0.82487 -0.0549887 1.29049e-18)
(0.90226 0.0203391 -9.95008e-19)
(0.978199 0.0774208 3.22708e-19)
(1.05143 0.108029 -6.84188e-19)
(1.11231 0.108137 -7.12497e-19)
(1.15292 0.0860174 -1.35116e-18)
(1.17183 0.052874 -7.68984e-19)
(1.17291 0.0183572 1.11458e-18)
(1.16168 -0.0119354 -1.30216e-18)
(1.14313 -0.0354738 -1.15849e-18)
(1.12099 -0.0518357 3.03472e-18)
(1.09791 -0.0614216 2.51438e-18)
(1.07558 -0.0652689 -2.71135e-19)
(1.05522 -0.0642534 1.09251e-19)
(1.03743 -0.0595421 2.5287e-19)
(1.02293 -0.052073 -3.30484e-19)
(1.0115 -0.0425282 3.08265e-19)
(1.00422 -0.0328435 2.52379e-19)
(0.998594 -0.0213557 -3.13013e-19)
(0.999989 -0.0140905 -3.22251e-19)
(-0.1087 0.0282307 1.68791e-18)
(0.105216 -0.105447 4.60455e-18)
(0.427008 -0.158786 -8.12114e-18)
(0.652448 -0.166883 -4.50602e-18)
(0.777818 -0.11399 2.83472e-18)
(0.864425 -0.0461091 1.88757e-18)
(0.933813 0.0237215 1.75646e-18)
(1.00004 0.0751519 -8.88419e-19)
(1.06285 0.10218 5.71852e-19)
(1.11458 0.101741 4.02128e-19)
(1.14899 0.0816124 -2.2021e-19)
(1.16489 0.0515302 -2.23949e-18)
(1.16535 0.0200051 -4.06048e-18)
(1.15494 -0.00794433 -1.75235e-18)
(1.13786 -0.029922 3.06055e-18)
(1.11743 -0.0454328 -5.24783e-19)
(1.09601 -0.0547388 -5.68636e-20)
(1.0752 -0.0587529 5.23342e-19)
(1.05614 -0.0582149 -1.36552e-20)
(1.03944 -0.0542777 3.41046e-19)
(1.02569 -0.0476584 -3.85213e-19)
(1.0149 -0.0393013 2.1525e-19)
(1.00766 -0.0304416 6.18878e-19)
(1.00223 -0.020486 3.16544e-19)
(1.00298 -0.013571 -9.69029e-21)
(-0.108632 0.0290651 -4.6703e-18)
(0.136098 -0.100602 -4.24434e-18)
(0.475133 -0.147863 4.9207e-18)
(0.699653 -0.153261 -3.61496e-18)
(0.820147 -0.101421 1.5342e-18)
(0.899858 -0.0378749 -3.42016e-18)