/*--------------------------------*- C++ -*----------------------------------*\
  =========                 |
  \\      /  F ield         | OpenFOAM: The Open Source CFD Toolbox
   \\    /   O peration     | Website:  https://openfoam.org
    \\  /    A nd           | Version:  7
     \\/     M anipulation  |
\*---------------------------------------------------------------------------*/
FoamFile
{
    version     2.0;
    format      ascii;
    class       volScalarField;
    location    "53";
    object      p;
}
// * * * * * * * * * * * * * * * * * * * * * * * * * * * * * * * * * * * * * //

dimensions      [0 2 -2 0 0 0 0];

internalField   nonuniform List<scalar> 
26800
(
-0.217046
-0.220435
-0.226913
-0.226498
-0.227553
-0.224964
-0.222086
-0.217263
-0.211341
-0.204445
-0.196119
-0.187471
-0.17741
-0.166897
-0.15503
-0.138916
-0.12407
-0.102606
-0.0851345
-0.0667678
-0.217338
-0.220659
-0.227234
-0.2268
-0.227688
-0.224653
-0.221026
-0.215281
-0.208594
-0.201404
-0.193743
-0.186931
-0.179559
-0.172002
-0.162502
-0.146749
-0.130821
-0.105936
-0.0843972
-0.0625312
-0.217804
-0.220944
-0.227648
-0.22717
-0.227897
-0.224425
-0.22007
-0.213443
-0.206021
-0.198607
-0.191603
-0.186592
-0.18173
-0.176829
-0.169307
-0.153467
-0.136461
-0.108526
-0.083684
-0.0592996
-0.218441
-0.221286
-0.228151
-0.227603
-0.228179
-0.224281
-0.21923
-0.211774
-0.203669
-0.196102
-0.189743
-0.186431
-0.183798
-0.181118
-0.175089
-0.158852
-0.14047
-0.11026
-0.0829986
-0.057316
-0.219245
-0.22168
-0.228735
-0.228092
-0.228525
-0.224218
-0.218509
-0.210288
-0.20157
-0.193919
-0.188177
-0.186407
-0.185655
-0.184711
-0.179456
-0.162652
-0.142812
-0.11132
-0.0824831
-0.0566291
-0.220208
-0.222118
-0.22939
-0.228627
-0.228928
-0.22423
-0.217907
-0.208992
-0.199743
-0.192068
-0.186906
-0.186468
-0.187205
-0.187292
-0.182361
-0.164862
-0.143552
-0.111898
-0.08237
-0.0570881
-0.221325
-0.222593
-0.230104
-0.229196
-0.229374
-0.224306
-0.217418
-0.207886
-0.198194
-0.190543
-0.185952
-0.186493
-0.188342
-0.188734
-0.183671
-0.165549
-0.142923
-0.112053
-0.0827646
-0.0584525
-0.222585
-0.223095
-0.230863
-0.229786
-0.229847
-0.224429
-0.217029
-0.20696
-0.196919
-0.18933
-0.185258
-0.186428
-0.188944
-0.188989
-0.183324
-0.164793
-0.141252
-0.111766
-0.0835529
-0.0604268
-0.223981
-0.223615
-0.231652
-0.23038
-0.23033
-0.224581
-0.216725
-0.206189
-0.195906
-0.188398
-0.18474
-0.186166
-0.188882
-0.188061
-0.181382
-0.162721
-0.138847
-0.111045
-0.0844831
-0.0626757
-0.225502
-0.224141
-0.232455
-0.230962
-0.230803
-0.224738
-0.216471
-0.205561
-0.195119
-0.187694
-0.184335
-0.185613
-0.188018
-0.186
-0.178058
-0.15954
-0.135955
-0.109966
-0.0853184
-0.0648972
-0.227138
-0.224663
-0.233252
-0.231513
-0.231244
-0.224872
-0.216245
-0.205034
-0.194507
-0.187141
-0.183923
-0.184674
-0.186271
-0.182904
-0.173689
-0.155543
-0.132782
-0.108637
-0.0859239
-0.0668887
-0.228879
-0.225171
-0.234026
-0.232012
-0.231629
-0.224956
-0.21601
-0.204562
-0.194
-0.186638
-0.18336
-0.183267
-0.183658
-0.178942
-0.168662
-0.151065
-0.129497
-0.107156
-0.0862607
-0.0685527
-0.230716
-0.225655
-0.234759
-0.232438
-0.231933
-0.224956
-0.215721
-0.204085
-0.193508
-0.186071
-0.182506
-0.181351
-0.180304
-0.174359
-0.16334
-0.146411
-0.126222
-0.105593
-0.0863433
-0.0698666
-0.23264
-0.226106
-0.235436
-0.232787
-0.23212
-0.224834
-0.215331
-0.203539
-0.192934
-0.185327
-0.181265
-0.178939
-0.176408
-0.169426
-0.158
-0.141804
-0.123033
-0.103985
-0.0862064
-0.0708491
-0.234643
-0.226519
-0.236038
-0.233022
-0.232172
-0.224554
-0.214787
-0.202854
-0.192185
-0.184317
-0.179597
-0.1761
-0.172183
-0.164382
-0.152823
-0.137377
-0.11997
-0.102354
-0.0858873
-0.071537
-0.236718
-0.226887
-0.236538
-0.233136
-0.232062
-0.224081
-0.214043
-0.201966
-0.191185
-0.182985
-0.177521
-0.172933
-0.167813
-0.159402
-0.147902
-0.133189
-0.117046
-0.100708
-0.0854178
-0.0719709
-0.238862
-0.227207
-0.236934
-0.233106
-0.231757
-0.22338
-0.213056
-0.200822
-0.189884
-0.181313
-0.175093
-0.169542
-0.163432
-0.154595
-0.143268
-0.129255
-0.114261
-0.0990514
-0.084824
-0.0721877
-0.241069
-0.227478
-0.237218
-0.232912
-0.231232
-0.222426
-0.211794
-0.199389
-0.188264
-0.179314
-0.172382
-0.16602
-0.159124
-0.150012
-0.138917
-0.125567
-0.111604
-0.0973853
-0.0841267
-0.0722174
-0.24334
-0.227721
-0.237361
-0.23254
-0.230465
-0.221197
-0.210239
-0.197651
-0.186331
-0.177021
-0.16946
-0.162437
-0.154934
-0.145668
-0.134829
-0.122104
-0.109061
-0.0957119
-0.0833428
-0.0720845
-0.245673
-0.227946
-0.237344
-0.231983
-0.229445
-0.21968
-0.208388
-0.195612
-0.184109
-0.17448
-0.16639
-0.158842
-0.150884
-0.141558
-0.130976
-0.118843
-0.106613
-0.0940326
-0.0824855
-0.0718083
-0.248071
-0.228139
-0.237165
-0.231244
-0.22817
-0.217867
-0.206248
-0.19329
-0.181633
-0.171738
-0.163222
-0.155268
-0.146978
-0.137663
-0.127329
-0.11576
-0.104245
-0.0923497
-0.0815648
-0.0714045
-0.250537
-0.228308
-0.236808
-0.23034
-0.226644
-0.21576
-0.20384
-0.190716
-0.178944
-0.168837
-0.159994
-0.151732
-0.143214
-0.133959
-0.123864
-0.112831
-0.101938
-0.090666
-0.0805867
-0.0708854
-0.253071
-0.228459
-0.23626
-0.229294
-0.224876
-0.213369
-0.201191
-0.187924
-0.17608
-0.165817
-0.156734
-0.148246
-0.139582
-0.130421
-0.120556
-0.110035
-0.0996777
-0.0889846
-0.0795548
-0.0702608
-0.255676
-0.228578
-0.235528
-0.228122
-0.222876
-0.210713
-0.198333
-0.18495
-0.173077
-0.162709
-0.15346
-0.144813
-0.136073
-0.127026
-0.117389
-0.10735
-0.0974506
-0.0873088
-0.0784697
-0.0695382
-0.25835
-0.228632
-0.234643
-0.226823
-0.22066
-0.207819
-0.195297
-0.181829
-0.169966
-0.159537
-0.150185
-0.141434
-0.132674
-0.123753
-0.114345
-0.104754
-0.0952464
-0.0856407
-0.0773259
-0.0687198
-0.261078
-0.228578
-0.233656
-0.225373
-0.218248
-0.204719
-0.192114
-0.178591
-0.166773
-0.156322
-0.146917
-0.13811
-0.129372
-0.120585
-0.111411
-0.102229
-0.0930597
-0.0839796
-0.0761061
-0.0678003
-0.263788
-0.22841
-0.23262
-0.22374
-0.215663
-0.201442
-0.188813
-0.175262
-0.163518
-0.153077
-0.143662
-0.134836
-0.126157
-0.117508
-0.108575
-0.099759
-0.0908913
-0.0823195
-0.0747775
-0.0667683
-0.266451
-0.228098
-0.231567
-0.221898
-0.212924
-0.198021
-0.185416
-0.171863
-0.160217
-0.149814
-0.140421
-0.131611
-0.123016
-0.114511
-0.105823
-0.0973312
-0.0887487
-0.0806473
-0.0732995
-0.0656209
-0.268996
-0.227653
-0.230485
-0.21984
-0.210051
-0.194483
-0.181946
-0.168411
-0.156884
-0.14654
-0.137197
-0.12843
-0.11994
-0.111585
-0.103145
-0.0949391
-0.0866418
-0.0789469
-0.0716572
-0.0643855
-0.271301
-0.227151
-0.229318
-0.217577
-0.207062
-0.19085
-0.178419
-0.16492
-0.153527
-0.143261
-0.133991
-0.125291
-0.11692
-0.108721
-0.100527
-0.0925801
-0.0845749
-0.0772094
-0.0699137
-0.0631134
-0.273232
-0.22672
-0.227979
-0.215126
-0.203971
-0.187145
-0.174849
-0.1614
-0.150155
-0.139981
-0.130801
-0.122189
-0.11395
-0.105914
-0.0979593
-0.0902542
-0.0825436
-0.0754419
-0.0682204
-0.0618259
-0.274662
-0.226533
-0.226383
-0.212504
-0.200795
-0.183382
-0.171245
-0.157857
-0.146772
-0.1367
-0.127627
-0.119119
-0.111022
-0.103155
-0.0954344
-0.0879604
-0.0805375
-0.0736634
-0.0666507
-0.0604909
-0.275493
-0.226785
-0.224484
-0.209726
-0.197546
-0.179574
-0.167617
-0.154299
-0.143381
-0.133422
-0.124469
-0.11608
-0.108132
-0.100439
-0.0929458
-0.0856963
-0.0785498
-0.0719002
-0.0651307
-0.0591308
-0.275662
-0.227664
-0.222289
-0.206799
-0.194236
-0.175733
-0.163969
-0.150728
-0.139986
-0.130147
-0.121326
-0.113066
-0.105274
-0.0977603
-0.0904884
-0.0834586
-0.0765792
-0.0701462
-0.0636377
-0.0578428
-0.275145
-0.229308
-0.219857
-0.203727
-0.190876
-0.171866
-0.160307
-0.147147
-0.136588
-0.126876
-0.118196
-0.110075
-0.102445
-0.0951139
-0.0880579
-0.0812443
-0.0746209
-0.0684046
-0.0621573
-0.0565693
-0.273945
-0.231764
-0.21728
-0.200511
-0.187472
-0.167979
-0.156633
-0.143558
-0.133188
-0.123607
-0.115078
-0.107105
-0.0996418
-0.0924953
-0.0856506
-0.0790501
-0.0726746
-0.0666691
-0.0606769
-0.0553173
-0.272079
-0.234955
-0.214659
-0.197151
-0.184029
-0.164077
-0.152947
-0.139962
-0.129785
-0.120341
-0.11197
-0.104152
-0.0968599
-0.0899005
-0.0832632
-0.0768734
-0.0707366
-0.0649379
-0.0591974
-0.0540559
-0.269567
-0.23866
-0.212084
-0.193645
-0.180548
-0.160161
-0.149252
-0.136359
-0.126381
-0.117077
-0.108872
-0.101213
-0.094097
-0.087326
-0.0808927
-0.0747114
-0.0688056
-0.0632089
-0.0577115
-0.0527861
-0.266436
-0.242527
-0.209616
-0.189991
-0.177028
-0.156233
-0.145546
-0.132748
-0.122973
-0.113815
-0.105782
-0.0982873
-0.0913503
-0.0847686
-0.0785366
-0.0725619
-0.066879
-0.06148
-0.0562211
-0.0514984
-0.262726
-0.246101
-0.207285
-0.186188
-0.173466
-0.152293
-0.141828
-0.129129
-0.119563
-0.110553
-0.102697
-0.0953721
-0.0886173
-0.0822256
-0.0761925
-0.0704223
-0.0649554
-0.0597506
-0.0547219
-0.0501939
-0.258506
-0.248893
-0.205087
-0.18224
-0.169857
-0.148341
-0.138099
-0.125502
-0.116148
-0.10729
-0.0996181
-0.0924656
-0.0858958
-0.0796945
-0.0738585
-0.0682907
-0.0630331
-0.0580192
-0.0532149
-0.0488705
-0.253899
-0.250449
-0.202992
-0.178151
-0.166197
-0.144374
-0.134357
-0.121865
-0.112729
-0.104027
-0.0965425
-0.0895661
-0.0831838
-0.0771731
-0.0715327
-0.0661652
-0.0611107
-0.0562856
-0.0516981
-0.047529
-0.249085
-0.250436
-0.200955
-0.173931
-0.162482
-0.14039
-0.130599
-0.118217
-0.109302
-0.100761
-0.0934692
-0.086672
-0.0804795
-0.0746594
-0.0692134
-0.064044
-0.0591872
-0.0545486
-0.0501716
-0.0461693
-0.244307
-0.248695
-0.198925
-0.169593
-0.158708
-0.136388
-0.126826
-0.114557
-0.105869
-0.0974914
-0.0903969
-0.0837818
-0.0777813
-0.0721518
-0.0668992
-0.0619256
-0.0572618
-0.0528081
-0.0486344
-0.0447921
-0.239845
-0.245262
-0.196854
-0.165154
-0.154873
-0.132365
-0.123034
-0.110885
-0.102428
-0.0942179
-0.0873246
-0.0808942
-0.0750875
-0.0696487
-0.0645887
-0.0598087
-0.0553338
-0.0510633
-0.0470866
-0.043398
-0.235991
-0.240348
-0.194703
-0.160629
-0.150977
-0.128318
-0.119223
-0.107198
-0.0989764
-0.0909392
-0.084251
-0.078008
-0.0723968
-0.0671489
-0.0622808
-0.0576922
-0.0534024
-0.0493137
-0.0455275
-0.0419875
-0.233008
-0.234276
-0.192444
-0.156035
-0.147019
-0.124245
-0.115391
-0.103496
-0.0955147
-0.0876543
-0.0811752
-0.0751221
-0.0697081
-0.0646511
-0.0599743
-0.0555749
-0.0514674
-0.0475588
-0.0439572
-0.0405616
-0.231099
-0.227413
-0.19006
-0.151385
-0.143
-0.120143
-0.111537
-0.0997781
-0.0920415
-0.0843624
-0.0780963
-0.0722356
-0.0670203
-0.0621545
-0.0576684
-0.0534562
-0.0495281
-0.0457981
-0.0423752
-0.0391212
-0.230393
-0.220108
-0.187543
-0.14669
-0.13892
-0.116011
-0.107658
-0.0960427
-0.0885558
-0.0810626
-0.0750132
-0.0693474
-0.0643324
-0.0596581
-0.0553623
-0.0513352
-0.0475845
-0.0440313
-0.0407816
-0.0376671
-0.230937
-0.212647
-0.18489
-0.14196
-0.13478
-0.111847
-0.103753
-0.0922888
-0.0850566
-0.0777542
-0.0719253
-0.0664569
-0.0616437
-0.0571612
-0.0530552
-0.0492115
-0.0456363
-0.042258
-0.0391762
-0.0361999
-0.232714
-0.20524
-0.1821
-0.137198
-0.130581
-0.107647
-0.0998207
-0.0885155
-0.0815431
-0.0744365
-0.0688318
-0.0635634
-0.0589535
-0.0546632
-0.0507466
-0.0470847
-0.0436834
-0.0404781
-0.0375593
-0.0347202
-0.235647
-0.19802
-0.179175
-0.132408
-0.126323
-0.103411
-0.0958595
-0.0847215
-0.0780145
-0.0711089
-0.0657322
-0.0606663
-0.0562612
-0.0521637
-0.0484362
-0.0449546
-0.0417258
-0.0386915
-0.0359313
-0.0332286
-0.239626
-0.191064
-0.176115
-0.127589
-0.122004
-0.0991364
-0.091868
-0.080906
-0.07447
-0.0677707
-0.0626258
-0.0577651
-0.0535663
-0.0496622
-0.0461234
-0.042821
-0.0397637
-0.0368983
-0.0342929
-0.0317262
-0.244509
-0.184402
-0.17292
-0.122739
-0.117624
-0.0948205
-0.0878447
-0.0770679
-0.0709091
-0.0644214
-0.0595123
-0.0548594
-0.0508685
-0.0471584
-0.0438082
-0.0406838
-0.0377969
-0.0350987
-0.0326452
-0.0302149
-0.250142
-0.178033
-0.169585
-0.117854
-0.113181
-0.0904614
-0.0837885
-0.0732063
-0.0673311
-0.0610607
-0.0563913
-0.051949
-0.0481676
-0.0446522
-0.0414904
-0.0385429
-0.0358253
-0.0332925
-0.0309894
-0.0286972
-0.256359
-0.171937
-0.166104
-0.112928
-0.108674
-0.0860571
-0.0796981
-0.0693202
-0.0637359
-0.057688
-0.0532626
-0.0490337
-0.0454634
-0.0421435
-0.0391699
-0.0363985
-0.033849
-0.0314797
-0.0293263
-0.0271754
-0.26299
-0.166079
-0.162471
-0.107954
-0.104101
-0.0816051
-0.075573
-0.0654083
-0.0601232
-0.0543033
-0.050126
-0.0461134
-0.042756
-0.0396324
-0.0368469
-0.0342505
-0.0318679
-0.0296601
-0.0276559
-0.0256497
-0.269864
-0.160418
-0.158676
-0.102924
-0.0994598
-0.0771027
-0.0714128
-0.0614697
-0.0564928
-0.0509066
-0.0469814
-0.0431884
-0.0400454
-0.0371189
-0.0345213
-0.0320992
-0.0298823
-0.0278343
-0.0259773
-0.0241149
-0.276814
-0.154906
-0.154709
-0.0978291
-0.0947479
-0.0725466
-0.0672176
-0.057504
-0.052844
-0.0474982
-0.0438287
-0.0402587
-0.0373317
-0.0346033
-0.0321936
-0.0299449
-0.0278929
-0.0260039
-0.0242909
-0.0225591
-0.283675
-0.149493
-0.15056
-0.09266
-0.0899648
-0.0679331
-0.0629868
-0.0535118
-0.0491754
-0.0440787
-0.0406686
-0.0373244
-0.0346153
-0.0320858
-0.0298641
-0.027788
-0.0259007
-0.0241713
-0.0225991
-0.0209654
-0.290291
-0.144126
-0.146216
-0.0874054
-0.0851101
-0.0632607
-0.0587173
-0.0494937
-0.0454875
-0.0406464
-0.0375027
-0.0343846
-0.031897
-0.0295666
-0.0275341
-0.0256286
-0.0239065
-0.0223377
-0.0209046
-0.0193259
-0.296514
-0.138754
-0.141667
-0.0820534
-0.0801827
-0.058531
-0.0544063
-0.0454455
-0.0417871
-0.0371952
-0.0343352
-0.0314375
-0.0291783
-0.0270463
-0.0252045
-0.0234675
-0.021912
-0.0205032
-0.0192016
-0.0176641
-0.302203
-0.133324
-0.136902
-0.0765926
-0.0751782
-0.0537449
-0.0500603
-0.0413513
-0.038092
-0.0337145
-0.0311704
-0.0284821
-0.0264603
-0.0245259
-0.0228754
-0.0213062
-0.0199188
-0.0186678
-0.0174712
-0.0160374
-0.30723
-0.127788
-0.131915
-0.0710146
-0.0700911
-0.048886
-0.0457105
-0.0371824
-0.0344222
-0.0302004
-0.028005
-0.0255249
-0.0237408
-0.0220084
-0.0205432
-0.0191479
-0.0179277
-0.0168266
-0.0157216
-0.0144406
-0.311477
-0.122094
-0.126696
-0.0653125
-0.0649308
-0.0438991
-0.041412
-0.0329234
-0.0307669
-0.0266792
-0.0248174
-0.0225819
-0.0210147
-0.0194927
-0.0182114
-0.0169921
-0.0159378
-0.0149768
-0.013967
-0.012858
-0.314838
-0.116196
-0.121238
-0.0594661
-0.0597501
-0.0387053
-0.0371891
-0.0286254
-0.027048
-0.0232045
-0.0216018
-0.0196439
-0.0182886
-0.0169777
-0.0158822
-0.014839
-0.0139484
-0.0131207
-0.012215
-0.0112787
-0.317217
-0.11005
-0.11553
-0.0534161
-0.0546415
-0.0333059
-0.0329335
-0.0243999
-0.0232371
-0.0197547
-0.0183754
-0.0167037
-0.015566
-0.0144643
-0.0135569
-0.0126892
-0.0119598
-0.0112624
-0.0104675
-0.00969735
-0.318534
-0.10362
-0.109573
-0.0470691
-0.0496333
-0.027923
-0.0284579
-0.0202485
-0.0193683
-0.0163069
-0.0151496
-0.0137596
-0.0128477
-0.0119543
-0.0112363
-0.0105436
-0.00997323
-0.00940539
-0.0087246
-0.00811284
-0.318717
-0.0968795
-0.103414
-0.0403995
-0.0445171
-0.0226817
-0.0238114
-0.0161306
-0.0154717
-0.0128481
-0.0119289
-0.0108136
-0.010134
-0.00944907
-0.00892138
-0.00840329
-0.00799023
-0.00755191
-0.00698628
-0.00652639
-0.317708
-0.0897733
-0.0971452
-0.0336013
-0.039067
-0.0175502
-0.01905
-0.0120137
-0.0115656
-0.00937465
-0.00871404
-0.00786855
-0.00742529
-0.00695015
-0.00661329
-0.0062694
-0.00601251
-0.00570359
-0.00525306
-0.00494005
-0.315461
-0.0821728
-0.0908161
-0.0267294
-0.0333061
-0.0124662
-0.0142161
-0.00787854
-0.00765904
-0.00588802
-0.00550444
-0.00492705
-0.00472266
-0.00445877
-0.00431321
-0.00414329
-0.0040417
-0.00386181
-0.00352595
-0.00335608
-0.311939
-0.0739088
-0.0842659
-0.0199724
-0.0273066
-0.00738482
-0.00933607
-0.00371618
-0.00375557
-0.00239188
-0.00229976
-0.00199135
-0.00202737
-0.0019762
-0.00202246
-0.00202637
-0.0020793
-0.00202791
-0.00180633
-0.00177667
-0.307117
-0.0650408
-0.0774165
-0.0133
-0.0211239
-0.00227738
-0.0044268
0.00047574
0.000143993
0.0011096
0.000899679
0.000936723
0.000659046
0.000496209
0.000257574
7.99329e-05
-0.000126748
-0.000203271
-9.58008e-05
-0.000204065
-0.300984
-0.0561378
-0.0698583
-0.00663441
-0.014796
0.00287304
0.000501874
0.00469564
0.00403971
0.00461244
0.00409289
0.0038555
0.00333499
0.00295701
0.00252545
0.00217414
0.00181452
0.00161061
0.00160385
0.00135929
-0.293565
-0.0469973
-0.0617565
7.90872e-05
-0.00835033
0.00807529
0.00544398
0.00893982
0.00793155
0.0081131
0.00727835
0.00676335
0.0059988
0.00540469
0.00477966
0.00425477
0.00374302
0.00341204
0.00329052
0.00291084
-0.284947
-0.0374665
-0.0531977
0.00687307
-0.00180663
0.0133327
0.0103958
0.0132036
0.011819
0.0116085
0.0104542
0.00965858
0.00864879
0.00783764
0.00701868
0.00632035
0.00565719
0.00519902
0.00496159
0.00444812
-0.275218
-0.0274439
-0.0442436
0.0137658
0.0048199
0.0186451
0.0153547
0.0174819
0.0157009
0.0150956
0.0136183
0.0125394
0.0112832
0.0102542
0.00924097
0.00836941
0.00755543
0.00696921
0.00661383
0.00596893
-0.264247
-0.0170544
-0.0349381
0.0207666
0.0115171
0.0240093
0.0203183
0.0217697
0.0195755
0.0185719
0.0167684
0.0154039
0.0139003
0.0126528
0.011445
0.0104006
0.00943618
0.00872029
0.00824376
0.0074705
-0.25164
-0.00664218
-0.0253185
0.0278799
0.0182749
0.0294208
0.0252843
0.0260618
0.0234405
0.0220345
0.0199022
0.01825
0.0164982
0.0150316
0.0136292
0.0124124
0.011298
0.0104503
0.00984847
0.00894829
-0.237678
0.00396653
-0.0154146
0.035106
0.025084
0.0348737
0.0302499
0.0303535
0.0272933
0.0254807
0.0230173
0.0210758
0.0190751
0.017389
0.015792
0.0144034
0.0131393
0.0121577
0.0114262
0.0103964
-0.222452
0.0148255
-0.00525363
0.0424422
0.0319361
0.0403612
0.0352119
0.0346398
0.0311308
0.0289077
0.0261111
0.023879
0.021629
0.0197231
0.0179318
0.016372
0.0149588
0.0138414
0.0129763
0.0118122
-0.206038
0.0259569
0.00513869
0.0498827
0.0388227
0.0458761
0.0401666
0.0389159
0.0349498
0.0323125
0.0291811
0.0266573
0.0241579
0.0220323
0.0200468
0.0183165
0.0167545
0.0154998
0.0144982
0.0132035
-0.188508
0.037365
0.0157375
0.0574196
0.0457355
0.0514107
0.0451099
0.0431771
0.0387467
0.0356922
0.0322246
0.0294086
0.0266599
0.0243146
0.0221354
0.0202352
0.0185253
0.0171313
0.015991
0.0145856
-0.169937
0.0490442
0.0265183
0.0650434
0.0526659
0.0569568
0.050037
0.0474183
0.0425177
0.0390434
0.0352389
0.0321305
0.0291329
0.0265681
0.0241957
0.0221271
0.0202709
0.0187357
0.0174519
0.0159553
-0.150402
0.060982
0.0374565
0.0727425
0.0596049
0.0625061
0.0549429
0.0516348
0.0462592
0.0423631
0.0382212
0.0348206
0.0315747
0.0287911
0.0262264
0.0239921
0.0219927
0.0203134
0.0188709
0.0172568
-0.129984
0.0731605
0.0485273
0.0805044
0.066543
0.06805
0.0598222
0.0558214
0.049967
0.0456479
0.0411687
0.0374764
0.0339832
0.0309814
0.0282265
0.0258308
0.0236925
0.0218616
0.020224
0.0183916
-0.108765
0.0855577
0.0597054
0.0883152
0.0734704
0.0735798
0.0646689
0.059973
0.0536369
0.0488943
0.0440784
0.0400955
0.036356
0.0331374
0.0301954
0.0276439
0.0253693
0.0233695
0.0214786
0.0193359
-0.0868308
0.0981481
0.0709652
0.0961602
0.0803768
0.0790864
0.069477
0.0640844
0.0572649
0.0520989
0.0469475
0.0426752
0.038691
0.0352574
0.0321324
0.0294304
0.0270165
0.0248206
0.022632
0.0202756
-0.0642694
0.110903
0.0822805
0.104024
0.0872515
0.0845609
0.0742402
0.0681503
0.0608466
0.0552582
0.0497729
0.0452131
0.0409859
0.0373401
0.0340369
0.0311873
0.0286238
0.0262067
0.0237467
0.0214878
-0.0411707
0.123792
0.0936246
0.111889
0.0940832
0.0899941
0.0789517
0.0721653
0.0643777
0.0583685
0.0525516
0.0477064
0.0432387
0.0393841
0.0359074
0.0329096
0.0301825
0.0275387
0.0249037
0.0230138
-0.0176262
0.136781
0.10497
0.11974
0.10086
0.0953764
0.083605
0.0761239
0.0678535
0.0614262
0.0552805
0.0501525
0.0454472
0.041388
0.0377417
0.0345921
0.0316905
0.0288369
0.0260926
0.0245663
0.00627118
0.149837
0.11629
0.127559
0.107571
0.100699
0.0881929
0.0800204
0.0712698
0.0644276
0.0579564
0.0525488
0.0476095
0.0433501
0.0395368
0.0362312
0.0331524
0.0301225
0.0273429
0.0259856
0.0304278
0.162922
0.127557
0.135328
0.114204
0.105951
0.0927084
0.0838494
0.0746218
0.0673689
0.0605761
0.0548926
0.0497235
0.0452684
0.0412897
0.0378252
0.0345753
0.0314072
0.0286232
0.0272825
0.0547495
0.176
0.138741
0.143029
0.120745
0.111124
0.0971445
0.0876051
0.0779051
0.0702466
0.0631366
0.0571815
0.0517871
0.0471406
0.0429979
0.0393739
0.0359645
0.032687
0.0298938
0.0284944
0.0791419
0.189031
0.149816
0.150644
0.127183
0.116208
0.101494
0.091282
0.0811151
0.0730567
0.0656347
0.0594128
0.0537982
0.0489643
0.044659
0.040878
0.0373232
0.0339547
0.0311354
0.0296428
0.103511
0.201977
0.160752
0.158154
0.133505
0.121193
0.105749
0.0948742
0.0842471
0.0757956
0.0680674
0.0615842
0.0557545
0.0507373
0.0462715
0.0423381
0.0386505
0.0352008
0.0323405
0.0307433
0.127763
0.214798
0.171522
0.165541
0.139699
0.126071
0.109904
0.0983763
0.0872968
0.0784596
0.0704315
0.0636929
0.0576536
0.0524572
0.0478341
0.0437544
0.0399448
0.0364183
0.0335062
0.0318006
0.151805
0.227455
0.182096
0.172787
0.14575
0.13083
0.11395
0.101783
0.0902595
0.081045
0.072724
0.0657365
0.0594933
0.0541221
0.0493455
0.0451259
0.041203
0.0376024
0.0346323
0.0328171
0.175547
0.239907
0.192447
0.179873
0.151648
0.135463
0.11788
0.105087
0.0931308
0.0835482
0.0749419
0.0677125
0.0612713
0.05573
0.0508046
0.0464517
0.0424224
0.0387496
0.0357181
0.0337928
0.198899
0.252116
0.202548
0.186782
0.157378
0.139958
0.121688
0.108285
0.0959063
0.0859657
0.0770824
0.0696183
0.0629854
0.0572791
0.0522099
0.0477302
0.0436005
0.0398576
0.0367629
0.0347269
0.221772
0.264041
0.212371
0.193494
0.162929
0.144309
0.125367
0.111371
0.0985817
0.088294
0.0791424
0.0714515
0.0646334
0.0587677
0.0535602
0.0489597
0.0447349
0.0409244
0.0377657
0.0356186
0.244082
0.275645
0.221889
0.199994
0.168289
0.148504
0.128909
0.11434
0.101153
0.0905296
0.0811192
0.0732097
0.0662133
0.060194
0.054854
0.0501387
0.0458239
0.0419482
0.0387253
0.0364669
0.265746
0.286888
0.231077
0.206263
0.173446
0.152537
0.132309
0.117185
0.103615
0.0926692
0.08301
0.0748905
0.0677229
0.0615565
0.0560898
0.0512655
0.0468657
0.0429276
0.0396405
0.0372713
0.286682
0.297735
0.239908
0.212286
0.178387
0.156397
0.135559
0.119904
0.105966
0.0947097
0.0848121
0.0764917
0.0691605
0.0628534
0.057266
0.0523385
0.0478587
0.0438612
0.0405102
0.0380311
0.306815
0.30815
0.248359
0.218046
0.183103
0.160078
0.138654
0.12249
0.1082
0.0966479
0.0865229
0.0780112
0.0705242
0.0640832
0.0583813
0.0533564
0.0488013
0.0447473
0.0413334
0.0387459
0.32607
0.318097
0.256406
0.223528
0.187581
0.16357
0.141587
0.124938
0.110314
0.0984809
0.0881401
0.0794468
0.0718121
0.0652443
0.0594343
0.0543178
0.0496924
0.0455849
0.042109
0.0394155
0.344377
0.327543
0.264026
0.228716
0.191812
0.166867
0.144353
0.127246
0.112304
0.100206
0.0896611
0.0807965
0.0730227
0.0663353
0.0604236
0.0552213
0.0505304
0.0463726
0.0428362
0.0400397
0.361669
0.336457
0.271198
0.233597
0.195785
0.169961
0.146946
0.129408
0.114168
0.10182
0.0910838
0.0820585
0.0741541
0.0673549
0.061348
0.0560659
0.0513143
0.0471092
0.0435142
0.0406184
0.377884
0.344809
0.277901
0.238158
0.199492
0.172845
0.149361
0.13142
0.115902
0.10332
0.0924061
0.083231
0.0752051
0.0683016
0.0622063
0.0568502
0.0520429
0.0477937
0.0441425
0.0411517
0.392962
0.35257
0.284117
0.242386
0.202923
0.175513
0.151594
0.133279
0.117502
0.104705
0.0936259
0.0843122
0.076174
0.0691742
0.0629974
0.0575734
0.052715
0.048425
0.0447203
0.0416396
0.40685
0.359714
0.289828
0.246269
0.20607
0.17796
0.153639
0.134981
0.118967
0.105972
0.0947414
0.0853008
0.0770597
0.0699717
0.0637203
0.0582344
0.0533296
0.0490022
0.0452472
0.0420823
0.419499
0.366217
0.295017
0.249797
0.208927
0.180179
0.155493
0.136523
0.120294
0.107119
0.095751
0.0861952
0.0778608
0.0706929
0.064374
0.0588323
0.0538859
0.0495245
0.0457228
0.04248
0.430861
0.372056
0.29967
0.25296
0.211485
0.182165
0.157152
0.137902
0.12148
0.108144
0.096653
0.0869941
0.0785762
0.0713369
0.0649576
0.0593662
0.0543829
0.049991
0.0461466
0.0428328
0.440898
0.377212
0.303774
0.255748
0.213739
0.183915
0.158613
0.139116
0.122524
0.109046
0.0974461
0.0876964
0.0792051
0.0719028
0.0654705
0.0598355
0.0548199
0.0504011
0.0465184
0.0431411
0.449572
0.381667
0.307316
0.258155
0.215683
0.185424
0.159872
0.140162
0.123423
0.109822
0.098129
0.0883011
0.0797464
0.0723899
0.0659119
0.0602395
0.0551963
0.0507542
0.0468378
0.0434051
0.456854
0.385406
0.310286
0.260174
0.217312
0.186688
0.160926
0.141038
0.124176
0.110473
0.0987008
0.0888072
0.0801995
0.0727975
0.0662812
0.0605776
0.0555113
0.0510497
0.0471048
0.043625
0.462716
0.388417
0.312676
0.261799
0.218624
0.187706
0.161775
0.141743
0.124781
0.110995
0.0991605
0.0892141
0.0805636
0.073125
0.066578
0.0608493
0.0557645
0.0512872
0.047319
0.043801
0.467139
0.390688
0.31448
0.263025
0.219613
0.188474
0.162415
0.142275
0.125238
0.11139
0.0995073
0.0895211
0.0808383
0.0733721
0.0668019
0.0610542
0.0559555
0.0514664
0.0474804
0.0439334
0.470106
0.392214
0.315691
0.26385
0.220279
0.188991
0.162846
0.142633
0.125546
0.111655
0.0997408
0.0897277
0.0810232
0.0735384
0.0669525
0.0611921
0.056084
0.0515868
0.0475889
0.0440222
0.471606
0.392987
0.316307
0.26427
0.220619
0.189255
0.163067
0.142817
0.125704
0.111792
0.0998607
0.0898337
0.0811181
0.0736237
0.0670297
0.0612627
0.0561498
0.0516484
0.0476443
0.0440678
0.471636
0.393007
0.316325
0.264285
0.220632
0.189267
0.163077
0.142826
0.125711
0.111799
0.0998666
0.089839
0.0811227
0.0736278
0.0670334
0.061266
0.0561528
0.0516511
0.0476468
0.04407
0.470194
0.392272
0.315746
0.263895
0.22032
0.189026
0.162877
0.14266
0.125569
0.111676
0.0997587
0.0897434
0.0810372
0.0735508
0.0669636
0.061202
0.0560929
0.0515949
0.0475962
0.0440288
0.467285
0.390785
0.314572
0.263101
0.219681
0.188532
0.162466
0.142319
0.125277
0.111424
0.0995371
0.0895473
0.0808615
0.0733928
0.0668203
0.0610707
0.0559703
0.0514798
0.0474926
0.0439443
0.462922
0.388553
0.312806
0.261905
0.218719
0.187787
0.161846
0.141805
0.124835
0.111043
0.0992021
0.0892508
0.0805961
0.0731539
0.0666038
0.0608723
0.0557852
0.051306
0.0473361
0.0438164
0.457119
0.385581
0.310453
0.26031
0.217435
0.186793
0.161018
0.141118
0.124245
0.110533
0.0987542
0.0888543
0.0802411
0.0728345
0.0663143
0.0606072
0.0555378
0.0510738
0.0471267
0.0436447
0.449897
0.381881
0.307519
0.258322
0.215832
0.185551
0.159984
0.140259
0.123508
0.109897
0.0981942
0.0883585
0.0797972
0.072435
0.0659522
0.0602756
0.0552286
0.0507835
0.0468646
0.0434291
0.441282
0.377465
0.304015
0.255945
0.213915
0.184066
0.158745
0.139231
0.122624
0.109133
0.0975229
0.0877641
0.0792649
0.071956
0.065518
0.0598781
0.0548581
0.0504357
0.0465499
0.0431695
0.431305
0.372348
0.299949
0.253187
0.211688
0.182339
0.157305
0.138034
0.121596
0.108245
0.0967414
0.0870719
0.0786451
0.071398
0.0650122
0.0594151
0.0544268
0.0500307
0.0461829
0.0428655
0.420003
0.366548
0.295333
0.250054
0.209157
0.180375
0.155666
0.136672
0.120425
0.107233
0.0958509
0.0862831
0.0779385
0.0707619
0.0644356
0.0588875
0.0539354
0.0495693
0.0457637
0.0425168
0.407416
0.360085
0.290181
0.246557
0.206328
0.178179
0.153832
0.135147
0.119113
0.106099
0.0948527
0.0853986
0.0771461
0.0700485
0.0637888
0.0582958
0.0533847
0.0490521
0.0452928
0.0421234
0.393589
0.352981
0.284508
0.242704
0.203208
0.175756
0.151806
0.133462
0.117663
0.104845
0.0937484
0.0844199
0.0762691
0.0692587
0.0630728
0.0576409
0.0527756
0.0484798
0.0447704
0.0416848
0.378572
0.345259
0.27833
0.238506
0.199803
0.17311
0.149594
0.13162
0.116077
0.103473
0.0925396
0.0833483
0.0753087
0.0683936
0.0622884
0.0569237
0.0521089
0.0478534
0.0441971
0.0412009
0.362421
0.336947
0.271664
0.233976
0.196124
0.170248
0.147198
0.129625
0.114357
0.101985
0.0912283
0.0821853
0.0742661
0.0674542
0.0614367
0.0561452
0.0513856
0.0471738
0.0435732
0.0406717
0.345192
0.328073
0.26453
0.229125
0.192177
0.167177
0.144624
0.12748
0.112508
0.100383
0.0898163
0.0809327
0.0731428
0.0664419
0.0605187
0.0553065
0.0506069
0.0464418
0.0428995
0.0400969
0.326949
0.318667
0.256948
0.223966
0.187973
0.163902
0.141878
0.125189
0.110532
0.0986703
0.0883057
0.0795921
0.0719403
0.0653579
0.0595356
0.0544085
0.0497739
0.0456587
0.0421765
0.0394766
0.307759
0.308761
0.24894
0.218515
0.183521
0.160432
0.138964
0.122756
0.108432
0.0968493
0.0866989
0.0781655
0.0706602
0.0642037
0.0584887
0.0534526
0.0488878
0.0448257
0.0414049
0.0388107
0.287692
0.298388
0.240527
0.212785
0.178833
0.156774
0.135888
0.120186
0.106211
0.0949227
0.0849981
0.0766547
0.0693041
0.0629806
0.0573793
0.05244
0.0479499
0.0439438
0.0405858
0.0380996
0.266822
0.287582
0.231734
0.206793
0.173918
0.152936
0.132656
0.117484
0.103874
0.0928937
0.0832058
0.0750619
0.0678739
0.0616901
0.0562088
0.0513721
0.0469615
0.0430145
0.0397199
0.0373433
0.245227
0.276379
0.222586
0.200553
0.168788
0.148925
0.129275
0.114654
0.101425
0.0907652
0.0813245
0.0733893
0.0663713
0.0603339
0.0549786
0.0502503
0.0459242
0.0420392
0.0388085
0.0365424
0.222985
0.264817
0.213107
0.194084
0.163454
0.144751
0.125751
0.1117
0.0988668
0.0885404
0.079357
0.071639
0.0647983
0.0589136
0.0536901
0.049076
0.0448395
0.0410192
0.0378525
0.0356974
0.200181
0.252934
0.203323
0.187401
0.157929
0.140422
0.122091
0.108629
0.0962039
0.0862227
0.0773059
0.0698134
0.0631569
0.0574307
0.0523448
0.047851
0.0437091
0.0399562
0.0368532
0.034809
0.1769
0.240767
0.193262
0.180523
0.152224
0.135947
0.1183
0.105446
0.0934406
0.0838155
0.0751741
0.0679149
0.0614491
0.0558871
0.0509443
0.0465769
0.042535
0.0388518
0.0358116
0.033878
0.15323
0.228357
0.18295
0.173466
0.146353
0.131335
0.114387
0.102155
0.0905812
0.0813221
0.0729643
0.065946
0.059677
0.0542843
0.0494898
0.0452551
0.0413193
0.037708
0.0347291
0.0329054
0.12926
0.215743
0.172416
0.16625
0.140327
0.126596
0.110358
0.0987631
0.08763
0.0787461
0.0706797
0.063909
0.0578429
0.0526243
0.0479827
0.0438874
0.0400646
0.0365271
0.0336059
0.0318916
0.105082
0.202965
0.161686
0.158893
0.13416
0.121739
0.106221
0.0952746
0.0845914
0.0760911
0.0683231
0.0618065
0.0559491
0.0509089
0.0464241
0.0424748
0.0387736
0.0353126
0.0324431
0.0308371
0.0807874
0.190062
0.150791
0.151412
0.127863
0.116774
0.101982
0.0916954
0.08147
0.0733608
0.0658975
0.059641
0.0539977
0.0491402
0.0448152
0.041018
0.0374493
0.0340694
0.0312407
0.0297392
0.0564708
0.177075
0.139757
0.143827
0.12145
0.11171
0.0976485
0.0880313
0.0782702
0.0705589
0.0634059
0.057415