/*--------------------------------*- C++ -*----------------------------------*\
  =========                 |
  \\      /  F ield         | OpenFOAM: The Open Source CFD Toolbox
   \\    /   O peration     | Website:  https://openfoam.org
    \\  /    A nd           | Version:  7
     \\/     M anipulation  |
\*---------------------------------------------------------------------------*/
FoamFile
{
    version     2.0;
    format      ascii;
    class       surfaceScalarField;
    location    "0.111";
    object      phi;
}
// * * * * * * * * * * * * * * * * * * * * * * * * * * * * * * * * * * * * * //

dimensions      [0 3 -1 0 0 0 0];

internalField   nonuniform List<scalar> 
79600
(
3.19172e-13
-1.88553e-12
1.22593e-11
-1.19237e-11
3.19927e-11
-1.97374e-11
5.58899e-11
-2.39106e-11
8.09995e-11
-2.5108e-11
1.05068e-10
-2.40668e-11
1.26433e-10
-2.13607e-11
1.4387e-10
-1.74364e-11
1.56493e-10
-1.2626e-11
1.63667e-10
-7.17475e-12
1.64933e-10
-1.26839e-12
1.59977e-10
4.95399e-12
1.48593e-10
1.13845e-11
1.30658e-10
1.79362e-11
1.06116e-10
2.45417e-11
7.49657e-11
3.11496e-11
3.72483e-11
3.77177e-11
-6.96216e-12
4.42106e-11
-5.75628e-11
5.06002e-11
-1.14426e-10
5.68629e-11
-1.77406e-10
6.298e-11
-2.46343e-10
6.89364e-11
-3.21063e-10
7.47201e-11
-4.01385e-10
8.0321e-11
-4.87115e-10
8.57301e-11
-5.78057e-10
9.09406e-11
-6.74004e-10
9.59478e-11
-7.7475e-10
1.00748e-10
-8.80086e-10
1.05336e-10
-9.89797e-10
1.09711e-10
-1.10367e-09
1.13871e-10
-1.22148e-09
1.17815e-10
-1.34303e-09
1.21543e-10
-1.46808e-09
1.25054e-10
-1.59643e-09
1.28349e-10
-1.72786e-09
1.31428e-10
-1.86215e-09
1.34293e-10
-1.9991e-09
1.36946e-10
-2.13848e-09
1.39386e-10
-2.2801e-09
1.41617e-10
-2.42374e-09
1.43639e-10
-2.5692e-09
1.45457e-10
-2.71627e-09
1.47071e-10
-2.86475e-09
1.48485e-10
-3.01445e-09
1.497e-10
-3.16517e-09
1.50719e-10
-3.31672e-09
1.51545e-10
-3.4689e-09
1.52181e-10
-3.62153e-09
1.5263e-10
-3.77442e-09
1.52894e-10
-3.9274e-09
1.52977e-10
-4.08028e-09
1.52881e-10
-4.23289e-09
1.5261e-10
-4.38506e-09
1.52167e-10
-4.53662e-09
1.51556e-10
-4.68739e-09
1.50778e-10
-4.83723e-09
1.49837e-10
-4.98597e-09
1.48738e-10
-5.13345e-09
1.47482e-10
-5.27953e-09
1.46074e-10
-5.42404e-09
1.44516e-10
-5.56685e-09
1.42812e-10
-5.70782e-09
1.40964e-10
-5.8468e-09
1.38978e-10
-5.98365e-09
1.36855e-10
-6.11825e-09
1.346e-10
-6.25047e-09
1.32215e-10
-6.38017e-09
1.29703e-10
-6.50724e-09
1.27069e-10
-6.63156e-09
1.24316e-10
-6.753e-09
1.21446e-10
-6.87147e-09
1.18464e-10
-6.98684e-09
1.15373e-10
-7.09902e-09
1.12176e-10
-7.20789e-09
1.08876e-10
-7.31337e-09
1.05478e-10
-7.41535e-09
1.01984e-10
-7.51375e-09
9.83978e-11
-7.60847e-09
9.47227e-11
-7.69944e-09
9.09624e-11
-7.78656e-09
8.71204e-11
-7.86976e-09
8.32002e-11
-7.94896e-09
7.92052e-11
-8.0241e-09
7.51387e-11
-8.0951e-09
7.10043e-11
-8.16191e-09
6.6806e-11
-8.22446e-09
6.25473e-11
-8.28269e-09
5.82316e-11
-8.33655e-09
5.38621e-11
-8.38599e-09
4.94425e-11
-8.43097e-09
4.49768e-11
-8.47144e-09
4.04687e-11
-8.50736e-09
3.59218e-11
-8.5387e-09
3.13397e-11
-8.56543e-09
2.67263e-11
-8.58751e-09
2.20853e-11
-8.60493e-09
1.74204e-11
-8.61767e-09
1.27356e-11
-8.6257e-09
8.0346e-12
-8.62902e-09
3.32142e-12
-8.62762e-09
-1.40018e-12
-8.6215e-09
-6.12633e-12
-8.61064e-09
-1.08529e-11
-8.59507e-09
-1.55758e-11
-8.57478e-09
-2.0291e-11
-8.54978e-09
-2.49946e-11
-8.5201e-09
-2.96825e-11
-8.48575e-09
-3.43508e-11
-8.44675e-09
-3.8995e-11
-8.40314e-09
-4.36111e-11
-8.35495e-09
-4.81947e-11
-8.30221e-09
-5.27418e-11
-8.24496e-09
-5.72481e-11
-8.18325e-09
-6.17094e-11
-8.11713e-09
-6.61213e-11
-8.04665e-09
-7.04796e-11
-7.97187e-09
-7.47797e-11
-7.89285e-09
-7.90175e-11
-7.80966e-09
-8.31887e-11
-7.72237e-09
-8.72889e-11
-7.63106e-09
-9.13138e-11
-7.5358e-09
-9.52589e-11
-7.43668e-09
-9.91197e-11
-7.33379e-09
-1.02892e-10
-7.22721e-09
-1.06571e-10
-7.11706e-09
-1.10153e-10
-7.00343e-09
-1.13633e-10
-6.88642e-09
-1.17007e-10
-6.76615e-09
-1.2027e-10
-6.64273e-09
-1.23419e-10
-6.51628e-09
-1.26449e-10
-6.38693e-09
-1.29355e-10
-6.2548e-09
-1.32133e-10
-6.12002e-09
-1.3478e-10
-5.98273e-09
-1.3729e-10
-5.84307e-09
-1.3966e-10
-5.70118e-09
-1.41885e-10
-5.55722e-09
-1.43963e-10
-5.41133e-09
-1.45887e-10
-5.26368e-09
-1.47656e-10
-5.11441e-09
-1.49264e-10
-4.9637e-09
-1.50708e-10
-4.81172e-09
-1.51984e-10
-4.65863e-09
-1.53089e-10
-4.50461e-09
-1.54019e-10
-4.34984e-09
-1.5477e-10
-4.1945e-09
-1.5534e-10
-4.03878e-09
-1.55724e-10
-3.88286e-09
-1.5592e-10
-3.72693e-09
-1.55924e-10
-3.5712e-09
-1.55735e-10
-3.41585e-09
-1.55348e-10
-3.26109e-09
-1.54762e-10
-3.10712e-09
-1.53973e-10
-2.95414e-09
-1.5298e-10
-2.80236e-09
-1.51779e-10
-2.65199e-09
-1.50371e-10
-2.50323e-09
-1.48751e-10
-2.35632e-09
-1.4692e-10
-2.21144e-09
-1.44874e-10
-2.06883e-09
-1.42613e-10
-1.92869e-09
-1.40136e-10
-1.79125e-09
-1.37443e-10
-1.65672e-09
-1.34533e-10
-1.52531e-09
-1.31406e-10
-1.39725e-09
-1.2806e-10
-1.27275e-09
-1.24498e-10
-1.15203e-09
-1.2072e-10
-1.0353e-09
-1.16728e-10
-9.22778e-10
-1.12524e-10
-8.14669e-10
-1.08109e-10
-7.11183e-10
-1.03486e-10
-6.12524e-10
-9.86586e-11
-5.18891e-10
-9.36316e-11
-4.30479e-10
-8.8411e-11
-3.47477e-10
-8.30022e-11
-2.70066e-10
-7.74117e-11
-1.98416e-10
-7.1649e-11
-1.32689e-10
-6.57252e-11
-7.30365e-11
-5.96526e-11
-1.95922e-11
-5.34451e-11
2.7527e-11
-4.71196e-11
6.82251e-11
-4.06977e-11
1.0243e-10
-3.42045e-11
1.30101e-10
-2.76706e-11
1.51231e-10
-2.11321e-11
1.65862e-10
-1.46328e-11
1.74088e-10
-8.22669e-12
1.76073e-10
-1.98319e-12
1.72068e-10
4.00909e-12
1.62427e-10
9.64072e-12
1.47649e-10
1.47745e-11
1.28419e-10
1.92282e-11
1.05665e-10
2.27548e-11
8.06438e-11
2.50233e-11
5.50452e-11
2.55969e-11
3.11236e-11
2.3918e-11
1.18286e-11
1.92958e-11
7.80029e-13
1.10574e-11
7.88514e-13
1.1127e-11
-1.29962e-11
4.21633e-11
-4.29676e-11
8.72973e-11
-6.48746e-11
1.40084e-10
-7.66822e-11
1.94611e-10
-7.96377e-11
2.45935e-10
-7.53928e-11
2.90069e-10
-6.54941e-11
3.23883e-10
-5.12506e-11
3.44963e-10
-3.37087e-11
3.51484e-10
-1.36966e-11
3.42081e-10
8.13397e-12
3.15764e-10
3.1271e-11
2.71841e-10
5.53063e-11
2.09863e-10
7.99126e-11
1.29576e-10
1.04829e-10
3.08864e-11
1.29842e-10
-8.6173e-11
1.5478e-10
-2.21461e-10
1.79499e-10
-3.74747e-10
2.03885e-10
-5.45728e-10
2.27842e-10
-7.34038e-10
2.5129e-10
-9.39264e-10
2.74164e-10
-1.16095e-09
2.9641e-10
-1.39861e-09
3.17982e-10
-1.65173e-09
3.38845e-10
-1.91976e-09
3.58968e-10
-2.20214e-09
3.78328e-10
-2.49829e-09
3.96905e-10
-2.80764e-09
4.14682e-10
-3.12957e-09
4.31647e-10
-3.4635e-09
4.47793e-10
-3.8088e-09
4.63113e-10
-4.16486e-09
4.77603e-10
-4.53106e-09
4.91261e-10
-4.9068e-09
5.04086e-10
-5.29145e-09
5.16081e-10
-5.68441e-09
5.27248e-10
-6.08505e-09
5.3759e-10
-6.49278e-09
5.47113e-10
-6.90698e-09
5.55822e-10
-7.32707e-09
5.63724e-10
-7.75244e-09
5.70827e-10
-8.18251e-09
5.7714e-10
-8.61669e-09
5.8267e-10
-9.05442e-09
5.87426e-10
-9.49512e-09
5.91419e-10
-9.93823e-09
5.94658e-10
-1.03832e-08
5.97154e-10
-1.08295e-08
5.98918e-10
-1.12766e-08
5.99961e-10
-1.17239e-08
6.00293e-10
-1.21709e-08
5.99928e-10
-1.26172e-08
5.98875e-10
-1.30622e-08
5.97149e-10
-1.35054e-08
5.94759e-10
-1.39463e-08
5.9172e-10
-1.43845e-08
5.88042e-10
-1.48195e-08
5.8374e-10
-1.52509e-08
5.78824e-10
-1.56781e-08
5.73309e-10
-1.61008e-08
5.67206e-10
-1.65185e-08
5.60529e-10
-1.69308e-08
5.5329e-10
-1.73374e-08
5.45503e-10
-1.77377e-08
5.3718e-10
-1.81314e-08
5.28336e-10
-1.85182e-08
5.18981e-10
-1.88976e-08
5.0913e-10
-1.92693e-08
4.98797e-10
-1.9633e-08
4.87993e-10
-1.99883e-08
4.76733e-10
-2.03349e-08
4.6503e-10
-2.06724e-08
4.52898e-10
-2.10006e-08
4.40348e-10
-2.13191e-08
4.27395e-10
-2.16277e-08
4.14053e-10
-2.1926e-08
4.00335e-10
-2.22139e-08
3.86254e-10
-2.2491e-08
3.71824e-10
-2.27571e-08
3.57058e-10
-2.30119e-08
3.41971e-10
-2.32553e-08
3.26575e-10
-2.3487e-08
3.10886e-10
-2.37068e-08
2.94916e-10
-2.39144e-08
2.78679e-10
-2.41098e-08
2.6219e-10
-2.42927e-08
2.45463e-10
-2.4463e-08
2.28511e-10
-2.46205e-08
2.11349e-10
-2.4765e-08
1.93992e-10
-2.48965e-08
1.76453e-10
-2.50148e-08
1.58747e-10
-2.51198e-08
1.40889e-10
-2.52113e-08
1.22893e-10
-2.52894e-08
1.04774e-10
-2.53538e-08
8.65478e-11
-2.54046e-08
6.82281e-11
-2.54417e-08
4.98304e-11
-2.54651e-08
3.13699e-11
-2.54746e-08
1.28619e-11
-2.54703e-08
-5.67811e-12
-2.54522e-08
-2.42345e-11
-2.54203e-08
-4.27916e-11
-2.53745e-08
-6.13339e-11
-2.5315e-08
-7.98456e-11
-2.52417e-08
-9.83107e-11
-2.51546e-08
-1.16713e-10
-2.50539e-08
-1.35036e-10
-2.49397e-08
-1.53264e-10
-2.48119e-08
-1.7138e-10
-2.46707e-08
-1.89368e-10
-2.45163e-08
-2.07212e-10
-2.43486e-08
-2.24894e-10
-2.41679e-08
-2.42398e-10
-2.39743e-08
-2.59706e-10
-2.3768e-08
-2.76803e-10
-2.35491e-08
-2.93671e-10
-2.33178e-08
-3.10293e-10
-2.30744e-08
-3.26652e-10
-2.28189e-08
-3.42731e-10
-2.25517e-08
-3.58513e-10
-2.2273e-08
-3.7398e-10
-2.1983e-08
-3.89116e-10
-2.1682e-08
-4.03902e-10
-2.13703e-08
-4.18323e-10
-2.1048e-08
-4.32361e-10
-2.07157e-08
-4.45997e-10
-2.03735e-08
-4.59217e-10
-2.00217e-08
-4.72002e-10
-1.96608e-08
-4.84336e-10
-1.92911e-08
-4.96202e-10
-1.89128e-08
-5.07583e-10
-1.85265e-08
-5.18462e-10
-1.81325e-08
-5.28823e-10
-1.77311e-08
-5.3865e-10
-1.73228e-08
-5.47926e-10
-1.69081e-08
-5.56636e-10
-1.64873e-08
-5.64763e-10
-1.60609e-08
-5.72292e-10
-1.56293e-08
-5.79208e-10
-1.51931e-08
-5.85497e-10
-1.47527e-08
-5.91142e-10
-1.43085e-08
-5.9613e-10
-1.38612e-08
-6.00447e-10
-1.34111e-08
-6.04078e-10
-1.29589e-08
-6.07012e-10
-1.2505e-08
-6.09233e-10
-1.205e-08
-6.10731e-10
-1.15944e-08
-6.11493e-10
-1.11388e-08
-6.11507e-10
-1.06838e-08
-6.10762e-10
-1.02299e-08
-6.09248e-10
-9.77768e-09
-6.06955e-10
-9.32778e-09
-6.03873e-10
-8.88076e-09
-5.99994e-10
-8.43724e-09
-5.95309e-10
-7.9978e-09
-5.8981e-10
-7.56305e-09
-5.83492e-10
-7.13362e-09
-5.76349e-10
-6.71012e-09
-5.68376e-10
-6.29317e-09
-5.59568e-10
-5.88338e-09
-5.49923e-10
-5.48139e-09
-5.39437e-10
-5.08781e-09
-5.28111e-10
-4.70327e-09
-5.15946e-10
-4.32838e-09
-5.02943e-10
-3.96378e-09
-4.89104e-10
-3.61006e-09
-4.74436e-10
-3.26785e-09
-4.58942e-10
-2.93774e-09
-4.42634e-10
-2.62032e-09
-4.25522e-10
-2.31618e-09
-4.0762e-10
-2.0259e-09
-3.88942e-10
-1.75002e-09
-3.69509e-10
-1.48909e-09
-3.49344e-10
-1.24362e-09
-3.28474e-10
-1.0141e-09
-3.06931e-10
-8.00996e-10
-2.84751e-10
-6.04739e-10
-2.61982e-10
-4.25715e-10
-2.38675e-10
-2.64269e-10
-2.14892e-10
-1.20685e-10
-1.90705e-10
4.81691e-12
-1.66201e-10
1.12094e-10
-1.41482e-10
2.01098e-10
-1.16673e-10
2.71892e-10
-9.19233e-11
3.24672e-10
-6.74113e-11
3.59795e-10
-4.33527e-11
3.77819e-10
-2.00121e-11
3.79547e-10
2.2805e-12
3.66078e-10
2.31138e-11
3.38878e-10
4.19771e-11
2.99872e-10
5.82308e-11
2.5156e-10
7.10636e-11
1.97134e-10
7.94507e-11
1.40601e-10
8.21321e-11
8.68696e-11
7.765e-11
4.16673e-11
6.44895e-11
1.10357e-11
4.1674e-11
1.18318e-11
1.93821e-11
-3.2384e-11
6.43248e-11
-8.79319e-11
1.25499e-10
-1.26035e-10
1.94525e-10
-1.45703e-10
2.63853e-10
-1.4896e-10
3.26937e-10
-1.3848e-10
3.78312e-10
-1.16875e-10
4.13518e-10
-8.64586e-11
4.28986e-10
-4.91797e-11
4.21919e-10
-6.63386e-12
3.90173e-10
3.98809e-11
3.32134e-10
8.93114e-11
2.46636e-10
1.40802e-10
1.32888e-10
1.93659e-10
-9.59853e-12
2.47315e-10
-1.81059e-10
3.01304e-10
-3.81518e-10
3.5524e-10
-6.10824e-10
4.08805e-10
-8.68676e-10
4.61737e-10
-1.15465e-09
5.13817e-10
-1.46823e-09
5.64865e-10
-1.80879e-09
6.14726e-10
-2.17566e-09
6.63276e-10
-2.56808e-09
7.10406e-10
-2.98527e-09
7.56031e-10
-3.42638e-09
8.0008e-10
-3.89054e-09
8.42494e-10
-4.37686e-09
8.83222e-10
-4.8844e-09
9.22226e-10
-5.41223e-09
9.59476e-10
-5.95939e-09
9.94948e-10
-6.5249e-09
1.02863e-09
-7.10779e-09
1.06049e-09
-7.70708e-09
1.09055e-09
-8.32179e-09
1.11879e-09
-8.95092e-09
1.14521e-09
-9.59349e-09
1.16982e-09
-1.02485e-08
1.19262e-09
-1.0915e-08
1.21362e-09
-1.1592e-08
1.23283e-09
-1.22786e-08
1.25028e-09
-1.29737e-08
1.26596e-09
-1.36765e-08
1.2799e-09
-1.43859e-08
1.29212e-09
-1.51011e-08
1.30263e-09
-1.58212e-08
1.31145e-09
-1.65451e-08
1.31862e-09
-1.72721e-08
1.32414e-09
-1.80012e-08
1.32804e-09
-1.87316e-08
1.33035e-09
-1.94624e-08
1.33109e-09
-2.01928e-08
1.33029e-09
-2.09219e-08
1.32796e-09
-2.16488e-08
1.32414e-09
-2.23729e-08
1.31885e-09
-2.30933e-08
1.31213e-09
-2.38093e-08
1.30399e-09
-2.452e-08
1.29446e-09
-2.52248e-08
1.28357e-09
-2.59228e-08
1.27136e-09
-2.66134e-08
1.25784e-09
-2.7296e-08
1.24304e-09
-2.79697e-08
1.22701e-09
-2.86339e-08
1.20975e-09
-2.9288e-08
1.1913e-09
-2.99314e-08
1.1717e-09
-3.05634e-08
1.15096e-09
-3.11834e-08
1.12912e-09
-3.17908e-08
1.10621e-09
-3.23851e-08
1.08226e-09
-3.29656e-08
1.05729e-09
-3.35319e-08
1.03134e-09
-3.40835e-08
1.00443e-09
-3.46197e-08
9.766e-10
-3.51402e-08
9.47871e-10
-3.56444e-08
9.18278e-10
-3.61319e-08
8.87848e-10
-3.66023e-08
8.56613e-10
-3.70551e-08
8.24602e-10
-3.74898e-08
7.91847e-10
-3.79063e-08
7.58376e-10
-3.83039e-08
7.24221e-10
-3.86824e-08
6.89413e-10
-3.90415e-08
6.53983e-10
-3.93808e-08
6.17961e-10
-3.97e-08
5.81377e-10
-3.99988e-08
5.44265e-10
-4.02769e-08
5.06655e-10
-4.05341e-08
4.68579e-10
-4.07702e-08
4.30069e-10
-4.09849e-08
3.91156e-10
-4.1178e-08
3.51874e-10
-4.13494e-08
3.12254e-10
-4.14988e-08
2.72329e-10
-4.16262e-08
2.32132e-10
-4.17313e-08
1.91696e-10
-4.18142e-08
1.51055e-10
-4.18746e-08
1.10242e-10
-4.19125e-08
6.92903e-11
-4.19279e-08
2.82346e-11
-4.19207e-08
-1.28908e-11
-4.18908e-08
-5.40513e-11
-4.18384e-08
-9.52123e-11
-4.17634e-08
-1.36339e-10
-4.16659e-08
-1.77396e-10
-4.15458e-08
-2.18348e-10
-4.14034e-08
-2.59158e-10
-4.12386e-08
-2.99792e-10
-4.10517e-08
-3.40212e-10
-4.08427e-08
-3.80383e-10
-4.06118e-08
-4.20268e-10
-4.03592e-08
-4.5983e-10
-4.0085e-08
-4.99032e-10
-3.97896e-08
-5.37837e-10
-3.94731e-08
-5.76207e-10
-3.91358e-08
-6.14105e-10
-3.8778e-08
-6.51494e-10
-3.83999e-08
-6.88335e-10
-3.8002e-08
-7.24592e-10
-3.75845e-08
-7.60225e-10
-3.71478e-08
-7.95196e-10
-3.66923e-08
-8.29469e-10
-3.62184e-08
-8.63004e-10
-3.57266e-08
-8.95764e-10
-3.52172e-08
-9.27711e-10
-3.46907e-08
-9.58807e-10
-3.41477e-08
-9.89013e-10
-3.35886e-08
-1.01829e-09
-3.3014e-08
-1.04661e-09
-3.24244e-08
-1.07392e-09
-3.18205e-08
-1.1002e-09
-3.12026e-08
-1.12539e-09
-3.05716e-08
-1.14948e-09
-2.9928e-08
-1.17242e-09
-2.92725e-08
-1.19417e-09
-2.86057e-08
-1.2147e-09
-2.79284e-08
-1.23398e-09
-2.72412e-08
-1.25196e-09
-2.65449e-08
-1.26862e-09
-2.58401e-08
-1.28393e-09
-2.51278e-08
-1.29784e-09
-2.44086e-08
-1.31033e-09
-2.36834e-08
-1.32136e-09
-2.29529e-08
-1.33091e-09
-2.22181e-08
-1.33894e-09
-2.14797e-08
-1.34543e-09
-2.07386e-08
-1.35034e-09
-1.99956e-08
-1.35366e-09
-1.92518e-08
-1.35534e-09
-1.85079e-08
-1.35538e-09
-1.77649e-08
-1.35374e-09
-1.70238e-08
-1.3504e-09
-1.62854e-08
-1.34534e-09
-1.55507e-08
-1.33854e-09
-1.48207e-08
-1.32999e-09
-1.40964e-08
-1.31965e-09
-1.33787e-08
-1.30753e-09
-1.26686e-08
-1.2936e-09
-1.19671e-08
-1.27786e-09
-1.12751e-08
-1.26028e-09
-1.05938e-08
-1.24088e-09
-9.92413e-09
-1.21963e-09
-9.26702e-09
-1.19655e-09
-8.62352e-09
-1.17162e-09
-7.99461e-09
-1.14485e-09
-7.38132e-09
-1.11624e-09
-6.78461e-09
-1.08581e-09
-6.20547e-09
-1.05357e-09
-5.64488e-09
-1.01953e-09
-5.10379e-09
-9.83723e-10
-4.58315e-09
-9.46166e-10
-4.08387e-09
-9.06895e-10
-3.60686e-09
-8.6595e-10
-3.15299e-09
-8.23376e-10
-2.72311e-09
-7.79229e-10
-2.318e-09
-7.33574e-10
-1.93845e-09
-6.86487e-10
-1.58514e-09
-6.38056e-10
-1.25874e-09
-5.88384e-10
-9.59825e-10
-5.37594e-10
-6.88885e-10
-4.85829e-10
-4.46332e-10
-4.33257e-10
-2.32456e-10
-3.80076e-10
-4.74229e-11
-3.26517e-10
1.0876e-10
-2.72859e-10
2.36266e-10
-2.1943e-10
3.35488e-10
-1.6663e-10
4.07071e-10
-1.14933e-10
4.51968e-10
-6.4911e-11
4.71503e-10
-1.72603e-11
4.67449e-10
2.71672e-11
4.42103e-10
6.7327e-11
3.98393e-10
1.01944e-10
3.39994e-10
1.29463e-10
2.71441e-10
1.48003e-10
1.98218e-10
1.55356e-10
1.26785e-10
1.49085e-10
6.44858e-11
1.2679e-10
1.92784e-11
8.6873e-11
3.111e-11
2.37367e-11
-5.61219e-11
7.64068e-11
-1.406e-10
1.45429e-10
-1.95064e-10
2.20696e-10
-2.20965e-10
2.93434e-10
-2.21692e-10
3.56069e-10
-2.01115e-10
4.02182e-10
-1.62989e-10
4.26417e-10
-1.10696e-10
4.24389e-10
-4.71543e-11
3.92575e-10
2.51781e-11
3.28203e-10
1.04253e-10
2.29142e-10
1.88371e-10
9.38133e-11
2.7613e-10
-7.8898e-11
3.66371e-10
-2.89713e-10
4.58132e-10
-5.39023e-10
5.50614e-10
-8.26937e-10
6.43153e-10
-1.15333e-09
7.35192e-10
-1.51786e-09
8.26269e-10
-1.92003e-09
9.15993e-10
-2.35921e-09
1.00404e-09
-2.83462e-09
1.09013e-09
-3.34539e-09
1.17405e-09
-3.89057e-09
1.25558e-09
-4.46912e-09
1.33459e-09
-5.07996e-09
1.41092e-09
-5.72193e-09
1.48447e-09
-6.39385e-09
1.55514e-09
-7.09449e-09
1.62287e-09
-7.82261e-09
1.68759e-09
-8.57692e-09
1.74926e-09
-9.35613e-09
1.80783e-09
-1.01589e-08
1.86329e-09
-1.0984e-08
1.91562e-09
-1.183e-08
1.9648e-09
-1.26956e-08
2.01083e-09
-1.35795e-08
2.05372e-09
-1.44804e-08
2.09348e-09
-1.53969e-08
2.13011e-09
-1.63277e-08
2.16363e-09
-1.72715e-08
2.19407e-09
-1.8227e-08
2.22145e-09
-1.91929e-08
2.24579e-09
-2.01679e-08
2.26712e-09
-2.11507e-08
2.28548e-09
-2.21402e-08
2.3009e-09
-2.3135e-08
2.31341e-09
-2.41339e-08
2.32306e-09
-2.51357e-08
2.32988e-09
-2.61393e-08
2.3339e-09
-2.71434e-08
2.33518e-09
-2.81468e-08
2.33376e-09
-2.91486e-08
2.32968e-09
-3.01474e-08
2.32298e-09
-3.11423e-08
2.31371e-09
-3.2132e-08
2.30192e-09
-3.31157e-08
2.28765e-09
-3.40922e-08
2.27094e-09
-3.50605e-08
2.25186e-09
-3.60196e-08
2.23044e-09
-3.69685e-08
2.20674e-09
-3.79062e-08
2.1808e-09
-3.88319e-08
2.15268e-09
-3.97446e-08
2.12241e-09
-4.06433e-08
2.09006e-09
-4.15273e-08
2.05568e-09
-4.23956e-08
2.01931e-09
-4.32475e-08
1.981e-09
-4.40821e-08
1.94081e-09
-4.48987e-08
1.89879e-09
-4.56964e-08
1.85499e-09
-4.64745e-08
1.80946e-09
-4.72323e-08
1.76225e-09
-4.79691e-08
1.71341e-09
-4.86842e-08
1.663e-09
-4.9377e-08
1.61107e-09
-5.00468e-08
1.55768e-09
-5.06931e-08
1.50286e-09
-5.13152e-08
1.44669e-09
-5.19125e-08
1.38921e-09
-5.24846e-08
1.33047e-09
-5.30309e-08
1.27053e-09
-5.3551e-08
1.20944e-09
-5.40442e-08
1.14726e-09
-5.45103e-08
1.08403e-09
-5.49488e-08
1.01983e-09
-5.53592e-08
9.54695e-10
-5.57412e-08
8.88688e-10
-5.60945e-08
8.21862e-10
-5.64187e-08
7.54274e-10
-5.67135e-08
6.85981e-10
-5.69787e-08
6.17039e-10
-5.72139e-08
5.47505e-10
-5.74191e-08
4.77438e-10
-5.75938e-08
4.06894e-10
-5.77381e-08
3.35932e-10
-5.78516e-08
2.64611e-10
-5.79344e-08
1.92989e-10
-5.79862e-08
1.21127e-10
-5.8007e-08
4.90839e-11
-5.79969e-08
-2.30797e-11
-5.79556e-08
-9.53032e-11
-5.78833e-08
-1.67526e-10
-5.77799e-08
-2.39685e-10
-5.76456e-08
-3.1172e-10
-5.74804e-08
-3.83567e-10
-5.72844e-08
-4.55164e-10
-5.70577e-08
-5.26448e-10
-5.68006e-08
-5.97356e-10
-5.65132e-08
-6.67822e-10
-5.61956e-08
-7.37784e-10
-5.58483e-08
-8.07176e-10
-5.54714e-08
-8.75934e-10
-5.50652e-08
-9.43992e-10
-5.46302e-08
-1.01128e-09
-5.41665e-08
-1.07775e-09
-5.36747e-08
-1.14331e-09
-5.31551e-08
-1.20791e-09
-5.26082e-08
-1.27148e-09
-5.20345e-08
-1.33396e-09
-5.14344e-08
-1.39527e-09
-5.08085e-08
-1.45536e-09
-5.01574e-08
-1.51414e-09
-4.94816e-08
-1.57157e-09
-4.87817e-08
-1.62757e-09
-4.80585e-08
-1.68207e-09
-4.73125e-08
-1.73501e-09
-4.65444e-08
-1.78632e-09
-4.57551e-08
-1.83594e-09
-4.49452e-08
-1.8838e-09
-4.41156e-08
-1.92984e-09
-4.3267e-08
-1.97399e-09
-4.24003e-08
-2.01619e-09
-4.15163e-08
-2.05637e-09
-4.0616e-08
-2.09447e-09
-3.97003e-08
-2.13044e-09
-3.87701e-08
-2.1642e-09
-3.78263e-08
-2.1957e-09
-3.68701e-08
-2.22488e-09
-3.59023e-08
-2.25168e-09
-3.49241e-08
-2.27605e-09
-3.39365e-08
-2.29792e-09
-3.29406e-08
-2.31724e-09
-3.19376e-08
-2.33397e-09
-3.09285e-08
-2.34804e-09
-2.99145e-08
-2.35941e-09
-2.88968e-08
-2.36802e-09
-2.78766e-08
-2.37384e-09
-2.68551e-08
-2.37681e-09
-2.58336e-08
-2.3769e-09
-2.48133e-08
-2.37406e-09
-2.37955e-08
-2.36825e-09
-2.27814e-08
-2.35944e-09
-2.17723e-08
-2.34759e-09
-2.07696e-08
-2.33267e-09
-1.97746e-08
-2.31465e-09
-1.87886e-08
-2.29352e-09
-1.7813e-08
-2.26923e-09
-1.68491e-08
-2.24179e-09
-1.58982e-08
-2.21116e-09
-1.49617e-08
-2.17735e-09
-1.4041e-08
-2.14033e-09
-1.31375e-08
-2.10012e-09
-1.22524e-08
-2.05671e-09
-1.13871e-08
-2.0101e-09
-1.0543e-08
-1.96032e-09
-9.72147e-09
-1.90738e-09
-8.92373e-09
-1.8513e-09
-8.15113e-09
-1.79213e-09
-7.40496e-09
-1.7299e-09
-6.68646e-09
-1.66466e-09
-5.99687e-09
-1.59648e-09
-5.33738e-09
-1.52543e-09
-4.70916e-09
-1.4516e-09
-4.1133e-09
-1.37509e-09
-3.55086e-09
-1.29601e-09
-3.02283e-09
-1.21451e-09
-2.53013e-09
-1.13076e-09
-2.07358e-09
-1.04493e-09
-1.65392e-09
-9.57254e-10
-1.27177e-09
-8.67983e-10
-9.27604e-10
-7.77419e-10
-6.21762e-10
-6.85916e-10
-3.54393e-10
-5.93885e-10
-1.25443e-10
-5.01812e-10
6.53923e-11
-4.10271e-10
2.18703e-10
-3.19942e-10
3.35416e-10
-2.31641e-10
4.16847e-10
-1.46337e-10
4.64773e-10
-6.51882e-11
4.81522e-10
1.04147e-11
4.70052e-10
7.87973e-11
4.34043e-10
1.37953e-10
3.78006e-10
1.85497e-10
3.0738e-10
2.18625e-10
2.2861e-10
2.34128e-10
1.49188e-10
2.28511e-10
7.76913e-11
1.98289e-10
2.39165e-11
1.40649e-10
5.50229e-11
2.50675e-11
-8.11789e-11
7.96419e-11
-1.95172e-10
1.4911e-10
-2.64534e-10
2.21987e-10
-2.93846e-10
2.88586e-10
-2.88291e-10
3.40617e-10
-2.53147e-10
3.71025e-10
-1.93399e-10
3.7386e-10
-1.13534e-10
3.44178e-10
-1.74726e-11
2.77934e-10
9.14226e-11
1.71886e-10
2.10299e-10
2.34993e-11
3.36755e-10
-1.69146e-10
4.68775e-10
-4.0744e-10
6.04666e-10
-6.92315e-10
7.43009e-10
-1.02431e-09
8.8261e-10
-1.40362e-09
1.02247e-09
-1.83017e-09
1.16174e-09
-2.30361e-09
1.2997e-09
-2.82338e-09
1.43577e-09
-3.38877e-09
1.56943e-09
-3.99888e-09
1.70024e-09
-4.65269e-09
1.82785e-09
-5.34906e-09
1.95196e-09
-6.08677e-09
2.07229e-09
-6.86449e-09
2.18864e-09
-7.68085e-09
2.30083e-09
-8.5344e-09
2.4087e-09
-9.42366e-09
2.51212e-09
-1.03471e-08
2.61101e-09
-1.13031e-08
2.70528e-09
-1.22901e-08
2.79487e-09
-1.33066e-08
2.87973e-09
-1.43508e-08
2.95982e-09
-1.54211e-08
3.03513e-09
-1.65159e-08
3.10565e-09
-1.76336e-08
3.17137e-09
-1.87724e-08
3.23231e-09
-1.99308e-08
3.28847e-09
-2.1107e-08
3.33988e-09
-2.22995e-08
3.38657e-09
-2.35067e-08
3.42857e-09
-2.47268e-08
3.46592e-09
-2.59583e-08
3.49866e-09
-2.71997e-08
3.52683e-09
-2.84493e-08
3.55049e-09
-2.97055e-08
3.56969e-09
-3.0967e-08
3.58448e-09
-3.2232e-08
3.59493e-09
-3.34992e-08
3.60108e-09
-3.4767e-08
3.60301e-09
-3.6034e-08
3.60078e-09
-3.72988e-08
3.59446e-09
-3.85599e-08
3.5841e-09
-3.9816e-08
3.56979e-09
-4.10657e-08
3.55159e-09
-4.23076e-08
3.52957e-09
-4.35405e-08
3.5038e-09
-4.4763e-08
3.47436e-09
-4.59738e-08
3.44133e-09
-4.71719e-08
3.40476e-09
-4.83558e-08
3.36475e-09
-4.95245e-08
3.32137e-09
-5.06768e-08
3.27468e-09
-5.18115e-08
3.22478e-09
-5.29275e-08
3.17173e-09
-5.40239e-08
3.11562e-09
-5.50994e-08
3.05653e-09
-5.61531e-08
2.99452e-09
-5.7184e-08
2.92968e-09
-5.81911e-08
2.8621e-09
-5.91735e-08
2.79184e-09
-6.01302e-08
2.71899e-09
-6.10605e-08
2.64363e-09
-6.19633e-08
2.56585e-09
-6.28379e-08
2.48571e-09
-6.36836e-08
2.40331e-09
-6.44994e-08
2.31872e-09
-6.52848e-08
2.23203e-09
-6.60389e-08
2.14331e-09
-6.67611e-08
2.05266e-09
-6.74507e-08
1.96015e-09
-6.81071e-08
1.86587e-09
-6.87297e-08
1.7699e-09
-6.9318e-08
1.67232e-09
-6.98714e-08
1.57323e-09
-7.03894e-08
1.4727e-09
-7.08716e-08
1.37083e-09
-7.13174e-08
1.26769e-09
-7.17265e-08
1.16338e-09
-7.20985e-08
1.05798e-09
-7.2433e-08
9.51574e-10
-7.27298e-08
8.44261e-10
-7.29885e-08
7.36125e-10
-7.32088e-08
6.27256e-10
-7.33906e-08
5.17743e-10
-7.35337e-08
4.07678e-10
-7.36379e-08
2.97152e-10
-7.3703e-08
1.86256e-10
-7.3729e-08
7.50842e-11
-7.37158e-08
-3.6271e-11
-7.36634e-08
-1.47715e-10
-7.35718e-08
-2.59155e-10
-7.3441e-08
-3.70494e-10
-7.3271e-08
-4.81638e-10
-7.30621e-08
-5.92488e-10
-7.28143e-08
-7.02949e-10
-7.25279e-08
-8.12923e-10
-7.22029e-08
-9.22312e-10
-7.18397e-08
-1.03102e-09
-7.14386e-08
-1.13894e-09
-7.09998e-08
-1.24598e-09
-7.05237e-08
-1.35203e-09
-7.00106e-08
-1.45701e-09
-6.94611e-08
-1.56079e-09
-6.88756e-08
-1.6633e-09
-6.82545e-08
-1.76441e-09
-6.75984e-08
-1.86403e-09
-6.69078e-08
-1.96206e-09
-6.61833e-08
-2.0584e-09
-6.54257e-08
-2.15294e-09
-6.46355e-08
-2.24558e-09
-6.38134e-08
-2.33622e-09
-6.29602e-08
-2.42475e-09
-6.20767e-08
-2.51107e-09
-6.11637e-08
-2.59509e-09
-6.0222e-08
-2.6767e-09
-5.92525e-08
-2.75579e-09
-5.82562e-08
-2.83227e-09
-5.7234e-08
-2.90603e-09
-5.61868e-08
-2.97699e-09
-5.51158e-08
-3.04503e-09
-5.40219e-08
-3.11005e-09
-5.29063e-08
-3.17197e-09
-5.17701e-08
-3.23069e-09
-5.06144e-08
-3.28611e-09
-4.94405e-08
-3.33813e-09
-4.82495e-08
-3.38667e-09
-4.70428e-08
-3.43163e-09
-4.58215e-08
-3.47293e-09
-4.45871e-08
-3.51047e-09
-4.33409e-08
-3.54418e-09
-4.20841e-08
-3.57396e-09
-4.08184e-08
-3.59974e-09
-3.9545e-08
-3.62144e-09
-3.82654e-08
-3.63897e-09
-3.69811e-08
-3.65228e-09
-3.56937e-08
-3.66128e-09
-3.44046e-08
-3.66591e-09
-3.31154e-08
-3.6661e-09
-3.18277e-08
-3.66179e-09
-3.0543e-08
-3.65293e-09
-2.9263e-08
-3.63945e-09
-2.79893e-08
-3.62131e-09
-2.67235e-08
-3.59846e-09
-2.54673e-08
-3.57086e-09
-2.42223e-08
-3.53847e-09
-2.29903e-08
-3.50126e-09
-2.17729e-08
-3.45921e-09
-2.05717e-08
-3.41229e-09
-1.93886e-08
-3.36049e-09
-1.82251e-08
-3.30379e-09
-1.70831e-08
-3.24221e-09
-1.5964e-08
-3.17574e-09
-1.48697e-08
-3.1044e-09
-1.38018e-08
-3.02822e-09
-1.2762e-08
-2.94723e-09
-1.17518e-08
-2.86147e-09
-1.07729e-08
-2.771e-09
-9.82692e-09
-2.6759e-09
-8.91534e-09
-2.57624e-09
-8.03969e-09
-2.47214e-09
-7.20142e-09
-2.3637e-09
-6.40195e-09
-2.25107e-09
-5.64262e-09
-2.13442e-09
-4.92469e-09
-2.01394e-09
-4.24936e-09
-1.88984e-09
-3.61772e-09
-1.7624e-09
-3.03075e-09
-1.6319e-09
-2.4893e-09
-1.4987e-09
-1.99408e-09
-1.3632e-09
-1.54563e-09
-1.22587e-09
-1.1443e-09
-1.08724e-09
-7.90214e-10
-9.4797e-10
-4.83235e-10
-8.08788e-10
-2.22936e-10
-6.7057e-10
-8.54369e-12
-5.34339e-10
1.61116e-10
-4.01302e-10
2.87672e-10
-2.72891e-10
3.73277e-10
-1.50792e-10
4.20688e-10
-3.69993e-11
4.33359e-10
6.6126e-11
4.15517e-10
1.55799e-10
3.72253e-10
2.28763e-10
3.09616e-10
2.81261e-10
2.34699e-10
3.09042e-10
1.55744e-10
3.07465e-10
8.23011e-11
2.7173e-10
2.56269e-11
1.97327e-10
8.0648e-11
2.41358e-11
-1.05317e-10
7.57249e-11
-2.46752e-10
1.39215e-10
-3.28021e-10
2.02275e-10
-3.56912e-10
2.54602e-10
-3.40619e-10
2.87427e-10
-2.85974e-10
2.93282e-10
-1.99258e-10
2.65835e-10
-8.60899e-11
1.99772e-10
4.85908e-11
9.06922e-11
2.00501e-10
-6.49762e-11
3.65965e-10
-2.70067e-10
5.41844e-10
-5.26762e-10
7.2547e-10
-8.3667e-10
9.14576e-10
-1.2009e-09
1.10724e-09
-1.62012e-09
1.30183e-09
-2.0946e-09
1.49695e-09
-2.62431e-09
1.69145e-09
-3.20891e-09
1.8843e-09
-3.84781e-09
2.07467e-09
-4.54022e-09
2.26183e-09
-5.28515e-09
2.44517e-09
-6.08144e-09
2.62415e-09
-6.92782e-09
2.79834e-09
-7.82288e-09
2.96735e-09
-8.76512e-09
3.13088e-09
-9.75293e-09
3.28864e-09
-1.07847e-08
3.44042e-09
-1.18586e-08
3.58604e-09
-1.29729e-08
3.72532e-09
-1.41258e-08
3.85817e-09
-1.53154e-08
3.98447e-09
-1.65398e-08
4.10414e-09
-1.77971e-08
4.21715e-09
-1.90854e-08
4.32344e-09
-2.04028e-08
4.423e-09
-2.17472e-08
4.51581e-09
-2.31168e-08
4.60188e-09
-2.45095e-08
4.68124e-09
-2.59235e-08
4.75389e-09
-2.73569e-08
4.81988e-09
-2.88075e-08
4.87925e-09
-3.02737e-08
4.93205e-09
-3.17533e-08
4.97833e-09
-3.32446e-08
5.01815e-09
-3.47457e-08
5.05159e-09
-3.62548e-08
5.07871e-09
-3.77699e-08
5.09959e-09
-3.92892e-08
5.11431e-09
-4.08111e-08
5.12295e-09
-4.23337e-08
5.1256e-09
-4.38553e-08
5.12235e-09
-4.53741e-08
5.11329e-09
-4.68885e-08
5.09851e-09
-4.83968e-08
5.07811e-09
-4.98974e-08
5.05218e-09
-5.13887e-08
5.02084e-09
-5.28691e-08
4.98417e-09
-5.4337e-08
4.94228e-09
-5.57909e-08
4.89528e-09
-5.72294e-08
4.84326e-09
-5.8651e-08
4.78634e-09
-6.00543e-08
4.72463e-09
-6.14378e-08
4.65822e-09
-6.28003e-08
4.58723e-09
-6.41403e-08
4.51177e-09
-6.54566e-08
4.43195e-09
-6.6748e-08
4.34788e-09
-6.80131e-08
4.25967e-09
-6.92509e-08
4.16744e-09
-7.04601e-08
4.07129e-09
-7.16396e-08
3.97134e-09
-7.27883e-08
3.8677e-09
-7.39051e-08
3.76049e-09
-7.49891e-08
3.64981e-09
-7.60392e-08
3.5358e-09
-7.70545e-08
3.41856e-09
-7.80339e-08
3.2982e-09
-7.89768e-08
3.17485e-09
-7.98821e-08
3.04863e-09
-8.07491e-08
2.91964e-09
-8.15769e-08
2.78801e-09
-8.23649e-08
2.65386e-09
-8.31123e-08
2.51731e-09
-8.38185e-08
2.37847e-09
-8.44827e-08
2.23748e-09
-8.51045e-08
2.09444e-09
-8.56831e-08
1.94948e-09
-8.62182e-08
1.80273e-09
-8.67091e-08
1.65431e-09
-8.71555e-08
1.50434e-09
-8.75568e-08
1.35295e-09
-8.79128e-08
1.20026e-09
-8.82231e-08
1.04641e-09
-8.84874e-08
8.9151e-10
-8.87053e-08
7.35701e-10
-8.88768e-08
5.79109e-10
-8.90015e-08
4.21863e-10
-8.90793e-08
2.64096e-10
-8.91102e-08
1.05939e-10
-8.9094e-08
-5.24753e-11
-8.90307e-08
-2.11013e-10
-8.89203e-08
-3.69539e-10
-8.87629e-08
-5.27917e-10
-8.85585e-08
-6.86013e-10
-8.83073e-08
-8.43687e-10
-8.80094e-08
-1.0008e-09
-8.76651e-08
-1.15722e-09
-8.72746e-08
-1.3128e-09
-8.68383e-08
-1.4674e-09
-8.63563e-08
-1.62089e-09
-8.58292e-08
-1.77311e-09
-8.52573e-08
-1.92393e-09
-8.46411e-08
-2.0732e-09
-8.39811e-08
-2.22078e-09
-8.32779e-08
-2.36653e-09
-8.2532e-08
-2.5103e-09
-8.17441e-08
-2.65194e-09
-8.09148e-08
-2.79131e-09
-8.00449e-08
-2.92827e-09
-7.91352e-08
-3.06267e-09
-7.81864e-08
-3.19437e-09
-7.71994e-08
-3.32321e-09
-7.61751e-08
-3.44905e-09
-7.51144e-08
-3.57175e-09
-7.40184e-08
-3.69117e-09
-7.28879e-08
-3.80715e-09
-7.17241e-08
-3.91956e-09
-7.05282e-08
-4.02825e-09
-6.93011e-08
-4.13308e-09
-6.80442e-08
-4.23391e-09
-6.67586e-08
-4.3306e-09
-6.54457e-08
-4.423e-09
-6.41066e-08
-4.51099e-09
-6.27429e-08
-4.59442e-09
-6.13558e-08
-4.67317e-09
-5.99469e-08
-4.74709e-09
-5.85175e-08
-4.81607e-09
-5.70692e-08
-4.87996e-09
-5.56034e-08
-4.93865e-09
-5.41219e-08
-4.992e-09
-5.26262e-08
-5.03991e-09
-5.11179e-08
-5.08226e-09
-4.95987e-08
-5.11892e-09
-4.80703e-08
-5.14979e-09
-4.65345e-08
-5.17476e-09
-4.49931e-08
-5.19373e-09
-4.34478e-08
-5.2066e-09
-4.19004e-08
-5.21327e-09
-4.03529e-08
-5.21365e-09
-3.8807e-08
-5.20766e-09
-3.72647e-08
-5.19522e-09
-3.57279e-08
-5.17624e-09
-3.41985e-08
-5.15067e-09
-3.26786e-08
-5.11843e-09
-3.11699e-08
-5.07948e-09
-2.96746e-08
-5.03376e-09
-2.81947e-08
-4.98123e-09
-2.6732e-08
-4.92185e-09
-2.52887e-08
-4.85561e-09
-2.38667e-08
-4.78247e-09
-2.24681e-08
-4.70245e-09
-2.10948e-08
-4.61552e-09
-1.97488e-08
-4.52173e-09
-1.84321e-08
-4.42108e-09
-1.71467e-08
-4.31362e-09
-1.58945e-08
-4.19941e-09
-1.46775e-08
-4.07851e-09
-1.34975e-08