/*--------------------------------*- C++ -*----------------------------------*\
  =========                 |
  \\      /  F ield         | OpenFOAM: The Open Source CFD Toolbox
   \\    /   O peration     | Website:  https://openfoam.org
    \\  /    A nd           | Version:  7
     \\/     M anipulation  |
\*---------------------------------------------------------------------------*/
FoamFile
{
    version     2.0;
    format      ascii;
    class       volScalarField;
    location    "84";
    object      p;
}
// * * * * * * * * * * * * * * * * * * * * * * * * * * * * * * * * * * * * * //

dimensions      [0 2 -2 0 0 0 0];

internalField   nonuniform List<scalar> 
41600
(
-0.364075
-0.369565
-0.375935
-0.373688
-0.370443
-0.37211
-0.387381
-0.404611
-0.404208
-0.375643
-0.326625
-0.272882
-0.226393
-0.193565
-0.175573
-0.171767
-0.17631
-0.179971
-0.169938
-0.152018
-0.133344
-0.119424
-0.112157
-0.113427
-0.119799
-0.360348
-0.364679
-0.369326
-0.366327
-0.365201
-0.372281
-0.395186
-0.419571
-0.422729
-0.393359
-0.340278
-0.281085
-0.228849
-0.190522
-0.167226
-0.157846
-0.157977
-0.160199
-0.153036
-0.140035
-0.127309
-0.119084
-0.116233
-0.122655
-0.133857
-0.356798
-0.359951
-0.362967
-0.359226
-0.360098
-0.372286
-0.4024
-0.433429
-0.439684
-0.40921
-0.351993
-0.287558
-0.23
-0.186562
-0.158456
-0.144123
-0.140133
-0.140258
-0.135225
-0.12688
-0.120213
-0.117537
-0.119313
-0.131317
-0.147161
-0.353427
-0.355389
-0.356864
-0.352392
-0.35513
-0.372074
-0.408927
-0.445986
-0.454874
-0.423021
-0.361689
-0.29233
-0.229967
-0.181942
-0.149508
-0.130841
-0.123125
-0.120729
-0.117149
-0.113084
-0.112236
-0.114677
-0.121118
-0.138943
-0.159169
-0.350235
-0.350994
-0.35102
-0.345828
-0.350282
-0.371595
-0.414653
-0.457059
-0.468101
-0.434643
-0.369323
-0.295456
-0.228871
-0.176898
-0.14062
-0.118229
-0.107266
-0.102259
-0.0995061
-0.0991964
-0.103546
-0.110436
-0.121419
-0.14519
-0.169536
-0.347217
-0.346769
-0.345433
-0.339529
-0.345536
-0.370806
-0.419441
-0.466526
-0.479217
-0.443966
-0.374886
-0.29702
-0.226842
-0.171618
-0.132015
-0.106478
-0.0927555
-0.0853826
-0.0829675
-0.0856492
-0.0942601
-0.104773
-0.120065
-0.149731
-0.177926
-0.344371
-0.342711
-0.340095
-0.333485
-0.34087
-0.369697
-0.423175
-0.474261
-0.488103
-0.450923
-0.378403
-0.297128
-0.224014
-0.166243
-0.123889
-0.0957286
-0.0796691
-0.0703635
-0.0677825
-0.072636
-0.0844168
-0.0976547
-0.116925
-0.152083
-0.183844
-0.341692
-0.338818
-0.334998
-0.327683
-0.336262
-0.368171
-0.425849
-0.48017
-0.494679
-0.455492
-0.379936
-0.2959
-0.220532
-0.160872
-0.116392
-0.0860672
-0.0680088
-0.0571783
-0.0539883
-0.0601328
-0.0739722
-0.0890286
-0.11182
-0.151624
-0.186736
-0.339174
-0.335086
-0.330131
-0.322109
-0.331689
-0.366201
-0.42741
-0.484196
-0.498913
-0.457702
-0.37958
-0.29347
-0.216536
-0.155584
-0.109615
-0.0775354
-0.0577512
-0.0456303
-0.041477
-0.0479892
-0.0628204
-0.0788237
-0.10454
-0.147813
-0.186373
-0.336811
-0.331508
-0.325479
-0.316746
-0.327134
-0.36378
-0.427823
-0.486326
-0.50082
-0.457625
-0.377461
-0.289978
-0.212158
-0.15045
-0.10358
-0.0701432
-0.0488606
-0.0354986
-0.0301211
-0.0360604
-0.0508489
-0.0669952
-0.0949351
-0.140393
-0.180901
-0.334598
-0.32808
-0.321029
-0.311579
-0.322579
-0.360908
-0.427083
-0.486587
-0.50046
-0.45538
-0.373732
-0.285571
-0.207514
-0.145537
-0.0982592
-0.0638713
-0.0412822
-0.0266349
-0.0198246
-0.0243111
-0.0380047
-0.0535969
-0.0830287
-0.129747
-0.170661
-0.332528
-0.324793
-0.316766
-0.306588
-0.318018
-0.357591
-0.425211
-0.485048
-0.497939
-0.451122
-0.368567
-0.280399
-0.202701
-0.140906
-0.093602
-0.058664
-0.0349441
-0.018974
-0.0105288
-0.0128157
-0.0243384
-0.0388473
-0.0691091
-0.11672
-0.15672
-0.330594
-0.321643
-0.312681
-0.30176
-0.313441
-0.353851
-0.422257
-0.481818
-0.493401
-0.445036
-0.362153
-0.27461
-0.197803
-0.1366
-0.089563
-0.0544273
-0.0297698
-0.0124981
-0.00221581
-0.00169799
-0.010049
-0.023195
-0.0537696
-0.102198
-0.139881
-0.328792
-0.318621
-0.308765
-0.297081
-0.308852
-0.349722
-0.418293
-0.47704
-0.487021
-0.437333
-0.354685
-0.268344
-0.19289
-0.132639
-0.0861087
-0.0510454
-0.025681
-0.00720924
0.00505667
0.00885227
0.00439789
-0.00741734
-0.0380376
-0.086994
-0.121244
-0.327115
-0.315722
-0.304999
-0.292532
-0.304259
-0.345251
-0.413413
-0.470885
-0.478997
-0.428237
-0.346359
-0.261734
-0.188025
-0.129024
-0.0832096
-0.0484097
-0.0225842
-0.00311095
0.011122
0.0184335
0.0180621
0.00726637
-0.0233316
-0.0714169
-0.101977
-0.32556
-0.312941
-0.301382
-0.288111
-0.299681
-0.340493
-0.407734
-0.46354
-0.46954
-0.417982
-0.337367
-0.254901
-0.183256
-0.125747
-0.0808291
-0.0464351
-0.020368
-0.000175163
0.0157604
0.0263276
0.0295125
0.0193534
-0.0109509
-0.0566177
-0.0833153
-0.324122
-0.310271
-0.297904
-0.283819
-0.295142
-0.33551
-0.401388
-0.455196
-0.458867
-0.406798
-0.327893
-0.247952
-0.178625
-0.122791
-0.0789201
-0.0450556
-0.0189246
0.00168023
0.0188457
0.0317546
0.0372359
0.0277533
-0.00141718
-0.0428369
-0.0662974
-0.322799
-0.307709
-0.294554
-0.279664
-0.290674
-0.330368
-0.394523
-0.446034
-0.447194
-0.394912
-0.318104
-0.240979
-0.174159
-0.120137
-0.0774302
-0.0442087
-0.0181668
0.00257003
0.0204138
0.0344089
0.0410554
0.0321176
0.00542375
-0.0306787
-0.0516558
-0.32159
-0.305253
-0.29133
-0.275651
-0.286313
-0.325132
-0.387294
-0.436213
-0.434729
-0.382539
-0.308154
-0.234062
-0.169878
-0.117764
-0.076308
-0.043828
-0.0180226
0.00261197
0.0206067
0.0345809
0.0416117
0.0335389
0.00993186
-0.0207404
-0.0396791
-0.320494
-0.302901
-0.288232
-0.271788
-0.2821
-0.319865
-0.379854
-0.425867
-0.421676
-0.369876
-0.298177
-0.227264
-0.165793
-0.115645
-0.075505
-0.0438453
-0.0184204
0.00192092
0.0196377
0.0329483
0.0398814
0.0327415
0.0124444
-0.0132747
-0.0303076
-0.319512
-0.300655
-0.285266
-0.268091
-0.278074
-0.314629
-0.372343
-0.415102
-0.408224
-0.357102
-0.288287
-0.220637
-0.161909
-0.113756
-0.074975
-0.0441958
-0.0192819
0.000615593
0.0177622
0.0301738
0.0367187
0.030534
0.0133641
-0.00806575
-0.0231905
-0.318647
-0.298516
-0.282438
-0.264581
-0.274273
-0.309482
-0.364873
-0.404008
-0.39455
-0.344376
-0.278578
-0.214217
-0.158225
-0.11207
-0.0746741
-0.0448198
-0.0205245
-0.00117912
0.015237
0.0267353
0.0327603
0.0275253
0.0131496
-0.00464057
-0.017902
-0.317903
-0.29649
-0.279758
-0.261284
-0.27073
-0.304488
-0.357509
-0.392665
-0.38082
-0.331832
-0.269126
-0.208032
-0.154738
-0.110561
-0.0745609
-0.0456622
-0.0220666
-0.00334059
0.0122816
0.0229381
0.0284404
0.024126
0.0121925
-0.00253154
-0.0140428
-0.317284
-0.294582
-0.27724
-0.25823
-0.267464
-0.29971
-0.350271
-0.381156
-0.367179
-0.31958
-0.259988
-0.202099
-0.151438
-0.109204
-0.074597
-0.0466723
-0.0238315
-0.00575858
0.00906682
0.0189801
0.0240325
0.0205875
0.0107694
-0.0013731
-0.0112856
-0.316799
-0.2928
-0.274898
-0.255451
-0.264484
-0.295205
-0.343133
-0.369569
-0.353759
-0.307708
-0.251203
-0.196426
-0.148314
-0.107976
-0.0747476
-0.047804
-0.02575
-0.0083395
0.00572104
0.0149949
0.0196993
0.0170596
0.00906774
-0.000897182
-0.00937259
-0.316455
-0.291153
-0.272751
-0.252972
-0.26179
-0.291018
-0.336048
-0.357999
-0.340667
-0.296282
-0.242798
-0.191015
-0.145356
-0.106855
-0.0749811
-0.0490164
-0.0277618
-0.0110063
0.0023398
0.0110745
0.0155332
0.0136311
0.00721405
-0.000909404
-0.00810371
-0.316262
-0.289652
-0.270817
-0.250808
-0.259382
-0.287158
-0.328969
-0.346539
-0.327993
-0.285347
-0.234785
-0.185863
-0.14255
-0.10582
-0.0752699
-0.0502733
-0.0298159
-0.0136967
-0.00100657
0.0072808
0.0115833
0.0103527
0.00529414
-0.00126804
-0.00732507
-0.316231
-0.28831
-0.269113
-0.248962
-0.25726
-0.283597
-0.321869
-0.335278
-0.315804
-0.274929
-0.22717
-0.180962
-0.139883
-0.104856
-0.0755895
-0.0515438
-0.0318699
-0.0163615
-0.00426708
0.00365461
0.00787264
0.00725144
0.00336589
-0.00186944
-0.00691895
-0.316375
-0.28714
-0.267649
-0.247422
-0.255427
-0.280274
-0.314746
-0.324292
-0.304147
-0.265041
-0.219947
-0.176303
-0.137341
-0.103944
-0.0759193
-0.0528018
-0.0338897
-0.0189625
-0.00740559
0.000220908
0.00440794
0.00433915
0.00146802
-0.00263712
-0.00679417
-0.316705
-0.286155
-0.266428
-0.246172
-0.253881
-0.277107
-0.30762
-0.313646
-0.293051
-0.255683
-0.213105
-0.171872
-0.134913
-0.103071
-0.0762417
-0.0540256
-0.0358479
-0.021471
-0.0103972
-0.00300667
0.00118685
0.00161879
-0.000374154
-0.0035143
-0.00687981
-0.317236
-0.285368
-0.265444
-0.245198
-0.252604
-0.274015
-0.300526
-0.303388
-0.282528
-0.246845
-0.206631
-0.167658
-0.132586
-0.102225
-0.076542
-0.0551976
-0.0377234
-0.0238658
-0.0132256
-0.00602264
-0.00179824
-0.000912183
-0.00214456
-0.00445868
-0.00712061
-0.317979
-0.284787
-0.26468
-0.244489
-0.251558
-0.270932
-0.293504
-0.29355
-0.272578
-0.23851
-0.200506
-0.163645
-0.130349
-0.101395
-0.0768084
-0.0563038
-0.0395
-0.0261321
-0.0158809
-0.00882733
-0.00455759
-0.00325945
-0.00383345
-0.0054386
-0.00747354
-0.318946
-0.284415
-0.264115
-0.244042
-0.250688
-0.267815
-0.286593
-0.284154
-0.263189
-0.230655
-0.194711
-0.159819
-0.128192
-0.100572
-0.0770313
-0.0573333
-0.0411664
-0.0282601
-0.018358
-0.011425
-0.00710264
-0.00543045
-0.00543538
-0.00643027
-0.00790494
-0.320148
-0.284247
-0.26373
-0.243848
-0.249929
-0.26464
-0.27983
-0.275206
-0.254342
-0.223256
-0.189226
-0.156166
-0.126105
-0.0997475
-0.0772034
-0.0582781
-0.0427147
-0.0302439
-0.0206556
-0.0138228
-0.009445
-0.00743356
-0.00694809
-0.00741538
-0.00838808
-0.321592
-0.284265
-0.263515
-0.243885
-0.249217
-0.261399
-0.27324
-0.266706
-0.246013
-0.216284
-0.184028
-0.152673
-0.12408
-0.0989159
-0.0773192
-0.0591323
-0.0441401
-0.0320809
-0.0227752
-0.0160291
-0.0115958
-0.00927787
-0.00837209
-0.00837952
-0.00890062
-0.323282
-0.28444
-0.263473
-0.244116
-0.248498
-0.258095
-0.266845
-0.258643
-0.238173
-0.209711
-0.179098
-0.149327
-0.122108
-0.0980717
-0.0773747
-0.0598921
-0.0454403
-0.0337703
-0.0247203
-0.0180535
-0.0135653
-0.0109733
-0.00970961
-0.00931139
-0.00942664
-0.325215
-0.284734
-0.263617
-0.244486
-0.247734
-0.254735
-0.260657
-0.251002
-0.230792
-0.203509
-0.174415
-0.146116
-0.120183
-0.0972105
-0.0773671
-0.0605552
-0.0466151
-0.0353133
-0.0264963
-0.0199052
-0.0153631
-0.0125304
-0.0109623
-0.0102037
-0.00996196
-0.327383
-0.285103
-0.263964
-0.244932
-0.246894
-0.25133
-0.254684
-0.243764
-0.223838
-0.19765
-0.169961
-0.143027
-0.118299
-0.096329
-0.0772949
-0.0611209
-0.0476654
-0.0367124
-0.0281098
-0.0215931
-0.0169986
-0.0139595
-0.0121287
-0.0110548
-0.0105098
-0.329764
-0.285508
-0.264524
-0.245392
-0.245961
-0.247893
-0.248926
-0.236907
-0.217282
-0.192107
-0.165716
-0.14005
-0.11645
-0.0954246
-0.0771573
-0.0615895
-0.0485938
-0.0379712
-0.0295682
-0.0231256
-0.0184819
-0.0152691
-0.0132048
-0.0118668
-0.0110583
-0.332325
-0.285918
-0.265291
-0.245815
-0.244923
-0.244434
-0.243383
-0.230408
-0.211092
-0.186854
-0.161664
-0.137175
-0.11463
-0.0944953
-0.0769545
-0.0619623
-0.0494032
-0.0390941
-0.030879
-0.0245104
-0.0198235
-0.0164655
-0.0141899
-0.0126312
-0.0115654
-0.335001
-0.286333
-0.266235
-0.246162
-0.243772
-0.240964
-0.238048
-0.224243
-0.205238
-0.181868
-0.157788
-0.134392
-0.112836
-0.0935396
-0.0766867
-0.0622412
-0.0500972
-0.0400859
-0.0320497
-0.0257553
-0.0210333
-0.0175539
-0.0150912
-0.0133226
-0.0119924
-0.337728
-0.286765
-0.267303
-0.24641
-0.242505
-0.237492
-0.232913
-0.218387
-0.199694
-0.177125
-0.154073
-0.131694
-0.111062
-0.0925562
-0.0763549
-0.0624284
-0.0506796
-0.0409519
-0.0330873
-0.0268677
-0.0221202
-0.01854
-0.0159174
-0.0139497
-0.0123653
-0.340445
-0.287231
-0.268422
-0.246544
-0.24112
-0.234026
-0.227969
-0.212816
-0.194432
-0.172604
-0.150505
-0.129071
-0.109307
-0.0915446
-0.0759603
-0.062527
-0.0511547
-0.0416976
-0.033999
-0.027855
-0.0230919
-0.019429
-0.0166696
-0.0145364
-0.0127505
-0.343068
-0.287775
-0.269507
-0.246557
-0.239621
-0.23057
-0.223206
-0.207508
-0.189428
-0.168285
-0.14707
-0.126516
-0.107565
-0.0905044
-0.0755047
-0.0625399
-0.0515269
-0.0423288
-0.0347913
-0.0287244
-0.0239552
-0.0202256
-0.017354
-0.0150785
-0.0131364
-0.345514
-0.28846
-0.270477
-0.246444
-0.238009
-0.22713
-0.218613
-0.202441
-0.184659
-0.164151
-0.143757
-0.124023
-0.105835
-0.0894353
-0.0749897
-0.0624705
-0.0518007
-0.0428509
-0.0354706
-0.0294827
-0.0247164
-0.0209349
-0.0179709
-0.0155774
-0.0135183
-0.347712
-0.289355
-0.271262
-0.2462
-0.23629
-0.223708
-0.214177
-0.197594
-0.180102
-0.160183
-0.140554
-0.121585
-0.104113
-0.0883376
-0.0744172
-0.062322
-0.0519805
-0.0432695
-0.036043
-0.030136
-0.025381
-0.0215613
-0.0185234
-0.0160307
-0.0138839
-0.349604
-0.29053
-0.271816
-0.24582
-0.23447
-0.220306
-0.209887
-0.192947
-0.17574
-0.156368
-0.137451
-0.119196
-0.102398
-0.0872112
-0.0737892
-0.0620979
-0.0520707
-0.0435897
-0.0365143
-0.0306904
-0.0259545
-0.0221091
-0.0190123
-0.0164388
-0.0142249
-0.351147
-0.292052
-0.272114
-0.245301
-0.232555
-0.216925
-0.205732
-0.188482
-0.171552
-0.152689
-0.134439
-0.116852
-0.100687
-0.0860564
-0.0731077
-0.0618013
-0.0520755
-0.0438167
-0.03689
-0.0311513
-0.0264417
-0.0225821
-0.0194399
-0.0168009
-0.0145356
-0.352317
-0.293968
-0.272157
-0.244638
-0.230552
-0.213564
-0.201699
-0.184182
-0.167523
-0.149135
-0.131508
-0.114546
-0.0989782
-0.0848737
-0.0723747
-0.0614357
-0.0519993
-0.0439553
-0.0371753
-0.0315239
-0.0268472
-0.0229837
-0.0198076
-0.0171175
-0.0148125
-0.353101
-0.296304
-0.271963
-0.243828
-0.228469
-0.210222
-0.197779
-0.18003
-0.163637
-0.145693
-0.128651
-0.112275
-0.0972702
-0.0836633
-0.0715921
-0.0610041
-0.0518459
-0.0440102
-0.037375
-0.0318128
-0.0271754
-0.0233172
-0.0201177
-0.0173887
-0.0150536
-0.353498
-0.299048
-0.271561
-0.242865
-0.226312
-0.206898
-0.19396
-0.176013
-0.15988
-0.142352
-0.125859
-0.110034
-0.0955611
-0.0824258
-0.0707619
-0.0605096
-0.0516192
-0.0439857
-0.0374937
-0.0320226
-0.0274301
-0.0235855
-0.0203717
-0.0176153
-0.0152581
-0.353512
-0.302153
-0.270987
-0.241747
-0.224087
-0.203591
-0.190233
-0.172116
-0.156237
-0.139101
-0.123127
-0.10782
-0.0938495
-0.0811616
-0.069886
-0.0599552
-0.051323
-0.0438861
-0.0375358
-0.0321575
-0.0276152
-0.0237915
-0.0205718
-0.0177977
-0.0154255
-0.353155
-0.305532
-0.270274
-0.240469
-0.221798
-0.200297
-0.186587
-0.168328
-0.152699
-0.135931
-0.120446
-0.105628
-0.0921341
-0.0798711
-0.0689662
-0.0593436
-0.0509605
-0.0437152
-0.0375053
-0.0322213
-0.027734
-0.0239378
-0.0207197
-0.017937
-0.015556
-0.352442
-0.309059
-0.269456
-0.239028
-0.219451
-0.197015
-0.183014
-0.164635
-0.149253
-0.132834
-0.117813
-0.103456
-0.0904138
-0.0785548
-0.0680041
-0.0586775
-0.0505353
-0.0434767
-0.0374059
-0.0322177
-0.0277898
-0.024027
-0.0208173
-0.018034
-0.0156498
-0.351395
-0.312584
-0.268555
-0.237422
-0.217048
-0.193742
-0.179505
-0.161028
-0.145889
-0.129802
-0.11522
-0.1013
-0.0886873
-0.0772132
-0.0670016
-0.0579595
-0.0500503
-0.0431742
-0.0372413
-0.0321502
-0.0277857
-0.0240614
-0.0208663
-0.0180897
-0.0157073
-0.350044
-0.315936
-0.26759
-0.235648
-0.214591
-0.190475
-0.176051
-0.157497
-0.142598
-0.126827
-0.112663
-0.0991568
-0.0869537
-0.0758467
-0.0659601
-0.0571919
-0.0495086
-0.042811
-0.0370146
-0.0320218
-0.0277243
-0.0240432
-0.0208685
-0.0181051
-0.0157291
-0.34843
-0.318942
-0.266571
-0.233707
-0.212082
-0.187211
-0.172646
-0.154032
-0.139371
-0.123902
-0.110138
-0.0970247
-0.0852119
-0.0744557
-0.0648811
-0.0563771
-0.0489129
-0.04239
-0.0367292
-0.0318357
-0.0276085
-0.0239746
-0.0208256
-0.0180814
-0.0157157
-0.346607
-0.321443
-0.265501
-0.2316
-0.209522
-0.183947
-0.169282
-0.150625
-0.136201
-0.121021
-0.107639
-0.0949008
-0.0834612
-0.0730407
-0.0637661
-0.055517
-0.0482659
-0.0419141
-0.0363878
-0.0315947
-0.0274407
-0.0238577
-0.0207391
-0.0180195
-0.0156677
-0.344643
-0.323304
-0.26438
-0.229328
-0.20691
-0.180681
-0.165952
-0.147269
-0.13308
-0.118179
-0.105164
-0.092783
-0.0817008
-0.0716021
-0.0626164
-0.0546138
-0.04757
-0.0413862
-0.0359932
-0.0313014
-0.0272233
-0.0236945
-0.0206109
-0.0179205
-0.0155858
-0.342621
-0.324428
-0.263204
-0.226895
-0.204246
-0.177409
-0.16265
-0.143956
-0.130002
-0.11537
-0.102708
-0.0906691
-0.0799299
-0.0701403
-0.0614333
-0.0536694
-0.0468275
-0.0408087
-0.0355481
-0.0309583
-0.0269584
-0.0234868
-0.0204423
-0.0177855
-0.0154707
-0.340633
-0.324765
-0.261966
-0.224308
-0.201529
-0.174129
-0.15937
-0.14068
-0.126961
-0.11259
-0.100268
-0.0885571
-0.0781478
-0.0686557
-0.0602179
-0.0526855
-0.0460407
-0.040184
-0.0350549
-0.0305679
-0.0266483
-0.0232364
-0.0202349
-0.0176155
-0.0153231
-0.338778
-0.324309
-0.260659
-0.221573
-0.19876
-0.170838
-0.156107
-0.137435
-0.12395
-0.109833
-0.0978401
-0.0864454
-0.0763539
-0.0671486
-0.0589714
-0.0516639
-0.0452115
-0.0395145
-0.0345158
-0.0301322
-0.0262947
-0.0229451
-0.0199901
-0.0174115
-0.0151439
-0.337158
-0.323097
-0.259278
-0.218698
-0.195937
-0.167533
-0.152856
-0.134215
-0.120966
-0.107096
-0.0954225
-0.0843322
-0.0745477
-0.0656194
-0.0576949
-0.0506061
-0.044342
-0.0388021
-0.033933
-0.0296535
-0.0258998
-0.0226146
-0.0197095
-0.0171746
-0.014934
-0.335865
-0.3212
-0.257817
-0.215692
-0.19306
-0.164213
-0.149612
-0.131014
-0.118002
-0.104375
-0.093012
-0.082216
-0.0727286
-0.0640684
-0.0563893
-0.0495136
-0.043434
-0.0380489
-0.0333086
-0.0291336
-0.0254652
-0.0222464
-0.0193943
-0.0169058
-0.0146944
-0.334984
-0.318708
-0.256272
-0.212563
-0.190127
-0.160874
-0.14637
-0.127829
-0.115055
-0.101667
-0.0906063
-0.0800954
-0.0708963
-0.0624961
-0.0550556
-0.0483878
-0.0424891
-0.0372567
-0.0326445
-0.0285745
-0.0249926
-0.0218421
-0.0190459
-0.016606
-0.0144259
-0.334582
-0.315725
-0.254641
-0.20932
-0.187137
-0.157514
-0.143128
-0.124655
-0.11212
-0.098968
-0.088203
-0.0779693
-0.0690502
-0.0609026
-0.0536948
-0.0472301
-0.041509
-0.0364275
-0.0319426
-0.027978
-0.0244837
-0.0214032
-0.0186654
-0.0162764
-0.0141296
-0.334707
-0.312354
-0.252922
-0.205971
-0.184091
-0.154131
-0.13988
-0.121488
-0.109194
-0.0962753
-0.0858002
-0.0758363
-0.0671901
-0.0592884
-0.0523077
-0.0460417
-0.0404953
-0.0355627
-0.0312045
-0.0273456
-0.02394
-0.0209311
-0.0182543
-0.0159177
-0.0138062
-0.335387
-0.308688
-0.251113
-0.202524
-0.180986
-0.150723
-0.136624
-0.118324
-0.106274
-0.0935863
-0.0833958
-0.0736955
-0.0653156
-0.0576538
-0.0508951
-0.044824
-0.0394494
-0.0346642
-0.0304319
-0.0266791
-0.023363
-0.0204272
-0.0178135
-0.0155311
-0.0134569
-0.336633
-0.304812
-0.249212
-0.198985
-0.177821
-0.147288
-0.133356
-0.11516
-0.103356
-0.0908986
-0.0809882
-0.0715459
-0.0634264
-0.0559992
-0.0494579
-0.0435779
-0.0383727
-0.0337332
-0.0296264
-0.02598
-0.0227541
-0.0198928
-0.0173442
-0.0151173
-0.0130825
-0.338436
-0.30079
-0.247217
-0.195361
-0.174597
-0.143823
-0.130074
-0.111992
-0.100437
-0.0882097
-0.0785757
-0.0693866
-0.0615224
-0.0543247
-0.0479968
-0.0423047
-0.0372665
-0.0327714
-0.0287894
-0.0252496
-0.0221148
-0.0193293
-0.0168476
-0.0146774
-0.0126839
-0.340771
-0.296675
-0.245127
-0.191656
-0.171311
-0.140327
-0.126773
-0.108819
-0.0975152
-0.0855177
-0.076157
-0.0672169
-0.0596033
-0.0526309
-0.0465125
-0.0410053
-0.0361321
-0.03178
-0.0279225
-0.0244894
-0.0214462
-0.0187377
-0.0163246
-0.0142122
-0.0122619
-0.343603
-0.292504
-0.242938
-0.187874
-0.167961
-0.136798
-0.123453
-0.105636
-0.0945877
-0.0828206
-0.0737308
-0.0650361
-0.0576691
-0.0509181
-0.0450059
-0.0396809
-0.0349706
-0.0307605
-0.0270269
-0.0237007
-0.0207497
-0.0181194
-0.0157763
-0.0137226
-0.0118175
-0.346883
-0.288301
-0.240646
-0.184017
-0.164548
-0.133233
-0.120109
-0.102442
-0.0916524
-0.0801168
-0.0712958
-0.0628437
-0.0557196
-0.0491866
-0.0434775
-0.0383323
-0.0337833
-0.0297139
-0.0261039
-0.0228848
-0.0200266
-0.0174754
-0.0152036
-0.0132095
-0.0113514
-0.350557
-0.284081
-0.238247
-0.180087
-0.161068
-0.129632
-0.116741
-0.0992342
-0.0887073
-0.0774047
-0.068851
-0.060639
-0.0537548
-0.0474368
-0.0419282
-0.0369606
-0.0325713
-0.0286417
-0.0251548
-0.0220429
-0.0192778
-0.0168069
-0.0146077
-0.012674
-0.0108646
-0.354561
-0.279848
-0.235735
-0.176084
-0.157521
-0.125991
-0.113346
-0.0960108
-0.0857504
-0.0746829
-0.0663956
-0.0584217
-0.0517747
-0.045669
-0.0403585
-0.0355666
-0.0313356
-0.0275449
-0.0241809
-0.0211762
-0.0185047
-0.0161148
-0.0139892
-0.0121169
-0.0103582
-0.358829
-0.275604
-0.233105
-0.17201
-0.153905
-0.12231
-0.109921
-0.0927697
-0.0827803
-0.0719501
-0.0639287
-0.0561914
-0.0497793
-0.0438838
-0.0387693
-0.0341513
-0.0300772
-0.0264246
-0.0231832
-0.0202859
-0.0177083
-0.0154003
-0.0133491
-0.011539
-0.0098335
-0.36329
-0.271341
-0.230349
-0.167863
-0.150217
-0.118586
-0.106466
-0.0895093
-0.0797955
-0.069205
-0.0614496
-0.0539477
-0.0477688
-0.0420814
-0.0371611
-0.0327155
-0.0287972
-0.025282
-0.0221629
-0.0193731
-0.0168898
-0.0146642
-0.012688
-0.0109411
-0.00929133
-0.367874
-0.267052
-0.227461
-0.163641
-0.146457
-0.114818
-0.102979
-0.0862279
-0.0767948
-0.0664467
-0.0589579
-0.0516907
-0.0457432
-0.0402624
-0.0355346
-0.0312602
-0.0274965
-0.0241181
-0.0211211
-0.0184388
-0.0160501
-0.0139076
-0.0120069
-0.0103237
-0.00873104
-0.372507
-0.262722
-0.224433
-0.159343
-0.142623
-0.111003
-0.0994576
-0.0829237
-0.0737773
-0.0636743
-0.0564529
-0.0494201
-0.0437027
-0.0384272
-0.0338907
-0.0297864
-0.0261759
-0.0229339
-0.0200589
-0.0174842
-0.0151902
-0.0131312
-0.0113073
-0.0096879
-0.00814927
-0.377115
-0.258338
-0.221257
-0.154966
-0.138713
-0.107141
-0.0959017
-0.0795951
-0.0707421
-0.0608876
-0.053934
-0.047136
-0.0416474
-0.0365762
-0.0322299
-0.0282949
-0.0248364
-0.0217303
-0.0189774
-0.0165102
-0.0143107
-0.0123358
-0.0105907
-0.00903618
-0.00754076
-0.381627
-0.253883
-0.217925
-0.150508
-0.134725
-0.10323
-0.0923106
-0.0762406
-0.0676878
-0.0580864
-0.0514008
-0.0448381
-0.039578
-0.0347099
-0.030553
-0.0267863
-0.0234793
-0.0205086
-0.0178776
-0.0155176
-0.0134127
-0.011522
-0.00985819
-0.00837062
-0.00690383
-0.385972
-0.249341
-0.21443
-0.145965
-0.130658
-0.0992665
-0.0886835
-0.0728612
-0.0646118
-0.0552692
-0.0488542
-0.0425252
-0.0374959
-0.032828
-0.0288606
-0.0252598
-0.0221065
-0.01927
-0.0167605
-0.0145075
-0.0124973
-0.0106917
-0.00911001
-0.00768789
-0.00624999
-0.390082
-0.244694
-0.210763
-0.141334
-0.126511
-0.0952494
-0.0850185
-0.0694589
-0.0615135
-0.0524315
-0.0462981
-0.0401949
-0.0354031
-0.0309304
-0.0271532
-0.0237164
-0.0207192
-0.0180157
-0.0156269
-0.013481
-0.0115655
-0.00984793
-0.00834713
-0.00697718
-0.00560079
-0.39389
-0.239925
-0.206916
-0.136612
-0.122283
-0.0911775
-0.0813126
-0.0660304
-0.058401
-0.0495655
-0.0437379
-0.0378461
-0.0332989
-0.029019
-0.025431
-0.0221602
-0.0193156
-0.0167463
-0.0144778
-0.0124389
-0.0106187
-0.00899037
-0.00756758
-0.00624805
-0.00494859
-0.397334
-0.235015
-0.202883
-0.131794
-0.117973
-0.0870514
-0.0775664
-0.0625559
-0.0552942
-0.0466673
-0.0411709
-0.0354857
-0.0311746
-0.0270996
-0.0236946
-0.0205918
-0.0178965
-0.0154623
-0.0133141
-0.0113822
-0.00965804
-0.00811884
-0.00677183
-0.00550621
-0.00428694
-0.400354
-0.229947
-0.198657
-0.126875
-0.113581
-0.0828686
-0.0737966
-0.0590027
-0.0522059
-0.0437528
-0.0385728
-0.0331272
-0.0290342
-0.0251685
-0.0219458
-0.0190103
-0.016464
-0.0141646
-0.0121369
-0.0103119
-0.0086842
-0.0072337
-0.00596143
-0.00475368
-0.00361297
-0.402894
-0.224705
-0.194231
-0.121852
-0.109102
-0.0786124
-0.0700385
-0.0553653
-0.0490994
-0.0408515
-0.0359451
-0.0307605
-0.0268816
-0.0232252
-0.0201854
-0.0174165
-0.0150193
-0.0128542
-0.0109469
-0.00922896
-0.00769795
-0.00633572
-0.00513806
-0.00399073
-0.00292636
-0.404901
-0.219272
-0.1896
-0.116724
-0.104539
-0.0742482
-0.0663073
-0.0517287
-0.0459111
-0.0379539
-0.0332979
-0.0283818
-0.0247187
-0.02127
-0.0184143
-0.0158111
-0.0135634
-0.0115321
-0.0097452
-0.00813424
-0.00670005
-0.00542584
-0.00430299
-0.00321731
-0.00222781
-0.406328
-0.213632
-0.18476
-0.111484
-0.0999213
-0.0697569
-0.0625204
-0.048137
-0.0426688
-0.035048
-0.0306371
-0.0259899
-0.0225462
-0.0193039
-0.016633
-0.0141951
-0.0120969
-0.0101993
-0.00853263
-0.00702867
-0.00569134
-0.00450506
-0.00345719
-0.00243358
-0.00151841
-0.40713
-0.207772
-0.179705
-0.106115
-0.0952963
-0.0652037
-0.0586149
-0.0445587
-0.0393914
-0.0321273
-0.0279652
-0.0235851
-0.0203645
-0.0173278
-0.0148422
-0.0125696
-0.0106208
-0.00885664
-0.00731013
-0.00591314
-0.0046727
-0.00357433
-0.0026014
-0.00163994
-0.000799171
-0.407268
-0.201676
-0.174428
-0.100579
-0.0906688
-0.0606141
-0.0546075
-0.0409723
-0.0360893
-0.0291894
-0.0252832
-0.0211686
-0.0181741
-0.0153428
-0.0130427
-0.0109353
-0.00913587
-0.00750508
-0.00607862
-0.00478854
-0.00364502
-0.00263453
-0.00173634
-0.000837017
-7.10403e-05
-0.406707
-0.19533
-0.168931
-0.0948532
-0.0859151
-0.0560871
-0.0505268
-0.0373656
-0.0327675
-0.0262339
-0.0225916
-0.0187413
-0.0159753
-0.0133497
-0.0112353
-0.00929326
-0.00764307
-0.00614554
-0.00483899
-0.00365575
-0.00260919
-0.00168652
-0.000862726
-2.55158e-05
0.000665146
-0.405415
-0.188727
-0.163237
-0.0890073
-0.0810106
-0.0515589
-0.0463898
-0.0337332
-0.0294285
-0.0232614
-0.0198905
-0.0163044
-0.0137688
-0.0113493
-0.00942089
-0.00764426
-0.0061433
-0.00477894
-0.00359216
-0.00251569
-0.00156611
-0.00073112
1.87145e-05
0.000793791
0.00140862
-0.403366
-0.18186
-0.157386
-0.083069
-0.0759132
-0.0470042
-0.0422059
-0.0300727
-0.0260735
-0.0202729
-0.0171803
-0.0138589
-0.0115553
-0.00934264
-0.00760036
-0.00598926
-0.00463746
-0.00340619
-0.00233903
-0.00136925
-0.000516662
0.000230862
0.00090721
0.00162011
0.00215867
-0.400537
-0.174719
-0.151376
-0.0770026
-0.0706708
-0.0424094
-0.0379808
-0.0263839
-0.0227032
-0.0172699
-0.0144615
-0.011406
-0.00933572
-0.00733056
-0.00577463
-0.00432917
-0.00312647
-0.00202821
-0.00108052
-0.000217354
0.000538279
0.00119861
0.00180196
0.00245262
0.00291462
-0.396911
-0.167248
-0.145083
-0.0709301
-0.0653082
-0.0377681
-0.0337181
-0.022667
-0.0193184
-0.0142535
-0.0117347
-0.00894658
-0.00711088
-0.00531398
-0.00394462
-0.00266493
-0.00161127
-0.000645914
0.000182466
0.0009391
0.00159783
0.0021713
0.00270216
0.00329051
0.00367583
-0.392472
-0.159347
-0.13861
-0.0648238
-0.05984
-0.0330774
-0.0294203
-0.0189234
-0.0159196
-0.0112253
-0.00900067
-0.0064817
-0.00488173
-0.00329387
-0.00211128
-0.000997483
-9.27998e-05
0.000739762
0.00144901
0.0020992
0.00266113
0.00314812
0.00360696
0.00413294
0.00444168
-0.387213
-0.151006
-0.131991
-0.0586494
-0.0542747
-0.0283361
-0.0250894
-0.0151544
-0.0125075
-0.00818655
-0.00626032
-0.00401242
-0.00264927
-0.00127119
-0.000275596
0.0006722
0.001428
0.00212789
0.00271818
0.00326203
0.00372729
0.00412822
0.00451551
0.00497906
0.0052115
-0.381128
-0.142571
-0.124955
-0.0523894
-0.0486184
-0.0235443
-0.020727
-0.0113617
-0.00908312
-0.00513866
-0.00351466
-0.00153983
-0.000414529
0.000753035
0.00156144
0.00234315
0.00295016
0.00351752
0.00398905
0.00442667
0.00479543
0.00511077
0.00542694
0.00582797
0.00598454
-0.374217
-0.133946
-0.117589
-0.0460345
-0.0428761
-0.0187031
-0.0163349
-0.00754719
-0.00564746
-0.00208309
-0.000764804
0.000934939
0.00182141
0.00277777
0.00339883
0.00401437
0.00447273
0.00490773
0.00526071
0.00559222
0.00586468
0.0060949
0.00634033
0.00667875
0.00675995
-0.366486
-0.125071
-0.109942
-0.0395804
-0.0370521
-0.013814
-0.0119147
-0.0037128
-0.00220174
0.000978695
0.00198805
0.00341071
0.00405744
0.00480195
0.00523552
0.00568486
0.00599473
0.00629756
0.00653221
0.00675774
0.00693414
0.00707974
0.00725477
0.00753043
0.0075369
-0.357969
-0.115898
-0.102038
-0.033026
-0.0311506
-0.00887902
-0.00746832
0.000139422
0.00125268
0.00404519
0.00474261
0.00588627
0.00629239
0.00682447
0.00707046
0.00735361
0.00751518
0.00768606
0.00780262
0.00792233
0.00800293
0.00806441
0.00816928
0.00838197
0.00831467
-0.348729
-0.106365
-0.0938935
-0.026372
-0.0251755
-0.00390075
-0.00299772
0.00400732
0.0047143
0.00711482
0.00749755
0.00836034
0.0085251
0.00884421
0.0089026
0.00901959
0.0090331
0.00907227
0.009071
0.00908505
0.00907015
0.00904801
0.00908286
0.00923234
0.00909262
-0.338776
-0.0964763
-0.0855194
-0.0196211
-0.0191308
0.00111811
0.00149494
0.00788866
0.00818146
0.010186
0.0102514
0.0108316
0.0107543
0.01086
0.0107308
0.0106818
0.0105475
0.0104552
0.0103364
0.010245
0.0101349
0.0100297
0.00999456
0.0100805
0.00986973
-0.327911
-0.0864253
-0.076928
-0.0127764
-0.0130209
0.0061745
0.00600734
0.0117811
0.0116524
0.013257
0.0130028
0.0132988
0.0129788
0.0128707
0.012554
0.0123391
0.0120573
0.011834
0.0115979
0.0114012
0.0111963
0.0110085
0.0109034
0.0109252
0.0106443
-0.316138
-0.0762547
-0.0681306
-0.00584164
-0.00684994
0.0112652
0.010537
0.0156823
0.0151253
0.016326
0.0157501
0.0157604
0.0151973
0.0148752
0.0143711
0.0139905
0.0135617
0.0132076
0.0128546
0.0125528
0.0122535
0.0119836
0.0118085
0.0117652
0.0114143
-0.303573
-0.0658926
-0.0591379
0.00117903
-0.000622593
0.0163866
0.0150812
0.0195896
0.018598
0.0193913
0.0184917
0.018215
0.0174084
0.0168721
0.0161809
0.0156349
0.0150595
0.0145751
0.0141055
0.0136989
0.0133055
0.0129542
0.0127088
0.0125992
0.0121787
-0.290251
-0.0553232
-0.0499605
0.00828079
0.00565637
0.0215351
0.019637
0.0235006
0.0220686
0.0224511
0.021226
0.0206611
0.0196108
0.0188602
0.0179823
0.0172713
0.0165497
0.0159355
0.0153497
0.0148385
0.0143516
0.0139193
0.013603
0.0134257
0.012938
-0.276202
-0.0445454
-0.0406094
0.0154583
0.0119819
0.0267069
0.0242015
0.0274125
0.0255348
0.0255033
0.0239513
0.0230973
0.0218031
0.0208384
0.0197741
0.0188985
0.0180314
0.0172878
0.0165862
0.0159708
0.0153909
0.014878
0.0144899
0.014243
0.0136922
-0.261457
-0.0335634
-0.0310957
0.0227058
0.0183487
0.0318977
0.0287715
0.0313226
0.0289943
0.028546
0.0266658
0.0255219
0.023984
0.0228052
0.0215551
0.0205154
0.0195034
0.0186311
0.0178143
0.0170949
0.0164225
0.0158296
0.0153682
0.0150492
0.0144362
-0.246048
-0.0223849
-0.0214312
0.030017
0.0247512
0.0371034
0.0333436
0.0352279
0.0324448
0.0315771
0.0293678
0.0279334
0.0261519
0.0247594
0.0233242
0.0221211
0.0209649
0.0199645
0.0190328
0.01821
0.0174458
0.0167731
0.0162369
0.0158414
0.0151599
-0.230011
-0.0110198
-0.0116279
0.0373851
0.0311837
0.0423196
0.0379143
0.0391256
0.0358838
0.0345945
0.0320553
0.0303301
0.0283055
0.0266997
0.0250801
0.0237143
0.0224148
0.021287
0.0202411
0.0193153
0.0184599