/*--------------------------------*- C++ -*----------------------------------*\
  =========                 |
  \\      /  F ield         | OpenFOAM: The Open Source CFD Toolbox
   \\    /   O peration     | Website:  https://openfoam.org
    \\  /    A nd           | Version:  7
     \\/     M anipulation  |
\*---------------------------------------------------------------------------*/
FoamFile
{
    version     2.0;
    format      ascii;
    class       volScalarField;
    location    "3";
    object      T;
}
// * * * * * * * * * * * * * * * * * * * * * * * * * * * * * * * * * * * * * //

dimensions      [0 0 0 1 0 0 0];

internalField   nonuniform List<scalar> 
2413
(
1.11179
1.11154
1.11127
1.11092
1.11035
1.10955
1.10915
1.10892
1.10878
1.10864
1.10838
1.10801
1.1074
1.10682
1.10654
1.10634
1.10629
1.10636
1.10625
1.10602
1.1057
1.10519
1.10464
1.10434
1.10416
1.10411
1.10411
1.1039
1.10358
1.10313
1.10241
1.10186
1.10159
1.10135
1.10111
1.10084
1.10052
1.10002
1.09922
1.09862
1.09834
1.09819
1.09827
1.09836
1.09814
1.09785
1.09738
1.09679
1.09646
1.09624
1.09611
1.09613
1.0961
1.09589
1.09554
1.09498
1.09446
1.0942
1.09402
1.09381
1.09355
1.09327
1.0929
1.09228
1.09131
1.09074
1.09049
1.09036
1.09036
1.09017
1.08978
1.08924
1.08886
1.08866
1.08857
1.0885
1.08826
1.08796
1.08758
1.08726
1.08704
1.08685
1.08669
1.08657
1.0865
1.08636
1.08611
1.0858
1.08544
1.08486
1.08373
1.08276
1.08244
1.08221
1.08204
1.08198
1.08192
1.08175
1.08152
1.08121
1.08074
1.07992
1.07913
1.0788
1.07859
1.07849
1.07884
1.07932
1.07919
1.07896
1.07868
1.07821
1.07775
1.07751
1.07736
1.07714
1.11727
1.11694
1.11674
1.11668
1.11673
1.11657
1.11631
1.11593
1.11544
1.11517
1.11502
1.11481
1.11454
1.11433
1.11416
1.11399
1.11376
1.11351
1.11324
1.11292
1.11245
1.11165
1.11102
1.11075
1.11053
1.11031
1.11002
1.10962
1.10896
1.10833
1.10803
1.10782
1.10771
1.10776
1.10772
1.10751
1.10723
1.10679
1.10626
1.10592
1.10569
1.10557
1.10567
1.10573
1.10551
1.10522
1.10481
1.10413
1.10345
1.10312
1.10288
1.10263
1.10236
1.10199
1.10134
1.10043
1.09994
1.09971
1.09962
1.09973
1.09964
1.09939
1.09907
1.09854
1.09793
1.09762
1.09741
1.09729
1.09748
1.09758
1.09736
1.09699
1.0964
1.09595
1.09571
1.09554
1.09535
1.09512
1.09485
1.09451
1.0939
1.09283
1.09215
1.09189
1.09178
1.09178
1.09157
1.09123
1.09074
1.09032
1.09008
1.08988
1.08963
1.08935
1.08904
1.08875
1.08849
1.08824
1.08804
1.08793
1.08797
1.08805
1.08789
1.08764
1.08734
1.08693
1.08612
1.08487
1.08429
1.08406
1.08387
1.0838
1.08382
1.08377
1.08359
1.08333
1.08297
1.08242
1.0814
1.08044
1.08011
1.07989
1.07972
1.07965
1.08006
1.08053
1.08037
1.08002
1.0796
1.07937
1.07919
1.07896
1.11939
1.11868
1.11837
1.11816
1.11809
1.11811
1.11794
1.11767
1.11734
1.11686
1.11635
1.11599
1.11575
1.11563
1.11568
1.11581
1.1157
1.11548
1.11524
1.11496
1.11458
1.1139
1.11315
1.11282
1.11257
1.11229
1.11193
1.11135
1.11053
1.11007
1.10983
1.10965
1.10962
1.10961
1.10942
1.10916
1.10884
1.10829
1.10761
1.1072
1.10694
1.10678
1.10683
1.10725
1.10729
1.10706
1.10677
1.10634
1.10559
1.10502
1.10476
1.10453
1.10428
1.10395
1.1034
1.10246
1.10181
1.10155
1.10139
1.10141
1.10141
1.1012
1.10094
1.10061
1.10002
1.09926
1.09888
1.09865
1.09855
1.09878
1.09882
1.09856
1.09814
1.09759
1.09728
1.09706
1.09694
1.09682
1.09661
1.09634
1.09598
1.09531
1.09421
1.0936
1.09337
1.09329
1.09334
1.09317
1.0929
1.09252
1.09205
1.0917
1.09145
1.09119
1.09091
1.09059
1.0902
1.08978
1.08944
1.08919
1.08904
1.08909
1.08932
1.08921
1.08897
1.08869
1.08829
1.08747
1.0862
1.08558
1.08534
1.08516
1.08514
1.08545
1.08554
1.08535
1.08508
1.08471
1.08406
1.08293
1.08222
1.08196
1.08174
1.08158
1.08162
1.08163
1.08137
1.08104
1.08083
1.08076
1.08076
1.08063
1.12171
1.12088
1.1203
1.12002
1.11982
1.11975
1.11976
1.1196
1.11934
1.11901
1.11856
1.1179
1.11729
1.11696
1.11673
1.11661
1.11679
1.11702
1.11685
1.11661
1.11626
1.11565
1.11513
1.11488
1.11466
1.11438
1.11398
1.11329
1.1124
1.112
1.11176
1.11161
1.11164
1.11162
1.11142
1.11117
1.11087
1.11046
1.10977
1.10902
1.10862
1.10837
1.10818
1.10815
1.10843
1.10847
1.10824
1.10794
1.10742
1.10688
1.10662
1.1064
1.10615
1.10581
1.10521
1.10421
1.10358
1.10332
1.10314
1.10312
1.10332
1.10325
1.10302
1.10276
1.10238
1.10163
1.10082
1.10048
1.10028
1.10028
1.10041
1.10024
1.09995
1.09949
1.09889
1.09854
1.09831
1.09819
1.09813
1.09794
1.09766
1.09727
1.09648
1.09544
1.09502
1.09482
1.09479
1.09491
1.09473
1.09447
1.0941
1.09377
1.09353
1.0933
1.09305
1.09277
1.0924
1.09186
1.09126
1.09088
1.09065
1.09049
1.09052
1.09074
1.09065
1.09043
1.09017
1.0898
1.08904
1.08768
1.08683
1.08654
1.08633
1.08626
1.08665
1.08696
1.08676
1.08649
1.08606
1.0852
1.0845
1.08424
1.08403
1.08388
1.0838
1.08361
1.08332
1.08289
1.08238
1.08208
1.0819
1.08186
1.12372
1.12303
1.12228
1.12193
1.12169
1.12152
1.12149
1.12159
1.1215
1.12127
1.12096
1.12049
1.11969
1.11896
1.11865
1.11843
1.11836
1.1185
1.11841
1.11816
1.11781
1.11716
1.11656
1.11631
1.11616
1.11598
1.11567
1.11527
1.1147
1.11399
1.11356
1.1133
1.11309
1.113
1.11311
1.11308
1.11287
1.11259
1.11218
1.1115
1.11088
1.1106
1.11038
1.11029
1.11021
1.10996
1.10962
1.10916
1.10882
1.1086
1.10843
1.10826
1.10801
1.10767
1.1071
1.10606
1.10518
1.10486
1.10464
1.10453
1.1048
1.10515
1.10502
1.10479
1.10449
1.10395
1.10303
1.10249
1.10225
1.10211
1.10219
1.10217
1.10194
1.10163
1.10113
1.10039
1.09995
1.09971
1.09957
1.09948
1.09928
1.09899
1.09852
1.09761
1.09688
1.09661
1.09642
1.09632
1.09618
1.09598
1.09579
1.09562
1.09545
1.09527
1.09508
1.09485
1.09455
1.09415
1.09353
1.0928
1.09242
1.0922
1.09206
1.09213
1.09232
1.09221
1.09199
1.09172
1.09131
1.0904
1.08893
1.08823
1.08798
1.08784
1.08797
1.08842
1.08834
1.08809
1.08777
1.08713
1.08642
1.08611
1.08589
1.08577
1.08585
1.08582
1.08557
1.08528
1.08489
1.0842
1.08352
1.08325
1.12546
1.12496
1.12421
1.12365
1.12335
1.1231
1.12296
1.12307
1.12343
1.12336
1.12312
1.1228
1.12225
1.12141
1.12088
1.12061
1.12042
1.12039
1.12035
1.12013
1.11985
1.11943
1.11864
1.1178
1.11746
1.11733
1.11728
1.11705
1.11674
1.11633
1.11569
1.11509
1.11479
1.11455
1.11439
1.11448
1.11453
1.11431
1.11393
1.11342
1.11312
1.11292
1.1128
1.11264
1.11239
1.11208
1.11159
1.11092
1.11058
1.11038
1.11026
1.11014
1.10993
1.10963
1.10923
1.10857
1.10752
1.10675
1.10645
1.10622
1.10608
1.10623
1.10657
1.10646
1.10621
1.10584
1.10515
1.10444
1.10412
1.10392
1.10386
1.10403
1.10394
1.10369
1.10337
1.10283
1.10199
1.10149
1.10125
1.10114
1.10112
1.1009
1.10045
1.09964
1.09912
1.09886
1.09862
1.09837
1.09811
1.09779
1.09738
1.09709
1.09689
1.09674
1.09671
1.09674
1.09663
1.09636
1.096
1.09553
1.09483
1.09409
1.09377
1.09355
1.09345
1.0936
1.0936
1.0934
1.09309
1.09258
1.09151
1.09034
1.08997
1.08977
1.08969
1.08996
1.09005
1.08985
1.08959
1.08919
1.08849
1.0879
1.08761
1.08741
1.08737
1.08768
1.08774
1.08754
1.0873
1.08697
1.08627
1.08519
1.12735
1.12702
1.12663
1.12619
1.12568
1.12517
1.1248
1.12452
1.12432
1.12436
1.1246
1.12444
1.12415
1.12372
1.12311
1.12271
1.12246
1.1223
1.12227
1.12215
1.12191
1.12157
1.12094
1.11995
1.11943
1.11922
1.11908
1.11885
1.11855
1.11809
1.11755
1.11723
1.11699
1.11679
1.11668
1.11656
1.11627
1.11581
1.11522
1.11489
1.11467
1.11454
1.11462
1.11479
1.11467
1.11441
1.11408
1.11362
1.11277
1.11176
1.11135
1.11116
1.11119
1.11121
1.111
1.11068
1.11025
1.10958
1.10874
1.10828
1.10803
1.10786
1.10789
1.10807
1.10793
1.10765
1.10723
1.10658
1.10604
1.10575
1.10559
1.10566
1.10581
1.10563
1.10539
1.1051
1.10471
1.10427
1.10384
1.10326
1.10239
1.10165
1.1013
1.10107
1.10098
1.101
1.10078
1.10053
1.10029
1.09999
1.09944
1.09879
1.09846
1.09822
1.09804
1.09805
1.0985
1.09871
1.09848
1.0982
1.09786
1.09728
1.09617
1.0952
1.09486
1.09461
1.09455
1.09475
1.09464
1.09431
1.09384
1.09298
1.09218
1.0919
1.0917
1.09157
1.0916
1.09155
1.09132
1.09098
1.09044
1.08971
1.08929
1.08907
1.08893
1.08905
1.08957
1.0897
1.08958
1.08938
1.08901
1.08826
1.12908
1.12912
1.12893
1.1287
1.12842
1.12804
1.12743
1.12664
1.12621
1.12597
1.12585
1.12603
1.12602
1.12578
1.12551
1.12514
1.12452
1.12402
1.12378
1.1237
1.12357
1.1233
1.12293
1.12249
1.12206
1.12165
1.12111
1.12029
1.11964
1.11934
1.11913
1.11901
1.11909
1.11924
1.11912
1.11885
1.11847
1.11783
1.11707
1.11669
1.11643
1.11622
1.11615
1.1165
1.11699
1.11689
1.11662
1.11626
1.11553
1.11405
1.11295
1.1126
1.11236
1.11222
1.11234
1.11247
1.11226
1.11196
1.11158
1.11098
1.11023
1.10982
1.10958
1.10944
1.1095
1.10943
1.10918
1.10886
1.10844
1.10788
1.10741
1.10715
1.10697
1.10694
1.1071
1.10703
1.10692
1.10677
1.10649
1.10594
1.10473
1.10353
1.10311
1.10281
1.10259
1.10265
1.10279
1.10256
1.10231
1.10208
1.10174
1.10104
1.10021
1.09974
1.09944
1.09929
1.09936
1.1001
1.10066
1.1005
1.10029
1.1
1.09931
1.09777
1.0964
1.09594
1.0957
1.09571
1.09612
1.09611
1.0959
1.09561
1.09499
1.09425
1.09392
1.09368
1.09347
1.09339
1.09326
1.09298
1.09263
1.09213
1.09136
1.09076
1.09051
1.09032
1.09021
1.09048
1.09125
1.09137
1.0911
1.09068
1.13073
1.13069
1.13092
1.13093
1.13078
1.13054
1.13015
1.12942
1.1284
1.12783
1.12754
1.12734
1.1274
1.12768
1.12758
1.12737
1.12703
1.12633
1.12551
1.12515
1.12495
1.12491
1.12489
1.12469
1.12441
1.12407
1.12356
1.12255
1.12163
1.12131
1.1211
1.12098
1.12106
1.12129
1.12116
1.12088
1.12047
1.11984
1.11925
1.11894
1.11867
1.11842
1.11824
1.11819
1.11825
1.11814
1.11788
1.11754
1.11706
1.11617
1.11511
1.11461
1.11434
1.11409
1.11388
1.1138
1.11402
1.11408
1.11386
1.11356
1.11317
1.11263
1.11186
1.11131
1.11099
1.11074
1.11071
1.11077
1.11053
1.1102
1.10988
1.10947
1.10891
1.10844
1.10823
1.10812
1.10814
1.1083
1.10823
1.1079
1.10705
1.10595
1.10542
1.10506
1.10472
1.10453
1.10465
1.10464
1.10441
1.10421
1.10399
1.10364
1.10295
1.10194
1.10134
1.10112
1.101
1.10107
1.10173
1.10218
1.10203
1.10179
1.10141
1.10056
1.09882
1.09752
1.09714
1.09695
1.09697
1.09753
1.09775
1.09757
1.09735
1.09691
1.0962
1.09575
1.09548
1.09533
1.09532
1.09512
1.09486
1.09457
1.09416
1.09337
1.09245
1.09203
1.0918
1.09166
1.09181
1.09253
1.09269
1.09239
1.133
1.1329
1.13295
1.13317
1.13313
1.13298
1.13268
1.13207
1.13096
1.13021
1.12986
1.12961
1.12951
1.12932
1.12911
1.12882
1.12833
1.1276
1.127
1.1267
1.12646
1.12632
1.12638
1.12639
1.12619
1.1259
1.12552
1.1249
1.12419
1.12377
1.12351
1.12336
1.12331
1.12334
1.12324
1.12296
1.12262
1.12223
1.12184
1.12153
1.12127
1.121
1.12058
1.11981
1.11919
1.11894
1.11874
1.11848
1.11818
1.11787
1.11755
1.11723
1.11685
1.11635
1.1159
1.11562
1.11544
1.11542
1.11578
1.11583
1.11558
1.11526
1.11483
1.11421
1.11338
1.11274
1.11238
1.11215
1.11218
1.11227
1.11205
1.1118
1.11149
1.11109
1.11059
1.10994
1.10933
1.10894
1.10866
1.10847
1.10829
1.10806
1.10776
1.1074
1.10702
1.10669
1.10645
1.10636
1.10632
1.10622
1.10609
1.10591
1.10558
1.10497
1.10393
1.10318
1.10295
1.10279
1.10279
1.10321
1.10343
1.10329
1.103
1.10254
1.10172
1.1003
1.09922
1.09889
1.0987
1.09864
1.09904
1.09926
1.09908
1.09881
1.09834
1.09776
1.0974
1.09719
1.09712
1.09716
1.097
1.09677
1.09652
1.09614
1.09532
1.09415
1.09356
1.0933
1.09319
1.09343
1.09402
1.09399
1.13461
1.13449
1.13454
1.13513
1.13542
1.13526
1.13495
1.13431
1.13351
1.13302
1.13266
1.13235
1.13203
1.13157
1.13082
1.13029
1.12995
1.1296
1.12925
1.12886
1.12836
1.12793
1.12764
1.12737
1.12717
1.12716
1.12719
1.12706
1.12686
1.12657
1.12609
1.12555
1.12528
1.1251
1.12501
1.12503
1.12495
1.12468
1.12437
1.12404
1.1236
1.12281
1.12167
1.12103
1.12077
1.12055
1.1204
1.1203
1.12013
1.11991
1.11967
1.11941
1.11904
1.11859
1.11821
1.11783
1.11747
1.11719
1.11696
1.11681
1.11697
1.11721
1.117
1.11662
1.11618
1.11573
1.11527
1.11467
1.11379
1.11322
1.11299
1.11294
1.11297
1.11286
1.11266
1.11231
1.11163
1.11074
1.1102
1.10992
1.10965
1.1094
1.10937
1.10964
1.10963
1.10927
1.10896
1.10867
1.10839
1.10816
1.10804
1.10795
1.10773
1.10736
1.10674
1.1057
1.10487
1.10458
1.10436
1.10416
1.10405
1.10428
1.1045
1.10427
1.10387
1.10338
1.10271
1.10172
1.10095
1.10068
1.10046
1.10029
1.10033
1.10058
1.10042
1.10008
1.09974
1.0995
1.0993
1.09918
1.09909
1.09892
1.09871
1.09843
1.09791
1.09689
1.09575
1.09522
1.09495
1.09475
1.09466
1.09492
1.1368
1.13657
1.13636
1.13618
1.13606
1.13608
1.13625
1.13621
1.13595
1.13562
1.13528
1.13485
1.13402
1.13281
1.13227
1.13204
1.13193
1.13174
1.13144
1.1311
1.13058
1.12985
1.12941
1.12914
1.12891
1.1288
1.1291
1.1297
1.1297
1.12946
1.12911
1.12841
1.12727
1.1267
1.12645
1.12631
1.12644
1.12644
1.12617
1.12578
1.1251
1.12383
1.12298
1.12271
1.1225
1.1225
1.12284
1.12288
1.12266
1.12241
1.12207
1.12136
1.12069
1.12044
1.12036
1.12024
1.11998
1.11965
1.11923
1.11881
1.11848
1.11817
1.11799
1.11816
1.11844
1.11825
1.11792
1.11753
1.11684
1.11547
1.11425
1.11391
1.11373
1.11371
1.11395
1.11389
1.11369
1.11336
1.11289
1.1123
1.11187
1.11156
1.11128
1.11118
1.11152
1.11187
1.11167
1.11141
1.11112
1.11052
1.10963
1.10925
1.10901
1.10873
1.10839
1.10799
1.10755
1.10702
1.1064
1.10595
1.10563
1.10536
1.10523
1.10544
1.10569
1.10549
1.10522
1.10486
1.10419
1.10307
1.10236
1.10209
1.10186
1.10172
1.10194
1.10253
1.1025
1.10227
1.10202
1.10166
1.10093
1.10032
1.10005
1.09978
1.09942
1.09896
1.09847
1.09799
1.09737
1.09676
1.09646
1.09622
1.13936
1.13907
1.13858
1.13809
1.13783
1.13765
1.13763
1.13799
1.13815
1.13792
1.13761
1.13713
1.13598
1.13436
1.13376
1.1335
1.13343
1.13361
1.13347
1.13317
1.13281
1.13219
1.13154
1.1312
1.13095
1.13079
1.13095
1.13184
1.13234
1.13215
1.13186
1.13126
1.12982
1.12842
1.12801
1.12778
1.12778
1.12801
1.12786
1.12752
1.12697
1.12597
1.1252
1.12491
1.12467
1.12456
1.12487
1.1252
1.12504
1.12478
1.1244
1.12355
1.1224
1.12194
1.12172
1.1217
1.12205
1.12203
1.12176
1.12142
1.12088
1.12023
1.11988
1.11967
1.11967
1.11982
1.11965
1.11938
1.11899
1.11806
1.11644
1.11562
1.11536
1.11517
1.11507
1.11532
1.11591
1.11589
1.11563
1.11531
1.1148
1.11408
1.11365
1.11338
1.11323
1.11345
1.1138
1.11365
1.11337
1.1129
1.1118
1.11042
1.10993
1.10973
1.10969
1.10981
1.10967
1.10942
1.10909
1.10855
1.1078
1.10737
1.10717
1.10707
1.10726
1.10745
1.10725
1.10699
1.10661
1.10581
1.10472
1.10422
1.10396
1.10379
1.10384
1.10449
1.10489
1.1047
1.10445
1.10406
1.10308
1.10158
1.10094
1.1007
1.10066
1.10081
1.10065
1.10037
1.10002
1.09943
1.09866
1.09827
1.14158
1.1413
1.14085
1.14012
1.13965
1.1394
1.13926
1.13946
1.14
1.13998
1.13973
1.13932
1.13835
1.13663
1.13576
1.13547
1.13527
1.13535
1.1357
1.1356
1.13532
1.13498
1.13443
1.1339
1.13361
1.13341
1.13338
1.13378
1.13398
1.13376
1.13341
1.13275
1.13125
1.12987
1.12946
1.1292
1.12909
1.12937
1.12971
1.12952
1.1292
1.12872
1.12794
1.12742
1.12716
1.12694
1.12693
1.1272
1.12716
1.12692
1.12657
1.12583
1.12457
1.12391
1.12367
1.1235
1.12359
1.1241
1.12417
1.12389
1.12351
1.12282
1.12195
1.12157
1.12138
1.12129
1.12109
1.12082
1.12047
1.11977
1.1186
1.11789
1.1176
1.11738
1.11722
1.11729
1.11797
1.11845
1.11827
1.118
1.11761
1.11681
1.11596
1.11564
1.11544
1.11545
1.11556
1.1154
1.11511
1.11463
1.11351
1.11217
1.11173
1.11151
1.11139
1.1116
1.11179
1.1116
1.11132
1.11084
1.11006
1.10959
1.10937
1.10922
1.1093
1.10947
1.10932
1.10907
1.10873
1.10804
1.10705
1.1066
1.10638
1.10623
1.10629
1.10685
1.10701
1.1068
1.10654
1.10607
1.10475
1.10318
1.1027
1.1025
1.10247
1.10277
1.10278
1.10253
1.10222
1.10165
1.10102
1.10073
1.14407
1.1438
1.14341
1.14264
1.14189
1.14158
1.14138
1.14139
1.14164
1.14155
1.1413
1.1409
1.14005
1.13868
1.13799
1.13769
1.13748
1.13749
1.13789
1.13793
1.13767
1.13732
1.13675
1.13625
1.13599
1.13581
1.13581
1.13594
1.13583
1.13558
1.13519
1.13434
1.13277
1.13187
1.13157
1.13135
1.13123
1.13152
1.13196
1.13183
1.13156
1.13116
1.13036
1.12964
1.12934
1.12913
1.12911
1.12918
1.12902
1.12874
1.1283
1.12743
1.1265
1.12614
1.12591
1.12575
1.12586
1.12637
1.12645
1.12619
1.12584
1.12511
1.12395
1.12345
1.12324
1.12309
1.12289
1.12262
1.12224
1.12155
1.1208
1.12044
1.1202
1.11999
1.1199
1.12019
1.12076
1.1207
1.12042
1.12003
1.11916
1.11815
1.11778
1.11759
1.11752
1.11757
1.11745
1.11721
1.11685
1.11613
1.11492
1.11429
1.11404
1.11384
1.11383
1.11414
1.11415
1.11391
1.1136
1.113
1.11221
1.11188
1.11168
1.1116
1.11172
1.11165
1.11141
1.11108
1.11049
1.10958
1.10907
1.10883
1.10868
1.10871
1.10908
1.10912
1.10891
1.10863
1.10812
1.10689
1.10555
1.10511
1.1049
1.10478
1.105
1.10529
1.10512
1.10485
1.10444
1.10379
1.1034
1.10318
1.14616
1.14578
1.1451
1.1444
1.14406
1.14384
1.14373
1.14383
1.1438
1.1436
1.14331
1.14277
1.14169
1.14086
1.14055
1.14033
1.14021
1.14041
1.14059
1.14037
1.14006
1.13951
1.1387
1.1383
1.13808
1.138
1.13799
1.13779
1.1375
1.13709
1.13633
1.13515
1.13447
1.13419
1.13397
1.13384
1.13402
1.13453
1.13453
1.13429
1.13395
1.13317
1.13218
1.13179
1.13157
1.13147
1.13153
1.13141
1.13116
1.13079
1.13006
1.1291
1.12869
1.12845
1.12829
1.12836
1.12875
1.12876
1.1285
1.12814
1.12736
1.12619
1.12568
1.12547
1.12537
1.12525
1.12502
1.12472
1.12423
1.12358
1.12322
1.12297
1.12277
1.12268
1.12296
1.12338
1.12326
1.12299
1.12259
1.1216
1.12039
1.11999
1.11979
1.11972
1.11979
1.11968
1.11943
1.11908
1.11841
1.11734
1.11679
1.11654
1.11637
1.11642
1.11673
1.11667
1.1164
1.11605
1.11538
1.11462
1.1143
1.11411
1.11403
1.11418
1.11417
1.11396
1.11368
1.11318
1.1122
1.11152
1.11126
1.11109
1.11111
1.11142
1.11139
1.11117
1.11089
1.11038
1.10915
1.10788
1.1075
1.1073
1.10723
1.10759
1.10792
1.10774
1.10747
1.10702
1.10629
1.10585
1.10564
1.1055
1.14832
1.14751
1.14685
1.14654
1.14634
1.14629
1.14632
1.14617
1.14591
1.14556
1.1449
1.14393
1.14337
1.14311
1.14293
1.14289
1.14313
1.14317
1.14293
1.14258
1.14191
1.14106
1.14068
1.14047
1.1404
1.14035
1.14013
1.13984
1.13943
1.13865
1.13759
1.1371
1.13685
1.13667
1.13663
1.13696
1.13722
1.13704
1.13676
1.13625
1.13521
1.13443
1.13415
1.13397
1.13397
1.13402
1.13385
1.13358
1.13315
1.13232
1.13153
1.1312
1.13098
1.13086
1.13104
1.13136
1.13124
1.13097
1.13055
1.12958
1.12845
1.12805
1.12785
1.12781
1.12783
1.12765
1.12739
1.12696
1.12627
1.12582
1.12556
1.12537
1.12533
1.12564
1.12579
1.12555
1.12523
1.12465
1.12345
1.12252
1.12222
1.12204
1.12204
1.12224
1.12215
1.12192
1.1216
1.12095
1.11988
1.11933
1.1191
1.11895
1.11906
1.11944
1.11937
1.1191
1.11873
1.11798
1.11705
1.11669
1.11649
1.11643
1.11663
1.1166
1.11638
1.11606
1.11545
1.11442
1.11386
1.11362
1.11347
1.11355
1.11381
1.11371
1.11348
1.11317
1.11256
1.11128
1.1103
1.11002
1.10984
1.10982
1.1103
1.11067
1.11049
1.11022
1.10974
1.10883
1.10824
1.10801
1.10787
1.10797
1.14989
1.14943
1.14917
1.149
1.14899
1.14895
1.14873
1.14844
1.148
1.14719
1.14636
1.14599
1.14576
1.14561
1.14564
1.14576
1.14561
1.14534
1.14487
1.14402
1.14332
1.14302
1.14285
1.14283
1.14274
1.1425
1.14218
1.1417
1.14085
1.14009
1.13975
1.13953
1.13938
1.13948
1.13986
1.13988
1.13964
1.13929
1.13851
1.13735
1.1368
1.13657
1.13645
1.13658
1.13664
1.13643
1.13614
1.13561
1.13463
1.13394
1.13366
1.13347
1.13345
1.13375
1.13381
1.13357
1.13324
1.13262
1.13148
1.13072
1.13045
1.13029
1.13038
1.13053
1.13035
1.13009
1.12965
1.12889
1.12837
1.12811
1.12793
1.12794
1.12822
1.12819
1.12793
1.12758
1.12684
1.12553
1.12478
1.12453
1.12438
1.12449
1.12478
1.12466
1.12441
1.12404
1.12326
1.12225
1.12184
1.12162
1.12151
1.12173
1.12208
1.12194
1.12165
1.12121
1.12029
1.11943
1.11912
1.11893
1.11891
1.11915
1.11911
1.11888
1.11855
1.11783
1.11672
1.11621
1.11599
1.11587
1.11603
1.1163
1.11616
1.11591
1.11558
1.11483
1.11351
1.11279
1.11255
1.1124
1.11251
1.11313
1.11334
1.11311
1.1128
1.11213
1.11104
1.11053
1.11031
1.11019
1.11036
1.11056
1.15199
1.15176
1.15162
1.15155
1.15136
1.15108
1.1507
1.15011
1.14932
1.1488
1.14852
1.14831
1.14823
1.1483
1.14824
1.14803
1.14771
1.14715
1.14629
1.14575
1.14548
1.14533
1.14532
1.14523
1.14498
1.14466
1.14414
1.14329
1.14267
1.14239
1.14218
1.14209
1.14227
1.14241
1.14221
1.14192
1.14141
1.14041
1.13955
1.13921
1.13901
1.13897
1.1392
1.13916
1.13892
1.13858
1.13789
1.13692
1.13643
1.13619
1.13603
1.13611
1.13641
)
;

boundaryField
{
    inlet
    {
        type            fixedValue;
        value           nonuniform 0();
    }
    outlet
    {
        type            inletOutlet;
        inletValue      nonuniform 0();
        value           nonuniform 0();
    }
    bottom
    {
        type            symmetryPlane;
    }
    top
    {
        type            symmetryPlane;
    }
    obstacle
    {
        type            zeroGradient;
    }
    front
    {
        type            empty;
    }
    back
    {
        type            empty;
    }
    procBoundary38to30
    {
        type            processor;
        value           nonuniform List<scalar> 
133
(
1.11002
1.10979
1.10952
1.10917
1.10858
1.10787
1.10754
1.10734
1.10724
1.1071
1.10683
1.10642
1.1058
1.10536
1.10512
1.10498
1.10498
1.10485
1.10459
1.10428
1.10381
1.10324
1.10289
1.10268
1.1026
1.10256
1.10233
1.102
1.10151
1.10082
1.1004
1.10016
1.09998
1.09977
1.09952
1.0992
1.09871
1.09797
1.09746
1.09719
1.09704
1.09713
1.09718
1.09695
1.09665
1.09618
1.09553
1.09516
1.09493
1.09478
1.09475
1.0946
1.09434
1.09397
1.09338
1.09288
1.09265
1.09251
1.09233
1.09207
1.09177
1.09137
1.09065
1.08979
1.08942
1.0892
1.08909
1.08913
1.089
1.08869
1.08816
1.08766
1.08742
1.0873
1.08728
1.08707
1.08679
1.08642
1.08593
1.08562
1.08541
1.08522
1.08504
1.08487
1.08468
1.08442
1.08411
1.08375
1.08331
1.08253
1.08138
1.0808
1.08055
1.08034
1.08022
1.08023
1.0802
1.08003
1.07977
1.07935
1.07867
1.07808
1.07779
1.0776
1.07756
1.0779
1.07801
1.07779
1.07754
1.0772
1.07658
1.07595
1.07567
1.07548
1.07536
1.07516
1.11569
1.11547
1.11538
1.1154
1.11524
1.11498
1.11463
1.11411
1.11376
1.11356
1.11344
1.1132
1.11283
1.11247
1.11223
1.11202
1.11202
)
;
    }
    procBoundary38to31
    {
        type            processor;
        value           uniform 1.07684;
    }
    procBoundary38to37
    {
        type            processor;
        value           nonuniform List<scalar> 
16
(
1.11798
1.12012
1.12223
1.12414
1.12581
1.12764
1.12903
1.13089
1.13321
1.13484
1.13713
1.13958
1.14169
1.14406
1.14641
1.14877
)
;
    }
    procBoundary38to39
    {
        type            processor;
        value           nonuniform List<scalar> 
17
(
1.07868
1.0804
1.0819
1.08306
1.08469
1.08698
1.08998
1.09198
1.09367
1.09509
1.09601
1.09805
1.10053
1.10305
1.10559
1.10817
1.11039
)
;
    }
    procBoundary38to45
    {
        type            processor;
        value           nonuniform List<scalar> 2(1.15064 1.15234);
    }
    procBoundary38to46
    {
        type            processor;
        value           nonuniform List<scalar> 
133
(
1.13632
1.13605
1.13566
1.13482
1.13367
1.13316
1.13294
1.13284
1.13306
1.13318
1.13298
1.13268
1.13211
1.13124
1.13079
1.13055
1.13041
1.13051
1.13067
1.13051
1.13022
1.12979
1.12884
1.12769
1.12723
1.12702
1.12692
1.12715
1.12743
1.12726
1.127
1.12654
1.12555
1.12467
1.12436
1.12417
1.12412
1.12448
1.12472
1.12452
1.12423
1.12367
1.12255
1.1218
1.12154
1.12138
1.12145
1.12163
1.12148
1.12121
1.12077
1.11985
1.11895
1.11862
1.11842
1.11836
1.11864
1.11884
1.11865
1.11838
1.11795
1.11695
1.11578
1.11536
1.11515
1.11505
1.11535
1.11596
1.11596
1.11571
1.11531
1.11433
1.11321
1.11282
1.11262
1.11255
1.11284
1.11299
1.11279
1.15441
1.15419
1.15397
1.15372
1.15342
1.15305
1.15253
1.15184
1.1514
1.15114
1.15095
1.15084
1.15074
1.15054
1.15027
1.14992
1.14938
1.14867
1.14822
1.14796
1.14777
1.14771
1.14761
1.14737
1.14704
1.14656
1.14583
1.14532
1.14506
1.14486
1.1448
1.14492
1.14485
1.14461
1.14426
1.1436
1.14259
1.142
1.14175
1.14159
1.14163
1.14178
1.14161
1.14133
1.14089
1.14004
1.13927
1.13894
1.13873
1.13864
1.13881
1.13886
1.13632
1.13864
)
;
    }
}


// ************************************************************************* //
