/*--------------------------------*- C++ -*----------------------------------*\
  =========                 |
  \\      /  F ield         | OpenFOAM: The Open Source CFD Toolbox
   \\    /   O peration     | Website:  https://openfoam.org
    \\  /    A nd           | Version:  7
     \\/     M anipulation  |
\*---------------------------------------------------------------------------*/
FoamFile
{
    version     2.0;
    format      ascii;
    class       volScalarField;
    location    "73";
    object      p;
}
// * * * * * * * * * * * * * * * * * * * * * * * * * * * * * * * * * * * * * //

dimensions      [0 2 -2 0 0 0 0];

internalField   nonuniform List<scalar> 
15200
(
-0.575104
-0.519537
-0.407225
-0.446259
-0.333515
-0.268157
-0.224439
-0.233545
-0.247509
-0.218037
-0.168281
-0.146027
-0.173232
-0.174
-0.129519
-0.579075
-0.51918
-0.380493
-0.429922
-0.322126
-0.267941
-0.235186
-0.253681
-0.259078
-0.216787
-0.165032
-0.140121
-0.16803
-0.168771
-0.127933
-0.584282
-0.518276
-0.35418
-0.409689
-0.306994
-0.264577
-0.24358
-0.272413
-0.266561
-0.211385
-0.156869
-0.130637
-0.156826
-0.156632
-0.119934
-0.590601
-0.516771
-0.328731
-0.385664
-0.288059
-0.257485
-0.247385
-0.286476
-0.267923
-0.201507
-0.143433
-0.117064
-0.138663
-0.13747
-0.10557
-0.597855
-0.514551
-0.304359
-0.357926
-0.265308
-0.245755
-0.246088
-0.29331
-0.262573
-0.187657
-0.125016
-0.0981107
-0.112039
-0.111024
-0.0863292
-0.605846
-0.511518
-0.280889
-0.326573
-0.238827
-0.228662
-0.241305
-0.292687
-0.251206
-0.171178
-0.103626
-0.0729337
-0.0760481
-0.0774383
-0.0642821
-0.614373
-0.507665
-0.25806
-0.291795
-0.208908
-0.205999
-0.235084
-0.285125
-0.235033
-0.153591
-0.0825175
-0.0435829
-0.0328303
-0.0381218
-0.0417257
-0.62323
-0.503131
-0.237142
-0.253002
-0.176077
-0.177901
-0.228204
-0.271313
-0.215502
-0.135951
-0.0651243
-0.0160683
0.00719591
0.00205088
-0.0223406
-0.632206
-0.498243
-0.216083
-0.212927
-0.140909
-0.145111
-0.219977
-0.252139
-0.194248
-0.119003
-0.0524062
0.000381741
0.0298472
0.0274315
-0.00906611
-0.641085
-0.493518
-0.194028
-0.171505
-0.103764
-0.110211
-0.208398
-0.229125
-0.172696
-0.103789
-0.0431665
0.00590271
0.0342408
0.0325003
-0.00234084
-0.649647
-0.48943
-0.170629
-0.129098
-0.0650402
-0.0783766
-0.191667
-0.204063
-0.151957
-0.0909716
-0.037106
0.00477052
0.0294173
0.0285173
0.000336884
-0.657675
-0.485895
-0.147437
-0.0886097
-0.026431
-0.0549233
-0.170503
-0.178725
-0.133011
-0.0804611
-0.033813
0.00137844
0.0225092
0.0221096
0.000525795
-0.664966
-0.483557
-0.126977
-0.0555485
0.00766258
-0.0530191
-0.148275
-0.154754
-0.116451
-0.0720074
-0.0323304
-0.00268155
0.0151387
0.0155721
-0.000480583
-0.671312
-0.482846
-0.111885
-0.0345394
0.0319383
-0.0459625
-0.127503
-0.133425
-0.102434
-0.065331
-0.0318684
-0.00675632
0.00819382
0.00958638
-0.00205772
-0.676462
-0.483906
-0.103382
-0.0255772
0.0431478
-0.0413607
-0.109736
-0.115441
-0.090872
-0.0600824
-0.0319442
-0.0105548
0.00212603
0.0043436
-0.00381907
-0.68006
-0.486504
-0.101052
-0.0255734
0.0427819
-0.0377279
-0.0953757
-0.10091
-0.0815107
-0.0559549
-0.0322611
-0.0139263
-0.00303266
-0.000137433
-0.00559801
-0.681803
-0.489785
-0.103675
-0.0310927
0.0344294
-0.0353925
-0.0843232
-0.0895005
-0.0740231
-0.0527037
-0.0326476
-0.0168226
-0.00732949
-0.00391277
-0.00736964
-0.681326
-0.492447
-0.110044
-0.0396511
0.0214064
-0.0346963
-0.0761005
-0.080687
-0.0680899
-0.0501348
-0.0330108
-0.019269
-0.0108306
-0.00706349
-0.00907126
-0.678364
-0.492893
-0.119203
-0.0496388
0.00613174
-0.0356008
-0.0701572
-0.0739401
-0.0634226
-0.0480963
-0.0333164
-0.0213053
-0.0136258
-0.00972007
-0.0105876
-0.672913
-0.489642
-0.13034
-0.0600288
-0.00973925
-0.0378426
-0.0660218
-0.0688059
-0.059771
-0.0464687
-0.0335618
-0.0229609
-0.0158339
-0.0119679
-0.0117436
-0.665367
-0.481819
-0.142722
-0.0701883
-0.0251155
-0.0410874
-0.0633121
-0.0649225
-0.0569221
-0.0451613
-0.0337482
-0.0242708
-0.0176045
-0.013779
-0.0125808
-0.656554
-0.469476
-0.155696
-0.0797572
-0.0393414
-0.0450011
-0.0617136
-0.0620083
-0.0546993
-0.044102
-0.0338751
-0.0252873
-0.0190266
-0.0151521
-0.0132432
-0.647579
-0.453542
-0.168707
-0.0885329
-0.0521066
-0.0492851
-0.0609645
-0.0598447
-0.0529582
-0.0432309
-0.0339432
-0.0260608
-0.0201371
-0.0162204
-0.0139013
-0.639553
-0.43543
-0.18132
-0.0964235
-0.0633282
-0.0536837
-0.0608455
-0.0582587
-0.0515817
-0.0424983
-0.0339533
-0.0266261
-0.0209925
-0.0170537
-0.0144676
-0.633321
-0.416565
-0.193194
-0.103427
-0.0730532
-0.0579754
-0.0611697
-0.0571107
-0.0504762
-0.0418618
-0.0339034
-0.0270168
-0.0216248
-0.0176915
-0.0149651
-0.629352
-0.398089
-0.204036
-0.109595
-0.0813987
-0.0619825
-0.0617771
-0.056284
-0.049567
-0.0412855
-0.0337918
-0.0272538
-0.0220671
-0.0181697
-0.0153481
-0.627773
-0.380755
-0.213586
-0.115009
-0.0884979
-0.065592
-0.0625333
-0.0556782
-0.0487948
-0.0407398
-0.0336141
-0.0273546
-0.0223451
-0.018499
-0.0156218
-0.628473
-0.364904
-0.221725
-0.119716
-0.094484
-0.0687384
-0.0633278
-0.0552082
-0.0481097
-0.0401997
-0.0333663
-0.0273312
-0.0224776
-0.0186934
-0.0157834
-0.631204
-0.35054
-0.228532
-0.123684
-0.0994734
-0.0713882
-0.0640727
-0.0548026
-0.0474685
-0.0396436
-0.0330432
-0.0271923
-0.0224798
-0.0187618
-0.0158342
-0.635637
-0.337556
-0.23411
-0.126879
-0.103559
-0.0735281
-0.0646991
-0.0544013
-0.0468343
-0.0390526
-0.0326399
-0.0269448
-0.0223622
-0.0187102
-0.0157821
-0.641394
-0.325802
-0.23855
-0.129294
-0.106815
-0.0751568
-0.0651553
-0.0539548
-0.046175
-0.0384094
-0.0321513
-0.0265924
-0.0221328
-0.0185465
-0.0156282
-0.648073
-0.315109
-0.241923
-0.130936
-0.109302
-0.0762796
-0.0654029
-0.0534219
-0.0454629
-0.0376986
-0.0315729
-0.0261375
-0.0217977
-0.0182748
-0.0153798
-0.65526
-0.305294
-0.244286
-0.131819
-0.111072
-0.076904
-0.0654146
-0.0527686
-0.0446739
-0.0369069
-0.0309013
-0.0255818
-0.0213609
-0.0179019
-0.0150408
-0.662542
-0.296168
-0.245684
-0.131956
-0.112173
-0.0770383
-0.0651723
-0.0519678
-0.0437884
-0.0360237
-0.0301338
-0.0249269
-0.0208262
-0.0174325
-0.0146188
-0.669518
-0.287538
-0.24616
-0.131359
-0.112647
-0.0766931
-0.0646628
-0.0509997
-0.0427902
-0.03504
-0.0292669
-0.0241739
-0.0201954
-0.0168719
-0.0141208
-0.675804
-0.279208
-0.245755
-0.130039
-0.112529
-0.0758849
-0.0638739
-0.0498502
-0.0416661
-0.0339478
-0.0282963
-0.0233224
-0.0194695
-0.0162235
-0.0135522
-0.681041
-0.270988
-0.244504
-0.128011
-0.111838
-0.0746346
-0.0627943
-0.0485068
-0.0404064
-0.0327388
-0.0272207
-0.0223713
-0.0186484
-0.0154897
-0.0129133
-0.6849
-0.262704
-0.242426
-0.125304
-0.110587
-0.0729533
-0.0614305
-0.0469514
-0.0390108
-0.031401
-0.0260444
-0.0213179
-0.0177338
-0.0146715
-0.0121977
-0.687088
-0.254199
-0.239517
-0.121929
-0.10882
-0.0708115
-0.0598325
-0.0451467
-0.0374976
-0.029915
-0.0247769
-0.0201587
-0.0167312
-0.0137684
-0.0113939
-0.687347
-0.245321
-0.235796
-0.117821
-0.106677
-0.0681111
-0.0580981
-0.0430326
-0.0359056
-0.0282587
-0.0234238
-0.0188923
-0.015648
-0.0127782
-0.0104938
-0.685459
-0.235857
-0.231407
-0.112777
-0.104415
-0.0647202
-0.0563069
-0.0405718
-0.0342593
-0.0264306
-0.0219702
-0.0175302
-0.0144837
-0.0116988
-0.00950617
-0.681233
-0.22548
-0.226686
-0.106553
-0.102238
-0.0606474
-0.0543689
-0.0378662
-0.0324739
-0.0244967
-0.0203728
-0.0161022
-0.0132214
-0.0105332
-0.00845872
-0.674506
-0.213851
-0.221964
-0.0992659
-0.0998447
-0.0562839
-0.0519345
-0.0352171
-0.0302686
-0.0226168
-0.0186122
-0.0146156
-0.0118571
-0.0092887
-0.00735963
-0.665161
-0.201043
-0.216928
-0.0918558
-0.0961084
-0.0522084
-0.0488763
-0.0326255
-0.0277625
-0.0206892
-0.0167301
-0.0130482
-0.0104053
-0.00797262
-0.00620611
-0.6532
-0.18792
-0.210156
-0.0847785
-0.091262
-0.0482976
-0.0452792
-0.0300068
-0.0250506
-0.0186522
-0.0147638
-0.0113854
-0.00887784
-0.00659218
-0.00499505
-0.638784
-0.174395
-0.201599
-0.0779501
-0.0854886
-0.0444155
-0.0412708
-0.0272737
-0.0222074
-0.0164717
-0.0127306
-0.0096275
-0.00728161
-0.00515348
-0.00372544
-0.622083
-0.160252
-0.191436
-0.0712057
-0.078977
-0.040438
-0.0369643
-0.0243646
-0.0192754
-0.0141429
-0.0106312
-0.00778479
-0.00562157
-0.00366188
-0.0024005
-0.602811
-0.145629
-0.179893
-0.0643968
-0.071877
-0.0362765
-0.032447
-0.0212473
-0.0162731
-0.0116786
-0.00846039
-0.00586958
-0.00390385
-0.00212391
-0.00102846
-0.579997
-0.131163
-0.167165
-0.0574108
-0.0643167
-0.0318708
-0.0277794
-0.0179157
-0.0132019
-0.00909938
-0.00621566
-0.00389182
-0.00213556
-0.000546377
0.000379837
-0.553848
-0.116637
-0.153417
-0.0501646
-0.0563981
-0.0271885
-0.0229995
-0.0143822
-0.0100572
-0.00642577
-0.00389989
-0.00185885
-0.000322883
0.00106673
0.00181707
-0.52466
-0.101864
-0.138802
-0.0426018
-0.048204
-0.022219
-0.0181293
-0.0106703
-0.00683508
-0.00367473
-0.00152041
0.00022309
0.00152953
0.00271479
0.00328417
-0.492713
-0.0867014
-0.123453
-0.0346887
-0.0398006
-0.0169686
-0.0131805
-0.00680784
-0.00353591
-0.000859356
0.000913601
0.00234779
0.00341599
0.00439381
0.00478482
-0.45827
-0.0710693
-0.107498
-0.0264107
-0.0312411
-0.0114566
-0.0081598
-0.00282279
-0.000165178
0.00200999
0.00339345
0.00450892
0.00532663
0.00608735
0.00630754
-0.421594
-0.0549253
-0.0910509
-0.0177697
-0.0225688
-0.00571084
-0.00307327
0.00125891
0.00326764
0.00492464
0.0059119
0.00670005
0.0072476
0.00776696
0.00780987
-0.382954
-0.0382581
-0.0742214
-0.00878169
-0.0138197
0.000235162
0.00207162
0.00541405
0.00675068
0.00787651
0.00846222
0.00891335
0.0091646
0.00940599
0.0092306
-0.342625
-0.0210803
-0.057111
0.000525545
-0.00502509
0.00634481
0.00726458
0.00962189
0.010271
0.0108573
0.011036
0.0111374
0.0110647
0.0109925
0.010543
-0.30089
-0.00342505
-0.0398159
0.0101147
0.00378685
0.0125803
0.0124923
0.0138636
0.0138157
0.013858
0.0136224
0.0133574
0.0129359
0.012528
0.0117976
-0.258036
0.0146576
-0.0224274
0.0199406
0.0125891
0.0189038
0.0177388
0.0181216
0.0173717
0.0168682
0.0162085
0.0155594
0.0147726
0.0140291
0.0131105
-0.214357
0.0331026
-0.00503295
0.0299521
0.0213548
0.0252781
0.0229859
0.022379
0.0209258
0.0198759
0.0187816
0.0177365
0.0165853
0.0155432
0.0145719
-0.170146
0.0518322
0.0122838
0.0400938
0.0300567
0.0316675
0.0282138
0.0266194
0.0244646
0.0228679
0.0213295
0.0198863
0.0183935
0.0171189
0.0162265
-0.125699
0.0707583
0.0294419
0.0503068
0.0386664
0.0380374
0.0334021
0.0308262
0.0279738
0.0258301
0.0238414
0.0220058
0.0202004
0.0187255
0.0180478
-0.0813091
0.0897836
0.0463635
0.0605306
0.0471542
0.0443544
0.0385294
0.0349827
0.0314389
0.0287497
0.0263096
0.0240927
0.0220014
0.0203769
0.0197588
-0.0372667
0.108803
0.0629726
0.0707037
0.0554896
0.0505868
0.0435744
0.0390722
0.0348454
0.0316143
0.0287282
0.0261494
0.0238046
0.0220442
0.0213248
0.00614308
0.127707
0.0791956
0.0807644
0.063641
0.0567041
0.0485159
0.0430778
0.0381787
0.0344124
0.0310904
0.0281705
0.0255974
0.0236951
0.0228037
0.0486423
0.146381
0.0949612
0.0906519
0.0715763
0.0626767
0.0533329
0.0469827
0.0414248
0.0371341
0.0333901
0.0301489
0.0273603
0.0252989
0.0242035
0.0899617
0.164708
0.1102
0.100307
0.0792632
0.0684766
0.0580048
0.0507704
0.0445706
0.0397699
0.0356213
0.0320785
0.0290823
0.0268489
0.0255352
0.129843
0.182568
0.124845
0.109671
0.0866695
0.0740767
0.0625116
0.0544248
0.047603
0.0423102
0.0377756
0.0339485
0.0307503
0.0283388
0.0268013
0.168038
0.199845
0.138831
0.11869
0.0937634
0.079451
0.0668338
0.0579305
0.0505104
0.0447462
0.0398451
0.0357491
0.0323528
0.0297605
0.0279986
0.204316
0.216422
0.152097
0.12731
0.100514
0.0845751
0.070953
0.0612726
0.0532813
0.0470694
0.0418222
0.0374728
0.0338842
0.0311117
0.0291265
0.238455
0.232185
0.164583
0.135483
0.106892
0.0894256
0.0748515
0.0644373
0.0559048
0.0492705
0.0436982
0.0391105
0.0353358
0.0323859
0.0301824
0.270255
0.247025
0.176233
0.143161
0.112869
0.0939807
0.0785129
0.0674118
0.0583711
0.0513416
0.0454658
0.0406553
0.0367025
0.0335801
0.0311653
0.299531
0.260836
0.186995
0.150303
0.118419
0.09822
0.0819216
0.0701838
0.0606704
0.0532749
0.0471176
0.0421001
0.0379778
0.0346899
0.0320739
0.32612
0.273519
0.196821
0.156869
0.123518
0.102125
0.0850636
0.0727425
0.062794
0.0550627
0.0486471
0.0434388
0.0391573
0.0357124
0.0329077
0.349874
0.284982
0.205666
0.162824
0.128142
0.105678
0.087926
0.0750778
0.0647339
0.0566986
0.050048
0.0446657
0.0402359
0.0366447
0.0336666
0.370662
0.295144
0.213493
0.168137
0.132273
0.108864
0.0904974
0.0771807
0.0664828
0.0581763
0.051315
0.0457757
0.0412095
0.0374844
0.0343504
0.388368
0.303936
0.220267
0.172782
0.135893
0.111671
0.0927677
0.0790432
0.0680343
0.0594904
0.052443
0.0467645
0.0420746
0.0382293
0.0349596
0.402894
0.311301
0.22596
0.176736
0.138988
0.114087
0.0947282
0.0806586
0.0693829
0.0606364
0.0534281
0.0476279
0.0428274
0.0388776
0.0354945
0.414164
0.317193
0.230551
0.179982
0.141544
0.116103
0.0963717
0.0820211
0.070524
0.0616103
0.0542665
0.0483629
0.0434659
0.039429
0.0359565
0.422121
0.321576
0.234022
0.182505
0.143554
0.117711
0.0976927
0.0831264
0.0714538
0.062409
0.0549555
0.0489669
0.0439881
0.039882
0.0363446
0.426729
0.324428
0.236362
0.184297
0.145011
0.118907
0.0986871
0.0839711
0.0721697
0.0630302
0.0554932
0.049438
0.0443916
0.0402323
0.0366519
0.427976
0.325741
0.237567
0.185354
0.145911
0.119689
0.0993523
0.0845532
0.07267
0.0634723
0.0558779
0.049775
0.0446759
0.0404819
0.0368836
0.425869
0.325516
0.237638
0.185675
0.146254
0.120054
0.0996875
0.0848718
0.0729537
0.0637347
0.0561093
0.0499776
0.0448417
0.0406331
0.0370442
0.420438
0.323767
0.236582
0.185264
0.146042
0.120004
0.0996933
0.0849271
0.0730211
0.0638174
0.0561873
0.050046
0.0448888
0.0406842
0.0371298
0.411736
0.320523
0.234411
0.184132
0.14528
0.119543
0.0993717
0.0847208
0.0728731
0.0637213
0.056113
0.0499814
0.0448184
0.0406348
0.0371373
0.399836
0.31582
0.231144
0.18229
0.143976
0.118677
0.0987266
0.0842554
0.0725119
0.0634481
0.0558878
0.0497855
0.0446326
0.0404859
0.0370657
0.384833
0.309711
0.226807
0.179756
0.142139
0.117411
0.0977629
0.0835347
0.0719402
0.0630001
0.0555141
0.0494607
0.0443332
0.0402384
0.0369137
0.366841
0.302256
0.221427
0.176553
0.139783
0.115757
0.0964872
0.0825636
0.0711618
0.0623804
0.0549947
0.0490098
0.0439229
0.039893
0.0366803
0.345993
0.293529
0.215042
0.172706
0.136924
0.113725
0.0949075
0.0813482
0.0701815
0.0615931
0.0543333
0.0484366
0.0434047
0.0394514
0.0363647
0.322441
0.283613
0.207691
0.168244
0.133578
0.111328
0.0930329
0.0798956
0.0690044
0.0606425
0.0535343
0.0477451
0.0427819
0.0389152
0.0359665
0.296351
0.272601
0.199419
0.163202
0.129766
0.108582
0.090874
0.0782138
0.0676368
0.0595337
0.0526024
0.0469401
0.0420585
0.038287
0.0354859
0.267908
0.260597
0.190276
0.157617
0.12551
0.105502
0.0884423
0.0763118
0.0660854
0.0582727
0.0515433
0.0460272
0.0412388
0.0375694
0.0349234
0.237319
0.247705
0.180315
0.151529
0.120832
0.102106
0.0857504
0.0741995
0.0643578
0.0568652
0.0503625
0.0450116
0.0403272
0.0367653
0.0342802
0.20481
0.234038
0.169593
0.144982
0.115757
0.0984143
0.0828119
0.0718875
0.062462
0.0553179
0.049067
0.0439017
0.0393308
0.0358786
0.0335572
0.170623
0.219709
0.158169
0.138021
0.110311
0.0944462
0.0796413
0.0693874
0.0604069
0.0536375
0.0476629
0.0427034
0.0382537
0.0349109
0.0327566
0.135016
0.204835
0.146105
0.130696
0.10452
0.0902237
0.0762536
0.0667111
0.0582014
0.0518302
0.0461561
0.0414267
0.0371088
0.0338699
0.0318801
0.0982604
0.189534
0.133463
0.123057
0.098412
0.0857696
0.0726645
0.0638714
0.055856
0.0499042
0.0445537
0.0400812
0.0359042
0.032753
0.0309253
0.0606422
0.173924
0.120311
0.115155
0.0920126
0.0811075
0.06889
0.0608813
0.053381
0.047866
0.0428577
0.0386714
0.0346566
0.0315765
0.0298954
0.0224571
0.158121
0.106714
0.107045
0.0853485
0.0762622
0.0649461
0.0577543
0.0507877
0.0457244
0.041074
0.0372071
0.0333885
0.0303516
0.0287691
-0.0159893
0.142236
0.0927413
0.0987796
0.0784453
0.0712594
0.0608492
0.054504
0.0480877
0.0434892
0.0392053
0.0356846
0.03211
0.0291126
0.0275401
-0.0543835
0.126377
0.0784615
0.090412
0.0713274
0.0661258
0.0566151
0.0511439
0.0452926
0.0411709
0.0372563
0.0340999
0.0308342
0.0279282
0.0262104
-0.0924066
0.110644
0.0639449
0.0819945
0.0640179
0.0608892
0.052259
0.0476881
0.0424137
0.0387809
0.0352356
0.0324478
0.0295477
0.0268256
0.0248106
-0.129736
0.095128
0.0492629
0.0735773
0.0565384
0.0555782
0.0477954
0.0441506
0.0394622
0.0363305
0.0331544
0.0307237
0.0282161
0.0257703
0.0235854
-0.166048
0.0799108
0.0344877
0.0652072
0.0489091
0.0502225
0.0432371
0.0405465
0.0364491
0.0338295
0.0310251
0.0289338
0.026817
0.024763
0.0226466
-0.201018
0.0650599
0.0196933
0.0569266
0.0411488
0.0448522
0.0385952
0.0368912
0.0333851
0.0312864
0.0288605
0.027097
0.025345
0.0237227
0.0218818
-0.234326
0.0506282
0.00495533
0.0487719
0.0332757
0.0394979
0.0338782
0.0332017
0.030281
0.0287092
0.0266708
0.0252323
0.0238092
0.022568
0.0210547
-0.265656
0.0366493
-0.009648
0.0407718
0.0253081
0.0341899
0.0290921
0.0294967
0.0271472
0.0261054
0.0244626
0.0233503
0.0222259
0.0212955
0.0200563
-0.294697
0.023135
-0.0240352
0.0329452
0.0172656
0.0289568
0.0242405
0.0257968
0.0239928
0.023483
0.0222411
0.0214555
0.0206114
0.0199484
0.0189237
-0.321144
0.010067
-0.0381203
0.0252991
0.00917109
0.0238244
0.0193249
0.0221252
0.0208245
0.0208504
0.0200132
0.0195522
0.0189781
0.0185622
0.0177282
-0.344696
-0.00260807
-0.0518115
0.0178257
0.00105232
0.018813
0.0143463
0.0185073
0.0176459
0.0182179
0.0177884
0.0176477
0.0173335
0.0171502
0.0165074
-0.365039
-0.0150065
-0.0650096
0.0105004
-0.00705516
0.0139349
0.00930714
0.0149696
0.0144559
0.0155982
0.0155776
0.0157497
0.0156848
0.0157195
0.0152719
-0.381839
-0.0273042
-0.0776035
0.00327721
-0.0151052
0.00919064
0.00421522
0.0115373
0.0112494
0.0130087
0.0133906
0.0138657
0.0140411
0.0142828
0.0140317
-0.394678
-0.0397678
-0.0894709
-0.0039133
-0.0230378
0.00456541
-0.000912395
0.00823056
0.00801885
0.0104719
0.0112354
0.0120016
0.012413
0.0128566
0.0128018
-0.404404
-0.0518106
-0.100461
-0.0111709
-0.0307753
2.32394e-05
-0.00604405
0.00505906
0.00475902
0.00801484
0.00911536
0.0101627
0.0108106
0.0114532
0.0115932
-0.411345
-0.0632434
-0.110383
-0.0186317
-0.0382178
-0.00449547
-0.011128
0.00201485
0.00147478
0.00566488
0.0070284
0.00835605
0.00924196
0.0100779
0.0104102
-0.415344
-0.0742972
-0.11903
-0.0264764
-0.0452416
-0.0090833
-0.0160857
-0.00093434
-0.00180975
0.00344072
0.00496665
0.00659426
0.0077144
0.00873292
0.00925456
-0.416202
-0.0852715
-0.12622
-0.0349295
-0.0516939
-0.0138629
-0.0208104
-0.00385061
-0.00504223
0.0013406
0.00292188
0.00489793
0.00623487
0.00742152
0.00813036
-0.413876
-0.0953697
-0.132781
-0.0440529
-0.0574135
-0.0189918
-0.0251624
-0.00683142
-0.00813728
-0.000666715
0.000898336
0.00329043
0.00480943
0.00615011
0.00704368
-0.40846
-0.104386
-0.139687
-0.0533982
-0.0622732
-0.0246436
-0.0289896
-0.00999546
-0.0109785
-0.00264619
-0.00106874
0.00178182
0.00344348
0.00492796
0.00599858
-0.40013
-0.112598
-0.147173
-0.0624555
-0.0665976
-0.0307593
-0.0321934
-0.0134527
-0.0134394
-0.00468352
-0.00290845
0.000355483
0.00214611
0.00376643
0.00499388
-0.389115
-0.120391
-0.155034
-0.0709697
-0.0710853
-0.0368706
-0.0349195
-0.0171848
-0.0154474
-0.00683875
-0.00454241
-0.00102563
0.000933995
0.00267703
0.00402425
-0.375697
-0.128095
-0.163052
-0.0790036
-0.0760347
-0.0425715
-0.0375773
-0.0208169
-0.0172403
-0.00897865
-0.00599122
-0.00235962
-0.000184279
0.00166573
0.00309209
-0.360225
-0.13599
-0.171167
-0.0867246
-0.0813529
-0.0477901
-0.0404189
-0.0240876
-0.0189971
-0.0109445
-0.00732938
-0.00359785
-0.00121974
0.000727716
0.00222885
-0.34312
-0.144361
-0.17943
-0.0942998
-0.0868402
-0.052613
-0.0434412
-0.0269593
-0.0207514
-0.0126734
-0.00857846
-0.00471829
-0.00217351
-0.000137967
0.00144751
-0.32488
-0.153531
-0.187925
-0.101857
-0.0923636
-0.057165
-0.0464883
-0.0295073
-0.0224503
-0.0141737
-0.00971766
-0.00571947
-0.00304139
-0.000928085
0.000742222
-0.306083
-0.163865
-0.196733
-0.109472
-0.0978841
-0.0615416
-0.0494208
-0.0318023
-0.0240186
-0.015472
-0.0107196
-0.00660092
-0.00381758
-0.00164093
0.000100089
-0.287387
-0.175779
-0.205923
-0.117188
-0.103413
-0.0657819
-0.0521768
-0.0338758
-0.0253992
-0.0165801
-0.0115663
-0.00735799
-0.00449669
-0.00227615
-0.000488284
-0.269539
-0.189737
-0.21555
-0.125044
-0.10897
-0.069886
-0.0547368
-0.0357281
-0.0265595
-0.0174902
-0.0122476
-0.00798456
-0.00507437
-0.00283459
-0.00102513
-0.253369
-0.206262
-0.225654
-0.133087
-0.114568
-0.073844
-0.0570881
-0.0373417
-0.0274789
-0.0181842
-0.0127539
-0.00847541
-0.00554856
-0.00331489
-0.00150788
-0.239804
-0.225945
-0.236247
-0.141372
-0.12022
-0.0776482
-0.0592158
-0.0386913
-0.0281373
-0.0186424
-0.0130747
-0.00882524
-0.00591824
-0.00371734
-0.00193143
-0.229862
-0.249451
-0.247302
-0.149956
-0.125938
-0.0812925
-0.0611025
-0.0397525
-0.0285123
-0.0188468
-0.0131981
-0.00903022
-0.00618407
-0.00404011
-0.00229437
-0.224664
-0.277478
-0.258729
-0.158899
-0.13173
-0.0847707
-0.0627271
-0.0405022
-0.0285784
-0.0187779
-0.0131136
-0.00908665
-0.0063477
-0.00428701
-0.00259418
-0.225442
-0.310556
-0.27037
-0.168275
-0.137608
-0.088075
-0.0640658
-0.0409158
-0.0283064
-0.0184142
-0.0128102
-0.00899377
-0.0064126
-0.00446019
-0.00283635
-0.233402
-0.348523
-0.282045
-0.178169
-0.143574
-0.0911964
-0.0650951
-0.0409664
-0.0276635
-0.0177324
-0.0122779
-0.0087503
-0.00638577
-0.00456991
-0.00302081
-0.249235
-0.389577
-0.293642
-0.188682
-0.149629
-0.0941262
-0.0657941
-0.0406247
-0.0266144
-0.0167084
-0.011506
-0.00836027
-0.00627587
-0.00462481
-0.00316245
-0.272325
-0.429525
-0.305088
-0.199917
-0.155763
-0.0968569
-0.0661453
-0.0398598
-0.0251224
-0.0153146
-0.0104851
-0.00782872
-0.00609997
-0.00463953
-0.00326758
-0.300389
-0.462161
-0.316357
-0.21196
-0.161958
-0.0993858
-0.0661348
-0.0386399
-0.0231501
-0.0135185
-0.00920688
-0.00717002
-0.00587432
-0.00463232
-0.00336224
-0.330018
-0.481545
-0.327609
-0.224855
-0.168185
-0.101719
-0.0657537
-0.0369343
-0.020656
-0.0112838
-0.0076672
-0.0064031
-0.00562958
-0.00461966
-0.00346594
-0.358442
-0.485086
-0.339373
-0.238564
-0.174416
-0.103874
-0.0650006
-0.0347156
-0.0175939
-0.00857147
-0.00586634
-0.00555974
-0.00539473
-0.00463841
-0.00359954
-0.384443
-0.47488
-0.352582
-0.252957
-0.180639
-0.105886
-0.0638849
-0.0319626
-0.0139154
-0.00533992
-0.00381124
-0.00468579
-0.00521424
-0.0047201
-0.00377733
-0.408155
-0.456484
-0.368287
-0.267879
-0.186871
-0.107812
-0.0624317
-0.0286648
-0.00957197
-0.0015451
-0.00151966
-0.00384261
-0.00514192
-0.00492514
-0.00394667
-0.430283
-0.436163
-0.387316
-0.283173
-0.193171
-0.10973
-0.0606894
-0.0248268
-0.00452293
0.00285813
0.00097245
-0.00311453
-0.00524241
-0.00531299
-0.00406181
-0.451448
-0.418653
-0.410036
-0.298706
-0.199642
-0.11175
-0.0587372
-0.0204783
0.00125218
0.0079115
0.00360229
-0.00260538
-0.00562716
-0.00588305
-0.00422267
-0.471981
-0.406483
-0.436214
-0.31439
-0.206426
-0.114005
-0.0566931
-0.015686
0.00773544
0.0136469
0.00625874
-0.00243658
-0.00645853
-0.00670167
-0.00444866
-0.491861
-0.400641
-0.464839
-0.330144
-0.213684
-0.11666
-0.0547253
-0.0105757
0.0148355
0.0200609
0.00877236
-0.0027958
-0.0079084
-0.0079384
-0.00468827
-0.510746
-0.401064
-0.494369
-0.34586
-0.221582
-0.119906
-0.0530731
-0.0053565
0.0223587
0.0270756
0.0109082
-0.00396294
-0.0101847
-0.00977483
-0.00491239
-0.528078
-0.406925
-0.523
-0.361405
-0.230256
-0.123957
-0.0520668
-0.000372275
0.0299259
0.0344239
0.0123078
-0.00634482
-0.0136172
-0.0123446
-0.00519138
-0.543204
-0.416909
-0.548833
-0.376633
-0.239797
-0.129038
-0.0521642
0.00382368
0.0368641
0.0415277
0.0124633
-0.0104677
-0.0187029
-0.0157964
-0.00567514
-0.555534
-0.429503
-0.570045
-0.391397
-0.250238
-0.135359
-0.0539681
0.00634324
0.0421152
0.0471576
0.0105482
-0.0171057
-0.0261591
-0.0203385
-0.00650134
-0.564728
-0.44319
-0.585141
-0.405557
-0.261525
-0.143133
-0.0580884
0.00540058
0.0435439
0.0484529
0.00575111
-0.027372
-0.0370185
-0.0263215
-0.00809663
-0.570872
-0.456727
-0.593269
-0.418996
-0.273507
-0.15248
-0.0649911
-0.00270675
0.0356661
0.0399836
-0.00210996
-0.0414529
-0.0523046
-0.0343221
-0.0108284
-0.574498
-0.469243
-0.594413
-0.431587
-0.285992
-0.163206
-0.0753063
-0.0212583
0.0118862
0.0150298
-0.0135991
-0.0582986
-0.0720348
-0.044722
-0.0151568
-0.576191
-0.480342
-0.589314
-0.44316
-0.298725
-0.174936
-0.0899282
-0.0497973
-0.0276774
-0.0248536
-0.0309773
-0.0765406
-0.0945473
-0.0575982
-0.0215854
-0.576021
-0.490168
-0.579151
-0.453475
-0.31124
-0.187491
-0.108298
-0.0806866
-0.0730219
-0.0682472
-0.0552053
-0.0946323
-0.117031
-0.0726442
-0.0298686
-0.574989
-0.498315
-0.565133
-0.462203
-0.322809
-0.200761
-0.128067
-0.107217
-0.113325
-0.106626
-0.0822997
-0.11135
-0.136484
-0.0888463
-0.0402551
-0.573601
-0.504926
-0.548182
-0.468907
-0.332635
-0.214392
-0.146885
-0.128038
-0.145508
-0.137827
-0.105637
-0.124251
-0.149616
-0.105477
-0.0537506
-0.572212
-0.510106
-0.528872
-0.473099
-0.340101
-0.227776
-0.163455
-0.145527
-0.170562
-0.162964
-0.123587
-0.132413
-0.155826
-0.122199
-0.0702605
-0.571122
-0.513961
-0.507546
-0.474352
-0.344861
-0.240208
-0.177805
-0.162285
-0.189964
-0.183052
-0.138144
-0.137992
-0.158874
-0.138382
-0.0874631
-0.570619
-0.516653
-0.484443
-0.47243
-0.346745
-0.251001
-0.19051
-0.179227
-0.206494
-0.198403
-0.1507
-0.143077
-0.163098
-0.153159
-0.103256
-0.570976
-0.518392
-0.459746
-0.467279
-0.345615
-0.259541
-0.20214
-0.196405
-0.220939
-0.209108
-0.160579
-0.147004
-0.168918
-0.165133
-0.116172
-0.572421
-0.519313
-0.433829
-0.45866
-0.34128
-0.265345
-0.213288
-0.214299
-0.234432
-0.215514
-0.166724
-0.148277
-0.173132
-0.172558
-0.125238
-0.113945
-0.120819
-0.117857
-0.100571
-0.0858367
-0.0856768
-0.0911417
-0.0974222
-0.107667
-0.122511
-0.124492
-0.105235
-0.080171
-0.0631973
-0.0587848
-0.0508651
-0.0355136
-0.0240947
-0.0224686
-0.0217332
-0.0140793
-0.00570098
-0.00332139
-0.00429022
-0.00440883
-0.00369703
-0.00329667
-0.0028159
-0.00217142
-0.00184251
-0.00163273
-0.00147883
-0.00127305
-0.000972126
-0.000734288
-0.000479983
-0.000222378
-3.73222e-05
5.36844e-05
0.000125654
-0.120363
-0.131344
-0.126686
-0.100156
-0.0718586
-0.0621837
-0.0712401
-0.0923891
-0.120267
-0.143514
-0.140339
-0.110017
-0.0737149
-0.0502993
-0.0466283
-0.0440992
-0.0347309
-0.0279517
-0.0274398
-0.0243773
-0.0141791
-0.00375983
-0.000370984
-0.00197502
-0.00399826
-0.00448786
-0.00413023
-0.00313402
-0.00206795
-0.00164342
-0.00154011
-0.0014955
-0.0013243
-0.00100309
-0.000744126
-0.000483185
-0.000225914
-4.29286e-05
4.90285e-05
0.000123459
-0.121037
-0.135922
-0.131112
-0.097842
-0.0577795
-0.0375649
-0.0498354
-0.0863432
-0.132612
-0.16477
-0.156643
-0.114728
-0.0673498
-0.0369405
-0.0319457
-0.0346974
-0.0325792
-0.0311712
-0.0315283
-0.0259437
-0.0138154
-0.00226102
0.00179786
-0.000298627
-0.00373506
-0.00516036
-0.00476211
-0.00334074
-0.00197497
-0.00150026
-0.00148428
-0.0015236
-0.00137373
-0.0010351
-0.000758963
-0.000493332
-0.000235063
-5.31994e-05
4.11927e-05
0.000119275
-0.115766
-0.134279
-0.13011
-0.0937941
-0.045251
-0.0154747
-0.0289583
-0.0793445
-0.143068
-0.183548
-0.171562
-0.119171
-0.0617603
-0.0242966
-0.0163196
-0.0236375
-0.0295992
-0.0339855
-0.0349041
-0.0270008
-0.0134552
-0.00142973
0.00295825
0.000574106
-0.00368723
-0.00567037
-0.00516147
-0.00343694
-0.00190792
-0.00142475
-0.0014698
-0.00155911
-0.00141826
-0.00106521
-0.000777071
-0.000509032
-0.000249223
-6.74851e-05
3.06728e-05
0.000112863
-0.106744
-0.128072
-0.123886
-0.087967
-0.0359999
0.00127778
-0.0107414
-0.0705238
-0.148002
-0.195511
-0.181959
-0.122565
-0.0575896
-0.0139139
-0.00270372
-0.0131524
-0.0266946
-0.0362137
-0.0373094
-0.0276518
-0.0132821
-0.00130977
0.00317659
0.000774593
-0.00377934
-0.00598344
-0.00534801
-0.00346464
-0.00188679
-0.00141527
-0.00148923
-0.00159601
-0.00145454
-0.0010923
-0.000797207
-0.000528581
-0.000267436
-8.49084e-05
1.80017e-05
0.00010414
-0.0964602
-0.119001
-0.114161
-0.080361
-0.0301956
0.0114
0.00331402
-0.0600595
-0.145722
-0.198659
-0.185992
-0.124028
-0.0550171
-0.00734054
0.00673162
-0.00523666
-0.0242567
-0.0373433
-0.0384124
-0.027747
-0.0132923
-0.00173549
0.00272009
0.000561124
-0.00386996
-0.0060828
-0.0053784
-0.00347087
-0.00191974
-0.00145762
-0.00152917
-0.00162845
-0.00148168
-0.0011167
-0.000818652
-0.000550434
-0.000288644
-0.000104553
3.66931e-06
9.33053e-05
-0.0831966
-0.106482
-0.101306
-0.0713015
-0.0270814
0.0149949
0.0124281
-0.0490705
-0.137444
-0.193712
-0.183939
-0.123077
-0.0539245
-0.00471401
0.0114535
-0.000557785
-0.0221876
-0.036952
-0.0379483
-0.0272272
-0.0134024
-0.0025129
0.00188384
0.000162897
-0.00387273
-0.00598933
-0.00530486
-0.00348226
-0.00200071
-0.00153516
-0.0015793
-0.001654
-0.00150086
-0.00113926
-0.000840974
-0.000573442
-0.000311865
-0.000125594
-1.18791e-05
8.08447e-05
-0.0653637
-0.0892933
-0.0857913
-0.061465
-0.0255014
0.0133673
0.0162889
-0.0383444
-0.123896
-0.182273
-0.176387
-0.119676
-0.0536412
-0.00514866
0.0120641
0.00158308
-0.0200147
-0.0349579
-0.0360554
-0.0261819
-0.0135271
-0.003459
0.000882264
-0.000298614
-0.00379624
-0.00571338
-0.00517083
-0.00350469
-0.00211369
-0.00163299
-0.00163307
-0.00167366
-0.00151448
-0.00116077
-0.000863844
-0.000596862
-0.000336268
-0.000147362
-2.82166e-05
6.74129e-05
-0.0463703
-0.0687743
-0.0693847
-0.0518475
-0.0242424
0.0083977
0.0154464
-0.028588
-0.106205
-0.164994
-0.163543
-0.113655
-0.0533099
-0.0075991
0.0103668
0.00227573
-0.017405
-0.031703
-0.0332217
-0.024801
-0.0136194
-0.00443948
-0.000156936
-0.000780806
-0.00369429
-0.00543126
-0.00501327
-0.00353412
-0.00224106
-0.00173958
-0.00168797
-0.00169023
-0.0015252
-0.00118177
-0.000886971
-0.000620266
-0.000361186
-0.00016935
-4.49337e-05
5.36694e-05
-0.0294609
-0.0482762
-0.0539786
-0.0432662
-0.0227637
0.00238831
0.0116141
-0.0202642
-0.086224
-0.142901
-0.147055
-0.105565
-0.0525584
-0.0110053
0.00724598
0.00210579
-0.0146991
-0.0278781
-0.0300483
-0.0232916
-0.0136637
-0.00537259
-0.00116314
-0.00127122
-0.00361289
-0.00515548
-0.00485676
-0.00356523
-0.00236944
-0.0018474
-0.00174283
-0.00170645
-0.00153514
-0.00120255
-0.000910114
-0.00064343
-0.000386116
-0.000191198
-6.16645e-05