/*--------------------------------*- C++ -*----------------------------------*\
  =========                 |
  \\      /  F ield         | OpenFOAM: The Open Source CFD Toolbox
   \\    /   O peration     | Website:  https://openfoam.org
    \\  /    A nd           | Version:  7
     \\/     M anipulation  |
\*---------------------------------------------------------------------------*/
FoamFile
{
    version     2.0;
    format      ascii;
    class       volVectorField;
    location    "3.5";
    object      U;
}
// * * * * * * * * * * * * * * * * * * * * * * * * * * * * * * * * * * * * * //

dimensions      [0 1 -1 0 0 0 0];

internalField   nonuniform List<vector> 
2413
(
(1.37007 -0.042051 0)
(1.37135 -0.0425288 0)
(1.37246 -0.0430769 0)
(1.37308 -0.0436227 0)
(1.37304 -0.0441004 0)
(1.37366 -0.0444659 0)
(1.37488 -0.0447223 0)
(1.3762 -0.0449877 0)
(1.37756 -0.0453785 0)
(1.37891 -0.0459116 0)
(1.38015 -0.0465276 0)
(1.38114 -0.0471942 0)
(1.38138 -0.0479552 0)
(1.38143 -0.048636 0)
(1.38256 -0.0489247 0)
(1.38383 -0.0490858 0)
(1.38526 -0.0493277 0)
(1.38698 -0.0497484 0)
(1.38865 -0.0503466 0)
(1.39024 -0.051146 0)
(1.39172 -0.05219 0)
(1.39297 -0.0531072 0)
(1.39393 -0.053819 0)
(1.39447 -0.0544376 0)
(1.39531 -0.0548733 0)
(1.39657 -0.0550831 0)
(1.39788 -0.0553085 0)
(1.39923 -0.0557123 0)
(1.40061 -0.0562373 0)
(1.40207 -0.0569007 0)
(1.40351 -0.0576522 0)
(1.40482 -0.05826 0)
(1.40604 -0.0586868 0)
(1.4071 -0.0590298 0)
(1.40762 -0.0594009 0)
(1.40753 -0.0598093 0)
(1.40855 -0.0600939 0)
(1.40987 -0.0604139 0)
(1.41123 -0.0611966 0)
(1.41278 -0.0626295 0)
(1.41475 -0.0646574 0)
(1.41632 -0.0660072 0)
(1.41765 -0.0663324 0)
(1.41886 -0.0664898 0)
(1.41992 -0.0665785 0)
(1.42078 -0.0666038 0)
(1.42126 -0.0666713 0)
(1.42121 -0.0669949 0)
(1.4217 -0.0675823 0)
(1.4229 -0.0680464 0)
(1.42416 -0.0685252 0)
(1.42538 -0.0691305 0)
(1.42634 -0.070078 0)
(1.42708 -0.0711702 0)
(1.42811 -0.0718137 0)
(1.42935 -0.0722058 0)
(1.43063 -0.0725511 0)
(1.43194 -0.0729126 0)
(1.29829 -0.0160163 0)
(1.29898 -0.0160023 0)
(1.29995 -0.0161382 0)
(1.30099 -0.0163538 0)
(1.30204 -0.016544 0)
(1.30313 -0.01677 0)
(1.30417 -0.0170323 0)
(1.30506 -0.0172677 0)
(1.30575 -0.0175455 0)
(1.30651 -0.017782 0)
(1.30746 -0.0178773 0)
(1.30848 -0.0179327 0)
(1.30945 -0.0180312 0)
(1.31021 -0.0182902 0)
(1.31112 -0.0186972 0)
(1.31222 -0.0190905 0)
(1.31329 -0.0194256 0)
(1.31431 -0.0196284 0)
(1.31527 -0.019764 0)
(1.31613 -0.0199159 0)
(1.31686 -0.0201545 0)
(1.31758 -0.0205055 0)
(1.31855 -0.0208539 0)
(1.31974 -0.021076 0)
(1.32094 -0.0212948 0)
(1.32212 -0.0215424 0)
(1.32325 -0.0218143 0)
(1.32434 -0.0220979 0)
(1.32533 -0.0224066 0)
(1.32609 -0.0228033 0)
(1.32697 -0.0231946 0)
(1.32811 -0.023407 0)
(1.32931 -0.0235885 0)
(1.33049 -0.0237332 0)
(1.33166 -0.0238547 0)
(1.33284 -0.0239977 0)
(1.33399 -0.0241553 0)
(1.33505 -0.0243238 0)
(1.33572 -0.0245466 0)
(1.33549 -0.0248416 0)
(1.33574 -0.0250639 0)
(1.33676 -0.0251274 0)
(1.33782 -0.025194 0)
(1.33899 -0.0253414 0)
(1.34009 -0.0255305 0)
(1.34118 -0.025801 0)
(1.34222 -0.0261588 0)
(1.34309 -0.0265511 0)
(1.34334 -0.0269936 0)
(1.34282 -0.0274944 0)
(1.34339 -0.0278112 0)
(1.34452 -0.0279644 0)
(1.34569 -0.0281734 0)
(1.34692 -0.0284953 0)
(1.34824 -0.0288991 0)
(1.34955 -0.0293118 0)
(1.35077 -0.0296326 0)
(1.35196 -0.0299016 0)
(1.3531 -0.0301736 0)
(1.35416 -0.0304813 0)
(1.35493 -0.0308874 0)
(1.35503 -0.0315512 0)
(1.35552 -0.0323134 0)
(1.35673 -0.0328037 0)
(1.358 -0.0332359 0)
(1.35929 -0.0335878 0)
(1.36056 -0.0338684 0)
(1.3618 -0.0341438 0)
(1.36297 -0.0344397 0)
(1.36398 -0.0347779 0)
(1.36446 -0.0352678 0)
(1.36481 -0.035921 0)
(1.36592 -0.0363957 0)
(1.36715 -0.0367725 0)
(1.3684 -0.0371353 0)
(1.36961 -0.0374574 0)
(1.37076 -0.0377538 0)
(1.37176 -0.0380422 0)
(1.37228 -0.0383484 0)
(1.37229 -0.0387754 0)
(1.37309 -0.039238 0)
(1.37436 -0.0396299 0)
(1.37569 -0.040199 0)
(1.37694 -0.0408054 0)
(1.37808 -0.0412505 0)
(1.37901 -0.0415845 0)
(1.37927 -0.0418823 0)
(1.37915 -0.0422053 0)
(1.38014 -0.0425235 0)
(1.38139 -0.0428692 0)
(1.38281 -0.0434871 0)
(1.38458 -0.0445696 0)
(1.38645 -0.0459325 0)
(1.3878 -0.0466746 0)
(1.38898 -0.0470576 0)
(1.3899 -0.0473693 0)
(1.39067 -0.0476196 0)
(1.3918 -0.0477332 0)
(1.39303 -0.0477697 0)
(1.3943 -0.0478213 0)
(1.39564 -0.0480062 0)
(1.39693 -0.0483409 0)
(1.39828 -0.0489115 0)
(1.3998 -0.0498663 0)
(1.40122 -0.0509017 0)
(1.40245 -0.0516151 0)
(1.40349 -0.0521061 0)
(1.40401 -0.0525512 0)
(1.40416 -0.0531723 0)
(1.40517 -0.0537786 0)
(1.40638 -0.0545017 0)
(1.40778 -0.0556936 0)
(1.40958 -0.0571675 0)
(1.41125 -0.0581854 0)
(1.41256 -0.0584608 0)
(1.41378 -0.0585996 0)
(1.4149 -0.0586629 0)
(1.41594 -0.0586823 0)
(1.41679 -0.0587417 0)
(1.41706 -0.0589392 0)
(1.41695 -0.0593871 0)
(1.41786 -0.0598279 0)
(1.41912 -0.0601532 0)
(1.42056 -0.0607656 0)
(1.42209 -0.0617948 0)
(1.42337 -0.0627375 0)
(1.4244 -0.0634293 0)
(1.42487 -0.0639947 0)
(1.4249 -0.0645534 0)
(1.42576 -0.0650224 0)
(1.427 -0.0653797 0)
(1.42836 -0.0658054 0)
(1.29977 -0.0132584 0)
(1.30074 -0.0133062 0)
(1.30179 -0.0133988 0)
(1.30286 -0.0135208 0)
(1.30395 -0.0136435 0)
(1.30497 -0.0138092 0)
(1.30581 -0.0140077 0)
(1.30638 -0.0141902 0)
(1.30687 -0.0143468 0)
(1.30762 -0.0144413 0)
(1.30858 -0.0145042 0)
(1.3096 -0.0145901 0)
(1.31062 -0.0147368 0)
(1.31162 -0.0149496 0)
(1.31261 -0.0151597 0)
(1.31356 -0.0153457 0)
(1.31442 -0.0155223 0)
(1.31506 -0.0157085 0)
(1.31549 -0.0159062 0)
(1.31607 -0.0161033 0)
(1.31693 -0.0162863 0)
(1.31803 -0.0164009 0)
(1.3192 -0.016456 0)
(1.32036 -0.0165357 0)
(1.32149 -0.0166575 0)
(1.32256 -0.0168379 0)
(1.3235 -0.0170785 0)
(1.32417 -0.0173879 0)
(1.32495 -0.0176825 0)
(1.32599 -0.0178424 0)
(1.32707 -0.0179579 0)
(1.32827 -0.0180934 0)
(1.32965 -0.0182725 0)
(1.33081 -0.0184217 0)
(1.33193 -0.0185445 0)
(1.33301 -0.0186788 0)
(1.33399 -0.0188242 0)
(1.33457 -0.0190178 0)
(1.33413 -0.0193467 0)
(1.33408 -0.0196537 0)
(1.33501 -0.0197333 0)
(1.33602 -0.0197866 0)
(1.33705 -0.0198382 0)
(1.33807 -0.0198804 0)
(1.33907 -0.0200094 0)
(1.33998 -0.0202957 0)
(1.34049 -0.0207773 0)
(1.34026 -0.0214008 0)
(1.34044 -0.0219264 0)
(1.34145 -0.0221391 0)
(1.34256 -0.0222371 0)
(1.34368 -0.0223733 0)
(1.3447 -0.0225995 0)
(1.34568 -0.0229464 0)
(1.34677 -0.0233243 0)
(1.34789 -0.0237195 0)
(1.34897 -0.0241056 0)
(1.34998 -0.0244439 0)
(1.35084 -0.0247519 0)
(1.35141 -0.0251232 0)
(1.35176 -0.0257127 0)
(1.35255 -0.0264013 0)
(1.35376 -0.0269243 0)
(1.35508 -0.0275189 0)
(1.35633 -0.027951 0)
(1.35755 -0.0281939 0)
(1.35877 -0.0284075 0)
(1.35998 -0.0286658 0)
(1.36115 -0.0289781 0)
(1.36217 -0.029359 0)
(1.36274 -0.0300049 0)
(1.36324 -0.0307879 0)
(1.36425 -0.0312159 0)
(1.36538 -0.0314634 0)
(1.36655 -0.0316961 0)
(1.36776 -0.0319564 0)
(1.36898 -0.0322845 0)
(1.37017 -0.0327134 0)
(1.37125 -0.0331865 0)
(1.37213 -0.0335882 0)
(1.37262 -0.0338872 0)
(1.3728 -0.0341886 0)
(1.37342 -0.0345283 0)
(1.37441 -0.0348262 0)
(1.37547 -0.0350764 0)
(1.37643 -0.0353439 0)
(1.37693 -0.0358309 0)
(1.37729 -0.0366864 0)
(1.37814 -0.0376291 0)
(1.3792 -0.0385677 0)
(1.38048 -0.0392171 0)
(1.38188 -0.0396211 0)
(1.38345 -0.0400006 0)
(1.38481 -0.0402416 0)
(1.38602 -0.0403456 0)
(1.3872 -0.0404179 0)
(1.3884 -0.0404523 0)
(1.38962 -0.040477 0)
(1.39091 -0.0405689 0)
(1.39222 -0.0407812 0)
(1.39352 -0.0411461 0)
(1.39492 -0.0417833 0)
(1.39646 -0.0428493 0)
(1.39784 -0.0440818 0)
(1.39896 -0.0449934 0)
(1.39976 -0.0456898 0)
(1.39997 -0.0464448 0)
(1.40048 -0.0472305 0)
(1.40157 -0.0478375 0)
(1.4028 -0.0484996 0)
(1.40426 -0.0492733 0)
(1.40591 -0.0500047 0)
(1.40728 -0.050405 0)
(1.40851 -0.0506307 0)
(1.40968 -0.0507953 0)
(1.4108 -0.0508898 0)
(1.41185 -0.0509635 0)
(1.41273 -0.0511039 0)
(1.41312 -0.05144 0)
(1.41325 -0.052071 0)
(1.4142 -0.0526746 0)
(1.41546 -0.053225 0)
(1.41691 -0.0540647 0)
(1.41848 -0.0551293 0)
(1.4198 -0.0558457 0)
(1.42099 -0.0562838 0)
(1.42202 -0.0566419 0)
(1.42261 -0.0570052 0)
(1.4222 -0.0575178 0)
(1.4223 -0.0582086 0)
(1.42349 -0.0587294 0)
(1.42488 -0.0593211 0)
(1.30077 -0.00848654 0)
(1.30177 -0.00853659 0)
(1.30282 -0.00859639 0)
(1.30392 -0.00869595 0)
(1.30499 -0.0087851 0)
(1.30594 -0.00886425 0)
(1.30649 -0.00896328 0)
(1.3065 -0.00912224 0)
(1.30702 -0.00926101 0)
(1.30801 -0.00932596 0)
(1.30905 -0.00938483 0)
(1.31015 -0.009504 0)
(1.31123 -0.00965055 0)
(1.31228 -0.00980906 0)
(1.31328 -0.0100032 0)
(1.31409 -0.0102439 0)
(1.31434 -0.0105656 0)
(1.31422 -0.0109429 0)
(1.31493 -0.0111869 0)
(1.31599 -0.0112934 0)
(1.31713 -0.0113505 0)
(1.31833 -0.011438 0)
(1.31951 -0.0115681 0)
(1.32064 -0.0117202 0)
(1.32169 -0.011928 0)
(1.32256 -0.0122225 0)
(1.32318 -0.012604 0)
(1.32407 -0.0128873 0)
(1.32512 -0.0130467 0)
(1.32622 -0.0132262 0)
(1.32747 -0.0134346 0)
(1.32895 -0.0136815 0)
(1.33014 -0.0138912 0)
(1.33121 -0.0140619 0)
(1.33224 -0.0142747 0)
(1.33311 -0.0145174 0)
(1.33343 -0.0148436 0)
(1.33283 -0.0153293 0)
(1.33312 -0.0156951 0)
(1.33407 -0.015787 0)
(1.33511 -0.0159382 0)
(1.3361 -0.0160483 0)
(1.33707 -0.0161163 0)
(1.33799 -0.0162299 0)
(1.33868 -0.016437 0)
(1.33859 -0.0168733 0)
(1.33835 -0.0175597 0)
(1.33922 -0.0180086 0)
(1.34033 -0.0182328 0)
(1.34147 -0.0183917 0)
(1.34257 -0.0185038 0)
(1.34365 -0.0186436 0)
(1.34467 -0.0188589 0)
(1.34558 -0.0191903 0)
(1.34632 -0.0196096 0)
(1.34697 -0.0199629 0)
(1.34754 -0.0202935 0)
(1.34793 -0.0206716 0)
(1.34852 -0.0210379 0)
(1.34942 -0.0213534 0)
(1.35044 -0.0217145 0)
(1.3516 -0.0221553 0)
(1.35283 -0.0227221 0)
(1.354 -0.0231653 0)
(1.35513 -0.0233943 0)
(1.35627 -0.0235602 0)
(1.3574 -0.0237457 0)
(1.35854 -0.0239939 0)
(1.35962 -0.0242953 0)
(1.36055 -0.0247039 0)
(1.36109 -0.0253754 0)
(1.36179 -0.0259399 0)
(1.36283 -0.0262 0)
(1.36393 -0.0263897 0)
(1.36506 -0.0266012 0)
(1.36623 -0.0268438 0)
(1.36745 -0.0271789 0)
(1.3687 -0.0276709 0)
(1.36987 -0.0281551 0)
(1.37096 -0.0284995 0)
(1.37193 -0.0287103 0)
(1.37269 -0.0288081 0)
(1.3729 -0.0289538 0)
(1.37244 -0.0294805 0)
(1.37262 -0.0303628 0)
(1.37353 -0.031185 0)
(1.37448 -0.0319534 0)
(1.3754 -0.0327024 0)
(1.3763 -0.0330885 0)
(1.37734 -0.0331784 0)
(1.37846 -0.0331934 0)
(1.37961 -0.0332145 0)
(1.38081 -0.0332855 0)
(1.3822 -0.0334508 0)
(1.3839 -0.0336696 0)
(1.3855 -0.0338801 0)
(1.38689 -0.0340738 0)
(1.38821 -0.0342941 0)
(1.3895 -0.0346315 0)
(1.39081 -0.0352568 0)
(1.39222 -0.0363226 0)
(1.39354 -0.0376968 0)
(1.39461 -0.0387964 0)
(1.39543 -0.0395409 0)
(1.39578 -0.0401414 0)
(1.3959 -0.040701 0)
(1.39677 -0.0410528 0)
(1.39791 -0.041221 0)
(1.3991 -0.0413865 0)
(1.40042 -0.0416278 0)
(1.40191 -0.0420174 0)
(1.40332 -0.0425264 0)
(1.40463 -0.0430521 0)
(1.40582 -0.0434636 0)
(1.40695 -0.0437406 0)
(1.408 -0.0439797 0)
(1.4088 -0.0442906 0)
(1.40915 -0.0448386 0)
(1.40981 -0.045573 0)
(1.41099 -0.0461918 0)
(1.41231 -0.0469429 0)
(1.41364 -0.0478182 0)
(1.41484 -0.0484431 0)
(1.41597 -0.0488651 0)
(1.41704 -0.0492073 0)
(1.41807 -0.0495289 0)
(1.41904 -0.0498795 0)
(1.41969 -0.0503485 0)
(1.41943 -0.0511679 0)
(1.4197 -0.0522272 0)
(1.42092 -0.053075 0)
(1.42217 -0.0540609 0)
(1.30248 -0.00475873 0)
(1.3035 -0.00496551 0)
(1.30458 -0.00516308 0)
(1.30565 -0.00528621 0)
(1.30664 -0.00537769 0)
(1.30736 -0.00549178 0)
(1.30744 -0.00566394 0)
(1.30757 -0.0058203 0)
(1.30846 -0.00588857 0)
(1.30945 -0.00593291 0)
(1.31052 -0.00604552 0)
(1.31161 -0.00621913 0)
(1.31264 -0.00637839 0)
(1.31362 -0.00654866 0)
(1.31443 -0.00674939 0)
(1.31464 -0.00701271 0)
(1.31419 -0.00733379 0)
(1.3147 -0.00753492 0)
(1.31571 -0.00761676 0)
(1.31681 -0.00769473 0)
(1.31801 -0.00784425 0)
(1.31917 -0.00800608 0)
(1.32024 -0.00812802 0)
(1.32124 -0.00828449 0)
(1.32202 -0.00850689 0)
(1.32252 -0.0087923 0)
(1.32337 -0.00898052 0)
(1.32437 -0.00907563 0)
(1.32542 -0.00919459 0)
(1.3266 -0.00929865 0)
(1.32797 -0.00939197 0)
(1.32903 -0.00948816 0)
(1.33003 -0.00960877 0)
(1.33097 -0.00980268 0)
(1.33174 -0.0100354 0)
(1.33185 -0.0103437 0)
(1.33118 -0.0107443 0)
(1.33165 -0.0109541 0)
(1.33258 -0.0109955 0)
(1.33359 -0.0110917 0)
(1.33457 -0.0111958 0)
(1.3355 -0.0112641 0)
(1.33639 -0.0113706 0)
(1.337 -0.0115344 0)
(1.33675 -0.0118563 0)
(1.3366 -0.0122745 0)
(1.3375 -0.0124774 0)
(1.33855 -0.0126285 0)
(1.33967 -0.0128953 0)
(1.34076 -0.0131377 0)
(1.34179 -0.0132829 0)
(1.34281 -0.0134082 0)
(1.34377 -0.01356 0)
(1.3446 -0.0137839 0)
(1.34498 -0.014149 0)
(1.34456 -0.0147272 0)
(1.34454 -0.0153196 0)
(1.3455 -0.0156326 0)
(1.3466 -0.0158076 0)
(1.34782 -0.0160378 0)
(1.34904 -0.0163359 0)
(1.35018 -0.0166275 0)
(1.35133 -0.0170002 0)
(1.35248 -0.0174532 0)
(1.35361 -0.0178646 0)
(1.35468 -0.0181818 0)
(1.35571 -0.0184592 0)
(1.35667 -0.0187681 0)
(1.35757 -0.0191329 0)
(1.35842 -0.0195817 0)
(1.35932 -0.0201393 0)
(1.36041 -0.0206238 0)
(1.36156 -0.020993 0)
(1.36272 -0.021258 0)
(1.36386 -0.0214642 0)
(1.36502 -0.0216919 0)
(1.3662 -0.0220237 0)
(1.36745 -0.0225356 0)
(1.36866 -0.0231332 0)
(1.36976 -0.0236223 0)
(1.37074 -0.0240238 0)
(1.37141 -0.0244419 0)
(1.37109 -0.0249744 0)
(1.37017 -0.0255677 0)
(1.37059 -0.0259567 0)
(1.37156 -0.026183 0)
(1.37254 -0.026387 0)
(1.3735 -0.0265935 0)
(1.37458 -0.0267297 0)
(1.37569 -0.0268374 0)
(1.37685 -0.0269817 0)
(1.37812 -0.027167 0)
(1.37962 -0.0273996 0)
(1.38146 -0.0277445 0)
(1.38312 -0.0282038 0)
(1.38458 -0.0287152 0)
(1.38595 -0.0293384 0)
(1.38723 -0.0300421 0)
(1.3884 -0.0307694 0)
(1.38943 -0.0314912 0)
(1.39027 -0.0321612 0)
(1.39092 -0.0327267 0)
(1.39137 -0.0331724 0)
(1.39156 -0.0335721 0)
(1.39205 -0.0339014 0)
(1.39308 -0.0340427 0)
(1.3942 -0.0341206 0)
(1.39537 -0.034257 0)
(1.39662 -0.0345011 0)
(1.39805 -0.0349038 0)
(1.39962 -0.035491 0)
(1.40103 -0.0360919 0)
(1.40226 -0.0365923 0)
(1.4034 -0.037024 0)
(1.4044 -0.0374446 0)
(1.40498 -0.0380117 0)
(1.40536 -0.0387978 0)
(1.40644 -0.0393676 0)
(1.40769 -0.0398783 0)
(1.40896 -0.040422 0)
(1.41015 -0.0408358 0)
(1.4113 -0.0411945 0)
(1.41238 -0.0415474 0)
(1.41334 -0.0419128 0)
(1.41401 -0.0423985 0)
(1.41433 -0.0432287 0)
(1.41501 -0.0443091 0)
(1.41605 -0.0453904 0)
(1.41711 -0.0464607 0)
(1.41813 -0.047297 0)
(1.41906 -0.0478743 0)
(1.41968 -0.0483539 0)
(1.3038 -0.000409385 0)
(1.30482 -0.000512095 0)
(1.30583 -0.000550076 0)
(1.30679 -0.000569254 0)
(1.30752 -0.00059217 0)
(1.30765 -0.000655752 0)
(1.30749 -0.000743876 0)
(1.30818 -0.000776314 0)
(1.3091 -0.000794212 0)
(1.31007 -0.000828364 0)
(1.31107 -0.000928877 0)
(1.31206 -0.0010714 0)
(1.313 -0.00122974 0)
(1.31377 -0.00142447 0)
(1.3139 -0.00171098 0)
(1.31327 -0.00210414 0)
(1.31372 -0.00235268 0)
(1.31471 -0.00243981 0)
(1.31579 -0.00253216 0)
(1.31696 -0.00269412 0)
(1.31805 -0.00283752 0)
(1.31906 -0.00295308 0)
(1.31996 -0.00310864 0)
(1.32056 -0.00333305 0)
(1.32092 -0.00362657 0)
(1.32177 -0.00380947 0)
(1.32274 -0.00391927 0)
(1.32377 -0.00405249 0)
(1.32494 -0.00418012 0)
(1.32628 -0.00432949 0)
(1.32729 -0.00447575 0)
(1.32824 -0.00463706 0)
(1.32912 -0.00486411 0)
(1.32969 -0.0051642 0)
(1.32938 -0.00563756 0)
(1.32917 -0.00616195 0)
(1.33 -0.00635671 0)
(1.33095 -0.00645205 0)
(1.33208 -0.006652 0)
(1.33318 -0.00688265 0)
(1.33412 -0.00702782 0)
(1.33504 -0.00718539 0)
(1.33584 -0.00737431 0)
(1.33614 -0.00764927 0)
(1.33588 -0.0080563 0)
(1.33653 -0.00835708 0)
(1.33753 -0.00856089 0)
(1.33861 -0.00886335 0)
(1.33968 -0.00916719 0)
(1.34068 -0.00936414 0)
(1.34165 -0.00950795 0)
(1.34258 -0.00963977 0)
(1.34341 -0.00980254 0)
(1.34383 -0.0100919 0)
(1.34329 -0.0106559 0)
(1.34302 -0.0113067 0)
(1.34392 -0.0116086 0)
(1.34499 -0.0117565 0)
(1.34619 -0.0119149 0)
(1.34742 -0.012088 0)
(1.34854 -0.0122534 0)
(1.34964 -0.0125122 0)
(1.35072 -0.0129064 0)
(1.35173 -0.0132936 0)
(1.35265 -0.0136135 0)
(1.35342 -0.0139924 0)
(1.35427 -0.0143697 0)
(1.35528 -0.0146305 0)
(1.35632 -0.0148878 0)
(1.35734 -0.0152466 0)
(1.35841 -0.0156926 0)
(1.35957 -0.0160805 0)
(1.36072 -0.0163831 0)
(1.36184 -0.0165979 0)
(1.36295 -0.0168118 0)
(1.36408 -0.0171094 0)
(1.36525 -0.0175661 0)
(1.36636 -0.0180713 0)
(1.36736 -0.0184517 0)
(1.36825 -0.0187382 0)
(1.36889 -0.0190029 0)
(1.36869 -0.0193243 0)
(1.36772 -0.0197232 0)
(1.3681 -0.0199783 0)
(1.3691 -0.0201073 0)
(1.37017 -0.0202637 0)
(1.37126 -0.0205189 0)
(1.37239 -0.0207996 0)
(1.37357 -0.0210585 0)
(1.37483 -0.0213456 0)
(1.37622 -0.0217167 0)
(1.37786 -0.0222386 0)
(1.37973 -0.0229552 0)
(1.38126 -0.0236343 0)
(1.38251 -0.0240803 0)
(1.38362 -0.0244183 0)
(1.3846 -0.0247302 0)
(1.38542 -0.0250371 0)
(1.38602 -0.0253596 0)
(1.38647 -0.025728 0)
(1.387 -0.0261278 0)
(1.38766 -0.0265285 0)
(1.38828 -0.026965 0)
(1.38901 -0.0274122 0)
(1.39004 -0.0277266 0)
(1.39116 -0.0279844 0)
(1.39233 -0.0282702 0)
(1.39358 -0.0285704 0)
(1.39496 -0.0289107 0)
(1.39644 -0.029335 0)
(1.39778 -0.0297852 0)
(1.39901 -0.0302377 0)
(1.40015 -0.0307266 0)
(1.40113 -0.0312596 0)
(1.40163 -0.0319669 0)
(1.40185 -0.0328238 0)
(1.40287 -0.0332667 0)
(1.40408 -0.0336038 0)
(1.40533 -0.0339766 0)
(1.40651 -0.0342467 0)
(1.40767 -0.0345152 0)
(1.4088 -0.0348397 0)
(1.40984 -0.0352451 0)
(1.41052 -0.035848 0)
(1.41021 -0.0369853 0)
(1.41055 -0.0382578 0)
(1.41177 -0.0391118 0)
(1.41316 -0.0401193 0)
(1.41438 -0.0408729 0)
(1.41549 -0.0413784 0)
(1.41648 -0.0417987 0)
(1.41718 -0.0421902 0)
(1.30486 0.00407448 0)
(1.30588 0.00399846 0)
(1.30685 0.00395267 0)
(1.30766 0.00389024 0)
(1.30795 0.00378979 0)
(1.30771 0.00364093 0)
(1.30827 0.00355078 0)
(1.30916 0.0034952 0)
(1.31013 0.00341183 0)
(1.31113 0.00325653 0)
(1.31211 0.00305096 0)
(1.31305 0.0028144 0)
(1.31379 0.00252315 0)
(1.31389 0.00210813 0)
(1.31323 0.00155527 0)
(1.31368 0.00122071 0)
(1.31466 0.00111754 0)
(1.31573 0.000983966 0)
(1.3168 0.000863326 0)
(1.31779 0.000797968 0)
(1.31872 0.000709232 0)
(1.31948 0.000572318 0)
(1.31977 0.00034803 0)
(1.32003 6.92796e-05 0)
(1.32087 -7.63272e-05 0)
(1.3218 -0.000174226 0)
(1.32279 -0.000300049 0)
(1.32391 -0.000434916 0)
(1.32515 -0.000596032 0)
(1.3261 -0.000733541 0)
(1.32699 -0.000893516 0)
(1.3278 -0.0011223 0)
(1.32831 -0.00142587 0)
(1.32793 -0.00186568 0)
(1.32781 -0.00226633 0)
(1.32865 -0.00237431 0)
(1.32958 -0.0024661 0)
(1.33066 -0.00259537 0)
(1.33183 -0.00270381 0)
(1.33276 -0.00276535 0)
(1.33367 -0.00284293 0)
(1.33456 -0.00297346 0)
(1.33532 -0.00314721 0)
(1.33564 -0.0033775 0)
(1.33557 -0.00365284 0)
(1.33626 -0.00386205 0)
(1.3372 -0.00400515 0)
(1.33814 -0.00415492 0)
(1.33907 -0.00429151 0)
(1.33998 -0.0043982 0)
(1.34087 -0.00448886 0)
(1.34169 -0.00459225 0)
(1.34218 -0.00476649 0)
(1.34176 -0.00512981 0)
(1.3414 -0.00561453 0)
(1.34219 -0.00588547 0)
(1.3432 -0.00606832 0)
(1.34429 -0.00629323 0)
(1.34537 -0.00645618 0)
(1.34642 -0.00656871 0)
(1.34745 -0.00671959 0)
(1.34842 -0.00697202 0)
(1.34926 -0.00735448 0)
(1.35004 -0.00777825 0)
(1.35081 -0.00816981 0)
(1.35166 -0.00854072 0)
(1.35268 -0.00881583 0)
(1.35377 -0.00908321 0)
(1.35486 -0.00942873 0)
(1.35594 -0.0098321 0)
(1.35705 -0.0102341 0)
(1.3582 -0.0106098 0)
(1.35937 -0.0109631 0)
(1.3605 -0.0112624 0)
(1.36159 -0.0115199 0)
(1.36265 -0.0117825 0)
(1.36366 -0.012063 0)
(1.36462 -0.0123436 0)
(1.36545 -0.0126205 0)
(1.3659 -0.0129509 0)
(1.36545 -0.0134646 0)
(1.36535 -0.014057 0)
(1.36628 -0.014379 0)
(1.36732 -0.014638 0)
(1.36839 -0.0150601 0)
(1.36951 -0.0155791 0)
(1.37069 -0.0159836 0)
(1.37193 -0.016279 0)
(1.37326 -0.0165664 0)
(1.37479 -0.0169374 0)
(1.37652 -0.0174305 0)
(1.3779 -0.0178437 0)
(1.37904 -0.0180792 0)
(1.38008 -0.0182867 0)
(1.381 -0.0184964 0)
(1.38175 -0.0187173 0)
(1.38201 -0.0190316 0)
(1.382 -0.0195523 0)
(1.38279 -0.020052 0)
(1.38386 -0.020455 0)
(1.38496 -0.0209273 0)
(1.38599 -0.0214053 0)
(1.38691 -0.0218686 0)
(1.38775 -0.0223322 0)
(1.38878 -0.0226361 0)
(1.3899 -0.0228025 0)
(1.39107 -0.0229502 0)
(1.39232 -0.0231386 0)
(1.39356 -0.0233835 0)
(1.39477 -0.0237009 0)
(1.39599 -0.0241723 0)
(1.39714 -0.0247521 0)
(1.39815 -0.0253185 0)
(1.39882 -0.0259034 0)
(1.39876 -0.0265856 0)
(1.39931 -0.0270501 0)
(1.40039 -0.0272556 0)
(1.40155 -0.027541 0)
(1.40274 -0.0278619 0)
(1.40393 -0.0281971 0)
(1.40514 -0.028637 0)
(1.40629 -0.029229 0)
(1.40724 -0.0299612 0)
(1.40743 -0.0309648 0)
(1.40678 -0.0322463 0)
(1.40751 -0.0329822 0)
(1.40869 -0.0334629 0)
(1.40999 -0.034067 0)
(1.41118 -0.0345576 0)
(1.41227 -0.034968 0)
(1.41327 -0.0353813 0)
(1.41402 -0.0358253 0)
(1.30568 0.00828407 0)
(1.30662 0.0082893 0)
(1.30752 0.00829353 0)
(1.30818 0.00828468 0)
(1.30817 0.00823246 0)
(1.30809 0.00814576 0)
(1.30884 0.00806759 0)
(1.30973 0.00798322 0)
(1.31069 0.0078585 0)
(1.31166 0.00769137 0)
(1.31259 0.00750624 0)
(1.31336 0.00729834 0)
(1.31362 0.00702603 0)
(1.31291 0.00665386 0)
(1.313 0.00640869 0)
(1.31389 0.0063463 0)
(1.31485 0.00627654 0)
(1.31579 0.00620824 0)
(1.31669 0.00615685 0)
(1.31749 0.0060822 0)
(1.31794 0.00595035 0)
(1.31773 0.00570341 0)
(1.31807 0.00546096 0)
(1.31894 0.00536582 0)
(1.31985 0.00527293 0)
(1.32084 0.00514796 0)
(1.32199 0.00499889 0)
(1.32307 0.00483074 0)
(1.32395 0.00469659 0)
(1.32479 0.00451885 0)
(1.32548 0.00428767 0)
(1.32564 0.00394023 0)
(1.32531 0.00341082 0)
(1.32586 0.00303082 0)
(1.32676 0.00288839 0)
(1.32773 0.00272387 0)
(1.32886 0.00256516 0)
(1.33015 0.00243304 0)
(1.33114 0.00233159 0)
(1.33205 0.00224393 0)
(1.33295 0.00210254 0)
(1.3338 0.0018821 0)
(1.33445 0.00155715 0)
(1.33467 0.00114524 0)
(1.33503 0.000826521 0)
(1.33587 0.000662735 0)
(1.33679 0.000530264 0)
(1.3377 0.000371864 0)
(1.3386 0.000199572 0)
(1.33948 2.76375e-05 0)
(1.34029 -0.000152148 0)
(1.34092 -0.000367374 0)
(1.34096 -0.000674342 0)
(1.34072 -0.00105285 0)
(1.34141 -0.00128736 0)
(1.34236 -0.00144463 0)
(1.34335 -0.00164588 0)
(1.34433 -0.00186904 0)
(1.3453 -0.00206505 0)
(1.34622 -0.00223979 0)
(1.347 -0.0024647 0)
(1.34748 -0.0028732 0)
(1.34825 -0.00334181 0)
(1.34923 -0.00371183 0)
(1.35019 -0.00406406 0)
(1.35111 -0.00439113 0)
(1.35203 -0.0046817 0)
(1.35301 -0.00492107 0)
(1.35403 -0.00513504 0)
(1.35508 -0.00534407 0)
(1.35617 -0.00555715 0)
(1.35725 -0.00576226 0)
(1.35827 -0.00593188 0)
(1.35928 -0.00610318 0)
(1.36029 -0.0063246 0)
(1.3613 -0.00662607 0)
(1.36226 -0.00699976 0)
(1.3631 -0.00741265 0)
(1.36348 -0.00790032 0)
(1.36321 -0.00852929 0)
(1.36374 -0.00901477 0)
(1.36474 -0.00927449 0)
(1.36577 -0.00961629 0)
(1.36682 -0.0100738 0)
(1.36792 -0.0104413 0)
(1.36905 -0.0106704 0)
(1.37023 -0.0108311 0)
(1.37155 -0.0109788 0)
(1.37307 -0.0111465 0)
(1.37433 -0.0113167 0)
(1.37542 -0.0114774 0)
(1.37644 -0.0117134 0)
(1.37737 -0.0120188 0)
(1.37806 -0.0123872 0)
(1.37812 -0.0129396 0)
(1.37822 -0.0136557 0)
(1.37915 -0.0141432 0)
(1.38024 -0.0144786 0)
(1.38141 -0.0148271 0)
(1.38253 -0.0151951 0)
(1.38356 -0.0155729 0)
(1.38446 -0.0159749 0)
(1.38532 -0.0163617 0)
(1.38632 -0.0166261 0)
(1.38739 -0.0168133 0)
(1.38849 -0.0170228 0)
(1.38962 -0.0172851 0)
(1.39077 -0.0176038 0)
(1.39194 -0.0179914 0)
(1.39313 -0.0184589 0)
(1.39428 -0.0189689 0)
(1.39533 -0.0194531 0)
(1.39623 -0.0198931 0)
(1.39664 -0.0203491 0)
(1.39641 -0.0208486 0)
(1.39698 -0.0212216 0)
(1.398 -0.0214836 0)
(1.3991 -0.0218137 0)
(1.4003 -0.0222942 0)
(1.40156 -0.0229574 0)
(1.40276 -0.0237259 0)
(1.40381 -0.0244536 0)
(1.40455 -0.0251291 0)
(1.40429 -0.0258666 0)
(1.40369 -0.0265734 0)
(1.40453 -0.0269488 0)
(1.40561 -0.027251 0)
(1.40682 -0.0277038 0)
(1.40801 -0.0282076 0)
(1.4091 -0.028658 0)
(1.41009 -0.0290951 0)
(1.41083 -0.0295684 0)
(1.30571 0.0134538 0)
(1.30661 0.01346 0)
(1.30746 0.0134409 0)
(1.30805 0.0133605 0)
(1.30803 0.0131687 0)
(1.30826 0.0129107 0)
(1.30909 0.0127059 0)
(1.31003 0.0125063 0)
(1.31099 0.0122891 0)
(1.31194 0.0120909 0)
(1.31281 0.0119047 0)
(1.31343 0.0117016 0)
(1.31338 0.0114574 0)
(1.31292 0.0112194 0)
(1.31352 0.0110937 0)
(1.31442 0.0110082 0)
(1.31532 0.0109042 0)
(1.31615 0.010757 0)
(1.3168 0.0105491 0)
(1.3168 0.0102125 0)
(1.31643 0.00974262 0)
(1.31703 0.00946243 0)
(1.3179 0.00935866 0)
(1.31883 0.00923346 0)
(1.31992 0.00909084 0)
(1.32107 0.00893633 0)
(1.32199 0.00880922 0)
(1.32283 0.00867176 0)
(1.3236 0.00847027 0)
(1.32415 0.0081944 0)
(1.32406 0.00778307 0)
(1.324 0.00735192 0)
(1.32475 0.00719115 0)
(1.32562 0.00713956 0)
(1.32658 0.00704222 0)
(1.32777 0.00695121 0)
(1.32906 0.00685415 0)
(1.33 0.00675302 0)
(1.33088 0.00665233 0)
(1.33173 0.00651368 0)
(1.33253 0.00633564 0)
(1.3332 0.00610626 0)
(1.3335 0.00580979 0)
(1.33385 0.00554149 0)
(1.33464 0.00541144 0)
(1.33552 0.00532958 0)
(1.3364 0.00523526 0)
(1.33727 0.00511182 0)
(1.33811 0.00495571 0)
(1.33884 0.00476444 0)
(1.33929 0.00452723 0)
(1.33934 0.00424151 0)
(1.33972 0.00401817 0)
(1.34055 0.00393293 0)
(1.34148 0.00387784 0)
(1.34242 0.00379397 0)
(1.34336 0.00367107 0)
(1.34426 0.00351898 0)
(1.34503 0.00333604 0)
(1.34539 0.0030643 0)
(1.34539 0.00262951 0)
(1.34612 0.00227874 0)
(1.3471 0.00202877 0)
(1.34808 0.0017143 0)
(1.34901 0.00141062 0)
(1.34986 0.00118731 0)
(1.3507 0.00104104 0)
(1.3516 0.000947595 0)
(1.35255 0.000873503 0)
(1.35351 0.000784481 0)
(1.35448 0.000648717 0)
(1.35547 0.000446379 0)
(1.35652 0.000168544 0)
(1.3576 -0.000192917 0)
(1.35868 -0.000651254 0)
(1.35969 -0.00119293 0)
(1.36055 -0.00178076 0)
(1.36103 -0.00244704 0)
(1.36123 -0.00314517 0)
(1.36196 -0.00353738 0)
(1.36293 -0.0037146 0)
(1.36393 -0.00390262 0)
(1.36496 -0.00409842 0)
(1.36601 -0.0042549 0)
(1.36712 -0.00438705 0)
(1.36838 -0.00452867 0)
(1.36974 -0.00470357 0)
(1.37091 -0.00489147 0)
(1.37197 -0.00510279 0)
(1.37298 -0.00540624 0)
(1.3739 -0.00577606 0)
(1.3746 -0.00620908 0)
(1.37471 -0.00681492 0)
(1.37465 -0.00759884 0)
(1.37542 -0.00815903 0)
(1.37645 -0.00848579 0)
(1.37766 -0.00883986 0)
(1.37918 -0.00931378 0)
(1.38041 -0.00966554 0)
(1.38145 -0.00985895 0)
(1.38236 -0.0100869 0)
(1.38298 -0.010424 0)
(1.38377 -0.0107796 0)
(1.38477 -0.0110731 0)
(1.38582 -0.0114447 0)
(1.38697 -0.0119182 0)
(1.38819 -0.0124483 0)
(1.38938 -0.0129455 0)
(1.3905 -0.0133508 0)
(1.39158 -0.013708 0)
(1.39262 -0.0140532 0)
(1.39361 -0.0143812 0)
(1.39446 -0.0146863 0)
(1.39488 -0.0150019 0)
(1.39457 -0.0154104 0)
(1.39483 -0.0158904 0)
(1.39579 -0.0162883 0)
(1.39687 -0.0167565 0)
(1.39807 -0.0174242 0)
(1.39925 -0.0181676 0)
(1.40032 -0.0187766 0)
(1.40126 -0.0192558 0)
(1.40195 -0.0196699 0)
(1.40176 -0.0201001 0)
(1.4011 -0.0205949 0)
(1.40178 -0.0209969 0)
(1.40281 -0.0213235 0)
(1.40397 -0.0217974 0)
(1.40522 -0.0224242 0)
(1.40635 -0.0229668 0)
(1.40739 -0.0233884 0)
(1.40831 -0.0237606 0)
(1.30594 0.0182305 0)
(1.30681 0.0181972 0)
(1.30755 0.0180944 0)
(1.30791 0.0178636 0)
(1.30795 0.0174971 0)
(1.30855 0.0171991 0)
(1.30941 0.0169951 0)
(1.31035 0.016821 0)
(1.31127 0.0166787 0)
(1.31216 0.0165609 0)
(1.31295 0.0164472 0)
(1.31348 0.0163218 0)
(1.31347 0.0161966 0)
(1.31326 0.0161005 0)
(1.31372 0.0160169 0)
(1.31446 0.015932 0)
(1.31518 0.0158247 0)
(1.31564 0.0156485 0)
(1.3153 0.0153226 0)
(1.31499 0.0149376 0)
(1.31567 0.0147959 0)
(1.31648 0.0147522 0)
(1.31738 0.0146745 0)
(1.31844 0.0145971 0)
(1.31941 0.01452 0)
(1.32024 0.0144528 0)
(1.32104 0.0143376 0)
(1.3217 0.0141668 0)
(1.32191 0.0138948 0)
(1.32169 0.0134871 0)
(1.32219 0.0132061 0)
(1.32301 0.0131365 0)
(1.3239 0.0130693 0)
(1.32494 0.0129832 0)
(1.32624 0.0128911 0)
(1.32736 0.0127674 0)
(1.32825 0.0126452 0)
(1.32908 0.0124831 0)
(1.32985 0.0122823 0)
(1.33046 0.0120344 0)
(1.33084 0.0116977 0)
(1.33137 0.0113488 0)
(1.33219 0.0111255 0)
(1.33308 0.0109824 0)
(1.334 0.0108333 0)
(1.33491 0.010672 0)
(1.33579 0.0104962 0)
(1.3366 0.010265 0)
(1.33721 0.00996502 0)
(1.33745 0.00962464 0)
(1.33782 0.00934231 0)
(1.33861 0.00919401 0)
(1.33953 0.00912133 0)
(1.34049 0.00902659 0)
(1.34146 0.00885978 0)
(1.34242 0.00864556 0)
(1.34332 0.00841651 0)
(1.3441 0.00816535 0)
(1.34445 0.00783117 0)
(1.34422 0.00736973 0)
(1.34474 0.00703306 0)
(1.34566 0.00684653 0)
(1.34658 0.0066482 0)
(1.34746 0.00645339 0)
(1.34821 0.0062505 0)
(1.3489 0.00603076 0)
(1.34982 0.00590433 0)
(1.3508 0.00580701 0)
(1.35182 0.00564407 0)
(1.35281 0.00543722 0)
(1.3538 0.00516704 0)
(1.35483 0.00479021 0)
(1.35595 0.00428228 0)
(1.35705 0.00371978 0)
(1.35805 0.00324968 0)
(1.35894 0.00285947 0)
(1.35962 0.00249436 0)
(1.35993 0.00213515 0)
(1.36047 0.00192493 0)
(1.36137 0.00186466 0)
(1.36231 0.00183228 0)
(1.36328 0.00181279 0)
(1.36428 0.00180016 0)
(1.36538 0.00177434 0)
(1.36657 0.00168926 0)
(1.36766 0.00153672 0)
(1.36868 0.00130939 0)
(1.36967 0.000968072 0)
(1.37057 0.000587949 0)
(1.37133 0.000206061 0)
(1.37164 -0.00024674 0)
(1.37137 -0.000865957 0)
(1.37177 -0.00142483 0)
(1.37268 -0.00174872 0)
(1.3737 -0.00207965 0)
(1.37492 -0.00254577 0)
(1.37652 -0.0031265 0)
(1.3779 -0.00359449 0)
(1.37898 -0.00381983 0)
(1.37996 -0.00399805 0)
(1.38072 -0.00424507 0)
(1.38116 -0.00463339 0)
(1.38184 -0.00508553 0)
(1.38278 -0.00553781 0)
(1.38384 -0.00605654 0)
(1.38506 -0.00661466 0)
(1.38636 -0.00716864 0)
(1.38748 -0.00755016 0)
(1.38853 -0.00784596 0)
(1.38956 -0.00816443 0)
(1.39055 -0.00850187 0)
(1.39149 -0.00882496 0)
(1.39234 -0.00912916 0)
(1.39284 -0.0094583 0)
(1.39256 -0.00991286 0)
(1.39262 -0.0104642 0)
(1.39352 -0.010895 0)
(1.39456 -0.0113579 0)
(1.39567 -0.0119676 0)
(1.39677 -0.0126173 0)
(1.39779 -0.0131907 0)
(1.39873 -0.0136659 0)
(1.39949 -0.0140659 0)
(1.39971 -0.0144382 0)
(1.39918 -0.0148357 0)
(1.3995 -0.0152202 0)
(1.40045 -0.0155245 0)
(1.40148 -0.0158867 0)
(1.40265 -0.0163971 0)
(1.40391 -0.0170221 0)
(1.40502 -0.0174921 0)
(1.40606 -0.0178012 0)
(1.30556 0.023935 0)
(1.30634 0.0238711 0)
(1.30677 0.0236899 0)
(1.30684 0.0233133 0)
(1.30741 0.0229415 0)
(1.3083 0.0226726 0)
(1.30926 0.0224224 0)
(1.3102 0.0222258 0)
(1.31111 0.0220854 0)
(1.31196 0.021969 0)
(1.31268 0.0218421 0)
(1.31313 0.0216827 0)
(1.31311 0.0214881 0)
(1.313 0.0212927 0)
(1.31336 0.0211379 0)
(1.31389 0.0209972 0)
(1.31417 0.0207951 0)
(1.31388 0.020439 0)
(1.31402 0.0200977 0)
(1.31478 0.0199818 0)
(1.3156 0.0198815 0)
(1.31653 0.0197325 0)
(1.31758 0.0195574 0)
(1.31847 0.0194109 0)
(1.31927 0.0192906 0)
(1.31999 0.0191365 0)
(1.3205 0.0189289 0)
(1.32046 0.0186122 0)
(1.32055 0.0182735 0)
(1.32128 0.0181349 0)
(1.32211 0.0180761 0)
(1.32304 0.0179634 0)
(1.32421 0.0178278 0)