/*--------------------------------*- C++ -*----------------------------------*\
  =========                 |
  \\      /  F ield         | OpenFOAM: The Open Source CFD Toolbox
   \\    /   O peration     | Website:  https://openfoam.org
    \\  /    A nd           | Version:  7
     \\/     M anipulation  |
\*---------------------------------------------------------------------------*/
FoamFile
{
    version     2.0;
    format      ascii;
    class       volScalarField;
    location    "0.298";
    object      p;
}
// * * * * * * * * * * * * * * * * * * * * * * * * * * * * * * * * * * * * * //

dimensions      [0 2 -2 0 0 0 0];

internalField   nonuniform List<scalar> 
12359
(
0.0681779
0.0772663
0.0529712
0.108521
0.0714486
0.154449
0.18906
0.170935
0.227068
0.142525
0.207529
0.280609
0.492398
0.11576
0.104219
0.395752
0.449428
0.0569455
0.0566234
0.0889297
0.124086
0.254393
0.0833506
0.0948151
0.0800631
0.0857403
0.0539798
0.0538427
0.0559984
0.0544238
0.054774
0.0534003
0.0531076
0.054173
0.0529989
0.0549578
0.0619829
0.0667638
0.0701939
0.0641583
0.0750891
0.0653913
0.0596045
0.0588827
0.055381
0.055698
0.0551779
0.0545635
0.0562935
0.0540605
0.0537738
0.0535805
0.053314
0.0573447
0.0532506
0.0531437
0.0583963
0.053094
0.0531039
0.0530544
0.0531602
0.0529771
0.053632
0.50954
0.0578753
0.132261
0.0611531
0.0535836
0.062406
0.351319
0.53515
0.0733139
0.0529634
0.0633793
0.0995574
0.0529931
0.0533245
0.0529787
0.0602725
0.319323
0.130157
0.0484482
0.0521729
0.0536156
-0.0579315
0.028213
0.0482717
0.0509686
-0.0580295
-0.0521064
0.0527681
0.471341
0.0527548
0.0524424
0.0523704
0.0092977
0.0519445
0.0526758
0.060805
0.0573491
0.109265
0.0528719
0.02851
-0.110437
0.0472486
0.015788
0.0519699
-0.0552938
0.0322349
0.0154496
0.051965
0.0485757
0.111652
0.0918524
0.0526021
0.0494088
0.0951915
0.0475484
-0.0605024
0.0522006
0.0521426
0.17666
0.0508897
0.00702137
0.047338
0.0491375
0.0399701
0.0533826
0.0529732
0.0472378
0.0496364
-0.00222295
-0.00330792
-0.00207637
0.052003
0.00808109
0.0494572
0.00830748
0.0529038
0.0389061
0.0523171
0.0695009
0.0171914
0.0519782
0.0103914
0.146263
0.0521792
-0.0448768
0.0471128
0.12994
0.00213505
0.0528889
0.0174585
0.0507508
0.0526944
-0.171164
0.109784
-0.00162144
0.0519701
0.0535209
0.047823
0.0535096
0.005049
0.0143364
0.0521512
0.0492249
0.0489564
0.176346
0.0160241
-0.0625473
0.052975
0.0529818
0.0148364
0.080129
0.0473178
0.0435957
0.0560465
0.0558316
0.111991
0.044809
0.115271
0.0526692
0.0529723
0.0481095
0.0592792
0.208233
0.047529
0.0516536
0.00600154
0.0471622
0.0519108
0.00963497
0.0139771
0.0506896
0.0148626
-0.113716
0.0357306
0.0483111
0.0179556
0.0476823
0.151002
0.00490038
0.0583333
0.0159814
0.0142114
0.0526503
0.0133151
0.058921
0.00256289
0.0463777
0.0524393
4.0773e-05
0.000171253
-0.588273
0.199534
0.0529005
0.0480378
0.052622
0.0478239
0.0701287
0.102855
0.046543
0.00720401
0.467318
0.0468578
0.0524152
0.0710036
0.03202
0.0471835
0.0490773
0.0489592
0.0521522
0.0114755
0.0586936
0.0511937
0.0576279
0.0521964
0.0169142
0.0513674
0.284426
0.0521186
0.0261025
0.0516966
0.0562156
0.0472853
-0.0446409
0.0530698
0.00284623
0.0480503
0.0142139
0.00280113
0.0661957
0.0554116
0.0493406
0.332203
-0.608694
0.0522062
0.0462954
0.383212
-0.0390716
0.0578517
0.0481742
0.0469113
0.0143956
0.0786096
-0.495575
-0.0553883
0.0471631
0.0465959
0.00842578
0.0148116
0.0633394
0.0159356
0.0495845
0.0462406
0.0521295
0.0464652
-0.109637
0.0457413
0.0518686
0.0528587
0.0141137
0.044319
0.0613407
0.0264972
0.0522577
0.0489639
0.0528819
0.0528629
0.0534951
0.00528684
0.0480643
-0.486672
0.0519825
0.0519715
0.0284183
0.0481726
0.103098
0.0526222
0.0538109
0.0527823
-0.0983422
0.0467531
0.0527877
0.0482315
0.0521348
0.0474057
0.0491271
0.0496056
0.0479049
0.0570599
0.202606
0.0472763
0.05487
0.0668029
0.024649
-0.0448937
0.0471662
0.0614321
0.373422
0.0528557
0.0220192
0.0518592
0.0360314
0.0519702
0.0467093
0.222349
0.0211932
0.206931
0.0607088
0.0512584
0.0140501
0.0068839
0.0511156
0.0134785
0.0145175
0.0516395
0.0532286
0.053224
0.0532863
0.0532592
0.284569
0.0522398
0.107047
0.00118857
0.0582517
0.0155785
0.0213761
0.0287169
0.0369136
0.0204672
0.0371466
0.060197
0.022687
0.0240885
0.093834
0.0704377
0.0170734
0.0685711
0.0685556
0.0186427
0.107866
0.0488827
0.0533265
0.0343534
0.0532879
0.0486857
-0.214104
0.508495
0.0488704
0.0529262
0.0520203
0.0525716
0.020362
0.0526934
0.0526805
-0.0680884
0.0147405
-0.0483573
0.0507043
0.0120552
0.0443246
0.0519852
0.017334
0.034261
0.111762
0.0345717
0.0491885
0.0518451
0.0141967
0.011907
0.0462086
0.297517
0.0175639
0.00824282
0.0524502
0.0491971
0.0529055
0.404479
0.0145188
0.0507762
0.0636116
0.0676632
0.0523306
0.0523069
0.0525184
-0.0567817
0.102342
0.0624896
0.0208897
0.00199036
0.0527459
0.11556
0.052183
-0.000372638
-0.0488589
0.303389
0.0573976
0.0938023
0.0317333
0.0244086
0.0389031
0.033989
0.0544861
0.0389353
0.0177939
0.0526893
-0.0369566
0.0618585
-0.00420118
0.0100358
0.058734
0.09864
-0.152666
0.019895
0.0425471
0.00834655
0.0100209
0.0212231
0.0477563
0.0524663
0.0559245
0.0519691
-0.00279333
0.0496664
0.0854659
0.0878735
0.0405857
-0.0530445
0.107239
0.0569541
0.0510583
0.394367
0.0516856
0.050774
0.0077897
0.052931
0.0509069
0.050763
0.242257
0.186672
0.0531767
0.0509535
0.111933
0.0505221
0.021207
0.0170658
0.0153022
0.0515869
0.0525529
0.0509997
0.052806
0.0876993
0.0218179
0.0248219
0.0556377
0.0546055
0.00502785
0.0545721
0.0501329
0.0460212
0.121906
0.00691992
0.0528825
0.050629
0.014112
0.0340618
0.0513348
0.0492412
0.1159
0.0217525
0.00893798
0.0231109
0.0515361
0.0504148
-0.00307173
-0.00366998
0.0527902
0.0397645
0.0509206
0.00662585
0.293529
0.052502
0.0498557
0.0516514
0.0172122
0.0568602
0.0562196
0.049327
0.052614
0.0329942
0.0785528
0.0427183
-0.0324062
0.0519014
-0.0380096
0.0509921
-0.131682
0.020965
-1.45729e-05
0.0530883
0.0553938
0.0242131
0.0481928
0.0537195
0.0598208
0.0575893
0.0576219
0.0716753
0.0157031
0.0154595
0.0521846
0.0479233
0.0215615
-0.00321655
0.0521839
0.0518487
0.0142828
0.0516485
0.226468
-0.154023
-0.0534187
0.0521854
0.0448503
0.00147008
0.0564874
0.0476488
0.45344
0.0518928
0.117027
0.090656
0.044756
0.0478933
0.0538649
0.0410348
0.000693077
0.0334109
0.0549418
0.0522099
0.0529746
0.0568447
0.0560259
0.0577563
0.0164205
0.0535191
0.0518918
0.0228113
-0.0442312
0.0546658
0.000161987
0.0520292
0.0554971
0.0974829
0.00191661
0.00277201
0.0989016
0.0489469
0.00199835
0.0523584
0.0530188
0.00351692
0.0403784
0.0484342
0.0405026
0.0526224
0.0518595
0.0487526
0.0518558
0.00154236
0.104608
0.0621106
0.1195
0.0178547
0.0424504
0.114616
0.065533
-0.00394326
0.0153744
0.066613
0.0571457
0.053041
0.0411485
0.0232481
0.0521808
0.0529386
0.0516305
0.053077
-0.0126248
0.0401901
0.0371652
0.106748
0.0601751
0.239481
0.00623091
0.00242616
0.0484071
0.000976168
0.0526083
0.0526989
0.0517142
0.110822
0.116363
0.0495965
0.0334736
0.210569
0.017696
0.00742062
0.0414712
0.064877
-0.131803
0.0513116
0.0539099
0.0526366
-0.00724799
0.0537904
0.0343307
-0.0522152
0.0518887
0.0799643
0.0595289
0.0444187
0.0549949
0.049786
0.0533315
0.0563612
0.0533882
0.0532707
0.0559503
0.00692631
0.0121287
0.0443829
0.339757
0.00178698
0.426728
0.0194992
0.0271266
0.0562469
0.0205635
0.0593845
0.0112361
0.331507
0.0999243
0.058337
0.0465838
0.0573159
0.0560134
0.023632
0.0524605
-0.00432647
0.0533853
0.101812
0.0509644
-0.0110357
0.0100143
0.0132601
0.0588621
0.0420342
0.0103478
0.0799464
0.00746459
0.0431807
0.00551739
0.0458928
0.0522183
0.0528156
-0.234245
0.0720773
0.0452141
0.0521389
0.0535906
0.0574665
0.0853765
0.0122155
0.0202039
0.0516201
0.0467596
0.0578466
0.0450655
0.0429399
0.00438025
0.0586679
0.0594169
0.0111035
0.0467614
0.0434823
0.106759
0.0521826
0.0587123
-0.285351
0.0530736
0.00946071
0.0543892
0.0439187
0.090732
0.0112917
0.0539323
0.0207342
0.0525338
0.112814
0.0468431
0.0142431
0.0130544
0.114713
0.0523971
0.00101105
-0.00312532
0.0589857
0.0454078
0.0475369
0.0395261
0.235294
0.0566276
0.0529099
0.0575199
0.0527072
-0.125384
0.0446982
0.0121455
0.0345844
0.0207959
0.532207
0.0449572
-0.0573572
0.0126471
-0.050276
0.020921
0.0548081
0.0449368
0.0346792
-0.044899
-0.0332985
0.0510034
0.0510576
0.119749
0.0504438
0.204438
0.0223385
0.0700991
0.0477562
0.392466
-0.106147
0.0452248
0.0522267
0.0522719
0.0958707
0.0575177
0.0622728
0.054957
0.0172312
0.0795307
-0.0151471
0.35921
0.0516654
0.0852028
0.0164468
0.124205
0.0468365
0.116758
0.00920384
0.0968318
0.0551735
0.052143
0.0115432
0.00849608
0.0204907
0.119681
0.0146069
0.0280365
0.0539307
0.0516571
0.0418292
0.249668
0.0417576
0.0137363
0.0689594
0.0224494
0.039224
0.0555689
-0.00215762
0.0354326
0.046348
-0.00736907
0.0608345
0.029386
0.19262
0.0522108
0.035111
0.0525836
0.0595121
0.0493143
0.0535977
0.0521844
0.00360744
0.0463132
0.0801849
0.0148005
0.0972451
0.0336751
0.0342885
0.0122313
-0.211842
0.0530538
0.05932
0.028346
-0.0717516
0.00900515
0.0523151
0.51959
0.052153
0.0472472
-0.178076
0.0575414
0.0526211
0.0526514
0.0675437
0.0917594
0.0530568
0.0585382
0.111336
0.0531343
0.0557877
0.0552892
0.0512978
0.0926102
-0.0137306
0.0565147
0.117684
0.0126784
0.013339
0.00701957
0.0172828
0.0553085
0.0471411
-0.0379863
0.00568608
0.0753198
0.0513934
0.0531031
0.119409
0.000953954
0.0363066
0.0396434
0.0360082
0.0549002
0.0463612
0.0857945
-0.253722
0.348834
0.084633
0.052884
0.0464112
0.0818291
0.3533
0.112678
0.0523484
0.00262616
-0.00966733
-0.249036
0.0390808
-0.178622
0.0530746
0.0551236
0.0531135
0.00852978
0.0772267
-0.174563
0.0468638
-0.0868039
0.0502362
0.053314
0.0121142
0.0568128
0.00349687
-0.0341959
0.0582967
0.0381878
0.0272852
0.0394777
0.0581412
0.077238
0.0750585
0.0336954
0.0787668
0.0583239
0.0531506
0.0553943
0.0536176
0.10704
0.0255129
-0.00454727
0.00505925
0.0878091
0.0267994
0.0256733
0.0453941
-0.0105304
0.0371024
0.0577014
0.0526503
0.00219168
0.110527
0.0469734
0.0424792
0.0592332
0.0255954
0.104522
0.116945
0.026013
0.27454
0.0247264
0.0887079
-0.0309099
0.0564811
0.018952
0.013097
0.0507307
0.0368143
0.0430352
0.0468138
0.0523508
0.0486314
-0.010947
0.00135552
0.047841
-0.0989618
0.102862
0.0535281
0.051655
0.00392163
0.0534761
0.0783484
0.0155007
0.00696563
0.0533823
0.0555601
0.0520428
0.0534512
0.119821
-0.133873
0.053495
0.0566682
0.0521911
-0.1441
0.0238839
0.0169901
0.051974
0.0534034
0.0550853
0.0269135
0.0854388
0.029997
0.0506702
0.0555258
0.0533316
0.0231387
0.0860738
0.0423855
0.0529358
0.0332747
0.0273595
0.0777212
0.0488519
-0.0135977
0.144835
0.0506614
0.0351539
0.0552665
0.0463191
-0.206975
0.0581702
0.0535376
0.0133439
0.106706
0.0844803
-0.141107
0.0784629
0.0379255
0.0293044
0.0592293
0.0428356
0.0376466
0.0584622
0.146905
0.0528911
-0.338049
0.08539
0.179082
0.0427472
-0.00420102
0.0975385
9.18596e-05
0.265211
0.0082574
0.0288187
0.0368071
0.041174
0.0521681
0.0466929
0.0900461
0.00253586
0.0586648
0.0507495
0.00776184
0.0191327
0.00782219
0.0823666
0.0027659
0.00738723
0.051564
0.0727724
-0.0399863
0.0888855
0.0521383
0.0378835
0.0561162
0.0521387
0.0717157
0.0530634
0.0466964
0.243846
0.0940806
-0.0138563
0.0530959
0.0525167
0.0527383
0.0588147
0.0563613
0.000165152
0.0565035
0.0524194
-0.0154908
0.0237351
0.00747662
0.0713784
0.0520677
0.0448276
0.0927153
0.0372351
0.0531255
-0.0383593
0.0131674
0.113798
0.0529366
-0.255762
0.0992065
0.0531029
0.00368196
0.0393267
-0.0119648
0.0386711
0.00344563
0.0966516
0.0522061
0.0546703
0.0248034
0.0398526
0.0572551
-0.00412982
0.0576937
0.0578605
0.0979153
0.0500825
0.056127
0.0383878
0.0118417
0.0512537
0.0577313
0.0558169
0.0520645
0.0985745
-0.0372557
0.0284009
0.0589238
0.0562443
0.044718
0.0521007
-0.191831
0.0815527
0.0528731
0.0734197
0.0448244
0.101202
0.153528
0.000968719
0.0577538
0.0075881
0.000702314
0.0519707
0.0431876
0.00216792
0.0473648
0.0529199
0.0748528
0.0297732
0.0563889
0.0529456
0.0438757
0.0859849
0.0534735
0.033199
0.0530696
0.0428488
0.0695025
0.134601
0.0525513
-0.202467
0.0824582
0.0182511
-0.102837
0.0944606
0.0342336
-0.0290555
0.0593399
0.13995
0.210078
0.0562271
0.0471197
0.0470616
0.0546304
0.056483
0.0083885
-0.0776663
-0.143437
0.0103783
0.148099
-0.00548248
0.0115994
-0.0386456
0.0523886
0.0548532
0.0478955
0.0273059
0.0521808
0.00970479
0.0394441
-0.00485885
0.0522352
0.0552494
0.050334
-0.157738
0.1198
0.080328
0.0640812
0.124768
0.0472634
0.0534386
-0.0143775
0.0391997
-0.0105791
0.008872
0.024814
0.00680866
0.0173932
0.0598533
0.051806
0.0521624
-0.127342
0.0430013
0.0432832
0.054282
0.0049144
0.0206192
0.052591
0.0220174
-0.0111697
-0.000416064
0.0962386
0.0560513
0.0525873
0.00657074
0.0589237
0.0523569
0.00175917
0.00973924
0.0560363
0.138338
0.00129775
0.0526822
0.0525769
0.0520185
0.108925
-0.142082
0.0414669
0.0123913
0.0553922
0.0556381
0.013216
0.0528429
0.181583
0.0174303
-0.035901
0.153427
0.0331178
0.0517143
0.0522168
0.0358351
0.0590943
0.0518226
-0.184714
0.00744945
0.0463255
0.218834
0.103414
0.0470397
0.0521863
0.0525953
0.0548421
-0.0677125
0.160588
0.0355686
0.0796566
0.0690531
0.008194
-0.0774016
0.0253316
0.0572085
0.0554102
0.0184257
0.0441106
0.0516511
0.0548181
0.00611073
0.0563804
0.035273
0.0580911
0.0837621
-0.00801917
0.0497922
0.0549202
-0.00078547
0.00519889
0.0616122
0.0546865
0.0787851
-0.000225713
0.0407689
0.0191803
0.0763603
0.0195257
-0.0253205
0.0560013
0.15646
0.0518755
0.105393
0.00280739
0.0528078
0.0523077
0.389406
0.0528269
0.0586317
0.0276153
0.0575894
0.0577086
0.0605944
0.0527443
0.0527129
8.53074e-05
-0.0232906
0.0506642
0.344684
0.040125
0.054624
0.244078
0.0989554
0.0568505
0.0483142
0.0542993
0.0901723
-0.280539
0.0574234
0.0506064
0.0519839
0.0547941
0.0662293
0.0184213
0.0569771
0.0672448
0.055824
-0.159268
-0.0044571
0.0098651
0.111809
0.0398489
0.0547112
0.0062389
-0.117263
0.0558726
0.052173
0.0546494
0.0471184
0.0575202
0.0515073
-0.00115482
0.047952
0.0467492
0.30486
-0.00111857
-0.00524366
0.00562084
0.0573722
0.00227307
0.0872533
-0.0886783
0.0505007
0.0114807
0.0528326
0.241006
0.0522331
0.0522901
0.0322748
0.0520104
0.0277431
0.0619174
0.0576347
0.0502866
-0.0794815
0.0877975
0.0130369
0.0548843
0.0375974
-0.0364127
-0.00475506
0.0811275
0.0771955
0.0528492
0.0581471
0.0493446
0.0546554
0.0506488
0.0548475
0.0917791
0.0754742
0.00908983
-0.104121
0.0266677
-0.00673255
0.0340284
-0.110646
0.0514834
-0.026426
0.0547345
-0.0101657
-0.0025462
0.0273862
0.0523039
0.0312843
0.0122598
0.0345304
-0.00662046
0.240015
-0.10403
0.0546835
8.75793e-05
0.0472011
-0.00195833
0.0902736
0.00612512
0.0478357
0.0605934
0.0121239
0.0554827
0.0385168
0.052769
0.0466436
0.0522326
0.0582778
0.00780087
0.00144429
0.0523884
0.0863536
-0.0776835
0.488842
0.0518203
0.0755816
0.029555
0.20056
0.033168
-0.184531
-0.0341969
0.050097
0.0265094
0.0675022
0.177367
0.0454698
0.0699546
0.0796559
0.0503063
-0.0866624
-0.00189183
0.0546154
0.0263849
-0.0259592
0.0781687
-0.0772557
0.0408431
0.0796304
0.0567533
0.0518256
0.0582646
0.0473168
-0.0728768
-0.00032118
-0.0614935
0.0533521
-0.069899
0.0320559
0.00574055
0.112535
0.027163
0.0300068
-0.0513124
0.0406169
0.039725
0.00652139
0.0692706
0.0273165
0.0105361
0.0720094
-0.08948
0.0873305
0.0363197
0.0885828
0.0533332
0.11222
0.000149536
0.0996595
0.0559918
-0.031777
0.0524363
0.03555
0.0104942
-0.000502033
0.059714
0.00735345
0.0453852
0.506749
0.0582563
0.00666402
0.0931282
3.9278e-05
0.00889706
0.0525422
0.0333747
0.0521782
0.46007
0.0526396
0.0523177
0.0520178
-0.0110928
0.0467827
0.046232
-0.00706372
0.0301847
0.0664948
0.0468423
0.0522939
0.10767
0.0507535
0.106019
0.00960896
0.0878024
0.041074
0.0446508
0.02797
-0.011907
0.0112361
0.0458794
0.53714
0.052628
0.0523465
0.0583799
-0.0800338
0.0559475
0.0332976
0.0791745
0.0563777
0.044197
0.00497708
-0.0196103
0.0352118
-0.0421874
0.0573018
0.0478803
0.01632
0.0213638
-0.000205579
0.0546667
0.0278867
0.0740222
0.203915
0.0394237
0.0523324
0.0468387
0.178958
0.0529447
0.0529454
-0.0343683
0.0337949
-0.0397786
0.0443214
0.0522374
0.191937
-0.0107887
0.0470944
0.0576277
0.0506433
-0.100419
0.0529526
0.0355358
-0.0238669
0.052945
0.0522808
0.0110445
0.051849
0.0529554
0.015355
0.0516676
0.0521963
0.0234067
0.0519229
-0.0104766
0.0522348
0.0586495
0.121537
0.00973178
0.0529574
0.00746555
-0.180825
0.0443865
0.076167
0.0504694
0.0337663
0.050999
-0.0152033
-0.00303198
0.0483289
0.0522865
0.134018
0.0302018
0.0178959
0.0136549
0.130759
0.0518618
0.00804992
0.0522742
-0.0161544
-0.00349709
-0.00190984
0.00963189
0.157284
-0.0694862
0.00650567
0.0124181
0.0480121
0.0548243
0.00307851
0.138522
0.100458
0.0358918
-0.0707102
0.0518272
-0.0598763
0.205894
0.0516071
-0.00462668
-0.0104167
0.0827799
0.00982548
0.00912547
0.0747478
0.0522901
-0.00934158
-0.0642418
0.247167
0.0573885
0.00374424
-0.0265549
0.1457
0.0541067
0.0522494
0.00743902
-0.0496461
0.0417053
0.0694323
0.0525306
0.051843
0.0592081
0.0571515
0.0275424
0.0579352
0.0522373
-0.0139413
0.0384746
-0.0216979
0.0179695
0.0524965
0.0522843
0.146746
0.0569297
0.0821257
0.0610505
-0.0360144
0.0830392
0.0515284
-0.0208406
0.0614766
0.0522095
0.0301718
0.039087
0.0441668
0.0950403
0.027746
-0.117225
0.0418345
0.0520155
-0.0234905
0.0519787
-0.00433469
0.0331119
-0.025292
-0.0442586
0.0978881
-0.0279313
0.0525321
-0.00583365
0.0562001
0.0739078
-0.0197053
0.0212776
-0.0201437
-0.062436
0.172304
-0.00835881
0.0602355
0.0514934
0.052109
0.051957
-0.0275724
0.139845
0.0515472
-0.0115633
-0.0154336
0.0167223
0.00447525
0.0299142
0.110616
-0.0233452
0.0568953
0.0141524
0.0268433
0.0528285
0.0528452
0.054113
0.0572349
0.0134274
0.0524247
0.0545601
0.0584045
0.0760384
0.000681194
0.0519987
-0.0155572
0.05223
0.00654502
0.014931
0.0544659
0.0423839
0.00359175
-0.0165667
0.0388736
0.0782483
0.0570521
0.0286416
0.0343287
0.0522994
0.0562703
0.056426
0.0545252
0.0523496
0.0715587
0.0523369
0.126751
0.0146927
-0.0904291
0.0523553
0.0616969
0.0524551
0.0522322
0.1258
0.0609614
0.0516729
0.335224
0.135609
0.0389773
0.0669441
0.0388438
0.12178
0.0227706
0.0106778
0.0560148
0.0583705
0.0522853
0.0528758
-0.00863059
0.0518829
0.05417
0.126173
0.0544842
0.0561471
0.0305592
0.052247
-0.0309611
0.0523848
0.054118
0.00922502
0.01116
-0.0562397
0.110257
0.0725725
0.054337
0.00930709
0.054281
0.0269078
0.00709354
0.0583181
-0.0261146
0.0529961
0.0286467
0.0721311
0.054338
0.10324
0.0523724
0.0582116
0.0522916
0.0308831
0.0518035
0.0540629
0.0263769
0.0481869
0.0726715
0.0290447
0.0523183
0.028827
0.0142251
0.0581765
0.0102161
-0.0113646
0.0522781
0.0328099
0.109921
0.00481312
0.058608
0.0457798
0.0461182
0.0272044
0.0592394
0.153906
0.0569576
0.0524164
0.0524498
-0.0154196
-0.0066111
-0.0174049
0.297059
0.101765
0.0527319
0.0281732
0.0130509
0.0527701
-0.045347
0.0565045
0.103073
-0.000362341
0.0541642
0.145756
-0.00559917
-0.0127174
0.0249955
0.0306223
0.0526893
0.0519658
0.0634999
0.0523082
0.0522519
0.138041
0.0546003
0.0661374
0.0515501
0.041251
0.0458998
0.385045
0.044185
0.0468849
-0.00608796
0.105363
0.095046
0.0362733
0.110636
0.0522729
0.0476191
0.00629038
0.0731983
0.124955
0.0538619
-0.000367578
0.0409381
0.0504573
0.0544937
0.0522664
0.0642012
0.0442368
0.052759
0.0316141
0.260642
0.052848
0.0136885
0.0339864
0.0519436
0.0653659
0.0548191
0.0293701
0.0523062
0.0522115
0.0169378
0.0308446
0.0932165
0.144036
-0.237894
0.0580489
0.0665405
-0.0295264
0.0348427
0.0547648
0.0417006
-0.00134489
0.0523333
0.0558137
0.0522753
0.0314082
0.0661142
0.0206966
0.0523449
0.0634813
0.036741
0.0567084
0.118375
0.0481979
0.052105
0.0523412
0.0310467
0.0250441
0.315643
0.0628312
0.0843273
0.00635272
0.00657975
0.0520755
0.101592
0.0523278
0.052289
0.0528275
-0.000514761
0.0573947
0.0365878
0.00804172
0.0213096
0.00796254
0.031517
0.0663208
0.115012
0.0496535
0.0130443
0.0934852
0.0344879
0.13107
0.0561466
-0.162833
0.143876
0.135676
0.0517811
-0.112507
0.00753869
0.0096052
0.138683
-8.87064e-05
0.0611974
0.0589629
0.0414756
0.038446
0.0356459
0.212546
0.0759796
0.0565867
0.0158077
0.0566417
0.0388842
0.0261219
0.0952193
0.0384855
0.0702919
0.0857077
0.00649654
0.0979576
0.0339259
0.053102
0.0625565
0.0515358
0.0458234
0.0509752
0.0569495
0.0219898
-0.0368079
0.0519711
0.162206
0.0513766
0.0440502
0.0112153
0.0320496
0.0351922
0.0507263
0.00871504
0.0137886
0.254739
0.0523147
0.0104002
0.0382722
0.015045
0.0528362
0.0525346
0.150318
0.0257703
0.0350058
-0.0987496
0.0285344
0.0403597
0.136595
0.0168898
0.119059
0.0581358
0.020486
0.039949
0.0481987
-0.0214148
0.00814191
0.0215936
0.0348145
0.0517015
0.00759449
0.00725636
-0.000603492
0.0425078
0.0386444
0.418005
-0.0370244
0.0513154
-0.00914136
0.0226614
-0.0915041
0.0522505
0.0332472
0.0344692
0.0522519
0.00546658
0.0303482
0.0555441
4.48475e-05
-0.0175825
-0.00137425
0.0581927
0.0255033
0.0528656
0.0475962
-0.0230269
0.084348
0.0310944
0.00848299
0.147705
0.0262784
0.0219066
0.0233073
0.00844215
-0.0217955
0.0506982
0.0240056
0.0185007
0.094316
0.28355
0.0149507
0.0367829
0.0231751
0.05225
0.0942434
0.0332141
0.0107644
0.0519984
0.0379989
0.00729803
0.015626
0.150689
0.01228
0.0323923
0.03151
0.057146
0.00525198
0.0289666
0.0762955
0.0617514
0.0581707
0.0118322
0.0385783
0.0444374
0.0411576
0.052336
0.00681428
0.0645403
0.0318955
-0.00160515
-0.039556
0.0468555
0.0309951
0.0185943
0.0263141
0.0523649
0.101569
0.100498
0.0747791
0.0528112
0.235223
0.00835923
0.0550201
0.0911322
0.0518498
0.0601819
0.03534
0.0277434
0.0542661
-0.0906734
0.0535248
0.0617845
0.0453912
-0.00878448
-0.0255156
1.17777e-05
0.0647992
0.0110873
0.0528421
0.0314088
0.0770438
0.0535406
0.151774
0.0194197
0.02988
0.00952284
0.0690861
0.0241755
0.0393291
0.0520127
0.0521849
0.0490176
0.0656785
0.121947
0.0184108
0.147702
0.0840838
0.0919417
0.0541716
0.0718947
0.00856305
0.052228
-0.0166962
-0.0138349
0.0551874
0.052297
0.0434142
0.0504471
0.0521573
0.0671974
0.0370305
0.133091
0.0184125
0.0371246
0.0908198
-0.00719321
0.00693299
0.0874007
0.0151616
0.0263436
0.0723614
0.0519152
0.0651659
0.0305977
0.12305
0.127334
0.223844
0.052194
0.12429
0.0349248
0.0342149
0.10661
0.109114
0.101606
-0.0188721
0.0231385
0.068649
0.0235966
0.0425809
0.0482114
0.0931193
0.0516356
0.0190991
-0.0224954
0.0620266
-0.0206144
0.0512432
0.0847141
0.0574988
0.0334825
0.104727
0.161428
0.0230283
0.0458599
0.0194
0.0359155
0.0730353
0.000112475
0.0844658
-0.000579971
0.052203
0.0235676
-0.144956
0.0988455
0.0386727
-0.0320008
0.0118742
0.0444089
0.051283
0.104214
0.095087
0.0362244
0.0596031
0.0538783
0.00718759
0.0467286
0.00633523
0.0828537
0.0374331
0.143161
0.0522139
0.0484587
0.00451862
0.0406289
0.0413237
0.0683616
0.0590216
0.0324198
0.168066
0.11015
0.0520364
0.00753971
0.0474217
0.0519504
0.134116
0.0516123
0.0243712
0.0272759
0.0516209
0.0517178
0.0549607
0.0087263
0.0635685
0.0994845
0.0303069
0.127547
0.034086
0.0358501
0.039401
0.0807768
0.0523995
0.041837
0.0401202
0.0292464
-0.0149998
0.0111278
0.0690021
0.046613
0.0579756
0.0342974
0.0453963
0.0633265
0.0244021
0.107475
0.0342831
0.0519784
0.00970312
0.0889147
0.0087455
0.0521139
0.135566
-0.0191668
0.0485684
0.0997835
0.00738313
0.0562264
0.0981994
0.00560937
0.0913818
0.115739
0.00613811
0.0500826
0.0812556
0.078283
0.0157878
0.049242
0.0340918
0.0521743
0.0513592
0.0518842
0.0157633
0.0196276
0.0221192
0.0841234
-0.0434825
0.169874
-0.0394455
0.0302202
0.0430922
-0.027272
0.0520028
-0.0792844
0.0360168
0.0254971
0.021002
0.0312311
0.0673408
0.0444455
0.0350267
0.0568983
0.052093
0.0801017
-0.0254107
0.0161829
0.00763698
0.019661
0.0550883
0.0299772
0.0184656
0.0576303
0.0264481
0.0413439
0.120282
0.0878881
0.0834044
0.0950605
-0.0011919
0.000151045
0.00728273
0.0254833
-0.00111272
0.017251
0.0608658
0.0454224
0.132045
0.076361
0.00892132
0.0523583
0.0973845
0.126133
0.0760644
0.0810837
0.0594754
0.0190884
0.115311
0.0316354
0.0251804
0.0363248
0.0357469
0.0512037
0.0309358
0.0316922
0.0565751
0.0227676
0.0327557
0.0473694
0.1053
0.0465807
0.0404936
0.0774421
0.0583013
0.0515485
0.0539176
0.00326284
0.0184147
0.0529713
0.0741957
-0.0354067
0.00801125
0.0585542
0.0220796
-0.0135974
-0.0299435
-0.0026441
0.0364543
0.0371262
0.0580906
0.0358334
0.0280345
-0.000125631
-0.00083786
0.00494976
0.000845859
0.0376953
0.0511977
0.0509448
0.130898
0.0648818
0.0365795
0.0415727
-0.000407885
0.0475504
0.0297416
0.149995
0.0894495
0.0133796
0.0571674
0.0188177
0.0518163
0.0105874
0.00122842
0.0303744
0.0518737
0.0616431
0.166853
0.0450347
0.0908005
-0.0109661
0.0522347
0.0373157
0.0961031
0.102951
0.072482
0.0527824
0.0484903
0.0495268
0.0527672
0.0519002
0.0438185
0.0083767
0.0518845
0.0590436
0.0567403
-0.410688
0.121071
0.049495
0.0521902
0.0125795
0.0191276
0.0257987
0.0786291
0.0202034
0.0514139
0.0453059
0.00654886
0.0526994
0.0165597
0.0942658
0.0735085
0.050613
0.0144231
0.0524696
0.0419783
0.0400398
0.0448285
-0.00116704
0.0617719
0.0374163
0.036001
0.112355
0.083546
0.0518168
0.0523025
0.0392457
0.0337496
0.0163437
0.0230014
0.0426071
0.00960816
0.0821995
0.0527879
0.0408884
0.00725463
0.0433849
0.0869248
0.0661529
0.0546201
0.149402
0.0245424
0.127818
0.140379
0.0302436
-0.00211378
0.000111909
0.125388
0.0432846
0.00915092
0.0763164
0.0390925
0.0245758
0.090617
0.0744913
0.0538418
0.00382267
0.0336423
0.0309712
0.0433725
0.00742497
0.0537754
0.0824593
0.0535937
0.060028
0.088059
0.0578525
0.0459412
0.107353
0.00917122
0.0931918
0.031556
0.0744655
0.010345
0.0642898
0.0141367
0.0533286
0.0334662
0.0116032
0.0698471
0.0293679
0.0532956
0.0449116
0.0177587
0.0479905
0.0376649
0.058892
0.0391685
0.0250162
0.000665712
0.0973831
0.106049
0.101918
0.0439849
0.0444004
0.0383753
0.0216164
0.0313711
0.0525494
0.0572413
0.0723368
0.0270339
0.060966
0.0065553
0.0339586
0.0596072
0.035907
0.0350447
0.0463547
0.0329544
0.0406222
0.134919
0.263791
0.0251708
0.0291987
0.0325283
0.034759
0.0425294
0.0378535
0.0365523
0.0253313
0.0156219
0.0509782
0.0521769
0.0511756
0.00807011
0.0520708
0.0322434
0.0458432
0.0332659
0.0621703
0.036594
0.123659
-0.00400772
0.0517725
0.0370782
0.0928077
0.0444543
0.0633954
0.0896077
0.0566052
0.0519708
0.0316552
0.0065584
0.0875763
0.00595759
0.116339
0.0848648
0.0052565
0.0658765
0.0706985
0.0128402
0.045895
0.0512843
0.0533781
0.0393563
0.0517142
0.0351448
-0.0247971
0.0509338
0.0822721
0.0462104
0.0650462
0.0657333
0.158654
0.0578724
0.0448846
0.00630085
0.0159445
0.088876
0.0335737
0.0854322
0.0532305
0.0407576
0.0675729
0.0485271
0.0353196
0.0528045
0.0532638
0.0342987
0.051664
0.037591
0.0637793
0.082939
0.0171694
0.0514501
0.00837126
0.00375254
0.0701151
0.0605976
0.0538745
0.0705521
0.13323
0.0521601
0.0432243
0.0497719
0.0632335
0.0419776
0.0382249
0.0424997
0.0761607
0.0853547
0.0348954
0.0813752
0.0918838
0.0624805
0.10935
0.0600161
0.0805087
0.0299392
0.0454104
0.0245138
0.0528767
0.0672533
0.0535849
0.0853822
0.00320783
0.0576409
-0.00842826
0.0475452
0.0293379
0.118475
0.00950583
0.049784
0.0518501
0.00712343
0.108907
0.0292684
0.0317847
0.0186994
0.0473268
0.082438
0.0408356
0.0505733
0.0392011
0.00995869
0.0458767
0.0433853
0.386419
0.0424558
0.0536139
0.0616205
0.0670904
0.0459236
0.0345755
0.0521834
0.103509
0.0437732
0.0521689
0.015798
0.0397613
0.0318772
0.043905
0.0657051
0.0454786
0.0476133
0.0469229
0.0368431
0.0821505
0.0522058
0.0421143
0.0599766
0.0481378
0.0430165
0.0579006
0.0577454
0.0621142
0.0623803
0.0522594
0.0462837
0.0538133
0.0315423
-0.00103032
-0.000248527
0.147352
0.0767649
-0.00648848
0.0337546
0.0515908
0.0546774
0.0609782
0.0761365
0.0525162
0.0303165
0.0779848
0.0591296
0.028619
-0.00632795
0.0240314
0.0515379
0.0407227
0.0520703
0.0957776
0.236052
0.0426908
0.0597264
0.0446331
0.00759284
0.0518475
0.0746655
0.0298979
0.0484972
0.0526667
0.0363199
0.0983895
0.0414281
0.058761
0.0283957
0.0449873
0.0465925
0.0896175
0.0627817
0.0436208
0.0541186
0.0422105
0.0574956
0.0410412
0.0524651
0.0420636
0.0519483
0.0573918
0.0131055
0.0707232
0.0189728
0.0758446
0.0758839
0.055888
0.0418952
0.0384459
0.0793404
0.0937211
0.0126591
0.0448962
0.0577711
0.0607622
0.0426918
0.0507017
0.0468389
0.038959
0.0306349
0.0305358
0.0476171
0.0168711
0.0426432
0.08146
0.0434698
0.0458011
0.0408579
0.0264154
0.0859247
0.0563932
-0.00108805
0.0424358
0.0445136
0.0122331
0.0548324
0.0007923
0.0542823
0.0449136
0.0494309
0.0500433
0.0530285
0.0457526
0.00568005
0.0521842
0.0234107
0.0739361
0.0544162
0.060329
0.0362091
0.097744
0.0629187
0.0525474
0.0379675
-0.0502716
0.0522898
0.00654139
-0.0615568
0.0680265
0.0873747
0.0556962
0.0439678
0.0322112
0.0736818
0.0612983
0.0521034
0.0941848
0.0131531
0.0830611
0.0522084
0.0516627
0.0463364
0.0472548
0.0479251
0.0682902
0.0785268
0.0488289
-0.00117869
0.0492978
0.0559724
0.0444778
0.0346591
-1.74518e-05
0.0516827
0.045232
0.026189
0.0461292
0.0491575
0.054397
0.127923
0.0753798
0.0526149
0.0646087
0.055954
0.0448831
0.0777479
0.0620235
0.0469776
0.065144
0.039941
0.0648815
0.0867007
0.0043431
0.0261006
0.0527048
0.0723745
0.0502664
0.0545062
0.0534724
0.0449116
0.00240211
0.000598202
0.0612408
0.0362447
0.0381587
0.0304306
0.0512953
0.0509688
0.0526145
0.0728619
0.0378454
0.0522473
0.0449778
0.0569519
0.0257494
0.0114311
0.052251
0.0517822
0.0394969
0.0510111
0.0506901
0.045453
0.0482694
0.0429081
0.0684548
0.0640183
0.0368165
0.050037
0.0554689
0.0601254
0.0454745
0.0521966
0.0459399
0.0336901
0.00201976
0.00658759
0.0386273
0.123044
0.0459245
-0.0512681
0.0905994
0.0454222
0.0441075
0.0562024
0.051364
0.05225
0.056417
0.0589532
0.04497
0.0536958
0.0514676
0.0983785
0.00717047
0.0361518
0.0523923
0.0573518
0.0653064
0.0724129
0.0354418
0.0543369
0.052139
0.0507057
0.0462693
0.0310851
0.0291292
0.00781843
0.0640219
0.0505194
0.04304
0.0584663
0.0561115
0.0557332
0.0495824
0.0603768
0.0522671
0.01751
-0.00180386
0.0515096
0.0686683
0.0448204
0.0477294
0.0494407
0.0534075
-0.0318816
0.0655104
0.000164493
0.0462775
0.0105181
0.0547444
0.0694324
0.129157
0.0577491
0.0524274
0.0333537
0.0261016
0.11213
0.0452598
0.0689176
0.0480352
0.0518154
0.0673528
0.0498542
0.12225
-5.45244e-06
0.0803791
0.0552702
0.0507409
0.0522395
0.0503843
-0.0238003
0.0419339
0.0517342
0.058764
0.0505608
0.0517613
0.0516491
0.0127288
0.00479485
0.0569362
0.0510318
0.0839199
0.0579516
0.10362
0.398392
0.0236904
0.0465831
0.0764445
0.0512664
-0.0314633
0.0522269
0.0510556
0.122973