/*--------------------------------*- C++ -*----------------------------------*\
  =========                 |
  \\      /  F ield         | OpenFOAM: The Open Source CFD Toolbox
   \\    /   O peration     | Website:  https://openfoam.org
    \\  /    A nd           | Version:  7
     \\/     M anipulation  |
\*---------------------------------------------------------------------------*/
FoamFile
{
    version     2.0;
    format      ascii;
    class       volScalarField;
    location    "5.5";
    object      p;
}
// * * * * * * * * * * * * * * * * * * * * * * * * * * * * * * * * * * * * * //

dimensions      [1 -1 -2 0 0 0 0];

internalField   nonuniform List<scalar> 
2413
(
1.08378
1.08317
1.08277
1.08231
1.08234
1.08287
1.08284
1.08271
1.08277
1.0829
1.08329
1.08403
1.08512
1.08628
1.08711
1.08739
1.08642
1.0848
1.08266
1.0806
1.07639
1.41347
1.41029
1.4075
1.40547
1.40305
1.40015
1.39737
1.39475
1.39224
1.38952
1.38619
1.38212
1.37757
1.37292
1.36821
1.36393
1.36056
1.3574
1.35417
1.35089
1.34754
1.34442
1.34149
1.33851
1.33589
1.33369
1.33147
1.32901
1.32611
1.32267
1.31895
1.31505
1.31072
1.30602
1.30115
1.29645
1.29212
1.28831
1.28478
1.28102
1.27738
1.27419
1.27102
1.26797
1.26579
1.26408
1.26236
1.2606
1.25898
1.25727
1.25519
1.25277
1.25013
1.24727
1.24399
1.24023
1.23599
1.2312
1.22612
1.22126
1.21738
1.2145
1.21211
1.20984
1.20757
1.20533
1.20282
1.20001
1.19701
1.19379
1.19017
1.18616
1.18187
1.17726
1.17256
1.1682
1.164
1.15948
1.15561
1.15297
1.15047
1.14847
1.14737
1.14575
1.14399
1.14296
1.14231
1.14141
1.14071
1.14074
1.14123
1.14103
1.1406
1.14023
1.13956
1.1383
1.13563
1.13137
1.12641
1.12084
1.11453
1.10755
1.10014
1.09343
1.08861
1.08515
1.08292
1.08181
1.0804
1.07882
1.07819
1.07796
1.07712
1.07635
1.07583
1.07548
1.0751
1.07482
1.07505
1.0756
1.07602
1.07665
1.07744
1.07786
1.07819
1.07878
1.07871
1.07773
1.0763
1.0743
1.07209
1.06787
1.41005
1.40679
1.40429
1.40217
1.39974
1.3972
1.39459
1.39179
1.38875
1.38541
1.38172
1.37755
1.37308
1.36926
1.36616
1.36313
1.35966
1.35562
1.35174
1.34826
1.34526
1.34282
1.34046
1.33807
1.33572
1.33304
1.32997
1.32678
1.32371
1.32048
1.31626
1.31095
1.30515
1.29958
1.29453
1.29011
1.2863
1.28286
1.27934
1.27544
1.2723
1.26966
1.26673
1.2639
1.26193
1.26026
1.25834
1.25617
1.25391
1.25145
1.24871
1.24583
1.24289
1.2397
1.23606
1.2318
1.22692
1.22166
1.21652
1.21231
1.20928
1.20703
1.20495
1.20285
1.20071
1.19832
1.19563
1.19273
1.18961
1.18622
1.18242
1.17822
1.17397
1.16973
1.16543
1.16151
1.15795
1.15409
1.15183
1.15013
1.14801
1.14616
1.14506
1.14386
1.14258
1.14176
1.14145
1.14124
1.14102
1.14118
1.14143
1.14078
1.13996
1.13883
1.13638
1.13234
1.1275
1.12177
1.11506
1.1079
1.10089
1.09443
1.0887
1.08366
1.08058
1.07924
1.07779
1.07623
1.07523
1.0739
1.07251
1.07175
1.07118
1.07038
1.06984
1.06953
1.06893
1.06828
1.06797
1.06839
1.06965
1.07098
1.07173
1.07212
1.07205
1.07133
1.07005
1.06831
1.06642
1.06428
1.06208
1.05872
1.4081
1.40563
1.40313
1.40034
1.39729
1.39421
1.39101
1.38773
1.38443
1.38111
1.37771
1.3744
1.37151
1.36866
1.3653
1.36143
1.35748
1.35413
1.35133
1.34832
1.34532
1.34264
1.33983
1.33694
1.33415
1.33154
1.32865
1.32496
1.3203
1.3148
1.30911
1.30349
1.29793
1.29269
1.2881
1.28402
1.28045
1.27719
1.27372
1.27
1.2678
1.26581
1.26331
1.26053
1.25798
1.25573
1.25373
1.25175
1.24946
1.2468
1.24382
1.2405
1.23684
1.23264
1.22786
1.22275
1.21759
1.21259
1.20816
1.20491
1.20236
1.19991
1.19743
1.19497
1.19247
1.18995
1.18738
1.18462
1.1816
1.17821
1.17437
1.1703
1.16646
1.16294
1.15949
1.15634
1.15362
1.15109
1.1493
1.1478
1.14613
1.14461
1.14361
1.14286
1.14208
1.14161
1.14168
1.14193
1.14216
1.14231
1.14178
1.14037
1.13768
1.13361
1.12878
1.12325
1.11688
1.10972
1.10209
1.09458
1.08832
1.08383
1.0806
1.07781
1.07546
1.07386
1.07281
1.07159
1.07087
1.06982
1.06809
1.06665
1.06551
1.06433
1.06337
1.06277
1.06274
1.06292
1.0628
1.06247
1.06235
1.06238
1.06238
1.06223
1.06169
1.06069
1.05899
1.05692
1.05488
1.053
1.05154
1.04974
1.40692
1.40432
1.40157
1.39841
1.39514
1.39194
1.38861
1.38521
1.38214
1.3793
1.37624
1.37293
1.37009
1.36743
1.36458
1.36153
1.35816
1.35454
1.35089
1.34758
1.34514
1.34279
1.33983
1.33625
1.33226
1.32758
1.32248
1.31747
1.31244
1.30708
1.3015
1.29598
1.29077
1.28616
1.28213
1.27831
1.27483
1.27174
1.26862
1.26566
1.26341
1.2614
1.25931
1.25714
1.25483
1.25231
1.2495
1.24628
1.24275
1.23928
1.23585
1.23224
1.22825
1.2238
1.21889
1.21379
1.20892
1.20465
1.20116
1.19819
1.19534
1.19253
1.18976
1.18702
1.18436
1.18182
1.17922
1.17644
1.17346
1.17006
1.16632
1.16305
1.1601
1.15689
1.15449
1.15267
1.15062
1.14858
1.14691
1.14567
1.14466
1.14372
1.14312
1.14308
1.1432
1.14317
1.14339
1.14366
1.14294
1.14157
1.13919
1.13535
1.13053
1.12486
1.11834
1.11114
1.10363
1.09645
1.09001
1.08422
1.07965
1.0763
1.07432
1.07333
1.07206
1.0703
1.06871
1.06673
1.06532
1.06462
1.06335
1.06183
1.06068
1.05963
1.05884
1.05838
1.05781
1.05707
1.05669
1.05657
1.05598
1.05503
1.05384
1.05241
1.05061
1.04851
1.04627
1.04423
1.04275
1.04209
1.04135
1.04037
1.40662
1.40403
1.40096
1.39721
1.39361
1.39045
1.38725
1.38366
1.38052
1.37818
1.37589
1.37359
1.37121
1.36833
1.36481
1.36107
1.3576
1.35435
1.3509
1.34709
1.34295
1.33837
1.3337
1.32949
1.32537
1.32093
1.31591
1.31042
1.3047
1.29888
1.29334
1.2884
1.28414
1.28034
1.27669
1.27314
1.26983
1.26688
1.26416
1.26181
1.25963
1.25746
1.25517
1.2526
1.2497
1.2469
1.24421
1.24125
1.23775
1.23363
1.22908
1.22431
1.21946
1.21464
1.2099
1.20538
1.20126
1.19757
1.19429
1.19118
1.18806
1.18501
1.18211
1.17936
1.17664
1.17383
1.17098
1.1681
1.16485
1.16155
1.15907
1.1571
1.15516
1.15285
1.15038
1.14847
1.14697
1.14585
1.145
1.14419
1.14361
1.14347
1.14369
1.14446
1.14577
1.14667
1.14622
1.14479
1.14208
1.13791
1.13279
1.12699
1.12036
1.113
1.10523
1.09757
1.09077
1.08546
1.08135
1.07789
1.07484
1.07203
1.06998
1.0688
1.0676
1.06633
1.06462
1.0623
1.06042
1.05953
1.05889
1.05804
1.05754
1.05725
1.05664
1.05566
1.05443
1.05295
1.0513
1.04978
1.04817
1.04613
1.04367
1.04092
1.03781
1.0351
1.03367
1.0327
1.03176
1.03179
1.0316
1.0312
1.40459
1.40213
1.39933
1.39581
1.39252
1.39004
1.38746
1.3843
1.38127
1.37889
1.37643
1.3738
1.37103
1.36803
1.36464
1.36074
1.3561
1.3508
1.34571
1.34121
1.33693
1.3327
1.32834
1.3237
1.31875
1.31347
1.30784
1.30194
1.29614
1.29063
1.28571
1.2817
1.27835
1.27497
1.27122
1.26818
1.26576
1.26362
1.26171
1.25949
1.25699
1.25449
1.25198
1.24926
1.24634
1.24307
1.23935
1.23525
1.2308
1.22601
1.22092
1.21577
1.21075
1.20606
1.20177
1.19785
1.19423
1.19074
1.18734
1.18396
1.18064
1.17756
1.17473
1.17204
1.1692
1.16597
1.16282
1.16006
1.15702
1.15433
1.15291
1.15126
1.14976
1.14875
1.14721
1.14578
1.14475
1.14385
1.14334
1.14338
1.14394
1.14542
1.14731
1.14745
1.14645
1.14496
1.14283
1.13964
1.13537
1.12987
1.12316
1.11539
1.10705
1.09897
1.09178
1.08599
1.08169
1.07815
1.07513
1.07312
1.07142
1.06959
1.06773
1.06577
1.06396
1.06244
1.06061
1.05845
1.05669
1.05571
1.05543
1.05436
1.05301
1.0517
1.05022
1.04882
1.04734
1.04557
1.04346
1.04113
1.03852
1.03536
1.03181
1.02821
1.02488
1.023
1.02267
1.02248
1.02169
1.02171
1.02207
1.02246
1.40408
1.40209
1.39939
1.39585
1.39237
1.38964
1.38721
1.3849
1.38273
1.38043
1.3777
1.37454
1.37087
1.36667
1.36192
1.35691
1.3519
1.34678
1.34137
1.33591
1.33052
1.32525
1.32019
1.31512
1.30989
1.30449
1.29895
1.29336
1.28819
1.28344
1.27914
1.27604
1.27317
1.26981
1.2667
1.2644
1.26205
1.25935
1.25638
1.25343
1.25054
1.24761
1.24461
1.24153
1.2384
1.23516
1.23156
1.22735
1.22265
1.21766
1.2126
1.20767
1.20302
1.19869
1.19464
1.19082
1.18716
1.18357
1.18008
1.17678
1.17369
1.17074
1.16788
1.16509
1.1621
1.15857
1.1554
1.1531
1.15096
1.14915
1.14775
1.14611
1.14472
1.14408
1.14377
1.14353
1.14345
1.14345
1.14378
1.14536
1.1476
1.14794
1.14705
1.14566
1.1437
1.14067
1.13672
1.132
1.12609
1.11864
1.11004
1.1012
1.09316
1.0866
1.08196
1.07879
1.07608
1.07349
1.07137
1.06965
1.0677
1.06542
1.06294
1.06049
1.05877
1.05778
1.05738
1.0565
1.05542
1.05466
1.0535
1.05167
1.04974
1.04807
1.0463
1.04422
1.04186
1.03892
1.0353
1.03122
1.02697
1.02284
1.01911
1.01617
1.01439
1.01337
1.01291
1.01306
1.01275
1.01243
1.01306
1.01481
1.40455
1.40222
1.39984
1.39747
1.39488
1.39236
1.3898
1.3868
1.38349
1.37965
1.37509
1.37046
1.36615
1.36146
1.35611
1.35039
1.34462
1.33894
1.33337
1.32793
1.32255
1.31703
1.31142
1.30577
1.30022
1.29493
1.28976
1.28493
1.28074
1.27683
1.27318
1.27083
1.26901
1.26654
1.26376
1.26152
1.25913
1.25626
1.25311
1.24986
1.24659
1.24312
1.23945
1.23562
1.23161
1.22743
1.22307
1.21853
1.21379
1.20897
1.20423
1.19964
1.19527
1.19112
1.1872
1.18356
1.1801
1.17679
1.17365
1.17059
1.16753
1.16454
1.16148
1.15836
1.15529
1.15255
1.15014
1.14794
1.14596
1.1446
1.14379
1.14299
1.14215
1.1416
1.14135
1.14153
1.14264
1.14476
1.1476
1.15019
1.1498
1.14798
1.14567
1.14252
1.13812
1.13294
1.12705
1.12021
1.11237
1.10388
1.09562
1.08886
1.08347
1.07892
1.07623
1.07421
1.07178
1.06929
1.0676
1.06604
1.06416
1.06187
1.05935
1.05718
1.05577
1.05508
1.05417
1.05242
1.05044
1.04877
1.047
1.04497
1.04305
1.04118
1.03901
1.0364
1.03327
1.02947
1.02491
1.0198
1.01493
1.01125
1.00849
1.00654
1.00586
1.0055
1.00471
1.00448
1.00472
1.00458
1.00488
1.00723
1.40723
1.40456
1.40234
1.39987
1.3969
1.39398
1.39103
1.38779
1.38355
1.37844
1.37269
1.36633
1.35978
1.35335
1.34708
1.34115
1.33558
1.3301
1.32478
1.31941
1.31394
1.30832
1.30252
1.29667
1.29117
1.28588
1.28091
1.27735
1.27444
1.27151
1.26832
1.2656
1.26323
1.2604
1.2572
1.25448
1.25195
1.24926
1.2464
1.24337
1.24014
1.2367
1.23287
1.22864
1.22419
1.2196
1.21489
1.21017
1.20548
1.20074
1.1961
1.19166
1.18754
1.18375
1.18023
1.17698
1.1739
1.171
1.16816
1.16527
1.16242
1.15936
1.1559
1.15267
1.14974
1.14727
1.14559
1.1441
1.14248
1.14114
1.14048
1.1403
1.14031
1.14051
1.14118
1.14256
1.14496
1.14731
1.14684
1.14543
1.1436
1.14103
1.13782
1.1338
1.12846
1.12156
1.11353
1.10506
1.09692
1.09018
1.08521
1.08144
1.07771
1.07398
1.07231
1.07083
1.06872
1.0662
1.06355
1.06141
1.05964
1.05807
1.05701
1.05642
1.05571
1.05431
1.05219
1.0496
1.04716
1.04508
1.04306
1.04097
1.03856
1.03553
1.03178
1.02758
1.02287
1.0178
1.01289
1.00831
1.00505
1.00295
1.00091
0.999112
0.998356
0.998358
0.997828
0.997162
0.997441
0.998126
0.998485
1.0003
1.41004
1.40741
1.40483
1.40218
1.39899
1.39468
1.38922
1.38261
1.37613
1.36997
1.36369
1.35706
1.35025
1.34345
1.33683
1.33065
1.32505
1.31984
1.31489
1.30981
1.30455
1.29928
1.29384
1.2883
1.28317
1.2783
1.27385
1.27113
1.26894
1.26626
1.26321
1.26072
1.25857
1.25608
1.25317
1.25032
1.24745
1.24436
1.24108
1.23751
1.23359
1.22961
1.22557
1.22122
1.2166
1.21188
1.20703
1.20209
1.19727
1.1927
1.18838
1.1843
1.1807
1.17748
1.17448
1.17166
1.16896
1.16632
1.16357
1.16055
1.15759
1.15455
1.1514
1.14904
1.14673
1.14418
1.1423
1.14124
1.14049
1.13968
1.139
1.13859
1.13874
1.14029
1.14344
1.14641
1.14657
1.14538
1.14366
1.1412
1.13777
1.13324
1.12768
1.12127
1.1138
1.10547
1.09721
1.09046
1.08489
1.08101
1.07858
1.07622
1.0735
1.07039
1.06866
1.06744
1.06547
1.06271
1.06033
1.05885
1.05754
1.05598
1.0542
1.0525
1.05089
1.04913
1.04699
1.04463
1.04246
1.04014
1.03738
1.0343
1.03098
1.02699
1.022
1.01644
1.01078
1.00575
1.00215
0.99934
0.997723
0.996496
0.994769
0.992882
0.99183
0.99165
0.991475
0.991027
0.99118
0.992131
0.992472
0.993646
1.41235
1.40932
1.40564
1.40015
1.39363
1.38752
1.3815
1.37509
1.36829
1.36125
1.35385
1.34629
1.33898
1.33211
1.32568
1.31969
1.31431
1.30956
1.30506
1.30052
1.29587
1.29111
1.28587
1.28064
1.27631
1.27253
1.26853
1.26563
1.26332
1.26053
1.25729
1.25473
1.25262
1.25018
1.24736
1.24453
1.24158
1.23824
1.23471
1.23097
1.2268
1.22226
1.21785
1.2134
1.20868
1.20384
1.19907
1.19427
1.18979
1.18596
1.18215
1.17838
1.17523
1.17235
1.16968
1.16717
1.16463
1.16211
1.15954
1.15633
1.15312
1.15034
1.1479
1.14634
1.14502
1.14313
1.14117
1.14
1.13924
1.13873
1.13868
1.13951
1.14119
1.1424
1.14237
1.1412
1.13924
1.1369
1.13445
1.13131
1.12669
1.12028
1.11231
1.1039
1.09574
1.08882
1.08411
1.08087
1.0778
1.07492
1.07339
1.07181
1.06958
1.06696
1.0651
1.06396
1.06214
1.05933
1.05753
1.05678
1.05594
1.05408
1.05195
1.04987
1.04784
1.04573
1.04359
1.04153
1.03906
1.03566
1.0313
1.02638
1.02119
1.01573
1.00998
1.00431
0.999827
0.996799
0.99454
0.992613
0.99121
0.990522
0.989555
0.987899
0.987002
0.98699
0.986863
0.985663
0.985271
0.98569
0.98603
0.986826
1.4141
1.40844
1.40132
1.39387
1.38654
1.37946
1.37228
1.36468
1.35684
1.34908
1.34128
1.33364
1.32659
1.3204
1.31484
1.30982
1.30509
1.30073
1.29642
1.29204
1.28765
1.28318
1.27796
1.27337
1.27022
1.26712
1.26343
1.26041
1.25801
1.25526
1.25209
1.24944
1.2472
1.24472
1.2419
1.23897
1.23589
1.23235
1.22846
1.22438
1.21986
1.21473
1.20961
1.20491
1.20017
1.19556
1.19145
1.18737
1.18369
1.1805
1.17687
1.17343
1.17108
1.16863
1.16587
1.16334
1.16074
1.15782
1.15497
1.15246
1.15016
1.14777
1.14536
1.14364
1.14276
1.14203
1.14093
1.14016
1.13971
1.1396
1.1407
1.14311
1.14404
1.14248
1.13991
1.13674
1.13288
1.12813
1.12278
1.11679
1.1098
1.10161
1.09308
1.08618
1.08108
1.07731
1.07586
1.07458
1.07246
1.06959
1.06803
1.06717
1.06535
1.06297
1.06179
1.06126
1.06003
1.05779
1.05611
1.05498
1.05325
1.05108
1.04885
1.04648
1.04393
1.0412
1.03821
1.0351
1.03181
1.02765
1.02218
1.01586
1.00945
1.00359
0.998596
0.994656
0.99239
0.990612
0.988467
0.986565
0.985415
0.984837
0.984743
0.984053
0.983563
0.983729
0.982962
0.980917
0.980036
0.980165
0.980685
0.981019
1.40745
1.40033
1.39305
1.38509
1.37676
1.36872
1.36057
1.35187
1.34307
1.33491
1.32748
1.32077
1.31492
1.30999
1.30558
1.3015
1.29739
1.29308
1.2885
1.28376
1.27939
1.27534
1.27101
1.26722
1.26472
1.26203
1.25863
1.25552
1.25311
1.2505
1.24749
1.24459
1.24198
1.23926
1.23632
1.23325
1.22991
1.22609
1.22173
1.21706
1.21217
1.20695
1.20172
1.19698
1.19216
1.18828
1.18503
1.18139
1.17835
1.17571
1.17249
1.16984
1.16783
1.16529
1.16229
1.15996
1.15769
1.15489
1.15158
1.14948
1.14826
1.14679
1.14484
1.14311
1.14207
1.14133
1.1409
1.14165
1.14404
1.14592
1.14536
1.14332
1.14034
1.13653
1.13239
1.12772
1.12194
1.11491
1.10662
1.09805
1.08991
1.0825
1.07756
1.07469
1.07229
1.0701
1.06876
1.06837
1.06746
1.06523
1.06402
1.06369
1.06212
1.05993
1.05885
1.05781
1.05639
1.05514
1.05407
1.05261
1.05072
1.04884
1.04686
1.04446
1.04143
1.03762
1.03302
1.02782
1.02241
1.01665
1.0103
1.00382
0.998126
0.993943
0.990755
0.988166
0.986544
0.985257
0.983417
0.981517
0.980563
0.98044
0.979564
0.978152
0.977645
0.978093
0.977699
0.976017
0.975072
0.97498
0.975305
0.974732
1.3986
1.39022
1.38204
1.37348
1.36423
1.35505
1.34628
1.33761
1.32926
1.32184
1.31554
1.31014
1.30544
1.30117
1.29728
1.29335
1.28953
1.28556
1.28114
1.27634
1.27255
1.26918
1.26558
1.2618
1.25927
1.25689
1.25393
1.25093
1.24839
1.24567
1.24256
1.23944
1.23658
1.23361
1.23055
1.2273
1.22357
1.21934
1.21463
1.20965
1.20472
1.19978
1.19506
1.19065
1.18599
1.18246
1.17974
1.17675
1.17403
1.17138
1.16855
1.16661
1.16474
1.16212
1.15928
1.15697
1.15505
1.15299
1.15059
1.14837
1.14697
1.14603
1.14516
1.14436
1.14396
1.14423
1.14448
1.14445
1.14423
1.14272
1.14007
1.13697
1.13318
1.12813
1.12185
1.11471
1.10649
1.09744
1.08832
1.08084
1.07515
1.07112
1.06931
1.06761
1.0657
1.06414
1.06307
1.06268
1.06254
1.06159
1.06161
1.06164
1.05957
1.0573
1.05647
1.05604
1.05499
1.05334
1.05129
1.04889
1.04627
1.04361
1.04084
1.03776
1.03426
1.03
1.0244
1.01773
1.0108
1.00422
0.998351
0.993314
0.990055
0.987871
0.98552
0.983169
0.98176
0.980875
0.979233
0.977455
0.97643
0.976038
0.974865
0.973605
0.973123
0.973203
0.973156
0.971865
0.970786
0.970233
0.96964
0.968116
1.38614
1.37669
1.36746
1.35842
1.34909
1.33987
1.3316
1.32429
1.3179
1.31211
1.30691
1.30201
1.29747
1.29325
1.28934
1.28522
1.28159
1.27835
1.27481
1.27075
1.26738
1.26446
1.26122
1.25762
1.25498
1.25256
1.24949
1.24627
1.24358
1.24088
1.23805
1.23506
1.23183
1.22827
1.2246
1.22081
1.21661
1.212
1.20707
1.20211
1.19761
1.19341
1.18949
1.18571
1.18228
1.17879
1.17524
1.17311
1.17107
1.16807
1.16507
1.16358
1.16202
1.15962
1.15711
1.15537
1.15366
1.15175
1.15004
1.14876
1.14781
1.14715
1.14683
1.1471
1.14832
1.14948
1.14851
1.14588
1.14276
1.13884
1.13396
1.12822
1.12191
1.11455
1.10581
1.09674
1.08837
1.0808
1.07475
1.07074
1.06759
1.06491
1.06306
1.06139
1.06032
1.05929
1.05842
1.05843
1.0582
1.05617
1.05488
1.05458
1.0537
1.05233
1.05139
1.05059
1.04984
1.04868
1.04689
1.04471
1.04217
1.03914
1.03554
1.03121
1.02593
1.01984
1.0129
1.00557
0.999088
0.993875
0.989762
0.9869
0.985338
0.98383
0.981647
0.979072
0.977511
0.976651
0.975157
0.973688
0.973075
0.972379
0.971201
0.970165
0.969915
0.969456
0.968403
0.966865
0.965758
0.964546
0.963307
0.960977
1.37055
1.36091
1.35132
1.34228
1.33372
1.32596
1.31938
1.31387
1.30914
1.30475
1.30024
1.29562
1.2909
1.28653
1.2826
1.27867
1.27484
1.27222
1.26944
1.26597
1.26308
1.26081
1.25816
1.25481
1.25149
1.24874
1.24591
1.24295
1.23993
1.23682
1.23352
1.23007
1.22658
1.22275
1.21865
1.21447
1.20988
1.20485
1.1999
1.19539
1.19143
1.18824
1.18519
1.18229
1.17971
1.17671
1.17347
1.17139
1.16921
1.16657
1.16364
1.16146
1.15988
1.15785
1.15559
1.15409
1.15322
1.15239
1.1515
1.15088
1.1506
1.15071
1.15117
1.15144
1.15054
1.14796
1.14401
1.13933
1.13417
1.12858
1.12193
1.114
1.10537
1.09654
1.08783
1.08006
1.07458
1.07035
1.06708
1.0646
1.062
1.05982
1.05869
1.05747
1.05638
1.05529
1.05411
1.05354
1.05292
1.05156
1.0502
1.04896
1.04838
1.04874
1.0482
1.04672
1.04517
1.04342
1.04129
1.03869
1.03558
1.03181
1.02723
1.02165
1.01486
1.00749
1.0006
0.994871
0.990592
0.987228
0.984303
0.98233
0.980981
0.979905
0.978223
0.975832
0.974258
0.973543
0.972293
0.970454
0.969394
0.968304
0.966941
0.965974
0.965242
0.96423
0.962898
0.961214
0.959764
0.958092
0.956547
0.953438
1.35349
1.3449
1.3363
1.3283
1.32114
1.31525
1.31032
1.30599
1.3021
1.29841
1.29441
1.29026
1.28593
1.28143
1.27756
1.27387
1.26981
1.26704
1.26494
1.26235
1.25971
1.25751
1.25495
1.25183
1.24889
1.24601
1.24277
1.23923
1.23573
1.23236
1.22893
1.2254
1.22169
1.21752
1.21291
1.20831
1.2034
1.19848
1.19418
1.1903
1.18608
1.18361
1.18168
1.17951
1.17747
1.17482
1.17191
1.17011
1.16815
1.16568
1.16344
1.1614
1.15944
1.15773
1.15631
1.15501
1.15409
1.15365
1.15392
1.15527
1.15679
1.15642
1.15435
1.15106
1.14664
1.14151
1.13566
1.12894
1.12127
1.11296
1.1044
1.09558
1.08713
1.08007
1.0745
1.06958
1.06624
1.06426
1.06234
1.06024
1.05779
1.05575
1.05456
1.05421
1.05382
1.05151
1.04934
1.04845
1.04842
1.04865
1.04711
1.04501
1.0437
1.04276
1.04156
1.03997
1.03811
1.03596
1.03338
1.03028
1.02635
1.02132
1.01524
1.00831
1.00149
0.995599
0.991164
0.987738
0.984893
0.982738
0.980744
0.978599
0.976972
0.976076
0.975026
0.972891
0.97095
0.969807
0.968132
0.966351
0.965439
0.964751
0.963348
0.962089
0.960787
0.959292
0.95767
0.955744
0.953643
0.95138
0.949646
0.945892
1.33834
1.33101
1.32397
1.31771
1.31217
1.30761
1.30368
1.29981
1.29601
1.29228
1.28856
1.28493
1.28131
1.27746
1.27406
1.27088
1.2673
1.26402
1.26166
1.25893
1.25607
1.25385
1.25154
1.24881
1.2459
1.2427
1.23924
1.23567
1.23204
1.22841
1.22463
1.22069
1.21663
1.21222
1.20737
1.20259
1.19788
1.19376
1.19057
1.18736
1.18358
1.18083
1.17874
1.17605
1.17402
1.17284
1.17064
1.1686
1.16678
1.16425
1.16266
1.16177
1.16045
1.15908
1.15829
1.15782
1.15743
1.15749
1.15808
1.15779
1.15571
1.15225
1.14793
1.14275
1.13665
1.12969
1.12158
1.11258
1.10319
1.09411
1.08611
1.07941
1.07428
1.07057
1.0674
1.06427
1.06143
1.05968
1.05805
1.05628
1.05521
1.05346
1.05179
1.05105
1.0497
1.04746
1.04527
1.0436
1.04243
1.04168
1.0403
1.03861
1.03699
1.03525
1.03337
1.03147
1.02926
1.02651
1.02304
1.01879
1.0135
1.00712
1.00012
0.993895
0.990031
0.98747
0.984935
0.982218
0.979712
0.978085
0.976804
0.974906
0.97294
0.971986
0.971803
0.970434
0.96807
0.966637
0.965292
0.96371
0.962193
0.960561
0.958728
0.957181
0.95563
0.95392
0.952128
0.950152
0.947773
0.944858
0.942681
0.93805
1.32619
1.31978
1.31436
1.30971
1.30539
1.3018
1.29837
1.29463
1.29107
1.2876
1.28371
1.28021
1.27696
1.27328
1.27019
1.26774
)
;

boundaryField
{
    inlet
    {
        type            fixedValue;
        value           nonuniform 0();
    }
    outlet
    {
        type            zeroGradient;
    }
    bottom
    {
        type            symmetryPlane;
    }
    top
    {
        type            symmetryPlane;
    }
    obstacle
    {
        type            zeroGradient;
    }
    front
    {
        type            empty;
    }
    back
    {
        type            empty;
    }
    procBoundary31to23
    {
        type            processor;
        value           nonuniform List<scalar> 
133
(
1.09046
1.09005
1.08962
1.08943
1.08993
1.09029
1.08996
1.08988
1.09012
1.09043
1.09079
1.09095
1.09083
1.09083
1.09103
1.09137
1.09189
1.09148
1.0899
1.08829
1.08446
1.41589
1.41311
1.41054
1.40866
1.40708
1.40472
1.40193
1.39902
1.39607
1.39312
1.39001
1.38664
1.38281
1.37828
1.37309
1.36746
1.36245
1.35882
1.3557
1.35285
1.34996
1.34703
1.34421
1.34139
1.33842
1.33545
1.33274
1.33
1.32712
1.3242
1.32126
1.31815
1.31488
1.31138
1.30735
1.30296
1.29857
1.29445
1.29059
1.2868
1.28302
1.27941
1.27569
1.27215
1.27008
1.26833
1.26635
1.26434
1.26264
1.26117
1.25942
1.25726
1.25486
1.25228
1.24948
1.24657
1.24351
1.24011
1.23613
1.23148
1.22663
1.22259
1.21952
1.21713
1.21519
1.21309
1.21065
1.20794
1.20502
1.20177
1.19798
1.19375
1.18931
1.18473
1.18008
1.17542
1.17077
1.16614
1.16181
1.15786
1.15387
1.15138
1.15001
1.14813
1.14598
1.14486
1.14392
1.14254
1.14157
1.14122
1.14119
1.14126
1.14127
1.14117
1.14088
1.14011
1.13906
1.13763
1.13486
1.13066
1.12571
1.11994
1.11332
1.10648
1.09957
1.09316
1.08977
1.08793
1.08609
1.08493
1.08448
1.08448
)
;
    }
    procBoundary31to30
    {
        type            processor;
        value           nonuniform List<scalar> 
18
(
1.4158
1.41313
1.41022
1.40946
1.40911
1.40823
1.40724
1.4072
1.40943
1.41212
1.41517
1.41806
1.41467
1.40636
1.39476
1.37949
1.36207
1.34582
)
;
    }
    procBoundary31to38
    {
        type            processor;
        value           uniform 1.33253;
    }
    procBoundary31to39
    {
        type            processor;
        value           nonuniform List<scalar> 
133
(
1.26486
1.26198
1.25967
1.25706
1.2539
1.25071
1.24741
1.24406
1.24083
1.23771
1.23453
1.23116
1.2277
1.2241
1.22015
1.21599
1.21158
1.20681
1.20209
1.19776
1.19376
1.18979
1.18691
1.18495
1.18247
1.1799
1.17822
1.17595
1.17272
1.1704
1.16898
1.16725
1.16564
1.16435
1.16311
1.16217
1.16151
1.16115
1.16147
1.1631
1.16368
1.16227
1.15951
1.15549
1.15046
1.14476
1.13833
1.13086
1.12219
1.11284
1.1032
1.09368
1.08544
1.07902
1.07431
1.07054
1.06733
1.06521
1.06314
1.06078
1.05828
1.05642
1.05512
1.05353
1.05138
1.04926
1.04762
1.04623
1.0451
1.04371
1.04189
1.04016
1.03863
1.03696
1.03497
1.0327
1.03017
1.02732
1.02434
1.02156
1.01861
1.01493
1.01009
1.00428
0.997735
0.991128
0.985917
0.982956
0.981534
0.980611
0.979155
0.976922
0.974512
0.972933
0.972401
0.971155
0.969049
0.967611
0.966978
0.966078
0.964034
0.962189
0.960856
0.959537
0.957858
0.95599
0.95402
0.952196
0.950384
0.948526
0.946508
0.944276
0.941634
0.938164
0.935174
0.929263
1.31687
1.31157
1.30749
1.30363
1.30032
1.29755
1.2944
1.2909
1.28768
1.28405
1.27948
1.2758
1.27275
1.26985
1.2675
1.26486
1.26521
)
;
    }
}


// ************************************************************************* //
