/*--------------------------------*- C++ -*----------------------------------*\
  =========                 |
  \\      /  F ield         | OpenFOAM: The Open Source CFD Toolbox
   \\    /   O peration     | Website:  https://openfoam.org
    \\  /    A nd           | Version:  7
     \\/     M anipulation  |
\*---------------------------------------------------------------------------*/
FoamFile
{
    version     2.0;
    format      ascii;
    class       volScalarField;
    location    "5.5";
    object      T;
}
// * * * * * * * * * * * * * * * * * * * * * * * * * * * * * * * * * * * * * //

dimensions      [0 0 0 1 0 0 0];

internalField   nonuniform List<scalar> 
2413
(
1.09768
1.0974
1.09712
1.09674
1.09654
1.09643
1.09614
1.09576
1.09543
1.09508
1.09477
1.09453
1.09436
1.09419
1.09396
1.09366
1.09296
1.09207
1.09114
1.09036
1.08897
1.14545
1.14473
1.14401
1.14349
1.14293
1.14236
1.14193
1.14164
1.14144
1.14123
1.1409
1.14039
1.13974
1.13907
1.13839
1.13782
1.13748
1.1372
1.13691
1.13663
1.13634
1.13609
1.13588
1.13563
1.13545
1.13534
1.13518
1.13492
1.13452
1.13399
1.13337
1.1327
1.13196
1.13117
1.13037
1.12965
1.12905
1.12862
1.12825
1.12784
1.12748
1.12722
1.12692
1.12662
1.12657
1.12659
1.12659
1.1266
1.12664
1.12664
1.12655
1.12633
1.12605
1.12569
1.12522
1.12461
1.12388
1.12301
1.12207
1.1212
1.1206
1.12026
1.12002
1.1198
1.11956
1.1193
1.11896
1.1185
1.11794
1.11727
1.11644
1.11548
1.1144
1.11324
1.11207
1.11103
1.11003
1.10896
1.10814
1.10768
1.10721
1.10693
1.1069
1.10672
1.10654
1.10657
1.1067
1.10678
1.10693
1.10724
1.10769
1.10787
1.10806
1.10832
1.10841
1.10834
1.10788
1.10694
1.10581
1.10451
1.10297
1.1012
1.09927
1.0975
1.09623
1.09533
1.09478
1.09449
1.0941
1.09363
1.09335
1.09318
1.0928
1.09241
1.09201
1.09162
1.09121
1.0908
1.09054
1.09034
1.09008
1.08986
1.08967
1.08936
1.08903
1.08882
1.08853
1.08792
1.08723
1.08647
1.08573
1.08439
1.14315
1.14234
1.14165
1.14111
1.14059
1.14019
1.13989
1.13963
1.13935
1.13902
1.13861
1.13808
1.13746
1.13701
1.1367
1.13641
1.13605
1.13557
1.13513
1.13478
1.13454
1.13443
1.13432
1.1342
1.13405
1.13379
1.13341
1.13294
1.13245
1.13191
1.13117
1.13018
1.12911
1.12812
1.12727
1.1266
1.12613
1.1258
1.12545
1.12499
1.12477
1.12463
1.12439
1.12413
1.12409
1.12409
1.12402
1.12389
1.12372
1.1235
1.12318
1.12281
1.12243
1.12197
1.12139
1.12066
1.11975
1.11875
1.11779
1.11707
1.11667
1.11645
1.11626
1.11605
1.11581
1.11547
1.11501
1.11446
1.11379
1.11301
1.11208
1.11102
1.10992
1.10883
1.10773
1.1068
1.10596
1.10507
1.10473
1.10454
1.10421
1.10397
1.10395
1.10388
1.10384
1.10393
1.10418
1.10444
1.10468
1.10502
1.10538
1.10547
1.10557
1.10554
1.10515
1.10426
1.10316
1.10182
1.10017
1.09837
1.09658
1.09491
1.09342
1.09212
1.09135
1.09104
1.09068
1.09026
1.08996
1.08954
1.08908
1.08873
1.08841
1.08799
1.08756
1.08715
1.08664
1.08607
1.08563
1.08543
1.08541
1.0854
1.08527
1.08505
1.08475
1.08424
1.0836
1.08289
1.08221
1.08151
1.08081
1.07975
1.14122
1.14058
1.13992
1.13927
1.1387
1.13827
1.13792
1.1376
1.13731
1.137
1.13665
1.13632
1.1361
1.13588
1.13553
1.13504
1.13452
1.13415
1.13392
1.13362
1.13333
1.13313
1.1329
1.13263
1.13233
1.13202
1.13165
1.13108
1.13025
1.1292
1.1281
1.12705
1.12603
1.12512
1.12438
1.1238
1.1234
1.1231
1.12274
1.12229
1.12228
1.12225
1.12209
1.12182
1.12158
1.12139
1.12125
1.12111
1.1209
1.12059
1.1202
1.11972
1.11915
1.11843
1.11754
1.11657
1.11558
1.11463
1.11382
1.11334
1.11302
1.11272
1.11238
1.11202
1.11163
1.11119
1.1107
1.11012
1.10944
1.10861
1.10764
1.1066
1.10561
1.1047
1.10382
1.10309
1.1025
1.102
1.10178
1.10164
1.10146
1.10134
1.10135
1.1014
1.1015
1.10173
1.1021
1.10247
1.1028
1.10314
1.10323
1.10313
1.10267
1.1018
1.10072
1.09946
1.09793
1.09615
1.0942
1.09226
1.09064
1.08949
1.08867
1.08797
1.08739
1.08698
1.08671
1.08638
1.08617
1.08584
1.08529
1.08476
1.08426
1.0837
1.08313
1.08262
1.0823
1.08199
1.08159
1.08112
1.08072
1.08037
1.08006
1.07975
1.07935
1.07885
1.0782
1.0775
1.07686
1.07628
1.07584
1.07528
1.13952
1.1389
1.1383
1.13768
1.13715
1.13677
1.13644
1.13613
1.13591
1.13575
1.13551
1.13517
1.13493
1.13471
1.13444
1.1341
1.13366
1.13316
1.13267
1.13228
1.13209
1.13192
1.13162
1.13117
1.13059
1.12982
1.12892
1.12804
1.12715
1.12616
1.12509
1.12405
1.12311
1.12234
1.12173
1.1212
1.12081
1.12053
1.12022
1.11993
1.11981
1.11973
1.11962
1.11946
1.11924
1.11895
1.11857
1.11809
1.11753
1.11699
1.11647
1.1159
1.11522
1.11442
1.11348
1.11249
1.11155
1.11077
1.11019
1.10974
1.10931
1.10887
1.10842
1.10794
1.10745
1.10696
1.10641
1.10579
1.10507
1.10422
1.10326
1.10242
1.10168
1.10087
1.10032
1.09996
1.09956
1.09921
1.09901
1.09896
1.09896
1.09899
1.09914
1.09945
1.09978
1.10007
1.10049
1.10089
1.10092
1.10082
1.10041
1.09958
1.0985
1.09722
1.0957
1.09394
1.09206
1.09022
1.08855
1.08706
1.0859
1.08507
1.0846
1.08437
1.08404
1.08357
1.08314
1.08259
1.08219
1.08196
1.08153
1.08099
1.08049
1.07997
1.07948
1.07904
1.07854
1.07796
1.07748
1.07709
1.07656
1.07594
1.0753
1.07464
1.07393
1.07319
1.07248
1.07186
1.07143
1.07125
1.07105
1.0708
1.13818
1.13765
1.13711
1.13649
1.13602
1.13572
1.13543
1.13505
1.1348
1.13473
1.13466
1.13454
1.13435
1.13399
1.13349
1.13294
1.13245
1.13202
1.13156
1.13105
1.13046
1.12977
1.12904
1.12842
1.12781
1.12712
1.12627
1.12527
1.12419
1.12307
1.12201
1.12111
1.12039
1.11978
1.11924
1.11874
1.11834
1.11804
1.11779
1.11762
1.11747
1.11731
1.11711
1.11681
1.11642
1.11603
1.11566
1.11523
1.11466
1.11394
1.11311
1.11221
1.11127
1.11034
1.10941
1.10854
1.10777
1.10712
1.10657
1.10605
1.10551
1.10497
1.10445
1.10393
1.1034
1.1028
1.10216
1.10147
1.10066
1.09982
1.0992
1.09871
1.09825
1.09771
1.09716
1.09681
1.09661
1.09656
1.09659
1.09666
1.09682
1.09708
1.09742
1.09798
1.09875
1.0993
1.09935
1.09924
1.09875
1.09781
1.09661
1.09527
1.0937
1.09192
1.09
1.08806
1.08633
1.08499
1.08397
1.08311
1.08237
1.08169
1.08119
1.08091
1.08058
1.08022
1.07973
1.07905
1.0785
1.0782
1.07796
1.07762
1.07728
1.07697
1.07651
1.07593
1.07528
1.07454
1.07372
1.07293
1.07212
1.0712
1.07021
1.06919
1.06814
1.06731
1.0669
1.06663
1.0664
1.06645
1.06644
1.06643
1.13667
1.1363
1.13591
1.13542
1.13509
1.135
1.13487
1.13459
1.13429
1.13413
1.13395
1.13371
1.13339
1.13298
1.13246
1.13185
1.1311
1.1302
1.12935
1.12865
1.12803
1.12741
1.12676
1.12602
1.1252
1.12428
1.12325
1.12214
1.12103
1.11996
1.11904
1.11836
1.11785
1.11733
1.11671
1.11631
1.11607
1.11589
1.11576
1.11557
1.1153
1.11502
1.11473
1.11438
1.11398
1.1135
1.11288
1.11216
1.11134
1.11043
1.10943
1.10839
1.10738
1.10645
1.1056
1.10486
1.10419
1.10355
1.10294
1.10232
1.1017
1.10112
1.10059
1.10006
1.09947
1.09875
1.098
1.09732
1.09655
1.09587
1.09554
1.09515
1.09482
1.09466
1.09438
1.09423
1.09422
1.09424
1.0944
1.09477
1.09527
1.09601
1.09685
1.0971
1.09712
1.09706
1.09673
1.09603
1.09503
1.09373
1.09211
1.0902
1.0881
1.08605
1.08423
1.08278
1.08173
1.08088
1.08017
1.07971
1.07932
1.07889
1.07843
1.07795
1.07749
1.07706
1.07652
1.07586
1.07531
1.07497
1.0748
1.07437
1.0738
1.07319
1.07251
1.07183
1.07112
1.0703
1.06936
1.06835
1.06727
1.06606
1.06477
1.0635
1.06242
1.06193
1.06187
1.06184
1.06169
1.06173
1.06193
1.06226
1.13576
1.13558
1.1353
1.1349
1.13458
1.13444
1.13434
1.13423
1.13411
1.13388
1.1335
1.13301
1.13242
1.13173
1.13091
1.13004
1.12918
1.12831
1.12737
1.12643
1.12552
1.12463
1.12379
1.12294
1.12203
1.12106
1.12004
1.11897
1.11798
1.11707
1.11626
1.11577
1.11536
1.11482
1.11436
1.11412
1.11386
1.11351
1.11309
1.11267
1.11227
1.11186
1.11142
1.11096
1.11049
1.11
1.10942
1.10866
1.10776
1.10678
1.10575
1.10475
1.10381
1.10293
1.10212
1.10136
1.10065
1.09996
1.0993
1.09868
1.09809
1.09752
1.09695
1.09637
1.0957
1.09487
1.0941
1.09354
1.093
1.09255
1.09222
1.09184
1.09157
1.09154
1.09163
1.09185
1.09216
1.09246
1.09284
1.09367
1.09469
1.09502
1.09506
1.09499
1.09472
1.09415
1.09331
1.09223
1.0908
1.08892
1.08671
1.08441
1.08232
1.08065
1.07953
1.07882
1.07823
1.07765
1.07718
1.07679
1.0763
1.07569
1.07502
1.07437
1.07395
1.07371
1.0736
1.07332
1.07291
1.07256
1.07208
1.07142
1.07072
1.07008
1.06938
1.06854
1.06758
1.06642
1.06503
1.06352
1.06198
1.06051
1.05918
1.05813
1.05756
1.05733
1.05727
1.05736
1.05733
1.05734
1.05765
1.05845
1.13533
1.13506
1.13489
1.13481
1.1347
1.13458
1.13442
1.1341
1.13366
1.13301
1.13211
1.13121
1.13042
1.12958
1.12861
1.12755
1.12649
1.12546
1.12446
1.12351
1.12259
1.12163
1.12064
1.11964
1.11864
1.11767
1.1167
1.11579
1.11501
1.11427
1.11358
1.11323
1.11302
1.11266
1.11227
1.11204
1.11178
1.11141
1.11097
1.11049
1.11
1.10944
1.10881
1.10814
1.10743
1.10666
1.10585
1.10499
1.10406
1.10308
1.10212
1.10117
1.10027
1.09942
1.09862
1.09789
1.09721
1.09658
1.09598
1.09539
1.09479
1.09418
1.09352
1.09282
1.0921
1.09144
1.09087
1.09034
1.08984
1.08952
1.08938
1.08925
1.08918
1.08922
1.0894
1.08978
1.09047
1.09137
1.09247
1.09346
1.09353
1.09338
1.09311
1.09257
1.09163
1.09047
1.08909
1.0874
1.08539
1.08315
1.08095
1.07917
1.07778
1.07664
1.07607
1.07569
1.07518
1.07463
1.07429
1.07395
1.07348
1.07285
1.07216
1.07156
1.07118
1.07099
1.07071
1.07014
1.06945
1.06884
1.06821
1.06751
1.06684
1.06615
1.06534
1.06435
1.06318
1.06178
1.06015
1.05835
1.05664
1.05532
1.05426
1.05353
1.05337
1.05333
1.05318
1.05317
1.05329
1.05339
1.05365
1.05468
1.13535
1.13501
1.13487
1.13474
1.13455
1.13432
1.134
1.13352
1.13277
1.13178
1.13063
1.12933
1.12799
1.1267
1.12547
1.12434
1.12331
1.12232
1.12137
1.12043
1.11947
1.11847
1.11742
1.11634
1.11533
1.11435
1.11341
1.11279
1.1123
1.11179
1.1112
1.11072
1.11034
1.10987
1.10934
1.10898
1.10869
1.10837
1.10802
1.10761
1.10713
1.10657
1.1059
1.10511
1.10425
1.10336
1.10243
1.10149
1.10054
1.09956
1.09859
1.09766
1.0968
1.09602
1.09531
1.09467
1.09408
1.09354
1.093
1.09244
1.09186
1.0912
1.09041
1.08965
1.08894
1.08835
1.08797
1.08764
1.08728
1.08701
1.08694
1.08696
1.08713
1.08745
1.08791
1.08864
1.0897
1.09072
1.09078
1.09069
1.09048
1.0901
1.08954
1.08874
1.08754
1.08588
1.08385
1.08165
1.07948
1.07767
1.07636
1.07542
1.07448
1.07354
1.07324
1.07296
1.07251
1.07194
1.07131
1.0708
1.07039
1.07001
1.06974
1.06957
1.06933
1.06886
1.06817
1.06737
1.06661
1.06594
1.06527
1.06456
1.06373
1.06268
1.06139
1.05994
1.05832
1.05658
1.05487
1.05324
1.05202
1.05117
1.05034
1.04969
1.04955
1.0496
1.04948
1.0494
1.04954
1.0499
1.05021
1.05109
1.13536
1.13509
1.13491
1.13471
1.13434
1.13368
1.13272
1.13142
1.1301
1.12883
1.12754
1.12616
1.12474
1.12335
1.12201
1.12081
1.11977
1.11882
1.11796
1.11706
1.11613
1.1152
1.11421
1.11319
1.11226
1.11136
1.11053
1.11011
1.10979
1.10934
1.10878
1.10836
1.10804
1.10764
1.10717
1.10676
1.10637
1.10595
1.10548
1.10494
1.10429
1.1036
1.10286
1.10203
1.10111
1.10015
1.09916
1.09812
1.09711
1.09614
1.09522
1.09435
1.09362
1.09298
1.09239
1.09185
1.09134
1.09086
1.09033
1.08972
1.0891
1.08843
1.08771
1.08719
1.08667
1.08605
1.0856
1.0854
1.08528
1.08517
1.08515
1.08521
1.08546
1.08618
1.08732
1.08837
1.08861
1.08861
1.08854
1.08824
1.08763
1.08667
1.08543
1.08392
1.08208
1.07995
1.0778
1.07601
1.07451
1.0735
1.07292
1.07237
1.07171
1.07092
1.07055
1.07031
1.06986
1.06917
1.06859
1.06827
1.068
1.06762
1.06713
1.06662
1.06611
1.06555
1.0649
1.0642
1.06354
1.0628
1.0619
1.06088
1.05976
1.05841
1.05675
1.05491
1.05302
1.05131
1.05001
1.04894
1.04823
1.04767
1.04696
1.0463
1.04605
1.04604
1.04602
1.04602
1.04616
1.0466
1.04691
1.0476
1.13524
1.13492
1.13444
1.13352
1.13231
1.13114
1.12999
1.12872
1.12731
1.12583
1.12425
1.12264
1.12109
1.11968
1.11838
1.11721
1.1162
1.11535
1.11458
1.11379
1.11298
1.11215
1.11119
1.11023
1.10948
1.10884
1.10812
1.10765
1.1073
1.10682
1.10622
1.10579
1.10548
1.1051
1.10464
1.10421
1.10378
1.10328
1.10274
1.10216
1.10144
1.10061
1.09978
1.0989
1.09793
1.09692
1.09591
1.09488
1.09392
1.09311
1.0923
1.09149
1.09084
1.09027
1.08976
1.08929
1.08882
1.08835
1.08786
1.08719
1.0865
1.0859
1.08537
1.08508
1.08482
1.08438
1.0839
1.08366
1.08358
1.08361
1.08377
1.08425
1.085
1.08558
1.08576
1.08568
1.08541
1.0851
1.0848
1.08428
1.08331
1.08181
1.07985
1.07773
1.07562
1.07382
1.07261
1.07179
1.07099
1.07024
1.0699
1.06956
1.06904
1.06839
1.06795
1.06771
1.06728
1.06654
1.06612
1.066
1.06583
1.06535
1.06476
1.06416
1.06356
1.06293
1.06229
1.06167
1.06091
1.05985
1.05849
1.05692
1.05524
1.05345
1.05155
1.04967
1.04812
1.04701
1.04614
1.04535
1.04472
1.04437
1.04395
1.04337
1.04316
1.04319
1.04317
1.04294
1.04301
1.04326
1.04354
1.04409
1.13491
1.13394
1.13263
1.13122
1.1298
1.12839
1.12692
1.12532
1.12365
1.122
1.12033
1.11871
1.11724
1.11598
1.11488
1.11393
1.11306
1.1123
1.11155
1.11078
1.11001
1.10922
1.10823
1.10741
1.10694
1.10646
1.10581
1.10532
1.10495
1.1045
1.10392
1.10348
1.10314
1.10275
1.10229
1.10182
1.10134
1.10077
1.10012
1.09944
1.09862
1.09763
1.0966
1.09565
1.09466
1.09368
1.0928
1.09193
1.09115
1.09049
1.08969
1.08894
1.08848
1.088
1.08744
1.08696
1.08647
1.08588
1.0853
1.08482
1.08438
1.08391
1.0834
1.08305
1.08289
1.08276
1.08255
1.08248
1.08247
1.08257
1.08316
1.08413
1.08451
1.08427
1.08388
1.08336
1.08264
1.08166
1.08049
1.0791
1.0774
1.07534
1.07315
1.07137
1.07004
1.0691
1.06883
1.06857
1.06803
1.06725
1.06689
1.06675
1.06634
1.06576
1.06551
1.06544
1.06516
1.0646
1.06421
1.06395
1.06352
1.06295
1.06236
1.0617
1.06095
1.06013
1.05921
1.05824
1.05722
1.05593
1.05424
1.05227
1.05023
1.04831
1.04664
1.04527
1.04438
1.04366
1.04284
1.04206
1.04151
1.04122
1.04112
1.04083
1.04075
1.04085
1.04066
1.04014
1.04015
1.04028
1.04058
1.04097
1.13262
1.1313
1.12993
1.12837
1.12668
1.12501
1.12328
1.12142
1.11952
1.11777
1.1162
1.11481
1.11362
1.11267
1.11185
1.11112
1.11039
1.10962
1.10878
1.1079
1.10711
1.1064
1.1056
1.10495
1.10462
1.10423
1.10366
1.10314
1.10279
1.10237
1.10184
1.10134
1.10092
1.10048
1.09999
1.09947
1.09891
1.09824
1.09746
1.09659
1.09566
1.09462
1.09356
1.09258
1.09156
1.09075
1.09007
1.08929
1.08864
1.08809
1.08737
1.0868
1.08642
1.08591
1.08528
1.08485
1.08443
1.08386
1.08314
1.08276
1.08261
1.0824
1.08204
1.08171
1.0816
1.08156
1.08155
1.0819
1.08274
1.08338
1.08332
1.08298
1.08239
1.08162
1.08082
1.07988
1.07861
1.07695
1.0749
1.07273
1.07063
1.06871
1.06746
1.06676
1.06614
1.06564
1.06542
1.0654
1.06521
1.06462
1.0644
1.06442
1.06409
1.06356
1.06333
1.0631
1.06276
1.06246
1.0622
1.06181
1.06131
1.06081
1.0603
1.05965
1.05879
1.05767
1.05627
1.05468
1.05301
1.05123
1.04928
1.04726
1.04542
1.044
1.04288
1.04192
1.04125
1.04069
1.03996
1.03924
1.03882
1.03867
1.03827
1.0378
1.03775
1.03794
1.03787
1.03744
1.0374
1.03748
1.03774
1.03776
1.12986
1.12824
1.12663
1.1249
1.12296
1.121
1.11912
1.11725
1.11546
1.1139
1.11261
1.11153
1.11062
1.10982
1.10912
1.10841
1.10774
1.10703
1.10622
1.1053
1.10464
1.10408
1.10344
1.10275
1.1024
1.10208
1.10161
1.10112
1.10074
1.1003
1.09975
1.0992
1.09872
1.09821
1.09769
1.09713
1.09646
1.09566
1.09475
1.09378
1.09281
1.09182
1.09085
1.08993
1.08892
1.0882
1.08765
1.08699
1.08638
1.0858
1.08517
1.0848
1.08445
1.08392
1.08333
1.0829
1.08256
1.08219
1.08173
1.08134
1.08116
1.08108
1.08102
1.08098
1.081
1.0812
1.08146
1.08166
1.08179
1.08153
1.08091
1.08023
1.07948
1.07842
1.07701
1.07534
1.07333
1.07104
1.06867
1.06673
1.06525
1.06424
1.06385
1.06345
1.06296
1.06263
1.06249
1.06246
1.06246
1.06233
1.06245
1.06254
1.06204
1.06148
1.06135
1.0613
1.06108
1.06068
1.06012
1.05946
1.05874
1.05801
1.05725
1.05638
1.05537
1.0541
1.0524
1.05036
1.04823
1.0462
1.04438
1.04277
1.04166
1.04085
1.03998
1.03911
1.03852
1.03811
1.03747
1.03683
1.03643
1.03623
1.03576
1.03536
1.03532
1.03539
1.03542
1.03513
1.03495
1.03493
1.03487
1.03463
1.1263
1.12442
1.12254
1.12067
1.11869
1.11671
1.11494
1.1134
1.11209
1.11092
1.10989
1.10893
1.10805
1.10725
1.10653
1.10576
1.10512
1.10457
1.10396
1.10321
1.10263
1.10217
1.10161
1.10095
1.10055
1.10019
1.09969
1.09914
1.09872
1.09829
1.09782
1.0973
1.09672
1.09607
1.09539
1.09469
1.09389
1.09298
1.09199
1.09098
1.09008
1.08924
1.08845
1.08765
1.08691
1.08615
1.08536
1.08492
1.08449
1.08378
1.08309
1.08286
1.08261
1.08212
1.08162
1.08137
1.08113
1.08082
1.08057
1.08047
1.08044
1.08044
1.08047
1.08068
1.08124
1.08169
1.08152
1.08098
1.08033
1.07947
1.07835
1.07702
1.07555
1.07379
1.07165
1.06938
1.06727
1.06533
1.06377
1.06276
1.06195
1.06127
1.06083
1.06046
1.06025
1.06004
1.05996
1.06003
1.06003
1.05956
1.05934
1.05936
1.05921
1.0589
1.05871
1.05856
1.05842
1.05817
1.05772
1.05714
1.05645
1.0556
1.05457
1.05331
1.05174
1.04989
1.04775
1.04549
1.04347
1.04184
1.04055
1.0396
1.039
1.0384
1.03758
1.03665
1.03603
1.03565
1.0351
1.03457
1.03433
1.03406
1.03365
1.03332
1.03331
1.03324
1.03302
1.03267
1.03246
1.03222
1.03193
1.03141
1.12207
1.1201
1.11811
1.11622
1.11441
1.11277
1.11142
1.11031
1.1094
1.10858
1.10772
1.10682
1.10589
1.10503
1.10428
1.10352
1.1028
1.1024
1.10195
1.10134
1.10088
1.10057
1.10015
1.09955
1.09895
1.0985
1.09804
1.09755
1.09705
1.09652
1.09593
1.0953
1.09465
1.09391
1.09311
1.0923
1.09138
1.09035
1.08933
1.08841
1.08762
1.08701
1.08641
1.08582
1.08528
1.08461
1.08389
1.08348
1.08303
1.08243
1.08176
1.08133
1.08106
1.08067
1.08025
1.08008
1.08008
1.08006
1.08004
1.08005
1.08013
1.08039
1.08077
1.08104
1.08095
1.08044
1.07948
1.07835
1.07715
1.07586
1.07428
1.07232
1.07016
1.06793
1.06571
1.06373
1.06238
1.06134
1.06055
1.05996
1.05929
1.0587
1.05844
1.05818
1.05798
1.05775
1.05752
1.05749
1.05744
1.05719
1.05693
1.05669
1.05664
1.0568
1.0567
1.05637
1.05601
1.05558
1.05502
1.05432
1.05345
1.05236
1.05103
1.04939
1.04734
1.04507
1.04291
1.04109
1.03972
1.03864
1.03771
1.03705
1.03653
1.03607
1.03541
1.03454
1.03393
1.03362
1.03316
1.03254
1.03219
1.03183
1.03141
1.03114
1.03097
1.03076
1.03047
1.03009
1.02977
1.02937
1.02897
1.02817
1.11753
1.11577
1.11399
1.11232
1.11083
1.10965
1.10869
1.10788
1.10718
1.10652
1.10579
1.10501
1.10415
1.10324
1.10248
1.10175
1.10094
1.10048
1.1002
1.09979
1.09938
1.09909
1.09869
1.09815
1.09763
1.09713
1.09654
1.0959
1.09527
1.09468
1.09407
1.09342
1.0927
1.09186
1.0909
1.08994
1.08891
1.08788
1.08702
1.08625
1.08535
1.08492
1.0846
1.08418
1.08377
1.08319
1.08254
1.08219
1.08179
1.08126
1.08083
1.08046
1.08012
1.07985
1.07968
1.07954
1.0795
1.07956
1.07983
1.08049
1.08114
1.08116
1.08084
1.08015
1.0791
1.07786
1.07646
1.07482
1.07292
1.07084
1.06868
1.06644
1.06428
1.06248
1.06107
1.05982
1.05902
1.05858
1.05814
1.05764
1.05701
1.05647
1.0562
1.05615
1.05608
1.05548
1.055
1.055
1.0551
1.05527
1.05494
1.05449
1.05423
1.05405
1.05379
1.05341
1.05295
1.05239
1.0517
1.05084
1.04972
1.04825
1.04646
1.04439
1.04228
1.04041
1.03896
1.03784
1.03689
1.03616
1.03549
1.03478
1.03421
1.03382
1.03337
1.03258
1.03188
1.03145
1.03088
1.0303
1.03002
1.02982
1.02942
1.0291
1.02879
1.02845
1.02808
1.02762
1.0271
1.02651
1.02603
1.02501
1.11346
1.11197
1.11053
1.10927
1.10817
1.1073
1.10659
1.10589
1.10521
1.10454
1.10387
1.1032
1.10252
1.10176
1.1011
1.10048
1.09977
1.09915
1.09878
1.09833
1.09785
1.09753
1.0972
1.09675
1.09624
1.09565
1.09499
1.09432
1.09365
1.093
1.09231
1.09155
1.09074
1.08981
1.08875
1.08772
1.08671
1.08587
1.08528
1.08467
1.08389
1.08336
1.08297
1.08238
1.08192
1.0817
1.08124
1.08081
1.08045
1.07992
1.07972
1.07971
1.07958
1.07944
1.07943
1.07948
1.07959
1.0799
1.08038
1.08051
1.08022
1.07948
1.07844
1.07718
1.07572
1.07402
1.07199
1.06968
1.06725
1.06489
1.06284
1.06114
1.05988
1.059
1.05823
1.05743
1.0567
1.05628
1.05589
1.05545
1.0552
1.05476
1.05438
1.05424
1.05393
1.05339
1.05291
1.05259
1.0524
1.0523
1.05204
1.05168
1.05133
1.05093
1.05047
1.04999
1.04942
1.04868
1.04773
1.04652
1.04497
1.04309
1.041
1.03908
1.0378
1.03691
1.03604
1.03514
1.0343
1.0337
1.03321
1.03254
1.03188
1.0315
1.03132
1.03074
1.02992
1.02944
1.02902
1.02855
1.02812
1.02767
1.02718
1.0268
1.02645
1.02606
1.02565
1.02517
1.02454
1.02374
1.02312
1.02183
1.11013
1.10883
1.10777
1.10689
1.10608
1.10545
1.10485
1.10418
1.10354
1.10292
1.10219
1.10154
1.10094
1.10022
1.09964
1.09921
)
;

boundaryField
{
    inlet
    {
        type            fixedValue;
        value           nonuniform 0();
    }
    outlet
    {
        type            inletOutlet;
        inletValue      uniform 1;
        value           nonuniform List<scalar> 
19
(
1.08895
1.08437
1.07975
1.07529
1.07081
1.06645
1.06229
1.05849
1.05474
1.05115
1.04765
1.04414
1.041
1.03779
1.03464
1.03142
1.02817
1.025
1.0218
)
;
    }
    bottom
    {
        type            symmetryPlane;
    }
    top
    {
        type            symmetryPlane;
    }
    obstacle
    {
        type            zeroGradient;
    }
    front
    {
        type            empty;
    }
    back
    {
        type            empty;
    }
    procBoundary31to23
    {
        type            processor;
        value           nonuniform List<scalar> 
133
(
1.1026
1.1024
1.10213
1.10189
1.10184
1.10172
1.10134
1.10102
1.10078
1.10051
1.10019
1.09976
1.09921
1.09866
1.09813
1.09761
1.0972
1.09666
1.09573
1.09495
1.09358
1.14758
1.14706
1.14647
1.146
1.14561
1.1451
1.1446
1.1442
1.14388
1.14361
1.14332
1.14297
1.14251
1.14187
1.14108
1.14016
1.13942
1.13904
1.13878
1.1386
1.13839
1.13817
1.13797
1.13777
1.13752
1.13724
1.13698
1.13669
1.13636
1.136
1.13561
1.13518
1.1347
1.1342
1.1336
1.13294
1.13233
1.13181
1.13136
1.13092
1.1305
1.13012
1.12966
1.12925
1.12926
1.12928
1.12924
1.12922
1.12926
1.12936
1.12937
1.12928
1.1291
1.12884
1.12849
1.1281
1.12767
1.12716
1.12652
1.12571
1.12487
1.12427
1.1239
1.12368
1.12356
1.1234
1.12312
1.12274
1.12226
1.12163
1.12081
1.11983
1.11876
1.11766
1.11654
1.11544
1.11435
1.11328
1.11232
1.11146
1.11055
1.11014
1.11003
1.10977
1.10946
1.10948
1.10952
1.10947
1.10954
1.10975
1.11007
1.11039
1.1107
1.111
1.11125
1.11136
1.11136
1.11127
1.11079
1.10988
1.10876
1.10737
1.1057
1.10392
1.10208
1.10036
1.09948
1.09901
1.09852
1.09817
1.09797
1.09797
)
;
    }
    procBoundary31to30
    {
        type            processor;
        value           nonuniform List<scalar> 
18
(
1.14585
1.1438
1.14171
1.14012
1.13874
1.13746
1.13636
1.13577
1.13567
1.13559
1.13554
1.13554
1.134
1.13132
1.12797
1.12384
1.11925
1.11496
)
;
    }
    procBoundary31to38
    {
        type            processor;
        value           uniform 1.1114;
    }
    procBoundary31to39
    {
        type            processor;
        value           nonuniform List<scalar> 
133
(
1.09867
1.09814
1.09775
1.0973
1.09672
1.09615
1.09556
1.09496
1.09437
1.0938
1.09321
1.09257
1.09192
1.09127
1.09053
1.08972
1.08882
1.08778
1.08674
1.0858
1.08495
1.08412
1.08359
1.08328
1.08283
1.08234
1.08205
1.0816
1.08086
1.08033
1.08006
1.07971
1.07944
1.07929
1.07915
1.0791
1.07913
1.07927
1.07962
1.08041
1.08077
1.08063
1.08019
1.07934
1.07817
1.07682
1.07526
1.0734
1.07121
1.0688
1.06629
1.06379
1.06163
1.05998
1.05881
1.0579
1.05715
1.05669
1.05622
1.05564
1.05498
1.05451
1.05419
1.0538
1.05325
1.05271
1.05233
1.05202
1.0518
1.05153
1.05113
1.05076
1.05045
1.0501
1.04965
1.04911
1.04848
1.04775
1.04697
1.04623
1.04542
1.0444
1.04302
1.04133
1.03938
1.0374
1.03581
1.03483
1.03426
1.03386
1.03332
1.03257
1.03178
1.03118
1.0309
1.0304
1.02968
1.02918
1.02888
1.02849
1.02776
1.02715
1.02675
1.02638
1.02593
1.02544
1.02494
1.02452
1.02412
1.0237
1.02322
1.02265
1.02193
1.02094
1.02007
1.01837
1.10749
1.10644
1.1057
1.10501
1.10444
1.104
1.10346
1.10283
1.10225
1.10158
1.10066
1.09996
1.09941
1.09889
1.09848
1.09867
1.0981
)
;
    }
}


// ************************************************************************* //
