/*--------------------------------*- C++ -*----------------------------------*\
  =========                 |
  \\      /  F ield         | OpenFOAM: The Open Source CFD Toolbox
   \\    /   O peration     | Website:  https://openfoam.org
    \\  /    A nd           | Version:  7
     \\/     M anipulation  |
\*---------------------------------------------------------------------------*/
FoamFile
{
    version     2.0;
    format      ascii;
    class       volScalarField;
    location    "0.898";
    object      p;
}
// * * * * * * * * * * * * * * * * * * * * * * * * * * * * * * * * * * * * * //

dimensions      [0 2 -2 0 0 0 0];

internalField   nonuniform List<scalar> 
12359
(
0.0638747
0.0730006
0.0482498
0.105872
0.0673981
0.152985
0.184288
0.167244
0.224606
0.140851
0.205688
0.273549
0.486042
0.113114
0.100874
0.395016
0.439626
0.0523678
0.0520431
0.085996
0.122078
0.248706
0.079378
0.0913092
0.0758609
0.0822472
0.0493029
0.0491642
0.0513412
0.0497533
0.0501355
0.0487105
0.0484002
0.0495442
0.0482769
0.050319
0.0574458
0.0622369
0.0658141
0.0597439
0.071007
0.0609165
0.0550235
0.0543699
0.0507897
0.0510839
0.0505368
0.0499731
0.0516731
0.0494048
0.0490385
0.0489259
0.0486365
0.0527668
0.0485779
0.0484214
0.053742
0.0483902
0.0483764
0.0483227
0.0484617
0.048278
0.0489704
0.513318
0.0532475
0.130427
0.0566406
0.0488503
0.0580838
0.345222
0.530733
0.068991
0.0482413
0.0588363
0.0965123
0.0482779
0.0486224
0.0482577
0.0559126
0.314463
0.122966
0.0436336
0.0474072
0.048936
-0.0587974
0.0217747
0.0434663
0.0460684
-0.073003
-0.0533029
0.0480518
0.469765
0.0480103
0.0476556
0.0475476
0.00363991
0.0471362
0.0476924
0.0562944
0.0528193
0.106085
0.0481513
0.0219723
-0.130169
0.0427803
0.0115371
0.0471821
-0.0572671
0.0250659
0.0119112
0.0472672
0.0437263
0.108378
0.0897294
0.048063
0.0442438
0.0915052
0.0426844
-0.0772013
0.0474419
0.0474018
0.173901
0.0459003
0.00446365
0.042386
0.044229
0.0354922
0.0488287
0.0482501
0.0422623
0.0448083
-0.00265065
-0.00399549
-0.0026774
0.0472278
0.00529247
0.0446514
0.00512021
0.0481777
0.0361115
0.0475631
0.0653578
0.0128651
0.0471999
0.00679253
0.145393
0.0474163
-0.04974
0.0426148
0.125541
0.00274018
0.0481616
0.0128913
0.0458527
0.0479633
-0.17021
0.106086
-0.00183757
0.0472686
0.0487758
0.0438004
0.0488254
0.00305684
0.0101433
0.0473885
0.0443814
0.0448549
0.172332
0.0115656
-0.0746611
0.0482586
0.048278
0.0102558
0.0758945
0.0430221
0.0401207
0.0513705
0.0511631
0.109348
0.040414
0.113146
0.0479412
0.048252
0.0433798
0.0552841
0.205883
0.0425377
0.046861
0.00269542
0.0422793
0.0471304
0.00472325
0.00453383
0.0457721
0.0108522
-0.136438
0.0305403
0.0434913
0.0136008
0.0427761
0.149274
0.0023572
0.0540675
0.011669
0.010108
0.0479198
0.00914408
0.0546517
0.00158801
0.0413745
0.047693
0.000226319
0.000221088
-0.546012
0.200906
0.0481811
0.0429824
0.0480587
0.0427675
0.066119
0.0999452
0.0414265
0.00429325
0.471993
0.0421315
0.0476716
0.0667654
0.026029
0.043041
0.0442599
0.0440509
0.0473975
0.0076673
0.0540974
0.0462582
0.0531665
0.0474363
0.0125202
0.0464704
0.289765
0.0473616
0.019823
0.0468771
0.0534155
0.0426888
-0.0492647
0.0483531
0.00136154
0.0435842
0.00545274
0.00126768
0.0616309
0.0508102
0.0446059
0.327578
-0.587808
0.0474482
0.041419
0.398826
-0.0509188
0.0535885
0.0437141
0.0432315
0.0105658
0.0742418
-0.464871
-0.070108
0.042467
0.0417085
0.00552401
0.010432
0.0591971
0.0117475
0.044734
0.041355
0.0473914
0.0415143
-0.120405
0.0412909
0.0471111
0.0481375
0.0100305
0.038891
0.0567105
0.02072
0.0475042
0.045596
0.0481564
0.0481393
0.048748
0.00297421
0.0433488
-0.465973
0.0471782
0.0471818
0.0221538
0.0436463
0.0991476
0.0478627
0.0490997
0.0480701
-0.108358
0.0427251
0.0480718
0.0432545
0.0474547
0.0435877
0.0441045
0.0445762
0.0435772
0.0523594
0.202773
0.0433393
0.0502052
0.0623119
0.0203594
-0.0573379
0.0430789
0.0572312
0.370499
0.048131
0.0169536
0.047077
0.0308775
0.0471703
0.042695
0.224562
0.0163518
0.202637
0.0562607
0.0465572
0.00413515
0.00178217
0.0463957
0.00394525
0.00365527
0.0468821
0.0485324
0.0485177
0.0485808
0.0485654
0.28965
0.0474826
0.104064
0.000578451
0.053986
0.0111698
0.0164856
0.0227952
0.0316397
0.0156699
0.0321857
0.0560662
0.0183076
0.0195883
0.0909064
0.0661878
0.0128841
0.0643519
0.064291
0.0141907
0.103449
0.0441799
0.0486075
0.0290539
0.048567
0.0438645
-0.197883
0.500857
0.0440754
0.0482124
0.0472351
0.0478378
0.0154638
0.0479675
0.0479519
-0.077525
0.010501
-0.0505637
0.0459443
0.00839581
0.0391621
0.0471224
0.0139745
0.0288865
0.109054
0.0290312
0.0444087
0.0470722
0.00994927
0.00815203
0.0416668
0.292169
0.0137703
0.00397394
0.0483326
0.0451604
0.0481942
0.384277
0.0109925
0.0460909
0.0616321
0.0633527
0.0475801
0.0475526
0.0477804
-0.0593387
0.0973688
0.0583521
0.0158294
0.00228719
0.0476179
0.113047
0.0477564
-0.000191929
-0.0625147
0.297749
0.0528561
0.090354
0.0254593
0.0205453
0.0336061
0.0287392
0.0498183
0.0335279
0.0132002
0.0479728
-0.0513481
0.0572471
-0.00642932
0.00696282
0.0541707
0.0946623
-0.150697
0.015187
0.0377015
0.00213907
0.00666501
0.0170613
0.0427562
0.0477298
0.0510234
0.0471768
-0.00333635
0.0448965
0.0820208
0.0841592
0.0338612
-0.0569699
0.102922
0.0525859
0.0463602
0.387299
0.0469831
0.0459206
0.00356126
0.0482144
0.0462273
0.0459049
0.233426
0.20726
0.0485921
0.0460563
0.108668
0.0466531
0.0160708
0.0129696
0.0108892
0.0468483
0.0478212
0.0463842
0.0480809
0.0836725
0.0166887
0.0202073
0.0509865
0.0498493
0.00120606
0.0499107
0.0453773
0.0414286
0.119482
0.00296026
0.0481636
0.0460389
0.00953469
0.0276626
0.0470051
0.0444751
0.111509
0.0154256
0.0056543
0.0188099
0.046795
0.0456134
-0.00734096
-0.00444551
0.0480747
0.0348528
0.0471868
0.00329616
0.281093
0.0477626
0.0450386
0.0469441
0.0126143
0.0524292
0.0516054
0.0445012
0.0478188
0.0278872
0.074586
0.0362586
-0.0375489
0.0471205
-0.0429849
0.0461923
-0.119095
0.0149313
-0.00450091
0.0483679
0.0507893
0.0197089
0.0434331
0.0490284
0.0553872
0.0526875
0.052983
0.0691485
0.0122077
0.0118569
0.0474258
0.0431266
0.0165157
-0.00356872
0.0474264
0.04711
0.00973809
0.0468847
0.224401
-0.155757
-0.106575
0.047426
0.0395746
0.000894419
0.0518824
0.0433748
0.453245
0.047136
0.113411
0.0870396
0.0393933
0.0436554
0.0491492
0.034269
0.000478042
0.0279623
0.0502667
0.0474532
0.0482486
0.0522962
0.0513593
0.0536461
0.012012
0.0487819
0.0471316
0.0184959
-0.0794242
0.0500985
-7.79885e-05
0.0472627
0.0508142
0.0937523
0.00149382
0.00122748
0.094856
0.0442859
0.00105492
0.0476139
0.0483095
0.00296401
0.0350202
0.0436356
0.0349311
0.0478859
0.0471045
0.043892
0.047644
0.00113835
0.102037
0.0575701
0.116918
0.01341
0.0376726
0.111702
0.0614418
-0.00524523
0.0110557
0.0623711
0.0524023
0.0483266
0.0360711
0.0188162
0.047422
0.0482264
0.0468874
0.0483628
-0.0178038
0.0352841
0.0310251
0.10387
0.0556634
0.23377
0.00336483
0.00108047
0.0437497
-0.00306143
0.0478703
0.0485561
0.046876
0.104308
0.112394
0.0446217
0.0282514
0.229281
0.0133955
0.00391301
0.0364212
0.0639863
-0.130611
0.0465077
0.049248
0.0479061
-0.0119051
0.0491293
0.0287936
-0.0566938
0.0471304
0.0759987
0.0556843
0.0394455
0.0503317
0.0449646
0.0486234
0.0520799
0.0486746
0.0485623
0.0515118
0.00470546
0.00793687
0.0395358
0.330401
0.00135284
0.419972
0.0148092
0.0209306
0.0518014
0.0159846
0.0549967
0.00387418
0.316954
0.0966048
0.0541876
0.0417973
0.0526518
0.0513498
0.0194056
0.0477278
-0.00686931
0.0487094
0.0976782
0.0467003
-0.0159341
0.0064098
0.00935676
0.0544315
0.0369439
0.00683366
0.0759084
0.0037945
0.0384815
0.00143986
0.0411305
0.0474623
0.048221
-0.21337
0.0687598
0.0400419
0.0473755
0.048883
0.0529442
0.08143
0.00785561
0.0136421
0.0469169
0.0416456
0.0536374
0.0399504
0.0366743
0.000525378
0.0541156
0.05571
0.00761459
0.0414391
0.0382784
0.102008
0.0474263
0.0541807
-0.263405
0.0483589
0.00558555
0.0494568
0.0386692
0.0872443
0.0080266
0.0490228
0.0169223
0.0477901
0.110256
0.0424509
0.00614958
0.00917989
0.111327
0.0476602
0.000793912
-0.00640405
0.0547038
0.0404158
0.0426694
0.0345376
0.236073
0.0520894
0.0481994
0.0531142
0.0479867
-0.128833
0.0398915
0.00822086
0.0289435
0.0137224
0.521285
0.039925
-0.057637
0.00826901
-0.0876443
0.0159523
0.0501541
0.0399699
0.0280998
-0.0498836
-0.0374439
0.0462169
0.0460914
0.116904
0.0457175
0.210183
0.0179446
0.0680099
0.0430075
0.391285
-0.105587
0.0404393
0.047467
0.0475349
0.0921687
0.0529917
0.057826
0.0502731
0.0125776
0.0754495
-0.0241376
0.349037
0.0469873
0.0811134
0.0122057
0.118516
0.0418449
0.113166
0.00596455
0.0932198
0.0505662
0.0473742
0.00791692
0.00516821
0.0143148
0.116453
0.0108678
0.0210624
0.0493382
0.0469427
0.0362331
0.245326
0.0362811
0.0100923
0.0648579
0.0172467
0.0329069
0.0508795
-0.00561583
0.0299231
0.0413339
-0.0129759
0.0562824
0.0235291
0.197862
0.0474534
0.0297087
0.0483059
0.0550675
0.0444495
0.0487849
0.0474255
0.000130055
0.0415032
0.0758642
0.0105666
0.0932684
0.0282652
0.0285597
0.00863593
-0.194225
0.0483426
0.0546592
0.02152
-0.071365
0.00562232
0.0475805
0.509309
0.0473994
0.0425526
-0.164968
0.0529993
0.0479068
0.0479421
0.0634787
0.0880724
0.0483666
0.0540448
0.107494
0.0488514
0.0512494
0.0506806
0.046522
0.0891504
-0.0186425
0.0522901
0.115233
0.00798388
0.00251567
0.00374779
0.0132801
0.0506464
0.0423731
-0.0422349
0.00366566
0.0710517
0.0466066
0.0483845
0.116481
-0.00306181
0.0305327
0.0351807
0.0303108
0.0501937
0.041277
0.0823739
-0.23564
0.361419
0.0808293
0.0480475
0.0412549
0.0778465
0.349501
0.109215
0.0476147
-0.00125588
-0.0143127
-0.247653
0.0329605
-0.160594
0.0483588
0.0505561
0.0483986
0.00465583
0.072889
-0.164596
0.0428456
-0.0864632
0.0455162
0.0485407
0.00875392
0.0522665
-0.000475515
-0.043593
0.0537942
0.0320676
0.0215326
0.0334147
0.0536399
0.0735522
0.0708405
0.0280905
0.0770627
0.053814
0.0484353
0.0509147
0.0489328
0.102652
0.0198634
-0.00900006
0.000734015
0.0841446
0.0223422
0.0206389
0.0404628
-0.0130431
0.0314988
0.0531486
0.0479185
-0.00187794
0.106794
0.0430184
0.0380986
0.0547971
0.0212355
0.101007
0.113874
0.0211358
0.243547
0.0198984
0.0852277
-0.0405332
0.0519021
0.0163798
0.00954697
0.0457537
0.0311822
0.0356488
0.0419198
0.0476084
0.0437694
-0.0155697
-0.00309362
0.0430107
-0.148039
0.0982358
0.0488248
0.0485197
0.000290539
0.0487323
0.0758303
0.0115797
0.00305384
0.0486747
0.0509338
0.0472723
0.048735
0.116881
-0.140979
0.0488061
0.0547355
0.0474319
-0.14873
0.0194142
0.0124774
0.0471933
0.0487091
0.0505087
0.0224096
0.083495
0.0257531
0.0459089
0.050932
0.048621
0.0188231
0.08299
0.0356814
0.0482183
0.0280876
0.0229582
0.0734666
0.0439541
-0.0184977
0.143651
0.0457613
0.0303124
0.0506775
0.0413284
-0.185065
0.0536424
0.0488748
0.00897807
0.102877
0.0804591
-0.142221
0.0744301
0.0321996
0.0252572
0.0547777
0.0373735
0.0320109
0.0540042
0.145398
0.0481922
-0.327849
0.0816024
0.179279
0.0373539
-0.00566647
0.0938385
-0.0025884
0.26098
0.00538578
0.0224337
0.0306364
0.0362993
0.0473985
0.0416553
0.0861801
0.000536896
0.0541829
0.0458195
0.00461946
0.0146761
0.00450837
0.0783165
-0.000930172
0.00416535
0.0467395
0.0689999
-0.0511301
0.0854035
0.0473857
0.0315838
0.051556
0.0473955
0.0673967
0.0483458
0.0417276
0.24324
0.090116
-0.018634
0.0483835
0.047805
0.0480008
0.0543062
0.051778
-0.00275745
0.0519091
0.0476929
-0.0182279
0.0192776
0.00428283
0.0670761
0.0480392
0.0393777
0.0896476
0.0312219
0.0484107
-0.0432363
0.00830777
0.109881
0.0482282
-0.238514
0.0957352
0.0483105
0.00231961
0.0356597
-0.0201681
0.0329954
-0.00040371
0.0927513
0.0475095
0.0499814
0.0189347
0.0376456
0.0528002
-0.00876451
0.0531593
0.053316
0.0952132
0.045213
0.0514876
0.0327069
0.00739516
0.0474927
0.0532268
0.0512734
0.047304
0.0948184
-0.0431624
0.0236036
0.0543898
0.051738
0.0392494
0.0473782
-0.196928
0.0773294
0.0481518
0.0692883
0.0393477
0.0976224
0.151092
0.000906318
0.0532212
0.00354744
-0.0035438
0.0471549
0.0382664
-0.00236272
0.0434753
0.0481984
0.0708564
0.0247327
0.0518551
0.0482225
0.0391501
0.0821791
0.04877
0.029471
0.0483612
0.0353859
0.0653874
0.130063
0.0478101
-0.202034
0.0782693
0.0137559
-0.122674
0.0908437
0.0290864
-0.0331922
0.0548681
0.139089
0.205942
0.0515225
0.042108
0.0420229
0.0499869
0.0518954
0.00530049
-0.080954
-0.147508
0.0070967
0.146611
-0.00663878
0.00832648
-0.0564561
0.0476616
0.050212
0.0455838
0.022255
0.0474959
0.00675617
0.033671
-0.0097927
0.0474771
0.0507135
0.045569
-0.154184
0.11753
0.076236
0.0596538
0.119995
0.0422636
0.0487444
-0.0180663
0.0334788
-0.0140475
0.00583638
0.0192107
0.00277853
0.0124154
0.0553505
0.0470327
0.047429
-0.124381
0.0392661
0.036944
0.0512396
0.00190452
0.0160998
0.0478488
0.0169397
-0.0151708
-0.000237105
0.0926385
0.0513475
0.0478877
0.0032656
0.0544521
0.0476332
-0.0027383
0.00587291
0.0514337
0.136651
0.000344262
0.0479578
0.0478732
0.0472618
0.10516
-0.14269
0.0380844
0.0084229
0.0507526
0.0511248
0.00841928
0.0481196
0.177989
0.0123127
-0.0511779
0.152159
0.0271065
0.0470379
0.0474952
0.0298815
0.0546434
0.0469668
-0.182817
0.00372605
0.0416925
0.217445
0.0993792
0.0425102
0.0474262
0.0478811
0.050848
-0.0750842
0.159534
0.0309001
0.0755107
0.065116
0.00443047
-0.0793088
0.0208456
0.0527154
0.0511228
0.0143734
0.0385182
0.0469456
0.050172
0.00223387
0.0517922
0.0299638
0.0535877
0.0798733
-0.0128035
0.0449346
0.0502779
-0.00522369
0.00212877
0.0570878
0.0500359
0.0747891
-0.000721005
0.0364638
0.0153661
0.072356
0.0131865
-0.0339416
0.051443
0.156774
0.0470974
0.10283
-0.00163102
0.0480845
0.0475764
0.373863
0.0481273
0.0542708
0.023852
0.0530088
0.0531515
0.0561222
0.0480341
0.0479879
0.000135442
-0.0274274
0.0458689
0.330368
0.0343571
0.0499711
0.233964
0.097254
0.0533606
0.0432661
0.0496345
0.08662
-0.273708
0.0528564
0.0458012
0.0472328
0.0501273
0.0619794
0.014199
0.0524025
0.0628556
0.0511851
-0.157115
-0.00843163
0.00579484
0.108449
0.0341427
0.0500633
0.003137
-0.119736
0.0511542
0.0474367
0.0499972
0.0444832
0.0529701
0.0467476
-0.0042218
0.0429447
0.0419943
0.313251
-0.00135013
-0.00781377
0.00261126
0.0527833
0.000194429
0.0848022
-0.0896418
0.0456459
0.00825469
0.0481062
0.24062
0.0474752
0.0474873
0.0270267
0.047268
0.0231541
0.0575345
0.0530533
0.0455182
-0.0931024
0.0855998
0.00856196
0.050241
0.0333124
-0.0557772
-0.00897672
0.0768303
0.0731399
0.0481206
0.0536889
0.0443618
0.0500243
0.045866
0.050204
0.0881253
0.072528
0.00536799
-0.108391
0.0217566
-0.0104581
0.0301196
-0.111725
0.046708
-0.0321706
0.0500831
-0.0146457
-0.00757051
0.02261
0.0476661
0.0268681
0.00878636
0.0289903
-0.00828282
0.230996
-0.106479
0.0500349
-0.00400158
0.0435362
-0.00675358
0.0884793
0.00175392
0.0431636
0.056005
0.00745134
0.0508453
0.0341654
0.0479925
0.042834
0.0474865
0.0537655
0.00494917
0.00102983
0.0476623
0.0824527
-0.0839515
0.485808
0.0470688
0.071504
0.0209297
0.191467
0.0290618
-0.182718
-0.0361224
0.0452841
0.0218655
0.0648403
0.174669
0.0463402
0.0658473
0.076065
0.0455453
-0.0883434
-0.00570522
0.0500783
0.0229629
-0.0352562
0.074421
-0.0902303
0.035048
0.0765625
0.0523794
0.0470768
0.0537958
0.0423133
-0.0770417
-0.000519178
-0.0652649
0.048648
-0.0864918
0.0274246
0.00190047
0.108983
0.0222114
0.024908
-0.0566709
0.0348407
0.033222
0.0039647
0.0679311
0.0233625
0.00691754
0.0678498
-0.0923575
0.0833408
0.0319873
0.0866227
0.0486477
0.111125
-0.000144833
0.0993726
0.0513879
-0.0380872
0.0477193
0.031273
0.00610802
-0.00109934
0.0554135
0.00480878
0.0429146
0.505841
0.0537459
0.00389237
0.0895813
-0.000111755
0.00554112
0.0478284
0.0287997
0.0474553
0.462695
0.0479103
0.0475918
0.0472653
-0.0158112
0.0420471
0.0417609
-0.0106446
0.0249997
0.0622982
0.0419274
0.0475496
0.104859
0.0459538
0.101872
0.00562989
0.084148
0.036916
0.0394086
0.0231941
-0.0156168
0.00732446
0.0409045
0.533511
0.0478909
0.0476068
0.0538954
-0.142228
0.0514173
0.027345
0.0758808
0.0517819
0.0389742
0.00145257
-0.0247592
0.0308527
-0.0484533
0.0527144
0.0429474
0.0117462
0.0162436
-0.000695681
0.0500134
0.0219979
0.0699752
0.192928
0.034407
0.0476066
0.0426569
0.176154
0.0482161
0.0482214
-0.037438
0.0295529
-0.0412022
0.038988
0.0474802
0.187401
-0.0156782
0.0428868
0.053043
0.0458269
-0.114805
0.0482245
0.0313246
-0.0291457
0.0482245
0.0475363
0.00751941
0.0470991
0.0482343
0.0105249
0.0488461
0.0474491
0.019492
0.047174
-0.0144018
0.0474717
0.0563437
0.117602
0.00661667
0.0482351
0.00348866
-0.174542
0.039107
0.0720451
0.0457141
0.0319475
0.0461987
-0.0194243
-0.00729731
0.0433732
0.0475424
0.12948
0.0274678
0.0124208
0.00839703
0.127597
0.0471115
0.00418939
0.0475298
-0.0214818
-0.00758551
-0.0059469
0.00631528
0.15451
-0.0920598
0.00400018
0.00772034
0.0457929
0.0501825
-0.000481326
0.134105
0.0966017
0.0300636
-0.0748605
0.0470947
-0.0649792
0.208372
0.0469544
-0.00943214
-0.0178501
0.0782601
0.00589447
0.00511314
0.0707579
0.0475595
-0.0141907
-0.0657718
0.263631
0.0528291
0.00160257
-0.0325959
0.140019
0.0494541
0.0475044
0.00474632
-0.0551288
0.0384637
0.0664758
0.0477854
0.0470871
0.0541893
0.0525822
0.0226347
0.053349
0.0474918
-0.0180485
0.0323652
-0.0278097
0.0127178
0.0477636
0.0475414
0.14093
0.052334
0.0778494
0.0586082
-0.0476977
0.0787683
0.0467862
-0.0248002
0.0568349
0.0474827
0.0243771
0.0363291
0.0387116
0.0925317
0.0227084
-0.153843
0.038002
0.0472643
-0.0288441
0.0472254
-0.00770603
0.028377
-0.0272524
-0.049783
0.0945174
-0.0331203
0.0478
-0.0104933
0.051595
0.0700148
-0.0251391
0.0176294
-0.0253715
-0.0655723
0.170524
-0.0132729
0.0613654
0.0467361
0.0473657
0.0472021
-0.0335488
0.139418
0.0467665
-0.0163803
-0.0210533
0.01229
0.000801045
0.0245775
0.107585
-0.0304122
0.0522579
0.00994688
0.0226361
0.0480983
0.0481171
0.0494308
0.0526547
0.00825631
0.0476887
0.0500213
0.0539782
0.0719599
0.000315974
0.0472206
-0.0206952
0.0474698
0.00198684
0.0112813
0.0497988
0.0387252
-0.000119374
-0.0217197
0.0338294
0.0756379
0.0524495
0.0240962
0.0294684
0.0475574
0.0516539
0.051833
0.0498616
0.0476063
0.0673363
0.047593
0.123842
0.0108567
-0.0934934
0.0476209
0.0573273
0.0477202
0.0476034
0.120762
0.0564827
0.0469349
0.321179
0.131964
0.0349814
0.0625917
0.0364574
0.11832
0.0164669
0.00683945
0.0535617
0.0538609
0.0475407
0.0482159
-0.0134406
0.0471354
0.0494968
0.120599
0.0498513
0.0515486
0.0241065
0.0475019
-0.0373323
0.0476493
0.0494405
0.00628459
0.00735553
-0.0737496
0.10742
0.068372
0.0496758
0.00556282
0.0496206
0.0229027
0.00304578
0.0537472
-0.029594
0.0482912
0.023776
0.0679851
0.0500192
0.09961
0.047631
0.0537099
0.0475411
0.0269041
0.0470453
0.0513083
0.021592
0.0432709
0.0684904
0.0245916
0.0475742
0.0245682
0.0102924
0.0535876
0.00666674
-0.0154902
0.0475333
0.0283479
0.107229
0.00111007
0.0542354
0.0416503
0.0416489
0.022432
0.0548769
0.148603
0.0522883
0.0477076
0.047733
-0.0217131
-0.0102826
-0.0234271
0.283903
0.0987873
0.0485384
0.023334
0.0088378
0.0480637
-0.0595577
0.0519087
0.102306
-0.000356548
0.0494911
0.142582
-0.00991367
-0.0179433
0.0203097
0.0269151
0.0479945
0.0471596
0.0585178
0.0475648
0.0475078
0.133656
0.0499543
0.0619427
0.0468074
0.0355536
0.0423476
0.372895
0.0387637
0.0417334
-0.0108479
0.101929
0.0918455
0.0317726
0.106637
0.0475178
0.0438786
0.003303
0.0701154
0.122416
0.0491316
-0.000700165
0.0375627
0.0484016
0.0499807
0.0475487
0.0625616
0.0387104
0.0480331
0.0278259
0.257518
0.048127
0.0097958
0.0291543
0.0471254
0.0610224
0.0501797
0.0251768
0.047579
0.0474779
0.0118809
0.0270321
0.0893994
0.140521
-0.23457
0.0535696
0.0622662
-0.0394893
0.0305349
0.0501184
0.0378348
-0.000957059
0.0475935
0.0512046
0.0475307
0.0276301
0.0626421
0.0153353
0.0476021
0.0590866
0.0313592
0.0521338
0.116268
0.0433611
0.047352
0.0475979
0.0269393
0.0200476
0.309026
0.0583672
0.0801525
0.00412348
0.00312956
0.0473326
0.0983786
0.0475865
0.0475497
0.0481055
-0.00428801
0.0528002
0.03265
0.00526922
0.0175239
0.00436733
0.0276941
0.0617937
0.11162
0.0448645
0.00927796
0.0898411
0.0302872
0.126174
0.0515442
-0.160655
0.140326
0.132833
0.0470251
-0.115303
0.0039169
0.00580556
0.135505
-0.000311383
0.0564903
0.0542061
0.035798
0.0319246
0.0290965
0.209379
0.0715036
0.051959
0.0120834
0.0520623
0.0327647
0.020955
0.0917829
0.0329778
0.0660297
0.0814438
0.00441468
0.0937201
0.0290504
0.0483766
0.058112
0.046939
0.0422736
0.0461651
0.0524019
0.0166471
-0.0491635
0.0472245
0.163715
0.0466054
0.0385364
0.00689272
0.0277644
0.030984
0.0459344
0.00556999
0.01009
0.250906
0.0475776
0.007015
0.0338315
0.00719812
0.0481124
0.0477978
0.149332
0.0211519
0.02968
-0.128731
0.0242739
0.0367183
0.136427
0.0118174
0.117679
0.0535408
0.0151931
0.0343976
0.0432731
-0.0286221
0.00535382
0.0174967
0.0306393
0.0469534
0.00447642
0.00413404
-0.00103674
0.0369055
0.0344469
0.414584
-0.040991
0.0465838
-0.0142613
0.0172027
-0.11036
0.0475055
0.0293884
0.0300158
0.0475032
0.00240817
0.0246309
0.0509752
-0.000128548
-0.0237843
-0.00164231
0.0536825
0.0212645
0.0481424
0.0425942
-0.0278388
0.0802797
0.0247152
0.00521003
0.145029
0.0220821
0.017259
0.0187828
0.00558014
-0.0289656
0.0459447
0.0190812
0.0131269
0.0902872
0.278339
0.0112418
0.0324093
0.0174975
0.0475049
0.0906473
0.0289116
0.00713791
0.0472676
0.0328982
0.00496824
0.0118099
0.147589
0.0086761
0.0264252
0.0270104
0.0525699
0.00180199
0.0237888
0.0718559
0.0572246
0.0537658
0.00833601
0.0335661
0.0394686
0.0357489
0.0476067
0.00451933
0.0603801
0.0266181
-0.00355103
-0.0471495
0.0418154
0.0250925
0.0141706
0.0214217
0.047622
0.0975142
0.0975034
0.0703051
0.0480876
0.22632
0.00521146
0.0505707
0.0878974
0.0470921
0.0557036
0.0299435
0.0239668
0.051874
-0.106976
0.0488369
0.0573693
0.0404287
-0.0134836
-0.0318549
-0.000489487
0.0604839
0.00741705
0.0481183
0.0268617
0.0730454
0.0488545
0.147136
0.0146103
0.0253383
0.00654283
0.0649476
0.0193151
0.0351768
0.0472659
0.0474248
0.0445524
0.0613898
0.120323
0.0127506
0.144748
0.0807163
0.0877745
0.0495005
0.0677315
0.00542848
0.0474914
-0.0244328
-0.0193016
0.0505473
0.047554
0.0377382
0.0456865
0.0474041
0.0629762
0.0315507
0.13015
0.0138151
0.0328872
0.0871947
-0.0115679
0.00437487
0.0845958
0.0104563
0.0211159
0.068474
0.0471592
0.060789
0.0246933
0.119956
0.12779
0.217441
0.0474412
0.124355
0.0303964
0.0293476
0.102984
0.105181
0.0976916
-0.0252529
0.0185258
0.0646265
0.0183613
0.037056
0.0436381
0.0892065
0.0468719
0.0141573
-0.0301106
0.0575747
-0.0270469
0.0464784
0.0816967
0.0529445
0.0274971
0.100367
0.161277
0.019261
0.0408866
0.0144543
0.031136
0.0690822
-6.00494e-05
0.0804713
-0.00307887
0.0474518
0.0188393
-0.146408
0.0962582
0.0331355
-0.0423566
0.00841572
0.0394175
0.046516
0.101589
0.091128
0.0313798
0.0549001
0.0491814
0.00445703
0.0415792
0.00260412
0.0786888
0.0333966
0.140375
0.0474598
0.043641
0.00240642
0.034827
0.0354904
0.0641863
0.0545329
0.0268112
0.166069
0.105116
0.0472811
0.00392079
0.0422528
0.0471969
0.131607
0.0468766
0.0191609
0.0219649
0.0468584
0.046981
0.0503757
0.00580467
0.0593549
0.095846
0.0258454
0.128047
0.0301501
0.0309046
0.0348124
0.0762864
0.0476605
0.0370051
0.0345795
0.023974
-0.0215451
0.00757667
0.06483
0.0426175
0.0533153
0.0285942
0.0403645
0.0591472
0.0185832
0.104385
0.0297376
0.0472274
0.00679057
0.0851873
0.00576376
0.0473711
0.133642
-0.024879
0.0437406
0.09648
0.00459662
0.0515943
0.0938272
0.00175768
0.0875482
0.11245
0.00276593
0.0457447
0.0770979
0.0742247
0.0119339
0.0444029
0.0282587
0.0474218
0.0466842
0.0471309
0.0107207
0.0150317
0.0182744
0.0807429
-0.0631056
0.167566
-0.0605225
0.0254339
0.0399754
-0.0401705
0.0476622
-0.101939
0.0303426
0.0204996
0.0156087
0.0259951
0.0628183
0.039125
0.0301556
0.0523658
0.047347
0.0760096
-0.037002
0.0111444
0.0049515
0.0145861
0.0504551
0.0254616
0.0140603
0.053048
0.0217145
0.0359059
0.116973
0.0838922
0.0790646
0.0916634
-0.00183852
-0.000130237
0.0045615
0.0202945
-0.00496565
0.0117883
0.0562966
0.0408971
0.129338
0.072246
0.00531112
0.0476316
0.0940798
0.125171
0.0719788
0.07767
0.0549939
0.0144992
0.112229
0.0256498
0.0215585
0.0315944
0.030525
0.0464492
0.0258285
0.027298
0.0518834
0.017442
0.0272157
0.0423817
0.102424
0.0415632
0.0385822
0.0739191
0.0535286
0.0467895
0.0492653
0.00159504
0.0136239
0.04825
0.0699668
-0.051077
0.00505645
0.054045
0.0166215
-0.0191508
-0.0406933
-0.00513662
0.0304139
0.031115
0.0535154
0.0308654
0.0235764
-0.00038087
-0.00134822
0.00135957
0.000705228
0.0319083
0.0464183
0.0461442
0.127205
0.060528
0.0324917
0.0357345
-0.000419267
0.0426101
0.0248584
0.146946
0.085026
0.00959336
0.052576
0.0139756
0.0470603
0.00682201
0.000575992
0.024559
0.0471197
0.0571553
0.164573
0.039746
0.0868443
-0.016718
0.0474904
0.032146
0.0925171
0.0994812
0.068257
0.0480998
0.0435972
0.0446571
0.0480364
0.0471472
0.0388468
0.00549655
0.0471258
0.0546216
0.0521581
-0.348989
0.116907
0.0446878
0.0474384
0.0090477
0.0141694
0.0215318
0.0750846
0.0150549
0.0466339
0.0402081
0.00374776
0.0479654
0.0113079
0.0911562
0.0694118
0.0457941
0.00988928
0.0477318
0.0370403
0.0350656
0.0396012
-0.00380903
0.05761
0.0324533
0.0308108
0.108772
0.0795138
0.0470564
0.0475561
0.0334113
0.0297302
0.01144
0.0183348
0.0377142
0.00606893
0.078483
0.0480634
0.0349538
0.00478074
0.0369008
0.0828927
0.0619345
0.0499559
0.148537
0.019851
0.123773
0.138373
0.0249774
-0.00258131
9.32132e-05
0.123123
0.0374774
0.00448321
0.0725279
0.0336983
0.0176648
0.0877456
0.0700621
0.0491238
0.00199178
0.0293236
0.0248078
0.0383648
0.00465724
0.0490988
0.078715
0.0489143
0.0552252
0.0835897
0.0532818
0.0409304
0.10438
0.00608045
0.0893709
0.0254482
0.0703248
0.00714144
0.0596845
0.0101855
0.0486427
0.0272502
0.00789118
0.0655469
0.0252613
0.0486007
0.0399049
0.0119533
0.043581
0.0324154
0.0543702
0.0340355
0.0197855
-0.0019443
0.0938005
0.101991
0.0989624
0.0389458
0.0388579
0.0322112
0.0163175
0.0262017
0.0478154
0.0527059
0.0681078
0.0217569
0.05656
0.00355362
0.0280604
0.0552255
0.0304701
0.029594
0.0415456
0.0266681
0.0350961
0.132389
0.258697
0.0202872
0.0210561
0.0248603
0.0280875
0.0347221
0.0321344
0.0310065
0.0211532
0.0104251
0.0461838
0.0474233
0.0463953
0.00515078
0.0473462
0.0270441
0.040626
0.0286625
0.0578488
0.0312849
0.120926
-0.00816038
0.0470158
0.032751
0.0886698
0.0394386
0.0588144
0.0866184
0.0519815
0.047229
0.0277503
0.00294699
0.0843056
0.00218187
0.113236
0.081433
0.0028998
0.0615311
0.0665091
0.00776277
0.0408312
0.0465503
0.0486578
0.0339071
0.0469591
0.0295634
-0.0361763
0.046133
0.0782864
0.0411943
0.0607063
0.0614345
0.157383
0.0532788
0.0398896
0.00416346
0.010811
0.0848515
0.0289349
0.0814521
0.0485222
0.0353928
0.0633274
0.0437519
0.0304635
0.0480782
0.0485557
0.0284341
0.046908
0.0320611
0.0596325
0.0785857
0.0117247
0.0466829
0.00548927
0.000334075
0.0659639
0.0580198
0.0492294
0.0663789
0.130388
0.0474083
0.0382738
0.0448783
0.0587288
0.0363826
0.0328626
0.0368215
0.0720065
0.0815407
0.0300567
0.0776614
0.0882099
0.0583015
0.106727
0.0559669
0.0763009
0.0247676
0.0403822
0.0187405
0.0481547
0.0626749
0.048872
0.081687
0.00141594
0.0529775
-0.0130689
0.0425928
0.024374
0.115216
0.00620065
0.0450054
0.0470897
0.00330965
0.10553
0.0252568
0.0273587
0.012694
0.0424549
0.0789945
0.0352558
0.0457483
0.0335551
0.00711342
0.0407764
0.0380764
0.39428
0.0367701
0.048908
0.0572028
0.0628511
0.040811
0.0289462
0.0474308
0.100348
0.0403752
0.0474162
0.0105152
0.0343102
0.0259145
0.0389319
0.0614361
0.0402977
0.0426005
0.0419154
0.0311563
0.078384
0.0474542
0.0366436
0.0556797
0.043186
0.0373591
0.0533278
0.0532791
0.0576599
0.0581394
0.0475124
0.0411543
0.0490773
0.0267339
-0.00172377
-0.000795541
0.143648
0.0726589
-0.0112466
0.027635
0.0468497
0.0500235
0.056452
0.072195
0.0477814
0.0250384
0.0740102
0.0548211
0.0236532
-0.0105482
0.0190388
0.046767
0.0349731
0.04731
0.092401
0.230472
0.0370319
0.0552603
0.0405786
0.00512597
0.0470892
0.0705489
0.0256198
0.0434775
0.0479366
0.0306865
0.0947853
0.0364281
0.054502
0.0234301
0.0399623
0.0415617
0.0855296
0.0585153
0.0381093
0.0494353
0.0365318
0.0529368
0.0356614
0.0477259
0.0371321
0.0471842
0.052841
0.00924467
0.0665886
0.0136461
0.0717742
0.0716974
0.0512707
0.0362571
0.0327434
0.0754544
0.0897808
0.00888464
0.0397045
0.0542574
0.0563052
0.0377711
0.0459245
0.0419131
0.0345699
0.0259593
0.0259358
0.0426314
0.0130019
0.0370699
0.0775385
0.0384036
0.0407947
0.0370554
0.0217877
0.0821158
0.0518272
-0.00068967
0.0367961
0.0393069
0.00738994
0.0501916
0.000568565
0.0496222
0.0396475
0.0446454
0.0450865
0.0483121
0.0404489
0.00337982
0.04743
0.01813
0.0697178
0.0497674
0.0559193
0.0300719
0.0944419
0.0586774
0.0478122
0.0322354
-0.0680538
0.0475455
0.00445853
-0.0831429
0.0637129
0.0835184
0.0510609
0.0389377
0.027647
0.0695828
0.0567651
0.0473866
0.0902154
0.00946971
0.0799365
0.0474595
0.0469056
0.0411799
0.0422799
0.0429584
0.0640447
0.0737075
0.0439468
-0.00148345
0.0444902
0.0513627
0.03944
0.0301491
0.00018597
0.0469252
0.0401131
0.0213213
0.0414117
0.0442786
0.0497546
0.125786
0.0708751
0.0478831
0.060627
0.0513262
0.0398765
0.0730213
0.0576202
0.0419019
0.0609971
0.0341286
0.0607173
0.0829734
0.000289029
0.0212435
0.0479734
0.0680028
0.0453392
0.0498378
0.0487656
0.0399155
0.000976741
0.000243288
0.0567561
0.0299276
0.0313677
0.0258594
0.0465144
0.0461597
0.0478831
0.0690757
0.0318585
0.0474986
0.039807
0.0523329
0.0201569
0.00776507
0.0475063
0.0470223
0.0336327
0.0462492
0.0458955
0.0404097
0.0431614
0.0374661
0.0641604
0.0598271
0.0318611
0.0452765
0.0507411
0.0557033
0.0402753
0.0474433
0.0407723
0.0280147
0.000856455
0.0044297
0.0323932
0.121156
0.040621
-0.0618831
0.0866257
0.0400973
0.0386052
0.051501
0.0465201
0.047506
0.0513224
0.0545633
0.039639
0.0490209
0.0466989
0.0943049
0.00430031
0.0311926
0.04765
0.0528028
0.0609126
0.0683597
0.0297809
0.0496704
0.0473818
0.0458951
0.0410741
0.0269392
0.0244384
0.00395516
0.0595891
0.0457328
0.0366638
0.0539358
0.0515147
0.0511127
0.0447726
0.0560376
0.0475137
0.0134188
-0.00247856
0.0467252
0.0639352
0.0395676
0.0426652
0.044548
0.0487122
-0.0458908
0.0613374
-0.000416502
0.0411729
0.00595187
0.0501356
0.0671682
0.126177
0.0531215
0.0476869
0.0278157
0.0182623
0.108821
0.0404922
0.0647058
0.0429246
0.0470524
0.0628426
0.0450628
0.119047
0.000242952
0.0768415
0.050636
0.0458905
0.0474905
0.0455638
-0.0280739
0.0360975
0.0469752
0.0542406
0.0457434
0.047001
0.0468966
0.00922153
0.00259278
0.0524021
0.0462547