/*--------------------------------*- C++ -*----------------------------------*\
  =========                 |
  \\      /  F ield         | OpenFOAM: The Open Source CFD Toolbox
   \\    /   O peration     | Website:  https://openfoam.org
    \\  /    A nd           | Version:  7
     \\/     M anipulation  |
\*---------------------------------------------------------------------------*/
FoamFile
{
    version     2.0;
    format      ascii;
    class       volScalarField;
    location    "111";
    object      p;
}
// * * * * * * * * * * * * * * * * * * * * * * * * * * * * * * * * * * * * * //

dimensions      [0 2 -2 0 0 0 0];

internalField   nonuniform List<scalar> 
15200
(
-0.733158
-0.552398
-0.540103
-0.38984
-0.312779
-0.288951
-0.297807
-0.284739
-0.239561
-0.197244
-0.160685
-0.15811
-0.187102
-0.188855
-0.151846
-0.714944
-0.534537
-0.521827
-0.380827
-0.315776
-0.297289
-0.320991
-0.297171
-0.238774
-0.19161
-0.15767
-0.154874
-0.19054
-0.191166
-0.147193
-0.695407
-0.515471
-0.499118
-0.368985
-0.315595
-0.301515
-0.33808
-0.3038
-0.234762
-0.182964
-0.15127
-0.149937
-0.189163
-0.186539
-0.135347
-0.674952
-0.495577
-0.472168
-0.354103
-0.311404
-0.303099
-0.348719
-0.304526
-0.227615
-0.171186
-0.140863
-0.142933
-0.181081
-0.173804
-0.117141
-0.653957
-0.475299
-0.441077
-0.336031
-0.302404
-0.303815
-0.353113
-0.299583
-0.217518
-0.156452
-0.12534
-0.131251
-0.163859
-0.152828
-0.0939006
-0.632839
-0.455091
-0.405845
-0.314757
-0.287712
-0.30418
-0.351237
-0.289368
-0.204758
-0.140134
-0.105491
-0.110484
-0.133317
-0.121516
-0.0654344
-0.612149
-0.435502
-0.3664
-0.29056
-0.266431
-0.303824
-0.34315
-0.274742
-0.189844
-0.124156
-0.0843469
-0.0807786
-0.0890486
-0.0777999
-0.0327383
-0.592646
-0.416751
-0.32371
-0.264005
-0.238446
-0.302383
-0.329351
-0.256932
-0.173622
-0.109796
-0.0655731
-0.04766
-0.0388086
-0.0266561
-0.00454149
-0.575287
-0.399534
-0.277948
-0.235703
-0.205138
-0.299167
-0.310868
-0.237077
-0.157202
-0.0968979
-0.0518429
-0.0224496
-0.00152379
0.0100003
0.0113844
-0.561018
-0.383971
-0.229342
-0.206022
-0.16944
-0.290378
-0.288856
-0.216135
-0.141551
-0.0851288
-0.0419994
-0.00902191
0.0154991
0.0268483
0.0172472
-0.550505
-0.369761
-0.178599
-0.174432
-0.135912
-0.274184
-0.264465
-0.19511
-0.127058
-0.0750066
-0.0347194
-0.00388426
0.0182588
0.0292027
0.018009
-0.543908
-0.355761
-0.127271
-0.139977
-0.109734
-0.250635
-0.23878
-0.174918
-0.113853
-0.0667141
-0.0298075
-0.00205789
0.0172593
0.0268535
0.0169305
-0.540806
-0.340479
-0.0782829
-0.102656
-0.0937347
-0.222691
-0.212938
-0.156126
-0.102146
-0.0599397
-0.0268358
-0.0020621
0.0147797
0.023188
0.0152594
-0.540354
-0.323449
-0.0368891
-0.0648077
-0.0852233
-0.194167
-0.188078
-0.139047
-0.0919778
-0.0544368
-0.0250639
-0.00306302
0.0114838
0.0190205
0.0133272
-0.54154
-0.30645
-0.00543524
-0.0321161
-0.078992
-0.167569
-0.165153
-0.123862
-0.0832028
-0.0499852
-0.0240353
-0.00445713
0.00819699
0.0149919
0.0113255
-0.543399
-0.292795
0.015686
-0.0115481
-0.072544
-0.14403
-0.144796
-0.110581
-0.0756566
-0.0463492
-0.0234393
-0.00599028
0.00515587
0.0114251
0.00940171
-0.545137
-0.28494
0.0278311
-0.00479828
-0.0665976
-0.124014
-0.127232
-0.0990941
-0.0691754
-0.0433364
-0.0230531
-0.00748236
0.0024125
0.00835126
0.00749998
-0.546212
-0.283852
0.0326204
-0.00779895
-0.0622702
-0.107546
-0.112345
-0.0892286
-0.0635931
-0.0407923
-0.0227492
-0.00883695
0.000106593
0.00577535
0.00567782
-0.546181
-0.288515
0.0311475
-0.0155558
-0.059906
-0.0943897
-0.0998637
-0.0807791
-0.0587684
-0.038588
-0.0224618
-0.0100126
-0.00174942
0.00357928
0.00413008
-0.544276
-0.297182
0.0244995
-0.0249236
-0.0592762
-0.0841521
-0.0894781
-0.073544
-0.0545742
-0.0366318
-0.0221597
-0.0109511
-0.0032253
0.00171335
0.00303103
-0.540442
-0.306988
0.0137488
-0.0342879
-0.0599481
-0.0763494
-0.0808948
-0.0673421
-0.0508976
-0.0348581
-0.0218209
-0.0116423
-0.00441237
0.000256333
0.002327
-0.534284
-0.315234
-6.58156e-05
-0.0428403
-0.0614621
-0.0705013
-0.0738366
-0.062013
-0.0476461
-0.0332182
-0.0214264
-0.01211
-0.00534705
-0.000809602
0.00176506
-0.525689
-0.319596
-0.0159283
-0.0502149
-0.0634121
-0.0661759
-0.0680442
-0.0574179
-0.044742
-0.0316776
-0.0209676
-0.0123775
-0.00603349
-0.00159964
0.00121793
-0.515099
-0.318695
-0.0328666
-0.0563396
-0.0654701
-0.0629984
-0.0632844
-0.0534353
-0.0421223
-0.0302088
-0.0204393
-0.0124692
-0.00650805
-0.00217041
0.000752803
-0.503527
-0.312474
-0.0500176
-0.0613339
-0.067388
-0.060649
-0.0593522
-0.0499594
-0.0397339
-0.0287906
-0.0198394
-0.012408
-0.00678451
-0.0025653
0.000356482
-0.492307
-0.30205
-0.066691
-0.065397
-0.0690096
-0.0588619
-0.05607
-0.0468978
-0.0375317
-0.0274066
-0.0191692
-0.0122086
-0.00688946
-0.0028127
8.25878e-05
-0.482676
-0.289106
-0.0823849
-0.0687015
-0.0702786
-0.0574263
-0.053286
-0.044169
-0.0354775
-0.0260427
-0.0184287
-0.0118859
-0.00684292
-0.00292042
-7.90379e-05
-0.475445
-0.275222
-0.0967523
-0.0713823
-0.0711843
-0.0561831
-0.0508714
-0.0417016
-0.033538
-0.0246874
-0.017619
-0.0114497
-0.00666165
-0.00290266
-0.000122619
-0.470918
-0.261543
-0.109541
-0.0735424
-0.0717365
-0.0550145
-0.0487189
-0.039433
-0.0316846
-0.0233294
-0.0167405
-0.0109092
-0.00636161
-0.00276582
-5.25055e-05
-0.469016
-0.24874
-0.120558
-0.075262
-0.0719539
-0.0538349
-0.0467404
-0.0373086
-0.0298911
-0.0219584
-0.0157952
-0.010271
-0.00595393
-0.0025192
0.000121778
-0.469441
-0.237078
-0.129715
-0.0765993
-0.0718585
-0.0525823
-0.0448633
-0.0352799
-0.0281334
-0.0205652
-0.0147848
-0.00954128
-0.00544792
-0.00217067
0.000397482
-0.471793
-0.226521
-0.137071
-0.0775627
-0.0714692
-0.0512121
-0.0430283
-0.0333038
-0.0263898
-0.0191422
-0.0137102
-0.00872424
-0.0048508
-0.00172676
0.000762241
-0.475626
-0.216938
-0.142787
-0.0780797
-0.070795
-0.0496909
-0.0411872
-0.0313436
-0.0246434
-0.0176828
-0.0125707
-0.00782437
-0.00416934
-0.00119525
0.00121125
-0.480478
-0.208169
-0.147031
-0.0780816
-0.0698357
-0.047993
-0.0393032
-0.0293697
-0.0228804
-0.0161807
-0.0113656
-0.00684645
-0.00341115
-0.000581201
0.00173535
-0.485887
-0.200042
-0.149945
-0.0775233
-0.0685861
-0.0460987
-0.0373479
-0.0273597
-0.021086
-0.0146288
-0.0100948
-0.00579553
-0.0025802
0.000109107
0.00232712
-0.491399
-0.192379
-0.151646
-0.0763791
-0.067039
-0.0439958
-0.0352976
-0.0252953
-0.0192432
-0.0130182
-0.00876044
-0.00467415
-0.00167803
0.000870946
0.00297525
-0.496585
-0.184996
-0.152236
-0.0746386
-0.0651835
-0.0416791
-0.0331322
-0.0231561
-0.0173419
-0.011339
-0.00736816
-0.00348139
-0.000704196
0.00169903
0.00367246
-0.501041
-0.177715
-0.151798
-0.0723095
-0.0630023
-0.0391429
-0.0308419
-0.0209117
-0.0153923
-0.00957821
-0.00592823
-0.00221213
0.000337587
0.0025911
0.00442427
-0.504398
-0.170366
-0.150393
-0.0694122
-0.0604852
-0.0363585
-0.0284438
-0.0185209
-0.0134248
-0.00771535
-0.00445321
-0.000859997
0.00143932
0.00354631
0.00524307
-0.506327
-0.1628
-0.148051
-0.0659419
-0.0576743
-0.0332503
-0.0259936
-0.0159421
-0.0114658
-0.00572948
-0.00294909
0.000575259
0.00259245
0.00456506
0.00613579
-0.50654
-0.154873
-0.144816
-0.0618094
-0.0547118
-0.0297112
-0.0235515
-0.0131601
-0.00950149
-0.00363554
-0.0013948
0.00207246
0.00380055
0.00564937
0.00708935
-0.504794
-0.146397
-0.140841
-0.0568379
-0.0517697
-0.0257053
-0.0210805
-0.0102485
-0.00743494
-0.00152168
0.000272981
0.00358234
0.00508597
0.00679644
0.00807882
-0.500877
-0.137091
-0.136474
-0.0509032
-0.048792
-0.0214275
-0.0183582
-0.00740867
-0.00509566
0.000508962
0.00209987
0.00508459
0.00644814
0.00800048
0.00909776
-0.494611
-0.126654
-0.132056
-0.044202
-0.0452962
-0.0172698
-0.0151868
-0.0046743
-0.00251913
0.00250034
0.0040421
0.00661059
0.00786371
0.009252
0.0101473
-0.485879
-0.115139
-0.127242
-0.0372987
-0.0409586
-0.0132808
-0.0116229
-0.00197431
0.000215745
0.00451672
0.00604662
0.00819063
0.00931616
0.01054
0.0112292
-0.474697
-0.103318
-0.120573
-0.030774
-0.0358467
-0.00936836
-0.00777062
0.000772569
0.00303605
0.00660468
0.00807827
0.00983719
0.0108007
0.0118584
0.0123462
-0.461207
-0.0910039
-0.112314
-0.0244233
-0.0301038
-0.00542521
-0.00372534
0.00362496
0.00589548
0.00878499
0.0101227
0.0115458
0.0123188
0.0132058
0.0135021
-0.445439
-0.0780995
-0.102688
-0.0180741
-0.0238696
-0.00136783
0.000441653
0.0066143
0.00877108
0.0110565
0.0121806
0.0133031
0.0138695
0.0145782
0.0146933
-0.42694
-0.0648922
-0.0919192
-0.0115956
-0.0172611
0.00285921
0.00468408
0.00974664
0.011658
0.0134054
0.0142575
0.0150948
0.0154457
0.0159644
0.0159017
-0.405203
-0.0516474
-0.0801797
-0.00490721
-0.0103703
0.00728474
0.00897564
0.0130104
0.0145602
0.0158137
0.0163571
0.0169099
0.0170386
0.0173522
0.0171079
-0.380507
-0.0381905
-0.0676201
0.00204602
-0.00326933
0.0119163
0.0133037
0.0163846
0.0174827
0.018264
0.0184783
0.0187412
0.0186433
0.0187416
0.0183129
-0.353109
-0.0243837
-0.0543742
0.00929321
0.00398577
0.0167454
0.0176629
0.0198447
0.0204275
0.0207416
0.0206159
0.0205838
0.0202591
0.0201439
0.0195413
-0.323262
-0.0101381
-0.0405631
0.0168447
0.011351
0.0217523
0.0220501
0.023367
0.0233919
0.0232345
0.0227629
0.0224325
0.0218813
0.0215608
0.0208072
-0.291211
0.00458754
-0.0262981
0.0246945
0.0187908
0.02691
0.0264612
0.0269302
0.0263693
0.0257336
0.0249136
0.0242822
0.0234958
0.0229657
0.0220757
-0.257214
0.0198042
-0.0116823
0.0328233
0.0262751
0.0321879
0.0308895
0.0305152
0.0293504
0.0282316
0.0270639
0.0261273
0.0250832
0.0243146
0.0232629
-0.221534
0.0354966
0.00318756
0.0412008
0.033777
0.0375531
0.0353248
0.0341048
0.0323247
0.0307223
0.0292087
0.0279592
0.0266277
0.0255789
0.0243
-0.184447
0.051629
0.0182198
0.0497883
0.041271
0.0429728
0.0397539
0.0376832
0.0352815
0.0331988
0.0313386
0.0297623
0.0281167
0.026764
0.0252334
-0.146236
0.0681483
0.033327
0.05854
0.0487315
0.0484142
0.0441611
0.0412353
0.0382105
0.0356532
0.03344
0.0315162
0.0295378
0.027897
0.0262281
-0.107188
0.0849864
0.0484251
0.0674053
0.0561324
0.0538455
0.0485288
0.0447465
0.0411013
0.0380759
0.0354987
0.0332073
0.030893
0.0290192
0.027397
-0.0675982
0.102063
0.063433
0.0763297
0.063446
0.0592361
0.0528382
0.0482026
0.0439432
0.0404553
0.0375028
0.0348374
0.032213
0.0301744
0.0286642
-0.0277611
0.119286
0.0782715
0.0852563
0.0706435
0.0645558
0.05707
0.0515892
0.0467243
0.0427782
0.0394416
0.0364127
0.0335282
0.0313591
0.0299351
0.0120281
0.136556
0.0928635
0.0941268
0.0776945
0.0697757
0.0612044
0.0548919
0.0494321
0.0450316
0.0413074
0.037934
0.0348352
0.0325738
0.0311151
0.0514763
0.153765
0.107134
0.102882
0.0845677
0.0748677
0.0652218
0.0580959
0.0520536
0.0472041
0.0430972
0.0394054
0.0361226
0.0337583
0.0321895
0.0902947
0.170801
0.121008
0.111464
0.091231
0.0798043
0.0691029
0.0611865
0.0545757
0.0492851
0.0448081
0.0408295
0.0373893
0.0349092
0.0331809
0.128201
0.187546
0.134414
0.119815
0.0976519
0.0845591
0.0728285
0.0641486
0.0569857
0.0512655
0.0464345
0.0421952
0.0386102
0.0360051
0.0341071
0.16492
0.203881
0.147281
0.127878
0.103798
0.0891064
0.0763799
0.0669675
0.0592715
0.0531379
0.0479737
0.0434971
0.0397706
0.0370297
0.0349538
0.200189
0.219685
0.159541
0.135598
0.109637
0.0934215
0.0797388
0.0696285
0.0614218
0.0548945
0.0494199
0.0447285
0.0408661
0.0379877
0.0357331
0.233753
0.234839
0.171126
0.142924
0.115137
0.0974807
0.0828876
0.072118
0.063426
0.0565276
0.0507649
0.0458767
0.0418824
0.0388665
0.036436
0.265372
0.249224
0.181974
0.149806
0.120268
0.101261
0.0858096
0.0744228
0.0652745
0.0580313
0.0520038
0.0469365
0.0428157
0.0396661
0.037066
0.294822
0.262725
0.192021
0.156197
0.125001
0.104742
0.0884887
0.0765304
0.0669576
0.0593973
0.053129
0.0479004
0.0436597
0.0403805
0.0376195
0.321896
0.27523
0.20121
0.162053
0.129308
0.107902
0.0909101
0.0784298
0.0684671
0.0606192
0.0541337
0.0487613
0.0444096
0.0410082
0.0380975
0.346405
0.286629
0.209487
0.167333
0.133164
0.110723
0.0930599
0.0801102
0.0697949
0.0616909
0.0550126
0.0495144
0.0450605
0.0415454
0.0384996
0.368172
0.296825
0.2168
0.172002
0.136545
0.113188
0.0949256
0.0815622
0.0709336
0.0626057
0.0557596
0.0501543
0.0456091
0.0419905
0.0388257
0.387034
0.30573
0.223106
0.176026
0.13943
0.115282
0.0964958
0.0827773
0.0718769
0.0633588
0.0563703
0.0506765
0.0460517
0.0423416
0.0390769
0.402848
0.313266
0.228362
0.179376
0.141801
0.116992
0.0977604
0.083748
0.0726188
0.0639452
0.0568403
0.0510773
0.0463854
0.0425973
0.0392533
0.415485
0.319366
0.232535
0.182028
0.14364
0.118306
0.098711
0.0844678
0.0731546
0.064361
0.0571661
0.0513532
0.0466075
0.0427563
0.0393556
0.424839
0.323974
0.235593
0.183961
0.144935
0.119214
0.0993403
0.0849316
0.0734802
0.064603
0.0573447
0.0515012
0.0467157
0.0428179
0.0393861
0.430822
0.327045
0.237513
0.185158
0.145674
0.119709
0.0996429
0.0851353
0.0735925
0.0646686
0.0573738
0.051519
0.0467082
0.0427815
0.0393413
0.433369
0.328548
0.238276
0.18561
0.145849
0.119785
0.0996146
0.0850759
0.0734893
0.0645562
0.0572516
0.0514049
0.046584
0.0426461
0.0392218
0.432434
0.328462
0.237871
0.185307
0.145456
0.11944
0.0992532
0.0847519
0.0731696
0.0642648
0.0569775
0.0511582
0.0463426
0.0424109
0.0390246
0.427996
0.326781
0.236289
0.184248
0.144492
0.118671
0.0985579
0.0841628
0.0726332
0.0637945
0.0565514
0.0507792
0.0459847
0.0420778
0.0387557
0.420053
0.32351
0.233532
0.182435
0.142958
0.117481
0.0975293
0.0833095
0.0718808
0.063146
0.0559741
0.0502686
0.0455108
0.0416488
0.0384179
0.408627
0.318667
0.229604
0.179875
0.140857
0.115872
0.0961699
0.0821941
0.0709143
0.0623207
0.0552467
0.0496271
0.0449218
0.0411233
0.0380079
0.39376
0.312281
0.224518
0.176578
0.138196
0.113849
0.0944837
0.0808197
0.0697363
0.061321
0.0543714
0.0488569
0.0442195
0.0405015
0.0375229
0.375517
0.304396
0.21829
0.172562
0.134985
0.111421
0.0924761
0.079191
0.0683507
0.0601502
0.0533511
0.0479609
0.0434069
0.0397849
0.0369617
0.353982
0.295068
0.210945
0.167846
0.131235
0.108597
0.0901544
0.0773136
0.0667621
0.0588124
0.0521895
0.0469428
0.0424875
0.0389757
0.0363238
0.329256
0.284363
0.202512
0.162457
0.126961
0.10539
0.0875271
0.0751945
0.064976
0.0573122
0.0508909
0.0458064
0.041465
0.0380762
0.0356092
0.301459
0.272361
0.193025
0.156424
0.122181
0.101813
0.0846043
0.0728419
0.062999
0.0556553
0.0494605
0.0445563
0.040343
0.0370886
0.0348183
0.270729
0.259155
0.182526
0.149781
0.116914
0.0978826
0.0813976
0.0702651
0.0608383
0.0538478
0.0479038
0.0431979
0.0391262
0.0360157
0.0339512
0.237227
0.24484
0.171059
0.142566
0.111182
0.0936162
0.0779198
0.0674743
0.0585021
0.051897
0.0462277
0.0417373
0.0378194
0.0348603
0.0330088
0.201137
0.229523
0.158673
0.134823
0.105008
0.0890335
0.0741849
0.0644808
0.0559993
0.0498101
0.0444389
0.0401812
0.0364285
0.0336263
0.0319925
0.162663
0.213312
0.145423
0.126597
0.0984183
0.084156
0.0702082
0.061297
0.0533394
0.0475952
0.0425452
0.0385368
0.0349587
0.0323167
0.0309041
0.122025
0.196323
0.131364
0.117938
0.0914394
0.0790068
0.0660058
0.057936
0.0505329
0.045261
0.0405554
0.0368139
0.0334182
0.0309358
0.0297457
0.0794638
0.178677
0.116556
0.108899
0.0840988
0.0736105
0.061595
0.0544119
0.0475906
0.0428156
0.0384767
0.0350199
0.0318119
0.0294839
0.0285185
0.035236
0.160493
0.101064
0.0995354
0.0764249
0.0679932
0.0569935
0.0507392
0.0445239
0.040268
0.0363179
0.0331686
0.0301557
0.0279689
0.0272237
-0.0103863
0.141897
0.0849514
0.0899056
0.0684462
0.0621828
0.05222
0.0469337
0.0413458
0.0376283
0.0340873
0.0312695
0.0284578
0.0263823
0.0258513
-0.0571166
0.123009
0.0682882
0.0800696
0.0601912
0.0562084
0.0472931
0.0430111
0.0380685
0.0349045
0.0317874
0.0293296
0.0267427
0.024748
0.024401
-0.104655
0.103951
0.0511445
0.0700887
0.0516878
0.0501009
0.0422318
0.0389878
0.0347059
0.0321088
0.029428
0.027362
0.0250387
0.0230725
0.0228097
-0.152692
0.0848405
0.0335933
0.0600249
0.0429632
0.0438925
0.0370548
0.0348807
0.0312718
0.029253
0.0270119
0.0253568
0.023353
0.0214136
0.0210687
-0.200905
0.0657894
0.0157097
0.0499401
0.0340437
0.0376171
0.0317802
0.0307069
0.0277801
0.0263495
0.0245473
0.0233125
0.0217069
0.0198765
0.0191255
-0.248965
0.0469037
-0.00242882
0.0398948
0.024954
0.03131
0.0264252
0.0264841
0.0242446
0.0234118
0.0220474
0.0212232
0.0200647
0.0184829
0.0171381
-0.296539
0.0282805
-0.0207424
0.0299472
0.0157183
0.0250079
0.0210055
0.0222307
0.0206792
0.0204524
0.0195269
0.0190895
0.018384
0.0172134
0.0158225
-0.343284
0.0100064
-0.0391486
0.0201523
0.00635944
0.0187489
0.0155349
0.0179663
0.0170976
0.0174817
0.0170003
0.0169299
0.0166543
0.0160081
0.0149407
-0.388859
-0.00784416
-0.0575622
0.0105599
-0.00309992
0.0125715
0.0100244
0.0137116
0.0135139
0.0145095
0.0144803
0.0147708
0.0148842
0.0147381
0.0140999
-0.432919
-0.0252119
-0.0758943
0.00121349
-0.0126368
0.00651468
0.00448284
0.00948921
0.0099419
0.0115455
0.0119754
0.0126288
0.0130891
0.0133398
0.0130825
-0.475119
-0.0420549
-0.0940526
-0.00785185
-0.0222268
0.000616177
-0.00108414
0.00532412
0.0063946
0.00859946
0.00949078
0.0105075
0.0112861
0.0118522
0.0119027
-0.515116
-0.0583522
-0.11194
-0.016611
-0.0318429
-0.00508841
-0.00667289
0.00124381
0.00288281
0.00568132
0.00703242
0.00840811
0.009491
0.0103383
0.0106465
-0.552571
-0.0741082
-0.129455
-0.0250512
-0.0414537
-0.0105677
-0.0122809
-0.00272154
-0.000585946
0.00280129
0.00461009
0.00633747
0.00771481
0.00882535
0.00936086
-0.587141
-0.0893582
-0.14649
-0.0331738
-0.0510214
-0.015797
-0.017905
-0.00653981
-0.0040083
-2.91627e-05
0.00223672
0.00430654
0.00596455
0.00731555
0.00806051
-0.618485
-0.104178
-0.16293
-0.0409968
-0.0604999
-0.0207609
-0.0235386
-0.0101786
-0.00738597
-0.00279595
-7.44665e-05
0.00232526
0.00424695
0.0058161
0.00676473
-0.646245
-0.118699
-0.178652
-0.0485573
-0.0698322
-0.0254565
-0.0291681
-0.0136084
-0.010726
-0.00548038
-0.00231132
0.000401033
0.00257158
0.00434692
0.00550005
-0.670039
-0.13312
-0.193523
-0.055914
-0.0789481
-0.0298972
-0.0347692
-0.0168063
-0.0140395
-0.0080566
-0.00446344
-0.00145999
0.000949754
0.00292847
0.00428331
-0.68947
-0.147706
-0.207399
-0.06315
-0.0877612
-0.0341158
-0.040302
-0.0197616
-0.0173369
-0.0104914
-0.00652369
-0.00325265
-0.000609562
0.00157103
0.00311641
-0.704817
-0.162251
-0.220112
-0.0703778
-0.0961662
-0.0381696
-0.0457064
-0.0224814
-0.0206189
-0.0127474
-0.00849247
-0.0049723
-0.00210169
0.000274938
0.00199565
-0.716894
-0.176262
-0.231467
-0.0777429
-0.104036
-0.0421419
-0.0508973
-0.0249973
-0.0238651
-0.0147926
-0.0103795
-0.00661226
-0.00352312
-0.000960799
0.000922791
-0.725874
-0.189699
-0.241215
-0.0854419
-0.111218
-0.0461498
-0.05576
-0.0273722
-0.0270245
-0.016614
-0.0122014
-0.00815732
-0.00486762
-0.00213172
-9.34458e-05
-0.731536
-0.202862
-0.249111
-0.0937097
-0.117532
-0.0503413
-0.0601485
-0.0297043
-0.0300083
-0.0182334
-0.0139711
-0.00957905
-0.00612641
-0.00322773
-0.00104126
-0.733659
-0.216031
-0.255001
-0.102793
-0.122766
-0.0549071
-0.0638875
-0.0321293
-0.0326868
-0.0197179
-0.0156824
-0.0108412
-0.00729329
-0.00423884
-0.00191304
-0.732188
-0.228175
-0.260395
-0.112381
-0.126716
-0.0600428
-0.066794
-0.034803
-0.034899
-0.0211782
-0.0172757
-0.0119389
-0.00836327
-0.0051587
-0.00271032
-0.727202
-0.238954
-0.266215
-0.122092
-0.129265
-0.0659066
-0.068753
-0.0378541
-0.0364836
-0.0227461
-0.0186276
-0.0129256
-0.00931729
-0.00598832
-0.00343799
-0.718857
-0.248633
-0.272562
-0.13105
-0.13175
-0.0717543
-0.0700145
-0.0411686
-0.0374175
-0.0244801
-0.019614
-0.0139072
-0.0100986
-0.00673148
-0.00409891
-0.707354
-0.257653
-0.279203
-0.139015
-0.13469
-0.0769472
-0.0711814
-0.0441613
-0.0381634
-0.0260308
-0.0204301
-0.0147598
-0.0107716
-0.00737931
-0.00468155
-0.692938
-0.26641
-0.285916
-0.146155
-0.138025
-0.0812988
-0.0725424
-0.0465387
-0.0389487
-0.0272311
-0.0211415
-0.0154517
-0.0113515
-0.00792252
-0.0051718
-0.675908
-0.275234
-0.292595
-0.152735
-0.141526
-0.0849163
-0.0740507
-0.0483216
-0.0397268
-0.0280986
-0.0217156
-0.01599
-0.0118301
-0.00836352
-0.00556775
-0.656625
-0.28443
-0.299249
-0.158957
-0.144992
-0.0879997
-0.075503
-0.0496542
-0.0403522
-0.0286983
-0.0221168
-0.0163783
-0.012196
-0.00870997
-0.00588177
-0.635517
-0.294325
-0.305947
-0.164936
-0.148311
-0.0907017
-0.0767205
-0.0506452
-0.0407205
-0.0290597
-0.0223317
-0.0166145
-0.0124422
-0.0089662
-0.00612818
-0.61308
-0.305282
-0.312773
-0.170731
-0.151437
-0.0930868
-0.0776173
-0.0513266
-0.040793
-0.0291772
-0.0223552
-0.0166975
-0.0125668
-0.00913489
-0.00631068
-0.589876
-0.317713
-0.319799
-0.17638
-0.154369
-0.0951593
-0.0781737
-0.0516823
-0.0405606
-0.0290338
-0.0221805
-0.0166274
-0.0125724
-0.00921505
-0.00642794
-0.56654
-0.332074
-0.327079
-0.181924
-0.157117
-0.0969045
-0.0783874
-0.0516843
-0.0400127
-0.0286148
-0.0218012
-0.0164049
-0.0124629
-0.00920889
-0.00647501
-0.543776
-0.348874
-0.334658
-0.187404
-0.15969
-0.0983133
-0.0782483
-0.0513098
-0.0391303
-0.0279076
-0.0212119
-0.0160314
-0.0122439
-0.00911765
-0.00645409
-0.522358
-0.368679
-0.342563
-0.192865
-0.162093
-0.0993867
-0.0777376
-0.0505411
-0.0378922
-0.0268997
-0.0204077
-0.0155098
-0.0119217
-0.00894752
-0.00636518
-0.503135
-0.392126
-0.350794
-0.198348
-0.164327
-0.100131
-0.0768341
-0.0493602
-0.0362771
-0.0255776
-0.019385
-0.0148444
-0.0115051
-0.00870651
-0.00621832
-0.487027
-0.419938
-0.359303
-0.203893
-0.166399
-0.100553
-0.0755197
-0.0477462
-0.0342626
-0.0239284
-0.0181413
-0.0140429
-0.0110066
-0.00840426
-0.0060191
-0.475028
-0.452949
-0.367966
-0.209545
-0.168321
-0.100656
-0.0737818
-0.0456765
-0.0318244
-0.0219392
-0.0166779
-0.0131159
-0.0104412
-0.00805762
-0.00578091
-0.468195
-0.492078
-0.376552
-0.215359
-0.17011
-0.100448
-0.0716146
-0.0431289
-0.0289374
-0.0195967
-0.0149981
-0.0120809
-0.00983242
-0.00767503
-0.0055195
-0.467649
-0.538101
-0.384753
-0.221409
-0.171789
-0.0999358
-0.0690197
-0.0400843
-0.0255768
-0.0168855
-0.013111
-0.0109596
-0.0092075
-0.00728554
-0.00524129
-0.474502
-0.591028
-0.392373
-0.227801
-0.173383
-0.0991381
-0.0660086
-0.036528
-0.0217162
-0.0137909
-0.011031
-0.00978614
-0.00860336
-0.00690252
-0.00498637
-0.489535
-0.649518
-0.399247
-0.234676
-0.174919
-0.0980827
-0.0626062
-0.0324549
-0.0173282
-0.010301
-0.00878183
-0.00860288
-0.00806995
-0.00658009
-0.00472824
-0.512591
-0.710122
-0.405161
-0.242222
-0.17642
-0.0968133
-0.0588561
-0.0278737
-0.0123865
-0.00640881
-0.00639675
-0.00747621
-0.00765456
-0.00638952
-0.00450294
-0.54202
-0.76692
-0.409877
-0.250633
-0.177906
-0.0953953
-0.0548273
-0.0228161
-0.00687098
-0.00211698
-0.00392423
-0.00649078
-0.00742949
-0.00643785
-0.00422724
-0.574662
-0.812629
-0.413484
-0.259845
-0.179396
-0.0939232
-0.0506228
-0.0173466
-0.000776593
0.00255964
-0.00143597
-0.00576527
-0.00745133
-0.00685887
-0.00394936
-0.607068
-0.84127
-0.416448
-0.269612
-0.180927
-0.0925287
-0.046389
-0.0115783
0.0058681
0.00758467
0.000959663
-0.00545207
-0.00780992
-0.00764029
-0.00421592
-0.63681
-0.850741
-0.419488
-0.279675
-0.182572
-0.0913889
-0.0423278
-0.00570264
0.0129686
0.01289
0.00308656
-0.00571733
-0.00872824
-0.00873596
-0.00500501
-0.662964
-0.843338
-0.42341
-0.289864
-0.184444
-0.0907385
-0.0387089
-9.78526e-06
0.0203204
0.0183616
0.00467161
-0.00678293
-0.0104492
-0.010252
-0.00607566
-0.685738
-0.824202
-0.428919
-0.300127
-0.186688
-0.0908783
-0.0359074
0.00503876
0.027496
0.0237816
0.00530982
-0.00898719
-0.0131973
-0.0124034
-0.00723859
-0.705771
-0.79898
-0.436466
-0.310506
-0.189455
-0.0921839
-0.0344527
0.00874091
0.0337403
0.0287792
0.00444434
-0.0128356
-0.0172376
-0.0154031
-0.00859597
-0.723642
-0.772131
-0.446189
-0.321044
-0.192912
-0.0951037
-0.0350667
0.0101087
0.0377853
0.0326376
0.00120951
-0.0190257
-0.0230004
-0.0195043
-0.0103825
-0.739687
-0.746422
-0.457932
-0.331683
-0.197296
-0.100018
-0.0389697
0.00715714
0.0368999
0.0339501
-0.00537649
-0.0284422
-0.0311969
-0.0249783
-0.012852
-0.754001
-0.723206
-0.471323
-0.3423
-0.202881
-0.107116
-0.0483201
-0.00521855
0.0249838
0.0298461
-0.0153733
-0.0416948
-0.0425857
-0.0321893
-0.0163299
-0.766492
-0.70291
-0.485842
-0.352772
-0.209727
-0.116824
-0.0649008
-0.0320614
-0.00434816
0.01603
-0.0277829
-0.0584456
-0.0576903
-0.0415654
-0.0212611
-0.776941
-0.685416
-0.500879
-0.363007
-0.217608
-0.130015
-0.0882545
-0.0720941
-0.0522149
-0.012572
-0.0417359
-0.0776206
-0.0765442
-0.053241
-0.0282098
-0.785073
-0.670292
-0.515783
-0.372861
-0.226321
-0.146761
-0.112958
-0.113389
-0.10132
-0.0510092
-0.0621477
-0.0979489
-0.0982734
-0.0673074
-0.0374725
-0.790656
-0.656954
-0.5299
-0.382017
-0.235824
-0.165623
-0.133813
-0.14654
-0.141098
-0.0895863
-0.0805376
-0.117666
-0.121164
-0.0836826
-0.0486823
-0.793477
-0.644817
-0.542603
-0.389981
-0.246086
-0.18465
-0.149186
-0.170489
-0.170257
-0.123149
-0.101079
-0.136279
-0.143578
-0.101114
-0.0617845
-0.793364
-0.633281
-0.553316
-0.396216
-0.256973
-0.202262
-0.162063
-0.188065
-0.190661
-0.150139
-0.122014
-0.154062
-0.16348
-0.117894
-0.0770965
-0.790221
-0.621807
-0.56137
-0.400381
-0.268253
-0.218119
-0.176568
-0.203152
-0.20521
-0.169622
-0.139411
-0.167219
-0.177662
-0.133818
-0.0943456
-0.7841
-0.609936
-0.566008
-0.40242
-0.27954
-0.232971
-0.194814
-0.21269
-0.216184
-0.182758
-0.149963
-0.172068
-0.183755
-0.148595
-0.111916
-0.775224
-0.597275
-0.566559
-0.402414
-0.290234
-0.247717
-0.217298
-0.229814
-0.225184
-0.191697
-0.154948
-0.169241
-0.183238
-0.161398
-0.127936
-0.763793
-0.583571
-0.562545
-0.400398
-0.299656
-0.262571
-0.2431
-0.248537
-0.232308
-0.197412
-0.158017
-0.164136
-0.180932
-0.172374
-0.140838
-0.7496
-0.568774
-0.553728
-0.396278
-0.307278
-0.276833
-0.270742
-0.26771
-0.237263
-0.199378
-0.160391
-0.160508
-0.182351
-0.181854
-0.149353
-0.128651
-0.138411
-0.155055
-0.155196
-0.134038
-0.114536
-0.126417
-0.146394
-0.13656
-0.105637
-0.102783
-0.117255
-0.109746
-0.102656
-0.108624
-0.0964139
-0.0608261
-0.0475027
-0.0304923
-0.0178814
-0.0135562
-0.0107538
-0.00827876
-0.00724075
-0.00692201
-0.00588978
-0.00681101
-0.00770089
-0.00974196
-0.00995124
-0.0111044
-0.0140876
-0.0146251
-0.00880497
-0.00452988
0.00110441
0.00710399
0.00853429
0.00170166
-0.00290336
-0.118424
-0.123913
-0.139886
-0.143122
-0.125458
-0.1089
-0.123379
-0.145768
-0.13569
-0.100643
-0.095484
-0.108534
-0.101691
-0.0990738
-0.108205
-0.0967307
-0.060572
-0.047458
-0.0296736
-0.0160634
-0.0131848
-0.0113833
-0.00832907
-0.0072958
-0.00701655
-0.00515082
-0.00643074
-0.00892279
-0.00969099
-0.00743534
-0.00985103
-0.0161267
-0.0163317
-0.0071273
-0.00159354
0.00198779
0.00599344
0.00759397
0.00163305
-0.00279811
-0.105037
-0.109245
-0.125075
-0.129432
-0.113523
-0.0975459
-0.112283
-0.136089
-0.126898
-0.091123
-0.0855263
-0.0974318
-0.0911449
-0.0907122
-0.102445
-0.0927931
-0.0585991
-0.046509
-0.0285299
-0.0141245
-0.0127991
-0.0120058
-0.00835377
-0.00727482
-0.00703342
-0.00441984
-0.00586857
-0.00988084
-0.00934232
-0.0047452
-0.00819974
-0.0175968
-0.0175377
-0.00536887
0.00124271
0.00289919
0.00496268
0.00673678
0.00149985
-0.00277328
-0.0914216
-0.0982849
-0.112893
-0.11561
-0.099617
-0.0822484
-0.0941445
-0.118222
-0.110897
-0.0785975
-0.074336
-0.0855145
-0.0795129
-0.0786545
-0.0920227
-0.0848186
-0.0551443
-0.0447866
-0.0271156
-0.0120913
-0.0123924
-0.0126251
-0.0083728
-0.00715554
-0.00698402
-0.00374157
-0.00513098
-0.0105411
-0.00876402
-0.00205081
-0.0062563
-0.0185217
-0.0182611
-0.00360105
0.00388328
0.00378569
0.00404973
0.00598857
0.00130468
-0.00282526
-0.0787887
-0.0908067
-0.102829
-0.10226
-0.0847191
-0.0653195
-0.072062
-0.0949355
-0.0901993
-0.0646612
-0.0629971
-0.0738799
-0.0678212
-0.0643529
-0.0782489
-0.0734838
-0.0505148
-0.0424422
-0.0254863
-0.0100058
-0.0119605
-0.013233
-0.00838398
-0.00692621
-0.00688391
-0.00314583
-0.00426435
-0.0109024
-0.00805092
0.000483709
-0.00419451
-0.0189723
-0.0185616
-0.00190477
0.00623703
0.00460349
0.00328053
0.00536304
0.00105886
-0.0029428
-0.0641959
-0.0826127
-0.0936056
-0.0888274
-0.0698184
-0.0488236
-0.0497131
-0.0700008
-0.0680832
-0.0507797
-0.052191
-0.0629127
-0.0566485
-0.0493365
-0.0626459
-0.0600698
-0.0450436
-0.0396228
-0.0236995
-0.00791318
-0.0114992
-0.0137982
-0.00841495
-0.00659096
-0.00674847
-0.00265314
-0.00334459
-0.0109894
-0.00731558
0.00272903
-0.00219081
-0.0190383
-0.0185214
-0.000355277
0.008234
0.00532197
0.00266334
0.00486259
0.000778467
-0.00310731
-0.0447946
-0.0695818
-0.0804081
-0.0744616
-0.0558054
-0.0338282
-0.0296751
-0.0467013
-0.0472624
-0.0378652
-0.0422934
-0.0532167
-0.0461776
-0.0349585
-0.0466656
-0.045803
-0.0390315
-0.0365122
-0.0218291
-0.00588502
-0.0109755
-0.0142802
-0.0085
-0.00616377
-0.00659244
-0.00227358
-0.00245045
-0.0108417
-0.00664326
0.00459732
-0.0003821
-0.0188087
-0.0182274
0.000988336
0.00983266
0.00591758
0.00219296
0.00447726
0.00048421
-0.00329361
-0.025108
-0.0531764
-0.0647695
-0.0597355
-0.0431861
-0.0213152
-0.0131622
-0.0263296
-0.0288058
-0.0262027
-0.0335963
-0.0448653
-0.0368052
-0.0220946
-0.0314567
-0.0315021
-0.0327948
-0.0333776
-0.0199561
-0.00401011
-0.0103485
-0.0146369
-0.00862328
-0.00567001
-0.00639911
-0.00200541
-0.00164587
-0.0105053
-0.00608174
0.00604374
0.00114679
-0.0183564
-0.0177524
0.00208842
0.0110204
0.00637506
0.00185417
0.00418637
0.000200122
-0.00347318
-0.0104426
-0.0364295
-0.0484448
-0.045513
-0.0321734
-0.0119922
-0.000765043
-0.00923102
-0.012746
-0.0156181
-0.0262447
-0.0372102
-0.028569
-0.011146
-0.0177778
-0.0179746
-0.0266325
-0.0335444
-0.0181527
-0.0023661
-0.00959978
-0.0148281
-0.00877559
-0.00514283
-0.00614362
-0.00184226
-0.000970913
-0.0100227
-0.00564386
0.00706426
0.00236604
-0.0177285
-0.0171461
0.00293035
0.0118104
0.00669115
0.00162627
0.00396444
-4.87415e-05
-0.003618
-0.000599044
-0.0207826
-0.0329153
-0.0325927
-0.022932
-0.0056674
0.00750987
0.00404869
0.000444338
-0.00608935
-0.0199714
-0.0302393
-0.0213138
-0.00254502
-0.00604212
-0.0057541
-0.0203966
-0.0292065
-0.0162402
-0.000999473
-0.00873972
-0.0148219
-0.00893696
-0.00461141
-0.00586125
-0.00177753
-0.000440313
-0.00942879
-0.00531367
0.00768336
0.00329031
-0.016948
-0.0164334
0.00351949
0.0122358
0.00687455
0.001488
0.00378706
-0.000240159
-0.00370487
0.00551531
-0.00837662
-0.0199333
-0.0218347
-0.0155641
-0.00166437
0.0117042
0.0130521
0.00977715
0.00192823
-0.014029