/*--------------------------------*- C++ -*----------------------------------*\
  =========                 |
  \\      /  F ield         | OpenFOAM: The Open Source CFD Toolbox
   \\    /   O peration     | Website:  https://openfoam.org
    \\  /    A nd           | Version:  7
     \\/     M anipulation  |
\*---------------------------------------------------------------------------*/
FoamFile
{
    version     2.0;
    format      ascii;
    class       volScalarField;
    location    "0.87";
    object      T;
}
// * * * * * * * * * * * * * * * * * * * * * * * * * * * * * * * * * * * * * //

dimensions      [0 2 -2 0 0 0 0];

internalField   nonuniform List<scalar> 
12359
(
3.49591e-75
1.74664e-61
-4.24061e-205
-4.33493e-41
-1.95699e-70
-7.61916e-28
5.57593e-23
-2.59647e-25
1.64713e-17
-4.51887e-31
5.42624e-20
-1.21508e-13
0.272522
-5.24626e-38
4.07294e-43
1.2121e-05
0.00266738
-3.61732e-113
7.60045e-115
-1.90308e-51
3.05249e-37
5.70601e-15
-1.92376e-56
-1.6489e-48
-5.59043e-59
1.07216e-53
-3.81447e-148
7.11444e-151
1.03663e-120
-1.20393e-139
-1.4944e-134
2.14786e-165
-8.25021e-183
1.03828e-142
3.34647e-194
-4.93158e-132
5.75868e-91
6.19167e-78
2.04503e-72
-1.25409e-83
2.17224e-64
4.43348e-81
2.98076e-98
-1.07338e-101
-6.64799e-126
1.9057e-123
9.27204e-129
6.03804e-137
-1.51832e-117
6.00171e-146
-6.62561e-154
1.41068e-159
-6.6667e-169
-2.04393e-109
8.59643e-174
1.68916e-179
-6.0315e-104
-9.16124e-186
3.40891e-188
-3.7415e-191
-1.40496e-176
-1.56243e-200
-6.94122e-158
9.92434
1.60159e-106
1.98306e-33
7.62228e-94
-2.86165e-162
-3.26545e-88
-7.81454e-10
117.428
-9.65987e-67
1.80852e-208
8.77103e-86
4.24078e-46
-2.06407e-197
-3.52194e-171
2.15294e-202
-6.80186e-96
-1.91082e-10
-7.16684e-27
-6.05926e-119
-8.29989e-258
-4.34789e-75
0.00164077
1.31005e-71
-5.15398e-117
5.71318e-166
1.03079
0.000530578
-9.29152e-225
3.08983
-2.84223e-226
-9.24675e-98
-8.65554e-79
2.68762e-49
-8.71595e-103
-2.09623e-98
2.70284e-49
-1.11678e-62
1.77999e-22
-3.41406e-220
3.15315e-72
29.0165
-1.8378e-126
3.30444e-27
2.17772e-219
0.00216929
2.15051e-80
2.67702e-28
-2.20253e-105
-1.1e-118
-4.25208e-31
4.90023e-26
-2.06841e-79
-1.97296e-149
4.09499e-25
-4.85177e-118
3.60234
2.50174e-255
-6.81944e-106
9.42746e-23
1.51409e-164
1.40585e-34
-3.75289e-117
-1.17209e-139
2.38118e-16
-2.15955e-74
6.39457e-204
-3.79236e-118
2.05969e-148
8.86221e-06
0.000314993
0.000204515
-2.34362e-220
4.35138e-35
3.28883e-148
2.18578e-36
-4.29811e-216
3.2177e-17
-6.64932e-246
-2.012e-74
2.97891e-36
-8.33101e-220
1.47182e-17
7.73975e-28
-2.72087e-256
0.000695732
-7.26814e-126
1.59903e-26
7.05614e-47
5.03594e-218
1.41337e-35
8.41505e-163
1.3462e-231
116.526
3.22762e-23
8.05856e-06
-1.88074e-103
-6.79323e-167
2.18012e-33
-1.14839e-165
2.12768e-34
1.75779e-35
-9.53599e-243
-5.00683e-141
4.36297e-34
1.39194e-23
3.66438e-37
0.915394
-3.16615e-200
-2.92457e-199
3.10193e-38
-5.82257e-60
-4.60089e-128
1.30945e-17
-4.80097e-123
-1.45499e-124
-7.03318e-31
1.54371e-18
-9.83215e-38
1.18521e-229
-6.41477e-204
-4.84801e-118
1.42947e-50
7.89373e-16
-9.31273e-99
-1.8825e-82
5.4363e-46
-4.82046e-98
-4.53584e-81
1.26684e-50
3.60866e-52
1.33695e-161
1.02388e-27
41.4109
5.39e-60
-3.57045e-98
1.26386e-35
-5.34968e-117
1.40981e-26
1.86782e-46
-7.89584e-63
1.98751e-28
1.5139e-20
4.95134e-229
1.62051e-19
-9.5054e-62
1.27116e-29
9.66907e-108
1.58925e-238
5.25077e-14
9.93706e-14
157.006
2.32131e-15
4.4813e-213
-1.78232e-98
-1.26543e-80
-6.60954e-98
-1.45036e-72
2.36932e-26
3.86982e-110
1.73739e-35
3.38879
-1.16412e-118
4.70792e-238
-2.82789e-71
7.67356e-82
5.16699e-19
-9.70447e-96
-5.79765e-95
-1.65277e-244
7.36514e-18
-8.67717e-58
-7.3197e-83
-7.79351e-59
2.07893e-252
1.46422e-33
-1.48017e-81
9.56633e-05
-9.55021e-235
1.78337e-68
-1.18207e-89
4.94425e-10
1.46822e-31
0.00103679
1.685e-189
1.60266e-30
1.03214e-133
2.25204e-52
1.5545e-19
7.4237e-81
-1.44146e-127
-4.48367e-95
1.42031
128.339
3.56997e-252
2.0602e-111
1.52611
186.51
-5.90025e-62
5.59985e-32
7.19624e-21
2.73439e-28
-1.01736e-61
61.1659
3.61183
4.0288e-30
6.82739e-113
3.46389e-35
1.72331e-37
2.82405e-50
2.25459e-36
-1.1413e-96
2.94544e-109
2.07511e-236
8.2215e-111
8.54499
6.80188e-30
-1.12253e-202
7.79563e-218
4.70542e-28
2.06943e-111
-2.1477e-95
7.40881e-70
1.57945e-248
5.12261e-21
-7.24055e-219
-3.73686e-219
4.45821e-167
2.70422e-35
-9.47344e-121
54.5887
4.84323e-221
3.62131e-218
3.26278e-71
-2.63559e-134
3.18081e-27
-1.70318e-83
3.65788e-157
2.71972e-225
7.80222
5.14517e-20
2.32593e-225
-1.33254e-97
-7.70293e-85
-1.50133e-132
-3.41537e-148
-1.27166e-150
-5.70996e-130
3.88941e-115
-5.8159e-16
-1.11337e-133
-7.61022e-135
-6.5246e-81
1.92011e-33
1.69753
3.89517e-130
-1.03274e-52
4.29107e-06
2.91847e-218
6.51702e-44
-7.39915e-202
4.2585e-59
-4.38389e-218
2.42166e-128
4.50563e-16
1.33101e-40
1.92373e-16
1.26579e-96
-7.295e-90
2.68615e-52
3.19432e-48
-8.88958e-89
1.13059e-52
1.05501e-52
8.87266e-185
9.16523e-174
3.97494e-174
1.58815e-173
9.04573e-173
0.000393203
-1.52409e-247
3.25108e-25
3.50055e-36
7.01729e-53
2.50052e-34
5.93701e-40
1.25401e-71
2.8148e-61
4.16135e-40
3.47607e-62
-1.94262e-53
1.01376e-30
5.33911e-30
1.74617e-30
-3.75378e-73
1.45316e-14
-1.73726e-75
-2.76122e-75
4.59768e-36
4.56305e-20
-3.3301e-121
-6.29972e-173
1.41114e-59
2.05179e-175
-2.43665e-119
169.12
17.922
2.62294e-119
-1.34309e-213
-4.40212e-223
-1.56438e-232
8.97279e-41
1.12792e-229
3.8945e-230
1.26647
1.04452e-35
0.00041089
1.11426e-121
2.83121e-30
5.51087e-113
-2.04483e-88
5.63518e-27
2.29148e-60
-3.78127e-39
9.17485e-62
1.59765e-121
-7.92757e-204
3.17684e-36
3.00718e-30
5.80312e-120
9.0848e-12
2.9494e-27
3.30427e-49
4.27603e-42
2.08476e-35
4.67927e-213
10.5557
9.1727e-14
3.08133e-120
1.5993e-10
-1.08532e-76
-1.18966e-243
1.10961e-243
-7.78548e-234
0.000767796
5.79575e-21
2.31241e-52
7.06469e-45
1.65291e-47
-2.39786e-77
-9.46459e-38
1.73413e-43
4.33623e-10
1.69434
1.15002e-12
1.79061e-52
1.73802e-31
6.78919e-79
5.08298e-28
5.91035e-66
3.63067e-58
-3.52495e-143
1.27234e-67
2.5012e-38
1.4818e-228
176.896
-7.0051e-93
0.962696
2.32098e-31
3.54117e-103
2.29153e-29
1.08253
3.61357e-38
1.30363e-59
1.62951e-49
2.99903e-30
3.33643e-27
-2.07235e-114
-3.30147e-238
7.30526e-24
-1.66772e-216
3.65071e-06
4.574e-147
-4.33852e-56
7.7317e-35
1.05541e-95
0.00907934
2.02134e-24
-6.86031e-65
-4.09664e-114
3.69405e-05
6.48116e-190
1.39148e-125
7.15633e-15
-3.45347e-212
-4.44927e-114
-7.64147e-128
1.12216e-07
16.7978
-1.84255e-76
7.4286e-171
-1.27498e-32
2.74912e-36
3.4544e-44
4.09275e-34
5.46018e-37
3.68307e-183
-3.95512e-234
3.911e-40
4.38459e-222
6.57757e-36
1.20586e-44
1.55311e-28
-3.55752e-126
5.83398e-25
2.1034e-13
4.67574e-142
-5.24609e-78
2.10222e-118
-4.7918e-29
1.28187e-14
8.04871e-215
9.42791e-39
1.1187e-38
2.24857e-81
1.68808e-37
1.84121e-146
3.44492e-21
5.62469e-63
2.29917e-33
6.57482e-29
1.48107e-181
-9.01788e-79
6.89497e-10
0.00111505
1.03319e-223
5.80108e-57
3.67785e-10
1.57651e-43
0.837299
-7.15619e-234
2.8031e-148
3.1525e-188
3.15306e-34
-1.37041e-62
-2.13492e-71
6.17809e-145
5.36016e-41
3.23151e-56
-1.73746e-61
-7.06088e-104
0.000279166
-1.38075e-213
0.000639948
1.6262e-167
147.565
8.07442e-62
1.27971e-10
3.99628e-188
-2.31807e-127
2.60874e-32
-1.03686e-119
1.10658e-158
3.54222e-98
-3.5642e-60
4.51518e-61
4.01929e-12
1.47412e-23
1.17669e-23
-5.98758e-257
-1.51834e-119
1.33132e-42
0.00147997
-1.12762e-256
-1.43815e-208
6.29383e-38
2.40168e-186
1.34194e-16
1.27808
100.355
-3.28812e-255
6.12453e-80
1.22423e-18
-5.05654e-69
-2.20669e-128
93.5476
-2.34736e-210
9.58315e-24
1.05987e-33
-5.28858e-81
-5.2546e-131
1.80053e-155
2.99237e-97
1.03505e-36
9.4643e-63
-1.0825e-75
-2.5742e-254
-7.74547e-202
-5.38612e-64
1.53182e-123
1.14184e-27
1.62862e-34
9.78366e-166
-1.90707e-204
4.0299e-30
169.868
-6.39076e-136
2.07816e-10
-1.62006e-223
-3.47902e-75
6.5843e-24
1.4979e-43
2.55745e-20
2.15056e-28
1.28289e-61
9.76532e-33
-3.37413e-240
-4.54455e-195
7.16604e-47
-2.26435e-71
-1.35491e-62
-6.3501e-73
3.36064e-231
-1.35654e-203
-5.93569e-139
1.56664e-48
1.56247e-28
-3.56722e-33
-1.29267e-91
-2.04066e-31
1.27742e-36
3.15304e-58
-1.98255e-30
-3.25416e-55
1.19025
4.34993e-35
1.36772e-53
7.35447e-29
9.80682e-196
3.09165e-23
6.94692e-32
1.71364e-257
-1.40493e-212
4.50437e-185
7.56454e-189
4.82303e-07
7.73886e-58
6.40851e-88
-2.19754e-32
9.89349e-98
4.91237e-16
2.79659e-44
3.17738e-36
-6.37617e-138
7.61841e-11
8.01521e-232
-4.35754e-48
-8.57191e-115
4.89353e-19
-1.0055e-29
1.80448e-66
1.32372e-57
8.41451
1.2852e-37
1.10358e-13
1.04697e-66
1.41203e-11
0.586162
-1.46003e-175
-7.6796e-122
1.0385e-232
2.09424e-08
-2.83638e-122
1.41418e-62
0.00747558
-3.41108e-209
-4.74982e-61
8.04925e-32
7.4054e-63
2.27474e-133
-9.03883e-69
1.75775e-169
-3.14905e-66
-5.42728e-170
-1.76725e-168
-2.32583e-70
1.28807e-34
3.41155e-37
1.95145e-61
1.53302e-08
1.92707e-44
17.4559
5.44126e-37
2.82362e-70
-3.33614e-68
1.10291e-38
1.36582e-51
1.40979e-50
0.615072
-2.20937e-35
3.80613e-54
4.07512e-52
1.00617e-113
5.935e-125
1.25362e-30
-1.35715e-236
16.4803
1.92773e-168
-2.10142e-34
3.03096e-22
3.41461e-07
3.86696e-19
9.43713e-30
4.84265e-33
9.41871e-68
2.52988e-19
1.10607e-41
1.40457e-13
9.19408e-52
1.29104e-13
4.67187e-53
-6.56802e-250
2.79035e-52
175.451
3.3354e-13
-3.15883e-94
-1.86117e-243
2.43618e-163
7.31533e-86
-4.12897e-55
5.62627e-38
1.89662e-58
2.77299e-184
3.11965e-93
3.98239e-51
2.36244e-96
-4.65147e-104
8.68833e-13
-1.7308e-104
2.33916e-43
1.94752e-26
-1.88013e-94
5.0653e-86
5.56874e-28
-1.28991e-258
-4.23917e-89
51.9035
-1.143e-192
1.64008e-16
6.99614e-23
-3.10511e-87
1.23927e-32
1.72589e-26
1.4641e-53
1.28207e-26
-5.44371e-122
-1.13896e-32
-9.98823e-129
9.09139e-54
1.27369e-28
-2.0572e-31
-8.9398e-122
3.92642e-32
2.14831e-06
4.76019e-45
3.17984e-68
-2.03545e-115
1.2233e-22
6.70198e-07
1.27655e-116
-1.07714e-214
2.63753e-53
1.49631e-226
0.684901
2.34164e-52
2.17545e-12
3.61119e-66
9.37249e-60
13.149
4.72917e-64
0.00159117
3.09439e-39
95.6573
4.07881e-42
-1.2115e-74
1.62729e-65
8.31646e-83
0.00395003
0.000376613
1.02024e-171
5.25472e-169
-2.89078e-29
2.57632e-159
0.00336256
2.2361e-28
3.53356e-10
-2.97123e-115
131.271
0.0951157
1.46407e-51
-6.99954e-250
-2.66449e-126
-1.25259e-37
4.03203e-84
-1.39191e-90
-7.25954e-83
5.24118e-38
7.18904e-43
44.6452
1.47525e-07
6.40785e-186
4.57802e-37
6.30034e-25
-5.03589e-28
-3.79526e-72
9.809e-23
2.8805e-32
-1.40681e-36
-5.02707e-132
8.05091e-246
5.17602e-21
5.64557e-18
2.34283e-60
-3.00629e-30
3.40603e-13
1.29428e-71
7.36857e-55
-3.20434e-113
-6.3515e-78
5.69472e-15
-4.27801e-76
9.48055e-26
7.84471e-40
5.28506e-48
1.43919e-95
-1.51583e-76
7.10875e-07
3.30039e-68
-9.32361e-74
42.9642
1.83986e-48
3.47719e-73
0.00900478
-6.3969e-253
9.34389e-67
1.20398e-59
-6.61793e-85
-2.90617e-143
6.57441e-57
1.78586e-259
1.05608e-09
5.67818e-121
-5.50991e-60
1.8762e-21
1.91596e-32
5.78356e-62
9.5825e-65
4.41411e-22
90.8676
3.31687e-194
6.14344e-102
3.38836e-72
0.00769514
4.25918e-18
-2.28693e-123
3.21778
-5.82157e-246
-5.21517e-124
185.602
-1.26354e-93
-2.09695e-120
-2.04779e-117
4.44294e-41
-6.0775e-40
7.53778e-191
-5.28412e-87
7.72036e-25
4.67761e-60
-2.49804e-64
1.99142e-82
-2.4486e-174
-8.36308e-39
2.14798e-06
-7.80736e-67
-2.38583e-31
5.1714e-40
5.23534e-52
1.54133e-10
8.0343e-26
3.92399e-81
-3.31366e-122
0.000455626
2.54923e-34
1.90513e-46
-2.10325e-112
3.47418e-187
-8.59326e-37
5.29479e-11
2.43528e-70
4.92069e-29
7.19184e-69
-1.19548e-80
2.22118e-102
2.0601e-39
148.919
19.0519
3.30372e-38
-2.0974e-64
-5.62505e-104
1.66276e-40
0.0126838
-8.44313e-34
-9.25102e-125
1.30037e-11
6.90919e-08
9.75322
2.77607e-87
89.3357
1.23206e-191
-1.76884e-79
4.39695e-187
5.13895e-11
2.90827e-45
81.9482
-1.01988e-128
0.0200224
3.9882e-158
-4.15852e-65
1.21908e-29
-8.01508e-87
2.87509e-12
0.129428
-8.07053e-92
1.50603e-94
9.82299e-67
7.22068e-89
-2.75241e-93
8.44823e-14
1.10899e-47
3.65745e-64
1.5242e-15
-2.02333e-93
1.1688e-181
-3.21766e-68
4.8225e-162
6.20131e-27
1.57573e-66
3.28459e-09
4.98064e-11
-2.71879e-42
1.72869e-33
1.27602e-37
9.1202e-67
0.014169
1.33702e-72
-1.10773e-97
4.87906e-231
2.30928e-11
-4.9951e-35
-4.19756e-130
3.13867e-26
-8.55186e-83
9.16836e-34
-2.28655e-37
-1.12436e-32
8.06797e-39
90.1375
3.51029e-37
-3.82803e-41
0.135963
3.11061e-86
2.15469e-07
1.44709e-24
4.48543e-162
4.13446e-71
-6.98375e-103
-7.11173e-71
-9.69374e-242
-6.37126e-117
2.48009e-07
2.50525e-11
-6.23995e-118
205.269
4.26808e-29
-1.15801e-165
6.85815e-12
1.25171e-12
-3.40008e-168
1.01114e-10
2.15761e-22
2.81144e-11
2.67967e-168
-7.3231e-126
-3.84877e-101
-1.51406e-168
-1.93972e-36
28.8498
-4.43986e-131
5.2275e-12
-1.87436e-254
2.6799
5.93483e-27
8.61441e-36
-3.40573e-211
-9.76631e-133
-8.33494e-78
2.03225e-40
2.97471e-15
2.44952e-34
-4.13918e-94
-1.71992e-89
-6.86268e-167
2.66617e-28
3.37589e-38
-2.62627e-102
-4.07283e-212
2.04245e-55
1.11412e-34
4.68107e-44
-3.1143e-138
7.05742e-07
5.37917e-29
2.93603e-158
1.53328e-45
5.79484e-90
-3.16351e-74
194.705
-6.965e-95
-2.08891e-164
1.41482e-38
-3.88746e-36
-1.05887e-44
2.85279
-2.91226e-62
4.74332e-75
3.76967e-33
-3.49961e-85
-2.97182e-83
1.53313e-73
5.002e-85
-6.26137e-29
-1.10219e-74
16.4318
-1.68784e-43
5.52115e-10
-1.06246e-81
0.0080681
2.58512e-31
1.87135e-09
7.35777e-14
1.11832e-33
8.772e-74
1.12882e-79
5.5434e-58
2.06589e-254
-1.53805e-76
7.41624e-36
5.71431e-13
-1.23982e-85
1.69713e-159
5.19044e-36
2.53449e-35
5.60301e-17
2.36236e-39
9.93388e-12
7.00439e-17
-4.35832e-111
3.72773e-50
0.792339
4.8938e-37
1.50191e-244
3.7031e-88
-1.1999e-87
1.31536e-247
2.15679e-51
-1.48579e-192
-3.40127e-75
6.41713e-15
1.42917e-33
2.74127e-06
-1.09457e-189
4.57513e-132
3.97298e-225
-1.18179e-86
-1.54259e-103
1.94427e-09
-2.76793e-103
1.05675e-132
4.96668e-07
5.65967e-36
1.08368e-47
1.1448e-52
2.41726e-17
2.70653e-94
4.13994e-12
1.72924e-80
1.77975e-183
0.0020642
4.47325e-42
2.19246e-20
-8.57688e-99
55.6195
-9.67157e-40
7.58181e-45
2.41589e-34
3.73755e-30
41.8198
8.69046e-78
4.02711e-12
1.77866e-48
1.58082e-46
1.83673e-140
1.83445e-65
1.53986e-07
8.73155e-78
5.42036e-09
-3.19401e-92
-2.8684e-96
8.77761e-13
7.03578e-150
2.4469e-122
2.89135e-76
8.56592e-41
3.72097e-11
-2.32336e-93
7.03529e-88
-6.10013e-227
4.97564e-47
0.00240532
4.49234e-42
-1.00434e-87
-4.31753e-63
1.45744e-95
-5.21691e-128
14.1799
-3.88981e-47
6.04119e-216
6.55296e-49
7.72166e-97
-1.68432e-38
-1.39542e-27
7.96957e-45
5.23831e-86
1.18524e-14
3.4107e-11
-5.51154e-218
1.08606e-60
1.33115e-11
-1.02132e-130
5.15969e-194
-1.77807e-64
1.65169e-50
1.0061e-79
-6.13047e-193
4.47679e-51
2.13538e-12
-1.9254e-167
3.57368e-23
9.81003e-193
-3.83124e-102
2.95171e-55
4.81208e-05
-1.9308e-233
2.16275
-6.35992e-46
1.25776e-21
41.1509
-3.71429e-42
2.70418e-57
0.0369254
-2.368e-86
1.57669e-05
6.13366e-19
-9.28038e-65
-1.05986e-77
-3.90355e-79
-4.23125e-97
-3.9879e-102
8.7981e-22
0.0283916
196.67
2.22646e-25
-6.10501e-29
0.0222024
1.12938e-27
13.5678
3.10887e-144
-1.75361e-95
8.43547e-19
5.70769e-43
-1.43018e-117
2.58819e-25
4.07528e-81
36.222
6.42453e-245
-2.80655e-130
2.41547e-138
206.371
-2.0851e-36
2.80168e-44
-8.77786e-77
4.56137e-19
-3.5845e-82
-1.54662e-134
3.34817e-07
1.98695e-79
3.14151e-07
7.73025e-22
6.2636e-68
2.62053e-14
1.37333e-42
-8.69306e-96
-2.68664e-129
-1.99572e-126
0.233746
2.1197e-13
-7.25639e-106
7.54787e-18
5.40844e-48
7.84662e-25
1.12624e-232
1.08918e-46
2.02493e-07
4.68077e-10
-6.55872e-41
-6.93585e-67
1.66511e-130
6.22879e-16
2.39611e-83
3.33104e-134
3.86664e-10
7.9514e-17
-1.23396e-107
1.85134e-30
2.69598e-42
-3.17961e-227
-6.43752e-119
9.77887e-194
-6.61788e-40
87.6233
1.98353e-11
1.66762e-19
-3.02184e-112
7.46324e-82
2.7482e-41
-2.3999e-219
3.27488e-09
2.41184e-43
90.6028
-1.15977e-27
5.51587e-72
-1.20016e-108
8.68571e-144
2.32474e-78
-3.23231e-84
-7.28578e-116
14.2463
3.0929e-15
6.65015e-36
4.84016e-17
-2.37174e-42
-1.53504e-129
-6.24782e-254
-6.0769e-116
4.33947e-26
0.907247
-7.60457e-22
7.5437e-45
-2.28904e-48
-6.19125e-74
9.18959e-16
0.0362275
0.0259799
2.59845e-84
-6.85231e-69
1.45006e-28
2.74798e-97
7.41435e-187
-5.0221e-117
6.03049e-14
-9.41942e-105
2.71616e-59
-6.53821e-92
1.42994e-40
3.3084e-08
-2.53182e-98
-1.06116e-116
2.27274e-10
6.60965e-15
1.78139e-94
-7.41917e-140
-1.28546e-49
0.000594836
1.27641e-25
1.55894e-22
-3.88641e-52
8.57383e-58
0.0627811
3.10284e-80
-6.53913e-22
-1.24185e-127
1.58271e-12
1.06303e-11
-2.1618e-170
6.36503e-140
92.8958
8.00613e-120
3.39916e-73
1.24531e-27
-2.97248e-108
-4.09732e-106
-4.82334e-93
5.1452e-121
6.15693e-225
9.45606e-18
1.65057e-05
5.48506e-142
0.01884
-2.24364e-83
-3.07684e-121
1.30093e-12
4.38501e-09
1.2981e-26
-8.01296e-85
-1.52138e-116
-1.28865e-44
151.555
-2.24318e-104
1.39656e-142
-2.17232e-149
-2.41371e-104
2.78654e-59
1.37517e-28
-2.28574e-107
-5.69569e-79
-1.19484e-124
7.31177
7.68023e-09
1.85368e-40
-1.1402e-38
-5.88813e-82
-3.46294e-121
7.3978e-16
1.36557
-1.03346e-72
3.2563e-148
-9.45521e-123
1.22593e-13
-9.97428e-108
-2.9383e-129
2.15795e-08
-1.39713e-85
1.16608e-117
115.513
5.11591e-06
10.5974
1.66318e-15
-3.23879e-107
2.15983e-12
2.01044e-10
0.167874
1.1696e-94
2.23855e-28
-3.06185e-222
0.112209
-6.13784e-250
-1.47489e-96
1.0489e-81
-1.23796e-147
7.95154e-41
-3.62374e-92
-1.2583e-105
4.03308e-96
7.24127
3.73041e-14
2.67581e-37
-1.34571e-115
3.72872e-29
18.6633
7.96825e-09
5.44418e-43
-7.08547e-51
-2.20886e-97
2.77466e-84
6.36188e-144
-7.95718e-111
2.19114e-140
-3.47085e-118
-2.40607e-43
6.99484e-15
1.6283e-16
0.31971
0.000115072
1.31616e-08
3.55196e-24
0.12178
-6.40681e-131
3.992e-05
-3.93174e-123
0.00172538
3.79301e-09
2.85711e-35
-2.72585e-106
8.60343e-35
8.95297e-23
5.48899e-64
84.2837
1.61422e-12
0.371035
-1.02042e-119
1.02148e-09
3.28935e-07
6.6484e-10
1.62822e-07
8.45438e-11
-6.94465e-117
-4.84782e-96
5.41449e-40
-7.8252e-111
1.38188e-28
-4.36258e-100
5.97428e-38
1.39495e-171
-1.66301e-90
8.74395e-21
9.19222e-31
1.77273e-135
-4.03541e-47
0.939289
88.8373
-1.37884e-148
2.41021e-49
4.43653e-75
1.1227e-10
1.6947e-29
5.14387
4.22495e-05
8.05058e-97
3.4114e-39
2.54918e-07
-5.39152e-24
6.2136e-06
6.15742e-54
8.691e-12
9.46767e-137
0.192456
1.28233e-08
-1.99899e-137
1.36706e-07
0.160239
1.88482e-45
4.19775
-1.2228e-85
8.03598e-09
3.58281e-78
-1.73758e-153
1.5011e-73
-8.93931e-81
0.0824478
0.000294743
0.0396104
-2.51112e-136
7.28
5.46817e-36
7.51329e-13
-1.65321e-31
4.77928e-41
8.95824e-50
0.0197395
-3.89117e-84
1.32246e-94
8.7185e-20
4.01179e-09
3.62975e-28
4.24866e-18
-2.56248e-57
0.0503295
1.6504e-29
9.00216e-29
2.30847e-09
-2.37156e-171
8.70593e-08
9.5044e-11
4.91147e-08
1.34902e-76
0.000975684
1.2807e-142
2.44092e-29
1.21511e-41
1.16713e-05
1.59168e-71
9.2715e-21
1.58997e-08
76.9801
1.11684e-106
1.58179e-35
-2.86182e-47
6.67737e-09
1.36651e-18
-1.41997e-95
1.18352e-37
2.62438e-145
13.5256
2.5012e-229
1.96384e-144
6.26814e-192
9.63359e-07
7.49842e-116
3.7679e-37
6.24613
7.52112e-52
4.74687e-58
-3.93352e-110
3.9455e-181
1.08023e-09
3.81264e-147
-4.29693e-41
3.75e-12
-7.67933e-46
3.1093e-06
1.97572e-91
1.785e-36
1.39839e-07
2.00723e-18
1.11755e-69
88.002
5.49952e-233
3.95097e-176
-6.47701e-87
225.743
4.17922e-77
4.00052e-71
8.74356e-08
-1.93918e-106
7.69532e-90
1.58637e-13
9.23524e-06
4.96116e-31
0.00922097
-1.66288e-106
-5.56122e-87
5.07183e-41
3.16341e-46
1.08707e-05
-1.07011e-124
3.80669e-67
-1.06585e-54
-1.40084e-17
6.98206e-60
5.36574e-137
3.02469e-39
-7.52716e-19
-2.47625e-201
-2.33504e-200
4.24996e-05
1.26402e-30
8.06736e-05
-6.92213e-89
6.74844e-244
-1.12447e-17
1.20267e-06
-4.40077e-129
-7.10294e-103
3.47422e-144
15.1531
-3.27236e-201
3.60903e-32
7.60664e-05
-1.49101e-193
1.60863e-179
1.21644e-18
-9.42611e-157
-4.42225e-198
1.6538e-39
3.13945e-13
-4.3314e-139
1.52023e-21
-1.02539e-149
9.7835e-08
2.82233e-247
1.32257e-07
5.23383e-13
3.09208e-20
-1.94124e-193
5.83962e-15
5.42281
9.37468e-98
5.78892e-48
4.67018e-158
1.55121e-13
9.46695e-151
8.70698e-07
2.73152e-09
-1.91258e-83
1.06414e-187
1.47672e-13
6.00589e-14
1.81034e-45
2.23745e-43
2.31073e-16
-4.80691e-155
1.77584e-15
2.35961e-189
1.46119e-05
1.15279e-08
1.13728e-08
1.25586e-19
-5.03604e-23
12.1816
1.83708e-20
5.01877e-42
1.46542e-14
-1.87591e-99
5.09102e-12
2.89785e-16
-1.59309e-43
1.8653e-77
0.0947077
6.16943e-208
0.0457194
104.176
-2.70175e-110
2.45712e-08
83.367
1.41226e-34
1.27241e-39
3.02408e-16
-2.09254e-53
6.06752e-143
6.75642e-08
0.0132247
0.785363
-4.19483e-99
5.04657e-15
0.000432803
3.35774e-14
-3.61497e-118
3.57746e-173
5.65745e-31
0.0222291
7.46004e-09
2.72583e-16
-2.63816e-235
-8.86236e-152
1.75009e-14
-8.30411e-106
2.69204e-42
-1.88511e-101
1.34588e-184
2.41835e-07
1.68115e-84
0.000183935
1.07442e-44
7.3311e-165
5.21643e-173
4.48821e-15
-1.83812e-100
7.89051e-34
4.90109e-16
0.792929
-1.14116e-49
-6.3971e-137
2.38091e-06
-3.94688e-94
1.29532e-146
6.44688e-66
8.2738e-14
-8.13409e-98
7.02252e-14
3.01022e-44
219.128
1.05572e-14
-1.50675e-128
9.36361e-05
8.55702e-192
5.07499e-09
1.90551e-36
6.92479e-06
0.00474998
-8.56632e-45
0.000155013
3.19041e-163
1.02132e-08
1.35854e-120
1.63307e-50
3.3893e-05
3.1082e-27
1.28089e-05
0.0165593
-9.6581e-20
1.20233e-07
2.52545e-06
-6.64535e-134
2.40843e-149
2.84681e-190
0.000197631
-3.2197e-24
-3.01155e-132
1.72294e-07
1.73147e-05
1.22964e-36
5.30711e-13
1.35393e-52
-6.37933e-34
0.00272902
-5.73192e-71
1.23218e-28
6.26589e-33
2.1608e-222
-9.84099e-221
-5.48396e-134
-4.88036e-99
3.49839e-44
2.55819e-166
-2.34575e-85
1.21565e-104
-5.27203e-63
1.1408e-17
-1.40696e-116
1.34347e-06
-2.3265e-249
1.82062e-11
3.99817e-06
-8.63402e-128
5.63667e-05
1.94592e-12
6.22329e-06
5.71678e-59
1.19928e-16
-3.92533e-108
6.70982e-37
5.13307e-47
1.26476e-174
-4.77309e-121
-1.19461e-90
-3.1125e-126
1.58484e-194
1.4055e-54
3.42087e-196
-1.20992e-30
7.57719e-23
0.0654061
5.1774e-168
1.14281e-61
1.08452e-164
-7.36105e-105
1.41507e-21
1.17797e-63
-6.27746e-130
123.826
2.24788e-14
1.01698e-30
3.52284e-59
4.13239e-15
1.49886e-23
4.96974e-63
6.86961e-18
1.80769e-13
2.02034e-104
5.05141e-191
-2.57237e-81
1.61465e-07
-4.20434e-148
-2.32921e-134
9.07395e-14
-2.16761e-111
-3.68663e-106
1.91289e-73
-1.74475e-137
0.00111987
2.30978e-166
-5.97999e-136
4.33485e-20
3.35648e-18
6.27426
2.99805e-13
-1.435e-57
-2.61225e-129
8.87558e-17
-6.94309e-131
1.59628e-26
1.37443e-47
-2.44438e-105
5.48589e-06
1.05523e-197
1.27521e-21
4.11356e-53
7.09339e-15
-1.02787e-42
5.84546e-200
1.281e-106
1.91053e-245
1.10288e-24
-2.71795e-150
6.15395e-19
1.40019e-42
-5.34715e-89
-5.37055e-56
4.06519e-38
1.0399e-192
3.68288e-21
1.40669e-21
-6.10484e-100
8.55631e-20
1.15473e-07
8.58941e-183
2.85844e-38
1.94294e-11
3.81655e-13
1.65633e-74
4.55006e-41
8.97689e-40
6.10175e-45
9.19973e-72
6.0387e-15
-1.00033e-72
-1.68072e-128
1.88274e-130
0.0495317
1.93054e-08
7.64877e-05
1.65808e-06
-4.80082e-35
1.89281e-20
9.57787e-43
6.78809e-19
1.02675e-128
3.25797
-5.91335e-105
2.9532e-06
6.61907e-08
-2.04291e-132
-2.27688e-25
8.83134e-09
6.16247e-06
6.77041e-41
2.69301e-26
2.9103e-130
1.68823e-215
5.70197e-15
5.00778e-191
5.86694e-170
3.07655e-17
-5.64355e-106
-1.60593e-65
-2.8477e-135
-8.18892e-87
5.81563e-15
11.6843
4.70313e-101
-1.34924e-108
1.59213e-08
-7.86409e-38
4.9645e-11
1.51621e-24
7.77255e-26
-1.32389e-107
1.99581e-37
2.14009e-16
5.84385e-17
-3.62933e-30
4.2465e-155
1.33944e-06
1.23713e-30
2.4447e-19
-1.69298e-83
-3.71332e-134
1.2444e-16
6.59e-99
-1.24412e-185
1.15599e-22
1.91227e-08
-1.07822e-168
3.63292e-21
9.9816e-46
-2.9493e-115
-1.69655e-74
-1.37066e-114
1.11241e-22
-8.86703e-128
-8.66473e-136
4.43001e-43
4.1927e-23
-7.72382e-40
-3.44756e-30
10.2073
5.45139e-107
1.59549e-60
0.36996
9.57391e-33
-5.2787e-116
8.5197e-32
0.00369381
1.65375e-174
-4.10206e-109
4.66232e-186
8.8317e-26
1.30755e-14
2.90835e-46
6.81995e-198
-3.32812e-78
1.88264e-64
3.51754e-90
1.89262e-09
-3.72424e-102
2.71326e-197
7.85102e-193
6.1771e-28
1.4335e-41
1.7095e-05
-1.68073e-81
-2.26463e-48
8.96312e-30
5.50638e-15
-1.1167e-147
4.61739e-24
8.98653e-178
7.91752e-170
1.96795e-199
6.65688e-10
-6.78724e-110
4.41327e-24
1.91266e-22
2.0099e-26
4.14271e-16
2.09857e-27
1.50905e-13
8.77295e-26
3.37781e-101
2.22967e-28
-1.11019e-47
1.69573e-34
2.42211e-21
-6.41121e-108
39.6518
5.53487e-17
3.76352e-19
3.3346e-169
1.45411
1.45819e-15
2.55172e-17
-2.14331e-31
5.5953e-07
4.8164e-63
-1.5505e-103
-2.43435e-88
3.73015e-91
8.13416e-86
3.7281e-18
8.59778e-22
4.00918e-116
4.68889e-25
1.13579e-91
1.09143e-85
1.21967e-51
-5.58134e-46
2.30539e-70
8.63821e-56
-9.97013e-45
1.47153e-24
6.71758e-26
1.0478e-47
1.3021e-186
-2.13492e-89
-5.51315e-100
6.3988e-11
4.11211e-149
-2.13991e-113
2.11538e-25
1.56144
-4.2437e-127
2.56599e-05
-9.35536e-132
1.77655e-99
8.95507e-41
4.6359e-29
6.62551e-34
1.61219e-145
4.47078e-19
1.00713e-21
1.64739e-11
3.54923e-168
1.33742e-24
2.08731e-41
6.33378e-54
1.45051e-197
-7.25772e-235
1.00018e-27
2.52729e-41
3.74745e-60
54.7416
3.49715e-23
2.42725e-32
-6.06809e-25
7.47988e-44
3.37572e-11
7.76199e-106
5.83929e-47
-2.56284e-75
-1.47814e-87
0.00897565
3.85736e-23
9.34691e-22
1.11773e-35
-9.5093e-141
5.29295e-18
2.14664e-17
8.68206e-05
-7.96335e-86
1.95256e-32
0.000186415
7.66177e-05
-1.91344e-133
6.18849e-05
7.68204e-51
23.2064
6.133e-183
1.15173e-24
2.77531e-36
9.45796e-205
5.81971e-15
4.29867e-65
1.23264e-78
2.92816e-09
0.00120643
2.29075e-05
2.80603e-77
9.79417e-27
-5.89503e-183
-2.44252e-100
4.27244e-06
1.03325e-30
1.54768e-77
1.81591e-18
5.80242e-23
8.05547e-28
1.01673e-39
2.58966e-37
1.70932e-22
0.0028943
8.43907e-140
3.48302e-39
7.69555e-47
6.44783e-28
2.17621e-07
1.99295e-23
1.42773e-32
6.79526e-66
3.26975e-186
1.54112e-26
3.46563e-31
2.60062e-21
-3.11456e-144
8.68323e-57
1.54772e-24
1.42462e-24
-3.45629e-24
2.83558e-20
3.07055e-72
1.31973e-29
-1.84968e-111
5.85519e-14
7.74613e-53
8.14588e-26
5.39324e-63
5.68007e-76
2.75921e-23
1.49121e-57
7.50714e-66
-1.14422e-80
2.34475e-141
9.9665e-30
5.11497e-51
2.89624e-54
16.2323
0.0102019
-3.04841e-111
4.85033e-79
4.93073e-38
1.19088e-40
3.25776e-198
3.54236e-30
-3.11469e-36
2.19571e-30
-4.10762e-184
1.19198e-13
5.69641e-19
6.55676e-16
4.65907e-30
1.24979e-169
-2.35955e-94
1.43362e-61
2.71774e-29
6.27324e-09
15.2671
-1.78099e-136
2.76943e-67
1.49952e-71
4.17839e-07
0.000491297
4.15725e-05
8.1394e-52
6.19622e-22
-2.10652e-182
2.01572e-38
-2.56255e-52
-6.63026e-135
9.69752e-23
4.07812e-40
6.44786e-35
1.02587e-20
-9.35601e-72
4.04896e-41
7.25741e-32
2.68863e-170
-3.56636e-256
6.09309e-43
-9.81697e-66
2.1575e-08
1.24342e-47
-5.40203e-23
1.76504e-13
-4.52518e-41
-2.83212e-136
-6.8587e-59
1.34191e-19
-2.1503e-141
0.227783
0.0480582
-9.53397e-114
7.44651e-178
3.06304e-104
1.18362e-139
7.39933e-207
1.67394e-61
6.74865e-66
-1.27219e-32
9.52176e-40
7.46604e-31
-1.74499e-48
1.97553e-05
8.48107e-20
3.64145e-32
2.92495e-40
6.74184e-51
3.61138e-35
3.25171e-170
-5.46982e-74
2.30449e-67
-7.17688e-32
-4.37967e-26
1.50789e-09
1.87368e-209
-5.5818e-27
1.74605e-37
5.1716e-49
8.51038e-23
-2.55501e-40
8.71152e-25
0.00353112
6.2542e-38
2.19359e-18
9.68966e-50
-8.76345e-88
2.01355e-40
9.86796e-35
-2.10603e-141
6.98527e-42
0.0254541
-9.02875e-78
0.000207847
-1.9521e-134
2.57502e-34
-7.43626e-91
1.79219e-73
2.62488e-30
-6.95596e-21
4.85116e-22
2.82197e-71
5.01844e-44
2.26464e-49
4.59405e-18
6.26587e-13
-5.65276e-46
7.0595e-09
1.57766e-205
7.50316e-40
7.40991
1.33386e-14
-4.79456e-72
0.370788
1.02479e-19
2.47779e-67
2.31422e-157
9.17878e-11
4.81208e-35
1.06462e-50
2.51119e-36
1.20254e-152
2.01392e-21
-1.62953e-79
2.94176e-14
1.71265e-36
5.36975e-32
-3.47667e-30
-1.78809e-251
-7.51006e-103
3.85186e-48
-1.95942e-86
-4.90072e-89
1.49733e-56
1.3173e-75
6.54893e-63
-4.78989e-25
4.69569e-28
2.45394e-195
6.17371e-16
-3.42186e-101
1.77667e-169
-9.97058e-28
-1.64269e-128
2.02683e-49
1.35084e-50
-4.44808e-143
-4.23397e-139
5.87553e-84
6.75678e-25
5.18015e-62
1.26951e-32
4.03155e-36
-1.00218e-26
1.02381e-25
2.08988e-51
2.82308e-43
9.66081e-39
-1.01763e-222
3.39599e-57
-9.24496e-77
4.28366e-52
0.219202
3.10889e-27
-5.43883e-71
4.02646e-42
-3.77699e-64
6.02429e-67
3.12255e-73
2.84876e-63
5.72311e-68
-1.09427e-32
4.19449e-38
5.75393e-171
4.75628e-26
-8.62085e-50
3.48792e-24
5.5855e-158
-2.74905e-28
4.07953e-05
-2.53968e-97
-2.82161e-40
1.47235e-18
1.04976e-118
1.00409e-26
9.66965e-14
1.54422e-37
-6.15057e-38
7.3829e-15
1.01507e-42
-5.82395e-51
4.9818e-41
3.54359e-25
2.38959e-125
3.36127e-73
1.30175e-213
-8.35453e-101
-1.96543e-158
1.52118e-41
9.00171e-39
1.32849e-26
-3.1298e-43
13.8172
-1.13177e-20
31.0976
9.92893e-37
4.04088e-10
9.93958
2.69928e-16
23.0517
4.07624e-71
7.64481e-43
2.28401e-48
1.01102e-53
6.27509e-46
3.06058e-102
1.58387e-47
2.94676e-92
1.3675e-159
-2.83913e-52
3.70839
1.25734e-43
4.08994e-23
3.44721e-46
3.20958e-85
1.42143e-38
1.07437e-38
-1.82152e-109
1.51542e-44
6.65935e-83
1.22126e-24
3.33649e-40
8.19204e-42
-9.9625e-43
0.283556
3.09965e-08
4.10847e-22
3.47604e-51
69.3512
3.45846e-45
-7.20993e-56
7.48644e-29
-1.75937e-29
-1.63568e-59
4.23574e-17
2.31521e-138
-2.02282e-37
-8.38592e-28
2.24479e-43
-8.02894e-45
1.79851e-75
1.01509e-40
-3.15126e-34
2.35098e-69
2.24206e-28
1.13812e-48
2.84341e-62
-3.20765e-136
1.79923e-54
1.1855e-39
4.35335e-81
4.4343e-50
3.92469e-62
-1.02567e-102
-7.95602e-34
-5.92168e-81
4.7741e-16
9.09384e-47
-8.55878e-65
-7.15633e-144
-1.22182e-99
1.08119e-15
1.76056e-40
1.19068e-202
9.30503e-46
7.44883
8.06306e-24
5.01327e-77
2.26658e-50
0.0932237
0.704437
36.8852
7.70409e-88
1.43676e-89
-7.89301e-107
1.95824e-61
7.49373e-30
0.00187516
0.0215878
4.1673e-13
2.1999e-20
8.70588e-76
2.54577e-154
1.94146e-151
-1.18423e-27
-6.71641e-76
1.46594e-25
-1.43002e-90
4.82735e-06
-1.22805e-87
8.43464e-44
2.78182e-12
-2.86587e-42
2.27105e-21
-5.88692e-112
1.27667e-42
1.54286e-168
2.33808e-18
8.07672e-21
3.36512e-68
-3.56532e-160
1.37422e-68
-7.80071e-26
1.96278e-104
-3.28339e-45
0.0888754
4.33498e-178
6.6389e-67
-1.33223e-38
-4.32396e-39
3.36976e-48
-4.93619e-118
-2.16989e-104
1.65726e-103
-1.40407e-203
-1.93725e-151
3.2733e-63
3.15337e-28
7.59232e-169
2.86858e-74
-7.58059e-116
150.444
-1.60881e-28
3.7429e-102
3.26871e-211
2.27869e-24
8.93106e-45
2.4382e-21
-5.22937e-47
7.4027e-45
6.25735e-162
-2.77209e-101
5.24774e-17
4.67659e-224
9.43445e-46
8.16382e-29
6.42916e-52
1.68791e-146
5.46522e-40
-2.98833e-197
2.62007e-60
1.77816e-62
7.19467e-103
2.13158e-08
2.87978e-55
3.40179e-66
1.07562e-63
-4.13747e-39
-2.84576e-50
9.97613e-174
4.89636e-208
1.90651e-81
6.03808e-29
9.03283e-42
2.39413e-67
9.51483e-63