/*--------------------------------*- C++ -*----------------------------------*\
  =========                 |
  \\      /  F ield         | OpenFOAM: The Open Source CFD Toolbox
   \\    /   O peration     | Website:  https://openfoam.org
    \\  /    A nd           | Version:  7
     \\/     M anipulation  |
\*---------------------------------------------------------------------------*/
FoamFile
{
    version     2.0;
    format      ascii;
    class       volScalarField;
    location    "15";
    object      p;
}
// * * * * * * * * * * * * * * * * * * * * * * * * * * * * * * * * * * * * * //

dimensions      [0 2 -2 0 0 0 0];

internalField   nonuniform List<scalar> 
607
(
0.00194462
0.00192885
0.00191467
0.00190369
0.00189498
0.00188707
0.00187898
0.00187041
0.00186148
0.00185243
0.00184341
0.00183448
0.00182562
0.0018168
0.00180799
0.00179918
0.00179037
0.00178157
0.00177279
0.00176403
0.00175528
0.00194325
0.00192734
0.00191314
0.0019022
0.00189352
0.0018856
0.00187747
0.00186885
0.00185987
0.00185077
0.0018417
0.00183272
0.00182381
0.00181494
0.00180607
0.0017972
0.00178833
0.00177948
0.00177063
0.0017618
0.00175299
0.00194156
0.00192532
0.00191095
0.00189992
0.00189115
0.00188313
0.00187487
0.0018661
0.00185697
0.00184772
0.00183851
0.00182939
0.00182035
0.00181133
0.00180233
0.00179332
0.00178432
0.00177532
0.00176634
0.00175737
0.00174842
0.0019377
0.00192105
0.00190648
0.00189534
0.00188648
0.00187834
0.00186993
0.00186099
0.00185168
0.00184226
0.00183288
0.0018236
0.00181439
0.00180522
0.00179605
0.00178688
0.00177771
0.00176855
0.0017594
0.00175027
0.00174116
0.00193189
0.00191479
0.00189998
0.00188874
0.0018798
0.00187152
0.00186293
0.0018538
0.00184429
0.00183466
0.0018251
0.00181562
0.00180622
0.00179686
0.00178749
0.00177813
0.00176876
0.00175941
0.00175006
0.00174074
0.00173143
0.0019241
0.00190646
0.0018914
0.00188004
0.00187099
0.00186257
0.00185378
0.0018444
0.00183465
0.0018248
0.001815
0.00180531
0.00179569
0.0017861
0.00177651
0.00176692
0.00175732
0.00174774
0.00173817
0.00172861
0.00171908
0.0019144
0.00189616
0.00188081
0.00186932
0.00186016
0.00185155
0.00184252
0.00183288
0.00182285
0.00181273
0.00180268
0.00179273
0.00178286
0.00177301
0.00176316
0.00175331
0.00174345
0.00173361
0.00172377
0.00171396
0.00170416
0.00190283
0.00188392
0.00186825
0.00185662
0.00184732
0.00183851
0.0018292
0.00181925
0.0018089
0.00179847
0.00178813
0.00177789
0.00176772
0.00175758
0.00174743
0.00173728
0.00172713
0.00171698
0.00170685
0.00169673
0.00168663
0.00188943
0.00186979
0.00185378
0.00184199
0.00183252
0.00182347
0.00181384
0.00180353
0.00179282
0.00178204
0.00177136
0.00176079
0.00175029
0.00173981
0.00172933
0.00171884
0.00170834
0.00169786
0.00168738
0.00167693
0.00166649
0.00187425
0.0018538
0.00183743
0.00182546
0.00181581
0.00180646
0.00179646
0.00178573
0.00177462
0.00176344
0.00175237
0.00174143
0.00173055
0.00171969
0.00170883
0.00169795
0.00168707
0.0016762
0.00166534
0.00165449
0.00164367
0.00185732
0.00183601
0.00181924
0.00180707
0.00179719
0.00178751
0.00177708
0.00176588
0.00175429
0.00174266
0.00173116
0.00171978
0.00170848
0.00169719
0.00168589
0.00167457
0.00166325
0.00165194
0.00164064
0.00162936
0.0016181
0.0018387
0.00181646
0.00179927
0.00178688
0.00177672
0.00176664
0.0017557
0.00174395
0.00173183
0.00171969
0.00170769
0.00169583
0.00168403
0.00167225
0.00166045
0.00164863
0.00163682
0.00162501
0.00161322
0.00160144
0.00158969
0.00181845
0.00179521
0.00177758
0.00176491
0.00175443
0.00174386
0.00173233
0.00171995
0.00170721
0.00169448
0.00168192
0.00166949
0.00165714
0.00164479
0.00163242
0.00162004
0.00160766
0.00159528
0.00158293
0.00157059
0.00155828
0.00179664
0.00177234
0.00175421
0.00174123
0.00173032
0.00171917
0.00170694
0.00169384
0.00168038
0.00166698
0.00165376
0.00164069
0.00162769
0.00161469
0.00160167
0.00158864
0.00157561
0.00156259
0.00154959
0.00153662
0.00152366
0.00174793
0.00172924
0.00171586
0.00170443
0.00169256
0.0016795
0.00166554
0.00165126
0.00163706
0.00162309
0.00160927
0.00159552
0.00158177
0.001568
0.00155421
0.00154043
0.00152668
0.00151295
0.00149924
0.00148556
0.001722
0.00170267
0.00168876
0.00167665
0.00166389
0.00164983
0.00163485
0.00161959
0.00160448
0.00158961
0.00157492
0.00156029
0.00154566
0.00153102
0.00151637
0.00150173
0.00148713
0.00147256
0.00145803
0.00144352
0.00169464
0.00167455
0.00165996
0.00164696
0.0016331
0.0016178
0.0016016
0.00158518
0.00156897
0.00155305
0.00153732
0.00152166
0.001506
0.00149033
0.00147467
0.00145904
0.00144345
0.00142792
0.00141243
0.00139698
0.00166475
0.00164374
0.00162828
0.00161415
0.00159889
0.00158209
0.00156443
0.00154666
0.00152918
0.00151205
0.00149513
0.0014783
0.00146148
0.00144466
0.00142787
0.00141114
0.00139448
0.00137788
0.00136135
0.00134487
0.00163324
0.00161116
0.00159456
0.00157886
0.0015617
0.00154292
0.00152337
0.00150388
0.00148483
0.0014662
0.00144782
0.00142953
0.00141128
0.00139308
0.00137495
0.00135691
0.00133898
0.00132116
0.00130343
0.00128578
0.0015922
0.0015699
0.00155254
0.00153525
0.00151601
0.00149513
0.00147376
0.00145273
0.00143229
0.00141231
0.00139257
0.0013729
0.00135328
0.00133374
0.00131431
0.00129502
0.00127586
0.00125683
0.00123791
0.0012191
0.0012004
0.00153744
0.00151541
0.00149642
0.00147604
0.00145345
0.00142981
0.00140642
0.00138388
0.00136213
0.00134084
0.00131977
0.0012988
0.00127797
0.0012573
0.00123682
0.00121654
0.00119643
0.00117647
0.00115666
0.00113698
0.00111742
0.00148403
0.00146342
0.00144103
0.00141549
0.00138845
0.00136181
0.00133647
0.00131229
0.00128879
0.0012656
0.0012426
0.00121981
0.00119732
0.00117515
0.00115329
0.00113171
0.00111037
0.00108924
0.00106831
0.00104757
0.00102701
0.00132756
0.00131568
0.00129604
0.00127299
0.00125018
0.00122886
0.00120855
0.00118834
0.00116771
0.00114661
0.00112525
0.00110384
0.00108252
0.0010613
0.00104017
0.00101911
0.000998128
0.000977229
0.000956427
0.000935729
0.000915138
0.00105566
0.00105192
0.00104081
0.00102913
0.00101928
0.00101053
0.00100133
0.000990698
0.000978493
0.000965035
0.000950706
0.000935753
0.000920273
0.000904291
0.000887822
0.000870899
0.000853574
0.000835902
0.000817936
0.000799718
0.000781283
0.000882199
0.000874144
0.000862536
0.000852077
0.000843689
0.0008362
0.000828217
0.000819022
0.000808574
0.000797149
0.000785023
0.00077234
0.000759131
0.000745384
0.000731092
0.000716275
0.000700969
0.000685216
0.000669057
0.000652525
0.000635651
0.000841454
0.000824649
0.000804974
0.00078695
0.00077157
0.000757759
0.000744143
0.000729955
0.000715079
0.000699717
0.000684084
0.000668275
0.000652281
0.000636053
0.000619549
0.000602754
0.000585671
0.000568315
0.0005507
0.000532837
0.000514738
0.000794619
0.000771267
0.000745411
0.00072184
0.000701452
0.000682972
0.000664893
0.000646416
0.000627454
0.000608245
0.000589021
0.000569873
0.000550775
0.000531657
0.000512457
0.000493145
0.000473712
0.000454157
0.000434481
0.000414685
0.000394764
0.0007508
0.000721904
0.000691292
0.000663561
0.000639221
0.000616736
0.000594551
0.000571949
0.000548943
0.000525838
0.00050288
0.000480151
0.000457611
0.000435178
0.000412791
0.000390418
0.00036805
0.000345684
0.000323317
0.00030094
0.000278545
0.000697867
0.000664814
0.000630726
0.000599874
0.000572394
0.000546578
0.000520893
0.000494729
0.000468196
0.000441637
0.0004153
0.000389255
0.00036345
0.000337808
0.000312273
0.00028682
0.000261446
0.00023615
0.000210927
0.000185771
0.000160669
9.25144e-05
6.44983e-05
3.65867e-05
)
;

boundaryField
{
    inlet
    {
        type            zeroGradient;
    }
    outlet
    {
        type            fixedValue;
        value           nonuniform 0();
    }
    cylinder
    {
        type            zeroGradient;
    }
    top
    {
        type            symmetryPlane;
    }
    bottom
    {
        type            symmetryPlane;
    }
    defaultFaces
    {
        type            empty;
    }
    procBoundary2to1
    {
        type            processor;
        value           nonuniform List<scalar> 
28
(
0.001956
0.00195493
0.00195372
0.00195044
0.00194531
0.00193832
0.00192953
0.00191899
0.00190676
0.00189288
0.00187738
0.00186033
0.00184179
0.00182186
0.00177338
0.00177338
0.0017487
0.00172276
0.00169447
0.00166478
0.00162465
0.00156927
0.0015092
0.00133146
0.00104381
0.000879281
0.000848602
0.00080792
)
;
    }
    procBoundary2to3
    {
        type            processor;
        value           nonuniform List<scalar> 
31
(
0.00174655
0.00174419
0.00173949
0.00173207
0.00172214
0.00170956
0.00169437
0.00167655
0.00165606
0.00163285
0.00160685
0.00157794
0.00154598
0.00151073
0.00147191
0.00142905
0.00138158
0.00132845
0.00126822
0.00126822
0.0011818
0.001098
0.00100661
0.000894656
0.000762661
0.000618461
0.000496412
0.000374717
0.000256123
0.000135611
8.76953e-06
)
;
    }
    procBoundary2to9
    {
        type            processor;
        value           nonuniform List<scalar> 2(0.000769961 0.000721696);
    }
    procBoundary2to10
    {
        type            processor;
        value           nonuniform List<scalar> 
22
(
0.000635903
0.000598966
0.000561761
0.000528118
0.000497775
0.000468873
0.000439928
0.000410447
0.000380624
0.00035083
0.000321305
0.000292099
0.000263155
0.000234396
0.000205775
0.000177275
0.000148898
0.000120645
0.000120645
-3.3286e-05
-6.42777e-05
-9.51288e-05
)
;
    }
}


// ************************************************************************* //
