/*--------------------------------*- C++ -*----------------------------------*\
  =========                 |
  \\      /  F ield         | OpenFOAM: The Open Source CFD Toolbox
   \\    /   O peration     | Website:  https://openfoam.org
    \\  /    A nd           | Version:  7
     \\/     M anipulation  |
\*---------------------------------------------------------------------------*/
FoamFile
{
    version     2.0;
    format      ascii;
    class       surfaceScalarField;
    location    "32";
    object      phi;
}
// * * * * * * * * * * * * * * * * * * * * * * * * * * * * * * * * * * * * * //

dimensions      [0 3 -1 0 0 0 0];

internalField   nonuniform List<scalar> 
82640
(
-7.10276e-05
6.98829e-05
1.14464e-06
-0.000158953
8.63504e-05
1.57498e-06
-0.000258338
9.75643e-05
1.82125e-06
-0.000355781
9.55279e-05
1.91491e-06
-0.000457654
0.000100069
1.80406e-06
-0.000560711
0.000101796
1.26103e-06
-0.000666586
0.000105717
1.57791e-07
-0.000774389
0.000109381
-1.57767e-06
-0.00088396
0.000113472
-3.90181e-06
-0.000994533
0.000117194
-6.62113e-06
-0.00110511
0.000119952
-9.37706e-06
-0.00121392
0.000120465
-1.165e-05
-0.00131947
0.00011839
-1.28389e-05
-0.00141761
0.000110459
-1.2328e-05
-0.00150703
9.91003e-05
-9.67737e-06
-0.00157953
7.71863e-05
-4.68367e-06
-0.00163465
5.28472e-05
2.27589e-06
-0.00166025
1.49843e-05
1.06104e-05
-0.00165325
-2.57392e-05
1.87361e-05
-0.0016077
-7.08458e-05
2.53051e-05
-0.00150016
-0.000136392
2.88434e-05
-0.00135909
-0.000169018
2.79543e-05
-0.00111549
-0.000266255
2.26528e-05
-0.000838268
-0.000290245
1.30224e-05
-0.000404392
1.30297e-06
-0.000435178
-7.0811e-05
0.000140694
-0.000158309
0.000173848
-0.000257052
0.000196307
-0.000353538
0.000192015
-0.000454047
0.000200577
-0.000555219
0.000202969
-0.000658544
0.000209042
-0.000762964
0.000213801
-0.000868106
0.000218614
-0.000972951
0.00022204
-0.00107619
0.000223188
-0.00117568
0.000219959
-0.0012695
0.000212209
-0.00135298
0.000193933
-0.00142429
0.000170416
-0.00147461
0.000127504
-0.00150293
8.11678e-05
-0.00149641
8.46601e-06
-0.00145213
-7.00193e-05
-0.00136157
-0.000161403
-0.0012066
-0.00029137
-0.00100499
-0.000370625
-0.000704627
-0.000566618
-0.000355298
-0.000639574
-0.000872115
0.000112425
-7.0377e-05
0.000211071
-0.000157018
0.000260488
-0.000254474
0.000293764
-0.00034905
0.000286591
-0.000446836
0.000298363
-0.000544254
0.000300387
-0.000642508
0.000307296
-0.000740219
0.000311513
-0.000836596
0.000314991
-0.000930141
0.000315585
-0.00101895
0.000311992
-0.0011002
0.000301212
-0.00117117
0.000283182
-0.00122629
0.000249055
-0.00126281
0.000206929
-0.00127085
0.000135543
-0.00124847
5.87902e-05
-0.00118176
-5.82417e-05
-0.00106862
-0.000183162
-0.000894818
-0.000335203
-0.000655261
-0.000530926
-0.000342602
-0.000683284
5.13863e-05
-0.000960606
0.000524915
-0.0011131
-0.0014566
0.0011094
-6.97297e-05
0.000280801
-0.000155088
0.000345847
-0.000250621
0.000389297
-0.00034234
0.00037831
-0.000436058
0.000392081
-0.000527877
0.000392206
-0.000618584
0.000398003
-0.000706336
0.000399265
-0.000789748
0.000398403
-0.000866648
0.000392485
-0.000934309
0.000379653
-0.000989013
0.000355916
-0.00102698
0.000321148
-0.00104154
0.000263621
-0.00102875
0.000194134
-0.000977675
8.44686e-05
-0.000885462
-3.34228e-05
-0.000736655
-0.000207048
-0.000532366
-0.000387451
-0.000247261
-0.000620309
9.539e-05
-0.000873577
0.000543708
-0.0011316
0.00107273
-0.00148963
0.00167411
-0.00171449
-0.00217928
0.00239679
-6.88752e-05
0.000349676
-0.000152533
0.000429505
-0.000245512
0.000482276
-0.00033344
0.000466238
-0.000421766
0.000480406
-0.000506175
0.000476616
-0.000586919
0.000478747
-0.000661568
0.000473913
-0.000727995
0.000464831
-0.000783213
0.000447702
-0.000823513
0.000419953
-0.000844154
0.000376557
-0.00084016
0.000317154
-0.000803816
0.000227277
-0.000729862
0.00012018
-0.000606671
-3.87224e-05
-0.000430829
-0.000209264
-0.000185013
-0.000452864
0.000122714
-0.000695177
0.000529242
-0.00102684
0.0009996
-0.00134393
0.00157562
-0.00170763
0.00223965
-0.00215365
0.00297022
-0.00244506
-0.00302559
0.00381653
-6.78218e-05
0.000417498
-0.000149369
0.000511052
-0.000239174
0.00057208
-0.000322393
0.000549457
-0.000404025
0.000562038
-0.000479255
0.000551846
-0.00054769
0.000547182
-0.000606214
0.000532436
-0.000651847
0.000510463
-0.000680688
0.000476543
-0.000687959
0.000427225
-0.000667889
0.000356487
-0.00061426
0.000263524
-0.000518562
0.00013158
-0.000374262
-2.41202e-05
-0.000169791
-0.000243194
9.87188e-05
-0.000477774
0.000449175
-0.00080332
0.000869202
-0.0011152
0.00139499
-0.00155262
0.00198993
-0.00193888
0.00268868
-0.00240637
0.00346975
-0.00293472
0.00431192
-0.00328723
-0.00395864
0.00524497
-6.65795e-05
0.000484077
-0.000145616
0.000590089
-0.000231639
0.000658103
-0.000309248
0.000627066
-0.000382912
0.000635702
-0.000447236
0.00061617
-0.000501091
0.000601037
-0.000540594
0.00057194
-0.000561833
0.000531702
-0.000559951
0.00047466
-0.000529067
0.000396341
-0.000462467
0.000289888
-0.000352736
0.000153793
-0.000191002
-3.01541e-05
3.07186e-05
-0.000245841
0.000322497
-0.000534973
0.000687828
-0.000843105
0.00114503
-0.00126052
0.00167684
-0.00164701
0.0023151
-0.00219088
0.00302421
-0.00264799
0.00382689
-0.00320906
0.0046949
-0.00380273
0.00562022
-0.00421255
-0.00493129
0.00659287
-6.51603e-05
0.000549237
-0.000141298
0.000666227
-0.000222945
0.00073975
-0.000294061
0.000698182
-0.000358508
0.000700149
-0.000410243
0.000667905
-0.000447315
0.00063811
-0.00046502
0.000589645
-0.00045846
0.000525141
-0.000421817
0.000438018
-0.000348134
0.000322658
-0.000229917
0.000171671
-5.86204e-05
-1.75038e-05
0.000174334
-0.000263109
0.000477297
-0.000548804
0.000860417
-0.000918093
0.00132392
-0.00130661
0.00188407
-0.00182067
0.00252261
-0.00228555
0.00325818
-0.00292646
0.00406228
-0.00345208
0.00494227
-0.00408905
0.00586007
-0.00472053
0.00682957
-0.00518206
-0.00589559
0.00779387
-6.35776e-05
0.000612815
-0.000136441
0.000739091
-0.000213132
0.000816441
-0.000276892
0.000761942
-0.000330897
0.000754153
-0.000368393
0.000705402
-0.000386539
0.000656255
-0.000379762
0.000582869
-0.000342153
0.000487532
-0.000266968
0.000362834
-0.000146244
0.000201934
2.80114e-05
-2.58537e-06
0.000265226
-0.000254718
0.000573582
-0.000571465
0.000960611
-0.000935832
0.00143515
-0.00139263
0.00199461
-0.00186607
0.00264909
-0.00247514
0.0033823
-0.00301876
0.00419463
-0.00373878
0.00506573
-0.00432318
0.00598889
-0.00501222
0.0069176
-0.00564924
0.00788529
-0.00614974
-0.00681013
0.00879983
-6.18465e-05
0.000674661
-0.000131076
0.00080832
-0.000202245
0.00088761
-0.000257802
0.000817498
-0.000300157
0.000796509
-0.000321792
0.000727037
-0.000318902
0.000653364
-0.000285022
0.000548989
-0.000213223
0.000415733
-9.59035e-05
0.000245514
7.57807e-05
3.02499e-05
0.000310146
-0.00023695
0.000616706
-0.000561278
0.00100293
-0.000957693
0.00147451
-0.00140741
0.00203763
-0.00195575
0.00268641
-0.00251486
0.00342182
-0.00321055
0.00422964
-0.00382659
0.00509279
-0.00460193
0.00599654
-0.00522693
0.00692387
-0.00593955
0.00782687
-0.00655224
0.0087483
-0.00707118
-0.00764633
0.0095845
-5.99836e-05
0.000734645
-0.000125235
0.000873571
-0.00019033
0.000952705
-0.000236849
0.000864018
-0.000266359
0.000826019
-0.000270516
0.000731193
-0.000244491
0.000627339
-0.000180907
0.000485405
-7.18351e-05
0.000306661
9.10816e-05
8.25975e-05
0.000317302
-0.000195971
0.000615146
-0.000534794
0.000993513
-0.000939646
0.00145839
-0.00142257
0.00201227
-0.00196129
0.0026571
-0.00260057
0.00338307
-0.00324083
0.00418064
-0.00400812
0.00503601
-0.00468196
0.00591936
-0.00548528
0.00681895
-0.00612652
0.00771268
-0.00683328
0.00855976
-0.00739932
0.00940226
-0.00791368
-0.00839215
0.0101481
-5.80066e-05
0.000792652
-0.00011895
0.000934514
-0.000177431
0.00101119
-0.00021409
0.000900676
-0.000229555
0.000841484
-0.000214604
0.000716242
-0.000163321
0.000576056
-6.74127e-05
0.000389497
8.1994e-05
0.000157254
0.000293855
-0.000129263
0.000577842
-0.000479958
0.000941805
-0.000898757
0.00139292
-0.00139076
0.0019347
-0.00196435
0.00256511
-0.0025917
0.00327991
-0.00331537
0.00406495
-0.00402587
0.00490058
-0.00484375
0.00577205
-0.00555343
0.0066434
-0.00635662
0.00750496
-0.00698808
0.00833567
-0.00766399
0.00910735
-0.00817101
0.00985648
-0.00866281
-0.0090514
0.0105157
-5.59341e-05
0.000848586
-0.000112257
0.000990838
-0.000163596
0.00106252
-0.000189569
0.00092665
-0.000189772
0.000841687
-0.000154044
0.000680514
-7.532e-05
0.000497333
5.55903e-05
0.000258587
0.000248385
-3.55406e-05
0.000512359
-0.000393237
0.000856785
-0.000824384
0.00128832
-0.00133029
0.00181105
-0.00191349
0.00242457
-0.00257787
0.00312126
-0.00328839
0.00388909
-0.0040832
0.00470981
-0.00484659
0.00555571
-0.00568966
0.0064116
-0.00640932
0.00724205
-0.00718708
0.00804039
-0.00778641
0.00879179
-0.00841539
0.00948184
-0.00886106
0.010141
-0.00932196
-0.00963861
0.0107282
-5.37856e-05
0.000902371
-0.000105193
0.00104224
-0.000148864
0.0011062
-0.000163321
0.000941108
-0.000147007
0.000825373
-8.87634e-05
0.00062227
1.96849e-05
0.000388884
0.000188346
8.99263e-05
0.000427536
-0.000274731
0.000746453
-0.000712154
0.00115309
-0.00123102
0.00165181
-0.00182901
0.00224215
-0.00250383
0.00291809
-0.00325382
0.00366586
-0.00403616
0.0044652
-0.00488255
0.00529506
-0.00567644
0.00612338
-0.00651798
0.00693658
-0.00722252
0.00770538
-0.00795587
0.00842763
-0.00850867
0.00909736
-0.00908512
0.00971153
-0.00947523
0.0102958
-0.00990624
-0.0101722
0.0108294
-5.1581e-05
0.000953952
-9.77914e-05
0.00108845
-0.000133273
0.00114168
-0.000135362
0.000943197
-0.000101216
0.000791226
-1.86302e-05
0.000539684
0.000121924
0.00024833
0.000331175
-0.000119324
0.000619615
-0.000563171
0.000995665
-0.0010882
0.00146486
-0.00170021
0.0020278
-0.00239196
0.00267806
-0.00315409
0.00340266
-0.00397841
0.00418189
-0.00481539
0.00498866
-0.00568932
0.00580145
-0.00648923
0.00658849
-0.00730502
0.00734058
-0.00797461
0.00803784
-0.00865313
0.0086835
-0.00915434
0.00927992
-0.00968153
0.00983152
-0.0100268
0.0103601
-0.0104348
-0.0106692
0.0108571
-4.93404e-05
0.00100329
-9.00883e-05
0.0011292
-0.000116851
0.00116844
-0.000105683
0.000932029
-5.23026e-05
0.000737846
5.66228e-05
0.000430759
0.000231785
7.3167e-05
0.000484427
-0.000371966
0.00082459
-0.000903334
0.00125887
-0.00152249
0.00178889
-0.00223023
0.00240981
-0.00301288
0.00310821
-0.00385249
0.0038638
-0.004734
0.00465228
-0.00560387
0.00544284
-0.00647988
0.00621659
-0.00726297
0.00694633
-0.00803476
0.00762931
-0.00865759
0.00825557
-0.00927939
0.00883319
-0.00973196
0.00937032
-0.0102187
0.00987494
-0.0105315
0.0103654
-0.0109252
-0.0111429
0.010839
-4.70841e-05
0.00105038
-8.2116e-05
0.00116423
-9.96181e-05
0.00118594
-7.42511e-05
0.000906662
1.38621e-07
0.000663456
0.000137267
0.00029363
0.000349665
-0.000139231
0.000648363
-0.000670664
0.00104201
-0.00129698
0.00153395
-0.00201443
0.00212029
-0.00281656
0.00278927
-0.00368186
0.0035203
-0.00458352
0.00428684
-0.00550054
0.00506257
-0.0063796
0.0058171
-0.00723441
0.00653701
-0.00798288
0.00720245
-0.0087002
0.00781771
-0.00927285
0.00838096
-0.00984264
0.00890353
-0.0102545
0.00939636
-0.0107115
0.00986811
-0.0110032
0.0103338
-0.011391
-0.0116023
0.0107932
-4.48316e-05
0.00109521
-7.39045e-05
0.00119331
-8.15779e-05
0.00119362
-4.10009e-05
0.000866085
5.55388e-05
0.000566916
0.000223683
0.000125486
0.000475976
-0.000391523
0.000823007
-0.0010177
0.0012707
-0.00174467
0.00181746
-0.00256119
0.00245238
-0.00345148
0.00315604
-0.00438551
0.00390168
-0.00532916
0.00465915
-0.00625801
0.00540336
-0.00712381
0.00610831
-0.00793936
0.00676778
-0.00864235
0.00737
-0.00930241
0.00792534
-0.00982819
0.0084371
-0.0103544
0.00891816
-0.0107356
0.00937974
-0.0111731
0.00982956
-0.011453
0.0102798
-0.0118412
-0.0120531
0.0107306
-4.26018e-05
0.00113781
-6.54792e-05
0.00121618
-6.27182e-05
0.00119086
-5.88542e-06
0.000809252
0.00011496
0.00044607
0.000316312
-7.5866e-05
0.00061104
-0.000686251
0.00100794
-0.0014146
0.00150853
-0.00224525
0.00210449
-0.00315716
0.00277697
-0.00412396
0.0034994
-0.00510794
0.00424121
-0.00607097
0.00497214
-0.00698895
0.00567157
-0.00782325
0.00632055
-0.00858834
0.00692019
-0.009242
0.00746579
-0.00984801
0.00797197
-0.0103344
0.0084441
-0.0108265
0.00889539
-0.0111869
0.00933572
-0.0116134
0.00977128
-0.0118886
0.010212
-0.0122819
-0.0124985
0.0106575
-4.04122e-05
0.00117822
-5.68603e-05
0.00123263
-4.3003e-05
0.001177
3.14871e-05
0.000734762
0.000178497
0.000299061
0.000415596
-0.000312966
0.000754967
-0.00102562
0.00120209
-0.00186172
0.00175214
-0.0027953
0.00238871
-0.00379373
0.00308511
-0.00482036
0.00380954
-0.00583238
0.00453089
-0.00679232
0.00522243
-0.00768048
0.00587015
-0.00847097
0.00646309
-0.00918129
0.00700849
-0.0097874
0.00750676
-0.0103463
0.00797475
-0.0108024
0.00841758
-0.0112694
0.00884823
-0.0116175
0.0092743
-0.0120395
0.0097006
-0.0123149
0.0101352
-0.0127165
-0.0129405
0.0105771
-3.82787e-05
0.0012165
-4.80604e-05
0.00124241
-2.23668e-05
0.0011513
7.11209e-05
0.000641274
0.000246546
0.000123636
0.000521919
-0.000588338
0.000907483
-0.00141119
0.00140351
-0.00235775
0.001997
-0.0033888
0.00266293
-0.00445965
0.00336821
-0.00552564
0.00407894
-0.00654311
0.00476693
-0.00748032
0.00541165
-0.00832519
0.00600649
-0.00906582
0.00654782
-0.00972262
0.00704707
-0.0102866
0.00750769
-0.0108069
0.00794707
-0.0112417
0.00836872
-0.011691
0.00878532
-0.0120341
0.0092017
-0.0124559
0.0096218
-0.012735
0.0100521
-0.0131469
-0.0133797
0.0104914
-3.62151e-05
0.00125272
-3.90836e-05
0.00124528
-4.49451e-07
0.00111267
0.00011334
0.000527485
0.000319542
-8.25665e-05
0.000635509
-0.000904305
0.00106776
-0.00184343
0.00160924
-0.00289923
0.00223757
-0.00401713
0.0029198
-0.00514188
0.00361919
-0.00622503
0.00430333
-0.00722725
0.00494972
-0.00812671
0.00554532
-0.00892079
0.00609036
-0.00961085
0.00658691
-0.0102192
0.00704864
-0.0107484
0.00748031
-0.0112386
0.00789871
-0.0116601
0.00830514
-0.0120974
0.00871216
-0.0124411
0.00912161
-0.0128653
0.00953728
-0.0131507
0.0099644
-0.013574
-0.0138167
0.0104013
-3.4232e-05
0.00128695
-2.99255e-05
0.00124098
2.20093e-05
0.00106074
0.000158481
0.000391012
0.00039791
-0.000321995
0.000756312
-0.00126271
0.00123424
-0.00232136
0.0018154
-0.00348039
0.00246783
-0.00466955
0.0031528
-0.00582685
0.00383341
-0.00690564
0.00448189
-0.00787573
0.00508302
-0.00872784
0.00563119
-0.00946896
0.00613198
-0.0101116
0.00659133
-0.0106785
0.00702346
-0.0111805
0.00743334
-0.0116485
0.0078364
-0.0120632
0.00823177
-0.0124928
0.00863209
-0.0128414
0.00903618
-0.0132694
0.00944839
-0.0135629
0.0098727
-0.0139983
-0.0142512
0.0103073
-3.23368e-05
0.00131929
-2.05655e-05
0.00122921
4.60274e-05
0.000994143
0.000206933
0.000230106
0.000481997
-0.000597058
0.000883854
-0.00166456
0.00140459
-0.0028421
0.00201742
-0.00409322
0.00268197
-0.00533411
0.00335703
-0.00650191
0.00400894
-0.00755755
0.00461676
-0.00848355
0.00517277
-0.00928385
0.00567771
-0.0099739
0.00614081
-0.0105747
0.00657014
-0.0111079
0.00697936
-0.0115897
0.00737291
-0.012042
0.00776461
-0.0124549
0.00815173
-0.0128799
0.00854709
-0.0132368
0.00894657
-0.0136689
0.00935588
-0.0139722
0.00977746
-0.0144199
-0.0146833
0.0102096
-3.05325e-05
0.00134982
-1.09779e-05
0.00120965
7.15526e-05
0.000911612
0.000259109
4.25499e-05
0.000571991
-0.00090994
0.00101711
-0.00210968
0.00157572
-0.0034007
0.00221044
-0.00472794
0.00287513
-0.0059988
0.00352969
-0.00715647
0.00414644
-0.00817429
0.00471214
-0.00904925
0.00522578
-0.00979749
0.00569295
-0.0104411
0.00612484
-0.0110066
0.0065304
-0.0115134
0.00692197
-0.0119813
0.00730324
-0.0124233
0.00768625
-0.0128379
0.00806694
-0.0132606
0.00845826
-0.0136281
0.00885347
-0.0140641
0.00926016
-0.0143789
0.00967885
-0.0148386
-0.0151128
0.0101083
-2.88174e-05
0.00137863
-1.26575e-06
0.0011821
9.88296e-05
0.000811517
0.000315418
-0.000174039
0.000667812
-0.00126233
0.00115444
-0.00259632
0.00174401
-0.00399027
0.00238992
-0.00537385
0.00304383
-0.00665271
0.00367008
-0.00778272
0.00424849
-0.00875271
0.00477329
-0.00957405
0.00524882
-0.010273
0.00568394
-0.0108762
0.00609048
-0.0114132
0.00647736
-0.0119003
0.00685527
-0.0123592
0.00722708
-0.0127951
0.00760312
-0.0132139
0.00797852
-0.013636
0.00836624
-0.0140159
0.00875725
-0.0144551
0.00916144
-0.0147831
0.00957696
-0.0152541
-0.0155393
0.0100035
-2.71826e-05
0.00140582
9.23135e-06
0.00114569
0.000128156
0.000692592
0.000376217
-0.0004221
0.000769011
-0.00165513
0.00129361
-0.00312092
0.00190565
-0.00460231
0.00255212
-0.00602033
0.00318629
-0.00728687
0.00377931
-0.00837574
0.00431892
-0.00929232
0.00480576
-0.0100609
0.00524806
-0.0107153
0.00565651
-0.0112846
0.00604264
-0.0117993
0.00641482
-0.0122725
0.00678195
-0.0127263
0.00714622
-0.0131594
0.00751636
-0.0135841
0.00788714
-0.0140068
0.00827134
-0.0144
0.00865813
-0.0148419
0.00905984
-0.0151848
0.0094718
-0.0156661
-0.0159626
0.00989516
-2.5615e-05
0.00143143
2.00874e-05
0.00109998
0.000159863
0.000552817
0.000441741
-0.000703978
0.000874685
-0.00208807
0.00143192
-0.00367815
0.00205704
-0.00522744
0.00269442
-0.00665771
0.00330226
-0.00789471
0.00385977
-0.00893325
0.00436204
-0.00979459
0.00481481
-0.0105137
0.00522873
-0.0111292
0.00561524
-0.0116712
0.00598496
-0.012169
0.00634544
-0.012633
0.0067038
-0.0130847
0.00706179
-0.0135174
0.00742664
-0.0139489
0.00779318
-0.0143733
0.00817374
-0.0147806
0.00855627
-0.0152244
0.00895541
-0.0155839
0.00936336
-0.016074
-0.0163827
0.00978341
-2.40924e-05
0.00145552
3.1569e-05
0.00104432
0.000194304
0.000390082
0.000512024
-0.0010217
0.000983461
-0.00255951
0.00156643
-0.00426111
0.00219517
-0.00585618
0.00281545
-0.00727799
0.00339278
-0.00847204
0.00391459
-0.00945507
0.00438223
-0.0102622
0.0048051
-0.0109365
0.00519512
-0.0115193
0.00556366
-0.0120397
0.00592009
-0.0125255
0.00627103
-0.0129839
0.006622
-0.0134356
0.00697451
-0.0138699
0.00733437
-0.0143088
0.00769683
-0.0147358
0.00807353
-0.0151573
0.00845175
-0.0156027
0.00884814
-0.0159803
0.00925161
-0.0164775
-0.0167993
0.00966823
-2.25834e-05
0.00147811
4.38793e-05
0.000977859
0.000231829
0.000202132
0.000586825
-0.00137669
0.00109354
-0.00306622
0.00169428
-0.00486186
0.00231785
-0.00647975
0.00291502
-0.00787515
0.00345978
-0.0090168
0.00394719
-0.00994248
0.00438353
-0.0106986
0.00478059
-0.0113336
0.00515063
-0.0118893
0.00550439
-0.0123935
0.00584988
-0.0128709
0.00619283
-0.0133268
0.00653731
-0.0137801
0.00688481
-0.0142174
0.00723979
-0.0146638
0.00759822
-0.0150942
0.00797079
-0.0155299
0.00834464
-0.0159765
0.008738
-0.0163737
0.00913653
-0.016876
-0.0172124
0.00954968
-2.10464e-05
0.00149915
5.72476e-05
0.000899565
0.00027274
-1.33605e-05
0.000665574
-0.00176953
0.00120282
-0.00360347
0.00181296
-0.00547199
0.00242383
-0.00709062
0.00299383
-0.00844515
0.00350568
-0.00952865
0.00396094
-0.0103977
0.00436952
-0.0111072
0.00474451
-0.0117086
0.00509785
-0.0122426
0.00543935
-0.012735
0.00577565
-0.0132072
0.00611164
-0.0136628
0.00645021
-0.0141187
0.00679293
-0.0145601
0.00714303
-0.0150139
0.00749741
-0.0154486
0.00786555
-0.015898
0.00823498
-0.0163459
0.00862495
-0.0167636
0.00901815
-0.0172692
-0.0176221
0.00942783
-1.94276e-05
0.00151858
7.19392e-05
0.000808198
0.000317248
-0.00025867
0.000747354
-0.00219963
0.00130911
-0.00416522
0.00192048
-0.00608336
0.00251269
-0.00768284
0.00305328
-0.00898574
0.00353309
-0.0100085
0.00395895
-0.0108236
0.00434323
-0.0114914
0.00469944
-0.0120648
0.00503878
-0.012582
0.00536993
-0.0130661
0.00569829
-0.0135356
0.006028
-0.0139925
0.00636101
-0.0144517
0.00669905
-0.0148981
0.00704418
-0.015359
0.00739444
-0.0157989
0.00775784
-0.0162614
0.00812279
-0.0167109
0.00850897
-0.0171498
0.0088965
-0.0176567
-0.0180283
0.00930272
-1.76589e-05
0.00153624
8.82494e-05
0.00070229
0.000365416
-0.000535836
0.000830934
-0.00266515
0.00141029
-0.00474458
0.00201551
-0.00668859
0.00258476
-0.00825208
0.00309513
-0.0094961
0.0035446
-0.0104579
0.00394402
-0.011223
0.00430718
-0.0118546
0.00464741
-0.012405
0.00497488
-0.0129094
0.0052971
-0.0133883
0.0056184
-0.0138569
0.00594227
-0.0143164
0.00626991
-0.0147794
0.00660324
-0.0152315
0.00694331
-0.0156991
0.00728935
-0.0161449
0.00764767
-0.0166197
0.00800809
-0.0170713
0.00839005
-0.0175318
0.0087716
-0.0180383
-0.0184311
0.00917438
-1.56553e-05
0.0015519
0.000106488
0.000580147
0.000417119
-0.000846468
0.000914851
-0.00316288
0.00150452
-0.00533425
0.00209739
-0.00728146
0.00264089
-0.00879558
0.00312132
-0.00997654
0.00354262
-0.0108792
0.00391851
-0.0115989
0.00426339
-0.0121995
0.00458996
-0.0127316
0.00490722
-0.0132267
0.00522156
-0.0137027
0.00553639
-0.0141717
0.00585465
-0.0146347
0.00617702
-0.0151017
0.00650556
-0.01556
0.00684046
-0.016034
0.00718215
-0.0164866
0.00753507
-0.0169727
0.0078909
-0.0174271
0.00826817
-0.017909
0.00864349
-0.0184136
-0.0188304
0.00904282
-1.3312e-05
0.00156521
0.000126952
0.000439882
0.000472014
-0.00119153
0.000997526
-0.0036884
0.00159038
-0.0059271
0.00216599
-0.00785707
0.00268225
-0.00931184
0.00313381
-0.0104281
0.00352933
-0.0112748
0.00388443
-0.011954
0.00421349
-0.0125285
0.00452826
-0.0130463
0.00483658
-0.013535
0.00514378
-0.0140099
0.00545254
-0.0144805
0.0057653
-0.0149474
0.00608243
-0.0154189
0.00640604
-0.0158836
0.00673567
-0.0163636
0.00707284
-0.0168238
0.00742006
-0.0173199
0.00777127
-0.0177783
0.00814333
-0.0182811
0.00851216
-0.0187824
-0.0192263
0.00890804
-1.05005e-05
0.00157571
0.000149895
0.000279487
0.000529539
-0.00157117
0.00107739
-0.00423625
0.00166689
-0.0065166
0.00222166
-0.00841183
0.00271021
-0.00980039
0.00313445
-0.0108523
0.00350664
-0.0116469
0.00384344
-0.0122908
0.00415875
-0.0128438
0.00446321
-0.0133508
0.00476353
-0.0138353
0.00506409
-0.0143104
0.00536701
-0.0147834
0.00567432
-0.0152547
0.00598619
-0.0157307
0.00630472
-0.0162021
0.006629
-0.0166879
0.00696144
-0.0171562
0.00730267
-0.0176611
0.00764925
-0.0181249
0.00801552
-0.0186474
0.00837757
-0.0191445
-0.0196188
0.00877006
-7.0612e-06
0.00158277
0.000175489
9.69363e-05
0.00058893
-0.00198461
0.00115303
-0.00480035
0.00173352
-0.00709708
0.00226505
-0.00894336
0.00272621
-0.0102616
0.00312497
-0.0112511
0.00347617
-0.0119981
0.00379688
-0.0126115
0.00410015
-0.0131471
0.00439546
-0.0136461
0.00468846
-0.0141283
0.00498273
-0.0146047
0.00527994
-0.0150806
0.00558178
-0.0155566
0.00588832
-0.0160373
0.0062016
-0.0165154
0.00652047
-0.0170067
0.00684794
-0.0174837
0.00718297
-0.0179961
0.00752491
-0.0184669
0.00788465
-0.0190071
0.00823972
-0.0194996
-0.0200079
0.00862885
-2.75802e-06
0.00158553
0.000203793
-0.000109615
0.000649264
-0.00243008
0.00122325
-0.00537435
0.00179011
-0.00766394
0.00229702
-0.00945026
0.00273165
-0.0106962
0.0031069
-0.0116264
0.0034393
-0.0123305
0.00374581
-0.012918
0.00403844
-0.0134397
0.00432549
-0.0139332
0.00461166
-0.0144145
0.00489985
-0.0148929
0.0051914
-0.0153722
0.00548772
-0.0158529
0.00578887
-0.0163384
0.00609673
-0.0168233
0.00641011
-0.0173201
0.00673235
-0.0178059
0.0070611
-0.0183249
0.00739836
-0.0188041
0.00775063
-0.0193594
0.00809868
-0.0198476
-0.0203933
0.00848408
2.42017e-06
0.00158311
0.00023474
-0.000341935
0.000709508
-0.00290485
0.00128716
-0.005952
0.00183685
-0.00821363
0.00231854
-0.00993195
0.00272786
-0.0111055
0.00308157
-0.0119801
0.00339717
-0.0126461
0.00369111
-0.013212
0.0039742
-0.0137228
0.00425366
-0.0142126
0.00453333
-0.0146942
0.00481557
-0.0151751
0.00510145
-0.0156581
0.00539218
-0.0161436
0.00568784
-0.0166341
0.00599014
-0.0171256
0.00629796
-0.0176279
0.00661468
-0.0181226
0.00693718
-0.0186474
0.00726966
-0.0191366
0.0076134
-0.0197031
0.00795443
-0.0201886
-0.0207742
0.00833534
8.54905e-06
0.00157456
0.000268137
-0.000601522
0.000768589
-0.00340531
0.00134417
-0.00652758
0.00187412
-0.00874358
0.00233062
-0.0103884
0.00271606
-0.0114909
0.00305015
-0.0123142
0.00335073
-0.0129467
0.00363343
-0.0134947
0.00390787
-0.0139973
0.00418022
-0.014485
0.0044536
-0.0149676
0.00472995
-0.0154515
0.00501014
-0.0159383
0.00529519
-0.0164287
0.00558527
-0.0169242
0.00588185
-0.0174222
0.00618402
-0.0179301
0.00649496
-0.0184336
0.00681131
-0.0189637
0.00713872
-0.019464
0.0074733
-0.0200377
0.00780657
-0.0205219
-0.021153
0.00818534
1.61027e-05
0.00155846
0.000303682
-0.000889102
0.000825457
-0.00392708
0.00139395
-0.00709608
0.00190243
-0.00925206
0.00233421
-0.0108202
0.00269731
-0.011854
0.00301357
-0.0126304
0.00330065
-0.0132338
0.00357322
-0.0137673
0.00383967
-0.0142637
0.00410524
-0.0147506
0.00437247
-0.0152348
0.00464292
-0.0157219
0.00491735
-0.0162127
0.00519663
-0.0167079
0.00548098
-0.0172085
0.00577171
-0.0177129
0.00606812
-0.0182265
0.00637304
-0.0187385
0.00668332
-0.019274
0.00700508
-0.0197858
0.00733125
-0.0203639
0.00766407
-0.0208547
-0.0215054
0.00801647
2.51325e-05
0.00153332
0.000341
-0.00120497
0.000879197
-0.00446528
0.00143648
-0.00765336
0.00192248
-0.00973806
0.00233035
-0.0112281
0.0026727
-0.0121964
0.00297278
-0.0129305
0.00324772
-0.0135087
0.00351107
-0.0140306
0.00377005
-0.0145227
0.0040291
-0.0150096
0.00429025
-0.0154959
0.0045548
-0.0159865
0.0048234
-0.0164813
0.00509682
-0.0169814
0.00537536
-0.017487
0.00566013
-0.0179977
0.00595064
-0.018517
0.00624939
-0.0190373
0.00655364
-0.0195783
0.00686912
-0.0201013
0.00718774
-0.0206825
0.00752114
-0.0211881
-0.0218403
0.00785602
3.5693e-05
0.00149763
0.000379642
-0.00154892
0.000929029
-0.00501466
0.00147186
-0.00819619
0.0019349
-0.0102011
0.00231989
-0.0116131
0.00264304
-0.0125195
0.00292842
-0.0132159
0.00319236
-0.0137727
0.0034472
-0.0142854
0.00369909
-0.0147746
0.00395178
-0.0152623
0.00420687
-0.015751
0.00446548
-0.0162451
0.00472817
-0.016744
0.00499565
-0.0172489
0.00526824
-0.0177596
0.00554693
-0.0182763
0.00583143
-0.0188015
0.00612387
-0.0193297
0.00642199
-0.0198764
0.0067308
-0.0204101
0.00704375
-0.0209954
0.00737034
-0.0215147
-0.022167
0.00769707
4.77642e-05
0.00144987
0.000419113
-0.00192027
0.000974382
-0.00556993
0.00150034
-0.00872215
0.00194038
-0.0106411
0.00230362
-0.0119763
0.00260906
-0.012825
0.00288108
-0.0134879
0.00313495
-0.0140265
0.00338186
-0.0145324
0.00362693
-0.0150197
0.00387335
-0.0155087
0.00412238
-0.0160001
0.00437499
-0.0164977
0.00463169
-0.0170007
0.00489313
-0.0175103
0.00515967
-0.0180262
0.00543217
-0.0185488
0.00571051
-0.0190799
0.00599653
-0.0196157
0.00628835
-0.0201682
0.00659056
-0.0207123
0.00689685
-0.0213017
0.00721767
-0.0218355
-0.0224899
0.00754057
6.1236e-05
0.00138863
0.000458869
-0.0023179
0.00101489
-0.00612595
0.00152227
-0.00922953
0.00193959
-0.0110585
0.00228229
-0.012319
0.00257141
-0.0131141
0.00283123
-0.0137477
0.00307583
-0.0142711
0.00331523
-0.0147718
0.00355368
-0.0152581
0.00379388
-0.0157489
0.00403682
-0.016243
0.00428337
-0.0167442
0.00453399
-0.0172513
0.00478929
-0.0177656
0.00504965
-0.0182865
0.00531585
-0.018815
0.0055879
-0.0193519
0.00586738
-0.0198952
0.00615281
-0.0204536
0.00644811
-0.0210076
0.00674829
-0.0216019
0.00706209
-0.0221493
-0.0228059
0.00737808
7.59149e-05
0.00131272
0.000498321
-0.00274031
0.00105036
-0.00667799
0.00153804
-0.00971721
0.00193316
-0.0114536
0.00225655
-0.0126424
0.00253064
-0.0133882
0.00277928
-0.0139964
0.00301523
-0.0145071
0.00324747
-0.015004
0.00347943
-0.0154901
0.00371341
-0.0159829
0.00395023
-0.0164798
0.00419064
-0.0169847
0.00443509
-0.0174957
0.00468415
-0.0180146
0.00493823
-0.0185406
0.00519802
-0.0190748
0.00546366
-0.0196176
0.00573648
-0.020168
0.00601533
-0.0207325
0.00630379
-0.021296
0.00659721
-0.0218953
0.00690393
-0.0224561
-0.0231162
0.0072142
9.15477e-05
0.00122117
0.000536855
-0.00318561
0.00108076
-0.0072219
0.0015481
-0.0101845
0.00192169
-0.0118272
0.00222698
-0.0129477
0.00248722
-0.0136484
0.00272553
-0.0142347
0.00295336
-0.0147349
0.00317867
-0.0152293
0.00340422
-0.0157156
0.00363199
-0.0162107
0.00386262
-0.0167104
0.00409682
-0.0172189
0.00433501
-0.0177339
0.00457774
-0.0182574
0.00482543
-0.0187883
0.00507871
-0.0193281
0.0053378
-0.0198766
0.00560385
-0.0204341
0.00587602
-0.0210046
0.00615739
-0.0215774
0.00644409
-0.022182
0.0067436
-0.0227556
-0.0234191
0.00704654
0.000107858
0.00111331
0.000573858
-0.00365161
0.00110618
-0.00775422
0.00155286
-0.0106312
0.00190573
-0.01218
0.00219408
-0.0132361
0.00244154
-0.0138959
0.00267025
-0.0144634
0.00289038
-0.014955
0.00310894
-0.0154479
0.00332812
-0.0159348
0.00354965
-0.0164322
0.00377402
-0.0169348
0.00400194
-0.0174468
0.00423378
-0.0179658
0.00447008
-0.0184937
0.00471128
-0.0190295
0.00495794
-0.0195748
0.00521036
-0.0201291
0.00546953
-0.0206933
0.00573486
-0.02127
0.00600909
-0.0218516
0.00628877
-0.0224617
0.00658072
-0.0230475
-0.0237151
0.0068767
0.000124588
0.000988721
0.000608757
-0.00413578
0.00112675
-0.00827221
0.00155277
-0.0110573
0.00188578
-0.0125131
0.00215832
-0.0135086
0.00239393
-0.0141315
0.00261367
-0.0146831
0.0028264
-0.0151678
0.00303834
-0.0156598
0.00325116
-0.0161476
0.00346641
-0.0166474
0.00368447
-0.0171529
0.00390603
-0.0176683
0.00413143
-0.0181912
0.00436122
-0.0187235
0.00459581
-0.0192641
0.00483574
-0.0198147
0.00508137
-0.0203747
0.00533356
-0.0209454
0.00559192
-0.0215283
0.00585883
-0.0221185
0.00613136
-0.0227342
0.00641572
-0.0233319
-0.0240034
0.00670402
0.000141535
0.000847186
0.00064106
-0.00463531
0.00114271
-0.00877386
0.00154824
-0.0114628
0.00186231
-0.0128271
0.00212008
-0.0137664
0.00234467
-0.0143561
0.00255594
-0.0148944
0.00276153
-0.0153734
0.00296694
-0.0158652
0.00317339
-0.0163541
0.00338231
-0.0168564
0.00359399
-0.0173646
0.00380911
-0.0178834
0.00402799
-0.0184101
0.00425116
-0.0189466
0.00447905
-0.019492
0.00471216
-0.0200478
0.00495089
-0.0206134
0.00519597
-0.0211905
0.00544722
-0.0217796
0.0057067
-0.022378
0.00597189
-0.0229994
0.00624835
-0.0236084
-0.0242841
0.00652902
0.000158569
0.000688617
0.00067039
-0.00514713
0.00115428
-0.00925775
0.00153966
-0.0118482
0.00183572
-0.0131232
0.00207969
-0.0140103
0.002294
-0.0145704
0.00249722
-0.0150976
0.00269586
-0.015572
0.00289476
-0.0160641
0.00309484
-0.0165541
0.00329737
-0.0170589
0.00350261
-0.0175698
0.0037112
-0.018092
0.00392348
-0.0186223
0.00413996
-0.0191631
0.00436104
-0.0197131
0.00458723
-0.020274
0.00481893
-0.0208451
0.0050568