/*--------------------------------*- C++ -*----------------------------------*\
  =========                 |
  \\      /  F ield         | OpenFOAM: The Open Source CFD Toolbox
   \\    /   O peration     | Website:  https://openfoam.org
    \\  /    A nd           | Version:  7
     \\/     M anipulation  |
\*---------------------------------------------------------------------------*/
FoamFile
{
    version     2.0;
    format      ascii;
    class       volVectorField;
    location    "68";
    object      U;
}
// * * * * * * * * * * * * * * * * * * * * * * * * * * * * * * * * * * * * * //

dimensions      [0 1 -1 0 0 0 0];

internalField   nonuniform List<vector> 
41600
(
(-0.033735 0.0108921 -1.61073e-20)
(-0.0804245 0.00408348 -2.24896e-20)
(-0.125392 -0.00663434 1.38979e-23)
(-0.153934 -0.0218727 -1.83687e-20)
(-0.175457 -0.0409747 2.44265e-20)
(-0.191818 -0.0628891 -5.0748e-20)
(-0.202635 -0.084078 -6.67561e-21)
(-0.210954 -0.100312 4.8321e-20)
(-0.216097 -0.106469 -9.92334e-21)
(-0.219972 -0.0977326 -1.51933e-20)
(-0.22179 -0.0704001 -5.86034e-21)
(-0.221108 -0.0231084 1.75104e-20)
(-0.216684 0.0417247 -9.91157e-21)
(-0.207982 0.117171 -9.92586e-21)
(-0.196594 0.192047 -9.49246e-21)
(-0.182713 0.254302 2.21986e-21)
(-0.165781 0.289036 4.55964e-22)
(-0.14206 0.286281 -1.42673e-20)
(-0.101353 0.231835 2.89745e-21)
(-0.0507727 0.137861 4.43314e-21)
(0.024414 0.00712336 -2.02636e-20)
(0.0766957 -0.12213 1.72312e-20)
(0.140131 -0.231403 -4.94915e-21)
(0.148253 -0.316812 1.20697e-21)
(0.144281 -0.368356 3.86683e-21)
(-0.034076 0.0152767 -7.50415e-20)
(-0.0806913 0.00857349 1.14613e-19)
(-0.125653 -0.00243098 -2.31277e-20)
(-0.154309 -0.0185873 1.0081e-20)
(-0.176036 -0.0381144 -7.18721e-20)
(-0.192672 -0.0606381 7.86695e-20)
(-0.203776 -0.0822848 -1.14452e-20)
(-0.212371 -0.0989817 -6.29623e-20)
(-0.217786 -0.105511 1.51639e-20)
(-0.221979 -0.0971613 -4.87188e-20)
(-0.224225 -0.0703589 8.36222e-21)
(-0.224068 -0.0239155 2.63083e-20)
(-0.220038 0.0398051 2.66693e-20)
(-0.211013 0.11399 5.37461e-20)
(-0.197458 0.187767 1.7398e-20)
(-0.178757 0.248618 1.98464e-20)
(-0.153038 0.281205 3.13329e-21)
(-0.118055 0.275041 4.76834e-20)
(-0.0628451 0.215883 4.37603e-21)
(-0.00153633 0.116996 -1.6767e-20)
(0.0875148 -0.0143125 -2.18928e-20)
(0.143943 -0.140922 -3.66702e-20)
(0.216071 -0.242903 -1.55993e-20)
(0.22655 -0.315328 -1.2715e-21)
(0.22754 -0.354736 -8.35813e-21)
(-0.0345302 0.0196464 1.58781e-20)
(-0.0808689 0.0130633 -3.83679e-20)
(-0.12555 0.00180359 -5.22918e-20)
(-0.153981 -0.0152375 3.31134e-20)
(-0.175503 -0.0351564 6.74003e-20)
(-0.191937 -0.0582657 -9.18481e-20)
(-0.202768 -0.0803642 4.8066e-20)
(-0.210989 -0.097538 3.39499e-21)
(-0.215907 -0.104471 6.35242e-20)
(-0.219501 -0.0965501 8.62132e-20)
(-0.221084 -0.0703325 5.69044e-20)
(-0.220167 -0.0248264 1.29886e-21)
(-0.215081 0.037602 -9.02054e-22)
(-0.204125 0.11018 -4.96373e-20)
(-0.186817 0.182303 -5.06717e-20)
(-0.161834 0.241061 -2.58671e-20)
(-0.126296 0.270933 5.11938e-21)
(-0.0798097 0.261059 -5.2308e-20)
(-0.0106678 0.198019 1.73994e-20)
(0.0592056 0.0945839 -2.63182e-20)
(0.160419 -0.0359659 2.28979e-20)
(0.219441 -0.15949 7.20578e-20)
(0.297711 -0.254274 4.50468e-20)
(0.309331 -0.314436 -1.10789e-20)
(0.320678 -0.338293 -6.94093e-21)
(-0.0350957 0.0239834 -1.28659e-19)
(-0.0809531 0.017533 1.82801e-20)
(-0.125077 0.00605136 1.77743e-19)
(-0.152934 -0.0118413 -1.05031e-19)
(-0.173833 -0.0321179 6.22969e-20)
(-0.189578 -0.0557882 2.45797e-19)
(-0.19957 -0.0783323 -1.25316e-19)
(-0.206774 -0.0959985 1.88868e-19)
(-0.210457 -0.103374 8.82022e-20)
(-0.212583 -0.0959347 9.78394e-20)
(-0.21248 -0.0703693 2.31736e-20)
(-0.209598 -0.0259005 -1.00703e-19)
(-0.202118 0.0350656 -5.51892e-20)
(-0.187776 0.105722 3.3724e-20)
(-0.165349 0.175706 4.47777e-20)
(-0.132924 0.231819 3.15691e-21)
(-0.0869604 0.258682 -2.72666e-20)
(-0.0292295 0.244871 3.94454e-20)
(0.0529564 0.178936 -1.22808e-19)
(0.129859 0.0718905 -9.25031e-20)
(0.241068 -0.0571657 6.65759e-20)
(0.302413 -0.17685 -1.81216e-20)
(0.383558 -0.264326 1.85644e-20)
(0.393491 -0.314266 2.47371e-20)
(0.414151 -0.322597 8.37134e-21)
(-0.0357705 0.0282705 1.55214e-20)
(-0.0809401 0.0219624 -2.573e-19)
(-0.124224 0.0102941 2.07538e-19)
(-0.151153 -0.00841732 -2.491e-20)
(-0.170999 -0.0290163 -2.43701e-19)
(-0.185554 -0.053221 -2.07405e-19)
(-0.194135 -0.0762017 5.82628e-20)
(-0.199684 -0.0943737 -1.67571e-19)
(-0.201425 -0.102234 -1.04352e-19)
(-0.201281 -0.0953376 -1.57811e-19)
(-0.198564 -0.0705037 -1.53198e-20)
(-0.192632 -0.0271668 3.92447e-20)
(-0.181564 0.0321621 8.29098e-20)
(-0.162579 0.100617 -5.10925e-20)
(-0.133922 0.16806 6.93403e-20)
(-0.0932027 0.221126 -6.3818e-20)
(-0.0366436 0.24495 -7.02651e-20)
(0.0316479 0.226962 -3.94986e-20)
(0.125789 0.159235 -3.46984e-20)
(0.209525 0.049792 1.0856e-19)
(0.327982 -0.0773073 -1.20343e-19)
(0.392096 -0.192219 5.13761e-20)
(0.472649 -0.271819 -5.87055e-20)
(0.479147 -0.313266 -2.9538e-20)
(0.502651 -0.309251 4.58371e-22)
(-0.0365525 0.0324901 6.13606e-20)
(-0.0808268 0.0263313 2.36175e-19)
(-0.122984 0.014513 -5.46878e-19)
(-0.148623 -0.00498431 2.95012e-19)
(-0.166974 -0.0258692 1.49315e-19)
(-0.179823 -0.0505785 -3.87786e-20)
(-0.186404 -0.0739812 1.6612e-19)
(-0.189659 -0.0926658 -2.03877e-20)
(-0.18878 -0.101048 4.6121e-20)
(-0.185638 -0.094762 1.50553e-19)
(-0.179493 -0.0707507 8.27097e-20)
(-0.169582 -0.0286489 -4.28287e-21)
(-0.153923 0.0288772 -4.48141e-20)
(-0.129259 0.0948944 1.60776e-19)
(-0.0935453 0.15948 -3.47977e-20)
(-0.0439858 0.209234 9.59391e-20)
(0.0229766 0.230033 3.67078e-20)
(0.100932 0.208025 1.37174e-19)
(0.205555 0.139337 2.41639e-20)
(0.297186 0.0288317 -1.25926e-19)
(0.419859 -0.0958532 8.85366e-20)
(0.486825 -0.20504 -1.02687e-19)
(0.562969 -0.27621 -2.61557e-20)
(0.566064 -0.309624 -5.47031e-20)
(0.585572 -0.297309 -7.59686e-21)
(-0.0374395 0.0366254 -1.19015e-19)
(-0.0806103 0.0306192 -3.28006e-19)
(-0.121352 0.0186889 2.08183e-19)
(-0.145329 -0.00156178 -4.81235e-19)
(-0.161727 -0.0226944 -1.69471e-19)
(-0.172334 -0.0478743 5.19379e-20)
(-0.176305 -0.071676 -2.65272e-19)
(-0.176615 -0.0908674 1.52529e-19)
(-0.172455 -0.0997989 -1.08084e-19)
(-0.165656 -0.0941844 -5.39444e-20)
(-0.155403 -0.0710945 -7.00358e-20)
(-0.140764 -0.0303495 1.16275e-19)
(-0.119735 0.0252226 -1.17219e-19)
(-0.0886182 0.0886034 -7.37096e-20)
(-0.0453222 0.150102 -3.09425e-20)
(0.0132914 0.196332 -7.7538e-20)
(0.0902461 0.214206 7.74914e-20)
(0.177123 0.188815 -3.56502e-20)
(0.290295 0.11937 1.6028e-20)
(0.391227 0.00925753 1.32292e-19)
(0.515289 -0.112284 9.62958e-20)
(0.584023 -0.214746 -1.44402e-19)
(0.651969 -0.277345 1.25526e-19)
(0.651417 -0.302705 9.47845e-20)
(0.663942 -0.284561 -6.16177e-21)
(-0.038429 0.0406595 5.2693e-19)
(-0.0802884 0.0348054 3.40103e-19)
(-0.119321 0.0228023 1.08281e-19)
(-0.141256 0.00183013 5.19309e-19)
(-0.155227 -0.0195106 2.4704e-19)
(-0.163027 -0.0451218 4.3997e-19)
(-0.163746 -0.069288 -2.14531e-19)
(-0.160434 -0.0889617 4.81677e-20)
(-0.152334 -0.0984465 1.28895e-20)
(-0.14127 -0.0935483 -8.16782e-20)
(-0.126356 -0.0714744 -2.94342e-20)
(-0.106445 -0.0322086 -1.21505e-19)
(-0.0795226 0.0212409 1.39348e-19)
(-0.0414617 0.0818052 1.29339e-20)
(0.00961403 0.14009 -9.32008e-20)
(0.0772072 0.182628 -1.14475e-20)
(0.163431 0.19784 -8.61888e-20)
(0.258858 0.16982 -4.57114e-20)
(0.378794 0.0994933 1.77914e-19)
(0.489519 -0.00887143 1.47824e-19)
(0.612533 -0.126102 2.38917e-20)
(0.680452 -0.220842 1.97433e-19)
(0.737384 -0.27489 2.21448e-20)
(0.731334 -0.292893 6.86353e-21)
(0.73708 -0.269696 2.3931e-20)
(-0.0395186 0.044576 -4.62427e-19)
(-0.0798593 0.0388691 2.55503e-19)
(-0.116885 0.0268329 -2.04482e-20)
(-0.136387 0.00517049 1.0177e-19)
(-0.147437 -0.0163373 1.20073e-19)
(-0.151835 -0.0423343 -6.38501e-19)
(-0.148621 -0.0668169 3.44281e-19)
(-0.140967 -0.0869231 -4.04448e-19)
(-0.128242 -0.0969317 -1.00504e-19)
(-0.11233 -0.0927593 -1.20729e-19)
(-0.092301 -0.071776 -1.81344e-19)
(-0.0667698 -0.0341164 2.56321e-21)
(-0.0336947 0.0170268 -2.37229e-20)
(0.0114838 0.0746951 -9.51576e-20)
(0.0702567 0.129585 1.80649e-19)
(0.146442 0.168419 1.6033e-19)
(0.240875 0.181132 -8.11607e-20)
(0.344676 0.151275 -7.62667e-20)
(0.470445 0.0800834 -9.52339e-20)
(0.589808 -0.0254341 -2.69358e-19)
(0.709337 -0.136822 -1.7607e-19)
(0.772701 -0.223057 7.36592e-21)
(0.816867 -0.268544 -2.25092e-19)
(0.803282 -0.280542 -2.64359e-20)
(0.802425 -0.253017 -6.40824e-20)
(-0.0407059 0.0483591 5.38136e-19)
(-0.0793216 0.0427893 -7.26053e-19)
(-0.114039 0.0307599 -4.76089e-19)
(-0.130706 0.00843748 -5.98671e-19)
(-0.138318 -0.0131952 1.44425e-19)
(-0.138683 -0.039526 1.04559e-19)
(-0.130803 -0.0642609 1.67148e-19)
(-0.118033 -0.0847198 3.43375e-20)
(-0.0999506 -0.0951773 6.28911e-20)
(-0.0785935 -0.0916884 -1.07904e-19)
(-0.0530452 -0.0718352 1.79279e-19)
(-0.021698 -0.0358763 -2.77199e-20)
(0.0175653 0.0128545 1.34212e-19)
(0.0697187 0.0674944 -3.21376e-20)
(0.135815 0.118804 5.289e-20)
(0.21995 0.154044 -2.73651e-19)
(0.321342 0.164241 -7.20268e-20)
(0.433232 0.133178 -2.46904e-19)
(0.564701 0.0615538 -1.39228e-19)
(0.689881 -0.0401056 -1.27809e-19)
(0.802873 -0.144018 1.48415e-19)
(0.857728 -0.221259 -7.02474e-20)
(0.887845 -0.25849 4.9901e-20)
(0.866144 -0.265779 9.2524e-21)
(0.857891 -0.235379 1.74687e-20)
(-0.0419883 0.0519937 6.21876e-20)
(-0.0786744 0.046545 8.00459e-19)
(-0.110779 0.034562 -6.1827e-20)
(-0.124196 0.0116084 2.69621e-19)
(-0.127829 -0.0101061 -8.66376e-19)
(-0.123485 -0.036712 -4.03837e-20)
(-0.110155 -0.0616182 -2.81991e-19)
(-0.0914287 -0.0823162 2.36029e-19)
(-0.0671945 -0.093096 2.69421e-19)
(-0.0397465 -0.090184 2.57716e-20)
(-0.0082597 -0.0714381 4.25248e-20)
(0.0290205 -0.0371431 -3.68256e-20)
(0.0743523 0.00906177 -8.5133e-20)
(0.133077 0.0604611 -1.38965e-19)
(0.205921 0.10813 -2.91979e-20)
(0.2971 0.139896 7.54946e-20)
(0.404317 0.147466 3.34184e-19)
(0.523767 0.115546 -2.71656e-21)
(0.660605 0.0443015 1.25676e-19)
(0.787369 -0.0523537 1.73958e-19)
(0.889972 -0.147409 -3.25572e-19)
(0.932986 -0.21547 -3.56569e-20)
(0.948354 -0.245296 1.05955e-19)
(0.919209 -0.248942 -7.76273e-20)
(0.903201 -0.217402 2.14102e-20)
(-0.0433634 0.0554653 -1.26993e-18)
(-0.077917 0.0501149 -6.7642e-19)
(-0.107098 0.0382172 5.84484e-19)
(-0.116836 0.0146596 -3.1122e-19)
(-0.11592 -0.00709324 1.16483e-18)
(-0.106152 -0.0339084 -2.79471e-19)
(-0.0865283 -0.0588875 5.62717e-19)
(-0.0609444 -0.0796771 1.10113e-19)
(-0.0297009 -0.0905999 -2.47219e-19)
(0.0045426 -0.0880841 2.50561e-19)
(0.0424445 -0.0702684 9.46781e-20)
(0.085793 -0.0375734 -9.96898e-22)
(0.13704 0.00602341 -1.30907e-19)
(0.201783 0.0540974 8.65532e-20)
(0.280687 0.0980598 -1.60064e-19)
(0.377798 0.12645 1.1936e-19)
(0.489999 0.131276 -1.49823e-19)
(0.616161 0.0986365 4.34299e-20)
(0.756506 0.0288627 -8.01986e-20)
(0.879411 -0.0615685 -5.77544e-20)
(0.967562 -0.146911 1.63401e-19)
(0.996462 -0.206036 3.62322e-20)
(0.997573 -0.22966 -3.19633e-21)
(0.962109 -0.230709 -3.8882e-20)
(0.939354 -0.199497 -1.54266e-20)
(-0.0448286 0.0587604 1.16778e-18)
(-0.0770489 0.0534777 2.76777e-19)
(-0.102991 0.0417028 -1.35476e-19)
(-0.108605 0.0175668 2.73871e-19)
(-0.102542 -0.00418101 -9.94849e-19)
(-0.0865852 -0.0311324 6.6189e-19)
(-0.0597742 -0.0560683 -2.08728e-19)
(-0.0263828 -0.0767698 -2.24353e-19)
(0.0127651 -0.0876067 -7.58783e-20)
(0.0545493 -0.0852073 -2.62113e-19)
(0.0993837 -0.0680576 -1.52305e-19)
(0.149004 -0.0368598 1.16764e-19)
(0.206089 0.00422811 1.97261e-19)
(0.276292 0.0489663 3.0477e-19)
(0.360525 0.0892022 -1.28824e-19)
(0.46236 0.114253 8.5631e-20)
(0.578841 0.116243 1.67905e-19)
(0.710072 0.0830169 3.35818e-19)
(0.849781 0.0159039 1.65888e-19)
(0.962681 -0.06728 3.06995e-19)
(1.0331 -0.142704 7.99747e-20)
(1.04703 -0.193642 2.43965e-19)
(1.03566 -0.212366 -2.02725e-19)
(0.995292 -0.211888 1.79537e-19)
(0.967696 -0.182014 4.87821e-21)
(-0.0463814 0.0618663 -1.95372e-19)
(-0.0760697 0.0566121 -4.64015e-19)
(-0.0984512 0.0449957 -4.87941e-19)
(-0.0994787 0.0203049 2.62643e-19)
(-0.0876371 -0.00139427 8.89682e-19)
(-0.0646807 -0.0284011 -1.60344e-19)
(-0.0297474 -0.05316 -1.91863e-19)
(0.0124191 -0.0735644 -2.50631e-19)
(0.0603517 -0.0840342 -1.574e-19)
(0.110387 -0.0814249 -8.45674e-21)
(0.162663 -0.0646438 -4.09373e-20)
(0.218773 -0.034689 -3.19031e-19)
(0.281678 0.00410336 -1.81642e-19)
(0.356859 0.0455961 3.85553e-20)
(0.44564 0.0821532 9.59422e-20)
(0.550942 0.103856 -2.09902e-19)
(0.670636 0.102976 -2.99658e-19)
(0.803697 0.0694464 -2.24177e-19)
(0.936686 0.00603751 5.29201e-20)
(1.0339 -0.0693618 -2.27272e-19)
(1.08495 -0.135317 -2.17384e-19)
(1.08474 -0.179185 -4.42733e-19)
(1.06352 -0.194257 1.09971e-19)
(1.01999 -0.193195 -7.43724e-20)
(0.989595 -0.165293 6.82317e-20)
(-0.0480195 0.0647715 5.86868e-19)
(-0.0749791 0.0594969 4.23622e-19)
(-0.0934709 0.0480723 5.95595e-19)
(-0.089428 0.0228488 -4.22444e-19)
(-0.0711408 0.00124235 -1.1023e-18)
(-0.0403302 -0.0257278 -6.56428e-19)
(0.00368576 -0.0501614 1.91559e-19)
(0.055568 -0.0700298 2.44877e-20)
(0.113067 -0.0798252 5.76678e-19)
(0.171925 -0.0766808 1.87968e-19)
(0.231997 -0.0599178 1.03281e-19)
(0.294701 -0.0308978 3.30885e-19)
(0.363318 0.00587716 -9.60225e-20)
(0.442951 0.0443246 -1.43056e-19)
(0.535314 0.0773017 1.04986e-19)
(0.642639 0.0956436 1.47679e-19)
(0.763446 0.091975 1.24363e-19)
(0.893228 0.0585186 1.19989e-19)
(1.01291 -0.000489263 -9.57418e-20)
(1.09063 -0.0681456 6.03359e-20)
(1.12282 -0.125578 2.01191e-19)
(1.11073 -0.163629 4.92725e-19)
(1.08266 -0.176123 8.27253e-20)
(1.03782 -0.17518 6.43168e-20)
(1.00639 -0.1496 5.91647e-20)
(-0.0497406 0.0674653 -8.67437e-19)
(-0.0737761 0.0621108 5.56935e-19)
(-0.0880403 0.0509084 6.60056e-19)
(-0.0784183 0.0251735 2.87263e-20)
(-0.0529799 0.00370587 3.47322e-19)
(-0.0134202 -0.0231202 2.40478e-19)
(0.0406402 -0.0470653 -6.17695e-19)
(0.103091 -0.0661367 3.4324e-19)
(0.170743 -0.0749522 -5.07882e-19)
(0.238714 -0.0709544 -1.53721e-19)
(0.306603 -0.0538858 6.94096e-21)
(0.375694 -0.0255193 1.99238e-19)
(0.44957 0.00950324 2.74567e-19)
(0.532834 0.0451348 -5.70225e-20)
(0.6274 0.0746549 1.50775e-19)
(0.734796 0.089658 9.6635e-20)
(0.853206 0.0833992 1.0359e-19)
(0.97361 0.0503769 4.31508e-20)
(1.07485 -0.0039478 -1.04181e-19)
(1.13204 -0.0643635 -1.96615e-19)
(1.1478 -0.114448 -2.99505e-19)
(1.12696 -0.147857 -4.09878e-19)
(1.09492 -0.158592 1.39876e-19)
(1.05044 -0.158211 1.14224e-19)
(1.0193 -0.135082 -5.65458e-20)
(-0.0515423 0.0699383 4.67352e-19)
(-0.0724595 0.0644329 -5.14492e-19)
(-0.0821466 0.0534799 -1.05574e-18)
(-0.0664073 0.0272553 7.1522e-20)
(-0.0330686 0.00597653 3.4602e-19)
(0.0161707 -0.0205853 -1.60454e-19)
(0.0811984 -0.0438467 9.57815e-20)
(0.154916 -0.0618536 2.26435e-19)
(0.233004 -0.0693973 -1.5299e-19)
(0.309959 -0.0642776 7.21921e-19)
(0.385188 -0.0466707 -3.34699e-20)
(0.459946 -0.0187719 -1.21077e-19)
(0.538056 0.0146631 -1.82346e-19)
(0.623572 0.047645 -7.05638e-21)
(0.71838 0.0737992 -1.92592e-19)
(0.823149 0.0855316 -1.59256e-19)
(0.934644 0.0769602 -1.04895e-19)
(1.04031 0.0446676 -6.85679e-21)
(1.12079 -0.00502121 -1.49827e-19)
(1.15909 -0.0589309 3.16571e-19)
(1.16205 -0.102822 2.35375e-20)
(1.13572 -0.132555 -2.0219e-19)
(1.10213 -0.142085 -1.19491e-19)
(1.05928 -0.142489 1.90643e-20)
(1.02934 -0.121776 1.20567e-19)
(-0.0534225 0.0721826 -6.38309e-19)
(-0.0710268 0.0664424 2.43117e-19)
(-0.0757732 0.0557624 4.5424e-19)
(-0.0533423 0.029073 -1.08869e-19)
(-0.0113068 0.00803931 3.29641e-19)
(0.0485716 -0.0181184 6.23167e-19)
(0.125408 -0.0404684 7.41372e-20)
(0.210844 -0.05714 -4.44333e-19)
(0.299241 -0.063155 4.56654e-19)
(0.384531 -0.0567293 -6.06329e-19)
(0.466023 -0.0384849 -1.41416e-19)
(0.545109 -0.0110128 -1.45651e-19)
(0.62576 0.0208446 3.07264e-20)
(0.711517 0.0512167 2.46587e-20)
(0.804041 0.0740421 5.09807e-20)
(0.902912 0.0826125 4.24654e-20)
(1.00314 0.0720548 -5.66052e-21)
(1.09099 0.0407437 3.26143e-20)
(1.1514 -0.00453062 5.03489e-19)
(1.17422 -0.0526969 2.87689e-20)
(1.16825 -0.0913828 -2.62739e-19)
(1.13923 -0.118166 -1.44286e-19)
(1.10588 -0.126824 -5.42178e-20)
(1.06547 -0.128083 -9.76617e-20)
(1.03729 -0.109645 -8.17756e-20)
(-0.0553789 0.0741911 4.14702e-19)
(-0.0694742 0.0681191 5.19796e-19)
(-0.0688981 0.0577319 -2.58426e-19)
(-0.039158 0.0306097 3.4839e-20)
(0.0124252 0.00988679 5.02469e-19)
(0.0839103 -0.0156913 3.27017e-19)
(0.173263 -0.0368811 9.01712e-19)
(0.270531 -0.0519484 3.50965e-19)
(0.368615 -0.0562342 -5.5492e-20)
(0.46101 -0.0484275 2.23914e-19)
(0.547094 -0.0295975 4.06343e-19)
(0.628581 -0.00267124 4.06135e-20)
(0.709526 0.0274617 3.43441e-20)
(0.793069 0.05514 9.04677e-20)
(0.88051 0.0746408 -1.41165e-19)
(0.97029 0.0802089 1.29123e-20)
(1.05632 0.0680407 -1.26705e-19)
(1.12599 0.0379565 -3.70815e-19)
(1.16916 -0.0031812 -2.1668e-19)
(1.18047 -0.0462883 5.34294e-19)
(1.16895 -0.0805619 1.14102e-19)
(1.13934 -0.10491 2.89473e-19)
(1.10738 -0.112881 -1.65686e-19)
(1.06984 -0.114969 3.23851e-20)
(1.04368 -0.09861 2.61533e-20)
(-0.0574093 0.0759584 -6.55684e-20)
(-0.067796 0.0694432 -1.1525e-18)
(-0.0614922 0.0593647 2.9239e-19)
(-0.0237707 0.0318498 2.88886e-19)
(0.038267 0.0115276 -1.1441e-18)
(0.122311 -0.0132573 3.01491e-19)
(0.224678 -0.0330145 -1.0364e-19)
(0.333462 -0.046229 6.37956e-19)
(0.440063 -0.0486637 -3.94201e-19)
(0.537776 -0.0395236 -7.41414e-19)
(0.626293 -0.0203038 3.45871e-21)
(0.707846 0.00581896 -1.21976e-19)
(0.786576 0.0339712 -1.71169e-19)
(0.865378 0.0588067 -1.21882e-19)
(0.945159 0.0750068 2.43943e-20)
(1.02355 0.0778116 -5.7041e-20)
(1.09446 0.0644591 5.39938e-20)
(1.14774 0.0358418 2.15589e-19)
(1.17734 -0.00144907 6.96933e-20)
(1.18075 -0.0400827 -4.5666e-19)
(1.16624 -0.0705706 -1.43846e-20)
(1.13741 -0.0928496 -3.03652e-19)
(1.10749 -0.100229 8.38422e-20)
(1.07297 -0.103073 3.41845e-20)
(1.04888 -0.0885791 -8.33839e-20)
(-0.0595112 0.0774801 -7.09592e-19)
(-0.0659839 0.0703958 3.97409e-19)
(-0.0535176 0.0606372 1.14987e-19)
(-0.00707413 0.0327835 -2.87746e-19)
(0.0663819 0.0129887 1.03003e-18)
(0.163878 -0.0107482 -7.48113e-19)
(0.279458 -0.0287822 -8.4479e-19)
(0.398934 -0.0399397 -4.64804e-19)
(0.512331 -0.0404994 -3.41086e-19)
(0.613122 -0.0301982 6.43181e-19)
(0.701627 -0.0109003 9.99591e-20)
(0.780785 0.0140735 3.5659e-19)
(0.854896 0.0399527 2.7388e-19)
(0.926782 0.0618119 4.50426e-20)
(0.997053 0.0748098 2.75912e-20)
(1.06311 0.0751863 3.23141e-19)
(1.11975 0.0610963 3.56489e-19)
(1.15947 0.0341457 3.63317e-19)
(1.17905 0.000401544 2.089e-19)
(1.17739 -0.0342622 2.88966e-19)
(1.16165 -0.0614726 -7.04013e-20)
(1.13439 -0.0819472 2.16971e-19)
(1.10676 -0.0887897 1.57581e-19)
(1.07522 -0.0922969 -2.03605e-20)
(1.05316 -0.079456 8.71108e-20)
(-0.0616821 0.0787533 4.77386e-19)
(-0.0640262 0.0709587 1.16764e-19)
(-0.0449243 0.0615273 8.44916e-20)
(0.0110616 0.0334153 -8.14523e-19)
(0.0969558 0.0143153 -1.88163e-18)
(0.208676 -0.00807208 -2.19292e-21)
(0.337265 -0.0240916 1.22654e-18)
(0.46605 -0.0330594 -3.76059e-19)
(0.584039 -0.0318318 6.60363e-19)
(0.685389 -0.0206535 5.10641e-20)
(0.771402 -0.00166221 -3.16406e-19)
(0.84589 0.0217927 -5.14395e-19)
(0.91342 0.0451455 -2.67058e-19)
(0.976887 0.0639746 4.99273e-20)
(1.03681 0.0739729 2.28744e-19)
(1.0909 0.0723301 7.68093e-22)
(1.13516 0.057917 -3.79406e-19)
(1.16429 0.0327593 -1.61483e-19)
(1.17676 0.00224757 -3.14489e-19)
(1.17205 -0.0288867 -3.45412e-20)
(1.15615 -0.0532462 -1.54035e-19)
(1.13086 -0.0721165 5.51476e-20)
(1.10556 -0.07846 -2.38166e-19)
(1.07685 -0.0825368 -1.68169e-19)
(1.05668 -0.0711488 5.68159e-21)
(-0.0639191 0.0797764 -5.26989e-19)
(-0.0619068 0.0711152 7.81947e-19)
(-0.0356494 0.0620188 2.10437e-19)
(0.0307977 0.0337591 4.6141e-19)
(0.130189 0.0155775 8.9931e-19)
(0.256693 -0.00511637 -4.20718e-19)
(0.397588 -0.0188575 -7.56985e-19)
(0.533741 -0.0256022 5.62318e-19)
(0.653773 -0.0227889 -7.3466e-19)
(0.753108 -0.0111007 -3.57141e-19)
(0.834373 0.00717624 4.39216e-20)
(0.902362 0.0287791 3.99575e-19)
(0.961999 0.0494432 3.30344e-19)
(1.01636 0.065299 -1.63201e-19)
(1.06606 0.0725954 3.40511e-20)
(1.10942 0.0693641 -2.36598e-19)
(1.14352 0.0549661 7.55451e-20)
(1.16469 0.0316438 4.23523e-20)
(1.17222 0.00404231 -2.48429e-19)
(1.1658 -0.0239508 1.51939e-19)
(1.15038 -0.0458286 2.06495e-19)
(1.12715 -0.0632522 1.57783e-19)
(1.10408 -0.0691328 1.58125e-19)
(1.07801 -0.07369 1.85506e-19)
(1.05958 -0.0635724 -7.10413e-20)
(-0.066219 0.0805491 1.21884e-18)
(-0.0596048 0.0708514 4.46711e-19)
(-0.0256117 0.0620977 8.43961e-20)
(0.0523267 0.0338447 1.62147e-18)
(0.16628 0.0168758 3.52235e-19)
(0.307804 -0.00175717 -5.67478e-19)
(0.459721 -0.0130199 -1.17831e-18)
(0.600822 -0.0176259 -1.18989e-18)
(0.720197 -0.0135299 -2.98038e-19)
(0.81513 -0.0017425 -2.3122e-19)
(0.88982 0.0154383 8.97899e-20)
(0.950077 0.0349369 2.09629e-19)
(1.00122 0.0528637 -1.07259e-19)
(1.04653 0.0659081 6.1452e-19)
(1.08684 0.0708568 -6.52794e-19)
(1.12109 0.0664375 2.65252e-20)
(1.14714 0.0522999 -3.17577e-19)
(1.16243 0.0307837 2.04038e-19)
(1.16657 0.00577499 3.14238e-19)
(1.15929 -0.0194198 -3.48224e-19)
(1.14468 -0.0391421 -2.49278e-19)
(1.12346 -0.0552466 -3.66606e-19)
(1.10247 -0.0607051 -7.35727e-21)
(1.07881 -0.0656609 -8.93571e-20)
(1.06195 -0.0566491 1.19112e-20)
(-0.0685775 0.0810721 -5.09865e-19)
(-0.0570936 0.0701574 -1.92856e-18)
(-0.0147049 0.06175 -9.21915e-19)
(0.0758729 0.0337261 -1.91415e-18)
(0.2054 0.0183391 1.76777e-19)
(0.361725 0.00212571 -1.49338e-19)
(0.522779 -0.00655983 1.69158e-18)
(0.666074 -0.00923369 1.03382e-18)
(0.782168 -0.00423073 4.92375e-20)
(0.870693 0.00724502 -2.35834e-19)
(0.937537 0.0230124 -1.69875e-19)
(0.989459 0.0402571 -4.19413e-19)
(1.03213 0.0555062 -4.72959e-19)
(1.069 0.0659769 -2.99315e-19)
(1.10112 0.0689436 7.06231e-19)
(1.1279 0.0636744 8.3413e-20)
(1.14772 0.0499571 2.74362e-19)
(1.15869 0.0301667 2.10167e-19)
(1.16051 0.00744943 -1.76377e-19)
(1.1529 -0.0152489 2.4671e-19)
(1.13922 -0.0331077 2.49819e-19)
(1.1199 -0.0479976 1.51651e-19)
(1.10079 -0.0530821 -1.23079e-20)
(1.07933 -0.058361 1.23569e-21)
(1.06387 -0.05031 1.36411e-19)
(-0.0709899 0.0813472 -1.16687e-19)
(-0.0543348 0.0690179 -1.1762e-18)
(-0.00280027 0.0609775 1.08948e-19)
(0.101689 0.0334832 1.191e-18)
(0.247651 0.0201188 -5.57857e-19)
(0.417985 0.00662984 1.38148e-18)
(0.58574 0.000490203 5.47443e-19)
(0.728349 -0.000565663 -3.80177e-19)
(0.838824 0.00493418 6.77743e-19)
(0.919448 0.0157268 7.09787e-19)
(0.977755 0.0298506 3.97101e-20)
(1.0213 0.0447941 1.88008e-19)
(1.05599 0.0575094 1.31157e-19)
(1.08537 0.0656828 -3.59307e-19)
(1.11061 0.0670105 -4.27045e-20)
(1.1314 0.061158 -8.2037e-20)
(1.14642 0.0479542 -4.99228e-20)
(1.15423 0.0297777 -1.55283e-19)
(1.15443 0.00907431 2.38103e-19)
(1.14681 -0.0113938 -1.14075e-19)
(1.13408 -0.0276515 -1.80013e-19)
(1.1165 -0.0414121 1.15755e-19)
(1.0991 -0.0461794 -2.6245e-20)
(1.07962 -0.0517096 8.3047e-20)
(1.06541 -0.0444949 3.03783e-20)
(-0.0734504 0.081377 1.94651e-18)
(-0.0512776 0.0674185 2.78665e-18)
(0.0102623 0.0597976 8.01509e-19)
(0.130046 0.0332254 3.80048e-19)
(0.293025 0.0223757 1.43774e-18)
(0.475916 0.0118109 -6.39174e-20)
(0.647518 0.00804587 5.30464e-19)
(0.786667 0.00821762 -7.89618e-20)
(0.88963 0.0138103 -6.79144e-19)
(0.961418 0.0236151 -2.08102e-19)
(1.01103 0.0359575 -1.78111e-19)
(1.04658 0.0486395 6.7046e-19)
(1.07409 0.059019 2.74057e-19)
(1.09704 0.065179 6.02714e-19)
(1.11663 0.0651698 1.4645e-19)
(1.13269 0.0589337 8.84553e-20)
(1.14404 0.0462896 -9.39312e-21)
(1.14951 0.0295975 -2.26735e-19)
(1.14858 0.0106592 -1.36383e-19)
(1.14113 -0.00781423 4.71898e-20)
(1.1293 -0.0227067 3.38564e-19)
(1.11329 -0.0354071 3.15746e-20)
(1.09741 -0.0399227 7.91702e-20)
(1.07972 -0.0456329 -2.62869e-19)
(1.06661 -0.0391514 -1.16299e-19)
(-0.0759521 0.0811646 -2.11123e-18)
(-0.0478624 0.0653552 -2.34178e-18)
(0.0246833 0.058238 -1.94618e-18)
(0.16121 0.0330938 -2.96816e-19)
(0.341354 0.0252592 -2.26019e-18)
(0.534675 0.017669 -1.23872e-19)
(0.707064 0.0159808 -5.68581e-19)
(0.840285 0.0169542 2.76181e-20)
(0.934376 0.0222758 7.12727e-19)
(0.996922 0.0308679 3.10034e-20)
(1.03809 0.041376 2.82671e-19)
(1.06633 0.0519004 -6.37741e-19)
(1.08759 0.0601686 -2.66267e-19)
(1.10517 0.0645851 6.45886e-19)
(1.12021 0.0634946 3.77948e-19)
(1.13255 0.0570194 -1.54407e-19)
(1.14107 0.0449493 -3.45359e-20)
(1.14478 0.0296049 5.33062e-19)
(1.14305 0.0122129 -1.66228e-19)
(1.13587 -0.00447652 1.1382e-19)
(1.12486 -0.0182134 -2.07797e-19)
(1.11026 -0.029909 -2.45766e-19)
(1.09575 -0.034247 -2.37109e-19)
(1.07965 -0.0400644 2.36452e-19)
(1.06751 -0.0342347 -2.18463e-19)
(-0.0784864 0.0807133 1.32333e-18)
(-0.0440145 0.0628285 1.50202e-18)
(0.0407029 0.0563503 8.73331e-20)
(0.195411 0.0332579 -2.47128e-19)
(0.392277 0.0288844 1.15367e-18)
(0.593309 0.0241456 9.6298e-19)
(0.763452 0.0241439 1.08269e-18)
(0.888737 0.025498 2.9459e-19)
(0.973135 0.0302465 -3.21126e-19)
(1.02648 0.0374815 3.45389e-19)
(1.05977 0.0461715 -6.01268e-20)
(1.08154 0.0546836 4.11973e-19)
(1.09749 0.0610702 1.52663e-19)
(1.11068 0.0639884 4.74015e-20)
(1.12209 0.0620268 2.02559e-20)
(1.1315 0.0554137 8.8896e-20)
(1.13783 0.0439118 -4.04424e-19)
(1.14019 0.0297775 -4.49233e-19)
(1.13789 0.0137436 8.75441e-20)
(1.13101 -0.00135316 -3.60855e-19)
(1.12074 -0.0141181 -9.82634e-20)
(1.10742 -0.0248541 5.23503e-21)
(1.09412 -0.0290954 2.52446e-21)
(1.07943 -0.0349434 1.10033e-19)
(1.06817 -0.0297056 2.77055e-19)
(-0.0810429 0.0800267 5.5228e-19)
(-0.0396403 0.0598424 -1.31639e-18)
(0.0586004 0.0542191 8.52065e-19)
(0.232802 0.0339043 -3.92509e-19)
(0.445229 0.0333105 5.93772e-19)
(0.650832 0.0311325 -1.37441e-19)
(0.81595 0.0323786 -8.32084e-19)
(0.931823 0.03373 4.26822e-20)
(1.0062 0.0376754 -7.38521e-20)
(1.05073 0.0434803 -8.84457e-22)
(1.07689 0.0504197 2.6981e-19)
(1.09306 0.0570872 -3.463e-19)
(1.10461 0.0618134 2.71252e-19)
(1.11426 0.0634487 6.09708e-20)
(1.1228 0.0607862 2.58538e-19)
(1.1299 0.0541039 1.74838e-19)
(1.13451 0.0431519 2.22819e-19)
(1.13582 0.0300937 -5.28579e-20)
(1.1331 0.015258 2.85567e-19)
(1.12653 0.00157771 1.80832e-19)
(1.11691 -0.010372 1.08867e-19)
(1.10475 -0.0201875 1.05016e-19)
(1.0925 -0.0244182 1.377e-19)
(1.07908 -0.0302146 -5.17268e-20)
(1.06861 -0.025531 -2.08597e-19)
(-0.0836087 0.0791072 -8.21281e-19)
(-0.0346232 0.0564069 3.00361e-19)
(0.0786883 0.051969 1.73959e-18)
(0.273408 0.0352164 1.58761e-18)
(0.499465 0.038529 -9.18689e-19)
(0.706317 0.0384882 -8.0332e-19)
(0.864053 0.0405402 -6.85168e-20)
(0.969573 0.0415633 -2.07294e-19)
(1.03401 0.0445468 5.33808e-19)
(1.07034 0.0489074 5.32376e-20)
(1.09021 0.0541976 1.7719e-19)
(1.10167 0.0591958 1.0633e-19)
(1.10963 0.0624662 7.81646e-20)
(1.11645 0.0630047 -4.6039e-19)
(1.12272 0.0597767 -3.49924e-19)
(1.12798 0.0530705 -5.161e-19)
(1.13123 0.0426422 -1.68006e-19)
(1.13169 0.0305334 4.444e-20)
(1.12868 0.0167616 -3.93911e-19)
(1.1224 0.00433338 -9.04424e-20)
(1.11336 -0.00693046 -5.84731e-20)
(1.10223 -0.0158629 -1.36753e-19)
(1.0909 -0.0201718 2.23896e-20)
(1.07863 -0.025826 -3.44784e-20)
(1.06886 -0.0216836 -1.57853e-20)
(-0.0861683 0.0779564 -1.00672e-18)
(-0.0288206 0.0525413 7.05309e-19)
(0.101298 0.0497701 -3.77893e-20)
(0.317081 0.0373474 -8.34217e-19)
(0.554121 0.0444657 7.04319e-19)
(0.758975 0.0460594 5.5792e-19)
(0.907489 0.0485067 -2.03729e-19)
(1.0022 0.0489428 -4.993e-19)
(1.05708 0.0508691 -1.75768e-19)
(1.08599 0.0538155 -8.74938e-19)
(1.10042 0.0575786 -6.6298e-19)
(1.10797 0.06108 1.11775e-19)
(1.11306 0.0630786 2.99849e-19)
(1.11764 0.0626786 2.89946e-19)
(1.1221 0.0589923 -3.2537e-19)
(1.12588 0.0522913 2.8247e-19)
(1.12804 0.0423559 1.07909e-19)
(1.12782 0.0310787 8.80116e-21)
(1.12458 0.0182585 2.75544e-19)
(1.11856 0.00692782 -5.97154e-20)
(1.11005 -0.00375252 -2.5583e-20)
(1.09986 -0.0118425 1.41191e-19)
(1.08931 -0.0163164 -4.97708e-20)
(1.0781 -0.0217293 2.02998e-19)
(1.06894 -0.0181448 -1.54268e-19)
(-0.088703 0.0765734 3.93183e-19)
(-0.0220592 0.0482782 -1.65171e-18)
(0.126754 0.0478365 -1.66714e-18)
(0.363478 0.0403938 -1.0579e-18)
(0.608294 0.0509958 1.05922e-18)
(0.808198 0.0536977 -6.81188e-19)
(0.946188 0.0561843 9.45908e-19)
(1.03005 0.0558409 5.82636e-19)
(1.07598 0.0566678 -1.4808e-19)
(1.09828 0.0582613 1.38758e-19)
(1.10812 0.0606286 4.13287e-19)
(1.11249 0.0627971 -7.36263e-20)
(1.11529 0.0636862 -9.30419e-20)
(1.1181 0.0624813 -5.23571e-20)
(1.12112 0.0584209 1.32327e-19)
(1.1237 0.0517428 -3.63845e-19)
(1.12497 0.0422668 -2.25684e-19)
(1.12418 0.0317143 2.68964e-19)
(1.12079 0.0197511 -8.56356e-20)
(1.11499 0.00937266 -3.19667e-20)
(1.10697 -0.000800333 1.69567e-19)
(1.0976 -0.00809605 -7.56591e-20)
(1.08774 -0.0128145 -2.05709e-19)
(1.07749 -0.0178815 -1.74778e-19)
(1.06888 -0.0149024 2.61427e-19)
(-0.0911901 0.0749547 4.81364e-20)
(-0.0141315 0.0436691 4.72913e-19)
(0.155337 0.0464163 5.31492e-19)
(0.412059 0.0443768 1.75039e-18)
(0.661123 0.0579665 -1.67847e-18)
(0.853575 0.0612733 5.24548e-19)
(0.980248 0.0635075 -5.82584e-19)
(1.05353 0.062252 1.60101e-19)
(1.09126 0.061979 -3.50852e-19)
(1.1078 0.0623015 -2.4648e-19)
(1.1138 0.0634056 -3.59831e-19)
(1.11562 0.0643922 -1.64973e-19)
(1.11663 0.0643133 2.17437e-19)
(1.11804 0.0624156 -2.32844e-19)
(1.1199 0.0580469 -2.21972e-19)
(1.1215 0.0514021 6.03772e-19)
(1.12203 0.0423503 5.53516e-19)
(1.12076 0.0324271 -6.97541e-20)
(1.11726 0.0212405 3.12217e-20)
(1.11166 0.0116782 8.78132e-20)
(1.10409 0.00196108 -1.27134e-19)
(1.09544 -0.00460049 1.39532e-19)
(1.08618 -0.00962888 1.47306e-19)
(1.07683 -0.0142461 -1.91043e-19)
(1.06869 -0.0119497 -2.29608e-19)
(-0.0936017 0.0730919 4.68552e-19)
(-0.00479431 0.0387933 9.76169e-19)
(0.187234 0.045768 -1.61434e-18)
(0.462125 0.0492395 -1.00172e-18)
(0.711861 0.0652195 8.22324e-19)
(0.894888 0.0686807 6.98047e-19)
(1.00989 0.0704363 8.58848e-19)
(1.07309 0.068187 -5.16326e-19)
(1.10343 0.0668445 2.77916e-19)
(1.11503 0.0659892 1.62207e-19)
(1.11789 0.0659592 -5.68549e-20)
(1.11769 0.0659002 -4.92981e-19)
(1.11729 0.0649754 -7.87487e-19)
(1.11761 0.0624792 -3.31383e-19)
(1.11852 0.0578532 5.81248e-19)
(1.11931 0.0512473 -1.04862e-19)
(1.11921 0.042584 -1.15899e-20)
(1.11755 0.0332064 1.31355e-19)
(1.11397 0.0227262 -3.26013e-21)
(1.10854 0.013854 1.09331e-19)