/*--------------------------------*- C++ -*----------------------------------*\
  =========                 |
  \\      /  F ield         | OpenFOAM: The Open Source CFD Toolbox
   \\    /   O peration     | Website:  https://openfoam.org
    \\  /    A nd           | Version:  7
     \\/     M anipulation  |
\*---------------------------------------------------------------------------*/
FoamFile
{
    version     2.0;
    format      ascii;
    class       volVectorField;
    location    "7.5";
    object      U;
}
// * * * * * * * * * * * * * * * * * * * * * * * * * * * * * * * * * * * * * //

dimensions      [0 1 -1 0 0 0 0];

internalField   nonuniform List<vector> 
2413
(
(0.181622 -0.049928 0)
(0.185219 -0.0523903 0)
(0.188969 -0.054753 0)
(0.192958 -0.0569973 0)
(0.197227 -0.0590577 0)
(0.201731 -0.0609221 0)
(0.206392 -0.0625848 0)
(0.211113 -0.0640388 0)
(0.21581 -0.0652731 0)
(0.22039 -0.0663051 0)
(0.224783 -0.0670837 0)
(0.228952 -0.0676388 0)
(0.232936 -0.0679327 0)
(0.236644 -0.0679908 0)
(0.240161 -0.067772 0)
(0.243677 -0.0674056 0)
(0.247218 -0.0669941 0)
(0.250909 -0.0664602 0)
(0.254666 -0.0656971 0)
(0.258426 -0.0647893 0)
(0.261992 -0.0637621 0)
(0.264946 -0.0623693 0)
(0.265926 -0.0600968 0)
(0.263982 -0.0570308 0)
(0.258211 -0.0527897 0)
(0.250413 -0.0482619 0)
(0.244061 -0.0449811 0)
(0.240365 -0.0438856 0)
(0.239341 -0.0446293 0)
(0.240709 -0.0469225 0)
(0.243639 -0.0501862 0)
(0.246816 -0.0537164 0)
(0.249551 -0.0572445 0)
(0.251788 -0.0604879 0)
(0.25349 -0.0634386 0)
(0.255058 -0.0659677 0)
(0.256793 -0.0682105 0)
(0.259231 -0.0698105 0)
(0.262388 -0.0706144 0)
(0.26604 -0.0712125 0)
(0.271057 -0.0717095 0)
(0.277279 -0.0719108 0)
(0.284278 -0.0713697 0)
(0.291729 -0.0702926 0)
(0.2992 -0.068391 0)
(0.306717 -0.0664158 0)
(0.313712 -0.0637804 0)
(0.319992 -0.0612959 0)
(0.323931 -0.0578734 0)
(0.325121 -0.0539476 0)
(0.323426 -0.0499674 0)
(0.020962 0.0373969 0)
(0.0238649 0.0338576 0)
(0.0269322 0.0299725 0)
(0.0303343 0.0260479 0)
(0.0340793 0.0223206 0)
(0.0381545 0.0190479 0)
(0.0424451 0.0162449 0)
(0.0468475 0.013776 0)
(0.0512363 0.0117305 0)
(0.0556136 0.0097347 0)
(0.0600549 0.00806644 0)
(0.0643369 0.00622684 0)
(0.0686773 0.00445833 0)
(0.0729899 0.00248219 0)
(0.0773965 0.000477714 0)
(0.0818481 -0.00166577 0)
(0.0863807 -0.0038192 0)
(0.0910157 -0.00593335 0)
(0.0956905 -0.00817887 0)
(0.100415 -0.0104834 0)
(0.105175 -0.0128207 0)
(0.109974 -0.0151788 0)
(0.114812 -0.0175478 0)
(0.1197 -0.0198445 0)
(0.124628 -0.0220208 0)
(0.129566 -0.0240923 0)
(0.134481 -0.0261205 0)
(0.139359 -0.0281409 0)
(0.144186 -0.0301959 0)
(0.148931 -0.032326 0)
(0.153566 -0.0345358 0)
(0.158044 -0.0368389 0)
(0.16233 -0.0392392 0)
(0.166402 -0.0417448 0)
(0.170274 -0.0443328 0)
(0.173989 -0.0469708 0)
(0.177626 -0.0495987 0)
(0.181235 -0.052202 0)
(0.184935 -0.0546982 0)
(0.188764 -0.0570741 0)
(0.192802 -0.0593358 0)
(0.197135 -0.0613754 0)
(0.201701 -0.063208 0)
(0.206456 -0.0648077 0)
(0.211298 -0.0661858 0)
(0.216141 -0.0673487 0)
(0.220903 -0.0683128 0)
(0.225508 -0.0690225 0)
(0.229942 -0.0695179 0)
(0.234152 -0.069758 0)
(0.238088 -0.0697472 0)
(0.241791 -0.0694669 0)
(0.24542 -0.0690651 0)
(0.249049 -0.0686032 0)
(0.252722 -0.0679677 0)
(0.256518 -0.0671034 0)
(0.260384 -0.0661254 0)
(0.264221 -0.0651213 0)
(0.267802 -0.0640245 0)
(0.270197 -0.0623977 0)
(0.269945 -0.0598327 0)
(0.266263 -0.0562243 0)
(0.25927 -0.051761 0)
(0.251921 -0.0478165 0)
(0.246939 -0.0458935 0)
(0.244555 -0.046135 0)
(0.245002 -0.0480827 0)
(0.24787 -0.0513952 0)
(0.251399 -0.0552637 0)
(0.254673 -0.0591295 0)
(0.257389 -0.0625924 0)
(0.259334 -0.0655851 0)
(0.260798 -0.0679912 0)
(0.262119 -0.0700095 0)
(0.26403 -0.0713193 0)
(0.266665 -0.0718712 0)
(0.26998 -0.0722506 0)
(0.274244 -0.0724937 0)
(0.280181 -0.0727297 0)
(0.286866 -0.0722147 0)
(0.294252 -0.0713364 0)
(0.301774 -0.06954 0)
(0.309298 -0.0676169 0)
(0.316374 -0.065045 0)
(0.322852 -0.0624277 0)
(0.327272 -0.0588758 0)
(0.32877 -0.0545902 0)
(0.326872 -0.0502888 0)
(0.0192034 0.0399112 0)
(0.0219056 0.0362196 0)
(0.0249905 0.0323737 0)
(0.0285781 0.0286782 0)
(0.0324524 0.025003 0)
(0.0366755 0.0216496 0)
(0.0411085 0.018816 0)
(0.0456272 0.0163399 0)
(0.0503509 0.0144761 0)
(0.0548006 0.0124026 0)
(0.0592497 0.0105499 0)
(0.0634557 0.00834789 0)
(0.0676396 0.00611034 0)
(0.0717659 0.0037272 0)
(0.0759875 0.00136478 0)
(0.0803154 -0.000990018 0)
(0.0847272 -0.00349391 0)
(0.0891865 -0.00618851 0)
(0.0937239 -0.00896672 0)
(0.0983709 -0.0117942 0)
(0.103136 -0.0146615 0)
(0.108031 -0.0174844 0)
(0.113038 -0.020193 0)
(0.11812 -0.0227203 0)
(0.123226 -0.0250667 0)
(0.128342 -0.0272503 0)
(0.133446 -0.0293342 0)
(0.138508 -0.0313642 0)
(0.143495 -0.0333761 0)
(0.148368 -0.0354059 0)
(0.153096 -0.0374769 0)
(0.157643 -0.0396158 0)
(0.161982 -0.0418362 0)
(0.166099 -0.0441597 0)
(0.170027 -0.0465716 0)
(0.173803 -0.0490549 0)
(0.177506 -0.0515456 0)
(0.181174 -0.05403 0)
(0.184897 -0.0564376 0)
(0.188791 -0.0586833 0)
(0.19287 -0.0608505 0)
(0.197254 -0.0627989 0)
(0.201888 -0.064558 0)
(0.206736 -0.066084 0)
(0.211705 -0.0673817 0)
(0.216705 -0.0684684 0)
(0.221644 -0.0693706 0)
(0.226459 -0.0700374 0)
(0.231114 -0.0705202 0)
(0.23553 -0.0707598 0)
(0.239676 -0.0707412 0)
(0.243565 -0.0704799 0)
(0.247321 -0.070103 0)
(0.251079 -0.0696071 0)
(0.254779 -0.06887 0)
(0.258615 -0.0679168 0)
(0.262586 -0.0668949 0)
(0.266645 -0.065933 0)
(0.27059 -0.0650693 0)
(0.274208 -0.0640233 0)
(0.275721 -0.062101 0)
(0.27413 -0.0591964 0)
(0.268976 -0.0552103 0)
(0.261546 -0.0509871 0)
(0.255247 -0.0480569 0)
(0.251272 -0.0478135 0)
(0.250372 -0.0489944 0)
(0.252396 -0.0520696 0)
(0.25591 -0.0560933 0)
(0.259525 -0.0602936 0)
(0.262606 -0.0640357 0)
(0.264829 -0.0670806 0)
(0.266336 -0.0693564 0)
(0.267355 -0.0711855 0)
(0.268736 -0.0722681 0)
(0.270834 -0.0726141 0)
(0.273794 -0.0728218 0)
(0.27734 -0.0728266 0)
(0.282849 -0.0729472 0)
(0.289232 -0.0724714 0)
(0.29642 -0.0717465 0)
(0.303943 -0.0700675 0)
(0.311526 -0.0680819 0)
(0.318688 -0.0655316 0)
(0.325265 -0.0627021 0)
(0.330141 -0.0591732 0)
(0.332257 -0.0548107 0)
(0.330246 -0.0502068 0)
(0.0178353 0.0437953 0)
(0.0207083 0.0403407 0)
(0.0238492 0.0364795 0)
(0.0274934 0.0326278 0)
(0.0314472 0.0290331 0)
(0.0355588 0.0257503 0)
(0.0402034 0.0230558 0)
(0.0447717 0.0203473 0)
(0.0494337 0.0179898 0)
(0.053795 0.0152755 0)
(0.0581146 0.012698 0)
(0.0621716 0.0099383 0)
(0.066253 0.0072848 0)
(0.0702829 0.00441972 0)
(0.07438 0.00147558 0)
(0.0785178 -0.00160115 0)
(0.0827367 -0.00475814 0)
(0.0870656 -0.00794752 0)
(0.091519 -0.0111758 0)
(0.0961609 -0.014353 0)
(0.101004 -0.0174303 0)
(0.106038 -0.0203293 0)
(0.111204 -0.0230351 0)
(0.116481 -0.0255253 0)
(0.121814 -0.0278481 0)
(0.127169 -0.0300333 0)
(0.132514 -0.0321128 0)
(0.137808 -0.0341231 0)
(0.143016 -0.036083 0)
(0.148087 -0.038013 0)
(0.152969 -0.0399503 0)
(0.157637 -0.041932 0)
(0.162076 -0.0439709 0)
(0.166279 -0.0460979 0)
(0.170281 -0.0483022 0)
(0.174118 -0.0505742 0)
(0.17785 -0.0528692 0)
(0.181546 -0.0551566 0)
(0.185265 -0.0574092 0)
(0.18916 -0.0594977 0)
(0.193264 -0.0615186 0)
(0.197675 -0.0633634 0)
(0.202381 -0.0650351 0)
(0.207312 -0.0665012 0)
(0.212372 -0.0677312 0)
(0.217484 -0.0687542 0)
(0.22255 -0.0696125 0)
(0.22755 -0.0702532 0)
(0.232383 -0.0707253 0)
(0.237007 -0.0709415 0)
(0.241374 -0.070903 0)
(0.245479 -0.0706645 0)
(0.249397 -0.0703414 0)
(0.25326 -0.0698652 0)
(0.257125 -0.069088 0)
(0.260986 -0.0680425 0)
(0.265052 -0.066947 0)
(0.269298 -0.0659685 0)
(0.273654 -0.0652124 0)
(0.277839 -0.0646231 0)
(0.281194 -0.0637333 0)
(0.281557 -0.0617671 0)
(0.278592 -0.0587374 0)
(0.272335 -0.0547859 0)
(0.265129 -0.0512904 0)
(0.259706 -0.0499233 0)
(0.25704 -0.0506726 0)
(0.257532 -0.0529228 0)
(0.260506 -0.0567114 0)
(0.264218 -0.0609945 0)
(0.267569 -0.064988 0)
(0.270035 -0.0682188 0)
(0.271639 -0.0704929 0)
(0.272476 -0.0721713 0)
(0.273389 -0.0730512 0)
(0.274951 -0.0732098 0)
(0.277439 -0.0732049 0)
(0.280585 -0.0730066 0)
(0.285353 -0.0728117 0)
(0.291426 -0.0723621 0)
(0.298328 -0.0717037 0)
(0.305736 -0.070115 0)
(0.313371 -0.0681685 0)
(0.320593 -0.0655781 0)
(0.327201 -0.0624571 0)
(0.332477 -0.0588367 0)
(0.335125 -0.0544069 0)
(0.333444 -0.0495182 0)
(0.0172271 0.0488912 0)
(0.0201926 0.0453119 0)
(0.0234359 0.0415889 0)
(0.0270897 0.0378436 0)
(0.0308585 0.0341129 0)
(0.0350234 0.0305134 0)
(0.0393578 0.0272068 0)
(0.0436032 0.0237825 0)
(0.0480185 0.0207094 0)
(0.0521623 0.0173799 0)
(0.0563989 0.0142945 0)
(0.0604452 0.0109195 0)
(0.0644445 0.00749686 0)
(0.0683461 0.00392435 0)
(0.0722965 0.000309025 0)
(0.0763084 -0.00332443 0)
(0.0804118 -0.00693236 0)
(0.0847351 -0.0103774 0)
(0.089272 -0.0136568 0)
(0.0940565 -0.0167305 0)
(0.0990657 -0.0196159 0)
(0.104292 -0.0222777 0)
(0.109656 -0.0247673 0)
(0.115123 -0.0270843 0)
(0.120635 -0.0292702 0)
(0.126157 -0.0313925 0)
(0.131689 -0.0334491 0)
(0.137189 -0.0354763 0)
(0.142628 -0.0374537 0)
(0.147928 -0.0394069 0)
(0.153016 -0.0413461 0)
(0.157865 -0.0433161 0)
(0.162479 -0.0453025 0)
(0.166852 -0.0473228 0)
(0.170999 -0.0493742 0)
(0.174953 -0.0514421 0)
(0.178752 -0.0535095 0)
(0.182476 -0.0555461 0)
(0.186199 -0.0575634 0)
(0.190064 -0.059478 0)
(0.19413 -0.0613623 0)
(0.198496 -0.0631263 0)
(0.203172 -0.0647515 0)
(0.20812 -0.066209 0)
(0.213204 -0.0674743 0)
(0.218346 -0.068528 0)
(0.223494 -0.0694137 0)
(0.228618 -0.0701002 0)
(0.2336 -0.0706493 0)
(0.238404 -0.0709401 0)
(0.24298 -0.0709755 0)
(0.247315 -0.0708034 0)
(0.251452 -0.0705142 0)
(0.255489 -0.0700232 0)
(0.259522 -0.0692011 0)
(0.26359 -0.0681087 0)
(0.267751 -0.0669305 0)
(0.27216 -0.0659313 0)
(0.276791 -0.0652716 0)
(0.281479 -0.0648909 0)
(0.28594 -0.0645979 0)
(0.28856 -0.0636348 0)
(0.287764 -0.0617071 0)
(0.283606 -0.0587752 0)
(0.27665 -0.0552753 0)
(0.269875 -0.0529243 0)
(0.265328 -0.0528899 0)
(0.263858 -0.0544313 0)
(0.265544 -0.0578271 0)
(0.268832 -0.0619938 0)
(0.272319 -0.0659932 0)
(0.275092 -0.0693002 0)
(0.276874 -0.0716631 0)
(0.277635 -0.0733042 0)
(0.278154 -0.0740859 0)
(0.279187 -0.0740826 0)
(0.281133 -0.0738188 0)
(0.284062 -0.0735454 0)
(0.287861 -0.0728538 0)
(0.293534 -0.0722579 0)
(0.300162 -0.0715092 0)
(0.307357 -0.0698865 0)
(0.314949 -0.0677326 0)
(0.322217 -0.0649411 0)
(0.328777 -0.0615415 0)
(0.33427 -0.0577485 0)
(0.337303 -0.0532465 0)
(0.336197 -0.0482757 0)
(0.0175213 0.0547609 0)
(0.020551 0.0512868 0)
(0.023767 0.0473186 0)
(0.0270644 0.0429409 0)
(0.030497 0.0385087 0)
(0.0342107 0.0342099 0)
(0.038117 0.0302424 0)
(0.0419471 0.0262772 0)
(0.0461629 0.0227731 0)
(0.0501993 0.0189196 0)
(0.0543172 0.0150603 0)
(0.0582424 0.0109287 0)
(0.0621903 0.0067723 0)
(0.066063 0.0025636 0)
(0.0699901 -0.00151533 0)
(0.0740817 -0.00535935 0)
(0.0783475 -0.00894056 0)
(0.0828447 -0.0122178 0)
(0.087577 -0.0152259 0)
(0.092538 -0.0179596 0)
(0.0976734 -0.0205134 0)
(0.102996 -0.0228674 0)
(0.108448 -0.0250963 0)
(0.114008 -0.0272424 0)
(0.119641 -0.0293324 0)
(0.125286 -0.0314699 0)
(0.130959 -0.0335601 0)
(0.136621 -0.0356652 0)
(0.14225 -0.0377327 0)
(0.147762 -0.0398021 0)
(0.153117 -0.0418703 0)
(0.158265 -0.0439287 0)
(0.163164 -0.0459504 0)
(0.167795 -0.0479331 0)
(0.17215 -0.0498869 0)
(0.176232 -0.0518237 0)
(0.180084 -0.0537193 0)
(0.183789 -0.0555938 0)
(0.18746 -0.0574739 0)
(0.191246 -0.0592887 0)
(0.195223 -0.0611057 0)
(0.199499 -0.0628247 0)
(0.204098 -0.0644367 0)
(0.208982 -0.0658935 0)
(0.214066 -0.067202 0)
(0.21922 -0.0683584 0)
(0.224443 -0.0693403 0)
(0.229639 -0.0701445 0)
(0.234752 -0.0707864 0)
(0.239734 -0.0711577 0)
(0.244533 -0.0712911 0)
(0.249127 -0.0712252 0)
(0.253531 -0.0710216 0)
(0.257805 -0.0705478 0)
(0.26204 -0.0697051 0)
(0.266335 -0.0685559 0)
(0.270754 -0.0673023 0)
(0.275321 -0.0661875 0)
(0.280169 -0.0654644 0)
(0.285223 -0.06524 0)
(0.290194 -0.0654178 0)
(0.294696 -0.0656473 0)
(0.296233 -0.0646285 0)
(0.294248 -0.0630431 0)
(0.288969 -0.0604511 0)
(0.281587 -0.0576535 0)
(0.275287 -0.0565521 0)
(0.271698 -0.0574881 0)
(0.271441 -0.0598977 0)
(0.273698 -0.0637756 0)
(0.27694 -0.0677909 0)
(0.279943 -0.0711144 0)
(0.282013 -0.0734555 0)
(0.282907 -0.0749586 0)
(0.283207 -0.0756486 0)
(0.283772 -0.0754211 0)
(0.285105 -0.0748381 0)
(0.28775 -0.0744409 0)
(0.290715 -0.0732937 0)
(0.295832 -0.0724711 0)
(0.302076 -0.0714529 0)
(0.309049 -0.0696994 0)
(0.316464 -0.0672688 0)
(0.323744 -0.0642593 0)
(0.330224 -0.0606398 0)
(0.335685 -0.0565905 0)
(0.338983 -0.0519824 0)
(0.338504 -0.0469445 0)
(0.0184698 0.0609332 0)
(0.0211871 0.056866 0)
(0.0240674 0.052203 0)
(0.0269225 0.0470405 0)
(0.0300165 0.0419712 0)
(0.0331768 0.0370228 0)
(0.0367192 0.0323885 0)
(0.0401742 0.0276816 0)
(0.0440753 0.0233665 0)
(0.047875 0.0188268 0)
(0.0519232 0.0143855 0)
(0.0559215 0.00982412 0)
(0.0600448 0.00541868 0)
(0.0641867 0.00118745 0)
(0.0683829 -0.00278093 0)
(0.0726093 -0.00638008 0)
(0.0770199 -0.00962271 0)
(0.0816179 -0.0125319 0)
(0.0864088 -0.0152568 0)
(0.0914523 -0.017777 0)
(0.0966821 -0.0201832 0)
(0.102078 -0.0224438 0)
(0.107584 -0.0246058 0)
(0.113175 -0.0267304 0)
(0.11886 -0.0287551 0)
(0.124578 -0.0308576 0)
(0.130365 -0.0329792 0)
(0.136164 -0.035198 0)
(0.141986 -0.037455 0)
(0.14774 -0.039731 0)
(0.153366 -0.0419621 0)
(0.158788 -0.0442034 0)
(0.163971 -0.0464341 0)
(0.16886 -0.0486409 0)
(0.173435 -0.0507512 0)
(0.177693 -0.0527614 0)
(0.181654 -0.0547033 0)
(0.185392 -0.0566057 0)
(0.189034 -0.0584848 0)
(0.192755 -0.0602551 0)
(0.196624 -0.0620475 0)
(0.200788 -0.0637395 0)
(0.205278 -0.065335 0)
(0.210089 -0.066788 0)
(0.21511 -0.0681181 0)
(0.220248 -0.0693043 0)
(0.22552 -0.0703627 0)
(0.230704 -0.0713111 0)
(0.235884 -0.0720481 0)
(0.240997 -0.0725061 0)
(0.245997 -0.0727198 0)
(0.250858 -0.0727181 0)
(0.255572 -0.0725286 0)
(0.260152 -0.072022 0)
(0.264664 -0.0711441 0)
(0.269211 -0.0699519 0)
(0.273907 -0.0686653 0)
(0.278792 -0.0674866 0)
(0.283828 -0.0666855 0)
(0.289141 -0.0663962 0)
(0.294579 -0.0665675 0)
(0.299818 -0.067321 0)
(0.303794 -0.0677794 0)
(0.304229 -0.0668992 0)
(0.30107 -0.0658976 0)
(0.294635 -0.0635325 0)
(0.287019 -0.0617186 0)
(0.28128 -0.0616929 0)
(0.278723 -0.0633361 0)
(0.27941 -0.0662634 0)
(0.281924 -0.069966 0)
(0.284852 -0.0733463 0)
(0.287187 -0.0757407 0)
(0.288346 -0.0771855 0)
(0.288625 -0.0778064 0)
(0.288833 -0.0773208 0)
(0.289493 -0.0763825 0)
(0.29152 -0.0755864 0)
(0.294336 -0.0741429 0)
(0.298565 -0.0727944 0)
(0.30423 -0.0712173 0)
(0.311092 -0.0693576 0)
(0.318171 -0.0666057 0)
(0.325278 -0.0633245 0)
(0.331653 -0.0595611 0)
(0.336817 -0.055285 0)
(0.340258 -0.0506323 0)
(0.340435 -0.0455448 0)
(0.0193611 0.0663213 0)
(0.0217282 0.0614527 0)
(0.024248 0.0560414 0)
(0.0266163 0.0501657 0)
(0.0293533 0.0441938 0)
(0.0320603 0.0383386 0)
(0.0351838 0.0329883 0)
(0.038345 0.0278256 0)
(0.0419459 0.0230155 0)
(0.0457025 0.018267 0)
(0.0497952 0.0138215 0)
(0.053955 0.0095321 0)
(0.0582573 0.00545465 0)
(0.0626252 0.00149141 0)
(0.0669834 -0.00230517 0)
(0.071468 -0.00586709 0)
(0.0760935 -0.00911798 0)
(0.080897 -0.0119954 0)
(0.0858487 -0.0145597 0)
(0.0909905 -0.0168323 0)
(0.0962734 -0.0189761 0)
(0.101671 -0.0210494 0)
(0.107144 -0.02315 0)
(0.112677 -0.0253721 0)
(0.118332 -0.0275451 0)
(0.124036 -0.0299077 0)
(0.12987 -0.0323456 0)
(0.135804 -0.0348523 0)
(0.141775 -0.0373337 0)
(0.147693 -0.0398722 0)
(0.153537 -0.0424632 0)
(0.159225 -0.0451097 0)
(0.164698 -0.0477501 0)
(0.169885 -0.0503338 0)
(0.174735 -0.0528364 0)
(0.179215 -0.0552172 0)
(0.183369 -0.0573997 0)
(0.187267 -0.0593626 0)
(0.190972 -0.0612105 0)
(0.19468 -0.0628405 0)
(0.198443 -0.0644742 0)
(0.202441 -0.0660289 0)
(0.206737 -0.0675484 0)
(0.211368 -0.0690054 0)
(0.216289 -0.070376 0)
(0.221417 -0.0715773 0)
(0.226713 -0.0725395 0)
(0.232025 -0.0733846 0)
(0.237245 -0.0740913 0)
(0.242445 -0.0745136 0)
(0.247599 -0.0747051 0)
(0.252683 -0.0747023 0)
(0.257672 -0.0745112 0)
(0.262562 -0.0739889 0)
(0.267395 -0.0730818 0)
(0.272252 -0.0718587 0)
(0.277245 -0.0705284 0)
(0.282428 -0.069273 0)
(0.287815 -0.0683591 0)
(0.293289 -0.0680368 0)
(0.298995 -0.0683166 0)
(0.304646 -0.0692076 0)
(0.30993 -0.0706472 0)
(0.312931 -0.0714584 0)
(0.312257 -0.0711203 0)
(0.307783 -0.0702202 0)
(0.300251 -0.0682411 0)
(0.29276 -0.067224 0)
(0.287741 -0.0679564 0)
(0.286172 -0.0699026 0)
(0.287556 -0.0726752 0)
(0.29008 -0.0758032 0)
(0.292568 -0.0781976 0)
(0.294159 -0.0794155 0)
(0.29463 -0.0798684 0)
(0.294611 -0.0791068 0)
(0.294634 -0.0777454 0)
(0.295876 -0.0762888 0)
(0.298636 -0.0747104 0)
(0.302007 -0.0727567 0)
(0.306939 -0.0705277 0)
(0.313573 -0.0685862 0)
(0.320317 -0.0655862 0)
(0.32706 -0.0621214 0)
(0.333253 -0.0583103 0)
(0.338006 -0.0540091 0)
(0.34144 -0.0494441 0)
(0.342255 -0.0443662 0)
(0.0200243 0.0703821 0)
(0.0220892 0.0650477 0)
(0.0241745 0.0589698 0)
(0.0262456 0.0523282 0)
(0.0285025 0.045597 0)
(0.0310175 0.0391717 0)
(0.0338774 0.0332999 0)
(0.0369343 0.027924 0)
(0.0403907 0.0231501 0)
(0.0441749 0.0187567 0)
(0.0483246 0.0144748 0)
(0.0526489 0.0102594 0)
(0.0571289 0.00637878 0)
(0.0616262 0.00277064 0)
(0.0662776 -0.000604156 0)
(0.0710375 -0.00372023 0)
(0.075871 -0.00670796 0)
(0.0808207 -0.00952989 0)
(0.0858429 -0.0122517 0)
(0.0909836 -0.014808 0)
(0.096202 -0.0173026 0)
(0.101517 -0.0197422 0)
(0.106911 -0.0221655 0)
(0.112354 -0.0247161 0)
(0.117963 -0.0271834 0)
(0.123661 -0.0298001 0)
(0.129539 -0.0324169 0)
(0.13553 -0.0351109 0)
(0.141526 -0.0379565 0)
(0.147494 -0.0409988 0)
(0.15345 -0.0442429 0)
(0.159334 -0.0475769 0)
(0.165045 -0.0508622 0)
(0.170501 -0.0540195 0)
(0.175657 -0.0569339 0)
(0.180475 -0.0595501 0)
(0.184919 -0.0618754 0)
(0.189057 -0.0638976 0)
(0.19297 -0.0656902 0)
(0.196821 -0.0671172 0)
(0.20063 -0.0684708 0)
(0.204582 -0.0697061 0)
(0.208777 -0.0708613 0)
(0.21329 -0.0719464 0)
(0.218117 -0.0729755 0)
(0.223157 -0.073998 0)
(0.228297 -0.0749916 0)
(0.233607 -0.0756691 0)
(0.238946 -0.0761615 0)
(0.244233 -0.0764291 0)
(0.249493 -0.0765527 0)
(0.25474 -0.0765103 0)
(0.259943 -0.0763042 0)
(0.265091 -0.0757914 0)
(0.270215 -0.0749066 0)
(0.27538 -0.0737267 0)
(0.280663 -0.0724387 0)
(0.286107 -0.0712082 0)
(0.291757 -0.0702995 0)
(0.297588 -0.0699013 0)
(0.303462 -0.0701564 0)
(0.309465 -0.0710769 0)
(0.31526 -0.0726618 0)
(0.320204 -0.0746516 0)
(0.322137 -0.0757744 0)
(0.320127 -0.0761589 0)
(0.314374 -0.0750556 0)
(0.30612 -0.0734203 0)
(0.298992 -0.0728444 0)
(0.294921 -0.0738918 0)
(0.294279 -0.0756726 0)
(0.296075 -0.0778867 0)
(0.298472 -0.0801167 0)
(0.300392 -0.0814787 0)
(0.301215 -0.0817617 0)
(0.301175 -0.0807084 0)
(0.300827 -0.078844 0)
(0.301207 -0.0765939 0)
(0.303448 -0.0745614 0)
(0.306414 -0.0718536 0)
(0.310623 -0.0691982 0)
(0.316373 -0.0664842 0)
(0.323099 -0.063708 0)
(0.329208 -0.0600606 0)
(0.33498 -0.0561949 0)
(0.339336 -0.0519836 0)
(0.342574 -0.0475933 0)
(0.343972 -0.0426755 0)
(0.0205501 0.0736872 0)
(0.022503 0.0680372 0)
(0.0243606 0.0615244 0)
(0.0262579 0.0545027 0)
(0.0283332 0.0474399 0)
(0.0305636 0.0407819 0)
(0.0332461 0.0347973 0)
(0.0362902 0.0293295 0)
(0.0398614 0.024438 0)
(0.0438304 0.0201762 0)
(0.0481462 0.0165644 0)
(0.0526098 0.0131117 0)
(0.0571759 0.00971337 0)
(0.0617798 0.00633871 0)
(0.066396 0.0029195 0)
(0.0710565 -0.000516407 0)
(0.0757868 -0.00399141 0)
(0.0806764 -0.00736217 0)
(0.0856812 -0.0106592 0)
(0.0907971 -0.0138153 0)
(0.0959733 -0.0169291 0)
(0.101229 -0.0199414 0)
(0.106599 -0.0226932 0)
(0.112012 -0.0254763 0)
(0.117639 -0.0280725 0)
(0.123379 -0.0308609 0)
(0.129221 -0.033854 0)
(0.135101 -0.037112 0)
(0.141028 -0.0405868 0)
(0.147104 -0.0441188 0)
(0.153271 -0.047604 0)
(0.159418 -0.0510446 0)
(0.16538 -0.05438 0)
(0.171182 -0.0575517 0)
(0.176655 -0.0605121 0)
(0.181756 -0.0631865 0)
(0.186513 -0.0654915 0)
(0.190941 -0.0674237 0)
(0.195035 -0.0691723 0)
(0.199019 -0.0705096 0)
(0.202933 -0.0716979 0)
(0.206942 -0.0727312 0)
(0.211162 -0.0736327 0)
(0.215667 -0.07446 0)
(0.220489 -0.0752061 0)
(0.225573 -0.075853 0)
(0.230838 -0.0763265 0)
(0.236139 -0.0769175 0)
(0.241545 -0.0772895 0)
(0.246843 -0.0774286 0)
(0.252195 -0.0774247 0)
(0.257525 -0.0773655 0)
(0.262838 -0.0771808 0)
(0.268129 -0.076761 0)
(0.273429 -0.0760498 0)
(0.278803 -0.0750744 0)
(0.284302 -0.073929 0)
(0.289961 -0.0727684 0)
(0.295826 -0.0718398 0)
(0.301861 -0.0714206 0)
(0.308026 -0.0716193 0)
(0.314178 -0.0726553 0)
(0.320304 -0.0744107 0)
(0.326031 -0.0769627 0)
(0.330211 -0.0794193 0)
(0.331033 -0.0809208 0)
(0.327706 -0.0814125 0)
(0.320707 -0.080001 0)
(0.312239 -0.0783808 0)
(0.305784 -0.0779295 0)
(0.302855 -0.0787983 0)
(0.302967 -0.0803114 0)
(0.304973 -0.0815989 0)
(0.307132 -0.0825032 0)
(0.308412 -0.0826077 0)
(0.308618 -0.0815428 0)
(0.308205 -0.0794257 0)
(0.30782 -0.0766324 0)
(0.309283 -0.0738427 0)
(0.311447 -0.0702221 0)
(0.315787 -0.0673132 0)
(0.31966 -0.063562 0)
(0.32639 -0.0609131 0)
(0.331863 -0.0572842 0)
(0.337003 -0.0534292 0)
(0.3411 -0.0493802 0)
(0.343998 -0.0452006 0)
(0.345881 -0.04055 0)
(0.0216816 0.0765904 0)
(0.0235971 0.0708503 0)
(0.0254082 0.0644625 0)
(0.0271421 0.0575073 0)
(0.0290911 0.050368 0)
(0.0313036 0.043451 0)
(0.0339932 0.0372812 0)
(0.0371815 0.0321368 0)
(0.0409625 0.02779 0)
(0.0450858 0.0239801 0)
(0.0492382 0.0204884 0)
(0.0534346 0.017042 0)
(0.0577329 0.0134741 0)
(0.0620731 0.00967636 0)
(0.0664216 0.00563629 0)
(0.0709035 0.00147855 0)
(0.0755463 -0.00270498 0)
(0.0803793 -0.00681631 0)
(0.0852735 -0.0109544 0)
(0.0902597 -0.0149008 0)
(0.0953717 -0.0185546 0)
(0.100659 -0.0219759 0)
(0.106127 -0.0252627 0)
(0.11164 -0.0286289 0)
(0.117369 -0.0317458 0)
(0.123165 -0.0348209 0)
(0.12901 -0.0378839 0)
(0.134942 -0.0409708 0)
(0.141042 -0.0440911 0)
(0.147292 -0.0473096 0)
(0.153719 -0.0504856 0)
(0.16006 -0.0536756 0)
(0.166336 -0.0567649 0)
(0.172394 -0.0597465 0)
(0.17814 -0.0625615 0)
(0.183497 -0.0651505 0)
(0.188444 -0.067446 0)
(0.193058 -0.0693293 0)
(0.197314 -0.0710448 0)
(0.201429 -0.0723732 0)
(0.205476 -0.0734714 0)
(0.209572 -0.0744079 0)
(0.213859 -0.0751649 0)
(0.218417 -0.0758221 0)
(0.223276 -0.076402 0)
(0.22839 -0.0768961 0)
(0.233692 -0.0772545 0)
(0.239113 -0.0774126 0)
(0.244579 -0.0776591 0)
(0.250092 -0.0779439 0)
(0.255488 -0.077969 0)
(0.260906 -0.0778487 0)
(0.266286 -0.0777335 0)
(0.271644 -0.0774488 0)
(0.277052 -0.0768459 0)
(0.28258 -0.0760261 0)
(0.288246 -0.0750532 0)
(0.294055 -0.0740891 0)
(0.300014 -0.073403 0)
(0.306142 -0.0730962 0)
(0.31243 -0.0733053 0)
(0.318815 -0.0741335 0)
(0.325216 -0.0757097 0)
(0.331403 -0.0781442 0)
(0.336899 -0.081286 0)
(0.340206 -0.0840718 0)
(0.339843 -0.0859076 0)
(0.335245 -0.0859867 0)
(0.327282 -0.0840179 0)
(0.319032 -0.0822261 0)
(0.313484 -0.0816398 0)
(0.311705 -0.0820282 0)
(0.312418 -0.0832996 0)
(0.314292 -0.0839263 0)
(0.315853 -0.0833096 0)
(0.316498 -0.0819369 0)
(0.316249 -0.0793274 0)
(0.315393 -0.0757699 0)
(0.315858 -0.0721766 0)
(0.317505 -0.0682726 0)
(0.32163 -0.0649967 0)
(0.324031 -0.0606521 0)
(0.330052 -0.057653 0)
(0.335104 -0.0538907 0)
(0.339473 -0.0500969 0)
(0.343314 -0.0462513 0)
(0.345789 -0.0421426 0)
(0.347975 -0.0376651 0)
(0.0234489 0.0798251 0)
(0.0255111 0.0743248 0)
(0.0275711 0.068095 0)
(0.0295343 0.061381 0)
(0.031709 0.0545401 0)
(0.0339852 0.0479596 0)
(0.0365483 0.0421241 0)
(0.0397015 0.0370095 0)
(0.0431687 0.0325271 0)
(0.0468273 0.0282549 0)
(0.0506396 0.0240449 0)
(0.0544819 0.0197835 0)
(0.0583221 0.0153445 0)
(0.0622938 0.0107518 0)
(0.0664208 0.00593728 0)
(0.0706267 0.000953218 0)
(0.0749781 -0.00405075 0)
(0.0795762 -0.00892363 0)
(0.0843251 -0.0136864 0)
(0.0893628 -0.0181728 0)
(0.0946429 -0.0224072 0)
(0.10012 -0.026291 0)
(0.105831 -0.0296759 0)
(0.111608 -0.0329212 0)
(0.11759 -0.0357914 0)
(0.123671 -0.0384663 0)
(0.129831 -0.0410725 0)
(0.13611 -0.0436754 0)
(0.142536 -0.04635 0)
(0.149072 -0.0491213 0)
(0.155623 -0.0520747 0)
(0.16217 -0.0549665 0)
(0.168485 -0.0580139 0)
(0.17458 -0.0609969 0)
(0.18034 -0.0638285 0)
(0.185739 -0.0664134 0)
(0.190741 -0.0687307 0)
(0.195431 -0.0706468 0)
(0.199784 -0.0724061 0)
(0.203975 -0.0738429 0)
(0.208151 -0.0749402 0)
(0.212372 -0.075838 0)
(0.216753 -0.0765305 0)
(0.221362 -0.0770966 0)
(0.226248 -0.0775099 0)
(0.231389 -0.0777584 0)
(0.236708 -0.0778883 0)
(0.242136 -0.0780001 0)
(0.247654 -0.0779685 0)
(0.253363 -0.0777504 0)
(0.258969 -0.077724 0)
(0.264532 -0.0778826 0)
(0.270014 -0.0778604 0)
(0.275482 -0.0776896 0)
(0.280962 -0.0775004 0)
(0.286528 -0.0771838 0)
(0.292252 -0.0766782 0)
(0.298195 -0.0760834 0)
(0.304357 -0.0753669 0)
(0.310692 -0.0747885 0)
(0.317092 -0.0748644 0)
(0.323504 -0.0757768 0)
(0.329987 -0.0773646 0)
(0.336442 -0.0796684 0)
(0.342596 -0.0827326 0)
(0.347653 -0.0861796 0)
(0.350072 -0.089041 0)
(0.348466 -0.0906991 0)
(0.342712 -0.090014 0)
(0.334181 -0.0875388 0)
(0.326463 -0.085389 0)
(0.322015 -0.0842967 0)
(0.321267 -0.0843009 0)
(0.322467 -0.0845712 0)
(0.323912 -0.0844513 0)
(0.324803 -0.0834014 0)
(0.324629 -0.0806919 0)
(0.323644 -0.0769913 0)
(0.323134 -0.072485 0)
(0.324335 -0.0678843 0)
(0.327047 -0.063159 0)
(0.3298 -0.05843 0)
(0.33386 -0.0545117 0)
(0.339007 -0.0510659 0)
(0.342576 -0.0470876 0)
(0.346102 -0.0431534 0)
(0.348356 -0.0391949 0)
(0.35069 -0.0349513 0)
(0.0261566 0.0839833 0)
(0.0285471 0.0790689 0)
(0.0310211 0.0735163 0)
(0.0332817 0.0673167 0)
(0.0358873 0.0608257 0)
(0.0377332 0.0543667 0)
(0.0406537 0.0482417 0)
(0.0431709 0.0422127 0)
(0.0461773 0.0367089 0)
(0.0490619 0.0313659 0)
(0.0521443 0.0261265 0)
(0.0555135 0.0207939 0)
(0.059027 0.0152739 0)
(0.0626784 0.00972576 0)
(0.0662458 0.00402042 0)
(0.0701419 -0.00168599 0)
(0.0743411 -0.00733729 0)
(0.078911 -0.0127159 0)
(0.0837658 -0.0178559 0)
(0.0890474 -0.0224385 0)
(0.0946712 -0.0265346 0)
(0.100552 -0.0302142 0)
(0.10672 -0.0333059 0)
(0.112942 -0.0361981 0)
(0.119307 -0.0387487 0)
(0.12579 -0.0410227 0)
(0.132337 -0.0432118 0)
(0.138921 -0.0453957 0)
(0.145575 -0.0476678 0)
(0.152292 -0.0499801 0)
(0.158949 -0.052422 0)
(0.165513 -0.054848 0)
(0.171812 -0.0574703 0)
(0.177851 -0.0601302 0)
(0.183541 -0.0628178 0)
(0.188882 -0.0654149 0)
(0.193826 -0.0678948 0)
(0.19848 -0.0700538 0)
(0.202855 -0.0720254 0)
(0.207056 -0.073815 0)
(0.211267 -0.0752713 0)
(0.215541 -0.0764818 0)
(0.219954 -0.0774523 0)
(0.224557 -0.0782249 0)
(0.229386 -0.0787677 0)
(0.234457 -0.0790457 0)
(0.239747 -0.079107 0)
(0.245185 -0.0790973 0)
(0.250725 -0.0790566 0)
(0.256488 -0.0789407 0)
(0.26225 -0.0787715 0)
(0.26801 -0.0784874 0)
(0.273692 -0.0784085 0)
(0.27933 -0.0785679 0)
(0.285019 -0.0786353 0)
(0.290695 -0.078588 0)
(0.296518 -0.0784739 0)
(0.302553 -0.0782182 0)
(0.308799 -0.0779571 0)
(0.315171 -0.0778491 0)
(0.321686 -0.0778102 0)
(0.328359 -0.0779987 0)
(0.334932 -0.079337 0)
(0.341531 -0.0813862 0)
(0.348018 -0.0841777 0)
(0.353991 -0.0876702 0)
(0.358449 -0.0911283 0)
(0.359892 -0.0937747 0)
(0.357115 -0.0947826 0)
(0.350431 -0.0931285 0)
(0.341639 -0.0903002 0)
(0.33456 -0.0879066 0)
(0.331446 -0.0865717 0)
(0.331319 -0.0863778 0)
(0.332555 -0.0857686 0)
(0.333682 -0.0845373 0)
(0.333673 -0.0818573 0)
(0.332661 -0.0779206 0)
(0.331323 -0.0730921 0)
(0.331733 -0.0680387 0)
(0.332985 -0.0627127 0)
(0.336275 -0.0578627 0)
(0.338146 -0.053098 0)
(0.343034 -0.0493959 0)
(0.346261 -0.0451552 0)
(0.349521 -0.0409823 0)
(0.351644 -0.0366707 0)
(0.353983 -0.0321443 0)
(0.0299569 0.0891043 0)
(0.0328377 0.0847569 0)
(0.0357779 0.0797501 0)
(0.0384905 0.0739525 0)
(0.0410353 0.0676092 0)
(0.043165 0.0607161 0)
(0.045798 0.0538469 0)
(0.0475638 0.0467446 0)
(0.0497875 0.0398981 0)
(0.0519484 0.0331649 0)
(0.0543798 0.0265663 0)
(0.0570668 0.0200709 0)
(0.0600708 0.0136422 0)
(0.0632499 0.00718699 0)
(0.0666232 0.000792772 0)
(0.0705741 -0.00524491 0)
(0.074825 -0.0110252 0)
(0.0796083 -0.0162686 0)
(0.0847976 -0.0210956 0)
(0.0904737 -0.0253759 0)
(0.0964869 -0.0290802 0)
(0.102758 -0.0323264 0)
(0.109365 -0.0349372 0)
(0.116107 -0.0372226 0)
(0.122932 -0.039224 0)
(0.129822 -0.0409 0)
(0.136659 -0.0425162 0)
(0.143507 -0.0441615 0)
(0.150323 -0.045927 0)
(0.157052 -0.0478456 0)
(0.163604 -0.0501048 0)
(0.170001 -0.0525067 0)
(0.176134 -0.0551937 0)
(0.181994 -0.0580388 0)
(0.187521 -0.0609934 0)
(0.192702 -0.0639861 0)
(0.197517 -0.0669871 0)
(0.202084 -0.0698006 0)
(0.206454 -0.0724175 0)
(0.210646 -0.0748508 0)
(0.21483 -0.0769055 0)
(0.219093 -0.0785795 0)
(0.22348 -0.0798915 0)
(0.228045 -0.0809493 0)
(0.232817 -0.0817686 0)
(0.23778 -0.0823444 0)
(0.242936 -0.0827062 0)
(0.248266 -0.0829441 0)
(0.253747 -0.0830814 0)
(0.259441 -0.0830573 0)
(0.265198 -0.0829296 0)
(0.271044 -0.0827154 0)
(0.277041 -0.0824905 0)
(0.283055 -0.08218 0)
(0.289042 -0.0817591 0)
(0.295039 -0.0814784 0)
(0.30116 -0.0813064 0)
(0.307333 -0.0813976 0)
(0.31359 -0.0815039 0)
(0.320025 -0.0814244 0)
(0.32663 -0.0813458 0)
(0.333281 -0.0817701 0)
(0.340097 -0.082205 0)
(0.346836 -0.0836671 0)
(0.353493 -0.0860265 0)
(0.3599 -0.0892149 0)
(0.365551 -0.0930664 0)
(0.369207 -0.0966005 0)
(0.369613 -0.0988586 0)
(0.365619 -0.0990284 0)
(0.358155 -0.0963162 0)
(0.349539 -0.0927882 0)
(0.343327 -0.0901716 0)
(0.341229 -0.0885493 0)
(0.341509 -0.0878903 0)
(0.342583 -0.0870035 0)
(0.342794 -0.0847132 0)
(0.342007 -0.0811799 0)
(0.340235 -0.0763194 0)
(0.339809 -0.0704371 0)
(0.340095 -0.0642122 0)
(0.342819 -0.0585958 0)
(0.343532 -0.0533632 0)
(0.347311 -0.0490362 0)
(0.35048 -0.0445932 0)
(0.353693 -0.0402983 0)
(0.355947 -0.0358447 0)
(0.358481 -0.0312229 0)
(0.0346399 0.0943894 0)
(0.0379925 0.0903587 0)
(0.0412812 0.0856077 0)
(0.0443007 0.0799429 0)
(0.0471508 0.073521 0)
(0.0489657 0.066065 0)
(0.0514391 0.0583926 0)
(0.0527836 0.0502021 0)
(0.0543682 0.0419838 0)
(0.0558402 0.0338539 0)
(0.0575826 0.0259586 0)
(0.059809 0.0184481 0)
(0.062492 0.0113299 0)
(0.0654365 0.00447395 0)
(0.0689508 -0.00198277 0)
(0.0732239 -0.00782227 0)
(0.0778472 -0.0132308 0)
(0.0831459 -0.0178477 0)
(0.0888139 -0.0219657 0)
(0.0949219 -0.0254873 0)
(0.101313 -0.028446 0)
(0.107849 -0.0310885 0)
(0.11463 -0.0332325 0)
(0.121538 -0.0350177 0)
(0.128458 -0.0367699 0)
(0.135424 -0.0383766 0)
(0.14236 -0.0400441 0)
(0.149268 -0.0418321 0)
(0.15611 -0.0438339 0)
(0.162812 -0.046111 0)
(0.169282 -0.0488264 0)