/*--------------------------------*- C++ -*----------------------------------*\
  =========                 |
  \\      /  F ield         | OpenFOAM: The Open Source CFD Toolbox
   \\    /   O peration     | Website:  https://openfoam.org
    \\  /    A nd           | Version:  7
     \\/     M anipulation  |
\*---------------------------------------------------------------------------*/
FoamFile
{
    version     2.0;
    format      ascii;
    class       volVectorField;
    location    "0.359";
    object      U;
}
// * * * * * * * * * * * * * * * * * * * * * * * * * * * * * * * * * * * * * //

dimensions      [0 1 -1 0 0 0 0];

internalField   nonuniform List<vector> 
40000
(
(-9.77043e-08 7.42022e-08 0)
(1.01723e-06 -7.68143e-07 0)
(4.31236e-06 -1.46384e-06 0)
(8.90004e-06 -1.83747e-06 0)
(1.40272e-05 -1.96131e-06 0)
(1.91602e-05 -1.90982e-06 0)
(2.39013e-05 -1.73725e-06 0)
(2.79565e-05 -1.48212e-06 0)
(3.11121e-05 -1.17093e-06 0)
(3.32136e-05 -8.21775e-07 0)
(3.41502e-05 -4.47329e-07 0)
(3.3844e-05 -5.66869e-08 0)
(3.22421e-05 3.43478e-07 0)
(2.93114e-05 7.48152e-07 0)
(2.50337e-05 1.15351e-06 0)
(1.94036e-05 1.5566e-06 0)
(1.24249e-05 1.95509e-06 0)
(4.1097e-06 2.34716e-06 0)
(-5.52372e-06 2.73135e-06 0)
(-1.64518e-05 3.10651e-06 0)
(-2.86468e-05 3.47173e-06 0)
(-4.20774e-05 3.82626e-06 0)
(-5.67094e-05 4.16951e-06 0)
(-7.25064e-05 4.50102e-06 0)
(-8.943e-05 4.82042e-06 0)
(-0.00010744 5.12744e-06 0)
(-0.000126496 5.42185e-06 0)
(-0.000146556 5.70352e-06 0)
(-0.000167576 5.97234e-06 0)
(-0.000189513 6.22822e-06 0)
(-0.000212323 6.47115e-06 0)
(-0.000235963 6.70113e-06 0)
(-0.000260388 6.91819e-06 0)
(-0.000285553 7.12237e-06 0)
(-0.000311415 7.31375e-06 0)
(-0.000337928 7.4924e-06 0)
(-0.00036505 7.65843e-06 0)
(-0.000392737 7.81195e-06 0)
(-0.000420944 7.95307e-06 0)
(-0.000449629 8.08195e-06 0)
(-0.00047875 8.19871e-06 0)
(-0.000508263 8.3035e-06 0)
(-0.000538128 8.39647e-06 0)
(-0.000568302 8.47779e-06 0)
(-0.000598745 8.54762e-06 0)
(-0.000629416 8.60613e-06 0)
(-0.000660277 8.6535e-06 0)
(-0.000691287 8.6899e-06 0)
(-0.000722408 8.71551e-06 0)
(-0.000753601 8.7305e-06 0)
(-0.000784831 8.73506e-06 0)
(-0.000816059 8.72939e-06 0)
(-0.00084725 8.71366e-06 0)
(-0.000878368 8.68806e-06 0)
(-0.000909378 8.65279e-06 0)
(-0.000940247 8.60802e-06 0)
(-0.000970939 8.55396e-06 0)
(-0.00100142 8.49079e-06 0)
(-0.00103167 8.41871e-06 0)
(-0.00106164 8.33791e-06 0)
(-0.00109131 8.24858e-06 0)
(-0.00112064 8.15092e-06 0)
(-0.00114961 8.0451e-06 0)
(-0.00117819 7.93134e-06 0)
(-0.00120635 7.80982e-06 0)
(-0.00123407 7.68073e-06 0)
(-0.0012613 7.54428e-06 0)
(-0.00128804 7.40065e-06 0)
(-0.00131425 7.25003e-06 0)
(-0.00133991 7.09261e-06 0)
(-0.001365 6.92861e-06 0)
(-0.00138949 6.75819e-06 0)
(-0.00141336 6.58157e-06 0)
(-0.00143658 6.39893e-06 0)
(-0.00145914 6.21047e-06 0)
(-0.00148102 6.01638e-06 0)
(-0.00150219 5.81685e-06 0)
(-0.00152264 5.61209e-06 0)
(-0.00154235 5.40229e-06 0)
(-0.00156129 5.18764e-06 0)
(-0.00157946 4.96834e-06 0)
(-0.00159684 4.74459e-06 0)
(-0.0016134 4.51658e-06 0)
(-0.00162915 4.28452e-06 0)
(-0.00164405 4.04861e-06 0)
(-0.00165811 3.80904e-06 0)
(-0.0016713 3.56602e-06 0)
(-0.00168361 3.31975e-06 0)
(-0.00169503 3.07044e-06 0)
(-0.00170556 2.81828e-06 0)
(-0.00171518 2.5635e-06 0)
(-0.00172388 2.30628e-06 0)
(-0.00173166 2.04686e-06 0)
(-0.0017385 1.78542e-06 0)
(-0.00174441 1.52219e-06 0)
(-0.00174937 1.25739e-06 0)
(-0.00175338 9.91213e-07 0)
(-0.00175643 7.23894e-07 0)
(-0.00175852 4.55647e-07 0)
(-0.00175965 1.86692e-07 0)
(-0.00175982 -8.27499e-08 0)
(-0.00175903 -3.52455e-07 0)
(-0.00175726 -6.22197e-07 0)
(-0.00175454 -8.91748e-07 0)
(-0.00175084 -1.16088e-06 0)
(-0.00174619 -1.42936e-06 0)
(-0.00174058 -1.69696e-06 0)
(-0.00173401 -1.96344e-06 0)
(-0.00172649 -2.22857e-06 0)
(-0.00171803 -2.4921e-06 0)
(-0.00170862 -2.75381e-06 0)
(-0.00169828 -3.01345e-06 0)
(-0.00168702 -3.27077e-06 0)
(-0.00167485 -3.52554e-06 0)
(-0.00166177 -3.77751e-06 0)
(-0.00164779 -4.02643e-06 0)
(-0.00163293 -4.27206e-06 0)
(-0.0016172 -4.51414e-06 0)
(-0.00160061 -4.75243e-06 0)
(-0.00158317 -4.98668e-06 0)
(-0.00156491 -5.21664e-06 0)
(-0.00154583 -5.44206e-06 0)
(-0.00152596 -5.66267e-06 0)
(-0.00150531 -5.87824e-06 0)
(-0.0014839 -6.08851e-06 0)
(-0.00146175 -6.29323e-06 0)
(-0.00143888 -6.49214e-06 0)
(-0.00141531 -6.685e-06 0)
(-0.00139106 -6.87155e-06 0)
(-0.00136616 -7.05155e-06 0)
(-0.00134063 -7.22474e-06 0)
(-0.0013145 -7.39088e-06 0)
(-0.00128779 -7.54973e-06 0)
(-0.00126052 -7.70103e-06 0)
(-0.00123273 -7.84455e-06 0)
(-0.00120445 -7.98004e-06 0)
(-0.00117569 -8.10726e-06 0)
(-0.0011465 -8.22599e-06 0)
(-0.00111691 -8.336e-06 0)
(-0.00108693 -8.43704e-06 0)
(-0.00105662 -8.52889e-06 0)
(-0.00102599 -8.61133e-06 0)
(-0.000995092 -8.68414e-06 0)
(-0.00096395 -8.74712e-06 0)
(-0.000932603 -8.80006e-06 0)
(-0.000901086 -8.84274e-06 0)
(-0.000869436 -8.87496e-06 0)
(-0.000837692 -8.89653e-06 0)
(-0.00080589 -8.90726e-06 0)
(-0.00077407 -8.90697e-06 0)
(-0.000742272 -8.8955e-06 0)
(-0.000710534 -8.87267e-06 0)
(-0.000678898 -8.83832e-06 0)
(-0.000647405 -8.79227e-06 0)
(-0.000616096 -8.73439e-06 0)
(-0.000585013 -8.66453e-06 0)
(-0.000554199 -8.5826e-06 0)
(-0.000523696 -8.48846e-06 0)
(-0.000493548 -8.382e-06 0)
(-0.000463798 -8.2631e-06 0)
(-0.00043449 -8.13167e-06 0)
(-0.000405668 -7.98763e-06 0)
(-0.000377376 -7.83094e-06 0)
(-0.000349658 -7.66155e-06 0)
(-0.000322559 -7.47944e-06 0)
(-0.000296122 -7.28454e-06 0)
(-0.000270393 -7.07685e-06 0)
(-0.000245415 -6.85638e-06 0)
(-0.000221232 -6.62318e-06 0)
(-0.000197888 -6.37734e-06 0)
(-0.000175426 -6.11894e-06 0)
(-0.000153888 -5.84808e-06 0)
(-0.000133317 -5.56487e-06 0)
(-0.000113753 -5.2695e-06 0)
(-9.5237e-05 -4.96221e-06 0)
(-7.78076e-05 -4.64331e-06 0)
(-6.15023e-05 -4.31316e-06 0)
(-4.63573e-05 -3.97215e-06 0)
(-3.24065e-05 -3.62075e-06 0)
(-1.96816e-05 -3.25954e-06 0)
(-8.21128e-06 -2.88923e-06 0)
(1.97874e-06 -2.51075e-06 0)
(1.08668e-05 -2.12518e-06 0)
(1.84359e-05 -1.7338e-06 0)
(2.46745e-05 -1.33817e-06 0)
(2.9578e-05 -9.40215e-07 0)
(3.31499e-05 -5.4239e-07 0)
(3.54042e-05 -1.47813e-07 0)
(3.63669e-05 2.39524e-07 0)
(3.608e-05 6.14469e-07 0)
(3.46048e-05 9.70267e-07 0)
(3.20281e-05 1.29778e-06 0)
(2.84691e-05 1.58433e-06 0)
(2.40906e-05 1.81188e-06 0)
(1.91132e-05 1.95423e-06 0)
(1.38358e-05 1.97363e-06 0)
(8.6574e-06 1.81773e-06 0)
(4.10639e-06 1.41615e-06 0)
(9.10513e-07 7.0508e-07 0)
(-1.21005e-07 -1.20978e-07 0)
(7.53688e-07 -1.05228e-06 0)
(4.72834e-06 -4.75483e-06 0)
(1.2756e-05 -7.61825e-06 0)
(2.31213e-05 -9.19818e-06 0)
(3.43986e-05 -9.67449e-06 0)
(4.54995e-05 -9.28549e-06 0)
(5.55193e-05 -8.23848e-06 0)
(6.37311e-05 -6.70053e-06 0)
(6.95712e-05 -4.80018e-06 0)
(7.26091e-05 -2.63484e-06 0)
(7.2521e-05 -2.78719e-07 0)
(6.90679e-05 2.21112e-06 0)
(6.20794e-05 4.79031e-06 0)
(5.14398e-05 7.42396e-06 0)
(3.70776e-05 1.00844e-05 0)
(1.89578e-05 1.27495e-05 0)
(-2.92574e-06 1.54014e-05 0)
(-2.85545e-05 1.80255e-05 0)
(-5.78905e-05 2.06101e-05 0)
(-9.08789e-05 2.31455e-05 0)
(-0.000127452 2.56239e-05 0)
(-0.000167529 2.80386e-05 0)
(-0.000211022 3.03845e-05 0)
(-0.000257834 3.26571e-05 0)
(-0.000307862 3.48529e-05 0)
(-0.000360998 3.6969e-05 0)
(-0.000417128 3.90032e-05 0)
(-0.000476137 4.09535e-05 0)
(-0.000537905 4.28186e-05 0)
(-0.000602311 4.45975e-05 0)
(-0.000669232 4.62894e-05 0)
(-0.000738543 4.78937e-05 0)
(-0.000810119 4.94104e-05 0)
(-0.000883835 5.08391e-05 0)
(-0.000959564 5.21802e-05 0)
(-0.00103718 5.34339e-05 0)
(-0.00111656 5.46004e-05 0)
(-0.00119757 5.56804e-05 0)
(-0.0012801 5.66745e-05 0)
(-0.00136401 5.75833e-05 0)
(-0.00144919 5.84076e-05 0)
(-0.0015355 5.91483e-05 0)
(-0.00162284 5.98063e-05 0)
(-0.00171109 6.03826e-05 0)
(-0.00180011 6.08781e-05 0)
(-0.0018898 6.1294e-05 0)
(-0.00198005 6.16313e-05 0)
(-0.00207073 6.18912e-05 0)
(-0.00216173 6.20748e-05 0)
(-0.00225295 6.21833e-05 0)
(-0.00234428 6.2218e-05 0)
(-0.0024356 6.218e-05 0)
(-0.00252682 6.20706e-05 0)
(-0.00261782 6.18911e-05 0)
(-0.00270851 6.16428e-05 0)
(-0.00279879 6.13269e-05 0)
(-0.00288856 6.09448e-05 0)
(-0.00297772 6.04978e-05 0)
(-0.00306618 5.99872e-05 0)
(-0.00315385 5.94144e-05 0)
(-0.00324063 5.87807e-05 0)
(-0.00332644 5.80873e-05 0)
(-0.00341119 5.73358e-05 0)
(-0.00349479 5.65274e-05 0)
(-0.00357717 5.56635e-05 0)
(-0.00365824 5.47454e-05 0)
(-0.00373793 5.37746e-05 0)
(-0.00381615 5.27523e-05 0)
(-0.00389283 5.168e-05 0)
(-0.00396791 5.05591e-05 0)
(-0.0040413 4.93908e-05 0)
(-0.00411295 4.81767e-05 0)
(-0.00418278 4.6918e-05 0)
(-0.00425073 4.56162e-05 0)
(-0.00431674 4.42727e-05 0)
(-0.00438074 4.28887e-05 0)
(-0.00444269 4.14659e-05 0)
(-0.00450251 4.00055e-05 0)
(-0.00456016 3.85089e-05 0)
(-0.00461559 3.69777e-05 0)
(-0.00466875 3.54131e-05 0)
(-0.00471958 3.38166e-05 0)
(-0.00476804 3.21896e-05 0)
(-0.00481409 3.05336e-05 0)
(-0.00485769 2.885e-05 0)
(-0.0048988 2.71403e-05 0)
(-0.00493737 2.54059e-05 0)
(-0.00497338 2.36483e-05 0)
(-0.00500679 2.18689e-05 0)
(-0.00503757 2.00692e-05 0)
(-0.00506569 1.82508e-05 0)
(-0.00509113 1.64151e-05 0)
(-0.00511386 1.45637e-05 0)
(-0.00513386 1.2698e-05 0)
(-0.0051511 1.08195e-05 0)
(-0.00516558 8.92992e-06 0)
(-0.00517728 7.03069e-06 0)
(-0.00518618 5.1234e-06 0)
(-0.00519227 3.20963e-06 0)
(-0.00519554 1.29096e-06 0)
(-0.005196 -6.31016e-07 0)
(-0.00519363 -2.55468e-06 0)
(-0.00518843 -4.47842e-06 0)
(-0.00518041 -6.40058e-06 0)
(-0.00516957 -8.31954e-06 0)
(-0.00515592 -1.02336e-05 0)
(-0.00513945 -1.21412e-05 0)
(-0.0051202 -1.40405e-05 0)
(-0.00509816 -1.593e-05 0)
(-0.00507335 -1.78078e-05 0)
(-0.0050458 -1.96724e-05 0)
(-0.00501552 -2.15218e-05 0)
(-0.00498254 -2.33546e-05 0)
(-0.00494688 -2.51688e-05 0)
(-0.00490858 -2.69627e-05 0)
(-0.00486765 -2.87347e-05 0)
(-0.00482415 -3.04829e-05 0)
(-0.0047781 -3.22055e-05 0)
(-0.00472954 -3.39008e-05 0)
(-0.00467851 -3.5567e-05 0)
(-0.00462506 -3.72024e-05 0)
(-0.00456924 -3.88051e-05 0)
(-0.00451109 -4.03734e-05 0)
(-0.00445067 -4.19054e-05 0)
(-0.00438803 -4.33994e-05 0)
(-0.00432323 -4.48536e-05 0)
(-0.00425633 -4.62662e-05 0)
(-0.00418738 -4.76355e-05 0)
(-0.00411647 -4.89597e-05 0)
(-0.00404365 -5.0237e-05 0)
(-0.00396899 -5.14656e-05 0)
(-0.00389257 -5.26439e-05 0)
(-0.00381446 -5.37701e-05 0)
(-0.00373474 -5.48425e-05 0)
(-0.00365349 -5.58593e-05 0)
(-0.00357079 -5.6819e-05 0)
(-0.00348673 -5.77198e-05 0)
(-0.00340139 -5.856e-05 0)
(-0.00331488 -5.93382e-05 0)
(-0.00322726 -6.00527e-05 0)
(-0.00313866 -6.07019e-05 0)
(-0.00304915 -6.12843e-05 0)
(-0.00295883 -6.17983e-05 0)
(-0.00286782 -6.22426e-05 0)
(-0.00277621 -6.26156e-05 0)
(-0.00268411 -6.2916e-05 0)
(-0.00259162 -6.31425e-05 0)
(-0.00249886 -6.32936e-05 0)
(-0.00240593 -6.33681e-05 0)
(-0.00231295 -6.33649e-05 0)
(-0.00222003 -6.32826e-05 0)
(-0.00212729 -6.31204e-05 0)
(-0.00203485 -6.2877e-05 0)
(-0.00194282 -6.25514e-05 0)
(-0.00185132 -6.21427e-05 0)
(-0.00176049 -6.165e-05 0)
(-0.00167043 -6.10726e-05 0)
(-0.00158128 -6.04097e-05 0)
(-0.00149315 -5.96607e-05 0)
(-0.00140618 -5.88251e-05 0)
(-0.00132049 -5.79022e-05 0)
(-0.00123621 -5.68917e-05 0)
(-0.00115346 -5.57935e-05 0)
(-0.00107237 -5.46073e-05 0)
(-0.000993071 -5.33332e-05 0)
(-0.000915685 -5.19712e-05 0)
(-0.00084034 -5.05216e-05 0)
(-0.000767163 -4.89846e-05 0)
(-0.000696277 -4.7361e-05 0)
(-0.000627806 -4.56516e-05 0)
(-0.000561872 -4.38573e-05 0)
(-0.000498596 -4.19795e-05 0)
(-0.000438094 -4.00196e-05 0)
(-0.000380481 -3.79794e-05 0)
(-0.00032587 -3.58611e-05 0)
(-0.000274366 -3.36675e-05 0)
(-0.000226074 -3.14017e-05 0)
(-0.00018109 -2.90674e-05 0)
(-0.000139505 -2.6669e-05 0)
(-0.000101403 -2.42117e-05 0)
(-6.68565e-05 -2.17014e-05 0)
(-3.59307e-05 -1.91457e-05 0)
(-8.67638e-06 -1.65533e-05 0)
(1.48697e-05 -1.39347e-05 0)
(3.46882e-05 -1.13024e-05 0)
(5.07806e-05 -8.67148e-06 0)
(6.31736e-05 -6.0605e-06 0)
(7.19237e-05 -3.4922e-06 0)
(7.71243e-05 -9.94826e-07 0)
(7.89133e-05 1.39637e-06 0)
(7.74833e-05 3.63696e-06 0)
(7.30946e-05 5.67022e-06 0)
(6.60915e-05 7.42287e-06 0)
(5.6922e-05 8.7993e-06 0)
(4.61638e-05 9.67428e-06 0)
(3.45509e-05 9.88685e-06 0)
(2.29845e-05 9.24077e-06 0)
(1.25333e-05 7.5173e-06 0)
(4.56978e-06 4.57079e-06 0)
(7.04432e-07 9.09874e-07 0)
(1.45684e-06 -4.32795e-06 0)
(7.60425e-06 -1.27768e-05 0)
(1.88412e-05 -1.88533e-05 0)
(3.26806e-05 -2.21404e-05 0)
(4.72707e-05 -2.29304e-05 0)
(6.12181e-05 -2.16513e-05 0)
(7.33116e-05 -1.87193e-05 0)
(8.25343e-05 -1.44975e-05 0)
(8.80674e-05 -9.28509e-06 0)
(8.92633e-05 -3.32253e-06 0)
(8.56191e-05 3.19819e-06 0)
(7.67525e-05 1.01238e-05 0)
(6.23815e-05 1.73317e-05 0)
(4.23068e-05 2.47229e-05 0)
(1.63982e-05 3.22176e-05 0)
(-1.54177e-05 3.97506e-05 0)
(-5.3167e-05 4.72687e-05 0)
(-9.68362e-05 5.47283e-05 0)
(-0.000146379 6.20931e-05 0)
(-0.000201721 6.93334e-05 0)
(-0.000262766 7.64246e-05 0)
(-0.000329397 8.33461e-05 0)
(-0.000401481 9.0081e-05 0)
(-0.000478873 9.66151e-05 0)
(-0.000561414 0.000102937 0)
(-0.000648938 0.000109037 0)
(-0.00074127 0.000114907 0)
(-0.000838227 0.000120542 0)
(-0.000939623 0.000125936 0)
(-0.00104527 0.000131084 0)
(-0.00115496 0.000135986 0)
(-0.00126852 0.000140637 0)
(-0.00138573 0.000145038 0)
(-0.00150639 0.000149186 0)
(-0.00163031 0.000153083 0)
(-0.00175729 0.000156727 0)
(-0.00188711 0.000160121 0)
(-0.00201959 0.000163264 0)
(-0.00215451 0.000166159 0)
(-0.00229168 0.000168807 0)
(-0.00243091 0.000171211 0)
(-0.00257198 0.000173371 0)
(-0.00271472 0.000175291 0)
(-0.00285892 0.000176974 0)
(-0.00300439 0.000178422 0)
(-0.00315095 0.000179637 0)
(-0.0032984 0.000180624 0)
(-0.00344656 0.000181385 0)
(-0.00359525 0.000181923 0)
(-0.00374429 0.000182242 0)
(-0.0038935 0.000182345 0)
(-0.00404271 0.000182235 0)
(-0.00419175 0.000181917 0)
(-0.00434044 0.000181394 0)
(-0.00448862 0.000180669 0)
(-0.00463612 0.000179747 0)
(-0.0047828 0.00017863 0)
(-0.00492848 0.000177323 0)
(-0.00507302 0.00017583 0)
(-0.00521626 0.000174154 0)
(-0.00535806 0.0001723 0)
(-0.00549827 0.000170271 0)
(-0.00563676 0.000168071 0)
(-0.00577337 0.000165704 0)
(-0.00590799 0.000163174 0)
(-0.00604046 0.000160485 0)
(-0.00617068 0.000157641 0)
(-0.0062985 0.000154646 0)
(-0.00642382 0.000151504 0)
(-0.0065465 0.000148219 0)
(-0.00666644 0.000144795 0)
(-0.00678352 0.000141236 0)
(-0.00689763 0.000137546 0)
(-0.00700868 0.00013373 0)
(-0.00711654 0.000129791 0)
(-0.00722113 0.000125733 0)
(-0.00732236 0.000121561 0)
(-0.00742012 0.000117279 0)
(-0.00751433 0.00011289 0)
(-0.0076049 0.000108399 0)
(-0.00769176 0.000103811 0)
(-0.00777481 9.91282e-05 0)
(-0.007854 9.43563e-05 0)
(-0.00792924 8.94992e-05 0)
(-0.00800048 8.4561e-05 0)
(-0.00806763 7.95461e-05 0)
(-0.00813065 7.44588e-05 0)
(-0.00818947 6.93033e-05 0)
(-0.00824405 6.4084e-05 0)
(-0.00829432 5.88052e-05 0)
(-0.00834025 5.34714e-05 0)
(-0.00838179 4.8087e-05 0)
(-0.0084189 4.26564e-05 0)
(-0.00845154 3.71841e-05 0)
(-0.00847969 3.16747e-05 0)
(-0.00850331 2.61326e-05 0)
(-0.00852238 2.05624e-05 0)
(-0.00853688 1.49688e-05 0)
(-0.00854679 9.3563e-06 0)
(-0.0085521 3.72969e-06 0)
(-0.0085528 -1.90637e-06 0)
(-0.00854888 -7.54715e-06 0)
(-0.00854034 -1.31879e-05 0)
(-0.00852719 -1.88237e-05 0)
(-0.00850942 -2.44498e-05 0)
(-0.00848706 -3.00614e-05 0)
(-0.0084601 -3.56535e-05 0)
(-0.00842859 -4.12211e-05 0)
(-0.00839252 -4.67594e-05 0)
(-0.00835194 -5.22633e-05 0)
(-0.00830687 -5.77278e-05 0)
(-0.00825735 -6.31479e-05 0)
(-0.00820341 -6.85184e-05 0)
(-0.0081451 -7.38343e-05 0)
(-0.00808246 -7.90904e-05 0)
(-0.00801555 -8.42816e-05 0)
(-0.00794442 -8.94027e-05 0)
(-0.00786914 -9.44486e-05 0)
(-0.00778976 -9.94141e-05 0)
(-0.00770636 -0.000104294 0)
(-0.007619 -0.000109083 0)
(-0.00752776 -0.000113776 0)
(-0.00743273 -0.000118367 0)
(-0.00733399 -0.000122852 0)
(-0.00723163 -0.000127226 0)
(-0.00712574 -0.000131482 0)
(-0.00701643 -0.000135616 0)
(-0.00690379 -0.000139623 0)
(-0.00678792 -0.000143497 0)
(-0.00666895 -0.000147234 0)
(-0.00654699 -0.000150828 0)
(-0.00642214 -0.000154274 0)
(-0.00629455 -0.000157568 0)
(-0.00616433 -0.000160704 0)
(-0.00603162 -0.000163677 0)
(-0.00589655 -0.000166482 0)
(-0.00575926 -0.000169115 0)
(-0.00561989 -0.00017157 0)
(-0.00547859 -0.000173844 0)
(-0.00533551 -0.000175932 0)
(-0.00519081 -0.000177828 0)
(-0.00504463 -0.000179529 0)
(-0.00489716 -0.00018103 0)
(-0.00474854 -0.000182326 0)
(-0.00459894 -0.000183415 0)
(-0.00444855 -0.000184292 0)
(-0.00429752 -0.000184952 0)
(-0.00414605 -0.000185393 0)
(-0.00399431 -0.00018561 0)
(-0.00384248 -0.0001856 0)
(-0.00369075 -0.00018536 0)
(-0.00353931 -0.000184886 0)
(-0.00338835 -0.000184176 0)
(-0.00323806 -0.000183227 0)
(-0.00308864 -0.000182036 0)
(-0.00294029 -0.000180601 0)
(-0.00279319 -0.000178919 0)
(-0.00264757 -0.000176989 0)
(-0.00250361 -0.00017481 0)
(-0.00236151 -0.000172378 0)
(-0.00222149 -0.000169694 0)
(-0.00208375 -0.000166757 0)
(-0.00194849 -0.000163566 0)
(-0.00181591 -0.000160121 0)
(-0.00168622 -0.000156421 0)
(-0.00155963 -0.000152469 0)
(-0.00143633 -0.000148265 0)
(-0.00131653 -0.00014381 0)
(-0.00120043 -0.000139107 0)
(-0.00108822 -0.000134158 0)
(-0.000980097 -0.000128967 0)
(-0.000876251 -0.000123539 0)
(-0.000776868 -0.000117878 0)
(-0.000682129 -0.00011199 0)
(-0.000592207 -0.000105883 0)
(-0.000507271 -9.95652e-05 0)
(-0.00042748 -9.3047e-05 0)
(-0.000352982 -8.634e-05 0)
(-0.000283917 -7.94583e-05 0)
(-0.000220408 -7.24182e-05 0)
(-0.000162567 -6.52389e-05 0)
(-0.000110484 -5.7943e-05 0)
(-6.42298e-05 -5.05575e-05 0)
(-2.3851e-05 -4.31143e-05 0)
(1.06356e-05 -3.56515e-05 0)
(3.92471e-05 -2.82145e-05 0)
(6.20411e-05 -2.0858e-05 0)
(7.91233e-05 -1.36484e-05 0)
(9.0657e-05 -6.66646e-06 0)
(9.68745e-05 -1.13252e-08 0)
(9.80901e-05 6.19476e-06 0)
(9.47172e-05 1.18003e-05 0)
(8.7287e-05 1.6617e-05 0)
(7.64711e-05 2.04106e-05 0)
(6.31058e-05 2.28924e-05 0)
(4.82155e-05 2.37163e-05 0)
(3.30051e-05 2.24938e-05 0)
(1.88407e-05 1.88408e-05 0)
(7.51501e-06 1.25336e-05 0)
(1.41461e-06 4.1037e-06 0)
(1.83448e-06 -8.9065e-06 0)
(9.19745e-06 -2.31417e-05 0)
(2.21538e-05 -3.26953e-05 0)
(3.75697e-05 -3.75445e-05 0)
(5.32542e-05 -3.82023e-05 0)
(6.76067e-05 -3.53187e-05 0)
(7.92199e-05 -2.95367e-05 0)
(8.68874e-05 -2.14346e-05 0)
(8.9614e-05 -1.15067e-05 0)
(8.65939e-05 -1.65099e-07 0)
(7.71854e-05 1.22514e-05 0)
(6.0889e-05 2.54651e-05 0)
(3.73269e-05 3.92486e-05 0)
(6.22453e-06 5.34158e-05 0)
(-3.2605e-05 6.78132e-05 0)
(-7.92749e-05 8.23145e-05 0)
(-0.000133836 9.68153e-05 0)
(-0.000196285 0.000111229 0)
(-0.000266575 0.000125482 0)
(-0.000344621 0.000139516 0)
(-0.000430307 0.000153279 0)
(-0.000523486 0.000166729 0)
(-0.000623993 0.000179832 0)
(-0.00073164 0.000192558 0)
(-0.000846224 0.000204883 0)
(-0.000967527 0.000216786 0)
(-0.00109532 0.00022825 0)
(-0.00122936 0.000239263 0)
(-0.00136941 0.000249812 0)
(-0.00151521 0.000259889 0)
(-0.0016665 0.000269488 0)
(-0.00182301 0.000278602 0)
(-0.00198449 0.00028723 0)
(-0.00215066 0.000295368 0)
(-0.00232126 0.000303015 0)
(-0.002496 0.000310171 0)
(-0.00267462 0.000316836 0)
(-0.00285684 0.000323014 0)
(-0.0030424 0.000328705 0)
(-0.00323102 0.000333912 0)
(-0.00342244 0.00033864 0)
(-0.00361638 0.000342891 0)
(-0.00381258 0.000346671 0)
(-0.00401078 0.000349984 0)
(-0.00421072 0.000352835 0)
(-0.00441213 0.00035523 0)
(-0.00461476 0.000357173 0)
(-0.00481836 0.000358673 0)
(-0.00502268 0.000359733 0)
(-0.00522748 0.000360362 0)
(-0.00543251 0.000360564 0)
(-0.00563753 0.000360348 0)
(-0.00584231 0.00035972 0)
(-0.00604661 0.000358687 0)
(-0.00625021 0.000357256 0)
(-0.00645289 0.000355434 0)
(-0.00665443 0.000353229 0)
(-0.0068546 0.000350648 0)
(-0.0070532 0.000347699 0)
(-0.00725002 0.000344388 0)
(-0.00744486 0.000340724 0)
(-0.00763752 0.000336715 0)
(-0.00782781 0.000332367 0)
(-0.00801553 0.000327689 0)
(-0.00820049 0.000322688 0)
(-0.00838253 0.000317373 0)
(-0.00856146 0.000311751 0)
(-0.0087371 0.00030583 0)
(-0.00890929 0.000299617 0)
(-0.00907787 0.000293122 0)
(-0.00924268 0.000286351 0)
(-0.00940356 0.000279314 0)
(-0.00956036 0.000272017 0)
(-0.00971294 0.000264469 0)
(-0.00986116 0.000256678 0)
(-0.0100049 0.000248652 0)
(-0.010144 0.0002404 0)
(-0.0102783 0.000231929 0)
(-0.0104077 0.000223247 0)
(-0.0105322 0.000214363 0)
(-0.0106515 0.000205286 0)
(-0.0107656 0.000196023 0)
(-0.0108744 0.000186582 0)
(-0.0109778 0.000176973 0)
(-0.0110757 0.000167204 0)
(-0.0111679 0.000157282 0)
(-0.0112545 0.000147217 0)
(-0.0113353 0.000137018 0)
(-0.0114102 0.000126692 0)
(-0.0114793 0.000116248 0)
(-0.0115424 0.000105696 0)
(-0.0115994 9.50435e-05 0)
(-0.0116503 8.42999e-05 0)
(-0.0116952 7.3474e-05 0)
(-0.0117338 6.25747e-05 0)
(-0.0117662 5.16111e-05 0)
(-0.0117923 4.05921e-05 0)
(-0.0118122 2.9527e-05 0)
(-0.0118258 1.8425e-05 0)
(-0.011833 7.29524e-06 0)
(-0.0118339 -3.85284e-06 0)
(-0.0118285 -1.50099e-05 0)
(-0.0118167 -2.61664e-05 0)
(-0.0117985 -3.73129e-05 0)
(-0.0117741 -4.84397e-05 0)
(-0.0117433 -5.95373e-05 0)
(-0.0117062 -7.05959e-05 0)
(-0.0116628 -8.16057e-05 0)
(-0.0116132 -9.25569e-05 0)
(-0.0115574 -0.00010344 0)
(-0.0114954 -0.000114244 0)
(-0.0114273 -0.00012496 0)
(-0.0113531 -0.000135577 0)
(-0.011273 -0.000146086 0)
(-0.0111868 -0.000156476 0)
(-0.0110949 -0.000166737 0)
(-0.0109971 -0.000176859 0)
(-0.0108936 -0.000186832 0)
(-0.0107845 -0.000196645 0)
(-0.0106699 -0.000206288 0)
(-0.0105498 -0.000215751 0)
(-0.0104244 -0.000225024 0)
(-0.0102939 -0.000234096 0)
(-0.0101582 -0.000242957 0)
(-0.0100175 -0.000251596 0)
(-0.00987204 -0.000260004 0)
(-0.00972185 -0.00026817 0)
(-0.00956709 -0.000276084 0)
(-0.00940792 -0.000283735 0)
(-0.00924448 -0.000291115 0)
(-0.00907693 -0.000298212 0)
(-0.00890544 -0.000305016 0)
(-0.00873018 -0.000311519 0)
(-0.00855131 -0.000317709 0)
(-0.00836903 -0.000323578 0)
(-0.00818351 -0.000329115 0)
(-0.00799494 -0.000334312 0)
(-0.00780353 -0.000339158 0)
(-0.00760947 -0.000343645 0)
(-0.00741297 -0.000347764 0)
(-0.00721425 -0.000351506 0)
(-0.00701351 -0.000354862 0)
(-0.00681097 -0.000357823 0)
(-0.00660688 -0.000360382 0)
(-0.00640144 -0.00036253 0)
(-0.00619491 -0.00036426 0)
(-0.00598751 -0.000365563 0)
(-0.0057795 -0.000366434 0)
(-0.00557111 -0.000366864 0)
(-0.0053626 -0.000366847 0)
(-0.00515422 -0.000366376 0)
(-0.00494623 -0.000365447 0)
(-0.00473889 -0.000364051 0)
(-0.00453246 -0.000362186 0)
(-0.00432722 -0.000359845 0)
(-0.00412342 -0.000357024 0)
(-0.00392134 -0.00035372 0)
(-0.00372126 -0.000349927 0)
(-0.00352344 -0.000345645 0)
(-0.00332816 -0.000340869 0)
(-0.0031357 -0.000335598 0)
(-0.00294634 -0.000329831 0)
(-0.00276035 -0.000323568 0)
(-0.00257801 -0.000316807 0)
(-0.00239959 -0.000309551 0)
(-0.00222538 -0.000301801 0)
(-0.00205563 -0.00029356 0)
(-0.00189064 -0.000284832 0)
(-0.00173065 -0.000275621 0)
(-0.00157594 -0.000265934 0)
(-0.00142677 -0.000255778 0)
(-0.00128338 -0.000245163 0)
(-0.00114603 -0.000234099 0)
(-0.00101495 -0.000222601 0)
(-0.000890385 -0.000210682 0)
(-0.000772541 -0.000198362 0)
(-0.000661631 -0.000185661 0)
(-0.000557849 -0.000172604 0)
(-0.000461372 -0.00015922 0)
(-0.000372358 -0.000145543 0)
(-0.000290946 -0.000131611 0)
(-0.000217247 -0.000117472 0)
(-0.000151343 -0.00010318 0)
(-9.32844e-05 -8.87978e-05 0)
(-4.30788e-05 -7.44022e-05 0)
(-6.89243e-07 -6.00829e-05 0)
(3.39754e-05 -4.59469e-05 0)
(6.10698e-05 -3.21226e-05 0)
(8.08226e-05 -1.8764e-05 0)
(9.355e-05 -6.05727e-06 0)
(9.96703e-05 5.77212e-06 0)
(9.97211e-05 1.64508e-05 0)
(9.43784e-05 2.56474e-05 0)
(8.44769e-05 3.29628e-05 0)
(7.10322e-05 3.79224e-05 0)
(5.52598e-05 3.99784e-05 0)
(3.8561e-05 3.85341e-05 0)
(2.25091e-05 3.30078e-05 0)
(9.24236e-06 2.29873e-05 0)
(1.81599e-06 8.65255e-06 0)
(1.96227e-06 -1.40357e-05 0)
(9.69357e-06 -3.44365e-05 0)
(2.29921e-05 -4.731e-05 0)
(3.83107e-05 -5.32413e-05 0)
(5.321e-05 -5.30769e-05 0)
(6.59331e-05 -4.77349e-05 0)
(7.49396e-05 -3.81e-05 0)
(7.88982e-05 -2.49729e-05 0)
(7.66951e-05 -9.05108e-06 0)
(6.74133e-05 9.07148e-06 0)
(5.03094e-05 2.8895e-05 0)
(2.47941e-05 5.00017e-05 0)
(-9.58736e-06 7.20435e-05 0)
(-5.31727e-05 9.47306e-05 0)
(-0.000106199 0.000117821 0)
(-0.000168815 0.000141114 0)
(-0.000241097 0.000164439 0)
(-0.000323056 0.000187656 0)
(-0.000414647 0.000210645 0)
(-0.00051578 0.000233307 0)
(-0.000626323 0.000255558 0)
(-0.000746111 0.000277326 0)
(-0.000874947 0.000298553 0)
(-0.00101261 0.000319187 0)
(-0.00115886 0.000339188 0)
(-0.00131344 0.000358519 0)
(-0.00147606 0.000377151 0)
(-0.00164645 0.000395061 0)
(-0.00182429 0.000412229 0)
(-0.00200929 0.000428638 0)
(-0.00220111 0.000444276 0)
(-0.00239945 0.000459134 0)
(-0.00260397 0.000473204 0)
(-0.00281433 0.000486481 0)
(-0.00303022 0.000498963 0)
(-0.00325128 0.000510648 0)
(-0.00347718 0.000521536 0)
(-0.00370759 0.00053163 0)
(-0.00394216 0.000540932 0)
(-0.00418056 0.000549446 0)
(-0.00442245 0.000557178 0)
(-0.0046675 0.000564132 0)
(-0.00491537 0.000570316 0)
(-0.00516575 0.000575737 0)
(-0.00541829 0.000580403 0)
(-0.00567269 0.000584322 0)
(-0.00592861 0.000587503 0)
(-0.00618574 0.000589955 0)
(-0.00644376 0.000591689 0)
(-0.00670238 0.000592715 0)
(-0.00696128 0.000593043 0)
(-0.00722017 0.000592683 0)
(-0.00747874 0.000591648 0)
(-0.00773671 0.000589947 0)
(-0.00799379 0.000587594 0)
(-0.0082497 0.000584598 0)
(-0.00850417 0.000580973 0)
(-0.00875691 0.000576729 0)
(-0.00900767 0.00057188 0)
(-0.00925618 0.000566438 0)
(-0.00950219 0.000560414 0)
(-0.00974544 0.000553821 0)
(-0.0099857 0.000546673 0)
(-0.0102227 0.000538981 0)
(-0.0104563 0.000530758 0)
(-0.0106861 0.000522018 0)
(-0.010912 0.000512772 0)
(-0.0111338 0.000503034 0)
(-0.0113512 0.000492817 0)
(-0.011564 0.000482134 0)
(-0.0117721 0.000470997 0)
(-0.0119753 0.000459421 0)
(-0.0121732 0.000447418 0)
(-0.0123659 0.000435002 0)
(-0.012553 0.000422185 0)
(-0.0127345 0.000408982 0)
(-0.0129101 0.000395405 0)
(-0.0130796 0.000381468 0)
(-0.0132431 0.000367185 0)
(-0.0134002 0.000352569 0)
(-0.0135508 0.000337634 0)
(-0.0136949 0.000322393 0)
(-0.0138322 0.00030686 0)
(-0.0139627 0.00029105 0)
(-0.0140863 0.000274975 0)
(-0.0142027 0.000258651 0)
(-0.014312 0.00024209 0)
(-0.0144139 0.000225308 0)
(-0.0145085 0.000208318 0)
(-0.0145957 0.000191135 0)
(-0.0146753 0.000173772 0)
(-0.0147472 0.000156246 0)
(-0.0148115 0.000138569 0)
(-0.014868 0.000120757 0)
(-0.0149167 0.000102825 0)
(-0.0149576 8.47869e-05 0)
(-0.0149906 6.66585e-05 0)
(-0.0150156 4.84545e-05 0)
(-0.0150326 3.01901e-05 0)
(-0.0150417 1.18807e-05 0)
(-0.0150428 -6.45835e-06 0)
(-0.0150358 -2.48116e-05 0)
(-0.0150209 -4.31635e-05 0)
(-0.0149979 -6.14983e-05 0)
(-0.0149669 -7.98002e-05 0)
(-0.014928 -9.80533e-05 0)
(-0.0148811 -0.000116242 0)
(-0.0148263 -0.000134349 0)
(-0.0147636 -0.000152359 0)
(-0.014693 -0.000170256 0)
(-0.0146147 -0.000188023 0)
(-0.0145286 -0.000205644 0)
(-0.0144349 -0.000223102 0)
(-0.0143337 -0.000240381 0)
(-0.0142249 -0.000257464 0)
(-0.0141087 -0.000274334 0)
(-0.0139852 -0.000290975 0)
(-0.0138545 -0.000307369 0)
(-0.0137168 -0.0003235 0)
(-0.013572 -0.000339351 0)
(-0.0134204 -0.000354905 0)
(-0.0132621 -0.000370145 0)
(-0.0130972 -0.000385054 0)
(-0.0129259 -0.000399616 0)
(-0.0127483 -0.000413813 0)
(-0.0125647 -0.000427629 0)
(-0.0123751 -0.000441046 0)
(-0.0121797 -0.000454049 0)
(-0.0119788 -0.00046662 0)
(-0.0117725 -0.000478743 0)
(-0.011561 -0.000490401 0)
(-0.0113445 -0.000501579 0)
(-0.0111233 -0.00051226 0)
(-0.0108975 -0.000522427 0)
(-0.0106675 -0.000532066 0)
(-0.0104333 -0.00054116 0)
(-0.0101953 -0.000549694 0)
(-0.00995376 -0.000557653 0)
(-0.00970886 -0.000565022 0)
(-0.00946087 -0.000571785 0)
(-0.00921007 -0.00057793 0)
(-0.00895674 -0.000583441 0)
(-0.00870115 -0.000588305 0)
(-0.00844358 -0.000592508 0)
(-0.00818432 -0.000596037 0)
(-0.00792367 -0.00059888 0)
(-0.00766193 -0.000601024 0)
(-0.00739941 -0.000602459 0)
(-0.00713641 -0.000603171 0)
(-0.00687324 -0.000603151 0)
(-0.00661024 -0.000602389 0)
(-0.00634771 -0.000600874 0)
(-0.006086 -0.000598597 0)
(-0.00582541 -0.000595551 0)
(-0.0055663 -0.000591728 0)
(-0.005309 -0.00058712 0)
(-0.00505384 -0.000581721 0)
(-0.00480117 -0.000575525 0)
(-0.00455133 -0.00056853 0)
(-0.00430466 -0.000560729 0)
(-0.00406151 -0.000552122 0)
(-0.00382222 -0.000542706 0)
(-0.00358714 -0.000532482 0)
(-0.00335662 -0.000521449 0)
(-0.00313099 -0.00050961 0)
(-0.00291059 -0.000496969 0)
(-0.00269578 -0.000483532 0)
(-0.00248687 -0.000469305 0)
(-0.00228421 -0.000454297 0)
(-0.00208811 -0.00043852 0)
(-0.00189889 -0.000421987 0)
(-0.00171687 -0.000404714 0)
(-0.00154236 -0.000386721 0)
(-0.00137563 -0.000368031 0)
(-0.00121697 -0.000348671 0)
(-0.00106665 -0.000328671 0)
(-0.000924917 -0.000308068 0)
(-0.000792004 -0.000286904 0)
(-0.00066812 -0.000265228 0)
(-0.000553453 -0.000243097 0)
(-0.000448161 -0.000220577 0)
(-0.000352371 -0.000197745 0)
(-0.000266173 -0.000174693 0)
(-0.000189613 -0.000151524 0)
(-0.000122691 -0.000128364 0)
(-6.53471e-05 -0.000105358 0)
(-1.74584e-05 -8.26779e-05 0)
(2.11739e-05 -6.05289e-05 0)
(5.08358e-05 -3.91531e-05 0)
(7.19135e-05 -1.8839e-05 0)
(8.49085e-05 6.92106e-08 0)
(9.04541e-05 1.71615e-05 0)
(8.93331e-05 3.19508e-05 0)
(8.24958e-05 4.38632e-05 0)
(7.10799e-05 5.22313e-05 0)
(5.64292e-05 5.62987e-05 0)
(4.00818e-05 5.52446e-05 0)
(2.37719e-05 4.82414e-05 0)
(9.90174e-06 3.45693e-05 0)
(1.97332e-06 1.38324e-05 0)
(1.91607e-06 -1.91835e-05 0)
(9.33378e-06 -4.55849e-05 0)
(2.17874e-05 -6.13235e-05 0)
(3.55585e-05 -6.76538e-05 0)
(4.80617e-05 -6.58252e-05 0)
(5.7428e-05 -5.70625e-05 0)
(6.20272e-05 -4.25096e-05 0)
(6.04474e-05 -2.31965e-05 0)
(5.1498e-05 -2.73199e-08 0)
(3.41874e-05 2.62167e-05 0)
(7.70163e-06 5.48681e-05 0)
(-2.86137e-05 8.53607e-05 0)
(-7.52712e-05 0.000117215 0)
(-0.000132658 0.000150028 0)
(-0.000201051 0.000183457 0)
(-0.000280632 0.000217215 0)
(-0.000371497 0.000251058 0)
(-0.00047367 0.000284781 0)
(-0.000587113 0.00031821 0)
(-0.00071173 0.000351195 0)
(-0.000847381 0.000383614 0)
(-0.000993882 0.000415358 0)
(-0.00115101 0.000446338 0)
(-0.00131853 0.000476479 0)
(-0.00149615 0.000505714 0)
(-0.00168359 0.000533992 0)
(-0.00188051 0.000561265 0)
(-0.0020866 0.000587497 0)
(-0.00230149 0.000612655 0)
(-0.00252483 0.000636715 0)
(-0.00275626 0.000659656 0)
(-0.00299539 0.000681462 0)
(-0.00324184 0.00070212 0)
(-0.00349522 0.000721623 0)