/*--------------------------------*- C++ -*----------------------------------*\
  =========                 |
  \\      /  F ield         | OpenFOAM: The Open Source CFD Toolbox
   \\    /   O peration     | Website:  https://openfoam.org
    \\  /    A nd           | Version:  7
     \\/     M anipulation  |
\*---------------------------------------------------------------------------*/
FoamFile
{
    version     2.0;
    format      ascii;
    class       volVectorField;
    location    "0.2";
    object      U;
}
// * * * * * * * * * * * * * * * * * * * * * * * * * * * * * * * * * * * * * //

dimensions      [0 1 -1 0 0 0 0];

internalField   nonuniform List<vector> 
10000
(
(3.10208e-06 -3.20089e-06 0)
(1.01513e-05 -4.33357e-06 0)
(1.53862e-05 -2.69127e-06 0)
(1.43412e-05 -9.95466e-08 0)
(5.3198e-06 2.67486e-06 0)
(-1.17351e-05 5.31324e-06 0)
(-3.63811e-05 7.69453e-06 0)
(-6.79345e-05 9.77768e-06 0)
(-0.000105631 1.15681e-05 0)
(-0.000148687 1.30865e-05 0)
(-0.000196347 1.43571e-05 0)
(-0.000247903 1.54048e-05 0)
(-0.000302703 1.62544e-05 0)
(-0.000360156 1.69298e-05 0)
(-0.000419732 1.74529e-05 0)
(-0.00048096 1.78435e-05 0)
(-0.00054342 1.81196e-05 0)
(-0.000606749 1.82973e-05 0)
(-0.000670628 1.83907e-05 0)
(-0.000734778 1.84119e-05 0)
(-0.000798959 1.83718e-05 0)
(-0.000862964 1.82796e-05 0)
(-0.000926612 1.81432e-05 0)
(-0.000989747 1.79685e-05 0)
(-0.00105223 1.77603e-05 0)
(-0.00111395 1.75225e-05 0)
(-0.00117478 1.72585e-05 0)
(-0.00123464 1.69704e-05 0)
(-0.00129343 1.66599e-05 0)
(-0.00135106 1.63276e-05 0)
(-0.00140746 1.59737e-05 0)
(-0.00146254 1.55984e-05 0)
(-0.00151622 1.52013e-05 0)
(-0.00156842 1.4782e-05 0)
(-0.00161906 1.43394e-05 0)
(-0.00166806 1.38729e-05 0)
(-0.00171532 1.33815e-05 0)
(-0.00176077 1.28642e-05 0)
(-0.0018043 1.23201e-05 0)
(-0.00184582 1.17479e-05 0)
(-0.00188525 1.11468e-05 0)
(-0.00192247 1.05161e-05 0)
(-0.00195739 9.85505e-06 0)
(-0.0019899 9.16292e-06 0)
(-0.00201991 8.4392e-06 0)
(-0.0020473 7.68366e-06 0)
(-0.00207196 6.89619e-06 0)
(-0.00209381 6.07667e-06 0)
(-0.00211272 5.22509e-06 0)
(-0.00212859 4.34187e-06 0)
(-0.00214133 3.42777e-06 0)
(-0.00215084 2.48366e-06 0)
(-0.00215701 1.51047e-06 0)
(-0.00215976 5.09378e-07 0)
(-0.002159 -5.18032e-07 0)
(-0.00215465 -1.56975e-06 0)
(-0.00214663 -2.64361e-06 0)
(-0.00213489 -3.73731e-06 0)
(-0.00211937 -4.84822e-06 0)
(-0.0021 -5.97319e-06 0)
(-0.00207678 -7.10874e-06 0)
(-0.00204965 -8.25125e-06 0)
(-0.00201862 -9.39684e-06 0)
(-0.00198369 -1.05411e-05 0)
(-0.00194488 -1.16793e-05 0)
(-0.00190222 -1.28062e-05 0)
(-0.00185575 -1.39165e-05 0)
(-0.00180556 -1.50046e-05 0)
(-0.00175174 -1.60643e-05 0)
(-0.00169439 -1.7089e-05 0)
(-0.00163364 -1.80717e-05 0)
(-0.00156967 -1.90055e-05 0)
(-0.00150264 -1.98826e-05 0)
(-0.00143277 -2.06952e-05 0)
(-0.0013603 -2.14349e-05 0)
(-0.00128548 -2.20929e-05 0)
(-0.00120862 -2.26603e-05 0)
(-0.00113003 -2.31279e-05 0)
(-0.00105007 -2.34859e-05 0)
(-0.000969134 -2.37242e-05 0)
(-0.000887643 -2.38326e-05 0)
(-0.000806052 -2.38006e-05 0)
(-0.000724852 -2.36173e-05 0)
(-0.00064457 -2.32716e-05 0)
(-0.000565766 -2.27521e-05 0)
(-0.000489037 -2.20471e-05 0)
(-0.000415015 -2.11446e-05 0)
(-0.000344362 -2.00323e-05 0)
(-0.000277778 -1.86971e-05 0)
(-0.000215987 -1.71261e-05 0)
(-0.000159743 -1.53058e-05 0)
(-0.000109815 -1.32233e-05 0)
(-6.69788e-05 -1.08677e-05 0)
(-3.19882e-05 -8.235e-06 0)
(-5.52508e-06 -5.34101e-06 0)
(1.18674e-05 -2.25183e-06 0)
(1.9972e-05 8.79454e-07 0)
(1.92437e-05 3.64651e-06 0)
(1.19177e-05 5.15095e-06 0)
(3.52646e-06 3.52909e-06 0)
(4.20519e-06 -1.01337e-05 0)
(1.0953e-05 -1.10759e-05 0)
(9.50889e-06 -1.75091e-06 0)
(-7.27882e-06 1.18925e-05 0)
(-4.26173e-05 2.69219e-05 0)
(-9.72094e-05 4.17836e-05 0)
(-0.000170559 5.57017e-05 0)
(-0.000261447 6.83099e-05 0)
(-0.00036828 7.94773e-05 0)
(-0.000489302 8.9195e-05 0)
(-0.000622721 9.75182e-05 0)
(-0.000766793 0.000104535 0)
(-0.000919864 0.000110349 0)
(-0.0010804 0.000115074 0)
(-0.00124699 0.000118819 0)
(-0.00141836 0.000121694 0)
(-0.00159338 0.0001238 0)
(-0.00177101 0.000125231 0)
(-0.00195037 0.000126072 0)
(-0.00213066 0.0001264 0)
(-0.00231119 0.000126282 0)
(-0.00249136 0.000125777 0)
(-0.00267061 0.000124937 0)
(-0.0028485 0.000123803 0)
(-0.00302461 0.000122411 0)
(-0.00319857 0.000120789 0)
(-0.00337005 0.000118959 0)
(-0.00353875 0.00011694 0)
(-0.0037044 0.000114743 0)
(-0.00386673 0.000112377 0)
(-0.0040255 0.000109848 0)
(-0.00418046 0.000107158 0)
(-0.00433138 0.000104307 0)
(-0.00447801 0.000101295 0)
(-0.00462013 9.81188e-05 0)
(-0.00475749 9.47736e-05 0)
(-0.00488985 9.12557e-05 0)
(-0.00501696 8.75605e-05 0)
(-0.00513855 8.36829e-05 0)
(-0.00525437 7.96179e-05 0)
(-0.00536416 7.53607e-05 0)
(-0.00546763 7.09074e-05 0)
(-0.00556452 6.62545e-05 0)
(-0.00565454 6.13988e-05 0)
(-0.00573741 5.63382e-05 0)
(-0.00581285 5.10715e-05 0)
(-0.00588057 4.55986e-05 0)
(-0.00594029 3.99203e-05 0)
(-0.00599173 3.40384e-05 0)
(-0.0060346 2.79561e-05 0)
(-0.00606865 2.16782e-05 0)
(-0.0060936 1.52111e-05 0)
(-0.00610921 8.56211e-06 0)
(-0.00611524 1.74046e-06 0)
(-0.00611145 -5.24307e-06 0)
(-0.00609765 -1.23757e-05 0)
(-0.00607364 -1.96428e-05 0)
(-0.00603925 -2.70283e-05 0)
(-0.00599434 -3.45139e-05 0)
(-0.0059388 -4.20794e-05 0)
(-0.00587254 -4.97025e-05 0)
(-0.0057955 -5.73586e-05 0)
(-0.00570766 -6.50214e-05 0)
(-0.00560905 -7.26623e-05 0)
(-0.00549973 -8.02502e-05 0)
(-0.00537981 -8.77517e-05 0)
(-0.00524943 -9.51314e-05 0)
(-0.00510881 -0.000102351 0)
(-0.0049582 -0.000109372 0)
(-0.00479792 -0.000116149 0)
(-0.00462836 -0.000122639 0)
(-0.00444995 -0.000128794 0)
(-0.0042632 -0.000134564 0)
(-0.0040687 -0.000139897 0)
(-0.00386711 -0.000144739 0)
(-0.00365915 -0.000149031 0)
(-0.00344563 -0.000152716 0)
(-0.00322747 -0.000155733 0)
(-0.00300564 -0.000158018 0)
(-0.0027812 -0.000159507 0)
(-0.00255533 -0.000160135 0)
(-0.00232927 -0.000159833 0)
(-0.00210436 -0.000158534 0)
(-0.00188204 -0.000156171 0)
(-0.00166383 -0.000152676 0)
(-0.00145134 -0.000147981 0)
(-0.00124626 -0.000142023 0)
(-0.00105036 -0.000134738 0)
(-0.000865468 -0.000126072 0)
(-0.000693471 -0.000115977 0)
(-0.000536274 -0.000104419 0)
(-0.000395774 -9.13892e-05 0)
(-0.000273799 -7.69213e-05 0)
(-0.000172022 -6.11228e-05 0)
(-9.18067e-05 -4.42407e-05 0)
(-3.39912e-05 -2.67818e-05 0)
(1.48159e-06 -9.7016e-06 0)
(1.61608e-05 5.16677e-06 0)
(1.44347e-05 1.44527e-05 0)
(5.12854e-06 1.18987e-05 0)
(2.68948e-06 -1.53971e-05 0)
(1.77856e-06 -9.58001e-06 0)
(-1.58958e-05 1.5883e-05 0)
(-5.68364e-05 5.06861e-05 0)
(-0.000124437 8.90765e-05 0)
(-0.000219739 0.000127589 0)
(-0.000342251 0.000164237 0)
(-0.000490494 0.000197956 0)
(-0.000662408 0.00022824 0)
(-0.000855625 0.000254918 0)
(-0.00106766 0.000278021 0)
(-0.00129602 0.000297697 0)
(-0.0015383 0.000314163 0)
(-0.00179223 0.000327672 0)
(-0.0020557 0.000338491 0)
(-0.00232677 0.000346888 0)
(-0.0026037 0.000353123 0)
(-0.00288489 0.000357442 0)
(-0.00316893 0.000360071 0)
(-0.00345459 0.000361216 0)
(-0.00374073 0.000361061 0)
(-0.00402639 0.00035977 0)
(-0.00431071 0.000357482 0)
(-0.00459291 0.000354318 0)
(-0.00487231 0.000350379 0)
(-0.00514832 0.000345746 0)
(-0.00542038 0.000340487 0)
(-0.005688 0.000334653 0)
(-0.00595071 0.000328284 0)
(-0.00620808 0.000321408 0)
(-0.0064597 0.000314043 0)
(-0.00670516 0.0003062 0)
(-0.00694409 0.000297885 0)
(-0.0071761 0.000289096 0)
(-0.00740081 0.000279829 0)
(-0.00761781 0.000270076 0)
(-0.00782674 0.000259827 0)
(-0.00802719 0.000249072 0)
(-0.00821875 0.000237799 0)
(-0.00840102 0.000225996 0)
(-0.00857357 0.000213653 0)
(-0.008736 0.00020076 0)
(-0.00888786 0.000187309 0)
(-0.00902872 0.000173292 0)
(-0.00915815 0.000158706 0)
(-0.00927571 0.000143549 0)
(-0.00938097 0.000127821 0)
(-0.00947348 0.000111525 0)
(-0.00955283 9.46702e-05 0)
(-0.00961859 7.72652e-05 0)
(-0.00967035 5.93246e-05 0)
(-0.00970772 4.08667e-05 0)
(-0.00973031 2.19137e-05 0)
(-0.00973777 2.49231e-06 0)
(-0.00972975 -1.73663e-05 0)
(-0.00970596 -3.7626e-05 0)
(-0.00966609 -5.82456e-05 0)
(-0.00960992 -7.9179e-05 0)
(-0.00953723 -0.000100375 0)
(-0.00944786 -0.000121776 0)
(-0.00934169 -0.00014332 0)
(-0.00921864 -0.000164938 0)
(-0.00907872 -0.000186555 0)
(-0.00892196 -0.000208093 0)
(-0.00874847 -0.000229463 0)
(-0.00855844 -0.000250573 0)
(-0.00835212 -0.000271324 0)
(-0.00812985 -0.000291609 0)
(-0.00789205 -0.000311316 0)
(-0.00763921 -0.000330327 0)
(-0.00737195 -0.000348516 0)
(-0.00709096 -0.000365748 0)
(-0.00679706 -0.000381887 0)
(-0.00649115 -0.000396786 0)
(-0.00617427 -0.000410292 0)
(-0.00584756 -0.000422249 0)
(-0.0055123 -0.000432491 0)
(-0.00516989 -0.000440849 0)
(-0.00482185 -0.000447149 0)
(-0.00446986 -0.000451214 0)
(-0.0041157 -0.000452861 0)
(-0.00376132 -0.000451908 0)
(-0.00340879 -0.000448173 0)
(-0.00306032 -0.000441473 0)
(-0.00271823 -0.00043163 0)
(-0.00238498 -0.000418474 0)
(-0.00206314 -0.000401845 0)
(-0.00175538 -0.0003816 0)
(-0.00146444 -0.00035762 0)
(-0.00119308 -0.000329825 0)
(-0.000944092 -0.000298194 0)
(-0.000720173 -0.000262794 0)
(-0.000523863 -0.000223832 0)
(-0.000357398 -0.000181746 0)
(-0.000222499 -0.000137342 0)
(-0.000120089 -9.20381e-05 0)
(-4.98624e-05 -4.82526e-05 0)
(-9.69794e-06 -9.99922e-06 0)
(5.26391e-06 1.61936e-05 0)
(3.62918e-06 1.91912e-05 0)
(1.41423e-07 -1.43647e-05 0)
(-1.18772e-05 7.27054e-06 0)
(-5.09278e-05 5.68771e-05 0)
(-0.000121038 0.000120571 0)
(-0.000224763 0.000190007 0)
(-0.000363019 0.000259827 0)
(-0.000535154 0.000326717 0)
(-0.000739446 0.000388752 0)
(-0.000973504 0.000444914 0)
(-0.00123454 0.000494763 0)
(-0.00151959 0.000538238 0)
(-0.00182562 0.000575512 0)
(-0.00214966 0.000606907 0)
(-0.0024889 0.000632826 0)
(-0.00284065 0.000653719 0)
(-0.00320244 0.000670048 0)
(-0.00357201 0.000682272 0)
(-0.00394732 0.000690829 0)
(-0.0043265 0.000696131 0)
(-0.00470789 0.000698558 0)
(-0.00509003 0.000698449 0)
(-0.00547159 0.00069611 0)
(-0.0058514 0.000691804 0)
(-0.00622843 0.00068576 0)
(-0.00660174 0.000678172 0)
(-0.0069705 0.0006692 0)
(-0.00733396 0.000658972 0)
(-0.00769141 0.000647594 0)
(-0.00804223 0.000635144 0)
(-0.00838582 0.00062168 0)
(-0.0087216 0.000607243 0)
(-0.00904903 0.000591859 0)
(-0.00936758 0.000575541 0)
(-0.00967672 0.000558292 0)
(-0.00997594 0.000540107 0)
(-0.0102647 0.000520977 0)
(-0.0105425 0.000500885 0)
(-0.0108088 0.000479816 0)
(-0.0110631 0.00045775 0)
(-0.0113047 0.000434669 0)
(-0.0115333 0.000410555 0)
(-0.0117482 0.000385393 0)
(-0.0119488 0.000359167 0)
(-0.0121346 0.00033187 0)
(-0.012305 0.000303494 0)
(-0.0124595 0.000274037 0)
(-0.0125974 0.000243504 0)
(-0.0127183 0.000211903 0)
(-0.0128216 0.000179249 0)
(-0.0129067 0.000145564 0)
(-0.0129731 0.000110876 0)
(-0.0130203 7.52216e-05 0)
(-0.0130478 3.86442e-05 0)
(-0.0130552 1.19613e-06 0)
(-0.0130421 -3.70618e-05 0)
(-0.0130079 -7.60602e-05 0)
(-0.0129525 -0.00011572 0)
(-0.0128754 -0.000155952 0)
(-0.0127765 -0.000196657 0)
(-0.0126555 -0.000237728 0)
(-0.0125123 -0.000279043 0)
(-0.0123468 -0.000320473 0)
(-0.0121591 -0.000361875 0)
(-0.0119492 -0.000403096 0)
(-0.0117172 -0.000443972 0)
(-0.0114634 -0.000484325 0)
(-0.0111883 -0.000523967 0)
(-0.0108922 -0.000562696 0)
(-0.0105757 -0.000600299 0)
(-0.0102394 -0.00063655 0)
(-0.00988428 -0.000671208 0)
(-0.00951117 -0.000704024 0)
(-0.00912115 -0.000734732 0)
(-0.00871544 -0.000763057 0)
(-0.0082954 -0.000788711 0)
(-0.00786255 -0.000811394 0)
(-0.00741856 -0.000830797 0)
(-0.00696528 -0.000846599 0)
(-0.0065047 -0.000858474 0)
(-0.00603901 -0.000866088 0)
(-0.00557055 -0.000869103 0)
(-0.00510184 -0.00086718 0)
(-0.00463559 -0.000859981 0)
(-0.00417463 -0.000847176 0)
(-0.00372199 -0.000828445 0)
(-0.00328081 -0.000803488 0)
(-0.00285438 -0.000772033 0)
(-0.00244608 -0.000733849 0)
(-0.00205935 -0.000688765 0)
(-0.00169767 -0.000636695 0)
(-0.00136445 -0.000577681 0)
(-0.00106299 -0.000511948 0)
(-0.000796304 -0.000439999 0)
(-0.00056702 -0.000362755 0)
(-0.000377108 -0.000281774 0)
(-0.00022761 -0.000199591 0)
(-0.00011823 -0.000120239 0)
(-4.68178e-05 -4.99418e-05 0)
(-9.17246e-06 1.87357e-06 0)
(9.28335e-07 2.00075e-05 0)
(-2.64046e-06 -5.37907e-06 0)
(-2.71275e-05 4.28774e-05 0)
(-9.00749e-05 0.000124927 0)
(-0.00019198 0.000224536 0)
(-0.000333925 0.00033137 0)
(-0.0005163 0.000438465 0)
(-0.000738066 0.00054129 0)
(-0.000997171 0.000637064 0)
(-0.00129091 0.000724212 0)
(-0.00161616 0.000801973 0)
(-0.00196959 0.000870144 0)
(-0.00234776 0.00092889 0)
(-0.00274729 0.000978613 0)
(-0.00316492 0.00101986 0)
(-0.00359753 0.00105328 0)
(-0.00404224 0.00107953 0)
(-0.00449635 0.00109929 0)
(-0.00495743 0.00111322 0)
(-0.00542325 0.00112195 0)
(-0.0058918 0.00112605 0)
(-0.00636128 0.00112606 0)
(-0.00683007 0.00112244 0)
(-0.00729674 0.00111561 0)
(-0.00775999 0.00110593 0)
(-0.00821866 0.00109371 0)
(-0.0086717 0.0010792 0)
(-0.00911817 0.00106262 0)
(-0.00955719 0.00104413 0)
(-0.00998796 0.00102387 0)
(-0.0104097 0.00100193 0)
(-0.0108218 0.000978386 0)
(-0.0112234 0.000953285 0)
(-0.0116139 0.000926652 0)
(-0.0119927 0.0008985 0)
(-0.0123592 0.000868827 0)
(-0.0127126 0.00083762 0)
(-0.0130523 0.000804863 0)
(-0.0133777 0.000770532 0)
(-0.0136882 0.000734602 0)
(-0.013983 0.000697049 0)
(-0.0142615 0.000657848 0)
(-0.014523 0.000616977 0)
(-0.0147669 0.000574418 0)
(-0.0149924 0.000530159 0)
(-0.015199 0.000484194 0)
(-0.0153858 0.000436523 0)
(-0.0155523 0.000387153 0)
(-0.0156977 0.000336102 0)
(-0.0158215 0.000283397 0)
(-0.0159229 0.000229073 0)
(-0.0160014 0.00017318 0)
(-0.0160563 0.000115775 0)
(-0.0160871 5.69315e-05 0)
(-0.0160932 -3.26684e-06 0)
(-0.0160742 -6.47215e-05 0)
(-0.0160296 -0.00012732 0)
(-0.015959 -0.000190936 0)
(-0.015862 -0.000255427 0)
(-0.0157383 -0.000320635 0)
(-0.0155878 -0.000386385 0)
(-0.0154103 -0.000452487 0)
(-0.0152057 -0.000518733 0)
(-0.014974 -0.000584896 0)
(-0.0147154 -0.000650733 0)
(-0.0144301 -0.000715981 0)
(-0.0141184 -0.00078036 0)
(-0.0137807 -0.00084357 0)
(-0.0134177 -0.000905291 0)
(-0.01303 -0.000965183 0)
(-0.0126185 -0.00102289 0)
(-0.0121842 -0.00107803 0)
(-0.0117281 -0.0011302 0)
(-0.0112517 -0.00117899 0)
(-0.0107564 -0.00122397 0)
(-0.0102439 -0.00126467 0)
(-0.00971592 -0.00130062 0)
(-0.00917459 -0.00133134 0)
(-0.0086221 -0.00135632 0)
(-0.00806088 -0.00137505 0)
(-0.00749355 -0.00138702 0)
(-0.00692292 -0.00139168 0)
(-0.00635202 -0.00138853 0)
(-0.00578405 -0.00137704 0)
(-0.00522242 -0.0013567 0)
(-0.00467069 -0.00132705 0)
(-0.0041326 -0.00128763 0)
(-0.00361198 -0.00123807 0)
(-0.00311281 -0.00117805 0)
(-0.00263907 -0.00110736 0)
(-0.00219477 -0.00102596 0)
(-0.00178381 -0.000933999 0)
(-0.00140992 -0.000831929 0)
(-0.0010765 -0.000720633 0)
(-0.000786476 -0.000601608 0)
(-0.000542066 -0.000477238 0)
(-0.000344565 -0.000351198 0)
(-0.000193958 -0.000229033 0)
(-8.85086e-05 -0.000118877 0)
(-2.54256e-05 -3.2446e-05 0)
(-2.05697e-06 1.23091e-05 0)
(-5.33743e-06 1.18126e-05 0)
(-4.24846e-05 9.82867e-05 0)
(-0.000130064 0.000221558 0)
(-0.000264647 0.00036413 0)
(-0.000445473 0.000514339 0)
(-0.000672114 0.000664011 0)
(-0.000942935 0.00080762 0)
(-0.00125543 0.000941629 0)
(-0.00160654 0.00106394 0)
(-0.00199282 0.00117347 0)
(-0.00241061 0.00126986 0)
(-0.00285617 0.00135324 0)
(-0.00332578 0.00142408 0)
(-0.00381582 0.00148308 0)
(-0.00432286 0.00153104 0)
(-0.00484364 0.00156887 0)
(-0.00537516 0.00159746 0)
(-0.00591463 0.00161772 0)
(-0.00645953 0.00163049 0)
(-0.00700755 0.00163657 0)
(-0.00755662 0.00163671 0)
(-0.00810485 0.00163156 0)
(-0.00865056 0.0016217 0)
(-0.00919224 0.00160766 0)
(-0.00972852 0.00158987 0)
(-0.0102582 0.00156869 0)
(-0.01078 0.00154445 0)
(-0.0112931 0.00151737 0)
(-0.0117964 0.00148766 0)
(-0.0122891 0.00145546 0)
(-0.0127702 0.00142089 0)
(-0.0132389 0.00138401 0)
(-0.0136946 0.00134488 0)
(-0.0141363 0.00130352 0)
(-0.0145634 0.00125994 0)
(-0.014975 0.00121411 0)
(-0.0153705 0.00116603 0)
(-0.015749 0.00111567 0)
(-0.0161098 0.00106299 0)
(-0.0164522 0.00100797 0)
(-0.0167753 0.000950583 0)
(-0.0170784 0.000890794 0)
(-0.0173607 0.000828586 0)
(-0.0176215 0.000763945 0)
(-0.0178599 0.000696865 0)
(-0.0180751 0.000627351 0)
(-0.0182665 0.000555419 0)
(-0.0184332 0.000481096 0)
(-0.0185746 0.000404424 0)
(-0.0186898 0.000325458 0)
(-0.0187782 0.00024427 0)
(-0.0188391 0.000160948 0)
(-0.0188718 7.55961e-05 0)
(-0.0188759 -1.16606e-05 0)
(-0.0188506 -0.00010068 0)
(-0.0187956 -0.000191298 0)
(-0.0187103 -0.000283331 0)
(-0.0185944 -0.000376574 0)
(-0.0184475 -0.000470799 0)
(-0.0182695 -0.000565753 0)
(-0.0180602 -0.000661163 0)
(-0.0178195 -0.000756729 0)
(-0.0175475 -0.000852126 0)
(-0.0172443 -0.000947003 0)
(-0.0169103 -0.00104099 0)
(-0.0165458 -0.00113367 0)
(-0.0161513 -0.00122462 0)
(-0.0157276 -0.00131339 0)
(-0.0152754 -0.00139948 0)
(-0.0147958 -0.00148239 0)
(-0.0142899 -0.00156157 0)
(-0.0137591 -0.00163645 0)
(-0.0132048 -0.00170644 0)
(-0.0126288 -0.0017709 0)
(-0.0120331 -0.00182921 0)
(-0.0114196 -0.00188067 0)
(-0.0107909 -0.0019246 0)
(-0.0101493 -0.00196029 0)
(-0.00949781 -0.00198702 0)
(-0.00883928 -0.00200404 0)
(-0.00817697 -0.00201063 0)
(-0.00751433 -0.00200605 0)
(-0.00685501 -0.00198958 0)
(-0.00620285 -0.00196054 0)
(-0.00556189 -0.00191827 0)
(-0.00493631 -0.00186221 0)
(-0.00433044 -0.00179183 0)
(-0.00374867 -0.00170677 0)
(-0.00319547 -0.00160682 0)
(-0.00267522 -0.00149197 0)
(-0.00219222 -0.00136255 0)
(-0.00175055 -0.00121928 0)
(-0.00135393 -0.00106346 0)
(-0.00100558 -0.000897202 0)
(-0.000708024 -0.000723699 0)
(-0.000462952 -0.000547682 0)
(-0.000270863 -0.000375992 0)
(-0.00013076 -0.000218267 0)
(-4.16603e-05 -8.78281e-05 0)
(-4.92098e-06 -4.13457e-06 0)
(-7.83354e-06 3.69232e-05 0)
(-5.72202e-05 0.000173396 0)
(-0.000169042 0.00034687 0)
(-0.00033597 0.000539473 0)
(-0.000555247 0.000738816 0)
(-0.000825441 0.000935939 0)
(-0.00114416 0.00112459 0)
(-0.00150834 0.00130065 0)
(-0.00191448 0.00146158 0)
(-0.00235881 0.00160602 0)
(-0.00283735 0.00173346 0)
(-0.00334608 0.00184401 0)
(-0.00388099 0.00193821 0)
(-0.0044382 0.00201689 0)
(-0.00501399 0.00208103 0)
(-0.00560482 0.00213176 0)
(-0.00620742 0.00217021 0)
(-0.00681874 0.00219752 0)
(-0.00743599 0.00221479 0)
(-0.00805661 0.00222306 0)
(-0.0086783 0.00222327 0)
(-0.00929895 0.0022163 0)
(-0.00991668 0.00220292 0)
(-0.0105298 0.00218381 0)
(-0.0111367 0.00215955 0)
(-0.0117359 0.00213063 0)
(-0.0123263 0.00209748 0)
(-0.0129067 0.00206042 0)
(-0.0134758 0.00201973 0)
(-0.0140327 0.0019756 0)
(-0.0145764 0.0019282 0)
(-0.015106 0.00187763 0)
(-0.0156205 0.00182397 0)
(-0.0161191 0.00176724 0)
(-0.0166009 0.00170748 0)
(-0.0170651 0.00164466 0)
(-0.0175107 0.00157879 0)
(-0.017937 0.00150982 0)
(-0.0183431 0.00143772 0)
(-0.0187281 0.00136247 0)
(-0.0190911 0.00128402 0)
(-0.0194313 0.00120234 0)
(-0.0197479 0.00111743 0)
(-0.0200399 0.00102925 0)
(-0.0203065 0.00093782 0)
(-0.0205468 0.000843136 0)
(-0.02076 0.000745228 0)
(-0.0209453 0.000644138 0)
(-0.0211018 0.000539925 0)
(-0.0212287 0.000432668 0)
(-0.0213253 0.000322465 0)
(-0.0213908 0.000209438 0)
(-0.0214246 9.37324e-05 0)
(-0.021426 -2.44843e-05 0)
(-0.0213943 -0.000145017 0)
(-0.021329 -0.000267645 0)
(-0.0212298 -0.000392118 0)
(-0.021096 -0.000518159 0)
(-0.0209275 -0.00064546 0)
(-0.0207239 -0.000773682 0)
(-0.0204852 -0.000902454 0)
(-0.0202113 -0.00103137 0)
(-0.0199023 -0.00116001 0)
(-0.0195583 -0.00128788 0)
(-0.0191798 -0.00141448 0)
(-0.0187671 -0.00153928 0)
(-0.0183209 -0.0016617 0)
(-0.017842 -0.00178111 0)
(-0.0173313 -0.00189688 0)
(-0.0167899 -0.00200831 0)
(-0.0162192 -0.00211468 0)
(-0.0156207 -0.00221522 0)
(-0.0149961 -0.00230915 0)
(-0.0143472 -0.00239562 0)
(-0.0136763 -0.00247378 0)
(-0.0129858 -0.00254273 0)
(-0.0122782 -0.00260155 0)
(-0.0115564 -0.0026493 0)
(-0.0108234 -0.00268503 0)
(-0.0100827 -0.00270776 0)
(-0.00933776 -0.00271654 0)
(-0.00859237 -0.0027104 0)
(-0.00785057 -0.00268843 0)
(-0.00711658 -0.00264974 0)
(-0.00639482 -0.00259351 0)
(-0.00568985 -0.00251901 0)
(-0.00500638 -0.00242563 0)
(-0.00434918 -0.00231295 0)
(-0.00372303 -0.00218076 0)
(-0.0031327 -0.00202915 0)
(-0.00258279 -0.00185861 0)
(-0.00207767 -0.00167017 0)
(-0.00162138 -0.00146557 0)
(-0.00121746 -0.00124748 0)
(-0.000868821 -0.00101985 0)
(-0.000577662 -0.00078831 0)
(-0.000345172 -0.000560733 0)
(-0.000171282 -0.000347825 0)
(-5.69635e-05 -0.000163882 0)
(-7.51507e-06 -2.88979e-05 0)
(-1.0091e-05 6.94431e-05 0)
(-7.0994e-05 0.000267435 0)
(-0.000206024 0.000500057 0)
(-0.000404175 0.000749711 0)
(-0.000660699 0.0010038 0)
(-0.000973073 0.00125297 0)
(-0.00133805 0.00149053 0)
(-0.00175189 0.00171196 0)
(-0.00221063 0.00191443 0)
(-0.00271009 0.00209636 0)
(-0.003246 0.00225715 0)
(-0.00381404 0.00239691 0)
(-0.00440998 0.00251623 0)
(-0.00502966 0.00261609 0)
(-0.00566914 0.00269768 0)
(-0.00632467 0.00276232 0)
(-0.00699272 0.0028114 0)
(-0.00767004 0.0028463 0)
(-0.00835363 0.00286837 0)
(-0.00904071 0.0028789 0)
(-0.00972879 0.00287906 0)
(-0.0104156 0.00286995 0)
(-0.011099 0.00285252 0)
(-0.0117771 0.00282764 0)
(-0.0124483 0.00279605 0)
(-0.013111 0.00275838 0)
(-0.0137637 0.00271516 0)
(-0.0144051 0.00266681 0)
(-0.015034 0.0026137 0)
(-0.0156493 0.00255609 0)
(-0.0162498 0.00249418 0)
(-0.0168345 0.00242813 0)
(-0.0174023 0.00235804 0)
(-0.0179524 0.00228395 0)
(-0.0184837 0.00220592 0)
(-0.0189953 0.00212392 0)
(-0.0194862 0.00203797 0)
(-0.0199555 0.00194801 0)
(-0.0204023 0.00185403 0)
(-0.0208256 0.00175599 0)
(-0.0212245 0.00165384 0)
(-0.0215979 0.00154756 0)
(-0.0219451 0.00143714 0)
(-0.022265 0.00132255 0)
(-0.0225567 0.0012038 0)
(-0.0228192 0.0010809 0)
(-0.0230517 0.000953911 0)
(-0.0232533 0.000822872 0)
(-0.023423 0.00068787 0)
(-0.02356 0.000549008 0)
(-0.0236635 0.000406418 0)
(-0.0237327 0.000260259 0)
(-0.0237668 0.000110718 0)
(-0.0237652 -4.1983e-05 0)
(-0.0237271 -0.000197594 0)
(-0.0236521 -0.000355828 0)
(-0.0235396 -0.000516364 0)
(-0.0233892 -0.000678843 0)
(-0.0232005 -0.000842869 0)
(-0.0229733 -0.00100801 0)
(-0.0227075 -0.00117378 0)
(-0.0224031 -0.00133967 0)
(-0.0220601 -0.00150512 0)
(-0.0216787 -0.00166952 0)
(-0.0212595 -0.00183223 0)
(-0.0208028 -0.00199255 0)
(-0.0203095 -0.00214974 0)
(-0.0197803 -0.00230301 0)
(-0.0192163 -0.00245155 0)
(-0.0186188 -0.00259445 0)
(-0.0179892 -0.00273081 0)
(-0.0173293 -0.00285964 0)
(-0.0166407 -0.00297994 0)
(-0.0159258 -0.00309064 0)
(-0.0151868 -0.00319065 0)
(-0.0144264 -0.00327884 0)
(-0.0136474 -0.00335404 0)
(-0.0128528 -0.00341506 0)
(-0.0120462 -0.0034607 0)
(-0.011231 -0.00348975 0)
(-0.0104111 -0.003501 0)
(-0.00959064 -0.00349326 0)
(-0.00877396 -0.0034654 0)
(-0.00796557 -0.00341632 0)
(-0.00717023 -0.00334503 0)
(-0.00639281 -0.00325067 0)
(-0.00563833 -0.00313254 0)
(-0.00491186 -0.00299015 0)
(-0.00421851 -0.00282332 0)
(-0.00356329 -0.00263225 0)
(-0.00295113 -0.0024176 0)
(-0.00238667 -0.00218069 0)
(-0.00187427 -0.00192368 0)
(-0.00141782 -0.00164975 0)
(-0.00102069 -0.00136351 0)
(-0.000685678 -0.00107129 0)
(-0.00041476 -0.000781721 0)
(-0.000208879 -0.000506181 0)
(-7.09168e-05 -0.000259415 0)
(-9.7914e-06 -6.12714e-05 0)
(-1.21145e-05 0.000108793 0)
(-8.36839e-05 0.000379284 0)
(-0.000240536 0.000679773 0)
(-0.000468312 0.00099338 0)
(-0.000760371 0.0013077 0)
(-0.00111308 0.00161333 0)
(-0.00152227 0.00190341 0)
(-0.00198352 0.00217324 0)
(-0.00249229 0.00241979 0)
(-0.003044 0.00264141 0)
(-0.00363404 0.00283744 0)
(-0.00425782 0.00300802 0)
(-0.00491084 0.00315386 0)
(-0.00558875 0.00327607 0)
(-0.00628738 0.00337606 0)
(-0.00700279 0.00345536 0)
(-0.00773126 0.00351561 0)
(-0.00846936 0.00355844 0)
(-0.00921391 0.00358548 0)
(-0.00996196 0.00359823 0)
(-0.0107108 0.00359814 0)
(-0.0114581 0.00358651 0)
(-0.0122015 0.0035645 0)
(-0.0129391 0.00353317 0)
(-0.0136689 0.00349342 0)
(-0.0143893 0.00344602 0)
(-0.0150988 0.00339162 0)
(-0.0157958 0.00333077 0)
(-0.0164791 0.00326389 0)
(-0.0171474 0.00319134 0)
(-0.0177994 0.00311338 0)
(-0.0184341 0.00303019 0)
(-0.0190504 0.00294191 0)
(-0.0196471 0.00284863 0)
(-0.0202233 0.00275038 0)
(-0.0207778 0.00264719 0)
(-0.0213097 0.00253905 0)
(-0.0218179 0.00242593 0)
(-0.0223015 0.0023078 0)
(-0.0227594 0.00218462 0)
(-0.0231905 0.00205636 0)
(-0.0235939 0.00192299 0)
(-0.0239686 0.00178448 0)
(-0.0243136 0.00164084 0)
(-0.0246278 0.00149207 0)
(-0.0249102 0.00133821 0)
(-0.0251599 0.00117929 0)
(-0.0253759 0.00101541 0)
(-0.0255573 0.000846665 0)
(-0.0257032 0.000673189 0)
(-0.0258126 0.000495149 0)
(-0.0258848 0.000312747 0)
(-0.0259189 0.000126218 0)
(-0.0259142 -6.41621e-05 0)
(-0.02587 -0.000258079 0)
(-0.0257858 -0.000455175 0)
(-0.025661 -0.00065505 0)
(-0.0254951 -0.000857259 0)
(-0.0252878 -0.00106131 0)
(-0.0250389 -0.00126666 0)
(-0.0247482 -0.00147272 0)
(-0.0244157 -0.00167884 0)
(-0.0240415 -0.00188434 0)
(-0.023626 -0.00208846 0)
(-0.0231695 -0.0022904 0)
(-0.0226727 -0.00248931 0)
(-0.0221362 -0.00268426 0)
(-0.0215611 -0.00287429 0)
(-0.0209485 -0.00305836 0)
(-0.0202998 -0.0032354 0)
(-0.0196165 -0.00340426 0)
(-0.0189005 -0.00356375 0)
(-0.0181538 -0.00371261 0)
(-0.0173787 -0.00384954 0)
(-0.0165776 -0.00397321 0)
(-0.0157535 -0.00408222 0)
(-0.0149094 -0.00417514 0)
(-0.0140486 -0.00425054 0)
(-0.0131748 -0.00430694 0)
(-0.0122916 -0.00434288 0)
(-0.0114034 -0.00435689 0)
(-0.0105144 -0.00434757 0)
(-0.00962932 -0.00431353 0)
(-0.00875287 -0.0042535 0)
(-0.0078901 -0.0041663 0)
(-0.00704616 -0.00405094 0)
(-0.00622634 -0.00390661 0)
(-0.00543598 -0.00373281 0)
(-0.00468044 -0.00352936 0)
(-0.00396501 -0.00329655 0)
(-0.00329487 -0.00303525 0)
(-0.00267498 -0.00274704 0)
(-0.00211001 -0.00243442 0)
(-0.00160425 -0.00210104 0)
(-0.00116157 -0.001752 0)
(-0.000785417 -0.0013942 0)
(-0.000478584 -0.00103673 0)
(-0.000243026 -0.000691347 0)
(-8.33825e-05 -0.000372831 0)
(-1.1754e-05 -0.000100453 0)
(-1.39225e-05 0.000154374 0)
(-9.52767e-05 0.00050767 0)
(-0.000272407 0.000884384 0)
(-0.000527952 0.00126864 0)
(-0.000853524 0.00164855 0)
(-0.00124441 0.00201491 0)
(-0.00169554 0.00236096 0)
(-0.00220173 0.00268197 0)
(-0.00275788 0.00297492 0)
(-0.00335897 0.00323813 0)
(-0.00400002 0.00347098 0)
(-0.00467614 0.00367372 0)
(-0.00538261 0.00384717 0)
(-0.00611485 0.00399264 0)
(-0.00686851 0.00411173 0)
(-0.00763945 0.00420621 0)
(-0.00842383 0.00427799 0)
(-0.00921803 0.00432895 0)
(-0.0100187 0.00436097 0)
(-0.0108228 0.00437584 0)
(-0.0116275 0.00437522 0)
(-0.0124302 0.00436064 0)
(-0.0132286 0.00433351 0)
(-0.0140204 0.00429504 0)
(-0.0148039 0.00424631 0)
(-0.015577 0.00418825 0)
(-0.0163382 0.00412164 0)
(-0.017086 0.00404713 0)
(-0.0178188 0.00396525 0)
(-0.0185353 0.00387642 0)
(-0.0192344 0.00378095 0)
(-0.0199146 0.0036791 0)
(-0.0205749 0.00357102 0)
(-0.021214 0.00345683 0)
(-0.0218309 0.00333661 0)
(-0.0224245 0.00321036 0)
(-0.0229936 0.0030781 0)
(-0.0235372 0.00293981 0)
(-0.0240541 0.00279546 0)
(-0.0245434 0.00264501 0)
(-0.0250038 0.00248843 0)
(-0.0254344 0.00232569 0)
(-0.0258341 0.00215677 0)
(-0.0262017 0.00198168 0)
(-0.0265363 0.00180043 0)
(-0.0268367 0.00161306 0)
(-0.027102 0.00141965 0)
(-0.027331 0.00122029 0)
(-0.027523 0.00101511 0)
(-0.0276768 0.000804287 0)
(-0.0277915 0.000588014 0)
(-0.0278663 0.00036654 0)
(-0.0279003 0.000140155 0)
(-0.0278927 -9.08067e-05 0)
(-0.0278429 -0.000325963 0)
(-0.0277502 -0.000564882 0)
(-0.0276141 -0.000807077 0)
(-0.027434 -0.00105201 0)
(-0.0272097 -0.00129908 0)
(-0.0269408 -0.00154764 0)
(-0.0266273 -0.00179698 0)
(-0.0262692 -0.00204631 0)
(-0.0258665 -0.0022948 0)
(-0.0254197 -0.00254154 0)
(-0.0249291 -0.00278557 0)
(-0.0243954 -0.00302586 0)
(-0.0238195 -0.00326129 0)
(-0.0232024 -0.00349071 0)
(-0.0225453 -0.00371286 0)
(-0.0218497 -0.00392646 0)
(-0.0211172 -0.00413011 0)
(-0.0203499 -0.0043224 0)
(-0.0195498 -0.00450182 0)
(-0.0187195 -0.00466682 0)
(-0.0178616 -0.00481579 0)
(-0.0169791 -0.00494707 0)
(-0.0160753 -0.00505897 0)
(-0.0151537 -0.00514976 0)
(-0.0142181 -0.00521772 0)
(-0.0132727 -0.00526111 0)
(-0.0123216 -0.00527822 0)
(-0.0113697 -0.00526738 0)
(-0.0104216 -0.00522698 0)
(-0.0094824 -0.00515556 0)
(-0.00855742 -0.00505176 0)
(-0.00765203 -0.00491445 0)
(-0.00677174 -0.00474274 0)
(-0.00592214 -0.00453608 0)
(-0.00510883 -0.00429431 0)
(-0.00433737 -0.00401782 0)
(-0.0036132 -0.00370763 0)
(-0.00294158 -0.00336555 0)
(-0.00232752 -0.00299439 0)
(-0.00177573 -0.00259817 0)
(-0.00129061 -0.00218236 0)
(-0.00087626 -0.00175424 0)
(-0.00053629 -0.00132319 0)
(-0.000273596 -0.000901042 0)
(-9.4372e-05 -0.000502375 0)
(-1.3428e-05 -0.000145632 0)
(-1.55356e-05 0.000205609 0)
(-0.000105813 0.000651278 0)
(-0.000301638 0.00111213 0)
(-0.000582988 0.00157348 0)
(-0.000939901 0.00202414 0)
(-0.00136665 0.00245539 0)
(-0.00185727 0.00286072 0)
(-0.00240584 0.00323557 0)
(-0.00300668 0.00357704 0)
(-0.00365429 0.00388355 0)
(-0.00434331 0.00415462 0)
(-0.00506858 0.00439062 0)
(-0.00582509 0.00459257 0)
(-0.00660808 0.00476198 0)
(-0.00741299 0.00490067 0)
(-0.00823556 0.00501069 0)
(-0.00907175 0.00509418 0)
(-0.00991784 0.00515333 0)
(-0.0107704 0.00519026 0)
(-0.0116261 0.00520703 0)
(-0.0124821 0.00520554 0)
(-0.0133358 0.00518758 0)
(-0.0141846 0.00515474 0)
(-0.0150262 0.00510846 0)
(-0.0158587 0.00504998 0)
(-0.0166801 0.00498038 0)
(-0.0174887 0.00490058 0)
(-0.0182828 0.00481134 0)
(-0.0190609 0.00471329 0)
(-0.0198216 0.00460692 0)
(-0.0205635 0.00449263 0)
(-0.0212853 0.0043707 0)
(-0.0219857 0.00424134 0)
(-0.0226636 0.0041047 0)
(-0.0233178 0.00396086 0)
(-0.023947 0.00380987 0)
(-0.0245501 0.00365174 0)
(-0.0251259 0.00348646 0)
(-0.0256734 0.00331399 0)
(-0.0261913 0.00313432 0)
(-0.0266786 0.00294741 0)
(-0.027134 0.00275322 0)
(-0.0275565 0.00255177 0)
(-0.0279449 0.00234304 0)
(-0.0282982 0.00212707 0)
(-0.0286151 0.00190391 0)
(-0.0288947 0.00167366 0)
(-0.0291358 0.00143643 0)
(-0.0293375 0.00119238 0)
(-0.0294987 0.000941708 0)
(-0.0296184 0.000684667 0)
(-0.0296957 0.000421547 0)
(-0.0297297 0.000152692 0)
(-0.0297197 -0.0001215 0)
(-0.0296649 -0.000400576 0)
(-0.0295646 -0.000684021 0)
(-0.0294182 -0.000971261 0)
(-0.0292253 -0.00126166 0)
(-0.0289855 -0.0015545 0)
(-0.0286985 -0.00184902 0)
(-0.0283642 -0.00214438 0)
(-0.0279826 -0.00243964 0)
(-0.0275539 -0.00273383 0)
(-0.0270784 -0.00302588 0)