/*--------------------------------*- C++ -*----------------------------------*\
  =========                 |
  \\      /  F ield         | OpenFOAM: The Open Source CFD Toolbox
   \\    /   O peration     | Website:  https://openfoam.org
    \\  /    A nd           | Version:  7
     \\/     M anipulation  |
\*---------------------------------------------------------------------------*/
FoamFile
{
    version     2.0;
    format      ascii;
    class       volVectorField;
    location    "0.5";
    object      U;
}
// * * * * * * * * * * * * * * * * * * * * * * * * * * * * * * * * * * * * * //

dimensions      [0 1 -1 0 0 0 0];

internalField   nonuniform List<vector> 
2413
(
(1.4 -1.89573e-15 0)
(1.4 -2.05541e-15 0)
(1.4 -2.21218e-15 0)
(1.4 -2.28827e-15 0)
(1.4 -2.49613e-15 0)
(1.4 -2.64301e-15 0)
(1.4 -2.85208e-15 0)
(1.4 -3.00554e-15 0)
(1.4 -3.25184e-15 0)
(1.4 -3.34546e-15 0)
(1.4 -3.23559e-15 0)
(1.4 -3.02647e-15 0)
(1.4 -2.82088e-15 0)
(1.4 -2.56301e-15 0)
(1.4 -2.3396e-15 0)
(1.4 -2.12092e-15 0)
(1.4 -2.0038e-15 0)
(1.4 -1.88295e-15 0)
(1.4 -1.7951e-15 0)
(1.4 -1.79437e-15 0)
(1.4 -1.70493e-15 0)
(1.4 -1.71052e-15 0)
(1.4 -1.52587e-15 0)
(1.4 -1.37585e-15 0)
(1.4 -1.2571e-15 0)
(1.4 -9.57081e-16 0)
(1.4 -5.9604e-16 0)
(1.4 -3.03516e-16 0)
(1.4 -1.7444e-16 0)
(1.4 -8.83713e-17 0)
(1.4 -6.35181e-17 0)
(1.4 -7.39638e-17 0)
(1.4 -2.69127e-16 0)
(1.4 -2.86506e-16 0)
(1.4 5.57328e-16 0)
(1.4 6.56247e-16 0)
(1.4 4.59505e-16 0)
(1.4 9.08535e-17 0)
(1.4 1.44148e-17 0)
(1.4 -1.35119e-17 0)
(1.4 -1.16884e-16 0)
(1.4 -6.54627e-17 0)
(1.4 -6.1932e-19 0)
(1.4 1.0149e-16 0)
(1.4 8.83418e-17 0)
(1.4 6.00671e-17 0)
(1.4 6.156e-17 0)
(1.4 -5.28228e-18 0)
(1.4 -1.44717e-16 0)
(1.4 -1.45649e-16 0)
(1.4 -2.15427e-16 0)
(1.4 -2.92767e-16 0)
(1.4 -1.70869e-16 0)
(1.4 1.8327e-16 0)
(1.4 3.58636e-16 0)
(1.4 7.95426e-16 0)
(1.4 9.97242e-16 0)
(1.4 8.86233e-16 0)
(1.4 6.43992e-16 0)
(1.4 4.98213e-16 0)
(1.4 1.71076e-16 0)
(1.4 -2.45561e-17 0)
(1.4 -2.47806e-16 0)
(1.4 -5.15346e-16 0)
(1.4 -7.97812e-16 0)
(1.4 -8.45101e-16 0)
(1.4 -8.45858e-16 0)
(1.4 -8.62344e-16 0)
(1.4 -6.74569e-16 0)
(1.4 -7.61524e-16 0)
(1.4 -7.62416e-16 0)
(1.4 -6.74571e-16 0)
(1.4 -4.86201e-16 0)
(1.4 -1.88504e-16 0)
(1.4 -1.37592e-16 0)
(1.4 2.08246e-17 0)
(1.4 1.69673e-16 0)
(1.4 3.19429e-16 0)
(1.4 4.37332e-16 0)
(1.4 5.93449e-16 0)
(1.4 1.07953e-15 0)
(1.4 1.61051e-15 0)
(1.4 2.18397e-15 0)
(1.4 2.87456e-15 0)
(1.4 2.94813e-15 0)
(1.4 3.41576e-15 0)
(1.4 3.65712e-15 0)
(1.4 3.48302e-15 0)
(1.4 3.38259e-15 0)
(1.4 2.98202e-15 0)
(1.4 2.39525e-15 0)
(1.4 1.78257e-15 0)
(1.4 1.46798e-15 0)
(1.4 1.31876e-15 0)
(1.4 1.19966e-15 0)
(1.4 1.19136e-15 0)
(1.4 1.29075e-15 0)
(1.4 1.55173e-15 0)
(1.4 1.6767e-15 0)
(1.4 1.79048e-15 0)
(1.4 1.75302e-15 0)
(1.4 1.68324e-15 0)
(1.4 1.68383e-15 0)
(1.4 1.7488e-15 0)
(1.4 1.80317e-15 0)
(1.4 1.79523e-15 0)
(1.4 1.82017e-15 0)
(1.4 1.82497e-15 0)
(1.4 1.68162e-15 0)
(1.4 1.24247e-15 0)
(1.4 1.91676e-16 0)
(1.4 -8.29897e-16 0)
(1.4 -1.69471e-15 0)
(1.4 -2.36822e-15 0)
(1.4 -2.80734e-15 0)
(1.4 -2.92239e-15 0)
(1.4 -2.98647e-15 0)
(1.4 -3.01503e-15 0)
(1.4 -2.82431e-15 0)
(1.4 -2.44054e-15 0)
(1.4 -2.31452e-15 0)
(1.4 -2.26973e-15 0)
(1.4 -2.2339e-15 0)
(1.4 -2.30312e-15 0)
(1.4 -3.2217e-15 0)
(1.4 -3.67477e-15 0)
(1.4 -3.81769e-15 0)
(1.4 -3.91311e-15 0)
(1.4 -3.98847e-15 0)
(1.4 -3.89136e-15 0)
(1.4 -3.98678e-15 0)
(1.4 -3.89103e-15 0)
(1.4 -3.78567e-15 0)
(1.4 -3.65815e-15 0)
(1.4 -3.34734e-15 0)
(1.4 -3.276e-15 0)
(1.4 -2.80278e-15 0)
(1.4 -2.58792e-15 0)
(1.4 -1.92248e-15 0)
(1.4 -1.4517e-15 0)
(1.4 -1.13785e-15 0)
(1.4 -8.67799e-16 0)
(1.4 -4.0605e-16 0)
(1.4 -2.49787e-16 0)
(1.4 -1.8151e-16 0)
(1.4 1.4899e-16 0)
(1.4 2.49261e-16 0)
(1.4 2.5833e-17 0)
(1.4 -9.68318e-17 0)
(1.4 -6.32567e-17 0)
(1.4 -8.81341e-17 0)
(1.4 -1.72214e-16 0)
(1.4 -2.67499e-16 0)
(1.4 -2.09989e-16 0)
(1.4 4.38528e-16 0)
(1.4 8.37831e-16 0)
(1.4 1.0235e-15 0)
(1.4 1.11588e-15 0)
(1.4 1.1326e-15 0)
(1.4 1.19409e-15 0)
(1.4 1.07525e-15 0)
(1.4 9.11068e-16 0)
(1.4 8.48308e-16 0)
(1.4 8.11835e-16 0)
(1.4 8.15406e-16 0)
(1.4 8.88502e-16 0)
(1.4 8.37936e-16 0)
(1.4 8.52981e-16 0)
(1.4 8.63429e-16 0)
(1.4 7.22416e-16 0)
(1.4 5.08026e-16 0)
(1.4 2.65875e-16 0)
(1.4 2.39017e-16 0)
(1.4 3.49442e-16 0)
(1.4 4.78302e-16 0)
(1.4 5.94607e-16 0)
(1.4 4.62054e-16 0)
(1.4 4.09878e-16 0)
(1.4 1.4509e-16 0)
(1.4 -2.33804e-16 0)
(1.4 -5.06721e-16 0)
(1.4 -8.28685e-16 0)
(1.4 -7.78369e-16 0)
(1.4 -6.7809e-16 0)
(1.4 -8.95448e-16 0)
(1.4 -1.33926e-15 0)
(1.4 -1.41603e-15 0)
(1.4 -1.32976e-15 0)
(1.4 -1.40216e-15 0)
(1.4 -1.33731e-15 0)
(1.4 -1.34764e-15 0)
(1.4 -1.54353e-15 0)
(1.4 -1.56741e-15 0)
(1.4 -1.40461e-15 0)
(1.4 -1.07333e-15 0)
(1.4 -6.72019e-16 0)
(1.4 -3.01367e-16 0)
(1.4 1.4918e-16 0)
(1.4 5.66699e-16 0)
(1.4 8.7003e-16 0)
(1.4 9.06818e-16 0)
(1.4 1.28726e-15 0)
(1.4 1.38109e-15 0)
(1.4 1.66557e-15 0)
(1.4 2.7157e-15 0)
(1.4 3.14782e-15 0)
(1.4 3.22342e-15 0)
(1.4 3.12105e-15 0)
(1.4 2.93164e-15 0)
(1.4 2.54997e-15 0)
(1.4 2.39524e-15 0)
(1.4 2.25355e-15 0)
(1.4 2.05044e-15 0)
(1.4 1.90481e-15 0)
(1.4 1.77453e-15 0)
(1.4 1.71215e-15 0)
(1.4 1.7766e-15 0)
(1.4 1.61861e-15 0)
(1.4 1.35174e-15 0)
(1.4 1.07915e-15 0)
(1.4 9.41866e-16 0)
(1.4 5.53816e-16 0)
(1.4 2.90263e-16 0)
(1.4 -9.31163e-17 0)
(1.4 -1.57579e-16 0)
(1.4 -1.15762e-16 0)
(1.4 -7.06549e-17 0)
(1.4 -3.74842e-16 0)
(1.4 -7.8648e-16 0)
(1.4 -1.21423e-15 0)
(1.4 -1.83262e-15 0)
(1.4 -2.61914e-15 0)
(1.4 -2.89982e-15 0)
(1.4 -3.50197e-15 0)
(1.4 -3.65278e-15 0)
(1.4 -3.68148e-15 0)
(1.4 -3.58334e-15 0)
(1.4 -3.58445e-15 0)
(1.4 -3.75377e-15 0)
(1.4 -3.72267e-15 0)
(1.4 -3.79614e-15 0)
(1.4 -3.7112e-15 0)
(1.4 -3.09351e-15 0)
(1.4 -2.91381e-15 0)
(1.4 -2.57991e-15 0)
(1.4 -2.7008e-15 0)
(1.4 -2.88878e-15 0)
(1.4 -3.14185e-15 0)
(1.4 -3.21693e-15 0)
(1.4 -3.14832e-15 0)
(1.4 -3.18624e-15 0)
(1.4 -2.90294e-15 0)
(1.4 -2.97217e-15 0)
(1.4 -3.08838e-15 0)
(1.4 -3.077e-15 0)
(1.4 -3.05102e-15 0)
(1.4 -2.95888e-15 0)
(1.4 -2.54061e-15 0)
(1.4 -2.01711e-15 0)
(1.4 -1.75723e-15 0)
(1.4 -1.08856e-15 0)
(1.4 -5.71516e-16 0)
(1.4 -3.15188e-16 0)
(1.4 -1.09296e-16 0)
(1.4 1.59812e-16 0)
(1.4 4.71998e-16 0)
(1.4 3.47978e-16 0)
(1.4 3.10932e-16 0)
(1.4 4.49065e-16 0)
(1.4 1.39909e-16 0)
(1.4 -3.17404e-17 0)
(1.4 -7.5702e-17 0)
(1.4 -9.1775e-17 0)
(1.4 -8.13584e-17 0)
(1.4 -3.02576e-16 0)
(1.4 4.31302e-16 0)
(1.4 8.2602e-16 0)
(1.4 1.46541e-15 0)
(1.4 1.73777e-15 0)
(1.4 1.86645e-15 0)
(1.4 1.81038e-15 0)
(1.4 1.59224e-15 0)
(1.4 1.39923e-15 0)
(1.4 1.27277e-15 0)
(1.4 1.39365e-15 0)
(1.4 1.50789e-15 0)
(1.4 1.72675e-15 0)
(1.4 1.90174e-15 0)
(1.4 1.94052e-15 0)
(1.4 1.916e-15 0)
(1.4 1.9299e-15 0)
(1.4 1.51631e-15 0)
(1.4 1.32686e-15 0)
(1.4 1.18881e-15 0)
(1.4 9.49882e-16 0)
(1.4 6.83219e-16 0)
(1.4 2.47172e-17 0)
(1.4 -2.47544e-16 0)
(1.4 -4.28598e-16 0)
(1.4 -6.45142e-16 0)
(1.4 -7.2981e-16 0)
(1.4 -7.78921e-16 0)
(1.4 -7.41798e-16 0)
(1.4 -7.9359e-16 0)
(1.4 -9.5997e-16 0)
(1.4 -1.08617e-15 0)
(1.4 -1.06209e-15 0)
(1.4 -9.4875e-16 0)
(1.4 -1.00293e-15 0)
(1.4 -1.00212e-15 0)
(1.4 -1.00246e-15 0)
(1.4 -8.82011e-16 0)
(1.4 -6.10036e-16 0)
(1.4 -5.47114e-16 0)
(1.4 -4.85586e-16 0)
(1.4 -3.96022e-16 0)
(1.4 -1.80577e-16 0)
(1.4 -1.9882e-16 0)
(1.4 2.11415e-17 0)
(1.4 -2.19214e-16 0)
(1.4 -3.28723e-16 0)
(1.4 -3.51001e-16 0)
(1.4 -3.83009e-16 0)
(1.4 -4.59949e-16 0)
(1.4 -2.32066e-16 0)
(1.4 8.75423e-17 0)
(1.4 5.89729e-16 0)
(1.4 7.72615e-16 0)
(1.4 7.63638e-16 0)
(1.4 7.61359e-16 0)
(1.4 9.24267e-16 0)
(1.4 1.07025e-15 0)
(1.4 1.1355e-15 0)
(1.4 1.14466e-15 0)
(1.4 1.35483e-15 0)
(1.4 1.3062e-15 0)
(1.4 1.10303e-15 0)
(1.4 8.0091e-16 0)
(1.4 5.74092e-16 0)
(1.4 5.33027e-16 0)
(1.4 5.37811e-16 0)
(1.4 5.00018e-16 0)
(1.4 2.42078e-16 0)
(1.4 7.24604e-17 0)
(1.4 -4.28834e-16 0)
(1.4 -8.77361e-16 0)
(1.4 -1.72887e-15 0)
(1.4 -2.30261e-15 0)
(1.4 -2.72542e-15 0)
(1.4 -3.1027e-15 0)
(1.4 -4.04469e-15 0)
(1.4 -4.35269e-15 0)
(1.4 -4.34643e-15 0)
(1.4 -4.29999e-15 0)
(1.4 -4.2434e-15 0)
(1.4 -4.27964e-15 0)
(1.4 -4.36232e-15 0)
(1.4 -4.24774e-15 0)
(1.4 -4.08073e-15 0)
(1.4 -3.78768e-15 0)
(1.4 -3.44422e-15 0)
(1.4 -3.27582e-15 0)
(1.4 -2.96953e-15 0)
(1.4 -2.51875e-15 0)
(1.4 -2.11136e-15 0)
(1.4 -2.02504e-15 0)
(1.4 -1.89883e-15 0)
(1.4 -2.02946e-15 0)
(1.4 -2.15519e-15 0)
(1.4 -2.43344e-15 0)
(1.4 -2.43886e-15 0)
(1.4 -2.22873e-15 0)
(1.4 -2.15272e-15 0)
(1.4 -2.06486e-15 0)
(1.4 -1.855e-15 0)
(1.4 -1.72846e-15 0)
(1.4 -1.58102e-15 0)
(1.4 -1.15959e-15 0)
(1.4 -8.64615e-16 0)
(1.4 -7.98241e-16 0)
(1.4 -8.19764e-16 0)
(1.4 -8.49775e-16 0)
(1.4 -1.28853e-15 0)
(1.4 -1.00863e-15 0)
(1.4 -7.05152e-16 0)
(1.4 -2.79108e-16 0)
(1.4 -7.96441e-17 0)
(1.4 2.36929e-16 0)
(1.4 2.72709e-16 0)
(1.4 1.13457e-16 0)
(1.4 -1.11594e-16 0)
(1.4 -2.32713e-16 0)
(1.4 -3.02514e-16 0)
(1.4 -3.78121e-16 0)
(1.4 -6.98237e-16 0)
(1.4 -1.31562e-16 0)
(1.4 6.02999e-16 0)
(1.4 9.88049e-16 0)
(1.4 1.18399e-15 0)
(1.4 1.31907e-15 0)
(1.4 1.36494e-15 0)
(1.4 1.54228e-15 0)
(1.4 1.64215e-15 0)
(1.4 1.66912e-15 0)
(1.4 1.55511e-15 0)
(1.4 1.61733e-15 0)
(1.4 1.6702e-15 0)
(1.4 1.55073e-15 0)
(1.4 1.30269e-15 0)
(1.4 1.12947e-15 0)
(1.4 9.27783e-16 0)
(1.4 1.02612e-15 0)
(1.4 1.01258e-15 0)
(1.4 6.64805e-16 0)
(1.4 2.75554e-16 0)
(1.4 -1.1437e-16 0)
(1.4 -5.88033e-16 0)
(1.4 -1.11605e-15 0)
(1.4 -1.69151e-15 0)
(1.4 -2.0091e-15 0)
(1.4 -1.93451e-15 0)
(1.4 -1.87168e-15 0)
(1.4 -1.72671e-15 0)
(1.4 -1.78417e-15 0)
(1.4 -1.49232e-15 0)
(1.4 -1.19074e-15 0)
(1.4 -8.25986e-16 0)
(1.4 -3.88827e-16 0)
(1.4 7.00513e-17 0)
(1.4 5.94043e-17 0)
(1.4 8.37223e-17 0)
(1.4 3.25623e-17 0)
(1.4 5.06287e-17 0)
(1.4 -5.62356e-18 0)
(1.4 -3.70438e-16 0)
(1.4 -5.87059e-16 0)
(1.4 -8.6082e-16 0)
(1.4 -9.7689e-16 0)
(1.4 -1.16629e-15 0)
(1.4 -1.17238e-15 0)
(1.4 -1.43092e-15 0)
(1.4 -1.76497e-15 0)
(1.4 -2.23038e-15 0)
(1.4 -2.31671e-15 0)
(1.4 -2.38676e-15 0)
(1.4 -2.47732e-15 0)
(1.4 -2.11427e-15 0)
(1.4 -1.67992e-15 0)
(1.4 -1.57502e-15 0)
(1.4 -9.59909e-16 0)
(1.4 -6.27573e-16 0)
(1.4 -3.34926e-16 0)
(1.4 2.90544e-17 0)
(1.4 1.78698e-16 0)
(1.4 3.46319e-16 0)
(1.4 2.71892e-16 0)
(1.4 -1.40211e-17 0)
(1.4 -2.46181e-16 0)
(1.4 -5.00554e-16 0)
(1.4 -5.99085e-16 0)
(1.4 -1.11988e-15 0)
(1.4 -1.40815e-15 0)
(1.4 -1.85971e-15 0)
(1.4 -2.17018e-15 0)
(1.4 -2.69985e-15 0)
(1.4 -3.15844e-15 0)
(1.4 -3.46804e-15 0)
(1.4 -3.72172e-15 0)
(1.4 -3.97667e-15 0)
(1.4 -3.99845e-15 0)
(1.4 -4.06774e-15 0)
(1.4 -4.09391e-15 0)
(1.4 -4.07316e-15 0)
(1.4 -3.90037e-15 0)
(1.4 -3.85896e-15 0)
(1.4 -3.36207e-15 0)
(1.4 -3.25591e-15 0)
(1.4 -2.92677e-15 0)
(1.4 -2.25602e-15 0)
(1.4 -1.79587e-15 0)
(1.4 -1.39992e-15 0)
(1.4 -1.27054e-15 0)
(1.4 -1.07423e-15 0)
(1.4 -9.20899e-16 0)
(1.4 -8.23535e-16 0)
(1.4 -6.55164e-16 0)
(1.4 -5.62981e-16 0)
(1.4 -5.52886e-16 0)
(1.4 -1.75324e-16 0)
(1.4 -5.32282e-16 0)
(1.4 -3.70345e-16 0)
(1.4 -8.30302e-16 0)
(1.4 -1.05878e-15 0)
(1.4 -6.82864e-16 0)
(1.4 -4.24853e-16 0)
(1.4 -3.87166e-16 0)
(1.4 -4.47457e-16 0)
(1.4 -5.90801e-16 0)
(1.4 -6.03521e-16 0)
(1.4 -6.98398e-16 0)
(1.4 -5.64174e-16 0)
(1.4 -3.57852e-16 0)
(1.4 -2.87824e-16 0)
(1.4 -1.73424e-16 0)
(1.4 -2.51691e-16 0)
(1.4 -2.97234e-16 0)
(1.4 -1.15604e-16 0)
(1.4 -3.36062e-17 0)
(1.4 -2.33726e-16 0)
(1.4 -2.18772e-16 0)
(1.4 -3.04949e-16 0)
(1.4 -4.89513e-16 0)
(1.4 -5.99832e-16 0)
(1.4 -8.11439e-16 0)
(1.4 1.64038e-16 0)
(1.4 2.44153e-16 0)
(1.4 2.61457e-16 0)
(1.4 5.09437e-16 0)
(1.4 7.03263e-16 0)
(1.4 8.73395e-16 0)
(1.4 1.12502e-15 0)
(1.4 1.30085e-15 0)
(1.4 1.74861e-15 0)
(1.4 2.06613e-15 0)
(1.4 2.32405e-15 0)
(1.4 2.37111e-15 0)
(1.4 2.2601e-15 0)
(1.4 2.06923e-15 0)
(1.4 1.87454e-15 0)
(1.4 1.58025e-15 0)
(1.4 1.52694e-15 0)
(1.4 1.53318e-15 0)
(1.4 1.29154e-15 0)
(1.4 1.2261e-15 0)
(1.4 1.01087e-15 0)
(1.4 7.22613e-16 0)
(1.4 2.54843e-16 0)
(1.4 -1.75096e-16 0)
(1.4 -5.89218e-16 0)
(1.4 -8.83983e-16 0)
(1.4 -1.02236e-15 0)
(1.4 -1.14427e-15 0)
(1.4 -1.36147e-15 0)
(1.4 -1.47192e-15 0)
(1.4 -1.38155e-15 0)
(1.4 -5.94688e-16 0)
(1.4 -2.05158e-16 0)
(1.4 -3.07631e-18 0)
(1.4 2.27314e-16 0)
(1.4 4.92437e-16 0)
(1.4 7.08888e-16 0)
(1.4 7.31492e-16 0)
(1.4 5.61781e-16 0)
(1.4 4.84801e-16 0)
(1.4 3.27056e-16 0)
(1.4 9.00139e-17 0)
(1.4 -1.6173e-16 0)
(1.4 -6.90294e-16 0)
(1.4 -1.43549e-15 0)
(1.4 -1.70182e-15 0)
(1.4 -1.84125e-15 0)
(1.4 -1.91249e-15 0)
(1.4 -1.97435e-15 0)
(1.4 -2.02136e-15 0)
(1.4 -2.05559e-15 0)
(1.4 -2.1297e-15 0)
(1.4 -2.13268e-15 0)
(1.4 -2.22306e-15 0)
(1.4 -1.65566e-15 0)
(1.4 -1.38277e-15 0)
(1.4 -9.49875e-16 0)
(1.4 -7.04934e-16 0)
(1.4 -2.66218e-16 0)
(1.4 -2.00957e-16 0)
(1.4 -4.93057e-16 0)
(1.4 -9.35411e-16 0)
(1.4 -1.10634e-15 0)
(1.4 -1.52166e-15 0)
(1.4 -1.88762e-15 0)
(1.4 -2.60688e-15 0)
(1.4 -2.9262e-15 0)
(1.4 -3.22188e-15 0)
(1.4 -3.2158e-15 0)
(1.4 -3.20942e-15 0)
(1.4 -3.17809e-15 0)
(1.4 -3.15823e-15 0)
(1.4 -2.92574e-15 0)
(1.4 -2.81248e-15 0)
(1.4 -2.6432e-15 0)
(1.4 -2.4316e-15 0)
(1.4 -2.26427e-15 0)
(1.4 -2.09604e-15 0)
(1.4 -2.07203e-15 0)
(1.4 -2.20169e-15 0)
(1.4 -2.15752e-15 0)
(1.4 -1.58168e-15 0)
(1.4 -1.11312e-15 0)
(1.4 -5.83886e-16 0)
(1.4 -6.63534e-17 0)
(1.4 3.79469e-16 0)
(1.4 8.12198e-16 0)
(1.4 1.07338e-15 0)
(1.4 1.12932e-15 0)
(1.4 1.26638e-15 0)
(1.4 1.30691e-15 0)
(1.4 1.5648e-15 0)
(1.4 1.70426e-15 0)
(1.4 1.91535e-15 0)
(1.4 2.23896e-15 0)
(1.4 2.44386e-15 0)
(1.4 2.65581e-15 0)
(1.4 2.28814e-15 0)
(1.4 2.20108e-15 0)
(1.4 2.10949e-15 0)
(1.4 2.07641e-15 0)
(1.4 1.70863e-15 0)
(1.4 1.26265e-15 0)
(1.4 8.22573e-16 0)
(1.4 5.8976e-16 0)
(1.4 5.49021e-16 0)
(1.4 5.73892e-16 0)
(1.4 5.49303e-16 0)
(1.4 8.90965e-16 0)
(1.4 9.58082e-16 0)
(1.4 8.72424e-16 0)
(1.4 4.93001e-16 0)
(1.4 4.73218e-16 0)
(1.4 3.97129e-16 0)
(1.4 4.75424e-16 0)
(1.4 6.00187e-16 0)
(1.4 6.67071e-16 0)
(1.4 5.52761e-16 0)
(1.4 3.66051e-16 0)
(1.4 -1.70234e-16 0)
(1.4 1.90133e-15 0)
(1.4 1.19065e-15 0)
(1.4 9.86887e-16 0)
(1.4 3.5821e-16 0)
(1.4 -1.76372e-16 0)
(1.4 -2.53952e-16 0)
(1.4 -2.69988e-17 0)
(1.4 1.11863e-16 0)
(1.4 1.39061e-16 0)
(1.4 3.42851e-16 0)
(1.4 5.48604e-16 0)
(1.4 5.11192e-16 0)
(1.4 4.0478e-16 0)
(1.4 3.39312e-16 0)
(1.4 2.9075e-16 0)
(1.4 2.55973e-16 0)
(1.4 1.78564e-16 0)
(1.4 1.59735e-16 0)
(1.4 2.23102e-16 0)
(1.4 -3.47523e-17 0)
(1.4 -2.56449e-16 0)
(1.4 -4.62906e-16 0)
(1.4 -4.60121e-16 0)
(1.4 -2.67468e-16 0)
(1.4 -1.61766e-16 0)
(1.4 -5.00459e-17 0)
(1.4 2.17608e-17 0)
(1.4 9.63943e-17 0)
(1.4 1.5879e-16 0)
(1.4 1.90372e-16 0)
(1.4 2.66073e-16 0)
(1.4 4.79823e-16 0)
(1.4 3.40757e-16 0)
(1.4 4.35386e-16 0)
(1.4 4.58395e-16 0)
(1.4 9.08464e-16 0)
(1.4 1.04983e-15 0)
(1.4 1.11819e-15 0)
(1.4 8.67344e-16 0)
(1.4 5.14971e-16 0)
(1.4 9.51549e-17 0)
(1.4 -2.30991e-16 0)
(1.4 -8.50671e-16 0)
(1.4 -1.53223e-15 0)
(1.4 -1.81876e-15 0)
(1.4 -2.20237e-15 0)
(1.4 -2.2534e-15 0)
(1.4 -2.18196e-15 0)
(1.4 -2.1804e-15 0)
(1.4 -2.30887e-15 0)
(1.4 -2.44035e-15 0)
(1.4 -2.43951e-15 0)
(1.4 -2.38927e-15 0)
(1.4 -2.28495e-15 0)
(1.4 -2.28464e-15 0)
(1.4 -2.24882e-15 0)
(1.4 -2.23509e-15 0)
(1.4 -2.1069e-15 0)
(1.4 -2.17856e-15 0)
(1.4 -2.41744e-15 0)
(1.4 -2.508e-15 0)
(1.4 -2.30309e-15 0)
(1.4 -2.22374e-15 0)
(1.4 -2.12959e-15 0)
(1.4 -2.05051e-15 0)
(1.4 -2.09786e-15 0)
(1.4 -2.22155e-15 0)
(1.4 -2.06884e-15 0)
(1.4 -1.99424e-15 0)
(1.4 -1.95198e-15 0)
(1.4 -1.79302e-15 0)
(1.4 -1.6376e-15 0)
(1.4 -1.46373e-15 0)
(1.4 -1.38754e-15 0)
(1.4 -1.21347e-15 0)
(1.4 -9.79973e-16 0)
(1.4 -8.07718e-16 0)
(1.4 -5.33062e-16 0)
(1.4 -4.87753e-16 0)
(1.4 -3.24236e-16 0)
(1.4 -2.31435e-16 0)
(1.4 -3.49943e-16 0)
(1.4 -5.74187e-17 0)
(1.4 8.06217e-17 0)
(1.4 4.04341e-16 0)
(1.4 8.27887e-16 0)
(1.4 1.29427e-15 0)
(1.4 1.72301e-15 0)
(1.4 2.01135e-15 0)
(1.4 2.36072e-15 0)
(1.4 2.45469e-15 0)
(1.4 3.02181e-15 0)
(1.4 3.27803e-15 0)
(1.4 3.61929e-15 0)
(1.4 4.18272e-15 0)
(1.4 4.35214e-15 0)
(1.4 4.37201e-15 0)
(1.4 4.20278e-15 0)
(1.4 3.92547e-15 0)
(1.4 3.39834e-15 0)
(1.4 3.0501e-15 0)
(1.4 2.95184e-15 0)
(1.4 3.0263e-15 0)
(1.4 3.03785e-15 0)
(1.4 2.31648e-15 0)
(1.4 1.88278e-15 0)
(1.4 1.69087e-15 0)
(1.4 1.49186e-15 0)
(1.4 1.76042e-15 0)
(1.4 1.7659e-15 0)
(1.4 1.97211e-15 0)
(1.4 2.02003e-15 0)
(1.4 1.80584e-15 0)
(1.4 1.5542e-15 0)
(1.4 1.32368e-15 0)
(1.4 1.17356e-15 0)
(1.4 1.04223e-15 0)
(1.4 8.2759e-16 0)
(1.4 6.09783e-16 0)
(1.4 3.38953e-16 0)
(1.4 3.9789e-16 0)
(1.4 1.78317e-16 0)
(1.4 -1.80888e-16 0)
(1.4 -4.47942e-16 0)
(1.4 -3.71616e-16 0)
(1.4 -2.87576e-16 0)
(1.4 -3.14474e-16 0)
(1.4 -4.05917e-16 0)
(1.4 -5.8568e-16 0)
(1.4 -8.98797e-16 0)
(1.4 -1.10998e-15 0)
(1.4 -1.14698e-15 0)
(1.4 -1.10092e-15 0)
(1.4 -1.05823e-15 0)
(1.4 -1.05383e-15 0)
(1.4 -9.32241e-16 0)
(1.4 -9.41766e-16 0)
(1.4 -8.70888e-16 0)
(1.4 -8.78698e-16 0)
(1.4 -7.78224e-16 0)
(1.4 -7.76644e-16 0)
(1.4 -6.06437e-16 0)
(1.4 -1.10785e-16 0)
(1.4 -4.0638e-17 0)
(1.4 -9.13808e-17 0)
(1.4 -1.53465e-16 0)
(1.4 -1.20409e-16 0)
(1.4 7.97438e-17 0)
(1.4 5.40356e-16 0)
(1.4 1.10753e-15 0)
(1.4 1.18977e-15 0)
(1.4 1.13711e-15 0)
(1.4 1.11089e-15 0)
(1.4 1.29262e-15 0)
(1.4 1.51014e-15 0)
(1.4 1.43918e-15 0)
(1.4 1.22748e-15 0)
(1.4 5.91386e-16 0)
(1.4 2.77792e-16 0)
(1.4 6.20258e-17 0)
(1.4 -5.17515e-16 0)
(1.4 -7.03575e-16 0)
(1.4 -1.11288e-15 0)
(1.4 -1.60177e-15 0)
(1.4 -2.07707e-15 0)
(1.4 -2.48384e-15 0)
(1.4 -2.72312e-15 0)
(1.4 -2.89748e-15 0)
(1.4 -2.89772e-15 0)
(1.4 -2.87136e-15 0)
(1.4 -3.12254e-15 0)
(1.4 -3.12559e-15 0)
(1.4 -3.16243e-15 0)
(1.4 -3.33497e-15 0)
(1.4 -3.62217e-15 0)
(1.4 -3.17292e-15 0)
(1.4 -3.02465e-15 0)
(1.4 -3.22763e-15 0)
(1.4 -3.44858e-15 0)
(1.4 -3.30965e-15 0)
(1.4 -3.14275e-15 0)
(1.4 -2.97251e-15 0)
(1.4 -2.99253e-15 0)
(1.4 -2.5296e-15 0)
(1.4 -2.24531e-15 0)
(1.4 -1.43998e-15 0)
(1.4 -1.0717e-15 0)
(1.4 -9.23078e-16 0)
(1.4 -7.82878e-16 0)
(1.4 -7.09311e-16 0)
(1.4 -6.07394e-16 0)
(1.4 -6.27388e-16 0)
(1.4 -7.01622e-16 0)
(1.4 -1.21433e-15 0)
(1.4 -1.16916e-15 0)
(1.4 -1.19042e-15 0)
(1.4 -1.1629e-15 0)
(1.4 -1.05085e-15 0)
(1.4 -8.06074e-16 0)
(1.4 -3.80682e-16 0)
(1.4 -3.88437e-16 0)
(1.4 -3.55997e-16 0)
(1.4 1.00069e-16 0)
(1.4 3.7236e-16 0)
(1.4 5.33641e-16 0)
(1.4 8.58924e-16 0)
(1.4 1.0567e-15 0)
(1.4 1.16643e-15 0)
(1.4 1.54415e-15 0)
(1.4 1.77446e-15 0)
(1.4 1.92252e-15 0)
(1.4 2.08895e-15 0)
(1.4 2.42461e-15 0)
(1.4 2.57711e-15 0)
(1.4 2.75233e-15 0)
(1.4 2.84264e-15 0)
(1.4 2.91862e-15 0)
(1.4 3.17817e-15 0)
(1.4 3.23051e-15 0)
(1.4 3.34677e-15 0)
(1.4 3.00817e-15 0)
(1.4 2.75613e-15 0)
(1.4 3.027e-15 0)
(1.4 3.15901e-15 0)
(1.4 3.12949e-15 0)
(1.4 3.05708e-15 0)
(1.4 2.67321e-15 0)
(1.4 2.3982e-15 0)
(1.4 1.9395e-15 0)
(1.4 1.89947e-15 0)
(1.4 1.8755e-15 0)
(1.4 1.84172e-15 0)
(1.4 1.63091e-15 0)
(1.4 1.29043e-15 0)
(1.4 7.13654e-16 0)
(1.4 5.36987e-16 0)
(1.4 1.75381e-16 0)
(1.4 3.1144e-17 0)
(1.4 -4.75104e-16 0)
(1.4 -6.71305e-16 0)
(1.4 -1.04431e-15 0)
(1.4 -1.00115e-15 0)
(1.4 -9.41213e-16 0)
(1.4 -7.70763e-16 0)
(1.4 -5.49156e-16 0)
(1.4 -4.95183e-16 0)
(1.4 -4.52106e-16 0)
(1.4 -4.86417e-16 0)
(1.4 -5.80589e-16 0)
(1.4 -7.04749e-16 0)
(1.4 -7.80347e-16 0)
(1.4 -7.52212e-16 0)
(1.4 -6.73176e-16 0)
(1.4 -5.90217e-16 0)
(1.4 -4.98669e-16 0)
(1.4 -4.79535e-16 0)
(1.4 -1.29938e-16 0)
(1.4 1.24848e-16 0)
(1.4 1.58524e-16 0)
(1.4 4.33548e-16 0)
(1.4 6.24502e-16 0)
(1.4 8.05056e-16 0)
(1.4 8.75303e-16 0)
(1.4 9.25573e-16 0)
(1.4 9.46362e-16 0)
(1.4 9.84688e-16 0)
(1.4 1.02917e-15 0)
(1.4 1.0301e-15 0)
(1.4 9.24859e-16 0)
(1.4 1.07006e-15 0)
(1.4 1.37454e-15 0)
(1.4 1.55349e-15 0)
(1.4 1.47776e-15 0)
(1.4 1.07193e-15 0)
(1.4 5.85647e-16 0)
(1.4 1.52364e-16 0)
(1.4 -2.64035e-17 0)
(1.4 -7.43995e-16 0)
(1.4 -9.68964e-16 0)
(1.4 -1.00244e-15 0)
(1.4 -1.04409e-15 0)
(1.4 -8.44144e-16 0)
(1.4 -1.07687e-15 0)
(1.4 -1.41945e-15 0)
(1.4 -1.66274e-15 0)
(1.4 -1.80322e-15 0)
(1.4 -1.84561e-15 0)
(1.4 -1.70794e-15 0)
(1.4 -1.54686e-15 0)
(1.4 -1.37363e-15 0)
(1.4 -1.16848e-15 0)
(1.4 -1.44031e-15 0)
(1.4 -1.66772e-15 0)
(1.4 -1.72199e-15 0)
(1.4 -1.44375e-15 0)
(1.4 -1.3326e-15 0)
(1.4 -1.39102e-15 0)
(1.4 -1.53594e-15 0)
(1.4 -1.72715e-15 0)
(1.4 -1.76296e-15 0)
(1.4 -2.08696e-15 0)
(1.4 -2.22344e-15 0)
(1.4 -2.3664e-15 0)
(1.4 -2.47714e-15 0)
(1.4 -2.49853e-15 0)
(1.4 -2.46216e-15 0)
(1.4 -2.1551e-15 0)
(1.4 -1.99169e-15 0)
(1.4 -1.78829e-15 0)
(1.4 -1.69188e-15 0)
(1.4 -1.64189e-15 0)
(1.4 -1.83357e-15 0)
(1.4 -1.91488e-15 0)
(1.4 -2.17333e-15 0)
(1.4 -2.4279e-15 0)
(1.4 -2.66737e-15 0)
(1.4 -2.66228e-15 0)
(1.4 -2.23118e-15 0)
(1.4 -2.08094e-15 0)
(1.4 -1.68841e-15 0)
(1.4 -1.50703e-15 0)
(1.4 -1.14726e-15 0)
(1.4 -4.47088e-16 0)
(1.4 -2.61929e-16 0)
(1.4 2.32257e-16 0)
(1.4 5.17838e-16 0)
(1.4 6.0165e-16 0)
(1.4 6.44836e-16 0)
(1.4 7.67385e-16 0)
(1.4 8.13004e-16 0)
(1.4 7.5034e-16 0)
(1.4 7.56588e-16 0)
(1.4 1.16587e-15 0)
(1.4 1.26614e-15 0)
(1.4 1.31762e-15 0)
(1.4 1.41027e-15 0)
(1.4 1.68713e-15 0)
(1.4 1.86495e-15 0)
(1.4 2.09418e-15 0)
(1.4 2.30059e-15 0)
(1.4 2.60557e-15 0)
(1.4 2.78023e-15 0)
(1.4 2.71405e-15 0)
(1.4 2.57769e-15 0)
(1.4 2.49709e-15 0)
(1.4 2.49684e-15 0)
(1.4 2.53767e-15 0)
(1.4 2.51741e-15 0)
(1.4 2.4639e-15 0)
(1.4 2.0711e-15 0)
(1.4 1.47295e-15 0)
(1.4 1.03239e-15 0)
(1.4 7.64124e-16 0)
(1.4 5.43602e-16 0)
(1.4 3.9981e-16 0)
(1.4 1.88566e-17 0)
(1.4 -6.39313e-16 0)
(1.4 -9.42579e-16 0)
(1.4 -1.41174e-15 0)
(1.4 -1.97933e-15 0)
(1.4 5.61926e-16 0)
(1.4 2.37279e-16 0)
(1.4 7.98998e-17 0)
(1.4 -2.61375e-16 0)
(1.4 -3.92687e-16 0)
(1.4 -4.73351e-16 0)
(1.4 -3.71104e-16 0)
(1.4 -3.234e-16 0)
(1.4 -1.72232e-16 0)
(1.4 -7.87015e-19 0)
(1.4 2.21739e-17 0)
(1.4 2.98293e-16 0)
(1.4 3.18977e-16 0)
(1.4 1.83977e-16 0)
(1.4 1.6023e-16 0)
(1.4 4.47855e-16 0)
(1.4 7.00152e-16 0)
(1.4 6.7355e-16 0)
(1.4 5.98137e-16 0)
(1.4 5.37107e-16 0)
(1.4 2.89978e-16 0)
(1.4 2.60603e-16 0)
(1.4 3.47089e-16 0)
(1.4 4.54864e-16 0)
(1.4 9.74042e-16 0)
(1.4 1.4819e-15 0)
(1.4 1.94441e-15 0)
(1.4 2.09106e-15 0)
(1.4 2.04336e-15 0)
(1.4 2.00138e-15 0)
(1.4 1.95018e-15 0)
(1.4 1.77502e-15 0)
(1.4 1.57445e-15 0)
(1.4 1.00201e-15 0)
(1.4 6.80585e-16 0)
(1.4 1.28704e-16 0)
(1.4 9.51666e-17 0)
(1.4 9.57817e-17 0)
(1.4 7.47118e-17 0)
(1.4 9.54424e-17 0)
(1.4 1.51407e-16 0)
(1.4 1.68243e-16 0)
(1.4 2.21893e-16 0)
(1.4 3.19277e-16 0)
(1.4 5.45736e-16 0)
(1.4 6.55539e-16 0)
(1.4 1.06822e-15 0)
(1.4 1.01412e-15 0)
(1.4 1.39012e-15 0)
(1.4 1.78825e-15 0)
(1.4 1.9797e-15 0)
(1.4 2.0801e-15 0)
(1.4 2.09605e-15 0)
(1.4 1.76774e-15 0)
(1.4 1.46128e-15 0)
(1.4 1.05835e-15 0)
(1.4 7.79489e-16 0)
(1.4 6.3739e-16 0)
(1.4 3.51444e-16 0)
(1.4 9.87962e-17 0)
(1.4 -8.45183e-17 0)
(1.4 -2.95815e-16 0)
(1.4 -4.03615e-16 0)
(1.4 -5.53719e-16 0)
(1.4 -1.00501e-15 0)
(1.4 -1.37639e-15 0)
(1.4 -1.87932e-15 0)
(1.4 -2.1599e-15 0)
(1.4 -2.38795e-15 0)
(1.4 -2.67835e-15 0)
(1.4 -3.01046e-15 0)
(1.4 -3.33363e-15 0)
(1.4 -3.52991e-15 0)
(1.4 -3.48997e-15 0)
(1.4 -3.64683e-15 0)
(1.4 -3.65657e-15 0)
(1.4 -3.53788e-15 0)
(1.4 -3.00684e-15 0)
(1.4 -2.58776e-15 0)
(1.4 -2.13676e-15 0)
(1.4 -1.58611e-15 0)
(1.4 -6.9503e-16 0)
(1.4 2.1622e-17 0)
(1.4 3.81104e-16 0)
(1.4 6.74835e-16 0)
(1.4 1.12053e-15 0)
(1.4 1.32277e-15 0)
(1.4 1.38807e-15 0)
(1.4 1.40752e-15 0)
(1.4 1.46102e-15 0)
(1.4 1.41789e-15 0)
(1.4 1.21984e-15 0)
(1.4 9.30332e-16 0)
(1.4 8.96728e-16 0)
(1.4 1.52694e-15 0)
(1.4 1.71122e-15 0)
(1.4 1.94252e-15 0)
(1.4 1.91068e-15 0)
(1.4 1.91018e-15 0)
(1.4 1.88779e-15 0)
(1.4 1.93907e-15 0)
(1.4 1.93447e-15 0)
(1.4 1.79885e-15 0)
(1.4 1.79246e-15 0)
(1.4 1.86275e-15 0)
(1.4 2.18176e-15 0)
(1.4 2.23423e-15 0)
(1.4 2.00421e-15 0)
(1.4 1.98911e-15 0)
(1.4 1.65691e-15 0)
(1.4 1.20865e-15 0)
(1.4 5.20904e-16 0)
(1.4 1.66351e-16 0)
(1.4 -6.74665e-17 0)
(1.4 -1.27893e-16 0)
(1.4 -2.85023e-16 0)
(1.4 -4.28598e-16 0)
(1.4 -8.54e-16 0)
(1.4 -7.08521e-16 0)
(1.4 -6.30947e-16 0)
(1.4 9.00958e-16 0)
(1.4 7.59395e-16 0)
(1.4 6.23964e-16 0)
(1.4 6.1435e-16 0)
(1.4 6.11572e-16 0)
(1.4 6.65051e-16 0)
(1.4 6.2522e-16 0)
(1.4 5.78777e-16 0)
(1.4 5.65878e-16 0)
(1.4 5.48196e-16 0)
(1.4 4.43602e-16 0)
(1.4 2.63643e-16 0)
(1.4 1.57435e-16 0)
(1.4 3.65743e-16 0)
(1.4 3.63304e-16 0)
(1.4 5.67395e-16 0)
(1.4 7.2411e-16 0)
(1.4 8.01703e-16 0)
(1.4 8.30921e-16 0)
(1.4 1.08753e-15 0)
(1.4 1.37342e-15 0)
(1.4 1.42496e-15 0)
(1.4 1.36722e-15 0)
(1.4 1.54926e-15 0)
(1.4 1.84926e-15 0)
(1.4 2.02318e-15 0)
(1.4 2.43661e-15 0)
(1.4 2.55971e-15 0)
(1.4 2.51161e-15 0)
(1.4 2.39054e-15 0)
(1.4 2.30975e-15 0)
(1.4 2.18033e-15 0)
(1.4 2.14806e-15 0)
(1.4 2.10856e-15 0)
(1.4 2.02003e-15 0)
(1.4 1.81783e-15 0)
(1.4 1.84544e-15 0)
(1.4 1.60854e-15 0)
(1.4 1.27968e-15 0)
(1.4 1.5503e-15 0)
(1.4 1.72255e-15 0)
(1.4 1.66546e-15 0)
(1.4 1.69649e-15 0)
(1.4 2.22636e-15 0)
(1.4 2.67068e-15 0)
(1.4 2.98295e-15 0)
(1.4 3.54833e-15 0)
(1.4 3.70291e-15 0)
(1.4 3.83254e-15 0)
(1.4 3.80353e-15 0)
(1.4 3.81009e-15 0)
(1.4 3.70423e-15 0)
(1.4 3.50609e-15 0)
(1.4 3.21132e-15 0)
(1.4 2.76899e-15 0)
(1.4 2.39578e-15 0)
(1.4 2.08088e-15 0)
(1.4 1.64538e-15 0)
(1.4 1.38276e-15 0)
(1.4 6.91799e-16 0)
(1.4 3.03488e-16 0)
(1.4 -1.87107e-17 0)
(1.4 -2.56586e-16 0)
(1.4 -3.05795e-16 0)
(1.4 -4.81544e-16 0)
(1.4 -7.53862e-16 0)
(1.4 -1.00141e-15 0)
(1.4 -1.32438e-15 0)
(1.4 -1.42206e-15 0)
(1.4 -1.44496e-15 0)
(1.4 -1.52992e-15 0)
(1.4 -1.72318e-15 0)
(1.4 -1.87866e-15 0)
(1.4 -1.84817e-15 0)
(1.4 -1.70481e-15 0)
(1.4 -1.58941e-15 0)
(1.4 -1.60912e-15 0)
(1.4 -1.78476e-15 0)
(1.4 -1.5642e-15 0)
(1.4 -7.54039e-16 0)
(1.4 3.32743e-16 0)
(1.4 9.50441e-16 0)
(1.4 1.45624e-15 0)
(1.4 1.90715e-15 0)
(1.4 2.37603e-15 0)
(1.4 2.54994e-15 0)
(1.4 2.67911e-15 0)
(1.4 2.69469e-15 0)
(1.4 2.6531e-15 0)
(1.4 2.65127e-15 0)
(1.4 2.29388e-15 0)
(1.4 2.1493e-15 0)
(1.4 1.93202e-15 0)
(1.4 1.73859e-15 0)
(1.4 1.58817e-15 0)
(1.4 1.36091e-15 0)
(1.4 1.37723e-15 0)
(1.4 1.01642e-15 0)
(1.4 8.217e-16 0)
(1.4 5.44499e-16 0)
(1.4 4.43743e-16 0)
(1.4 3.34462e-16 0)
(1.4 3.36047e-16 0)
(1.4 4.73006e-16 0)
(1.4 5.37108e-16 0)
(1.4 3.65203e-16 0)
(1.4 4.09177e-16 0)
(1.4 3.40528e-16 0)
(1.4 2.92203e-16 0)
(1.4 3.16077e-16 0)
(1.4 3.87242e-16 0)
(1.4 2.61704e-16 0)
(1.4 -7.07476e-17 0)
(1.4 -3.96219e-16 0)
(1.4 -5.29724e-16 0)
(1.4 -7.21772e-16 0)
(1.4 -7.36477e-16 0)
(1.4 -5.97941e-16 0)
(1.4 -5.71097e-16 0)
(1.4 -3.88737e-16 0)
(1.4 1.0626e-15 0)
(1.4 1.02953e-15 0)
(1.4 1.114e-15 0)
(1.4 1.12484e-15 0)
(1.4 1.05473e-15 0)
(1.4 9.49437e-16 0)
(1.4 7.24629e-16 0)
(1.4 6.58108e-16 0)
(1.4 7.94938e-16 0)
(1.4 8.89856e-16 0)
(1.4 1.1328e-15 0)
(1.4 1.18301e-15 0)
(1.4 1.02837e-15 0)
(1.4 1.24118e-15 0)
(1.4 1.37537e-15 0)
(1.4 1.28003e-15 0)
(1.4 1.24778e-15 0)
(1.4 1.29553e-15 0)
(1.4 1.71541e-15 0)
(1.4 2.30188e-15 0)
(1.4 2.45456e-15 0)
(1.4 2.54895e-15 0)
(1.4 3.03427e-15 0)
(1.4 3.41948e-15 0)
(1.4 3.41377e-15 0)
(1.4 3.46063e-15 0)
(1.4 3.49726e-15 0)
(1.4 3.51695e-15 0)
(1.4 3.64025e-15 0)
(1.4 3.67463e-15 0)
(1.4 3.27246e-15 0)
(1.4 2.99445e-15 0)
(1.4 3.00154e-15 0)
(1.4 3.17333e-15 0)
(1.4 3.27419e-15 0)
(1.4 3.21208e-15 0)
(1.4 3.2613e-15 0)
(1.4 3.15134e-15 0)
(1.4 3.22714e-15 0)
(1.4 3.2697e-15 0)
(1.4 3.25919e-15 0)
(1.4 3.32326e-15 0)
(1.4 3.42601e-15 0)
(1.4 3.59934e-15 0)
(1.4 3.43045e-15 0)
(1.4 3.14025e-15 0)
(1.4 3.08351e-15 0)
(1.4 3.15351e-15 0)
(1.4 3.10062e-15 0)
(1.4 2.92457e-15 0)
(1.4 2.59373e-15 0)
(1.4 2.50259e-15 0)
(1.4 2.383e-15 0)
(1.4 2.27747e-15 0)
(1.4 2.10414e-15 0)
(1.4 2.06819e-15 0)
(1.4 1.77378e-15 0)
(1.4 1.24931e-15 0)
(1.4 1.06215e-15 0)
(1.4 3.72423e-16 0)
(1.4 -1.98011e-16 0)
(1.4 -6.98566e-16 0)
(1.4 -1.06064e-15 0)
(1.4 -1.42942e-15 0)
(1.4 -1.6945e-15 0)
(1.4 -1.71316e-15 0)
(1.4 -1.64137e-15 0)
(1.4 -1.57237e-15 0)
(1.4 -1.48366e-15 0)
(1.4 -1.48742e-15 0)
(1.4 -1.51505e-15 0)
(1.4 -1.50313e-15 0)
(1.4 -1.57235e-15 0)
(1.4 -1.67678e-15 0)
(1.4 -1.51259e-15 0)
(1.4 -1.19174e-15 0)
(1.4 2.88255e-17 0)
(1.4 9.36885e-16 0)
(1.4 1.63818e-15 0)
(1.4 1.97054e-15 0)
(1.4 2.26916e-15 0)
(1.4 2.66173e-15 0)
(1.4 2.72334e-15 0)
(1.4 2.60906e-15 0)
(1.4 2.56373e-15 0)
(1.4 2.20557e-15 0)
(1.4 2.16703e-15 0)
(1.4 1.92289e-15 0)
(1.4 1.6836e-15 0)
(1.4 1.64899e-15 0)
(1.4 1.89157e-15 0)
(1.4 2.06865e-15 0)
(1.4 2.06404e-15 0)
(1.4 1.80951e-15 0)
(1.4 6.23258e-16 0)
(1.4 1.29644e-16 0)
(1.4 -2.66809e-16 0)
(1.4 -3.70612e-16 0)
(1.4 -7.329e-16 0)
(1.4 -8.91784e-16 0)
(1.4 -1.0771e-15 0)
(1.4 -1.11226e-15 0)
(1.4 -1.11885e-15 0)
(1.4 -1.15007e-15 0)
(1.4 -1.20041e-15 0)
(1.4 -1.40671e-15 0)
(1.4 -1.38055e-15 0)
(1.4 -1.26721e-15 0)
(1.4 -1.23566e-15 0)
(1.4 -1.3971e-15 0)
(1.4 -1.53938e-15 0)
(1.4 -1.4988e-15 0)
(1.4 -1.54556e-15 0)
(1.4 -1.47927e-15 0)
(1.4 -1.45369e-15 0)
(1.4 -1.48343e-15 0)
(1.4 -1.38345e-15 0)
(1.4 -1.24501e-15 0)
(1.4 -1.20439e-15 0)
(1.4 -1.08577e-15 0)
(1.4 3.47319e-15 0)
(1.4 3.18786e-15 0)
(1.4 2.97916e-15 0)
(1.4 3.01049e-15 0)
(1.4 2.89236e-15 0)
(1.4 2.75492e-15 0)
(1.4 2.51741e-15 0)
(1.4 2.3007e-15 0)
(1.4 1.98541e-15 0)
(1.4 1.52734e-15 0)
(1.4 1.41108e-15 0)
(1.4 1.20939e-15 0)
(1.4 1.06564e-15 0)
(1.4 8.74472e-16 0)
(1.4 8.9753e-16 0)
(1.4 9.71921e-16 0)
(1.4 9.77894e-16 0)
(1.4 1.05567e-15 0)
(1.4 1.29539e-15 0)
(1.4 1.31579e-15 0)
(1.4 1.36734e-15 0)
(1.4 1.66786e-15 0)
(1.4 1.86003e-15 0)
(1.4 1.91133e-15 0)
(1.4 1.90756e-15 0)
(1.4 1.73158e-15 0)
(1.4 1.76722e-15 0)
(1.4 1.82432e-15 0)
(1.4 1.77894e-15 0)
(1.4 1.81461e-15 0)
(1.4 1.60501e-15 0)
(1.4 1.69216e-15 0)
(1.4 1.79667e-15 0)
(1.4 2.04296e-15 0)
(1.4 2.20956e-15 0)
(1.4 2.45205e-15 0)
(1.4 2.74498e-15 0)
(1.4 2.92409e-15 0)
(1.4 3.01676e-15 0)
(1.4 2.86911e-15 0)
(1.4 2.55351e-15 0)
(1.4 2.2953e-15 0)
(1.4 2.07668e-15 0)
(1.4 2.08505e-15 0)
(1.4 2.24383e-15 0)
(1.4 2.36463e-15 0)
(1.4 2.04956e-15 0)
(1.4 1.09772e-15 0)
(1.4 5.70273e-16 0)
(1.4 1.17817e-16 0)
(1.4 -3.71509e-16 0)
(1.4 -5.64285e-16 0)
(1.4 -8.8265e-16 0)
(1.4 -9.52348e-16 0)
(1.4 -7.90513e-16 0)
(1.4 -5.66135e-16 0)
(1.4 -6.44398e-16 0)
(1.4 -7.61382e-16 0)
(1.4 -8.68106e-16 0)
(1.4 -8.30716e-16 0)
(1.4 -7.29293e-16 0)
(1.4 -7.60792e-16 0)
(1.4 -8.80037e-16 0)
(1.4 -1.21929e-15 0)
(1.4 -1.48306e-15 0)
(1.4 -1.52447e-15 0)
(1.4 -1.5974e-15 0)
(1.4 -1.56601e-15 0)
(1.4 -1.50507e-15 0)
(1.4 -1.54388e-15 0)
(1.4 -1.32e-15 0)
(1.4 -1.34971e-15 0)
(1.4 -1.11539e-15 0)
(1.4 -8.2062e-16 0)
(1.4 -3.50231e-16 0)
(1.4 2.52321e-16 0)
(1.4 1.95342e-15 0)
(1.4 2.54507e-15 0)
(1.4 2.60564e-15 0)
(1.4 2.83676e-15 0)
(1.4 3.16498e-15 0)
(1.4 3.52425e-15 0)
(1.4 2.88462e-15 0)
(1.4 2.40024e-15 0)