/*--------------------------------*- C++ -*----------------------------------*\
  =========                 |
  \\      /  F ield         | OpenFOAM: The Open Source CFD Toolbox
   \\    /   O peration     | Website:  https://openfoam.org
    \\  /    A nd           | Version:  7
     \\/     M anipulation  |
\*---------------------------------------------------------------------------*/
FoamFile
{
    version     2.0;
    format      ascii;
    class       surfaceScalarField;
    location    "1.7";
    object      phi;
}
// * * * * * * * * * * * * * * * * * * * * * * * * * * * * * * * * * * * * * //

dimensions      [0 3 -1 0 0 0 0];

internalField   nonuniform List<scalar> 
39700
(
-6.34126e-12
3.12304e-12
-1.30026e-11
6.66814e-12
-1.80973e-11
5.09374e-12
-1.87531e-11
6.44872e-13
-1.37222e-11
-5.04556e-12
-2.59441e-12
-1.11242e-11
1.45963e-11
-1.71845e-11
3.76004e-11
-2.29983e-11
6.60354e-11
-2.84358e-11
9.94627e-11
-3.34329e-11
1.3742e-10
-3.796e-11
1.79433e-10
-4.20141e-11
2.25034e-10
-4.56011e-11
2.73768e-10
-4.87311e-11
3.25191e-10
-5.1421e-11
3.78876e-10
-5.36878e-11
4.34421e-10
-5.55477e-11
4.91442e-10
-5.70207e-11
5.49573e-10
-5.81294e-11
6.08469e-10
-5.88941e-11
6.67804e-10
-5.93335e-11
7.27271e-10
-5.94668e-11
7.86582e-10
-5.93127e-11
8.4547e-10
-5.8889e-11
9.03685e-10
-5.82135e-11
9.60991e-10
-5.73045e-11
1.01717e-09
-5.6179e-11
1.07202e-09
-5.48524e-11
1.12536e-09
-5.33388e-11
1.17701e-09
-5.16528e-11
1.22682e-09
-4.98096e-11
1.27465e-09
-4.78226e-11
1.32035e-09
-4.57042e-11
1.36382e-09
-4.34661e-11
1.40494e-09
-4.112e-11
1.44361e-09
-3.86769e-11
1.47976e-09
-3.61478e-11
1.5133e-09
-3.3542e-11
1.54417e-09
-3.08687e-11
1.57231e-09
-2.81372e-11
1.59766e-09
-2.53559e-11
1.6202e-09
-2.25324e-11
1.63987e-09
-1.96744e-11
1.65666e-09
-1.67891e-11
1.67054e-09
-1.38833e-11
1.68151e-09
-1.09633e-11
1.68954e-09
-8.03553e-12
1.69465e-09
-5.10559e-12
1.69683e-09
-2.1787e-12
1.69609e-09
7.39249e-13
1.69244e-09
3.64295e-12
1.68592e-09
6.5274e-12
1.67653e-09
9.38789e-12
1.66431e-09
1.22201e-11
1.64929e-09
1.50189e-11
1.63151e-09
1.77791e-11
1.61101e-09
2.04963e-11
1.58785e-09
2.31656e-11
1.56206e-09
2.57822e-11
1.53372e-09
2.83414e-11
1.50289e-09
3.08375e-11
1.46962e-09
3.32654e-11
1.434e-09
3.56195e-11
1.39611e-09
3.78935e-11
1.35603e-09
4.00811e-11
1.31385e-09
4.2176e-11
1.26968e-09
4.41709e-11
1.22362e-09
4.60582e-11
1.17579e-09
4.78295e-11
1.12632e-09
4.94759e-11
1.07533e-09
5.09884e-11
1.02297e-09
5.23568e-11
9.69401e-10
5.35702e-11
9.14785e-10
5.46169e-11
8.59301e-10
5.54847e-11
8.03142e-10
5.61598e-11
7.46514e-10
5.66281e-11
6.89639e-10
5.68751e-11
6.32756e-10
5.68845e-11
5.76118e-10
5.66388e-11
5.19999e-10
5.61202e-11
4.64689e-10
5.53103e-11
4.105e-10
5.41894e-11
3.57764e-10
5.27369e-11
3.06832e-10
5.09325e-11
2.58076e-10
4.87554e-11
2.11891e-10
4.61851e-11
1.6869e-10
4.32019e-11
1.28902e-10
3.97885e-11
9.29703e-11
3.59313e-11
6.13469e-11
3.16234e-11
3.4478e-11
2.68688e-11
1.27882e-11
2.16897e-11
-3.35364e-12
1.61416e-11
-1.36948e-11
1.03408e-11
-1.81913e-11
4.49624e-12
-1.71837e-11
-1.00751e-12
-1.17872e-11
-5.3959e-12
-4.47837e-12
-7.30847e-12
-4.47832e-12
-8.35069e-12
1.14795e-11
-1.70949e-11
1.54024e-11
-1.89352e-11
6.96416e-12
-9.49069e-12
-8.78528e-12
1.37908e-11
-2.83277e-11
5.21001e-11
-4.9452e-11
1.0569e-10
-7.07813e-11
1.74186e-10
-9.14947e-11
2.56851e-10
-1.11099e-10
3.52728e-10
-1.29304e-10
4.60723e-10
-1.45954e-10
5.79679e-10
-1.60975e-10
7.08417e-10
-1.74342e-10
8.45754e-10
-1.86069e-10
9.90528e-10
-1.96194e-10
1.14161e-09
-2.04764e-10
1.2979e-09
-2.11836e-10
1.45835e-09
-2.17474e-10
1.62196e-09
-2.21745e-10
1.78778e-09
-2.24715e-10
1.95491e-09
-2.26457e-10
2.12249e-09
-2.27041e-10
2.28971e-09
-2.26534e-10
2.45582e-09
-2.25002e-10
2.62012e-09
-2.22509e-10
2.78193e-09
-2.19122e-10
2.94066e-09
-2.14901e-10
3.09571e-09
-2.09905e-10
3.24657e-09
-2.04193e-10
3.39273e-09
-1.97819e-10
3.53376e-09
-1.90836e-10
3.66923e-09
-1.83295e-10
3.79877e-09
-1.75243e-10
3.92203e-09
-1.66728e-10
4.0387e-09
-1.57794e-10
4.14851e-09
-1.48482e-10
4.25119e-09
-1.38831e-10
4.34653e-09
-1.2888e-10
4.43432e-09
-1.18665e-10
4.51441e-09
-1.08221e-10
4.58663e-09
-9.75786e-11
4.65087e-09
-8.67694e-11
4.70701e-09
-7.58217e-11
4.75499e-09
-6.47632e-11
4.79473e-09
-5.36212e-11
4.82618e-09
-4.24207e-11
4.84933e-09
-3.11845e-11
4.86416e-09
-1.99356e-11
4.87068e-09
-8.69577e-12
4.8689e-09
2.51348e-12
4.85887e-09
1.36718e-11
4.84064e-09
2.47598e-11
4.81427e-09
3.57581e-11
4.77984e-09
4.66476e-11
4.73745e-09
5.74099e-11
4.6872e-09
6.80261e-11
4.62922e-09
7.84773e-11
4.56364e-09
8.87445e-11
4.49062e-09
9.88082e-11
4.41031e-09
1.08649e-10
4.3229e-09
1.18247e-10
4.22859e-09
1.27579e-10
4.12758e-09
1.36624e-10
4.02012e-09
1.45358e-10
3.90644e-09
1.53757e-10
3.78682e-09
1.61794e-10
3.66155e-09
1.69441e-10
3.53094e-09
1.76669e-10
3.39533e-09
1.83445e-10
3.25507e-09
1.89735e-10
3.11055e-09
1.95505e-10
2.9622e-09
2.00714e-10
2.81045e-09
2.05321e-10
2.65578e-09
2.09282e-10
2.49872e-09
2.1255e-10
2.33981e-09
2.15075e-10
2.17963e-09
2.16803e-10
2.01883e-09
2.17679e-10
1.85808e-09
2.17643e-10
1.69808e-09
2.16633e-10
1.53962e-09
2.14585e-10
1.3835e-09
2.1143e-10
1.23059e-09
2.07102e-10
1.08179e-09
2.0153e-10
9.38083e-10
1.94645e-10
8.0046e-10
1.86379e-10
6.69976e-10
1.76669e-10
5.47717e-10
1.65461e-10
4.34795e-10
1.52711e-10
3.32328e-10
1.38398e-10
2.41416e-10
1.22535e-10
1.63101e-10
1.05184e-10
9.83053e-11
8.64848e-11
4.77397e-11
6.67068e-11
1.17632e-11
4.63174e-11
-9.84669e-12
2.61061e-11
-1.82374e-11
7.38312e-12
-1.58941e-11
-7.73881e-12
-7.31308e-12
-1.58895e-11
-1.17921e-11
-5.85231e-12
1.7331e-11
-8.19211e-12
1.77221e-11
1.57729e-12
-2.81571e-12
2.86334e-11
-3.58272e-11
7.614e-11
-7.58296e-11
1.45687e-10
-1.18997e-10
2.37713e-10
-1.6281e-10
3.51848e-10
-2.05638e-10
4.87181e-10
-2.46434e-10
6.4243e-10
-2.84552e-10
8.16083e-10
-3.19607e-10
1.00649e-09
-3.51382e-10
1.21194e-09
-3.79784e-10
1.43066e-09
-4.04799e-10
1.66093e-09
-4.26467e-10
1.90104e-09
-4.44865e-10
2.1493e-09
-4.60098e-10
2.40411e-09
-4.72284e-10
2.66392e-09
-4.81554e-10
2.92725e-09
-4.88042e-10
3.19268e-09
-4.9189e-10
3.45888e-09
-4.93241e-10
3.72458e-09
-4.92235e-10
3.9886e-09
-4.89012e-10
4.2498e-09
-4.83711e-10
4.50714e-09
-4.76466e-10
4.75965e-09
-4.67407e-10
5.0064e-09
-4.56661e-10
5.24656e-09
-4.44351e-10
5.47934e-09
-4.30596e-10
5.70401e-09
-4.1551e-10
5.91992e-09
-3.992e-10
6.12645e-09
-3.81771e-10
6.32304e-09
-3.63324e-10
6.5092e-09
-3.43954e-10
6.68447e-09
-3.23753e-10
6.84845e-09
-3.02805e-10
7.00076e-09
-2.81194e-10
7.14109e-09
-2.58997e-10
7.26916e-09
-2.36291e-10
7.38472e-09
-2.13144e-10
7.48758e-09
-1.89623e-10
7.57755e-09
-1.65793e-10
7.6545e-09
-1.41713e-10
7.71832e-09
-1.17442e-10
7.76893e-09
-9.3035e-11
7.80629e-09
-6.85433e-11
7.83037e-09
-4.40175e-11
7.84118e-09
-1.95058e-11
7.83875e-09
4.9456e-12
7.82313e-09
2.92913e-11
7.7944e-09
5.34877e-11
7.75267e-09
7.74924e-11
7.69805e-09
1.01263e-10
7.6307e-09
1.24758e-10
7.55079e-09
1.47936e-10
7.45852e-09
1.70754e-10
7.35409e-09
1.9317e-10
7.23776e-09
2.15143e-10
7.10978e-09
2.36627e-10
6.97045e-09
2.57576e-10
6.82008e-09
2.77944e-10
6.65903e-09
2.9768e-10
6.48765e-09
3.16733e-10
6.30636e-09
3.35047e-10
6.11559e-09
3.52565e-10
5.91581e-09
3.69226e-10
5.70751e-09
3.84962e-10
5.49125e-09
3.99705e-10
5.26761e-09
4.13381e-10
5.0372e-09
4.25911e-10
4.80071e-09
4.37209e-10
4.55884e-09
4.47187e-10
4.31238e-09
4.55748e-10
4.06214e-09
4.62792e-10
3.809e-09
4.68212e-10
3.55391e-09
4.71894e-10
3.29787e-09
4.73719e-10
3.04195e-09
4.73563e-10
2.78729e-09
4.71296e-10
2.53509e-09
4.66785e-10
2.28663e-09
4.59891e-10
2.04326e-09
4.50477e-10
1.80639e-09
4.38403e-10
1.5775e-09
4.23535e-10
1.35813e-09
4.05746e-10
1.14988e-09
3.84921e-10
9.5437e-10
3.6097e-10
7.73245e-10
3.33837e-10
6.08129e-10
3.03515e-10
4.60586e-10
2.70078e-10
3.32057e-10
2.33712e-10
2.23765e-10
1.94777e-10
1.36588e-10
1.53884e-10
7.0876e-11
1.12029e-10
2.62006e-11
7.07815e-11
1.01305e-12
3.25712e-11
-7.83538e-12
1.10943e-12
-5.43403e-12
-1.82915e-11
-1.72273e-11
-1.12659e-12
1.84771e-11
7.71116e-12
8.87476e-12
3.44134e-11
-2.95308e-11
8.41384e-11
-8.55608e-11
1.60058e-10
-1.51745e-10
2.63829e-10
-2.22765e-10
3.95932e-10
-2.94915e-10
5.55969e-10
-3.65673e-10
7.42891e-10
-4.33357e-10
9.55198e-10
-4.96863e-10
1.19108e-09
-5.55492e-10
1.44853e-09
-6.08831e-10
1.72542e-09
-6.56668e-10
2.01955e-09
-6.9893e-10
2.32872e-09
-7.35638e-10
2.65074e-09
-7.66888e-10
2.98347e-09
-7.92827e-10
3.32482e-09
-8.1363e-10
3.67277e-09
-8.29499e-10
4.02538e-09
-8.40651e-10
4.3808e-09
-8.47311e-10
4.73726e-09
-8.49709e-10
5.09311e-09
-8.48077e-10
5.44674e-09
-8.42649e-10
5.79669e-09
-8.33655e-10
6.14154e-09
-8.21318e-10
6.47999e-09
-8.0586e-10
6.81083e-09
-7.87494e-10
7.13291e-09
-7.66429e-10
7.44518e-09
-7.42866e-10
7.74666e-09
-7.16998e-10
8.03648e-09
-6.89012e-10
8.31379e-09
-6.59085e-10
8.57786e-09
-6.2739e-10
8.82799e-09
-5.9409e-10
9.06358e-09
-5.5934e-10
9.28406e-09
-5.2329e-10
9.48895e-09
-4.86081e-10
9.6778e-09
-4.47848e-10
9.85023e-09
-4.0872e-10
1.00059e-08
-3.68817e-10
1.01445e-08
-3.28257e-10
1.02659e-08
-2.87148e-10
1.03698e-08
-2.45597e-10
1.0456e-08
-2.03703e-10
1.05246e-08
-1.61561e-10
1.05753e-08
-1.19263e-10
1.06082e-08
-7.68947e-11
1.06232e-08
-3.4542e-11
1.06204e-08
7.7145e-12
1.05999e-08
4.97965e-11
1.05618e-08
9.16273e-11
1.05061e-08
1.33133e-10
1.04332e-08
1.74238e-10
1.0343e-08
2.1487e-10
1.0236e-08
2.54957e-10
1.01124e-08
2.94423e-10
9.97233e-09
3.33196e-10
9.81627e-09
3.712e-10
9.64455e-09
4.08356e-10
9.45754e-09
4.44585e-10
9.25568e-09
4.79803e-10
9.03943e-09
5.13924e-10
8.80931e-09
5.46856e-10
8.56586e-09
5.78503e-10
8.30966e-09
6.08765e-10
8.04135e-09
6.37532e-10
7.76162e-09
6.64694e-10
7.4712e-09
6.90127e-10
7.17088e-09
7.13704e-10
6.8615e-09
7.35289e-10
6.54397e-09
7.54736e-10
6.21927e-09
7.71892e-10
5.88843e-09
7.86593e-10
5.55255e-09
7.98668e-10
5.21283e-09
8.07935e-10
4.87052e-09
8.14202e-10
4.52697e-09
8.17272e-10
4.1836e-09
8.16936e-10
3.84191e-09
8.12979e-10
3.50352e-09
8.05182e-10
3.17009e-09
7.93322e-10
2.84339e-09
7.77175e-10
2.52527e-09
7.56521e-10
2.21765e-09
7.31154e-10
1.92252e-09
7.00881e-10
1.6419e-09
6.65541e-10
1.37785e-09
6.25015e-10
1.13244e-09
5.79251e-10
9.07663e-10
5.28291e-10
7.0543e-10
4.72312e-10
5.2746e-10
4.11683e-10
3.75182e-10
3.47054e-10
2.49595e-10
2.79471e-10
1.51078e-10
2.10546e-10
7.91557e-11
1.42704e-10
3.2196e-11
7.95299e-11
7.11719e-12
2.61875e-11
-1.10794e-12
-1.00678e-11
-1.83362e-11
4.61094e-12
1.38683e-11
2.71587e-11
-1.36567e-11
7.40057e-11
-7.63878e-11
1.49561e-10
-1.61123e-10
2.56609e-10
-2.58794e-10
3.96588e-10
-3.62746e-10
5.69845e-10
-4.68171e-10
7.75858e-10
-5.71683e-10
1.01343e-09
-6.70934e-10
1.28089e-09
-7.64319e-10
1.57618e-09
-8.50781e-10
1.89701e-09
-9.29664e-10
2.24093e-09
-1.00059e-09
2.60542e-09
-1.06341e-09
2.98788e-09
-1.1181e-09
3.38574e-09
-1.16475e-09
3.79647e-09
-1.20355e-09
4.21757e-09
-1.23473e-09
4.64664e-09
-1.25856e-09
5.08134e-09
-1.27535e-09
5.51944e-09
-1.28541e-09
5.95881e-09
-1.28908e-09
6.39742e-09
-1.28668e-09
6.83334e-09
-1.27857e-09
7.26475e-09
-1.26507e-09
7.68996e-09
-1.24652e-09
8.10735e-09
-1.22325e-09
8.51542e-09
-1.19557e-09
8.91279e-09
-1.16379e-09
9.29814e-09
-1.12822e-09
9.67029e-09
-1.08914e-09
1.00281e-08
-1.04684e-09
1.03706e-08
-1.00158e-09
1.06968e-08
-9.53613e-10
1.10059e-08
-9.03197e-10
1.12972e-08
-8.50563e-10
1.15698e-08
-7.95935e-10
1.18232e-08
-7.39529e-10
1.20569e-08
-6.8155e-10
1.22704e-08
-6.22191e-10
1.24632e-08
-5.61637e-10
1.2635e-08
-5.00065e-10
1.27855e-08
-4.37643e-10
1.29145e-08
-3.74531e-10
1.30217e-08
-3.10881e-10
1.31069e-08
-2.46838e-10
1.31702e-08
-1.82542e-10
1.32114e-08
-1.18127e-10
1.32306e-08
-5.37218e-11
1.32278e-08
1.05492e-11
1.3203e-08
7.45658e-11
1.31564e-08
1.3821e-10
1.30882e-08
2.01367e-10
1.29985e-08
2.63922e-10
1.28876e-08
3.25763e-10
1.27558e-08
3.86777e-10
1.26034e-08
4.46851e-10
1.24307e-08
5.05869e-10
1.22382e-08
5.63716e-10
1.20263e-08
6.20272e-10
1.17954e-08
6.75412e-10
1.15462e-08
7.29008e-10
1.12792e-08
7.80927e-10
1.09951e-08
8.31029e-10
1.06944e-08
8.79166e-10
1.0378e-08
9.25184e-10
1.00466e-08
9.68917e-10
9.7011e-09
1.01019e-09
9.3424e-09
1.04883e-09
8.97147e-09
1.08463e-09
8.58938e-09
1.11738e-09
8.19724e-09
1.14688e-09
7.79626e-09
1.17288e-09
7.38771e-09
1.19514e-09
6.97297e-09
1.21341e-09
6.5535e-09
1.22741e-09
6.13084e-09
1.23686e-09
5.70664e-09
1.24147e-09
5.28265e-09
1.24093e-09
4.86069e-09
1.23493e-09
4.44272e-09
1.22316e-09
4.03076e-09
1.20528e-09
3.62693e-09
1.181e-09
3.23347e-09
1.14999e-09
2.85264e-09
1.11198e-09
2.48681e-09
1.06671e-09
2.13836e-09
1.01399e-09
1.80971e-09
9.53669e-10
1.50323e-09
8.85731e-10
1.22123e-09
8.1029e-10
9.65882e-10
7.27663e-10
7.3912e-10
6.38445e-10
5.42552e-10
5.43622e-10
3.77313e-10
4.44709e-10
2.439e-10
3.43959e-10
1.4197e-10
2.44634e-10
7.01185e-11
1.5138e-10
2.56493e-11
7.06553e-11
4.31739e-12
1.12624e-11
-1.40188e-11
1.0634e-11
3.22604e-12
4.80166e-11
-5.10341e-11
1.16629e-10
-1.44995e-10
2.19738e-10
-2.64233e-10
3.59429e-10
-3.9849e-10
5.367e-10
-5.40017e-10
7.51596e-10
-6.83067e-10
1.00337e-09
-8.23463e-10
1.29065e-09
-9.58213e-10
1.61155e-09
-1.08522e-09
1.96382e-09
-1.20305e-09
2.34492e-09
-1.31077e-09
2.75215e-09
-1.40783e-09
3.18269e-09
-1.49395e-09
3.63365e-09
-1.56906e-09
4.10214e-09
-1.63324e-09
4.58529e-09
-1.68671e-09
5.08029e-09
-1.72973e-09
5.58437e-09
-1.76265e-09
6.09489e-09
-1.78587e-09
6.60928e-09
-1.7998e-09
7.12507e-09
-1.80487e-09
7.63994e-09
-1.80155e-09
8.15165e-09
-1.79028e-09
8.6581e-09
-1.77152e-09
9.1573e-09
-1.74572e-09
9.64738e-09
-1.71333e-09
1.01266e-08
-1.67478e-09
1.05933e-08
-1.63051e-09
1.1046e-08
-1.58092e-09
1.14833e-08
-1.52641e-09
1.19038e-08
-1.46738e-09
1.23064e-08
-1.40418e-09
1.269e-08
-1.3372e-09
1.30536e-08
-1.26675e-09
1.33962e-08
-1.19318e-09
1.3717e-08
-1.11679e-09
1.40154e-08
-1.03789e-09
1.42906e-08
-9.56764e-10
1.45421e-08
-8.7368e-10
1.47694e-08
-7.88898e-10
1.4972e-08
-7.02666e-10
1.51495e-08
-6.15219e-10
1.53018e-08
-5.26783e-10
1.54285e-08
-4.37572e-10
1.55294e-08
-3.47789e-10
1.56045e-08
-2.57633e-10
1.56537e-08
-1.67291e-10
1.56769e-08
-7.69463e-11
1.56742e-08
1.32262e-11
1.56457e-08
1.03055e-10
1.55916e-08
1.92375e-10
1.55119e-08
2.81021e-10
1.5407e-08
3.68832e-10
1.52771e-08
4.55648e-10
1.51226e-08
5.41309e-10
1.49438e-08
6.25653e-10
1.47411e-08
7.08519e-10
1.45151e-08
7.89739e-10
1.42662e-08
8.69144e-10
1.39951e-08
9.46558e-10
1.37023e-08
1.0218e-09
1.33886e-08
1.09468e-09
1.30546e-08
1.165e-09
1.27012e-08
1.23255e-09
1.23293e-08
1.29711e-09
1.19397e-08
1.35845e-09
1.15336e-08
1.41634e-09
1.11119e-08
1.4705e-09
1.06759e-08
1.52067e-09
1.02267e-08
1.56656e-09
9.76573e-09
1.60786e-09
9.29435e-09
1.64426e-09
8.81408e-09
1.67541e-09
8.32653e-09
1.70096e-09
7.8334e-09
1.72054e-09
7.3365e-09
1.73376e-09
6.83775e-09
1.74022e-09
6.33916e-09
1.73952e-09
5.84287e-09
1.73122e-09
5.35112e-09
1.71491e-09
4.86624e-09
1.69016e-09
4.39068e-09
1.65656e-09
3.92695e-09
1.61372e-09
3.47766e-09
1.56127e-09
3.04547e-09
1.49891e-09
2.63306e-09
1.4264e-09
2.24313e-09
1.3436e-09
1.87831e-09
1.25054e-09
1.54118e-09
1.14743e-09
1.2341e-09
1.03474e-09
9.59234e-10
9.13314e-10
7.18361e-10
7.84493e-10
5.12806e-10
6.50263e-10
3.43281e-10
5.13484e-10
2.09738e-10
3.78176e-10
1.11219e-10
2.49899e-10
4.57189e-11
1.36154e-10
1.00916e-11
4.68889e-11
-3.92698e-12
1.65867e-11
-1.33717e-11
6.90391e-11
-1.03485e-10
1.59926e-10
-2.35878e-10
2.91219e-10
-3.95529e-10
4.64115e-10
-5.71385e-10
6.78995e-10
-7.54895e-10
9.35472e-10
-9.39548e-10
1.23249e-09
-1.12048e-09
1.56842e-09
-1.29414e-09
1.94115e-09
-1.45795e-09
2.34822e-09
-1.61011e-09
2.78688e-09
-1.74943e-09
3.25419e-09
-1.87514e-09
3.74708e-09
-1.98684e-09
4.26243e-09
-2.0844e-09
4.79706e-09
-2.16788e-09
5.34784e-09
-2.23748e-09
5.91165e-09
-2.29354e-09
6.48546e-09
-2.33647e-09
7.06633e-09
-2.36674e-09
7.65141e-09
-2.38488e-09
8.23797e-09
-2.39143e-09
8.82338e-09
-2.38696e-09
9.40516e-09
-2.37206e-09
9.98095e-09
-2.34731e-09
1.05485e-08
-2.31328e-09
1.11057e-08
-2.27056e-09
1.16507e-08
-2.21971e-09
1.21815e-08
-2.16129e-09
1.26964e-08
-2.09583e-09
1.31938e-08
-2.02385e-09
1.36723e-08
-1.94587e-09
1.41305e-08
-1.86237e-09
1.45671e-08
-1.77382e-09
1.4981e-08
-1.68068e-09
1.53712e-08
-1.58336e-09
1.57367e-08
-1.4823e-09
1.60767e-08
-1.37787e-09
1.63904e-08
-1.27047e-09
1.66772e-08
-1.16044e-09
1.69364e-08
-1.04814e-09
1.71676e-08
-9.33884e-10
1.73704e-08
-8.17994e-10
1.75444e-08
-7.00765e-10
1.76893e-08
-5.82482e-10
1.78049e-08
-4.63417e-10
1.78911e-08
-3.43833e-10
1.79478e-08
-2.23981e-10
1.7975e-08
-1.04103e-10
1.79726e-08
1.55649e-11
1.79409e-08
1.34795e-10
1.78799e-08
2.53363e-10
1.77899e-08
3.71052e-10
1.76711e-08
4.87643e-10
1.75238e-08
6.02923e-10
1.73484e-08
7.16677e-10
1.71454e-08
8.28689e-10
1.69152e-08
9.38739e-10
1.66583e-08
1.04661e-09
1.63754e-08
1.15206e-09
1.60671e-08
1.25487e-09
1.57341e-08
1.35479e-09
1.53772e-08
1.45156e-09
1.49973e-08
1.54492e-09
1.45952e-08
1.6346e-09
1.4172e-08
1.7203e-09
1.37288e-08
1.80171e-09
1.32666e-08
1.87851e-09
1.27867e-08
1.95037e-09
1.22905e-08
2.01691e-09
1.17793e-08
2.07776e-09
1.12546e-08
2.13252e-09
1.07181e-08
2.18077e-09
1.01715e-08
2.22206e-09
9.6165e-09
2.25594e-09
9.05512e-09
2.28191e-09
8.48939e-09
2.29949e-09
7.92146e-09
2.30816e-09
7.35359e-09
2.30738e-09
6.78819e-09
2.29663e-09
6.22774e-09
2.27536e-09
5.67484e-09
2.24305e-09
5.13221e-09
2.19919e-09
4.60264e-09
2.14329e-09
4.08898e-09
2.07493e-09
3.59416e-09
1.99373e-09
3.12111e-09
1.89944e-09
2.67277e-09
1.79194e-09
2.25201e-09
1.6713e-09
1.8616e-09
1.53783e-09
1.50414e-09
1.3922e-09
1.18198e-09
1.23548e-09
8.97108e-10
1.06936e-09
6.51106e-10
8.96264e-10
4.44997e-10
7.19593e-10
2.79156e-10
5.44016e-10
1.53233e-10
3.75821e-10
6.6097e-11
2.2329e-10
1.58527e-11
9.71331e-11
1.19256e-11
2.2291e-11
-3.56628e-11
8.95117e-11
-1.70709e-10
2.02467e-10
-3.48835e-10
3.61806e-10
-5.54868e-10
5.67741e-10
-7.77319e-10
8.19934e-10
-1.00709e-09
1.11748e-09
-1.23709e-09
1.45892e-09
-1.46192e-09
1.84231e-09
-1.67753e-09
2.26528e-09
-1.88092e-09
2.72514e-09
-2.06998e-09
3.21893e-09
-2.24321e-09
3.74349e-09
-2.3997e-09
4.29553e-09
-2.53888e-09
4.87169e-09
-2.66056e-09
5.46858e-09
-2.76477e-09
6.08282e-09
-2.85171e-09
6.71105e-09
-2.92177e-09
7.35e-09
-2.97542e-09
7.99648e-09
-3.01321e-09
8.64738e-09
-3.03578e-09
9.29974e-09
-3.04379e-09
9.9507e-09
-3.03792e-09
1.05975e-08
-3.0189e-09
1.12377e-08
-2.98743e-09
1.18686e-08
-2.94424e-09
1.24881e-08
-2.89005e-09
1.30939e-08
-2.82555e-09
1.36841e-08
-2.75144e-09
1.42567e-08
-2.66839e-09
1.48099e-08
-2.57706e-09
1.53421e-08
-2.47809e-09
1.58518e-08
-2.37208e-09
1.63376e-08
-2.25963e-09
1.67982e-08
-2.14132e-09
1.72326e-08
-2.01768e-09
1.76395e-08
-1.88923e-09
1.80181e-08
-1.75649e-09
1.83676e-08
-1.61992e-09
1.86871e-08
-1.47999e-09
1.89761e-08
-1.33712e-09
1.9234e-08
-1.19175e-09
1.94602e-08
-1.04425e-09
1.96545e-08
-8.95025e-10
1.98164e-08
-7.44425e-10
1.99458e-08
-5.928e-10
2.00425e-08
-4.40487e-10
2.01063e-08
-2.87806e-10
2.01372e-08
-1.35068e-10
2.01354e-08
1.74248e-11
2.01008e-08
1.6938e-10
2.00337e-08
3.20512e-10
1.99342e-08
4.70538e-10
1.98026e-08
6.1918e-10
1.96394e-08
7.66162e-10
1.94449e-08
9.11209e-10
1.92195e-08
1.05404e-09
1.89639e-08
1.19438e-09
1.86785e-08
1.33193e-09
1.83642e-08
1.46641e-09
1.80215e-08
1.59751e-09
1.76514e-08
1.72492e-09
1.72546e-08
1.84832e-09
1.68322e-08
1.96736e-09
1.63851e-08
2.08169e-09
1.59145e-08
2.19093e-09
1.54215e-08
2.29471e-09
1.49074e-08
2.39259e-09
1.43736e-08
2.48416e-09
1.38216e-08
2.56895e-09
1.32529e-08
2.64648e-09
1.26691e-08
2.71625e-09
1.20722e-08
2.77773e-09
1.14639e-08
2.83036e-09
1.08462e-08
2.87356e-09
1.02214e-08
2.90674e-09
9.59163e-09
2.92928e-09
8.95927e-09
2.94053e-09
8.3268e-09
2.93985e-09
7.69685e-09
2.92658e-09
7.07214e-09
2.90007e-09
6.45551e-09
2.85969e-09
5.84989e-09
2.80481e-09
5.2583e-09
2.73488e-09
4.68383e-09
2.64939e-09
4.12964e-09
2.54793e-09
3.59886e-09
2.43022e-09
3.09465e-09
2.29615e-09
2.62009e-09
2.14586e-09
2.17816e-09
1.97977e-09
1.77165e-09
1.7987e-09
1.40315e-09
1.60399e-09
1.0749e-09
1.39761e-09
7.88778e-10
1.18238e-09
5.46208e-10
9.62163e-10
3.48085e-10
7.42138e-10
1.94765e-10
5.29141e-10
8.60754e-11
3.31979e-10
2.14128e-11
1.61796e-10
3.33381e-11
2.76516e-11
-6.33115e-11
1.09048e-10
-2.52111e-10
2.4342e-10
-4.83205e-10
4.30146e-10
-7.41592e-10
6.68439e-10
-1.01562e-09
9.57201e-10
-1.29585e-09
1.29493e-09
-1.57482e-09
1.67972e-09
-1.84671e-09
2.10925e-09
-2.10706e-09
2.58087e-09
-2.35255e-09
3.09163e-09
-2.58073e-09
3.63833e-09
-2.78992e-09
4.21761e-09
-2.97897e-09
4.82597e-09
-3.14724e-09
5.45984e-09
-3.29443e-09
6.11561e-09
-3.42054e-09
6.7897e-09
-3.5258e-09
7.47855e-09
-3.61061e-09
8.17865e-09
-3.67552e-09
8.88661e-09
-3.72117e-09
9.5991e-09
-3.74828e-09
1.03129e-08
-3.75764e-09
1.10251e-08
-3.75006e-09
1.17326e-08
-3.7264e-09
1.24327e-08
-3.6875e-09
1.31227e-08
-3.63424e-09
1.38001e-08
-3.56748e-09
1.44626e-08
-3.48805e-09
1.5108e-08
-3.39681e-09
1.57341e-08
-3.29457e-09
1.63392e-08
-3.18212e-09
1.69214e-08
-3.06025e-09
1.7479e-08
-2.9297e-09
1.80105e-08
-2.79118e-09
1.85146e-08
-2.64541e-09
1.899e-08
-2.49304e-09
1.94355e-08
-2.33473e-09
1.98501e-08
-2.17107e-09
2.02328e-08
-2.00267e-09
2.05829e-08
-1.83008e-09
2.08996e-08
-1.65384e-09
2.11823e-08
-1.47446e-09
2.14305e-08
-1.29244e-09
2.16437e-08
-1.10824e-09
2.18216e-08
-9.22312e-10
2.19639e-08
-7.35089e-10
2.20704e-08
-5.46983e-10
2.2141e-08
-3.58394e-10
2.21756e-08
-1.69708e-10
2.21744e-08
1.87021e-11
2.21373e-08
2.06472e-10
2.20645e-08
3.93246e-10
2.19564e-08
5.78672e-10
2.18132e-08
7.62406e-10
2.16352e-08
9.44103e-10
2.1423e-08
1.12342e-09
2.11771e-08
1.30001e-09
2.08979e-08
1.47352e-09
2.05863e-08
1.64359e-09
2.02428e-08
1.80986e-09
1.98684e-08
1.97196e-09
1.94638e-08
2.12949e-09
1.90301e-08
2.28206e-09
1.85682e-08
2.42923e-09
1.80793e-08
2.57057e-09
1.75646e-08
2.70562e-09
1.70254e-08
2.8339e-09
1.64631e-08
2.95489e-09
1.58792e-08
3.06807e-09
1.52753e-08
3.17287e-09
1.4653e-08
3.26871e-09
1.40143e-08
3.35496e-09
1.33611e-08
3.43098e-09
1.26953e-08
3.4961e-09
1.20193e-08
3.54962e-09
1.13352e-08
3.5908e-09
1.06456e-08
3.6189e-09
9.95297e-09
3.63317e-09
9.26e-09
3.63281e-09
8.56951e-09
3.61707e-09
7.88443e-09
3.58515e-09
7.20779e-09
3.53633e-09
6.54273e-09
3.46987e-09
5.89248e-09
3.38514e-09
5.26033e-09
3.28154e-09
4.64961e-09
3.15865e-09
4.06368e-09
3.01614e-09
3.50589e-09
2.85395e-09
2.9795e-09
2.67224e-09
2.48772e-09
2.47156e-09
2.03355e-09
2.25287e-09
1.61981e-09
2.01772e-09
1.24906e-09
1.76836e-09
9.23526e-10
1.50792e-09
6.45074e-10
1.24061e-09
4.15188e-10
9.72023e-10
2.34982e-10
7.09346e-10
1.05266e-10
4.61696e-10
2.66791e-11
2.40383e-10
6.00166e-11
3.26388e-11
-9.59498e-11
1.27469e-10
-3.46942e-10
2.82341e-10
-6.38076e-10
4.95467e-10
-9.5472e-10
7.65103e-10
-1.28525e-09
1.08937e-09
-1.62012e-09
1.46614e-09
-1.95159e-09
1.89301e-09
-2.27358e-09
2.36727e-09
-2.58132e-09
2.88593e-09
-2.87121e-09
3.44576e-09
-3.14057e-09
4.04334e-09
-3.38749e-09
4.67506e-09
-3.61069e-09
5.33722e-09
-3.80941e-09
6.02607e-09
-3.98328e-09
6.73779e-09
-4.13227e-09
7.4686e-09
-4.25662e-09
8.21475e-09
-4.35677e-09
8.97256e-09
-4.43333e-09
9.73842e-09
-4.48702e-09
1.05088e-08
-4.51869e-09
1.12804e-08
-4.52923e-09
1.20499e-08
-4.51958e-09
1.28143e-08
-4.49073e-09
1.35705e-08
-4.44369e-09
1.43157e-08
-4.37947e-09
1.50473e-08
-4.29907e-09
1.57627e-08
-4.20351e-09
1.64597e-08
-4.09376e-09
1.71359e-08
-3.97081e-09
1.77894e-08
-3.83559e-09
1.84182e-08
-3.68903e-09
1.90205e-08
-3.53202e-09
1.95947e-08
-3.36541e-09
2.01394e-08
-3.19005e-09
2.0653e-08
-3.00673e-09
2.11345e-08
-2.81621e-09
2.15827e-08
-2.61924e-09
2.19965e-08
-2.41651e-09
2.23752e-08
-2.20871e-09
2.27178e-08
-1.99647e-09
2.30237e-08
-1.78042e-09
2.32925e-08
-1.56114e-09
2.35234e-08
-1.33921e-09
2.37163e-08
-1.11515e-09
2.38707e-08
-8.89502e-10
2.39864e-08
-6.62754e-10
2.40634e-08
-4.35392e-10
2.41016e-08
-2.0788e-10
2.4101e-08
1.93274e-11
2.40617e-08
2.45789e-10
2.39838e-08
4.71074e-10
2.38678e-08
6.94757e-10
2.37137e-08
9.16416e-10
2.35222e-08
1.13564e-09
2.32936e-08
1.352e-09
2.30286e-08
1.56508e-09
2.27276e-08
1.77446e-09
2.23915e-08
1.9797e-09
2.2021e-08
2.18036e-09
2.1617e-08
2.37598e-09
2.11804e-08
2.56609e-09
2.07123e-08
2.7502e-09
2.02137e-08
2.9278e-09
1.96859e-08
3.09837e-09
1.91302e-08
3.26135e-09
1.85479e-08
3.41614e-09
1.79407e-08
3.56215e-09
1.731e-08
3.69874e-09
1.66576e-08
3.82522e-09
1.59855e-08
3.9409e-09
1.52954e-08
4.04504e-09
1.45895e-08
4.13687e-09
1.387e-08
4.21559e-09
1.31392e-08
4.28038e-09
1.23997e-08
4.33036e-09
1.16539e-08
4.36468e-09
1.09046e-08
4.38242e-09
1.01548e-08
4.3827e-09
9.40723e-09
4.36459e-09
8.66517e-09
4.32722e-09
7.93178e-09
4.26971e-09
7.2104e-09
4.19126e-09
6.50442e-09
4.09112e-09
5.81731e-09
3.96865e-09
5.15261e-09
3.82335e-09
4.51384e-09
3.65491e-09
3.90454e-09
3.46325e-09
3.32819e-09
3.24859e-09
2.78817e-09
3.01157e-09
2.28776e-09
2.75328e-09
1.83003e-09
2.47545e-09
1.41787e-09
2.18052e-09
1.05389e-09
1.87189e-09
7.40461e-10
1.55404e-09
4.79678e-10
1.23281e-09
2.73428e-10
9.15595e-10
1.23474e-10
6.1165e-10
3.16162e-11
3.3224e-10
9.16319e-11
3.72585e-11
-1.33206e-10
1.44714e-10
-4.54399e-10
3.19038e-10
-8.12404e-10
5.57401e-10
-1.19308e-09
8.57154e-10
-1.585e-09
1.21565e-09
-1.97862e-09
1.63015e-09
-2.36609e-09
2.09771e-09
-2.74114e-09
2.61522e-09
-3.09882e-09
3.17932e-09
-3.43531e-09
3.78649e-09
-3.74774e-09
4.43303e-09
-4.03403e-09
5.11513e-09
-4.29279e-09
5.82886e-09
-4.52314e-09
6.57027e-09
-4.72468e-09
7.33536e-09
-4.89736e-09
8.12017e-09
-5.04143e-09
8.92078e-09
-5.15737e-09
9.7333e-09
-5.24585e-09
1.0554e-08
-5.3077e-09
1.13791e-08
-5.34385e-09
1.22052e-08
-5.35532e-09
1.30288e-08
-5.34319e-09
1.38467e-08
-5.30859e-09
1.46557e-08
-5.25267e-09
1.54528e-08
-5.1766e-09
1.62353e-08
-5.08154e-09
1.70004e-08
-4.96866e-09
1.77458e-08
-4.8391e-09
1.8469e-08
-4.69399e-09
1.91678e-08
-4.53443e-09
1.98403e-08
-4.3615e-09
2.04845e-08
-4.17622e-09
2.10987e-08
-3.97962e-09
2.16813e-08
-3.77267e-09
2.22309e-08
-3.55629e-09
2.27461e-08
-3.3314e-09
2.32257e-08
-3.09885e-09
2.36687e-08
-2.85948e-09
2.4074e-08
-2.61407e-09
2.4441e-08
-2.36339e-09
2.47687e-08
-2.10817e-09
2.50567e-08
-1.84909e-09
2.53043e-08
-1.58684e-09
2.55112e-08
-1.32204e-09
2.5677e-08
-1.05533e-09
2.58015e-08
-7.87272e-10
2.58846e-08
-5.18458e-10
2.59261e-08
-2.49434e-10
2.59262e-08
1.92616e-11
2.58849e-08
2.87105e-10
2.58024e-08
5.53583e-10
2.56789e-08
8.1819e-10
2.55149e-08
1.08043e-09
2.53108e-08
1.3398e-09
2.5067e-08
1.5958e-09
2.47841e-08
1.84795e-09
2.44628e-08
2.09572e-09
2.41039e-08
2.3386e-09
2.37082e-08
2.57607e-09
2.32766e-08
2.80758e-09
2.28101e-08
3.03258e-09
2.23099e-08
3.25048e-09
2.1777e-08
3.46068e-09
2.12128e-08
3.66256e-09
2.06187e-08
3.85545e-09
1.99962e-08
4.03867e-09
1.93468e-08
4.2115e-09
1.86724e-08
4.37319e-09
1.79746e-08
4.52294e-09
1.72556e-08
4.65994e-09
1.65173e-08
4.78332e-09
1.5762e-08
4.89218e-09
1.4992e-08
4.98559e-09
1.42098e-08
5.06259e-09
1.3418e-08
5.1222e-09
1.26193e-08
5.16338e-09
1.18166e-08
5.18512e-09
1.10129e-08
5.18637e-09
1.02114e-08
5.1661e-09
9.41532e-09
5.1233e-09
8.62805e-09
5.05698e-09
7.85306e-09
4.96624e-09
7.09393e-09
4.85024e-09
6.3543e-09
4.70828e-09
5.63787e-09
4.53978e-09
4.94835e-09
4.34443e-09
4.28946e-09
4.12214e-09
3.66488e-09
3.87317e-09
3.07823e-09
3.59822e-09
2.53302e-09
3.29849e-09
2.03263e-09
2.97583e-09
1.58028e-09
2.63287e-09
1.17903e-09
2.27315e-09
8.31741e-10
1.90133e-09
5.41145e-10
1.5234e-09
3.09885e-10
1.14685e-09
1.40625e-10
7.80909e-10
3.62196e-11
4.36644e-10
1.27851e-10
4.15262e-11
-1.74731e-10
1.60797e-10
-5.73672e-10
3.53489e-10
-1.0051e-09
6.15844e-10
-1.45544e-09
9.44383e-10
-1.91354e-09
1.33574e-09
-2.36998e-09
1.78655e-09
-2.8169e-09
2.29337e-09
-3.24796e-09
2.85262e-09
-3.65807e-09
3.46059e-09
-4.04328e-09
4.11343e-09
-4.40058e-09
4.80717e-09
-4.72778e-09
5.53776e-09
-5.02337e-09
6.30105e-09
-5.28644e-09
7.0929e-09
-5.51653e-09
7.90912e-09
-5.71358e-09
8.74557e-09
-5.87788e-09
9.59814e-09
-6.00994e-09
1.04628e-08
-6.11052e-09
1.13357e-08
-6.18054e-09
1.22128e-08
-6.22102e-09
1.30906e-08
-6.23312e-09
1.39655e-08
-6.21807e-09
1.4834e-08
-6.17712e-09
1.56929e-08
-6.11158e-09
1.65391e-08
-6.02278e-09
1.73696e-08
-5.91205e-09
1.81817e-08
-5.78071e-09
1.89726e-08
-5.63007e-09
1.97401e-08
-5.46141e-09
2.04816e-08
-5.27601e-09
2.11952e-08
-5.07509e-09
2.18789e-08
-4.85985e-09
2.25307e-08
-4.63145e-09
2.3149e-08
-4.39101e-09
2.37324e-08
-4.13961e-09
2.42793e-08
-3.87829e-09
2.47884e-08
-3.60804e-09
2.52588e-08
-3.32983e-09
2.56893e-08
-3.04458e-09
2.60791e-08
-2.75315e-09
2.64273e-08
-2.45641e-09
2.67334e-08
-2.15515e-09
2.69967e-08
-1.85016e-09
2.72168e-08
-1.54217e-09
2.73934e-08
-1.2319e-09
2.75262e-08
-9.20048e-10
2.7615e-08
-6.0727e-10
2.76598e-08
-2.94214e-10
2.76605e-08
1.8494e-11
2.76174e-08
3.30242e-10
2.75306e-08
6.40429e-10
2.74003e-08
9.48467e-10
2.72269e-08
1.25377e-09
2.7011e-08
1.55576e-09
2.67529e-08
1.85385e-09
2.64534e-08
2.14746e-09
2.61131e-08
2.436e-09
2.57329e-08
2.71885e-09
2.53135e-08
2.99541e-09
2.48561e-08
3.26505e-09
2.43615e-08
3.52711e-09
2.38311e-08
3.78091e-09
2.3266e-08
4.02575e-09
2.26677e-08
4.2609e-09
2.20375e-08
4.48561e-09
2.13771e-08
4.69906e-09
2.06882e-08
4.90042e-09
1.99726e-08
5.08883e-09
1.92321e-08
5.26338e-09
1.8469e-08
5.42311e-09
1.76852e-08
5.56703e-09
1.68833e-08
5.6941e-09
1.60656e-08
5.80328e-09
1.52348e-08
5.89344e-09
1.43935e-08
5.96347e-09
1.35447e-08
6.0122e-09
1.26913e-08
6.03847e-09
1.18366e-08
6.0411e-09
1.09838e-08
6.01893e-09
1.01362e-08
5.97082e-09
9.29756e-09
5.89567e-09
8.47135e-09
5.79245e-09
7.66134e-09
5.66025e-09
6.87133e-09
5.49828e-09
6.1052e-09
5.30592e-09
5.36682e-09
5.08281e-09
4.66011e-09
4.82885e-09
3.98896e-09
4.54432e-09
3.35721e-09
4.22996e-09
2.76866e-09
3.88705e-09
2.22699e-09
3.51751e-09
1.73578e-09
3.12407e-09
1.29854e-09
2.71039e-09
9.18637e-10
2.28123e-09
5.99432e-10
1.8426e-09
3.44291e-10
1.402e-09
1.56716e-10
9.68483e-10
4.05014e-11
5.52856e-10
1.68352e-10
4.54689e-11
-2.20203e-10
1.75781e-10
-7.0398e-10
3.85771e-10
-1.21509e-09
6.70867e-10
-1.74053e-09
1.02684e-09
-2.26952e-09
1.44966e-09
-2.79279e-09
1.93535e-09
-3.3026e-09
2.47996e-09
-3.79257e-09
3.07947e-09
-4.25758e-09
3.72978e-09
-4.69359e-09
4.42672e-09
-5.09752e-09
5.16604e-09