/*--------------------------------*- C++ -*----------------------------------*\
  =========                 |
  \\      /  F ield         | OpenFOAM: The Open Source CFD Toolbox
   \\    /   O peration     | Website:  https://openfoam.org
    \\  /    A nd           | Version:  7
     \\/     M anipulation  |
\*---------------------------------------------------------------------------*/
FoamFile
{
    version     2.0;
    format      ascii;
    class       volScalarField;
    location    "0.845";
    object      p;
}
// * * * * * * * * * * * * * * * * * * * * * * * * * * * * * * * * * * * * * //

dimensions      [0 2 -2 0 0 0 0];

internalField   nonuniform List<scalar> 
12359
(
0.0608427
0.0702173
0.0439291
0.103576
0.0645812
0.150881
0.183106
0.16499
0.222156
0.13864
0.203784
0.272445
0.485448
0.110461
0.0986743
0.394353
0.438075
0.0486639
0.0482588
0.0833942
0.119491
0.247807
0.0767098
0.0888727
0.0730139
0.0796514
0.0451862
0.0450384
0.0475457
0.0457121
0.046163
0.0444961
0.0441293
0.0454866
0.0439752
0.0463642
0.0540403
0.0591902
0.0627749
0.0565538
0.0681519
0.0577695
0.05153
0.0508082
0.0468701
0.0471948
0.0466316
0.0459496
0.0478813
0.0453115
0.0448981
0.0447475
0.044401
0.0490849
0.0443152
0.0441564
0.0501761
0.0440993
0.0440825
0.0440246
0.0441996
0.0439574
0.0447986
0.511939
0.0496176
0.12852
0.0531989
0.0446506
0.0548315
0.342866
0.529874
0.0662726
0.0439225
0.0556638
0.0942945
0.0439747
0.0443971
0.0439435
0.0523859
0.312734
0.121937
0.0395132
0.0428406
0.0464524
-0.0639445
0.0215491
0.0394023
0.0410817
-0.0707339
-0.0578579
0.0436835
0.468285
0.04364
0.0442444
0.044992
0.00447875
0.0436235
0.0443472
0.0544123
0.0506288
0.103674
0.0438136
0.0220799
-0.128298
0.0379616
0.0115207
0.0425346
-0.061972
0.0259835
0.0120158
0.0436785
0.0396434
0.106237
0.0871501
0.0453237
0.0396594
0.0888739
0.0385358
-0.0769227
0.0428914
0.0437705
0.172439
0.0408889
0.00446768
0.0383114
0.0392584
0.034918
0.0463278
0.0439326
0.0381071
0.0399214
-0.00276017
-0.00416186
-0.00295838
0.042602
0.00578924
0.0396498
0.00576949
0.0438435
0.0354514
0.0430614
0.0623093
0.013083
0.0425705
0.00661781
0.143166
0.0428465
-0.0484267
0.0378329
0.123821
0.0020368
0.0438276
0.0131697
0.0408138
0.0435789
-0.176419
0.104948
-0.00184861
0.0437314
0.0445802
0.0426021
0.0446305
0.00339311
0.0104238
0.0428194
0.0393247
0.0437747
0.170842
0.0121022
-0.0731671
0.0439474
0.0439681
0.0107512
0.0731139
0.0379332
0.0389313
0.0475246
0.0473248
0.108212
0.0396158
0.110924
0.0435565
0.0439352
0.0392217
0.0532811
0.204951
0.0395172
0.0440726
0.002352
0.0393365
0.0443332
0.00341299
0.00715019
0.0407143
0.0107304
-0.138282
0.0299401
0.0403539
0.0136457
0.0386993
0.147346
0.001862
0.0516092
0.0115266
0.00987243
0.0435319
0.00876341
0.0522789
0.00167614
0.0381533
0.0432336
-6.02709e-05
-8.17352e-05
-0.546814
0.200776
0.0438483
0.0398667
0.0452685
0.0397764
0.0631832
0.0971612
0.0381204
0.00444416
0.470737
0.0380219
0.0432091
0.0638401
0.0266881
0.0426522
0.0411515
0.0409943
0.0428233
0.00731632
0.052033
0.0436284
0.0511419
0.0428823
0.0125568
0.0437674
0.288915
0.0427814
0.0196958
0.0437556
0.0510097
0.0416257
-0.0502307
0.0440627
0.00165678
0.0379295
0.00810499
0.00138199
0.0585679
0.046939
0.041424
0.324083
-0.596634
0.0428999
0.0379127
0.398624
-0.0503225
0.0512579
0.0425989
0.0425097
0.0106761
0.0712736
-0.468981
-0.0707291
0.0413475
0.038156
0.00602442
0.0108975
0.0571082
0.0121469
0.0415593
0.0380469
0.0428076
0.0380754
-0.118704
0.0402923
0.0424114
0.0437994
0.010094
0.0361744
0.0533371
0.0200788
0.0429793
0.044421
0.0438213
0.0438007
0.0445355
0.00345342
0.0390344
-0.469746
0.0425439
0.0425392
0.0224883
0.0382066
0.0969221
0.0448566
0.0449494
0.0437062
-0.107998
0.0415688
0.0437068
0.0401474
0.0445526
0.0375889
0.0392957
0.0397615
0.0382979
0.0486668
0.202341
0.0373549
0.0462705
0.0591898
0.0201029
-0.0577924
0.0368124
0.0550686
0.368668
0.0437895
0.0172534
0.0423544
0.0301447
0.042555
0.0365556
0.222261
0.0165422
0.201881
0.0528825
0.0433648
0.00690474
0.00316806
0.0433581
0.00631602
0.00726231
0.0420007
0.0442866
0.0442835
0.0443451
0.0443367
0.285551
0.0429571
0.101418
0.000448898
0.0520832
0.0117137
0.0165498
0.0231786
0.0309309
0.0157674
0.0314376
0.0539916
0.0180012
0.0193218
0.0887994
0.0631966
0.0120243
0.0613567
0.0611752
0.0142222
0.101118
0.0400133
0.0443791
0.0285597
0.0443413
0.0398472
-0.19534
0.499295
0.0400246
0.0438863
0.0426214
0.0434225
0.0156382
0.0435866
0.0435653
-0.0789983
0.0108676
-0.0524788
0.0419097
0.00878047
0.0361887
0.0440487
0.0137687
0.0282956
0.107116
0.0285151
0.040244
0.0423838
0.0103963
0.0082912
0.0372766
0.29158
0.0135568
0.00398274
0.0469916
0.0439602
0.0438595
0.385997
0.0104065
0.0420279
0.058684
0.0602336
0.0430841
0.0430465
0.0433525
-0.0615072
0.0950579
0.0562089
0.0161682
0.00143284
0.0451422
0.110917
0.046486
-0.000196647
-0.0618787
0.297
0.0510299
0.0885737
0.0258551
0.0197876
0.0326399
0.0282554
0.0457776
0.0325824
0.0136156
0.0435944
-0.0501265
0.0538946
-0.00607177
0.00726329
0.0505903
0.092754
-0.154672
0.0152586
0.0363276
0.002301
0.00696297
0.0167472
0.0388664
0.0432858
0.0495406
0.0425595
-0.00336301
0.0398407
0.0793822
0.0822024
0.0340158
-0.0590673
0.101753
0.0502673
0.0425206
0.386721
0.0420633
0.041784
0.00325331
0.0438911
0.0424032
0.0417354
0.233126
0.201786
0.0460029
0.0411725
0.106568
0.0453349
0.0163656
0.0130818
0.0115614
0.0419804
0.0434068
0.0449662
0.0437209
0.0818324
0.017009
0.0195083
0.0471127
0.0488245
0.000840333
0.0458665
0.0429422
0.037194
0.117536
0.00264393
0.043828
0.0448424
0.010017
0.0282377
0.045777
0.03942
0.108822
0.0159598
0.00622689
0.0185254
0.0419017
0.0431101
-0.00765811
-0.00464805
0.0437135
0.0337747
0.0464729
0.00334503
0.281763
0.0433283
0.0400716
0.0420515
0.0126142
0.0502084
0.0491015
0.0394182
0.0463877
0.0273844
0.0720297
0.0352315
-0.0382857
0.0424635
-0.0435844
0.0411583
-0.130732
0.0156913
-0.00481394
0.0440806
0.0469197
0.0195416
0.0391854
0.0448812
0.0518967
0.05044
0.0506652
0.0678124
0.0119583
0.0114672
0.0428595
0.0388771
0.0167562
-0.00366156
0.0428663
0.0423973
0.0102302
0.0420343
0.222635
-0.158678
-0.103475
0.0428658
0.0376409
0.000791672
0.0493149
0.0382032
0.457022
0.0424735
0.109777
0.0850184
0.0374776
0.0381259
0.0450149
0.0344224
0.000117094
0.0275701
0.0476401
0.0429064
0.0439364
0.0500544
0.0475638
0.0520737
0.012242
0.0445877
0.0424469
0.0183393
-0.0778041
0.0461213
-0.000129005
0.0426582
0.0481513
0.0908621
0.00104003
0.00148325
0.0930246
0.0425104
0.00122536
0.043131
0.044014
0.00164413
0.0338362
0.0419561
0.0338406
0.0434871
0.0424132
0.0387312
0.045978
0.00124869
0.0997932
0.0542771
0.114249
0.0137881
0.0363554
0.109163
0.0590081
-0.00488593
0.011566
0.0601331
0.0511138
0.0440247
0.034752
0.0185986
0.0428492
0.0439023
0.0419611
0.0440723
-0.0181333
0.0341964
0.0314383
0.101292
0.0521446
0.232793
0.00327268
0.00120847
0.0384652
-0.00343683
0.0434678
0.0469852
0.0429919
0.101717
0.111491
0.0427381
0.0277546
0.228296
0.0137522
0.0034397
0.0351458
0.0615779
-0.133122
0.0415784
0.0453938
0.0435088
-0.0123098
0.0452702
0.028398
-0.0587138
0.0424421
0.0732034
0.0538945
0.0379561
0.0463917
0.0430321
0.0443998
0.0497312
0.0444543
0.0443265
0.0488859
0.0048412
0.00852471
0.0379554
0.329838
0.000940698
0.416026
0.0148053
0.0208397
0.0493545
0.0161418
0.0530391
0.00481622
0.31493
0.0950141
0.0522725
0.0404062
0.0489626
0.0475173
0.019128
0.0432828
-0.00589869
0.0444989
0.095889
0.0451236
-0.0162371
0.00622139
0.00974131
0.0528247
0.035551
0.00668321
0.0738268
0.00308271
0.0372536
0.00127482
0.0397432
0.0429228
0.0464862
-0.214621
0.0674611
0.0376602
0.042805
0.0447029
0.0497776
0.0787938
0.00829623
0.0148401
0.0419854
0.0390571
0.0518024
0.0375461
0.0355773
0.000386698
0.0505756
0.0539762
0.00772439
0.0388945
0.036359
0.100219
0.0428603
0.0509017
-0.267981
0.04406
0.00542597
0.0480005
0.0367483
0.085432
0.00832818
0.0474098
0.0166292
0.043835
0.107915
0.0374476
0.00872386
0.0093812
0.109125
0.0436844
0.000783403
-0.00629809
0.0530095
0.0387539
0.0386919
0.0332158
0.233566
0.0483735
0.0438593
0.051198
0.04361
-0.131231
0.03866
0.00759694
0.0287231
0.0145978
0.52114
0.0385053
-0.0602375
0.00886094
-0.0856437
0.0160304
0.0474769
0.0384012
0.0285534
-0.0508686
-0.0390932
0.0413211
0.0409849
0.114963
0.040178
0.207121
0.0176699
0.0663967
0.0390618
0.389004
-0.108104
0.0391716
0.0429312
0.0434761
0.0901434
0.0498601
0.0544886
0.0473177
0.0128566
0.0731982
-0.0214164
0.347894
0.0419909
0.0792049
0.0119966
0.116706
0.0400054
0.110588
0.00619344
0.0913997
0.0466425
0.0428111
0.00776495
0.00516989
0.0160332
0.114358
0.0100241
0.0210203
0.0476139
0.0430972
0.0349832
0.244089
0.0349591
0.00993742
0.0628605
0.0175244
0.0332271
0.0481141
-0.00546568
0.0293673
0.0394946
-0.01008
0.0543591
0.023721
0.194066
0.0429061
0.0291078
0.0462282
0.0518581
0.039425
0.0471489
0.0428536
-0.00150207
0.0369881
0.073372
0.0102491
0.0913324
0.0279453
0.0284757
0.00842958
-0.193745
0.0440433
0.0511197
0.0208961
-0.0737328
0.00549718
0.0435721
0.508933
0.0428232
0.0379598
-0.166249
0.0496191
0.0439727
0.044082
0.0614734
0.0857542
0.0440714
0.0508296
0.104595
0.0468015
0.0490235
0.0477438
0.0415935
0.0870135
-0.0190003
0.049854
0.112535
0.00868902
0.00574242
0.00276316
0.0130668
0.0476976
0.0378946
-0.0440284
0.00393197
0.0690418
0.042801
0.0441015
0.113766
-0.00327626
0.0302838
0.0345157
0.0299746
0.0472939
0.0383931
0.0801505
-0.238083
0.366506
0.0786605
0.0458496
0.0383042
0.0759383
0.352213
0.107062
0.0435893
-0.00138617
-0.014737
-0.254417
0.0327266
-0.164253
0.0440709
0.0476551
0.0441195
0.00352579
0.0708661
-0.168042
0.0369576
-0.0889869
0.0399325
0.0463987
0.00892052
0.049075
-0.000686886
-0.0432897
0.0504683
0.0325251
0.0216387
0.0331454
0.0502711
0.0721691
0.0687262
0.027791
0.0756475
0.0504445
0.0441681
0.0484568
0.0447476
0.100707
0.0194392
-0.00950295
0.000345081
0.0816551
0.0219191
0.0203057
0.0387545
-0.0132594
0.0308634
0.0496911
0.0435253
-0.0020079
0.104907
0.0369543
0.037092
0.0516769
0.020853
0.0991493
0.111628
0.0208556
0.249008
0.0196293
0.0828408
-0.0405373
0.0487409
0.0152486
0.00934464
0.0406713
0.0306854
0.0351998
0.040074
0.0431247
0.0397292
-0.0160359
-0.00340464
0.0388789
-0.146459
0.0963803
0.0446387
0.0478604
6.87235e-05
0.0445262
0.074296
0.0113885
0.0021074
0.0444575
0.0471103
0.0437847
0.0445237
0.114076
-0.139424
0.0448135
0.0538489
0.0428766
-0.149325
0.0189658
0.0124914
0.0425525
0.0446976
0.0476614
0.0221753
0.0814529
0.0253176
0.0427077
0.0476693
0.0443993
0.01848
0.0809753
0.0350473
0.0438936
0.027682
0.0224973
0.0711011
0.0389747
-0.0188395
0.141363
0.0405808
0.0296758
0.0474706
0.0394279
-0.184644
0.0502488
0.0446867
0.00928711
0.101102
0.0781091
-0.141576
0.0717968
0.0317194
0.0247279
0.0515757
0.0358431
0.0314121
0.0508523
0.142991
0.045679
-0.338871
0.0792108
0.176727
0.0358237
-0.00570359
0.0921954
-0.00257563
0.259668
0.00590147
0.0227048
0.0307386
0.0351285
0.0428313
0.0396715
0.0843151
0.000469325
0.0510064
0.0405816
0.00529496
0.0147837
0.00444534
0.0763035
-0.00110718
0.00411759
0.0429582
0.0666479
-0.0507618
0.083736
0.0428028
0.0317806
0.048365
0.0428203
0.0651878
0.0440528
0.0397818
0.242705
0.0880988
-0.0190444
0.0440997
0.0436714
0.0436304
0.0510988
0.0482123
-0.00279831
0.0483499
0.043569
-0.0198234
0.0191454
0.00358469
0.0646584
0.0469098
0.0371055
0.0880194
0.0312432
0.0441322
-0.0443554
0.00902271
0.10716
0.0447713
-0.241248
0.0934102
0.0467953
0.00213721
0.0353717
-0.0174583
0.0323214
-0.000362329
0.0899941
0.0458794
0.0459624
0.0190383
0.0361459
0.0498826
-0.00894512
0.0497943
0.0498929
0.0929361
0.0402073
0.0477067
0.0321146
0.00793842
0.046659
0.0498447
0.0480682
0.0427023
0.0919914
-0.0435488
0.0233896
0.0511412
0.0494293
0.0369469
0.0432785
-0.196578
0.0752651
0.0438162
0.0670645
0.0370334
0.0955203
0.149771
0.000670002
0.0500453
0.00323498
-0.00396994
0.0425325
0.0369168
-0.00268906
0.0379526
0.0438772
0.0681889
0.0244778
0.0489164
0.0439097
0.0378586
0.08073
0.0445783
0.0286112
0.0440622
0.0350057
0.0628076
0.127677
0.0433879
-0.203988
0.0761165
0.0130345
-0.124655
0.0884923
0.0285721
-0.032484
0.0516272
0.137373
0.204155
0.0493672
0.0399446
0.0398285
0.0465639
0.0483586
0.00549865
-0.082057
-0.153316
0.0072309
0.144827
-0.00685861
0.00863195
-0.055479
0.0434067
0.0468237
0.0443033
0.0220591
0.0435787
0.00677787
0.0328504
-0.00775964
0.0429421
0.0467967
0.0410205
-0.156959
0.115032
0.0742665
0.0566799
0.117535
0.0400582
0.0447082
-0.0191779
0.0326744
-0.0151537
0.00605043
0.0191065
0.00244428
0.0129509
0.0519533
0.0428814
0.0433652
-0.128507
0.0381669
0.0357452
0.0499316
0.00203969
0.0158037
0.0434397
0.017234
-0.0165124
-0.000129232
0.0903265
0.048982
0.0437962
0.00334653
0.0513411
0.0434861
-0.00290774
0.00552199
0.0477893
0.134283
0.000709812
0.0435767
0.0439372
0.0426834
0.102903
-0.141247
0.0376609
0.00820255
0.0470371
0.0481049
0.00889875
0.0437765
0.176357
0.0128446
-0.051043
0.150468
0.0272462
0.0433448
0.0432282
0.029884
0.0514935
0.0430729
-0.183545
0.00358022
0.0406461
0.215201
0.0975494
0.0371551
0.042864
0.0440569
0.0491383
-0.0781807
0.157928
0.0301956
0.0733815
0.0621616
0.00441157
-0.0817413
0.0208384
0.0495641
0.0487147
0.0141898
0.0363884
0.0419959
0.0463771
0.0020187
0.048204
0.0294695
0.0502506
0.0776588
-0.0132029
0.0417612
0.0464888
-0.00548929
0.00221521
0.0537574
0.046024
0.0725573
-0.000700825
0.0358653
0.0144299
0.0698433
0.0141982
-0.0336419
0.0485758
0.155687
0.042974
0.101182
-0.00208578
0.0437749
0.0433604
0.371669
0.0442509
0.0514578
0.0233747
0.0494232
0.0495831
0.0528066
0.0441132
0.0436146
0.000196382
-0.0283478
0.0413172
0.335138
0.0335768
0.0461166
0.231308
0.0952387
0.0512501
0.040804
0.0458657
0.083996
-0.277
0.0492986
0.0411951
0.0428698
0.0465692
0.0593739
0.0139739
0.048784
0.0597366
0.0473359
-0.157407
-0.00840716
0.00623268
0.105801
0.0333318
0.0462123
0.00296643
-0.122419
0.0485547
0.04311
0.0461279
0.0432122
0.049354
0.0425615
-0.00410876
0.0404817
0.0379299
0.31713
-0.0012491
-0.00636434
0.00267026
0.0491963
0.000246341
0.0827418
-0.093702
0.0424514
0.00856898
0.04376
0.234606
0.042943
0.0440703
0.0270671
0.0429183
0.0230219
0.0542248
0.0494857
0.042348
-0.0964893
0.0837483
0.00905821
0.0464675
0.0324394
-0.0541028
-0.00923567
0.0748319
0.0707101
0.0447714
0.0505237
0.0394317
0.0463851
0.041328
0.0463929
0.0857979
0.0712612
0.00516736
-0.108755
0.0204618
-0.0107407
0.02947
-0.113669
0.0424808
-0.0319101
0.046217
-0.0147688
-0.00780719
0.0222654
0.0440046
0.0263053
0.00864015
0.0286425
-0.00551677
0.230322
-0.106537
0.0461995
-0.00484836
0.0432741
-0.00694458
0.0873603
0.00113845
0.0390304
0.0525772
0.00818246
0.0471517
0.0328554
0.0444658
0.0417556
0.0430466
0.0504569
0.00507722
0.00101683
0.0435041
0.079743
-0.0874687
0.481817
0.0426711
0.0691199
0.0223414
0.190686
0.0283103
-0.185363
-0.0385198
0.0421205
0.0216112
0.062613
0.173253
0.0453048
0.0633497
0.0746004
0.0410272
-0.091376
-0.00582144
0.0460672
0.021772
-0.0351333
0.0722804
-0.0919493
0.0339878
0.0760784
0.0494053
0.0426428
0.0509651
0.0401631
-0.0774533
-0.000474999
-0.0680257
0.0445912
-0.0860173
0.02677
0.00115889
0.106699
0.022011
0.0246463
-0.0579656
0.033827
0.0335531
0.00407918
0.0658675
0.0228746
0.00667478
0.0652939
-0.0937493
0.0813078
0.0312924
0.0848066
0.0444058
0.109368
-0.000489174
0.0970074
0.0485866
-0.0382206
0.0434854
0.0303691
0.0068184
-0.00114583
0.0524563
0.0046099
0.0417532
0.504828
0.0501542
0.0042432
0.0868995
-0.000283769
0.00562581
0.0443973
0.028234
0.043157
0.46144
0.0435181
0.0433268
0.042687
-0.016135
0.0380129
0.040604
-0.0101961
0.0246747
0.0597385
0.0384662
0.0430979
0.10316
0.041275
0.0998231
0.00509011
0.0813549
0.0354881
0.0371794
0.0228591
-0.0156963
0.0072271
0.0391705
0.533078
0.0434917
0.0431833
0.0506986
-0.139848
0.0485652
0.0273997
0.0754749
0.0481676
0.0369264
0.00120407
-0.0251421
0.0301204
-0.0488073
0.0491118
0.0404204
0.012137
0.0166997
-0.000681422
0.0461307
0.0219636
0.0673716
0.190804
0.0333657
0.0434198
0.041539
0.174426
0.0438939
0.0439055
-0.0386719
0.0289419
-0.0448675
0.0369407
0.0429482
0.185172
-0.0160343
0.0378413
0.0495136
0.0412187
-0.112616
0.0439097
0.0305105
-0.029603
0.0439071
0.043085
0.00725715
0.0426347
0.0439167
0.0112176
0.0473205
0.0432366
0.0185336
0.0427876
-0.0157437
0.0429337
0.0547161
0.115779
0.00651506
0.0439223
0.00321468
-0.177262
0.0368323
0.0697849
0.0404086
0.0302974
0.0415524
-0.0202209
-0.00763407
0.0408422
0.0430748
0.12771
0.0261772
0.0132523
0.00918175
0.126363
0.0426716
0.00407138
0.0430542
-0.0216596
-0.00851495
-0.00582031
0.00627997
0.152289
-0.0885877
0.00433467
0.00853309
0.0442191
0.0467054
-0.000777557
0.131654
0.094565
0.0298341
-0.0771549
0.042384
-0.0665597
0.199491
0.0432377
-0.00950851
-0.014887
0.0763145
0.00638267
0.00479639
0.068141
0.0433079
-0.0142812
-0.0685208
0.258261
0.0493343
0.00171234
-0.033089
0.138827
0.0456498
0.0430643
0.00491915
-0.0557352
0.0366376
0.0653009
0.0433576
0.0426703
0.0532657
0.0489926
0.0223296
0.0498404
0.0430136
-0.0180204
0.0321561
-0.0281107
0.0135072
0.0434143
0.0431104
0.138043
0.0488217
0.0757219
0.0572961
-0.0472479
0.0765402
0.0424841
-0.0252289
0.0534572
0.0431751
0.024509
0.034903
0.0365836
0.0903982
0.0225232
-0.156555
0.037437
0.0431256
-0.0294679
0.042634
-0.00888933
0.0277653
-0.0298267
-0.0510527
0.0921134
-0.0336883
0.0434641
-0.0108119
0.0478151
0.0675926
-0.0254651
0.0174938
-0.0255037
-0.066823
0.168695
-0.0135218
0.0594714
0.042486
0.0430264
0.0426071
-0.0335722
0.135422
0.0425399
-0.0172747
-0.0212934
0.0124131
0.000710883
0.0245346
0.105393
-0.0303915
0.0496652
0.0100688
0.0223209
0.0437501
0.043773
0.0454426
0.0491601
0.00898498
0.043318
0.0469496
0.0504157
0.0692735
0.000442034
0.0433393
-0.0212508
0.0429346
0.00142023
0.0110288
0.0458773
0.0378504
-0.000563869
-0.0222521
0.0328877
0.0737667
0.0488373
0.0236464
0.0288496
0.0431257
0.0478369
0.0485791
0.0459584
0.0431474
0.0648874
0.0431284
0.121258
0.0106207
-0.0957281
0.0432244
0.0547582
0.0433617
0.0439416
0.119063
0.0540332
0.0427589
0.320741
0.130278
0.0343189
0.0600521
0.0353307
0.116388
0.016158
0.00650043
0.0523621
0.0503079
0.0430662
0.0454006
-0.0136001
0.0427583
0.045512
0.118466
0.0461726
0.0479301
0.024245
0.0433009
-0.0378557
0.0432666
0.0454399
0.00618705
0.00709848
-0.0716744
0.10682
0.065928
0.0457289
0.00528349
0.045658
0.0224779
0.00347413
0.0501904
-0.0305191
0.0439831
0.0231969
0.0654378
0.048749
0.0977259
0.0431725
0.0501384
0.0430337
0.0259668
0.0426339
0.0500444
0.0213586
0.0406491
0.0659333
0.0241869
0.0431079
0.0239245
0.00980336
0.0501007
0.00661956
-0.0161075
0.0430726
0.0276374
0.105305
0.000972363
0.0513994
0.0404288
0.0405913
0.0221892
0.0520424
0.147039
0.0496092
0.0436431
0.0436518
-0.0215699
-0.0110518
-0.0237978
0.282405
0.0971291
0.0470293
0.0229904
0.00841799
0.044033
-0.0594581
0.0483204
0.0994735
-0.000512654
0.0455173
0.14013
-0.0103737
-0.0182678
0.0202983
0.0261817
0.0439273
0.0425166
0.0573246
0.0430977
0.0430786
0.13297
0.0463408
0.0592341
0.0425457
0.034445
0.0415951
0.371387
0.0363907
0.0383791
-0.0110928
0.0997317
0.0900893
0.0309215
0.104554
0.0438113
0.0428496
0.00324155
0.0691108
0.119829
0.0449976
-0.000641876
0.0372041
0.0470328
0.0469411
0.0433706
0.0606626
0.0364902
0.0436878
0.0269372
0.254696
0.0438283
0.00949313
0.0285432
0.0432612
0.0580731
0.0464238
0.0242058
0.0435099
0.0432748
0.0123241
0.0260754
0.0867169
0.138131
-0.236911
0.0499633
0.0597025
-0.0390878
0.0298705
0.0463412
0.03709
-0.000996438
0.0431713
0.0475321
0.0430623
0.0268896
0.0609055
0.0158257
0.0431369
0.05607
0.0307126
0.0488621
0.114794
0.0400899
0.0428029
0.0431389
0.0264308
0.0199806
0.307829
0.0551994
0.0777573
0.00433188
0.00287222
0.0429964
0.0946806
0.0431532
0.0431308
0.0437626
-0.00518651
0.0492111
0.0315092
0.00532742
0.0172634
0.00424297
0.026873
0.0606389
0.10909
0.0415201
0.00941131
0.0872007
0.0294837
0.123757
0.0479065
-0.160244
0.139532
0.13172
0.0424513
-0.118532
0.00388536
0.00581176
0.132887
-0.000354765
0.0541764
0.050655
0.0346044
0.0328237
0.0298183
0.207369
0.0703336
0.0482398
0.0119165
0.0487597
0.0324399
0.0210262
0.0893439
0.032211
0.0635479
0.0796192
0.00453602
0.091868
0.0285436
0.0440932
0.0548436
0.0435693
0.0414119
0.0415668
0.0487212
0.0165398
-0.0489723
0.043104
0.161849
0.042365
0.0363983
0.00735379
0.0270208
0.0302669
0.0413132
0.00565186
0.00978538
0.250129
0.0431702
0.00732736
0.0329171
0.00953288
0.0437727
0.0433741
0.146634
0.0209377
0.0292291
-0.129093
0.02361
0.036076
0.131616
0.0123369
0.116441
0.0499674
0.0155933
0.0334694
0.0406903
-0.0288125
0.00559903
0.0170518
0.0298961
0.0426152
0.00443945
0.00407814
-0.00101264
0.0354122
0.0336608
0.411891
-0.0407758
0.042293
-0.0142694
0.0176263
-0.111248
0.0430357
0.0286351
0.0292982
0.0429977
0.00229441
0.0245799
0.0480783
-0.000177628
-0.0239202
-0.00163137
0.0506449
0.0207146
0.043823
0.0394671
-0.0271061
0.0783008
0.0255505
0.0052584
0.143053
0.0217034
0.0173809
0.0186818
0.00553746
-0.0286759
0.041424
0.0189529
0.0138423
0.088747
0.275372
0.0109699
0.0316864
0.0185728
0.0430279
0.088473
0.028158
0.00712517
0.0429516
0.032099
0.0049749
0.0115793
0.144894
0.00857709
0.0265284
0.0265064
0.0489377
0.00170764
0.0235503
0.0703895
0.0547178
0.0507989
0.00848826
0.032744
0.0378837
0.0345674
0.0433812
0.00466607
0.0582996
0.0264989
-0.00304238
-0.0472776
0.0382853
0.0249638
0.0143862
0.0211828
0.0431646
0.0957186
0.095347
0.0684389
0.0437553
0.22204
0.00526576
0.0496527
0.0856775
0.0425415
0.0523395
0.0295563
0.0235698
0.0503174
-0.106262
0.0447853
0.0545378
0.0386274
-0.0136163
-0.0322189
-0.000459609
0.0585129
0.00731644
0.043795
0.0263224
0.0704989
0.0448168
0.145625
0.01496
0.0247421
0.00650578
0.061931
0.0193005
0.0347965
0.0427647
0.0428616
0.0433671
0.0587593
0.118953
0.0137986
0.142944
0.0793066
0.0851676
0.0455037
0.0651958
0.00547237
0.0432716
-0.0237488
-0.0192742
0.0468048
0.0431118
0.0358465
0.0411246
0.0428609
0.0603194
0.0309485
0.127573
0.0140275
0.0321997
0.0847619
-0.0115642
0.00426005
0.082419
0.0110597
0.0210942
0.0667536
0.0426315
0.0577896
0.0247795
0.117837
0.124965
0.217375
0.0429113
0.12325
0.0296302
0.0287242
0.0999046
0.103244
0.0948833
-0.0254883
0.0184891
0.0635622
0.0186253
0.0354931
0.0424035
0.0871815
0.04252
0.0145107
-0.030054
0.0545506
-0.0272321
0.0421575
0.0794489
0.0496898
0.027576
0.0987452
0.159969
0.0185758
0.0390883
0.0148262
0.0304379
0.0679995
0.000248759
0.0785515
-0.00303509
0.0429279
0.0188247
-0.148937
0.09493
0.0323837
-0.0421714
0.00813485
0.0378231
0.0418498
0.099436
0.0894306
0.0306643
0.0534007
0.0450602
0.00460531
0.0394375
0.00245994
0.0767166
0.0325255
0.138008
0.0429169
0.0402771
0.000870097
0.0338901
0.0343949
0.0615745
0.0516771
0.0267587
0.164304
0.103606
0.0427077
0.00378243
0.0392161
0.0426829
0.129663
0.042712
0.019256
0.0219615
0.0424748
0.042673
0.047372
0.00620122
0.056772
0.0936241
0.0253768
0.126487
0.0293136
0.0302608
0.033975
0.0745696
0.0431934
0.0358235
0.0335848
0.0237895
-0.021219
0.00748768
0.0618569
0.0412795
0.0509405
0.0285806
0.038568
0.0565348
0.0182529
0.10225
0.0292044
0.0427146
0.00697824
0.0829124
0.00601937
0.0429691
0.131315
-0.0251635
0.0405844
0.0943212
0.00447557
0.0478561
0.0925915
0.00172673
0.0854857
0.109626
0.00257081
0.0445427
0.0748352
0.0721698
0.0118368
0.0400821
0.0282481
0.0428796
0.0432569
0.0426705
0.0115809
0.0151149
0.0181012
0.0785839
-0.0620887
0.165501
-0.0593962
0.0250098
0.0388667
-0.0387213
0.0463739
-0.103666
0.0300466
0.0204502
0.0161824
0.0257622
0.0608366
0.0366261
0.0294957
0.0490501
0.0429278
0.0735613
-0.0362632
0.0118033
0.00517028
0.0149759
0.0473949
0.0250865
0.0143865
0.0493795
0.021548
0.0346245
0.114752
0.0819314
0.0768775
0.0888485
-0.00176886
-0.000202137
0.00467354
0.0204789
-0.00369353
0.0125981
0.0542833
0.0399653
0.126775
0.0695709
0.00522591
0.0434396
0.0918924
0.12339
0.0698662
0.0754715
0.0520581
0.0146865
0.110378
0.0257512
0.0212535
0.0308294
0.0299193
0.0421059
0.0254607
0.0267481
0.0488993
0.0179156
0.0270056
0.0391592
0.100813
0.0394308
0.0370995
0.0715972
0.0511434
0.0423789
0.0457962
0.00164198
0.0140547
0.0439361
0.0679076
-0.0500552
0.0050881
0.0510641
0.0170525
-0.0188964
-0.0403586
-0.00387546
0.0304623
0.0315498
0.0498929
0.0301391
0.0230319
-0.000349437
-0.00135625
0.000864905
0.000572988
0.031431
0.0418066
0.0414789
0.125708
0.0575424
0.0313266
0.0345175
-0.000387208
0.0401542
0.0244269
0.144905
0.0827427
0.00932086
0.0489281
0.0143043
0.0425049
0.0067506
0.000560265
0.0245675
0.0426436
0.0542823
0.162819
0.037012
0.0843378
-0.0164153
0.043029
0.0313634
0.08992
0.0972133
0.0660472
0.0442438
0.0401574
0.0412078
0.043679
0.0427429
0.0374077
0.00583463
0.0425944
0.0518191
0.0484607
-0.351697
0.115652
0.0412918
0.042904
0.0089818
0.0146813
0.0209769
0.0727179
0.0153407
0.0419751
0.0375364
0.00355531
0.0435918
0.011781
0.0888505
0.0668604
0.0411169
0.0104698
0.0433045
0.0358032
0.0339218
0.0369509
-0.00380291
0.0553744
0.0316512
0.0300821
0.106265
0.0771059
0.042471
0.0430666
0.0326672
0.0290759
0.0120541
0.0170491
0.0363065
0.00561774
0.0758278
0.043726
0.0340594
0.00479059
0.0358239
0.0806303
0.059065
0.0464635
0.146431
0.0197483
0.121988
0.135694
0.024901
-0.00246914
-2.04039e-05
0.121318
0.0357623
0.00418415
0.0699851
0.0327485
0.0179467
0.0853446
0.067645
0.0459812
0.00204902
0.0286235
0.0250517
0.0369799
0.00462997
0.0450821
0.0763845
0.0448698
0.0531968
0.0815884
0.0496985
0.0374668
0.102566
0.00615253
0.086593
0.0256909
0.0679077
0.00700362
0.0573062
0.0101703
0.044495
0.0274311
0.00807092
0.0631352
0.0244351
0.0444479
0.0382864
0.0131898
0.0423922
0.0316201
0.0520274
0.033026
0.0199278
-0.00187145
0.0909607
0.100356
0.096694
0.0373165
0.036318
0.0320553
0.0167797
0.0257742
0.0434125
0.0494503
0.0657912
0.0216923
0.0544356
0.00345696
0.028076
0.0526981
0.0298607
0.0292319
0.0402029
0.0268577
0.0339527
0.130071
0.257931
0.0201954
0.0213694
0.0253108
0.0291771
0.0347195
0.0329264
0.0307857
0.0204564
0.0113483
0.0414794
0.0428848
0.0417884
0.00503291
0.0430418
0.0268017
0.0378812
0.0279994
0.0552479
0.0307575
0.118765
-0.00824851
0.0425574
0.032085
0.0865884
0.0378227
0.0564115
0.0848632
0.0482685
0.0428859
0.0269366
0.00343332
0.082368
0.00200961
0.111531
0.0794294
0.00284838
0.0584488
0.0641518
0.00844819
0.0389791
0.0431032
0.044416
0.0329327
0.0423507
0.0290956
-0.0352665
0.0414011
0.0756279
0.0392549
0.0575988
0.0583835
0.156853
0.049626
0.0381481
0.00430848
0.0117267
0.0829021
0.0284237
0.0793109
0.044347
0.0342376
0.0606223
0.0418709
0.0297698
0.0437319
0.0443874
0.0284948
0.0423285
0.0312974
0.0575519
0.0767788
0.0123326
0.0420468
0.00551724
1.31513e-05
0.0632427
0.0563482
0.045804
0.0638804
0.128002
0.0428689
0.036922
0.0421592
0.0562175
0.0350121
0.0321277
0.0352622
0.069391
0.0792609
0.029324
0.0752166
0.0857939
0.0556807
0.104332
0.05334
0.0742722
0.0250763
0.0384507
0.0184973
0.0438309
0.060451
0.0447575
0.0791021
0.00150952
0.0505885
-0.0131286
0.0393507
0.0242066
0.113435
0.00657971
0.0423371
0.0424971
0.00277845
0.103289
0.0244452
0.0267814
0.0134178
0.0408655
0.0770936
0.0341551
0.0410926
0.032701
0.0072896
0.0378786
0.0365288
0.393003
0.0353029
0.044805
0.0545838
0.0600223
0.0387985
0.028747
0.042897
0.0977412
0.0394422
0.0428767
0.0114141
0.0333804
0.0260603
0.0374383
0.0585634
0.0375594
0.0402899
0.0397194
0.0306852
0.0758962
0.042921
0.0352578
0.053387
0.0414515
0.0357044
0.0497865
0.0504171
0.0550016
0.0554332
0.0430122
0.0390814
0.0459453
0.0262506
-0.00166998
-0.000794672
0.141952
0.0701539
-0.0115683
0.0278448
0.042524
0.0460818
0.0536429
0.0695233
0.0433987
0.024966
0.0719438
0.0525955
0.0234301
-0.0106157
0.0190728
0.042341
0.0339119
0.0427135
0.0898124
0.228431
0.0354928
0.0526666
0.0396607
0.00521296
0.0425079
0.067957
0.0250123
0.0406841
0.0435729
0.0303624
0.0921802
0.0352725
0.0520228
0.023149
0.0382832
0.0392823
0.0834451
0.0564638
0.0362704
0.0454288
0.0351724
0.0493593
0.0344258
0.0432996
0.0358101
0.0425343
0.0495533
0.00957
0.0639613
0.01392
0.0695262
0.0692587
0.0476929
0.0349794
0.0322039
0.0728593
0.0875307
0.00863969
0.0373351
0.0530079
0.0534864
0.0363834
0.0414837
0.0394861
0.0340226
0.0254762
0.0254037
0.0393276
0.0127582
0.0354355
0.0747786
0.0369087
0.0388826
0.0361146
0.0214324
0.0799771
0.0491173
-0.000693342
0.0352635
0.0368107
0.00814525
0.0462224
0.000561526
0.0456317
0.0371753
0.0422767
0.0416738
0.0440087
0.0382077
0.003693
0.0428906
0.0185356
0.0676052
0.0457418
0.05339
0.0300189
0.0919015
0.0559004
0.0434123
0.0317665
-0.0666223
0.0430852
0.00452911
-0.0822164
0.0611763
0.0809521
0.0472605
0.0373322
0.0270729
0.0670324
0.0540885
0.0435269
0.0885234
0.00927983
0.077606
0.0429393
0.0421654
0.039164
0.0397729
0.0403239
0.0614911
0.0727171
0.041909
-0.0015257
0.0400927
0.047808
0.0377649
0.0294968
0.000379606
0.0423049
0.0373446
0.0212532
0.0369533
0.0420118
0.0457247
0.123518
0.0693957
0.0434968
0.0581287
0.0486347
0.0373287
0.0714598
0.0548246
0.039577
0.0584405
0.0333956
0.0580948
0.0811089
-0.000590088
0.0211679
0.0436062
0.0658236
0.0419918
0.0458826
0.0446382
0.038095
0.000902601
0.000241376
0.0539494
0.0305836
0.0322604
0.0251456
0.0421857
0.0414208
0.0435133
0.0671334
0.0317534
0.0429841
0.0372153
0.049276
0.0204157
0.00662171
0.043045
0.0424366
0.0329147
0.043434
0.0416406
0.0384655
0.0403779
0.0358444
0.0612348
0.0571179
0.031027
0.0409625
0.047674
0.0541463
0.0374158
0.0429099
0.0387454
0.0278631
0.000674065
0.00456619
0.0322982
0.118997
0.0377555
-0.0615057
0.084307
0.0372858
0.0362621
0.0485017
0.0434181
0.0430549
0.0499955
0.051966
0.0370561
0.0449998
0.0419895
0.0924801
0.0041829
0.0304967
0.0431982
0.0498099
0.0578691
0.0656997
0.0293873
0.0456895
0.0428183
0.0412058
0.0381241
0.0262175
0.024053
0.00354602
0.0571679
0.0414271
0.0355627
0.0513252
0.0482328
0.0473129
0.0400756
0.0532514
0.0430028
0.0134574
-0.00235974
0.0419298
0.0617587
0.0368345
0.039943
0.0412473
0.0445816
-0.0449103
0.0586827
-0.000745046
0.0390031
0.00649106
0.0470312
0.0654911
0.123796
0.050186
0.0432475
0.0273766
0.0194822
0.106689
0.0366234
0.0621092
0.0402175
0.042475
0.0607162
0.0404697
0.118276
0.000228316
0.0745715
0.0467665
0.0424838
0.042969
0.042134
-0.0291539
0.0348433
0.0423428
0.0507661
0.0410154
0.0425259