/*--------------------------------*- C++ -*----------------------------------*\
  =========                 |
  \\      /  F ield         | OpenFOAM: The Open Source CFD Toolbox
   \\    /   O peration     | Website:  https://openfoam.org
    \\  /    A nd           | Version:  7
     \\/     M anipulation  |
\*---------------------------------------------------------------------------*/
FoamFile
{
    version     2.0;
    format      ascii;
    class       volScalarField;
    location    "0.043";
    object      T;
}
// * * * * * * * * * * * * * * * * * * * * * * * * * * * * * * * * * * * * * //

dimensions      [0 2 -2 0 0 0 0];

internalField   nonuniform List<scalar> 
12359
(
2.24835e-109
1.19269e-88
-8.92248e-304
9.85242e-60
2.24206e-100
7.88322e-41
3.03074e-34
-2.06169e-37
-4.62027e-27
-2.29008e-44
1.04803e-31
-2.63847e-20
-2.88347e-05
4.83216e-56
-5.5625e-63
-5.29131e-12
2.77542e-08
-3.56627e-166
2.21009e-170
6.04954e-74
-6.55191e-52
1.88085e-23
5.74471e-81
-3.41755e-70
-9.26176e-85
-2.12332e-77
3.60449e-220
-2.80943e-225
1.42232e-179
-1.91172e-207
-7.06319e-200
-4.21404e-245
4.88355e-270
1.53411e-211
7.44125e-287
-2.64343e-196
6.63515e-134
7.36547e-115
-4.76307e-105
-1.11922e-122
-9.18544e-93
2.4032e-119
-1.14983e-145
6.12126e-150
-2.52215e-187
2.13961e-183
1.43138e-191
1.54034e-203
-9.56757e-175
-9.01604e-216
-1.26832e-228
-1.14236e-236
2.93086e-249
4.24052e-162
5.18537e-258
-5.39765e-266
-7.17485e-156
-3.65544e-274
2.41719e-278
-1.30869e-282
3.6049e-262
2.48071e-295
1.51937e-232
0.0188275
-3.36779e-158
4.36251e-48
-5.24554e-138
7.70624e-241
-5.15304e-130
-7.39706e-15
7.47003
-8.24474e-97
4.93464e-308
3.28941e-126
2.08258e-66
-5.39663e-291
-2.70173e-253
-1.23529e-300
7.05672e-142
2.58406e-17
-2.03774e-49
-3.07465e-216
0
-3.25478e-136
1.46115e-11
5.65666e-169
1.56017e-213
7.59558e-294
4.71192e-09
1.49997e-12
0
0.0153288
0
-3.231e-175
-1.20436e-143
2.50799e-149
3.05354e-182
-6.86631e-177
-2.02454e-96
1.85299e-115
3.97197e-45
0
-4.68707e-169
0.00816657
3.00588e-229
-5.45606e-86
0
2.66277e-12
2.18872e-184
-4.08254e-88
1.32935e-185
3.98821e-215
-1.15726e-57
1.05958e-52
-6.93297e-144
1.43673e-266
3.36797e-52
3.44365e-216
4.21177e-07
0
-6.50719e-189
1.81494e-39
-7.85406e-294
7.95839e-118
-2.81024e-214
-6.92188e-252
5.16031e-40
-2.32543e-134
-2.37291e-300
-7.24262e-217
5.02926e-266
2.22006e-36
2.08797e-30
6.88546e-32
0
4.81404e-117
1.61428e-264
-3.68796e-119
0
6.53673e-42
0
-1.13888e-109
1.40308e-107
0
7.67892e-57
9.39943e-48
0
1.07664e-13
-7.48598e-228
-4.79055e-47
-1.70019e-148
0
8.60972e-106
-8.08197e-289
0
39.2927
1.16881e-46
1.46114e-37
-6.01569e-184
2.00747e-264
-1.70577e-73
2.55841e-262
2.30286e-118
1.15964e-109
0
-2.17086e-254
1.57886e-75
1.68887e-38
-1.24487e-111
5.15651e-10
9.84103e-296
7.3483e-294
6.73034e-116
-1.48882e-87
-2.73671e-233
3.3042e-43
5.77732e-189
1.40886e-191
-3.91323e-57
4.59475e-45
-2.82764e-58
0
-3.11909e-302
1.5705e-215
-7.30134e-100
-6.46755e-31
4.13344e-182
-3.70879e-149
4.10341e-144
3.0143e-182
-4.29211e-147
5.10063e-152
1.73757e-152
5.38033e-287
-4.79263e-89
0.0628238
1.19552e-135
-8.87949e-180
-1.15708e-104
2.49191e-214
-1.24252e-46
1.43487e-145
5.56684e-113
7.19125e-90
1.01564e-62
0
-3.45012e-60
1.09443e-110
1.93659e-108
3.34302e-198
0
-2.11095e-65
-2.19498e-64
69.8208
-5.17372e-30
0
2.90463e-180
-3.73842e-146
5.94773e-181
3.7045e-107
-6.29692e-52
4.96702e-201
8.35019e-120
0.0164912
-7.50448e-218
0
4.99568e-105
5.15922e-186
-4.17446e-46
6.20656e-175
5.37669e-175
0
2.53495e-56
6.87483e-108
-3.58294e-151
1.67627e-109
0
1.11485e-101
-3.34763e-149
-2.0241e-14
0
-3.7752e-166
-4.85877e-161
7.56769e-24
-2.39021e-70
3.31292e-14
1.34489e-281
3.07224e-110
8.72261e-241
-1.05625e-153
-3.43513e-82
-1.96815e-118
-9.75333e-197
-4.24662e-173
0.00484739
50.3461
0
1.20957e-206
0.00457513
34.8607
-4.67678e-113
-1.11342e-71
-5.67458e-50
-6.86102e-90
4.3198e-89
7.24771
9.9359e-08
2.29252e-68
3.13541e-209
4.44398e-116
5.6047e-114
2.35884e-94
-1.50828e-109
3.83469e-175
2.79839e-202
0
5.9786e-205
0.000190572
2.51674e-69
0
0
-8.28745e-90
7.06699e-215
-6.31616e-141
-9.68023e-169
0
3.56574e-50
0
0
1.17891e-248
6.81482e-121
2.27995e-220
8.53632
0
0
3.49709e-166
-5.60173e-243
1.11154e-53
-7.98012e-151
-1.8284e-234
0
4.33405e-05
-7.79304e-48
0
-1.81144e-178
-2.25524e-153
1.56751e-238
1.95111e-264
2.15701e-266
2.61313e-237
6.64764e-178
-9.71733e-32
4.15865e-240
-2.30642e-200
-4.05213e-116
6.27298e-86
1.56478e-09
3.49103e-240
8.47966e-98
3.15762e-15
0
6.36657e-116
0
3.28413e-133
0
9.01417e-238
-3.04687e-30
1.53426e-109
-8.6123e-33
-6.0589e-143
3.37143e-163
1.39727e-153
2.67066e-148
-3.73068e-161
3.85066e-155
4.15916e-154
9.88131e-324
1.59317e-272
2.7666e-274
-1.18429e-269
2.90938e-270
5.54775e-10
0
4.60816e-50
4.49338e-124
-2.5643e-102
-2.81344e-105
7.55418e-108
-1.12142e-167
-3.85016e-137
1.82746e-110
6.56433e-139
2.03269e-99
6.32944e-81
4.00348e-78
-6.76146e-59
-1.99377e-107
2.85752e-39
-1.19103e-111
2.64327e-111
-3.02351e-104
1.73518e-42
2.87894e-217
-5.38948e-258
8.99813e-135
3.02135e-258
3.05219e-215
32.1903
0.478107
1.46778e-216
0
0
0
2.02854e-112
0
0
5.28773e-09
-1.93333e-110
5.1026e-12
1.82206e-211
2.48459e-98
2.05652e-217
-8.39352e-159
3.05619e-76
1.06558e-136
1.12217e-59
5.45119e-139
1.50664e-219
0
-1.52853e-112
-1.95291e-99
-4.67436e-224
9.18349e-21
8.19511e-78
2.76471e-149
4.25924e-90
-2.02305e-77
0
0.178942
3.36779e-37
1.99901e-209
5.6273e-25
2.02193e-113
0
0
0
1.36172e-11
3.03285e-44
9.7894e-96
6.98297e-121
-6.35359e-150
-2.21213e-140
-1.9378e-60
1.26532e-91
-2.80403e-53
6.83179e-09
1.03722e-18
9.83971e-102
-1.04694e-61
3.05492e-182
1.83094e-73
2.64889e-142
2.33798e-132
1.72303e-212
1.79794e-144
1.33564e-111
0
20.7457
-7.85513e-138
1.15669e-13
-2.40287e-105
-9.23952e-155
1.01221e-57
0.00110091
9.72358e-107
-2.003e-127
1.14352e-150
-2.65222e-103
1.99421e-73
2.54294e-210
0
-2.14728e-56
0
3.24171e-38
-5.14737e-263
-7.53841e-80
-3.3414e-66
1.86607e-197
6.58207e-13
-8.86734e-49
9.60963e-117
1.12012e-199
-2.08807e-14
0
8.90902e-218
-3.68817e-50
3.86359e-321
-2.10972e-200
1.43477e-219
3.50729e-16
1.06978
-1.21938e-138
1.10062e-301
-7.5674e-62
-3.712e-79
8.61948e-119
4.2773e-102
-9.60562e-113
1.65018e-321
0
8.40567e-86
0
-1.66902e-68
7.39692e-118
6.52983e-75
-1.53501e-194
-2.88388e-58
-5.88603e-50
1.68947e-211
2.2019e-145
8.1936e-222
-7.51322e-56
5.57296e-52
0
1.77738e-83
-9.29826e-118
4.50795e-182
-1.71333e-81
-7.43496e-262
1.26964e-42
-3.03418e-162
3.04789e-112
5.64661e-76
3.95712e-319
-3.19979e-145
2.87218e-36
3.62155e-28
0
-4.67388e-125
4.37602e-25
7.395e-139
0.000692533
0
-1.72553e-265
0
-2.41449e-103
-9.40034e-115
-1.15251e-127
-2.44e-259
-9.6379e-88
1.978e-130
-1.08891e-93
-1.24835e-207
1.41628e-17
0
3.60906e-16
9.53116e-297
66.5965
-1.70759e-160
-1.28034e-35
-4.80942e-279
6.82404e-196
1.74457e-83
5.26259e-218
-2.36954e-236
-5.23191e-148
4.05574e-112
-8.32166e-112
2.07466e-28
-1.28127e-68
-4.06176e-70
0
-1.05087e-218
1.25399e-113
7.06402e-27
0
0
-8.50222e-116
0
-3.05432e-32
0.000623659
1.54452
0
-2.32475e-159
-3.25191e-79
-1.6561e-123
1.4975e-234
18.4486
0
8.93877e-47
-5.8986e-65
-1.9701e-159
7.49033e-239
-1.54003e-231
8.29969e-201
-1.17842e-125
7.28145e-143
-5.63751e-136
0
1.22279e-298
1.50817e-117
1.84171e-189
8.93579e-63
-7.54531e-105
4.66179e-246
0
2.36925e-79
24.0686
-5.5836e-202
-1.29782e-54
0
-8.5687e-134
-1.50043e-50
-3.78003e-140
1.86417e-85
-1.80443e-55
1.79082e-120
-9.66623e-116
0
1.22214e-287
-4.01271e-147
1.27333e-147
4.13183e-122
8.93654e-150
0
0
-4.91178e-252
-4.53805e-98
5.32486e-106
-1.59442e-61
-9.97537e-136
6.43792e-61
-3.49785e-106
-2.78872e-124
-4.24662e-56
5.32186e-96
6.96797e-13
-1.55619e-107
-8.59889e-95
-1.30851e-64
-2.71727e-294
7.19671e-57
3.37698e-83
0
-2.02068e-317
0
3.90709e-293
1.85209e-26
1.16906e-126
8.79836e-189
-2.24368e-60
4.32083e-144
-2.81391e-28
1.37255e-140
1.69241e-125
-5.54145e-251
-6.10217e-45
0
5.55052e-97
-3.3482e-201
2.0744e-40
-2.45016e-54
-4.34412e-129
8.01298e-133
0.122435
1.29179e-109
-6.81226e-40
1.43063e-138
4.19478e-27
7.47518e-05
4.89097e-309
-1.29917e-210
0
3.49721e-30
-1.66468e-209
8.68212e-141
2.65135e-12
0
-6.17437e-92
6.76526e-70
1.8953e-131
2.32381e-198
-1.16305e-129
4.31317e-274
-1.67031e-119
8.98913e-271
1.15067e-277
-3.55745e-125
6.4397e-117
-8.69642e-118
1.57501e-128
-2.65096e-17
-1.76287e-142
0.833799
4.47409e-104
1.01083e-169
-2.93835e-121
1.82249e-105
-1.22161e-99
-6.16947e-152
0.000259764
-9.07234e-66
-1.67544e-104
1.75811e-109
4.78494e-175
-3.51474e-193
1.12483e-79
0
6.43274e-05
3.55279e-251
-1.42129e-64
6.135e-52
2.65139e-29
4.97563e-68
1.40532e-95
-1.36187e-71
-1.02238e-139
-5.75865e-68
-1.23675e-77
-1.21283e-40
2.40534e-112
-5.42161e-49
1.6524e-111
0
-2.16777e-103
46.3313
1.59997e-30
6.71052e-180
0
-1.30686e-244
-2.27496e-153
-6.30566e-82
-6.96396e-120
-2.37051e-156
9.88131e-324
-2.81923e-176
1.65284e-99
-5.99366e-182
2.78577e-206
-1.07046e-49
-9.33481e-157
5.14213e-87
1.54106e-91
2.13613e-177
-1.17829e-168
5.82662e-54
0
1.14672e-158
1.78284
-7.06945e-286
3.00232e-54
1.05938e-54
1.31291e-170
-1.66267e-62
5.38227e-90
6.25222e-104
7.57626e-72
2.85961e-215
3.7328e-63
-1.70794e-235
5.99059e-155
5.44406e-94
-1.3065e-59
1.50513e-214
3.4719e-114
5.62586e-37
-1.09005e-88
-6.37397e-138
3.36591e-212
1.21e-54
1.66868e-14
-2.19104e-180
0
1.48309e-103
0
3.17664e-05
-1.28581e-111
5.73843e-34
2.35984e-147
-2.99462e-159
0.0699775
-2.86437e-132
3.19838e-10
-4.74776e-122
0.716646
1.38853e-114
6.79454e-134
-1.03127e-134
6.17877e-185
3.00019e-14
4.89523e-18
1.50566e-303
1.35438e-298
-1.65067e-54
9.32679e-284
1.6054e-08
1.16686e-75
9.86136e-24
-7.8055e-212
50.2011
5.00483e-06
-8.58946e-110
0
9.7428e-222
-8.06047e-70
1.32081e-150
-5.38325e-134
1.18755e-147
2.92067e-111
-6.62043e-80
0.0172839
-5.58247e-16
0
-6.05027e-70
-1.53261e-72
-1.16926e-50
-1.06981e-140
9.12841e-45
2.80828e-110
1.99249e-68
1.17279e-198
0
6.10444e-73
1.64586e-66
-4.30828e-158
-3.98656e-58
4.75974e-36
9.66813e-172
6.69881e-107
1.79241e-199
1.47823e-156
7.58473e-27
-3.14411e-154
8.8558e-84
7.18185e-80
7.45346e-125
1.39767e-199
-2.254e-136
1.64229e-38
-1.30446e-150
-1.05207e-142
0.0356437
-8.86829e-94
2.57147e-169
1.69684e-07
0
-7.51026e-148
3.16119e-114
3.63197e-152
-2.90043e-255
-8.03239e-108
0
6.46973e-27
-3.25431e-226
-2.97958e-91
-1.88555e-64
1.36073e-61
4.84306e-141
7.96741e-145
2.38325e-75
3.47948
-1.22956e-291
-2.34213e-152
4.81926e-171
1.29457e-08
-6.08477e-66
2.71068e-217
0.00310972
0
-3.76055e-225
33.5558
7.48744e-168
1.3769e-212
5.58647e-208
-6.74714e-81
2.27766e-74
-1.01438e-283
8.23563e-158
2.18456e-48
1.3682e-114
9.35614e-118
-1.22067e-147
1.93926e-306
8.39986e-72
4.6038e-27
-3.52631e-119
6.27465e-61
-5.17518e-124
-8.68174e-155
4.17417e-29
5.04539e-74
-2.70791e-145
1.17526e-223
1.24776e-15
-4.62872e-118
-1.54484e-85
2.39887e-197
1.91369e-290
-1.85055e-60
6.02747e-44
-1.04401e-154
-4.25576e-70
-3.36265e-152
-1.36828e-143
-1.62106e-191
2.45476e-73
26.0047
0.850792
-2.95309e-72
-5.05098e-121
1.2632e-193
-5.3845e-76
3.2109e-07
1.00824e-64
3.85611e-219
-3.51435e-48
8.16493e-29
0.164613
1.12789e-184
1.72307
1.07806e-291
-1.41879e-141
1.92098e-288
1.56898e-30
-7.61783e-84
1.46412
-4.70032e-237
1.37764e-07
1.12847e-280
5.47079e-122
2.29719e-96
5.46807e-154
-5.39341e-48
7.59937e-14
1.24371e-161
-6.33044e-200
-5.13971e-160
2.72277e-184
2.54949e-164
5.43499e-32
-7.93612e-88
2.81552e-145
1.09263e-35
1.10995e-165
-4.06419e-283
-5.13465e-124
5.83298e-241
5.55309e-52
-5.54916e-163
-7.69944e-33
-5.99754e-32
7.97938e-78
8.98876e-87
1.75754e-95
-2.60451e-135
1.06e-08
-8.60071e-159
1.13243e-172
0
-6.24308e-46
5.73036e-67
-8.53808e-240
7.3607e-64
1.56126e-150
7.34231e-87
1.05553e-70
3.76734e-63
6.65831e-98
18.3735
5.58215e-95
1.53302e-75
1.88016e-14
3.49827e-154
4.25865e-19
3.23782e-81
-2.27367e-288
-3.5102e-156
1.30975e-208
-3.78009e-138
0
-5.15314e-213
1.06042e-28
-7.99554e-41
-5.10971e-217
35.204
1.05683e-55
-5.67412e-258
-3.17256e-29
-6.20479e-50
1.27892e-266
4.1977e-25
-2.41234e-66
1.69636e-32
1.98036e-271
2.50953e-193
-3.49398e-180
4.06458e-268
1.11196e-58
0.0215454
2.9388e-223
1.46535e-28
0
0.000674398
-1.90593e-71
-9.87291e-107
0
-2.33935e-225
-2.02339e-138
9.32e-102
1.66302e-34
4.64916e-86
7.22076e-169
2.2881e-159
5.23448e-275
2.09805e-74
3.43791e-71
1.53379e-205
-9.7906e-319
2.46548e-128
6.07444e-89
-1.40386e-81
-3.69628e-250
4.70268e-27
6.83406e-48
-4.80964e-283
-2.87953e-106
1.1518e-160
-2.83599e-145
52.1691
2.81101e-168
4.58833e-260
-2.21209e-119
1.84454e-68
1.2879e-81
0.000236417
-7.25322e-94
-1.06559e-163
1.50955e-83
-1.25255e-153
2.84268e-163
3.51159e-161
-7.18239e-155
4.67313e-46
-6.46841e-136
0.639062
2.30129e-79
5.40043e-21
-4.67018e-161
7.06565e-24
1.66816e-59
2.2307e-47
2.80508e-24
9.82071e-114
-4.92827e-171
2.87571e-173
-7.73912e-125
0
1.88407e-148
3.40084e-67
1.648e-60
-2.25913e-156
-1.00367e-284
9.4474e-120
6.52956e-100
-8.02217e-64
-9.79483e-74
-1.04148e-47
-5.7987e-65
-2.7181e-195
-6.28298e-92
9.46965e-11
2.52655e-69
0
-2.86821e-190
-9.35636e-156
0
-7.66834e-94
-1.73954e-294
5.18047e-146
-3.61308e-28
2.47731e-63
7.92324e-28
1.61764e-291
2.54728e-233
0
-2.58321e-156
1.61683e-182
8.49228e-47
1.51406e-180
9.03958e-232
5.04389e-20
1.13817e-92
3.37144e-146
-3.74392e-96
5.59056e-42
-6.91872e-181
1.99091e-27
4.01146e-175
-9.26301e-286
3.74189e-16
-2.93137e-128
1.17229e-42
4.33639e-177
2.03549
1.57327e-74
1.04766e-93
-7.25068e-119
-6.93346e-72
0.00580286
1.47825e-167
-7.39742e-50
9.24836e-72
-9.88121e-96
7.01444e-209
7.6798e-161
3.64708e-20
-5.27459e-141
5.36938e-35
-2.18163e-166
3.16467e-170
4.56814e-29
-1.15043e-267
1.90396e-187
1.39322e-163
-2.73183e-127
5.30631e-27
8.29215e-166
6.1009e-158
0
6.91272e-71
8.29958e-17
1.0563e-105
1.22909e-156
2.14074e-115
-1.31563e-183
-1.78334e-223
0.0478926
1.61573e-85
0
-1.13976e-89
-2.98859e-185
2.81263e-72
-9.53072e-45
-6.9189e-144
6.08066e-154
-1.42486e-47
-9.43149e-39
0
-3.05778e-128
-4.50442e-40
-7.88567e-237
-2.08343e-308
-1.94817e-101
-2.76254e-124
-1.11213e-143
-1.13602e-305
3.12457e-110
1.1762e-28
-1.61449e-261
-9.49667e-57
-8.01042e-288
-3.74234e-207
-1.35517e-100
4.06629e-12
0
0.00678752
2.642e-83
9.62976e-60
0.026933
1.81711e-78
3.40898e-130
6.18009e-06
3.25884e-154
2.83954e-13
-3.3927e-32
9.47504e-120
9.66393e-151
-2.04752e-154
1.24951e-171
9.12506e-181
-2.92278e-81
9.27388e-09
32.6303
3.04471e-89
7.60611e-45
2.78302e-22
3.15745e-92
5.35483e-06
-1.30874e-254
-1.61657e-169
-6.31055e-45
1.05504e-107
-1.05473e-206
5.17371e-91
5.36455e-169
0.0101239
0
1.88637e-196
1.06023e-244
48.8228
-6.01197e-56
1.48179e-81
5.90112e-140
-5.89685e-39
1.68566e-156
4.30392e-231
8.93357e-23
4.0004e-166
4.69505e-20
-2.00483e-80
4.48665e-165
-2.56661e-48
-9.50659e-123
-3.12592e-158
-8.73253e-227
-8.07911e-221
4.24308e-05
-4.74027e-32
-2.12957e-208
-2.23925e-43
9.18219e-148
5.78605e-68
0
4.1962e-122
2.17583e-21
-6.25777e-54
3.23007e-76
-5.70766e-121
1.52423e-230
-3.37068e-62
3.18794e-151
1.70725e-234
-7.23343e-30
4.31332e-57
1.22469e-187
8.38798e-50
-1.28586e-137
0
2.27361e-210
0
-1.27884e-67
0.849147
-4.74037e-28
-1.68898e-63
2.5002e-196
5.22709e-148
-2.66742e-126
0
1.89905e-19
-1.28314e-124
2.30896
6.3623e-43
1.21827e-163
2.1709e-191
3.07521e-249
4.00834e-171
-9.41225e-153
6.37949e-205
0.0197364
-3.54749e-56
-1.84809e-80
-6.03439e-31
-4.3862e-72
3.43302e-237
0
1.34424e-205
-1.92862e-60
3.2098e-09
8.22825e-43
-1.7324e-104
2.72809e-87
4.77469e-109
-7.22721e-58
3.14112e-09
3.09094e-06
5.27384e-151
-2.01118e-123
3.42141e-80
1.59095e-187
0
1.6374e-205
1.23409e-53
4.41278e-183
-2.90856e-133
2.32172e-163
3.18672e-75
4.17987e-31
2.03073e-174
1.23778e-203
-4.46654e-39
-1.39662e-61
-9.15718e-139
-2.3452e-207
1.47523e-89
7.59181e-30
-4.39601e-62
8.1842e-61
1.12852e-93
-1.10044e-155
1.66036e-16
-5.00922e-145
-1.40207e-42
9.60554e-225
6.76593e-28
-6.7758e-39
-5.07567e-292
3.82629e-244
19.7383
1.11614e-210
8.3308e-133
-2.12589e-72
-2.91156e-177
9.79226e-176
-1.09901e-153
3.56253e-213
0
-1.53152e-77
6.20195e-21
4.25972e-249
2.51534e-07
3.90174e-171
2.87038e-211
1.35478e-26
9.65514e-21
8.74742e-61
1.59164e-160
-6.23902e-204
1.55976e-82
37.3688
8.09463e-182
5.9795e-251
4.55057e-260
-2.79968e-182
-1.35448e-106
1.04987e-81
-2.87517e-186
-2.34811e-114
-2.81425e-192
0.00257363
-1.78493e-26
-9.6876e-129
-1.33061e-65
1.89073e-168
7.50457e-210
-4.51044e-63
2.45198e-05
-2.06906e-129
1.272e-257
1.24122e-212
-2.5368e-33
1.94359e-178
2.36766e-227
5.55643e-43
5.59228e-163
-9.19808e-216
39.5706
1.24853e-39
1.26886e-06
-2.27733e-63
5.1106e-180
8.65986e-59
7.1353e-24
9.40237e-08
-8.60212e-170
7.58327e-94
0
2.70758e-05
0
-2.32076e-173
2.04045e-184
8.49663e-258
3.6299e-103
2.05803e-137
2.13125e-177
-1.82561e-172
2.00018e-05
2.15124e-32
-5.19034e-117
2.05783e-203
5.28316e-70
0.000121823
2.12017e-35
2.50113e-79
2.0261e-91
3.58903e-174
1.87161e-151
-1.07035e-257
3.53479e-191
2.22375e-246
3.92437e-206
3.13165e-80
4.83608e-34
9.83651e-58
3.21977e-06
5.61392e-13
-5.22438e-26
-9.26085e-59
2.67742e-06
2.53552e-230
1.52526e-19
1.61237e-214
8.49882e-10
1.12996e-37
1.49543e-90
-1.00737e-188
1.21665e-85
5.74375e-77
3.96856e-143
0.715599
3.43994e-26
1.11965e-06
1.29975e-208
-1.67687e-28
4.86887e-18
-2.79461e-38
1.7431e-17
5.40397e-31
-1.1312e-214
2.61787e-150
-2.98644e-125
3.12332e-194
2.07451e-68
1.63467e-178
-4.15294e-83
3.96402e-299
3.87406e-161
-1.64287e-78
1.40559e-111
1.36226e-236
1.05466e-86
1.68856e-08
11.8099
-1.88663e-260
3.91642e-90
-1.46658e-173
8.24707e-22
-7.18234e-72
0.0129362
8.82925e-15
4.95784e-174
2.69848e-99
2.41996e-17
-5.49628e-38
1.9109e-14
-3.75572e-98
4.14246e-27
6.78469e-242
2.8249e-08
-8.32676e-42
-1.40633e-204
8.18309e-19
7.64955e-15
1.72032e-83
5.30885e-07
6.65294e-174
1.768e-20
1.05173e-141
-2.6968e-268
-5.57647e-133
5.80495e-154
2.01578e-09
2.63667e-31
3.27301e-11
-1.08243e-232
5.25747e-06
4.14486e-88
-2.17579e-39
-3.33294e-58
2.5268e-103
-2.03954e-122
4.54976e-13
2.82828e-171
8.71531e-198
-5.08676e-78
9.57758e-22
-2.21273e-74
7.66329e-62
2.5939e-102
2.63169e-07
-6.3394e-59
-3.54758e-69
6.70132e-22
-1.58538e-253
8.62087e-18
3.51137e-55
8.40942e-19
1.51043e-135
3.47356e-18
-5.73485e-252
-6.31754e-71
-1.89149e-131
4.17694e-37
4.3525e-129
-2.15207e-79
2.17595e-21
10.9159
-4.12781e-159
-6.90876e-121
2.63866e-81
3.34795e-49
6.77374e-68
-4.74181e-172
2.0957e-90
3.51592e-252
0.452804
0
7.9702e-252
0
2.24201e-29
1.67495e-213
-5.00154e-83
2.39188e-08
-8.16208e-127
-3.53419e-104
1.24993e-203
1.21355e-312
3.02814e-22
1.7603e-258
-7.72054e-70
1.15378e-34
2.1224e-84
1.0102e-15
-6.47124e-177
4.12866e-93
-1.76611e-23
6.95353e-64
1.84034e-138
14.2252
0
3.01232e-303
-2.19381e-156
54.0602
2.41244e-138
1.90438e-161
1.54591e-18
3.87062e-187
-2.89537e-174
-1.33906e-53
8.6543e-23
-6.5261e-75
4.46684e-15
6.65865e-183
5.64942e-165
-6.64361e-121
2.79488e-123
2.6338e-37
3.00661e-217
-2.43577e-159
6.48663e-98
-1.12127e-32
-5.24728e-131
3.4227e-239
-2.46892e-85
-1.79971e-36
7.72382e-313
-1.34045e-307
1.15085e-15
-3.42496e-74
2.09303e-14
-3.74822e-173
0
-7.85635e-35
3.62645e-30
-4.63599e-234
5.70801e-180
1.10302e-253
0.000850582
-7.66653e-311
-2.13715e-77
1.90925e-21
-1.14311e-305
3.07626e-310
1.34793e-63
-2.94497e-273
5.90485e-308
3.43766e-118
-1.22967e-32
1.46998e-241
2.54367e-56
6.1446e-262
-5.2668e-24
0
1.76599e-18
2.65795e-28
3.2316e-72
-7.08464e-304
6.87444e-54
0.00522705
-2.84101e-187
9.06633e-88
-8.28193e-281
-3.40478e-32
4.1558e-264
1.21103e-24
4.29757e-37
5.36698e-158
2.47033e-323
9.91058e-29
2.95107e-35
-4.52314e-129
-1.00789e-130
2.2197e-34
-1.41447e-270
1.54081e-55
0
7.35687e-26
5.87048e-25
-4.89913e-41
2.66569e-70
1.27522e-45
8.58373e-05
-6.30368e-80
-1.54838e-129
-2.83172e-35
-4.63686e-177
-2.35625e-50
1.29257e-33
-3.59025e-74
-4.02446e-169
5.4003e-10
0
8.0874e-12
22.9734
-2.08617e-193
1.93173e-35
0.66672
1.68768e-67
-8.73047e-127
2.78611e-55
1.36605e-95
2.69174e-249
-5.4088e-26
1.78427e-10
0.000987431
7.09106e-175
8.55884e-66
2.58288e-20
2.43702e-29
6.60774e-206
1.05116e-301
-2.75389e-108
9.07238e-14
3.51707e-22
1.76265e-37
0
-1.57047e-265
3.34449e-34
5.29027e-184
8.44308e-106
-9.40362e-178
1.02351e-319
-1.02791e-22
8.43178e-182
1.52581e-22
-3.492e-127
2.37535e-282
4.82901e-300
4.00199e-31
4.76258e-176
-1.89381e-66
1.52167e-37
1.87732e-11
5.05806e-91
3.41786e-240
3.81081e-20
-1.27021e-139
1.33663e-254
-4.3536e-156
-2.72669e-33
1.44024e-185
3.45179e-31
3.25096e-110
52.4338
-2.24112e-35
-1.03267e-224
3.88399e-22
0
-2.26235e-27
3.83579e-88
9.77693e-17
8.24047e-15
-1.18294e-76
2.01859e-19
3.22342e-280
1.1496e-32
1.01594e-185
4.54994e-92
1.35617e-23
4.47426e-72
2.15493e-23
4.88614e-11
-1.24693e-38
6.07508e-31
1.84628e-15
3.41829e-235
2.61269e-258
0
5.03478e-20
-4.64521e-45
1.73407e-232
-1.01346e-24
1.14334e-26
-7.89435e-109
-5.66885e-52
-1.07151e-128
-2.03738e-65
3.12408e-20
5.2172e-126
-2.17431e-91
-2.49226e-85
0
0
2.96427e-232
6.51303e-174
-8.79164e-133
3.3388e-286
1.94411e-150
1.61728e-157
-8.96217e-100
6.83489e-77
9.79029e-205
6.06927e-25
0
-3.13019e-33
1.21078e-16
2.91873e-222
1.58874e-12
-1.66135e-47
1.4773e-25
1.29177e-131
8.23429e-38
-1.81399e-184
4.07101e-95
4.21867e-109
1.44236e-302
2.64748e-185
-3.13814e-161
1.34868e-219
0
8.88852e-99
0
1.84535e-58
5.06694e-72
1.1196e-07
1.14611e-290
-1.20485e-108
1.34039e-283
-5.45631e-186
2.32656e-43
3.86525e-113
-3.34758e-229
47.5616
2.16258e-30
-1.65118e-73
-3.3327e-107
-5.25171e-37
1.14941e-45
-1.58848e-161
6.08815e-60
4.38703e-32
-8.17609e-157
0
-3.26416e-147
1.55724e-31
4.27217e-260
2.0968e-234
7.53535e-30
-5.2427e-193
4.19896e-185
3.49138e-171
5.22393e-239
6.65434e-19
5.53293e-288
8.53801e-237
5.91537e-73
1.46938e-58
1.88572e-06
1.73628e-29
-1.22162e-104
1.55492e-224
-2.0869e-60
3.05392e-227
-9.79896e-70
8.44163e-147
7.24894e-157
3.05973e-18
-2.49149e-291
-1.15204e-55
1.73128e-96
1.12268e-35
-8.60724e-71
0
1.58704e-159
0
8.47487e-62
-1.47287e-263
-7.04898e-45
4.8124e-106
2.94951e-166
6.46085e-100
1.67624e-97
0
-2.89585e-54
1.2491e-66
-1.64631e-174
9.05323e-70
-1.25797e-27
2.33468e-315
4.47946e-92
7.81877e-26
-1.35774e-51
2.85439e-134
-1.92268e-89
-4.4776e-87
4.29251e-112
-1.61542e-129
2.93868e-30
1.76562e-128
9.39439e-225
5.8321e-227
1.13011e-18
-2.61718e-25
8.24535e-25
-2.99868e-14
-4.3416e-64
-3.31193e-48
1.21314e-107
-1.33495e-58
-8.4073e-229
3.41138e-08
1.39131e-184
9.5473e-15
5.87848e-45
1.3683e-229
-6.30814e-50
-7.8748e-28
3.28914e-28
4.34062e-103
1.5181e-65
-1.54406e-231
0
2.32743e-35
0
1.68426e-296
-3.95945e-35
3.03759e-184
5.39633e-118
1.32418e-237
-2.40933e-175
-1.50131e-36
0.210327
1.15023e-194
5.82793e-201
2.80392e-33
-1.87698e-71
2.10032e-25
-9.7434e-60
2.5673e-50
-2.86221e-190
-2.04998e-81
-1.1166e-65
3.60197e-39
-2.75098e-60
3.81635e-231
4.61576e-41
-1.04021e-71
-3.71772e-46
2.98101e-148
4.46695e-234
6.0621e-39
4.38477e-190
2.81918e-315
3.91043e-57
-5.21254e-18
-4.1132e-289
1.68933e-68
9.43294e-107
3.35187e-202
-1.01146e-133
2.03625e-203
-6.22672e-58
6.95894e-224
8.73535e-237
-3.24132e-125
2.32507e-58
-2.38949e-72
4.0647e-48
0.0779915
-7.21865e-162
-1.31212e-109
1.70985e-13
-1.51677e-79
2.11267e-205
-7.253e-74
3.89974e-26
9.24768e-301
6.14309e-190
2.05531e-320
5.47339e-64
5.42378e-34
6.57719e-127
0
9.12648e-143
-2.38523e-143
1.10838e-160
3.49013e-21
1.43683e-186
0
0
2.03108e-69
5.41715e-105
-8.42417e-13
-1.28656e-144
1.11274e-88
6.18602e-106
-1.99407e-57
2.6365e-256
-5.11137e-49
6.73523e-306
3.02749e-295
1.36313e-320
-1.90032e-29
3.48184e-179
-1.45756e-58
-7.70415e-84
1.67502e-70
-2.55836e-59
8.32018e-68
7.0016e-32
1.341e-49
1.48981e-181
-1.44595e-92
1.56426e-79
6.3001e-83
6.1954e-42
1.78562e-189
0.104017
1.92689e-34
7.95156e-39
2.67288e-295
7.64094e-06
-1.17754e-57
-3.91722e-62
-1.08168e-48
1.69941e-42
5.64651e-111
3.3212e-159
-5.46723e-178
-8.4576e-195
-1.2079e-187
-1.36742e-32
5.54721e-49
-2.02651e-188
-7.11957e-75
1.42813e-163
-1.55266e-182
2.20429e-127
-1.08936e-78
6.64318e-150
4.6217e-101
-9.67783e-81
6.97132e-92
-4.37085e-52
6.61512e-111
1.09942e-277
-3.49238e-132
2.98118e-179
4.26234e-27
2.12991e-261
1.0924e-183
2.37679e-68
4.27672e-10
-2.10853e-222
1.67958e-12
2.44361e-230
4.56478e-192
-9.96599e-129
1.05198e-71
1.15594e-81
9.60737e-256
1.04943e-70
1.1808e-69
1.8863e-24
1.58245e-292
3.22333e-87
-8.58554e-97
1.39923e-154
9.55806e-318
0
1.9807e-46
1.52264e-103
-2.52291e-135
0.151166
-1.39488e-59
-1.92022e-75
-8.09476e-47
-3.75671e-127
1.02357e-24
-1.11115e-159
-1.3522e-128
3.12012e-155
1.04726e-163
1.03889e-19
-9.24226e-86
-6.83294e-58
4.70363e-85
-6.92566e-247
-2.33938e-69
-1.69357e-67
1.28323e-33
1.62253e-168
-2.79323e-77
1.5079e-10
1.87267e-16
4.10981e-233
2.73308e-29
-1.29202e-130
0.00277936
4.87324e-317
-3.62439e-60
1.26033e-86
0
-9.61639e-61
-4.28889e-154
9.83465e-141
-1.56302e-51
4.32156e-23
1.04144e-35
7.75256e-140
-8.53352e-71
1.69194e-306
4.19109e-185
-1.44153e-19
6.42356e-62
-6.15199e-179
5.93997e-69
-3.13726e-40
-2.36282e-73
2.71874e-107
1.36108e-97
-4.2098e-83
7.00919e-21
1.74112e-244
8.70311e-102
-1.04972e-131
-1.95248e-55
-4.21203e-16
2.47804e-74
1.19928e-77
-1.89055e-166
3.45846e-322
-1.63187e-53
-5.93353e-76
9.3517e-75
-2.23458e-251
6.31136e-129
8.10758e-92
-3.08032e-76
1.35838e-48
6.08474e-68
1.34912e-166
2.41782e-73
1.31067e-181
-8.73584e-56
-8.21051e-129
2.0032e-56
2.53144e-111
8.07435e-137
1.11194e-78
1.75066e-128
-4.38813e-136
-3.42124e-162
1.47421e-246
-6.27057e-106
-1.56867e-94
2.81438e-128
8.17613e-05
7.28045e-16
9.86507e-206
-2.49044e-181
-1.54322e-108
7.5148e-102
0
1.06772e-57
-2.22924e-66
4.23034e-63
1.38505e-310
1.24242e-28
-2.59904e-72
7.28936e-38
-2.5631e-59
-6.86448e-296
-2.14741e-156
-1.49642e-137
9.45524e-77
1.15968e-21
0.000287958
-2.20329e-239
-1.77628e-119
9.0121e-143
9.5123e-32
4.31329e-21
4.53988e-35
3.08569e-95
1.01038e-76
1.09644e-307
5.26785e-94
-4.05955e-94
-6.03812e-237
-4.05762e-41
-7.499e-113
5.77894e-88
9.28077e-75
-9.17988e-117
5.81323e-106
-1.36023e-75
1.98963e-297
0
-4.90443e-91
2.29014e-119
2.97095e-19
-1.2179e-133
-4.50015e-43
1.11964e-30
-9.48867e-75
5.25266e-235
9.87293e-107
-3.02957e-74
4.98604e-244
1.15234e-15
1.93765e-19
7.0317e-199
1.54406e-307
-7.19092e-202
2.93698e-246
0
1.35179e-110
-1.42599e-145
-7.70639e-51
3.35713e-114
1.00282e-73
1.86868e-83
1.05504e-31
-6.44796e-77
-1.23821e-62
4.21082e-120
2.0612e-125
-1.19776e-70
2.43406e-296
8.04298e-135
-9.6915e-159
-6.68114e-62
-1.26627e-48
1.50048e-19
0
-1.6252e-50
7.02256e-89
2.50792e-113
-1.39782e-46
-2.18166e-66
-5.16736e-50
3.46803e-21
1.70837e-99
8.61995e-43
-1.71252e-128
9.18628e-171
5.35499e-87
1.84194e-65
4.37889e-248
2.92517e-119
6.27054e-18
3.54318e-138
2.5668e-23
3.03173e-234
-2.20462e-66
-8.9956e-164
2.1991e-166
2.70683e-57
-2.24128e-40
6.46676e-58
5.0152e-141
4.2012e-124
-7.62283e-115
2.30551e-41
6.87416e-62
-4.55159e-83
3.40194e-45
0
1.10384e-103
0.000964883
9.07053e-33
3.30486e-152
1.00953e-12
3.75406e-66
-1.68038e-138
1.60708e-275
3.01194e-24
1.45761e-65
-3.22825e-117
1.83875e-77
1.47754e-226
-2.63243e-82
3.9369e-155
-8.5424e-54
-4.47509e-70
6.00862e-76
4.32238e-48
0
1.77838e-189
2.46937e-149
7.51713e-176
-5.62771e-180
-1.16457e-102
-4.16692e-137
2.09157e-145
-7.96376e-39
1.62413e-53
0
-1.10521e-59
2.95685e-187
2.31558e-295
-7.19924e-54
3.48992e-226
2.13143e-126
9.79765e-124
7.62928e-251
-3.42243e-244
-6.3784e-150
-2.97964e-90
-1.44363e-109
2.67999e-61
1.2479e-90
-3.91568e-52
-2.54187e-62
-6.8885e-119
-3.8436e-101
-6.52079e-74
0
2.9067e-124
1.73638e-157
-5.54406e-127
2.25175e-16
2.27931e-93
-1.73038e-118
5.78609e-91
1.06754e-114
5.12954e-149
2.79098e-145
-5.44783e-112
-2.81193e-166
-5.58247e-60
1.5971e-90
2.9041e-297
1.83924e-92
1.13909e-84
-2.54522e-88
4.40888e-275
4.62718e-54
2.30774e-24
2.83345e-178
-2.81655e-76
-1.29187e-71
2.95353e-194
-2.70364e-53
-4.19177e-52
8.42377e-70
-2.29643e-62
-5.31325e-58
-3.43987e-89
3.396e-93
-1.14745e-77
-3.25643e-78
-3.42574e-224
2.03667e-163
0
1.4606e-179
-1.13115e-275
1.55392e-122
4.54193e-108
-2.73422e-71
2.57738e-78
1.6021e-05
2.00211e-40
0.00133608
1.68894e-92
1.33904e-25
9.98072e-07
1.74494e-39
0.000989898
-2.32222e-156
1.70758e-107
-5.68817e-130
2.43114e-129
-2.50435e-87
-2.95522e-196
-2.51357e-110
1.73449e-165
9.94876e-278
1.43349e-95
1.90193e-09
4.85038e-127
-1.3096e-86
7.61614e-129
-6.43709e-153
6.78414e-97
-2.05285e-110
8.20503e-163
1.75016e-110
-2.76936e-164
1.63813e-47
4.97105e-74
2.26294e-77
1.75018e-80
3.12005e-16
1.39029e-46
-3.16422e-84
5.44273e-128
0.617654
-1.27534e-129
-6.22693e-102
-5.9047e-67
4.41825e-56
1.6944e-103
-1.24787e-61
1.79496e-241
-3.81906e-68
-2.29957e-54
-5.56261e-82
1.33658e-82
-2.45967e-135
-4.08522e-115
-4.68572e-65
1.0555e-163
-7.85889e-75
-1.24631e-113
1.32637e-139
5.08582e-237
2.48472e-131
2.06879e-96
-7.65932e-146
-3.7904e-129
1.59785e-143
4.67622e-190
-3.83339e-62
-1.47813e-158
8.96459e-40
1.00963e-85
2.16869e-114
1.50566e-251
-2.75094e-178
2.33147e-68
1.6473e-116
-2.92959e-300
-4.08843e-85
3.72244e-07
-1.50344e-88
-4.80934e-139
-4.64812e-131
8.35996e-18
3.84527e-12
0.0180281
-1.12974e-189
2.97976e-192
-1.51966e-158
1.18057e-137
3.01017e-78
1.47174e-27
1.28516e-22
-3.61142e-42
5.45144e-84
-3.85916e-165
3.08169e-270
9.50439e-266
-2.23589e-53
-1.11549e-135
-9.78343e-62
-1.36348e-182
1.06124e-38
5.01868e-167
-3.33203e-110
1.0352e-25
-1.78594e-76
2.85637e-70
-3.91671e-167
1.90568e-121
-5.23037e-293
-9.67559e-65
1.70126e-85
-1.00435e-160
-2.82159e-278
-5.97029e-122
-1.88414e-40
1.40079e-198
2.03138e-84
1.52292e-18
1.43232e-309
2.27598e-147
-2.47193e-70
-1.31694e-73
1.1088e-88
2.2771e-208
1.54099e-191
5.55419e-186
0
1.11201e-264
-1.94027e-132
1.48301e-100
-5.74812e-294
1.11819e-133
3.26614e-186
47.2851
-9.22293e-53
1.09483e-183
0
1.62413e-81
3.78508e-126
-2.11688e-56
8.3683e-87
7.09817e-124
1.67314e-283
-5.81842e-191
-1.74509e-67
0
9.51848e-132
-4.57769e-57
2.27234e-94
2.23417e-258
-3.99494e-120
0
1.80154e-128
1.16566e-133
6.32542e-196
1.43661e-43
4.8938e-102
2.03832e-145
1.09354e-141
-4.81162e-64
5.33485e-93
-3.01929e-303
0
3.1991e-171
-4.04558e-70
-9.17383e-123
-1.64779e-168
-9.91043e-133
1.85919e-59
2.9913e-91
1.9739e-312
1.75652e-178
3.80498e-98
-1.64912e-210
1.387e-88
3.8915e-119
1.89241e-178
-5.59417e-44
1.22948e-100
-1.55134e-56
-4.17023e-48
-3.20065e-131
3.76075e-13
5.04633e-71
2.76382e-26
-3.15927e-199
-6.59506e-44
6.03821e-91
1.22962e-152
-2.33101e-168
-1.68005e-60
4.43994e-95
9.75939e-159
1.24253e-70
-2.02745e-78
-2.36402e-163
-1.52174e-136
-1.26569e-110
3.46747e-234
-4.53772e-85
-3.63035e-239