/*--------------------------------*- C++ -*----------------------------------*\
  =========                 |
  \\      /  F ield         | OpenFOAM: The Open Source CFD Toolbox
   \\    /   O peration     | Website:  https://openfoam.org
    \\  /    A nd           | Version:  7
     \\/     M anipulation  |
\*---------------------------------------------------------------------------*/
FoamFile
{
    version     2.0;
    format      ascii;
    class       volScalarField;
    location    "1.15";
    object      p;
}
// * * * * * * * * * * * * * * * * * * * * * * * * * * * * * * * * * * * * * //

dimensions      [0 2 -2 0 0 0 0];

internalField   nonuniform List<scalar> 
6400
(
9.8398e-06
2.92899e-05
-0.00047652
-0.00151012
-0.00295371
-0.00469695
-0.00663942
-0.0086915
-0.0107759
-0.0128272
-0.0147901
-0.0166186
-0.0182741
-0.0197249
-0.0209451
-0.021914
-0.0226155
-0.0230373
-0.023171
-0.0230111
-0.0225552
-0.0218034
-0.020758
-0.0194237
-0.0178069
-0.0159159
-0.0137605
-0.0113521
-0.00870314
-0.00582766
-0.00274063
0.000541905
0.00400293
0.00762457
0.0113882
0.0152743
0.019263
0.0233336
0.027465
0.0316357
0.0358239
0.0400074
0.0441641
0.0482716
0.0523078
0.0562503
0.0600776
0.063768
0.0673008
0.0706556
0.073813
0.0767545
0.0794628
0.0819217
0.0841165
0.0860344
0.087664
0.0889962
0.090024
0.0907428
0.0911507
0.0912485
0.0910403
0.0905335
0.0897392
0.0886723
0.0873523
0.0858034
0.0840548
0.0821419
0.0801065
0.0779977
0.0758732
0.0737999
0.0718555
0.0701286
0.0687162
0.0677225
0.0672543
0.067292
4.99362e-06
1.92067e-05
-0.000434575
-0.0013186
-0.00253349
-0.00399998
-0.00564213
-0.0073875
-0.00917078
-0.0109347
-0.0126295
-0.0142126
-0.015648
-0.0169053
-0.0179594
-0.01879
-0.0193807
-0.0197191
-0.019796
-0.0196055
-0.0191442
-0.0184114
-0.0174084
-0.0161388
-0.0146082
-0.0128234
-0.0107934
-0.00852827
-0.00603942
-0.00333959
-0.000442589
0.00263675
0.00588266
0.00927849
0.0128069
0.0164496
0.0201881
0.0240029
0.0278744
0.0317823
0.0357063
0.0396256
0.0435195
0.047367
0.0511474
0.0548401
0.0584247
0.0618814
0.0651906
0.0683338
0.0712929
0.074051
0.0765921
0.0789017
0.0809664
0.0827747
0.0843166
0.0855841
0.0865716
0.0872753
0.0876943
0.0878304
0.0876881
0.0872754
0.0866034
0.0856873
0.0845459
0.0832028
0.0816861
0.0800289
0.0782703
0.0764551
0.0746351
0.0728685
0.0712209
0.0697635
0.0685698
0.0677143
0.0672908
0.0673296
0.000512864
0.000474861
2.06658e-05
-0.000795906
-0.00188754
-0.0031909
-0.00464476
-0.00618899
-0.00776791
-0.00933144
-0.0108353
-0.0122407
-0.0135143
-0.0146278
-0.0155572
-0.016283
-0.0167894
-0.0170639
-0.0170973
-0.0168833
-0.0164182
-0.0157007
-0.0147315
-0.0135135
-0.0120513
-0.0103513
-0.00842136
-0.00627067
-0.00390982
-0.00135057
0.00139425
0.00431077
0.00738422
0.010599
0.0139387
0.0173863
0.020924
0.0245338
0.028197
0.0318944
0.0356069
0.0393147
0.0429984
0.0466382
0.0502145
0.0537079
0.0570992
0.0603698
0.0635015
0.0664766
0.0692784
0.0718912
0.0743002
0.0764918
0.0784538
0.0801757
0.0816485
0.0828652
0.0838206
0.0845121
0.0849391
0.0851039
0.0850114
0.0846697
0.0840898
0.0832864
0.0822779
0.0810865
0.0797388
0.0782658
0.0767033
0.0750922
0.0734784
0.071913
0.0704519
0.0691544
0.0680798
0.0672884
0.0668658
0.0668633
0.00154666
0.00136156
0.000837477
1.75842e-05
-0.0010314
-0.00225587
-0.00360403
-0.00502512
-0.00647149
-0.00789951
-0.00926998
-0.0105481
-0.0117036
-0.0127103
-0.0135461
-0.0141924
-0.0146343
-0.0148598
-0.0148599
-0.0146284
-0.0141613
-0.0134571
-0.0125163
-0.0113411
-0.00993579
-0.00830594
-0.00645882
-0.00440298
-0.00214825
0.000294376
0.00291285
0.00569415
0.00862433
0.0116886
0.0148716
0.018157
0.0215281
0.0249676
0.0284578
0.0319806
0.0355177
0.0390505
0.0425602
0.0460283
0.049436
0.052765
0.0559971
0.0591146
0.0621002
0.0649374
0.0676104
0.0701043
0.0724052
0.0745005
0.0763788
0.0780302
0.0794466
0.0806214
0.0815503
0.0822308
0.0826629
0.0828489
0.082794
0.0825058
0.0819952
0.0812762
0.0803662
0.0792862
0.0780607
0.0767184
0.075292
0.0738182
0.0723378
0.0708956
0.0695396
0.0683203
0.0672881
0.0664948
0.0660084
0.0658729
0.00299665
0.00258492
0.00193289
0.00106004
3.61081e-06
-0.00119153
-0.00248144
-0.00382383
-0.00517837
-0.00650757
-0.0077772
-0.00895652
-0.0100184
-0.0109391
-0.0116985
-0.0122795
-0.0126681
-0.0128532
-0.0128261
-0.0125808
-0.0121136
-0.0114227
-0.0105083
-0.00937259
-0.00801916
-0.00645326
-0.00468155
-0.00271201
-0.000553821
0.00178271
0.00428626
0.00694452
0.00974433
0.0126717
0.0157121
0.0188499
0.0220695
0.0253542
0.0286873
0.0320516
0.0354295
0.0388034
0.0421556
0.0454681
0.0487234
0.0519038
0.0549922
0.0579716
0.0608258
0.063539
0.0660961
0.0684832
0.0706872
0.0726961
0.0744992
0.0760874
0.0774529
0.0785898
0.0794941
0.0801637
0.0805986
0.0808013
0.0807767
0.0805322
0.0800781
0.0794277
0.078597
0.0776056
0.076476
0.0752344
0.0739101
0.0725358
0.0711474
0.0697837
0.0684858
0.0672961
0.0662579
0.0654148
0.0648082
0.0644604
0.00476067
0.00407189
0.00324874
0.00228262
0.00117734
-3.00157e-05
-0.00130216
-0.00260436
-0.00390304
-0.00516634
-0.00636478
-0.00747157
-0.00846279
-0.00931736
-0.0100171
-0.0105465
-0.0108929
-0.011046
-0.0109979
-0.0107428
-0.0102773
-0.00959975
-0.00871023
-0.00761063
-0.00630437
-0.0047963
-0.00309265
-0.00120089
0.000870366
0.00311139
0.00551147
0.008059
0.0107415
0.0135457
0.0164577
0.019463
0.0225462
0.0256919
0.0288839
0.0321058
0.035341
0.0385727
0.0417837
0.0449572
0.0480763
0.0511242
0.0540844
0.0569409
0.0596781
0.062281
0.0647354
0.0670278
0.0691459
0.0710782
0.0728147
0.0743467
0.0756669
0.0767698
0.0776514
0.0783099
0.0787454
0.0789602
0.0789589
0.0787486
0.0783388
0.0777416
0.0769721
0.0760479
0.0749897
0.0738209
0.0725677
0.071259
0.069926
0.068602
0.0673218
0.0661206
0.0650355
0.0641032
0.0633335
0.0627224
0.00674793
0.00575386
0.00472976
0.00363874
0.00245066
0.00119608
-9.31715e-05
-0.00138906
-0.002664
-0.00389128
-0.00504583
-0.00610463
-0.00704688
-0.00785412
-0.00851025
-0.00900154
-0.00931656
-0.00944608
-0.00938298
-0.00912215
-0.00866037
-0.00799617
-0.0071298
-0.00606303
-0.00479912
-0.00334266
-0.00169953
0.000123198
0.00211736
0.00427375
0.00658221
0.00903169
0.0116103
0.0143056
0.0171041
0.019992
0.0229548
0.0259777
0.0290452
0.0321416
0.0352511
0.0383575
0.0414445
0.0444959
0.0474954
0.0504272
0.0532753
0.0560244
0.0586595
0.0611664
0.0635314
0.0657415
0.0677849
0.0696508
0.0713294
0.0728125
0.074093
0.0751656
0.0760266
0.0766741
0.0771081
0.0773307
0.077346
0.0771606
0.0767831
0.0762246
0.0754989
0.0746218
0.0736119
0.0724901
0.0712795
0.0700054
0.0686949
0.0673762
0.0660785
0.0648308
0.0636652
0.0626122
0.0616494
0.0607456
0.00887909
0.00756625
0.0063221
0.00508301
0.00378605
0.00245652
0.00112186
-0.000195702
-0.0014739
-0.00269061
-0.00382484
-0.00485707
-0.00576948
-0.00654616
-0.00717312
-0.00763836
-0.00793186
-0.00804552
-0.00797309
-0.00771012
-0.00725385
-0.00660314
-0.00575835
-0.00472132
-0.00349522
-0.0020845
-0.000494791
0.00126716
0.00319356
0.00527563
0.00750368
0.00986718
0.0123548
0.0149545
0.0176536
0.0204389
0.0232964
0.0262119
0.0291706
0.0321576
0.0351575
0.0381548
0.041134
0.0440794
0.0469754
0.0498067
0.0525579
0.0552144
0.0577617
0.060186
0.0624742
0.0646137
0.0665933
0.0684023
0.0700313
0.0714724
0.0727186
0.0737648
0.0746073
0.075244
0.0756747
0.0759012
0.0759272
0.0757583
0.0754025
0.0748697
0.0741723
0.0733244
0.0723425
0.0712452
0.0700526
0.0687867
0.0674708
0.0661288
0.0647849
0.0634626
0.06219
0.0609928
0.0598172
0.0586063
0.0110871
0.00945151
0.00797622
0.00657286
0.00514758
0.0037216
0.00231897
0.00095694
-0.00034687
-0.00157444
-0.0027084
-0.00373248
-0.00463169
-0.00539251
-0.00600302
-0.00645296
-0.00673373
-0.00683841
-0.00676168
-0.00649984
-0.00605065
-0.00541337
-0.00458863
-0.00357835
-0.00238575
-0.00101517
0.00052789
0.00223693
0.00410444
0.00612201
0.00828034
0.0105693
0.0129781
0.0154952
0.0181084
0.0208049
0.0235714
0.0263943
0.0292594
0.0321522
0.035058
0.0379618
0.0408486
0.0437033
0.046511
0.0492566
0.0519256
0.0545036
0.0569765
0.0593311
0.0615546
0.0636349
0.0655608
0.0673221
0.0689096
0.0703154
0.0715327
0.0725563
0.0733824
0.0740087
0.0744349
0.0746621
0.0746935
0.074534
0.0741906
0.0736721
0.0729893
0.072155
0.0711836
0.0700913
0.0688957
0.0676157
0.0662711
0.0648822
0.0634688
0.0620498
0.0606503
0.0592921
0.0578919
0.0563688
0.0133159
0.0113595
0.00964763
0.00806916
0.00650138
0.00496252
0.00347411
0.00204918
0.00070135
-0.00055495
-0.00170562
-0.00273731
-0.00363764
-0.00439538
-0.00500057
-0.00544463
-0.0057204
-0.00582213
-0.00574549
-0.00548754
-0.00504667
-0.00442259
-0.00361624
-0.00262974
-0.00146638
-0.000130522
0.00137245
0.00303617
0.00485337
0.0068159
0.0089148
0.0111404
0.0134821
0.0159289
0.0184691
0.0210903
0.0237798
0.0265243
0.0293102
0.0321235
0.03495
0.0377752
0.0405846
0.0433635
0.0460974
0.0487719
0.0513726
0.0538856
0.0562973
0.0585947
0.0607652
0.0627971
0.0646794
0.066402
0.0679558
0.0693329
0.0705267
0.0715316
0.0723437
0.0729607
0.0733814
0.0736068
0.0736393
0.073483
0.0731439
0.0726298
0.0719501
0.0711158
0.0701397
0.0690358
0.0678192
0.0665063
0.0651138
0.0636587
0.0621571
0.0606242
0.0590827
0.057552
0.0559209
0.0540866
0.0155187
0.0132468
0.0112966
0.00953625
0.00781593
0.00615186
0.00456381
0.00306127
0.00165444
0.000354638
-0.000826923
-0.00187953
-0.00279318
-0.00355876
-0.00416818
-0.00461449
-0.0048919
-0.00499585
-0.00492298
-0.00467117
-0.00423946
-0.00362806
-0.00283827
-0.00187249
-0.00073414
0.000572365
0.00204166
0.00366747
0.00544269
0.00735937
0.00940884
0.0115817
0.0138677
0.0162563
0.018736
0.0212949
0.0239207
0.0266006
0.0293214
0.0320695
0.0348311
0.0375921
0.0403385
0.0430559
0.0457303
0.0483475
0.0508935
0.0533548
0.055718
0.0579702
0.0600992
0.0620933
0.0639418
0.0656345
0.0671625
0.0685177
0.0696933
0.0706837
0.0714847
0.0720935
0.0725087
0.0727304
0.0727606
0.0726024
0.072261
0.0717429
0.0710562
0.0702105
0.0692168
0.0680871
0.0668346
0.065473
0.0640166
0.0624796
0.0608751
0.059215
0.0575206
0.0558097
0.0539451
0.0518038
0.0176562
0.0150756
0.012888
0.0109418
0.00906209
0.00726375
0.00556543
0.00397371
0.00249585
0.0011405
-8.36518e-05
-0.00116825
-0.00210545
-0.00288808
-0.0035098
-0.00396518
-0.0042498
-0.00436023
-0.0042941
-0.00405009
-0.00362792
-0.00302834
-0.00225307
-0.0013048
-0.000187163
0.00109533
0.00253728
0.00413246
0.00587385
0.00775367
0.00976342
0.0118939
0.0141354
0.0164773
0.0189087
0.021418
0.0239932
0.0266218
0.0292911
0.0319877
0.0346983
0.0374092
0.0401066
0.0427766
0.0454052
0.0479786
0.0504833
0.0529057
0.0552327
0.0574516
0.0595504
0.0615173
0.0633416
0.0650133
0.0665233
0.0678634
0.0690265
0.0700069
0.0707999
0.0714024
0.0718124
0.0720295
0.0720548
0.0718908
0.0715415
0.0710124
0.0703104
0.0694437
0.0684215
0.0672544
0.0659534
0.0645302
0.0629969
0.0613655
0.0596463
0.0578488
0.0559937
0.0540976
0.0519994
0.0495571
0.0196947
0.0168131
0.0143905
0.0122565
0.010213
0.00827386
0.00645727
0.00476736
0.00320894
0.00178837
0.000512119
-0.000613546
-0.00158271
-0.00239
-0.00303068
-0.00350076
-0.0037971
-0.00391738
-0.0038602
-0.00362506
-0.00321234
-0.00262335
-0.00186026
-0.000926104
0.000175249
0.00143912
0.00286005
0.0044318
0.0061474
0.00799916
0.00997874
0.0120771
0.0142848
0.0165914
0.0189864
0.0214583
0.0239956
0.026586
0.029217
0.0318756
0.0345489
0.0372233
0.0398854
0.0425215
0.0451178
0.0476608
0.050137
0.0525332
0.0548362
0.0570336
0.0591132
0.0610634
0.0628733
0.0645328
0.0660327
0.0673646
0.0685212
0.0694964
0.0702851
0.0708836
0.0712895
0.0715018
0.0715207
0.0713479
0.0709866
0.070441
0.0697169
0.0688212
0.0677618
0.0665474
0.0651876
0.0636922
0.0620716
0.0603355
0.0584926
0.0565502
0.0545287
0.0524445
0.0501138
0.047377
0.0216057
0.0184306
0.0157759
0.0134539
0.0112437
0.00915932
0.00721854
0.00542358
0.00377718
0.00228372
0.000947768
-0.000226262
-0.0012342
-0.00207229
-0.00273727
-0.00322651
-0.00353807
-0.00367071
-0.00362395
-0.0033981
-0.00299422
-0.00241418
-0.00166062
-0.000736948
0.000352703
0.00160346
0.00300972
0.00456523
0.006263
0.00809542
0.0100542
0.0121306
0.014315
0.0165975
0.0189676
0.0214143
0.023926
0.0264909
0.0290966
0.0317305
0.0343797
0.037031
0.0396712
0.0422867
0.044864
0.0473896
0.0498502
0.0522326
0.0545238
0.0567112
0.0587826
0.0607265
0.0625318
0.0641881
0.0656861
0.0670171
0.0681734
0.0691486
0.0699371
0.0705347
0.0709384
0.0711464
0.0711583
0.0709749
0.0705984
0.0700321
0.0692806
0.0683496
0.0672457
0.0659762
0.0645493
0.0629732
0.0612567
0.0594082
0.0574343
0.0553412
0.0531494
0.0508753
0.0483141
0.0452891
0.023364
0.0199026
0.0170193
0.0145095
0.0121313
0.00989859
0.00782938
0.00592422
0.00418415
0.00261187
0.00121027
-1.78632e-05
-0.00106992
-0.0019436
-0.00263702
-0.0031488
-0.00347812
-0.00362477
-0.00358917
-0.00337241
-0.00297624
-0.00240309
-0.00165606
-0.000738957
0.000343783
0.00158705
0.00298511
0.00453159
0.00621949
0.00804121
0.00998854
0.0120527
0.0142244
0.0164938
0.0188505
0.0212837
0.0237821
0.0263339
0.0289271
0.0315492
0.0341874
0.0368288
0.0394603
0.0420684
0.0446397
0.0471609
0.0496185
0.0519995
0.0542908
0.0564798
0.0585542
0.0605023
0.0623128
0.0639751
0.0654796
0.0668172
0.06798
0.0689608
0.0697539
0.0703542
0.0707582
0.0709634
0.0709685
0.0707737
0.0703801
0.0697902
0.0690074
0.0680362
0.0668822
0.0655514
0.0640507
0.0623871
0.0605681
0.0586007
0.0564904
0.0542422
0.0518772
0.0494124
0.0466226
0.043315
0.0249476
0.0212063
0.0180977
0.0154012
0.0128543
0.0104713
0.0082707
0.00625162
0.00441364
0.00275804
0.00128628
-3.19954e-07
-0.00110054
-0.00201341
-0.00273829
-0.00327497
-0.00362368
-0.00378518
-0.00376077
-0.00355228
-0.00316214
-0.00259335
-0.00184948
-0.000934739
0.000146115
0.00138772
0.00278415
0.00432891
0.00601492
0.00783458
0.00977969
0.0118415
0.0140109
0.0162779
0.0186325
0.0210639
0.023561
0.0261121
0.0287054
0.0313284
0.0339686
0.0366131
0.0392489
0.0418626
0.0444409
0.0469704
0.0494377
0.0518296
0.0541331
0.0563353
0.0584239
0.0603868
0.0622126
0.0638904
0.0654101
0.0667623
0.0679385
0.0689313
0.0697342
0.0703415
0.0707491
0.0709538
0.0709535
0.0707474
0.0703359
0.0697205
0.0689036
0.0678888
0.0666805
0.0652836
0.063704
0.0619476
0.0600207
0.0579295
0.0556786
0.053272
0.0507317
0.0480756
0.045059
0.0414736
0.0263365
0.0223208
0.0189902
0.0161081
0.0133925
0.0108582
0.00852417
0.00638854
0.0044496
0.00270742
0.00116219
-0.000186038
-0.00133731
-0.00229186
-0.00305021
-0.0036132
-0.00398208
-0.00415851
-0.0041446
-0.00394295
-0.00355663
-0.0029892
-0.00224474
-0.00132783
-0.000243573
0.00100239
0.00240393
0.00395438
0.00564657
0.00747284
0.00942498
0.0114943
0.0136716
0.0159471
0.0183108
0.020752
0.0232596
0.0258222
0.028428
0.0310646
0.0337196
0.0363801
0.0390331
0.0416654
0.0442635
0.0468141
0.0493038
0.051719
0.0540468
0.056274
0.058388
0.0603766
0.062228
0.063931
0.065475
0.0668502
0.0680476
0.0690591
0.0698776
0.070497
0.0709123
0.0711195
0.0711159
0.0708998
0.0704707
0.0698291
0.0689766
0.0679159
0.0666502
0.0651838
0.0635214
0.061668
0.0596292
0.0574105
0.0550155
0.0524479
0.0497306
0.0468829
0.0436408
0.0397811
0.0275125
0.0232272
0.0196773
0.0166109
0.0137268
0.0110407
0.008572
0.00631809
0.00427613
0.00244513
0.000824177
-0.000587806
-0.001792
-0.00278974
-0.00358262
-0.00417248
-0.00456149
-0.00475217
-0.00474744
-0.00455059
-0.00416535
-0.00359582
-0.00284658
-0.00192263
-0.000829397
0.000427188
0.00184075
0.00340446
0.005111
0.00695262
0.00892108
0.0110077
0.0132032
0.0154979
0.0178818
0.0203443
0.0228743
0.0254606
0.0280912
0.030754
0.0334365
0.0361259
0.0388091
0.0414729
0.0441037
0.0466882
0.0492128
0.0516639
0.0540281
0.0562922
0.0584433
0.0604688
0.0623564
0.0640947
0.0656725
0.0670795
0.0683061
0.0693438
0.0701845
0.0708217
0.0712496
0.0714633
0.0714595
0.0712354
0.0707899
0.0701226
0.0692341
0.0681263
0.0668015
0.0652632
0.0635152
0.0615619
0.0594081
0.0570588
0.0545171
0.0517863
0.0488906
0.0458506
0.0423839
0.0382522
0.0284587
0.0239074
0.0201405
0.016891
0.013839
0.0110008
0.00839687
0.00602364
0.00387739
0.0019562
0.000258178
-0.00121877
-0.00247686
-0.00351843
-0.00434604
-0.0049625
-0.00537084
-0.00557442
-0.00557688
-0.00538222
-0.00499476
-0.00441921
-0.0036606
-0.00272435
-0.00161627
-0.00034255
0.00109018
0.00267487
0.00440407
0.0062699
0.00826404
0.0103777
0.0126018
0.0149265
0.0173417
0.019837
0.0224013
0.0250232
0.027691
0.0303926
0.0331153
0.0358464
0.0385727
0.0412809
0.0439574
0.0465887
0.049161
0.0516605
0.0540736
0.0563868
0.0585868
0.0606605
0.0625955
0.0643795
0.0660011
0.0674493
0.0687139
0.0697857
0.070656
0.0713175
0.0717635
0.0719886
0.0719885
0.0717597
0.0713
0.0706083
0.0696845
0.0685294
0.0671448
0.0655333
0.0636979
0.0616426
0.0593715
0.0568892
0.0541987
0.0513028
0.0482274
0.0449943
0.041303
0.0369003
0.0291589
0.0243445
0.0203623
0.0169308
0.0137113
0.0107212
0.00798176
0.00548873
0.00323758
0.00122556
-0.000550108
-0.00209244
-0.00340458
-0.00448981
-0.0053516
-0.00599363
-0.00641979
-0.00663421
-0.00664126
-0.0064456
-0.00605215
-0.00546616
-0.00469316
-0.003739
-0.00260984
-0.00131219
0.00014706
0.00176067
0.003521
0.00542002
0.00744931
0.00960004
0.0118629
0.0142283
0.0166861
0.0192256
0.021836
0.0245057
0.0272231
0.0299759
0.0327515
0.0355372
0.0383196
0.0410852
0.0438205
0.0465116
0.0491445
0.0517053
0.05418
0.0565547
0.0588156
0.0609495
0.0629432
0.064784
0.0664598
0.0679592
0.0692712
0.0703857
0.0712937
0.0719867
0.0724574
0.0726996
0.072708
0.0724784
0.0720078
0.0712942
0.0703367
0.0691352
0.067691
0.0660057
0.0640821
0.0619234
0.0595335
0.0569165
0.0540752
0.0510125
0.0477558
0.0443285
0.0404119
0.035738
0.0295976
0.0245218
0.0203258
0.0167129
0.0133265
0.0101848
0.00730986
0.00469698
0.00234085
0.000237964
-0.00161525
-0.00322267
-0.0045883
-0.0057163
-0.00661099
-0.00727689
-0.00771868
-0.00794125
-0.00794967
-0.00774925
-0.00734551
-0.00674421
-0.00595137
-0.00497328
-0.00381648
-0.0024878
-0.000994391
0.000656281
0.00245639
0.00439774
0.00647179
0.0086696
0.0109818
0.0133988
0.0159102
0.0185056
0.0211738
0.0239035
0.0266828
0.0294994
0.0323408
0.0351939
0.0380454
0.0408817
0.0436889
0.046453
0.0491597
0.0517948
0.0543439
0.0567928
0.0591273
0.0613335
0.0633978
0.0653069
0.0670481
0.0686092
0.0699785
0.0711454
0.0720997
0.0728323
0.0733351
0.0736009
0.0736236
0.0733983
0.0729209
0.0721888
0.0712001
0.0699541
0.0684513
0.0666928
0.0646808
0.062418
0.0599081
0.0571551
0.0541616
0.0509304
0.0474908
0.0438676
0.0397241
0.0347774
0.0297595
0.0244233
0.020014
0.0162205
0.0126676
0.00937446
0.00636438
0.00363196
0.0011712
-0.00102205
-0.00295214
-0.00462372
-0.00604162
-0.00721083
-0.00813648
-0.00882387
-0.00927846
-0.00950587
-0.00951187
-0.00930238
-0.00888351
-0.00826155
-0.00744301
-0.00643459
-0.00524322
-0.00387608
-0.0023406
-0.000644473
0.00120427
0.00319727
0.00532582
0.00758088
0.00995301
0.0124324
0.0150088
0.0176715
0.0204096
0.0232114
0.0260651
0.0289583
0.0318782
0.0348118
0.0377456
0.0406658
0.0435583
0.0464088
0.0492027
0.0519254
0.0545622
0.0570985
0.0595195
0.0618107
0.0639581
0.0659476
0.0677658
0.0693998
0.0708373
0.0720665
0.0730767
0.0738579
0.074401
0.074698
0.0747418
0.0745266
0.0740476
0.0733011
0.0722847
0.070997
0.0694375
0.0676071
0.0655072
0.0631404
0.0605099
0.0576199
0.0544726
0.0510713
0.0474468
0.0436257
0.0392529
0.0340307
0.0296293
0.0240328
0.0194106
0.0154365
0.0117174
0.00827332
0.00512852
0.0022771
-0.000287547
-0.00257023
-0.00457599
-0.00631024
-0.0077786
-0.00898684
-0.00994087
-0.0106468
-0.0111107
-0.0113391
-0.0113383
-0.0111148
-0.0106755
-0.0100271
-0.00917649
-0.00813093
-0.00689771
-0.00548435
-0.00389856
-0.00214832
-0.000241854
0.0018123
0.00400529
0.00632792
0.00877063
0.0113235
0.0139763
0.0167181
0.019538
0.0224242
0.0253648
0.0283473
0.0313588
0.0343861
0.0374155
0.0404331
0.0434244
0.0463749
0.0492697
0.0520937
0.0548319
0.057469
0.0599898
0.0623793
0.0646227
0.0667053
0.0686129
0.0703318
0.0718489
0.0731515
0.0742281
0.0750676
0.0756602
0.0759967
0.0760692
0.0758711
0.0753965
0.074641
0.0736014
0.0722754
0.0706621
0.0687616
0.0665751
0.0641047
0.0613536
0.0583257
0.0550235
0.0514503
0.0476387
0.0436171
0.0390118
0.0335099
0.0291917
0.0233344
0.0184988
0.0143442
0.010459
0.00686421
0.00358523
0.000615619
-0.00205187
-0.00442264
-0.00650241
-0.00829733
-0.00981378
-0.0110583
-0.0120375
-0.0127583
-0.0132276
-0.0134524
-0.0134399
-0.0131971
-0.0127314
-0.0120502
-0.0111608
-0.0100709
-0.00878816
-0.00732045
-0.00567582
-0.0038625
-0.00188896
0.000236081
0.00250362
0.0049043
0.00742845
0.010066
0.0128066
0.0156394
0.0185532
0.0215362
0.0245764
0.0276611
0.0307773
0.0339116
0.0370502
0.0401788
0.0432828
0.0463472
0.0493568
0.0522962
0.0551497
0.0579016
0.0605362
0.0630377
0.0653907
0.0675797
0.0695898
0.0714063
0.0730152
0.0744032
0.0755574
0.076466
0.077118
0.0775035
0.0776135
0.0774402
0.0769772
0.0762189
0.0751613
0.0738015
0.072138
0.0701702
0.0678989
0.065326
0.0624545
0.0592882
0.0558298
0.0520827
0.0480815
0.0438564
0.0390146
0.0332277
0.0284311
0.0223114
0.0172617
0.0129262
0.00887484
0.00512974
0.00171721
-0.00136962
-0.00413862
-0.00659578
-0.00874748
-0.0106006
-0.0121622
-0.0134397
-0.0144404
-0.0151719
-0.0156419
-0.0158581
-0.0158283
-0.0155602
-0.0150618
-0.014341
-0.0134055
-0.0122636
-0.0109233
-0.00939275
-0.0076804
-0.00579475
-0.0037445
-0.00153858
0.000813833
0.00330325
0.00591985
0.00865348
0.0114936
0.0144293
0.0174492
0.0205415
0.023694
0.026894
0.0301282
0.0333831
0.0366446
0.0398981
0.0431287
0.0463213
0.0494601
0.0525292
0.0555125
0.0583937
0.0611565
0.0637844
0.0662611
0.0685706
0.0706969
0.0726246
0.0743386
0.0758245
0.0770686
0.078058
0.0787807
0.0792255
0.0793826
0.0792431
0.0787996
0.0780457
0.0769764
0.0755882
0.0738788
0.0718472
0.0694936
0.0668198
0.0638284
0.0605235
0.0569077
0.0529847
0.0487911
0.0443588
0.0392757
0.0331974
0.0273313
0.0209473
0.0156822
0.011165
0.00694735
0.00305212
-0.000493262
-0.00369618
-0.00656509
-0.0091066
-0.0113277
-0.0132361
-0.0148395
-0.016146
-0.0171639
-0.0179014
-0.0183669
-0.0185689
-0.0185157
-0.0182158
-0.0176778
-0.0169099
-0.0159207
-0.0147187
-0.0133122
-0.01171
-0.00992076
-0.00795319
-0.0058163
-0.00351924
-0.00107138
0.00151765
0.0042379
0.00707908
0.0100305
0.0130812
0.0162197
0.019434
0.0227117
0.0260402
0.0294059
0.032795
0.0361933
0.0395859
0.0429576
0.0462928
0.0495754
0.0527891
0.0559172
0.0589427
0.0618486
0.0646178
0.0672333
0.069678
0.0719352
0.0739884
0.0758215
0.0774191
0.0787663
0.0798492
0.0806545
0.0811702
0.0813851
0.0812894
0.0808746
0.0801332
0.0790596
0.0776492
0.0758991
0.0738078
0.0713751
0.0686023
0.0654921
0.0620485
0.0582742
0.0541732
0.0497839
0.0451404
0.0398103
0.033433
0.0258759
0.0192248
0.0137424
0.00904267
0.00465826
0.000613069
-0.00306443
-0.00638214
-0.00934913
-0.0119726
-0.0142603
-0.0162205
-0.0178618
-0.019193
-0.0202231
-0.0209612
-0.0214164
-0.0215979
-0.0215147
-0.021176
-0.0205908
-0.0197681
-0.0187169
-0.0174461
-0.0159647
-0.0142815
-0.0124057
-0.0103463
-0.00811255
-0.00571381
-0.00315966
-0.000459896
0.0023754
0.00533583
0.0084106
0.0115885
0.0148581
0.0182072
0.0216234
0.0250936
0.0286044
0.0321417
0.035691
0.0392371
0.0427646
0.0462573
0.0496988
0.0530723
0.0563604
0.0595458
0.0626105
0.0655367
0.0683065
0.070902
0.0733055
0.0754994
0.0774666
0.0791905
0.0806552
0.0818454
0.0827466
0.0833457
0.0836303
0.0835895
0.0832135
0.082494
0.0814242
0.0799988
0.0782142
0.0760681
0.07356
0.0706909
0.0674632
0.0638811
0.0599472
0.0556658
0.0510775
0.0462181
0.0406348
0.0339498
0.0240474
0.0171258
0.011424
0.00654047
0.00198875
-0.0022063
-0.00601515
-0.00944621
-0.0125092
-0.015212
-0.017563
-0.0195711
-0.0212459
-0.0225968
-0.0236337
-0.0243665
-0.024805
-0.0249591
-0.0248386
-0.0244534
-0.0238129
-0.022927
-0.021805
-0.0204564
-0.0188905
-0.0171167
-0.0151444
-0.0129829
-0.0106417
-0.00813042
-0.00545888
-0.00263701
0.000324963
0.00341651
0.00662675
0.0099444
0.0133578
0.0168547
0.0204225
0.0240481
0.0277179
0.0314175
0.0351321
0.0388464
0.0425446
0.04621
0.049826
0.0533749
0.0568391
0.0602003
0.06344
0.0665396
0.0694801
0.0722428
0.0748088
0.0771597
0.079277
0.081143
0.0827404
0.0840528
0.0850644
0.0857607
0.0861281
0.0861543
0.0858285
0.0851412
0.0840846
0.0826525
0.0808403
0.0786453
0.0760663
0.0731039
0.0697606
0.0660403
0.0619458
0.0574817
0.0526905
0.0476102
0.0417664
0.034764
0.0218279
0.0146317
0.00870783
0.00363903
-0.00108073
-0.0054256
-0.00936497
-0.0129078
-0.0160645
-0.0188436
-0.0212541
-0.0233059
-0.0250091
-0.0263743
-0.0274119
-0.0281327
-0.0285474
-0.0286667
-0.028501
-0.0280609
-0.0273566
-0.0263984
-0.0251962
-0.0237602
-0.0221
-0.0202254
-0.0181461
-0.0158718
-0.0134123
-0.0107774
-0.00797707
-0.00502147
-0.00192096
0.00131381
0.00467186
0.00814181
0.0117119
0.0153697
0.0191027
0.0228974
0.0267401
0.0306163
0.034511
0.0384085
0.0422926
0.0461464
0.0499526
0.0536932
0.0573498
0.0609035
0.0643351
0.067625
0.0707535
0.0737006
0.0764465
0.0789714
0.0812559
0.0832808
0.0850275
0.0864782
0.0876159
0.0884244
0.0888888
0.0889956
0.0887326
0.0880891
0.0870562
0.0856266
0.0837948
0.0815575
0.0789127
0.0758609
0.0724041
0.0685463
0.0642903
0.059641
0.054643
0.0493363
0.0432242
0.0358935
0.0191984
0.011723
0.00557401
0.000318111
-0.00457058
-0.00906527
-0.0131343
-0.0167871
-0.0200349
-0.0228869
-0.0253528
-0.0274434
-0.0291697
-0.0305429
-0.0315745
-0.0322762
-0.0326593
-0.0327355
-0.032516
-0.032012
-0.0312346
-0.0301944
-0.0289023
-0.0273685
-0.0256036
-0.0236175
-0.0214204
-0.0190223
-0.0164332
-0.0136631
-0.0107223
-0.00762112
-0.00436996
-0.000979655
0.00253874
0.00617376
0.00991354
0.0137457
0.0176574
0.0216351
0.025665
0.0297323
0.0338219
0.0379177
0.0420034
0.0460615
0.0500742
0.0540231
0.0578891
0.0616526
0.0652936
0.0687917
0.072126
0.0752757
0.0782196
0.0809369
0.0834067
0.0856085
0.0875223
0.0891288
0.0904093
0.0913464
0.0919236
0.0921258
0.0919395
0.0913527
0.0903551
0.0889384
0.0870962
0.0848241
0.0821197
0.0789827
0.0754152
0.0714209
0.0670028
0.0621656
0.0569565
0.0514174
0.0450285
0.0373577
0.016139
0.00837924
0.00200159
-0.00344347
-0.00850215
-0.0131467
-0.0173444
-0.0211053
-0.0244414
-0.0273625
-0.0298792
-0.0320032
-0.0337463
-0.0351208
-0.0361391
-0.0368136
-0.0371567
-0.0371808
-0.0368982
-0.0363206
-0.0354599
-0.0343276
-0.0329348
-0.0312926
-0.0294119
-0.0273031
-0.0249768
-0.0224433
-0.019713
-0.016796
-0.0137028
-0.0104438
-0.00702962
-0.00347123
0.000220258
0.00403331
0.007956
0.0119759
0.01608
0.0202549
0.0244863
0.0287595
0.0330591
0.0373688
0.0416718
0.0459505
0.0501864
0.0543607
0.0584536
0.0624448
0.0663134
0.0700381
0.0735971
0.0769684
0.0801297
0.0830586
0.085733
0.088131
0.0902309
0.0920118
0.0934536
0.0945371
0.0952441
0.0955581
0.0954639
0.094948
0.0939988
0.0926067
0.0907641
0.0884659
0.0857087
0.0824918
0.0788169
0.0746875
0.0701066
0.0650792
0.0596545
0.0538766
0.0472015
0.0391778
0.0126289
0.0045788
-0.00203144
-0.00766799
-0.0128979
-0.0176924
-0.0220177
-0.0258845
-0.0293056
-0.0322916
-0.0348541
-0.0370055
-0.0387587
-0.0401269
-0.0411236
-0.0417622
-0.042056
-0.0420184
-0.0416624
-0.0410007
-0.040046
-0.0388104
-0.0373057
-0.0355437
-0.0335355
-0.0312923
-0.028825
-0.0261441
-0.0232604
-0.0201843
-0.0169263
-0.0134971
-0.00990733
-0.0061681
-0.00229058
0.00171364
0.00583259
0.0100538
0.0143643
0.0187504
0.023198
0.027692
0.0322169
0.0367562
0.0412927
0.0458085
0.0502848
0.054702
0.0590398
0.0632771
0.0673922
0.0713629
0.0751663
0.0787792
0.082178
0.085339
0.0882386
0.0908533
0.0931597
0.0951353
0.0967582
0.0980073
0.0988629
0.0993065
0.0993212
0.098892
0.0980056
0.0966511
0.0948197
0.0925051
0.0897031
0.0864123
0.0826338
0.0783713
0.0736272
0.068407
0.0627621
0.0567387
0.0497675
0.0413769
0.00864597
0.00029897
-0.00654826
-0.0123789
-0.0177814
-0.0227259
-0.0271776
-0.031148
-0.0346506
-0.0376969
-0.0402993
-0.0424715
-0.0442272
-0.0455809
-0.046547
-0.04714
-0.0473743
-0.0472643
-0.0468239
-0.0460668
-0.0450064
-0.0436556
-0.042027
-0.0401329
-0.0379851
-0.0355951
-0.0329742
-0.0301335
-0.0270838
-0.023836
-0.0204006
-0.0167884
-0.0130102
-0.00907719
-0.00500052
-0.000791837
0.00353688
0.00797316
0.012504
0.0171157
0.0217941
0.026524
0.0312897
0.0360745
0.040861
0.0456308
0.0503649
0.055043
0.0596441
0.0641466
0.0685279
0.0727647
0.076833
0.0807084
0.0843661
0.0877809
0.0909275
0.0937807
0.0963155
0.0985075
0.100333
0.101769
0.102793
0.103386
0.103528
0.103203
0.102395
0.101093
0.0992856
0.0969655
0.0941278
0.0907699
0.0868927
0.0824994
0.0775922
0.0721767
0.0663067
0.0600307
0.0527529
0.0439804
0.00416681
-0.00448431
-0.0115734
-0.0176011
-0.0231776
-0.0282722
-0.032849
-0.0369203
-0.0405003
-0.0436016
-0.0462378
-0.0484232
-0.0501732
-0.051503
-0.0524286
-0.0529654
-0.0531291
-0.052935
-0.0523981
-0.0515333
-0.0503546
-0.0488759
-0.0471105
-0.0450713
-0.0427708
-0.040221
-0.0374336
-0.03442
-0.0311914
-0.0277587
-0.0241329
-0.0203247
-0.016345
-0.012205
-0.00791589
-0.00348929
0.00106282
0.00572801
0.0104933
0.0153451
0.020269
0.0252499
0.030272
0.0353185
0.0403716
0.0454127
0.0504222
0.0553796
0.0602632
0.0650506
0.0697182
0.0742419
0.0785966
0.0827565
0.0866955
0.0903869
0.0938036
0.0969187
0.0997054
0.102137
0.104188
0.105833
0.107048
0.107812
0.108102
0.1079
0.107189
0.105955
0.104186
0.101873
0.0990096
0.0955927
0.0916223
0.0871011
0.0820314
0.0764183
0.0703184
0.0637822
0.0561864
0.0470161
-0.000833256
-0.0097965
-0.0171329
-0.0233608
-0.029113
-0.0343578
-0.0390582
-0.0432272
-0.0468802
-0.0500307
-0.0526934
-0.0548839
-0.0566187
-0.0579146
-0.0587885
-0.0592574
-0.0593381
-0.0590472
-0.0584009
-0.0574148
-0.0561042
-0.0544839
-0.0525679
-0.0503698
-0.0479029
-0.0451795
-0.0422118
-0.0390117
-0.0355906
-0.0319597
-0.0281299
-0.0241123
-0.0199178
-0.0155574
-0.0110424
-0.00638437
-0.00159514
0.0033129
0.00832681
0.0134331
0.0186174
0.0238646
0.0291589
0.0344832
0.0398198
0.0451496
0.0504527
0.0557081
0.0608936
0.065986
0.0709609
0.0757932
0.0804566
0.084924
0.0891679
0.0931599
0.0968712
0.100273
0.103337
0.106033
0.108334
0.110213
0.111644
0.112601
0.113061
0.113003
0.112409
0.111261
0.109547
0.107255
0.104377
0.100911
0.0968537
0.0922085
0.0869769
0.0811643
0.0748294
0.0680253
0.0600996
0.0505143
-0.00638042
-0.0156647
-0.0232543
-0.0296859
-0.0356157
-0.0410108
-0.045833
-0.0500963