/*--------------------------------*- C++ -*----------------------------------*\
  =========                 |
  \\      /  F ield         | OpenFOAM: The Open Source CFD Toolbox
   \\    /   O peration     | Website:  https://openfoam.org
    \\  /    A nd           | Version:  7
     \\/     M anipulation  |
\*---------------------------------------------------------------------------*/
FoamFile
{
    version     2.0;
    format      ascii;
    class       volVectorField;
    location    "13";
    object      U;
}
// * * * * * * * * * * * * * * * * * * * * * * * * * * * * * * * * * * * * * //

dimensions      [0 1 -1 0 0 0 0];

internalField   nonuniform List<vector> 
135168
(
(1.4 -2.53442e-17 0)
(1.4 1.47801e-17 0)
(1.4 -5.03098e-17 0)
(1.4 -3.34682e-17 0)
(1.4 -2.90734e-17 0)
(1.4 -7.82898e-17 0)
(1.4 -1.27557e-16 0)
(1.4 -2.73733e-16 0)
(1.4 -2.83605e-16 0)
(1.4 -3.07979e-16 0)
(1.4 -2.85525e-16 0)
(1.4 -2.5075e-16 0)
(1.4 -2.64824e-16 0)
(1.4 -2.88531e-16 0)
(1.4 -2.36382e-16 0)
(1.4 -1.47747e-16 0)
(1.4 -1.01497e-16 0)
(1.4 -8.22371e-17 0)
(1.4 -1.30192e-16 0)
(1.4 -1.09624e-17 0)
(1.4 2.19787e-18 0)
(1.4 -3.43917e-17 0)
(1.4 -5.1648e-17 0)
(1.4 -9.25896e-17 0)
(1.4 -1.85481e-16 0)
(1.4 -3.44105e-16 0)
(1.4 -4.34145e-16 0)
(1.4 -4.94987e-16 0)
(1.4 -5.36837e-16 0)
(1.4 -6.33329e-16 0)
(1.4 -4.6042e-16 0)
(1.4 -3.29711e-16 0)
(1.4 -2.54207e-16 0)
(1.4 -2.51118e-16 0)
(1.4 -6.52505e-16 0)
(1.4 -7.53376e-16 0)
(1.4 -7.28787e-16 0)
(1.4 -6.45442e-16 0)
(1.4 -6.15377e-16 0)
(1.4 -5.35879e-16 0)
(1.4 -4.29288e-16 0)
(1.4 -3.8195e-16 0)
(1.4 -3.51734e-16 0)
(1.4 -2.13461e-16 0)
(1.4 1.11799e-17 0)
(1.4 1.97762e-16 0)
(1.4 4.65067e-16 0)
(1.4 7.40752e-16 0)
(1.4 1.14774e-15 0)
(1.4 1.24016e-15 0)
(1.4 1.37329e-15 0)
(1.4 1.52409e-15 0)
(1.4 1.49027e-15 0)
(1.4 1.29061e-15 0)
(1.4 1.3969e-15 0)
(1.4 1.47207e-15 0)
(1.4 1.48247e-15 0)
(1.4 1.5541e-15 0)
(1.4 1.53578e-15 0)
(1.4 1.53381e-15 0)
(1.4 1.48479e-15 0)
(1.4 1.49087e-15 0)
(1.4 1.51254e-15 0)
(1.4 1.60517e-15 0)
(1.4 1.52035e-15 0)
(1.4 1.10691e-15 0)
(1.4 1.00127e-15 0)
(1.4 9.9482e-16 0)
(1.4 1.09203e-15 0)
(1.4 1.20207e-15 0)
(1.4 1.2519e-15 0)
(1.4 1.23252e-15 0)
(1.4 1.23031e-15 0)
(1.4 1.27379e-15 0)
(1.4 1.26977e-15 0)
(1.4 1.26705e-15 0)
(1.4 1.30535e-15 0)
(1.4 1.27785e-15 0)
(1.4 1.1491e-15 0)
(1.4 1.06723e-15 0)
(1.4 8.96578e-16 0)
(1.4 7.12341e-16 0)
(1.4 6.12872e-16 0)
(1.4 5.48393e-16 0)
(1.4 5.59422e-16 0)
(1.4 6.15913e-16 0)
(1.4 5.50065e-16 0)
(1.4 3.3841e-16 0)
(1.4 3.7819e-16 0)
(1.4 2.73886e-16 0)
(1.4 -1.02765e-17 0)
(1.4 -2.68198e-16 0)
(1.4 -3.39075e-16 0)
(1.4 -5.85541e-16 0)
(1.4 -8.36151e-16 0)
(1.4 -9.94953e-16 0)
(1.4 -1.02426e-15 0)
(1.4 -1.049e-15 0)
(1.4 -1.03162e-15 0)
(1.4 -8.86486e-16 0)
(1.4 -6.1335e-16 0)
(1.4 -4.98733e-16 0)
(1.4 -1.35011e-16 0)
(1.4 6.10572e-17 0)
(1.4 6.80871e-16 0)
(1.4 1.00505e-15 0)
(1.4 1.06933e-15 0)
(1.4 1.06706e-15 0)
(1.4 9.5084e-16 0)
(1.4 9.30507e-16 0)
(1.4 8.93785e-16 0)
(1.4 8.73756e-16 0)
(1.4 7.00163e-16 0)
(1.4 5.4313e-16 0)
(1.4 4.21479e-16 0)
(1.4 3.09458e-16 0)
(1.4 2.63642e-16 0)
(1.4 1.99296e-16 0)
(1.4 2.05037e-16 0)
(1.4 1.73453e-16 0)
(1.4 8.41055e-17 0)
(1.4 -7.48928e-18 0)
(1.4 5.04376e-17 0)
(1.4 6.67912e-17 0)
(1.4 -3.27762e-17 0)
(1.4 -2.26325e-16 0)
(1.4 -2.30783e-16 0)
(1.4 -1.05539e-16 0)
(1.4 -8.96796e-17 0)
(1.4 1.46626e-16 0)
(1.4 2.2439e-16 0)
(1.4 2.16695e-16 0)
(1.4 3.04777e-16 0)
(1.4 3.99322e-16 0)
(1.4 5.38953e-16 0)
(1.4 5.94421e-16 0)
(1.4 5.96652e-16 0)
(1.4 5.60142e-16 0)
(1.4 5.49074e-16 0)
(1.4 5.90832e-16 0)
(1.4 6.86681e-16 0)
(1.4 1.01029e-15 0)
(1.4 1.21991e-15 0)
(1.4 1.2067e-15 0)
(1.4 1.29172e-15 0)
(1.4 1.51068e-15 0)
(1.4 1.79142e-15 0)
(1.4 1.84028e-15 0)
(1.4 1.89948e-15 0)
(1.4 2.00395e-15 0)
(1.4 2.20964e-15 0)
(1.4 2.15034e-15 0)
(1.4 1.81309e-15 0)
(1.4 1.44567e-15 0)
(1.4 1.2229e-15 0)
(1.4 1.10737e-15 0)
(1.4 1.05857e-15 0)
(1.4 1.01498e-15 0)
(1.4 8.43066e-16 0)
(1.4 7.8018e-16 0)
(1.4 6.96422e-16 0)
(1.4 6.60015e-16 0)
(1.4 5.62396e-16 0)
(1.4 4.64714e-16 0)
(1.4 4.9569e-16 0)
(1.4 6.66209e-16 0)
(1.4 7.47953e-16 0)
(1.4 8.16017e-16 0)
(1.4 8.90569e-16 0)
(1.4 9.68772e-16 0)
(1.4 9.4372e-16 0)
(1.4 8.82881e-16 0)
(1.4 7.39523e-16 0)
(1.4 8.13815e-16 0)
(1.4 8.23959e-16 0)
(1.4 8.50581e-16 0)
(1.4 6.99412e-16 0)
(1.4 4.92174e-16 0)
(1.4 4.3897e-16 0)
(1.4 3.69846e-16 0)
(1.4 3.96828e-16 0)
(1.4 5.13824e-16 0)
(1.4 5.43727e-16 0)
(1.4 5.29127e-16 0)
(1.4 4.32444e-16 0)
(1.4 3.37979e-17 0)
(1.4 -7.25341e-17 0)
(1.4 -9.58138e-17 0)
(1.4 -1.08514e-16 0)
(1.4 1.40563e-16 0)
(1.4 2.34165e-16 0)
(1.4 3.3997e-16 0)
(1.4 2.97855e-16 0)
(1.4 1.70915e-16 0)
(1.4 -8.28676e-17 0)
(1.4 -2.72654e-16 0)
(1.4 -3.28592e-16 0)
(1.4 -4.48661e-16 0)
(1.4 -2.90432e-16 0)
(1.4 8.53573e-19 0)
(1.4 5.16046e-17 0)
(1.4 1.59628e-16 0)
(1.4 2.94548e-16 0)
(1.4 2.60733e-16 0)
(1.4 1.89567e-16 0)
(1.4 2.13063e-16 0)
(1.4 2.61578e-16 0)
(1.4 3.09548e-16 0)
(1.4 3.75138e-16 0)
(1.4 3.70342e-16 0)
(1.4 5.29572e-16 0)
(1.4 6.32723e-16 0)
(1.4 6.93313e-16 0)
(1.4 7.47573e-16 0)
(1.4 8.05073e-16 0)
(1.4 9.04883e-16 0)
(1.4 9.08551e-16 0)
(1.4 8.83093e-16 0)
(1.4 9.61578e-16 0)
(1.4 1.13716e-15 0)
(1.4 1.04465e-15 0)
(1.4 8.70441e-16 0)
(1.4 7.72497e-16 0)
(1.4 5.32941e-16 0)
(1.4 2.76332e-16 0)
(1.4 -2.34261e-16 0)
(1.4 -3.48137e-16 0)
(1.4 -3.33408e-16 0)
(1.4 -3.11515e-16 0)
(1.4 -3.89826e-16 0)
(1.4 -5.62209e-16 0)
(1.4 -7.28367e-16 0)
(1.4 -7.6094e-16 0)
(1.4 -7.06788e-16 0)
(1.4 -6.70333e-16 0)
(1.4 -6.99976e-16 0)
(1.4 -6.84055e-16 0)
(1.4 -5.00056e-16 0)
(1.4 -3.44689e-16 0)
(1.4 -3.49456e-16 0)
(1.4 -3.34941e-16 0)
(1.4 -2.60831e-16 0)
(1.4 -1.80701e-16 0)
(1.4 -2.42435e-16 0)
(1.4 -1.68231e-16 0)
(1.4 -2.84519e-16 0)
(1.4 -4.79933e-16 0)
(1.4 -6.66754e-16 0)
(1.4 -6.8712e-16 0)
(1.4 -6.73345e-16 0)
(1.4 -7.82875e-16 0)
(1.4 -9.07626e-16 0)
(1.4 -1.03325e-15 0)
(1.4 -1.02954e-15 0)
(1.4 -8.99284e-16 0)
(1.4 -8.44829e-16 0)
(1.4 -7.753e-16 0)
(1.4 -1.08733e-15 0)
(1.4 -1.16861e-15 0)
(1.4 -1.16239e-15 0)
(1.4 -1.10275e-15 0)
(1.4 -1.20063e-15 0)
(1.4 -1.17244e-15 0)
(1.4 -1.3002e-15 0)
(1.4 -1.36328e-15 0)
(1.4 -1.34294e-15 0)
(1.4 -1.31121e-15 0)
(1.4 -1.40406e-15 0)
(1.4 -1.26662e-15 0)
(1.4 -1.26919e-15 0)
(1.4 -1.16702e-15 0)
(1.4 -7.07036e-16 0)
(1.4 -5.76065e-16 0)
(1.4 -4.43182e-16 0)
(1.4 -1.51351e-16 0)
(1.4 1.56459e-16 0)
(1.4 4.42204e-16 0)
(1.4 4.20178e-16 0)
(1.4 3.56633e-16 0)
(1.4 3.11175e-16 0)
(1.4 2.9491e-16 0)
(1.4 1.41211e-16 0)
(1.4 -7.68243e-17 0)
(1.4 -9.57844e-17 0)
(1.4 -1.62237e-16 0)
(1.4 -1.27511e-16 0)
(1.4 4.65341e-17 0)
(1.4 5.29946e-17 0)
(1.4 -7.93984e-17 0)
(1.4 -1.70795e-16 0)
(1.4 -3.35062e-16 0)
(1.4 -6.069e-16 0)
(1.4 -7.40027e-16 0)
(1.4 -9.34492e-16 0)
(1.4 -1.10266e-15 0)
(1.4 -1.17482e-15 0)
(1.4 -1.25034e-15 0)
(1.4 -1.41423e-15 0)
(1.4 -1.41582e-15 0)
(1.4 -1.3727e-15 0)
(1.4 -1.07252e-15 0)
(1.4 -7.08658e-16 0)
(1.4 -6.83264e-16 0)
(1.4 -4.89395e-16 0)
(1.4 -2.81648e-16 0)
(1.4 -1.6657e-16 0)
(1.4 4.20506e-18 0)
(1.4 6.38903e-17 0)
(1.4 -2.46326e-16 0)
(1.4 -3.88666e-16 0)
(1.4 -5.06954e-16 0)
(1.4 -9.10914e-16 0)
(1.4 -1.10725e-15 0)
(1.4 -1.26314e-15 0)
(1.4 -1.37621e-15 0)
(1.4 -1.50741e-15 0)
(1.4 -1.65709e-15 0)
(1.4 -1.79188e-15 0)
(1.4 -1.79077e-15 0)
(1.4 -1.58227e-15 0)
(1.4 -1.60906e-15 0)
(1.4 -1.44957e-15 0)
(1.4 -9.42498e-16 0)
(1.4 -6.68178e-16 0)
(1.4 -6.9319e-16 0)
(1.4 -6.66158e-16 0)
(1.4 -6.4271e-16 0)
(1.4 -5.06382e-16 0)
(1.4 -4.09983e-16 0)
(1.4 -2.29883e-16 0)
(1.4 9.24648e-17 0)
(1.4 2.90839e-16 0)
(1.4 4.92412e-16 0)
(1.4 4.79631e-16 0)
(1.4 6.40983e-16 0)
(1.4 5.64454e-16 0)
(1.4 6.46002e-16 0)
(1.4 5.12657e-16 0)
(1.4 4.20786e-16 0)
(1.4 3.81469e-16 0)
(1.4 3.98715e-16 0)
(1.4 3.58622e-16 0)
(1.4 1.6693e-16 0)
(1.4 -3.13458e-18 0)
(1.4 -7.53695e-17 0)
(1.4 1.84066e-16 0)
(1.4 1.89845e-16 0)
(1.4 -1.39803e-16 0)
(1.4 -4.64939e-16 0)
(1.4 -6.98321e-16 0)
(1.4 -8.7401e-16 0)
(1.4 -1.22236e-15 0)
(1.4 -1.34602e-15 0)
(1.4 -1.17497e-15 0)
(1.4 -8.81009e-16 0)
(1.4 -8.03952e-16 0)
(1.4 -8.12839e-16 0)
(1.4 -6.61524e-16 0)
(1.4 -4.92244e-16 0)
(1.4 -3.68491e-16 0)
(1.4 -2.76973e-16 0)
(1.4 5.59087e-17 0)
(1.4 2.02355e-16 0)
(1.4 2.74507e-16 0)
(1.4 4.66399e-16 0)
(1.4 4.64458e-16 0)
(1.4 5.639e-16 0)
(1.4 7.8297e-16 0)
(1.4 8.80735e-16 0)
(1.4 9.28433e-16 0)
(1.4 1.11496e-15 0)
(1.4 1.22545e-15 0)
(1.4 1.09362e-15 0)
(1.4 9.65389e-16 0)
(1.4 7.46762e-16 0)
(1.4 5.67088e-16 0)
(1.4 5.35754e-16 0)
(1.4 5.67186e-16 0)
(1.4 5.83192e-16 0)
(1.4 6.60609e-16 0)
(1.4 5.77293e-16 0)
(1.4 6.58327e-16 0)
(1.4 4.63542e-16 0)
(1.4 1.09626e-15 0)
(1.4 -1.14086e-17 0)
(1.4 -4.7699e-17 0)
(1.4 7.23041e-17 0)
(1.4 8.10669e-17 0)
(1.4 4.9895e-17 0)
(1.4 5.86115e-17 0)
(1.4 7.02198e-19 0)
(1.4 5.18264e-17 0)
(1.4 1.75758e-16 0)
(1.4 3.10982e-16 0)
(1.4 4.48607e-16 0)
(1.4 5.78761e-16 0)
(1.4 5.41133e-16 0)
(1.4 4.11945e-16 0)
(1.4 4.07874e-16 0)
(1.4 3.88451e-16 0)
(1.4 4.53251e-16 0)
(1.4 4.82585e-16 0)
(1.4 5.05703e-16 0)
(1.4 5.10457e-16 0)
(1.4 4.56371e-16 0)
(1.4 4.08798e-16 0)
(1.4 4.25621e-16 0)
(1.4 3.30163e-16 0)
(1.4 2.10355e-16 0)
(1.4 1.12594e-17 0)
(1.4 -1.7175e-16 0)
(1.4 -2.76115e-16 0)
(1.4 -4.98147e-16 0)
(1.4 -6.77359e-16 0)
(1.4 -8.20924e-16 0)
(1.4 -9.22133e-16 0)
(1.4 -1.1271e-15 0)
(1.4 -1.33517e-15 0)
(1.4 -1.70019e-15 0)
(1.4 -1.72285e-15 0)
(1.4 -1.81308e-15 0)
(1.4 -1.64421e-15 0)
(1.4 -1.61552e-15 0)
(1.4 -1.70669e-15 0)
(1.4 -1.0518e-15 0)
(1.4 -7.23687e-16 0)
(1.4 -5.84033e-16 0)
(1.4 -4.76755e-16 0)
(1.4 -4.01069e-16 0)
(1.4 -2.29578e-16 0)
(1.4 3.13298e-16 0)
(1.4 1.15964e-15 0)
(1.4 1.44796e-15 0)
(1.4 1.6609e-15 0)
(1.4 1.55984e-15 0)
(1.4 1.55971e-15 0)
(1.4 1.58971e-15 0)
(1.4 1.52554e-15 0)
(1.4 1.64858e-15 0)
(1.4 1.12344e-15 0)
(1.4 1.02141e-15 0)
(1.4 9.43882e-16 0)
(1.4 6.99525e-16 0)
(1.4 6.72985e-16 0)
(1.4 6.98595e-16 0)
(1.4 7.364e-16 0)
(1.4 6.84403e-16 0)
(1.4 6.08077e-16 0)
(1.4 5.80555e-16 0)
(1.4 5.11158e-16 0)
(1.4 5.06031e-16 0)
(1.4 9.11421e-16 0)
(1.4 1.17477e-15 0)
(1.4 1.45063e-15 0)
(1.4 1.67719e-15 0)
(1.4 1.80046e-15 0)
(1.4 1.75056e-15 0)
(1.4 1.5127e-15 0)
(1.4 1.23378e-15 0)
(1.4 8.83316e-16 0)
(1.4 4.42799e-16 0)
(1.4 2.62115e-16 0)
(1.4 -7.62725e-17 0)
(1.4 -1.23662e-16 0)
(1.4 -1.67125e-16 0)
(1.4 -2.62801e-16 0)
(1.4 -1.61175e-16 0)
(1.4 -1.15451e-17 0)
(1.4 2.63074e-16 0)
(1.4 3.79736e-16 0)
(1.4 3.08881e-16 0)
(1.4 8.82855e-17 0)
(1.4 -1.17427e-16 0)
(1.4 -2.48223e-16 0)
(1.4 -7.41574e-16 0)
(1.4 -9.75377e-16 0)
(1.4 -1.09598e-15 0)
(1.4 -1.11356e-15 0)
(1.4 -1.04596e-15 0)
(1.4 -1.00651e-15 0)
(1.4 -8.76746e-16 0)
(1.4 -9.3747e-16 0)
(1.4 -1.11043e-15 0)
(1.4 -1.15976e-15 0)
(1.4 -9.53635e-16 0)
(1.4 -5.37293e-16 0)
(1.4 -3.44684e-16 0)
(1.4 -6.51125e-17 0)
(1.4 2.97834e-16 0)
(1.4 4.69746e-16 0)
(1.4 4.22121e-16 0)
(1.4 2.66112e-16 0)
(1.4 -4.3824e-16 0)
(1.4 -6.17474e-16 0)
(1.4 -5.60332e-16 0)
(1.4 -5.8123e-16 0)
(1.4 -6.78051e-16 0)
(1.4 -7.45485e-16 0)
(1.4 -1.01415e-15 0)
(1.4 -9.40245e-16 0)
(1.4 -8.62704e-16 0)
(1.4 -8.28267e-16 0)
(1.4 -6.79792e-16 0)
(1.4 -5.94062e-16 0)
(1.4 -4.36662e-16 0)
(1.4 -3.76463e-16 0)
(1.4 -4.33442e-16 0)
(1.4 -4.71622e-16 0)
(1.4 -3.71029e-16 0)
(1.4 -4.12634e-16 0)
(1.4 -1.92801e-16 0)
(1.4 3.61545e-16 0)
(1.4 6.11833e-16 0)
(1.4 7.61196e-16 0)
(1.4 9.07354e-16 0)
(1.4 9.17473e-16 0)
(1.4 9.39506e-16 0)
(1.4 1.08602e-15 0)
(1.4 1.09325e-15 0)
(1.4 1.05162e-15 0)
(1.4 1.0148e-15 0)
(1.4 1.04168e-15 0)
(1.4 1.16161e-15 0)
(1.4 1.09893e-15 0)
(1.4 1.50678e-15 0)
(1.4 1.82807e-15 0)
(1.4 1.94094e-15 0)
(1.4 2.20469e-15 0)
(1.4 2.32186e-15 0)
(1.4 2.33259e-15 0)
(1.4 2.50399e-15 0)
(1.4 2.45233e-15 0)
(1.4 2.52783e-15 0)
(1.4 2.53217e-15 0)
(1.4 2.6217e-15 0)
(1.4 2.54675e-15 0)
(1.4 2.21773e-15 0)
(1.4 1.97215e-15 0)
(1.4 1.70153e-15 0)
(1.4 1.28658e-15 0)
(1.4 1.05689e-15 0)
(1.4 7.34494e-16 0)
(1.4 4.81203e-16 0)
(1.4 3.95216e-16 0)
(1.4 2.28013e-16 0)
(1.4 9.68284e-17 0)
(1.4 -4.63192e-16 0)
(1.4 -1.2248e-15 0)
(1.4 -1.62067e-15 0)
(1.4 -1.54158e-15 0)
(1.4 -1.37077e-15 0)
(1.4 -1.09758e-15 0)
(1.4 -7.00862e-16 0)
(1.4 -5.4746e-16 0)
(1.4 -4.87414e-16 0)
(1.4 -4.26879e-16 0)
(1.4 -4.22696e-16 0)
(1.4 -4.08336e-16 0)
(1.4 -2.33629e-16 0)
(1.4 -6.51218e-17 0)
(1.4 1.84259e-16 0)
(1.4 4.83249e-16 0)
(1.4 6.12807e-16 0)
(1.4 1.07238e-15 0)
(1.4 1.27619e-15 0)
(1.4 1.63141e-15 0)
(1.4 1.70821e-15 0)
(1.4 1.73646e-15 0)
(1.4 1.71474e-15 0)
(1.4 1.42509e-15 0)
(1.4 1.26757e-15 0)
(1.4 1.21039e-15 0)
(1.4 1.14077e-15 0)
(1.4 1.17899e-15 0)
(1.4 1.25924e-15 0)
(1.4 1.34434e-15 0)
(1.4 1.34684e-15 0)
(1.4 1.21062e-15 0)
(1.4 1.02806e-15 0)
(1.4 8.22772e-16 0)
(1.4 5.52982e-16 0)
(1.4 4.3433e-16 0)
(1.4 2.11145e-16 0)
(1.4 1.55896e-16 0)
(1.4 2.4336e-16 0)
(1.4 3.73352e-16 0)
(1.4 3.18223e-16 0)
(1.4 2.84608e-16 0)
(1.4 3.30661e-16 0)
(1.4 4.86798e-16 0)
(1.4 6.69652e-16 0)
(1.4 8.961e-16 0)
(1.4 1.03723e-15 0)
(1.4 9.05239e-16 0)
(1.4 4.6784e-16 0)
(1.4 4.94539e-16 0)
(1.4 3.3437e-16 0)
(1.4 1.42933e-16 0)
(1.4 2.41417e-16 0)
(1.4 3.09803e-16 0)
(1.4 3.71601e-16 0)
(1.4 6.14768e-16 0)
(1.4 7.4645e-16 0)
(1.4 5.86002e-16 0)
(1.4 1.20791e-16 0)
(1.4 -1.30737e-16 0)
(1.4 -3.98918e-16 0)
(1.4 -4.35436e-16 0)
(1.4 -7.63551e-16 0)
(1.4 -7.91784e-16 0)
(1.4 -5.84759e-16 0)
(1.4 -5.6989e-16 0)
(1.4 -1.11696e-15 0)
(1.4 -1.52664e-15 0)
(1.4 -1.46366e-15 0)
(1.4 -1.48367e-15 0)
(1.4 -1.21964e-15 0)
(1.4 -9.68568e-16 0)
(1.4 -1.02418e-15 0)
(1.4 -9.71448e-16 0)
(1.4 -7.22154e-16 0)
(1.4 -4.63005e-16 0)
(1.4 -4.49952e-16 0)
(1.4 -4.36137e-16 0)
(1.4 -3.0862e-16 0)
(1.4 -1.40402e-16 0)
(1.4 -4.40608e-17 0)
(1.4 -4.19609e-17 0)
(1.4 -9.68254e-17 0)
(1.4 -8.76764e-17 0)
(1.4 -4.78185e-16 0)
(1.4 -5.59133e-16 0)
(1.4 -4.7759e-16 0)
(1.4 -4.58944e-16 0)
(1.4 -8.0878e-16 0)
(1.4 -1.12488e-15 0)
(1.4 -1.52861e-15 0)
(1.4 -1.44568e-15 0)
(1.4 -1.15755e-15 0)
(1.4 -8.44806e-16 0)
(1.4 -8.39656e-16 0)
(1.4 -1.08755e-15 0)
(1.4 -1.07613e-15 0)
(1.4 -1.13997e-15 0)
(1.4 -1.31158e-15 0)
(1.4 -1.46663e-15 0)
(1.4 -1.61279e-15 0)
(1.4 -1.52635e-15 0)
(1.4 -1.52789e-15 0)
(1.4 -1.54923e-15 0)
(1.4 -1.60773e-15 0)
(1.4 -1.69971e-15 0)
(1.4 -1.56836e-15 0)
(1.4 -1.57089e-15 0)
(1.4 -1.72074e-15 0)
(1.4 -1.35758e-15 0)
(1.4 -1.03028e-15 0)
(1.4 -1.10948e-15 0)
(1.4 -1.1841e-15 0)
(1.4 -6.76627e-16 0)
(1.4 -4.14011e-16 0)
(1.4 -4.46772e-16 0)
(1.4 -5.35505e-16 0)
(1.4 -5.21513e-16 0)
(1.4 -5.58215e-16 0)
(1.4 -5.33564e-16 0)
(1.4 -5.89307e-16 0)
(1.4 -5.5692e-16 0)
(1.4 -5.03194e-16 0)
(1.4 -4.81711e-16 0)
(1.4 -5.58923e-16 0)
(1.4 -6.56639e-16 0)
(1.4 -9.84997e-16 0)
(1.4 -1.58949e-15 0)
(1.4 -1.80216e-15 0)
(1.4 -1.94922e-15 0)
(1.4 -2.29916e-15 0)
(1.4 -2.52897e-15 0)
(1.4 -2.87099e-15 0)
(1.4 -2.84008e-15 0)
(1.4 -2.92947e-15 0)
(1.4 -3.09165e-15 0)
(1.4 -2.83114e-15 0)
(1.4 -2.3358e-15 0)
(1.4 -2.09593e-15 0)
(1.4 -1.65779e-15 0)
(1.4 -1.38029e-15 0)
(1.4 -1.25187e-15 0)
(1.4 -8.4316e-16 0)
(1.4 -4.22213e-16 0)
(1.4 -9.82405e-17 0)
(1.4 1.31605e-16 0)
(1.4 2.83089e-16 0)
(1.4 1.05607e-16 0)
(1.4 -1.31814e-16 0)
(1.4 -7.401e-16 0)
(1.4 -1.49445e-15 0)
(1.4 -2.24353e-15 0)
(1.4 -2.51478e-15 0)
(1.4 -2.90106e-15 0)
(1.4 -3.30852e-15 0)
(1.4 -3.62064e-15 0)
(1.4 -3.77109e-15 0)
(1.4 -3.50322e-15 0)
(1.4 -2.99981e-15 0)
(1.4 -2.6431e-15 0)
(1.4 -2.2328e-15 0)
(1.4 -2.11531e-15 0)
(1.4 -2.05527e-15 0)
(1.4 -1.76715e-15 0)
(1.4 -1.33621e-15 0)
(1.4 -5.97672e-16 0)
(1.4 -1.21225e-16 0)
(1.4 4.36453e-17 0)
(1.4 5.7668e-16 0)
(1.4 1.12059e-15 0)
(1.4 1.3859e-15 0)
(1.4 1.64336e-15 0)
(1.4 1.66567e-15 0)
(1.4 1.30859e-15 0)
(1.4 1.27762e-15 0)
(1.4 1.0027e-15 0)
(1.4 7.2083e-16 0)
(1.4 5.44652e-16 0)
(1.4 9.67233e-17 0)
(1.4 -9.68976e-17 0)
(1.4 -4.22571e-16 0)
(1.4 -5.45088e-16 0)
(1.4 -3.77681e-16 0)
(1.4 -4.64894e-16 0)
(1.4 -6.23117e-16 0)
(1.4 -9.00366e-16 0)
(1.4 -1.39717e-15 0)
(1.4 -1.53299e-15 0)
(1.4 -1.40708e-15 0)
(1.4 -1.44826e-15 0)
(1.4 -1.42786e-15 0)
(1.4 -1.02374e-15 0)
(1.4 -7.40509e-16 0)
(1.4 -5.34433e-16 0)
(1.4 -2.72395e-16 0)
(1.4 -5.66803e-17 0)
(1.4 2.10279e-16 0)
(1.4 6.70873e-16 0)
(1.4 8.82267e-16 0)
(1.4 8.30051e-16 0)
(1.4 7.15366e-16 0)
(1.4 6.66519e-16 0)
(1.4 7.10087e-16 0)
(1.4 3.76798e-16 0)
(1.4 -1.09412e-16 0)
(1.4 -1.55277e-16 0)
(1.4 2.96599e-16 0)
(1.4 5.09113e-16 0)
(1.4 9.29564e-16 0)
(1.4 9.92984e-16 0)
(1.4 1.10104e-15 0)
(1.4 1.08979e-15 0)
(1.4 9.93031e-16 0)
(1.4 9.80446e-16 0)
(1.4 1.48581e-15 0)
(1.4 1.84664e-15 0)
(1.4 1.98336e-15 0)
(1.4 2.14984e-15 0)
(1.4 2.41088e-15 0)
(1.4 2.44295e-15 0)
(1.4 2.07737e-15 0)
(1.4 1.38246e-15 0)
(1.4 4.01909e-17 0)
(1.4 -8.9491e-18 0)
(1.4 1.13463e-16 0)
(1.4 1.04456e-16 0)
(1.4 2.30221e-16 0)
(1.4 3.48463e-16 0)
(1.4 4.35907e-16 0)
(1.4 4.39427e-16 0)
(1.4 5.45517e-16 0)
(1.4 7.22394e-16 0)
(1.4 7.37655e-16 0)
(1.4 7.11843e-16 0)
(1.4 6.80507e-16 0)
(1.4 6.25181e-16 0)
(1.4 6.76956e-16 0)
(1.4 8.13072e-16 0)
(1.4 9.62236e-16 0)
(1.4 1.01845e-15 0)
(1.4 9.6981e-16 0)
(1.4 6.91839e-16 0)
(1.4 6.74938e-16 0)
(1.4 5.33965e-16 0)
(1.4 4.86861e-16 0)
(1.4 4.2075e-16 0)
(1.4 4.21192e-16 0)
(1.4 4.57674e-16 0)
(1.4 4.27423e-16 0)
(1.4 4.36545e-16 0)
(1.4 3.55763e-16 0)
(1.4 9.13099e-17 0)
(1.4 -3.49023e-16 0)
(1.4 -8.46046e-16 0)
(1.4 -1.06234e-15 0)
(1.4 -1.06346e-15 0)
(1.4 -8.74005e-16 0)
(1.4 -4.95893e-16 0)
(1.4 -2.51897e-16 0)
(1.4 -2.69874e-16 0)
(1.4 1.09862e-16 0)
(1.4 3.87275e-16 0)
(1.4 3.66652e-16 0)
(1.4 3.83095e-16 0)
(1.4 3.35967e-16 0)
(1.4 2.47241e-16 0)
(1.4 1.10986e-16 0)
(1.4 -1.68792e-17 0)
(1.4 -3.71063e-17 0)
(1.4 5.08338e-17 0)
(1.4 -9.71454e-18 0)
(1.4 -1.82149e-16 0)
(1.4 -4.37135e-16 0)
(1.4 -4.02941e-16 0)
(1.4 -2.17933e-16 0)
(1.4 -2.53454e-16 0)
(1.4 -5.27918e-16 0)
(1.4 -8.54312e-16 0)
(1.4 -1.13053e-15 0)
(1.4 -1.30574e-15 0)
(1.4 -1.54859e-15 0)
(1.4 -1.66538e-15 0)
(1.4 -1.48021e-15 0)
(1.4 -1.38919e-15 0)
(1.4 -1.26954e-15 0)
(1.4 -1.18503e-15 0)
(1.4 -1.15805e-15 0)
(1.4 -1.11951e-15 0)
(1.4 -1.12434e-15 0)
(1.4 -1.0812e-15 0)
(1.4 -1.00467e-15 0)
(1.4 -8.11539e-16 0)
(1.4 -4.0654e-16 0)
(1.4 -3.35614e-16 0)
(1.4 -3.81181e-16 0)
(1.4 -4.46507e-16 0)
(1.4 -5.46167e-16 0)
(1.4 -7.31191e-16 0)
(1.4 -1.07526e-15 0)
(1.4 -1.2125e-15 0)
(1.4 -1.33823e-15 0)
(1.4 -1.65848e-15 0)
(1.4 -1.63096e-15 0)
(1.4 -1.61314e-15 0)
(1.4 -1.64933e-15 0)
(1.4 -1.6163e-15 0)
(1.4 -1.44967e-15 0)
(1.4 -1.03555e-15 0)
(1.4 -9.34409e-16 0)
(1.4 -6.6982e-16 0)
(1.4 -5.97968e-16 0)
(1.4 -4.17655e-16 0)
(1.4 -2.07527e-16 0)
(1.4 -2.37342e-16 0)
(1.4 -3.55556e-16 0)
(1.4 -3.29675e-16 0)
(1.4 -3.02965e-16 0)
(1.4 -2.69266e-16 0)
(1.4 -3.00887e-16 0)
(1.4 -1.84605e-16 0)
(1.4 -4.3146e-17 0)
(1.4 -5.07021e-17 0)
(1.4 -6.53095e-17 0)
(1.4 9.68934e-17 0)
(1.4 3.48429e-16 0)
(1.4 4.80838e-16 0)
(1.4 5.34717e-16 0)
(1.4 4.62294e-16 0)
(1.4 2.98671e-16 0)
(1.4 1.9395e-16 0)
(1.4 2.81997e-16 0)
(1.4 1.21458e-16 0)
(1.4 -2.62062e-16 0)
(1.4 -4.34903e-16 0)
(1.4 -7.05532e-16 0)
(1.4 -7.88858e-16 0)
(1.4 -7.48276e-16 0)
(1.4 -8.87742e-16 0)
(1.4 -9.05909e-16 0)
(1.4 -7.75898e-16 0)
(1.4 -7.56161e-16 0)
(1.4 -6.13502e-16 0)
(1.4 -4.59668e-16 0)
(1.4 -3.60507e-16 0)
(1.4 -4.77983e-16 0)
(1.4 -5.73683e-16 0)
(1.4 -5.58005e-16 0)
(1.4 -2.21506e-16 0)
(1.4 -1.03457e-16 0)
(1.4 -9.87608e-18 0)
(1.4 1.19152e-16 0)
(1.4 3.55169e-16 0)
(1.4 4.06102e-16 0)
(1.4 6.78946e-16 0)
(1.4 8.42382e-16 0)
(1.4 8.66423e-16 0)
(1.4 9.87952e-16 0)
(1.4 1.15922e-15 0)
(1.4 1.29901e-15 0)
(1.4 1.83109e-15 0)
(1.4 2.09184e-15 0)
(1.4 2.26819e-15 0)
(1.4 2.06486e-15 0)
(1.4 1.76181e-15 0)
(1.4 1.70545e-15 0)
(1.4 1.78913e-15 0)
(1.4 1.95092e-15 0)
(1.4 2.06018e-15 0)
(1.4 2.03247e-15 0)
(1.4 1.96351e-15 0)
(1.4 1.92153e-15 0)
(1.4 1.74225e-15 0)
(1.4 1.72922e-15 0)
(1.4 1.1691e-15 0)
(1.4 9.04328e-16 0)
(1.4 9.41643e-16 0)
(1.4 1.04912e-15 0)
(1.4 6.96876e-16 0)
(1.4 5.03181e-16 0)
(1.4 4.93299e-17 0)
(1.4 -4.61203e-16 0)
(1.4 -7.33267e-16 0)
(1.4 -9.19263e-16 0)
(1.4 -6.2103e-16 0)
(1.4 -6.17517e-16 0)
(1.4 -6.5004e-16 0)
(1.4 -5.31438e-16 0)
(1.4 -4.11578e-16 0)
(1.4 -1.75885e-16 0)
(1.4 1.67667e-16 0)
(1.4 3.73439e-16 0)
(1.4 8.73212e-16 0)
(1.4 1.0107e-15 0)
(1.4 1.13674e-15 0)
(1.4 1.29166e-15 0)
(1.4 1.55461e-15 0)
(1.4 1.72241e-15 0)
(1.4 1.90551e-15 0)
(1.4 2.21047e-15 0)
(1.4 2.42866e-15 0)
(1.4 2.48062e-15 0)
(1.4 2.62961e-15 0)
(1.4 2.60314e-15 0)
(1.4 2.52932e-15 0)
(1.4 2.52717e-15 0)
(1.4 2.61811e-15 0)
(1.4 2.72623e-15 0)
(1.4 2.91955e-15 0)
(1.4 2.99314e-15 0)
(1.4 3.06515e-15 0)
(1.4 2.99283e-15 0)
(1.4 2.84086e-15 0)
(1.4 2.52203e-15 0)
(1.4 2.39978e-15 0)
(1.4 2.3537e-15 0)
(1.4 2.28376e-15 0)
(1.4 2.1018e-15 0)
(1.4 2.04005e-15 0)
(1.4 1.88512e-15 0)
(1.4 1.7631e-15 0)
(1.4 1.2364e-15 0)
(1.4 1.08143e-15 0)
(1.4 8.62766e-16 0)
(1.4 4.65512e-16 0)
(1.4 5.31737e-17 0)
(1.4 -5.70195e-17 0)
(1.4 -2.65172e-16 0)
(1.4 5.67348e-17 0)
(1.4 -8.50228e-18 0)
(1.4 6.42499e-19 0)
(1.4 3.81853e-16 0)
(1.4 1.01304e-15 0)
(1.4 1.27938e-15 0)
(1.4 1.25321e-15 0)
(1.4 1.18236e-15 0)
(1.4 1.13966e-15 0)
(1.4 1.18e-15 0)
(1.4 1.14658e-15 0)
(1.4 1.28355e-15 0)
(1.4 1.53663e-15 0)
(1.4 1.484e-15 0)
(1.4 1.35013e-15 0)
(1.4 1.18842e-15 0)
(1.4 1.21917e-15 0)
(1.4 1.30256e-15 0)
(1.4 1.36804e-15 0)
(1.4 1.3765e-15 0)
(1.4 1.38054e-15 0)
(1.4 1.47848e-15 0)
(1.4 1.59856e-15 0)
(1.4 1.58975e-15 0)
(1.4 1.61009e-15 0)
(1.4 1.36627e-15 0)
(1.4 8.63889e-16 0)
(1.4 3.05612e-16 0)
(1.4 -2.11451e-16 0)
(1.4 -4.12199e-16 0)
(1.4 -2.7111e-16 0)
(1.4 -6.10527e-17 0)
(1.4 -7.80353e-17 0)
(1.4 -1.22039e-16 0)
(1.4 -3.08483e-16 0)
(1.4 -2.0741e-16 0)
(1.4 -1.14346e-16 0)
(1.4 -2.37835e-16 0)
(1.4 -8.50537e-17 0)
(1.4 -2.59973e-17 0)
(1.4 -4.15513e-17 0)
(1.4 -1.3022e-16 0)
(1.4 -4.22188e-16 0)
(1.4 -8.35459e-16 0)
(1.4 -1.2805e-15 0)
(1.4 -1.59517e-15 0)
(1.4 -1.82994e-15 0)
(1.4 -1.62026e-15 0)
(1.4 -1.50732e-15 0)
(1.4 -1.46481e-15 0)
(1.4 -1.26164e-15 0)
(1.4 -9.31762e-16 0)
(1.4 -4.43348e-16 0)
(1.4 -4.1987e-16 0)
(1.4 -4.54053e-16 0)
(1.4 -5.98532e-16 0)
(1.4 -4.37042e-16 0)
(1.4 -7.4421e-16 0)
(1.4 -1.2064e-15 0)
(1.4 -1.48837e-15 0)
(1.4 -1.78212e-15 0)
(1.4 -2.10656e-15 0)
(1.4 -2.19971e-15 0)
(1.4 -2.15856e-15 0)
(1.4 -2.37455e-15 0)
(1.4 -2.3933e-15 0)
(1.4 -2.57979e-15 0)
(1.4 -2.54259e-15 0)
(1.4 -2.84276e-15 0)
(1.4 -3.08486e-15 0)
(1.4 -3.27208e-15 0)
(1.4 -3.53194e-15 0)
(1.4 -3.35729e-15 0)
(1.4 -2.96345e-15 0)
(1.4 -2.63279e-15 0)
(1.4 -2.52803e-15 0)
(1.4 -2.17725e-15 0)
(1.4 -2.06289e-15 0)
(1.4 -2.05397e-15 0)
(1.4 -2.1011e-15 0)
(1.4 -2.28796e-15 0)
(1.4 -3.1205e-15 0)
(1.4 -3.60309e-15 0)
(1.4 -3.45964e-15 0)
(1.4 -3.45868e-15 0)
(1.4 -3.44199e-15 0)
(1.4 -3.42596e-15 0)
(1.4 -3.82108e-15 0)
(1.4 -3.9943e-15 0)
(1.4 -4.10522e-15 0)
(1.4 -4.38378e-15 0)
(1.4 -4.89583e-15 0)
(1.4 -4.85259e-15 0)
(1.4 -4.55639e-15 0)
(1.4 -4.23071e-15 0)
(1.4 -3.76332e-15 0)
(1.4 -3.44191e-15 0)
(1.4 -2.82931e-15 0)
(1.4 -2.40488e-15 0)
(1.4 -2.16565e-15 0)
(1.4 -1.78315e-15 0)
(1.4 -1.26081e-15 0)
(1.4 -1.26733e-15 0)
(1.4 -1.36028e-15 0)
(1.4 -1.39286e-15 0)
(1.4 -1.91648e-15 0)
(1.4 -2.1468e-15 0)
(1.4 -2.49561e-15 0)
(1.4 -3.06845e-15 0)
(1.4 -3.30569e-15 0)
(1.4 -3.33834e-15 0)
(1.4 -3.07493e-15 0)
(1.4 -2.61125e-15 0)
(1.4 -2.53105e-15 0)
(1.4 -2.66319e-15 0)
(1.4 -2.74401e-15 0)
(1.4 -2.756e-15 0)
(1.4 -2.79443e-15 0)
(1.4 -2.95942e-15 0)
(1.4 -2.75939e-15 0)
(1.4 -2.61273e-15 0)
(1.4 -2.62454e-15 0)
(1.4 -1.87919e-15 0)
(1.4 -1.04367e-15 0)
(1.4 -8.01882e-16 0)
(1.4 -6.05146e-16 0)
(1.4 -5.99618e-16 0)
(1.4 -1.80992e-16 0)
(1.4 2.49838e-16 0)
(1.4 4.04586e-16 0)
(1.4 5.99688e-16 0)
(1.4 6.1325e-16 0)
(1.4 5.60246e-16 0)
(1.4 4.60206e-16 0)
(1.4 5.69052e-16 0)
(1.4 4.53333e-16 0)
(1.4 7.17435e-17 0)
(1.4 1.46345e-16 0)
(1.4 2.45026e-16 0)
(1.4 -3.65215e-17 0)
(1.4 -1.54803e-16 0)
(1.4 -5.74799e-16 0)
(1.4 -4.42623e-16 0)
(1.4 -5.41868e-16 0)
(1.4 -8.01003e-16 0)
(1.4 -1.27344e-15 0)
(1.4 -1.14074e-15 0)
(1.4 -1.15381e-15 0)
(1.4 -1.14965e-15 0)
(1.4 -1.4163e-15 0)
(1.4 -1.5702e-15 0)
(1.4 -1.40959e-15 0)
(1.4 -1.15492e-15 0)
(1.4 -7.20068e-16 0)
(1.4 -5.58263e-16 0)
(1.4 -2.30499e-16 0)
(1.4 -1.30323e-16 0)
(1.4 -2.57117e-16 0)
(1.4 -4.89112e-16 0)
(1.4 -6.6795e-16 0)
(1.4 -7.60213e-16 0)
(1.4 -1.28371e-15 0)
(1.4 -1.35223e-15 0)
(1.4 -9.90521e-16 0)
(1.4 -9.24093e-16 0)
(1.4 -6.03256e-16 0)
(1.4 -5.54646e-16 0)
(1.4 -9.96995e-17 0)
(1.4 3.77578e-17 0)
(1.4 5.73737e-17 0)
(1.4 9.06788e-16 0)
(1.4 2.31029e-15 0)
(1.4 2.79291e-15 0)
(1.4 3.07169e-15 0)
(1.4 3.09655e-15 0)
(1.4 3.13313e-15 0)
(1.4 3.17506e-15 0)
(1.4 3.36154e-15 0)
(1.4 1.53611e-15 0)
(1.4 1.69335e-17 0)
(1.4 -1.14335e-16 0)
(1.4 -2.63472e-16 0)
(1.4 -3.06505e-16 0)
(1.4 -2.6864e-16 0)
(1.4 -2.91833e-16 0)
(1.4 -3.35529e-16 0)
(1.4 -2.40725e-16 0)
(1.4 -1.99563e-16 0)
(1.4 -2.25201e-16 0)
(1.4 -2.75611e-16 0)
(1.4 -2.80122e-16 0)
(1.4 -2.01403e-16 0)
(1.4 -1.90941e-17 0)
(1.4 8.73591e-17 0)
(1.4 4.07388e-16 0)
(1.4 3.66252e-16 0)
(1.4 3.39928e-16 0)
(1.4 1.81883e-16 0)
(1.4 2.05933e-16 0)
(1.4 2.95624e-16 0)
(1.4 3.78608e-16 0)
(1.4 6.1662e-16 0)
(1.4 6.97463e-16 0)
(1.4 8.49068e-16 0)
(1.4 8.37378e-16 0)
(1.4 8.02685e-16 0)
(1.4 8.9367e-16 0)
(1.4 9.02136e-16 0)
(1.4 9.32349e-16 0)
(1.4 1.03879e-15 0)
(1.4 1.09513e-15 0)
(1.4 1.00975e-15 0)
(1.4 1.14734e-15 0)
(1.4 1.50816e-15 0)
(1.4 1.75418e-15 0)
(1.4 1.89135e-15 0)
(1.4 1.92132e-15 0)
(1.4 2.13612e-15 0)
(1.4 2.2431e-15 0)
(1.4 1.96534e-15 0)
(1.4 1.66805e-15 0)
(1.4 1.71118e-15 0)
(1.4 1.69034e-15 0)
(1.4 1.40876e-15 0)
(1.4 8.07295e-16 0)
(1.4 1.18652e-16 0)
(1.4 -4.08464e-16 0)
(1.4 -5.57274e-16 0)
(1.4 -4.72703e-16 0)
(1.4 -3.81529e-16 0)
(1.4 -3.46167e-16 0)
(1.4 -4.6766e-16 0)
(1.4 -5.95521e-16 0)
(1.4 -7.02319e-16 0)
(1.4 -8.56548e-16 0)
(1.4 -1.11214e-15 0)
(1.4 -1.27273e-15 0)
(1.4 -1.47113e-15 0)
(1.4 -1.65565e-15 0)
(1.4 -1.95674e-15 0)
(1.4 -2.16527e-15 0)
(1.4 -2.20052e-15 0)
(1.4 -2.14995e-15 0)
(1.4 -2.1628e-15 0)
(1.4 -2.16819e-15 0)
(1.4 -2.18389e-15 0)
(1.4 -2.19268e-15 0)
(1.4 -2.22022e-15 0)
(1.4 -2.42058e-15 0)
(1.4 -2.30432e-15 0)
(1.4 -2.22046e-15 0)
(1.4 -2.23566e-15 0)
(1.4 -1.82447e-15 0)
(1.4 -1.28747e-15 0)
(1.4 -1.39436e-15 0)
(1.4 -1.46359e-15 0)
(1.4 -1.59914e-15 0)
(1.4 -1.62208e-15 0)
(1.4 -1.72177e-15 0)
(1.4 -1.81834e-15 0)
(1.4 -1.88511e-15 0)
(1.4 -1.91523e-15 0)
(1.4 -2.18798e-15 0)
(1.4 -2.42924e-15 0)
(1.4 -2.41721e-15 0)
(1.4 -2.02944e-15 0)
(1.4 -1.9155e-15 0)
(1.4 -1.86232e-15 0)
(1.4 -1.82116e-15 0)
(1.4 -1.65848e-15 0)
(1.4 -1.59048e-15 0)
(1.4 -1.29178e-15 0)
(1.4 -1.23791e-15 0)
(1.4 -1.199e-15 0)
(1.4 -1.01681e-15 0)
(1.4 -6.8331e-16 0)
(1.4 -2.33713e-16 0)
(1.4 3.53842e-16 0)
(1.4 8.16952e-16 0)
(1.4 1.01317e-15 0)
(1.4 9.82549e-16 0)
(1.4 8.3194e-16 0)
(1.4 7.24327e-16 0)
(1.4 5.60962e-16 0)
(1.4 4.83454e-16 0)
(1.4 3.6596e-16 0)
(1.4 2.16565e-16 0)
(1.4 2.78107e-16 0)
(1.4 -1.07067e-17 0)
(1.4 -5.2625e-16 0)
(1.4 -6.12323e-16 0)
(1.4 -9.37107e-16 0)
(1.4 -1.11834e-15 0)
(1.4 -1.21917e-15 0)
(1.4 -1.62448e-15 0)
(1.4 -1.62841e-15 0)
(1.4 -1.66309e-15 0)
(1.4 -1.47133e-15 0)
(1.4 -1.21903e-15 0)
(1.4 -9.62962e-16 0)
(1.4 -7.25899e-16 0)
(1.4 -6.91884e-16 0)
(1.4 -5.99235e-16 0)
(1.4 -9.03813e-16 0)
(1.4 -1.09687e-15 0)
(1.4 -1.16194e-15 0)
(1.4 -1.20842e-15 0)
(1.4 -1.21133e-15 0)
(1.4 -1.25575e-15 0)
(1.4 -1.48567e-15 0)
(1.4 -1.07157e-15 0)
(1.4 -8.71042e-16 0)
(1.4 -6.39278e-16 0)
(1.4 -4.29402e-16 0)
(1.4 -2.86995e-16 0)
(1.4 -3.57766e-17 0)
(1.4 1.13791e-16 0)
(1.4 5.05532e-16 0)
(1.4 7.18327e-16 0)
(1.4 9.42203e-16 0)
(1.4 9.2288e-16 0)
(1.4 7.70697e-16 0)
(1.4 6.00332e-16 0)
(1.4 4.28278e-16 0)
(1.4 3.78521e-16 0)
(1.4 4.25036e-16 0)
(1.4 6.15251e-16 0)
(1.4 6.94505e-16 0)
(1.4 8.08501e-16 0)
(1.4 8.091e-16 0)
(1.4 6.54793e-16 0)
(1.4 5.2196e-16 0)
(1.4 4.40913e-16 0)
(1.4 3.00864e-16 0)
(1.4 2.82836e-16 0)
(1.4 4.17801e-16 0)
(1.4 7.09258e-16 0)
(1.4 9.09062e-16 0)
(1.4 1.01061e-15 0)
(1.4 1.07737e-15 0)
(1.4 1.26674e-15 0)
(1.4 1.46034e-15 0)
(1.4 1.42277e-15 0)
(1.4 1.51001e-15 0)
(1.4 1.5873e-15 0)
(1.4 1.55765e-15 0)
(1.4 1.43285e-15 0)
(1.4 1.24749e-15 0)
(1.4 1.4399e-15 0)
(1.4 1.55781e-15 0)
(1.4 1.68557e-15 0)
(1.4 1.91681e-15 0)
(1.4 2.02082e-15 0)
(1.4 2.09624e-15 0)
(1.4 2.1643e-15 0)
(1.4 2.12814e-15 0)
(1.4 2.07677e-15 0)
(1.4 1.86351e-15 0)
(1.4 1.69265e-15 0)
(1.4 1.64529e-15 0)
(1.4 1.63519e-15 0)
(1.4 1.61762e-15 0)
(1.4 1.69755e-15 0)
(1.4 1.81631e-15 0)
(1.4 2.03373e-15 0)
(1.4 2.24085e-15 0)
(1.4 2.21414e-15 0)
(1.4 2.19021e-15 0)
(1.4 2.07647e-15 0)
(1.4 2.1369e-15 0)
(1.4 2.16305e-15 0)
(1.4 2.11183e-15 0)
(1.4 2.16845e-15 0)
(1.4 2.08858e-15 0)
(1.4 2.0875e-15 0)
(1.4 1.95902e-15 0)
(1.4 1.69473e-15 0)
(1.4 1.28593e-15 0)
(1.4 1.10699e-15 0)
(1.4 4.04621e-16 0)
(1.4 -8.46702e-17 0)
(1.4 -6.26358e-16 0)
(1.4 -9.19424e-16 0)
(1.4 -1.16608e-15 0)
(1.4 -1.19875e-15 0)
(1.4 -1.08154e-15 0)
(1.4 -6.29345e-16 0)
(1.4 -2.85565e-16 0)
(1.4 1.67556e-16 0)
(1.4 6.06217e-16 0)
(1.4 1.23337e-15 0)
(1.4 1.35644e-15 0)
(1.4 1.35933e-15 0)
(1.4 1.25993e-15 0)
(1.4 1.17313e-15 0)
(1.4 1.13955e-15 0)
(1.4 1.06318e-15 0)
(1.4 1.03388e-15 0)
(1.4 1.19494e-15 0)
(1.4 1.46577e-15 0)
(1.4 1.7596e-15 0)
(1.4 1.74139e-15 0)
(1.4 1.94203e-15 0)
(1.4 2.21081e-15 0)
(1.4 2.38632e-15 0)
(1.4 2.51185e-15 0)
(1.4 2.69508e-15 0)
(1.4 3.16103e-15 0)
(1.4 3.36768e-15 0)
(1.4 3.25894e-15 0)
(1.4 3.05189e-15 0)
(1.4 2.5055e-15 0)
(1.4 1.71876e-15 0)
(1.4 1.57366e-15 0)
(1.4 1.29413e-15 0)
(1.4 1.03409e-15 0)
(1.4 9.1806e-16 0)
(1.4 7.72247e-16 0)
(1.4 3.66554e-16 0)
(1.4 3.08336e-17 0)
(1.4 -1.90992e-16 0)
(1.4 -4.53999e-16 0)
(1.4 -5.97728e-16 0)
(1.4 -7.4851e-16 0)
(1.4 -8.50336e-16 0)
(1.4 -5.97219e-16 0)
(1.4 -8.27651e-16 0)
(1.4 -9.86958e-16 0)
(1.4 -1.23768e-15 0)
(1.4 -1.87216e-15 0)
(1.4 -2.28139e-15 0)
(1.4 -2.25972e-15 0)
(1.4 -2.05109e-15 0)
(1.4 -1.77119e-15 0)
(1.4 -1.41045e-15 0)
(1.4 -1.05136e-15 0)
(1.4 -7.18187e-16 0)
(1.4 -5.24992e-16 0)
(1.4 -4.34864e-16 0)
(1.4 -3.77958e-16 0)
(1.4 -4.67413e-16 0)
(1.4 -8.63216e-16 0)
(1.4 -1.42126e-15 0)
(1.4 -1.43227e-15 0)
(1.4 -1.45583e-15 0)
(1.4 -1.51575e-15 0)
(1.4 -1.61222e-15 0)
(1.4 -1.74681e-15 0)
(1.4 -1.9901e-15 0)
(1.4 -2.23532e-15 0)
(1.4 -2.40835e-15 0)
(1.4 -2.49687e-15 0)
(1.4 -2.34188e-15 0)
(1.4 -2.20037e-15 0)
(1.4 -2.28083e-15 0)
(1.4 -2.12053e-15 0)
(1.4 -1.72423e-15 0)
(1.4 -1.40066e-15 0)
(1.4 -1.41435e-15 0)
(1.4 -1.29996e-15 0)
(1.4 -1.27717e-15 0)
(1.4 -1.38735e-15 0)