/*--------------------------------*- C++ -*----------------------------------*\
  =========                 |
  \\      /  F ield         | OpenFOAM: The Open Source CFD Toolbox
   \\    /   O peration     | Website:  https://openfoam.org
    \\  /    A nd           | Version:  7
     \\/     M anipulation  |
\*---------------------------------------------------------------------------*/
FoamFile
{
    version     2.0;
    format      ascii;
    class       volVectorField;
    location    "1.4";
    object      U;
}
// * * * * * * * * * * * * * * * * * * * * * * * * * * * * * * * * * * * * * //

dimensions      [0 1 -1 0 0 0 0];

internalField   nonuniform List<vector> 
20000
(
(-3.1094e-06 3.076e-06 0)
(-7.73048e-06 2.69306e-06 0)
(-7.07051e-06 1.10472e-07 0)
(1.63266e-06 -2.85964e-06 0)
(1.86297e-05 -5.63146e-06 0)
(4.31734e-05 -8.01533e-06 0)
(7.42809e-05 -9.98773e-06 0)
(0.000110934 -1.15857e-05 0)
(0.000152171 -1.28589e-05 0)
(0.000197125 -1.38547e-05 0)
(0.000245027 -1.46151e-05 0)
(0.000295209 -1.51765e-05 0)
(0.000347087 -1.55706e-05 0)
(0.000400164 -1.58241e-05 0)
(0.000454011 -1.596e-05 0)
(0.000508268 -1.59981e-05 0)
(0.000562631 -1.59556e-05 0)
(0.000616847 -1.58473e-05 0)
(0.000670707 -1.56859e-05 0)
(0.000724041 -1.54821e-05 0)
(0.000776711 -1.52449e-05 0)
(0.000828606 -1.49814e-05 0)
(0.000879639 -1.46979e-05 0)
(0.000929742 -1.43995e-05 0)
(0.000978862 -1.409e-05 0)
(0.00102696 -1.37722e-05 0)
(0.001074 -1.34481e-05 0)
(0.00111995 -1.31189e-05 0)
(0.0011648 -1.27856e-05 0)
(0.00120852 -1.24487e-05 0)
(0.0012511 -1.21077e-05 0)
(0.00129251 -1.17622e-05 0)
(0.00133274 -1.14116e-05 0)
(0.00137175 -1.10549e-05 0)
(0.00140953 -1.06915e-05 0)
(0.00144603 -1.03203e-05 0)
(0.00148124 -9.94049e-06 0)
(0.0015151 -9.55102e-06 0)
(0.00154759 -9.15137e-06 0)
(0.00157866 -8.74095e-06 0)
(0.00160826 -8.31929e-06 0)
(0.00163635 -7.88641e-06 0)
(0.00166288 -7.44244e-06 0)
(0.00168782 -6.98781e-06 0)
(0.0017111 -6.52317e-06 0)
(0.0017327 -6.04938e-06 0)
(0.00175257 -5.56783e-06 0)
(0.00177068 -5.08009e-06 0)
(0.00178699 -4.58791e-06 0)
(0.00180148 -4.09327e-06 0)
(0.00181412 -3.5984e-06 0)
(0.00182492 -3.10594e-06 0)
(0.00183385 -2.61859e-06 0)
(0.00184092 -2.13898e-06 0)
(0.00184615 -1.66979e-06 0)
(0.00184954 -1.21375e-06 0)
(0.00185113 -7.73723e-07 0)
(0.00185095 -3.52316e-07 0)
(0.00184903 4.84718e-08 0)
(0.00184543 4.26712e-07 0)
(0.00184018 7.81077e-07 0)
(0.00183333 1.11066e-06 0)
(0.00182494 1.41526e-06 0)
(0.00181505 1.69558e-06 0)
(0.00180371 1.95316e-06 0)
(0.00179093 2.19057e-06 0)
(0.00177675 2.41157e-06 0)
(0.00176116 2.62102e-06 0)
(0.00174414 2.82511e-06 0)
(0.00172565 3.03128e-06 0)
(0.00170562 3.24816e-06 0)
(0.00168394 3.48589e-06 0)
(0.00166047 3.75587e-06 0)
(0.00163502 4.07054e-06 0)
(0.00160736 4.44336e-06 0)
(0.0015772 4.88886e-06 0)
(0.00154422 5.42218e-06 0)
(0.00150804 6.05898e-06 0)
(0.00146821 6.81538e-06 0)
(0.00142423 7.70755e-06 0)
(0.00137556 8.7515e-06 0)
(0.0013216 9.963e-06 0)
(0.00126167 1.13574e-05 0)
(0.00119508 1.29493e-05 0)
(0.00112106 1.47528e-05 0)
(0.0010388 1.67812e-05 0)
(0.000947468 1.90469e-05 0)
(0.000846162 2.15616e-05 0)
(0.000733959 2.43367e-05 0)
(0.0006099 2.73825e-05 0)
(0.000472995 3.0709e-05 0)
(0.000322225 3.43255e-05 0)
(0.000156547 3.82413e-05 0)
(-2.51029e-05 4.24651e-05 0)
(-0.000223808 4.70051e-05 0)
(-0.000440668 5.1869e-05 0)
(-0.00067679 5.70641e-05 0)
(-0.00093329 6.25965e-05 0)
(-0.00121128 6.84714e-05 0)
(-0.00151188 7.46925e-05 0)
(-0.00183619 8.12621e-05 0)
(-0.00218528 8.81802e-05 0)
(-0.00256019 9.54444e-05 0)
(-0.00296195 0.00010305 0)
(-0.00339149 0.000110988 0)
(-0.00384973 0.000119247 0)
(-0.00433747 0.000127813 0)
(-0.00485543 0.000136666 0)
(-0.00540426 0.000145782 0)
(-0.00598443 0.000155133 0)
(-0.00659634 0.000164688 0)
(-0.00724021 0.00017441 0)
(-0.00791609 0.000184256 0)
(-0.00862389 0.00019418 0)
(-0.00936329 0.000204132 0)
(-0.0101338 0.000214054 0)
(-0.0109347 0.000223888 0)
(-0.0117651 0.000233569 0)
(-0.0126238 0.000243028 0)
(-0.0135093 0.000252193 0)
(-0.0144201 0.000260987 0)
(-0.0153542 0.000269332 0)
(-0.0163094 0.000277145 0)
(-0.0172833 0.000284342 0)
(-0.0182732 0.000290835 0)
(-0.0192761 0.000296536 0)
(-0.0202889 0.000301355 0)
(-0.021308 0.000305201 0)
(-0.0223296 0.000307983 0)
(-0.0233498 0.00030961 0)
(-0.0243644 0.000309991 0)
(-0.0253688 0.000309035 0)
(-0.0263585 0.000306656 0)
(-0.0273284 0.000302768 0)
(-0.0282734 0.000297287 0)
(-0.0291884 0.000290136 0)
(-0.0300679 0.000281241 0)
(-0.0309062 0.000270534 0)
(-0.0316977 0.000257954 0)
(-0.0324365 0.00024345 0)
(-0.033117 0.00022698 0)
(-0.0337331 0.000208514 0)
(-0.0342791 0.000188038 0)
(-0.0347493 0.000165551 0)
(-0.0351379 0.000141076 0)
(-0.0354396 0.000114658 0)
(-0.0356492 8.63851e-05 0)
(-0.0357619 5.64015e-05 0)
(-0.0357731 2.47843e-05 0)
(-0.0356786 -8.55305e-06 0)
(-0.0354755 -4.32037e-05 0)
(-0.0351607 -7.89289e-05 0)
(-0.0347323 -0.000115488 0)
(-0.0341892 -0.000152592 0)
(-0.0335311 -0.000189913 0)
(-0.032759 -0.000227083 0)
(-0.0318746 -0.000263706 0)
(-0.0308813 -0.000299355 0)
(-0.0297833 -0.000333584 0)
(-0.0285862 -0.000365931 0)
(-0.027297 -0.00039593 0)
(-0.0259239 -0.000423119 0)
(-0.0244764 -0.000447057 0)
(-0.0229649 -0.000467327 0)
(-0.0214012 -0.000483559 0)
(-0.0197979 -0.000495435 0)
(-0.0181683 -0.000502707 0)
(-0.0165263 -0.000505203 0)
(-0.0148862 -0.00050284 0)
(-0.0132623 -0.000495631 0)
(-0.0116688 -0.000483684 0)
(-0.0101194 -0.00046721 0)
(-0.00862716 -0.000446511 0)
(-0.00720421 -0.000421981 0)
(-0.00586143 -0.00039409 0)
(-0.00460834 -0.000363374 0)
(-0.00345291 -0.000330415 0)
(-0.00240143 -0.000295825 0)
(-0.00145841 -0.000260228 0)
(-0.000626611 -0.000224238 0)
(9.29617e-05 -0.000188451 0)
(0.000700981 -0.000153392 0)
(0.00119971 -0.00011955 0)
(0.0015928 -8.73448e-05 0)
(0.00188514 -5.71165e-05 0)
(0.00208267 -2.91288e-05 0)
(0.00219218 -3.57652e-06 0)
(0.00222109 1.94093e-05 0)
(0.00217741 3.97801e-05 0)
(0.00206955 5.7451e-05 0)
(0.00190631 7.23488e-05 0)
(0.00169703 8.4341e-05 0)
(0.00145173 9.31601e-05 0)
(0.00118156 9.83036e-05 0)
(0.000899429 9.88945e-05 0)
(0.000620906 9.35285e-05 0)
(0.00036523 8.01844e-05 0)
(0.000155626 5.62602e-05 0)
(1.88724e-05 2.04122e-05 0)
(-1.38715e-05 -1.38836e-05 0)
(-2.73839e-06 7.73105e-06 0)
(-2.3043e-06 2.25233e-06 0)
(1.263e-05 -1.11042e-05 0)
(4.57112e-05 -2.64026e-05 0)
(9.76431e-05 -4.12613e-05 0)
(0.00016746 -5.46644e-05 0)
(0.000253394 -6.62668e-05 0)
(0.000353366 -7.60454e-05 0)
(0.000465255 -8.41111e-05 0)
(0.00058703 -9.06241e-05 0)
(0.000716818 -9.57581e-05 0)
(0.000852929 -9.96831e-05 0)
(0.000993863 -0.000102559 0)
(0.00113831 -0.000104533 0)
(0.00128512 -0.000105737 0)
(0.00143332 -0.000106289 0)
(0.00158207 -0.000106293 0)
(0.00173068 -0.000105842 0)
(0.00187855 -0.000105016 0)
(0.0020252 -0.000103884 0)
(0.00217023 -0.000102506 0)
(0.00231332 -0.000100931 0)
(0.0024542 -9.91989e-05 0)
(0.00259268 -9.73448e-05 0)
(0.00272858 -9.53949e-05 0)
(0.00286177 -9.33698e-05 0)
(0.00299214 -9.12843e-05 0)
(0.00311961 -8.91487e-05 0)
(0.00324409 -8.69692e-05 0)
(0.00336552 -8.4749e-05 0)
(0.00348384 -8.2488e-05 0)
(0.00359896 -8.01842e-05 0)
(0.00371082 -7.78333e-05 0)
(0.00381935 -7.54303e-05 0)
(0.00392444 -7.29695e-05 0)
(0.00402602 -7.04446e-05 0)
(0.00412397 -6.78493e-05 0)
(0.00421818 -6.51775e-05 0)
(0.00430853 -6.24242e-05 0)
(0.00439489 -5.95848e-05 0)
(0.00447713 -5.66559e-05 0)
(0.0045551 -5.36358e-05 0)
(0.00462866 -5.05237e-05 0)
(0.00469766 -4.73208e-05 0)
(0.00476197 -4.40301e-05 0)
(0.00482145 -4.06558e-05 0)
(0.00487596 -3.72042e-05 0)
(0.00492538 -3.36833e-05 0)
(0.00496958 -3.01025e-05 0)
(0.00500848 -2.64727e-05 0)
(0.00504198 -2.28063e-05 0)
(0.00507 -1.91167e-05 0)
(0.0050925 -1.54183e-05 0)
(0.00510942 -1.17256e-05 0)
(0.00512076 -8.0535e-06 0)
(0.00512651 -4.41652e-06 0)
(0.00512668 -8.2872e-07 0)
(0.00512131 2.69743e-06 0)
(0.00511043 6.15175e-06 0)
(0.0050941 9.52613e-06 0)
(0.00507237 1.28158e-05 0)
(0.0050453 1.602e-05 0)
(0.00501295 1.91425e-05 0)
(0.00497535 2.21925e-05 0)
(0.00493253 2.51854e-05 0)
(0.00488446 2.81429e-05 0)
(0.00483111 3.10944e-05 0)
(0.00477237 3.40771e-05 0)
(0.00470808 3.71358e-05 0)
(0.004638 4.03243e-05 0)
(0.00456182 4.37044e-05 0)
(0.00447913 4.73464e-05 0)
(0.0043894 5.13288e-05 0)
(0.004292 5.57373e-05 0)
(0.00418617 6.0664e-05 0)
(0.00407099 6.62073e-05 0)
(0.00394543 7.24698e-05 0)
(0.00380831 7.95577e-05 0)
(0.00365826 8.75791e-05 0)
(0.00349381 9.66429e-05 0)
(0.00331329 0.000106857 0)
(0.00311491 0.000118328 0)
(0.00289672 0.000131157 0)
(0.00265663 0.000145444 0)
(0.00239242 0.000161282 0)
(0.00210174 0.000178759 0)
(0.00178212 0.000197955 0)
(0.00143099 0.000218946 0)
(0.00104567 0.000241802 0)
(0.000623417 0.000266584 0)
(0.000161395 0.000293349 0)
(-0.000343291 0.000322146 0)
(-0.000893588 0.000353021 0)
(-0.00149248 0.000386009 0)
(-0.00214298 0.00042114 0)
(-0.00284813 0.000458436 0)
(-0.00361093 0.000497911 0)
(-0.00443439 0.000539567 0)
(-0.00532148 0.000583393 0)
(-0.0062751 0.000629368 0)
(-0.00729806 0.000677452 0)
(-0.00839307 0.000727588 0)
(-0.00956269 0.000779702 0)
(-0.0108093 0.000833695 0)
(-0.0121351 0.000889446 0)
(-0.013542 0.000946812 0)
(-0.0150317 0.00100562 0)
(-0.0166055 0.00106567 0)
(-0.0182644 0.00112675 0)
(-0.020009 0.00118858 0)
(-0.0218395 0.0012509 0)
(-0.0237555 0.0013134 0)
(-0.0257563 0.00137573 0)
(-0.0278405 0.00143753 0)
(-0.0300062 0.00149842 0)
(-0.032251 0.00155799 0)
(-0.0345716 0.0016158 0)
(-0.0369643 0.00167141 0)
(-0.0394248 0.00172434 0)
(-0.041948 0.00177412 0)
(-0.0445282 0.00182025 0)
(-0.0471588 0.00186222 0)
(-0.049833 0.00189954 0)
(-0.0525428 0.0019317 0)
(-0.05528 0.00195817 0)
(-0.0580354 0.00197846 0)
(-0.0607995 0.00199207 0)
(-0.0635619 0.0019985 0)
(-0.0663119 0.00199727 0)
(-0.069038 0.00198792 0)
(-0.0717283 0.00196999 0)
(-0.0743706 0.00194308 0)
(-0.0769521 0.00190676 0)
(-0.0794595 0.00186067 0)
(-0.0818794 0.00180446 0)
(-0.084198 0.00173784 0)
(-0.0864013 0.00166053 0)
(-0.0884752 0.00157232 0)
(-0.0904055 0.00147305 0)
(-0.0921779 0.00136261 0)
(-0.0937784 0.00124097 0)
(-0.0951929 0.00110818 0)
(-0.0964078 0.000964355 0)
(-0.0974099 0.00080973 0)
(-0.0981866 0.000644636 0)
(-0.0987257 0.000469516 0)
(-0.0990161 0.000284922 0)
(-0.0990479 9.15937e-05 0)
(-0.098812 -0.000109129 0)
(-0.0983002 -0.000316893 0)
(-0.0975067 -0.000530294 0)
(-0.0964271 -0.000747898 0)
(-0.0950588 -0.000968157 0)
(-0.0934015 -0.00118935 0)
(-0.091457 -0.0014096 0)
(-0.0892295 -0.00162687 0)
(-0.086726 -0.00183898 0)
(-0.083956 -0.00204364 0)
(-0.080932 -0.0022385 0)
(-0.0776692 -0.00242115 0)
(-0.0741857 -0.00258917 0)
(-0.0705024 -0.00274023 0)
(-0.066643 -0.00287205 0)
(-0.0626335 -0.00298257 0)
(-0.0585025 -0.00306992 0)
(-0.0542804 -0.00313253 0)
(-0.0499992 -0.00316915 0)
(-0.0456924 -0.00317894 0)
(-0.0413938 -0.0031615 0)
(-0.0371379 -0.00311689 0)
(-0.0329585 -0.00304567 0)
(-0.0288886 -0.00294888 0)
(-0.0249598 -0.00282806 0)
(-0.0212014 -0.0026852 0)
(-0.0176405 -0.00252272 0)
(-0.0143007 -0.00234337 0)
(-0.0112026 -0.00215019 0)
(-0.00836276 -0.00194641 0)
(-0.00579373 -0.00173538 0)
(-0.00350401 -0.00152046 0)
(-0.00149797 -0.00130492 0)
(0.000224101 -0.00109186 0)
(0.00166576 -0.000884128 0)
(0.00283418 -0.000684317 0)
(0.00373978 -0.000494649 0)
(0.00439589 -0.000317001 0)
(0.0048183 -0.000152907 0)
(0.005025 -3.6035e-06 0)
(0.00503579 0.000129925 0)
(0.0048721 0.000246748 0)
(0.00455698 0.000345893 0)
(0.00411522 0.000426124 0)
(0.00357374 0.000485657 0)
(0.0029622 0.000521837 0)
(0.00231392 0.000530778 0)
(0.00166692 0.000507152 0)
(0.00106407 0.00044447 0)
(0.000551656 0.000336336 0)
(0.000182436 0.000182459 0)
(2.0448e-05 1.89246e-05 0)
(-1.26045e-07 7.08777e-06 0)
(1.10629e-05 -1.26509e-05 0)
(4.64233e-05 -4.64956e-05 0)
(0.000107732 -8.44731e-05 0)
(0.000195255 -0.000121853 0)
(0.000307907 -0.000156268 0)
(0.00044354 -0.000186675 0)
(0.000599496 -0.000212776 0)
(0.000772961 -0.000234657 0)
(0.000961157 -0.00025259 0)
(0.00116145 -0.000266931 0)
(0.00137143 -0.000278063 0)
(0.00158889 -0.000286368 0)
(0.0018119 -0.000292209 0)
(0.00203875 -0.000295925 0)
(0.00226796 -0.000297826 0)
(0.00249824 -0.000298189 0)
(0.00272853 -0.000297261 0)
(0.00295791 -0.000295262 0)
(0.00318561 -0.000292379 0)
(0.003411 -0.000288777 0)
(0.00363356 -0.000284594 0)
(0.00385289 -0.000279945 0)
(0.00406862 -0.000274924 0)
(0.00428049 -0.000269608 0)
(0.00448828 -0.000264053 0)
(0.00469179 -0.000258305 0)
(0.00489087 -0.000252393 0)
(0.00508539 -0.000246336 0)
(0.00527521 -0.000240143 0)
(0.00546023 -0.000233816 0)
(0.00564031 -0.000227349 0)
(0.00581533 -0.000220732 0)
(0.00598514 -0.000213951 0)
(0.0061496 -0.000206989 0)
(0.00630855 -0.000199828 0)
(0.00646181 -0.000192451 0)
(0.00660918 -0.00018484 0)
(0.00675045 -0.000176979 0)
(0.00688541 -0.000168855 0)
(0.00701382 -0.000160456 0)
(0.00713545 -0.000151775 0)
(0.00725004 -0.000142808 0)
(0.00735736 -0.000133557 0)
(0.00745714 -0.000124026 0)
(0.00754914 -0.000114225 0)
(0.00763312 -0.000104167 0)
(0.00770885 -9.38729e-05 0)
(0.0077761 -8.33639e-05 0)
(0.00783469 -7.26672e-05 0)
(0.00788441 -6.18132e-05 0)
(0.00792511 -5.08347e-05 0)
(0.00795663 -3.97672e-05 0)
(0.00797888 -2.86466e-05 0)
(0.00799174 -1.75095e-05 0)
(0.00799514 -6.39098e-06 0)
(0.00798903 4.67615e-06 0)
(0.00797338 1.56629e-05 0)
(0.00794816 2.65461e-05 0)
(0.00791338 3.731e-05 0)
(0.00786901 4.79481e-05 0)
(0.00781505 5.84652e-05 0)
(0.00775148 6.88788e-05 0)
(0.00767823 7.92218e-05 0)
(0.00759522 8.95443e-05 0)
(0.00750229 9.99147e-05 0)
(0.00739926 0.000110422 0)
(0.0072858 0.000121177 0)
(0.00716154 0.000132313 0)
(0.00702596 0.000143986 0)
(0.00687841 0.000156375 0)
(0.00671809 0.000169684 0)
(0.00654402 0.000184137 0)
(0.00635505 0.000199978 0)
(0.0061498 0.000217472 0)
(0.00592672 0.000236898 0)
(0.00568399 0.000258546 0)
(0.00541958 0.000282717 0)
(0.00513121 0.000309719 0)
(0.00481638 0.000339857 0)
(0.00447233 0.000373438 0)
(0.00409608 0.000410761 0)
(0.0036844 0.000452113 0)
(0.00323385 0.000497773 0)
(0.0027408 0.000548001 0)
(0.0022014 0.000603041 0)
(0.00161165 0.000663117 0)
(0.00096736 0.000728435 0)
(0.000264228 0.000799179 0)
(-0.000502183 0.000875511 0)
(-0.00133641 0.000957571 0)
(-0.00224307 0.00104548 0)
(-0.00322682 0.00113933 0)
(-0.00429238 0.00123919 0)
(-0.00544444 0.00134511 0)
(-0.00668769 0.0014571 0)
(-0.00802676 0.00157514 0)
(-0.0094662 0.00169918 0)
(-0.0110104 0.00182912 0)
(-0.0126637 0.00196482 0)
(-0.0144301 0.0021061 0)
(-0.0163133 0.00225269 0)
(-0.018317 0.00240431 0)
(-0.0204442 0.00256057 0)
(-0.0226976 0.00272104 0)
(-0.0250795 0.0028852 0)
(-0.0275916 0.00305246 0)
(-0.0302351 0.00322215 0)
(-0.0330103 0.00339355 0)
(-0.0359172 0.00356583 0)
(-0.0389546 0.00373809 0)
(-0.0421209 0.00390938 0)
(-0.0454133 0.00407867 0)
(-0.0488283 0.00424484 0)
(-0.0523615 0.00440676 0)
(-0.0560073 0.00456321 0)
(-0.0597594 0.00471293 0)
(-0.0636103 0.00485465 0)
(-0.0675516 0.00498705 0)
(-0.0715738 0.00510877 0)
(-0.0756665 0.00521848 0)
(-0.0798182 0.00531482 0)
(-0.0840167 0.00539644 0)
(-0.0882484 0.00546201 0)
(-0.0924993 0.00551023 0)
(-0.0967543 0.0055398 0)
(-0.100997 0.0055495 0)
(-0.105212 0.00553814 0)
(-0.109381 0.00550458 0)
(-0.113487 0.00544774 0)
(-0.11751 0.00536664 0)
(-0.121433 0.00526034 0)
(-0.125235 0.005128 0)
(-0.128897 0.0049689 0)
(-0.132399 0.00478238 0)
(-0.135722 0.00456793 0)
(-0.138844 0.00432515 0)
(-0.141747 0.00405377 0)
(-0.14441 0.0037537 0)
(-0.146813 0.003425 0)
(-0.148938 0.00306791 0)
(-0.150765 0.00268289 0)
(-0.152278 0.00227061 0)
(-0.153458 0.001832 0)
(-0.154291 0.00136826 0)
(-0.15476 0.000880847 0)
(-0.154853 0.000371522 0)
(-0.154558 -0.000157509 0)
(-0.153864 -0.000703427 0)
(-0.152764 -0.00126367 0)
(-0.151252 -0.00183504 0)
(-0.149324 -0.00241386 0)
(-0.14698 -0.00299607 0)
(-0.144221 -0.00357726 0)
(-0.141054 -0.00415266 0)
(-0.137486 -0.00471716 0)
(-0.133529 -0.0052654 0)
(-0.1292 -0.00579177 0)
(-0.124517 -0.00629053 0)
(-0.119502 -0.00675587 0)
(-0.114183 -0.007182 0)
(-0.108589 -0.00756332 0)
(-0.102755 -0.00789446 0)
(-0.0967156 -0.00817049 0)
(-0.0905118 -0.008387 0)
(-0.0841856 -0.00854025 0)
(-0.0777812 -0.00862733 0)
(-0.0713445 -0.00864621 0)
(-0.0649227 -0.00859591 0)
(-0.0585628 -0.00847656 0)
(-0.052312 -0.00828942 0)
(-0.046216 -0.00803695 0)
(-0.0403191 -0.00772274 0)
(-0.0346626 -0.00735153 0)
(-0.0292851 -0.00692903 0)
(-0.024221 -0.0064619 0)
(-0.0195003 -0.00595748 0)
(-0.0151481 -0.00542369 0)
(-0.0111841 -0.00486879 0)
(-0.00762278 -0.00430116 0)
(-0.00447258 -0.00372912 0)
(-0.0017365 -0.00316066 0)
(0.000588003 -0.00260331 0)
(0.00250872 -0.00206398 0)
(0.00403835 -0.00154886 0)
(0.00519403 -0.00106332 0)
(0.00599697 -0.000612003 0)
(0.00647193 -0.000198831 0)
(0.00664693 0.000172764 0)
(0.00655289 0.000499618 0)
(0.00622363 0.000778475 0)
(0.00569586 0.00100555 0)
(0.00500956 0.00117599 0)
(0.00420846 0.00128337 0)
(0.00334078 0.00131925 0)
(0.00245987 0.00127317 0)
(0.00162348 0.00113389 0)
(0.000891485 0.000892527 0)
(0.000335692 0.000551556 0)
(5.6135e-05 0.00015567 0)
(2.84183e-06 -1.57672e-06 0)
(2.63028e-05 -4.56547e-05 0)
(8.423e-05 -0.000107765 0)
(0.000175006 -0.000175335 0)
(0.000297688 -0.000241728 0)
(0.000450827 -0.000303292 0)
(0.000631919 -0.000358222 0)
(0.000837901 -0.000405854 0)
(0.00106552 -0.000446175 0)
(0.0013115 -0.000479529 0)
(0.00157272 -0.000506448 0)
(0.00184625 -0.000527546 0)
(0.0021294 -0.000543461 0)
(0.00241977 -0.00055482 0)
(0.00271522 -0.000562218 0)
(0.00301387 -0.000566207 0)
(0.00331412 -0.000567291 0)
(0.00361455 -0.000565922 0)
(0.003914 -0.000562501 0)
(0.00421148 -0.000557381 0)
(0.00450614 -0.000550865 0)
(0.00479731 -0.000543213 0)
(0.00508442 -0.000534642 0)
(0.00536701 -0.00052533 0)
(0.0056447 -0.000515422 0)
(0.00591718 -0.000505029 0)
(0.00618419 -0.000494234 0)
(0.00644551 -0.000483096 0)
(0.00670093 -0.000471652 0)
(0.00695027 -0.000459921 0)
(0.00719337 -0.000447904 0)
(0.00743002 -0.000435594 0)
(0.00766006 -0.000422969 0)
(0.00788327 -0.000410005 0)
(0.00809944 -0.000396668 0)
(0.00830833 -0.000382924 0)
(0.00850969 -0.000368737 0)
(0.00870325 -0.000354074 0)
(0.00888869 -0.0003389 0)
(0.00906572 -0.000323189 0)
(0.009234 -0.000306917 0)
(0.00939318 -0.000290067 0)
(0.0095429 -0.000272627 0)
(0.00968281 -0.000254597 0)
(0.00981253 -0.00023598 0)
(0.0099317 -0.000216791 0)
(0.01004 -0.000197052 0)
(0.010137 -0.000176792 0)
(0.0102223 -0.000156049 0)
(0.0102958 -0.000134868 0)
(0.010357 -0.000113301 0)
(0.0104056 -9.14019e-05 0)
(0.0104415 -6.92315e-05 0)
(0.0104644 -4.68506e-05 0)
(0.010474 -2.43205e-05 0)
(0.0104702 -1.69968e-06 0)
(0.0104527 2.09585e-05 0)
(0.0104216 4.36082e-05 0)
(0.0103765 6.62148e-05 0)
(0.0103174 8.87585e-05 0)
(0.0102442 0.000111237 0)
(0.0101566 0.00013367 0)
(0.0100545 0.000156101 0)
(0.00993776 0.000178604 0)
(0.009806 0.000201285 0)
(0.00965888 0.000224285 0)
(0.00949596 0.000247785 0)
(0.00931667 0.000272006 0)
(0.00912029 0.000297211 0)
(0.00890596 0.000323709 0)
(0.00867262 0.000351851 0)
(0.008419 0.000382032 0)
(0.00814361 0.000414688 0)
(0.00784469 0.000450295 0)
(0.00752023 0.000489361 0)
(0.00716793 0.000532423 0)
(0.00678517 0.000580044 0)
(0.00636905 0.000632802 0)
(0.00591633 0.000691284 0)
(0.00542346 0.000756081 0)
(0.00488659 0.000827775 0)
(0.00430153 0.000906938 0)
(0.00366381 0.000994122 0)
(0.00296867 0.00108985 0)
(0.0022111 0.00119462 0)
(0.00138582 0.00130889 0)
(0.000487328 0.00143307 0)
(-0.000490053 0.00156755 0)
(-0.00155218 0.00171265 0)
(-0.00270504 0.00186865 0)
(-0.00395474 0.0020358 0)
(-0.00530743 0.00221427 0)
(-0.00676932 0.0024042 0)
(-0.00834659 0.00260567 0)
(-0.0100454 0.00281868 0)
(-0.0118718 0.00304319 0)
(-0.0138316 0.00327907 0)
(-0.0159307 0.0035261 0)
(-0.0181744 0.003784 0)
(-0.0205679 0.00405238 0)
(-0.023116 0.00433072 0)
(-0.025823 0.00461842 0)
(-0.0286927 0.00491474 0)
(-0.0317283 0.00521881 0)
(-0.0349324 0.00552961 0)
(-0.0383068 0.00584601 0)
(-0.0418523 0.00616671 0)
(-0.0455692 0.00649026 0)
(-0.0494563 0.0068151 0)
(-0.0535119 0.0071395 0)
(-0.0577328 0.00746161 0)
(-0.0621149 0.00777944 0)
(-0.0666526 0.00809091 0)
(-0.0713393 0.00839382 0)
(-0.076167 0.00868589 0)
(-0.0811265 0.00896473 0)
(-0.0862073 0.00922795 0)
(-0.0913975 0.00947307 0)
(-0.096684 0.0096976 0)
(-0.102052 0.00989906 0)
(-0.107487 0.010075 0)
(-0.112972 0.0102229 0)
(-0.118488 0.0103404 0)
(-0.124018 0.0104252 0)
(-0.12954 0.0104749 0)
(-0.135035 0.0104876 0)
(-0.140482 0.010461 0)
(-0.145857 0.0103934 0)
(-0.151138 0.0102828 0)
(-0.156303 0.0101277 0)
(-0.161327 0.0099266 0)
(-0.166186 0.00967817 0)
(-0.170857 0.00938132 0)
(-0.175315 0.00903511 0)
(-0.179536 0.00863882 0)
(-0.183497 0.00819197 0)
(-0.187174 0.00769432 0)
(-0.190544 0.00714587 0)
(-0.193583 0.00654692 0)
(-0.196271 0.00589807 0)
(-0.198586 0.00520025 0)
(-0.200507 0.00445474 0)
(-0.202016 0.00366322 0)
(-0.203094 0.00282779 0)
(-0.203727 0.00195099 0)
(-0.203897 0.00103586 0)
(-0.203594 8.59729e-05 0)
(-0.202805 -0.000894433 0)
(-0.201522 -0.00190101 0)
(-0.199739 -0.00292825 0)
(-0.197451 -0.0039703 0)
(-0.194659 -0.0050207 0)
(-0.191363 -0.00607233 0)
(-0.187571 -0.00711751 0)
(-0.183289 -0.00814799 0)
(-0.178531 -0.00915505 0)
(-0.173313 -0.0101295 0)
(-0.167656 -0.0110619 0)
(-0.161582 -0.0119426 0)
(-0.15512 -0.0127618 0)
(-0.148302 -0.0135097 0)
(-0.141163 -0.0141771 0)
(-0.133744 -0.014755 0)
(-0.126088 -0.0152352 0)
(-0.11824 -0.0156101 0)
(-0.110251 -0.0158737 0)
(-0.10217 -0.0160209 0)
(-0.0940535 -0.0160483 0)
(-0.0859544 -0.0159541 0)
(-0.0779285 -0.0157384 0)
(-0.0700308 -0.015403 0)
(-0.0623157 -0.0149521 0)
(-0.0548356 -0.0143913 0)
(-0.0476404 -0.0137284 0)
(-0.0407766 -0.0129731 0)
(-0.0342868 -0.0121363 0)
(-0.0282084 -0.0112305 0)
(-0.0225738 -0.0102692 0)
(-0.0174091 -0.00926652 0)
(-0.0127344 -0.0082371 0)
(-0.00856306 -0.00719551 0)
(-0.00490175 -0.00615601 0)
(-0.00175061 -0.00513223 0)
(0.000896698 -0.00413686 0)
(0.00305269 -0.00318151 0)
(0.00473571 -0.00227658 0)
(0.00596944 -0.00143121 0)
(0.00678249 -0.000653442 0)
(0.00720802 4.95298e-05 0)
(0.00728337 0.000671015 0)
(0.00704991 0.00120428 0)
(0.00655296 0.00164192 0)
(0.005842 0.00197512 0)
(0.00497088 0.00219302 0)
(0.00399832 0.00228227 0)
(0.0029883 0.00222731 0)
(0.00200894 0.00201207 0)
(0.00113053 0.001624 0)
(0.000442291 0.00106289 0)
(7.95722e-05 0.000364628 0)
(5.5963e-06 -1.8507e-05 0)
(4.10451e-05 -9.74014e-05 0)
(0.000121306 -0.000195088 0)
(0.000240863 -0.000297927 0)
(0.00039711 -0.000398131 0)
(0.00058796 -0.000491125 0)
(0.00081045 -0.000574485 0)
(0.00106114 -0.00064721 0)
(0.00133643 -0.000709175 0)
(0.00163273 -0.000760774 0)
(0.00194656 -0.000802699 0)
(0.00227464 -0.000835794 0)
(0.00261395 -0.000860963 0)
(0.00296176 -0.000879114 0)
(0.00331561 -0.000891125 0)
(0.00367334 -0.00089782 0)
(0.00403307 -0.00089996 0)
(0.00439317 -0.000898234 0)
(0.00475226 -0.000893258 0)
(0.00510915 -0.000885574 0)
(0.00546285 -0.000875654 0)
(0.00581254 -0.000863901 0)
(0.00615753 -0.000850654 0)
(0.00649726 -0.000836195 0)
(0.00683127 -0.000820749 0)
(0.00715915 -0.000804492 0)
(0.00748057 -0.000787556 0)
(0.00779526 -0.000770034 0)
(0.00810295 -0.000751986 0)
(0.0084034 -0.00073344 0)
(0.00869636 -0.000714401 0)
(0.00898162 -0.000694853 0)
(0.00925891 -0.000674767 0)
(0.00952796 -0.000654098 0)
(0.0097885 -0.000632794 0)
(0.0100402 -0.000610799 0)
(0.0102827 -0.000588055 0)
(0.0105158 -0.000564502 0)
(0.0107388 -0.000540088 0)
(0.0109516 -0.000514763 0)
(0.0111536 -0.000488485 0)
(0.0113444 -0.000461222 0)
(0.0115234 -0.000432953 0)
(0.0116903 -0.000403668 0)
(0.0118445 -0.000373367 0)
(0.0119855 -0.000342066 0)
(0.0121129 -0.000309791 0)
(0.0122261 -0.000276582 0)
(0.0123246 -0.00024249 0)
(0.0124081 -0.000207576 0)
(0.0124759 -0.000171911 0)
(0.0125278 -0.000135574 0)
(0.0125632 -9.86472e-05 0)
(0.0125819 -6.12169e-05 0)
(0.0125834 -2.33675e-05 0)
(0.0125673 1.48205e-05 0)
(0.0125334 5.32757e-05 0)
(0.0124814 9.19397e-05 0)
(0.0124109 0.000130772 0)
(0.0123216 0.000169756 0)
(0.0122132 0.000208903 0)
(0.0120853 0.00024826 0)
(0.0119376 0.000287913 0)
(0.0117696 0.000327997 0)
(0.0115807 0.000368695 0)
(0.0113703 0.000410248 0)
(0.0111377 0.000452961 0)
(0.0108819 0.000497201 0)
(0.0106018 0.000543403 0)
(0.0102961 0.000592074 0)
(0.00996329 0.000643786 0)
(0.00960159 0.000699184 0)
(0.00920889 0.000758974 0)
(0.0087828 0.000823923 0)
(0.00832059 0.000894853 0)
(0.00781916 0.000972631 0)
(0.00727508 0.00105816 0)
(0.00668451 0.00115236 0)
(0.00604323 0.00125619 0)
(0.00534664 0.00137057 0)
(0.00458976 0.00149645 0)
(0.00376723 0.00163473 0)
(0.00287334 0.00178629 0)
(0.00190204 0.00195195 0)
(0.00084696 0.00213249 0)
(-0.000298539 0.00232863 0)
(-0.00154135 0.002541 0)
(-0.00288859 0.00277018 0)
(-0.00434753 0.00301665 0)
(-0.00592558 0.00328081 0)
(-0.00763023 0.00356299 0)
(-0.00946901 0.0038634 0)
(-0.0114494 0.00418215 0)
(-0.0135789 0.00451928 0)
(-0.0158646 0.00487469 0)
(-0.0183138 0.00524814 0)
(-0.0209332 0.00563929 0)
(-0.0237293 0.00604765 0)
(-0.0267081 0.00647254 0)
(-0.0298752 0.00691314 0)
(-0.0332354 0.00736844 0)
(-0.036793 0.00783722 0)
(-0.0405515 0.00831806 0)
(-0.0445134 0.00880932 0)
(-0.0486803 0.00930913 0)
(-0.0530527 0.0098154 0)
(-0.05763 0.0103258 0)
(-0.0624104 0.0108378 0)
(-0.0673906 0.0113487 0)
(-0.0725661 0.0118554 0)
(-0.0779307 0.0123548 0)
(-0.083477 0.0128436 0)
(-0.0891958 0.0133182 0)
(-0.0950767 0.0137751 0)
(-0.101107 0.0142106 0)
(-0.107274 0.0146207 0)
(-0.113561 0.0150017 0)
(-0.119953 0.0153498 0)
(-0.126431 0.015661 0)
(-0.132975 0.0159315 0)
(-0.139565 0.0161578 0)
(-0.146179 0.016336 0)
(-0.152793 0.0164629 0)
(-0.159385 0.0165349 0)
(-0.165929 0.0165491 0)
(-0.1724 0.0165024 0)
(-0.178772 0.0163922 0)
(-0.185018 0.016216 0)
(-0.191112 0.0159715 0)
(-0.197027 0.0156569 0)
(-0.202736 0.0152705 0)
(-0.208211 0.0148108 0)
(-0.213427 0.0142768 0)
(-0.218357 0.0136678 0)
(-0.222975 0.0129834 0)
(-0.227256 0.0122235 0)
(-0.231175 0.0113884 0)
(-0.234709 0.0104788 0)
(-0.237834 0.00949576 0)
(-0.240529 0.00844087 0)
(-0.242773 0.00731613 0)
(-0.244546 0.00612405 0)
(-0.245832 0.00486769 0)
(-0.246612 0.00355068 0)
(-0.246874 0.00217727 0)
(-0.246604 0.000752393 0)
(-0.24579 -0.000718281 0)
(-0.244425 -0.00222844 0)
(-0.242503 -0.00377109 0)
(-0.240019 -0.0053382 0)
(-0.236973 -0.00692108 0)
(-0.233366 -0.00851018 0)
(-0.229203 -0.0100952 0)
(-0.224493 -0.011665 0)
(-0.219247 -0.0132077 0)
(-0.213481 -0.014711 0)
(-0.207213 -0.0161617 0)
(-0.200466 -0.0175464 0)
(-0.193267 -0.0188514 0)
(-0.185647 -0.020063 0)
(-0.177641 -0.0211674 0)
(-0.169286 -0.0221513 0)
(-0.160627 -0.0230022 0)
(-0.151708 -0.0237082 0)
(-0.142579 -0.0242589 0)
(-0.133294 -0.0246451 0)
(-0.123907 -0.0248598 0)
(-0.114476 -0.0248978 0)
(-0.10506 -0.0247562 0)
(-0.0957184 -0.0244347 0)
(-0.086512 -0.0239358 0)
(-0.0775 -0.0232646 0)
(-0.0687405 -0.0224289 0)
(-0.0602893 -0.0214396 0)
(-0.052199 -0.0203098 0)
(-0.0445182 -0.0190551 0)
(-0.0372909 -0.0176931 0)
(-0.0305553 -0.0162433 0)
(-0.0243437 -0.014726 0)
(-0.0186815 -0.0131627 0)
(-0.0135875 -0.0115749 0)
(-0.00907266 -0.00998385 0)
(-0.00514097 -0.00841028 0)
(-0.00178893 -0.00687372 0)
(0.000994108 -0.00539234 0)
(0.00322568 -0.00398272 0)
(0.00492983 -0.00265978 0)
(0.0061367 -0.00143692 0)
(0.00688215 -0.000326309 0)
(0.00720739 0.000660696 0)
(0.00715866 0.00151284 0)
(0.00678712 0.00221822 0)
(0.0061488 0.00276343 0)
(0.00530464 0.0031328 0)
(0.00432074 0.00330793 0)
(0.00326874 0.003268 0)
(0.00222475 0.00299146 0)
(0.00126809 0.00245961 0)
(0.000502959 0.0016635 0)
(9.21065e-05 0.000618478 0)
(7.95117e-06 -4.29055e-05 0)
(5.42812e-05 -0.00016685 0)
(0.000155289 -0.000307284 0)
(0.000301653 -0.000450677 0)
(0.000488943 -0.000588822 0)
(0.000714241 -0.00071667 0)
(0.000974012 -0.000831423 0)
(0.0012644 -0.00093186 0)
(0.00158149 -0.00101779 0)
(0.00192143 -0.00108968 0)
(0.00228048 -0.00114837 0)
(0.00265513 -0.00119494 0)
(0.00304214 -0.00123058 0)
(0.00343853 -0.00125647 0)
(0.00384164 -0.00127379 0)
(0.00424912 -0.00128366 0)
(0.00465887 -0.00128711 0)
(0.00506911 -0.00128509 0)
(0.0054783 -0.00127845 0)
(0.0058851 -0.00126795 0)
(0.00628842 -0.00125423 0)
(0.00668731 -0.00123787 0)
(0.007081 -0.00121934 0)
(0.00746883 -0.00119904 0)
(0.00785027 -0.00117728 0)
(0.00822484 -0.00115431 0)
(0.00859217 -0.00113032 0)
(0.00895189 -0.00110545 0)
(0.0093037 -0.00107976 0)
(0.0096473 -0.00105331 0)
(0.00998238 -0.0010261 0)
(0.0103087 -0.000998112 0)
(0.0106258 -0.000969291 0)
(0.0109335 -0.000939576 0)
(0.0112314 -0.000908891 0)
(0.0115191 -0.000877151 0)
(0.0117962 -0.000844269 0)
(0.0120622 -0.000810158 0)
(0.0123167 -0.000774734 0)
(0.0125591 -0.000737922 0)
(0.0127888 -0.000699655 0)
(0.0130054 -0.000659881 0)
(0.0132081 -0.000618561 0)
(0.0133965 -0.00057567 0)
(0.0135698 -0.000531201 0)
(0.0137275 -0.000485165 0)
(0.0138688 -0.00043759 0)
(0.0139932 -0.000388519 0)
(0.0141 -0.000338014 0)
(0.0141885 -0.000286149 0)
(0.0142582 -0.000233011 0)
(0.0143084 -0.000178698 0)
(0.0143386 -0.000123313 0)
(0.0143482 -6.69613e-05 0)
(0.0143366 -9.74816e-06 0)
(0.0143033 4.82303e-05 0)
(0.0142478 0.00010689 0)
(0.0141695 0.000166168 0)
(0.014068 0.000226026 0)
(0.0139426 0.00028646 0)
(0.0137928 0.00034751 0)
(0.013618 0.000409265 0)
(0.0134176 0.000471873 0)
(0.0131907 0.000535546 0)
(0.0129365 0.000600575 0)
(0.0126541 0.000667329 0)
(0.0123422 0.000736267 0)
(0.0119996 0.000807941 0)
(0.0116247 0.000882998 0)
(0.0112157 0.000962187 0)
(0.0107705 0.00104635 0)
(0.0102868 0.00113644 0)
(0.00976177 0.00123349 0)
(0.00919234 0.00133861 0)
(0.00857501 0.00145301 0)
(0.00790588 0.00157794 0)
(0.00718061 0.00171471 0)
(0.00639441 0.00186466 0)
(0.00554208 0.00202916 0)
(0.00461792 0.00220956 0)
(0.00361585 0.00240719 0)
(0.00252931 0.00262337 0)
(0.0013514 0.00285933 0)
(7.47887e-05 0.00311625 0)
(-0.00130816 0.00339522 0)
(-0.0028054 0.00369722 0)
(-0.00442513 0.00402315 0)
(-0.00617577 0.00437376 0)
(-0.00806588 0.00474968 0)
(-0.0101041 0.0051514 0)
(-0.0122992 0.00557928 0)
(-0.0146597 0.00603352 0)
(-0.0171943 0.00651414 0)
(-0.0199113 0.007021 0)
(-0.0228187 0.00755378 0)
(-0.0259243 0.00811194 0)
(-0.0292353 0.00869475 0)