/*--------------------------------*- C++ -*----------------------------------*\
  =========                 |
  \\      /  F ield         | OpenFOAM: The Open Source CFD Toolbox
   \\    /   O peration     | Website:  https://openfoam.org
    \\  /    A nd           | Version:  7
     \\/     M anipulation  |
\*---------------------------------------------------------------------------*/
FoamFile
{
    version     2.0;
    format      ascii;
    class       volScalarField;
    location    "0.853";
    object      T;
}
// * * * * * * * * * * * * * * * * * * * * * * * * * * * * * * * * * * * * * //

dimensions      [0 2 -2 0 0 0 0];

internalField   nonuniform List<scalar> 
12359
(
2.54836e-75
1.74485e-61
-5.31478e-206
-1.10206e-41
2.85773e-70
-7.55471e-28
5.68371e-23
-2.07617e-25
1.32286e-17
-5.38526e-31
4.48272e-20
-7.20797e-14
0.270977
-5.43756e-38
4.43135e-43
1.16438e-05
0.00263061
1.45061e-112
2.73232e-115
-8.10848e-52
8.9418e-37
5.08834e-15
-2.43057e-56
-1.8799e-48
-3.4325e-59
8.75884e-54
-8.23046e-149
3.08436e-151
1.23516e-120
-6.07012e-140
1.0391e-135
9.75063e-166
-7.64135e-183
9.33462e-143
1.55607e-194
-7.26265e-132
6.42172e-91
2.87794e-78
2.11408e-72
7.20604e-84
7.50978e-65
-3.26143e-81
1.84187e-98
-1.80276e-101
-2.75999e-126
-1.35898e-124
6.1497e-129
1.91941e-137
-9.56762e-118
-6.12524e-146
-4.73407e-154
1.71564e-160
-1.01167e-168
-1.85539e-109
1.72485e-174
7.51441e-180
-8.34241e-105
5.57595e-186
1.51278e-189
-7.70285e-192
-5.01496e-177
4.1934e-200
3.57327e-157
9.89418
8.35926e-107
2.7563e-33
1.9351e-94
-9.08575e-163
-2.82723e-88
-3.03848e-09
117.871
-8.66256e-67
2.00736e-208
4.29236e-86
9.81811e-47
-2.96173e-197
6.62719e-172
-1.36593e-203
-3.91933e-96
-1.82956e-10
-6.40027e-27
-1.5848e-119
-1.75562e-258
-2.45543e-75
0.00164902
4.48086e-72
-1.41581e-117
9.93623e-167
1.02196
0.000527818
-4.6086e-225
3.10462
-1.22751e-226
-3.88168e-98
-4.60896e-79
9.28099e-50
-3.10229e-103
-9.05675e-99
1.75387e-49
-8.26145e-63
1.60748e-22
-2.23439e-221
1.06358e-72
29.1984
-4.15738e-127
2.36569e-27
4.38656e-220
0.00216285
6.91189e-81
1.88528e-28
-6.33736e-106
-2.88353e-119
-3.61868e-31
4.27978e-26
-1.10237e-79
-3.49406e-150
3.5938e-25
-1.27078e-118
3.59245
-6.63934e-257
-2.43386e-106
8.21706e-23
2.6643e-165
6.47233e-35
-9.65616e-118
-2.0914e-140
2.20812e-16
-1.22178e-74
4.08348e-204
-9.57916e-119
4.12814e-149
7.54906e-06
0.000275862
0.000177053
-2.51037e-221
2.07635e-35
7.38329e-149
1.00617e-36
8.16701e-217
2.95693e-17
-5.14733e-247
-1.90847e-74
1.73827e-36
-2.3241e-220
1.28955e-17
6.40508e-28
-1.98571e-257
0.000690683
-1.62949e-126
1.43885e-26
2.29999e-47
6.0482e-218
8.41648e-36
1.50147e-163
-2.94146e-232
117.076
2.89114e-23
6.79527e-06
-6.88391e-104
-3.03427e-167
1.65631e-33
-6.04294e-166
9.43888e-35
9.62286e-36
-7.36639e-244
-9.21323e-142
3.29127e-34
1.1939e-23
2.01332e-37
0.906776
-1.51673e-200
-7.74154e-199
1.60164e-38
-4.66047e-60
-1.01651e-128
1.20269e-17
-2.23992e-123
-5.98494e-125
-5.96877e-31
1.40522e-18
-8.07595e-38
6.45728e-230
1.19744e-203
-1.30195e-118
9.14126e-51
7.24112e-16
-3.24353e-99
-9.53593e-83
1.87837e-46
-1.74352e-98
-2.33517e-81
4.2896e-51
1.27894e-52
2.43376e-162
7.10305e-28
41.5656
2.5106e-60
-1.30206e-98
7.58585e-36
-1.42576e-117
1.18869e-26
6.31845e-47
-4.4897e-63
1.37787e-28
1.27759e-20
1.54741e-229
1.38861e-19
-6.4435e-62
6.05884e-30
-9.54104e-110
1.43339e-239
3.53028e-14
6.79639e-14
157.013
2.13503e-15
2.00001e-213
-6.29222e-99
-6.62425e-81
-2.37343e-98
-1.00079e-72
2.07903e-26
-5.15244e-110
7.82763e-36
3.40307
-2.68444e-119
4.20903e-239
-2.24085e-71
2.40004e-82
4.70219e-19
-3.78908e-96
-2.30684e-95
-1.29086e-245
6.465e-18
-8.03617e-58
-3.61502e-83
-6.40109e-59
1.86523e-253
9.04824e-34
-7.41104e-82
9.50563e-05
-7.80523e-236
6.30109e-69
-5.4465e-90
4.76914e-10
1.14495e-31
0.00102911
2.79526e-190
7.49112e-31
2.18943e-134
8.04955e-53
9.42837e-20
1.25544e-80
-4.84155e-128
-1.79539e-95
1.40365
128.547
3.40293e-253
6.18185e-112
1.53066
185.888
-5.04562e-62
4.36504e-32
6.42522e-21
1.86463e-28
-3.46624e-62
61.4978
3.57348
3.22804e-30
2.00681e-113
1.68989e-35
9.07138e-38
1.81708e-50
1.26573e-36
-4.35666e-97
8.59844e-110
1.53023e-237
2.40058e-111
8.56941
5.43699e-30
-1.06831e-203
2.15198e-218
3.16745e-28
5.0839e-112
4.14205e-95
2.56115e-70
1.02246e-249
4.58933e-21
1.04688e-219
-1.05467e-219
3.18487e-167
1.17385e-35
-2.44502e-121
54.5421
8.25217e-222
4.28753e-219
1.13281e-71
-5.59333e-135
2.77976e-27
-8.65818e-84
1.47179e-158
-9.37082e-225
7.81636
4.6423e-20
-5.46993e-226
-4.87265e-98
-3.82673e-85
-3.0676e-133
-3.45801e-149
-3.79855e-151
-1.29859e-130
1.27222e-115
-5.5352e-16
-1.50579e-134
-4.81719e-135
1.49111e-79
1.34782e-33
1.65921
7.92797e-131
-7.16334e-53
4.17267e-06
3.29803e-219
3.55272e-44
-1.64506e-202
2.03143e-59
-1.21052e-218
4.84089e-129
4.14651e-16
7.65124e-41
1.76851e-16
3.68018e-96
-3.28861e-90
9.26807e-53
1.07165e-48
-4.0626e-89
3.82378e-53
3.66138e-53
1.59726e-185
2.35489e-174
1.13444e-174
4.09621e-174
2.53743e-173
0.000395114
-9.55373e-249
2.87423e-25
1.40914e-36
4.3817e-53
1.45839e-34
3.4794e-40
4.38028e-72
1.29083e-61
2.37341e-40
1.52842e-62
-1.47685e-53
7.4481e-31
3.97298e-30
1.49055e-30
-3.93975e-73
1.34674e-14
-1.17236e-75
-1.34653e-75
2.80784e-36
4.22281e-20
-1.04049e-121
1.68184e-173
6.59369e-60
1.34405e-174
-5.16424e-120
169.092
17.8825
7.72848e-120
-1.87982e-214
-1.64378e-223
-6.78171e-234
4.995e-41
-1.27883e-230
6.74557e-231
1.25651
5.77092e-36
0.000401977
3.22474e-122
1.7135e-30
1.32327e-113
-9.61781e-89
4.27713e-27
1.05282e-60
-3.03409e-39
4.13687e-62
4.39238e-122
1.2049e-203
1.7025e-36
1.78744e-30
1.43463e-120
8.44303e-12
2.20439e-27
1.12151e-49
2.85335e-42
1.54541e-35
-1.75629e-213
10.6839
8.55812e-14
8.91627e-121
1.54244e-10
-3.31162e-77
-9.40544e-245
8.83703e-245
-7.24936e-235
0.000757608
5.33034e-21
3.08727e-53
3.65212e-45
5.29473e-48
-1.30606e-77
-7.78002e-38
1.12728e-43
3.18395e-10
1.6644
-1.18751e-12
1.08622e-52
1.47151e-31
2.22203e-79
3.94089e-28
2.10704e-66
1.72928e-58
-6.10212e-144
3.61963e-68
1.40895e-38
-2.19301e-229
176.22
-3.3906e-93
0.895703
1.29257e-31
2.74465e-103
1.97151e-29
1.06094
2.14582e-38
5.86326e-60
5.36166e-50
1.7021e-30
2.60208e-27
-5.70456e-115
-2.91615e-239
6.38411e-24
-3.06337e-217
3.10405e-06
9.31477e-148
-6.67888e-56
6.37888e-35
2.17908e-96
0.00906598
1.7967e-24
-3.95947e-65
-1.20118e-114
3.5919e-05
1.16589e-190
4.19571e-126
6.47181e-15
-6.18762e-213
-1.27235e-114
8.04739e-128
1.09997e-07
16.829
-1.02165e-76
1.22682e-171
-1.06937e-32
2.02182e-36
1.82815e-44
2.53408e-34
2.95747e-37
6.00725e-184
-1.54974e-235
2.70919e-40
3.8027e-223
5.37737e-36
6.45051e-45
1.18937e-28
-1.40842e-126
5.03042e-25
1.90434e-13
1.39795e-142
-2.68021e-78
5.39707e-119
-4.16964e-29
1.15482e-14
2.53236e-215
6.65929e-39
5.61701e-39
7.27376e-82
1.21888e-37
4.37264e-147
3.14504e-21
1.98631e-63
1.1648e-33
4.97738e-29
2.40247e-182
-4.73146e-79
6.56344e-10
0.000984604
3.16611e-225
2.76589e-57
3.5503e-10
5.79017e-44
0.817958
-6.61093e-235
5.5201e-149
5.6637e-189
1.90427e-34
-1.92919e-62
-1.37387e-71
1.48033e-145
3.63401e-41
1.58367e-56
-4.81844e-62
-1.95016e-104
0.000277156
2.44193e-212
0.000635616
2.78688e-168
148.234
2.89574e-62
1.21139e-10
1.28506e-188
-7.65559e-128
1.86442e-32
-2.73924e-120
-2.31047e-159
2.48648e-98
-2.95812e-60
-6.44873e-62
3.84746e-12
1.19208e-23
9.40819e-24
-4.49065e-258
-4.00001e-120
7.38265e-43
0.00130048
-8.84626e-258
-2.32e-208
3.22518e-38
5.11672e-187
1.23246e-16
1.25269
99.588
-2.63581e-256
3.16374e-80
7.53121e-19
-3.23549e-69
-5.09607e-129
94.1991
-9.18361e-211
8.6184e-24
8.81704e-34
-3.17355e-81
-1.17471e-131
4.19796e-156
6.06836e-98
4.07986e-37
4.17343e-63
-6.5067e-76
-2.57441e-255
-2.68592e-202
-3.77511e-64
-1.42278e-124
9.58173e-28
9.61934e-35
9.46352e-166
-1.92676e-205
2.99882e-30
169.379
-2.55281e-136
1.50217e-10
-1.71287e-224
-2.20233e-75
5.88452e-24
5.07995e-44
1.52161e-20
1.8631e-28
-1.1748e-62
4.31311e-33
-2.77446e-241
5.43278e-195
2.37065e-47
-1.76613e-71
-1.99436e-62
-3.68996e-73
4.82303e-232
-6.85119e-205
-1.20024e-139
7.16551e-49
7.58583e-29
-2.97622e-33
-7.04005e-92
-1.74986e-31
7.37754e-37
1.45695e-58
-1.70898e-30
-2.52775e-55
1.10549
2.48654e-35
1.0248e-53
6.06261e-29
1.76368e-196
2.6355e-23
5.01009e-32
1.26384e-258
-3.68981e-213
7.69387e-186
1.07155e-189
4.67857e-07
3.4999e-58
1.90893e-88
-1.84653e-32
8.91457e-98
4.49481e-16
1.00904e-44
1.28713e-36
-1.30807e-138
7.02593e-11
1.09657e-232
-2.4707e-48
-2.23101e-115
4.55392e-19
-8.72328e-30
1.03119e-66
6.36245e-58
8.27728
7.39193e-38
1.0207e-13
3.10316e-67
1.35853e-11
0.573452
-2.52262e-176
-1.94326e-122
1.5019e-233
2.01393e-08
-4.91111e-123
6.26867e-63
0.00743529
-3.72348e-209
-4.64595e-61
6.43215e-32
3.02462e-63
4.66679e-134
-2.74389e-68
9.92514e-170
-1.88308e-66
-1.82267e-170
-3.11901e-169
-1.45379e-70
6.02175e-35
1.69718e-37
8.23726e-62
1.45138e-08
6.4236e-45
17.5171
3.29315e-37
9.76086e-71
-2.0835e-68
6.58133e-39
8.62454e-52
4.87585e-51
0.622901
-1.80176e-35
2.31275e-54
2.24573e-52
3.33764e-114
-1.33029e-125
9.21793e-31
-1.21917e-237
15.9132
9.11258e-169
-1.73331e-34
2.68567e-22
3.29278e-07
3.07287e-19
5.95856e-30
3.78412e-33
1.99265e-68
2.03261e-19
8.61338e-42
1.29753e-13
4.93858e-52
1.17322e-13
2.40245e-53
-9.49473e-251
1.54111e-52
175.179
3.18705e-13
-1.5671e-94
2.69245e-243
1.04607e-163
3.37534e-86
-2.386e-55
2.74167e-38
7.06436e-59
4.57602e-185
1.57174e-93
2.47371e-51
1.45354e-96
-1.25106e-104
7.81851e-13
-2.91393e-106
1.66731e-43
1.2447e-26
-8.92185e-95
2.18907e-86
4.87593e-28
-9.46615e-260
-1.88982e-89
51.1765
-8.29615e-193
1.45426e-16
6.17517e-23
-1.38209e-87
1.04042e-32
1.12115e-26
4.34517e-54
1.01216e-26
-1.44151e-122
-9.56003e-33
-2.20988e-129
3.18788e-54
8.1927e-29
-1.75025e-31
-2.66199e-122
1.75719e-32
1.90315e-06
2.8605e-45
9.64499e-69
-5.48634e-116
1.05327e-22
6.58631e-07
3.0781e-117
-8.92995e-215
1.61124e-53
-7.68007e-229
0.673732
1.2483e-52
2.05355e-12
1.51845e-66
3.42615e-60
13.0329
1.83779e-64
0.00155853
1.48005e-39
94.9305
2.23838e-42
-7.18605e-75
6.01834e-66
2.63838e-83
0.00394233
0.000372444
1.68025e-172
8.89005e-170
-2.51218e-29
4.4285e-160
0.00334257
1.71491e-28
3.4095e-10
-8.22107e-116
131.68
0.0928286
8.0802e-52
-2.32025e-250
-7.35595e-127
-9.98976e-38
1.95972e-84
-7.8193e-91
-2.2015e-82
2.91358e-38
5.53636e-43
43.5577
1.40371e-07
1.06866e-186
3.70851e-37
4.96342e-25
-4.44347e-28
-2.6778e-72
8.86276e-23
1.52297e-32
-1.13606e-36
-8.3973e-133
6.32463e-247
4.03824e-21
4.49562e-18
8.55919e-61
-2.5785e-30
3.19524e-13
4.38502e-72
2.35664e-55
-9.18815e-114
-2.30574e-78
5.25289e-15
-2.09135e-76
6.82287e-26
5.63456e-40
2.67193e-48
3.5502e-96
-1.07486e-76
6.21873e-07
1.34831e-68
-6.73266e-73
42.0225
1.23074e-48
1.18046e-73
0.0090495
-6.53518e-254
3.8955e-67
6.65744e-60
-3.09592e-85
5.38282e-144
4.81233e-57
1.32798e-260
1.02297e-09
1.36133e-121
-2.01527e-60
1.56325e-21
1.62357e-32
2.59181e-62
4.10926e-65
3.39275e-22
90.9682
8.12052e-195
5.78117e-102
1.13606e-72
0.00752131
3.43157e-18
-6.63088e-124
3.18247
-4.28803e-247
-1.21132e-124
185.638
-5.28772e-94
-5.76265e-121
-6.19952e-118
3.15286e-41
-4.73332e-40
8.06489e-192
-2.32043e-87
6.89803e-25
2.35798e-60
-1.76617e-64
7.3991e-83
-4.25985e-175
-6.60629e-39
2.07829e-06
-4.97778e-67
-2.03221e-31
2.4251e-40
1.77349e-52
1.48119e-10
6.20672e-26
1.42778e-81
-7.95154e-123
0.000451587
1.15073e-34
1.42073e-46
-6.14245e-113
5.51276e-188
-7.57766e-37
4.90461e-11
9.60797e-71
3.88086e-29
2.89465e-69
-8.99619e-81
5.23817e-103
1.65609e-39
148.511
18.7663
2.64874e-38
-9.94796e-65
-2.26794e-104
1.30774e-40
0.0126268
-7.08987e-34
-2.61255e-125
1.16372e-11
6.67678e-08
9.68841
7.35647e-88
89.7634
-3.99101e-191
-1.64161e-79
-1.14902e-187
4.91157e-11
2.19182e-45
82.3557
-2.30608e-129
0.0195348
6.96924e-159
-2.30911e-65
7.51365e-30
-5.96706e-87
2.61094e-12
0.126338
-3.52021e-92
3.86891e-95
3.68298e-67
6.89625e-90
-1.17816e-93
8.05412e-14
8.17446e-48
1.58229e-64
1.44084e-15
-8.59267e-94
1.96782e-182
-1.96383e-68
2.74761e-162
5.46807e-27
5.68983e-67
3.14422e-09
4.73422e-11
-2.06938e-42
1.229e-33
8.28854e-38
3.00833e-67
0.0140634
5.05538e-73
-4.49065e-98
7.79401e-232
2.11221e-11
-4.14515e-35
-9.55663e-131
2.58722e-26
-3.91817e-83
6.43376e-34
-1.86e-37
-9.51883e-33
5.1441e-39
89.0908
2.29522e-37
-2.95231e-41
0.132705
1.3447e-86
2.09395e-07
1.05941e-24
7.99117e-163
1.59502e-71
-2.05984e-103
-6.09864e-71
-7.87861e-243
-1.73477e-117
2.3951e-07
2.34659e-11
-1.66458e-118
204.759
3.70792e-29
-3.7224e-166
6.58952e-12
1.11897e-12
-1.38783e-168
9.72238e-11
1.77133e-22
2.67507e-11
2.76686e-168
-2.80849e-126
-1.44931e-101
-5.50912e-169
-1.62074e-36
29.0447
-1.12297e-131
5.01972e-12
-1.74957e-255
2.64788
4.67384e-27
4.9992e-36
-4.80805e-212
-2.45046e-133
-5.50722e-78
1.27164e-40
2.81793e-15
1.74402e-34
-1.58709e-94
-8.48619e-90
-1.24286e-167
2.04186e-28
2.7351e-38
-7.54618e-103
-8.67343e-213
1.0181e-55
7.7897e-35
3.56797e-44
-6.34411e-139
6.83772e-07
4.22603e-29
5.382e-159
9.11329e-46
2.05664e-90
-3.47295e-74
194.753
-2.90541e-95
-1.33031e-164
6.99068e-39
-3.2007e-36
-7.8636e-45
2.82102
-1.90519e-62
1.68175e-75
2.73059e-33
-1.60619e-85
-1.01399e-83
5.55056e-74
2.74198e-85
-5.56243e-29
-6.15272e-75
16.3067
-1.27168e-43
5.42089e-10
-5.30426e-82
0.00724801
2.20972e-31
1.5844e-09
6.82253e-14
5.55425e-34
2.89259e-74
3.8296e-80
2.53654e-58
1.60831e-255
-9.16479e-77
6.12147e-36
4.26696e-13
-5.5171e-86
3.09375e-160
2.37785e-36
1.5954e-35
4.52444e-17
1.87769e-39
8.95257e-12
5.5867e-17
-1.19949e-111
2.68461e-50
0.771948
4.00648e-37
1.28574e-245
1.10222e-88
-6.03357e-88
1.00404e-248
1.53406e-51
-1.28961e-192
-2.34145e-75
5.96113e-15
1.2006e-33
2.64674e-06
-5.82041e-189
1.48513e-132
1.31627e-226
-5.33743e-87
-5.84554e-104
1.66695e-09
-1.06487e-103
4.5501e-133
4.88694e-07
3.77158e-36
3.75783e-48
8.0477e-53
2.24948e-17
1.12932e-94
3.97653e-12
5.7343e-81
2.47295e-184
0.00204368
2.01916e-42
2.0196e-20
-3.80576e-99
55.0353
-7.70078e-40
4.7348e-45
1.04915e-34
2.91174e-30
40.6936
2.72995e-78
3.56558e-12
1.32578e-48
8.88071e-47
8.81356e-141
6.72048e-66
1.49244e-07
4.52782e-78
5.16386e-09
-1.35859e-92
-1.18164e-96
8.41115e-13
1.37218e-150
1.14604e-124
9.33444e-77
3.87666e-41
3.58659e-11
-9.89768e-94
2.93781e-88
-6.88593e-228
3.62873e-47
0.00237653
2.76057e-42
-4.55182e-88
-3.51687e-63
6.41089e-96
-1.40688e-128
13.9679
-2.8179e-47
1.94102e-216
4.7733e-49
3.11637e-97
-1.35815e-38
-1.25466e-27
2.60796e-45
2.42997e-86
1.08039e-14
3.21254e-11
-3.04968e-217
4.72038e-61
1.24772e-11
-2.18042e-131
4.50606e-194
-6.55765e-65
8.79763e-51
4.92941e-80
1.44674e-192
2.46905e-51
2.0466e-12
-5.58273e-168
3.02098e-23
2.98817e-193
-1.26274e-102
2.02265e-55
4.83125e-05
-1.75604e-234
2.12989
-4.6748e-46
1.06991e-21
41.1278
-2.89242e-42
1.31277e-57
0.03683
-1.08615e-86
1.58334e-05
5.52131e-19
-6.26927e-65
-5.59033e-78
-1.92074e-79
-1.56626e-97
-1.53589e-102
6.02104e-22
0.0282024
196.363
1.44775e-25
-5.26458e-29
0.0201743
7.21524e-28
13.3928
8.11609e-145
-6.85096e-96
7.73314e-19
3.39797e-43
-4.51117e-118
1.65528e-25
-2.279e-82
35.4524
-9.14489e-246
-6.37823e-131
5.96497e-139
206.277
-1.73466e-36
2.17734e-44
-4.63655e-77
4.26859e-19
-1.50368e-82
-3.92883e-135
3.28536e-07
1.61109e-80
3.09414e-07
5.36751e-22
2.22477e-68
2.38837e-14
6.86237e-43
-3.68269e-96
-6.47769e-130
-5.51304e-127
0.22848
2.02567e-13
-1.87756e-106
7.00391e-18
1.79809e-48
6.36071e-25
2.09438e-233
5.61413e-47
1.98532e-07
3.4824e-10
-5.17268e-41
-4.23507e-67
5.58133e-131
5.03051e-16
1.34874e-83
1.31541e-134
3.6984e-10
6.9474e-17
-4.531e-108
1.38913e-30
9.3325e-43
-5.33554e-228
-1.91169e-119
-3.33285e-195
-5.16251e-40
87.8282
1.91591e-11
1.40511e-19
-1.04473e-112
3.3433e-82
1.26437e-41
-7.14537e-220
3.22936e-09
1.18132e-43
89.8275
-9.98452e-28
2.07298e-72
-3.38905e-109
3.41333e-144
8.0063e-79
-1.46072e-84
-2.0307e-116
14.0634
2.70406e-15
4.77335e-36
4.43243e-17
-1.80369e-42
-3.30036e-130
-5.04865e-255
-1.94984e-116
3.70029e-26
0.906943
-7.02102e-22
4.55605e-45
-1.64069e-48
-3.58871e-74
7.94043e-16
0.0359644
0.0260324
1.23173e-84
-4.19862e-69
1.06633e-28
8.54572e-98
1.28055e-187
-1.62711e-117
5.41099e-14
-3.56136e-105
1.28442e-59
-2.827e-92
1.1368e-40
3.18016e-08
1.83801e-98
-3.50413e-117
2.14245e-10
5.26636e-15
1.07306e-93
9.18223e-140
-9.07264e-50
0.000506946
1.05882e-25
1.29924e-22
-2.67087e-52
3.18194e-58
0.0611782
1.44584e-80
-6.03964e-22
-3.07881e-128
1.5238e-12
9.96414e-12
-3.92889e-171
1.94163e-140
92.6394
1.11221e-119
1.91658e-73
9.84368e-28
-7.84384e-109
-1.43476e-106
-2.11301e-93
4.16259e-121
1.83646e-226
5.72286e-18
1.62641e-05
1.36973e-142
0.0188482
-1.08958e-83
-9.66924e-122
1.24142e-12
4.27716e-09
1.10197e-26
-3.86454e-85
-4.45781e-117
-9.79812e-45
151.078
-8.61581e-105
3.36344e-143
-2.7295e-150
-8.33592e-105
1.81066e-59
1.00409e-28
-8.48853e-108
2.14988e-78
-5.34729e-125
7.22328
7.42033e-09
8.07015e-41
-9.00728e-39
-3.13593e-82
-1.10037e-121
5.90028e-16
1.35066
-6.47223e-73
9.28398e-149
-2.94955e-123
1.16856e-13
-3.29713e-108
-5.85647e-130
1.87861e-08
-6.69791e-86
3.88459e-118
114.652
4.2636e-06
10.1326
1.30417e-15
-1.14964e-107
1.64005e-12
1.94168e-10
0.166024
5.19735e-95
1.40505e-28
-5.9806e-223
0.110515
-2.86271e-250
-6.27884e-97
3.34944e-82
-1.81312e-148
4.9753e-41
-1.01839e-92
-4.58485e-106
1.7164e-96
7.27287
3.54826e-14
1.34918e-37
-4.42562e-116
2.90246e-29
18.3535
7.57141e-09
4.24852e-43
-4.94457e-51
-1.00122e-97
1.35155e-84
1.60165e-144
-1.72864e-110
5.62483e-141
-1.12735e-118
-1.85426e-43
6.64089e-15
1.41706e-16
0.316049
0.000112727
1.27526e-08
2.96246e-24
0.119114
-1.21065e-131
3.94033e-05
-1.20282e-123
0.00170596
3.5758e-09
1.96956e-35
-1.01404e-106
6.06692e-35
6.76999e-23
2.38815e-64
83.2919
1.54631e-12
0.367363
-3.26311e-120
9.81959e-10
3.19066e-07
6.29595e-10
1.59311e-07
8.08181e-11
-1.89135e-117
-3.13923e-96
2.49949e-40
-2.74549e-111
1.0903e-28
-1.89041e-100
4.19842e-38
2.52843e-172
-7.31332e-91
6.0777e-21
4.21951e-31
6.21863e-136
-2.99227e-47
0.939037
89.0504
-2.28208e-149
1.81915e-49
1.42594e-75
1.09608e-10
1.30096e-29
5.06196
4.16024e-05
3.3536e-97
2.17297e-39
2.48462e-07
-4.86508e-24
6.0656e-06
4.27137e-54
8.33833e-12
2.38625e-137
0.190905
1.164e-08
-5.81178e-138
1.32611e-07
0.156405
1.4434e-45
4.20381
-4.65428e-86
7.79025e-09
1.8072e-78
-2.41476e-154
8.30229e-74
-3.86918e-81
0.0820384
0.000248128
0.0396478
-6.21914e-137
7.28061
3.78826e-36
6.99924e-13
-1.40717e-31
2.94397e-41
4.85616e-50
0.0196647
-1.53411e-84
3.29089e-95
5.96001e-20
3.88464e-09
2.84029e-28
3.6129e-18
-1.66423e-57
0.0493694
1.38908e-29
7.02513e-29
2.23774e-09
-2.23759e-172
8.58817e-08
7.08602e-11
4.81662e-08
-8.85823e-78
0.000960468
3.42444e-143
1.88145e-29
5.20498e-42
9.65839e-06
9.22859e-72
6.34724e-21
1.53862e-08
76.9482
3.94756e-106
7.00334e-36
-2.05396e-47
5.05665e-09
1.07103e-18
-6.13155e-96
7.96845e-38
9.22458e-146
13.6104
4.30838e-230
5.34031e-145
1.51883e-193
9.26588e-07
2.32584e-116
2.66048e-37
5.94149
3.93068e-52
3.12751e-58
-9.97128e-111
6.40213e-182
1.05195e-09
8.61569e-148
-3.31544e-41
3.54198e-12
-5.77231e-46
3.02572e-06
8.49494e-92
1.2093e-36
1.36573e-07
1.71367e-18
1.74823e-70
87.6907
6.27155e-234
6.87411e-177
-2.02103e-87
225.177
1.66927e-77
1.53309e-71
8.51985e-08
-7.13777e-107
3.435e-90
1.37677e-13
9.03037e-06
3.72095e-31
0.00913595
-6.13296e-107
-2.56081e-87
2.55103e-41
1.61375e-46
8.89233e-06
-3.21343e-125
1.43085e-67
-7.12569e-55
-1.51775e-17
3.04375e-60
1.80982e-137
2.09496e-39
-7.15114e-19
-4.9716e-202
-1.9818e-199
4.22185e-05
9.54473e-31
8.01861e-05
-2.76102e-89
2.30645e-245
-1.07118e-17
1.15422e-06
-9.53623e-130
-2.77694e-103
8.19409e-145
15.2264
-6.72464e-202
2.66718e-32
7.44351e-05
-1.86159e-194
2.65962e-180
1.02122e-18
-1.01891e-157
-1.14476e-198
8.38293e-40
3.00285e-13
-5.7135e-140
1.30721e-21
-1.552e-150
9.56009e-08
-2.67894e-247
1.28347e-07
5.03841e-13
2.35216e-20
-2.59959e-194
5.18917e-15
5.3381
3.57134e-98
4.35182e-48
8.35581e-159
1.47874e-13
1.93417e-151
8.50325e-07
2.58222e-09
-9.63867e-84
1.60208e-188
1.42398e-13
5.6753e-14
8.52291e-46
9.90111e-44
2.18504e-16
-5.80851e-156
1.56216e-15
3.48914e-190
1.41408e-05
1.12034e-08
1.03988e-08
9.70822e-20
-4.61815e-23
12.0481
1.23331e-20
2.22973e-42
1.38954e-14
-6.90287e-100
4.47083e-12
2.75071e-16
-1.19748e-43
6.55552e-78
0.0947479
-6.63841e-208
0.0456818
104.224
-6.60979e-111
2.32681e-08
81.933
1.13282e-34
5.64922e-40
2.67058e-16
-1.42148e-53
1.71445e-143
6.54814e-08
0.0130615
0.767551
-1.67616e-99
3.69293e-15
0.00042302
3.23175e-14
-1.06592e-118
6.34748e-174
2.91503e-31
0.0221083
7.22183e-09
2.57066e-16
-2.41596e-236
-1.31138e-152
1.66392e-14
-3.14353e-106
1.62954e-42
-7.47661e-102
2.08182e-185
2.36703e-07
5.14283e-85
0.000179049
5.16053e-45
1.49363e-165
9.30607e-174
4.28811e-15
-7.27827e-101
6.28436e-34
4.62292e-16
0.773773
-8.244e-50
-1.1249e-137
2.34686e-06
-1.42105e-94
3.89223e-147
2.59834e-66
7.87694e-14
-6.7937e-98
6.70053e-14
1.76001e-44
218.697
9.97842e-15
-3.90043e-129
9.13943e-05
-7.39396e-192
4.89897e-09
1.30601e-36
6.83126e-06
0.00472732
-6.3351e-45
0.000152559
6.63779e-164
9.78324e-09
2.45959e-121
1.20689e-50
3.29522e-05
2.42455e-27
1.2496e-05
0.0164248
-9.0573e-20
1.15539e-07
2.47217e-06
-1.21212e-134
1.2981e-149
-2.29115e-190
0.000194022
-2.99237e-24
-5.79729e-133
1.67855e-07
1.67354e-05
6.98851e-37
4.65911e-13
6.95252e-53
-5.2748e-34
0.00265004
-3.97241e-71
8.1446e-29
4.51685e-33
3.68775e-223
-2.34227e-221
-1.49108e-134
-1.95908e-99
1.51737e-44
5.0702e-167
-5.16109e-85
1.94107e-105
-2.27572e-63
7.01363e-18
-4.29869e-117
1.3095e-06
-6.77378e-249
1.72242e-11
3.88676e-06
-2.50704e-128
5.52861e-05
1.77682e-12
6.03942e-06
2.65188e-59
1.12823e-16
-1.41291e-108
4.53831e-37
2.96347e-47
2.21164e-175
-2.88451e-121
-6.19414e-91
-9.20214e-127
2.25376e-195
1.05523e-54
4.77623e-197
-1.05095e-30
6.04798e-23
0.0645637
9.91533e-169
6.45274e-62
2.19229e-165
-2.80478e-105
1.28914e-21
7.21884e-64
-1.40152e-130
123.395
2.15603e-14
7.83088e-31
2.31794e-59
3.88348e-15
1.36243e-23
1.77854e-63
5.93392e-18
1.72597e-13
1.36726e-104
7.3204e-192
-1.34332e-81
1.54782e-07
-7.09886e-149
-6.24218e-135
8.71513e-14
-9.02227e-112
-1.37706e-106
6.67355e-74
-2.55265e-138
0.00109931
4.51366e-167
-1.57307e-136
3.25807e-20
2.91035e-18
6.12513
2.8747e-13
-9.19983e-58
-7.47532e-130
7.58667e-17
-1.95072e-131
1.28019e-26
4.69669e-48
-2.65807e-105
5.42644e-06
-4.93219e-198
1.1043e-21
2.99825e-53
6.71851e-15
-7.97149e-43
7.92979e-201
-1.99682e-106
1.48771e-246
9.14253e-25
-4.29403e-151
5.66461e-19
8.34249e-43
-2.29387e-89
-3.54629e-56
2.70163e-38
1.49414e-193
3.21077e-21
1.15491e-21
-2.46682e-100
6.69425e-20
1.12078e-07
1.36768e-183
1.90013e-38
1.87969e-11
3.37762e-13
9.14973e-75
3.04356e-41
6.10278e-40
3.50794e-45
5.28427e-72
5.79543e-15
-1.12352e-72
-8.22053e-130
2.17672e-130
0.0474018
1.87584e-08
7.41559e-05
1.63043e-06
-3.95272e-35
1.7135e-20
5.79416e-43
5.87473e-19
3.49171e-129
3.17551
-2.21453e-105
2.92576e-06
5.14017e-08
-5.655e-133
-2.0548e-25
8.51679e-09
5.93214e-06
4.13339e-41
2.17841e-26
9.59031e-131
-8.46818e-216
5.40566e-15
7.34037e-192
1.08329e-170
2.903e-17
-1.79987e-106
-9.40797e-66
-5.28385e-136
-2.84633e-87
5.48635e-15
11.5071
1.39234e-101
-3.47542e-109
1.52331e-08
-6.36825e-38
4.79027e-11
1.26138e-24
6.90577e-26
-4.83998e-108
1.42817e-37
1.65828e-16
5.48373e-17
-3.14935e-30
3.08614e-155
1.07479e-06
9.67532e-31
2.23424e-19
-1.58082e-83
-7.94086e-135
1.16947e-16
1.97302e-99
-1.94279e-186
9.86924e-23
1.86887e-08
-1.99656e-169
2.98022e-21
5.86634e-46
-9.06843e-116
-9.13741e-75
-4.4763e-115
9.50237e-23
-2.3562e-128
-1.76297e-136
2.14462e-43
3.55207e-23
-6.04844e-40
-2.97214e-30
10.1007
3.86776e-107
1.03858e-60
0.36181
6.98678e-33
-1.69916e-116
6.576e-32
0.00320871
2.93327e-175
-1.48444e-109
7.15607e-187
7.21652e-26
1.24227e-14
1.41817e-46
9.33632e-199
-1.72705e-78
8.06751e-65
1.53586e-90
1.8537e-09
-1.25586e-102
2.51001e-198
1.13877e-193
4.87018e-28
8.60882e-42
1.68481e-05
-8.35194e-82
-1.65903e-48
4.62273e-30
4.67378e-15
2.14138e-149
4.10072e-24
1.53467e-178
1.46438e-170
-1.98091e-199
6.37674e-10
-1.1636e-110
3.70479e-24
1.26654e-22
1.58388e-26
3.50902e-16
1.67201e-27
1.43874e-13
7.86301e-26
1.44772e-101
1.46154e-28
-7.91178e-48
1.20303e-34
2.22841e-21
-2.32343e-108
39.8638
5.23704e-17
3.50924e-19
8.69998e-170
1.43839
1.25069e-15
2.15401e-17
-1.83795e-31
4.42513e-07
2.56239e-63
-7.38568e-104
-8.21244e-89
1.06881e-91
2.48896e-86
3.386e-18
7.81094e-22
3.61223e-116
3.63422e-25
4.83225e-92
2.99248e-86
6.07639e-52
-4.07717e-46
3.78631e-71
6.25658e-56
-7.40925e-45
8.77005e-25
5.88179e-26
5.95474e-48
3.3274e-187
-1.58398e-89
-2.18016e-100
6.17299e-11
8.71011e-150
1.12135e-113
1.69492e-25
1.53078
-1.11725e-127
2.57854e-05
-1.45784e-132
5.39746e-100
3.9896e-41
3.59777e-29
4.76162e-34
3.72509e-146
3.40792e-19
8.15329e-22
1.58276e-11
6.69642e-169
8.85231e-25
1.35858e-41
2.24961e-54
-5.55008e-198
-6.53633e-236
8.06499e-28
1.53487e-41
1.73644e-60
54.193
2.964e-23
1.84728e-32
-5.5211e-25
3.55077e-44
3.28153e-11
4.54761e-106
2.79495e-47
-1.15712e-75
-6.49286e-88
0.00870708
2.50764e-23
7.98205e-22
7.8048e-36
-1.84585e-141
4.03824e-18
1.66461e-17
7.25927e-05
-2.58148e-86
1.46527e-32
0.000179788
7.58908e-05
-2.61543e-134
5.82547e-05
3.66405e-51
23.2189
9.66736e-184
9.52516e-25
1.91167e-36
1.14449e-205
4.69529e-15
1.76529e-65
4.13658e-79
2.18489e-09
0.00116381
1.92096e-05
1.48882e-77
7.77312e-27
-9.09856e-184
-8.28867e-101
4.21277e-06
8.54674e-31
5.07137e-78
1.40664e-18
3.78167e-23
6.3037e-28
6.09201e-40
1.67704e-37
1.14869e-22
0.00280735
2.27819e-140
2.17581e-39
3.55232e-47
5.55462e-28
2.13195e-07
1.56817e-23
1.05446e-32
2.32564e-66
4.95847e-187
1.33748e-26
2.58941e-31
1.95029e-21
-5.76983e-145
4.30199e-57
9.38182e-25
1.10404e-24
-3.14446e-24
2.31676e-20
1.13894e-72
1.01332e-29
-1.63876e-112
4.96896e-14
3.91893e-53
7.16412e-26
3.48099e-63
3.07367e-76
2.02795e-23
7.1014e-58
2.75747e-66
-3.3467e-81
6.81697e-142
5.22744e-30
2.96348e-51
1.46255e-54
15.6926
0.0100677
-7.39222e-112
1.55389e-79
2.79813e-38
7.34643e-41
4.49934e-199
3.05354e-30
-2.52693e-36
1.83622e-30
-6.47141e-185
1.1291e-13
4.28688e-19
6.1741e-16
3.94771e-30
3.00509e-170
-1.01607e-94
6.52223e-62
2.09423e-29
6.06073e-09
15.3389
-4.50411e-137
1.69058e-67
2.05766e-72
3.99049e-07
0.000479565
3.43046e-05
5.27097e-52
4.57061e-22
-3.38094e-183
1.33716e-38
-1.74696e-52
-1.71225e-135
7.17336e-23
2.21717e-40
4.53444e-35
7.58279e-21
-4.80327e-72
2.43842e-41
5.5138e-32
5.08937e-171
-2.74696e-257
3.94774e-43
-5.65713e-66
2.12478e-08
5.62629e-48
-5.05466e-23
1.68495e-13
-3.48925e-41
-7.42984e-137
-4.32318e-59
9.93228e-20
1.23079e-141
0.218966
0.0458116
-3.24616e-114
1.25514e-178
1.47023e-104
2.93266e-140
6.8158e-208
1.35146e-61
2.83307e-66
-1.08509e-32
5.26092e-40
5.66187e-31
-1.23628e-48
1.83417e-05
5.89119e-20
3.03476e-32
1.45359e-40
3.41994e-51
2.79966e-35
6.7263e-171
-2.98458e-74
9.10803e-68
-6.17147e-32
-3.95578e-26
1.46854e-09
1.86631e-210
-4.96769e-27
1.18319e-37
2.88602e-49
7.64411e-23
-2.06475e-40
7.70215e-25
0.00341021
3.98314e-38
2.03866e-18
4.81785e-50
-1.67691e-88
1.36333e-40
8.21627e-35
-3.64246e-142
3.70507e-42
0.0247209
-4.61601e-78
0.000202051
-1.17057e-135
2.11004e-34
-2.75553e-91
6.60299e-74
2.27937e-30
-6.48764e-21
4.13634e-22
4.84136e-73
2.55408e-44
1.27052e-49
4.28545e-18
4.24191e-13
-4.13469e-46
5.99101e-09
1.75995e-206
4.60638e-40
7.31318
1.26895e-14
-3.81979e-72
0.362355
8.49099e-20
8.54485e-68
3.90429e-158
8.89107e-11
4.04486e-35
5.86246e-51
1.87111e-36
1.10532e-152
1.33267e-21
-8.17931e-80
2.59675e-14
1.37756e-36
4.0176e-32
-3.05135e-30
-2.30821e-252
-2.55308e-103
1.25245e-48
-7.63253e-87
-1.6775e-89
1.01153e-56
7.20879e-76
2.86556e-63
-4.20723e-25
4.14184e-28
-1.49863e-196
5.18218e-16
-1.13586e-101
3.68266e-170
-8.83841e-28
-3.66212e-129
1.02973e-49
6.96616e-51
-7.34291e-144
-8.48323e-140
1.94673e-84
4.24485e-25
3.40767e-62
1.08388e-32
2.78555e-36
-8.91042e-27
8.34533e-26
1.13157e-51
1.781e-43
7.62058e-39
-1.005e-223
1.61688e-57
-3.49937e-77
2.20644e-52
0.209983
1.9512e-27
-2.95295e-71
2.64495e-42
-2.09486e-64
2.49371e-67
-1.8423e-74
1.83078e-63
1.9972e-68
-9.23077e-33
2.80275e-38
1.08783e-171
2.98502e-26
-5.99549e-50
2.23204e-24
1.29522e-158
-2.43908e-28
3.96121e-05
-9.56296e-98
-2.22748e-40
1.08953e-18
5.8013e-119
8.73091e-27
8.62658e-14
1.28865e-37
-5.24426e-38
6.20258e-15
6.56875e-43
-4.15047e-51
3.84947e-41
2.70429e-25
5.97362e-126
1.25294e-73
1.01025e-214
-3.14578e-101
-1.19903e-159
7.41909e-42
5.22083e-39
1.05028e-26
-1.17492e-43
13.6703
-1.05172e-20
30.6711
6.76897e-37
3.90603e-10
9.70797
2.52941e-16
22.9004
1.58362e-71
4.50075e-43
1.07383e-48
5.15488e-54
4.33751e-46
9.44575e-103
9.10054e-48
1.20936e-92
3.08825e-160
-1.99413e-52
3.61375
5.89582e-44
2.61707e-23
1.68253e-46
1.1194e-85
9.38903e-39
5.97108e-39
-1.57532e-109
8.71032e-45
8.91215e-83
1.10332e-24
2.87165e-40
6.47393e-42
-7.66771e-43
0.257999
2.37291e-08
2.66989e-22
1.73404e-51
69.0413
1.61013e-45
-1.12164e-55
6.07479e-29
-1.54797e-29
-1.02909e-59
3.54668e-17
7.29354e-139
-1.62524e-37
-7.36835e-28
1.69653e-43
-5.47546e-45
9.87144e-76
5.43045e-41
-2.65048e-34
9.09525e-70
1.73351e-28
6.49468e-49
1.27105e-62
4.75061e-138
9.01597e-55
7.72166e-40
2.07734e-81
2.15766e-50
1.74713e-62
-3.31985e-103
-6.61981e-34
-2.78887e-81
4.45188e-16
6.95564e-47
-5.74729e-65
-9.33235e-145
-4.80545e-100
7.65751e-16
9.52824e-41
-1.67047e-203
6.87981e-46
7.33237
5.06497e-24
2.69628e-77
1.0688e-50
0.0887893
0.690261
36.2202
2.29447e-88
4.17935e-90
-6.56051e-107
8.95128e-62
5.70998e-30
0.00161002
0.0190889
3.86281e-13
1.278e-20
3.05884e-76
4.74368e-155
3.95676e-152
-1.04673e-27
-3.55988e-76
1.20228e-25
-4.75368e-91
3.89482e-06
-5.32464e-88
5.07663e-44
2.70749e-12
-2.18732e-42
1.83001e-21
-2.83389e-112
6.63315e-43
6.56027e-169
1.94986e-18
4.61201e-21
1.3047e-68
-1.02262e-161
8.22023e-69
-9.11959e-26
6.0138e-105
-2.463e-45
0.0842186
7.24519e-179
2.63732e-67
-1.05532e-38
-3.45751e-39
2.4212e-48
2.30738e-119
-7.23111e-105
6.75539e-104
-2.25776e-203
-2.69364e-152
1.32372e-63
1.78158e-28
1.93927e-169
1.60194e-74
6.37318e-115
150.076
-1.40938e-28
1.67461e-102
3.13581e-212
1.64797e-24
4.45078e-45
2.10984e-21
-3.6075e-47
3.67642e-45
8.50576e-163
-8.57039e-102
4.00083e-17
1.52304e-225
4.25181e-46
6.99071e-29
4.81226e-52
3.79679e-147
2.69227e-40
-3.85053e-198
1.13407e-60
6.1824e-63
2.25586e-103
1.83382e-08
1.67015e-55
1.36747e-66
4.7185e-64
-3.43038e-39
-2.02236e-50
1.12574e-174