/*--------------------------------*- C++ -*----------------------------------*\
  =========                 |
  \\      /  F ield         | OpenFOAM: The Open Source CFD Toolbox
   \\    /   O peration     | Website:  https://openfoam.org
    \\  /    A nd           | Version:  7
     \\/     M anipulation  |
\*---------------------------------------------------------------------------*/
FoamFile
{
    version     2.0;
    format      ascii;
    class       surfaceScalarField;
    location    "0.21";
    object      phi;
}
// * * * * * * * * * * * * * * * * * * * * * * * * * * * * * * * * * * * * * //

dimensions      [0 3 -1 0 0 0 0];

internalField   nonuniform List<scalar> 
79600
(
1.06167e-12
-1.15263e-12
1.27547e-11
-1.17041e-11
3.26336e-11
-1.98779e-11
5.68647e-11
-2.42311e-11
8.23926e-11
-2.55311e-11
1.06918e-10
-2.45289e-11
1.28742e-10
-2.18206e-11
1.46612e-10
-1.7867e-11
1.59621e-10
-1.30074e-11
1.67112e-10
-7.49337e-12
1.68621e-10
-1.51266e-12
1.63826e-10
4.79261e-12
1.52518e-10
1.13112e-11
1.34565e-10
1.7955e-11
1.09909e-10
2.46557e-11
7.85481e-11
3.13608e-11
4.05221e-11
3.80275e-11
-4.09492e-12
4.46191e-11
-5.51994e-11
5.1105e-11
-1.12663e-10
5.74621e-11
-1.76337e-10
6.36731e-11
-2.46059e-10
6.97229e-11
-3.21656e-10
7.55976e-11
-4.02941e-10
8.12855e-11
-4.89719e-10
8.67785e-11
-5.81789e-10
9.20707e-11
-6.78945e-10
9.71567e-11
-7.80976e-10
1.02032e-10
-8.87669e-10
1.06692e-10
-9.98804e-10
1.11135e-10
-1.11416e-09
1.15362e-10
-1.23353e-09
1.19369e-10
-1.35669e-09
1.23155e-10
-1.48341e-09
1.2672e-10
-1.61348e-09
1.30066e-10
-1.74667e-09
1.33194e-10
-1.88277e-09
1.36104e-10
-2.02157e-09
1.38798e-10
-2.16285e-09
1.41277e-10
-2.30639e-09
1.43543e-10
-2.45199e-09
1.45597e-10
-2.59943e-09
1.47443e-10
-2.74852e-09
1.49083e-10
-2.89904e-09
1.50519e-10
-3.05079e-09
1.51753e-10
-3.20358e-09
1.52789e-10
-3.35721e-09
1.53628e-10
-3.51148e-09
1.54274e-10
-3.66621e-09
1.54731e-10
-3.82121e-09
1.55e-10
-3.9763e-09
1.55084e-10
-4.13128e-09
1.54988e-10
-4.286e-09
1.54715e-10
-4.44026e-09
1.54266e-10
-4.59391e-09
1.53646e-10
-4.74677e-09
1.52857e-10
-4.89867e-09
1.51903e-10
-5.04946e-09
1.50788e-10
-5.19898e-09
1.49515e-10
-5.34706e-09
1.48087e-10
-5.49357e-09
1.46506e-10
-5.63835e-09
1.44778e-10
-5.78125e-09
1.42905e-10
-5.92214e-09
1.40889e-10
-6.06088e-09
1.38736e-10
-6.19733e-09
1.36449e-10
-6.33136e-09
1.34029e-10
-6.46284e-09
1.31482e-10
-6.59165e-09
1.2881e-10
-6.71767e-09
1.26017e-10
-6.84077e-09
1.23106e-10
-6.96085e-09
1.20081e-10
-7.0778e-09
1.16945e-10
-7.1915e-09
1.13702e-10
-7.30186e-09
1.10355e-10
-7.40877e-09
1.06907e-10
-7.51213e-09
1.03363e-10
-7.61185e-09
9.97251e-11
-7.70785e-09
9.59973e-11
-7.80003e-09
9.2183e-11
-7.88832e-09
8.82856e-11
-7.97263e-09
8.43087e-11
-8.05288e-09
8.0256e-11
-8.12902e-09
7.6131e-11
-8.20095e-09
7.19373e-11
-8.26863e-09
6.76786e-11
-8.33199e-09
6.33585e-11
-8.39097e-09
5.89804e-11
-8.44552e-09
5.45481e-11
-8.49558e-09
5.00652e-11
-8.54112e-09
4.55354e-11
-8.58208e-09
4.09627e-11
-8.61843e-09
3.63507e-11
-8.65014e-09
3.17033e-11
-8.67716e-09
2.7024e-11
-8.69948e-09
2.23166e-11
-8.71706e-09
1.7585e-11
-8.7299e-09
1.28333e-11
-8.73796e-09
8.06553e-12
-8.74125e-09
3.28556e-12
-8.73974e-09
-1.50281e-12
-8.73345e-09
-6.29572e-12
-8.72236e-09
-1.10891e-11
-8.70648e-09
-1.58787e-11
-8.68582e-09
-2.06604e-11
-8.66039e-09
-2.54299e-11
-8.63021e-09
-3.01834e-11
-8.59529e-09
-3.49166e-11
-8.55567e-09
-3.96255e-11
-8.51136e-09
-4.43057e-11
-8.46241e-09
-4.89528e-11
-8.40884e-09
-5.35627e-11
-8.35071e-09
-5.8131e-11
-8.28806e-09
-6.26535e-11
-8.22093e-09
-6.71256e-11
-8.14939e-09
-7.15431e-11
-8.07349e-09
-7.59017e-11
-7.99329e-09
-8.01969e-11
-7.90887e-09
-8.44244e-11
-7.82029e-09
-8.85795e-11
-7.72763e-09
-9.26578e-11
-7.63097e-09
-9.66549e-11
-7.53041e-09
-1.00566e-10
-7.42602e-09
-1.04388e-10
-7.3179e-09
-1.08115e-10
-7.20616e-09
-1.11744e-10
-7.09089e-09
-1.15268e-10
-6.97221e-09
-1.18685e-10
-6.85022e-09
-1.2199e-10
-6.72504e-09
-1.25178e-10
-6.59679e-09
-1.28245e-10
-6.46561e-09
-1.31186e-10
-6.33161e-09
-1.33998e-10
-6.19493e-09
-1.36676e-10
-6.05572e-09
-1.39216e-10
-5.9141e-09
-1.41613e-10
-5.77024e-09
-1.43864e-10
-5.62428e-09
-1.45964e-10
-5.47637e-09
-1.4791e-10
-5.32667e-09
-1.49696e-10
-5.17535e-09
-1.5132e-10
-5.02257e-09
-1.52778e-10
-4.86851e-09
-1.54065e-10
-4.71333e-09
-1.55178e-10
-4.55721e-09
-1.56114e-10
-4.40035e-09
-1.56869e-10
-4.24291e-09
-1.57439e-10
-4.08509e-09
-1.57821e-10
-3.92707e-09
-1.58013e-10
-3.76906e-09
-1.5801e-10
-3.61125e-09
-1.57809e-10
-3.45384e-09
-1.5741e-10
-3.29704e-09
-1.56808e-10
-3.14104e-09
-1.56001e-10
-2.98605e-09
-1.54986e-10
-2.83229e-09
-1.53761e-10
-2.67996e-09
-1.52325e-10
-2.52929e-09
-1.50675e-10
-2.38048e-09
-1.4881e-10
-2.23375e-09
-1.46728e-10
-2.08932e-09
-1.44428e-10
-1.94741e-09
-1.4191e-10
-1.80824e-09
-1.39172e-10
-1.67203e-09
-1.36213e-10
-1.53899e-09
-1.33034e-10
-1.40936e-09
-1.29635e-10
-1.28334e-09
-1.26016e-10
-1.16116e-09
-1.22179e-10
-1.04304e-09
-1.18124e-10
-9.29185e-10
-1.13854e-10
-8.19815e-10
-1.0937e-10
-7.15139e-10
-1.04676e-10
-6.15364e-10
-9.97756e-11
-5.20691e-10
-9.4673e-11
-4.31317e-10
-8.93734e-11
-3.47433e-10
-8.38834e-11
-2.69222e-10
-7.82109e-11
-1.96858e-10
-7.23645e-11
-1.30503e-10
-6.63548e-11
-7.03096e-11
-6.01939e-11
-1.6412e-11
-5.38972e-11
3.10714e-11
-4.74829e-11
7.20433e-11
-4.09723e-11
1.06433e-10
-3.43903e-11
1.342e-10
-2.77673e-11
1.55341e-10
-2.11407e-11
1.699e-10
-1.4557e-11
1.77973e-10
-8.07262e-12
1.79728e-10
-1.75649e-12
1.75422e-10
4.30524e-12
1.6542e-10
1.00016e-11
1.50233e-10
1.51887e-11
1.30556e-10
1.96786e-11
1.07333e-10
2.32231e-11
8.18429e-11
2.54898e-11
5.58058e-11
2.60358e-11
3.15101e-11
2.42943e-11
1.19438e-11
1.95652e-11
7.66033e-13
1.11775e-11
7.67499e-13
1.16382e-11
-1.28022e-11
4.3174e-11
-4.32441e-11
8.89969e-11
-6.56963e-11
1.42676e-10
-7.79005e-11
1.98234e-10
-8.10871e-11
2.50636e-10
-7.69378e-11
2.95828e-10
-6.70173e-11
3.30621e-10
-5.26585e-11
3.5255e-10
-3.49348e-11
3.59746e-10
-1.4691e-11
3.50818e-10
7.41245e-12
3.24754e-10
3.08549e-11
2.80846e-10
5.522e-11
2.18628e-10
8.01734e-11
1.37839e-10
1.05447e-10
3.83766e-11
1.30827e-10
-7.9728e-11
1.56135e-10
-2.16336e-10
1.81225e-10
-3.71215e-10
2.0598e-10
-5.44056e-10
2.30302e-10
-7.34492e-10
2.54111e-10
-9.42106e-10
2.77338e-10
-1.16644e-09
2.99929e-10
-1.40699e-09
3.21838e-10
-1.66324e-09
3.43027e-10
-1.93463e-09
3.63466e-10
-2.2206e-09
3.83129e-10
-2.52057e-09
4.01995e-10
-2.83393e-09
4.20051e-10
-3.16008e-09
4.37284e-10
-3.4984e-09
4.53685e-10
-3.84827e-09
4.69246e-10
-4.20909e-09
4.83962e-10
-4.5802e-09
4.97834e-10
-4.961e-09
5.1086e-10
-5.35085e-09
5.23044e-10
-5.74913e-09
5.34385e-10
-6.15522e-09
5.4489e-10
-6.56851e-09
5.54562e-10
-6.98837e-09
5.63408e-10
-7.41421e-09
5.71435e-10
-7.84542e-09
5.7865e-10
-8.2814e-09
5.85062e-10
-8.72156e-09
5.90678e-10
-9.16531e-09
5.9551e-10
-9.61209e-09
5.99566e-10
-1.00613e-08
6.02858e-10
-1.05124e-08
6.05396e-10
-1.09649e-08
6.07189e-10
-1.14182e-08
6.0825e-10
-1.18717e-08
6.08591e-10
-1.23249e-08
6.08224e-10
-1.27773e-08
6.07159e-10
-1.32285e-08
6.0541e-10
-1.36778e-08
6.02988e-10
-1.41249e-08
5.99906e-10
-1.45692e-08
5.96177e-10
-1.50102e-08
5.91814e-10
-1.54475e-08
5.86829e-10
-1.58806e-08
5.81234e-10
-1.63092e-08
5.75044e-10
-1.67327e-08
5.68271e-10
-1.71507e-08
5.60929e-10
-1.75628e-08
5.5303e-10
-1.79687e-08
5.44588e-10
-1.83679e-08
5.35615e-10
-1.876e-08
5.26126e-10
-1.91446e-08
5.16133e-10
-1.95214e-08
5.0565e-10
-1.98901e-08
4.94691e-10
-2.02503e-08
4.83268e-10
-2.06016e-08
4.71396e-10
-2.09437e-08
4.59087e-10
-2.12764e-08
4.46356e-10
-2.15993e-08
4.33216e-10
-2.1912e-08
4.19681e-10
-2.22144e-08
4.05764e-10
-2.25062e-08
3.91479e-10
-2.2787e-08
3.76841e-10
-2.30567e-08
3.61861e-10
-2.3315e-08
3.46556e-10
-2.35616e-08
3.30938e-10
-2.37964e-08
3.15021e-10
-2.40191e-08
2.9882e-10
-2.42295e-08
2.82349e-10
-2.44274e-08
2.65622e-10
-2.46127e-08
2.48653e-10
-2.47852e-08
2.31457e-10
-2.49447e-08
2.14048e-10
-2.50911e-08
1.9644e-10
-2.52242e-08
1.78649e-10
-2.53439e-08
1.60688e-10
-2.54501e-08
1.42574e-10
-2.55427e-08
1.2432e-10
-2.56217e-08
1.05942e-10
-2.56868e-08
8.74536e-11
-2.57381e-08
6.88718e-11
-2.57755e-08
5.02114e-11
-2.57989e-08
3.1488e-11
-2.58083e-08
1.27168e-11
-2.58037e-08
-6.08657e-12
-2.57851e-08
-2.49064e-11
-2.57525e-08
-4.37266e-11
-2.57058e-08
-6.25311e-11
-2.56452e-08
-8.13038e-11
-2.55706e-08
-1.00029e-10
-2.54821e-08
-1.18689e-10
-2.53797e-08
-1.37269e-10
-2.52636e-08
-1.55751e-10
-2.51338e-08
-1.7412e-10
-2.49904e-08
-1.92358e-10
-2.48335e-08
-2.10448e-10
-2.46632e-08
-2.28374e-10
-2.44798e-08
-2.46118e-10
-2.42832e-08
-2.63664e-10
-2.40738e-08
-2.80995e-10
-2.38516e-08
-2.98092e-10
-2.36169e-08
-3.14939e-10
-2.33698e-08
-3.31519e-10
-2.31105e-08
-3.47813e-10
-2.28394e-08
-3.63805e-10
-2.25566e-08
-3.79478e-10
-2.22623e-08
-3.94813e-10
-2.19569e-08
-4.09794e-10
-2.16406e-08
-4.24403e-10
-2.13137e-08
-4.38622e-10
-2.09766e-08
-4.52435e-10
-2.06294e-08
-4.65823e-10
-2.02726e-08
-4.7877e-10
-1.99066e-08
-4.91259e-10
-1.95315e-08
-5.03272e-10
-1.91479e-08
-5.14792e-10
-1.87561e-08
-5.25803e-10
-1.83565e-08
-5.36288e-10
-1.79495e-08
-5.46231e-10
-1.75355e-08
-5.55614e-10
-1.71149e-08
-5.64422e-10
-1.66883e-08
-5.7264e-10
-1.62559e-08
-5.8025e-10
-1.58184e-08
-5.87238e-10
-1.53761e-08
-5.93589e-10
-1.49296e-08
-5.99287e-10
-1.44793e-08
-6.04318e-10
-1.40259e-08
-6.08668e-10
-1.35696e-08
-6.12323e-10
-1.31112e-08
-6.1527e-10
-1.26512e-08
-6.17494e-10
-1.219e-08
-6.18984e-10
-1.17283e-08
-6.19728e-10
-1.12666e-08
-6.19713e-10
-1.08055e-08
-6.18928e-10
-1.03455e-08
-6.17364e-10
-9.88733e-09
-6.15009e-10
-9.43148e-09
-6.11854e-10
-8.97857e-09
-6.07891e-10
-8.52922e-09
-6.0311e-10
-8.08404e-09
-5.97506e-10
-7.64365e-09
-5.9107e-10
-7.20866e-09
-5.83797e-10
-6.7797e-09
-5.75682e-10
-6.35741e-09
-5.66722e-10
-5.94241e-09
-5.56912e-10
-5.53533e-09
-5.46251e-10
-5.1368e-09
-5.34738e-10
-4.74746e-09
-5.22374e-10
-4.36794e-09
-5.0916e-10
-3.99885e-09
-4.951e-10
-3.64083e-09
-4.80199e-10
-3.29449e-09
-4.64463e-10
-2.96044e-09
-4.47902e-10
-2.63929e-09
-4.30525e-10
-2.33162e-09
-4.12348e-10
-2.03801e-09
-3.93386e-10
-1.75902e-09
-3.73659e-10
-1.4952e-09
-3.53192e-10
-1.24708e-09
-3.32011e-10
-1.01514e-09
-3.1015e-10
-7.99857e-10
-2.87646e-10
-6.01666e-10
-2.64547e-10
-4.20956e-10
-2.40904e-10
-2.58073e-10
-2.16781e-10
-1.13303e-10
-1.92253e-10
1.31343e-11
-1.67409e-10
1.21098e-10
-1.42353e-10
2.10543e-10
-1.17212e-10
2.81536e-10
-9.21357e-11
3.34282e-10
-6.73059e-11
3.69153e-10
-4.2944e-11
3.86721e-10
-1.93216e-11
3.87802e-10
3.22664e-12
3.73519e-10
2.42856e-11
3.45368e-10
4.33369e-11
3.05316e-10
5.97285e-11
2.55902e-10
7.26368e-11
2.00369e-10
8.10251e-11
1.42789e-10
8.36198e-11
8.81398e-11
7.89466e-11
4.22308e-11
6.54771e-11
1.11731e-11
4.22396e-11
1.19412e-11
1.98484e-11
-3.26496e-11
6.56644e-11
-8.90651e-11
1.27956e-10
-1.27994e-10
1.98313e-10
-1.48258e-10
2.69091e-10
-1.51865e-10
3.33656e-10
-1.41502e-10
3.86449e-10
-1.1981e-10
4.22928e-10
-8.91382e-11
4.39457e-10
-5.14676e-11
4.33186e-10
-8.42277e-12
4.01924e-10
3.86761e-11
3.44022e-10
8.87591e-11
2.58286e-10
1.40955e-10
1.43903e-10
1.94556e-10
3.69112e-13
2.48984e-10
-1.7256e-10
3.0376e-10
-3.74918e-10
3.58495e-10
-6.06557e-10
4.12862e-10
-8.67173e-10
4.66594e-10
-1.15634e-09
5.19469e-10
-1.47353e-09
5.713e-10
-1.81812e-09
6.21931e-10
-2.18942e-09
6.71232e-10
-2.58668e-09
7.19095e-10
-3.00908e-09
7.65433e-10
-3.45579e-09
8.10171e-10
-3.9259e-09
8.53247e-10
-4.41852e-09
8.94613e-10
-4.9327e-09
9.34229e-10
-5.46748e-09
9.72065e-10
-6.02189e-09
1.00809e-09
-6.59494e-09
1.0423e-09
-7.18565e-09
1.07467e-09
-7.79301e-09
1.1052e-09
-8.41603e-09
1.13388e-09
-9.0537e-09
1.16071e-09
-9.70502e-09
1.18571e-09
-1.0369e-08
1.20886e-09
-1.10446e-08
1.2302e-09
-1.17309e-08
1.24971e-09
-1.24269e-08
1.26743e-09
-1.31316e-08
1.28336e-09
-1.38441e-08
1.29752e-09
-1.45633e-08
1.30993e-09
-1.52884e-08
1.32061e-09
-1.60184e-08
1.32957e-09
-1.67524e-08
1.33685e-09
-1.74895e-08
1.34246e-09
-1.82288e-08
1.34643e-09
-1.89693e-08
1.34878e-09
-1.97102e-08
1.34954e-09
-2.04507e-08
1.34873e-09
-2.119e-08
1.34638e-09
-2.19271e-08
1.34251e-09
-2.26612e-08
1.33715e-09
-2.33916e-08
1.33033e-09
-2.41175e-08
1.32207e-09
-2.48381e-08
1.31241e-09
-2.55527e-08
1.30137e-09
-2.62604e-08
1.28898e-09
-2.69606e-08
1.27526e-09
-2.76526e-08
1.26026e-09
-2.83357e-08
1.24399e-09
-2.90091e-08
1.22648e-09
-2.96723e-08
1.20777e-09
-3.03246e-08
1.18788e-09
-3.09653e-08
1.16685e-09
-3.15939e-08
1.14469e-09
-3.22097e-08
1.12145e-09
-3.28121e-08
1.09715e-09
-3.34007e-08
1.07182e-09
-3.39748e-08
1.04549e-09
-3.45339e-08
1.01819e-09
-3.50775e-08
9.89954e-10
-3.5605e-08
9.60809e-10
-3.61162e-08
9.30786e-10
-3.66103e-08
8.99915e-10
-3.7087e-08
8.68226e-10
-3.7546e-08
8.35751e-10
-3.79866e-08
8.0252e-10
-3.84086e-08
7.68564e-10
-3.88116e-08
7.33914e-10
-3.91952e-08
6.98601e-10
-3.9559e-08
6.62657e-10
-3.99028e-08
6.26113e-10
-4.02262e-08
5.89e-10
-4.05289e-08
5.51351e-10
-4.08106e-08
5.13197e-10
-4.10711e-08
4.74571e-10
-4.13102e-08
4.35504e-10
-4.15276e-08
3.9603e-10
-4.17231e-08
3.56182e-10
-4.18965e-08
3.15992e-10
-4.20477e-08
2.75492e-10
-4.21764e-08
2.34718e-10
-4.22827e-08
1.93701e-10
-4.23663e-08
1.52477e-10
-4.24272e-08
1.1108e-10
-4.24652e-08
6.95437e-11
-4.24804e-08
2.79026e-11
-4.24727e-08
-1.38085e-11
-4.2442e-08
-5.55545e-11
-4.23885e-08
-9.72999e-11
-4.2312e-08
-1.39009e-10
-4.22126e-08
-1.80646e-10
-4.20905e-08
-2.22175e-10
-4.19456e-08
-2.6356e-10
-4.17781e-08
-3.04764e-10
-4.15881e-08
-3.4575e-10
-4.13758e-08
-3.86482e-10
-4.11412e-08
-4.26922e-10
-4.08846e-08
-4.67032e-10
-4.06062e-08
-5.06776e-10
-4.03062e-08
-5.46115e-10
-3.99849e-08
-5.85013e-10
-3.96424e-08
-6.23429e-10
-3.92792e-08
-6.61328e-10
-3.88955e-08
-6.98669e-10
-3.84916e-08
-7.35414e-10
-3.80679e-08
-7.71526e-10
-3.76247e-08
-8.06966e-10
-3.71625e-08
-8.41694e-10
-3.66816e-08
-8.75674e-10
-3.61825e-08
-9.08865e-10
-3.56657e-08
-9.41229e-10
-3.51316e-08
-9.72729e-10
-3.45807e-08
-1.00332e-09
-3.40136e-08
-1.03298e-09
-3.34307e-08
-1.06165e-09
-3.28326e-08
-1.08931e-09
-3.222e-08
-1.11591e-09
-3.15934e-08
-1.14142e-09
-3.09534e-08
-1.1658e-09
-3.03007e-08
-1.18901e-09
-2.96359e-08
-1.21102e-09
-2.89597e-08
-1.23179e-09
-2.82728e-08
-1.25128e-09
-2.7576e-08
-1.26947e-09
-2.68699e-08
-1.28631e-09
-2.61554e-08
-1.30177e-09
-2.54332e-08
-1.31582e-09
-2.4704e-08
-1.32843e-09
-2.39688e-08
-1.33956e-09
-2.32283e-08
-1.34918e-09
-2.24834e-08
-1.35726e-09
-2.17348e-08
-1.36378e-09
-2.09836e-08
-1.3687e-09
-2.02306e-08
-1.372e-09
-1.94767e-08
-1.37365e-09
-1.87228e-08
-1.37362e-09
-1.79698e-08
-1.37189e-09
-1.72188e-08
-1.36844e-09
-1.64705e-08
-1.36325e-09
-1.57261e-08
-1.35629e-09
-1.49864e-08
-1.34754e-09
-1.42526e-08
-1.337e-09
-1.35254e-08
-1.32464e-09
-1.2806e-08
-1.31045e-09
-1.20954e-08
-1.29442e-09
-1.13945e-08
-1.27654e-09
-1.07045e-08
-1.2568e-09
-1.00262e-08
-1.23519e-09
-9.36073e-09
-1.21172e-09
-8.70909e-09
-1.18637e-09
-8.0723e-09
-1.15917e-09
-7.45136e-09
-1.1301e-09
-6.84727e-09
-1.09918e-09
-6.26104e-09
-1.06643e-09
-5.69364e-09
-1.03186e-09
-5.14605e-09
-9.95494e-10
-4.61921e-09
-9.57357e-10
-4.11408e-09
-9.17485e-10
-3.63155e-09
-8.75916e-10
-3.17251e-09
-8.32699e-10
-2.73781e-09
-7.8789e-10
-2.32827e-09
-7.41556e-10
-1.94464e-09
-6.93774e-10
-1.58765e-09
-6.44634e-10
-1.25796e-09
-5.94242e-10
-9.56137e-10
-5.42723e-10
-6.82696e-10
-4.90223e-10
-4.38039e-10
-4.36912e-10
-2.22458e-10
-3.82993e-10
-3.61107e-11
-3.28701e-10
1.20999e-10
-2.7432e-10
2.49054e-10
-2.20188e-10
3.48459e-10
-1.66708e-10
4.19878e-10
-1.14362e-10
4.6429e-10
-6.3735e-11
4.83049e-10
-1.5535e-11
4.77958e-10
2.93738e-11
4.51361e-10
6.99336e-11
4.06241e-10
1.0485e-10
3.46339e-10
1.32542e-10
2.7626e-10
1.51106e-10
2.0157e-10
1.5831e-10
1.28824e-10
1.51691e-10
6.54667e-11
1.28834e-10
1.95558e-11
8.81512e-11
3.14965e-11
2.42299e-11
-5.68741e-11
7.79585e-11
-1.42786e-10
1.4838e-10
-1.98422e-10
2.25252e-10
-2.25139e-10
2.99693e-10
-2.26309e-10
3.64024e-10
-2.05827e-10
4.11711e-10
-1.67493e-10
4.37307e-10
-1.14734e-10
4.36345e-10
-5.05116e-11
4.05239e-10
2.26786e-11
3.41162e-10
1.02754e-10
2.41936e-10
1.87987e-10
1.05943e-10
2.76949e-10
-6.79581e-11
3.68459e-10
-2.80509e-10
4.61538e-10
-5.32118e-10
5.5537e-10
-8.22902e-10
6.49278e-10
-1.15274e-09
7.42694e-10
-1.52129e-09
8.35146e-10
-1.92806e-09
9.26237e-10
-2.37239e-09
1.01563e-09
-2.85351e-09
1.10305e-09
-3.37055e-09
1.18827e-09
-3.92252e-09
1.27107e-09
-4.50839e-09
1.3513e-09
-5.12704e-09
1.42883e-09
-5.77732e-09
1.50352e-09
-6.45801e-09
1.57531e-09
-7.16788e-09
1.6441e-09
-7.90565e-09
1.70983e-09
-8.67002e-09
1.77247e-09
-9.45968e-09
1.83196e-09
-1.02733e-08
1.88829e-09
-1.11095e-08
1.94144e-09
-1.19671e-08
1.99139e-09
-1.28445e-08
2.03815e-09
-1.37405e-08
2.08171e-09
-1.46537e-08
2.12209e-09
-1.55828e-08
2.15929e-09
-1.65264e-08
2.19334e-09
-1.74833e-08
2.22426e-09
-1.8452e-08
2.25207e-09
-1.94313e-08
2.27679e-09
-2.04198e-08
2.29846e-09
-2.14163e-08
2.31711e-09
-2.24195e-08
2.33277e-09
-2.34281e-08
2.34549e-09
-2.4441e-08
2.35529e-09
-2.54568e-08
2.36222e-09
-2.64743e-08
2.36632e-09
-2.74924e-08
2.36764e-09
-2.85099e-08
2.3662e-09
-2.95256e-08
2.36207e-09
-3.05383e-08
2.35528e-09
-3.15471e-08
2.34589e-09
-3.25507e-08
2.33393e-09
-3.35481e-08
2.31945e-09
-3.45382e-08
2.30251e-09
-3.552e-08
2.28316e-09
-3.64924e-08
2.26143e-09
-3.74545e-08
2.23739e-09
-3.84053e-08
2.21107e-09
-3.93439e-08
2.18254e-09
-4.02693e-08
2.15184e-09
-4.11805e-08
2.11902e-09
-4.20768e-08
2.08414e-09
-4.29572e-08
2.04724e-09
-4.38208e-08
2.00838e-09
-4.4667e-08
1.9676e-09
-4.54948e-08
1.92497e-09
-4.63035e-08
1.88053e-09
-4.70924e-08
1.83433e-09
-4.78606e-08
1.78644e-09
-4.86076e-08
1.73689e-09
-4.93325e-08
1.68575e-09
-5.00348e-08
1.63306e-09
-5.07137e-08
1.57889e-09
-5.13688e-08
1.52328e-09
-5.19993e-08
1.46629e-09
-5.26048e-08
1.40797e-09
-5.31846e-08
1.34838e-09
-5.37382e-08
1.28756e-09
-5.42652e-08
1.22559e-09
-5.47651e-08
1.1625e-09
-5.52373e-08
1.09836e-09
-5.56815e-08
1.03322e-09
-5.60973e-08
9.67145e-10
-5.64843e-08
9.00181e-10
-5.68421e-08
8.32387e-10
-5.71705e-08
7.63821e-10
-5.7469e-08
6.9454e-10
-5.77374e-08
6.24602e-10
-5.79755e-08
5.54065e-10
-5.8183e-08
4.82987e-10
-5.83597e-08
4.11427e-10
-5.85054e-08
3.39444e-10
-5.862e-08
2.67099e-10
-5.87034e-08
1.9445e-10
-5.87554e-08
1.21558e-10
-5.8776e-08
4.8485e-11
-5.87651e-08
-2.47088e-11
-5.87227e-08
-9.79616e-11
-5.86488e-08
-1.71211e-10
-5.85434e-08
-2.44395e-10
-5.84066e-08
-3.17449e-10
-5.82384e-08
-3.90312e-10
-5.80391e-08
-4.62918e-10
-5.78086e-08
-5.35205e-10
-5.75473e-08
-6.07107e-10
-5.72552e-08
-6.78559e-10
-5.69326e-08
-7.49496e-10
-5.65798e-08
-8.19853e-10
-5.6197e-08
-8.89563e-10
-5.57846e-08
-9.58561e-10
-5.53428e-08
-1.02678e-09
-5.48721e-08
-1.09415e-09
-5.43728e-08
-1.16061e-09
-5.38454e-08
-1.22609e-09
-5.32903e-08
-1.29052e-09
-5.2708e-08
-1.35384e-09
-5.2099e-08
-1.41597e-09
-5.14638e-08
-1.47686e-09
-5.0803e-08
-1.53643e-09
-5.01173e-08
-1.59461e-09
-4.94072e-08
-1.65134e-09
-4.86734e-08
-1.70655e-09
-4.79165e-08
-1.76018e-09
-4.71373e-08
-1.81215e-09
-4.63366e-08
-1.8624e-09
-4.5515e-08
-1.91086e-09
-4.46735e-08
-1.95747e-09
-4.38127e-08
-2.00217e-09
-4.29337e-08
-2.04488e-09
-4.20371e-08
-2.08554e-09
-4.1124e-08
-2.1241e-09
-4.01953e-08
-2.16048e-09
-3.9252e-08
-2.19463e-09
-3.8295e-08
-2.22648e-09
-3.73253e-08
-2.25598e-09
-3.6344e-08
-2.28306e-09
-3.53522e-08
-2.30766e-09
-3.43509e-08
-2.32974e-09
-3.33412e-08
-2.34924e-09
-3.23243e-08
-2.36609e-09
-3.13013e-08
-2.38025e-09
-3.02734e-08
-2.39167e-09
-2.92418e-08
-2.4003e-09
-2.82077e-08
-2.40609e-09
-2.71724e-08
-2.40899e-09
-2.6137e-08
-2.40897e-09
-2.51029e-08
-2.40598e-09
-2.40714e-08
-2.39997e-09
-2.30437e-08
-2.39092e-09
-2.20212e-08
-2.3788e-09
-2.10052e-08
-2.36355e-09
-1.9997e-08
-2.34517e-09
-1.8998e-08
-2.32362e-09
-1.80096e-08
-2.29889e-09
-1.70331e-08
-2.27094e-09
-1.60698e-08
-2.23978e-09
-1.51213e-08
-2.20538e-09
-1.41887e-08
-2.16773e-09
-1.32736e-08
-2.12684e-09
-1.23773e-08
-2.08271e-09
-1.15011e-08
-2.03535e-09
-1.06464e-08
-1.98476e-09
-9.81464e-09
-1.93097e-09
-9.00706e-09
-1.87401e-09
-8.22501e-09
-1.81391e-09
-7.4698e-09
-1.75071e-09
-6.74269e-09
-1.68447e-09
-6.04493e-09
-1.61524e-09
-5.37774e-09
-1.54311e-09
-4.74227e-09
-1.46816e-09
-4.13966e-09
-1.3905e-09
-3.57096e-09
-1.31025e-09
-3.03718e-09
-1.22755e-09
-2.53924e-09
-1.14257e-09
-2.07798e-09
-1.0555e-09
-1.65414e-09
-9.66567e-10
-1.26834e-09
-8.76028e-10
-9.21055e-10
-7.84192e-10
-6.12626e-10
-6.91419e-10
-3.43196e-10
-5.98129e-10
-1.12699e-10
-5.04818e-10
7.91801e-11
-4.12071e-10
2.33051e-10
-3.20581e-10
3.49862e-10
-2.31173e-10
4.30963e-10
-1.44835e-10
4.78173e-10
-6.27435e-11
4.93861e-10
1.36855e-11
4.81038e-10
8.27555e-11
4.43454e-10
1.42433e-10
3.85701e-10
1.90298e-10
3.13303e-10
2.23508e-10
2.32799e-10
2.38816e-10
1.51794e-10
2.32696e-10
7.89847e-11
2.01643e-10
2.42938e-11
1.42844e-10
5.57882e-11
2.55751e-11
-8.24511e-11
8.13022e-11
-1.9851e-10
1.52308e-10
-2.69427e-10
2.26926e-10
-2.99762e-10
2.95327e-10
-2.94709e-10
3.49096e-10
-2.59592e-10
3.81056e-10
-1.99453e-10
3.85156e-10
-1.18838e-10
3.56364e-10
-2.17232e-11
2.90561e-10
8.84802e-11
1.84442e-10
2.08873e-10
3.54167e-11
3.37012e-10
-1.58479e-10
4.70845e-10
-3.98666e-10
6.0865e-10
-6.86104e-10
7.4898e-10
-1.02135e-09
8.90619e-10
-1.40462e-09
1.03254e-09
-1.83582e-09
1.1739e-09
-2.31462e-09
1.31395e-09
-2.84047e-09
1.45208e-09
-3.41262e-09
1.58779e-09
-4.03018e-09
1.72062e-09
-4.69212e-09
1.8502e-09
-5.39728e-09
1.97623e-09
-6.14441e-09
2.09844e-09
-6.93219e-09
2.2166e-09
-7.75921e-09
2.33054e-09
-8.62399e-09
2.4401e-09
-9.52504e-09
2.54515e-09
-1.04608e-08
2.64559e-09
-1.14297e-08
2.74133e-09
-1.243e-08
2.83232e-09
-1.34602e-08
2.91851e-09
-1.45187e-08
2.99986e-09
-1.56036e-08
3.07635e-09
-1.67135e-08
3.14798e-09
-1.78465e-08
3.21473e-09
-1.9001e-08
3.27662e-09
-2.01754e-08
3.33366e-09
-2.13679e-08
3.38588e-09
-2.2577e-08
3.4333e-09
-2.38009e-08
3.47596e-09
-2.5038e-08
3.5139e-09
-2.62867e-08
3.54715e-09
-2.75453e-08
3.57577e-09
-2.88124e-08
3.59981e-09
-3.00862e-08
3.61932e-09
-3.13652e-08
3.63435e-09
-3.2648e-08
3.64497e-09
-3.39329e-08
3.65123e-09
-3.52185e-08
3.65321e-09
-3.65032e-08
3.65096e-09
-3.77857e-08
3.64456e-09
-3.90645e-08
3.63407e-09
-4.03382e-08
3.61956e-09
-4.16053e-08
3.6011e-09
-4.28647e-08
3.57876e-09
-4.41148e-08
3.55263e-09
-4.53544e-08
3.52277e-09
-4.65822e-08
3.48925e-09
-4.7797e-08
3.45216e-09
-4.89975e-08
3.41157e-09
-5.01825e-08
3.36755e-09
-5.13508e-08
3.32019e-09
-5.25014e-08
3.26956e-09
-5.3633e-08
3.21574e-09
-5.47445e-08
3.15882e-09
-5.5835e-08
3.09886e-09
-5.69034e-08
3.03594e-09
-5.79486e-08
2.97016e-09
-5.89696e-08
2.90159e-09
-5.99656e-08
2.83031e-09
-6.09356e-08
2.7564e-09
-6.18786e-08
2.67994e-09
-6.27939e-08
2.60102e-09
-6.36805e-08
2.51971e-09
-6.45377e-08
2.43611e-09
-6.53647e-08
2.35028e-09
-6.61608e-08
2.26232e-09
-6.69251e-08
2.17231e-09
-6.76571e-08
2.08034e-09
-6.8356e-08
1.98648e-09
-6.90212e-08
1.89083e-09
-6.96522e-08
1.79346e-09
-7.02483e-08
1.69446e-09
-7.0809e-08
1.59393e-09
-7.13338e-08
1.49194e-09
-7.18222e-08
1.38858e-09
-7.22738e-08
1.28395e-09
-7.26881e-08
1.17812e-09
-7.30647e-08
1.07119e-09
-7.34034e-08
9.63249e-10
-7.37037e-08
8.54384e-10
-7.39654e-08
7.44685e-10
-7.41882e-08
6.34244e-10
-7.43719e-08
5.23153e-10
-7.45163e-08
4.11503e-10
-7.46212e-08
2.99387e-10
-7.46866e-08
1.869e-10
-7.47122e-08
7.41351e-11
-7.46981e-08
-3.88132e-11
-7.46442e-08
-1.51849e-10
-7.45506e-08
-2.64877e-10
-7.44172e-08
-3.778e-10
-7.42441e-08
-4.9052e-10
-7.40315e-08
-6.0294e-10
-7.37794e-08
-7.14962e-10
-7.34881e-08
-8.26486e-10
-7.31578e-08
-9.37412e-10
-7.27888e-08
-1.04764e-09
-7.23812e-08
-1.15707e-09
-7.19354e-08
-1.2656e-09
-7.14519e-08
-1.37313e-09
-7.09309e-08
-1.47955e-09
-7.03729e-08
-1.58477e-09
-6.97784e-08
-1.68868e-09
-6.91478e-08
-1.79118e-09
-6.84817e-08
-1.89216e-09
-6.77807e-08
-1.99152e-09
-6.70454e-08
-2.08915e-09
-6.62764e-08
-2.18496e-09
-6.54745e-08
-2.27884e-09
-6.46402e-08
-2.37068e-09
-6.37744e-08
-2.46038e-09
-6.28779e-08
-2.54784e-09
-6.19515e-08
-2.63295e-09
-6.09961e-08
-2.71562e-09
-6.00125e-08
-2.79572e-09
-5.90017e-08
-2.87318e-09
-5.79647e-08
-2.94787e-09
-5.69025e-08
-3.01971e-09
-5.58161e-08
-3.08859e-09
-5.47065e-08
-3.15442e-09
-5.3575e-08
-3.21708e-09
-5.24226e-08
-3.27649e-09
-5.12505e-08
-3.33256e-09
-5.006e-08
-3.38518e-09
-4.88522e-08
-3.43426e-09
-4.76285e-08
-3.4797e-09
-4.63901e-08
-3.52143e-09
-4.51384e-08
-3.55935e-09
-4.38748e-08
-3.59338e-09
-4.26006e-08
-3.62342e-09
-4.13173e-08
-3.64941e-09
-4.00263e-08
-3.67125e-09
-3.87291e-08
-3.68887e-09
-3.74272e-08
-3.70219e-09
-3.61221e-08
-3.71115e-09
-3.48154e-08
-3.71568e-09
-3.35087e-08
-3.7157e-09
-3.22035e-08
-3.71116e-09
-3.09015e-08
-3.70199e-09
-2.96043e-08
-3.68815e-09
-2.83135e-08
-3.66958e-09
-2.70308e-08
-3.64624e-09
-2.57579e-08
-3.61808e-09
-2.44965e-08
-3.58506e-09
-2.32482e-08
-3.54716e-09
-2.20148e-08
-3.50434e-09
-2.0798e-08
-3.45659e-09
-1.95995e-08
-3.40389e-09
-1.8421e-08
-3.34623e-09
-1.72642e-08
-3.28361e-09
-1.61309e-08
-3.21605e-09
-1.50227e-08
-3.14355e-09
-1.39413e-08
-3.06613e-09
-1.28884e-08
-2.98385e-09
-1.18657e-08
-2.89673e-09
-1.08748e-08
-2.80485e-09
-9.9172e-09
-2.70826e-09
-8.9946e-09
-2.60707e-09
-8.10848e-09
-2.50137e-09
-7.26031e-09
-2.39128e-09
-6.45152e-09
-2.27695e-09
-5.68347e-09
-2.15856e-09
-4.95745e-09
-2.03628e-09
-4.27464e-09
-1.91036e-09
-3.63617e-09
-1.78105e-09
-3.043e-09
-1.64866e-09
-2.49601e-09
-1.51355e-09
-1.99591e-09
-1.37613e-09
-1.54324e-09
-1.23686e-09
-1.13834e-09
-1.09632e-09
-7.81328e-10
-9.55142e-10
-4.72057e-10
-8.14089e-10
-2.10082e-10
-6.74047e-10
5.3951e-12
-5.3606e-10
1.75575e-10
-4.01354e-10
3.02122e-10
-2.71381e-10
3.87237e-10
-1.47856e-10
4.33735e-10
-3.28085e-11
4.45128e-10
7.13655e-11
4.25717e-10
1.61844e-10
3.80684e-10
2.3533e-10
3.16175e-10
2.88014e-10
2.39394e-10
3.15596e-10
1.58704e-10
3.13387e-10
8.37926e-11
2.76556e-10
2.60678e-11
2.00572e-10
8.18538e-11
2.46474e-11
-1.07102e-10
7.74014e-11
-2.51266e-10
1.42451e-10
-3.34474e-10
2.07256e-10
-3.64565e-10
2.61339e-10
-3.48789e-10
2.95792e-10
-2.94044e-10
3.0302e-10
-2.06686e-10
2.76583e-10
-9.24065e-11
2.11071e-10
4.37864e-11
1.02004e-10
1.97547e-10
-5.42605e-11
3.65138e-10
-2.60617e-10
5.43369e-10
-5.19295e-10
7.29525e-10
-8.3194e-10
9.21299e-10
-1.19969e-09
1.11673e-09
-1.62323e-09
1.31416e-09
-2.10286e-09
1.51217e-09
-2.63854e-09
1.70957e-09
-3.22994e-09
1.90534e-09
-3.87646e-09
2.09861e-09
-4.5773e-09
2.28863e-09
-5.33147e-09
2.47478e-09
-6.1378e-09
2.65653e-09
-6.99499e-09
2.83342e-09
-7.90162e-09
3.00507e-09
-8.85616e-09
3.17114e-09
-9.85698e-09
3.33137e-09
-1.09024e-08
3.48552e-09
-1.19907e-08
3.63341e-09
-1.312e-08
3.77488e-09
-1.42884e-08
3.90981e-09
-1.54942e-08
4.03808e-09
-1.67353e-08
4.15964e-09
-1.80099e-08
4.27441e-09
-1.93159e-08
4.38237e-09
-2.06514e-08
4.48348e-09
-2.20144e-08
4.57775e-09
-2.3403e-08
4.66518e-09
-2.48151e-08
4.74577e-09
-2.62488e-08
4.81956e-09
-2.7702e-08
4.88659e-09
-2.9173e-08
4.94689e-09
-3.06596e-08
5.00051e-09
-3.216e-08
5.04752e-09
-3.36722e-08
5.08798e-09
-3.51943e-08
5.12195e-09
-3.67245e-08
5.1495e-09
-3.82609e-08
5.17072e-09
-3.98016e-08
5.18569e-09
-4.13448e-08
5.19448e-09
-4.28888e-08
5.1972e-09
-4.44318e-08
5.19392e-09
-4.5972e-08
5.18474e-09
-4.75076e-08
5.16976e-09
-4.90372e-08
5.14907e-09
-5.05589e-08
5.12278e-09
-5.20711e-08
5.09099e-09
-5.35722e-08
5.05379e-09
-5.50608e-08
5.0113e-09
-5.65351e-08
4.96361e-09
-5.79938e-08
4.91084e-09
-5.94353e-08
4.85309e-09
-6.08583e-08
4.79048e-09
-6.22612e-08
4.7231e-09
-6.36427e-08
4.65108e-09
-6.50015e-08
4.57452e-09
-6.63362e-08
4.49353e-09
-6.76456e-08
4.40823e-09
-6.89284e-08
4.31873e-09
-7.01833e-08
4.22515e-09
-7.14093e-08
4.12759e-09
-7.26052e-08
4.02617e-09
-7.37698e-08
3.92102e-09
-7.49021e-08
3.81224e-09
-7.60011e-08
3.69995e-09
-7.70656e-08
3.58426e-09
-7.80948e-08
3.4653e-09
-7.90877e-08
3.34319e-09
-8.00434e-08
3.21804e-09
-8.09611e-08
3.08996e-09
-8.18398e-08
2.95909e-09
-8.26789e-08
2.82554e-09
-8.34775e-08
2.68943e-09
-8.42349e-08
2.55088e-09
-8.49505e-08
2.41002e-09
-8.56235e-08
2.26696e-09
-8.62534e-08
2.12184e-09
-8.68396e-08
1.97477e-09
-8.73815e-08
1.82588e-09
-8.78787e-08
1.6753e-09
-8.83307e-08
1.52315e-09
-8.8737e-08
1.36957e-09
-8.90973e-08
1.21466e-09
-8.94112e-08
1.05858e-09
-8.96783e-08
9.01443e-10
-8.98986e-08
7.43382e-10
-9.00716e-08
5.8453e-10
-9.01972e-08
4.25019e-10
-9.02753e-08
2.64982e-10
-9.03057e-08
1.04554e-10
-9.02884e-08
-5.61316e-11
-9.02233e-08
-2.16938e-10
-9.01105e-08
-3.77728e-10
-8.99499e-08
-5.38364e-10
-8.97417e-08
-6.98707e-10
-8.9486e-08
-8.58619e-10
-8.91831e-08
-1.01796e-09
-8.8833e-08
-1.17659e-09
-8.8436e-08
-1.33436e-09
-8.79925e-08
-1.49113e-09
-8.75028e-08
-1.64676e-09
-8.69673e-08
-1.80111e-09
-8.63864e-08
-1.95402e-09
-8.57606e-08
-2.10537e-09
-8.50904e-08
-2.25499e-09
-8.43763e-08
-2.40274e-09
-8.3619e-08
-2.54848e-09
-8.28191e-08
-2.69205e-09
-8.19773e-08
-2.83332e-09
-8.10943e-08
-2.97213e-09
-8.0171e-08
-3.10834e-09
-7.9208e-08
-3.2418e-09
-7.82063e-08
-3.37235e-09
-7.71669e-08
-3.49986e-09
-7.60905e-08
-3.62418e-09
-7.49783e-08
-3.74515e-09
-7.38313e-08
-3.86264e-09
-7.26505e-08
-3.9765e-09
-7.14371e-08
-4.08658e-09
-7.01923e-08
-4.19273e-09
-6.89172e-08
-4.29482e-09
-6.7613e-08
-4.39271e-09
-6.62812e-08
-4.48624e-09
-6.4923e-08
-4.57529e-09
-6.35398e-08
-4.65972e-09
-6.21329e-08
-4.73938e-09
-6.0704e-08
-4.81416e-09
-5.92543e-08
-4.8839e-09
-5.77855e-08
-4.94849e-09
-5.62992e-08
-5.00779e-09
-5.47968e-08
-5.06169e-09
-5.32802e-08
-5.11005e-09
-5.17508e-08
-5.15277e-09
-5.02105e-08
-5.18972e-09
-4.86609e-08
-5.2208e-09
-4.71039e-08
-5.24589e-09
-4.55412e-08
-5.26489e-09
-4.39747e-08
-5.27771e-09
-4.24061e-08
-5.28423e-09
-4.08374e-08
-5.28438e-09
-3.92705e-08
-5.27806e-09
-3.77073e-08
-5.26519e-09
-3.61498e-08
-5.24571e-09
-3.45998e-08
-5.21953e-09
-3.30595e-08
-5.1866e-09
-3.15307e-08
-5.14685e-09
-3.00155e-08
-5.10024e-09
-2.8516e-08
-5.04673e-09
-2.7034e-08
-4.98627e-09
-2.55718e-08
-4.91885e-09
-2.41312e-08
-4.84445e-09
-2.27144e-08
-4.76306e-09
-2.13233e-08
-4.67468e-09
-1.996e-08
-4.57934e-09
-1.86265e-08
-4.47705e-09
-1.73248e-08
-4.36785e-09
-1.60568e-08
-4.25182e-09
-1.48245e-08
-4.129e-09
-1.36299e-08