/*--------------------------------*- C++ -*----------------------------------*\
  =========                 |
  \\      /  F ield         | OpenFOAM: The Open Source CFD Toolbox
   \\    /   O peration     | Website:  https://openfoam.org
    \\  /    A nd           | Version:  7
     \\/     M anipulation  |
\*---------------------------------------------------------------------------*/
FoamFile
{
    version     2.0;
    format      ascii;
    class       volVectorField;
    location    "14.5";
    object      U;
}
// * * * * * * * * * * * * * * * * * * * * * * * * * * * * * * * * * * * * * //

dimensions      [0 1 -1 0 0 0 0];

internalField   nonuniform List<vector> 
2413
(
(2 6.67501e-15 0)
(2 7.18284e-15 0)
(2 7.32659e-15 0)
(2 7.09478e-15 0)
(2 6.53229e-15 0)
(2 6.67237e-15 0)
(2 6.98542e-15 0)
(2 6.73324e-15 0)
(2 5.73877e-15 0)
(2 3.76557e-15 0)
(2 4.88807e-16 0)
(2 2.5245e-16 0)
(2 7.80935e-17 0)
(2 1.71162e-15 0)
(2 2.91448e-14 0)
(2 7.30632e-13 0)
(2 1.41378e-11 0)
(2 2.14693e-10 0)
(2 2.70677e-09 0)
(2 2.71291e-08 0)
(2 2.19052e-07 0)
(2 1.47577e-06 0)
(1.99999 8.19586e-06 0)
(1.99997 3.8285e-05 0)
(1.99988 0.00014485 0)
(1.99961 0.000495768 0)
(1.99894 0.00139861 0)
(1.99747 0.00322264 0)
(2 -7.14116e-16 0)
(2 -1.42324e-16 0)
(2 2.19178e-15 0)
(2 3.02798e-15 0)
(2 3.30176e-15 0)
(2 3.35677e-15 0)
(2 3.91693e-15 0)
(2 4.70499e-15 0)
(2 5.54251e-15 0)
(2 7.01237e-15 0)
(2 7.11395e-15 0)
(2 7.03718e-15 0)
(2 7.50454e-15 0)
(2 7.18737e-15 0)
(2 8.26469e-15 0)
(2 9.95916e-15 0)
(2 1.04644e-14 0)
(2 1.14497e-14 0)
(2 1.07554e-14 0)
(2 1.03151e-14 0)
(2 9.12067e-15 0)
(2 8.59388e-15 0)
(2 8.25612e-15 0)
(2 7.44034e-15 0)
(2 7.65073e-15 0)
(2 7.7232e-15 0)
(2 7.46441e-15 0)
(2 7.17133e-15 0)
(2 6.89396e-15 0)
(2 7.03247e-15 0)
(2 7.42641e-15 0)
(2 8.9031e-15 0)
(2 9.58308e-15 0)
(2 9.54201e-15 0)
(2 9.61314e-15 0)
(2 9.2744e-15 0)
(2 9.11018e-15 0)
(2 9.07848e-15 0)
(2 8.19786e-15 0)
(2 8.38284e-15 0)
(2 8.16891e-15 0)
(2 8.3912e-15 0)
(2 9.65148e-15 0)
(2 1.07604e-14 0)
(2 1.06069e-14 0)
(2 1.00351e-14 0)
(2 9.74443e-15 0)
(2 9.04129e-15 0)
(2 8.09937e-15 0)
(2 7.41369e-15 0)
(2 6.57466e-15 0)
(2 4.67061e-15 0)
(2 3.67515e-15 0)
(2 3.17643e-15 0)
(2 3.48548e-15 0)
(2 3.84422e-15 0)
(2 4.03231e-15 0)
(2 4.24003e-15 0)
(2 4.71758e-15 0)
(2 3.15381e-15 0)
(2 2.83058e-15 0)
(2 5.64567e-15 0)
(2 6.25066e-15 0)
(2 6.24266e-15 0)
(2 6.18197e-15 0)
(2 5.89857e-15 0)
(2 4.83813e-15 0)
(2 3.58161e-15 0)
(2 3.61974e-15 0)
(2 4.42786e-15 0)
(2 3.68798e-15 0)
(2 3.12758e-15 0)
(2 2.8497e-15 0)
(2 2.31348e-15 0)
(2 1.80411e-15 0)
(2 1.48158e-15 0)
(2 1.76391e-14 0)
(2 4.4525e-13 0)
(2 9.64481e-12 0)
(2 1.60125e-10 0)
(2 2.13248e-09 0)
(2 2.33931e-08 0)
(2 2.02036e-07 0)
(2 1.42393e-06 0)
(1.99999 8.30637e-06 0)
(1.99997 4.02821e-05 0)
(1.99987 0.000161764 0)
(1.99958 0.000529919 0)
(2 1.91885e-15 0)
(2 1.64889e-15 0)
(2 9.07855e-16 0)
(2 9.2159e-16 0)
(2 1.65008e-15 0)
(2 2.03726e-15 0)
(2 2.72801e-15 0)
(2 4.51153e-15 0)
(2 4.57453e-15 0)
(2 7.17119e-15 0)
(2 7.41069e-15 0)
(2 8.04184e-15 0)
(2 8.29727e-15 0)
(2 8.49548e-15 0)
(2 8.70825e-15 0)
(2 8.54437e-15 0)
(2 8.83693e-15 0)
(2 9.71552e-15 0)
(2 9.69144e-15 0)
(2 9.66132e-15 0)
(2 8.98652e-15 0)
(2 6.63645e-15 0)
(2 6.16565e-15 0)
(2 6.33633e-15 0)
(2 7.76098e-15 0)
(2 7.88003e-15 0)
(2 7.11073e-15 0)
(2 6.14394e-15 0)
(2 5.47957e-15 0)
(2 5.85725e-15 0)
(2 6.43103e-15 0)
(2 7.68659e-15 0)
(2 8.04391e-15 0)
(2 6.85108e-15 0)
(2 5.86531e-15 0)
(2 5.16765e-15 0)
(2 3.68725e-15 0)
(2 3.30172e-15 0)
(2 4.10738e-15 0)
(2 4.71181e-15 0)
(2 5.90874e-15 0)
(2 7.25364e-15 0)
(2 7.45288e-15 0)
(2 7.58558e-15 0)
(2 6.98611e-15 0)
(2 7.57894e-15 0)
(2 6.82582e-15 0)
(2 5.91267e-15 0)
(2 4.02903e-15 0)
(2 3.74811e-15 0)
(2 2.80106e-15 0)
(2 2.35299e-15 0)
(2 2.10155e-15 0)
(2 2.29991e-15 0)
(2 2.93375e-15 0)
(2 4.20684e-15 0)
(2 4.15274e-15 0)
(2 2.96821e-15 0)
(2 1.75555e-15 0)
(2 1.41075e-15 0)
(2 1.31893e-15 0)
(2 2.37976e-15 0)
(2 2.65441e-15 0)
(2 3.14072e-15 0)
(2 3.67967e-15 0)
(2 4.73088e-15 0)
(2 5.10008e-15 0)
(2 5.17604e-15 0)
(2 5.20821e-15 0)
(2 5.73576e-15 0)
(2 5.85946e-15 0)
(2 5.58413e-15 0)
(2 5.40889e-15 0)
(2 4.77903e-15 0)
(2 4.62646e-15 0)
(2 4.63688e-15 0)
(2 5.13567e-15 0)
(2 6.55483e-15 0)
(2 1.82581e-14 0)
(2 3.49979e-13 0)
(2 7.94644e-12 0)
(2 1.42842e-10 0)
(2 1.98156e-09 0)
(2 2.2291e-08 0)
(2 2.05351e-07 0)
(2 1.48672e-06 0)
(1.99999 8.89726e-06 0)
(1.99996 4.37164e-05 0)
(2 2.34612e-15 0)
(2 1.72618e-15 0)
(2 5.65797e-16 0)
(2 7.53656e-16 0)
(2 1.58411e-15 0)
(2 2.76164e-15 0)
(2 3.82697e-15 0)
(2 5.24051e-15 0)
(2 5.23133e-15 0)
(2 4.69181e-15 0)
(2 5.31608e-15 0)
(2 6.99534e-15 0)
(2 8.19008e-15 0)
(2 8.37334e-15 0)
(2 8.44797e-15 0)
(2 8.30357e-15 0)
(2 8.17189e-15 0)
(2 7.94054e-15 0)
(2 7.68503e-15 0)
(2 7.67711e-15 0)
(2 6.56587e-15 0)
(2 5.24169e-15 0)
(2 4.42154e-15 0)
(2 4.34485e-15 0)
(2 4.48931e-15 0)
(2 4.82597e-15 0)
(2 4.15587e-15 0)
(2 3.54419e-15 0)
(2 3.21201e-15 0)
(2 3.0678e-15 0)
(2 2.96687e-15 0)
(2 3.04488e-15 0)
(2 2.70338e-15 0)
(2 1.96456e-15 0)
(2 2.20866e-15 0)
(2 1.77327e-15 0)
(2 1.44681e-15 0)
(2 1.59688e-15 0)
(2 1.5935e-15 0)
(2 1.66123e-15 0)
(2 2.19147e-15 0)
(2 2.64522e-15 0)
(2 2.88567e-15 0)
(2 3.3588e-15 0)
(2 4.29467e-15 0)
(2 5.11191e-15 0)
(2 5.01668e-15 0)
(2 5.23389e-15 0)
(2 4.86123e-15 0)
(2 4.33374e-15 0)
(2 3.23876e-15 0)
(2 2.28955e-15 0)
(2 1.99344e-15 0)
(2 2.44681e-15 0)
(2 2.97064e-15 0)
(2 3.58482e-15 0)
(2 3.46872e-15 0)
(2 2.6819e-15 0)
(2 1.79972e-15 0)
(2 2.11966e-15 0)
(2 2.59704e-15 0)
(2 3.6264e-15 0)
(2 3.86294e-15 0)
(2 4.50325e-15 0)
(2 4.91494e-15 0)
(2 5.86507e-15 0)
(2 6.99144e-15 0)
(2 8.27997e-15 0)
(2 8.62376e-15 0)
(2 8.04319e-15 0)
(2 8.0441e-15 0)
(2 8.13871e-15 0)
(2 7.92294e-15 0)
(2 7.50452e-15 0)
(2 6.90151e-15 0)
(2 6.83436e-15 0)
(2 7.07168e-15 0)
(2 6.22707e-15 0)
(2 4.77695e-15 0)
(2 4.46302e-15 0)
(2 1.90428e-14 0)
(2 3.40607e-13 0)
(2 7.49163e-12 0)
(2 1.39439e-10 0)
(2 2.01689e-09 0)
(2 2.29666e-08 0)
(2 2.13326e-07 0)
(2 1.61039e-06 0)
(2 3.60344e-15 0)
(2 2.88592e-15 0)
(2 1.50024e-15 0)
(2 1.28486e-15 0)
(2 1.36849e-15 0)
(2 1.81752e-15 0)
(2 2.66407e-15 0)
(2 3.22536e-15 0)
(2 3.97158e-15 0)
(2 4.51711e-15 0)
(2 4.30557e-15 0)
(2 5.07531e-15 0)
(2 6.56671e-15 0)
(2 8.30027e-15 0)
(2 8.92536e-15 0)
(2 8.52965e-15 0)
(2 6.47053e-15 0)
(2 5.8811e-15 0)
(2 6.04216e-15 0)
(2 5.42257e-15 0)
(2 5.18952e-15 0)
(2 5.60461e-15 0)
(2 5.57533e-15 0)
(2 5.79479e-15 0)
(2 4.33783e-15 0)
(2 3.44731e-15 0)
(2 3.50619e-15 0)
(2 2.61206e-15 0)
(2 1.89221e-15 0)
(2 1.40288e-15 0)
(2 1.09989e-15 0)
(2 2.1078e-16 0)
(2 -1.05978e-15 0)
(2 4.04504e-16 0)
(2 2.9888e-16 0)
(2 -2.32054e-16 0)
(2 -7.41539e-16 0)
(2 -1.56768e-15 0)
(2 -5.28881e-16 0)
(2 -1.89007e-16 0)
(2 -9.20321e-16 0)
(2 -2.35834e-15 0)
(2 -1.84304e-15 0)
(2 -1.7549e-15 0)
(2 -1.12982e-15 0)
(2 5.49837e-16 0)
(2 2.54509e-15 0)
(2 4.21673e-15 0)
(2 5.33038e-15 0)
(2 5.10477e-15 0)
(2 4.86304e-15 0)
(2 4.55778e-15 0)
(2 4.2398e-15 0)
(2 3.46604e-15 0)
(2 3.60924e-15 0)
(2 3.21554e-15 0)
(2 2.95627e-15 0)
(2 3.24015e-15 0)
(2 4.33475e-15 0)
(2 5.15129e-15 0)
(2 6.0698e-15 0)
(2 6.77484e-15 0)
(2 7.36076e-15 0)
(2 7.29071e-15 0)
(2 7.59018e-15 0)
(2 7.45258e-15 0)
(2 7.24469e-15 0)
(2 7.16697e-15 0)
(2 8.05015e-15 0)
(2 8.80718e-15 0)
(2 8.76975e-15 0)
(2 8.79039e-15 0)
(2 8.33386e-15 0)
(2 7.4559e-15 0)
(2 6.02001e-15 0)
(2 5.61675e-15 0)
(2 5.11333e-15 0)
(2 3.94959e-15 0)
(2 2.0979e-15 0)
(2 1.45797e-16 0)
(2 -1.69202e-15 0)
(2 -1.93822e-15 0)
(2 6.80686e-15 0)
(2 3.23558e-13 0)
(2 7.50543e-12 0)
(2 1.38692e-10 0)
(2 2.06904e-09 0)
(2 2.40573e-08 0)
(2 2.63636e-15 0)
(2 2.41842e-15 0)
(2 9.54613e-16 0)
(2 -7.30393e-16 0)
(2 -2.25613e-15 0)
(2 -2.4085e-15 0)
(2 -2.27332e-15 0)
(2 -1.90221e-15 0)
(2 -3.63835e-16 0)
(2 1.07593e-15 0)
(2 1.21009e-15 0)
(2 1.52969e-15 0)
(2 2.38079e-15 0)
(2 2.52281e-15 0)
(2 2.67264e-15 0)
(2 1.83294e-15 0)
(2 1.45639e-15 0)
(2 6.17893e-16 0)
(2 -4.06117e-16 0)
(2 -9.24139e-16 0)
(2 2.39641e-16 0)
(2 2.18153e-15 0)
(2 3.933e-15 0)
(2 4.33853e-15 0)
(2 3.7643e-15 0)
(2 1.73331e-15 0)
(2 3.85424e-16 0)
(2 3.98574e-18 0)
(2 7.79518e-16 0)
(2 4.38111e-16 0)
(2 -1.68967e-15 0)
(2 -2.66182e-15 0)
(2 -4.40298e-15 0)
(2 -4.95635e-15 0)
(2 -5.49232e-15 0)
(2 -6.57599e-15 0)
(2 -5.2594e-15 0)
(2 -6.29534e-15 0)
(2 -5.71658e-15 0)
(2 -5.63434e-15 0)
(2 -5.62405e-15 0)
(2 -5.34106e-15 0)
(2 -5.08906e-15 0)
(2 -4.95816e-15 0)
(2 -4.09803e-15 0)
(2 -2.38428e-15 0)
(2 -7.98945e-16 0)
(2 4.26857e-16 0)
(2 5.54573e-16 0)
(2 -1.95761e-16 0)
(2 7.35071e-16 0)
(2 2.08363e-15 0)
(2 3.03694e-15 0)
(2 3.24073e-15 0)
(2 3.77848e-15 0)
(2 3.74413e-15 0)
(2 3.87948e-15 0)
(2 4.14545e-15 0)
(2 4.81291e-15 0)
(2 5.77507e-15 0)
(2 6.40289e-15 0)
(2 7.11185e-15 0)
(2 7.71622e-15 0)
(2 7.35405e-15 0)
(2 7.78887e-15 0)
(2 7.7974e-15 0)
(2 6.91715e-15 0)
(2 5.20915e-15 0)
(2 5.00688e-15 0)
(2 4.82532e-15 0)
(2 4.52717e-15 0)
(2 3.5763e-15 0)
(2 2.19305e-15 0)
(2 4.60971e-16 0)
(2 5.98094e-17 0)
(2 -1.90561e-16 0)
(2 -4.02319e-16 0)
(2 -2.10452e-15 0)
(2 -3.46178e-15 0)
(2 -4.55328e-15 0)
(2 -5.88689e-15 0)
(2 -5.78702e-15 0)
(2 -4.06119e-15 0)
(2 -2.90056e-15 0)
(2 8.27566e-15 0)
(2 3.12886e-13 0)
(2 7.50209e-12 0)
(2 1.36284e-10 0)
(2 -9.73323e-16 0)
(2 -1.71608e-15 0)
(2 -1.8669e-15 0)
(2 -2.4488e-15 0)
(2 -3.44881e-15 0)
(2 -3.72142e-15 0)
(2 -4.51643e-15 0)
(2 -4.26787e-15 0)
(2 -2.37467e-15 0)
(2 -1.63141e-15 0)
(2 -9.9525e-16 0)
(2 -1.01581e-15 0)
(2 -1.15326e-15 0)
(2 -1.81097e-15 0)
(2 -1.69346e-15 0)
(2 -1.24287e-15 0)
(2 -2.0721e-16 0)
(2 -4.63975e-16 0)
(2 1.62568e-17 0)
(2 2.61885e-16 0)
(2 6.02527e-16 0)
(2 1.2488e-15 0)
(2 1.02979e-15 0)
(2 8.27348e-18 0)
(2 -6.34979e-16 0)
(2 -1.35048e-15 0)
(2 -8.1302e-16 0)
(2 -6.64393e-16 0)
(2 -9.98626e-16 0)
(2 -5.11521e-16 0)
(2 -3.29041e-16 0)
(2 -2.94052e-16 0)
(2 -1.18813e-15 0)
(2 -3.09865e-15 0)
(2 -4.50219e-15 0)
(2 -5.87063e-15 0)
(2 -6.09844e-15 0)
(2 -5.6873e-15 0)
(2 -6.38262e-15 0)
(2 -5.77938e-15 0)
(2 -5.01378e-15 0)
(2 -4.27344e-15 0)
(2 -5.48826e-15 0)
(2 -5.94138e-15 0)
(2 -5.53404e-15 0)
(2 -5.66189e-15 0)
(2 -4.87149e-15 0)
(2 -3.3024e-15 0)
(2 -3.92761e-15 0)
(2 -4.51835e-15 0)
(2 -4.43742e-15 0)
(2 -3.69869e-15 0)
(2 -1.86134e-15 0)
(2 1.06898e-15 0)
(2 1.70873e-15 0)
(2 1.51145e-15 0)
(2 1.50514e-15 0)
(2 1.23964e-15 0)
(2 1.30622e-15 0)
(2 1.96953e-15 0)
(2 2.90439e-15 0)
(2 2.61978e-15 0)
(2 3.06807e-15 0)
(2 5.14545e-15 0)
(2 7.05585e-15 0)
(2 6.72593e-15 0)
(2 6.4355e-15 0)
(2 5.09685e-15 0)
(2 3.87005e-15 0)
(2 2.28811e-15 0)
(2 3.45781e-16 0)
(2 -1.92742e-15 0)
(2 -3.9838e-15 0)
(2 -5.10737e-15 0)
(2 -5.23192e-15 0)
(2 -5.55304e-15 0)
(2 -5.66075e-15 0)
(2 -4.84881e-15 0)
(2 -2.87192e-15 0)
(2 -1.69906e-15 0)
(2 -1.75797e-15 0)
(2 -3.03184e-15 0)
(2 -3.11338e-15 0)
(2 -4.54047e-15 0)
(2 -7.35276e-15 0)
(2 -8.84857e-15 0)
(2 -1.14067e-15 0)
(2 2.72041e-13 0)
(2 -1.2062e-15 0)
(2 -1.48158e-15 0)
(2 -2.11024e-15 0)
(2 -2.77572e-15 0)
(2 -3.1744e-15 0)
(2 -3.58105e-15 0)
(2 -3.998e-15 0)
(2 -4.44477e-15 0)
(2 -4.84369e-15 0)
(2 -3.54358e-15 0)
(2 -3.29817e-15 0)
(2 -3.93846e-15 0)
(2 -4.80327e-15 0)
(2 -4.85388e-15 0)
(2 -4.60068e-15 0)
(2 -2.84546e-15 0)
(2 -1.53633e-15 0)
(2 6.34145e-16 0)
(2 2.64924e-15 0)
(2 2.85412e-15 0)
(2 1.84995e-15 0)
(2 1.75027e-16 0)
(2 -7.22126e-16 0)
(2 -3.73223e-15 0)
(2 -3.91447e-15 0)
(2 -2.99539e-15 0)
(2 -2.56724e-15 0)
(2 -2.14719e-15 0)
(2 -2.51243e-15 0)
(2 -2.07359e-15 0)
(2 -2.1974e-15 0)
(2 -2.85139e-15 0)
(2 -3.77241e-15 0)
(2 -4.71952e-15 0)
(2 -2.59845e-15 0)
(2 -2.42394e-15 0)
(2 -2.09525e-15 0)
(2 -1.71836e-15 0)
(2 -2.11404e-15 0)
(2 -2.97187e-15 0)
(2 -3.17308e-15 0)
(2 -2.92123e-15 0)
(2 -4.16991e-15 0)
(2 -4.60636e-15 0)
(2 -5.24577e-15 0)
(2 -6.04619e-15 0)
(2 -6.72771e-15 0)
(2 -6.83903e-15 0)
(2 -5.90181e-15 0)
(2 -3.59163e-15 0)
(2 -1.95306e-15 0)
(2 -7.76351e-16 0)
(2 5.60214e-16 0)
(2 6.68754e-16 0)
(2 -4.06201e-16 0)
(2 4.60611e-16 0)
(2 1.02784e-15 0)
(2 1.96602e-15 0)
(2 1.40899e-15 0)
(2 1.6322e-15 0)
(2 2.58166e-15 0)
(2 2.03551e-15 0)
(2 3.35761e-15 0)
(2 5.51289e-15 0)
(2 5.88039e-15 0)
(2 6.68122e-15 0)
(2 7.30038e-15 0)
(2 7.08408e-15 0)
(2 6.51048e-15 0)
(2 4.73151e-15 0)
(2 1.69875e-15 0)
(2 3.34476e-16 0)
(2 -6.15752e-16 0)
(2 -1.65307e-15 0)
(2 -2.31229e-15 0)
(2 -3.38647e-15 0)
(2 -5.70058e-15 0)
(2 -7.40361e-15 0)
(2 -5.88433e-15 0)
(2 -5.546e-15 0)
(2 -5.26759e-15 0)
(2 -5.92417e-15 0)
(2 -6.90659e-15 0)
(2 -9.36277e-15 0)
(2 -1.08543e-14 0)
(2 -1.18821e-14 0)
(2 -9.21272e-15 0)
(2 -5.50918e-15 0)
(2 -1.8384e-16 0)
(2 1.3113e-16 0)
(2 5.68731e-16 0)
(2 1.2148e-15 0)
(2 1.36713e-15 0)
(2 9.07725e-16 0)
(2 6.4771e-16 0)
(2 5.6407e-16 0)
(2 3.08596e-16 0)
(2 -1.58753e-16 0)
(2 6.46076e-17 0)
(2 -1.15762e-15 0)
(2 -1.98809e-15 0)
(2 -1.77731e-15 0)
(2 -2.08375e-15 0)
(2 -2.41794e-15 0)
(2 -1.57563e-15 0)
(2 -3.63741e-16 0)
(2 -4.39335e-16 0)
(2 -6.43832e-16 0)
(2 -1.02273e-15 0)
(2 -9.03252e-16 0)
(2 -1.20567e-15 0)
(2 -9.27353e-16 0)
(2 -1.61987e-15 0)
(2 -1.40777e-15 0)
(2 -1.65255e-15 0)
(2 -1.67313e-15 0)
(2 8.51219e-17 0)
(2 -2.49596e-17 0)
(2 -1.16613e-15 0)
(2 -2.28782e-15 0)
(2 -2.71581e-15 0)
(2 -2.81294e-15 0)
(2 -2.61653e-15 0)
(2 -1.87175e-15 0)
(2 -1.66457e-15 0)
(2 -1.74691e-15 0)
(2 -1.93901e-15 0)
(2 -2.69675e-15 0)
(2 -2.68161e-15 0)
(2 -2.96705e-15 0)
(2 -2.94834e-15 0)
(2 -3.0352e-15 0)
(2 -3.20011e-15 0)
(2 -3.52771e-15 0)
(2 -4.19781e-15 0)
(2 -4.36274e-15 0)
(2 -3.43487e-15 0)
(2 -1.23328e-15 0)
(2 9.88916e-16 0)
(2 1.61785e-15 0)
(2 2.34686e-15 0)
(2 2.18551e-15 0)
(2 1.59979e-15 0)
(2 7.39839e-16 0)
(2 -1.25535e-16 0)
(2 -5.12449e-16 0)
(2 -7.22147e-16 0)
(2 3.68922e-17 0)
(2 3.16613e-17 0)
(2 1.62744e-15 0)
(2 3.36299e-15 0)
(2 2.9057e-15 0)
(2 3.22507e-15 0)
(2 2.5682e-15 0)
(2 4.05232e-15 0)
(2 3.90725e-15 0)
(2 3.02589e-15 0)
(2 3.1503e-15 0)
(2 2.07301e-15 0)
(2 5.49135e-17 0)
(2 -3.90633e-16 0)
(2 -3.74628e-16 0)
(2 1.42609e-16 0)
(2 -1.73958e-16 0)
(2 -1.1245e-15 0)
(2 -1.69146e-15 0)
(2 -2.81939e-15 0)
(2 -3.33314e-15 0)
(2 -4.52242e-15 0)
(2 -5.95623e-15 0)
(2 -7.37983e-15 0)
(2 -7.80525e-15 0)
(2 -7.54614e-15 0)
(2 -6.37071e-15 0)
(2 -6.1575e-15 0)
(2 -6.88506e-15 0)
(2 3.62707e-15 0)
(2 3.76972e-15 0)
(2 4.2525e-15 0)
(2 5.34534e-15 0)
(2 6.24e-15 0)
(2 6.87916e-15 0)
(2 7.2491e-15 0)
(2 6.88255e-15 0)
(2 5.33006e-15 0)
(2 2.28411e-15 0)
(2 9.79867e-16 0)
(2 1.36128e-15 0)
(2 1.09783e-15 0)
(2 7.0566e-16 0)
(2 7.48555e-16 0)
(2 -1.55832e-16 0)
(2 -1.47955e-15 0)
(2 -1.27146e-15 0)
(2 -4.63496e-16 0)
(2 -5.32872e-17 0)
(2 3.61851e-16 0)
(2 7.10622e-16 0)
(2 -4.50155e-16 0)
(2 7.74727e-16 0)
(2 3.16633e-16 0)
(2 2.72258e-17 0)
(2 7.7687e-16 0)
(2 1.54969e-15 0)
(2 2.93955e-15 0)
(2 2.83751e-15 0)
(2 2.31822e-15 0)
(2 1.41557e-15 0)
(2 1.80953e-15 0)
(2 2.06007e-15 0)
(2 -6.89144e-16 0)
(2 -4.12618e-16 0)
(2 -1.70497e-15 0)
(2 -2.89719e-15 0)
(2 -2.46522e-15 0)
(2 -1.77515e-15 0)
(2 -1.22941e-15 0)
(2 -6.32627e-16 0)
(2 4.74977e-16 0)
(2 3.70235e-16 0)
(2 1.63546e-16 0)
(2 6.06195e-16 0)
(2 7.19591e-16 0)
(2 2.26102e-15 0)
(2 4.52031e-15 0)
(2 4.53016e-15 0)
(2 4.34626e-15 0)
(2 4.79301e-15 0)
(2 4.83273e-15 0)
(2 5.29303e-15 0)
(2 5.11597e-15 0)
(2 4.10923e-15 0)
(2 2.92823e-15 0)
(2 1.317e-15 0)
(2 1.3462e-15 0)
(2 1.73588e-15 0)
(2 1.34754e-15 0)
(2 2.1443e-15 0)
(2 2.50559e-15 0)
(2 5.70125e-16 0)
(2 2.1997e-15 0)
(2 1.92893e-15 0)
(2 1.37892e-15 0)
(2 1.3423e-15 0)
(2 2.78999e-15 0)
(2 3.19923e-15 0)
(2 3.24735e-15 0)
(2 3.15424e-15 0)
(2 2.9912e-15 0)
(2 3.01457e-15 0)
(2 2.64352e-15 0)
(2 2.45201e-15 0)
(2 2.73813e-15 0)
(2 2.02329e-15 0)
(2 2.79032e-16 0)
(2 -1.16074e-15 0)
(2 -3.00325e-15 0)
(2 -3.83487e-15 0)
(2 -3.14335e-15 0)
(2 -2.37592e-15 0)
(2 -1.90652e-15 0)
(2 -2.09611e-15 0)
(2 -4.03036e-15 0)
(2 -6.207e-15 0)
(2 3.92352e-15 0)
(2 6.18213e-15 0)
(2 6.90408e-15 0)
(2 7.70249e-15 0)
(2 8.30159e-15 0)
(2 8.73118e-15 0)
(2 9.02558e-15 0)
(2 8.69109e-15 0)
(2 6.97e-15 0)
(2 4.95999e-15 0)
(2 4.96822e-15 0)
(2 4.93505e-15 0)
(2 5.085e-15 0)
(2 5.77278e-15 0)
(2 5.30258e-15 0)
(2 3.53944e-15 0)
(2 -1.81978e-16 0)
(2 -2.47237e-15 0)
(2 -2.19458e-15 0)
(2 -1.27016e-15 0)
(2 6.19646e-16 0)
(2 8.2837e-16 0)
(2 1.00989e-15 0)
(2 1.59922e-15 0)
(2 2.82718e-15 0)
(2 3.18656e-15 0)
(2 3.15475e-15 0)
(2 4.03043e-15 0)
(2 3.57625e-15 0)
(2 3.99759e-15 0)
(2 4.4156e-15 0)
(2 4.42344e-15 0)
(2 4.22524e-15 0)
(2 3.25673e-15 0)
(2 2.59574e-15 0)
(2 2.05023e-15 0)
(2 4.39749e-16 0)
(2 -9.70393e-16 0)
(2 -1.03718e-15 0)
(2 -5.14824e-17 0)
(2 4.08733e-16 0)
(2 9.97293e-16 0)
(2 1.84491e-15 0)
(2 1.93589e-15 0)
(2 2.56223e-15 0)
(2 3.1684e-15 0)
(2 5.0321e-15 0)
(2 5.5321e-15 0)
(2 5.82477e-15 0)
(2 4.59432e-15 0)
(2 3.28527e-15 0)
(2 3.54301e-15 0)
(2 3.80703e-15 0)
(2 4.50178e-15 0)
(2 5.3642e-15 0)
(2 6.17557e-15 0)
(2 6.02235e-15 0)
(2 5.02163e-15 0)
(2 4.69528e-15 0)
(2 4.20852e-15 0)
(2 3.27829e-15 0)
(2 2.64481e-15 0)
(2 1.40084e-15 0)
(2 1.98299e-15 0)
(2 2.24706e-15 0)
(2 1.72323e-15 0)
(2 1.81635e-15 0)
(2 1.68674e-15 0)
(2 2.69297e-15 0)
(2 3.0097e-15 0)
(2 4.38904e-15 0)
(2 4.66169e-15 0)
(2 5.24271e-15 0)
(2 4.82211e-15 0)
(2 3.79249e-15 0)
(2 2.74561e-15 0)
(2 2.71148e-15 0)
(2 2.23027e-15 0)
(2 4.33188e-16 0)
(2 -6.85291e-16 0)
(2 -1.83153e-15 0)
(2 -8.97816e-16 0)
(2 1.17909e-16 0)
(2 -8.97932e-16 0)
(2 -1.54985e-15 0)
(2 -2.72361e-15 0)
(2 -2.84867e-15 0)
(2 -2.45104e-15 0)
(2 -2.64516e-16 0)
(2 1.1029e-15 0)
(2 2.66e-15 0)
(2 3.33813e-15 0)
(2 4.04951e-15 0)
(2 4.1721e-15 0)
(2 4.67042e-15 0)
(2 5.03814e-15 0)
(2 5.05993e-15 0)
(2 4.28052e-15 0)
(2 3.73224e-15 0)
(2 3.94065e-15 0)
(2 3.86499e-15 0)
(2 2.2854e-15 0)
(2 1.78053e-15 0)
(2 -2.12707e-15 0)
(2 -4.27825e-15 0)
(2 -6.1018e-15 0)
(2 -7.01365e-15 0)
(2 -6.46343e-15 0)
(2 -5.88762e-15 0)
(2 -4.03768e-15 0)
(2 -2.61722e-15 0)
(2 -1.06514e-15 0)
(2 9.9362e-16 0)
(2 1.82834e-15 0)
(2 1.21668e-15 0)
(2 7.49287e-16 0)
(2 -3.65345e-16 0)
(2 -7.51109e-16 0)
(2 4.00757e-17 0)
(2 8.77666e-16 0)
(2 1.85838e-15 0)
(2 2.52665e-15 0)
(2 2.36691e-15 0)
(2 2.01947e-15 0)
(2 1.32098e-15 0)
(2 2.49741e-16 0)
(2 -9.1859e-16 0)
(2 -1.5758e-15 0)
(2 -1.41811e-15 0)
(2 -1.17043e-15 0)
(2 1.45873e-16 0)
(2 8.69389e-16 0)
(2 2.19657e-15 0)
(2 3.134e-15 0)
(2 3.28521e-15 0)
(2 1.69992e-15 0)
(2 -9.1819e-18 0)
(2 -1.5961e-15 0)
(2 -1.40095e-15 0)
(2 -1.27838e-15 0)
(2 -1.36655e-15 0)
(2 -1.42389e-15 0)
(2 -1.37946e-16 0)
(2 5.50935e-16 0)
(2 6.68554e-16 0)
(2 1.20353e-15 0)
(2 1.02562e-15 0)
(2 4.66786e-16 0)
(2 6.31983e-16 0)
(2 7.45375e-16 0)
(2 3.37115e-16 0)
(2 1.80462e-16 0)
(2 -1.05809e-15 0)
(2 -2.24863e-15 0)
(2 -1.84835e-15 0)
(2 -2.52877e-15 0)
(2 -2.76552e-15 0)
(2 -1.68111e-15 0)
(2 5.13671e-16 0)
(2 1.03158e-15 0)
(2 1.55901e-15 0)
(2 5.93966e-16 0)
(2 -5.99848e-16 0)
(2 -2.40427e-16 0)
(2 -2.32254e-16 0)
(2 -1.38163e-15 0)
(2 -2.778e-15 0)
(2 -3.54844e-15 0)
(2 -2.48671e-15 0)
(2 -2.08989e-15 0)
(2 -1.79016e-15 0)
(2 -1.65813e-15 0)
(2 -1.83987e-15 0)
(2 -1.86304e-15 0)
(2 -2.07719e-15 0)
(2 -3.25109e-15 0)
(2 5.12195e-16 0)
(2 5.79607e-16 0)
(2 8.87742e-16 0)
(2 9.27854e-16 0)
(2 1.80072e-15 0)
(2 3.91642e-15 0)
(2 4.33683e-15 0)
(2 5.55104e-15 0)
(2 5.77648e-15 0)
(2 5.21427e-15 0)
(2 2.98284e-15 0)
(2 2.79494e-15 0)
(2 1.62882e-15 0)
(2 -7.88383e-16 0)
(2 -1.15927e-15 0)
(2 -2.41243e-15 0)
(2 -2.82252e-15 0)
(2 -4.05301e-15 0)
(2 -4.32882e-15 0)
(2 -4.01842e-15 0)
(2 -3.80994e-15 0)
(2 -3.36776e-15 0)
(2 -3.39546e-15 0)
(2 -2.0115e-15 0)
(2 -1.3288e-15 0)
(2 -9.00415e-16 0)
(2 5.08505e-16 0)
(2 -4.44764e-16 0)
(2 -2.12038e-15 0)
(2 -3.88329e-15 0)
(2 -5.76646e-15 0)
(2 -6.08823e-15 0)
(2 -6.06683e-15 0)
(2 -5.29806e-15 0)
(2 -5.07575e-15 0)
(2 -4.43428e-15 0)
(2 -3.64389e-15 0)
(2 -2.37926e-15 0)
(2 -2.06106e-15 0)
(2 -2.60147e-15 0)
(2 -2.9898e-15 0)
(2 -2.70906e-15 0)
(2 -1.86177e-15 0)
(2 -1.02307e-15 0)
(2 1.13731e-15 0)
(2 1.88875e-15 0)
(2 1.75931e-15 0)
(2 -5.76424e-17 0)
(2 -1.54651e-15 0)
(2 -2.46862e-15 0)
(2 -2.61409e-15 0)
(2 -2.94858e-15 0)
(2 -3.517e-15 0)
(2 -4.34153e-15 0)
(2 -4.18462e-15 0)
(2 -3.88222e-15 0)
(2 -2.22814e-15 0)
(2 4.63856e-16 0)
(2 1.26548e-15 0)
(2 5.65608e-16 0)
(2 1.17414e-16 0)
(2 4.03863e-16 0)
(2 6.05141e-18 0)
(2 -2.79691e-16 0)
(2 -1.66465e-15 0)
(2 -3.07806e-15 0)
(2 -4.94266e-15 0)
(2 -4.2099e-15 0)
(2 -3.83621e-15 0)
(2 -3.65605e-15 0)
(2 -4.6669e-15 0)
(2 -2.84102e-15 0)
(2 -2.16429e-15 0)
(2 -6.10566e-16 0)
(2 3.5946e-16 0)
(2 5.61351e-17 0)
(2 -6.90106e-16 0)
(2 -8.69568e-16 0)
(2 -4.18703e-16 0)
(2 -4.0453e-16 0)
(2 -1.25196e-15 0)
(2 -1.89713e-15 0)
(2 -1.99678e-15 0)
(2 -1.03156e-15 0)
(2 -4.28872e-16 0)
(2 -9.12526e-16 0)
(2 -2.26281e-15 0)
(2 -5.01889e-15 0)
(2 8.34858e-16 0)
(2 3.18533e-16 0)
(2 4.45587e-16 0)
(2 1.04353e-15 0)
(2 1.58419e-15 0)
(2 1.47076e-15 0)
(2 2.73418e-15 0)
(2 3.37222e-15 0)
(2 4.08139e-15 0)
(2 2.83854e-15 0)
(2 1.80291e-15 0)
(2 -1.79918e-16 0)
(2 -8.75233e-16 0)
(2 -1.08128e-15 0)
(2 -1.45927e-15 0)
(2 -4.27311e-16 0)
(2 8.35635e-17 0)
(2 8.15646e-16 0)
(2 1.45469e-15 0)
(2 1.27498e-15 0)
(2 8.78525e-16 0)
(2 4.00843e-16 0)
(2 -6.99843e-16 0)
(2 9.4992e-17 0)
(2 3.55427e-17 0)
(2 -1.78478e-15 0)
(2 -2.31976e-15 0)
(2 -2.68274e-15 0)
(2 -3.23726e-15 0)
(2 -4.8236e-15 0)
(2 -7.17562e-15 0)
(2 -7.99899e-15 0)
(2 -8.16485e-15 0)
(2 -7.70359e-15 0)
(2 -6.60025e-15 0)
(2 -5.44344e-15 0)
(2 -4.2912e-15 0)
(2 -3.21315e-15 0)
(2 -2.39401e-15 0)
(2 -2.66775e-15 0)
(2 -2.61401e-15 0)
(2 -1.09854e-15 0)
(2 -8.17694e-16 0)
(2 -3.33173e-17 0)
(2 1.07447e-15 0)
(2 8.10888e-16 0)
(2 7.61636e-16 0)
(2 6.79295e-16 0)
(2 5.33724e-16 0)
(2 1.01955e-15 0)
(2 6.91809e-16 0)
(2 -3.92983e-16 0)
(2 -2.06528e-15 0)
(2 -2.59578e-15 0)
(2 -2.57849e-15 0)
(2 -1.95319e-15 0)
(2 -1.04368e-15 0)
(2 4.1085e-17 0)
(2 8.29206e-16 0)
(2 4.20003e-16 0)
(2 -4.25643e-16 0)
(2 -2.01688e-15 0)
(2 -3.30442e-15 0)
(2 -4.1887e-15 0)
(2 -5.09971e-15 0)
(2 -4.97005e-15 0)
(2 -6.00216e-15 0)
(2 -6.10617e-15 0)
(2 -6.1354e-15 0)
(2 -6.93158e-15 0)
(2 -7.93864e-15 0)
(2 -5.54907e-15 0)
(2 -4.56681e-15 0)
(2 -7.94131e-16 0)
(2 -4.57985e-17 0)
(2 -9.77196e-16 0)
(2 -1.67925e-15 0)
(2 -1.93197e-15 0)
(2 -1.28593e-15 0)
(2 -1.38704e-15 0)
(2 -1.85535e-15 0)
(2 -2.91343e-15 0)
(2 -4.22914e-15 0)
(2 -5.04034e-15 0)
(2 -6.19821e-15 0)
(2 -6.90393e-15 0)
(2 -8.41091e-15 0)
(2 -8.16889e-15 0)
(2 1.22006e-15 0)
(2 1.25045e-15 0)
(2 1.54337e-15 0)
(2 1.94655e-15 0)
(2 1.6739e-15 0)
(2 -1.81803e-16 0)
(2 -7.62555e-16 0)
(2 -1.89311e-15 0)
(2 -2.05788e-15 0)
(2 -2.74963e-15 0)
(2 -2.00768e-15 0)
(2 -1.49681e-15 0)
(2 -1.65374e-15 0)
(2 -2.06934e-15 0)
(2 -2.83315e-15 0)
(2 -2.67294e-15 0)
(2 -1.86907e-15 0)
(2 -1.85512e-15 0)
(2 -2.54257e-15 0)
(2 -3.19847e-15 0)
(2 -3.97299e-15 0)
(2 -3.78085e-15 0)
(2 -3.17697e-15 0)
(2 -3.93776e-15 0)
(2 -5.44478e-15 0)
(2 -5.32467e-15 0)
(2 -4.97215e-15 0)
(2 -4.3832e-15 0)
(2 -3.85647e-15 0)
(2 -4.91934e-15 0)
(2 -4.68059e-15 0)
(2 -4.06943e-15 0)
(2 -3.51596e-15 0)
(2 -3.62972e-15 0)
(2 -4.02107e-15 0)
(2 -2.7039e-15 0)
(2 -1.9945e-15 0)
(2 -7.19896e-16 0)
(2 1.47171e-16 0)
(2 5.67834e-16 0)
(2 8.33426e-16 0)
(2 9.8448e-16 0)
(2 1.19085e-15 0)
(2 1.85602e-15 0)
(2 8.64329e-16 0)
(2 -1.26313e-15 0)
(2 -1.70871e-15 0)
(2 1.28836e-16 0)
(2 1.67047e-15 0)
(2 1.4669e-15 0)
(2 2.53513e-16 0)
(2 4.13869e-16 0)
(2 -4.18498e-17 0)
(2 -6.49643e-17 0)
(2 -2.30768e-16 0)
(2 -1.91692e-17 0)
(2 -8.70248e-16 0)
(2 -1.69957e-15 0)
(2 -1.62302e-15 0)
(2 -1.81308e-15 0)
(2 -3.46921e-15 0)
(2 -5.27873e-15 0)
(2 -8.53029e-15 0)
(2 -9.99324e-15 0)
(2 -1.09782e-14 0)
(2 -1.06015e-14 0)
(2 -9.96711e-15 0)
(2 -9.86497e-15 0)
(2 -1.00945e-14 0)
(2 -1.06969e-14 0)
(2 -1.00228e-14 0)
(2 -9.0944e-15 0)
(2 -8.15621e-15 0)
(2 -6.13161e-15 0)
(2 -5.93818e-15 0)
(2 -4.79099e-15 0)
(2 -3.27514e-15 0)
(2 -2.96115e-15 0)
(2 -2.2293e-15 0)
(2 -2.26303e-15 0)
(2 -2.42077e-15 0)
(2 -3.42575e-15 0)
(2 -5.33129e-15 0)
(2 -7.01183e-15 0)
(2 -6.35717e-15 0)
(2 -6.63661e-15 0)
(2 -7.74401e-15 0)
(2 -7.93652e-15 0)
(2 -7.90475e-16 0)
(2 2.41823e-16 0)
(2 1.35016e-16 0)
(2 5.75981e-16 0)
(2 4.93494e-16 0)
(2 -4.24026e-16 0)
(2 -1.50649e-15 0)
(2 -2.1514e-15 0)
(2 -2.02527e-15 0)
(2 -2.35503e-15 0)
(2 -1.86961e-15 0)
(2 -1.90397e-15 0)
(2 -2.5649e-15 0)
(2 -4.06305e-15 0)
(2 -5.06892e-15 0)
(2 -4.62992e-15 0)
(2 -4.37243e-15 0)
(2 -4.44102e-15 0)
(2 -5.90964e-15 0)
(2 -7.27851e-15 0)
(2 -9.3607e-15 0)
(2 -8.71261e-15 0)
(2 -7.71823e-15 0)
(2 -7.74578e-15 0)
(2 -7.13988e-15 0)
(2 -6.35493e-15 0)
(2 -6.46057e-15 0)
(2 -6.33218e-15 0)
(2 -5.82369e-15 0)
(2 -4.45545e-15 0)
(2 -2.15482e-15 0)
(2 -1.74433e-15 0)
(2 3.71218e-16 0)
(2 -6.36616e-16 0)
(2 -1.15827e-15 0)
(2 -1.70782e-15 0)
(2 -1.86768e-15 0)
(2 -1.51997e-15 0)
(2 -6.33513e-16 0)
(2 5.35889e-16 0)
(2 1.98636e-15 0)
(2 8.55838e-16 0)
(2 1.65988e-15 0)
(2 2.05254e-15 0)
(2 1.43423e-15 0)
(2 2.53001e-16 0)
(2 -4.50316e-16 0)
(2 2.96651e-16 0)
(2 1.29884e-15 0)
(2 4.73193e-16 0)
(2 -1.0322e-15 0)
(2 -8.9596e-16 0)
(2 -2.7044e-16 0)
(2 -1.72014e-16 0)
(2 -4.3411e-16 0)
(2 -1.4458e-15 0)
(2 -3.26251e-15 0)
(2 -3.47441e-15 0)
(2 -4.11818e-15 0)
(2 -5.77026e-15 0)
(2 -6.98414e-15 0)
(2 -8.62332e-15 0)
(2 -9.9561e-15 0)
(2 -1.05876e-14 0)
(2 -1.08214e-14 0)
(2 -1.12939e-14 0)
(2 -1.17372e-14 0)
(2 -1.26274e-14 0)
(2 -1.25876e-14 0)
(2 -1.21594e-14 0)
(2 -1.17426e-14 0)
(2 -1.1342e-14 0)
(2 -1.13022e-14 0)
(2 -9.86287e-15 0)
(2 -7.64759e-15 0)
(2 -4.8286e-15 0)
(2 -2.68694e-15 0)
(2 -1.2042e-15 0)
(2 -5.39226e-16 0)
(2 -5.4423e-16 0)
(2 -4.98067e-16 0)
(2 -1.37652e-15 0)
(2 -3.01733e-15 0)
(2 -5.34642e-15 0)
(2 -5.71751e-15 0)
(2 -5.88784e-15 0)
(2 -6.13528e-15 0)
(2 -6.64255e-15 0)
(2 -2.06926e-15 0)
(2 -1.63047e-15 0)
(2 -1.56008e-15 0)
(2 -1.6162e-15 0)
(2 -2.93808e-15 0)
(2 -4.97358e-15 0)
(2 -6.15573e-15 0)
(2 -5.70902e-15 0)
(2 -5.23853e-15 0)
(2 -4.21015e-15 0)
(2 -4.2382e-15 0)
(2 -4.69978e-15 0)
(2 -5.19231e-15 0)
(2 -6.10439e-15 0)
(2 -6.29119e-15 0)
(2 -7.11105e-15 0)
(2 -6.9082e-15 0)
(2 -6.17082e-15 0)
(2 -6.51304e-15 0)
(2 -6.82961e-15 0)
(2 -7.86479e-15 0)
(2 -1.0725e-14 0)
(2 -1.07321e-14 0)
(2 -9.57376e-15 0)
(2 -7.557e-15 0)
(2 -7.51887e-15 0)
(2 -7.7387e-15 0)
(2 -7.86613e-15 0)
(2 -7.7249e-15 0)
(2 -6.10931e-15 0)
(2 -4.90457e-15 0)
(2 -4.4664e-15 0)
(2 -3.38058e-15 0)
(2 -3.78873e-15 0)
(2 -3.34164e-15 0)
(2 -2.91066e-15 0)
(2 -3.44016e-15 0)
(2 -3.34369e-15 0)
(2 -3.04376e-15 0)
(2 -1.90758e-15 0)
(2 -8.79797e-16 0)
(2 -1.08737e-15 0)
(2 -1.39556e-15 0)
(2 -2.12137e-15 0)
(2 -2.14365e-15 0)
(2 -1.57265e-15 0)
(2 -1.72501e-15 0)
(2 -2.19269e-15 0)
(2 -2.27716e-15 0)
(2 -1.62935e-15 0)
(2 -1.98618e-15 0)
(2 -2.46389e-15 0)
(2 -3.15722e-15 0)
(2 -2.65743e-15 0)
(2 -3.14022e-15 0)
(2 -4.42721e-15 0)
(2 -5.73306e-15 0)
(2 -6.50626e-15 0)
(2 -8.19793e-15 0)
(2 -8.31111e-15 0)
(2 -8.01944e-15 0)
(2 -7.28402e-15 0)
(2 -7.35961e-15 0)
(2 -7.99392e-15 0)
(2 -7.99333e-15 0)
(2 -8.19337e-15 0)
(2 -9.4659e-15 0)
(2 -1.03089e-14 0)
(2 -1.07764e-14 0)
(2 -1.06309e-14 0)
(2 -1.0842e-14 0)
(2 -1.10608e-14 0)
(2 -1.23143e-14 0)
(2 -1.31816e-14 0)
(2 -1.2787e-14 0)
(2 -1.22737e-14 0)
(2 -1.01746e-14 0)
(2 -8.87697e-15 0)
(2 -7.85262e-15 0)
(2 -7.76332e-15 0)
(2 -7.16452e-15 0)
(2 -6.49507e-15 0)
(2 -6.55904e-15 0)
(2 -7.25949e-15 0)
(2 -8.47278e-15 0)
(2 -8.22912e-15 0)
(2 -7.75174e-15 0)
(2 -8.05121e-15 0)
(2 -2.88006e-15 0)
(2 -2.25167e-15 0)
(2 -1.82085e-15 0)
(2 -4.04536e-15 0)
(2 -7.50242e-15 0)
(2 -9.29394e-15 0)
(2 -1.09721e-14 0)
(2 -1.03547e-14 0)
(2 -1.06973e-14 0)
(2 -1.06881e-14 0)
(2 -1.06375e-14 0)
(2 -1.04439e-14 0)
(2 -9.75089e-15 0)
(2 -9.04194e-15 0)
(2 -7.60541e-15 0)
(2 -8.09838e-15 0)
(2 -8.27438e-15 0)
(2 -8.36728e-15 0)
(2 -7.71534e-15 0)
(2 -5.95475e-15 0)
(2 -5.25527e-15 0)
(2 -6.78181e-15 0)
(2 -7.53109e-15 0)
(2 -8.0201e-15 0)
(2 -7.95023e-15 0)
(2 -1.0324e-14 0)
(2 -9.68328e-15 0)
(2 -8.0591e-15 0)
(2 -7.15861e-15 0)
(2 -5.6867e-15 0)
(2 -5.80852e-15 0)
(2 -4.12543e-15 0)
(2 -4.69057e-15 0)
(2 -4.64615e-15 0)
(2 -4.33855e-15 0)
(2 -4.82693e-15 0)
(2 -4.52107e-15 0)
(2 -4.91402e-15 0)
(2 -4.95498e-15 0)
(2 -4.47493e-15 0)
(2 -4.28632e-15 0)
(2 -3.5895e-15 0)
(2 -3.81211e-15 0)
(2 -5.58259e-15 0)
(2 -6.29976e-15 0)
(2 -5.5963e-15 0)
(2 -4.594e-15 0)
(2 -3.14966e-15 0)
(2 -3.6845e-15 0)
(2 -5.36512e-15 0)
(2 -5.84725e-15 0)
(2 -5.81968e-15 0)
(2 -4.67085e-15 0)
(2 -4.38439e-15 0)
(2 -5.72243e-15 0)
(2 -5.45542e-15 0)
(2 -6.24924e-15 0)
(2 -7.49782e-15 0)
(2 -7.69598e-15 0)
(2 -6.89769e-15 0)
(2 -5.56424e-15 0)
(2 -4.09916e-15 0)
(2 -4.58826e-15 0)
(2 -5.54013e-15 0)
(2 -5.83806e-15 0)
(2 -5.62341e-15 0)
(2 -8.94866e-15 0)
(2 -1.02325e-14 0)
(2 -1.18432e-14 0)
(2 -1.23014e-14 0)
(2 -1.1965e-14 0)
(2 -1.11963e-14 0)
(2 -1.11211e-14 0)
(2 -1.14954e-14 0)
(2 -1.25868e-14 0)
(2 -1.20447e-14 0)
(2 -1.13986e-14 0)
(2 -8.43847e-15 0)
(2 -6.90786e-15 0)
(2 -8.55486e-15 0)
(2 -1.16096e-14 0)
(2 -1.17403e-14 0)
(2 -1.05342e-14 0)
(2 -8.51029e-15 0)
(2 -8.3776e-15 0)
(2 -8.59314e-15 0)
(2 -9.38743e-15 0)
(2 -1.07222e-14 0)
(2 -3.82805e-15 0)
(2 -5.6408e-15 0)
(2 -5.9054e-15 0)
(2 -7.21239e-15 0)
(2 -7.58123e-15 0)
(2 -7.3441e-15 0)
(2 -7.48497e-15 0)
(2 -8.10808e-15 0)
(2 -8.46778e-15 0)
(2 -1.00199e-14 0)
(2 -1.12409e-14 0)
(2 -1.09672e-14 0)
(2 -9.99358e-15 0)
(2 -7.50447e-15 0)
(2 -6.49359e-15 0)
(2 -5.07519e-15 0)
(2 -5.48718e-15 0)
(2 -6.55591e-15 0)
(2 -6.9534e-15 0)
(2 -6.27934e-15 0)
(2 -5.0798e-15 0)
(2 -5.42192e-15 0)
(2 -7.27874e-15 0)
(2 -1.01459e-14 0)
(2 -1.03916e-14 0)
(2 -1.02482e-14 0)
(2 -9.96142e-15 0)
(2 -9.82279e-15 0)
(2 -9.17448e-15 0)
(2 -7.397e-15 0)
(2 -5.57694e-15 0)
(2 -4.44313e-15 0)
(2 -3.33293e-15 0)
(2 -1.47155e-15 0)
(2 -1.03194e-15 0)
(2 -2.67203e-15 0)
(2 -2.81346e-15 0)
(2 -3.62165e-15 0)
(2 -4.18028e-15 0)
(2 -4.24503e-15 0)
(2 -3.75683e-15 0)
(2 -2.62421e-15 0)
(2 -3.54493e-15 0)
(2 -4.24099e-15 0)
(2 -5.61098e-15 0)
(2 -6.16312e-15 0)
(2 -7.02796e-15 0)
(2 -7.49189e-15 0)
(2 -7.55495e-15 0)
(2 -7.22852e-15 0)
(2 -6.85739e-15 0)
(2 -7.19984e-15 0)
(2 -8.16893e-15 0)
(2 -9.27201e-15 0)
(2 -9.00053e-15 0)
(2 -8.44154e-15 0)
(2 -6.69009e-15 0)
(2 -5.71756e-15 0)
(2 -3.41628e-15 0)
(2 -2.41744e-15 0)
(2 -3.91687e-15 0)
(2 -5.69464e-15 0)
(2 -4.67516e-15 0)
(2 -3.07262e-15 0)