/*--------------------------------*- C++ -*----------------------------------*\
  =========                 |
  \\      /  F ield         | OpenFOAM: The Open Source CFD Toolbox
   \\    /   O peration     | Website:  https://openfoam.org
    \\  /    A nd           | Version:  7
     \\/     M anipulation  |
\*---------------------------------------------------------------------------*/
FoamFile
{
    version     2.0;
    format      ascii;
    class       volScalarField;
    location    "1.15";
    object      p;
}
// * * * * * * * * * * * * * * * * * * * * * * * * * * * * * * * * * * * * * //

dimensions      [0 2 -2 0 0 0 0];

internalField   nonuniform List<scalar> 
1600
(
7.17679e-06
-0.00117925
-0.00390982
-0.00758465
-0.0115306
-0.015252
-0.0183909
-0.0206948
-0.0219963
-0.0221955
-0.0212469
-0.0191483
-0.0159333
-0.0116649
-0.00643042
-0.000337538
0.00648874
0.013909
0.0217719
0.0299163
0.0381743
0.0463729
0.0543379
0.0618963
0.0688803
0.0751315
0.0805052
0.0848755
0.0881406
0.0902292
0.0911062
0.0907805
0.0893123
0.0868227
0.0835052
0.079639
0.0756042
0.0719098
0.0692238
0.0681078
0.001201
1.03075e-05
-0.00220669
-0.00505869
-0.00810218
-0.0109718
-0.013383
-0.0151226
-0.0160403
-0.0160403
-0.0150724
-0.0131252
-0.0102194
-0.00640324
-0.00174785
0.00365607
0.00970134
0.0162669
0.0232205
0.0304205
0.0377191
0.0449643
0.0520028
0.0586833
0.0648599
0.0703959
0.0751677
0.0790698
0.0820192
0.0839608
0.0848727
0.0847718
0.0837201
0.0818306
0.079274
0.0762843
0.0731636
0.0702878
0.0681043
0.0669938
0.00394648
0.00221859
-2.88922e-05
-0.00258897
-0.00521849
-0.00764756
-0.00965253
-0.0110617
-0.0117495
-0.011632
-0.0106633
-0.00883016
-0.00614791
-0.00265632
0.00158373
0.00649322
0.0119777
0.0179297
0.0242308
0.0307544
0.0373674
0.043933
0.0503136
0.0563733
0.0619812
0.0670155
0.0713666
0.0749419
0.0776693
0.0795025
0.0804248
0.0804539
0.0796463
0.0781009
0.0759618
0.07342
0.0707156
0.0681304
0.065923
0.0643053
0.00771102
0.00509922
0.00245743
-0.000172301
-0.00272816
-0.00501025
-0.0068443
-0.00809853
-0.00867454
-0.00850553
-0.00755483
-0.00581305
-0.00329501
-3.69209e-05
0.00390624
0.0084631
0.0135481
0.0190635
0.0249014
0.0309459
0.0370752
0.0431637
0.0490847
0.054713
0.0599283
0.0646181
0.0686815
0.0720328
0.0746055
0.0763561
0.0772677
0.0773535
0.07666
0.0752689
0.0732972
0.0708969
0.0682604
0.0656027
0.0630111
0.0605421
0.0119007
0.00826007
0.00505054
0.00216913
-0.000489342
-0.00278098
-0.00457319
-0.00577132
-0.00630418
-0.00612342
-0.00520409
-0.00354321
-0.0011579
0.00191658
0.0056287
0.0099124
0.0146888
0.0198678
0.02535
0.0310281
0.0367891
0.0425163
0.0480915
0.0533977
0.058322
0.0627584
0.0666113
0.0697988
0.0722565
0.0739402
0.0748299
0.0749314
0.0742793
0.0729371
0.0709958
0.0685721
0.0658197
0.0629018
0.0597479
0.0562773
0.0160891
0.0113768
0.00750684
0.00425594
0.00137259
-0.00104223
-0.00288953
-0.00410734
-0.00464987
-0.00448705
-0.00360655
-0.00201337
0.000271254
0.00321102
0.00675581
0.0108429
0.015398
0.0203369
0.0255664
0.0309859
0.0364893
0.0419663
0.0473051
0.0523942
0.0571254
0.0613966
0.0651146
0.0681985
0.070583
0.0722209
0.0730861
0.0731757
0.0725112
0.0711385
0.0691248
0.0665569
0.0635587
0.0602554
0.0564391
0.0519166
0.0199671
0.0141881
0.00961116
0.00591477
0.00272184
0.00010191
-0.00187201
-0.00316573
-0.00375615
-0.00363044
-0.00278894
-0.00124541
0.000973576
0.0038292
0.00727108
0.011238
0.0156588
0.0204529
0.0255318
0.0307996
0.0361548
0.0414917
0.0467025
0.051679
0.0563152
0.0605104
0.0641713
0.0672153
0.0695737
0.071194
0.0720425
0.0721059
0.0713926
0.0699318
0.06777
0.0649696
0.0616329
0.0578598
0.0533256
0.0477468
0.0233015
0.0164801
0.0111783
0.00699293
0.00343781
0.000560031
-0.00158707
-0.00299253
-0.00365315
-0.00357191
-0.00276136
-0.0012442
0.000946942
0.00376968
0.00717215
0.0110933
0.0154634
0.0202042
0.0252299
0.030448
0.0357598
0.0410622
0.0462495
0.0512146
0.0558519
0.0600594
0.0637418
0.0668125
0.0691973
0.0708366
0.0716873
0.0717252
0.0709454
0.0693618
0.0670029
0.0639117
0.0601761
0.0558799
0.0505992
0.0439764
0.02591
0.0180734
0.0120439
0.00734703
0.00340004
0.000233948
-0.00211266
-0.00364828
-0.00438708
-0.00434633
-0.00355014
-0.00203009
0.000174766
0.00301781
0.00644475
0.0103936
0.0147949
0.0195713
0.0246387
0.0299059
0.035276
0.0406469
0.045913
0.0509668
0.055701
0.0600107
0.0637961
0.066965
0.0694358
0.0711398
0.0720238
0.0720516
0.071205
0.0694837
0.0669009
0.0634838
0.0593114
0.0544592
0.0484158
0.0407608
0.0276421
0.0188123
0.0120579
0.00683999
0.00248698
-0.000981552
-0.00353819
-0.00520795
-0.00602033
-0.0060056
-0.00519874
-0.00364007
-0.00137524
0.00154441
0.00506148
0.00911227
0.0136264
0.0185268
0.0237294
0.0291437
0.0346727
0.0402143
0.0456616
0.0509052
0.0558342
0.0603393
0.0643143
0.0676596
0.0702845
0.0721098
0.0730706
0.0731179
0.0722203
0.0703638
0.0675478
0.0637872
0.059156
0.0537268
0.0469081
0.0382231
0.028365
0.0185554
0.0110799
0.00533867
0.000576136
-0.00319671
-0.00596122
-0.00775691
-0.00862709
-0.00861409
-0.00776325
-0.00612347
-0.00374715
-0.000690738
0.00298481
0.00721336
0.0119231
0.017036
0.0224676
0.0281268
0.033916
0.0397313
0.0454638
0.0510006
0.0562262
0.0610249
0.0652829
0.0688912
0.0717482
0.0737628
0.074857
0.0749678
0.0740501
0.0720765
0.0690337
0.0649257
0.0598248
0.0538039
0.0461955
0.0364693
0.027953
0.0171673
0.00897287
0.00271044
-0.00245762
-0.00652721
-0.00948697
-0.0113898
-0.0122918
-0.0122469
-0.0113106
-0.00954028
-0.00699527
-0.00373739
0.000168361
0.00465302
0.00964276
0.0150582
0.0208136
0.0268167
0.0329683
0.0391624
0.0452869
0.0512242
0.0568532
0.0620503
0.0666926
0.0706601
0.0738387
0.0761235
0.0774214
0.0776548
0.0767632
0.0747054
0.0714556
0.067008
0.0614345
0.0548109
0.046394
0.0356004
0.0262806
0.014513
0.005599
-0.00118022
-0.00674429
-0.0110954
-0.0142287
-0.0162101
-0.0171085
-0.0169891
-0.0159175
-0.0139599
-0.0111828
-0.00765371
-0.00344194
0.00138032
0.00673693
0.0125467
0.0187225
0.0251703
0.031789
0.0384697
0.0450965
0.0515466
0.0576918
0.0634
0.0685375
0.0729716
0.0765739
0.0792237
0.0808112
0.0812415
0.0804379
0.0783439
0.0749202
0.0701511
0.064109
0.0568738
0.0476239
0.0357217
0.0232172
0.0104526
0.000815132
-0.00647498
-0.0124211
-0.0170315
-0.0203083
-0.0223305
-0.0231801
-0.0229343
-0.021669
-0.0194597
-0.0163804
-0.0125047
-0.00790647
-0.00266137
0.00315196
0.00945048
0.0161454
0.0231411
0.0303341
0.0376127
0.0448566
0.0519373
0.058719
0.0650597
0.0708138
0.0758343
0.0799767
0.0831019
0.0850813
0.0858005
0.0851636
0.0830969
0.079546
0.0744843
0.0679842
0.0601296
0.0500166
0.03695
0.0186222
0.00483731
-0.00553097
-0.0133249
-0.0196346
-0.0244755
-0.0278571
-0.0298727
-0.0306184
-0.0301841
-0.0286574
-0.0261235
-0.0226644
-0.0183603
-0.01329
-0.00753258
-0.00116925
0.00571519
0.0130306
0.0206797
0.0285573
0.0365486
0.0445291
0.0523645
0.0599105
0.067015
0.0735189
0.0792596
0.084074
0.0878027
0.090295
0.0914138
0.0910411
0.0890829
0.0854669
0.0801528
0.0732124
0.064733
0.0537211
0.03942
0.0123423
-0.00249481
-0.0136043
-0.0218935
-0.0285438
-0.0335788
-0.037017
-0.0389676
-0.0395429
-0.0388471
-0.0369805
-0.0340393
-0.0301146
-0.0252932
-0.0196592
-0.0132954
-0.00628509
0.00128544
0.0093251
0.0177359
0.026411
0.0352334
0.0440749
0.0527951
0.0612417
0.0692514
0.0766511
0.0832607
0.0888966
0.0933761
0.0965231
0.0981741
0.0981847
0.0964362
0.0928345
0.0873222
0.0799681
0.0708613
0.05891
0.043291
0.00420762
-0.0117222
-0.0235864
-0.0323603
-0.0393221
-0.0445058
-0.047941
-0.0497558
-0.0500808
-0.0490371
-0.0467399
-0.0432976
-0.0388113
-0.0333757
-0.02708
-0.0200104
-0.0122523
-0.0038925
0.00497768
0.0142603
0.0238484
0.0336235
0.0434544
0.0531956
0.0626871
0.0717542
0.0802089
0.0878524
0.0944782
0.0998775
0.103845
0.106185
0.106723
0.105309
0.101822
0.096183
0.0884529
0.078721
0.0657862
0.0487525
-0.00597133
-0.0230442
-0.0356797
-0.0449244
-0.052161
-0.0574365
-0.060795
-0.0623871
-0.0623657
-0.0608718
-0.058038
-0.0539874
-0.0488325
-0.042676
-0.035613
-0.0277328
-0.0191219
-0.0098671
-5.8308e-05
0.010208
0.0208259
0.0316773
0.0426296
0.0535333
0.0642214
0.0745083
0.0841909
0.0930504
0.100855
0.107367
0.112347
0.115563
0.116802
0.115876
0.11263
0.106955
0.0989022
0.0885547
0.0745896
0.0560311
-0.018408
-0.0366857
-0.0501121
-0.0598094
-0.0672736
-0.0725689
-0.0757585
-0.0770209
-0.0765362
-0.0744698
-0.0709754
-0.066193
-0.0602484
-0.0532536
-0.0453093
-0.0365075
-0.026935
-0.0166769
-0.00582033
0.00554172
0.0173067
0.029359
0.0415664
0.0537779
0.0658206
0.0774995
0.0885964
0.0988717
0.108067
0.115911
0.122126
0.126437
0.128584
0.128334
0.125487
0.119896
0.111592
0.100649
0.0856056
0.0653984
-0.0333447
-0.0529036
-0.0671443
-0.0772688
-0.0848988
-0.0901213
-0.0930256
-0.0938251
-0.0927339
-0.0899478
-0.0856457
-0.0799884
-0.0731167
-0.0651529
-0.0562036
-0.0463627
-0.035716
-0.0243449
-0.0123314
0.000237365
0.0132651
0.0266414
0.0402378
0.0539038
0.067464
0.0807151
0.0934252
0.105334
0.116155
0.125579
0.133286
0.13895
0.142254
0.14291
0.140658
0.135303
0.126846
0.115344
0.0991751
0.07718
-0.0510595
-0.0719955
-0.0870771
-0.0975932
-0.105307
-0.110337
-0.112806
-0.112975
-0.1111
-0.107415
-0.10213
-0.0954307
-0.0874748
-0.0783964
-0.0683075
-0.0573032
-0.045466
-0.0328716
-0.0195939
-0.00571052
0.00869168
0.0235114
0.0386274
0.0538939
0.069136
0.0841455
0.0986787
0.112456
0.12516
0.136445
0.145939
0.153257
0.158018
0.159859
0.15845
0.153528
0.145051
0.133045
0.115706
0.0917668
-0.0718764
-0.0943105
-0.110264
-0.12112
-0.128807
-0.133485
-0.135327
-0.134652
-0.131773
-0.126969
-0.120491
-0.112552
-0.103331
-0.0929752
-0.0816003
-0.0693011
-0.0561547
-0.0422276
-0.0275818
-0.0122819
0.00359945
0.0199745
0.0367343
0.0537425
0.0708291
0.0877858
0.104361
0.120256
0.135126
0.148584
0.160203
0.16953
0.176104
0.179473
0.179216
0.17498
0.166661
0.154237
0.13569
0.10963
-0.0961785
-0.120266
-0.137126
-0.148248
-0.155755
-0.159869
-0.160832
-0.15904
-0.154877
-0.148684
-0.140758
-0.131348
-0.120656
-0.108839
-0.0960188
-0.0822868
-0.0677109
-0.0523445
-0.0362336
-0.0194242
-0.00196974
0.0160612
0.0345777
0.053459
0.0725465
0.0916371
0.110476
0.128753
0.146095
0.162074
0.176202
0.187951
0.196764
0.202083
0.203367
0.200145
0.192224
0.179508
0.159723
0.131339
-0.124429
-0.150372
-0.168174
-0.179451
-0.186566
-0.18983
-0.18958
-0.186317
-0.18052
-0.172603
-0.162923
-0.151768
-0.139364
-0.125883
-0.111446
-0.0961378
-0.0800131
-0.063107
-0.0454437
-0.0270449
-0.00793891
0.0118318
0.0322014
0.0530719
0.074304
0.0957077
0.117033
0.137962
0.158103
0.176984
0.194058
0.20871
0.220273
0.228058
0.231372
0.229592
0.222392
0.20957
0.188533
0.157589
-0.157198
-0.185261
-0.204039
-0.215305
-0.221726
-0.223749
-0.221843
-0.216652
-0.208774
-0.198721
-0.186916
-0.173694
-0.159307
-0.143935
-0.127699
-0.110668
-0.09288
-0.0743437
-0.0550554
-0.0350058
-0.0141905
0.00738146
0.0296774
0.0526311
0.0761317
0.100013
0.124039
0.147895
0.171176
0.193376
0.213886
0.231999
0.246923
0.257809
0.263776
0.263994
0.257957
0.245295
0.223019
0.189236
-0.195213
-0.225742
-0.245517
-0.256516
-0.261813
-0.262053
-0.257899
-0.250184
-0.239663
-0.226964
-0.212591
-0.196927
-0.18025
-0.162742
-0.144515
-0.125619
-0.106062
-0.0858207
-0.0648555
-0.043118
-0.020563
0.00284231
0.0271075
0.0522082
0.0780732
0.104571
0.131496
0.158548
0.185322
0.211288
0.235782
0.258001
0.277015
0.291786
0.301197
0.304149
0.299878
0.287766
0.264306
0.227347
-0.239418
-0.272869
-0.29363
-0.303962
-0.30751
-0.305215
-0.298018
-0.287005
-0.273131
-0.257165
-0.239698
-0.221164
-0.201856
-0.181954
-0.161545
-0.140648
-0.119235
-0.0972379
-0.0745721
-0.0511414
-0.026851
-0.00161723
0.0246216
0.051894
0.0801813
0.109402
0.139395
0.169896
0.200516
0.23072
0.2598
0.286867
0.310839
0.330463
0.344334
0.350997
0.349329
0.338341
0.313824
0.273275
-0.29108
-0.328052
-0.34971
-0.358746
-0.359627
-0.353747
-0.342437
-0.327124
-0.309011
-0.289026
-0.267856
-0.245971
-0.22367
-0.201108
-0.178337
-0.155328
-0.131999
-0.108229
-0.0838769
-0.0587883
-0.03281
-0.0057983
0.0223712
0.0517912
0.0825097
0.114512
0.147702
0.181872
0.216679
0.251606
0.28593
0.318686
0.348648
0.374323
0.393956
0.405641
0.407751
0.398744
0.373426
0.328775
-0.351959
-0.393226
-0.415528
-0.42226
-0.419115
-0.408172
-0.391316
-0.370414
-0.346967
-0.322077
-0.296511
-0.270759
-0.245095
-0.219625
-0.19434
-0.169144
-0.143884
-0.118371
-0.0923948
-0.0657343
-0.0381684
-0.00948373
0.0205162
0.0520006
0.0850983
0.11988
0.156337
0.194349
0.23365
0.273783
0.314046
0.353437
0.390603
0.423805
0.450884
0.469362
0.476922
0.471199
0.445564
0.396178
-0.424575
-0.471107
-0.493467
-0.49626
-0.487057
-0.468977
-0.444661
-0.416535
-0.386431
-0.355616
-0.324902
-0.294755
-0.26538
-0.236798
-0.208902
-0.181504
-0.15436
-0.127197
-0.0997215
-0.0716372
-0.0426462
-0.0124577
0.0192059
0.052601
0.0879515
0.125433
0.16515
0.207103
0.251148
0.296938
0.343853
0.390914
0.436697
0.479234
0.515931
0.54361
0.559028
0.558605
0.533567
0.478694
-0.512694
-0.565612
-0.586764
-0.582933
-0.564627
-0.536501
-0.502203
-0.464815
-0.426502
-0.388639
-0.352009
-0.316977
-0.283614
-0.251799
-0.221286
-0.191761
-0.162865
-0.134223
-0.105451
-0.076164
-0.0459829
-0.0145331
0.018551
0.0536217
0.0910107
0.131017
0.173885
0.219775
0.268716
0.32054
0.374795
0.430624
0.486626
0.540688
0.589791
0.629953
0.656734
0.66479
0.642073
0.580923
-0.622188
-0.682509
-0.699823
-0.684931
-0.652954
-0.610742
-0.563196
-0.514087
-0.465828
-0.419763
-0.376514
-0.336222
-0.29873
-0.263699
-0.230696
-0.19924
-0.168835
-0.138987
-0.109209
-0.0790268
-0.0479721
-0.0155848
0.0185914
0.0550102
0.0941208
0.136361
0.182141
0.231822
0.285664
0.343765
0.405951
0.471634
0.539607
0.607779
0.672822
0.729931
0.773203
0.794822
0.777713
0.709776
-0.762672
-0.830476
-0.838579
-0.805287
-0.75283
-0.691014
-0.626119
-0.562464
-0.502455
-0.447147
-0.396768
-0.351067
-0.309527
-0.271507
-0.236321
-0.20329
-0.171754
-0.14109
-0.110703
-0.0800241
-0.0485
-0.0155868
0.0192613
0.0565994
0.0969977
0.141043
0.189336
0.242471
0.301006
0.365398
0.435899
0.512387
0.594113
0.679321
0.76468
0.844734
0.911997
0.955377
0.950205
0.876243
-0.950834
-1.02278
-1.01077
-0.946974
-0.864063
-0.775347
-0.688217
-0.607035
-0.533662
-0.46841
-0.410783
-0.359897
-0.314725
-0.274222
-0.237399
-0.20334
-0.171211
-0.140252
-0.109761
-0.0790817
-0.0475832
-0.0146452
0.020359
0.058079
0.0992021
0.144467
0.194672
0.250679
0.313397
0.383744
0.462562
0.550454
0.647505
0.752805
0.863638
0.97449
1.07658
1.15498
1.17409
1.09894
-1.21718
-1.27972
-1.22551
-1.11155
-0.984074
-0.859372
-0.744753
-0.643427
-0.555738
-0.480567
-0.416236
-0.360956
-0.313025
-0.270911
-0.233276
-0.198957
-0.166944
-0.136347
-0.106371
-0.0762853
-0.0453958
-0.0130226
0.0215262
0.0589783
0.100124
0.14584
0.197122
0.255106
0.32109
0.396539
0.483046
0.582234
0.695506
0.823557
0.96537
1.11672
1.26884
1.40348
1.47115
1.41123
-1.61772
-1.63096
-1.49153
-1.29672
-1.10589
-0.935006
-0.788312
-0.665545
-0.563982
-0.480138
-0.410638
-0.352514
-0.303265
-0.26083
-0.223517
-0.189931
-0.158908
-0.129458
-0.100715
-0.0718989
-0.0422777
-0.0111351
0.0222609
0.0586905
0.0990176
0.144231
0.195494
0.254195
0.32202
0.401017
0.493654
0.602846
0.73186
0.883978
1.06156
1.26423
1.48651
1.71008
1.8724
1.87275
-2.25447
-2.11587
-1.81359
-1.49443
-1.21742
-0.990513
-0.809414
-0.666451
-0.553622
-0.46401
-0.392064
-0.333468
-0.2849
-0.243803
-0.208187
-0.176485
-0.14743
-0.119975
-0.0932262
-0.066387
-0.0387184
-0.00949923
0.0220104
0.0566073
0.0951895
0.138809
0.188739
0.246561
0.314285
0.394498
0.490563
0.606855
0.748989
0.923944
1.13978
1.40421
1.72094
2.07939
2.41785
2.58911
-3.35592
-2.78318
-2.1727
-1.67585
-1.29258
-1.00573
-0.794146
-0.63727
-0.519326
-0.42917
-0.358969
-0.303179
-0.257836
-0.220057
-0.187702
-0.159136
-0.133081
-0.108496
-0.0845098
-0.0603538
-0.03532
-0.00871845
0.0201602
0.0520861
0.0879376
0.128761
0.175853
0.23087
0.295994
0.374167
0.469451
0.587547
0.736529
0.927894
1.17797
1.50834
1.94099
2.49108
3.15796
3.79444
-5.52067
-3.66081
-2.43095
-1.71417
-1.24179
-0.921811
-0.704864
-0.553965
-0.445488
-0.365205
-0.304183
-0.256567
-0.2184
-0.186918
-0.160128
-0.136536
-0.114989
-0.0945614
-0.0744768
-0.0540576
-0.0326789
-0.00973277
0.0154069
0.0434218
0.0750929
0.111358
0.153389
0.202709
0.261361
0.332188
0.41927
0.528671
0.669677
0.857071
1.11541
1.48391
2.01598
2.8054
4.12342
6.0914
-9.20662
-4.51956
-2.30623
-1.42119
-0.958939
-0.682903
-0.512248
-0.400576
-0.322909
-0.266409
-0.223886
-0.190908
-0.164566
-0.142852
-0.124309
-0.107838
-0.0925814
-0.0778393
-0.0630218
-0.0476078
-0.0311142
-0.0130701
0.00700966
0.0296507
0.0554517
0.0851256
0.119556
0.159882
0.207624
0.264891
0.334745
0.42185
0.533754
0.683742
0.897447
1.22411
1.75391
2.73325
5.06142
9.86893
)
;

boundaryField
{
    movingWall
    {
        type            zeroGradient;
    }
    fixedWalls
    {
        type            zeroGradient;
    }
    frontAndBack
    {
        type            empty;
    }
}


// ************************************************************************* //
