/*--------------------------------*- C++ -*----------------------------------*\
  =========                 |
  \\      /  F ield         | OpenFOAM: The Open Source CFD Toolbox
   \\    /   O peration     | Website:  https://openfoam.org
    \\  /    A nd           | Version:  7
     \\/     M anipulation  |
\*---------------------------------------------------------------------------*/
FoamFile
{
    version     2.0;
    format      ascii;
    class       volScalarField;
    location    "11.5";
    object      rho;
}
// * * * * * * * * * * * * * * * * * * * * * * * * * * * * * * * * * * * * * //

dimensions      [1 -3 0 0 0 0 0];

internalField   nonuniform List<scalar> 
2413
(
2.04244
2.03157
2.0217
2.01209
2.00238
1.99314
1.98398
1.97384
1.96459
1.95641
1.94778
1.93903
1.93046
1.9217
1.91246
1.90392
1.89613
1.88843
1.88055
1.87247
1.86411
1.85522
1.84627
1.83847
1.83114
1.82368
1.81644
1.80912
1.8016
1.79374
1.78688
1.78053
1.77404
1.76744
1.76075
1.75373
1.74634
1.73941
1.73304
1.72666
1.71985
1.71314
1.70645
1.69943
1.69247
1.68637
1.68044
1.67407
1.66735
1.66057
1.65357
1.64628
1.63917
1.63259
1.62654
1.62081
1.61545
1.60995
1.60482
1.60089
1.59764
1.59382
1.59135
1.59195
1.59473
1.59977
1.60772
1.61912
1.63001
1.64083
1.65372
1.66342
1.66822
1.67244
1.67872
1.68232
1.68299
1.68314
1.68299
1.32544
1.33397
1.34967
1.37812
1.4283
1.49035
1.53123
1.55185
1.55977
1.56378
1.56737
1.57396
1.59455
1.63695
1.71852
1.81476
1.90987
1.98223
2.00748
2.02276
2.02701
2.02693
2.02552
2.02018
2.01244
2.00272
1.9911
1.97927
1.96844
1.95827
1.94489
1.93948
1.94038
1.95264
2.0099
2.12858
2.2255
2.24718
2.24058
2.22384
2.20417
2.18728
2.1741
2.16332
2.15249
2.14088
2.12926
2.11746
2.10528
2.09409
2.08374
2.07338
2.06324
2.05261
2.04143
2.03094
2.02078
2.01069
2.00127
1.99203
1.98211
1.97295
1.96459
1.956
1.94758
1.93923
1.9306
1.92143
1.91241
1.90376
1.89491
1.88659
1.87891
1.87105
1.86266
1.85391
1.84559
1.83758
1.82996
1.82327
1.81646
1.80939
1.80194
1.79473
1.78765
1.78003
1.77197
1.76463
1.75797
1.75149
1.74545
1.7394
1.73292
1.72592
1.71904
1.71223
1.70517
1.69776
1.69076
1.68399
1.67694
1.66958
1.66261
1.65592
1.6492
1.64271
1.63688
1.63156
1.62607
1.62113
1.61632
1.61199
1.60917
1.60803
1.60858
1.6114
1.6187
1.62778
1.64049
1.65249
1.66252
1.67273
1.68287
1.68622
1.68736
1.68929
1.69098
1.69081
1.68847
1.68461
1.68205
1.68031
1.32122
1.32669
1.33708
1.35622
1.39402
1.45655
1.51709
1.55285
1.56452
1.56682
1.56832
1.57066
1.57356
1.5794
1.59963
1.64697
1.72669
1.82578
1.90775
1.97842
2.01224
2.01788
2.01875
2.01642
2.01204
2.00844
2.00235
1.99439
1.98527
1.97486
1.96196
1.95852
1.96306
1.99985
2.10736
2.2276
2.26775
2.26541
2.25137
2.23251
2.215
2.19945
2.18639
2.17513
2.16391
2.15233
2.14093
2.12924
2.11676
2.10476
2.09348
2.08243
2.07205
2.06163
2.05087
2.04049
2.03018
2.0198
2.00987
2.0002
1.9902
1.98083
1.97211
1.96302
1.95462
1.9467
1.93844
1.92977
1.92106
1.9123
1.90318
1.89431
1.8859
1.87742
1.86874
1.86043
1.8526
1.84475
1.83651
1.82893
1.82167
1.81451
1.80772
1.80117
1.79432
1.78686
1.77906
1.77172
1.76483
1.75771
1.75075
1.74404
1.73703
1.72939
1.72182
1.71479
1.7081
1.70137
1.69485
1.68814
1.68094
1.67333
1.66619
1.65952
1.65315
1.64666
1.6408
1.63643
1.6325
1.62935
1.62724
1.62653
1.62917
1.63416
1.64185
1.65377
1.66316
1.67623
1.68771
1.6928
1.70064
1.70427
1.70478
1.70469
1.7037
1.70142
1.69811
1.69395
1.68871
1.68368
1.67933
1.67541
1.31823
1.32155
1.32723
1.33921
1.36243
1.4121
1.48185
1.54406
1.57182
1.57647
1.57609
1.57581
1.57548
1.57681
1.57945
1.58619
1.60731
1.65839
1.73463
1.83518
1.9087
1.96177
1.99897
2.01151
2.01158
2.00815
2.00301
1.99839
1.99358
1.98636
1.97885
1.97853
1.99854
2.08316
2.22372
2.29124
2.29242
2.2796
2.25876
2.24039
2.22634
2.21323
2.20031
2.18805
2.17579
2.16327
2.15139
2.13985
2.12779
2.11571
2.10375
2.09173
2.08042
2.06964
2.05917
2.04943
2.0397
2.02956
2.01941
2.00934
1.99895
1.98921
1.98027
1.97104
1.96232
1.95412
1.94543
1.93624
1.92731
1.91859
1.90969
1.90115
1.89285
1.8844
1.87583
1.86765
1.85984
1.85201
1.84414
1.83664
1.82932
1.8219
1.81438
1.80687
1.79916
1.79124
1.78357
1.77647
1.76963
1.76256
1.75571
1.74926
1.74246
1.73497
1.72733
1.71994
1.71254
1.70493
1.6977
1.69074
1.6836
1.67605
1.66872
1.66285
1.65789
1.65294
1.64858
1.64628
1.64449
1.64596
1.64978
1.65842
1.6686
1.67841
1.69291
1.70107
1.70792
1.71894
1.72023
1.72041
1.72225
1.72128
1.71825
1.71479
1.71027
1.70462
1.69862
1.69262
1.68695
1.68189
1.67727
1.67248
1.31703
1.31873
1.32141
1.32753
1.34043
1.36864
1.42918
1.50637
1.56949
1.5884
1.59097
1.58984
1.58603
1.58266
1.58119
1.58251
1.5861
1.59488
1.61762
1.66923
1.74298
1.83316
1.90667
1.95048
1.98011
1.99664
2.00134
2.00054
1.99623
1.98992
1.98917
1.99861
2.05465
2.19154
2.30619
2.32505
2.31559
2.29514
2.27138
2.25216
2.23905
2.22649
2.2132
2.20012
2.18699
2.17386
2.16158
2.15008
2.13858
2.12695
2.115
2.10262
2.09065
2.07925
2.06808
2.05768
2.04765
2.0375
2.02749
2.0175
2.00718
1.9972
1.98778
1.97818
1.96937
1.96136
1.95304
1.94426
1.93535
1.92639
1.91712
1.90805
1.8994
1.89062
1.88161
1.87328
1.86554
1.8578
1.85039
1.84332
1.83616
1.82869
1.82094
1.81301
1.80499
1.79717
1.78975
1.7826
1.77552
1.76802
1.76004
1.75191
1.74362
1.73554
1.72842
1.72213
1.71567
1.70855
1.70134
1.69448
1.68772
1.68121
1.67476
1.6699
1.66641
1.66291
1.66294
1.66624
1.6727
1.6822
1.69355
1.70936
1.71791
1.72738
1.73833
1.73861
1.74008
1.74237
1.74071
1.73702
1.73332
1.7288
1.72296
1.7169
1.71081
1.70429
1.69832
1.69275
1.6871
1.68128
1.67579
1.67038
1.31696
1.31806
1.31931
1.32163
1.32737
1.34076
1.37447
1.44375
1.52617
1.58866
1.60766
1.60925
1.6064
1.59953
1.59219
1.5874
1.58762
1.59052
1.59558
1.60575
1.62904
1.6775
1.7486
1.82781
1.90051
1.93848
1.96428
1.97915
1.98898
1.99006
1.99498
2.02753
2.13751
2.29708
2.34993
2.34871
2.33273
2.3094
2.28699
2.26749
2.2531
2.23981
2.22645
2.21303
2.19939
2.1857
2.17227
2.15946
2.14697
2.13499
2.1233
2.11145
2.09995
2.08871
2.07734
2.0665
2.05603
2.04557
2.03554
2.02574
2.01574
2.00586
1.99634
1.9866
1.97705
1.96801
1.95872
1.94955
1.94094
1.93253
1.9239
1.91531
1.90696
1.89846
1.88965
1.88106
1.87291
1.86475
1.85703
1.84963
1.84199
1.8339
1.8256
1.81733
1.8092
1.80125
1.79372
1.78627
1.77874
1.77106
1.7632
1.7551
1.74698
1.73922
1.73204
1.7252
1.71844
1.71138
1.70471
1.6989
1.69335
1.68845
1.68353
1.68153
1.68401
1.68683
1.69548
1.7067
1.72076
1.73337
1.74374
1.75663
1.75939
1.76255
1.76505
1.76322
1.75962
1.75618
1.75137
1.74468
1.73763
1.73049
1.72307
1.7166
1.71071
1.70459
1.69859
1.69278
1.68672
1.68041
1.67465
1.66926
1.31778
1.31834
1.31923
1.32038
1.3221
1.32672
1.34125
1.37834
1.45462
1.54188
1.61203
1.62827
1.62875
1.62413
1.61502
1.60476
1.59757
1.59558
1.59649
1.60082
1.60678
1.61689
1.64029
1.68411
1.74881
1.81768
1.89134
1.92694
1.95079
1.96846
1.99036
2.0609
2.23125
2.36855
2.38418
2.37466
2.35182
2.32709
2.30548
2.28687
2.2704
2.25424
2.23869
2.22405
2.20965
2.19575
2.18228
2.16918
2.15639
2.14426
2.13255
2.12082
2.10947
2.0983
2.08693
2.07579
2.06476
2.0536
2.04277
2.03236
2.02221
2.01259
2.0034
1.99412
1.98488
1.97584
1.96658
1.95731
1.94832
1.93945
1.93027
1.921
1.91186
1.90255
1.89374
1.88609
1.87884
1.8712
1.86353
1.85598
1.8481
1.83971
1.83103
1.82227
1.81366
1.80545
1.79781
1.7902
1.78226
1.77399
1.76578
1.75761
1.74969
1.74208
1.73501
1.7281
1.72189
1.71571
1.71008
1.70636
1.70357
1.70259
1.7035
1.71046
1.71976
1.73074
1.74813
1.75832
1.77096
1.77988
1.78287
1.78677
1.78574
1.78301
1.77984
1.77492
1.76854
1.76164
1.75457
1.74731
1.74035
1.73346
1.72603
1.71882
1.7121
1.70539
1.69885
1.69291
1.68704
1.68084
1.67491
1.66945
1.31967
1.31971
1.31985
1.32026
1.32113
1.32246
1.32708
1.34142
1.38038
1.45988
1.55865
1.63231
1.64863
1.64946
1.6448
1.63351
1.62008
1.6109
1.60563
1.60414
1.60539
1.60998
1.61693
1.62612
1.64791
1.68714
1.74551
1.80845
1.87044
1.91643
1.97061
2.08469
2.28497
2.3933
2.39455
2.38268
2.36471
2.34569
2.32726
2.30882
2.29019
2.27198
2.25475
2.23821
2.22227
2.20755
2.19383
2.18049
2.16709
2.15384
2.14112
2.12876
2.11728
2.10632
2.09536
2.0845
2.07358
2.06243
2.05162
2.04116
2.03087
2.0209
2.01123
2.00139
1.99142
1.98157
1.9718
1.96262
1.95398
1.94549
1.93668
1.92773
1.91883
1.90976
1.90063
1.89219
1.88421
1.87624
1.86825
1.86023
1.85169
1.84279
1.8344
1.82632
1.81822
1.81
1.80182
1.79362
1.78512
1.77644
1.76828
1.76049
1.75305
1.74576
1.73926
1.7335
1.72851
1.72477
1.72049
1.72073
1.7262
1.73244
1.74412
1.76067
1.77091
1.78698
1.79796
1.80053
1.80627
1.80864
1.80639
1.80274
1.79854
1.79288
1.78632
1.77899
1.77107
1.76333
1.75598
1.74892
1.74224
1.73572
1.72875
1.72149
1.71446
1.70745
1.7005
1.69432
1.68848
1.68233
1.67633
1.6708
1.32292
1.32233
1.32213
1.32203
1.32221
1.32261
1.32359
1.3273
1.34079
1.38203
1.4642
1.56976
1.64305
1.67524
1.6747
1.66789
1.65447
1.63976
1.62947
1.62109
1.61607
1.61549
1.61725
1.62161
1.62727
1.63578
1.6531
1.68665
1.73665
1.80411
1.90553
2.08236
2.29312
2.38582
2.38596
2.37205
2.35696
2.34609
2.33633
2.32386
2.3077
2.29023
2.27255
2.25431
2.23639
2.22016
2.20559
2.19183
2.17853
2.16528
2.1523
2.13949
2.1272
2.11541
2.1038
2.09236
2.08104
2.06928
2.05775
2.0471
2.03723
2.02787
2.01878
2.00949
1.9998
1.98985
1.97971
1.96999
1.96085
1.95189
1.94244
1.9326
1.92301
1.9141
1.90571
1.89788
1.89002
1.882
1.87374
1.86537
1.85661
1.84733
1.83819
1.82934
1.82074
1.81264
1.80474
1.79667
1.78829
1.77955
1.77136
1.76389
1.7575
1.75129
1.74665
1.74254
1.74127
1.74332
1.74692
1.75807
1.77001
1.78252
1.80181
1.81136
1.81871
1.82933
1.83058
1.82781
1.82637
1.82364
1.81823
1.81105
1.80372
1.79605
1.78835
1.78092
1.77352
1.76609
1.7587
1.75128
1.74409
1.73735
1.73065
1.72394
1.7173
1.71046
1.70325
1.6965
1.69028
1.68402
1.67811
1.67286
1.32778
1.32674
1.32627
1.32556
1.32479
1.32387
1.32335
1.32367
1.32655
1.33984
1.37629
1.46158
1.56968
1.64852
1.68963
1.68968
1.68527
1.67506
1.66157
1.64769
1.63756
1.6315
1.62994
1.63045
1.63103
1.6337
1.63896
1.64762
1.66491
1.71058
1.81846
2.01705
2.20783
2.3057
2.33508
2.34224
2.34593
2.34342
2.33717
2.32773
2.31604
2.30265
2.28733
2.27042
2.25355
2.23754
2.22195
2.2058
2.1895
2.174
2.16061
2.1485
2.13659
2.12476
2.11299
2.10114
2.08937
2.07751
2.06594
2.05487
2.04443
2.03435
2.02416
2.01356
2.00339
1.99428
1.9856
1.97692
1.96815
1.95924
1.94973
1.93973
1.92978
1.92008
1.91046
1.90138
1.89263
1.88401
1.87554
1.86729
1.85912
1.8508
1.84216
1.83346
1.82447
1.81563
1.80715
1.79866
1.79064
1.78296
1.77552
1.76929
1.76433
1.76142
1.76041
1.76343
1.77204
1.78107
1.79672
1.8135
1.82333
1.83811
1.84724
1.84853
1.85053
1.85123
1.84865
1.84264
1.83618
1.82903
1.82104
1.81329
1.80583
1.79832
1.79093
1.78371
1.77645
1.76915
1.7619
1.75466
1.74752
1.74061
1.73362
1.72657
1.71977
1.71308
1.70629
1.69978
1.69365
1.68737
1.68088
1.67479
1.33277
1.33152
1.33038
1.32908
1.3275
1.3255
1.32399
1.32254
1.32267
1.32537
1.33538
1.37176
1.45116
1.56702
1.65249
1.69591
1.70569
1.70422
1.69621
1.68366
1.67117
1.65976
1.65139
1.64635
1.6425
1.64213
1.6447
1.65093
1.66541
1.70673
1.81116
1.95588
2.07971
2.16718
2.23917
2.27261
2.30033
2.31078
2.31455
2.31307
2.30674
2.29788
2.28654
2.27469
2.26359
2.25213
2.23885
2.22239
2.20481
2.18813
2.17355
2.15995
2.1467
2.13409
2.12194
2.1095
2.09646
2.08314
2.07128
2.06069
2.05093
2.0414
2.03151
2.02095
2.01044
2.00055
1.99102
1.98152
1.97192
1.9621
1.95219
1.94247
1.93315
1.92398
1.91458
1.90536
1.8964
1.88768
1.879
1.87029
1.8611
1.85193
1.84303
1.83475
1.82647
1.81805
1.80992
1.80212
1.79513
1.78943
1.7842
1.77925
1.7806
1.78446
1.7919
1.80875
1.82251
1.83695
1.8558
1.86228
1.86791
1.87482
1.87518
1.87239
1.86857
1.86307
1.8564
1.84777
1.83877
1.83033
1.82231
1.81461
1.80704
1.7997
1.7928
1.78624
1.77962
1.77276
1.76568
1.75825
1.7507
1.74342
1.73632
1.72928
1.72244
1.71581
1.70927
1.70309
1.69727
1.69135
1.68493
1.67844
1.33583
1.3338
1.33211
1.32988
1.32817
1.3262
1.32418
1.32197
1.31976
1.31965
1.32146
1.33151
1.36135
1.43311
1.54375
1.64622
1.69924
1.70884
1.70886
1.70661
1.70147
1.69442
1.68544
1.67717
1.66881
1.66168
1.66055
1.6635
1.68161
1.74715
1.86482
1.95656
2.00224
2.03831
2.08647
2.13606
2.19134
2.23392
2.26579
2.29005
2.29074
2.28527
2.27626
2.26873
2.26042
2.25005
2.23771
2.22588
2.21332
2.19952
2.1862
2.17264
2.15915
2.1462
2.13339
2.12012
2.10637
2.0927
2.08049
2.06937
2.05846
2.0472
2.03623
2.02604
2.01655
2.00709
1.99734
1.98714
1.97681
1.96645
1.95634
1.94635
1.93657
1.92708
1.91777
1.90884
1.90003
1.89127
1.88213
1.87296
1.86341
1.85404
1.84524
1.83674
1.82884
1.8215
1.81452
1.80843
1.80292
1.80002
1.80037
1.805
1.81775
1.83021
1.85013
1.86834
1.87689
1.88961
1.8973
1.89629
1.89494
1.89303
1.88933
1.88317
1.87557
1.86682
1.85762
1.84866
1.84009
1.83218
1.82481
1.81766
1.81048
1.80325
1.79606
1.78911
1.78235
1.7756
1.76874
1.76144
1.75373
1.74608
1.73899
1.73253
1.72627
1.71987
1.71321
1.70654
1.69998
1.6935
1.68741
1.68178
1.33753
1.33518
1.3335
1.33105
1.32877
1.32689
1.32434
1.32193
1.31897
1.31772
1.31784
1.3199
1.32696
1.35018
1.41548
1.51861
1.63221
1.67689
1.69688
1.70353
1.70408
1.70341
1.70203
1.69878
1.69298
1.68745
1.68452
1.68801
1.72232
1.82598
1.94385
1.98054
1.99071
1.9904
1.99646
2.01386
2.04813
2.09957
2.14969
2.20208
2.22625
2.24434
2.25772
2.25948
2.25623
2.24552
2.23265
2.22183
2.21213
2.20201
2.19041
2.17793
2.16553
2.15316
2.13949
2.12543
2.11297
2.10195
2.09149
2.08059
2.06873
2.05604
2.04354
2.03165
2.02028
2.0093
1.99904
1.98907
1.97929
1.96951
1.95982
1.95011
1.94049
1.93108
1.92174
1.91262
1.90337
1.89401
1.88415
1.87411
1.86427
1.85496
1.84711
1.84007
1.83329
1.82823
1.82346
1.8194
1.82133
1.82666
1.83744
1.85796
1.87382
1.89024
1.91027
1.9154
1.91755
1.92101
1.92007
1.91581
1.90965
1.90213
1.89338
1.88478
1.87641
1.86812
1.85975
1.85131
1.84289
1.83503
1.82777
1.82084
1.81405
1.80709
1.7998
1.79236
1.78496
1.77781
1.77117
1.76457
1.75744
1.74984
1.74219
1.73504
1.7286
1.72285
1.71729
1.71131
1.70497
1.69845
1.69168
1.68457
1.3386
1.33619
1.33436
1.33201
1.32923
1.32731
1.32476
1.32201
1.31922
1.31643
1.31613
1.31647
1.31775
1.32286
1.34254
1.39081
1.48555
1.58361
1.65187
1.69097
1.69939
1.70048
1.70155
1.70221
1.70065
1.6995
1.69992
1.71511
1.78277
1.91859
1.9975
2.00094
1.99632
1.98762
1.97896
1.9718
1.97385
1.98725
2.01494
2.05879
2.10716
2.15016
2.18881
2.2058
2.21974
2.22686
2.22477
2.21979
2.21087
2.20097
2.19022
2.17958
2.16865
2.15644
2.14307
2.12968
2.11717
2.10514
2.09324
2.08126
2.06996
2.05899
2.04807
2.03658
2.02473
2.01302
2.00214
1.99197
1.9823
1.97292
1.96371
1.95471
1.94588
1.9371
1.92789
1.91805
1.90746
1.89639
1.88566
1.87572
1.86689
1.85907
1.85212
1.84717
1.84255
1.83993
1.84104
1.84836
1.86213
1.87741
1.90112
1.91897
1.92849
1.94063
1.9462
1.94376
1.93856
1.93573
1.9308
1.92351
1.91553
1.90698
1.89775
1.88817
1.87845
1.86965
1.86195
1.85443
1.84651
1.83852
1.83071
1.82318
1.81657
1.81065
1.80453
1.79764
1.79003
1.78185
1.77351
1.76585
1.75909
1.75293
1.74671
1.74006
1.7332
1.72622
1.71923
1.71243
1.70582
1.69928
1.69276
1.68623
1.33798
1.3354
1.33318
1.33063
1.32778
1.32541
1.32281
1.31947
1.31685
1.31386
1.31225
1.31257
1.31283
1.31376
1.31885
1.33387
1.37399
1.44548
1.52865
1.60533
1.6431
1.67032
1.68795
1.69752
1.70033
1.7016
1.70802
1.74517
1.8539
1.99053
2.02421
2.02181
2.0112
1.99474
1.97936
1.96874
1.96067
1.95291
1.95087
1.95922
1.98121
2.01369
2.05877
2.09901
2.13915
2.16429
2.17761
2.19066
2.19161
2.18847
2.18078
2.17222
2.16298
2.15179
2.13979
2.13005
2.12036
2.10942
2.09719
2.08404
2.07057
2.0578
2.04603
2.03527
2.02535
2.01579
2.00626
1.99647
1.9863
1.97612
1.96591
1.95604
1.94653
1.93729
1.92796
1.91822
1.90822
1.89814
1.88845
1.87971
1.87209
1.86632
1.86082
1.85833
1.86164
1.8686
1.88318
1.90572
1.92234
1.94152
1.96117
1.96451
1.96355
1.96431
1.96321
1.95784
1.95038
1.94213
1.93386
1.92588
1.91821
1.91017
1.90145
1.89203
1.88212
1.87247
1.86405
1.85679
1.85023
1.84361
1.83642
1.82878
1.82114
1.81343
1.80554
1.79799
1.791
1.78421
1.7772
1.77008
1.76294
1.75552
1.74809
1.74102
1.73408
1.72728
1.72087
1.71473
1.70858
1.70218
1.69539
1.68828
1.33694
1.33414
1.33182
1.32885
1.32592
1.32329
1.32035
1.31694
1.31376
1.31093
1.30859
1.30836
1.30878
1.30888
1.31169
1.3209
1.33759
1.36589
1.40884
1.46974
1.53004
1.59037
1.63218
1.65847
1.67712
1.68627
1.70573
1.77604
1.92556
2.03095
2.04053
2.03556
2.02157
2.00274
1.98467
1.9703
1.95908
1.94931
1.94085
1.93245
1.9287
1.93156
1.94401
1.96814
2.00282
2.04407
2.07869
2.1154
2.13314
2.14587
2.1555
2.15457
2.14843
2.1379
2.12973
2.12333
2.11481
2.10492
2.09541
2.08536
2.07361
2.06132
2.04908
2.03756
2.02692
2.01664
2.00663
1.99695
1.98719
1.97743
1.96751
1.95771
1.94773
1.9374
1.92664
1.91635
1.90666
1.89813
1.8906
1.88514
1.87951
1.87677
1.87872
1.88887
1.90464
1.92319
1.95045
1.96813
1.97835
1.98938
1.99232
1.98918
1.98269
1.9778
1.97232
1.96483
1.95609
1.947
1.93776
1.92845
1.91917
1.91005
1.90146
1.89321
1.88491
1.87663
1.86868
1.86087
1.85297
1.84527
1.83784
1.8304
1.82297
1.81551
1.80792
1.8004
1.7929
1.78529
1.77788
1.77086
1.76397
1.75707
1.75034
1.74376
1.73717
1.7305
1.72377
1.71688
1.70987
1.70289
1.69598
1.68908
1.33471
1.33169
1.32928
1.32623
1.3231
1.32046
1.31741
1.31401
1.31085
1.30789
1.30565
1.30543
1.30608
1.30647
1.30906
1.31729
1.33298
1.35173
1.36894
1.39011
1.41947
1.46216
1.51646
1.57073
1.62799
1.65468
1.69622
1.80557
1.98167
2.0487
2.0495
2.03953
2.02257
2.00384
1.98667
1.97232
1.96012
1.94921
1.93873
1.92845
1.91906
1.91061
1.90343
1.90112
1.90783
1.92489
1.94969
1.98434
2.02148
2.05411
2.0845
2.0974
2.10817
2.11677
2.11826
2.11465
2.10381
2.09384
2.08702
2.07883
2.06952
2.06057
2.0506
2.03953
2.02797
2.01663
2.00545
1.99499
1.98517
1.97584
1.96628
1.95662
1.94627
1.93565
1.92491
1.91549
1.90672
1.90064
1.89485
1.89344
1.89733
1.90599
1.9245
1.9482
1.96733
1.9908
2.00565
2.00845
2.01035
2.01026
2.00793
2.00198
1.99343
1.98311
1.97292
1.96356
1.95447
1.94564
1.93712
1.92869
1.92014
1.91158
1.90335
1.89539
1.88747
1.87963
1.87187
1.86389
1.85576
1.84799
1.8405
1.83286
1.82512
1.81738
1.80955
1.80172
1.79408
1.78664
1.77941
1.77235
1.76524
1.758
1.75099
1.7443
1.73774
1.7312
1.72464
1.71785
1.71084
1.70376
1.69678
1.6899
1.33315
1.33009
1.32772
1.3249
1.32186
1.31938
1.31648
1.31314
1.31018
1.30717
1.30476
1.30464
1.30545
1.30584
1.30802
1.31557
1.33099
1.35081
1.36681
1.37436
1.3801
1.39059
1.4148
1.45242
1.50666
1.56732
1.65111
1.8193
2.01381
2.05736
2.05376
2.03974
2.01945
1.99983
1.98411
1.97147
1.95994
1.94868
1.93722
1.92648
1.91619
1.90654
1.89706
1.88821
1.87998
1.87362
1.87537
1.8829
1.90126
1.92751
1.96168
1.99449
2.02649
2.05104
2.06433
2.07605
2.0821
2.08152
2.07658
2.06562
2.05766
2.05147
2.04337
2.03483
2.0256
2.01537
2.00414
1.99305
1.98228
1.97228
1.96188
1.9517
1.94155
1.93242
1.92366
1.91675
1.91015
1.9069
1.9104
1.92325
1.94019
1.96388
1.99246
2.00772
2.02109
2.03366
2.03565
2.0322
2.0265
2.02039
2.0129
2.00363
1.99375
1.98322
1.97247
1.96259
1.95365
1.9454
1.93746
1.92934
1.92079
1.91206
1.90369
1.8958
1.88814
1.88054
1.8729
1.86497
1.85678
1.84871
1.84079
1.83287
1.82506
1.81744
1.8098
1.80214
1.79465
1.78727
1.77997
1.77278
1.76562
1.7584
1.75137
1.74461
1.73788
1.73115
1.72452
1.71779
1.71089
1.70391
1.69699
1.69013
1.33314
1.33012
1.32778
1.32515
1.32228
1.31997
1.31733
1.31421
1.31137
1.30824
1.30563
1.30529
1.30568
1.30581
1.30755
1.31442
1.32912
1.34987
1.36803
1.37413
1.37568
1.37684
1.38054
1.39066
1.41365
1.46193
1.55374
1.75329
1.98193
2.03881
2.036
2.02539
2.0109
1.99452
1.98112
1.97019
1.95926
1.94759
1.93551
1.92416
1.91372
1.90381
1.89384
1.88436
1.87461
1.86531
1.85677
1.84828
1.84511
1.84851
1.85881
1.87832
1.90513
1.93822
1.96786
1.99765
2.01851
2.02938
2.04006
2.04491
2.04421
2.03917
2.03015
2.02366
2.01657
2.00825
1.99942
1.99014
1.9797
1.96913
1.95798
1.9472
1.93767
1.93017
1.92412
1.92164
1.92521
1.93536
1.95738
1.98146
2.00499
2.02908
2.04146
2.04923
2.05201
2.05158
2.04755
2.03978
2.03003
2.01971
)
;

boundaryField
{
    inlet
    {
        type            calculated;
        value           nonuniform 0();
    }
    outlet
    {
        type            calculated;
        value           nonuniform 0();
    }
    bottom
    {
        type            symmetryPlane;
    }
    top
    {
        type            symmetryPlane;
    }
    obstacle
    {
        type            calculated;
        value           nonuniform 0();
    }
    front
    {
        type            empty;
    }
    back
    {
        type            empty;
    }
    procBoundary46to38
    {
        type            processor;
        value           nonuniform List<scalar> 
133
(
2.03225
2.02274
2.01379
2.00448
1.99452
1.98468
1.97516
1.96511
1.9561
1.94801
1.93939
1.93025
1.92164
1.91314
1.90424
1.89608
1.88844
1.88051
1.87211
1.86391
1.85587
1.8475
1.83925
1.83203
1.82475
1.8171
1.80972
1.80251
1.79538
1.788
1.78099
1.77417
1.7671
1.7598
1.75276
1.74566
1.73836
1.73205
1.7264
1.72062
1.71441
1.7084
1.70239
1.69596
1.68909
1.68229
1.67556
1.66871
1.66222
1.65637
1.65047
1.64407
1.63759
1.63114
1.62474
1.61846
1.61234
1.60619
1.60082
1.5963
1.59225
1.58819
1.58433
1.58179
1.57954
1.57785
1.57888
1.58201
1.58863
1.59878
1.60984
1.62172
1.63661
1.64718
1.65611
1.6656
1.67412
1.6811
1.6848
1.33061
1.34269
1.36466
1.40226
1.45894
1.51136
1.5398
1.55334
1.56046
1.56962
1.59
1.63225
1.7108
1.80271
1.91054
1.97164
2.0083
2.02879
2.03805
2.03911
2.03644
2.0294
2.0195
2.00759
1.99543
1.98343
1.97224
1.96147
1.95287
1.94537
1.93593
1.92601
1.92329
1.92566
1.9462
2.02149
2.14166
2.21528
2.22328
2.21363
2.19541
2.17708
2.16178
2.1502
2.1395
2.12822
2.11735
2.10653
2.09557
2.08529
2.07496
2.06405
2.05332
2.05332
)
;
    }
    procBoundary46to39
    {
        type            processor;
        value           uniform 1.68366;
    }
    procBoundary46to45
    {
        type            processor;
        value           nonuniform List<scalar> 
17
(
1.32022
1.31731
1.31579
1.31577
1.31611
1.31761
1.32
1.32401
1.32925
1.33454
1.33833
1.34015
1.34128
1.34098
1.34003
1.33779
1.33601
)
;
    }
    procBoundary46to47
    {
        type            processor;
        value           nonuniform List<scalar> 
17
(
1.6785
1.6719
1.66756
1.66507
1.66399
1.66404
1.66525
1.66755
1.66897
1.6721
1.6761
1.67737
1.67966
1.68109
1.68215
1.68303
1.6833
)
;
    }
    procBoundary46to53
    {
        type            processor;
        value           uniform 1.33581;
    }
    procBoundary46to54
    {
        type            processor;
        value           nonuniform List<scalar> 
133
(
2.00998
2.00032
1.99057
1.98092
1.97148
1.96249
1.95382
1.94535
1.93702
1.92862
1.92008
1.91159
1.90349
1.8958
1.88824
1.88056
1.87267
1.86445
1.85601
1.84777
1.83975
1.83182
1.82409
1.81667
1.80934
1.80201
1.79473
1.78739
1.77999
1.77267
1.76541
1.75815
1.75104
1.74412
1.73722
1.73033
1.72364
1.71703
1.71032
1.70355
1.69678
1.68998
1.33467
1.33154
1.3291
1.32664
1.32357
1.32129
1.319
1.3161
1.31339
1.31049
1.30754
1.30694
1.307
1.30674
1.30784
1.3137
1.32772
1.34891
1.36917
1.37499
1.37616
1.37726
1.37863
1.38148
1.38954
1.41251
1.47841
1.6342
1.86319
1.98227
2.01492
2.01313
2.00271
1.99089
1.97944
1.96811
1.95638
1.94399
1.93157
1.92003
1.90987
1.90042
1.89087
1.88145
1.87184
1.86215
1.85244
1.8434
1.8346
1.82727
1.82193
1.82044
1.82532
1.83729
1.85645
1.88154
1.91331
1.9407
1.96735
1.98429
1.99598
2.0059
2.00877
2.00745
2.00018
1.99252
1.98667
1.97992
1.97149
1.96294
1.95453
1.94644
1.9382
1.93323
1.93572
1.94824
1.96587
1.99431
2.02194
2.0404
2.06109
2.07074
2.07005
2.06767
2.0631
2.05663
2.04863
2.03885
2.02808
2.00998
2.01688
)
;
    }
}


// ************************************************************************* //
