/*--------------------------------*- C++ -*----------------------------------*\
  =========                 |
  \\      /  F ield         | OpenFOAM: The Open Source CFD Toolbox
   \\    /   O peration     | Website:  https://openfoam.org
    \\  /    A nd           | Version:  7
     \\/     M anipulation  |
\*---------------------------------------------------------------------------*/
FoamFile
{
    version     2.0;
    format      ascii;
    class       surfaceScalarField;
    location    "101";
    object      phi;
}
// * * * * * * * * * * * * * * * * * * * * * * * * * * * * * * * * * * * * * //

dimensions      [0 3 -1 0 0 0 0];

internalField   nonuniform List<scalar> 
30080
(
-0.000429846
-0.00813773
0.00856757
-8.23824e-05
-0.0184641
0.0181167
0.000982067
-0.0146905
0.0136261
0.00268333
0.00374442
-0.00544568
0.00416822
0.0130182
-0.0145031
0.00503434
0.0183526
-0.0192188
0.00501582
0.0227276
-0.0227091
0.00589478
0.0195348
-0.0204138
0.0082716
0.00527801
-0.00765483
0.0109224
-0.0097806
0.0071298
0.0124449
-0.0177873
0.0162648
0.0129986
-0.0242026
0.0236489
0.0144286
-0.0276947
0.0262647
0.0169789
-0.0167589
0.0142086
0.00116464
-0.00310562
0.0189198
-0.000418522
-0.0077192
-0.000152883
-0.0187298
0.000691711
-0.0155351
0.00242946
0.00200667
0.00399271
0.011455
0.00489608
0.0174493
0.00500756
0.0226161
0.00627687
0.0182655
0.00876308
0.00279181
0.0112607
-0.0122782
0.0127786
-0.0193052
0.0131335
-0.0245575
0.0141266
-0.0286878
0.0161694
-0.0188017
-0.000643503
0.0179776
-0.00040733
-0.00731187
-0.000209268
-0.0189278
0.000422902
-0.0161673
0.00220723
0.000222343
0.00383889
0.00982333
0.00474236
0.0165458
0.00507357
0.0222849
0.00685211
0.016487
0.00946096
0.000182956
0.0116519
-0.0144692
0.0130481
-0.0207014
0.0131974
-0.0247068
0.0135764
-0.0290668
0.0150191
-0.0202444
-0.00238894
0.0167645
-0.000393852
-0.00691802
-0.00024443
-0.0190773
0.000195288
-0.016607
0.0020283
-0.00161067
0.0037035
0.00814813
0.00457223
0.0156771
0.00518585
0.0216713
0.00748205
0.0141908
0.0102137
-0.00254867
0.0120587
-0.0163142
0.0132362
-0.0218789
0.0132514
-0.024722
0.0128941
-0.0287094
0.0136404
-0.0209907
-0.00419833
0.0154498
-0.000375703
-0.00654232
-0.000249281
-0.0192037
2.20266e-05
-0.0168783
0.00189713
-0.00348577
0.00357223
0.00647303
0.00438623
0.0148631
0.00533341
0.0207241
0.00808507
0.0114391
0.0109054
-0.00536899
0.0124573
-0.0178661
0.0133531
-0.0227747
0.0133227
-0.0246916
0.0121976
-0.0275843
0.0120907
-0.0208838
-0.00620936
0.0141017
-0.000351093
-0.00619123
-0.000216574
-0.0193382
-5.84675e-05
-0.0170364
0.00179977
-0.00534401
0.0034272
0.0048456
0.00418585
0.0141044
0.00555149
0.0193585
0.00870479
0.0082858
0.011517
-0.00818125
0.0128358
-0.0191848
0.0134305
-0.0233693
0.0133871
-0.0246482
0.0116613
-0.0258586
0.0106336
-0.0198561
-0.00848107
0.0129053
-0.00031899
-0.00587224
-0.000143975
-0.0195132
-8.98519e-05
-0.0170906
0.00170076
-0.00713462
0.00324791
0.00329845
0.00398302
0.0133693
0.00588261
0.0174589
0.00939747
0.00477094
0.0120617
-0.0108455
0.0131727
-0.0202958
0.0135112
-0.0237079
0.0134249
-0.0245618
0.0115814
-0.0240151
0.0100138
-0.0182884
-0.0108003
0.012333
-0.000278888
-0.00559335
-3.04735e-05
-0.0197616
-9.7237e-05
-0.0170238
0.00155663
-0.00878849
0.00300493
0.00185015
0.00380715
0.0125671
0.00634329
0.0149228
0.0101194
0.000994839
0.0125235
-0.0132497
0.0134314
-0.0212037
0.0136086
-0.0238851
0.0134547
-0.0244079
0.0121496
-0.02271
0.0110421
-0.0171809
-0.0128685
0.0131103
-0.000230477
-0.00536287
8.97926e-05
-0.0200819
-9.00118e-05
-0.016844
0.00134044
-0.0102189
0.00266191
0.000528677
0.00370258
0.0115264
0.00694833
0.011677
0.0107816
-0.00283846
0.0128684
-0.0153364
0.0135732
-0.0219085
0.0136909
-0.0240028
0.0134877
-0.0242047
0.0130612
-0.0222835
0.0132531
-0.0173729
-0.0148672
0.0152518
-0.000172308
-0.00519056
0.000218705
-0.0204729
-5.36412e-05
-0.0165716
0.00106941
-0.011342
0.00220992
-0.000611835
0.00373075
0.0100056
0.00769841
0.00770935
0.0113277
-0.00646771
0.0130706
-0.0170794
0.0135894
-0.0224273
0.0137099
-0.0241234
0.0135741
-0.0240688
0.0138054
-0.0225147
0.0150279
-0.0185954
-0.0170366
0.0171973
-0.000101465
-0.0050891
0.000360756
-0.0209351
5.36484e-05
-0.0162645
0.000815612
-0.012104
0.00175531
-0.00155153
0.00400074
0.00776016
0.00851043
0.00319966
0.0117213
-0.00967855
0.0131126
-0.0184707
0.0134992
-0.0228139
0.0136471
-0.0242712
0.0137319
-0.0241536
0.0142586
-0.0230414
0.0156533
-0.0199902
-0.0191923
0.0178089
-1.31427e-05
-0.00507596
0.000511698
-0.02146
0.000279645
-0.0160325
0.000700756
-0.0125251
0.00157299
-0.00242376
0.00463924
0.0046939
0.00923671
-0.00139781
0.0119191
-0.0123609
0.0129931
-0.0195447
0.0133236
-0.0231444
0.0135279
-0.0244755
0.0138277
-0.0244535
0.014482
-0.0236957
0.0158288
-0.021337
-0.02115
0.0177865
8.5921e-05
-0.00516188
0.000668476
-0.0220425
0.000586676
-0.0159507
0.000859313
-0.0127977
0.00192761
-0.00349206
0.00560588
0.00101563
0.00975082
-0.00554274
0.011896
-0.0145061
0.012738
-0.0203867
0.0130741
-0.0234805
0.0133691
-0.0247705
0.0138049
-0.0248893
0.0145726
-0.0244635
0.0160383
-0.0228027
-0.0229545
0.0178429
0.000203349
-0.00536523
0.000826854
-0.022666
0.000932451
-0.0160563
0.00132974
-0.013195
0.00278818
-0.0049505
0.00659573
-0.00279193
0.00998127
-0.00892828
0.0116691
-0.016194
0.0123859
-0.0211034
0.0127697
-0.0238643
0.0131605
-0.0251613
0.0137217
-0.0254505
0.0145811
-0.0253228
0.0160538
-0.0242753
-0.0246629
0.0177621
0.000339137
-0.00570436
0.00098243
-0.0233093
0.00126461
-0.0163385
0.00196172
-0.0138921
0.00379748
-0.00678626
0.00726277
-0.00625721
0.00991848
-0.011584
0.0112955
-0.0175711
0.011974
-0.0217819
0.0124318
-0.0243221
0.0129115
-0.025641
0.0135793
-0.0261183
0.0144978
-0.0262413
0.0159103
-0.0256878
-0.0262817
0.017529
0.000489355
-0.00619372
0.00113079
-0.0239508
0.00155798
-0.0167657
0.00252254
-0.0148567
0.00455562
-0.00881934
0.00749914
-0.00920074
0.00963397
-0.0137188
0.0108444
-0.0187815
0.0115369
-0.0224744
0.0120713
-0.0248566
0.0126329
-0.0262025
0.0133737
-0.0268592
0.0143302
-0.0271977
0.015721
-0.0270787
-0.027827
0.0172664
0.000646841
-0.00684056
0.00126678
-0.0245707
0.0018097
-0.0173086
0.00290169
-0.0159487
0.00493147
-0.0108491
0.00742092
-0.0116902
0.00923975
-0.0155377
0.0103709
-0.0199126
0.011095
-0.0231986
0.0116956
-0.0254572
0.0123241
-0.026831
0.0131197
-0.0276547
0.0140947
-0.0281728
0.0154431
-0.028427
-0.0292921
0.0169083
0.000801457
-0.00764202
0.00138604
-0.0251553
0.0020172
-0.0179397
0.00312968
-0.0170612
0.00504764
-0.0127671
0.00720189
-0.0138444
0.00881873
-0.0171545
0.00990288
-0.0209968
0.010655
-0.0239507
0.0113082
-0.0261103
0.011989
-0.0275119
0.0128175
-0.0284833
0.0138027
-0.029158
0.0151096
-0.029734
-0.0306765
0.016494
0.000942004
-0.00858402
0.00148574
-0.025699
0.00217796
-0.0186319
0.00326519
-0.0181484
0.00504132
-0.0145432
0.00693894
-0.0157421
0.00840245
-0.018618
0.00944691
-0.0220412
0.0102184
-0.0247222
0.01091
-0.026802
0.0116299
-0.0282317
0.0124741
-0.0293275
0.013466
-0.0301499
0.0147231
-0.030991
-0.0319799
0.0160265
0.00105918
-0.0096432
0.00156455
-0.0262044
0.00229348
-0.0193609
0.00333887
-0.0191938
0.00496992
-0.0161742
0.00665964
-0.0174318
0.00799714
-0.0199555
0.0090035
-0.0230476
0.00978499
-0.0255036
0.0105026
-0.0275195
0.0112469
-0.028976
0.0120969
-0.0301775
0.0130881
-0.0311411
0.014277
-0.0321799
-0.033229
0.015526
0.00114805
-0.0107912
0.00162255
-0.0266789
0.00236761
-0.0201059
0.00336517
-0.0201913
0.00485475
-0.0176638
0.00637284
-0.0189499
0.00760358
-0.0211862
0.00857133
-0.0240153
0.00935349
-0.0262858
0.0100856
-0.0282516
0.0108417
-0.0297321
0.0116899
-0.0310257
0.0126697
-0.0321209
0.0137892
-0.0332994
-0.0344893
0.0150495
0.00120876
-0.012
0.00166122
-0.0271314
0.00240521
-0.0208499
0.00335475
-0.0211409
0.00470934
-0.0190184
0.00608345
-0.020324
0.00722104
-0.0223238
0.00814881
-0.0249431
0.00892344
-0.0270604
0.00965975
-0.028988
0.0104173
-0.0304897
0.0112576
-0.0318659
0.0122108
-0.0330741
0.0132874
-0.034376
-0.0356944
0.0144925
0.00124483
-0.0132448
0.00168279
-0.0275693
0.00241096
-0.0215781
0.00331555
-0.0220455
0.00454206
-0.0202449
0.00579291
-0.0215748
0.00684723
-0.0233781
0.00773351
-0.0258294
0.00849343
-0.0278204
0.0092249
-0.0297194
0.0099751
-0.0312399
0.0107995
-0.0326904
0.0117231
-0.0339977
0.0127562
-0.0354091
-0.0368302
0.013892
0.00126096
-0.0145058
0.00168879
-0.0279971
0.00238911
-0.0222784
0.00324911
-0.0229055
0.00435826
-0.0213541
0.00550154
-0.0227181
0.00648001
-0.0243566
0.00732343
-0.0266728
0.00806247
-0.0285594
0.00878116
-0.0304381
0.0095165
-0.0319753
0.0103194
-0.0334933
0.011209
-0.0348873
0.0121906
-0.0363907
-0.0379127
0.013273
0.00126136
-0.0157672
0.00167607
-0.0284119
0.00234313
-0.0229455
0.00315653
-0.0237189
0.0041614
-0.0223589
0.00520928
-0.023766
0.00611747
-0.0252648
0.00691678
-0.0274721
0.00762973
-0.0292723
0.00832872
-0.0311371
0.00904296
-0.0326895
0.00981907
-0.0342694
0.0106675
-0.0357357
0.0116041
-0.0373273
-0.0389323
0.0126238
0.00124917
-0.0170163
0.00164664
-0.0288093
0.00227858
-0.0235774
0.00304329
-0.0244836
0.00395577
-0.0232714
0.00491601
-0.0247262
0.00575797
-0.0261068
0.00651194
-0.0282261
0.00719448
-0.0299549
0.0078679
-0.0318105
0.00855578
-0.0333774
0.00929895
-0.0350125
0.0101072
-0.0365439
0.0109903
-0.0382105
-0.0398911
0.0119491
0.00122666
-0.018243
0.00160322
-0.0291859
0.00220095
-0.0241752
0.00291343
-0.0251961
0.00374417
-0.0241022
0.00462161
-0.0256037
0.00540021
-0.0268854
0.00610763
-0.0289335
0.00675617
-0.0306034
0.00739907
-0.0324534
0.00805564
-0.0340339
0.0087628
-0.0357197
0.00952445
-0.0373056
0.010356
-0.039042
-0.040789
0.0112539
0.00119554
-0.0194385
0.0015479
-0.0295383
0.00211193
-0.0247392
0.00276988
-0.025854
0.00352653
-0.0248588
0.00432588
-0.026403
0.00504322
-0.0276027
0.00570306
-0.0295933
0.00631444
-0.0312148
0.00692255
-0.0330615
0.00754407
-0.0346555
0.00821019
-0.0363858
0.00892532
-0.0380207
0.00970152
-0.0398182
-0.0416241
0.0105366
0.00115713
-0.0205956
0.00148233
-0.0298635
0.00201246
-0.0252693
0.00261485
-0.0264564
0.00330317
-0.0255471
0.00402858
-0.0271284
0.0046863
-0.0282604
0.00529762
-0.0302047
0.0058691
-0.0317863
0.00643891
-0.0336313
0.00702149
-0.0352381
0.00764417
-0.0370085
0.00830905
-0.0386856
0.00902887
-0.040538
-0.0423971
0.00980189
0.00111255
-0.0217082
0.0014079
-0.0301588
0.0019036
-0.025765
0.00245009
-0.0270029
0.00307455
-0.0261716
0.00372951
-0.0277834
0.00432898
-0.0288599
0.00489089
-0.0307666
0.0054201
-0.0323155
0.00594849
-0.0341597
0.00648928
-0.0357788
0.00706513
-0.0375844
0.00767836
-0.0392988
0.00834044
-0.0412001
-0.0431063
0.00904963
0.00106273
-0.0227709
0.00132583
-0.0304219
0.00178647
-0.0262257
0.00227702
-0.0274934
0.00284122
-0.0267358
0.00342854
-0.0283707
0.00397095
-0.0294023
0.00448262
-0.0312782
0.00496747
-0.0328003
0.00545192
-0.0346442
0.00594803
-0.036275
0.00647488
-0.0381112
0.0070346
-0.0398585
0.00763715
-0.0418026
-0.0437513
0.00828213
0.00100846
-0.0237794
0.00123714
-0.0306506
0.00166212
-0.0266506
0.00209683
-0.0279281
0.00260369
-0.0272427
0.00312564
-0.0288926
0.00361201
-0.0298887
0.00407266
-0.0317389
0.00451141
-0.0332391
0.00494966
-0.0350824
0.00539881
-0.0367241
0.00587455
-0.0385869
0.0063789
-0.0403629
0.00692113
-0.0423449
-0.0443311
0.00750094
0.000950434
-0.0247298
0.00114277
-0.0308429
0.0015315
-0.0270394
0.00191051
-0.0283072
0.00236249
-0.0276947
0.00282082
-0.029351
0.00325208
-0.03032
0.00366101
-0.0321478
0.00405216
-0.0336302
0.0044423
-0.0354726
0.00484249
-0.0371243
0.00526522
-0.0390097
0.00571312
-0.0408108
0.00619352
-0.0428253
-0.0448447
0.00670715
0.000889266
-0.0256191
0.00104349
-0.0309971
0.00139548
-0.0273914
0.00171894
-0.0286306
0.00211808
-0.0280938
0.00251417
-0.0297471
0.00289119
-0.030697
0.00324775
-0.0325044
0.00359007
-0.0339725
0.00393043
-0.0358129
0.00427992
-0.0374738
0.00464822
-0.039378
0.00503805
-0.0412006
0.00545595
-0.0432432
-0.0452916
0.00590286
0.000825493
-0.0264446
0.000939992
-0.0311116
0.00125486
-0.0277062
0.00152284
-0.0288986
0.00187095
-0.0284419
0.00220584
-0.0300819
0.00252945
-0.0310206
0.00283302
-0.032808
0.00312554
-0.0342651
0.00341466
-0.0361021
0.00371206
-0.0377712
0.00402436
-0.0396903
0.00435536
-0.0415316
0.00470978
-0.0435976
-0.0456708
0.0050889
0.000759594
-0.0272042
0.000832856
-0.0311849
0.00111036
-0.0279837
0.00132283
-0.0291111
0.00162161
-0.0287407
0.00189595
-0.0303563
0.0021671
-0.0312917
0.00241702
-0.0330579
0.00265903
-0.0345071
0.00289562
-0.0363387
0.00313967
-0.0380152
0.00339488
-0.0399455
0.00366592
-0.0418027
0.00395628
-0.043888
-0.0459817
0.00426722
0.000692005
-0.0278962
0.000722545
-0.0312154
0.000962744
-0.0282239
0.00111938
-0.0292677
0.00137062
-0.0289919
0.00158465
-0.0305703
0.00180446
-0.0315115
0.00200001
-0.0332534
0.00219096
-0.034698
0.00237404
-0.0365217
0.00256361
-0.0382048
0.00276067
-0.0401425
0.00297104
-0.042013
0.00319659
-0.0441135
-0.0462238
0.00343867
0.000623125
-0.0285193
0.000609408
-0.0312017
0.000812717
-0.0284272
0.000912893
-0.0293679
0.00111849
-0.0291975
0.00127215
-0.030724
0.00144178
-0.0316812
0.00158238
-0.033394
0.00172167
-0.0348373
0.00185072
-0.0366508
0.00198453
-0.0383386
0.00212297
-0.040281
0.00227159
-0.0421617
0.00243156
-0.0442735
-0.0463965
0.00260429
0.000553322
-0.0290726
0.000493684
-0.0311421
0.000660944
-0.0285945
0.000703708
-0.0294106
0.000865584
-0.0293594
0.000958823
-0.0308172
0.00107917
-0.0318015
0.00116472
-0.0334796
0.00125148
-0.0349241
0.0013264
-0.0367257
0.00140332
-0.0384155
0.00148275
-0.0403604
0.00156868
-0.0422476
0.00166233
-0.0443671
-0.0464993
0.00176508
0.000482926
-0.0295556
0.000375465
-0.0310346
0.000508023
-0.0287271
0.000491948
-0.0293946
0.000612369
-0.0294798
0.000644988
-0.0308498
0.000716989
-0.0318735
0.000747296
-0.0335099
0.000781239
-0.034958
0.000801321
-0.0367458
0.000821343
-0.0384356
0.000840592
-0.0403796
0.000863946
-0.0422709
0.00089077
-0.0443939
-0.0465301
0.000921653
0.000412194
-0.0299677
0.000254271
-0.0308767
0.000354625
-0.0288274
0.000276482
-0.0293164
0.000360137
-0.0295635
0.000329252
-0.0308189
0.00035685
-0.0319011
0.000328459
-0.0334815
0.000312865
-0.0349424
0.000274153
-0.0367071
0.000240587
-0.038402
0.000195182
-0.0403342
0.000159233
-0.042235
0.000118435
-0.0443531
-0.0464846
7.2918e-05
0.000341582
-0.0303093
0.000128172
-0.0306633
0.000202711
-0.028902
5.06845e-05
-0.0291644
0.000113687
-0.0296265
-1.44585e-06
-0.0307038
8.59405e-06
-0.0319112
-9.09971e-05
-0.0333819
-0.000153499
-0.0348799
-0.000249348
-0.0366112
-0.000341279
-0.0383101
-0.000445029
-0.0402305
-0.000547034
-0.042133
-0.000654955
-0.0442452
-0.046371
-0.000768567
0.000271481
-0.0305808
-1.08768e-05
-0.0303809
5.68533e-05
-0.0289697
-0.000146061
-0.0289615
-0.000145481
-0.0296271
-0.000288182
-0.0305611
-0.000365994
-0.0318334
-0.000494634
-0.0332533
-0.000624309
-0.0347502
-0.000767411
-0.0364681
-0.000922876
-0.0381546
-0.00108326
-0.0400701
-0.00125172
-0.0419645
-0.00142688
-0.0440701
-0.0461879
-0.00160999
0.000202426
-0.0307832
-0.000102986
-0.0300755
-0.000112094
-0.0289606
-0.000338907
-0.0287347
-0.000414989
-0.029551
-0.000585594
-0.0303905
-0.000729503
-0.0316894
-0.000900783
-0.033082
-0.00108931
-0.0345617
-0.00128545
-0.036272
-0.00150003
-0.03794
-0.00172064
-0.0398495
-0.00195311
-0.0417321
-0.00219581
-0.0438274
-0.0459342
-0.0024495
0.00013531
-0.0309185
-0.000203086
-0.0297371
-0.000287923
-0.0288757
-0.00053476
-0.0284878
-0.000677663
-0.0294081
-0.000884188
-0.030184
-0.00108765
-0.031486
-0.00130638
-0.0328633
-0.00154948
-0.0343186
-0.0018015
-0.03602
-0.0020728
-0.0376687
-0.00235527
-0.039567
-0.00265082
-0.0414365
-0.0029607
-0.0435175
-0.0456099
-0.00328499
7.12417e-05
-0.0309898
-0.000305998
-0.0293599
-0.000457143
-0.0287246
-0.000731556
-0.0282134
-0.000935918
-0.0292037
-0.00118234
-0.0299375
-0.00144098
-0.0312273
-0.00171001
-0.0325943
-0.00200496
-0.0340236
-0.00231409
-0.0357109
-0.00264099
-0.0373418
-0.00298553
-0.0392225
-0.00334386
-0.0410782
-0.00372041
-0.0431409
-0.0452153
-0.00411502
1.35895e-05
-0.0310034
-0.000409944
-0.0289364
-0.000622651
-0.0285119
-0.000928369
-0.0279077
-0.00119005
-0.028942
-0.00147906
-0.0296485
-0.00178963
-0.0309168
-0.00211052
-0.0322734
-0.0024559
-0.0336783
-0.00282189
-0.0353449
-0.00320422
-0.0369595
-0.00360996
-0.0388167
-0.00403104
-0.0406571
-0.00447381
-0.0426982
-0.0447512
-0.00493789
-7.53112e-05
-0.0309281
-0.000514378
-0.0284973
-0.000785039
-0.0282412
-0.00112449
-0.0275682
-0.00144023
-0.0286263
-0.00177355
-0.0293152
-0.00213361
-0.0305567
-0.00250682
-0.0319001
-0.00290215
-0.0332829
-0.00332395
-0.0349231
-0.00376184
-0.0365216
-0.00422755
-0.038351
-0.00471101
-0.0401736
-0.00521956
-0.0421896
-0.0442185
-0.00575232
-0.000157865
-0.0307702
-0.000618184
-0.028037
-0.000944397
-0.027915
-0.00131936
-0.0271933
-0.00168637
-0.0282593
-0.00206506
-0.0289365
-0.00247283
-0.0301489
-0.00289801
-0.031475
-0.00334331
-0.0328376
-0.00381951
-0.0344469
-0.00431297
-0.0360281
-0.00483745
-0.0378265
-0.00538263
-0.0396285
-0.00595635
-0.0416159
-0.0436178
-0.006557
-0.000234454
-0.0305357
-0.000721282
-0.0275501
-0.00110068
-0.0275356
-0.00151247
-0.0267815
-0.00192837
-0.0278434
-0.00235293
-0.028512
-0.00280715
-0.0296947
-0.00328334
-0.0309988
-0.00377869
-0.0323423
-0.00430798
-0.0339176
-0.00485663
-0.0354795
-0.00543891
-0.0372443
-0.00604485
-0.0390225
-0.00668291
-0.0409778
-0.0429503
-0.00735042
-0.000307467
-0.0302283
-0.000823355
-0.0270343
-0.00125384
-0.0271051
-0.00170332
-0.026332
-0.00216609
-0.0273806
-0.00263652
-0.0280415
-0.0031363
-0.0291949
-0.00366224
-0.0304728
-0.0042075
-0.031797
-0.00478877
-0.0333363
-0.0053919
-0.0348764
-0.00603104
-0.0366051
-0.00669667
-0.0383569
-0.00739804
-0.0402765
-0.0422176
-0.00813072
-0.000377673
-0.0298506
-0.000924157
-0.0264878
-0.00140375
-0.0266255
-0.0018915
-0.0258443
-0.00239933
-0.0268728
-0.00291527
-0.0275256
-0.00345991
-0.0286503
-0.00403424
-0.0298985
-0.00462897
-0.0312023
-0.00526123
-0.032704
-0.00591794
-0.0342196
-0.00661294
-0.0359101
-0.00733703
-0.0376328
-0.00810028
-0.0395132
-0.041422
-0.00889591
-0.000445404
-0.0294052
-0.00102346
-0.0259097
-0.0015503
-0.0260987
-0.00207657
-0.025318
-0.00262788
-0.0263215
-0.00318866
-0.0269648
-0.00377755
-0.0280614
-0.0043989
-0.0292772
-0.00504238
-0.0305588
-0.00572472
-0.0320217
-0.00643401
-0.0335104
-0.00718373
-0.0351604
-0.00796486
-0.0368517
-0.00878812
-0.0386899
-0.0405649
-0.0096452
-0.000510818
-0.0288944
-0.00112103
-0.0252995
-0.00169337
-0.0255263
-0.00225814
-0.0247532
-0.00285152
-0.0257281
-0.00345622
-0.0263601
-0.0040887
-0.0274289
-0.00475575
-0.0286101
-0.00544708
-0.0298675
-0.00617858
-0.0312902
-0.00693943
-0.0327495
-0.00774265
-0.0343572
-0.00857932
-0.036015
-0.00946058
-0.0378087
-0.0396458
-0.0103797
-0.000573995
-0.0283204
-0.00121669
-0.0246568
-0.00183283
-0.0249102
-0.00243584
-0.0241502
-0.00306999
-0.025094
-0.0037175
-0.0257126
-0.00439284
-0.0267536
-0.00510435
-0.0278986
-0.00584248
-0.0291293
-0.00662212
-0.0305106
-0.00743351
-0.0319381
-0.0082891
-0.0335016
-0.0091801
-0.035124
-0.0101182
-0.0368705
-0.0386629
-0.0111011
-0.000634969
-0.0276854
-0.00131022
-0.0239816
-0.00196852
-0.0242519
-0.00260931
-0.0235094
-0.00328302
-0.0244202
-0.0039721
-0.0250235
-0.00468946
-0.0260362
-0.00544418
-0.0271439
-0.00622799
-0.0283455
-0.00705468
-0.0296839
-0.00791551
-0.0310773
-0.00882243
-0.0325947
-0.00976706
-0.0341794
-0.0107621
-0.0358755
-0.0376201
-0.0118049
-0.000693746
-0.0269917
-0.00140145
-0.0232739
-0.00210031
-0.023553
-0.00277823
-0.0228315
-0.00349033
-0.0237081
-0.00421965
-0.0242942
-0.00497807
-0.0252778
-0.00577477
-0.0263472
-0.00660306
-0.0275172
-0.00747558
-0.0288114
-0.00838464
-0.0301682
-0.00934179
-0.0316375
-0.0103394
-0.0331818
-0.0113895
-0.0348255
-0.0365328
-0.0124768
-0.000750316
-0.0262414
-0.00149019
-0.022534
-0.00222805
-0.0228152
-0.00294228
-0.0221173
-0.00369162
-0.0229588
-0.00445978
-0.0235261
-0.00525819
-0.0244794
-0.00609561
-0.0255098
-0.00696715
-0.0266457
-0.0078842
-0.0278943
-0.00884013
-0.0292123
-0.00984621
-0.0306315
-0.0108953
-0.0321327
-0.0119948
-0.033726
-0.0354044
-0.0131232
-0.000804657
-0.0254367
-0.00157629
-0.0217623
-0.00235158
-0.0220399
-0.00310116
-0.0213677
-0.0038866
-0.0221734
-0.00469217
-0.0227205
-0.00552939
-0.0236422
-0.00640624
-0.0246329
-0.00731969
-0.0257322
-0.00827987
-0.0269341
-0.00928125
-0.0282109
-0.0103347
-0.029578
-0.0114336
-0.0310338
-0.0125818
-0.0325778
-0.0342202
-0.0137659
-0.000856739
-0.02458
-0.00165958
-0.0209595
-0.00247076
-0.0212287
-0.00325461
-0.0205838
-0.00407496
-0.021353
-0.00491647
-0.021879
-0.00579123
-0.0227674
-0.00670617
-0.023718
-0.00766013
-0.0247783
-0.00866189
-0.0259324
-0.00970717
-0.0271656
-0.0108063
-0.0284788
-0.0119545
-0.0298857
-0.0131686
-0.0313637
-0.032973
-0.0144158
-0.000906562
-0.0236734
-0.00173996
-0.0201261
-0.00258551
-0.0203832
-0.00340247
-0.0197669
-0.00425653
-0.0204989
-0.00513252
-0.021003
-0.00604351
-0.0218564
-0.00699518
-0.0227663
-0.00798817
-0.0237853
-0.00902994
-0.0248906
-0.0101175
-0.0260781
-0.0112608
-0.0273355
-0.0124558
-0.0286906
-0.0137134
-0.030106
-0.0316188
-0.0150677
-0.000954021
-0.0227194
-0.00181717
-0.019263
-0.00269552
-0.0195048
-0.00354426
-0.0189181
-0.00443075
-0.0196125
-0.00533968
-0.0200941
-0.00628546
-0.0209106
-0.00727236
-0.0217794
-0.00830279
-0.0227549
-0.00938289
-0.0238105
-0.010511
-0.0249499
-0.0116964
-0.0261502
-0.0129355
-0.0274516
-0.0142442
-0.0287973
-0.0302318
-0.0156311
-0.000999113
-0.0217203
-0.00189112
-0.018371
-0.00280071
-0.0185952
-0.00367989
-0.0180389
-0.00459747
-0.0186949
-0.00553782
-0.0191537
-0.00651691
-0.0199316
-0.00753752
-0.0207588
-0.00860375
-0.0216886
-0.00972051
-0.0226937
-0.0108877
-0.0237827
-0.0121143
-0.0249236
-0.0133987
-0.0261672
-0.0147555
-0.0274405
-0.0288094
-0.016178
-0.0010418
-0.0206785
-0.00196169
-0.0174511
-0.00290093
-0.017656
-0.00380912
-0.0171308
-0.00475641
-0.0177476
-0.00572664
-0.0181835
-0.0067375
-0.0189207
-0.00779024
-0.0197061
-0.00889056
-0.0205883
-0.0100422
-0.0215421
-0.0112466
-0.0225783
-0.0125119
-0.0236583
-0.0138378
-0.0248413
-0.0152364
-0.0260418
-0.0273455
-0.0167003
-0.00108204
-0.0195964
-0.00202874
-0.0165044
-0.00299605
-0.0166887
-0.00393175
-0.0161951
-0.00490732
-0.016772
-0.00590586
-0.0171849
-0.0069469
-0.0178797
-0.00803013
-0.0186228
-0.00916284
-0.0194556
-0.0103477
-0.0203572
-0.0115876
-0.0213384
-0.01289
-0.0223559
-0.0142551
-0.0234763
-0.0156923
-0.0246046
-0.0258412
-0.0171967
-0.00111979
-0.0184766
-0.00209214
-0.015532
-0.00308591
-0.0156949
-0.00404759
-0.0152334
-0.00504994
-0.0157697
-0.00607521
-0.0161597
-0.00714477
-0.0168101
-0.00825682
-0.0175108
-0.00942013
-0.0182923
-0.0106364
-0.0191409
-0.0119099
-0.0200649
-0.013247
-0.0210187
-0.0146486
-0.0220747
-0.016123
-0.0231302
-0.0242979
-0.0176662
-0.00115503
-0.0173216
-0.00215178
-0.0145353
-0.00317037
-0.0146763
-0.00415646
-0.0142473
-0.00518403
-0.0147421
-0.00623442
-0.0151093
-0.00733082
-0.0157137
-0.00846996
-0.0163717
-0.00966206
-0.0171002
-0.0109079
-0.0178951
-0.012213
-0.0187599
-0.0135828
-0.0196489
-0.0150184
-0.0206391
-0.0165274
-0.0216212
-0.0227176
-0.0181077
-0.00118771
-0.0161339
-0.00220755
-0.0135154
-0.0032493
-0.0136346
-0.00425819
-0.0132384
-0.00530939
-0.0136909
-0.00638325
-0.0140354
-0.00750476
-0.0145922
-0.00866923
-0.0152072
-0.00988829
-0.0158811
-0.0111618
-0.0166216
-0.0124963
-0.0174254
-0.0138963
-0.0182488
-0.0153638
-0.0191716
-0.0169056
-0.0200794
-0.0211029
-0.0185204
-0.00121781
-0.0149161
-0.00225933
-0.0124739
-0.00332256
-0.0125713
-0.00435261
-0.0122083
-0.0054258
-0.0126177
-0.00652148
-0.0129397
-0.00766632
-0.0134473
-0.00885433
-0.0140192
-0.0100985
-0.014637
-0.0113977
-0.0153223
-0.0127597
-0.0160635
-0.0141878
-0.0168207
-0.0156846
-0.0176748
-0.0172567
-0.0185073
-0.0194559
-0.0189037
-0.00124531
-0.0136708
-0.00230704
-0.0114122
-0.00339004
-0.0114883
-0.00443958
-0.0111588
-0.00553308
-0.0115242
-0.00664889
-0.0118239
-0.00781524
-0.012281
-0.00902497
-0.0128094
-0.0102922
-0.0133698
-0.0116152
-0.0139993
-0.0130023
-0.0146764
-0.0144563
-0.0153666
-0.0159804
-0.0161507
-0.0175805
-0.0169072
-0.0177793
-0.0192571
-0.00127017
-0.0124006
-0.00235057
-0.0103318
-0.00345161
-0.0103873
-0.00451897
-0.0100914
-0.00563105
-0.0104121
-0.00676527
-0.0106897
-0.00795131
-0.011095
-0.00918093
-0.0115798
-0.0104693
-0.0120814
-0.0118141
-0.0126546
-0.0132242
-0.0132663
-0.0147017
-0.013889
-0.0162506
-0.0146019
-0.0178762
-0.0152816
-0.0160756
-0.01958
-0.00129239
-0.0111082
-0.00238984
-0.00923432
-0.00350717
-0.00926998
-0.00459064
-0.00900796
-0.00571956
-0.00928321
-0.00687046
-0.00953881
-0.0080743
-0.00989111
-0.00932192
-0.0103322
-0.0106294
-0.0107738
-0.0119938
-0.0112902
-0.0134247
-0.0118354
-0.0149237
-0.0123901
-0.016495
-0.0130306
-0.0181437
-0.0136329
-0.0143473
-0.0198719
-0.00131203
-0.00979619
-0.00242478
-0.00812157
-0.00355662
-0.00813814
-0.00465449
-0.0079101
-0.00579845
-0.00813924
-0.00696428
-0.00837298
-0.00818404
-0.00867135
-0.00944777
-0.00906847
-0.0107724
-0.0094492
-0.0121543
-0.00990832
-0.0136038
-0.0103859
-0.0151217
-0.0108722
-0.0167131
-0.0114393
-0.0183824
-0.0119636
-0.0125972
-0.0201325
-0.00132923
-0.00846695
-0.00245531
-0.0069955
-0.00359987
-0.00699358
-0.0047104
-0.00679957
-0.0058676
-0.00698204
-0.00704658
-0.007194
-0.00828035
-0.00743758
-0.00955827
-0.00779055
-0.0108979
-0.00810952
-0.0122953
-0.00851095
-0.0137611
-0.00892011
-0.0152957
-0.00933753
-0.0169047
-0.00983034
-0.018592
-0.0102762
-0.0108279
-0.0203613
-0.0013439
-0.00712305
-0.00248136
-0.00585804
-0.00363683
-0.00583811
-0.00475828
-0.00567812
-0.0059269
-0.00581342
-0.00711725
-0.00600366
-0.00836308
-0.00619174
-0.00965326
-0.00650037
-0.0110059
-0.0067569
-0.0124166
-0.00710026
-0.0138964
-0.0074403
-0.0154454
-0.00778852
-0.0170694
-0.00820628
-0.0187723
-0.00857336
-0.00904207
-0.0205581
-0.00135596
-0.00576709
-0.00250289
-0.00471111
-0.00366743
-0.00467356
-0.00479806
-0.0045475
-0.00597625
-0.00463522
-0.00717616
-0.00480374
-0.00843211
-0.00493579
-0.00973259
-0.00519989
-0.0110961
-0.00539343
-0.0125179
-0.0056784
-0.0140095
-0.00594875
-0.0155705
-0.00622749
-0.0172072
-0.00656954
-0.018923
-0.00685755
-0.00724245
-0.0207227
-0.00136535
-0.00440174
-0.00251983
-0.00355663
-0.00369161
-0.00350178
-0.00482966
-0.00340944
-0.00601557
-0.00344932
-0.00722323
-0.00359608
-0.00848733
-0.00367169
-0.00979615
-0.00389108
-0.0111683
-0.00402124
-0.0125992
-0.00424753
-0.0141002
-0.00444778
-0.0156709
-0.0046568
-0.0173178
-0.00492263
-0.019044
-0.00513135
-0.00543162
-0.0208548
-0.00137202
-0.00302972
-0.00253215
-0.00239651
-0.00370931
-0.00232462
-0.00485304
-0.00226571
-0.00604478
-0.00225758
-0.00725839
-0.00238247
-0.00852866
-0.00240142
-0.00984383
-0.0025759
-0.0112226
-0.00264248
-0.0126603
-0.00280982
-0.0141684
-0.0029397
-0.0157464
-0.00307882
-0.017401
-0.00326803
-0.019135
-0.00339731
-0.00361237
-0.0209543
-0.00137592
-0.0016538
-0.0025398
-0.00123263
-0.00372049
-0.00114393
-0.00486815
-0.00111806
-0.00606385
-0.00106187
-0.00728157
-0.00116475
-0.00855602
-0.00112697
-0.00987558
-0.00125635
-0.0112588
-0.00125927
-0.0127012
-0.00136745
-0.014214
-0.00142684
-0.0157969
-0.00149593
-0.0174567
-0.00160824
-0.019196
-0.00165801
-0.00178797
-0.0210204
-0.00137704
-0.00027676
-0.00254277
-6.68978e-05
-0.00372512
3.84337e-05
-0.00487495
3.17642e-05
-0.00607274
0.000135918
-0.00729275
5.52574e-05
-0.00856939
0.00014966
-0.00989133
6.55969e-05
-0.0112768
0.000126227
-0.0127217
7.7398e-05
-0.014237
8.84815e-05
-0.0158225
8.95367e-05
-0.017485
5.42706e-05
-0.0192269
8.39374e-05
3.97753e-05
-0.0210547
-0.00137534
0.00109858
-0.00254103
0.00109879
-0.00372318
0.00122059
-0.00487343
0.00118201
-0.00607142
0.00133391
-0.00729189
0.00127573
-0.00856872
0.00142649
-0.00989106
0.00138793
-0.0112767
0.00151186
-0.0127218
0.00152253
-0.0142373
0.00160392
-0.0158229
0.00167517
-0.0174856
0.00171699
-0.0192277
0.001826
0.00186796
-0.0210559
-0.00137082
0.0024694
-0.00253457
0.00226254
-0.00371466
0.00240068
-0.00486357
0.00233092
-0.00605989
0.00253023
-0.007279
0.00249484
-0.00855403
0.00270152
-0.00987477
0.00270867
-0.0112584
0.00289549
-0.0127016
0.00296576
-0.0142148
0.00311714
-0.0157982
0.00325856
-0.0174586
0.00337738
-0.0191983
0.00356565
0.00369361
-0.0210239
-0.00136347
0.00383287
-0.00252339
0.00342246
-0.00369956
0.00357684
-0.0048454
0.00347677
-0.00603817
0.003723
-0.00725409
0.00371076
-0.00852535
0.00397278
-0.0098425
0.00402582
-0.011222
0.00427497
-0.0126611
0.00440489
-0.0141698
0.00462581
-0.0157485
0.00483733
-0.0174041
0.00503295
-0.0191387
0.00530028
0.00551407
-0.0209592
-0.0013533
0.00518617
-0.00250751
0.00457667
-0.00367789
0.00474722
-0.00481894
0.00461782
-0.00600629
0.00491035
-0.00721721
0.00492168
-0.00848271
0.00523828
-0.00979429
0.0053374
-0.0111675
0.00564815
-0.0126003
0.00583774
-0.0141021
0.00612762
-0.0156739
0.00640908
-0.0173221
0.0066812
-0.0190492
0.0070273
0.00732647
-0.0208616
-0.00134032
0.00652649
-0.00248693
0.00572328
-0.00364969
0.00590997
-0.00478421
0.00575234
-0.0059643
0.00609045
-0.00716839
0.00612577
-0.00842619
0.00649607
-0.00973022
0.00664143
-0.011095
0.00701292
-0.0125194
0.00726214
-0.014012
0.00762023
-0.0155744
0.00797145
-0.0172128
0.0083196
-0.0189296
0.00874411
0.00912808
-0.0207312
-0.00132455
0.00785105
-0.00246169
0.00686042
-0.00361498
0.00706326
-0.00474125
0.00687862
-0.00591225
0.00726144
-0.00710773
0.00732125
-0.00835587
0.00774421
-0.00965038
0.00793594
-0.0110046
0.00836717
-0.0124184
0.00867591
-0.0138995
0.00910135
-0.0154501
0.00952204
-0.0170762
0.00994567
-0.0187801
0.0104481
0.0109161
-0.0205682
-0.00130602
0.00915707
-0.00243181
0.00798621
-0.00357381
0.00820526
-0.00469014
0.00799495
-0.00585023
0.00842153
-0.00703532
0.00850634
-0.00827186
0.00898075
-0.00955491
0.00921899
-0.0108965
0.00970881
-0.0122975
0.0100769
-0.0137649
0.0105687
-0.0153013
0.0110585
-0.0169126
0.0115569
-0.0186011
0.0121366
0.0126878
-0.0203728
-0.00128477
0.0104418
-0.00239733
0.00909876