/*--------------------------------*- C++ -*----------------------------------*\
  =========                 |
  \\      /  F ield         | OpenFOAM: The Open Source CFD Toolbox
   \\    /   O peration     | Website:  https://openfoam.org
    \\  /    A nd           | Version:  7
     \\/     M anipulation  |
\*---------------------------------------------------------------------------*/
FoamFile
{
    version     2.0;
    format      ascii;
    class       surfaceScalarField;
    location    "0.729";
    object      phi;
}
// * * * * * * * * * * * * * * * * * * * * * * * * * * * * * * * * * * * * * //

dimensions      [0 3 -1 0 0 0 0];

internalField   nonuniform List<scalar> 
18389
(
-7.97573e-05
7.97573e-05
4.34478e-05
-4.34478e-05
-5.20445e-05
5.20445e-05
4.00983e-05
-4.00983e-05
-5.17922e-05
5.17922e-05
-3.98665e-05
3.98665e-05
-3.4652e-05
3.4652e-05
3.90259e-05
-3.90259e-05
-3.55557e-05
3.55557e-05
4.13834e-05
-4.13834e-05
4.45491e-05
-4.45491e-05
-3.44333e-05
3.44333e-05
-1.33184e-05
1.33184e-05
-4.28428e-05
4.28428e-05
4.33941e-05
-4.33941e-05
2.33791e-05
-2.33791e-05
1.75691e-05
-1.75691e-05
4.58886e-05
-4.58886e-05
4.59174e-05
-4.59174e-05
4.33169e-05
-4.33169e-05
-4.25998e-05
4.25998e-05
3.57394e-05
-3.57394e-05
4.2993e-05
-4.2993e-05
-5.85701e-05
5.85701e-05
-4.97451e-05
4.97451e-05
-4.17667e-05
4.17667e-05
-4.4535e-05
4.4535e-05
4.56183e-05
-4.56182e-05
4.58487e-05
-4.58486e-05
4.41314e-05
-4.41313e-05
-4.13331e-05
4.13331e-05
-6.30712e-05
6.30712e-05
4.31158e-05
-4.31158e-05
-4.47367e-05
4.47367e-05
4.08594e-05
-4.08594e-05
4.66884e-05
-4.66884e-05
-4.55425e-05
4.55425e-05
5.35899e-05
-5.35899e-05
-5.88548e-05
5.88549e-05
3.78674e-05
-3.78674e-05
4.48577e-05
-4.48577e-05
4.53815e-05
-4.53815e-05
-4.10127e-05
4.10127e-05
4.49018e-05
-4.49018e-05
4.58602e-05
-4.58602e-05
-4.58442e-05
4.58442e-05
-4.58436e-05
4.58436e-05
-4.06579e-05
4.06579e-05
-4.58785e-05
4.58785e-05
4.59327e-05
-4.59327e-05
4.59501e-05
-4.59501e-05
4.46177e-05
-4.46177e-05
3.77327e-05
-3.77327e-05
-4.57596e-05
4.57597e-05
-5.55438e-05
5.55439e-05
-4.38131e-05
4.38131e-05
4.57525e-05
-4.57525e-05
-4.5995e-05
4.5995e-05
4.32268e-05
-4.32268e-05
-5.93179e-05
5.93179e-05
-4.71459e-05
4.71459e-05
4.96058e-05
-4.96058e-05
4.57297e-05
-4.57297e-05
-9.09089e-06
9.0909e-06
4.57743e-05
-4.57743e-05
4.15538e-05
-4.15538e-05
5.1204e-05
-5.1204e-05
-4.58692e-05
4.58692e-05
4.23189e-05
-4.23189e-05
3.11897e-05
-3.11897e-05
6.80195e-07
-6.80195e-07
-4.41013e-05
4.41013e-05
3.28688e-05
-3.28688e-05
-3.65663e-05
3.65663e-05
3.96946e-05
-3.96946e-05
2.66256e-05
-2.66256e-05
2.61991e-05
-2.61991e-05
2.70488e-05
-2.70488e-05
2.43981e-05
-2.43981e-05
1.31199e-05
-1.31199e-05
0.00107603
-0.000880687
-0.00019534
0.00546632
-0.00207516
-0.00339116
-0.00594644
0.00594644
6.65699e-09
0.00335447
-0.00259953
-0.000754943
-0.00155509
0.00176719
-0.000212098
-0.00676166
0.00283682
0.00392485
0.00121465
0.00425168
0.0072559
-0.00587598
-0.00137991
0.00119779
-0.00191843
0.000720641
-0.000862836
-0.000692261
-0.00144214
-0.000314626
0.00175677
0.000135278
4.84417e-06
-0.000140123
0.000778569
-0.00222071
-0.00360297
0.000122498
0.00348046
-0.00320263
0.00289294
0.000309695
-0.00570807
0.00725063
-0.00154256
-0.00370919
0.00289715
0.000812034
-0.00056328
-0.00303969
-0.00174921
0.00238892
-0.000639704
-0.000463679
0.00255845
-0.00209477
-0.00161134
0.00111202
0.000499308
0.000583529
0.00058183
-0.00159901
-0.00516266
0.00128569
-0.00180545
0.000519757
0.00578082
-0.00386146
-0.00191935
-0.000665902
0.0033101
-0.0026442
-0.00583499
0.00583491
0.00048085
0.00128635
-0.006338
0.000973
0.005365
0.00232095
-0.00298685
-0.0037895
0.00311396
0.000675542
0.00214815
-0.0042233
0.00108725
-0.000203117
-0.000884135
0.00150584
-0.00129064
-0.000215196
-0.00280254
-0.00040008
0.00535181
-0.0053505
0.000371987
0.00113385
0.00522766
-0.00133695
-0.00389072
0.00198972
-0.000791929
0.00308569
0.00190868
-0.00499437
-0.000721444
-0.00306806
-8.88203e-05
-0.000155115
0.000243935
0.00393562
0.00332027
0.00116122
-0.00488414
0.00372291
0.00162683
0.00360083
-0.00498207
0.0063213
-0.00133923
-0.00114323
-0.000586212
0.00172944
0.0013369
0.00201756
0.000135292
0.000103626
-0.000238918
0.005022
-0.00339517
0.00645936
-0.000842174
-0.00561719
0.0032148
-0.00265826
-0.000556541
0.0022179
0.000451706
-0.00266962
0.00295069
-0.000732785
0.00650365
-0.00539853
-0.00110512
0.000503969
-0.00386539
0.00336142
6.89483e-05
0.00639042
0.00480292
-0.00429895
-0.000535772
0.00105939
-0.000523612
-0.00176179
0.000618565
0.00191707
0.0022491
-0.00416616
0.00025336
-0.000333564
8.02043e-05
-0.00126467
-0.0028464
0.00411107
-2.62299e-05
0.00652989
-0.00281584
0.0022957
0.000520145
0.000389366
-1.23242e-05
-0.000377042
-0.00569234
-0.000254101
0.00187845
-0.0013976
0.000827834
0.00495298
0.000893578
0.000182452
0.00263721
-0.0064444
0.00380719
-0.0011202
0.000584431
0.00263942
-0.0039041
0.0061969
-0.00226126
0.00109211
0.00117728
-0.000777557
0.00101172
-0.000234166
-0.00111488
-0.000496456
0.00188654
0.00132825
-0.000595226
0.00142972
-0.00123746
-0.000192251
-0.0026549
0.00198803
0.000666867
0.00116681
0.000262911
0.00113328
-0.00497039
0.00383711
-0.0047537
0.00141462
0.00333908
-0.0045543
0.00611809
-0.00156379
-0.00506247
8.04023e-05
-0.00202005
-0.000634844
-0.000214675
0.000125854
-0.00122493
0.00464806
-0.00342314
-0.00121456
-0.000703866
0.000103307
-0.000192023
8.87158e-05
0.000126287
-2.29802e-05
-0.00125666
0.0046356
-0.00337893
-0.00015603
2.42608e-05
0.00013177
-0.0055681
0.00170665
-0.00119449
-0.000567303
-0.000449414
-1.88906e-05
0.000468304
-0.00054325
9.38347e-05
0.00101257
7.46773e-05
-0.00181107
0.00061658
-0.000150112
1.71618e-05
0.00013295
0.00136803
-0.00234446
0.00097643
0.000271105
-0.000135812
-0.0039257
0.00514035
-0.00245757
0.000708371
-8.67674e-05
-0.000422614
0.000509382
0.00568584
-0.00216882
-0.00351702
7.83032e-05
0.00250689
-0.00258519
0.00445724
-0.00560725
0.00115001
0.00263481
0.00305102
0.00291383
-0.00283552
-0.00615016
0.000442093
-0.00645379
0.00361996
0.00283383
0.00229288
0.00390401
-0.00438855
0.00137747
0.00301107
0.00149311
-0.000207423
-0.00102474
0.00401966
-0.00299491
0.00463916
-0.00162684
-0.00301233
-0.00460366
0.00374689
0.00085678
0.00369338
-0.00503033
5.8822e-05
0.000330544
-0.00137925
0.0058365
-9.18217e-05
0.00214918
-0.00205736
-0.00206759
0.00261046
0.000170848
-0.0027813
-0.00127741
0.00264544
-0.000644219
0.00325467
0.0016411
-0.00173291
0.000901066
0.00397157
-0.00487264
-0.00504139
0.00384215
0.00119925
0.00255191
-0.0035941
0.0010422
-0.00332379
0.00411556
-0.000791768
0.000346295
-0.00367009
-0.000906786
0.000906786
-0.000447592
0.000360824
-0.00012696
-0.000973469
0.00110043
0.00506989
-0.0018426
-0.00322729
-0.00243328
-0.00036927
0.00290107
0.000157887
1.65741e-05
-0.000174461
-0.00147102
0.00112435
0.000346667
-0.000141042
-0.00490035
0.00504945
-0.00388823
0.000224838
-8.95598e-05
0.00444426
0.000577741
0.00406758
-0.00151567
0.00016495
-7.06266e-06
-0.00632373
-0.000988761
-0.000822308
0.00430015
-0.00190424
-0.00239591
0.00275647
0.00154369
0.00107777
-0.00563206
-0.00226269
-0.000553149
-0.00112086
-0.000958026
0.00207889
3.95377e-05
-0.00272291
0.00268337
-0.00235834
0.00123748
-0.0022181
0.00530379
-0.00461715
0.00159864
0.00301851
0.00254642
0.000663704
-0.000331362
-0.000332342
-0.00601528
0.000582736
0.00543255
-0.00418443
0.0058272
-0.00164277
0.00182437
0.00163074
-0.00345512
-0.00167379
0.000902872
0.000770913
-0.00271582
0.00208376
0.000632061
0.00111454
0.000763903
0.0002472
-0.000328937
8.17378e-05
0.00489576
-0.0039947
-0.00638654
0.00557792
0.000808633
-0.00478044
-0.00167335
0.00334536
0.000636738
-0.0039821
0.000153974
-0.000162183
8.20856e-06
0.000590402
-0.000125269
-0.000465133
-0.00451871
0.00261447
0.000357535
-0.000577126
0.000219592
4.91499e-05
-0.000955938
-0.00257572
0.0044844
-0.00530433
-0.000322994
0.00562733
0.000196945
0.000196601
-0.000393546
0.000871757
-0.000871757
0.00168551
-0.000727788
-0.00211035
0.00181652
0.000293826
0.00439996
-0.0030225
-0.000162327
6.29701e-06
-0.00121183
0.00126097
0.000695999
0.00129372
0.00235158
-0.000267811
-0.00401972
-0.0012846
0.00111494
-0.00498034
0.00321329
-0.00446995
0.000835104
-0.00213572
0.00130062
0.00335866
-0.00458359
-0.00271135
-0.00180736
-0.00483618
0.00469514
-0.000676533
-0.00533874
-0.00515917
0.0015207
-0.00148004
-4.06603e-05
0.00223248
0.000119091
-0.00601421
0.00204854
0.00396567
-0.00121933
0.00052601
0.000693319
0.0014502
0.00294976
-0.00462489
-0.00101434
0.00563923
-0.000212832
0.000138536
7.42949e-05
-0.00551517
0.00133074
0.00375311
-0.0049369
0.00118379
-0.00149361
-0.000616733
-0.000536675
-0.000637501
0.000138357
-0.00020383
6.54725e-05
0.00498986
-0.00385658
-0.00130062
0.00512518
-0.00382456
-0.000430379
-0.000781449
-0.00586122
0.000439713
0.00539519
-0.0061647
0.00456569
-0.000922761
-0.00546379
-0.00109438
-0.000376633
-0.00181669
0.00285679
-0.0010401
-0.000419139
0.000322026
9.71139e-05
-0.00173205
0.00141742
0.00163812
-0.000117419
0.00082776
-3.67375e-05
-0.00169531
0.00279656
0.00121784
-0.00303453
0.00605507
-0.000477152
0.00528142
7.03847e-05
-0.00528155
0.00439137
0.00114389
-0.00553527
0.000556424
-0.000768805
0.000212381
-3.8551e-05
-0.000409041
-1.30036e-05
0.00606807
-0.000162176
0.000156822
5.3551e-06
0.000133383
2.05907e-05
0.00253888
-0.00335683
0.000817948
-0.00191132
0.000714356
0.00119696
0.00792474
-0.00345471
-0.00447002
0.00116983
0.00126504
-0.00243489
0.000108069
-0.000175229
6.71607e-05
-0.000805872
0.00133188
0.00116009
0.00318194
-0.00434203
-0.00561455
0.000165978
0.00544857
-0.00401875
0.00299401
0.00173484
0.00479505
0.00458673
0.00333799
-2.14095e-05
0.00019138
-0.000169971
-0.00130695
0.00439588
-0.00308892
0.000299338
-0.000337889
-0.00013135
-8.14809e-05
0.00410061
-0.00227625
0.00475658
-0.00501033
0.000253752
-0.00324771
0.00608458
-0.00283687
0.00252715
0.00157346
0.00574838
-0.000991803
-0.00139036
-0.00562133
0.00137254
0.00424879
0.000654863
0.000520482
-0.00117534
0.00126956
-0.0006147
0.00058556
-0.00111025
0.00052469
0.00110604
0.00027517
0.000388534
-0.000678247
0.00443136
0.00151993
-0.000395578
0.00353327
-0.00612179
0.00258854
0.00153421
-0.00258418
0.00104997
-0.00431731
0.00116106
0.00315625
0.00291266
-0.0042196
-0.00490937
-0.00125533
-0.00409898
0.00126759
0.00283139
0.0012468
0.00314908
-0.00326504
-0.000833942
0.0022268
-0.00105697
-0.00067863
-0.00253238
0.00321101
0.00240853
0.000616163
-0.00302469
-0.00158951
0.00120079
0.000388716
0.000269934
0.00148934
-0.00196748
0.000478152
-0.000110865
-0.0002227
-0.000264424
0.000153559
-0.00435335
-0.000250306
-0.000293955
0.00117594
-0.000881986
0.00435128
-0.00464507
0.00029379
-8.84243e-05
0.00011777
-2.9345e-05
0.000972871
0.00338205
-0.00435492
-0.000157003
6.85788e-05
-0.00475221
0.000710826
0.00404139
-0.000739125
0.000128179
0.000610945
8.6446e-05
-8.16018e-05
-0.000400916
0.000864673
-0.000347483
-0.000517191
-0.00603589
0.000637358
-0.00254968
-0.000128194
0.00267787
-0.00316919
0.00441598
0.00218084
-0.00108873
-0.00116719
-0.00117963
-3.49325e-05
-0.0035194
-0.00123429
0.00151548
-0.000414278
-0.0011012
0.00191934
0.0018385
-0.00375784
0.00504365
-0.00161321
-0.00343044
0.000793658
-0.00541854
-0.00137292
0.00300366
0.00195743
0.000784499
-0.00274192
-0.00349774
0.00447061
-0.000152856
2.74449e-06
0.000935771
-0.00443351
-0.00449709
-0.000147993
-0.000998039
-0.00461651
0.0046279
0.00148714
0.00355651
0.00415927
0.00114387
-0.00530315
3.6369e-05
5.86839e-05
-9.5053e-05
-0.00140699
0.00336442
0.00371295
0.00353768
-0.00140159
0.00237051
-0.000968915
-0.00248056
0.000460505
-0.000878399
0.000751438
-0.000210559
0.000407505
-0.000210741
0.00170008
0.00376349
-0.00184415
-0.00107226
-0.000601533
-0.000107216
-0.000157207
0.00355043
-0.00163336
-0.0024037
0.0046528
0.000674545
-0.00309589
0.00242135
0.000652644
0.000762222
-0.00105618
0.00210015
-0.001312
-0.00327413
0.00458612
-0.00215412
0.00479133
-0.000552853
0.00344579
0.00023959
-0.000222429
-0.00236304
0.000961461
0.00231728
-0.00386758
0.00155031
-0.00121532
5.76823e-05
-2.13134e-05
0.00214842
-0.00279539
0.000646975
-0.00116763
-0.000421879
-0.00353026
0.00450326
0.00119096
0.00167815
-0.00286911
-0.00169097
0.0036648
-0.00197383
0.00423955
-0.000857506
0.000234346
1.41066e-05
-0.000248453
-0.0037228
0.00203183
-0.00142766
0.00471684
-0.00328918
0.000877977
0.00130286
0.000162315
0.00070944
0.000253063
-0.000300743
4.76799e-05
0.00169167
0.00021202
-0.00190369
0.0030182
-0.00458793
0.00156973
-5.28743e-05
0.000374293
-0.000321419
0.0015613
-0.000360515
0.00140629
-0.000606933
-0.000799362
0.00282625
-0.00392516
0.00109891
0.0026804
-0.00374244
0.00106204
-0.00516565
0.00191794
0.00390172
-0.000883522
-0.000633073
-0.00237663
0.0030097
0.00140725
-0.00511773
0.00371048
0.00336053
-0.00145892
-0.00190161
-0.000684803
0.00172771
-0.00104291
0.00477142
-0.00303659
-0.000698154
-0.00196009
-0.00598277
0.00514059
3.86469e-06
0.000121799
-0.000125664
-0.00157952
0.00119956
0.000379963
-0.0049105
0.00630956
-0.00139907
-0.00188736
0.000722277
0.00116509
0.000405053
0.00268669
-0.00208861
-0.000598085
0.00343526
0.000489497
-0.00392477
0.000128355
-2.02857e-05
0.00517226
0.000337076
-0.00550933
-0.00194096
0.00379767
-0.00185672
0.00276827
-0.000638059
-0.00213021
0.000462555
0.000402119
-0.000437274
0.00387253
0.00202591
-0.00396686
0.000703284
-0.000266001
-0.000437281
-0.00063502
-3.92147e-06
0.000638944
-0.00315239
-0.00576505
0.0057666
-0.000273804
0.000951193
-0.00067739
-0.00228841
-0.000192155
-0.00455217
0.00324017
-0.000870273
0.00112866
0.00360767
-0.00501989
0.00141223
0.000410666
-0.00296034
0.00233187
-0.00244133
0.000109452
-0.00157144
0.00148228
8.91644e-05
-0.00120992
-0.000369607
-0.00339209
0.00342754
-0.00223658
0.000457219
0.000133183
-0.00173483
0.00105002
-0.00279447
0.000742801
0.00205167
0.000242351
-8.00489e-06
-0.00347636
0.00102278
0.00245358
-0.00144408
0.00560336
0.00033915
-0.000954683
0.000615534
0.00212175
0.000646516
-0.00127775
0.000304283
0.00111445
0.00121743
-0.00142591
0.00495391
-0.00352799
-0.00484489
0.00576457
-0.000919678
-0.00117395
0.00228696
0.00410346
0.00107312
3.89064e-05
0.00585855
-0.00551666
-0.000341889
0.00355149
-0.00465846
0.00110697
0.00309153
-0.000682998
0.00542668
-0.00181901
-0.00250415
-0.000972202
-0.00217672
-0.000316933
0.00249367
0.00241358
-0.00196188
-0.00160818
-0.00424054
0.0027473
0.00149324
-0.00032792
0.00123079
0.0012105
0.00365656
-0.00486705
-0.000316483
0.000674018
0.00305957
-0.00238502
-0.00472472
-0.00125805
0.00647076
-0.00129851
0.00423806
0.00206193
0.000496522
0.0028556
-0.00212611
-0.000729487
0.00473752
-0.00245056
-7.08266e-05
-0.003326
-0.000867599
0.00419361
0.000388212
-8.65086e-05
-0.000301704
-0.00514084
0.00610739
-0.000966543
-0.000730553
0.00190706
-0.0011765
-0.000697226
0.00525258
-0.00455536
0.00118157
-0.00191212
-0.000112876
-0.0057631
-0.000777557
0.00202294
0.00383562
-0.000250089
-0.00192664
0.0002514
-4.20028e-06
0.000362568
-0.000487836
0.00336117
-0.000822294
-0.00522632
-0.000271597
-0.000147542
0.000150184
-0.000133569
-1.66148e-05
-0.00248364
0.000125288
-0.000421706
0.00159076
-0.00101277
-0.000577986
0.00246744
0.000596422
-0.00306387
-0.00071687
0.0031843
-0.00520293
-0.000271521
0.00547445
0.00375073
0.00137445
0.00440875
-0.00122681
-0.000130139
0.00254372
0.00540385
-0.000206637
-0.00519722
-0.00608726
0.00425267
0.0018346
0.00320969
-0.00126841
-0.00435292
0.000202746
-0.000224156
0.000572136
0.000834156
0.00112649
0.00014369
-0.00127018
0.00421229
0.00119156
-0.000960997
0.00317183
-0.00221084
0.00472893
-0.00138356
-0.0021796
0.00279245
-0.000612843
-0.00117673
-0.000109088
0.000298527
-0.000189439
0.00344646
-0.00414369
0.00134468
-0.000989301
-0.000355381
0.00159477
-0.000395205
-0.00325108
0.00229008
0.00548736
-0.00434347
-3.0633e-05
0.00035266
-0.00536
0.000449492
0.00543847
-0.00190521
-0.000999939
-0.00361492
0.00461486
-0.000646026
0.0028832
-0.00223717
0.00549726
-0.00286245
-0.00263482
-8.83967e-05
0.000591927
-0.000677093
0.000660521
1.65713e-05
-0.000691516
0.00173192
-0.00104041
-0.00314856
-0.00116875
0.000155559
-1.72023e-05
-0.0012249
-0.00478931
-0.00307521
0.00239658
-0.000626302
-0.000245453
-7.26183e-05
-8.95579e-05
-0.00121345
-0.000805833
-0.00523006
-0.00283793
0.00219191
-0.000818577
0.00119056
0.00111824
0.00437904
-0.00549727
0.00339181
-0.00275507
0.000466919
0.000771842
-0.00288374
0.0021119
0.00498272
-0.00492993
-5.27914e-05
-0.00320954
0.00361559
-0.00040605
0.000207793
-9.56073e-05
-0.000112186
-0.00494982
-0.00149459
-0.00175885
0.00369019
-0.00193134
0.00298131
-0.00220946
-0.00378415
0.00202531
0.00139503
-0.00258175
0.00118672
-0.00363297
0.00568151
0.0064988
-0.00219584
-0.00430296
-0.00239937
0.0023747
2.46841e-05
0.00560543
-0.00163387
0.00118583
-0.00092404
-0.000261792
-9.12936e-06
0.000262193
0.000248738
-0.000774654
0.000525916
-0.00304731
0.00365054
-0.000970136
0.000846276
-0.00104939
0.00236323
-0.000632167
-0.00173106
0.00219857
-0.000506896
0.00451972
0.000630532
0.0017327
-0.00175575
0.00106424
0.000408595
-0.000464692
5.60963e-05
0.00221428
-0.00174435
-0.000469925
0.000828793
-0.0051478
-0.000544543
0.00036949
-0.000588348
0.000218857
-0.00410173
0.00547427
0.0009422
-0.00111662
0.000174421
-0.00152895
0.00216437
-0.000635419
-0.00148892
-0.00275163
-0.00537952
-0.000153695
0.00553323
0.000301697
0.000108287
4.1898e-05
0.000127039
-0.000127222
1.83573e-07
0.00411243
-0.00290193
-0.00379843
-0.00232336
0.00346528
0.00303352
-0.00259289
0.00072633
0.00186656
-0.000844665
0.00223969
-0.00229829
-0.000101088
0.0027294
-0.00377719
0.00104778
0.00130702
-0.000131081
0.00046191
0.000550664
-0.00327757
0.000963311
0.00231426
0.000913544
-0.000602013
-3.30091e-05
-0.00427407
0.00172198
0.000104496
-0.00182647
-0.0039641
0.00146416
0.00249994
0.0005185
0.00147336
-0.000901231
-0.000245893
-0.00466066
0.00490655
0.000784331
-0.00247667
0.00169234
0.0012022
0.00131232
-0.000467353
-0.00171766
0.00218501
0.00257997
-0.00179564
0.0044689
-0.00353313
-0.000772818
-0.00264081
-0.000227393
0.000251654
-0.000705863
0.00176641
-0.00106055
0.00266074
-0.00366729
0.00100653
0.000136431
2.03905e-05
-0.00236438
-0.000913199
0.00142118
-0.00163634
0.000215164
-0.00277463
0.000686029
0.00127621
-0.00141871
0.000142499
0.0016185
-0.00180781
0.00018931
0.000676002
-0.00372569
-0.00115845
0.0013471
-0.00489723
0.00355013
-0.000912317
0.00357305
0.000118278
-7.86652e-05
-3.96127e-05
0.00474922
-0.00363098
-0.000319647
-0.00152711
-0.00401751
-0.00149767
0.00209205
0.000700385
-0.00101251
-0.000923366
-0.00452199
-0.00162817
-0.000380525
0.00124162
-0.000932108
-0.00030951
-0.00149594
-0.00108825
0.000656056
0.00225885
-0.00291491
-0.000114271
0.000670694
-0.000715895
3.8802e-05
-0.00245905
0.00196644
0.00139409
-0.000695147
0.00161698
-0.000921834
-8.68724e-05
-0.000116957
0.00031758
-0.00194653
0.00045292
0.00161129
-0.00230943
0.000698143
-0.00334164
0.00258265
0.000758987
0.00119813
0.00241288
-0.003611
-0.00175415
0.00104829
-0.00294118
-0.00102291
-0.000789202
-0.00255244
-0.00167781
0.00125359
0.000424229
0.00176618
-4.42029e-05
-0.00076224
-0.00243407
0.00319631
-0.000672715
0.00291387
-0.00225781
-0.000858534
-0.00394761
0.00480616
-0.00234382
0.00234028
3.53812e-06
-0.000739125
-0.00156242
0.000549654
-0.00240635
0.00381925
-0.00141291
0.00323289
0.00288519
0.000194362
3.6236e-05
-0.000230599
0.00234024
-0.000602499
-0.00173773
0.000187951
-0.000184087
-0.0035877
0.0049348
-0.00329854
0.00524541
-0.00194687
-0.00351018
-0.00150971
-0.000915441
0.00323188
-0.00231645
0.0028568
0.00177408
-0.00418044
-0.00499538
-0.000145459
-0.000786912
0.00284585
-0.00205893
-0.00043168
0.000378805
-0.000531982
0.00167714
-0.00114516
-0.00403156
0.00334359
0.000687967
-0.00326978
0.00235433
-0.00386861
0.000673842
0.00319476
0.00141209
-0.0010154
-0.000396697
-0.00589957
0.000696642
0.00184667
-0.00141098
-0.000435689
0.00142788
-0.000409376
-0.0010185
7.83763e-05
0.000129417
0.00293086
-0.00063516
-0.000218823
-0.00348764
-0.000380969
0.000427141
-0.00305554
-0.000976021
-0.00233658
-7.23398e-06
-0.002924
0.00229093
0.000720591
0.00260176
-0.00332235
0.000586497
-0.000860302
0.00140862
-0.00671686
0.00530824
-0.00577667
0.000996218
-0.00233905
0.00353717
0.000693038
0.000258156
-0.00273303
0.00345362
-9.36555e-05
0.00507638
0.000612355
0.00170607
-0.00231843
-0.00177735
0.00124537
0.00274698
-0.00369545
0.000948471
0.00510062
0.00067135
0.00154292
0.000314577
0.000388705
-0.000363992
-0.000404813
0.000180989
-0.00174542
0.00176684
-0.000888867
0.000859869
0.000613493
-0.000584057
0.00301106
-0.002427
-0.00150334
0.0018419
-0.000338562
-0.00489369
0.00380265
0.00109104
-0.0047989
0.00150036
-4.0686e-05
3.97903e-05
8.95699e-07
-0.00281126
-0.000856018
0.00108504
-0.00129825
0.000213212
0.00135654
-0.00494424
0.00110521
2.12791e-05
0.00123955
0.000694573
0.00218862
-0.00366646
0.000855204
0.000189575
-0.00503447
0.00190385
0.00122367
0.000683383
-0.00527323
-0.00049182
0.00565373
0.00118543
0.00710828
-0.00218537
-0.0049229
0.000784501
-0.000377022
-0.00040748
0.000714898
-0.00138547
0.000783937
-0.00386075
-0.00125699
0.000298527
-0.000941863
-0.000415963
0.00135783
0.00232982
0.00400856
-0.00486708
0.00270265
0.000834374
-0.00353703
0.0012498
-0.000964558
-0.000285242
0.00074521
0.00159502
-0.000135068
0.000138292
-3.2234e-06
-0.000709682
0.00288359
-0.00217391
0.00362107
0.00109577
-0.00126298
-0.000414832
0.00140067
-0.00154674
0.000146072
4.58567e-05
7.24212e-05
-0.00447723
0.000967043
-0.00165338
0.000443464
-0.0036483
0.00293142
-0.000947921
6.72339e-05
0.00093462
0.00268045
-0.00361507
0.000848229
-0.00126558
0.00418768
-0.00292211
0.000317689
0.000279892
4.6549e-05
-0.000326441
7.82751e-05
-0.0053917
0.00531343
-0.00263368
-0.000776596
0.00341028
-0.00349092
0.00260951
0.000881424
-0.00277596
-0.000261644
-0.00171408
-0.00490934
0.000891829
-0.00145608
-0.000880507
-0.00106299
0.00379239
0.00170918
-0.00372593
0.00201676
0.00010508
2.19588e-05
0.00372607
-0.0020169
0.00286381
0.000957751
-0.00382155
-0.00130206
0.00174189
-0.000439823
0.00357405
0.0010983
-0.00467236
0.00718566
-0.00197568
-0.00520998
-0.0021271
-0.000710831
-0.00173118
0.00234353
0.00377291
-0.00492725
0.00115433
-0.00280211
0.00373673
0.00114902
-3.30912e-05
-0.00111593
0.00148097
0.000907936
-0.00550661
0.000597242
0.00043311
0.00035139
0.00292155
-0.00112078
-0.00252049
0.00248018
4.03128e-05
0.000504576
-0.00184045
0.00133587
-0.00386986
-0.00119262
0.00108907
-0.00254515
-0.00529912
0.000151331
-0.00125318
-0.000521028
0.00177421
0.00563602
-0.00449214
0.000104515
0.000283698
-0.00301621
0.00318706
0.00144196
-0.00107397
-0.000368001
0.00346896
0.00475789
-0.000955247
0.000641944
-0.00327562
0.00111609
-0.000987913
-5.28864e-05
0.000461481
0.000394017
-1.9724e-05
-0.00207251
-0.000447386
0.00153243
-0.000908284
-0.00349746
0.000764446
-2.83993e-05
-1.22867e-05
0.00599857
-0.00492079
0.00522192
-0.00439409
-7.15622e-06
-0.000610945
0.0006181
0.00194885
-0.000458322
-0.00149052
0.00335863
-0.000756872
-0.00256807
0.00336091
-0.000792843
-0.00183298
0.000530917
0.00127892
-0.00095205
-0.000326866
-0.000118765
-0.000210171
0.00205933
-0.000548256
-0.00151108
-0.00138488
-0.00239501
-0.000125481
0.00208951
-0.00274568
0.000656176
0.00280635
-0.000750015
-0.00205634
0.00410366
-0.00434955
0.00031436
0.0022397
-0.000628412
-0.000682585
0.000835236
-0.00367462
0.00503115
0.00122638
0.00046396
-0.00171714
-0.0028638
0.00209667
0.00363317
0.00158876
-0.00114822
-0.00383028
-0.00114012
0.00130405
-0.00171772
0.000413679
0.00367537
-0.00318588
-0.000193785
0.00113598
-3.89376e-05
-0.00026944
0.000308378
-0.000692408
-0.00190049
0.00377171
-0.00490787
0.00113617
-0.00186257
0.00235425
-0.000491686
-0.00115555
0.00213275
0.000750831
-0.00226253
0.00375496
-0.00149244
0.00150595
-0.00114135
-0.000364604
-0.00103659
0.00029747
0.000209641
-0.00045001
0.00024037
-0.000424771
-0.00122861
-0.00248034
0.00250475
-2.44144e-05
0.00144777
-0.00371031
0.00162452
-0.000370929
0.00037703
-0.000427771
5.07417e-05
-0.000826829
0.000593677
0.000233152
-0.000794814
-0.00284772
0.000827593
0.00202013
-0.0019963
-0.00083678
-0.000727968
0.00156475
-0.00524226
0.00389545
0.0013468
-0.00127067
0.00126352
-0.000576401
-0.000115916
0.000692317
0.00286821
-0.000735461
-0.000770383
-0.000160169
0.000930553
0.00184056
-0.0013766
0.00169821
-0.000394157
-0.000154582
-0.000637009
-0.00420453
0.00484154
-0.00138925
0.00283018
0.0042781
-0.00239895
-8.13791e-05
0.00312194
-0.00473515
0.000732978
0.00158186
-0.00231484
0.00201098
-0.00279788
0.00199061
-0.000720926
-0.00126969
-0.00179601
0.000455815
0.00134019
0.00432381
0.00286184
-0.00551643
0.00133665
0.00417978
-0.00125234
-0.00398991
-0.000460047
-0.00133596
-0.00100319
-0.000559229
-0.00129327
-0.00042446
0.00114298
-0.000531999
0.00150749
-0.000975495
-0.00175712
0.00129707
-0.000944485
-0.000207229
0.00115171
0.00217146
-0.00286731
0.00069586
-1.17707e-05
0.000206133
0.00103546
0.00606191
-0.00140662
-0.00465529
-0.00203458
-0.0018731
0.00134115
0.000531957
0.00127096
-0.000978672
-0.000292284
-0.00229278
-0.00102647
0.00331926
-0.00267097
0.00358305
-0.000912081
-0.000919488
0.00112181
1.03435e-05
-0.00113215
0.00376055
-0.00493597
0.00117542
0.00174757
-0.0013555
-0.000392059
0.00242706
-0.00122486
0.00273731
-0.000635239
-0.00019159
-0.00409172
0.00229204
-0.00180285
-0.000489188
0.00056048
-0.00200907
0.00144859
-0.00251619
-0.00084064
0.000860625
-0.000659475
-0.000201151
-0.000180976
-0.00364118
0.000970213
0.000685254
-0.000475612
0.00259262
0.000990423
0.000318907
0.00130909
0.000681521
-0.00160348
0.00233645
-0.00150515
0.000985868
0.000519284
0.00354823
-0.000684413
-0.0038101
0.00610298
-0.00114732
-0.00248824
0.0068334
-0.00434516
-0.000887883
0.00356834
-0.00414181
0.000932285
-0.00210117
0.00424931
-0.000688876
-0.00162055
-0.00244963
0.00171328
0.000736351
-0.0012796
0.00047689
-0.000496616
1.97275e-05
-0.00137592
-0.000776677
-0.000153597
0.000930275
-0.00156599
0.00136581
0.000200177
0.00203821
0.00080763
6.26397e-05
-0.0013001
-0.000556148
-0.000829322
-0.00241979
-0.000477436
-0.00139567
-0.000171292
0.00159247
-0.000180682
0.00341105
-0.000513902
0.00133885
0.000200653
-0.000819091
-0.000986356
-0.00193006
0.00247684
-0.000546774
-0.00104749
-0.0057289
0.0035108
0.00148126
-0.000621391
0.00288636
-0.00120821
0.000962522
-0.00135915
-0.00453023
0.00588938
0.000620274
-0.00255034
0.000741112
-0.00368935
0.00269881
0.000990536
0.000889423
-0.00142142
0.00222604
-0.00311768
0.000891634
0.00119556
-0.00342974
0.00223418
0.000860545
0.00168788
-0.00254843
-0.000174596
0.00179309
0.00274454
0.00108118
0.00361915
-0.000413515
0.000783004
0.0031587
-0.0040263
0.000982702
-0.00327547
0.000435219
0.00412546
0.00147549
-1.09575e-05
-0.000275212
0.000286169
-0.00619308
0.00385604
0.00233705
-0.000828066
-0.00261519
0.00344326
0.00263988
-0.00177933
-0.00369654
0.000894433
-0.00132146
-0.000435664
-0.000152825
0.00131964
0.00372612
0.00122778
0.000225387
0.00130885
-0.000992294
-0.000316552
0.000896664
0.000584598
-0.000313902
0.0037682
-0.00493403
0.00116584
0.00307822
-0.000852188
-0.00139863
0.00190321
0.00125861
-0.00355472
0.00229611
-0.00116778
0.00145619
0.000678485
-0.00213468
0.000192717
-0.000203675
0.0021985
-0.000861595
-0.00126716
0.000330173
0.000929129
-0.000349092
-0.000580037
0.00353259
-0.00227398
-0.000509279
0.00229122
-0.00178194
0.00102009
-0.00296704
0.00208333
0.000883722
0.000106386
-1.30606e-06
0.00466642
0.000539049
-0.00570172
-0.00519593
0.00392602
0.00126992
-0.00107741
-0.00269449
0.0037719
0.0022213
0.00372513
0.00282722
-0.00375391
0.000926701
-0.00147113
0.00110152
-0.000953307
0.00337265
-0.00241935
0.00149697
0.000562363
-0.00378564
-0.00240745
0.00107723
-0.00230409
0.00321318
-0.000909101
0.00343297
-0.000823463
0.000395904
-0.000809517
0.00254553
0.000887442
-0.00063523
0.0043106
-0.00130928
0.00171661
-0.000407326
0.00199453
-0.00128017
-0.000389946
0.00607684
-0.00492134
-0.000458179
0.000858649
-0.00246213
-0.00539155
-0.00172226
0.000412977
-0.000678154
0.000101753
-0.000869322
0.000213339
-0.00146917
0.000666805
0.00157289
-0.000905429
0.000135045
0.000804959
0.00251611
-0.00332108
-0.00109511
0.00187368
-0.00194689
-0.000474253
0.00196109
-0.00148684
-0.000881129
-0.00208591
-0.00195167
0.00147741
-0.00265754
0.00346249
-0.00164412
0.000583997
0.00106012
-0.000979291
0.00357191
0.00601407
-0.00230112
-0.00130261
-0.000419645
-0.00173964
0.00110039
0.000639246
0.000905234
-0.00451921
0.00361398
-0.00131362
0.000544542
0.000769074
-0.00403497
-0.00116096
0.000191715
-0.0011362
0.00193878
-0.000715106
-0.00134558
-0.0038066
0.00515219
0.00100116
7.19624e-05
0.00329715
-0.00252778
-0.000769365
0.000137613
0.00129026
0.000876932
-0.000670547
-0.000206385
-0.00134645
-0.0010166
-0.00108045
0.00511577
-0.00403531
0.000633619
-0.00249619
0.000135024
0.00126564
0.0037724
-0.00496139
0.00118899
0.00287958
-0.00205198
0.000101903
-0.000168288
6.63857e-05
0.00102825
0.000138088
0.000104263
0.00235496
0.00370695
-0.000581963
-0.000810566
0.00139253
0.000653172
0.00177159
-0.00242477
0.00240165
-0.00170802
-0.000693626
0.000475563
0.00147328
0.00042611
-0.000510409
-0.000803208
0.00059954
-0.00532427
0.000690417
-2.98958e-05
-0.00116162
-0.00131315
-0.00379203
0.00510518
0.00103789
0.00143716
-0.00189548
0.00254654
-0.00039478
-0.00490871
0.0053035
0.000120778
-1.88754e-05
0.000658149
0.00128063
0.00273016
0.000942272
-0.00367242
0.00137512
0.000471551
0.00258603
-0.00364087
0.00454611
0.00277397
0.000843659
-0.00361762
0.00161842
-0.000836043
-0.000782373
0.00132825
-0.00101924
-0.000309008
0.000423341
0.00105962
-0.00470049
0.000217457
-6.7482e-06
0.000199465
0.00604029
-0.00129108
0.00152588
-0.00212838
0.00252723
-0.00182643
-0.000700805
0.000860859
-0.00254647
0.00168562
0.00523476
-0.00281635
-0.000926083
-0.00158877
0.0050102
0.00148643
-0.00178134
0.000294908
0.000499943
-0.000103695
-0.000396247
-0.000996422
-0.00313915
0.00413558
0.000742493
0.00181928
-0.00256177
0.00176752
-0.000281087
0.00224881
0.0014073