/*--------------------------------*- C++ -*----------------------------------*\
  =========                 |
  \\      /  F ield         | OpenFOAM: The Open Source CFD Toolbox
   \\    /   O peration     | Website:  https://openfoam.org
    \\  /    A nd           | Version:  7
     \\/     M anipulation  |
\*---------------------------------------------------------------------------*/
FoamFile
{
    version     2.0;
    format      ascii;
    class       surfaceScalarField;
    location    "1.493";
    object      phi;
}
// * * * * * * * * * * * * * * * * * * * * * * * * * * * * * * * * * * * * * //

dimensions      [0 3 -1 0 0 0 0];

internalField   nonuniform List<scalar> 
18389
(
-7.97376e-05
7.97376e-05
4.34753e-05
-4.34753e-05
-5.20442e-05
5.20442e-05
4.01508e-05
-4.01507e-05
-5.18237e-05
5.18237e-05
-3.99955e-05
3.99955e-05
-3.4739e-05
3.4739e-05
3.90611e-05
-3.90611e-05
-3.57544e-05
3.57544e-05
4.14837e-05
-4.14837e-05
4.51282e-05
-4.51281e-05
-3.47236e-05
3.47236e-05
-1.57749e-05
1.57749e-05
-4.28718e-05
4.28718e-05
4.34604e-05
-4.34604e-05
2.45582e-05
-2.45582e-05
1.95308e-05
-1.95308e-05
4.58993e-05
-4.58993e-05
4.59324e-05
-4.59324e-05
4.33518e-05
-4.33518e-05
-4.26109e-05
4.26109e-05
3.56988e-05
-3.56988e-05
4.30283e-05
-4.30283e-05
-5.84587e-05
5.84587e-05
-4.97565e-05
4.97566e-05
-4.18103e-05
4.18103e-05
-4.4545e-05
4.4545e-05
4.5627e-05
-4.5627e-05
4.58614e-05
-4.58614e-05
4.41466e-05
-4.41466e-05
-4.13461e-05
4.13461e-05
-6.30742e-05
6.30742e-05
4.31164e-05
-4.31164e-05
-4.47519e-05
4.47519e-05
4.08602e-05
-4.08602e-05
4.67039e-05
-4.67039e-05
-4.55539e-05
4.55539e-05
5.35838e-05
-5.35838e-05
-5.89056e-05
5.89056e-05
3.78805e-05
-3.78805e-05
4.48715e-05
-4.48715e-05
4.53856e-05
-4.53856e-05
-4.10128e-05
4.10128e-05
4.49055e-05
-4.49055e-05
4.5878e-05
-4.5878e-05
-4.58619e-05
4.58619e-05
-4.58613e-05
4.58613e-05
-4.0668e-05
4.0668e-05
-4.58918e-05
4.58918e-05
4.59445e-05
-4.59445e-05
4.59585e-05
-4.59585e-05
4.46202e-05
-4.46202e-05
3.77327e-05
-3.77327e-05
-4.57693e-05
4.57693e-05
-5.55461e-05
5.55461e-05
-4.38144e-05
4.38144e-05
4.5759e-05
-4.5759e-05
-4.59947e-05
4.59947e-05
4.32276e-05
-4.32276e-05
-5.93192e-05
5.93192e-05
-4.71474e-05
4.71475e-05
4.96055e-05
-4.96055e-05
4.5737e-05
-4.5737e-05
-1.27128e-05
1.27128e-05
4.57786e-05
-4.57786e-05
4.15385e-05
-4.15385e-05
5.12148e-05
-5.12148e-05
-4.58718e-05
4.58718e-05
4.23165e-05
-4.23165e-05
3.16145e-05
-3.16145e-05
3.43428e-06
-3.43428e-06
-4.41151e-05
4.41151e-05
3.28685e-05
-3.28685e-05
-3.65743e-05
3.65743e-05
3.97751e-05
-3.97751e-05
2.66256e-05
-2.66256e-05
2.61998e-05
-2.61998e-05
2.70486e-05
-2.70486e-05
2.43946e-05
-2.43946e-05
1.34123e-05
-1.34123e-05
0.00107477
-0.000881342
-0.000193426
0.00546704
-0.00207597
-0.00339107
-0.00594622
0.00594618
4.75828e-08
0.00335415
-0.00259812
-0.00075603
-0.00154358
0.00176145
-0.000217871
-0.00676804
0.00284447
0.00392358
0.00121533
0.00425172
0.00725529
-0.00587581
-0.00137948
0.00116376
-0.00191397
0.000750209
-0.000870052
-0.000673525
-0.00144238
-0.000314616
0.001757
0.000158197
-3.86873e-06
-0.000154328
0.000778392
-0.00222077
-0.00360352
0.000123681
0.00347983
-0.00320246
0.0028915
0.000310966
-0.00572422
0.00727567
-0.00155145
-0.0037095
0.00289671
0.000812788
-0.000564533
-0.00303899
-0.00174664
0.00238794
-0.000641302
-0.000465415
0.00255828
-0.00209287
-0.00160754
0.00110881
0.000498721
0.000583526
0.000581834
-0.00160059
-0.00516745
0.00122951
-0.00178479
0.000555276
0.00578032
-0.00386102
-0.0019193
-0.000654622
0.00330945
-0.00265483
-0.00583604
0.00583462
0.000488993
0.00127246
-0.00633919
0.000970932
0.00536826
0.0023302
-0.00298482
-0.0037899
0.0031134
0.000676499
0.00214822
-0.00422419
0.00109051
-0.000204098
-0.000886412
0.00150261
-0.0012887
-0.000213917
-0.00280078
-0.000401677
0.0053505
-0.00535167
0.000368052
0.00113456
0.00522906
-0.00133814
-0.00389092
0.00200137
-0.000837605
0.00308565
0.00190872
-0.00499437
-0.000722279
-0.00306763
-8.8664e-05
-0.000155284
0.000243948
0.0039353
0.00331999
0.0011747
-0.00490161
0.00372691
0.0016272
0.00360186
-0.00498159
0.00632171
-0.00134012
-0.00113213
-0.000594109
0.00172624
0.00133872
0.00201542
0.000135294
0.000103627
-0.000238921
0.00502358
-0.00339639
0.00645788
-0.000839658
-0.00561822
0.00322292
-0.00265536
-0.000567566
0.0022325
0.000441679
-0.00267419
0.00295543
-0.000722925
0.00650397
-0.00539856
-0.0011054
0.000511382
-0.00387877
0.00336739
7.01731e-05
0.00638771
0.00481685
-0.00430547
-0.000535793
0.00105936
-0.000523564
-0.00175705
0.000624915
0.00191715
0.00224903
-0.00416617
0.000253396
-0.000333585
8.01891e-05
-0.00127376
-0.00284435
0.00411811
-2.56506e-05
0.00652963
-0.00281825
0.0022892
0.000529054
0.000387401
-1.22583e-05
-0.000375143
-0.00569228
-0.000253948
0.00187492
-0.00138593
0.000826977
0.00495335
0.000893763
0.000181009
0.00266892
-0.00648664
0.00381773
-0.0011202
0.000584406
0.00263697
-0.00391073
0.00619653
-0.00226122
0.00109209
0.00117729
-0.000783121
0.0010281
-0.000244982
-0.00110959
-0.000497948
0.00190159
0.00132134
-0.000596094
0.00142982
-0.00123773
-0.000192089
-0.00265463
0.00198633
0.000668306
0.0011671
0.000262729
0.0011451
-0.00498968
0.00384458
-0.00476536
0.00142565
0.0033397
-0.00455428
0.00611793
-0.00156366
-0.00506322
8.16346e-05
-0.00201605
-0.00063858
-0.000213747
0.000125083
-0.0012332
0.00465669
-0.0034235
-0.00122841
-0.000685563
0.000103317
-0.000192025
8.87084e-05
0.000126296
-2.29798e-05
-0.0012667
0.00464668
-0.00337997
-0.000155974
2.44016e-05
0.000131572
-0.00556867
0.00170766
-0.00118689
-0.000570154
-0.000449536
-1.89507e-05
0.000468486
-0.00054341
9.38735e-05
0.0010129
7.76083e-05
-0.00180748
0.000620587
-0.000150253
1.71324e-05
0.000133121
0.00136798
-0.00234448
0.000976496
0.000271106
-0.000135811
-0.00392563
0.00514097
-0.00245634
0.000709712
-9.44836e-05
-0.000428253
0.000522737
0.00568659
-0.00217022
-0.00351637
7.62555e-05
0.0025077
-0.00258396
0.00447228
-0.00562168
0.0011494
0.00263388
0.00305271
0.00291315
-0.00283689
-0.00615996
0.000435742
-0.00646819
0.00363039
0.0028378
0.00229327
0.00390326
-0.00439358
0.00138657
0.003007
0.00149494
-0.000265428
-0.0010286
0.00402276
-0.00299416
0.00463961
-0.00162743
-0.00301219
-0.004613
0.00374763
0.000865374
0.003693
-0.00503114
5.89632e-05
0.000328439
-0.00138757
0.00585987
-9.37564e-05
0.00214931
-0.00205554
-0.00206338
0.00260485
0.000178731
-0.00278358
-0.00127742
0.0026454
-0.000653031
0.00325788
0.00164013
-0.00173388
0.000916679
0.00397435
-0.00489103
-0.00504201
0.00384401
0.00119801
0.00255187
-0.00359409
0.00104223
-0.00334444
0.00412096
-0.000776526
0.000332031
-0.00367647
-0.000870156
0.000870156
-0.00044861
0.000354127
-0.000126985
-0.000973471
0.00110045
0.00507031
-0.00184342
-0.00322689
-0.00243307
-0.000367711
0.00290008
0.000157774
1.6568e-05
-0.000174342
-0.00146803
0.0011223
0.000345732
-0.000140738
-0.00490127
0.00506709
-0.0038924
0.00025962
-0.000101423
0.00444344
0.000580138
0.00406759
-0.00151571
0.000164856
-7.08193e-06
-0.00634063
-0.000981727
-0.000825752
0.0043007
-0.00190517
-0.00239553
0.002756
0.0015447
0.00107773
-0.005632
-0.0022561
-0.000562147
-0.00111878
-0.000959006
0.00207778
3.82541e-05
-0.00272173
0.00268347
-0.00235726
0.00123848
-0.00221814
0.0053038
-0.00462599
0.00161018
0.00301581
0.00254595
0.000670641
-0.000334629
-0.000336011
-0.00601379
0.000583069
0.00543073
-0.00418703
0.00582813
-0.0016411
0.0018261
0.00162864
-0.00345474
-0.00167048
0.000901171
0.000769309
-0.00271547
0.00207723
0.000638235
0.00109464
0.000780282
0.000247196
-0.000328938
8.17427e-05
0.00491627
-0.00399959
-0.00638528
0.00557382
0.000811471
-0.00478993
-0.00167826
0.00334071
0.00065434
-0.00399506
0.000153915
-0.000162114
8.1983e-06
0.000590574
-0.000125334
-0.00046524
-0.00451871
0.00261354
0.000368767
-0.000559473
0.000190706
5.70861e-05
-0.000927244
-0.0025757
0.00448443
-0.00530486
-0.000324158
0.00562903
0.00020349
0.00018039
-0.00038388
0.000607854
-0.000607854
0.00168389
-0.000729144
-0.00210958
0.00180993
0.000299645
0.0044065
-0.00301994
-0.000162254
6.28104e-06
-0.00120158
0.00125866
0.000727455
0.00127392
0.00234904
-0.000271802
-0.00402012
-0.00128474
0.00111254
-0.00499132
0.00321304
-0.00447974
0.000836314
-0.00213499
0.00129867
0.00335921
-0.00459241
-0.0027122
-0.00180652
-0.00483631
0.00469557
-0.000675623
-0.00533817
-0.00516046
0.00149985
-0.0014509
-4.89559e-05
0.00223
0.000119037
-0.00601389
0.00204861
0.00396528
-0.00121934
0.000525995
0.000693338
0.00146083
0.00294568
-0.00462507
-0.00101687
0.00564195
-0.000212801
0.000138497
7.43034e-05
-0.00551739
0.00133036
0.00375303
-0.0049369
0.00118388
-0.00148982
-0.000619753
-0.000536674
-0.000637501
0.000138372
-0.000203836
6.54634e-05
0.00500815
-0.00386306
-0.00130133
0.00512606
-0.00382474
-0.000392264
-0.000809313
-0.00586169
0.000440257
0.00539435
-0.0061713
0.0045707
-0.000920006
-0.00546528
-0.00109157
-0.000376463
-0.00181588
0.00285704
-0.00104116
-0.000419201
0.000322094
9.71075e-05
-0.00173202
0.00141741
0.00159512
-9.52652e-05
0.000828204
-3.67508e-05
-0.00169527
0.0027962
0.00121843
-0.0030343
0.00605682
-0.000483008
0.00527969
7.08043e-05
-0.00528149
0.00439078
0.00114604
-0.00553682
0.000556459
-0.000768902
0.000212443
-4.02631e-05
-0.000408347
-1.15513e-05
0.00606837
-0.000162224
0.000156867
5.35758e-06
0.000133297
2.06174e-05
0.00253441
-0.00335934
0.000824931
-0.00192483
0.000740818
0.00118401
0.00792971
-0.00345899
-0.00447071
0.00117174
0.00126275
-0.0024345
0.000104939
-0.000174891
6.9953e-05
-0.000805867
0.00133186
0.00116726
0.00318072
-0.00434797
-0.00561388
0.000166717
0.00544716
-0.00402223
0.00299364
0.00173565
0.00479397
0.00459747
0.00333223
-2.23714e-05
0.000188439
-0.000166067
-0.0013153
0.00440168
-0.00308637
0.000301287
-0.00034155
-0.00013131
-8.14912e-05
0.00410125
-0.00227516
0.00476808
-0.00502607
0.00025799
-0.00323898
0.00608863
-0.00284965
0.00252635
0.00157491
0.00577692
-0.00100884
-0.00139567
-0.00562082
0.00137261
0.00424822
0.000654638
0.00052069
-0.00117533
0.00126957
-0.000614928
0.000585352
-0.00111024
0.000524893
0.00110604
0.000277075
0.000393566
-0.000678289
0.00443132
0.00151657
-0.000394272
0.00355406
-0.0061458
0.00259175
0.00153192
-0.0025837
0.00105178
-0.00432743
0.00117241
0.00315502
0.00291114
-0.00422644
-0.00491299
-0.00125831
-0.00410215
0.00127111
0.00283104
0.00125473
0.00314694
-0.00326448
-0.00083768
0.00222605
-0.00105432
-0.000686863
-0.00252704
0.00321389
0.00240298
0.00062378
-0.00302676
-0.00158755
0.00119872
0.000388829
0.000269964
0.0014813
-0.0019633
0.000482003
-0.000110856
-0.00022273
-0.000264366
0.00015351
-0.00435603
-0.000256969
-0.000291548
0.00117029
-0.000878744
0.00435152
-0.00464615
0.000294628
-8.84218e-05
0.000117769
-2.93465e-05
0.000977002
0.00338064
-0.00435764
-0.000157002
6.85803e-05
-0.00475278
0.000711636
0.00404115
-0.000712972
0.000119928
0.000593043
5.75305e-05
-6.13992e-05
-0.000401247
0.000864668
-0.000347474
-0.000517194
-0.00603578
0.000637224
-0.00254968
-0.00012817
0.00267784
-0.00316827
0.004423
0.00218082
-0.00108872
-0.00116719
-0.00116821
-6.02006e-05
-0.00351925
-0.0012461
0.00150295
-0.000399612
-0.00110334
0.00191839
0.00183914
-0.00375753
0.00505352
-0.00162252
-0.003431
0.000795693
-0.00542076
-0.00137426
0.00300289
0.00196633
0.000776613
-0.00274294
-0.00349713
0.00447414
-0.000152974
2.72099e-06
0.000939386
-0.00443652
-0.00449742
-0.000148739
-0.000997769
-0.00461611
0.00463868
0.00149763
0.00355589
0.00416211
0.00114204
-0.00530415
3.62526e-05
5.93046e-05
-9.55572e-05
-0.00140276
0.00336909
0.00371849
0.00355717
-0.00139707
0.00236909
-0.000972007
-0.00248175
0.000465708
-0.00087842
0.000751433
-0.0002085
0.000411991
-0.000218043
0.00169935
0.00376339
-0.00184499
-0.00106637
-0.00060411
-0.000107144
-0.000157221
0.00355042
-0.00163327
-0.00240373
0.00465276
0.000674515
-0.00309588
0.00242137
0.0006329
0.000762558
-0.00105411
0.00209907
-0.00131946
-0.00327395
0.0045934
-0.00213479
0.00480371
-0.000553981
0.00344547
0.000237856
-0.000220724
-0.00236209
0.000965027
0.00233463
-0.00387201
0.00153738
-0.00119738
5.75638e-05
-2.13113e-05
0.00214567
-0.00279638
0.000650716
-0.00116622
-0.000421327
-0.00353254
0.00450347
0.0011988
0.00167175
-0.00287055
-0.00168803
0.00366544
-0.00197741
0.00424354
-0.000862903
0.000234405
1.41154e-05
-0.00024852
-0.00372298
0.00203495
-0.0014373
0.00472589
-0.0032886
0.000878052
0.00130276
0.000175551
0.000432302
0.000253009
-0.00030071
4.77003e-05
0.0016979
0.000218624
-0.00191652
0.00301833
-0.00459693
0.00157861
-5.27829e-05
0.000374212
-0.000321429
0.00156037
-0.000361654
0.0013947
-0.000607652
-0.000787049
0.0028209
-0.003929
0.00110809
0.00267866
-0.00374356
0.0010649
-0.00517545
0.00193647
0.00391011
-0.000891776
-0.000640759
-0.00237154
0.00301231
0.00140821
-0.00511863
0.00371042
0.00336053
-0.00145893
-0.0019016
-0.000678664
0.00172261
-0.00104395
0.00477155
-0.0030359
-0.000687936
-0.00196741
-0.00598196
0.0051423
3.89748e-06
0.000121621
-0.000125519
-0.0015771
0.00119804
0.000379064
-0.00491038
0.00631202
-0.00140165
-0.00188122
0.0007297
0.00115152
0.000406984
0.00268637
-0.00208697
-0.000599404
0.00343589
0.000488894
-0.00392479
0.000126307
-2.13681e-05
0.00517288
0.000335835
-0.00550871
-0.00194041
0.00379753
-0.00185713
0.00277213
-0.00064867
-0.00212346
0.000462567
0.000402101
-0.000436407
0.0038723
0.00202625
-0.00396665
0.000700663
-0.000266106
-0.000434556
-0.000634176
1.10341e-05
0.000623143
-0.00315211
-0.00576451
0.00576496
-0.000274383
0.000949087
-0.000674705
-0.00228633
-0.000195431
-0.00455915
0.00323968
-0.000878359
0.00113745
0.00360806
-0.00501851
0.00141045
0.000410663
-0.00296034
0.00232919
-0.00244196
0.000112757
-0.00157141
0.00148227
8.91334e-05
-0.00120778
-0.000369315
-0.00339189
0.00342978
-0.00223098
0.000457299
0.000133275
-0.00173163
0.00105297
-0.0027984
0.000754171
0.00204423
0.000242429
-8.02378e-06
-0.003478
0.0010253
0.0024527
-0.0014441
0.00560622
0.000339411
-0.000952226
0.000612817
0.00211438
0.000657745
-0.00127774
0.000304275
0.00111006
0.00121914
-0.00143588
0.00496577
-0.0035299
-0.00485363
0.00577323
-0.000919598
-0.00117626
0.00228274
0.00410497
0.001073
3.58122e-05
0.00586689
-0.00553155
-0.000335339
0.00356655
-0.00466709
0.00110054
0.00309427
-0.000691291
0.0054269
-0.00181885
-0.00250283
-0.000975167
-0.00216665
-0.000328761
0.00249542
0.00241178
-0.00197011
-0.00160816
-0.00424263
0.00274565
0.00149699
-0.000323923
0.00122509
0.0012164
0.00366578
-0.00488218
-0.000295035
0.000663802
0.00305956
-0.00238504
-0.00472387
-0.00125809
0.00647035
-0.00129748
0.00424714
0.00206003
0.000498256
0.0028549
-0.00212481
-0.000730086
0.00473686
-0.00245412
-7.28759e-05
-0.00332557
-0.000871366
0.00419694
0.000388009
-8.64598e-05
-0.000301549
-0.0051473
0.00611046
-0.000963151
-0.000741992
0.00190239
-0.0011604
-0.000697366
0.00525371
-0.00455635
0.00116727
-0.00190927
-0.000113484
-0.00576232
-0.000783121
0.00203459
0.0038323
-0.000239374
-0.00192728
0.000251398
-4.20195e-06
0.000362654
-0.000487987
0.00336329
-0.000828885
-0.00522696
-0.000271641
-0.000147561
0.000150204
-0.000133585
-1.66184e-05
-0.00248338
0.000126116
-0.000423353
0.00158877
-0.00101111
-0.000577656
0.00247554
0.000589934
-0.00306547
-0.000710294
0.00318582
-0.00520295
-0.000271476
0.00547442
0.00375082
0.00137525
0.00441561
-0.00123489
-0.000139717
0.0025515
0.00540387
-0.000206649
-0.00519722
-0.00608632
0.00425134
0.00183499
0.0032108
-0.00126769
-0.00435314
0.00020201
-0.000224382
0.000582066
0.000812633
0.00105697
0.000100344
-0.00115731
0.00421228
0.00119159
-0.000958904
0.0031719
-0.002213
0.00474336
-0.00140264
-0.00217823
0.00279255
-0.000614308
-0.00117789
-0.000132031
0.000310851
-0.00017882
0.0034457
-0.00414308
0.00134401
-0.000984919
-0.000359086
0.00159469
-0.000396656
-0.003251
0.00229209
0.00549113
-0.0043451
-3.06305e-05
0.000352726
-0.00535956
0.000449173
0.00545735
-0.00190329
-0.00100475
-0.00361364
0.0046184
-0.000647258
0.00288291
-0.00223565
0.00549725
-0.00286244
-0.00263481
-8.83978e-05
0.000593509
-0.000677355
0.000660643
1.6712e-05
-0.000687633
0.00172825
-0.00104062
-0.00314858
-0.00117885
0.000155575
-1.72027e-05
-0.0012246
-0.00478929
-0.00307806
0.00239119
-0.000415595
-0.000192258
-7.26371e-05
-8.95872e-05
-0.00120007
-0.000805798
-0.00522999
-0.00283831
0.00219105
-0.000817532
0.00118558
0.00113078
0.00438807
-0.00551884
0.00340918
-0.00275484
0.000468801
0.000774537
-0.00288468
0.00211014
0.00499373
-0.00495023
-4.34948e-05
-0.00320958
0.00361559
-0.000406001
0.000207798
-9.56106e-05
-0.000112188
-0.00498985
-0.00149681
-0.00175628
0.00369091
-0.00193463
0.00298207
-0.00220753
-0.00378449
0.00202821
0.00139498
-0.00258174
0.00118676
-0.00363245
0.00568107
0.00649831
-0.00219599
-0.00430232
-0.00240111
0.00237318
2.79439e-05
0.00562611
-0.00165177
0.0011863
-0.000924207
-0.00026209
-9.13053e-06
0.00026214
0.000249302
-0.000772674
0.000523372
-0.00304535
0.00365195
-0.000973288
0.000844021
-0.00104812
0.00236194
-0.000631317
-0.00173062
0.00221282
-0.000514921
0.00453161
0.000629297
0.00173264
-0.00175345
0.00106582
0.000408594
-0.000464692
5.60974e-05
0.00220932
-0.00174507
-0.000464258
0.000836255
-0.00514774
-0.00054454
0.000369493
-0.000588343
0.00021885
-0.00410043
0.00547304
0.000942158
-0.00111663
0.000174476
-0.00151704
0.00216536
-0.000648315
-0.00149277
-0.00274986
-0.00538435
-0.0001573
0.00554166
0.000299886
0.000108311
4.18928e-05
0.000128587
-0.000128531
-5.57942e-08
0.00412814
-0.00291174
-0.00380839
-0.0023374
0.00346679
0.00303152
-0.00259736
0.000739445
0.00185792
-0.000844704
0.00223968
-0.00229647
-0.000104646
0.00272875
-0.00377758
0.00104883
0.00130477
-0.000134484
0.000461617
0.000551285
-0.00327831
0.000965894
0.00231242
0.000917965
-0.000592474
-4.1703e-05
-0.00428165
0.00172825
9.4285e-05
-0.00182253
-0.00396675
0.00146699
0.00249975
0.000522396
0.00145983
-0.000877769
-0.000246589
-0.00466057
0.00490716
0.000785055
-0.00247696
0.00169191
0.0012022
0.00131232
-0.000479289
-0.00170688
0.00218618
0.00258027
-0.00179521
0.00447265
-0.00353326
-0.000786584
-0.00264063
-0.000227438
0.00025184
-0.000701218
0.00176214
-0.00106093
0.00265827
-0.00366798
0.0010097
0.000136473
2.03942e-05
-0.00236275
-0.000915564
0.00142155
-0.00163642
0.000214867
-0.00277434
0.000687378
0.00127653
-0.00141876
0.000142229
0.00161891
-0.00180791
0.000189
0.000676668
-0.00373072
-0.00117089
0.00135603
-0.00490823
0.0035522
-0.000916479
0.00357474
0.000116662
-7.73006e-05
-3.93616e-05
0.00476356
-0.00363277
-0.000340531
-0.00153513
-0.00401138
-0.00150601
0.00209063
0.000701904
-0.00101786
-0.000924427
-0.00453068
-0.00162928
-0.000379083
0.00124318
-0.000931504
-0.000311675
-0.00149464
-0.00108907
0.000658918
0.00225615
-0.00291506
-0.000114287
0.000670745
-0.000716092
3.87373e-05
-0.00245427
0.00196645
0.00139407
-0.00072575
0.00165191
-0.00092616
-8.68725e-05
-0.000116963
0.000318972
-0.00194546
0.000455642
0.00159896
-0.00231212
0.000713161
-0.00334711
0.00257756
0.00076953
0.00119041
0.00242145
-0.00361186
-0.00175234
0.00105112
-0.00294072
-0.00102602
-0.000800977
-0.00254613
-0.00167628
0.00125189
0.000424394
0.00176221
-3.39619e-05
-0.000765006
-0.00243219
0.00319719
-0.000684015
0.00291478
-0.00225586
-0.000858506
-0.00394762
0.00480614
-0.00234436
0.00233858
5.78161e-06
-0.000712972
-0.00155804
0.000546932
-0.00240487
0.00381985
-0.00141498
0.00323276
0.00288518
0.000194396
3.6221e-05
-0.000230618
0.00234004
-0.000603076
-0.00173696
0.000188045
-0.000184148
-0.00359293
0.00494896
-0.00328901
0.00524631
-0.0019573
-0.0035095
-0.00150901
-0.000913256
0.00323154
-0.00231829
0.00285539
0.00177621
-0.00418109
-0.00499772
-0.000149578
-0.000800967
0.00285094
-0.00204996
-0.000431704
0.000378921
-0.000527591
0.00167415
-0.00114656
-0.00404088
0.00334186
0.000699013
-0.00326961
0.00235635
-0.00387015
0.000676153
0.00319399
0.00140814
-0.00101146
-0.000396678
-0.00589957
0.000696624
0.00184652
-0.00141039
-0.00043612
0.00139501
-0.000393128
-0.00100188
7.83772e-05
0.000129421
0.0029344
-0.000645193
-0.00022285
-0.00348774
-0.000382412
0.000428475
-0.00305294
-0.000987944
-0.00233527
-9.08495e-06
-0.00292708
0.00228633
0.000721286
0.0026014
-0.00332268
0.000583812
-0.000858195
0.00140529
-0.00671578
0.0053105
-0.00578702
0.000997084
-0.00234967
0.00354008
0.000690313
0.000258775
-0.00273247
0.00345376
-0.00010228
0.005096
0.000628196
0.00169878
-0.00232698
-0.0017745
0.00124692
0.00274607
-0.00369653
0.000950451
0.0051012
0.000664063
0.00154526
0.000314563
0.000386099
-0.000364136
-0.000404766
0.00018094
-0.00174459
0.00176685
-0.000888796
0.000844746
0.000615083
-0.000587762
0.00301156
-0.00242379
-0.00149466
0.00184079
-0.000346132
-0.00489763
0.00380299
0.00109464
-0.00480548
0.00151647
-4.12144e-05
3.8825e-05
2.38946e-06
-0.0028096
-0.000858375
0.00106979
-0.00128932
0.00021952
0.0013647
-0.00495763
0.00100181
5.51624e-05
0.00124733
0.000695709
0.0021872
-0.00366753
0.000857943
0.000187507
-0.00504114
0.00189698
0.00120612
0.000696266
-0.00527223
-0.000492279
0.00565149
0.00118343
0.00710803
-0.00218444
-0.00492359
0.000786158
-0.000379154
-0.000407006
0.000722723
-0.00138055
0.000776441
-0.00386064
-0.00125799
0.000310851
-0.00092407
-0.000420365
0.00134444
0.00232703
0.00400857
-0.00486707
0.0027022
0.000835244
-0.00353745
0.00124986
-0.000963784
-0.000286077
0.000745552
0.00159449
-0.000135028
0.000138265
-3.23719e-06
-0.000710549
0.00288369
-0.00217314
0.00362287
0.00110303
-0.00126087
-0.000415413
0.00141618
-0.00153189
0.000115714
4.75949e-05
6.90674e-05
-0.00447694
0.000967438
-0.00165221
0.000444423
-0.00364595
0.00293564
-0.000949667
6.83243e-05
0.000936532
0.00267897
-0.0036155
0.000846061
-0.00126027
0.0041943
-0.00293403
0.000318355
0.000279981
4.65771e-05
-0.000326558
7.83267e-05
-0.00539173
0.0053134
-0.00262878
-0.000787663
0.00341645
-0.00349767
0.00260441
0.000893272
-0.0027709
-0.000261913
-0.0017127
-0.00490985
0.000898469
-0.00145242
-0.000882852
-0.00106388
0.00379262
0.00170731
-0.00372669
0.00201938
0.000105755
2.28316e-05
0.00372632
-0.00201901
0.00286052
0.000967583
-0.00382809
-0.00130074
0.00174055
-0.00043981
0.00357413
0.00110582
-0.00467995
0.00718572
-0.00197343
-0.00521228
-0.0021265
-0.000711808
-0.00172331
0.0023515
0.0037721
-0.00493008
0.00115797
-0.00280126
0.00373779
0.00112874
-8.06575e-06
-0.00112067
0.00148218
0.00090575
-0.00551059
0.000597597
0.000430983
0.000355175
0.00292155
-0.00112553
-0.00252202
0.00247909
4.29293e-05
0.000505135
-0.00184038
0.00133524
-0.00387189
-0.00119133
0.00109127
-0.00254369
-0.00529914
0.000151405
-0.00124396
-0.000528199
0.00177216
0.0056365
-0.00449446
0.000104385
0.000283625
-0.00301375
0.00319249
0.00143855
-0.00107054
-0.000368014
0.0034679
0.00476147
-0.000958489
0.000652
-0.00328077
0.0010518
-0.000931878
-5.28873e-05
0.000461481
0.000393957
-1.97454e-05
-0.00206538
-0.000457758
0.00152755
-0.000920116
-0.00349773
0.00076527
-2.75977e-05
-1.36168e-05
0.00599851
-0.00492077
0.00522154
-0.00439457
2.45776e-05
-0.000593043
0.000568465
0.00194875
-0.000458702
-0.00149004
0.00335906
-0.000757663
-0.00256753
0.00336116
-0.000793627
-0.00183263
0.000531892
0.00127868
-0.000951722
-0.000326956
-0.000118767
-0.00021017
0.00205895
-0.000548504
-0.00151044
-0.00137919
-0.00239353
-0.000128484
0.00208877
-0.00274561
0.000656836
0.00280643
-0.000751207
-0.00205522
0.00410302
-0.0043496
0.000314894
0.00224243
-0.00064347
-0.000683711
0.000833114
-0.00367821
0.0050429
0.00124623
0.000471369
-0.00171533
-0.00286933
0.00209588
0.00363384
0.00158771
-0.00112898
-0.00383803
-0.00115165
0.00130262
-0.0017171
0.000414476
0.00367501
-0.00318612
-0.000193832
0.00113599
-3.87135e-05
-0.000270502
0.000309216
-0.000706518
-0.00189085
0.00377216
-0.00491117
0.00113902
-0.00185819
0.00235205
-0.000493858
-0.00115791
0.0021318
0.000751889
-0.00226234
0.00375582
-0.00149349
0.00150418
-0.0011399
-0.00036428
-0.000987557
0.000274587
0.000192246
-0.000436796
0.00024455
-0.00042614
-0.00122607
-0.0024807
0.0025036
-2.29023e-05
0.00144919
-0.00371154
0.00162324
-0.000371349
0.000365262
-0.000417157
5.18952e-05
-0.00082536
0.00059249
0.00023287
-0.000795534
-0.00285391
0.000840572
0.00201334
-0.00199633
-0.000850749
-0.000707332
0.00155808
-0.00524531
0.00389583
0.00134948
-0.00119577
0.00122034
-0.000576392
-0.000115922
0.000692314
0.00286848
-0.00073669
-0.000770363
-0.000160193
0.000930557
0.00183866
-0.00136729
0.00169714
-0.000394516
-0.000143961
-0.000632232
-0.00420778
0.00484001
-0.00138183
0.00282973
0.0042783
-0.0023983
-8.2393e-05
0.00311755
-0.00474007
0.000733769
0.00158102
-0.00231479
0.00200286
-0.00280382
0.00199629
-0.000742552
-0.00125374
-0.00179593
0.000456046
0.00133988
0.00431835
0.00286738
-0.00552355
0.00133896
0.00418459
-0.00125433
-0.00399098
-0.00046036
-0.00133557
-0.000996232
-0.000561811
-0.0012914
-0.000425705
0.00114783
-0.000534986
0.0015061
-0.000971118
-0.00175708
0.00129672
-0.000944487
-0.000207201
0.00115169
0.00217043
-0.00286721
0.000696795
-1.17695e-05
0.000206165
0.00103168
0.00606982
-0.00140622
-0.0046636
-0.00203564
-0.00187183
0.00133221
0.000539623
0.00127069
-0.000977748
-0.000292947
-0.00228912
-0.00103187
0.00332099
-0.00266735
0.00358621
-0.000918862
-0.000921465
0.00111039
1.12619e-05
-0.00112165
0.00376025
-0.00493889
0.00117863
0.00174753
-0.00135511
-0.000392417
0.00242707
-0.00122487
0.0027423
-0.000634331
-0.000191028
-0.00409122
0.00228989
-0.00180124
-0.000488648
0.00056116
-0.0020089
0.00144774
-0.00251149
-0.000847849
0.000858779
-0.000657389
-0.000201391
-0.000180184
-0.00364536
0.000978009
0.000668998
-0.000476751
0.00258903
0.000997179
0.000318974
0.00129045
0.00070584
-0.00160265
0.00233642
-0.00149823
0.000981921
0.000516312
0.0035556
-0.000695073
-0.00380951
0.00610279
-0.00115092
-0.00249114
0.00683382
-0.00434268
-0.000890711
0.00356969
-0.0041418
0.000932225
-0.00210182
0.00425004
-0.000702099
-0.00161002
-0.00245154
0.00170367
0.000747876
-0.00128033
0.000358502
-0.000424627
6.61254e-05
-0.00137312
-0.000776884
-0.000153491
0.000930376
-0.00156245
0.00135763
0.000204817
0.00203057
0.000820358
6.24188e-05
-0.00130015
-0.000555063
-0.000825488
-0.00242383
-0.000486249
-0.00138558
-0.000171043
0.00159259
-0.000180756
0.00341152
-0.000514817
0.00133895
0.000199143
-0.000831475
-0.000953315
-0.00192966
0.00247717
-0.000547513
-0.00104005
-0.00572889
0.00351075
0.00146774
-0.000622995
0.00288596
-0.00121421
0.000969537
-0.00135889
-0.00453033
0.00588921
0.000621017
-0.00255068
0.000741989
-0.0036917
0.00269598
0.000995723
0.000885034
-0.00142002
0.00222252
-0.00312026
0.000897732
0.00119699
-0.00343024
0.00223325
0.000861497
0.00168723
-0.00254873
-0.000174318
0.00179322
0.00273849
0.00107804
0.00361932
-0.000413517
0.000783008
0.00315771
-0.00402907
0.000987859
-0.00327697
0.000436273
0.00412572
0.00146326
-1.08332e-05
-0.000275604
0.000286437
-0.00619347
0.00385656
0.00233692
-0.000832627
-0.00261308
0.00344571
0.00263978
-0.00177828
-0.00369726
0.000896002
-0.00132112
-0.00043597
-0.000152682
0.00131978
0.00372775
0.00123801
0.000224448
0.00130825
-0.00099127
-0.000316975
0.000874676
0.000593067
-0.000313898
0.00376801
-0.00493685
0.00116885
0.00307849
-0.000855986
-0.00139807
0.0019032
0.00125653
-0.0035546
0.00229807
-0.00117089
0.0014553
0.000678917
-0.00213422
0.000191747
-0.00020258
0.00219822
-0.000859496
-0.00124301
0.000330497
0.000923891
-0.000347568
-0.000576322
0.0035328
-0.00227628
-0.000522261
0.00230234
-0.00178009
0.00101723
-0.00297456
0.00207663
0.000897937
0.00010673
-9.75194e-07
0.00467908
0.00053792
-0.00570539
-0.00519896
0.00392776
0.00127121
-0.00108063
-0.00269317
0.0037738
0.0022212
0.00372498
0.00282586
-0.00375451
0.000928653
-0.00146789
0.00109858
-0.000968417
0.00338137
-0.00241295
0.0014963
0.000562645
-0.0037858
-0.00240767
0.00108613
-0.00230072
0.00321826
-0.000917551
0.00344019
-0.00083578
0.000397169
-0.000823341
0.00253861
0.000901582
-0.00063599
0.004311
-0.00130762
0.00171556
-0.000407934
0.00200519
-0.00126437
-0.000389851
0.00607684
-0.00491806
-0.000466286
0.000859179
-0.00246183
-0.00539163
-0.00172194
0.000414316
-0.000678151
0.00010176
-0.000871392
0.00021127
-0.0014672
0.000681292
0.00156113
-0.000905435
0.000135072
0.000805904
0.00251554
-0.00332145
-0.00109517
0.00187356
-0.00194657
-0.000474765
0.0019612
-0.00148643
-0.000896945
-0.00207761
-0.00195184
0.00147707
-0.00265697
0.00346286
-0.00163705
0.00059139
0.00104566
-0.00098599
0.00357501
0.0060341
-0.00231561
-0.00130156
-0.000420374
-0.00173737
0.00109554
0.000641824
0.000906778
-0.00452112
0.00361435
-0.00130941
0.000546196
0.00076321
-0.00403524
-0.00116372
0.000191717
-0.0011362
0.00193467
-0.000728544
-0.00135532
-0.0038062
0.00516153
0.000999767
7.32335e-05
0.00329736
-0.00252741
-0.000769945
0.000135015
0.00125999
0.00087575
-0.000668585
-0.000207165
-0.00134332
-0.00101878
-0.00109334
0.00513679
-0.00404344
0.000638838
-0.00249703
0.000148359
0.00126782
0.00377242
-0.00496404
0.00119162
0.0028834
-0.00204282
0.000101847
-0.000168199
6.63518e-05
0.00102986
0.000138131
0.000104297
0.002359
0.00371083
-0.00058452
-0.000802069
0.00138659
0.000653974
0.00177043
-0.0024244
0.00240335
-0.0016953
-0.000708045
0.000476083
0.00147266
0.000426418
-0.000512346
-0.000797061
0.000601727
-0.0053256
0.000690529
-2.98862e-05
-0.00116442
-0.0013233
-0.00379677
0.00512006
0.00103371
0.00143669
-0.00189539
0.00254641
-0.000394721
-0.00490882
0.00530354
0.000120531
-1.86834e-05
0.000670725
0.00126394
0.00272626
0.000949291
-0.00367554
0.00137459
0.000471925
0.00258703
-0.00364114
0.00454792
0.00277346
0.000844336
-0.00361779
0.00162899
-0.000824504
-0.000804481
0.00132736
-0.00101784
-0.000309519
0.000424159
0.00106042
-0.00470157
0.000218361
-6.7347e-06
0.000198481
0.00607077
-0.00130722
0.0015255
-0.00212858
0.00252988
-0.00181819
-0.000711694
0.000871677
-0.00254499
0.00167331
0.00523422
-0.00281476
-0.000928796
-0.00157987
0.00500812
0.00148635
-0.00178137
0.000295019
0.000499338
-0.00010369
-0.000395647
-0.00100068
-0.00313882
0.00413951
0.000743348
0.00181838
-0.00256173
0.00176753
-0.000281181
0.00224654
0.00140314
-0.000856947
-0.000937434