/*--------------------------------*- C++ -*----------------------------------*\
  =========                 |
  \\      /  F ield         | OpenFOAM: The Open Source CFD Toolbox
   \\    /   O peration     | Website:  https://openfoam.org
    \\  /    A nd           | Version:  7
     \\/     M anipulation  |
\*---------------------------------------------------------------------------*/
FoamFile
{
    version     2.0;
    format      ascii;
    class       volScalarField;
    location    "1.318";
    object      p;
}
// * * * * * * * * * * * * * * * * * * * * * * * * * * * * * * * * * * * * * //

dimensions      [0 2 -2 0 0 0 0];

internalField   nonuniform List<scalar> 
12359
(
0.0648854
0.0743076
0.0481978
0.107644
0.0685676
0.154585
0.18586
0.168664
0.226279
0.142616
0.206892
0.277383
0.484721
0.114844
0.102438
0.39583
0.438906
0.0527776
0.0523891
0.0873931
0.12353
0.251503
0.0805587
0.0929526
0.0771645
0.0837268
0.0493855
0.0492452
0.0516709
0.049904
0.0503265
0.0487344
0.0483721
0.0496792
0.0482287
0.050535
0.0580562
0.0631553
0.0668739
0.0605445
0.0722787
0.0617373
0.0556262
0.0549097
0.051054
0.0513476
0.0507702
0.0501264
0.0520275
0.0495094
0.0491107
0.0489728
0.0486463
0.0532245
0.0485618
0.0483994
0.0542636
0.0483542
0.048342
0.0482771
0.0484443
0.0482235
0.0490252
0.51467
0.053689
0.132033
0.0572542
0.0488741
0.0587839
0.348866
0.531192
0.0702724
0.0481888
0.0595953
0.0978697
0.0482392
0.0486445
0.0482069
0.0565222
0.318397
0.125882
0.0433645
0.047188
0.0502226
-0.0559086
0.0265328
0.0432162
0.0455276
-0.0684398
-0.0502223
0.0479764
0.476407
0.0479127
0.0482334
0.0488389
0.00992938
0.0476135
0.0483133
0.0582261
0.0544785
0.108273
0.0480812
0.0267316
-0.122551
0.0415263
0.014382
0.0469227
-0.0545061
0.0295329
0.0147613
0.0476393
0.0435155
0.109316
0.0911491
0.0491429
0.0438156
0.0929169
0.0422295
-0.0730567
0.0472355
0.0477303
0.174468
0.0453818
0.00668126
0.0420427
0.0432673
0.0385182
0.0500636
0.0481939
0.0417799
0.0443321
-0.0023262
-0.00376935
-0.00264731
0.0469831
0.00821984
0.0440619
0.00844827
0.0481159
0.0392762
0.0473838
0.0663408
0.0164312
0.0469555
0.00930178
0.146897
0.0471968
-0.0447558
0.0414661
0.12717
0.00287531
0.0480961
0.016376
0.0452863
0.0478644
-0.173997
0.108656
-0.00156697
0.0477223
0.0488045
0.0464342
0.0488545
0.00510076
0.0134777
0.0471829
0.0433451
0.047476
0.173714
0.0149503
-0.070139
0.0482078
0.0482307
0.0140235
0.0771348
0.0413994
0.0430453
0.051684
0.0514687
0.110991
0.0434659
0.115341
0.0478422
0.0481959
0.0430346
0.0571606
0.205474
0.0432871
0.047917
0.00732285
0.0430983
0.0482348
0.0107222
0.0134422
0.0451953
0.0135495
-0.132639
0.0336282
0.0441765
0.0167547
0.0424307
0.150934
0.00670177
0.0556138
0.0143817
0.0127802
0.0478206
0.0116892
0.0562581
0.00264484
0.0418741
0.0475484
0.000210868
0.000276727
-0.526245
0.202006
0.0481216
0.0436889
0.0491146
0.0435468
0.0670536
0.101465
0.0418976
0.00691528
0.466305
0.0415816
0.047524
0.0678294
0.0292134
0.0461996
0.0449995
0.0448143
0.0471905
0.0101836
0.0559012
0.0474757
0.0549087
0.0472276
0.0156696
0.0476289
0.292748
0.0471501
0.0243817
0.0476609
0.0559562
0.0452859
-0.0451515
0.0483239
0.0024508
0.0416491
0.0137889
0.00194039
0.0624626
0.0510743
0.0452989
0.321682
-0.579012
0.0472424
0.0415617
0.398084
-0.0547149
0.0551385
0.0462949
0.0461438
0.013429
0.0756108
-0.446824
-0.067669
0.0451243
0.0417538
0.00857449
0.0140834
0.0609885
0.0150036
0.045402
0.041661
0.0472051
0.0417341
-0.114988
0.0439259
0.0468471
0.0480697
0.0127734
0.0397959
0.0573794
0.0248085
0.0473132
0.0482157
0.0480878
0.0480687
0.0487662
0.00510786
0.0428182
-0.451856
0.0469296
0.0469371
0.0268295
0.0419556
0.101251
0.0488032
0.0491665
0.0480011
-0.103588
0.0455324
0.0479984
0.0439936
0.0484103
0.0410157
0.0437751
0.043854
0.0417637
0.052787
0.204532
0.0408205
0.0504319
0.0630888
0.0233482
-0.0561065
0.0399599
0.0589314
0.370846
0.0480614
0.0206373
0.0467828
0.0338598
0.0469434
0.0398336
0.229116
0.0198521
0.20635
0.0568916
0.0473226
0.0136392
0.00861861
0.0472827
0.0127833
0.0136178
0.0464144
0.0485339
0.0485201
0.0485925
0.0485693
0.291268
0.0472884
0.105255
0.00113713
0.0559012
0.0145086
0.0199127
0.0273762
0.0346848
0.0191317
0.0351404
0.0578002
0.0212059
0.0224814
0.0931786
0.0671973
0.0158726
0.0653333
0.0652432
0.0173418
0.105613
0.0439512
0.0486271
0.0323675
0.048588
0.0437234
-0.187687
0.499803
0.0439399
0.0481561
0.0470101
0.0477167
0.0190457
0.0478709
0.0478517
-0.0744572
0.014089
-0.0459723
0.0459608
0.0114418
0.0398528
0.0479549
0.0168644
0.0322258
0.111255
0.0324481
0.0441863
0.0467853
0.0134123
0.0109376
0.0407827
0.296905
0.0165257
0.00959497
0.0507802
0.0476738
0.0481382
0.383858
0.0139625
0.0461001
0.0641218
0.0643179
0.0474048
0.0473726
0.0476511
-0.0545197
0.0999077
0.0600936
0.0196986
0.00479944
0.0490383
0.115192
0.0501619
3.00201e-05
-0.0599332
0.303208
0.0548855
0.0927236
0.029497
0.0231674
0.0362815
0.0320433
0.0499332
0.0362711
0.0168186
0.0478779
-0.05731
0.0579538
-0.00705209
0.00986785
0.054728
0.0968528
-0.143323
0.0186009
0.0400775
0.00901614
0.00939911
0.0198403
0.0425692
0.0475904
0.0534099
0.0469539
-0.002913
0.0443226
0.0832921
0.0860685
0.0375509
-0.0534156
0.104745
0.0541317
0.0465546
0.393242
0.0465417
0.0458293
0.00595231
0.0481602
0.0464212
0.0457866
0.237231
0.202226
0.0497911
0.0457517
0.11026
0.049118
0.019846
0.0161628
0.0145462
0.0464088
0.0476996
0.0488067
0.0480104
0.0855931
0.020423
0.0228492
0.0512828
0.0523323
0.00338706
0.0500253
0.0467189
0.0407321
0.121145
0.00532557
0.0480957
0.0485584
0.0132121
0.0320283
0.0495859
0.0436719
0.113865
0.0198187
0.00852931
0.0217215
0.0463008
0.0469689
-0.00470088
-0.00444676
0.048003
0.0375029
0.0506613
0.00719786
0.283916
0.0476289
0.0444791
0.0464817
0.0158064
0.0541093
0.0528957
0.0434788
0.0502137
0.0310889
0.0758089
0.0386286
-0.0341383
0.0468094
-0.0393934
0.0455651
-0.112945
0.0197003
-0.00179191
0.0483315
0.0510496
0.0227301
0.0430056
0.0490903
0.0560175
0.0542976
0.0545693
0.0725718
0.0149069
0.0144728
0.0472063
0.0426157
0.0201507
-0.00355203
0.0472104
0.0469383
0.0134297
0.0464714
0.224147
-0.14867
-0.118252
0.0472109
0.0413993
0.00145742
0.0532914
0.0417575
0.453465
0.0468949
0.114411
0.0889563
0.0412034
0.04154
0.0492289
0.0379408
0.000779705
0.0314064
0.0514718
0.0472487
0.0481965
0.0538906
0.0516856
0.0560626
0.0151934
0.0488246
0.0468796
0.0214139
-0.0850172
0.050289
-5.28894e-05
0.047052
0.052003
0.0952408
0.00155075
0.00203319
0.0971741
0.0462348
0.00221736
0.0474482
0.0482678
0.00394593
0.0375599
0.0456577
0.0375631
0.0477772
0.0468612
0.0428581
0.0496773
0.00211858
0.103749
0.0583073
0.118641
0.0168204
0.0400928
0.113255
0.0628798
-0.00552375
0.0145268
0.0638967
0.0550069
0.0482843
0.0386274
0.0218377
0.0471978
0.0481733
0.046389
0.0483269
-0.0149856
0.0379141
0.0349968
0.105107
0.0562925
0.233941
0.00728229
0.00200326
0.0425182
-0.00100764
0.0477577
0.0506397
0.0470327
0.106204
0.11437
0.0464862
0.0314371
0.228734
0.0168311
0.00655156
0.0388258
0.0669446
-0.125645
0.0459804
0.0495164
0.0478
-0.00915489
0.0493822
0.0321811
-0.0529484
0.0469475
0.0773088
0.0578366
0.0416806
0.0505413
0.0467993
0.0486371
0.0535327
0.0486893
0.0485676
0.0527951
0.00714463
0.0116179
0.0417312
0.337619
0.0020674
0.410791
0.0180304
0.0255749
0.0531926
0.0194397
0.0568729
0.011973
0.319197
0.0984148
0.056003
0.0441657
0.0530711
0.0516469
0.022334
0.0475874
-0.00873357
0.04871
0.099685
0.0491665
-0.0134275
0.00861694
0.0122704
0.0567206
0.0392905
0.0091576
0.0774804
0.00630353
0.0409407
0.00385843
0.0435178
0.0472615
0.0503317
-0.200447
0.0719187
0.0413342
0.0471688
0.0489238
0.0537419
0.0829133
0.0114669
0.0192923
0.046414
0.0428299
0.0557591
0.0412372
0.0387965
0.00272846
0.0547264
0.0578581
0.0101581
0.0426619
0.0400474
0.104446
0.0472092
0.05492
-0.250768
0.048319
0.0081315
0.0519445
0.040423
0.0893556
0.0107208
0.0512016
0.0197421
0.0479405
0.111673
0.0411128
0.0139551
0.0118767
0.113005
0.0478102
0.00166141
-0.00558053
0.0568256
0.0425052
0.0424386
0.0370937
0.238071
0.0524977
0.0481409
0.0550427
0.0478913
-0.123462
0.042336
0.0112994
0.0324093
0.0193516
0.517516
0.042147
-0.0536987
0.0122289
-0.0917817
0.0195334
0.0513682
0.0420995
0.0321746
-0.0463884
-0.0345749
0.0457386
0.0456348
0.119267
0.0450235
0.210956
0.0208017
0.0715727
0.0428293
0.407113
-0.100377
0.0428725
0.047269
0.0476259
0.0938365
0.0538279
0.0584889
0.0512782
0.0162928
0.0771123
-0.032465
0.356167
0.0463964
0.0830166
0.0150507
0.120609
0.0437317
0.114105
0.00868729
0.0949467
0.0507984
0.0471656
0.0102309
0.00736445
0.020294
0.118047
0.0138411
0.0259541
0.0514087
0.0471343
0.0386106
0.243671
0.0386933
0.0128271
0.0668487
0.0211557
0.0372617
0.0520127
-0.00479661
0.0332537
0.0432427
-0.0172075
0.0581749
0.02831
0.198189
0.0472484
0.0329187
0.050085
0.0558283
0.0434767
0.0508383
0.0472044
0.00304907
0.0406372
0.0772286
0.013145
0.0950159
0.0315972
0.0321951
0.0109948
-0.186796
0.0482997
0.0552264
0.0261626
-0.0671438
0.00776373
0.0476958
0.504937
0.0471834
0.0415335
-0.1589
0.0536538
0.0480612
0.0481453
0.0655892
0.0894802
0.048332
0.0548131
0.109547
0.0506681
0.0528839
0.0516139
0.0460047
0.0907222
-0.0163087
0.0536945
0.116544
0.0121668
0.0130025
0.00706692
0.0161892
0.0516507
0.0414502
-0.0386807
0.00569083
0.0728339
0.0468213
0.0483545
0.117778
-0.000718028
0.0339359
0.0379628
0.0337501
0.0512159
0.042012
0.08395
-0.219301
0.372777
0.0826567
0.0497545
0.0420021
0.0797499
0.348625
0.11101
0.0477241
0.000716955
-0.0114565
-0.238457
0.0363819
-0.148769
0.0483221
0.0515801
0.048372
0.00766913
0.0746367
-0.1568
0.040278
-0.0816931
0.0447892
0.0502626
0.0116634
0.0531049
0.00167454
-0.041937
0.0545092
0.0368033
0.0258459
0.0366596
0.0543213
0.0763401
0.07244
0.0316576
0.0794351
0.0544808
0.0484112
0.0523065
0.0489814
0.105129
0.0235546
-0.00628828
0.00399239
0.085452
0.0252535
0.0237362
0.0425473
-0.0083927
0.0347104
0.0537521
0.0478158
0.00016609
0.108716
0.0402697
0.0406605
0.0556866
0.0241708
0.10268
0.115678
0.0242763
0.238272
0.0229825
0.0865986
-0.0395654
0.0527359
0.0202239
0.0120517
0.0452184
0.0343871
0.0383634
0.0437966
0.0474442
0.0436129
-0.012974
-0.000695192
0.0426513
-0.129998
0.100476
0.0488524
0.05195
0.00237366
0.0487528
0.079221
0.0142984
0.00593871
0.0486946
0.0512341
0.0477525
0.0487539
0.118568
-0.131839
0.0489696
0.0580876
0.0472221
-0.141376
0.0221798
0.0158608
0.0469541
0.0488518
0.0515562
0.0255778
0.0858901
0.0287029
0.0466214
0.0516627
0.0486335
0.0216297
0.0846653
0.0383463
0.0481646
0.0313178
0.0258814
0.0751094
0.0430442
-0.0157882
0.145354
0.0451635
0.033267
0.0514179
0.0431586
-0.176521
0.0542678
0.0489074
0.0126083
0.104761
0.0821291
-0.133908
0.0757432
0.0353769
0.028139
0.055548
0.0394285
0.0351958
0.0548498
0.146834
0.049467
-0.326408
0.0830668
0.181182
0.0394555
-0.00565681
0.0959904
-0.00157145
0.262344
0.00826211
0.0274302
0.0344825
0.0388047
0.0471692
0.043387
0.0880585
0.00145723
0.0549991
0.0451612
0.00808095
0.0179197
0.00654551
0.0802497
0.00104651
0.00611325
0.0469834
0.0704655
-0.0494749
0.0873122
0.0471666
0.0354168
0.0523222
0.0471784
0.0688606
0.0483082
0.0434951
0.243888
0.0917354
-0.0162828
0.0483513
0.0478409
0.0479084
0.0550571
0.0522806
-0.00163811
0.0524428
0.0477278
-0.0148789
0.0223854
0.0082571
0.0683413
0.0508022
0.0408049
0.0926397
0.034845
0.0483799
-0.0402898
0.0127051
0.112131
0.0487114
-0.228792
0.0971567
0.0505125
0.0037246
0.0386564
-0.0261408
0.0359873
0.00167664
0.094189
0.0497036
0.0501284
0.0229892
0.0411461
0.0537971
-0.00628096
0.0538211
0.0539269
0.0979572
0.0445652
0.0518122
0.0357709
0.0113613
0.0508695
0.0538894
0.0520495
0.0470934
0.0961614
-0.0402453
0.0268095
0.0551355
0.0533925
0.0406094
0.0474135
-0.187029
0.0790591
0.0480841
0.0709158
0.0406572
0.0990314
0.152938
0.0014973
0.0540559
0.00606851
-0.00096352
0.0469223
0.0405978
0.000156026
0.0410494
0.0481444
0.0720892
0.0280693
0.0528303
0.0481736
0.0415991
0.0847897
0.0487937
0.032165
0.0483225
0.0381739
0.0666349
0.133687
0.0476833
-0.195609
0.0800172
0.0162619
-0.113781
0.0923655
0.0322719
-0.0275821
0.0556119
0.142798
0.208742
0.0531448
0.0437304
0.0436175
0.0505613
0.052408
0.00757295
-0.0752533
-0.133194
0.00956538
0.148078
-0.00669565
0.0110967
-0.0588099
0.0476193
0.0508058
0.0481802
0.0255329
0.0476383
0.00909195
0.0366502
-0.0121098
0.0472793
0.0509466
0.0451951
-0.142269
0.119579
0.0779364
0.0606238
0.122125
0.0438178
0.0488693
-0.0150093
0.0364171
-0.0103851
0.00811262
0.0238834
0.00522359
0.0165065
0.0560066
0.0470186
0.047497
-0.118258
0.0425629
0.0390565
0.053923
0.00789766
0.0188745
0.0477308
0.0207692
-0.011897
4.98206e-06
0.0940994
0.0528488
0.0479381
0.00525834
0.0553295
0.0476523
0.000849613
0.00816926
0.0518644
0.138326
0.00126781
0.0478594
0.048034
0.0470326
0.107231
-0.129985
0.0415583
0.01092
0.0511216
0.0519913
0.012451
0.0480472
0.180206
0.0165163
-0.0541343
0.153522
0.0311006
0.0473334
0.0474253
0.0336393
0.0555005
0.0471337
-0.173021
0.00603202
0.0443269
0.221584
0.101257
0.0408159
0.0472108
0.0481015
0.0530169
-0.0722932
0.161093
0.0337675
0.0770962
0.0661232
0.00666568
-0.074661
0.0254776
0.0535491
0.0524876
0.01728
0.0400345
0.0464214
0.050491
0.00442875
0.0522873
0.0331235
0.0542905
0.0816186
-0.0102454
0.0455904
0.050607
-0.00273314
0.00388397
0.0578079
0.0501845
0.0763477
-0.000693145
0.0392699
0.0177459
0.0737558
0.0186713
-0.0329989
0.0524229
0.15857
0.0470867
0.106037
0.000990375
0.0480287
0.0475494
0.369729
0.0483339
0.0553734
0.0266661
0.0535015
0.05365
0.0568153
0.048203
0.0478979
0.00033635
-0.0243107
0.0455118
0.33268
0.0371493
0.05025
0.236632
0.0999428
0.0554659
0.0446774
0.0499532
0.0880683
-0.251987
0.0533556
0.0454191
0.0471126
0.0506254
0.0632891
0.0170338
0.0528448
0.0638066
0.0514902
-0.147408
-0.00474368
0.00953126
0.110182
0.0370068
0.0503498
0.00494787
-0.11352
0.0524142
0.0473491
0.0502749
0.0473817
0.0534444
0.046714
-0.00319756
0.0442852
0.0415708
0.303046
-0.000896303
-0.0100357
0.0043246
0.0532818
0.00113256
0.0875441
-0.0858037
0.0463737
0.0112028
0.0480342
0.238384
0.0472763
0.0480859
0.0293394
0.0471538
0.0263425
0.0582441
0.0535857
0.0461566
-0.0903893
0.0883013
0.0122128
0.0505803
0.0360588
-0.0585821
-0.00666144
0.0786405
0.0745581
0.0486545
0.0545192
0.0435306
0.0504428
0.0455333
0.0505158
0.0896616
0.0751698
0.00772148
-0.101973
0.0262234
-0.00692528
0.0329343
-0.106414
0.0466585
-0.0284982
0.0503488
-0.00894411
-0.00540384
0.0256075
0.0479887
0.0297785
0.0112043
0.0324623
-0.0173068
0.233706
-0.0994143
0.0503301
-0.000965893
0.0473732
-0.00426364
0.091275
0.00495776
0.0428564
0.0566733
0.0114993
0.051235
0.0366806
0.0484941
0.0453674
0.0473337
0.0544866
0.00697217
0.0017413
0.0476824
0.0841463
-0.0807515
0.497498
0.046907
0.0730004
0.0266091
0.194685
0.0318112
-0.175139
-0.0326105
0.0459214
0.0250481
0.0686772
0.175993
0.0501019
0.0670411
0.0792399
0.0451784
-0.084523
-0.00409578
0.0502323
0.0267042
-0.034597
0.0760254
-0.0861848
0.0377393
0.080138
0.053329
0.0468937
0.0548552
0.0438902
-0.0725098
-0.000462727
-0.0621103
0.0487565
-0.0834637
0.0302496
0.00453376
0.110746
0.0253582
0.0282666
-0.0533239
0.0375091
0.0372189
0.00558496
0.0712229
0.0262032
0.0093569
0.0692686
-0.0872628
0.0856623
0.0347415
0.0891312
0.0486565
0.114815
7.82853e-05
0.102008
0.0524909
-0.0349339
0.0476806
0.0339303
0.0104317
-0.000978784
0.0564871
0.00659613
0.0463542
0.505582
0.0543186
0.00658074
0.0910661
-9.41509e-05
0.0077389
0.0484226
0.0317306
0.0473697
0.464466
0.0478075
0.0475329
0.0470331
-0.0135673
0.0416357
0.0443291
-0.0132876
0.0284112
0.0636086
0.0421261
0.0473982
0.108066
0.0455375
0.103976
0.00871585
0.0856445
0.0407529
0.0408428
0.0262144
-0.0119076
0.0098834
0.0428961
0.524993
0.0477817
0.0474692
0.0547302
-0.131376
0.052467
0.0313097
0.0803268
0.0522531
0.0406523
0.00350135
-0.0219308
0.0336054
-0.0454658
0.0532072
0.0442409
0.0154713
0.0201385
-0.000610725
0.0502701
0.026377
0.0712708
0.19429
0.0370583
0.0476002
0.0452028
0.178475
0.0481617
0.0481666
-0.0339708
0.0323435
-0.0383509
0.0406444
0.0472844
0.189323
-0.0136601
0.0412167
0.053598
0.0454615
-0.109112
0.0481724
0.0340334
-0.0262734
0.0481716
0.0473855
0.00979091
0.0469028
0.048181
0.0144737
0.0519509
0.0474278
0.022039
0.0470337
-0.0114963
0.047272
0.0592602
0.11978
0.00882839
0.048185
0.00573305
-0.16748
0.0404688
0.0736011
0.0450896
0.0346008
0.0458266
-0.0164941
-0.00508582
0.0447355
0.0473811
0.132148
0.0306072
0.0168311
0.012845
0.129897
0.0469349
0.0065055
0.0473626
-0.0190737
-0.00444414
-0.00418748
0.00848313
0.155948
-0.0866517
0.00574491
0.0122758
0.0484766
0.0507342
0.00137448
0.136401
0.0983231
0.0337179
-0.0709491
0.0468444
-0.0613666
0.196182
0.047214
-0.00727129
-0.0250361
0.0804134
0.00973583
0.00751875
0.0721043
0.0475093
-0.0108633
-0.0630194
0.259811
0.0534077
0.0027263
-0.030097
0.142832
0.0497476
0.0473537
0.00725135
-0.0520429
0.041492
0.0695339
0.0476558
0.046916
0.0574295
0.0530474
0.0258156
0.0539326
0.0473228
-0.014066
0.0358944
-0.0254848
0.0168614
0.047678
0.0473948
0.143254
0.0529038
0.0797512
0.0610408
-0.0466479
0.0806943
0.0466645
-0.0213929
0.0575194
0.0473989
0.0284071
0.0393307
0.0402299
0.0950981
0.025975
-0.134435
0.0413472
0.0472831
-0.0263089
0.0469864
-0.00504336
0.0312311
-0.0240474
-0.046404
0.0958854
-0.0301132
0.047719
-0.00799937
0.0519088
0.07145
-0.0227603
0.0205865
-0.0225482
-0.0621446
0.172839
-0.0108177
0.0652452
0.0466309
0.0472638
0.0469587
-0.0305555
0.139656
0.0467097
-0.0134666
-0.0188838
0.0156304
0.00278648
0.0281698
0.109249
-0.028717
0.053474
0.0128891
0.0256226
0.0480216
0.0480441
0.0496037
0.0532165
0.012851
0.0475832
0.0508785
0.0545067
0.0732712
0.000624164
0.0474193
-0.0177666
0.0472718
0.00526162
0.0157178
0.0500355
0.0429492
0.00200089
-0.0192844
0.0365604
0.0781231
0.0529439
0.0270569
0.0324428
0.0474132
0.0519909
0.0525672
0.0501123
0.047453
0.0687979
0.0474362
0.125786
0.013443
-0.0885538
0.0474978
0.0587354
0.0476259
0.0479487
0.121501
0.0579633
0.0468823
0.313866
0.134367
0.0377876
0.0640244
0.0392976
0.120394
0.020298
0.00923272
0.0565084
0.054389
0.0473752
0.0492964
-0.0110016
0.046999
0.0496692
0.123479
0.0502282
0.0520027
0.0287295
0.0474954
-0.0344121
0.0475337
0.0496007
0.00842462
0.00985969
-0.0704339
0.110503
0.069824
0.049878
0.00771892
0.0498048
0.0258222
0.00719777
0.0543124
-0.0258417
0.0482508
0.0265882
0.0693303
0.0531253
0.101279
0.0474791
0.0542242
0.0473593
0.0296494
0.0468769
0.0539824
0.0248447
0.0443981
0.0699484
0.0275632
0.0474145
0.0274915
0.0128029
0.0541728
0.00896542
-0.0125062
0.0473763
0.0311482
0.110351
0.00314116
0.05532
0.044114
0.0441898
0.0256893
0.0559698
0.151618
0.053499
0.0477811
0.0477998
-0.0215431
-0.00721798
-0.021606
0.281713
0.100502
0.0511298
0.026568
0.0114141
0.0481625
-0.0587714
0.0523977
0.104984
-0.000376633
0.0496644
0.143898
-0.00684446
-0.0159484
0.0235622
0.0296411
0.0480482
0.046916
0.0614325
0.0474051
0.0473639
0.137122
0.050393
0.0631319
0.0466967
0.0380468
0.0454003
0.36493
0.0400483
0.0421428
-0.00839924
0.103672
0.0947274
0.0344512
0.109187
0.0478441
0.0464227
0.00507379
0.0728778
0.124198
0.0492193
-0.000547741
0.040596
0.0510002
0.0508466
0.0475448
0.0650926
0.0401544
0.0479576
0.0304458
0.257127
0.0480777
0.0122598
0.0321529
0.0473358
0.0620061
0.0505252
0.0277967
0.047648
0.0474654
0.0159136
0.0296695
0.0908663
0.141688
-0.22324
0.0540916
0.0636829
-0.0386843
0.0332704
0.0504451
0.0406992
-0.000856353
0.0474553
0.0516207
0.0473683
0.0304055
0.0654087
0.0194075
0.0474452
0.0599829
0.0344247
0.0528857
0.119289
0.0438419
0.0471404
0.0474441
0.0298174
0.0233497
0.308002
0.0593073
0.0820361
0.00612802
0.00504862
0.0472341
0.100036
0.047443
0.0474129
0.0480284
-0.00123506
0.0532631
0.0351079
0.00728516
0.0204469
0.00666404
0.030456
0.0647536
0.113741
0.0454065
0.0121843
0.0912876
0.0329948
0.12808
0.0519949
-0.155021
0.14259
0.1346
0.0467748
-0.109924
0.0061127
0.00818519
0.136906
-0.00037311
0.0580285
0.054682
0.0381454
0.0365144
0.0337697
0.212263
0.0744044
0.0523549
0.0148408
0.0527886
0.036174
0.024636
0.093262
0.0359126
0.0674159
0.0832231
0.00618023
0.0966295
0.0320735
0.0483451
0.0588525
0.047483
0.0454284
0.0458273
0.0527956
0.0196255
-0.0489895
0.0472245
0.165632
0.0465116
0.0399611
0.0107318
0.0305691
0.0337471
0.0455525
0.00771586
0.0126162
0.251174
0.047449
0.00948662
0.0365562
0.0144974
0.0480416
0.04767
0.150576
0.0243377
0.0328836
-0.117138
0.0270129
0.0395672
0.136215
0.0158503
0.12052
0.0540504
0.0192228
0.0371534
0.0444956
-0.0276273
0.00740706
0.0203174
0.0334308
0.0468284
0.00657016
0.00619287
-0.000867192
0.0390793
0.0372227
0.416425
-0.036954
0.0464733
-0.0131415
0.021407
-0.102691
0.0473394
0.0321233
0.0328059
0.0473235
0.00417608
0.0285256
0.0520105
1.03583e-05
-0.0225125
-0.0013895
0.0546285
0.0240743
0.0480862
0.0432402
-0.0235147
0.0826848
0.0302086
0.00737014
0.146604
0.0249742
0.0206305
0.021891
0.00771118
-0.0270449
0.0456324
0.0223884
0.0173016
0.0922192
0.277306
0.0137381
0.0352203
0.0213991
0.0473374
0.0927974
0.0317085
0.00952677
0.047155
0.0357447
0.00676503
0.0143951
0.14863
0.0111164
0.0303899
0.029866
0.0529977
0.00370834
0.0272983
0.0741989
0.058594
0.05476
0.0108994
0.0363648
0.0415688
0.0381806
0.0475685
0.00662281
0.0622496
0.0300207
-0.00412199
-0.0441424
0.0419653
0.0300733
0.0174818
0.0246178
0.0474708
0.0996735
0.0988927
0.0726309
0.0480222
0.227678
0.00729328
0.0535287
0.0897866
0.0468573
0.0563644
0.033186
0.0268281
0.0548419
-0.100792
0.0489555
0.0585389
0.0423526
-0.0112096
-0.0295324
-0.000422136
0.062302
0.0097653
0.048059
0.0297834
0.0744187
0.0489846
0.149503
0.0182635
0.028213
0.00874428
0.0659437
0.0226602
0.0381531
0.0470631
0.0472078
0.0469976
0.0626801
0.12375
0.0172197
0.146597
0.0832802
0.0893918
0.0496579
0.0691864
0.00753216
0.0474584
-0.0246947
-0.0192823
0.0509028
0.0474062
0.0393305
0.0453159
0.0472028
0.064301
0.0346583
0.131607
0.0172804
0.0356488
0.0887203
-0.0105713
0.00601497
0.0866389
0.0144839
0.0248213
0.0706003
0.0469332
0.0618546
0.0288372
0.122188
0.129346
0.21947
0.047246
0.127145
0.0331633
0.032367
0.104329
0.10736
0.100038
-0.0240539
0.021732
0.0675664
0.022184
0.0391605
0.0461533
0.0909425
0.0467291
0.0179564
-0.0290724
0.0585301
-0.0246899
0.0463413
0.0836793
0.0536738
0.0314613
0.102313
0.163519
0.0219507
0.0428332
0.0184642
0.0340498
0.0717584
8.8218e-05
0.0821148
-0.00206942
0.0472617
0.0221617
-0.138985
0.0991353
0.0360423
-0.0413788
0.0108247
0.041591
0.0461675
0.104539
0.0930105
0.0342497
0.0574154
0.0492496
0.00629389
0.0432065
0.00487043
0.0808844
0.0360611
0.141668
0.0472575
0.0440341
0.00621435
0.0375926
0.037998
0.0654898
0.0555976
0.0305232
0.167251
0.107565
0.0470556
0.00608617
0.0429754
0.046983
0.133468
0.0468236
0.0229192
0.0256459
0.0466908
0.0468761
0.0512397
0.00810949
0.0606187
0.0977301
0.0287843
0.130262
0.0328266
0.0338346
0.0375139
0.0783945
0.0475065
0.0394678
0.0373181
0.0275002
-0.021773
0.0100982
0.065872
0.0450397
0.0549256
0.0322523
0.0423222
0.0603529
0.0228959
0.106233
0.032672
0.0470158
0.00912278
0.0867391
0.00791349
0.0472211
0.135216
-0.0225691
0.0444316
0.0980305
0.00641552
0.0519763
0.0962689
0.00402569
0.0890995
0.113957
0.00463173
0.0481419
0.0788609
0.0760069
0.0145226
0.0440265
0.0320139
0.0472187
0.0471961
0.0469424
0.014901
0.0183824
0.0212014
0.0822884
-0.0640335
0.168962
-0.0644073
0.0283907
0.0433772
-0.0427589
0.0504284
-0.0964205
0.0337868
0.0238391
0.0197843
0.0293998
0.0646976
0.0402811
0.0330906
0.0530417
0.0471882
0.0776639
-0.0386073
0.0152388
0.00702613
0.0186644
0.0512862
0.0284652
0.017443
0.0534769
0.0250598
0.0383584
0.118668
0.0856897
0.0808613
0.0929612
-0.00185829
-1.75759e-05
0.00646611
0.0240226
-0.00467649
0.0164266
0.0581931
0.0435904
0.130933
0.0736914
0.00767368
0.0476207
0.0956072
0.127095
0.0736795
0.0792444
0.0559806
0.0180757
0.114219
0.0297949
0.0244722
0.0344044
0.0336556
0.0462928
0.0291601
0.0302622
0.0528024
0.0214479
0.0307842
0.0429285
0.10424
0.0431554
0.041399
0.0753915
0.0550336
0.0465997
0.0498081
0.00269863
0.0171799
0.0481988
0.0716835
-0.0527427
0.00713427
0.0550038
0.0208429
-0.0195508
-0.040682
-0.0056871
0.0337454
0.0352658
0.0540243
0.0338822
0.0264505
-0.000299486
-0.00129527
0.00381551
0.0010489
0.0351691
0.0460772
0.0457776
0.129345
0.0614342
0.0350985
0.0382029
-0.000291321
0.0438929
0.0279968
0.149058
0.0867846
0.0120578
0.0530095
0.0177005
0.0468208
0.00914787
0.000847566
0.0286488
0.0469235
0.0584017
0.166246
0.0406615
0.0887023
-0.017042
0.0473282
0.0351554
0.0939307
0.101283
0.0698142
0.0483055
0.0439832
0.0451139
0.0479598
0.0469842
0.0411442
0.00790267
0.0469028
0.0557642
0.0525567
-0.325134
0.118806
0.045201
0.0472401
0.0114678
0.0183424
0.024317
0.0765192
0.0190096
0.0463008
0.0411941
0.00542155
0.0478723
0.015506
0.0929299
0.0708696
0.0453719
0.0138294
0.0476011
0.0394603
0.0376141
0.0405912
-0.00275752
0.0592966
0.0353595
0.0338939
0.110812
0.0811695
0.046804
0.0473876
0.0364975
0.0325007
0.0153756
0.0208638
0.040031
0.0083037
0.0798061
0.0479908
0.0377205
0.00679613
0.0389177
0.0847709
0.0630144
0.0504842
0.150675
0.0230955
0.125573
0.139988
0.0285619
-0.00262033
0.00016189
0.125464
0.0391969
0.00727692
0.0740599
0.0364923
0.0236078
0.0897183
0.0717502
0.0499475
0.00320943
0.0321199
0.029226
0.0406578
0.00715437
0.0492437
0.0800244
0.0490385
0.0570476
0.0856259
0.0538026
0.0411594
0.105929
0.00830616
0.0910816
0.0297694
0.0718501
0.00936458
0.0611946
0.0130019
0.0486997
0.0314426
0.0104257
0.0670404
0.0279459
0.0486505
0.0420445
0.0168146
0.0460281
0.0353999
0.0558723
0.0367495
0.0236005
-0.000832857
0.0952703
0.1041
0.100482
0.0410704
0.0399116
0.0358283
0.0203177
0.029534
0.0477014
0.0534586
0.0697295
0.0254486
0.0583104
0.00545148
0.0318998
0.0566058
0.0336387
0.0329247
0.0438808
0.0310613
0.0377108
0.134112
0.259291
0.0236373
0.027391
0.029867
0.0337529
0.0381057
0.0368718
0.0343356
0.0239341
0.014848
0.0457694
0.0472238
0.046064
0.00708162
0.0472468
0.0304424
0.0415874
0.031576
0.0590654
0.034424
0.122828
-0.00674539
0.0468159
0.0355769
0.0905886
0.0415118
0.0603814
0.0895362
0.052383
0.0471094
0.0304869
0.0075926
0.0864521
0.0043316
0.115094
0.0835762
0.00430942
0.0625061
0.0681232
0.01245
0.0427263
0.0470228
0.0486662
0.0366994
0.0466763
0.0329283
-0.0389069
0.0457168
0.0795571
0.0429723
0.0616223
0.0623506
0.161439
0.053724
0.0418752
0.00619459
0.0153013
0.0866341
0.0318592
0.0831116
0.0485577
0.0379251
0.0646189
0.0456414
0.0333846
0.0480039
0.0485951
0.032277
0.0466277
0.0350753
0.0613221
0.0807267
0.0162711
0.0463535
0.00773304
0.00207518
0.0673431
0.0604827
0.0497909
0.0678371
0.131962
0.0472085
0.0406111
0.0459632
0.0601206
0.0386864
0.0358577
0.0390087
0.0734786
0.0830779
0.0329811
0.0789282
0.0899207
0.0595241
0.10824
0.0572219
0.0781205
0.0294404
0.0422252
0.0225048
0.0480929
0.0641658
0.0489559
0.0828929
0.00251475
0.0544123
-0.0122398
0.0431267
0.0276645
0.117441
0.00861231
0.0461429
0.0468334
0.00587158
0.107206
0.0279301
0.0302702
0.0176872
0.0446332
0.0817615
0.0377745
0.0453788
0.0364086
0.00954831
0.0416208
0.040224
0.390193
0.0389248
0.0489989
0.0584578
0.0640609
0.0425683
0.0324222
0.0472349
0.101927
0.0431515
0.0472168
0.0151254
0.0370758
0.0298497
0.0411266
0.0624573
0.0411982
0.0440853
0.0434657
0.0344567
0.0797059
0.0472611
0.0388549
0.0573204
0.0452022
0.039352
0.053835
0.0542924
0.0588987
0.0593371
0.0473342
0.0427668
0.0498881
0.0298519
-0.00159619
-0.000747432
0.145802
0.074133
-0.00906594
0.0315319
0.0467267
0.0502423
0.0576545
0.0735076
0.047676
0.0286639
0.0756499
0.0565363
0.0269908
-0.00965138
0.0224523
0.0465783
0.0375766
0.0471037
0.0936983
0.232174
0.0390926
0.0565993
0.043228
0.0074126
0.0468416
0.0720093
0.0284062
0.0445023
0.0478464
0.0340334
0.0965759
0.0389104
0.0559024
0.0267201
0.0419616
0.0430001
0.0873903
0.0603221
0.0399171
0.049596
0.0387598
0.0534129
0.0380925
0.0475955
0.039513
0.0469095
0.053515
0.0121572
0.0679857
0.0181024
0.0734401
0.0733297
0.0517882
0.0385905
0.0358314
0.0767343
0.0918195
0.0114123
0.0410561
0.0569095
0.0574533
0.0400827
0.0456282
0.0432665
0.0375053
0.0288496
0.0289229
0.0430729
0.0157089
0.0390166
0.0786221
0.0406306
0.0426372
0.0397723
0.0247344
0.0835525
0.0529978
-0.000676372
0.0388488
0.0403945
0.0120591
0.0504135
0.000986179
0.0497883
0.0408923
0.0460736
0.0456252
0.048267
0.0419344
0.00574716
0.0472318
0.0220277
0.0715558
0.0499205
0.0573081
0.0339924
0.0958694
0.059952
0.0476974
0.0354064
-0.0659142
0.047389
0.00654617
-0.0799928
0.0651484
0.0849656
0.0513954
0.0410607
0.0304917
0.0710611
0.0579475
0.0475744
0.0918925
0.0119797
0.0814144
0.0472712
0.0465545
0.0429059
0.043558
0.0440856
0.0654419
0.0763551
0.0456143
-0.00140723
0.0440869
0.0519026
0.0414732
0.0330045
0.000554116
0.0466366
0.0409872
0.0247959
0.0404372
0.0457641
0.0499087
0.127289
0.0733398
0.0477783
0.0620545
0.0524619
0.0410416
0.0753794
0.0588623
0.0433772
0.062203
0.0369256
0.0619542
0.0846186
0.00307763
0.0245962
0.047883
0.0696132
0.0458866
0.0500461
0.0488392
0.0418391
0.00188044
0.000443159
0.0579043
0.0333298
0.0362595
0.0286172
0.0463666
0.0457435
0.0477867
0.0711055
0.0354607
0.0473101
0.0409315
0.0532245
0.0244183
0.0108006
0.0473449
0.0467646
0.0366222
0.0472351
0.0457459
0.042215
0.0442076
0.039451
0.0653096
0.061031
0.0347522
0.0450378
0.0516538
0.0581366
0.0409707
0.0472486
0.0424927
0.0316905
0.00146882
0.00619137
0.0360976
0.122994
0.0414142
-0.0589232
0.0882923
0.0408441
0.039863
0.0523925
0.0473361
0.0473497
0.0538914
0.0559513
0.0407553
0.0491589
0.04636
0.0962532
0.00613159
0.0341568
0.0475048
0.0537356
0.0618815
0.0696704
0.0332759
0.0498453
0.0471687
0.0454667
0.0418418
0.0297414
0.0274439
0.00621103
0.061057
0.0455128
0.0389586
0.0552684
0.0522285
0.0514326
0.0442072
0.0571178
0.0473364
0.0163423
-0.00237081
0.0463513
0.065676
0.0404741
0.0436743
0.0451194
0.0487829
-0.0480676
0.0626438
5.73601e-05
0.0426846
0.010364
0.0509427
0.0701148
0.12777
0.0540887
0.04755
0.0313198
0.0240491
0.11099
0.0402286
0.0659956
0.0440089
0.0468041
0.0647061
0.0445631
0.121877
0.000283626
0.0784984
0.0509055
0.0464315
0.0473008
0.0460365
-0.0252456
0.0385143
0.0466829
0.0547976
0.0453106
0.0467904
0.0465426
0.0115406
0.00395619
0.0530009
0.0461899
0.0813837
0.0546408
0.10117
0.380751
0.0232575