/*--------------------------------*- C++ -*----------------------------------*\
  =========                 |
  \\      /  F ield         | OpenFOAM: The Open Source CFD Toolbox
   \\    /   O peration     | Website:  https://openfoam.org
    \\  /    A nd           | Version:  7
     \\/     M anipulation  |
\*---------------------------------------------------------------------------*/
FoamFile
{
    version     2.0;
    format      ascii;
    class       volScalarField;
    location    "1.238";
    object      p;
}
// * * * * * * * * * * * * * * * * * * * * * * * * * * * * * * * * * * * * * //

dimensions      [0 2 -2 0 0 0 0];

internalField   nonuniform List<scalar> 
12359
(
0.066625
0.0757065
0.0510602
0.108564
0.0701689
0.155285
0.18661
0.169701
0.22649
0.143153
0.207581
0.278238
0.48649
0.115781
0.103287
0.396624
0.440682
0.0551656
0.0548158
0.0886001
0.124126
0.251782
0.0818095
0.0939972
0.0784229
0.0848996
0.0520971
0.0519667
0.0541687
0.0525601
0.0529375
0.0515148
0.0512048
0.0523538
0.0510879
0.0531131
0.0600739
0.064906
0.0684645
0.0624239
0.0737049
0.0635176
0.0577865
0.0571083
0.053581
0.0538618
0.0533615
0.0527894
0.0544758
0.0522148
0.0518529
0.0517382
0.0514453
0.0555359
0.0513694
0.0512301
0.0565365
0.0511901
0.0511866
0.0511226
0.0512693
0.0510868
0.0517827
0.516177
0.056025
0.132977
0.059375
0.0516605
0.0607743
0.349288
0.53135
0.0718593
0.0510522
0.0616032
0.0986555
0.0510955
0.0514441
0.0510658
0.058699
0.31851
0.125283
0.0467743
0.0501898
0.0516358
-0.0571226
0.0233123
0.0465916
0.0489027
-0.0689581
-0.0514058
0.050863
0.478188
0.0508052
0.050535
0.0504229
0.00435193
0.0500168
0.0506438
0.0587748
0.0554958
0.107853
0.0509542
0.0244127
-0.122291
0.0462089
0.013129
0.0499332
-0.0558443
0.0268914
0.0135869
0.0501142
0.0468255
0.110649
0.0916279
0.0507794
0.0475543
0.0934019
0.045881
-0.0741963
0.0502223
0.0502541
0.17528
0.0487527
0.00503366
0.0455801
0.0475115
0.0383255
0.0514365
0.0510519
0.045496
0.0479669
-0.00229179
-0.00393541
-0.00273062
0.0499871
0.0060284
0.0478276
0.00600622
0.0509828
0.0386082
0.0503519
0.0678176
0.014478
0.0499424
0.00844626
0.147569
0.0502017
-0.0458802
0.0459681
0.127168
0.00236259
0.0509662
0.0145618
0.0486996
0.050766
-0.161658
0.108966
-0.00146516
0.0501374
0.0515908
0.0461869
0.051634
0.00364792
0.0115004
0.0501737
0.0476333
0.0473952
0.174203
0.0131083
-0.0706275
0.0510637
0.0510881
0.0118024
0.0785291
0.0465384
0.0423901
0.0541709
0.0539522
0.112112
0.0429707
0.115851
0.0507457
0.0510533
0.0464834
0.0577194
0.206158
0.0453888
0.0496293
0.00230946
0.0451332
0.0499191
0.00457177
0.00754411
0.0486316
0.0122741
-0.130156
0.0329192
0.0463881
0.0151523
0.0459835
0.151686
0.00180438
0.0565952
0.0132158
0.0118718
0.0507255
0.010841
0.0571918
0.00193955
0.0443835
0.0504914
0.000113392
0.000263139
-0.529591
0.203615
0.0509896
0.0459328
0.0507512
0.0456967
0.0686996
0.10195
0.0445547
0.00478996
0.468856
0.0453123
0.0504697
0.0694597
0.0286845
0.0460957
0.047161
0.0469608
0.0501827
0.0093056
0.0566324
0.049027
0.0558115
0.0502168
0.0140251
0.0491989
0.29304
0.0501393
0.02182
0.049653
0.0551458
0.0451118
-0.0463484
0.0511638
0.00181097
0.0472821
0.00836029
0.00160796
0.0641727
0.0536072
0.0474768
0.324643
-0.577111
0.0502295
0.0446211
0.400061
-0.053163
0.0561726
0.0461126
0.0458741
0.0119642
0.0768806
-0.456146
-0.0689751
0.0450543
0.0449249
0.00635194
0.011889
0.0616874
0.0132191
0.0476053
0.0444487
0.0501935
0.0446395
-0.114115
0.0438344
0.0498761
0.0509419
0.011377
0.041949
0.0594611
0.0218563
0.0502882
0.0481768
0.0509607
0.0509428
0.0515602
0.00359979
0.0465329
-0.45749
0.0499519
0.0498784
0.024669
0.0472033
0.101646
0.0506201
0.0519042
0.0508839
-0.102962
0.045146
0.0508822
0.0461361
0.0502417
0.0474962
0.0473806
0.0478559
0.0470485
0.0551715
0.205062
0.0472514
0.0530199
0.0647737
0.022329
-0.0565166
0.0472604
0.0596973
0.372147
0.0509333
0.018825
0.049794
0.0332275
0.0499143
0.0466824
0.228912
0.0180643
0.206725
0.0590089
0.0493717
0.00590602
0.00176769
0.0492433
0.00597266
0.00709334
0.0496455
0.0513344
0.051328
0.0513901
0.0513743
0.292854
0.0502652
0.105572
0.000902861
0.0566083
0.0128685
0.0182409
0.0253138
0.0340186
0.017317
0.0345839
0.0585262
0.0202269
0.021635
0.093448
0.0687483
0.0151658
0.0669502
0.0668007
0.0158247
0.105377
0.0472599
0.0514311
0.031426
0.051394
0.046957
-0.187414
0.503099
0.0471566
0.0510225
0.0500051
0.0506391
0.0171229
0.050771
0.0507555
-0.074953
0.0119842
-0.0475488
0.0488921
0.00985777
0.0421223
0.049919
0.0157834
0.0311151
0.111761
0.0314161
0.0474713
0.0498223
0.0114907
0.00926479
0.0450335
0.29758
0.015509
0.00317569
0.0507962
0.0477424
0.0510035
0.385071
0.013265
0.0489839
0.0631944
0.0658872
0.0503699
0.0503391
0.0505788
-0.0563064
0.0997645
0.060722
0.0177363
0.000176184
0.0505501
0.115759
0.0502122
-0.000116261
-0.0609666
0.30443
0.0553406
0.0929245
0.0276034
0.0225064
0.0360556
0.0310562
0.0526251
0.0359909
0.0148251
0.0507765
-0.0540162
0.0599848
-0.00680096
0.00808428
0.0569591
0.097456
-0.146085
0.0169255
0.0401472
0.00222949
0.0077305
0.0189001
0.0459285
0.0505284
0.0532304
0.0499322
-0.00305477
0.0479696
0.0844004
0.08679
0.0363629
-0.054552
0.105488
0.0552365
0.0492643
0.39503
0.0497686
0.0488325
0.00519922
0.0510289
0.0491734
0.0488306
0.237456
0.207236
0.0512117
0.0488275
0.110827
0.0490088
0.0179623
0.01455
0.0125221
0.0496103
0.0506233
0.0487452
0.0508904
0.0863698
0.0186431
0.0221537
0.0537939
0.0523185
0.00262283
0.0527059
0.0481035
0.0447673
0.121374
0.00448149
0.0509668
0.0484615
0.0110336
0.0298796
0.0494533
0.047652
0.113804
0.0182893
0.00665118
0.0207934
0.0496025
0.0483245
-0.00542457
-0.00446727
0.0508867
0.0373266
0.0503486
0.00324676
0.282481
0.0505611
0.0481143
0.0496922
0.0140768
0.055107
0.0543244
0.047723
0.0501258
0.0299536
0.0772383
0.0388743
-0.0348377
0.049955
-0.0402449
0.0490256
-0.116238
0.017062
-0.0025147
0.0511725
0.0535995
0.0217312
0.0466173
0.0518385
0.058155
0.0552744
0.0555856
0.0717088
0.0139863
0.0136323
0.0502051
0.0463254
0.0184339
-0.00353254
0.0502052
0.0498355
0.0112088
0.0496688
0.224687
-0.150069
-0.118585
0.0502037
0.0422688
0.0010733
0.0546368
0.0467678
0.452651
0.049925
0.1147
0.089561
0.0421442
0.0472057
0.0519648
0.0367516
0.000443708
0.0301138
0.053029
0.0502346
0.0510561
0.054954
0.0541548
0.05606
0.0134854
0.0516081
0.0498998
0.0204529
-0.0859914
0.0529126
1.17002e-06
0.0500297
0.0535463
0.0953341
0.00149747
0.0015521
0.0975518
0.0467724
0.00143224
0.0504053
0.0511235
0.00255951
0.0374853
0.0462013
0.0374265
0.050688
0.0498556
0.0472038
0.0500472
0.00136944
0.104435
0.0603472
0.119097
0.0151133
0.0401098
0.113661
0.0640785
-0.00543681
0.0126723
0.0651048
0.0546861
0.0511354
0.0382492
0.020817
0.050198
0.0510368
0.0496484
0.0511698
-0.0157253
0.0377698
0.0337296
0.105843
0.0584241
0.234778
0.0031504
0.00156812
0.0470457
-0.00170836
0.0506711
0.0510333
0.0497786
0.106396
0.115405
0.0472481
0.0304175
0.228834
0.0150856
0.00604282
0.0389618
0.0660152
-0.126862
0.0493503
0.0520858
0.0507093
-0.00994692
0.051966
0.0311261
-0.0541422
0.0498635
0.0786345
0.0579091
0.0420212
0.0531441
0.0475668
0.0514373
0.0547527
0.0514906
0.0513771
0.0541916
0.00544719
0.00924601
0.0420205
0.33782
0.000960405
0.415585
0.0164897
0.0225499
0.0544604
0.0177334
0.057594
0.00499994
0.320147
0.0994407
0.0568051
0.0442672
0.0554376
0.0541364
0.0213923
0.0505256
-0.00898038
0.051499
0.100494
0.0491646
-0.0141699
0.00763513
0.0108505
0.056649
0.0394363
0.00818412
0.0783779
0.00577655
0.0408695
0.00308078
0.0436086
0.0502442
0.0507637
-0.20293
0.0711177
0.042902
0.0501618
0.0516928
0.0557693
0.0839946
0.00913687
0.0158084
0.0496295
0.0444753
0.056101
0.0428762
0.0394615
0.00191611
0.0569308
0.0581622
0.00872367
0.0443033
0.0410008
0.104833
0.0502062
0.0569921
-0.255821
0.0511627
0.00726732
0.0518764
0.0414201
0.0897881
0.00929481
0.0516469
0.018758
0.0506729
0.112186
0.045851
0.00878675
0.0105754
0.113346
0.0505518
0.000878646
-0.00593044
0.057069
0.0430544
0.0458159
0.0367529
0.23898
0.0548786
0.0510028
0.0556729
0.0507887
-0.124261
0.0423678
0.0105671
0.031385
0.0165472
0.518824
0.042541
-0.0546094
0.00927051
-0.0932098
0.0176348
0.0529151
0.0425145
0.0306291
-0.0470343
-0.0356611
0.0491039
0.0487828
0.118881
0.0484488
0.212665
0.0198216
0.0706874
0.0461784
0.407151
-0.101868
0.0429803
0.050249
0.0504211
0.0945185
0.0558096
0.0605342
0.0529698
0.0140869
0.0778768
-0.0306531
0.356503
0.0496966
0.0837011
0.0140446
0.120908
0.0444729
0.115061
0.0069476
0.0959131
0.0533702
0.0501634
0.00921018
0.00646219
0.0161318
0.118406
0.0130876
0.0230773
0.0518851
0.0498343
0.0388553
0.244132
0.0388756
0.0114722
0.0673132
0.0191546
0.0351768
0.0536155
-0.00506929
0.0321007
0.0439357
-0.0154199
0.0587444
0.0255639
0.20071
0.0502346
0.0319211
0.0507379
0.0577981
0.0476909
0.0513667
0.0502025
0.00229019
0.0450894
0.0785685
0.0122134
0.0956006
0.0304703
0.03107
0.0100626
-0.184189
0.0511467
0.0574503
0.023138
-0.0683695
0.00688056
0.0504742
0.506797
0.0501751
0.0459182
-0.153953
0.0558148
0.0507537
0.050813
0.0659909
0.0901366
0.0511711
0.0567591
0.109618
0.051374
0.0539154
0.0534861
0.0493509
0.0912649
-0.0169478
0.0549462
0.117024
0.00930512
0.00485021
0.00616072
0.0151632
0.0533718
0.0457329
-0.0399219
0.00408162
0.0738355
0.0495151
0.051197
0.118858
-0.00144382
0.0331119
0.0376888
0.0327077
0.05292
0.0442501
0.0846714
-0.226684
0.362169
0.0833177
0.0506912
0.044231
0.0805786
0.349403
0.112039
0.0504932
0.000103121
-0.0122417
-0.242012
0.0356736
-0.14758
0.0511661
0.0533394
0.0512092
0.00701226
0.0755358
-0.156991
0.0466554
-0.0828463
0.048225
0.0512354
0.00999476
0.0550345
0.000912116
-0.0424053
0.0565687
0.0346226
0.0232494
0.0361339
0.0563846
0.0762893
0.0733866
0.0304091
0.0797049
0.0566007
0.0512441
0.0536445
0.0517365
0.105346
0.0209892
-0.00717545
0.00321987
0.0865084
0.0243372
0.0225538
0.0430361
-0.0104816
0.0338564
0.0559302
0.0507224
-0.000441898
0.10979
0.0469226
0.0404808
0.0575058
0.0232397
0.103495
0.116609
0.0230962
0.24138
0.0217394
0.0874541
-0.0395636
0.0547128
0.0191736
0.0108556
0.0485927
0.0337255
0.038497
0.044554
0.0504013
0.0468288
-0.0138086
-0.00141353
0.0462089
-0.137025
0.101118
0.0516331
0.0514963
0.00159354
0.0515444
0.0784996
0.0132749
0.00535904
0.0514904
0.0537612
0.0501405
0.0515518
0.119516
-0.132383
0.0516455
0.057802
0.0502114
-0.142725
0.0213943
0.0138641
0.0499586
0.0515469
0.0532138
0.0244327
0.0855841
0.0279577
0.0487972
0.053713
0.0514397
0.0208798
0.0854287
0.0385391
0.051029
0.0302545
0.0250238
0.0759158
0.0472999
-0.0164971
0.14592
0.0486859
0.0325965
0.0534755
0.0439326
-0.173735
0.0564458
0.0516842
0.0103075
0.105525
0.0831717
-0.135938
0.0772342
0.0347297
0.0274384
0.057497
0.0400579
0.0343689
0.0567372
0.147222
0.0509024
-0.325874
0.0841299
0.181824
0.0400541
-0.00567201
0.0962706
-0.00193129
0.262249
0.00625816
0.0250827
0.0332654
0.038796
0.0501742
0.0443691
0.0888108
0.000979796
0.0568956
0.0486787
0.00559831
0.0164324
0.00559505
0.0809085
0.000332001
0.00526334
0.0496443
0.0712152
-0.0504965
0.0880183
0.0501651
0.0342558
0.0543178
0.0501735
0.0698418
0.051152
0.0444085
0.244622
0.0924454
-0.0170391
0.0511853
0.0506616
0.0508026
0.0570621
0.0545849
-0.00213497
0.0547067
0.0505726
-0.0158533
0.0212201
0.00378789
0.0695495
0.0506415
0.0422636
0.0919979
0.0337789
0.0512141
-0.0414099
0.00926753
0.112264
0.0510149
-0.23198
0.0981277
0.0507639
0.00243557
0.0381838
-0.0248948
0.035503
0.000859212
0.0950712
0.0499724
0.0527951
0.0205083
0.040396
0.0555146
-0.00704843
0.0559473
0.0561069
0.0974297
0.0482964
0.0542708
0.0352877
0.00867807
0.0503044
0.0560089
0.0539837
0.0500767
0.096965
-0.0409186
0.0257563
0.057185
0.0543942
0.0420668
0.0502476
-0.189529
0.0802068
0.0509536
0.0716824
0.0422117
0.0999891
0.153432
0.000504241
0.0560214
0.0053403
-0.00185702
0.0499071
0.040748
-0.000648412
0.0471742
0.0510053
0.0735062
0.0266606
0.0546065
0.0510315
0.0415535
0.0848178
0.0515795
0.0318304
0.0511695
0.0380864
0.067935
0.13266
0.0506104
-0.19678
0.0809866
0.0155595
-0.116522
0.0934202
0.0313492
-0.0303239
0.0576283
0.142359
0.209588
0.0542581
0.0447545
0.0446874
0.0527944
0.0547027
0.00650465
-0.0767638
-0.137588
0.00824901
0.148702
-0.00681263
0.0097237
-0.0582696
0.050512
0.0530144
0.0481284
0.0243552
0.050364
0.00765493
0.0362252
-0.0113038
0.0502599
0.053501
0.0485645
-0.143088
0.120109
0.0788774
0.0623968
0.122288
0.0449973
0.0515786
-0.0157089
0.0360049
-0.0114918
0.00693963
0.0210524
0.00442962
0.0140638
0.0580931
0.0499317
0.0503177
-0.120576
0.0419944
0.0398334
0.0538594
0.000602208
0.0180291
0.0506481
0.0187594
-0.0128598
-9.85554e-05
0.0951755
0.0539979
0.050723
0.00448627
0.0572226
0.050505
-0.00025795
0.00734518
0.0542443
0.139041
0.000635128
0.0507591
0.0507224
0.0500577
0.108005
-0.131661
0.0415335
0.00996632
0.0535732
0.0538779
0.00965933
0.0509235
0.180803
0.0138752
-0.0532634
0.154096
0.0294842
0.049961
0.0503483
0.0322294
0.0573418
0.0498954
-0.175507
0.00521868
0.044184
0.221681
0.102038
0.0461412
0.0502034
0.0507555
0.0529813
-0.0735735
0.161283
0.033076
0.0782598
0.0677616
0.00584831
-0.0756104
0.0234837
0.0554523
0.053796
0.0162098
0.0414301
0.0496639
0.0529843
0.00360759
0.0545845
0.0322764
0.0563755
0.0822754
-0.010936
0.0477995
0.0531026
-0.00341332
0.00308089
0.0598583
0.0528355
0.0773559
-0.000708495
0.0390551
0.0171522
0.0747765
0.0147634
-0.0332137
0.0542189
0.158982
0.0499895
0.105895
0.000147493
0.0509016
0.0504364
0.372264
0.0509817
0.0570028
0.0260174
0.0557837
0.0559451
0.0588644
0.050885
0.0507951
0.000175747
-0.0251812
0.048841
0.331487
0.0370759
0.0527885
0.237318
0.0997859
0.0552117
0.0460748
0.0524673
0.0890591
-0.263218
0.0556169
0.0487594
0.0501055
0.0529622
0.0645752
0.0159151
0.0551868
0.0655313
0.053998
-0.150689
-0.00573431
0.00691871
0.111125
0.036785
0.0528809
0.00407992
-0.115539
0.0538932
0.0502862
0.0528135
0.0471969
0.055737
0.0496648
-0.00359322
0.0457238
0.0452239
0.308648
-0.000991662
-0.00922853
0.0035763
0.0555814
0.000776464
0.0874148
-0.0870017
0.0485286
0.0095783
0.0509114
0.243398
0.050255
0.050322
0.0306046
0.0501416
0.02525
0.0602619
0.0558488
0.0484175
-0.0918268
0.0876277
0.00982164
0.0530594
0.0356406
-0.0582923
-0.00733747
0.0794854
0.075624
0.0509984
0.0564312
0.0475982
0.0528444
0.0488161
0.0530221
0.0907513
0.0754716
0.00676718
-0.103379
0.0246518
-0.00811235
0.0325783
-0.108075
0.0496167
-0.0292393
0.052901
-0.0105891
-0.00606924
0.0246566
0.0505351
0.0290309
0.0101824
0.0313245
-0.0157931
0.234174
-0.101444
0.0528511
-0.00153722
0.0468672
-0.00493539
0.091046
0.00418906
0.0462771
0.0587688
0.00883601
0.0536542
0.0363928
0.050811
0.0452352
0.0503136
0.0565581
0.00596149
0.00102487
0.0505282
0.0851951
-0.0820998
0.496655
0.0499332
0.0739997
0.0261046
0.194531
0.0313003
-0.176455
-0.0338178
0.0481863
0.0239286
0.0674761
0.176941
0.0494945
0.0682472
0.0785175
0.0485534
-0.0856194
-0.00476908
0.0528548
0.025663
-0.034869
0.0769081
-0.0878719
0.0376375
0.0797168
0.0550532
0.0499364
0.0565354
0.0450343
-0.0731799
-0.000526604
-0.0630931
0.0514801
-0.0842335
0.0295711
0.00384797
0.111397
0.0242079
0.0269834
-0.0543573
0.037502
0.035724
0.00473369
0.070518
0.02546
0.00847142
0.0706174
-0.088496
0.085843
0.0343452
0.0888793
0.0514522
0.114111
-0.000106982
0.101877
0.054088
-0.0356122
0.0505624
0.0334164
0.0070141
-0.00105765
0.0580573
0.00556016
0.0459523
0.507661
0.0565661
0.00433682
0.092062
-0.000102926
0.00684432
0.0505853
0.0309871
0.0503138
0.464262
0.0507144
0.0504452
0.0500584
-0.0142521
0.0452723
0.0441433
-0.0120082
0.027163
0.0647609
0.0449914
0.0503667
0.107503
0.0489195
0.104797
0.00812956
0.0867003
0.0396847
0.0422074
0.0252148
-0.0126586
0.00897113
0.0435207
0.527221
0.0506923
0.050427
0.0566073
-0.135488
0.0541125
0.029621
0.0793941
0.0546021
0.0417973
0.00265789
-0.0226648
0.0330706
-0.0459781
0.0555179
0.0457249
0.0131187
0.0181499
-0.000717789
0.0528355
0.0236613
0.0726807
0.194456
0.0367952
0.0504666
0.0451549
0.178373
0.0510256
0.0510309
-0.0347006
0.0318615
-0.0393942
0.0417861
0.0502639
0.189766
-0.0141657
0.046421
0.0558278
0.0487852
-0.109089
0.0510292
0.0335344
-0.0271326
0.051029
0.0503552
0.00894152
0.0499514
0.051039
0.0121302
0.0512813
0.0503289
0.0215994
0.0500265
-0.0124699
0.0502536
0.0586929
0.119885
0.00779763
0.0510401
0.00490731
-0.168976
0.0420107
0.0745095
0.048524
0.0342165
0.0491097
-0.0174313
-0.005761
0.0461176
0.0503489
0.1326
0.0297485
0.0143409
0.0101398
0.130042
0.0499682
0.0056323
0.050334
-0.0198872
-0.00522283
-0.00484026
0.00754066
0.156066
-0.08737
0.00485298
0.00870923
0.0482044
0.053013
0.00053863
0.136537
0.0992027
0.0323903
-0.0720745
0.049873
-0.0622953
0.201148
0.0498581
-0.00789513
-0.0229929
0.0808634
0.00692225
0.00664083
0.0733557
0.0504132
-0.0116285
-0.0637971
0.262293
0.0556066
0.00225671
-0.0308156
0.142725
0.0522862
0.0503299
0.00540316
-0.0527468
0.0409661
0.0691117
0.0505837
0.0499571
0.0570356
0.0553567
0.0246682
0.0561406
0.0503012
-0.0152517
0.0348269
-0.0262917
0.0145999
0.0505949
0.0503653
0.143834
0.0551606
0.0803308
0.0612437
-0.0468209
0.0817972
0.0496847
-0.0218783
0.0595971
0.0503366
0.0266372
0.0387452
0.0416257
0.0947961
0.0247413
-0.140314
0.0408874
0.0501424
-0.0271312
0.0500208
-0.00578522
0.0305963
-0.0251066
-0.0472571
0.096792
-0.0310565
0.0506328
-0.00879255
0.0543793
0.0723743
-0.0233272
0.0196436
-0.0230985
-0.0627107
0.172959
-0.0115655
0.0643431
0.0496593
0.0502254
0.0500025
-0.0310606
0.140828
0.0496794
-0.0142399
-0.0195517
0.0137312
0.00201147
0.0267938
0.109946
-0.0292269
0.0549031
0.0112461
0.0247686
0.0508992
0.0509208
0.0522554
0.0554798
0.00973815
0.0505157
0.0527846
0.0567356
0.0746528
0.000497578
0.0500969
-0.0187265
0.0502515
0.00404949
0.0147721
0.0526249
0.041968
0.00119074
-0.0201294
0.0361453
0.0777903
0.0552533
0.0261612
0.0317071
0.0503812
0.0544384
0.0546748
0.0526954
0.0504108
0.0700462
0.0503966
0.126394
0.012509
-0.089905
0.0504464
0.0599416
0.0505501
0.0504479
0.122418
0.0592386
0.0498332
0.315563
0.134261
0.0374025
0.0652995
0.0387713
0.120765
0.0189498
0.00840666
0.0561933
0.0566279
0.0503451
0.0509937
-0.0117561
0.0499925
0.0523133
0.123381
0.0526558
0.054353
0.0262362
0.0503814
-0.0353457
0.0504768
0.0522573
0.00744591
0.00895174
-0.0719689
0.110308
0.0711897
0.0524791
0.00688521
0.0524203
0.025126
0.00368253
0.0565642
-0.0269559
0.0511082
0.0260226
0.0704837
0.0525444
0.102205
0.0504332
0.0565078
0.0503295
0.0290876
0.0499144
0.0537369
0.0235133
0.0460506
0.0713265
0.0266605
0.0503784
0.0268605
0.0117564
0.0563818
0.00787472
-0.0133259
0.0503467
0.030482
0.110051
0.00246556
0.0569085
0.0440618
0.0440898
0.0244252
0.0575965
0.151519
0.0549808
0.0505631
0.0505923
-0.0219776
-0.00770948
-0.0220283
0.282854
0.101377
0.0509011
0.0254132
0.0105292
0.0509044
-0.0595178
0.0547245
0.104793
-0.000330878
0.0523029
0.144539
-0.00754324
-0.0166306
0.0223212
0.0290302
0.050822
0.0499237
0.061223
0.0503684
0.0503331
0.137077
0.0527458
0.064486
0.0497191
0.0381323
0.045306
0.365849
0.0416811
0.0448378
-0.0091484
0.104517
0.0945159
0.03406
0.109551
0.0504035
0.0464409
0.00423034
0.0732806
0.124516
0.0519547
-0.000650879
0.0400013
0.0507909
0.0527105
0.0504098
0.0646688
0.0416246
0.0508427
0.030074
0.259336
0.0509443
0.011294
0.0313621
0.0500283
0.0637317
0.052992
0.0272725
0.0504541
0.0503534
0.0133298
0.0291889
0.0916814
0.142349
-0.225935
0.0563903
0.0649168
-0.0394098
0.032776
0.0529287
0.040272
-0.000846004
0.0504135
0.0540133
0.0503392
0.0299181
0.0650094
0.0173146
0.0504034
0.0618467
0.0337206
0.0549234
0.1189
0.0462998
0.0501496
0.0504023
0.0291696
0.022035
0.309057
0.0611824
0.0832085
0.00481568
0.00430786
0.0501884
0.0998163
0.0504069
0.050372
0.0509116
-0.00233172
0.0555957
0.0347587
0.00617659
0.0194715
0.00568538
0.0298653
0.0645873
0.114121
0.0477969
0.0106095
0.0922852
0.0325084
0.128319
0.0543614
-0.153104
0.14297
0.134977
0.0498611
-0.111455
0.00525012
0.0073324
0.137655
-0.000329779
0.059232
0.0569596
0.038425
0.0347689
0.0308866
0.212656
0.0743223
0.0547616
0.0137843
0.0548498
0.035316
0.0229359
0.0942011
0.0354101
0.0688225
0.0842441
0.00518865
0.0966248
0.0312238
0.051185
0.0608827
0.04986
0.0453529
0.049096
0.0551582
0.018706
-0.0491569
0.0501082
0.166527
0.0495455
0.0414614
0.00800505
0.029867
0.0331505
0.0488793
0.00671724
0.0116403
0.251914
0.0504017
0.00820957
0.0361132
0.00949662
0.0509194
0.050598
0.151023
0.0230495
0.0320094
-0.120602
0.0264873
0.0390729
0.137925
0.0131758
0.120778
0.0563176
0.0170769
0.0369508
0.0460733
-0.0278542
0.00625239
0.0196298
0.0328366
0.0498428
0.00563653
0.00530635
-0.00104252
0.0396614
0.0368264
0.417696
-0.0377733
0.0495035
-0.0135336
0.019174
-0.106768
0.0503174
0.0317261
0.0322304
0.0502995
0.00332362
0.0269276
0.0537473
-3.43986e-05
-0.023002
-0.00156182
0.0563233
0.0232254
0.0509516
0.0454736
-0.0245709
0.0824765
0.0263154
0.00638929
0.146488
0.0240915
0.019141
0.0207333
0.00660292
-0.0278836
0.0488953
0.0209453
0.014858
0.0930573
0.279587
0.0127564
0.0347284
0.0184343
0.050312
0.0931448
0.0310506
0.00844233
0.0501275
0.0353503
0.00555201
0.0133713
0.149138
0.0101907
0.028655
0.0292895
0.0553554
0.00288164
0.0258075
0.0743268
0.059889
0.0563949
0.0096815
0.0359502
0.04203
0.0384198
0.0504613
0.00521103
0.0631222
0.0289521
-0.00421999
-0.0448642
0.0449236
0.0262519
0.0158654
0.0233453
0.0504266
0.0999689
0.0995848
0.0727299
0.0508967
0.228632
0.0063229
0.0531137
0.0899978
0.0499245
0.0584478
0.0322561
0.0262069
0.0542696
-0.102715
0.0516654
0.0600403
0.0430213
-0.0118997
-0.0300642
-0.000465681
0.0632143
0.0087378
0.0509305
0.0290274
0.0756525
0.0516871
0.149944
0.0163891
0.0274399
0.00764158
0.0676212
0.0212038
0.0377534
0.0500927
0.0502043
0.0470089
0.064084
0.123265
0.0147023
0.14736
0.0835289
0.0905504
0.0523085
0.0704864
0.00660062
0.0503589
-0.0248722
-0.0195361
0.0533778
0.050376
0.0406341
0.048651
0.0501934
0.0655197
0.033971
0.132779
0.0155831
0.0352259
0.0897637
-0.0110672
0.00502709
0.08689
0.0118488
0.0232048
0.0709503
0.0499907
0.0635211
0.026961
0.122917
0.130803
0.219128
0.0502332
0.127557
0.0326396
0.0315056
0.104603
0.108139
0.100108
-0.0247123
0.0204209
0.0675019
0.0201686
0.039787
0.0461623
0.0917594
0.0497618
0.0158899
-0.0296253
0.0602836
-0.0256828
0.0494023
0.084239
0.0556991
0.0297819
0.102847
0.164013
0.0213574
0.0434758
0.0159802
0.0333707
0.0719668
-2.73098e-05
0.0830371
-0.00255346
0.0502464
0.0207322
-0.141782
0.0991362
0.0356392
-0.0419878
0.00988142
0.0420212
0.0493742
0.103838
0.0937691
0.0336914
0.0572935
0.0519862
0.00534246
0.0442987
0.00397822
0.0815696
0.0355417
0.142187
0.0502411
0.0465407
0.00142431
0.0374175
0.0381822
0.0667273
0.0572987
0.0290965
0.168103
0.108015
0.0500737
0.00525239
0.0451744
0.0500304
0.134045
0.0497734
0.021182
0.0241041
0.049744
0.0498717
0.0531701
0.0068801
0.0619557
0.0980983
0.0280015
0.130607
0.0324083
0.0332643
0.0371535
0.0790119
0.0504567
0.0394879
0.0371616
0.0261114
-0.0221982
0.00861671
0.0675015
0.0449708
0.0560167
0.0309603
0.042987
0.0618081
0.0204059
0.10707
0.0320126
0.0500554
0.00765698
0.0878534
0.00685075
0.0502074
0.135818
-0.0230522
0.0466928
0.0988793
0.00545223
0.0544099
0.0969094
0.0031956
0.0899422
0.114862
0.00386149
0.0481956
0.0800138
0.0765947
0.0135483
0.0474801
0.0306624
0.05021
0.0496051
0.0499858
0.0123558
0.0167615
0.0202608
0.0830906
-0.0645934
0.169844
-0.064354
0.0275232
0.0428273
-0.0427664
0.0500301
-0.0996233
0.0327013
0.0224916
0.0174634
0.0281611
0.0653159
0.0420503
0.0324615
0.0550809
0.050186
0.0785825
-0.0387425
0.0126185
0.00582734
0.0163691
0.0531974
0.0275783
0.0157854
0.055801
0.0236564
0.0385349
0.119601
0.0862996
0.0815714
0.0941081
-0.00179373
-0.000200651
0.00538326
0.0221909
-0.00462319
0.0135796
0.0588658
0.0433582
0.13161
0.0749573
0.00663308
0.0504856
0.0961368
0.127461
0.0745481
0.080128
0.0577669
0.0162897
0.115016
0.0278438
0.0237107
0.0338984
0.0328944
0.0493698
0.0278676
0.029391
0.0546369
0.0194351
0.0295088
0.0452744
0.105093
0.044284
0.0405935
0.0762236
0.0563543
0.0496762
0.0520749
0.00217072
0.0153402
0.0510617
0.0726209
-0.0528579
0.0059915
0.0567565
0.0185206
-0.0193882
-0.040508
-0.00553592
0.0329215
0.0340007
0.0563184
0.0332571
0.0255743
-0.000291649
-0.00127206
0.003011
0.000750451
0.0344597
0.049313
0.0490382
0.129687
0.0632228
0.0346962
0.0383549
-0.000410754
0.045392
0.0268914
0.149561
0.0878985
0.0110482
0.0553831
0.0157645
0.0498934
0.00831135
0.000714465
0.0267991
0.049971
0.0598371
0.167166
0.0427454
0.0896989
-0.017046
0.0503083
0.0345957
0.0945523
0.102092
0.0707278
0.0509484
0.0465396
0.0475853
0.0508483
0.0500071
0.0414034
0.00644539
0.0499576
0.0573556
0.0549328
-0.335751
0.11991
0.047596
0.0502268
0.0103442
0.0158879
0.023712
0.0774742
0.0167261
0.0494979
0.0431486
0.00459273
0.0507718
0.0130004
0.0932104
0.071896
0.0487466
0.0113046
0.0505377
0.0395221
0.0375206
0.0426013
-0.00329628
0.0601781
0.0349706
0.0331782
0.11148
0.0822027
0.049886
0.0503548
0.0359299
0.0320414
0.0130554
0.0200685
0.0402334
0.00736457
0.0810485
0.0508744
0.0376919
0.00543773
0.0399599
0.0857199
0.0644973
0.0528061
0.151632
0.0217377
0.125903
0.140947
0.0271766
-0.00265598
9.55606e-05
0.125497
0.0403404
0.00644495
0.0750268
0.0362533
0.0198389
0.0899183
0.0729455
0.0519317
0.00255994
0.0315869
0.0270984
0.0408547
0.00536462
0.0519215
0.0810196
0.0517409
0.0578526
0.0865965
0.0560547
0.0441227
0.106841
0.0071433
0.0921027
0.0276392
0.0730301
0.00830325
0.0622999
0.0114935
0.0514641
0.0295514
0.00931533
0.0682684
0.0274376
0.0514229
0.0425068
0.0139053
0.046058
0.0348504
0.057153
0.0365766
0.0218414
-0.0013022
0.0960003
0.104937
0.101111
0.0415665
0.0418039
0.0347045
0.0181192
0.0283003
0.0506206
0.0554345
0.070856
0.0238448
0.0591006
0.00447449
0.0303552
0.0579358
0.0328807
0.0319998
0.0440982
0.0288791
0.0376793
0.134604
0.260003
0.0221934
0.0243698
0.0259382
0.030081
0.0368694
0.0349008
0.0337403
0.023262
0.0121647
0.0490891
0.0502129
0.0492951
0.00616024
0.0502017
0.0292953
0.0436272
0.0308995
0.0604565
0.033607
0.123671
-0.00727539
0.0498761
0.0350535
0.0916384
0.0420448
0.0614698
0.0893874
0.0547791
0.0501011
0.0300524
0.00286765
0.0871197
0.00361122
0.11591
0.0840641
0.00355413
0.0642057
0.0690589
0.00895601
0.0434474
0.0494742
0.0514654
0.0364233
0.0497779
0.0319444
-0.0380364
0.0490274
0.0808488
0.04391
0.0633948
0.0640689
0.160086
0.0560432
0.0425311
0.00463302
0.0123886
0.0876943
0.03113
0.084009
0.0513495
0.0379748
0.0659241
0.0463379
0.0326713
0.0508843
0.051379
0.0307841
0.0497439
0.0345835
0.0621599
0.0813124
0.0134617
0.0495432
0.00642547
0.00134563
0.0684489
0.060307
0.052054
0.0689291
0.132437
0.0502002
0.0408005
0.0476146
0.0613711
0.0389851
0.0352461
0.0395619
0.0746272
0.0839512
0.0322428
0.0799084
0.0908805
0.0609321
0.108809
0.0585581
0.0787672
0.0268456
0.0430409
0.0200325
0.0509608
0.0653497
0.0516971
0.0841072
0.00197993
0.0557025
-0.0126219
0.0455712
0.0265623
0.118292
0.00733905
0.0477279
0.0499191
0.00502677
0.108162
0.0272557
0.0295076
0.0142386
0.0450675
0.0812347
0.037908
0.0487462
0.036163
0.00810906
0.0437679
0.0406753
0.393112
0.0395084
0.0517307
0.0597989
0.065362
0.0434741
0.0313592
0.0502243
0.102985
0.0428437
0.0502074
0.01185
0.0368677
0.0281048
0.0414768
0.0641421
0.0432792
0.0453445
0.0446338
0.0336076
0.0807807
0.0502418
0.0392863
0.0582686
0.0458449
0.0401534
0.0561274
0.0559992
0.0603045
0.0607982
0.0503114
0.043904
0.0518255
0.0289218
-0.00162163
-0.000709925
0.146267
0.0754869
-0.00970858
0.0301006
0.0497311
0.0528276
0.059142
0.0748098
0.0505994
0.0272349
0.0764795
0.0573696
0.0257912
-0.010041
0.0209783
0.0496526
0.0375564
0.0500911
0.094687
0.23324
0.0397663
0.0578851
0.043047
0.00581649
0.0499135
0.0732627
0.0278415
0.0462944
0.0507459
0.0330316
0.0976191
0.0389543
0.0572049
0.0254283
0.0425277
0.0442574
0.0883352
0.0611597
0.0408497
0.0522547
0.0391826
0.0557144
0.0383256
0.0505316
0.0396487
0.0499367
0.0555964
0.0105443
0.0691777
0.0157489
0.0744682
0.0745437
0.0540727
0.0388954
0.0352388
0.0780384
0.0926
0.0103864
0.0426625
0.0568309
0.0589875
0.0402512
0.0488829
0.0446821
0.0371662
0.0280935
0.028033
0.0456518
0.014691
0.0397638
0.0802508
0.0409568
0.0434549
0.0393546
0.0238288
0.0845148
0.0545144
-0.000595524
0.0395662
0.0422483
0.00872732
0.0529968
0.000634476
0.0524223
0.0426064
0.0473354
0.0480333
0.0511167
0.0432626
0.00368506
0.050217
0.0200758
0.0723688
0.0525739
0.0585365
0.0325606
0.0967865
0.0613088
0.050621
0.0347512
-0.0667069
0.0503565
0.00504161
-0.0802133
0.066357
0.0860664
0.0538808
0.0415775
0.0298191
0.0721128
0.059468
0.0502692
0.0927917
0.0107984
0.0822888
0.0502554
0.0497071
0.0439072
0.0450872
0.0457466
0.0665452
0.0763727
0.0466112
-0.0016693
0.0475628
0.0541657
0.0420466
0.0324486
0.000221184
0.0497468
0.0431183
0.0233839
0.0449284
0.0469986
0.0525485
0.128593
0.0734978
0.0506886
0.0632818
0.0539689
0.0428034
0.0753734
0.0603646
0.0446329
0.0636027
0.0368215
0.0633874
0.0854507
0.0022014
0.0231759
0.0507829
0.0704906
0.0483206
0.0526617
0.0515873
0.0425786
0.00144776
0.000393136
0.0595908
0.0318814
0.0345414
0.0279977
0.0494586
0.0490634
0.0506963
0.071396
0.0343798
0.0502864
0.042786
0.0549933
0.0219334
0.0100242
0.0503229
0.0498621
0.0362561
0.0489938
0.0488654
0.0430553
0.0459655
0.0401879
0.0669072
0.0624753
0.0341955
0.0482969
0.0535084
0.0581385
0.0432638
0.0502311
0.0434797
0.0303038
0.00108531
0.00516666
0.0349527
0.123828
0.04361
-0.0592056
0.0887892
0.0430783
0.0415122
0.0542348
0.0494045
0.0503277
0.0536914
0.0572536
0.0425713
0.0518458
0.0495246
0.096961
0.00521398
0.0334629
0.0504549
0.0554716
0.0636586
0.0708854
0.0321508
0.0524794
0.0501613
0.0488415
0.0440932
0.0293219
0.0265495
0.00542304
0.0622031
0.0486961
0.0392553
0.056619
0.0543235
0.0539116
0.0478613
0.0586653
0.0503084
0.0151119
-0.00258014
0.0495464
0.0667934
0.0426447
0.0454709
0.0473952
0.0515352
-0.0474408
0.0639613
-0.000405936
0.0438834
0.00695062
0.0528686
0.0695217
0.128104
0.0558912
0.0504931
0.0300973
0.0204417
0.111511
0.0438739
0.0673768
0.0457314
0.0498918
0.0653145
0.0481026
0.121423
0.000131364
0.0793821
0.0534293
0.0487716
0.0502802
0.0485269
-0.0263165
0.038832
0.0497973
0.056971
0.0486943
0.0498631
0.0496992
0.0105418
0.00333015
0.0551364
0.0492239
0.082665
0.0560027