/*--------------------------------*- C++ -*----------------------------------*\
  =========                 |
  \\      /  F ield         | OpenFOAM: The Open Source CFD Toolbox
   \\    /   O peration     | Website:  https://openfoam.org
    \\  /    A nd           | Version:  7
     \\/     M anipulation  |
\*---------------------------------------------------------------------------*/
FoamFile
{
    version     2.0;
    format      ascii;
    class       surfaceScalarField;
    location    "0.47";
    object      phi;
}
// * * * * * * * * * * * * * * * * * * * * * * * * * * * * * * * * * * * * * //

dimensions      [0 3 -1 0 0 0 0];

internalField   nonuniform List<scalar> 
18389
(
-7.98168e-05
7.98168e-05
4.34813e-05
-4.34813e-05
-5.20438e-05
5.20438e-05
4.00596e-05
-4.00596e-05
-5.18254e-05
5.18254e-05
-3.98808e-05
3.98808e-05
-3.46247e-05
3.46247e-05
3.91845e-05
-3.91845e-05
-3.50463e-05
3.50463e-05
4.1379e-05
-4.1379e-05
4.43013e-05
-4.43013e-05
-3.40648e-05
3.40648e-05
-1.1756e-05
1.1756e-05
-4.28091e-05
4.28091e-05
4.34332e-05
-4.34332e-05
2.39899e-05
-2.39899e-05
1.82996e-05
-1.82996e-05
4.5885e-05
-4.5885e-05
4.59201e-05
-4.59201e-05
4.33213e-05
-4.33213e-05
-4.25349e-05
4.25349e-05
3.53385e-05
-3.53385e-05
4.29796e-05
-4.29796e-05
-5.84511e-05
5.84511e-05
-4.97809e-05
4.97809e-05
-4.18018e-05
4.18018e-05
-4.4533e-05
4.4533e-05
4.5612e-05
-4.5612e-05
4.58451e-05
-4.58451e-05
4.41284e-05
-4.41284e-05
-4.13311e-05
4.13311e-05
-6.30632e-05
6.30632e-05
4.31166e-05
-4.31166e-05
-4.47335e-05
4.47335e-05
4.086e-05
-4.086e-05
4.66835e-05
-4.66835e-05
-4.5553e-05
4.5553e-05
5.36033e-05
-5.36033e-05
-5.88888e-05
5.88888e-05
3.78783e-05
-3.78783e-05
4.48571e-05
-4.48571e-05
4.53693e-05
-4.53693e-05
-4.10095e-05
4.10095e-05
4.4906e-05
-4.4906e-05
4.58607e-05
-4.58607e-05
-4.58471e-05
4.58471e-05
-4.58403e-05
4.58403e-05
-4.0654e-05
4.06541e-05
-4.58782e-05
4.58782e-05
4.59285e-05
-4.59285e-05
4.59422e-05
-4.59422e-05
4.46092e-05
-4.46092e-05
3.77248e-05
-3.77248e-05
-4.57627e-05
4.57627e-05
-5.55355e-05
5.55355e-05
-4.38125e-05
4.38125e-05
4.57544e-05
-4.57544e-05
-4.59941e-05
4.59941e-05
4.3226e-05
-4.3226e-05
-5.9318e-05
5.9318e-05
-4.71427e-05
4.71427e-05
4.96051e-05
-4.96051e-05
4.5724e-05
-4.57239e-05
-8.23991e-06
8.23993e-06
4.57739e-05
-4.57739e-05
4.1455e-05
-4.14549e-05
5.12105e-05
-5.12105e-05
-4.58596e-05
4.58596e-05
4.23233e-05
-4.23233e-05
3.07457e-05
-3.07457e-05
3.3072e-07
-3.3072e-07
-4.4118e-05
4.4118e-05
3.28688e-05
-3.28688e-05
-3.65793e-05
3.65793e-05
3.97144e-05
-3.97144e-05
2.6626e-05
-2.6626e-05
2.61943e-05
-2.61943e-05
2.70492e-05
-2.70492e-05
2.43961e-05
-2.43961e-05
1.27945e-05
-1.27945e-05
0.00107288
-0.000883289
-0.000189584
0.00546589
-0.00207506
-0.00339082
-0.00594648
0.00594644
3.8799e-08
0.00335531
-0.00260169
-0.000753622
-0.00157011
0.00177094
-0.000200831
-0.00675731
0.00284189
0.00391543
0.00121382
0.00425208
0.00725553
-0.00587637
-0.00137917
0.00120021
-0.00191184
0.000711637
-0.000868231
-0.000701881
-0.00144211
-0.000314615
0.00175672
0.00014095
-1.86404e-06
-0.000139086
0.000778583
-0.00222069
-0.00360248
0.000121245
0.00348122
-0.00320324
0.00289408
0.000309173
-0.00570128
0.0072343
-0.00153302
-0.00370828
0.002897
0.000811276
-0.000562931
-0.00303954
-0.00174918
0.00238891
-0.000639731
-0.000462021
0.00255887
-0.00209684
-0.00161186
0.00111525
0.000496609
0.000583533
0.000581826
-0.00159689
-0.00516043
0.00131582
-0.00181467
0.000498849
0.00577846
-0.00385977
-0.00191868
-0.000672121
0.00331132
-0.0026392
-0.00583524
0.00583524
0.000470033
0.00130091
-0.00633358
0.000978319
0.00535527
0.00231725
-0.00298938
-0.00378942
0.00311383
0.00067559
0.002148
-0.00422306
0.00108843
-0.000202815
-0.000885616
0.00150534
-0.00128856
-0.000216773
-0.00280379
-0.000399451
0.00535056
-0.00534819
0.000371377
0.00113396
0.00522728
-0.00133647
-0.00389082
0.00198005
-0.00077984
0.0030857
0.00190867
-0.00499436
-0.000720853
-0.00306857
-8.84039e-05
-0.000155874
0.000244278
0.00393581
0.00331972
0.00115363
-0.00487638
0.00372275
0.00162486
0.00360242
-0.00498267
0.00632096
-0.0013383
-0.00114472
-0.000589981
0.0017347
0.00133799
0.00201732
0.000135292
0.000103626
-0.000238918
0.00502004
-0.00339518
0.00645715
-0.000840657
-0.00561649
0.00321748
-0.00266435
-0.000553128
0.00221603
0.000454512
-0.00267055
0.00295475
-0.000738716
0.00650413
-0.00539879
-0.00110534
0.000494922
-0.00385503
0.00336011
6.74244e-05
0.00638973
0.00479176
-0.00429683
-0.000535778
0.00105939
-0.000523612
-0.00176512
0.000620402
0.00191704
0.00224911
-0.00416614
0.000253496
-0.000333776
8.02803e-05
-0.00125818
-0.00284816
0.00410635
-2.61736e-05
0.00653031
-0.00281377
0.00229887
0.000514899
0.000389078
-1.23775e-05
-0.0003767
-0.00569236
-0.000254117
0.0018814
-0.00141137
0.000826897
0.00495156
0.000900257
0.00017262
0.00263976
-0.0064416
0.00380184
-0.00112021
0.000584436
0.00264118
-0.00389936
0.0061969
-0.00226108
0.0010921
0.00117728
-0.000775693
0.00101718
-0.00024149
-0.00111396
-0.0004979
0.00188223
0.00133524
-0.000594449
0.00142954
-0.00123739
-0.000192153
-0.00265545
0.00198895
0.000666494
0.00116675
0.000262793
0.00112397
-0.00496055
0.00383658
-0.00474909
0.00141102
0.00333806
-0.00455439
0.00611813
-0.00156374
-0.00506243
7.97672e-05
-0.00202373
-0.00063171
-0.000215155
0.000126751
-0.0012179
0.00464061
-0.00342271
-0.00119967
-0.000712178
0.000103305
-0.000192023
8.87179e-05
0.000126284
-2.29791e-05
-0.00125239
0.00463057
-0.00337818
-0.000156081
2.4416e-05
0.000131665
-0.00556666
0.00170689
-0.00120252
-0.0005626
-0.000449385
-1.89242e-05
0.000468308
-0.000543211
9.3825e-05
0.00101305
7.53819e-05
-0.00181145
0.000608931
-0.000150359
1.69879e-05
0.000133371
0.00136803
-0.00234447
0.000976435
0.000271103
-0.00013581
-0.00392563
0.00513946
-0.00245764
0.00070847
-9.40859e-05
-0.00041694
0.000511027
0.00568571
-0.0021686
-0.00351712
7.79906e-05
0.00250696
-0.00258495
0.00444946
-0.00559784
0.00114839
0.00263514
0.00305057
0.0029139
-0.00283591
-0.00613296
0.000431681
-0.00645188
0.00361981
0.00283207
0.0022931
0.00390379
-0.00438777
0.00137352
0.00301425
0.00151409
-0.000198272
-0.00102153
0.00401711
-0.00299558
0.00463848
-0.00162509
-0.00301339
-0.00459714
0.00374682
0.000850333
0.00369326
-0.00502974
5.78528e-05
0.000331225
-0.00136911
0.00581858
-9.06898e-05
0.00214839
-0.00205769
-0.00207052
0.00261379
0.000165806
-0.00277959
-0.0012774
0.00264543
-0.000639377
0.00325316
0.00164274
-0.00173343
0.000889897
0.00396903
-0.00485894
-0.00504224
0.00384329
0.00119896
0.00255195
-0.0035941
0.00104216
-0.00331256
0.00411438
-0.000801822
0.000355476
-0.00366804
-0.000909257
0.000909257
-0.000452322
0.000358236
-0.000126967
-0.000973461
0.00110043
0.00506889
-0.00184158
-0.00322731
-0.0024341
-0.000369696
0.00290029
0.000157864
1.65479e-05
-0.000174412
-0.00147215
0.00112797
0.000344181
-0.000143335
-0.00489891
0.00503942
-0.00388579
0.000221894
-8.09435e-05
0.00444327
0.000576768
0.00406761
-0.00151566
0.000164928
-7.06342e-06
-0.00633736
-0.000989923
-0.000821526
0.00429998
-0.00190308
-0.0023969
0.00275742
0.00154257
0.00107765
-0.00563204
-0.00226644
-0.00054733
-0.00112032
-0.00095772
0.00207804
4.18764e-05
-0.00272361
0.00268173
-0.00235965
0.00123933
-0.00221808
0.00530378
-0.00461212
0.00159342
0.0030187
0.00254883
0.000667769
-0.000336942
-0.000330827
-0.00601559
0.000582822
0.00543277
-0.00418351
0.00582111
-0.0016376
0.0018249
0.0016305
-0.0034554
-0.00167855
0.000904261
0.000774288
-0.0027131
0.00208373
0.000629369
0.00111553
0.000765875
0.000247203
-0.000328944
8.17424e-05
0.00488315
-0.00399325
-0.00638646
0.00557484
0.000811624
-0.00478206
-0.00166981
0.00334939
0.000626158
-0.00397555
0.00015398
-0.000162215
8.23413e-06
0.00059047
-0.000125276
-0.000465194
-0.00451798
0.0026149
0.000375155
-0.000573264
0.000198109
6.11714e-05
-0.00097043
-0.00257577
0.00448444
-0.00530399
-0.000322597
0.0056266
0.000198288
0.000213607
-0.000411894
0.00114723
-0.00114723
0.00168637
-0.000724146
-0.00210999
0.00181858
0.000291414
0.0043961
-0.00302259
-0.00016238
6.29935e-06
-0.00124708
0.00130825
0.000678792
0.00130126
0.00235035
-0.000266615
-0.00401929
-0.00128469
0.00111937
-0.00497441
0.00321213
-0.00446452
0.000835674
-0.00213789
0.00130222
0.00335953
-0.00457744
-0.00271077
-0.00180721
-0.0048365
0.00469317
-0.000676724
-0.00533886
-0.0051591
0.00149117
-0.00147505
-1.6124e-05
0.00223072
0.000119623
-0.00601446
0.00204859
0.00396587
-0.00121933
0.000526009
0.000693313
0.00144574
0.00295037
-0.00462789
-0.00101442
0.00564232
-0.000212847
0.000138575
7.42713e-05
-0.00550817
0.00132466
0.00375317
-0.00493689
0.00118372
-0.00149625
-0.000613745
-0.000536682
-0.000637498
0.000138331
-0.000203788
6.54563e-05
0.00497785
-0.00385389
-0.00130041
0.00512514
-0.00382474
-0.000457758
-0.000789321
-0.00586141
0.000439555
0.00539568
-0.00616094
0.00456404
-0.000922128
-0.00546434
-0.0010973
-0.000374846
-0.00181843
0.00285824
-0.0010398
-0.000419085
0.00032198
9.71054e-05
-0.00173206
0.00141744
0.00162251
-0.000131337
0.000828654
-3.67507e-05
-0.00169531
0.0027969
0.00121676
-0.00303519
0.00605306
-0.000478225
0.00528163
6.89299e-05
-0.00528076
0.00439068
0.00114493
-0.00553562
0.000556526
-0.000768892
0.000212366
-4.02815e-05
-0.00041204
-1.12309e-05
0.00606429
-0.000162169
0.000156817
5.35227e-06
0.000133408
2.05725e-05
0.00254165
-0.00335549
0.000813842
-0.00190453
0.00069801
0.00120652
0.00792105
-0.00345429
-0.00446675
0.00117038
0.00126463
-0.00243502
0.000105375
-0.000171966
6.65914e-05
-0.000805876
0.00133188
0.00115577
0.00318314
-0.00433891
-0.00561472
0.000165788
0.00544893
-0.00401637
0.00299484
0.00173493
0.00479538
0.00458531
0.00333572
-2.07191e-05
0.000191335
-0.000170616
-0.00130062
0.00438986
-0.00308923
0.00030087
-0.000341152
-0.000131355
-8.14917e-05
0.00410153
-0.00227664
0.00475146
-0.00500907
0.000257605
-0.00323663
0.00606467
-0.00282804
0.00252811
0.00157343
0.00574521
-0.000993751
-0.00138925
-0.00562137
0.00137261
0.00424876
0.000654699
0.000520473
-0.00117517
0.00126938
-0.000614679
0.000585406
-0.00111009
0.000524684
0.00110588
0.000278891
0.000388878
-0.000678209
0.00443139
0.00152141
-0.000393439
0.00352064
-0.00610944
0.00258881
0.00153536
-0.00258495
0.00104958
-0.00431405
0.00115793
0.00315612
0.00291619
-0.00421682
-0.00490445
-0.00125649
-0.00409747
0.00126589
0.00283158
0.00124116
0.00314869
-0.00326522
-0.000832255
0.00222812
-0.00105774
-0.000674452
-0.00253523
0.00320968
0.00241169
0.00061196
-0.00302365
-0.00159064
0.00120557
0.00038507
0.000270044
0.00149278
-0.00196617
0.000473398
-0.000110914
-0.000222863
-0.000264398
0.000153484
-0.00435119
-0.000245953
-0.000295847
0.00117801
-0.000882163
0.00435151
-0.00464466
0.000293151
-8.84077e-05
0.000117749
-2.93414e-05
0.000970432
0.00338179
-0.00435222
-0.000156977
6.85699e-05
-0.00475182
0.000710249
0.00404158
-0.000785234
0.000108014
0.000677218
8.15118e-05
-8.33757e-05
-0.000400299
0.000864672
-0.000347479
-0.000517194
-0.00603617
0.000637379
-0.00254967
-0.00012818
0.00267784
-0.00317107
0.00441222
0.00218084
-0.00108874
-0.00116719
-0.00118469
-1.49817e-05
-0.0035185
-0.00123058
0.0015186
-0.000410908
-0.00110769
0.00191941
0.00183797
-0.00375738
0.00504007
-0.00160798
-0.00343209
0.00079055
-0.00541844
-0.00137315
0.00300364
0.00195374
0.000787934
-0.00274167
-0.00349891
0.00446934
-0.000153108
2.7495e-06
0.000933165
-0.00443207
-0.0044969
-0.000147774
-0.000998148
-0.00461657
0.00462315
0.00148253
0.00355754
0.00416021
0.00114154
-0.00530176
3.66258e-05
5.92779e-05
-9.59037e-05
-0.00140961
0.00336335
0.0037017
0.00353259
-0.00140305
0.00237233
-0.000969268
-0.00248107
0.00045734
-0.000878399
0.000751431
-0.000210756
0.000409044
-0.000208085
0.00170087
0.00376406
-0.00184465
-0.00108256
-0.000595993
-0.000107194
-0.000157203
0.00355048
-0.00163343
-0.0024037
0.00465281
0.000674505
-0.0030959
0.00242139
0.000650367
0.000762092
-0.00105794
0.00210031
-0.00130868
-0.00327455
0.00458322
-0.00217672
0.00481648
-0.000550559
0.00344463
0.000238399
-0.000221411
-0.00236341
0.000960365
0.00230901
-0.003868
0.001559
-0.00122574
5.7896e-05
-2.12703e-05
0.00214905
-0.00279791
0.000648872
-0.00117084
-0.000419805
-0.00352599
0.00450431
0.0011913
0.00167567
-0.00286698
-0.00169242
0.00366402
-0.0019716
0.004238
-0.000856217
0.000234319
1.41161e-05
-0.000248435
-0.00372344
0.00203102
-0.00142228
0.00471193
-0.00328965
0.000877976
0.00130287
0.000165964
0.000981266
0.000253021
-0.00030073
4.77089e-05
0.0016943
0.000215481
-0.00190978
0.00301927
-0.00458308
0.00156381
-5.28629e-05
0.000374348
-0.000321485
0.00156681
-0.000361244
0.00140998
-0.000602844
-0.000807136
0.00282551
-0.00392263
0.00109712
0.00268143
-0.00374153
0.00106011
-0.00515685
0.00192022
0.00389624
-0.000876962
-0.000629758
-0.00237872
0.00300849
0.00140636
-0.00511705
0.00371069
0.00336055
-0.00145893
-0.00190163
-0.000689592
0.00173252
-0.00104293
0.00477165
-0.00303673
-0.000704412
-0.00195993
-0.00598204
0.00514139
4.04364e-06
0.000121717
-0.00012576
-0.00158181
0.0012025
0.000379311
-0.00490596
0.00630613
-0.00140017
-0.00188994
0.000707198
0.00118274
0.000407447
0.00268705
-0.00208937
-0.000597678
0.00343456
0.000489748
-0.00392431
0.000124637
-1.92623e-05
0.00517226
0.000337313
-0.00550956
-0.00194062
0.00379755
-0.00185694
0.00276631
-0.000633511
-0.00213281
0.000462554
0.000402118
-0.000438082
0.00387264
0.00202578
-0.0039664
0.000702251
-0.000268611
-0.000433639
-0.000670872
1.60107e-05
0.000654863
-0.00315226
-0.00576549
0.00576388
-0.000275026
0.000953698
-0.000678673
-0.00228899
-0.000192088
-0.00454746
0.00323877
-0.000865313
0.00112211
0.00360803
-0.00502
0.00141198
0.000410693
-0.00296035
0.00233334
-0.00244082
0.000107472
-0.00157143
0.00148228
8.91517e-05
-0.00121365
-0.000368157
-0.00339169
0.00342785
-0.00223654
0.000457238
0.000133232
-0.00173771
0.00104812
-0.00279076
0.000735688
0.00205507
0.000242332
-8.01316e-06
-0.00347733
0.00102271
0.00245462
-0.0014422
0.00560241
0.000339315
-0.000955937
0.000616623
0.002125
0.000641307
-0.00127775
0.000304291
0.001118
0.00121535
-0.00142041
0.00494774
-0.00352733
-0.0048495
0.00576758
-0.000918082
-0.00117099
0.00228383
0.00410589
0.00107434
4.09073e-05
0.00585694
-0.00551845
-0.000338486
0.00354267
-0.00465345
0.00111078
0.00308897
-0.000677277
0.0054271
-0.00181908
-0.00250444
-0.00097289
-0.00218416
-0.000308118
0.00249229
0.00241736
-0.00196286
-0.00160818
-0.00424007
0.0027485
0.00149157
-0.000332516
0.00123678
0.00120463
0.00365154
-0.00485617
-0.000313331
0.000688486
0.00305957
-0.00238506
-0.00472463
-0.00125742
0.00647055
-0.00129829
0.0042346
0.00206138
0.000497494
0.00285592
-0.00212752
-0.000728399
0.00473604
-0.00245221
-6.85077e-05
-0.00332675
-0.000865376
0.00419213
0.000388498
-8.64642e-05
-0.000302034
-0.00514111
0.0061058
-0.00096469
-0.000721607
0.00190868
-0.00118707
-0.000697291
0.00525303
-0.00455575
0.00119284
-0.00191445
-0.000113662
-0.0057627
-0.000775693
0.00202915
0.00382779
-0.000257913
-0.00192625
0.000251405
-4.20207e-06
0.000362547
-0.000487822
0.0033601
-0.000818449
-0.00522604
-0.000271567
-0.000147518
0.000150204
-0.00013359
-1.66136e-05
-0.00248229
0.000122639
-0.000420917
0.001598
-0.00102022
-0.000577781
0.00246215
0.000599642
-0.0030618
-0.000722643
0.00318478
-0.00520292
-0.000271508
0.00547442
0.00375087
0.00137428
0.00440641
-0.00122328
-0.000129141
0.00254651
0.00540385
-0.000206648
-0.00519721
-0.00608744
0.00425271
0.00183474
0.00321016
-0.00126835
-0.00435303
0.000204386
-0.000225105
0.000571973
0.000838004
0.00114921
0.000195577
-0.00134479
0.00421231
0.00119154
-0.000961952
0.00317111
-0.00220916
0.00472285
-0.00137346
-0.00218031
0.00279286
-0.000612543
-0.00117598
-0.000105385
0.000292627
-0.000187241
0.00344652
-0.00414382
0.00134744
-0.000987391
-0.000360046
0.00159947
-0.000396969
-0.00325091
0.00228896
0.00548795
-0.00434302
-3.06301e-05
0.000352611
-0.00535709
0.000451122
0.00542942
-0.00190878
-0.000998476
-0.00361487
0.00461335
-0.000645656
0.00288319
-0.00223753
0.00549727
-0.00286246
-0.00263482
-8.8397e-05
0.000590207
-0.00067716
0.000660535
1.66244e-05
-0.000695084
0.00173597
-0.00104089
-0.00314973
-0.00116432
0.000155535
-1.72039e-05
-0.00122484
-0.00478962
-0.00307396
0.00239951
-0.000836707
-0.000310523
-7.26163e-05
-8.95522e-05
-0.00122309
-0.000806036
-0.00523014
-0.00283882
0.00219317
-0.000821385
0.00119276
0.00112304
0.00436924
-0.00549227
0.00338357
-0.00275741
0.00046951
0.000771601
-0.002884
0.0021124
0.00497822
-0.00491987
-5.83417e-05
-0.00320946
0.00361557
-0.000406105
0.000207787
-9.56047e-05
-0.000112183
-0.00496795
-0.00147366
-0.00176002
0.0036899
-0.00192988
0.00298092
-0.00220931
-0.00378372
0.00202371
0.00139504
-0.00258175
0.0011867
-0.0036331
0.00568169
0.00650005
-0.00219597
-0.00430408
-0.00239873
0.00237608
2.26628e-05
0.00559527
-0.00162625
0.0011863
-0.000925789
-0.000260509
-9.1188e-06
0.00026214
0.000249854
-0.000773644
0.000523791
-0.00304902
0.00365001
-0.000968584
0.000847592
-0.00105041
0.00236435
-0.000632993
-0.00173136
0.00221178
-0.000517481
0.00451746
0.00063206
0.00173229
-0.00175709
0.00106201
0.000408603
-0.000464693
5.60904e-05
0.00222102
-0.0017458
-0.000475215
0.00082487
-0.0051478
-0.000544562
0.000369496
-0.000588348
0.000218851
-0.00410145
0.00547406
0.000941946
-0.00111663
0.000174683
-0.00153506
0.00216223
-0.000627177
-0.00148767
-0.0027524
-0.0053784
-0.000156737
0.00553514
0.000300683
0.000108306
4.18983e-05
0.000127214
-0.000127506
2.91962e-07
0.00410554
-0.00290092
-0.00379571
-0.00231373
0.00346718
0.00303286
-0.00259168
0.000719651
0.00187203
-0.000844634
0.00223967
-0.00229886
-9.98776e-05
0.00272997
-0.00377769
0.00104772
0.00131271
-0.000134704
0.000461713
0.000551336
-0.00327732
0.000962424
0.00231489
0.00091125
-0.000615156
-5.57177e-05
-0.00427045
0.00171906
0.000108339
-0.00182739
-0.00396432
0.00146346
0.00250086
0.000515439
0.00147038
-0.000898411
-0.000246764
-0.00466013
0.0049069
0.000784139
-0.00247671
0.00169257
0.0012022
0.00131232
-0.000457882
-0.00172677
0.00218466
0.00258001
-0.00179587
0.00446717
-0.00353401
-0.000774409
-0.00264093
-0.000227389
0.000251805
-0.000705581
0.00176597
-0.00106039
0.00266141
-0.00366647
0.00100504
0.000136423
2.03942e-05
-0.00236503
-0.000912294
0.00142116
-0.00163617
0.000215004
-0.00277519
0.00068582
0.00127616
-0.00141853
0.000142368
0.00161851
-0.00180763
0.000189125
0.000675616
-0.00372266
-0.00115372
0.00134084
-0.00488892
0.00354808
-0.000911741
0.00357314
0.000118584
-7.86388e-05
-3.99449e-05
0.00473572
-0.00361267
-0.000316141
-0.00152568
-0.00400939
-0.00149878
0.00209334
0.000699509
-0.00100643
-0.000922276
-0.00450672
-0.00162624
-0.000359656
0.00124205
-0.000932276
-0.00030977
-0.00149731
-0.00108765
0.000654861
0.00225917
-0.00291403
-0.000114194
0.000670719
-0.000715992
3.88318e-05
-0.002462
0.00196645
0.0013941
-0.000686048
0.00163087
-0.000944818
-8.68514e-05
-0.000116937
0.000316258
-0.00194839
0.000452144
0.00161615
-0.0023087
0.000692552
-0.00333779
0.00258623
0.000751549
0.00120445
0.00240742
-0.00361187
-0.00175467
0.00104909
-0.00294293
-0.00102139
-0.000784556
-0.00255323
-0.00167797
0.0012556
0.000422367
0.00176721
-4.81489e-05
-0.000760457
-0.00243573
0.00319618
-0.000665747
0.0029135
-0.00225864
-0.000858538
-0.00394759
0.00480614
-0.00234289
0.00234157
1.32103e-06
-0.000785234
-0.00156535
0.000545136
-0.00240566
0.003818
-0.00141234
0.00323291
0.00288522
0.000194337
3.62192e-05
-0.000230557
0.00234056
-0.00060234
-0.00173822
0.00018819
-0.000184147
-0.00358788
0.00492872
-0.00328961
0.00523829
-0.00194867
-0.00351033
-0.00150967
-0.000916561
0.00323164
-0.00231508
0.00285753
0.00177398
-0.00417964
-0.00499357
-0.000147538
-0.000781138
0.00284493
-0.00206378
-0.000431649
0.000378786
-0.000532556
0.00167717
-0.00114461
-0.00402586
0.00334191
0.000683952
-0.00327025
0.00235369
-0.00386716
0.000672857
0.0031943
0.00141036
-0.00101483
-0.000395526
-0.00589957
0.000696657
0.00184693
-0.00141132
-0.00043561
0.0014422
-0.00041502
-0.00102718
7.83782e-05
0.000129409
0.00293021
-0.000631339
-0.000215868
-0.0034877
-0.000379461
0.000428636
-0.00305636
-0.000969502
-0.00233695
-5.9357e-06
-0.00292137
0.00229161
0.000720162
0.00260218
-0.00332234
0.000586146
-0.000861172
0.00140954
-0.00671663
0.00530709
-0.00576883
0.00098676
-0.00233353
0.00353799
0.00069612
0.00025758
-0.00273321
0.00345337
-8.76578e-05
0.00506587
0.00060636
0.00171207
-0.00231844
-0.00177613
0.00124357
0.00274822
-0.00369486
0.000946631
0.00509962
0.000675739
0.00154528
0.000317577
0.000384672
-0.000364063
-0.000404828
0.000180994
-0.00174833
0.00176684
-0.000888861
0.000886372
0.000584006
-0.000581393
0.00300984
-0.00242845
-0.00150667
0.00184198
-0.000335313
-0.00489226
0.00380332
0.00108893
-0.00479522
0.0015056
-4.1649e-05
3.80689e-05
3.58009e-06
-0.00281258
-0.000853887
0.00109053
-0.00129694
0.000206412
0.00135028
-0.00493816
0.00116482
-1.5612e-05
0.00123533
0.000694008
0.00218918
-0.00366682
0.000854252
0.000187582
-0.00503708
0.00190004
0.00123076
0.000677917
-0.00527338
-0.000492114
0.00565022
0.00118691
0.00710751
-0.00218468
-0.00492283
0.000792292
-0.000379622
-0.000412671
0.000710238
-0.00138581
0.000789813
-0.00386058
-0.00125647
0.000292626
-0.000949473
-0.000415087
0.00136456
0.00233211
0.00400854
-0.00486707
0.00270295
0.000834248
-0.0035372
0.00125125
-0.000965864
-0.000285383
0.000744842
0.00159572
-0.000135114
0.000138343
-3.22953e-06
-0.000709342
0.00288362
-0.00217428
0.00362082
0.00109111
-0.00126298
-0.00041499
0.00141289
-0.00151146
9.85652e-05
4.60033e-05
7.25804e-05
-0.00447759
0.000967264
-0.00165553
0.000441869
-0.00364937
0.00292671
-0.000952314
6.90239e-05
0.000933204
0.00268125
-0.00361446
0.00084954
-0.00126936
0.004183
-0.00291364
0.000318969
0.00027988
4.65669e-05
-0.000326448
7.84321e-05
-0.00539161
0.00531318
-0.0026358
-0.000774072
0.00340988
-0.00348714
0.00261231
0.000874837
-0.00276607
-0.000259817
-0.00171475
-0.00490921
0.000899816
-0.00145698
-0.000879973
-0.00106257
0.00379253
0.00171054
-0.00372603
0.00201549
0.00010566
2.15545e-05
0.00372493
-0.00201439
0.00286436
0.000952201
-0.00381655
-0.0013043
0.00174099
-0.000436686
0.00357323
0.00109699
-0.00467023
0.00717872
-0.00197465
-0.00520406
-0.00212849
-0.000710327
-0.00173676
0.00234312
0.00377265
-0.00492528
0.00115262
-0.00280356
0.00373676
0.00116079
-5.35495e-05
-0.00110724
0.00148122
0.000907679
-0.00550594
0.000601489
0.000439527
0.000352764
0.00292151
-0.0011196
-0.0025208
0.00248082
3.99869e-05
0.00050456
-0.00184082
0.00133625
-0.00387032
-0.00119211
0.00108792
-0.0025449
-0.00529912
0.000151322
-0.00125843
-0.000518787
0.00177722
0.00563372
-0.00449218
0.00010444
0.000284059
-0.00301871
0.00318452
0.001441
-0.00107307
-0.000367937
0.0034687
0.00475628
-0.000952965
0.000635316
-0.00327111
0.00115655
-0.00104854
-5.28769e-05
0.000461479
0.000394051
-1.97029e-05
-0.00206731
-0.000444709
0.00153524
-0.000900919
-0.00349741
0.000764206
-2.81027e-05
-1.35464e-05
0.00599847
-0.00492081
0.00522033
-0.00439343
-2.48446e-05
-0.000677218
0.000702062
0.00194901
-0.000458139
-0.00149087
0.00335881
-0.000756636
-0.00256856
0.00336119
-0.000792631
-0.0018347
0.000530394
0.00127951
-0.000953223
-0.000326283
-0.000118768
-0.000210176
0.00205931
-0.00054797
-0.00151134
-0.00138083
-0.00239481
-0.000125986
0.00209031
-0.00274598
0.000655668
0.00280682
-0.000750076
-0.00205675
0.00410328
-0.00435004
0.000313643
0.00223778
-0.000621633
-0.000681849
0.000835999
-0.00367471
0.00502498
0.00123848
0.000460853
-0.00171929
-0.00286143
0.00209748
0.00363243
0.0015879
-0.00114857
-0.00382531
-0.00113524
0.00130475
-0.00171803
0.000413279
0.00367575
-0.00318601
-0.000193997
0.00113594
-3.87438e-05
-0.000271248
0.000309993
-0.000689738
-0.00190195
0.0037723
-0.00490653
0.00113424
-0.00186275
0.00235415
-0.000491405
-0.00115298
0.00213364
0.000749968
-0.00226318
0.00375425
-0.00149107
0.00150686
-0.00114343
-0.000363428
-0.00104447
0.000259237
0.000210264
-0.000441069
0.000230805
-0.000424857
-0.00123067
-0.00247833
0.00250568
-2.73499e-05
0.00144675
-0.00370994
0.0016265
-0.000370898
0.000364524
-0.000424412
5.98889e-05
-0.000827169
0.000593313
0.000233857
-0.000794467
-0.0028451
0.000821625
0.00202347
-0.00199294
-0.000814559
-0.000742391
0.00155695
-0.00524011
0.00389426
0.00134585
-0.00132277
0.00129792
-0.000576359
-0.000115958
0.000692316
0.00286891
-0.000735269
-0.000770212
-0.000160315
0.000930527
0.00184087
-0.00138002
0.00169779
-0.000393028
-0.000166219
-0.00063589
-0.00420352
0.00483942
-0.00139418
0.00283101
0.0042765
-0.00239917
-7.91618e-05
0.00312295
-0.00473094
0.000732654
0.0015822
-0.00231486
0.00201596
-0.0027971
0.00198119
-0.000705891
-0.00127529
-0.00179619
0.000455656
0.00134053
0.00431517
0.00286355
-0.00551383
0.00133501
0.00417881
-0.00125095
-0.00398915
-0.000459945
-0.00133624
-0.00100426
-0.000561095
-0.00129402
-0.000424013
0.00114142
-0.000531862
0.00151201
-0.000980143
-0.00175732
0.00129737
-0.000944237
-0.000207343
0.00115158
0.00217224
-0.00286756
0.000695329
-1.17664e-05
0.000206103
0.00103551
0.00605616
-0.00140761
-0.00464855
-0.00203488
-0.00187315
0.00134422
0.000528937
0.00127168
-0.000979002
-0.000292678
-0.00229453
-0.00102351
0.00331805
-0.00267224
0.00357923
-0.000906985
-0.000918603
0.00113144
-2.80332e-06
-0.00112863
0.00376076
-0.00493482
0.00117405
0.0017477
-0.00135574
-0.000391959
0.00242707
-0.00122486
0.00273561
-0.000635914
-0.000191255
-0.00409018
0.00229334
-0.00179942
-0.000493923
0.000560241
-0.00200932
0.00144908
-0.00251856
-0.000836928
0.000860581
-0.000658685
-0.000201897
-0.000180332
-0.00364149
0.000969247
0.000668975
-0.00045871
0.00259527
0.000983955
0.000318458
0.00131018
0.000671004
-0.0016039
0.00233655
-0.00150736
0.000993548
0.000513812
0.0035463
-0.000681929
-0.00380954
0.00610264
-0.00114577
-0.00249081
0.00683142
-0.00434061
-0.000886983
0.00356824
-0.00414181
0.000932362
-0.00210099
0.00424899
-0.000682641
-0.00162606
-0.002447
0.00171825
0.000728754
-0.00127887
0.000602655
-0.000602324
-3.29552e-07
-0.00137608
-0.000776632
-0.000153533
0.000930166
-0.0015644
0.00136714
0.00019726
0.00204182
0.000803104
6.25411e-05
-0.00129993
-0.000555549
-0.000830256
-0.00241907
-0.000472379
-0.00140077
-0.000171148
0.00159231
-0.000180664
0.00341134
-0.000514346
0.00133871
0.000199656
-0.000803227
-0.00101144
-0.00193025
0.00247682
-0.000546573
-0.00104896
-0.0057289
0.00351083
0.00149268
-0.000606312
0.002888
-0.00121232
0.000956616
-0.0013592
-0.00453051
0.0058897
0.000620036
-0.00255029
0.000740415
-0.00368673
0.00270247
0.000984261
0.00089417
-0.00142603
0.00222828
-0.00311778
0.000889492
0.00119481
-0.0034294
0.00223458
0.000860399
0.00168842
-0.00254881
-0.000174431
0.00179294
0.00275057
0.001082
0.00361499
-0.000413515
0.00078301
0.0031589
-0.00402427
0.000979981
-0.00327451
0.000434804
0.00412499
0.00147959
-1.06065e-05
-0.000276261
0.000286867
-0.00619246
0.00385613
0.00233633
-0.000825495
-0.00261652
0.00344202
0.00263993
-0.00177953
-0.00369599
0.000892431
-0.00132173
-0.000435591
-0.000152735
0.00131949
0.00372453
0.0012232
0.000224667
0.00130932
-0.000993272
-0.000316049
0.000896078
0.000596608
-0.000313854
0.00376832
-0.0049325
0.00116418
0.00307512
-0.000846851
-0.00139904
0.0019036
0.00125966
-0.00355381
0.00229415
-0.0011665
0.00145652
0.000678226
-0.00213475
0.00019256
-0.000203166
0.00219946
-0.000861473
-0.00127232
0.000330319
0.000934434
-0.000349979
-0.000584455
0.00353213
-0.00227247
-0.000507401
0.00229351
-0.00178611
0.0010212
-0.00296543
0.00208758
0.000877854
0.000106933
-1.2736e-06
0.00466203
0.000541252
-0.0057017
-0.00519365
0.00392653
0.00126712
-0.00107598
-0.0026954
0.00377137
0.00222131
0.00372513
0.00282744
-0.00375291
0.000925479
-0.0014716
0.00110344
-0.00094638
0.00336912
-0.00242274
0.0014973
0.000562014
-0.00378492
-0.00240754
0.0010691
-0.0023046
0.00320926
-0.000904663
0.00342772
-0.000815406
0.000395831
-0.000803286
0.0025448
0.000882918
-0.000634732
0.00431048
-0.00130928
0.0017169
-0.000407626
0.00198589
-0.00128788
-0.000389594
0.0060769
-0.00491754
-0.000460861
0.000858319
-0.00246222
-0.00539151
-0.00172276
0.000413488
-0.000678161
0.000101803
-0.000868548
0.00021289
-0.00147004
0.000659176
0.0015786
-0.000905432
0.000135221
0.000804777
0.00251626
-0.00332105
-0.00109512
0.0018737
-0.00194701
-0.000474133
0.00196121
-0.00148708
-0.000874281
-0.00209114
-0.00195177
0.00147764
-0.00265778
0.00346255
-0.00164389
0.000579615
0.00106428
-0.000977475
0.00357274
0.00600315
-0.00230145
-0.00130381
-0.000418948
-0.00173916
0.00109963
0.000639537
0.000903902
-0.00451885
0.00361495
-0.00131294
0.000541757
0.000771183
-0.00403454
-0.00115911
0.000191903
-0.00113614
0.00193465
-0.000703884
-0.00134065
-0.00380225
0.0051429
0.00100339
7.0955e-05
0.00329698
-0.00252831
-0.000768666
0.000154106
0.00128809
0.000877111
-0.000670376
-0.000206734
-0.00134818
-0.00101523
-0.00107247
0.00510635
-0.00403388
0.000631548
-0.00249429
0.000167693
0.0012452
0.00377251
-0.00495997
0.00118746
0.00287596
-0.00205434
0.000102064
-0.000168353
6.62897e-05
0.0010279
0.000138084
0.000104248
0.00235485
0.00370131
-0.000576206
-0.000817665
0.00139387
0.000652423
0.00177226
-0.00242468
0.0023994
-0.0017115
-0.0006879
0.000475447
0.00147356
0.000425972
-0.000510821
-0.00080212
0.000599591
-0.00532423
0.000690305
-2.97708e-05
-0.00115998
-0.00130771
-0.0037895
0.0050972
0.00103462
0.00143741
-0.00189554
0.00254674
-0.00039505
-0.00490879
0.00530384
0.0001208
-1.87365e-05
0.000644888
0.00128976
0.00272964
0.000940565
-0.0036702
0.00137553
0.0004714
0.00258781
-0.00364179
0.00454569
0.00277413
0.000843341
-0.00361747
0.00167359
-0.000853783
-0.000819802
0.00132874
-0.00101978
-0.000308957
0.00042288
0.00105828
-0.00470008
0.000218426
-6.74491e-06
0.000199304
0.00602257
-0.00128686
0.00152651
-0.00212885
0.00252509
-0.00182997
-0.000695123
0.000853912
-0.00254413
0.00169023
0.00523493
-0.00281685
-0.000924677
-0.00159309
0.00500973
0.00148597
-0.00178142
0.000295444
0.000499857
-0.000103715
-0.000396141
-0.000992247
-0.00314081
0.00413306
0.000742493
0.00181959
-0.00256208
0.00176752
-0.00028155
0.00224938
0.00140803
-0.00086628