/*--------------------------------*- C++ -*----------------------------------*\
  =========                 |
  \\      /  F ield         | OpenFOAM: The Open Source CFD Toolbox
   \\    /   O peration     | Website:  https://openfoam.org
    \\  /    A nd           | Version:  7
     \\/     M anipulation  |
\*---------------------------------------------------------------------------*/
FoamFile
{
    version     2.0;
    format      ascii;
    class       volVectorField;
    location    "14.5";
    object      U;
}
// * * * * * * * * * * * * * * * * * * * * * * * * * * * * * * * * * * * * * //

dimensions      [0 1 -1 0 0 0 0];

internalField   nonuniform List<vector> 
2413
(
(2 -8.96198e-16 0)
(2 -1.06957e-15 0)
(2 -1.63303e-15 0)
(2 -1.9727e-15 0)
(2 -2.10551e-15 0)
(2 -2.33269e-15 0)
(2 -2.65475e-15 0)
(2 -3.06613e-15 0)
(2 -3.19085e-15 0)
(2 -3.2903e-15 0)
(2 -3.02214e-15 0)
(2 -2.68807e-15 0)
(2 -2.1738e-15 0)
(2 -1.50362e-15 0)
(2 -1.32916e-15 0)
(2 -1.35758e-15 0)
(2 -1.80184e-15 0)
(2 -1.94875e-15 0)
(2 -2.03607e-15 0)
(2 -2.06622e-15 0)
(2 -2.15019e-15 0)
(2 -2.47948e-15 0)
(2 -2.41751e-15 0)
(2 -1.71687e-15 0)
(2 -1.53941e-15 0)
(2 -1.65729e-15 0)
(2 -1.14365e-15 0)
(2 -6.27344e-16 0)
(2 -5.0621e-16 0)
(2 -5.52449e-16 0)
(2 -7.63053e-16 0)
(2 -7.47236e-16 0)
(2 -7.01767e-16 0)
(2 -6.42713e-16 0)
(2 -6.65655e-16 0)
(2 -9.9425e-16 0)
(2 -1.34039e-15 0)
(2 -1.38932e-15 0)
(2 -1.41277e-15 0)
(2 -1.44514e-15 0)
(2 -1.52028e-15 0)
(2 -1.56884e-15 0)
(2 -1.70436e-15 0)
(2 -2.11479e-15 0)
(2 -2.55701e-15 0)
(2 -2.63396e-15 0)
(2 -2.35965e-15 0)
(2 -1.93319e-15 0)
(2 -1.82569e-15 0)
(2 -1.72428e-15 0)
(2 -1.46623e-15 0)
(2 -1.35308e-15 0)
(2 -1.54316e-15 0)
(2 -1.83942e-15 0)
(2 -1.4277e-15 0)
(2 -5.75488e-16 0)
(2 6.23696e-17 0)
(2 6.01853e-17 0)
(2 8.54642e-17 0)
(2 1.40812e-16 0)
(2 4.30326e-17 0)
(2 3.2859e-17 0)
(2 -5.33208e-16 0)
(2 -1.54503e-15 0)
(2 -1.7063e-15 0)
(2 -1.81116e-15 0)
(2 -1.89374e-15 0)
(2 -1.99245e-15 0)
(2 -2.04294e-15 0)
(2 -2.04652e-15 0)
(2 -2.09334e-15 0)
(2 -2.16775e-15 0)
(2 -2.18037e-15 0)
(2 -2.17825e-15 0)
(2 -2.12917e-15 0)
(2 -2.03974e-15 0)
(2 -2.08152e-15 0)
(2 -2.08965e-15 0)
(2 -2.02873e-15 0)
(2 -1.99659e-15 0)
(2 -1.96341e-15 0)
(2 -2.12536e-15 0)
(2 -2.26341e-15 0)
(2 -2.07119e-15 0)
(2 -1.72138e-15 0)
(2 -1.61563e-15 0)
(2 -1.24495e-15 0)
(2 -8.05841e-16 0)
(2 -4.40406e-16 0)
(2 -1.4586e-16 0)
(2 -1.24019e-16 0)
(2 6.86278e-17 0)
(2 1.84605e-16 0)
(2 2.14726e-16 0)
(2 4.99366e-16 0)
(2 7.16489e-16 0)
(2 6.72523e-17 0)
(2 -6.27397e-16 0)
(2 -6.56076e-16 0)
(2 -7.0109e-16 0)
(2 -8.25274e-16 0)
(2 8.34998e-17 0)
(2 4.38039e-16 0)
(2 8.41538e-16 0)
(2 1.31751e-15 0)
(2 1.47412e-15 0)
(2 1.72275e-15 0)
(2 1.98792e-15 0)
(2 1.76632e-15 0)
(2 1.70728e-15 0)
(2 1.6599e-15 0)
(2 1.64439e-15 0)
(2 1.44106e-15 0)
(2 1.36507e-15 0)
(2 1.31976e-15 0)
(2 1.34667e-15 0)
(2 1.50431e-15 0)
(2 1.71139e-15 0)
(2 1.67127e-15 0)
(2 3.19852e-16 0)
(2 1.48577e-15 0)
(2 -2.67613e-15 0)
(2 -2.75166e-15 0)
(2 -2.72023e-15 0)
(2 -2.65148e-15 0)
(2 -2.43884e-15 0)
(2 -2.46554e-15 0)
(2 -2.63704e-15 0)
(2 -2.84617e-15 0)
(2 -3.20114e-15 0)
(2 -3.10306e-15 0)
(2 -2.61559e-15 0)
(2 -2.12571e-15 0)
(2 -1.82988e-15 0)
(2 -1.52184e-15 0)
(2 -1.28545e-15 0)
(2 -1.16115e-15 0)
(2 -1.19681e-15 0)
(2 -1.42121e-15 0)
(2 -1.30415e-15 0)
(2 -1.24828e-15 0)
(2 -1.44019e-15 0)
(2 -1.59681e-15 0)
(2 -1.64972e-15 0)
(2 -1.53778e-15 0)
(2 -1.5086e-15 0)
(2 -1.03151e-15 0)
(2 -9.77539e-16 0)
(2 -1.04632e-15 0)
(2 -1.0709e-15 0)
(2 -1.13925e-15 0)
(2 -1.26858e-15 0)
(2 -1.29593e-15 0)
(2 -1.35945e-15 0)
(2 -1.45072e-15 0)
(2 -1.43216e-15 0)
(2 -1.46755e-15 0)
(2 -1.52404e-15 0)
(2 -1.60763e-15 0)
(2 -1.76484e-15 0)
(2 -1.72524e-15 0)
(2 -1.65695e-15 0)
(2 -1.65819e-15 0)
(2 -1.73491e-15 0)
(2 -2.20304e-15 0)
(2 -2.77706e-15 0)
(2 -2.56881e-15 0)
(2 -2.47074e-15 0)
(2 -1.55667e-15 0)
(2 -9.47613e-16 0)
(2 -7.87834e-16 0)
(2 -8.62711e-16 0)
(2 -1.05504e-15 0)
(2 -1.26901e-15 0)
(2 -1.1272e-15 0)
(2 -1.06324e-15 0)
(2 -1.07599e-15 0)
(2 7.02038e-17 0)
(2 4.50292e-16 0)
(2 5.80127e-17 0)
(2 -3.46861e-16 0)
(2 -5.39093e-16 0)
(2 -4.19664e-16 0)
(2 -9.69209e-16 0)
(2 -1.92898e-15 0)
(2 -2.22086e-15 0)
(2 -2.20628e-15 0)
(2 -2.1145e-15 0)
(2 -2.09022e-15 0)
(2 -1.87662e-15 0)
(2 -1.66281e-15 0)
(2 -1.60896e-15 0)
(2 -1.20466e-15 0)
(2 -9.42102e-16 0)
(2 -7.1184e-16 0)
(2 -5.48598e-16 0)
(2 -4.14168e-16 0)
(2 -3.84921e-16 0)
(2 -6.56407e-16 0)
(2 -8.58804e-16 0)
(2 -1.07828e-15 0)
(2 -1.08578e-15 0)
(2 -1.07903e-15 0)
(2 -7.34e-16 0)
(2 3.27224e-17 0)
(2 1.92637e-16 0)
(2 1.61634e-16 0)
(2 4.47665e-16 0)
(2 7.40552e-16 0)
(2 8.0349e-16 0)
(2 7.05583e-16 0)
(2 3.87538e-16 0)
(2 6.33344e-16 0)
(2 6.41788e-16 0)
(2 6.11741e-16 0)
(2 5.93861e-16 0)
(2 7.23338e-16 0)
(2 5.26211e-16 0)
(2 -5.52611e-17 0)
(2 8.42373e-17 0)
(2 7.37515e-16 0)
(2 5.59402e-16 0)
(2 8.84596e-16 0)
(2 9.99172e-16 0)
(2 1.89771e-15 0)
(2 2.6604e-15 0)
(2 3.21111e-15 0)
(2 3.83952e-15 0)
(2 4.08743e-15 0)
(2 4.54676e-15 0)
(2 4.62128e-15 0)
(2 4.88285e-15 0)
(2 4.87966e-15 0)
(2 4.64609e-15 0)
(2 4.28684e-15 0)
(2 4.33856e-15 0)
(2 4.48915e-15 0)
(2 4.37448e-15 0)
(2 4.27841e-15 0)
(2 4.15583e-15 0)
(2 3.88467e-15 0)
(2 3.36632e-15 0)
(2 -2.96966e-15 0)
(2 -3.06882e-15 0)
(2 -2.33774e-15 0)
(2 -2.05218e-15 0)
(2 -1.91815e-15 0)
(2 -1.54209e-15 0)
(2 -1.17527e-15 0)
(2 -1.03839e-15 0)
(2 -4.91552e-16 0)
(2 -2.08712e-16 0)
(2 -6.19e-17 0)
(2 5.76796e-17 0)
(2 3.78971e-16 0)
(2 5.06122e-16 0)
(2 7.6369e-16 0)
(2 8.96884e-16 0)
(2 7.27837e-16 0)
(2 1.48055e-16 0)
(2 -8.33028e-19 0)
(2 -8.49135e-16 0)
(2 -1.19516e-15 0)
(2 -1.15885e-15 0)
(2 -1.14993e-15 0)
(2 -1.1266e-15 0)
(2 -1.1916e-15 0)
(2 -1.43542e-15 0)
(2 -1.99191e-15 0)
(2 -2.33474e-15 0)
(2 -2.40201e-15 0)
(2 -2.54034e-15 0)
(2 -2.82703e-15 0)
(2 -2.78346e-15 0)
(2 -2.76725e-15 0)
(2 -2.76395e-15 0)
(2 -2.48221e-15 0)
(2 -2.14559e-15 0)
(2 -2.01588e-15 0)
(2 -1.88709e-15 0)
(2 -1.70986e-15 0)
(2 -1.70362e-15 0)
(2 -1.65819e-15 0)
(2 -1.67853e-15 0)
(2 -1.47647e-15 0)
(2 -1.13123e-15 0)
(2 -8.72623e-16 0)
(2 -7.82609e-16 0)
(2 3.37843e-16 0)
(2 9.15255e-16 0)
(2 2.10739e-15 0)
(2 2.94491e-15 0)
(2 2.91418e-15 0)
(2 2.49299e-15 0)
(2 1.63697e-15 0)
(2 8.41042e-16 0)
(2 2.98257e-16 0)
(2 1.16821e-16 0)
(2 -6.31342e-16 0)
(2 -8.18519e-16 0)
(2 -9.19994e-16 0)
(2 -2.06576e-15 0)
(2 -2.67541e-15 0)
(2 -2.72551e-15 0)
(2 -2.65242e-15 0)
(2 -2.49438e-15 0)
(2 -2.46331e-15 0)
(2 -2.03845e-15 0)
(2 -1.89538e-15 0)
(2 -1.41961e-15 0)
(2 -1.25994e-15 0)
(2 -1.11532e-15 0)
(2 -1.09528e-15 0)
(2 -7.21318e-16 0)
(2 -5.19031e-17 0)
(2 4.87609e-16 0)
(2 7.49387e-16 0)
(2 7.74068e-16 0)
(2 2.77793e-16 0)
(2 9.76931e-18 0)
(2 -3.34043e-16 0)
(2 -5.43956e-16 0)
(2 -4.28288e-16 0)
(2 -2.27639e-16 0)
(2 1.96566e-16 0)
(2 5.59178e-16 0)
(2 6.65944e-16 0)
(2 7.89703e-16 0)
(2 9.26301e-16 0)
(2 1.39101e-15 0)
(2 1.40836e-15 0)
(2 2.78662e-16 0)
(2 -7.81445e-16 0)
(2 -9.62943e-16 0)
(2 6.87416e-16 0)
(2 3.16423e-15 0)
(2 3.96163e-15 0)
(2 4.38108e-15 0)
(2 4.85036e-15 0)
(2 4.93855e-15 0)
(2 4.71242e-15 0)
(2 4.50132e-15 0)
(2 4.43042e-15 0)
(2 3.74226e-15 0)
(2 3.52096e-15 0)
(2 4.24645e-15 0)
(2 4.88928e-15 0)
(2 5.1245e-15 0)
(2 5.01476e-15 0)
(2 5.22983e-15 0)
(2 5.54116e-15 0)
(2 5.57686e-15 0)
(2 5.52267e-15 0)
(2 5.1848e-15 0)
(2 4.3912e-15 0)
(2 4.58305e-15 0)
(2 4.8824e-15 0)
(2 5.06467e-15 0)
(2 4.79007e-15 0)
(2 4.60072e-15 0)
(2 4.22613e-15 0)
(2 4.63761e-15 0)
(2 5.01938e-15 0)
(2 -1.94492e-15 0)
(2 -2.22155e-15 0)
(2 -1.18252e-15 0)
(2 -1.12638e-15 0)
(2 -9.84011e-16 0)
(2 -8.20491e-16 0)
(2 -4.62744e-16 0)
(2 -8.82558e-17 0)
(2 1.52501e-17 0)
(2 6.83855e-16 0)
(2 1.52241e-15 0)
(2 1.89866e-15 0)
(2 2.01211e-15 0)
(2 2.19426e-15 0)
(2 2.07641e-15 0)
(2 2.00114e-15 0)
(2 1.70302e-15 0)
(2 1.57595e-15 0)
(2 8.17865e-16 0)
(2 2.71399e-16 0)
(2 2.42854e-16 0)
(2 1.74966e-17 0)
(2 3.73862e-16 0)
(2 3.13584e-16 0)
(2 2.11729e-16 0)
(2 -1.66409e-17 0)
(2 -2.6617e-16 0)
(2 -5.22686e-16 0)
(2 -1.50695e-15 0)
(2 -1.78276e-15 0)
(2 -1.69487e-15 0)
(2 -1.59466e-15 0)
(2 -1.47346e-15 0)
(2 -1.4186e-15 0)
(2 -1.03644e-15 0)
(2 -3.37343e-16 0)
(2 -1.48388e-16 0)
(2 -7.20948e-17 0)
(2 1.06384e-16 0)
(2 7.21431e-17 0)
(2 -4.62883e-17 0)
(2 5.84311e-17 0)
(2 -2.10531e-17 0)
(2 3.50218e-16 0)
(2 9.48397e-16 0)
(2 1.43299e-15 0)
(2 1.96995e-15 0)
(2 1.99871e-15 0)
(2 1.9539e-15 0)
(2 1.92976e-15 0)
(2 1.3627e-15 0)
(2 5.58715e-16 0)
(2 5.70806e-16 0)
(2 6.50237e-16 0)
(2 -6.69226e-16 0)
(2 -1.39677e-15 0)
(2 -1.94316e-15 0)
(2 -2.39405e-15 0)
(2 -2.86343e-15 0)
(2 -3.38094e-15 0)
(2 -3.47045e-15 0)
(2 -3.67803e-15 0)
(2 -3.66289e-15 0)
(2 -3.10886e-15 0)
(2 -1.70277e-15 0)
(2 -1.40703e-15 0)
(2 -1.41485e-15 0)
(2 -1.54638e-15 0)
(2 -1.39136e-15 0)
(2 -1.13e-15 0)
(2 -1.18036e-15 0)
(2 -1.12519e-15 0)
(2 -8.36473e-16 0)
(2 -9.4458e-16 0)
(2 -6.99152e-16 0)
(2 -2.06034e-16 0)
(2 2.85808e-17 0)
(2 2.44561e-16 0)
(2 3.5492e-16 0)
(2 -1.22107e-16 0)
(2 -5.82081e-16 0)
(2 -6.40805e-16 0)
(2 -6.06388e-16 0)
(2 -5.39869e-16 0)
(2 -2.31663e-16 0)
(2 4.59109e-18 0)
(2 1.10852e-16 0)
(2 9.56657e-17 0)
(2 1.79651e-16 0)
(2 8.52328e-16 0)
(2 1.52337e-15 0)
(2 1.83151e-15 0)
(2 2.06586e-15 0)
(2 2.22642e-15 0)
(2 2.24578e-15 0)
(2 2.7045e-15 0)
(2 2.80678e-15 0)
(2 2.86585e-15 0)
(2 3.66102e-15 0)
(2 4.18607e-15 0)
(2 4.48444e-15 0)
(2 5.19425e-15 0)
(2 5.95682e-15 0)
(2 6.29633e-15 0)
(2 6.0131e-15 0)
(2 5.93644e-15 0)
(2 6.01687e-15 0)
(2 5.42641e-15 0)
(2 4.74141e-15 0)
(2 4.4894e-15 0)
(2 4.0903e-15 0)
(2 3.90042e-15 0)
(2 3.74513e-15 0)
(2 3.67143e-15 0)
(2 3.62958e-15 0)
(2 3.94518e-15 0)
(2 4.10288e-15 0)
(2 3.47018e-15 0)
(2 3.06781e-15 0)
(2 3.28007e-15 0)
(2 4.08588e-15 0)
(2 -6.4552e-16 0)
(2 -2.04469e-16 0)
(2 -6.12427e-17 0)
(2 -4.81079e-17 0)
(2 -6.52633e-17 0)
(2 -4.37618e-17 0)
(2 -8.63646e-17 0)
(2 3.95218e-17 0)
(2 8.20605e-16 0)
(2 1.7697e-15 0)
(2 2.14434e-15 0)
(2 2.23074e-15 0)
(2 1.95527e-15 0)
(2 1.60136e-15 0)
(2 1.38572e-15 0)
(2 1.38833e-15 0)
(2 1.20959e-15 0)
(2 1.42345e-15 0)
(2 1.59618e-15 0)
(2 1.9247e-15 0)
(2 1.73778e-15 0)
(2 1.31499e-15 0)
(2 5.78573e-16 0)
(2 -5.43972e-16 0)
(2 -9.2432e-16 0)
(2 -8.64241e-16 0)
(2 -8.11916e-16 0)
(2 -9.00475e-16 0)
(2 -1.04674e-15 0)
(2 -1.10248e-15 0)
(2 -9.91618e-16 0)
(2 -5.39617e-16 0)
(2 -4.96544e-16 0)
(2 1.40438e-16 0)
(2 4.75936e-16 0)
(2 1.15902e-15 0)
(2 1.53783e-15 0)
(2 1.96389e-15 0)
(2 2.16248e-15 0)
(2 2.38137e-15 0)
(2 2.41058e-15 0)
(2 2.52739e-15 0)
(2 2.94474e-15 0)
(2 3.38786e-15 0)
(2 3.38131e-15 0)
(2 3.3383e-15 0)
(2 2.94145e-15 0)
(2 2.6912e-15 0)
(2 2.29731e-15 0)
(2 1.64764e-15 0)
(2 1.10145e-15 0)
(2 1.11862e-15 0)
(2 1.01381e-15 0)
(2 3.9541e-16 0)
(2 -4.97704e-16 0)
(2 -1.03624e-15 0)
(2 -1.25307e-15 0)
(2 -1.3849e-15 0)
(2 -1.35056e-15 0)
(2 -1.30365e-15 0)
(2 -1.44506e-15 0)
(2 -1.46073e-15 0)
(2 -1.46738e-15 0)
(2 -1.51373e-15 0)
(2 -1.71134e-15 0)
(2 -1.7033e-15 0)
(2 -1.88129e-15 0)
(2 -1.94165e-15 0)
(2 -1.90426e-15 0)
(2 -1.57043e-15 0)
(2 -1.23713e-15 0)
(2 -1.1988e-15 0)
(2 -1.29893e-15 0)
(2 -8.43816e-16 0)
(2 -6.49539e-16 0)
(2 -1.39192e-16 0)
(2 7.55608e-17 0)
(2 2.2267e-16 0)
(2 6.71876e-17 0)
(2 -1.54643e-16 0)
(2 -2.9343e-16 0)
(2 -3.84875e-16 0)
(2 -2.76585e-16 0)
(2 -1.17973e-16 0)
(2 -6.18127e-17 0)
(2 2.57901e-17 0)
(2 2.88982e-17 0)
(2 -2.01035e-16 0)
(2 -2.95557e-16 0)
(2 -2.87577e-16 0)
(2 2.06386e-17 0)
(2 5.72137e-16 0)
(2 9.74604e-16 0)
(2 1.23542e-15 0)
(2 1.42103e-15 0)
(2 1.83787e-15 0)
(2 2.65809e-15 0)
(2 2.86828e-15 0)
(2 3.03596e-15 0)
(2 3.24571e-15 0)
(2 3.27488e-15 0)
(2 3.27319e-15 0)
(2 3.25066e-15 0)
(2 3.25258e-15 0)
(2 3.03644e-15 0)
(2 3.0966e-15 0)
(2 3.23701e-15 0)
(2 3.16772e-15 0)
(2 3.13919e-15 0)
(2 3.08421e-15 0)
(2 3.08807e-15 0)
(2 3.15459e-15 0)
(2 3.19238e-15 0)
(2 2.78363e-15 0)
(2 2.60986e-15 0)
(2 2.97055e-15 0)
(2 3.333e-15 0)
(2 3.51207e-15 0)
(2 3.12023e-15 0)
(2 3.11426e-15 0)
(2 -1.85623e-15 0)
(2 -1.54467e-15 0)
(2 -4.66192e-16 0)
(2 8.54273e-17 0)
(2 1.63767e-16 0)
(2 3.65967e-16 0)
(2 5.98773e-16 0)
(2 8.21284e-16 0)
(2 7.50093e-16 0)
(2 6.7494e-16 0)
(2 1.04285e-15 0)
(2 1.17094e-15 0)
(2 1.43246e-15 0)
(2 1.49175e-15 0)
(2 1.32815e-15 0)
(2 1.10951e-15 0)
(2 1.03952e-15 0)
(2 1.16325e-15 0)
(2 1.37419e-15 0)
(2 1.45063e-15 0)
(2 1.47484e-15 0)
(2 1.39198e-15 0)
(2 1.00684e-15 0)
(2 7.36351e-16 0)
(2 4.80534e-16 0)
(2 4.75912e-16 0)
(2 6.50645e-16 0)
(2 7.26302e-16 0)
(2 7.47665e-16 0)
(2 6.40906e-16 0)
(2 4.41049e-16 0)
(2 4.2823e-16 0)
(2 7.82193e-16 0)
(2 9.75445e-16 0)
(2 1.45886e-15 0)
(2 1.54119e-15 0)
(2 1.65758e-15 0)
(2 1.72666e-15 0)
(2 2.04033e-15 0)
(2 2.4995e-15 0)
(2 2.90551e-15 0)
(2 2.92614e-15 0)
(2 2.98857e-15 0)
(2 3.01372e-15 0)
(2 3.00104e-15 0)
(2 2.31162e-15 0)
(2 1.65975e-15 0)
(2 1.63857e-15 0)
(2 1.38814e-15 0)
(2 6.52825e-16 0)
(2 3.22504e-16 0)
(2 2.18934e-16 0)
(2 5.31214e-17 0)
(2 1.19023e-17 0)
(2 -3.38309e-17 0)
(2 -2.0627e-16 0)
(2 -1.8908e-16 0)
(2 5.11352e-16 0)
(2 9.79364e-16 0)
(2 1.15005e-15 0)
(2 9.90863e-16 0)
(2 8.9519e-16 0)
(2 9.18919e-16 0)
(2 7.77482e-16 0)
(2 6.9597e-16 0)
(2 7.2692e-16 0)
(2 9.05171e-16 0)
(2 1.122e-15 0)
(2 1.16051e-15 0)
(2 1.0831e-15 0)
(2 8.48799e-16 0)
(2 5.51379e-16 0)
(2 2.43558e-16 0)
(2 1.90977e-16 0)
(2 9.9075e-17 0)
(2 1.86185e-16 0)
(2 3.24686e-16 0)
(2 5.20194e-16 0)
(2 4.29651e-16 0)
(2 4.03592e-16 0)
(2 3.99805e-16 0)
(2 2.37514e-16 0)
(2 -4.83794e-17 0)
(2 1.8546e-16 0)
(2 9.57863e-16 0)
(2 1.15473e-15 0)
(2 1.26633e-15 0)
(2 1.25188e-15 0)
(2 1.26285e-15 0)
(2 1.23016e-15 0)
(2 1.56063e-15 0)
(2 1.613e-15 0)
(2 1.75208e-15 0)
(2 1.71423e-15 0)
(2 2.11342e-15 0)
(2 2.40891e-15 0)
(2 2.51582e-15 0)
(2 2.09915e-15 0)
(2 1.66357e-15 0)
(2 1.66546e-15 0)
(2 1.71131e-15 0)
(2 1.71476e-15 0)
(2 1.77421e-15 0)
(2 1.86419e-15 0)
(2 2.0453e-15 0)
(2 2.13444e-15 0)
(2 2.3472e-15 0)
(2 2.69018e-15 0)
(2 3.28211e-15 0)
(2 3.7714e-15 0)
(2 3.85187e-15 0)
(2 3.76376e-15 0)
(2 3.58934e-15 0)
(2 3.53776e-15 0)
(2 3.50576e-15 0)
(2 3.53422e-15 0)
(2 3.59792e-15 0)
(2 3.9186e-15 0)
(2 4.10135e-15 0)
(2 4.09627e-15 0)
(2 -1.26928e-15 0)
(2 -1.2109e-15 0)
(2 7.71039e-17 0)
(2 4.96495e-16 0)
(2 8.17444e-16 0)
(2 9.88514e-16 0)
(2 1.17396e-15 0)
(2 1.34353e-15 0)
(2 1.49689e-15 0)
(2 1.03783e-15 0)
(2 4.81279e-16 0)
(2 5.36915e-16 0)
(2 4.86236e-16 0)
(2 9.72136e-16 0)
(2 1.57471e-15 0)
(2 1.64435e-15 0)
(2 1.43299e-15 0)
(2 1.23559e-15 0)
(2 1.09455e-15 0)
(2 1.20759e-15 0)
(2 1.29476e-15 0)
(2 1.52413e-15 0)
(2 2.1353e-15 0)
(2 2.3624e-15 0)
(2 2.91052e-15 0)
(2 3.03088e-15 0)
(2 2.99676e-15 0)
(2 3.04983e-15 0)
(2 3.29011e-15 0)
(2 3.57285e-15 0)
(2 3.82997e-15 0)
(2 3.68743e-15 0)
(2 3.78604e-15 0)
(2 3.6346e-15 0)
(2 3.62348e-15 0)
(2 3.28746e-15 0)
(2 2.98829e-15 0)
(2 2.77814e-15 0)
(2 2.61593e-15 0)
(2 2.59443e-15 0)
(2 2.66573e-15 0)
(2 2.70562e-15 0)
(2 2.35792e-15 0)
(2 2.24586e-15 0)
(2 2.12715e-15 0)
(2 1.35853e-15 0)
(2 1.21057e-15 0)
(2 1.0842e-15 0)
(2 4.26314e-16 0)
(2 1.07444e-17 0)
(2 -1.25549e-16 0)
(2 -2.10474e-16 0)
(2 -3.93611e-16 0)
(2 -8.05474e-16 0)
(2 -2.81978e-17 0)
(2 2.97093e-16 0)
(2 3.9295e-16 0)
(2 6.99259e-16 0)
(2 8.19553e-16 0)
(2 8.41543e-16 0)
(2 1.12594e-15 0)
(2 1.34983e-15 0)
(2 1.46675e-15 0)
(2 1.74749e-15 0)
(2 2.49694e-15 0)
(2 2.9526e-15 0)
(2 3.66731e-15 0)
(2 4.25786e-15 0)
(2 4.35891e-15 0)
(2 4.21539e-15 0)
(2 3.98635e-15 0)
(2 3.91364e-15 0)
(2 3.7199e-15 0)
(2 3.58755e-15 0)
(2 3.35535e-15 0)
(2 3.3189e-15 0)
(2 3.2071e-15 0)
(2 2.99992e-15 0)
(2 2.81261e-15 0)
(2 2.63373e-15 0)
(2 2.57188e-15 0)
(2 2.42254e-15 0)
(2 1.96234e-15 0)
(2 1.50475e-15 0)
(2 1.43994e-15 0)
(2 8.05016e-16 0)
(2 7.8213e-16 0)
(2 8.02383e-16 0)
(2 7.99605e-16 0)
(2 7.85972e-16 0)
(2 1.06016e-15 0)
(2 1.19612e-15 0)
(2 1.11419e-15 0)
(2 1.27484e-15 0)
(2 1.38687e-15 0)
(2 1.30126e-15 0)
(2 1.1907e-15 0)
(2 1.29312e-15 0)
(2 1.45144e-15 0)
(2 1.20442e-15 0)
(2 8.87994e-16 0)
(2 8.87529e-16 0)
(2 9.12267e-16 0)
(2 9.11964e-16 0)
(2 1.10284e-15 0)
(2 7.2372e-16 0)
(2 6.16872e-16 0)
(2 7.66405e-16 0)
(2 7.39188e-16 0)
(2 1.48762e-15 0)
(2 1.64937e-15 0)
(2 1.3849e-15 0)
(2 2.39625e-15 0)
(2 2.80737e-15 0)
(2 2.82669e-15 0)
(2 2.61046e-15 0)
(2 2.44708e-15 0)
(2 3.20787e-15 0)
(2 4.51337e-15 0)
(2 4.83756e-15 0)
(2 3.03306e-15 0)
(2 2.98872e-15 0)
(2 2.84336e-15 0)
(2 2.77706e-15 0)
(2 2.61021e-15 0)
(2 2.46886e-15 0)
(2 2.67819e-15 0)
(2 3.11911e-15 0)
(2 3.13964e-15 0)
(2 2.93329e-15 0)
(2 2.7755e-15 0)
(2 2.68851e-15 0)
(2 2.69994e-15 0)
(2 2.85605e-15 0)
(2 2.91746e-15 0)
(2 3.05543e-15 0)
(2 3.31092e-15 0)
(2 3.70128e-15 0)
(2 3.80617e-15 0)
(2 3.70474e-15 0)
(2 3.6613e-15 0)
(2 3.60467e-15 0)
(2 3.52332e-15 0)
(2 3.48617e-15 0)
(2 3.53639e-15 0)
(2 3.92473e-15 0)
(2 4.65291e-15 0)
(2 5.18601e-15 0)
(2 5.34568e-15 0)
(2 5.78004e-15 0)
(2 5.83554e-15 0)
(2 5.75566e-15 0)
(2 5.74941e-15 0)
(2 5.50609e-15 0)
(2 5.32147e-15 0)
(2 5.21289e-15 0)
(2 5.10951e-15 0)
(2 5.05739e-15 0)
(2 4.84401e-15 0)
(2 4.67741e-15 0)
(2 4.64681e-15 0)
(2 4.77317e-15 0)
(2 4.17113e-15 0)
(2 3.81164e-15 0)
(2 3.1978e-15 0)
(2 2.87345e-15 0)
(2 2.7533e-15 0)
(2 2.49445e-15 0)
(2 2.26501e-15 0)
(2 1.63538e-15 0)
(2 1.54475e-15 0)
(2 1.51152e-15 0)
(2 1.59671e-15 0)
(2 1.82635e-15 0)
(2 2.61675e-15 0)
(2 3.10053e-15 0)
(2 2.99331e-15 0)
(2 2.60192e-15 0)
(2 2.19295e-15 0)
(2 1.81778e-15 0)
(2 1.96214e-15 0)
(2 1.9903e-15 0)
(2 2.35621e-15 0)
(2 2.59216e-15 0)
(2 2.58908e-15 0)
(2 2.53419e-15 0)
(2 2.46165e-15 0)
(2 2.59678e-15 0)
(2 2.91243e-15 0)
(2 3.89931e-15 0)
(2 4.76899e-15 0)
(2 4.74153e-15 0)
(2 4.59821e-15 0)
(2 4.58303e-15 0)
(2 4.57565e-15 0)
(2 4.65179e-15 0)
(2 4.731e-15 0)
(2 4.72671e-15 0)
(2 4.39488e-15 0)
(2 3.83563e-15 0)
(2 3.55684e-15 0)
(2 3.54827e-15 0)
(2 3.54899e-15 0)
(2 2.86176e-15 0)
(2 2.35144e-15 0)
(2 2.03045e-15 0)
(2 2.0588e-15 0)
(2 2.12177e-15 0)
(2 2.2952e-15 0)
(2 2.55458e-15 0)
(2 2.92889e-15 0)
(2 3.34365e-15 0)
(2 3.54746e-15 0)
(2 3.61572e-15 0)
(2 3.44653e-15 0)
(2 3.17858e-15 0)
(2 2.75117e-15 0)
(2 2.48169e-15 0)
(2 2.2495e-15 0)
(2 2.07857e-15 0)
(2 1.75663e-15 0)
(2 1.89681e-15 0)
(2 2.07728e-15 0)
(2 1.22769e-15 0)
(2 4.31659e-16 0)
(2 -2.6428e-16 0)
(2 -5.40996e-16 0)
(2 -5.65462e-16 0)
(2 -4.49466e-16 0)
(2 -4.0814e-16 0)
(2 -3.8118e-16 0)
(2 1.18225e-16 0)
(2 1.03438e-15 0)
(2 1.29731e-15 0)
(2 1.18332e-15 0)
(2 1.61325e-15 0)
(2 2.03142e-15 0)
(2 2.14787e-15 0)
(2 2.00935e-15 0)
(2 1.84777e-15 0)
(2 3.97463e-15 0)
(2 3.95363e-15 0)
(2 3.8562e-15 0)
(2 3.76139e-15 0)
(2 3.75728e-15 0)
(2 3.91474e-15 0)
(2 3.96114e-15 0)
(2 4.20354e-15 0)
(2 4.40624e-15 0)
(2 4.7511e-15 0)
(2 4.9728e-15 0)
(2 4.81952e-15 0)
(2 4.47074e-15 0)
(2 3.89293e-15 0)
(2 3.63998e-15 0)
(2 3.80764e-15 0)
(2 3.97384e-15 0)
(2 4.02833e-15 0)
(2 3.93685e-15 0)
(2 3.46166e-15 0)
(2 3.55731e-15 0)
(2 3.56266e-15 0)
(2 3.56688e-15 0)
(2 3.52064e-15 0)
(2 3.44352e-15 0)
(2 3.33869e-15 0)
(2 3.17146e-15 0)
(2 3.12695e-15 0)
(2 3.20225e-15 0)
(2 3.30324e-15 0)
(2 3.45024e-15 0)
(2 3.58082e-15 0)
(2 3.61293e-15 0)
(2 3.54212e-15 0)
(2 3.43953e-15 0)
(2 3.49416e-15 0)
(2 3.63649e-15 0)
(2 3.73112e-15 0)
(2 3.8475e-15 0)
(2 3.86665e-15 0)
(2 3.87573e-15 0)
(2 3.76174e-15 0)
(2 3.36348e-15 0)
(2 2.71401e-15 0)
(2 2.33272e-15 0)
(2 2.04732e-15 0)
(2 1.72151e-15 0)
(2 1.71683e-15 0)
(2 1.74822e-15 0)
(2 1.73146e-15 0)
(2 1.52193e-15 0)
(2 1.04549e-15 0)
(2 1.23115e-15 0)
(2 1.44259e-15 0)
(2 1.73342e-15 0)
(2 2.35293e-15 0)
(2 2.57385e-15 0)
(2 2.71824e-15 0)
(2 2.45974e-15 0)
(2 2.38178e-15 0)
(2 2.27273e-15 0)
(2 2.28854e-15 0)
(2 2.3848e-15 0)
(2 2.25294e-15 0)
(2 2.12681e-15 0)
(2 1.82186e-15 0)
(2 1.36809e-15 0)
(2 9.99133e-16 0)
(2 1.04986e-15 0)
(2 1.34072e-15 0)
(2 1.69144e-15 0)
(2 1.50058e-15 0)
(2 1.07425e-15 0)
(2 9.49533e-16 0)
(2 9.5901e-16 0)
(2 9.20358e-16 0)
(2 1.6152e-15 0)
(2 2.01201e-15 0)
(2 2.5631e-15 0)
(2 2.76363e-15 0)
(2 2.89056e-15 0)
(2 2.7794e-15 0)
(2 3.21191e-15 0)
(2 3.43693e-15 0)
(2 3.82181e-15 0)
(2 3.95788e-15 0)
(2 3.92496e-15 0)
(2 4.02896e-15 0)
(2 4.15231e-15 0)
(2 4.16359e-15 0)
(2 4.2493e-15 0)
(2 4.51647e-15 0)
(2 4.68203e-15 0)
(2 4.50755e-15 0)
(2 3.6561e-15 0)
(2 2.93698e-15 0)
(2 2.70861e-15 0)
(2 2.47514e-15 0)
(2 2.87317e-15 0)
(2 2.96582e-15 0)
(2 2.86054e-15 0)
(2 2.83601e-15 0)
(2 2.76132e-15 0)
(2 2.80662e-15 0)
(2 2.78098e-15 0)
(2 3.02205e-15 0)
(2 3.11121e-15 0)
(2 2.75755e-15 0)
(2 2.7052e-15 0)
(2 2.71383e-15 0)
(2 2.68702e-15 0)
(2 2.6262e-15 0)
(2 2.4215e-15 0)
(2 2.51044e-15 0)
(2 2.50913e-15 0)
(2 2.27988e-15 0)
(2 1.86354e-15 0)
(2 1.81475e-15 0)
(2 1.72983e-15 0)
(2 1.63222e-15 0)
(2 4.54711e-15 0)
(2 4.45324e-15 0)
(2 4.32116e-15 0)
(2 4.52581e-15 0)
(2 4.59571e-15 0)
(2 4.37923e-15 0)
(2 4.34928e-15 0)
(2 4.24992e-15 0)
(2 4.2733e-15 0)
(2 4.43068e-15 0)
(2 4.50716e-15 0)
(2 4.59101e-15 0)
(2 4.48962e-15 0)
(2 4.38248e-15 0)
(2 4.16435e-15 0)
(2 3.68376e-15 0)
(2 3.41513e-15 0)
(2 3.37493e-15 0)
(2 3.23008e-15 0)
(2 2.94092e-15 0)
(2 2.84133e-15 0)
(2 2.91404e-15 0)
(2 3.13362e-15 0)
(2 3.21267e-15 0)
(2 3.25374e-15 0)
(2 3.08608e-15 0)
(2 2.87916e-15 0)
(2 2.70442e-15 0)
(2 2.43581e-15 0)
(2 2.38437e-15 0)
(2 2.31293e-15 0)
(2 2.472e-15 0)
(2 2.66323e-15 0)
(2 2.60341e-15 0)
(2 2.44973e-15 0)
(2 2.41363e-15 0)
(2 2.49317e-15 0)
(2 2.36837e-15 0)
(2 2.35593e-15 0)
(2 2.04799e-15 0)
(2 1.62752e-15 0)
(2 9.08565e-16 0)
(2 6.99173e-16 0)
(2 8.06329e-16 0)
(2 8.5402e-16 0)
(2 9.22405e-16 0)
(2 1.0641e-15 0)
(2 1.15959e-15 0)
(2 1.92268e-15 0)
(2 2.06405e-15 0)
(2 1.98035e-15 0)
(2 1.43517e-15 0)
(2 1.04157e-15 0)
(2 8.64122e-16 0)
(2 9.3775e-16 0)
(2 1.27357e-15 0)
(2 1.30763e-15 0)
(2 1.71134e-15 0)
(2 1.81156e-15 0)
(2 1.54757e-15 0)
(2 1.15113e-15 0)
(2 1.20836e-15 0)
(2 1.20428e-15 0)
(2 1.09854e-15 0)
(2 9.81575e-16 0)
(2 9.99379e-16 0)
(2 9.81062e-16 0)
(2 5.26167e-16 0)
(2 4.26057e-16 0)
(2 4.52494e-16 0)
(2 3.66441e-16 0)
(2 3.55734e-16 0)
(2 4.91048e-16 0)
(2 8.27053e-16 0)
(2 9.58451e-16 0)
(2 1.17852e-15 0)
(2 1.2222e-15 0)
(2 1.29174e-15 0)
(2 1.30104e-15 0)
(2 1.12754e-15 0)
(2 1.36282e-15 0)
(2 1.45877e-15 0)
(2 9.75414e-16 0)
(2 1.8092e-15 0)
(2 2.98627e-15 0)
(2 3.2654e-15 0)
(2 3.24237e-15 0)
(2 3.33236e-15 0)
(2 3.29781e-15 0)
(2 2.19204e-15 0)
(2 1.62957e-15 0)
(2 2.11489e-15 0)
(2 2.35368e-15 0)
(2 2.31156e-15 0)
(2 2.24776e-15 0)
(2 2.26564e-15 0)
(2 2.34882e-15 0)
(2 2.31415e-15 0)
(2 2.36252e-15 0)
(2 2.41201e-15 0)
(2 2.46634e-15 0)
(2 2.41369e-15 0)
(2 2.39936e-15 0)
(2 2.51496e-15 0)
(2 2.59978e-15 0)
(2 3.10154e-15 0)
(2 3.73333e-15 0)
(2 4.02196e-15 0)
(2 4.01273e-15 0)
(2 4.07337e-15 0)
(2 4.04043e-15 0)
(2 3.82314e-15 0)
(2 3.64404e-15 0)
(2 3.13243e-15 0)
(2 2.95087e-15 0)
(2 2.74077e-15 0)
(2 2.68037e-15 0)
(2 2.6519e-15 0)
(2 2.71361e-15 0)
(2 2.82021e-15 0)
(2 2.42317e-15 0)
(2 3.02799e-15 0)
(2 3.24405e-15 0)
(2 3.34782e-15 0)
(2 3.3965e-15 0)
(2 3.30789e-15 0)
(2 3.12428e-15 0)
(2 3.0726e-15 0)
(2 3.04215e-15 0)
(2 3.01479e-15 0)
(2 2.80316e-15 0)
(2 3.17231e-15 0)
(2 2.88238e-15 0)
(2 2.62095e-15 0)
(2 2.31794e-15 0)
(2 1.64703e-15 0)
(2 1.27486e-15 0)
(2 1.06369e-15 0)
(2 1.04132e-15 0)
(2 1.14556e-15 0)
(2 1.11745e-15 0)
(2 1.01851e-15 0)
(2 8.9479e-16 0)
(2 9.00981e-16 0)
(2 9.64355e-16 0)
(2 1.02606e-15 0)
(2 1.05894e-15 0)
(2 1.01305e-15 0)
(2 8.59805e-16 0)
(2 7.80123e-16 0)
(2 7.97996e-16 0)
(2 1.02185e-15 0)
(2 1.14717e-15 0)
(2 1.19074e-15 0)
(2 1.15657e-15 0)
(2 1.00843e-15 0)
(2 9.88758e-16 0)
(2 9.72831e-16 0)
(2 9.11543e-16 0)
(2 8.18467e-16 0)
(2 6.96647e-16 0)
(2 3.428e-16 0)
(2 4.07261e-16 0)
(2 5.14474e-16 0)
(2 5.3208e-16 0)
(2 3.16255e-16 0)
(2 3.51506e-16 0)
(2 4.72502e-16 0)
(2 5.91932e-16 0)
(2 1.18346e-15 0)
(2 1.37356e-15 0)
(2 1.9839e-15 0)
(2 2.57274e-15 0)
(2 2.3573e-15 0)
(2 1.83238e-15 0)
(2 1.25909e-15 0)
(2 1.10951e-15 0)
(2 1.11318e-15 0)
(2 1.3391e-15 0)
(2 1.57782e-15 0)
(2 1.70778e-15 0)
(2 1.68129e-15 0)
(2 1.49622e-15 0)
(2 1.76408e-15 0)
(2 1.75549e-15 0)
(2 1.79439e-15 0)
(2 1.86335e-15 0)
(2 1.83734e-15 0)
(2 1.748e-15 0)
(2 1.69045e-15 0)
(2 1.67469e-15 0)
(2 1.93871e-15 0)
(2 1.95597e-15 0)
(2 1.75698e-15 0)
(2 1.39456e-15 0)
(2 1.01198e-15 0)
(2 7.31166e-16 0)
(2 1.82171e-16 0)
(2 3.62382e-16 0)
(2 1.2119e-15 0)
(2 1.47351e-15 0)
(2 1.38483e-15 0)
(2 1.35991e-15 0)
(2 1.59169e-15 0)
(2 1.94e-15 0)
(2 2.14039e-15 0)
(2 2.15088e-15 0)
(2 2.31857e-15 0)
(2 2.44592e-15 0)
(2 2.31877e-15 0)
(2 2.06217e-15 0)
(2 1.73208e-15 0)
(2 1.58254e-15 0)
(2 1.87735e-15 0)
(2 2.02861e-15 0)
(2 2.11763e-15 0)
(2 1.9898e-15 0)
(2 1.97171e-15 0)
(2 2.08133e-15 0)
(2 2.17654e-15 0)
(2 2.44124e-15 0)
(2 2.65374e-15 0)
(2 2.85461e-15 0)
(2 2.9276e-15 0)
(2 2.81245e-15 0)
(2 2.74064e-15 0)
(2 2.64816e-15 0)
(2 2.6913e-15 0)
(2 2.76989e-15 0)
(2 2.90844e-15 0)
(2 3.0232e-15 0)
(2 3.16865e-15 0)
(2 3.23478e-15 0)
(2 3.19415e-15 0)
(2 3.0582e-15 0)
(2 2.81929e-15 0)
(2 2.69724e-15 0)
(2 2.61403e-15 0)
(2 2.39315e-15 0)
(2 2.13164e-15 0)
(2 1.15719e-15 0)
(2 1.43347e-15 0)
(2 1.57912e-15 0)
(2 1.66999e-15 0)
(2 1.75577e-15 0)
(2 1.80932e-15 0)
(2 2.01208e-15 0)
(2 2.15855e-15 0)
(2 2.29712e-15 0)
(2 2.2128e-15 0)
(2 1.74767e-15 0)
(2 1.52436e-15 0)
(2 1.53426e-15 0)
(2 1.05154e-15 0)
(2 1.34881e-15 0)
(2 8.00513e-16 0)
(2 6.46192e-16 0)
(2 4.50181e-16 0)
(2 7.55229e-17 0)
(2 -1.66951e-16 0)
(2 -3.84912e-16 0)
(2 -7.1999e-16 0)
(2 -9.64635e-16 0)
(2 -8.67839e-16 0)
(2 -6.40957e-16 0)
(2 -3.89649e-16 0)
(2 -3.82879e-16 0)
(2 4.10076e-17 0)
(2 1.44183e-16 0)
(2 7.55208e-17 0)
(2 6.85277e-17 0)
(2 1.08312e-16 0)
(2 1.54139e-17 0)
(2 -5.50448e-17 0)
(2 -1.37606e-16 0)
(2 -3.57479e-16 0)
(2 -7.50903e-16 0)
(2 -8.0865e-16 0)
(2 -1.00235e-15 0)
(2 -1.14668e-15 0)
(2 -1.09268e-15 0)
(2 -1.07721e-15 0)
(2 -1.06008e-15 0)
(2 -8.20333e-16 0)
(2 -6.49249e-16 0)
(2 -5.09913e-16 0)
(2 -5.45603e-16 0)
(2 -5.63617e-16 0)
(2 -3.72578e-16 0)
(2 2.90863e-16 0)
(2 9.7287e-16 0)
(2 1.52736e-15 0)
(2 2.03327e-15 0)
(2 2.11544e-15 0)
(2 2.10473e-15 0)
(2 1.688e-15 0)
(2 1.38238e-15 0)
(2 1.27425e-15 0)
(2 1.32872e-15 0)
(2 1.71404e-15 0)
(2 1.91741e-15 0)
(2 2.02652e-15 0)
(2 2.04942e-15 0)
(2 2.0938e-15 0)
(2 2.18264e-15 0)
(2 2.31439e-15 0)
(2 2.29549e-15 0)
(2 2.53518e-15 0)
(2 2.48312e-15 0)
(2 2.2765e-15 0)
(2 2.19478e-15 0)
(2 2.19734e-15 0)
(2 2.21805e-15 0)
(2 2.19132e-15 0)
(2 2.03248e-15 0)
(2 1.87151e-15 0)
(2 1.66389e-15 0)
(2 1.44519e-15 0)
(2 1.5713e-15 0)
(2 2.03836e-15 0)
(2 2.25405e-15 0)
(2 2.45833e-15 0)
(2 2.4059e-15 0)
(2 2.44423e-15 0)
(2 2.36047e-15 0)
(2 2.29249e-15 0)
(2 2.27837e-15 0)
(2 2.27439e-15 0)
(2 2.52296e-15 0)
(2 2.60664e-15 0)
(2 2.02895e-15 0)
(2 1.56681e-15 0)
(2 1.44123e-15 0)
(2 1.44771e-15 0)
(2 1.51595e-15 0)
(2 1.47762e-15 0)
(2 1.50645e-15 0)
(2 1.83572e-15 0)
(2 1.97978e-15 0)
(2 1.97488e-15 0)
(2 1.93688e-15 0)
(2 2.09636e-15 0)
(2 2.11473e-15 0)
(2 2.23617e-15 0)
(2 2.41437e-15 0)
(2 2.40692e-15 0)
(2 2.45991e-15 0)
(2 2.47791e-15 0)
(2 2.39308e-15 0)
(2 2.34789e-15 0)
(2 2.29084e-15 0)
(2 2.21624e-15 0)
(2 2.04319e-15 0)
(2 1.95997e-15 0)
(2 1.94585e-15 0)
(2 1.84281e-15 0)
(2 1.70806e-15 0)
(2 1.5976e-15 0)
(2 1.815e-15 0)
(2 1.18226e-15 0)
(2 1.50447e-15 0)
(2 1.71582e-15 0)
(2 1.78556e-15 0)
(2 2.11711e-15 0)
(2 2.22477e-15 0)
(2 2.72024e-15 0)
(2 2.91237e-15 0)
(2 2.96909e-15 0)
(2 2.82948e-15 0)
(2 2.54646e-15 0)
(2 2.22504e-15 0)
(2 1.72928e-15 0)
(2 1.56197e-15 0)
(2 1.74902e-15 0)
(2 1.92646e-15 0)
(2 2.33167e-15 0)
(2 2.504e-15 0)
(2 2.62366e-15 0)
(2 2.75802e-15 0)
(2 2.77976e-15 0)
(2 2.43309e-15 0)
(2 1.56595e-15 0)
(2 1.2964e-15 0)
(2 1.26847e-15 0)
(2 1.31205e-15 0)
(2 1.30379e-15 0)
(2 1.36847e-15 0)
(2 1.61011e-15 0)
(2 1.99811e-15 0)
(2 2.21672e-15 0)
(2 2.26654e-15 0)
(2 2.1538e-15 0)
(2 1.12119e-15 0)
(2 8.98686e-16 0)
(2 9.31134e-16 0)
(2 3.74858e-16 0)
(2 -1.61265e-16 0)
(2 -2.59825e-16 0)
(2 -2.73211e-16 0)
(2 -1.74248e-16 0)
(2 1.97514e-16 0)
(2 6.49274e-16 0)
(2 1.0276e-15 0)
(2 1.08293e-15 0)
(2 1.25141e-15 0)
(2 1.69662e-15 0)
(2 1.83561e-15 0)
(2 1.62575e-15 0)
(2 1.24814e-15 0)
(2 1.07781e-15 0)
(2 9.81475e-16 0)
(2 9.79487e-16 0)
(2 9.66296e-16 0)
(2 9.88639e-16 0)
(2 1.04094e-15 0)
(2 9.6034e-16 0)
(2 9.13213e-16 0)
(2 6.69796e-16 0)
(2 7.29119e-16 0)
(2 6.84131e-16 0)
(2 7.13474e-16 0)
(2 1.03793e-15 0)
(2 1.25637e-15 0)
(2 1.29338e-15 0)
(2 1.29465e-15 0)
(2 1.50372e-15 0)
(2 1.87977e-15 0)
(2 2.27008e-15 0)
(2 3.04235e-15 0)
(2 4.13185e-15 0)
(2 4.24959e-15 0)
(2 4.13262e-15 0)
(2 3.96135e-15 0)
(2 3.89211e-15 0)
(2 3.64317e-15 0)
(2 3.50244e-15 0)
(2 3.51605e-15 0)
(2 3.40982e-15 0)
(2 2.9335e-15 0)
(2 2.63218e-15 0)
(2 2.7451e-15 0)
(2 2.95187e-15 0)
(2 2.75555e-15 0)
(2 2.42704e-15 0)
(2 2.4188e-15 0)
(2 1.91034e-15 0)
(2 1.25299e-15 0)
(2 1.09647e-15 0)
(2 1.04571e-15 0)
(2 1.05356e-15 0)
(2 1.06197e-15 0)
(2 1.05621e-15 0)
(2 1.42308e-15 0)
(2 1.74185e-15 0)
(2 1.82916e-15 0)
(2 1.92131e-15 0)
(2 1.94542e-15 0)
(2 1.84032e-15 0)
(2 1.94159e-15 0)
(2 2.16079e-15 0)
(2 2.26873e-15 0)
(2 2.2283e-15 0)
(2 2.28553e-15 0)
(2 2.38783e-15 0)
(2 2.71876e-15 0)
(2 3.07749e-15 0)
(2 3.16246e-15 0)
(2 2.99391e-15 0)
(2 2.6154e-15 0)
(2 2.31223e-15 0)
(2 2.13917e-15 0)
(2 1.63495e-15 0)
(2 1.4113e-15 0)
(2 1.34263e-15 0)
(2 1.3325e-15 0)
(2 1.22113e-15 0)
(2 1.16552e-15 0)
(2 1.07089e-15 0)
(2 1.14425e-15 0)
(2 1.39311e-15 0)
(2 -2.39142e-16 0)
(2 2.43458e-16 0)
(2 -6.73841e-16 0)
(2 -9.15994e-16 0)
(2 -1.03257e-15 0)
(2 -1.20986e-15 0)
(2 -1.80462e-15 0)
(2 -2.21093e-15 0)
(2 -2.34206e-15 0)
(2 -1.93689e-15 0)
(2 -6.93921e-16 0)
(2 -4.25691e-17 0)
(2 2.45449e-16 0)
(2 4.15718e-16 0)
(2 1.17145e-15 0)
(2 1.95659e-15 0)
(2 2.2147e-15 0)
(2 1.8273e-15 0)
(2 1.70028e-15 0)
(2 1.25251e-15 0)
(2 9.44802e-16 0)
(2 1.06557e-15 0)
(2 1.30359e-15 0)
(2 1.38456e-15 0)
(2 1.13544e-15 0)
(2 7.69817e-16 0)
(2 2.95231e-17 0)
(2 -1.0519e-16 0)
(2 4.97322e-17 0)
(2 1.32008e-16 0)
(2 5.26146e-17 0)
(2 2.03562e-17 0)
(2 5.71269e-17 0)
(2 1.68547e-17 0)
(2 2.28147e-16 0)
(2 4.77568e-16 0)
(2 6.08043e-16 0)
(2 7.10363e-16 0)
(2 8.16735e-16 0)
(2 1.02548e-15 0)
(2 1.09123e-15 0)
(2 1.10642e-15 0)
(2 9.65322e-16 0)
(2 9.03117e-16 0)
(2 8.81355e-16 0)
(2 9.36147e-16 0)
(2 1.14228e-15 0)
(2 1.20247e-15 0)
(2 9.2483e-16 0)
(2 2.2742e-16 0)
(2 -1.20585e-16 0)
(2 -2.84714e-16 0)