/*--------------------------------*- C++ -*----------------------------------*\
  =========                 |
  \\      /  F ield         | OpenFOAM: The Open Source CFD Toolbox
   \\    /   O peration     | Website:  https://openfoam.org
    \\  /    A nd           | Version:  7
     \\/     M anipulation  |
\*---------------------------------------------------------------------------*/
FoamFile
{
    version     2.0;
    format      ascii;
    class       surfaceScalarField;
    location    "20";
    object      phi;
}
// * * * * * * * * * * * * * * * * * * * * * * * * * * * * * * * * * * * * * //

dimensions      [0 3 -1 0 0 0 0];

internalField   nonuniform List<scalar> 
19720
(
5.85708e-05
-5.85704e-05
-4.12226e-10
0.00134646
-0.00128789
7.24356e-10
0.00282014
-0.00147367
4.68599e-10
0.00467407
-0.00185393
6.12398e-11
0.00684101
-0.00216694
-8.85096e-10
0.00924303
-0.00240202
-1.2601e-09
0.0120041
-0.0027611
-4.42242e-10
0.0151142
-0.00311008
1.16589e-09
0.0184726
-0.00335841
1.58432e-09
-0.00396442
7.41396e-10
0.022437
8.23093e-05
-0.00014088
0.00140796
-0.00261355
0.00293266
-0.00299837
0.0048578
-0.00377907
0.00710967
-0.00441881
0.00962224
-0.0049146
0.0125207
-0.00565953
0.0157682
-0.00635763
0.0193333
-0.00692346
-0.00811989
0.0234887
0.000129865
-0.000270745
0.0015283
-0.00401199
0.00315075
-0.00462082
0.0052095
-0.00583782
0.0076169
-0.0068262
0.0103292
-0.00762686
0.0134626
-0.00879293
0.0169465
-0.00984151
0.0208452
-0.0108222
-0.012564
0.0252893
0.000200533
-0.000471277
0.00170231
-0.00551376
0.00346099
-0.0063795
0.00569953
-0.00807636
0.00830751
-0.00943418
0.0112705
-0.0105898
0.0146727
-0.0121951
0.0184275
-0.0135964
0.0226672
-0.0150619
-0.0172623
0.0273655
0.000292805
-0.000764082
0.00192261
-0.00714356
0.00384462
-0.00830151
0.00628786
-0.0105196
0.00911013
-0.0122565
0.0123284
-0.0138081
0.0159685
-0.0158353
0.0199594
-0.0175872
0.0244412
-0.0195437
-0.0220841
0.029263
0.00040463
-0.00116871
0.00218
-0.00891894
0.00427898
-0.0104005
0.00692879
-0.0131694
0.00994813
-0.0152758
0.0133822
-0.0172421
0.0171838
-0.0196369
0.0213223
-0.0217257
0.0258942
-0.0241156
-0.0268799
0.03069
0.000533547
-0.00170226
0.00246397
-0.0108494
0.00473946
-0.012676
0.00757603
-0.016006
0.0107503
-0.0184501
0.0143293
-0.0208211
0.0181979
-0.0235055
0.0223743
-0.0259022
0.0268926
-0.0286339
-0.0315449
0.0315576
0.000676762
-0.00237902
0.00276317
-0.0129358
0.00520153
-0.0151143
0.00818779
-0.0189922
0.0114596
-0.0217218
0.0151003
-0.0244619
0.0189474
-0.0273525
0.0230649
-0.0300196
0.0274355
-0.0330046
-0.0360367
0.0319273
0.000831208
-0.00321023
0.00306612
-0.0151707
0.00564272
-0.0176909
0.00873071
-0.0220802
0.0120381
-0.0250292
0.0156634
-0.0280872
0.0194225
-0.0311116
0.0234173
-0.0340145
0.0276038
-0.037191
-0.040358
0.0319251
0.000993619
-0.00420385
0.00336179
-0.0175389
0.0060443
-0.0203734
0.00918224
-0.0252182
0.0124686
-0.0283156
0.0160189
-0.0316375
0.0196507
-0.0347434
0.0234952
-0.037859
0.0275009
-0.0411967
-0.0445305
0.0316735
0.00116059
-0.00536444
0.00364026
-0.0200185
0.0063924
-0.0231256
0.00953099
-0.0283568
0.0127513
-0.0315359
0.0161888
-0.0350749
0.0196777
-0.0382323
0.0233695
-0.0415508
0.0272153
-0.0450425
-0.0485766
0.0312614
0.00132868
-0.00669312
0.00389325
-0.0225831
0.00667832
-0.0259106
0.00977531
-0.0314538
0.0128984
-0.034659
0.0162042
-0.0383808
0.0195505
-0.0415786
0.0231002
-0.0451005
0.0268084
-0.0487506
-0.0525142
0.0307459
0.00149441
-0.00818753
0.00411445
-0.0252031
0.00689827
-0.0286945
0.00992072
-0.0344762
0.0129284
-0.0376667
0.0160974
-0.0415497
0.019309
-0.0447903
0.0227302
-0.0485217
0.0263177
-0.0523381
-0.0563524
0.0301559
0.00165444
-0.00984197
0.00429964
-0.0278483
0.00705251
-0.0314473
0.00997704
-0.0374007
0.0128611
-0.0405508
0.015896
-0.0445846
0.0189832
-0.0478775
0.0222877
-0.0518262
0.0257653
-0.0558157
-0.0600957
0.0295086
0.00180554
-0.0116475
0.00444659
-0.0304894
0.00714427
-0.034145
0.00995589
-0.0402124
0.0127151
-0.04331
0.0156219
-0.0474914
0.0185937
-0.0508493
0.02179
-0.0550224
0.0251634
-0.0591891
-0.0637451
0.0288128
0.00194472
-0.0135922
0.00455477
-0.0330994
0.0071786
-0.0367688
0.0098689
-0.0429027
0.0125056
-0.0459466
0.0152912
-0.0502771
0.0181547
-0.0537129
0.0212479
-0.0581157
0.0245189
-0.0624601
-0.067299
0.0280729
0.00206932
-0.0156615
0.00462501
-0.0356551
0.00716139
-0.0393052
0.00972664
-0.0454679
0.0122451
-0.0484651
0.0149155
-0.0529475
0.0176754
-0.0564728
0.0206679
-0.0611081
0.0238355
-0.0656277
-0.0707553
0.0272917
0.00217708
-0.0178386
0.00465908
-0.0381371
0.00709874
-0.0417449
0.00953824
-0.0479074
0.0119431
-0.0508699
0.014503
-0.0555074
0.0171621
-0.059132
0.020054
-0.064
0.0231155
-0.0686892
-0.0741092
0.0264694
0.00226625
-0.0201049
0.00465938
-0.0405303
0.0069964
-0.0440819
0.00931127
-0.0502223
0.0116068
-0.0531654
0.0140594
-0.05796
0.016619
-0.0616916
0.0194087
-0.0667897
0.0223612
-0.0716417
-0.0773549
0.025607
0.00233566
-0.0224405
0.00462864
-0.0428233
0.00685964
-0.0463129
0.0090519
-0.0524145
0.0112417
-0.0553552
0.0135888
-0.0603071
0.0160489
-0.0641517
0.0187337
-0.0694745
0.0215748
-0.0744827
-0.0804871
0.0247069
0.0023848
-0.0248253
0.00456982
-0.0450083
0.0066932
-0.0484363
0.00876528
-0.0544866
0.0108523
-0.0574422
0.0130947
-0.0625495
0.0154544
-0.0665114
0.0180309
-0.0720509
0.0207628
-0.0772146
-0.0834972
0.0237729
0.00241368
-0.027239
0.00448563
-0.0470802
0.00650088
-0.0504515
0.00845509
-0.0564408
0.0104411
-0.0594282
0.0125787
-0.0646872
0.0148363
-0.068769
0.0173006
-0.0745152
0.0199239
-0.079838
-0.0863642
0.0227909
0.00242294
-0.029662
0.00437891
-0.0490362
0.00628622
-0.0523588
0.00812472
-0.0582793
0.010011
-0.0613144
0.012043
-0.0667192
0.0141961
-0.0709221
0.0165456
-0.0768647
0.0190516
-0.082344
-0.0890908
0.0217782
0.00241366
-0.0320756
0.00425225
-0.0508748
0.00605218
-0.0541588
0.00777679
-0.0600039
0.00956377
-0.0631014
0.0114888
-0.0686442
0.0135352
-0.0729685
0.0157665
-0.0790959
0.0181512
-0.0847287
-0.0916784
0.0207388
0.00238724
-0.0344629
0.00410804
-0.0525956
0.00580126
-0.055852
0.00741346
-0.0616161
0.00910116
-0.0647891
0.0109176
-0.0704607
0.0128546
-0.0749055
0.0149648
-0.0812061
0.0172232
-0.0869871
-0.0941249
0.0196697
0.00234525
-0.0368081
0.00394844
-0.0541988
0.0055356
-0.0574391
0.00703651
-0.0631171
0.00862449
-0.0663771
0.0103305
-0.0721667
0.0121556
-0.0767307
0.0141416
-0.0831921
0.0162699
-0.0891154
-0.0964286
0.0185736
0.00228937
-0.0390975
0.0037754
-0.0556848
0.00525704
-0.0589208
0.00664747
-0.0645075
0.00813493
-0.0678646
0.00972843
-0.0737602
0.0114393
-0.0784415
0.0132982
-0.085051
0.0152929
-0.0911101
-0.0985863
0.0174506
0.00222121
-0.0413187
0.00359062
-0.0570542
0.00496719
-0.0602974
0.00624764
-0.0657879
0.00763356
-0.0692505
0.00911254
-0.0752391
0.0107067
-0.0800357
0.0124357
-0.08678
0.0142938
-0.0929682
-0.100595
0.0163026
0.00214229
-0.043461
0.00339565
-0.0583076
0.00466743
-0.0615691
0.00583816
-0.0669587
0.00712136
-0.0705337
0.0084838
-0.0766016
0.00995907
-0.0815109
0.0115554
-0.0883764
0.0132741
-0.0946869
-0.102452
0.0151309
0.002054
-0.045515
0.00319182
-0.0594454
0.00435899
-0.0627363
0.00542006
-0.0680197
0.00659927
-0.0717129
0.0078432
-0.0778455
0.00919754
-0.0828653
0.0106587
-0.0898376
0.0122354
-0.0962635
-0.104154
0.0139371
0.00195755
-0.0474725
0.00298034
-0.0604682
0.00404296
-0.0637989
0.00499428
-0.0689711
0.0060682
-0.0727868
0.00719173
-0.078969
0.00842326
-0.0840968
0.00974683
-0.0911611
0.0111791
-0.0976958
-0.105698
0.012723
0.00185404
-0.0493266
0.00276226
-0.0613764
0.00372034
-0.064757
0.00456168
-0.0698124
0.00552904
-0.0737542
0.00653039
-0.0799704
0.00763741
-0.0852038
0.00882111
-0.0923448
0.0101069
-0.0989816
-0.107081
0.0114902
0.00174439
-0.051071
0.00253853
-0.0621705
0.00339204
-0.0656105
0.00412306
-0.0705434
0.00498267
-0.0746138
0.00586018
-0.0808479
0.00684117
-0.0861848
0.00788294
-0.0933866
0.00902039
-0.100119
-0.108301
0.0102408
0.00162943
-0.0527004
0.00231002
-0.0628511
0.00305888
-0.0663594
0.00367919
-0.0711637
0.00442999
-0.0753646
0.00518209
-0.0816
0.00603577
-0.0870385
0.00693367
-0.0942845
0.00792115
-0.101107
-0.109357
0.00897643
0.00150987
-0.0542103
0.00207748
-0.0634187
0.00272167
-0.0670036
0.00323079
-0.0716728
0.0038719
-0.0760057
0.00449711
-0.0822252
0.00522247
-0.0877639
0.00597469
-0.0950367
0.00681096
-0.101943
-0.110245
0.00769904
0.00138637
-0.0555966
0.00184163
-0.063874
0.00238117
-0.0675431
0.00277853
-0.0720702
0.00330933
-0.0765365
0.0038062
-0.0827221
0.0044026
-0.0883603
0.00500733
-0.0956415
0.00569158
-0.102627
-0.110963
0.00641045
0.0012595
-0.0568561
0.0016031
-0.0642176
0.00203812
-0.0679781
0.00232302
-0.0723551
0.0027433
-0.0769568
0.00311027
-0.083089
0.00357751
-0.0888275
0.00403298
-0.0960969
0.00456475
-0.103159
-0.111511
0.00511263
0.0011298
-0.0579859
0.00136243
-0.0644502
0.00169327
-0.068309
0.00186482
-0.0725266
0.00217483
-0.0772668
0.00241021
-0.0833244
0.00274852
-0.0891658
0.00305314
-0.0964016
0.00343207
-0.103538
-0.111887
0.00380767
0.000997739
-0.0589837
0.00112013
-0.0645726
0.00134743
-0.0685363
0.00140434
-0.0725836
0.00160505
-0.0774675
0.00170681
-0.0834262
0.00191708
-0.0893761
0.00206919
-0.0965537
0.00229533
-0.103764
-0.112089
0.00249733
0.000863788
-0.0598475
0.000876553
-0.0645854
0.00100144
-0.0686611
0.000941752
-0.0725239
0.00103541
-0.0775612
0.00100018
-0.0833909
0.00108546
-0.0894614
0.00108129
-0.0965495
0.0011578
-0.10384
-0.112113
0.00118187
0.000728418
-0.0605759
0.000632018
-0.064489
0.000656615
-0.0686857
0.000476189
-0.0723434
0.00046925
-0.0775542
0.000287377
-0.0832091
0.000260216
-0.0894342
8.30282e-05
-0.0963723
3.16452e-05
-0.103789
-0.111941
-0.000140178
0.000591954
-0.0611678
0.000385982
-0.064283
0.00031508
-0.0686148
-7.88829e-06
-0.0720205
-9.20307e-05
-0.0774701
-0.000408732
-0.0828924
-0.000583479
-0.0892595
-0.000884589
-0.0960712
-0.00112639
-0.103547
-0.111628
-0.00143949
0.000454856
-0.0616227
0.000135532
-0.0639637
-1.12692e-05
-0.068468
-0.000435317
-0.0715964
-0.000685551
-0.0772198
-0.00109451
-0.0824834
-0.0014284
-0.0889256
-0.00185649
-0.0956431
-0.00227162
-0.103132
-0.111157
-0.00274248
0.000317629
-0.0619403
-0.000106039
-0.06354
-0.000383876
-0.0681902
-0.00087839
-0.0711019
-0.00126567
-0.0768326
-0.0017824
-0.0819667
-0.00226555
-0.0884424
-0.00282779
-0.0950809
-0.00340926
-0.102551
-0.110524
-0.00404258
0.000181007
-0.0621213
-0.000333455
-0.0630256
-0.000736656
-0.067787
-0.00132244
-0.0705161
-0.00183913
-0.0763159
-0.00246885
-0.081337
-0.00309573
-0.0878155
-0.00379561
-0.094381
-0.00453874
-0.101807
-0.109726
-0.00533679
4.74369e-05
-0.0621688
-0.000564533
-0.0624136
-0.0010835
-0.067268
-0.00176509
-0.0698345
-0.00240655
-0.0756744
-0.00315193
-0.0805916
-0.00391841
-0.087049
-0.00475784
-0.0935416
-0.00565892
-0.100906
-0.108762
-0.00662257
-9.18175e-05
-0.0620769
-0.000795313
-0.0617101
-0.00142561
-0.0666377
-0.00220493
-0.0690552
-0.0029677
-0.0749116
-0.00383011
-0.0797292
-0.0047328
-0.0861464
-0.00571256
-0.0925618
-0.00676854
-0.0998504
-0.107633
-0.00789757
-0.000230384
-0.0618466
-0.00102441
-0.0609161
-0.0017631
-0.065899
-0.00264091
-0.0681774
-0.00352213
-0.0740304
-0.00450204
-0.0787493
-0.00553798
-0.0851104
-0.00665799
-0.0914418
-0.00786622
-0.0986422
-0.10634
-0.00915959
-0.000366122
-0.0614804
-0.00125104
-0.0600311
-0.00209582
-0.0650543
-0.00307213
-0.0672011
-0.00406926
-0.0730333
-0.00516644
-0.0776521
-0.00633298
-0.0839439
-0.00759243
-0.0901823
-0.00895048
-0.0972842
-0.104884
-0.0104066
-0.000499911
-0.0609805
-0.00147463
-0.0590564
-0.00242346
-0.0641054
-0.00349775
-0.0661268
-0.00460843
-0.0719226
-0.00582212
-0.0764384
-0.00711675
-0.0826493
-0.00851426
-0.0887848
-0.0100198
-0.0957786
-0.103267
-0.0116366
-0.000631748
-0.0603488
-0.00169472
-0.0579934
-0.00274567
-0.0630545
-0.00391701
-0.0649555
-0.00513897
-0.0707007
-0.00646794
-0.0751094
-0.00788825
-0.0812289
-0.00942193
-0.0872511
-0.0110726
-0.0941279
-0.101492
-0.0128477
-0.000761475
-0.0595873
-0.0019109
-0.056844
-0.00306205
-0.0619033
-0.00432918
-0.0636883
-0.00566017
-0.0693697
-0.00710281
-0.0736668
-0.0086464
-0.0796853
-0.010314
-0.0855836
-0.0121075
-0.0923344
-0.0995614
-0.0140379
-0.00088889
-0.0586984
-0.0021228
-0.0556101
-0.00337219
-0.0606539
-0.00473358
-0.062327
-0.00617133
-0.0679319
-0.00772567
-0.0721124
-0.00939013
-0.0780209
-0.0111889
-0.0837848
-0.0131227
-0.0904006
-0.0974787
-0.0152054
-0.00101378
-0.0576846
-0.00233006
-0.0542938
-0.00367567
-0.0593083
-0.00512952
-0.0608731
-0.00667172
-0.0663897
-0.00833552
-0.0704486
-0.0101183
-0.0762381
-0.0120454
-0.0818577
-0.0141167
-0.0883294
-0.095247
-0.0163484
-0.00113594
-0.0565487
-0.00253238
-0.0528974
-0.00397208
-0.0578686
-0.00551639
-0.0593288
-0.00716064
-0.0647455
-0.0089314
-0.0686779
-0.0108299
-0.0743395
-0.0128822
-0.0798054
-0.0150879
-0.0861237
-0.0928688
-0.0174661
-0.00125516
-0.0552935
-0.00272943
-0.0514231
-0.00426099
-0.0563371
-0.00589355
-0.0576962
-0.00763735
-0.0630017
-0.00951237
-0.0668029
-0.0115239
-0.072328
-0.0136979
-0.0776314
-0.0160352
-0.0837864
-0.0903468
-0.0185572
-0.00137123
-0.0539223
-0.00292092
-0.0498734
-0.00454199
-0.054716
-0.00626042
-0.0559778
-0.00810116
-0.0611609
-0.0100775
-0.0648265
-0.0121991
-0.0702064
-0.0144915
-0.075339
-0.0169568
-0.0813211
-0.0876862
-0.0196173
-0.00148396
-0.0524384
-0.00310657
-0.0482508
-0.00481467
-0.0530079
-0.00661644
-0.054176
-0.00855137
-0.059226
-0.010626
-0.0627519
-0.0128547
-0.0679778
-0.0152617
-0.0729319
-0.0178506
-0.0787322
-0.0848947
-0.0206422
-0.00159315
-0.0508452
-0.00328611
-0.0465579
-0.00507863
-0.0512154
-0.00696104
-0.0522936
-0.0089873
-0.0571997
-0.011157
-0.0605822
-0.0134895
-0.0656452
-0.0160074
-0.0704141
-0.0187146
-0.0760249
-0.0819717
-0.0216377
-0.00169864
-0.0491466
-0.00345928
-0.0447972
-0.00533348
-0.0493412
-0.00729372
-0.0503334
-0.00940828
-0.0550852
-0.0116696
-0.0583209
-0.0141026
-0.0632122
-0.0167273
-0.0677894
-0.0195508
-0.0732013
-0.0789285
-0.022594
-0.00180021
-0.0473464
-0.00362577
-0.0429717
-0.00557872
-0.0473882
-0.00761379
-0.0482983
-0.00981347
-0.0528855
-0.0121629
-0.0559714
-0.0146928
-0.0606823
-0.0174197
-0.0650626
-0.0203467
-0.0702744
-0.0757334
-0.0235417
-0.00189776
-0.0454486
-0.00378548
-0.041084
-0.00581422
-0.0453595
-0.00792111
-0.0461914
-0.0102027
-0.0506039
-0.0126366
-0.0535375
-0.0152598
-0.0580591
-0.0180848
-0.0622375
-0.0211212
-0.0672379
-0.0724372
-0.0244175
-0.00199111
-0.0434575
-0.00393813
-0.0391369
-0.00603951
-0.0432581
-0.00821504
-0.0440159
-0.010575
-0.0482439
-0.0130898
-0.0510228
-0.0158023
-0.0553466
-0.0187215
-0.0593183
-0.0218631
-0.0640964
-0.0690346
-0.0252656
-0.00208011
-0.0413774
-0.00408349
-0.0371335
-0.00625425
-0.0410873
-0.00849514
-0.041775
-0.01093
-0.045809
-0.0135217
-0.0484311
-0.0163194
-0.0525489
-0.0193285
-0.0563092
-0.0225696
-0.0608552
-0.0655292
-0.026075
-0.0021646
-0.0392128
-0.00422137
-0.0350768
-0.00645811
-0.0388506
-0.00876099
-0.0394722
-0.0112671
-0.043303
-0.0139317
-0.0457666
-0.0168104
-0.0496701
-0.0199048
-0.0532148
-0.0232403
-0.0575197
-0.0619258
-0.0268438
-0.00224447
-0.0369683
-0.00435158
-0.0329697
-0.00665078
-0.0365514
-0.0090122
-0.0371107
-0.0115857
-0.0407295
-0.0143191
-0.0430332
-0.0172745
-0.0467147
-0.0204496
-0.0500397
-0.023874
-0.0540953
-0.0582292
-0.0275706
-0.00231958
-0.0346487
-0.00447392
-0.0308153
-0.00683197
-0.0341933
-0.00924838
-0.0346943
-0.0118853
-0.0380925
-0.0146835
-0.040235
-0.017711
-0.0436872
-0.0209619
-0.0467888
-0.0244699
-0.0505873
-0.0544451
-0.0282541
-0.00238982
-0.0322589
-0.00458824
-0.0286169
-0.0070014
-0.0317802
-0.0094692
-0.0322265
-0.0121656
-0.0353962
-0.0150241
-0.0373765
-0.0181192
-0.0405921
-0.021441
-0.043467
-0.025027
-0.0470013
-0.0505788
-0.0288932
-0.00245507
-0.0298038
-0.00469439
-0.0263776
-0.00715882
-0.0293157
-0.00967431
-0.029711
-0.0124259
-0.0326445
-0.0153406
-0.0344618
-0.0184985
-0.0374342
-0.0218861
-0.0400794
-0.0255444
-0.0433429
-0.0466363
-0.0294869
-0.00251525
-0.0272886
-0.0047922
-0.0241006
-0.00730397
-0.026804
-0.00986342
-0.0271516
-0.0126661
-0.0298419
-0.0156324
-0.0314954
-0.0188482
-0.0342184
-0.0222965
-0.0366312
-0.0260216
-0.0396178
-0.0426236
-0.0300344
-0.00257025
-0.0247183
-0.00488155
-0.0217893
-0.00743665
-0.0242489
-0.0100362
-0.024552
-0.0128855
-0.0269926
-0.0158991
-0.0284818
-0.0191679
-0.0309496
-0.0226716
-0.0331276
-0.0264576
-0.0358318
-0.0385465
-0.0305347
-0.00261999
-0.0220984
-0.00496232
-0.019447
-0.00755665
-0.0216545
-0.0101925
-0.0219161
-0.0130841
-0.024101
-0.0161403
-0.0254256
-0.0194571
-0.0276328
-0.0230108
-0.0295739
-0.026852
-0.0319906
-0.0344113
-0.0309871
-0.00266439
-0.019434
-0.0050344
-0.017077
-0.00766379
-0.0190252
-0.010332
-0.0192479
-0.0132613
-0.0211717
-0.0163557
-0.0223312
-0.0197152
-0.0242732
-0.0233136
-0.0259755
-0.027204
-0.0281002
-0.0302243
-0.031391
-0.0027034
-0.0167306
-0.00509768
-0.0146827
-0.00775789
-0.0163649
-0.0104545
-0.0165512
-0.013417
-0.0182093
-0.0165448
-0.0192035
-0.019942
-0.020876
-0.0235796
-0.022338
-0.0275132
-0.0241666
-0.0259918
-0.0317457
-0.00273694
-0.0139936
-0.00515208
-0.0122676
-0.00783882
-0.0136782
-0.0105599
-0.0138302
-0.0135509
-0.0152182
-0.0167074
-0.016047
-0.020137
-0.0174464
-0.0238083
-0.0186667
-0.0277791
-0.0201959
-0.02172
-0.0320508
-0.00276497
-0.0112286
-0.00519753
-0.00983501
-0.00790645
-0.0109693
-0.0106479
-0.0110887
-0.0136628
-0.0122033
-0.0168433
-0.0128665
-0.0203
-0.0139897
-0.0239995
-0.0149672
-0.0280012
-0.0161941
-0.0174155
-0.0323058
-0.00278745
-0.00844119
-0.00523397
-0.00738849
-0.00796068
-0.00824259
-0.0107185
-0.00833085
-0.0137526
-0.00916931
-0.0169523
-0.00966672
-0.0204307
-0.0105113
-0.0241527
-0.0112452
-0.0281794
-0.0121674
-0.0130846
-0.0325102
-0.00280434
-0.00563686
-0.00526134
-0.00493149
-0.00800142
-0.0055025
-0.0107715
-0.00556073
-0.01382
-0.00612088
-0.0170342
-0.00645252
-0.0205289
-0.00701663
-0.0242678
-0.00750625
-0.0283132
-0.00812201
-0.00873408
-0.0326638
-0.00281561
-0.00282125
-0.0052796
-0.00246749
-0.00802862
-0.00275348
-0.0108069
-0.00278242
-0.013865
-0.00306284
-0.0170888
-0.00322867
-0.0205944
-0.00351104
-0.0243447
-0.00375595
-0.0284026
-0.00406413
-0.00437034
-0.0327663
-0.00282125
-1.17645e-10
-0.00528874
-2.36773e-10
-0.00804223
-3.10322e-10
-0.0108246
-7.34272e-12
-0.0138875
-2.16086e-10
-0.0171162
1.7122e-11
-0.0206272
-1.57749e-10
-0.0243832
5.43783e-11
-0.0284473
-1.29967e-10
4.78678e-11
-0.0328176
-0.00282125
0.00282125
-0.00528874
0.00246749
-0.00804223
0.00275348
-0.0108246
0.00278242
-0.0138875
0.00306284
-0.0171162
0.00322867
-0.0206272
0.00351104
-0.0243832
0.00375595
-0.0284473
0.00406413
0.00437034
-0.0328176
-0.00281561
0.00563686
-0.0052796
0.00493149
-0.00802862
0.0055025
-0.0108069
0.00556073
-0.013865
0.00612088
-0.0170888
0.00645252
-0.0205944
0.00701663
-0.0243447
0.00750625
-0.0284026
0.00812201
0.00873408
-0.0327663
-0.00280434
0.00844119
-0.00526134
0.00738849
-0.00800142
0.00824258
-0.0107715
0.00833085
-0.01382
0.00916931
-0.0170342
0.00966672
-0.0205289
0.0105113
-0.0242678
0.0112452
-0.0283132
0.0121674
0.0130846
-0.0326638
-0.00278745
0.0112286
-0.00523397
0.00983501
-0.00796068
0.0109693
-0.0107185
0.0110887
-0.0137526
0.0122033
-0.0169523
0.0128665
-0.0204307
0.0139897
-0.0241527
0.0149672
-0.0281794
0.0161941
0.0174155
-0.0325102
-0.00276497
0.0139936
-0.00519753
0.0122676
-0.00790645
0.0136782
-0.0106479
0.0138302
-0.0136628
0.0152182
-0.0168433
0.016047
-0.0203
0.0174464
-0.0239995
0.0186667
-0.0280012
0.0201959
0.02172
-0.0323058
-0.00273694
0.0167306
-0.00515208
0.0146827
-0.00783882
0.0163649
-0.0105599
0.0165512
-0.0135509
0.0182093
-0.0167074
0.0192035
-0.020137
0.020876
-0.0238083
0.022338
-0.0277791
0.0241666
0.0259918
-0.0320508
-0.0027034
0.019434
-0.00509768
0.017077
-0.00775789
0.0190252
-0.0104545
0.0192479
-0.013417
0.0211717
-0.0165448
0.0223312
-0.019942
0.0242732
-0.0235796
0.0259755
-0.0275132
0.0281002
0.0302243
-0.0317457
-0.00266439
0.0220984
-0.0050344
0.019447
-0.00766379
0.0216545
-0.010332
0.0219161
-0.0132613
0.024101
-0.0163557
0.0254256
-0.0197152
0.0276328
-0.0233136
0.0295739
-0.027204
0.0319906
0.0344113
-0.031391
-0.00261999
0.0247183
-0.00496232
0.0217893
-0.00755665
0.0242489
-0.0101925
0.024552
-0.0130841
0.0269926
-0.0161403
0.0284818
-0.0194571
0.0309496
-0.0230108
0.0331276
-0.026852
0.0358318
0.0385465
-0.0309871
-0.00257025
0.0272886
-0.00488155
0.0241006
-0.00743665
0.026804
-0.0100362
0.0271516
-0.0128855
0.0298419
-0.0158991
0.0314954
-0.0191679
0.0342184
-0.0226716
0.0366312
-0.0264576
0.0396178
0.0426236
-0.0305347
-0.00251525
0.0298038
-0.0047922
0.0263776
-0.00730397
0.0293157
-0.00986342
0.029711
-0.0126661
0.0326445
-0.0156324
0.0344618
-0.0188482
0.0374342
-0.0222965
0.0400794
-0.0260216
0.0433429
0.0466363
-0.0300344
-0.00245507
0.0322589
-0.00469439
0.0286169
-0.00715881
0.0317802
-0.00967431
0.0322265
-0.0124259
0.0353962
-0.0153406
0.0373765
-0.0184985
0.0405921
-0.0218861
0.043467
-0.0255444
0.0470013
0.0505788
-0.0294869
-0.00238982
0.0346487
-0.00458824
0.0308153
-0.0070014
0.0341933
-0.0094692
0.0346943
-0.0121656
0.0380925
-0.0150241
0.040235
-0.0181192
0.0436872
-0.021441
0.0467888
-0.025027
0.0505873
0.0544451
-0.0288932
-0.00231958
0.0369683
-0.00447392
0.0329697
-0.00683197
0.0365514
-0.00924838
0.0371107
-0.0118853
0.0407295
-0.0146835
0.0430332
-0.017711
0.0467147
-0.0209619
0.0500397
-0.0244699
0.0540953
0.0582292
-0.0282541
-0.00224447
0.0392128
-0.00435158
0.0350768
-0.00665078
0.0388506
-0.0090122
0.0394722
-0.0115857
0.043303
-0.0143191
0.0457666
-0.0172745
0.0496701
-0.0204496
0.0532148
-0.023874
0.0575197
0.0619258
-0.0275706
-0.0021646
0.0413774
-0.00422137
0.0371335
-0.00645811
0.0410873
-0.00876099
0.041775
-0.0112671
0.045809
-0.0139317
0.0484311
-0.0168104
0.0525489
-0.0199048
0.0563092
-0.0232403
0.0608552
0.0655292
-0.0268438
-0.0020801
0.0434575
-0.00408349
0.0391369
-0.00625425
0.0432581
-0.00849514
0.0440159
-0.01093
0.0482439
-0.0135217
0.0510228
-0.0163194
0.0553466
-0.0193285
0.0593183
-0.0225696
0.0640964
0.0690346
-0.026075
-0.00199111
0.0454486
-0.00393813
0.041084
-0.00603951
0.0453595
-0.00821504
0.0461914
-0.010575
0.0506039
-0.0130898
0.0535375
-0.0158023
0.0580591
-0.0187215
0.0622375
-0.0218631
0.0672379
0.0724372
-0.0252656
-0.00189776
0.0473464
-0.00378548
0.0429717
-0.00581422
0.0473882
-0.00792111
0.0482983
-0.0102027
0.0528855
-0.0126366
0.0559714
-0.0152598
0.0606823
-0.0180848
0.0650626
-0.0211212
0.0702744
0.0757334
-0.0244175
-0.00180021
0.0491466
-0.00362576
0.0447972
-0.00557872
0.0493412
-0.00761379
0.0503334
-0.00981347
0.0550852
-0.0121629
0.0583209
-0.0146928
0.0632122
-0.0174197
0.0677894
-0.0203467
0.0732013
0.0789285
-0.0235417
-0.00169864
0.0508452
-0.00345928
0.0465579
-0.00533348
0.0512154
-0.00729372
0.0522936
-0.00940828
0.0571997
-0.0116696
0.0605822
-0.0141026
0.0656452
-0.0167273
0.0704141
-0.0195508
0.0760249
0.0819717
-0.022594
-0.00159315
0.0524384
-0.00328611
0.0482508
-0.00507863
0.0530079
-0.00696104
0.054176
-0.0089873
0.059226
-0.011157
0.0627519
-0.0134895
0.0679778
-0.0160074
0.0729319
-0.0187146
0.0787322
0.0848947
-0.0216377
-0.00148396
0.0539223
-0.00310657
0.0498734
-0.00481467
0.054716
-0.00661644
0.0559778
-0.00855137
0.0611609
-0.010626
0.0648265
-0.0128547
0.0702064
-0.0152617
0.075339
-0.0178506
0.0813211
0.0876862
-0.0206422
-0.00137123
0.0552935
-0.00292092
0.0514231
-0.00454199
0.0563371
-0.00626042
0.0576962
-0.00810116
0.0630017
-0.0100775
0.0668029
-0.0121991
0.072328
-0.0144915
0.0776314
-0.0169568
0.0837864
0.0903468
-0.0196173
-0.00125516
0.0565487
-0.00272943
0.0528974
-0.00426099
0.0578686
-0.00589355
0.0593288
-0.00763735
0.0647455
-0.00951237
0.0686779
-0.0115239
0.0743395
-0.0136979
0.0798054
-0.0160352
0.0861237
0.0928688
-0.0185572
-0.00113594
0.0576846
-0.00253238
0.0542938
-0.00397208
0.0593083
-0.00551639
0.0608731
-0.00716064
0.0663897
-0.0089314
0.0704486
-0.0108299
0.0762381
-0.0128822
0.0818577
-0.0150879
0.0883294
0.095247
-0.0174661
-0.00101378
0.0586984
-0.00233006
0.0556101
-0.00367567
0.0606539
-0.00512952
0.062327
-0.00667172
0.0679319
-0.00833552
0.0721124
-0.0101183
0.0780209
-0.0120454
0.0837848
-0.0141167
0.0904006
0.0974787
-0.0163484
-0.00088889
0.0595873
-0.0021228
0.056844
-0.00337219
0.0619033
-0.00473358
0.0636883
-0.00617133
0.0693697
-0.00772567
0.0736668
-0.00939013
0.0796853
-0.0111889
0.0855836
-0.0131227
0.0923344
0.0995614
-0.0152054
-0.000761475
0.0603488
-0.0019109
0.0579934
-0.00306205
0.0630545
-0.00432918
0.0649555
-0.00566017
0.0707007
-0.00710281
0.0751094
-0.0086464
0.0812289
-0.010314
0.0872511
-0.0121075
0.0941279
0.101492
-0.0140379
-0.000631748
0.0609805
-0.00169472
0.0590564
-0.00274567
0.0641054
-0.00391701
0.0661268
-0.00513897
0.0719226
-0.00646794
0.0764384
-0.00788825
0.0826493
-0.00942193
0.0887848
-0.0110726
0.0957786
0.103267
-0.0128477
-0.000499911
0.0614804
-0.00147463
0.0600311
-0.00242346
0.0650543
-0.00349775
0.0672011
-0.00460843
0.0730333
-0.00582212
0.0776521
-0.00711675
0.0839439
-0.00851426
0.0901823
-0.0100198
0.0972842
0.104884
-0.0116366
-0.000366122
0.0618466
-0.00125104
0.0609161
-0.00209582
0.065899
-0.00307213
0.0681774
-0.00406926
0.0740304
-0.00516644
0.0787493
-0.00633298
0.0851104
-0.00759243
0.0914418
-0.00895048
0.0986422
0.10634
-0.0104066
-0.000230384
0.0620769
-0.00102441
0.0617101
-0.0017631
0.0666377
-0.00264091
0.0690552
-0.00352213
0.0749116
-0.00450204
0.0797292
-0.00553798
0.0861464
-0.00665799
0.0925618
-0.00786622
0.0998504
0.107633
-0.00915959
-9.18174e-05
0.0621688
-0.000795313
0.0624136
-0.00142561
0.067268
-0.00220493
0.0698345
-0.0029677
0.0756744
-0.00383011
0.0805916
-0.0047328
0.087049
-0.00571256
0.0935416
-0.00676854
0.100906
0.108762
-0.00789757
4.74369e-05
0.0621213
-0.000564533
0.0630256
-0.0010835
0.067787
-0.00176509
0.0705161
-0.00240655
0.0763159
-0.00315193
0.081337
-0.00391841
0.0878155
-0.00475784
0.094381
-0.00565892
0.101807
0.109726
-0.00662257
0.000181007
0.0619403
-0.000333455
0.06354
-0.000736656
0.0681902
-0.00132244
0.0711019
-0.00183913
0.0768326
-0.00246885
0.0819667
-0.00309573
0.0884424
-0.00379561
0.0950809
-0.00453874
0.102551
0.110524
-0.00533679
0.000317629
0.0616227
-0.000106039
0.0639637
-0.000383876
0.068468
-0.00087839
0.0715964
-0.00126567
0.0772198
-0.0017824
0.0824834
-0.00226555
0.0889256
-0.00282779
0.0956431
-0.00340926
0.103132
0.111157
-0.00404258
0.000454856
0.0611678
0.000135532
0.064283
-1.12693e-05
0.0686148
-0.000435317
0.0720205
-0.000685551
0.0774701
-0.00109451
0.0828924
-0.0014284
0.0892595
-0.00185649
0.0960712
-0.00227162
0.103547
0.111628
-0.00274248
0.000591954
0.0605759
0.000385982
0.064489
0.00031508
0.0686857
-7.88829e-06
0.0723434
-9.20307e-05
0.0775542
-0.000408732
0.0832091
-0.000583479
0.0894342
-0.000884589
0.0963723
-0.00112639
0.103789
0.111941
-0.00143949
0.000728418
0.0598475
0.000632018
0.0645854
0.000656615
0.0686611
0.000476188
0.0725239
0.00046925
0.0775612
0.000287377
0.0833909
0.000260216
0.0894614
8.30282e-05
0.0965495
3.16452e-05
0.10384
0.112113
-0.000140178
0.000863788
0.0589837
0.000876553
0.0645726
0.00100144
0.0685363
0.000941752
0.0725836
0.00103541
0.0774675
0.00100018
0.0834262
0.00108546
0.0893761
0.00108129
0.0965537
0.0011578
0.103764
0.112089
0.00118187
0.000997739
0.0579859
0.00112013
0.0644502
0.00134743
0.068309
0.00140434
0.0725266
0.00160505
0.0772668
0.00170681
0.0833244
0.00191708
0.0891658
0.00206919
0.0964016
0.00229533
0.103538
0.111887
0.00249733
0.0011298
0.0568561
0.00136243
0.0642176
0.00169327
0.0679781
0.00186482
0.0723551
0.00217483
0.0769568
0.00241021
0.083089
0.00274852
0.0888275
0.00305314
0.0960969
0.00343207
0.103159
0.111511
0.00380767
0.0012595
0.0555966
0.0016031
0.063874
0.00203812
0.0675431
0.00232302
0.0720702
0.0027433
0.0765365
0.00311027
0.0827221
0.00357751
0.0883603
0.00403298
0.0956415
0.00456475
0.102627
0.110963
0.00511263
0.00138637
0.0542103
0.00184163
0.0634187
0.00238117
0.0670036
0.00277853
0.0716728
0.00330933
0.0760057
0.0038062
0.0822252
0.0044026
0.0877639
0.00500733
0.0950367
0.00569158
0.101943
0.110245
0.00641045
0.00150987
0.0527004
0.00207748
0.0628511
0.00272167
0.0663594
0.00323079
0.0711637
0.0038719
0.0753646
0.00449711
0.0816
0.00522247
0.0870385
0.00597469
0.0942845
0.00681096
0.101107
0.109357
0.00769904
0.00162943
0.051071
0.00231002
0.0621705
0.00305888
0.0656105
0.00367919
0.0705434
0.00442999
0.0746138
0.00518209
0.0808479
0.00603577
0.0861848
0.00693367
0.0933866
0.00792115
0.100119
0.108301
0.00897643
0.00174439
0.0493266
0.00253853
0.0613764
0.00339204
0.064757
0.00412306
0.0698124
0.00498267
0.0737542
0.00586018
0.0799704
0.00684117
0.0852038
0.00788294
0.0923448
0.00902039
0.0989816
0.107081
0.0102408
0.00185404
0.0474725
0.00276226
0.0604682
0.00372034
0.0637989
0.00456168
0.0689711
0.00552904
0.0727868
0.00653039
0.078969
0.00763741
0.0840968
0.00882111
0.0911611
0.0101069
0.0976958
0.105698
0.0114902
0.00195755
0.045515
0.00298034
0.0594454
0.00404296
0.0627363
0.00499428
0.0680197
0.0060682
0.0717129
0.00719173
0.0778455
0.00842326
0.0828653
0.00974683
0.0898376
0.0111791
0.0962635
0.104154
0.012723
0.002054
0.043461
0.00319182
0.0583076
0.00435899
0.0615691
0.00542006
0.0669587
0.00659927
0.0705337
0.0078432
0.0766016
0.00919754
0.0815109
0.0106587
0.0883764
0.0122354
0.0946869
0.102452
0.0139371
0.00214229
0.0413187
0.00339565
0.0570542
0.00466743
0.0602974
0.00583816
0.0657879
0.00712136
0.0692505
0.0084838
0.0752391
0.00995907
0.0800357
0.0115554
0.08678
0.0132741
0.0929682
0.100595
0.0151309
0.00222121
0.0390975
0.00359062
0.0556848
0.00496719
0.0589208
0.00624764
0.0645075
0.00763356
0.0678646
0.00911254
0.0737602
0.0107067
0.0784415
0.0124357
0.085051
0.0142938
0.0911101
0.0985863
0.0163026
0.00228937
0.0368081
0.0037754
0.0541988
0.00525704
0.0574391
0.00664747
0.0631171
0.00813493
0.0663771
0.00972843
0.0721667
0.0114393
0.0767307
0.0132982
0.0831921
0.0152929
0.0891154
0.0964286
0.0174506
0.00234525
0.0344629
0.00394844
0.0525956
0.0055356
0.055852
0.00703651
0.0616161
0.00862449
0.0647891
0.0103305
0.0704607
0.0121556
0.0749055
0.0141416