/*--------------------------------*- C++ -*----------------------------------*\
  =========                 |
  \\      /  F ield         | OpenFOAM: The Open Source CFD Toolbox
   \\    /   O peration     | Website:  https://openfoam.org
    \\  /    A nd           | Version:  7
     \\/     M anipulation  |
\*---------------------------------------------------------------------------*/
FoamFile
{
    version     2.0;
    format      ascii;
    class       volVectorField;
    location    "1.3";
    object      U;
}
// * * * * * * * * * * * * * * * * * * * * * * * * * * * * * * * * * * * * * //

dimensions      [0 1 -1 0 0 0 0];

internalField   nonuniform List<vector> 
160000
(
(-1.60529e-07 1.16954e-07 0)
(-2.3046e-07 1.0677e-08 0)
(2.17816e-07 -1.62499e-07 0)
(1.1471e-06 -3.24783e-07 0)
(2.4681e-06 -4.50193e-07 0)
(4.09784e-06 -5.38856e-07 0)
(5.94775e-06 -5.96705e-07 0)
(7.93911e-06 -6.30177e-07 0)
(1.00058e-05 -6.44231e-07 0)
(1.2093e-05 -6.42686e-07 0)
(1.41545e-05 -6.28713e-07 0)
(1.61518e-05 -6.04775e-07 0)
(1.80529e-05 -5.72748e-07 0)
(1.98315e-05 -5.34135e-07 0)
(2.14658e-05 -4.90216e-07 0)
(2.29379e-05 -4.42086e-07 0)
(2.4233e-05 -3.9067e-07 0)
(2.53394e-05 -3.36714e-07 0)
(2.62479e-05 -2.80825e-07 0)
(2.69513e-05 -2.23528e-07 0)
(2.74444e-05 -1.65284e-07 0)
(2.77233e-05 -1.06483e-07 0)
(2.77859e-05 -4.74521e-08 0)
(2.76309e-05 1.15407e-08 0)
(2.72581e-05 7.01997e-08 0)
(2.66681e-05 1.28317e-07 0)
(2.58626e-05 1.85777e-07 0)
(2.48435e-05 2.42446e-07 0)
(2.36137e-05 2.98185e-07 0)
(2.21759e-05 3.52892e-07 0)
(2.05338e-05 4.06498e-07 0)
(1.86909e-05 4.58936e-07 0)
(1.66513e-05 5.10154e-07 0)
(1.44191e-05 5.60125e-07 0)
(1.19985e-05 6.08839e-07 0)
(9.39391e-06 6.56292e-07 0)
(6.60974e-06 7.02492e-07 0)
(3.65035e-06 7.47441e-07 0)
(5.20143e-07 7.91143e-07 0)
(-2.77651e-06 8.33628e-07 0)
(-6.23533e-06 8.74922e-07 0)
(-9.85219e-06 9.15058e-07 0)
(-1.36231e-05 9.54088e-07 0)
(-1.7544e-05 9.92058e-07 0)
(-2.16112e-05 1.02901e-06 0)
(-2.5821e-05 1.065e-06 0)
(-3.017e-05 1.10005e-06 0)
(-3.46547e-05 1.1342e-06 0)
(-3.92721e-05 1.1675e-06 0)
(-4.40193e-05 1.20002e-06 0)
(-4.88933e-05 1.23182e-06 0)
(-5.38917e-05 1.26296e-06 0)
(-5.90121e-05 1.29349e-06 0)
(-6.42521e-05 1.32344e-06 0)
(-6.96098e-05 1.35286e-06 0)
(-7.50833e-05 1.38181e-06 0)
(-8.06708e-05 1.41036e-06 0)
(-8.63709e-05 1.43856e-06 0)
(-9.21823e-05 1.46642e-06 0)
(-9.81037e-05 1.49399e-06 0)
(-0.000104134 1.52131e-06 0)
(-0.000110273 1.54842e-06 0)
(-0.000116519 1.57539e-06 0)
(-0.000122872 1.60225e-06 0)
(-0.000129332 1.62904e-06 0)
(-0.000135897 1.6558e-06 0)
(-0.000142569 1.68255e-06 0)
(-0.000149347 1.7093e-06 0)
(-0.00015623 1.73608e-06 0)
(-0.00016322 1.76293e-06 0)
(-0.000170316 1.78987e-06 0)
(-0.000177518 1.81692e-06 0)
(-0.000184827 1.84409e-06 0)
(-0.000192244 1.87142e-06 0)
(-0.000199768 1.89892e-06 0)
(-0.000207401 1.92661e-06 0)
(-0.000215143 1.9545e-06 0)
(-0.000222995 1.98257e-06 0)
(-0.000230956 2.01084e-06 0)
(-0.000239029 2.0393e-06 0)
(-0.000247213 2.06796e-06 0)
(-0.00025551 2.09683e-06 0)
(-0.000263919 2.12592e-06 0)
(-0.000272442 2.15523e-06 0)
(-0.00028108 2.18475e-06 0)
(-0.000289832 2.21447e-06 0)
(-0.0002987 2.24436e-06 0)
(-0.000307684 2.27443e-06 0)
(-0.000316784 2.30467e-06 0)
(-0.000326002 2.33506e-06 0)
(-0.000335337 2.36559e-06 0)
(-0.00034479 2.39625e-06 0)
(-0.000354362 2.42701e-06 0)
(-0.000364052 2.45785e-06 0)
(-0.00037386 2.48877e-06 0)
(-0.000383788 2.51975e-06 0)
(-0.000393834 2.55077e-06 0)
(-0.000403999 2.58181e-06 0)
(-0.000414282 2.61281e-06 0)
(-0.000424684 2.64377e-06 0)
(-0.000435204 2.67465e-06 0)
(-0.000445841 2.70543e-06 0)
(-0.000456596 2.7361e-06 0)
(-0.000467466 2.76663e-06 0)
(-0.000478453 2.79698e-06 0)
(-0.000489553 2.82713e-06 0)
(-0.000500768 2.85703e-06 0)
(-0.000512095 2.88665e-06 0)
(-0.000523533 2.91596e-06 0)
(-0.000535082 2.94495e-06 0)
(-0.000546739 2.97356e-06 0)
(-0.000558502 3.00178e-06 0)
(-0.000570371 3.02955e-06 0)
(-0.000582342 3.05685e-06 0)
(-0.000594415 3.08364e-06 0)
(-0.000606587 3.10988e-06 0)
(-0.000618855 3.13553e-06 0)
(-0.000631217 3.16057e-06 0)
(-0.000643671 3.18495e-06 0)
(-0.000656214 3.20863e-06 0)
(-0.000668842 3.23157e-06 0)
(-0.000681554 3.25375e-06 0)
(-0.000694345 3.27511e-06 0)
(-0.000707212 3.29562e-06 0)
(-0.000720152 3.31524e-06 0)
(-0.000733162 3.33392e-06 0)
(-0.000746236 3.35162e-06 0)
(-0.000759373 3.36832e-06 0)
(-0.000772566 3.38396e-06 0)
(-0.000785812 3.3985e-06 0)
(-0.000799107 3.41191e-06 0)
(-0.000812447 3.42414e-06 0)
(-0.000825825 3.43515e-06 0)
(-0.000839238 3.4449e-06 0)
(-0.00085268 3.45336e-06 0)
(-0.000866146 3.46046e-06 0)
(-0.000879631 3.46619e-06 0)
(-0.000893129 3.47049e-06 0)
(-0.000906635 3.47332e-06 0)
(-0.000920142 3.47464e-06 0)
(-0.000933646 3.47442e-06 0)
(-0.000947139 3.47261e-06 0)
(-0.000960615 3.46917e-06 0)
(-0.000974069 3.46408e-06 0)
(-0.000987492 3.45727e-06 0)
(-0.00100088 3.44873e-06 0)
(-0.00101422 3.43839e-06 0)
(-0.00102752 3.42623e-06 0)
(-0.00104076 3.41222e-06 0)
(-0.00105393 3.39632e-06 0)
(-0.00106703 3.37849e-06 0)
(-0.00108005 3.3587e-06 0)
(-0.00109298 3.33692e-06 0)
(-0.00110582 3.3131e-06 0)
(-0.00111856 3.28723e-06 0)
(-0.00113118 3.25927e-06 0)
(-0.00114369 3.22918e-06 0)
(-0.00115607 3.19694e-06 0)
(-0.00116832 3.16253e-06 0)
(-0.00118042 3.12592e-06 0)
(-0.00119236 3.08708e-06 0)
(-0.00120415 3.046e-06 0)
(-0.00121577 3.00265e-06 0)
(-0.00122721 2.95702e-06 0)
(-0.00123846 2.90907e-06 0)
(-0.00124952 2.8588e-06 0)
(-0.00126037 2.80619e-06 0)
(-0.00127101 2.75123e-06 0)
(-0.00128143 2.69391e-06 0)
(-0.00129161 2.63423e-06 0)
(-0.00130156 2.57217e-06 0)
(-0.00131125 2.50772e-06 0)
(-0.00132069 2.44089e-06 0)
(-0.00132986 2.37169e-06 0)
(-0.00133875 2.30011e-06 0)
(-0.00134736 2.22616e-06 0)
(-0.00135567 2.14984e-06 0)
(-0.00136368 2.07115e-06 0)
(-0.00137138 1.99012e-06 0)
(-0.00137875 1.90676e-06 0)
(-0.0013858 1.8211e-06 0)
(-0.0013925 1.73314e-06 0)
(-0.00139886 1.64292e-06 0)
(-0.00140487 1.55046e-06 0)
(-0.00141051 1.45578e-06 0)
(-0.00141578 1.35891e-06 0)
(-0.00142067 1.2599e-06 0)
(-0.00142517 1.15878e-06 0)
(-0.00142928 1.05559e-06 0)
(-0.00143298 9.50382e-07 0)
(-0.00143627 8.43191e-07 0)
(-0.00143914 7.34067e-07 0)
(-0.00144159 6.23063e-07 0)
(-0.00144361 5.10234e-07 0)
(-0.00144518 3.95642e-07 0)
(-0.00144632 2.79353e-07 0)
(-0.001447 1.61429e-07 0)
(-0.00144722 4.19277e-08 0)
(-0.00144698 -7.90766e-08 0)
(-0.00144628 -2.01511e-07 0)
(-0.0014451 -3.25296e-07 0)
(-0.00144344 -4.50351e-07 0)
(-0.0014413 -5.76594e-07 0)
(-0.00143867 -7.03944e-07 0)
(-0.00143556 -8.32315e-07 0)
(-0.00143195 -9.61617e-07 0)
(-0.00142784 -1.09175e-06 0)
(-0.00142324 -1.22264e-06 0)
(-0.00141813 -1.35416e-06 0)
(-0.00141252 -1.48624e-06 0)
(-0.0014064 -1.61875e-06 0)
(-0.00139977 -1.75161e-06 0)
(-0.00139264 -1.88469e-06 0)
(-0.001385 -2.0179e-06 0)
(-0.00137685 -2.15113e-06 0)
(-0.0013682 -2.28426e-06 0)
(-0.00135903 -2.41717e-06 0)
(-0.00134936 -2.54977e-06 0)
(-0.00133919 -2.68192e-06 0)
(-0.00132851 -2.81351e-06 0)
(-0.00131734 -2.94442e-06 0)
(-0.00130566 -3.07453e-06 0)
(-0.0012935 -3.20373e-06 0)
(-0.00128084 -3.33188e-06 0)
(-0.0012677 -3.45888e-06 0)
(-0.00125408 -3.58459e-06 0)
(-0.00123998 -3.7089e-06 0)
(-0.00122542 -3.83168e-06 0)
(-0.00121039 -3.9528e-06 0)
(-0.00119491 -4.07216e-06 0)
(-0.00117897 -4.18963e-06 0)
(-0.00116259 -4.30508e-06 0)
(-0.00114578 -4.41841e-06 0)
(-0.00112855 -4.52948e-06 0)
(-0.00111089 -4.63818e-06 0)
(-0.00109283 -4.7444e-06 0)
(-0.00107437 -4.84802e-06 0)
(-0.00105553 -4.94893e-06 0)
(-0.0010363 -5.04703e-06 0)
(-0.00101671 -5.1422e-06 0)
(-0.000996768 -5.23433e-06 0)
(-0.000976478 -5.32331e-06 0)
(-0.000955858 -5.40906e-06 0)
(-0.000934919 -5.49148e-06 0)
(-0.000913673 -5.57046e-06 0)
(-0.000892135 -5.64593e-06 0)
(-0.000870317 -5.71778e-06 0)
(-0.000848234 -5.78593e-06 0)
(-0.000825898 -5.85031e-06 0)
(-0.000803326 -5.91084e-06 0)
(-0.000780531 -5.96744e-06 0)
(-0.000757529 -6.02005e-06 0)
(-0.000734334 -6.0686e-06 0)
(-0.000710962 -6.11302e-06 0)
(-0.000687428 -6.15327e-06 0)
(-0.000663749 -6.18929e-06 0)
(-0.000639941 -6.22104e-06 0)
(-0.000616019 -6.24848e-06 0)
(-0.000592 -6.27157e-06 0)
(-0.0005679 -6.29027e-06 0)
(-0.000543736 -6.30456e-06 0)
(-0.000519524 -6.31443e-06 0)
(-0.000495282 -6.31985e-06 0)
(-0.000471026 -6.32081e-06 0)
(-0.000446772 -6.31731e-06 0)
(-0.000422537 -6.30936e-06 0)
(-0.000398339 -6.29694e-06 0)
(-0.000374194 -6.28007e-06 0)
(-0.000350119 -6.25878e-06 0)
(-0.00032613 -6.23309e-06 0)
(-0.000302243 -6.20301e-06 0)
(-0.000278476 -6.16858e-06 0)
(-0.000254845 -6.12984e-06 0)
(-0.000231365 -6.08683e-06 0)
(-0.000208053 -6.0396e-06 0)
(-0.000184925 -5.98819e-06 0)
(-0.000161996 -5.93268e-06 0)
(-0.000139281 -5.87313e-06 0)
(-0.000116796 -5.80959e-06 0)
(-9.45562e-05 -5.74213e-06 0)
(-7.25754e-05 -5.67084e-06 0)
(-5.08683e-05 -5.5958e-06 0)
(-2.94488e-05 -5.51709e-06 0)
(-8.33078e-06 -5.43481e-06 0)
(1.24725e-05 -5.34904e-06 0)
(3.29479e-05 -5.25988e-06 0)
(5.30828e-05 -5.16743e-06 0)
(7.28648e-05 -5.0718e-06 0)
(9.22821e-05 -4.97308e-06 0)
(0.000111323 -4.87141e-06 0)
(0.000129977 -4.76687e-06 0)
(0.000148233 -4.6596e-06 0)
(0.00016608 -4.54971e-06 0)
(0.000183509 -4.43732e-06 0)
(0.000200511 -4.32255e-06 0)
(0.000217077 -4.20552e-06 0)
(0.000233197 -4.08636e-06 0)
(0.000248865 -3.96521e-06 0)
(0.000264073 -3.84219e-06 0)
(0.000278813 -3.71742e-06 0)
(0.00029308 -3.59104e-06 0)
(0.000306866 -3.46317e-06 0)
(0.000320168 -3.33395e-06 0)
(0.000332978 -3.2035e-06 0)
(0.000345293 -3.07197e-06 0)
(0.000357109 -2.93948e-06 0)
(0.000368423 -2.80616e-06 0)
(0.00037923 -2.67213e-06 0)
(0.000389528 -2.53753e-06 0)
(0.000399315 -2.40248e-06 0)
(0.00040859 -2.26711e-06 0)
(0.000417351 -2.13154e-06 0)
(0.000425597 -1.9959e-06 0)
(0.000433328 -1.8603e-06 0)
(0.000440545 -1.72487e-06 0)
(0.000447247 -1.58971e-06 0)
(0.000453436 -1.45494e-06 0)
(0.000459112 -1.32069e-06 0)
(0.000464279 -1.18704e-06 0)
(0.000468939 -1.05412e-06 0)
(0.000473093 -9.22019e-07 0)
(0.000476745 -7.90845e-07 0)
(0.000479898 -6.60689e-07 0)
(0.000482557 -5.3165e-07 0)
(0.000484725 -4.03823e-07 0)
(0.000486407 -2.77295e-07 0)
(0.000487608 -1.52153e-07 0)
(0.000488332 -2.848e-08 0)
(0.000488586 9.36481e-08 0)
(0.000488376 2.14141e-07 0)
(0.000487707 3.32944e-07 0)
(0.000486585 4.49978e-07 0)
(0.000485019 5.65173e-07 0)
(0.000483013 6.7846e-07 0)
(0.000480576 7.89777e-07 0)
(0.000477716 8.99066e-07 0)
(0.000474439 1.00627e-06 0)
(0.000470754 1.11133e-06 0)
(0.000466669 1.2142e-06 0)
(0.000462192 1.3148e-06 0)
(0.000457332 1.41311e-06 0)
(0.000452097 1.50906e-06 0)
(0.000446498 1.60262e-06 0)
(0.000440542 1.69372e-06 0)
(0.00043424 1.78233e-06 0)
(0.000427601 1.86839e-06 0)
(0.000420635 1.95184e-06 0)
(0.000413352 2.03266e-06 0)
(0.000405762 2.11077e-06 0)
(0.000397875 2.18614e-06 0)
(0.000389704 2.2587e-06 0)
(0.000381257 2.3284e-06 0)
(0.000372547 2.39517e-06 0)
(0.000363585 2.45895e-06 0)
(0.000354383 2.51968e-06 0)
(0.000344953 2.57727e-06 0)
(0.000335306 2.63165e-06 0)
(0.000325457 2.68272e-06 0)
(0.000315417 2.7304e-06 0)
(0.0003052 2.77458e-06 0)
(0.000294821 2.81515e-06 0)
(0.000284293 2.85198e-06 0)
(0.000273631 2.88495e-06 0)
(0.00026285 2.91391e-06 0)
(0.000251967 2.9387e-06 0)
(0.000240997 2.95915e-06 0)
(0.000229959 2.97506e-06 0)
(0.000218869 2.98625e-06 0)
(0.000207746 2.99247e-06 0)
(0.000196611 2.9935e-06 0)
(0.000185483 2.98908e-06 0)
(0.000174383 2.9789e-06 0)
(0.000163335 2.96267e-06 0)
(0.000152362 2.94004e-06 0)
(0.000141488 2.91066e-06 0)
(0.000130739 2.87412e-06 0)
(0.000120144 2.83001e-06 0)
(0.00010973 2.77787e-06 0)
(9.95294e-05 2.7172e-06 0)
(8.95731e-05 2.64746e-06 0)
(7.98952e-05 2.56808e-06 0)
(7.05316e-05 2.47846e-06 0)
(6.15198e-05 2.37793e-06 0)
(5.28995e-05 2.2658e-06 0)
(4.47123e-05 2.14134e-06 0)
(3.70015e-05 2.00378e-06 0)
(2.98126e-05 1.85233e-06 0)
(2.31925e-05 1.6862e-06 0)
(1.71898e-05 1.50463e-06 0)
(1.18535e-05 1.30693e-06 0)
(7.23251e-06 1.09261e-06 0)
(3.37399e-06 8.61603e-07 0)
(3.2076e-07 6.14691e-07 0)
(-1.89203e-06 3.54276e-07 0)
(-3.24522e-06 8.51669e-08 0)
(-3.74846e-06 -1.80464e-07 0)
(-3.45691e-06 -4.17654e-07 0)
(-2.50763e-06 -5.79354e-07 0)
(-1.22254e-06 -5.73154e-07 0)
(-2.76313e-07 -2.76183e-07 0)
(-3.47575e-08 1.65179e-07 0)
(4.59338e-07 -5.02698e-07 0)
(2.06154e-06 -1.37577e-06 0)
(4.68432e-06 -2.18692e-06 0)
(8.18362e-06 -2.84818e-06 0)
(1.23912e-05 -3.34463e-06 0)
(1.71231e-05 -3.68757e-06 0)
(2.2204e-05 -3.89613e-06 0)
(2.74764e-05 -3.98959e-06 0)
(3.28019e-05 -3.98566e-06 0)
(3.80603e-05 -3.90003e-06 0)
(4.31484e-05 -3.74605e-06 0)
(4.79788e-05 -3.5349e-06 0)
(5.24774e-05 -3.27613e-06 0)
(5.65817e-05 -2.97798e-06 0)
(6.02397e-05 -2.64759e-06 0)
(6.34083e-05 -2.29106e-06 0)
(6.60523e-05 -1.9136e-06 0)
(6.81436e-05 -1.51969e-06 0)
(6.96596e-05 -1.11324e-06 0)
(7.05833e-05 -6.97626e-07 0)
(7.09021e-05 -2.75708e-07 0)
(7.06075e-05 1.50033e-07 0)
(6.96942e-05 5.77352e-07 0)
(6.81599e-05 1.00431e-06 0)
(6.60052e-05 1.42932e-06 0)
(6.32327e-05 1.85112e-06 0)
(5.98469e-05 2.26853e-06 0)
(5.5854e-05 2.68055e-06 0)
(5.12615e-05 3.08637e-06 0)
(4.60779e-05 3.48532e-06 0)
(4.0313e-05 3.87687e-06 0)
(3.3977e-05 4.26059e-06 0)
(2.70809e-05 4.63617e-06 0)
(1.96361e-05 5.0034e-06 0)
(1.16543e-05 5.36213e-06 0)
(3.14739e-06 5.71231e-06 0)
(-5.87263e-06 6.05393e-06 0)
(-1.53937e-05 6.38705e-06 0)
(-2.54039e-05 6.71181e-06 0)
(-3.58914e-05 7.02832e-06 0)
(-4.68447e-05 7.33677e-06 0)
(-5.82525e-05 7.6374e-06 0)
(-7.01038e-05 7.93045e-06 0)
(-8.23881e-05 8.21623e-06 0)
(-9.50949e-05 8.49507e-06 0)
(-0.000108215 8.76724e-06 0)
(-0.000121738 9.03307e-06 0)
(-0.000135656 9.2929e-06 0)
(-0.00014996 9.54707e-06 0)
(-0.000164642 9.79598e-06 0)
(-0.000179695 1.004e-05 0)
(-0.000195112 1.02794e-05 0)
(-0.000210887 1.05146e-05 0)
(-0.000227013 1.0746e-05 0)
(-0.000243486 1.09738e-05 0)
(-0.0002603 1.11986e-05 0)
(-0.000277451 1.14205e-05 0)
(-0.000294935 1.164e-05 0)
(-0.000312749 1.18572e-05 0)
(-0.000330889 1.20726e-05 0)
(-0.000349353 1.22864e-05 0)
(-0.000368139 1.2499e-05 0)
(-0.000387245 1.27105e-05 0)
(-0.000406669 1.29212e-05 0)
(-0.000426411 1.31315e-05 0)
(-0.00044647 1.33415e-05 0)
(-0.000466846 1.35514e-05 0)
(-0.000487538 1.37615e-05 0)
(-0.000508546 1.39718e-05 0)
(-0.000529872 1.41826e-05 0)
(-0.000551515 1.43941e-05 0)
(-0.000573477 1.46063e-05 0)
(-0.000595758 1.48193e-05 0)
(-0.00061836 1.50334e-05 0)
(-0.000641284 1.52486e-05 0)
(-0.000664532 1.54649e-05 0)
(-0.000688106 1.56825e-05 0)
(-0.000712006 1.59013e-05 0)
(-0.000736235 1.61214e-05 0)
(-0.000760794 1.63428e-05 0)
(-0.000785685 1.65655e-05 0)
(-0.00081091 1.67895e-05 0)
(-0.00083647 1.70148e-05 0)
(-0.000862368 1.72414e-05 0)
(-0.000888605 1.74691e-05 0)
(-0.000915182 1.7698e-05 0)
(-0.0009421 1.79279e-05 0)
(-0.000969362 1.81588e-05 0)
(-0.000996968 1.83906e-05 0)
(-0.00102492 1.86232e-05 0)
(-0.00105322 1.88564e-05 0)
(-0.00108186 1.90901e-05 0)
(-0.00111085 1.93242e-05 0)
(-0.00114019 1.95585e-05 0)
(-0.00116988 1.97929e-05 0)
(-0.00119991 2.00273e-05 0)
(-0.00123029 2.02614e-05 0)
(-0.00126101 2.04951e-05 0)
(-0.00129208 2.07281e-05 0)
(-0.0013235 2.09603e-05 0)
(-0.00135526 2.11915e-05 0)
(-0.00138735 2.14215e-05 0)
(-0.00141979 2.165e-05 0)
(-0.00145256 2.18768e-05 0)
(-0.00148566 2.21018e-05 0)
(-0.00151909 2.23246e-05 0)
(-0.00155285 2.2545e-05 0)
(-0.00158693 2.27628e-05 0)
(-0.00162133 2.29777e-05 0)
(-0.00165604 2.31895e-05 0)
(-0.00169105 2.33979e-05 0)
(-0.00172637 2.36026e-05 0)
(-0.00176199 2.38035e-05 0)
(-0.0017979 2.40001e-05 0)
(-0.00183409 2.41923e-05 0)
(-0.00187055 2.43797e-05 0)
(-0.00190729 2.45621e-05 0)
(-0.00194428 2.47391e-05 0)
(-0.00198153 2.49106e-05 0)
(-0.00201902 2.50761e-05 0)
(-0.00205675 2.52355e-05 0)
(-0.0020947 2.53883e-05 0)
(-0.00213287 2.55344e-05 0)
(-0.00217124 2.56734e-05 0)
(-0.00220981 2.5805e-05 0)
(-0.00224855 2.59289e-05 0)
(-0.00228747 2.60448e-05 0)
(-0.00232655 2.61524e-05 0)
(-0.00236577 2.62514e-05 0)
(-0.00240512 2.63414e-05 0)
(-0.00244459 2.64223e-05 0)
(-0.00248416 2.64935e-05 0)
(-0.00252383 2.6555e-05 0)
(-0.00256356 2.66063e-05 0)
(-0.00260336 2.66471e-05 0)
(-0.0026432 2.66772e-05 0)
(-0.00268307 2.66962e-05 0)
(-0.00272294 2.67038e-05 0)
(-0.00276281 2.66998e-05 0)
(-0.00280265 2.66838e-05 0)
(-0.00284245 2.66555e-05 0)
(-0.00288219 2.66147e-05 0)
(-0.00292185 2.6561e-05 0)
(-0.00296141 2.64942e-05 0)
(-0.00300084 2.6414e-05 0)
(-0.00304014 2.63202e-05 0)
(-0.00307927 2.62123e-05 0)
(-0.00311823 2.60902e-05 0)
(-0.00315698 2.59537e-05 0)
(-0.0031955 2.58024e-05 0)
(-0.00323378 2.56362e-05 0)
(-0.00327178 2.54547e-05 0)
(-0.0033095 2.52577e-05 0)
(-0.0033469 2.50451e-05 0)
(-0.00338396 2.48166e-05 0)
(-0.00342066 2.4572e-05 0)
(-0.00345697 2.43112e-05 0)
(-0.00349287 2.40338e-05 0)
(-0.00352833 2.37398e-05 0)
(-0.00356333 2.34289e-05 0)
(-0.00359785 2.31011e-05 0)
(-0.00363186 2.27561e-05 0)
(-0.00366533 2.2394e-05 0)
(-0.00369824 2.20144e-05 0)
(-0.00373056 2.16174e-05 0)
(-0.00376226 2.12028e-05 0)
(-0.00379333 2.07706e-05 0)
(-0.00382374 2.03207e-05 0)
(-0.00385345 1.98531e-05 0)
(-0.00388244 1.93677e-05 0)
(-0.00391069 1.88646e-05 0)
(-0.00393817 1.83436e-05 0)
(-0.00396486 1.7805e-05 0)
(-0.00399072 1.72486e-05 0)
(-0.00401573 1.66745e-05 0)
(-0.00403987 1.60829e-05 0)
(-0.00406311 1.54738e-05 0)
(-0.00408543 1.48474e-05 0)
(-0.00410679 1.42036e-05 0)
(-0.00412718 1.35428e-05 0)
(-0.00414657 1.28651e-05 0)
(-0.00416493 1.21707e-05 0)
(-0.00418225 1.14597e-05 0)
(-0.00419849 1.07325e-05 0)
(-0.00421363 9.98928e-06 0)
(-0.00422765 9.23029e-06 0)
(-0.00424053 8.45584e-06 0)
(-0.00425225 7.66627e-06 0)
(-0.00426278 6.86192e-06 0)
(-0.0042721 6.04313e-06 0)
(-0.00428019 5.2103e-06 0)
(-0.00428703 4.36384e-06 0)
(-0.0042926 3.50415e-06 0)
(-0.00429689 2.6317e-06 0)
(-0.00429987 1.74696e-06 0)
(-0.00430152 8.50436e-07 0)
(-0.00430184 -5.73875e-08 0)
(-0.0043008 -9.75963e-07 0)
(-0.0042984 -1.90474e-06 0)
(-0.0042946 -2.84313e-06 0)
(-0.00428941 -3.79056e-06 0)
(-0.00428281 -4.74638e-06 0)
(-0.00427479 -5.70998e-06 0)
(-0.00426533 -6.6807e-06 0)
(-0.00425443 -7.65787e-06 0)
(-0.00424209 -8.64079e-06 0)
(-0.00422828 -9.62875e-06 0)
(-0.004213 -1.0621e-05 0)
(-0.00419626 -1.16169e-05 0)
(-0.00417804 -1.26156e-05 0)
(-0.00415835 -1.36163e-05 0)
(-0.00413717 -1.46182e-05 0)
(-0.00411451 -1.56206e-05 0)
(-0.00409038 -1.66227e-05 0)
(-0.00406476 -1.76235e-05 0)
(-0.00403767 -1.86224e-05 0)
(-0.0040091 -1.96183e-05 0)
(-0.00397907 -2.06105e-05 0)
(-0.00394757 -2.15981e-05 0)
(-0.00391463 -2.25802e-05 0)
(-0.00388023 -2.3556e-05 0)
(-0.00384441 -2.45246e-05 0)
(-0.00380716 -2.5485e-05 0)
(-0.0037685 -2.64363e-05 0)
(-0.00372845 -2.73778e-05 0)
(-0.00368702 -2.83085e-05 0)
(-0.00364422 -2.92275e-05 0)
(-0.00360008 -3.01338e-05 0)
(-0.00355462 -3.10267e-05 0)
(-0.00350785 -3.19053e-05 0)
(-0.0034598 -3.27686e-05 0)
(-0.00341048 -3.36158e-05 0)
(-0.00335993 -3.4446e-05 0)
(-0.00330818 -3.52584e-05 0)
(-0.00325524 -3.60521e-05 0)
(-0.00320114 -3.68263e-05 0)
(-0.00314592 -3.75803e-05 0)
(-0.00308961 -3.8313e-05 0)
(-0.00303223 -3.90239e-05 0)
(-0.00297383 -3.97122e-05 0)
(-0.00291442 -4.03769e-05 0)
(-0.00285406 -4.10176e-05 0)
(-0.00279277 -4.16334e-05 0)
(-0.00273059 -4.22236e-05 0)
(-0.00266757 -4.27876e-05 0)
(-0.00260373 -4.33248e-05 0)
(-0.00253912 -4.38345e-05 0)
(-0.00247378 -4.43161e-05 0)
(-0.00240776 -4.47692e-05 0)
(-0.00234108 -4.51931e-05 0)
(-0.0022738 -4.55874e-05 0)
(-0.00220597 -4.59515e-05 0)
(-0.00213762 -4.62852e-05 0)
(-0.00206879 -4.65879e-05 0)
(-0.00199955 -4.68592e-05 0)
(-0.00192992 -4.7099e-05 0)
(-0.00185997 -4.73067e-05 0)
(-0.00178973 -4.74823e-05 0)
(-0.00171925 -4.76254e-05 0)
(-0.00164858 -4.77359e-05 0)
(-0.00157778 -4.78136e-05 0)
(-0.00150687 -4.78584e-05 0)
(-0.00143593 -4.78702e-05 0)
(-0.00136498 -4.7849e-05 0)
(-0.00129409 -4.77947e-05 0)
(-0.0012233 -4.77075e-05 0)
(-0.00115266 -4.75873e-05 0)
(-0.00108221 -4.74343e-05 0)
(-0.00101201 -4.72487e-05 0)
(-0.000942096 -4.70306e-05 0)
(-0.000872526 -4.67803e-05 0)
(-0.000803341 -4.64981e-05 0)
(-0.000734591 -4.61841e-05 0)
(-0.00066632 -4.58388e-05 0)
(-0.000598574 -4.54626e-05 0)
(-0.000531398 -4.50558e-05 0)
(-0.000464838 -4.4619e-05 0)
(-0.000398936 -4.41525e-05 0)
(-0.000333736 -4.3657e-05 0)
(-0.00026928 -4.31329e-05 0)
(-0.000205609 -4.25808e-05 0)
(-0.000142766 -4.20014e-05 0)
(-8.07879e-05 -4.13953e-05 0)
(-1.97152e-05 -4.07632e-05 0)
(4.04148e-05 -4.01057e-05 0)
(9.95651e-05 -3.94236e-05 0)
(0.0001577 -3.87177e-05 0)
(0.000214785 -3.79886e-05 0)
(0.000270787 -3.72372e-05 0)
(0.000325673 -3.64644e-05 0)
(0.000379412 -3.56709e-05 0)
(0.000431974 -3.48576e-05 0)
(0.00048333 -3.40255e-05 0)
(0.000533454 -3.31752e-05 0)
(0.000582319 -3.23079e-05 0)
(0.0006299 -3.14243e-05 0)
(0.000676174 -3.05255e-05 0)
(0.000721118 -2.96123e-05 0)
(0.000764713 -2.86857e-05 0)
(0.000806938 -2.77466e-05 0)
(0.000847776 -2.6796e-05 0)
(0.00088721 -2.58348e-05 0)
(0.000925225 -2.4864e-05 0)
(0.000961807 -2.38846e-05 0)
(0.000996944 -2.28975e-05 0)
(0.00103062 -2.19037e-05 0)
(0.00106284 -2.09041e-05 0)
(0.00109358 -1.98996e-05 0)
(0.00112284 -1.88912e-05 0)
(0.00115061 -1.78798e-05 0)
(0.0011769 -1.68664e-05 0)
(0.00120168 -1.58518e-05 0)
(0.00122498 -1.48369e-05 0)
(0.00124678 -1.38226e-05 0)
(0.00126708 -1.28098e-05 0)
(0.00128589 -1.17994e-05 0)
(0.00130322 -1.07921e-05 0)
(0.00131906 -9.78878e-06 0)
(0.00133343 -8.79025e-06 0)
(0.00134632 -7.79728e-06 0)
(0.00135775 -6.81065e-06 0)
(0.00136773 -5.83108e-06 0)
(0.00137627 -4.85931e-06 0)
(0.00138338 -3.89603e-06 0)
(0.00138907 -2.94193e-06 0)
(0.00139335 -1.99768e-06 0)
(0.00139625 -1.06391e-06 0)
(0.00139777 -1.41243e-07 0)
(0.00139794 7.69717e-07 0)
(0.00139676 1.66839e-06 0)
(0.00139427 2.55422e-06 0)
(0.00139047 3.42666e-06 0)
(0.00138538 4.28518e-06 0)
(0.00137904 5.12928e-06 0)
(0.00137145 5.95846e-06 0)
(0.00136265 6.77227e-06 0)
(0.00135265 7.57022e-06 0)
(0.00134147 8.35189e-06 0)
(0.00132915 9.11682e-06 0)
(0.00131571 9.86458e-06 0)
(0.00130117 1.05948e-05 0)
(0.00128555 1.1307e-05 0)
(0.00126889 1.20008e-05 0)
(0.00125122 1.26757e-05 0)
(0.00123255 1.33315e-05 0)
(0.00121293 1.39676e-05 0)
(0.00119237 1.45837e-05 0)
(0.00117091 1.51792e-05 0)
(0.00114858 1.57539e-05 0)
(0.00112541 1.63071e-05 0)
(0.00110144 1.68385e-05 0)
(0.00107669 1.73474e-05 0)
(0.00105121 1.78335e-05 0)
(0.00102501 1.82961e-05 0)
(0.000998149 1.87346e-05 0)
(0.000970652 1.91483e-05 0)
(0.000942559 1.95367e-05 0)
(0.000913908 1.98989e-05 0)
(0.000884739 2.02342e-05 0)
(0.000855092 2.05416e-05 0)
(0.00082501 2.08203e-05 0)
(0.000794537 2.10693e-05 0)
(0.000763717 2.12875e-05 0)
(0.000732597 2.14737e-05 0)
(0.000701226 2.16266e-05 0)
(0.000669654 2.17449e-05 0)
(0.000637934 2.18271e-05 0)
(0.00060612 2.18716e-05 0)
(0.00057427 2.18767e-05 0)
(0.000542442 2.18406e-05 0)
(0.0005107 2.17613e-05 0)
(0.000479108 2.16367e-05 0)
(0.000447734 2.14644e-05 0)
(0.000416651 2.1242e-05 0)
(0.000385933 2.0967e-05 0)
(0.000355658 2.06366e-05 0)
(0.00032591 2.02478e-05 0)
(0.000296774 1.97975e-05 0)
(0.000268342 1.92825e-05 0)
(0.000240709 1.86993e-05 0)
(0.000213973 1.80444e-05 0)
(0.00018824 1.73142e-05 0)
(0.000163618 1.65049e-05 0)
(0.000140219 1.56131e-05 0)
(0.00011816 1.46351e-05 0)
(9.756e-05 1.3568e-05 0)
(7.8542e-05 1.24091e-05 0)
(6.12283e-05 1.11572e-05 0)
(4.57396e-05 9.81224e-06 0)
(3.21915e-05 8.37718e-06 0)
(2.06891e-05 6.85902e-06 0)
(1.13191e-05 5.27165e-06 0)
(4.13803e-06 3.63992e-06 0)
(-8.45172e-07 2.00593e-06 0)
(-3.69647e-06 4.42714e-07 0)
(-4.5923e-06 -9.27127e-07 0)
(-3.86664e-06 -1.89964e-06 0)
(-2.14941e-06 -2.1489e-06 0)
(-5.73504e-07 -1.2224e-06 0)
(1.51275e-07 -2.50403e-07 0)
(1.35269e-06 -2.09542e-06 0)
(4.18989e-06 -4.21278e-06 0)
(8.39201e-06 -6.16153e-06 0)
(1.37545e-05 -7.78229e-06 0)
(2.00642e-05 -9.02855e-06 0)
(2.70824e-05 -9.90727e-06 0)
(3.45734e-05 -1.04488e-05 0)
(4.23184e-05 -1.06914e-05 0)
(5.0119e-05 -1.06741e-05 0)
(5.77992e-05 -1.04334e-05 0)
(6.52051e-05 -1.0002e-05 0)
(7.22034e-05 -9.40875e-06 0)
(7.86795e-05 -8.6791e-06 0)
(8.45356e-05 -7.8353e-06 0)
(8.9689e-05 -6.89675e-06 0)
(9.40706e-05 -5.88032e-06 0)
(9.76233e-05 -4.8007e-06 0)
(0.0001003 -3.67075e-06 0)
(0.000102064 -2.5017e-06 0)
(0.000102886 -1.30326e-06 0)
(0.000102744 -8.38635e-08 0)
(0.000101621 1.1491e-06 0)
(9.95091e-05 2.38909e-06 0)
(9.64012e-05 3.63057e-06 0)
(9.22969e-05 4.86884e-06 0)
(8.71986e-05 6.09978e-06 0)
(8.11121e-05 7.31984e-06 0)
(7.40455e-05 8.52606e-06 0)
(6.60097e-05 9.71595e-06 0)
(5.7017e-05 1.08874e-05 0)
(4.70817e-05 1.20388e-05 0)
(3.62191e-05 1.31688e-05 0)
(2.44459e-05 1.42764e-05 0)
(1.17794e-05 1.53607e-05 0)
(-1.76261e-06 1.64214e-05 0)
(-1.61618e-05 1.7458e-05 0)
(-3.13995e-05 1.84705e-05 0)
(-4.74573e-05 1.9459e-05 0)
(-6.43165e-05 2.04238e-05 0)
(-8.19586e-05 2.13652e-05 0)
(-0.000100366 2.22837e-05 0)
(-0.00011952 2.31799e-05 0)
(-0.000139404 2.40543e-05 0)
(-0.000160002 2.49079e-05 0)
(-0.000181297 2.57415e-05 0)
(-0.000203273 2.65558e-05 0)
(-0.000225915 2.73519e-05 0)
(-0.000249211 2.81307e-05 0)
(-0.000273145 2.88932e-05 0)
(-0.000297706 2.96404e-05 0)
(-0.000322882 3.03732e-05 0)
(-0.000348661 3.10928e-05 0)
(-0.000375033 3.18e-05 0)
(-0.00040199 3.2496e-05 0)
(-0.000429521 3.31817e-05 0)
(-0.00045762 3.38581e-05 0)
(-0.000486279 3.45262e-05 0)
(-0.000515491 3.51869e-05 0)
(-0.000545252 3.58412e-05 0)
(-0.000575555 3.64898e-05 0)
(-0.000606397 3.71338e-05 0)
(-0.000637774 3.77737e-05 0)
(-0.000669683 3.84105e-05 0)
(-0.000702121 3.90449e-05 0)
(-0.000735088 3.96775e-05 0)
(-0.00076858 4.03091e-05 0)
(-0.000802599 4.09402e-05 0)
(-0.000837142 4.15715e-05 0)
(-0.000872211 4.22034e-05 0)
(-0.000907805 4.28364e-05 0)
(-0.000943927 4.3471e-05 0)
(-0.000980576 4.41075e-05 0)
(-0.00101775 4.47464e-05 0)
(-0.00105546 4.53879e-05 0)
(-0.00109371 4.60322e-05 0)
(-0.00113248 4.66795e-05 0)
(-0.0011718 4.73302e-05 0)
(-0.00121165 4.79842e-05 0)
(-0.00125205 4.86417e-05 0)
(-0.00129299 4.93028e-05 0)
(-0.00133448 4.99673e-05 0)
(-0.00137652 5.06353e-05 0)
(-0.00141911 5.13068e-05 0)
(-0.00146226 5.19815e-05 0)
(-0.00150596 5.26593e-05 0)
(-0.00155022 5.33401e-05 0)
(-0.00159505 5.40237e-05 0)
(-0.00164043 5.47098e-05 0)
(-0.00168638 5.5398e-05 0)
(-0.0017329 5.60881e-05 0)
(-0.00177998 5.67798e-05 0)
(-0.00182763 5.74726e-05 0)
(-0.00187585 5.81661e-05 0)
(-0.00192464 5.88599e-05 0)
(-0.001974 5.95536e-05 0)
(-0.00202392 6.02466e-05 0)
(-0.0020744 6.09384e-05 0)
(-0.00212546 6.16285e-05 0)
(-0.00217707 6.23164e-05 0)
(-0.00222924 6.30014e-05 0)
(-0.00228197 6.3683e-05 0)
(-0.00233526 6.43605e-05 0)
(-0.00238909 6.50332e-05 0)
(-0.00244346 6.57006e-05 0)
(-0.00249838 6.63619e-05 0)
(-0.00255383 6.70164e-05 0)
(-0.00260981 6.76635e-05 0)
(-0.00266631 6.83023e-05 0)
(-0.00272332 6.89322e-05 0)
(-0.00278084 6.95524e-05 0)
(-0.00283886 7.01622e-05 0)
(-0.00289736 7.07606e-05 0)
(-0.00295634 7.1347e-05 0)
(-0.00301579 7.19205e-05 0)
(-0.00307569 7.24804e-05 0)
(-0.00313603 7.30257e-05 0)
(-0.00319681 7.35557e-05 0)
(-0.00325801 7.40695e-05 0)
(-0.0033196 7.45662e-05 0)
(-0.00338159 7.5045e-05 0)
(-0.00344395 7.55051e-05 0)
(-0.00350667 7.59454e-05 0)
(-0.00356973 7.63652e-05 0)
(-0.00363311 7.67636e-05 0)
(-0.00369679 7.71397e-05 0)
(-0.00376076 7.74925e-05 0)
(-0.003825 7.78212e-05 0)
(-0.00388948 7.81249e-05 0)
(-0.00395418 7.84026e-05 0)
(-0.00401909 7.86535e-05 0)
(-0.00408418 7.88767e-05 0)
(-0.00414942 7.90712e-05 0)
(-0.00421479 7.92362e-05 0)
(-0.00428027 7.93707e-05 0)
(-0.00434583 7.94739e-05 0)
(-0.00441144 7.95448e-05 0)
(-0.00447709 7.95826e-05 0)
(-0.00454273 7.95864e-05 0)
(-0.00460834 7.95552e-05 0)
(-0.0046739 7.94884e-05 0)
(-0.00473936 7.93848e-05 0)
(-0.00480471 7.92439e-05 0)
(-0.00486991 7.90645e-05 0)
(-0.00493492 7.88461e-05 0)
(-0.00499972 7.85877e-05 0)
(-0.00506428 7.82885e-05 0)
(-0.00512855 7.79478e-05 0)
(-0.0051925 7.75648e-05 0)
(-0.00525611 7.71387e-05 0)
(-0.00531932 7.66688e-05 0)
(-0.00538212 7.61544e-05 0)
(-0.00544445 7.55948e-05 0)
(-0.00550628 7.49893e-05 0)
(-0.00556758 7.43374e-05 0)
(-0.00562831 7.36383e-05 0)
(-0.00568842 7.28916e-05 0)
(-0.00574788 7.20965e-05 0)
(-0.00580665 7.12527e-05 0)
(-0.00586469 7.03597e-05 0)
(-0.00592195 6.94168e-05 0)
(-0.0059784 6.84238e-05 0)
(-0.006034 6.73802e-05 0)
(-0.0060887 6.62857e-05 0)
(-0.00614246 6.514e-05 0)
(-0.00619525 6.39427e-05 0)
(-0.00624701 6.26937e-05 0)
(-0.00629771 6.13927e-05 0)
(-0.0063473 6.00396e-05 0)
(-0.00639575 5.86343e-05 0)
(-0.006443 5.71768e-05 0)
(-0.00648903 5.5667e-05 0)
(-0.00653377 5.41049e-05 0)
(-0.0065772 5.24907e-05 0)
(-0.00661927 5.08245e-05 0)
(-0.00665993 4.91066e-05 0)
(-0.00669915 4.7337e-05 0)
(-0.00673689 4.55162e-05 0)
(-0.00677309 4.36445e-05 0)
(-0.00680773 4.17224e-05 0)
(-0.00684077 3.97502e-05 0)
(-0.00687215 3.77286e-05 0)
(-0.00690184 3.5658e-05 0)
(-0.00692981 3.35393e-05 0)
(-0.00695601 3.13731e-05 0)
(-0.00698041 2.91601e-05 0)
(-0.00700296 2.69012e-05 0)
(-0.00702364 2.45973e-05 0)
(-0.0070424 2.22494e-05 0)
(-0.00705922 1.98584e-05 0)
(-0.00707405 1.74255e-05 0)
(-0.00708687 1.49518e-05 0)
(-0.00709764 1.24386e-05 0)
(-0.00710633 9.88702e-06 0)
(-0.00711291 7.29851e-06 0)
(-0.00711735 4.67443e-06 0)
(-0.00711963 2.01626e-06 0)
(-0.00711972 -6.74487e-07 0)
(-0.00711759 -3.39622e-06 0)
(-0.00711322 -6.1473e-06 0)
(-0.00710658 -8.92601e-06 0)
(-0.00709766 -1.17306e-05 0)
(-0.00708644 -1.45593e-05 0)
(-0.00707289 -1.74101e-05 0)
(-0.00705701 -2.02812e-05 0)
(-0.00703876 -2.31705e-05 0)
(-0.00701816 -2.60761e-05 0)
(-0.00699517 -2.89959e-05 0)
(-0.00696979 -3.19276e-05 0)
(-0.00694202 -3.48692e-05 0)
(-0.00691184 -3.78183e-05 0)
(-0.00687926 -4.07728e-05 0)
(-0.00684426 -4.37303e-05 0)
(-0.00680685 -4.66885e-05 0)
(-0.00676703 -4.96449e-05 0)
(-0.0067248 -5.25972e-05 0)
(-0.00668017 -5.55429e-05 0)
(-0.00663314 -5.84795e-05 0)
(-0.00658373 -6.14045e-05 0)
(-0.00653194 -6.43154e-05 0)
(-0.00647778 -6.72097e-05 0)
(-0.00642128 -7.00847e-05 0)
(-0.00636245 -7.2938e-05 0)
(-0.0063013 -7.57668e-05 0)
(-0.00623787 -7.85686e-05 0)
(-0.00617217 -8.13408e-05 0)
(-0.00610422 -8.40809e-05 0)
(-0.00603406 -8.67861e-05 0)
(-0.00596172 -8.9454e-05 0)
(-0.00588723 -9.20818e-05 0)
(-0.00581061 -9.46671e-05 0)
(-0.00573192 -9.72074e-05 0)
(-0.00565118 -9.97e-05 0)
(-0.00556843 -0.000102142 0)