/*--------------------------------*- C++ -*----------------------------------*\
  =========                 |
  \\      /  F ield         | OpenFOAM: The Open Source CFD Toolbox
   \\    /   O peration     | Website:  https://openfoam.org
    \\  /    A nd           | Version:  7
     \\/     M anipulation  |
\*---------------------------------------------------------------------------*/
FoamFile
{
    version     2.0;
    format      ascii;
    class       surfaceScalarField;
    location    "1.412";
    object      phi;
}
// * * * * * * * * * * * * * * * * * * * * * * * * * * * * * * * * * * * * * //

dimensions      [0 3 -1 0 0 0 0];

internalField   nonuniform List<scalar> 
18389
(
-7.97265e-05
7.97265e-05
4.3455e-05
-4.3455e-05
-5.20443e-05
5.20443e-05
4.01824e-05
-4.01824e-05
-5.18293e-05
5.18293e-05
-4.0057e-05
4.0057e-05
-3.47161e-05
3.47161e-05
3.90738e-05
-3.90738e-05
-3.5721e-05
3.5721e-05
4.15131e-05
-4.15131e-05
4.50987e-05
-4.50987e-05
-3.46305e-05
3.46305e-05
-1.59193e-05
1.59193e-05
-4.28552e-05
4.28552e-05
4.34951e-05
-4.34951e-05
2.45499e-05
-2.45498e-05
1.94837e-05
-1.94837e-05
4.58937e-05
-4.58937e-05
4.59282e-05
-4.59282e-05
4.33249e-05
-4.33249e-05
-4.25591e-05
4.25591e-05
3.56397e-05
-3.56397e-05
4.29719e-05
-4.29719e-05
-5.84592e-05
5.84592e-05
-4.97018e-05
4.97018e-05
-4.18113e-05
4.18114e-05
-4.45455e-05
4.45455e-05
4.56272e-05
-4.56272e-05
4.58579e-05
-4.58579e-05
4.41464e-05
-4.41463e-05
-4.13459e-05
4.13459e-05
-6.30734e-05
6.30734e-05
4.31163e-05
-4.31163e-05
-4.47488e-05
4.47488e-05
4.08602e-05
-4.08602e-05
4.6703e-05
-4.6703e-05
-4.55484e-05
4.55484e-05
5.35727e-05
-5.35727e-05
-5.89062e-05
5.89062e-05
3.7872e-05
-3.7872e-05
4.48746e-05
-4.48746e-05
4.53793e-05
-4.53793e-05
-4.10122e-05
4.10122e-05
4.49029e-05
-4.49029e-05
4.58752e-05
-4.58752e-05
-4.58573e-05
4.58573e-05
-4.58584e-05
4.58584e-05
-4.06691e-05
4.06691e-05
-4.58891e-05
4.58891e-05
4.59429e-05
-4.59429e-05
4.59572e-05
-4.59572e-05
4.46211e-05
-4.46211e-05
3.77319e-05
-3.77319e-05
-4.57687e-05
4.57688e-05
-5.55458e-05
5.55458e-05
-4.38136e-05
4.38136e-05
4.575e-05
-4.575e-05
-4.59939e-05
4.59939e-05
4.32272e-05
-4.32272e-05
-5.93196e-05
5.93196e-05
-4.71469e-05
4.71469e-05
4.96051e-05
-4.96051e-05
4.57365e-05
-4.57365e-05
-1.21521e-05
1.21521e-05
4.57764e-05
-4.57764e-05
4.15146e-05
-4.15146e-05
5.12084e-05
-5.12084e-05
-4.587e-05
4.587e-05
4.2321e-05
-4.2321e-05
3.16288e-05
-3.16288e-05
2.99359e-06
-2.99359e-06
-4.41282e-05
4.41282e-05
3.28686e-05
-3.28686e-05
-3.65715e-05
3.65715e-05
3.97596e-05
-3.97596e-05
2.66254e-05
-2.66254e-05
2.61995e-05
-2.61995e-05
2.70488e-05
-2.70488e-05
2.43917e-05
-2.43917e-05
1.34688e-05
-1.34688e-05
0.00107602
-0.000882281
-0.000193741
0.00546697
-0.00207638
-0.00339058
-0.00594626
0.00594619
6.46111e-08
0.00335395
-0.00259791
-0.000756044
-0.00154399
0.00176083
-0.00021683
-0.00676531
0.0028461
0.00391922
0.00121581
0.00425117
0.0072559
-0.00587583
-0.00138008
0.0011675
-0.00191384
0.000746346
-0.000870556
-0.00067344
-0.00144234
-0.000314633
0.00175697
0.000159968
-1.95478e-06
-0.000158013
0.000778424
-0.00222076
-0.00360335
0.000123566
0.00347977
-0.00320225
0.00289101
0.000311237
-0.00572359
0.00726724
-0.00154365
-0.00370932
0.00289642
0.000812889
-0.000564514
-0.00303883
-0.00174611
0.00238748
-0.000641367
-0.000465415
0.00255845
-0.00209303
-0.00160858
0.00110971
0.000498871
0.000583527
0.000581832
-0.00160247
-0.00516285
0.00123736
-0.00179501
0.000557646
0.00578208
-0.00386178
-0.0019203
-0.00065541
0.00330961
-0.0026542
-0.0058344
0.00583526
0.000485618
0.00127521
-0.00634172
0.00097284
0.00536889
0.00232924
-0.00298465
-0.00378984
0.00311331
0.000676532
0.00214758
-0.00422396
0.00108824
-0.000202792
-0.000885449
0.0015027
-0.00128881
-0.000213888
-0.00280105
-0.00040119
0.00535324
-0.00535011
0.000368218
0.00113448
0.00522879
-0.00133733
-0.00389146
0.00200247
-0.000834968
0.00308569
0.00190869
-0.00499437
-0.000722314
-0.00306753
-8.85275e-05
-0.000155378
0.000243905
0.00393553
0.00332037
0.00117145
-0.00489741
0.00372596
0.0016289
0.00359989
-0.00498221
0.00632118
-0.00133896
-0.00113176
-0.000594795
0.00172656
0.00133852
0.00201542
0.000135293
0.000103627
-0.000238919
0.0050226
-0.0033937
0.00645949
-0.000843258
-0.00561623
0.00322083
-0.0026545
-0.000566335
0.00223086
0.000443347
-0.00267422
0.0029546
-0.000723736
0.00650344
-0.00539831
-0.00110511
0.000510427
-0.00387711
0.00336668
6.86377e-05
0.00639086
0.00481585
-0.00430542
-0.000535782
0.00105936
-0.000523577
-0.00175778
0.000626017
0.00191709
0.00224907
-0.00416616
0.000253456
-0.000333589
8.01328e-05
-0.00127232
-0.00284565
0.00411797
-2.6629e-05
0.00653007
-0.00281751
0.00229067
0.000526837
0.000387425
-1.23063e-05
-0.000375118
-0.00569228
-0.00025398
0.00187391
-0.00138829
0.000827719
0.00495437
0.000892728
0.000183298
0.00262723
-0.00645901
0.00383178
-0.0011202
0.000584418
0.00263756
-0.00390988
0.00619739
-0.00226185
0.0010921
0.00117729
-0.000784909
0.00102243
-0.000237518
-0.00110885
-0.00049973
0.00189884
0.00132199
-0.000596007
0.0014298
-0.0012377
-0.000192099
-0.00265467
0.00198606
0.000668613
0.00116709
0.000262714
0.00114389
-0.00498631
0.00384241
-0.00476468
0.00142566
0.00333901
-0.00455427
0.00611794
-0.00156367
-0.00506256
8.035e-05
-0.00201614
-0.000638521
-0.000213882
0.000125355
-0.00123199
0.00465503
-0.00342304
-0.0012279
-0.000685937
0.000103314
-0.000192025
8.87109e-05
0.000126294
-2.29796e-05
-0.00126622
0.00464524
-0.00337902
-0.000156023
2.44552e-05
0.000131568
-0.00556914
0.00170737
-0.00118856
-0.000569221
-0.000449496
-1.89443e-05
0.000468439
-0.000543366
9.3869e-05
0.00101403
7.4212e-05
-0.00180737
0.000618814
-0.000150211
1.70547e-05
0.000133156
0.00136801
-0.00234447
0.000976464
0.000271104
-0.000135811
-0.00392506
0.00514088
-0.00245597
0.000709869
-9.46718e-05
-0.000428167
0.000522839
0.00568611
-0.00217009
-0.00351602
7.64073e-05
0.00250729
-0.00258369
0.00447993
-0.00563054
0.00115061
0.00263387
0.00305224
0.0029128
-0.00283639
-0.0061745
0.000450914
-0.00647591
0.00363431
0.00284161
0.00229403
0.00390336
-0.00439231
0.00138458
0.00300772
0.00150444
-0.000267078
-0.00102784
0.00402215
-0.00299431
0.00463944
-0.00162724
-0.0030122
-0.00461198
0.00374752
0.000864463
0.0036933
-0.00503064
5.86965e-05
0.000328728
-0.00136414
0.00584408
-9.36081e-05
0.00214919
-0.00205558
-0.00206307
0.00260367
0.000179056
-0.00278273
-0.0012774
0.00264541
-0.000654003
0.00325767
0.00163995
-0.00173356
0.000915658
0.00397346
-0.00488912
-0.00504178
0.00384325
0.00119854
0.0025519
-0.00359409
0.00104219
-0.00334094
0.00412055
-0.000779605
0.000333068
-0.00367401
-0.000875856
0.000875856
-0.000448345
0.000353673
-0.000126977
-0.000973468
0.00110044
0.00506997
-0.0018438
-0.00322617
-0.00243295
-0.00036811
0.00289988
0.000157739
1.65502e-05
-0.000174289
-0.00146857
0.00112285
0.000345718
-0.000140269
-0.00490151
0.00506821
-0.00389676
0.000259578
-9.96103e-05
0.00444537
0.000577229
0.00406759
-0.00151568
0.000164816
-7.07697e-06
-0.00632709
-0.000980986
-0.000826388
0.00430036
-0.00190518
-0.00239518
0.00275557
0.00154479
0.00107772
-0.00563198
-0.00225487
-0.00056264
-0.0011188
-0.000959345
0.00207815
3.89115e-05
-0.00272164
0.00268272
-0.00235715
0.00123835
-0.00221811
0.0053038
-0.00462411
0.00160816
0.00301596
0.0025462
0.000668855
-0.000333908
-0.000334947
-0.00601408
0.000583134
0.00543095
-0.00418871
0.00583514
-0.00164643
0.00182564
0.001629
-0.00345464
-0.00166907
0.000899823
0.000769243
-0.00271508
0.00207779
0.000637291
0.00109714
0.00077677
0.000247196
-0.000328938
8.17434e-05
0.00491352
-0.00399787
-0.0063885
0.00557995
0.000808554
-0.00480328
-0.00167263
0.00334157
0.000652382
-0.00399395
0.000153914
-0.000162108
8.19355e-06
0.000590553
-0.00012534
-0.000465212
-0.00451831
0.00261313
0.000371453
-0.000558784
0.000187332
4.93031e-05
-0.000925162
-0.00257572
0.00448441
-0.00530424
-0.000323888
0.00562813
0.000203564
0.00018109
-0.000384653
0.00062314
-0.00062314
0.00168378
-0.00072902
-0.00210981
0.00180863
0.000301174
0.00440492
-0.00302034
-0.00016227
6.24655e-06
-0.00119747
0.00124677
0.00072739
0.00127508
0.00234927
-0.000271474
-0.00402025
-0.00128399
0.00111367
-0.00499079
0.00321194
-0.00447816
0.000836428
-0.00213467
0.00129824
0.0033592
-0.0045912
-0.00271196
-0.00180635
-0.00483596
0.00469569
-0.000675774
-0.0053383
-0.00515984
0.00150117
-0.00145388
-4.72876e-05
0.00222957
0.000119696
-0.00601384
0.002048
0.00396584
-0.00121933
0.000525997
0.000693332
0.00145994
0.00294498
-0.00462686
-0.00101528
0.00564215
-0.000212773
0.000138485
7.42881e-05
-0.00551573
0.00132702
0.00375305
-0.0049369
0.00118385
-0.00149045
-0.000619353
-0.000536674
-0.000637499
0.000138367
-0.000203833
6.54656e-05
0.00500635
-0.00386246
-0.00130183
0.00512595
-0.00382413
-0.000399778
-0.00079769
-0.00586103
0.000439207
0.00539604
-0.00616924
0.00456677
-0.000924302
-0.00546421
-0.00109157
-0.000377003
-0.00181543
0.00285649
-0.00104106
-0.000419197
0.000322087
9.71101e-05
-0.00173203
0.0014174
0.00159772
-9.6546e-05
0.000827644
-3.67567e-05
-0.00169528
0.00279564
0.00121865
-0.00303407
0.00605371
-0.000473762
0.00528508
6.8148e-05
-0.00528147
0.00439236
0.00114311
-0.00553548
0.000556419
-0.000768844
0.000212424
-4.04506e-05
-0.000407894
-1.34932e-05
0.0060672
-0.000162223
0.000156866
5.35685e-06
0.000133297
2.06165e-05
0.00253492
-0.00335889
0.000823965
-0.00192658
0.000742464
0.00118412
0.00792133
-0.00345411
-0.00446721
0.00117138
0.00126285
-0.00243424
0.00010581
-0.000175797
6.99875e-05
-0.000805869
0.00133186
0.00116714
0.00318041
-0.00434754
-0.00561341
0.000164855
0.00544856
-0.00402092
0.00299309
0.00173488
0.00479518
0.00458047
0.00334085
-2.25846e-05
0.000188875
-0.000166291
-0.00131376
0.00440011
-0.00308635
0.00030137
-0.000341821
-0.000131285
-8.14883e-05
0.00410084
-0.00227521
0.00477929
-0.00502934
0.000250048
-0.0032551
0.00609692
-0.00284182
0.00252581
0.00157504
0.00576096
-0.000981669
-0.00139503
-0.00562055
0.00137211
0.00424844
0.000654622
0.000520697
-0.00117532
0.00126953
-0.000614913
0.000585343
-0.00111024
0.000524894
0.00110604
0.000275924
0.000392931
-0.000678273
0.00443133
0.00151557
-0.000392715
0.00354962
-0.00614013
0.00259052
0.00153188
-0.00258366
0.00105179
-0.00432533
0.00117068
0.00315465
0.00291117
-0.00422493
-0.00491242
-0.00125682
-0.00410175
0.00127105
0.0028307
0.00125372
0.00314639
-0.00326427
-0.000837486
0.00222581
-0.00105443
-0.000686344
-0.0025274
0.00321374
0.00240381
0.000622658
-0.00302646
-0.00158763
0.00119898
0.000388654
0.000270006
0.00148248
-0.00196415
0.000481677
-0.000110857
-0.000222732
-0.000264326
0.000153469
-0.00435493
-0.000257046
-0.000291654
0.00117024
-0.000878593
0.00435109
-0.0046459
0.00029481
-8.84197e-05
0.000117766
-2.93465e-05
0.000976326
0.00338062
-0.00435694
-0.000156999
6.85799e-05
-0.00475278
0.000711654
0.00404114
-0.000718698
0.000131346
0.000587351
6.01765e-05
-6.21313e-05
-0.00040168
0.000864666
-0.000347476
-0.000517191
-0.00603587
0.000637553
-0.00254966
-0.000128207
0.00267786
-0.00316831
0.00442202
0.00218082
-0.00108872
-0.00116719
-0.00116891
-5.89906e-05
-0.00351981
-0.00124486
0.00150382
-0.000399956
-0.00110387
0.0019182
0.0018392
-0.0037574
0.00505238
-0.00162189
-0.00343049
0.00079288
-0.00541973
-0.00137362
0.00300262
0.00196542
0.000777022
-0.00274244
-0.00349727
0.0044736
-0.000152883
2.67272e-06
0.000938856
-0.00443613
-0.00449725
-0.00014867
-0.000997818
-0.00461559
0.0046376
0.0014964
0.00355598
0.00415891
0.00114487
-0.00530378
3.59964e-05
5.92509e-05
-9.52473e-05
-0.0014027
0.00336812
0.0037174
0.00354983
-0.00139716
0.00236857
-0.000971405
-0.00248085
0.000464713
-0.000878416
0.000751437
-0.000209362
0.000412926
-0.000216327
0.00169881
0.00376305
-0.00184485
-0.00106633
-0.00060274
-0.000107144
-0.000157182
0.0035504
-0.0016333
-0.0024037
0.00465278
0.000674545
-0.0030959
0.00242135
0.000633266
0.000762264
-0.00105392
0.00209928
-0.00131896
-0.00327389
0.00459285
-0.0022084
0.00483564
-0.000554061
0.00344507
0.000237921
-0.000220866
-0.00236205
0.000964903
0.00233249
-0.00387128
0.0015388
-0.00119919
5.7158e-05
-2.11617e-05
0.00214625
-0.0027959
0.000649656
-0.00116621
-0.000421418
-0.003535
0.00450785
0.00119826
0.00167212
-0.00287039
-0.00168823
0.00366477
-0.00197654
0.00424282
-0.000862198
0.000234404
1.41161e-05
-0.00024852
-0.0037232
0.00203497
-0.00143426
0.00472512
-0.00329086
0.000878022
0.00130279
0.000176755
0.000446385
0.000253008
-0.000300683
4.76754e-05
0.00169878
0.000214337
-0.00191312
0.00301694
-0.00459672
0.00157978
-5.27925e-05
0.00037421
-0.000321417
0.00156026
-0.000361283
0.00139592
-0.000608511
-0.000787414
0.00282084
-0.00392874
0.00110789
0.00267827
-0.003743
0.00106473
-0.00518551
0.00193041
0.00390884
-0.000891893
-0.000640103
-0.00237162
0.00301172
0.00140805
-0.00511816
0.0037101
0.00336053
-0.00145893
-0.00190161
-0.000678251
0.00172295
-0.0010447
0.00477135
-0.00303647
-0.000688037
-0.00196645
-0.00598371
0.00514045
3.86205e-06
0.000121639
-0.000125501
-0.00157671
0.00119757
0.000379146
-0.00490999
0.00631188
-0.00140189
-0.00188358
0.000731121
0.00115246
0.000406719
0.00268594
-0.00208655
-0.000599395
0.00343568
0.000488792
-0.00392448
0.000126685
-2.08747e-05
0.00517131
0.000337274
-0.00550858
-0.00194027
0.00379732
-0.00185705
0.00277251
-0.000647967
-0.00212454
0.000462562
0.000402105
-0.000436668
0.00387235
0.00202627
-0.00396654
0.000699451
-0.000265652
-0.000433797
-0.000646085
1.70588e-05
0.000629028
-0.00315198
-0.00576556
0.00576717
-0.000274465
0.000948927
-0.000674463
-0.00228623
-0.000194628
-0.00455774
0.00323877
-0.000876599
0.00113522
0.00360718
-0.0050193
0.00141212
0.000410686
-0.00296034
0.00232895
-0.0024417
0.000112738
-0.0015714
0.00148228
8.91287e-05
-0.0012081
-0.000368617
-0.00339061
0.00342932
-0.00223105
0.000457244
0.000133309
-0.00173225
0.001054
-0.00279744
0.00075236
0.00204508
0.000242425
-8.02146e-06
-0.00347724
0.00102417
0.00245307
-0.00144583
0.00560474
0.000339391
-0.000952666
0.000613276
0.00211393
0.000658575
-0.00127775
0.000304284
0.00111027
0.00121869
-0.00143424
0.00496408
-0.00352984
-0.00484788
0.00576954
-0.000921653
-0.00117596
0.00228625
0.0041046
0.00107138
3.83313e-05
0.00586592
-0.00552018
-0.00034574
0.00356389
-0.00466519
0.00110131
0.00309398
-0.000690179
0.00542597
-0.0018188
-0.00250258
-0.000974657
-0.00216791
-0.000327339
0.00249526
0.00241192
-0.00196858
-0.00160816
-0.00424183
0.00274579
0.00149604
-0.000326166
0.00122599
0.00122342
0.00365963
-0.00488305
-0.000294635
0.000666088
0.00305956
-0.00238501
-0.00472472
-0.00125899
0.00646992
-0.00129861
0.00424571
0.00205981
0.000498639
0.00285499
-0.00212475
-0.00073024
0.00473784
-0.00245159
-7.31369e-05
-0.00332551
-0.000870606
0.00419612
0.000387887
-8.65264e-05
-0.00030136
-0.00514264
0.00610818
-0.000965533
-0.00074005
0.00190277
-0.00116272
-0.000696763
0.00525093
-0.00455418
0.00116878
-0.00190883
-0.00011325
-0.00576257
-0.000784909
0.0020244
0.00384153
-0.000241468
-0.00192645
0.000251396
-4.20006e-06
0.00036262
-0.00048796
0.00336259
-0.000827671
-0.00522689
-0.00027164
-0.000147557
0.000150194
-0.000133573
-1.66206e-05
-0.00248288
0.000125722
-0.00042307
0.0015878
-0.00100971
-0.000578087
0.00247501
0.000589541
-0.00306456
-0.00071052
0.00318553
-0.00520291
-0.000271502
0.00547441
0.00374998
0.00137598
0.00441447
-0.00123406
-0.000136487
0.00254841
0.00540387
-0.000206671
-0.00519721
-0.0060877
0.00425292
0.00183479
0.003211
-0.00126805
-0.0043525
0.000201818
-0.000224402
0.000581224
0.000814698
0.00107338
0.000105715
-0.0011791
0.00421231
0.00119156
-0.000958466
0.00317194
-0.00221348
0.00474122
-0.00139965
-0.00217809
0.00279235
-0.000614259
-0.00117678
-0.000129858
0.000311288
-0.00018143
0.00344677
-0.00414354
0.00134361
-0.00098684
-0.000356765
0.00159453
-0.000396962
-0.00325055
0.00229208
0.00548594
-0.00434283
-3.06299e-05
0.000352718
-0.00535819
0.000448188
0.00545865
-0.00190903
-0.00100382
-0.00361447
0.0046183
-0.00064698
0.00288254
-0.00223556
0.00549726
-0.00286245
-0.00263481
-8.83983e-05
0.000592915
-0.000677295
0.000660575
1.67191e-05
-0.00068713
0.00172874
-0.00104161
-0.00314755
-0.00117777
0.000155571
-1.72036e-05
-0.00122467
-0.00478917
-0.00307733
0.00239098
-0.000426537
-0.000196602
-7.26357e-05
-8.95866e-05
-0.00120087
-0.000805773
-0.0052301
-0.00283814
0.00219116
-0.000818229
0.00118645
0.00112902
0.00438973
-0.00551874
0.00340615
-0.00275377
0.00046869
0.00077491
-0.00288419
0.00210928
0.00499287
-0.00494697
-4.59005e-05
-0.00320955
0.0036156
-0.000406046
0.000207797
-9.56105e-05
-0.000112187
-0.00496788
-0.00149114
-0.00175575
0.00368989
-0.00193413
0.00298149
-0.00220658
-0.00378347
0.00202772
0.001395
-0.00258174
0.00118673
-0.00363344
0.00568144
0.00650019
-0.00219645
-0.00430375
-0.00239995
0.00237306
2.68968e-05
0.00562414
-0.00165069
0.00118724
-0.000924687
-0.000262555
-9.11157e-06
0.000262119
0.000249237
-0.000772744
0.000523507
-0.00304541
0.00365137
-0.000973108
0.000844608
-0.0010474
0.00236171
-0.000631543
-0.00173017
0.00220606
-0.000507275
0.00452988
0.000629119
0.0017326
-0.00175302
0.00106589
0.000408591
-0.000464692
5.61009e-05
0.00220978
-0.00174418
-0.000465602
0.000835191
-0.00514782
-0.000544455
0.000369493
-0.000588344
0.000218851
-0.00410124
0.00547335
0.000942152
-0.00111663
0.00017448
-0.00151784
0.0021649
-0.000647056
-0.00149225
-0.00274958
-0.00537852
-0.000154297
0.00553283
0.000301794
0.000108305
4.18892e-05
0.000128483
-0.000128402
-8.14261e-08
0.00412533
-0.00290191
-0.0038024
-0.00233772
0.00346628
0.00303392
-0.00259743
0.000737763
0.00185967
-0.000844683
0.00223968
-0.0022959
-0.000104057
0.00272857
-0.00377741
0.00104884
0.00130581
-0.000135568
0.000460311
0.000553718
-0.0032778
0.000965297
0.0023125
0.000917304
-0.000595796
-5.02905e-05
-0.00427991
0.00172811
9.39639e-05
-0.00182207
-0.00396588
0.00146717
0.00249871
0.000521465
0.00146135
-0.000880127
-0.000245871
-0.00466004
0.00490591
0.000784948
-0.00247683
0.00169188
0.0012022
0.00131232
-0.000478098
-0.00170826
0.00218636
0.0025801
-0.00179516
0.00447124
-0.00353239
-0.000786439
-0.00264094
-0.000227424
0.000251879
-0.000700949
0.00176309
-0.00106214
0.00265898
-0.0036675
0.00100851
0.000136465
2.0401e-05
-0.00236222
-0.000915585
0.00142153
-0.00163641
0.000214876
-0.00277427
0.000687724
0.00127649
-0.00141876
0.000142269
0.00161892
-0.00180787
0.000188954
0.00067691
-0.00372807
-0.00116934
0.00135719
-0.00490884
0.00355165
-0.000914936
0.0035739
0.000116352
-7.73537e-05
-3.8998e-05
0.00477309
-0.00364407
-0.000339219
-0.00153409
-0.00401826
-0.00149746
0.00209095
0.000701388
-0.00101756
-0.000924092
-0.00453345
-0.00164106
-0.000377694
0.00124255
-0.000931021
-0.000311533
-0.00149477
-0.0010889
0.000659012
0.00225577
-0.00291478
-0.00011429
0.000670709
-0.000716049
3.87544e-05
-0.00245467
0.00196643
0.0013941
-0.000728274
0.00165787
-0.000929592
-8.68723e-05
-0.000116961
0.000317867
-0.0019448
0.000454346
0.00159888
-0.00231022
0.000711342
-0.00334596
0.00257781
0.000768142
0.00119129
0.00242079
-0.00361208
-0.00175203
0.00105108
-0.00294029
-0.00102558
-0.000799192
-0.00254677
-0.0016759
0.00125135
0.000424559
0.00176363
-3.55149e-05
-0.000765455
-0.00243158
0.00319702
-0.000683508
0.00291439
-0.00225538
-0.000858544
-0.0039476
0.00480616
-0.00234388
0.00233833
5.54865e-06
-0.000718698
-0.00155998
0.000550274
-0.00240417
0.00381912
-0.00141495
0.00323279
0.00288515
0.000194394
3.62187e-05
-0.000230613
0.00234007
-0.000603121
-0.00173695
0.000188151
-0.000184289
-0.00358937
0.00494656
-0.00330093
0.00525043
-0.0019495
-0.00351007
-0.00150922
-0.000913346
0.00323153
-0.00231819
0.00285613
0.00177655
-0.00418073
-0.00499666
-0.000145977
-0.00079869
0.0028508
-0.0020521
-0.000431673
0.00037888
-0.000527901
0.00167418
-0.00114628
-0.00403919
0.00334078
0.000698407
-0.00326914
0.00235579
-0.00386976
0.000676288
0.00319347
0.0014086
-0.00101159
-0.00039702
-0.00589958
0.000696672
0.00184646
-0.00141051
-0.000435944
0.0013984
-0.000401697
-0.000996704
7.83752e-05
0.000129422
0.00293383
-0.000643151
-0.000221844
-0.00348704
-0.000382725
0.00042832
-0.0030532
-0.000985988
-0.00233503
-8.8517e-06
-0.00292673
0.00228663
0.000721378
0.00260124
-0.00332262
0.000583907
-0.000858373
0.00141305
-0.00671955
0.0053065
-0.00578762
0.000984337
-0.00234829
0.00353958
0.000690874
0.000258054
-0.00273235
0.00345372
-0.000101079
0.00509395
0.000625313
0.00170099
-0.00232631
-0.00177465
0.00124675
0.0027456
-0.00369574
0.000950128
0.00510136
0.000664648
0.00154513
0.000313033
0.000386417
-0.0003641
-0.000404743
0.000180947
-0.00174411
0.00176684
-0.000888814
0.000847347
0.000613998
-0.000586687
0.00301108
-0.00242439
-0.00149647
0.00184061
-0.00034414
-0.00489594
0.00380122
0.00109472
-0.00480571
0.00150478
-4.06092e-05
3.93238e-05
1.28541e-06
-0.00280949
-0.000857999
0.00107223
-0.00129
0.000217778
0.00136494
-0.00495431
0.00101383
5.95532e-05
0.00124615
0.000695606
0.00218693
-0.00366797
0.000858479
0.000191207
-0.00503909
0.0018999
0.00120423
0.000698539
-0.00527381
-0.000491749
0.00565393
0.001184
0.00710787
-0.0021861
-0.00492177
0.000785566
-0.000375532
-0.000410034
0.000722363
-0.00137966
0.000776915
-0.00386021
-0.00125795
0.000311288
-0.000927829
-0.000419472
0.0013473
0.00232771
0.00400855
-0.00486708
0.00270209
0.000835243
-0.00353734
0.00124969
-0.000963724
-0.000285963
0.00074575
0.00159432
-0.000135033
0.00013826
-3.22727e-06
-0.000710479
0.00288332
-0.00217284
0.00362078
0.00110434
-0.00126128
-0.000414622
0.00141184
-0.00153135
0.000119516
4.77841e-05
6.85676e-05
-0.0044767
0.000966625
-0.00165236
0.000444257
-0.00364573
0.0029352
-0.000949375
6.70931e-05
0.000936754
0.00267886
-0.00361562
0.000843879
-0.00126074
0.00419447
-0.00293374
0.000318664
0.000279953
4.65824e-05
-0.000326536
7.82533e-05
-0.00539171
0.00531346
-0.00262944
-0.000787115
0.00341656
-0.00349644
0.00260449
0.00089196
-0.00278131
-0.000261792
-0.00171279
-0.00491235
0.000894086
-0.00145251
-0.000882517
-0.00106384
0.00379241
0.00170672
-0.00372528
0.00201856
0.000105593
2.28902e-05
0.00372613
-0.00201941
0.00286025
0.000966438
-0.00382668
-0.00130033
0.00174077
-0.000440429
0.00357269
0.00110539
-0.00467808
0.00718528
-0.00197547
-0.0052098
-0.00212621
-0.000711928
-0.00172414
0.00234945
0.00377202
-0.00492954
0.00115751
-0.0028005
0.00373725
0.0011377
-1.20446e-05
-0.00112566
0.00148163
0.000905837
-0.0055143
0.000601878
0.000430747
0.000354818
0.00292154
-0.00112391
-0.00252181
0.00247888
4.29353e-05
0.000505017
-0.00184025
0.00133522
-0.00386823
-0.00119433
0.00109128
-0.00254379
-0.00529918
0.000151363
-0.00124555
-0.000527469
0.00177302
0.00563571
-0.00449084
0.000104321
0.000283567
-0.0030127
0.00319176
0.00143943
-0.00107017
-0.000369271
0.00346742
0.00476014
-0.00095893
0.00065003
-0.00327947
0.0010692
-0.000937854
-5.28849e-05
0.000461476
0.000393951
-1.97417e-05
-0.00206624
-0.000455792
0.00152802
-0.000918643
-0.00349755
0.000765211
-2.83033e-05
-1.23059e-05
0.00599855
-0.00492082
0.00522239
-0.00439467
2.19678e-05
-0.00058735
0.000565382
0.00194863
-0.000458596
-0.00149004
0.00335885
-0.000757618
-0.00256749
0.0033611
-0.000793615
-0.00183262
0.000532286
0.00127827
-0.000951543
-0.000326724
-0.000118767
-0.000210171
0.00205893
-0.000548626
-0.00151031
-0.00137956
-0.00239322
-0.000128587
0.00208858
-0.0027453
0.000656722
0.0028063
-0.000751259
-0.00205505
0.00410331
-0.00434917
0.000314544
0.00224312
-0.000644238
-0.000683316
0.000833143
-0.00367835
0.00504328
0.0012275
0.000470506
-0.00171605
-0.0028687
0.00209582
0.00363387
0.00158851
-0.00113206
-0.00383496
-0.00115135
0.00130234
-0.00171663
0.000414287
0.00367487
-0.00318608
-0.000193834
0.00113598
-3.87648e-05
-0.000270575
0.00030934
-0.000705985
-0.00189145
0.00377108
-0.00491009
0.00113902
-0.00185769
0.00235224
-0.000494555
-0.00115846
0.00213172
0.000751601
-0.00226161
0.00375474
-0.00149314
0.00150422
-0.00114003
-0.000364198
-0.00100009
0.000281394
0.000188715
-0.00042929
0.000240575
-0.000426216
-0.00122614
-0.00248018
0.00250346
-2.32836e-05
0.00145002
-0.00371163
0.00162318
-0.00037183
0.000365209
-0.000418778
5.35687e-05
-0.000825699
0.000592752
0.000232947
-0.000795461
-0.00285263
0.000839233
0.0020134
-0.00199594
-0.000851212
-0.000713093
0.0015643
-0.00524448
0.00389525
0.00134922
-0.00120063
0.0012226
-0.000576386
-0.000115925
0.00069231
0.00286831
-0.000736597
-0.000770361
-0.000160194
0.000930555
0.00183939
-0.00136888
0.0016973
-0.000394957
-0.000131437
-0.000638073
-0.00420329
0.00484137
-0.00138362
0.00282997
0.0042779
-0.00239807
-8.21091e-05
0.00311771
-0.0047396
0.00073352
0.00158088
-0.0023144
0.00200422
-0.00280291
0.0019945
-0.000742097
-0.00125241
-0.00179584
0.000456112
0.00133972
0.00432261
0.00286267
-0.00552293
0.00134207
0.00418086
-0.00125362
-0.00399086
-0.000460368
-0.00133547
-0.000996776
-0.000563202
-0.00129148
-0.000425145
0.00114568
-0.000532528
0.00150466
-0.000972128
-0.001757
0.00129663
-0.000944488
-0.000207195
0.00115168
0.00216999
-0.00286663
0.000696647
-1.17677e-05
0.000206162
0.0010316
0.00606741
-0.00141141
-0.00465601
-0.00203559
-0.00187254
0.00133124
0.000541299
0.00127066
-0.000977592
-0.000293067
-0.00229003
-0.00103024
0.00332028
-0.00266826
0.00358542
-0.000917158
-0.000922366
0.00111236
1.13631e-05
-0.00112372
0.00376036
-0.00493856
0.0011782
0.00174745
-0.00135516
-0.00039228
0.00242707
-0.00122486
0.00274199
-0.00063448
-0.000191219
-0.00409218
0.00228926
-0.00180212
-0.000487143
0.000560755
-0.00200875
0.00144799
-0.00251125
-0.000847638
0.000858893
-0.000657248
-0.000201646
-0.000179992
-0.00364497
0.000976705
0.000670972
-0.000482256
0.00258879
0.000996626
0.000319118
0.00129328
0.000701218
-0.00160261
0.00233613
-0.00149873
0.000983156
0.000515569
0.00355474
-0.000694485
-0.00381036
0.00610439
-0.00114973
-0.00248957
0.00683476
-0.00434519
-0.000889779
0.00356865
-0.00414181
0.000932269
-0.00210189
0.00424947
-0.000700451
-0.00160977
-0.00245062
0.00170452
0.000746104
-0.00128066
0.000365661
-0.000428928
6.32684e-05
-0.00137287
-0.000776851
-0.000153519
0.000930371
-0.00156246
0.00135769
0.000204772
0.00203116
0.000819628
6.24514e-05
-0.00130015
-0.000554119
-0.000825535
-0.00242316
-0.000485891
-0.00138665
-0.00017104
0.00159257
-0.000180745
0.00341134
-0.000514914
0.00133895
0.000199157
-0.000838395
-0.000956611
-0.0019296
0.00247706
-0.000547462
-0.001041
-0.0057289
0.00351079
0.00146736
-0.00062001
0.00288624
-0.00121412
0.000970421
-0.00135875
-0.00453025
0.005889
0.00062096
-0.00255056
0.0007421
-0.00369096
0.00269574
0.000995218
0.000887547
-0.00142008
0.00222152
-0.0031183
0.000896763
0.00119657
-0.00342976
0.00223319
0.000861265
0.00168721
-0.00254847
-0.00017428
0.00179319
0.00273913
0.00107801
0.00361861
-0.000413517
0.000783009
0.00315762
-0.00402822
0.000986739
-0.00327677
0.000436014
0.00412473
0.00146445
-1.06973e-05
-0.000275604
0.000286301
-0.00619335
0.00385616
0.0023372
-0.000833316
-0.00261196
0.00344529
0.0026395
-0.00177824
-0.00369693
0.000896432
-0.00132103
-0.000435968
-0.000152658
0.00131975
0.00372865
0.00123543
0.000224413
0.00130821
-0.000991416
-0.00031679
0.000875561
0.000591798
-0.00031395
0.00376778
-0.00493553
0.00116776
0.0030793
-0.000857784
-0.00139786
0.00190288
0.00125663
-0.00355427
0.00229764
-0.00117079
0.00145542
0.00067897
-0.00213439
0.000191905
-0.000202602
0.002198
-0.000859473
-0.00125099
0.000330614
0.000925411
-0.000348464
-0.000576947
0.00353272
-0.0022761
-0.000519207
0.00229931
-0.00178011
0.00101802
-0.00297344
0.00207692
0.000896521
0.000106602
-1.00924e-06
0.00467754
0.000547259
-0.00571012
-0.00519752
0.00392732
0.0012702
-0.0010804
-0.00269293
0.00377332
0.00222118
0.00372502
0.00282538
-0.00375388
0.000928506
-0.00146821
0.00109959
-0.000967526
0.00337996
-0.00241244
0.00149623
0.000562698
-0.0037854
-0.00240796
0.00108779
-0.00230084
0.00321762
-0.000916786
0.00343929
-0.000834804
0.000397036
-0.000821479
0.0025391
0.000900191
-0.00063593
0.0043108
-0.00130766
0.00171597
-0.000408304
0.0020068
-0.00126433
-0.000390199
0.0060768
-0.00491954
-0.000458984
0.000859284
-0.0024619
-0.00539163
-0.00172156
0.000413893
-0.000678147
0.000101761
-0.000871547
0.000211766
-0.00146713
0.000679556
0.00156356
-0.000905427
0.000135065
0.000805833
0.00251547
-0.00332131
-0.00109516
0.00187358
-0.00194649
-0.000474552
0.00196103
-0.00148648
-0.000894326
-0.0020791
-0.00195165
0.0014771
-0.00265693
0.00346276
-0.0016369
0.000590068
0.00104683
-0.00098581
0.0035746
0.00602759
-0.00231019
-0.00130152
-0.000420031
-0.00173763
0.00109557
0.000642055
0.000907003
-0.00452057
0.00361357
-0.00131131
0.000546695
0.000764612
-0.00403491
-0.00116261
0.000191709
-0.00113619
0.00193587
-0.00073164
-0.00135269
-0.00381028
0.00516297
0.000999446
7.19312e-05
0.0032972
-0.00252716
-0.00077004
0.000137267
0.00126113
0.000875602
-0.000668725
-0.000206877
-0.00134322
-0.00101883
-0.00109269
0.00513687
-0.00404418
0.000639029
-0.00249672
0.000140364
0.00127147
0.0037715
-0.00496323
0.00119173
0.00288249
-0.00204325
0.000101884
-0.000168196
6.63121e-05
0.00102984
0.000138132
0.000104293
0.00235713
0.00371028
-0.000584188
-0.000803019
0.00138721
0.000653849
0.00177046
-0.00242431
0.00240317
-0.00169722
-0.000705956
0.000475932
0.0014727
0.000426417
-0.000513228
-0.00079808
0.000599065
-0.00532379
0.000690476
-2.99009e-05
-0.00116402
-0.00132138
-0.00379521
0.00511658
0.00103153
0.0014366
-0.0018952
0.00254649
-0.000394835
-0.00490877
0.00530361
0.000120584
-1.86995e-05
0.000670023
0.00126584
0.00272616
0.000948514
-0.00367467
0.00137459
0.000471872
0.00258722
-0.0036403
0.00454731
0.00277337
0.000844346
-0.00361771
0.00162039
-0.000826296
-0.000794096
0.0013274
-0.00101771
-0.00030969
0.000424485
0.00106108
-0.00470139
0.000218354
-6.79452e-06
0.000198699
0.00605083
-0.00127775
0.00152522
-0.00212834
0.00252967
-0.00181828
-0.000711392
0.000870748
-0.00254355
0.00167281
0.00523439
-0.00281418
-0.000928808
-0.00157987
0.00501218
0.00148634
-0.00178137
0.00029503
0.000499351
-0.000103655
-0.000395696
-0.000999842
-0.00313855
0.0041384
0.0007432
0.00181841
-0.00256161
0.00176753
-0.000281191
0.00224562
0.00140362
-0.000856927
-0.00093741