/*--------------------------------*- C++ -*----------------------------------*\
  =========                 |
  \\      /  F ield         | OpenFOAM: The Open Source CFD Toolbox
   \\    /   O peration     | Website:  https://openfoam.org
    \\  /    A nd           | Version:  7
     \\/     M anipulation  |
\*---------------------------------------------------------------------------*/
FoamFile
{
    version     2.0;
    format      ascii;
    class       volVectorField;
    location    "6";
    object      U;
}
// * * * * * * * * * * * * * * * * * * * * * * * * * * * * * * * * * * * * * //

dimensions      [0 1 -1 0 0 0 0];

internalField   nonuniform List<vector> 
2413
(
(1.4 -4.94491e-16 0)
(1.4 -6.09827e-16 0)
(1.4 -7.70445e-16 0)
(1.4 -1.16298e-15 0)
(1.4 -1.27195e-15 0)
(1.4 -1.34105e-15 0)
(1.4 -1.48488e-15 0)
(1.4 -1.5137e-15 0)
(1.4 -1.4114e-15 0)
(1.4 -1.43266e-15 0)
(1.4 -1.4625e-15 0)
(1.4 -1.45605e-15 0)
(1.4 -1.3384e-15 0)
(1.4 -1.15636e-15 0)
(1.4 -1.03792e-15 0)
(1.4 -8.66757e-16 0)
(1.4 -6.24127e-16 0)
(1.4 -5.6556e-16 0)
(1.4 -6.03232e-16 0)
(1.4 -5.76508e-16 0)
(1.4 -7.37088e-16 0)
(1.4 -7.77632e-16 0)
(1.4 -9.63907e-16 0)
(1.4 -9.90005e-16 0)
(1.4 -9.81668e-16 0)
(1.4 -7.89991e-16 0)
(1.4 -3.78645e-16 0)
(1.4 -3.96238e-16 0)
(1.4 -4.55436e-16 0)
(1.4 -5.31312e-16 0)
(1.4 -5.60144e-16 0)
(1.4 -5.70669e-16 0)
(1.4 -6.81388e-16 0)
(1.4 -7.26036e-16 0)
(1.4 -2.49365e-16 0)
(1.4 1.23344e-16 0)
(1.4 2.07611e-16 0)
(1.4 1.83924e-16 0)
(1.4 1.26002e-16 0)
(1.4 4.93195e-17 0)
(1.4 -8.7822e-17 0)
(1.4 -2.33271e-16 0)
(1.4 -4.92346e-16 0)
(1.4 -6.08046e-16 0)
(1.4 -6.84105e-16 0)
(1.4 -6.68588e-16 0)
(1.4 -7.29958e-16 0)
(1.4 -5.86371e-16 0)
(1.4 -5.15589e-16 0)
(1.4 -3.20308e-16 0)
(1.4 -2.7461e-16 0)
(1.4 -2.95544e-16 0)
(1.4 -4.33183e-16 0)
(1.4 -5.95847e-16 0)
(1.4 -8.75351e-16 0)
(1.4 -1.00611e-15 0)
(1.4 -1.10111e-15 0)
(1.4 -1.05031e-15 0)
(1.4 -1.20479e-15 0)
(1.4 -1.46378e-15 0)
(1.4 -1.45839e-15 0)
(1.4 -1.35244e-15 0)
(1.4 -1.17412e-15 0)
(1.4 -1.111e-15 0)
(1.4 -1.13504e-15 0)
(1.4 -6.13302e-16 0)
(1.4 -2.55987e-16 0)
(1.4 3.41584e-16 0)
(1.4 4.8522e-16 0)
(1.4 3.58907e-16 0)
(1.4 1.95519e-16 0)
(1.4 1.95395e-16 0)
(1.4 1.76311e-16 0)
(1.4 2.0693e-16 0)
(1.4 3.07463e-16 0)
(1.4 2.72212e-16 0)
(1.4 9.77819e-17 0)
(1.4 4.19978e-17 0)
(1.4 1.6392e-16 0)
(1.4 3.14031e-16 0)
(1.4 3.58696e-16 0)
(1.4 2.81751e-16 0)
(1.4 2.90817e-16 0)
(1.4 3.8476e-16 0)
(1.4 6.08517e-16 0)
(1.4 8.26523e-16 0)
(1.4 1.17829e-15 0)
(1.4 1.51967e-15 0)
(1.4 1.55059e-15 0)
(1.4 1.491e-15 0)
(1.4 1.02098e-15 0)
(1.4 7.31914e-16 0)
(1.4 6.59175e-16 0)
(1.4 6.72522e-16 0)
(1.4 6.35007e-16 0)
(1.4 5.73828e-16 0)
(1.4 4.28216e-16 0)
(1.4 2.16569e-16 0)
(1.4 2.42805e-17 0)
(1.4 -1.64661e-16 0)
(1.4 -1.87267e-16 0)
(1.4 -3.48348e-16 0)
(1.4 -5.20366e-16 0)
(1.4 -8.71334e-16 0)
(1.4 -1.13377e-15 0)
(1.4 -1.36869e-15 0)
(1.4 -1.45048e-15 0)
(1.4 -1.45694e-15 0)
(1.4 -1.56086e-15 0)
(1.4 -1.59038e-15 0)
(1.4 -1.50582e-15 0)
(1.4 -1.5438e-15 0)
(1.4 -1.47748e-15 0)
(1.4 -1.62628e-15 0)
(1.4 -1.82914e-15 0)
(1.4 -1.68845e-15 0)
(1.4 -1.61873e-15 0)
(1.4 -1.54635e-15 0)
(1.4 -1.33928e-15 0)
(1.4 -1.31248e-15 0)
(1.4 -1.98208e-15 0)
(1.4 -2.79721e-15 0)
(1.4 -3.01027e-15 0)
(1.4 -2.75859e-15 0)
(1.4 -2.5728e-15 0)
(1.4 -2.48852e-15 0)
(1.4 -2.48403e-15 0)
(1.4 -2.47664e-15 0)
(1.4 -2.47508e-15 0)
(1.4 -2.49876e-15 0)
(1.4 -2.51754e-15 0)
(1.4 -2.47024e-15 0)
(1.4 -2.4864e-15 0)
(1.4 -2.42684e-15 0)
(1.4 -2.32842e-15 0)
(1.4 -2.22034e-15 0)
(1.4 -2.15163e-15 0)
(1.4 -1.85843e-15 0)
(1.4 -1.65436e-15 0)
(1.4 -1.54072e-15 0)
(1.4 -1.45578e-15 0)
(1.4 -1.32604e-15 0)
(1.4 -1.31038e-15 0)
(1.4 -1.38733e-15 0)
(1.4 -1.04424e-15 0)
(1.4 -6.21597e-16 0)
(1.4 -2.29719e-16 0)
(1.4 8.66613e-17 0)
(1.4 -2.5815e-18 0)
(1.4 -3.41114e-17 0)
(1.4 -3.84018e-16 0)
(1.4 -6.18652e-16 0)
(1.4 -4.55835e-16 0)
(1.4 -4.78774e-16 0)
(1.4 -6.0609e-16 0)
(1.4 -5.41937e-16 0)
(1.4 -1.86175e-16 0)
(1.4 -1.31777e-16 0)
(1.4 -3.14523e-16 0)
(1.4 -4.32169e-16 0)
(1.4 -3.90245e-16 0)
(1.4 -5.37872e-16 0)
(1.4 -6.05886e-16 0)
(1.4 -7.41955e-16 0)
(1.4 -8.8203e-16 0)
(1.4 -1.03208e-15 0)
(1.4 -1.08098e-15 0)
(1.4 -1.1789e-15 0)
(1.4 -1.0255e-15 0)
(1.4 -8.60403e-16 0)
(1.4 -7.30077e-16 0)
(1.4 -7.01059e-16 0)
(1.4 -7.43131e-16 0)
(1.4 -8.93445e-16 0)
(1.4 -8.62562e-16 0)
(1.4 -8.37576e-16 0)
(1.4 -8.69048e-16 0)
(1.4 -8.38464e-16 0)
(1.4 -8.06698e-16 0)
(1.4 -1.09468e-15 0)
(1.4 -1.28522e-15 0)
(1.4 -1.19455e-15 0)
(1.4 -1.10837e-15 0)
(1.4 -9.31497e-16 0)
(1.4 -8.30205e-16 0)
(1.4 -9.02989e-16 0)
(1.4 -2.06365e-16 0)
(1.4 3.34715e-16 0)
(1.4 8.40273e-16 0)
(1.4 8.66386e-16 0)
(1.4 7.32282e-16 0)
(1.4 5.67174e-16 0)
(1.4 3.06701e-16 0)
(1.4 1.01401e-16 0)
(1.4 -1.06303e-16 0)
(1.4 -3.77342e-17 0)
(1.4 -9.42038e-18 0)
(1.4 1.23191e-16 0)
(1.4 1.8216e-16 0)
(1.4 2.54124e-16 0)
(1.4 4.30425e-16 0)
(1.4 4.50157e-16 0)
(1.4 6.41478e-16 0)
(1.4 7.88293e-16 0)
(1.4 8.2979e-16 0)
(1.4 9.43463e-16 0)
(1.4 1.07478e-15 0)
(1.4 1.36015e-15 0)
(1.4 1.62608e-15 0)
(1.4 1.65126e-15 0)
(1.4 1.40565e-15 0)
(1.4 1.21526e-15 0)
(1.4 9.09278e-16 0)
(1.4 7.17507e-16 0)
(1.4 7.12126e-16 0)
(1.4 2.35735e-16 0)
(1.4 -5.38561e-17 0)
(1.4 -4.88053e-16 0)
(1.4 -1.30601e-15 0)
(1.4 -1.80625e-15 0)
(1.4 -2.24188e-15 0)
(1.4 -2.85048e-15 0)
(1.4 -3.08944e-15 0)
(1.4 -3.16871e-15 0)
(1.4 -3.45498e-15 0)
(1.4 -3.51201e-15 0)
(1.4 -3.52771e-15 0)
(1.4 -3.62008e-15 0)
(1.4 -3.67751e-15 0)
(1.4 -3.75069e-15 0)
(1.4 -4.2347e-15 0)
(1.4 -4.21354e-15 0)
(1.4 -4.43581e-15 0)
(1.4 -4.539e-15 0)
(1.4 -4.52929e-15 0)
(1.4 -4.56133e-15 0)
(1.4 -4.44805e-15 0)
(1.4 -4.36621e-15 0)
(1.4 -4.09847e-15 0)
(1.4 -3.9581e-15 0)
(1.4 -3.38967e-15 0)
(1.4 -3.91021e-15 0)
(1.4 -1.24615e-15 0)
(1.4 -9.26582e-16 0)
(1.4 -7.78198e-16 0)
(1.4 -6.86714e-16 0)
(1.4 -7.55521e-16 0)
(1.4 -9.35518e-16 0)
(1.4 -1.00757e-15 0)
(1.4 -1.01578e-15 0)
(1.4 -1.00306e-15 0)
(1.4 -1.04476e-15 0)
(1.4 -1.40479e-15 0)
(1.4 -1.43468e-15 0)
(1.4 -1.77232e-15 0)
(1.4 -2.03663e-15 0)
(1.4 -2.68817e-15 0)
(1.4 -3.00568e-15 0)
(1.4 -3.01335e-15 0)
(1.4 -2.67857e-15 0)
(1.4 -2.50995e-15 0)
(1.4 -2.45514e-15 0)
(1.4 -2.14816e-15 0)
(1.4 -1.28697e-15 0)
(1.4 -9.98924e-16 0)
(1.4 -7.02475e-16 0)
(1.4 -6.90344e-16 0)
(1.4 -5.68642e-16 0)
(1.4 -2.94613e-16 0)
(1.4 -3.16216e-16 0)
(1.4 -3.81015e-16 0)
(1.4 -4.42726e-16 0)
(1.4 -5.91542e-16 0)
(1.4 -6.89532e-16 0)
(1.4 -7.59156e-16 0)
(1.4 -7.62969e-16 0)
(1.4 -8.67865e-16 0)
(1.4 -9.40482e-16 0)
(1.4 -9.59874e-16 0)
(1.4 -1.00005e-15 0)
(1.4 -7.16914e-16 0)
(1.4 -4.27937e-16 0)
(1.4 -2.24177e-16 0)
(1.4 -2.55851e-16 0)
(1.4 -4.02117e-16 0)
(1.4 -5.19312e-16 0)
(1.4 -4.76561e-16 0)
(1.4 -3.9051e-16 0)
(1.4 -4.24248e-16 0)
(1.4 -5.87004e-16 0)
(1.4 -8.28766e-16 0)
(1.4 -1.14149e-15 0)
(1.4 -1.32365e-15 0)
(1.4 -1.48732e-15 0)
(1.4 -1.49709e-15 0)
(1.4 -1.43553e-15 0)
(1.4 -1.86919e-15 0)
(1.4 -1.69018e-15 0)
(1.4 -1.43048e-15 0)
(1.4 -1.35648e-15 0)
(1.4 -1.28531e-15 0)
(1.4 -5.03418e-16 0)
(1.4 -1.72945e-16 0)
(1.4 -7.27702e-17 0)
(1.4 4.31653e-16 0)
(1.4 5.15077e-16 0)
(1.4 5.73798e-16 0)
(1.4 5.77124e-16 0)
(1.4 4.53021e-16 0)
(1.4 1.2674e-16 0)
(1.4 7.3409e-18 0)
(1.4 -1.07431e-16 0)
(1.4 -2.36036e-16 0)
(1.4 -2.98933e-16 0)
(1.4 -4.03284e-16 0)
(1.4 -6.50997e-16 0)
(1.4 -7.52225e-16 0)
(1.4 -7.89524e-16 0)
(1.4 -8.39522e-16 0)
(1.4 -7.57207e-16 0)
(1.4 -8.32784e-16 0)
(1.4 -9.98338e-16 0)
(1.4 -1.03925e-15 0)
(1.4 -9.23316e-16 0)
(1.4 -8.90753e-16 0)
(1.4 -7.29976e-16 0)
(1.4 -5.5397e-16 0)
(1.4 9.15288e-17 0)
(1.4 2.19775e-16 0)
(1.4 3.35529e-16 0)
(1.4 2.22611e-16 0)
(1.4 4.11413e-17 0)
(1.4 -2.89056e-16 0)
(1.4 -5.05698e-16 0)
(1.4 -5.35164e-16 0)
(1.4 -8.02837e-16 0)
(1.4 -1.11405e-15 0)
(1.4 -1.16529e-15 0)
(1.4 -1.35952e-15 0)
(1.4 -1.4859e-15 0)
(1.4 -2.14115e-15 0)
(1.4 -3.17544e-15 0)
(1.4 -4.02217e-15 0)
(1.4 -4.7508e-15 0)
(1.4 -4.74052e-15 0)
(1.4 -4.7008e-15 0)
(1.4 -4.8933e-15 0)
(1.4 -5.03894e-15 0)
(1.4 -4.95925e-15 0)
(1.4 -4.64765e-15 0)
(1.4 -4.47272e-15 0)
(1.4 -4.92937e-15 0)
(1.4 -5.0074e-15 0)
(1.4 -4.86567e-15 0)
(1.4 -4.71138e-15 0)
(1.4 -4.73503e-15 0)
(1.4 -4.89835e-15 0)
(1.4 -4.82002e-15 0)
(1.4 -4.26401e-15 0)
(1.4 -3.99772e-15 0)
(1.4 -4.11661e-15 0)
(1.4 -3.51774e-15 0)
(1.4 -3.04939e-15 0)
(1.4 -4.78402e-16 0)
(1.4 -4.9945e-16 0)
(1.4 -5.38166e-16 0)
(1.4 -6.50704e-16 0)
(1.4 -5.44622e-16 0)
(1.4 -1.49012e-16 0)
(1.4 -5.60165e-19 0)
(1.4 2.65711e-16 0)
(1.4 4.65836e-16 0)
(1.4 4.15773e-16 0)
(1.4 1.41563e-16 0)
(1.4 -1.86992e-16 0)
(1.4 -3.38797e-16 0)
(1.4 -6.45199e-16 0)
(1.4 -1.01754e-15 0)
(1.4 -1.45183e-15 0)
(1.4 -1.65608e-15 0)
(1.4 -2.04232e-15 0)
(1.4 -2.00415e-15 0)
(1.4 -1.96839e-15 0)
(1.4 -1.9156e-15 0)
(1.4 -1.82303e-15 0)
(1.4 -1.74205e-15 0)
(1.4 -1.72845e-15 0)
(1.4 -1.8544e-15 0)
(1.4 -1.68781e-15 0)
(1.4 -1.71303e-15 0)
(1.4 -1.67929e-15 0)
(1.4 -1.62444e-15 0)
(1.4 -1.29354e-15 0)
(1.4 -7.96812e-16 0)
(1.4 -6.38991e-16 0)
(1.4 -3.71129e-16 0)
(1.4 -5.72624e-16 0)
(1.4 -6.53444e-16 0)
(1.4 -4.1351e-16 0)
(1.4 -2.95962e-16 0)
(1.4 -1.8577e-16 0)
(1.4 -1.1913e-17 0)
(1.4 -2.13314e-17 0)
(1.4 1.07169e-16 0)
(1.4 2.3602e-17 0)
(1.4 -2.54936e-17 0)
(1.4 -1.58406e-16 0)
(1.4 -3.16909e-18 0)
(1.4 8.81974e-17 0)
(1.4 -1.47028e-16 0)
(1.4 -5.06762e-16 0)
(1.4 -7.16116e-16 0)
(1.4 -8.72264e-16 0)
(1.4 -1.39398e-15 0)
(1.4 -1.55999e-15 0)
(1.4 -1.80664e-15 0)
(1.4 -2.06171e-15 0)
(1.4 -2.04201e-15 0)
(1.4 -2.02584e-15 0)
(1.4 -1.88997e-15 0)
(1.4 -1.93752e-15 0)
(1.4 -1.60121e-15 0)
(1.4 -1.25418e-15 0)
(1.4 -7.68225e-16 0)
(1.4 -4.10216e-16 0)
(1.4 -9.33751e-17 0)
(1.4 5.21608e-16 0)
(1.4 5.24967e-16 0)
(1.4 2.21266e-16 0)
(1.4 -1.44543e-16 0)
(1.4 -4.98176e-16 0)
(1.4 -6.85348e-16 0)
(1.4 -7.27323e-16 0)
(1.4 -6.36684e-16 0)
(1.4 -6.90796e-16 0)
(1.4 -8.51858e-16 0)
(1.4 -7.78497e-16 0)
(1.4 -7.98557e-16 0)
(1.4 -8.40126e-16 0)
(1.4 -1.01607e-15 0)
(1.4 -1.32173e-15 0)
(1.4 -1.47189e-15 0)
(1.4 -1.59149e-15 0)
(1.4 -1.69152e-15 0)
(1.4 -1.82586e-15 0)
(1.4 -1.94818e-15 0)
(1.4 -1.57195e-15 0)
(1.4 -1.4684e-15 0)
(1.4 -1.12965e-15 0)
(1.4 -1.22969e-15 0)
(1.4 -1.57695e-15 0)
(1.4 -1.77891e-15 0)
(1.4 -1.75829e-15 0)
(1.4 -1.89802e-15 0)
(1.4 -1.75075e-15 0)
(1.4 -1.78667e-15 0)
(1.4 -2.12374e-15 0)
(1.4 -2.32532e-15 0)
(1.4 -2.35993e-15 0)
(1.4 -2.32806e-15 0)
(1.4 -3.11561e-15 0)
(1.4 -3.22547e-15 0)
(1.4 -3.76548e-15 0)
(1.4 -3.98616e-15 0)
(1.4 -4.30952e-15 0)
(1.4 -4.48348e-15 0)
(1.4 -4.63973e-15 0)
(1.4 -4.88298e-15 0)
(1.4 -4.99534e-15 0)
(1.4 -4.96509e-15 0)
(1.4 -4.93905e-15 0)
(1.4 -4.91488e-15 0)
(1.4 -4.54447e-15 0)
(1.4 -4.3471e-15 0)
(1.4 -4.29518e-15 0)
(1.4 -4.20775e-15 0)
(1.4 -4.04204e-15 0)
(1.4 -3.89547e-15 0)
(1.4 -3.78535e-15 0)
(1.4 -3.26713e-15 0)
(1.4 -2.57154e-15 0)
(1.4 -2.08973e-15 0)
(1.4 -1.71745e-15 0)
(1.4 -1.67061e-15 0)
(1.4 3.01169e-18 0)
(1.4 7.133e-17 0)
(1.4 2.55432e-16 0)
(1.4 1.77145e-16 0)
(1.4 -9.33775e-17 0)
(1.4 -1.87318e-16 0)
(1.4 -2.22288e-16 0)
(1.4 -4.95332e-16 0)
(1.4 -4.34337e-16 0)
(1.4 -4.17725e-16 0)
(1.4 -5.3143e-16 0)
(1.4 -5.55076e-16 0)
(1.4 -4.89448e-16 0)
(1.4 -4.65305e-17 0)
(1.4 2.4809e-16 0)
(1.4 2.2754e-16 0)
(1.4 1.80698e-17 0)
(1.4 -2.54039e-16 0)
(1.4 -6.04354e-16 0)
(1.4 -1.27906e-15 0)
(1.4 -1.67416e-15 0)
(1.4 -1.83876e-15 0)
(1.4 -1.73542e-15 0)
(1.4 -1.05236e-15 0)
(1.4 -8.36053e-16 0)
(1.4 -7.41599e-16 0)
(1.4 -3.29696e-16 0)
(1.4 -9.99804e-17 0)
(1.4 3.3013e-16 0)
(1.4 5.57636e-16 0)
(1.4 8.12324e-16 0)
(1.4 8.75256e-16 0)
(1.4 8.80559e-16 0)
(1.4 9.05465e-16 0)
(1.4 1.015e-15 0)
(1.4 9.8829e-16 0)
(1.4 8.39376e-16 0)
(1.4 4.14825e-16 0)
(1.4 3.33798e-17 0)
(1.4 -5.75763e-16 0)
(1.4 -1.09922e-15 0)
(1.4 -1.49501e-15 0)
(1.4 -1.74283e-15 0)
(1.4 -1.87626e-15 0)
(1.4 -1.91671e-15 0)
(1.4 -1.9713e-15 0)
(1.4 -1.96922e-15 0)
(1.4 -1.94505e-15 0)
(1.4 -1.83004e-15 0)
(1.4 -1.68412e-15 0)
(1.4 -1.25071e-15 0)
(1.4 -1.28235e-15 0)
(1.4 -1.32368e-15 0)
(1.4 -1.43022e-15 0)
(1.4 -1.45122e-15 0)
(1.4 -1.37649e-15 0)
(1.4 -1.28692e-15 0)
(1.4 -9.49508e-16 0)
(1.4 -7.22709e-16 0)
(1.4 -2.22696e-16 0)
(1.4 1.5769e-16 0)
(1.4 9.13657e-17 0)
(1.4 9.01192e-17 0)
(1.4 1.06759e-16 0)
(1.4 -2.07169e-16 0)
(1.4 -4.53486e-16 0)
(1.4 -5.08795e-16 0)
(1.4 -5.79863e-16 0)
(1.4 -6.9854e-16 0)
(1.4 -8.34193e-16 0)
(1.4 -8.38592e-16 0)
(1.4 -7.51522e-16 0)
(1.4 -6.49334e-16 0)
(1.4 -6.60092e-16 0)
(1.4 -6.80674e-16 0)
(1.4 -6.83285e-16 0)
(1.4 -8.12244e-16 0)
(1.4 -1.05778e-15 0)
(1.4 -1.25311e-15 0)
(1.4 -1.40142e-15 0)
(1.4 -1.52496e-15 0)
(1.4 -1.63839e-15 0)
(1.4 -1.93255e-15 0)
(1.4 -1.87435e-15 0)
(1.4 -1.78077e-15 0)
(1.4 -1.90132e-15 0)
(1.4 -1.97201e-15 0)
(1.4 -2.23582e-15 0)
(1.4 -2.37814e-15 0)
(1.4 -2.41808e-15 0)
(1.4 -2.46543e-15 0)
(1.4 -2.77744e-15 0)
(1.4 -3.34681e-15 0)
(1.4 -3.73396e-15 0)
(1.4 -4.24125e-15 0)
(1.4 -4.58744e-15 0)
(1.4 -4.75646e-15 0)
(1.4 -4.74714e-15 0)
(1.4 -4.72061e-15 0)
(1.4 -4.79739e-15 0)
(1.4 -5.05005e-15 0)
(1.4 -5.11007e-15 0)
(1.4 -5.13846e-15 0)
(1.4 -5.27037e-15 0)
(1.4 -5.45917e-15 0)
(1.4 -5.52121e-15 0)
(1.4 -5.5652e-15 0)
(1.4 -4.92863e-15 0)
(1.4 -4.48147e-15 0)
(1.4 -4.37628e-15 0)
(1.4 -4.34654e-15 0)
(1.4 -4.363e-15 0)
(1.4 -4.42253e-15 0)
(1.4 -4.34308e-15 0)
(1.4 -4.16805e-15 0)
(1.4 -4.05572e-15 0)
(1.4 -3.23114e-15 0)
(1.4 -2.40216e-15 0)
(1.4 -1.97865e-15 0)
(1.4 -1.86578e-15 0)
(1.4 4.30628e-16 0)
(1.4 6.63394e-16 0)
(1.4 6.12067e-16 0)
(1.4 5.00743e-16 0)
(1.4 1.28602e-16 0)
(1.4 -3.22688e-17 0)
(1.4 -3.9754e-17 0)
(1.4 -1.16136e-17 0)
(1.4 4.6447e-17 0)
(1.4 2.26377e-16 0)
(1.4 3.31627e-16 0)
(1.4 5.47709e-16 0)
(1.4 7.98502e-16 0)
(1.4 1.50024e-15 0)
(1.4 1.95818e-15 0)
(1.4 2.06995e-15 0)
(1.4 2.13383e-15 0)
(1.4 2.14348e-15 0)
(1.4 2.24626e-15 0)
(1.4 2.30084e-15 0)
(1.4 2.2321e-15 0)
(1.4 1.96286e-15 0)
(1.4 1.65484e-15 0)
(1.4 1.48087e-15 0)
(1.4 1.28497e-15 0)
(1.4 1.1389e-15 0)
(1.4 1.20418e-15 0)
(1.4 1.02375e-15 0)
(1.4 9.05388e-16 0)
(1.4 1.1164e-15 0)
(1.4 1.49632e-15 0)
(1.4 1.44652e-15 0)
(1.4 1.38193e-15 0)
(1.4 1.39121e-15 0)
(1.4 1.15817e-15 0)
(1.4 6.56274e-16 0)
(1.4 3.4965e-16 0)
(1.4 -1.649e-16 0)
(1.4 -6.41078e-16 0)
(1.4 -8.07008e-16 0)
(1.4 -1.05099e-15 0)
(1.4 -1.09365e-15 0)
(1.4 -1.29876e-15 0)
(1.4 -1.47775e-15 0)
(1.4 -1.99368e-15 0)
(1.4 -2.41986e-15 0)
(1.4 -2.50825e-15 0)
(1.4 -2.53161e-15 0)
(1.4 -2.47778e-15 0)
(1.4 -2.21549e-15 0)
(1.4 -1.70734e-15 0)
(1.4 -1.36371e-15 0)
(1.4 -9.79485e-16 0)
(1.4 -4.86997e-16 0)
(1.4 -3.06367e-16 0)
(1.4 -8.4656e-17 0)
(1.4 3.73278e-16 0)
(1.4 6.59123e-16 0)
(1.4 5.87176e-16 0)
(1.4 4.68091e-16 0)
(1.4 8.18317e-16 0)
(1.4 6.06742e-16 0)
(1.4 2.75327e-16 0)
(1.4 1.89027e-16 0)
(1.4 -5.31412e-18 0)
(1.4 -3.64489e-17 0)
(1.4 -1.27352e-16 0)
(1.4 -1.9724e-16 0)
(1.4 -2.92067e-16 0)
(1.4 -4.63189e-16 0)
(1.4 -2.98947e-16 0)
(1.4 -1.32784e-16 0)
(1.4 -2.04726e-16 0)
(1.4 -3.1559e-16 0)
(1.4 -6.57337e-16 0)
(1.4 -8.18632e-16 0)
(1.4 -9.43202e-16 0)
(1.4 -1.30525e-15 0)
(1.4 -1.64773e-15 0)
(1.4 -2.23365e-15 0)
(1.4 -2.55405e-15 0)
(1.4 -2.72294e-15 0)
(1.4 -2.97944e-15 0)
(1.4 -3.26226e-15 0)
(1.4 -3.42991e-15 0)
(1.4 -3.54722e-15 0)
(1.4 -3.63529e-15 0)
(1.4 -3.75548e-15 0)
(1.4 -3.73158e-15 0)
(1.4 -3.73986e-15 0)
(1.4 -3.84091e-15 0)
(1.4 -4.00705e-15 0)
(1.4 -4.01218e-15 0)
(1.4 -4.0144e-15 0)
(1.4 -4.08056e-15 0)
(1.4 -4.11854e-15 0)
(1.4 -4.25613e-15 0)
(1.4 -4.36449e-15 0)
(1.4 -4.48074e-15 0)
(1.4 -4.57551e-15 0)
(1.4 -4.68271e-15 0)
(1.4 -4.83502e-15 0)
(1.4 -4.92354e-15 0)
(1.4 -4.72765e-15 0)
(1.4 -4.71413e-15 0)
(1.4 -4.30716e-15 0)
(1.4 -3.89071e-15 0)
(1.4 -3.23621e-15 0)
(1.4 -3.17084e-15 0)
(1.4 -3.03378e-15 0)
(1.4 -2.86775e-15 0)
(1.4 -2.82649e-15 0)
(1.4 -2.84418e-15 0)
(1.4 -2.88454e-15 0)
(1.4 -2.83863e-15 0)
(1.4 -2.74649e-15 0)
(1.4 -2.83209e-15 0)
(1.4 -2.83052e-15 0)
(1.4 -2.33701e-15 0)
(1.4 -1.83004e-15 0)
(1.4 6.58823e-16 0)
(1.4 6.85245e-16 0)
(1.4 5.55399e-16 0)
(1.4 6.77716e-16 0)
(1.4 1.0879e-15 0)
(1.4 1.23686e-15 0)
(1.4 1.37344e-15 0)
(1.4 1.63416e-15 0)
(1.4 1.7212e-15 0)
(1.4 1.74381e-15 0)
(1.4 1.89604e-15 0)
(1.4 1.99103e-15 0)
(1.4 2.17311e-15 0)
(1.4 2.26115e-15 0)
(1.4 2.67737e-15 0)
(1.4 2.90858e-15 0)
(1.4 3.12091e-15 0)
(1.4 3.21904e-15 0)
(1.4 3.28855e-15 0)
(1.4 3.25847e-15 0)
(1.4 3.20508e-15 0)
(1.4 3.06651e-15 0)
(1.4 2.94551e-15 0)
(1.4 2.63679e-15 0)
(1.4 2.30989e-15 0)
(1.4 2.01372e-15 0)
(1.4 1.69219e-15 0)
(1.4 1.55507e-15 0)
(1.4 1.54321e-15 0)
(1.4 1.4746e-15 0)
(1.4 1.33354e-15 0)
(1.4 1.26298e-15 0)
(1.4 7.69233e-17 0)
(1.4 -5.72941e-16 0)
(1.4 -7.9263e-16 0)
(1.4 -1.16412e-15 0)
(1.4 -1.1668e-15 0)
(1.4 -1.00463e-15 0)
(1.4 -9.86626e-16 0)
(1.4 -8.24462e-16 0)
(1.4 -7.25804e-16 0)
(1.4 -8.01453e-16 0)
(1.4 -7.31346e-16 0)
(1.4 -4.75003e-16 0)
(1.4 -3.58557e-16 0)
(1.4 -3.09848e-16 0)
(1.4 -2.25465e-16 0)
(1.4 5.96683e-17 0)
(1.4 3.52483e-16 0)
(1.4 4.46658e-16 0)
(1.4 4.48099e-16 0)
(1.4 5.20853e-16 0)
(1.4 6.99301e-16 0)
(1.4 9.5948e-16 0)
(1.4 1.15378e-15 0)
(1.4 1.23324e-15 0)
(1.4 1.07427e-15 0)
(1.4 1.36323e-15 0)
(1.4 1.60422e-15 0)
(1.4 1.02155e-15 0)
(1.4 4.61707e-16 0)
(1.4 4.62202e-16 0)
(1.4 6.02281e-16 0)
(1.4 5.27938e-16 0)
(1.4 5.50362e-16 0)
(1.4 5.07277e-16 0)
(1.4 5.17034e-16 0)
(1.4 2.53423e-16 0)
(1.4 1.91281e-16 0)
(1.4 2.28869e-16 0)
(1.4 1.20146e-16 0)
(1.4 -6.13663e-17 0)
(1.4 -2.5094e-16 0)
(1.4 -5.06822e-16 0)
(1.4 -8.34728e-16 0)
(1.4 -9.99999e-16 0)
(1.4 -1.19518e-15 0)
(1.4 -1.5307e-15 0)
(1.4 -1.65729e-15 0)
(1.4 -1.7711e-15 0)
(1.4 -1.90909e-15 0)
(1.4 -2.40089e-15 0)
(1.4 -3.19847e-15 0)
(1.4 -4.2578e-15 0)
(1.4 -4.3011e-15 0)
(1.4 -4.53946e-15 0)
(1.4 -4.46005e-15 0)
(1.4 -4.50377e-15 0)
(1.4 -4.40804e-15 0)
(1.4 -4.25674e-15 0)
(1.4 -4.094e-15 0)
(1.4 -4.0853e-15 0)
(1.4 -3.90999e-15 0)
(1.4 -3.62987e-15 0)
(1.4 -3.61996e-15 0)
(1.4 -3.60907e-15 0)
(1.4 -3.64449e-15 0)
(1.4 -3.5472e-15 0)
(1.4 -3.43635e-15 0)
(1.4 -3.38022e-15 0)
(1.4 -3.03238e-15 0)
(1.4 -3.09852e-15 0)
(1.4 -2.78064e-15 0)
(1.4 -2.49797e-15 0)
(1.4 -2.07936e-15 0)
(1.4 -2.17285e-15 0)
(1.4 -2.34137e-15 0)
(1.4 -2.50142e-15 0)
(1.4 -2.91416e-15 0)
(1.4 -3.02103e-15 0)
(1.4 -2.97223e-15 0)
(1.4 -2.8481e-15 0)
(1.4 -2.81378e-15 0)
(1.4 -2.88994e-15 0)
(1.4 -2.96903e-15 0)
(1.4 -2.81836e-15 0)
(1.4 -2.16909e-15 0)
(1.4 -1.90647e-15 0)
(1.4 -1.8374e-15 0)
(1.4 -1.53296e-15 0)
(1.4 1.09658e-15 0)
(1.4 9.62991e-16 0)
(1.4 9.72889e-16 0)
(1.4 1.08841e-15 0)
(1.4 1.01769e-15 0)
(1.4 6.19094e-16 0)
(1.4 5.50612e-16 0)
(1.4 5.57298e-17 0)
(1.4 -3.93438e-16 0)
(1.4 -6.05236e-16 0)
(1.4 -7.03093e-16 0)
(1.4 -6.03921e-16 0)
(1.4 -4.12994e-16 0)
(1.4 6.76493e-17 0)
(1.4 5.43512e-16 0)
(1.4 8.3908e-16 0)
(1.4 1.22259e-15 0)
(1.4 1.39431e-15 0)
(1.4 1.548e-15 0)
(1.4 1.67719e-15 0)
(1.4 1.89583e-15 0)
(1.4 2.03908e-15 0)
(1.4 2.0174e-15 0)
(1.4 1.716e-15 0)
(1.4 1.68337e-15 0)
(1.4 1.67313e-15 0)
(1.4 1.51078e-15 0)
(1.4 1.36413e-15 0)
(1.4 1.2991e-15 0)
(1.4 1.29187e-15 0)
(1.4 9.53901e-16 0)
(1.4 5.53358e-16 0)
(1.4 2.8778e-16 0)
(1.4 -1.02369e-16 0)
(1.4 -2.40202e-16 0)
(1.4 -3.4522e-16 0)
(1.4 -5.73146e-16 0)
(1.4 -7.22177e-16 0)
(1.4 -8.68413e-16 0)
(1.4 -1.13303e-15 0)
(1.4 -9.83071e-16 0)
(1.4 -8.56601e-16 0)
(1.4 -8.60085e-16 0)
(1.4 -5.74058e-16 0)
(1.4 2.38581e-16 0)
(1.4 8.7679e-16 0)
(1.4 1.02702e-15 0)
(1.4 9.47424e-16 0)
(1.4 9.42764e-16 0)
(1.4 9.31763e-16 0)
(1.4 9.94337e-16 0)
(1.4 1.06134e-15 0)
(1.4 1.15871e-15 0)
(1.4 1.43656e-15 0)
(1.4 1.62407e-15 0)
(1.4 2.1928e-15 0)
(1.4 2.11813e-15 0)
(1.4 1.85514e-15 0)
(1.4 1.60036e-15 0)
(1.4 9.93221e-16 0)
(1.4 2.23373e-16 0)
(1.4 3.71612e-17 0)
(1.4 -1.51716e-16 0)
(1.4 -2.88507e-16 0)
(1.4 -3.03666e-16 0)
(1.4 -2.08113e-16 0)
(1.4 1.04543e-16 0)
(1.4 8.79594e-17 0)
(1.4 1.09237e-16 0)
(1.4 -9.15443e-18 0)
(1.4 -4.16943e-16 0)
(1.4 -8.12534e-16 0)
(1.4 -7.40233e-16 0)
(1.4 -7.38671e-16 0)
(1.4 -7.71972e-16 0)
(1.4 -8.69062e-16 0)
(1.4 -1.06667e-15 0)
(1.4 -1.27868e-15 0)
(1.4 -1.1868e-15 0)
(1.4 -1.1111e-15 0)
(1.4 -1.02701e-15 0)
(1.4 -1.18827e-15 0)
(1.4 -1.58835e-15 0)
(1.4 -1.82829e-15 0)
(1.4 -1.85109e-15 0)
(1.4 -2.20734e-15 0)
(1.4 -2.26179e-15 0)
(1.4 -2.25818e-15 0)
(1.4 -2.19735e-15 0)
(1.4 -2.13811e-15 0)
(1.4 -2.04332e-15 0)
(1.4 -1.9902e-15 0)
(1.4 -1.90409e-15 0)
(1.4 -1.7291e-15 0)
(1.4 -1.59169e-15 0)
(1.4 -1.53106e-15 0)
(1.4 -1.3818e-15 0)
(1.4 -1.25914e-15 0)
(1.4 -1.0177e-15 0)
(1.4 -7.54281e-16 0)
(1.4 -6.85211e-16 0)
(1.4 -6.91008e-16 0)
(1.4 -5.95549e-16 0)
(1.4 -6.70787e-16 0)
(1.4 -8.19238e-16 0)
(1.4 -9.93834e-16 0)
(1.4 -1.30615e-15 0)
(1.4 -1.55214e-15 0)
(1.4 -1.90761e-15 0)
(1.4 -2.13197e-15 0)
(1.4 -2.00483e-15 0)
(1.4 -1.82964e-15 0)
(1.4 -1.39534e-15 0)
(1.4 -1.00472e-15 0)
(1.4 -5.35223e-16 0)
(1.4 -9.5835e-17 0)
(1.4 1.05716e-16 0)
(1.4 3.00398e-16 0)
(1.4 4.97534e-16 0)
(1.4 5.88088e-16 0)
(1.4 -4.4682e-17 0)
(1.4 8.98999e-17 0)
(1.4 3.02427e-16 0)
(1.4 2.44591e-16 0)
(1.4 2.35712e-16 0)
(1.4 3.6032e-16 0)
(1.4 4.3064e-16 0)
(1.4 1.01088e-16 0)
(1.4 -1.27416e-16 0)
(1.4 3.96272e-17 0)
(1.4 3.20369e-16 0)
(1.4 4.45082e-16 0)
(1.4 4.8227e-16 0)
(1.4 6.57648e-16 0)
(1.4 8.73277e-16 0)
(1.4 1.00475e-15 0)
(1.4 1.03252e-15 0)
(1.4 8.06303e-16 0)
(1.4 8.12081e-16 0)
(1.4 1.02423e-15 0)
(1.4 1.05364e-15 0)
(1.4 8.26826e-16 0)
(1.4 6.42048e-16 0)
(1.4 6.14199e-16 0)
(1.4 8.51045e-16 0)
(1.4 8.87461e-16 0)
(1.4 8.39985e-16 0)
(1.4 7.36254e-16 0)
(1.4 4.38628e-16 0)
(1.4 6.97745e-17 0)
(1.4 -1.41359e-16 0)
(1.4 -2.15168e-16 0)
(1.4 -2.06642e-16 0)
(1.4 -3.14313e-16 0)
(1.4 -4.61758e-16 0)
(1.4 -4.73795e-16 0)
(1.4 -6.46015e-16 0)
(1.4 -9.79527e-16 0)
(1.4 -1.1322e-15 0)
(1.4 -1.15657e-15 0)
(1.4 -1.19632e-15 0)
(1.4 -1.06639e-15 0)
(1.4 -1.20542e-15 0)
(1.4 -3.75456e-16 0)
(1.4 1.33218e-16 0)
(1.4 2.57457e-16 0)
(1.4 5.72285e-16 0)
(1.4 6.57608e-16 0)
(1.4 7.56891e-16 0)
(1.4 8.70542e-16 0)
(1.4 8.8421e-16 0)
(1.4 9.73466e-16 0)
(1.4 1.26397e-15 0)
(1.4 1.23277e-15 0)
(1.4 1.06588e-15 0)
(1.4 1.09235e-15 0)
(1.4 1.14959e-15 0)
(1.4 1.04303e-15 0)
(1.4 3.73644e-16 0)
(1.4 2.17529e-16 0)
(1.4 1.19087e-16 0)
(1.4 1.29318e-16 0)
(1.4 9.78768e-17 0)
(1.4 2.32422e-16 0)
(1.4 2.76648e-16 0)
(1.4 2.4424e-16 0)
(1.4 3.62028e-17 0)
(1.4 7.70596e-17 0)
(1.4 1.3879e-17 0)
(1.4 7.23373e-17 0)
(1.4 -2.9774e-16 0)
(1.4 -6.59379e-16 0)
(1.4 -9.23403e-16 0)
(1.4 -9.56466e-16 0)
(1.4 -9.00724e-16 0)
(1.4 -8.75169e-16 0)
(1.4 -7.10607e-16 0)
(1.4 -5.53807e-16 0)
(1.4 -6.63009e-16 0)
(1.4 -6.29309e-16 0)
(1.4 -6.53443e-16 0)
(1.4 -7.57148e-16 0)
(1.4 -6.60841e-16 0)
(1.4 -3.31444e-16 0)
(1.4 -1.24111e-16 0)
(1.4 -5.46353e-18 0)
(1.4 -6.83775e-17 0)
(1.4 -1.452e-16 0)
(1.4 -2.13657e-16 0)
(1.4 -7.54467e-17 0)
(1.4 8.84366e-17 0)
(1.4 1.99352e-16 0)
(1.4 3.87125e-16 0)
(1.4 2.91812e-16 0)
(1.4 3.60527e-16 0)
(1.4 3.76409e-16 0)
(1.4 2.46296e-16 0)
(1.4 2.26721e-16 0)
(1.4 4.84069e-16 0)
(1.4 7.09524e-16 0)
(1.4 5.87919e-16 0)
(1.4 3.92419e-16 0)
(1.4 1.15626e-16 0)
(1.4 -2.53143e-16 0)
(1.4 -4.04822e-16 0)
(1.4 -4.1251e-16 0)
(1.4 -2.81259e-16 0)
(1.4 -2.96811e-16 0)
(1.4 -2.84944e-16 0)
(1.4 -2.17421e-16 0)
(1.4 -2.74307e-16 0)
(1.4 3.87185e-17 0)
(1.4 3.32841e-16 0)
(1.4 8.36691e-16 0)
(1.4 9.91921e-16 0)
(1.4 1.10619e-15 0)
(1.4 1.08035e-15 0)
(1.4 1.00845e-15 0)
(1.4 9.18577e-16 0)
(1.4 7.42799e-16 0)
(1.4 1.12002e-15 0)
(1.4 9.61877e-16 0)
(1.4 6.8391e-16 0)
(1.4 5.31424e-16 0)
(1.4 4.3048e-16 0)
(1.4 3.80209e-16 0)
(1.4 3.51872e-16 0)
(1.4 2.62832e-16 0)
(1.4 2.48955e-16 0)
(1.4 5.05121e-16 0)
(1.4 6.82593e-16 0)
(1.4 6.65204e-16 0)
(1.4 5.90401e-16 0)
(1.4 5.92002e-16 0)
(1.4 4.70235e-16 0)
(1.4 3.6524e-16 0)
(1.4 3.40603e-16 0)
(1.4 3.18905e-16 0)
(1.4 3.13869e-16 0)
(1.4 3.137e-16 0)
(1.4 2.96998e-16 0)
(1.4 1.11953e-16 0)
(1.4 -5.34905e-17 0)
(1.4 2.11067e-18 0)
(1.4 1.31622e-16 0)
(1.4 -9.31177e-17 0)
(1.4 -2.833e-16 0)
(1.4 -6.38448e-16 0)
(1.4 -8.45828e-16 0)
(1.4 -9.86061e-16 0)
(1.4 -1.30354e-15 0)
(1.4 -1.38265e-15 0)
(1.4 -1.33032e-15 0)
(1.4 -1.24712e-15 0)
(1.4 -1.13067e-15 0)
(1.4 -1.04042e-15 0)
(1.4 -9.06825e-16 0)
(1.4 -7.40958e-16 0)
(1.4 -6.90753e-16 0)
(1.4 -3.13415e-16 0)
(1.4 -3.49816e-16 0)
(1.4 -7.78257e-16 0)
(1.4 -8.24206e-16 0)
(1.4 -6.92166e-16 0)
(1.4 -5.54598e-16 0)
(1.4 -4.18595e-16 0)
(1.4 -4.15782e-16 0)
(1.4 -3.64137e-16 0)
(1.4 -3.64767e-16 0)
(1.4 -4.01011e-16 0)
(1.4 -3.73836e-16 0)
(1.4 -3.71005e-16 0)
(1.4 -6.53627e-16 0)
(1.4 -7.24363e-16 0)
(1.4 -8.46969e-16 0)
(1.4 -1.11034e-15 0)
(1.4 -1.06467e-15 0)
(1.4 -9.91065e-16 0)
(1.4 -9.21296e-16 0)
(1.4 -8.82801e-16 0)
(1.4 -8.01661e-16 0)
(1.4 -5.81094e-16 0)
(1.4 -3.57213e-16 0)
(1.4 -2.98102e-16 0)
(1.4 -4.41148e-16 0)
(1.4 -5.50387e-16 0)
(1.4 -8.24608e-16 0)
(1.4 -8.40424e-16 0)
(1.4 -8.93924e-16 0)
(1.4 -7.39014e-16 0)
(1.4 -7.84232e-16 0)
(1.4 -9.43144e-16 0)
(1.4 -1.16846e-15 0)
(1.4 -1.12108e-15 0)
(1.4 -1.078e-15 0)
(1.4 -8.46953e-16 0)
(1.4 -8.37764e-16 0)
(1.4 -6.93052e-16 0)
(1.4 -7.14148e-16 0)
(1.4 -4.66642e-16 0)
(1.4 7.94984e-18 0)
(1.4 6.14976e-16 0)
(1.4 8.12013e-16 0)
(1.4 1.23307e-15 0)
(1.4 1.42716e-15 0)
(1.4 1.83632e-15 0)
(1.4 1.85096e-15 0)
(1.4 1.82675e-15 0)
(1.4 1.99675e-15 0)
(1.4 2.13135e-15 0)
(1.4 2.12703e-15 0)
(1.4 2.04851e-15 0)
(1.4 1.97579e-15 0)
(1.4 1.91274e-15 0)
(1.4 1.45907e-15 0)
(1.4 1.43028e-15 0)
(1.4 1.45331e-15 0)
(1.4 1.55966e-15 0)
(1.4 1.42594e-15 0)
(1.4 1.15545e-15 0)
(1.4 1.10392e-15 0)
(1.4 1.28073e-15 0)
(1.4 1.08732e-15 0)
(1.4 1.02577e-15 0)
(1.4 1.0545e-15 0)
(1.4 8.52646e-16 0)
(1.4 8.51947e-16 0)
(1.4 1.17264e-15 0)
(1.4 1.36982e-15 0)
(1.4 1.65406e-15 0)
(1.4 1.55725e-15 0)
(1.4 1.95413e-15 0)
(1.4 2.16835e-15 0)
(1.4 2.37316e-15 0)
(1.4 2.43054e-15 0)
(1.4 2.42994e-15 0)
(1.4 2.25799e-15 0)
(1.4 1.96815e-15 0)
(1.4 1.4757e-15 0)
(1.4 7.60229e-16 0)
(1.4 1.74744e-15 0)
(1.4 1.44981e-15 0)
(1.4 1.03714e-15 0)
(1.4 9.11682e-16 0)
(1.4 7.28565e-16 0)
(1.4 4.85837e-16 0)
(1.4 4.47341e-16 0)
(1.4 2.78873e-16 0)
(1.4 3.73927e-16 0)
(1.4 7.29309e-17 0)
(1.4 -1.32068e-16 0)
(1.4 -3.15471e-16 0)
(1.4 -4.12024e-16 0)
(1.4 -7.62809e-16 0)
(1.4 -1.01183e-15 0)
(1.4 -1.69326e-15 0)
(1.4 -1.8285e-15 0)
(1.4 -1.61064e-15 0)
(1.4 -1.43313e-15 0)
(1.4 -1.55051e-15 0)
(1.4 -1.49629e-15 0)
(1.4 -1.45318e-15 0)
(1.4 -1.48531e-15 0)
(1.4 -1.65977e-15 0)
(1.4 -1.93153e-15 0)
(1.4 -2.16994e-15 0)
(1.4 -2.13285e-15 0)
(1.4 -2.10393e-15 0)
(1.4 -1.97756e-15 0)
(1.4 -1.96747e-15 0)
(1.4 -1.90092e-15 0)
(1.4 -1.70485e-15 0)
(1.4 -1.69172e-15 0)
(1.4 -1.424e-15 0)
(1.4 -1.03133e-15 0)
(1.4 -8.85611e-16 0)
(1.4 -3.57658e-16 0)
(1.4 -3.02762e-16 0)
(1.4 -3.48854e-16 0)
(1.4 -6.72291e-16 0)
(1.4 -5.3972e-16 0)
(1.4 -2.53437e-16 0)
(1.4 -4.16542e-16 0)
(1.4 -1.17472e-15 0)
(1.4 -1.90879e-15 0)
(1.4 -2.12177e-15 0)
(1.4 -2.17224e-15 0)
(1.4 -2.05984e-15 0)
(1.4 -2.17181e-15 0)
(1.4 -2.24863e-15 0)
(1.4 -2.22684e-15 0)
(1.4 -2.21062e-15 0)
(1.4 -2.20945e-15 0)
(1.4 -2.23963e-15 0)
(1.4 -2.22963e-15 0)
(1.4 -2.28961e-15 0)
(1.4 -2.40588e-15 0)
(1.4 -2.38831e-15 0)
(1.4 -2.47338e-15 0)
(1.4 -2.54382e-15 0)
(1.4 -2.4861e-15 0)
(1.4 -2.43709e-15 0)
(1.4 -2.27054e-15 0)
(1.4 -2.36498e-15 0)
(1.4 -2.50218e-15 0)
(1.4 -2.45241e-15 0)
(1.4 -2.38405e-15 0)
(1.4 -2.35145e-15 0)
(1.4 -2.30572e-15 0)
(1.4 -2.04749e-15 0)
(1.4 -1.4616e-15 0)
(1.4 -8.65579e-16 0)
(1.4 -5.08999e-16 0)
(1.4 -3.90288e-16 0)
(1.4 -6.21073e-17 0)
(1.4 6.34688e-16 0)
(1.4 9.30961e-16 0)
(1.4 9.39067e-16 0)
(1.4 1.29923e-15 0)
(1.4 1.56053e-15 0)
(1.4 2.037e-15 0)
(1.4 2.41877e-15 0)
(1.4 2.59136e-15 0)
(1.4 2.55076e-15 0)
(1.4 2.40452e-15 0)
(1.4 2.39986e-15 0)
(1.4 2.52411e-15 0)
(1.4 2.70135e-15 0)
(1.4 2.98925e-15 0)
(1.4 2.82798e-15 0)
(1.4 2.7511e-15 0)
(1.4 2.40562e-15 0)
(1.4 1.80622e-15 0)
(1.4 1.69952e-15 0)
(1.4 1.51214e-15 0)
(1.4 1.43666e-15 0)
(1.4 1.39961e-15 0)
(1.4 1.45048e-15 0)
(1.4 1.44566e-15 0)
(1.4 1.39351e-15 0)
(1.4 1.38787e-15 0)
(1.4 1.51522e-15 0)
(1.4 1.44396e-15 0)
(1.4 1.39928e-15 0)
(1.4 1.37823e-15 0)
(1.4 1.49993e-15 0)
(1.4 1.66492e-15 0)
(1.4 1.74845e-15 0)
(1.4 1.59037e-15 0)
(1.4 1.5665e-15 0)
(1.4 1.55028e-15 0)
(1.4 1.39824e-15 0)
(1.4 1.63445e-15 0)
(1.4 1.99324e-15 0)
(1.4 2.13773e-15 0)
(1.4 2.12656e-15 0)
(1.4 2.0183e-15 0)
(1.4 1.69895e-15 0)
(1.4 1.06848e-15 0)
(1.4 9.19435e-16 0)
(1.4 1.31977e-15 0)
(1.4 1.21361e-15 0)
(1.4 1.02964e-15 0)
(1.4 8.89631e-16 0)
(1.4 6.57595e-16 0)
(1.4 5.23386e-16 0)
(1.4 5.96151e-16 0)
(1.4 5.39229e-16 0)
(1.4 3.49383e-16 0)
(1.4 7.08386e-17 0)
(1.4 -4.22334e-16 0)
(1.4 -7.46537e-16 0)
(1.4 -1.11584e-15 0)
(1.4 -1.22865e-15 0)
(1.4 -1.45101e-15 0)
(1.4 -1.48691e-15 0)
(1.4 -1.46438e-15 0)
(1.4 -1.53631e-15 0)
(1.4 -1.65146e-15 0)
(1.4 -1.76822e-15 0)
(1.4 -1.68613e-15 0)
(1.4 -1.67766e-15 0)
(1.4 -2.40037e-15 0)
(1.4 -2.78421e-15 0)
(1.4 -2.99048e-15 0)
(1.4 -3.11104e-15 0)
(1.4 -3.44591e-15 0)
(1.4 -3.24222e-15 0)
(1.4 -2.87828e-15 0)
(1.4 -2.55659e-15 0)
(1.4 -2.05961e-15 0)
(1.4 -1.62391e-15 0)
(1.4 -1.28927e-15 0)
(1.4 -1.02712e-15 0)
(1.4 -1.02744e-15 0)
(1.4 -8.60744e-16 0)
(1.4 -7.98805e-16 0)
(1.4 -5.96374e-16 0)
(1.4 -7.3876e-16 0)
(1.4 -8.54757e-16 0)
(1.4 -8.28826e-16 0)
(1.4 -9.95551e-16 0)
(1.4 -1.78549e-15 0)
(1.4 -2.46289e-15 0)
(1.4 -2.91805e-15 0)
(1.4 -3.20734e-15 0)
(1.4 -3.53826e-15 0)
(1.4 -3.59547e-15 0)
(1.4 -3.49903e-15 0)
(1.4 -3.30959e-15 0)
(1.4 -3.25508e-15 0)
(1.4 -3.07316e-15 0)
(1.4 -3.11334e-15 0)
(1.4 -3.27268e-15 0)
(1.4 -3.40754e-15 0)
(1.4 -3.40526e-15 0)
(1.4 -3.64355e-15 0)
(1.4 -4.0869e-15 0)
(1.4 -3.78539e-15 0)
(1.4 -3.60998e-15 0)
(1.4 -3.47754e-15 0)
(1.4 -3.38217e-15 0)
(1.4 -3.44419e-15 0)
(1.4 -3.52833e-15 0)
(1.4 -3.23156e-15 0)
(1.4 -2.83183e-15 0)
(1.4 -2.50162e-15 0)
(1.4 -1.62337e-15 0)
(1.4 -1.09699e-15 0)
(1.4 -3.97789e-16 0)
(1.4 6.52673e-16 0)
(1.4 1.11091e-15 0)
(1.4 1.43448e-15 0)
(1.4 1.80964e-15 0)
(1.4 1.96815e-15 0)
(1.4 2.23204e-15 0)
(1.4 2.71165e-15 0)
(1.4 2.9736e-15 0)
(1.4 3.24995e-15 0)
(1.4 3.23101e-15 0)
(1.4 3.21321e-15 0)
(1.4 3.09025e-15 0)
(1.4 2.71297e-15 0)
(1.4 2.4371e-15 0)
(1.4 2.25815e-15 0)
(1.4 1.83411e-15 0)
(1.4 1.59829e-15 0)
(1.4 1.42378e-15 0)
(1.4 1.15293e-15 0)
(1.4 8.86243e-16 0)
(1.4 8.72058e-16 0)
(1.4 8.596e-16 0)
(1.4 8.8537e-16 0)
(1.4 9.50141e-16 0)
(1.4 9.30352e-16 0)
(1.4 7.42835e-16 0)
(1.4 3.40473e-16 0)
(1.4 -5.97834e-17 0)
(1.4 -2.15042e-16 0)
(1.4 -2.86512e-16 0)
(1.4 -2.97423e-16 0)
(1.4 -4.54623e-16 0)