/*--------------------------------*- C++ -*----------------------------------*\
  =========                 |
  \\      /  F ield         | OpenFOAM: The Open Source CFD Toolbox
   \\    /   O peration     | Website:  https://openfoam.org
    \\  /    A nd           | Version:  7
     \\/     M anipulation  |
\*---------------------------------------------------------------------------*/
FoamFile
{
    version     2.0;
    format      ascii;
    class       volVectorField;
    location    "10";
    object      U;
}
// * * * * * * * * * * * * * * * * * * * * * * * * * * * * * * * * * * * * * //

dimensions      [0 1 -1 0 0 0 0];

internalField   nonuniform List<vector> 
607
(
(1.03521 0.0325186 -9.38725e-20)
(1.03416 0.0343893 8.32879e-20)
(1.03349 0.0353058 -7.25401e-20)
(1.03965 0.039407 5.48054e-21)
(1.03288 0.0365283 3.27164e-20)
(1.03875 0.0416341 -5.3514e-20)
(1.03228 0.0379576 5.81132e-20)
(1.0377 0.0437928 2.40322e-21)
(1.03159 0.0394736 7.41204e-21)
(1.03651 0.0458776 -3.74785e-20)
(1.03077 0.0410172 -8.2449e-20)
(1.04179 0.0522881 -1.24032e-19)
(1.0352 0.0478989 1.245e-19)
(1.02979 0.0425652 1.43103e-20)
(1.04048 0.0543781 1.36894e-19)
(1.03378 0.0498638 -5.0803e-20)
(1.02869 0.0441159 -7.70756e-21)
(1.0391 0.0564621 -1.06699e-19)
(1.03226 0.0517719 3.66035e-20)
(1.02746 0.0456697 3.16234e-20)
(1.03762 0.0585395 3.9154e-20)
(1.03068 0.0536195 -6.80506e-20)
(1.02612 0.0472203 -1.7741e-20)
(1.03605 0.0606082 -6.75444e-20)
(1.02903 0.0554041 3.65663e-20)
(1.02468 0.0487557 2.30345e-20)
(1.04248 0.0699474 -1.39536e-19)
(1.03435 0.0626637 2.54424e-20)
(1.02731 0.0571254 -2.11339e-20)
(1.02315 0.0502637 2.00468e-20)
(1.04033 0.0725322 -1.92811e-20)
(1.03252 0.064699 1.99329e-20)
(1.02553 0.0587838 -9.36175e-21)
(1.02153 0.0517343 -3.28271e-21)
(1.03803 0.0750683 -5.67304e-20)
(1.03055 0.066705 -6.86515e-20)
(1.02367 0.0603796 5.58512e-21)
(1.01983 0.0531592 -4.72926e-20)
(1.03556 0.0775481 3.93769e-20)
(1.02843 0.0686716 4.61002e-20)
(1.02173 0.0619114 1.7666e-20)
(1.01806 0.0545311 3.93946e-20)
(1.03294 0.0799643 -3.23867e-20)
(1.02616 0.0705885 1.32107e-20)
(1.0197 0.0633761 -3.27133e-21)
(1.01622 0.0558429 2.36354e-20)
(1.03016 0.0823088 1.04898e-20)
(1.02374 0.0724452 5.61684e-21)
(1.01758 0.0647692 -6.13506e-21)
(1.0143 0.0570872 -2.36212e-20)
(1.03669 0.0955893 7.70892e-20)
(1.0272 0.0845725 9.14775e-20)
(1.02115 0.0742309 4.34077e-20)
(1.01535 0.0660845 -1.32781e-20)
(1.01231 0.0582563 2.25725e-22)
(1.03322 0.0984563 -1.99663e-19)
(1.02406 0.0867451 2.34432e-20)
(1.0184 0.0759346 -3.58223e-20)
(1.013 0.0673146 1.23974e-20)
(1.01024 0.059342 3.85468e-21)
(1.0294 0.101242 2.08197e-19)
(1.02072 0.0888148 -1.87167e-20)
(1.01548 0.0775446 -3.62977e-20)
(1.01053 0.0684514 -2.24803e-20)
(1.0081 0.060336 -9.04638e-21)
(1.02516 0.103927 -6.63338e-20)
(1.01714 0.0907684 -1.75508e-21)
(1.01239 0.0790489 9.58911e-21)
(1.00793 0.0694865 2.64888e-20)
(1.00586 0.0612298 9.53894e-21)
(1.0204 0.106485 -4.60594e-20)
(1.01326 0.0925907 -3.34251e-20)
(1.00911 0.0804349 3.81665e-21)
(1.00518 0.0704108 -1.45066e-20)
(1.00354 0.0620169 -8.60418e-21)
(1.015 0.108887 3.8767e-21)
(1.00899 0.094263 1.66338e-20)
(1.00559 0.0816892 -2.61131e-21)
(1.00227 0.0712147 2.20558e-22)
(1.00111 0.062694 3.57822e-22)
(1.0042 0.0957627 1.73576e-20)
(1.00177 0.082795 -1.90714e-21)
(0.999166 0.0718899 5.18418e-21)
(0.99856 0.0632522 -3.17911e-21)
(0.997519 0.0837315 8.39092e-21)
(0.995795 0.0724281 -8.45971e-22)
(0.995846 0.0636783 1.92336e-21)
(0.99205 0.0728154 -3.02624e-21)
(0.992921 0.0639646 -2.87968e-21)
(0.989691 0.0641006 3.80598e-21)
(1.02864 0.0174034 -3.01143e-21)
(1.02848 0.0188395 3.43029e-21)
(1.02845 0.0195243 -9.39579e-21)
(1.02864 0.0212492 1.47727e-21)
(1.03069 0.0210496 1.1684e-20)
(1.0306 0.0226461 -2.97898e-21)
(1.03065 0.0233492 1.39116e-20)
(1.03077 0.0252757 -1.53165e-21)
(1.03275 0.0251976 -7.64936e-21)
(1.03226 0.0269636 -5.42652e-21)
(1.03209 0.0277689 2.44228e-22)
(1.0321 0.0299154 3.58143e-21)
(1.00565 0.0207674 0)
(1.00414 0.0200497 0)
(1.00277 0.0192628 0)
(1.00154 0.0184212 0)
(1.0004 0.0175189 0)
(0.999381 0.0165668 0)
(0.998512 0.0155876 0)
(0.99777 0.0145916 0)
(1.02857 0.0222332 0)
(1.02649 0.0234371 0)
(1.02352 0.024294 0)
(1.02038 0.0248463 0)
(1.01747 0.025118 0)
(1.01488 0.0251235 0)
(1.01257 0.0248852 0)
(1.01046 0.0244368 0)
(1.00848 0.0238283 0)
(1.00663 0.0231057 0)
(1.00491 0.0222901 0)
(1.00333 0.0213998 0)
(1.00191 0.0204599 0)
(1.00065 0.0194776 0)
(0.999484 0.0184444 0)
(0.998446 0.0173678 0)
(0.997576 0.0162678 0)
(0.996844 0.0151606 0)
(1.03042 0.0261897 0)
(1.02774 0.0273495 0)
(1.02419 0.0281919 0)
(1.0206 0.0287402 0)
(1.01736 0.0289708 0)
(1.01452 0.0288509 0)
(1.01202 0.0283857 0)
(1.00976 0.0276371 0)
(1.00767 0.0267105 0)
(1.00573 0.0256828 0)
(1.00395 0.0245718 0)
(1.00233 0.0234062 0)
(1.00088 0.0222235 0)
(0.999595 0.021012 0)
(0.998423 0.0197486 0)
(0.997382 0.0184419 0)
(0.996517 0.0171202 0)
(0.995804 0.0158152 0)
(1.03187 0.0301684 0)
(1.02882 0.0303461 0)
(1.0248 0.0304707 0)
(1.02077 0.0305577 0)
(1.01715 0.0305146 0)
(1.01399 0.030213 0)
(1.01121 0.0295929 0)
(1.00871 0.028695 0)
(1.00645 0.0276496 0)
(1.00438 0.0265599 0)
(1.00251 0.0254265 0)
(1.00083 0.024245 0)
(0.99936 0.0230505 0)
(0.99805 0.0218454 0)
(0.996871 0.0205935 0)
(0.995844 0.0192692 0)
(0.995002 0.0178905 0)
(0.994342 0.0165073 0)
(1.03023 0.035137 -3.50148e-21)
(1.02696 0.0353712 -1.09947e-20)
(1.02295 0.0357731 7.932e-22)
(1.01906 0.0358314 4.68629e-21)
(1.01558 0.0354436 2.32362e-21)
(1.01248 0.0346373 -3.05203e-21)
(1.0097 0.0334692 -1.05456e-21)
(1.00718 0.0320545 2.3625e-21)
(1.00491 0.0305494 3.74553e-23)
(1.00287 0.029037 -1.8618e-21)
(1.00103 0.0274998 6.02979e-22)
(0.999397 0.025935 4.64049e-22)
(0.997976 0.0243902 -6.84573e-22)
(0.996738 0.022882 -3.43019e-22)
(0.995636 0.021363 2.75723e-22)
(0.994671 0.019792 2.12926e-22)
(0.993884 0.0181915 4.23547e-23)
(0.993295 0.0166261 -7.29355e-23)
(1.02951 0.0361566 -2.203e-21)
(1.02608 0.0362542 -8.35622e-21)
(1.02202 0.0364397 1.28607e-21)
(1.0182 0.0362557 4.57597e-21)
(1.01482 0.0356536 7.59921e-22)
(1.01178 0.0346772 -1.70904e-21)
(1.00902 0.0333825 2.05701e-21)
(1.00652 0.0318849 -1.35611e-21)
(1.00427 0.0303354 -3.53138e-21)
(1.00225 0.0288006 1.85697e-21)
(1.00044 0.0272495 3.15592e-22)
(0.998825 0.0256779 3.06794e-22)
(0.997425 0.0241351 1.52956e-22)
(0.996214 0.0226326 -3.35536e-22)
(0.99514 0.0211147 -2.21615e-22)
(0.994196 0.019538 8.20721e-23)
(0.993426 0.0179294 5.08869e-23)
(0.992862 0.0163644 5.47929e-24)
(1.02879 0.0374266 7.70642e-21)
(1.02522 0.037415 -2.62177e-21)
(1.02111 0.037493 -8.77339e-21)
(1.01734 0.0371252 1.00907e-20)
(1.01402 0.0363181 -1.96481e-21)
(1.01104 0.0351626 1.56333e-21)
(1.00833 0.0337245 2.57718e-22)
(1.00587 0.0321196 -4.36837e-21)
(1.00365 0.0304917 1.43031e-21)
(1.00167 0.0288933 1.77856e-21)
(0.999894 0.027285 -1.86304e-21)
(0.998306 0.0256642 3.91012e-22)
(0.996931 0.0240828 2.13924e-22)
(0.995749 0.0225485 -6.8572e-23)
(0.994701 0.020999 2.21741e-22)
(0.993776 0.0193876 -1.84994e-23)
(0.993022 0.0177507 1.73209e-23)
(0.992479 0.0161702 5.21337e-24)
(1.02799 0.0387257 -2.36034e-21)
(1.02432 0.038574 4.31168e-22)
(1.02018 0.0384878 9.36188e-22)
(1.01645 0.0379158 -3.88449e-21)
(1.0132 0.0369108 3.36301e-21)
(1.01028 0.0355958 1.58459e-21)
(1.00762 0.0340366 -1.47563e-21)
(1.0052 0.0323432 -8.44703e-22)
(1.00304 0.0306513 1.80951e-21)
(1.00111 0.0290016 5.29061e-23)
(0.999372 0.0273477 7.14811e-23)
(0.99782 0.0256867 -1.31174e-21)
(0.996476 0.0240719 2.53953e-23)
(0.995324 0.0225086 3.58782e-22)
(0.994304 0.0209294 1.47281e-23)
(0.993401 0.0192835 1.13852e-23)
(0.992664 0.017619 5.19761e-23)
(0.992141 0.0160174 -1.07306e-22)
(1.0271 0.0399859 -2.67764e-21)
(1.02336 0.0396881 1.07704e-20)
(1.0192 0.0394304 -9.39057e-21)
(1.01552 0.038651 1.53659e-21)
(1.01234 0.0374487 2.42589e-22)
(1.00948 0.0359776 -1.82992e-21)
(1.00687 0.0343018 -4.51302e-22)
(1.00451 0.0325235 8.37523e-22)
(1.00241 0.0307702 5.8319e-22)
(1.00054 0.029072 -9.7121e-22)
(0.998857 0.0273765 3.60607e-22)
(0.997349 0.0256796 -1.322e-23)
(0.996042 0.0240354 -2.68098e-22)
(0.994924 0.022447 2.30571e-22)
(0.993935 0.0208416 -5.43927e-24)
(0.993058 0.0191686 -4.18967e-23)
(0.992342 0.0174806 9.40117e-23)
(0.991838 0.0158574 -4.31661e-23)
(1.02611 0.0412285 1.38516e-21)
(1.02232 0.0407762 3.931e-21)
(1.01816 0.0403389 1.16417e-21)
(1.01454 0.0393496 -1.60005e-21)
(1.01142 0.0379549 -4.04758e-21)
(1.00863 0.0363352 1.97274e-21)
(1.00608 0.03455 -9.8453e-22)
(1.00379 0.0326921 9.16322e-22)
(1.00176 0.03088 -1.37373e-21)
(0.999953 0.0291349 1.29966e-21)
(0.998331 0.0273992 -4.40539e-22)
(0.996875 0.0256677 2.55563e-22)
(0.99561 0.0239938 7.37723e-23)
(0.994529 0.022379 6.50793e-23)
(0.993575 0.020745 9.84889e-24)
(0.99273 0.0190481 -6.54508e-23)
(0.992039 0.0173378 -8.67851e-23)
(0.991557 0.0156929 2.03448e-23)
(1.02503 0.0424598 -1.2385e-20)
(1.0212 0.0418317 1.00595e-20)
(1.01705 0.0412035 -3.08412e-21)
(1.01349 0.0400032 -3.66997e-21)
(1.01045 0.0384216 9.11578e-22)
(1.00773 0.0366611 1.55386e-21)
(1.00526 0.0347741 7.19451e-22)
(1.00303 0.0328423 4.13243e-22)
(1.00107 0.0309753 -8.35896e-22)
(0.999339 0.0291865 -2.75172e-22)
(0.997783 0.0274139 8.16182e-22)
(0.996382 0.0256508 -1.70776e-23)
(0.995163 0.0239493 -1.23761e-22)
(0.99412 0.0223073 -4.90353e-23)
(0.993205 0.0206456 -1.01269e-22)
(0.992399 0.018928 1.26717e-22)
(0.991739 0.017196 -1.62134e-22)
(0.991281 0.0155289 1.84459e-22)
(1.02385 0.0436784 7.86418e-21)
(1.02001 0.0428498 -1.71181e-21)
(1.01587 0.0420216 -5.66483e-21)
(1.01238 0.0406118 7.23581e-22)
(1.00943 0.0388502 -2.09998e-21)
(1.00678 0.0369564 2.75205e-21)
(1.00438 0.0349742 -4.21131e-22)
(1.00224 0.0329733 -1.07721e-21)
(1.00035 0.0310548 2.58909e-22)
(0.998692 0.0292249 -5.70247e-22)
(0.997203 0.0274184 4.78953e-23)
(0.995861 0.0256268 1.50758e-22)
(0.994689 0.0238994 -7.69077e-24)
(0.993686 0.0222289 9.11703e-23)
(0.992813 0.0205444 8.4224e-23)
(0.992049 0.0188072 -2.52874e-22)
(0.991426 0.0170538 -8.43317e-24)
(1.02259 0.0448783 -2.18982e-21)
(1.01876 0.0438261 -2.63415e-21)
(1.01464 0.0427907 5.05779e-21)
(1.01122 0.0411757 -2.34262e-21)
(1.00835 0.0392415 -7.69962e-23)
(1.00578 0.0372219 1.82205e-21)
(1.00347 0.0351508 -1.13803e-21)
(1.0014 0.0330858 -2.41224e-22)
(0.999596 0.031119 2.67911e-22)
(0.99801 0.0292507 -4.0841e-22)
(0.996589 0.0274129 1.74578e-22)
(0.995307 0.0255955 -7.36945e-23)
(0.994182 0.0238427 -1.11149e-22)
(0.99322 0.0221449 6.64591e-23)
(0.992391 0.020441 -1.47201e-22)
(0.991673 0.0186842 4.10275e-23)
(0.991089 0.0169094 1.18177e-22)
(1.02125 0.0460522 -4.09469e-21)
(1.01745 0.0447572 2.8661e-21)
(1.01336 0.0435094 2.02379e-21)
(1.01001 0.041695 1.10766e-21)
(1.00723 0.0395965 1.59538e-21)
(1.00475 0.0374583 -1.0834e-21)
(1.00252 0.0353042 4.6072e-22)
(1.00054 0.0331797 -7.04051e-22)
(0.998809 0.0311683 -2.84398e-22)
(0.997297 0.0292641 5.68952e-22)
(0.995944 0.0273978 -1.17505e-22)
(0.99472 0.0255572 6.41186e-23)
(0.993642 0.0237785 2.03857e-22)
(0.992722 0.0220583 -2.48727e-22)
(0.991936 0.0203353 1.06866e-22)
(0.991263 0.0185583 -2.51214e-23)
(0.990723 0.0167618 -1.08856e-22)
(1.01983 0.0471935 1.24456e-21)
(1.01608 0.0456404 -3.29056e-21)
(1.01204 0.0441769 -1.12973e-21)
(1.00877 0.0421705 -4.07141e-22)
(1.00608 0.0399163 1.62738e-22)
(1.00369 0.0376662 -1.58682e-21)
(1.00154 0.0354347 5.658e-22)
(0.999647 0.0332555 -5.1632e-22)
(0.998 0.0312029 4.12635e-22)
(0.99656 0.0292657 -6.08576e-23)
(0.995273 0.0273738 2.89049e-23)
(0.994106 0.0255111 -1.6878e-22)
(0.993073 0.0237088 2.63904e-22)
(0.992194 0.0219707 2.28304e-22)
(0.991451 0.0202274 1.46814e-22)
(0.990823 0.0184288 -3.92895e-22)
(0.990327 0.01661 -1.19987e-22)
(1.01836 0.0482969 -2.75367e-21)
(1.01467 0.046474 -7.97195e-22)
(1.01068 0.0447927 -2.74281e-21)
(1.00748 0.0426024 3.15361e-21)
(1.0049 0.0402012 1.03858e-21)
(1.0026 0.037846 4.93471e-23)
(1.00054 0.0355426 -5.07544e-22)
(0.998741 0.0333134 -1.79294e-22)
(0.997175 0.0312234 2.49356e-22)
(0.995808 0.0292562 -5.89544e-23)
(0.994585 0.0273413 2.33262e-22)
(0.993471 0.0254565 -3.03867e-22)
(0.992484 0.0236377 1.2116e-24)
(0.991645 0.0218827 -1.18229e-22)
(0.990941 0.0201172 3.65879e-22)
(0.990356 0.0182954 -4.34724e-22)
(0.989906 0.0164534 1.64924e-22)
(1.01682 0.0493577 -6.07116e-21)
(1.01322 0.0472564 3.85586e-21)
(1.00928 0.0453565 -1.6822e-21)
(1.00617 0.0429908 -1.43551e-21)
(1.00369 0.0404516 1.9554e-21)
(1.0015 0.0379977 -1.7243e-21)
(0.999539 0.0356279 5.59951e-22)
(0.997827 0.0333537 -4.05708e-22)
(0.996344 0.0312301 2.17227e-22)
(0.995049 0.0292364 -1.08538e-22)
(0.993886 0.0272995 5.61275e-23)
(0.992825 0.0253967 -1.46135e-22)
(0.991882 0.0235676 3.81836e-22)
(0.99108 0.0217946 -5.59597e-22)
(0.990413 0.0200049 6.64684e-22)
(0.989869 0.018158 1.3351e-22)
(0.989466 0.0162914 -3.83989e-22)
(1.01522 0.0503711 -3.34163e-21)
(1.01172 0.0479861 -7.10409e-22)
(1.00785 0.0458675 -3.69172e-21)
(1.00484 0.0433353 3.34371e-21)
(1.00248 0.0406673 -1.61878e-21)
(1.00039 0.0381213 7.84276e-22)
(0.998532 0.0356907 9.41209e-25)
(0.996914 0.0333766 1.75736e-22)
(0.995515 0.0312238 -1.69294e-22)
(0.99429 0.0292065 1.27179e-23)
(0.993186 0.0272483 6.01515e-22)
(0.992177 0.0253366 -3.8909e-22)
(0.991277 0.0234992 -1.53191e-22)
(0.990509 0.0217068 3.05167e-22)
(0.989874 0.0198905 -5.56339e-22)
(0.989369 0.0180164 -2.49243e-22)
(0.989012 0.0161235 1.78923e-22)
(1.01356 0.0513322 -9.08608e-21)
(1.01018 0.0486607 1.54109e-21)
(1.00641 0.0463248 8.9122e-22)
(1.0035 0.0436351 2.10804e-21)
(1.00125 0.0408478 -1.29502e-21)
(0.999284 0.0382165 9.85485e-22)
(0.997531 0.0357309 -3.23797e-22)
(0.996009 0.0333821 2.40211e-22)
(0.994694 0.0312048 -3.71461e-22)
(0.993538 0.0291652 8.60584e-23)
(0.992492 0.0271917 5.98576e-22)
(0.991534 0.0252788 -1.68144e-23)
(0.990674 0.023433 -9.76649e-23)
(0.989936 0.0216195 -6.91594e-22)
(0.98933 0.0197746 -1.3978e-22)
(0.988862 0.0178708 4.19018e-22)
(0.988552 0.0159494 -3.48045e-22)
(1.01185 0.0522357 -5.78318e-21)
(1.00861 0.0492778 -5.59202e-22)
(1.00494 0.046727 3.12581e-21)
(1.00214 0.0438891 -5.10529e-22)
(1.00003 0.0409926 4.17483e-22)
(0.998183 0.0382831 -4.01628e-22)
(0.99654 0.0357482 9.16116e-23)
(0.995117 0.0333707 -2.76819e-22)
(0.993886 0.0311725 1.31612e-22)
(0.992798 0.0291125 -2.81025e-22)
(0.991811 0.0271355 9.47306e-22)
(0.990902 0.0252242 -1.21906e-22)
(0.990078 0.0233695 -8.11241e-23)
(0.989366 0.0215333 -4.16579e-22)
(0.988786 0.0196575 8.53196e-23)
(0.988354 0.0177212 -4.05379e-22)
(1.01008 0.0530757 2.51366e-21)
(1.007 0.0498342 1.60626e-22)
(1.00345 0.0470725 3.52602e-21)
(1.00078 0.0440962 -1.16032e-21)
(0.9988 0.0411008 2.8235e-22)
(0.997089 0.0383204 -1.28411e-22)
(0.995561 0.0357426 -4.31507e-22)
(0.994238 0.0333425 -1.323e-22)
(0.99309 0.0311249 7.35394e-22)
(0.992073 0.0290541 -7.54256e-22)
(0.991145 0.0270821 -2.503e-22)
(0.990281 0.0251733 1.11311e-21)
(0.989488 0.023309 -9.57718e-22)
(0.988799 0.0214488 6.30797e-22)
(0.988244 0.0195396 -9.36552e-23)
(0.987844 0.0175676 -1.4497e-23)
(1.00825 0.0538464 -1.21357e-22)
(1.00535 0.0503261 9.72975e-22)
(1.00194 0.0473593 -9.34704e-22)
(0.999407 0.0442551 -4.72473e-22)
(0.997574 0.0411714 -1.4462e-22)
(0.996002 0.0383278 1.315e-22)
(0.994594 0.035714 -5.78142e-22)
(0.993372 0.033296 1.22049e-21)
(0.992309 0.0310637 -3.60921e-22)
(0.991364 0.0289959 -3.75068e-22)
(0.990493 0.0270323 1.11727e-22)
(0.98967 0.0251264 4.2655e-22)
(0.988905 0.0232523 -1.34216e-21)
(0.988236 0.0213665 1.04672e-21)
(0.987702 0.0194212 -1.06352e-22)
(0.987335 0.0174102 2.65211e-22)
(1.00635 0.0545418 1.20092e-21)
(1.00365 0.0507502 -5.40806e-22)
(1.0004 0.0475856 4.0322e-23)
(0.998024 0.0443643 1.20445e-22)
(0.996346 0.0412032 -3.12105e-23)
(0.994919 0.0383043 -1.45685e-22)
(0.993635 0.0356621 6.62989e-22)
(0.992515 0.0332286 5.20019e-22)
(0.99154 0.030996 -4.47843e-22)
(0.990668 0.0289394 3.3397e-22)
(0.989852 0.026986 3.82302e-22)
(0.989066 0.0250841 -5.92434e-22)
(0.988324 0.0231999 -2.85469e-22)
(0.987672 0.0212871 6.82965e-24)
(0.987159 0.0193026 -3.19093e-22)
(0.986823 0.0172488 4.22062e-22)
(1.00439 0.0551538 2.00894e-21)
(1.0019 0.0511028 2.11345e-23)
(0.998841 0.0477499 2.35467e-22)
(0.996626 0.0444224 1.18009e-22)
(0.99511 0.0411944 -6.85629e-22)
(0.993834 0.0382487 4.81869e-22)
(0.992678 0.0355837 -5.03913e-23)
(0.991664 0.033144 -5.95409e-22)
(0.990781 0.0309261 9.89438e-22)
(0.989981 0.0288847 -7.54747e-22)
(0.989216 0.0269435 2.2668e-22)
(0.988463 0.025047 8.41084e-23)
(0.987742 0.0231528 -1.52788e-22)
(0.987105 0.021211 5.92534e-23)
(0.98661 0.019184 5.88148e-23)
(0.986307 0.0170832 3.82042e-23)
(1.00235 0.0556675 3.96162e-23)
(1.00009 0.0513787 -1.57776e-22)
(0.997242 0.0478508 4.10063e-22)
(0.995206 0.0444276 -8.7652e-22)
(0.993861 0.0411426 4.44587e-22)
(0.992741 0.0381576 2.11506e-22)
(0.991717 0.0354761 -2.08162e-22)
(0.990816 0.0330498 3.30821e-22)
(0.990026 0.0308548 8.64613e-24)
(0.989296 0.0288314 1.94369e-22)
(0.988579 0.0269052 -9.3643e-22)
(0.987856 0.0250158 6.96464e-22)
(0.987153 0.0231115 -4.31892e-22)
(0.986529 0.0211387 2.5555e-22)
(0.986052 0.0190653 6.05239e-23)
(0.985782 0.016913 -3.42747e-22)
(1.00022 0.0560682 4.3378e-22)
(0.998222 0.051572 -3.85024e-22)
(0.995599 0.0478861 5.38949e-23)
(0.993756 0.0443789 3.99252e-22)
(0.992588 0.0410445 -2.49818e-22)
(0.991631 0.0380274 1.72374e-23)
(0.990748 0.035347 7.26694e-23)
(0.989964 0.0329495 2.45621e-22)
(0.989266 0.0307813 -1.77609e-22)
(0.988604 0.0287794 -8.23324e-22)
(0.987933 0.0268715 2.08073e-22)
(0.987238 0.0249913 1.0642e-21)
(0.98655 0.0230766 -1.91362e-22)
(0.985937 0.0210702 -4.0853e-22)
(0.98548 0.0189462 -2.49896e-22)
(0.985245 0.0167376 1.09925e-22)
(0.997989 0.0563672 -2.2963e-22)
(0.996275 0.0516836 8.81301e-23)
(0.993899 0.0478539 -5.95129e-22)
(0.992262 0.0442761 1.15501e-21)
(0.991278 0.0408962 -1.31025e-21)
(0.990494 0.0378652 9.42909e-22)
(0.989762 0.0352061 -6.84648e-22)
(0.989097 0.0328427 6.4729e-22)
(0.98849 0.0307045 -5.26834e-22)
(0.987896 0.0287286 8.13851e-23)
(0.987269 0.0268431 -4.78406e-22)
(0.986599 0.024974 7.41729e-22)
(0.985925 0.0230486 -1.25388e-22)
(0.985324 0.0210057 2.25384e-22)
(0.984888 0.0188263 -6.55377e-22)
(0.984692 0.0165561 3.4101e-22)
(0.995621 0.0565806 -1.65034e-23)
(0.994224 0.0517141 -2.64097e-22)
(0.992119 0.047751 3.00595e-24)
(0.9907 0.0441145 -4.78949e-23)
(0.989911 0.0407036 3.28134e-22)
(0.989313 0.0376816 -4.04091e-22)
(0.988739 0.0350533 -6.93287e-22)
(0.988196 0.0327267 1.45135e-22)
(0.987682 0.0306232 1.44984e-21)
(0.987155 0.0286787 -1.97695e-22)
(0.986572 0.0268202 -7.88328e-22)
(0.985927 0.0249646 2.13116e-22)
(0.985266 0.0230276 4.93092e-22)
(0.984678 0.0209447 1.43596e-22)
(0.984267 0.0187046 -4.33986e-22)
(0.984116 0.0163673 -5.15582e-23)
(0.993074 0.0566964 -1.05024e-22)
(0.992022 0.0516528 -2.68664e-23)
(0.990213 0.0475721 1.65648e-22)
(0.98903 0.0438862 5.97334e-22)
(0.988452 0.0404728 -1.2277e-21)
(0.988054 0.0374753 -3.55615e-22)
(0.987645 0.0348833 1.10997e-21)
(0.987228 0.0325983 9.07056e-22)
(0.986812 0.0305358 -1.78487e-21)
(0.986357 0.0286294 3.42767e-22)
(0.98582 0.0268028 1.17595e-21)
(0.985201 0.0249628 -3.78691e-22)
(0.984555 0.0230132 1.73354e-24)
(0.983984 0.0208862 1.50687e-22)
(0.983606 0.0185793 -9.54887e-22)
(0.98351 0.016169 4.25327e-22)
(0.990259 0.0566946 4.59603e-22)
(0.989585 0.0514832 1.33511e-22)
(0.988103 0.0473092 1.37126e-22)
(0.987181 0.0435858 -1.68901e-21)
(0.986836 0.0401981 7.24024e-22)
(0.986653 0.0372391 -2.55018e-22)
(0.98642 0.034691 1.82681e-21)
(0.986143 0.0324545 -7.55397e-22)
(0.985834 0.0304404 -1.22501e-21)
(0.985458 0.0285791 5.24551e-22)
(0.984974 0.0267897 -7.18312e-22)
(0.984386 0.0249676 8.68928e-22)
(0.983761 0.0230038 -1.16922e-22)
(0.983219 0.0208277 3.33445e-22)
(0.982887 0.0184476 -8.45061e-22)
(0.982862 0.0159583 7.81811e-22)
(0.987026 0.0565583 -9.5558e-22)
(0.986769 0.0511918 9.47191e-22)
(0.985658 0.0469484 -1.1289e-21)
(0.985032 0.0432146 1.72588e-21)
(0.984951 0.0398733 -1.12875e-21)
)
;

boundaryField
{
    inlet
    {
        type            uniformFixedValue;
        uniformValue    constant (1 0 0);
        value           nonuniform 0();
    }
    outlet
    {
        type            pressureInletOutletVelocity;
        value           nonuniform 0();
    }
    cylinder
    {
        type            fixedValue;
        value           nonuniform 0();
    }
    top
    {
        type            symmetryPlane;
    }
    bottom
    {
        type            symmetryPlane;
    }
    defaultFaces
    {
        type            empty;
    }
    procBoundary21to13
    {
        type            processor;
        value           nonuniform List<vector> 
23
(
(1.02615 0.0146823 2.23933e-21)
(1.02615 0.015898 1.02388e-20)
(1.02626 0.0164949 -1.75969e-21)
(1.02657 0.0179343 -2.3901e-21)
(1.00624 0.0190849 0)
(1.00481 0.0185297 0)
(1.00349 0.0178946 0)
(1.0023 0.017197 0)
(1.0012 0.0164362 0)
(1.0002 0.0156211 0)
(0.999337 0.0147732 0)
(0.998593 0.0139021 0)
(1.02666 0.0188847 0)
(1.02504 0.0201439 0)
(1.02253 0.0211201 0)
(1.01979 0.0218148 0)
(1.01719 0.0222508 0)
(1.01485 0.0224508 0)
(1.01274 0.0224409 0)
(1.01081 0.0222443 0)
(1.00899 0.021883 0)
(1.00726 0.0213844 0)
(1.00726 0.0213844 0)
)
;
    }
    procBoundary21to14
    {
        type            processor;
        value           nonuniform List<vector> 2((0.997114 0.0135829 0) (0.996211 0.0140558 0));
    }
    procBoundary21to20
    {
        type            processor;
        value           nonuniform List<vector> 
32
(
(1.03674 0.0292722 -1.10802e-21)
(1.03595 0.0309218 5.9246e-21)
(1.03595 0.0309218 5.9246e-21)
(1.04177 0.0330301 -7.55423e-20)
(1.04112 0.034995 -4.37813e-20)
(1.04043 0.0371587 6.13919e-20)
(1.04043 0.0371587 6.13919e-20)
(1.04629 0.0438469 -1.48629e-19)
(1.04527 0.0459824 9.63888e-20)
(1.04418 0.0480929 -1.48818e-19)
(1.04302 0.050193 5.32448e-21)
(1.04302 0.050193 5.32448e-21)
(1.0509 0.0566166 4.28839e-20)
(1.04952 0.0593034 -8.51613e-20)
(1.04799 0.0619899 1.83585e-21)
(1.04631 0.0646664 1.56624e-19)
(1.04448 0.0673223 -2.46508e-19)
(1.04448 0.0673223 -2.46508e-19)
(1.05246 0.0775105 8.77842e-20)
(1.05032 0.0805747 1.93116e-19)
(1.04801 0.0836289 -1.53558e-19)
(1.04551 0.086667 1.66463e-19)
(1.04281 0.0896806 -1.49598e-19)
(1.03988 0.092659 -3.04542e-20)
(1.03988 0.092659 -3.04542e-20)
(1.04866 0.108661 -1.77739e-19)
(1.04454 0.112432 1.25388e-19)
(1.03991 0.116125 -8.79823e-20)
(1.03466 0.119712 1.18964e-19)
(1.02877 0.0165737 -1.35969e-20)
(1.03078 0.02012 6.49844e-21)
(1.03319 0.0240275 1.16897e-20)
)
;
    }
    procBoundary21to22
    {
        type            processor;
        value           nonuniform List<vector> 
30
(
(0.995209 0.0145447 0)
(0.993833 0.0151557 0)
(0.992886 0.0151309 -2.39993e-23)
(0.992491 0.0148768 1.03509e-23)
(0.99214 0.0146767 -2.23708e-24)
(0.991829 0.0145077 -6.19106e-23)
(0.99155 0.0143299 -1.3765e-22)
(0.991292 0.0141474 -9.48019e-23)
(0.991041 0.0139643 7.16542e-23)
(0.990997 0.015364 -1.10577e-22)
(0.990997 0.015364 -1.10577e-22)
(0.990693 0.0151967 1.99272e-22)
(0.990365 0.0150259 -6.00881e-24)
(0.990011 0.0148506 -5.74312e-23)
(0.989635 0.0146699 -6.32418e-23)
(0.989243 0.0144829 -1.39892e-22)
(0.98884 0.014289 -7.31665e-22)
(0.988432 0.0140878 -4.57994e-22)
(0.988089 0.0157688 -6.25511e-22)
(0.988089 0.0157688 -6.25511e-22)
(0.987625 0.0155815 -9.10108e-23)
(0.987162 0.0153872 1.49453e-22)
(0.986697 0.0151857 2.55804e-22)
(0.986229 0.0149764 -2.10096e-22)
(0.985754 0.0147588 -1.4971e-22)
(0.985271 0.0145321 -1.94366e-23)
(0.984776 0.0142952 -2.9345e-22)
(0.984265 0.0140468 -2.16947e-22)
(0.983734 0.013785 -2.40714e-22)
(0.983176 0.0135069 2.5462e-22)
)
;
    }
    procBoundary21to28
    {
        type            processor;
        value           nonuniform List<vector> 2((1.02864 0.123162 4.55812e-20) (1.02166 0.126434 -3.18348e-20));
    }
    procBoundary21to29
    {
        type            processor;
        value           nonuniform List<vector> 
26
(
(1.00877 0.111096 -4.20062e-20)
(1.00877 0.111096 -4.20062e-20)
(0.998721 0.0970616 8.53555e-21)
(0.998721 0.0970616 8.53555e-21)
(0.992679 0.0844726 -8.48496e-23)
(0.992679 0.0844726 -8.48496e-23)
(0.987749 0.0730313 -3.58138e-22)
(0.987749 0.0730313 -3.58138e-22)
(0.985993 0.0640694 1.27147e-20)
(0.985993 0.0640694 1.27147e-20)
(0.985003 0.036966 -7.00778e-22)
(0.984968 0.0344706 1.6045e-21)
(0.98485 0.0322902 -5.61126e-22)
(0.984667 0.0303324 4.81639e-22)
(0.984386 0.0285243 -6.14853e-22)
(0.983968 0.0267783 1.90822e-22)
(0.983424 0.0249762 -8.12616e-22)
(0.982837 0.0229958 -4.03428e-23)
(0.982343 0.0207648 7.64809e-22)
(0.982083 0.0183044 4.85491e-22)
(0.983128 0.0562661 1.80106e-21)
(0.983345 0.0507825 -1.05206e-21)
(0.982669 0.046477 -5.83665e-23)
(0.982389 0.0427682 7.86639e-22)
(0.985003 0.036966 -7.00778e-22)
(0.982613 0.0394892 4.38173e-22)
)
;
    }
    procBoundary21to30
    {
        type            processor;
        value           uniform (0.982153 0.0157302 4.24288e-22);
    }
}


// ************************************************************************* //
