/*--------------------------------*- C++ -*----------------------------------*\
  =========                 |
  \\      /  F ield         | OpenFOAM: The Open Source CFD Toolbox
   \\    /   O peration     | Website:  https://openfoam.org
    \\  /    A nd           | Version:  7
     \\/     M anipulation  |
\*---------------------------------------------------------------------------*/
FoamFile
{
    version     2.0;
    format      ascii;
    class       volScalarField;
    location    "0.282";
    object      p;
}
// * * * * * * * * * * * * * * * * * * * * * * * * * * * * * * * * * * * * * //

dimensions      [0 2 -2 0 0 0 0];

internalField   nonuniform List<scalar> 
40000
(
2.88476e-06
9.71889e-05
0.000157076
0.000141548
3.56787e-05
-0.000164951
-0.000458192
-0.000838263
-0.00129778
-0.00182875
-0.00242307
-0.00307281
-0.00377035
-0.00450849
-0.00528044
-0.00607981
-0.00690061
-0.00773726
-0.00858455
-0.00943762
-0.0102919
-0.0111432
-0.0119876
-0.0128213
-0.013641
-0.0144434
-0.0152257
-0.015985
-0.0167188
-0.0174248
-0.0181007
-0.0187446
-0.0193545
-0.0199288
-0.0204659
-0.0209643
-0.0214228
-0.0218401
-0.0222152
-0.022547
-0.0228347
-0.0230776
-0.023275
-0.0234263
-0.023531
-0.0235887
-0.023599
-0.0235618
-0.0234768
-0.0233439
-0.0231631
-0.0229344
-0.0226579
-0.0223336
-0.0219619
-0.0215429
-0.021077
-0.0205645
-0.0200059
-0.0194014
-0.0187518
-0.0180574
-0.0173189
-0.0165369
-0.0157121
-0.0148451
-0.0139367
-0.0129877
-0.0119988
-0.0109709
-0.00990491
-0.00880166
-0.0076621
-0.00648718
-0.0052779
-0.00403526
-0.0027603
-0.00145407
-0.00011768
0.00124778
0.00264116
0.00406132
0.00550708
0.00697724
0.00847058
0.00998589
0.0115219
0.0130773
0.0146509
0.0162414
0.0178473
0.0194675
0.0211006
0.0227451
0.0243998
0.0260632
0.027734
0.0294108
0.0310922
0.0327767
0.034463
0.0361495
0.037835
0.0395179
0.0411968
0.0428704
0.044537
0.0461953
0.0478439
0.0494814
0.0511062
0.052717
0.0543123
0.0558908
0.057451
0.0589916
0.0605111
0.0620082
0.0634815
0.0649297
0.0663514
0.0677454
0.0691104
0.070445
0.0717481
0.0730184
0.0742548
0.075456
0.076621
0.0777486
0.0788377
0.0798873
0.0808964
0.0818641
0.0827893
0.0836713
0.0845092
0.0853021
0.0860493
0.0867502
0.087404
0.0880102
0.0885683
0.0890776
0.0895379
0.0899487
0.0903098
0.0906209
0.0908818
0.0910924
0.0912528
0.0913629
0.0914229
0.091433
0.0913935
0.0913048
0.0911672
0.0909815
0.0907482
0.0904681
0.090142
0.0897709
0.0893558
0.088898
0.0883987
0.0878593
0.0872814
0.0866666
0.0860167
0.0853338
0.0846198
0.0838771
0.0831081
0.0823153
0.0815015
0.0806697
0.079823
0.0789648
0.0780987
0.0772285
0.0763582
0.0754923
0.0746354
0.0737923
0.0729683
0.072169
0.0714003
0.0706684
0.06998
0.0693421
0.0687618
0.0682469
0.0678048
0.067443
0.0671679
0.0669846
0.066894
0.0668902
0.0669563
0.0670494
-8.72427e-05
5.31965e-06
4.11796e-05
4.45129e-06
-0.000108552
-0.000301961
-0.000575593
-0.00092588
-0.00134754
-0.00183441
-0.00237988
-0.00297728
-0.00362
-0.00430163
-0.00501605
-0.00575741
-0.00652016
-0.00729909
-0.00808928
-0.00888612
-0.00968528
-0.0104827
-0.0112745
-0.0120573
-0.0128276
-0.0135823
-0.0143186
-0.0150338
-0.0157254
-0.0163911
-0.0170286
-0.0176359
-0.0182113
-0.0187531
-0.0192595
-0.0197293
-0.0201611
-0.0205537
-0.020906
-0.021217
-0.0214858
-0.0217117
-0.0218939
-0.0220319
-0.0221252
-0.0221733
-0.0221758
-0.0221326
-0.0220433
-0.0219079
-0.0217263
-0.0214984
-0.0212243
-0.0209042
-0.0205381
-0.0201264
-0.0196692
-0.019167
-0.0186201
-0.0180288
-0.0173938
-0.0167154
-0.0159942
-0.0152308
-0.0144259
-0.0135801
-0.0126941
-0.0117687
-0.0108045
-0.00980254
-0.0087635
-0.00768829
-0.0065778
-0.00543296
-0.00425472
-0.00304406
-0.00180198
-0.000529514
0.000772286
0.00210234
0.00345955
0.0048428
0.00625093
0.0076828
0.00913722
0.010613
0.0121089
0.0136237
0.0151561
0.0167049
0.0182689
0.0198466
0.0214368
0.0230382
0.0246494
0.0262692
0.0278961
0.0295288
0.0311659
0.032806
0.0344479
0.03609
0.037731
0.0393695
0.041004
0.0426333
0.0442559
0.0458703
0.0474753
0.0490693
0.0506511
0.0522191
0.0537722
0.0553087
0.0568275
0.0583272
0.0598063
0.0612637
0.0626979
0.0641076
0.0654916
0.0668487
0.0681774
0.0694768
0.0707454
0.0719822
0.073186
0.0743557
0.0754901
0.0765883
0.0776491
0.0786716
0.0796548
0.0805977
0.0814996
0.0823595
0.0831766
0.0839502
0.0846796
0.085364
0.0860029
0.0865958
0.087142
0.0876412
0.0880929
0.0884968
0.0888527
0.0891603
0.0894195
0.0896303
0.0897925
0.0899064
0.089972
0.0899896
0.0899594
0.089882
0.0897577
0.0895871
0.089371
0.0891099
0.0888049
0.0884569
0.0880669
0.0876361
0.0871659
0.0866575
0.0861125
0.0855327
0.0849197
0.0842756
0.0836023
0.0829021
0.0821773
0.0814306
0.0806645
0.079882
0.0790862
0.0782803
0.0774679
0.0766525
0.0758381
0.0750288
0.0742291
0.0734436
0.0726773
0.0719353
0.071223
0.0705462
0.0699109
0.0693233
0.0687896
0.068316
0.0679089
0.0675737
0.0673151
0.0671359
0.0670354
0.0670086
0.0670502
0.0671432
-0.000146256
-3.0227e-05
5.59454e-06
-3.71077e-05
-0.000150906
-0.000337704
-0.000597243
-0.000926523
-0.00132118
-0.00177606
-0.00228553
-0.00284376
-0.00344493
-0.00408327
-0.00475316
-0.00544924
-0.00616633
-0.00689956
-0.00764428
-0.00839613
-0.00915095
-0.00990483
-0.0106541
-0.0113954
-0.0121254
-0.0128411
-0.0135398
-0.0142187
-0.0148755
-0.0155078
-0.0161135
-0.0166906
-0.0172374
-0.017752
-0.018233
-0.0186789
-0.0190884
-0.0194603
-0.0197935
-0.020087
-0.0203399
-0.0205515
-0.020721
-0.0208479
-0.0209315
-0.0209715
-0.0209675
-0.0209192
-0.0208263
-0.0206887
-0.0205063
-0.0202791
-0.0200071
-0.0196904
-0.0193291
-0.0189235
-0.0184738
-0.0179802
-0.0174432
-0.0168631
-0.0162404
-0.0155755
-0.014869
-0.0141214
-0.0133334
-0.0125055
-0.0116385
-0.0107331
-0.00978997
-0.00880994
-0.0077938
-0.00674241
-0.00565662
-0.00453733
-0.00338547
-0.00220198
-0.000987853
0.000255919
0.00152831
0.00282827
0.00415472
0.00550657
0.00688272
0.00828202
0.00970332
0.0111455
0.0126072
0.0140875
0.0155849
0.0170983
0.0186265
0.0201681
0.0217219
0.0232866
0.0248609
0.0264435
0.028033
0.0296282
0.0312277
0.0328302
0.0344342
0.0360385
0.0376417
0.0392425
0.0408393
0.042431
0.0440161
0.0455933
0.0471612
0.0487184
0.0502636
0.0517954
0.0533125
0.0548135
0.0562972
0.0577621
0.059207
0.0606307
0.0620317
0.0634088
0.0647609
0.0660866
0.0673847
0.0686541
0.0698936
0.071102
0.0722782
0.0734212
0.0745298
0.0756031
0.07664
0.0776395
0.0786008
0.0795229
0.080405
0.0812463
0.0820459
0.0828032
0.0835175
0.0841881
0.0848144
0.085396
0.0859322
0.0864228
0.0868674
0.0872655
0.087617
0.0879217
0.0881795
0.0883903
0.0885542
0.0886712
0.0887415
0.0887653
0.0887431
0.0886751
0.0885619
0.088404
0.0882022
0.0879571
0.0876697
0.0873409
0.0869718
0.0865635
0.0861174
0.0856348
0.0851172
0.0845663
0.0839838
0.0833717
0.0827319
0.0820667
0.0813784
0.0806694
0.0799425
0.0792003
0.0784459
0.0776825
0.0769134
0.0761422
0.0753727
0.0746088
0.0738546
0.0731147
0.0723936
0.0716963
0.0710278
0.0703933
0.0697983
0.0692483
0.068749
0.0683056
0.0679235
0.0676073
0.0673607
0.0671863
0.0670834
0.0670498
0.0670917
0.0672097
-0.000130784
6.61463e-06
4.85444e-05
5.91667e-06
-0.00010634
-0.000287817
-0.000537407
-0.000851897
-0.00122717
-0.00165857
-0.00214107
-0.00266943
-0.00323838
-0.00384266
-0.00447712
-0.00513677
-0.0058168
-0.00651262
-0.00721987
-0.00793438
-0.00865218
-0.00936956
-0.010083
-0.0107891
-0.0114849
-0.0121674
-0.0128338
-0.0134817
-0.0141085
-0.0147121
-0.0152903
-0.0158412
-0.016363
-0.0168541
-0.0173129
-0.0177379
-0.018128
-0.0184818
-0.0187983
-0.0190764
-0.0193154
-0.0195144
-0.0196728
-0.0197898
-0.0198649
-0.0198977
-0.0198879
-0.019835
-0.0197389
-0.0195994
-0.0194164
-0.0191898
-0.0189196
-0.018606
-0.0182489
-0.0178487
-0.0174056
-0.0169197
-0.0163915
-0.0158214
-0.0152096
-0.0145568
-0.0138634
-0.0131299
-0.0123569
-0.0115451
-0.010695
-0.00980747
-0.00888311
-0.00792271
-0.00692704
-0.00589693
-0.00483321
-0.00373677
-0.00260849
-0.00144931
-0.000260184
0.00095792
0.002204
0.00347702
0.00477595
0.00609972
0.00744723
0.00881738
0.0102091
0.0116211
0.0130523
0.0145016
0.0159677
0.0174495
0.0189456
0.0204549
0.0219761
0.023508
0.0250492
0.0265985
0.0281547
0.0297163
0.0312821
0.0328508
0.0344211
0.0359916
0.037561
0.039128
0.0406912
0.0422493
0.0438009
0.0453448
0.0468795
0.0484038
0.0499163
0.0514158
0.0529008
0.0543701
0.0558224
0.0572563
0.0586707
0.0600643
0.0614357
0.0627838
0.0641073
0.0654051
0.0666759
0.0679187
0.0691322
0.0703153
0.071467
0.0725862
0.0736719
0.074723
0.0757386
0.0767178
0.0776596
0.0785632
0.0794277
0.0802524
0.0810365
0.0817793
0.0824802
0.0831385
0.0837537
0.0843253
0.0848528
0.0853358
0.0857739
0.0861669
0.0865146
0.0868167
0.0870732
0.0872841
0.0874493
0.0875691
0.0876435
0.0876729
0.0876575
0.0875978
0.0874943
0.0873475
0.0871582
0.0869271
0.0866551
0.0863431
0.0859922
0.0856035
0.0851783
0.0847181
0.0842242
0.0836984
0.0831423
0.0825578
0.081947
0.0813118
0.0806547
0.0799781
0.0792844
0.0785765
0.0778573
0.0771298
0.0763972
0.0756631
0.0749309
0.0742045
0.0734879
0.0727853
0.0721011
0.0714397
0.070806
0.0702048
0.0696411
0.06912
0.0686464
0.0682253
0.0678613
0.0675587
0.0673211
0.0671512
0.0670494
0.0670156
0.0670645
0.0672062
-2.53101e-05
0.000119604
0.000162589
0.000118596
6.401e-06
-0.00017196
-0.000414585
-0.000717952
-0.00107803
-0.00149048
-0.00195071
-0.00245397
-0.00299542
-0.00357026
-0.00417375
-0.00480124
-0.00544829
-0.00611059
-0.00678402
-0.00746464
-0.00814869
-0.0088326
-0.00951302
-0.0101868
-0.0108508
-0.0115024
-0.0121388
-0.0127575
-0.0133563
-0.0139328
-0.0144852
-0.0150114
-0.0155097
-0.0159785
-0.0164162
-0.0168215
-0.017193
-0.0175296
-0.0178302
-0.0180938
-0.0183194
-0.0185064
-0.018654
-0.0187616
-0.0188286
-0.0188546
-0.0188392
-0.018782
-0.0186829
-0.0185415
-0.0183579
-0.0181319
-0.0178635
-0.0175528
-0.0171999
-0.0168049
-0.0163681
-0.0158898
-0.0153701
-0.0148096
-0.0142085
-0.0135674
-0.0128866
-0.0121668
-0.0114084
-0.0106121
-0.00977855
-0.00890834
-0.0080022
-0.00706085
-0.00608507
-0.00507563
-0.00403337
-0.00295912
-0.00185377
-0.00071822
0.000446607
0.00163976
0.00286025
0.00410709
0.00537926
0.0066757
0.00799537
0.00933718
0.0107
0.0120828
0.0134843
0.0149035
0.0163392
0.0177901
0.0192551
0.0207329
0.0222224
0.0237224
0.0252315
0.0267485
0.0282721
0.0298011
0.0313342
0.0328702
0.0344076
0.0359452
0.0374818
0.039016
0.0405464
0.0420719
0.043591
0.0451025
0.0466051
0.0480974
0.0495782
0.0510462
0.0525001
0.0539386
0.0553605
0.0567644
0.0581492
0.0595135
0.0608563
0.0621762
0.0634721
0.0647428
0.0659872
0.0672041
0.0683925
0.0695511
0.0706791
0.0717753
0.0728387
0.0738685
0.0748635
0.0758229
0.0767459
0.0776316
0.0784791
0.0792878
0.080057
0.0807858
0.0814737
0.0821202
0.0827246
0.0832865
0.0838055
0.0842811
0.0847131
0.0851012
0.0854451
0.0857447
0.086
0.0862109
0.0863774
0.0864998
0.0865781
0.0866127
0.0866038
0.086552
0.0864577
0.0863216
0.0861442
0.0859263
0.0856689
0.0853728
0.0850392
0.0846691
0.0842638
0.0838247
0.0833532
0.082851
0.0823197
0.0817612
0.0811775
0.0805705
0.0799426
0.0792961
0.0786335
0.0779574
0.0772706
0.0765762
0.0758772
0.075177
0.0744789
0.0737866
0.0731039
0.0724347
0.0717832
0.0711536
0.0705504
0.069978
0.0694411
0.0689442
0.0684921
0.068089
0.0677394
0.0674471
0.0672159
0.0670489
0.0669473
0.0669127
0.0669641
0.0671161
0.000174705
0.000312972
0.000349708
0.00030057
0.000185286
6.87035e-06
-0.000232203
-0.000528207
-0.000877175
-0.00127502
-0.00171747
-0.00220016
-0.00271864
-0.00326849
-0.00384533
-0.00444488
-0.00506299
-0.00569562
-0.00633892
-0.00698914
-0.00764274
-0.00829633
-0.00894669
-0.00959079
-0.0102257
-0.0108488
-0.0114575
-0.0120493
-0.012622
-0.0131734
-0.0137016
-0.0142048
-0.0146811
-0.015129
-0.0155469
-0.0159336
-0.0162877
-0.016608
-0.0168936
-0.0171433
-0.0173564
-0.017532
-0.0176695
-0.0177682
-0.0178275
-0.017847
-0.0178263
-0.017765
-0.017663
-0.0175199
-0.0173357
-0.0171103
-0.0168436
-0.0165358
-0.0161869
-0.015797
-0.0153664
-0.0148952
-0.0143839
-0.0138326
-0.0132418
-0.0126119
-0.0119434
-0.0112368
-0.0104925
-0.00971123
-0.00889355
-0.00804009
-0.00715154
-0.0062286
-0.00527202
-0.00428256
-0.00326102
-0.00220822
-0.00112503
-1.23081e-05
0.00112903
0.00229806
0.00349382
0.00471535
0.00596164
0.00723168
0.00852442
0.00983882
0.0111738
0.0125283
0.0139011
0.0152912
0.0166973
0.0181185
0.0195534
0.0210008
0.0224597
0.0239288
0.0254068
0.0268925
0.0283848
0.0298823
0.0313837
0.032888
0.0343937
0.0358996
0.0374044
0.0389069
0.0404057
0.0418997
0.0433874
0.0448677
0.0463392
0.0478007
0.0492509
0.0506886
0.0521124
0.0535212
0.0549137
0.0562886
0.0576449
0.0589811
0.0602962
0.061589
0.0628583
0.0641029
0.0653218
0.0665139
0.067678
0.0688131
0.0699182
0.0709923
0.0720344
0.0730435
0.0740187
0.0749592
0.0758641
0.0767325
0.0775638
0.0783571
0.0791118
0.0798272
0.0805027
0.0811378
0.0817319
0.0822845
0.0827953
0.0832639
0.0836899
0.0840732
0.0844135
0.0847107
0.0849647
0.0851756
0.0853433
0.0854681
0.0855501
0.0855896
0.0855869
0.0855425
0.0854569
0.0853307
0.0851646
0.0849592
0.0847155
0.0844344
0.084117
0.0837643
0.0833776
0.0829583
0.0825078
0.0820277
0.0815196
0.0809853
0.0804267
0.0798459
0.079245
0.0786264
0.0779923
0.0773454
0.0766885
0.0760243
0.0753558
0.0746863
0.0740189
0.0733571
0.0727046
0.072065
0.0714423
0.0708404
0.0702633
0.0697155
0.069201
0.0687241
0.0682891
0.0679001
0.0675611
0.0672758
0.067048
0.066881
0.0667769
0.0667383
0.0667852
0.0669337
0.000467277
0.000586687
0.000609762
0.000550817
0.000428502
0.00024631
7.05154e-06
-0.000285494
-0.000627464
-0.00101497
-0.00144404
-0.00191059
-0.00241054
-0.00293978
-0.00349429
-0.00407009
-0.00466332
-0.00527021
-0.00588712
-0.00651054
-0.00713711
-0.00776362
-0.00838702
-0.0090044
-0.009613
-0.0102102
-0.0107936
-0.0113607
-0.0119095
-0.0124379
-0.0129439
-0.0134257
-0.0138816
-0.0143101
-0.0147097
-0.0150791
-0.0154169
-0.0157221
-0.0159937
-0.0162305
-0.0164318
-0.0165968
-0.0167247
-0.016815
-0.0168671
-0.0168806
-0.0168549
-0.0167898
-0.0166851
-0.0165404
-0.0163558
-0.016131
-0.0158661
-0.015561
-0.0152159
-0.0148309
-0.0144062
-0.013942
-0.0134385
-0.0128962
-0.0123152
-0.0116961
-0.0110394
-0.0103453
-0.00961461
-0.00884772
-0.00804527
-0.00720787
-0.00633619
-0.0054309
-0.00449274
-0.00352244
-0.00252077
-0.00148856
-0.000426615
0.000664197
0.001783
0.00292888
0.00410091
0.00529814
0.0065196
0.00776428
0.00903119
0.0103193
0.0116275
0.0129548
0.0143001
0.0156622
0.0170401
0.0184326
0.0198386
0.021257
0.0226864
0.0241258
0.025574
0.0270298
0.0284919
0.0299591
0.0314303
0.0329041
0.0343794
0.0358549
0.0373293
0.0388014
0.0402699
0.0417336
0.0431913
0.0446416
0.0460834
0.0475153
0.0489362
0.0503448
0.0517399
0.0531203
0.0544846
0.0558319
0.0571607
0.0584701
0.0597587
0.0610256
0.0622694
0.0634891
0.0646837
0.0658519
0.0669929
0.0681055
0.0691888
0.0702417
0.0712634
0.0722528
0.0732092
0.0741316
0.0750192
0.0758712
0.0766869
0.0774656
0.0782065
0.0789091
0.0795728
0.080197
0.0807812
0.081325
0.081828
0.0822898
0.0827102
0.0830889
0.0834257
0.0837205
0.0839733
0.0841841
0.0843529
0.0844799
0.0845652
0.0846093
0.0846124
0.0845749
0.0844974
0.0843805
0.0842248
0.0840311
0.0838001
0.083533
0.0832306
0.0828941
0.0825247
0.0821238
0.0816927
0.0812329
0.0807461
0.0802341
0.0796987
0.0791419
0.0785657
0.0779724
0.0773644
0.076744
0.0761139
0.0754769
0.0748358
0.0741936
0.0735534
0.0729186
0.0722925
0.0716786
0.0710806
0.0705022
0.0699473
0.0694196
0.0689232
0.0684621
0.0680401
0.0676612
0.067329
0.0670472
0.0668193
0.066649
0.0665387
0.0664917
0.0665271
0.06666
0.000846852
0.000937366
0.000939897
0.000866272
0.00073271
0.000542828
0.000299584
6.66816e-06
-0.000332217
-0.000713391
-0.00113312
-0.00158763
-0.00207313
-0.00258583
-0.00312199
-0.00367794
-0.00425007
-0.00483486
-0.0054289
-0.00602889
-0.00663166
-0.00723418
-0.00783355
-0.008427
-0.00901189
-0.00958573
-0.0101461
-0.0106909
-0.0112179
-0.0117251
-0.0122106
-0.0126728
-0.01311
-0.0135206
-0.0139032
-0.0142565
-0.0145793
-0.0148705
-0.0151289
-0.0153538
-0.0155441
-0.0156991
-0.0158182
-0.0159007
-0.0159461
-0.0159538
-0.0159236
-0.015855
-0.0157478
-0.0156017
-0.0154166
-0.0151925
-0.0149293
-0.0146269
-0.0142856
-0.0139053
-0.0134862
-0.0130286
-0.0125328
-0.011999
-0.0114275
-0.0108188
-0.0101732
-0.00949129
-0.00877352
-0.00802042
-0.00723258
-0.00641058
-0.00555507
-0.00466671
-0.0037462
-0.00279427
-0.00181168
-0.000799194
0.000242363
0.00131216
0.00240934
0.00353301
0.00468228
0.0058562
0.00705383
0.0082742
0.00951631
0.0107792
0.0120617
0.0133629
0.0146818
0.0160171
0.0173679
0.018733
0.0201112
0.0215016
0.0229028
0.0243138
0.0257334
0.0271604
0.0285936
0.0300319
0.0314739
0.0329186
0.0343647
0.035811
0.0372563
0.0386992
0.0401387
0.0415735
0.0430023
0.044424
0.0458373
0.0472409
0.0486337
0.0500145
0.0513821
0.0527352
0.0540727
0.0553934
0.0566961
0.0579797
0.0592431
0.0604851
0.0617046
0.0629005
0.0640718
0.0652173
0.0663362
0.0674273
0.0684897
0.0695225
0.0705247
0.0714953
0.0724337
0.0733388
0.0742099
0.0750463
0.0758471
0.0766118
0.0773397
0.0780301
0.0786824
0.0792963
0.0798711
0.0804064
0.080902
0.0813573
0.0817722
0.0821465
0.08248
0.0827725
0.0830241
0.0832347
0.0834044
0.0835334
0.0836219
0.0836702
0.0836786
0.0836475
0.0835775
0.0834692
0.0833232
0.0831403
0.0829212
0.0826669
0.0823785
0.082057
0.0817036
0.0813195
0.0809063
0.0804653
0.0799981
0.0795065
0.0789923
0.0784573
0.0779036
0.0773334
0.0767488
0.0761523
0.0755464
0.0749337
0.0743169
0.073699
0.0730828
0.0724714
0.0718682
0.0712763
0.0706994
0.0701407
0.0696039
0.0690925
0.0686103
0.068161
0.0677482
0.0673755
0.0670464
0.0667644
0.0665331
0.0663558
0.0662354
0.0661752
0.0661924
0.0662997
0.00130632
0.00135997
0.00133598
0.00124307
0.00109413
0.0008927
0.000641753
0.000344785
5.28752e-06
-0.000373281
-0.000787436
-0.00123367
-0.00170848
-0.00220837
-0.00272987
-0.00326958
-0.00382412
-0.00439022
-0.00496468
-0.0055444
-0.00612642
-0.00670785
-0.00728596
-0.00785812
-0.00842181
-0.00897466
-0.00951438
-0.0100388
-0.010546
-0.0110339
-0.0115009
-0.0119451
-0.012365
-0.0127591
-0.0131261
-0.0134646
-0.0137735
-0.0140516
-0.014298
-0.0145116
-0.0146918
-0.0148376
-0.0149485
-0.0150237
-0.0150628
-0.0150653
-0.0150308
-0.014959
-0.0148495
-0.0147022
-0.0145168
-0.0142934
-0.0140319
-0.0137322
-0.0133944
-0.0130186
-0.0126051
-0.0121539
-0.0116653
-0.0111397
-0.0105773
-0.00997847
-0.0093437
-0.0086734
-0.00796805
-0.00722818
-0.00645433
-0.00564709
-0.00480709
-0.00393496
-0.00303138
-0.00209707
-0.00113275
-0.000139195
0.000882812
0.00193246
0.0030089
0.00411128
0.0052387
0.00639027
0.00756504
0.00876208
0.00998041
0.0112191
0.012477
0.0137532
0.0150467
0.0163563
0.017681
0.0190198
0.0203715
0.021735
0.0231092
0.024493
0.0258851
0.0272845
0.02869
0.0301005
0.0315147
0.0329314
0.0343496
0.0357679
0.0371852
0.0386003
0.0400119
0.041419
0.0428202
0.0442144
0.0456004
0.046977
0.0483429
0.0496971
0.0510383
0.0523654
0.0536772
0.0549725
0.0562502
0.0575093
0.0587485
0.0599667
0.061163
0.0623361
0.0634852
0.0646091
0.0657068
0.0667774
0.0678199
0.0688334
0.069817
0.0707698
0.0716909
0.0725796
0.073435
0.0742564
0.0750431
0.0757945
0.0765098
0.0771886
0.0778302
0.0784341
0.0789999
0.0795272
0.0800156
0.0804648
0.0808745
0.0812445
0.0815747
0.081865
0.0821153
0.0823257
0.0824962
0.082627
0.0827183
0.0827705
0.0827837
0.0827586
0.0826956
0.0825952
0.0824582
0.0822852
0.0820771
0.0818348
0.0815592
0.0812514
0.0809127
0.0805442
0.0801473
0.0797235
0.0792743
0.0788013
0.0783063
0.0777912
0.0772579
0.0767084
0.076145
0.0755699
0.0749856
0.0743944
0.0737992
0.0732024
0.0726071
0.072016
0.0714324
0.0708592
0.0702997
0.0697572
0.0692349
0.0687363
0.0682647
0.0678235
0.0674162
0.0670462
0.0667167
0.0664311
0.0661927
0.0660049
0.0658703
0.0657925
0.0657854
0.0658592
0.00183804
0.00184867
0.00179321
0.00167687
0.00150872
0.0012921
0.00102992
0.000725423
0.000381848
2.41009e-06
-0.00040966
-0.000851122
-0.00131874
-0.00180928
-0.00231955
-0.00284636
-0.00338659
-0.00393719
-0.00449516
-0.00505761
-0.00562173
-0.00618484
-0.00674433
-0.00729772
-0.00784261
-0.00837674
-0.00889793
-0.00940414
-0.00989341
-0.0103639
-0.0108139
-0.0112418
-0.0116459
-0.012025
-0.0123776
-0.0127026
-0.0129986
-0.0132647
-0.0134999
-0.0137033
-0.013874
-0.0140114
-0.0141146
-0.0141832
-0.0142165
-0.0142142
-0.0141757
-0.0141009
-0.0139894
-0.013841
-0.0136555
-0.0134328
-0.0131729
-0.0128758
-0.0125416
-0.0121702
-0.0117619
-0.0113169
-0.0108353
-0.0103175
-0.00976384
-0.00917457
-0.00855014
-0.00789096
-0.00719752
-0.00647032
-0.00570989
-0.00491679
-0.00409164
-0.00323506
-0.0023477
-0.00143027
-0.000483468
0.000491954
0.00149523
0.00252556
0.00358213
0.0046641
0.0057706
0.00690074
0.00805361
0.00922829
0.0104238
0.0116393
0.0128736
0.0141259
0.015395
0.01668
0.0179798
0.0192934
0.0206196
0.0219574
0.0233057
0.0246633
0.0260292
0.0274022
0.0287812
0.030165
0.0315525
0.0329425
0.0343339
0.0357254
0.037116
0.0385044
0.0398894
0.0412699
0.0426448
0.0440127
0.0453726
0.0467233
0.0480635
0.0493923
0.0507083
0.0520105
0.0532977
0.0545688
0.0558226
0.0570582
0.0582743
0.0594699
0.060644
0.0617954
0.0629232
0.0640265
0.0651041
0.0661551
0.0671787
0.0681738
0.0691397
0.0700754
0.0709801
0.0718531
0.0726935
0.0735007
0.0742739
0.0750126
0.075716
0.0763837
0.077015
0.0776095
0.0781668
0.0786864
0.079168
0.0796112
0.0800159
0.0803819
0.0807089
0.080997
0.081246
0.0814561
0.0816272
0.0817596
0.0818535
0.0819091
0.0819269
0.0819072
0.0818506
0.0817575
0.0816287
0.0814649
0.0812668
0.0810354
0.0807717
0.0804765
0.0801512
0.079797
0.0794151
0.0790069
0.078574
0.0781179
0.0776403
0.0771431
0.0766281
0.0760973
0.0755527
0.0749966
0.0744313
0.0738592
0.0732827
0.0727044
0.072127
0.0715532
0.070986
0.0704283
0.0698831
0.0693534
0.0688423
0.068353
0.0678885
0.0674521
0.067047
0.0666763
0.0663431
0.0660506
0.0658017
0.0655998
0.0654474
0.0653478
0.0653116
0.0653454
0.00243439
0.00239731
0.00230635
0.00216301
0.00197221
0.00173705
0.00146038
0.00114514
0.000794272
0.000410744
-2.47538e-06
-0.000442408
-0.000906071
-0.00139049
-0.00189269
-0.00240973
-0.00293871
-0.00347678
-0.00402116
-0.00456914
-0.00511809
-0.00566548
-0.00620886
-0.00674587
-0.00727425
-0.00779184
-0.00829657
-0.00878649
-0.00925974
-0.00971455
-0.0101493
-0.0105623
-0.0109522
-0.0113176
-0.0116571
-0.0119696
-0.0122539
-0.0125091
-0.012734
-0.012928
-0.01309
-0.0132195
-0.0133158
-0.0133782
-0.0134062
-0.0133995
-0.0133575
-0.01328
-0.0131667
-0.0130173
-0.0128318
-0.01261
-0.0123518
-0.0120572
-0.0117263
-0.0113592
-0.010956
-0.0105169
-0.0100421
-0.00953187
-0.00898652
-0.00840638
-0.00779185
-0.00714334
-0.00646131
-0.00574623
-0.00499865
-0.00421909
-0.00340816
-0.00256646
-0.00169464
-0.000793361
0.000136671
0.00109473
0.00208008
0.00309192
0.00412947
0.0051919
0.00627836
0.00738798
0.00851989
0.00967316
0.0108469
0.0120401
0.0132519
0.0144812
0.015727
0.0169885
0.0182644
0.0195538
0.0208556
0.0221688
0.0234923
0.024825
0.0261657
0.0275134
0.028867
0.0302254
0.0315873
0.0329518
0.0343175
0.0356835
0.0370485
0.0384114
0.039771
0.0411261
0.0424757
0.0438186
0.0451535
0.0464794
0.0477952
0.0490996
0.0503916
0.0516701
0.0529338
0.0541818
0.0554129
0.056626
0.0578201
0.0589941
0.060147
0.0612778
0.0623854
0.0634689
0.0645274
0.0655598
0.0665652
0.0675429
0.0684919
0.0694114
0.0703005
0.0711585
0.0719847
0.0727784
0.0735388
0.0742654
0.0749575
0.0756145
0.0762361
0.0768216
0.0773707
0.077883
0.078358
0.0787957
0.0791956
0.0795576
0.0798816
0.0801674
0.0804152
0.0806248
0.0807965
0.0809302
0.0810264
0.0810852
0.081107
0.0810923
0.0810414
0.0809551
0.0808338
0.0806784
0.0804895
0.0802681
0.0800151
0.0797315
0.0794184
0.0790771
0.0787087
0.0783147
0.0778965
0.0774556
0.0769937
0.0765126
0.0760139
0.0754996
0.0749717
0.0744324
0.0738838
0.0733281
0.0727678
0.0722053
0.0716431
0.0710838
0.0705302
0.0699849
0.0694509
0.0689309
0.0684279
0.0679447
0.0674843
0.0670496
0.0666435
0.066269
0.065929
0.0656263
0.0653639
0.0651445
0.0649709
0.064846
0.0647765
0.0647657
0.003088
0.0029997
0.00287001
0.00269666
0.00248019
0.00222351
0.0019294
0.00160047
0.00123937
0.000848781
0.000431427
-9.96856e-06
-0.000472667
-0.000953923
-0.001451
-0.00196116
-0.00248174
-0.00301007
-0.00354357
-0.00407972
-0.00461605
-0.00515019
-0.00567983
-0.00620273
-0.00671678
-0.00721991
-0.00771016
-0.00818567
-0.00864468
-0.00908549
-0.00950652
-0.00990625
-0.0102833
-0.0106363
-0.0109639
-0.0112652
-0.0115388
-0.011784
-0.0119996
-0.0121849
-0.0123391
-0.0124614
-0.0125513
-0.0126081
-0.0126313
-0.0126205
-0.0125753
-0.0124955
-0.0123806
-0.0122305
-0.012045
-0.011824
-0.0115675
-0.0112755
-0.0109479
-0.010585
-0.0101867
-0.00975326
-0.00928494
-0.00878196
-0.00824461
-0.00767323
-0.00706819
-0.00642989
-0.00575877
-0.00505531
-0.00432001
-0.00355341
-0.00275609
-0.00192862
-0.00107165
-0.000185832
0.000728163
0.00166962
0.00263781
0.00363197
0.00465132
0.00569506
0.00676236
0.00785236
0.00896421
0.010097
0.0112499
0.0124218
0.013612
0.0148194
0.016043
0.0172818
0.0185349
0.0198013
0.0210798
0.0223695
0.0236692
0.024978
0.0262947
0.0276183
0.0289476
0.0302816
0.0316192
0.0329592
0.0343005
0.035642
0.0369826
0.0383211
0.0396564
0.0409874
0.0423129
0.0436318
0.0449429
0.0462453
0.0475376
0.0488189
0.050088
0.0513438
0.0525852
0.0538111
0.0550205
0.0562123
0.0573854
0.0585389
0.0596716
0.0607827
0.0618711
0.0629358
0.063976
0.0649907
0.065979
0.06694
0.067873
0.068777
0.0696513
0.0704951
0.0713078
0.0720886
0.0728368
0.0735519
0.0742332
0.0748803
0.0754925
0.0760695
0.0766108
0.077116
0.0775849
0.0780171
0.0784124
0.0787706
0.0790916
0.0793754
0.0796218
0.0798309
0.0800029
0.0801379
0.080236
0.0802977
0.0803232
0.0803129
0.0802673
0.080187
0.0800726
0.0799247
0.0797442
0.0795319
0.0792886
0.0790155
0.0787135
0.0783838
0.0780277
0.0776464
0.0772414
0.0768141
0.0763662
0.0758992
0.075415
0.0749153
0.0744021
0.0738773
0.0733431
0.0728016
0.072255
0.0717058
0.0711562
0.0706087
0.0700659
0.0695303
0.0690046
0.0684915
0.0679936
0.0675136
0.0670543
0.0666183
0.0662084
0.0658272
0.0654775
0.0651619
0.0648829
0.0646433
0.0644454
0.0642922
0.0641862
0.064127
0.00379186
0.00364974
0.0034788
0.00327294
0.00302823
0.00274743
0.00243325
0.00208797
0.00171394
0.00131358
0.000889357
0.000443749
-2.07331e-05
-0.000501568
-0.00099623
-0.00150221
-0.00201702
-0.00253821
-0.00306338
-0.00359017
-0.00411629
-0.00463949
-0.00515762
-0.00566858
-0.00617035
-0.00666099
-0.00713865
-0.00760156
-0.00804803
-0.00847646
-0.00888533
-0.0092732
-0.0096387
-0.00998056
-0.0102976
-0.0105886
-0.0108527
-0.0110888
-0.0112959
-0.0114734
-0.0116204
-0.0117363
-0.0118203
-0.011872
-0.0118909
-0.0118766
-0.0118285
-0.0117465
-0.0116303
-0.0114796
-0.0112943
-0.0110743
-0.0108196
-0.01053
-0.0102057
-0.0098467
-0.00945318
-0.00902527
-0.00856318
-0.00806716
-0.00753749
-0.00697449
-0.00637853
-0.00575
-0.00508932
-0.00439696
-0.00367342
-0.00291921
-0.00213488
-0.00132103
-0.000478252
0.000392802
0.00129147
0.00221706
0.00316886
0.00414613
0.0051481
0.00617398
0.00722296
0.00829422
0.0093869
0.0105001
0.0116331
0.0127847
0.0139542
0.0151406
0.016343
0.0175603
0.0187916
0.0200359
0.0212922
0.0225594
0.0238365
0.0251225
0.0264162
0.0277168
0.029023
0.0303337
0.031648
0.0329647
0.0342827
0.0356008
0.0369181
0.0382334
0.0395455
0.0408534
0.042156
0.043452
0.0447406
0.0460204
0.0472905
0.0485497
0.0497969
0.0510312
0.0522513
0.0534563
0.054645
0.0558165
0.0569697
0.0581036
0.0592172
0.0603095
0.0613796
0.0624266
0.0634494
0.0644472
0.0654192
0.0663645
0.0672822
0.0681715
0.0690318
0.0698622
0.070662
0.0714305
0.0721672
0.0728714
0.0735425
0.07418
0.0747834
0.0753522
0.0758861
0.0763847
0.0768477
0.0772747
0.0776655
0.0780201
0.0783382
0.0786198
0.0788649
0.0790735
0.0792457
0.0793816
0.0794815
0.0795457
0.0795744
0.0795681
0.0795273
0.0794524
0.0793442
0.0792032
0.0790302
0.0788261
0.0785916
0.0783278
0.0780358
0.0777165
0.0773713
0.0770014
0.0766081
0.0761929
0.0757573
0.0753029
0.0748313
0.0743443
0.0738437
0.0733314
0.0728095
0.0722799
0.0717448
0.0712065
0.0706671
0.0701289
0.0695943
0.0690658
0.0685458
0.0680368
0.0675413
0.0670618
0.0666009
0.066161
0.0657445
0.0653541
0.0649921
0.0646608
0.0643628
0.0641002
0.0638755
0.0636914
0.0635463
0.063436
0.00453938
0.0043416
0.00412746
0.00388706
0.00361195
0.00330478
0.00296821
0.00260421
0.00221482
0.00180223
0.00136864
0.000916304
0.000447519
-3.54104e-05
-0.000530168
-0.00103445
-0.00154595
-0.00206243
-0.00258163
-0.00310138
-0.00361953
-0.00413398
-0.00464272
-0.00514376
-0.00563521
-0.00611525
-0.00658211
-0.00703413
-0.0074697
-0.0078873
-0.00828548
-0.00866286
-0.00901815
-0.00935013
-0.00965763
-0.00993959
-0.010195
-0.0104229
-0.0106225
-0.0107929
-0.0109335
-0.0110435
-0.0111224
-0.0111695
-0.0111845
-0.0111669
-0.0111164
-0.0110326
-0.0109152
-0.0107641
-0.0105792
-0.0103602
-0.0101072
-0.00982006
-0.00949893
-0.00914384
-0.00875491
-0.00833229
-0.00787619
-0.00738685
-0.00686454
-0.00630957
-0.0057223
-0.00510311
-0.00445242
-0.00377067
-0.00305835
-0.00231596
-0.00154406
-0.000743192
8.60302e-05
0.000942987
0.00182703
0.00273748
0.00367364
0.00463478
0.00562015
0.00662899
0.0076605
0.00871387
0.00978826
0.0108828
0.0119967
0.013129
0.0142788
0.0154453
0.0166273
0.0178241
0.0190346
0.0202579
0.0214929
0.0227387
0.0239942
0.0252584
0.0265303
0.0278089
0.029093
0.0303816
0.0316737
0.0329682
0.0342639
0.0355599
0.036855
0.0381481
0.0394382
0.0407241
0.0420048
0.0432792
0.0445461
0.0458046
0.0470534
0.0482917
0.0495182
0.0507319
0.0519318
0.0531168
0.054286
0.0554382
0.0565724
0.0576877
0.0587832
0.0598577
0.0609105
0.0619405
0.0629469
0.0639288
0.0648853
0.0658156
0.0667189
0.0675943
0.0684412
0.0692588
0.0700465
0.0708034
0.0715292
0.072223
0.0728844
0.0735128
0.0741079
0.074669
0.0751959
0.0756881
0.0761454
0.0765675
0.0769541
0.0773051
0.0776204
0.0779
0.0781437
0.0783516
0.0785238
0.0786605
0.0787619
0.0788283
0.0788599
0.0788571
0.0788205
0.0787506
0.0786479
0.078513
0.0783468
0.0781499
0.0779233
0.0776679
0.0773847
0.0770748
0.0767392
0.0763793
0.0759964
0.0755917
0.0751669
0.0747233
0.0742627
0.0737866
0.0732967
0.072795
0.0722833
0.0717635
0.0712378
0.0707081
0.0701765
0.0696453
0.0691166
0.0685927
0.0680759
0.0675686
0.067073
0.0665915
0.0661265
0.0656801
0.0652547