2 	-9.37415 	-2.68069e-17 	1.02126 	-0.0132015 	1.98198e-21
2 	-8.69899 	-2.63403e-17 	1.0235 	-0.014936 	1.48282e-21
2 	-8.03174 	-2.66103e-17 	1.0261 	-0.0163803 	-4.36433e-22
2 	-7.37229 	-2.36867e-17 	1.02928 	-0.0192369 	-1.23067e-22
2 	-6.88233 	-2.20773e-17 	1.03296 	-0.020589 	-4.63256e-21
2 	-6.55837 	-2.08035e-17 	1.03237 	-0.0210492 	-1.06691e-21
2 	-6.07643 	-1.66025e-17 	1.03692 	-0.0258297 	-2.27438e-21
2 	-5.43983 	-1.37768e-17 	1.04322 	-0.0286924 	3.07497e-22
2 	-5.11668 	-1.13232e-17 	1.04736 	-0.0317944 	-1.73548e-20
2 	-4.96919 	-7.69532e-18 	1.04849 	-0.0307772 	5.47431e-20
2 	-4.82676 	-4.62939e-18 	1.0496 	-0.0297206 	-4.29627e-20
2 	-4.69874 	-3.5354e-18 	1.05217 	-0.0330075 	7.5804e-20
2 	-4.55243 	-2.61984e-18 	1.05336 	-0.0320229 	-4.04356e-20
2 	-4.43541 	3.28152e-19 	1.05631 	-0.0354379 	-5.97718e-20
2 	-4.29179 	3.46255e-18 	1.05759 	-0.0343368 	-1.5294e-20
2 	-4.18433 	3.5744e-18 	1.06061 	-0.0379458 	5.48002e-20
2 	-4.04319 	1.00512e-18 	1.06198 	-0.0368233 	-2.90199e-20
2 	-3.94409 	-1.44521e-18 	1.06523 	-0.041012 	-1.18958e-21
2 	-3.83348 	-2.65016e-18 	1.0667 	-0.0398385 	-1.27157e-19
2 	-3.71316 	-2.0392e-18 	1.06817 	-0.0386272 	1.17146e-19
2 	-3.62792 	-1.3985e-18 	1.07177 	-0.0430789 	-9.30954e-20
2 	-3.49179 	-8.96387e-19 	1.07334 	-0.0418267 	1.27568e-19
2 	-3.41101 	9.47546e-19 	1.07491 	-0.0405398 	-2.53783e-19
2 	-3.3367 	1.32623e-18 	1.07887 	-0.0455403 	-8.03131e-20
2 	-3.20027 	1.11631e-18 	1.08056 	-0.0442131 	1.45765e-19
2 	-3.13057 	-1.73472e-18 	1.08479 	-0.0496569 	-6.82197e-20
2 	-3.05876 	-4.18381e-18 	1.08658 	-0.0482913 	-1.28587e-20
2 	-2.9314 	-4.9004e-18 	1.08838 	-0.0468901 	-2.79133e-20
2 	-2.86733 	-1.80992e-18 	1.09018 	-0.0454533 	-2.10583e-19
2 	-2.80891 	-5.95056e-18 	1.0949 	-0.0515023 	1.88404e-19
2 	-2.69742 	-6.49318e-18 	1.09682 	-0.0500316 	-1.19696e-19
2 	-2.61725 	-3.02e-18 	1.09874 	-0.0485243 	8.72087e-20
2 	-2.56471 	-2.42489e-18 	1.10387 	-0.0551815 	1.19153e-19
2 	-2.487 	-3.79076e-19 	1.10591 	-0.0536489 	1.20352e-19
2 	-2.38935 	2.62267e-18 	1.10796 	-0.0520803 	-8.88984e-20
2 	-2.32938 	4.54058e-18 	1.11002 	-0.0504752 	-1.3414e-19
2 	-2.28387 	4.31438e-18 	1.11568 	-0.0579068 	-1.20631e-19
2 	-2.20713 	3.88942e-18 	1.11787 	-0.0562851 	-9.55957e-21
2 	-2.12186 	5.40974e-18 	1.12007 	-0.0546264 	-1.23715e-19
2 	-2.05769 	6.0306e-18 	1.12228 	-0.0529295 	-1.7638e-19
2 	-2.01763 	5.55112e-18 	1.12844 	-0.0612371 	3.01256e-19
2 	-1.96148 	5.55112e-18 	1.13076 	-0.059547 	-3.35766e-19
2 	-1.88587 	5.05886e-18 	1.13307 	-0.057819 	-9.24636e-20
2 	-1.81301 	2.81588e-18 	1.13537 	-0.0560509 	2.14106e-19
2 	-1.75942 	5.32577e-19 	1.13763 	-0.0542395 	-1.72889e-19
2 	-1.72488 	1.73472e-18 	1.14375 	-0.0636055 	-1.18379e-19
2 	-1.67476 	3.46945e-18 	1.14574 	-0.0617824 	6.08243e-19
2 	-1.60902 	6.03819e-18 	1.1475 	-0.0598963 	-8.89006e-19
2 	-1.54532 	4.6287e-18 	1.1489 	-0.0579351 	4.06711e-19
2 	-1.48352 	9.07613e-19 	1.14978 	-0.0558834 	-1.29574e-19
2 	-1.43952 	6.88169e-19 	1.14993 	-0.0537216 	4.38673e-19
2 	-1.40994 	1.05797e-19 	1.14837 	-0.0636981 	1.38698e-19
2 	-1.36514 	-3.1225e-18 	1.14461 	-0.0612259 	1.34334e-19
2 	-1.30832 	-6.245e-18 	1.1386 	-0.0585211 	-5.18442e-19
2 	-1.25294 	-9.51333e-18 	1.12968 	-0.0555388 	4.48812e-19
2 	-1.19891 	-1.37089e-17 	1.11705 	-0.0522318 	-8.27461e-19
2 	-1.14614 	-1.30591e-17 	1.09978 	-0.0485562 	8.93625e-19
2 	-1.09454 	-1.19972e-17 	1.07684 	-0.0444788 	3.18521e-19
2 	-1.06737 	-1.32857e-17 	1.04716 	-0.0399892 	-5.50401e-19
2 	-1.04239 	-1.53562e-17 	0.979498 	-0.0455119 	-2.13587e-19
2 	-0.99456 	-1.66533e-17 	0.93039 	-0.0399992 	6.02572e-20
2 	-0.946041 	-1.66533e-17 	0.873277 	-0.0343533 	4.49199e-20
2 	-0.898415 	-1.49186e-17 	0.808707 	-0.0287861 	-4.19616e-19
2 	-0.851623 	-1.5284e-17 	0.737831 	-0.0235378 	1.52066e-19
2 	-0.805606 	-1.60417e-17 	0.662315 	-0.018838 	-2.26369e-20
2 	-0.760312 	-1.44925e-17 	0.584127 	-0.0148624 	5.55828e-19
2 	-0.715689 	-1.33064e-17 	0.505276 	-0.0117035 	-1.44821e-19
2 	-0.671689 	-1.32017e-17 	0.427562 	-0.00936163 	-2.61343e-19
2 	-0.628266 	2.8979e-18 	0.352423 	-0.00776002 	-1.95592e-19
2 	-0.59159 	4.79349e-18 	0.280876 	-0.00677073 	1.64296e-19
2 	-0.570272 	3.46945e-18 	0.197634 	-0.013144 	2.25126e-19
2 	-0.542975 	-1.73472e-18 	0.140618 	-0.0127351 	1.31884e-20
2 	-0.501025 	-5.20417e-18 	0.0879219 	-0.012485 	-3.0831e-19
2 	-0.459485 	-4.85723e-18 	0.0394529 	-0.0122913 	2.30746e-19
2 	-0.418319 	-5.89806e-18 	-0.00490443 	-0.012076 	1.58804e-20
2 	-0.377489 	-5.55112e-18 	-0.0452564 	-0.0117841 	-1.74768e-19
2 	-0.336961 	-5.20417e-18 	-0.0816808 	-0.0113794 	-1.06184e-19
2 	-0.296701 	-4.85723e-18 	-0.11422 	-0.0108404 	-8.05338e-20
2 	-0.256674 	-5.20417e-18 	-0.142883 	-0.0101583 	-5.96541e-20
2 	-0.216849 	-5.55112e-18 	-0.167647 	-0.00933424 	1.76309e-19
2 	-0.177193 	-6.93889e-18 	-0.188468 	-0.00837798 	-1.49618e-19
2 	-0.137675 	-8.32667e-18 	-0.20529 	-0.00730597 	1.02947e-19
2 	-0.098263 	-8.67362e-18 	-0.218053 	-0.00614032 	8.03095e-20
2 	-0.0589275 	-7.63278e-18 	-0.226704 	-0.00490763 	-5.02318e-20
2 	-0.0196374 	-6.59195e-18 	-0.231204 	-0.00363776 	-1.51441e-20
2 	0.0196374 	-4.16334e-18 	-0.231533 	-0.00236251 	-1.41027e-20
2 	0.0589275 	1.04083e-18 	-0.227695 	-0.00111405 	-4.64228e-20
2 	0.098263 	-1.04083e-18 	-0.219719 	7.64645e-05 	8.19752e-20
2 	0.137675 	-3.81639e-18 	-0.20765 	0.0011807 	9.6868e-20
2 	0.177193 	-3.46945e-18 	-0.19155 	0.00217477 	-1.5629e-19
2 	0.216849 	-4.85723e-18 	-0.171483 	0.00304083 	1.53592e-19
2 	0.256674 	-3.1225e-18 	-0.147505 	0.0037687 	-5.35337e-20
2 	0.296701 	-4.51028e-18 	-0.119653 	0.00435748 	-8.52148e-20
2 	0.336961 	-1.11022e-17 	-0.0879333 	0.00481705 	-1.31067e-19
2 	0.377489 	-1.45717e-17 	-0.0523137 	0.00516974 	-1.21294e-19
2 	0.418319 	-1.56125e-17 	-0.0127174 	0.00545222 	2.54102e-20
2 	0.459485 	-1.83881e-17 	0.0309737 	0.00571711 	2.79109e-19
2 	0.501025 	-2.15106e-17 	0.0789064 	0.0060339 	-2.98832e-19
2 	0.542975 	-2.15106e-17 	0.13123 	0.00649122 	-1.17927e-20
2 	0.570272 	-2.17983e-17 	0.188055 	0.00719759 	2.15444e-19
2 	0.59159 	-2.53314e-17 	0.268271 	0.00527037 	1.35934e-19
2 	0.628266 	-2.86993e-17 	0.339576 	0.00655896 	9.93599e-21
2 	0.671689 	-6.67125e-18 	0.414704 	0.00853843 	-4.69223e-20
2 	0.715689 	-7.23482e-18 	0.492612 	0.0113108 	-1.93753e-19
2 	0.760312 	-5.64545e-18 	0.57183 	0.0149218 	5.46454e-19
2 	0.805606 	-6.50067e-18 	0.650519 	0.0193398 	5.0128e-21
2 	0.851623 	-1.23349e-17 	0.726641 	0.0244458 	1.28526e-19
2 	0.898415 	-1.63064e-17 	0.798194 	0.0300444 	-4.17939e-19
2 	0.946041 	-1.94289e-17 	0.863483 	0.0358948 	6.03497e-20
2 	0.99456 	-2.56739e-17 	0.921328 	0.0417527 	1.15664e-19
2 	1.04239 	-2.87057e-17 	0.971154 	0.0474084 	-2.15962e-19
2 	1.06737 	-2.8023e-17 	1.03925 	0.0449063 	-5.7388e-19
2 	1.09454 	-2.83036e-17 	1.06983 	0.0491989 	2.59329e-19
2 	1.14614 	-3.12737e-17 	1.09355 	0.0530449 	8.82201e-19
2 	1.19891 	-3.5393e-17 	1.11149 	0.0564678 	-8.33513e-19
2 	1.25294 	-3.6922e-17 	1.12469 	0.0595113 	5.23455e-19
2 	1.30832 	-3.60822e-17 	1.13409 	0.0622282 	-4.36833e-19
2 	1.36514 	-3.60822e-17 	1.14053 	0.0646717 	1.31997e-19
2 	1.40994 	-3.866e-17 	1.14466 	0.0668913 	1.34628e-19
2 	1.43952 	-3.73838e-17 	1.14759 	0.0579454 	3.71267e-19
2 	1.48352 	-3.55216e-17 	1.14764 	0.0597595 	-1.17371e-19
2 	1.54532 	-3.7807e-17 	1.14694 	0.0614901 	2.59055e-19
2 	1.60902 	-3.98669e-17 	1.1457 	0.0631557 	-9.41013e-19
2 	1.67476 	-4.16334e-17 	1.14408 	0.0647702 	5.90772e-19
2 	1.72488 	-3.99149e-17 	1.1422 	0.0663441 	-9.44256e-20
2 	1.75942 	-3.90354e-17 	1.13708 	0.0572266 	-2.01165e-19
2 	1.81301 	-3.69093e-17 	1.13484 	0.0587868 	2.71793e-19
2 	1.88587 	-3.32785e-17 	1.13256 	0.060326 	-1.86441e-19
2 	1.96148 	-3.57353e-17 	1.13026 	0.0618453 	-2.95097e-19
2 	2.01763 	-4.13628e-17 	1.12795 	0.063345 	3.35388e-19
2 	2.05769 	-4.46997e-17 	1.12245 	0.0549702 	-1.625e-19
2 	2.12186 	-4.64151e-17 	1.1202 	0.0565026 	-5.89682e-20
2 	2.20713 	-4.62007e-17 	1.11796 	0.058011 	-9.92577e-20
2 	2.28387 	-4.61212e-17 	1.11573 	0.0594954 	-7.06209e-20
2 	2.32938 	-4.76297e-17 	1.1105 	0.051874 	-1.89544e-19
2 	2.38935 	-4.72073e-17 	1.10838 	0.0533743 	-1.06802e-19
2 	2.487 	-4.70865e-17 	1.10627 	0.0548468 	8.23314e-20
2 	2.56471 	-4.53234e-17 	1.10417 	0.056291 	1.11371e-19
2 	2.61725 	-4.38368e-17 	1.09929 	0.0494227 	7.91025e-20
2 	2.69742 	-4.32693e-17 	1.0973 	0.0508707 	-6.47581e-20
2 	2.80891 	-4.33156e-17 	1.09532 	0.0522863 	1.67062e-19
2 	2.86733 	-4.54199e-17 	1.09074 	0.0460327 	-3.19265e-21
2 	2.9314 	-4.41052e-17 	1.08888 	0.0474388 	-1.16916e-20
2 	3.05876 	-4.37355e-17 	1.08702 	0.0488107 	4.51657e-20
2 	3.13057 	-4.52311e-17 	1.08518 	0.0501485 	2.8957e-19
2 	3.20027 	1.36035e-17 	1.08101 	0.0445473 	1.18128e-19
2 	3.3367 	9.07542e-18 	1.07928 	0.0458631 	-8.71006e-20
2 	3.41101 	7.29654e-18 	1.07533 	0.040727 	7.79759e-20
2 	3.49179 	6.57889e-18 	1.07372 	0.0420146 	1.24358e-19
2 	3.62792 	6.87268e-18 	1.07211 	0.0432664 	-1.24353e-19
2 	3.71316 	9.01913e-18 	1.0685 	0.0387149 	-4.75617e-20
2 	3.83348 	9.43229e-18 	1.067 	0.0399331 	-1.25082e-19
2 	3.94409 	1.03342e-17 	1.0655 	0.041112 	2.4507e-20
2 	4.04319 	1.03342e-17 	1.06223 	0.0368541 	-5.66076e-20
2 	4.18433 	9.30394e-18 	1.06084 	0.0379857 	1.93341e-20
2 	4.29179 	8.68347e-18 	1.05779 	0.0343257 	6.77266e-20
2 	4.43541 	9.66904e-18 	1.05649 	0.0354379 	-6.4268e-20
2 	4.55243 	1.32242e-17 	1.05351 	0.0319913 	-9.51188e-21
2 	4.69874 	1.26664e-17 	1.05231 	0.0329867 	6.8803e-20
2 	4.82676 	1.07572e-17 	1.04972 	0.0296728 	-3.13537e-20
2 	4.96919 	1.10868e-17 	1.04859 	0.0307402 	5.17977e-20
2 	5.11668 	1.10351e-17 	1.04746 	0.0317669 	-2.11099e-20
2 	5.43983 	1.10351e-17 	1.04329 	0.0286625 	1.20035e-21
2 	6.07643 	1.11022e-17 	1.03695 	0.0257989 	-2.23764e-21
2 	6.55837 	1.04074e-17 	1.03239 	0.0210265 	-1.28039e-21
2 	6.88233 	1.28231e-17 	1.03298 	0.0205638 	-4.94159e-21
2 	7.37229 	1.48667e-17 	1.02929 	0.0192188 	9.39109e-22
2 	8.03174 	9.26308e-18 	1.0261 	0.0163679 	1.70674e-22
2 	8.69899 	4.00573e-18 	1.0235 	0.0149279 	1.05424e-22
2 	9.37415 	2.91105e-18 	1.02126 	0.0131963 	7.71294e-22
