/*--------------------------------*- C++ -*----------------------------------*\
  =========                 |
  \\      /  F ield         | OpenFOAM: The Open Source CFD Toolbox
   \\    /   O peration     | Website:  https://openfoam.org
    \\  /    A nd           | Version:  7
     \\/     M anipulation  |
\*---------------------------------------------------------------------------*/
FoamFile
{
    version     2.0;
    format      ascii;
    class       volScalarField;
    location    "3";
    object      T;
}
// * * * * * * * * * * * * * * * * * * * * * * * * * * * * * * * * * * * * * //

dimensions      [0 0 0 1 0 0 0];

internalField   nonuniform List<scalar> 
2413
(
1.16842
1.17909
1.18785
1.19533
1.20211
1.20815
1.21399
1.21985
1.2257
1.23149
1.23718
1.24274
1.24824
1.25374
1.25917
1.26435
1.26911
1.27346
1.27749
1.28126
1.28487
1.28833
1.29162
1.29471
1.29765
1.30051
1.30333
1.30612
1.30892
1.31177
1.31467
1.31755
1.32038
1.32315
1.32592
1.32861
1.33122
1.33375
1.33623
1.33874
1.3412
1.3438
1.34686
1.35038
1.35437
1.35914
1.36344
1.36469
1.36315
1.35735
1.34357
1.0179
1.01995
1.02192
1.02382
1.0256
1.0273
1.0289
1.03042
1.03185
1.03323
1.03454
1.03582
1.03706
1.03827
1.03946
1.04062
1.04178
1.04295
1.04416
1.04539
1.0466
1.04777
1.04889
1.04994
1.05096
1.05193
1.05291
1.05389
1.05494
1.05616
1.05784
1.06055
1.06485
1.07135
1.08092
1.09414
1.11047
1.12817
1.14541
1.16081
1.17355
1.18374
1.19201
1.19939
1.20588
1.21191
1.21779
1.22357
1.22934
1.23527
1.24132
1.24738
1.25322
1.25866
1.26375
1.26859
1.27324
1.27772
1.28199
1.28597
1.28965
1.29309
1.29638
1.29959
1.30269
1.30576
1.30882
1.31186
1.31484
1.31785
1.3209
1.32394
1.32696
1.32996
1.33292
1.33582
1.33863
1.34135
1.34412
1.34702
1.35005
1.35365
1.35799
1.36296
1.36768
1.37007
1.36921
1.36447
1.01542
1.01731
1.0191
1.02085
1.02252
1.02414
1.02569
1.0272
1.02867
1.03011
1.0315
1.03286
1.0342
1.03554
1.03687
1.03821
1.03955
1.04091
1.04231
1.04377
1.04528
1.04683
1.04838
1.04991
1.05136
1.05272
1.05401
1.05522
1.05638
1.05754
1.05873
1.06001
1.06144
1.0632
1.06604
1.07057
1.07695
1.08722
1.10186
1.11961
1.13796
1.15491
1.16932
1.18088
1.19008
1.19788
1.20469
1.21078
1.21681
1.22292
1.22908
1.23521
1.24115
1.24696
1.25277
1.25855
1.26434
1.26997
1.27525
1.28012
1.2846
1.28876
1.29266
1.29644
1.30017
1.30374
1.30715
1.31043
1.31358
1.31666
1.31977
1.32303
1.32635
1.32968
1.33296
1.33611
1.33909
1.34206
1.345
1.3479
1.3509
1.3543
1.3581
1.36254
1.36759
1.37293
1.3763
1.3757
1.01562
1.01724
1.01879
1.02031
1.02177
1.02319
1.02458
1.02595
1.0273
1.02866
1.03001
1.03134
1.03265
1.03397
1.03531
1.03668
1.03808
1.03952
1.04097
1.04247
1.04404
1.04568
1.04741
1.04921
1.05106
1.05297
1.05484
1.05665
1.05837
1.06001
1.06154
1.06298
1.06441
1.06582
1.06732
1.06907
1.07138
1.07502
1.08035
1.08795
1.10017
1.11669
1.13521
1.15308
1.16859
1.18113
1.19108
1.19939
1.20682
1.2133
1.21947
1.22549
1.23149
1.23765
1.24382
1.25027
1.2569
1.26342
1.26957
1.27536
1.28082
1.28595
1.29072
1.2951
1.29912
1.30293
1.30662
1.31017
1.31364
1.31706
1.32047
1.32383
1.32713
1.33037
1.33351
1.33662
1.33974
1.34292
1.3461
1.3493
1.35255
1.35598
1.3596
1.36359
1.36813
1.3734
1.37903
1.38295
1.02736
1.02822
1.02904
1.02982
1.03055
1.03126
1.03195
1.03264
1.03334
1.03407
1.03488
1.0358
1.03675
1.03772
1.03872
1.03976
1.04087
1.04207
1.04336
1.04473
1.04616
1.04769
1.04931
1.051
1.05274
1.05462
1.05661
1.05867
1.06069
1.06268
1.06461
1.06647
1.06826
1.07001
1.07169
1.07339
1.07523
1.07706
1.07918
1.08223
1.08694
1.09342
1.10378
1.11888
1.13716
1.15556
1.17196
1.18534
1.19583
1.20425
1.21157
1.21776
1.22398
1.23047
1.23692
1.24336
1.24999
1.25658
1.26314
1.26972
1.27615
1.28231
1.28806
1.29328
1.29802
1.30249
1.30679
1.31101
1.31503
1.31882
1.32232
1.32556
1.32863
1.33165
1.33466
1.33777
1.34095
1.34424
1.34759
1.35105
1.35457
1.35816
1.36178
1.36557
1.36976
1.37454
1.3799
1.3858
1.05543
1.05551
1.0555
1.05546
1.05536
1.05526
1.05513
1.05502
1.05488
1.05474
1.05455
1.05431
1.0541
1.05395
1.05387
1.05387
1.05395
1.05415
1.0545
1.0551
1.05584
1.0567
1.05768
1.05885
1.0602
1.06155
1.0629
1.0643
1.0658
1.06739
1.0691
1.07094
1.07283
1.07475
1.07668
1.07858
1.08046
1.08232
1.08413
1.08611
1.08819
1.09098
1.09517
1.10113
1.11024
1.12423
1.14215
1.16082
1.17767
1.19145
1.20211
1.21062
1.21829
1.22519
1.23203
1.23847
1.24447
1.25041
1.25683
1.2636
1.2705
1.27742
1.28402
1.29018
1.29603
1.30157
1.3068
1.31173
1.31636
1.32052
1.32418
1.32749
1.33058
1.33361
1.33663
1.33973
1.34288
1.34612
1.34947
1.35296
1.35653
1.36016
1.36386
1.36771
1.37186
1.37639
1.38159
1.38773
1.10083
1.10032
1.0996
1.09875
1.09772
1.09657
1.0953
1.09395
1.09255
1.09112
1.0897
1.08831
1.08697
1.08568
1.08448
1.08336
1.08231
1.08131
1.08031
1.07926
1.07825
1.07737
1.07662
1.07606
1.07576
1.07579
1.07602
1.07647
1.07703
1.07766
1.07828
1.07903
1.08009
1.08138
1.08291
1.08465
1.08644
1.08828
1.09012
1.09194
1.09378
1.09568
1.09779
1.10034
1.10415
1.10976
1.11802
1.13104
1.14843
1.16739
1.18498
1.19961
1.21084
1.21957
1.22721
1.23379
1.24016
1.24661
1.25271
1.25872
1.26531
1.27224
1.27915
1.28614
1.29312
1.29981
1.30609
1.31179
1.31684
1.32136
1.32557
1.32942
1.33297
1.33631
1.33947
1.34251
1.34548
1.34849
1.3516
1.35487
1.35826
1.36183
1.36562
1.36966
1.37403
1.37886
1.38437
1.39044
1.1552
1.15503
1.15458
1.15388
1.15292
1.15173
1.15029
1.14865
1.14681
1.14479
1.14261
1.14028
1.13783
1.13528
1.13264
1.12995
1.12721
1.12447
1.12173
1.11905
1.11642
1.11385
1.11133
1.10882
1.10627
1.1037
1.10126
1.09898
1.09697
1.09545
1.09446
1.09388
1.09361
1.09356
1.09372
1.09408
1.09482
1.09592
1.09734
1.09891
1.10046
1.10203
1.10372
1.10553
1.10763
1.11004
1.11352
1.11869
1.12619
1.13812
1.15472
1.17357
1.19136
1.20639
1.21815
1.22734
1.23541
1.24289
1.24972
1.25636
1.26255
1.26836
1.27468
1.28175
1.28911
1.29649
1.30371
1.31027
1.31602
1.32126
1.3262
1.33095
1.33538
1.33932
1.34274
1.34573
1.34849
1.35122
1.35402
1.35699
1.36015
1.36359
1.36739
1.37162
1.37638
1.3817
1.38751
1.39348
1.20599
1.207
1.20772
1.20812
1.20827
1.20807
1.20754
1.20669
1.20554
1.20408
1.20236
1.20036
1.19813
1.19565
1.19294
1.18999
1.18679
1.18336
1.17969
1.17579
1.17165
1.16728
1.1627
1.15795
1.15312
1.14824
1.14338
1.13856
1.13378
1.12902
1.12439
1.12008
1.11629
1.11329
1.1112
1.10992
1.10914
1.10873
1.10864
1.10874
1.10926
1.11012
1.11127
1.11254
1.11394
1.11558
1.11753
1.11981
1.12292
1.12755
1.1343
1.14495
1.16047
1.17923
1.19782
1.21405
1.22688
1.2367
1.24499
1.25268
1.25941
1.26605
1.27263
1.27882
1.28523
1.29235
1.29973
1.30672
1.31336
1.31979
1.32589
1.33166
1.33694
1.34157
1.34543
1.34863
1.35149
1.35421
1.35691
1.3597
1.36264
1.36588
1.36955
1.37383
1.37882
1.38441
1.39036
1.39633
1.24245
1.24493
1.2472
1.24923
1.25101
1.2525
1.25367
1.25449
1.25495
1.25509
1.25491
1.25439
1.25358
1.25246
1.251
1.2492
1.24703
1.24451
1.24161
1.23831
1.23458
1.23038
1.22569
1.22049
1.21476
1.2085
1.20174
1.19457
1.18709
1.17949
1.1719
1.16445
1.15724
1.1503
1.14373
1.13777
1.13274
1.12887
1.12618
1.12453
1.12339
1.12263
1.12217
1.1221
1.12249
1.12332
1.12441
1.12576
1.12739
1.12941
1.13207
1.13602
1.14203
1.1513
1.16541
1.18363
1.20263
1.2198
1.2339
1.24477
1.25361
1.26178
1.26918
1.27622
1.28332
1.28994
1.296
1.30238
1.30944
1.31675
1.32397
1.33091
1.33708
1.34225
1.34659
1.35054
1.35411
1.35736
1.36031
1.36308
1.36579
1.3687
1.37209
1.37622
1.38116
1.38675
1.39273
1.39866
1.261
1.26491
1.26871
1.27237
1.27586
1.27913
1.28216
1.2849
1.28733
1.28939
1.29109
1.29245
1.29352
1.29428
1.29468
1.29478
1.29451
1.29387
1.29288
1.2915
1.28967
1.28734
1.28443
1.2809
1.2767
1.27176
1.26601
1.25942
1.25197
1.24368
1.23462
1.22494
1.21483
1.20453
1.19431
1.18447
1.1752
1.16656
1.1586
1.15154
1.1458
1.14157
1.13887
1.13718
1.13594
1.13498
1.13442
1.13439
1.13483
1.13577
1.137
1.13866
1.14085
1.14413
1.14936
1.15722
1.16971
1.18696
1.20628
1.2246
1.24025
1.25251
1.26217
1.27074
1.27873
1.28559
1.29244
1.29953
1.30636
1.31324
1.3207
1.32826
1.3351
1.34106
1.34641
1.35134
1.3559
1.36004
1.36355
1.36647
1.36904
1.37169
1.37482
1.37873
1.38347
1.3889
1.39468
1.40007
1.26619
1.27079
1.27541
1.28001
1.28455
1.28896
1.29326
1.29737
1.30133
1.30506
1.30854
1.31175
1.31473
1.31749
1.31999
1.32219
1.32407
1.32559
1.32675
1.32755
1.32795
1.32798
1.32753
1.32654
1.32499
1.32283
1.31996
1.31622
1.31148
1.30563
1.29859
1.29032
1.28089
1.27041
1.25903
1.24697
1.23445
1.22177
1.20929
1.19744
1.18663
1.17693
1.16834
1.16111
1.15562
1.15196
1.14977
1.14816
1.14681
1.14576
1.14532
1.14552
1.14628
1.14761
1.14935
1.15193
1.15623
1.16282
1.17346
1.18914
1.20823
1.22748
1.2447
1.25859
1.26926
1.27818
1.28674
1.29499
1.30305
1.31104
1.31847
1.32505
1.33131
1.33774
1.34432
1.3506
1.3564
1.36138
1.36553
1.36891
1.37175
1.37455
1.37774
1.38155
1.38608
1.39113
1.39616
1.40042
1.26526
1.27022
1.27523
1.28022
1.28521
1.29014
1.29502
1.29979
1.30449
1.30912
1.31371
1.31827
1.32268
1.32689
1.33088
1.33463
1.33811
1.34127
1.34407
1.34647
1.34855
1.35034
1.35185
1.35309
1.35404
1.35461
1.35481
1.35447
1.35331
1.35119
1.34798
1.3435
1.33765
1.33044
1.32188
1.31191
1.30052
1.28778
1.27396
1.25943
1.24462
1.22997
1.21599
1.20323
1.19198
1.1822
1.17398
1.1677
1.16341
1.16074
1.15879
1.15707
1.15572
1.1551
1.15523
1.15601
1.15731
1.15927
1.16258
1.16801
1.17668
1.19027
1.20838
1.22806
1.24683
1.26306
1.27595
1.28626
1.2954
1.30377
1.3109
1.31789
1.32551
1.33317
1.34047
1.34779
1.35485
1.36096
1.36591
1.36993
1.37362
1.3772
1.3809
1.38486
1.38913
1.39338
1.39696
1.40004
1.25771
1.26293
1.26832
1.27383
1.27948
1.28519
1.29093
1.29662
1.30221
1.30774
1.31318
1.31848
1.32358
1.32848
1.33318
1.33771
1.3421
1.34635
1.35047
1.35442
1.35804
1.36132
1.36428
1.36692
1.36926
1.37133
1.37322
1.3749
1.37626
1.37707
1.37726
1.37661
1.3748
1.37184
1.36772
1.36225
1.35527
1.34663
1.33629
1.32422
1.31045
1.29517
1.27883
1.26206
1.24553
1.22989
1.21572
1.20333
1.19266
1.18382
1.17713
1.17253
1.16954
1.16735
1.16543
1.16404
1.16349
1.1637
1.16455
1.16606
1.16857
1.17295
1.17975
1.19086
1.2071
1.22641
1.24596
1.2636
1.27805
1.28941
1.2989
1.30807
1.31708
1.32626
1.33542
1.34407
1.35173
1.35835
1.36418
1.36956
1.3746
1.37938
1.384
1.38833
1.3922
1.39517
1.39723
1.39971
1.24444
1.24967
1.25516
1.2608
1.26665
1.27265
1.27882
1.2851
1.29146
1.29782
1.3041
1.31028
1.31634
1.32231
1.32822
1.33403
1.33968
1.34513
1.35032
1.35523
1.35983
1.36409
1.36799
1.37157
1.37493
1.37819
1.38114
1.38379
1.38617
1.38833
1.3903
1.39196
1.39318
1.3938
1.3937
1.39263
1.39034
1.38667
1.38149
1.37456
1.36566
1.35466
1.34159
1.32657
1.30987
1.29197
1.27357
1.2555
1.23858
1.22345
1.21031
1.19917
1.19024
1.18369
1.17932
1.17639
1.17412
1.17218
1.17102
1.1707
1.17113
1.17226
1.17421
1.17768
1.1832
1.19185
1.20528
1.22299
1.2426
1.26194
1.27924
1.29354
1.30523
1.31554
1.3252
1.33399
1.34223
1.35048
1.35872
1.36646
1.3737
1.38035
1.38626
1.3912
1.39454
1.39617
1.39722
1.4001
1.22418
1.22917
1.2345
1.24011
1.24602
1.25221
1.25864
1.26529
1.2721
1.27897
1.28585
1.2927
1.29955
1.30637
1.31314
1.31985
1.32648
1.33302
1.33944
1.34572
1.35188
1.35789
1.3637
1.36923
1.37432
1.37882
1.38271
1.38608
1.38906
1.39183
1.39447
1.39701
1.39953
1.40197
1.40405
1.40566
1.40667
1.40701
1.40652
1.40468
1.40123
1.39594
1.38859
1.37901
1.36701
1.35266
1.33618
1.31796
1.29855
1.27876
1.25955
1.24189
1.22639
1.21317
1.20234
1.19411
1.18831
1.18449
1.18172
1.17936
1.17773
1.17703
1.17722
1.17816
1.17991
1.18283
1.18735
1.19396
1.20411
1.21886
1.23702
1.25632
1.2747
1.29077
1.30431
1.316
1.32701
1.33794
1.34888
1.35974
1.37
1.3791
1.38687
1.39283
1.39616
1.39746
1.39869
1.40226
1.1949
1.19941
1.2044
1.20983
1.21571
1.22199
1.22862
1.23557
1.24281
1.25032
1.25809
1.26607
1.27417
1.2823
1.29039
1.29841
1.30634
1.31414
1.32174
1.32912
1.33628
1.34327
1.35011
1.35679
1.36321
1.36922
1.37479
1.37986
1.38442
1.38852
1.39234
1.39605
1.39966
1.40313
1.40642
1.40944
1.41212
1.4146
1.41655
1.41762
1.4179
1.41718
1.41514
1.41139
1.40552
1.39737
1.38677
1.37356
1.35773
1.33962
1.31971
1.29875
1.2778
1.25807
1.24055
1.2256
1.21327
1.20364
1.19662
1.19183
1.18843
1.18569
1.18381
1.18298
1.18308
1.18403
1.18585
1.18849
1.19222
1.1974
1.20474
1.21582
1.23111
1.2493
1.26864
1.28746
1.30462
1.31987
1.33367
1.3469
1.35974
1.37176
1.38229
1.3904
1.39554
1.39836
1.40149
1.40713
1.1534
1.15709
1.16133
1.16614
1.1715
1.17739
1.18377
1.19067
1.19813
1.2062
1.21491
1.22424
1.2341
1.24434
1.25476
1.26523
1.27562
1.28586
1.29585
1.30546
1.31461
1.32331
1.33161
1.33953
1.34706
1.35417
1.36078
1.36685
1.37231
1.37716
1.38153
1.38575
1.39021
1.39511
1.4004
1.40572
1.41069
1.41495
1.41841
1.42119
1.42341
1.42528
1.42621
1.42618
1.42501
1.42244
1.41808
1.41133
1.40197
1.38986
1.3748
1.35691
1.33675
1.31511
1.29306
1.27189
1.25282
1.23642
1.22278
1.21206
1.20412
1.19858
1.19463
1.1916
1.18968
1.1889
1.189
1.19003
1.1919
1.19439
1.19765
1.20185
1.20746
1.21536
1.22714
1.2429
1.26151
1.28141
1.30111
1.31979
1.33734
1.35382
1.36886
1.38157
1.39073
1.39686
1.40294
1.416
1.10906
1.11179
1.11502
1.11877
1.12302
1.12776
1.13303
1.13889
1.14541
1.15268
1.16077
1.16971
1.17957
1.19041
1.20214
1.21452
1.22738
1.24062
1.25413
1.26763
1.28077
1.29328
1.30501
1.31592
1.32601
1.33527
1.34365
1.35111
1.35766
1.36337
1.36823
1.37226
1.37605
1.38035
1.38554
1.39152
1.39806
1.40479
1.4113
1.41722
1.42223
1.42607
1.42882
1.43074
1.43212
1.43273
1.43234
1.43056
1.4273
1.42195
1.41364
1.40224
1.38777
1.37025
1.35012
1.32817
1.30546
1.2833
1.26308
1.24559
1.23099
1.21944
1.21079
1.20473
1.20044
1.19732
1.1955
1.19486
1.19503
1.19614
1.19809
1.20062
1.20364
1.20737
1.21199
1.2181
1.22679
1.23955
1.25663
1.27727
1.30018
1.32352
1.34524
1.36361
1.37795
1.38923
1.4008
1.42689
1.08467
1.08683
1.08932
1.09211
1.09518
1.09859
1.10233
1.10634
1.1106
1.11519
1.12023
1.12589
1.13223
1.13947
1.14808
1.15796
1.16914
1.18171
1.19574
1.21123
1.22757
1.24428
1.26094
1.27714
1.29252
1.30682
1.31973
1.33107
1.34078
1.34893
1.3556
1.36076
1.36426
1.36703
1.37014
1.37422
1.37967
1.38642
1.39402
1.40196
1.40978
1.41702
1.42346
1.42882
1.43273
1.4352
1.43677
1.43788
1.43809
1.43705
1.43418
1.42954
1.42231
1.4118
1.39786
1.38067
1.3606
1.33846
1.3153
1.29244
1.27135
1.25307
1.23788
1.22575
1.21665
1.21032
1.20593
1.20287
1.20123
1.20077
1.20115
1.20243
1.20449
1.2071
1.21005
1.21351
1.21777
1.22328
1.23074
1.24151
1.25709
1.27728
1.3003
1.32345
1.34479
1.36471
1.38966
1.43247
1.07903
1.08136
1.08376
1.08618
1.08856
1.09103
1.09365
1.09631
1.09913
1.10228
1.10578
1.10954
1.11343
1.11713
1.12028
1.12373
1.12821
1.13441
1.14251
1.15299
1.16573
1.18068
1.19786
1.21713
1.23759
1.25847
1.27885
1.29768
1.31416
1.32797
1.33921
1.34804
1.354
1.35704
1.359
1.36087
1.3636
1.36802
1.37421
1.38181
1.39037
1.39942
1.40846
1.41693
1.42423
1.43028
1.4352
1.4388
1.441
1.44198
1.4428
1.44235
1.44014
1.43582
1.42903
1.41904
1.40552
1.38861
1.36872
1.34656
1.32316
1.29982
1.27809
1.25918
1.24354
1.23104
1.22174
1.2153
1.21096
1.20822
1.20697
1.20683
1.2075
1.20898
1.21112
1.21379
1.21695
1.22077
1.22577
1.23232
1.24026
1.24982
1.2622
1.27795
1.29752
1.3225
1.36348
1.41926
1.12296
1.1296
1.13596
1.14168
1.14638
1.14955
1.15089
1.15087
1.14907
1.14528
1.13994
1.1337
1.12755
1.12237
1.11858
1.11662
1.11678
1.1188
1.1219
1.1245
1.1278
1.13328
1.14187
1.15452
1.17097
1.19101
1.21428
1.23921
1.26415
1.28765
1.30865
1.32639
1.3399
1.34791
1.35157
1.35329
1.35413
1.35534
1.35817
1.36313
1.37009
1.37869
1.38841
1.39863
1.40845
1.41731
1.42516
1.4318
1.43717
1.44154
1.44466
1.4464
1.44727
1.44726
1.44549
1.44114
1.4344
1.42465
1.41154
1.39497
1.3752
1.35293
1.32926
1.30557
1.28342
1.26405
1.24792
1.23533
1.22618
1.21991
1.21584
1.21353
1.21268
1.21284
1.2139
1.21582
1.21847
1.22189
1.22616
1.23133
1.23738
1.24402
1.25058
1.25797
1.26831
1.28689
1.32965
1.38477
1.26277
1.27654
1.2899
1.30207
1.31266
1.32098
1.32629
1.32838
1.32658
1.32002
1.30868
1.29283
1.27276
1.24931
1.22431
1.19869
1.17351
1.15056
1.13281
1.12226
1.11775
1.11748
1.11938
1.1218
1.127
1.13663
1.1513
1.17058
1.19447
1.22186
1.25102
1.27989
1.30598
1.32631
1.33893
1.34558
1.34824
1.34878
1.34919
1.35094
1.35482
1.3607
1.36856
1.37817
1.38891
1.3995
1.40954
1.41863
1.42662
1.4336
1.43956
1.44459
1.44851
1.45077
1.45159
1.45141
1.44974
1.44562
1.43902
1.42949
1.41649
1.40001
1.38024
1.35778
1.33369
1.30951
1.28697
1.26738
1.25113
1.23869
1.22978
1.22383
1.2203
1.21872
1.21856
1.21943
1.22142
1.22443
1.22836
1.23313
1.23846
1.24351
1.24786
1.2531
1.26181
1.28322
1.32381
1.36288
1.48616
1.50299
1.52043
1.53665
1.55137
1.56425
1.5746
1.58169
1.58496
1.58379
1.57709
1.56413
1.54451
1.51759
1.48308
1.44106
1.39245
1.33932
1.28439
1.23177
1.18605
1.14997
1.1265
1.11709
1.11565
1.11704
1.1186
1.1236
1.13517
1.15435
1.17987
1.21054
1.24431
1.27768
1.30574
1.32551
1.33751
1.34275
1.344
1.34426
1.34561
1.34869
1.35352
1.3604
1.36932
1.37977
1.39069
1.40162
1.41195
1.42131
1.42948
1.43663
1.44275
1.44781
1.45189
1.4544
1.4551
1.45497
1.45329
1.44921
1.44278
1.43361
1.42087
1.40428
1.38392
1.36061
1.33581
1.31127
1.28866
1.26887
1.25288
1.24098
1.23267
1.22748
1.22491
1.22428
1.22507
1.22743
1.23111
1.23572
1.2406
1.24475
1.24816
1.2526
1.26224
1.29016
1.32851
1.35697
1.70646
1.71571
1.72594
1.73642
1.74584
1.75497
1.76428
1.77362
1.7824
1.78989
1.79485
1.79698
1.79476
1.78593
1.76842
1.74069
1.70116
1.64868
1.58361
1.5076
1.42399
1.34079
1.26592
1.20353
1.15646
1.12608
1.11365
1.11199
1.11412
1.11855
1.12867
1.14711
1.17373
1.20764
1.24458
1.27817
1.30573
1.32447
1.33427
1.33789
1.33927
1.34144
1.34459
1.34883
1.35485
1.3629
1.37248
1.38299
1.39408
1.40503
1.41535
1.42472
1.43298
1.43994
1.44597
1.45085
1.45481
1.45744
1.45823
1.45796
1.4564
1.45239
1.44623
1.43704
1.42391
1.40658
1.38561
1.36169
1.33617
1.31117
1.28818
1.26863
1.25341
1.24245
1.23533
1.23154
1.23038
1.2312
1.23359
1.23734
1.24125
1.24449
1.24731
1.25163
1.26596
1.3003
1.3323
1.35379
1.84009
1.84234
1.84394
1.84575
1.8466
1.84766
1.8501
1.85462
1.86129
1.86987
1.87945
1.88959
1.89957
1.90802
1.91311
1.91423
1.90902
1.89456
1.86723
1.8225
1.75676
1.66993
1.56799
1.4579
1.35087
1.25883
1.18781
1.13996
1.11509
1.10939
1.11156
1.1172
1.12826
1.14782
1.17773
1.21244
1.24776
1.28035
1.30557
1.32117
1.32886
1.33285
1.33669
1.34051
1.34468
1.35015
1.35732
1.36619
1.37643
1.38751
1.39873
1.40953
1.4195
1.42839
1.43615
1.44289
1.44873
1.45363
1.45768
1.46046
1.46158
1.46132
1.45958
1.45547
1.44887
1.43936
1.42584
1.40774
1.38538
1.3601
1.33369
1.308
1.28512
1.26654
1.25272
1.24355
1.23834
1.2364
1.23688
1.23876
1.2411
1.24289
1.24506
1.25034
1.2719
1.3075
1.33185
1.34606
1.87012
1.87299
1.8746
1.87617
1.87698
1.87784
1.87865
1.87981
1.88225
1.88693
1.89519
1.90665
1.92046
1.93553
1.95079
1.96512
1.97807
1.98726
1.99162
1.99016
1.97759
1.94563
1.88945
1.80335
1.68847
1.55473
1.41811
1.29709
1.20577
1.14662
1.11688
1.10912
1.11075
1.11654
1.1313
1.15698
1.18591
1.21794
1.25137
1.28076
1.30227
1.31577
1.32435
1.3312
1.33618
1.3405
1.34549
1.35191
1.36029
1.37046
1.3816
1.39304
1.40412
1.41441
1.42376
1.43214
1.4396
1.44623
1.45213
1.45715
1.46139
1.46436
1.46537
1.46504
1.4633
1.45931
1.45196
1.44074
1.42532
1.4055
1.3815
1.35456
1.32673
1.30078
1.27869
1.26166
1.24982
1.24278
1.23989
1.23923
1.23879
1.23844
1.23905
1.247
1.27565
1.30759
1.3242
1.33256
1.85564
1.86231
1.86811
1.87359
1.87819
1.88222
1.88504
1.88679
1.88828
1.8897
1.89228
1.89782
1.9073
1.92186
1.94109
1.96265
1.98359
2.0027
2.02011
2.0345
2.04514
2.05265
2.05204
2.0343
1.98392
1.89436
1.76503
1.6089
1.44914
1.31041
1.20876
1.14546
1.11529
1.10868
1.11197
1.12283
1.142
1.16471
1.19181
1.22282
1.25327
1.27945
1.2997
1.31438
1.32482
1.33192
1.33705
1.34208
1.34821
1.3563
1.36632
1.37736
1.38886
1.40022
1.41086
1.42047
1.42911
1.437
1.44425
1.45087
1.45675
1.46153
1.46546
1.46818
1.46914
1.46808
1.46487
1.45907
1.45001
1.43686
1.41887
1.39607
1.36944
1.34054
)
;

boundaryField
{
    inlet
    {
        type            fixedValue;
        value           nonuniform 0();
    }
    outlet
    {
        type            inletOutlet;
        inletValue      nonuniform 0();
        value           nonuniform 0();
    }
    bottom
    {
        type            symmetryPlane;
    }
    top
    {
        type            symmetryPlane;
    }
    obstacle
    {
        type            zeroGradient;
    }
    front
    {
        type            empty;
    }
    back
    {
        type            empty;
    }
    procBoundary12to4
    {
        type            processor;
        value           nonuniform List<scalar> 
89
(
1.19114
1.19805
1.20443
1.21035
1.21604
1.22162
1.22716
1.23273
1.23833
1.24387
1.24925
1.25438
1.25925
1.26392
1.26844
1.2728
1.27691
1.28068
1.28415
1.28736
1.29043
1.29342
1.29637
1.29924
1.30203
1.30475
1.30744
1.3101
1.31278
1.31548
1.31823
1.32097
1.32364
1.32617
1.3286
1.33092
1.33313
1.33527
1.33739
1.33959
1.34202
1.34478
1.34818
1.35239
1.3566
1.35924
1.35994
1.35827
1.3504
1.33507
1.31494
1.02146
1.02353
1.02549
1.02735
1.02908
1.03071
1.03222
1.03363
1.03494
1.03618
1.03734
1.03846
1.03951
1.04054
1.04152
1.04249
1.04344
1.04437
1.04526
1.04612
1.047
1.04791
1.04882
1.0498
1.05087
1.05207
1.05356
1.05573
1.05906
1.06408
1.07091
1.08038
1.09284
1.10776
1.12411
1.14044
1.15551
1.15551
)
;
    }
    procBoundary12to5
    {
        type            processor;
        value           nonuniform List<scalar> 
27
(
1.32385
1.35263
1.37226
1.38303
1.39071
1.39449
1.39678
1.39942
1.40206
1.40385
1.40441
1.40415
1.40394
1.40453
1.40603
1.41234
1.42656
1.44622
1.46407
1.47133
1.46136
1.42654
1.38924
1.37279
1.36496
1.35308
1.33717
)
;
    }
    procBoundary12to11
    {
        type            processor;
        value           nonuniform List<scalar> 
26
(
1.0158
1.01345
1.01398
1.02647
1.05527
1.10114
1.15509
1.20472
1.23978
1.25703
1.26161
1.26034
1.25266
1.23943
1.21949
1.19081
1.15025
1.10684
1.08286
1.07691
1.11642
1.24931
1.47064
1.69828
1.83469
1.86373
)
;
    }
    procBoundary12to19
    {
        type            processor;
        value           uniform 1.84795;
    }
    procBoundary12to20
    {
        type            processor;
        value           nonuniform List<scalar> 
89
(
1.31192
1.2863
1.26595
1.25196
1.24362
1.23849
1.23429
1.23161
1.23155
1.24356
1.27512
1.3018
1.31312
1.31794
1.82046
1.8279
1.8355
1.84329
1.85094
1.85907
1.86748
1.87529
1.88219
1.88516
1.8854
1.88597
1.88812
1.89544
1.91048
1.9318
1.95574
1.97863
1.99953
2.02012
2.04411
2.0705
2.09429
2.109
2.11406
2.10036
2.04544
1.9415
1.79314
1.61863
1.44492
1.29895
1.19681
1.13794
1.11525
1.11457
1.12404
1.13651
1.15014
1.17017
1.19656
1.22644
1.25668
1.28356
1.30442
1.31904
1.32922
1.33593
1.3416
1.34803
1.35619
1.36572
1.37609
1.38719
1.39846
1.40924
1.41906
1.42782
1.43566
1.44274
1.44913
1.4549
1.45996
1.46381
1.46653
1.4675
1.46711
1.46468
1.45897
1.44954
1.43654
1.42032
1.39988
1.31192
1.37463
)
;
    }
}


// ************************************************************************* //
