/*--------------------------------*- C++ -*----------------------------------*\
  =========                 |
  \\      /  F ield         | OpenFOAM: The Open Source CFD Toolbox
   \\    /   O peration     | Website:  https://openfoam.org
    \\  /    A nd           | Version:  7
     \\/     M anipulation  |
\*---------------------------------------------------------------------------*/
FoamFile
{
    version     2.0;
    format      ascii;
    class       volVectorField;
    location    "0.291";
    object      U;
}
// * * * * * * * * * * * * * * * * * * * * * * * * * * * * * * * * * * * * * //

dimensions      [0 1 -1 0 0 0 0];

internalField   nonuniform List<vector> 
40000
(
(-9.45266e-08 7.67388e-08 0)
(1.02001e-06 -7.65178e-07 0)
(4.30652e-06 -1.4603e-06 0)
(8.88421e-06 -1.83341e-06 0)
(1.40002e-05 -1.95707e-06 0)
(1.91219e-05 -1.90565e-06 0)
(2.38522e-05 -1.73336e-06 0)
(2.78977e-05 -1.47865e-06 0)
(3.10452e-05 -1.16798e-06 0)
(3.31406e-05 -8.19444e-07 0)
(3.40732e-05 -4.45681e-07 0)
(3.37652e-05 -5.5755e-08 0)
(3.2164e-05 3.43678e-07 0)
(2.92362e-05 7.47618e-07 0)
(2.49642e-05 1.15223e-06 0)
(1.93421e-05 1.55456e-06 0)
(1.2374e-05 1.95228e-06 0)
(4.07187e-06 2.34359e-06 0)
(-5.54599e-06 2.72704e-06 0)
(-1.6456e-05 3.10148e-06 0)
(-2.86305e-05 3.46598e-06 0)
(-4.20382e-05 3.81981e-06 0)
(-5.66449e-05 4.16238e-06 0)
(-7.24143e-05 4.49322e-06 0)
(-8.9308e-05 4.81199e-06 0)
(-0.000107286 5.11841e-06 0)
(-0.000126308 5.41225e-06 0)
(-0.000146331 5.69337e-06 0)
(-0.000167313 5.96165e-06 0)
(-0.000189211 6.21704e-06 0)
(-0.00021198 6.4595e-06 0)
(-0.000235576 6.68903e-06 0)
(-0.000259956 6.90566e-06 0)
(-0.000285076 7.10944e-06 0)
(-0.00031089 7.30043e-06 0)
(-0.000337355 7.47873e-06 0)
(-0.000364427 7.64443e-06 0)
(-0.000392062 7.79765e-06 0)
(-0.000420217 7.93849e-06 0)
(-0.00044885 8.0671e-06 0)
(-0.000477916 8.18363e-06 0)
(-0.000507375 8.2882e-06 0)
(-0.000537184 8.38099e-06 0)
(-0.000567302 8.46215e-06 0)
(-0.000597688 8.53184e-06 0)
(-0.000628302 8.59023e-06 0)
(-0.000659105 8.6375e-06 0)
(-0.000690058 8.67382e-06 0)
(-0.000721121 8.69937e-06 0)
(-0.000752256 8.71432e-06 0)
(-0.000783428 8.71887e-06 0)
(-0.000814598 8.7132e-06 0)
(-0.00084573 8.69749e-06 0)
(-0.00087679 8.67194e-06 0)
(-0.000907743 8.63673e-06 0)
(-0.000938553 8.59206e-06 0)
(-0.000969189 8.53811e-06 0)
(-0.000999616 8.47507e-06 0)
(-0.0010298 8.40313e-06 0)
(-0.00105972 8.32248e-06 0)
(-0.00108933 8.23332e-06 0)
(-0.00111861 8.13584e-06 0)
(-0.00114753 8.03024e-06 0)
(-0.00117606 7.9167e-06 0)
(-0.00120416 7.79541e-06 0)
(-0.00123183 7.66658e-06 0)
(-0.00125901 7.53039e-06 0)
(-0.0012857 7.38704e-06 0)
(-0.00131186 7.23672e-06 0)
(-0.00133748 7.07962e-06 0)
(-0.00136252 6.91594e-06 0)
(-0.00138696 6.74587e-06 0)
(-0.00141079 6.5696e-06 0)
(-0.00143397 6.38733e-06 0)
(-0.00145649 6.19925e-06 0)
(-0.00147833 6.00555e-06 0)
(-0.00149946 5.80642e-06 0)
(-0.00151987 5.60205e-06 0)
(-0.00153954 5.39266e-06 0)
(-0.00155846 5.17842e-06 0)
(-0.00157659 4.95955e-06 0)
(-0.00159394 4.73624e-06 0)
(-0.00161048 4.50869e-06 0)
(-0.00162619 4.27709e-06 0)
(-0.00164107 4.04164e-06 0)
(-0.0016551 3.80255e-06 0)
(-0.00166827 3.56002e-06 0)
(-0.00168056 3.31425e-06 0)
(-0.00169197 3.06544e-06 0)
(-0.00170247 2.81379e-06 0)
(-0.00171208 2.55951e-06 0)
(-0.00172077 2.30281e-06 0)
(-0.00172853 2.04389e-06 0)
(-0.00173537 1.78296e-06 0)
(-0.00174126 1.52025e-06 0)
(-0.00174622 1.25595e-06 0)
(-0.00175022 9.90292e-07 0)
(-0.00175327 7.23489e-07 0)
(-0.00175536 4.55758e-07 0)
(-0.0017565 1.87322e-07 0)
(-0.00175667 -8.16003e-08 0)
(-0.00175588 -3.50784e-07 0)
(-0.00175412 -6.20006e-07 0)
(-0.0017514 -8.89038e-07 0)
(-0.00174772 -1.15765e-06 0)
(-0.00174308 -1.42562e-06 0)
(-0.00173748 -1.69272e-06 0)
(-0.00173093 -1.9587e-06 0)
(-0.00172343 -2.22333e-06 0)
(-0.00171498 -2.48638e-06 0)
(-0.0017056 -2.7476e-06 0)
(-0.00169529 -3.00677e-06 0)
(-0.00168405 -3.26362e-06 0)
(-0.0016719 -3.51793e-06 0)
(-0.00165885 -3.76944e-06 0)
(-0.0016449 -4.01791e-06 0)
(-0.00163007 -4.26309e-06 0)
(-0.00161437 -4.50474e-06 0)
(-0.00159782 -4.74261e-06 0)
(-0.00158042 -4.97644e-06 0)
(-0.00156219 -5.20599e-06 0)
(-0.00154316 -5.43101e-06 0)
(-0.00152332 -5.65125e-06 0)
(-0.00150271 -5.86645e-06 0)
(-0.00148135 -6.07637e-06 0)
(-0.00145924 -6.28074e-06 0)
(-0.00143641 -6.47933e-06 0)
(-0.00141289 -6.67187e-06 0)
(-0.00138869 -6.85813e-06 0)
(-0.00136384 -7.03784e-06 0)
(-0.00133836 -7.21077e-06 0)
(-0.00131228 -7.37665e-06 0)
(-0.00128562 -7.53526e-06 0)
(-0.00125841 -7.68634e-06 0)
(-0.00123067 -7.82965e-06 0)
(-0.00120244 -7.96495e-06 0)
(-0.00117374 -8.09201e-06 0)
(-0.0011446 -8.21059e-06 0)
(-0.00111506 -8.32045e-06 0)
(-0.00108515 -8.42137e-06 0)
(-0.00105489 -8.51312e-06 0)
(-0.00102432 -8.59549e-06 0)
(-0.000993474 -8.66824e-06 0)
(-0.000962389 -8.73118e-06 0)
(-0.000931099 -8.78408e-06 0)
(-0.000899639 -8.82675e-06 0)
(-0.000868047 -8.85898e-06 0)
(-0.00083636 -8.88059e-06 0)
(-0.000804615 -8.89138e-06 0)
(-0.000772852 -8.89117e-06 0)
(-0.00074111 -8.87979e-06 0)
(-0.000709429 -8.85707e-06 0)
(-0.000677848 -8.82284e-06 0)
(-0.00064641 -8.77695e-06 0)
(-0.000615156 -8.71926e-06 0)
(-0.000584127 -8.64962e-06 0)
(-0.000553366 -8.5679e-06 0)
(-0.000522916 -8.47399e-06 0)
(-0.000492819 -8.36777e-06 0)
(-0.00046312 -8.24914e-06 0)
(-0.000433862 -8.11802e-06 0)
(-0.000405088 -7.97433e-06 0)
(-0.000376843 -7.81799e-06 0)
(-0.000349171 -7.64896e-06 0)
(-0.000322116 -7.4672e-06 0)
(-0.000295723 -7.27269e-06 0)
(-0.000270036 -7.06543e-06 0)
(-0.000245098 -6.84543e-06 0)
(-0.000220954 -6.61273e-06 0)
(-0.000197647 -6.36737e-06 0)
(-0.00017522 -6.10945e-06 0)
(-0.000153716 -5.83909e-06 0)
(-0.000133176 -5.55641e-06 0)
(-0.000113642 -5.26161e-06 0)
(-9.51538e-05 -4.95492e-06 0)
(-7.77502e-05 -4.63662e-06 0)
(-6.14688e-05 -4.30705e-06 0)
(-4.63455e-05 -3.96662e-06 0)
(-3.24142e-05 -3.61583e-06 0)
(-1.97066e-05 -3.25526e-06 0)
(-8.25147e-06 -2.88564e-06 0)
(1.92558e-06 -2.50784e-06 0)
(1.08029e-05 -2.12292e-06 0)
(1.83634e-05 -1.73216e-06 0)
(2.45957e-05 -1.33716e-06 0)
(2.94952e-05 -9.39867e-07 0)
(3.30653e-05 -5.42718e-07 0)
(3.53199e-05 -1.48806e-07 0)
(3.62849e-05 2.37917e-07 0)
(3.60021e-05 6.12318e-07 0)
(3.4533e-05 9.67633e-07 0)
(3.19639e-05 1.29471e-06 0)
(2.8414e-05 1.58087e-06 0)
(2.40455e-05 1.80812e-06 0)
(1.90786e-05 1.95035e-06 0)
(1.38116e-05 1.96992e-06 0)
(8.64288e-06 1.81457e-06 0)
(4.09987e-06 1.41401e-06 0)
(9.09297e-07 7.04371e-07 0)
(-1.20678e-07 -1.20413e-07 0)
(7.53992e-07 -1.04628e-06 0)
(4.72226e-06 -4.74288e-06 0)
(1.27333e-05 -7.60127e-06 0)
(2.30764e-05 -9.17813e-06 0)
(3.43291e-05 -9.6531e-06 0)
(4.54048e-05 -9.26447e-06 0)
(5.54009e-05 -8.21904e-06 0)
(6.35919e-05 -6.68363e-06 0)
(6.94152e-05 -4.78654e-06 0)
(7.24414e-05 -2.62503e-06 0)
(7.23471e-05 -2.73172e-07 0)
(6.88942e-05 2.2121e-06 0)
(6.19123e-05 4.78652e-06 0)
(5.1286e-05 7.41528e-06 0)
(3.69442e-05 1.00708e-05 0)
(1.88516e-05 1.27308e-05 0)
(-2.99746e-06 1.53776e-05 0)
(-2.85848e-05 1.79966e-05 0)
(-5.78721e-05 2.05763e-05 0)
(-9.0805e-05 2.31068e-05 0)
(-0.000127315 2.55803e-05 0)
(-0.000167323 2.79903e-05 0)
(-0.00021074 3.03316e-05 0)
(-0.00025747 3.25997e-05 0)
(-0.000307409 3.47912e-05 0)
(-0.000360449 3.69032e-05 0)
(-0.000416479 3.89333e-05 0)
(-0.000475381 4.08799e-05 0)
(-0.000537037 4.27413e-05 0)
(-0.000601325 4.45167e-05 0)
(-0.000668124 4.62053e-05 0)
(-0.000737308 4.78065e-05 0)
(-0.000808753 4.93201e-05 0)
(-0.000882333 5.0746e-05 0)
(-0.000957922 5.20844e-05 0)
(-0.00103539 5.33356e-05 0)
(-0.00111463 5.44998e-05 0)
(-0.00119549 5.55777e-05 0)
(-0.00127786 5.65697e-05 0)
(-0.00136162 5.74767e-05 0)
(-0.00144664 5.82994e-05 0)
(-0.00153279 5.90386e-05 0)
(-0.00161997 5.96953e-05 0)
(-0.00170805 6.02704e-05 0)
(-0.00179691 6.07649e-05 0)
(-0.00188643 6.11799e-05 0)
(-0.00197651 6.15165e-05 0)
(-0.00206702 6.17759e-05 0)
(-0.00215785 6.19591e-05 0)
(-0.0022489 6.20673e-05 0)
(-0.00234005 6.21019e-05 0)
(-0.00243121 6.20639e-05 0)
(-0.00252225 6.19547e-05 0)
(-0.00261309 6.17756e-05 0)
(-0.00270361 6.15278e-05 0)
(-0.00279372 6.12125e-05 0)
(-0.00288332 6.08312e-05 0)
(-0.00297231 6.03851e-05 0)
(-0.00306061 5.98755e-05 0)
(-0.00314811 5.93038e-05 0)
(-0.00323473 5.86713e-05 0)
(-0.00332038 5.79793e-05 0)
(-0.00340497 5.72293e-05 0)
(-0.00348842 5.64224e-05 0)
(-0.00357064 5.55602e-05 0)
(-0.00365156 5.4644e-05 0)
(-0.0037311 5.36751e-05 0)
(-0.00380918 5.26549e-05 0)
(-0.00388572 5.15847e-05 0)
(-0.00396066 5.0466e-05 0)
(-0.00403392 4.93001e-05 0)
(-0.00410543 4.80884e-05 0)
(-0.00417513 4.68322e-05 0)
(-0.00424296 4.5533e-05 0)
(-0.00430885 4.41922e-05 0)
(-0.00437273 4.28111e-05 0)
(-0.00443456 4.1391e-05 0)
(-0.00449428 3.99335e-05 0)
(-0.00455183 3.84399e-05 0)
(-0.00460716 3.69117e-05 0)
(-0.00466022 3.53502e-05 0)
(-0.00471096 3.37569e-05 0)
(-0.00475934 3.21332e-05 0)
(-0.00480531 3.04805e-05 0)
(-0.00484884 2.88003e-05 0)
(-0.00488987 2.7094e-05 0)
(-0.00492838 2.5363e-05 0)
(-0.00496433 2.36089e-05 0)
(-0.00499768 2.18331e-05 0)
(-0.00502841 2.0037e-05 0)
(-0.00505649 1.82222e-05 0)
(-0.00508189 1.63902e-05 0)
(-0.00510458 1.45424e-05 0)
(-0.00512455 1.26803e-05 0)
(-0.00514177 1.08056e-05 0)
(-0.00515623 8.91964e-06 0)
(-0.00516792 7.02412e-06 0)
(-0.00517681 5.12054e-06 0)
(-0.0051829 3.21049e-06 0)
(-0.00518618 1.29554e-06 0)
(-0.00518664 -6.22713e-07 0)
(-0.00518429 -2.54266e-06 0)
(-0.00517911 -4.46268e-06 0)
(-0.00517112 -6.38116e-06 0)
(-0.00516031 -8.29644e-06 0)
(-0.00514669 -1.02069e-05 0)
(-0.00513027 -1.21108e-05 0)
(-0.00511106 -1.40066e-05 0)
(-0.00508907 -1.58925e-05 0)
(-0.00506432 -1.77668e-05 0)
(-0.00503684 -1.96278e-05 0)
(-0.00500662 -2.14739e-05 0)
(-0.00497372 -2.33033e-05 0)
(-0.00493814 -2.51141e-05 0)
(-0.00489991 -2.69048e-05 0)
(-0.00485908 -2.86736e-05 0)
(-0.00481566 -3.04186e-05 0)
(-0.00476971 -3.21381e-05 0)
(-0.00472125 -3.38304e-05 0)
(-0.00467033 -3.54937e-05 0)
(-0.00461699 -3.71262e-05 0)
(-0.00456128 -3.87261e-05 0)
(-0.00450325 -4.02916e-05 0)
(-0.00444295 -4.1821e-05 0)
(-0.00438044 -4.33125e-05 0)
(-0.00431577 -4.47643e-05 0)
(-0.004249 -4.61746e-05 0)
(-0.00418019 -4.75416e-05 0)
(-0.00410942 -4.88637e-05 0)
(-0.00403674 -5.01389e-05 0)
(-0.00396222 -5.13656e-05 0)
(-0.00388595 -5.25421e-05 0)
(-0.00380799 -5.36666e-05 0)
(-0.00372842 -5.47373e-05 0)
(-0.00364733 -5.57527e-05 0)
(-0.00356479 -5.6711e-05 0)
(-0.00348089 -5.76106e-05 0)
(-0.00339572 -5.84498e-05 0)
(-0.00330936 -5.9227e-05 0)
(-0.00322191 -5.99406e-05 0)
(-0.00313347 -6.05891e-05 0)
(-0.00304413 -6.11709e-05 0)
(-0.00295398 -6.16845e-05 0)
(-0.00286314 -6.21284e-05 0)
(-0.0027717 -6.25013e-05 0)
(-0.00267976 -6.28016e-05 0)
(-0.00258744 -6.30282e-05 0)
(-0.00249485 -6.31795e-05 0)
(-0.00240209 -6.32544e-05 0)
(-0.00230927 -6.32517e-05 0)
(-0.00221652 -6.31702e-05 0)
(-0.00212394 -6.30087e-05 0)
(-0.00203166 -6.27662e-05 0)
(-0.0019398 -6.24417e-05 0)
(-0.00184846 -6.20343e-05 0)
(-0.00175778 -6.15431e-05 0)
(-0.00166788 -6.09672e-05 0)
(-0.00157889 -6.0306e-05 0)
(-0.00149091 -5.95588e-05 0)
(-0.00140409 -5.87251e-05 0)
(-0.00131855 -5.78043e-05 0)
(-0.00123441 -5.67962e-05 0)
(-0.0011518 -5.57004e-05 0)
(-0.00107084 -5.45167e-05 0)
(-0.000991673 -5.32453e-05 0)
(-0.000914415 -5.18861e-05 0)
(-0.000839193 -5.04394e-05 0)
(-0.000766135 -4.89056e-05 0)
(-0.000695363 -4.72853e-05 0)
(-0.000627002 -4.55792e-05 0)
(-0.000561172 -4.37884e-05 0)
(-0.000497995 -4.19142e-05 0)
(-0.000437587 -3.99579e-05 0)
(-0.000380064 -3.79216e-05 0)
(-0.000325535 -3.58073e-05 0)
(-0.000274109 -3.36178e-05 0)
(-0.000225888 -3.13561e-05 0)
(-0.00018097 -2.9026e-05 0)
(-0.000139444 -2.66318e-05 0)
(-0.000101395 -2.41788e-05 0)
(-6.68957e-05 -2.1673e-05 0)
(-3.60105e-05 -1.91218e-05 0)
(-8.79053e-06 -1.65338e-05 0)
(1.47274e-05 -1.39196e-05 0)
(3.45241e-05 -1.12916e-05 0)
(5.0601e-05 -8.66502e-06 0)
(6.29844e-05 -6.0583e-06 0)
(7.1731e-05 -3.49416e-06 0)
(7.69336e-05 -1.00072e-06 0)
(7.87299e-05 1.38687e-06 0)
(7.73119e-05 3.62424e-06 0)
(7.29396e-05 5.65473e-06 0)
(6.59563e-05 7.40513e-06 0)
(5.68095e-05 8.77998e-06 0)
(4.60755e-05 9.65431e-06 0)
(3.4487e-05 9.86749e-06 0)
(2.29435e-05 9.22367e-06 0)
(1.25118e-05 7.50437e-06 0)
(4.5621e-06 4.56393e-06 0)
(7.03285e-07 9.09309e-07 0)
(1.45474e-06 -4.31779e-06 0)
(7.59078e-06 -1.2749e-05 0)
(1.88045e-05 -1.88129e-05 0)
(3.26142e-05 -2.20921e-05 0)
(4.71715e-05 -2.28791e-05 0)
(6.10863e-05 -2.1601e-05 0)
(7.31497e-05 -1.86733e-05 0)
(8.23469e-05 -1.44585e-05 0)
(8.78608e-05 -9.25505e-06 0)
(8.90452e-05 -3.30309e-06 0)
(8.53983e-05 3.20583e-06 0)
(7.65385e-05 1.01188e-05 0)
(6.21844e-05 1.73132e-05 0)
(4.21374e-05 2.46906e-05 0)
(1.62673e-05 3.21712e-05 0)
(-1.54991e-05 3.96899e-05 0)
(-5.31875e-05 4.71937e-05 0)
(-9.67846e-05 5.46388e-05 0)
(-0.000146244 6.19895e-05 0)
(-0.000201492 6.92158e-05 0)
(-0.000262431 7.62931e-05 0)
(-0.000328945 8.32011e-05 0)
(-0.000400903 8.99228e-05 0)
(-0.000478157 9.64442e-05 0)
(-0.000560551 0.000102754 0)
(-0.000647917 0.000108842 0)
(-0.000740081 0.000114701 0)
(-0.000836862 0.000120324 0)
(-0.000938073 0.000125707 0)
(-0.00104352 0.000130846 0)
(-0.00115302 0.000135738 0)
(-0.00126636 0.00014038 0)
(-0.00138336 0.000144771 0)
(-0.0015038 0.000148912 0)
(-0.00162749 0.0001528 0)
(-0.00175423 0.000156438 0)
(-0.00188381 0.000159825 0)
(-0.00201604 0.000162962 0)
(-0.00215071 0.000165851 0)
(-0.00228763 0.000168494 0)
(-0.0024266 0.000170892 0)
(-0.00256741 0.000173048 0)
(-0.00270988 0.000174965 0)
(-0.00285381 0.000176644 0)
(-0.00299901 0.000178089 0)
(-0.00314529 0.000179302 0)
(-0.00329246 0.000180286 0)
(-0.00344035 0.000181046 0)
(-0.00358876 0.000181583 0)
(-0.00373752 0.000181901 0)
(-0.00388645 0.000182004 0)
(-0.00403538 0.000181894 0)
(-0.00418414 0.000181577 0)
(-0.00433255 0.000181055 0)
(-0.00448045 0.000180331 0)
(-0.00462768 0.000179411 0)
(-0.00477407 0.000178296 0)
(-0.00491948 0.000176992 0)
(-0.00506375 0.000175502 0)
(-0.00520673 0.000173829 0)
(-0.00534826 0.000171978 0)
(-0.00548821 0.000169953 0)
(-0.00562644 0.000167758 0)
(-0.0057628 0.000165395 0)
(-0.00589716 0.00016287 0)
(-0.00602939 0.000160187 0)
(-0.00615936 0.000157348 0)
(-0.00628695 0.000154359 0)
(-0.00641203 0.000151224 0)
(-0.00653449 0.000147945 0)
(-0.00665421 0.000144528 0)
(-0.00677107 0.000140977 0)
(-0.00688497 0.000137294 0)
(-0.00699581 0.000133486 0)
(-0.00710348 0.000129554 0)
(-0.00720788 0.000125505 0)
(-0.00730892 0.000121341 0)
(-0.0074065 0.000117067 0)
(-0.00750054 0.000112687 0)
(-0.00759095 0.000108205 0)
(-0.00767765 0.000103626 0)
(-0.00776057 9.8953e-05 0)
(-0.00783961 9.41907e-05 0)
(-0.00791472 8.93433e-05 0)
(-0.00798583 8.4415e-05 0)
(-0.00805287 7.94101e-05 0)
(-0.00811578 7.4333e-05 0)
(-0.00817451 6.91877e-05 0)
(-0.00822899 6.39788e-05 0)
(-0.00827918 5.87106e-05 0)
(-0.00832504 5.33874e-05 0)
(-0.00836651 4.80136e-05 0)
(-0.00840357 4.25938e-05 0)
(-0.00843616 3.71323e-05 0)
(-0.00846427 3.16336e-05 0)
(-0.00848786 2.61024e-05 0)
(-0.00850691 2.05431e-05 0)
(-0.0085214 1.49604e-05 0)
(-0.00853131 9.3589e-06 0)
(-0.00853663 3.74323e-06 0)
(-0.00853734 -1.8819e-06 0)
(-0.00853344 -7.51175e-06 0)
(-0.00852494 -1.31416e-05 0)
(-0.00851183 -1.87666e-05 0)
(-0.00849411 -2.43819e-05 0)
(-0.00847181 -2.99828e-05 0)
(-0.00844493 -3.55642e-05 0)
(-0.00841348 -4.11213e-05 0)
(-0.00837751 -4.66492e-05 0)
(-0.00833702 -5.21427e-05 0)
(-0.00829205 -5.7597e-05 0)
(-0.00824264 -6.3007e-05 0)
(-0.00818882 -6.83676e-05 0)
(-0.00813064 -7.36737e-05 0)
(-0.00806814 -7.89202e-05 0)
(-0.00800137 -8.4102e-05 0)
(-0.0079304 -8.92139e-05 0)
(-0.00785527 -9.42507e-05 0)
(-0.00777606 -9.92073e-05 0)
(-0.00769282 -0.000104078 0)
(-0.00760565 -0.000108859 0)
(-0.0075146 -0.000113544 0)
(-0.00741976 -0.000118127 0)
(-0.00732122 -0.000122605 0)
(-0.00721907 -0.00012697 0)
(-0.00711339 -0.00013122 0)
(-0.00700429 -0.000135347 0)
(-0.00689187 -0.000139347 0)
(-0.00677624 -0.000143215 0)
(-0.0066575 -0.000146946 0)
(-0.00653578 -0.000150535 0)
(-0.00641118 -0.000153975 0)
(-0.00628383 -0.000157264 0)
(-0.00615386 -0.000160395 0)
(-0.00602141 -0.000163364 0)
(-0.00588659 -0.000166165 0)
(-0.00574956 -0.000168794 0)
(-0.00561046 -0.000171247 0)
(-0.00546942 -0.000173518 0)
(-0.00532661 -0.000175602 0)
(-0.00518218 -0.000177496 0)
(-0.00503628 -0.000179196 0)
(-0.00488908 -0.000180695 0)
(-0.00474073 -0.000181991 0)
(-0.00459141 -0.000183079 0)
(-0.00444129 -0.000183956 0)
(-0.00429055 -0.000184616 0)
(-0.00413935 -0.000185058 0)
(-0.00398788 -0.000185276 0)
(-0.00383632 -0.000185268 0)
(-0.00368487 -0.000185029 0)
(-0.0035337 -0.000184558 0)
(-0.00338301 -0.000183851 0)
(-0.00323298 -0.000182905 0)
(-0.00308382 -0.000181718 0)
(-0.00293573 -0.000180287 0)
(-0.00278889 -0.000178609 0)
(-0.00264352 -0.000176684 0)
(-0.00249981 -0.00017451 0)
(-0.00235796 -0.000172084 0)
(-0.00221818 -0.000169407 0)
(-0.00208067 -0.000166476 0)
(-0.00194563 -0.000163292 0)
(-0.00181328 -0.000159854 0)
(-0.00168381 -0.000156163 0)
(-0.00155742 -0.000152218 0)
(-0.00143433 -0.000148023 0)
(-0.00131472 -0.000143577 0)
(-0.00119881 -0.000138883 0)
(-0.00108678 -0.000133944 0)
(-0.00097883 -0.000128763 0)
(-0.000875148 -0.000123345 0)
(-0.000775921 -0.000117695 0)
(-0.000681329 -0.000111818 0)
(-0.000591545 -0.000105723 0)
(-0.000506738 -9.94167e-05 0)
(-0.000427065 -9.29104e-05 0)
(-0.000352678 -8.62155e-05 0)
(-0.000283712 -7.93461e-05 0)
(-0.000220294 -7.23184e-05 0)
(-0.000162533 -6.51516e-05 0)
(-0.00011052 -5.78684e-05 0)
(-6.43257e-05 -5.04956e-05 0)
(-2.39969e-05 -4.30651e-05 0)
(1.04496e-05 -3.56147e-05 0)
(3.90307e-05 -2.81899e-05 0)
(6.18038e-05 -2.08453e-05 0)
(7.88745e-05 -1.36472e-05 0)
(9.04055e-05 -6.67621e-06 0)
(9.66285e-05 -3.12282e-08 0)
(9.78571e-05 6.16576e-06 0)
(9.45037e-05 1.17636e-05 0)
(8.70988e-05 1.65741e-05 0)
(7.63122e-05 2.03635e-05 0)
(6.29791e-05 2.28434e-05 0)
(4.81217e-05 2.36685e-05 0)
(3.29429e-05 2.24508e-05 0)
(1.88065e-05 1.88066e-05 0)
(7.50175e-06 1.25123e-05 0)
(1.41218e-06 4.09784e-06 0)
(1.83113e-06 -8.88779e-06 0)
(9.17935e-06 -2.30929e-05 0)
(2.21084e-05 -3.26251e-05 0)
(3.74902e-05 -3.7462e-05 0)
(5.31385e-05 -3.81154e-05 0)
(6.74558e-05 -3.52345e-05 0)
(7.90376e-05 -2.94611e-05 0)
(8.66802e-05 -2.13723e-05 0)
(8.93905e-05 -1.14616e-05 0)
(8.63642e-05 -1.40142e-07 0)
(7.6961e-05 1.22538e-05 0)
(6.06825e-05 2.54432e-05 0)
(3.71518e-05 3.92012e-05 0)
(6.09497e-06 5.33418e-05 0)
(-3.26746e-05 6.7712e-05 0)
(-7.92698e-05 8.21858e-05 0)
(-0.000133741 9.66588e-05 0)
(-0.000196085 0.000111044 0)
(-0.000266256 0.00012527 0)
(-0.000344167 0.000139277 0)
(-0.000429703 0.000153013 0)
(-0.000522719 0.000166437 0)
(-0.000623047 0.000179515 0)
(-0.000730502 0.000192216 0)
(-0.000844879 0.000204517 0)
(-0.000965962 0.000216396 0)
(-0.00109352 0.000227838 0)
(-0.00122732 0.000238829 0)
(-0.00136711 0.000249357 0)
(-0.00151264 0.000259414 0)
(-0.00166365 0.000268994 0)
(-0.00181988 0.000278091 0)
(-0.00198106 0.000286701 0)
(-0.00214693 0.000294823 0)
(-0.0023172 0.000302455 0)
(-0.00249162 0.000309596 0)
(-0.00266991 0.000316249 0)
(-0.00285179 0.000322414 0)
(-0.003037 0.000328093 0)
(-0.00322527 0.000333291 0)
(-0.00341633 0.000338009 0)
(-0.00360991 0.000342251 0)
(-0.00380574 0.000346024 0)
(-0.00400357 0.00034933 0)
(-0.00420313 0.000352175 0)
(-0.00440416 0.000354565 0)
(-0.00460641 0.000356505 0)
(-0.00480963 0.000358001 0)
(-0.00501357 0.000359059 0)
(-0.00521798 0.000359686 0)
(-0.00542262 0.000359888 0)
(-0.00562726 0.000359673 0)
(-0.00583165 0.000359046 0)
(-0.00603557 0.000358015 0)
(-0.00623879 0.000356586 0)
(-0.00644109 0.000354768 0)
(-0.00664224 0.000352568 0)
(-0.00684204 0.000349992 0)
(-0.00704027 0.000347048 0)
(-0.00723672 0.000343744 0)
(-0.00743119 0.000340087 0)
(-0.00762349 0.000336086 0)
(-0.00781342 0.000331746 0)
(-0.00800079 0.000327078 0)
(-0.00818541 0.000322087 0)
(-0.00836711 0.000316782 0)
(-0.0085457 0.000311172 0)
(-0.00872101 0.000305262 0)
(-0.00889289 0.000299062 0)
(-0.00906115 0.00029258 0)
(-0.00922566 0.000285823 0)
(-0.00938624 0.0002788 0)
(-0.00954275 0.000271517 0)
(-0.00969505 0.000263985 0)
(-0.009843 0.000256209 0)
(-0.00998645 0.0002482 0)
(-0.0101253 0.000239964 0)
(-0.0102594 0.00023151 0)
(-0.0103886 0.000222845 0)
(-0.0105128 0.00021398 0)
(-0.0106319 0.00020492 0)
(-0.0107458 0.000195676 0)
(-0.0108544 0.000186254 0)
(-0.0109576 0.000176665 0)
(-0.0110553 0.000166915 0)
(-0.0111474 0.000157013 0)
(-0.0112338 0.000146968 0)
(-0.0113145 0.000136789 0)
(-0.0113893 0.000126484 0)
(-0.0114583 0.000116061 0)
(-0.0115212 0.000105529 0)
(-0.0115782 9.48982e-05 0)
(-0.0116291 8.41759e-05 0)
(-0.0116738 7.33713e-05 0)
(-0.0117124 6.24935e-05 0)
(-0.0117447 5.15514e-05 0)
(-0.0117709 4.05541e-05 0)
(-0.0117907 2.95106e-05 0)
(-0.0118043 1.84302e-05 0)
(-0.0118115 7.3222e-06 0)
(-0.0118125 -3.80421e-06 0)
(-0.011807 -1.49396e-05 0)
(-0.0117953 -2.60746e-05 0)
(-0.0117772 -3.71996e-05 0)
(-0.0117528 -4.83051e-05 0)
(-0.0117221 -5.93815e-05 0)
(-0.0116851 -7.0419e-05 0)
(-0.0116418 -8.14079e-05 0)
(-0.0115924 -9.23385e-05 0)
(-0.0115367 -0.000103201 0)
(-0.0114748 -0.000113985 0)
(-0.0114069 -0.000124681 0)
(-0.0113329 -0.000135278 0)
(-0.0112529 -0.000145768 0)
(-0.0111669 -0.000156139 0)
(-0.0110752 -0.000166381 0)
(-0.0109776 -0.000176485 0)
(-0.0108743 -0.00018644 0)
(-0.0107655 -0.000196235 0)
(-0.0106511 -0.000205862 0)
(-0.0105313 -0.000215308 0)
(-0.0104061 -0.000224564 0)
(-0.0102758 -0.000233621 0)
(-0.0101404 -0.000242466 0)
(-0.0100001 -0.000251091 0)
(-0.00985486 -0.000259484 0)
(-0.00970497 -0.000267637 0)
(-0.00955052 -0.000275538 0)
(-0.00939166 -0.000283177 0)
(-0.00922854 -0.000290544 0)
(-0.00906133 -0.00029763 0)
(-0.00889017 -0.000304424 0)
(-0.00871525 -0.000310917 0)
(-0.00853673 -0.000317098 0)
(-0.00835479 -0.000322958 0)
(-0.00816963 -0.000328487 0)
(-0.00798142 -0.000333677 0)
(-0.00779037 -0.000338517 0)
(-0.00759668 -0.000342998 0)
(-0.00740055 -0.000347112 0)
(-0.0072022 -0.00035085 0)
(-0.00700183 -0.000354202 0)
(-0.00679968 -0.000357161 0)
(-0.00659596 -0.000359718 0)
(-0.0063909 -0.000361865 0)
(-0.00618475 -0.000363594 0)
(-0.00597773 -0.000364898 0)
(-0.00577009 -0.00036577 0)
(-0.00556208 -0.000366202 0)
(-0.00535395 -0.000366188 0)
(-0.00514595 -0.000365722 0)
(-0.00493833 -0.000364797 0)
(-0.00473136 -0.000363407 0)
(-0.0045253 -0.000361548 0)
(-0.00432042 -0.000359214 0)
(-0.00411698 -0.000356401 0)
(-0.00391525 -0.000353105 0)
(-0.00371551 -0.000349323 0)
(-0.00351804 -0.00034505 0)
(-0.0033231 -0.000340286 0)
(-0.00313097 -0.000335028 0)
(-0.00294193 -0.000329274 0)
(-0.00275625 -0.000323024 0)
(-0.00257421 -0.000316278 0)
(-0.0023961 -0.000309037 0)
(-0.00222217 -0.000301304 0)
(-0.00205271 -0.000293079 0)
(-0.00188798 -0.000284369 0)
(-0.00172826 -0.000275176 0)
(-0.0015738 -0.000265508 0)
(-0.00142486 -0.000255372 0)
(-0.00128171 -0.000244777 0)
(-0.00114457 -0.000233735 0)
(-0.0010137 -0.000222258 0)
(-0.000889326 -0.000210361 0)
(-0.000771663 -0.000198064 0)
(-0.00066092 -0.000185386 0)
(-0.000557292 -0.000172353 0)
(-0.000460956 -0.000158993 0)
(-0.000372071 -0.00014534 0)
(-0.000290774 -0.000131433 0)
(-0.000217176 -0.000117318 0)
(-0.00015136 -0.00010305 0)
(-9.33754e-05 -8.86925e-05 0)
(-4.32309e-05 -7.4321e-05 0)
(-8.8954e-07 -6.00253e-05 0)
(3.37396e-05 -4.59123e-05 0)
(6.08108e-05 -3.211e-05 0)
(8.05521e-05 -1.87723e-05 0)
(9.3279e-05 -6.08499e-06 0)
(9.94088e-05 5.72692e-06 0)
(9.94778e-05 1.63906e-05 0)
(9.41609e-05 2.55752e-05 0)
(8.42909e-05 3.28823e-05 0)
(7.08818e-05 3.7838e-05 0)
(5.51469e-05 3.98952e-05 0)
(3.84847e-05 3.84582e-05 0)
(2.24659e-05 3.29459e-05 0)
(9.22528e-06 2.29464e-05 0)
(1.81276e-06 8.63853e-06 0)
(1.95836e-06 -1.40067e-05 0)
(9.67349e-06 -3.43637e-05 0)
(2.29429e-05 -4.72076e-05 0)
(3.82265e-05 -5.31225e-05 0)
(5.30895e-05 -5.29535e-05 0)
(6.5779e-05 -4.76172e-05 0)
(7.47573e-05 -3.79969e-05 0)
(7.8696e-05 -2.48916e-05 0)
(7.64838e-05 -8.99733e-06 0)
(6.72054e-05 9.09294e-06 0)
(5.01192e-05 2.88804e-05 0)
(2.46369e-05 4.99483e-05 0)
(-9.69505e-06 7.19492e-05 0)
(-5.32138e-05 9.45937e-05 0)
(-0.000106155 0.000117641 0)
(-0.000168669 0.000140889 0)
(-0.00024083 0.000164169 0)
(-0.00032265 0.000187342 0)
(-0.000414083 0.000210287 0)
(-0.00051504 0.000232905 0)
(-0.000625388 0.000255112 0)
(-0.000744964 0.000276838 0)
(-0.00087357 0.000298023 0)
(-0.00101099 0.000318617 0)
(-0.00115697 0.000338579 0)
(-0.00131127 0.000357872 0)
(-0.0014736 0.000376468 0)
(-0.00164367 0.000394342 0)
(-0.00182119 0.000411476 0)
(-0.00200584 0.000427853 0)
(-0.00219731 0.00044346 0)
(-0.00239528 0.000458289 0)
(-0.00259942 0.000472331 0)
(-0.0028094 0.000485582 0)
(-0.00302488 0.000498038 0)
(-0.00324553 0.0005097 0)
(-0.00347101 0.000520567 0)
(-0.00370098 0.000530641 0)
(-0.00393511 0.000539924 0)
(-0.00417307 0.000548421 0)
(-0.0044145 0.000556137 0)
(-0.00465909 0.000563077 0)
(-0.0049065 0.000569249 0)
(-0.00515641 0.000574659 0)
(-0.00540848 0.000579315 0)
(-0.00566239 0.000583226 0)
(-0.00591783 0.0005864 0)
(-0.00617448 0.000588848 0)
(-0.00643202 0.000590579 0)
(-0.00669015 0.000591602 0)
(-0.00694856 0.000591929 0)
(-0.00720696 0.00059157 0)
(-0.00746504 0.000590536 0)
(-0.00772253 0.000588839 0)
(-0.00797912 0.00058649 0)
(-0.00823455 0.0005835 0)
(-0.00848853 0.000579882 0)
(-0.0087408 0.000575647 0)
(-0.00899109 0.000570808 0)
(-0.00923913 0.000565376 0)
(-0.00948468 0.000559364 0)
(-0.00972748 0.000552785 0)
(-0.00996728 0.000545651 0)
(-0.0102039 0.000537974 0)
(-0.010437 0.000529768 0)
(-0.0106664 0.000521045 0)
(-0.0108919 0.000511818 0)
(-0.0111132 0.000502099 0)
(-0.0113302 0.000491903 0)
(-0.0115427 0.000481241 0)
(-0.0117504 0.000470127 0)
(-0.0119531 0.000458574 0)
(-0.0121507 0.000446595 0)
(-0.012343 0.000434204 0)
(-0.0125298 0.000421413 0)
(-0.0127109 0.000408237 0)
(-0.0128862 0.000394687 0)
(-0.0130555 0.000380778 0)
(-0.0132186 0.000366524 0)
(-0.0133754 0.000351937 0)
(-0.0135258 0.000337032 0)
(-0.0136696 0.000321822 0)
(-0.0138067 0.00030632 0)
(-0.013937 0.000290542 0)
(-0.0140603 0.000274499 0)
(-0.0141766 0.000258208 0)
(-0.0142856 0.00024168 0)
(-0.0143874 0.000224931 0)
(-0.0144819 0.000207975 0)
(-0.0145689 0.000190826 0)
(-0.0146483 0.000173498 0)
(-0.0147202 0.000156006 0)
(-0.0147844 0.000138365 0)
(-0.0148408 0.000120588 0)
(-0.0148895 0.000102691 0)
(-0.0149303 8.46889e-05 0)
(-0.0149632 6.65961e-05 0)
(-0.0149882 4.84277e-05 0)
(-0.0150052 3.01991e-05 0)
(-0.0150143 1.19254e-05 0)
(-0.0150154 -6.37798e-06 0)
(-0.0150085 -2.46957e-05 0)
(-0.0149936 -4.3012e-05 0)
(-0.0149707 -6.13115e-05 0)
(-0.0149398 -7.95782e-05 0)
(-0.014901 -9.77963e-05 0)
(-0.0148542 -0.00011595 0)
(-0.0147995 -0.000134023 0)
(-0.014737 -0.000151999 0)
(-0.0146666 -0.000169862 0)
(-0.0145885 -0.000187596 0)
(-0.0145026 -0.000205184 0)
(-0.0144091 -0.00022261 0)
(-0.0143081 -0.000239857 0)
(-0.0141995 -0.000256908 0)
(-0.0140836 -0.000273748 0)
(-0.0139604 -0.000290358 0)
(-0.01383 -0.000306723 0)
(-0.0136925 -0.000322825 0)
(-0.013548 -0.000338648 0)
(-0.0133967 -0.000354175 0)
(-0.0132387 -0.000369388 0)
(-0.0130742 -0.000384271 0)
(-0.0129032 -0.000398808 0)
(-0.012726 -0.000412981 0)
(-0.0125427 -0.000426773 0)
(-0.0123535 -0.000440168 0)
(-0.0121585 -0.000453149 0)
(-0.011958 -0.0004657 0)
(-0.0117521 -0.000477804 0)
(-0.011541 -0.000489444 0)
(-0.011325 -0.000500604 0)
(-0.0111042 -0.000511268 0)
(-0.0108789 -0.00052142 0)
(-0.0106492 -0.000531045 0)
(-0.0104156 -0.000540126 0)
(-0.010178 -0.000548648 0)
(-0.00993691 -0.000556597 0)
(-0.00969247 -0.000563956 0)
(-0.00944495 -0.000570712 0)
(-0.00919462 -0.000576849 0)
(-0.00894176 -0.000582354 0)
(-0.00868665 -0.000587214 0)
(-0.00842956 -0.000591414 0)
(-0.00817078 -0.000594941 0)
(-0.00791061 -0.000597784 0)
(-0.00764935 -0.000599929 0)
(-0.00738731 -0.000601366 0)
(-0.00712478 -0.000602082 0)
(-0.0068621 -0.000602067 0)
(-0.00659956 -0.00060131 0)
(-0.00633751 -0.000599803 0)
(-0.00607626 -0.000597536 0)
(-0.00581614 -0.0005945 0)
(-0.00555749 -0.000590688 0)
(-0.00530064 -0.000586093 0)
(-0.00504592 -0.000580708 0)
(-0.00479369 -0.000574529 0)
(-0.00454429 -0.00056755 0)
(-0.00429804 -0.000559768 0)
(-0.00405531 -0.000551181 0)
(-0.00381643 -0.000541786 0)
(-0.00358175 -0.000531584 0)
(-0.00335162 -0.000520575 0)
(-0.00312636 -0.000508762 0)
(-0.00290634 -0.000496147 0)
(-0.00269188 -0.000482737 0)
(-0.00248332 -0.000468539 0)
(-0.00228099 -0.000453561 0)
(-0.00208521 -0.000437815 0)
(-0.0018963 -0.000421314 0)
(-0.00171457 -0.000404075 0)
(-0.00154033 -0.000386116 0)
(-0.00137386 -0.000367462 0)
(-0.00121545 -0.000348137 0)
(-0.00106536 -0.000328174 0)
(-0.000923848 -0.000307609 0)
(-0.000791134 -0.000286483 0)
(-0.000667434 -0.000264846 0)
(-0.000552934 -0.000242754 0)
(-0.000447793 -0.000220273 0)
(-0.000352137 -0.000197481 0)
(-0.000266056 -0.000174468 0)
(-0.000189598 -0.000151339 0)
(-0.00012276 -0.000128217 0)
(-6.54845e-05 -0.000105249 0)
(-1.7649e-05 -8.26065e-05 0)
(2.09452e-05 -6.0493e-05 0)
(5.05833e-05 -3.91506e-05 0)
(7.16506e-05 -1.88676e-05 0)
(8.46476e-05 1.25767e-08 0)
(9.02062e-05 1.70806e-05 0)
(8.91076e-05 3.18504e-05 0)
(8.23001e-05 4.37487e-05 0)
(7.09194e-05 5.21095e-05 0)
(5.6307e-05 5.61772e-05 0)
(3.9998e-05 5.51324e-05 0)
(2.37239e-05 4.81483e-05 0)
(9.88253e-06 3.45057e-05 0)
(1.96969e-06 1.38085e-05 0)
(1.91206e-06 -1.91437e-05 0)
(9.31355e-06 -4.54877e-05 0)
(2.17387e-05 -6.11888e-05 0)
(3.54765e-05 -6.74998e-05 0)
(4.79468e-05 -6.56679e-05 0)
(5.72844e-05 -5.69156e-05 0)
(6.18623e-05 -4.23851e-05 0)
(6.02716e-05 -2.31042e-05 0)
(5.13241e-05 2.46117e-08 0)
(3.40304e-05 2.62217e-05 0)
(7.57819e-06 5.48211e-05 0)
(-2.86855e-05 8.52575e-05 0)
(-7.52722e-05 0.000117053 0)
(-0.000132568 0.000149804 0)
(-0.00020085 0.00018317 0)
(-0.000280298 0.000216863 0)
(-0.000371009 0.000250642 0)
(-0.000473006 0.0002843 0)
(-0.000586252 0.000317664 0)
(-0.00071065 0.000350586 0)
(-0.00084606 0.000382941 0)
(-0.000992299 0.000414623 0)
(-0.00114915 0.000445543 0)
(-0.00131636 0.000475625 0)
(-0.00149366 0.000504803 0)
(-0.00168076 0.000533025 0)
(-0.00187732 0.000560245 0)
(-0.00208302 0.000586425 0)
(-0.00229752 0.000611534 0)
(-0.00252045 0.000635546 0)
(-0.00275145 0.000658442 0)
(-0.00299014 0.000680204 0)
(-0.00323613 0.000700822 0)