/*--------------------------------*- C++ -*----------------------------------*\
  =========                 |
  \\      /  F ield         | OpenFOAM: The Open Source CFD Toolbox
   \\    /   O peration     | Website:  https://openfoam.org
    \\  /    A nd           | Version:  7
     \\/     M anipulation  |
\*---------------------------------------------------------------------------*/
FoamFile
{
    version     2.0;
    format      ascii;
    class       volScalarField;
    location    "15";
    object      rho;
}
// * * * * * * * * * * * * * * * * * * * * * * * * * * * * * * * * * * * * * //

dimensions      [1 -3 0 0 0 0 0];

internalField   nonuniform List<scalar> 
2413
(
0.899751
0.905515
0.908881
0.909035
0.906123
0.900763
0.894621
0.888693
0.882857
0.875592
0.864625
0.848421
0.827014
0.798143
0.743338
0.704767
0.703843
0.725975
0.749302
0.777861
0.807058
0.837395
0.867534
0.897386
0.925496
0.951731
0.976515
1.00128
1.02458
1.04846
1.07828
1.10494
1.10429
1.04457
0.953338
0.949459
0.965687
0.983564
0.998403
1.01132
1.02286
1.03386
1.04496
1.05665
1.06891
1.08143
1.09459
1.10978
1.12476
1.13781
1.14894
1.15805
1.16538
1.17118
1.17604
1.17967
1.18242
1.18324
1.18198
1.17451
1.1587
1.13776
1.1209
1.11086
1.10409
1.09534
1.07922
1.04136
0.940634
0.808796
0.749359
0.728297
0.720301
0.71856
0.729426
0.763583
0.795274
0.824962
0.859141
0.893569
0.926036
0.957083
0.983227
1.00072
1.01031
1.01569
1.0155
1.01387
0.898686
0.904478
0.907786
0.907804
0.904919
0.89979
0.893987
0.888239
0.882215
0.874409
0.862812
0.846247
0.825
0.797165
0.744362
0.704563
0.702689
0.723498
0.746227
0.773632
0.802272
0.831999
0.861993
0.891581
0.91952
0.945529
0.970382
0.995491
1.01935
1.04485
1.07548
1.10436
1.10608
1.04975
0.956453
0.948836
0.964856
0.982034
0.996516
1.00874
1.01977
1.03032
1.04106
1.05249
1.06465
1.07727
1.09029
1.10537
1.12097
1.13484
1.14663
1.15623
1.16378
1.1695
1.17401
1.17732
1.17909
1.17829
1.17412
1.16307
1.14695
1.13186
1.11938
1.11219
1.11097
1.11145
1.10476
1.06467
0.956309
0.831984
0.771369
0.749554
0.741536
0.739489
0.747764
0.776791
0.804411
0.833143
0.863219
0.894638
0.924111
0.951592
0.976152
0.993929
1.00927
1.01821
1.01894
1.01967
0.896354
0.901991
0.905054
0.904796
0.901879
0.896875
0.891178
0.885229
0.878567
0.869875
0.857481
0.840464
0.819188
0.792313
0.743192
0.701753
0.698084
0.716507
0.738512
0.764541
0.792479
0.821675
0.851536
0.880993
0.909063
0.935402
0.961033
0.987178
1.01329
1.03864
1.07067
1.1033
1.10922
1.05739
0.963905
0.950708
0.964291
0.980264
0.994412
1.00656
1.0175
1.02761
1.03761
1.04814
1.05956
1.07169
1.08415
1.09816
1.11378
1.12862
1.14168
1.1529
1.16226
1.16962
1.17521
1.17959
1.18159
1.17943
1.17213
1.15661
1.13741
1.1234
1.11736
1.11904
1.1273
1.13507
1.13611
1.09936
0.987398
0.871193
0.811602
0.787197
0.778196
0.776035
0.78205
0.805991
0.82977
0.856267
0.884849
0.915018
0.944312
0.9699
0.994964
1.01141
1.02364
1.03085
1.03175
1.03565
0.89271
0.898311
0.901091
0.900342
0.897036
0.891775
0.885759
0.879207
0.871493
0.861449
0.847783
0.829898
0.808312
0.782188
0.73743
0.69451
0.688822
0.70369
0.724706
0.74892
0.775729
0.803949
0.833198
0.862174
0.890521
0.917957
0.945356
0.973111
1.00171
1.03004
1.06382
1.1016
1.11211
1.06494
0.975193
0.954712
0.963184
0.977216
0.990632
1.00252
1.01318
1.02344
1.03356
1.04343
1.05387
1.06506
1.07678
1.08925
1.1037
1.11894
1.13327
1.1464
1.15828
1.16832
1.17604
1.18155
1.18381
1.18045
1.17089
1.15383
1.13434
1.1214
1.1175
1.12115
1.13059
1.14382
1.15345
1.12282
1.01831
0.917152
0.862392
0.836042
0.825078
0.821875
0.824264
0.84142
0.860867
0.88275
0.906227
0.930359
0.956902
0.977551
0.999961
1.01299
1.0232
1.02971
1.03212
1.03888
0.888678
0.893811
0.896032
0.894555
0.890508
0.884523
0.877495
0.869652
0.860483
0.849042
0.834206
0.815408
0.793261
0.767595
0.727352
0.683322
0.675542
0.686053
0.7062
0.728676
0.754479
0.781816
0.810522
0.839166
0.867941
0.896569
0.925603
0.954673
0.984243
1.01473
1.05098
1.09353
1.10805
1.06743
0.988318
0.962395
0.964262
0.974746
0.986866
0.998514
1.00874
1.01906
1.02897
1.03891
1.04886
1.05885
1.0695
1.08066
1.09292
1.10712
1.12175
1.13599
1.14981
1.16237
1.17248
1.17995
1.18316
1.17925
1.16893
1.15273
1.13413
1.12228
1.11914
1.11902
1.1239
1.13205
1.13733
1.11308
1.03115
0.952066
0.908629
0.883929
0.87182
0.867601
0.867646
0.874857
0.886141
0.901107
0.916164
0.93216
0.95071
0.966365
0.980479
0.990141
0.997395
1.00187
1.00735
1.01549
0.883355
0.887859
0.889337
0.886933
0.881665
0.87446
0.865982
0.856474
0.845569
0.832515
0.816353
0.796545
0.773832
0.748719
0.713339
0.669955
0.660163
0.666146
0.685637
0.706491
0.731293
0.757552
0.78551
0.813787
0.842911
0.872327
0.902052
0.931339
0.960275
0.991391
1.02995
1.07357
1.09194
1.06443
0.999973
0.970899
0.96704
0.97465
0.985346
0.995589
1.00497
1.01533
1.02487
1.03485
1.04456
1.05404
1.06391
1.07398
1.08426
1.09587
1.10885
1.12249
1.13611
1.14914
1.16014
1.16784
1.17168
1.16974
1.16137
1.14847
1.13336
1.12224
1.11568
1.10753
1.10289
1.10099
1.09758
1.0795
1.02245
0.960465
0.927959
0.908943
0.898553
0.894641
0.893745
0.896127
0.90178
0.910308
0.920453
0.932038
0.942211
0.952195
0.958947
0.963543
0.967622
0.971946
0.977827
0.985387
0.876897
0.88063
0.881102
0.87751
0.870452
0.861321
0.850758
0.839079
0.826169
0.811513
0.794204
0.773602
0.750624
0.726403
0.696067
0.655431
0.643415
0.645436
0.663834
0.683042
0.706711
0.731656
0.758576
0.786257
0.815259
0.844675
0.874018
0.902557
0.930251
0.960463
0.997009
1.03873
1.06217
1.05132
1.00288
0.975863
0.971832
0.977235
0.986176
0.995433
1.00422
1.01314
1.02184
1.03153
1.04063
1.04995
1.05942
1.06868
1.07771
1.08666
1.09696
1.10844
1.12014
1.13212
1.14219
1.14926
1.15174
1.15039
1.14367
1.13257
1.12082
1.11175
1.10385
1.09501
1.08505
1.07376
1.05911
1.03862
1.0047
0.964855
0.934697
0.917904
0.907514
0.902787
0.901735
0.902543
0.905263
0.909713
0.915871
0.922635
0.928432
0.932499
0.935951
0.938654
0.939922
0.942867
0.947446
0.953591
0.868604
0.871367
0.870164
0.86482
0.855795
0.844527
0.831754
0.817798
0.802728
0.786334
0.767827
0.74664
0.723745
0.700575
0.674929
0.639443
0.624717
0.624062
0.639742
0.657308
0.679315
0.702502
0.72782
0.754103
0.781768
0.809821
0.837685
0.865128
0.892561
0.923302
0.958747
0.997394
1.02569
1.02595
0.994588
0.972002
0.971058
0.97811
0.98938
0.998869
1.00633
1.01397
1.02165
1.03004
1.0382
1.04663
1.05516
1.06355
1.07149
1.07904
1.08731
1.09587
1.10421
1.11287
1.12063
1.12691
1.12839
1.1276
1.12278
1.11501
1.10611
1.09719
1.08701
1.07556
1.06179
1.0463
1.02812
1.00622
0.981237
0.956491
0.934272
0.918441
0.907204
0.901121
0.898903
0.89957
0.90078
0.903575
0.907519
0.911322
0.914515
0.91727
0.919394
0.921112
0.922711
0.924066
0.926012
0.929062
0.858864
0.86059
0.857407
0.849526
0.8382
0.824527
0.809292
0.792792
0.775448
0.757297
0.737663
0.716004
0.693209
0.671247
0.64935
0.620509
0.603393
0.60085
0.611812
0.627589
0.646912
0.667624
0.690442
0.714111
0.738936
0.764055
0.789254
0.815283
0.842624
0.874496
0.911227
0.949352
0.982821
0.993045
0.976275
0.961399
0.962626
0.971587
0.986357
0.998591
1.01026
1.01902
1.02529
1.03168
1.03837
1.04535
1.05252
1.05958
1.06634
1.07219
1.07764
1.08333
1.08872
1.09422
1.09889
1.1015
1.10112
1.0993
1.09573
1.09052
1.08402
1.07679
1.06756
1.05554
1.04109
1.02461
1.00597
0.985383
0.964465
0.945112
0.928608
0.915447
0.905029
0.897893
0.894241
0.893645
0.893856
0.894882
0.897311
0.900138
0.903014
0.9062
0.90903
0.910809
0.911891
0.912692
0.913769
0.916116
0.84691
0.846779
0.841393
0.830987
0.817279
0.801011
0.783155
0.764334
0.744963
0.725003
0.704045
0.682286
0.659928
0.63884
0.619705
0.597306
0.578796
0.574613
0.579895
0.593235
0.608633
0.626159
0.645156
0.665112
0.685835
0.707189
0.729022
0.752628
0.778518
0.809764
0.846223
0.885562
0.923475
0.943542
0.942279
0.93905
0.945254
0.957853
0.975235
0.991812
1.00703
1.01782
1.02884
1.03775
1.04376
1.04844
1.05314
1.05769
1.06242
1.06671
1.07019
1.07342
1.07579
1.07661
1.07662
1.07621
1.07485
1.07191
1.06741
1.0625
1.05728
1.0514
1.04366
1.03378
1.02155
1.00684
0.989843
0.971863
0.953944
0.937195
0.922568
0.910424
0.900557
0.893108
0.888687
0.886939
0.886356
0.886421
0.887845
0.890087
0.892587
0.895187
0.897445
0.898944
0.899989
0.901301
0.903396
0.90625
0.833048
0.830566
0.822738
0.810073
0.793447
0.774349
0.753934
0.732943
0.711787
0.690686
0.668991
0.646673
0.625021
0.604934
0.587568
0.570248
0.552439
0.546385
0.547046
0.556523
0.56783
0.581733
0.59605
0.611913
0.628012
0.645799
0.66426
0.684944
0.70824
0.736729
0.770413
0.807952
0.845171
0.87152
0.88465
0.894305
0.908533
0.930314
0.951775
0.973715
0.993709
1.01105
1.02595
1.03646
1.0457
1.05443
1.05975
1.06248
1.06415
1.06497
1.06559
1.06543
1.06457
1.06347
1.06121
1.05669
1.0509
1.04504
1.03983
1.03428
1.02819
1.02191
1.01521
1.00739
0.997673
0.985595
0.971329
0.955692
0.939776
0.92458
0.910911
0.899221
0.889599
0.882056
0.877192
0.874746
0.873546
0.873124
0.873867
0.875347
0.876984
0.878855
0.881088
0.883458
0.886091
0.889379
0.893454
0.898352
0.81674
0.812045
0.802351
0.786818
0.767067
0.745309
0.72269
0.699844
0.677241
0.655408
0.633893
0.611742
0.59047
0.5716
0.555536
0.541334
0.526438
0.518293
0.516138
0.520943
0.528812
0.538817
0.549305
0.561642
0.574359
0.589312
0.605055
0.623315
0.64364
0.668231
0.696748
0.728597
0.760946
0.787852
0.808107
0.826044
0.846703
0.872728
0.90349
0.934446
0.96285
0.988098
1.00909
1.02713
1.04257
1.05359
1.06065
1.06705
1.07039
1.07035
1.06827
1.06454
1.06003
1.05553
1.04976
1.04293
1.03579
1.02766
1.01939
1.01116
1.00381
0.996549
0.98856
0.979211
0.968968
0.957904
0.946026
0.933558
0.920685
0.907964
0.896102
0.885722
0.877147
0.870218
0.865231
0.862255
0.860286
0.859176
0.859281
0.86055
0.862475
0.864665
0.867321
0.870473
0.874182
0.878841
0.884438
0.891025
0.798452
0.792184
0.780164
0.761578
0.738978
0.714912
0.690481
0.666368
0.643
0.620993
0.600009
0.579077
0.558617
0.54078
0.526105
0.513824
0.502247
0.493935
0.489699
0.491241
0.495976
0.502977
0.51092
0.520625
0.531435
0.544369
0.558436
0.574973
0.592895
0.614075
0.637629
0.663115
0.688766
0.712422
0.73282
0.752007
0.773368
0.799355
0.83007
0.864425
0.900692
0.936262
0.968159
0.996085
1.01993
1.03936
1.05483
1.06527
1.07053
1.07351
1.07401
1.07079
1.06437
1.0563
1.04658
1.0374
1.02863
1.01855
1.00853
0.998839
0.98826
0.978042
0.968595
0.959163
0.949187
0.938618
0.927132
0.914741
0.901963
0.889612
0.878315
0.868511
0.860508
0.854096
0.849129
0.846013
0.84423
0.843369
0.843645
0.845248
0.847821
0.850912
0.854781
0.859768
0.86573
0.872727
0.880386
0.888569
0.778875
0.770854
0.756148
0.734763
0.709874
0.684018
0.658447
0.633773
0.610395
0.588934
0.56903
0.549804
0.530963
0.514151
0.500598
0.489677
0.480479
0.473306
0.468071
0.467674
0.469671
0.474713
0.481016
0.489278
0.499176
0.511072
0.524343
0.539839
0.556287
0.574979
0.594932
0.616533
0.637491
0.657577
0.675938
0.692747
0.710437
0.731365
0.756899
0.786966
0.820631
0.856151
0.893955
0.93164
0.96692
0.997861
1.02371
1.0439
1.05913
1.06872
1.0725
1.07197
1.0698
1.06399
1.05483
1.04338
1.03128
1.01929
1.00811
0.997155
0.9857
0.974604
0.962384
0.949924
0.937441
0.9253
0.912722
0.900004
0.887676
0.876266
0.86609
0.857232
0.849904
0.844169
0.839695
0.836768
0.835237
0.8345
0.834485
0.83577
0.838741
0.843199
0.848838
0.855545
0.862872
0.870771
0.879258
0.888311
0.758297
0.748405
0.731422
0.707828
0.68111
0.654007
0.6279
0.603397
0.580672
0.560176
0.541519
0.52399
0.507106
0.49169
0.479097
0.469108
0.461327
0.455517
0.450633
0.448631
0.449242
0.452772
0.458027
0.465449
0.474644
0.485922
0.498681
0.51343
0.529051
0.54626
0.564466
0.584135
0.603434
0.621806
0.638978
0.654394
0.669007
0.684897
0.703757
0.726294
0.752436
0.781688
0.813782
0.848033
0.884506
0.922134
0.95865
0.991745
1.01976
1.04103
1.05546
1.06412
1.06711
1.06499
1.06089
1.05395
1.04387
1.03224
1.01925
1.00644
0.993987
0.981461
0.968522
0.955749
0.942676
0.928
0.912888
0.897709
0.883791
0.871988
0.861852
0.852922
0.845353
0.839519
0.835245
0.832651
0.831533
0.831188
0.831207
0.832093
0.834773
0.839774
0.846743
0.854947
0.863898
0.87317
0.882589
0.892092
0.736536
0.724813
0.706013
0.68099
0.653107
0.625348
0.599291
0.575475
0.553859
0.534707
0.517575
0.501792
0.486758
0.472795
0.460985
0.451442
0.444248
0.439302
0.435274
0.432274
0.43216
0.434449
0.438865
0.445559
0.454026
0.4647
0.47694
0.490995
0.506097
0.522559
0.540201
0.559222
0.578294
0.596819
0.61436
0.630064
0.644066
0.657963
0.673228
0.690343
0.709792
0.731373
0.755425
0.782005
0.811181
0.842651
0.876301
0.911529
0.946989
0.980147
1.00898
1.03174
1.04695
1.05608
1.05968
1.05834
1.05432
1.04807
1.03801
1.02543
1.0118
0.998082
0.985363
0.972186
0.957376
0.940994
0.924397
0.908741
0.894957
0.882242
0.870521
0.860173
0.851481
0.84495
0.840624
0.838586
0.838095
0.838061
0.83783
0.837734
0.839157
0.843679
0.851436
0.860509
0.870196
0.880217
0.890125
0.899505
0.71451
0.701281
0.681179
0.65514
0.626799
0.599053
0.573542
0.550762
0.530414
0.512486
0.496541
0.482066
0.468558
0.456061
0.445105
0.435788
0.428615
0.42385
0.420473
0.417421
0.416739
0.418165
0.421837
0.42779
0.435509
0.445412
0.457014
0.470334
0.484964
0.500978
0.518448
0.537396
0.556776
0.57593
0.594371
0.611108
0.625884
0.639856
0.654275
0.669698
0.686411
0.704121
0.722822
0.742598
0.763934
0.787364
0.813316
0.841953
0.873184
0.906264
0.939881
0.971597
0.999571
1.02282
1.03986
1.05031
1.05524
1.05676
1.05452
1.04984
1.042
1.02963
1.01452
0.997379
0.979696
0.962258
0.944742
0.928176
0.913098
0.899407
0.887298
0.876855
0.868303
0.862025
0.858111
0.856325
0.855527
0.854754
0.853227
0.851332
0.850831
0.853513
0.860705
0.869986
0.879512
0.888977
0.898445
0.907431
0.692472
0.677849
0.657066
0.630789
0.602364
0.57485
0.550028
0.528394
0.509396
0.492731
0.477921
0.464515
0.452123
0.440745
0.430704
0.421724
0.414352
0.409276
0.40605
0.403417
0.402192
0.403008
0.40592
0.411026
0.417993
0.426938
0.437741
0.450264
0.464383
0.480037
0.497369
0.516381
0.536163
0.55586
0.575089
0.592841
0.608708
0.623519
0.638361
0.653764
0.669939
0.686636
0.70381
0.721503
0.739693
0.758541
0.778382
0.79968
0.822827
0.848164
0.875884
0.905618
0.937284
0.968881
0.997921
1.02197
1.04014
1.05203
1.05909
1.06313
1.06256
1.05866
1.05058
1.03669
1.01861
0.998047
0.977039
0.957114
0.939265
0.924164
0.911491
0.900609
0.891271
0.883971
0.879688
0.878305
0.878009
0.877229
0.874485
0.870015
0.866928
0.867127
0.8721
0.881104
0.890431
0.899072
0.907655
0.915942
0.670683
0.655112
0.633689
0.607573
0.579755
0.552852
0.528916
0.508557
0.491005
0.475527
0.461532
0.448805
0.43722
0.426612
0.417256
0.408811
0.401384
0.395805
0.392191
0.389812
0.388281
0.388718
0.391026
0.395426
0.401821
0.409922
0.419901
0.431586
0.445077
0.460239
0.477171
0.49585
0.515532
0.535387
0.554944
0.573317
0.59015
0.606001
0.62179
0.637933
0.654623
0.671706
0.689013
0.706344
0.723838
0.741761
0.760278
0.779408
0.799034
0.819702
0.841647
0.864785
0.889628
0.916605
0.9459
0.975706
1.00437
1.0294
1.04939
1.0628
1.07173
1.07661
1.07477
1.06849
1.0558
1.03861
1.01885
0.99846
0.979184
0.961819
0.946541
0.933136
0.921841
0.9133
0.908584
0.907258
0.90701
0.90556
0.901056
0.893838
0.887446
0.885079
0.887723
0.894979
0.903641
0.91139
0.918726
0.925785
0.649829
0.633964
0.612412
0.586586
0.559796
0.534063
0.511218
0.491977
0.475561
0.460945
0.447438
0.43498
0.423641
0.413454
0.404547
0.396632
0.389475
0.383603
0.379502
0.377155
0.375638
0.375917
0.37784
0.381661
0.387475
0.394804
0.403916
0.414677
0.427385
0.44189
0.458234
0.476268
0.495309
0.514845
0.534252
0.552761
0.570268
0.587149
0.604151
0.621511
0.639272
0.657257
0.675275
0.6933
0.711528
0.730055
0.748822
0.76768
0.786602
0.806048
0.826124
0.847231
0.869479
0.892304
0.915648
0.940563
0.966992
0.994905
1.02306
1.04817
1.06819
1.08075
1.08672
1.08695
1.08082
1.07037
1.05536
1.03861
1.02189
1.0055
0.99005
0.975708
0.962746
0.952345
0.945901
0.943504
0.942192
0.939093
0.932215
0.922291
0.91282
0.907949
0.908161
0.912548
0.91968
0.926265
0.932235
0.937867
0.629709
0.613693
0.592525
0.567522
0.542001
0.517642
0.495871
0.477359
0.461624
0.447818
0.435179
0.423326
0.412179
0.402005
0.393109
0.385472
0.37879
0.373082
0.368703
0.366196
0.364695
0.364881
0.366554
0.369933
0.375212
0.381947
0.390371
0.400316
0.412166
0.425813
0.441304
0.458405
0.476389
0.495162
0.514176
0.53262
0.550607
0.56841
0.586592
0.605302
0.624491
0.643949
0.663516
0.682902
0.702161
0.721312
0.740462
0.759783
0.77943
0.799481
0.819761
0.840209
0.860818
0.881518
0.902271
0.924358
0.948051
0.972955
1.00017
1.0273
1.05298
1.07405
1.08811
1.09374
1.09291
1.08709
1.07871
1.06856
1.05629
1.04376
1.03128
1.01852
1.00634
0.996591
0.990812
0.988507
0.986329
0.981303
0.97169
0.958585
0.945741
0.937506
0.935249
0.936674
0.941015
0.94594
0.950368
0.954306
0.610946
0.595116
0.574494
0.550474
0.526223
0.50322
0.482589
0.464829
0.449627
0.43635
0.42431
0.4131
0.402557
0.392721
0.38383
0.376163
0.369707
0.364285
0.359922
0.357367
0.355932
0.356143
0.357696
0.3607
0.36539
0.371446
0.379141
0.388284
0.399216
0.411857
0.426287
0.442273
0.459049
0.476776
0.495261
0.513713
0.532291
0.551127
0.570572
0.590682
0.611327
0.632245
0.65308
0.674043
0.695029
0.716029
0.736892
0.757599
0.778349
0.799297
0.820154
0.840739
0.860571
0.880094
0.900054
0.92034
0.94119
0.964239
0.989354
1.01534
1.0418
1.06443
1.08245
1.09339
1.09779
1.0956
1.09045
1.08415
1.07784
1.07046
1.0617
1.05267
1.04417
1.03767
1.03391
1.03265
1.03073
1.02516
1.01442
0.999667
0.984627
0.973538
0.968318
0.967208
0.968405
0.971115
0.973776
0.975946
0.593226
0.577809
0.557855
0.534812
0.511763
0.490076
0.47062
0.453713
0.439116
0.426402
0.414983
0.404398
0.394346
0.384841
0.376145
0.368548
0.362195
0.357078
0.352982
0.350521
0.349108
0.349263
0.350671
0.353353
0.357551
0.363011
0.37006
0.378487
0.38854
0.400123
0.413334
0.428013
0.443613
0.460396
0.478476
0.497166
0.516531
0.536519
0.557219
0.578601
0.600535
0.62282
0.645295
0.667827
0.6902
0.712353
0.734607
0.757125
0.77977
0.80272
0.825827
0.848448
0.869648
0.889206
0.907533
0.925799
0.944508
0.965541
0.988942
1.01327
1.03833
1.05932
1.07756
1.09064
1.09765
1.09956
1.0976
1.09387
1.08989
1.08534
1.08079
1.07579
1.07094
1.06814
1.06765
1.06897
1.06921
1.06519
1.05531
1.04069
1.025
1.01242
1.00486
1.00166
1.00064
1.0009
1.0017
1.00236
0.57702
0.562432
0.54362
0.521777
0.499845
0.479342
0.461041
0.445063
0.431068
0.418703
0.407578
0.39739
0.387863
0.378886
0.370573
0.363177
0.356926
0.351983
0.348083
0.345729
0.344298
0.344348
0.345602
0.34801
0.351827
0.356757
0.363172
0.370881
0.380094
0.390715
0.402897
0.416476
0.431202
0.447345
0.465112
0.484014
0.504031
0.524981
0.546745
0.569178
0.592174
0.615618
0.639424
0.663198
0.686985
0.710849
0.734836
0.758884
0.783159
0.808009
0.833162
0.858063
0.881989
0.90421
0.92437
0.942888
0.95983
0.976925
0.996492
1.01829
1.04172
1.06267
1.07957
1.09126
1.09805
1.101
1.10096
1.09985
1.09784
1.09519
1.09243
1.08982
1.08815
1.08839
1.09089
1.09547
1.09804
1.0962
1.08875
1.07606
1.06148
1.04903
1.04055
1.03595
1.03345
1.03198
1.03134
1.03098
0.562057
0.548294
0.530691
0.510162
0.489323
0.469926
0.45278
0.437883
0.424813
0.413149
0.402486
0.392584
0.383323
0.374672
0.366649
0.359429
0.353252
0.348406
0.344649
0.342433
0.341046
0.341056
0.342212
0.344472
0.348088
0.352675
0.358611
0.365723
0.374271
0.384179
0.395655
0.408525
0.422681
0.438402
0.455926
0.474937
0.495341
0.516892
0.539395
0.562635
0.586516
0.610907
0.635694
0.660795
0.685993
0.711299
0.736728
0.762488
0.78887
0.815892
0.843468
0.871079
0.89765
0.922144
0.94402
0.963265
0.980366
0.996961
1.01474
1.03334
1.05295
1.07162
1.08582
1.09569
1.10222
1.10479
1.10476
1.10395
1.10309
1.10202
1.10045
1.09965
1.09968
1.10123
1.10557
1.11288
1.11761
1.11795
1.11331
1.10358
1.09109
1.07959
1.0712
1.06599
1.06267
1.06018
1.05858
1.05783
0.549095
0.536572
0.520489
0.501532
0.481756
0.463049
0.446683
0.432678
0.420489
0.409538
0.399418
0.389939
0.381007
0.372657
0.364879
0.357861
0.351811
0.34709
0.343441
0.341315
0.340001
0.340012
0.341118
0.343248
0.346675
0.350991
0.356457
0.362974
0.370843
0.380076
0.390925
0.403316
0.417169
0.432794
0.450493
0.470026
0.49113
0.513301
0.536319
0.559948
0.584136
0.608903
0.634238
0.660201
0.686655
0.71353
0.740991
0.769038
0.797549
0.826563
0.85596
0.885276
0.91372
0.940184
0.963857
0.984406
1.00221
1.01898
1.03643
1.05453
1.07176
1.08606
1.09734
1.10425
1.10872
1.11088
1.11072
1.10918
1.10796
1.10699
1.10633
1.10668
1.10779
1.10991
1.11506
1.12432
1.13124
1.13308
1.13055
1.12364
1.11326
1.10291
1.09509
1.09011
1.08664
1.0837
1.08139
1.08022
0.538381
0.526949
0.512333
0.495148
0.476978
0.459199
0.443372
0.42984
0.418324
0.408172
0.398858
0.390077
0.381613
0.373564
0.365969
0.359026
0.352904
0.348046
0.344251
0.342029
0.340783
0.340808
0.341851
0.343812
0.346943
0.350993
0.356132
0.362313
0.369807
0.378692
0.389243
0.401544
0.415464
0.431276
0.449292
0.469299
0.490931
0.513604
0.536984
0.560783
0.584985
0.609644
0.635115
0.661557
0.689005
0.717512
0.746947
0.77721
0.808193
0.839722
0.871363
0.902482
0.932115
0.959115
0.982682
1.00291
1.0208
1.03818
1.05653
1.07537
1.09221
1.10452
1.11364
1.11698
1.1182
1.11855
1.1174
1.11524
1.11336
1.11212
1.11142
1.11172
1.1132
1.11587
1.12109
1.13123
1.14017
1.14356
1.1427
1.13814
1.12985
1.12074
1.1134
1.10855
1.10539
1.10254
1.09982
1.098
0.529654
0.51908
0.50606
0.490732
0.474395
0.457767
0.442683
0.429665
0.418806
0.409494
0.40105
0.392906
0.384765
0.376726
0.368956
0.361855
0.355606
0.350642
0.346747
0.344352
0.343113
0.343024
0.343956
0.345813
0.348741
0.352714
0.357786
0.363931
0.371396
0.380311
0.39098
0.403556
0.417859
0.434112
0.452493
0.472771
0.494497
)
;

boundaryField
{
    inlet
    {
        type            calculated;
        value           nonuniform 0();
    }
    outlet
    {
        type            calculated;
        value           nonuniform 0();
    }
    bottom
    {
        type            symmetryPlane;
    }
    top
    {
        type            symmetryPlane;
    }
    obstacle
    {
        type            calculated;
        value           nonuniform 0();
    }
    front
    {
        type            empty;
    }
    back
    {
        type            empty;
    }
    procBoundary3to2
    {
        type            processor;
        value           nonuniform List<scalar> 
28
(
0.894012
0.892899
0.890688
0.886885
0.883003
0.877864
0.871575
0.863854
0.854857
0.844113
0.83143
0.816921
0.800532
0.782466
0.763388
0.743166
0.72257
0.70177
0.681118
0.660971
0.641208
0.622506
0.604705
0.588133
0.572895
0.559214
0.547703
0.538232
)
;
    }
    procBoundary3to4
    {
        type            processor;
        value           nonuniform List<scalar> 
27
(
1.01702
1.02322
1.04037
1.04644
1.02417
0.994471
0.961296
0.933567
0.919669
0.909913
0.903977
0.898417
0.897005
0.89776
0.901725
0.908437
0.915826
0.923588
0.932264
0.942957
0.957649
0.977403
1.00246
1.03037
1.05736
1.08
1.09753
)
;
    }
    procBoundary3to11
    {
        type            processor;
        value           nonuniform List<scalar> 
89
(
0.517217
0.540457
0.563953
0.587842
0.612516
0.637822
0.664561
0.692892
0.722933
0.75464
0.787607
0.821373
0.855563
0.889353
0.921651
0.95147
0.977967
1.00053
1.01954
1.03615
1.05272
1.07119
1.09111
1.10923
1.1217
1.12944
1.13161
1.13072
1.12863
1.12547
1.12228
1.11967
1.11772
1.11655
1.11634
1.11737
1.11952
1.12399
1.1342
1.14549
1.15117
1.15169
1.14882
1.14255
1.13473
1.12807
1.1236
1.12066
1.11777
1.11461
1.1119
0.525546
0.515397
0.503614
0.489675
0.474996
0.459724
0.445678
0.433356
0.42304
0.414077
0.405856
0.397825
0.389709
0.381606
0.373686
0.366436
0.360064
0.354978
0.351017
0.348404
0.347125
0.346906
0.347833
0.349794
0.352687
0.356713
0.361886
0.368262
0.376013
0.385276
0.39643
0.409629
0.424864
0.442315
0.461909
0.483221
0.517217
0.505533
)
;
    }
}


// ************************************************************************* //
