/*--------------------------------*- C++ -*----------------------------------*\
  =========                 |
  \\      /  F ield         | OpenFOAM: The Open Source CFD Toolbox
   \\    /   O peration     | Website:  https://openfoam.org
    \\  /    A nd           | Version:  7
     \\/     M anipulation  |
\*---------------------------------------------------------------------------*/
FoamFile
{
    version     2.0;
    format      ascii;
    class       volScalarField;
    location    "2";
    object      T;
}
// * * * * * * * * * * * * * * * * * * * * * * * * * * * * * * * * * * * * * //

dimensions      [0 0 0 1 0 0 0];

internalField   nonuniform List<scalar> 
2413
(
1.48981
1.48106
1.47218
1.46322
1.454
1.4446
1.43483
1.42455
1.49153
1.48217
1.47289
1.46361
1.45423
1.44476
1.43503
1.42499
1.49525
1.48512
1.47522
1.46541
1.45565
1.44593
1.4361
1.42627
1.5007
1.49006
1.47957
1.46911
1.45879
1.44858
1.43844
1.42858
1.50679
1.4962
1.48553
1.47469
1.4639
1.45313
1.44253
1.43229
1.51254
1.50251
1.49216
1.48144
1.47055
1.45951
1.44855
1.43779
1.51729
1.50802
1.49837
1.48824
1.47774
1.46694
1.456
1.44495
1.52107
1.51249
1.50359
1.49424
1.48447
1.47433
1.46387
1.45303
1.52422
1.51606
1.50771
1.49903
1.49004
1.48074
1.47107
1.46089
1.52728
1.51926
1.51118
1.50291
1.49448
1.48587
1.477
1.46766
1.53074
1.52259
1.51448
1.50632
1.49813
1.48993
1.48163
1.47303
1.53482
1.5264
1.51807
1.50979
1.50159
1.49349
1.48547
1.47734
1.5396
1.53089
1.52228
1.51373
1.50531
1.49704
1.48899
1.48106
1.54489
1.5359
1.52704
1.51827
1.50958
1.50104
1.49275
1.48472
1.5506
1.54131
1.53223
1.52334
1.51452
1.50571
1.49708
1.48872
1.55675
1.54702
1.53761
1.52857
1.51976
1.51093
1.50206
1.49333
1.56334
1.55314
1.54329
1.53394
1.52507
1.51641
1.50755
1.49857
1.57026
1.55978
1.54943
1.53955
1.53033
1.52169
1.51307
1.50412
1.57688
1.56653
1.55594
1.54556
1.53583
1.52687
1.51837
1.5097
0.86081
0.85826
0.85589
0.854285
0.852257
0.852325
0.851957
0.852184
0.853394
0.85648
0.863607
0.879325
0.901209
0.928721
0.965651
0.995693
1.01921
1.04605
1.05961
1.41501
1.40632
1.39709
1.38715
1.37706
1.36777
1.35844
1.34738
1.33695
1.32852
1.31839
1.3063
1.2968
1.28725
1.27487
1.26479
1.25648
1.24528
1.23478
1.22674
1.21656
1.20545
1.19788
1.18967
1.17843
1.16939
1.16291
1.15422
1.14354
1.13732
1.1315
1.12248
1.11399
1.10915
1.10306
1.09387
1.08741
1.08304
1.07681
1.06805
1.063
1.05901
1.05284
1.04543
1.04188
1.0382
1.03219
1.02602
1.02285
1.01914
1.01326
1.0083
1.00562
1.00217
0.996713
0.992198
0.989276
0.985703
0.980301
0.976483
0.974254
0.971347
0.966901
0.963973
0.961677
0.958637
0.954288
0.951212
0.948783
0.9459
0.94197
0.939176
0.9368
0.933956
0.930054
0.927218
0.925118
0.922521
0.919498
0.917786
0.916172
0.913906
0.911164
0.909029
0.90666
0.903683
0.900043
0.897408
0.895604
0.893641
0.891039
0.889193
0.887703
0.885873
0.883401
0.881375
0.879722
0.877884
0.875702
0.873973
0.872295
0.870341
0.868012
0.865441
0.863334
0.86141
0.859123
0.857296
0.856248
0.85505
0.854035
0.852978
0.852718
0.853163
0.855164
0.860523
0.872916
0.892246
0.920938
0.957653
1.41578
1.40725
1.39841
1.38916
1.37946
1.37035
1.36174
1.35174
1.34134
1.33305
1.32443
1.31327
1.30358
1.29515
1.28414
1.27389
1.26609
1.25603
1.24546
1.23784
1.22888
1.21815
1.21039
1.20317
1.19311
1.18368
1.17723
1.16941
1.15888
1.15167
1.14637
1.13839
1.12911
1.12395
1.1186
1.11016
1.10274
1.09849
1.09284
1.08431
1.07841
1.0744
1.06854
1.06063
1.05634
1.05266
1.04685
1.04014
1.03683
1.0333
1.02762
1.02228
1.01939
1.01582
1.01027
1.00523
1.00207
0.998399
0.992894
0.988709
0.986343
0.98333
0.978643
0.975357
0.972974
0.969879
0.965456
0.962392
0.959979
0.957008
0.952983
0.949906
0.947171
0.943941
0.939684
0.936739
0.934777
0.932255
0.929149
0.927389
0.925757
0.923445
0.920458
0.918139
0.915735
0.912862
0.909337
0.906906
0.905073
0.903026
0.900233
0.898115
0.896372
0.89434
0.891672
0.889615
0.888158
0.886472
0.884286
0.882508
0.880937
0.879038
0.876704
0.874349
0.872618
0.871065
0.869199
0.867299
0.865963
0.864437
0.862464
0.860175
0.858498
0.856992
0.855021
0.854971
0.854696
0.855032
0.856886
0.861838
1.41732
1.40892
1.40039
1.39166
1.38242
1.37341
1.36507
1.35593
1.3457
1.3371
1.32944
1.31952
1.30965
1.30186
1.29237
1.28204
1.27409
1.26533
1.25489
1.24648
1.23886
1.22929
1.22038
1.21392
1.2061
1.19615
1.18859
1.18222
1.17322
1.16383
1.15838
1.152
1.14277
1.13616
1.13153
1.12442
1.11621
1.11164
1.10672
1.09894
1.09198
1.08784
1.08248
1.07451
1.06919
1.06554
1.06016
1.05309
1.0494
1.04605
1.0407
1.03487
1.03181
1.02829
1.02287
1.01745
1.01417
1.01049
1.00499
1.00032
0.997774
0.99468
0.989836
0.986166
0.983764
0.980696
0.976264
0.973199
0.970811
0.967773
0.963615
0.960285
0.957348
0.953881
0.949371
0.946395
0.944526
0.942074
0.938749
0.936791
0.935094
0.932722
0.929508
0.927063
0.924733
0.92208
0.918833
0.916469
0.914467
0.912226
0.909223
0.906783
0.904901
0.902826
0.900111
0.898112
0.896731
0.895054
0.892785
0.890804
0.889111
0.887143
0.884701
0.882383
0.880962
0.879595
0.877825
0.876176
0.87497
0.873543
0.871828
0.869828
0.867935
0.866172
0.864227
0.862015
0.860569
0.859367
0.857379
0.857365
1.41962
1.41127
1.40295
1.39462
1.38587
1.377
1.36874
1.36021
1.35037
1.34133
1.33398
1.32533
1.31551
1.30774
1.29974
1.28978
1.28114
1.27353
1.26391
1.25413
1.24726
1.23949
1.22977
1.22256
1.21655
1.20803
1.19877
1.19264
1.18543
1.17578
1.1689
1.16348
1.15542
1.14715
1.14252
1.13671
1.12848
1.12299
1.11861
1.11189
1.10434
1.09986
1.0949
1.08738
1.08108
1.07731
1.07236
1.06519
1.06083
1.0576
1.05264
1.04647
1.04311
1.03972
1.03455
1.02885
1.02543
1.02179
1.01643
1.01126
1.00843
1.00526
1.00034
0.996245
0.993853
0.990873
0.986451
0.983295
0.980957
0.977896
0.973641
0.970108
0.967082
0.963561
0.958922
0.955863
0.95401
0.951627
0.948133
0.945855
0.944018
0.941594
0.938189
0.935692
0.933589
0.931187
0.928173
0.925856
0.923761
0.921325
0.918079
0.915392
0.913512
0.911508
0.908816
0.90684
0.905458
0.903735
0.901377
0.899124
0.897317
0.895368
0.892931
0.890662
0.889346
0.887996
0.886201
0.884409
0.883224
0.881829
0.88011
0.878252
0.876644
0.875051
0.873414
0.87144
0.8697
0.868065
0.866171
0.863767
1.42298
1.41448
1.40612
1.39795
1.3896
1.38094
1.37269
1.36458
1.35534
1.34602
1.33846
1.33081
1.32146
1.31316
1.30613
1.29734
1.28799
1.28069
1.27251
1.26248
1.25482
1.24824
1.23939
1.23103
1.22525
1.21794
1.2088
1.2022
1.19577
1.18697
1.17926
1.17386
1.16677
1.15804
1.15269
1.14741
1.13968
1.13343
1.12922
1.1233
1.11569
1.11085
1.10622
1.09936
1.09234
1.08832
1.08369
1.07674
1.07158
1.06836
1.06376
1.05739
1.05365
1.05043
1.04562
1.03976
1.0362
1.03264
1.02751
1.02193
1.01881
1.01558
1.01072
1.00616
1.00374
1.00087
0.99647
0.993108
0.990823
0.987802
0.983501
0.979812
0.976843
0.973438
0.968834
0.965593
0.963636
0.961224
0.95757
0.954905
0.952945
0.950488
0.947014
0.944583
0.942722
0.940473
0.937498
0.935104
0.932897
0.930287
0.926833
0.924036
0.922232
0.920327
0.917693
0.915585
0.914098
0.912275
0.909753
0.907229
0.90542
0.90359
0.901236
0.899006
0.897697
0.896313
0.894485
0.892597
0.89131
0.889876
0.888127
0.886267
0.884747
0.883218
0.881544
0.879608
0.877893
0.876311
0.874714
0.872725
1.42797
1.41913
1.41048
1.40215
1.39391
1.38539
1.37711
1.36922
1.36061
1.3513
1.34327
1.33609
1.32747
1.31862
1.31168
1.30414
1.29499
1.28733
1.28024
1.27118
1.26261
1.25627
1.24846
1.23952
1.23332
1.22679
1.21814
1.2112
1.20524
1.19726
1.18954
1.18397
1.17719
1.16846
1.16261
1.15753
1.15016
1.14324
1.13909
1.13377
1.12637
1.12109
1.11672
1.11048
1.10318
1.09885
1.0945
1.08795
1.08198
1.07862
1.07436
1.06801
1.0637
1.06063
1.05617
1.05026
1.04651
1.04309
1.03826
1.03242
1.02893
1.02566
1.02092
1.0159
1.01336
1.01061
1.00629
1.00256
1.00029
0.997374
0.993113
0.989287
0.986442
0.983235
0.978831
0.975333
0.973141
0.970607
0.966843
0.963735
0.961673
0.95924
0.955768
0.953376
0.951722
0.949569
0.946564
0.943999
0.941729
0.93908
0.935571
0.932779
0.931112
0.929271
0.926679
0.924395
0.922734
0.920774
0.918143
0.915459
0.913669
0.911939
0.9097
0.907368
0.905972
0.904537
0.902651
0.900604
0.899332
0.897925
0.896183
0.894279
0.892769
0.891215
0.889443
0.887247
0.885388
0.883881
0.882312
0.880545
1.43474
1.42551
1.41643
1.40768
1.39922
1.39066
1.38222
1.37433
1.3662
1.35717
1.34866
1.34142
1.3335
1.32443
1.31692
1.31022
1.30187
1.29379
1.28732
1.27953
1.27067
1.264
1.25702
1.24814
1.24111
1.23503
1.22694
1.21969
1.21418
1.20702
1.19915
1.19352
1.18738
1.17895
1.17215
1.16725
1.16053
1.15294
1.14846
1.1437
1.13661
1.13068
1.12656
1.121
1.11372
1.10898
1.10492
1.09896
1.09231
1.08858
1.08457
1.07842
1.07344
1.07045
1.06639
1.06056
1.05653
1.05328
1.04879
1.04287
1.039
1.0357
1.03116
1.02572
1.02289
1.02023
1.01608
1.01189
1.00957
1.00681
1.0027
0.998752
0.996083
0.993098
0.988968
0.985218
0.982754
0.980036
0.976146
0.972638
0.970578
0.968257
0.964844
0.962365
0.96078
0.958654
0.955551
0.952722
0.950423
0.947849
0.944435
0.941696
0.940072
0.938211
0.935584
0.93304
0.931212
0.92916
0.926458
0.923737
0.92203
0.920341
0.918113
0.915614
0.91406
0.912552
0.910613
0.908497
0.907225
0.905851
0.904125
0.902225
0.900734
0.899119
0.897211
0.894841
0.892803
0.891263
0.889685
0.887813
1.44281
1.43342
1.42403
1.41486
1.406
1.39722
1.38855
1.3804
1.37247
1.3638
1.35495
1.34726
1.33971
1.33083
1.32243
1.31587
1.30846
1.30025
1.2938
1.2871
1.27873
1.2715
1.26503
1.25672
1.24875
1.24287
1.23562
1.2276
1.22215
1.21627
1.20854
1.20222
1.19684
1.18949
1.18174
1.17663
1.17079
1.16295
1.15737
1.15305
1.14674
1.13995
1.1358
1.13098
1.12416
1.11889
1.11504
1.10972
1.10271
1.0983
1.09446
1.08875
1.08302
1.07996
1.0763
1.07074
1.06634
1.06324
1.05911
1.0533
1.04902
1.04569
1.04138
1.0357
1.03238
1.02975
1.02583
1.02118
1.01868
1.01609
1.01222
1.00816
1.00564
1.00285
0.998962
0.994996
0.992267
0.98937
0.985393
0.981529
0.979472
0.977287
0.973985
0.971258
0.969626
0.967499
0.964345
0.96123
0.95895
0.956546
0.953344
0.950572
0.948915
0.946994
0.944294
0.941514
0.939557
0.937479
0.934852
0.932193
0.930475
0.928729
0.926457
0.923697
0.921949
0.920405
0.918431
0.916233
0.915011
0.913717
0.912005
0.91002
0.908544
0.90695
0.905
0.902544
0.900427
0.898833
0.897242
0.895205
1.45113
1.44196
1.43262
1.42328
1.41413
1.40514
1.39626
1.38777
1.37973
1.37133
1.36234
1.35402
1.34641
1.3379
1.32882
1.3217
1.31495
1.30699
1.30013
1.29411
1.28657
1.2789
1.27259
1.26515
1.25657
1.25016
1.2438
1.23576
1.22937
1.22435
1.21756
1.21056
1.20546
1.19935
1.19155
1.18566
1.18047
1.17331
1.16628
1.16184
1.15638
1.14929
1.14465
1.14051
1.13445
1.12864
1.12482
1.12007
1.11321
1.10786
1.10404
1.09885
1.09262
1.08922
1.08593
1.08079
1.0759
1.07288
1.06909
1.06361
1.05896
1.05563
1.05157
1.04588
1.04189
1.03914
1.03544
1.03046
1.02763
1.02524
1.02167
1.01749
1.01502
1.01242
1.00875
1.00458
1.00166
0.998696
0.994742
0.990615
0.988545
0.986458
0.98328
0.980193
0.978413
0.976257
0.973082
0.969705
0.967498
0.96527
0.962258
0.95933
0.957532
0.955526
0.952748
0.949761
0.947826
0.945849
0.943352
0.940762
0.939004
0.937138
0.934715
0.931697
0.929769
0.928189
0.926206
0.923905
0.922631
0.921348
0.919623
0.917525
0.916007
0.914426
0.912507
0.910079
0.907964
0.906289
0.904641
0.902488
1.45862
1.45
1.44109
1.432
1.42289
1.41391
1.40506
1.39638
1.38812
1.3799
1.37097
1.36207
1.35405
1.34579
1.33648
1.3284
1.3218
1.31427
1.30686
1.30093
1.29421
1.28638
1.27978
1.27311
1.26477
1.25731
1.25133
1.24397
1.2366
1.23164
1.22585
1.21879
1.21345
1.2082
1.20113
1.19459
1.18945
1.18303
1.17535
1.17033
1.16546
1.15871
1.15331
1.14959
1.14437
1.13829
1.13422
1.12988
1.12351
1.1173
1.11333
1.10864
1.1023
1.09824
1.0952
1.09058
1.08524
1.08209
1.07867
1.07362
1.06873
1.06539
1.06156
1.05612
1.05142
1.04845
1.04488
1.0398
1.03653
1.0343
1.03104
1.02677
1.02418
1.02172
1.01824
1.01388
1.01077
1.00783
1.00403
0.999731
0.997527
0.995472
0.992423
0.988991
0.986992
0.984812
0.981705
0.978174
0.975976
0.973855
0.970989
0.967788
0.965753
0.963656
0.960825
0.957719
0.955901
0.954073
0.951715
0.949166
0.947332
0.945345
0.942785
0.939526
0.937436
0.93585
0.933898
0.931484
0.930115
0.928828
0.927089
0.924853
0.923288
0.921762
0.91992
0.917555
0.915453
0.913697
0.911952
0.90969
1.46473
1.45679
1.44852
1.43995
1.43121
1.42255
1.41402
1.4055
1.3972
1.38913
1.38049
1.3713
1.36272
1.35452
1.34541
1.33643
1.3294
1.32234
1.31457
1.30812
1.30196
1.29436
1.28714
1.2808
1.27311
1.26488
1.25869
1.25204
1.24426
1.23872
1.23367
1.22694
1.22107
1.21629
1.21003
1.20316
1.19786
1.192
1.18437
1.17852
1.17405
1.16796
1.16192
1.15826
1.15375
1.14769
1.14312
1.13905
1.13333
1.12668
1.12238
1.11809
1.11204
1.10713
1.10411
1.09996
1.09436
1.09084
1.08777
1.08322
1.07817
1.07477
1.07117
1.06608
1.06083
1.05759
1.05411
1.04914
1.04539
1.04323
1.04025
1.03593
1.03303
1.03065
1.02734
1.02286
1.01954
1.0167
1.01318
1.00881
1.00637
1.00431
1.00138
0.997685
0.995469
0.993316
0.990339
0.986742
0.984464
0.982339
0.979518
0.976014
0.973691
0.971538
0.968737
0.965597
0.963908
0.962234
0.959951
0.957315
0.955411
0.953359
0.950714
0.947307
0.945121
0.943514
0.941564
0.939015
0.937483
0.936127
0.934349
0.932006
0.930363
0.928872
0.927081
0.92475
0.922612
0.920754
0.918896
0.916536
1.4696
1.46223
1.45455
1.44656
1.43834
1.43017
1.42216
1.4141
1.40606
1.39827
1.39017
1.38118
1.37221
1.36395
1.35524
1.34586
1.33804
1.33122
1.32346
1.31624
1.31015
1.30296
1.2951
1.28854
1.28154
1.2731
1.26613
1.26011
1.25271
1.2461
1.24127
1.23519
1.2287
1.22386
1.21833
1.21136
1.2056
1.20034
1.1934
1.18662
1.18225
1.17701
1.17055
1.16638
1.16243
1.1567
1.15147
1.14755
1.14248
1.13587
1.13112
1.12712
1.12164
1.11593
1.11265
1.10887
1.10334
1.09922
1.09638
1.09234
1.08722
1.08366
1.08024
1.07553
1.06998
1.06644
1.06311
1.05843
1.05424
1.05205
1.04927
1.04502
1.04166
1.03925
1.03608
1.03159
1.02803
1.0253
1.02203
1.01766
1.01488
1.01279
1.00995
1.00612
1.00369
1.00161
0.998798
0.995224
0.992764
0.990523
0.987671
0.983901
0.981282
0.979147
0.976459
0.973342
0.971689
0.970112
0.967877
0.965101
0.963038
0.960945
0.958317
0.954856
0.952554
0.950919
0.94898
0.94634
0.944629
0.94322
0.941432
0.939047
0.937347
0.935892
0.93412
0.93176
0.929524
0.927562
0.925592
0.923133
1.47365
1.4667
1.4595
1.45201
1.44424
1.43652
1.42899
1.42146
1.41385
1.40645
1.39905
1.39071
1.38178
1.37345
1.36525
1.35613
1.34753
1.34058
1.33324
1.3254
1.31884
1.31216
1.30411
1.29676
1.29016
1.28222
1.27434
1.26842
1.2617
1.25437
1.24912
1.24367
1.23671
1.23107
1.22619
1.21969
1.21303
1.20802
1.20214
1.19511
1.19024
1.18565
1.17937
1.17414
1.17043
1.16531
1.15936
1.15527
1.15086
1.14476
1.13952
1.13571
1.13083
1.12479
1.12098
1.11744
1.11225
1.10739
1.10458
1.10099
1.09591
1.09199
1.0887
1.08435
1.07873
1.07496
1.07183
1.06753
1.06297
1.06058
1.05793
1.05383
1.04998
1.04748
1.04444
1.04009
1.03628
1.03362
1.03056
1.02628
1.02309
1.02095
1.01822
1.01436
1.0117
1.0097
1.00706
1.00347
1.00079
0.998431
0.995513
0.991599
0.988793
0.986772
0.984275
0.981142
0.979373
0.977817
0.975596
0.972637
0.970362
0.968253
0.965691
0.962226
0.95978
0.9581
0.956145
0.953424
0.951574
0.95017
0.948412
0.946063
0.944325
0.942849
0.941039
0.938594
0.936183
0.934073
0.931988
0.929449
1.47742
1.47073
1.46388
1.45674
1.44932
1.44188
1.43466
1.4275
1.42025
1.41321
1.40643
1.39903
1.39065
1.38239
1.37469
1.36631
1.35741
1.35
1.34314
1.33527
1.32804
1.32162
1.31393
1.30581
1.29911
1.29186
1.28355
1.27706
1.27107
1.2637
1.25725
1.25212
1.24561
1.23872
1.23364
1.22788
1.22093
1.2156
1.21056
1.20397
1.1983
1.19404
1.18845
1.18211
1.17797
1.17342
1.16729
1.16249
1.15854
1.15314
1.14751
1.14377
1.1395
1.13361
1.12907
1.12566
1.12096
1.11558
1.11245
1.10916
1.10428
1.09986
1.09664
1.09262
1.08717
1.08314
1.08019
1.07631
1.07151
1.06873
1.06615
1.06226
1.058
1.05535
1.05246
1.04835
1.04438
1.04176
1.03884
1.03469
1.03109
1.02887
1.02621
1.0224
1.01944
1.01745
1.01491
1.01129
1.00829
1.00583
1.00291
0.998982
0.996107
0.994273
0.991994
0.988866
0.986882
0.985279
0.983057
0.979995
0.977442
0.975259
0.97275
0.969315
0.966606
0.964834
0.962866
0.960114
0.958137
0.956806
0.955127
0.952845
0.951084
0.949591
0.94773
0.945193
0.942586
0.940333
0.938158
0.935569
1.48125
1.47461
1.46797
1.46113
1.45401
1.4468
1.43972
1.43273
1.42568
1.4188
1.41236
1.40581
1.39827
1.39031
1.38299
1.37548
1.36694
1.35899
1.35234
1.34498
1.33729
1.33078
1.32382
1.31562
1.30837
1.30171
1.29381
1.28634
1.2805
1.27369
1.26639
1.26075
1.25472
1.2473
1.24138
1.23616
1.22942
1.22327
1.21877
1.21313
1.20685
1.20226
1.19723
1.19072
1.18558
1.18125
1.17536
1.16955
1.16576
1.16115
1.1554
1.15136
1.14756
1.1422
1.13705
1.13361
1.1294
1.12379
1.12003
1.1169
1.11234
1.10746
1.10417
1.1005
1.09544
1.09117
1.08832
1.08475
1.07981
1.07644
1.07382
1.07014
1.06556
1.06271
1.06001
1.05621
1.05218
1.04958
1.04679
1.04288
1.03898
1.03664
1.03406
1.03035
1.02704
1.02492
1.0224
1.01874
1.01532
1.01281
1.01
1.0062
1.00332
1.00166
0.999559
0.996481
0.9942
0.992533
0.990317
0.987228
0.984439
0.982154
0.979641
0.976234
0.973164
0.971282
0.969322
0.966581
0.964513
0.963297
0.961711
0.959456
0.957646
0.956143
0.954238
0.951623
0.94885
0.946505
0.944297
0.941691
1.48553
1.47869
1.47204
1.46538
1.45854
1.45154
1.44453
1.43758
1.43059
1.42372
1.4173
1.4112
1.40455
1.39715
1.39007
1.38329
1.37558
1.36733
1.36048
1.3537
1.34604
1.33926
1.33299
1.32541
1.31784
1.31145
1.30422
1.29628
1.29
1.28371
1.27615
1.2696
1.26391
1.25682
1.24965
1.24448
1.2385
1.2318
1.22696
1.222
1.21576
1.2106
1.20595
1.19975
1.19346
1.18899
1.18372
1.17731
1.17296
1.16887
1.16336
1.15881
1.15532
1.15056
1.14495
1.14118
1.13732
1.13186
1.12726
1.12409
1.11994
1.11486
1.11146
1.10816
1.10358
1.09916
1.09624
1.09286
1.08798
1.08385
1.08101
1.07749
1.07274
1.06961
1.06712
1.06367
1.05959
1.05703
1.05442
1.05077
1.04675
1.0443
1.04174
1.03814
1.03449
1.03207
1.02946
1.02581
1.02193
1.01937
1.01678
1.01322
1.01025
1.00868
1.00671
1.00374
1.00115
0.999447
0.997286
0.994256
0.991321
0.988912
0.986328
0.982966
0.979495
0.977446
0.975524
0.972844
0.970647
0.969487
0.967988
0.965728
0.963764
0.96224
0.960327
0.957681
0.954759
0.952397
0.95024
0.94769
1.49043
1.48326
1.47636
1.46965
1.46296
1.45617
1.44927
1.44233
1.43536
1.42844
1.42189
1.41584
1.40981
1.4031
1.39627
1.38989
1.38301
1.37504
1.36767
1.36114
1.35383
1.34674
1.34085
1.33426
1.32688
1.32054
1.3141
1.30643
1.2994
1.29336
1.28619
1.27883
1.273
1.2665
1.25898
1.25331
1.24783
1.241
1.23544
1.23089
1.22496
1.21891
1.21428
1.20871
1.202
1.19687
1.19194
1.1856
1.18053
1.1767
1.17166
1.1665
1.16298
1.1587
1.15307
1.14863
1.14483
1.13968
1.13423
1.13087
1.1271
1.12207
1.11853
1.11558
1.11155
1.10713
1.10405
1.10074
1.09601
1.09116
1.08792
1.08443
1.07964
1.07611
1.07377
1.07063
1.06656
1.06393
1.06154
1.05821
1.05423
1.05167
1.04913
1.04567
1.04175
1.03901
1.03625
1.03261
1.02841
1.02582
1.02347
1.02023
1.017
1.01534
1.01349
1.01064
1.0077
1.00594
1.00389
1.00096
0.997894
0.995426
0.992797
0.989492
0.985707
0.983505
0.981691
0.979137
0.976718
0.975504
0.974092
0.971846
0.969612
0.968024
0.966145
0.963557
0.960514
0.958178
0.956129
0.953688
1.49583
1.48838
1.48115
1.47419
1.46747
1.46082
1.45404
1.44714
1.44016
1.43319
1.42644
1.42019
1.41434
1.40824
1.40175
1.39556
1.38931
1.38203
1.37432
1.3676
1.3607
1.35345
1.34747
1.34176
1.33502
1.32873
1.32292
1.31593
1.30853
1.30238
1.29568
1.28801
1.28184
1.27597
1.26877
1.26243
1.25729
1.25088
1.24443
1.23965
1.23405
1.2276
1.22252
1.21731
1.21057
1.20485
1.20023
1.19442
1.18864
1.18474
1.18015
1.1748
1.17091
1.16687
1.16134
1.15618
1.15217
1.14727
1.1412
1.13734
1.1339
1.12919
1.12541
1.12278
1.11917
1.1148
1.11157
1.10831
1.10381
1.09853
1.09473
1.09116
1.08646
1.08252
1.08021
1.07732
1.07327
1.07049
1.06833
1.06525
1.06131
1.0586
1.05607
1.05271
1.04855
1.04552
1.04267
1.03908
1.03482
1.03221
1.03003
1.02709
1.02358
1.02163
1.01986
1.01715
1.01387
1.01193
1.01003
1.00729
1.00406
1.00152
0.99894
0.995755
0.991851
0.989454
0.987782
0.985448
0.982736
0.981287
0.979937
0.97778
0.975201
0.973416
0.971575
0.969122
0.965987
0.96363
0.961721
0.959446
1.50148
1.49392
1.48642
1.47917
1.47224
1.46557
1.4589
1.45207
1.44512
1.43814
1.43122
1.42465
1.41865
1.41286
1.40672
1.40064
1.39478
1.3882
1.38069
1.37359
1.36689
1.35972
1.35336
1.34806
1.34207
1.33586
1.33041
1.32424
1.31701
1.3105
1.30422
1.29678
1.29009
1.28474
1.27828
1.27177
1.26667
1.2607
1.25392
1.24868
1.24323
1.23645
1.23066
1.22568
1.21931
1.21299
1.20842
1.20305
1.19715
1.19305
1.18872
1.18331
1.17899
1.17506
1.16977
1.1641
1.15959
1.15477
1.14856
1.14403
1.14079
1.13636
1.13228
1.12979
1.1265
1.12218
1.11871
1.1155
1.11121
1.10576
1.10149
1.09778
1.09324
1.08895
1.0866
1.08387
1.07989
1.07694
1.07484
1.07193
1.068
1.06503
)
;

boundaryField
{
    inlet
    {
        type            fixedValue;
        value           nonuniform 0();
    }
    outlet
    {
        type            inletOutlet;
        inletValue      nonuniform 0();
        value           nonuniform 0();
    }
    bottom
    {
        type            symmetryPlane;
    }
    top
    {
        type            symmetryPlane;
    }
    obstacle
    {
        type            zeroGradient;
    }
    front
    {
        type            empty;
    }
    back
    {
        type            empty;
    }
    procBoundary13to5
    {
        type            processor;
        value           nonuniform List<scalar> 
129
(
1.48961
1.48145
1.47305
1.46449
1.45538
1.44598
1.43595
1.42515
0.852742
0.8517
0.851406
0.852283
0.854816
0.859793
0.872134
0.893304
0.918023
0.946971
0.980383
1.01103
1.03369
1.05656
1.07336
1.0833
1.09121
1.09907
1.10173
1.41506
1.40611
1.39644
1.3856
1.37513
1.3654
1.35469
1.34249
1.33194
1.32258
1.31056
1.29794
1.28835
1.27732
1.26362
1.25354
1.24455
1.23227
1.22054
1.21214
1.20185
1.18968
1.18134
1.17297
1.16153
1.15214
1.14546
1.13647
1.12593
1.11987
1.11357
1.10409
1.096
1.0911
1.08469
1.07537
1.06944
1.06506
1.05862
1.05007
1.04556
1.04154
1.0352
1.02844
1.02538
1.02179
1.01585
1.01018
1.00705
1.00325
0.997296
0.992638
0.990128
0.986902
0.981735
0.977756
0.975118
0.971767
0.966637
0.9631
0.960918
0.95813
0.953947
0.95133
0.949202
0.946329
0.94216
0.939095
0.936732
0.933967
0.930136
0.927614
0.925652
0.92323
0.919737
0.917157
0.915084
0.912547
0.909537
0.907766
0.906141
0.903988
0.90149
0.899556
0.897332
0.894429
0.890892
0.88815
0.886349
0.884385
0.881966
0.880299
0.878909
0.877178
0.874842
0.872856
0.871106
0.869148
0.866773
0.864775
0.862941
0.862941
)
;
    }
    procBoundary13to6
    {
        type            processor;
        value           nonuniform List<scalar> 5(1.06863 0.989329 0.873521 0.857284 0.862305);
    }
    procBoundary13to14
    {
        type            processor;
        value           nonuniform List<scalar> 
14
(
0.871231
0.879365
0.8866
0.893765
0.900865
0.907933
0.914639
0.921136
0.927381
0.933472
0.939532
0.945434
0.951284
0.956916
)
;
    }
    procBoundary13to20
    {
        type            processor;
        value           nonuniform List<scalar> 3(1.49834 1.50085 1.50532);
    }
    procBoundary13to21
    {
        type            processor;
        value           nonuniform List<scalar> 
129
(
1.58279
1.57283
1.56246
1.5519
1.54163
1.53216
1.52346
1.51498
1.06247
1.05917
1.05484
1.05151
1.04867
1.0453
1.04121
1.03858
1.03656
1.03385
1.03016
1.02773
1.02596
1.0234
1.01988
1.01752
1.01574
1.01324
1.00986
1.00708
1.00463
1.00169
0.997893
0.995229
0.99369
0.991626
0.988719
0.986853
0.985512
0.983511
0.980737
0.978634
0.976816
0.974548
0.971444
0.968925
0.967144
0.965074
1.50696
1.49947
1.49188
1.4844
1.47722
1.47042
1.46382
1.45715
1.45033
1.44342
1.43643
1.42952
1.42312
1.41724
1.41129
1.40521
1.39948
1.39348
1.38648
1.37923
1.37258
1.36573
1.35905
1.35367
1.34829
1.3423
1.3369
1.33139
1.32466
1.31789
1.31175
1.30472
1.29769
1.29258
1.2869
1.28055
1.27548
1.27
1.26335
1.25762
1.25219
1.24543
1.23907
1.23396
1.22785
1.22127
1.21674
1.21181
1.20581
1.20134
1.19724
1.19193
1.18718
1.1832
1.17806
1.17211
1.16725
1.16244
1.1563
1.15119
1.14804
1.14391
1.13945
1.13672
1.13362
1.12931
1.12553
1.12231
1.11818
1.1127
1.10805
1.10424
1.09988
1.09547
1.09307
1.09048
1.08664
1.08346
1.0813
1.0785
1.07455
1.06247
1.0712
)
;
    }
    procBoundary13to28
    {
        type            processor;
        value           nonuniform List<scalar> 
16
(
1.51103
1.51684
1.52193
1.52596
1.5292
1.53211
1.53523
1.53895
1.54338
1.54848
1.55409
1.56015
1.56673
1.57366
1.58053
1.58686
)
;
    }
}


// ************************************************************************* //
