/*--------------------------------*- C++ -*----------------------------------*\
  =========                 |
  \\      /  F ield         | OpenFOAM: The Open Source CFD Toolbox
   \\    /   O peration     | Website:  https://openfoam.org
    \\  /    A nd           | Version:  7
     \\/     M anipulation  |
\*---------------------------------------------------------------------------*/
FoamFile
{
    version     2.0;
    format      ascii;
    class       volVectorField;
    location    "0.071";
    object      U;
}
// * * * * * * * * * * * * * * * * * * * * * * * * * * * * * * * * * * * * * //

dimensions      [0 1 -1 0 0 0 0];

internalField   nonuniform List<vector> 
12359
(
(0.98164 0.00319144 -7.61352e-17)
(0.971951 0.000265598 3.27646e-18)
(0.999987 2.19255e-05 -4.56919e-21)
(0.933164 -0.000366889 3.48495e-21)
(0.977802 0.00096736 -2.50839e-18)
(0.874661 0.000424232 -6.61716e-21)
(0.825027 -0.00768575 -1.27088e-17)
(0.855995 0.000235413 -4.54824e-19)
(0.773941 -0.0128319 9.39744e-17)
(0.888603 0.000239167 0)
(0.805729 0.0179784 -1.08903e-16)
(0.732955 0.0652014 2.10913e-18)
(0.262724 0.0191694 1.6953e-17)
(0.921666 0.000260279 0)
(0.936716 -0.00334093 1.58757e-19)
(0.482507 0.0119383 0)
(0.392568 0.0131127 6.54097e-19)
(0.994635 -1.91459e-05 -2.09093e-18)
(0.995061 -2.02587e-05 -2.28423e-19)
(0.95602 -2.81906e-05 -2.13407e-18)
(0.91113 0.000319726 0)
(0.732604 0.0227807 2.45115e-17)
(0.963242 -0.00116167 -1.0313e-19)
(0.952993 0.00844605 -7.36581e-18)
(0.968211 -0.000234193 -3.31242e-18)
(0.959947 -0.00121607 -2.39255e-19)
(0.998225 -4.09919e-05 -1.637e-19)
(0.998372 -9.36867e-07 7.78486e-21)
(0.995829 9.1456e-06 -4.26242e-21)
(0.99766 1.79714e-05 -4.42823e-20)
(0.99725 5.92623e-05 -1.63635e-18)
(0.998954 0.000200762 6.14547e-19)
(0.999447 -1.3229e-05 -3.59083e-19)
(0.997929 2.52139e-05 1.36049e-20)
(0.99975 -1.37704e-05 3.87733e-18)
(0.997041 1.5319e-05 1.2788e-18)
(0.988996 0.000302528 -4.07757e-20)
(0.983633 -0.00106141 9.34351e-17)
(0.978459 0.000671582 -4.97409e-17)
(0.986555 -0.000850973 1.14043e-17)
(0.973193 -0.00128213 -1.72827e-18)
(0.9858 -0.000239431 -1.11915e-17)
(0.99199 -0.000381107 1.05571e-18)
(0.992643 5.99429e-05 1.90258e-17)
(0.996495 -5.78976e-05 6.39015e-21)
(0.996191 -2.51286e-05 0)
(0.996709 -1.1983e-05 1.15484e-19)
(0.997328 -0.000112074 3.97157e-19)
(0.995451 -5.82069e-06 -3.09165e-20)
(0.998076 -2.18637e-05 1.37458e-19)
(0.998493 1.68063e-05 1.204e-20)
(0.998708 -2.55678e-05 5.69508e-22)
(0.999095 -5.92957e-05 -4.05075e-19)
(0.994165 -8.25001e-06 -1.97078e-17)
(0.999381 0.000229128 -6.21355e-20)
(0.99939 -9.82271e-06 -5.48053e-20)
(0.993153 4.52647e-05 3.22071e-17)
(0.999522 -1.74911e-07 -4.85689e-18)
(0.99957 -1.48083e-05 2.07508e-18)
(0.999641 5.37725e-05 -2.64567e-18)
(0.999361 6.59599e-05 9.64119e-20)
(0.999909 6.87202e-05 1.43187e-19)
(0.998649 -1.34049e-05 1.42261e-22)
(0.152834 0.130015 -2.11704e-17)
(0.993671 5.32955e-06 -2.56257e-17)
(0.900913 -0.000126428 0)
(0.99057 0.00179343 -8.86789e-19)
(0.998749 -4.1897e-05 2.9431e-20)
(0.988421 8.39625e-05 1.54581e-20)
(0.58859 0.0526855 -4.59706e-19)
(-0.0997663 -0.193667 0)
(0.976021 -0.000467778 -1.68264e-18)
(0.999991 -1.83798e-05 0)
(0.987621 -0.000474909 2.24486e-18)
(0.94276 -0.00253526 9.21912e-18)
(0.999777 -6.09056e-05 3.1811e-19)
(0.999052 -0.000183941 -6.8658e-20)
(0.999911 -8.72132e-06 -4.71699e-21)
(0.989617 -0.000711097 3.82205e-19)
(0.625887 -0.0401586 1.31196e-19)
(0.914651 0.0682262 -1.40526e-17)
(1.00338 0.00294472 -6.26279e-18)
(1.00004 3.99138e-05 2.66227e-18)
(0.998111 0.0128271 3.28879e-18)
(1.09149 0.122026 3.93301e-19)
(1.02087 -0.000558065 -7.53072e-20)
(1.00376 0.00276573 -7.97535e-18)
(1.00136 0.000190931 1.33238e-18)
(1.11007 0.0504403 2.81986e-19)
(1.09498 0.131333 -1.26727e-19)
(0.999958 0.000339915 2.09797e-17)
(0.320097 0.383473 -9.36344e-18)
(1.00002 0.000154755 -6.2687e-18)
(1.00053 0.00652097 5.25969e-17)
(1.00034 0.00990992 1.60661e-17)
(1.02869 -0.00161675 -5.01726e-20)
(1.00019 0.00478302 3.13669e-17)
(0.999351 0.00547845 -3.14542e-17)
(0.991594 0.0323175 -3.42765e-18)
(0.994725 0.017889 9.29349e-18)
(0.948426 0.0672989 1.01944e-17)
(1 -4.92817e-06 1.58899e-19)
(1.01902 0.00199285 2.98395e-20)
(1.15704 0.0409039 -2.71226e-17)
(1.0039 0.000752333 -4.1578e-18)
(1.03052 0.0188506 1.07799e-17)
(1.00035 4.41641e-06 -8.16645e-20)
(1.10285 0.1155 -1.45427e-18)
(1.01808 0.000995489 6.88064e-21)
(1.0319 0.0155888 -8.74808e-18)
(1.00013 0.00436312 6.37307e-18)
(1.003 0.00268607 2.67307e-18)
(0.934968 0.0518341 -6.36695e-18)
(0.973678 0.0814543 7.88536e-19)
(0.998737 0.0104197 3.41735e-17)
(1.00255 -0.000157136 1.04773e-20)
(0.95728 0.068072 3.20052e-19)
(1.00389 0.00203385 1.26102e-19)
(1.10841 0.0416624 -3.95777e-19)
(1 7.38388e-05 3.11642e-19)
(0.999939 0.00452752 4.78105e-18)
(0.871374 0.0221821 9.70143e-18)
(1.00178 6.77323e-05 -2.36736e-18)
(1.03176 0.00285085 9.0103e-18)
(1.00458 0.0022779 5.07866e-20)
(1.00287 0.00031075 2.41287e-17)
(1.00742 0.0892562 7.0442e-17)
(0.997393 0.0117461 -5.45195e-18)
(0.999936 5.413e-05 1.22978e-18)
(1.00371 0.00192189 1.83045e-17)
(1.0025 0.000239753 2.2664e-19)
(1.05812 0.00906023 1.27119e-19)
(1.06294 0.0023262 -4.40105e-18)
(1.05935 0.0108387 -3.3051e-19)
(1.00033 8.20633e-05 1.1096e-21)
(1.03199 0.00219158 -2.56305e-19)
(1.00231 0.000596313 4.84833e-21)
(1.03393 0.00404155 -9.37554e-19)
(0.99999 0.00022635 -8.41755e-18)
(1.01246 0.0787757 6.97868e-17)
(1 0.000148119 -1.19049e-17)
(0.983884 0.00246754 2.4842e-16)
(1.02837 0.0101944 2.41309e-18)
(1.00037 7.60294e-05 -9.78813e-22)
(1.03847 0.0323524 -5.89301e-20)
(0.887574 0.0397924 -5.06406e-18)
(1.00004 3.36529e-05 -8.73317e-19)
(1.0943 0.106792 1.04654e-17)
(1.00448 0.000195628 -7.46657e-19)
(0.933881 0.0618581 -7.31706e-18)
(1.03641 0.00181104 -7.11388e-19)
(0.99999 0.000135584 -7.0442e-18)
(1.02682 0.010261 3.40238e-18)
(1.00128 0.00010316 -8.03372e-19)
(1.00001 -2.82772e-05 7.35837e-20)
(0.536526 1.19681 1.38701e-16)
(0.941433 0.089672 2.93829e-18)
(1.06151 -0.000631457 4.25649e-20)
(1.00007 0.00476594 -1.97447e-17)
(0.99898 0.000484969 2.56074e-18)
(1.00679 0.0384486 1.71733e-17)
(0.998999 0.00050383 -1.48295e-18)
(1.03309 0.00310932 8.92374e-19)
(1.02954 0.00890721 -7.86428e-18)
(1.00009 5.13772e-05 8.56424e-19)
(1.00287 0.000350233 -1.11988e-17)
(1.00256 0.0429476 5.97348e-17)
(0.876404 0.0124706 9.79345e-18)
(1.02837 0.00859854 6.50624e-19)
(1.09624 0.0454113 4.67045e-19)
(0.999855 1.07831e-05 1.48315e-18)
(0.999863 0.000102528 5.1777e-18)
(1.02897 0.00705063 -1.6478e-18)
(0.972724 0.0027719 -8.51732e-17)
(1.00429 0.00106836 2.86612e-18)
(1.00416 0.0875202 -9.0341e-17)
(0.996371 0.000529738 -9.35118e-19)
(0.996438 0.000519541 -4.05302e-19)
(0.947825 0.0497407 -1.29148e-18)
(1.00769 0.0768375 -7.1705e-18)
(0.936932 0.00857345 -6.53632e-19)
(1.00001 0.00019474 -6.3052e-19)
(0.999912 5.9943e-05 -3.94283e-18)
(1.00362 0.00233988 2.03473e-18)
(0.991794 0.0255314 1.25699e-18)
(0.815194 0.144852 1.15134e-15)
(1.00354 0.00604234 -3.98645e-20)
(1.00051 0.00918858 1.8004e-17)
(1.03149 -0.00237995 -1.24017e-19)
(1.00433 0.00490869 1.83792e-18)
(1.00037 0.00964276 1.36958e-17)
(1.02825 -0.000497452 1.32808e-20)
(1.03057 -0.000236422 1.50196e-18)
(1.00182 0.000284441 -1.85541e-19)
(1.03604 0.0143697 -3.13781e-18)
(1.14214 0.0331841 -1.53036e-16)
(1.01446 0.0113406 2.82312e-20)
(1.00341 0.00519142 2.43009e-18)
(1.02903 0.0117632 4.77482e-19)
(1.00396 0.00221733 1.66334e-18)
(0.903348 0.0279505 -1.07069e-18)
(1.03089 0.00446868 4.4924e-19)
(0.993805 0.0160357 3.39596e-18)
(1.02846 0.0145401 1.46884e-17)
(1.03416 0.0297398 -5.15812e-20)
(1.00002 0.000324483 2.18962e-18)
(1.0356 0.0324383 9.42287e-20)
(0.992949 0.0181171 7.97086e-18)
(1.0341 0.00302815 -1.07838e-18)
(1.0057 0.0033161 -1.51154e-17)
(1.00003 0.000135445 -4.64465e-19)
(1.04446 0.00587321 3.94159e-18)
(1.04629 0.000318308 3.27298e-18)
(1.26041 0.139523 -7.13323e-17)
(0.845346 0.0736476 -1.52534e-17)
(0.999918 0.000240115 6.00223e-18)
(1.00372 0.00541163 -2.22827e-18)
(0.999518 0.00962312 4.70242e-17)
(1.00409 0.0046358 2.90462e-18)
(0.984648 0.00160559 5.14046e-16)
(0.946654 0.0623113 1.33057e-16)
(1.00532 0.00440666 -1.66711e-17)
(1.03199 0.00348927 2.00425e-18)
(0.258771 0.201867 -1.17506e-18)
(1.00497 0.00257091 3.61095e-18)
(1.00005 0.000273254 -7.33396e-19)
(0.981403 0.00171835 2.44605e-16)
(1.01801 0.000253597 -7.03968e-21)
(1.00448 0.080552 4.55282e-17)
(1.00289 0.00572871 6.82943e-18)
(1.00293 0.00573503 3.4975e-18)
(1.00011 4.78091e-05 2.69916e-18)
(1.03834 0.0339153 3.28294e-20)
(0.993473 0.0240849 1.24918e-17)
(1.00076 0.00910973 3.98993e-18)
(0.9959 0.0184744 2.87669e-17)
(1.00002 0.000123167 -1.27885e-18)
(1.03001 0.0122122 -4.02666e-19)
(1.00008 0.00940435 2.96532e-17)
(0.615237 0.292667 -3.14275e-17)
(1.00015 0.000105965 -7.04818e-22)
(1.01851 -0.00173101 2.60554e-20)
(1.00077 0.00752393 3.47216e-18)
(0.976718 0.15753 2.2297e-17)
(1.00997 0.0407252 -6.45415e-18)
(1.08737 0.094264 -2.36023e-17)
(0.999595 3.89864e-05 -3.05731e-16)
(1.03077 -0.00140998 -2.61283e-18)
(1.00352 0.000697788 5.41521e-19)
(1.02558 0.00249621 2.33314e-18)
(1.03865 0.00385804 -1.03179e-18)
(0.985525 0.00172342 6.642e-17)
(0.997163 0.000547887 3.47631e-18)
(1.00285 0.00615038 1.57626e-17)
(0.561936 0.370888 4.59243e-16)
(1.35444 0.139401 -1.30307e-16)
(0.999981 0.000102754 7.16724e-20)
(1.00546 0.00214006 5.14517e-18)
(0.488889 0.342871 2.29194e-17)
(1.0614 -0.00663063 6.32536e-17)
(0.994276 0.0176262 2.02146e-18)
(1.00027 0.047394 -6.5564e-18)
(1.00945 0.0786516 1.6161e-17)
(1.03147 0.0137755 3.24547e-19)
(0.971425 0.00454415 -2.07707e-16)
(1.54991 0.348279 6.29429e-17)
(1.10006 0.037307 -3.0767e-19)
(1.00295 0.0460896 3.0359e-19)
(1.00459 0.0025333 5.72713e-18)
(1.03487 0.00293161 -4.95656e-18)
(1.02894 0.00732628 7.11629e-18)
(0.988864 0.0261659 -1.89083e-17)
(1.02858 0.00959427 1.62973e-17)
(1.00254 0.00639111 2.10233e-17)
(1.00512 0.00254164 7.90729e-18)
(1.00019 4.90726e-05 -5.28885e-21)
(1.00495 0.00284373 1.26346e-17)
(1.15121 0.0544212 2.93434e-18)
(1.00684 0.0523309 -1.44381e-17)
(1.0005 0.000151839 -4.58129e-19)
(0.999999 0.000140297 5.31704e-17)
(1.03417 0.0118888 1.75439e-18)
(1.00543 0.000268833 1.57129e-18)
(0.990632 0.000188812 1.70016e-17)
(1.02216 0.000251392 1.16633e-20)
(0.999989 0.00010958 -2.66108e-18)
(0.99298 0.0786687 -3.45493e-18)
(0.999997 2.40815e-05 2.49844e-18)
(1.00001 2.39658e-05 -6.21722e-17)
(0.99903 3.33201e-05 9.29311e-19)
(1.02998 0.000800555 -3.3162e-18)
(1.0037 0.00205547 -8.22164e-19)
(1.52154 0.425512 -6.02143e-17)
(1.00034 2.34213e-05 1.41499e-20)
(1.00037 3.66117e-05 3.87889e-19)
(1.01954 0.00169989 4.28386e-21)
(1.00356 0.000800871 1.93042e-18)
(0.950847 0.0579531 -7.38788e-17)
(0.999464 0.00947998 -7.70763e-17)
(0.998624 0.000127983 -5.15285e-17)
(1.00002 0.000127927 -5.66511e-18)
(1.14508 0.0516367 2.06993e-18)
(1.0061 0.0710165 -1.36324e-17)
(0.999949 0.00017401 3.33934e-19)
(1.0036 0.00529471 -5.50153e-18)
(0.999801 0.00810671 3.26697e-17)
(1.00399 0.000399275 1.26392e-19)
(1.00283 0.000327852 -4.6162e-20)
(1.00239 0.000182457 -1.50191e-21)
(1.00357 0.000634429 8.84162e-18)
(0.995059 0.000813716 1.49986e-16)
(0.8464 0.0724883 -1.51301e-17)
(1.00357 0.000825596 6.73428e-23)
(0.997279 0.000457883 7.94308e-17)
(0.9844 0.00118622 8.03268e-16)
(1.02389 0.0222941 -3.25361e-17)
(1.09527 0.0334359 9.6864e-21)
(1.00364 -0.000481918 -5.75668e-18)
(0.989371 0.024175 -1.81393e-17)
(0.614912 0.0975679 -2.1256e-16)
(0.999985 0.000191055 2.98025e-18)
(1.02436 0.00944131 1.08214e-19)
(1.00046 0.000188509 2.23416e-18)
(1.01373 0.0113334 2.44694e-19)
(1.00038 8.57558e-05 7.19174e-21)
(1.00692 -0.00089311 1.08908e-17)
(0.824845 0.0437325 -2.55929e-16)
(1.02484 0.0122812 -5.10629e-19)
(0.84031 0.0934987 -2.1767e-16)
(0.991705 0.000281736 4.28943e-17)
(1.00099 0.00733629 -7.88046e-18)
(1.02578 -1.73822e-05 2.15383e-19)
(1.02569 -0.000294578 -1.57754e-19)
(1.00098 0.00707237 3.09172e-18)
(1.02672 0.00431432 8.06602e-20)
(1.03025 0.000914726 4.72939e-19)
(1.00076 0.000107696 5.75533e-19)
(0.999299 0.000473697 4.35957e-17)
(0.999373 0.00046467 1.33304e-17)
(0.999257 0.000447584 1.61518e-17)
(0.999329 0.000466485 -1.4133e-17)
(0.690631 0.296348 -1.03166e-17)
(1.00005 0.000186067 -7.27698e-19)
(0.945982 0.0738655 3.35188e-17)
(1.03593 0.000849927 -3.81733e-19)
(0.993793 0.0243262 -2.56568e-17)
(1.02884 0.00974364 -1.20854e-18)
(1.0252 0.0127357 3.07818e-19)
(1.0193 0.00147294 2.42939e-20)
(1.01284 0.0112058 2.77809e-19)
(1.02586 0.0101418 3.59788e-19)
(1.01309 0.0119786 4.71348e-19)
(0.992477 0.0247327 -5.64904e-18)
(1.02587 0.0241151 5.59718e-18)
(1.02485 0.0288345 7.55056e-19)
(0.956401 0.0483685 2.05795e-16)
(0.981577 0.00191889 1.09456e-16)
(1.0342 0.0698992 6.3857e-21)
(0.983428 0.00188872 2.9462e-16)
(0.983353 0.000816209 7.94827e-16)
(1.02717 0.0107829 6.9248e-19)
(0.94988 0.0994316 1.29814e-18)
(1.00333 0.00259808 -1.29372e-18)
(0.999327 0.000198163 4.87249e-19)
(1.01471 0.0100456 -1.26392e-20)
(0.999256 -3.61577e-05 3.85369e-18)
(1.00311 0.00347049 -2.64869e-19)
(1.16862 0.0128125 -5.4214e-17)
(0.34467 0.244564 5.58805e-17)
(1.0027 0.00277415 -1.53514e-19)
(0.999975 8.14034e-05 1.80471e-18)
(1.00031 3.77128e-05 -2.59919e-22)
(0.99997 0.000261415 -4.77279e-18)
(1.02618 0.0109682 -2.26333e-18)
(0.999996 4.41664e-05 -4.30926e-20)
(1 2.22398e-05 -3.76812e-19)
(1.1111 0.0487541 -1.68463e-19)
(1.03013 0.00863028 -4.07915e-18)
(1.08419 0.149463 4.02773e-19)
(1.00146 0.00312864 3.83282e-20)
(1.03218 0.00937841 -6.9213e-18)
(1.00747 0.000648577 -1.52886e-18)
(1.00014 0.00866303 -4.95915e-18)
(1.03026 0.0206214 -3.4008e-17)
(1.01522 0.00941032 4.55398e-20)
(0.932986 0.00934342 -9.844e-19)
(1.01459 0.00860926 2.17095e-19)
(1.00218 0.00230274 -3.7323e-18)
(1.00057 0.000133809 3.55802e-19)
(1.02957 0.0070668 -7.02879e-18)
(1.03363 0.00740478 -9.75077e-18)
(1.0055 0.000932768 -2.26815e-17)
(0.750954 0.0202745 7.49601e-17)
(1.03027 0.0244834 -8.80549e-18)
(1.0318 -0.00186812 -1.81209e-20)
(0.999544 0.0310306 4.08487e-17)
(1.00216 0.0383804 8.49867e-17)
(0.999948 0.000235476 -5.39593e-17)
(0.321916 0.472323 -1.01373e-16)
(1.03489 0.074381 -1.13267e-22)
(1.00065 0.00325841 -1.38066e-19)
(0.993797 0.17665 -1.14355e-17)
(0.985736 0.000835257 -6.23549e-16)
(0.999956 0.000238842 2.1325e-17)
(1.00002 0.000243927 -5.89278e-19)
(1.00001 0.000235668 -1.12797e-17)
(1.10308 0.158792 2.47558e-19)
(0.942577 0.0968362 -9.29466e-20)
(0.991349 0.0248979 4.46765e-17)
(1.02502 0.00843889 -3.53644e-18)
(1.03317 -0.000193407 -5.66266e-19)
(0.998333 0.0104808 8.16866e-18)
(0.93426 0.00837396 1.90282e-17)
(1.00115 0.0348778 -5.21486e-18)
(1.05239 0.00274119 -1.9105e-18)
(1.09582 0.0355896 -6.92445e-20)
(0.703277 0.0491105 8.0128e-18)
(0.995598 0.0220745 -1.21317e-17)
(0.960885 0.0470129 4.00408e-17)
(1.01681 -0.0018996 6.28607e-20)
(1.02649 0.0346846 -5.20219e-18)
(1.00944 0.0090177 1.86023e-18)
(1.01556 0.0106501 2.74561e-20)
(0.997708 0.000382418 5.95861e-17)
(1.01245 0.0111946 -4.02402e-19)
(1.02779 0.00979742 2.87084e-18)
(1 0.000134133 1.66444e-19)
(1.09958 0.00171233 3.43124e-17)
(0.991094 0.00118856 -5.46295e-18)
(1.07149 0.00495291 1.11636e-17)
(1.03497 0.00654729 -5.73853e-19)
(0.99428 0.000740602 4.55697e-16)
(0.956022 0.0520317 -2.31748e-16)
(1.18028 0.212751 1.09273e-19)
(1.02837 0.0139862 -8.6041e-19)
(1.00814 0.0142895 7.18153e-18)
(1.02866 0.00237722 2.11009e-20)
(1.03123 0.00773468 3.52427e-18)
(1.02845 0.0288522 -2.29494e-18)
(1.00394 0.00244141 -1.5334e-17)
(1 -1.80489e-05 -2.343e-17)
(0.996018 0.0646526 -9.7931e-18)
(1.00036 4.52567e-05 5.21673e-21)
(1.05243 0.00991017 -2.75386e-21)
(1.00241 0.000382067 1.4141e-18)
(0.967066 0.00437166 -7.19638e-18)
(0.963533 0.0397329 -3.18578e-17)
(1.0107 -0.000935356 -1.21532e-17)
(1.10295 0.0873251 -1.72252e-17)
(0.945618 0.0600613 -5.94083e-17)
(0.995053 0.0155127 2.19975e-18)
(1.00035 0.00371363 1.62484e-18)
(0.549929 0.0717653 -4.85229e-17)
(1.00068 6.22796e-05 -2.52532e-18)
(1.00112 0.00297654 5.27692e-18)
(1.04248 0.0359184 -7.90521e-20)
(0.999963 0.000157897 -2.74211e-18)
(1.00157 0.00384569 4.9191e-19)
(1.0015 0.00267229 2.24667e-17)
(0.783723 0.208561 -1.07696e-16)
(0.568807 0.608104 7.10755e-16)
(0.998583 0.0114584 -6.56485e-19)
(1.00147 0.000149675 3.93787e-21)
(0.940646 0.0323081 1.19969e-16)
(0.999147 0.0400528 -3.17872e-17)
(1.02515 0.009424 5.94504e-19)
(1.02939 0.0137275 3.53217e-19)
(1.02822 0.00864124 2.05293e-17)
(1.00094 -1.47992e-05 -2.3696e-17)
(1.00002 0.000134156 -2.23915e-18)
(1.00202 0.0339987 4.53342e-17)
(0.999981 0.000178646 -2.21189e-19)
(0.966566 0.0368335 -3.33376e-18)
(1.0248 0.00993743 -2.85117e-19)
(1.02472 0.0328718 -1.10008e-18)
(0.996746 0.00055179 -1.14325e-17)
(1.0007 0.0641458 -8.35966e-17)
(1.04506 0.0326083 3.38298e-19)
(0.997635 8.36254e-05 -2.41135e-16)
(1.00154 0.0105558 1.56062e-18)
(1.00457 0.000812054 9.16977e-18)
(0.928945 0.0432871 3.79787e-16)
(1.0429 0.0337588 2.37823e-19)
(0.999968 0.000250035 4.18213e-17)
(1.0046 0.0354453 2.78686e-17)
(1.02931 0.00616614 1.50227e-17)
(1.01467 -0.000413018 -2.05345e-19)
(0.99735 0.0375891 -1.13407e-16)
(1.00296 0.000332487 2.58054e-19)
(0.927387 0.0891114 3.01347e-17)
(1.02261 0.00267326 9.1227e-19)
(1.03425 0.00152528 -2.35324e-18)
(1.02576 0.0282897 3.17301e-19)
(1.0008 -0.000152993 -9.64969e-18)
(1.00176 0.0109905 9.37718e-19)
(1.05436 0.0551386 1.02671e-17)
(1.05762 0.0159127 -4.65911e-18)
(1.00004 0.000104361 -1.60746e-20)
(1.01067 0.0139497 -1.06325e-18)
(1.00311 0.161319 -5.65782e-17)
(1.03127 -0.000664956 4.60178e-21)
(0.569839 0.527551 6.47441e-17)
(0.999999 0.000275741 -4.89485e-19)
(1.00239 0.000494251 6.19165e-18)
(1.00072 9.84598e-05 7.99473e-18)
(1.029 0.010801 1.46795e-18)
(0.996215 0.0156566 -1.78676e-17)
(0.996151 0.0121497 -1.53858e-19)
(1.00286 0.000628717 6.4953e-19)
(0.994606 0.038203 -5.2686e-17)
(1.01642 0.011132 2.55778e-19)
(0.973784 0.00372323 -1.71883e-17)
(1.00804 0.000484427 -1.46603e-18)
(1.0814 0.0783843 -3.27023e-17)
(1.00047 6.81661e-05 3.27052e-17)
(1.08857 0.0847205 -4.38332e-17)
(1.00146 0.000119481 -4.72418e-19)
(0.619311 0.851628 -3.43563e-17)
(1.02733 0.00113649 -2.1225e-18)
(1.05276 0.0563155 -1.03381e-17)
(0.999543 5.78211e-05 -2.06224e-16)
(0.997079 0.000747386 7.29141e-19)
(1.02449 0.0240636 3.02726e-17)
(1.00342 0.00217171 -3.69641e-18)
(0.998779 0.000114313 -9.75351e-17)
(0.99292 0.000597491 4.72687e-17)
(0.995658 0.0193817 -3.27966e-17)
(0.993776 0.0211757 1.60643e-17)
(0.975081 0.146555 -1.20839e-18)
(1.03205 0.0227923 1.79232e-17)
(1.03441 0.0285865 -1.20575e-17)
(1.00001 4.24114e-05 5.56009e-19)
(1.00372 0.00205703 6.15211e-19)
(1.02496 0.0110227 -3.08027e-19)
(1.06262 0.00486355 -1.22903e-17)
(1.00002 3.25865e-05 -2.43758e-18)
(1.00054 0.000114758 -3.1956e-18)
(1.02955 0.0064456 -8.06404e-18)
(1.00071 0.00015361 -3.45038e-19)
(0.834958 0.0461972 2.55278e-17)
(1.1896 0.214512 1.34565e-18)
(1.11438 0.00431189 -9.35207e-18)
(1.00001 4.70736e-05 -1.98416e-17)
(1.00518 0.00822457 7.36798e-19)
(1.03979 0.00132491 1.16884e-18)
(0.995732 0.0131614 1.73639e-18)
(1.00384 0.000413481 3.39103e-18)
(0.12089 0.45417 2.11372e-15)
(1.00042 0.00010429 -2.5298e-18)
(0.934724 0.0699972 -1.65602e-16)
(0.963492 0.0416846 7.73139e-17)
(1.0073 0.0087251 -4.51285e-18)
(1.00364 0.000893997 1.29464e-18)
(0.998547 0.000217203 1.13463e-17)
(1.01112 -0.000235904 -2.02025e-17)
(1.03464 0.00120884 -4.76262e-21)
(1.01578 0.00745153 6.27996e-18)
(0.997306 0.0105744 3.27136e-18)
(0.999998 1.22824e-05 6.63464e-20)
(0.999892 3.93935e-05 -1.26626e-18)
(0.995269 0.016402 -5.59402e-18)
(0.996422 0.000918979 -3.13881e-18)
(0.995791 0.0536908 1.11513e-16)
(1.02959 0.0101253 -1.68296e-17)
(0.998944 0.00011244 2.03996e-19)
(1.00047 0.000140924 -2.91243e-20)
(1.02639 0.0263142 -1.45774e-18)
(1.09297 0.00489183 8.23171e-17)
(0.99816 0.00013814 1.0438e-16)
(1.04543 0.00266599 -4.78775e-19)
(1.00029 6.72645e-05 -1.64672e-22)
(0.996415 0.0109953 -5.83583e-19)
(0.949263 0.0680054 -1.27139e-18)
(1.03234 -0.000206561 -4.34159e-19)
(1.03524 0.00513047 -1.97234e-18)
(0.950905 0.055216 -1.92107e-16)
(1.00249 0.0179197 6.86789e-19)
(1.03375 0.00350867 5.94902e-19)
(0.999992 0.00024855 -3.99938e-18)
(0.999808 1.95423e-05 5.77073e-16)
(1.02781 0.00222758 2.15312e-18)
(1.01001 0.0074467 -5.411e-19)
(1.00362 0.0174562 -3.14574e-18)
(1.01071 0.0105587 -1.72703e-18)
(0.999989 0.000123603 6.1318e-17)
(1.00049 0.000147439 -8.53969e-20)
(1.00285 0.000433482 -2.88181e-17)
(1.00263 0.028512 1.18393e-17)
(1.03451 -6.77494e-05 1.62456e-18)
(0.945146 0.0400894 -1.00392e-17)
(0.990082 0.000813831 -6.85192e-18)
(0.932607 0.0336457 -2.96984e-16)
(1.02934 0.0106457 -2.67392e-18)
(1.00866 0.0153843 8.44398e-18)
(0.937208 0.0463535 -7.14723e-17)
(0.990718 0.0225011 8.81346e-17)
(1.07053 0.00131939 3.5302e-18)
(1.02938 0.00997264 -3.51078e-17)
(0.983436 0.0196786 -1.84477e-17)
(0.99848 0.0567717 -2.90078e-17)
(0.999707 0.000142229 1.28121e-18)
(1.0167 0.0672227 -2.72117e-18)
(1.02561 0.0230124 2.10732e-17)
(1.00002 2.08244e-05 5.38322e-19)
(0.999999 5.77134e-05 1.29242e-16)
(1.00073 6.61686e-05 -1.03785e-17)
(0.999515 0.000361987 -1.13464e-16)
(1.06326 0.0616663 1.42763e-19)
(1.01074 0.0152011 7.17999e-19)
(1.01108 0.00273511 -9.4665e-19)
(0.949554 0.0338293 -1.19023e-18)
(0.99205 0.00016747 -3.24087e-17)
(0.801145 0.0228095 1.57229e-15)
(1.02991 0.00370385 -2.03112e-20)
(1.03338 9.19611e-05 -8.43361e-19)
(1.00382 0.00018271 1.63283e-17)
(1.04934 0.0326079 -1.41182e-18)
(1.00004 0.000203268 -1.17884e-16)
(0.994579 0.0315357 -5.80817e-18)
(1.00033 0.00330114 2.10785e-17)
(0.937447 0.104578 -1.49579e-18)
(0.936259 0.038605 -3.23214e-18)
(1.00219 0.0149151 -1.52847e-18)
(1.01561 0.0106812 -7.87159e-20)
(0.595166 0.64012 2.31251e-16)
(1.02829 0.00993073 6.01213e-18)
(1.03458 0.0528984 -4.55401e-19)
(1.00944 0.0113166 1.00897e-18)
(0.977742 0.143292 5.75649e-18)
(1.1609 0.176658 -7.32163e-18)
(1.00113 3.61091e-05 1.36202e-19)
(0.998365 0.00313172 1.09246e-17)
(0.999998 -2.44522e-05 5.61831e-18)
(1.05642 0.0582567 -1.48861e-18)
(0.998526 0.00299532 -2.58065e-18)
(1.01508 0.00848579 -1.96541e-18)
(1.09624 0.0934468 2.4256e-17)
(1.00035 0.000101039 1.69729e-18)
(0.971993 0.00340042 -7.13943e-17)
(0.993625 0.0454612 1.9877e-17)
(1.00649 0.0139362 -1.99098e-17)
(0.997343 0.000292833 6.74428e-17)
(1.00232 0.0154651 4.17701e-19)
(0.999121 0.000707777 -1.87577e-17)
(0.995073 0.0148527 -5.17727e-20)
(0.999094 0.000620756 8.76211e-18)
(0.999155 0.000803788 6.50519e-17)
(0.995825 0.012547 -3.65977e-19)
(1.03158 0.00315262 -6.79415e-18)
(1.02998 0.00755172 -1.51261e-17)
(1.00709 0.0147844 9.22051e-17)
(0.639444 0.032216 -2.85028e-17)
(1.02932 0.00186251 3.36743e-18)
(0.39535 0.35072 -2.54297e-16)
(1.02508 0.00986118 1.98386e-18)
(1.01929 -0.00270077 -1.07977e-19)
(0.995325 0.0136427 6.48425e-19)
(1.02538 0.010918 -1.2347e-19)
(0.991527 0.0246728 -5.95781e-18)
(1.03026 -0.00103965 1.50935e-22)
(0.566946 0.426464 -1.50948e-16)
(0.952796 0.032534 -8.26968e-17)
(0.99435 0.022831 -3.79691e-17)
(1.00433 0.0210932 1.26332e-18)
(0.994861 0.00106533 5.17902e-17)
(0.996135 0.00140592 -9.31414e-18)
(1.02447 0.0255665 -9.69395e-18)
(0.999968 0.000110203 -7.39916e-17)
(1.07672 0.00411456 -2.92275e-19)
(0.999228 2.14628e-05 2.15567e-18)
(0.951283 0.0360165 -4.0477e-17)
(1.00665 0.0643717 4.67838e-18)
(1.06365 0.0495615 1.22166e-18)
(1.03779 0.0192758 1.97857e-17)
(1.03426 0.0134841 1.09325e-18)
(0.996602 0.0493779 8.97898e-17)
(1.00929 0.0120933 1.96515e-18)
(1.03752 0.0207099 1.61316e-18)
(0.972713 0.0292093 -7.51822e-18)
(1.046 0.0590049 1.78768e-18)
(1.00824 0.0200027 2.02226e-17)
(1.0446 0.034646 -2.04395e-19)
(1.006 0.021294 -4.47035e-18)
(1 0.000136557 -3.71097e-19)
(1.00064 0.0229732 -2.65587e-19)
(1.13017 0.0293457 1.05889e-16)
(0.974742 0.131859 1.49707e-18)
(1.00545 0.00405865 3.07457e-18)
(1.00014 4.37773e-05 3.67187e-19)
(0.998931 9.83363e-05 1.83115e-18)
(0.994908 0.00689773 9.44611e-19)
(0.969153 0.00333473 -1.21732e-16)
(1.02994 0.00403389 6.95713e-18)
(1.02403 -0.00142043 -1.53924e-17)
(1.00079 -0.000182405 -1.39029e-17)
(1.00379 0.00586698 -7.19519e-18)
(0.993597 0.0260832 -1.37494e-17)
(1.00587 0.00555883 1.56224e-17)
(1.00808 0.000377063 -1.98371e-18)
(1.04517 0.0295897 2.06949e-17)
(0.993949 0.0020082 -2.73616e-16)
(0.990673 0.0351636 1.1072e-16)
(1.03352 0.0113193 3.22655e-18)
(1.00535 0.00625855 6.92829e-18)
(1.00868 0.00648295 -6.67099e-18)
(0.947399 0.0532782 1.96721e-16)
(1.00001 9.33458e-06 -2.08748e-19)
(0.993702 0.00527629 1.88582e-18)
(1.33067 0.0692218 -4.20313e-17)
(0.999647 6.73534e-05 -6.04109e-16)
(1.04011 0.0334801 -1.51679e-19)
(0.989397 0.0735011 -3.36588e-18)
(1.00586 0.00611012 -1.49818e-17)
(0.960563 0.0434217 -1.30469e-16)
(1.03396 0.0128136 -1.8095e-18)
(0.994191 0.0272882 9.48582e-18)
(1.02563 0.0279082 8.85933e-20)
(0.999607 0.00299508 -4.63781e-19)
(0.939581 0.036848 -1.57086e-16)
(1.00494 0.000539072 6.57263e-20)
(1.03111 0.00389908 2.95677e-18)
(1.0299 0.0087358 3.08123e-19)
(0.93807 0.0418959 -3.56356e-17)
(0.999806 0.00286831 -3.04836e-18)
(1.03584 -0.00183401 -2.27895e-19)
(1.05516 0.0147834 2.93508e-19)
(0.994605 0.031612 -1.95104e-17)
(1.00561 0.0123536 -2.6279e-17)
(1.00415 0.00249115 -4.31287e-18)
(1.01668 0.0680114 -6.92224e-19)
(0.762555 0.2306 -3.21754e-17)
(0.996054 0.000884422 4.5431e-17)
(0.999931 0.00020221 1.99341e-17)
(0.995961 0.0242341 3.17527e-18)
(0.999976 0.000218699 -6.88639e-19)
(1.16688 0.171131 -2.99391e-18)
(1.00662 0.0200532 3.45047e-17)
(1.03741 0.0833915 5.1478e-21)
(1.01467 0.00603433 2.57247e-17)
(1.02303 0.00269027 7.01752e-18)
(0.244616 0.0169656 -3.77533e-15)
(1.00637 0.013902 -2.32474e-18)
(1.10224 0.177565 -2.62587e-19)
(1.02971 0.00545432 9.11164e-18)
(1.10969 0.00152741 5.0188e-18)
(1.02552 0.00993763 5.1638e-19)
(0.996978 0.0111278 -2.01531e-18)
(1.0061 0.0131439 -1.14648e-17)
(1.01458 -0.000103307 -1.32438e-19)
(1.09306 0.0822741 3.77033e-17)
(1.08276 0.072735 -3.80648e-18)
(1.00145 7.35414e-05 3.56893e-20)
(1.0014 -5.82405e-05 2.11876e-20)
(0.931964 0.0472894 1.24564e-16)
(1.00178 -0.000167541 -2.77792e-18)
(0.791395 0.338888 -1.96451e-17)
(1.02695 0.0263392 2.44678e-19)
(0.969128 0.159562 -7.59138e-19)
(1.00395 0.00266141 1.51109e-17)
(0.319067 0.457455 -2.54037e-15)
(1.13504 0.201187 -4.97463e-18)
(1.00578 0.0212017 -8.30732e-18)
(1.00001 0.000110123 6.42264e-19)
(0.999889 0.00260428 1.32205e-19)
(0.957683 0.0290222 -8.33438e-17)
(0.99473 0.00753435 -1.00818e-18)
(0.990223 0.000959153 -1.27152e-18)
(0.997365 0.00877148 7.34062e-20)
(1.02822 0.00954797 7.06104e-18)
(0.974527 0.0270806 6.53171e-18)
(1.08099 -0.00171554 1.71248e-17)
(0.645003 0.0598517 3.0742e-17)
(1.0006 -2.59639e-05 1.15268e-17)
(0.967394 0.0354737 -8.37638e-17)
(1.03464 0.0258048 1.14151e-17)
(0.944059 0.0491789 -2.17733e-17)
(1.00444 0.0119359 -5.73821e-17)
(0.931051 0.0736163 3.85748e-17)
(1.03055 0.00725154 -3.47277e-19)
(0.955254 0.0333761 -1.6468e-16)
(0.997209 0.000316569 -1.97196e-17)
(1.00012 1.37244e-05 -3.31124e-19)
(1.03626 0.0195028 -1.46258e-17)
(1.03906 0.0187492 -3.36748e-19)
(1.02706 0.00118732 -6.76462e-18)
(0.93103 0.0386463 -2.76165e-16)
(1.03622 0.0784161 1.01315e-20)
(1.01584 0.000492475 -1.71114e-19)
(0.997412 0.0218732 3.85384e-18)
(1.00048 0.00336322 1.4804e-17)
(1.00955 0.00946036 4.6473e-18)
(0.772977 0.0254023 1.79125e-15)
(1.00899 0.00647436 -1.88603e-17)
(1.03391 0.0175334 -1.69988e-19)
(0.984689 0.0375786 4.37302e-19)
(1.02419 0.00736056 -1.69381e-18)
(1.01035 -0.000506629 6.81588e-18)
(0.996804 0.010293 3.67333e-19)
(1.0511 0.0134827 6.63828e-20)
(1.01394 0.00584741 -1.62402e-17)
(1.00532 0.0116932 2.42375e-17)
(1.07191 0.0052622 -9.19608e-19)
(0.989924 0.0275677 -4.27487e-18)
(1.01839 0.0013701 9.85767e-20)
(0.751337 0.408137 3.21106e-17)
(0.999999 1.43247e-05 1.04377e-19)
(1.01447 0.00664673 -1.4981e-17)
(1.00107 0.0196316 6.71162e-17)
(0.992982 0.00644657 8.61418e-20)
(1.00247 0.000149413 4.26682e-18)
(0.999693 0.0249333 -2.09826e-17)
(1.00001 2.64596e-05 5.14967e-19)
(1.04759 0.0999352 1.65021e-17)
(1.00532 0.000893315 -6.1426e-18)
(0.97389 0.00441669 -6.2798e-18)
(1.03468 0.0301442 5.41956e-18)
(0.957488 0.0419467 1.95685e-17)
(1.01523 0.00848888 -1.1825e-18)
(1.01491 0.00700202 2.31399e-17)
(1.03505 0.0188369 5.12228e-18)
(1.20022 0.0239068 1.08253e-17)
(0.999664 0.000125776 6.09704e-19)
(0.992884 0.00162713 5.36745e-16)
(1.01964 0.00190492 2.93088e-19)
(1.11327 0.186674 8.0377e-19)
(1.03879 0.0200432 1.47228e-17)
(0.999811 0.00282031 7.44088e-19)
(0.246057 0.156783 -5.98157e-15)
(1.00011 4.45672e-05 -1.81054e-17)
(1.00392 0.00202796 -9.69386e-18)
(1.1525 0.0086504 -1.52934e-16)
(0.994857 0.00490148 -8.19649e-20)
(0.999611 0.00302195 -6.55535e-19)
(0.999575 0.00325291 1.12684e-18)
(0.98437 0.0377936 4.89205e-18)
(0.962267 0.0263649 2.12572e-16)
(0.999696 4.33833e-05 -8.26921e-17)
(0.993932 0.00615433 -6.3431e-20)
(0.939456 0.0688245 -3.95689e-18)
(0.995251 0.0223267 -9.40581e-17)
(0.996898 0.0159591 -3.85182e-17)
(0.997044 0.00854804 -1.62106e-18)
(1.0011 9.67084e-05 -1.07063e-18)
(0.959959 0.0300877 1.1464e-16)
(1.06433 0.0506253 4.11235e-19)
(0.995526 0.0142951 -1.89667e-18)
(0.934086 0.0327276 2.57367e-16)
(1.02929 0.00452901 2.27782e-18)
(1.02794 0.00484276 3.44592e-20)
(1.04127 0.0932425 -4.18787e-18)
(1.02995 0.0307146 -8.4545e-18)
(0.996771 0.00909719 8.33088e-20)
(1.00504 0.00173909 -5.04055e-18)
(1.08677 0.0923051 5.28589e-17)
(1.03258 0.00344325 -1.30803e-18)
(0.977366 0.0240642 3.7912e-18)
(1.00075 0.00371196 -4.38041e-18)
(0.999467 0.000333045 -1.16478e-16)
(0.932207 0.0108825 -8.66758e-16)
(1.04922 0.0350687 5.85587e-19)
(1.01323 0.00567645 -1.22766e-17)
(1.013 0.0446304 5.49446e-18)
(1.01387 0.00635048 2.47954e-17)
(0.997087 0.00929047 -1.84597e-19)
(1.00504 0.00350879 1.14284e-19)
(0.967757 0.0309516 1.70902e-18)
(1.17483 -0.0157617 -7.583e-17)
(0.493862 0.503206 8.8343e-16)
(0.969604 0.0335027 4.9543e-17)
(0.999758 0.0161289 3.65095e-18)
(1.00483 0.00485316 1.56644e-18)
(0.971906 0.0301352 8.97507e-18)
(0.45484 0.276687 3.92534e-16)
(0.940328 0.0292805 -2.94396e-16)
(0.999876 0.0026655 -3.42093e-19)
(1.04728 0.0259919 2.77665e-18)
(1.06084 0.0608866 4.81422e-20)