/*--------------------------------*- C++ -*----------------------------------*\
  =========                 |
  \\      /  F ield         | OpenFOAM: The Open Source CFD Toolbox
   \\    /   O peration     | Website:  https://openfoam.org
    \\  /    A nd           | Version:  7
     \\/     M anipulation  |
\*---------------------------------------------------------------------------*/
FoamFile
{
    version     2.0;
    format      ascii;
    class       volScalarField;
    location    "13.5";
    object      rho;
}
// * * * * * * * * * * * * * * * * * * * * * * * * * * * * * * * * * * * * * //

dimensions      [1 -3 0 0 0 0 0];

internalField   nonuniform List<scalar> 
2413
(
1.5146
1.51397
1.51329
1.512
1.51076
1.51034
1.50993
1.5087
1.50704
1.50592
1.5044
1.50213
1.50051
1.49875
1.49691
1.49586
1.49448
1.49286
1.4913
1.48956
1.48775
1.48583
1.48293
1.48116
1.47884
1.47369
1.4716
1.46838
1.46129
1.45596
1.45184
1.45063
1.45359
1.46529
1.49014
1.52845
1.55763
1.5754
1.58448
1.58827
1.58775
1.58452
1.58197
1.58076
1.58014
1.58031
1.57948
1.57842
1.57864
1.57971
1.58034
1.58109
1.58209
1.58265
1.58322
1.58424
1.58579
1.5925
1.61619
1.67485
1.78559
1.88073
1.94108
1.97209
1.97875
1.98169
1.98134
1.97868
1.97607
1.97493
1.97273
1.96898
1.96627
1.9639
1.96087
1.95798
1.9551
1.95173
1.94828
1.94453
1.94089
1.93727
1.93316
1.92897
1.92535
1.9218
1.91795
1.9147
1.91148
1.90781
1.90403
1.90044
1.89642
1.89272
1.886
1.49339
1.4978
1.50069
1.50169
1.50527
1.50911
1.50984
1.5117
1.516
1.51725
1.51735
1.52008
1.52229
1.52183
1.52247
1.5251
1.52516
1.52487
1.52684
1.52714
1.52651
1.52767
1.52764
1.52674
1.52742
1.52691
1.52537
1.52567
1.52534
1.52285
1.52188
1.52184
1.52042
1.5176
1.51677
1.51595
1.51438
1.51229
1.51126
1.51109
1.51035
1.50912
1.50869
1.5086
1.50767
1.50603
1.50498
1.50333
1.50126
1.49967
1.4977
1.49578
1.49489
1.49376
1.49223
1.49064
1.48903
1.48715
1.48439
1.48255
1.4812
1.47692
1.47369
1.47248
1.46745
1.46321
1.46124
1.46202
1.4665
1.48251
1.50744
1.54078
1.57312
1.58583
1.59228
1.59223
1.59104
1.58991
1.58741
1.58524
1.58399
1.58339
1.58316
1.58274
1.58175
1.58138
1.58151
1.58153
1.58198
1.5827
1.58291
1.58317
1.58346
1.58386
1.58502
1.58953
1.60635
1.66071
1.75765
1.85938
1.94301
1.98033
1.98641
1.98752
1.98659
1.98531
1.98378
1.97973
1.97577
1.97264
1.96909
1.96572
1.96294
1.95935
1.95565
1.95192
1.94792
1.9443
1.9404
1.93598
1.93194
1.92837
1.92446
1.92087
1.91778
1.91417
1.91022
1.90639
1.9025
1.89781
1.89369
1.8864
1.4953
1.49836
1.50038
1.50155
1.50521
1.50805
1.50858
1.51091
1.51461
1.51535
1.51604
1.51907
1.52056
1.51991
1.52092
1.52301
1.52261
1.52282
1.52479
1.52476
1.52448
1.52576
1.52554
1.5248
1.52546
1.52475
1.52318
1.52343
1.52303
1.52057
1.51933
1.51893
1.51764
1.51528
1.51378
1.5133
1.5122
1.51054
1.50943
1.50933
1.50906
1.5081
1.50782
1.50781
1.50686
1.50538
1.50424
1.50244
1.50056
1.49891
1.49681
1.49497
1.49431
1.49323
1.4916
1.49034
1.48885
1.48642
1.48394
1.48278
1.48006
1.47615
1.4749
1.47154
1.46809
1.46928
1.47198
1.47825
1.49672
1.52699
1.55433
1.58138
1.59418
1.59706
1.59796
1.59704
1.59512
1.59334
1.5915
1.58997
1.58823
1.58656
1.58588
1.58529
1.58431
1.58349
1.5826
1.58201
1.58212
1.58264
1.58303
1.58297
1.58302
1.58332
1.58336
1.58416
1.58701
1.60006
1.64448
1.72523
1.84574
1.93863
1.98012
1.99359
1.99397
1.99275
1.98997
1.98603
1.98296
1.97959
1.97508
1.97158
1.96775
1.96334
1.95936
1.95518
1.95132
1.94774
1.94347
1.93895
1.93506
1.93097
1.92655
1.92316
1.91978
1.91577
1.91177
1.90801
1.9039
1.89901
1.89464
1.88686
1.49904
1.5008
1.50148
1.50174
1.50498
1.50699
1.50726
1.51006
1.51327
1.51369
1.51505
1.51821
1.51919
1.51855
1.52004
1.52149
1.52084
1.52151
1.52319
1.52279
1.52285
1.52409
1.52373
1.52309
1.52368
1.52281
1.52118
1.52135
1.5208
1.51849
1.51654
1.51605
1.51491
1.5131
1.51125
1.51036
1.51002
1.50914
1.50832
1.50814
1.50789
1.50754
1.50769
1.50727
1.50605
1.50499
1.50339
1.50143
1.49995
1.49831
1.49601
1.49445
1.49388
1.49264
1.49136
1.49035
1.4885
1.48587
1.48423
1.48204
1.47839
1.47715
1.47477
1.47215
1.47343
1.47989
1.4906
1.50958
1.54256
1.56965
1.58905
1.59988
1.60344
1.60374
1.60251
1.60001
1.59785
1.59548
1.59327
1.59181
1.59058
1.58928
1.58787
1.58638
1.5855
1.58467
1.5833
1.58246
1.58237
1.58263
1.58286
1.58256
1.58252
1.58284
1.5829
1.58286
1.58354
1.58553
1.59517
1.62729
1.70175
1.82874
1.92652
1.9801
1.9963
1.99795
1.99676
1.9947
1.99105
1.98508
1.98085
1.97735
1.97234
1.96772
1.96345
1.95862
1.95478
1.95103
1.94641
1.94205
1.93815
1.93366
1.92902
1.92522
1.92112
1.91662
1.91256
1.90868
1.9044
1.89984
1.89552
1.88774
1.50328
1.50398
1.50377
1.50379
1.50657
1.50811
1.50826
1.51102
1.51336
1.51329
1.51468
1.51739
1.51788
1.51746
1.51934
1.52028
1.51969
1.52087
1.52217
1.52169
1.52216
1.5233
1.52262
1.52202
1.52274
1.52177
1.52024
1.52046
1.51966
1.51674
1.51417
1.51372
1.51279
1.51107
1.50933
1.5085
1.50819
1.50801
1.50774
1.5075
1.50733
1.50751
1.50756
1.50656
1.50543
1.50436
1.50235
1.50056
1.49931
1.49759
1.49518
1.49402
1.49333
1.49202
1.49107
1.48995
1.48773
1.48577
1.48364
1.48019
1.47849
1.47753
1.47582
1.47749
1.48497
1.5013
1.52317
1.55377
1.58373
1.59767
1.60647
1.60706
1.6062
1.60479
1.60289
1.60067
1.59861
1.59695
1.59553
1.59429
1.59297
1.59156
1.58975
1.58741
1.58627
1.58526
1.58358
1.58258
1.58226
1.58231
1.58226
1.58207
1.58222
1.58242
1.58245
1.58246
1.58217
1.58235
1.58355
1.59004
1.61325
1.68536
1.80275
1.9112
1.98066
2.00463
2.00475
2.00272
1.99832
1.99318
1.98909
1.98354
1.97775
1.97319
1.96792
1.96222
1.95826
1.95392
1.94892
1.9447
1.94075
1.93634
1.93187
1.9274
1.92254
1.91771
1.91345
1.90902
1.90433
1.90017
1.89599
1.88878
1.50624
1.50632
1.50572
1.5062
1.50843
1.50926
1.50962
1.51217
1.51364
1.5133
1.51486
1.5168
1.51677
1.51666
1.51851
1.51892
1.51859
1.5201
1.5211
1.52078
1.52143
1.52182
1.52066
1.52075
1.52119
1.51943
1.51762
1.51738
1.51585
1.5131
1.51196
1.51194
1.51084
1.50887
1.50814
1.50759
1.50712
1.5071
1.50722
1.50719
1.50725
1.50764
1.50715
1.50574
1.50458
1.5033
1.50124
1.49947
1.49824
1.49659
1.4944
1.49327
1.49241
1.49143
1.49046
1.48872
1.48688
1.48501
1.48204
1.4798
1.47898
1.47884
1.48153
1.49009
1.50961
1.53769
1.56446
1.59358
1.6062
1.60842
1.60972
1.60942
1.60737
1.6056
1.60446
1.60254
1.6006
1.59926
1.59782
1.596
1.59418
1.59249
1.59058
1.58818
1.58688
1.58582
1.58409
1.58287
1.58224
1.58192
1.58152
1.5814
1.58156
1.58169
1.58174
1.58174
1.58176
1.58088
1.58052
1.58127
1.58541
1.60471
1.66608
1.76886
1.90399
1.97798
2.00586
2.00928
2.00736
2.00322
1.99719
1.98954
1.98343
1.9783
1.97222
1.96706
1.96256
1.95711
1.95189
1.94748
1.94258
1.93796
1.93375
1.92903
1.92385
1.91917
1.91484
1.91005
1.90521
1.90107
1.89674
1.89028
1.51042
1.50942
1.50863
1.50915
1.51032
1.51036
1.51074
1.51293
1.51379
1.51392
1.51534
1.5162
1.51549
1.51557
1.51727
1.51753
1.51796
1.5197
1.52056
1.52023
1.52055
1.52069
1.52031
1.52062
1.51992
1.51731
1.51629
1.51507
1.51266
1.51094
1.51103
1.51049
1.5087
1.50749
1.50713
1.50698
1.50664
1.5066
1.50679
1.50693
1.50732
1.50732
1.50632
1.50463
1.50333
1.50195
1.50009
1.49805
1.4968
1.49547
1.49376
1.49222
1.49136
1.49071
1.48928
1.48722
1.48574
1.48365
1.48113
1.48017
1.48065
1.48501
1.49572
1.51601
1.54941
1.57782
1.59861
1.61194
1.61349
1.61244
1.61139
1.61038
1.6085
1.6062
1.60443
1.60295
1.60129
1.59984
1.59839
1.59672
1.59485
1.593
1.59104
1.58869
1.58721
1.58603
1.58418
1.58289
1.58227
1.58156
1.58096
1.58084
1.58089
1.58087
1.5808
1.58098
1.58081
1.57993
1.57879
1.57839
1.57869
1.58123
1.59663
1.6429
1.74823
1.88896
1.97068
2.00289
2.00919
2.00851
2.00367
1.99729
1.99121
1.98362
1.97668
1.97197
1.96628
1.96
1.95505
1.9504
1.94491
1.94002
1.93539
1.93013
1.92488
1.92047
1.91598
1.91108
1.90684
1.90285
1.89877
1.89369
1.51302
1.51173
1.51141
1.51177
1.51225
1.51211
1.51296
1.51426
1.51427
1.51426
1.51544
1.51595
1.51537
1.51585
1.51673
1.51647
1.51695
1.51864
1.51937
1.51892
1.51886
1.5197
1.5197
1.51913
1.51844
1.51759
1.51532
1.51215
1.51029
1.51031
1.50981
1.50842
1.50754
1.50688
1.50658
1.50664
1.50651
1.50638
1.50655
1.50686
1.5071
1.50647
1.50503
1.50327
1.50186
1.50044
1.49863
1.49641
1.49523
1.49421
1.49259
1.49107
1.49044
1.48958
1.48758
1.48584
1.48452
1.48251
1.48124
1.48236
1.48794
1.50161
1.52323
1.55688
1.58777
1.60619
1.61498
1.61608
1.61521
1.61344
1.61178
1.61026
1.60829
1.60622
1.60445
1.60311
1.60169
1.60017
1.59859
1.59689
1.59498
1.59296
1.59085
1.58845
1.58686
1.58567
1.58389
1.58265
1.58212
1.58111
1.5803
1.5801
1.57993
1.57957
1.57936
1.5793
1.57896
1.5785
1.57779
1.57678
1.57589
1.57597
1.57783
1.58846
1.62654
1.73258
1.86375
1.96134
2.00864
2.01365
2.01248
2.00753
1.9988
1.98931
1.98288
1.97658
1.96958
1.96373
1.95866
1.9524
1.94641
1.94187
1.93696
1.93149
1.92683
1.92284
1.91808
1.91281
1.90921
1.90529
1.90243
1.89952
1.51705
1.51537
1.51449
1.51404
1.51361
1.51324
1.5142
1.51499
1.5151
1.51546
1.51603
1.51555
1.51444
1.51541
1.51616
1.51642
1.51764
1.51893
1.51885
1.51832
1.51898
1.51912
1.51786
1.51716
1.51654
1.51459
1.51144
1.50941
1.50948
1.50892
1.50752
1.50702
1.50672
1.50637
1.50621
1.50634
1.50632
1.50625
1.50668
1.50674
1.50616
1.50511
1.5036
1.50173
1.50023
1.4988
1.49691
1.49471
1.49372
1.49277
1.49112
1.48987
1.48932
1.48806
1.48607
1.48481
1.4836
1.48268
1.48425
1.49049
1.50697
1.53166
1.56287
1.59628
1.61153
1.61752
1.61796
1.61638
1.61454
1.61341
1.61193
1.61007
1.60781
1.60586
1.60427
1.60297
1.6016
1.60003
1.59831
1.59649
1.59454
1.59241
1.59012
1.58766
1.58612
1.58499
1.5834
1.58224
1.58162
1.58048
1.57963
1.57928
1.57882
1.57837
1.57817
1.57792
1.57743
1.57683
1.57623
1.57552
1.57455
1.5734
1.57313
1.57404
1.58107
1.61682
1.70602
1.83601
1.96115
2.00864
2.01508
2.01479
2.00857
1.99897
1.98955
1.98022
1.97239
1.96679
1.96096
1.95414
1.9487
1.94393
1.93863
1.93338
1.9292
1.92498
1.92027
1.91641
1.91364
1.91088
1.90873
1.9094
1.52061
1.51896
1.51802
1.51729
1.51647
1.5164
1.51652
1.51604
1.51547
1.51552
1.51574
1.51507
1.51497
1.51589
1.51599
1.51669
1.51832
1.51906
1.51934
1.5202
1.5201
1.51792
1.51679
1.51668
1.51493
1.51143
1.50856
1.50831
1.50802
1.50666
1.50599
1.50581
1.50591
1.50595
1.50596
1.50602
1.50607
1.50638
1.50663
1.50595
1.50485
1.50366
1.50199
1.50001
1.49854
1.4971
1.49504
1.49305
1.49223
1.49111
1.48944
1.48862
1.48798
1.48642
1.48517
1.48424
1.48405
1.48621
1.49327
1.51081
1.54027
1.57044
1.60065
1.61634
1.61977
1.61936
1.61783
1.61525
1.61363
1.61276
1.61104
1.60881
1.6067
1.60505
1.60367
1.60249
1.60112
1.59953
1.59772
1.5957
1.59357
1.59136
1.58894
1.58665
1.58524
1.58415
1.58276
1.58164
1.58085
1.57973
1.57888
1.57831
1.57767
1.57713
1.57667
1.57617
1.57574
1.57523
1.57451
1.57359
1.57263
1.57156
1.57017
1.56995
1.57061
1.57664
1.60474
1.67811
1.82626
1.94739
2.00204
2.01381
2.0134
2.00636
1.99598
1.98576
1.97772
1.97059
1.96356
1.95682
1.95113
1.94613
1.941
1.93662
1.93295
1.92848
1.92386
1.92131
1.92016
1.91975
1.92008
1.926
1.52555
1.52298
1.52074
1.5191
1.51831
1.51849
1.51852
1.51793
1.51737
1.51711
1.51658
1.51516
1.51529
1.51619
1.51697
1.51804
1.5188
1.51891
1.51877
1.5182
1.51677
1.51553
1.51496
1.5136
1.51086
1.50799
1.50731
1.50708
1.50576
1.50488
1.50461
1.50463
1.50507
1.50536
1.50548
1.50559
1.50592
1.50625
1.50576
1.50446
1.50324
1.50199
1.5002
1.49822
1.49678
1.4953
1.49305
1.49153
1.49067
1.48916
1.48786
1.48741
1.48656
1.48548
1.4847
1.48525
1.48824
1.49655
1.51385
1.5463
1.57885
1.604
1.61981
1.62158
1.62105
1.61936
1.6168
1.61395
1.61197
1.61091
1.60946
1.60714
1.60541
1.60409
1.60288
1.6017
1.60028
1.59863
1.59672
1.59457
1.59232
1.59013
1.58792
1.58579
1.58437
1.58328
1.58212
1.58089
1.57982
1.57879
1.57787
1.57709
1.57641
1.57583
1.5753
1.57473
1.57417
1.57366
1.573
1.5721
1.57107
1.56996
1.5686
1.56732
1.56672
1.56708
1.57148
1.59173
1.66496
1.80631
1.93065
2.00092
2.01694
2.01403
2.00645
1.99587
1.98278
1.97388
1.96671
1.96002
1.95441
1.94963
1.9453
1.94112
1.93704
1.93304
1.9306
1.9307
1.93103
1.93337
1.93779
1.95038
1.5308
1.5284
1.5257
1.52334
1.52175
1.52043
1.51894
1.51793
1.5175
1.51735
1.51693
1.5165
1.5172
1.51794
1.51842
1.51875
1.51887
1.5189
1.51851
1.51686
1.51491
1.51441
1.51344
1.51097
1.50775
1.50628
1.5061
1.50532
1.50424
1.50379
1.50368
1.50382
1.50436
1.50467
1.50487
1.50521
1.50549
1.50508
1.50402
1.50256
1.5014
1.50015
1.49837
1.49651
1.49501
1.49328
1.49134
1.49004
1.48876
1.48736
1.48674
1.48636
1.48566
1.48531
1.48611
1.48961
1.49998
1.51852
1.54948
1.58619
1.60772
1.62052
1.62366
1.62299
1.62055
1.61747
1.61495
1.61246
1.60979
1.60847
1.60747
1.60556
1.60416
1.60315
1.60198
1.60064
1.59912
1.59735
1.59536
1.59321
1.59102
1.58896
1.58693
1.58493
1.58352
1.58244
1.58124
1.57985
1.57877
1.57792
1.57685
1.57588
1.57505
1.57426
1.57356
1.57296
1.5721
1.5711
1.57013
1.56914
1.56814
1.56718
1.56621
1.56524
1.5642
1.56365
1.56411
1.56732
1.58532
1.65353
1.77544
1.9192
2.00245
2.01102
2.00845
2.0027
1.9912
1.98029
1.97075
1.96333
1.95755
1.95251
1.94908
1.94613
1.94344
1.94129
1.94222
1.94538
1.94853
1.9557
1.96394
1.97817
1.53415
1.53101
1.52805
1.52573
1.52407
1.52256
1.52109
1.51995
1.51912
1.51833
1.51728
1.51714
1.51811
1.51904
1.5195
1.51971
1.51985
1.5195
1.51779
1.5155
1.5145
1.5134
1.51104
1.50793
1.50592
1.50542
1.50479
1.50388
1.50349
1.50338
1.5034
1.50364
1.50394
1.50415
1.50448
1.50442
1.50393
1.50314
1.50203
1.50059
1.49947
1.49826
1.49658
1.49487
1.49344
1.49185
1.49008
1.48836
1.48694
1.48632
1.48614
1.48575
1.48566
1.48669
1.4907
1.50229
1.52463
1.55314
1.5894
1.61404
1.62223
1.62343
1.6232
1.62177
1.61864
1.6155
1.61296
1.61069
1.60832
1.6064
1.6053
1.60443
1.6035
1.60229
1.60094
1.59948
1.59783
1.59595
1.5939
1.59175
1.58965
1.58773
1.5858
1.58401
1.58265
1.5813
1.57998
1.57878
1.57769
1.57642
1.57522
1.57429
1.57347
1.57268
1.57195
1.57105
1.57001
1.56891
1.56781
1.56673
1.56567
1.56471
1.56391
1.56314
1.5624
1.56154
1.561
1.56138
1.56402
1.58019
1.63347
1.75482
1.91286
1.98796
2.00558
2.00369
1.99736
1.98692
1.97711
1.96984
1.96347
1.95808
1.95513
1.95388
1.95347
1.95445
1.95981
1.96632
1.97427
1.98469
1.99351
2.00308
1.53837
1.53517
1.53197
1.52899
1.52613
1.52356
1.52185
1.52091
1.52032
1.51977
1.51949
1.51958
1.51977
1.51972
1.51936
1.51922
1.51889
1.51773
1.51641
1.51544
1.51397
1.51154
1.50869
1.50617
1.505
1.50429
1.50373
1.50346
1.50337
1.5035
1.50377
1.50381
1.50384
1.50395
1.50367
1.50286
1.50204
1.50117
1.49999
1.4985
1.49749
1.49645
1.49494
1.49334
1.49207
1.49062
1.4888
1.4868
1.48579
1.48581
1.48578
1.486
1.48742
1.49193
1.50347
1.52872
1.56039
1.59131
1.61619
1.62396
1.62472
1.62423
1.62236
1.61832
1.61553
1.61357
1.61123
1.60883
1.60668
1.60494
1.60377
1.60306
1.60251
1.6013
1.59975
1.59813
1.59637
1.59442
1.59236
1.59026
1.58823
1.58635
1.5845
1.58276
1.58132
1.57999
1.57873
1.57758
1.57633
1.57493
1.57376
1.57286
1.57198
1.57119
1.5703
1.56926
1.56815
1.56696
1.56574
1.5645
1.56318
1.562
1.56122
1.56052
1.55991
1.55931
1.55838
1.55791
1.55809
1.56026
1.57228
1.61803
1.74476
1.88645
1.97737
2.00425
2.00316
1.99737
1.98879
1.97913
1.97019
1.96629
1.96696
1.96866
1.97038
1.97625
1.98568
1.99448
2.00473
2.01233
2.01943
2.02071
1.54109
1.5379
1.53482
1.53201
1.52944
1.52694
1.52477
1.52302
1.52166
1.52067
1.52068
1.52123
1.52158
1.52141
1.52095
1.52004
1.51821
1.51602
1.51476
1.51357
1.51155
1.50923
1.50729
1.50593
1.50476
1.50391
1.50359
1.50345
1.50353
1.50398
1.50441
1.50432
1.50404
1.5035
1.50259
1.50137
1.50031
1.49928
1.49792
1.49641
1.49565
1.49483
1.49346
1.49205
1.491
1.48962
1.48757
1.48579
1.48543
1.4856
1.48625
1.48799
1.4936
1.50578
1.52992
1.56673
1.5953
1.61633
1.62548
1.62614
1.6254
1.62349
1.62031
1.61606
1.61312
1.61106
1.60899
1.60713
1.60542
1.604
1.60294
1.60206
1.60135
1.60005
1.59835
1.59656
1.59469
1.59271
1.59068
1.58866
1.58671
1.58481
1.58295
1.5813
1.57993
1.57864
1.57745
1.57631
1.5749
1.57349
1.57248
1.57155
1.57071
1.56983
1.56875
1.56758
1.56629
1.5649
1.5635
1.56211
1.56069
1.55939
1.55846
1.55772
1.55709
1.55661
1.5557
1.55485
1.55406
1.55414
1.55596
1.56541
1.61142
1.72018
1.86451
1.97674
2.00196
2.00015
1.99729
1.99024
1.98177
1.9811
1.9845
1.98826
1.99522
2.00561
2.0163
2.02374
2.03123
2.03579
2.03661
2.03301
1.54548
1.54218
1.5387
1.53506
1.53186
1.52955
1.52763
1.52584
1.52442
1.52359
1.52299
1.52205
1.52082
1.51979
1.51866
1.51717
1.51598
1.51552
1.51443
1.51197
1.50933
1.50753
1.50624
1.50494
1.5042
1.50393
1.50381
1.50391
1.50436
1.50493
1.50496
1.50455
1.50387
1.50284
1.5015
1.49998
1.49873
1.4976
1.49614
1.4948
1.49426
1.4935
1.4921
1.49095
1.49012
1.48868
1.48659
1.48559
1.48557
1.48628
1.48838
1.4947
1.5094
1.53267
1.56903
1.60046
1.61795
1.62509
1.62651
1.62627
1.62424
1.62061
1.61647
1.61297
1.6107
1.60824
1.60635
1.60555
1.60447
1.60316
1.60207
1.60116
1.60011
1.5986
1.59682
1.59489
1.59285
1.59081
1.58879
1.58684
1.58497
1.58311
1.58129
1.57979
1.57848
1.57725
1.57604
1.5747
1.5734
1.5723
1.57125
1.57029
1.56947
1.56844
1.56724
1.56592
1.56449
1.56297
1.56142
1.55991
1.55845
1.557
1.55566
1.55471
1.55398
1.55329
1.55222
1.55125
1.55059
1.5497
1.55011
1.55184
1.56144
1.60009
1.69589
1.86158
1.9657
1.99734
2.00093
2.00225
2.00027
2.0033
2.00834
2.01536
2.02612
2.03615
2.04358
2.04848
2.05035
2.04954
2.04667
2.03894
1.54893
1.54609
1.54298
1.53965
1.53648
1.53356
1.53059
1.52772
1.5255
1.52407
1.52301
1.52198
1.52104
1.51999
1.51825
1.51604
1.51441
1.5131
1.51113
1.50893
1.50739
1.50644
1.5055
1.50469
1.50442
1.50432
1.50439
1.50476
1.50539
1.5056
1.50522
1.50444
1.50336
1.50201
1.50037
1.49862
1.49735
1.49622
1.49478
1.49364
1.49321
1.49243
1.49103
1.4902
1.48938
1.48772
1.48613
1.486
1.48668
1.48903
1.49521
1.51184
1.53815
1.57023
1.60403
1.62055
1.62578
1.62634
1.62591
1.62476
1.62162
1.61741
1.61347
1.61043
1.6081
1.60599
1.60441
1.60365
1.60307
1.60215
1.60114
1.59999
1.59859
1.59695
1.59512
1.59315
1.59108
1.58897
1.58691
1.58497
1.58316
1.5814
1.57971
1.57829
1.57697
1.57568
1.57434
1.57307
1.57204
1.571
1.5699
1.56896
1.56808
1.56693
1.56561
1.56416
1.56256
1.5609
1.55923
1.55758
1.556
1.55449
1.55285
1.55146
1.55058
1.54957
1.54849
1.54766
1.54732
1.54692
1.54715
1.5479
1.54966
1.55766
1.58904
1.69133
1.84434
1.95868
2.00333
2.01892
2.0286
2.03625
2.04082
2.04875
2.05676
2.06315
2.06511
2.06499
2.06258
2.05728
2.05154
2.04068
1.5535
1.55028
1.54656
1.54251
1.5391
1.53632
1.53334
1.53034
1.52786
1.52572
1.52355
1.52158
1.52001
1.51826
1.51597
1.51442
1.51352
1.51185
1.50942
1.50765
1.50658
1.50574
1.50495
1.50466
1.50472
1.50499
1.50547
1.50608
1.50631
1.50602
1.50529
1.50417
1.50279
1.5012
1.49934
1.49755
1.49628
1.49516
1.49375
1.49289
1.49253
1.49161
1.49033
1.48966
1.4886
1.48705
1.48661
1.48721
1.48975
1.49649
1.51207
1.54235
1.57543
1.60407
1.62253
1.62693
1.62708
1.62631
1.6247
1.62135
1.61702
1.61389
1.61099
1.60845
1.60629
1.60437
1.60292
1.60195
1.60143
1.60101
1.59994
1.59848
1.59691
1.59519
1.5933
1.59126
1.58914
1.58704
1.58506
1.58318
1.58137
1.57965
1.57819
1.57682
1.57544
1.57398
1.57258
1.57146
1.57042
1.56926
1.56822
1.56737
1.5664
1.56516
1.56377
1.56223
1.56052
1.55877
1.55702
1.5552
1.55346
1.55181
1.54987
1.54829
1.54718
1.54599
1.54518
1.54473
1.54478
1.54514
1.54578
1.54667
1.54757
1.54918
1.5562
1.58796
1.68542
1.83374
1.97203
2.02312
2.0583
2.07543
2.07716
2.07985
2.07932
2.07818
2.07722
2.07413
2.06934
2.06262
2.05523
2.04212
1.55678
1.55374
1.55013
1.54601
1.5421
1.53868
1.53532
1.53231
1.52983
1.52737
1.52464
1.52212
1.51992
1.51753
1.5149
1.51298
1.51145
1.50965
1.50768
1.50637
1.50582
1.5053
1.50493
1.50505
1.50546
1.50598
1.50661
1.50695
1.50671
1.50611
1.50509
1.5037
1.50212
1.5004
1.49844
1.49671
1.49557
1.49452
1.4932
1.49253
1.492
1.49087
1.48995
1.48909
1.48806
1.4874
1.48786
1.49029
1.49812
1.51355
1.54261
1.58039
1.60565
1.62261
1.62769
1.62764
1.62673
1.62493
1.62228
1.61798
1.61294
1.61038
1.60827
1.60604
1.60435
1.60312
1.60194
1.6008
1.60003
1.5996
1.59853
1.59695
1.59526
1.59345
)
;

boundaryField
{
    inlet
    {
        type            calculated;
        value           nonuniform 0();
    }
    outlet
    {
        type            calculated;
        value           nonuniform List<scalar> 
18
(
1.88599
1.8864
1.88686
1.88774
1.88878
1.89028
1.89369
1.89952
1.9094
1.92599
1.95036
1.97815
2.00306
2.0207
2.03301
2.03894
2.04068
2.04213
)
;
    }
    bottom
    {
        type            symmetryPlane;
    }
    top
    {
        type            symmetryPlane;
    }
    obstacle
    {
        type            calculated;
        value           nonuniform 0();
    }
    front
    {
        type            empty;
    }
    back
    {
        type            empty;
    }
    procBoundary15to7
    {
        type            processor;
        value           nonuniform List<scalar> 
133
(
1.51782
1.51704
1.51574
1.51385
1.51274
1.51235
1.51159
1.51007
1.50846
1.50718
1.50566
1.50336
1.50155
1.5001
1.49826
1.49691
1.4955
1.49373
1.49213
1.4906
1.48851
1.48671
1.48452
1.48098
1.47931
1.47579
1.471
1.46791
1.46164
1.45332
1.44644
1.44024
1.43695
1.43858
1.44877
1.47544
1.51302
1.54197
1.56496
1.57779
1.57843
1.5779
1.57728
1.57644
1.57671
1.57719
1.5761
1.57553
1.5764
1.57809
1.57973
1.58058
1.58163
1.58252
1.58401
1.58644
1.5954
1.62906
1.69594
1.80397
1.89717
1.94508
1.96466
1.97017
1.97293
1.97277
1.97268
1.97191
1.96951
1.9676
1.96603
1.96322
1.96034
1.95826
1.95596
1.95319
1.9506
1.94766
1.94444
1.94099
1.93742
1.93393
1.93008
1.9259
1.92202
1.91849
1.91475
1.91113
1.90822
1.90505
1.90157
1.89819
1.8949
1.89166
1.88535
1.49254
1.49709
1.50069
1.50222
1.50597
1.51091
1.5123
1.51392
1.51837
1.52049
1.52028
1.52204
1.52508
1.52516
1.52518
1.52795
1.52874
1.52803
1.52956
1.53022
1.5293
1.53022
1.53045
1.52929
1.52984
1.52969
1.52802
1.52817
1.52812
1.52569
1.52475
1.52499
1.52342
1.52063
1.51988
1.51889
1.51685
1.51685
)
;
    }
    procBoundary15to14
    {
        type            processor;
        value           nonuniform List<scalar> 
17
(
1.49226
1.49523
1.49902
1.50315
1.50663
1.51178
1.51503
1.51941
1.52287
1.52808
1.5328
1.53728
1.54142
1.54434
1.54847
1.55172
1.55633
)
;
    }
    procBoundary15to22
    {
        type            processor;
        value           uniform 1.55964;
    }
    procBoundary15to23
    {
        type            processor;
        value           nonuniform List<scalar> 
133
(
1.59147
1.58937
1.58723
1.58518
1.58325
1.58138
1.57957
1.57793
1.57645
1.57505
1.57364
1.57217
1.57088
1.56977
1.56859
1.56737
1.5663
1.56552
1.56458
1.56329
1.56183
1.56019
1.55836
1.55652
1.55458
1.55243
1.55051
1.54862
1.54649
1.54497
1.54385
1.54307
1.54282
1.54291
1.54339
1.5444
1.54551
1.54659
1.54745
1.54874
1.55131
1.55923
1.59432
1.68715
1.85417
1.9971
2.06709
2.10357
2.10823
2.10576
2.09852
2.09018
2.08316
2.07667
2.0709
2.06369
2.05576
2.04213
1.55935
1.55619
1.55259
1.54857
1.54465
1.54109
1.53761
1.53432
1.53124
1.52846
1.52625
1.52391
1.52075
1.51701
1.51391
1.51188
1.5102
1.50863
1.5074
1.50647
1.50587
1.50566
1.50578
1.50619
1.50674
1.50737
1.50771
1.5075
1.50691
1.50599
1.50462
1.50294
1.50122
1.49945
1.49752
1.49609
1.49524
1.49426
1.4932
1.49259
1.49171
1.49057
1.48947
1.48853
1.48794
1.48839
1.49068
1.49881
1.5165
1.54283
1.58164
1.60971
1.62306
1.62769
1.62764
1.62744
1.62593
1.62266
1.61862
1.6145
1.61035
1.60723
1.6058
1.60426
1.60254
1.60149
1.60067
1.59971
1.59874
1.598
1.59698
1.59544
1.59368
1.59147
1.59178
)
;
    }
}


// ************************************************************************* //
