/*--------------------------------*- C++ -*----------------------------------*\
  =========                 |
  \\      /  F ield         | OpenFOAM: The Open Source CFD Toolbox
   \\    /   O peration     | Website:  https://openfoam.org
    \\  /    A nd           | Version:  7
     \\/     M anipulation  |
\*---------------------------------------------------------------------------*/
FoamFile
{
    version     2.0;
    format      ascii;
    class       volVectorField;
    location    "2";
    object      U;
}
// * * * * * * * * * * * * * * * * * * * * * * * * * * * * * * * * * * * * * //

dimensions      [0 1 -1 0 0 0 0];

internalField   nonuniform List<vector> 
2413
(
(1.4 1.13779e-17 0)
(1.4 1.3438e-17 0)
(1.4 3.85694e-17 0)
(1.4 1.10531e-16 0)
(1.4 1.92618e-16 0)
(1.4 2.19817e-16 0)
(1.4 1.49456e-16 0)
(1.4 2.02964e-16 0)
(1.4 3.45034e-16 0)
(1.4 3.3196e-16 0)
(1.4 2.85623e-16 0)
(1.4 2.21295e-16 0)
(1.4 1.78266e-16 0)
(1.4 1.66109e-16 0)
(1.4 1.72434e-16 0)
(1.4 2.0656e-16 0)
(1.4 2.56545e-16 0)
(1.4 3.02004e-16 0)
(1.4 3.28919e-16 0)
(1.4 3.74094e-16 0)
(1.4 4.08562e-16 0)
(1.4 5.02215e-16 0)
(1.4 4.26165e-16 0)
(1.4 3.41225e-16 0)
(1.4 1.68479e-16 0)
(1.4 4.00423e-17 0)
(1.4 4.98773e-17 0)
(1.4 1.52981e-16 0)
(1.4 2.66699e-16 0)
(1.4 2.74453e-16 0)
(1.4 3.12212e-16 0)
(1.4 3.71606e-16 0)
(1.4 4.29882e-16 0)
(1.4 4.86175e-16 0)
(1.4 4.63527e-16 0)
(1.4 2.45796e-16 0)
(1.4 1.77923e-16 0)
(1.4 2.26781e-16 0)
(1.4 1.02804e-16 0)
(1.4 2.01729e-16 0)
(1.4 4.11146e-16 0)
(1.4 4.95635e-16 0)
(1.4 4.22946e-16 0)
(1.4 4.70618e-16 0)
(1.4 5.90102e-16 0)
(1.4 7.09809e-16 0)
(1.4 7.11153e-16 0)
(1.4 7.26566e-16 0)
(1.4 9.22328e-16 0)
(1.4 9.11931e-16 0)
(1.4 8.52091e-16 0)
(1.4 8.96679e-16 0)
(1.4 8.09789e-16 0)
(1.4 6.89885e-16 0)
(1.4 4.91544e-16 0)
(1.4 3.87101e-16 0)
(1.4 5.17679e-16 0)
(1.4 7.42358e-16 0)
(1.4 8.35236e-16 0)
(1.4 8.659e-16 0)
(1.4 8.03428e-16 0)
(1.4 7.46476e-16 0)
(1.4 7.7835e-16 0)
(1.4 6.5237e-16 0)
(1.4 7.17655e-16 0)
(1.4 8.32986e-16 0)
(1.4 7.99385e-16 0)
(1.4 7.93377e-16 0)
(1.4 8.5935e-16 0)
(1.4 7.47378e-16 0)
(1.4 6.4521e-16 0)
(1.4 6.00946e-16 0)
(1.4 5.2409e-16 0)
(1.4 4.40929e-16 0)
(1.4 2.06759e-16 0)
(1.4 2.26627e-17 0)
(1.4 -1.2282e-16 0)
(1.4 -3.04257e-16 0)
(1.4 -4.56813e-16 0)
(1.4 -5.427e-16 0)
(1.4 -4.58723e-16 0)
(1.4 -5.91738e-16 0)
(1.4 -5.4614e-16 0)
(1.4 -5.30682e-16 0)
(1.4 -5.45247e-16 0)
(1.4 -4.87168e-16 0)
(1.4 -4.56883e-16 0)
(1.4 -3.98468e-16 0)
(1.4 -3.34461e-16 0)
(1.4 -2.99971e-16 0)
(1.4 -3.34371e-16 0)
(1.4 -3.06809e-16 0)
(1.4 -2.12907e-16 0)
(1.4 -1.69772e-16 0)
(1.4 -2.35295e-16 0)
(1.4 -3.33e-16 0)
(1.4 -3.67907e-16 0)
(1.4 -4.12667e-16 0)
(1.4 -5.43839e-16 0)
(1.4 -5.727e-16 0)
(1.4 -8.43982e-16 0)
(1.4 -9.57612e-16 0)
(1.4 -9.70428e-16 0)
(1.4 -9.18715e-16 0)
(1.4 -9.18788e-16 0)
(1.4 -7.66666e-16 0)
(1.4 -7.40224e-16 0)
(1.4 -7.71065e-16 0)
(1.4 -8.82766e-16 0)
(1.4 -1.07637e-15 0)
(1.4 -1.24544e-15 0)
(1.4 -1.25685e-15 0)
(1.4 -1.23026e-15 0)
(1.4 -1.09792e-15 0)
(1.4 -1.07967e-15 0)
(1.4 -9.97389e-16 0)
(1.4 -9.84554e-16 0)
(1.4 -8.84258e-16 0)
(1.4 -9.38839e-16 0)
(1.4 -1.18946e-15 0)
(1.4 -1.61864e-15 0)
(1.4 -1.97858e-15 0)
(1.4 -1.87118e-15 0)
(1.4 -1.96763e-15 0)
(1.4 -1.67602e-15 0)
(1.4 -1.45579e-15 0)
(1.4 -1.39193e-15 0)
(1.4 -1.05903e-15 0)
(1.4 -8.90896e-16 0)
(1.4 -3.06437e-16 0)
(1.4 -2.40272e-16 0)
(1.4 -3.02666e-17 0)
(1.4 2.07905e-17 0)
(1.4 1.03789e-16 0)
(1.4 1.74917e-16 0)
(1.4 2.20081e-16 0)
(1.4 7.95187e-17 0)
(1.4 3.54047e-17 0)
(1.4 5.71179e-17 0)
(1.4 2.45266e-16 0)
(1.4 3.24569e-16 0)
(1.4 3.79225e-16 0)
(1.4 3.53753e-16 0)
(1.4 3.13583e-16 0)
(1.4 3.04655e-16 0)
(1.4 3.25321e-16 0)
(1.4 3.61772e-16 0)
(1.4 5.53494e-16 0)
(1.4 6.22739e-16 0)
(1.4 6.58972e-16 0)
(1.4 7.7241e-16 0)
(1.4 9.10215e-16 0)
(1.4 1.08296e-15 0)
(1.4 1.07721e-15 0)
(1.4 1.03162e-15 0)
(1.4 7.08287e-16 0)
(1.4 4.68402e-16 0)
(1.4 4.20209e-16 0)
(1.4 3.3241e-16 0)
(1.4 2.05974e-16 0)
(1.4 1.6148e-16 0)
(1.4 2.01028e-16 0)
(1.4 4.86379e-16 0)
(1.4 8.64502e-16 0)
(1.4 1.15031e-15 0)
(1.4 1.04628e-15 0)
(1.4 8.35963e-16 0)
(1.4 5.05824e-16 0)
(1.4 7.29703e-16 0)
(1.4 6.94937e-16 0)
(1.4 7.10588e-16 0)
(1.4 9.76823e-16 0)
(1.4 1.18683e-15 0)
(1.4 1.13477e-15 0)
(1.4 1.11586e-15 0)
(1.4 1.51454e-15 0)
(1.4 1.65013e-15 0)
(1.4 1.56831e-15 0)
(1.4 1.66192e-15 0)
(1.4 1.70713e-15 0)
(1.4 1.50737e-15 0)
(1.4 1.4621e-15 0)
(1.4 1.34203e-15 0)
(1.4 1.15247e-15 0)
(1.4 8.56979e-16 0)
(1.4 6.28513e-16 0)
(1.4 6.42628e-16 0)
(1.4 6.27532e-16 0)
(1.4 7.28592e-16 0)
(1.4 9.54253e-16 0)
(1.4 9.56188e-16 0)
(1.4 9.13453e-16 0)
(1.4 9.27888e-16 0)
(1.4 8.92577e-16 0)
(1.4 9.76504e-16 0)
(1.4 9.41946e-16 0)
(1.4 9.67805e-16 0)
(1.4 8.59554e-16 0)
(1.4 6.62866e-16 0)
(1.4 5.43269e-16 0)
(1.4 2.00962e-16 0)
(1.4 -1.66729e-16 0)
(1.4 -6.4707e-16 0)
(1.4 -1.03298e-15 0)
(1.4 -1.33995e-15 0)
(1.4 -1.86665e-15 0)
(1.4 -1.92679e-15 0)
(1.4 -1.87007e-15 0)
(1.4 -1.99769e-15 0)
(1.4 -2.29503e-15 0)
(1.4 -2.36227e-15 0)
(1.4 -2.31677e-15 0)
(1.4 -2.16408e-15 0)
(1.4 -1.98065e-15 0)
(1.4 -1.77117e-15 0)
(1.4 -1.7353e-15 0)
(1.4 -1.65361e-15 0)
(1.4 -1.6648e-15 0)
(1.4 -1.66355e-15 0)
(1.4 -1.62844e-15 0)
(1.4 -1.14366e-15 0)
(1.4 -6.91171e-16 0)
(1.4 -5.32502e-16 0)
(1.4 -5.45884e-16 0)
(1.4 -4.988e-16 0)
(1.4 -4.54901e-16 0)
(1.4 -4.46644e-16 0)
(1.4 -5.39171e-16 0)
(1.4 -6.97158e-16 0)
(1.4 -9.15901e-16 0)
(1.4 -1.11971e-15 0)
(1.4 -1.47622e-15 0)
(1.4 -1.6185e-15 0)
(1.4 -1.85257e-15 0)
(1.4 -1.89369e-15 0)
(1.4 -2.17922e-15 0)
(1.4 -1.91396e-15 0)
(1.4 -1.72714e-15 0)
(1.4 -1.6518e-15 0)
(1.4 -1.88455e-15 0)
(1.4 -2.02508e-15 0)
(1.4 -2.12138e-15 0)
(1.4 -2.07869e-15 0)
(1.4 -1.88158e-15 0)
(1.4 -1.61518e-15 0)
(1.4 -1.6123e-15 0)
(1.4 -1.61343e-15 0)
(1.4 -1.55401e-15 0)
(1.4 -1.5494e-15 0)
(1.4 -1.93022e-15 0)
(1.4 -2.64956e-15 0)
(1.4 -3.60811e-15 0)
(1.4 -4.06505e-15 0)
(1.4 -3.82077e-15 0)
(1.4 -4.07764e-15 0)
(1.4 -3.97663e-15 0)
(1.4 -3.76934e-15 0)
(1.4 -3.94936e-15 0)
(1.4 -2.95831e-15 0)
(1.4 -1.79707e-15 0)
(1.4 -1.22546e-15 0)
(1.4 -7.98696e-16 0)
(1.4 -2.09861e-18 0)
(1.4 -3.22871e-17 0)
(1.4 -9.4582e-17 0)
(1.4 -1.3966e-16 0)
(1.4 -2.25397e-16 0)
(1.4 -2.405e-16 0)
(1.4 -3.14351e-16 0)
(1.4 -3.7677e-16 0)
(1.4 -4.31959e-16 0)
(1.4 -4.69553e-16 0)
(1.4 -4.66198e-16 0)
(1.4 -4.11727e-16 0)
(1.4 -3.12441e-16 0)
(1.4 -3.47772e-16 0)
(1.4 -3.08913e-16 0)
(1.4 -2.79924e-16 0)
(1.4 -1.33797e-16 0)
(1.4 1.25984e-16 0)
(1.4 3.73063e-16 0)
(1.4 5.77401e-16 0)
(1.4 6.65881e-16 0)
(1.4 6.9486e-16 0)
(1.4 7.83365e-16 0)
(1.4 8.61238e-16 0)
(1.4 7.98498e-16 0)
(1.4 7.30445e-16 0)
(1.4 6.10108e-16 0)
(1.4 4.32631e-16 0)
(1.4 3.92833e-16 0)
(1.4 4.16555e-16 0)
(1.4 5.52011e-16 0)
(1.4 6.90941e-16 0)
(1.4 7.12027e-16 0)
(1.4 7.01996e-16 0)
(1.4 8.56074e-16 0)
(1.4 9.75299e-16 0)
(1.4 1.11015e-15 0)
(1.4 1.4095e-15 0)
(1.4 1.63894e-15 0)
(1.4 1.83042e-15 0)
(1.4 1.92316e-15 0)
(1.4 2.12766e-15 0)
(1.4 2.34208e-15 0)
(1.4 2.41914e-15 0)
(1.4 2.31985e-15 0)
(1.4 2.04768e-15 0)
(1.4 1.78325e-15 0)
(1.4 1.54834e-15 0)
(1.4 1.28363e-15 0)
(1.4 1.22503e-15 0)
(1.4 1.358e-15 0)
(1.4 1.44787e-15 0)
(1.4 1.69421e-15 0)
(1.4 2.04812e-15 0)
(1.4 2.11312e-15 0)
(1.4 2.03602e-15 0)
(1.4 1.81139e-15 0)
(1.4 1.80095e-15 0)
(1.4 1.7256e-15 0)
(1.4 1.73587e-15 0)
(1.4 1.83956e-15 0)
(1.4 1.82854e-15 0)
(1.4 1.65116e-15 0)
(1.4 1.41919e-15 0)
(1.4 1.08935e-15 0)
(1.4 5.47266e-16 0)
(1.4 3.19909e-18 0)
(1.4 -9.51507e-16 0)
(1.4 -1.97654e-15 0)
(1.4 -2.31422e-15 0)
(1.4 -2.4301e-15 0)
(1.4 -2.4307e-15 0)
(1.4 -2.5269e-15 0)
(1.4 -2.66506e-15 0)
(1.4 -2.79711e-15 0)
(1.4 -3.17412e-15 0)
(1.4 -3.55214e-15 0)
(1.4 -3.67037e-15 0)
(1.4 -3.7823e-15 0)
(1.4 -3.85444e-15 0)
(1.4 -3.98553e-15 0)
(1.4 -3.80803e-15 0)
(1.4 -3.38772e-15 0)
(1.4 -2.77239e-15 0)
(1.4 -2.44092e-15 0)
(1.4 -2.45982e-15 0)
(1.4 -2.41642e-15 0)
(1.4 -2.36883e-15 0)
(1.4 -1.63425e-15 0)
(1.4 -1.19775e-15 0)
(1.4 -7.43453e-16 0)
(1.4 -6.75747e-16 0)
(1.4 -7.24406e-16 0)
(1.4 -9.36256e-16 0)
(1.4 -1.01207e-15 0)
(1.4 -1.05044e-15 0)
(1.4 -1.00798e-15 0)
(1.4 -9.81131e-16 0)
(1.4 -1.01359e-15 0)
(1.4 -1.05177e-15 0)
(1.4 -1.14022e-15 0)
(1.4 -1.38661e-15 0)
(1.4 -1.757e-15 0)
(1.4 -2.11912e-15 0)
(1.4 -2.18374e-15 0)
(1.4 -2.24892e-15 0)
(1.4 -2.03668e-15 0)
(1.4 -1.91004e-15 0)
(1.4 -1.62022e-15 0)
(1.4 -1.32708e-15 0)
(1.4 -1.12337e-15 0)
(1.4 -1.25012e-15 0)
(1.4 -1.82683e-15 0)
(1.4 -2.16504e-15 0)
(1.4 -2.49176e-15 0)
(1.4 -2.91255e-15 0)
(1.4 -3.41335e-15 0)
(1.4 -3.53621e-15 0)
(1.4 -3.72541e-15 0)
(1.4 -3.97819e-15 0)
(1.4 -4.35518e-15 0)
(1.4 -4.52082e-15 0)
(1.4 -4.76678e-15 0)
(1.4 -4.98842e-15 0)
(1.4 -5.14033e-15 0)
(1.4 -5.32849e-15 0)
(1.4 -4.86221e-15 0)
(1.4 -4.62022e-15 0)
(1.4 -4.23928e-15 0)
(1.4 -3.74644e-15 0)
(1.4 -2.45523e-15 0)
(1.4 1.17975e-16 0)
(1.4 -4.495e-17 0)
(1.4 -1.15991e-16 0)
(1.4 -1.43543e-16 0)
(1.4 -1.21137e-16 0)
(1.4 -7.15102e-17 0)
(1.4 -2.14487e-16 0)
(1.4 -4.13984e-16 0)
(1.4 -6.57956e-16 0)
(1.4 -7.03838e-16 0)
(1.4 -6.46392e-16 0)
(1.4 -5.78107e-16 0)
(1.4 -4.6126e-16 0)
(1.4 -4.17506e-16 0)
(1.4 -4.69128e-16 0)
(1.4 -4.85055e-16 0)
(1.4 -3.61119e-16 0)
(1.4 -2.9276e-16 0)
(1.4 -1.89127e-16 0)
(1.4 -2.38118e-17 0)
(1.4 9.18304e-19 0)
(1.4 -4.61667e-17 0)
(1.4 3.01903e-18 0)
(1.4 1.61031e-16 0)
(1.4 2.65383e-16 0)
(1.4 3.9141e-16 0)
(1.4 3.14438e-16 0)
(1.4 6.33984e-16 0)
(1.4 8.85389e-16 0)
(1.4 1.07189e-15 0)
(1.4 1.07397e-15 0)
(1.4 1.03432e-15 0)
(1.4 1.03436e-15 0)
(1.4 1.08071e-15 0)
(1.4 1.19264e-15 0)
(1.4 2.06796e-15 0)
(1.4 2.32487e-15 0)
(1.4 2.37627e-15 0)
(1.4 2.39061e-15 0)
(1.4 2.63981e-15 0)
(1.4 2.61784e-15 0)
(1.4 2.56356e-15 0)
(1.4 2.41278e-15 0)
(1.4 2.09111e-15 0)
(1.4 2.03652e-15 0)
(1.4 1.58261e-15 0)
(1.4 9.5451e-16 0)
(1.4 6.48705e-16 0)
(1.4 7.1049e-16 0)
(1.4 8.06109e-16 0)
(1.4 7.5436e-16 0)
(1.4 6.80518e-16 0)
(1.4 7.32648e-16 0)
(1.4 6.95671e-16 0)
(1.4 6.0738e-16 0)
(1.4 3.78588e-16 0)
(1.4 3.71608e-16 0)
(1.4 3.79961e-16 0)
(1.4 3.41373e-16 0)
(1.4 3.86049e-16 0)
(1.4 4.47437e-16 0)
(1.4 4.47002e-16 0)
(1.4 3.74266e-16 0)
(1.4 2.14101e-16 0)
(1.4 1.57153e-16 0)
(1.4 -4.47615e-17 0)
(1.4 -2.3368e-16 0)
(1.4 -8.49747e-16 0)
(1.4 -1.3347e-15 0)
(1.4 -1.8092e-15 0)
(1.4 -2.16987e-15 0)
(1.4 -2.26485e-15 0)
(1.4 -2.27868e-15 0)
(1.4 -2.26125e-15 0)
(1.4 -2.28103e-15 0)
(1.4 -2.23761e-15 0)
(1.4 -2.40533e-15 0)
(1.4 -2.74931e-15 0)
(1.4 -2.9611e-15 0)
(1.4 -3.02059e-15 0)
(1.4 -3.03569e-15 0)
(1.4 -2.95721e-15 0)
(1.4 -2.94464e-15 0)
(1.4 -2.88323e-15 0)
(1.4 -2.68178e-15 0)
(1.4 -2.6868e-15 0)
(1.4 -2.54193e-15 0)
(1.4 -2.3544e-15 0)
(1.4 -2.09467e-15 0)
(1.4 -2.0497e-15 0)
(1.4 -1.9851e-15 0)
(1.4 -1.92262e-15 0)
(1.4 -1.9314e-15 0)
(1.4 -1.96881e-15 0)
(1.4 -1.6699e-15 0)
(1.4 -1.52638e-15 0)
(1.4 -1.37933e-15 0)
(1.4 -1.21448e-15 0)
(1.4 -1.2112e-15 0)
(1.4 -1.38949e-15 0)
(1.4 -1.46722e-15 0)
(1.4 -1.69093e-15 0)
(1.4 -1.96039e-15 0)
(1.4 -2.02088e-15 0)
(1.4 -1.92134e-15 0)
(1.4 -1.91456e-15 0)
(1.4 -1.42277e-15 0)
(1.4 -1.35913e-15 0)
(1.4 -1.28066e-15 0)
(1.4 -9.87456e-16 0)
(1.4 -6.70671e-16 0)
(1.4 -4.47049e-16 0)
(1.4 -3.51031e-16 0)
(1.4 -4.67281e-16 0)
(1.4 -7.6108e-16 0)
(1.4 -9.28866e-16 0)
(1.4 -1.62886e-15 0)
(1.4 -2.25503e-15 0)
(1.4 -2.38574e-15 0)
(1.4 -2.47672e-15 0)
(1.4 -2.67079e-15 0)
(1.4 -2.92313e-15 0)
(1.4 -3.09525e-15 0)
(1.4 -3.06058e-15 0)
(1.4 -2.97411e-15 0)
(1.4 -3.02826e-15 0)
(1.4 -3.19448e-15 0)
(1.4 -3.12621e-15 0)
(1.4 -3.01462e-15 0)
(1.4 -3.06165e-15 0)
(1.4 -3.14307e-15 0)
(1.4 -5.11079e-18 0)
(1.4 3.63003e-17 0)
(1.4 6.60126e-17 0)
(1.4 3.57092e-17 0)
(1.4 8.37451e-17 0)
(1.4 1.10586e-17 0)
(1.4 -1.85584e-17 0)
(1.4 -1.32465e-16 0)
(1.4 -1.36768e-16 0)
(1.4 -1.09659e-16 0)
(1.4 1.4017e-16 0)
(1.4 2.13059e-16 0)
(1.4 1.9676e-16 0)
(1.4 2.3567e-16 0)
(1.4 2.02887e-16 0)
(1.4 1.74028e-16 0)
(1.4 1.45566e-16 0)
(1.4 9.76417e-17 0)
(1.4 1.08508e-16 0)
(1.4 1.2882e-16 0)
(1.4 7.94477e-17 0)
(1.4 7.81436e-17 0)
(1.4 1.43842e-16 0)
(1.4 2.57504e-16 0)
(1.4 3.90938e-16 0)
(1.4 6.71581e-16 0)
(1.4 8.40903e-16 0)
(1.4 1.06096e-15 0)
(1.4 1.32797e-15 0)
(1.4 1.42052e-15 0)
(1.4 1.43691e-15 0)
(1.4 1.44282e-15 0)
(1.4 1.50951e-15 0)
(1.4 1.76861e-15 0)
(1.4 2.01477e-15 0)
(1.4 2.41629e-15 0)
(1.4 2.49523e-15 0)
(1.4 2.76888e-15 0)
(1.4 2.90107e-15 0)
(1.4 2.81423e-15 0)
(1.4 2.55641e-15 0)
(1.4 2.06427e-15 0)
(1.4 1.3222e-15 0)
(1.4 8.80476e-16 0)
(1.4 8.7886e-16 0)
(1.4 5.59702e-16 0)
(1.4 6.43032e-16 0)
(1.4 8.05948e-16 0)
(1.4 8.25427e-16 0)
(1.4 8.78529e-16 0)
(1.4 5.81844e-16 0)
(1.4 2.685e-16 0)
(1.4 -1.80048e-16 0)
(1.4 -6.03728e-16 0)
(1.4 -8.87227e-16 0)
(1.4 -1.27445e-15 0)
(1.4 -1.41532e-15 0)
(1.4 -1.74407e-15 0)
(1.4 -2.00087e-15 0)
(1.4 -2.18219e-15 0)
(1.4 -2.26505e-15 0)
(1.4 -2.22114e-15 0)
(1.4 -2.12811e-15 0)
(1.4 -2.10004e-15 0)
(1.4 -1.9838e-15 0)
(1.4 -1.90751e-15 0)
(1.4 -1.83311e-15 0)
(1.4 -1.69437e-15 0)
(1.4 -1.52532e-15 0)
(1.4 -1.46551e-15 0)
(1.4 -1.47015e-15 0)
(1.4 -1.47706e-15 0)
(1.4 -1.45765e-15 0)
(1.4 -1.51242e-15 0)
(1.4 -1.59645e-15 0)
(1.4 -1.67396e-15 0)
(1.4 -1.76424e-15 0)
(1.4 -1.88412e-15 0)
(1.4 -1.89109e-15 0)
(1.4 -2.0491e-15 0)
(1.4 -2.14759e-15 0)
(1.4 -2.25981e-15 0)
(1.4 -2.41925e-15 0)
(1.4 -2.80696e-15 0)
(1.4 -2.84389e-15 0)
(1.4 -2.7374e-15 0)
(1.4 -2.76969e-15 0)
(1.4 -2.78099e-15 0)
(1.4 -2.92604e-15 0)
(1.4 -3.13044e-15 0)
(1.4 -3.17889e-15 0)
(1.4 -3.17255e-15 0)
(1.4 -2.91265e-15 0)
(1.4 -2.60686e-15 0)
(1.4 -2.17298e-15 0)
(1.4 -1.48469e-15 0)
(1.4 -1.44445e-15 0)
(1.4 -1.50863e-15 0)
(1.4 -1.58759e-15 0)
(1.4 -1.72662e-15 0)
(1.4 -1.80154e-15 0)
(1.4 -1.696e-15 0)
(1.4 -1.51785e-15 0)
(1.4 -1.53048e-15 0)
(1.4 -1.43948e-15 0)
(1.4 -1.32139e-15 0)
(1.4 -1.25834e-15 0)
(1.4 -1.26793e-15 0)
(1.4 -8.48228e-16 0)
(1.4 -4.03017e-16 0)
(1.4 -2.83982e-16 0)
(1.4 1.36618e-16 0)
(1.4 2.89043e-16 0)
(1.4 3.23346e-16 0)
(1.4 2.54565e-16 0)
(1.4 4.66398e-16 0)
(1.4 3.23138e-16 0)
(1.4 -1.29694e-16 0)
(1.4 -5.0263e-16 0)
(1.4 -3.85032e-16 0)
(1.4 -2.31964e-16 0)
(1.4 -1.59248e-16 0)
(1.4 -9.78382e-17 0)
(1.4 -1.4778e-16 0)
(1.4 -1.96727e-16 0)
(1.4 -2.77028e-16 0)
(1.4 -4.0702e-16 0)
(1.4 -6.52978e-16 0)
(1.4 -8.16604e-16 0)
(1.4 -1.21134e-15 0)
(1.4 -1.43483e-15 0)
(1.4 -1.26136e-15 0)
(1.4 1.54509e-17 0)
(1.4 -8.91202e-18 0)
(1.4 -4.68469e-17 0)
(1.4 -6.03273e-17 0)
(1.4 -8.12555e-17 0)
(1.4 -1.22455e-16 0)
(1.4 -6.91594e-17 0)
(1.4 -6.81143e-18 0)
(1.4 7.42761e-17 0)
(1.4 4.87488e-17 0)
(1.4 3.44294e-17 0)
(1.4 2.73303e-17 0)
(1.4 -8.92077e-18 0)
(1.4 1.96602e-18 0)
(1.4 5.34355e-17 0)
(1.4 5.90133e-17 0)
(1.4 5.74307e-17 0)
(1.4 -2.78864e-17 0)
(1.4 -6.76666e-17 0)
(1.4 -1.38439e-16 0)
(1.4 -2.33951e-16 0)
(1.4 -2.74187e-16 0)
(1.4 7.95522e-17 0)
(1.4 2.7769e-16 0)
(1.4 6.14618e-16 0)
(1.4 9.19641e-16 0)
(1.4 1.23985e-15 0)
(1.4 1.40964e-15 0)
(1.4 1.76382e-15 0)
(1.4 1.8797e-15 0)
(1.4 2.00755e-15 0)
(1.4 2.09464e-15 0)
(1.4 2.15449e-15 0)
(1.4 2.28901e-15 0)
(1.4 2.07563e-15 0)
(1.4 1.75611e-15 0)
(1.4 1.61193e-15 0)
(1.4 1.47817e-15 0)
(1.4 1.26047e-15 0)
(1.4 1.20582e-15 0)
(1.4 1.14168e-15 0)
(1.4 1.14875e-15 0)
(1.4 1.05925e-15 0)
(1.4 8.0629e-16 0)
(1.4 9.00012e-16 0)
(1.4 9.45257e-16 0)
(1.4 8.3773e-16 0)
(1.4 6.22197e-16 0)
(1.4 4.79194e-16 0)
(1.4 2.54923e-16 0)
(1.4 3.65841e-16 0)
(1.4 -2.58441e-16 0)
(1.4 -4.7831e-16 0)
(1.4 -4.7271e-16 0)
(1.4 -7.26558e-16 0)
(1.4 -9.57554e-16 0)
(1.4 -1.31369e-15 0)
(1.4 -1.71643e-15 0)
(1.4 -1.95535e-15 0)
(1.4 -2.12392e-15 0)
(1.4 -2.27521e-15 0)
(1.4 -2.38334e-15 0)
(1.4 -2.33489e-15 0)
(1.4 -2.2299e-15 0)
(1.4 -2.0621e-15 0)
(1.4 -1.71434e-15 0)
(1.4 -1.68178e-15 0)
(1.4 -1.50755e-15 0)
(1.4 -1.14528e-15 0)
(1.4 -8.82671e-16 0)
(1.4 -6.39618e-16 0)
(1.4 -5.8877e-16 0)
(1.4 -4.55599e-16 0)
(1.4 -4.74138e-16 0)
(1.4 -6.56658e-16 0)
(1.4 -7.17676e-16 0)
(1.4 -8.14746e-16 0)
(1.4 -8.25791e-16 0)
(1.4 -6.05654e-16 0)
(1.4 -4.76734e-16 0)
(1.4 -5.23508e-16 0)
(1.4 -8.36117e-16 0)
(1.4 -1.21096e-15 0)
(1.4 -1.2827e-15 0)
(1.4 -1.4892e-15 0)
(1.4 -2.01974e-15 0)
(1.4 -2.35483e-15 0)
(1.4 -2.76608e-15 0)
(1.4 -3.15783e-15 0)
(1.4 -3.33145e-15 0)
(1.4 -3.42276e-15 0)
(1.4 -3.29214e-15 0)
(1.4 -3.30949e-15 0)
(1.4 -3.36046e-15 0)
(1.4 -3.3637e-15 0)
(1.4 -3.12981e-15 0)
(1.4 -2.98647e-15 0)
(1.4 -2.60957e-15 0)
(1.4 -2.21456e-15 0)
(1.4 -1.56744e-15 0)
(1.4 -8.89082e-16 0)
(1.4 -9.70207e-17 0)
(1.4 2.91771e-16 0)
(1.4 3.83092e-16 0)
(1.4 2.84629e-16 0)
(1.4 1.53145e-16 0)
(1.4 -1.5968e-16 0)
(1.4 -2.3529e-16 0)
(1.4 -6.24424e-17 0)
(1.4 2.21122e-17 0)
(1.4 2.21706e-16 0)
(1.4 5.71259e-16 0)
(1.4 6.63825e-16 0)
(1.4 9.07691e-16 0)
(1.4 1.22054e-15 0)
(1.4 1.29532e-15 0)
(1.4 1.25029e-15 0)
(1.4 1.34527e-15 0)
(1.4 1.60262e-15 0)
(1.4 1.48982e-15 0)
(1.4 1.66584e-15 0)
(1.4 1.78386e-15 0)
(1.4 1.97803e-15 0)
(1.4 2.12489e-15 0)
(1.4 2.10621e-15 0)
(1.4 2.19263e-15 0)
(1.4 2.28168e-15 0)
(1.4 2.16929e-15 0)
(1.4 1.82283e-15 0)
(1.4 1.5511e-15 0)
(1.4 1.42471e-15 0)
(1.4 1.22368e-15 0)
(1.4 2.63749e-17 0)
(1.4 -8.6401e-18 0)
(1.4 -9.32241e-18 0)
(1.4 -1.03642e-17 0)
(1.4 -4.61361e-17 0)
(1.4 -2.88893e-17 0)
(1.4 -8.4826e-17 0)
(1.4 -6.10833e-17 0)
(1.4 -1.03626e-16 0)
(1.4 -1.07722e-16 0)
(1.4 -2.23043e-16 0)
(1.4 -4.14118e-16 0)
(1.4 -4.99051e-16 0)
(1.4 -5.88425e-16 0)
(1.4 -5.76821e-16 0)
(1.4 -5.6079e-16 0)
(1.4 -5.19335e-16 0)
(1.4 -5.2713e-16 0)
(1.4 -5.96124e-16 0)
(1.4 -6.6253e-16 0)
(1.4 -7.41713e-16 0)
(1.4 -6.40424e-16 0)
(1.4 -5.26783e-16 0)
(1.4 -3.09766e-16 0)
(1.4 -1.73256e-16 0)
(1.4 -3.0695e-17 0)
(1.4 7.59811e-17 0)
(1.4 1.18963e-16 0)
(1.4 2.0842e-16 0)
(1.4 2.84789e-16 0)
(1.4 2.40297e-16 0)
(1.4 5.45841e-16 0)
(1.4 6.50516e-16 0)
(1.4 7.24821e-16 0)
(1.4 7.48397e-16 0)
(1.4 7.68228e-16 0)
(1.4 7.87984e-16 0)
(1.4 5.22083e-16 0)
(1.4 1.60527e-16 0)
(1.4 6.48316e-17 0)
(1.4 1.14179e-16 0)
(1.4 2.13118e-16 0)
(1.4 1.50906e-16 0)
(1.4 9.6456e-17 0)
(1.4 -1.03804e-16 0)
(1.4 -8.17277e-17 0)
(1.4 -8.75526e-17 0)
(1.4 -2.60022e-16 0)
(1.4 -3.85462e-16 0)
(1.4 -5.72685e-16 0)
(1.4 -7.15974e-16 0)
(1.4 -7.36335e-16 0)
(1.4 -8.25385e-16 0)
(1.4 -9.50529e-16 0)
(1.4 -9.49301e-16 0)
(1.4 -9.44418e-16 0)
(1.4 -9.70742e-16 0)
(1.4 -1.07687e-15 0)
(1.4 -1.14532e-15 0)
(1.4 -1.1233e-15 0)
(1.4 -1.10226e-15 0)
(1.4 -1.1432e-15 0)
(1.4 -1.14747e-15 0)
(1.4 -1.12588e-15 0)
(1.4 -9.35258e-16 0)
(1.4 -7.97676e-16 0)
(1.4 -6.68038e-16 0)
(1.4 -5.59142e-16 0)
(1.4 -3.94026e-16 0)
(1.4 -2.25376e-16 0)
(1.4 -2.56746e-16 0)
(1.4 -3.52711e-16 0)
(1.4 -6.3125e-16 0)
(1.4 -8.10329e-16 0)
(1.4 -9.73297e-16 0)
(1.4 -1.06346e-15 0)
(1.4 -6.5583e-16 0)
(1.4 -4.67358e-16 0)
(1.4 -4.42867e-16 0)
(1.4 -1.45092e-16 0)
(1.4 5.58023e-17 0)
(1.4 5.42404e-17 0)
(1.4 1.19192e-16 0)
(1.4 -8.2159e-18 0)
(1.4 -2.29165e-16 0)
(1.4 -5.17467e-16 0)
(1.4 -1.07511e-15 0)
(1.4 -1.86017e-15 0)
(1.4 -2.01884e-15 0)
(1.4 -2.04522e-15 0)
(1.4 -2.01805e-15 0)
(1.4 -1.81528e-15 0)
(1.4 -1.89798e-15 0)
(1.4 -1.95983e-15 0)
(1.4 -1.88351e-15 0)
(1.4 -1.86615e-15 0)
(1.4 -1.76608e-15 0)
(1.4 -1.82549e-15 0)
(1.4 -1.95024e-15 0)
(1.4 -1.67369e-15 0)
(1.4 -1.09039e-15 0)
(1.4 -8.59896e-16 0)
(1.4 -7.17704e-16 0)
(1.4 -5.06917e-16 0)
(1.4 -3.80772e-16 0)
(1.4 -2.23363e-16 0)
(1.4 -1.76e-16 0)
(1.4 -8.96618e-17 0)
(1.4 -4.41803e-17 0)
(1.4 -2.65761e-17 0)
(1.4 -4.39258e-17 0)
(1.4 -4.82367e-18 0)
(1.4 3.74718e-16 0)
(1.4 5.33121e-16 0)
(1.4 8.3935e-16 0)
(1.4 8.88058e-16 0)
(1.4 9.43352e-16 0)
(1.4 1.00284e-15 0)
(1.4 1.03516e-15 0)
(1.4 9.59048e-16 0)
(1.4 1.03894e-15 0)
(1.4 1.02406e-15 0)
(1.4 1.03004e-15 0)
(1.4 1.17371e-15 0)
(1.4 1.2644e-15 0)
(1.4 1.40021e-15 0)
(1.4 1.44148e-15 0)
(1.4 1.45448e-15 0)
(1.4 1.36616e-15 0)
(1.4 9.47507e-16 0)
(1.4 6.96842e-16 0)
(1.4 3.45451e-16 0)
(1.4 -1.90326e-17 0)
(1.4 -6.63544e-18 0)
(1.4 5.18171e-17 0)
(1.4 4.02799e-17 0)
(1.4 1.41615e-17 0)
(1.4 3.69135e-17 0)
(1.4 -9.20707e-19 0)
(1.4 -7.96066e-17 0)
(1.4 -8.90366e-17 0)
(1.4 -9.6849e-17 0)
(1.4 1.62224e-17 0)
(1.4 7.39885e-17 0)
(1.4 7.16457e-17 0)
(1.4 4.66898e-17 0)
(1.4 4.98653e-17 0)
(1.4 9.78866e-17 0)
(1.4 6.74903e-17 0)
(1.4 -1.17913e-17 0)
(1.4 -1.41762e-16 0)
(1.4 -3.85524e-16 0)
(1.4 -4.72859e-16 0)
(1.4 -4.84938e-16 0)
(1.4 -4.65178e-16 0)
(1.4 -5.13859e-16 0)
(1.4 -6.43449e-16 0)
(1.4 -7.12652e-16 0)
(1.4 -7.27206e-16 0)
(1.4 -7.45634e-16 0)
(1.4 -8.38382e-16 0)
(1.4 -9.01775e-16 0)
(1.4 -8.99556e-16 0)
(1.4 -8.42228e-16 0)
(1.4 -7.39627e-16 0)
(1.4 -7.52421e-16 0)
(1.4 -7.5802e-16 0)
(1.4 -6.9384e-16 0)
(1.4 -7.07692e-16 0)
(1.4 -8.39395e-16 0)
(1.4 -6.15618e-16 0)
(1.4 -5.2655e-16 0)
(1.4 -6.02106e-16 0)
(1.4 -5.99317e-16 0)
(1.4 -5.7389e-16 0)
(1.4 -5.27487e-16 0)
(1.4 -5.09317e-16 0)
(1.4 -5.4996e-16 0)
(1.4 -5.94991e-16 0)
(1.4 -6.27788e-16 0)
(1.4 -5.68728e-16 0)
(1.4 -6.96958e-16 0)
(1.4 -7.31251e-16 0)
(1.4 -7.43742e-16 0)
(1.4 -7.50427e-16 0)
(1.4 -7.40688e-16 0)
(1.4 -6.66153e-16 0)
(1.4 -5.26118e-16 0)
(1.4 -3.62239e-16 0)
(1.4 -3.26917e-16 0)
(1.4 -1.91231e-16 0)
(1.4 -9.97333e-17 0)
(1.4 1.82603e-16 0)
(1.4 2.68632e-16 0)
(1.4 8.46008e-17 0)
(1.4 -3.04776e-16 0)
(1.4 -3.98664e-16 0)
(1.4 -3.2375e-16 0)
(1.4 -1.67921e-16 0)
(1.4 -2.22225e-16 0)
(1.4 -3.49103e-16 0)
(1.4 -3.6926e-16 0)
(1.4 -6.33411e-16 0)
(1.4 -1.27185e-15 0)
(1.4 -1.78065e-15 0)
(1.4 -1.83108e-15 0)
(1.4 -1.87496e-15 0)
(1.4 -1.75051e-15 0)
(1.4 -1.52627e-15 0)
(1.4 -1.62024e-15 0)
(1.4 -1.38592e-15 0)
(1.4 -1.19959e-15 0)
(1.4 -8.37075e-16 0)
(1.4 -7.56031e-16 0)
(1.4 -1.18198e-15 0)
(1.4 -1.20452e-15 0)
(1.4 -1.05863e-15 0)
(1.4 -8.8814e-16 0)
(1.4 -5.91267e-16 0)
(1.4 -5.59638e-16 0)
(1.4 -5.06567e-16 0)
(1.4 -3.64466e-16 0)
(1.4 -1.32838e-16 0)
(1.4 -2.5352e-16 0)
(1.4 -3.31178e-16 0)
(1.4 -2.95977e-16 0)
(1.4 -5.36278e-16 0)
(1.4 -7.32166e-16 0)
(1.4 -1.04935e-15 0)
(1.4 -1.25412e-15 0)
(1.4 -1.37581e-15 0)
(1.4 -1.39438e-15 0)
(1.4 -1.10747e-15 0)
(1.4 -1.01825e-15 0)
(1.4 -9.72708e-16 0)
(1.4 -9.80264e-16 0)
(1.4 -9.61663e-16 0)
(1.4 -6.30295e-16 0)
(1.4 -3.33454e-16 0)
(1.4 -1.88882e-16 0)
(1.4 -1.98108e-16 0)
(1.4 -2.27548e-16 0)
(1.4 -2.49541e-16 0)
(1.4 -2.05813e-16 0)
(1.4 3.57508e-17 0)
(1.4 1.67151e-16 0)
(1.4 7.85785e-16 0)
(1.4 1.26344e-15 0)
(1.4 1.42138e-15 0)
(1.4 1.29101e-15 0)
(1.4 1.20121e-15 0)
(1.4 1.27248e-15 0)
(1.4 1.31493e-15 0)
(1.4 1.33728e-15 0)
(1.4 1.35675e-15 0)
(1.4 1.48808e-15 0)
(1.4 1.57407e-15 0)
(1.4 1.60001e-15 0)
(1.4 1.7035e-15 0)
(1.4 1.60954e-15 0)
(1.4 1.62278e-15 0)
(1.4 1.16764e-15 0)
(1.4 3.86169e-16 0)
(1.4 -9.03806e-17 0)
(1.4 4.5386e-17 0)
(1.4 4.83264e-17 0)
(1.4 5.31701e-17 0)
(1.4 4.33055e-17 0)
(1.4 7.10665e-17 0)
(1.4 3.1477e-17 0)
(1.4 8.64159e-17 0)
(1.4 2.28383e-16 0)
(1.4 3.93537e-16 0)
(1.4 4.28809e-16 0)
(1.4 6.11012e-16 0)
(1.4 9.12282e-16 0)
(1.4 1.08396e-15 0)
(1.4 1.19216e-15 0)
(1.4 1.21652e-15 0)
(1.4 1.04661e-15 0)
(1.4 8.921e-16 0)
(1.4 6.74294e-16 0)
(1.4 6.65201e-16 0)
(1.4 7.16803e-16 0)
(1.4 7.68481e-16 0)
(1.4 6.36296e-16 0)
(1.4 3.7849e-16 0)
(1.4 -5.22402e-17 0)
(1.4 -4.94682e-16 0)
(1.4 -6.64747e-16 0)
(1.4 -6.26097e-16 0)
(1.4 -5.98226e-16 0)
(1.4 -6.28903e-16 0)
(1.4 -5.2925e-16 0)
(1.4 -5.29244e-16 0)
(1.4 -7.83411e-16 0)
(1.4 -9.08134e-16 0)
(1.4 -8.62299e-16 0)
(1.4 -8.44038e-16 0)
(1.4 -9.48136e-16 0)
(1.4 -1.02754e-15 0)
(1.4 -9.58168e-16 0)
(1.4 -8.73889e-16 0)
(1.4 -8.31074e-16 0)
(1.4 -4.61034e-16 0)
(1.4 -3.05691e-16 0)
(1.4 -4.27576e-17 0)
(1.4 -1.82368e-17 0)
(1.4 -2.97308e-17 0)
(1.4 -1.57504e-16 0)
(1.4 -1.82753e-16 0)
(1.4 -2.00264e-16 0)
(1.4 9.47637e-18 0)
(1.4 3.46741e-16 0)
(1.4 5.45718e-16 0)
(1.4 8.70551e-16 0)
(1.4 9.37081e-16 0)
(1.4 9.44979e-16 0)
(1.4 7.99738e-16 0)
(1.4 6.9744e-16 0)
(1.4 5.9765e-16 0)
(1.4 6.75536e-16 0)
(1.4 7.99812e-16 0)
(1.4 7.9517e-16 0)
(1.4 7.30771e-16 0)
(1.4 8.83434e-16 0)
(1.4 7.80045e-16 0)
(1.4 5.20515e-16 0)
(1.4 2.94692e-16 0)
(1.4 1.1046e-16 0)
(1.4 3.19721e-17 0)
(1.4 -1.82165e-16 0)
(1.4 -5.15664e-16 0)
(1.4 -1.2522e-15 0)
(1.4 -1.82893e-15 0)
(1.4 -2.25031e-15 0)
(1.4 -2.30886e-15 0)
(1.4 -2.21055e-15 0)
(1.4 -1.93573e-15 0)
(1.4 -1.73839e-15 0)
(1.4 -2.27697e-15 0)
(1.4 -2.55287e-15 0)
(1.4 -2.50181e-15 0)
(1.4 -2.58154e-15 0)
(1.4 -2.83105e-15 0)
(1.4 -2.91871e-15 0)
(1.4 -2.97731e-15 0)
(1.4 -2.94969e-15 0)
(1.4 -2.82285e-15 0)
(1.4 -2.31387e-15 0)
(1.4 -1.97646e-15 0)
(1.4 -1.79223e-15 0)
(1.4 -1.34801e-15 0)
(1.4 -1.15317e-15 0)
(1.4 -1.28506e-15 0)
(1.4 -1.33832e-15 0)
(1.4 -1.34475e-15 0)
(1.4 -1.33113e-15 0)
(1.4 -1.0846e-15 0)
(1.4 -9.5548e-16 0)
(1.4 -8.65536e-16 0)
(1.4 -7.77761e-16 0)
(1.4 -6.38103e-16 0)
(1.4 -5.5118e-16 0)
(1.4 -5.8334e-16 0)
(1.4 -5.83798e-16 0)
(1.4 -6.32823e-16 0)
(1.4 -7.35403e-16 0)
(1.4 -7.36006e-16 0)
(1.4 -6.76932e-16 0)
(1.4 -6.1022e-16 0)
(1.4 -5.69442e-16 0)
(1.4 -6.03666e-16 0)
(1.4 -6.68333e-16 0)
(1.4 -5.62455e-16 0)
(1.4 -3.16036e-16 0)
(1.4 -6.19925e-17 0)
(1.4 1.10564e-17 0)
(1.4 4.23026e-17 0)
(1.4 1.77164e-16 0)
(1.4 4.65396e-16 0)
(1.4 7.39701e-16 0)
(1.4 1.22272e-15 0)
(1.4 1.96855e-15 0)
(1.4 2.39902e-15 0)
(1.4 2.2692e-15 0)
(1.4 2.16554e-15 0)
(1.4 1.91348e-15 0)
(1.4 1.51746e-15 0)
(1.4 1.1893e-15 0)
(1.4 8.37001e-16 0)
(1.4 6.30896e-16 0)
(1.4 5.32515e-16 0)
(1.4 4.58562e-16 0)
(1.4 2.1506e-16 0)
(1.4 -3.52054e-18 0)
(1.4 3.54081e-18 0)
(1.4 1.32517e-17 0)
(1.4 -4.57497e-17 0)
(1.4 -2.04428e-17 0)
(1.4 -1.39703e-17 0)
(1.4 -1.09503e-17 0)
(1.4 -5.97312e-17 0)
(1.4 -4.83965e-17 0)
(1.4 1.6496e-17 0)
(1.4 1.04941e-17 0)
(1.4 7.87951e-18 0)
(1.4 -1.28894e-16 0)
(1.4 -1.31888e-17 0)
(1.4 8.68729e-17 0)
(1.4 6.05373e-17 0)
(1.4 -2.94297e-17 0)
(1.4 5.4316e-17 0)
(1.4 2.56362e-16 0)
(1.4 3.33798e-16 0)
(1.4 4.79319e-16 0)
(1.4 5.36016e-16 0)
(1.4 4.16651e-16 0)
(1.4 3.24062e-16 0)
(1.4 3.33415e-17 0)
(1.4 -1.99078e-16 0)
(1.4 -2.58348e-16 0)
(1.4 -3.57059e-16 0)
(1.4 -3.23458e-16 0)
(1.4 -3.01634e-16 0)
(1.4 -3.45746e-16 0)
(1.4 -2.96655e-16 0)
(1.4 -3.22522e-16 0)
(1.4 -4.6673e-16 0)
(1.4 -4.11913e-16 0)
(1.4 -4.19643e-16 0)
(1.4 -4.29063e-16 0)
(1.4 -3.16433e-16 0)
(1.4 -3.20602e-16 0)
(1.4 -5.06616e-16 0)
(1.4 -7.4525e-16 0)
(1.4 -7.05184e-16 0)
(1.4 -7.2702e-16 0)
(1.4 -7.07477e-16 0)
(1.4 -6.83452e-16 0)
(1.4 -5.93215e-16 0)
(1.4 -5.14099e-16 0)
(1.4 1.90674e-17 0)
(1.4 3.81124e-16 0)
(1.4 9.16455e-16 0)
(1.4 1.49272e-15 0)
(1.4 1.49678e-15 0)
(1.4 1.60725e-15 0)
(1.4 1.80721e-15 0)
(1.4 1.56107e-15 0)
(1.4 1.5116e-15 0)
(1.4 1.11204e-15 0)
(1.4 7.16881e-16 0)
(1.4 7.46379e-16 0)
(1.4 7.91533e-16 0)
(1.4 7.67936e-16 0)
(1.4 5.48033e-16 0)
(1.4 2.14113e-16 0)
(1.4 -5.82801e-17 0)
(1.4 -3.12838e-16 0)
(1.4 -5.59451e-16 0)
(1.4 -9.91451e-16 0)
(1.4 -1.22103e-15 0)
(1.4 -1.85381e-15 0)
(1.4 -2.25383e-15 0)
(1.4 -2.45771e-15 0)
(1.4 -2.44217e-15 0)
(1.4 -2.39818e-15 0)
(1.4 -2.33588e-15 0)
(1.4 -2.37688e-15 0)
(1.4 -2.33411e-15 0)
(1.4 -2.57338e-15 0)
(1.4 -2.6508e-15 0)
(1.4 -2.75946e-15 0)
(1.4 -3.1727e-15 0)
(1.4 -3.46133e-15 0)
(1.4 -3.64965e-15 0)
(1.4 -3.57458e-15 0)
(1.4 -3.27135e-15 0)
(1.4 -2.9586e-15 0)
(1.4 -2.89813e-15 0)
(1.4 -2.49214e-15 0)
(1.4 -2.23797e-15 0)
(1.4 -1.7384e-15 0)
(1.4 -1.41786e-15 0)
(1.4 -1.31003e-15 0)
(1.4 -1.32971e-15 0)
(1.4 -1.09505e-15 0)
(1.4 -9.67472e-16 0)
(1.4 -9.87732e-16 0)
(1.4 -7.37049e-16 0)
(1.4 -6.62496e-16 0)
(1.4 -5.47926e-16 0)
(1.4 -4.18801e-16 0)
(1.4 -2.91722e-16 0)
(1.4 -1.9916e-16 0)
(1.4 -3.8885e-16 0)
(1.4 -5.69319e-16 0)
(1.4 -7.73063e-16 0)
(1.4 -8.18323e-16 0)
(1.4 -9.18241e-16 0)
(1.4 -1.06355e-15 0)
(1.4 -1.21986e-15 0)
(1.4 -1.48561e-15 0)
(1.4 -1.71459e-15 0)
(1.4 -1.79558e-15 0)
(1.4 -2.1246e-15 0)
(1.4 -1.97446e-15 0)
(1.4 -1.96977e-15 0)
(1.4 -1.74002e-15 0)
(1.4 -1.64738e-15 0)
(1.4 -1.58083e-15 0)
(1.4 -1.48496e-15 0)
(1.4 -1.34919e-15 0)
(1.4 -1.02249e-15 0)
(1.4 -8.01699e-16 0)
(1.4 -5.75018e-16 0)
(1.4 -4.16986e-16 0)
(1.4 -3.01767e-16 0)
(1.4 -3.81157e-17 0)
(1.4 2.83144e-16 0)
(1.4 4.87146e-16 0)
(1.4 5.70669e-16 0)
(1.4 5.99051e-16 0)
(1.4 4.28667e-16 0)
(1.4 3.49099e-16 0)
(1.4 3.19371e-16 0)
(1.4 2.75412e-16 0)
(1.4 -1.97933e-17 0)
(1.4 -7.32178e-17 0)
(1.4 -1.28385e-16 0)
(1.4 -1.20561e-16 0)
(1.4 -1.01102e-16 0)
(1.4 -9.46958e-17 0)
(1.4 -9.67064e-17 0)
(1.4 -1.25286e-16 0)
(1.4 -1.62926e-16 0)
(1.4 -3.18518e-16 0)
(1.4 -4.44266e-16 0)
(1.4 -4.60623e-16 0)
(1.4 -3.12817e-16 0)
(1.4 -3.41571e-16 0)
(1.4 -3.11916e-16 0)
(1.4 -2.7056e-16 0)
(1.4 -1.85041e-16 0)
(1.4 2.45825e-16 0)
(1.4 4.11831e-16 0)
(1.4 4.34063e-16 0)
(1.4 5.30623e-16 0)
(1.4 5.89091e-16 0)
(1.4 7.26686e-16 0)
(1.4 8.11048e-16 0)
(1.4 7.86037e-16 0)
(1.4 5.87137e-16 0)
(1.4 5.42359e-16 0)
(1.4 4.9798e-16 0)
(1.4 2.08399e-16 0)
(1.4 1.64645e-17 0)
(1.4 2.13594e-16 0)
(1.4 5.60167e-16 0)
(1.4 5.57831e-16 0)
(1.4 4.11986e-16 0)
(1.4 2.68955e-16 0)
(1.4 2.97131e-16 0)
(1.4 3.84504e-16 0)
(1.4 6.07258e-16 0)
(1.4 7.03853e-16 0)
(1.4 9.24575e-16 0)
(1.4 9.96349e-16 0)
(1.4 1.04795e-15 0)
(1.4 1.12141e-15 0)
(1.4 1.16134e-15 0)
(1.4 1.22435e-15 0)
(1.4 1.13527e-15 0)
(1.4 1.3056e-15 0)
(1.4 1.41169e-15 0)
(1.4 1.5371e-15 0)
(1.4 1.46344e-15 0)
(1.4 1.35813e-15 0)
(1.4 1.29248e-15 0)
(1.4 1.37781e-15 0)
(1.4 1.46222e-15 0)
(1.4 1.15585e-15 0)
(1.4 1.14001e-15 0)
(1.4 1.12556e-15 0)
(1.4 9.75156e-16 0)
(1.4 4.53279e-16 0)
(1.4 4.35583e-17 0)
(1.4 -4.58356e-16 0)
(1.4 -1.01778e-15 0)
(1.4 -1.45143e-15 0)
(1.4 -1.85729e-15 0)
(1.4 -2.1871e-15 0)
(1.4 -2.8731e-15 0)
(1.4 -3.17151e-15 0)
(1.4 -3.68156e-15 0)
(1.4 -3.70785e-15 0)
(1.4 -3.54178e-15 0)
(1.4 -3.56553e-15 0)
(1.4 -3.39842e-15 0)
(1.4 -3.29191e-15 0)
(1.4 -3.36666e-15 0)
(1.4 -3.4833e-15 0)
(1.4 -3.49259e-15 0)
(1.4 -3.36169e-15 0)
(1.4 -3.25347e-15 0)
(1.4 -3.41875e-15 0)
(1.4 -3.16236e-15 0)
(1.4 -3.0645e-15 0)
(1.4 -2.44367e-15 0)
(1.4 -2.02651e-15 0)
(1.4 -1.5523e-15 0)
(1.4 -1.21285e-15 0)
(1.4 -8.44156e-16 0)
(1.4 -3.668e-16 0)
(1.4 -1.19503e-16 0)
(1.4 1.97723e-17 0)
(1.4 1.30288e-17 0)
(1.4 -2.59586e-17 0)
(1.4 -6.92532e-17 0)
(1.4 -7.52861e-17 0)
(1.4 -1.35726e-16 0)
(1.4 -1.76569e-16 0)
(1.4 -2.2972e-16 0)
(1.4 -1.57537e-16 0)
(1.4 -3.99733e-17 0)
(1.4 1.50013e-17 0)
(1.4 -5.88508e-17 0)
(1.4 -2.04969e-16 0)
(1.4 -3.51873e-16 0)
(1.4 -3.47638e-16 0)
(1.4 -6.22067e-16 0)
(1.4 -9.23026e-16 0)
(1.4 -1.55692e-15 0)
(1.4 -2.13315e-15 0)
(1.4 -2.61325e-15 0)
(1.4 -2.69657e-15 0)
(1.4 -2.8555e-15 0)
(1.4 -2.94807e-15 0)
(1.4 -2.92535e-15 0)
(1.4 -3.13057e-15 0)
(1.4 -3.16576e-15 0)
(1.4 -3.21713e-15 0)