/*--------------------------------*- C++ -*----------------------------------*\
  =========                 |
  \\      /  F ield         | OpenFOAM: The Open Source CFD Toolbox
   \\    /   O peration     | Website:  https://openfoam.org
    \\  /    A nd           | Version:  7
     \\/     M anipulation  |
\*---------------------------------------------------------------------------*/
FoamFile
{
    version     2.0;
    format      ascii;
    class       volVectorField;
    location    "12";
    object      U;
}
// * * * * * * * * * * * * * * * * * * * * * * * * * * * * * * * * * * * * * //

dimensions      [0 1 -1 0 0 0 0];

internalField   nonuniform List<vector> 
2413
(
(2 -1.16509e-15 0)
(2 -1.28644e-15 0)
(2 -1.53119e-15 0)
(2 -1.57144e-15 0)
(2 -1.55067e-15 0)
(2 -1.13734e-15 0)
(2 -8.17907e-16 0)
(2 -8.44285e-16 0)
(2 -9.74206e-16 0)
(2 -8.34846e-16 0)
(2 -5.19673e-16 0)
(2 -8.92665e-17 0)
(2 -2.03074e-16 0)
(2 -4.92523e-17 0)
(2 1.07928e-16 0)
(2 1.61355e-16 0)
(2 3.0342e-16 0)
(2 9.04549e-16 0)
(2 1.58435e-15 0)
(2 1.73054e-15 0)
(2 9.22253e-16 0)
(2 -4.56869e-16 0)
(2 -6.76328e-16 0)
(2 -7.0815e-16 0)
(2 -6.21666e-16 0)
(2 -9.63651e-16 0)
(2 -1.09326e-15 0)
(2 -1.07202e-15 0)
(2 -1.01314e-15 0)
(2 -1.04487e-15 0)
(2 -1.41414e-15 0)
(2 -1.45043e-15 0)
(2 -5.48341e-16 0)
(2 -3.7073e-16 0)
(2 2.85604e-16 0)
(2 4.94454e-16 0)
(2 5.82103e-16 0)
(2 5.60906e-16 0)
(2 6.25516e-16 0)
(2 8.66507e-16 0)
(2 7.63048e-16 0)
(2 6.42399e-16 0)
(2 9.0087e-16 0)
(2 1.46407e-15 0)
(2 1.58249e-15 0)
(2 1.66202e-15 0)
(2 1.58112e-15 0)
(2 1.44732e-15 0)
(2 1.44444e-15 0)
(2 1.09293e-15 0)
(2 1.3213e-16 0)
(2 -7.00896e-16 0)
(2 -6.66347e-16 0)
(2 -5.6153e-16 0)
(2 -1.72163e-17 0)
(2 -1.32387e-17 0)
(2 -1.12356e-19 0)
(2 -3.39432e-17 0)
(2 7.08461e-18 0)
(2 4.25657e-17 0)
(2 3.36568e-17 0)
(2 2.66922e-17 0)
(2 -3.97142e-17 0)
(2 -3.54158e-16 0)
(2 -3.56437e-16 0)
(2 -3.73396e-16 0)
(2 -3.69949e-16 0)
(2 -3.78642e-16 0)
(2 -3.58461e-16 0)
(2 -4.06045e-16 0)
(2 -4.972e-16 0)
(2 -6.51814e-16 0)
(2 -6.7952e-16 0)
(2 -6.68879e-16 0)
(2 -5.258e-16 0)
(2 -3.66547e-16 0)
(2 -2.98781e-16 0)
(2 -3.37512e-16 0)
(2 -4.16653e-16 0)
(2 -4.37778e-16 0)
(2 -4.79693e-16 0)
(2 -4.00129e-16 0)
(2 -3.05278e-16 0)
(2 -3.27625e-16 0)
(2 -7.88896e-17 0)
(2 1.38857e-16 0)
(2 3.11714e-16 0)
(2 6.36104e-16 0)
(2 6.92138e-16 0)
(2 6.74268e-16 0)
(2 6.27523e-16 0)
(2 7.3165e-16 0)
(2 9.14089e-16 0)
(2 9.65352e-16 0)
(2 7.30456e-16 0)
(2 4.97337e-16 0)
(2 2.40099e-16 0)
(2 -2.3849e-17 0)
(2 -2.42384e-16 0)
(2 -5.9413e-16 0)
(2 -7.59044e-16 0)
(2 -1.06284e-15 0)
(2 -1.2556e-15 0)
(2 -1.22108e-15 0)
(2 -1.07832e-15 0)
(2 -9.63702e-16 0)
(2 -6.53372e-16 0)
(2 -5.64386e-16 0)
(2 -2.13452e-16 0)
(2 9.34475e-17 0)
(2 2.74913e-16 0)
(2 1.69066e-16 0)
(2 3.61388e-16 0)
(2 5.43527e-16 0)
(2 9.3556e-16 0)
(2 1.59468e-15 0)
(2 1.79902e-15 0)
(2 2.04935e-15 0)
(2 1.69192e-15 0)
(2 1.51169e-15 0)
(2 1.31925e-15 0)
(2 1.1375e-15 0)
(2 9.05326e-16 0)
(2 1.04114e-15 0)
(2 1.04935e-15 0)
(2 1.03113e-15 0)
(2 1.29363e-15 0)
(2 1.50783e-15 0)
(2 1.47818e-15 0)
(2 1.36507e-15 0)
(2 1.87146e-15 0)
(2 2.481e-15 0)
(2 2.64752e-15 0)
(2 2.60458e-15 0)
(2 2.5923e-15 0)
(2 2.55946e-15 0)
(2 2.7326e-15 0)
(2 2.91423e-15 0)
(2 3.26262e-15 0)
(2 2.96395e-15 0)
(2 2.9613e-15 0)
(2 3.1462e-15 0)
(2 2.67431e-15 0)
(2 2.43452e-15 0)
(2 2.12868e-15 0)
(2 1.98404e-15 0)
(2 1.79063e-15 0)
(2 1.61926e-15 0)
(2 1.41713e-15 0)
(2 1.23995e-15 0)
(2 5.24085e-16 0)
(2 2.28431e-16 0)
(2 1.29312e-16 0)
(2 1.91007e-16 0)
(2 1.7244e-16 0)
(2 4.07676e-16 0)
(2 -2.62866e-16 0)
(2 -9.72614e-16 0)
(2 -1.39479e-15 0)
(2 -1.41041e-15 0)
(2 -1.35392e-15 0)
(2 -1.39177e-15 0)
(2 -8.43664e-16 0)
(2 -6.36387e-16 0)
(2 -5.76929e-16 0)
(2 -6.49438e-16 0)
(2 -1.15189e-16 0)
(2 4.14534e-16 0)
(2 9.91996e-16 0)
(2 1.49949e-15 0)
(2 1.78429e-15 0)
(2 2.32465e-15 0)
(2 2.6597e-15 0)
(2 2.8973e-15 0)
(2 2.70625e-15 0)
(2 1.86074e-15 0)
(2 1.52296e-15 0)
(2 1.43645e-15 0)
(2 1.22048e-15 0)
(2 1.29874e-15 0)
(2 1.41148e-15 0)
(2 1.34837e-15 0)
(2 1.03269e-15 0)
(2 6.5156e-16 0)
(2 -3.1662e-16 0)
(2 -6.46332e-16 0)
(2 2.38567e-17 0)
(2 4.92731e-17 0)
(2 2.04224e-17 0)
(2 2.28719e-17 0)
(2 -4.75438e-17 0)
(2 -3.84437e-17 0)
(2 4.00916e-17 0)
(2 1.66669e-16 0)
(2 2.75729e-16 0)
(2 3.2166e-16 0)
(2 6.53047e-17 0)
(2 -7.97434e-17 0)
(2 -4.4122e-16 0)
(2 -3.91027e-16 0)
(2 -3.39849e-16 0)
(2 -2.86613e-16 0)
(2 -3.13724e-16 0)
(2 -5.08615e-16 0)
(2 -5.0689e-16 0)
(2 -4.50679e-16 0)
(2 -3.12541e-16 0)
(2 -2.92106e-16 0)
(2 -2.71209e-16 0)
(2 -2.40357e-16 0)
(2 -2.16487e-16 0)
(2 5.20802e-17 0)
(2 2.06009e-16 0)
(2 3.83176e-16 0)
(2 4.83882e-16 0)
(2 5.1618e-16 0)
(2 6.66667e-16 0)
(2 8.30238e-16 0)
(2 1.2275e-15 0)
(2 1.48623e-15 0)
(2 1.71165e-15 0)
(2 1.78387e-15 0)
(2 1.66494e-15 0)
(2 1.52476e-15 0)
(2 1.26777e-15 0)
(2 8.19941e-16 0)
(2 4.42119e-16 0)
(2 1.54618e-16 0)
(2 -1.86922e-16 0)
(2 -1.76564e-16 0)
(2 -5.38656e-17 0)
(2 1.7198e-16 0)
(2 1.11612e-16 0)
(2 -5.66735e-17 0)
(2 -9.97986e-16 0)
(2 -1.4405e-15 0)
(2 -1.72951e-15 0)
(2 -1.68826e-15 0)
(2 -1.64685e-15 0)
(2 -1.79571e-15 0)
(2 -1.16364e-15 0)
(2 -6.80534e-16 0)
(2 1.17206e-17 0)
(2 5.43169e-16 0)
(2 8.89805e-16 0)
(2 1.18874e-15 0)
(2 1.7355e-15 0)
(2 2.10758e-15 0)
(2 2.40346e-15 0)
(2 2.55557e-15 0)
(2 2.69307e-15 0)
(2 2.67509e-15 0)
(2 2.6066e-15 0)
(2 2.31721e-15 0)
(2 2.09572e-15 0)
(2 1.68808e-15 0)
(2 1.42675e-15 0)
(2 1.40693e-15 0)
(2 1.55947e-15 0)
(2 1.78581e-15 0)
(2 1.86561e-15 0)
(2 2.00175e-15 0)
(2 2.40875e-15 0)
(2 2.79532e-15 0)
(2 3.11248e-15 0)
(2 3.1931e-15 0)
(2 3.1797e-15 0)
(2 3.14082e-15 0)
(2 3.43391e-15 0)
(2 4.10944e-15 0)
(2 4.58806e-15 0)
(2 4.71123e-15 0)
(2 4.6029e-15 0)
(2 4.23502e-15 0)
(2 4.01173e-15 0)
(2 3.68863e-15 0)
(2 3.58963e-15 0)
(2 3.05414e-15 0)
(2 2.5154e-15 0)
(2 2.34994e-15 0)
(2 2.09559e-15 0)
(2 2.06027e-15 0)
(2 1.75946e-15 0)
(2 1.68781e-15 0)
(2 1.67123e-15 0)
(2 1.63061e-15 0)
(2 1.84423e-15 0)
(2 1.96029e-15 0)
(2 2.2251e-15 0)
(2 1.71363e-15 0)
(2 5.90479e-16 0)
(2 1.30595e-16 0)
(2 -3.88109e-18 0)
(2 4.9857e-17 0)
(2 1.10334e-16 0)
(2 2.56358e-17 0)
(2 -3.83372e-16 0)
(2 -2.78376e-16 0)
(2 -6.13342e-17 0)
(2 9.90111e-17 0)
(2 4.8276e-16 0)
(2 7.81914e-16 0)
(2 1.38978e-15 0)
(2 1.86082e-15 0)
(2 2.21874e-15 0)
(2 2.50626e-15 0)
(2 2.53093e-15 0)
(2 2.26002e-15 0)
(2 1.973e-15 0)
(2 1.8625e-15 0)
(2 1.07449e-15 0)
(2 4.59946e-16 0)
(2 -1.52558e-16 0)
(2 -4.98037e-16 0)
(2 -6.09423e-16 0)
(2 -7.26809e-16 0)
(2 -1.02041e-15 0)
(2 -1.23126e-15 0)
(2 1.88817e-17 0)
(2 -4.65533e-17 0)
(2 -7.2891e-17 0)
(2 -7.08109e-17 0)
(2 5.88313e-17 0)
(2 1.02698e-16 0)
(2 1.49451e-16 0)
(2 1.36253e-16 0)
(2 2.11907e-16 0)
(2 1.68357e-16 0)
(2 1.05675e-16 0)
(2 1.54497e-17 0)
(2 -1.87254e-18 0)
(2 -5.14028e-17 0)
(2 -5.15507e-17 0)
(2 -3.23174e-16 0)
(2 -2.97097e-16 0)
(2 -2.07496e-17 0)
(2 -3.60748e-17 0)
(2 1.0296e-17 0)
(2 3.90865e-17 0)
(2 4.6738e-17 0)
(2 -4.41326e-17 0)
(2 1.94208e-16 0)
(2 3.92972e-16 0)
(2 5.02742e-16 0)
(2 5.94525e-16 0)
(2 5.83294e-16 0)
(2 4.16939e-16 0)
(2 3.76259e-16 0)
(2 3.15933e-16 0)
(2 3.33391e-16 0)
(2 3.93411e-16 0)
(2 4.67106e-16 0)
(2 4.26152e-16 0)
(2 5.52436e-16 0)
(2 7.45778e-16 0)
(2 6.73371e-16 0)
(2 4.13263e-16 0)
(2 2.57766e-16 0)
(2 1.83062e-16 0)
(2 -2.36536e-17 0)
(2 -4.30317e-17 0)
(2 -1.17026e-17 0)
(2 4.96453e-17 0)
(2 1.01595e-16 0)
(2 7.37805e-17 0)
(2 8.67437e-17 0)
(2 -7.46086e-16 0)
(2 -1.08898e-15 0)
(2 -1.20258e-15 0)
(2 -1.14078e-15 0)
(2 -2.20486e-15 0)
(2 -2.30986e-15 0)
(2 -1.78906e-15 0)
(2 -1.66881e-15 0)
(2 -1.53763e-15 0)
(2 -1.04108e-15 0)
(2 -2.98731e-16 0)
(2 5.11818e-16 0)
(2 7.88844e-16 0)
(2 9.93701e-16 0)
(2 9.86028e-16 0)
(2 8.87458e-16 0)
(2 1.13469e-15 0)
(2 1.22244e-15 0)
(2 1.32668e-15 0)
(2 1.3689e-15 0)
(2 1.21575e-15 0)
(2 9.72111e-16 0)
(2 8.02557e-16 0)
(2 5.37209e-16 0)
(2 3.38712e-16 0)
(2 2.8094e-17 0)
(2 -1.28717e-16 0)
(2 7.14352e-17 0)
(2 6.53892e-17 0)
(2 1.97568e-17 0)
(2 3.88506e-17 0)
(2 -3.05028e-18 0)
(2 4.85067e-16 0)
(2 1.04709e-15 0)
(2 1.3217e-15 0)
(2 1.7089e-15 0)
(2 2.10123e-15 0)
(2 2.96362e-15 0)
(2 3.51429e-15 0)
(2 3.75995e-15 0)
(2 3.92963e-15 0)
(2 3.92323e-15 0)
(2 3.9705e-15 0)
(2 3.66994e-15 0)
(2 3.31912e-15 0)
(2 3.14978e-15 0)
(2 2.91897e-15 0)
(2 2.5769e-15 0)
(2 2.53498e-15 0)
(2 2.53893e-15 0)
(2 2.40086e-15 0)
(2 1.90093e-15 0)
(2 1.80694e-15 0)
(2 1.80661e-15 0)
(2 1.67159e-15 0)
(2 1.39518e-15 0)
(2 1.05036e-15 0)
(2 8.41015e-16 0)
(2 6.90876e-16 0)
(2 4.6658e-16 0)
(2 3.03028e-16 0)
(2 3.02399e-16 0)
(2 3.0151e-16 0)
(2 3.59669e-16 0)
(2 4.28955e-16 0)
(2 3.99115e-16 0)
(2 2.15792e-16 0)
(2 3.70486e-17 0)
(2 5.28802e-17 0)
(2 1.77624e-16 0)
(2 4.68469e-16 0)
(2 4.47223e-16 0)
(2 6.10873e-16 0)
(2 8.03494e-16 0)
(2 7.29282e-16 0)
(2 6.10538e-16 0)
(2 5.99077e-16 0)
(2 6.46541e-16 0)
(2 6.73502e-16 0)
(2 6.91481e-16 0)
(2 8.27383e-16 0)
(2 2.93577e-16 0)
(2 -2.44698e-16 0)
(2 -8.13828e-16 0)
(2 7.42787e-18 0)
(2 1.94256e-17 0)
(2 4.35198e-17 0)
(2 1.39499e-17 0)
(2 3.52043e-17 0)
(2 3.26496e-17 0)
(2 8.59194e-18 0)
(2 -5.32795e-18 0)
(2 -6.85367e-17 0)
(2 -1.37228e-16 0)
(2 -1.03082e-16 0)
(2 -9.31239e-17 0)
(2 2.2147e-16 0)
(2 4.96299e-16 0)
(2 6.47581e-16 0)
(2 6.87106e-16 0)
(2 7.43724e-16 0)
(2 8.77648e-16 0)
(2 9.41598e-16 0)
(2 9.36715e-16 0)
(2 9.1477e-16 0)
(2 9.35652e-16 0)
(2 9.22995e-16 0)
(2 8.88333e-16 0)
(2 8.604e-16 0)
(2 8.48931e-16 0)
(2 8.20044e-16 0)
(2 6.94748e-16 0)
(2 6.24041e-16 0)
(2 3.96651e-16 0)
(2 1.42858e-16 0)
(2 2.54904e-16 0)
(2 -4.49351e-17 0)
(2 -5.73628e-16 0)
(2 -1.3344e-15 0)
(2 -1.66576e-15 0)
(2 -1.8997e-15 0)
(2 -2.15007e-15 0)
(2 -2.18205e-15 0)
(2 -2.03752e-15 0)
(2 -1.80074e-15 0)
(2 -1.63838e-15 0)
(2 -1.36153e-15 0)
(2 -7.61587e-16 0)
(2 -7.13941e-16 0)
(2 -7.97855e-16 0)
(2 -8.45878e-16 0)
(2 -8.73409e-16 0)
(2 -3.69479e-16 0)
(2 -8.35265e-17 0)
(2 5.30215e-16 0)
(2 -1.21254e-16 0)
(2 -9.3257e-16 0)
(2 -1.17613e-15 0)
(2 -1.23677e-15 0)
(2 -1.70402e-15 0)
(2 -1.79463e-15 0)
(2 -1.71764e-15 0)
(2 -1.60846e-15 0)
(2 -1.18154e-15 0)
(2 -1.12474e-15 0)
(2 -1.17478e-15 0)
(2 -1.20219e-15 0)
(2 -1.23276e-15 0)
(2 -1.55784e-15 0)
(2 -1.93148e-15 0)
(2 -1.92023e-15 0)
(2 -1.72455e-15 0)
(2 -1.50073e-15 0)
(2 -1.29898e-15 0)
(2 -9.58347e-16 0)
(2 -7.84665e-16 0)
(2 -4.20018e-16 0)
(2 -5.28615e-16 0)
(2 -8.4386e-16 0)
(2 -1.51791e-15 0)
(2 -1.7332e-15 0)
(2 -1.93101e-15 0)
(2 -1.85566e-15 0)
(2 -1.70842e-15 0)
(2 -1.56587e-15 0)
(2 -1.61445e-15 0)
(2 -1.43509e-15 0)
(2 -1.14332e-15 0)
(2 -9.45275e-17 0)
(2 2.83988e-16 0)
(2 1.04348e-15 0)
(2 1.72091e-15 0)
(2 1.80289e-15 0)
(2 1.96273e-15 0)
(2 2.57423e-15 0)
(2 3.29451e-15 0)
(2 3.27042e-15 0)
(2 3.24841e-15 0)
(2 3.23609e-15 0)
(2 2.6807e-15 0)
(2 2.40817e-15 0)
(2 2.18553e-15 0)
(2 2.62386e-15 0)
(2 3.0645e-15 0)
(2 3.27658e-15 0)
(2 3.27146e-15 0)
(2 3.1972e-15 0)
(2 2.75119e-15 0)
(2 1.91766e-15 0)
(2 1.77343e-15 0)
(2 1.78052e-15 0)
(2 1.71149e-15 0)
(2 1.64103e-15 0)
(2 1.60949e-15 0)
(2 1.68214e-15 0)
(2 1.80514e-15 0)
(2 1.86085e-15 0)
(2 1.89022e-15 0)
(2 1.78913e-15 0)
(2 1.6306e-15 0)
(2 1.47418e-15 0)
(2 1.38751e-15 0)
(2 1.25595e-15 0)
(2 1.11005e-15 0)
(2 8.86109e-16 0)
(2 3.86488e-16 0)
(2 2.26729e-16 0)
(2 1.607e-16 0)
(2 2.69658e-16 0)
(2 2.20046e-16 0)
(2 6.67567e-16 0)
(2 8.77368e-16 0)
(2 8.41862e-16 0)
(2 7.04044e-16 0)
(2 4.87941e-16 0)
(2 5.85857e-16 0)
(2 -1.47391e-17 0)
(2 3.22882e-17 0)
(2 4.0034e-17 0)
(2 5.93341e-17 0)
(2 2.81985e-17 0)
(2 -9.92651e-17 0)
(2 -1.35708e-16 0)
(2 -1.36073e-16 0)
(2 -4.56024e-17 0)
(2 1.97659e-16 0)
(2 5.90183e-16 0)
(2 7.31963e-16 0)
(2 7.97584e-16 0)
(2 8.18071e-16 0)
(2 7.50861e-16 0)
(2 7.3057e-16 0)
(2 7.9402e-16 0)
(2 8.18186e-16 0)
(2 8.83156e-16 0)
(2 9.57299e-16 0)
(2 1.11054e-15 0)
(2 1.04983e-15 0)
(2 8.5427e-16 0)
(2 5.11767e-16 0)
(2 2.87168e-16 0)
(2 3.15712e-18 0)
(2 -1.33907e-16 0)
(2 -1.7404e-16 0)
(2 -1.25945e-16 0)
(2 -5.55132e-17 0)
(2 -1.71518e-16 0)
(2 -3.62694e-16 0)
(2 -4.79716e-16 0)
(2 -5.06554e-16 0)
(2 -7.61304e-16 0)
(2 -8.52966e-16 0)
(2 -1.08953e-15 0)
(2 -1.34772e-15 0)
(2 -1.21965e-15 0)
(2 -1.08345e-15 0)
(2 -8.65394e-16 0)
(2 -4.63546e-16 0)
(2 -4.79426e-17 0)
(2 1.89533e-16 0)
(2 5.03274e-16 0)
(2 5.2139e-16 0)
(2 5.52799e-16 0)
(2 4.24888e-16 0)
(2 3.02267e-16 0)
(2 2.38426e-16 0)
(2 -5.68223e-17 0)
(2 -1.39653e-16 0)
(2 -6.15883e-17 0)
(2 -8.24707e-17 0)
(2 -2.99139e-16 0)
(2 -6.42056e-16 0)
(2 -8.75776e-16 0)
(2 -1.11574e-15 0)
(2 -1.22608e-15 0)
(2 -1.24419e-15 0)
(2 -1.29925e-15 0)
(2 -1.49716e-15 0)
(2 -1.73903e-15 0)
(2 -1.92612e-15 0)
(2 -2.30708e-15 0)
(2 -2.38211e-15 0)
(2 -2.29927e-15 0)
(2 -1.81225e-15 0)
(2 -1.66719e-15 0)
(2 -1.42641e-15 0)
(2 -8.08469e-16 0)
(2 1.18418e-17 0)
(2 7.37013e-16 0)
(2 8.38991e-16 0)
(2 3.1227e-17 0)
(2 -1.81864e-16 0)
(2 -2.37826e-16 0)
(2 -6.2801e-16 0)
(2 -9.12236e-16 0)
(2 -8.91823e-16 0)
(2 -7.8666e-16 0)
(2 -5.99123e-16 0)
(2 -5.61108e-16 0)
(2 -6.41327e-16 0)
(2 -7.76711e-16 0)
(2 -7.06716e-16 0)
(2 -5.23609e-16 0)
(2 -4.26061e-16 0)
(2 -2.15307e-16 0)
(2 8.97936e-17 0)
(2 6.22187e-16 0)
(2 1.26134e-15 0)
(2 1.63411e-15 0)
(2 1.7044e-15 0)
(2 1.6753e-15 0)
(2 1.59643e-15 0)
(2 1.54802e-15 0)
(2 1.41545e-15 0)
(2 1.19646e-15 0)
(2 1.03252e-15 0)
(2 1.30204e-15 0)
(2 1.66353e-15 0)
(2 2.41578e-15 0)
(2 2.7341e-15 0)
(2 3.1741e-15 0)
(2 3.34811e-15 0)
(2 3.37073e-15 0)
(2 3.36484e-15 0)
(2 3.26529e-15 0)
(2 3.11602e-15 0)
(2 2.95068e-15 0)
(2 2.96726e-15 0)
(2 2.94815e-15 0)
(2 2.78756e-15 0)
(2 2.73249e-15 0)
(2 2.65242e-15 0)
(2 2.49693e-15 0)
(2 2.18547e-15 0)
(2 1.78487e-15 0)
(2 1.48169e-15 0)
(2 1.56411e-15 0)
(2 1.41201e-15 0)
(2 1.0467e-15 0)
(2 2.64485e-16 0)
(2 7.52413e-17 0)
(2 -6.11101e-16 0)
(2 -1.02013e-15 0)
(2 -1.06686e-15 0)
(2 -1.03554e-15 0)
(2 -9.90585e-16 0)
(2 -4.57577e-16 0)
(2 4.69618e-17 0)
(2 -2.28232e-18 0)
(2 -4.232e-17 0)
(2 -5.86103e-17 0)
(2 5.15202e-18 0)
(2 6.05779e-18 0)
(2 5.85908e-17 0)
(2 1.36237e-16 0)
(2 1.51206e-16 0)
(2 2.63941e-16 0)
(2 2.75422e-16 0)
(2 3.33325e-16 0)
(2 3.87648e-16 0)
(2 4.05485e-16 0)
(2 3.50223e-16 0)
(2 3.09296e-16 0)
(2 2.90384e-16 0)
(2 3.41642e-16 0)
(2 3.24762e-16 0)
(2 2.78329e-16 0)
(2 1.99492e-16 0)
(2 1.58056e-16 0)
(2 1.61696e-16 0)
(2 1.44977e-16 0)
(2 8.38471e-17 0)
(2 1.91301e-17 0)
(2 -7.28952e-17 0)
(2 -2.23436e-16 0)
(2 -2.96415e-16 0)
(2 -6.01115e-16 0)
(2 -7.36868e-16 0)
(2 -8.83255e-16 0)
(2 -1.00441e-15 0)
(2 -9.10377e-16 0)
(2 -8.36874e-16 0)
(2 -5.59411e-16 0)
(2 -4.63648e-16 0)
(2 -3.54059e-16 0)
(2 -1.89958e-16 0)
(2 6.84442e-17 0)
(2 2.97719e-16 0)
(2 5.40746e-16 0)
(2 5.09634e-16 0)
(2 2.92314e-16 0)
(2 3.74051e-16 0)
(2 7.91904e-16 0)
(2 1.27784e-15 0)
(2 1.35483e-15 0)
(2 1.38493e-15 0)
(2 1.01818e-15 0)
(2 9.37422e-16 0)
(2 1.06168e-15 0)
(2 3.1014e-16 0)
(2 -4.88379e-17 0)
(2 -4.49609e-16 0)
(2 -3.87911e-16 0)
(2 -2.59265e-16 0)
(2 -3.99537e-17 0)
(2 -4.18608e-17 0)
(2 1.85239e-17 0)
(2 3.32574e-17 0)
(2 -1.96246e-17 0)
(2 2.10627e-17 0)
(2 1.5523e-16 0)
(2 6.04001e-16 0)
(2 7.35208e-16 0)
(2 7.40899e-16 0)
(2 5.62679e-16 0)
(2 3.50757e-16 0)
(2 2.98023e-16 0)
(2 5.6425e-17 0)
(2 -1.71465e-17 0)
(2 -4.92677e-16 0)
(2 -5.93046e-17 0)
(2 1.52674e-17 0)
(2 1.68938e-16 0)
(2 3.22252e-16 0)
(2 2.75347e-16 0)
(2 4.86184e-17 0)
(2 -2.42713e-17 0)
(2 -3.28303e-18 0)
(2 1.87832e-16 0)
(2 -3.18346e-16 0)
(2 -4.95536e-16 0)
(2 -3.2728e-16 0)
(2 -2.13241e-16 0)
(2 -3.77698e-16 0)
(2 -5.3331e-16 0)
(2 -7.03964e-16 0)
(2 -8.17057e-16 0)
(2 -2.79049e-16 0)
(2 1.67912e-16 0)
(2 2.65582e-16 0)
(2 3.99511e-16 0)
(2 3.8406e-16 0)
(2 3.03319e-16 0)
(2 3.81011e-16 0)
(2 6.11188e-16 0)
(2 5.92798e-16 0)
(2 5.41062e-16 0)
(2 5.54423e-16 0)
(2 6.2878e-16 0)
(2 6.55924e-16 0)
(2 4.36212e-16 0)
(2 1.80403e-15 0)
(2 2.49289e-15 0)
(2 2.68276e-15 0)
(2 2.66903e-15 0)
(2 2.55664e-15 0)
(2 2.25845e-15 0)
(2 2.07894e-15 0)
(2 1.79181e-15 0)
(2 1.70553e-15 0)
(2 1.60991e-15 0)
(2 1.27298e-15 0)
(2 9.01104e-16 0)
(2 8.30074e-16 0)
(2 7.66171e-16 0)
(2 5.96295e-17 0)
(2 -5.06852e-16 0)
(2 -4.70956e-16 0)
(2 -1.30745e-16 0)
(2 1.4777e-16 0)
(2 1.59601e-16 0)
(2 -2.03278e-16 0)
(2 -5.80782e-16 0)
(2 -8.06047e-16 0)
(2 -1.07653e-15 0)
(2 -1.16819e-15 0)
(2 -8.67882e-16 0)
(2 -7.48312e-16 0)
(2 -1.06336e-16 0)
(2 7.27378e-17 0)
(2 3.43395e-18 0)
(2 2.78534e-18 0)
(2 4.31407e-17 0)
(2 4.65936e-17 0)
(2 1.37489e-16 0)
(2 1.39797e-16 0)
(2 3.03919e-16 0)
(2 3.327e-16 0)
(2 3.31296e-16 0)
(2 2.17998e-16 0)
(2 1.71175e-16 0)
(2 1.23384e-16 0)
(2 2.42919e-16 0)
(2 4.0768e-16 0)
(2 5.31537e-16 0)
(2 5.60775e-16 0)
(2 5.1421e-16 0)
(2 4.88588e-16 0)
(2 2.70406e-16 0)
(2 1.74001e-16 0)
(2 -1.00205e-16 0)
(2 -5.12228e-16 0)
(2 -5.60079e-16 0)
(2 -4.90052e-16 0)
(2 -4.0157e-16 0)
(2 -2.94899e-16 0)
(2 -2.47592e-16 0)
(2 -2.52295e-16 0)
(2 -2.99459e-16 0)
(2 -3.24224e-16 0)
(2 -4.67629e-16 0)
(2 -4.44467e-16 0)
(2 -4.77102e-16 0)
(2 -4.7623e-16 0)
(2 -2.2113e-16 0)
(2 -9.56985e-17 0)
(2 1.80146e-16 0)
(2 4.02616e-16 0)
(2 5.84934e-16 0)
(2 4.64261e-16 0)
(2 3.86607e-16 0)
(2 -2.01223e-16 0)
(2 -9.00003e-16 0)
(2 -1.26803e-15 0)
(2 -1.62759e-15 0)
(2 -1.54315e-15 0)
(2 -1.42438e-15 0)
(2 -1.39861e-15 0)
(2 -8.09856e-16 0)
(2 -7.57734e-16 0)
(2 -7.874e-16 0)
(2 -8.48974e-16 0)
(2 -1.63573e-15 0)
(2 -1.79814e-15 0)
(2 -1.14092e-15 0)
(2 -5.56705e-16 0)
(2 -3.86787e-16 0)
(2 -2.66049e-16 0)
(2 -4.10711e-17 0)
(2 1.7391e-16 0)
(2 3.40364e-16 0)
(2 5.80785e-16 0)
(2 4.64335e-16 0)
(2 1.63902e-16 0)
(2 -7.04102e-17 0)
(2 -1.22338e-16 0)
(2 -1.95742e-16 0)
(2 -2.98994e-16 0)
(2 -4.62464e-16 0)
(2 -9.2189e-16 0)
(2 -8.64258e-16 0)
(2 -5.95841e-16 0)
(2 -4.69405e-17 0)
(2 -8.24183e-17 0)
(2 2.33492e-16 0)
(2 5.05266e-16 0)
(2 4.63916e-16 0)
(2 3.02218e-16 0)
(2 3.2554e-16 0)
(2 3.16137e-16 0)
(2 1.58542e-16 0)
(2 -1.9955e-16 0)
(2 1.37347e-17 0)
(2 2.54087e-16 0)
(2 -1.4216e-16 0)
(2 -1.1306e-15 0)
(2 -1.53009e-15 0)
(2 -1.39233e-15 0)
(2 -9.96579e-16 0)
(2 -1.20535e-15 0)
(2 -1.20955e-15 0)
(2 -9.43314e-16 0)
(2 -5.63537e-16 0)
(2 3.67079e-16 0)
(2 7.66312e-16 0)
(2 1.17819e-15 0)
(2 1.45813e-15 0)
(2 1.86513e-15 0)
(2 2.10928e-15 0)
(2 2.21475e-15 0)
(2 2.24314e-15 0)
(2 1.74953e-15 0)
(2 1.51355e-15 0)
(2 1.36858e-15 0)
(2 1.33265e-15 0)
(2 1.42267e-15 0)
(2 1.47889e-15 0)
(2 1.44985e-15 0)
(2 1.40271e-15 0)
(2 1.23834e-15 0)
(2 9.06822e-16 0)
(2 6.82096e-16 0)
(2 4.92252e-16 0)
(2 4.64919e-16 0)
(2 5.04398e-16 0)
(2 4.10084e-16 0)
(2 3.86153e-16 0)
(2 6.11656e-16 0)
(2 9.45883e-16 0)
(2 9.49442e-16 0)
(2 9.0269e-16 0)
(2 1.02321e-15 0)
(2 1.16804e-15 0)
(2 1.26632e-15 0)
(2 1.226e-15 0)
(2 1.07151e-15 0)
(2 9.99292e-16 0)
(2 9.2043e-16 0)
(2 9.53028e-16 0)
(2 1.19858e-15 0)
(2 1.29325e-15 0)
(2 1.35235e-15 0)
(2 -2.5772e-17 0)
(2 -2.02461e-17 0)
(2 -4.33111e-17 0)
(2 -9.88998e-17 0)
(2 -9.70855e-17 0)
(2 -1.43193e-16 0)
(2 -2.37506e-16 0)
(2 -3.44474e-16 0)
(2 -3.64441e-16 0)
(2 -4.12156e-16 0)
(2 -5.36913e-16 0)
(2 -8.05617e-16 0)
(2 -8.44797e-16 0)
(2 -1.17075e-15 0)
(2 -1.20201e-15 0)
(2 -1.31042e-15 0)
(2 -1.41818e-15 0)
(2 -1.44443e-15 0)
(2 -1.4838e-15 0)
(2 -1.63721e-15 0)
(2 -1.85584e-15 0)
(2 -1.97722e-15 0)
(2 -2.16166e-15 0)
(2 -1.88033e-15 0)
(2 -1.89177e-15 0)
(2 -2.02553e-15 0)
(2 -2.03545e-15 0)
(2 -1.6284e-15 0)
(2 -1.19657e-15 0)
(2 -1.10949e-15 0)
(2 -1.1162e-15 0)
(2 -1.04636e-15 0)
(2 -1.03902e-15 0)
(2 -1.02513e-15 0)
(2 -1.06525e-15 0)
(2 -9.73359e-16 0)
(2 -8.81628e-16 0)
(2 -8.55669e-16 0)
(2 -8.16369e-16 0)
(2 -7.64858e-16 0)
(2 -6.20139e-16 0)
(2 -7.29155e-16 0)
(2 -1.316e-15 0)
(2 -1.9051e-15 0)
(2 -2.29797e-15 0)
(2 -2.06161e-15 0)
(2 -1.56158e-15 0)
(2 -1.05433e-15 0)
(2 -7.44299e-16 0)
(2 -5.33776e-16 0)
(2 8.86198e-17 0)
(2 3.52892e-16 0)
(2 3.60179e-16 0)
(2 5.19881e-16 0)
(2 4.60098e-16 0)
(2 1.34915e-16 0)
(2 -1.20964e-16 0)
(2 -1.90699e-16 0)
(2 -1.38419e-16 0)
(2 -6.82292e-17 0)
(2 -8.39238e-17 0)
(2 -5.77746e-17 0)
(2 -7.33649e-17 0)
(2 -4.02581e-17 0)
(2 -1.04424e-16 0)
(2 -1.34332e-16 0)
(2 -4.95388e-17 0)
(2 2.37567e-16 0)
(2 4.17342e-16 0)
(2 1.17852e-15 0)
(2 1.31288e-15 0)
(2 1.28366e-15 0)
(2 1.18094e-15 0)
(2 1.12394e-15 0)
(2 1.21247e-15 0)
(2 1.35876e-15 0)
(2 1.50435e-15 0)
(2 1.5868e-15 0)
(2 1.57143e-15 0)
(2 1.98056e-15 0)
(2 2.22614e-15 0)
(2 2.42773e-15 0)
(2 2.63971e-15 0)
(2 2.59935e-15 0)
(2 2.4019e-15 0)
(2 1.50766e-15 0)
(2 6.05399e-16 0)
(2 4.74562e-17 0)
(2 -2.47152e-16 0)
(2 -3.27583e-16 0)
(2 -3.78249e-16 0)
(2 -4.01156e-16 0)
(2 -4.91367e-16 0)
(2 -1.04591e-15 0)
(2 -1.45563e-15 0)
(2 -1.31697e-15 0)
(2 -1.10277e-15 0)
(2 -7.32268e-16 0)
(2 -3.60123e-16 0)
(2 -9.06433e-17 0)
(2 2.43843e-16 0)
(2 6.4454e-16 0)
(2 7.85836e-16 0)
(2 7.26834e-16 0)
(2 7.34524e-16 0)
(2 9.39977e-16 0)
(2 1.01327e-15 0)
(2 9.9273e-16 0)
(2 1.06299e-15 0)
(2 1.02955e-15 0)
(2 7.87395e-16 0)
(2 2.64875e-16 0)
(2 -3.76461e-16 0)
(2 -7.37975e-16 0)
(2 -6.94142e-16 0)
(2 -7.60203e-16 0)
(2 -8.15476e-16 0)
(2 -3.7097e-16 0)
(2 -1.22514e-17 0)
(2 4.85336e-16 0)
(2 9.80372e-16 0)
(2 1.18897e-15 0)
(2 1.29846e-15 0)
(2 1.37481e-15 0)
(2 1.82972e-15 0)
(2 2.24823e-15 0)
(2 2.42504e-15 0)
(2 2.53009e-15 0)
(2 2.62496e-15 0)
(2 2.07107e-15 0)
(2 1.78612e-15 0)
(2 1.50952e-15 0)
(2 2.38978e-17 0)
(2 4.50797e-17 0)
(2 -3.59762e-18 0)
(2 -4.83636e-17 0)
(2 -1.11589e-16 0)
(2 -3.31407e-16 0)
(2 -4.07596e-16 0)
(2 -5.08472e-16 0)
(2 -5.61525e-16 0)
(2 -6.71631e-16 0)
(2 -6.59143e-16 0)
(2 -8.41588e-16 0)
(2 -1.04259e-15 0)
(2 -1.30889e-15 0)
(2 -1.21077e-15 0)
(2 -1.33295e-15 0)
(2 -1.36558e-15 0)
(2 -1.40166e-15 0)
(2 -1.75372e-15 0)
(2 -2.0122e-15 0)
(2 -2.05519e-15 0)
(2 -1.92726e-15 0)
(2 -1.71816e-15 0)
(2 -1.3965e-15 0)
(2 -1.32814e-15 0)
(2 -1.35355e-15 0)
(2 -1.36937e-15 0)
(2 -1.37454e-15 0)
(2 -1.40168e-15 0)
(2 -1.42952e-15 0)
(2 -1.45531e-15 0)
(2 -1.28283e-15 0)
(2 -9.78025e-16 0)
(2 -9.24332e-16 0)
(2 -9.28861e-16 0)
(2 -9.12717e-16 0)
(2 -8.69375e-16 0)
(2 -8.71668e-16 0)
(2 -9.81085e-16 0)
(2 -9.28425e-16 0)
(2 -7.97395e-16 0)
(2 -5.9363e-16 0)
(2 -3.71721e-16 0)
(2 7.69363e-16 0)
(2 1.00599e-15 0)
(2 8.20472e-16 0)
(2 1.28888e-15 0)
(2 1.58925e-15 0)
(2 1.85747e-15 0)
(2 1.98858e-15 0)
(2 1.96986e-15 0)
(2 1.84087e-15 0)
(2 1.72174e-15 0)
(2 1.71898e-15 0)
(2 1.24249e-15 0)
(2 4.75447e-16 0)
(2 7.12946e-17 0)
(2 6.97405e-17 0)
(2 -2.92611e-17 0)
(2 -5.82372e-16 0)
(2 -6.91697e-16 0)
(2 -6.63308e-16 0)
(2 -5.60161e-16 0)
(2 -2.56758e-16 0)
(2 4.98511e-17 0)
(2 2.14897e-16 0)
(2 2.80911e-16 0)
(2 5.58386e-16 0)
(2 6.56138e-16 0)
(2 6.90804e-16 0)
(2 7.05857e-16 0)
(2 6.18602e-16 0)
(2 4.66659e-16 0)
(2 9.77669e-16 0)
(2 1.21308e-15 0)
(2 1.10611e-15 0)
(2 1.02532e-15 0)
(2 1.03492e-15 0)
(2 1.20962e-15 0)
(2 1.32613e-15 0)
(2 1.32927e-15 0)
(2 1.18257e-15 0)
(2 1.08975e-15 0)
(2 1.09753e-15 0)
(2 1.03262e-15 0)
(2 7.7473e-16 0)
(2 6.58079e-16 0)
(2 6.53713e-16 0)
(2 5.16995e-16 0)
(2 4.75949e-16 0)
(2 4.90065e-16 0)
(2 8.7324e-16 0)
(2 6.97779e-16 0)
(2 -5.4026e-16 0)
(2 -7.62923e-16 0)
(2 -8.21292e-16 0)
(2 -8.22994e-16 0)
(2 -9.68072e-16 0)
(2 -1.13631e-15 0)
(2 -1.13919e-15 0)
(2 -9.93847e-16 0)
(2 -9.74783e-16 0)
(2 -6.4088e-16 0)
(2 -4.55474e-16 0)
(2 -3.20147e-16 0)
(2 -2.47913e-16 0)
(2 -2.32259e-16 0)
(2 -2.08945e-16 0)
(2 -2.00643e-16 0)
(2 -4.7885e-17 0)
(2 -7.07013e-17 0)
(2 -7.00896e-16 0)
(2 -1.13117e-15 0)
(2 -1.6294e-15 0)
(2 -2.07556e-15 0)
(2 -2.19341e-15 0)
(2 -2.13801e-15 0)
(2 -2.14948e-15 0)
(2 -1.70859e-15 0)
(2 -1.63803e-15 0)
(2 -1.4179e-15 0)
(2 -1.50759e-15 0)
(2 -9.8907e-16 0)
(2 -3.40257e-16 0)
(2 2.94776e-16 0)
(2 6.84941e-16 0)
(2 7.49141e-16 0)
(2 7.61149e-16 0)
(2 7.44603e-16 0)
(2 5.42876e-16 0)
(2 4.37087e-16 0)
(2 5.11744e-16 0)
(2 7.11526e-17 0)
(2 1.08456e-16 0)
(2 1.15649e-16 0)
(2 1.09155e-16 0)
(2 1.71561e-16 0)
(2 2.01021e-16 0)
(2 2.45799e-16 0)
(2 4.17056e-16 0)
(2 4.59956e-16 0)
(2 6.34473e-16 0)
(2 7.1721e-16 0)
(2 9.28627e-16 0)
(2 1.117e-15 0)
(2 1.02952e-15 0)
(2 8.77444e-16 0)
(2 6.66854e-16 0)
(2 5.50156e-16 0)
(2 4.26266e-16 0)
(2 3.07025e-16 0)
(2 2.09065e-16 0)
(2 1.85607e-16 0)
(2 -7.92889e-18 0)
(2 -1.44872e-16 0)
(2 -2.13635e-16 0)
(2 3.67079e-18 0)
(2 1.5484e-16 0)
(2 2.04004e-16 0)
(2 2.05742e-16 0)
(2 2.81434e-16 0)
(2 8.13979e-16 0)
(2 8.34438e-16 0)
(2 1.05552e-15 0)
(2 1.31931e-15 0)
(2 1.40487e-15 0)
(2 1.48335e-15 0)
(2 1.39779e-15 0)
(2 1.43663e-15 0)
(2 1.48973e-15 0)
(2 1.51247e-15 0)
(2 1.51241e-15 0)
(2 1.41971e-15 0)
(2 1.59832e-15 0)
(2 2.68575e-15 0)
(2 2.88983e-15 0)
(2 2.80826e-15 0)
(2 2.56707e-15 0)
(2 2.225e-15 0)
(2 1.87064e-15 0)
(2 1.79185e-15 0)
(2 1.84193e-15 0)
(2 1.94399e-15 0)
(2 2.05647e-15 0)
(2 2.39835e-15 0)
(2 2.52953e-15 0)
(2 2.5823e-15 0)
(2 2.61056e-15 0)
(2 2.66928e-15 0)
(2 2.27772e-15 0)
(2 1.45343e-15 0)
(2 1.01231e-15 0)
(2 1.09245e-15 0)
(2 1.04452e-15 0)
(2 1.01411e-15 0)
(2 6.04859e-16 0)
(2 1.06983e-16 0)
(2 7.06751e-17 0)
(2 -2.42711e-17 0)
(2 -2.07665e-16 0)
(2 -2.92064e-16 0)
(2 -3.26877e-16 0)
(2 -3.15189e-16 0)
(2 -2.8956e-16 0)
(2 -2.27024e-16 0)
(2 -1.47145e-16 0)
(2 -9.93395e-17 0)
(2 -3.00905e-16 0)
(2 -3.00978e-16 0)
(2 -2.64604e-16 0)
(2 -1.40759e-16 0)
(2 -2.97498e-16 0)
(2 -5.34079e-16 0)
(2 -9.01928e-16 0)
(2 -1.07938e-15 0)
(2 -1.07411e-15 0)
(2 -9.89955e-16 0)
(2 -6.88833e-16 0)
(2 -4.67954e-16 0)
(2 -3.29985e-16 0)
(2 -3.41762e-16 0)
(2 -3.70034e-16 0)
(2 -5.34144e-16 0)
(2 -5.75786e-16 0)
(2 -4.82271e-16 0)
(2 -1.057e-17 0)
(2 3.55829e-16 0)
(2 5.17316e-16 0)
(2 2.79058e-16 0)
(2 -1.93408e-16 0)
(2 -5.4697e-16 0)
(2 -7.56984e-16 0)
(2 -4.56287e-16 0)
(2 -5.80903e-16 0)
(2 -6.69384e-16 0)
(2 -9.44956e-16 0)
(2 -1.07788e-15 0)
(2 -1.14511e-15 0)
(2 -1.19339e-15 0)
(2 -1.11353e-15 0)
(2 -1.05125e-15 0)
(2 -1.11857e-15 0)
(2 -4.95038e-16 0)
(2 4.8543e-16 0)
(2 1.09175e-15 0)
(2 1.12138e-15 0)
(2 1.12072e-15 0)
(2 1.33818e-15 0)
(2 1.4206e-15 0)
(2 6.1259e-16 0)
(2 3.35805e-16 0)
(2 2.17637e-16 0)
(2 -5.19344e-17 0)
(2 -2.70739e-16 0)
(2 -1.90741e-17 0)
(2 3.01599e-16 0)
(2 4.57781e-16 0)
(2 6.41968e-16 0)
(2 8.1601e-16 0)
(2 9.93344e-16 0)
(2 6.78612e-16 0)
(2 4.92864e-16 0)
(2 1.14802e-16 0)
(2 -7.9638e-17 0)
(2 -4.33231e-17 0)
(2 -7.67566e-17 0)
(2 -4.31625e-17 0)
(2 1.88896e-17 0)
(2 8.60381e-17 0)
(2 2.1228e-16 0)
(2 1.80776e-16 0)
(2 2.26091e-16 0)
(2 3.62411e-16 0)
(2 4.66005e-16 0)
(2 5.3021e-16 0)
(2 6.30436e-16 0)
(2 6.77633e-16 0)
(2 7.49144e-16 0)
(2 8.53238e-16 0)
(2 7.51517e-16 0)
(2 6.80408e-16 0)
(2 6.62153e-16 0)
(2 8.01692e-16 0)
(2 1.1048e-15 0)
(2 1.04488e-15 0)
(2 9.81216e-16 0)
(2 9.059e-16 0)
(2 5.83824e-16 0)
(2 4.27293e-16 0)
(2 5.99648e-16 0)
(2 7.94477e-16 0)
(2 1.00414e-15 0)
(2 1.40381e-15 0)
(2 1.80193e-15 0)
(2 2.35426e-15 0)
(2 2.43639e-15 0)
(2 2.38091e-15 0)
(2 2.22021e-15 0)
(2 1.93465e-15 0)
(2 1.14569e-15 0)
(2 8.11266e-16 0)
(2 3.17818e-16 0)
(2 1.33558e-16 0)
(2 1.85816e-16 0)
(2 2.34007e-16 0)
(2 2.80672e-16 0)
(2 4.09722e-16 0)
(2 4.13806e-16 0)
(2 5.59889e-16 0)
(2 6.23837e-16 0)
(2 8.64278e-16 0)
(2 9.98975e-16 0)
(2 1.09819e-15 0)
(2 1.20548e-15 0)
(2 1.5153e-15 0)
(2 2.36156e-15 0)
(2 3.62877e-15 0)
(2 4.2577e-15 0)
(2 4.31954e-15 0)
(2 4.21935e-15 0)
(2 3.91078e-15 0)
(2 3.53737e-15 0)
(2 3.12488e-15 0)
(2 2.93646e-15 0)
(2 2.74232e-15 0)
(2 2.45569e-15 0)
(2 2.31276e-15 0)
(2 2.08834e-15 0)
(2 2.01658e-15 0)
(2 1.91789e-15 0)
(2 1.77319e-15 0)
(2 1.68933e-15 0)
(2 1.37703e-15 0)
(2 1.40518e-15 0)
(2 1.54943e-15 0)
(2 1.24632e-15 0)
(2 7.66506e-16 0)
(2 4.34182e-16 0)
(2 1.1174e-16 0)
(2 -4.63821e-17 0)
(2 -3.90603e-17 0)
(2 2.24942e-17 0)
(2 1.494e-17 0)
(2 6.3166e-17 0)
(2 1.3083e-16 0)
(2 3.78727e-16 0)
(2 5.07188e-16 0)
(2 -7.81378e-17 0)
(2 -9.62154e-17 0)
(2 -9.5012e-17 0)
(2 -2.02591e-16 0)
(2 -6.1198e-16 0)
(2 -8.81963e-16 0)
(2 -1.07717e-15 0)
(2 -1.38456e-15 0)
(2 -1.23445e-15 0)
(2 -9.22973e-16 0)
(2 -7.54175e-16 0)
(2 -2.7319e-16 0)
(2 -2.06477e-16 0)
(2 -1.71846e-16 0)
(2 -1.51621e-16 0)
(2 1.26877e-16 0)
(2 8.21029e-17 0)
(2 -7.5969e-17 0)
(2 7.48561e-18 0)
(2 1.19959e-16 0)
(2 -5.38117e-16 0)
(2 -7.25254e-16 0)
(2 -1.02158e-15 0)
(2 -1.17061e-15 0)
(2 -9.5359e-16 0)
(2 -7.99525e-16 0)
(2 -6.89427e-16 0)
(2 -7.19428e-16 0)
(2 -7.1524e-16 0)
(2 -7.66792e-16 0)
(2 -5.67349e-16 0)
(2 -2.68066e-16 0)
(2 1.48178e-16 0)
(2 9.11957e-17 0)
(2 -2.73503e-16 0)
(2 -3.26827e-16 0)
(2 -3.55925e-16 0)
(2 -4.35018e-16 0)
(2 -3.59505e-16 0)
(2 -1.51211e-16 0)
(2 3.03735e-16 0)
(2 3.60454e-16 0)
(2 3.96628e-16 0)
(2 5.08624e-16 0)
(2 6.57149e-16 0)
(2 6.1496e-16 0)
(2 4.3453e-16 0)
(2 1.87741e-16 0)
(2 -8.05842e-17 0)
(2 -2.21496e-17 0)
(2 -3.24242e-17 0)
(2 -3.05634e-17 0)
(2 -7.11538e-17 0)
(2 -9.10455e-17 0)
(2 -1.44862e-16 0)
(2 -2.4837e-16 0)
(2 -1.95881e-16 0)
(2 -2.18211e-16 0)
(2 -2.37648e-16 0)
(2 -1.87289e-16 0)
(2 -1.28326e-16 0)
(2 -7.22003e-17 0)
(2 2.5705e-17 0)
(2 5.32962e-17 0)
(2 1.56344e-16 0)
(2 2.1122e-16 0)
(2 2.69798e-16 0)
(2 2.25058e-16 0)
(2 1.94025e-16 0)
(2 3.69421e-16 0)
(2 5.18367e-16 0)
(2 4.03307e-16 0)
(2 2.66688e-16 0)
(2 5.17349e-18 0)
(2 -6.69945e-17 0)
(2 -1.32313e-16 0)
(2 -1.01378e-16 0)
(2 -1.02037e-16 0)
(2 -1.43495e-16 0)
(2 -1.47668e-16 0)
(2 -1.77776e-16 0)
(2 -2.41651e-16 0)
(2 -2.25103e-16 0)
(2 -1.41777e-16 0)
(2 -3.9119e-16 0)
(2 -5.99674e-16 0)
(2 -7.22554e-16 0)
(2 -8.85833e-16 0)
(2 -8.29573e-16 0)
(2 -7.18975e-16 0)
(2 -4.26863e-16 0)
(2 -1.13056e-16 0)
(2 1.4507e-16 0)
(2 3.1624e-16 0)
(2 4.06388e-16 0)
(2 3.92949e-16 0)
(2 3.96369e-16 0)
(2 5.2413e-16 0)
(2 7.18195e-16 0)
(2 7.76696e-16 0)
(2 1.32129e-15 0)
(2 1.63437e-15 0)
(2 1.74399e-15 0)
(2 2.15553e-15 0)
(2 2.47195e-15 0)
(2 2.50948e-15 0)
(2 2.50323e-15 0)
(2 2.62434e-15 0)
(2 2.72084e-15 0)
(2 2.81181e-15 0)
(2 2.84313e-15 0)
(2 2.90288e-15 0)
(2 2.95108e-15 0)
(2 3.0799e-15 0)
(2 3.30269e-15 0)
(2 3.82195e-15 0)
(2 3.83964e-15 0)
(2 3.52749e-15 0)
(2 3.23063e-15 0)
(2 3.09032e-15 0)
(2 2.80792e-15 0)
(2 2.13782e-15 0)
(2 2.05942e-15 0)
(2 1.99349e-15 0)
(2 1.79118e-15 0)
(2 1.35929e-15 0)
(2 1.15463e-15 0)
(2 1.28561e-15 0)
(2 1.48725e-15 0)
(2 1.56189e-15 0)
(2 1.5302e-15 0)
(2 1.30452e-15 0)
(2 1.13924e-15 0)
(2 1.15816e-15 0)
(2 6.01404e-16 0)
(2 8.24815e-17 0)
(2 -5.20629e-16 0)
(2 -9.32994e-16 0)
(2 -5.6532e-16 0)
(2 1.22382e-16 0)
(2 6.25602e-16 0)
(2 8.14195e-16 0)
(2 8.85203e-16 0)
(2 8.96736e-16 0)
(2 8.5166e-16 0)