/*--------------------------------*- C++ -*----------------------------------*\
  =========                 |
  \\      /  F ield         | OpenFOAM: The Open Source CFD Toolbox
   \\    /   O peration     | Website:  https://openfoam.org
    \\  /    A nd           | Version:  7
     \\/     M anipulation  |
\*---------------------------------------------------------------------------*/
FoamFile
{
    version     2.0;
    format      ascii;
    class       volScalarField;
    location    "0.036";
    object      p;
}
// * * * * * * * * * * * * * * * * * * * * * * * * * * * * * * * * * * * * * //

dimensions      [0 2 -2 0 0 0 0];

internalField   nonuniform List<scalar> 
12359
(
0.0805669
0.0890941
0.0641349
0.124766
0.0830422
0.176544
0.212126
0.191385
0.261498
0.164872
0.238423
0.319961
0.546821
0.134972
0.120128
0.446776
0.494559
0.068194
0.0678231
0.104261
0.144325
0.289495
0.0964796
0.109368
0.0931154
0.100288
0.0650963
0.0650023
0.067122
0.0655389
0.0659437
0.0646365
0.0642893
0.0653537
0.0641712
0.0661643
0.0732402
0.0787046
0.0822313
0.0753996
0.0872736
0.0766271
0.0707728
0.0700561
0.0665538
0.0668026
0.0663578
0.0658624
0.0674733
0.0652144
0.0648922
0.0647478
0.064486
0.0686037
0.0643849
0.0643154
0.0695247
0.0642631
0.0642463
0.0642313
0.0643377
0.0641409
0.0647941
0.570752
0.0690486
0.153998
0.0729009
0.0647164
0.0736487
0.397203
0.608364
0.0843438
0.0641345
0.0741743
0.113893
0.0641557
0.064433
0.0641396
0.0722952
0.370923
0.144611
0.0598053
0.06334
0.0643007
-0.043461
0.037112
0.0595207
0.0622304
-0.057773
-0.0365582
0.0639514
0.525541
0.0639257
0.0630048
0.0625617
0.0136109
0.0629052
0.0631329
0.0723044
0.0668853
0.122426
0.0640457
0.0377173
-0.110164
0.0590635
0.0192383
0.0631606
-0.0512752
0.0407033
0.021088
0.0630414
0.0600991
0.124488
0.103432
0.0634315
0.0610043
0.108162
0.0590494
-0.05849
0.0633713
0.0632214
0.199756
0.0621757
0.00958696
0.0589787
0.060386
0.051365
0.063959
0.0641324
0.0587126
0.061114
-0.00382183
-2.95746e-05
-0.00332697
0.0631822
0.00935667
0.0609583
0.0098346
0.0640754
0.0531229
0.0634981
0.0813415
0.0223535
0.0631558
0.0161962
0.173893
0.0633423
-0.0390139
0.0590007
0.145007
0.00543039
0.0640648
0.0224553
0.0621097
0.0638666
-0.123266
0.123686
-0.00431698
0.0630456
0.0646265
0.0579723
0.0646471
0.00737901
0.0183129
0.0633206
0.0605342
0.0586526
0.203087
0.0216252
-0.0544911
0.0641506
0.0641666
0.0196093
0.0936703
0.0593143
0.0591731
0.0672946
0.0670484
0.127334
0.0603216
0.134762
0.0638376
0.0641312
0.05956
0.07137
0.236132
0.0584368
0.061845
0.0109342
0.0581696
0.0615559
0.0148986
0.0165537
0.0620262
0.0168387
-0.0996635
0.0449693
0.0590842
0.021176
0.0591034
0.175285
0.00943117
0.0677184
0.0198067
0.0202433
0.0638152
0.0175274
0.0680718
0.00494488
0.0573243
0.0635821
-0.0010847
0.00207305
-0.70396
0.216675
0.0640621
0.0585697
0.0634277
0.0583633
0.081837
0.118292
0.0575852
0.00975375
0.52189
0.0583078
0.0635609
0.0827593
0.040795
0.0649107
0.059674
0.0595786
0.0633273
0.0171629
0.0684544
0.0615557
0.067398
0.063362
0.0211881
0.0615926
0.32651
0.0632773
0.0349866
0.062246
0.0793415
0.0577624
-0.0383121
0.0642622
0.00354339
0.0596568
0.0174922
0.00418173
0.0788637
0.0665485
0.0597907
0.400224
-0.7138
0.0633832
0.0576195
0.466238
-0.0453272
0.0669266
0.0586349
0.0597305
0.0177942
0.0918836
-0.435073
-0.050233
0.0573671
0.0582417
0.009747
0.0196118
0.072842
0.0213353
0.0600077
0.0578048
0.0632917
0.0579365
-0.100204
0.0547903
0.0630371
0.0640277
0.0179007
0.0555286
0.0731607
0.0354938
0.0634249
0.0617137
0.0640617
0.0640344
0.0646523
0.00715814
0.0595463
-0.40542
0.0631679
0.0631547
0.0376591
0.0597431
0.117179
0.0634247
0.0649872
0.0639371
-0.0972328
0.0621804
0.0639595
0.0587944
0.0630905
0.0596091
0.0607872
0.061123
0.0596469
0.0684089
0.226829
0.0596079
0.066135
0.0788552
0.0317592
-0.0398885
0.0592212
0.0713461
0.419817
0.0640235
0.0288559
0.0629617
0.0450611
0.0631413
0.0580283
0.261727
0.0278311
0.231824
0.0721159
0.0617723
0.019258
0.0111994
0.0615057
0.0182895
0.0172434
0.0628185
0.0643269
0.0643187
0.064381
0.0643518
0.322516
0.0634044
0.122671
0.000256781
0.0682749
0.0199927
0.0275086
0.0381029
0.0460172
0.0263227
0.0462723
0.0708024
0.029668
0.0312409
0.106731
0.0820959
0.0266039
0.0805831
0.0811123
0.0233655
0.122197
0.059988
0.064476
0.0438086
0.0644288
0.0599501
-0.164611
0.580234
0.0600807
0.0640996
0.0631961
0.0637696
0.0257939
0.0638691
0.063853
-0.0601238
0.0190705
-0.0378263
0.0619897
0.0150931
0.0559932
0.0626412
0.0249632
0.0436172
0.130492
0.0441472
0.0603837
0.0629762
0.0187808
0.014634
0.0581866
0.340748
0.022604
0.0116352
0.0634855
0.0585259
0.0640693
0.418377
0.0263144
0.0622059
0.0887043
0.0791871
0.0635248
0.0634763
0.0636801
-0.0525424
0.115191
0.0719145
0.0276565
0.00690117
0.0621011
0.134325
0.0616322
-0.00209558
-0.0439146
0.351667
0.0672087
0.106254
0.0410091
0.0308926
0.0485195
0.0433311
0.0657535
0.0486003
0.0233114
0.0638657
-0.0397251
0.0731331
-0.00403371
0.0135991
0.0697907
0.111175
-0.145906
0.0253542
0.0517666
0.0135262
0.0132693
0.0268415
0.0589314
0.0636464
0.0709441
0.063151
0.000940019
0.0611379
0.0989271
0.0998455
0.0518302
-0.0452995
0.122086
0.0668911
0.0621391
0.437531
0.0628672
0.0621181
0.0130714
0.0640994
0.0617467
0.0620019
0.274929
0.272333
0.0636357
0.0621979
0.127466
0.0606583
0.0277352
0.0206104
0.0203592
0.0627499
0.0637497
0.059269
0.063973
0.0994843
0.0285191
0.0305615
0.066682
0.0662778
0.010126
0.0657637
0.0599667
0.0578038
0.13977
0.0121136
0.0640529
0.060202
0.0188242
0.0437889
0.0626173
0.0607959
0.129623
0.0289882
0.010896
0.0298312
0.0627192
0.0602137
0.0042275
-0.000470087
0.0639489
0.0485397
0.0656167
0.00984353
0.342222
0.063679
0.0611752
0.0628359
0.0214869
0.0668153
0.066372
0.0607093
0.0616695
0.0418591
0.0910633
0.0539802
-0.0259879
0.0630758
-0.0323131
0.0623258
0.0912048
0.0279222
0.00808066
0.0642899
0.0665194
0.0309853
0.0596252
0.0648651
0.071373
0.0668613
0.0673242
0.0915739
0.0211635
0.018696
0.063357
0.0593744
0.0282629
-0.00450752
0.0633563
0.0630274
0.0189707
0.0628328
0.25329
-0.148677
-0.0646608
0.0633636
0.05483
0.00202508
0.0666802
0.059509
0.484599
0.0631148
0.132622
0.102755
0.054805
0.0597048
0.0650506
0.0523554
0.000210361
0.0428112
0.0653126
0.0633804
0.0641372
0.0664265
0.0673663
0.0726598
0.0204677
0.0647107
0.0630683
0.0300988
-0.050725
0.0658149
-0.00255194
0.0632148
0.0658759
0.109869
0.00341178
0.00439034
0.110584
0.0583433
0.00199503
0.0635391
0.0641931
0.00765309
0.0505255
0.0578976
0.0504752
0.0637824
0.0630253
0.0599636
0.0606457
0.00257006
0.120997
0.0733537
0.137218
0.0220866
0.0517502
0.128714
0.0761672
-0.00308598
0.0202262
0.0788414
0.0678102
0.0642062
0.0518218
0.0300432
0.0633459
0.0641042
0.0628209
0.0642417
-0.00701265
0.0490496
0.0481085
0.12243
0.0717831
0.271555
0.0104251
0.00252685
0.0598269
0.00594363
0.063769
0.0619586
0.062794
0.127488
0.131916
0.0587784
0.0425851
0.27922
0.0233062
0.0137878
0.0507136
0.0870176
-0.120844
0.0625588
0.0649713
0.0638204
-0.000918129
0.0648758
0.0438903
-0.0464782
0.0630876
0.093593
0.0730553
0.0538564
0.0662882
0.0591661
0.0644952
0.0663961
0.0645402
0.064438
0.0662651
0.0101329
0.0158544
0.0538256
0.382878
0.00404011
0.537385
0.0246557
0.0365041
0.0663277
0.0265004
0.0703051
0.0140631
0.417935
0.114611
0.068176
0.0560769
0.0685662
0.0672442
0.0311492
0.063647
-0.00740739
0.0645191
0.116314
0.0653488
-0.0062531
0.0142203
0.016512
0.0693118
0.0512831
0.0149942
0.0908763
0.00890196
0.052495
0.0106088
0.055386
0.0633939
0.0610213
-0.216963
0.08783
0.0566593
0.0633071
0.0647095
0.0683317
0.0988588
0.0167385
0.0272225
0.0628128
0.0573401
0.0679011
0.0564776
0.0544508
0.00953554
0.0698892
0.0699537
0.0144871
0.0572925
0.0541714
0.119687
0.0633551
0.0697958
-0.236299
0.0642668
0.0148756
0.0678644
0.0548266
0.1029
0.0144648
0.0627984
0.0272804
0.0636704
0.129121
0.0588265
0.0181874
0.0166431
0.13085
0.0635494
0.00155712
0.000914439
0.0686484
0.0550777
0.0589354
0.0508355
0.270162
0.0678731
0.064081
0.0671283
0.0638938
-0.121616
0.0544666
0.0224994
0.044321
0.02908
0.561007
0.0546232
-0.0365011
0.0171066
-0.0597667
0.0270188
0.0650951
0.0546336
0.0445198
-0.038315
-0.0257085
0.0623126
0.062224
0.138909
0.0615647
0.233691
0.0285805
0.0917665
0.0591288
0.501783
-0.0880355
0.0548046
0.063391
0.0634243
0.109814
0.0682639
0.0733101
0.0655051
0.0221787
0.0904756
-0.0178053
0.398349
0.0629077
0.0961561
0.0212839
0.139569
0.0566225
0.131025
0.0110486
0.110849
0.0662947
0.0633076
0.01579
0.0129051
0.0277847
0.136632
0.0256576
0.0387014
0.0642252
0.0628851
0.052094
0.277303
0.0520634
0.0167234
0.0792866
0.0294802
0.0505478
0.0659218
0.00126464
0.0452358
0.0561285
-0.00266691
0.0713767
0.038783
0.219029
0.0633825
0.0448629
0.0614959
0.0704997
0.0608046
0.0627858
0.0633535
0.0118778
0.0580008
0.0926514
0.0197251
0.109041
0.0431467
0.0439585
0.016706
-0.153759
0.0642195
0.0704378
0.0380199
-0.0554482
0.0134489
0.0634736
0.582477
0.0633203
0.0588992
-0.124667
0.0686003
0.0637426
0.0637665
0.0780944
0.104672
0.0642054
0.0694838
0.127112
0.0623895
0.0649913
0.0658984
0.0625507
0.106186
-0.00775399
0.0666201
0.134528
0.0173062
0.01669
0.0171421
0.0238324
0.0658842
0.0585217
-0.033042
0.0074074
0.0862803
0.0626211
0.0642653
0.137566
0.00611118
0.0462792
0.0469612
0.0458603
0.0653629
0.0578376
0.0979238
-0.239157
0.425666
0.0959375
0.0615439
0.0579836
0.0934059
0.418913
0.129428
0.0635013
0.00729536
-0.00316875
-0.242366
0.0501338
-0.121477
0.0642386
0.06566
0.0642773
0.0177788
0.0882026
-0.126988
0.0595634
-0.0714941
0.0613609
0.062288
0.0144093
0.0675274
0.00852913
-0.0286839
0.0693697
0.050038
0.0363485
0.0505408
0.0691878
0.0933448
0.0858555
0.0430909
0.0965816
0.0694104
0.0643117
0.0652327
0.0647568
0.121906
0.0340695
0.00225357
0.0117382
0.100889
0.0334869
0.0322231
0.0550475
0.00235316
0.047218
0.0687941
0.0638232
0.00713105
0.127045
0.0599725
0.0511457
0.0701899
0.0325923
0.120073
0.134881
0.0328652
0.379916
0.0314025
0.101873
-0.0261372
0.067188
0.0343072
0.0168676
0.0620779
0.0468511
0.0547778
0.0566251
0.06353
0.0602427
-0.00614249
0.00578152
0.0592631
-0.0792077
0.115014
0.0646829
0.0633521
0.00901231
0.0646069
0.099566
0.0225372
0.0141588
0.0645484
0.0667149
0.063065
0.0646093
0.137526
-0.107211
0.0646122
0.0700443
0.063364
-0.139134
0.030011
0.0212856
0.0631597
0.0645181
0.0655414
0.034424
0.102631
0.0379536
0.0614474
0.066219
0.0644993
0.0282629
0.0982627
0.0539852
0.0640984
0.0419726
0.0343194
0.0883976
0.0601196
-0.00849774
0.169035
0.0618401
0.0437933
0.0659871
0.0562151
-0.139495
0.0692371
0.0647176
0.0172403
0.122486
0.097008
-0.129154
0.0915511
0.0481991
0.0373529
0.0701832
0.0532777
0.0478112
0.0692529
0.169067
0.0630633
-0.275337
0.0980562
0.207971
0.053264
-0.00268616
0.109773
0.00396904
0.304017
0.00975241
0.0387853
0.0472945
0.0500156
0.0633384
0.0567032
0.102097
0.00463767
0.0696201
0.0619604
0.0107394
0.0245447
0.0120648
0.0937352
0.00775838
0.011579
0.0627113
0.0841782
-0.034868
0.101048
0.0633052
0.0489972
0.0667954
0.063312
0.0829309
0.0642269
0.0567039
0.278123
0.105572
-0.00769744
0.0642605
0.0636684
0.0638932
0.0697619
0.0674199
0.00422612
0.0675832
0.063577
-0.00639654
0.0306536
0.0122548
0.0824155
0.0667564
0.0557109
0.112245
0.047803
0.0642798
-0.0299305
0.0175816
0.127011
0.063845
-0.230177
0.113944
0.0629987
0.00464292
0.0480602
-0.01404
0.0491076
0.00806974
0.111987
0.0614662
0.0656686
0.032255
0.0561022
0.0678664
-8.17434e-05
0.068747
0.0689338
0.117146
0.0612566
0.0672384
0.0487491
0.0160716
0.0653809
0.0687979
0.0664979
0.0632432
0.114617
-0.0290566
0.036096
0.069967
0.0651056
0.0558476
0.0632622
-0.196577
0.0938414
0.0640413
0.084295
0.0559421
0.116202
0.174899
0.0030247
0.0686153
0.0128815
0.00211639
0.0631474
0.0525289
0.00658223
0.0595952
0.0640912
0.087171
0.0378917
0.0669637
0.0641161
0.053108
0.104117
0.0646453
0.0433559
0.0642281
0.0537926
0.0805425
0.154622
0.063748
-0.187666
0.0947081
0.024718
-0.0851764
0.108698
0.0434416
-0.00788549
0.070379
0.168274
0.23616
0.0655593
0.0571485
0.0571152
0.0655952
0.0675463
0.0119404
-0.0684801
-0.098704
0.013673
0.170248
-0.000505571
0.0144103
-0.0349621
0.0635547
0.0657986
0.0653194
0.0345893
0.0633115
0.0131103
0.0500088
-0.00334318
0.0634023
0.066456
0.0616182
-0.113666
0.138914
0.0918009
0.0753755
0.143001
0.0574829
0.0645987
-0.00799094
0.0496502
-0.00108679
0.0126376
0.0339372
0.0121139
0.0230699
0.071071
0.0629571
0.0633224
-0.114385
0.0600269
0.0545958
0.0693812
0.00898866
0.0264568
0.0637696
0.0289099
-0.00403067
-0.00104023
0.110594
0.0655569
0.0637304
0.0107426
0.0697813
0.0635217
0.0077351
0.0147438
0.0671243
0.16044
0.00161653
0.0638651
0.063691
0.0632024
0.124771
-0.10422
0.0538218
0.0167332
0.0664908
0.0662459
0.0177102
0.0640157
0.204912
0.023022
-0.0393299
0.175825
0.0428051
0.0629606
0.0633921
0.0461842
0.0700787
0.0629006
-0.177657
0.0123174
0.0550068
0.258136
0.118367
0.0591508
0.0633633
0.0636917
0.0662896
-0.0686757
0.183968
0.0442376
0.0916982
0.0816306
0.0127767
-0.0711884
0.0511575
0.0678899
0.0655279
0.0235165
0.0551915
0.0628164
0.0659217
0.0110749
0.067466
0.0445692
0.0691777
0.0954012
-0.00296827
0.0604439
0.0660324
0.00385581
0.00896857
0.0734864
0.0658164
0.0907773
-0.00220631
0.0499197
0.027756
0.0882103
0.0263887
-0.0204033
0.0665454
0.181544
0.0630074
0.126246
0.0026392
0.0639747
0.0634732
0.431197
0.0639514
0.0692823
0.03619
0.0687407
0.0688593
0.0718707
0.0638666
0.0638793
0.000293398
-0.0166361
0.061914
0.394148
0.0508229
0.0657384
0.283491
0.121078
0.0694147
0.0585759
0.0654275
0.103823
-0.283674
0.0685922
0.0618545
0.0631697
0.0657975
0.0769187
0.0226027
0.0680957
0.0782568
0.0669748
-0.142146
0.00207846
0.0135534
0.128298
0.0504832
0.06583
0.0103103
-0.106638
0.0660522
0.0633521
0.0657685
0.0637622
0.0686705
0.06269
0.00334082
0.0582523
0.0582833
0.336252
-0.00443574
-0.00779509
0.00925761
0.0685105
0.00448178
0.108277
-0.0805599
0.0611698
0.0149919
0.0640103
0.243968
0.0634184
0.0631063
0.0425163
0.0631955
0.0353668
0.0731974
0.0687814
0.0611771
-0.0695777
0.105408
0.0162324
0.0659829
0.0455053
-0.0337495
-0.000460591
0.0923266
0.088959
0.0638225
0.0689299
0.0609157
0.0657311
0.0618829
0.0659605
0.105667
0.0926018
0.0141736
-0.0993561
0.033978
-0.000226667
0.0435606
-0.0972852
0.0626581
-0.0208055
0.0658533
0.014005
0.00153377
0.0341044
0.0634279
0.0392204
0.0166474
0.0442098
-0.00590468
0.288478
-0.0959206
0.0657976
0.0063656
0.0653305
0.0022763
0.113145
0.0136854
0.0593247
0.0718444
0.016461
0.0665663
0.0465349
0.0636643
0.0566234
0.0634129
0.0693658
0.0113074
0.00103973
0.0635514
0.0996446
-0.0682978
0.524548
0.0630098
0.0868164
0.0378137
0.222771
0.0415225
-0.177506
-0.0307849
0.0608029
0.0338109
0.0883898
0.203079
0.0616826
0.0809136
0.0991974
0.0615868
-0.0758336
0.00285024
0.0657181
0.0402194
-0.0211832
0.0897766
-0.0714364
0.0516344
0.101375
0.0674021
0.0630221
0.0688014
0.0574575
-0.0642454
-0.000627288
-0.0505048
0.0645095
-0.0642306
0.0398606
0.00885771
0.127134
0.0341455
0.0381144
-0.0408576
0.0513195
0.0510448
0.00939483
0.0924191
0.0360871
0.015414
0.0835156
-0.0820631
0.100061
0.0441881
0.110294
0.0644829
0.137742
0.00216081
0.123777
0.0664102
-0.0247699
0.0636005
0.043613
0.0143356
-0.00150335
0.0703914
0.0107515
0.0623846
0.562053
0.0695785
0.00893947
0.10721
-0.00106321
0.0131412
0.0639227
0.0415041
0.0633556
0.538968
0.0638094
0.0634873
0.0632024
-0.00559625
0.0582084
0.0553102
-0.00724775
0.0384489
0.0771201
0.0581835
0.0634712
0.129128
0.0620082
0.12113
0.0180924
0.101246
0.0562472
0.0551033
0.0351061
-0.00519252
0.0158917
0.0556222
0.584079
0.0637964
0.0635228
0.0692965
-0.0743619
0.0665233
0.0429057
0.101368
0.0674741
0.0550489
0.00968851
-0.0132083
0.0435253
-0.03293
0.0684255
0.0583185
0.0215383
0.0281349
-0.000690331
0.065789
0.0367812
0.0857353
0.228458
0.0490113
0.0634977
0.0562837
0.203097
0.0641083
0.0641111
-0.0282968
0.0421741
-0.0366546
0.0549233
0.0634098
0.218309
-0.00544062
0.0592086
0.0687927
0.0618883
-0.0937093
0.0641154
0.0439676
-0.0170735
0.0641103
0.0634589
0.0158033
0.0630433
0.0641218
0.0203637
0.0677502
0.0633641
0.0336056
0.0631107
-0.00445656
0.063398
0.0780118
0.140883
0.0139774
0.0641234
0.0123943
-0.167911
0.055748
0.0872159
0.0616663
0.0468717
0.0622324
-0.00888432
0.00154226
0.0585571
0.0634646
0.154608
0.0426162
0.0235764
0.0181632
0.151425
0.0630579
0.012987
0.0634519
-0.0100096
0.00342346
0.00282712
0.013829
0.179214
-0.0621776
0.00943909
0.0167496
0.0625115
0.065822
0.00764479
0.1579
0.115117
0.0462525
-0.060258
0.0630117
-0.0483218
0.265748
0.0628534
-6.37104e-07
-0.0092727
0.0947993
0.0134607
0.01422
0.0865198
0.0634613
-0.00331592
-0.05916
0.272668
0.0685066
0.0063404
-0.0195214
0.166162
0.0652286
0.063426
0.00758636
-0.0382292
0.0581587
0.0854045
0.0637033
0.0630362
0.0707419
0.0682982
0.0348493
0.0690958
0.0634168
-0.00742287
0.0492684
-0.0152238
0.0236644
0.0636733
0.0634589
0.166036
0.0680252
0.0942057
0.0764037
-0.0312384
0.0958649
0.0627295
-0.0143422
0.0729406
0.0633859
0.0392831
0.0532645
0.0553319
0.113285
0.0351121
-0.0886527
0.054979
0.0631608
-0.016529
0.0631646
0.00189059
0.0409724
-0.017628
-0.0366116
0.112557
-0.0211321
0.0637062
-0.00122176
0.0672776
0.0852993
-0.0130295
0.0268382
-0.013785
-0.0562606
0.197293
-0.00405029
0.0823319
0.0626952
0.0632911
0.0631436
-0.0209562
0.16601
0.0627236
-0.00615477
-0.00973306
0.0214828
0.00915426
0.0382132
0.12655
-0.0176691
0.0669286
0.0178533
0.034056
0.0640001
0.0640167
0.0652481
0.0683454
0.0180267
0.0636015
0.0653173
0.0697263
0.08832
0.00052133
0.0631181
-0.00986612
0.063398
0.0130263
0.0348937
0.065595
0.0531356
0.00867743
-0.0104927
0.0480552
0.0945245
0.0681665
0.0360513
0.0428
0.0634741
0.0675243
0.0673469
0.0656506
0.063526
0.0827677
0.0635135
0.14519
0.0191846
-0.0845729
0.0635359
0.0719193
0.0636325
0.0633564
0.140677
0.0709287
0.0628554
0.423975
0.157267
0.0480377
0.0778213
0.0559706
0.136761
0.03025
0.0155648
0.0704922
0.0695946
0.0634627
0.063336
-0.00387021
0.0630716
0.0653061
0.144472
0.0655454
0.06724
0.0395074
0.0634137
-0.0238351
0.0635623
0.0652547
0.0135218
0.016137
-0.0507609
0.131122
0.0841531
0.0654631
0.01385
0.0654107
0.0349067
0.0115671
0.0694974
-0.0172353
0.0641688
0.0366485
0.0832964
0.0667389
0.118636
0.0635479
0.0694683
0.063472
0.0396517
0.0629919
0.0690533
0.0336385
0.0587182
0.0842402
0.0367643
0.0634951
0.0373722
0.0178285
0.0692963
0.0143714
-0.00448267
0.0634562
0.0409212
0.13109
0.0096421
0.0692611
0.0552899
0.0552581
0.0348161
0.0698598
0.174301
0.0671265
0.063559
0.0636002
-0.0110461
0.000173606
-0.0116835
0.330184
0.116705
0.0652202
0.0357687
0.017579
0.0639101
-0.0399085
0.0675848
0.131608
-0.0029532
0.0652975
0.165969
0.000314684
-0.00736202
0.0320628
0.0395006
0.0638306
0.0631436
0.0760429
0.0634851
0.0634349
0.158784
0.0656204
0.0772845
0.0627514
0.0520887
0.0592748
0.392098
0.0554537
0.0580274
-0.00167023
0.120954
0.115019
0.0442948
0.126846
0.0633667
0.0573262
0.0100467
0.0891029
0.143426
0.0650497
-0.00214732
0.0504141
0.0671021
0.065217
0.0634305
0.0805863
0.0553915
0.0639274
0.0408237
0.302326
0.0640139
0.0181691
0.0423833
0.0630459
0.0767486
0.0659092
0.0379423
0.0634508
0.0633786
0.0222303
0.039854
0.106366
0.164299
-0.261939
0.069342
0.077436
-0.0242994
0.0431785
0.0658607
0.0515735
-0.00185584
0.0635068
0.0669043
0.0634543
0.040321
0.082179
0.0269309
0.0635214
0.0747732
0.0460982
0.0676303
0.141465
0.0592856
0.0632861
0.0635172
0.0395034
0.0317968
0.350998
0.0741079
0.0973469
0.00822383
0.0110646
0.0632582
0.116137
0.0635058
0.0634722
0.0639966
0.0053805
0.0685541
0.0424312
0.011369
0.0265005
0.0125662
0.0401706
0.0807874
0.130376
0.0602659
0.0160588
0.107378
0.0429246
0.143704
0.0672414
-0.119543
0.161865
0.153796
0.0629788
-0.0982364
0.0121803
0.0141971
0.159078
-0.00218059
0.0707873
0.0704945
0.052388
0.049389
0.0463925
0.248248
0.0893904
0.0677097
0.019546
0.0675758
0.0497592
0.0338796
0.109593
0.0480965
0.0814094
0.0983152
0.00905096
0.111158
0.0423073
0.0642787
0.0737717
0.0626148
0.0595445
0.0622074
0.0681112
0.026129
-0.0312493
0.0631134
0.18822
0.0625617
0.0552664
0.0151719
0.0402263
0.0436649
0.0619752
0.0128467
0.0184258
0.296128
0.0634976
0.0139181
0.0471145
0.0183254
0.0640044
0.0637249
0.175759
0.032992
0.044617
-0.0803207
0.0369512
0.04988
0.16261
0.0221127
0.142156
0.0693736
0.0267753
0.0500014
0.0586715
-0.0161901
0.0114036
0.0322038
0.0434061
0.0628991
0.011534
0.011345
0.000236158
0.0531119
0.0475063
0.466273
-0.0329808
0.0625382
-0.00424768
0.0297822
-0.0785276
0.0634293
0.0424759
0.0427467
0.0634299
0.00943626
0.0394144
0.0661274
8.38086e-05
-0.0124023
-0.00165585
0.0688058
0.0331343
0.0640306
0.0586361
-0.0170761
0.0944973
0.040597
0.0126648
0.172362
0.0355476
0.0284042
0.0297563
0.0118977
-0.0164195
0.0619497
0.0304713
0.0242694
0.105844
0.322537
0.0196434
0.0452349
0.0306757
0.0634295
0.10484
0.0414043
0.0146523
0.0631846
0.0470015
0.00985493
0.0208323
0.171178
0.0171232
0.0421201
0.0395893
0.0683011
0.00968558
0.0372007
0.088132
0.0718041
0.0687724
0.0160753
0.0477095
0.0540827
0.0516435
0.0635048
0.00814305
0.0744521
0.0406107
-0.00290807
-0.0322088
0.0581308
0.0410467
0.023216
0.0332548
0.0635413
0.114041
0.115236
0.0858654
0.0639784
0.265405
0.0122875
0.0680156
0.102012
0.0630452
0.0714384
0.0449199
0.0366422
0.0741405
-0.0793719
0.0646571
0.0723514
0.0551502
-0.00343702
-0.018652
0.000374829
0.0745506
0.0148708
0.0640079
0.0393729
0.0890118
0.0646627
0.170781
0.0246826
0.0373752
0.013734
0.0808127
0.030923
0.0484898
0.0631999
0.0633542
0.0588384
0.0767413
0.146991
0.0241673
0.168724
0.100748
0.10515
0.0653087
0.0834944
0.0124287
0.0633965
-0.0130794
-0.00953074
0.0662875
0.0634757
0.0548383
0.0617259
0.0633366
0.0781807
0.0466127
0.153396
0.0238456
0.0456025
0.104628
-0.00190251
0.0100127
0.0989956
0.0201806
0.0340297
0.0828957
0.0631074
0.0765303
0.039836
0.141194
0.149165
0.255055
0.0633727
0.147124
0.0432241
0.0426909
0.115457
0.125316
0.116718
-0.0135214
0.0294356
0.0833183
0.0306904
0.0535124
0.057307
0.104946
0.0628264
0.0245912
-0.0172803
0.0731151
-0.0144974
0.0624473
0.0965556
0.0684661
0.043339
0.117193
0.187437
0.0328659
0.0556321
0.0253032
0.0446927
0.0877597
-0.00293087
0.0971477
0.00346689
0.0633819
0.0302841
-0.125555
0.117478
0.0486463
-0.0269688
0.0166146
0.054085
0.0625099
0.124997
0.107223
0.0450496
0.0716526
0.0650221
0.0101388
0.0567465
0.0112824
0.0937863
0.0460567
0.163722
0.0633868
0.0595027
0.00831184
0.0514921
0.0522611
0.0793913
0.0697423
0.0415379
0.189244
0.123161
0.0632205
0.0119773
0.0580976
0.0631408
0.154017
0.0627938
0.0315887
0.0350346
0.0628109
0.0629219
0.0656474
0.0121825
0.0741889
0.111403
0.0381583
0.152242
0.0427199
0.0446509
0.0482484
0.091315
0.0635756
0.0509245
0.0504484
0.037453
-0.0113488
0.0142412
0.0806954
0.0563442
0.0673804
0.0438905
0.0551759
0.0740461
0.0320174
0.122561
0.0426
0.0631667
0.0132838
0.102471
0.0120238
0.0632967
0.155753
-0.0127209
0.0593126
0.114801
0.0110822
0.06736
0.110717
0.010682
0.103371
0.132994
0.0105558
0.058975
0.0938676
0.088904
0.0212417
0.060368
0.0440342
0.063353
0.0625155
0.063074
0.0206873
0.025066
0.0295143
0.0964003
-0.0400394
0.192923
-0.0381043
0.0376159
0.056028
-0.0237518
0.0656
-0.0685479
0.0459855
0.0324452
0.0274637
0.0397753
0.0766069
0.0557429
0.0436945
0.0678404
0.0632764
0.0925829
-0.0219399
0.0212378
0.0107852
0.0259707
0.0657606
0.037808
0.0239626
0.0688101
0.0339482
0.0520546
0.13599
0.0999256
0.0946613
0.109467
-0.0045292
-0.000560377
0.0101093
0.0331198
-0.00461675
0.022781
0.0698552
0.0558887
0.151041
0.0885886
0.013518
0.0635229
0.11176
0.148302
0.0867008
0.0932868
0.0702052
0.024666
0.132528
0.0410159
0.0327412
0.0450771
0.0453169
0.0624311
0.0394729
0.0398633
0.0671209
0.0298903
0.0418912
0.0583768
0.120575
0.0567867
0.0562021
0.0891505
0.0674968
0.062743
0.0649321
0.00573553
0.023792
0.0641222
0.0847759
-0.0313947
0.0107594
0.0692583
0.0289692
-0.00972922
-0.0245749
-0.00604535
0.0476477
0.0489197
0.0692674
0.0452831
0.0354003
-0.000649976
-0.00161295
0.0102644
9.41196e-05
0.0479702
0.0624307
0.0621891
0.150607
0.0762222
0.0444351
0.0525774
-0.000357495
0.0579999
0.0374268
0.17345
0.102435
0.018111
0.068375
0.024439
0.0630124
0.0151874
0.000961615
0.0397033
0.0630661
0.0722342
0.192522
0.0562924
0.104504
-0.00822866
0.0634141
0.0472356
0.109809
0.118263
0.083
0.0639125
0.0595252
0.0604146
0.0639377
0.063091
0.0531779
0.010559
0.0630786
0.0697606
0.0678854
-0.357666
0.139406
0.0604488
0.0633689
0.016972
0.0252371
0.0348775
0.0905072
0.02626
0.0626321
0.0565026
0.0102307
0.0638516
0.0218268
0.106003
0.0847754
0.0618733
0.0193714
0.0636434
0.050982
0.0498769
0.0561464
0.00324417
0.0715542
0.0470684
0.0456088
0.128955
0.0964234
0.063012
0.0634796
0.0498377
0.042215
0.0214218
0.0311657
0.051848
0.0144952
0.0949178
0.0639556
0.0518143
0.00904202
0.0547089
0.100257
0.0773878
0.0656216
0.173701
0.0314517
0.145772
0.163312
0.0386996
-0.00319415
-0.000279362
0.147217
0.054614
0.0130163
0.0879765
0.0493869
0.0319634
0.102598
0.0857582
0.0646563
0.0063269
0.0419075
0.0402304
0.05274
0.00815789
0.0649085
0.0949357
0.0647328
0.0690512
0.100904
0.0690108
0.0570654
0.122645
0.0131574
0.10727
0.0409041
0.0863157
0.0144134
0.0747064
0.0174888
0.0645011
0.0432452
0.0156757
0.080989
0.0378911
0.0644485
0.0545459
0.0233449
0.0576398
0.047533
0.0688403
0.0489811
0.0324173
0.00427692
0.11138
0.122042
0.116821
0.0535692
0.0556779
0.0492556
0.028268
0.0399736
0.0637218
0.0681799
0.083677
0.0348335
0.0702146
0.0106195
0.0439199
0.0698746
0.0454854
0.0447407
0.0559494
0.0426128
0.0510941
0.155247
0.299142
0.0322114
0.0380109
0.041669
0.0455132
0.0532053
0.049541
0.0484017
0.0345306
0.0205066
0.0622213
0.0633557
0.062412
0.0117851
0.063253
0.0411299
0.0565503
0.0413988
0.0725558
0.0464234
0.141796
0.000600709
0.0629679
0.0456775
0.10648
0.0541055
0.0728586
0.106611
0.0677338
0.0631577
0.040824
0.0108877
0.0992979
0.0107062
0.133465
0.0967309
0.00803428
0.0773413
0.0818304
0.0172165
0.0557509
0.0623494
0.0645545
0.0495978
0.0629141
0.0448809
-0.0213227
0.0621844
0.0948538
0.0562744
0.0764164
0.0771567
0.184636
0.069027
0.0546887
0.00808761
0.0211128
0.102082
0.0415906
0.0985792
0.0643666
0.05074
0.0788229
0.0580954
0.0439783
0.063974
0.0643848
0.0444165
0.0628668
0.0474552
0.0735463
0.0935055
0.0226595
0.0626654
0.0114939
0.0082391
0.0816002
0.0761028
0.0648634
0.0818043
0.150854
0.0633396
0.0525297
0.0601727
0.0734176
0.0526366
0.0483569
0.0532736
0.088288
0.0981887
0.0435246
0.0937529
0.106265
0.0732038
0.125872
0.0703748
0.0913724
0.0398698
0.055442
0.0326015
0.0640394
0.0777767
0.0647233
0.0984178
0.00633028
0.0673167
-0.00350352
0.0586833
0.037083
0.136382
0.0129133
0.0602188
0.0630425
0.0122249
0.124874
0.0375121
0.0398901
0.0238691
0.056865
0.0980278
0.0512836
0.0618341
0.0494165
0.013594
0.0569946
0.0534719
0.440378
0.053366
0.0647528
0.0718359
0.0783561
0.0559942
0.0442221
0.0633624
0.119225
0.0541256
0.063348
0.0209154
0.0502159
0.0414826
0.053403
0.0769692
0.0567335
0.0578629
0.0571355
0.04696
0.0947042
0.0633835
0.0523266
0.0692471
0.057838
0.0541124
0.0690642
0.0683082
0.0725125
0.073086
0.0634376
0.0564487
0.0645124
0.0396095
-0.00188391
-0.000634634
0.167872
0.088808
-0.00175757
0.043698
0.0627895
0.0658115
0.0715546
0.0880525
0.0636882
0.0389452
0.0887631
0.0695209
0.0362279
-0.001628
0.0307112
0.062733
0.0511325
0.0632441
0.11015
0.267662
0.0535281
0.069885
0.0538716
0.00856679
0.0630406
0.0864261
0.038114
0.0591096
0.0638363
0.0463555
0.113268
0.0501501
0.0691236
0.0359196
0.0546214
0.0567774
0.103287
0.0725313
0.0541411
0.0652583
0.0527871
0.0686518
0.0518407
0.0636391
0.0512456
0.0631346
0.0683739
0.0168952
0.0822271
0.0255279
0.0865944
0.0878731
0.0669392
0.0526522
0.0489021
0.0915838
0.107986
0.017155
0.0562254
0.0722747
0.0714651
0.0519654
0.0619277
0.0572133
0.0478313
0.0382808
0.0383655
0.0587694
0.0210228
0.0536115
0.0944367
0.0527979
0.0558386
0.0501789
0.0330085
0.099133
0.0667307
-0.000466421
0.0534832
0.0558632
0.0165466
0.0660777
0.000784625
0.0654177
0.0561213
0.0594431
0.060637
0.0641913
0.0562654
0.00833426
0.0633624
0.0305746
0.0847375
0.0655643
0.0702241
0.0467186
0.112483
0.0737252
0.0637199
0.048336
-0.0449244
0.0634684
0.00821073
-0.0562693
0.0790052
0.10049
0.0668327
0.053655
0.040147
0.0854916
0.0717397
0.0632528
0.106447
0.0169308
0.0955708
0.063387
0.0628605
0.0562752
0.0578477
0.0584536
0.0793227
0.0910923
0.0587845
-0.00136581
0.0605568
0.0670211
0.0540561
0.0430207
0.000174329
0.0628846
0.0565246
0.0336839
0.0579823
0.059301
0.0655557
0.148289
0.0858615
0.0637862
0.0756038
0.0662384
0.0562831
0.0888367
0.0728194
0.0571754
0.0758349
0.0506696
0.0756443
0.0989668
0.0106548
0.0333458
0.0638754
0.0829855
0.0613317
0.0656388
0.0646248
0.0547349
0.00457549
0.000622702
0.0719956
0.0473619
0.049292
0.0383707
0.0625022
0.0622192
0.0637847
0.0830605
0.0487732
0.0634241
0.0562282
0.0675347
0.0340317
0.0215813
0.0634297
0.0629792
0.0501663
0.0614117
0.0617981
0.0556681
0.0588864
0.0541239
0.0801042
0.0747442
0.0457307
0.0612542
0.0661121
0.0724403
0.0566644
0.0633746
0.0559751
0.0431234
0.00409686
0.00883367
0.0497254
0.142442
0.05716
-0.046624
0.102596
0.0565395
0.0554853
0.0668228
0.0621595
0.0634291
0.0686306
0.0692822
0.0561507
0.0648338
0.0626843
0.110421
0.0109634
0.0449741
0.0635672
0.0679297
0.0767669
0.0841033
0.0453098
0.0654716
0.0633177
0.0619594
0.0577634
0.0398651
0.0363747
0.0130202
0.0744777
0.0617042
0.055004
0.0685546
0.0670459
0.0668736
0.0608926
0.0709982
0.0634436
0.0232748
-0.00542708
0.062722
0.0799594
0.0561891
0.0583565
0.0600132
0.0645745
-0.0278364
0.076381
0.00217802
0.0564846
0.0143156
0.0655272
0.08675
0.147434
0.0683692
0.063602
0.0426094
0.0322092
0.129783
0.0572893
0.0800792
0.0585138
0.0630109
0.076733
0.0611293
0.143575
0.000242164
0.0925574
0.0664023
0.0616379
0.0634165
0.061403
-0.0169
0.052977
0.0629326
0.0699643
0.0618261
0.0629571
0.0628476
0.0171108
0.00749685
0.0679326
0.0623809
0.096599
0.0680229
0.115887
0.43546
0.0327538
0.0567074
0.088528
0.0620902
-0.0282919
0.0634041
0.0619562
0.140538
0.401988
0.013531
0.0631535
0.181559
0.0485082
0.0605294
0.0610163
0.0314419
0.0629257
0.07336
0.237793
0.0748449
0.0664145
0.0624921
0.12055
0.0602629
0.0837182
0.0637142
0.0657611
0.0607062