/*--------------------------------*- C++ -*----------------------------------*\
  =========                 |
  \\      /  F ield         | OpenFOAM: The Open Source CFD Toolbox
   \\    /   O peration     | Website:  https://openfoam.org
    \\  /    A nd           | Version:  7
     \\/     M anipulation  |
\*---------------------------------------------------------------------------*/
FoamFile
{
    version     2.0;
    format      ascii;
    class       volScalarField;
    location    "3";
    object      T;
}
// * * * * * * * * * * * * * * * * * * * * * * * * * * * * * * * * * * * * * //

dimensions      [0 0 0 1 0 0 0];

internalField   nonuniform List<scalar> 
1008
(
1.91435
2.26387
2.24968
2.22986
2.20791
2.18463
1
1
1
1
1
1
1
1
1
1
1
1
1
1
1
1
1
1.00049
1.33631
2.07983
2.23003
2.20689
2.18884
2.16859
1
1
1
1
1
1
1
1
1
1
1
1
1
1
1
1
1
1
1.02653
1.71211
2.16012
2.18911
2.17337
2.15493
1
1
1
1
1
1
1
1
1
1
1
1
1
1
1
1
1
1
1.00025
1.17977
1.93497
2.16884
2.15296
2.13658
1
1
1
1
1
1
1
1
1
1
1
1
1
1
1
1
1
1
1
1.00732
1.44285
2.01707
2.13416
2.11463
1
1
1
1
1
1
1
1
1
1
1
1
1
1
1
1
1
1
1
1.00005
1.0551
1.69484
2.055
2.10388
1
1
1
1
1
1
1
1
1
1
1
1
1
1
1
1
1
1
1
1
1.00097
1.19072
1.82676
2.07067
1
1
1
1
1
1
1
1
1
1
1
1
1
1
1
1
1
1
1
1
1
1.0088
1.35894
1.90164
1
1
1
1
1
1
1
1
1
1
1
1
1
1
1
1
1
1
1
1
1
1.00008
1.03661
1.51729
1
1
1
1
1
1
1
1
1
1
1
1
1
1
1
1
1
1
1
1
1
1
1.00058
1.09523
1
1
1
1
1
1
1
1
1
1
1
1
1
1
1
1
1
1
1
1
1
1
1
1.00274
1
1
1
1
1
1
1
1
1
1
1
1
1
1
1
1
1
1
1
1
1
1
1
1.00002
1
1
1
1
1
1
1
1
1
1
1
1
1
1
1
1
1
1
1
1
1
1
1
1
1
1
1
1
1
1
1
1
1
1
1
1
1
1
1
1
1
1
1
1
1
1
1
1
1
1
1
1
1
1
1
1
1
1
1
1
1
1
1
1
1
1
1
1
1
1
1
1
1
1
1
1
1
1
1
1
1
1
1
1
1
1
1
1
1
1
1
1
1
1
1
1
1
1
1
1
1
1
1
1
1
1
1
1
1
1
1
1
1
1
1
1
1
1
1
1
1
1
1
1
1
1
1
1
1
1
1
1
1
1
1
1
1
1
1
1
1
1
1
1
2.15907
2.13187
2.10414
2.07362
2.03946
2.00754
1.97472
1.93926
1.90247
1.87223
1.84059
1.80675
1.77246
1.74684
1.71896
1.68802
1.66355
1.63944
1.61176
1.61639
1.71001
1.8996
2.03256
2.03179
2.00714
1.97711
1.94806
1.92478
1.90509
1.88522
1.86533
1.84577
1.82655
2.1453
2.12043
2.09469
2.06643
2.0365
2.00712
1.97644
1.94258
1.91212
1.88321
1.85343
1.81991
1.79092
1.76502
1.73873
1.71125
1.68167
1.65655
1.66907
1.77854
1.95455
2.06296
2.06019
2.03966
2.01737
1.99436
1.96889
1.94146
1.9152
1.89248
1.87146
1.85164
1.8336
2.1338
2.11032
2.08464
2.05744
2.03147
2.00421
1.97491
1.94407
1.91771
1.88957
1.86093
1.8295
1.8063
1.77961
1.75329
1.72554
1.69845
1.71772
1.85497
2.03597
2.1027
2.09372
2.06386
2.04045
2.0252
2.00695
1.98442
1.95802
1.92649
1.89707
1.87467
1.85546
1.83769
2.11847
2.09761
2.07364
2.04913
2.02484
1.99974
1.97186
1.94622
1.92048
1.8943
1.86526
1.83987
1.81588
1.79008
1.76423
1.73941
1.76697
1.9123
2.10867
2.15839
2.13226
2.09463
2.06415
2.04369
2.02904
2.01145
1.99065
1.96733
1.93817
1.90446
1.87728
1.85684
1.83881
2.09762
2.08041
2.06111
2.04076
2.01834
1.99388
1.96916
1.9466
1.92169
1.89594
1.86901
1.84695
1.82001
1.79674
1.7774
1.81645
1.97756
2.1339
2.19559
2.17951
2.14282
2.10611
2.07078
2.04712
2.02978
2.01158
1.99144
1.96976
1.9445
1.91326
1.88133
1.85747
1.83842
2.08653
2.06767
2.0504
2.03228
2.01215
1.98907
1.96743
1.94478
1.92161
1.89551
1.87351
1.84726
1.82484
1.81523
1.87746
2.06347
2.1869
2.20555
2.19828
2.17174
2.14657
2.11966
2.08457
2.05103
2.02833
2.00909
1.98919
1.96785
1.94482
1.91814
1.88741
1.85884
1.83671
2.06898
2.05313
2.03739
2.02084
2.00171
1.98198
1.96236
1.94137
1.91767
1.89535
1.87207
1.84811
1.85161
1.93573
2.1394
2.25859
2.24268
2.21363
2.18551
2.16543
2.14764
2.12313
2.09177
2.05589
2.02781
2.00585
1.98468
1.96284
1.94002
1.91545
1.88823
1.85979
1.83452
2.0448
2.0356
2.0203
2.00503
1.98879
1.9724
1.95525
1.935
1.91205
1.89374
1.87457
1.89038
2.00039
2.17723
2.28917
2.28531
2.24488
2.20834
2.18235
2.16445
2.14658
2.12161
2.09212
2.05924
2.0279
2.00213
1.97866
1.95515
1.93134
1.90704
1.88137
1.85423
1.82801
1.93362
2.02072
2.00722
1.98814
1.97449
1.96011
1.94621
1.92427
1.90751
1.89895
1.94166
2.09064
2.23405
2.29785
2.29799
2.27024
2.23822
2.20888
2.18193
2.15933
2.13726
2.11184
2.0837
2.05374
2.02323
1.99528
1.96994
1.94542
1.92088
1.89595
1.87013
1.84329
1.81702
1.64325
1.94159
1.9969
1.97856
1.95913
1.94791
1.93061
1.91433
1.92037
1.99672
2.17037
2.30591
2.31271
2.29311
2.27063
2.24771
2.22826
2.20597
2.17814
2.14847
2.12118
2.09514
2.06872
2.0412
2.01247
1.98445
1.95855
1.93378
1.90917
1.88437
1.85916
1.83365
1.80883
1.18342
1.72273
1.93795
1.97122
1.95412
1.93561
1.92237
1.9495
2.07062
2.21689
2.32485
2.33899
2.30797
2.27028
2.24349
2.22673
2.21136
2.19025
2.16281
2.13164
2.1024
2.07634
2.05121
2.02582
1.99997
1.97406
1.94855
1.92345
1.8986
1.87413
1.85036
1.82754
1.80537
1.00922
1.28113
1.75786
1.93833
1.93692
1.93298
2.00147
2.16038
2.28043
2.30749
2.31488
2.30674
2.28419
2.25526
2.23052
2.21265
2.19378
2.17124
2.14533
2.11675
2.08831
2.06221
2.03802
2.01456
1.99112
1.96736
1.9431
1.91844
1.89388
1.86981
1.84696
1.82586
1.80612
1.00009
1.02272
1.36198
1.79625
1.89008
2.06703
2.24582
2.33763
2.33784
2.32127
2.29983
2.28641
2.27104
2.24842
2.22385
2.20394
2.1829
2.1594
2.13454
2.10843
2.0818
2.05648
2.03312
2.01095
1.98898
1.96647
1.94294
1.91851
1.8941
1.87104
1.85021
1.83145
1.81411
1
1.00033
1.04386
1.41146
1.99463
2.37995
2.42559
2.41354
2.38196
2.34795
2.32513
2.30906
2.29377
2.2722
2.24776
2.22712
2.20587
2.18256
2.15823
2.13341
2.10807
2.08363
2.06114
2.0398
2.01845
1.99635
1.97314
1.9491
1.92531
1.90331
1.88363
1.86579
1.84899
1
1
1.00074
1.14493
2.35998
2.65027
2.5759
2.50926
2.4597
2.42036
2.39546
2.37807
2.3601
2.33647
2.30962
2.28363
2.25803
2.23141
2.20351
2.17657
2.15048
2.12452
2.10029
2.07732
2.05424
2.03028
2.00538
1.9801
1.95555
1.93278
1.91208
1.89312
1.87529
1
1
1.00001
1.5632
2.64967
2.73922
2.68069
2.63753
2.59662
2.56078
2.5336
2.51004
2.47802
2.44419
2.41341
2.3843
2.35481
2.32348
2.28917
2.25493
2.22374
2.194
2.16571
2.13875
2.1122
2.08507
2.05706
2.029
2.00233
1.97804
1.95618
1.93617
1.91715
1
1
1
1.82685
2.76242
2.80098
2.78137
2.7559
2.72801
2.69737
2.66882
2.6362
2.59728
2.5575
2.51877
2.48002
2.44022
2.39912
2.35548
2.31339
2.27708
2.24568
2.2144
2.18386
2.15329
2.12196
2.0905
2.0607
2.03377
2.00968
1.98777
1.9671
1.94643
1
1
1
1.81715
2.76593
2.8146
2.80343
2.79064
2.77695
2.75753
2.7333
2.70068
2.66331
2.62208
2.57793
2.53182
2.48499
2.43735
2.39142
2.34776
2.30868
2.27384
2.23883
2.20485
2.17076
2.13644
2.10327
2.07303
2.04627
2.02243
2.00054
1.9793
1.95725
)
;

boundaryField
{
    inlet
    {
        type            fixedValue;
        value           uniform 1;
    }
    outlet
    {
        type            inletOutlet;
        inletValue      nonuniform 0();
        value           nonuniform 0();
    }
    bottom
    {
        type            symmetryPlane;
    }
    top
    {
        type            symmetryPlane;
    }
    obstacle
    {
        type            zeroGradient;
    }
    defaultFaces
    {
        type            empty;
    }
    procBoundary2to0
    {
        type            processor;
        value           nonuniform List<scalar> 
58
(
2.16181
2.29231
2.271
2.25168
2.22945
2.20455
1
1
1
1
1
1
1
1
1
1
1
1
1
1
1
1
1
1.04604
1.04604
2.17683
2.14539
2.11258
2.07826
2.04088
2.00311
1.9676
1.93056
1.88948
1.85576
1.82243
1.78773
1.75199
1.72323
1.69334
1.66476
1.64209
1.61565
1.58575
1.56204
1.56837
1.65587
1.85871
1.99706
1.99191
1.96061
1.92771
1.90741
1.89246
1.87488
1.85613
1.8373
1.81708
)
;
    }
    procBoundary2to1
    {
        type            processor;
        value           nonuniform List<scalar> 2(1.80766 1.81675);
    }
    procBoundary2to3
    {
        type            processor;
        value           nonuniform List<scalar> 
16
(
1.82052
1.82155
1.8208
1.81731
1.81278
1.80492
1.79343
1.78574
1.78376
1.78694
1.79719
1.83243
1.85787
1.89813
1.92462
1.93344
)
;
    }
}


// ************************************************************************* //
