/*--------------------------------*- C++ -*----------------------------------*\
  =========                 |
  \\      /  F ield         | OpenFOAM: The Open Source CFD Toolbox
   \\    /   O peration     | Website:  https://openfoam.org
    \\  /    A nd           | Version:  7
     \\/     M anipulation  |
\*---------------------------------------------------------------------------*/
FoamFile
{
    version     2.0;
    format      ascii;
    class       volVectorField;
    location    "76";
    object      U;
}
// * * * * * * * * * * * * * * * * * * * * * * * * * * * * * * * * * * * * * //

dimensions      [0 1 -1 0 0 0 0];

internalField   nonuniform List<vector> 
26800
(
(-0.0998669 0.261445 6.7641e-20)
(-0.165225 0.355612 1.05118e-19)
(-0.175076 0.421026 1.19078e-20)
(-0.115218 0.272364 3.16604e-20)
(0.0392678 -0.0328847 -1.70802e-19)
(0.178277 -0.326774 3.8301e-20)
(0.269734 -0.516823 7.43655e-20)
(0.298136 -0.609481 5.75246e-20)
(0.243635 -0.653036 3.57288e-20)
(0.202351 -0.563856 9.67601e-22)
(0.306681 -0.273406 4.3886e-21)
(0.46224 0.0683842 -2.22037e-21)
(0.568342 0.332359 -2.77177e-22)
(0.635552 0.454251 1.16323e-20)
(0.628995 0.533877 2.7036e-21)
(0.551641 0.578639 -1.92016e-20)
(0.519922 0.453803 -2.14262e-20)
(0.590008 0.158335 2.73533e-21)
(0.691968 -0.129581 1.68959e-21)
(0.778924 -0.30395 3.60115e-21)
(-0.0973343 0.271303 -1.89047e-19)
(-0.152135 0.358949 -3.25683e-19)
(-0.154597 0.417751 1.62105e-19)
(-0.0849421 0.256487 -2.12148e-19)
(0.083061 -0.0560257 1.78288e-19)
(0.227964 -0.346694 -2.34281e-21)
(0.318022 -0.527248 -1.50437e-19)
(0.343953 -0.605418 -1.06431e-19)
(0.294549 -0.638096 -5.6901e-20)
(0.22426 -0.569213 1.14774e-20)
(0.291538 -0.30823 -1.68399e-20)
(0.42822 0.0285371 -2.82771e-21)
(0.536973 0.302174 -4.20036e-21)
(0.606714 0.441909 4.81213e-20)
(0.594645 0.547952 3.76649e-21)
(0.514656 0.594352 3.78063e-20)
(0.513505 0.443126 -1.62783e-20)
(0.612127 0.128563 -4.4108e-20)
(0.720216 -0.167082 9.43963e-21)
(0.81517 -0.31469 -9.63267e-21)
(-0.0950645 0.279859 -2.29681e-19)
(-0.138266 0.361394 1.08041e-19)
(-0.132345 0.41412 1.05244e-19)
(-0.0516426 0.240724 -1.04113e-19)
(0.131018 -0.0779777 3.24398e-19)
(0.281539 -0.364371 -2.20025e-19)
(0.369703 -0.535085 1.95517e-19)
(0.390938 -0.600247 1.43029e-19)
(0.348139 -0.619366 9.40798e-21)
(0.257463 -0.566088 -2.32588e-21)
(0.288633 -0.337575 2.06759e-20)
(0.40719 -0.0116782 2.99254e-20)
(0.514835 0.269967 -3.06974e-20)
(0.581703 0.428915 -1.26141e-19)
(0.561359 0.561741 1.64911e-20)
(0.484338 0.603876 -4.58697e-20)
(0.52418 0.424483 4.69218e-20)
(0.654637 0.0981533 3.57223e-20)
(0.762276 -0.202274 -7.36117e-20)
(0.854843 -0.323517 -1.19254e-20)
(-0.093062 0.287058 4.92317e-19)
(-0.123785 0.362908 -1.55775e-19)
(-0.108638 0.410126 -4.28553e-19)
(-0.0154982 0.224937 2.78065e-19)
(0.18293 -0.0985331 -1.64359e-19)
(0.338456 -0.379623 4.81439e-19)
(0.424104 -0.54005 1.7125e-19)
(0.439061 -0.59388 6.75744e-20)
(0.402152 -0.598173 -9.25465e-20)
(0.300647 -0.554938 1.33925e-20)
(0.297086 -0.360831 4.48409e-20)
(0.398782 -0.0509534 3.00208e-21)
(0.499879 0.23741 9.13251e-20)
(0.560616 0.416225 1.37353e-19)
(0.5285 0.574289 8.62174e-21)
(0.464657 0.604983 2.76279e-20)
(0.548927 0.39652 1.12233e-20)
(0.713409 0.0682008 3.66119e-20)
(0.815861 -0.231288 3.32283e-20)
(0.895554 -0.32868 5.09206e-20)
(-0.091329 0.292855 2.06619e-21)
(-0.108857 0.36346 7.82101e-19)
(-0.0837967 0.405748 3.83203e-19)
(0.0233203 0.209171 -5.97069e-19)
(0.238469 -0.117612 7.79589e-20)
(0.398111 -0.392286 -4.09287e-19)
(0.480354 -0.541994 -4.77717e-19)
(0.48838 -0.586031 -3.57026e-19)
(0.454787 -0.57582 4.11314e-23)
(0.351663 -0.536556 -2.30273e-20)
(0.315427 -0.377233 -1.96011e-19)
(0.399972 -0.08835 1.63788e-20)
(0.489325 0.20565 -3.63723e-20)
(0.542803 0.404464 -1.44355e-19)
(0.495924 0.583912 8.78128e-21)
(0.458459 0.596472 5.08124e-20)
(0.583975 0.359088 -6.64026e-20)
(0.782093 0.0387183 4.83658e-20)
(0.877076 -0.251542 2.87054e-20)
(0.934907 -0.328934 -2.98225e-20)
(-0.089866 0.297219 -6.79255e-19)
(-0.0936502 0.363037 -1.27027e-18)
(-0.0581507 0.400858 -1.04502e-18)
(0.0646702 0.1935 1.54744e-18)
(0.297208 -0.135096 5.22315e-19)
(0.459838 -0.402202 -5.38979e-20)
(0.537521 -0.540916 4.74873e-19)
(0.53878 -0.576323 1.32483e-19)
(0.504902 -0.55336 1.77229e-19)
(0.407518 -0.512262 -1.40795e-19)
(0.342838 -0.385711 6.55442e-20)
(0.406873 -0.122468 -2.10354e-20)
(0.480393 0.175113 2.47873e-20)
(0.527192 0.393793 1.49208e-19)
(0.464314 0.588599 6.02266e-20)
(0.467468 0.578712 6.29184e-21)
(0.630705 0.314286 9.17273e-20)
(0.85521 0.00946401 6.45576e-21)
(0.941524 -0.261919 2.33964e-20)
(0.971299 -0.323308 5.11695e-20)
(-0.0886707 0.300129 6.23468e-19)
(-0.0783478 0.361619 1.40109e-18)
(-0.0320269 0.395264 1.0342e-18)
(0.108492 0.177951 -6.83174e-19)
(0.358621 -0.150867 -7.06629e-19)
(0.522896 -0.40924 5.42133e-19)
(0.594751 -0.536917 -2.11925e-19)
(0.589784 -0.564424 5.18852e-20)
(0.552126 -0.531419 1.00929e-19)
(0.464765 -0.483951 2.14756e-19)
(0.379046 -0.385255 8.88458e-20)
(0.416712 -0.151813 -9.72486e-20)
(0.47144 0.145774 1.82209e-20)
(0.512491 0.383868 -8.12361e-20)
(0.43536 0.586501 -6.27539e-20)
(0.492984 0.552369 -6.86524e-20)
(0.694787 0.266387 1.26841e-19)
(0.929129 -0.0181724 -3.35146e-19)
(1.00465 -0.262386 3.25051e-20)
(1.00399 -0.311257 -8.07387e-20)
(-0.0877384 0.301568 1.07708e-18)
(-0.0631239 0.359115 2.98774e-19)
(-0.00580816 0.388897 -1.073e-18)
(0.154769 0.162505 -4.86184e-19)
(0.422113 -0.164816 9.36195e-19)
(0.58648 -0.413322 -8.96388e-19)
(0.651324 -0.530142 2.66869e-19)
(0.640538 -0.550183 1.86806e-19)
(0.596775 -0.510124 -3.79954e-19)
(0.520151 -0.453838 -7.31497e-20)
(0.423216 -0.37542 -1.43307e-20)
(0.428655 -0.174705 6.43988e-20)
(0.462625 0.117799 -7.75977e-20)
(0.496801 0.373802 3.26806e-20)
(0.412347 0.575864 -8.39623e-20)
(0.535798 0.516753 2.64078e-20)
(0.778252 0.219733 -2.32328e-19)
(1.00117 -0.0411888 2.18948e-19)
(1.06183 -0.253665 -1.17641e-19)
(1.03256 -0.292885 -1.02582e-20)
(-0.0870656 0.301532 -6.16665e-19)
(-0.0481477 0.355463 -1.63713e-18)
(0.0201275 0.381621 1.25078e-18)
(0.203499 0.147161 1.0945e-18)
(0.487032 -0.17684 -1.05937e-18)
(0.64975 -0.41444 4.4797e-19)
(0.706634 -0.520734 -7.15732e-19)
(0.689998 -0.533706 -3.40637e-19)
(0.639541 -0.489173 1.9587e-19)
(0.571225 -0.42401 -8.32188e-20)
(0.473166 -0.356748 5.81242e-20)
(0.443623 -0.189374 2.93286e-20)
(0.455161 0.0921114 -4.92672e-20)
(0.47757 0.362038 -6.88318e-20)
(0.400772 0.554924 5.14265e-20)
(0.597089 0.470831 1.38621e-19)
(0.874276 0.176926 3.52283e-20)
(1.06835 -0.0567349 -5.072e-20)
(1.10881 -0.237141 3.67683e-21)
(1.05647 -0.26899 -1.24684e-20)
(-0.0866602 0.300097 -7.66368e-19)
(-0.0336036 0.350623 1.77306e-18)
(0.0454365 0.373162 -1.07425e-18)
(0.254688 0.131945 3.12382e-19)
(0.552683 -0.186845 -1.37191e-18)
(0.711889 -0.412657 3.06795e-19)
(0.760112 -0.508836 5.15595e-19)
(0.73723 -0.515317 -2.4207e-20)
(0.681011 -0.468049 -3.18821e-20)
(0.616789 -0.396001 1.82758e-19)
(0.525513 -0.330988 -3.45475e-20)
(0.463712 -0.194007 -4.55477e-20)
(0.449818 0.0703425 9.46004e-20)
(0.45381 0.346568 1.37675e-20)
(0.40853 0.522296 1.07466e-19)
(0.679205 0.416562 -8.42645e-20)
(0.971181 0.139492 1.773e-19)
(1.12674 -0.0633437 4.56745e-20)
(1.14264 -0.214684 -1.47201e-20)
(1.07496 -0.240974 -2.53344e-20)
(-0.0865411 0.297349 3.61146e-19)
(-0.0197124 0.344544 -2.48216e-18)
(0.0698524 0.36321 2.20171e-18)
(0.308322 0.116894 -2.22973e-18)
(0.618338 -0.194755 1.64256e-18)
(0.77214 -0.4081 -1.78583e-19)
(0.811193 -0.494616 -1.97431e-20)
(0.781637 -0.495439 -1.39704e-19)
(0.721248 -0.446321 -6.58484e-20)
(0.657075 -0.370498 -1.2088e-19)
(0.576521 -0.301024 6.81529e-20)
(0.491278 -0.187021 3.84378e-20)
(0.447134 0.0548367 -5.85502e-21)
(0.430967 0.325847 2.3321e-20)
(0.446058 0.477813 -5.27952e-20)
(0.781034 0.359534 1.49505e-20)
(1.05874 0.109414 -1.17737e-20)
(1.17191 -0.0612107 2.80638e-20)
(1.16242 -0.188354 1.65611e-19)
(1.08744 -0.210611 -5.30368e-20)
(-0.0867119 0.293333 -7.50244e-19)
(-0.00674131 0.337207 -1.00912e-19)
(0.0932568 0.351473 -1.79129e-18)
(0.364336 0.102059 1.50489e-18)
(0.683257 -0.200518 -2.58064e-20)
(0.82983 -0.40094 -1.17591e-18)
(0.859337 -0.478302 -3.91103e-19)
(0.822972 -0.47445 2.92519e-19)
(0.759726 -0.423901 6.72523e-20)
(0.693426 -0.34728 6.46028e-20)
(0.623151 -0.27036 -3.76987e-20)
(0.527648 -0.168295 -7.05408e-21)
(0.451185 0.0479484 -6.9763e-21)
(0.42512 0.300167 -1.05493e-20)
(0.523719 0.424302 -4.85743e-20)
(0.892304 0.306188 -1.07925e-19)
(1.12946 0.0886501 -9.39315e-20)
(1.19988 -0.0521485 3.82414e-20)
(1.16944 -0.160143 -7.94605e-20)
(1.09373 -0.179918 -3.8157e-20)
(-0.0871761 0.288116 7.31066e-19)
(0.00499847 0.328558 5.69008e-19)
(0.115795 0.337709 2.23305e-18)
(0.422588 0.0874949 9.32315e-19)
(0.746713 -0.204112 -5.92879e-19)
(0.884374 -0.391386 1.47285e-18)
(0.904095 -0.460186 4.69588e-19)
(0.861187 -0.452628 -3.46651e-19)
(0.795688 -0.401079 1.62198e-19)
(0.727434 -0.325513 -2.12228e-22)
(0.66397 -0.242099 -4.08069e-20)
(0.571661 -0.140936 -3.42229e-21)
(0.472284 0.050758 -2.18882e-20)
(0.459205 0.272739 -2.2012e-20)
(0.641228 0.369072 7.00935e-21)
(0.99584 0.261056 6.80167e-20)
(1.17728 0.0772772 8.01966e-20)
(1.20917 -0.0390332 -1.25508e-19)
(1.16645 -0.13193 7.81723e-20)
(1.09429 -0.1509 -1.40371e-19)
(-0.0879439 0.281801 -1.00682e-19)
(0.0151491 0.318474 1.47872e-18)
(0.138001 0.321808 -1.52651e-18)
(0.482835 0.0732619 -2.84569e-18)
(0.808016 -0.205554 -4.79082e-19)
(0.935281 -0.379682 -1.42351e-18)
(0.945159 -0.440597 -6.02536e-19)
(0.89625 -0.430184 1.12499e-19)
(0.828656 -0.378311 -1.0325e-20)
(0.759973 -0.304384 -1.60813e-19)
(0.699512 -0.217784 1.22576e-20)
(0.619384 -0.111354 5.43931e-21)
(0.52075 0.0612104 7.54446e-20)
(0.544943 0.248864 3.575e-20)
(0.776842 0.32028 1.92214e-22)
(1.07464 0.225929 -5.98487e-20)
(1.19873 0.0730089 1.58725e-19)
(1.20224 -0.0248424 1.17694e-19)
(1.15665 -0.105465 -7.49584e-20)
(1.09038 -0.124964 1.01968e-19)
(-0.089035 0.274517 4.98722e-19)
(0.0233199 0.306746 -4.62157e-19)
(0.160897 0.303873 -5.11723e-19)
(0.54471 0.059458 1.22664e-18)
(0.866538 -0.2049 7.58221e-19)
(0.982167 -0.366101 1.04789e-19)
(0.982366 -0.419865 -6.8821e-20)
(0.928095 -0.407344 2.6786e-19)
(0.858626 -0.355936 1.84328e-19)
(0.790885 -0.28367 -1.20435e-19)
(0.731704 -0.197089 -3.51656e-21)
(0.665933 -0.0862487 -2.27965e-20)
(0.594315 0.0734482 -5.33177e-21)
(0.663746 0.230643 -3.91601e-20)
(0.895058 0.28035 3.91977e-21)
(1.11797 0.199091 -5.46336e-20)
(1.19562 0.0720342 -7.19917e-20)
(1.18478 -0.0119178 4.37889e-20)
(1.14286 -0.082173 -9.21489e-21)
(1.08412 -0.102411 -6.5496e-20)
(-0.0904839 0.266415 -1.11067e-19)
(0.0291395 0.293061 7.44939e-19)
(0.186007 0.2843 8.3225e-19)
(0.607704 0.0462243 -6.46151e-19)
(0.921733 -0.202243 -2.42033e-19)
(1.02477 -0.350937 -1.71544e-19)
(1.01566 -0.398305 5.2001e-19)
(0.956697 -0.384361 1.48178e-19)
(0.885853 -0.334093 -1.03093e-19)
(0.81959 -0.263703 -7.2645e-20)
(0.762356 -0.178918 -1.33063e-20)
(0.709107 -0.0688721 -2.39743e-20)
(0.675617 0.0800044 -6.39794e-21)
(0.774506 0.212596 -2.28147e-20)
(0.969654 0.245081 -2.30373e-20)
(1.12674 0.176149 8.98248e-20)
(1.17599 0.0709402 6.12756e-20)
(1.16307 -0.0015372 -1.00685e-19)
(1.12736 -0.0627459 6.53055e-20)
(1.07755 -0.0829131 1.83504e-20)
(-0.0923484 0.257666 -1.31027e-18)
(0.0323606 0.277007 -1.47346e-19)
(0.215218 0.26379 4.07346e-19)
(0.671157 0.0337616 9.29878e-19)
(0.973149 -0.197711 9.33704e-19)
(1.06293 -0.334494 1.59044e-18)
(1.04509 -0.376216 -1.01995e-18)
(0.982132 -0.36148 -8.84951e-19)
(0.910552 -0.312841 1.00031e-19)
(0.845846 -0.244859 2.92085e-19)
(0.791934 -0.162731 1.38486e-20)
(0.749389 -0.0582598 7.13558e-20)
(0.745551 0.0769991 2.62832e-20)
(0.848181 0.188495 6.58761e-20)
(1.00009 0.210291 1.32848e-21)
(1.11357 0.154236 -9.68318e-20)
(1.15025 0.0682845 2.1819e-20)
(1.14158 0.0061408 6.50165e-20)
(1.112 -0.0471047 -2.61565e-20)
(1.07165 -0.0660905 6.65747e-20)
(-0.094715 0.248449 9.69413e-19)
(0.0330256 0.258144 -1.54916e-19)
(0.250469 0.243276 -2.34642e-18)
(0.734257 0.022331 7.17023e-19)
(1.02044 -0.191464 1.40151e-18)
(1.09663 -0.317073 -1.02938e-18)
(1.07076 -0.353876 1.64376e-18)
(1.00456 -0.338909 -6.85023e-20)
(0.932842 -0.292267 -5.27672e-20)
(0.869838 -0.22725 -3.24023e-19)
(0.81992 -0.148559 1.24936e-20)
(0.786553 -0.0518268 -2.57576e-20)
(0.796785 0.066828 -6.61095e-20)
(0.886975 0.159595 -9.15249e-21)
(1.00525 0.176745 8.49399e-21)
(1.09373 0.133514 4.85216e-20)
(1.12569 0.0642895 1.84542e-20)
(1.12226 0.0115713 -1.26976e-20)
(1.09796 -0.0346983 1.78185e-21)
(1.06628 -0.0516551 -3.16116e-20)
(-0.0976998 0.238934 1.14055e-19)
(0.0316791 0.236147 -7.56042e-19)
(0.293294 0.223736 2.6657e-18)
(0.796073 0.0122281 -4.84643e-19)
(1.06336 -0.183684 -3.04675e-18)
(1.12593 -0.298965 2.21584e-18)
(1.09287 -0.331536 -1.24037e-18)
(1.0242 -0.316813 2.25638e-19)
(0.952851 -0.272471 -6.65273e-20)
(0.891811 -0.210822 1.64769e-19)
(0.845768 -0.136348 -7.94293e-20)
(0.819434 -0.0478195 -1.86261e-20)
(0.833596 0.0542218 2.76488e-20)
(0.908206 0.13136 -6.42626e-20)
(1.0031 0.147105 -3.53816e-20)
(1.07571 0.114915 6.9301e-21)
(1.10486 0.0595836 -5.60546e-20)
(1.10546 0.0152818 4.64569e-20)
(1.08568 -0.0248867 3.96702e-20)
(1.0611 -0.0394518 -3.51837e-21)
(-0.101435 0.229248 -6.05721e-19)
(0.0295818 0.211016 9.22937e-19)
(0.344365 0.205948 -4.19766e-20)
(0.855621 0.00373492 -1.94169e-19)
(1.10179 -0.174573 -1.18115e-18)
(1.15101 -0.280445 2.04636e-18)
(1.11165 -0.309412 -9.7874e-20)
(1.04127 -0.295328 5.22199e-19)
(0.970753 -0.253517 -1.07996e-19)
(0.911893 -0.195508 -1.24076e-19)
(0.869306 -0.125786 3.51492e-20)
(0.847869 -0.0453325 8.24932e-21)
(0.862233 0.0422061 -6.87055e-21)
(0.923371 0.106964 -1.37822e-20)
(1.00082 0.122227 2.23799e-20)
(1.06122 0.0986782 -2.37442e-20)
(1.08775 0.0546029 3.00371e-20)
(1.09098 0.0176858 -6.31708e-20)
(1.07513 -0.0171468 -4.60252e-20)
(1.056 -0.0292903 -4.50446e-21)
(-0.106043 0.219446 1.1125e-20)
(0.0288415 0.183332 -1.08836e-18)
(0.403209 0.190278 -3.75239e-19)
(0.911952 -0.00294254 5.7374e-19)
(1.13568 -0.16435 2.99903e-18)
(1.17211 -0.261762 -1.37433e-18)
(1.12737 -0.287688 1.29906e-18)
(1.056 -0.274561 -6.0595e-19)
(0.986734 -0.235436 4.44452e-20)
(0.930175 -0.181238 2.19166e-19)
(0.890623 -0.116503 5.04019e-20)
(0.872512 -0.0437371 1.2138e-20)
(0.885835 0.0316908 5.13743e-22)
(0.935929 0.0866714 4.2448e-20)
(0.999454 0.10156 -9.83639e-21)
(1.04982 0.084612 -2.92492e-21)
(1.07384 0.0496228 -2.44416e-20)
(1.07856 0.0190963 2.06998e-20)
(1.06617 -0.0110458 3.37141e-20)
(1.05109 -0.0209426 -1.88812e-20)
(-0.111593 0.209471 -4.76502e-19)
(0.0323505 0.154426 3.39328e-19)
(0.468251 0.176624 -3.7505e-18)
(0.964261 -0.00772197 1.18445e-18)
(1.1651 -0.153238 -2.16811e-18)
(1.18951 -0.243137 1.68801e-18)
(1.14035 -0.266509 4.96831e-19)
(1.06865 -0.254587 -4.71456e-19)
(1.00097 -0.218235 1.1718e-19)
(0.946772 -0.167926 -2.16525e-19)
(0.909877 -0.108203 1.06461e-19)
(0.894004 -0.0426009 -3.46547e-22)
(0.90569 0.0227375 -2.82732e-20)
(0.946707 0.0698897 3.43942e-20)
(0.998914 0.0843707 -8.19307e-22)
(1.04099 0.0724786 2.69573e-21)
(1.06261 0.0448365 -2.19178e-20)
(1.06798 0.0197605 3.54376e-20)
(1.05861 -0.00623172 3.01479e-21)
(1.04649 -0.0141582 3.06664e-20)
(-0.118069 0.199124 2.12983e-18)
(0.0434385 0.126367 9.992e-19)
(0.537174 0.164575 2.64876e-18)
(1.01198 -0.0106551 -3.41197e-19)
(1.19022 -0.14146 -5.65763e-19)
(1.20356 -0.22476 -2.00026e-18)
(1.15088 -0.24599 -8.639e-19)
(1.07944 -0.235456 4.42304e-20)
(1.01364 -0.201905 -1.79111e-20)
(0.96181 -0.15548 8.25527e-20)
(0.927233 -0.100664 -7.46945e-20)
(0.912838 -0.0416508 -9.83334e-21)
(0.922621 0.0152493 2.00228e-20)
(0.956154 0.0560495 6.25185e-21)
(0.999075 0.0700726 7.03203e-21)
(1.03427 0.0620535 9.11671e-21)
(1.05358 0.0403666 -2.41763e-20)
(1.05905 0.0198728 -3.82707e-20)
(1.05225 -0.00242284 -3.43436e-20)
(1.04229 -0.00869832 -5.36647e-21)
(-0.125337 0.18806 -2.04583e-18)
(0.0652376 0.101662 -2.32254e-19)
(0.607458 0.153696 -2.1618e-18)
(1.05481 -0.0118969 -3.10202e-18)
(1.21126 -0.129227 -1.36027e-18)
(1.21461 -0.206781 2.87337e-18)
(1.15925 -0.226211 -6.47789e-19)
(1.08861 -0.217194 9.98363e-19)
(1.0249 -0.186422 1.44497e-19)
(0.975411 -0.143814 1.17765e-20)
(0.942859 -0.0937143 6.87591e-21)
(0.929414 -0.0407123 3.35494e-20)
(0.93722 0.00908888 1.84658e-21)
(0.964542 0.0446707 3.75295e-22)
(0.999787 0.0581855 4.06909e-21)
(1.02925 0.0531249 -4.17448e-21)
(1.04631 0.0362809 3.62885e-20)
(1.05158 0.0195901 1.92958e-20)
(1.04692 0.000606649 -1.33386e-21)
(1.03855 -0.00435032 -7.49041e-21)
(-0.133146 0.175808 9.82188e-19)
(0.0999036 0.0826793 -4.52706e-19)
(0.676829 0.143784 4.06367e-19)
(1.09272 -0.0116544 2.93685e-18)
(1.22852 -0.116725 2.70494e-19)
(1.22302 -0.189321 -1.32961e-18)
(1.16576 -0.207228 -3.77596e-19)
(1.09635 -0.199809 -4.91387e-19)
(1.03489 -0.171753 -2.68876e-19)
(0.987693 -0.13285 8.14875e-20)
(0.956913 -0.0872244 4.82705e-21)
(0.944053 -0.0396768 -2.71219e-20)
(0.949918 0.00410685 -9.36905e-21)
(0.97205 0.0353519 1.59188e-21)
(1.00092 0.048316 1.7964e-21)
(1.02557 0.0455024 2.4383e-20)
(1.04048 0.0326146 -2.21734e-21)
(1.04541 0.0190372 -1.71471e-22)
(1.04242 0.00303228 4.23803e-20)
(1.03526 -0.000920274 -3.75286e-21)
(-0.141141 0.161849 9.06853e-19)
(0.147959 0.0709825 2.76098e-19)
(0.743492 0.134938 1.93717e-18)
(1.1259 -0.0101441 -1.97171e-18)
(1.24234 -0.104113 -5.46167e-20)
(1.22912 -0.172464 -4.76927e-19)
(1.17067 -0.18907 5.95013e-19)
(1.10286 -0.183294 5.71173e-19)
(1.04375 -0.157858 -1.01503e-19)
(0.998767 -0.122516 -2.36236e-19)
(0.969543 -0.0810962 -4.66876e-20)
(0.957019 -0.038481 5.60655e-20)
(0.961041 0.000160154 -2.05425e-20)
(0.978809 0.0277636 -2.56542e-20)
(1.00236 0.0401391 -1.02884e-21)
(1.02295 0.0390234 9.2462e-21)
(1.03583 0.0293788 -1.41535e-20)
(1.04039 0.018304 -8.4249e-21)
(1.03859 0.00499795 1.1922e-20)
(1.03239 0.00177622 3.09676e-21)
(-0.148856 0.145738 -2.60594e-18)
(0.208044 0.0668212 -2.02714e-18)
(0.806135 0.12744 1.18938e-18)
(1.15461 -0.00757115 1.88321e-18)
(1.25307 -0.091522 -2.32958e-19)
(1.23325 -0.156269 6.91119e-19)
(1.17422 -0.171749 8.57893e-19)
(1.10829 -0.167629 -1.77156e-19)
(1.05159 -0.144696 4.4614e-19)
(1.00873 -0.11275 3.17641e-19)
(0.980883 -0.0752549 1.22324e-19)
(0.968526 -0.0370926 2.92308e-21)
(0.970842 -0.00288144 4.58417e-22)
(0.98492 0.0216339 3.8347e-20)
(1.00403 0.0333842 -1.43329e-20)
(1.02117 0.0335549 -3.29668e-20)
(1.03215 0.0265566 2.51951e-20)
(1.03636 0.0174559 3.28e-20)
(1.0353 0.0066398 -1.83524e-20)
(1.02992 0.00392161 -1.68686e-20)
(-0.155708 0.127266 8.86126e-19)
(0.277227 0.0690349 1.7091e-18)
(0.863854 0.121545 1.04393e-18)
(1.17921 -0.00412687 -3.03218e-18)
(1.26108 -0.079056 3.60011e-19)
(1.23571 -0.140771 1.17776e-19)
(1.17663 -0.155259 -6.45663e-19)
(1.11279 -0.152786 -7.46842e-19)
(1.05852 -0.132222 -3.41405e-20)
(1.01769 -0.103495 -2.08145e-19)
(0.991055 -0.0696442 -1.80482e-19)
(0.978757 -0.0355001 1.40544e-19)
(0.979517 -0.00513342 -1.72155e-21)
(0.990462 0.0167352 -5.94488e-20)
(1.00584 0.0278295 3.87648e-23)
(1.02003 0.0289861 1.7596e-20)
(1.02928 0.0241023 -5.43193e-20)
(1.03316 0.0165638 -2.09844e-20)
(1.03245 0.00808943 1.06949e-20)
(1.02785 0.00559313 2.77545e-20)
(-0.160961 0.106629 1.00546e-18)
(0.351776 0.0754354 -5.84117e-19)
(0.916104 0.117344 -2.38153e-18)
(1.20005 1.02472e-05 -9.24598e-19)
(1.2667 -0.0667972 2.65951e-19)
(1.23676 -0.125984 -3.20833e-19)
(1.17808 -0.139582 7.57442e-19)
(1.1165 -0.138733 6.73049e-20)
(1.06462 -0.120392 -1.92894e-19)
(1.02571 -0.0947041 2.46966e-19)
(1.00017 -0.0642221 2.39326e-20)
(0.987863 -0.0337058 -9.62309e-20)
(0.987223 -0.00669751 7.29074e-20)
(0.995498 0.0128759 7.1374e-20)
(1.00774 0.0232966 3.74246e-20)
(1.01939 0.0252135 -2.65309e-20)
(1.02709 0.0219585 2.57623e-20)
(1.03063 0.0157288 -9.95274e-21)
(1.02997 0.00941536 9.53548e-21)
(1.02629 0.00685414 -1.97856e-21)
(-0.163706 0.0845222 -1.25927e-18)
(0.428077 0.0835104 2.01062e-18)
(0.962679 0.114742 4.5808e-19)
(1.21746 0.00467643 1.45764e-18)
(1.27028 -0.0548072 9.02456e-19)
(1.23664 -0.11191 -7.4263e-19)
(1.17873 -0.124693 -8.21408e-19)
(1.1195 -0.125431 2.11159e-19)
(1.06997 -0.109166 1.55222e-19)
(1.03288 -0.086335 -6.59368e-20)
(1.00832 -0.0589576 8.35859e-20)
(0.995973 -0.0317202 7.10186e-20)
(0.994087 -0.00766359 -6.40883e-20)
(1.00008 0.00989508 1.9694e-22)
(1.00968 0.0196413 -1.12759e-21)
(1.01914 0.0221322 -2.28283e-20)
(1.02546 0.0200871 -1.00634e-20)
(1.02862 0.0150612 -2.34448e-20)
(1.02787 0.0105935 1.68454e-20)
(1.02532 0.00746019 -1.84971e-20)
(-0.162873 0.0621605 1.29418e-18)
(0.503335 0.0911384 -2.12439e-18)
(1.0037 0.113543 -3.565e-19)
(1.23181 0.00972767 -1.3582e-18)
(1.27211 -0.0431293 -9.35994e-19)
(1.23557 -0.0985369 -5.02754e-19)
(1.17872 -0.110559 -7.20519e-20)
(1.1219 -0.112842 3.41075e-19)
(1.07464 -0.0985006 -1.47008e-19)
(1.03927 -0.0783508 -2.03481e-19)
(1.0156 -0.0538276 1.21442e-19)
(1.0032 -0.0295585 -7.66729e-20)
(1.00021 -0.00811119 1.82845e-20)
(1.00426 0.0076589 2.34842e-20)
(1.01162 0.0167433 9.13779e-23)
(1.01917 0.0196404 2.2562e-20)
(1.0243 0.0184867 4.65482e-21)
(1.02701 0.0146179 1.80461e-20)
(1.02618 0.0114303 -1.35644e-20)
(1.025 0.0078058 2.22297e-20)
(-0.157283 0.0411879 -1.05708e-18)
(0.575845 0.0970293 6.1982e-19)
(1.03954 0.113542 2.22044e-18)
(1.24342 0.0150451 7.5019e-19)
(1.27247 -0.0317906 -1.34152e-19)
(1.23373 -0.0858434 1.49022e-18)
(1.17816 -0.0971429 2.19183e-19)
(1.12378 -0.100923 -1.28368e-19)
(1.0787 -0.0883582 2.07014e-19)
(1.04494 -0.0707196 -1.56234e-20)
(1.02208 -0.0488158 -4.15046e-20)
(1.00963 -0.0272389 1.35147e-19)
(1.00568 -0.00811088 -8.44631e-20)
(1.00806 0.0060559 -1.1651e-19)
(1.01351 0.0144977 -4.21284e-20)
(1.01943 0.0176524 3.18569e-20)
(1.02351 0.0171732 5.44808e-21)
(1.02573 0.0143315 1.24678e-20)
(1.02501 0.0118945 -1.11114e-20)
(1.02402 0.00885027 -2.27982e-20)
(-0.145733 0.023522 -8.58745e-19)
(0.644837 0.100789 -1.69382e-18)
(1.07072 0.114582 -3.88435e-18)
(1.25261 0.0205355 2.57611e-18)
(1.27161 -0.0208056 1.50126e-18)
(1.23127 -0.0738035 -1.39123e-18)
(1.17715 -0.0844061 6.1631e-19)
(1.12519 -0.0896358 1.06992e-19)
(1.08219 -0.0787027 -3.15221e-19)
(1.04996 -0.0634139 2.20798e-19)
(1.02784 -0.0439106 7.60282e-20)
(1.01535 -0.0247802 -2.07098e-19)
(1.01056 -0.00772471 1.08999e-19)
(1.01152 0.00499296 1.26142e-19)
(1.01535 0.0128132 -1.57932e-20)
(1.01985 0.0161025 2.46014e-20)
(1.02301 0.0161324 3.32373e-20)
(1.02478 0.0141215 6.10721e-21)
(1.02402 0.012317 -4.6013e-21)
(1.02338 0.00947722 2.32728e-20)
(-0.127128 0.0111542 1.74503e-19)
(0.710103 0.102707 -1.24336e-18)
(1.09782 0.116567 -1.93857e-18)
(1.25967 0.0261304 -2.87379e-18)
(1.26972 -0.0101775 -1.41802e-18)
(1.22833 -0.0623856 6.13683e-19)
(1.17577 -0.072309 -7.81362e-19)
(1.12619 -0.0789408 1.44734e-19)
(1.08516 -0.0695005 -1.77447e-20)
(1.05436 -0.0564098 -3.84919e-19)
(1.03294 -0.0391041 -1.31591e-19)
(1.02044 -0.0222023 -2.69129e-20)
(1.01492 -0.00700767 -9.87381e-21)
(1.01467 0.00439099 -4.2541e-20)
(1.01711 0.0116115 5.7917e-20)
(1.02038 0.0149339 -5.9039e-20)
(1.02273 0.0153358 -3.68702e-20)
(1.02405 0.0140283 -3.59381e-20)
(1.02332 0.0125379 1.51617e-20)
(1.02277 0.0102349 3.80115e-21)
(-0.100615 0.00592113 1.53109e-18)
(0.771634 0.103438 1.27283e-18)
(1.12139 0.119446 1.11819e-18)
(1.26485 0.0317803 1.581e-18)
(1.26701 9.79004e-05 2.43783e-20)
(1.22502 -0.0515558 3.55227e-19)
(1.17408 -0.0608124 3.4252e-19)
(1.12682 -0.0688004 -4.73132e-19)
(1.08767 -0.0607208 6.56469e-20)
(1.05821 -0.0496863 5.88261e-20)
(1.03743 -0.0343909 5.0995e-20)
(1.02494 -0.0195238 1.12287e-19)
(1.01881 -0.00600793 5.01385e-20)
(1.01753 0.00418303 2.03968e-20)
(1.01878 0.0108245 -8.17583e-20)
(1.02099 0.0140965 1.24403e-21)
(1.02262 0.0147759 1.35912e-20)
(1.02353 0.0139719 6.3736e-21)
(1.02279 0.0128183 -8.02769e-21)
(1.0222 0.0109384 -5.53185e-23)
(-0.0657552 0.00924913 -8.93829e-19)
(0.82938 0.103738 4.26268e-19)
(1.14188 0.123189 -3.1589e-19)
(1.26838 0.0374498 6.22705e-20)
(1.26361 0.0100298 -1.71649e-19)
(1.22142 -0.041279 -1.6582e-19)
(1.17213 -0.049878 -5.13125e-19)
(1.12713 -0.059179 -1.17198e-19)
(1.08973 -0.0523351 -6.51249e-20)
(1.06155 -0.0432253 1.3801e-19)
(1.04138 -0.0297679 -2.68749e-21)
(1.02892 -0.0167632 8.5417e-20)
(1.02226 -0.00476788 -6.96417e-20)
(1.02011 0.00431159 7.50511e-20)
(1.02035 0.0103935 -1.96545e-20)
(1.02165 0.0135525 8.17152e-20)
(1.02264 0.0144103 -5.75579e-20)
(1.02317 0.0140185 2.45866e-22)
(1.02235 0.0130762 -3.93577e-20)
(1.02178 0.0115349 -2.88628e-21)
(-0.0226722 0.0218766 1.96145e-18)
(0.883158 0.104283 2.02184e-19)
(1.15966 0.127764 1.85192e-18)
(1.27046 0.0431126 -7.37783e-20)
(1.25966 0.01963 9.28384e-19)
(1.21761 -0.0315199 -8.57592e-19)
(1.16997 -0.0394694 5.02767e-19)
(1.12715 -0.0500426 -2.4893e-19)
(1.0914 -0.0443174 1.55409e-19)
(1.06441 -0.0370109 2.34165e-19)
(1.04482 -0.0252331 -2.38111e-20)
(1.03242 -0.0139375 -1.01907e-19)
(1.02532 -0.00332463 -1.17512e-19)
(1.02243 0.00472715 1.89683e-20)
(1.0218 0.0102686 -1.73656e-20)
(1.02232 0.0132608 -3.80675e-20)
(1.02275 0.0142351 -1.76321e-20)
(1.02292 0.0141281 2.34204e-20)
(1.02205 0.013358 7.26004e-21)
(1.02137 0.0121922 3.71462e-21)
(0.0278289 0.0435883 2.59309e-19)
(0.93267 0.105562 6.55105e-19)
(1.17503 0.133119 -2.14328e-18)
(1.27128 0.0487476 1.44211e-19)
(1.25526 0.0289111 -1.40746e-18)
(1.21365 -0.0222444 1.95327e-19)
(1.16762 -0.0295519 5.73295e-19)
(1.12689 -0.04136 3.23081e-20)
(1.09269 -0.0366441 3.27106e-19)
(1.06684 -0.031029 -6.97786e-20)
(1.0478 -0.0207856 -5.76282e-20)
(1.03548 -0.0110626 7.83671e-20)
(1.02802 -0.00171083 -3.35637e-20)
(1.02451 0.00538703 3.26763e-20)
(1.02314 0.0104057 1.707e-20)
(1.02298 0.0131935 -3.43204e-20)
(1.02291 0.0142194 4.51362e-20)
(1.02277 0.0143193 -4.36975e-20)
(1.02178 0.0136937 2.2752e-20)
(1.02107 0.0127271 -1.7564e-20)
(0.084239 0.0730377 -1.74413e-18)
(0.977572 0.107833 -3.98878e-19)
(1.18818 0.139174 2.95954e-19)
(1.271 0.0543368 -7.27981e-19)
(1.2505 0.0378856 1.24944e-18)
(1.20958 -0.0134196 1.04831e-18)
(1.16512 -0.0200934 -3.20913e-19)
(1.1264 -0.0331015 3.13554e-19)
(1.09364 -0.0292936 -4.23183e-19)
(1.06887 -0.0252673 2.59833e-20)
(1.05035 -0.0164252 1.43734e-19)
(1.03814 -0.00815291 4.30728e-20)
(1.03039 4.48799e-05 4.02081e-20)
(1.02636 0.00625398 5.59439e-20)
(1.02435 0.0107677 -1.01454e-19)
(1.02362 0.0133191 3.88239e-20)
(1.02312 0.0143527 -2.71685e-20)
(1.02267 0.0145889 5.15331e-20)
(1.0216 0.0140329 -2.95742e-21)
(1.02078 0.0133391 5.71166e-21)
(0.144465 0.107764 -3.68904e-20)
(1.01758 0.111109 1.1502e-18)
(1.19928 0.14582 -1.01541e-18)
(1.26976 0.0598634 -2.91905e-19)
(1.24545 0.0465649 -2.74415e-19)
(1.20543 -0.00501455 -2.37717e-19)
(1.16247 -0.0110638 -8.01538e-19)
(1.12568 -0.02524 -4.91449e-20)
(1.09426 -0.0222463 -2.98274e-20)
(1.07053 -0.0197148 -2.78564e-19)
(1.05251 -0.0121521 -1.36351e-19)
(1.04044 -0.00522189 -6.52335e-20)
(1.03245 0.00191729 1.7553e-20)
(1.02799 0.00729581 -7.2552e-20)
(1.02545 0.0113212 5.47708e-20)
(1.02423 0.0136146 1.81424e-20)
(1.02333 0.014617 5.54345e-21)
(1.02262 0.0149211 -7.35402e-21)
(1.02144 0.0144438 7.03566e-21)
(1.02054 0.0138729 1.51031e-20)
(0.206111 0.144497 5.39525e-19)
(1.05258 0.115207 -9.43987e-19)
(1.20846 0.152922 3.18909e-20)
(1.26771 0.0653124 1.2236e-19)
(1.24017 0.0549599 -8.05175e-19)
(1.20123 0.00299955 -2.04721e-19)
(1.15971 -0.00243554 1.21457e-19)
(1.12475 -0.0177502 8.06793e-20)
(1.0946 -0.0154845 1.16652e-19)
(1.07184 -0.0143615 -9.70591e-20)
(1.05431 -0.00796688 -1.14308e-19)
(1.0424 -0.00228156 -1.18848e-19)
(1.03423 0.00388423 7.29217e-20)
(1.02942 0.00848416 -3.94448e-20)
(1.02642 0.0120382 5.41661e-20)
(1.02478 0.0140571 2.35739e-20)
(1.02355 0.0149959 -3.17316e-20)
(1.02259 0.0153293 -2.26773e-21)
(1.02131 0.0148606 6.11388e-21)
(1.02031 0.0144669 3.76532e-21)
(0.266885 0.179744 -1.39505e-19)
(1.08266 0.119824 7.32523e-19)
(1.21585 0.160336 6.24125e-19)
(1.26496 0.0706714 -6.54552e-19)
(1.23472 0.0630805 1.4617e-18)
(1.197 0.0106496 -1.39494e-19)
(1.15683 0.00581683 6.92833e-19)
(1.12363 -0.010609 -1.06786e-19)
(1.09465 -0.00899216 3.87368e-20)
(1.07284 -0.00919866 2.54896e-19)
(1.05577 -0.00387042 2.60586e-19)
(1.04404 0.000657236 8.20795e-20)
(1.03575 0.00592612 -7.69346e-20)
(1.03066 0.00979438 5.07141e-20)
(1.02728 0.0128934 1.63898e-20)
(1.02528 0.0146266 -9.56487e-20)
(1.02375 0.0154796 -1.37172e-20)
(1.02258 0.015787 1.44511e-20)
(1.02119 0.0153427 -2.11048e-20)
(1.0201 0.0150234 -3.02323e-21)
(0.324992 0.210518 1.26872e-18)
(1.10815 0.124641 7.94748e-20)
(1.22156 0.167922 -8.84185e-19)
(1.26165 0.0759321 -3.3754e-19)
(1.22913 0.0709366 -6.63254e-19)
(1.19275 0.0179604 -4.20041e-19)
(1.15386 0.0137165 -1.91066e-19)
(1.12233 -0.00379467 3.56055e-20)
(1.09446 -0.00275469 5.39198e-20)
(1.07354 -0.00421841 -5.40947e-20)
(1.05693 0.0001364 -1.90436e-19)
(1.0454 0.00358471 -3.96176e-20)
(1.03702 0.00802567 -6.88237e-20)
(1.03171 0.0112047 -2.07572e-20)
(1.02801 0.013865 -7.87808e-20)
(1.02572 0.0153064 5.94406e-20)
(1.02393 0.0160498 4.49876e-20)
(1.02257 0.0163093 -3.7237e-21)
(1.02108 0.0158388 -4.84554e-21)
(1.0199 0.0156201 2.21896e-20)
(0.379393 0.234955 -2.99658e-18)
(1.12958 0.129402 8.88005e-20)
(1.22575 0.175558 -2.83761e-19)
(1.25786 0.0810907 4.49239e-19)
(1.22345 0.0785378 -4.1715e-19)
(1.18848 0.024955 1.09387e-18)
(1.15079 0.0212846 -1.33283e-19)
(1.12087 0.00271237 5.73552e-19)
(1.09402 0.00324104 -1.32422e-19)
(1.07398 0.000586439 -1.34627e-19)
(1.0578 0.00405258 -5.74875e-20)
(1.04649 0.0064921 7.17635e-20)
(1.03806 0.0101676 4.75573e-20)
(1.03258 0.012696 -5.38602e-22)
(1.02862 0.0149339 3.30061e-20)
(1.02608 0.0160793 -1.67567e-20)
(1.02407 0.0167004 -1.33133e-20)
(1.02255 0.0168717 -2.9762e-20)
(1.02097 0.0163869 1.55758e-20)
(1.0197 0.0162036 1.56929e-20)
(0.429816 0.252564 1.06532e-19)
(1.14758 0.133961 -7.31063e-19)
(1.22857 0.183154 6.62432e-19)
(1.2537 0.0861482 3.27598e-19)
(1.21769 0.0858938 1.81784e-19)
(1.18421 0.0316544 -4.20387e-19)
(1.14763 0.0285404 3.81498e-19)
(1.11925 0.00893034 -1.40591e-19)
(1.09336 0.00900689 1.20365e-19)
(1.07415 0.00522237 9.6064e-20)
(1.05841 0.0078771 2.01037e-19)
(1.04733 0.00937159 6.92992e-20)