/*--------------------------------*- C++ -*----------------------------------*\
  =========                 |
  \\      /  F ield         | OpenFOAM: The Open Source CFD Toolbox
   \\    /   O peration     | Website:  https://openfoam.org
    \\  /    A nd           | Version:  7
     \\/     M anipulation  |
\*---------------------------------------------------------------------------*/
FoamFile
{
    version     2.0;
    format      ascii;
    class       volScalarField;
    location    "4.8";
    object      T;
}
// * * * * * * * * * * * * * * * * * * * * * * * * * * * * * * * * * * * * * //

dimensions      [0 2 -2 0 0 0 0];

internalField   nonuniform List<scalar> 
19392
(
2.18796e-06
0.00498662
5.10184e-33
-1.60954e-150
8.87199e-142
1.91327e-163
1.06074e-07
1.85827e-35
5.28463e-38
0.223931
0.0921898
-2.32138e-130
1.09348e-117
2.20191e-111
1.15863e-104
4.70674e-98
2.23274e-85
2.28559
8.17249
23.5675
0.516762
80.3123
148.439
0.0358405
0.00126805
3.5328e-05
3.5287e-158
4.97249e-07
1.1704e-152
3.6447e-09
1.96746e-11
3.89051e-13
233.755
-4.88387e-148
6.43682e-15
5.05206e-165
7.2293e-18
5.8646e-20
4.21561e-22
2.09218e-24
1.18634e-144
6.67576e-27
2.20007e-29
8.0381e-32
6.59735e-170
3.23543e-34
1.04464e-36
2.54937e-39
2.83951e-42
4.44112
14.2607
1.11926
1.34952e-10
2.85503e-12
188.827
5.00079e-14
6.37762e-19
-2.76969e-147
5.36174e-21
-5.49823e-137
3.08071e-23
1.25203e-25
1.4191e-167
3.91269e-45
1.4112e-30
0.000130214
8.92271e-06
3.01211e-48
8.80628e-133
4.11541e-127
7.47831e-120
1.71487e-51
-3.57251e-135
3.21871e-113
1.20694e-46
3.58072e-28
6.22556e-107
-1.56108e-128
3.95806e-100
7.39877e-50
1.95438e-56
3.30944e-94
1.65687e-90
3.38175e-59
4.66973e-87
3.13449e-62
3.49359e-109
6.00353e-82
1.61794e-65
4.74201e-78
2.16677e-74
2.40546e-102
6.24247e-69
4.08106e-96
8.88595e-58
1.08113e-60
7.18931e-64
6.8681e-80
0.00043354
1.0601e-155
1.92097e-08
2.46232e-115
4.01914e-122
111.758
3.03472e-67
3.2464e-53
8.71697e-89
0.0136006
2.16815e-92
1.55341e-124
9.88515e-41
55.689
2.95168e-139
36.9268
9.3303e-71
8.58009e-154
1.27416e-171
9.42962e-16
1.65433e-72
9.56899e-44
2.49096e-76
7.57264e-10
8.3971e-161
6.42543e-17
5.27585e-55
7.6904e-84
275.398
234.59
1.99183e-08
3.17555e-78
289.141
78.7376
3.4338e-07
74.3084
125.388
2.14672e-25
-3.44544e-98
1.79749e-11
1.53716e-05
270.464
9.41996
4.0195e-33
93.8352
7.0313e-30
262.62
112.16
2.89954e-82
23.7172
286.895
3.43066e-10
1.03163e-09
5.13029e-100
78.7812
6.95348e-43
4.55088e-31
7.65558e-39
3.74264e-16
76.7059
-9.98205e-112
3.28205e-79
215.796
5.67166e-34
234.409
0.0145334
8.80759e-41
241.81
6.35079
117.396
104.521
0.000725451
5.38401e-77
210.321
6.55384e-05
-2.84167e-137
0.477609
283.969
94.9964
151.362
3.63628e-07
2.57922e-16
245.627
5.43907e-56
122.283
-1.96888e-110
3.88585e-06
0.0366822
1.75449e-158
118.236
67.1229
103.418
0.00199658
2.4564e-05
2.55126e-39
94.2585
235.513
2.24001e-88
1.70888e-37
199.759
3.31007e-41
2.10724e-05
141.625
0.0148184
3.52738e-23
225.942
1.11957e-05
-2.29009e-99
257.672
208.671
1.30199e-11
287.051
231.077
1.01783e-12
241.506
285.915
284.603
3.65752e-10
32.3885
7.48334e-107
5.7142e-166
7.06218e-64
8.63565e-16
3.79785e-15
210.345
280.663
1.52293
222.776
2.14702e-43
1.41067e-36
48.7596
9.66216e-54
5.31653e-77
-1.73137e-53
0.0397936
281.75
128.562
259.049
0.321778
196.031
24.9925
2.82942e-07
0.033733
0.22743
242.274
2.87219e-34
7.39384e-26
2.58407e-05
22.9038
167.618
1.8108e-84
4.58595e-29
20.3109
280.008
1.05598e-50
240.807
142.115
29.7146
2.68701e-59
104.917
0.0180416
0.00145403
8.49918e-39
215.315
3.53865e-38
175.693
-4.91418e-133
3.10023e-88
270.373
121.257
5.8212
1.74284e-85
150.54
4.48904e-26
202.197
225.116
241.111
205.013
2.16857e-70
2.65889e-43
1.99477e-144
151.581
183.014
1.04162e-19
241.962
111.781
4.4645
82.7665
9.89161e-146
279.884
7.12056e-08
86.0983
2.7796e-96
-2.81575e-52
2.81139e-10
167.104
71.9819
105.492
57.5042
-3.14792e-137
151.698
1.56118e-11
42.1852
88.1496
36.4985
3.78981e-32
9.62811e-45
43.8869
273.964
210.541
3.13368e-11
7.09416e-19
119.082
1.18835e-159
4.727e-48
290.057
29.6279
259.062
128.608
5.51624e-08
31.3051
0.00623023
16.6501
202.921
230.909
135.781
2.23662e-67
-1.99481e-134
198.748
0.001056
1.60256e-39
237.68
1.23196e-36
0.000145912
4.09086e-69
2.5569e-57
95.0781
-4.14761e-54
229.358
273.837
149.498
6.16235e-13
154.523
2.3601e-16
6.86848e-56
0.00122587
28.236
25.4565
228.687
2.34044e-30
1.77255e-24
263.637
8.23266e-16
0.0253579
141.378
-3.49163e-148
2.35359e-19
1.16571e-08
2.42695e-76
21.8525
4.52683
1.38231e-07
1.34016e-26
98.5793
241.406
1.20644e-156
28.4477
1.06271e-144
0.0035356
0.000138558
278.097
111.409
140.676
1.89745e-05
1.38028e-17
1.99519e-90
177.541
1.45796e-44
2.74064e-17
145.159
3.52963e-50
282.089
0.00797883
2.04732e-11
257.243
29.2943
1.56139e-45
4.96449
1.12911e-06
269.811
2.70936e-23
207.615
1.54317e-18
0.000894496
2.04623e-10
52.9879
205.24
149.742
149.109
1.60887e-31
210.276
1.1688e-15
3.64128e-16
1.54907e-69
2.69749e-65
279.918
3.72925e-18
175.98
269.827
22.3918
247.967
4.74074e-97
25.7851
9.83161e-13
1.56846e-17
1.14129e-09
5.02816e-108
5.31152e-07
1.66475e-05
7.82568e-05
136.081
204.338
1.21656e-10
248.193
32.0828
5.7126
262.272
3.18007
201.466
-2.34069e-40
6.97164e-19
1.51301e-07
207.333
2.6479e-62
8.31727e-09
5.34338e-06
3.44197e-24
7.3968e-18
6.16004e-12
9.68289e-23
-4.05833e-146
4.51273e-26
296.535
1.85486e-56
205.037
0.0015263
107.08
1.09191e-46
237.192
200.732
236.211
203.529
8.78654
256.871
7.72207
0.583715
0.000553304
6.99781e-11
5.18897e-64
180.761
-1.20032e-60
93.9046
2.54777e-98
-3.16449e-81
207.085
-3.84891e-98
109.599
249.038
294.076
1.68355e-42
286.232
187.055
1.64545e-164
5.24319e-78
0.93939
-1.89166e-66
283.407
1.35446e-16
5.0635e-25
4.23288
0.00327241
2.04008e-11
213.017
8.46e-06
217.725
280.605
4.36408e-06
4.8289e-07
0.0233765
285.168
2.91685
262.976
2.00389e-08
3.12597e-35
2.71072e-25
7.9404e-27
5.07482e-12
0.156943
238.986
3.99154e-111
1.478e-18
228.819
72.3066
147.105
3.67356e-40
1.05965e-45
11.6258
-1.31631e-98
3.15195e-12
229.769
126.548
36.9296
170.024
125.452
2.51112e-131
78.2455
20.9559
3.84471e-82
2.49216e-25
75.8611
1.47503e-86
130.929
285.48
241.95
5.25916e-35
16.742
1.03656e-77
2.67408e-25
19.2106
124.89
114.259
3.37197
3.74686e-32
1.30514e-52
2.51705e-68
56.5559
4.74886e-37
5.84078e-57
5.45628e-06
4.69487e-70
253.049
3.76631e-05
200.046
2.43623e-66
3.99192e-81
292.447
6.26339e-07
7.94518
6.46007e-71
3.31702
209.675
290.543
170.24
0.0388027
123.812
6.65142e-141
2.86982e-60
151.241
1.26285e-61
0.00211694
-3.37059e-99
5.0943e-57
111.698
1.76043e-62
20.2603
-1.53381e-99
-1.85485e-64
3.78553e-43
9.63983e-25
120.536
153.734
24.6188
2.69143e-30
1.35368e-58
2.39188
77.9042
4.02222e-10
1.56121e-14
6.70986e-33
5.21637e-09
7.98659e-19
22.7531
1.85342e-25
8.15361e-73
195.858
6.12718e-06
200.753
-5.21697e-80
0.0193991
3.06386e-40
4.58629e-32
267.138
28.8669
24.0654
9.71713e-130
0.0111961
2.68202e-30
98.0318
2.26001e-06
108.739
3.35784e-06
3.45753e-39
61.0481
177.295
232.413
219.064
5.60289e-41
1.89632e-44
0.0234521
66.6209
26.0117
190.02
2.69874
4.74969e-06
14.8673
7.70253e-147
241.44
0.0133493
228.106
200.69
0.152523
5.86099e-73
295.967
0.984668
2.18901e-24
115.615
266.221
4.08711e-72
9.98417e-15
8.40856e-71
91.3271
209.431
127.692
-1.12731e-65
3.30236e-128
177.82
93.0779
4.50733e-24
116.604
17.4083
4.5664
0.014803
3.14063e-06
0.357574
1.25837e-10
22.8049
244.578
3.0067e-103
4.88342
134.48
3.15699e-10
32.6324
114.905
143.136
0.00230344
3.0235e-23
0.0117698
1.16342e-31
0.216932
146.333
206.32
-3.68713e-58
234.228
4.1574e-162
26.4029
276.328
6.45031e-142
77.6878
0.13124
1.34131e-46
151.02
8.77677e-06
22.6291
3.65999e-130
1.03689e-123
3.4736e-06
6.04441e-110
5.12013e-11
111.762
22.0721
5.57729e-42
226.702
283.236
287.01
0.397192
1.47964e-36
194.893
254.307
26.7328
257.148
289.816
100.661
105.254
4.2105e-05
2.83617e-120
102.345
233.459
217.361
163.16
146.49
45.5727
251.651
229.15
281.724
1.48273e-73
1.42383e-155
146.718
162.199
210.841
275.707
2.26276
0.00985594
4.4933e-16
0.0109909
229.01
9.12125e-11
3.80811e-46
1.41193e-44
205.428
266.263
2.28361e-67
257.184
46.375
8.61741e-26
1.61015e-154
6.27802e-24
1.98112
2.74603e-24
20.8163
0.00141182
140.377
92.6348
115.394
0.00628046
89.6152
7.18797e-123
233.336
45.6536
5.57456e-14
281.437
0.00130803
156.066
1.02035e-05
0.00470333
139.524
5.42016e-14
3.74554
4.28183e-41
1.19341e-34
8.66966e-104
1.25826e-66
6.0507e-68
0.139039
160.647
140.947
3.5143e-16
3.69871e-05
0.00085058
189.3
4.6883e-40
2.68781
2.20707e-05
3.87433
7.54465e-99
90.613
8.28888e-91
0.0701708
95.2329
171.166
5.72526e-105
2.1188e-05
3.64546e-65
0.542257
2.18776e-78
20.2611
22.579
0.0174473
1.38656e-28
214.461
5.55892e-25
0.144661
3.54663e-36
3.87075e-105
3.04436e-12
2.36889e-81
19.4331
173.184
26.0237
227.953
0.0172333
1.16194e-160
1.97752e-54
211.249
-1.75291e-62
2.84401e-121
4.30322e-153
167.543
230.778
1.92697e-59
98.3082
286.103
1.10767e-56
5.61511e-18
1.37515e-08
0.0249444
5.56249e-31
4.33989e-35
241.62
237.2
1.03051e-42
218.403
4.61362e-15
1.29124e-102
250.731
4.20877e-12
279.817
-1.51467e-67
124.74
2.68195e-10
285.525
1.80932e-38
4.75021e-25
121.201
8.07082e-155
284.238
4.92567e-17
4.48634e-88
189.485
285.788
212.971
0.0112961
1.67809e-103
6.52526e-58
139.854
6.80419e-05
1.65596e-30
2.74423
-4.55905e-134
292.502
237.38
1.35721e-26
4.837e-36
278.561
196.981
181.459
5.91221e-16
3.93629
233.963
282.903
148.938
191.572
9.51615e-72
2.6746e-07
127.048
2.06085e-32
-2.64246e-80
106.045
276.148
263.819
1.73817e-06
267.166
5.25058e-63
2.79964
2.14943e-33
0.694719
114.353
2.69868
0.00181969
81.4447
0.0306114
5.355e-07
2.10474e-28
0.449503
0.141963
0.168999
7.99324e-58
1.66581e-12
4.38571e-37
0.0851831
23.593
5.51685
233.326
279.748
6.82574e-09
170.912
245.083
-1.72816e-143
2.30914e-34
131.656
234.771
286.462
149.595
0.00207596
5.2806e-10
1.92501
146.074
3.69821e-13
-7.1209e-134
282.835
4.54774e-08
1.81512e-53
259.244
1.74492
6.75353e-102
0.594677
0.000662979
134.966
0.951611
2.95468e-12
289.753
-2.75214e-116
1.80868e-19
243.018
2.57928e-91
3.00094e-05
23.7147
-2.62999e-119
1.27572e-14
-1.0199e-73
29.7287
3.19847
5.06402e-12
36.8906
7.95036e-54
1.28439e-11
5.93677e-30
1.94128e-68
9.30849e-63
114.475
4.79266e-17
3.95554e-102
170.673
186.216
3.79936e-06
6.60851e-33
7.84527e-15
9.70782e-84
1.10527e-91
-6.10728e-73
77.5482
97.2435
247.842
1.94437e-06
24.7082
1.58601e-16
151.961
6.30602e-14
122.819
4.30295e-32
7.74726e-36
3.52588
171.411
5.13806e-169
3.93712e-07
0.000105197
267.178
0.00420066
173.298
2.69605e-107
206.873
207.354
7.55087e-07
0.000231862
4.00151e-125
222.44
32.9317
-2.99223e-82
6.41035e-16
116.515
107.895
115.9
0.332504
99.3759
187.189
186.336
237.746
0.00389295
9.53208e-06
288.986
215.017
-1.93443e-60
3.81513e-41
-3.03954e-98
247.388
1.54906e-141
285.382
206.333
30.6787
3.56909
12.7164
153.005
1.91477e-16
111.985
187.337
0.256779
1.09983e-14
277.515
1.5209e-57
4.43065e-09
27.3069
7.1237e-29
1.32183e-06
241.861
149.683
3.28954e-65
115.787
283.345
-5.46228e-111
2.69423e-126
3.38254e-60
1.92678e-05
2.51973e-63
4.58616e-48
4.74993e-07
-7.7004e-142
2.73882e-15
0.850697
2.62018e-06
94.2029
138.308
1.40367e-18
9.38058e-43
6.39209
6.91669e-07
-4.67989e-117
0.000995919
184.065
0.00141878
3.58598e-06
264.469
160.875
284.885
194.677
92.3496
2.93207e-11
90.7142
124.717
6.63088e-97
261.574
2.01975e-101
2.23268e-157
2.82309e-59
0.171615
279.779
242.824
3.14259e-23
-1.50154e-59
1.15642e-08
9.64915e-29
1.57627e-16
155.581
2.67378e-07
2.43051e-32
1.31614e-70
9.08908e-168
0.00199465
0.00025601
1.65536e-06
2.07366e-28
1.26022e-26
9.02785e-08
1.80225e-26
4.58623e-22
120.909
1.22334e-79
244.456
117.885
40.0963
126.066
284.198
1.29122e-10
2.02866e-37
45.5544
3.46138
271.551
246.357
0.0337022
3.21746e-07
0.117795
246.71
1.09157e-97
6.7638e-75
3.09954e-47
200.986
1.02154e-41
16.9461
1.27469e-69
7.90032e-163
0.0586984
240.448
187.325
4.6829e-41
4.35338e-89
-3.89284e-49
137.249
17.8026
1.75746
39.8954
135.845
153.392
129.015
1.80274e-59
-1.75542e-99
2.02388e-74
234.304
1.41136e-71
218.355
1.56214e-05
8.94105e-61
2.35567e-12
2.45184e-12
2.13099e-10
2.23828e-08
3.57976e-16
194.713
119.609
0.0604625
255.194
0.0597493
285.017
8.7577e-17
280.988
0.023322
169.015
-3.53348e-139
201.183
2.66923e-86
1.85489
3.58163e-24
1.45559e-06
67.4988
3.40094e-18
1.55618e-41
258.137
87.0142
1.91188e-69
41.1312
123.636
246.135
7.61323e-29
133.127
108.934
239.444
191.472
6.67709e-09
3.81054e-09
1.23182e-105
0.934952
229.19
1.46558e-39
150.46
1.77252e-66
0.000672245
4.22225e-28
290.816
38.5992
1.00561e-66
-5.74845e-142
33.7683
8.98051e-11
2.05429e-24
2.06769e-23
244.689
2.78294e-100
284.7
5.36912e-25
1.48726e-82
1.30173
0.0486342
296.009
3.35382
109.458
1.31707e-75
1.55518
215.537
132.331
1.6787e-06
147.379
1.7838e-30
247.459
5.61762
1.3232e-06
1.18822e-75
6.9678e-32
12.0187
91.6979
171.112
14.6739
0.148279
0.0489119
4.56128e-47
6.91387e-18
9.43933
-1.75329e-50
1.06647e-18
4.88956e-112
1.82489e-113
0.961758
22.1447
1.98214e-13
34.344
5.2496e-33
94.7501
260.217
23.6711
1.73425e-13
3.95452e-17
216.649
3.01745e-37
146.478
4.80659e-06
0.00383436
1.27
1.12713
2.4961e-75
157.179
2.23353e-40
149.475
1.38656e-41
4.75733e-06
6.5007e-08
2.10098e-16
6.39705
123.724
277.548
4.91479e-61
132.524
7.64714
25.3206
97.2683
244.546
5.84032e-68
160.953
135.32
43.2508
4.76678
13.3203
179.311
6.82403e-49
3.34009e-26
-1.84485e-131
5.95941e-63
28.6355
7.81872e-84
3.35612
2.41659e-25
4.94301e-40
171.981
2.52456e-101
1.30663e-72
3.70423
244.703
20.1982
170.221
1.98726e-77
185.246
161.762
9.74419e-86
189.06
111.772
223.07
27.2229
202.129
0.647566
124.452
24.254
272.741
7.44324e-07
170.978
122
4.6885e-24
2.839e-11
5.65144e-53
120.885
2.05783e-50
6.42294e-22
-1.35227e-111
109.06
0.000634957
5.75846e-07
-5.27624e-114
115.454
2.31016e-08
227.639
2.8417e-14
0.0120053
3.0122e-65
2.83246e-34
1.84448e-24
-1.25725e-118
3.50887
20.919
9.70643e-06
0.00259177
99.5372
1.32295e-87
281.034
153.947
139.443
241.318
100.632
99.2004
11.4881
7.84738e-15
191.887
276.778
30.3736
280.91
181.93
33.3737
4.24907e-26
1.28989e-58
25.1506
0.177194
-3.55414e-127
261.218
0.0108895
158.745
3.77471e-39
244.401
98.5246
77.0224
259.698
-2.0426e-74
148.024
1.43583e-63
4.17286e-74
13.2234
4.8937e-22
285.591
3.51404e-37
290.144
269.774
5.42829e-08
1.94569e-78
3.43734e-42
17.5215
0.0497724
141.419
1.45758e-11
1.53921e-58
2.75594e-49
262.792
2.91869e-27
-5.81833e-92
79.4449
0.000160921
0.906398
7.23201e-06
123.826
8.87474e-07
207.55
154.261
284.668
265.671
1.10221e-68
2.07352e-161
282.068
88.3069
7.68179e-29
6.46079
2.36164
4.92152
3.54622e-42
3.9364e-42
230.861
0.00527119
1.87867
1.41271e-07
2.9513e-25
2.38289e-07
1.78122e-17
8.28331e-31
149.012
3.68471e-56
238.723
0.000514592
3.56446e-11
2.12225e-73
0.0876835
1.04697e-52
1.63722e-47
107.763
1.46078e-113
0.00598279
127.482
230.524
213.291
1.79012e-107
214.656
244.097
3.48389e-58
27.6882
0.00217056
200.447
-1.20918e-59
2.09621e-46
6.8964e-07
171.627
211.779
2.81933e-25
5.32454e-09
138.904
4.57475e-07
220.582
1.11759e-08
101.062
-3.06512e-61
2.50673e-59
26.8653
1.02984e-06
11.4611
36.5486
0.42845
1.18101e-61
108.224
-3.28162e-163
207.096
0.0717493
253.735
1.96241e-11
264.615
1.79821e-31
8.56842e-06
138.29
4.2353e-09
9.04236e-26
97.5484
289.179
3.35622e-36
1.01729e-29
0.252916
4.64145e-67
9.76001e-26
120.605
153.261
67.224
138.383
1.60503e-139
262.492
210.73
76.0819
5.07055e-105
3.61418e-84
1.12536e-46
166.248
5.33499e-125
107.488
2.15241e-39
45.3206
183.042
1.36904e-24
272.394
1.20055e-61
4.30701e-07
272.478
199.513
0.069102
0.160029
27.7194
238.372
211.036
224.409
2.41672
92.0587
-1.00607e-155
5.16205e-29
22.9335
1.09159e-06
7.91736e-56
-7.21508e-80
7.70775e-143
2.14777e-08
2.51571e-24
1.29075e-28
2.79777e-46
196.989
6.40643e-36
2.48164e-153
148.25
-4.73817e-142
249.829
-5.42854e-41
9.23574e-155
3.82949e-32
154.903
0.0441139
6.48671e-44
1.49426e-125
153.902
1.33912e-38
7.77925e-43
1.28036e-35
1.0093e-33
1.85513e-50
2.07619e-106
-3.38006e-93
8.14236
5.19237
0.136965
103.48
240.029
1.54045e-42
119.462
2.06072e-101
109.322
1.02844e-12
3.76899e-18
0.096492
161.605
272.539
213.102
165.048
1.5332e-13
0.000124291
3.54425e-08
283.262
261.863
1.88828e-06
8.03517e-62
280.998
22.6949
216.51
250.397
2.00653e-13
2.3258e-106
283.509
6.08226e-20
4.22226e-22
240.926
6.03724e-16
4.58749e-07
2.17927e-63
0.257315
1.09107e-05
160.379
280.459
4.57548e-57
7.49582e-80
3.38235e-98
8.36119e-26
2.44332e-52
213.108
209.582
1.32559e-12
147.582
0.149464
220.345
29.16
1.93104e-23
109.997
3.63046e-156
297.048
1.49315e-05
26.3397
5.707e-24
0.0653608
2.43567e-26
7.06686e-66
231.093
144.745
-7.6097e-137
2.59882e-42
266.893
2.34669e-157
1.92713e-34
0.0110481
-7.40949e-131
4.51719e-61
23.0895
3.0675e-19
206.541
58.3221
2.8693e-08
5.274e-06
92.8984
3.49149e-39
175.729
128.369
6.82547e-08
263.028
22.2482
3.12412
276.798
162.129
139.357
8.16882e-08
7.12301e-163
5.55541e-08
6.10995e-13
271.78
274.275
147.403
120.297
172.524
115.326
240.338
113.966
6.5591e-08
154.271
3.16601e-37
231.163
142.445
254.603
3.67698e-21
257.174
4.52011e-38
0.0321209
2.65138e-05
1.03258
1.38245e-13
1.9398e-48
1.00896e-06
239.33
1.97772e-29
266.588
66.3835
-7.02843e-76
2.544e-09
2.6665
2.90655e-47
3.12178e-39
1.47855e-30
2.40873e-75
127.059
1.54953e-10
143.188
1.75879e-11
0.000304654
1.66535e-22
1.6366
2.83694e-29
4.06659e-45
4.78239
5.02158
1.82504e-63
9.07866e-12
114.122
6.25369e-05
0.0106544
153.267
6.77212e-44
3.98256e-65
1.17016e-07
0.00730396
4.85562e-15
3.36721e-66
1.43119e-88
5.83253e-21
2.03171e-07
276.83
9.78951e-06
116.862
271.935
230.709
2.57124e-12
2.45883e-11
8.23452
3.57658e-28
1.13958e-14
2.24391e-12
283.616
0.114315
2.85113e-156
3.39181e-13
65.8825
271.173
128.738
3.41827e-74
0.00015745
3.65806e-08
1.70354e-27
1.73066e-06
1.99512e-08
7.85029e-12
0.00437368
1.34514e-11
233.53
198.206
2.59918e-08
39.2343
6.32813
0.000781446
6.1273e-59
4.78645
9.13854e-10
-9.34023e-140
109.386
1.1629e-12
268.072
232.626
1.5202e-05
2.3121e-64
114.202
6.40621e-06
197.47
101.206
1.56668e-07
163.053
183.586
6.49069
271.796
3.0504e-109
0.136749
6.45249e-09
125.128
0.00125844
1.23481e-98
0.105074
140.923
0.0754949
-1.48689e-50
266.946
216.519
2.16992e-13
249.635
289.379
275.771
163.023
3.77159e-35
223.969
5.16696e-10
192.305
238.766
118.88
0.00911167
178.448
277.148
1.03453e-05
172.449
18.7186
1.24946e-06
-1.20804e-78
2.70218e-05
288.762
3.02691e-75
99.9483
3.09748e-102
1.16818
-1.63103e-62
1.28503e-36
231.472
3.5979
136.138
121.718
276.01
5.90909e-08
23.8888
1.46305e-160
5.4706e-65
8.46271e-66
280.437
42.5641
184.073
132.667
0.00431447
115.021
2.44176e-07
2.14398e-49
4.90473e-61
0.0129087
-9.18908e-139
19.5441
1.90291e-132
26.786
0.0434353
106.41
217.889
105.713
160.965
4.13863e-134
73.4217
271.738
0.00456136
0.0110951
0.226713
6.85433e-122
0.0658387
150.24
163.195
-4.65389e-59
281.838
11.0024
165.998
183.136
5.87472e-132
155.256
1.32366e-137
120.304
134.895
1.45928e-11
1.20695e-16
19.0294
250.574
-2.60506e-77
4.93992e-70
7.07268e-90
2.24321e-131
2.74408e-60
98.4352
66.4452
1.21312e-27
3.42224e-13
0.16863
1.52122e-157
1.80191e-61
66.5085
228.649
21.3352
0.063751
15.1764
5.86044e-132
1.5213e-81
284.311
4.76124e-166
71.7495
4.31907
162.795
4.01739e-77
-1.69677e-52
1.77665e-05
251.906
8.06053e-17
0.00104091
1.68361e-11
1.25749e-49
7.67142e-163
2.1846
17.9446
232.304
166.889
117.607
1.40697e-62
288.943
2.27962
84.8173
28.4753
4.75444e-157
0.0159898
7.19769
2.41632
20.0081
0.00243934
159.018
2.71992e-06
1.22099e-14
1.58293e-10
19.3609
91.9644
0.00256491
54.6119
3.38092e-48
232.944
-8.58597e-133
219.98
163.574
1.11631e-07
265.906
5.66524e-15
2.40956e-10
260.562
1.05713e-62
1.38818e-10
281.101
200.314
2.69196e-07
22.0017
8.35193e-09
1.61301
29.6697
0.0356707
1.18095e-110
0.0249901
241.294
25.3564
8.21108e-30
72.3417
9.84721e-07
188.292
1.02563e-63
217.376
2.39738e-64
6.26965e-10
4.30004e-32
204.557
165.283
199.831
0.00940897
2.88827e-83
3.47342e-18
269.087
228.244
211.079
0.00965152
219.98
3.16041
73.7356
3.91441e-07
216.806
111.12
0.00283945
157.234
3.06848e-68
231.465
72.7918
2.07865e-78
7.54057e-68
3.38743
0.000182581
169.378
245.961
-5.34743e-134
1.71982e-06
275.126
196.288
0.0156265
3.71058e-09
100.438
180.207
19.3304
3.86726e-46
0.144451
6.19028e-38
241.586
24.7905
1.57473e-141
2.26363e-32
202.031
1.05346e-13
136.738
0.226201
98.8032
0.00268523
1.85612
4.34547e-48
8.02778
74.3913
-7.0862e-113
226.047
190.596
22.7123
270.29
1.32528e-58
6.52123e-05
4.77919e-24
154.515
259.095
2.50209e-08
1.07453e-30
2.86003e-06
-5.58914e-129
1.56698e-08
152.302
184.826
1.63245e-08
1.54235e-90
1.30862e-95
3.75617e-09
2.59759e-112
7.35623e-16
250.067
60.4061
1.2926e-16
1.58418e-15
87.5998
-6.77569e-145
185.685
258.965
1.11264e-19
119.939
0.0596323
266.102
4.25095e-29
198.575
70.3027
1.94568e-25
150.037
6.324e-06
2.29869e-124
0.0762816
6.97977e-27
3.95796
8.4885e-92
275.85
10.219
6.89448e-45
1.67511e-09
264.028
71.7348
186.043
0.00482352
99.2154
149.843
1.25439e-06
1.95409e-08
1.34052e-44
250.424
1.89012e-07
6.3052e-10
0.0190495
0.0823225
2.81715
-2.85712e-78
3.78747e-58
44.7873
270.899
3.15472e-06
1.77478e-153
4.23783e-09
261.122
0.381218
0.651968
1.0676e-24
128.017
214.214
3.41274e-09
155.717
1.20604e-69
-2.17188e-58
1.04424e-08
124.221
226.69
0.0635822
232.904
97.7695
-5.07597e-133
99.6094
98.5986
1.22233e-09
226.247
280.772
4.63468e-11
1.62713e-23
2.839e-59
152.82
284.842
2.63617
199.603
-5.0033e-64
0.0976495
1.00488e-08
264.288
4.30675e-26
6.44067e-67
0.0621124
32.9389
5.43209e-102
2.34763e-50
-3.61489e-97
1.48258e-40
207.343
1.80448e-71
121.252
13.1856
253.892
-2.16664e-59
228.913
0.0264417
1.43475e-09
101.714
3.65993e-05
226.945
11.3005
0.00117947
5.23193e-55
0.000309978
1.4912e-108
2.37582e-37
9.31355e-14
34.0225
5.83813e-93
5.63826
221.568
17.3768
8.59603e-09
1.2781e-20
284.934
113.109
9.91992e-31
5.78823e-99
28.1824
183.242
281.614
1.96226e-06
278.834
235.972
240.958
115.495
226.477
85.7783
189.344
7.95401e-08
1.29498e-49
84.6492
185.403
243.008
95.9417
147.336
0.225466
0.00328457
0.0911745
4.65882e-146
183.331
6.76081e-56
4.69211e-90
0.00113137
196.58
1.24206e-08
1.35835e-21
132.808
19.6922
4.83239
5.89307e-24
1.27127e-23
90.5134
8.30609e-11
2.89006e-123
26.2688
4.25592e-16
263.707
0.00388293
9.00054e-21
97.6553
1.31394e-29
195.103
1.01998e-08
2.31554e-101
2.98261e-85
130.493
212.488
123.209
81.3874
56.9139
0.000236218
1.85919e-21
8.555e-05
5.66258e-40
217.635
132.69
8.71102e-92
3.15252e-59
1.66383e-41
79.1901
288.397
1.40821e-80
5.6056e-09
82.6204
22.5992
0.00163795
5.91386e-105
-3.39988e-79
1.83551e-123
94.2178
7.65069e-106
203.425
1.93393e-10
211.16
129.512
0.0128033
272.479
186.446
217.08
39.1635
81.6773
7.35363e-17
245.58
0.00823432
2.22952e-23
2.69903e-07
277.707
182.521
0.145201
141.442
282.279
3.72769e-86
183.897
213.034
1.87248e-12
0.385693
284.529
126.121
119.037
0.182484
2.12849e-46
78.3773
143.169
206.223
68.5505
235.955
2.95304e-80
0.0572582
2.301e-20
4.991e-29
12.3314
-3.96648e-65
0.00399879
63.7695
7.00823
0.00928348
241.896
1.63397e-107
-1.4071e-118
2.30534e-36
83.7287
5.10248e-83
204.161
55.3512
6.39452
197.207
7.71742e-18
9.66528
9.12253e-12
2.02803e-09
266.808
35.5607
15.8812
254.379
0.598021
283.117
1.19097e-06
56.026
4.87819e-12
253.465
169.192
250.918
32.9647
2.76957e-10
71.3624
6.09497e-34
0.65116
3.33286e-78
259.788
238.388
0.00345081
3.04254e-15
4.81231e-66
93.6568
9.66335e-114
258.32
1.7912e-46
271.677
0.055501
1.98769e-56
1.8551e-14
-1.8449e-131
70.5095
2.50904e-63
250.954
219.33
3.23523e-25
2.22011e-07
53.4885
220.879
1.64299e-77
2.40518e-122
3.26686e-10
1.86874e-12
1.12435e-07
14.1341
0.192034
9.26585e-09
4.30357e-06
261.689
233.276
0.381924
30.5757
0.557777
-4.43255e-57
1.04295e-06
-5.90361e-102
253.359
2.68769e-12
55.6765
54.6477
2.41977e-14
267.141
1.32817e-108
0.00129675
268.693
3.50454
256.328
99.5773
4.54506
256.506
112.352
210.606
139.705
3.07997e-123
2.23052e-26
0.000825363
133.98
220.761
240.063
2.06353e-14
8.51052e-14
277.727
254.835
1.60384e-08
48.9712
-1.92667e-138
3.3297
183.391
1.7107e-41
288.499
2.07036e-21
270.604
1.15482e-74
9.24438e-19
192.622
2.13834e-73
218.759
4.4597e-09
119.102
294.387
15.568
1.76107e-21
8.15831e-100
4.00517e-19
1.58089
114.56
0.110781
161.38
3.91268e-40
163.354
169.13
228.734
0.060501
261.344
3.08172e-60
252.665
6.48794e-22
265.032
155.504
29.6893
54.2546
1.00159e-82
167.649
3.01127e-59
150.147
1.89486e-31
241.824
4.90204e-49
0.00718548
0.00300579
0.00117068
276.655
108.438
0.246041
113.499
95.7844
284.669
93.2697
-1.42359e-99
0.740857
-6.81679e-141
5.23062
6.4027e-91
3.65614e-130
67.6639
112.551
5.25427
287.12
7.33919e-47
0.0546102
5.06119e-09
188.848
146.106
0.000679779
4.62166e-131
2.01389e-05
29.2108
0.000434845
1.09817e-06
140.326
1.08136e-12
21.8449
281.384
-3.53962e-132
132.319
4.32435e-56
1.58611e-104
2.01756e-25
260.21
268.123
0.517112
141.87
2.58105e-80
3.33006e-27
177.728
81.142
222.692
126.717
213.955
5.03689e-51
124.347
178.399
0.249995
5.25735
1.57766e-05
52.2494
255.614
195.746
2.84266e-06
114.227
-1.66395e-126
4.2006e-06
220.044
0.662469
3.44007e-26
239.39
1.0837e-33
150.344
27.0205
245.183
7.31804e-26
25.6222
0.910884
28.395
57.893
7.9213e-05
202.401
-1.45257e-100
12.4866
3.79068e-05
3.7507e-80
2.46644e-62
1.2194e-07
5.93888e-18
0.146178
2.24054e-76
6.2756e-10
116.247
1.87015e-08
1.03146e-96
6.36385e-27
6.13604e-136
158.086
24.7549
22.225
159.784
135.585
1.21357e-72
138.149
1.11844e-09
269.603
7.11224e-13
4.03403e-09
0.0633967
194.169
182.37
5.44435e-46
195.112
4.09144e-35
1.80627e-25
2.7651e-25
0.950925
163.533
12.6596
186.716
3.13225e-05
13.2759
0.00143101
7.60887e-133
2.0497e-16
2.63723e-31
0.737842
0.00101507
5.22189e-16
4.58058e-97
2.25051e-18
235.001
1.41773e-10
110.559
2.2755e-34
1.68366e-10
9.77606e-06
4.37671e-05
160.33
100.838
0.0349435
15.1966
77.6924
4.0012e-67
247.065
6.33764
7.34367
116.688
247.693
127.028
80.7712
3.81927e-28
166.916
197.839
36.0833
150.771
190.75
197.327
138.908
0.0593475
60.4433
4.95664e-61
7.2113e-07
24.9554
264.815
2.46336e-65
5.46442e-06
8.42421
1.74517e-24
1.19999e-29
145.656
148.989
107.184
47.8898
2.61405e-79
45.8794
18.5925
21.6023
3.38927e-09
10.5873
247.958
194.853
1.33008e-09
0.724578
89.7534
151.043
237.067
6.91971e-29
39.7711
1.81766e-16
155.095
106.458
1.39804e-155
9.53841e-137
161.036
6.37606e-134
1.24141e-24
0.422843
3.35329
6.81128e-08
266.757
278.568
5.5401
83.1231
5.54366e-08
8.33238e-18
1.14168e-55
176.285
0.120203
4.31163e-12
5.07605e-31
188.248
250.113
224.168
6.86545e-48
217.411
1.9282e-06
4.52369e-154
80.6465
201.633
6.69674e-38
1.11659e-27
8.03665e-90
11.8575
1.88139e-08
65.0855
0.00372084
0.000155636
2.8508
41.2276
6.67212e-26
238.447
173.943
24.3438
245.94
198.91
6.12127
86.4747
272.924
1.90818
9.63637e-24
9.61673e-29
1.44329
247.141
1.08977e-53
0.00200747
0.942105
137.734
108.4
151.503
4.72761e-46
9.64962e-98
5.63702e-36
193.948
27.0869
241
6.25239e-26
224.716
0.221439
5.67855
1.26184e-12
246.292
1.83477e-96
0.0117135
214.212
255.79
212.258
1.19716
2.92579e-35
9.38637e-44
246.814
3.58665e-30
1.52468e-32
2.87923e-30
80.7067
3.7697e-122
0.0029325
-9.23821e-105
7.06584e-45
87.2899
192.69
238.604
2.31243e-06
1.0968e-28
4.83516e-117
0.00155313
132.691
6.61392e-22
122.099
256.54
7.32508e-22
252.439
2.19422e-29
1.37654e-50
2.23338
4.75402e-162
0.000283354
259.578
1.80033e-31
1.91571
0.00723573
5.66734
0.00816087
8.42419e-12
5.42288e-08
1.62872e-40
2.54692e-37
11.1832
1.02809
1.62848e-29
0.00105205
2.178e-59
180.242
-2.2306e-100
230.476
2.402
7.13014
22.0741
25.2917
239.978
3.07238e-79
66.7718
7.10395e-10
283.085
247.266
25.7581
2.21817e-30
19.1628
188.9
293.846
108.09
53.4759
-1.49286e-89
1.64148e-15
32.852
194.196
226.77
9.73358e-101
147.077
1.53232e-41
1.03274e-81
279.224
101.743
39.3106
4.92933e-21
198.649
185.432
-2.89414e-52
192.461
270.593
5.01484e-17
94.6262
189.645
241.739
1.28915
254.081
145.021
5.19564e-28
-9.43837e-136
89.1466
116.728
2.99119e-24
6.20556e-59
8.53854e-93
1.02745e-92
48.4149
161.038
1.82883e-19
89.5876
1.4862e-13
205.847
1.16363e-42
247.55
1.09012e-26
4.40941e-93
153.733
44.2087
1.00227e-12
1.43599e-41
25.6571
9.36447e-28
0.000146281
1.9694e-142
-1.08525e-100
5.6188e-74
6.20003e-138
1.43881e-69
8.40002e-126
247.337
9.73817e-05
1.70415e-126
8.86122e-76
9.14183e-28
0.151826
0.00837946
186.436
0.0050619
3.04221
13.0975
0.0879054
5.94622e-53
238.953
1.11829e-145
1.37964e-147
2.89434e-135
229.6
259.046
1.87658e-17
5.81185e-16
1.15769e-38
107.976
-2.26223e-55
0.100283
2.1905e-72
0.246778
271.649
-9.32272e-67
-2.97218e-89
0.00758357
6.71375e-124
9.18144e-124
3.91783e-41
265.166
157.809
4.46518e-68
193.771
244.727
249.002
153.526
3.69662e-11
2.8011e-35
1.9525e-37
1.39273e-42
3.56857e-22
2.13787e-06
0.00275443
1.36895e-83
7.46973e-28
233.066
85.8772
6.71228e-31
2.51447e-16
266.465
262.286
1.88531e-112
45.3302
4.8212e-12
0.873907
6.20159e-85
57.3593
75.6019
1.72384e-23
0.168417
104.706
1.67844e-26
0.188821
204.848
1.06724e-17
1.07886e-32
103.779
3.32167e-35
162.191
3.41892e-103
186.19
3.24344e-41
278.812
126.82
120.154
-3.68031e-54
127.494
-3.01269e-74
2.84147e-17
0.0305537
230.819
2.39743e-07
150.759
257.743
8.95043e-45
229.599
2.03587e-23
4.01577
8.02124e-11
229.633
250.304
259.182
3.0054e-87
0.00373372
1.33798e-20
13.2779
204.13
122.063
1.62733
6.73004e-28
263.669
6.82333e-09
1.3281e-31
1.7428e-69
1.49243e-51
8.04931e-26
198.659
1.13399
259.359
253.663
5.08083e-105
0.00075074
189.469
8.31051e-143
250.791
4.49213e-10
1.18508e-12
261.617
174.633
200.959
219.75
0.533203
262.556
3.84555e-09
175.629
22.201
2.31426e-124
203.041
0.0576389
206.1
9.23755e-30
266.504
224.602
230.878
3.69029e-77
189.815
1.6075e-09
126.188
5.09987
1.63717e-30
152.337
0.0198786
2.36604e-18
1.25009e-27
94.5407
2.61629e-28
177.91
7.32527e-134
178.544
196.095
282.149
259.693
2.97427e-78
12.0806
2.95534e-126
241.17
110.852
2.81938e-22
2.42293
4.88938e-71
32.6516
65.283
97.5142
3.05824e-22
273.861
220.75
115.339
0.665055
270.505
3.82428e-08
8.79931e-13
246.449
0.369086
2.5959e-45
3.25841e-65
-1.66941e-107
75.7607
5.41812e-45
91.4197
3.34756e-60
3.4775e-37
0.06178
1.47533e-143
9.91046e-28
1.06677e-45
3.40786e-77
229.208
17.8575
220.688
90.2129
1.28448e-124
1.93351e-16
176.321
222.53
2.8836
248.75
1.16561e-09
1.10905e-32
273.99
130.53
1.50518e-30
127.614
2.66709e-35
0.0681421
0.16112
1.40631
244.944
9.69427e-23