/*--------------------------------*- C++ -*----------------------------------*\
  =========                 |
  \\      /  F ield         | OpenFOAM: The Open Source CFD Toolbox
   \\    /   O peration     | Website:  https://openfoam.org
    \\  /    A nd           | Version:  7
     \\/     M anipulation  |
\*---------------------------------------------------------------------------*/
FoamFile
{
    version     2.0;
    format      ascii;
    class       volScalarField;
    location    "5.5";
    object      T;
}
// * * * * * * * * * * * * * * * * * * * * * * * * * * * * * * * * * * * * * //

dimensions      [0 0 0 1 0 0 0];

internalField   nonuniform List<scalar> 
2413
(
1.1282
1.12211
1.11322
1.09971
1.08073
1.05896
1.041
1.0315
1.02793
1.02582
1.02453
1.02394
1.02361
1.0227
1.0206
1.01769
1.01435
1.01101
1.00809
1.00577
1.00383
1.00196
0.999986
0.997784
0.995355
0.992771
0.990141
0.987568
0.985112
0.982763
0.980467
0.978153
0.975764
0.973284
0.97071
0.96805
0.965293
0.962429
0.959453
0.956363
0.953136
0.949726
0.946102
0.942383
0.938798
0.935929
0.935082
0.937817
0.944214
0.953347
0.963414
1.22516
1.22181
1.21914
1.21665
1.21387
1.21048
1.20625
1.20065
1.19329
1.18538
1.1796
1.17577
1.17307
1.17161
1.17088
1.17041
1.1699
1.1692
1.1682
1.1669
1.16535
1.16364
1.16183
1.15994
1.15795
1.15581
1.15351
1.15105
1.14849
1.14582
1.14301
1.14002
1.13681
1.13331
1.12941
1.12486
1.11922
1.11158
1.10057
1.08493
1.06552
1.04691
1.03475
1.0295
1.02685
1.02536
1.02457
1.02445
1.02458
1.0244
1.02296
1.02044
1.01742
1.01418
1.0111
1.00852
1.00654
1.00491
1.0034
1.00183
1.00005
0.998047
0.995883
0.99367
0.991494
0.989416
0.987422
0.985474
0.983503
0.981461
0.979307
0.977013
0.974549
0.971889
0.969023
0.965953
0.962687
0.959204
0.955527
0.951841
0.948645
0.947131
0.948939
0.954217
0.962452
0.971683
0.979819
0.986141
1.21791
1.21496
1.2129
1.21092
1.20852
1.20516
1.20087
1.1949
1.187
1.17908
1.17381
1.1703
1.16799
1.16678
1.1661
1.16552
1.1648
1.1638
1.16247
1.16082
1.15893
1.15688
1.15473
1.15254
1.15032
1.14803
1.1456
1.14299
1.14023
1.13732
1.13424
1.13088
1.12713
1.12285
1.11776
1.11123
1.10218
1.08935
1.07249
1.05418
1.03966
1.03187
1.0284
1.02625
1.025
1.02444
1.02449
1.02472
1.0248
1.02411
1.02212
1.01953
1.01661
1.01361
1.01086
1.0086
1.00689
1.00551
1.00434
1.00319
1.00187
1.00032
0.998554
0.99666
0.994734
0.992863
0.991058
0.989314
0.987582
0.985812
0.983936
0.981896
0.979644
0.977133
0.974307
0.971185
0.967829
0.964344
0.960946
0.958628
0.959294
0.963646
0.971444
0.980433
0.98844
0.994548
0.998747
1.00165
1.21173
1.20963
1.20795
1.2061
1.20378
1.20032
1.1959
1.1896
1.18133
1.17361
1.16892
1.16579
1.1639
1.16291
1.16224
1.16151
1.16051
1.15918
1.15753
1.15564
1.15355
1.15132
1.14895
1.14648
1.14393
1.14135
1.1387
1.13597
1.13306
1.1299
1.12654
1.12281
1.11838
1.11279
1.1053
1.09484
1.08054
1.06327
1.04713
1.03646
1.03128
1.02844
1.02632
1.02511
1.02475
1.02479
1.02492
1.025
1.02475
1.02346
1.02125
1.01869
1.01587
1.01303
1.01049
1.00849
1.00707
1.00594
1.005
1.00413
1.00311
1.00183
1.00029
0.998588
0.996804
0.995031
0.993315
0.991668
0.990072
0.988456
0.986728
0.984821
0.982661
0.980228
0.97745
0.974502
0.971569
0.968971
0.968422
0.971797
0.979057
0.988191
0.996641
1.00309
1.00736
1.01
1.0117
1.01287
1.20719
1.20586
1.20476
1.20326
1.20092
1.19726
1.19259
1.18574
1.17711
1.16983
1.1657
1.16293
1.16135
1.16051
1.15985
1.15904
1.15793
1.15649
1.15474
1.15277
1.15064
1.1484
1.14601
1.14346
1.14075
1.13794
1.13514
1.13237
1.12946
1.12613
1.1221
1.11736
1.11127
1.10284
1.09088
1.07522
1.05879
1.04531
1.03706
1.03277
1.02976
1.02765
1.0266
1.02619
1.02605
1.02597
1.02579
1.02548
1.02484
1.02325
1.02103
1.01849
1.0157
1.01291
1.01041
1.00848
1.00714
1.00605
1.00514
1.00435
1.00349
1.00235
1.00096
0.999383
0.997692
0.995964
0.994262
0.992611
0.990998
0.989351
0.987571
0.985578
0.98333
0.980986
0.978736
0.97666
0.975433
0.977556
0.983843
0.993292
1.00276
1.01022
1.0152
1.01816
1.01981
1.02077
1.02146
1.02201
1.20473
1.20394
1.20332
1.20208
1.19973
1.19591
1.19087
1.18345
1.17472
1.16786
1.16411
1.16161
1.16025
1.15951
1.15886
1.15801
1.15685
1.15539
1.15368
1.15179
1.14978
1.14769
1.14551
1.14321
1.14078
1.13827
1.1358
1.13325
1.13022
1.12639
1.12142
1.11455
1.10476
1.09138
1.07565
1.06017
1.04837
1.0418
1.03799
1.03487
1.03276
1.03147
1.03068
1.03006
1.02939
1.02864
1.02783
1.02698
1.02592
1.0241
1.02184
1.01926
1.01641
1.01349
1.01082
1.00871
1.00722
1.00602
1.00501
1.00416
1.00332
1.00223
1.0009
0.999402
0.997781
0.996109
0.994424
0.992732
0.991009
0.989156
0.987079
0.984892
0.982861
0.981179
0.979898
0.980763
0.985328
0.994366
1.00481
1.01372
1.01992
1.0237
1.02581
1.02694
1.02765
1.02828
1.02904
1.03004
1.20528
1.20508
1.20473
1.20353
1.2009
1.19681
1.19124
1.18342
1.17484
1.16855
1.16519
1.16301
1.16191
1.16139
1.16095
1.16033
1.15942
1.15824
1.15684
1.15529
1.15366
1.15201
1.15035
1.14868
1.147
1.14527
1.14321
1.14039
1.13657
1.13134
1.12382
1.1129
1.09852
1.0822
1.06764
1.05825
1.05288
1.04906
1.04598
1.04368
1.04204
1.04069
1.03936
1.03793
1.0364
1.03483
1.03331
1.03181
1.03019
1.02793
1.02533
1.02244
1.01928
1.016
1.0129
1.01028
1.00832
1.00685
1.00558
1.00448
1.00346
1.00224
1.00083
0.999275
0.997646
0.995999
0.994325
0.992558
0.990576
0.988404
0.986223
0.984379
0.98298
0.982551
0.985133
0.992203
1.00256
1.01272
1.02046
1.02547
1.02845
1.03017
1.0312
1.03195
1.03274
1.03376
1.03505
1.03655
1.21148
1.21168
1.21148
1.21033
1.20751
1.20318
1.19733
1.18953
1.18139
1.17571
1.17278
1.17096
1.17024
1.17011
1.17006
1.16985
1.16934
1.16852
1.16748
1.1663
1.16506
1.16387
1.16284
1.16199
1.16117
1.1599
1.15741
1.15353
1.14777
1.13909
1.12673
1.11103
1.09496
1.08245
1.07471
1.07016
1.06661
1.0637
1.06135
1.05932
1.05734
1.05529
1.05313
1.05089
1.0486
1.0463
1.04395
1.04165
1.03932
1.03648
1.03325
1.02978
1.02605
1.02222
1.01851
1.01517
1.01238
1.01007
1.00809
1.0063
1.00462
1.00294
1.00123
0.99953
0.997889
0.996253
0.994484
0.992483
0.99026
0.988076
0.986336
0.985161
0.985939
0.98994
0.998479
1.00876
1.01765
1.02388
1.02773
1.0301
1.03165
1.03277
1.03375
1.03483
1.0361
1.03754
1.03905
1.04055
1.22491
1.22546
1.22541
1.22458
1.22201
1.21774
1.21193
1.2044
1.19691
1.19193
1.18941
1.18789
1.1875
1.18769
1.18803
1.18817
1.18802
1.18752
1.18673
1.18578
1.18482
1.18396
1.18326
1.18261
1.18157
1.17928
1.17554
1.1696
1.16013
1.14653
1.13015
1.11485
1.10407
1.09761
1.09323
1.08954
1.08669
1.08432
1.08206
1.07966
1.07705
1.07426
1.07135
1.06839
1.06543
1.06249
1.05959
1.05674
1.0538
1.05049
1.0466
1.04251
1.03816
1.03372
1.02936
1.02521
1.02144
1.0181
1.0151
1.01234
1.00976
1.00727
1.00486
1.00258
1.00042
0.998293
0.996044
0.993646
0.991377
0.989736
0.989126
0.990798
0.9961
1.00494
1.0142
1.02136
1.02601
1.0288
1.03054
1.03184
1.03296
1.03407
1.03534
1.03681
1.03838
1.03992
1.04133
1.04258
1.24495
1.24559
1.24569
1.24517
1.24299
1.23895
1.23363
1.22706
1.22052
1.21602
1.21362
1.21216
1.21184
1.21216
1.21267
1.21294
1.21286
1.21238
1.21152
1.2105
1.20952
1.2087
1.20798
1.20686
1.20435
1.20035
1.19408
1.18421
1.1703
1.15425
1.14009
1.1307
1.12485
1.12052
1.11705
1.11431
1.11185
1.1094
1.10683
1.10406
1.10104
1.09781
1.09441
1.0909
1.0873
1.08365
1.08006
1.07649
1.07287
1.06903
1.06465
1.06021
1.05556
1.05078
1.04592
1.04101
1.03623
1.03177
1.02764
1.0238
1.02024
1.01684
1.01355
1.01035
1.00719
1.004
1.00081
0.998019
0.996079
0.995886
0.997993
1.00402
1.0125
1.02043
1.02598
1.02912
1.03089
1.03208
1.03295
1.03369
1.03454
1.03568
1.03717
1.03883
1.04044
1.04185
1.04305
1.04407
1.27073
1.27117
1.27117
1.27067
1.26881
1.26486
1.25971
1.25356
1.24756
1.24336
1.24084
1.23929
1.23884
1.23907
1.23954
1.23983
1.23975
1.23924
1.23831
1.23722
1.23617
1.2351
1.23354
1.23048
1.22591
1.219
1.20862
1.1945
1.17888
1.16583
1.15731
1.15219
1.1483
1.14531
1.14291
1.14062
1.13821
1.13564
1.13288
1.12992
1.12674
1.12338
1.11987
1.11624
1.11248
1.10862
1.10469
1.10065
1.09629
1.09163
1.08667
1.08171
1.07667
1.07151
1.06615
1.06067
1.05522
1.0499
1.0448
1.03997
1.03549
1.03128
1.02718
1.02306
1.01883
1.01459
1.01074
1.00783
1.00717
1.00917
1.01501
1.02276
1.02931
1.03333
1.03561
1.03671
1.03691
1.03666
1.03665
1.03707
1.03801
1.03941
1.04102
1.0426
1.04397
1.04511
1.04606
1.04686
1.3006
1.30049
1.30005
1.29909
1.2971
1.29295
1.28753
1.28129
1.27528
1.27088
1.2678
1.26575
1.26482
1.26466
1.26478
1.26486
1.2647
1.26415
1.26329
1.26226
1.26103
1.25907
1.25531
1.24996
1.24223
1.23122
1.21676
1.20116
1.18853
1.18038
1.17601
1.17288
1.17064
1.16881
1.16692
1.16477
1.16236
1.15973
1.15692
1.15396
1.15086
1.14765
1.14434
1.1409
1.13726
1.13343
1.12942
1.12525
1.12085
1.1162
1.11132
1.10629
1.10096
1.09525
1.0893
1.08329
1.07733
1.07144
1.06568
1.06012
1.05483
1.04972
1.04463
1.03939
1.03411
1.02925
1.02531
1.02366
1.02553
1.0307
1.03735
1.04255
1.04584
1.0472
1.04686
1.04581
1.04458
1.04403
1.04418
1.04492
1.04623
1.04776
1.04921
1.05035
1.05119
1.05178
1.05229
1.05279
1.3312
1.33087
1.3302
1.32896
1.32656
1.32192
1.31588
1.30913
1.30264
1.2975
1.29342
1.29041
1.28853
1.28753
1.287
1.28657
1.28607
1.28542
1.2846
1.28344
1.28132
1.27716
1.27123
1.26281
1.25118
1.23654
1.22064
1.20807
1.20014
1.19601
1.1932
1.1914
1.18999
1.18847
1.18663
1.18446
1.18201
1.17937
1.1766
1.17379
1.17096
1.16813
1.16528
1.16233
1.15917
1.15579
1.15217
1.14827
1.1441
1.13971
1.13509
1.13021
1.12504
1.11956
1.1138
1.10779
1.10163
1.09541
1.08925
1.0832
1.07727
1.07135
1.06528
1.05907
1.05313
1.04793
1.04512
1.04624
1.05058
1.05632
1.06094
1.06336
1.06298
1.06137
1.05932
1.05763
1.05676
1.05672
1.05738
1.0587
1.06034
1.06186
1.06297
1.06355
1.06375
1.0638
1.06395
1.06429
1.35563
1.35625
1.3564
1.35583
1.35366
1.34889
1.34244
1.3353
1.32839
1.32241
1.31727
1.31314
1.31013
1.30808
1.30661
1.30541
1.30432
1.30327
1.30201
1.29981
1.29539
1.2891
1.28038
1.26858
1.25374
1.23772
1.22552
1.21783
1.21372
1.21091
1.20897
1.20738
1.20574
1.20388
1.20179
1.19951
1.19709
1.19457
1.19199
1.1894
1.18685
1.18436
1.18191
1.17941
1.17674
1.17386
1.17074
1.16734
1.16371
1.15988
1.15583
1.15149
1.14683
1.1418
1.13639
1.13067
1.12472
1.11868
1.11265
1.10663
1.10056
1.09431
1.08784
1.0814
1.07536
1.07103
1.07065
1.07391
1.07909
1.08325
1.08428
1.08275
1.0803
1.07748
1.07501
1.07365
1.07349
1.07437
1.076
1.07801
1.08003
1.08162
1.08266
1.0832
1.08354
1.08393
1.08436
1.08487
1.36917
1.37133
1.37268
1.37321
1.37243
1.36914
1.36378
1.35752
1.35112
1.345
1.33937
1.33449
1.3306
1.32762
1.32523
1.32312
1.32115
1.31907
1.31622
1.31132
1.30462
1.29567
1.28408
1.26963
1.25424
1.24226
1.23485
1.23056
1.22743
1.22511
1.22311
1.22113
1.21903
1.21679
1.2144
1.2119
1.20933
1.20669
1.20406
1.20152
1.1991
1.19683
1.1947
1.19257
1.19032
1.18789
1.18526
1.18243
1.17943
1.17622
1.17278
1.16907
1.16505
1.16068
1.15593
1.15084
1.1455
1.14
1.13438
1.12859
1.12254
1.11618
1.10975
1.10367
1.09853
1.09668
1.09935
1.10395
1.10712
1.10731
1.10553
1.10261
1.09931
1.09638
1.09461
1.09416
1.0948
1.09647
1.09903
1.10194
1.10471
1.10718
1.10939
1.11146
1.11365
1.11583
1.11765
1.11882
1.37292
1.37619
1.37857
1.38013
1.38058
1.37923
1.37594
1.37152
1.36697
1.36231
1.35769
1.35337
1.3496
1.34639
1.34349
1.34072
1.33774
1.33385
1.32781
1.32014
1.31051
1.29855
1.28401
1.26979
1.25878
1.25172
1.24701
1.2433
1.24036
1.23786
1.23545
1.233
1.23047
1.22785
1.22516
1.22239
1.21957
1.21674
1.214
1.21144
1.20907
1.20691
1.20492
1.20301
1.20105
1.199
1.1968
1.19448
1.19202
1.18941
1.1866
1.18353
1.18013
1.17638
1.17229
1.16788
1.16322
1.15837
1.15331
1.14795
1.14222
1.13626
1.13055
1.12547
1.1222
1.12369
1.12757
1.13072
1.13114
1.12941
1.1265
1.12323
1.12026
1.11837
1.1178
1.11835
1.11988
1.12234
1.12551
1.12913
1.13299
1.1375
1.14328
1.15157
1.16268
1.17467
1.18406
1.18836
1.36627
1.37199
1.37665
1.37999
1.38148
1.38115
1.37931
1.37647
1.37359
1.37111
1.36863
1.36624
1.36411
1.36199
1.35969
1.35675
1.35271
1.34647
1.33801
1.32743
1.31485
1.30036
1.28687
1.27612
1.26916
1.26413
1.2601
1.2568
1.25385
1.25093
1.24788
1.24469
1.24142
1.23813
1.23486
1.23164
1.22848
1.22541
1.2225
1.2198
1.21736
1.21518
1.21322
1.21139
1.20963
1.20788
1.20612
1.20431
1.20243
1.20044
1.19826
1.19582
1.19307
1.18997
1.18655
1.18285
1.17892
1.17475
1.17025
1.16532
1.15995
1.15457
1.14977
1.14606
1.14554
1.14911
1.15313
1.15437
1.15297
1.15046
1.14752
1.14472
1.14282
1.14224
1.1428
1.14439
1.14702
1.1504
1.15434
1.15908
1.16516
1.17451
1.18968
1.21427
1.24895
1.287
1.31624
1.32994
1.3415
1.35066
1.35897
1.36595
1.37055
1.37274
1.37362
1.37373
1.37347
1.37303
1.37256
1.37219
1.37193
1.37172
1.37055
1.36742
1.36199
1.3546
1.34496
1.33255
1.31873
1.30614
1.29596
1.28898
1.28353
1.2791
1.27536
1.27194
1.26856
1.26509
1.26146
1.25767
1.25377
1.2498
1.24582
1.24186
1.23801
1.23435
1.23096
1.22791
1.22525
1.2229
1.22078
1.21884
1.21705
1.21542
1.21391
1.2125
1.21117
1.20984
1.20836
1.20662
1.20455
1.20215
1.19946
1.19654
1.19339
1.18993
1.18604
1.18162
1.17681
1.17223
1.16844
1.16626
1.16842
1.1728
1.17563
1.1752
1.17321
1.17044
1.16787
1.16615
1.16562
1.16629
1.16808
1.17096
1.1747
1.17896
1.18419
1.19146
1.20249
1.22144
1.25633
1.3139
1.39194
1.4747
1.53754
1.56727
1.29905
1.31038
1.32103
1.33059
1.33859
1.3449
1.35037
1.35535
1.3596
1.36315
1.36645
1.36951
1.37192
1.37336
1.3732
1.3703
1.36457
1.35622
1.34624
1.33572
1.32517
1.31621
1.30976
1.30429
1.2995
1.29532
1.29144
1.28764
1.28377
1.27983
1.27575
1.27152
1.26715
1.26268
1.25817
1.25369
1.24935
1.24522
1.24136
1.23779
1.23443
1.23133
1.2286
1.22628
1.22436
1.22282
1.22156
1.22053
1.21962
1.21876
1.21784
1.21674
1.2154
1.2138
1.21198
1.20997
1.20775
1.20516
1.20202
1.19827
1.1942
1.19051
1.18767
1.1871
1.19086
1.19547
1.19683
1.19538
1.19302
1.1903
1.18823
1.18733
1.18773
1.18947
1.19256
1.19669
1.20134
1.20643
1.21358
1.22436
1.24321
1.28089
1.34922
1.45438
1.58383
1.70734
1.79297
1.83216
1.24329
1.25507
1.2666
1.27763
1.28789
1.29744
1.3066
1.3155
1.32423
1.33294
1.3416
1.34962
1.35577
1.35924
1.36013
1.359
1.35552
1.34999
1.34322
1.33657
1.33125
1.32703
1.3232
1.31941
1.31559
1.31181
1.30797
1.30398
1.29987
1.29566
1.29136
1.28694
1.28239
1.2777
1.27289
1.26801
1.26313
1.25835
1.25374
1.24936
1.24526
1.24155
1.23826
1.23542
1.23303
1.23104
1.22953
1.22854
1.22794
1.22755
1.22725
1.22694
1.22653
1.22596
1.22522
1.2243
1.22313
1.22155
1.21935
1.21651
1.21344
1.21075
1.20882
1.20989
1.21418
1.21796
1.21802
1.21618
1.21341
1.21057
1.20868
1.20812
1.20901
1.21162
1.21575
1.22078
1.22584
1.2319
1.24055
1.25547
1.28697
1.35143
1.46239
1.61595
1.77964
1.90887
1.98043
2.0083
1.1844
1.19472
1.20504
1.21542
1.22603
1.23701
1.24843
1.26031
1.27258
1.28516
1.29771
1.30917
1.31864
1.32618
1.33173
1.3356
1.3374
1.33743
1.33673
1.33567
1.33452
1.33327
1.33209
1.33059
1.32863
1.3261
1.32314
1.31979
1.31609
1.3121
1.30796
1.30376
1.29947
1.29501
1.29035
1.28549
1.28045
1.2753
1.27008
1.26488
1.25986
1.25517
1.2508
1.24682
1.24335
1.24052
1.23848
1.23732
1.23697
1.23706
1.23733
1.23782
1.23845
1.2391
1.23969
1.24013
1.24028
1.23999
1.23899
1.23731
1.23546
1.23396
1.23301
1.23534
1.24009
1.24283
1.24175
1.2393
1.23603
1.23265
1.23021
1.2294
1.2303
1.23314
1.23764
1.24286
1.24767
1.25399
1.26361
1.28218
1.3271
1.4193
1.57028
1.75764
1.92631
2.0303
2.07332
2.08445
1.13452
1.14086
1.14738
1.15464
1.16322
1.17337
1.18493
1.19757
1.21092
1.22468
1.23846
1.25173
1.26434
1.27629
1.28743
1.29743
1.30625
1.31383
1.32036
1.32591
1.33014
1.33317
1.33488
1.3353
1.33518
1.33472
1.33352
1.33161
1.32902
1.32606
1.3228
1.31926
1.31555
1.31175
1.30787
1.30386
1.29964
1.29517
1.29042
1.28535
1.27995
1.27447
1.26891
1.26344
1.25833
1.25385
1.2504
1.24834
1.24773
1.24795
1.24861
1.2497
1.25123
1.25308
1.25513
1.25724
1.25914
1.26048
1.2609
1.26064
1.26019
1.26008
1.26036
1.2637
1.26913
1.27151
1.26968
1.26616
1.26186
1.25743
1.25385
1.25209
1.25241
1.25467
1.25869
1.26316
1.26716
1.27245
1.2818
1.30206
1.35405
1.46285
1.63776
1.84174
2.00045
2.07808
2.09987
2.10049
1.09939
1.09953
1.101
1.10459
1.10995
1.11681
1.12534
1.13575
1.14759
1.1603
1.17361
1.18744
1.20178
1.21654
1.23159
1.24668
1.26146
1.27571
1.28918
1.30137
1.31186
1.32047
1.32704
1.33195
1.33543
1.33732
1.33767
1.33731
1.33652
1.33509
1.33316
1.33076
1.32827
1.32572
1.32303
1.32021
1.31721
1.31404
1.31069
1.30705
1.30288
1.29809
1.29271
1.28677
1.28055
1.27446
1.26893
1.2647
1.26242
1.26194
1.26233
1.26347
1.2654
1.26806
1.27131
1.27498
1.27871
1.28205
1.28447
1.28584
1.28675
1.28804
1.28972
1.29418
1.30077
1.30357
1.30137
1.29695
1.29139
1.28557
1.28043
1.277
1.27579
1.27702
1.27981
1.28277
1.28513
1.28855
1.29588
1.31361
1.36345
1.47406
1.654
1.86394
2.01915
2.08834
2.10076
2.08695
1.07726
1.07167
1.06851
1.06785
1.06888
1.07204
1.07724
1.0839
1.0921
1.10205
1.11373
1.12708
1.14193
1.15798
1.17493
1.19242
1.2102
1.22803
1.24556
1.26234
1.27797
1.29216
1.3046
1.31514
1.32352
1.32972
1.33417
1.33713
1.33855
1.33862
1.33809
1.3373
1.33621
1.33486
1.33324
1.33158
1.33002
1.32847
1.32684
1.32507
1.32294
1.32035
1.31712
1.31296
1.30776
1.30173
1.29531
1.28925
1.28456
1.28187
1.2811
1.28144
1.28275
1.28517
1.28868
1.29315
1.29821
1.30332
1.30779
1.31111
1.31359
1.31618
1.31923
1.32451
1.33284
1.33711
1.33504
1.33035
1.32381
1.31657
1.30973
1.30436
1.30116
1.30067
1.3017
1.30269
1.30261
1.3034
1.3077
1.32085
1.36332
1.466
1.64224
1.85727
2.02029
2.09005
2.09853
2.07275
1.06494
1.0551
1.04817
1.04438
1.04399
1.04521
1.04743
1.05069
1.05534
1.06161
1.06973
1.07996
1.09241
1.10695
1.12324
1.14079
1.15914
1.17788
1.19663
1.21513
1.23323
1.25071
1.26728
1.28262
1.29638
1.30831
1.31821
1.32587
1.3313
1.33507
1.33755
1.33891
1.3392
1.339
1.33866
1.33826
1.33777
1.33724
1.3367
1.3364
1.3364
1.33636
1.33602
1.3349
1.33267
1.32924
1.32479
1.31955
1.3142
1.30973
1.30685
1.30566
1.30577
1.30687
1.30937
1.31334
1.31852
1.3244
1.33026
1.33529
1.33928
1.34302
1.34718
1.35279
1.36277
1.36953
1.36848
1.36443
1.35755
1.34924
1.34092
1.33369
1.32842
1.32569
1.32481
1.32357
1.32091
1.31851
1.31892
1.32684
1.35791
1.44274
1.60424
1.82362
2.00568
2.09075
2.09767
2.06493
1.05282
1.04437
1.03931
1.0365
1.03528
1.03469
1.03487
1.03592
1.03804
1.04109
1.04522
1.05091
1.0586
1.06858
1.08091
1.09539
1.11169
1.12934
1.14779
1.16659
1.18539
1.2039
1.22199
1.23957
1.25648
1.27248
1.28718
1.30021
1.31133
1.32045
1.3274
1.33227
1.33566
1.33796
1.33947
1.34033
1.34078
1.34107
1.34158
1.34231
1.3433
1.34455
1.34595
1.34741
1.3487
1.34904
1.34854
1.34674
1.34382
1.34067
1.33793
1.33588
1.33486
1.3348
1.33556
1.33783
1.3418
1.34709
1.35305
1.35886
1.36383
1.36828
1.37305
1.37844
1.38872
1.39821
1.40011
1.39686
1.39022
1.38155
1.37234
1.36359
1.35654
1.35186
1.34913
1.34598
1.3409
1.33463
1.33114
1.33432
1.35219
1.41011
1.54095
1.74941
1.95813
2.07434
2.09496
2.06049
1.04691
1.0427
1.0397
1.03719
1.0349
1.03319
1.03242
1.03244
1.03284
1.03375
1.03537
1.03773
1.04097
1.04562
1.05229
1.06135
1.07287
1.0867
1.10247
1.11975
1.13796
1.1566
1.17526
1.19365
1.2116
1.22903
1.24587
1.26205
1.27736
1.29137
1.30365
1.31393
1.32222
1.32858
1.33313
1.33635
1.33877
1.34071
1.34243
1.344
1.34563
1.3475
1.34977
1.35252
1.35553
1.35848
1.36116
1.36346
1.36506
1.36577
1.36581
1.36545
1.36515
1.36522
1.36565
1.3668
1.3692
1.37297
1.37784
1.38322
1.38835
1.3929
1.39752
1.40265
1.41135
1.42297
1.42877
1.42646
1.42088
1.41247
1.40289
1.39312
1.38456
1.3782
1.37406
1.36969
1.36298
1.35376
1.34614
1.34387
1.35139
1.38232
1.4705
1.64302
1.86554
2.03333
2.08814
2.06532
1.04801
1.04592
1.04403
1.04192
1.03942
1.03692
1.03481
1.03322
1.03251
1.03249
1.03273
1.03322
1.03429
1.0357
1.03797
1.0417
1.04745
1.05562
1.06633
1.07945
1.09467
1.11152
1.12944
1.14786
1.16631
1.18449
1.2022
1.21939
1.23607
1.25215
1.26751
1.28194
1.29506
1.30649
1.31605
1.32377
1.32979
1.33437
1.33781
1.34065
1.34334
1.34623
1.34953
1.35321
1.35707
1.36109
1.36512
1.36932
1.37366
1.37769
1.3815
1.3851
1.38823
1.39083
1.39301
1.39493
1.39723
1.40044
1.40454
1.40917
1.41382
1.41802
1.42205
1.42664
1.43276
1.44469
1.4541
1.45374
1.44986
1.44205
1.43227
1.42182
1.41199
1.40407
)
;

boundaryField
{
    inlet
    {
        type            fixedValue;
        value           nonuniform 0();
    }
    outlet
    {
        type            inletOutlet;
        inletValue      nonuniform 0();
        value           nonuniform 0();
    }
    bottom
    {
        type            symmetryPlane;
    }
    top
    {
        type            symmetryPlane;
    }
    obstacle
    {
        type            zeroGradient;
    }
    front
    {
        type            empty;
    }
    back
    {
        type            empty;
    }
    procBoundary12to4
    {
        type            processor;
        value           nonuniform List<scalar> 
89
(
1.13957
1.13583
1.13101
1.12421
1.11373
1.09744
1.07515
1.05179
1.03546
1.02861
1.02581
1.02376
1.02232
1.02129
1.0197
1.01716
1.01402
1.01062
1.00736
1.00463
1.00231
1.00007
0.997713
0.995126
0.992312
0.989344
0.986319
0.98334
0.980458
0.977681
0.974961
0.97224
0.969462
0.966621
0.96374
0.960875
0.958055
0.955267
0.952466
0.949633
0.946768
0.943838
0.940724
0.937345
0.933742
0.930166
0.926908
0.924554
0.924342
0.927906
0.935404
1.23223
1.22888
1.22568
1.22269
1.21959
1.21606
1.2118
1.20641
1.19949
1.19177
1.18574
1.18175
1.1788
1.1771
1.17622
1.17571
1.17525
1.17465
1.17381
1.1727
1.17135
1.16983
1.16818
1.16641
1.16453
1.16253
1.16042
1.15821
1.15593
1.15356
1.15111
1.14857
1.14591
1.14308
1.14001
1.13663
1.1328
1.1328
)
;
    }
    procBoundary12to5
    {
        type            processor;
        value           nonuniform List<scalar> 
27
(
0.972116
0.990626
1.00356
1.01354
1.02244
1.03118
1.03806
1.04192
1.04369
1.04498
1.04757
1.05335
1.06486
1.08539
1.11935
1.18863
1.33269
1.57374
1.84192
2.01633
2.08675
2.09557
2.06562
2.02372
1.98633
1.97111
1.98329
)
;
    }
    procBoundary12to11
    {
        type            processor;
        value           nonuniform List<scalar> 
26
(
1.22894
1.22196
1.215
1.20919
1.20607
1.20602
1.21157
1.22448
1.24425
1.27036
1.30072
1.33135
1.35446
1.36604
1.36847
1.35942
1.33167
1.28731
1.23149
1.17424
1.12826
1.10006
1.08443
1.07655
1.06399
1.05305
)
;
    }
    procBoundary12to19
    {
        type            processor;
        value           uniform 1.05077;
    }
    procBoundary12to20
    {
        type            processor;
        value           nonuniform List<scalar> 
89
(
1.39869
1.39379
1.38673
1.37622
1.36445
1.35672
1.35691
1.36974
1.41523
1.53023
1.72703
1.93801
2.05527
2.07239
1.04799
1.04696
1.04603
1.04478
1.04296
1.04079
1.03854
1.0364
1.03463
1.03336
1.03274
1.03253
1.03241
1.03252
1.03273
1.03335
1.03494
1.03804
1.04315
1.05062
1.06063
1.07313
1.08786
1.10433
1.12194
1.14008
1.15824
1.17606
1.1934
1.21022
1.22652
1.24236
1.25764
1.27218
1.28574
1.29805
1.30884
1.31794
1.32539
1.33148
1.33652
1.34092
1.34505
1.34914
1.35353
1.35846
1.36386
1.36962
1.37551
1.3812
1.38667
1.3925
1.39845
1.40403
1.40933
1.41434
1.41883
1.42322
1.42785
1.43259
1.43728
1.44163
1.44554
1.44967
1.45437
1.46388
1.47582
1.48072
1.47777
1.47092
1.46126
1.45036
1.43942
1.39869
1.42996
)
;
    }
}


// ************************************************************************* //
