/*--------------------------------*- C++ -*----------------------------------*\
  =========                 |
  \\      /  F ield         | OpenFOAM: The Open Source CFD Toolbox
   \\    /   O peration     | Website:  https://openfoam.org
    \\  /    A nd           | Version:  7
     \\/     M anipulation  |
\*---------------------------------------------------------------------------*/
FoamFile
{
    version     2.0;
    format      ascii;
    class       volScalarField;
    location    "0.6";
    object      rho;
}
// * * * * * * * * * * * * * * * * * * * * * * * * * * * * * * * * * * * * * //

dimensions      [1 -3 0 0 0 0 0];

internalField   nonuniform List<scalar> 
1008
(
1.40001
1.40001
1.40001
1.40216
1.64377
3.03771
1.40001
1.40001
1.40001
1.40001
1.40001
1.40001
1.40001
1.40001
1.40001
1.40001
1.40001
1.40001
1.40001
1.40001
1.40001
1.40001
1.40001
1.40001
1.40001
1.40001
1.40001
1.40001
1.4077
1.76528
1.40001
1.40001
1.40001
1.40001
1.40001
1.40001
1.40001
1.40001
1.40001
1.40001
1.40001
1.40001
1.40001
1.40001
1.40001
1.40001
1.40001
1.40001
1.40001
1.40001
1.40001
1.40001
1.40005
1.41609
1.40001
1.40001
1.40001
1.40001
1.40001
1.40001
1.40001
1.40001
1.40001
1.40001
1.40001
1.40001
1.40001
1.40001
1.40001
1.40001
1.40001
1.40001
1.40001
1.40001
1.40001
1.40001
1.40001
1.40012
1.40001
1.40001
1.40001
1.40001
1.40001
1.40001
1.40001
1.40001
1.40001
1.40001
1.40001
1.40001
1.40001
1.40001
1.40001
1.40001
1.40001
1.40001
1.40001
1.40001
1.40001
1.40001
1.40001
1.40001
1.40001
1.40001
1.40001
1.40001
1.40001
1.40001
1.40001
1.40001
1.40001
1.40001
1.40001
1.40001
1.40001
1.40001
1.40001
1.40001
1.40001
1.40001
1.40001
1.40001
1.40001
1.40001
1.40001
1.40001
1.40001
1.40001
1.40001
1.40001
1.40001
1.40001
1.40001
1.40001
1.40001
1.40001
1.40001
1.40001
1.40001
1.40001
1.40001
1.40001
1.40001
1.40001
1.40001
1.40001
1.40001
1.40001
1.40001
1.40001
1.40001
1.40001
1.40001
1.40001
1.40001
1.40001
1.40001
1.40001
1.40001
1.40001
1.40001
1.40001
1.40001
1.40001
1.40001
1.40001
1.40001
1.40001
1.40001
1.40001
1.40001
1.40001
1.40001
1.40001
1.40001
1.40001
1.40001
1.40001
1.40001
1.40001
1.40001
1.40001
1.40001
1.40001
1.40001
1.40001
1.40001
1.40001
1.40001
1.40001
1.40001
1.40001
1.40001
1.40001
1.40001
1.40001
1.40001
1.40001
1.40001
1.40001
1.40001
1.40001
1.40001
1.40001
1.40001
1.40001
1.40001
1.40001
1.40001
1.40001
1.40001
1.40001
1.40001
1.40001
1.40001
1.40001
1.40001
1.40001
1.40001
1.40001
1.40001
1.40001
1.40001
1.40001
1.40001
1.40001
1.40001
1.40001
1.40001
1.40001
1.40001
1.40001
1.40001
1.40001
1.40001
1.40001
1.40001
1.40001
1.40001
1.40001
1.40001
1.40001
1.40001
1.40001
1.40001
1.40001
1.40001
1.40001
1.40001
1.40001
1.40001
1.40001
1.40001
1.40001
1.40001
1.40001
1.40001
1.40001
1.40001
1.40001
1.40001
1.40001
1.40001
1.40001
1.40001
1.40001
1.40001
1.40001
1.40001
1.40001
1.40001
1.40001
1.40001
1.40001
1.40001
1.40001
1.40001
1.40001
1.40001
1.40001
1.40001
1.40001
1.40001
1.40001
1.40001
1.40001
1.40001
1.40001
1.40001
1.40001
1.40001
1.40001
1.40001
1.40001
1.40001
1.40001
1.40001
1.40001
1.40001
1.40001
1.40001
1.40001
1.40001
1.40001
1.40001
1.40001
1.40001
1.40001
1.40001
1.40001
1.40001
1.40001
1.40001
1.40001
1.40001
1.40001
1.40001
1.40001
1.40001
1.40001
1.40001
1.40001
1.40001
1.40001
1.40001
1.40001
1.40001
1.40001
1.40001
1.40001
1.40001
1.40001
1.40001
1.40001
1.40001
1.40001
1.40001
1.40001
1.40001
1.40001
1.40001
1.40001
1.40001
1.40001
1.40001
1.40001
1.40001
1.40001
1.40001
1.40001
1.40001
1.40001
1.40001
1.40001
1.40001
1.40001
1.40001
1.40001
1.40001
1.40001
1.40001
1.40001
1.40001
1.40001
1.40001
1.40001
1.40001
1.40001
1.40001
1.40001
1.40001
1.40001
1.40001
1.40001
1.40001
1.40001
1.40001
1.40001
1.40001
1.40001
1.40001
1.40001
1.40001
1.40001
1.40001
1.40001
1.40001
1.40001
1.40001
1.40001
1.40001
1.40001
1.40001
1.40001
1.40001
1.40001
1.40001
1.40001
1.40001
1.40001
1.40001
1.40001
1.40001
1.40001
1.40001
1.40001
1.40001
1.40001
1.40001
1.40001
1.40001
1.40001
1.40001
1.40001
4.02816
4.01207
3.82151
3.55817
3.3283
3.10228
2.90858
2.73005
2.54318
2.35263
2.2451
2.15909
2.03396
1.88974
1.78057
1.72373
1.64665
1.54155
1.468
1.41777
1.34475
1.27377
1.24337
1.21927
1.17528
1.0977
1.0506
1.04258
1.02631
0.992823
0.953202
0.932374
0.925777
3.14274
3.94322
3.91914
3.75766
3.51581
3.27412
3.05775
2.87254
2.69757
2.51448
2.36942
2.26099
2.16423
2.04625
1.91529
1.83302
1.76522
1.67414
1.57358
1.5167
1.45985
1.38356
1.32427
1.29497
1.26555
1.20773
1.13983
1.11921
1.10467
1.07597
1.02952
0.996736
0.992091
1.83871
3.12919
3.85902
3.82759
3.71213
3.47708
3.2317
3.04054
2.85672
2.66984
2.51223
2.39152
2.29571
2.1951
2.06834
1.94294
1.87146
1.80802
1.71104
1.61269
1.55539
1.50254
1.43454
1.36984
1.34375
1.31382
1.25793
1.20053
1.17851
1.16059
1.12113
1.07083
1.06088
1.42286
1.84784
3.06855
3.71998
3.77506
3.69103
3.45546
3.22507
3.02929
2.84812
2.67484
2.5194
2.41472
2.33611
2.23643
2.09765
1.97138
1.91258
1.84522
1.73674
1.64695
1.61069
1.56752
1.48954
1.41944
1.39653
1.36463
1.30534
1.25239
1.23728
1.2151
1.16526
1.14051
1.4002
1.42405
1.82479
2.87441
3.66496
3.72229
3.65453
3.45584
3.22281
3.0164
2.85294
2.69118
2.54134
2.45251
2.38008
2.26977
2.11233
2.01366
1.9617
1.88121
1.76775
1.70126
1.67178
1.61324
1.52483
1.48685
1.46216
1.41606
1.34488
1.31255
1.30191
1.2712
1.22475
1.40001
1.40022
1.42203
1.74231
2.70069
3.56107
3.62777
3.58219
3.46426
3.24197
3.02378
2.85478
2.68243
2.57478
2.51487
2.42488
2.2798
2.14825
2.07443
2.00106
1.90139
1.82035
1.7838
1.73023
1.63616
1.584
1.56169
1.52305
1.44932
1.39974
1.39137
1.37381
1.32724
1.40001
1.40001
1.40019
1.41595
1.65043
2.54356
3.31633
3.55126
3.55262
3.46991
3.25277
3.04383
2.85475
2.6998
2.63517
2.56848
2.44265
2.2977
2.20644
2.132
2.02596
1.93454
1.9007
1.8582
1.76999
1.69004
1.66464
1.63075
1.55679
1.49614
1.48659
1.47279
1.43238
1.40001
1.40001
1.40001
1.40012
1.40955
1.58064
2.28526
3.04047
3.49901
3.48147
3.42152
3.26332
3.08053
2.91203
2.77751
2.68826
2.59411
2.45048
2.32796
2.26248
2.17545
2.06045
2.01041
1.97981
1.91159
1.82034
1.77947
1.74362
1.66999
1.59971
1.5876
1.57383
1.53645
1.40001
1.40001
1.40001
1.40001
1.40006
1.40533
1.50807
1.96639
2.73231
3.38502
3.37673
3.32353
3.28154
3.17418
3.00304
2.83115
2.72375
2.61752
2.46697
2.37447
2.3103
2.2103
2.13909
2.10361
2.04567
1.95838
1.9039
1.86235
1.79078
1.71221
1.69358
1.67716
1.64121
1.40001
1.40001
1.40001
1.40001
1.40001
1.40003
1.40213
1.44415
1.70091
2.48641
3.05817
3.26652
3.33855
3.31233
3.23043
3.07085
2.90325
2.78145
2.63903
2.50362
2.43115
2.35088
2.27331
2.2249
2.17092
2.0966
2.03403
1.98199
1.90787
1.82667
1.80566
1.78526
1.74679
1.40001
1.40001
1.40001
1.40001
1.40001
1.40001
1.40001
1.40051
1.4143
1.57858
2.14779
2.71499
3.17916
3.29352
3.23375
3.16722
3.10793
2.99867
2.85276
2.69033
2.57852
2.4923
2.40682
2.35049
2.28869
2.21575
2.15702
2.10162
2.01537
1.93508
1.91908
1.89983
1.85759
1.40001
1.40001
1.40001
1.40001
1.40001
1.40001
1.40001
1.40001
1.40012
1.40561
1.48931
1.77133
2.30629
2.94545
3.11729
3.1672
3.14272
3.10611
3.03852
2.92669
2.79698
2.68393
2.56779
2.48827
2.42193
2.33024
2.26271
2.20823
2.11734
2.04478
2.03273
2.01558
1.9717
1.40001
1.40001
1.40001
1.40001
1.40001
1.40001
1.40001
1.40001
1.40001
1.40003
1.40168
1.4197
1.53954
1.9427
2.47341
2.89614
3.09956
3.09759
3.0584
3.01122
2.97517
2.90327
2.79324
2.67321
2.58164
2.47895
2.38163
2.31529
2.22605
2.15598
2.14549
2.13026
2.08498
1.40001
1.40001
1.40001
1.40001
1.40001
1.40001
1.40001
1.40001
1.40001
1.40001
1.40001
1.40014
1.40366
1.44152
1.64104
2.02842
2.49142
2.89435
2.99786
3.00565
2.97304
2.965
2.93793
2.8696
2.77286
2.66207
2.54658
2.4639
2.38353
2.30273
2.26856
2.24801
2.20142
1.40001
1.40001
1.40001
1.40001
1.40001
1.40001
1.40001
1.40001
1.40001
1.40001
1.40001
1.40001
1.40002
1.40049
1.40986
1.46238
1.66504
2.04802
2.46299
2.77881
2.88075
2.93793
2.93567
2.91503
2.85849
2.78786
2.71822
2.65927
2.59778
2.51718
2.44211
2.39297
2.33306
1.40001
1.40001
1.40001
1.40001
1.40001
1.40001
1.40001
1.40001
1.40001
1.40001
1.40001
1.40001
1.40001
1.40001
1.40006
1.40089
1.41182
1.47074
1.66115
1.98019
2.343
2.62719
2.80404
2.86542
2.84373
2.80192
2.76424
2.74502
2.73037
2.69934
2.64756
2.59062
2.53739
1.40001
1.40001
1.40001
1.40001
1.40001
1.40001
1.40001
1.40001
1.40001
1.40001
1.40001
1.40001
1.40001
1.40001
1.40001
1.40001
1.40007
1.40114
1.41163
1.4599
1.60059
1.85493
2.16693
2.44378
2.61093
2.70072
2.73553
2.77083
2.82983
2.90024
2.94561
2.97146
2.98931
1.40001
1.40001
1.40001
1.40001
1.40001
1.40001
1.40001
1.40001
1.40001
1.40001
1.40001
1.40001
1.40001
1.40001
1.40001
1.40001
1.40001
1.40001
1.40007
1.40087
1.40726
1.43748
1.52879
1.72012
2.01521
2.38084
2.76166
3.1094
3.40129
3.63844
3.82155
3.95802
4.0695
)
;

boundaryField
{
    inlet
    {
        type            calculated;
        value           uniform 1.40001;
    }
    outlet
    {
        type            calculated;
        value           nonuniform 0();
    }
    bottom
    {
        type            symmetryPlane;
    }
    top
    {
        type            symmetryPlane;
    }
    obstacle
    {
        type            calculated;
        value           nonuniform 0();
    }
    defaultFaces
    {
        type            empty;
    }
    procBoundary2to0
    {
        type            processor;
        value           nonuniform List<scalar> 
58
(
1.40001
1.40001
1.40027
1.51771
2.79145
4.08714
1.40001
1.40001
1.40001
1.40001
1.40001
1.40001
1.40001
1.40001
1.40001
1.40001
1.40001
1.40001
1.40001
1.40001
1.40001
1.40001
1.40001
1.40001
1.40001
4.11279
3.90531
3.62691
3.3814
3.16627
2.96414
2.76498
2.55994
2.38284
2.26189
2.15107
2.02154
1.8573
1.74398
1.69233
1.62205
1.51324
1.4039
1.35988
1.31721
1.24681
1.19531
1.16402
1.12899
1.07557
0.999585
0.972459
0.965934
0.946479
0.914155
0.877968
0.87068
0.868711
)
;
    }
    procBoundary2to1
    {
        type            processor;
        value           nonuniform List<scalar> 2(0.911916 0.985907);
    }
    procBoundary2to3
    {
        type            processor;
        value           nonuniform List<scalar> 
16
(
1.05726
1.13602
1.21555
1.29942
1.38714
1.48072
1.58261
1.69496
1.80885
1.92131
2.02344
2.12228
2.24156
2.47608
3.01652
4.15882
)
;
    }
}


// ************************************************************************* //
