/*--------------------------------*- C++ -*----------------------------------*\
  =========                 |
  \\      /  F ield         | OpenFOAM: The Open Source CFD Toolbox
   \\    /   O peration     | Website:  https://openfoam.org
    \\  /    A nd           | Version:  7
     \\/     M anipulation  |
\*---------------------------------------------------------------------------*/
FoamFile
{
    version     2.0;
    format      ascii;
    class       surfaceScalarField;
    location    "0.366";
    object      phi;
}
// * * * * * * * * * * * * * * * * * * * * * * * * * * * * * * * * * * * * * //

dimensions      [0 3 -1 0 0 0 0];

internalField   nonuniform List<scalar> 
18389
(
-7.97481e-05
7.97481e-05
4.35145e-05
-4.35145e-05
-5.20446e-05
5.20446e-05
4.0089e-05
-4.0089e-05
-5.18092e-05
5.18092e-05
-3.98801e-05
3.98801e-05
-3.4645e-05
3.4645e-05
3.87854e-05
-3.87854e-05
-3.50076e-05
3.50076e-05
4.14072e-05
-4.14072e-05
4.48749e-05
-4.48749e-05
-3.4369e-05
3.4369e-05
-1.08078e-05
1.08078e-05
-4.27919e-05
4.27919e-05
4.3393e-05
-4.33929e-05
2.4616e-05
-2.4616e-05
1.86518e-05
-1.86518e-05
4.58904e-05
-4.58904e-05
4.59208e-05
-4.59208e-05
4.33607e-05
-4.33607e-05
-4.25424e-05
4.25424e-05
3.50614e-05
-3.50614e-05
4.29881e-05
-4.29881e-05
-5.8602e-05
5.8602e-05
-4.97066e-05
4.97066e-05
-4.17763e-05
4.17763e-05
-4.45278e-05
4.45278e-05
4.56123e-05
-4.56123e-05
4.5848e-05
-4.5848e-05
4.41294e-05
-4.41294e-05
-4.13296e-05
4.13297e-05
-6.30562e-05
6.30562e-05
4.31118e-05
-4.31118e-05
-4.47327e-05
4.47327e-05
4.08602e-05
-4.08602e-05
4.6685e-05
-4.66849e-05
-4.55548e-05
4.55548e-05
5.36055e-05
-5.36055e-05
-5.89191e-05
5.89191e-05
3.78881e-05
-3.78881e-05
4.49253e-05
-4.49253e-05
4.54273e-05
-4.54273e-05
-4.10222e-05
4.10222e-05
4.49042e-05
-4.49042e-05
4.58614e-05
-4.58614e-05
-4.58442e-05
4.58442e-05
-4.58432e-05
4.58432e-05
-4.0652e-05
4.0652e-05
-4.58797e-05
4.58797e-05
4.59267e-05
-4.59267e-05
4.59453e-05
-4.59453e-05
4.46054e-05
-4.46054e-05
3.77246e-05
-3.77246e-05
-4.57617e-05
4.57617e-05
-5.5529e-05
5.5529e-05
-4.38088e-05
4.38088e-05
4.57586e-05
-4.57586e-05
-4.59927e-05
4.59927e-05
4.32274e-05
-4.32274e-05
-5.93198e-05
5.93198e-05
-4.71402e-05
4.71402e-05
4.96055e-05
-4.96055e-05
4.57225e-05
-4.57225e-05
-8.63095e-06
8.63097e-06
4.57716e-05
-4.57716e-05
4.14763e-05
-4.14763e-05
5.12078e-05
-5.12078e-05
-4.58603e-05
4.58603e-05
4.23174e-05
-4.23174e-05
3.13666e-05
-3.13666e-05
4.96966e-07
-4.96966e-07
-4.41428e-05
4.41428e-05
3.28684e-05
-3.28684e-05
-3.65727e-05
3.65727e-05
3.97127e-05
-3.97127e-05
2.66262e-05
-2.66262e-05
2.61931e-05
-2.61931e-05
2.70491e-05
-2.70491e-05
2.43976e-05
-2.43976e-05
1.22114e-05
-1.22114e-05
0.0010821
-0.000883581
-0.000198515
0.00546489
-0.00207318
-0.0033917
-0.00594643
0.00594645
-2.18195e-08
0.00335475
-0.00260045
-0.000754302
-0.00156848
0.00176882
-0.000200336
-0.00675131
0.0028367
0.00391462
0.00121386
0.00425103
0.00725499
-0.00587515
-0.00137985
0.00120542
-0.00190878
0.000703354
-0.000866108
-0.000702373
-0.00144205
-0.000314664
0.00175672
0.000144086
1.13085e-06
-0.000145217
0.000778605
-0.00222066
-0.00360354
0.000122291
0.00348124
-0.00320161
0.00289284
0.00030877
-0.0056982
0.0072348
-0.0015366
-0.00370885
0.00289773
0.000811111
-0.000563117
-0.00304042
-0.00175311
0.00239084
-0.000637729
-0.000463354
0.00255939
-0.00209603
-0.0016131
0.00111375
0.000499344
0.000583518
0.000581841
-0.00159754
-0.00515378
0.00133281
-0.00181449
0.000481681
0.00577853
-0.00386041
-0.00191811
-0.000671054
0.00331421
-0.00264316
-0.00583496
0.00583518
0.000460973
0.00130784
-0.00633522
0.000967018
0.00536821
0.00231489
-0.00298595
-0.00378931
0.00311406
0.000675243
0.0021488
-0.00422197
0.00108856
-0.000202537
-0.000886022
0.00151173
-0.00129175
-0.000219981
-0.0028027
-0.000398897
0.00535233
-0.00535117
0.000373324
0.00113841
0.00522731
-0.00133531
-0.003892
0.00196662
-0.000761189
0.00308573
0.00190864
-0.00499436
-0.000720773
-0.00306854
-8.97241e-05
-0.000155954
0.000245678
0.00393572
0.00331928
0.0011511
-0.00487073
0.00371962
0.00162701
0.0036003
-0.00498155
0.00632032
-0.00133877
-0.00114282
-0.000591377
0.0017342
0.00133556
0.00201919
0.000135291
0.000103625
-0.000238916
0.00502037
-0.00339336
0.00645964
-0.000840854
-0.00561879
0.00321844
-0.002668
-0.000550439
0.00221598
0.000459727
-0.00267572
0.00295776
-0.000741777
0.00650399
-0.00539863
-0.00110535
0.00049319
-0.0038511
0.00335792
6.99475e-05
0.0063897
0.00478991
-0.00429672
-0.000535772
0.00105939
-0.000523617
-0.00176198
0.000619159
0.001917
0.00224915
-0.00416614
0.000253619
-0.000333805
8.01857e-05
-0.00125638
-0.00284869
0.00410507
-2.63485e-05
0.00653034
-0.00281324
0.00230193
0.000511311
0.000389386
-1.18891e-05
-0.000377497
-0.00569232
-0.00025411
0.0018795
-0.00141853
0.000827848
0.00495068
0.000896717
0.000185382
0.00261128
-0.00642064
0.00380936
-0.00112019
0.000584422
0.00264072
-0.00389711
0.00619604
-0.00226031
0.00109212
0.00117726
-0.000792831
0.00104512
-0.000252289
-0.0011161
-0.000496998
0.00188325
0.00133518
-0.000594777
0.0014295
-0.00123737
-0.000192127
-0.00265465
0.00199161
0.000663039
0.00116677
0.000262733
0.00112221
-0.00495477
0.00383256
-0.00474536
0.00140576
0.0033396
-0.00455434
0.00611813
-0.00156379
-0.00506176
8.02101e-05
-0.00202039
-0.00063425
-0.000215932
0.000126208
-0.00121442
0.00463839
-0.00342397
-0.0011925
-0.000716273
0.000103302
-0.000192023
8.87208e-05
0.000126281
-2.29793e-05
-0.00124931
0.00462871
-0.00337939
-0.00015625
2.43613e-05
0.000131889
-0.00556619
0.00170579
-0.00120416
-0.000557814
-0.000449375
-1.89151e-05
0.000468289
-0.000543215
9.38394e-05
0.00101441
7.41498e-05
-0.0018173
0.000613136
-0.000150543
1.70427e-05
0.0001335
0.00136804
-0.00234445
0.000976407
0.000271103
-0.000135811
-0.00392543
0.0051393
-0.00245927
0.000706173
-9.7751e-05
-0.000418816
0.000516567
0.00568551
-0.00216821
-0.0035173
7.90389e-05
0.00250693
-0.00258597
0.0044465
-0.00559943
0.00115293
0.00263567
0.00304984
0.00291456
-0.00283552
-0.00614666
0.000448466
-0.0064451
0.00362312
0.00282198
0.00229248
0.00390356
-0.00438861
0.00137166
0.00301694
0.00150312
-0.00017031
-0.00102249
0.00401756
-0.00299507
0.0046385
-0.00162469
-0.00301382
-0.00459544
0.00374784
0.000847604
0.00369383
-0.00502915
5.96815e-05
0.000329705
-0.00136568
0.00581219
-9.09472e-05
0.00214925
-0.0020583
-0.00207371
0.00261411
0.000163449
-0.00277755
-0.00127739
0.00264543
-0.000638889
0.00325299
0.00164257
-0.00173352
0.000889901
0.00397131
-0.00486122
-0.0050424
0.00384083
0.00120158
0.00255191
-0.00359409
0.00104218
-0.00330947
0.00411434
-0.000804868
0.000359988
-0.00366946
-0.000928656
0.000928656
-0.000455833
0.000358082
-0.000126956
-0.000973477
0.00110043
0.00506892
-0.0018412
-0.00322772
-0.00243346
-0.000369257
0.00290071
0.000157882
1.65504e-05
-0.000174433
-0.00147437
0.0011298
0.000344566
-0.000142905
-0.00489949
0.00503623
-0.00388513
0.000231645
-8.75598e-05
0.00444355
0.000576823
0.00406761
-0.00151569
0.000164992
-7.10987e-06
-0.00632975
-0.000995461
-0.000821839
0.00430012
-0.00190374
-0.00239638
0.0027582
0.00154192
0.00107769
-0.00563202
-0.00226836
-0.000544883
-0.00112488
-0.000955852
0.00208073
4.14276e-05
-0.00272423
0.0026828
-0.00235975
0.00123488
-0.00221807
0.0053038
-0.00461128
0.00159198
0.0030193
0.00254836
0.000688513
-0.000337685
-0.000350828
-0.00601575
0.00058289
0.00543286
-0.00417552
0.00581418
-0.00163867
0.00182453
0.00163121
-0.00345575
-0.00168044
0.000898953
0.000781489
-0.00271524
0.00208851
0.000626739
0.00112375
0.000755752
0.000247178
-0.000328933
8.17567e-05
0.00487653
-0.00398664
-0.00638511
0.00557665
0.000808459
-0.00478333
-0.00166177
0.0033509
0.000620858
-0.00397175
0.000154053
-0.000162231
8.17833e-06
0.000590412
-0.000125226
-0.000465186
-0.00451865
0.00261492
0.000379983
-0.00059695
0.000216967
2.8903e-05
-0.000957562
-0.00257578
0.00448443
-0.00530462
-0.00032181
0.00562644
0.000213649
0.000200918
-0.000414567
0.00125457
-0.00125457
0.0016859
-0.000723634
-0.00210891
0.00182011
0.000288798
0.00439749
-0.00302584
-0.000162442
6.19188e-06
-0.00122529
0.00125419
0.000672323
0.00129429
0.00235126
-0.00026275
-0.00401776
-0.00128685
0.00112177
-0.00497288
0.00321328
-0.00446259
0.000833271
-0.00213691
0.00130365
0.00335956
-0.00457398
-0.00271102
-0.00180763
-0.00483643
0.00469352
-0.000676869
-0.00533888
-0.00515823
0.0014781
-0.00148179
3.68988e-06
0.00223388
0.000117378
-0.00601451
0.00204868
0.00396583
-0.00121934
0.000526002
0.000693335
0.00144567
0.00295183
-0.00462579
-0.00101404
0.00563984
-0.00021292
0.000138598
7.43214e-05
-0.00550355
0.00132803
0.00375315
-0.00493691
0.00118377
-0.00149685
-0.000612052
-0.000536677
-0.000637498
0.000138331
-0.000203784
6.54517e-05
0.00497406
-0.00385185
-0.00129989
0.0051242
-0.00382431
-0.000410257
-0.00081503
-0.0058613
0.000439744
0.00539543
-0.00615918
0.00456164
-0.000923277
-0.00546184
-0.00109729
-0.000377071
-0.00181933
0.00285789
-0.00103856
-0.000419063
0.000321986
9.70775e-05
-0.00173208
0.00141742
0.00161563
-0.000137533
0.000824647
-3.67376e-05
-0.00169535
0.00279729
0.00121642
-0.00303575
0.00605662
-0.000479962
0.0052823
7.00195e-05
-0.00528122
0.00438922
0.00114428
-0.0055335
0.000556564
-0.00076888
0.000212316
-4.30433e-05
-0.00041279
-9.58128e-06
0.0060662
-0.000162171
0.000156816
5.35513e-06
0.000133429
2.06239e-05
0.00254224
-0.00335491
0.000812672
-0.00189435
0.000693625
0.00120072
0.00791716
-0.00345163
-0.00446553
0.00116929
0.00126744
-0.00243673
0.000104636
-0.000171929
6.72934e-05
-0.000805871
0.00133187
0.00115465
0.00318293
-0.00433758
-0.00561438
0.000165701
0.00544868
-0.0040177
0.00299521
0.00173491
0.00479543
0.00458279
0.00333436
-2.25564e-05
0.000192054
-0.000169497
-0.00130031
0.00439162
-0.0030913
0.000301304
-0.000344348
-0.000131415
-8.1505e-05
0.00410064
-0.00227612
0.00474626
-0.00500151
0.000255256
-0.00322913
0.00605195
-0.00282282
0.00252867
0.00157198
0.00573859
-0.000992329
-0.00137839
-0.0056211
0.00137249
0.00424861
0.000654638
0.00052049
-0.00117513
0.00126933
-0.000614693
0.000585351
-0.00111004
0.000524689
0.00110584
0.000284183
0.00040433
-0.00067822
0.00443137
0.00152026
-0.000390465
0.00351669
-0.0061061
0.00258942
0.00153686
-0.00258548
0.00104862
-0.00431228
0.00115426
0.00315802
0.00291809
-0.0042184
-0.00490635
-0.00125283
-0.00409572
0.00126239
0.00283334
0.00124154
0.00315008
-0.00326427
-0.000831459
0.00222705
-0.00105777
-0.000672266
-0.00253597
0.00320823
0.00241084
0.000610323
-0.00302116
-0.00159383
0.00120345
0.000390378
0.000270169
0.00149738
-0.0019696
0.000472226
-0.000110968
-0.000222838
-0.000264571
0.000153604
-0.00435008
-0.000245361
-0.000295504
0.00117356
-0.000878062
0.00435098
-0.00464417
0.000293197
-8.84019e-05
0.000117738
-2.93361e-05
0.000969168
0.00338339
-0.00435255
-0.000156975
6.85732e-05
-0.00475094
0.000709531
0.00404142
-0.000809266
9.43189e-05
0.000714945
8.07665e-05
-7.96355e-05
-0.000399952
0.00086467
-0.000347474
-0.000517196
-0.00603626
0.000637628
-0.00254964
-0.000128258
0.00267789
-0.00317073
0.00441226
0.00218086
-0.00108873
-0.00116719
-0.00118644
-6.06868e-06
-0.00351807
-0.00122729
0.00152093
-0.0004136
-0.00110733
0.00191992
0.00183787
-0.00375779
0.00503804
-0.00160333
-0.00343471
0.000792702
-0.00541849
-0.0013726
0.00300381
0.00194988
0.000787938
-0.00273782
-0.00349985
0.00446903
-0.000153246
2.70284e-06
0.000932083
-0.00443193
-0.0044969
-0.000147283
-0.000998035
-0.00461634
0.00461903
0.00147995
0.00355808
0.00415938
0.00114148
-0.00530087
3.60753e-05
5.98805e-05
-9.59559e-05
-0.00141513
0.00336501
0.00370241
0.00353239
-0.00140446
0.00237333
-0.000968869
-0.00248012
0.000459725
-0.000878388
0.000751431
-0.000198417
0.000412067
-0.000205897
0.00170328
0.0037635
-0.00184358
-0.00107911
-0.000601337
-0.000107286
-0.000157285
0.00355045
-0.00163344
-0.00240369
0.00465285
0.000674506
-0.0030959
0.00242139
0.000654822
0.000764669
-0.00106017
0.00210071
-0.0013049
-0.00327611
0.00458101
-0.00216781
0.00477909
-0.000552743
0.00344558
0.000238338
-0.000221295
-0.00236354
0.000959091
0.00230238
-0.0038681
0.00156573
-0.00122202
5.82329e-05
-2.21576e-05
0.00215186
-0.00279797
0.00064612
-0.00117351
-0.000420316
-0.0035349
0.00450192
0.00118533
0.00168017
-0.0028655
-0.00169312
0.00366411
-0.00197099
0.00423805
-0.000854668
0.000234329
1.40986e-05
-0.000248427
-0.0037211
0.00202797
-0.00142017
0.00471033
-0.00329016
0.000877933
0.00130293
0.000208198
0.00104637
0.000253085
-0.000300729
4.76434e-05
0.00169952
0.000217534
-0.00191706
0.00302179
-0.0045817
0.00155991
-5.29294e-05
0.000374389
-0.00032146
0.00156366
-0.000360212
0.00143623
-0.00063854
-0.000797694
0.00282796
-0.00392069
0.00109273
0.00268215
-0.00374209
0.00105995
-0.00516002
0.00193089
0.00389606
-0.000874262
-0.00062322
-0.00238143
0.00300465
0.00140578
-0.00511642
0.00371064
0.00336052
-0.00145892
-0.00190161
-0.000689499
0.00173262
-0.00104312
0.00477166
-0.00303676
-0.000709029
-0.00195896
-0.00598207
0.00514122
3.80023e-06
0.000121854
-0.000125654
-0.00158108
0.00120408
0.000377003
-0.00490642
0.00630338
-0.00139697
-0.0018888
0.000705188
0.00118361
0.000404163
0.00268677
-0.00209007
-0.000596707
0.00343428
0.000490414
-0.0039247
0.000123012
-1.83758e-05
0.00517223
0.000336926
-0.00550915
-0.00194176
0.00379792
-0.00185617
0.00276591
-0.000629675
-0.00213624
0.000462538
0.000402132
-0.000438016
0.00387229
0.00202518
-0.00396694
0.000713877
-0.000267188
-0.000446689
-0.000650901
2.79932e-05
0.00062291
-0.0031532
-0.00576424
0.00576651
-0.000274847
0.000952552
-0.000677706
-0.00229162
-0.000188506
-0.00454672
0.00324181
-0.00086344
0.00112032
0.00360751
-0.00501949
0.00141199
0.0004107
-0.00296033
0.00233418
-0.00244049
0.000106307
-0.00157144
0.0014823
8.91424e-05
-0.00121324
-0.000367842
-0.00339208
0.00342822
-0.00224289
0.000457323
0.000133089
-0.00173916
0.00104966
-0.0027908
0.000733706
0.0020571
0.000242333
-8.0039e-06
-0.00347728
0.00102146
0.00245582
-0.0014426
0.00560198
0.000339695
-0.000958745
0.000619052
0.00212585
0.00064006
-0.00127776
0.000304282
0.00111985
0.00121433
-0.0014161
0.00494291
-0.00352681
-0.00485532
0.00577124
-0.000915914
-0.00117177
0.0022856
0.00410409
0.00107445
3.9306e-05
0.00585415
-0.00551217
-0.000341974
0.00353779
-0.00465023
0.00111244
0.00309048
-0.000679645
0.00542635
-0.00181885
-0.00250455
-0.000972732
-0.00218434
-0.000306586
0.00249093
0.00242371
-0.00196399
-0.00160818
-0.00423983
0.00274905
0.00149077
-0.000331398
0.00123035
0.00120781
0.00364932
-0.00485712
-0.000318132
0.000698116
0.00305956
-0.00238505
-0.00472431
-0.00125777
0.00647074
-0.00129851
0.0042327
0.00206311
0.00049628
0.00285575
-0.00212749
-0.000728255
0.00473732
-0.00245172
-6.71661e-05
-0.00332846
-0.000862826
0.00419128
0.000388752
-8.67779e-05
-0.000301975
-0.00513968
0.00610405
-0.000964368
-0.000714874
0.00190268
-0.00118781
-0.000697015
0.0052527
-0.0045557
0.00119677
-0.00191164
-0.000112434
-0.00576271
-0.000792831
0.00203068
0.00382347
-0.000259498
-0.00192484
0.000251389
-4.2118e-06
0.000362571
-0.000487796
0.00335945
-0.000817215
-0.00522532
-0.000271555
-0.000147509
0.000150211
-0.000133586
-1.66248e-05
-0.0024822
0.000122442
-0.000419088
0.00159656
-0.00102099
-0.000575573
0.00245713
0.000606671
-0.00306381
-0.000724157
0.00318128
-0.00520293
-0.000271524
0.00547445
0.00375047
0.00137373
0.00440277
-0.00121983
-0.000126681
0.00255039
0.00540384
-0.000206647
-0.0051972
-0.00608771
0.00425304
0.00183468
0.0032126
-0.00126802
-0.00435308
0.000203752
-0.000226309
0.000572662
0.00086357
0.00116798
0.000183569
-0.00135155
0.00421231
0.00119153
-0.000962992
0.00317213
-0.00220914
0.00472086
-0.00136996
-0.00218135
0.00279358
-0.000612217
-0.00117697
-0.000100524
0.000285422
-0.000184898
0.00344664
-0.00414366
0.00134631
-0.00099125
-0.000355057
0.00159928
-0.000395192
-0.00325016
0.00228716
0.00548723
-0.00434296
-3.06224e-05
0.00035261
-0.00535186
0.000445434
0.00541957
-0.00190289
-0.000997226
-0.00361562
0.00461285
-0.000645146
0.00288314
-0.00223799
0.00549724
-0.00286246
-0.00263478
-8.83984e-05
0.000590742
-0.000677074
0.000660588
1.64861e-05
-0.00069849
0.001736
-0.00103751
-0.00315163
-0.00116064
0.000155528
-1.71962e-05
-0.00122479
-0.00478972
-0.00307314
0.00240087
-0.000981181
-0.000273384
-7.26174e-05
-8.95534e-05
-0.00123147
-0.000805965
-0.0052303
-0.00283878
0.00219363
-0.000816341
0.00118966
0.00111797
0.00435797
-0.00547593
0.00337654
-0.00275568
0.000466366
0.000770351
-0.00288329
0.00211294
0.00497704
-0.00491545
-6.15865e-05
-0.00320946
0.00361563
-0.000406165
0.000207791
-9.56062e-05
-0.000112185
-0.00494066
-0.00148
-0.00176009
0.00368985
-0.00192976
0.00298113
-0.00221078
-0.00378347
0.00202338
0.0013951
-0.00258174
0.00118664
-0.00363303
0.00568171
0.00649817
-0.00219555
-0.00430261
-0.00239855
0.0023767
2.1852e-05
0.00559231
-0.00162102
0.00118689
-0.000926496
-0.000260397
-9.10479e-06
0.00026219
0.000249703
-0.000775172
0.000525469
-0.0030495
0.00365021
-0.000968057
0.000848018
-0.00105056
0.00236511
-0.00063397
-0.00173114
0.00221432
-0.000514792
0.00451381
0.000631221
0.00173389
-0.00176002
0.00106153
0.000408582
-0.000464702
5.61198e-05
0.00222232
-0.00174701
-0.000475305
0.000823489
-0.00514779
-0.000544531
0.00036949
-0.000588352
0.000218862
-0.00410165
0.00547414
0.000941916
-0.00111655
0.000174634
-0.00153917
0.00216368
-0.000624514
-0.00148633
-0.0027535
-0.00537474
-0.000162699
0.00553745
0.000300871
0.000108315
4.18969e-05
0.000128061
-0.000128115
5.36025e-08
0.00409782
-0.00289001
-0.00379508
-0.00231101
0.00346484
0.00303332
-0.00259081
0.000717847
0.00187297
-0.00084461
0.0022397
-0.00229845
-0.000100103
0.00272948
-0.00377713
0.00104765
0.001306
-0.000132437
0.000464043
0.000550366
-0.00327762
0.000961527
0.0023161
0.000909593
-0.000620736
-3.01668e-05
-0.00426886
0.00171387
0.000113673
-0.00182754
-0.00396279
0.00146084
0.00250195
0.000517455
0.00148861
-0.000915956
-0.000245711
-0.00466072
0.00490644
0.000784034
-0.00247675
0.00169272
0.00120222
0.00131231
-0.000455991
-0.00172771
0.0021837
0.00258003
-0.001796
0.00446671
-0.00353463
-0.000765047
-0.00264108
-0.000227334
0.000251695
-0.000710128
0.00176716
-0.00105703
0.00266231
-0.00366671
0.00100439
0.000136427
2.03896e-05
-0.00236486
-0.000912768
0.00142118
-0.00163613
0.000214944
-0.00277508
0.00068502
0.00127616
-0.00141849
0.000142333
0.00161853
-0.0018076
0.000189067
0.000674398
-0.00372081
-0.00114991
0.00133967
-0.0048869
0.00354723
-0.000910824
0.00357313
0.000118426
-7.93481e-05
-3.90777e-05
0.00473516
-0.00361719
-0.000298941
-0.00152212
-0.00401129
-0.00149226
0.00209391
0.000699654
-0.0010026
-0.000922412
-0.00452348
-0.00162318
-0.000396031
0.00124462
-0.000933172
-0.000311449
-0.00149713
-0.00108836
0.000653203
0.00226117
-0.00291437
-0.000114318
0.000670881
-0.000715946
3.88721e-05
-0.00246281
0.00196645
0.00139407
-0.00068756
0.0016366
-0.000949039
-8.68559e-05
-0.000116928
0.000318126
-0.00194686
0.000450013
0.00161825
-0.00230723
0.000688971
-0.00333651
0.00258452
0.000751982
0.0012067
0.00240411
-0.0036108
-0.00175777
0.00104764
-0.00294123
-0.00102156
-0.000780176
-0.00255633
-0.00167858
0.00125564
0.000422943
0.00176792
-5.40445e-05
-0.000758927
-0.00243701
0.00319593
-0.000664953
0.00291338
-0.00226017
-0.000858574
-0.00394756
0.00480614
-0.00234235
0.00234224
1.12248e-07
-0.000809266
-0.00156676
0.00054577
-0.00240747
0.00381963
-0.00141216
0.0032331
0.00288503
0.000194325
3.62272e-05
-0.000230553
0.00234064
-0.00060217
-0.00173846
0.000187953
-0.000184152
-0.00358812
0.00492779
-0.00329086
0.00523199
-0.00194114
-0.00350983
-0.00150966
-0.000916533
0.00323212
-0.00231559
0.00285804
0.00177178
-0.00417926
-0.00499486
-0.000144817
-0.00077926
0.00284248
-0.00206322
-0.000431808
0.000378878
-0.000532813
0.00167673
-0.00114392
-0.00402503
0.00334665
0.000678376
-0.00326916
0.00235262
-0.00386594
0.000672408
0.00319353
0.00141273
-0.00101551
-0.000397221
-0.00589956
0.000696629
0.00184705
-0.00141153
-0.000435519
0.0014568
-0.000425241
-0.00103156
7.83746e-05
0.000129417
0.00292878
-0.000626848
-0.00021425
-0.003487
-0.000378946
0.000425767
-0.00305586
-0.000969177
-0.00233762
-4.72553e-06
-0.00292003
0.00229681
0.000720095
0.0026023
-0.0033224
0.000586221
-0.000861069
0.00140523
-0.00671307
0.00530784
-0.00576873
0.000985394
-0.00233173
0.00353843
0.000694946
0.000257607
-0.0027334
0.0034535
-8.48532e-05
0.0050619
0.000605296
0.0017109
-0.0023162
-0.00177796
0.00124515
0.00274911
-0.00369525
0.00094614
0.00509961
0.00067998
0.00154233
0.000319154
0.000394722
-0.000364042
-0.000404838
0.000181005
-0.00174935
0.00176685
-0.000888919
0.000900586
0.000588027
-0.000580847
0.00300983
-0.00242898
-0.00151022
0.00184311
-0.000332887
-0.00489199
0.0038038
0.0010882
-0.00479602
0.00150516
-4.0689e-05
3.6953e-05
3.73602e-06
-0.00281331
-0.000853394
0.00109526
-0.0012996
0.000204338
0.00134741
-0.00493554
0.0011605
7.48504e-06
0.00123203
0.000692769
0.00219037
-0.00366662
0.00085332
0.00018491
-0.00504024
0.00190196
0.0012301
0.000672585
-0.00527273
-0.000491517
0.00565408
0.00118771
0.00710703
-0.00218368
-0.00492335
0.000799716
-0.00037305
-0.000426667
0.000709046
-0.00138837
0.000787027
-0.00386062
-0.0012558
0.000285422
-0.000949571
-0.000415969
0.00136554
0.00233253
0.00400853
-0.00486709
0.00270316
0.000833988
-0.00353715
0.00125037
-0.000964899
-0.000285475
0.000744629
0.001596
-0.000135147
0.000138384
-3.23727e-06
-0.000708539
0.00288373
-0.00217519
0.00362054
0.0010898
-0.00126517
-0.000413414
0.00141915
-0.00151445
9.53015e-05
4.71519e-05
7.1274e-05
-0.00447768
0.000967849
-0.00165717
0.000443922
-0.00364932
0.00292516
-0.000948675
6.50938e-05
0.000932712
0.0026818
-0.00361452
0.000849313
-0.00127201
0.00418279
-0.00291078
0.000317199
0.000279883
4.65654e-05
-0.000326449
7.83458e-05
-0.00539166
0.00531331
-0.00263795
-0.000768527
0.00340648
-0.00348406
0.00261212
0.00087195
-0.00276534
-0.0002638
-0.00171611
-0.00490239
0.000891095
-0.00145764
-0.000879982
-0.00106259
0.00379207
0.00171127
-0.00372508
0.00201381
0.000105368
2.26936e-05
0.00372661
-0.00201534
0.00286691
0.00094546
-0.00381236
-0.00130607
0.00174249
-0.000436413
0.00357435
0.00109407
-0.00466842
0.00717412
-0.00196763
-0.00520648
-0.00212846
-0.00071031
-0.00173788
0.00234317
0.00377363
-0.00492512
0.00115148
-0.00280385
0.00373656
0.00116826
-5.7281e-05
-0.00111098
0.00148011
0.000910723
-0.0055056
0.000599242
0.000436267
0.000363447
0.00292146
-0.00111836
-0.00251863
0.00248053
3.81053e-05
0.000504447
-0.00184094
0.00133649
-0.00386948
-0.00119228
0.00108721
-0.00254486
-0.0052991
0.000151317
-0.00125756
-0.000519264
0.00177682
0.00563389
-0.00449241
0.000104639
0.000284114
-0.0030229
0.00318635
0.00144333
-0.00107543
-0.00036791
0.00346948
0.00475597
-0.000952175
0.000635289
-0.00327323
0.00116189
-0.00106758
-5.29003e-05
0.000461482
0.000394119
-1.97303e-05
-0.00206568
-0.000448237
0.00154349
-0.000899554
-0.00349737
0.000763969
-2.84743e-05
-1.22147e-05
0.00599852
-0.00492081
0.00522145
-0.0043936
-3.53821e-05
-0.000714945
0.000750327
0.00194911
-0.000458047
-0.00149106
0.00335868
-0.000756381
-0.00256849
0.00336096
-0.000792475
-0.00183399
0.000527917
0.00127935
-0.000953567
-0.000325779
-0.000118768
-0.000210165
0.00205953
-0.000547911
-0.00151162
-0.00138172
-0.00239485
-0.000123778
0.00209264
-0.00274597
0.000653331
0.00280658
-0.000749489
-0.0020571
0.00410351
-0.00434922
0.000314449
0.00223694
-0.00061868
-0.000681172
0.000835925
-0.00367524
0.00502264
0.0012151
0.00046184
-0.0017194
-0.00286138
0.00209804
0.00363172
0.00158972
-0.00115589
-0.00382722
-0.00112756
0.00130616
-0.00171878
0.000412616
0.00367585
-0.00318545
-0.000193953
0.00113587
-3.86203e-05
-0.000271618
0.000310239
-0.000685525
-0.00190529
0.00377288
-0.00490627
0.00113341
-0.0018671
0.00235264
-0.000485552
-0.00115224
0.00213364
0.000750086
-0.00226379
0.00375513
-0.00149134
0.0015087
-0.00114498
-0.000363719
-0.00108068
0.000271418
0.000197371
-0.000456425
0.000259054
-0.000426755
-0.00123041
-0.00247904
0.00250592
-2.68825e-05
0.00144773
-0.00371153
0.00162598
-0.000370337
0.000368178
-0.0004047
3.65223e-05
-0.000827846
0.00059462
0.000233226
-0.000794213
-0.00284423
0.000817405
0.00202683
-0.00199516
-0.000874642
-0.00071361
0.00158825
-0.00524012
0.00389582
0.0013443
-0.001355
0.00131961
-0.000576291
-0.000115988
0.000692279
0.00286857
-0.000734935
-0.000770176
-0.000160286
0.000930461
0.00184217
-0.00138034
0.00169967
-0.000393506
-0.0001931
-0.000636253
-0.00420288
0.00483914
-0.00139781
0.00283169
0.00427535
-0.00239944
-7.95944e-05
0.00312533
-0.00472866
0.000732604
0.0015825
-0.00231511
0.00201599
-0.00279525
0.00197812
-0.000704747
-0.00127337
-0.00179629
0.000455568
0.00134072
0.00431112
0.00286301
-0.00551526
0.0013365
0.00417876
-0.00124971
-0.00399041
-0.000459872
-0.00133642
-0.00101033
-0.000556427
-0.00129396
-0.000424826
0.00114036
-0.000532073
0.00151305
-0.000980976
-0.00175743
0.00129755
-0.000944222
-0.000207296
0.00115152
0.00217381
-0.00286755
0.000693751
-1.17702e-05
0.000206095
0.00103566
0.00605854
-0.00140655
-0.00465199
-0.00203429
-0.00187342
0.00134751
0.000525913
0.00127195
-0.000980264
-0.000291688
-0.00229633
-0.00102257
0.00331892
-0.00267329
0.00358162
-0.00090833
-0.000917521
0.00113917
-1.19473e-05
-0.00112723
0.00376184
-0.00493474
0.0011729
0.0017478
-0.0013559
-0.000391898
0.00242708
-0.00122486
0.00273384
-0.000636381
-0.000191465
-0.00408788
0.00229662
-0.00179947
-0.000497147
0.000560188
-0.00200951
0.00144932
-0.0025197
-0.000835211
0.000860557
-0.00065947
-0.000201088
-0.000180552
-0.00363841
0.000965115
0.000655402
-0.00045803
0.00259746
0.000984159
0.000318387
0.00131032
0.000667796
-0.00160423
0.00233682
-0.00151007
0.000995691
0.000514379
0.00354519
-0.000678269
-0.00380969
0.00610218
-0.00114443
-0.00248516
0.0068268
-0.00434164
-0.000886259
0.00356807
-0.00414183
0.000932375
-0.00210097
0.00424976
-0.000679183
-0.00162804
-0.00244754
0.00172041
0.00072714
-0.00127867
0.000722534
-0.000669425
-5.31074e-05
-0.00137572
-0.000776621
-0.000153518
0.00093014
-0.00157006
0.00137383
0.000196234
0.00204406
0.000798421
6.25125e-05
-0.00129988
-0.000552885
-0.00083548
-0.00241623
-0.000470436
-0.00140298
-0.000171095
0.00159228
-0.000180644
0.00341035
-0.00051263
0.00133867
0.000199718
-0.000781534
-0.00103295
-0.00193035
0.00247682
-0.000546475
-0.00105261
-0.0057289
0.00351083
0.00148475
-0.000584163
0.00288766
-0.00120749
0.000953439
-0.00135913
-0.00453066
0.00588979
0.000619932
-0.00255028
0.000740109
-0.00368696
0.00270022
0.000986743
0.000895447
-0.00142752
0.00222949
-0.00311799
0.000888496
0.00119481
-0.00342935
0.00223454
0.000860101
0.00168884
-0.00254894
-0.000174369
0.0017929
0.00274857
0.00108194
0.00361889
-0.000413523
0.000783011
0.00315928
-0.0040221
0.000976553
-0.00327288
0.000434499
0.00412476
0.0014845
-1.04981e-05
-0.000276284
0.000286782
-0.00619221
0.00385652
0.00233569
-0.00082452
-0.0026178
0.00344233
0.00263996
-0.00177985
-0.00369594
0.000892082
-0.0013219
-0.000435529
-0.0001527
0.00131947
0.00372172
0.00122118
0.000224177
0.0013102
-0.00099372
-0.000316481
0.000910636
0.000574115
-0.000314112
0.00376917
-0.00493225
0.00116309
0.00307697
-0.000847494
-0.00139927
0.00190371
0.00125981
-0.0035544
0.00229459
-0.00116558
0.00145685
0.000678042
-0.0021349
0.000192775
-0.000203274
0.00219903
-0.000863466
-0.0012849
0.000329937
0.000923185
-0.000346733
-0.000576453
0.00353148
-0.00227168
-0.000508836
0.00229677
-0.00178794
0.00102302
-0.00296402
0.00209185
0.000872184
0.00010606
-6.92383e-07
0.00465955
0.000545469
-0.00569926
-0.00519307
0.00392745
0.00126563
-0.00107494
-0.0026959
0.00377084
0.00222131
0.00372514
0.00282844
-0.00375326
0.000924825
-0.00147122
0.00110338
-0.000939548
0.00336935
-0.0024298
0.00149762
0.000561916
-0.00378465
-0.00240756
0.0010691
-0.0023046
0.0032104
-0.000905809
0.00342777
-0.000815652
0.000395568
-0.000800182
0.00254882
0.00087895
-0.000634521
0.00431038
-0.00131039
0.00171683
-0.000406442
0.0019775
-0.00128387
-0.000389273
0.00607686
-0.00491976
-0.000454984
0.000858042
-0.00246227
-0.00539146
-0.00172345
0.000413057
-0.000678139
0.000101848
-0.000867491
0.000214747
-0.00147062
0.00065525
0.00158168
-0.000905371
0.000135195
0.000804651
0.00251639
-0.00332105
-0.00109507
0.00187367
-0.00194718
-0.000474056
0.0019613
-0.00148724
-0.000872122
-0.0020919
-0.00195185
0.0014778
-0.00265791
0.00346255
-0.00164205
0.000577724
0.00106432
-0.000969954
0.00356741
0.00599704
-0.00229464
-0.00130438
-0.00041906
-0.00174113
0.00110382
0.000637312
0.00090327
-0.00451823
0.00361496
-0.00132041
0.000543258
0.000777149
-0.00403528
-0.0011578
0.000191847
-0.00113607
0.00193505
-0.000704953
-0.00133771
-0.00380251
0.00514022
0.00100736
6.7089e-05
0.00329725
-0.00252873
-0.000768525
0.000134475
0.00132232
0.000877521
-0.000670624
-0.000206897
-0.00135059
-0.00101295
-0.00106895
0.00509804
-0.00402909
0.000630046
-0.00249714
0.00017221
0.00124694
0.00377348
-0.00496019
0.00118671
0.00287463
-0.00205723
0.000101851
-0.000168273
6.64222e-05
0.00102611
0.000138083
0.000104249
0.00235658
0.00370197
-0.000577147
-0.000820006
0.00139715
0.000652403
0.00177232
-0.00242472
0.00239915
-0.00171333
-0.000685823
0.00047532
0.00147378
0.000425901
-0.000512225
-0.000808184
0.000599819
-0.00532413
0.000690441
-2.98538e-05
-0.00115876
-0.0013071
-0.00378834
0.00509544
0.00104243
0.00143763
-0.00189567
0.00254688
-0.000395068
-0.00490899
0.00530406
0.00012074
-1.88892e-05
0.000640469
0.00129458
0.0027331
0.000937985
-0.00367108
0.00137575
0.000471301
0.00258892
-0.00364135
0.00454462
0.00277441
0.000843054
-0.00361747
0.0016475
-0.000876442
-0.000771056
0.00132945
-0.00102016
-0.000309294
0.000422874
0.00105726
-0.00469862
0.000218051
-7.18879e-06
0.000199964
0.00601714
-0.00128198
0.00152681
-0.00212898
0.00252437
-0.00183034
-0.000694036
0.000852666
-0.00254454
0.00169188
0.00523517
-0.00281856
-0.000923519
-0.00159488
0.00500727
0.00148596
-0.00178132
0.000295363
0.000500053
-0.000103674
-0.000396379
-0.000991245
-0.0031414
0.00413265
0.000741757
0.00182048
-0.00256224
0.00176743
-0.000281471
0.00225089
0.00141105
-0.000867794