/*--------------------------------*- C++ -*----------------------------------*\
  =========                 |
  \\      /  F ield         | OpenFOAM: The Open Source CFD Toolbox
   \\    /   O peration     | Website:  https://openfoam.org
    \\  /    A nd           | Version:  7
     \\/     M anipulation  |
\*---------------------------------------------------------------------------*/
FoamFile
{
    version     2.0;
    format      ascii;
    class       volScalarField;
    location    "7";
    object      p;
}
// * * * * * * * * * * * * * * * * * * * * * * * * * * * * * * * * * * * * * //

dimensions      [0 2 -2 0 0 0 0];

internalField   nonuniform List<scalar> 
15200
(
-0.361246
-0.466929
-0.610659
-0.487492
-0.283857
-0.138433
-0.0427926
0.00259282
0.025396
0.0327052
0.0335333
0.0308849
0.0275741
0.0236347
0.0204639
-0.363474
-0.468985
-0.616122
-0.494269
-0.288699
-0.141635
-0.045566
0.000292177
0.0232842
0.0308783
0.0318588
0.0294268
0.0262047
0.0224324
0.0192657
-0.367753
-0.472863
-0.626257
-0.506911
-0.297896
-0.148102
-0.0510982
-0.00439985
0.0189852
0.0271824
0.0285458
0.0265992
0.0236667
0.0202847
0.0172449
-0.373745
-0.478134
-0.639637
-0.523848
-0.310391
-0.15779
-0.0592776
-0.0114479
0.0125528
0.0216983
0.0237813
0.0226182
0.020254
0.017475
0.0147563
-0.38099
-0.484242
-0.65446
-0.543254
-0.324559
-0.170154
-0.0698492
-0.0205445
0.00433461
0.0147502
0.0179253
0.0178118
0.0162715
0.0142483
0.012022
-0.388956
-0.490571
-0.668844
-0.563308
-0.338696
-0.184053
-0.0822397
-0.0311361
-0.00509985
0.0068284
0.0113974
0.0125234
0.0119787
0.0108022
0.00917486
-0.397081
-0.496496
-0.681043
-0.581977
-0.351831
-0.198136
-0.0956215
-0.042563
-0.0151371
-0.00156304
0.00457498
0.00703574
0.00756976
0.00727638
0.00629169
-0.404817
-0.501394
-0.68953
-0.597984
-0.363235
-0.211202
-0.109092
-0.0541906
-0.0252482
-0.0100067
-0.00225437
0.00154996
0.00317969
0.00376446
0.00342662
-0.411671
-0.504599
-0.693054
-0.610272
-0.372386
-0.222419
-0.12185
-0.0654878
-0.03504
-0.0182041
-0.00889673
-0.00380525
-0.00110762
0.000322506
0.000614084
-0.417234
-0.505421
-0.691097
-0.617227
-0.379024
-0.231351
-0.133302
-0.0760573
-0.0442518
-0.0259621
-0.01523
-0.0089486
-0.00523902
-0.00301652
-0.00212472
-0.421234
-0.503388
-0.683015
-0.617185
-0.382988
-0.2379
-0.143096
-0.0856323
-0.052726
-0.033165
-0.0211784
-0.0138251
-0.00917539
-0.0062281
-0.00476242
-0.423597
-0.49738
-0.669256
-0.609224
-0.384167
-0.242209
-0.151099
-0.0940588
-0.0603777
-0.0397492
-0.0266947
-0.0183941
-0.0128875
-0.00929085
-0.0072667
-0.42446
-0.487455
-0.651771
-0.593687
-0.382554
-0.244562
-0.157342
-0.101273
-0.0671699
-0.0456866
-0.0317515
-0.022625
-0.0163552
-0.012184
-0.00962148
-0.424195
-0.474411
-0.632746
-0.572207
-0.37828
-0.245273
-0.161966
-0.107281
-0.0730977
-0.0509729
-0.0363355
-0.0264977
-0.0195631
-0.0148893
-0.011824
-0.423186
-0.459178
-0.614127
-0.547044
-0.371609
-0.244606
-0.165161
-0.112136
-0.0781779
-0.055619
-0.0404439
-0.0300032
-0.022501
-0.0173932
-0.0138497
-0.421541
-0.4424
-0.596424
-0.520263
-0.362906
-0.242745
-0.167121
-0.115921
-0.0824432
-0.0596453
-0.0440828
-0.0331398
-0.0251694
-0.0196784
-0.0156585
-0.418875
-0.424452
-0.578434
-0.493289
-0.352603
-0.239814
-0.16802
-0.118737
-0.0859368
-0.0630773
-0.047263
-0.0359136
-0.0275809
-0.0217226
-0.0172112
-0.414428
-0.405887
-0.558277
-0.466898
-0.341148
-0.235932
-0.168005
-0.120682
-0.0887079
-0.0659439
-0.0499963
-0.0383401
-0.0297482
-0.0235084
-0.0185043
-0.407549
-0.387974
-0.534934
-0.441456
-0.328976
-0.231232
-0.167194
-0.121852
-0.0908085
-0.0682743
-0.0522979
-0.0404406
-0.0316698
-0.0250392
-0.0196178
-0.398166
-0.372689
-0.508859
-0.41712
-0.316472
-0.225856
-0.16569
-0.122331
-0.0922901
-0.0700975
-0.054188
-0.0422318
-0.0333318
-0.0263475
-0.0207428
-0.386807
-0.362034
-0.48154
-0.393943
-0.303922
-0.219942
-0.163579
-0.12219
-0.0932017
-0.0714432
-0.0556889
-0.0437228
-0.0347261
-0.027495
-0.0220073
-0.374153
-0.357125
-0.454647
-0.371908
-0.29151
-0.213616
-0.160938
-0.121492
-0.0935895
-0.072342
-0.0568224
-0.0449171
-0.0358662
-0.0285629
-0.0230962
-0.360567
-0.357482
-0.429459
-0.350959
-0.279329
-0.206981
-0.157836
-0.120293
-0.0934974
-0.0728248
-0.0576086
-0.0458186
-0.0367722
-0.0294888
-0.0239739
-0.345963
-0.360695
-0.406647
-0.33103
-0.267411
-0.200118
-0.154334
-0.118643
-0.0929671
-0.0729221
-0.0580651
-0.0464365
-0.0374478
-0.0302288
-0.0246987
-0.330051
-0.362855
-0.386278
-0.312072
-0.255758
-0.193086
-0.150486
-0.116587
-0.0920379
-0.0726626
-0.0582093
-0.0467802
-0.0378989
-0.0307749
-0.0252475
-0.312855
-0.359957
-0.36796
-0.294063
-0.24437
-0.18593
-0.14634
-0.114167
-0.0907471
-0.072073
-0.0580573
-0.0468625
-0.0381307
-0.0311199
-0.0256344
-0.295196
-0.349687
-0.351116
-0.276999
-0.233249
-0.178685
-0.141938
-0.11142
-0.0891292
-0.0711774
-0.0576252
-0.0466959
-0.0381503
-0.0312752
-0.0258501
-0.278731
-0.332377
-0.33525
-0.260871
-0.222406
-0.171378
-0.137316
-0.108382
-0.0872158
-0.0699979
-0.0569287
-0.0462954
-0.0379675
-0.0312427
-0.0258999
-0.265409
-0.310473
-0.320074
-0.245648
-0.211848
-0.164032
-0.132506
-0.105084
-0.0850349
-0.0685543
-0.0559843
-0.0456757
-0.0375916
-0.0310339
-0.025783
-0.256675
-0.287019
-0.305475
-0.231275
-0.20158
-0.156668
-0.127534
-0.101554
-0.0826114
-0.0668655
-0.0548087
-0.0448514
-0.0370339
-0.0306539
-0.0255045
-0.253039
-0.264351
-0.291434
-0.217678
-0.191597
-0.149299
-0.122423
-0.0978178
-0.0799678
-0.0649491
-0.0534183
-0.0438355
-0.0363024
-0.0301137
-0.0250728
-0.254213
-0.243684
-0.277955
-0.204775
-0.181888
-0.141936
-0.117194
-0.093898
-0.0771243
-0.0628224
-0.051829
-0.0426395
-0.0354074
-0.0294212
-0.0245001
-0.259499
-0.225373
-0.265038
-0.192482
-0.172439
-0.134587
-0.111865
-0.089814
-0.0740987
-0.060502
-0.0500568
-0.0412754
-0.034358
-0.0285873
-0.0238005
-0.268069
-0.209328
-0.252666
-0.180721
-0.163231
-0.127254
-0.106451
-0.0855834
-0.0709064
-0.0580045
-0.0481174
-0.0397555
-0.0331641
-0.0276202
-0.0229874
-0.279097
-0.195279
-0.240805
-0.169411
-0.154242
-0.119937
-0.100962
-0.0812223
-0.0675612
-0.0553449
-0.046025
-0.0380912
-0.0318326
-0.026528
-0.0220759
-0.291794
-0.182908
-0.229407
-0.158478
-0.145451
-0.112637
-0.0954088
-0.0767454
-0.0640761
-0.0525359
-0.0437927
-0.0362905
-0.0303702
-0.0253178
-0.0210766
-0.305421
-0.17189
-0.218415
-0.147849
-0.136828
-0.105355
-0.0897986
-0.0721611
-0.060467
-0.0495866
-0.0414331
-0.0343573
-0.0287861
-0.0239985
-0.019992
-0.319294
-0.161907
-0.207766
-0.137464
-0.128343
-0.0980831
-0.0841519
-0.0674625
-0.0567596
-0.0465001
-0.0389613
-0.0322936
-0.0270944
-0.0225786
-0.018813
-0.332793
-0.152659
-0.197393
-0.127266
-0.119978
-0.0907859
-0.0785154
-0.0626177
-0.0529955
-0.0432747
-0.0363939
-0.0301056
-0.0253122
-0.021062
-0.0175269
-0.345366
-0.143867
-0.187213
-0.117194
-0.111758
-0.0833815
-0.072967
-0.0575773
-0.0492223
-0.0399159
-0.0337404
-0.0278078
-0.0234551
-0.0194469
-0.0161312
-0.356527
-0.135284
-0.177133
-0.107143
-0.10378
-0.0757512
-0.0675776
-0.052327
-0.0454491
-0.0364606
-0.0309882
-0.0254295
-0.0215141
-0.0177371
-0.014648
-0.365862
-0.126694
-0.16709
-0.0969367
-0.0961818
-0.0678313
-0.0623124
-0.0469844
-0.0415783
-0.0329939
-0.0281024
-0.0230122
-0.0194625
-0.0159371
-0.0131148
-0.373021
-0.117883
-0.157138
-0.0863633
-0.0889883
-0.0597748
-0.0569302
-0.041839
-0.0374167
-0.0295783
-0.0250914
-0.0205511
-0.0173065
-0.0140603
-0.0115321
-0.377718
-0.108579
-0.147495
-0.0753505
-0.081893
-0.0520079
-0.0511398
-0.0369191
-0.0330458
-0.026164
-0.022008
-0.0180261
-0.0150751
-0.0121142
-0.00989932
-0.379717
-0.0984274
-0.1384
-0.0641826
-0.0743084
-0.0447227
-0.0450103
-0.0321358
-0.0285678
-0.0226985
-0.0188919
-0.0154325
-0.0127882
-0.0101121
-0.00821668
-0.378842
-0.0871528
-0.129642
-0.0532594
-0.0661272
-0.0378118
-0.0386613
-0.0273955
-0.0240622
-0.019155
-0.0157594
-0.0127794
-0.010456
-0.0080648
-0.0064843
-0.375013
-0.0749393
-0.120136
-0.0431195
-0.0574626
-0.0311386
-0.0322031
-0.0226305
-0.0195753
-0.0155344
-0.0126102
-0.0100802
-0.00808502
-0.00598108
-0.00470609
-0.368286
-0.0625194
-0.109309
-0.0335321
-0.0484506
-0.0245861
-0.0257175
-0.0178038
-0.0151256
-0.0118542
-0.00944017
-0.00734752
-0.00568181
-0.00386975
-0.00289185
-0.358796
-0.0496616
-0.0973443
-0.0242788
-0.0392119
-0.0180688
-0.0192594
-0.0129046
-0.0107134
-0.00813753
-0.00624953
-0.00459227
-0.00325463
-0.00173896
-0.00105442
-0.34651
-0.0363012
-0.0844524
-0.0151893
-0.0298414
-0.0115302
-0.0128603
-0.00794066
-0.00633153
-0.00440501
-0.00304422
-0.00182432
-0.000812468
0.000405322
0.000795962
-0.330954
-0.0227364
-0.0708156
-0.00614691
-0.0204117
-0.00493887
-0.00653521
-0.00293033
-0.00197343
-0.000672263
0.000166536
0.000948176
0.00163661
0.00255628
0.00265435
-0.311911
-0.00911974
-0.056577
0.00293106
-0.0109766
0.00171727
-0.000288788
0.0021039
0.00236345
0.00304912
0.00337262
0.00371901
0.00408539
0.00470387
0.00451952
-0.289678
0.00472485
-0.0418562
0.0120975
-0.00157563
0.00843582
0.00587941
0.00713969
0.00667683
0.00674977
0.00656438
0.00648279
0.0065274
0.00683597
0.00638479
-0.264544
0.0189188
-0.026757
0.0213827
0.0077621
0.0152043
0.011971
0.0121569
0.0109605
0.0104215
0.00973345
0.00923355
0.00895509
0.00893923
0.0082229
-0.236793
0.0335326
-0.0113725
0.030798
0.0170147
0.0220034
0.0179862
0.0171379
0.0152057
0.0140569
0.0128732
0.0119641
0.0113556
0.0109911
0.00997578
-0.206713
0.0485925
0.00421183
0.0403392
0.0261646
0.0288101
0.0239225
0.0220674
0.0194027
0.0176489
0.0159781
0.0146657
0.0137065
0.0129486
0.011573
-0.174597
0.0640936
0.0199164
0.0499899
0.0351965
0.0355992
0.0297745
0.0269319
0.0235411
0.021191
0.0190431
0.0173277
0.0159816
0.0147621
0.0129964
-0.140749
0.0800066
0.0356656
0.0597236
0.0440955
0.0423448
0.0355338
0.0317186
0.0276112
0.0246763
0.0220609
0.0199376
0.0181638
0.0164284
0.0143349
-0.105479
0.0962822
0.0513864
0.0695058
0.0528462
0.0490209
0.0411897
0.0364155
0.0316034
0.0280974
0.0250211
0.0224801
0.0202539
0.0180251
0.0157705
-0.0691012
0.112855
0.0670082
0.0792965
0.0614315
0.0556021
0.0467296
0.0410109
0.0355082
0.0314451
0.0279102
0.0249395
0.0222639
0.0196533
0.0174717
-0.0319342
0.129645
0.0824613
0.0890509
0.0698328
0.0620633
0.0521395
0.045493
0.0393159
0.0347087
0.0307151
0.0273083
0.0242118
0.0213342
0.0195288
0.00570452
0.146564
0.0976774
0.0987213
0.0780293
0.0683801
0.0574045
0.0498499
0.0430161
0.0378767
0.0334254
0.0295903
0.0261288
0.0230921
0.0215104
0.0434988
0.163512
0.112589
0.108258
0.0859985
0.0745287
0.0625093
0.0540698
0.0465981
0.0409377
0.0360342
0.0317951
0.0280385
0.0249013
0.0233281
0.0811371
0.180383
0.127129
0.11761
0.0937166
0.0804861
0.0674384
0.0581404
0.0500505
0.0438812
0.0385369
0.0339258
0.0299276
0.0266921
0.0250067
0.118315
0.197066
0.141231
0.126727
0.101158
0.0862297
0.0721763
0.0620494
0.0533621
0.0466984
0.040932
0.0359858
0.0317809
0.0284214
0.0265593
0.154735
0.213445
0.15483
0.135558
0.108298
0.0917374
0.0767073
0.0657842
0.056522
0.049381
0.0432155
0.0379678
0.0335761
0.0300731
0.0280104
0.190113
0.229405
0.167863
0.144053
0.115108
0.0969878
0.0810163
0.0693327
0.0595202
0.0519228
0.045384
0.0398634
0.0352931
0.0316327
0.0293627
0.224175
0.244827
0.180266
0.152165
0.121563
0.10196
0.0850882
0.0726827
0.0623468
0.0543167
0.047432
0.0416636
0.0369221
0.0330991
0.0306195
0.256662
0.259597
0.19198
0.159846
0.127638
0.106635
0.0889088
0.0758229
0.064993
0.0565566
0.049353
0.0433579
0.0384512
0.0344662
0.0317804
0.28733
0.273599
0.202945
0.167054
0.133305
0.110993
0.0924639
0.0787421
0.0674504
0.0586363
0.0511408
0.0449391
0.0398752
0.0357311
0.0328441
0.315954
0.286726
0.213106
0.173746
0.138542
0.115017
0.0957407
0.0814302
0.0697112
0.0605494
0.0527885
0.046399
0.0411875
0.0368906
0.0338098
0.342327
0.29887
0.222412
0.179884
0.143326
0.118689
0.0987268
0.0838777
0.0717681
0.06229
0.0542901
0.0477315
0.0423834
0.0379416
0.0346769
0.366264
0.309931
0.230812
0.185433
0.147635
0.121994
0.101411
0.0860759
0.0736143
0.0638524
0.0556398
0.0489307
0.0434583
0.0388815
0.0354451
0.387596
0.319816
0.238264
0.19036
0.15145
0.124918
0.103783
0.0880172
0.0752438
0.0652314
0.0568325
0.0499916
0.0444083
0.0397082
0.0361146
0.406173
0.328444
0.244726
0.194638
0.154753
0.127448
0.105833
0.0896944
0.076651
0.0664224
0.0578636
0.0509097
0.0452297
0.0404197
0.0366859
0.421862
0.335745
0.250165
0.198241
0.157529
0.129573
0.107555
0.0911016
0.0778312
0.0674212
0.058729
0.051681
0.0459194
0.0410148
0.0371598
0.43455
0.341658
0.254552
0.201148
0.159766
0.131285
0.10894
0.0922335
0.0787803
0.0682245
0.0594255
0.0523021
0.0464745
0.0414922
0.0375372
0.444147
0.346136
0.257863
0.203344
0.161453
0.132575
0.109983
0.0930862
0.079495
0.0688294
0.0599503
0.0527704
0.0468929
0.0418511
0.037819
0.450584
0.349142
0.26008
0.204814
0.162582
0.133438
0.110682
0.0936563
0.0799728
0.0692338
0.0603013
0.0530837
0.0471728
0.0420907
0.0380061
0.453814
0.350651
0.261192
0.205552
0.163148
0.13387
0.111031
0.0939419
0.0802121
0.0694364
0.0604771
0.0532407
0.0473131
0.0422107
0.0380995
0.453814
0.350651
0.261192
0.205552
0.163148
0.13387
0.111031
0.0939419
0.0802121
0.0694364
0.0604771
0.0532407
0.0473131
0.0422107
0.0380995
0.450584
0.349142
0.26008
0.204814
0.162582
0.133438
0.110682
0.0936563
0.0799728
0.0692338
0.0603013
0.0530837
0.0471728
0.0420907
0.0380061
0.444147
0.346136
0.257863
0.203344
0.161453
0.132575
0.109984
0.0930862
0.079495
0.0688294
0.0599503
0.0527704
0.0468929
0.0418511
0.037819
0.43455
0.341658
0.254552
0.201148
0.159766
0.131285
0.10894
0.0922336
0.0787803
0.0682245
0.0594255
0.0523021
0.0464745
0.0414922
0.0375372
0.421862
0.335745
0.250165
0.198241
0.157529
0.129573
0.107555
0.0911016
0.0778312
0.0674212
0.058729
0.051681
0.0459194
0.0410148
0.0371598
0.406173
0.328444
0.244726
0.194638
0.154753
0.127448
0.105833
0.0896944
0.076651
0.0664224
0.0578636
0.0509097
0.0452298
0.0404198
0.0366859
0.387596
0.319816
0.238264
0.19036
0.15145
0.124918
0.103783
0.0880172
0.0752438
0.0652314
0.0568325
0.0499917
0.0444083
0.0397082
0.0361146
0.366264
0.309931
0.230813
0.185433
0.147635
0.121994
0.101411
0.086076
0.0736143
0.0638524
0.0556398
0.0489308
0.0434584
0.0388815
0.0354451
0.342327
0.29887
0.222412
0.179884
0.143326
0.118689
0.0987268
0.0838777
0.0717681
0.06229
0.0542901
0.0477315
0.0423834
0.0379416
0.0346769
0.315955
0.286726
0.213107
0.173746
0.138542
0.115017
0.0957408
0.0814302
0.0697112
0.0605494
0.0527885
0.046399
0.0411875
0.0368906
0.0338098
0.287331
0.273599
0.202945
0.167054
0.133305
0.110994
0.092464
0.0787422
0.0674505
0.0586364
0.0511409
0.0449392
0.0398752
0.0357311
0.0328441
0.256662
0.259597
0.19198
0.159846
0.127638
0.106635
0.0889088
0.0758229
0.0649931
0.0565567
0.049353
0.043358
0.0384513
0.0344662
0.0317805
0.224175
0.244827
0.180266
0.152165
0.121564
0.101961
0.0850883
0.0726828
0.0623469
0.0543168
0.047432
0.0416637
0.0369221
0.0330992
0.0306196
0.190113
0.229405
0.167863
0.144053
0.115108
0.0969879
0.0810164
0.0693328
0.0595203
0.0519228
0.0453841
0.0398635
0.0352932
0.0316328
0.0293627
0.154735
0.213446
0.154831
0.135558
0.108298
0.0917375
0.0767074
0.0657843
0.0565221
0.0493811
0.0432155
0.0379678
0.0335761
0.0300732
0.0280105
0.118315
0.197066
0.141231
0.126727
0.101158
0.0862298
0.0721764
0.0620495
0.0533622
0.0466984
0.0409321
0.0359859
0.031781
0.0284214
0.0265593
0.0811378
0.180383
0.127129
0.11761
0.0937168
0.0804863
0.0674386
0.0581405
0.0500506
0.0438813
0.038537
0.0339259
0.0299277
0.0266922
0.0250068
0.0434995
0.163513
0.112589
0.108258
0.0859987
0.0745289
0.0625094
0.0540699
0.0465982
0.0409378
0.0360343
0.0317952
0.0280386
0.0249013
0.0233282
0.00570522
0.146565
0.0976777
0.0987215
0.0780294
0.0683802
0.0574046
0.04985
0.0430162
0.0378768
0.0334255
0.0295904
0.0261289
0.0230922
0.0215104
-0.0319334
0.129646
0.0824616
0.0890511
0.069833
0.0620634
0.0521396
0.0454931
0.039316
0.0347088
0.0307151
0.0273084
0.0242119
0.0213342
0.0195288
-0.0691005
0.112855
0.0670085
0.0792967
0.0614317
0.0556023
0.0467298
0.041011
0.0355083
0.0314452
0.0279103
0.0249396
0.0222639
0.0196534
0.0174717
-0.105478
0.0962825
0.0513868
0.0695061
0.0528464
0.0490211
0.0411899
0.0364157
0.0316035
0.0280975
0.0250212
0.0224801
0.020254
0.0180252
0.0157706
-0.140748
0.080007
0.035666
0.0597238
0.0440957
0.042345
0.035534
0.0317187
0.0276113
0.0246764
0.022061
0.0199377
0.0181638
0.0164285
0.014335
-0.174596
0.064094
0.0199168
0.0499902
0.0351967
0.0355994
0.0297746
0.026932
0.0235412
0.0211911
0.0190432
0.0173278
0.0159816
0.0147622
0.0129965
-0.206712
0.0485929
0.00421224
0.0403395
0.0261649
0.0288103
0.0239226
0.0220676
0.0194028
0.017649
0.0159782
0.0146658
0.0137066
0.0129486
0.011573
-0.236793
0.033533
-0.0113721
0.0307982
0.0170149
0.0220036
0.0179863
0.017138
0.0152059
0.014057
0.0128732
0.0119642
0.0113556
0.0109912
0.00997584
-0.264543
0.0189192
-0.0267565
0.021383
0.00776236
0.0152045
0.0119712
0.012157
0.0109606
0.0104216
0.00973355
0.00923364
0.00895517
0.0089393
0.00822296
-0.289677
0.00472526
-0.0418557
0.0120977
-0.00157536
0.00843602
0.00587959
0.00713983
0.00667695
0.00674988
0.00656448
0.00648287
0.00652748
0.00683604
0.00638486
-0.31191
-0.00911931
-0.0565766
0.00293134
-0.0109763
0.00171747
-0.000288607
0.00210404
0.00236358
0.00304924
0.00337272
0.0037191
0.00408548
0.00470394
0.00451958
-0.330953
-0.022736
-0.0708151
-0.00614663
-0.0204114
-0.00493867
-0.00653503
-0.00293018
-0.0019733
-0.000672149
0.000166636
0.000948266
0.00163669
0.00255635
0.00265442
-0.346509
-0.0363008
-0.0844519
-0.015189
-0.0298411
-0.01153
-0.0128601
-0.00794051
-0.0063314
-0.0044049
-0.00304412
-0.00182423
-0.000812384
0.000405398
0.000796031
-0.358795
-0.0496612
-0.0973438
-0.0242785
-0.0392116
-0.0180686
-0.0192592
-0.0129044
-0.0107132
-0.00813741
-0.00624943
-0.00459218
-0.00325454
-0.00173888
-0.00105435
-0.368284
-0.0625189
-0.109309
-0.0335318
-0.0484503
-0.0245859
-0.0257173
-0.0178037
-0.0151255
-0.0118541
-0.00944007
-0.00734743
-0.00568173
-0.00386967
-0.00289178
-0.375012
-0.0749387
-0.120136
-0.0431192
-0.0574623
-0.0311384
-0.0322029
-0.0226304
-0.0195752
-0.0155343
-0.0126101
-0.0100802
-0.00808494
-0.005981
-0.00470602
-0.378841
-0.0871523
-0.129641
-0.0532591
-0.0661269
-0.0378116
-0.0386611
-0.0273953
-0.0240621
-0.0191549
-0.0157593
-0.0127793
-0.0104559
-0.00806473
-0.00648423
-0.379716
-0.0984268
-0.138399
-0.0641823
-0.0743081
-0.0447225
-0.0450101
-0.0321356
-0.0285677
-0.0226983
-0.0188918
-0.0154325
-0.0127881
-0.0101121
-0.00821661
-0.377717
-0.108578
-0.147494
-0.0753502
-0.0818927
-0.0520077
-0.0511396
-0.0369189
-0.0330457
-0.0261639
-0.0220078
-0.0180261
-0.015075
-0.0121142
-0.00989926
-0.37302
-0.117883
-0.157137
-0.086363
-0.088988
-0.0597746
-0.05693
-0.0418389
-0.0374165
-0.0295782
-0.0250913
-0.020551
-0.0173064
-0.0140602
-0.011532
-0.365861
-0.126694
-0.16709
-0.0969364
-0.0961815
-0.0678311
-0.0623122
-0.0469843
-0.0415782
-0.0329937
-0.0281023
-0.0230121
-0.0194625
-0.015937
-0.0131147
-0.356526
-0.135283
-0.177132
-0.107143
-0.10378
-0.075751
-0.0675775
-0.0523269
-0.045449
-0.0364605
-0.0309881
-0.0254294
-0.0215141
-0.0177371
-0.014648
-0.345365
-0.143866
-0.187212
-0.117194
-0.111757
-0.0833813
-0.0729668
-0.0575772
-0.0492222
-0.0399158
-0.0337403
-0.0278077
-0.023455
-0.0194468
-0.0161312
-0.332792
-0.152658
-0.197392
-0.127266
-0.119978
-0.0907857
-0.0785153
-0.0626176
-0.0529954
-0.0432746
-0.0363938
-0.0301055
-0.0253122
-0.0210619
-0.0175269
-0.319292
-0.161906
-0.207766
-0.137464
-0.128343
-0.0980829
-0.0841518
-0.0674624
-0.0567595
-0.0465
-0.0389612
-0.0322935
-0.0270943
-0.0225785
-0.018813
-0.305419
-0.171889
-0.218414
-0.147849
-0.136828
-0.105355
-0.0897985
-0.072161
-0.0604669
-0.0495865
-0.041433
-0.0343572
-0.028786
-0.0239985
-0.0199919
-0.291793
-0.182907
-0.229407
-0.158477
-0.145451
-0.112637
-0.0954087
-0.0767453
-0.064076
-0.0525358
-0.0437926
-0.0362904
-0.0303701
-0.0253177
-0.0210765
-0.279096
-0.195278
-0.240805
-0.169411
-0.154242
-0.119937
-0.100962
-0.0812222
-0.0675611
-0.0553448
-0.046025
-0.0380911
-0.0318325
-0.026528
-0.0220758
-0.268068
-0.209327
-0.252665
-0.180721
-0.163231
-0.127254
-0.10645
-0.0855833
-0.0709063
-0.0580044
-0.0481173
-0.0397554
-0.0331641
-0.0276201
-0.0229873
-0.259498
-0.225373
-0.265037
-0.192482
-0.172439
-0.134587
-0.111865
-0.0898139
-0.0740986
-0.060502
-0.0500568
-0.0412754
-0.0343579
-0.0285873
-0.0238004
-0.254212
-0.243683
-0.277954
-0.204774
-0.181888
-0.141936
-0.117194
-0.0938979
-0.0771242
-0.0628223
-0.0518289
-0.0426394
-0.0354074
-0.0294211
-0.0245
-0.253038
-0.264351
-0.291434
-0.217678
-0.191596
-0.149299
-0.122423
-0.0978178
-0.0799678
-0.064949
-0.0534182
-0.0438354
-0.0363024
-0.0301136
-0.0250728
-0.256674
-0.287018
-0.305475
-0.231275
-0.201579
-0.156668
-0.127534
-0.101554
-0.0826114
-0.0668654
-0.0548086
-0.0448514
-0.0370338
-0.0306538
-0.0255044
-0.265408
-0.310472
-0.320073
-0.245648
-0.211848
-0.164032
-0.132506
-0.105084
-0.0850348
-0.0685542
-0.0559843
-0.0456756
-0.0375916
-0.0310339
-0.0257829
-0.27873
-0.332376
-0.33525
-0.260871
-0.222406
-0.171378
-0.137316
-0.108382
-0.0872158
-0.0699978
-0.0569286
-0.0462953
-0.0379674
-0.0312426
-0.0258998
-0.295195
-0.349686
-0.351116
-0.276999
-0.233249
-0.178685
-0.141938
-0.11142
-0.0891292
-0.0711774
-0.0576251
-0.0466959
-0.0381502
-0.0312751
-0.0258501
-0.312854
-0.359955
-0.367959
-0.294063
-0.24437
-0.18593
-0.14634
-0.114167
-0.090747
-0.072073
-0.0580573
-0.0468624
-0.0381307
-0.0311199
-0.0256344
-0.33005
-0.362853
-0.386278
-0.312072
-0.255758
-0.193086
-0.150486
-0.116587
-0.0920378
-0.0726626
-0.0582093
-0.0467802
-0.0378989
-0.0307748
-0.0252474
-0.345962
-0.360694
-0.406647
-0.33103
-0.267411
-0.200118
-0.154334
-0.118643
-0.092967
-0.0729221
-0.0580651
-0.0464365
-0.0374478
-0.0302288
-0.0246986
-0.360566
-0.357481
-0.429458
-0.350959
-0.279329
-0.206981
-0.157836
-0.120293
-0.0934974
-0.0728248
-0.0576085
-0.0458186
-0.0367721
-0.0294888
-0.0239738
-0.374151
-0.357123
-0.454646
-0.371909
-0.29151
-0.213616
-0.160938
-0.121492
-0.0935895
-0.072342
-0.0568224
-0.0449171
-0.0358662
-0.0285628
-0.0230961
-0.386805
-0.362032
-0.481539
-0.393943
-0.303922
-0.219942
-0.163579
-0.12219
-0.0932017
-0.0714432
-0.0556888
-0.0437228
-0.0347261
-0.027495
-0.0220072
-0.398165
-0.372688
-0.508859
-0.417121
-0.316472
-0.225856
-0.16569
-0.122331
-0.0922901
-0.0700975
-0.054188
-0.0422318
-0.0333318
-0.0263475
-0.0207428
-0.407548
-0.387973
-0.534934
-0.441457
-0.328976
-0.231232
-0.167194
-0.121852
-0.0908085
-0.0682743
-0.0522979
-0.0404405
-0.0316698
-0.0250392
-0.0196177
-0.414427
-0.405886
-0.558276
-0.466899
-0.341148
-0.235932
-0.168005
-0.120682
-0.0887079
-0.0659439
-0.0499962
-0.0383401
-0.0297481
-0.0235084
-0.0185043
-0.418874
-0.424451
-0.578434
-0.493289
-0.352603
-0.239814
-0.168021
-0.118737
-0.0859369
-0.0630773
-0.047263
-0.0359135
-0.0275809
-0.0217226
-0.0172112
-0.42154
-0.442399
-0.596424
-0.520264
-0.362907
-0.242746
-0.167121
-0.115921
-0.0824433
-0.0596453
-0.0440828
-0.0331398
-0.0251693
-0.0196784
-0.0156585
-0.423185
-0.459177
-0.614126
-0.547045
-0.371609
-0.244607
-0.165161
-0.112136
-0.0781779
-0.055619
-0.0404439
-0.0300032
-0.022501
-0.0173931
-0.0138497
-0.424194
-0.47441
-0.632746
-0.572208
-0.378281
-0.245273
-0.161966
-0.107281
-0.0730977
-0.0509729
-0.0363355
-0.0264977
-0.0195631
-0.0148893
-0.011824
-0.424459
-0.487454
-0.651771
-0.593689
-0.382555
-0.244563
-0.157342
-0.101273
-0.06717
-0.0456866
-0.0317515
-0.022625
-0.0163552
-0.012184
-0.00962147
-0.423596
-0.497379
-0.669257
-0.609226
-0.384168
-0.242209
-0.151099
-0.0940589
-0.0603777
-0.0397492
-0.0266947
-0.0183941
-0.0128875
-0.00929084
-0.00726669
-0.421233
-0.503387
-0.683015
-0.617187
-0.382989
-0.2379
-0.143097
-0.0856324
-0.0527261
-0.033165
-0.0211784
-0.0138251
-0.00917539
-0.00622809
-0.0047624
-0.417233
-0.50542
-0.691097
-0.617228
-0.379025
-0.231352
-0.133302
-0.0760574
-0.0442519
-0.0259621
-0.01523
-0.0089486
-0.00523901
-0.00301651
-0.0021247
-0.41167
-0.504598
-0.693054
-0.610273
-0.372387
-0.222419
-0.12185
-0.0654879
-0.0350401
-0.0182041
-0.00889672
-0.00380524
-0.00110762
0.000322513
0.000614093
-0.404816
-0.501393
-0.68953
-0.597985
-0.363236
-0.211202
-0.109092
-0.0541907
-0.0252482
-0.0100067
-0.00225436
0.00154997
0.0031797
0.00376447
0.00342663
-0.39708
-0.496496
-0.681043
-0.581978
-0.351832
-0.198136
-0.0956216
-0.0425631
-0.0151371
-0.00156303
0.00457499
0.00703575
0.00756977
0.00727639
0.0062917
-0.388956
-0.49057
-0.668844
-0.563308
-0.338697
-0.184053
-0.0822398
-0.0311361
-0.00509985
0.00682841
0.0113975
0.0125234
0.0119787
0.0108022
0.00917486
-0.38099
-0.484241
-0.65446
-0.543255
-0.32456
-0.170154
-0.0698493
-0.0205445
0.00433461
0.0147503
0.0179253
0.0178118
0.0162715
0.0142483
0.012022
-0.373744
-0.478134
-0.639637
-0.523849
-0.310391
-0.157791
-0.0592777
-0.0114479
0.0125528
0.0216983
0.0237813
0.0226182
0.020254
0.017475
0.0147563
-0.367753
-0.472862
-0.626257
-0.506912
-0.297896
-0.148102
-0.0510983
-0.00439988
0.0189852
0.0271824
0.0285458
0.0265992
0.0236667
0.0202847
0.0172449
-0.363474
-0.468985
-0.616122
-0.49427
-0.288699
-0.141635
-0.045566
0.000292162
0.0232842
0.0308783
0.0318588
0.0294268
0.0262047
0.0224324
0.0192657
-0.361245
-0.466929
-0.610659
-0.487492
-0.283857
-0.138433
-0.0427926
0.00259282
0.025396
0.0327052
0.0335333
0.0308849
0.0275741
0.0236347
0.0204639
0.016952
0.0137924
0.0112714
0.00921565
0.00733305
0.00560111
0.00409955
0.00291226
0.00203827
0.00136702
0.000819029
0.000387295
5.63527e-05
-0.000197324
-0.000393447
-0.000540134
-0.000647323
-0.00072403
-0.000775736
-0.000806369
-0.000819747
-0.000819017
-0.000806824
-0.000785442
-0.000756721
-0.000722154
-0.000683008
-0.000640324
-0.000594943
-0.00054754
-0.000498658
-0.000448696
-0.000397976
-0.000346648
-0.000294882
-0.000242601
-0.000189862
-0.000136435
-8.22631e-05
-2.72462e-05
0.0159002
0.0129754
0.0107392
0.0088906
0.00712922
0.00546563
0.00401088
0.00285995
0.00200679
0.00134457
0.000802865
0.000376243
4.83876e-05
-0.000203444
-0.000398061
-0.000543645
-0.000650086
-0.000726228
-0.000777485
-0.000807775
-0.000820888
-0.000819945
-0.000807584
-0.00078607
-0.000757242
-0.000722589
-0.000683372
-0.000640629
-0.0005952
-0.000547755
-0.000498839
-0.000448849
-0.000398103
-0.000346754
-0.000294971
-0.000242673
-0.00018992
-0.00013648
-8.22939e-05
-2.72616e-05
0.0141073
0.0115874
0.00982127
0.00831098
0.00675253
0.00520923
0.00384103
0.00275798
0.00194411
0.00129987
0.000770835
0.000354208
3.24605e-05
-0.000215672
-0.000407289
-0.000550676
-0.000655614
-0.000730622
-0.000780982
-0.000810586
-0.000823166
-0.000821798
-0.000809102
-0.000787324
-0.000758284
-0.000723457
-0.000684098
-0.000641239
-0.000595712
-0.000548186
-0.000499202
-0.000449153
-0.000398358
-0.000346966
-0.000295147
-0.000242817
-0.000190037
-0.00013657
-8.23556e-05
-2.72924e-05
0.0119248
0.00988382
0.00866481
0.00755234
0.00623972
0.00485175
0.00360141
0.00261058
0.0018507
0.00123325
0.000723459
0.000321345
8.62824e-06
-0.000233988
-0.000421131
-0.000561241
-0.000663915
-0.000737213
-0.000786226
-0.000814801
-0.000826581
-0.000824575
-0.000811376
-0.000789202
-0.000759843
-0.000724756
-0.000685185
-0.00064215
-0.000596478
-0.00054883
-0.000499743
-0.000449607
-0.000398738
-0.000347283
-0.000295411
-0.000243032
-0.000190212
-0.000136704
-8.24478e-05
-2.73383e-05
0.00956607
0.00802202
0.00737057
0.00667293
0.00562246
0.0044127
0.00330418
0.00242226
0.00172714
0.00114523
0.000661327
0.000277828
-2.29604e-05
-0.000258377
-0.000439602
-0.000575362
-0.000674992
-0.000745998
-0.000793217
-0.000820418
-0.000831129
-0.000828271
-0.000814401
-0.000791699
-0.000761916
-0.000726482
-0.000686629
-0.000643361
-0.000597495
-0.000549685
-0.000500461
-0.000450209
-0.000399243
-0.000347703
-0.00029576
-0.000243316
-0.000190442
-0.000136881
-8.257e-05
-2.73992e-05
0.00713352
0.0060894
0.00600151
0.00571243
0.00492473
0.00390882
0.00295993
0.00219691
0.00157416
0.00103641
0.000584971
0.000223811
-6.20438e-05
-0.000288872
-0.000462739
-0.000593058
-0.000688853
-0.000756976
-0.00080195
-0.000827433
-0.000836804
-0.00083288
-0.000818173
-0.00079481
-0.000764497
-0.000728631
-0.000688426
-0.000644868
-0.00059876
-0.000550747
-0.000501353
-0.000450957
-0.000399869
-0.000348224
-0.000296192
-0.000243669
-0.000190728
-0.0001371
-8.27217e-05
-2.74748e-05
0.00467737
0.00413334
0.00458793
0.00468875
0.00416151
0.0033531
0.00257653
0.00193738
0.00139264
0.000907435
0.000494723
0.000159279
-0.00010611
-0.000325462
-0.000490588
-0.000614342
-0.0007055
-0.000770145
-0.000812425
-0.000835842
-0.0008436
-0.000838395
-0.000822683
-0.000798528
-0.000767581
-0.000731197
-0.00069057
-0.000646665
-0.000600268
-0.000552012
-0.000502415
-0.000451847
-0.000400613
-0.000348843
-0.000296706
-0.000244087
-0.000191067
-0.000137361
-8.29021e-05
-2.75645e-05
0.00223487
0.00218905
0.00315899
0.00360302
0.00334007
0.00275495
0.00215928
0.00164585
0.00118385
0.000758956
0.000390703
8.42362e-05
-0.000159135
-0.000369136
-0.00052326
-0.000639231
-0.000724937
-0.000785504
-0.000824638
-0.00084564
-0.000851509
-0.000844808
-0.000827923
-0.000802844
-0.000771159
-0.000734172
-0.000693054
-0.000648746
-0.000602013
-0.000553477
-0.000503643
-0.000452875
-0.000401472
-0.000349557
-0.000297298
-0.000244569
-0.000191458
-0.00013766
-8.31103e-05
-2.7668e-05
-0.00015136
0.000296396
0.00172175
0.00245536
0.00246284
0.00211764
0.00170979
0.00132362
0.000949158
0.000591458
0.000272845
-1.03036e-06
-0.000230129
-0.000419689
-0.000560665
-0.00066769
-0.000747161
-0.00080305
-0.000838584
-0.000856818
-0.00086052
-0.000852107
-0.000833884
-0.000807749
-0.000775222
-0.000737546
-0.00069587
-0.000651103
-0.000603989
-0.000555134
-0.000505031
-0.000454036
-0.000402442
-0.000350362
-0.000297965
-0.000245111
-0.000191897
-0.000137995
-8.33454e-05
-2.77844e-05
-0.00245194
-0.0015278
0.000261188
0.00127822
0.00153966
0.00144328
0.00122807
0.000971547
0.000689784
0.000405247
0.000140725
-9.76901e-05
-0.000308909
-0.000475988
-0.000602724
-0.000699783
-0.000772189
-0.000822781
-0.000854257
-0.000869367
-0.000870624
-0.000860284
-0.000840554
-0.000813231
-0.000779761