/*--------------------------------*- C++ -*----------------------------------*\
  =========                 |
  \\      /  F ield         | OpenFOAM: The Open Source CFD Toolbox
   \\    /   O peration     | Website:  https://openfoam.org
    \\  /    A nd           | Version:  7
     \\/     M anipulation  |
\*---------------------------------------------------------------------------*/
FoamFile
{
    version     2.0;
    format      ascii;
    class       surfaceScalarField;
    location    "0.079";
    object      phi;
}
// * * * * * * * * * * * * * * * * * * * * * * * * * * * * * * * * * * * * * //

dimensions      [0 3 -1 0 0 0 0];

internalField   nonuniform List<scalar> 
18389
(
-7.97911e-05
7.97911e-05
4.35321e-05
-4.35321e-05
-5.2045e-05
5.2045e-05
4.0147e-05
-4.0147e-05
-5.18476e-05
5.18476e-05
-3.99626e-05
3.99626e-05
-3.43095e-05
3.43095e-05
3.89699e-05
-3.89699e-05
-3.52642e-05
3.52642e-05
4.14473e-05
-4.14473e-05
4.48623e-05
-4.48623e-05
-3.45049e-05
3.45049e-05
-1.34801e-05
1.34801e-05
-4.28136e-05
4.28136e-05
4.33932e-05
-4.33932e-05
2.30316e-05
-2.30316e-05
1.79045e-05
-1.79045e-05
4.58896e-05
-4.58896e-05
4.59217e-05
-4.59217e-05
4.33893e-05
-4.33893e-05
-4.24874e-05
4.24874e-05
3.50105e-05
-3.50105e-05
4.30022e-05
-4.30022e-05
-5.86715e-05
5.86715e-05
-4.98123e-05
4.98123e-05
-4.18286e-05
4.18286e-05
-4.45262e-05
4.45262e-05
4.56084e-05
-4.56084e-05
4.5847e-05
-4.5847e-05
4.41284e-05
-4.41284e-05
-4.13288e-05
4.13288e-05
-6.30526e-05
6.30526e-05
4.31031e-05
-4.31031e-05
-4.4732e-05
4.4732e-05
4.08533e-05
-4.08533e-05
4.66852e-05
-4.66852e-05
-4.55546e-05
4.55546e-05
5.3617e-05
-5.3617e-05
-5.88549e-05
5.88549e-05
3.78956e-05
-3.78956e-05
4.48976e-05
-4.48976e-05
4.54292e-05
-4.54291e-05
-4.10275e-05
4.10275e-05
4.49161e-05
-4.49161e-05
4.58623e-05
-4.58623e-05
-4.5847e-05
4.5847e-05
-4.58416e-05
4.58416e-05
-4.06497e-05
4.06497e-05
-4.58796e-05
4.58796e-05
4.59237e-05
-4.59237e-05
4.59387e-05
-4.59387e-05
4.46013e-05
-4.46013e-05
3.77186e-05
-3.77186e-05
-4.57643e-05
4.57644e-05
-5.55255e-05
5.55255e-05
-4.38e-05
4.38e-05
4.57602e-05
-4.57602e-05
-4.59821e-05
4.59821e-05
4.32159e-05
-4.32159e-05
-5.93074e-05
5.93074e-05
-4.71312e-05
4.71312e-05
4.96034e-05
-4.96034e-05
4.57189e-05
-4.57189e-05
-9.29893e-06
9.29896e-06
4.57771e-05
-4.57771e-05
4.14619e-05
-4.14619e-05
5.12627e-05
-5.12627e-05
-4.58502e-05
4.58502e-05
4.23415e-05
-4.23415e-05
3.17692e-05
-3.17692e-05
2.56284e-06
-2.56284e-06
-4.41736e-05
4.41736e-05
3.2869e-05
-3.2869e-05
-3.65968e-05
3.65968e-05
3.97189e-05
-3.97189e-05
2.66225e-05
-2.66224e-05
2.61871e-05
-2.61871e-05
2.70479e-05
-2.70479e-05
2.43805e-05
-2.43805e-05
1.26453e-05
-1.26453e-05
0.00108325
-0.000889983
-0.000193267
0.00546491
-0.0020738
-0.0033911
-0.0059467
0.00594657
1.31962e-07
0.00335308
-0.00260046
-0.000752622
-0.00156892
0.00175512
-0.000186201
-0.00674894
0.00283508
0.00391386
0.00121308
0.00425183
0.00725577
-0.00587548
-0.00138029
0.00118655
-0.00188895
0.0007024
-0.000855421
-0.0007135
-0.0014417
-0.000314877
0.00175658
0.000163474
-1.26395e-05
-0.000150834
0.000778956
-0.00222066
-0.00360445
0.000122188
0.00348226
-0.00320411
0.00289636
0.000307756
-0.00567985
0.00720838
-0.00152853
-0.00370844
0.00289742
0.000811015
-0.000562973
-0.00304148
-0.00175168
0.00238916
-0.000637472
-0.000460842
0.00255673
-0.00209589
-0.00161796
0.00112124
0.000496717
0.00058354
0.000581819
-0.0015971
-0.00515184
0.00126078
-0.00171881
0.000458028
0.00577576
-0.00385876
-0.00191698
-0.000684646
0.00330956
-0.00262491
-0.0058353
0.0058353
0.000445118
0.00131
-0.00632731
0.000976721
0.00535059
0.00230425
-0.0029889
-0.00378884
0.00311431
0.000674523
0.00214714
-0.00422094
0.00109653
-0.0002057
-0.000890826
0.00152162
-0.00130103
-0.000220591
-0.00280545
-0.000398654
0.00534936
-0.00534826
0.000388303
0.00113332
0.00522482
-0.00133415
-0.00389067
0.00195253
-0.00076598
0.00308604
0.00190834
-0.00499438
-0.000720408
-0.00306843
-8.88205e-05
-0.000158712
0.000247532
0.00393613
0.00331964
0.00113719
-0.00485278
0.00371559
0.00162362
0.0036012
-0.00497942
0.00631848
-0.00133906
-0.00116111
-0.000572487
0.0017336
0.00133498
0.0020181
0.000135297
0.000103609
-0.000238906
0.00501911
-0.00339549
0.00645818
-0.000842566
-0.00561562
0.00322506
-0.00268196
-0.000543099
0.00221035
0.000469606
-0.00267997
0.00296843
-0.000758071
0.00650438
-0.00539891
-0.00110546
0.000478992
-0.00382942
0.00335043
7.07632e-05
0.00638742
0.00477012
-0.00429113
-0.000535628
0.0010593
-0.000523671
-0.00176707
0.000605961
0.00191649
0.00224966
-0.00416615
0.000253731
-0.000334065
8.03337e-05
-0.00124373
-0.00285311
0.00409684
-2.62719e-05
0.00653066
-0.00280957
0.00230291
0.000506665
0.000390901
-1.3451e-05
-0.00037745
-0.00569238
-0.00025432
0.00186955
-0.00142443
0.000828166
0.00494759
0.000903965
0.000179289
0.00262323
-0.00641617
0.00379295
-0.0011202
0.000584576
0.00264559
-0.00388933
0.00619679
-0.00226065
0.00109217
0.00117721
-0.00080174
0.00101359
-0.000211853
-0.00112046
-0.000497503
0.00186881
0.00135625
-0.000594123
0.00142943
-0.00123738
-0.000192044
-0.00265261
0.00199205
0.000660561
0.00116675
0.000262683
0.00110515
-0.00493468
0.00382952
-0.00473435
0.00139615
0.0033382
-0.00455448
0.00611853
-0.00156406
-0.00506066
8.12407e-05
-0.00202068
-0.000631933
-0.00021377
0.00012495
-0.00120526
0.0046274
-0.00342214
-0.0011707
-0.000718241
0.000103282
-0.000192002
8.87196e-05
0.000126263
-2.29809e-05
-0.00124129
0.00461806
-0.00337676
-0.000156315
2.4547e-05
0.000131768
-0.0055645
0.00170574
-0.00120954
-0.000557526
-0.000449456
-1.89363e-05
0.000468391
-0.000543221
9.37641e-05
0.00102182
7.47051e-05
-0.00181824
0.0006087
-0.000150828
1.75624e-05
0.000133266
0.00136853
-0.00234446
0.000975923
0.000271086
-0.000135789
-0.00392451
0.00513759
-0.00245687
0.000705197
-0.000105464
-0.000415224
0.000520689
0.00568284
-0.00216662
-0.00351623
8.22343e-05
0.0025044
-0.00258663
0.00442458
-0.00557746
0.00115289
0.00263568
0.00304716
0.00291552
-0.00283328
-0.00610196
0.00042211
-0.00641906
0.00360204
0.00281702
0.00229342
0.00390337
-0.00438314
0.00136267
0.00302046
0.00144534
-0.000184557
-0.00101761
0.00401375
-0.00299614
0.00463783
-0.00162425
-0.00301358
-0.00457914
0.00374273
0.000836413
0.00369336
-0.00502751
5.80386e-05
0.000332863
-0.00137848
0.00580307
-8.93667e-05
0.00214863
-0.00205926
-0.00207889
0.00261725
0.000156841
-0.00277408
-0.00127707
0.00264559
-0.000632243
0.00324949
0.00164407
-0.00173343
0.000867731
0.00397089
-0.00483863
-0.00504139
0.00383975
0.00120165
0.0025524
-0.00359412
0.00104172
-0.00328888
0.00411098
-0.000822095
0.00037321
-0.00366209
-0.000987196
0.000987196
-0.000457902
0.000352438
-0.000127159
-0.00097325
0.00110041
0.0050684
-0.00184076
-0.00322764
-0.00243498
-0.000370477
0.00290178
0.000158029
1.65458e-05
-0.000174575
-0.00147364
0.00112995
0.000343698
-0.000142494
-0.0048989
0.00501567
-0.00387849
0.000231732
-6.82591e-05
0.00444406
0.000575044
0.00406779
-0.00151539
0.000165036
-7.00735e-06
-0.00632727
-0.00100327
-0.000814978
0.00429952
-0.00190325
-0.00239626
0.00275794
0.00154158
0.00107799
-0.00563246
-0.00226993
-0.000539647
-0.00112648
-0.000953913
0.00208039
4.50377e-05
-0.00272476
0.00267972
-0.00236251
0.00123603
-0.00221782
0.00530386
-0.004599
0.00158042
0.00301858
0.00254943
0.000673646
-0.000350795
-0.000322851
-0.00601628
0.000583032
0.00543325
-0.00417349
0.00580512
-0.00163163
0.00182575
0.00163188
-0.00345764
-0.00168624
0.000902232
0.000784001
-0.002713
0.00209004
0.000622969
0.00112898
0.000740563
0.00024714
-0.000328876
8.17367e-05
0.00485219
-0.00398447
-0.00638157
0.00557393
0.000807642
-0.00475804
-0.00166102
0.00336013
0.000601656
-0.00396179
0.000154107
-0.000162295
8.18794e-06
0.000590535
-0.00012527
-0.000465264
-0.00451836
0.00261511
0.000374214
-0.000592811
0.000218598
3.38823e-05
-0.00102108
-0.00257587
0.00448422
-0.00530403
-0.000321242
0.00562528
0.000219719
0.000196318
-0.000416037
0.00141107
-0.00141107
0.00168779
-0.00072095
-0.00211002
0.0018206
0.000289408
0.00438756
-0.00302489
-0.000162594
6.27993e-06
-0.00134984
0.00138372
0.000675519
0.00127701
0.0023487
-0.000258663
-0.00401757
-0.00128646
0.00112438
-0.00495382
0.00321257
-0.00445386
0.000831487
-0.00213645
0.00130496
0.00335937
-0.00456463
-0.00270954
-0.00180882
-0.00483513
0.00469263
-0.000676953
-0.00533932
-0.00515636
0.00143386
-0.00145188
1.80234e-05
0.00223588
0.000112818
-0.00601452
0.00204858
0.00396594
-0.00121935
0.000526173
0.000693169
0.00143237
0.0029552
-0.00462286
-0.0010117
0.00563457
-0.000212866
0.000138556
7.43094e-05
-0.00549764
0.00132414
0.00375359
-0.00493692
0.00118333
-0.0014995
-0.000610508
-0.000536665
-0.000637525
0.000138314
-0.000203757
6.54418e-05
0.00495102
-0.00384588
-0.00129913
0.00512294
-0.00382382
-0.000525929
-0.00082391
-0.00586157
0.000439593
0.0053957
-0.00615241
0.00455531
-0.000921943
-0.00545964
-0.00110003
-0.000373617
-0.0018205
0.00285795
-0.00103745
-0.000419038
0.000321972
9.70671e-05
-0.00173218
0.0014173
0.00158075
-0.000146887
0.000817337
-3.68723e-05
-0.00169531
0.00279707
0.00121612
-0.00303661
0.00604984
-0.000475903
0.0052805
6.88623e-05
-0.00527749
0.00438969
0.00114266
-0.00553236
0.000556614
-0.000768976
0.000212363
-4.5232e-05
-0.00041267
-1.34279e-05
0.00606326
-0.000162184
0.000156828
5.35619e-06
0.000133468
2.06387e-05
0.00254595
-0.00335352
0.000807573
-0.00188983
0.000698467
0.00119137
0.00792216
-0.00345123
-0.00447092
0.00116607
0.00126893
-0.00243501
0.000106478
-0.000173718
6.72395e-05
-0.000805762
0.00133193
0.00114795
0.00318384
-0.00433179
-0.00561458
0.000165808
0.00544877
-0.00401381
0.0029962
0.00173503
0.00479562
0.00458212
0.00334003
-2.2044e-05
0.000191462
-0.000169418
-0.00129147
0.00438169
-0.00309021
0.000302021
-0.000347253
-0.000131409
-8.14568e-05
0.00410261
-0.00227687
0.00473028
-0.00498451
0.000254229
-0.00321446
0.00602744
-0.00281298
0.00252992
0.00157269
0.00570702
-0.000976734
-0.00138246
-0.00562107
0.00137221
0.00424886
0.000654526
0.000520462
-0.00117499
0.00126923
-0.0006147
0.000585289
-0.00110996
0.000524673
0.00110575
0.000259754
0.000413892
-0.000677902
0.0044315
0.00152308
-0.000393134
0.00349734
-0.00608366
0.00258633
0.00153654
-0.00258713
0.0010506
-0.00430064
0.00114474
0.0031559
0.00292092
-0.00421239
-0.00490091
-0.0012515
-0.00409378
0.0012597
0.00283407
0.00123182
0.00314986
-0.00326345
-0.000830334
0.00222965
-0.00106358
-0.000666227
-0.00253947
0.0032057
0.00241406
0.000604182
-0.00301824
-0.00159528
0.00120794
0.000387336
0.000270276
0.00150507
-0.00196878
0.000463717
-0.000111047
-0.000223018
-0.000264686
0.000153639
-0.00433916
-0.000239977
-0.000296326
0.001182
-0.000885673
0.00435019
-0.00464231
0.000292121
-8.83895e-05
0.000117728
-2.93385e-05
0.000965562
0.00338228
-0.00434784
-0.000156947
6.8558e-05
-0.0047497
0.000707905
0.0040418
-0.00115072
5.9875e-05
0.00109084
7.40127e-05
-8.6652e-05
-0.000399506
0.000864664
-0.0003475
-0.000517165
-0.00603652
0.000637612
-0.00254945
-0.000128644
0.00267809
-0.00317185
0.00440367
0.00218087
-0.0010887
-0.00116725
-0.00116925
-1.4552e-06
-0.00351586
-0.00121849
0.00152393
-0.00043706
-0.00108687
0.00191962
0.00183843
-0.00375805
0.00502518
-0.00159452
-0.00343066
0.000792031
-0.00541489
-0.00137164
0.00300352
0.00194011
0.000795851
-0.00273596
-0.00349996
0.00446552
-0.000153495
2.66653e-06
0.00092864
-0.0044286
-0.00449493
-0.000147387
-0.000998031
-0.00461655
0.00460871
0.00146641
0.00355877
0.00415866
0.00114157
-0.00530023
3.6125e-05
5.99107e-05
-9.60358e-05
-0.00141743
0.00335754
0.00369923
0.00350915
-0.00140728
0.00237118
-0.000963895
-0.00247395
0.00045328
-0.000878444
0.000751284
-0.000203395
0.000423115
-0.000196151
0.00170122
0.00376236
-0.00184274
-0.00109117
-0.000595073
-0.000107295
-0.000157391
0.00355013
-0.00163363
-0.00240333
0.004653
0.00067502
-0.00309594
0.00242092
0.000668506
0.000760896
-0.00105722
0.00210042
-0.00129832
-0.00327532
0.00457363
-0.00214227
0.00476549
-0.000550959
0.00344731
0.00023957
-0.000222008
-0.00236617
0.000958891
0.00228427
-0.00387206
0.00158781
-0.00121432
5.79845e-05
-2.18596e-05
0.00215623
-0.0027999
0.000643679
-0.00117563
-0.000419652
-0.00351801
0.00449474
0.00118239
0.00168131
-0.0028637
-0.00169531
0.00365962
-0.00196432
0.00423313
-0.000850855
0.000234315
1.41395e-05
-0.000248454
-0.00372187
0.00202656
-0.00141032
0.00469978
-0.00328946
0.000877641
0.00130323
0.000229583
0.00118148
0.000253156
-0.000300849
4.76923e-05
0.00172616
0.000210126
-0.00193629
0.00301737
-0.00456866
0.00155129
-5.28582e-05
0.000374412
-0.000321554
0.00156811
-0.000360171
0.00140567
-0.000572583
-0.000833087
0.00282672
-0.00391967
0.00109295
0.00268426
-0.00374125
0.001057
-0.00512611
0.00191165
0.0038821
-0.000864732
-0.000620554
-0.00238682
0.00300738
0.00140395
-0.00511429
0.00371033
0.00336047
-0.00145884
-0.00190164
-0.000690777
0.00172409
-0.00103331
0.00477181
-0.00303678
-0.000722006
-0.00195995
-0.00598177
0.00513921
4.04993e-06
0.000121758
-0.000125808
-0.0015824
0.00120598
0.000376424
-0.0049125
0.00630642
-0.00139392
-0.00187241
0.000687049
0.00118536
0.000402625
0.00268628
-0.00209016
-0.00059612
0.00343336
0.000490103
-0.00392347
0.00012696
-2.04811e-05
0.00517239
0.000336841
-0.00550923
-0.00194129
0.00379712
-0.00185584
0.00276119
-0.000622887
-0.00213831
0.000462467
0.000402198
-0.000439521
0.00387288
0.00202577
-0.00396706
0.000720302
-0.000276291
-0.00044401
-0.000703657
1.0076e-05
0.000693582
-0.00315143
-0.00576608
0.005765
-0.000274536
0.000952752
-0.000678218
-0.00228864
-0.000185318
-0.00453884
0.00324051
-0.000856273
0.00111154
0.00360807
-0.00502006
0.00141199
0.00041093
-0.00296037
0.00233502
-0.002435
9.99735e-05
-0.00157137
0.0014824
8.89717e-05
-0.00121573
-0.000366673
-0.00339089
0.00342713
-0.00224474
0.000457373
0.000133162
-0.00173966
0.00104888
-0.002786
0.00072546
0.00206053
0.000242299
-7.98393e-06
-0.00347592
0.00101983
0.00245608
-0.00144052
0.00559918
0.000338364
-0.000956814
0.000618451
0.00212853
0.000632655
-0.00127775
0.000304497
0.00112202
0.00121301
-0.00140771
0.0049327
-0.00352499
-0.00484276
0.0057603
-0.000917543
-0.00116662
0.00228366
0.00410377
0.00107447
4.677e-05
0.00584257
-0.00550517
-0.0003374
0.00352771
-0.00464927
0.00112156
0.00308533
-0.000671272
0.0054268
-0.00181873
-0.00250481
-0.000971105
-0.00219482
-0.00029814
0.00249297
0.00243831
-0.00196871
-0.00160824
-0.00423579
0.00274938
0.00148641
-0.00034151
0.00124374
0.00119752
0.00364503
-0.00484255
-0.000259383
0.000633596
0.00305978
-0.00238475
-0.00472313
-0.00125865
0.00647075
-0.00129837
0.004226
0.0020639
0.000492836
0.00285556
-0.00212832
-0.000727244
0.00473514
-0.00245148
-6.38254e-05
-0.00332748
-0.000859988
0.00418747
0.000388886
-8.65407e-05
-0.000302346
-0.00513437
0.00609977
-0.000965396
-0.000702265
0.00189706
-0.0011948
-0.000697403
0.00525338
-0.00455598
0.00120085
-0.00190312
-0.000112948
-0.00576252
-0.00080174
0.00202472
0.00381785
-0.000272067
-0.00192275
0.000251346
-4.20574e-06
0.000362594
-0.000487863
0.00335664
-0.000810692
-0.00522364
-0.000271548
-0.000147491
0.000150268
-0.00013362
-1.66472e-05
-0.00248301
0.000120496
-0.000419112
0.00159619
-0.00102665
-0.000569538
0.00244969
0.000611681
-0.00306137
-0.000728193
0.00317787
-0.00520287
-0.000271657
0.00547453
0.00375028
0.00137267
0.00439712
-0.00121328
-0.000118275
0.00255659
0.00540379
-0.000206589
-0.00519721
-0.00608741
0.00425311
0.00183431
0.00321035
-0.00126799
-0.00435308
0.000206309
-0.000228353
0.000543348
0.000862319
0.00120339
0.000129751
-0.00133315
0.00421241
0.00119139
-0.000965112
0.00316953
-0.00220442
0.00470875
-0.00134861
-0.002182
0.00279322
-0.000611214
-0.00117481
-9.76925e-05
0.00029033
-0.000192638
0.00344649
-0.0041439
0.00134805
-0.000992485
-0.000355566
0.00160061
-0.000394629
-0.0032509
0.00228578
0.00548332
-0.00434066
-3.06299e-05
0.000352602
-0.00535667
0.000444159
0.00539657
-0.00189923
-0.00099376
-0.00361495
0.00460871
-0.000644183
0.00288319
-0.00223901
0.00549727
-0.00286251
-0.00263477
-8.83923e-05
0.000590392
-0.000677144
0.000660617
1.65267e-05
-0.000701776
0.00173434
-0.00103256
-0.00314888
-0.00115175
0.000155517
-1.72027e-05
-0.00122481
-0.00478971
-0.00306972
0.00240349
-0.00116757
-0.000243496
-7.26418e-05
-8.95418e-05
-0.00124324
-0.00080606
-0.00523047
-0.00283863
0.00219445
-0.000805235
0.00119354
0.001108
0.0043568
-0.0054648
0.00335603
-0.00275437
0.000468086
0.000767191
-0.00288202
0.00211483
0.00496199
-0.00490018
-6.18146e-05
-0.00320914
0.00361582
-0.000406669
0.000207745
-9.55867e-05
-0.000112159
-0.00493206
-0.00148412
-0.00176351
0.00368707
-0.00192356
0.00297971
-0.00221251
-0.00378265
0.00201914
0.00139534
-0.00258173
0.00118638
-0.00363299
0.00568157
0.00649526
-0.00219476
-0.0043005
-0.00239711
0.00238061
1.65136e-05
0.00557461
-0.00160373
0.00118891
-0.000926994
-0.000261918
-9.11679e-06
0.000262273
0.000249753
-0.00077641
0.000526657
-0.00305291
0.00364871
-0.000964454
0.000847661
-0.00105336
0.00236858
-0.000635124
-0.00173346
0.00223872
-0.000512557
0.0045041
0.000635966
0.00173262
-0.00176202
0.00106025
0.000408497
-0.00046462
5.61221e-05
0.00222687
-0.00173607
-0.000490802
0.000817168
-0.00514792
-0.000544458
0.000369517
-0.000588354
0.000218837
-0.00410201
0.00547422
0.000941858
-0.00111639
0.000174533
-0.00154461
0.00216
-0.00061539
-0.00148237
-0.00275341
-0.00537933
-0.000148358
0.00552769
0.000298087
0.000108339
4.19293e-05
0.00012784
-0.000127586
-2.53906e-07
0.00408223
-0.00288471
-0.00379134
-0.00229231
0.00346396
0.0030313
-0.00258757
0.000708843
0.00187872
-0.000844469
0.0022398
-0.00229796
-9.91562e-05
0.00273009
-0.00377709
0.001047
0.00131216
-0.00013016
0.000470196
0.000551624
-0.00327595
0.000958932
0.00231702
0.000905646
-0.000670335
-3.33236e-05
-0.00426343
0.00170964
0.000122164
-0.0018318
-0.00396114
0.00145809
0.00250305
0.000505025
0.00147272
-0.000929372
-0.000246372
-0.00466041
0.00490679
0.000783775
-0.00247675
0.00169297
0.00120228
0.00131224
-0.000447354
-0.00173466
0.00218202
0.00258002
-0.00179624
0.00446263
-0.00353399
-0.000743429
-0.00264092
-0.000227742
0.000252289
-0.000714205
0.0017661
-0.00105189
0.00266442
-0.00366602
0.00100158
0.000136415
2.04133e-05
-0.00236612
-0.000909839
0.00142118
-0.00163602
0.000214839
-0.00277465
0.000684498
0.00127614
-0.00141838
0.000142242
0.00161856
-0.00180749
0.000188936
0.000673568
-0.00371605
-0.00113673
0.00132787
-0.00487647
0.0035486
-0.000907784
0.0035722
0.000117926
-7.90652e-05
-3.88607e-05
0.00470631
-0.00359831
-0.000301087
-0.00151244
-0.00400532
-0.00149232
0.00209476
0.000698448
-0.00099875
-0.000920335
-0.00448633
-0.00161563
-0.000396493
0.00124576
-0.000935623
-0.000310135
-0.00149838
-0.00108876
0.000649838
0.00226314
-0.00291298
-0.000114239
0.000670852
-0.000716027
3.88828e-05
-0.00246553
0.00196621
0.00139426
-0.000700489
0.00165636
-0.000955875
-8.68386e-05
-0.000116918
0.000318765
-0.00193588
0.000436376
0.00162373
-0.00230522
0.000681493
-0.00333137
0.0025897
0.000741652
0.00121327
0.00239626
-0.00360953
-0.00176159
0.00104738
-0.00294217
-0.00101896
-0.000771611
-0.00255975
-0.00168031
0.00125819
0.000422125
0.00177003
-6.03909e-05
-0.000754985
-0.00243902
0.003194
-0.000657458
0.0029116
-0.00226176
-0.000858922
-0.00394737
0.00480631
-0.00233838
0.00234349
-5.10536e-06
-0.00115072
-0.00157429
0.000547638
-0.00240811
0.0038173
-0.00140919
0.00323331
0.00288522
0.000194321
3.62058e-05
-0.000230527
0.00234092
-0.00060174
-0.00173918
0.000188598
-0.000184548
-0.00358359
0.00491147
-0.00328448
0.00522438
-0.0019399
-0.0035105
-0.00150955
-0.000917917
0.00322941
-0.0023115
0.00286144
0.00177107
-0.00417919
-0.0049924
-0.000141964
-0.000769266
0.00283909
-0.00206982
-0.000431779
0.000378921
-0.000534738
0.0016759
-0.00114116
-0.00401482
0.00334312
0.000671699
-0.00326967
0.00235175
-0.00386292
0.000668861
0.00319405
0.00141392
-0.00101947
-0.000394451
-0.00589957
0.000696701
0.00184729
-0.00141202
-0.000435268
0.00153864
-0.000502616
-0.00103603
7.83584e-05
0.000129387
0.00292357
-0.000620652
-0.000211792
-0.00348429
-0.000378626
0.000424986
-0.00305579
-0.000959031
-0.00233423
-4.14921e-06
-0.00291615
0.0022956
0.000719676
0.00260257
-0.00332225
0.000587662
-0.000862198
0.00140464
-0.00671316
0.00530852
-0.00575522
0.000997173
-0.00231604
0.00352931
0.000694155
0.000258598
-0.00273359
0.00345327
-7.61737e-05
0.00503816
0.000592586
0.00172487
-0.00231746
-0.00178076
0.00124602
0.00275102
-0.00369444
0.000943406
0.00509731
0.0006782
0.00154867
0.000311195
0.000409106
-0.000364089
-0.000404886
0.000180858
-0.0017493
0.00176668
-0.000889044
0.000902415
0.0005703
-0.00057606
0.00300763
-0.00243156
-0.00151743
0.00184222
-0.000324789
-0.00488857
0.00380319
0.00108538
-0.00478652
0.00150204
-4.03822e-05
3.55481e-05
4.83409e-06
-0.00281562
-0.000850392
0.00112091
-0.00130382
0.000182906
0.0013387
-0.0049223
0.00115421
4.91865e-05
0.00122526
0.000692815
0.00219038
-0.00366615
0.000850537
0.000190691
-0.00503345
0.0018879
0.00123569
0.000661375
-0.00527338
-0.000492698
0.00565206
0.00118602
0.00710872
-0.00218477
-0.00492395
0.000821555
-0.000380515
-0.00044104
0.000698505
-0.00139025
0.000795171
-0.00386036
-0.00125394
0.00029033
-0.0009731
-0.000387794
0.0013609
0.00233555
0.00400823
-0.00486714
0.0027033
0.000833661
-0.00353697
0.00125337
-0.000968414
-0.000284951
0.000744294
0.00159662
-0.000135147
0.00013836
-3.21289e-06
-0.000707931
0.00288371
-0.00217578
0.00361666
0.00108312
-0.00126731
-0.000413007
0.00143976
-0.00153397
9.42071e-05
4.66308e-05
7.12951e-05
-0.00447752
0.000967022
-0.00165783
0.000442098
-0.00364653
0.00291833
-0.000956089
6.61051e-05
0.000930217
0.00268377
-0.00361399
0.000850551
-0.00126745
0.00416444
-0.00289699
0.00031774
0.000279928
4.65176e-05
-0.000326446
7.82408e-05
-0.00539189
0.00531364
-0.00264064
-0.000760761
0.00340141
-0.00347811
0.00261648
0.000861636
-0.0027618
-0.000262658
-0.00171358
-0.00488993
0.000884611
-0.00145913
-0.000875106
-0.00106172
0.00379181
0.00171399
-0.00372529
0.0020113
0.000105576
2.22644e-05
0.00372297
-0.00200897
0.00286751
0.000938049
-0.00380555
-0.00130904
0.0017434
-0.000434356
0.00357262
0.00108943
-0.00466205
0.00718225
-0.00196713
-0.00521511
-0.00212959
-0.000709039
-0.00175117
0.00234375
0.00377288
-0.00492197
0.00114909
-0.00280552
0.00373573
0.00118083
-5.77212e-05
-0.0011231
0.00147645
0.000912703
-0.00549875
0.00059783
0.000442605
0.000378948
0.0029214
-0.00111569
-0.00251851
0.00248449
3.40186e-05
0.000504167
-0.00184122
0.00133705
-0.00386784
-0.00119281
0.00108801
-0.00254713
-0.0052991
0.000151178
-0.00126744
-0.000509174
0.00177661
0.00563457
-0.004493
0.000104684
0.000284203
-0.00302357
0.00318042
0.0014459
-0.00107846
-0.000367443
0.00346887
0.00475243
-0.000949243
0.00062539
-0.00326603
0.00115565
-0.00109578
-5.28945e-05
0.000461391
0.000394118
-1.97063e-05
-0.00205484
-0.000429667
0.00155058
-0.000888414
-0.00349718
0.000763597
-3.07808e-05
-9.60145e-06
0.00599899
-0.004921
0.00521905
-0.00439088
-6.72705e-05
-0.00109084
0.00115811
0.00194929
-0.000457771
-0.00149152
0.00335859
-0.000756015
-0.00256882
0.00336079
-0.000791976
-0.00183562
0.000526574
0.00128212
-0.000956125
-0.000325995
-0.000118744
-0.000210131
0.00205982
-0.000547599
-0.00151222
-0.00138562
-0.00239379
-0.000124713
0.00209513
-0.0027468
0.000651674
0.0028067
-0.000748791
-0.00205791
0.00410355
-0.00434991
0.000313707
0.00223436
-0.000610634
-0.000679895
0.000837416
-0.00366926
0.00500796
0.00122068
0.000450324
-0.00171776
-0.00285068
0.00209877
0.0036301
0.00158895
-0.00116256
-0.00381804
-0.00111664
0.00130829
-0.00172038
0.000412094
0.00367555
-0.00318545
-0.000193858
0.00113571
-3.89476e-05
-0.000271143
0.000310091
-0.000677719
-0.00190985
0.00377236
-0.00490356
0.0011312
-0.00187112
0.00235046
-0.000479348
-0.00114961
0.00213481
0.000748897
-0.00226529
0.00375391
-0.00148863
0.00150932
-0.00114659
-0.00036273
-0.00137653
0.000225811
0.000202858
-0.000513254
0.000310396
-0.000424415
-0.00123342
-0.00247561
0.00250679
-3.11739e-05
0.00144562
-0.00371091
0.00162753
-0.000369336
0.000362215
-0.000401336
3.91214e-05
-0.000828956
0.000595935
0.000233021
-0.000793879
-0.00284065
0.000807848
0.0020328
-0.00199196
-0.00078409
-0.000788408
0.0015725
-0.00523938
0.00389569
0.00134368
-0.00136944
0.00130217
-0.000576224
-0.000115932
0.000692156
0.00286868
-0.000733882
-0.000770123
-0.000160208
0.000930331
0.00184085
-0.00139053
0.00170097
-0.000392682
-0.00021379
-0.000639635
-0.00420001
0.00483965
-0.00140277
0.00283237
0.00427635
-0.00239744
-7.81653e-05
0.00313048
-0.00472499
0.000732082
0.00158314
-0.00231523
0.00202176
-0.00279103
0.00197604
-0.000702638
-0.0012734
-0.00179651
0.000455304
0.00134121
0.0043103
0.00287195
-0.00550573
0.00133091
0.00417482
-0.00124813
-0.00399124
-0.000459691
-0.00133682
-0.00101394
-0.00056035
-0.0012969
-0.00042349
0.00113749
-0.000528905
0.00151526
-0.000986359
-0.00175766
0.00129796
-0.000944199
-0.000207193
0.00115139
0.00217425
-0.00286762
0.000693369
-1.17669e-05
0.000206087
0.00104031
0.00604579
-0.00140495
-0.00464084
-0.00203279
-0.00187259
0.0013542
0.000518386
0.00127425
-0.000982214
-0.000292033
-0.0022999
-0.00101535
0.00331527
-0.00267641
0.00357727
-0.000900862
-0.000915131
0.00113237
-1.58474e-05
-0.00111652
0.0037613
-0.0049322
0.00117089
0.00174798
-0.00135626
-0.000391714
0.00242709
-0.00122481
0.00273061
-0.000637701
-0.000191255
-0.00409086
0.00230557
-0.00179516
-0.000510416
0.000559802
-0.00200979
0.00144999
-0.00252277
-0.00083075
0.000862062
-0.000660691
-0.000201372
-0.000180475
-0.00363696
0.000960547
0.000621647
-0.000418789
0.00259927
0.000978006
0.000318123
0.00130741
0.000668624
-0.00160482
0.0023369
-0.00151573
0.00100744
0.000508289
0.00353776
-0.000670234
-0.00380929
0.00610271
-0.00114225
-0.00248056
0.00682078
-0.00434022
-0.000883786
0.00356756
-0.00414184
0.000932708
-0.00210083
0.00424796
-0.000671864
-0.00163335
-0.00244361
0.00172405
0.000719558
-0.00127723
0.00104372
-0.0010588
1.50823e-05
-0.00137965
-0.000776616
-0.000153465
0.000930081
-0.00156851
0.00137379
0.000194719
0.00204977
0.000789316
6.24213e-05
-0.0012998
-0.000550014
-0.00084023
-0.00241189
-0.000464894
-0.00140769
-0.000170985
0.00159217
-0.000180627
0.00340949
-0.000512073
0.00133856
0.000200623
-0.000719373
-0.000999439
-0.00193052
0.00247675
-0.000546228
-0.00106348
-0.00572887
0.00351105
0.00148276
-0.000580343
0.00288603
-0.00120472
0.000947965
-0.00135907
-0.0045307
0.00588977
0.000619708
-0.00255023
0.000739097
-0.00368327
0.00270446
0.000978805
0.000901714
-0.00143062
0.00223306
-0.00311479
0.000881722
0.00119294
-0.00342847
0.00223552
0.000859566
0.00168942
-0.00254898
-0.000174244
0.0017928
0.00275585
0.0010849
0.00361921
-0.000413496
0.000783012
0.00315988
-0.00401986
0.000971931
-0.00327183
0.00043366
0.00412371
0.00148813
-1.079e-05
-0.000276157
0.000286947
-0.00619225
0.00385615
0.00233611
-0.000819641
-0.00261972
0.00343936
0.00264003
-0.00178046
-0.00369515
0.000889631
-0.00132228
-0.000435378
-0.000152618
0.00131937
0.00372032
0.00121237
0.000224361
0.0013117
-0.000995648
-0.000316052
0.000943279
0.000539481
-0.000314283
0.00376891
-0.00493009
0.00116119
0.0030741
-0.000841048
-0.00139985
0.00190401
0.00126418
-0.00355467
0.00229049
-0.0011633
0.00145756
0.000677643
-0.00213521
0.000193143
-0.000203933
0.00220106
-0.000866079
-0.00131002
0.000329485
0.00093987
-0.000349768
-0.000590101
0.00353075
-0.00226658
-0.000491133
0.00230103
-0.0018099
0.00102625
-0.00296118
0.00210156
0.000859634
0.000106081
-5.05648e-07
0.00465207
0.000538109
-0.00568996
-0.00519144
0.00392565
0.00126579
-0.00107223
-0.00269678
0.00376901
0.00222122
0.00372535
0.00282987
-0.00375226
0.000922388
-0.00147374
0.00110707
-0.000923847
0.00336094
-0.0024371
0.00149821
0.000561604
-0.00378492
-0.00240733
0.00105407
-0.00230574
0.0032058
-0.000900062
0.00342117
-0.000804694
0.000394111
-0.000790888
0.00255265
0.000868529
-0.000634104
0.00430966
-0.00131286
0.00171898
-0.000406122
0.00197674
-0.00127827
-0.00038884
0.00607723
-0.00491783
-0.000461497
0.000857565
-0.00246239
-0.00539193
-0.00172409
0.000411221
-0.000678013
0.000101789
-0.000865268
0.000213727
-0.00147309
0.000649251
0.0015851
-0.000905225
0.000135101
0.000804342
0.00251657
-0.00332092
-0.00109495
0.0018739
-0.00194745
-0.000473855
0.00196142
-0.00148757
-0.000859012
-0.00210217
-0.00195198
0.00147813
-0.00265804
0.00346238
-0.00163999
0.00056761
0.00107238
-0.000967091
0.00356635
0.00598181
-0.00228258
-0.00130586
-0.000418219
-0.00174246
0.00111126
0.000631196
0.000904607
-0.00451932
0.00361471
-0.0013195
0.000540075
0.000779424
-0.00403369
-0.00115775
0.000191732
-0.00113593
0.00192447
-0.000688781
-0.00133122
-0.00379548
0.0051267
0.00101461
5.98601e-05
0.00329653
-0.00252876
-0.000767767
0.000283433
0.00125521
0.000878911
-0.000671976
-0.000206935
-0.00135635
-0.00100982
-0.00105176
0.00506917
-0.00401741
0.000626303
-0.00249742
0.000176299
0.00126346
0.00377315
-0.00495789
0.00118474
0.00287141
-0.00206357
0.00010206
-0.000168403
6.63437e-05
0.00102426
0.000138065
0.000104233
0.00234931
0.00369648
-0.000575494
-0.000824859
0.00140035
0.000651726
0.00177342
-0.00242515
0.00239371
-0.0017146
-0.000679115
0.000475001
0.00147429
0.0004257
-0.000507394
-0.000812106
0.000601492
-0.00532462
0.000690446
-2.98298e-05
-0.00115693
-0.00129857
-0.00378332
0.00508188
0.00103228
0.0014381
-0.00189587
0.00254698
-0.000395088
-0.00490914
0.00530423
0.000121012
-1.89524e-05
0.00063065
0.00129382
0.00273389
0.000932577
-0.00366646
0.00137626
0.00047103
0.00258797
-0.00364038
0.00454499
0.00277449
0.000842742
-0.00361723
0.00159365
-0.000871247
-0.000722401
0.0013306
-0.00102194
-0.000308664
0.000422092
0.00105622
-0.00469661
0.00021822
-6.8084e-06
0.000199951
0.0059954
-0.00128909
0.00152742
-0.00212916
0.0025207
-0.00183424
-0.000686466
0.000847277
-0.0025405
0.00169323
0.00523521
-0.0028206
-0.000920649
-0.00159633
0.00500742
0.00148592
-0.00178109
0.000295173
0.000500432
-0.000103764
-0.000396667
-0.000986538
-0.00314172
0.00412826
0.000740957
0.00182126
-0.00256222
0.00176722
-0.000281299
0.00225264
0.00140976
-0.000869693
-0.00093713