/*--------------------------------*- C++ -*----------------------------------*\
  =========                 |
  \\      /  F ield         | OpenFOAM: The Open Source CFD Toolbox
   \\    /   O peration     | Website:  https://openfoam.org
    \\  /    A nd           | Version:  7
     \\/     M anipulation  |
\*---------------------------------------------------------------------------*/
FoamFile
{
    version     2.0;
    format      ascii;
    class       volScalarField;
    location    "1.485";
    object      T;
}
// * * * * * * * * * * * * * * * * * * * * * * * * * * * * * * * * * * * * * //

dimensions      [0 2 -2 0 0 0 0];

internalField   nonuniform List<scalar> 
12359
(
-9.92206e-73
-3.86652e-60
3.54233e-195
-1.46212e-39
-3.2517e-68
-1.29678e-26
8.36974e-22
-3.9839e-24
1.05682e-16
6.04098e-30
5.85345e-19
-1.29272e-12
0.20803
-1.33995e-36
-4.64669e-42
1.72914e-05
0.00240617
-1.42121e-108
1.52246e-111
-2.28956e-50
-2.72561e-34
1.57653e-14
-3.10684e-55
3.30783e-47
-5.32366e-58
-2.84778e-52
2.41434e-142
4.98293e-145
-2.36046e-116
1.25865e-134
2.76182e-129
3.51415e-158
5.4231e-174
5.00204e-137
-8.79869e-185
-1.42436e-128
-2.85291e-88
-5.0457e-75
-1.77293e-70
5.66944e-81
-1.57385e-62
-2.36063e-77
-4.73658e-97
1.76509e-98
1.63293e-121
1.05117e-119
-4.00125e-124
-1.04829e-131
8.14971e-114
-2.03303e-139
-2.742e-147
3.90275e-153
-1.85811e-162
2.0331e-106
6.60381e-166
2.45566e-172
-5.03317e-101
-1.63616e-176
2.23087e-179
5.55137e-183
-1.06322e-168
-4.75031e-190
4.0171e-150
7.42498
8.02799e-104
3.3695e-32
1.30856e-90
-2.75164e-155
-2.26521e-85
6.49669e-08
89.9623
-1.8261e-65
-8.01462e-198
1.88779e-82
8.27713e-45
2.56008e-187
-2.47912e-163
-4.84085e-193
-1.89456e-93
-2.3483e-11
-1.46919e-26
-2.51754e-106
8.61688e-228
1.6651e-70
0.00198282
1.03059e-61
-7.05058e-105
-4.18048e-147
1.27156
0.000650215
4.99725e-205
4.21563
1.8885e-207
2.9606e-89
-4.62233e-74
8.62947e-40
1.85976e-93
9.8211e-90
8.25831e-46
1.54754e-57
6.43381e-22
7.88346e-206
3.09499e-62
31.6055
-6.09067e-112
5.17579e-25
-9.30909e-194
0.00260286
1.49784e-69
5.74009e-26
1.69634e-95
-3.49618e-106
-3.28203e-30
3.20428e-25
-7.38008e-75
-1.99898e-131
2.37306e-24
-2.70513e-105
4.3251
6.67468e-227
3.62287e-96
7.36979e-22
-4.38519e-146
3.18456e-28
-1.34159e-104
-4.57241e-123
6.40175e-16
2.98888e-69
-1.35383e-193
-2.74175e-105
-2.30611e-131
6.92355e-05
0.00168422
0.00127819
-2.20449e-194
4.00633e-29
-1.44176e-130
4.34142e-30
1.36686e-202
9.58601e-17
-1.83617e-217
-3.24731e-69
2.85717e-32
-1.20077e-194
9.64331e-17
1.23394e-26
-2.23541e-227
0.000851568
-2.25441e-111
1.01785e-25
9.70468e-37
8.9792e-204
8.69206e-32
-1.98716e-144
3.13947e-209
116.797
1.32705e-22
7.23071e-05
4.82362e-94
-8.97271e-153
1.24291e-31
-1.88382e-151
1.24449e-27
6.65162e-31
-1.08169e-214
-2.50225e-124
2.8633e-32
1.44044e-22
1.30964e-32
1.12695
3.12892e-190
9.77387e-189
4.69144e-33
-4.9101e-57
-2.88402e-113
3.90097e-17
-2.895e-116
-7.96387e-118
-4.85449e-30
5.13465e-18
-3.40715e-36
8.13441e-208
-6.84913e-193
-1.32192e-105
6.22503e-47
2.1219e-15
6.83927e-89
-7.08067e-77
1.673e-36
9.78932e-88
-1.31693e-75
6.77177e-41
5.95871e-43
-8.84526e-144
2.77974e-25
45.2096
2.62389e-53
-3.06756e-89
6.17483e-32
-1.52252e-104
1.68483e-25
9.74654e-37
-3.31395e-58
5.62223e-26
1.86842e-19
-3.03422e-206
1.56486e-18
1.87528e-57
1.36368e-23
2.31645e-95
9.1059e-213
2.50574e-11
3.3447e-11
157.869
6.04844e-15
7.23112e-200
-1.89861e-89
-9.69817e-76
1.06985e-88
-3.06811e-69
1.36949e-25
8.17055e-97
6.73824e-29
3.60294
-5.88947e-106
2.02506e-212
-4.17421e-68
1.08259e-70
1.74126e-18
-1.56032e-87
-8.07192e-87
-2.44661e-216
4.88195e-17
8.68472e-53
-7.37751e-77
7.35238e-54
2.1971e-225
4.01496e-30
-1.12618e-75
9.50577e-05
-6.972e-208
5.82912e-59
6.30954e-83
6.96025e-10
5.50413e-30
0.00127473
3.11615e-180
2.88588e-24
1.06513e-118
2.96508e-43
6.35336e-16
-4.55021e-76
-8.99545e-121
-4.05696e-87
1.32486
129.293
4.97202e-225
4.77564e-99
1.38562
201.043
8.61509e-57
2.13278e-30
3.07742e-20
1.0325e-25
-2.34007e-58
62.0611
4.35365
9.5679e-29
2.37197e-100
1.94759e-29
1.62678e-32
6.80002e-47
4.93016e-32
-2.17459e-88
3.76339e-97
-6.15134e-209
1.66449e-98
9.57745
1.67346e-28
-1.72386e-178
-4.40084e-205
2.19903e-25
-4.43344e-98
2.80634e-90
4.30475e-60
2.7668e-221
2.1018e-20
8.41757e-205
3.51273e-206
1.57458e-159
2.69803e-28
-8.82779e-108
55.5716
-1.84418e-195
-5.24768e-193
1.6977e-61
-1.25216e-118
2.00797e-26
9.12728e-78
-5.95698e-151
1.41746e-204
8.83902
1.93482e-19
1.08224e-205
-1.03583e-88
6.20972e-79
-9.0947e-117
-6.33511e-130
-2.17232e-132
-3.44311e-115
-1.52825e-106
-9.36852e-16
-5.31463e-117
-8.96647e-129
-7.05248e-75
8.16083e-31
2.13973
-3.41743e-115
3.71764e-49
8.50259e-06
2.68172e-203
4.48064e-39
7.97701e-178
1.19227e-52
-2.60714e-192
-1.88819e-114
1.75258e-15
2.52338e-36
5.3936e-16
1.94548e-91
1.18251e-83
8.72448e-43
2.17203e-38
-9.59677e-83
6.07164e-43
2.99021e-43
-2.25399e-162
-1.21928e-161
-8.26653e-161
-5.65088e-161
-1.86081e-160
0.00037346
5.83206e-221
1.6389e-24
2.46286e-28
5.54887e-49
2.30154e-30
7.36428e-36
6.22735e-62
1.71461e-54
8.15117e-36
3.51113e-55
4.25004e-49
1.66511e-28
6.83054e-28
1.64636e-29
-3.17782e-68
3.74009e-14
-1.81915e-70
-2.43214e-71
1.86773e-32
1.17504e-19
-1.0709e-108
-8.9452e-165
7.49741e-53
-2.55233e-166
-2.35482e-106
172
25.2681
-5.77208e-107
2.64537e-202
-2.03488e-196
-7.6919e-207
2.91725e-36
2.29138e-208
4.66983e-208
1.53791
3.21542e-31
0.000498477
2.22828e-109
1.16702e-26
-1.6834e-99
9.77444e-82
4.101e-25
1.87302e-53
-1.67947e-37
1.21141e-54
-2.67718e-109
-5.8604e-178
1.97155e-31
1.7795e-26
2.16707e-106
3.9412e-11
2.67961e-25
1.64563e-39
2.68211e-39
1.87031e-33
-2.59625e-199
9.4121
2.19409e-13
3.4673e-108
2.29984e-10
-1.38533e-72
-4.9071e-216
-1.52059e-216
-2.78753e-208
0.000923619
1.64438e-20
1.36415e-47
1.42852e-39
3.80443e-37
9.64866e-74
-5.31525e-37
1.76548e-40
3.82896e-08
2.10245
1.56806e-10
1.56223e-48
1.8739e-30
2.92471e-68
2.87428e-26
3.48194e-58
1.19016e-51
-3.29938e-136
2.09203e-59
5.42311e-34
-3.36427e-207
191.14
-4.67114e-88
2.48823
5.67501e-27
-2.14019e-97
1.88215e-28
1.13577
2.84404e-34
1.35997e-53
1.8463e-39
4.88518e-26
1.69151e-25
-1.80626e-102
-4.75469e-212
4.29521e-23
-1.38645e-190
2.9167e-05
-2.39464e-130
-6.82495e-52
1.32017e-33
2.27083e-82
0.0109998
9.40006e-24
-3.99881e-60
3.96562e-103
7.4229e-05
-4.71846e-167
1.86706e-112
2.9281e-14
-1.77857e-200
5.28959e-103
1.8007e-113
1.26648e-07
17.7324
5.29831e-72
-1.91307e-151
-1.43519e-31
2.97373e-34
4.18173e-39
1.09303e-30
2.63299e-32
-3.02492e-161
-3.07617e-208
1.30335e-37
3.22598e-203
1.31777e-34
1.29369e-39
1.12043e-26
-3.99102e-119
4.15262e-24
8.17781e-13
-1.26162e-134
3.89226e-71
8.14013e-105
-2.828e-28
5.4127e-14
5.57623e-202
2.14253e-36
3.29783e-33
1.48631e-70
2.57144e-35
-5.00274e-129
1.07167e-20
1.15118e-53
5.15723e-28
5.96454e-27
-7.48511e-160
-5.10474e-73
1.31819e-09
0.00540215
1.21377e-204
3.56772e-51
5.35986e-10
1.02138e-34
0.794608
-3.14923e-208
-1.26239e-131
-1.53287e-165
1.38916e-30
1.50908e-56
1.15947e-66
-1.05839e-127
2.52744e-38
5.68547e-50
-3.2547e-57
8.51274e-90
0.00036026
1.04852e-186
0.000808022
-1.4191e-148
148.422
1.09743e-52
2.65394e-10
1.33937e-179
-5.71721e-121
7.57184e-30
-4.74026e-107
4.88225e-151
4.58909e-95
6.14302e-55
3.05387e-55
6.24043e-12
3.67525e-22
3.3926e-22
-2.83668e-228
-8.82111e-107
5.98216e-38
0.00765996
-1.85938e-228
1.27755e-183
1.13888e-32
-1.65222e-163
4.78204e-16
1.35076
115.141
-3.80259e-227
-1.24163e-70
3.70306e-15
-1.04309e-65
-7.98463e-114
86.7909
9.61553e-185
3.75775e-23
1.55271e-32
1.1337e-71
-5.57062e-116
-3.69431e-148
1.11408e-83
1.21855e-28
2.41357e-55
1.95688e-70
4.21084e-226
7.11409e-192
6.52192e-59
-6.58934e-114
1.24565e-26
1.16491e-30
3.10028e-158
-5.40625e-180
5.21775e-28
181.95
-4.63035e-130
2.46285e-08
-3.64031e-197
8.60792e-70
2.94833e-23
7.36453e-34
1.62276e-16
1.5693e-27
2.89147e-56
6.80174e-26
-3.75675e-213
1.10611e-186
6.4883e-37
2.64029e-62
-7.32772e-57
1.26724e-63
3.59244e-208
-5.71523e-179
-1.06916e-122
3.71373e-44
1.07353e-22
-4.12826e-32
-2.67465e-87
-1.55648e-30
1.24338e-32
2.10429e-52
-1.28065e-29
9.86096e-53
3.18315
6.3148e-31
2.08777e-51
1.05224e-27
1.30281e-185
2.5516e-22
1.69454e-29
1.09854e-228
-5.10692e-201
-8.30531e-163
-4.72777e-174
7.2485e-07
7.53674e-52
3.56696e-76
-2.13098e-31
1.05762e-93
2.29132e-15
2.88506e-35
1.79536e-28
-7.44907e-122
2.2763e-10
-4.20159e-208
-3.83595e-45
1.14703e-103
1.15553e-18
-4.66046e-29
4.00784e-60
3.77452e-51
8.87556
1.73589e-33
3.07551e-13
4.98433e-59
2.15075e-11
0.633042
-8.8392e-155
-5.17691e-109
9.23476e-210
3.47568e-08
-2.93518e-109
2.86291e-55
0.00901355
2.95059e-183
-7.24804e-57
2.01054e-30
2.79344e-56
-1.62804e-127
4.63817e-61
-3.82882e-152
-1.31667e-61
-6.18168e-155
-3.88705e-151
-2.01252e-66
1.96852e-28
1.19905e-31
4.56486e-55
3.96095e-08
1.58879e-34
15.6369
2.81125e-33
1.69547e-60
-1.04935e-63
8.71927e-35
8.00486e-48
4.34058e-41
0.546535
-3.94084e-34
5.33703e-50
1.18013e-47
-2.59492e-105
-4.2196e-115
2.03002e-28
-1.21889e-210
30.4725
8.04646e-161
-2.97666e-33
1.44126e-21
5.51215e-07
9.23116e-18
1.56933e-26
1.70615e-31
8.99007e-60
5.23577e-18
5.47412e-40
4.03624e-13
4.16251e-47
4.79875e-13
3.36334e-48
6.17768e-222
1.39794e-49
178.17
5.51608e-13
-1.68405e-84
-1.64721e-213
6.03402e-156
4.43874e-80
-7.18633e-52
3.2438e-32
9.87813e-50
-3.36264e-162
-1.1078e-82
2.35186e-47
-1.33402e-86
3.90899e-90
3.59033e-12
-2.39874e-97
3.87856e-41
2.45373e-23
1.00858e-83
-3.0591e-76
3.40689e-27
-9.01605e-230
-1.1669e-81
53.4276
4.91128e-183
8.91434e-16
3.57173e-22
-3.51375e-78
1.54907e-31
1.59326e-23
3.14961e-49
5.23009e-25
3.59598e-110
-1.25856e-31
-8.09193e-114
1.99094e-44
1.43418e-25
-1.80475e-30
3.92415e-110
2.00901e-25
1.00211e-05
3.35592e-42
1.13571e-60
-3.48939e-103
8.79427e-22
7.32547e-07
-7.44322e-108
-1.31244e-200
2.86664e-49
-3.98078e-206
0.743609
1.2032e-47
4.55361e-12
2.88496e-58
7.93375e-51
14.1232
3.09797e-57
0.0018574
2.80933e-33
110.482
1.98898e-37
4.92372e-70
1.84346e-58
9.24876e-72
0.00486981
0.000487407
-4.57237e-152
-6.99077e-150
-1.62293e-28
-1.49957e-141
0.00365129
1.59547e-26
4.85354e-10
-3.29345e-103
125.075
0.10351
4.09762e-47
1.59756e-221
4.20717e-114
-3.40948e-36
2.4015e-78
2.24116e-86
5.79847e-75
1.43884e-33
4.31387e-41
63.5924
3.51934e-07
-1.34231e-163
1.08463e-35
2.32616e-23
-1.28963e-27
5.11509e-64
3.50997e-22
2.29729e-27
-3.01586e-35
5.08689e-124
-6.12356e-218
1.73033e-19
1.27423e-16
1.95884e-51
-2.287e-29
7.58459e-13
1.3167e-61
4.15257e-50
2.2988e-102
3.2859e-68
2.43932e-14
8.57295e-67
1.31376e-23
1.57815e-37
2.21319e-42
2.28848e-82
1.44676e-70
3.90829e-06
5.21864e-60
4.51591e-64
66.5747
4.20416e-45
3.32612e-63
0.0097823
6.89859e-225
8.80323e-59
1.49906e-54
-5.27382e-78
-2.54179e-125
2.50946e-51
4.19398e-231
1.78496e-09
8.28435e-108
-5.1595e-56
2.78724e-20
2.03797e-31
9.73256e-55
4.61188e-57
1.89642e-20
94.3047
4.58576e-184
-3.97278e-96
4.39877e-62
0.00877283
8.14488e-17
1.6087e-111
3.58583
-2.16499e-217
-6.78268e-110
188.857
-1.69641e-85
8.49394e-109
3.31029e-106
1.18661e-38
-2.63938e-38
2.79803e-181
-1.63066e-79
3.37486e-24
7.01934e-55
1.22748e-58
1.20254e-75
-6.7588e-154
-2.73762e-37
3.33136e-06
-1.82742e-62
-2.0594e-30
7.66122e-34
2.72208e-42
2.74091e-10
4.26474e-24
1.55406e-74
-1.2563e-108
0.000575189
9.54353e-28
2.09543e-44
1.24454e-101
-1.22788e-172
6.5379e-35
1.50592e-10
8.16806e-62
1.53181e-27
1.44952e-60
5.35196e-74
3.10382e-91
5.46966e-38
151.176
18.6391
9.44913e-37
2.87683e-59
1.09354e-92
6.80394e-39
0.0123336
-9.19599e-33
9.56052e-113
5.58662e-11
1.09093e-07
10.0395
1.27988e-75
94.2243
-2.97576e-179
9.88634e-73
6.54968e-176
9.60619e-11
2.57448e-43
85.6773
-5.54824e-114
0.022225
-2.37122e-140
2.17553e-60
3.38325e-26
1.19637e-79
1.05458e-11
0.177061
-3.98645e-84
1.28395e-81
8.06744e-58
1.69762e-76
-2.17958e-85
1.44266e-13
1.44818e-45
1.51211e-56
2.93354e-15
-1.6347e-85
-1.21986e-167
2.40628e-63
2.31612e-154
3.36668e-26
2.83999e-57
5.8246e-09
9.66133e-11
-1.90532e-40
5.81698e-31
2.80426e-34
1.87276e-59
0.0149484
1.01006e-63
-3.00052e-89
2.25515e-208
7.65344e-11
-6.61835e-34
-4.39122e-115
4.49102e-25
-7.91049e-76
3.9899e-31
-4.41085e-36
-1.04113e-31
2.69238e-35
88.3065
6.60096e-34
-2.03105e-39
0.18977
2.15323e-79
2.81884e-07
1.47065e-22
-2.91411e-144
1.8861e-62
9.29353e-89
9.13878e-63
-1.51746e-214
-8.3041e-105
3.93243e-07
6.13933e-11
-2.28077e-105
211.022
2.9737e-28
-5.2767e-154
1.1195e-11
5.5422e-12
-5.08193e-154
1.41776e-10
4.14123e-21
5.50548e-11
-8.95632e-151
-3.42245e-119
4.76592e-92
-1.41751e-153
-2.58561e-36
31.37
-1.89967e-117
8.39259e-12
-2.55733e-227
2.87448
2.47913e-25
9.12033e-32
-5.14271e-186
-6.84564e-119
8.02817e-72
1.07738e-36
5.43185e-15
8.30808e-32
6.6074e-87
1.82324e-82
-9.2044e-150
1.92927e-26
7.99353e-37
1.86256e-88
-6.73055e-200
2.3702e-49
5.43344e-32
3.44363e-42
-3.77733e-122
1.06973e-06
1.52453e-27
-6.02413e-141
2.13423e-41
2.84505e-82
2.44e-65
197.861
-8.84156e-87
-3.23401e-150
5.87729e-33
-6.06202e-35
-1.25594e-42
3.06174
-6.10426e-58
9.52771e-66
8.80597e-31
-4.18668e-78
6.33246e-73
1.85592e-64
-1.93897e-77
-5.33295e-29
1.49867e-69
16.7012
-1.46789e-41
6.97819e-10
2.22471e-71
0.0314029
2.36931e-30
1.60254e-08
2.95431e-13
4.0102e-28
1.53668e-63
1.85979e-69
4.2273e-52
-1.15127e-227
8.77962e-68
1.26034e-34
3.6536e-11
-2.57784e-78
-4.92232e-142
1.27658e-29
5.90734e-32
1.02093e-15
7.99689e-38
3.94314e-11
1.51948e-15
2.12209e-100
7.13308e-48
1.03871
9.5929e-36
-1.11095e-216
2.0168e-76
3.29861e-81
-1.67356e-219
5.40716e-49
-1.2022e-180
1.69783e-66
2.22967e-14
1.7685e-32
4.35063e-06
-1.63402e-176
-1.39105e-120
-3.94094e-205
-2.14325e-79
-2.94017e-94
1.41921e-08
-3.64349e-94
1.33241e-119
7.04153e-07
6.90272e-33
3.11713e-38
3.0879e-50
6.19249e-17
8.99409e-84
6.04417e-12
4.03125e-70
-4.24657e-169
0.00262076
1.72027e-35
5.82496e-20
4.97955e-90
57.3528
-2.80344e-38
1.42837e-41
2.48814e-27
1.4346e-28
61.3143
6.66078e-68
1.98143e-11
-1.67326e-46
8.03113e-43
-3.24907e-133
2.17322e-56
1.9457e-07
3.41551e-72
1.04073e-08
-2.79765e-84
-5.16047e-88
1.33309e-12
-5.3787e-133
-8.24522e-113
1.31953e-66
3.01495e-34
5.69417e-11
-2.10976e-85
9.41335e-81
-3.91448e-200
1.61441e-45
0.00308246
3.8345e-38
-1.81422e-80
2.43263e-57
2.29435e-84
1.33781e-115
14.8607
-7.92856e-45
4.23471e-203
1.0966e-46
9.39458e-86
-3.88066e-37
-2.11773e-27
1.02116e-34
-3.10936e-79
4.37278e-14
7.70595e-11
5.71087e-191
1.85382e-54
3.23428e-11
-1.97798e-115
-2.42092e-174
-5.61257e-60
4.09896e-45
9.44472e-74
-7.4471e-173
1.24721e-46
3.26059e-12
-5.31117e-157
3.55548e-22
9.27233e-183
6.43545e-88
1.00623e-52
5.25595e-05
-5.54373e-208
2.23583
-9.45381e-44
1.34467e-20
45.0258
-1.67721e-40
5.52524e-51
0.0387016
-3.07054e-79
1.74932e-05
3.46965e-18
1.65848e-59
6.38242e-69
3.23082e-70
4.58361e-90
-4.97406e-93
2.76544e-19
0.0325066
200.646
2.00305e-22
-7.78038e-28
0.0746478
1.45541e-24
17.7967
-2.09059e-130
1.73911e-88
2.59097e-18
9.12748e-39
1.78207e-106
3.17884e-22
4.1296e-70
58.2707
3.46443e-217
1.04942e-122
-1.08543e-124
210.12
-6.1634e-35
1.0219e-42
-2.99428e-71
1.11885e-18
1.21561e-72
-1.21452e-120
4.83346e-07
8.42763e-69
4.49286e-07
1.84789e-19
1.75173e-58
9.58583e-14
4.58311e-37
-1.07408e-87
2.0484e-116
3.26491e-114
0.248356
4.03754e-13
1.29043e-91
1.99568e-17
4.55852e-38
1.99101e-23
-2.51372e-207
2.84499e-41
2.95222e-07
3.25172e-08
-2.3232e-39
2.6349e-62
-1.78375e-119
1.11276e-14
-4.73567e-76
5.07665e-121
6.97635e-10
5.14788e-16
-5.60825e-98
8.4765e-29
7.83533e-33
-3.30746e-205
1.55102e-107
-1.68367e-171
-3.06004e-39
92.3911
3.20444e-11
1.86781e-18
-6.70239e-102
2.16863e-75
6.48229e-35
6.68859e-205
3.98832e-09
1.30322e-37
108.237
-1.24495e-26
7.85607e-63
2.60281e-98
2.86712e-129
2.95002e-68
-4.61553e-77
1.09229e-104
14.9757
1.88972e-14
9.93681e-34
2.03536e-16
-1.40476e-41
-1.98707e-114
-6.50037e-226
5.96316e-105
3.678e-25
1.06946
-1.88333e-21
7.14589e-41
-5.9255e-46
-1.5425e-70
6.55332e-15
0.0414933
0.026909
4.85835e-78
-9.83829e-65
1.80018e-26
-8.34061e-86
-2.12294e-164
-6.03418e-106
2.64885e-13
-1.94336e-95
1.01274e-52
-4.00368e-84
4.69586e-39
5.53413e-08
-8.26748e-89
-8.13377e-106
5.09609e-10
1.42124e-13
7.66369e-89
-5.46507e-132
-4.67667e-47
0.00469799
1.62148e-24
2.25311e-21
-2.59281e-49
4.59843e-49
0.0935499
4.89468e-74
-1.55884e-21
5.60618e-115
2.30182e-12
2.55021e-11
-1.43624e-152
7.88739e-127
87.2257
1.2077e-107
2.62994e-68
4.84695e-26
-1.59524e-98
-1.1266e-96
-2.86715e-85
5.46497e-109
-3.23609e-204
3.96602e-14
2.24874e-05
-2.04175e-127
0.0176799
2.27758e-72
-8.88899e-110
2.09661e-12
5.44487e-09
1.18516e-25
2.54294e-76
-9.3394e-105
-9.44334e-43
153.585
-2.45519e-95
-9.37962e-128
7.12453e-134
1.08392e-95
4.35534e-56
1.88304e-26
-6.02572e-98
-1.24765e-73
-1.17016e-117
7.76146
1.24735e-08
1.75427e-33
-8.09497e-38
4.73207e-71
-7.72398e-110
1.58203e-14
1.48526
5.81356e-68
7.24026e-134
-3.43745e-111
2.34499e-13
-4.8438e-98
5.37576e-116
1.2773e-07
2.41621e-76
3.0741e-104
114.938
5.46613e-05
20.6255
4.62164e-14
-1.34653e-97
1.01886e-10
2.70733e-10
0.188867
3.73476e-87
4.26956e-25
2.57417e-207
0.120239
2.03886e-221
2.13891e-88
9.48246e-71
2.21915e-132
4.44198e-37
8.70468e-88
-3.02355e-96
1.98606e-88
8.45594
6.34601e-14
6.88934e-32
-1.07628e-104
1.49181e-27
24.7226
1.57238e-08
2.37659e-41
-3.34276e-48
7.03568e-89
-7.65185e-78
-1.05756e-126
-9.75325e-99
-2.13207e-126
-4.13336e-107
-1.35186e-41
1.27788e-14
1.09059e-15
0.353682
0.000128218
2.10624e-08
4.43589e-23
0.13367
2.01208e-117
5.29035e-05
-1.86033e-111
0.00188901
8.3687e-09
1.85863e-32
1.38518e-96
3.38087e-32
5.0749e-21
1.79672e-56
113.53
2.41387e-12
0.410451
-1.85578e-108
1.76506e-09
4.02507e-07
1.38532e-09
1.91824e-07
1.57427e-10
-1.2876e-104
-7.05882e-89
1.16221e-33
-1.16787e-100
4.36129e-27
2.98448e-91
1.40555e-35
-4.52403e-154
-6.59115e-83
2.08059e-18
2.53994e-24
1.9681e-122
-4.99402e-45
1.09832
88.965
4.38968e-133
-2.21869e-47
1.40359e-64
1.47782e-10
1.02886e-27
5.38331
5.39178e-05
4.10429e-89
1.19572e-35
3.06456e-07
-1.01112e-23
7.14147e-06
2.25129e-51
1.28725e-11
-9.09732e-124
0.218114
4.4784e-08
-9.61785e-131
1.77335e-07
0.238617
9.75866e-44
4.86666
1.21251e-74
1.01341e-08
2.01931e-72
2.1642e-137
1.58875e-68
2.30467e-71
0.0959248
0.00279203
0.0473029
-3.69912e-122
8.49397
3.14007e-33
1.94414e-12
-1.37522e-30
3.51242e-37
1.509e-44
0.0243039
2.62091e-73
1.18819e-81
2.80178e-17
5.25868e-09
1.74771e-26
3.97451e-17
-6.43715e-54
0.0564753
1.99917e-28
3.63819e-27
2.96653e-09
-1.9667e-163
1.01671e-07
6.30308e-09
5.87764e-08
4.46653e-70
0.00128519
-5.2208e-129
1.24903e-27
1.67502e-34
0.000139236
6.59021e-67
2.92738e-18
2.1e-08
93.6582
-1.01287e-98
9.37185e-29
-1.38369e-45
3.40345e-07
3.97234e-17
1.73934e-87
1.11025e-34
9.46013e-131
12.5236
8.37841e-207
-5.04887e-131
-4.85571e-170
1.61174e-06
7.77108e-103
7.59449e-35
12.2328
2.99949e-46
6.32268e-55
1.74984e-99
-1.5449e-162
1.37376e-09
-2.26636e-131
-3.15808e-40
7.86688e-12
-7.18636e-44
3.6646e-06
1.50222e-81
1.71935e-33
2.0805e-07
1.81817e-17
1.00714e-61
99.8091
1.78676e-209
-3.14557e-158
-1.2541e-78
233.178
5.19052e-71
3.55791e-62
1.05794e-07
-6.63168e-97
3.79135e-80
1.02415e-12
1.29274e-05
4.25996e-29
0.0117145
-4.28147e-97
1.14841e-77
1.41308e-35
9.4945e-41
0.000155273
-8.22148e-113
3.1535e-58
-1.35115e-51
3.98132e-17
2.10817e-53
7.79169e-124
9.60567e-37
-1.11229e-18
-4.67375e-188
-1.90688e-182
5.47098e-05
1.0381e-28
0.000101844
2.47734e-79
6.18345e-217
-1.6561e-17
2.0762e-06
-4.84709e-114
-4.92856e-94
-4.71305e-129
17.1677
-2.78422e-188
4.13186e-30
0.000104878
-3.66378e-177
-4.04448e-161
1.36252e-17
2.84479e-140
9.53199e-184
3.85053e-34
5.71228e-13
5.55561e-125
1.25032e-20
3.91487e-134
1.47936e-07
1.0983e-218
1.63401e-07
7.64763e-13
1.48023e-18
-2.59728e-177
2.93059e-14
5.69925
1.05491e-86
2.33023e-46
-1.19969e-140
3.04344e-13
-3.15672e-134
1.26646e-06
5.79497e-09
5.23524e-75
-2.39516e-168
2.19671e-13
1.27287e-13
2.55373e-39
1.39435e-36
4.31102e-16
9.5612e-139
1.02269e-14
-8.03802e-170
2.2539e-05
1.82686e-08
3.65684e-08
4.58682e-18
-1.37074e-22
14.1311
8.52154e-18
2.78384e-35
2.99704e-14
-8.92373e-95
2.76161e-11
5.26876e-16
-2.21238e-42
1.40945e-67
0.110627
1.27814e-182
0.0547871
107.103
1.24669e-99
5.09664e-08
111.257
4.06087e-33
7.16911e-33
1.69684e-15
-1.83429e-50
-2.23391e-131
1.03691e-07
0.0153979
0.824752
-1.67709e-90
4.54673e-13
0.000594381
5.20422e-14
-3.45682e-106
-1.87504e-155
8.5363e-26
0.0275108
1.02084e-08
5.66595e-16
-1.3677e-209
6.96033e-136
3.36121e-14
-1.34048e-96
3.00166e-38
-8.8981e-93
-1.65071e-165
3.54353e-07
1.79948e-73
0.000266783
9.24945e-39
-2.00979e-148
-2.16983e-155
7.50389e-15
-1.12229e-91
2.32398e-32
1.03696e-15
1.0623
-2.4914e-47
1.14738e-122
3.28105e-06
-1.53418e-89
2.70325e-132
1.30676e-57
1.66108e-13
-1.41057e-85
1.13686e-13
7.41237e-40
224.022
2.29054e-14
6.31548e-116
0.000130701
-6.26355e-169
8.45272e-09
1.234e-33
9.18412e-06
0.00589255
-1.44046e-43
0.000205509
-5.52469e-147
1.80933e-08
-2.26816e-111
-7.62798e-49
4.90338e-05
1.56069e-25
1.80814e-05
0.0194795
-1.82809e-19
2.04403e-07
2.9305e-06
4.98424e-120
1.11154e-133
-1.36474e-167
0.000264466
-1.62563e-24
1.32924e-118
2.5617e-07
2.73832e-05
2.08156e-32
2.93454e-12
8.04244e-47
-9.00859e-33
0.00403822
5.85549e-66
8.24158e-26
1.60187e-30
4.95255e-206
2.05036e-206
-6.22515e-121
-2.04641e-90
3.58946e-37
-1.01541e-149
2.91288e-77
-1.4605e-99
-8.52766e-59
3.41401e-14
1.63265e-105
1.9496e-06
4.24691e-220
3.72864e-11
4.89033e-06
-1.64185e-115
6.2734e-05
6.75468e-12
9.24079e-06
1.03297e-52
2.49264e-16
-1.8076e-98
6.9987e-34
1.50809e-42
-8.42232e-157
-6.46409e-114
9.27432e-84
-3.68922e-114
-2.8095e-174
-2.64218e-51
-8.87547e-176
-5.97576e-30
1.98944e-21
0.0735845
-4.16038e-151
1.19501e-57
-2.72385e-148
2.099e-95
4.51105e-21
1.036e-59
8.80831e-117
119.098
3.58159e-14
5.02107e-29
1.70551e-56
9.52237e-15
5.12616e-23
7.41115e-54
5.30311e-17
3.24223e-13
-1.08935e-98
-2.72589e-171
2.18085e-76
2.81941e-07
9.03423e-133
-3.11079e-121
1.39669e-13
-3.74064e-100
-1.07175e-96
1.31503e-63
1.37614e-123
0.00149039
-1.15596e-149
-1.29686e-122
2.51281e-18
2.54286e-17
7.61003
4.55855e-13
-4.4197e-54
-7.50553e-117
7.42579e-16
-3.23233e-118
4.67251e-25
5.62045e-38
8.29168e-102
7.35848e-06
2.07462e-188
9.53016e-21
-1.67806e-50
1.44147e-14
5.87025e-41
-2.74032e-178
-6.94775e-101
-3.58649e-218
1.68395e-23
1.40507e-134
1.79519e-18
2.1112e-38
2.9061e-80
-9.14044e-53
6.33236e-35
-7.79767e-173
2.4201e-20
2.46962e-20
-1.79361e-91
2.63494e-18
1.75714e-07
-5.23087e-164
3.64563e-35
2.67712e-11
1.93423e-12
1.95975e-69
2.77614e-38
3.95155e-37
2.17395e-40
4.76339e-67
9.95051e-15
9.55995e-67
1.65754e-115
7.64929e-117
0.0935729
3.02904e-08
0.000118419
1.7496e-06
-7.3496e-34
6.82041e-20
1.15702e-38
5.6499e-18
-5.52785e-117
4.18559
-1.29482e-95
3.31186e-06
2.21539e-06
-1.44456e-119
-7.79276e-25
1.44361e-08
1.02885e-05
5.71193e-37
6.44267e-25
-2.50527e-118
1.34107e-189
1.11919e-14
-2.30191e-171
-1.22384e-152
6.24773e-17
4.95717e-97
-4.56514e-61
3.05607e-121
1.21715e-75
1.26145e-14
10.7742
-4.22362e-89
1.0382e-97
2.86644e-08
-1.39715e-36
6.86717e-11
1.98622e-23
3.74852e-25
8.26498e-98
3.42233e-35
7.21513e-15
1.28963e-16
-2.26195e-29
5.51104e-148
2.59445e-05
4.46162e-29
7.81859e-19
3.18644e-76
7.79367e-121
2.75554e-16
-3.40773e-87
-4.91438e-166
1.02937e-21
2.18325e-08
-4.36641e-151
6.15972e-20
1.92915e-41
2.31832e-104
-3.25441e-69
-1.21638e-103
1.03556e-21
2.24206e-115
3.01678e-122
3.12592e-37
4.30684e-22
-3.12491e-38
-4.91935e-29
10.5242
-4.44568e-100
-5.04226e-58
0.527509
1.42932e-30
-6.98847e-105
4.02795e-30
0.0223659
-8.2746e-157
-2.77853e-99
-6.70696e-167
1.76068e-24
2.42965e-14
1.51864e-40
-3.4233e-177
-1.75516e-72
5.52974e-57
4.87162e-84
2.33855e-09
-1.66138e-92
-1.90252e-175
-7.36718e-173
2.41371e-26
1.70975e-37
1.76885e-05
-2.41308e-75
-3.66783e-46
1.34661e-24
4.85863e-14
3.31361e-132
2.20834e-23
-1.11155e-159
-1.38659e-152
-5.0432e-178
1.18663e-09
-7.21923e-100
4.91382e-23
1.16022e-19
8.24726e-25
3.83788e-15
6.72512e-26
2.62133e-13
3.75527e-25
-1.62217e-92
1.71881e-25
3.40407e-46
4.5815e-32
6.82895e-21
-3.34553e-98
42.3285
1.071e-16
8.86114e-19
-1.39106e-149
1.59225
1.13198e-14
2.54966e-16
-3.49205e-30
1.38658e-05
7.6754e-59
-1.59898e-96
5.51173e-77
5.61682e-79
2.49357e-74
1.75761e-17
2.98652e-21
-3.82685e-105
2.08409e-23
-5.16604e-85
2.87272e-74
1.07422e-45
-1.91815e-44
2.53758e-61
-1.55955e-52
-1.1864e-42
8.10364e-21
4.16275e-25
4.5105e-43
8.65323e-179
3.89907e-85
2.26539e-91
9.86718e-11
-6.73826e-133
-1.70307e-102
6.25552e-24
2.13061
1.12983e-114
2.84362e-05
6.23802e-118
-9.80383e-88
4.57644e-34
2.47556e-27
1.34651e-31
-4.88515e-130
2.04637e-17
2.09886e-20
2.48832e-11
-3.88588e-151
8.21985e-22
3.4202e-38
9.59205e-45
-1.38949e-176
-2.99e-209
2.06191e-26
2.4336e-37
2.30242e-53
60.3522
3.80269e-22
1.48947e-30
-1.336e-24
8.61005e-38
4.48983e-11
-4.5274e-100
4.82519e-41
1.03051e-65
6.58617e-79
0.0141114
3.41979e-20
8.81247e-21
4.19584e-33
3.07941e-126
2.35693e-16
7.26559e-16
0.00089942
5.58592e-75
1.61864e-30
0.000310946
9.73921e-05
2.30693e-119
0.000141916
1.31289e-44
26.1432
-4.87148e-164
1.68012e-23
1.4094e-33
-2.17763e-183
1.03997e-13
5.51529e-57
2.88407e-72
1.95828e-07
0.00200714
0.000222655
7.65652e-72
3.36642e-25
-1.51331e-163
4.31291e-90
5.80105e-06
1.64172e-29
5.26183e-67
6.31983e-17
1.07104e-21
3.73376e-26
8.71315e-36
5.43483e-34
7.73083e-20
0.00440896
1.18271e-125
1.58744e-35
1.74909e-40
5.08502e-27
2.4018e-07
6.5912e-22
1.59839e-30
2.95624e-56
-6.25078e-167
1.11595e-25
3.61e-29
1.59859e-19
1.62403e-129
6.54113e-51
5.9582e-21
6.11228e-23
-1.0592e-23
4.8012e-19
5.84983e-63
8.7335e-28
-3.83354e-101
5.05009e-13
6.04399e-47
4.54823e-25
2.38805e-59
1.03719e-70
2.51676e-21
1.63532e-51
1.00439e-58
2.69654e-70
7.44814e-129
1.00268e-24
1.65746e-47
2.65419e-48
30.7673
0.0130558
1.1385e-99
2.93524e-68
7.06279e-34
8.23633e-37
-6.84935e-177
2.80926e-29
-6.29866e-35
2.68349e-29
-1.07851e-164
2.12524e-13
3.19146e-17
1.43755e-15
4.96483e-29
-1.29858e-150
-1.95003e-86
1.41567e-54
1.77843e-27
8.37475e-09
17.3048
-1.40663e-122
3.16016e-63
3.19247e-63
7.68841e-07
0.00068483
0.000528454
1.88575e-48
5.10631e-20
-3.35336e-163
3.06629e-35
-1.94956e-49
-3.09069e-121
1.55802e-21
1.47034e-35
2.85815e-32
7.98451e-19
-1.91964e-66
4.14731e-37
4.58914e-30
-2.02312e-152
-9.67513e-228
6.70919e-40
-3.90923e-61
2.57717e-08
4.68642e-41
-2.88106e-23
2.86716e-13
-2.49895e-39
-6.26053e-123
-3.09582e-55
1.01212e-17
2.238e-126
0.407876
0.0951174
-3.19651e-103
-1.19006e-159
5.61241e-90
-1.52002e-125
-3.10322e-184
-6.80978e-57
3.17775e-58
-2.31068e-31
3.22413e-35
4.89728e-29
-1.51188e-46
5.35945e-05
2.04072e-17
5.13547e-31
1.1037e-34
3.94861e-45
1.72804e-33
-1.20935e-151
-8.33346e-69
7.7491e-59
-3.97005e-31
-1.06754e-25
1.87397e-09
-6.14697e-187
-2.02774e-26
1.25705e-34
3.43609e-44
3.37426e-22
1.51684e-38
4.56109e-24
0.00587314
1.80861e-34
5.63651e-18
6.46076e-44
2.23264e-76
9.69678e-38
1.42654e-33
1.30058e-126
6.11701e-37
0.03988
-7.72229e-72
0.000307127
6.16577e-120
4.94866e-33
-2.50475e-82
4.28706e-64
1.8768e-29
-1.41185e-20
4.63188e-21
5.76684e-63
1.16165e-38
1.18881e-44
1.10507e-17
2.61546e-10
-9.31183e-44
5.83383e-08
-1.11838e-183
4.84443e-36
7.92306
2.27176e-14
1.23301e-62
0.518017
1.41442e-18
5.83514e-60
-1.02547e-139
1.22042e-10
5.99064e-34
8.73596e-46
1.9376e-34
8.72409e-146
1.23788e-18
2.20391e-70
1.56848e-13
4.57008e-35
4.58556e-30
-5.40871e-30
2.15127e-223
-3.26017e-93
5.56807e-38
3.76489e-75
1.75292e-77
7.35277e-54
1.73345e-70
2.08563e-55
-2.88267e-24
2.60352e-27
-7.12698e-173
6.38945e-15
7.89127e-91
-2.15021e-151
-4.46189e-27
1.52936e-115
9.10599e-44
5.74553e-45
4.52506e-128
8.48321e-125
6.28905e-77
1.21508e-21
1.52098e-58
1.20825e-31
2.64165e-33
-4.08872e-26
1.93543e-24
2.58078e-46
8.1877e-40
3.72799e-37
-7.20008e-198
1.43066e-51
5.03205e-67
2.23375e-46
0.41016
5.82718e-24
-5.99198e-66
3.49548e-39
-2.98936e-59
7.26282e-59
1.7141e-64
1.18043e-59
2.34092e-58
-1.06717e-31
4.15587e-35
-1.08914e-152
8.71906e-23
-1.09771e-47
4.21801e-21
-1.77497e-142
-9.68077e-28
6.01558e-05
-1.15449e-88
-8.33789e-39
1.09707e-16
-8.48501e-108
6.73475e-26
4.50014e-13
1.96409e-36
4.25599e-36
7.38685e-14
1.05641e-39
-1.72097e-48
2.8338e-39
1.95323e-23
-3.61005e-112
6.07997e-64
-2.971e-190
7.14651e-92
1.0454e-141
8.9485e-36
1.15521e-34
5.23914e-25
-1.86364e-40
17.9449
-2.53607e-20
39.5915
8.66531e-34
5.97137e-10
14.4228
6.33604e-16
26.0694
2.07477e-62
1.45316e-38
3.00462e-42
7.66196e-48
3.45426e-43
-2.31997e-90
4.94083e-43
-4.68838e-84
-8.67889e-144
-1.14966e-49
5.51536
1.91596e-37
4.97581e-20
2.15107e-40
4.92916e-78
2.51284e-35
2.43781e-34
-2.75107e-105
5.14189e-40
1.08921e-71
4.60638e-24
-5.46384e-39
2.77351e-40
-4.9595e-41
0.974618
1.332e-06
3.70574e-19
2.75236e-45
93.5622
6.32585e-39
7.08165e-51
1.40137e-27
-6.49365e-29
-5.40598e-56
4.64985e-16
2.33388e-125
-4.94358e-36
-4.20816e-27
1.94574e-41
-2.20261e-42
1.5361e-70
5.53446e-36
-2.6003e-33
1.46277e-60
1.29846e-26
3.98751e-44
3.81075e-55
2.20013e-121
2.03454e-48
2.70311e-36
6.81569e-75
4.7059e-44
8.22096e-55
2.98204e-92
-1.0072e-32
1.0995e-71
1.20287e-15
1.49407e-45
-6.99601e-61
1.5694e-128
1.37803e-90
1.81357e-13
9.64875e-36
-1.17116e-193
1.24152e-43
10.1502
1.46242e-20
9.90762e-72
4.42764e-44
0.187639
1.01833
59.3828
4.59504e-76
1.46486e-77
-1.54371e-103
1.53756e-54
6.18619e-28
0.0134367
0.104108
1.19116e-12
2.36179e-16
2.61379e-66
-3.08963e-137
-1.00381e-134
-5.61722e-27
-1.91783e-70
2.41825e-24
7.7685e-79
8.61633e-05
7.97021e-78
1.23551e-39
3.84468e-12
-1.95831e-40
4.85087e-20
-9.93114e-108
1.81831e-37
-2.44271e-149
2.80452e-17
1.29452e-16
1.79675e-59
2.65461e-143
2.09151e-64
2.5755e-24
-1.00401e-92
-2.81949e-43
0.188519
-9.04866e-160
5.41188e-59
-4.30074e-37
-9.5433e-38
7.45568e-46
2.54997e-106
-1.5618e-94
-3.29166e-94
-5.84552e-181
1.24954e-135
1.49967e-56
5.82843e-24
-2.32584e-150
2.59934e-69
-8.80776e-104
151.331
-6.94148e-28
-8.53748e-93
-1.69639e-188
2.78099e-22
3.40249e-39
1.76755e-20
-1.96787e-44
2.44935e-39
-2.01851e-143
-2.7306e-90
2.3383e-15
-6.84999e-203
3.80573e-39
7.27341e-28
-3.02332e-49
-6.37184e-131
2.54134e-34
-1.74812e-175
4.65208e-54
2.19258e-55
-2.2239e-91
1.45906e-07
3.13296e-51
1.81431e-58
2.30371e-56
2.57808e-37
-7.86209e-48
-1.05417e-153
-2.24085e-186
1.25069e-70
2.93468e-27
4.03933e-36
1.763e-57
4.40621e-56
3.79667e-16
-1.11444e-52
-1.53212e-164
1.70529e-76
7.95162e-23
5.931e-93
-1.5303e-45
-2.98967e-62
9.48628e-97
-3.2915e-22