/*--------------------------------*- C++ -*----------------------------------*\
  =========                 |
  \\      /  F ield         | OpenFOAM: The Open Source CFD Toolbox
   \\    /   O peration     | Website:  https://openfoam.org
    \\  /    A nd           | Version:  7
     \\/     M anipulation  |
\*---------------------------------------------------------------------------*/
FoamFile
{
    version     2.0;
    format      ascii;
    class       surfaceScalarField;
    location    "51";
    object      phi;
}
// * * * * * * * * * * * * * * * * * * * * * * * * * * * * * * * * * * * * * //

dimensions      [0 3 -1 0 0 0 0];

internalField   nonuniform List<scalar> 
82640
(
-6.94963e-05
-1.36825e-05
8.31788e-05
-0.000155691
-4.10977e-05
0.000127292
-0.000252794
-6.31533e-05
0.000160256
-0.000347663
-9.21619e-05
0.000187031
-0.000446285
-0.000101418
0.000200039
-0.000545481
-8.26973e-05
0.000181893
-0.000646657
-1.79328e-05
0.000119109
-0.000748734
0.000102006
7.16422e-08
-0.000851192
0.000280629
-0.000178171
-0.00095286
0.000509411
-0.000407743
-0.00105239
0.000766173
-0.000666647
-0.00114787
0.00101351
-0.000918023
-0.00123771
0.00120314
-0.0011133
-0.00131792
0.00127711
-0.00119689
-0.00138673
0.00118726
-0.00111845
-0.00143695
0.000889195
-0.000838981
-0.00146823
0.000390609
-0.000359324
-0.00147676
-0.000289069
0.0002976
-0.00146224
-0.00106252
0.001048
-0.00143569
-0.00179929
0.00177274
-0.00137269
-0.00244201
0.00237901
-0.00130361
-0.00274318
0.0026741
-0.00115413
-0.00277172
0.00262224
-0.000967904
-0.00234147
0.00215524
-0.00158649
0.00128703
-0.000668452
-6.95422e-05
5.58597e-05
-0.000155661
4.5021e-05
-0.00025255
3.37353e-05
-0.000346928
2.2162e-06
-0.000444601
-3.74464e-06
-0.000542158
1.48596e-05
-0.00064073
8.06398e-05
-0.000738951
0.000200226
-0.00083598
0.000377659
-0.000930287
0.000603717
-0.00102007
0.000855956
-0.00110284
0.00109627
-0.0011763
0.00127661
-0.00123564
0.00133644
-0.00127853
0.00123015
-0.00129749
0.000908161
-0.00129323
0.000386342
-0.00126365
-0.000318644
-0.00121346
-0.00111271
-0.00115691
-0.00185585
-0.00108127
-0.00251765
-0.00101682
-0.00280762
-0.000897407
-0.00289113
-0.00076084
-0.00247804
-0.00183154
-0.000515789
-6.93773e-05
0.000125237
-0.000155006
0.00013065
-0.000251066
0.000129795
-0.000344051
9.52016e-05
-0.000439507
9.17109e-05
-0.0005337
0.000109053
-0.000627372
0.000174311
-0.00071874
0.000291595
-0.000806487
0.000465405
-0.000888543
0.000685773
-0.000962447
0.000929861
-0.0010249
0.00115873
-0.00107271
0.00132441
-0.00109999
0.00136372
-0.00110367
0.00123383
-0.00107575
0.000880239
-0.00101767
0.000328258
-0.000927774
-0.000408539
-0.000816174
-0.00122431
-0.000696363
-0.00197566
-0.000569448
-0.00264456
-0.000461298
-0.00291577
-0.000319234
-0.0030332
-0.000172553
-0.00262472
-0.00207487
7.07841e-05
-6.90045e-05
0.000194242
-0.000153733
0.000215379
-0.000248354
0.000224416
-0.000339054
0.000185902
-0.000431041
0.000183698
-0.000520179
0.000198191
-0.000606709
0.000260841
-0.00068832
0.000373206
-0.000763071
0.000540156
-0.000828201
0.000750903
-0.000880416
0.000982075
-0.000915456
0.00119377
-0.000929063
0.00133802
-0.000914258
0.00134892
-0.000867101
0.00118668
-0.000779048
0.000792187
-0.000652135
0.000201345
-0.00048405
-0.000576624
-0.000291248
-0.00141711
-7.85004e-05
-0.00218841
0.000123605
-0.00284667
0.000321324
-0.00311349
0.000531073
-0.00324295
0.000741011
-0.00283466
-0.00238329
0.00104943
-6.84281e-05
0.00026267
-0.00015185
0.000298801
-0.000244428
0.000316994
-0.000331962
0.000273436
-0.000419251
0.000270987
-0.000501681
0.000280621
-0.000578895
0.000338055
-0.000647959
0.00044227
-0.00070618
0.000598377
-0.000749987
0.00079471
-0.000775122
0.00100721
-0.000776287
0.00119493
-0.000748086
0.00130982
-0.000682542
0.00128337
-0.000574805
0.00107894
-0.000415916
0.000633299
-0.000208997
-5.57399e-06
5.20212e-05
-0.000837643
0.000336855
-0.00170194
0.000652625
-0.00250418
0.000962774
-0.00315682
0.0012634
-0.00341412
0.00158245
-0.00356199
0.00189489
-0.00314709
-0.00279544
0.00230703
-6.76547e-05
0.000330324
-0.00014937
0.000380517
-0.00023931
0.000406934
-0.00032281
0.000356935
-0.000404192
0.000352369
-0.000478302
0.000354731
-0.000544103
0.000403856
-0.000597953
0.00049612
-0.000636317
0.000636741
-0.000654726
0.000813119
-0.000647879
0.00100036
-0.000609435
0.00115649
-0.000532831
0.00123321
-0.000409344
0.00115989
-0.000233254
0.000902848
3.06927e-06
0.000396975
0.000299088
-0.000301592
0.000656763
-0.00119532
0.00104431
-0.00208949
0.00147024
-0.0029301
0.00189095
-0.00357753
0.00231108
-0.00383425
0.00274996
-0.00400087
0.00318695
-0.00358408
-0.00333237
0.00372389
-6.66923e-05
0.000397017
-0.00014631
0.000460134
-0.000233024
0.000493649
-0.000311634
0.000435545
-0.000385924
0.000426658
-0.000450144
0.000418951
-0.000502506
0.000456218
-0.000538608
0.000532223
-0.000554002
0.000652135
-0.00054328
0.000802397
-0.000500061
0.000957145
-0.000417025
0.00107345
-0.000286443
0.00110263
-9.93263e-05
0.00097277
0.00015127
0.000652252
0.000473571
7.46742e-05
0.000860378
-0.0006884
0.00131821
-0.00165315
0.00180808
-0.00257937
0.00233978
-0.0034618
0.00286642
-0.00410416
0.003401
-0.00436883
0.00395244
-0.00455231
0.00451501
-0.00414666
-0.00398919
0.00517183
-6.55507e-05
0.000462567
-0.000142687
0.00053727
-0.000225599
0.000576561
-0.000298477
0.000508423
-0.000364508
0.000492689
-0.000417302
0.000471745
-0.000454268
0.000493183
-0.000470207
0.000548162
-0.000459724
0.000641652
-0.000416466
0.000759139
-0.000332975
0.000873654
-0.000201088
0.000941564
-1.21157e-05
0.000913659
0.000243691
0.000716963
0.000572806
0.000323138
0.000982755
-0.000335275
0.00146369
-0.00116934
0.00201809
-0.00220755
0.00260617
-0.00316744
0.00322992
-0.00408556
0.00384794
-0.00472218
0.0044786
-0.00499949
0.00511823
-0.00519194
0.00578822
-0.00481664
-0.00473803
0.00653706
-6.42415e-05
0.000526809
-0.000138524
0.000611552
-0.000217064
0.000655102
-0.00028338
0.000574739
-0.000339999
0.000549309
-0.000379858
0.000511604
-0.000399517
0.000512842
-0.000392975
0.00054162
-0.000353879
0.000602557
-0.000274968
0.000680227
-0.000147745
0.000746431
3.66246e-05
0.000757194
0.000288141
0.000662142
0.000615666
0.000389438
0.00102595
-8.71501e-05
0.00152435
-0.000833669
0.00209809
-0.00174308
0.0027406
-0.00285006
0.00341588
-0.00384272
0.00411166
-0.00478134
0.00479799
-0.00540852
0.00549643
-0.00569792
0.00619071
-0.00588623
0.00693464
-0.00556057
-0.00553713
0.00773374
-6.27772e-05
0.000589586
-0.000133844
0.000682619
-0.000207454
0.000728712
-0.000266384
0.000633669
-0.000312444
0.000595369
-0.000337865
0.000537025
-0.000338333
0.00051331
-0.000307045
0.000510332
-0.00023672
0.000532231
-0.000119246
0.000562753
5.48281e-05
0.000572357
0.00029489
0.000517132
0.000611624
0.000345409
0.00101348
-1.24169e-05
0.00150595
-0.000579627
0.00209076
-0.00141848
0.00275172
-0.00240404
0.00346949
-0.00356783
0.00421326
-0.00458649
0.00495656
-0.00552464
0.00568254
-0.0061345
0.00641451
-0.0064299
0.00712897
-0.00660068
0.0079055
-0.0063371
-0.0063429
0.00871127
-6.11721e-05
0.000650758
-0.000128673
0.00075012
-0.000196801
0.00079684
-0.000247524
0.000684392
-0.000281871
0.000629716
-0.000291341
0.000546496
-0.000270719
0.000492687
-0.000212427
0.00045204
-0.000108298
0.000428102
5.05292e-05
0.000403927
0.000274327
0.000348559
0.000572837
0.000218622
0.000957003
-3.87567e-05
0.00143442
-0.000489836
0.00200805
-0.00115325
0.00267389
-0.00208432
0.00341098
-0.00314113
0.00418655
-0.00434339
0.00497344
-0.00537338
0.00573686
-0.00628806
0.00647178
-0.00686942
0.00720267
-0.00716078
0.00790744
-0.00730545
0.00867663
-0.00710629
-0.00712055
0.00945428
-5.94412e-05
0.000710199
-0.00012304
0.000813718
-0.000185138
0.000858938
-0.00022683
0.000726083
-0.000248288
0.000651174
-0.000240254
0.000538461
-0.000196589
0.000449022
-0.000108974
0.000364425
3.15701e-05
0.000287558
0.000234518
0.000200979
0.000510745
7.2333e-05
0.000870132
-0.000140765
0.00132309
-0.000491715
0.00187566
-0.0010424
0.00252659
-0.00180419
0.00326383
-0.00282156
0.00406001
-0.00393732
0.00487102
-0.0051544
0.00567179
-0.00617415
0.00642755
-0.00704382
0.00714273
-0.0075846
0.00784364
-0.00786169
0.00851654
-0.00797836
0.00924814
-0.00783789
-0.00784974
0.00997733
-5.7601e-05
0.0007678
-0.000116971
0.000873089
-0.000172496
0.000914463
-0.000204319
0.000757907
-0.000211676
0.000658531
-0.000184513
0.000511298
-0.000115752
0.000380262
3.62421e-06
0.000245049
0.00018328
0.000107902
0.000433171
-4.89118e-05
0.000764363
-0.00025886
0.00118654
-0.00056294
0.00170849
-0.00101367
0.00233336
-0.00166727
0.0030539
-0.00252473
0.00384776
-0.00361541
0.00468049
-0.00477004
0.00550086
-0.00597477
0.00628631
-0.00695961
0.00700965
-0.00776715
0.00768269
-0.00825765
0.00833486
-0.00851386
0.00896288
-0.00860638
0.00964091
-0.00851592
-0.00852457
0.0103157
-5.56682e-05
0.000823468
-0.000110497
0.000927917
-0.000158902
0.000962867
-0.000179998
0.000779003
-0.000171978
0.000650511
-0.000123959
0.000463279
-2.79036e-05
0.000284207
0.000125823
9.13222e-05
0.000347436
-0.000113711
0.000647074
-0.00034855
0.00103545
-0.000647237
0.00152139
-0.00104887
0.0021107
-0.00160299
0.00280163
-0.0023582
0.00357918
-0.00330228
0.0044096
-0.00444583
0.00525262
-0.00561306
0.00605555
-0.0067777
0.00680079
-0.00770485
0.00747349
-0.00843986
0.00809133
-0.00887548
0.00868735
-0.00910988
0.00926668
-0.00918571
0.00988891
-0.00913816
-0.00914942
0.0105138
-5.36604e-05
0.000877129
-0.000103646
0.000977903
-0.000144377
0.0010036
-0.000153852
0.000788477
-0.0001291
0.00062576
-5.83611e-05
0.00039254
6.73529e-05
0.000158493
0.000258213
-9.95381e-05
0.000524685
-0.000380183
0.000876693
-0.000700557
0.00132379
-0.00109433
0.00187282
-0.0015979
0.00252503
-0.0022552
0.00327146
-0.00310463
0.00408821
-0.00411903
0.00493116
-0.00528878
0.00575766
-0.00643956
0.00651969
-0.00753973
0.0072076
-0.00839276
0.00782027
-0.00905252
0.00837979
-0.009435
0.00892177
-0.00965187
0.00945608
-0.00972001
0.0100296
-0.00971167
-0.00973353
0.0106137
-5.15955e-05
0.000928724
-9.64462e-05
0.00102275
-0.000128938
0.00103609
-0.000125847
0.000785385
-8.29002e-05
0.000582814
1.25851e-05
0.000297054
0.000170517
5.60672e-07
0.00040141
-0.000330431
0.00071556
-0.000694334
0.001122
-0.001107
0.00162803
-0.00160036
0.00223697
-0.00220684
0.00294376
-0.00296199
0.00373045
-0.00389132
0.00456438
-0.00495296
0.0053947
-0.0061191
0.00618123
-0.0072261
0.00688588
-0.00824437
0.00750878
-0.00901566
0.00806086
-0.0096046
0.00856696
-0.0099411
0.00906307
-0.010148
0.00956045
-0.0102174
0.0100961
-0.0102473
-0.0102868
0.0106493
-4.94913e-05
0.000978216
-8.8924e-05
0.00106219
-0.000112589
0.00105976
-9.59216e-05
0.000768718
-3.31861e-05
0.000520078
8.92554e-05
0.000174613
0.000282123
-0.000192307
0.000555948
-0.000604256
0.000920199
-0.00105858
0.00138203
-0.00156883
0.0019451
-0.00216344
0.00260739
-0.00286913
0.00335609
-0.00371069
0.00416377
-0.00469901
0.00499118
-0.00578036
0.00578625
-0.00691417
0.0065162
-0.00795606
0.00715573
-0.0088839
0.00771471
-0.00957465
0.00821244
-0.0101023
0.00867466
-0.0104033
0.00913546
-0.0106088
0.00960522
-0.0106872
0.0101135
-0.0107556
-0.0108174
0.0106441
-4.73655e-05
0.00102558
-8.11035e-05
0.00109592
-9.53225e-05
0.00107397
-6.39851e-05
0.000737381
2.02858e-05
0.000435807
0.000172075
2.28239e-05
0.000402682
-0.000422914
0.000722116
-0.000923691
0.00113805
-0.00147452
0.00165443
-0.0020852
0.00226974
-0.00277875
0.00297496
-0.00357434
0.00374894
-0.00448468
0.00455633
-0.00550639
0.00535524
-0.00657927
0.00609836
-0.00765729
0.0067636
-0.0086213
0.00733856
-0.00945885
0.007841
-0.0100771
0.00829435
-0.0105557
0.0087236
-0.0108326
0.00915927
-0.0110445
0.00960978
-0.0111377
0.010099
-0.0112448
-0.0113316
0.0106132
-4.52351e-05
0.00107082
-7.30051e-05
0.00112369
-7.71183e-05
0.00107809
-2.99104e-05
0.000690173
7.7808e-05
0.000328089
0.000261498
-0.000160866
0.000532594
-0.000694009
0.00089975
-0.00129085
0.00136755
-0.00194232
0.00193516
-0.00265281
0.00259449
-0.00343809
0.00332859
-0.00430844
0.00410891
-0.005265
0.00489558
-0.00629307
0.00564897
-0.00733266
0.00633111
-0.00833942
0.00693146
-0.00922165
0.00744843
-0.00997583
0.00790487
-0.0105335
0.00832463
-0.0109754
0.00873092
-0.0112388
0.00914984
-0.0114634
0.00958753
-0.0115753
0.0100637
-0.0117209
-0.0118332
0.0105653
-4.31161e-05
0.00111393
-6.46447e-05
0.00114522
-5.79359e-05
0.00107138
6.46225e-06
0.000625775
0.000139731
0.00019482
0.000357962
-0.000379097
0.000672017
-0.00100806
0.00108801
-0.00170684
0.00160587
-0.00246018
0.00221845
-0.00326539
0.00291021
-0.00412984
0.0036567
-0.00505493
0.00442451
-0.00603281
0.0051738
-0.00704235
0.00587144
-0.0080303
0.00649098
-0.00895897
0.00703213
-0.00976279
0.00750087
-0.0104446
0.00792236
-0.010955
0.00831823
-0.0113713
0.00870959
-0.0116302
0.00911786
-0.0118716
0.00954718
-0.0120047
0.010014
-0.0121877
-0.0123251
0.0105058
-4.10233e-05
0.00115496
-5.60319e-05
0.00116023
-3.77135e-05
0.00105306
4.53771e-05
0.000542684
0.000206434
3.37631e-05
0.000461823
-0.000634486
0.000820729
-0.00136697
0.00128519
-0.0021713
0.00184883
-0.00302382
0.00249711
-0.00391367
0.00320718
-0.00483992
0.00394908
-0.00579683
0.00468819
-0.00677192
0.00538906
-0.00774322
0.0060276
-0.00866885
0.00658862
-0.00951999
0.00707944
-0.0102536
0.00751037
-0.0108755
0.0079067
-0.0113513
0.00828641
-0.011751
0.00866874
-0.0120125
0.0090704
-0.0122733
0.00949417
-0.0124284
0.00995388
-0.0126474
-0.0128089
0.0104376
-3.89695e-05
0.00119393
-4.71685e-05
0.00116843
-1.63621e-05
0.00102225
8.70597e-05
0.000439262
0.000278306
-0.000157483
0.000573265
-0.000929446
0.000977953
-0.00177166
0.00148857
-0.00268192
0.00209104
-0.00362628
0.00276326
-0.00458589
0.00347652
-0.00555319
0.00419849
-0.00651879
0.00489719
-0.00747062
0.00554463
-0.00839066
0.00612622
-0.00925044
0.00663613
-0.0100299
0.00708637
-0.0107039
0.00748901
-0.0112781
0.00786799
-0.0117303
0.00823721
-0.0121202
0.00861445
-0.0123898
0.00901192
-0.0126708
0.00943178
-0.0128483
0.00988576
-0.0131014
-0.0132855
0.0103624
-3.69653e-05
0.00123089
-3.80468e-05
0.00116951
6.23944e-06
0.000977967
0.000131824
0.000313678
0.000355713
-0.000381373
0.000692205
-0.00126594
0.00114224
-0.00222169
0.00169443
-0.00323411
0.00232634
-0.0042582
0.0030093
-0.00526884
0.0037114
-0.00625528
0.00440148
-0.00720888
0.00505325
-0.00812239
0.00564739
-0.0089848
0.0061777
-0.00978075
0.00664512
-0.0104973
0.00706389
-0.0111226
0.00744606
-0.0116603
0.00781344
-0.0120977
0.00817605
-0.0124829
0.00855065
-0.0127644
0.00894518
-0.0130653
0.00936201
-0.0132651
0.00981096
-0.0135504
-0.0137557
0.0102811
-3.50181e-05
0.00126591
-2.86469e-05
0.00116314
3.02174e-05
0.000919103
0.000180009
0.000163886
0.000438939
-0.000640303
0.000818151
-0.00164515
0.00131135
-0.00271489
0.00189827
-0.00382103
0.00254849
-0.00490842
0.00322899
-0.00594934
0.00390789
-0.00693419
0.00455836
-0.00785934
0.00516138
-0.00872541
0.00570593
-0.00952936
0.00619225
-0.0102671
0.00662559
-0.0109306
0.00702056
-0.0115176
0.00738826
-0.012028
0.00774799
-0.0124574
0.00810648
-0.0128413
0.00847977
-0.0131377
0.00887185
-0.0134574
0.0092861
-0.0136794
0.00973035
-0.0139946
-0.0142197
0.0101944
-3.3132e-05
0.00129904
-1.89346e-05
0.00114894
5.57881e-05
0.00084438
0.000231978
-1.23038e-05
0.00052811
-0.000936434
0.000950111
-0.00206715
0.00148234
-0.00324712
0.00209515
-0.00443384
0.00275187
-0.00556514
0.0034181
-0.00661556
0.00406511
-0.00758119
0.00467237
-0.00846661
0.00522834
-0.00928139
0.00572898
-0.01003
0.00617883
-0.0107169
0.00658548
-0.0113373
0.00696272
-0.0118948
0.00732027
-0.0123856
0.00767491
-0.0128121
0.00803075
-0.0131972
0.00840331
-0.0135102
0.00879297
-0.013847
0.00920484
-0.0140912
0.00964446
-0.0144342
-0.014678
0.0101027
-3.13067e-05
0.00133035
-8.86e-06
0.0011265
8.31705e-05
0.00075235
0.000288082
-0.000217216
0.000623105
-0.00127146
0.00108651
-0.00253056
0.00165166
-0.00381226
0.0022803
-0.00506248
0.00293218
-0.00621702
0.00357474
-0.00725812
0.00418468
-0.00819113
0.00474855
-0.00903047
0.00526142
-0.00979426
0.00572449
-0.0104931
0.00614478
-0.0111372
0.00653078
-0.0117233
0.00689485
-0.0122589
0.00724522
-0.0127359
0.00759629
-0.0131631
0.00795028
-0.0135512
0.00832214
-0.0138821
0.00870922
-0.0142341
0.00911877
-0.0145008
0.00955366
-0.0148691
-0.0151305
0.0100062
-2.95368e-05
0.00135988
1.61102e-06
0.00109535
0.000112629
0.000641332
0.000348622
-0.000453208
0.000723479
-0.00164631
0.00122523
-0.00303231
0.00181552
-0.00440256
0.00244955
-0.00569651
0.00308678
-0.00685425
0.00369914
-0.00787049
0.00427001
-0.008762
0.00479264
-0.0095531
0.00526744
-0.0102691
0.00569913
-0.0109248
0.00609578
-0.0115339
0.00646587
-0.0120934
0.00682
-0.012613
0.00716514
-0.0130811
0.00751345
-0.0135114
0.00786591
-0.0139036
0.00823683
-0.014253
0.00862107
-0.0146184
0.00902824
-0.014908
0.00945817
-0.015299
-0.0155774
0.00990507
-2.78105e-05
0.00138769
1.27277e-05
0.00105481
0.00014446
0.000509599
0.000413784
-0.000722532
0.00082836
-0.00206089
0.00136367
-0.00356761
0.00197025
-0.00500915
0.00259982
-0.00632608
0.00321472
-0.00746914
0.00379318
-0.00844896
0.0043254
-0.00929422
0.00481042
-0.0100381
0.00525242
-0.0107111
0.00565824
-0.0113306
0.00603605
-0.0119117
0.00639377
-0.0124511
0.00674023
-0.0129595
0.00708132
-0.0134222
0.00742721
-0.0138573
0.00777817
-0.0142546
0.00814772
-0.0146226
0.00852885
-0.0149995
0.00893351
-0.0153126
0.00935817
-0.0157237
-0.0160188
0.00979957
-2.61096e-05
0.0014138
2.44701e-05
0.00100423
0.000178978
0.000355091
0.000483579
-0.00102713
0.00093645
-0.00251376
0.00149897
-0.00413014
0.00211266
-0.00562283
0.00272927
-0.00694269
0.00331654
-0.00805641
0.00385978
-0.0089922
0.00435544
-0.00978987
0.00480706
-0.0104897
0.0052213
-0.0111253
0.00560595
-0.0117152
0.00596866
-0.0122744
0.00631659
-0.012799
0.00665685
-0.0132998
0.00699455
-0.0137599
0.00733806
-0.0142008
0.00768738
-0.0146039
0.00805504
-0.0149902
0.00843282
-0.0153773
0.00883475
-0.0157146
0.00925378
-0.0161427
-0.0164548
0.00968981
-2.44075e-05
0.00143821
3.70501e-05
0.000942774
0.000216492
0.000175649
0.00055777
-0.00136841
0.00104604
-0.00300203
0.00162831
-0.00471241
0.00224033
-0.00623485
0.00283726
-0.00753962
0.00339385
-0.00861301
0.00390237
-0.00950072
0.00436449
-0.010252
0.00478702
-0.0109123
0.00517797
-0.0115162
0.00554529
-0.0120825
0.00589576
-0.0126249
0.00623571
-0.013139
0.0065707
-0.0136347
0.00690534
-0.0140945
0.0072463
-0.0145418
0.00759374
-0.0149514
0.00795897
-0.0153554
0.00833319
-0.0157515
0.00873208
-0.0161134
0.00914514
-0.0165558
-0.0168856
0.00957595
-2.2668e-05
0.00146088
5.06719e-05
0.000869434
0.000257272
-3.09508e-05
0.000635826
-0.00174696
0.00115514
-0.00352135
0.00174912
-0.00530639
0.00235172
-0.00683745
0.0029242
-0.00811211
0.00344893
-0.00913774
0.00392444
-0.00997623
0.0043565
-0.0106841
0.00475399
-0.0113098
0.00512545
-0.0118877
0.00547847
-0.0124356
0.00581885
-0.0129652
0.00615204
-0.0134722
0.00648232
-0.013965
0.00681396
-0.0144262
0.00715212
-0.0148799
0.00749739
-0.0152966
0.00785964
-0.0157177
0.00823012
-0.016122
0.00862559
-0.0165089
0.00903236
-0.0169626
-0.0173114
0.00945814
-2.08435e-05
0.00148172
6.55743e-05
0.000783016
0.000301505
-0.000266881
0.000716886
-0.00216235
0.00126163
-0.00406609
0.00185933
-0.00590409
0.00244618
-0.0074243
0.00299127
-0.00865719
0.00348438
-0.00963085
0.00392933
-0.0104212
0.00433485
-0.0110896
0.00471093
-0.0116859
0.00506604
-0.0122428
0.00540712
-0.0127766
0.00573893
-0.0132971
0.00606616
-0.0137994
0.00639203
-0.0142909
0.00672058
-0.0147547
0.00705563
-0.015215
0.00739841
-0.0156394
0.00775718
-0.0160765
0.00812373
-0.0164885
0.00851536
-0.0169006
0.00891556
-0.0173628
-0.0177323
0.00933651
-1.88734e-05
0.0015006
8.20254e-05
0.000682117
0.000349249
-0.000534105
0.000799798
-0.00261289
0.00136342
-0.00462971
0.00195748
-0.00649814
0.00252384
-0.00799067
0.00304011
-0.00917347
0.00350284
-0.0100936
0.00392003
-0.0108384
0.00430233
-0.0114719
0.00466016
-0.0120437
0.00500146
-0.0125841
0.00533234
-0.0131075
0.00565668
-0.0136214
0.00597843
-0.0141212
0.00630001
-0.0146125
0.00662529
-0.01508
0.00695692
-0.0155466
0.0072969
-0.0159794
0.00765167
-0.0164312
0.00801415
-0.016851
0.00840146
-0.0172879
0.00879485
-0.0177561
-0.0181486
0.00921114
-1.66817e-05
0.00151728
0.000100309
0.000565127
0.000400394
-0.00083419
0.000883176
-0.00309568
0.00145869
-0.00520523
0.00204276
-0.00708221
0.00258538
-0.00853328
0.00307262
-0.00966071
0.00350683
-0.0105278
0.00389912
-0.0112307
0.00426124
-0.011834
0.00460345
-0.0123859
0.00493294
-0.0129136
0.00525494
-0.0134295
0.00557253
-0.013939
0.00588908
-0.0144377
0.00620637
-0.0149297
0.00652815
-0.0154018
0.00685606
-0.0158745
0.0071929
-0.0163162
0.00754321
-0.0167815
0.00790149
-0.0172093
0.00828397
-0.0176703
0.00867031
-0.0181425
-0.0185605
0.00908212
-1.41743e-05
0.00153145
0.000120701
0.000430252
0.000454627
-0.00116812
0.000965507
-0.00360656
0.00154596
-0.00578568
0.00211492
-0.00765117
0.00263187
-0.00905023
0.00309076
-0.0101196
0.00349864
-0.0109357
0.0038688
-0.0116008
0.00421339
-0.0121786
0.00454212
-0.0127146
0.00486135
-0.0132328
0.00517542
-0.0137436
0.00548677
-0.0142503
0.00579823
-0.0147492
0.00611118
-0.0152427
0.00642918
-0.0157198
0.00675311
-0.0161985
0.00708647
-0.0166496
0.00743187
-0.017127
0.00778585
-0.0175633
0.00816294
-0.0180474
0.00854201
-0.0185215
-0.0189679
0.00894947
-1.12363e-05
0.00154269
0.00014344
0.000275576
0.000511431
-0.00153611
0.00104528
-0.00414041
0.00162419
-0.00636458
0.00217417
-0.00820116
0.00266461
-0.00954067
0.00309641
-0.0105514
0.00348028
-0.0113195
0.00383089
-0.0119514
0.00416021
-0.0125079
0.00447721
-0.0130316
0.00478733
-0.0135429
0.00509414
-0.0140504
0.00539957
-0.0145558
0.00570597
-0.0150556
0.00601448
-0.0155512
0.0063284
-0.0160337
0.00664811
-0.0165182
0.00697764
-0.0169791
0.00731775
-0.0174671
0.00766734
-0.0179128
0.00803841
-0.0184185
0.00840999
-0.0188931
-0.0193712
0.00881322
-7.7304e-06
0.00155042
0.000168696
9.91494e-05
0.000570104
-0.00193752
0.00112111
-0.00469142
0.00169277
-0.00693624
0.0022211
-0.00872949
0.00268502
-0.0100046
0.00309135
-0.0109577
0.00345352
-0.0116817
0.00378685
-0.0122848
0.00410281
-0.0128239
0.00440946
-0.0133383
0.00471134
-0.0138448
0.00501135
-0.0143504
0.00531103
-0.0148554
0.00561235
-0.0153569
0.00591627
-0.0158551
0.00622584
-0.0163433
0.00654113
-0.0168335
0.00686645
-0.0173045
0.00720098
-0.0178016
0.00754606
-0.0182579
0.00791032
-0.0187828
0.00827436
-0.0192572
-0.0197701
0.00867333
-3.48833e-06
0.00155391
0.000196536
-0.000100875
0.000629771
-0.00237075
0.0011918
-0.00525345
0.00175149
-0.00749593
0.00225649
-0.0092345
0.00269449
-0.0104426
0.00307716
-0.0113404
0.00341981
-0.0120244
0.00373788
-0.0126028
0.00404205
-0.013128
0.0043394
-0.0136356
0.00463369
-0.0141391
0.00492722
-0.0146439
0.00522122
-0.0151494
0.00551738
-0.0156531
0.00581657
-0.0161543
0.00612153
-0.0166482
0.0064322
-0.0171441
0.00675292
-0.0176252
0.00708172
-0.0181304
0.00742216
-0.0185984
0.00777856
-0.0191392
0.00813529
-0.0196139
-0.0201643
0.00852948
1.67205e-06
0.00155224
0.000226913
-0.000326117
0.000689455
-0.00283329
0.00125643
-0.00582042
0.00180044
-0.00803993
0.00228128
-0.00971534
0.00269435
-0.0108557
0.00305526
-0.0117013
0.0033804
-0.0123495
0.00368493
-0.0129074
0.00397857
-0.0134217
0.00426743
-0.0139245
0.00455458
-0.0144263
0.00484183
-0.0149312
0.00513019
-0.0154378
0.00542109
-0.015944
0.00571538
-0.0164486
0.00601548
-0.0169483
0.00632135
-0.01745
0.00663712
-0.0179409
0.00696014
-0.0184534
0.00729574
-0.018934
0.00764319
-0.0194866
0.00799266
-0.0199634
-0.0205529
0.00838129
7.80491e-06
0.00154443
0.000259661
-0.000577973
0.000748125
-0.00332176
0.00131437
-0.00638666
0.00183994
-0.00856551
0.00229643
-0.0101718
0.00268587
-0.0112451
0.00302685
-0.0120423
0.0033363
-0.012659
0.00362875
-0.0131998
0.00391285
-0.0137058
0.00419385
-0.0142055
0.00447417
-0.0147066
0.00475526
-0.0152123
0.00503795
-0.0157205
0.00532349
-0.0162295
0.00561271
-0.0167378
0.00590772
-0.0172433
0.00620861
-0.0177509
0.00651909
-0.0182514
0.00683639
-0.0187707
0.00716683
-0.0192644
0.00750486
-0.0198247
0.00784524
-0.0203038
-0.020944
0.00823632
1.52275e-05
0.0015292
0.000294505
-0.00085725
0.000804757
-0.00383201
0.00136525
-0.00694715
0.00187048
-0.00907074
0.00230289
-0.0106042
0.00267011
-0.0116123
0.00299292
-0.0123651
0.00328827
-0.0129543
0.00356982
-0.0134813
0.00384518
-0.0139811
0.00411875
-0.0144791
0.00439245
-0.0149803
0.00466742
-0.0154872
0.00494438
-0.0159975
0.00522443
-0.0165096
0.00550839
-0.0170218
0.00579812
-0.017533
0.0060938
-0.0180466
0.0063987
-0.0185563
0.00671031
-0.0190823
0.007035
-0.0195891
0.00736482
-0.0201545
0.00770541
-0.0206443
-0.0212961
0.00805746
2.40301e-05
0.00150517
0.0003311
-0.00116432
0.000858455
-0.00435936
0.00140899
-0.00749769
0.00189269
-0.00955445
0.00230169
-0.0110132
0.0026482
-0.0119588
0.00295449
-0.0126714
0.00323712
-0.0132369
0.00350878
-0.013753
0.00377601
-0.0142483
0.0040425
-0.0147455
0.00430972
-0.0152475
0.0045786
-0.0157561
0.00484979
-0.0162687
0.00512424
-0.016784
0.00540278
-0.0173003
0.00568704
-0.0178173
0.00597734
-0.0183369
0.00627645
-0.0188554
0.00658234
-0.0193882
0.00690068
-0.0199074
0.00722307
-0.0204769
0.00756237
-0.0209836
-0.0216294
0.00789569
3.4288e-05
0.00147089
0.000369024
-0.00149906
0.000908434
-0.00489877
0.00144566
-0.00803492
0.00190722
-0.010016
0.00229369
-0.0113997
0.00262096
-0.0122861
0.00291222
-0.0129626
0.00318333
-0.0135081
0.0034459
-0.0140156
0.00370546
-0.0145079
0.0039651
-0.0150052
0.00422591
-0.0155083
0.0044887
-0.0160189
0.00475402
-0.016534
0.00502276
-0.0170527
0.00529573
-0.0175733
0.00557435
-0.0180959
0.00585905
-0.0186216
0.00615221
-0.0191486
0.00645222
-0.0196882
0.00676387
-0.0202191
0.0070808
-0.0207938
0.00741205
-0.0213149
-0.0219568
0.00773945
4.60021e-05
0.00142488
0.00040781
-0.00186086
0.000954107
-0.00544507
0.00147548
-0.00855629
0.0019147
-0.0104552
0.00227969
-0.0117647
0.00258918
-0.0125956
0.00286675
-0.0132402
0.00312733
-0.0137686
0.00338144
-0.0142697
0.00363369
-0.0147602
0.00388662
-0.0152581
0.00414108
-0.0157628
0.00439774
-0.0162756
0.00465711
-0.0167934
0.00492
-0.0173156
0.00518724
-0.0178405
0.00546006
-0.0183687
0.00573898
-0.0189005
0.00602604
-0.0194356
0.00631996
-0.0199822
0.00662508
-0.0205242
0.00693534
-0.0211041
0.00726052
-0.0216401
-0.0222824
0.00758617
5.90866e-05
0.0013658
0.000446942
-0.00224872
0.000995081
-0.00599321
0.00149877
-0.00905999
0.00191582
-0.0108723
0.00226045
-0.0121093
0.00255352
-0.0128886
0.00281858
-0.0135053
0.00306947
-0.0140195
0.00331562
-0.0145158
0.0035608
-0.0150053
0.00380714
-0.0155045
0.00405524
-0.0160109
0.00430572
-0.016526
0.00455905
-0.0170467
0.00481599
-0.0175726
0.00507735
-0.0181019
0.00534421
-0.0186356
0.00561717
-0.0191735
0.00589796
-0.0197164
0.00618567
-0.0202699
0.00648394
-0.0208224
0.00678817
-0.0214083
0.0071063
-0.0219582
-0.0226025
0.00742634
7.33731e-05
0.00129242
0.000485863
-0.00266121
0.00103115
-0.00653849
0.00151591
-0.00954474
0.00191119
-0.0112676
0.00223663
-0.0124348
0.00251455
-0.0131666
0.00276814
-0.0137589
0.00301002
-0.0142614
0.00324859
-0.0147544
0.00348689
-0.0152436
0.00372669
-0.0157442
0.00396843
-0.0162526
0.00421268
-0.0167703
0.00445987
-0.0172939
0.00471074
-0.0178234
0.00496607
-0.0183572
0.00522682
-0.0188963
0.00549365
-0.0194403
0.00576804
-0.0199908
0.00604933
-0.0205512
0.00634085
-0.021114
0.00663836
-0.0217058
0.00694952
-0.0222693
-0.0229177
0.00726476
8.8631e-05
0.00120379
0.000523982
-0.00309656
0.00106223
-0.00707674
0.00152729
-0.0100098
0.00190141
-0.0116417
0.00220883
-0.0127422
0.00247277
-0.0134305
0.00271577
-0.0140019
0.0029492
-0.0144948
0.00318048
-0.0149857
0.00341202
-0.0154752
0.00364531
-0.0159775
0.00388067
-0.016488
0.00411861
-0.0170082
0.00435958
-0.0175348
0.00460427
-0.0180681
0.00485342
-0.0186064
0.00510792
-0.0191508
0.00536846
-0.0197008
0.0056363
-0.0202587
0.00591106
-0.0208259
0.00619556
-0.0213985
0.00648644
-0.0219967
0.00679051
-0.0225734
-0.0232261
0.0070989
0.0001046
0.00109919
0.000560704
-0.00355266
0.00108839
-0.00760444
0.00153336
-0.0104548
0.00188704
-0.0119954
0.00217756
-0.0130327
0.00242858
-0.0136815
0.00266176
-0.0142351
0.00288718
-0.0147203
0.0031114
-0.0152099
0.00333626
-0.0157
0.00356304
-0.0162043
0.00379196
-0.0167169
0.00402355
-0.0172398
0.0042582
-0.0177695
0.00449659
-0.0183065
0.00473944
-0.0188492
0.00498756
-0.019399
0.00524165
-0.0199549
0.0055028
-0.0205198
0.00577084
-0.021094
0.0060483
-0.0216759
0.00633221
-0.0222806
0.00662879
-0.02287
-0.0235278
0.00693043
0.000121029
0.000978163
0.000595465
-0.0040271
0.00110976
-0.00811873
0.00153453
-0.0108795
0.00186858
-0.0123294
0.0021433
-0.0133074
0.00238235
-0.0139206
0.00260633
-0.014459
0.0028241
-0.014938
0.00304141
-0.0154272
0.00325964
-0.0159183
0.0034799
-0.0164246
0.00370235
-0.0169394
0.0039275
-0.017465
0.00415575
-0.0179977
0.00438773
-0.0185385
0.00462415
-0.0190856
0.00486575
-0.0196406
0.00511324
-0.0202024
0.00536756
-0.0207741
0.00562877
-0.0213552
0.00589898
-0.0219461
0.00617578
-0.0225574
0.0064648
-0.023159
-0.0238217
0.00675878
0.000137711
0.000840453
0.000627771
-0.00451716
0.00112653
-0.00861749
0.00153121
-0.0112842
0.0018465
-0.0126447
0.00210644
-0.0135674
0.00233435
-0.0141485
0.00254967
-0.0146744
0.00276007
-0.0151484
0.00297058
-0.0156377
0.0031822
-0.0161299
0.00339592
-0.0166383
0.00361185
-0.0171553
0.00383049
-0.0176836
0.00405224
-0.0182195
0.00427772
-0.018764
0.00450758
-0.0193155
0.00474253
-0.0198755
0.00498329
-0.0204432
0.00523065
-0.0210215
0.00548485
-0.0216094
0.00574771
-0.022209
0.00601719
-0.0228269
0.00629828
-0.0234401
-0.024108
0.00658453
0.000154506
0.000685947
0.000657234
-0.00501989
0.00113892
-0.00909918
0.00152379
-0.0116691
0.00182121
-0.0129421
0.00206733
-0.0138135
0.00228485
-0.014366
0.00249194
-0.0148815
0.00269518
-0.0153517
0.00289897
-0.0158415
0.00310397
-0.0163349
0.00331112
-0.0168454
0.00352047
-0.0173646
0.00373254
-0.0178957
0.0039477
-0.0184346
0.00416657
-0.0189829
0.00438976
-0.0195387
0.00461794
-0.0201037
0.00485182
-0.0206771
0.0050921
-0.0212618
0.00533915
-0.0218564