/*--------------------------------*- C++ -*----------------------------------*\
  =========                 |
  \\      /  F ield         | OpenFOAM: The Open Source CFD Toolbox
   \\    /   O peration     | Website:  https://openfoam.org
    \\  /    A nd           | Version:  7
     \\/     M anipulation  |
\*---------------------------------------------------------------------------*/
FoamFile
{
    version     2.0;
    format      ascii;
    class       volVectorField;
    location    "1";
    object      U;
}
// * * * * * * * * * * * * * * * * * * * * * * * * * * * * * * * * * * * * * //

dimensions      [0 1 -1 0 0 0 0];

internalField   nonuniform List<vector> 
20000
(
(-1.72208e-06 1.23775e-06 0)
(-2.16929e-06 -5.12428e-08 0)
(2.98651e-06 -2.04954e-06 0)
(1.3448e-05 -3.85391e-06 0)
(2.81607e-05 -5.22473e-06 0)
(4.61344e-05 -6.17965e-06 0)
(6.63932e-05 -6.79106e-06 0)
(8.81031e-05 -7.1368e-06 0)
(0.000110595 -7.27923e-06 0)
(0.00013334 -7.26947e-06 0)
(0.000155924 -7.14676e-06 0)
(0.000178032 -6.9427e-06 0)
(0.000199429 -6.68003e-06 0)
(0.000219949 -6.377e-06 0)
(0.00023948 -6.05206e-06 0)
(0.000257955 -5.71903e-06 0)
(0.000275346 -5.38633e-06 0)
(0.000291652 -5.06053e-06 0)
(0.000306894 -4.74731e-06 0)
(0.000321113 -4.45118e-06 0)
(0.000334363 -4.17511e-06 0)
(0.000346706 -3.92088e-06 0)
(0.000358208 -3.68996e-06 0)
(0.000368942 -3.48252e-06 0)
(0.000378978 -3.29745e-06 0)
(0.000388387 -3.13367e-06 0)
(0.000397235 -2.9899e-06 0)
(0.000405584 -2.86487e-06 0)
(0.000413492 -2.75737e-06 0)
(0.000421011 -2.66474e-06 0)
(0.000428184 -2.584e-06 0)
(0.000435048 -2.5132e-06 0)
(0.000441633 -2.4507e-06 0)
(0.00044796 -2.3941e-06 0)
(0.000454045 -2.34095e-06 0)
(0.000459892 -2.28919e-06 0)
(0.000465502 -2.23643e-06 0)
(0.000470866 -2.1802e-06 0)
(0.000475968 -2.11871e-06 0)
(0.000480785 -2.05048e-06 0)
(0.000485288 -1.97351e-06 0)
(0.000489441 -1.8854e-06 0)
(0.000493201 -1.78436e-06 0)
(0.000496519 -1.66953e-06 0)
(0.000499341 -1.53977e-06 0)
(0.000501607 -1.39313e-06 0)
(0.000503252 -1.22765e-06 0)
(0.000504206 -1.04202e-06 0)
(0.000504392 -8.35567e-07 0)
(0.000503731 -6.07308e-07 0)
(0.000502137 -3.56074e-07 0)
(0.000499523 -8.03933e-08 0)
(0.000495795 2.20739e-07 0)
(0.000490856 5.48017e-07 0)
(0.000484603 9.02146e-07 0)
(0.000476933 1.28403e-06 0)
(0.000467735 1.69478e-06 0)
(0.000456898 2.13539e-06 0)
(0.000444306 2.60651e-06 0)
(0.000429837 3.10873e-06 0)
(0.000413367 3.64291e-06 0)
(0.00039477 4.21011e-06 0)
(0.000373912 4.8113e-06 0)
(0.000350657 5.44754e-06 0)
(0.000324863 6.12004e-06 0)
(0.000296385 6.82994e-06 0)
(0.000265071 7.57842e-06 0)
(0.000230763 8.36698e-06 0)
(0.000193297 9.19751e-06 0)
(0.000152501 1.00721e-05 0)
(0.000108198 1.09929e-05 0)
(6.01983e-05 1.19624e-05 0)
(8.30564e-06 1.29832e-05 0)
(-4.76872e-05 1.40582e-05 0)
(-0.000107999 1.51906e-05 0)
(-0.000172859 1.63842e-05 0)
(-0.000242513 1.76431e-05 0)
(-0.000317216 1.89717e-05 0)
(-0.000397243 2.03745e-05 0)
(-0.000482881 2.18563e-05 0)
(-0.000574434 2.34224e-05 0)
(-0.000672224 2.50781e-05 0)
(-0.000776589 2.68288e-05 0)
(-0.000887886 2.86805e-05 0)
(-0.00100649 3.06391e-05 0)
(-0.00113279 3.27107e-05 0)
(-0.00126721 3.4901e-05 0)
(-0.00141015 3.72159e-05 0)
(-0.00156208 3.9661e-05 0)
(-0.00172344 4.22415e-05 0)
(-0.00189471 4.49623e-05 0)
(-0.00207637 4.78279e-05 0)
(-0.00226891 5.08422e-05 0)
(-0.00247283 5.40088e-05 0)
(-0.00268863 5.73302e-05 0)
(-0.00291681 6.08082e-05 0)
(-0.00315789 6.44436e-05 0)
(-0.00341234 6.82362e-05 0)
(-0.00368065 7.21847e-05 0)
(-0.0039633 7.62865e-05 0)
(-0.00426073 8.05379e-05 0)
(-0.00457337 8.49333e-05 0)
(-0.0049016 8.94662e-05 0)
(-0.00524579 9.41282e-05 0)
(-0.00560626 9.89093e-05 0)
(-0.00598326 0.000103798 0)
(-0.00637703 0.00010878 0)
(-0.00678771 0.00011384 0)
(-0.0072154 0.000118961 0)
(-0.0076601 0.000124123 0)
(-0.00812176 0.000129304 0)
(-0.00860022 0.000134481 0)
(-0.00909525 0.000139627 0)
(-0.0096065 0.000144715 0)
(-0.0101335 0.000149714 0)
(-0.0106758 0.000154592 0)
(-0.0112325 0.000159314 0)
(-0.011803 0.000163844 0)
(-0.0123863 0.000168143 0)
(-0.0129814 0.000172172 0)
(-0.013587 0.000175887 0)
(-0.0142019 0.000179247 0)
(-0.0148245 0.000182205 0)
(-0.0154532 0.000184715 0)
(-0.0160863 0.000186732 0)
(-0.0167218 0.000188207 0)
(-0.0173577 0.000189092 0)
(-0.0179919 0.000189338 0)
(-0.0186219 0.000188899 0)
(-0.0192453 0.000187726 0)
(-0.0198594 0.000185774 0)
(-0.0204617 0.000182997 0)
(-0.0210492 0.000179353 0)
(-0.0216189 0.000174802 0)
(-0.0221679 0.000169305 0)
(-0.0226931 0.00016283 0)
(-0.0231911 0.000155346 0)
(-0.0236589 0.000146831 0)
(-0.024093 0.000137264 0)
(-0.0244903 0.000126634 0)
(-0.0248474 0.000114936 0)
(-0.0251612 0.000102174 0)
(-0.0254284 8.83611e-05 0)
(-0.025646 7.35188e-05 0)
(-0.0258111 5.76815e-05 0)
(-0.0259207 4.0895e-05 0)
(-0.0259724 2.3221e-05 0)
(-0.0259638 4.74739e-06 0)
(-0.0258927 -1.44795e-05 0)
(-0.0257574 -3.4345e-05 0)
(-0.0255564 -5.47299e-05 0)
(-0.0252888 -7.55057e-05 0)
(-0.0249539 -9.65294e-05 0)
(-0.0245515 -0.000117644 0)
(-0.0240821 -0.000138681 0)
(-0.0235465 -0.000159457 0)
(-0.0229462 -0.000179783 0)
(-0.0222832 -0.000199459 0)
(-0.0215602 -0.000218281 0)
(-0.0207804 -0.000236043 0)
(-0.0199477 -0.000252541 0)
(-0.0190665 -0.000267574 0)
(-0.0181418 -0.000280952 0)
(-0.0171791 -0.000292496 0)
(-0.0161845 -0.000302046 0)
(-0.0151644 -0.000309462 0)
(-0.0141256 -0.000314629 0)
(-0.0130753 -0.000317463 0)
(-0.0120207 -0.000317908 0)
(-0.0109693 -0.000315946 0)
(-0.00992834 -0.000311591 0)
(-0.00890526 -0.000304897 0)
(-0.00790714 -0.000295951 0)
(-0.00694075 -0.000284878 0)
(-0.00601251 -0.000271833 0)
(-0.00512828 -0.000257001 0)
(-0.0042934 -0.000240594 0)
(-0.00351251 -0.000222844 0)
(-0.00278958 -0.000203996 0)
(-0.00212781 -0.000184308 0)
(-0.00152962 -0.000164038 0)
(-0.000996655 -0.000143444 0)
(-0.000529775 -0.000122776 0)
(-0.00012906 -0.000102274 0)
(0.000206123 -8.21674e-05 0)
(0.00047711 -6.26366e-05 0)
(0.000685918 -4.38885e-05 0)
(0.000835168 -2.60908e-05 0)
(0.00092807 -9.40001e-06 0)
(0.000968419 6.02555e-06 0)
(0.000960602 2.00114e-05 0)
(0.000909672 3.23574e-05 0)
(0.00082148 4.27803e-05 0)
(0.000702898 5.08668e-05 0)
(0.000562202 5.5981e-05 0)
(0.000409652 5.71479e-05 0)
(0.000258163 5.29331e-05 0)
(0.000123946 4.12996e-05 0)
(2.7868e-05 2.0361e-05 0)
(-3.83487e-06 -3.78669e-06 0)
(-2.62021e-07 1.6488e-06 0)
(5.57515e-06 -6.04659e-06 0)
(2.37046e-05 -1.57965e-05 0)
(5.30396e-05 -2.4652e-05 0)
(9.18117e-05 -3.17461e-05 0)
(0.000138106 -3.69948e-05 0)
(0.000189919 -4.05811e-05 0)
(0.000245418 -4.2763e-05 0)
(0.000303024 -4.38e-05 0)
(0.000361421 -4.39262e-05 0)
(0.000419546 -4.33428e-05 0)
(0.000476558 -4.22211e-05 0)
(0.000531814 -4.07017e-05 0)
(0.000584839 -3.8902e-05 0)
(0.000635301 -3.69222e-05 0)
(0.000682989 -3.48431e-05 0)
(0.000727792 -3.27287e-05 0)
(0.000769678 -3.06313e-05 0)
(0.000808681 -2.85908e-05 0)
(0.000844885 -2.66367e-05 0)
(0.000878412 -2.47919e-05 0)
(0.000909412 -2.30716e-05 0)
(0.000938055 -2.14847e-05 0)
(0.000964517 -2.00359e-05 0)
(0.000988984 -1.87242e-05 0)
(0.00101164 -1.75441e-05 0)
(0.00103265 -1.6489e-05 0)
(0.00105218 -1.55511e-05 0)
(0.00107039 -1.47195e-05 0)
(0.0010874 -1.39804e-05 0)
(0.00110335 -1.33196e-05 0)
(0.00111832 -1.27238e-05 0)
(0.00113239 -1.21786e-05 0)
(0.00114562 -1.16686e-05 0)
(0.00115805 -1.11783e-05 0)
(0.00116969 -1.06931e-05 0)
(0.00118053 -1.01983e-05 0)
(0.00119056 -9.679e-06 0)
(0.00119971 -9.12144e-06 0)
(0.00120792 -8.51206e-06 0)
(0.00121511 -7.83738e-06 0)
(0.00122117 -7.08414e-06 0)
(0.00122597 -6.24007e-06 0)
(0.00122938 -5.29407e-06 0)
(0.00123123 -4.23508e-06 0)
(0.00123134 -3.05144e-06 0)
(0.00122952 -1.73213e-06 0)
(0.00122557 -2.67448e-07 0)
(0.00121926 1.35168e-06 0)
(0.00121036 3.13464e-06 0)
(0.00119861 5.09061e-06 0)
(0.00118374 7.22867e-06 0)
(0.00116548 9.55707e-06 0)
(0.00114354 1.20835e-05 0)
(0.00111761 1.48158e-05 0)
(0.00108737 1.7762e-05 0)
(0.0010525 2.093e-05 0)
(0.00101265 2.43276e-05 0)
(0.00096746 2.79622e-05 0)
(0.000916572 3.18414e-05 0)
(0.000859602 3.59732e-05 0)
(0.000796156 4.03663e-05 0)
(0.000725827 4.50293e-05 0)
(0.000648193 4.99714e-05 0)
(0.000562818 5.52023e-05 0)
(0.000469247 6.07326e-05 0)
(0.000367009 6.65735e-05 0)
(0.000255615 7.27378e-05 0)
(0.000134556 7.92392e-05 0)
(3.30071e-06 8.60929e-05 0)
(-0.000138705 9.33152e-05 0)
(-0.000292041 0.000100924 0)
(-0.000457316 0.000108938 0)
(-0.000635166 0.000117379 0)
(-0.000826261 0.00012627 0)
(-0.0010313 0.000135635 0)
(-0.00125104 0.000145503 0)
(-0.00148623 0.0001559 0)
(-0.00173771 0.000166856 0)
(-0.00200633 0.000178403 0)
(-0.002293 0.000190574 0)
(-0.00259867 0.000203401 0)
(-0.00292433 0.000216919 0)
(-0.00327102 0.000231163 0)
(-0.00363982 0.000246167 0)
(-0.00403187 0.000261966 0)
(-0.00444834 0.000278592 0)
(-0.00489043 0.000296077 0)
(-0.0053594 0.00031445 0)
(-0.00585653 0.000333737 0)
(-0.00638312 0.000353962 0)
(-0.00694051 0.000375143 0)
(-0.00753003 0.000397295 0)
(-0.00815304 0.000420428 0)
(-0.00881088 0.000444543 0)
(-0.00950489 0.000469639 0)
(-0.0102364 0.000495703 0)
(-0.0110066 0.000522717 0)
(-0.0118168 0.000550653 0)
(-0.0126682 0.000579475 0)
(-0.0135618 0.000609136 0)
(-0.0144987 0.000639579 0)
(-0.0154796 0.000670737 0)
(-0.0165055 0.000702532 0)
(-0.017577 0.000734873 0)
(-0.0186945 0.000767657 0)
(-0.0198583 0.000800771 0)
(-0.0210686 0.000834086 0)
(-0.0223252 0.000867463 0)
(-0.0236279 0.000900748 0)
(-0.0249761 0.000933776 0)
(-0.026369 0.000966368 0)
(-0.0278055 0.000998333 0)
(-0.0292842 0.00102947 0)
(-0.0308035 0.00105956 0)
(-0.0323613 0.00108837 0)
(-0.0339553 0.00111568 0)
(-0.0355828 0.00114123 0)
(-0.0372408 0.00116477 0)
(-0.0389258 0.00118604 0)
(-0.0406342 0.00120477 0)
(-0.0423618 0.00122067 0)
(-0.044104 0.00123348 0)
(-0.045856 0.00124291 0)
(-0.0476126 0.00124869 0)
(-0.0493682 0.00125052 0)
(-0.0511167 0.00124814 0)
(-0.0528519 0.00124127 0)
(-0.054567 0.00122966 0)
(-0.0562553 0.00121304 0)
(-0.0579093 0.00119118 0)
(-0.0595216 0.00116386 0)
(-0.0610845 0.00113085 0)
(-0.0625898 0.00109199 0)
(-0.0640296 0.0010471 0)
(-0.0653955 0.000996051 0)
(-0.0666791 0.000938739 0)
(-0.067872 0.000875097 0)
(-0.0689658 0.000805093 0)
(-0.0699521 0.000728741 0)
(-0.0708226 0.0006461 0)
(-0.0715693 0.000557281 0)
(-0.0721844 0.000462449 0)
(-0.0726605 0.000361828 0)
(-0.0729904 0.000255708 0)
(-0.0731676 0.00014444 0)
(-0.0731862 2.84406e-05 0)
(-0.0730407 -9.17288e-05 0)
(-0.0727268 -0.000215563 0)
(-0.0722405 -0.000342402 0)
(-0.0715792 -0.000471513 0)
(-0.0707411 -0.000602094 0)
(-0.0697256 -0.000733272 0)
(-0.0685334 -0.000864105 0)
(-0.0671661 -0.000993591 0)
(-0.0656271 -0.00112067 0)
(-0.0639209 -0.00124425 0)
(-0.0620535 -0.00136318 0)
(-0.0600323 -0.00147632 0)
(-0.0578664 -0.00158251 0)
(-0.055566 -0.00168062 0)
(-0.0531429 -0.00176954 0)
(-0.0506103 -0.00184823 0)
(-0.0479824 -0.0019157 0)
(-0.0452749 -0.00197109 0)
(-0.0425042 -0.00201365 0)
(-0.0396877 -0.00204275 0)
(-0.0368434 -0.00205793 0)
(-0.0339899 -0.00205891 0)
(-0.031146 -0.00204559 0)
(-0.0283303 -0.00201805 0)
(-0.0255614 -0.00197659 0)
(-0.0228573 -0.00192169 0)
(-0.0202354 -0.00185402 0)
(-0.017712 -0.00177446 0)
(-0.0153023 -0.00168402 0)
(-0.0130201 -0.00158389 0)
(-0.0108777 -0.00147536 0)
(-0.00888547 -0.00135983 0)
(-0.00705222 -0.00123876 0)
(-0.0053847 -0.00111366 0)
(-0.00388769 -0.000986054 0)
(-0.00256401 -0.000857428 0)
(-0.00141452 -0.000729248 0)
(-0.000438129 -0.000602925 0)
(0.000368105 -0.00047977 0)
(0.00100894 -0.000361041 0)
(0.00149091 -0.000247961 0)
(0.00182224 -0.000141692 0)
(0.00201284 -4.3413e-05 0)
(0.00207442 4.56086e-05 0)
(0.00202057 0.000123928 0)
(0.00186708 0.000189773 0)
(0.00163231 0.000240846 0)
(0.00133778 0.000274081 0)
(0.0010089 0.0002854 0)
(0.000675216 0.000269654 0)
(0.00037015 0.000220902 0)
(0.000134684 0.000135194 0)
(2.0097e-05 2.77814e-05 0)
(1.94582e-06 -3.28181e-06 0)
(1.56479e-05 -2.40829e-05 0)
(4.73165e-05 -4.74405e-05 0)
(9.39927e-05 -6.85825e-05 0)
(0.000153151 -8.59044e-05 0)
(0.000222386 -9.90707e-05 0)
(0.000299151 -0.000108307 0)
(0.000381016 -0.000114083 0)
(0.000465823 -0.000116945 0)
(0.000551727 -0.000117415 0)
(0.000637198 -0.000115977 0)
(0.000720998 -0.000113058 0)
(0.000802163 -0.000109022 0)
(0.000879965 -0.000104184 0)
(0.000953883 -9.88086e-05 0)
(0.00102357 -9.31149e-05 0)
(0.00108884 -8.72832e-05 0)
(0.00114962 -8.1459e-05 0)
(0.00120593 -7.57581e-05 0)
(0.00125789 -7.02687e-05 0)
(0.00130565 -6.50552e-05 0)
(0.00134945 -6.01638e-05 0)
(0.00138951 -5.5624e-05 0)
(0.0014261 -5.14493e-05 0)
(0.00145949 -4.76408e-05 0)
(0.00148995 -4.41897e-05 0)
(0.00151774 -4.10794e-05 0)
(0.00154311 -3.82864e-05 0)
(0.00156628 -3.57811e-05 0)
(0.00158746 -3.3529e-05 0)
(0.00160682 -3.14928e-05 0)
(0.00162451 -2.96339e-05 0)
(0.00164065 -2.79112e-05 0)
(0.00165532 -2.62825e-05 0)
(0.00166857 -2.47052e-05 0)
(0.00168043 -2.31368e-05 0)
(0.00169087 -2.15354e-05 0)
(0.00169985 -1.98594e-05 0)
(0.00170728 -1.80686e-05 0)
(0.00171306 -1.61234e-05 0)
(0.00171703 -1.39846e-05 0)
(0.00171903 -1.16149e-05 0)
(0.00171885 -8.97823e-06 0)
(0.00171625 -6.03997e-06 0)
(0.00171097 -2.7661e-06 0)
(0.00170271 8.76237e-07 0)
(0.00169118 4.91879e-06 0)
(0.001676 9.39174e-06 0)
(0.00165683 1.43242e-05 0)
(0.00163327 1.97448e-05 0)
(0.00160489 2.56816e-05 0)
(0.00157126 3.21614e-05 0)
(0.00153191 3.92106e-05 0)
(0.00148636 4.68545e-05 0)
(0.00143409 5.51185e-05 0)
(0.00137457 6.40276e-05 0)
(0.00130726 7.36066e-05 0)
(0.00123157 8.38802e-05 0)
(0.0011469 9.48732e-05 0)
(0.00105263 0.000106611 0)
(0.000948122 0.000119119 0)
(0.000832705 0.000132425 0)
(0.000705685 0.000146557 0)
(0.000566346 0.000161543 0)
(0.000413943 0.000177416 0)
(0.000247702 0.000194208 0)
(6.68206e-05 0.000211955 0)
(-0.000129537 0.000230695 0)
(-0.00034224 0.00025047 0)
(-0.000572192 0.000271326 0)
(-0.000820339 0.000293311 0)
(-0.00108767 0.000316478 0)
(-0.00137521 0.000340883 0)
(-0.00168404 0.000366588 0)
(-0.00201529 0.00039366 0)
(-0.00237015 0.000422169 0)
(-0.00274985 0.00045219 0)
(-0.0031557 0.000483802 0)
(-0.00358906 0.000517087 0)
(-0.00405136 0.000552132 0)
(-0.00454409 0.000589026 0)
(-0.0050688 0.000627859 0)
(-0.00562714 0.000668722 0)
(-0.00622078 0.000711709 0)
(-0.00685149 0.000756909 0)
(-0.00752108 0.000804409 0)
(-0.00823144 0.000854294 0)
(-0.00898449 0.000906641 0)
(-0.00978222 0.00096152 0)
(-0.0106266 0.00101899 0)
(-0.0115198 0.00107911 0)
(-0.0124637 0.0011419 0)
(-0.0134606 0.0012074 0)
(-0.0145123 0.0012756 0)
(-0.015621 0.0013465 0)
(-0.0167887 0.00142006 0)
(-0.0180173 0.00149622 0)
(-0.0193086 0.0015749 0)
(-0.0206644 0.00165601 0)
(-0.0220864 0.00173939 0)
(-0.0235761 0.0018249 0)
(-0.0251347 0.00191233 0)
(-0.0267634 0.00200147 0)
(-0.0284631 0.00209206 0)
(-0.0302345 0.0021838 0)
(-0.0320779 0.00227637 0)
(-0.0339934 0.00236941 0)
(-0.0359808 0.00246254 0)
(-0.0380395 0.0025553 0)
(-0.0401684 0.00264726 0)
(-0.0423662 0.00273789 0)
(-0.0446311 0.00282667 0)
(-0.0469609 0.00291304 0)
(-0.0493526 0.0029964 0)
(-0.0518032 0.00307612 0)
(-0.0543088 0.00315155 0)
(-0.0568653 0.00322202 0)
(-0.0594677 0.00328683 0)
(-0.0621107 0.00334525 0)
(-0.0647884 0.00339657 0)
(-0.0674944 0.00344004 0)
(-0.0702215 0.00347491 0)
(-0.0729623 0.00350044 0)
(-0.0757087 0.00351586 0)
(-0.0784519 0.00352046 0)
(-0.0811828 0.00351348 0)
(-0.0838918 0.00349424 0)
(-0.0865688 0.00346205 0)
(-0.0892033 0.00341625 0)
(-0.0917842 0.00335622 0)
(-0.0943002 0.0032814 0)
(-0.0967398 0.00319125 0)
(-0.099091 0.00308532 0)
(-0.101342 0.00296321 0)
(-0.10348 0.00282459 0)
(-0.105492 0.00266922 0)
(-0.107367 0.00249694 0)
(-0.109093 0.00230769 0)
(-0.110655 0.00210153 0)
(-0.112044 0.00187863 0)
(-0.113247 0.00163929 0)
(-0.114252 0.00138393 0)
(-0.115049 0.00111315 0)
(-0.115627 0.000827663 0)
(-0.115978 0.000528378 0)
(-0.116091 0.000216357 0)
(-0.11596 -0.000107182 0)
(-0.115577 -0.000440758 0)
(-0.114938 -0.000782784 0)
(-0.114037 -0.00113148 0)
(-0.112872 -0.00148485 0)
(-0.111441 -0.00184075 0)
(-0.109745 -0.00219684 0)
(-0.107786 -0.00255064 0)
(-0.105567 -0.00289951 0)
(-0.103094 -0.0032407 0)
(-0.100375 -0.00357137 0)
(-0.0974201 -0.0038886 0)
(-0.0942402 -0.00418944 0)
(-0.0908491 -0.00447097 0)
(-0.0872628 -0.00473029 0)
(-0.0834987 -0.00496462 0)
(-0.0795763 -0.00517133 0)
(-0.0755169 -0.00534797 0)
(-0.0713432 -0.00549235 0)
(-0.0670793 -0.00560259 0)
(-0.0627505 -0.00567714 0)
(-0.058383 -0.00571485 0)
(-0.0540037 -0.00571501 0)
(-0.0496399 -0.00567735 0)
(-0.0453187 -0.0056021 0)
(-0.041067 -0.00548997 0)
(-0.0369112 -0.00534219 0)
(-0.0328767 -0.00516045 0)
(-0.0289874 -0.00494693 0)
(-0.0252657 -0.00470422 0)
(-0.0217322 -0.0044353 0)
(-0.0184053 -0.0041435 0)
(-0.0153009 -0.00383239 0)
(-0.0124324 -0.00350578 0)
(-0.00981047 -0.00316758 0)
(-0.00744292 -0.00282179 0)
(-0.00533472 -0.00247238 0)
(-0.00348792 -0.00212328 0)
(-0.00190168 -0.00177833 0)
(-0.000572332 -0.00144122 0)
(0.000506565 -0.00111549 0)
(0.00134421 -0.000804597 0)
(0.00195251 -0.000511961 0)
(0.00234607 -0.000241025 0)
(0.00254225 4.55831e-06 0)
(0.0025614 0.000220718 0)
(0.00242705 0.000402713 0)
(0.00216634 0.000544795 0)
(0.00181048 0.000639878 0)
(0.00139528 0.000679354 0)
(0.000960867 0.000653387 0)
(0.000550779 0.000552151 0)
(0.000219324 0.000370184 0)
(4.06015e-05 0.000123077 0)
(3.84499e-06 -1.36456e-05 0)
(2.47285e-05 -5.34303e-05 0)
(6.87926e-05 -9.41509e-05 0)
(0.000130728 -0.00013044 0)
(0.000207001 -0.000160274 0)
(0.000294793 -0.000183142 0)
(0.000391172 -0.000199334 0)
(0.000493329 -0.000209545 0)
(0.000598747 -0.000214611 0)
(0.00070524 -0.000215389 0)
(0.000810963 -0.000212692 0)
(0.000914406 -0.000207254 0)
(0.00101437 -0.000199726 0)
(0.00110995 -0.000190674 0)
(0.00120046 -0.000180579 0)
(0.00128547 -0.000169846 0)
(0.0013647 -0.000158813 0)
(0.00143806 -0.000147754 0)
(0.00150556 -0.000136888 0)
(0.00156732 -0.000126386 0)
(0.00162355 -0.000116375 0)
(0.0016745 -0.000106945 0)
(0.00172047 -9.81553e-05 0)
(0.00176179 -9.00349e-05 0)
(0.00179881 -8.25897e-05 0)
(0.00183185 -7.58071e-05 0)
(0.00186125 -6.96582e-05 0)
(0.00188732 -6.40993e-05 0)
(0.00191034 -5.90756e-05 0)
(0.00193058 -5.45247e-05 0)
(0.00194827 -5.0377e-05 0)
(0.00196357 -4.6558e-05 0)
(0.00197665 -4.299e-05 0)
(0.00198759 -3.95932e-05 0)
(0.00199647 -3.62861e-05 0)
(0.0020033 -3.29866e-05 0)
(0.00200805 -2.96136e-05 0)
(0.00201065 -2.60872e-05 0)
(0.00201098 -2.23284e-05 0)
(0.00200888 -1.82595e-05 0)
(0.00200414 -1.38047e-05 0)
(0.00199653 -8.89053e-06 0)
(0.00198576 -3.44579e-06 0)
(0.0019715 2.59901e-06 0)
(0.00195338 9.31171e-06 0)
(0.00193101 1.67575e-05 0)
(0.00190393 2.49996e-05 0)
(0.00187169 3.40995e-05 0)
(0.00183375 4.4117e-05 0)
(0.00178957 5.51104e-05 0)
(0.00173857 6.71366e-05 0)
(0.00168013 8.02506e-05 0)
(0.0016136 9.45068e-05 0)
(0.00153829 0.000109959 0)
(0.0014535 0.000126659 0)
(0.00135847 0.00014466 0)
(0.00125241 0.000164014 0)
(0.00113452 0.000184772 0)
(0.00100395 0.000206988 0)
(0.000859817 0.000230715 0)
(0.000701206 0.000256007 0)
(0.000527167 0.000282922 0)
(0.000336714 0.000311517 0)
(0.000128825 0.000341856 0)
(-9.75624e-05 0.000374001 0)
(-0.000343552 0.000408023 0)
(-0.000610291 0.000443994 0)
(-0.000898971 0.000481993 0)
(-0.00121083 0.000522104 0)
(-0.00154717 0.000564419 0)
(-0.00190932 0.000609034 0)
(-0.00229869 0.000656053 0)
(-0.00271675 0.00070559 0)
(-0.00316503 0.000757764 0)
(-0.00364513 0.000812702 0)
(-0.00415871 0.000870542 0)
(-0.00470752 0.000931426 0)
(-0.00529338 0.000995505 0)
(-0.0059182 0.00106293 0)
(-0.00658396 0.00113387 0)
(-0.00729274 0.00120849 0)
(-0.00804667 0.00128696 0)
(-0.008848 0.00136943 0)
(-0.00969904 0.00145608 0)
(-0.0106022 0.00154708 0)
(-0.0115599 0.00164257 0)
(-0.0125747 0.00174269 0)
(-0.0136492 0.00184759 0)
(-0.0147859 0.00195736 0)
(-0.0159877 0.00207212 0)
(-0.0172571 0.00219193 0)
(-0.0185968 0.00231682 0)
(-0.0200096 0.00244682 0)
(-0.021498 0.00258191 0)
(-0.0230646 0.00272201 0)
(-0.024712 0.00286703 0)
(-0.0264424 0.00301682 0)
(-0.0282582 0.00317118 0)
(-0.0301614 0.00332985 0)
(-0.0321539 0.00349255 0)
(-0.0342374 0.0036589 0)
(-0.0364132 0.00382847 0)
(-0.0386824 0.0040008 0)
(-0.0410458 0.00417532 0)
(-0.0435038 0.00435144 0)
(-0.0460563 0.00452846 0)
(-0.0487029 0.00470564 0)
(-0.0514426 0.00488217 0)
(-0.054274 0.00505718 0)
(-0.0571952 0.00522973 0)
(-0.0602035 0.00539881 0)
(-0.0632959 0.00556336 0)
(-0.0664685 0.00572227 0)
(-0.069717 0.00587435 0)
(-0.0730363 0.00601839 0)
(-0.0764206 0.00615313 0)
(-0.0798635 0.00627727 0)
(-0.0833578 0.00638947 0)
(-0.0868958 0.00648839 0)
(-0.0904687 0.00657264 0)
(-0.0940675 0.00664085 0)
(-0.0976821 0.00669164 0)
(-0.101302 0.00672365 0)
(-0.104916 0.00673551 0)
(-0.108512 0.00672591 0)
(-0.112078 0.00669356 0)
(-0.1156 0.00663724 0)
(-0.119066 0.00655575 0)
(-0.122461 0.00644802 0)
(-0.125771 0.006313 0)
(-0.128981 0.00614978 0)
(-0.132076 0.00595754 0)
(-0.135041 0.00573558 0)
(-0.13786 0.00548333 0)
(-0.140519 0.00520037 0)
(-0.143001 0.00488643 0)
(-0.145292 0.00454143 0)
(-0.147376 0.00416547 0)
(-0.149238 0.00375883 0)
(-0.150864 0.00332204 0)
(-0.152241 0.00285585 0)
(-0.153354 0.00236124 0)
(-0.154192 0.00183948 0)
(-0.154742 0.00129208 0)
(-0.154993 0.000720848 0)
(-0.154937 0.000127897 0)
(-0.154565 -0.000484306 0)
(-0.153869 -0.00111311 0)
(-0.152845 -0.00175545 0)
(-0.151488 -0.00240799 0)
(-0.149796 -0.00306706 0)
(-0.147769 -0.0037287 0)
(-0.145409 -0.0043887 0)
(-0.142719 -0.00504254 0)
(-0.139705 -0.00568551 0)
(-0.136376 -0.0063127 0)
(-0.132741 -0.00691904 0)
(-0.128815 -0.00749938 0)
(-0.124611 -0.00804853 0)
(-0.120148 -0.00856131 0)
(-0.115445 -0.00903268 0)
(-0.110524 -0.00945776 0)
(-0.105411 -0.00983193 0)
(-0.10013 -0.0101509 0)
(-0.0947098 -0.010411 0)
(-0.0891805 -0.0106087 0)
(-0.0835729 -0.0107414 0)
(-0.0779189 -0.0108071 0)
(-0.0722516 -0.0108046 0)
(-0.0666043 -0.0107332 0)
(-0.0610104 -0.0105935 0)
(-0.0555029 -0.0103866 0)
(-0.0501144 -0.0101145 0)
(-0.0448761 -0.00978036 0)
(-0.0398181 -0.0093878 0)
(-0.0349682 -0.00894141 0)
(-0.0303524 -0.00844642 0)
(-0.025994 -0.0079087 0)
(-0.0219135 -0.00733461 0)
(-0.0181284 -0.00673093 0)
(-0.0146528 -0.00610471 0)
(-0.0114975 -0.00546319 0)
(-0.00866967 -0.00481365 0)
(-0.00617295 -0.00416333 0)
(-0.00400728 -0.00351937 0)
(-0.00216902 -0.00288871 0)
(-0.00065092 -0.00227816 0)
(0.000557822 -0.00169432 0)
(0.00147156 -0.00114379 0)
(0.00210822 -0.000633238 0)
(0.00248931 -0.00016965 0)
(0.00264011 0.000239372 0)
(0.00258984 0.000585255 0)
(0.00237194 0.000858059 0)
(0.00202442 0.00104612 0)
(0.00159017 0.00113598 0)
(0.00111644 0.00111288 0)
(0.000653983 0.000962419 0)
(0.000267884 0.000674691 0)
(5.18183e-05 0.000255836 0)
(5.28145e-06 -2.84631e-05 0)
(3.20325e-05 -9.24091e-05 0)
(8.64874e-05 -0.000153488 0)
(0.000161054 -0.000206784 0)
(0.000251141 -0.000250328 0)
(0.000353461 -0.000283681 0)
(0.000464745 -0.000307304 0)
(0.000581912 -0.000322139 0)
(0.000702208 -0.000329341 0)
(0.000823231 -0.000330114 0)
(0.000942941 -0.000325616 0)
(0.00105965 -0.000316921 0)
(0.00117201 -0.000304994 0)
(0.00127897 -0.000290681 0)
(0.00137978 -0.000274716 0)
(0.00147391 -0.000257721 0)
(0.00156104 -0.000240217 0)
(0.00164105 -0.000222633 0)
(0.00171396 -0.000205315 0)
(0.00177988 -0.00018853 0)
(0.00183906 -0.000172483 0)
(0.00189178 -0.000157323 0)
(0.0019384 -0.000143142 0)
(0.00197929 -0.000129992 0)
(0.00201485 -0.000117888 0)
(0.00204547 -0.000106811 0)
(0.00207153 -9.67188e-05 0)
(0.0020934 -8.75441e-05 0)
(0.00211141 -7.92032e-05 0)
(0.00212587 -7.15976e-05 0)
(0.00213704 -6.46183e-05 0)
(0.00214512 -5.81477e-05 0)
(0.00215029 -5.20626e-05 0)
(0.00215265 -4.62351e-05 0)
(0.00215227 -4.05349e-05 0)
(0.00214917 -3.48311e-05 0)
(0.00214328 -2.8993e-05 0)
(0.00213451 -2.2891e-05 0)
(0.00212271 -1.63966e-05 0)
(0.00210767 -9.38389e-06 0)
(0.00208912 -1.72945e-06 0)
(0.00206674 6.68715e-06 0)
(0.00204018 1.59835e-05 0)
(0.00200901 2.62743e-05 0)
(0.00197277 3.76707e-05 0)
(0.00193094 5.02816e-05 0)
(0.00188296 6.42125e-05 0)
(0.00182821 7.95669e-05 0)
(0.00176603 9.64453e-05 0)
(0.00169573 0.000114946 0)
(0.00161655 0.000135164 0)
(0.0015277 0.000157195 0)
(0.00142834 0.000181132 0)
(0.00131759 0.000207065 0)
(0.00119453 0.000235086 0)
(0.00105818 0.000265285 0)
(0.000907542 0.000297752 0)
(0.00074155 0.000332577 0)
(0.000559106 0.000369853 0)
(0.000359066 0.00040967 0)
(0.000140237 0.000452126 0)
(-9.86182e-05 0.000497318 0)
(-0.000358786 0.000545347 0)
(-0.000641604 0.000596319 0)
(-0.000948459 0.000650347 0)
(-0.00128079 0.000707546 0)
(-0.00164011 0.000768042 0)
(-0.00202796 0.000831967 0)
(-0.00244598 0.000899463 0)
(-0.00289584 0.00097068 0)
(-0.0033793 0.00104578 0)
(-0.00389819 0.00112493 0)
(-0.00445442 0.00120832 0)
(-0.00504998 0.00129615 0)
(-0.00568692 0.00138861 0)
(-0.00636742 0.00148593 0)
(-0.00709372 0.00158834 0)
(-0.00786816 0.00169607 0)
(-0.00869317 0.00180936 0)
(-0.0095713 0.00192848 0)
(-0.0105052 0.00205367 0)
(-0.0114975 0.00218519 0)
(-0.012551 0.0023233 0)
(-0.0136688 0.00246825 0)
(-0.0148537 0.00262027 0)
(-0.0161088 0.00277959 0)
(-0.0174373 0.00294641 0)
(-0.0188422 0.00312092 0)
(-0.0203268 0.00330327 0)
(-0.0218943 0.00349357 0)
(-0.023548 0.00369189 0)
(-0.025291 0.00389826 0)
(-0.0271265 0.00411264 0)
(-0.0290575 0.00433496 0)
(-0.031087 0.00456505 0)
(-0.0332178 0.00480269 0)
(-0.0354525 0.00504757 0)
(-0.0377937 0.00529932 0)
(-0.0402435 0.00555745 0)
(-0.0428037 0.0058214 0)
(-0.0454759 0.00609052 0)
(-0.0482614 0.00636405 0)
(-0.051161 0.00664112 0)
(-0.0541748 0.00692079 0)
(-0.0573028 0.00720198 0)
(-0.0605442 0.00748353 0)
(-0.0638978 0.00776415 0)
(-0.0673615 0.00804249 0)
(-0.0709329 0.00831705 0)
(-0.0746087 0.00858627 0)
(-0.0783847 0.00884849 0)
(-0.0822564 0.00910193 0)
(-0.0862181 0.00934478 0)
(-0.0902636 0.00957512 0)
(-0.0943857 0.00979099 0)
(-0.0985764 0.00999036 0)
(-0.102827 0.0101712 0)
(-0.107128 0.0103313 0)
(-0.111468 0.0104686 0)
(-0.115838 0.010581 0)
(-0.120223 0.0106663 0)
(-0.124613 0.0107225 0)
(-0.128993 0.0107475 0)
(-0.133349 0.0107392 0)
(-0.137667 0.0106957 0)
(-0.141931 0.0106152 0)
(-0.146124 0.0104959 0)
(-0.150232 0.0103361 0)
(-0.154236 0.0101343 0)
(-0.15812 0.0098891 0)
(-0.161866 0.00959934 0)
(-0.165457 0.00926396 0)
(-0.168875 0.00888215 0)
(-0.172103 0.00845328 0)
(-0.175122 0.00797698 0)
(-0.177915 0.00745313 0)
(-0.180466 0.00688186 0)
(-0.182757 0.00626364 0)
(-0.184773 0.00559918 0)
(-0.186497 0.00488959 0)
(-0.187916 0.00413627 0)
(-0.189013 0.00334101 0)
(-0.189778 0.00250599 0)
(-0.190197 0.00163377 0)
(-0.19026 0.000727341 0)
(-0.189957 -0.000209897 0)
(-0.18928 -0.00117405 0)
(-0.188223 -0.00216088 0)
(-0.186781 -0.00316565 0)
(-0.184951 -0.00418319 0)
(-0.182733 -0.00520791 0)
(-0.180127 -0.00623378 0)
(-0.177136 -0.0072544 0)
(-0.173767 -0.00826304 0)
(-0.170026 -0.00925263 0)
(-0.165925 -0.0102158 0)
(-0.161477 -0.0111452 0)
(-0.156696 -0.012033 0)
(-0.1516 -0.0128716 0)
(-0.146211 -0.0136535 0)
(-0.14055 -0.0143711 0)
(-0.134643 -0.0150173 0)
(-0.128518 -0.0155853 0)
(-0.122204 -0.0160688 0)
(-0.115733 -0.0164622 0)
(-0.109138 -0.0167607 0)
(-0.102455 -0.0169602 0)
(-0.0957193 -0.0170577 0)
(-0.0889683 -0.0170513 0)
(-0.0822396 -0.0169402 0)
(-0.075571 -0.0167247 0)
(-0.0690001 -0.0164067 0)
(-0.0625638 -0.0159892 0)
(-0.056298 -0.0154762 0)
(-0.0502372 -0.0148734 0)
(-0.0444136 -0.0141875 0)
(-0.0388576 -0.013426 0)
(-0.0335964 -0.0125977 0)
(-0.0286545 -0.011712 0)
(-0.024053 -0.0107792 0)
(-0.0198092 -0.00980983 0)
(-0.0159367 -0.00881489 0)
(-0.012445 -0.00780553 0)
(-0.00933963 -0.00679293 0)
(-0.0066217 -0.00578817 0)
(-0.00428823 -0.00480219 0)
(-0.00233194 -0.00384571 0)
(-0.000741308 -0.0029293 0)
(0.000499429 -0.00206346 0)
(0.00141029 -0.00125884 0)
(0.00201557 -0.000526463 0)
(0.00234395 0.000121888 0)
(0.00242857 0.000673277 0)
(0.00230724 0.00111317 0)
(0.00202263 0.00142511 0)
(0.00162254 0.0015906 0)
(0.00115929 0.00158962 0)
(0.000689321 0.001402 0)
(0.000285935 0.0010104 0)
(5.59493e-05 0.000405978 0)
(6.29427e-06 -4.666e-05 0)
(3.74721e-05 -0.000139068 0)
(9.9963e-05 -0.000223041 0)
(0.000184274 -0.000294735 0)
(0.000284813 -0.00035268 0)
(0.000397806 -0.000396781 0)
(0.000519666 -0.000427807 0)
(0.00064708 -0.000447027 0)
(0.000777125 -0.000455947 0)
(0.000907264 -0.000456136 0)
(0.00103534 -0.000449121 0)
(0.00115956 -0.000436329 0)
(0.00127849 -0.000419054 0)
(0.00139101 -0.000398447 0)
(0.0014963 -0.00037551 0)
(0.00159381 -0.000351105 0)
(0.00168318 -0.000325956 0)
(0.00176429 -0.000300662 0)
(0.00183714 -0.00027571 0)
(0.0019019 -0.000251481 0)
(0.0019588 -0.000228269 0)
(0.00200818 -0.000206282 0)
(0.00205043 -0.00018566 0)
(0.00208596 -0.000166477 0)
(0.00211522 -0.000148758 0)
(0.00213865 -0.000132482 0)
(0.00215666 -0.000117587 0)
(0.00216967 -0.000103982 0)
(0.00217806 -9.15482e-05 0)
(0.00218214 -8.01463e-05 0)
(0.00218222 -6.9621e-05 0)
(0.00217851 -5.98041e-05 0)
(0.00217121 -5.05185e-05 0)
(0.00216042 -4.158e-05 0)
(0.00214621 -3.28006e-05 0)
(0.00212857 -2.39907e-05 0)
(0.00210743 -1.49604e-05 0)
(0.00208266 -5.5205e-06 0)
(0.00205406 4.51667e-06 0)
(0.00202137 1.53358e-05 0)
(0.00198426 2.71183e-05 0)
(0.00194235 4.00421e-05 0)
(0.00189519 5.4281e-05 0)
(0.00184227 7.00053e-05 0)
(0.00178301 8.73809e-05 0)
(0.0017168 0.00010657 0)
(0.00164294 0.000127732 0)
(0.00156068 0.000151022 0)
(0.00146922 0.000176592 0)
(0.00136771 0.00020459 0)
(0.00125522 0.000235163 0)
(0.00113079 0.000268455 0)
(0.000993392 0.000304609 0)
(0.000841942 0.000343764 0)
(0.000675307 0.000386062 0)
(0.000492294 0.000431641 0)
(0.000291658 0.000480641 0)
(7.20978e-05 0.000533201 0)
(-0.000167743 0.000589465 0)
(-0.000429281 0.000649577 0)
(-0.000713988 0.000713683 0)
(-0.0010234 0.000781937 0)
(-0.0013591 0.000854495 0)
(-0.00172275 0.00093152 0)
(-0.00211608 0.00101318 0)
(-0.00254087 0.00109966 0)
(-0.00299898 0.00119115 0)
(-0.00349234 0.00128785 0)
(-0.00402297 0.00138997 0)
(-0.00459294 0.00149773 0)
(-0.00520444 0.00161138 0)
(-0.00585972 0.00173116 0)
(-0.00656113 0.00185736 0)
(-0.00731112 0.00199025 0)
(-0.00811223 0.00213013 0)
(-0.0089671 0.00227732 0)
(-0.00987848 0.00243215 0)
(-0.0108492 0.00259494 0)
(-0.0118823 0.00276605 0)
(-0.0129807 0.00294584 0)