/*--------------------------------*- C++ -*----------------------------------*\
  =========                 |
  \\      /  F ield         | OpenFOAM: The Open Source CFD Toolbox
   \\    /   O peration     | Website:  https://openfoam.org
    \\  /    A nd           | Version:  7
     \\/     M anipulation  |
\*---------------------------------------------------------------------------*/
FoamFile
{
    version     2.0;
    format      ascii;
    class       volVectorField;
    location    "0.01";
    object      U;
}
// * * * * * * * * * * * * * * * * * * * * * * * * * * * * * * * * * * * * * //

dimensions      [0 1 -1 0 0 0 0];

internalField   nonuniform List<vector> 
40000
(
(3.33134e-07 -1.15265e-07 0)
(1.45587e-06 -6.72517e-07 0)
(3.81889e-06 -1.0407e-06 0)
(6.35458e-06 -1.06624e-06 0)
(8.62477e-06 -9.1593e-07 0)
(1.02102e-05 -6.61756e-07 0)
(1.09064e-05 -3.50738e-07 0)
(1.05879e-05 -1.20407e-08 0)
(9.18664e-06 3.38035e-07 0)
(6.67293e-06 6.88844e-07 0)
(3.04321e-06 1.03357e-06 0)
(-1.68882e-06 1.36829e-06 0)
(-7.49765e-06 1.69057e-06 0)
(-1.43494e-05 1.99931e-06 0)
(-2.22046e-05 2.29406e-06 0)
(-3.10203e-05 2.57388e-06 0)
(-4.07509e-05 2.83798e-06 0)
(-5.13492e-05 3.0862e-06 0)
(-6.27674e-05 3.31881e-06 0)
(-7.49577e-05 3.53659e-06 0)
(-8.78724e-05 3.74014e-06 0)
(-0.000101464 3.92948e-06 0)
(-0.000115687 4.10478e-06 0)
(-0.000130495 4.26659e-06 0)
(-0.000145845 4.41545e-06 0)
(-0.000161692 4.55185e-06 0)
(-0.000177995 4.67614e-06 0)
(-0.000194715 4.78863e-06 0)
(-0.00021181 4.8898e-06 0)
(-0.000229244 4.98013e-06 0)
(-0.00024698 5.06e-06 0)
(-0.000264983 5.12982e-06 0)
(-0.000283218 5.19008e-06 0)
(-0.000301654 5.24123e-06 0)
(-0.00032026 5.28371e-06 0)
(-0.000339005 5.31791e-06 0)
(-0.000357861 5.34413e-06 0)
(-0.0003768 5.36272e-06 0)
(-0.000395797 5.37404e-06 0)
(-0.000414826 5.37851e-06 0)
(-0.000433864 5.37657e-06 0)
(-0.000452887 5.36847e-06 0)
(-0.000471875 5.35426e-06 0)
(-0.000490806 5.33409e-06 0)
(-0.00050966 5.3083e-06 0)
(-0.000528419 5.27743e-06 0)
(-0.000547065 5.24194e-06 0)
(-0.00056558 5.20202e-06 0)
(-0.00058395 5.1577e-06 0)
(-0.000602157 5.10906e-06 0)
(-0.000620188 5.05626e-06 0)
(-0.000638029 4.99967e-06 0)
(-0.000655667 4.93966e-06 0)
(-0.000673088 4.87636e-06 0)
(-0.000690282 4.80982e-06 0)
(-0.000707236 4.7402e-06 0)
(-0.000723941 4.66762e-06 0)
(-0.000740386 4.59227e-06 0)
(-0.000756561 4.51442e-06 0)
(-0.000772457 4.43424e-06 0)
(-0.000788065 4.35174e-06 0)
(-0.000803378 4.26694e-06 0)
(-0.000818386 4.17995e-06 0)
(-0.000833084 4.09087e-06 0)
(-0.000847463 3.99989e-06 0)
(-0.000861516 3.90719e-06 0)
(-0.000875238 3.81281e-06 0)
(-0.000888622 3.71675e-06 0)
(-0.000901662 3.61905e-06 0)
(-0.000914353 3.5198e-06 0)
(-0.000926689 3.4191e-06 0)
(-0.000938666 3.31702e-06 0)
(-0.000950278 3.21369e-06 0)
(-0.00096152 3.10918e-06 0)
(-0.000972389 3.00353e-06 0)
(-0.00098288 2.89676e-06 0)
(-0.000992989 2.78884e-06 0)
(-0.00100271 2.67986e-06 0)
(-0.00101205 2.56985e-06 0)
(-0.00102099 2.45889e-06 0)
(-0.00102954 2.34713e-06 0)
(-0.00103768 2.23462e-06 0)
(-0.00104543 2.12136e-06 0)
(-0.00105277 2.00732e-06 0)
(-0.0010597 1.89249e-06 0)
(-0.00106623 1.77696e-06 0)
(-0.00107234 1.66082e-06 0)
(-0.00107804 1.54413e-06 0)
(-0.00108332 1.42693e-06 0)
(-0.00108818 1.30924e-06 0)
(-0.00109262 1.19107e-06 0)
(-0.00109664 1.07242e-06 0)
(-0.00110024 9.5331e-07 0)
(-0.00110342 8.3379e-07 0)
(-0.00110617 7.13943e-07 0)
(-0.00110849 5.93826e-07 0)
(-0.00111038 4.73473e-07 0)
(-0.00111184 3.52929e-07 0)
(-0.00111288 2.32218e-07 0)
(-0.00111348 1.11364e-07 0)
(-0.00111366 -9.58708e-09 0)
(-0.0011134 -1.3065e-07 0)
(-0.00111271 -2.51848e-07 0)
(-0.0011116 -3.73112e-07 0)
(-0.00111005 -4.9435e-07 0)
(-0.00110806 -6.15442e-07 0)
(-0.00110565 -7.36294e-07 0)
(-0.00110281 -8.56974e-07 0)
(-0.00109954 -9.77577e-07 0)
(-0.00109584 -1.09807e-06 0)
(-0.00109171 -1.21838e-06 0)
(-0.00108716 -1.33839e-06 0)
(-0.00108217 -1.45797e-06 0)
(-0.00107677 -1.5771e-06 0)
(-0.00107094 -1.69582e-06 0)
(-0.00106469 -1.8141e-06 0)
(-0.00105802 -1.93191e-06 0)
(-0.00105093 -2.04923e-06 0)
(-0.00104343 -2.1659e-06 0)
(-0.00103551 -2.28184e-06 0)
(-0.00102718 -2.39705e-06 0)
(-0.00101845 -2.51153e-06 0)
(-0.00100931 -2.62521e-06 0)
(-0.000999766 -2.7381e-06 0)
(-0.000989825 -2.85008e-06 0)
(-0.000979488 -2.96102e-06 0)
(-0.000968759 -3.07088e-06 0)
(-0.000957642 -3.17964e-06 0)
(-0.000946141 -3.28718e-06 0)
(-0.000934262 -3.3935e-06 0)
(-0.000922007 -3.49858e-06 0)
(-0.000909383 -3.60226e-06 0)
(-0.000896395 -3.70439e-06 0)
(-0.000883049 -3.80493e-06 0)
(-0.000869349 -3.90381e-06 0)
(-0.000855303 -4.00089e-06 0)
(-0.000840916 -4.09608e-06 0)
(-0.000826197 -4.18932e-06 0)
(-0.000811151 -4.28052e-06 0)
(-0.000795788 -4.36954e-06 0)
(-0.000780115 -4.45628e-06 0)
(-0.000764141 -4.54059e-06 0)
(-0.000747874 -4.62224e-06 0)
(-0.000731325 -4.70114e-06 0)
(-0.000714504 -4.77722e-06 0)
(-0.00069742 -4.85031e-06 0)
(-0.000680086 -4.92018e-06 0)
(-0.000662513 -4.98669e-06 0)
(-0.000644714 -5.04967e-06 0)
(-0.000626701 -5.10887e-06 0)
(-0.000608489 -5.16409e-06 0)
(-0.000590093 -5.21515e-06 0)
(-0.000571526 -5.26184e-06 0)
(-0.000552807 -5.30391e-06 0)
(-0.00053395 -5.34114e-06 0)
(-0.000514975 -5.37332e-06 0)
(-0.0004959 -5.40014e-06 0)
(-0.000476744 -5.42128e-06 0)
(-0.000457528 -5.43646e-06 0)
(-0.000438273 -5.44545e-06 0)
(-0.000419003 -5.44793e-06 0)
(-0.00039974 -5.44358e-06 0)
(-0.00038051 -5.43207e-06 0)
(-0.000361337 -5.41309e-06 0)
(-0.00034225 -5.38626e-06 0)
(-0.000323276 -5.35117e-06 0)
(-0.000304445 -5.3075e-06 0)
(-0.000285787 -5.2549e-06 0)
(-0.000267335 -5.19297e-06 0)
(-0.000249121 -5.1213e-06 0)
(-0.00023118 -5.0395e-06 0)
(-0.000213547 -4.94714e-06 0)
(-0.000196261 -4.84375e-06 0)
(-0.000179358 -4.72886e-06 0)
(-0.00016288 -4.60209e-06 0)
(-0.000146867 -4.46308e-06 0)
(-0.000131361 -4.31142e-06 0)
(-0.000116405 -4.14663e-06 0)
(-0.000102046 -3.96829e-06 0)
(-8.83267e-05 -3.77602e-06 0)
(-7.52953e-05 -3.56944e-06 0)
(-6.29986e-05 -3.34814e-06 0)
(-5.14844e-05 -3.11183e-06 0)
(-4.08004e-05 -2.86033e-06 0)
(-3.09943e-05 -2.59356e-06 0)
(-2.21129e-05 -2.31156e-06 0)
(-1.42015e-05 -2.01455e-06 0)
(-7.30295e-06 -1.70302e-06 0)
(-1.45623e-06 -1.37785e-06 0)
(3.30518e-06 -1.04048e-06 0)
(6.95611e-06 -6.93224e-07 0)
(9.4832e-06 -3.39877e-07 0)
(1.08902e-05 1.35368e-08 0)
(1.12059e-05 3.57357e-07 0)
(1.04972e-05 6.75616e-07 0)
(8.88738e-06 9.41804e-07 0)
(6.58179e-06 1.11228e-06 0)
(3.91656e-06 1.11375e-06 0)
(1.49819e-06 8.33339e-07 0)
(2.24743e-07 2.24728e-07 0)
(9.84741e-07 -1.52504e-06 0)
(3.96716e-06 -3.60078e-06 0)
(8.52414e-06 -4.58841e-06 0)
(1.31796e-05 -4.38758e-06 0)
(1.68098e-05 -3.4009e-06 0)
(1.86756e-05 -1.89205e-06 0)
(1.82685e-05 -5.44897e-08 0)
(1.52463e-05 1.97783e-06 0)
(9.39704e-06 4.11289e-06 0)
(6.05435e-07 6.28826e-06 0)
(-1.11724e-05 8.46048e-06 0)
(-2.59303e-05 1.0599e-05 0)
(-4.36246e-05 1.26831e-05 0)
(-6.41845e-05 1.46985e-05 0)
(-8.75201e-05 1.66355e-05 0)
(-0.000113527 1.84874e-05 0)
(-0.00014209 2.02497e-05 0)
(-0.000173089 2.19195e-05 0)
(-0.000206399 2.34955e-05 0)
(-0.000241894 2.49778e-05 0)
(-0.000279444 2.63673e-05 0)
(-0.000318921 2.76649e-05 0)
(-0.0003602 2.88721e-05 0)
(-0.000403154 2.99907e-05 0)
(-0.000447661 3.10232e-05 0)
(-0.000493601 3.19717e-05 0)
(-0.000540856 3.28387e-05 0)
(-0.000589311 3.36267e-05 0)
(-0.000638857 3.43382e-05 0)
(-0.000689386 3.49759e-05 0)
(-0.000740793 3.55426e-05 0)
(-0.00079298 3.60408e-05 0)
(-0.000845848 3.64732e-05 0)
(-0.000899305 3.68424e-05 0)
(-0.000953262 3.71511e-05 0)
(-0.00100763 3.74017e-05 0)
(-0.00106234 3.75968e-05 0)
(-0.00111729 3.77386e-05 0)
(-0.00117242 3.78294e-05 0)
(-0.00122766 3.78715e-05 0)
(-0.00128293 3.78673e-05 0)
(-0.00133816 3.78189e-05 0)
(-0.00139331 3.77282e-05 0)
(-0.0014483 3.75971e-05 0)
(-0.00150307 3.74276e-05 0)
(-0.00155758 3.72213e-05 0)
(-0.00161177 3.69802e-05 0)
(-0.00166559 3.67062e-05 0)
(-0.00171899 3.64009e-05 0)
(-0.00177193 3.60656e-05 0)
(-0.00182436 3.57019e-05 0)
(-0.00187625 3.5311e-05 0)
(-0.00192756 3.48945e-05 0)
(-0.00197824 3.44537e-05 0)
(-0.00202827 3.39899e-05 0)
(-0.0020776 3.3504e-05 0)
(-0.00212622 3.29972e-05 0)
(-0.00217408 3.24705e-05 0)
(-0.00222117 3.1925e-05 0)
(-0.00226744 3.13617e-05 0)
(-0.00231288 3.07814e-05 0)
(-0.00235747 3.01849e-05 0)
(-0.00240117 2.9573e-05 0)
(-0.00244397 2.89465e-05 0)
(-0.00248585 2.83059e-05 0)
(-0.00252678 2.76522e-05 0)
(-0.00256675 2.69859e-05 0)
(-0.00260573 2.63076e-05 0)
(-0.00264372 2.56177e-05 0)
(-0.00268069 2.4917e-05 0)
(-0.00271663 2.42058e-05 0)
(-0.00275152 2.34847e-05 0)
(-0.00278535 2.27541e-05 0)
(-0.0028181 2.20146e-05 0)
(-0.00284977 2.12665e-05 0)
(-0.00288033 2.05104e-05 0)
(-0.00290979 1.97466e-05 0)
(-0.00293812 1.89753e-05 0)
(-0.00296532 1.81969e-05 0)
(-0.00299137 1.74118e-05 0)
(-0.00301627 1.66204e-05 0)
(-0.00304001 1.58231e-05 0)
(-0.00306258 1.50201e-05 0)
(-0.00308396 1.42119e-05 0)
(-0.00310416 1.33986e-05 0)
(-0.00312317 1.25804e-05 0)
(-0.00314098 1.17576e-05 0)
(-0.00315757 1.09306e-05 0)
(-0.00317296 1.00996e-05 0)
(-0.00318712 9.26507e-06 0)
(-0.00320006 8.42712e-06 0)
(-0.00321177 7.58599e-06 0)
(-0.00322225 6.74189e-06 0)
(-0.00323149 5.89513e-06 0)
(-0.00323949 5.04604e-06 0)
(-0.00324624 4.19485e-06 0)
(-0.00325175 3.34178e-06 0)
(-0.003256 2.4871e-06 0)
(-0.00325901 1.63112e-06 0)
(-0.00326075 7.74118e-07 0)
(-0.00326125 -8.36278e-08 0)
(-0.00326049 -9.41883e-07 0)
(-0.00325847 -1.8005e-06 0)
(-0.00325519 -2.65923e-06 0)
(-0.00325066 -3.51779e-06 0)
(-0.00324487 -4.37583e-06 0)
(-0.00323782 -5.23297e-06 0)
(-0.00322953 -6.08897e-06 0)
(-0.00321998 -6.94369e-06 0)
(-0.00320918 -7.79691e-06 0)
(-0.00319713 -8.6483e-06 0)
(-0.00318383 -9.49755e-06 0)
(-0.0031693 -1.03443e-05 0)
(-0.00315353 -1.11881e-05 0)
(-0.00313653 -1.20289e-05 0)
(-0.0031183 -1.28662e-05 0)
(-0.00309885 -1.36997e-05 0)
(-0.00307818 -1.45293e-05 0)
(-0.0030563 -1.53545e-05 0)
(-0.00303322 -1.61748e-05 0)
(-0.00300894 -1.69899e-05 0)
(-0.00298347 -1.77996e-05 0)
(-0.00295683 -1.86033e-05 0)
(-0.00292901 -1.94008e-05 0)
(-0.00290003 -2.01915e-05 0)
(-0.0028699 -2.09751e-05 0)
(-0.00283864 -2.17511e-05 0)
(-0.00280624 -2.25189e-05 0)
(-0.00277273 -2.32781e-05 0)
(-0.00273812 -2.40282e-05 0)
(-0.00270242 -2.47687e-05 0)
(-0.00266564 -2.5499e-05 0)
(-0.00262781 -2.62185e-05 0)
(-0.00258893 -2.69264e-05 0)
(-0.00254903 -2.76223e-05 0)
(-0.00250813 -2.83053e-05 0)
(-0.00246624 -2.89748e-05 0)
(-0.00242338 -2.963e-05 0)
(-0.00237958 -3.02702e-05 0)
(-0.00233486 -3.08946e-05 0)
(-0.00228924 -3.15022e-05 0)
(-0.00224275 -3.20922e-05 0)
(-0.00219542 -3.26636e-05 0)
(-0.00214727 -3.32153e-05 0)
(-0.00209833 -3.37462e-05 0)
(-0.00204863 -3.42554e-05 0)
(-0.00199822 -3.47416e-05 0)
(-0.00194712 -3.52035e-05 0)
(-0.00189536 -3.56399e-05 0)
(-0.001843 -3.60495e-05 0)
(-0.00179006 -3.64308e-05 0)
(-0.00173659 -3.67823e-05 0)
(-0.00168264 -3.71026e-05 0)
(-0.00162825 -3.73899e-05 0)
(-0.00157347 -3.76427e-05 0)
(-0.00151836 -3.78592e-05 0)
(-0.00146297 -3.80376e-05 0)
(-0.00140735 -3.81761e-05 0)
(-0.00135157 -3.82727e-05 0)
(-0.00129568 -3.83255e-05 0)
(-0.00123976 -3.83322e-05 0)
(-0.00118388 -3.82909e-05 0)
(-0.00112809 -3.81993e-05 0)
(-0.00107249 -3.80551e-05 0)
(-0.00101714 -3.78561e-05 0)
(-0.000962127 -3.75999e-05 0)
(-0.000907539 -3.72841e-05 0)
(-0.000853461 -3.69062e-05 0)
(-0.000799986 -3.64636e-05 0)
(-0.000747208 -3.59539e-05 0)
(-0.000695225 -3.53745e-05 0)
(-0.00064414 -3.47228e-05 0)
(-0.000594059 -3.39962e-05 0)
(-0.00054509 -3.31922e-05 0)
(-0.000497345 -3.23081e-05 0)
(-0.00045094 -3.13417e-05 0)
(-0.000405994 -3.02905e-05 0)
(-0.000362627 -2.91524e-05 0)
(-0.000320964 -2.79254e-05 0)
(-0.00028113 -2.66076e-05 0)
(-0.000243253 -2.51976e-05 0)
(-0.000207461 -2.36944e-05 0)
(-0.000173883 -2.20977e-05 0)
(-0.000142645 -2.04077e-05 0)
(-0.000113872 -1.86257e-05 0)
(-8.76845e-05 -1.67545e-05 0)
(-6.41966e-05 -1.47984e-05 0)
(-4.35115e-05 -1.27642e-05 0)
(-2.57191e-05 -1.06619e-05 0)
(-1.08892e-05 -8.50597e-06 0)
(9.35167e-07 -6.31709e-06 0)
(9.74808e-06 -4.12496e-06 0)
(1.55947e-05 -1.97209e-06 0)
(1.85902e-05 7.99085e-08 0)
(1.89461e-05 1.94079e-06 0)
(1.70055e-05 3.4784e-06 0)
(1.32794e-05 4.50094e-06 0)
(8.49823e-06 4.73271e-06 0)
(3.80873e-06 3.80882e-06 0)
(8.33189e-07 1.49786e-06 0)
(1.17196e-06 -3.96594e-06 0)
(4.80859e-06 -8.35033e-06 0)
(1.00186e-05 -9.74853e-06 0)
(1.47328e-05 -8.72542e-06 0)
(1.7586e-05 -5.90542e-06 0)
(1.76511e-05 -1.81751e-06 0)
(1.42374e-05 3.12579e-06 0)
(6.85295e-06 8.61404e-06 0)
(-4.82741e-06 1.44202e-05 0)
(-2.09957e-05 2.03793e-05 0)
(-4.17437e-05 2.63708e-05 0)
(-6.70851e-05 3.23071e-05 0)
(-9.69749e-05 3.81246e-05 0)
(-0.000131324 4.3777e-05 0)
(-0.000170011 4.9232e-05 0)
(-0.000212887 5.44665e-05 0)
(-0.000259789 5.94644e-05 0)
(-0.000310538 6.4215e-05 0)
(-0.000364947 6.8712e-05 0)
(-0.000422824 7.29524e-05 0)
(-0.000483973 7.69358e-05 0)
(-0.000548197 8.06638e-05 0)
(-0.000615301 8.4139e-05 0)
(-0.000685089 8.73656e-05 0)
(-0.00075737 9.03487e-05 0)
(-0.000831953 9.3094e-05 0)
(-0.000908655 9.56078e-05 0)
(-0.000987295 9.78963e-05 0)
(-0.0010677 9.99665e-05 0)
(-0.00114969 0.000101825 0)
(-0.00123311 0.00010348 0)
(-0.0013178 0.000104938 0)
(-0.00140359 0.000106207 0)
(-0.00149035 0.000107293 0)
(-0.00157793 0.000108204 0)
(-0.00166618 0.000108947 0)
(-0.00175499 0.000109529 0)
(-0.00184421 0.000109956 0)
(-0.00193373 0.000110234 0)
(-0.00202343 0.000110372 0)
(-0.00211319 0.000110374 0)
(-0.00220292 0.000110246 0)
(-0.0022925 0.000109995 0)
(-0.00238184 0.000109627 0)
(-0.00247085 0.000109146 0)
(-0.00255943 0.000108558 0)
(-0.0026475 0.000107869 0)
(-0.00273499 0.000107082 0)
(-0.0028218 0.000106203 0)
(-0.00290787 0.000105236 0)
(-0.00299313 0.000104186 0)
(-0.00307752 0.000103056 0)
(-0.00316095 0.00010185 0)
(-0.00324339 0.000100573 0)
(-0.00332477 9.92279e-05 0)
(-0.00340503 9.78178e-05 0)
(-0.00348412 9.6346e-05 0)
(-0.003562 9.48157e-05 0)
(-0.00363861 9.32297e-05 0)
(-0.00371392 9.15909e-05 0)
(-0.00378787 8.99018e-05 0)
(-0.00386043 8.81648e-05 0)
(-0.00393156 8.63823e-05 0)
(-0.00400123 8.45565e-05 0)
(-0.00406939 8.26895e-05 0)
(-0.00413602 8.07833e-05 0)
(-0.00420109 7.88397e-05 0)
(-0.00426455 7.68605e-05 0)
(-0.0043264 7.48476e-05 0)
(-0.00438659 7.28024e-05 0)
(-0.0044451 7.07266e-05 0)
(-0.00450191 6.86213e-05 0)
(-0.00455699 6.64882e-05 0)
(-0.00461032 6.43285e-05 0)
(-0.00466188 6.21435e-05 0)
(-0.00471166 5.99345e-05 0)
(-0.00475962 5.77027e-05 0)
(-0.00480575 5.54491e-05 0)
(-0.00485004 5.31748e-05 0)
(-0.00489246 5.08808e-05 0)
(-0.00493301 4.85682e-05 0)
(-0.00497166 4.62379e-05 0)
(-0.00500841 4.38909e-05 0)
(-0.00504323 4.1528e-05 0)
(-0.00507612 3.91503e-05 0)
(-0.00510707 3.67585e-05 0)
(-0.00513606 3.43534e-05 0)
(-0.00516308 3.19358e-05 0)
(-0.00518813 2.95065e-05 0)
(-0.00521118 2.70664e-05 0)
(-0.00523225 2.46163e-05 0)
(-0.00525131 2.2157e-05 0)
(-0.00526836 1.96892e-05 0)
(-0.00528339 1.72138e-05 0)
(-0.00529641 1.47313e-05 0)
(-0.00530739 1.22428e-05 0)
(-0.00531634 9.7488e-06 0)
(-0.00532326 7.25021e-06 0)
(-0.00532813 4.74774e-06 0)
(-0.00533096 2.24215e-06 0)
(-0.00533175 -2.65788e-07 0)
(-0.00533049 -2.77523e-06 0)
(-0.00532718 -5.28538e-06 0)
(-0.00532183 -7.79554e-06 0)
(-0.00531442 -1.0305e-05 0)
(-0.00530498 -1.28129e-05 0)
(-0.00529348 -1.53186e-05 0)
(-0.00527995 -1.78211e-05 0)
(-0.00526437 -2.03196e-05 0)
(-0.00524676 -2.28133e-05 0)
(-0.00522712 -2.53013e-05 0)
(-0.00520545 -2.77828e-05 0)
(-0.00518176 -3.02569e-05 0)
(-0.00515605 -3.27228e-05 0)
(-0.00512834 -3.51794e-05 0)
(-0.00509863 -3.76258e-05 0)
(-0.00506693 -4.00611e-05 0)
(-0.00503325 -4.24843e-05 0)
(-0.0049976 -4.48945e-05 0)
(-0.00496 -4.72905e-05 0)
(-0.00492044 -4.96712e-05 0)
(-0.00487895 -5.20355e-05 0)
(-0.00483555 -5.43823e-05 0)
(-0.00479024 -5.67104e-05 0)
(-0.00474304 -5.90186e-05 0)
(-0.00469397 -6.13056e-05 0)
(-0.00464304 -6.357e-05 0)
(-0.00459028 -6.58103e-05 0)
(-0.00453571 -6.80253e-05 0)
(-0.00447935 -7.02132e-05 0)
(-0.00442122 -7.23725e-05 0)
(-0.00436134 -7.45015e-05 0)
(-0.00429975 -7.65986e-05 0)
(-0.00423646 -7.86618e-05 0)
(-0.00417151 -8.06892e-05 0)
(-0.00410493 -8.26787e-05 0)
(-0.00403675 -8.46283e-05 0)
(-0.003967 -8.65358e-05 0)
(-0.00389572 -8.83988e-05 0)
(-0.00382295 -9.0215e-05 0)
(-0.00374873 -9.19819e-05 0)
(-0.00367309 -9.36966e-05 0)
(-0.00359608 -9.53564e-05 0)
(-0.00351776 -9.69582e-05 0)
(-0.00343816 -9.84989e-05 0)
(-0.00335734 -9.99753e-05 0)
(-0.00327535 -0.000101384 0)
(-0.00319225 -0.000102722 0)
(-0.00310811 -0.000103984 0)
(-0.00302298 -0.000105168 0)
(-0.00293692 -0.000106268 0)
(-0.00285002 -0.000107281 0)
(-0.00276234 -0.000108203 0)
(-0.00267396 -0.000109028 0)
(-0.00258496 -0.000109751 0)
(-0.00249543 -0.000110369 0)
(-0.00240545 -0.000110875 0)
(-0.00231511 -0.000111265 0)
(-0.00222452 -0.000111532 0)
(-0.00213378 -0.000111672 0)
(-0.00204298 -0.000111677 0)
(-0.00195225 -0.000111542 0)
(-0.0018617 -0.000111262 0)
(-0.00177145 -0.000110828 0)
(-0.00168163 -0.000110235 0)
(-0.00159236 -0.000109477 0)
(-0.00150379 -0.000108546 0)
(-0.00141605 -0.000107436 0)
(-0.00132929 -0.000106139 0)
(-0.00124367 -0.000104649 0)
(-0.00115934 -0.000102958 0)
(-0.00107646 -0.000101059 0)
(-0.00099521 -9.89467e-05 0)
(-0.000915756 -9.66126e-05 0)
(-0.000838275 -9.40507e-05 0)
(-0.000762953 -9.12546e-05 0)
(-0.000689974 -8.82184e-05 0)
(-0.00061953 -8.49369e-05 0)
(-0.000551814 -8.14053e-05 0)
(-0.000487021 -7.762e-05 0)
(-0.00042535 -7.35783e-05 0)
(-0.000366997 -6.92791e-05 0)
(-0.000312158 -6.47235e-05 0)
(-0.000261025 -5.99146e-05 0)
(-0.000213786 -5.48591e-05 0)
(-0.000170617 -4.95678e-05 0)
(-0.000131683 -4.4057e-05 0)
(-9.71291e-05 -3.835e-05 0)
(-6.70775e-05 -3.24799e-05 0)
(-4.16155e-05 -2.64928e-05 0)
(-2.07864e-05 -2.04519e-05 0)
(-4.57399e-06 -1.44443e-05 0)
(7.11523e-06 -8.58977e-06 0)
(1.44765e-05 -3.05311e-06 0)
(1.78382e-05 1.93836e-06 0)
(1.76997e-05 6.07332e-06 0)
(1.47621e-05 8.93175e-06 0)
(9.96801e-06 9.96329e-06 0)
(4.73457e-06 8.49896e-06 0)
(1.1139e-06 3.91639e-06 0)
(1.14199e-06 -6.72103e-06 0)
(4.54416e-06 -1.31765e-05 0)
(8.98191e-06 -1.45195e-05 0)
(1.21836e-05 -1.19084e-05 0)
(1.26321e-05 -6.30693e-06 0)
(9.28908e-06 1.46787e-06 0)
(1.35804e-06 1.07598e-05 0)
(-1.17464e-05 2.10581e-05 0)
(-3.04241e-05 3.19737e-05 0)
(-5.49269e-05 4.32124e-05 0)
(-8.53859e-05 5.45529e-05 0)
(-0.000121837 6.58299e-05 0)
(-0.000164242 7.69188e-05 0)
(-0.000212503 8.77273e-05 0)
(-0.000266477 9.81876e-05 0)
(-0.000325988 0.00010825 0)
(-0.000390833 0.000117881 0)
(-0.000460789 0.000127055 0)
(-0.000535622 0.000135756 0)
(-0.000615084 0.000143976 0)
(-0.000698924 0.000151711 0)
(-0.000786887 0.000158961 0)
(-0.000878718 0.00016573 0)
(-0.000974162 0.000172024 0)
(-0.00107296 0.00017785 0)
(-0.00117488 0.000183219 0)
(-0.00127965 0.00018814 0)
(-0.00138706 0.000192627 0)
(-0.00149685 0.000196691 0)
(-0.0016088 0.000200345 0)
(-0.0017227 0.000203603 0)
(-0.00183832 0.000206477 0)
(-0.00195546 0.000208982 0)
(-0.00207392 0.000211131 0)
(-0.00219349 0.000212937 0)
(-0.00231401 0.000214414 0)
(-0.00243528 0.000215575 0)
(-0.00255712 0.000216432 0)
(-0.00267939 0.000216999 0)
(-0.00280191 0.000217288 0)
(-0.00292454 0.000217311 0)
(-0.00304712 0.000217079 0)
(-0.00316952 0.000216604 0)
(-0.0032916 0.000215898 0)
(-0.00341323 0.000214969 0)
(-0.0035343 0.00021383 0)
(-0.00365468 0.000212489 0)
(-0.00377427 0.000210957 0)
(-0.00389296 0.000209241 0)
(-0.00401064 0.000207353 0)
(-0.00412722 0.000205299 0)
(-0.00424261 0.000203087 0)
(-0.00435673 0.000200726 0)
(-0.00446948 0.000198222 0)
(-0.00458079 0.000195584 0)
(-0.00469058 0.000192816 0)
(-0.00479878 0.000189926 0)
(-0.00490533 0.00018692 0)
(-0.00501015 0.000183803 0)
(-0.00511319 0.000180581 0)
(-0.00521439 0.000177259 0)
(-0.00531369 0.000173842 0)
(-0.00541104 0.000170334 0)
(-0.00550639 0.00016674 0)
(-0.00559968 0.000163065 0)
(-0.00569088 0.000159311 0)
(-0.00577994 0.000155483 0)
(-0.00586681 0.000151584 0)
(-0.00595147 0.000147617 0)
(-0.00603386 0.000143587 0)
(-0.00611397 0.000139496 0)
(-0.00619174 0.000135346 0)
(-0.00626715 0.000131141 0)
(-0.00634016 0.000126883 0)
(-0.00641076 0.000122575 0)
(-0.0064789 0.000118219 0)
(-0.00654456 0.000113817 0)
(-0.00660773 0.000109372 0)
(-0.00666836 0.000104886 0)
(-0.00672645 0.000100362 0)
(-0.00678196 9.57996e-05 0)
(-0.00683488 9.12026e-05 0)
(-0.00688519 8.65723e-05 0)
(-0.00693287 8.19106e-05 0)
(-0.0069779 7.72191e-05 0)
(-0.00702026 7.24997e-05 0)
(-0.00705995 6.77541e-05 0)
(-0.00709694 6.29839e-05 0)
(-0.00713122 5.81906e-05 0)
(-0.00716278 5.33758e-05 0)
(-0.00719161 4.85412e-05 0)
(-0.0072177 4.36884e-05 0)
(-0.00724103 3.88188e-05 0)
(-0.0072616 3.39341e-05 0)
(-0.0072794 2.90357e-05 0)
(-0.00729443 2.41251e-05 0)
(-0.00730666 1.92039e-05 0)
(-0.00731611 1.42737e-05 0)
(-0.00732277 9.33591e-06 0)
(-0.00732662 4.39207e-06 0)
(-0.00732768 -5.56392e-07 0)
(-0.00732593 -5.50795e-06 0)
(-0.00732137 -1.0461e-05 0)
(-0.00731402 -1.54138e-05 0)
(-0.00730385 -2.0365e-05 0)
(-0.00729089 -2.53131e-05 0)
(-0.00727512 -3.02564e-05 0)
(-0.00725656 -3.51935e-05 0)
(-0.0072352 -4.01226e-05 0)
(-0.00721106 -4.5042e-05 0)
(-0.00718413 -4.99501e-05 0)
(-0.00715443 -5.48451e-05 0)
(-0.00712197 -5.97253e-05 0)
(-0.00708674 -6.45889e-05 0)
(-0.00704877 -6.94341e-05 0)
(-0.00700807 -7.42591e-05 0)
(-0.00696463 -7.90618e-05 0)
(-0.00691849 -8.38405e-05 0)
(-0.00686965 -8.85929e-05 0)
(-0.00681814 -9.33171e-05 0)
(-0.00676395 -9.8011e-05 0)
(-0.00670713 -0.000102672 0)
(-0.00664767 -0.000107298 0)
(-0.00658561 -0.000111887 0)
(-0.00652097 -0.000116437 0)
(-0.00645377 -0.000120944 0)
(-0.00638404 -0.000125405 0)
(-0.0063118 -0.00012982 0)
(-0.00623708 -0.000134183 0)
(-0.00615991 -0.000138493 0)
(-0.00608032 -0.000142745 0)
(-0.00599835 -0.000146938 0)
(-0.00591403 -0.000151066 0)
(-0.0058274 -0.000155128 0)
(-0.0057385 -0.000159118 0)
(-0.00564738 -0.000163033 0)
(-0.00555406 -0.000166868 0)
(-0.00545861 -0.00017062 0)
(-0.00536108 -0.000174284 0)
(-0.0052615 -0.000177854 0)
(-0.00515995 -0.000181327 0)
(-0.00505647 -0.000184695 0)
(-0.00495113 -0.000187955 0)
(-0.00484399 -0.000191099 0)
(-0.00473512 -0.000194123 0)
(-0.00462458 -0.000197019 0)
(-0.00451246 -0.00019978 0)
(-0.00439884 -0.000202401 0)
(-0.00428379 -0.000204873 0)
(-0.0041674 -0.000207188 0)
(-0.00404977 -0.00020934 0)
(-0.00393098 -0.000211318 0)
(-0.00381115 -0.000213115 0)
(-0.00369037 -0.000214722 0)
(-0.00356875 -0.000216129 0)
(-0.00344642 -0.000217327 0)
(-0.00332349 -0.000218304 0)
(-0.00320008 -0.000219052 0)
(-0.00307634 -0.000219559 0)
(-0.00295241 -0.000219815 0)
(-0.00282841 -0.000219806 0)
(-0.00270452 -0.000219523 0)
(-0.00258088 -0.000218953 0)
(-0.00245766 -0.000218083 0)
(-0.00233503 -0.000216901 0)
(-0.00221317 -0.000215394 0)
(-0.00209226 -0.00021355 0)
(-0.0019725 -0.000211356 0)
(-0.00185408 -0.000208797 0)
(-0.00173721 -0.000205861 0)
(-0.00162209 -0.000202535 0)
(-0.00150896 -0.000198805 0)
(-0.00139803 -0.00019466 0)
(-0.00128954 -0.000190086 0)
(-0.00118372 -0.000185071 0)
(-0.00108082 -0.000179605 0)
(-0.000981078 -0.000173677 0)
(-0.000884753 -0.000167278 0)
(-0.000792098 -0.000160401 0)
(-0.00070337 -0.000153041 0)
(-0.000618824 -0.000145194 0)
(-0.000538718 -0.000136861 0)
(-0.000463302 -0.000128047 0)
(-0.000392823 -0.00011876 0)
(-0.000327516 -0.000109018 0)
(-0.000267603 -9.88453e-05 0)
(-0.000213285 -8.82775e-05 0)
(-0.000164738 -7.73645e-05 0)
(-0.000122102 -6.61746e-05 0)
(-8.5473e-05 -5.48002e-05 0)
(-5.48862e-05 -4.33656e-05 0)
(-3.03026e-05 -3.20367e-05 0)
(-1.15868e-05 -2.10352e-05 0)
(1.51711e-06 -1.06565e-05 0)
(9.41741e-06 -1.2925e-06 0)
(1.27095e-05 6.54077e-06 0)
(1.22018e-05 1.21733e-05 0)
(8.95202e-06 1.47605e-05 0)
(4.50869e-06 1.32857e-05 0)
(1.11331e-06 6.58315e-06 0)
(9.53499e-07 -9.02577e-06 0)
(3.49988e-06 -1.69297e-05 0)
(6.12589e-06 -1.74605e-05 0)
(6.59861e-06 -1.23904e-05 0)
(3.36922e-06 -3.05711e-06 0)
(-4.65278e-06 9.42602e-06 0)
(-1.83138e-05 2.41553e-05 0)
(-3.82464e-05 4.04152e-05 0)
(-6.48959e-05 5.76448e-05 0)
(-9.85504e-05 7.54087e-05 0)
(-0.000139369 9.33717e-05 0)
(-0.000187404 0.000111276 0)
(-0.000242625 0.000128925 0)
(-0.000304931 0.000146169 0)
(-0.000374164 0.000162895 0)
(-0.000450128 0.00017902 0)
(-0.00053259 0.000194481 0)
(-0.000621295 0.000209236 0)
(-0.000715966 0.000223254 0)
(-0.000816315 0.000236518 0)
(-0.000922043 0.000249018 0)
(-0.00103285 0.00026075 0)
(-0.00114842 0.000271717 0)
(-0.00126845 0.000281927 0)
(-0.00139264 0.00029139 0)
(-0.00152069 0.00030012 0)
(-0.00165228 0.000308132 0)
(-0.00178714 0.000315444 0)
(-0.00192497 0.000322075 0)
(-0.0020655 0.000328044 0)
(-0.00220845 0.000333371 0)
(-0.00235355 0.000338077 0)
(-0.00250056 0.000342184 0)
(-0.00264922 0.000345712 0)
(-0.00279928 0.000348684 0)
(-0.00295052 0.000351119 0)
(-0.00310272 0.000353039 0)
(-0.00325565 0.000354465 0)
(-0.00340912 0.000355417 0)
(-0.00356292 0.000355914 0)
(-0.00371686 0.000355976 0)
(-0.00387075 0.000355622 0)
(-0.00402443 0.000354869 0)
(-0.00417772 0.000353736 0)
(-0.00433047 0.000352241 0)
(-0.00448252 0.000350399 0)
(-0.00463371 0.000348226 0)
(-0.00478393 0.000345739 0)
(-0.00493302 0.000342951 0)
(-0.00508086 0.000339878 0)
(-0.00522734 0.000336532 0)
(-0.00537232 0.000332928 0)
(-0.00551572 0.000329077 0)
(-0.00565741 0.000324992 0)
(-0.0057973 0.000320683 0)
(-0.00593529 0.000316163 0)
(-0.00607129 0.00031144 0)
(-0.00620523 0.000306525 0)
(-0.006337 0.000301428 0)
(-0.00646654 0.000296157 0)
(-0.00659377 0.000290721 0)
(-0.00671862 0.000285128 0)
(-0.00684102 0.000279385 0)
(-0.00696091 0.0002735 0)
(-0.00707823 0.000267479 0)
(-0.00719291 0.000261329 0)
(-0.00730491 0.000255056 0)
(-0.00741417 0.000248667 0)
(-0.00752064 0.000242166 0)
(-0.00762427 0.000235559 0)
(-0.00772501 0.000228851 0)
(-0.00782283 0.000222047 0)
(-0.00791768 0.000215151 0)
(-0.00800952 0.000208168 0)
(-0.00809831 0.000201102 0)
(-0.00818402 0.000193957 0)
(-0.00826662 0.000186737 0)
(-0.00834607 0.000179445 0)
(-0.00842234 0.000172085 0)
(-0.00849541 0.000164661 0)
(-0.00856523 0.000157176 0)
(-0.0086318 0.000149633 0)
(-0.00869508 0.000142035 0)
(-0.00875505 0.000134385 0)
(-0.00881169 0.000126686 0)
(-0.00886498 0.000118941 0)
(-0.00891489 0.000111152 0)
(-0.00896141 0.000103323 0)
(-0.00900453 9.54567e-05 0)
(-0.00904422 8.75546e-05 0)
(-0.00908047 7.96199e-05 0)
(-0.00911327 7.16552e-05 0)
(-0.00914261 6.3663e-05 0)
(-0.00916847 5.56459e-05 0)
(-0.00919084 4.76064e-05 0)
(-0.00920972 3.95469e-05 0)
(-0.00922509 3.147e-05 0)
(-0.00923695 2.33783e-05 0)
(-0.0092453 1.52743e-05 0)
(-0.00925012 7.16033e-06 0)
(-0.00925142 -9.60945e-07 0)
(-0.00924919 -9.08714e-06 0)
(-0.00924343 -1.72157e-05 0)
(-0.00923414 -2.53441e-05 0)
(-0.00922133 -3.34696e-05 0)
(-0.00920499 -4.15897e-05 0)
(-0.00918512 -4.97018e-05 0)
(-0.00916173 -5.78033e-05 0)
(-0.00913483 -6.58915e-05 0)
(-0.00910443 -7.39637e-05 0)
(-0.00907052 -8.2017e-05 0)
(-0.00903312 -9.00486e-05 0)
(-0.00899225 -9.80556e-05 0)
(-0.0089479 -0.000106035 0)
(-0.0089001 -0.000113984 0)
(-0.00884886 -0.000121899 0)
(-0.00879419 -0.000129778 0)
(-0.00873611 -0.000137616 0)
(-0.00867464 -0.000145411 0)
(-0.0086098 -0.00015316 0)
(-0.00854162 -0.000160858 0)
(-0.00847011 -0.000168502 0)
(-0.00839529 -0.000176088 0)
(-0.00831721 -0.000183612 0)
(-0.00823587 -0.000191071 0)
(-0.00815133 -0.000198459 0)
(-0.00806359 -0.000205773 0)
(-0.00797271 -0.000213008 0)
(-0.00787871 -0.000220159 0)
(-0.00778164 -0.000227221 0)
(-0.00768153 -0.000234188 0)
(-0.00757843 -0.000241056 0)
(-0.00747239 -0.000247819 0)
(-0.00736344 -0.000254471 0)
(-0.00725164 -0.000261004 0)
(-0.00713705 -0.000267414 0)
(-0.00701972 -0.000273692 0)
(-0.00689971 -0.000279832 0)
(-0.00677708 -0.000285826 0)
(-0.0066519 -0.000291667 0)
(-0.00652424 -0.000297345 0)
(-0.00639417 -0.000302852 0)
(-0.00626177 -0.00030818 0)
(-0.00612711 -0.000313317 0)
(-0.00599029 -0.000318256 0)
(-0.0058514 -0.000322983 0)
(-0.00571052 -0.00032749 0)
(-0.00556776 -0.000331764 0)
(-0.00542322 -0.000335794 0)
(-0.00527702 -0.000339566 0)
(-0.00512926 -0.000343068 0)
(-0.00498007 -0.000346287 0)
(-0.00482957 -0.000349207 0)
(-0.0046779 -0.000351814 0)
(-0.00452519 -0.000354094 0)
(-0.0043716 -0.00035603 0)
(-0.00421727 -0.000357606 0)
(-0.00406236 -0.000358805 0)
(-0.00390704 -0.00035961 0)
(-0.00375148 -0.000360002 0)
(-0.00359587 -0.000359964 0)
(-0.00344039 -0.000359477 0)
(-0.00328524 -0.00035852 0)
(-0.00313063 -0.000357075 0)
(-0.00297676 -0.000355122 0)
(-0.00282387 -0.00035264 0)
(-0.00267217 -0.000349608 0)
(-0.00252191 -0.000346007 0)
(-0.00237333 -0.000341814 0)
(-0.00222669 -0.00033701 0)
(-0.00208225 -0.000331574 0)
(-0.00194027 -0.000325485 0)
(-0.00180104 -0.000318724 0)
(-0.00166484 -0.000311273 0)
(-0.00153196 -0.000303112 0)
(-0.0014027 -0.000294227 0)
(-0.00127735 -0.000284601 0)
(-0.00115623 -0.000274223 0)
(-0.00103964 -0.000263083 0)
(-0.000927887 -0.000251174 0)
(-0.000821283 -0.000238496 0)
(-0.000720132 -0.000225051 0)
(-0.000624732 -0.000210852 0)
(-0.000535373 -0.000195917 0)
(-0.000452329 -0.000180277 0)
(-0.000375856 -0.000163977 0)
(-0.000306184 -0.000147079 0)
(-0.00024351 -0.000129669 0)
(-0.000187985 -0.000111858 0)
(-0.000139709 -9.37994e-05 0)
(-9.87094e-05 -7.56891e-05 0)
(-6.4929e-05 -5.77862e-05 0)
(-3.8203e-05 -4.04281e-05 0)
(-1.82365e-05 -2.40527e-05 0)
(-4.57532e-06 -9.22536e-06 0)
(3.42458e-06 3.32868e-06 0)
(6.62138e-06 1.26895e-05 0)
(6.12311e-06 1.77168e-05 0)
(3.49729e-06 1.70282e-05 0)
(9.44605e-07 8.89423e-06 0)
(6.80102e-07 -1.06349e-05 0)
(1.96125e-06 -1.8905e-05 0)
(2.01757e-06 -1.76348e-05 0)
(-1.15668e-06 -9.1215e-06 0)
(-9.04448e-06 4.9381e-06 0)
(-2.27376e-05 2.3143e-05 0)
(-4.30879e-05 4.43497e-05 0)
(-7.07403e-05 6.76389e-05 0)
(-0.000106156 9.22782e-05 0)
(-0.00014964 0.000117688 0)
(-0.000201365 0.000143411 0)
(-0.000261393 0.00016909 0)
(-0.000329696 0.000194448 0)
(-0.000406168 0.00021927 0)
(-0.000490646 0.000243389 0)
(-0.000582912 0.000266682 0)
(-0.000682715 0.000289053 0)
(-0.000789769 0.000310436 0)
(-0.000903768 0.000330782 0)
(-0.00102439 0.000350059 0)
(-0.00115129 0.000368248 0)
(-0.00128413 0.000385342 0)
(-0.00142255 0.000401341 0)
(-0.00156621 0.000416252 0)
(-0.00171475 0.000430087 0)