/*--------------------------------*- C++ -*----------------------------------*\
  =========                 |
  \\      /  F ield         | OpenFOAM: The Open Source CFD Toolbox
   \\    /   O peration     | Website:  https://openfoam.org
    \\  /    A nd           | Version:  7
     \\/     M anipulation  |
\*---------------------------------------------------------------------------*/
FoamFile
{
    version     2.0;
    format      ascii;
    class       volVectorField;
    location    "0.2";
    object      U;
}
// * * * * * * * * * * * * * * * * * * * * * * * * * * * * * * * * * * * * * //

dimensions      [0 1 -1 0 0 0 0];

internalField   nonuniform List<vector> 
20000
(
(2.67081e-06 -2.94574e-06 0)
(1.15464e-05 -5.61541e-06 0)
(2.26279e-05 -5.22962e-06 0)
(3.02154e-05 -3.43106e-06 0)
(3.12965e-05 -1.04869e-06 0)
(2.50194e-05 1.47841e-06 0)
(1.12352e-05 3.92472e-06 0)
(-9.80144e-06 6.1688e-06 0)
(-3.75654e-05 8.18832e-06 0)
(-7.13833e-05 9.95692e-06 0)
(-0.000110574 1.14785e-05 0)
(-0.000154443 1.27685e-05 0)
(-0.000202321 1.38454e-05 0)
(-0.000253579 1.47294e-05 0)
(-0.000307645 1.5442e-05 0)
(-0.000364002 1.60059e-05 0)
(-0.000422196 1.64428e-05 0)
(-0.000481827 1.67709e-05 0)
(-0.000542552 1.70063e-05 0)
(-0.000604081 1.71649e-05 0)
(-0.00066617 1.72615e-05 0)
(-0.000728617 1.73096e-05 0)
(-0.00079126 1.73198e-05 0)
(-0.000853968 1.73008e-05 0)
(-0.000916639 1.72599e-05 0)
(-0.000979192 1.72027e-05 0)
(-0.00104157 1.71342e-05 0)
(-0.00110373 1.70585e-05 0)
(-0.00116563 1.69793e-05 0)
(-0.00122726 1.68989e-05 0)
(-0.00128861 1.68187e-05 0)
(-0.00134967 1.67393e-05 0)
(-0.00141042 1.66614e-05 0)
(-0.00147089 1.65854e-05 0)
(-0.00153105 1.65116e-05 0)
(-0.00159093 1.64402e-05 0)
(-0.00165051 1.63711e-05 0)
(-0.00170981 1.63041e-05 0)
(-0.00176882 1.62386e-05 0)
(-0.00182755 1.61742e-05 0)
(-0.00188599 1.61106e-05 0)
(-0.00194416 1.60476e-05 0)
(-0.00200204 1.59853e-05 0)
(-0.00205965 1.59232e-05 0)
(-0.00211697 1.5861e-05 0)
(-0.00217401 1.57987e-05 0)
(-0.00223076 1.57361e-05 0)
(-0.00228723 1.5673e-05 0)
(-0.0023434 1.56092e-05 0)
(-0.00239929 1.55446e-05 0)
(-0.00245488 1.54792e-05 0)
(-0.00251017 1.54131e-05 0)
(-0.00256516 1.53465e-05 0)
(-0.00261985 1.52793e-05 0)
(-0.00267423 1.52113e-05 0)
(-0.0027283 1.51422e-05 0)
(-0.00278206 1.5072e-05 0)
(-0.00283551 1.50009e-05 0)
(-0.00288863 1.49293e-05 0)
(-0.00294144 1.48572e-05 0)
(-0.00299392 1.47846e-05 0)
(-0.00304608 1.47111e-05 0)
(-0.00309791 1.46366e-05 0)
(-0.00314941 1.45612e-05 0)
(-0.00320058 1.44853e-05 0)
(-0.00325142 1.44091e-05 0)
(-0.00330192 1.43327e-05 0)
(-0.00335208 1.42559e-05 0)
(-0.00340191 1.41784e-05 0)
(-0.0034514 1.41006e-05 0)
(-0.00350055 1.40226e-05 0)
(-0.00354936 1.39445e-05 0)
(-0.00359783 1.38665e-05 0)
(-0.00364595 1.37883e-05 0)
(-0.00369374 1.37099e-05 0)
(-0.00374119 1.36316e-05 0)
(-0.0037883 1.35533e-05 0)
(-0.00383506 1.34749e-05 0)
(-0.00388149 1.33964e-05 0)
(-0.00392757 1.33177e-05 0)
(-0.00397331 1.3239e-05 0)
(-0.0040187 1.31604e-05 0)
(-0.00406376 1.30817e-05 0)
(-0.00410847 1.3003e-05 0)
(-0.00415284 1.29242e-05 0)
(-0.00419687 1.28452e-05 0)
(-0.00424055 1.27663e-05 0)
(-0.00428389 1.26874e-05 0)
(-0.00432689 1.26088e-05 0)
(-0.00436955 1.25301e-05 0)
(-0.00441186 1.24512e-05 0)
(-0.00445382 1.23719e-05 0)
(-0.00449544 1.2292e-05 0)
(-0.00453671 1.22117e-05 0)
(-0.00457762 1.21308e-05 0)
(-0.00461818 1.2049e-05 0)
(-0.00465837 1.19659e-05 0)
(-0.0046982 1.18812e-05 0)
(-0.00473766 1.17948e-05 0)
(-0.00477674 1.17067e-05 0)
(-0.00481544 1.16166e-05 0)
(-0.00485374 1.15241e-05 0)
(-0.00489163 1.1429e-05 0)
(-0.00492912 1.13308e-05 0)
(-0.00496618 1.12293e-05 0)
(-0.0050028 1.11241e-05 0)
(-0.00503897 1.10147e-05 0)
(-0.00507467 1.09003e-05 0)
(-0.00510988 1.07805e-05 0)
(-0.00514459 1.06547e-05 0)
(-0.00517876 1.05222e-05 0)
(-0.00521238 1.03824e-05 0)
(-0.00524542 1.02346e-05 0)
(-0.00527785 1.00779e-05 0)
(-0.00530963 9.9115e-06 0)
(-0.00534074 9.73467e-06 0)
(-0.00537114 9.54666e-06 0)
(-0.00540078 9.3466e-06 0)
(-0.00542962 9.13344e-06 0)
(-0.00545762 8.90594e-06 0)
(-0.00548472 8.66283e-06 0)
(-0.00551088 8.40291e-06 0)
(-0.00553603 8.12505e-06 0)
(-0.0055601 7.82797e-06 0)
(-0.00558304 7.5103e-06 0)
(-0.00560477 7.17054e-06 0)
(-0.00562522 6.80725e-06 0)
(-0.0056443 6.41904e-06 0)
(-0.00566193 6.00453e-06 0)
(-0.00567802 5.56222e-06 0)
(-0.00569248 5.09048e-06 0)
(-0.00570521 4.58765e-06 0)
(-0.00571609 4.05208e-06 0)
(-0.00572504 3.4822e-06 0)
(-0.00573191 2.87638e-06 0)
(-0.00573661 2.233e-06 0)
(-0.005739 1.55047e-06 0)
(-0.00573895 8.27299e-07 0)
(-0.00573633 6.20805e-08 0)
(-0.00573101 -7.46471e-07 0)
(-0.00572284 -1.59957e-06 0)
(-0.00571167 -2.49838e-06 0)
(-0.00569736 -3.44396e-06 0)
(-0.00567975 -4.43723e-06 0)
(-0.0056587 -5.47885e-06 0)
(-0.00563405 -6.56925e-06 0)
(-0.00560564 -7.70856e-06 0)
(-0.00557332 -8.89677e-06 0)
(-0.00553693 -1.01336e-05 0)
(-0.00549632 -1.14186e-05 0)
(-0.00545135 -1.27506e-05 0)
(-0.00540186 -1.41283e-05 0)
(-0.00534772 -1.55497e-05 0)
(-0.00528879 -1.70128e-05 0)
(-0.00522496 -1.8515e-05 0)
(-0.00515609 -2.00535e-05 0)
(-0.00508209 -2.16245e-05 0)
(-0.00500287 -2.32239e-05 0)
(-0.00491835 -2.48473e-05 0)
(-0.00482846 -2.64894e-05 0)
(-0.00473317 -2.81446e-05 0)
(-0.00463244 -2.98065e-05 0)
(-0.00452627 -3.14683e-05 0)
(-0.00441469 -3.31225e-05 0)
(-0.00429773 -3.47611e-05 0)
(-0.00417547 -3.63754e-05 0)
(-0.004048 -3.79563e-05 0)
(-0.00391547 -3.94938e-05 0)
(-0.00377804 -4.09775e-05 0)
(-0.0036359 -4.23965e-05 0)
(-0.00348929 -4.37392e-05 0)
(-0.00333849 -4.49936e-05 0)
(-0.0031838 -4.61473e-05 0)
(-0.0030256 -4.71871e-05 0)
(-0.00286426 -4.80995e-05 0)
(-0.00270025 -4.88705e-05 0)
(-0.00253406 -4.94855e-05 0)
(-0.00236622 -4.99299e-05 0)
(-0.00219732 -5.01884e-05 0)
(-0.002028 -5.02456e-05 0)
(-0.00185896 -5.00854e-05 0)
(-0.00169094 -4.96911e-05 0)
(-0.00152474 -4.90455e-05 0)
(-0.00136122 -4.81312e-05 0)
(-0.00120129 -4.69298e-05 0)
(-0.00104593 -4.54219e-05 0)
(-0.000896154 -4.35864e-05 0)
(-0.00075307 -4.14006e-05 0)
(-0.000617834 -3.88392e-05 0)
(-0.000491673 -3.58736e-05 0)
(-0.000375882 -3.24716e-05 0)
(-0.000271823 -2.85965e-05 0)
(-0.000180918 -2.42089e-05 0)
(-0.000104625 -1.92716e-05 0)
(-4.43803e-05 -1.37659e-05 0)
(-1.47413e-06 -7.73781e-06 0)
(2.3182e-05 -1.40415e-06 0)
(2.97082e-05 4.62381e-06 0)
(2.12765e-05 8.71038e-06 0)
(7.00145e-06 7.00984e-06 0)
(5.25087e-06 -1.14857e-05 0)
(1.90658e-05 -1.94423e-05 0)
(3.27781e-05 -1.58407e-05 0)
(3.64037e-05 -5.93866e-06 0)
(2.45363e-05 7.10303e-06 0)
(-5.16036e-06 2.1295e-05 0)
(-5.34632e-05 3.54649e-05 0)
(-0.000120098 4.89195e-05 0)
(-0.000204092 6.13234e-05 0)
(-0.000304059 7.24753e-05 0)
(-0.000418423 8.23084e-05 0)
(-0.000545519 9.08362e-05 0)
(-0.000683691 9.81174e-05 0)
(-0.000831345 0.000104237 0)
(-0.000986994 0.000109297 0)
(-0.00114927 0.000113408 0)
(-0.00131695 0.000116682 0)
(-0.00148894 0.000119228 0)
(-0.00166429 0.000121149 0)
(-0.00184219 0.000122539 0)
(-0.00202192 0.000123488 0)
(-0.0022029 0.000124073 0)
(-0.00238466 0.000124364 0)
(-0.00256679 0.00012442 0)
(-0.00274897 0.000124292 0)
(-0.00293095 0.000124022 0)
(-0.00311253 0.000123645 0)
(-0.00329355 0.000123189 0)
(-0.00347391 0.000122679 0)
(-0.00365352 0.000122131 0)
(-0.00383231 0.00012156 0)
(-0.00401025 0.000120976 0)
(-0.00418731 0.000120385 0)
(-0.00436348 0.000119792 0)
(-0.00453873 0.000119201 0)
(-0.00471306 0.000118613 0)
(-0.00488648 0.000118029 0)
(-0.00505898 0.000117449 0)
(-0.00523056 0.000116873 0)
(-0.00540122 0.0001163 0)
(-0.00557095 0.000115728 0)
(-0.00573977 0.000115156 0)
(-0.00590765 0.000114584 0)
(-0.0060746 0.00011401 0)
(-0.00624062 0.000113434 0)
(-0.00640569 0.000112854 0)
(-0.00656982 0.000112271 0)
(-0.00673299 0.000111682 0)
(-0.0068952 0.000111089 0)
(-0.00705643 0.000110491 0)
(-0.00721668 0.000109886 0)
(-0.00737595 0.000109276 0)
(-0.00753421 0.00010866 0)
(-0.00769147 0.000108038 0)
(-0.00784771 0.000107411 0)
(-0.00800293 0.000106778 0)
(-0.00815712 0.000106139 0)
(-0.00831026 0.000105494 0)
(-0.00846236 0.000104844 0)
(-0.0086134 0.000104189 0)
(-0.00876339 0.00010353 0)
(-0.0089123 0.000102866 0)
(-0.00906014 0.000102197 0)
(-0.0092069 0.000101525 0)
(-0.00935258 0.000100849 0)
(-0.00949717 0.000100169 0)
(-0.00964066 9.94874e-05 0)
(-0.00978306 9.8803e-05 0)
(-0.00992436 9.81165e-05 0)
(-0.0100646 9.7428e-05 0)
(-0.0102037 9.67381e-05 0)
(-0.0103417 9.60473e-05 0)
(-0.0104785 9.53556e-05 0)
(-0.0106143 9.46632e-05 0)
(-0.010749 9.39702e-05 0)
(-0.0108825 9.32769e-05 0)
(-0.011015 9.25833e-05 0)
(-0.0111463 9.18896e-05 0)
(-0.0112766 9.11957e-05 0)
(-0.0114057 9.05017e-05 0)
(-0.0115337 8.98075e-05 0)
(-0.0116606 8.91132e-05 0)
(-0.0117864 8.84188e-05 0)
(-0.0119111 8.77243e-05 0)
(-0.0120346 8.70296e-05 0)
(-0.0121571 8.63344e-05 0)
(-0.0122785 8.56386e-05 0)
(-0.0123987 8.49419e-05 0)
(-0.0125178 8.4244e-05 0)
(-0.0126359 8.35443e-05 0)
(-0.0127527 8.2842e-05 0)
(-0.0128685 8.21363e-05 0)
(-0.0129831 8.14262e-05 0)
(-0.0130966 8.07107e-05 0)
(-0.0132089 7.99888e-05 0)
(-0.0133201 7.92593e-05 0)
(-0.0134301 7.85206e-05 0)
(-0.0135389 7.77713e-05 0)
(-0.0136465 7.70099e-05 0)
(-0.0137529 7.62349e-05 0)
(-0.0138581 7.54444e-05 0)
(-0.0139619 7.46365e-05 0)
(-0.0140645 7.38089e-05 0)
(-0.0141657 7.29592e-05 0)
(-0.0142656 7.20846e-05 0)
(-0.0143641 7.11823e-05 0)
(-0.0144611 7.02491e-05 0)
(-0.0145566 6.92814e-05 0)
(-0.0146506 6.82756e-05 0)
(-0.014743 6.72278e-05 0)
(-0.0148337 6.61338e-05 0)
(-0.0149227 6.49894e-05 0)
(-0.0150099 6.37898e-05 0)
(-0.0150952 6.25303e-05 0)
(-0.0151785 6.12055e-05 0)
(-0.0152597 5.98101e-05 0)
(-0.0153387 5.83383e-05 0)
(-0.0154155 5.67839e-05 0)
(-0.0154898 5.51405e-05 0)
(-0.0155616 5.3401e-05 0)
(-0.0156307 5.15581e-05 0)
(-0.0156969 4.96042e-05 0)
(-0.0157602 4.75314e-05 0)
(-0.0158203 4.53318e-05 0)
(-0.015877 4.2997e-05 0)
(-0.0159302 4.05184e-05 0)
(-0.0159796 3.78872e-05 0)
(-0.0160251 3.50942e-05 0)
(-0.0160664 3.21303e-05 0)
(-0.0161032 2.89859e-05 0)
(-0.0161353 2.56514e-05 0)
(-0.0161625 2.2117e-05 0)
(-0.0161844 1.8373e-05 0)
(-0.0162007 1.44095e-05 0)
(-0.0162112 1.0217e-05 0)
(-0.0162156 5.78599e-06 0)
(-0.0162134 1.10733e-06 0)
(-0.0162043 -3.82775e-06 0)
(-0.0161881 -9.02761e-06 0)
(-0.0161643 -1.45e-05 0)
(-0.0161325 -2.02521e-05 0)
(-0.0160924 -2.62902e-05 0)
(-0.0160436 -3.26199e-05 0)
(-0.0159857 -3.92457e-05 0)
(-0.0159182 -4.6171e-05 0)
(-0.0158408 -5.33976e-05 0)
(-0.0157531 -6.0926e-05 0)
(-0.0156546 -6.87549e-05 0)
(-0.015545 -7.68814e-05 0)
(-0.0154238 -8.53005e-05 0)
(-0.0152907 -9.40052e-05 0)
(-0.0151453 -0.000102986 0)
(-0.0149873 -0.000112231 0)
(-0.0148162 -0.000121727 0)
(-0.0146319 -0.000131455 0)
(-0.0144339 -0.000141396 0)
(-0.014222 -0.000151528 0)
(-0.013996 -0.000161823 0)
(-0.0137558 -0.000172253 0)
(-0.013501 -0.000182785 0)
(-0.0132318 -0.000193381 0)
(-0.0129479 -0.000204004 0)
(-0.0126494 -0.000214608 0)
(-0.0123364 -0.000225147 0)
(-0.0120091 -0.000235569 0)
(-0.0116675 -0.000245821 0)
(-0.0113121 -0.000255843 0)
(-0.0109431 -0.000265574 0)
(-0.0105611 -0.000274947 0)
(-0.0101666 -0.000283892 0)
(-0.00976016 -0.000292337 0)
(-0.00934264 -0.000300205 0)
(-0.00891487 -0.000307414 0)
(-0.0084778 -0.000313883 0)
(-0.00803254 -0.000319523 0)
(-0.00758029 -0.000324246 0)
(-0.00712238 -0.000327958 0)
(-0.00666028 -0.000330563 0)
(-0.00619559 -0.000331964 0)
(-0.00573004 -0.000332061 0)
(-0.0052655 -0.000330749 0)
(-0.004804 -0.000327924 0)
(-0.00434769 -0.000323479 0)
(-0.00389889 -0.000317302 0)
(-0.00346004 -0.000309282 0)
(-0.00303376 -0.000299304 0)
(-0.00262279 -0.00028725 0)
(-0.00223005 -0.000272999 0)
(-0.00185857 -0.000256429 0)
(-0.00151153 -0.000237417 0)
(-0.00119221 -0.000215846 0)
(-0.000903989 -0.000191617 0)
(-0.000650224 -0.000164673 0)
(-0.000434175 -0.000135046 0)
(-0.000258771 -0.000102964 0)
(-0.00012624 -6.9058e-05 0)
(-3.74843e-05 -3.47797e-05 0)
(9.02752e-06 -3.13081e-06 0)
(1.96964e-05 1.97716e-05 0)
(8.64146e-06 2.12248e-05 0)
(5.1861e-06 -2.25931e-05 0)
(1.58216e-05 -3.29912e-05 0)
(2.02359e-05 -2.03301e-05 0)
(7.81076e-06 6.00828e-06 0)
(-2.76882e-05 3.97872e-05 0)
(-8.93134e-05 7.67409e-05 0)
(-0.000178194 0.00011408 0)
(-0.0002941 0.000150042 0)
(-0.000435842 0.000183577 0)
(-0.000601607 0.000214087 0)
(-0.000789232 0.000241296 0)
(-0.000996382 0.000265145 0)
(-0.00122068 0.000285717 0)
(-0.0014598 0.000303187 0)
(-0.00171154 0.000317789 0)
(-0.00197385 0.000329787 0)
(-0.00224486 0.000339462 0)
(-0.0025229 0.000347093 0)
(-0.0028065 0.000352952 0)
(-0.00309436 0.000357293 0)
(-0.00338538 0.000360352 0)
(-0.00367862 0.000362341 0)
(-0.00397328 0.000363452 0)
(-0.00426871 0.000363851 0)
(-0.00456437 0.00036368 0)
(-0.00485984 0.000363061 0)
(-0.00515477 0.000362096 0)
(-0.00544888 0.000360867 0)
(-0.00574196 0.000359444 0)
(-0.00603386 0.000357879 0)
(-0.00632445 0.000356216 0)
(-0.00661365 0.000354485 0)
(-0.00690139 0.000352711 0)
(-0.00718761 0.000350911 0)
(-0.0074723 0.000349097 0)
(-0.00775542 0.000347274 0)
(-0.00803696 0.000345449 0)
(-0.0083169 0.000343624 0)
(-0.00859524 0.000341799 0)
(-0.00887197 0.000339972 0)
(-0.00914707 0.000338142 0)
(-0.00942054 0.000336308 0)
(-0.00969236 0.000334467 0)
(-0.00996254 0.000332617 0)
(-0.0102311 0.000330756 0)
(-0.0104979 0.000328883 0)
(-0.010763 0.000326996 0)
(-0.0110265 0.000325095 0)
(-0.0112882 0.000323177 0)
(-0.0115482 0.000321243 0)
(-0.0118065 0.000319291 0)
(-0.012063 0.000317322 0)
(-0.0123177 0.000315336 0)
(-0.0125707 0.000313332 0)
(-0.0128218 0.000311312 0)
(-0.0130712 0.000309275 0)
(-0.0133187 0.000307222 0)
(-0.0135644 0.000305153 0)
(-0.0138082 0.00030307 0)
(-0.0140501 0.000300973 0)
(-0.0142902 0.000298862 0)
(-0.0145284 0.00029674 0)
(-0.0147648 0.000294606 0)
(-0.0149992 0.000292462 0)
(-0.0152317 0.000290308 0)
(-0.0154623 0.000288145 0)
(-0.015691 0.000285976 0)
(-0.0159178 0.0002838 0)
(-0.0161426 0.000281618 0)
(-0.0163656 0.000279431 0)
(-0.0165866 0.000277241 0)
(-0.0168056 0.000275048 0)
(-0.0170228 0.000272852 0)
(-0.017238 0.000270655 0)
(-0.0174512 0.000268456 0)
(-0.0176625 0.000266257 0)
(-0.0178719 0.000264058 0)
(-0.0180794 0.000261858 0)
(-0.0182849 0.000259659 0)
(-0.0184885 0.000257459 0)
(-0.0186901 0.00025526 0)
(-0.0188899 0.000253061 0)
(-0.0190876 0.000250861 0)
(-0.0192835 0.000248661 0)
(-0.0194774 0.00024646 0)
(-0.0196694 0.000244257 0)
(-0.0198594 0.000242052 0)
(-0.0200475 0.000239842 0)
(-0.0202337 0.000237628 0)
(-0.0204179 0.000235406 0)
(-0.0206002 0.000233176 0)
(-0.0207804 0.000230935 0)
(-0.0209588 0.00022868 0)
(-0.0211351 0.000226409 0)
(-0.0213094 0.000224117 0)
(-0.0214817 0.000221803 0)
(-0.0216519 0.000219462 0)
(-0.0218201 0.000217089 0)
(-0.0219862 0.00021468 0)
(-0.0221501 0.000212231 0)
(-0.0223119 0.000209735 0)
(-0.0224715 0.000207188 0)
(-0.0226288 0.000204582 0)
(-0.0227839 0.00020191 0)
(-0.0229365 0.000199165 0)
(-0.0230868 0.000196339 0)
(-0.0232346 0.000193423 0)
(-0.0233798 0.000190408 0)
(-0.0235224 0.000187282 0)
(-0.0236622 0.000184035 0)
(-0.0237992 0.000180657 0)
(-0.0239332 0.000177133 0)
(-0.0240642 0.000173452 0)
(-0.024192 0.000169601 0)
(-0.0243164 0.000165563 0)
(-0.0244374 0.000161324 0)
(-0.0245547 0.000156869 0)
(-0.0246681 0.000152179 0)
(-0.0247776 0.000147236 0)
(-0.0248828 0.000142023 0)
(-0.0249836 0.000136518 0)
(-0.0250797 0.000130702 0)
(-0.0251708 0.000124553 0)
(-0.0252568 0.000118048 0)
(-0.0253373 0.000111166 0)
(-0.025412 0.000103883 0)
(-0.0254806 9.61734e-05 0)
(-0.0255428 8.8014e-05 0)
(-0.0255983 7.93792e-05 0)
(-0.0256465 7.02433e-05 0)
(-0.0256872 6.05803e-05 0)
(-0.0257199 5.03642e-05 0)
(-0.0257443 3.95689e-05 0)
(-0.0257598 2.81682e-05 0)
(-0.0257659 1.61366e-05 0)
(-0.0257623 3.44905e-06 0)
(-0.0257483 -9.91867e-06 0)
(-0.0257236 -2.39898e-05 0)
(-0.0256874 -3.87861e-05 0)
(-0.0256393 -5.43281e-05 0)
(-0.0255787 -7.06343e-05 0)
(-0.0255051 -8.77209e-05 0)
(-0.0254178 -0.000105602 0)
(-0.0253162 -0.000124288 0)
(-0.0251997 -0.000143787 0)
(-0.0250678 -0.000164103 0)
(-0.0249197 -0.000185235 0)
(-0.024755 -0.00020718 0)
(-0.024573 -0.000229927 0)
(-0.0243731 -0.000253462 0)
(-0.0241547 -0.000277764 0)
(-0.0239173 -0.000302806 0)
(-0.0236604 -0.000328554 0)
(-0.0233834 -0.000354969 0)
(-0.0230859 -0.000382002 0)
(-0.0227675 -0.000409598 0)
(-0.0224277 -0.000437692 0)
(-0.0220663 -0.000466213 0)
(-0.0216829 -0.000495078 0)
(-0.0212774 -0.000524198 0)
(-0.0208496 -0.000553472 0)
(-0.0203995 -0.00058279 0)
(-0.0199271 -0.000612032 0)
(-0.0194326 -0.000641069 0)
(-0.0189161 -0.000669761 0)
(-0.018378 -0.000697958 0)
(-0.0178188 -0.000725498 0)
(-0.017239 -0.000752211 0)
(-0.0166394 -0.000777916 0)
(-0.0160208 -0.00080242 0)
(-0.0153842 -0.000825523 0)
(-0.0147308 -0.000847012 0)
(-0.014062 -0.000866667 0)
(-0.0133791 -0.000884256 0)
(-0.012684 -0.000899541 0)
(-0.0119784 -0.000912274 0)
(-0.0112644 -0.000922197 0)
(-0.0105443 -0.000929047 0)
(-0.00982047 -0.000932554 0)
(-0.00909565 -0.00093244 0)
(-0.00837268 -0.000928421 0)
(-0.00765464 -0.000920211 0)
(-0.00694485 -0.000907515 0)
(-0.00624682 -0.000890037 0)
(-0.00556429 -0.000867479 0)
(-0.00490121 -0.00083954 0)
(-0.00426173 -0.000805922 0)
(-0.00365021 -0.000766332 0)
(-0.00307117 -0.00072049 0)
(-0.00252928 -0.000668146 0)
(-0.0020293 -0.000609099 0)
(-0.00157601 -0.000543248 0)
(-0.00117406 -0.000470667 0)
(-0.000827795 -0.000391748 0)
(-0.00054091 -0.000307449 0)
(-0.000315973 -0.000219747 0)
(-0.000153657 -0.000132411 0)
(-5.15877e-05 -5.21959e-05 0)
(-3.00126e-06 9.10928e-06 0)
(4.54229e-06 2.95391e-05 0)
(3.47066e-06 -3.01127e-05 0)
(5.92965e-06 -3.64593e-05 0)
(-6.39855e-06 -7.80472e-06 0)
(-4.29183e-05 4.22256e-05 0)
(-0.000109515 0.000104339 0)
(-0.000209336 0.000171928 0)
(-0.000343539 0.000240419 0)
(-0.000511813 0.000306768 0)
(-0.000712772 0.000369042 0)
(-0.000944299 0.000426091 0)
(-0.00120382 0.000477318 0)
(-0.00148851 0.000522523 0)
(-0.00179547 0.00056178 0)
(-0.00212182 0.000595345 0)
(-0.00246481 0.000623597 0)
(-0.00282183 0.000646984 0)
(-0.00319051 0.000665994 0)
(-0.0035687 0.000681123 0)
(-0.00395446 0.000692862 0)
(-0.00434611 0.000701676 0)
(-0.00474219 0.000707998 0)
(-0.00514142 0.000712225 0)
(-0.00554275 0.000714713 0)
(-0.00594528 0.000715774 0)
(-0.00634827 0.000715683 0)
(-0.00675111 0.000714671 0)
(-0.0071533 0.000712936 0)
(-0.00755447 0.00071064 0)
(-0.00795428 0.000707919 0)
(-0.0083525 0.000704878 0)
(-0.00874894 0.000701603 0)
(-0.00914345 0.000698159 0)
(-0.00953593 0.000694597 0)
(-0.00992628 0.000690954 0)
(-0.0103144 0.000687255 0)
(-0.0107004 0.000683519 0)
(-0.011084 0.000679757 0)
(-0.0114654 0.000675976 0)
(-0.0118444 0.000672179 0)
(-0.0122211 0.000668367 0)
(-0.0125954 0.000664539 0)
(-0.0129673 0.000660693 0)
(-0.0133368 0.000656826 0)
(-0.0137039 0.000652936 0)
(-0.0140686 0.00064902 0)
(-0.0144308 0.000645076 0)
(-0.0147905 0.000641102 0)
(-0.0151477 0.000637096 0)
(-0.0155023 0.000633057 0)
(-0.0158545 0.000628984 0)
(-0.016204 0.000624877 0)
(-0.016551 0.000620735 0)
(-0.0168954 0.000616559 0)
(-0.0172371 0.000612349 0)
(-0.0175763 0.000608107 0)
(-0.0179127 0.000603833 0)
(-0.0182465 0.000599528 0)
(-0.0185776 0.000595194 0)
(-0.018906 0.000590832 0)
(-0.0192317 0.000586445 0)
(-0.0195546 0.000582033 0)
(-0.0198748 0.000577598 0)
(-0.0201923 0.000573143 0)
(-0.020507 0.000568669 0)
(-0.0208189 0.000564178 0)
(-0.0211281 0.000559673 0)
(-0.0214344 0.000555154 0)
(-0.021738 0.000550623 0)
(-0.0220388 0.000546084 0)
(-0.0223368 0.000541536 0)
(-0.022632 0.000536982 0)
(-0.0229244 0.000532423 0)
(-0.023214 0.00052786 0)
(-0.0235008 0.000523295 0)
(-0.0237848 0.000518729 0)
(-0.024066 0.000514163 0)
(-0.0243444 0.000509596 0)
(-0.02462 0.00050503 0)
(-0.0248928 0.000500465 0)
(-0.0251628 0.000495902 0)
(-0.02543 0.000491339 0)
(-0.0256944 0.000486776 0)
(-0.0259561 0.000482213 0)
(-0.0262149 0.000477649 0)
(-0.0264709 0.000473083 0)
(-0.0267242 0.000468512 0)
(-0.0269747 0.000463936 0)
(-0.0272223 0.000459352 0)
(-0.0274672 0.000454756 0)
(-0.0277092 0.000450146 0)
(-0.0279484 0.000445517 0)
(-0.0281848 0.000440865 0)
(-0.0284183 0.000436185 0)
(-0.0286489 0.000431472 0)
(-0.0288767 0.000426719 0)
(-0.0291015 0.00042192 0)
(-0.0293234 0.000417066 0)
(-0.0295423 0.000412151 0)
(-0.0297582 0.000407164 0)
(-0.0299711 0.000402096 0)
(-0.0301808 0.000396937 0)
(-0.0303873 0.000391675 0)
(-0.0305907 0.000386297 0)
(-0.0307907 0.000380791 0)
(-0.0309874 0.000375141 0)
(-0.0311806 0.000369332 0)
(-0.0313703 0.000363346 0)
(-0.0315564 0.000357167 0)
(-0.0317386 0.000350773 0)
(-0.031917 0.000344146 0)
(-0.0320914 0.000337262 0)
(-0.0322616 0.000330098 0)
(-0.0324275 0.000322631 0)
(-0.0325889 0.000314833 0)
(-0.0327456 0.000306678 0)
(-0.0328974 0.000298136 0)
(-0.0330442 0.000289176 0)
(-0.0331856 0.000279767 0)
(-0.0333214 0.000269874 0)
(-0.0334514 0.000259462 0)
(-0.0335752 0.000248493 0)
(-0.0336926 0.000236931 0)
(-0.0338032 0.000224734 0)
(-0.0339068 0.000211861 0)
(-0.0340028 0.000198269 0)
(-0.0340909 0.000183915 0)
(-0.0341708 0.000168753 0)
(-0.0342419 0.000152738 0)
(-0.0343038 0.000135823 0)
(-0.0343561 0.00011796 0)
(-0.0343982 9.91015e-05 0)
(-0.0344295 7.91987e-05 0)
(-0.0344496 5.82038e-05 0)
(-0.0344578 3.6069e-05 0)
(-0.0344536 1.27472e-05 0)
(-0.0344363 -1.18073e-05 0)
(-0.0344052 -3.76387e-05 0)
(-0.0343598 -6.47893e-05 0)
(-0.0342992 -9.32989e-05 0)
(-0.0342228 -0.000123204 0)
(-0.0341299 -0.000154538 0)
(-0.0340197 -0.00018733 0)
(-0.0338915 -0.000221604 0)
(-0.0337445 -0.000257379 0)
(-0.0335779 -0.000294667 0)
(-0.033391 -0.000333474 0)
(-0.033183 -0.000373798 0)
(-0.0329531 -0.000415628 0)
(-0.0327006 -0.000458945 0)
(-0.0324247 -0.000503718 0)
(-0.0321247 -0.000549908 0)
(-0.0318 -0.000597462 0)
(-0.0314497 -0.000646316 0)
(-0.0310734 -0.000696392 0)
(-0.0306704 -0.000747599 0)
(-0.0302402 -0.000799831 0)
(-0.0297823 -0.000852966 0)
(-0.0292963 -0.000906868 0)
(-0.0287819 -0.000961383 0)
(-0.0282389 -0.00101634 0)
(-0.0276671 -0.00107155 0)
(-0.0270665 -0.00112681 0)
(-0.0264371 -0.00118188 0)
(-0.0257791 -0.00123654 0)
(-0.0250929 -0.00129051 0)
(-0.0243788 -0.00134351 0)
(-0.0236376 -0.00139524 0)
(-0.02287 -0.00144538 0)
(-0.0220769 -0.00149358 0)
(-0.0212594 -0.0015395 0)
(-0.020419 -0.00158274 0)
(-0.0195571 -0.00162291 0)
(-0.0186754 -0.0016596 0)
(-0.0177759 -0.00169237 0)
(-0.0168609 -0.00172077 0)
(-0.0159326 -0.00174433 0)
(-0.0149938 -0.00176258 0)
(-0.0140473 -0.00177501 0)
(-0.0130965 -0.00178112 0)
(-0.0121446 -0.00178039 0)
(-0.0111955 -0.00177229 0)
(-0.010253 -0.00175629 0)
(-0.00932148 -0.00173184 0)
(-0.00840542 -0.0016984 0)
(-0.00750959 -0.00165542 0)
(-0.00663904 -0.00160239 0)
(-0.00579903 -0.00153877 0)
(-0.00499504 -0.00146407 0)
(-0.00423274 -0.00137786 0)
(-0.00351791 -0.00127978 0)
(-0.00285638 -0.0011696 0)
(-0.0022539 -0.00104732 0)
(-0.00171599 -0.000913338 0)
(-0.00124767 -0.000768624 0)
(-0.000853101 -0.000615178 0)
(-0.000535151 -0.000456646 0)
(-0.000294584 -0.000299356 0)
(-0.000129105 -0.000153748 0)
(-3.36629e-05 -3.6614e-05 0)
(-1.34949e-06 2.31365e-05 0)
(1.08335e-06 -3.12536e-05 0)
(-7.41091e-06 -2.41883e-05 0)
(-4.12081e-05 2.83303e-05 0)
(-0.000107079 0.000109158 0)
(-0.000209826 0.000206313 0)
(-0.000352214 0.000311014 0)
(-0.000535124 0.000416966 0)
(-0.000757991 0.000519833 0)
(-0.00101918 0.000616748 0)
(-0.00131629 0.000705932 0)
(-0.00164643 0.000786407 0)
(-0.0020064 0.000857782 0)
(-0.0023929 0.000920083 0)
(-0.00280263 0.000973633 0)
(-0.0032324 0.00101895 0)
(-0.00367919 0.00105669 0)
(-0.00414021 0.00108755 0)
(-0.0046129 0.00111229 0)
(-0.00509499 0.00113163 0)
(-0.00558442 0.00114629 0)
(-0.00607943 0.00115694 0)
(-0.00657849 0.00116419 0)
(-0.00708026 0.0011686 0)
(-0.00758365 0.00117066 0)
(-0.00808772 0.00117079 0)
(-0.0085917 0.00116938 0)
(-0.00909496 0.00116673 0)
(-0.00959697 0.00116311 0)
(-0.0100973 0.00115874 0)
(-0.0105957 0.0011538 0)
(-0.0110918 0.00114842 0)
(-0.0115855 0.00114272 0)
(-0.0120766 0.00113678 0)
(-0.0125649 0.00113067 0)
(-0.0130504 0.00112442 0)
(-0.013533 0.00111809 0)
(-0.0140126 0.00111168 0)
(-0.0144891 0.00110522 0)
(-0.0149626 0.00109871 0)
(-0.015433 0.00109216 0)
(-0.0159002 0.00108557 0)
(-0.0163642 0.00107894 0)
(-0.0168251 0.00107226 0)
(-0.0172826 0.00106553 0)
(-0.017737 0.00105876 0)
(-0.018188 0.00105193 0)
(-0.0186357 0.00104505 0)
(-0.0190801 0.00103812 0)
(-0.0195211 0.00103113 0)
(-0.0199587 0.00102408 0)
(-0.0203928 0.00101697 0)
(-0.0208236 0.00100981 0)
(-0.0212508 0.00100259 0)
(-0.0216746 0.000995323 0)
(-0.0220948 0.000988 0)
(-0.0225115 0.000980626 0)
(-0.0229246 0.000973204 0)
(-0.0233342 0.000965736 0)
(-0.0237402 0.000958226 0)
(-0.0241425 0.000950675 0)
(-0.0245413 0.000943088 0)
(-0.0249364 0.000935466 0)
(-0.0253279 0.000927813 0)
(-0.0257157 0.000920132 0)
(-0.0260998 0.000912426 0)
(-0.0264803 0.000904698 0)
(-0.0268571 0.000896952 0)
(-0.0272302 0.00088919 0)
(-0.0275997 0.000881414 0)
(-0.0279654 0.000873629 0)
(-0.0283275 0.000865835 0)
(-0.0286859 0.000858035 0)
(-0.0290406 0.000850231 0)
(-0.0293916 0.000842426 0)
(-0.0297389 0.00083462 0)
(-0.0300826 0.000826816 0)
(-0.0304225 0.000819013 0)
(-0.0307588 0.000811213 0)
(-0.0310914 0.000803416 0)
(-0.0314204 0.000795621 0)
(-0.0317456 0.00078783 0)
(-0.0320672 0.000780039 0)
(-0.0323852 0.000772249 0)
(-0.0326995 0.000764458 0)
(-0.0330101 0.000756663 0)
(-0.033317 0.000748861 0)
(-0.0336203 0.000741049 0)
(-0.0339199 0.000733223 0)
(-0.0342158 0.000725378 0)
(-0.0345081 0.000717509 0)
(-0.0347966 0.000709608 0)
(-0.0350814 0.000701669 0)
(-0.0353625 0.000693683 0)
(-0.0356398 0.000685641 0)
(-0.0359133 0.000677534 0)
(-0.036183 0.00066935 0)
(-0.0364489 0.000661077 0)
(-0.0367108 0.000652702 0)
(-0.0369688 0.00064421 0)
(-0.0372228 0.000635585 0)
(-0.0374728 0.00062681 0)
(-0.0377186 0.000617867 0)
(-0.0379603 0.000608736 0)
(-0.0381976 0.000599394 0)
(-0.0384306 0.000589819 0)
(-0.0386591 0.000579985 0)
(-0.038883 0.000569866 0)
(-0.0391021 0.000559432 0)
(-0.0393164 0.000548653 0)
(-0.0395257 0.000537496 0)
(-0.0397298 0.000525926 0)
(-0.0399286 0.000513907 0)
(-0.0401218 0.000501399 0)
(-0.0403093 0.000488361 0)
(-0.0404908 0.000474749 0)
(-0.040666 0.000460518 0)
(-0.0408348 0.000445619 0)
(-0.0409968 0.000430001 0)
(-0.0411517 0.000413611 0)
(-0.0412993 0.000396394 0)
(-0.041439 0.000378291 0)
(-0.0415707 0.000359242 0)
(-0.0416939 0.000339185 0)
(-0.0418081 0.000318055 0)
(-0.041913 0.000295785 0)
(-0.0420081 0.000272307 0)
(-0.0420928 0.00024755 0)
(-0.0421666 0.000221444 0)
(-0.0422291 0.000193915 0)
(-0.0422796 0.000164889 0)
(-0.0423175 0.000134292 0)
(-0.0423422 0.00010205 0)
(-0.042353 6.80879e-05 0)
(-0.0423492 3.23325e-05 0)
(-0.0423301 -5.28866e-06 0)
(-0.042295 -4.48458e-05 0)
(-0.0422431 -8.64068e-05 0)
(-0.0421736 -0.000130036 0)
(-0.0420857 -0.000175795 0)
(-0.0419785 -0.000223737 0)
(-0.0418512 -0.000273915 0)
(-0.041703 -0.00032637 0)
(-0.0415328 -0.000381139 0)
(-0.0413399 -0.000438249 0)
(-0.0411234 -0.000497716 0)
(-0.0408823 -0.000559548 0)
(-0.0406157 -0.000623737 0)
(-0.0403227 -0.000690267 0)
(-0.0400025 -0.000759102 0)
(-0.0396542 -0.000830195 0)
(-0.0392769 -0.000903478 0)
(-0.0388699 -0.000978869 0)
(-0.0384323 -0.00105626 0)
(-0.0379635 -0.00113554 0)
(-0.0374627 -0.00121655 0)
(-0.0369293 -0.00129912 0)
(-0.0363629 -0.00138307 0)
(-0.035763 -0.00146818 0)
(-0.0351292 -0.0015542 0)
(-0.0344612 -0.00164086 0)
(-0.0337589 -0.00172788 0)
(-0.0330223 -0.00181491 0)
(-0.0322515 -0.00190162 0)
(-0.0314467 -0.0019876 0)
(-0.0306083 -0.00207246 0)
(-0.029737 -0.00215575 0)
(-0.0288334 -0.00223698 0)
(-0.0278985 -0.00231566 0)
(-0.0269335 -0.00239125 0)
(-0.0259398 -0.00246319 0)
(-0.0249189 -0.00253088 0)
(-0.0238726 -0.00259369 0)
(-0.0228032 -0.00265098 0)
(-0.0217128 -0.00270205 0)
(-0.0206041 -0.00274621 0)
(-0.01948 -0.00278273 0)
(-0.0183437 -0.00281083 0)
(-0.0171987 -0.00282976 0)
(-0.0160488 -0.00283872 0)
(-0.014898 -0.0028369 0)
(-0.0137507 -0.00282346 0)
(-0.0126117 -0.0027976 0)
(-0.011486 -0.00275847 0)
(-0.0103789 -0.00270524 0)
(-0.00929599 -0.0026371 0)
(-0.00824322 -0.00255325 0)
(-0.00722671 -0.00245295 0)
(-0.00625282 -0.00233551 0)
(-0.00532806 -0.00220034 0)
(-0.00445905 -0.00204704 0)
(-0.00365237 -0.00187542 0)
(-0.00291449 -0.0016857 0)
(-0.0022515 -0.00147869 0)
(-0.00166892 -0.00125611 0)
(-0.00117137 -0.0010211 0)
(-0.000762135 -0.000778992 0)
(-0.000442539 -0.000538424 0)
(-0.000211154 -0.00031284 0)
(-6.59209e-05 -0.000122625 0)
(-7.34859e-06 -6.56147e-07 0)
(-1.52544e-06 -2.47861e-05 0)
(-2.22804e-05 6.65275e-06 0)
(-8.01518e-05 9.1773e-05 0)
(-0.000178482 0.000210778 0)
(-0.000320451 0.000349494 0)
(-0.000508109 0.000497256 0)
(-0.0007418 0.000646228 0)
(-0.00102054 0.000790861 0)
(-0.00134234 0.000927382 0)
(-0.00170452 0.00105338 0)
(-0.00210386 0.00116746 0)
(-0.00253687 0.00126902 0)
(-0.00299992 0.00135804 0)
(-0.00348939 0.00143487 0)
(-0.00400174 0.00150018 0)
(-0.00453361 0.00155481 0)
(-0.00508189 0.00159972 0)
(-0.00564371 0.0016359 0)
(-0.00621646 0.00166438 0)
(-0.00679783 0.00168612 0)
(-0.0073858 0.00170206 0)
(-0.00797858 0.00171305 0)
(-0.00857463 0.00171987 0)
(-0.00917266 0.00172322 0)
(-0.00977157 0.00172372 0)
(-0.0103704 0.00172189 0)
(-0.0109685 0.0017182 0)
(-0.0115651 0.00171301 0)
(-0.0121597 0.00170665 0)
(-0.012752 0.00169938 0)
(-0.0133415 0.00169141 0)
(-0.0139281 0.0016829 0)
(-0.0145115 0.00167398 0)
(-0.0150916 0.00166476 0)
(-0.0156681 0.0016553 0)
(-0.016241 0.00164567 0)
(-0.0168102 0.00163589 0)
(-0.0173757 0.001626 0)
(-0.0179373 0.00161601 0)
(-0.018495 0.00160594 0)
(-0.0190488 0.00159578 0)
(-0.0195985 0.00158555 0)
(-0.0201443 0.00157524 0)
(-0.0206859 0.00156484 0)
(-0.0212235 0.00155437 0)
(-0.0217568 0.00154381 0)
(-0.0222861 0.00153317 0)
(-0.0228111 0.00152245 0)
(-0.0233318 0.00151163 0)
(-0.0238483 0.00150074 0)
(-0.0243604 0.00148976 0)
(-0.0248682 0.00147869 0)
(-0.0253717 0.00146755 0)
(-0.0258708 0.00145633 0)
(-0.0263654 0.00144503 0)
(-0.0268556 0.00143366 0)
(-0.0273413 0.00142222 0)
(-0.0278226 0.00141072 0)
(-0.0282994 0.00139916 0)
(-0.0287716 0.00138755 0)
(-0.0292393 0.00137588 0)
(-0.0297025 0.00136417 0)
(-0.0301611 0.00135241 0)
(-0.0306152 0.00134062 0)
(-0.0310647 0.0013288 0)
(-0.0315096 0.00131695 0)