/*--------------------------------*- C++ -*----------------------------------*\
  =========                 |
  \\      /  F ield         | OpenFOAM: The Open Source CFD Toolbox
   \\    /   O peration     | Website:  https://openfoam.org
    \\  /    A nd           | Version:  7
     \\/     M anipulation  |
\*---------------------------------------------------------------------------*/
FoamFile
{
    version     2.0;
    format      ascii;
    class       volScalarField;
    location    "15";
    object      p;
}
// * * * * * * * * * * * * * * * * * * * * * * * * * * * * * * * * * * * * * //

dimensions      [0 2 -2 0 0 0 0];

internalField   nonuniform List<scalar> 
41600
(
-0.250957
-0.256263
-0.261218
-0.26508
-0.270596
-0.275695
-0.282524
-0.290064
-0.298584
-0.306492
-0.311889
-0.311729
-0.302466
-0.280447
-0.244378
-0.196638
-0.143377
-0.0919311
-0.0470382
-0.0127419
0.0124561
0.027833
0.0372619
0.0410127
0.0419855
-0.251043
-0.256308
-0.261273
-0.265116
-0.27063
-0.275722
-0.282558
-0.290121
-0.298694
-0.306699
-0.312248
-0.312303
-0.303317
-0.281585
-0.245764
-0.198113
-0.144799
-0.0932545
-0.0481849
-0.0138053
0.0115043
0.0269833
0.0364836
0.0403162
0.0413669
-0.251215
-0.256396
-0.261382
-0.265186
-0.270698
-0.275776
-0.28262
-0.290225
-0.2989
-0.307089
-0.312921
-0.31338
-0.304908
-0.283729
-0.248341
-0.20086
-0.147466
-0.0957622
-0.0504167
-0.0158739
0.00958903
0.0252522
0.0348766
0.038873
0.0400694
-0.25147
-0.256526
-0.261543
-0.265289
-0.270795
-0.275849
-0.282705
-0.290366
-0.299178
-0.307617
-0.313832
-0.314829
-0.307045
-0.286603
-0.25177
-0.204545
-0.151051
-0.0991448
-0.0536549
-0.0188796
0.00671616
0.022615
0.0323953
0.0366355
0.0380394
-0.251808
-0.256696
-0.261752
-0.26542
-0.270916
-0.275937
-0.282801
-0.290525
-0.299497
-0.308223
-0.314878
-0.316485
-0.30947
-0.289839
-0.25565
-0.208752
-0.15514
-0.103207
-0.0576555
-0.0227114
0.00294171
0.0190938
0.0290525
0.0336105
0.0352848
-0.252226
-0.256904
-0.262007
-0.265575
-0.271056
-0.27603
-0.282896
-0.29068
-0.299817
-0.308841
-0.315944
-0.318163
-0.311912
-0.293095
-0.259556
-0.212897
-0.159545
-0.107647
-0.0622096
-0.027222
-0.00161075
0.0147816
0.0249418
0.0298822
0.0318914
-0.252721
-0.257146
-0.262301
-0.265747
-0.271207
-0.276119
-0.282976
-0.290809
-0.300099
-0.309402
-0.316918
-0.31969
-0.314142
-0.296038
-0.263057
-0.216808
-0.163807
-0.112182
-0.0670944
-0.0322303
-0.00676164
0.00983696
0.0202242
0.0255983
0.0280017
-0.253289
-0.257418
-0.26263
-0.265932
-0.271362
-0.276195
-0.283028
-0.29089
-0.300305
-0.309843
-0.317696
-0.320918
-0.31592
-0.298387
-0.265905
-0.220128
-0.167651
-0.116573
-0.0720887
-0.037537
-0.0123031
0.00445664
0.0150928
0.0209357
0.0237783
-0.253927
-0.257717
-0.262987
-0.266122
-0.271511
-0.276248
-0.283038
-0.290903
-0.300403
-0.310108
-0.318197
-0.321745
-0.317091
-0.29995
-0.267868
-0.222627
-0.170881
-0.120625
-0.0769952
-0.0429462
-0.0180275
-0.00115627
0.00974058
0.0160681
0.0193756
-0.254631
-0.258037
-0.263367
-0.26631
-0.271648
-0.276269
-0.282995
-0.29083
-0.300366
-0.31016
-0.318381
-0.322053
-0.317554
-0.300593
-0.268802
-0.224166
-0.173365
-0.124201
-0.081654
-0.0482835
-0.0237491
-0.00681751
0.00433779
0.0111453
0.0149251
-0.255397
-0.258375
-0.263762
-0.266489
-0.271764
-0.276249
-0.282889
-0.29066
-0.300176
-0.309975
-0.318186
-0.321814
-0.317242
-0.300245
-0.268641
-0.224687
-0.175042
-0.127221
-0.0859497
-0.0534074
-0.0293169
-0.0123769
-0.000980082
0.00628348
0.0105286
-0.25622
-0.258725
-0.264167
-0.266653
-0.271853
-0.276182
-0.282713
-0.290384
-0.299825
-0.309534
-0.317601
-0.321005
-0.316124
-0.298883
-0.267382
-0.224198
-0.17591
-0.129652
-0.0898108
-0.0582152
-0.0346199
-0.0177236
-0.00611513
0.00156513
0.00625559
-0.257097
-0.259082
-0.264575
-0.266796
-0.271908
-0.276063
-0.282465
-0.290001
-0.299306
-0.308833
-0.316623
-0.319613
-0.314194
-0.296523
-0.265073
-0.222763
-0.17602
-0.131505
-0.0932046
-0.0626421
-0.0395853
-0.0227842
-0.0110037
-0.00295579
0.00214795
-0.258022
-0.259442
-0.264979
-0.266912
-0.271925
-0.275889
-0.282142
-0.289509
-0.298623
-0.307876
-0.31525
-0.317634
-0.311461
-0.293208
-0.261802
-0.22049
-0.175454
-0.132818
-0.0961288
-0.0666556
-0.0441732
-0.0275163
-0.0156093
-0.00724756
-0.00177075
-0.258993
-0.259801
-0.265374
-0.266996
-0.2719
-0.275656
-0.281746
-0.288913
-0.297779
-0.306663
-0.313477
-0.315064
-0.307946
-0.289011
-0.257693
-0.217515
-0.174319
-0.133649
-0.0986028
-0.0702491
-0.0483683
-0.0319011
-0.0199153
-0.0112945
-0.00548819
-0.260005
-0.260153
-0.265754
-0.267044
-0.271831
-0.275365
-0.281278
-0.288217
-0.296778
-0.305192
-0.311293
-0.311898
-0.303686
-0.284029
-0.252896
-0.21399
-0.172729
-0.134063
-0.100659
-0.0734332
-0.0521729
-0.0359365
-0.0239182
-0.0150915
-0.00899946
-0.261055
-0.260496
-0.266115
-0.267051
-0.271709
-0.275023
-0.280743
-0.287422
-0.295617
-0.303453
-0.308684
-0.308141
-0.298737
-0.278389
-0.247575
-0.210067
-0.170794
-0.134128
-0.102336
-0.0762296
-0.0556004
-0.0396304
-0.0276228
-0.0186399
-0.0123046
-0.262139
-0.260826
-0.266452
-0.267017
-0.271543
-0.274624
-0.280142
-0.28653
-0.294289
-0.301428
-0.305632
-0.303807
-0.293178
-0.272235
-0.241898
-0.205887
-0.168611
-0.133903
-0.103675
-0.0786655
-0.0586706
-0.0429971
-0.0310389
-0.021945
-0.0154065
-0.263256
-0.261139
-0.266762
-0.266942
-0.271327
-0.27417
-0.279475
-0.285533
-0.292778
-0.299093
-0.302129
-0.298934
-0.287115
-0.26572
-0.236017
-0.201568
-0.166261
-0.133443
-0.104713
-0.0807702
-0.0614062
-0.0460539
-0.0341789
-0.0250145
-0.0183103
-0.264403
-0.261434
-0.267045
-0.26682
-0.271065
-0.273663
-0.27874
-0.284422
-0.291062
-0.296427
-0.298178
-0.29358
-0.280668
-0.258994
-0.230065
-0.197205
-0.163808
-0.13279
-0.105485
-0.0825725
-0.0638308
-0.0488196
-0.0370561
-0.0278575
-0.0210218
-0.265578
-0.261709
-0.2673
-0.266649
-0.270757
-0.273103
-0.27793
-0.283178
-0.289115
-0.293412
-0.2938
-0.287825
-0.273962
-0.252191
-0.224147
-0.192868
-0.1613
-0.131981
-0.106024
-0.0840999
-0.0659677
-0.0513132
-0.0396844
-0.0304836
-0.0235478
-0.266782
-0.261963
-0.267506
-0.266447
-0.270403
-0.272485
-0.277034
-0.281781
-0.286915
-0.290046
-0.289036
-0.28176
-0.267122
-0.245423
-0.21834
-0.188607
-0.15877
-0.131045
-0.106357
-0.0853775
-0.0678393
-0.0535531
-0.0420775
-0.0329029
-0.0258951
-0.268013
-0.262194
-0.267683
-0.266198
-0.270001
-0.271805
-0.276036
-0.280209
-0.284444
-0.286337
-0.283943
-0.275486
-0.260253
-0.238773
-0.212696
-0.184451
-0.156243
-0.130002
-0.106508
-0.0864281
-0.0694667
-0.055557
-0.0442485
-0.0351256
-0.0280708
-0.269272
-0.262402
-0.267832
-0.265906
-0.269549
-0.271056
-0.274922
-0.278441
-0.281692
-0.282311
-0.278588
-0.269097
-0.253445
-0.232302
-0.207247
-0.180418
-0.153733
-0.128871
-0.106498
-0.087272
-0.0708694
-0.0573415
-0.0462099
-0.0371619
-0.0300822
-0.27056
-0.262585
-0.267951
-0.265573
-0.269044
-0.270227
-0.273673
-0.276461
-0.278663
-0.278004
-0.273043
-0.262678
-0.246765
-0.226049
-0.202009
-0.176517
-0.151249
-0.127667
-0.106346
-0.0879276
-0.072066
-0.0589218
-0.0479738
-0.0390219
-0.0319361
-0.271879
-0.262767
-0.268021
-0.265199
-0.26848
-0.269307
-0.272274
-0.274258
-0.275368
-0.273463
-0.26738
-0.256298
-0.24026
-0.220033
-0.196986
-0.172749
-0.148798
-0.1264
-0.106067
-0.0884112
-0.0730734
-0.0603122
-0.0495517
-0.0407155
-0.0336392
-0.273233
-0.262931
-0.268062
-0.264785
-0.267852
-0.268288
-0.270714
-0.271829
-0.27183
-0.268739
-0.261663
-0.250013
-0.233962
-0.214264
-0.192175
-0.16911
-0.146382
-0.12508
-0.105676
-0.0887375
-0.0739075
-0.0615253
-0.0509544
-0.0422523
-0.035198
-0.274623
-0.263081
-0.268072
-0.264327
-0.267152
-0.267159
-0.268982
-0.269177
-0.268077
-0.263882
-0.255946
-0.243861
-0.227887
-0.20874
-0.187567
-0.165597
-0.144002
-0.123715
-0.105184
-0.0889197
-0.074583
-0.0625726
-0.0521923
-0.0436415
-0.0366182
-0.276055
-0.263225
-0.268048
-0.263823
-0.266376
-0.265914
-0.267073
-0.266312
-0.264144
-0.25894
-0.250274
-0.237871
-0.222041
-0.203455
-0.183152
-0.162201
-0.141656
-0.12231
-0.104601
-0.08897
-0.0751134
-0.0634644
-0.0532756
-0.0448918
-0.0379051
-0.277533
-0.263372
-0.267988
-0.26327
-0.265522
-0.264545
-0.264985
-0.263251
-0.260067
-0.253958
-0.24468
-0.232059
-0.216424
-0.198397
-0.178918
-0.158916
-0.139344
-0.120873
-0.103937
-0.0888994
-0.0755111
-0.0642099
-0.0542139
-0.046011
-0.039063
-0.279064
-0.263527
-0.267888
-0.262669
-0.26459
-0.263045
-0.26272
-0.260013
-0.255882
-0.24897
-0.239191
-0.226431
-0.21103
-0.193554
-0.17485
-0.155733
-0.137064
-0.119408
-0.103199
-0.0887183
-0.0757873
-0.0648173
-0.0550171
-0.0470061
-0.0400956
-0.280652
-0.263697
-0.267743
-0.262023
-0.26358
-0.261406
-0.260285
-0.256623
-0.25162
-0.244006
-0.233822
-0.220992
-0.20585
-0.188911
-0.170938
-0.152646
-0.134815
-0.117919
-0.102393
-0.0884363
-0.0759519
-0.0652942
-0.0556949
-0.0478832
-0.0410061
-0.282306
-0.263888
-0.267547
-0.26134
-0.262491
-0.259625
-0.257692
-0.253107
-0.247313
-0.239089
-0.228584
-0.215738
-0.200872
-0.184453
-0.167168
-0.149647
-0.132593
-0.116409
-0.101525
-0.0880628
-0.0760135
-0.0656473
-0.0562564
-0.0486474
-0.0417983
-0.284033
-0.264105
-0.267296
-0.260631
-0.261319
-0.257699
-0.254954
-0.249488
-0.242984
-0.234237
-0.223482
-0.210663
-0.196085
-0.180168
-0.163529
-0.146728
-0.130399
-0.114883
-0.1006
-0.0876064
-0.0759797
-0.0658829
-0.0567105
-0.0493018
-0.0424745
-0.28584
-0.264345
-0.266991
-0.259907
-0.260059
-0.255632
-0.252088
-0.24579
-0.238654
-0.229461
-0.218519
-0.205761
-0.191475
-0.176041
-0.16001
-0.143884
-0.128229
-0.113341
-0.0996226
-0.0870754
-0.0758566
-0.0660077
-0.0570662
-0.0498465
-0.0430328
-0.287734
-0.264605
-0.266641
-0.259175
-0.258705
-0.253427
-0.24911
-0.242033
-0.234341
-0.224771
-0.213692
-0.201022
-0.187031
-0.172059
-0.156602
-0.141108
-0.126083
-0.111786
-0.0985969
-0.0864776
-0.0756492
-0.0660294
-0.0573329
-0.050276
-0.0434606
-0.289726
-0.26487
-0.266262
-0.258432
-0.257254
-0.251094
-0.246038
-0.238237
-0.230058
-0.22017
-0.208998
-0.196437
-0.18274
-0.168211
-0.153295
-0.138394
-0.123959
-0.11022
-0.097527
-0.0858197
-0.0753615
-0.0659581
-0.0575209
-0.0505789
-0.0437389
-0.291821
-0.265121
-0.265882
-0.257667
-0.255703
-0.248643
-0.242886
-0.234418
-0.225814
-0.215661
-0.204434
-0.191997
-0.178592
-0.164486
-0.150081
-0.135738
-0.121856
-0.108644
-0.096417
-0.0851077
-0.0749975
-0.0658068
-0.0576382
-0.0507418
-0.0438673
-0.293999
-0.265357
-0.265532
-0.256862
-0.254055
-0.246083
-0.239671
-0.230587
-0.221618
-0.211245
-0.199992
-0.187692
-0.174574
-0.160874
-0.146953
-0.133134
-0.119772
-0.107058
-0.0952708
-0.0843459
-0.0745619
-0.0655895
-0.0576859
-0.0507635
-0.0439163
-0.296267
-0.265554
-0.265242
-0.255995
-0.252311
-0.243426
-0.236404
-0.226757
-0.217473
-0.20692
-0.195667
-0.183513
-0.170678
-0.157366
-0.143903
-0.130579
-0.117707
-0.105463
-0.0940921
-0.0835377
-0.0740605
-0.0653175
-0.0576578
-0.0506767
-0.0440475
-0.29862
-0.265692
-0.265037
-0.255049
-0.250477
-0.240683
-0.233098
-0.222935
-0.213384
-0.202683
-0.191452
-0.179451
-0.166893
-0.153953
-0.140924
-0.128067
-0.115659
-0.10386
-0.092884
-0.0826858
-0.0734999
-0.0649962
-0.0575499
-0.0505613
-0.0443592
-0.301034
-0.265772
-0.264924
-0.254011
-0.248555
-0.237864
-0.229762
-0.219129
-0.209351
-0.198533
-0.187341
-0.175498
-0.16321
-0.150627
-0.138012
-0.125597
-0.113626
-0.102249
-0.0916489
-0.0817927
-0.0728861
-0.0646254
-0.0573728
-0.0505003
-0.044602
-0.30347
-0.265804
-0.264893
-0.252878
-0.24655
-0.234979
-0.226404
-0.215344
-0.205376
-0.194464
-0.183327
-0.171645
-0.159623
-0.147381
-0.135159
-0.123163
-0.111608
-0.100631
-0.090389
-0.0808609
-0.0722239
-0.0642044
-0.0571449
-0.0504415
-0.0447224
-0.305882
-0.265813
-0.264913
-0.251648
-0.244465
-0.232037
-0.223033
-0.211582
-0.201456
-0.190473
-0.179403
-0.167885
-0.156123
-0.144209
-0.132362
-0.120763
-0.109603
-0.0990057
-0.0891062
-0.0798931
-0.0715167
-0.0637354
-0.056867
-0.0503511
-0.0447922
-0.308216
-0.265836
-0.264939
-0.250328
-0.242305
-0.229045
-0.219652
-0.207846
-0.197592
-0.186556
-0.175565
-0.164212
-0.152703
-0.141105
-0.129616
-0.118395
-0.107609
-0.0973742
-0.0878022
-0.0788913
-0.0707673
-0.0632192
-0.0565414
-0.0502136
-0.0447958
-0.310416
-0.265921
-0.264913
-0.248924
-0.240071
-0.22601
-0.216267
-0.204138
-0.19378
-0.182709
-0.171805
-0.160618
-0.149357
-0.138062
-0.126916
-0.116055
-0.105627
-0.0957364
-0.0864782
-0.0778578
-0.0699781
-0.0626581
-0.0561671
-0.0500196
-0.0447474
-0.312425
-0.266128
-0.264783
-0.24744
-0.237768
-0.222937
-0.212881
-0.200458
-0.19002
-0.178926
-0.168117
-0.157097
-0.146079
-0.135077
-0.124259
-0.113741
-0.103655
-0.0940927
-0.0851355
-0.0767942
-0.0691511
-0.0620536
-0.0557444
-0.0497711
-0.0446401
-0.314192
-0.266521
-0.264502
-0.245879
-0.2354
-0.219831
-0.209497
-0.196806
-0.186307
-0.175203
-0.164498
-0.153645
-0.142863
-0.132144
-0.121641
-0.11145
-0.101691
-0.0924431
-0.0837751
-0.0757023
-0.0682885
-0.0614075
-0.0552743
-0.0494682
-0.0444776
-0.315676
-0.267163
-0.264039
-0.244245
-0.23297
-0.216696
-0.206116
-0.19318
-0.18264
-0.171538
-0.160941
-0.150254
-0.139705
-0.129259
-0.119059
-0.109182
-0.0997355
-0.0907879
-0.0823981
-0.0745835
-0.0673919
-0.0607215
-0.0547581
-0.0491148
-0.0442601
-0.31685
-0.268111
-0.26338
-0.242535
-0.230482
-0.213535
-0.202739
-0.189581
-0.179015
-0.167924
-0.157442
-0.146921
-0.136599
-0.126418
-0.116509
-0.106933
-0.0977865
-0.0891271
-0.0810051
-0.0734391
-0.0664631
-0.0599972
-0.054198
-0.0487128
-0.0439902
-0.317696
-0.269401
-0.262528
-0.240748
-0.22794
-0.210349
-0.199367
-0.186006
-0.175429
-0.164359
-0.153996
-0.143641
-0.133542
-0.123617
-0.113988
-0.104702
-0.0958435
-0.0874607
-0.0795969
-0.0722705
-0.0655039
-0.0592363
-0.0535959
-0.0482655
-0.0436705
-0.318208
-0.27105
-0.2615
-0.23888
-0.225347
-0.207141
-0.195999
-0.182453
-0.171879
-0.160838
-0.150598
-0.140409
-0.130529
-0.120852
-0.111495
-0.102488
-0.0939056
-0.0857889
-0.0781741
-0.0710788
-0.0645156
-0.0584404
-0.0529539
-0.047775
-0.0433032
-0.318388
-0.273044
-0.260321
-0.236928
-0.222708
-0.203911
-0.192634
-0.178922
-0.168363
-0.157358
-0.147246
-0.137222
-0.127557
-0.118122
-0.109027
-0.100287
-0.0919721
-0.0841115
-0.0767374
-0.0698651
-0.0634997
-0.0576111
-0.0522743
-0.0472441
-0.042891
-0.318244
-0.275335
-0.259018
-0.234887
-0.220025
-0.20066
-0.189273
-0.175409
-0.164877
-0.153915
-0.143935
-0.134075
-0.124622
-0.115421
-0.106581
-0.0981002
-0.0900422
-0.0824287
-0.0752873
-0.0686305
-0.0624577
-0.05675
-0.051559
-0.0466747
-0.0424365
-0.317792
-0.277843
-0.257621
-0.23275
-0.217299
-0.197388
-0.185913
-0.171912
-0.161418
-0.150507
-0.140661
-0.130965
-0.12172
-0.112749
-0.104155
-0.0959248
-0.0881153
-0.0807403
-0.0738242
-0.0673758
-0.0613908
-0.0558586
-0.05081
-0.0460692
-0.0419422
-0.317049
-0.280459
-0.256153
-0.230514
-0.214533
-0.194096
-0.182554
-0.16843
-0.157984
-0.147129
-0.137421
-0.127889
-0.11885
-0.110102
-0.101747
-0.0937597
-0.0861906
-0.0790465
-0.0723485
-0.0661022
-0.0603001
-0.0549384
-0.0500292
-0.0454296
-0.0414106
-0.316041
-0.283052
-0.254634
-0.228172
-0.211726
-0.190783
-0.179193
-0.164961
-0.154571
-0.143778
-0.134213
-0.124844
-0.116007
-0.107478
-0.099356
-0.0916039
-0.0842676
-0.0773471
-0.0708608
-0.0648104
-0.0591869
-0.0539907
-0.0492185
-0.0447577
-0.0408439
-0.314802
-0.28548
-0.253078
-0.225721
-0.208879
-0.187448
-0.175829
-0.161501
-0.151178
-0.140453
-0.131032
-0.121826
-0.11319
-0.104875
-0.0969797
-0.0894561
-0.0823458
-0.0756421
-0.0693614
-0.0635013
-0.0580522
-0.0530169
-0.0483793
-0.0440552
-0.040244
-0.313375
-0.287601
-0.251492
-0.223157
-0.205992
-0.184091
-0.17246
-0.158049
-0.147801
-0.13715
-0.127876
-0.118834
-0.110395
-0.10229
-0.0946167
-0.0873153
-0.0804246
-0.0739316
-0.0678506
-0.0621756
-0.0568969
-0.0520184
-0.0475134
-0.0433238
-0.0396128
-0.311814
-0.289288
-0.249877
-0.220478
-0.203064
-0.18071
-0.169085
-0.154602
-0.144438
-0.133866
-0.124743
-0.115864
-0.107622
-0.0997221
-0.0922655
-0.0851807
-0.0785035
-0.0722155
-0.0663289
-0.0608341
-0.0557221
-0.0509962
-0.0466221
-0.0425648
-0.0389519
-0.310184
-0.290436
-0.248233
-0.217683
-0.200093
-0.177305
-0.165701
-0.151159
-0.141087
-0.1306
-0.12163
-0.112914
-0.104866
-0.0971692
-0.0899247
-0.0830512
-0.0765822
-0.0704938
-0.0647965
-0.0594776
-0.0545286
-0.0499515
-0.0457068
-0.0417796
-0.0382628
-0.308559
-0.290973
-0.246553
-0.214773
-0.197078
-0.173875
-0.162307
-0.147718
-0.137745
-0.127348
-0.118534
-0.109982
-0.102128
-0.0946297
-0.0875932
-0.0809262
-0.0746603
-0.0687664
-0.0632538
-0.0581065
-0.0533172
-0.0488855
-0.0447687
-0.0409695
-0.0375469
-0.307021
-0.290865
-0.244833
-0.211749
-0.194018
-0.170418
-0.1589
-0.144276
-0.13441
-0.124109
-0.115454
-0.107067
-0.0994035
-0.0921021
-0.0852698
-0.0788047
-0.0727373
-0.0670335
-0.0617011
-0.0567217
-0.0520888
-0.0477992
-0.0438091
-0.0401355
-0.0368054
-0.305654
-0.290112
-0.243065
-0.208615
-0.190911
-0.166934
-0.15548
-0.140832
-0.13108
-0.12088
-0.112388
-0.104165
-0.0966925
-0.0895849
-0.0829534
-0.0766862
-0.0708129
-0.0652949
-0.0601388
-0.0553237
-0.050844
-0.0466936
-0.042829
-0.0392787
-0.0360397
-0.30454
-0.288748
-0.241243
-0.205374
-0.187754
-0.16342
-0.152043
-0.137383
-0.127753
-0.117659
-0.109332
-0.101275
-0.0939929
-0.0870769
-0.0806431
-0.07457
-0.068887
-0.0635508
-0.0585671
-0.0539129
-0.0495836
-0.0455696
-0.0418294
-0.0384001
-0.0352509
-0.303754
-0.28683
-0.239361
-0.202031
-0.184548
-0.159877
-0.148589
-0.133928
-0.124428
-0.114446
-0.106286
-0.0983962
-0.0913033
-0.0845768
-0.0783379
-0.0724556
-0.0669591
-0.0618011
-0.0569864
-0.0524901
-0.0483083
-0.0444281
-0.0408113
-0.0375006
-0.0344402
-0.30336
-0.284432
-0.237415
-0.19859
-0.181289
-0.156302
-0.145115
-0.130466
-0.121102
-0.111237
-0.103249
-0.0955263
-0.0886222
-0.0820836
-0.076037
-0.0703423
-0.0650291
-0.0600459
-0.055397
-0.0510556
-0.0470186
-0.04327
-0.0397754
-0.0365811
-0.0336086
-0.303405
-0.281633
-0.2354
-0.195058
-0.177977
-0.152694
-0.141621
-0.126994
-0.117773
-0.108031
-0.100217
-0.0926638
-0.0859485
-0.0795963
-0.0737397
-0.0682299
-0.0630969
-0.0582853
-0.0537991
-0.04961
-0.0457153
-0.0420961
-0.0387227
-0.0356424
-0.0327571
-0.303923
-0.278512
-0.233311
-0.191437
-0.17461
-0.149053
-0.138103
-0.123511
-0.114441
-0.104827
-0.0971903
-0.0898077
-0.083281
-0.0771139
-0.0714454
-0.0661177
-0.0611621
-0.0565193
-0.052193
-0.0481538
-0.0443989
-0.0409072
-0.0376539
-0.0346854
-0.031887
-0.304928
-0.275141
-0.231147
-0.187733
-0.171186
-0.145377
-0.134562
-0.120015
-0.111104
-0.101624
-0.094167
-0.0869565
-0.0806185
-0.0746356
-0.0691533
-0.0640056
-0.0592248
-0.0547481
-0.0505791
-0.0466873
-0.0430701
-0.0397041
-0.0365696
-0.0337106
-0.0309989
-0.30642
-0.271583
-0.228901
-0.183949
-0.167704
-0.141665
-0.130995
-0.116506
-0.10776
-0.0984189
-0.0911459
-0.0841093
-0.0779602
-0.0721606
-0.066863
-0.0618931
-0.0572848
-0.0529717
-0.0489577
-0.0452111
-0.0417294
-0.0384874
-0.0354706
-0.0327189
-0.030094
-0.308383
-0.267885
-0.226571
-0.180088
-0.164162
-0.137915
-0.127401
-0.112981
-0.104407
-0.095212
-0.0881258
-0.0812648
-0.0753052
-0.0696882
-0.064574
-0.05978
-0.0553421
-0.0511902
-0.0473291
-0.0437257
-0.0403774
-0.0372579
-0.0343576
-0.0317111
-0.0291729
-0.310789
-0.264087
-0.224152
-0.176152
-0.160559
-0.134126
-0.123779
-0.10944
-0.101045
-0.0920015
-0.0851057
-0.0784223
-0.0726526
-0.0672178
-0.0622858
-0.057666
-0.0533965
-0.049404
-0.0456936
-0.0422313
-0.0390147
-0.0360162
-0.0332311
-0.030688
-0.0282365
-0.3136
-0.260215
-0.221639
-0.172143
-0.156892
-0.130297
-0.120127
-0.105881
-0.0976733
-0.0887866
-0.0820845
-0.0755808
-0.0700017
-0.0647489
-0.059998
-0.0555511
-0.0514482
-0.047613
-0.0440514
-0.0407286
-0.0376417
-0.034763
-0.032092
-0.0296505
-0.0272859
-0.316767
-0.256286
-0.219026
-0.168062
-0.15316
-0.126427
-0.116444
-0.102303
-0.0942896
-0.0855661
-0.0790613
-0.0727396
-0.0673519
-0.062281
-0.0577104
-0.053435
-0.0494971
-0.0458174
-0.042403
-0.0392178
-0.0362591
-0.0334988
-0.0309407
-0.0285996
-0.0263226
-0.320236
-0.25231
-0.216308
-0.163909
-0.149362
-0.122514
-0.112729
-0.0987057
-0.0908934
-0.0823393
-0.0760353
-0.069898
-0.0647026
-0.0598137
-0.0554227
-0.0513176
-0.0475433
-0.0440176
-0.0407486
-0.0376995
-0.0348674
-0.0322243
-0.0297777
-0.0275361
-0.0253478
-0.323947
-0.248288
-0.213477
-0.159682
-0.145495
-0.118558
-0.108981
-0.0950873
-0.0874838
-0.0791052
-0.0730058
-0.0670553
-0.0620534
-0.0573465
-0.0531347
-0.0491989
-0.0455869
-0.0422137
-0.0390886
-0.0361741
-0.0334671
-0.03094
-0.0286034
-0.0264603
-0.0243626
-0.327837
-0.244218
-0.210526
-0.155382
-0.141558
-0.114556
-0.105198
-0.0914471
-0.08406
-0.0758632
-0.0699723
-0.064211
-0.0594037
-0.0548793
-0.0508462
-0.0470788
-0.0436279
-0.0404059
-0.0374234
-0.0346421
-0.0320588
-0.0296463
-0.0274185
-0.0253729
-0.023366
-0.331839
-0.240094
-0.207448
-0.151006
-0.137549
-0.110508
-0.101381
-0.0877842
-0.0806215
-0.0726125
-0.0669341
-0.0613647
-0.0567533
-0.0524118
-0.0485571
-0.0449575
-0.0416667
-0.0385945
-0.0357533
-0.0331039
-0.0306429
-0.0283438
-0.0262243
-0.0242749
-0.0223532
-0.335887
-0.235905
-0.204235
-0.146553
-0.133466
-0.106412
-0.0975278
-0.0840979
-0.0771678
-0.0693526
-0.0638909
-0.0585161
-0.0541019
-0.0499439
-0.0462674
-0.042835
-0.0397032
-0.0367799
-0.0340788
-0.0315599
-0.0292197
-0.0270328
-0.0250223
-0.0231696
-0.0213159
-0.339912
-0.231641
-0.200878
-0.142019
-0.129308
-0.102268
-0.0936383
-0.0803871
-0.0736984
-0.0660832
-0.0608418
-0.0556651
-0.0514491
-0.0474755
-0.0439772
-0.0407113
-0.0377378
-0.0349622
-0.0324003
-0.0300107
-0.0277897
-0.0257142
-0.0238134
-0.0220601
-0.0202495
-0.343847
-0.227287
-0.19737
-0.137403
-0.125072
-0.0980729
-0.0897121
-0.0766511
-0.0702126
-0.0628041
-0.0577863
-0.0528112
-0.048795
-0.0450062
-0.0416864
-0.0385865
-0.0357707
-0.0331417
-0.0307183
-0.0284565
-0.0263535
-0.0243892
-0.0225978
-0.0209416
-0.019168
-0.347625
-0.222828
-0.193703
-0.132701
-0.120757
-0.0938265
-0.0857489
-0.07289
-0.0667094
-0.059515
-0.0547247
-0.0499533
-0.0461404
-0.0425357
-0.0393954
-0.0364606
-0.0338021
-0.0313189
-0.0290329
-0.0268978
-0.0249118
-0.0230596
-0.0213775
-0.0197949
-0.018105
-0.351182
-0.218249
-0.189868
-0.12791
-0.116363
-0.0895266
-0.0817482
-0.0691043
-0.0631886
-0.0562139
-0.0516598
-0.0470895
-0.0434865
-0.0400633
-0.037104
-0.0343341
-0.0318324
-0.0294945
-0.0273445
-0.0253351
-0.0234656
-0.0217258
-0.0201484
-0.0186334
-0.0170492
-0.354455
-0.213535
-0.185858
-0.123026
-0.111888
-0.0851724
-0.0777081
-0.0652929
-0.0596537
-0.0528957
-0.0485964
-0.0442181
-0.0408325
-0.0375901
-0.0348116
-0.0322078
-0.0298616
-0.0276686
-0.0256536
-0.023769
-0.0220155
-0.0203874
-0.0189097
-0.0174654
-0.0159911
-0.357383
-0.208668
-0.181666
-0.118047
-0.107333
-0.0807639
-0.0736288
-0.0614474
-0.0561145
-0.0495556
-0.0455344
-0.0413436
-0.038172
-0.0351203
-0.0325187
-0.0300815
-0.0278901
-0.0258415
-0.0239607
-0.0222
-0.020562
-0.0190442
-0.0176629
-0.0162939
-0.0149264
-0.35991
-0.203635
-0.177284
-0.112967
-0.102694
-0.0763009
-0.0695187
-0.0575513
-0.0525791
-0.0462002
-0.0424573
-0.0384767
-0.0355073
-0.0326509
-0.0302262
-0.0279553
-0.0259186
-0.0240136
-0.0222664
-0.0206287
-0.0191058
-0.0176965
-0.0164099
-0.0151191
-0.0138541
-0.361982
-0.198419
-0.172707
-0.107783
-0.0979689
-0.0717753
-0.0653996
-0.0535965
-0.0490329
-0.0428525
-0.03936
-0.0356104
-0.0328412
-0.0301811
-0.0279344
-0.0258295
-0.0239474
-0.0221854
-0.0205711
-0.0190557
-0.017647
-0.016345
-0.0151522
-0.0139406
-0.0127747
-0.363548
-0.193006
-0.16793
-0.102493
-0.0931578
-0.0671633
-0.0612877
-0.0496196
-0.0454398
-0.0395109
-0.0362514
-0.0327415
-0.030175
-0.027711
-0.0256437
-0.0237046
-0.0219769
-0.0203575
-0.0188753
-0.0174816
-0.0161864
-0.0149906
-0.0138908
-0.0127582
-0.0116893
-0.364562
-0.187382
-0.162947
-0.0970945
-0.088284
-0.0624371
-0.0571473
-0.0456577
-0.0418045
-0.0361661
-0.0331364
-0.0298689
-0.0275091
-0.0252412
-0.0233543
-0.021581
-0.0200076
-0.0185302
-0.0171797
-0.0159069
-0.0147244
-0.0136338
-0.0126262
-0.011572
-0.0105991
-0.364981
-0.181533
-0.157754
-0.0915756
-0.0833983
-0.0576133
-0.0529256
-0.0417067
-0.0381407
-0.0328129
-0.0300173
-0.0269929
-0.0248438
-0.0227722
-0.0210666
-0.0194592
-0.0180398
-0.0167042
-0.0154847
-0.0143322
-0.0132617
-0.0122756
-0.0113592
-0.0103824
-0.00950499
-0.364767
-0.175446
-0.152345
-0.0859039
-0.0785183
-0.0527372
-0.0486067
-0.0377493
-0.0344567
-0.0294494
-0.026895
-0.0241142
-0.0221791
-0.0203047
-0.0187809
-0.0173398
-0.0160743
-0.0148799
-0.0137909
-0.012758
-0.0117989
-0.0109165
-0.0100901
-0.00919003
-0.00840774
-0.363885
-0.16911
-0.146718
-0.0800456
-0.0735134
-0.0479248
-0.0442181
-0.0337756
-0.0307571
-0.0260753
-0.0237697
-0.0212336
-0.0195155
-0.0178391
-0.0164979
-0.0152232
-0.0141113
-0.013058
-0.0120989
-0.0111851
-0.0103367
-0.00955716
-0.00881964
-0.00799553
-0.00730809
-0.362306
-0.162515
-0.140891
-0.074038
-0.0683923
-0.0431137
-0.0397758
-0.0297806
-0.027044
-0.0226912
-0.0206418
-0.0183518
-0.0168532
-0.0153761
-0.014218
-0.0131099
-0.0121517
-0.011239
-0.0104093
-0.00961394
-0.00887582
-0.00819824
-0.0075484
-0.00679959
-0.00620668
-0.360002
-0.155657
-0.134897
-0.0679637
-0.0630735
-0.0382779
-0.0352896
-0.0257624
-0.0233189
-0.019298
-0.0175117
-0.0154698
-0.0141929
-0.0129162
-0.0119418
-0.0110006
-0.0101958
-0.00942346
-0.00872271
-0.00804528
-0.00741684
-0.00684037
-0.00627705
-0.00560294
-0.00510412
-0.356953
-0.148523
-0.128742
-0.0617691
-0.0576131
-0.0334036
-0.030765
-0.0217207
-0.0195827
-0.0158969
-0.0143798
-0.0125883
-0.0115351
-0.0104601
-0.00966992
-0.0088958
-0.00824445
-0.0076121
-0.00703978
-0.00647978
-0.00596046
-0.00548423
-0.0050063
-0.00440633
-0.00400101
-0.353139
-0.141075
-0.122332
-0.0555392
-0.0520363
-0.0284851
-0.0262055
-0.017656
-0.015836
-0.012489
-0.0112467
-0.00970812
-0.00888055
-0.00800845
-0.00740297
-0.00679619
-0.00629812
-0.00580552
-0.00536116
-0.00491811
-0.00450737
-0.00413048
-0.00373688
-0.0032105
-0.002898
-0.348548
-0.133238
-0.115717
-0.0492751
-0.0463581
-0.0235195
-0.0216138
-0.0135696
-0.0120797
-0.0090755
-0.00811308
-0.00683015
-0.00622989
-0.00556189
-0.00514163
-0.00470242
-0.00435751
-0.00400436
-0.00368751
-0.00336096
-0.00305825
-0.00277981
-0.00246952
-0.00201626
-0.00179579
-0.343169
-0.124997
-0.108939
-0.042941
-0.0405869
-0.0185062
-0.0169918
-0.00946273
-0.00831465
-0.0056577
-0.00497982
-0.00395523
-0.00358395
-0.00312118
-0.00288663
-0.00261517
-0.00242331
-0.0022093
-0.00201953
-0.00180903
-0.00161382
-0.00143292
-0.001205
-0.000824424
-0.000695182
-0.336999
-0.116589
-0.101817
-0.0365213
-0.0347286
-0.0134455
-0.0123413
-0.00533713
-0.00454188
-0.00223687
-0.00184783
-0.00108429
-0.000943542
-0.000687106
-0.000638689
-0.000535155
-0.000496197
-0.000421043
-0.000357913
-0.000263059
-0.000174779
-9.05372e-05
5.58896e-05
0.000364097
0.000402948
-0.330036
-0.107994
-0.0943717
-0.0300076
-0.0287881
-0.00833857
-0.0076642
-0.00119457
-0.000762499
0.00118568
0.00128187
0.0017817
0.00169044
0.00173952
0.00160141
0.00153688
0.0014231
0.00135972
0.00129663
0.00127624
0.00125813
0.0012466
0.0013123
0.00154834
0.00149775
-0.322284
-0.0991536
-0.0866564
-0.0233963
-0.0227695
-0.00318723
-0.00296229
0.00296305
0.00302222
0.0046086
0.00440818
0.00464174
0.00431708
0.00415786
0.00383288
0.00360019
0.00333386
0.00313226
0.00294337
0.00280813
0.00268418
0.00257772
0.00256332
0.00272729
0.00258854
-0.313777
-0.0900206
-0.078694
-0.0166867
-0.016677
0.00200635
0.0017625
0.00713375
0.00681087
0.00803046
0.00752994
0.00749475
0.00693541
0.00656701
0.00605488
0.00565397
0.00523531
0.00489585
0.00458157
0.00433187
0.00410262
0.00390206
0.00380803
0.0038999
0.00367471
-0.304575
-0.0805373
-0.070499
-0.00988023
-0.0105145
0.00723965
0.00650811
0.0113154
0.0106019
0.0114498
0.0106459
0.0103396
0.00954443
0.00896606
0.00826657
0.00769743
0.00712671
0.00664974
0.00621049
0.0058467
0.00551271
0.00521883
0.00504552
0.00506514
0.00475538
-0.294682
-0.0707112
-0.0620828
-0.00297953
-0.004286
0.0125098
0.0112723
0.0155059
0.0143938
0.0148651
0.0137548
0.0131752
0.0121431
0.0113541
0.0104671
0.00972974
0.00900725
0.00839318
0.00782938
0.00735185
0.00691368
0.00652727
0.00627494
0.00622195
0.00582896
-0.283902
-0.0607346
-0.0534573
0.00401197
0.00200432
0.0178138
0.0160527
0.0197029
0.0181847
0.0182748
0.0168552
0.0160003
0.0147303
0.01373
0.0126554
0.0117501
0.0108762
0.0101254
0.00943748
0.00884658
0.00830479
0.00782664
0.00749542
0.00736911
0.00689339
-0.272268
-0.0506255
-0.0446333
0.0110904
0.00835209
0.0231483
0.0208467
0.0239041
0.0219727
0.0216771
0.0199457
0.0188136
0.017305
0.0160929
0.0148308
0.0137575
0.0127326
0.0118456
0.011034
0.0103301
0.00968527
0.00911617
0.00870598
0.00850515
0.00794739
-0.259879
-0.0403229
-0.0356213
0.0182513
0.0147527
0.0285098
0.0256516
0.028107
0.025756
0.0250705
0.0230249
0.0216139
0.0198659
0.0184418
0.0169922
0.0157513
0.0145758
0.0135531
0.0126182
0.0118017
0.0110544
0.010395
0.00990539
0.00962838
0.00899118
-0.246767
-0.029815
-0.0264318
0.0254898
0.0212015
0.0338946
0.0304646
0.0323092
0.0295324
0.0284531
0.0260911
0.0243998
0.0224119
0.0207755
0.0191386
0.0177304
0.0164049
0.015247
0.0141894
0.0132605
0.0124115
0.0116625
0.0110924
0.0107369
0.0100245
-0.23296
-0.0191025
-0.0170755
0.0328004
0.0276933
0.0392987
0.0352826
0.0365079
0.0332999
0.0318231
0.0291429
0.02717
0.0249418
0.0230929
0.0212691
0.0196939
0.018219
0.0169265
0.0157467
0.014706
0.0137558
0.0129177
0.0122656
0.0118287
0.011042
-0.218488
-0.00819065
-0.00756346
0.0401771
0.0342228
0.0447183
0.0401024
0.0407005
0.0370561
0.0351786
0.0321786
0.0299229
0.0274543
0.0253929
0.0233826
0.0216411
0.0200174
0.0185909
0.0172894
0.0161375
0.0150868
0.01416
0.0134243
0.0129011
0.0120336
-0.203383
0.00291217
0.00209269
0.0476138
0.0407846
0.050149
0.0449207
0.0448842
0.0407989
0.0385177
0.0351965
0.0326572
0.0299481
0.0276745
0.0254781
0.0235708
0.0217991
0.0202394
0.0188168
0.0175541
0.0164037
0.0153887
0.0145677
0.0139525
0.0129959
-0.187678
0.0141954
0.011881
0.0551035
0.0473728
0.0555865
0.049734
0.0490561
0.0445258
0.0418383
0.0381949
0.0353715
0.032422
0.0299364
0.0275546
0.0254823
0.0235634
0.0218712
0.0203283
0.0189553