/*--------------------------------*- C++ -*----------------------------------*\
  =========                 |
  \\      /  F ield         | OpenFOAM: The Open Source CFD Toolbox
   \\    /   O peration     | Website:  https://openfoam.org
    \\  /    A nd           | Version:  7
     \\/     M anipulation  |
\*---------------------------------------------------------------------------*/
FoamFile
{
    version     2.0;
    format      ascii;
    class       volScalarField;
    location    "10.5";
    object      rho;
}
// * * * * * * * * * * * * * * * * * * * * * * * * * * * * * * * * * * * * * //

dimensions      [1 -3 0 0 0 0 0];

internalField   nonuniform List<scalar> 
2413
(
1.77802
1.77269
1.76562
1.75792
1.74996
1.74682
1.74882
1.76094
1.81175
1.90895
1.99725
2.01891
2.01887
2.01455
2.00215
1.98732
1.97318
1.96052
1.95191
1.94636
1.9411
1.93533
1.93115
1.92841
1.92512
1.92389
1.92331
1.92197
1.9207
1.92052
1.92088
1.92153
1.92151
1.92127
1.9222
1.92387
1.92547
1.92678
1.92794
1.92882
1.92911
1.92847
1.92748
1.92686
1.92631
1.92564
1.92597
1.92607
1.92515
1.92521
1.92447
1.9235
1.92311
1.92291
1.92167
1.91956
1.91757
1.91245
1.7291
1.72679
1.72558
1.72372
1.72112
1.7196
1.71789
1.71517
1.71324
1.71155
1.70886
1.70641
1.70469
1.70231
1.69969
1.69814
1.6963
1.69392
1.69247
1.69139
1.68967
1.68821
1.6877
1.68711
1.68585
1.68505
1.68468
1.68343
1.68129
1.67949
1.67749
1.67471
1.67173
1.6691
1.66631
1.66346
1.66105
1.65884
1.65724
1.65654
1.65603
1.65606
1.6565
1.65777
1.66151
1.67126
1.69208
1.72893
1.78177
1.83931
1.89595
1.93838
1.97111
1.99557
1.99357
1.98691
1.98082
1.97346
1.96776
1.9595
1.95078
1.94182
1.93146
1.91964
1.90481
1.89002
1.8755
1.86147
1.84878
1.83839
1.82923
1.81787
1.80671
1.79625
1.78562
1.77778
1.76886
1.76011
1.75228
1.74758
1.7486
1.75591
1.78558
1.86556
1.96717
2.02147
2.02605
2.02391
2.01515
2.00292
1.98929
1.97517
1.96754
1.96271
1.95707
1.95189
1.94819
1.94436
1.93995
1.93655
1.93353
1.93001
1.9279
1.9275
1.92698
1.92619
1.92526
1.92436
1.92364
1.92347
1.92392
1.92441
1.92495
1.92563
1.92606
1.92577
1.92484
1.92361
1.92184
1.92041
1.91986
1.91881
1.91788
1.91751
1.9167
1.9153
1.9145
1.9137
1.91127
1.90996
1.90883
1.90447
1.72316
1.72131
1.71999
1.71759
1.71532
1.71401
1.71193
1.70935
1.7078
1.70591
1.70308
1.70097
1.69911
1.69643
1.6939
1.69227
1.69018
1.68774
1.68637
1.68507
1.68315
1.68182
1.6814
1.68061
1.67935
1.67893
1.67868
1.67727
1.67548
1.67393
1.67191
1.6692
1.66637
1.66383
1.66108
1.65828
1.65598
1.65376
1.65209
1.65159
1.65114
1.65099
1.65121
1.65145
1.6525
1.65493
1.659
1.66638
1.68011
1.70356
1.73868
1.7846
1.83146
1.87651
1.90738
1.93098
1.95213
1.95319
1.94751
1.94232
1.93636
1.93219
1.92828
1.92083
1.91363
1.90473
1.89406
1.88194
1.86893
1.85612
1.8455
1.83598
1.82567
1.8153
1.80328
1.79237
1.78255
1.77189
1.76268
1.75399
1.752
1.75573
1.77256
1.82726
1.92609
2.01217
2.03114
2.03074
2.02499
2.01564
2.00333
1.98872
1.98201
1.97719
1.97029
1.96676
1.96418
1.95965
1.95534
1.95153
1.94741
1.94282
1.9379
1.93414
1.93135
1.92943
1.92843
1.92782
1.92728
1.92677
1.92615
1.9253
1.9244
1.92375
1.92335
1.92282
1.92206
1.92082
1.91889
1.91744
1.91597
1.91367
1.91199
1.91112
1.91005
1.90843
1.9074
1.90605
1.9037
1.90298
1.90159
1.8968
1.7173
1.71587
1.71417
1.71143
1.70965
1.70818
1.70568
1.70352
1.7021
1.69992
1.69722
1.69541
1.69341
1.69053
1.68818
1.68643
1.68412
1.68164
1.68026
1.67882
1.67683
1.67561
1.67521
1.67428
1.67318
1.67305
1.67284
1.67136
1.67003
1.66861
1.66654
1.66395
1.66132
1.6588
1.65611
1.65331
1.65096
1.64869
1.6468
1.64633
1.64613
1.64588
1.64624
1.64659
1.64719
1.64888
1.65142
1.65464
1.65773
1.6612
1.66772
1.68076
1.70213
1.73245
1.76889
1.80511
1.8407
1.86573
1.88525
1.90605
1.9137
1.90923
1.90706
1.90344
1.89997
1.89862
1.89323
1.88664
1.87838
1.86811
1.85871
1.84884
1.83883
1.83088
1.82456
1.81645
1.80696
1.79552
1.784
1.77167
1.76157
1.76113
1.76875
1.80138
1.8828
1.98909
2.03587
2.03955
2.03661
2.03042
2.01998
2.0051
1.99774
1.99161
1.98309
1.98002
1.97763
1.97291
1.96918
1.96551
1.96079
1.95564
1.94995
1.9444
1.93947
1.93566
1.93338
1.93172
1.93049
1.9296
1.92862
1.9273
1.9258
1.92425
1.92274
1.9213
1.92013
1.91883
1.91747
1.91626
1.91418
1.91161
1.90954
1.90772
1.90526
1.90209
1.90052
1.89897
1.89781
1.89686
1.89508
1.89138
1.71169
1.71039
1.70817
1.70547
1.70398
1.70213
1.69943
1.6977
1.69618
1.69369
1.69135
1.68975
1.68758
1.68469
1.68257
1.68072
1.67829
1.67571
1.67427
1.67283
1.67087
1.66958
1.66918
1.66832
1.6673
1.66723
1.6671
1.66576
1.66458
1.66323
1.66128
1.65892
1.65628
1.65373
1.6511
1.64832
1.64582
1.64349
1.64134
1.64069
1.64067
1.64042
1.64074
1.64138
1.64181
1.64327
1.6458
1.64873
1.6512
1.65216
1.65289
1.65397
1.65622
1.66127
1.67126
1.68718
1.70945
1.73693
1.76583
1.79411
1.8195
1.83987
1.85879
1.87164
1.87109
1.87148
1.87114
1.86924
1.86934
1.86598
1.86044
1.85271
1.84294
1.83575
1.83166
1.82651
1.81979
1.81211
1.80257
1.79162
1.77964
1.77369
1.77603
1.79249
1.84972
1.95419
2.03877
2.05988
2.05857
2.05332
2.04389
2.02802
2.01873
2.01047
2.00037
1.99586
1.99146
1.98432
1.98042
1.9776
1.97328
1.96847
1.9632
1.95741
1.95152
1.9456
1.94049
1.93632
1.93324
1.93191
1.9312
1.92991
1.92808
1.92611
1.92432
1.92265
1.92075
1.91815
1.9157
1.91363
1.91149
1.90993
1.90816
1.90561
1.90244
1.89956
1.89783
1.89596
1.89363
1.891
1.88921
1.88661
1.70619
1.70468
1.70197
1.69976
1.69828
1.69594
1.69333
1.69186
1.69006
1.68739
1.68545
1.68386
1.68159
1.67887
1.67695
1.67503
1.67265
1.66994
1.66835
1.66697
1.66512
1.66361
1.66319
1.66254
1.6615
1.66129
1.66128
1.6602
1.65896
1.65774
1.65597
1.65371
1.65108
1.64851
1.64589
1.6431
1.64046
1.63808
1.63573
1.63469
1.6347
1.63451
1.63469
1.63554
1.63588
1.63692
1.6394
1.64251
1.6456
1.64677
1.64677
1.64652
1.64602
1.64542
1.64472
1.64441
1.64643
1.65169
1.66181
1.67751
1.69793
1.72186
1.74638
1.77073
1.7909
1.81094
1.82579
1.82951
1.83291
1.83667
1.83866
1.84052
1.83919
1.83463
1.82803
1.82075
1.81456
1.8092
1.80464
1.79899
1.79339
1.78979
1.78964
1.79673
1.82905
1.91074
2.02564
2.08034
2.08792
2.08327
2.0747
2.05835
2.04589
2.03586
2.02515
2.01896
2.01245
2.00305
1.99535
1.98915
1.98166
1.97712
1.97367
1.96869
1.96288
1.95703
1.95155
1.94623
1.9407
1.9357
1.93213
1.92956
1.92774
1.92662
1.92561
1.9241
1.92167
1.91885
1.91668
1.91467
1.91223
1.90957
1.9062
1.90258
1.89926
1.89693
1.89525
1.89341
1.89079
1.88857
1.88757
1.88471
1.70053
1.69853
1.69578
1.69418
1.69237
1.68961
1.68752
1.68593
1.68376
1.68118
1.67943
1.67772
1.67553
1.67299
1.67108
1.66917
1.66696
1.66426
1.66235
1.66103
1.65931
1.65759
1.65703
1.65657
1.65555
1.65509
1.65518
1.65449
1.65316
1.65205
1.65049
1.6483
1.64567
1.64312
1.64053
1.63777
1.63502
1.63254
1.63015
1.62854
1.62842
1.62832
1.62832
1.62917
1.62966
1.63022
1.63229
1.6354
1.63889
1.64125
1.64134
1.64112
1.64059
1.6396
1.63798
1.63576
1.63307
1.63026
1.62801
1.62724
1.62967
1.63585
1.6459
1.66055
1.67921
1.69902
1.71973
1.73947
1.75802
1.77513
1.78386
1.79105
1.79991
1.8038
1.80536
1.80653
1.80584
1.80457
1.80234
1.79815
1.79388
1.79051
1.78872
1.79012
1.80313
1.85609
1.96009
2.07895
2.1066
2.11316
2.10996
2.09658
2.08051
2.06683
2.05416
2.04618
2.03862
2.02847
2.0192
2.01028
1.99874
1.98902
1.98243
1.97567
1.97075
1.96744
1.96302
1.95661
1.94909
1.94244
1.93776
1.93425
1.93119
1.92827
1.92533
1.92251
1.91985
1.9179
1.91634
1.91431
1.91184
1.90907
1.90575
1.90257
1.89953
1.89648
1.89372
1.89108
1.88883
1.88797
1.88671
1.88368
1.69451
1.69195
1.68985
1.68839
1.68597
1.68352
1.68183
1.67965
1.67734
1.67526
1.67323
1.67134
1.66933
1.66702
1.66488
1.66303
1.66101
1.65848
1.65624
1.65494
1.6533
1.65145
1.65072
1.65032
1.64936
1.64874
1.64887
1.64848
1.6472
1.64623
1.64484
1.64273
1.64022
1.63775
1.63519
1.63247
1.62969
1.6271
1.62477
1.62269
1.62216
1.62223
1.6221
1.62258
1.62342
1.62376
1.62511
1.62803
1.6315
1.63499
1.63592
1.63575
1.63554
1.63494
1.63363
1.63154
1.62852
1.62509
1.62145
1.61775
1.6144
1.61152
1.60996
1.61028
1.61277
1.61807
1.6263
1.63825
1.65281
1.66863
1.68614
1.70236
1.71711
1.73185
1.7427
1.75288
1.75957
1.76482
1.76834
1.76901
1.7693
1.76858
1.76674
1.76667
1.77309
1.80252
1.87772
1.99927
2.08919
2.14414
2.14532
2.14103
2.12906
2.11279
2.09335
2.07577
2.06315
2.05279
2.04539
2.03648
2.02334
2.01178
2.00246
1.99246
1.98191
1.9719
1.96389
1.95717
1.95158
1.94767
1.94391
1.93969
1.93525
1.93101
1.9272
1.92396
1.92127
1.91899
1.91644
1.91335
1.91036
1.90756
1.90488
1.9027
1.9004
1.89794
1.8956
1.89311
1.89096
1.88889
1.8855
1.88155
1.68811
1.68548
1.68395
1.6822
1.67947
1.67762
1.67588
1.67325
1.67116
1.66938
1.66699
1.6649
1.66309
1.66094
1.6585
1.65669
1.65489
1.65254
1.65016
1.64879
1.64718
1.64519
1.64432
1.64389
1.64297
1.64235
1.64252
1.64234
1.64118
1.6404
1.63924
1.63724
1.63489
1.63253
1.63003
1.62737
1.62456
1.62193
1.61961
1.6174
1.61621
1.61628
1.61632
1.6163
1.61711
1.61774
1.61857
1.62091
1.62425
1.62804
1.63043
1.63051
1.6304
1.63026
1.62949
1.62779
1.62514
1.62175
1.618
1.61402
1.60988
1.60598
1.60254
1.59951
1.59679
1.59454
1.59293
1.59275
1.59414
1.59735
1.60272
1.61066
1.62054
1.63261
1.64575
1.65948
1.67364
1.68593
1.69788
1.7085
1.71728
1.72376
1.72931
1.73548
1.7425
1.7582
1.80116
1.89549
2.02147
2.11482
2.15571
2.17678
2.17573
2.16809
2.1532
2.13229
2.11129
2.08753
2.06734
2.05463
2.04561
2.03749
2.02684
2.01342
1.99894
1.98541
1.9749
1.96656
1.95879
1.95267
1.94744
1.9422
1.93743
1.93331
1.92946
1.92617
1.92342
1.92075
1.91777
1.91456
1.91135
1.90802
1.90455
1.90175
1.8997
1.89848
1.89716
1.89526
1.89294
1.88963
1.88598
1.88327
1.68155
1.67928
1.67792
1.67581
1.67321
1.67166
1.66975
1.66703
1.66516
1.66338
1.6608
1.65858
1.65691
1.65479
1.65215
1.65037
1.64876
1.64651
1.64412
1.64277
1.6412
1.63912
1.63812
1.6376
1.63667
1.63607
1.63628
1.63623
1.63521
1.63464
1.63375
1.6319
1.62973
1.6275
1.62505
1.62241
1.61964
1.617
1.61464
1.61247
1.61074
1.6104
1.61067
1.61064
1.61078
1.61175
1.61253
1.61418
1.61725
1.62097
1.62441
1.62529
1.62536
1.62545
1.62503
1.62375
1.62151
1.6184
1.61477
1.61081
1.60658
1.60244
1.59864
1.59502
1.59169
1.5885
1.58544
1.58262
1.5801
1.57762
1.5756
1.57427
1.57388
1.57504
1.57791
1.58234
1.58866
1.59691
1.6064
1.61674
1.62776
1.63932
1.65027
1.66109
1.67184
1.68362
1.70686
1.76293
1.87285
1.99733
2.08385
2.13522
2.16896
2.19311
2.19717
2.19277
2.17374
2.14689
2.12064
2.09714
2.07425
2.05642
2.04161
2.02789
2.01566
2.00322
1.99146
1.98148
1.9721
1.96394
1.95677
1.94946
1.94237
1.93649
1.93152
1.92784
1.92523
1.92273
1.92007
1.91702
1.91348
1.90978
1.90671
1.90466
1.90318
1.90172
1.89958
1.89692
1.89375
1.88942
1.88635
1.88468
1.67507
1.67321
1.6718
1.66943
1.66708
1.66562
1.66355
1.66087
1.65917
1.65739
1.65473
1.65248
1.65087
1.64876
1.64604
1.64433
1.64284
1.64059
1.63833
1.63702
1.6355
1.63338
1.63216
1.63159
1.63065
1.62996
1.63014
1.63027
1.62941
1.62897
1.62834
1.62669
1.62467
1.62254
1.62015
1.61751
1.61477
1.61206
1.60964
1.60748
1.60553
1.60465
1.60472
1.60505
1.60492
1.60538
1.60642
1.60763
1.61016
1.61373
1.61751
1.61973
1.62031
1.6204
1.62002
1.61907
1.61731
1.61459
1.61121
1.60738
1.6032
1.59902
1.59508
1.59138
1.58791
1.58458
1.58137
1.57817
1.57519
1.57218
1.56922
1.56639
1.56362
1.56109
1.55874
1.55698
1.55538
1.55499
1.55571
1.55706
1.55962
1.56386
1.57012
1.57844
1.58811
1.5984
1.61323
1.6407
1.70063
1.80143
1.92645
2.03588
2.09849
2.14326
2.18015
2.19934
2.20336
2.1984
2.18111
2.15301
2.12333
2.09706
2.07468
2.05398
2.03642
2.02138
2.0086
1.99809
1.98814
1.97824
1.96913
1.96033
1.95227
1.9457
1.94003
1.935
1.93032
1.92554
1.92142
1.91777
1.91458
1.91215
1.91077
1.90976
1.90836
1.90583
1.90218
1.8984
1.89488
1.89217
1.89089
1.8879
1.66867
1.66705
1.66557
1.66312
1.66099
1.65949
1.65733
1.65474
1.65315
1.65137
1.64868
1.64657
1.64505
1.64287
1.64019
1.63863
1.63709
1.63473
1.63273
1.63153
1.63006
1.62804
1.62647
1.62586
1.62496
1.62407
1.62402
1.62433
1.62369
1.62319
1.62279
1.62144
1.61957
1.61753
1.61519
1.61254
1.60978
1.607
1.60447
1.6022
1.60017
1.59884
1.59854
1.59888
1.599
1.59896
1.59988
1.60092
1.60277
1.60603
1.60982
1.61339
1.61478
1.6147
1.61444
1.61391
1.61264
1.61036
1.6073
1.60367
1.5996
1.59544
1.59146
1.58773
1.58423
1.58086
1.57774
1.57458
1.57159
1.56866
1.56566
1.56266
1.55965
1.55659
1.55369
1.55092
1.54808
1.54546
1.54311
1.5408
1.53818
1.5359
1.53606
1.53755
1.5405
1.54487
1.5519
1.56641
1.59578
1.64516
1.72165
1.81619
1.92019
2.03576
2.11261
2.16162
2.18913
2.19857
2.19933
2.18772
2.16803
2.1436
2.11392
2.08875
2.06931
2.05217
2.0363
2.02142
2.00711
1.99354
1.98212
1.97267
1.96459
1.95808
1.95188
1.94542
1.93873
1.93222
1.92702
1.92292
1.91992
1.91775
1.91558
1.91274
1.9092
1.9054
1.90196
1.89875
1.89596
1.89388
1.8921
1.88812
1.66221
1.66064
1.65918
1.65688
1.65479
1.65322
1.65117
1.64871
1.6471
1.64522
1.64267
1.64089
1.63924
1.63679
1.63456
1.63321
1.63136
1.62893
1.6273
1.62613
1.62466
1.62284
1.62099
1.62021
1.61943
1.61831
1.61787
1.61818
1.61789
1.61724
1.61694
1.61599
1.61434
1.61236
1.61009
1.60746
1.60462
1.60176
1.59905
1.59662
1.59453
1.59288
1.59217
1.59224
1.59267
1.59254
1.59291
1.59396
1.59519
1.5979
1.60154
1.60562
1.60841
1.60857
1.60855
1.60839
1.60754
1.60579
1.60319
1.59985
1.59593
1.59181
1.58782
1.58409
1.58058
1.57719
1.57415
1.57109
1.56817
1.56538
1.56249
1.55954
1.55659
1.55347
1.55042
1.5475
1.5445
1.54155
1.53881
1.53603
1.53298
1.52985
1.52792
1.52771
1.52838
1.52969
1.53276
1.54143
1.56207
1.59356
1.62728
1.66646
1.72186
1.80519
1.91504
2.05542
2.13934
2.18066
2.18846
2.18628
2.17036
2.15058
2.13281
2.11423
2.09685
2.07935
2.06236
2.04504
2.02786
2.01308
2.00189
1.99201
1.98158
1.97137
1.9617
1.95301
1.94643
1.94133
1.93704
1.93297
1.92861
1.92354
1.9182
1.91332
1.90916
1.9059
1.90371
1.90163
1.8994
1.89645
1.89298
1.88731
1.65567
1.65398
1.65261
1.6507
1.64845
1.64684
1.64506
1.64291
1.64089
1.63885
1.63694
1.63525
1.63307
1.63063
1.62917
1.62774
1.62554
1.62321
1.62187
1.62069
1.61922
1.61756
1.61566
1.61458
1.61383
1.61262
1.61166
1.61168
1.61176
1.61109
1.61071
1.61016
1.60883
1.60699
1.60483
1.60234
1.59947
1.59651
1.59362
1.59101
1.58875
1.58686
1.58573
1.58548
1.58587
1.58602
1.58596
1.58693
1.58786
1.58967
1.59306
1.59704
1.60093
1.60229
1.60259
1.60258
1.60206
1.60086
1.59883
1.59588
1.59219
1.58819
1.58423
1.58049
1.57695
1.57351
1.5705
1.56752
1.56464
1.56197
1.5592
1.55633
1.55346
1.55041
1.54731
1.54442
1.54146
1.53852
1.53576
1.53296
1.52997
1.52677
1.52426
1.52361
1.52397
1.5245
1.52626
1.53256
1.5499
1.57972
1.61171
1.63178
1.64573
1.6681
1.71753
1.81711
1.95175
2.09713
2.16729
2.17106
2.16135
2.14789
2.13201
2.11287
2.0946
2.0771
2.06177
2.05057
2.03956
2.02698
2.01447
2.00221
1.99015
1.97928
1.96986
1.96124
1.95395
1.94744
1.94075
1.93426
1.9282
1.92239
1.91726
1.91301
1.90948
1.90659
1.9037
1.90037
1.89698
1.89318
1.88975
1.88487
1.64921
1.64717
1.64593
1.6444
1.6422
1.64041
1.63892
1.63712
1.63476
1.63276
1.63123
1.62946
1.62704
1.62481
1.62357
1.62202
1.6198
1.61757
1.61625
1.61506
1.61366
1.61208
1.61019
1.60886
1.60804
1.60683
1.60545
1.60502
1.60523
1.60485
1.60423
1.60393
1.60303
1.60143
1.59946
1.59718
1.59444
1.59139
1.58839
1.58561
1.58314
1.58108
1.57953
1.57891
1.57907
1.5795
1.57937
1.57993
1.58103
1.58202
1.58467
1.58857
1.59278
1.5956
1.59645
1.59658
1.59633
1.59562
1.59417
1.59172
1.58837
1.58458
1.58068
1.57692
1.57335
1.56984
1.56677
1.56377
1.56086
1.55822
1.5555
1.55268
1.54988
1.54696
1.54388
1.54105
1.53826
1.53543
1.53278
1.53009
1.52724
1.52423
1.52156
1.52051
1.52067
1.52097
1.52197
1.5266
1.54065
1.56954
1.6028
1.62623
1.63679
1.64098
1.64841
1.67342
1.74034
1.86776
2.01003
2.11662
2.15314
2.15172
2.13575
2.11193
2.09217
2.07426
2.05894
2.0472
2.0361
2.02434
2.01227
2.00081
1.99002
1.9805
1.97207
1.96366
1.9555
1.94776
1.93998
1.93276
1.92632
1.92054
1.91573
1.91159
1.90762
1.90382
1.89992
1.89589
1.89199
1.88803
1.88509
1.88062
1.64288
1.64065
1.63924
1.63804
1.63619
1.6341
1.63279
1.63129
1.62913
1.62695
1.62542
1.62369
1.62139
1.61902
1.61771
1.61625
1.61421
1.61199
1.61047
1.60935
1.60808
1.60645
1.60454
1.60315
1.60219
1.60088
1.59929
1.59842
1.59852
1.59834
1.59755
1.59738
1.59694
1.59567
1.59398
1.59199
1.58951
1.58652
1.58348
1.58058
1.57793
1.57565
1.57374
1.57267
1.57254
1.57303
1.5731
1.57329
1.57453
1.57527
1.57681
1.58031
1.58451
1.58824
1.59021
1.59065
1.59051
1.5901
1.58914
1.58723
1.58435
1.58086
1.57704
1.57325
1.56962
1.56602
1.56283
1.55978
1.55676
1.5541
1.55141
1.54862
1.54587
1.5431
1.54011
1.53735
1.53471
1.53202
1.52947
1.52693
1.52419
1.52138
1.51866
1.5173
1.51729
1.51751
1.51789
1.52134
1.53242
1.55847
1.5936
1.62183
1.63476
1.63832
1.6415
1.64598
1.65877
1.69965
1.79672
1.94005
2.05214
2.10595
2.11318
2.10624
2.09367
2.07838
2.06114
2.04482
2.03056
2.01816
2.00713
1.99723
1.98782
1.97877
1.97029
1.96156
1.95268
1.94423
1.93602
1.92861
1.92231
1.91672
1.91175
1.90717
1.9026
1.89807
1.89355
1.88933
1.88545
1.88195
1.87946
1.87496
1.63663
1.63454
1.6327
1.6317
1.63027
1.6281
1.62668
1.62551
1.62375
1.62146
1.61981
1.61816
1.61606
1.61347
1.61189
1.61053
1.60869
1.60649
1.60473
1.60369
1.60249
1.60072
1.59877
1.59742
1.59635
1.59494
1.5932
1.59197
1.59192
1.59167
1.59077
1.5906
1.59057
1.58967
1.58828
1.58662
1.58446
1.58174
1.57874
1.57583
1.57307
1.57055
1.5684
1.56683
1.56633
1.56661
1.56695
1.56697
1.56797
1.56903
1.56976
1.57219
1.57626
1.58023
1.58358
1.58478
1.58461
1.58428
1.58373
1.58239
1.58003
1.57692
1.57327
1.56947
1.5658
1.56211
1.55874
1.55559
1.55244
1.54971
1.54702
1.54426
1.54155
1.53893
1.53609
1.53337
1.53086
1.5283
1.52582
1.52342
1.52075
1.51803
1.51534
1.51372
1.51356
1.51375
1.5138
1.51627
1.525
1.54653
1.58256
1.61477
1.63331
1.63944
1.64181
1.64489
1.64972
1.65797
1.68344
1.75231
1.8713
1.98962
2.05196
2.0716
2.07026
2.06169
2.04806
2.03253
2.01895
2.00841
1.99962
1.99135
1.98279
1.97377
1.96463
1.95524
1.94597
1.93774
1.93041
1.92374
1.91776
1.91208
1.90645
1.90102
1.89579
1.89074
1.88613
1.88227
1.87879
1.87572
1.87316
1.86811
1.6306
1.62871
1.62648
1.62542
1.62433
1.62232
1.62067
1.61976
1.61837
1.61617
1.61437
1.61285
1.61089
1.6082
1.60624
1.6049
1.60318
1.60092
1.59912
1.59815
1.59686
1.59493
1.59305
1.59174
1.5905
1.589
1.58719
1.58561
1.58529
1.58483
1.58393
1.58369
1.58388
1.58337
1.58224
1.58092
1.57913
1.57678
1.57399
1.57111
1.56829
1.56558
1.56322
1.56125
1.56026
1.56013
1.56054
1.56079
1.56125
1.56253
1.56328
1.56459
1.56791
1.57186
1.5759
1.57858
1.57859
1.57832
1.57812
1.57724
1.5754
1.57275
1.56939
1.56562
1.56191
1.55813
1.55459
1.55135
1.5481
1.54528
1.54262
1.5399
1.53725
1.53473
1.53207
1.52937
1.52689
1.52437
1.52186
1.51953
1.51694
1.51416
1.51145
1.50965
1.50936
1.50955
1.50955
1.51125
1.51821
1.53542
1.56897
1.60559
1.63045
1.64203
1.64529
1.64766
1.65017
1.65358
1.65932
1.67458
1.72106
1.81225
1.92537
2.01675
2.04235
2.03781
2.02639
2.0139
2.00276
1.99323
1.98566
1.97872
1.97118
1.96252
1.9534
1.94467
1.93683
1.93021
1.92431
1.91843
1.91248
1.90639
1.89997
1.8937
1.88816
1.88319
1.87909
1.87573
1.87249
1.86934
1.86631
1.86051
1.62471
1.62291
1.62046
1.61914
1.6183
1.61655
1.61471
1.61394
1.61286
1.61079
1.60898
1.60761
1.60576
1.60307
1.6008
1.59936
1.59763
1.59529
1.5935
1.59252
1.5911
1.58907
1.58725
1.58594
1.58459
1.583
1.5812
1.57937
1.57859
1.57792
1.5771
1.57678
1.57697
1.5767
1.57571
1.57471
1.57331
1.57135
1.56893
1.56613
1.56331
1.56054
1.55799
1.55581
1.55426
1.55367
1.55366
1.5543
1.55463
1.55515
1.55652
1.55756
1.5596
1.56319
1.56725
1.57131
1.57249
1.57235
1.57235
1.57183
1.57052
1.5684
1.56542
1.56175
1.55801
1.55422
1.55055
1.54725
1.54395
1.54104
1.5384
1.53573
1.5331
1.53064
1.52813
1.52542
1.52289
1.52037
1.51782
1.51544
1.51294
1.51005
1.50727
1.50526
1.50477
1.50492
1.50502
1.50619
1.5115
1.52529
1.55399
1.59372
1.62543
1.64402
1.64955
1.65131
1.6516
1.65278
1.65606
1.66062
1.67074
1.70155
1.77399
1.87556
1.95839
1.9967
2.00245
1.99968
1.99306
1.98305
1.97273
)
;

boundaryField
{
    inlet
    {
        type            calculated;
        value           nonuniform 0();
    }
    outlet
    {
        type            calculated;
        value           nonuniform List<scalar> 
18
(
1.91243
1.90444
1.89677
1.89134
1.88655
1.88466
1.88362
1.88151
1.88321
1.88461
1.88786
1.88811
1.88731
1.88487
1.88062
1.87497
1.86813
1.86055
)
;
    }
    bottom
    {
        type            symmetryPlane;
    }
    top
    {
        type            symmetryPlane;
    }
    obstacle
    {
        type            calculated;
        value           nonuniform 0();
    }
    front
    {
        type            empty;
    }
    back
    {
        type            empty;
    }
    procBoundary23to15
    {
        type            processor;
        value           nonuniform List<scalar> 
133
(
1.77638
1.76921
1.76126
1.75325
1.74712
1.74675
1.75134
1.77541
1.84873
1.95197
2.00895
2.01302
2.01072
2.00258
1.98663
1.96915
1.95555
1.94476
1.93474
1.92842
1.92465
1.91982
1.91609
1.91499
1.91384
1.91279
1.91256
1.91242
1.91254
1.91432
1.91695
1.91927
1.92107
1.92299
1.92513
1.9272
1.92888
1.92987
1.93035
1.93098
1.93151
1.93163
1.93182
1.93258
1.93329
1.93323
1.9339
1.93475
1.93438
1.93492
1.93499
1.93397
1.93334
1.93216
1.93104
1.92902
1.92657
1.92116
1.73477
1.7323
1.73082
1.72945
1.7269
1.72495
1.72348
1.72095
1.71855
1.71693
1.7145
1.71178
1.71013
1.70807
1.70543
1.70383
1.70224
1.69994
1.69832
1.69745
1.69602
1.69446
1.69382
1.69338
1.69226
1.69125
1.69077
1.6896
1.68741
1.68537
1.6833
1.68061
1.67753
1.67468
1.67183
1.66896
1.66628
1.6639
1.66229
1.66162
1.66183
1.66317
1.66772
1.68006
1.70799
1.75816
1.82263
1.89426
1.95349
2.00165
2.03226
2.03086
2.02834
2.0225
2.01534
2.0073
1.9959
1.98509
1.97327
1.96042
1.94468
1.92748
1.91145
1.89607
1.88083
1.86653
1.85506
1.84581
1.83481
1.8239
1.81316
1.8016
1.79348
1.78482
1.78482
)
;
    }
    procBoundary23to22
    {
        type            processor;
        value           nonuniform List<scalar> 
17
(
1.73121
1.72572
1.71991
1.71386
1.70773
1.70173
1.69585
1.68987
1.68373
1.67745
1.67106
1.66455
1.65793
1.6512
1.64454
1.63812
1.63207
)
;
    }
    procBoundary23to30
    {
        type            processor;
        value           uniform 1.62622;
    }
    procBoundary23to31
    {
        type            processor;
        value           nonuniform List<scalar> 
133
(
1.96344
1.95416
1.94521
1.93784
1.93209
1.9269
1.92192
1.91702
1.91163
1.90568
1.89934
1.89264
1.8864
1.88133
1.87703
1.87339
1.87005
1.8666
1.86306
1.85954
1.85368
1.61887
1.61712
1.61455
1.61288
1.61212
1.61061
1.60869
1.60792
1.60708
1.60513
1.60336
1.60218
1.60048
1.59783
1.59544
1.59384
1.59198
1.5895
1.58776
1.58671
1.58518
1.58312
1.58131
1.57998
1.57858
1.57682
1.57497
1.57313
1.57174
1.57097
1.57031
1.56981
1.56981
1.56973
1.56894
1.56801
1.56695
1.56542
1.56341
1.56084
1.55802
1.55526
1.55262
1.55028
1.54828
1.54718
1.5468
1.54707
1.54789
1.548
1.54867
1.55044
1.55183
1.5543
1.5582
1.5628
1.56585
1.56634
1.56646
1.56631
1.5655
1.56385
1.56127
1.55781
1.55413
1.5504
1.5467
1.54336
1.54007
1.53706
1.53442
1.5318
1.52917
1.52668
1.52422
1.52149
1.51883
1.51623
1.51358
1.51108
1.50863
1.50577
1.50287
1.50056
1.4998
1.49989
1.50014
1.50102
1.50482
1.51562
1.53954
1.57913
1.61794
1.64407
1.65136
1.65282
1.65366
1.65404
1.65536
1.65704
1.65958
1.66589
1.68861
1.74256
1.83138
1.91459
1.95396
1.96906
1.96995
1.96392
1.96344
1.95505
)
;
    }
}


// ************************************************************************* //
