/*--------------------------------*- C++ -*----------------------------------*\
  =========                 |
  \\      /  F ield         | OpenFOAM: The Open Source CFD Toolbox
   \\    /   O peration     | Website:  https://openfoam.org
    \\  /    A nd           | Version:  7
     \\/     M anipulation  |
\*---------------------------------------------------------------------------*/
FoamFile
{
    version     2.0;
    format      ascii;
    class       volScalarField;
    location    "0.669";
    object      p;
}
// * * * * * * * * * * * * * * * * * * * * * * * * * * * * * * * * * * * * * //

dimensions      [0 2 -2 0 0 0 0];

internalField   nonuniform List<scalar> 
12359
(
0.057841
0.0675901
0.0407638
0.100919
0.0614771
0.148633
0.180084
0.16231
0.220818
0.135788
0.201241
0.270037
0.47835
0.10862
0.0955896
0.390989
0.438261
0.0455844
0.0451697
0.0804404
0.117314
0.243865
0.0735926
0.0858872
0.070364
0.0765884
0.0420421
0.0419082
0.0444116
0.0425734
0.0430273
0.0413389
0.0409526
0.0423243
0.0408077
0.0432163
0.050973
0.0561365
0.0598435
0.0535376
0.065282
0.0547971
0.0484716
0.0477003
0.0437564
0.044084
0.0434809
0.042826
0.044757
0.0421603
0.0417631
0.0415915
0.0412399
0.0459201
0.0411706
0.0409982
0.0470641
0.040942
0.040919
0.0408573
0.041051
0.0407972
0.0416513
0.510231
0.0465059
0.125346
0.0501954
0.0415017
0.0516797
0.339704
0.526716
0.0630818
0.0407558
0.0525142
0.0907953
0.0408055
0.0412167
0.0407714
0.0493063
0.308258
0.117787
0.0364234
0.0396396
0.0433947
-0.0623276
0.0193739
0.0362455
0.0378477
-0.0701855
-0.0565461
0.0405097
0.462056
0.0404742
0.0411493
0.0419035
0.00240993
0.0404799
0.0411798
0.0516887
0.0476082
0.0995664
0.0406432
0.0197598
-0.129081
0.03487
0.00998451
0.039324
-0.0613003
0.02255
0.0104795
0.0404837
0.036558
0.103671
0.0851864
0.0422773
0.0365014
0.0865209
0.0354098
-0.0728933
0.0396984
0.0405987
0.169017
0.0376745
0.00344814
0.0352454
0.0363084
0.0323688
0.0433103
0.0407665
0.0349778
0.0368325
-0.00294176
-0.00399296
-0.00268444
0.0393919
0.00459931
0.0365476
0.00445633
0.0406777
0.0336159
0.0398787
0.059351
0.0112314
0.0393641
0.00522513
0.141064
0.0396464
-0.0518492
0.0347571
0.121287
0.000344421
0.0406597
0.0112934
0.0375881
0.0404041
-0.174651
0.101084
-0.00209541
0.0405592
0.0414219
0.0398981
0.0414835
0.00231738
0.00884911
0.039615
0.0363422
0.041119
0.166806
0.0101969
-0.0738077
0.0407761
0.0407925
0.00905522
0.0703807
0.0349269
0.0369146
0.0444212
0.0441743
0.105167
0.0372211
0.10893
0.0403815
0.04077
0.0361245
0.050364
0.200249
0.0363078
0.0409979
0.000975317
0.0360924
0.0412923
0.00184571
0.00490752
0.0375236
0.00903176
-0.135018
0.0269962
0.0371346
0.0118858
0.0355349
0.144854
0.000666781
0.0489509
0.00989101
0.00851046
0.0403545
0.00732803
0.0493697
0.00102172
0.0348208
0.0400469
0.000249299
0.000111791
-0.552012
0.197782
0.0406846
0.0366918
0.0422098
0.0365822
0.0600828
0.0944923
0.034854
0.00350317
0.476731
0.0348123
0.0400221
0.0607933
0.0229208
0.0396467
0.0379836
0.037766
0.0396215
0.00588483
0.0493258
0.0406301
0.0481676
0.0396873
0.0109621
0.0407408
0.285752
0.0395671
0.0175757
0.0407712
0.0485392
0.0392331
-0.0506698
0.0408908
0.000895841
0.0351296
0.00562517
0.00105154
0.0555143
0.0437893
0.0382902
0.316574
-0.604535
0.0397057
0.0346161
0.399684
-0.0455705
0.04835
0.040027
0.0398131
0.00904053
0.0687145
-0.475753
-0.0681121
0.03917
0.0348098
0.00464917
0.00917156
0.0542961
0.0102665
0.0383867
0.0347441
0.0395982
0.0347396
-0.119688
0.0380338
0.0392068
0.0406298
0.00868284
0.0324697
0.0501876
0.0182503
0.0397832
0.0418713
0.0406536
0.0406292
0.0413746
0.00248142
0.0359327
-0.470111
0.0393515
0.0393085
0.0199652
0.0353562
0.094343
0.0419379
0.041795
0.0405291
-0.110465
0.0393698
0.0405321
0.0369561
0.0414783
0.0347918
0.0361657
0.0367065
0.0353152
0.0455288
0.198865
0.0346048
0.0430963
0.0561531
0.018141
-0.055615
0.0342084
0.0521148
0.366039
0.0406202
0.0150979
0.0390744
0.0272817
0.0393364
0.0340801
0.21501
0.0144907
0.200337
0.0497866
0.0402744
0.00493617
0.000828461
0.0402362
0.00467221
0.00465736
0.0387477
0.0411314
0.0411209
0.0411912
0.0411741
0.2875
0.0397631
0.0984314
0.000212416
0.0492725
0.0099022
0.0145372
0.0203974
0.0279543
0.0137999
0.0284492
0.0510151
0.0161941
0.0174938
0.0863519
0.0602696
0.0103374
0.0582821
0.0582626
0.0125199
0.0974278
0.0369221
0.0411764
0.0257052
0.041136
0.0366729
-0.212626
0.497315
0.0368678
0.0407118
0.0394175
0.0402489
0.013611
0.0404108
0.0403888
-0.0789306
0.00920741
-0.0529384
0.0388132
0.00729777
0.0326822
0.0410211
0.0121293
0.0254782
0.104073
0.0257132
0.0371458
0.0391034
0.00874761
0.00704858
0.0341702
0.287781
0.0117544
0.0019019
0.0442533
0.0414718
0.0406934
0.382574
0.00843659
0.0389442
0.0572567
0.0573713
0.039899
0.0398584
0.0401737
-0.0607121
0.0918522
0.0533578
0.0141067
-0.00113934
0.0420338
0.108185
0.043839
-0.000131961
-0.0605973
0.292013
0.0482799
0.0863673
0.0223205
0.018401
0.0295484
0.0253494
0.0426261
0.0294188
0.0115767
0.0404178
-0.0491963
0.050838
-0.005112
0.00595901
0.0475459
0.0899818
-0.155
0.0134045
0.0334141
0.00031002
0.00579559
0.0148854
0.0356121
0.0401036
0.0476057
0.0393524
-0.00347137
0.0367875
0.0763805
0.0796665
0.0293582
-0.0596991
0.0979348
0.0474319
0.0394523
0.38286
0.0388974
0.0386943
0.00211784
0.0407151
0.0392812
0.0386266
0.229212
0.194711
0.0429168
0.0379464
0.103398
0.0427201
0.0142896
0.0113088
0.00968039
0.0386828
0.0402317
0.0425607
0.0405477
0.0791998
0.0148071
0.0179757
0.0440575
0.0462505
-7.34342e-05
0.0427334
0.0398846
0.0340572
0.114582
0.00148727
0.0406592
0.0421768
0.00834939
0.024596
0.0429287
0.0364004
0.104279
0.0131571
0.00478733
0.0166458
0.0386471
0.0400783
-0.00891815
-0.00450749
0.0405417
0.0309711
0.0439278
0.00179102
0.274358
0.0401501
0.0370256
0.0388258
0.0109292
0.0473278
0.0459027
0.0364156
0.0438665
0.0247335
0.0689561
0.0306943
-0.0393044
0.0392121
-0.0450992
0.0378653
-0.124064
0.0132712
-0.00620566
0.0409118
0.043753
0.017543
0.0360958
0.0417057
0.0488662
0.0474658
0.047735
0.0653884
0.0104924
0.0100629
0.0396646
0.0357607
0.0147752
-0.00358336
0.0396713
0.0392123
0.00858014
0.0388105
0.220576
-0.15916
-0.0953914
0.0396714
0.0344242
0.000915489
0.0463709
0.035281
0.447215
0.0392585
0.107891
0.082606
0.0342667
0.0352181
0.0418721
0.0298042
-4.80391e-05
0.0246844
0.044505
0.0397121
0.0407657
0.0470276
0.0444571
0.0498098
0.0106409
0.0414212
0.0392503
0.0164471
-0.0731412
0.042987
-7.39703e-05
0.0394538
0.0451058
0.088448
0.00061597
0.00102163
0.0905397
0.0395845
0.000430668
0.0399445
0.0408462
0.000588132
0.0306914
0.0390113
0.0305726
0.0403088
0.0391932
0.0358363
0.0431444
0.000867324
0.0967715
0.051203
0.112451
0.0118117
0.0333596
0.107
0.0561469
-0.00406486
0.00982012
0.0573455
0.0485604
0.0408572
0.0328027
0.0167179
0.0396516
0.0407303
0.0387347
0.0409059
-0.0192651
0.0313735
0.027221
0.0987523
0.0491066
0.231307
0.00172654
0.00098777
0.0356711
-0.00411412
0.0402909
0.044073
0.0398487
0.0984973
0.108565
0.0397156
0.0249414
0.216911
0.0117431
0.00213943
0.0320539
0.0606408
-0.135405
0.0383718
0.0422683
0.0403304
-0.0133534
0.0421419
0.0253984
-0.0579223
0.0392519
0.0704934
0.0514442
0.0349464
0.043243
0.0400328
0.0412405
0.0467943
0.0412975
0.0411711
0.0458505
0.0036859
0.00709569
0.0349815
0.330245
0.000257096
0.411189
0.0130109
0.0186767
0.0464416
0.014244
0.0502425
0.00236393
0.316457
0.091392
0.0494789
0.0375629
0.0458442
0.0444012
0.0171576
0.0401039
-0.00473634
0.0413251
0.0926506
0.0430935
-0.0169745
0.00504345
0.00825383
0.0501911
0.0324835
0.00547984
0.0710131
0.00197832
0.0343823
0.000203669
0.0368534
0.0397293
0.0437788
-0.227496
0.0647553
0.0343037
0.0396008
0.0415335
0.04671
0.0756787
0.00685941
0.0120676
0.0387134
0.0358991
0.049009
0.0341943
0.0310319
-0.000647333
0.0474742
0.0511233
0.00648906
0.0356676
0.032953
0.0977926
0.0396647
0.0478174
-0.270234
0.0408935
0.00417023
0.0461496
0.0333521
0.0830524
0.00685499
0.0446329
0.014663
0.0407039
0.105315
0.0345955
0.00646981
0.00797188
0.105787
0.0405521
0.000289779
-0.00660175
0.0501306
0.0356968
0.0355463
0.0311754
0.232663
0.0452418
0.0406973
0.0483572
0.0404377
-0.133289
0.0358531
0.00582682
0.025558
0.011141
0.518982
0.0355092
-0.0604987
0.00736219
-0.0804267
0.0141749
0.0444418
0.0353737
0.0247209
-0.0521618
-0.0388792
0.0380758
0.0377999
0.112536
0.0369913
0.205719
0.0158504
0.0641231
0.0358563
0.405109
-0.108818
0.0363365
0.0397377
0.0403495
0.0869335
0.046823
0.0513794
0.044283
0.0109587
0.0703041
-0.0136272
0.349745
0.0386904
0.0765088
0.0104839
0.11364
0.0368659
0.108562
0.00515678
0.0881584
0.0435231
0.0396047
0.0064962
0.00405173
0.0129294
0.111251
0.00832701
0.0188104
0.0448625
0.0400438
0.0315291
0.244038
0.0316321
0.00859271
0.0603969
0.0152589
0.0285576
0.0450873
-0.00572233
0.0262954
0.0363306
-0.00671264
0.0516184
0.0208917
0.192905
0.0397121
0.0261833
0.0432325
0.0488263
0.0364249
0.0443489
0.0396577
-0.00276081
0.0340175
0.0703766
0.0087793
0.089022
0.024993
0.025282
0.00712039
-0.210177
0.0408789
0.0480712
0.0191418
-0.0743601
0.00441697
0.0404501
0.50686
0.0396207
0.0349648
-0.177086
0.0465505
0.0408528
0.0409589
0.0586179
0.0831099
0.0409012
0.0477426
0.102496
0.0437942
0.0461827
0.0445248
0.0384031
0.0843873
-0.0195886
0.0470012
0.110532
0.00713122
0.00360824
0.00113886
0.0115161
0.0445693
0.0349292
-0.043819
0.00299975
0.0660548
0.0397199
0.0409354
0.111711
-0.0042371
0.0268567
0.0323345
0.0266076
0.0442251
0.0350379
0.0771237
-0.248924
0.354665
0.0761471
0.0430833
0.0349023
0.0731462
0.337937
0.104552
0.0404604
-0.00210862
-0.0158046
-0.251368
0.0287282
-0.176354
0.0409019
0.0446606
0.040955
0.00201644
0.0677533
-0.180645
0.034294
-0.0919309
0.0367838
0.0436059
0.00747758
0.0460344
-0.00169232
-0.0421662
0.0473517
0.0280831
0.0190847
0.0290253
0.047165
0.0702691
0.0655699
0.0248705
0.073393
0.0473663
0.0410007
0.0454505
0.0415967
0.0982258
0.0173579
-0.010616
-0.00126831
0.0792776
0.0197556
0.0183067
0.0356943
-0.0165307
0.0277006
0.0465807
0.0403482
-0.002931
0.101763
0.0343229
0.0345294
0.0485831
0.0189349
0.0956805
0.109314
0.0186844
0.231505
0.0175888
0.0802727
-0.0393119
0.0457111
0.0132475
0.00800729
0.0374407
0.0274855
0.0301714
0.0369643
0.0399372
0.0366285
-0.0167872
-0.00453567
0.03576
-0.140566
0.094312
0.041472
0.0449696
-0.000817065
0.041366
0.0721157
0.00984728
0.000530361
0.0413043
0.0439136
0.0406691
0.0413679
0.112028
-0.142045
0.0416681
0.0511158
0.0396817
-0.151547
0.0170705
0.0108417
0.0393476
0.0415474
0.0446245
0.0198267
0.0786609
0.0231393
0.0396457
0.0446593
0.0412418
0.0167068
0.0780971
0.0304281
0.0407243
0.0248237
0.0203314
0.0684588
0.0360419
-0.019733
0.138161
0.0374334
0.0271499
0.0443407
0.0362917
-0.202197
0.0471538
0.0415405
0.00791099
0.0977092
0.0754875
-0.144621
0.0690641
0.0281423
0.0226721
0.0485263
0.0323382
0.027983
0.047753
0.14027
0.042652
-0.344293
0.0765165
0.177697
0.032375
-0.00533403
0.0897867
-0.00280487
0.258234
0.00453627
0.0203931
0.0269978
0.0322498
0.0396344
0.0365682
0.0814115
0.000264243
0.0478931
0.0374687
0.00389938
0.0130231
0.00337646
0.0734611
-0.00177934
0.00321483
0.039903
0.0635615
-0.0492693
0.0806514
0.0396075
0.0274891
0.0452992
0.0396204
0.0620206
0.0408854
0.0366622
0.238483
0.0856335
-0.0195452
0.0409351
0.0405611
0.0404583
0.048004
0.0451038
-0.0030345
0.0452459
0.0404466
-0.0207381
0.0170992
0.00229215
0.0615712
0.0444358
0.0336813
0.0852784
0.027444
0.0409681
-0.0445888
0.00737746
0.103841
0.0416134
-0.247801
0.0901319
0.0441823
0.00134525
0.0322435
-0.0117446
0.0288405
-0.0013246
0.0871702
0.0431617
0.0428222
0.0166207
0.0337272
0.0468036
-0.00996476
0.0467357
0.046784
0.0908054
0.0372136
0.0445964
0.028639
0.00641553
0.0441026
0.0467398
0.045015
0.0394944
0.0892657
-0.044563
0.0210933
0.0480701
0.046424
0.0335513
0.0401049
-0.202569
0.0722376
0.0406459
0.0639211
0.0334865
0.0921004
0.146239
-6.56613e-05
0.0470331
0.00200701
-0.00505753
0.0393051
0.0340382
-0.00377454
0.0349649
0.0407095
0.065087
0.0219417
0.0457979
0.0407424
0.0350935
0.0787868
0.0414152
0.0267585
0.0408968
0.0297806
0.0597902
0.127959
0.0402126
-0.208943
0.0732196
0.0114392
-0.123497
0.0854332
0.0256815
-0.0374453
0.048592
0.136842
0.20086
0.0463718
0.036874
0.0366284
0.0434972
0.0452505
0.00435992
-0.0838562
-0.157535
0.00600062
0.141666
-0.00631747
0.00713265
-0.0510094
0.0402568
0.0437603
0.0416046
0.0198698
0.0404304
0.00563341
0.0293861
-0.00493219
0.0397483
0.0436772
0.0378788
-0.164611
0.114084
0.0710025
0.0535745
0.116808
0.0369423
0.0415732
-0.0207346
0.0292594
-0.0172269
0.00501233
0.0170535
0.00144546
0.0110839
0.0488838
0.0397274
0.0401976
-0.131088
0.0356059
0.0313595
0.0475371
0.00030316
0.0139656
0.0402635
0.0150753
-0.0180875
-0.000109101
0.0871181
0.0458889
0.0406583
0.00244527
0.04824
0.0403405
-0.00444086
0.00412801
0.0446822
0.131534
0.000343833
0.0404052
0.0408618
0.0394896
0.100028
-0.149834
0.0346042
0.0067423
0.0439259
0.045087
0.00750083
0.0406076
0.174998
0.0108281
-0.0463394
0.146599
0.0240468
0.0401962
0.0400634
0.0263511
0.048399
0.0399238
-0.189793
0.00247243
0.0382112
0.210076
0.0940018
0.0344089
0.0396696
0.0409212
0.0467471
-0.0754958
0.154584
0.0275686
0.0702908
0.0592191
0.00320372
-0.0816601
0.0153477
0.0464946
0.0457999
0.0125341
0.0327505
0.038753
0.0432536
0.000880685
0.0450966
0.0265493
0.0471348
0.0748015
-0.0141008
0.0386081
0.0433648
-0.00648609
0.00128516
0.050625
0.0428642
0.0694601
-0.000791009
0.0331279
0.0129227
0.0669258
0.0118744
-0.0323645
0.0454398
0.151543
0.0398299
0.100262
-0.00317566
0.0406095
0.0402074
0.371311
0.0411158
0.0483766
0.0212836
0.046319
0.0464891
0.0496582
0.0410099
0.0404421
7.08751e-05
-0.0290794
0.038166
0.320424
0.0298086
0.0429907
0.22987
0.0939461
0.0492186
0.0376224
0.0427413
0.081168
-0.27867
0.0461791
0.0380639
0.0397103
0.043458
0.0562598
0.0122416
0.045678
0.056833
0.0442405
-0.159452
-0.0103545
0.00474425
0.10351
0.0296471
0.0430872
0.00217358
-0.122191
0.0455064
0.0399701
0.0430027
0.0406984
0.0462529
0.0394236
-0.00434423
0.0372262
0.0348645
0.303312
-0.00147025
-0.00505774
0.00187087
0.046116
2.45985e-06
0.0816681
-0.0942447
0.0393881
0.00702656
0.0405923
0.237198
0.0397479
0.0410527
0.0230937
0.0397708
0.0205961
0.05109
0.0464128
0.039255
-0.095918
0.0814163
0.00752846
0.0433451
0.0302556
-0.0496762
-0.0100863
0.0716843
0.0678203
0.0415973
0.047499
0.0363698
0.0432753
0.0382026
0.0432688
0.0827814
0.0697186
0.00379293
-0.111563
0.0169239
-0.0122037
0.027356
-0.114038
0.0393384
-0.0336879
0.0430917
-0.0194665
-0.00852995
0.0201208
0.0409031
0.0240408
0.00728693
0.0256064
-0.00487458
0.22532
-0.108462
0.0430763
-0.00621032
0.0391715
-0.00790553
0.0844907
-0.000693897
0.0359735
0.049471
0.00651956
0.0440465
0.0311212
0.0413427
0.038956
0.0398728
0.0473488
0.00396261
0.000705208
0.0403521
0.077078
-0.0843868
0.485326
0.0395183
0.06616
0.0201522
0.185708
0.0263082
-0.187034
-0.0395335
0.0389817
0.0192797
0.060996
0.170659
0.0421448
0.0602087
0.0725788
0.0379081
-0.0928374
-0.00614985
0.0429366
0.0197026
-0.0334753
0.0689843
-0.0921602
0.0303829
0.0732739
0.0464401
0.0394655
0.0479635
0.0369064
-0.077183
-0.000538278
-0.0688883
0.0414504
-0.0860682
0.0244375
0.000168287
0.1038
0.0197675
0.0219646
-0.0580541
0.0302611
0.028925
0.00331292
0.0639753
0.0208526
0.00553382
0.0621887
-0.095639
0.0781426
0.0292807
0.0832104
0.0412458
0.108385
-0.000672867
0.0954685
0.0455332
-0.0389232
0.0403305
0.0281761
0.00506097
-0.00122955
0.0495174
0.00387097
0.0395612
0.502998
0.0470311
0.0032345
0.0841419
-0.000278994
0.00448485
0.0412858
0.0259345
0.0400039
0.45424
0.0403422
0.0401695
0.0394945
-0.0167908
0.0348762
0.0380022
-0.00808004
0.0221158
0.0565126
0.0352754
0.0399194
0.101244
0.0381318
0.0967475
0.00332029
0.0787409
0.0329518
0.0337928
0.020523
-0.0175067
0.00579561
0.0361488
0.531815
0.0403136
0.0400082
0.047643
-0.130465
0.0455394
0.0242705
0.073161
0.0450637
0.0335827
0.000582767
-0.0260973
0.0278491
-0.049457
0.0460378
0.0372617
0.0102481
0.0144917
-0.000667394
0.0430032
0.0194342
0.0643258
0.188759
0.0304146
0.0402627
0.0388562
0.173032
0.040733
0.0407409
-0.0398245
0.0267304
-0.0443004
0.033576
0.0397572
0.185406
-0.0165466
0.0348459
0.0464214
0.0380906
-0.119231
0.0407424
0.0282535
-0.0301378
0.0407409
0.0399072
0.00595271
0.0394714
0.0407553
0.0093096
0.0454843
0.040084
0.0170461
0.0396335
-0.0165545
0.0397404
0.0516922
0.112927
0.00536336
0.040757
0.00205444
-0.179664
0.0332744
0.0666432
0.0372029
0.0286945
0.0383714
-0.0211677
-0.0084525
0.0377573
0.0398927
0.12529
0.0242221
0.011287
0.00734909
0.125466
0.0395042
0.00281474
0.0398713
-0.0221092
-0.0101388
-0.00634459
0.0051482
0.149153
-0.0863186
0.00354699
0.00681169
0.0419075
0.0436376
-0.00141555
0.128293
0.0914352
0.0264686
-0.0763906
0.0391695
-0.0666562
0.193998
0.0400625
-0.0101375
-0.00719279
0.0738734
0.00483281
0.00355752
0.0651912
0.0401558
-0.0158399
-0.0715884
0.253662
0.0462324
0.00138856
-0.0334618
0.138821
0.0425259
0.0398889
0.00397607
-0.0563461
0.0344386
0.0630903
0.0401789
0.0395075
0.0509699
0.0458808
0.0201033
0.046761
0.0398319
-0.019779
0.0281754
-0.0283029
0.0114664
0.040249
0.0399362
0.137359
0.0457335
0.073247
0.054872
-0.0455273
0.0736817
0.0393265
-0.0270752
0.0503415
0.0400267
0.0216049
0.0329938
0.0329264
0.0886882
0.0202321
-0.154839
0.0346379
0.0400054
-0.0299075
0.0394381
-0.0101861
0.0254339
-0.0302732
-0.0510375
0.0891196
-0.0345775
0.0402985
-0.0116556
0.0447234
0.0645864
-0.0259763
0.0154527
-0.0265412
-0.0687351
0.166019
-0.0143771
0.0571989
0.0393224
0.0398879
0.0394111
-0.0347597
0.134069
0.0393807
-0.0185273
-0.0214824
0.0106352
-0.000132259
0.0218936
0.103262
-0.0299765
0.0465422
0.00858935
0.0201988
0.0405784
0.0406039
0.042312
0.0460767
0.00734797
0.0401478
0.0439007
0.0472872
0.0662603
0.000240072
0.0401917
-0.0221619
0.0397409
-0.000171689
0.00811969
0.042753
0.0342392
-0.00140397
-0.0227951
0.0299078
0.0712206
0.0457556
0.0214339
0.026226
0.0399509
0.0446989
0.0455138
0.0428349
0.0399662
0.0620122
0.0399454
0.118889
0.00929844
-0.0976408
0.0400503
0.0521228
0.0401949
0.0408142
0.115036
0.0509512
0.0395894
0.309953
0.128794
0.0318972
0.0571624
0.0334474
0.114963
0.0135558
0.00533516
0.0501961
0.047194
0.0398836
0.0423554
-0.0143788
0.0395969
0.0423736
0.116078
0.0430599
0.0448217
0.0213895
0.0401632
-0.0380534
0.0400936
0.0423036
0.00516865
0.00588344
-0.0693573
0.104638
0.0627228
0.0425926
0.00401462
0.042517
0.0205089
0.00185824
0.0470721
-0.0321133
0.040812
0.0210604
0.062545
0.0466283
0.0943436
0.0399903
0.0470024
0.0398477
0.0240489
0.0394683
0.0477907
0.019101
0.0374662
0.0629078
0.0220321
0.0399262
0.021722
0.00827972
0.0470193
0.00539219
-0.017175
0.039893
0.0252584
0.103728
2.06516e-05
0.0483312
0.0377538
0.0378328
0.0197775
0.0489516
0.142608
0.0466029
0.0405012
0.040531
-0.0202022
-0.0124214
-0.0240412
0.272839
0.0933415
0.0449852
0.020666
0.00714176
0.0408855
-0.0570406
0.0452211
0.098482
-0.000665689
0.0423799
0.136693
-0.0118765
-0.0186888
0.0180752
0.0240816
0.0407642
0.0393035
0.055275
0.0399158
0.0399064
0.128462
0.0432213
0.0561157
0.0393836
0.0307023
0.0386918
0.363165
0.0329096
0.0351606
-0.0119862
0.0964471
0.0882436
0.028905
0.102259
0.0407621
0.0400883
0.00257976
0.0667993
0.117541
0.041882
-0.000584879
0.0337914
0.0446615
0.0439615
0.0402365
0.0582256
0.0328267
0.0405171
0.0252699
0.253744
0.040664
0.00806477
0.0259203
0.0401149
0.0549514
0.0433025
0.0223746
0.0403685
0.0401468
0.0102502
0.0243423
0.0845193
0.135213
-0.236547
0.04681
0.0568298
-0.0372822
0.0275365
0.0432212
0.0345609
-0.00112061
0.0399961
0.0444246
0.0398805
0.0249677
0.0583187
0.0137218
0.0399545
0.0529629
0.0275922
0.0457734
0.112301
0.0368711
0.0396117
0.0399574
0.0242231
0.0177267
0.300304
0.0522242
0.074934
0.00339854
0.00177126
0.0398663
0.0923215
0.0399773
0.0399572
0.040589
-0.00629429
0.0460975
0.0297518
0.00423952
0.0153535
0.00324894
0.0248333
0.0582344
0.106936
0.038392
0.0078481
0.0844892
0.0272269
0.119948
0.0447981
-0.166396
0.135023
0.12819
0.0392722
-0.117264
0.00279821
0.00453228
0.130691
-0.00033386
0.0510526
0.0476248
0.030806
0.0287765
0.0262101
0.203779
0.0675639
0.0451546
0.0103436
0.0456658
0.0285054
0.0185318
0.0865168
0.0288774
0.0607152
0.0764157
0.00392234
0.0889905
0.0258792
0.0409355
0.0517986
0.0404236
0.038909
0.0383924
0.0456108
0.0145665
-0.0468038
0.0399697
0.159774
0.0392292
0.03269
0.00596471
0.024836
0.0279597
0.0381744
0.00456231
0.0085219
0.245539
0.0399961
0.00599589
0.030438
0.00732522
0.0406018
0.0401983
0.143801
0.0187224
0.0262863
-0.126019
0.0217036
0.033229
0.130153
0.0102862
0.11494
0.0468378
0.0135367
0.0300539
0.0375995
-0.0279755
0.00459124
0.015152
0.0275448
0.0394679
0.00358852
0.00324601
-0.000959557
0.0319283
0.0312468
0.403671
-0.0430312
0.0391648
-0.0142729
0.0152117
-0.108026
0.0398551
0.0265273
0.0269543
0.0398116
0.00145449
0.0218266
0.0451423
-0.000288914
-0.0235872
-0.00163894
0.0476719
0.0189139
0.0406544
0.0362396
-0.0294483
0.0752555
0.0225582
0.00409852
0.14072
0.0194189
0.0153919
0.0166354
0.00442107
-0.0282747
0.0383029
0.0167832
0.0115839
0.0855383
0.27332
0.00946157
0.0292878
0.0157558
0.0398452
0.0857225
0.025929
0.00588187
0.0397972
0.0291498
0.00432405
0.0101298
0.141315
0.00722562
0.0231973
0.0244368
0.045836
0.000862667
0.0210325
0.0680802
0.0517224
0.0478195
0.00711915
0.0297375
0.0349276
0.0310623
0.0402251
0.00370966
0.0555352
0.023614
-0.00237025
-0.0475905
0.03502
0.0215734
0.0123607
0.0190978
0.0399823
0.0936241
0.0921185
0.0659078
0.0405854
0.222584
0.0042325
0.0473428
0.082924
0.0393644
0.0492193
0.0264113
0.021471
0.0476146
-0.107725
0.0416467
0.0516334
0.0355631
-0.0140876
-0.032174
-0.00044242
0.0555717
0.0060535
0.0406266
0.0240509
0.0676908
0.0416821
0.143317
0.0129801
0.0225951
0.00543248
0.0589581
0.0169992
0.0319846
0.0395822
0.0396661
0.0405786
0.0556506
0.117203
0.0114651
0.13999
0.0773168
0.0830393
0.0423609
0.0620556
0.00432341
0.040105
-0.022086
-0.0178256
0.0436906
0.0399353
0.0319429
0.037985
0.0396694
0.0575467
0.0277249
0.125516
0.012159
0.0298972
0.0815441
-0.0113345
0.00334324
0.0798271
0.00918897
0.0187871
0.064171
0.0394509
0.0547772
0.0218214
0.11454
0.121662
0.209584
0.03972
0.120605
0.027244
0.0260133
0.097268
0.100309
0.0923502
-0.0247541
0.0163325
0.061273
0.0162238
0.0320086
0.0397628
0.0845653
0.0393674
0.0124837
-0.0292155
0.0515089
-0.0272753
0.0390491
0.0772149
0.0466265
0.0243389
0.0962228
0.156219
0.0169211
0.0359973
0.0127816
0.0277368
0.0654711
0.000140134
0.075313
-0.00313061
0.0397389
0.0166876
-0.14828
0.0932137
0.0290373
-0.0407771
0.00686834
0.0347272
0.0386503
0.0972691
0.0868347
0.0278812
0.0507656
0.0419106
0.00385962
0.036265
0.00149632
0.0743708
0.0301581
0.135221
0.0397221
0.0370735
-0.000206238
0.0301098
0.0307117
0.0585382
0.0486724
0.0238007
0.160695
0.100983
0.0395133
0.00261984
0.0359838
0.0395031
0.126862
0.0395412
0.0169218
0.0194971
0.0393386
0.0395293
0.0442283
0.00497235
0.0535989
0.0914289
0.0231997
0.123442
0.0271254
0.0275845
0.0312745
0.0715835
0.0400047
0.0328367
0.0301858
0.021278
-0.019575
0.0064072
0.0589446
0.0386503
0.0482497
0.0252765
0.0354524
0.0533617
0.0165471
0.0989034
0.0268086
0.0395325
0.00570377
0.079714
0.00475433
0.0397935
0.129326
-0.0256115
0.0374127
0.0912802
0.00357722
0.0447222
0.0892382
0.000621483
0.0825168
0.107578
0.00162252
0.0416167
0.0718193
0.0694795
0.0103421
0.0369689
0.0248284
0.0396862
0.040135
0.0395059
0.00962056
0.0130542
0.0159812
0.075472
-0.0578034
0.162279
-0.0534708
0.0226759
0.036261
-0.034388
0.0443575
-0.0999139
0.0267271
0.0182466
0.0139274
0.0229848
0.0579619
0.0330888
0.0269521
0.0459084
0.0397536
0.0706953
-0.0330643
0.0099308
0.00427074
0.0130458
0.0442896
0.0227911
0.0124058
0.0462088
0.0191045
0.0311882
0.113404
0.0787253
0.0738588
0.0864881
-0.00157864
-0.000206906
0.00388812
0.0179117
-0.00156311
0.0105603
0.0514401
0.0375319
0.124511
0.0667234
0.00420724
0.040281
0.0890739
0.120166
0.0672185
0.072228
0.0490797
0.0128466
0.107114
0.0228619
0.019143
0.0280583
0.0269635
0.0389908
0.022785
0.024506
0.0457908
0.0155143
0.0240178
0.0359032
0.096952
0.0362344
0.0354507
0.0684087
0.0482998
0.0392268
0.0426906
0.0011218
0.012104
0.0407701
0.0651582
-0.0462854
0.00403321
0.0480991
0.0146634
-0.0173413
-0.038025
-0.002462
0.0262766
0.0272806
0.0468073
0.0272738
0.021012
-0.000385782
-0.00115762
-0.000216817
0.000335252
0.0279714
0.0385896
0.0383182
0.122127
0.0544566
0.0294713
0.0307588
-0.000275389
0.0369113
0.0220255
0.143029
0.0801793
0.00798799
0.0458104
0.0124252
0.0393272
0.00538579
0.000527487
0.021781
0.0394766
0.0514031
0.159715
0.0335846
0.0815888
-0.0151063
0.0398503
0.0283721
0.0875913
0.0942116
0.0632074
0.0410928
0.0369833
0.0380942
0.0405119
0.0395849
0.0343246
0.00464615
0.0394179
0.0487445
0.0453565
-0.359754
0.112893
0.0381988
0.0397127
0.00755678
0.0125327
0.018992
0.0696666
0.0134721
0.0388102
0.0340758
0.00278846
0.0404168
0.00996668
0.0862885
0.0639853
0.037973
0.00868661
0.040125
0.0327921
0.0309237
0.0334134
-0.00383364
0.052647
0.0286841
0.0272485
0.104134
0.074397
0.0392856
0.0398803
0.0291814
0.0268613
0.0102349
0.0159339
0.0333191
0.00449272
0.072968
0.0405565
0.0302639
0.00400653
0.0312865
0.0776791
0.0560754
0.0433663
0.144376
0.0176431
0.119117
0.134285
0.0222451
-0.00217888
-5.62995e-05
0.119704
0.0318497
0.00278018
0.0671912
0.0296044
0.0154507
0.0829045
0.0648485
0.0428418
0.00150567
0.0263533
0.0221102
0.0338526
0.00377277
0.0419304
0.073238
0.0417371
0.0503232
0.0787111
0.0466165
0.0342364
0.0990174
0.00498199
0.0844048
0.0227402
0.0648948
0.00589874
0.0543389
0.00856833
0.0413475
0.024231
0.00667741
0.0602554
0.0225125
0.0412968
0.0351333
0.0109268
0.0396895
0.0285312
0.0488944
0.0299466
0.0174739
-0.0021088
0.088606
0.0973274
0.0941291
0.0342956
0.0326016
0.028111
0.0144939
0.023021
0.0402364
0.046322
0.0629032
0.0193078
0.0516231
0.0026536
0.0247366
0.0498613
0.0268514
0.0262161
0.0373404
0.0237546
0.0306453
0.127209
0.252448
0.0178656
0.0193398
0.021927
0.0254368
0.0300903
0.0283486
0.0267675
0.0187574
0.00937911
0.0383008
0.0396917
0.0386211
0.00404109
0.0398881
0.0240522
0.0345218
0.0256345
0.0521399
0.0275498
0.115619
-0.00877902
0.0393972
0.029675
0.0836452
0.0346705
0.0534162
0.0823809
0.0451645
0.0397408
0.025081
0.00146384
0.0796913
0.00117201
0.107786
0.0768158
0.0021681
0.0554977
0.0613334
0.00706158
0.0358158
0.039989
0.0412723
0.0297136
0.0391618
0.0259593
-0.0313957
0.0382328
0.0725887
0.0360772
0.0546528
0.0554169
0.15472
0.0465101
0.0349767
0.00340811
0.00973244
0.0797116
0.0260574
0.0762044
0.0411964
0.030958
0.0575646
0.0388932
0.0271786
0.0405587
0.0412361
0.0250459
0.0391357
0.0281349
0.0546154
0.0742028
0.0104094
0.0388612
0.00463511
-0.000586285
0.0601787
0.0542343
0.0426911
0.0611238
0.12539
0.0396772
0.0338908
0.0390384
0.0531791
0.0315901
0.0288581
0.0317509
0.066358
0.076253
0.0265946
0.0720401
0.0827396
0.0526617
0.101254
0.050381
0.0713999
0.0211979
0.0353682
0.0164116
0.0406624
0.0572653
0.0416082
0.0759201
0.00091847
0.0475799
-0.0127562
0.0360588
0.0217757
0.110079
0.00522996
0.0391681
0.039313
0.00155212
0.100374
0.0225116
0.0244535
0.0112319
0.0379298
0.0746619
0.0307195
0.0379501
0.0293471
0.00599312
0.0345445
0.0332802
0.390134
0.0316619
0.0416569
0.051601
0.057047
0.0355985
0.0254658
0.0397067
0.0957226
0.0368262
0.0396844
0.00947233
0.0299406
0.0227723
0.0344556
0.0556053
0.0341558
0.037267
0.0365563
0.0273509
0.0729855
0.0397301
0.0318448
0.0505493
0.0385252
0.0318584
0.0466634
0.0472908
0.0519982
0.0524884
0.0398247
0.0358155
0.0428358
0.0237388
-0.00163149
-0.000795704
0.138794
0.0672535
-0.0121245
0.0243886
0.0393791
0.0429536
0.050649
0.0666717
0.0402267
0.0222197
0.0694394
0.0496705
0.0209908
-0.0102709
0.0168675
0.0391809
0.0304665
0.0395091
0.0865971
0.226618
0.031813
0.0497377
0.0372333
0.00418757
0.0393226
0.0650282
0.0231645
0.0375427
0.0404014
0.0268851
0.0901237
0.0322933
0.048982
0.0207355
0.0351505
0.0360839
0.0804681
0.0536331
0.0327285
0.0422949
0.031617
0.0462519
0.0309467
0.0401213
0.0328193
0.0393239
0.0464645
0.00818356
0.0607868
0.0113244
0.0669891
0.0663547
0.0445992
0.031406
0.0285529
0.0700544
0.0850511
0.00737911
0.0339215
0.0506607
0.0505075
0.0332707
0.0383379
0.0362864
0.031503
0.023114
0.0230895
0.0360739
0.0110798
0.0317666
0.0720223
0.0338867
0.0357456
0.0336865
0.0194401
0.0765963
0.0461395
-0.000699019
0.0316982
0.0332124
0.00647479
0.0430943
0.000363476
0.0424932
0.033748
0.0391854
0.0385897
0.0408351
0.0349018
0.00252608
0.039699
0.0161001
0.0649068
0.0425911
0.050469
0.0263741
0.0895355
0.0530872
0.040236
0.028194
-0.0638424
0.0399047
0.00349658
-0.0779735
0.0582313
0.078054
0.0441329
0.0342474
0.0248024
0.0640707
0.0509739
0.0403523
0.0857599
0.00791974
0.0745467
0.0397496
0.0389566
0.0359586
0.0365987
0.0371506
0.0587231
0.0698832
0.0388117
-0.00131067
0.0370019
0.0447159
0.0345424
0.0270476
1.12979e-05
0.03911
0.0339638
0.0190516
0.0339267
0.0389193
0.0425767
0.1211
0.0666132
0.040322
0.0552355
0.0456221
0.0339984
0.0692488
0.0519455
0.0364193
0.055274
0.0296296
0.0550623
0.0779047
-0.0021572
0.0188479
0.0404317
0.0627375
0.0388974
0.0427527
0.0414919
0.0349943
0.000421476
0.00021149
0.0509786
0.0264352
0.0282723
0.0232971
0.0390432
0.0382387
0.0403418
0.0646598
0.027873
0.0397885
0.0338196
0.0462125
0.0178162
0.00511171
0.039866
0.0392568
0.0293085
0.0403195
0.0384925
0.0352312
0.0372042
0.0322554
0.0581787
0.0541446
0.0283081
0.0378261
0.0445998
0.0513782
0.0339468
0.0397182
0.0355354
0.0247712
0.000282707
0.00390309
0.0283113
0.117063
0.0343948
-0.0617598
0.0812606
0.0338013
0.0325649
0.045427
0.0403499
0.0398771
0.0480247
0.0489512
0.0336494
0.0418553
0.0388102
0.0897973
0.00321963
0.0277569
0.0400178
0.0466926
0.0548256
0.0626411
0.0262848
0.0425511
0.0396235
0.0380636
0.0347473
0.0242169
0.021834
0.00245214
0.0541313
0.038336
0.0310848
0.0483283
0.0451642
0.0441949
0.0370376
0.050141
0.0398205
0.0118032
-0.00200186
0.0387075
0.0587076
0.0334038
0.0367352
0.0380682
0.0414336
-0.0409615
0.0557575
-0.00078371
0.0357995
0.00467168
0.0439584
0.0630565
0.121222
0.0469959
0.0400681
0.0245277
0.0160365
0.10447
0.0333246
0.0593607
0.0370306
0.0392961
0.0580381
0.0373589
0.115877
0.00011584
0.0715298
0.0436497
0.0394077
0.0397772
0.0390164
-0.0295916