/*--------------------------------*- C++ -*----------------------------------*\
  =========                 |
  \\      /  F ield         | OpenFOAM: The Open Source CFD Toolbox
   \\    /   O peration     | Website:  https://openfoam.org
    \\  /    A nd           | Version:  7
     \\/     M anipulation  |
\*---------------------------------------------------------------------------*/
FoamFile
{
    version     2.0;
    format      ascii;
    class       volVectorField;
    location    "6";
    object      U;
}
// * * * * * * * * * * * * * * * * * * * * * * * * * * * * * * * * * * * * * //

dimensions      [0 1 -1 0 0 0 0];

internalField   nonuniform List<vector> 
2413
(
(1.99499 -0.143316 0)
(1.99479 -0.144321 0)
(1.99537 -0.145252 0)
(1.99662 -0.146052 0)
(1.99829 -0.146041 0)
(2.00017 -0.14552 0)
(2.00218 -0.144926 0)
(2.00424 -0.144304 0)
(2.00648 -0.143201 0)
(2.00845 -0.142395 0)
(2.01045 -0.141647 0)
(2.01267 -0.140651 0)
(2.01521 -0.139267 0)
(2.01721 -0.138552 0)
(2.0192 -0.137887 0)
(2.02099 -0.136996 0)
(2.02245 -0.136082 0)
(2.02362 -0.136228 0)
(2.02479 -0.135944 0)
(2.02574 -0.135759 0)
(2.0274 -0.135228 0)
(1.7981 -0.285529 0)
(1.80006 -0.284763 0)
(1.80214 -0.284117 0)
(1.80433 -0.283486 0)
(1.80662 -0.282832 0)
(1.80906 -0.282153 0)
(1.81155 -0.281549 0)
(1.81389 -0.281193 0)
(1.81605 -0.280992 0)
(1.81809 -0.280891 0)
(1.81999 -0.280976 0)
(1.8216 -0.280821 0)
(1.82323 -0.280133 0)
(1.82517 -0.279234 0)
(1.82683 -0.278083 0)
(1.82809 -0.276382 0)
(1.82957 -0.274183 0)
(1.83148 -0.272189 0)
(1.83367 -0.270096 0)
(1.83565 -0.267834 0)
(1.83713 -0.267168 0)
(1.83958 -0.266628 0)
(1.84194 -0.266501 0)
(1.84404 -0.266885 0)
(1.84617 -0.267014 0)
(1.84847 -0.26638 0)
(1.85067 -0.265087 0)
(1.85251 -0.263903 0)
(1.85409 -0.263178 0)
(1.85533 -0.261978 0)
(1.85663 -0.259115 0)
(1.85882 -0.255776 0)
(1.86062 -0.252386 0)
(1.86187 -0.249696 0)
(1.8623 -0.246521 0)
(1.86275 -0.241324 0)
(1.8643 -0.234682 0)
(1.86571 -0.22846 0)
(1.86724 -0.224994 0)
(1.86939 -0.223924 0)
(1.87182 -0.223829 0)
(1.87434 -0.224496 0)
(1.87684 -0.225713 0)
(1.87919 -0.226698 0)
(1.88146 -0.227434 0)
(1.88429 -0.227713 0)
(1.88718 -0.227722 0)
(1.88983 -0.227231 0)
(1.89258 -0.226018 0)
(1.89536 -0.225259 0)
(1.89787 -0.223935 0)
(1.90054 -0.221869 0)
(1.90317 -0.220101 0)
(1.90519 -0.218611 0)
(1.90703 -0.217208 0)
(1.90862 -0.214943 0)
(1.90981 -0.214304 0)
(1.9117 -0.214235 0)
(1.91367 -0.213689 0)
(1.91557 -0.213245 0)
(1.91752 -0.213687 0)
(1.91947 -0.214291 0)
(1.92167 -0.213862 0)
(1.9238 -0.212591 0)
(1.92568 -0.211864 0)
(1.92745 -0.211704 0)
(1.92904 -0.210964 0)
(1.93061 -0.209274 0)
(1.93221 -0.207964 0)
(1.93376 -0.207955 0)
(1.93483 -0.207247 0)
(1.93576 -0.205574 0)
(1.93713 -0.204777 0)
(1.9386 -0.204279 0)
(1.94029 -0.202602 0)
(1.9424 -0.20045 0)
(1.94399 -0.199359 0)
(1.94602 -0.197369 0)
(1.94885 -0.195104 0)
(1.95073 -0.192691 0)
(1.95239 -0.190915 0)
(1.95558 -0.188056 0)
(1.95794 -0.184734 0)
(1.9595 -0.18252 0)
(1.9619 -0.179552 0)
(1.96404 -0.176017 0)
(1.96558 -0.173009 0)
(1.9672 -0.170264 0)
(1.96898 -0.167146 0)
(1.97055 -0.163804 0)
(1.97186 -0.161086 0)
(1.97336 -0.158647 0)
(1.97516 -0.15564 0)
(1.97679 -0.152435 0)
(1.97812 -0.1498 0)
(1.97954 -0.147288 0)
(1.98116 -0.144426 0)
(1.98256 -0.141881 0)
(1.98373 -0.140296 0)
(1.98503 -0.139114 0)
(1.98661 -0.137862 0)
(1.98812 -0.136909 0)
(1.9895 -0.136645 0)
(1.99074 -0.136682 0)
(1.99177 -0.136838 0)
(1.9927 -0.137562 0)
(1.99335 -0.138896 0)
(1.99359 -0.140142 0)
(1.99363 -0.141255 0)
(1.99374 -0.143109 0)
(1.99389 -0.145034 0)
(1.99425 -0.145625 0)
(1.99523 -0.145363 0)
(1.9968 -0.145252 0)
(1.99853 -0.145079 0)
(2.0006 -0.144232 0)
(2.00302 -0.143327 0)
(2.00541 -0.142687 0)
(2.00782 -0.141898 0)
(2.01016 -0.140642 0)
(2.01205 -0.139814 0)
(2.01405 -0.138898 0)
(2.01597 -0.137782 0)
(2.01766 -0.136248 0)
(2.01903 -0.135945 0)
(2.02054 -0.135706 0)
(2.02222 -0.134956 0)
(2.02377 -0.133892 0)
(2.0251 -0.133854 0)
(2.02641 -0.133527 0)
(2.02749 -0.133139 0)
(2.02948 -0.132633 0)
(1.8015 -0.281604 0)
(1.80362 -0.280961 0)
(1.80585 -0.280384 0)
(1.80819 -0.279659 0)
(1.81044 -0.278887 0)
(1.81246 -0.278251 0)
(1.81429 -0.277731 0)
(1.81601 -0.277334 0)
(1.81774 -0.277096 0)
(1.81975 -0.276896 0)
(1.82183 -0.276734 0)
(1.82346 -0.276476 0)
(1.82529 -0.275761 0)
(1.8274 -0.274773 0)
(1.82945 -0.273173 0)
(1.8309 -0.271012 0)
(1.83218 -0.268762 0)
(1.83393 -0.266709 0)
(1.83592 -0.263919 0)
(1.83714 -0.262656 0)
(1.83924 -0.262661 0)
(1.84198 -0.262302 0)
(1.8445 -0.261835 0)
(1.84673 -0.26203 0)
(1.84869 -0.262449 0)
(1.85062 -0.262014 0)
(1.85262 -0.260654 0)
(1.85462 -0.259174 0)
(1.85656 -0.2579 0)
(1.85771 -0.256506 0)
(1.85872 -0.2539 0)
(1.8605 -0.250587 0)
(1.86158 -0.247907 0)
(1.86268 -0.245163 0)
(1.86385 -0.24055 0)
(1.86495 -0.23455 0)
(1.86608 -0.228195 0)
(1.8671 -0.22317 0)
(1.86865 -0.220984 0)
(1.87084 -0.220748 0)
(1.8733 -0.22099 0)
(1.87597 -0.221329 0)
(1.87865 -0.221908 0)
(1.88099 -0.222292 0)
(1.88399 -0.222535 0)
(1.88713 -0.222672 0)
(1.88996 -0.222559 0)
(1.89283 -0.221973 0)
(1.89575 -0.22127 0)
(1.89834 -0.220348 0)
(1.90101 -0.219387 0)
(1.90333 -0.217564 0)
(1.90526 -0.216062 0)
(1.90733 -0.214942 0)
(1.90916 -0.212906 0)
(1.91038 -0.211148 0)
(1.91179 -0.211093 0)
(1.9134 -0.21135 0)
(1.91532 -0.210938 0)
(1.91728 -0.210553 0)
(1.91927 -0.211194 0)
(1.92105 -0.212039 0)
(1.92303 -0.211591 0)
(1.92515 -0.210325 0)
(1.92727 -0.209821 0)
(1.92932 -0.209689 0)
(1.93092 -0.208843 0)
(1.93226 -0.207585 0)
(1.93397 -0.206791 0)
(1.93564 -0.206544 0)
(1.93653 -0.205604 0)
(1.93838 -0.203917 0)
(1.94012 -0.203115 0)
(1.94197 -0.20168 0)
(1.94457 -0.20002 0)
(1.94701 -0.197876 0)
(1.94868 -0.196431 0)
(1.95177 -0.194517 0)
(1.95492 -0.192699 0)
(1.95717 -0.190686 0)
(1.95924 -0.189201 0)
(1.96251 -0.187003 0)
(1.96512 -0.183981 0)
(1.96686 -0.181881 0)
(1.96933 -0.179184 0)
(1.9715 -0.175768 0)
(1.97295 -0.173124 0)
(1.97428 -0.171318 0)
(1.97586 -0.169023 0)
(1.97731 -0.166372 0)
(1.97842 -0.164689 0)
(1.97962 -0.163499 0)
(1.98137 -0.161326 0)
(1.98319 -0.158496 0)
(1.9846 -0.156383 0)
(1.98589 -0.15445 0)
(1.98733 -0.151537 0)
(1.98846 -0.148277 0)
(1.9891 -0.146095 0)
(1.9897 -0.144629 0)
(1.99047 -0.142933 0)
(1.99116 -0.141574 0)
(1.99177 -0.141172 0)
(1.99249 -0.141011 0)
(1.99316 -0.141292 0)
(1.9932 -0.142183 0)
(1.99294 -0.143509 0)
(1.99254 -0.144795 0)
(1.99251 -0.145554 0)
(1.99311 -0.146151 0)
(1.99413 -0.146139 0)
(1.99544 -0.145289 0)
(1.99698 -0.144612 0)
(1.9988 -0.144239 0)
(2.00094 -0.143402 0)
(2.00331 -0.142117 0)
(2.00547 -0.141227 0)
(2.00761 -0.140593 0)
(2.00974 -0.139568 0)
(2.01172 -0.13815 0)
(2.01337 -0.137428 0)
(2.01514 -0.136611 0)
(2.01694 -0.135505 0)
(2.01882 -0.133823 0)
(2.02046 -0.133211 0)
(2.02225 -0.132704 0)
(2.02402 -0.13184 0)
(2.02544 -0.130859 0)
(2.02648 -0.131044 0)
(2.0274 -0.131079 0)
(2.02821 -0.13112 0)
(2.03025 -0.130746 0)
(1.80483 -0.277653 0)
(1.807 -0.27698 0)
(1.80917 -0.276398 0)
(1.81122 -0.275716 0)
(1.81304 -0.275025 0)
(1.81468 -0.274503 0)
(1.81628 -0.27405 0)
(1.81805 -0.273334 0)
(1.81999 -0.272592 0)
(1.82185 -0.2724 0)
(1.8235 -0.272256 0)
(1.82561 -0.271489 0)
(1.828 -0.270727 0)
(1.82973 -0.269542 0)
(1.83098 -0.267953 0)
(1.83221 -0.265533 0)
(1.8341 -0.263362 0)
(1.83641 -0.260849 0)
(1.83806 -0.257957 0)
(1.83974 -0.257342 0)
(1.84193 -0.257559 0)
(1.84411 -0.257527 0)
(1.84639 -0.257088 0)
(1.8485 -0.257084 0)
(1.85024 -0.257679 0)
(1.85198 -0.257438 0)
(1.85423 -0.255837 0)
(1.85591 -0.25426 0)
(1.85727 -0.253296 0)
(1.85841 -0.251246 0)
(1.86047 -0.24845 0)
(1.86256 -0.244872 0)
(1.86362 -0.242218 0)
(1.86451 -0.239116 0)
(1.8651 -0.234205 0)
(1.86568 -0.228354 0)
(1.86686 -0.222611 0)
(1.86836 -0.21845 0)
(1.87041 -0.217041 0)
(1.87296 -0.217085 0)
(1.87571 -0.217328 0)
(1.87851 -0.217671 0)
(1.88108 -0.218056 0)
(1.88362 -0.218117 0)
(1.88698 -0.218235 0)
(1.89007 -0.218213 0)
(1.89292 -0.217828 0)
(1.89589 -0.217259 0)
(1.89871 -0.216578 0)
(1.90142 -0.215639 0)
(1.90429 -0.214082 0)
(1.90577 -0.212686 0)
(1.90706 -0.211894 0)
(1.9086 -0.210934 0)
(1.91014 -0.209158 0)
(1.91146 -0.208046 0)
(1.91322 -0.208312 0)
(1.915 -0.208815 0)
(1.91707 -0.208421 0)
(1.91919 -0.207868 0)
(1.92127 -0.208305 0)
(1.92307 -0.208881 0)
(1.92487 -0.208429 0)
(1.92679 -0.207477 0)
(1.92891 -0.207158 0)
(1.93083 -0.207285 0)
(1.93241 -0.206609 0)
(1.93416 -0.205488 0)
(1.93628 -0.204834 0)
(1.93833 -0.204273 0)
(1.94025 -0.203264 0)
(1.94255 -0.202137 0)
(1.94443 -0.201077 0)
(1.94675 -0.199226 0)
(1.94962 -0.197923 0)
(1.95229 -0.19584 0)
(1.95381 -0.193911 0)
(1.95716 -0.191934 0)
(1.96064 -0.189909 0)
(1.96335 -0.187375 0)
(1.96567 -0.185351 0)
(1.96889 -0.183061 0)
(1.97112 -0.180859 0)
(1.97299 -0.179781 0)
(1.97511 -0.178318 0)
(1.97703 -0.176165 0)
(1.97829 -0.174748 0)
(1.97931 -0.17418 0)
(1.98059 -0.172916 0)
(1.98193 -0.17093 0)
(1.98301 -0.16981 0)
(1.98414 -0.169453 0)
(1.98575 -0.168246 0)
(1.98746 -0.166282 0)
(1.9887 -0.165118 0)
(1.9897 -0.164314 0)
(1.99099 -0.162273 0)
(1.99224 -0.159308 0)
(1.99303 -0.157173 0)
(1.9936 -0.15565 0)
(1.99432 -0.153341 0)
(1.99492 -0.150702 0)
(1.99508 -0.149094 0)
(1.99487 -0.14885 0)
(1.99431 -0.14894 0)
(1.99332 -0.149104 0)
(1.99215 -0.149088 0)
(1.99181 -0.148763 0)
(1.99244 -0.148284 0)
(1.99373 -0.147576 0)
(1.99543 -0.146141 0)
(1.99718 -0.144413 0)
(1.99899 -0.14363 0)
(2.00108 -0.143125 0)
(2.00352 -0.141905 0)
(2.00577 -0.140496 0)
(2.00776 -0.139653 0)
(2.00972 -0.13897 0)
(2.01191 -0.137618 0)
(2.01399 -0.135855 0)
(2.0156 -0.134846 0)
(2.01725 -0.133911 0)
(2.01913 -0.132635 0)
(2.02102 -0.130855 0)
(2.02255 -0.130116 0)
(2.02384 -0.129971 0)
(2.02505 -0.129449 0)
(2.02617 -0.12852 0)
(2.02708 -0.128621 0)
(2.02795 -0.128869 0)
(2.02914 -0.128239 0)
(2.0317 -0.127386 0)
(1.80815 -0.27338 0)
(1.81003 -0.272829 0)
(1.81181 -0.272489 0)
(1.81369 -0.271887 0)
(1.81578 -0.270941 0)
(1.8178 -0.270028 0)
(1.81956 -0.269274 0)
(1.82115 -0.268473 0)
(1.82265 -0.267634 0)
(1.82396 -0.267208 0)
(1.82522 -0.267181 0)
(1.82669 -0.26672 0)
(1.8288 -0.265789 0)
(1.83133 -0.264116 0)
(1.83311 -0.261968 0)
(1.83463 -0.259606 0)
(1.83647 -0.257427 0)
(1.83828 -0.254408 0)
(1.8394 -0.252527 0)
(1.84127 -0.25227 0)
(1.84343 -0.252497 0)
(1.84561 -0.252593 0)
(1.84805 -0.25216 0)
(1.85036 -0.25167 0)
(1.85242 -0.251881 0)
(1.8543 -0.25168 0)
(1.8563 -0.250111 0)
(1.85779 -0.248246 0)
(1.85887 -0.247067 0)
(1.8598 -0.245116 0)
(1.8617 -0.242621 0)
(1.86317 -0.239489 0)
(1.86399 -0.237135 0)
(1.86509 -0.233132 0)
(1.86671 -0.227403 0)
(1.86798 -0.221498 0)
(1.86917 -0.216603 0)
(1.87079 -0.213642 0)
(1.87298 -0.212978 0)
(1.87552 -0.213474 0)
(1.87828 -0.213905 0)
(1.88126 -0.214133 0)
(1.88423 -0.214404 0)
(1.88724 -0.214406 0)
(1.89016 -0.214282 0)
(1.89271 -0.214305 0)
(1.89511 -0.214012 0)
(1.8979 -0.213485 0)
(1.90051 -0.213093 0)
(1.90306 -0.212387 0)
(1.90589 -0.211058 0)
(1.9073 -0.210112 0)
(1.90911 -0.209069 0)
(1.91092 -0.207548 0)
(1.91218 -0.205892 0)
(1.91353 -0.205316 0)
(1.91512 -0.205877 0)
(1.91673 -0.206413 0)
(1.91858 -0.206132 0)
(1.92066 -0.205544 0)
(1.9229 -0.205505 0)
(1.92484 -0.206 0)
(1.92661 -0.205607 0)
(1.92867 -0.204663 0)
(1.93092 -0.204159 0)
(1.93281 -0.20368 0)
(1.93491 -0.202679 0)
(1.9372 -0.201648 0)
(1.93938 -0.200925 0)
(1.94128 -0.199927 0)
(1.94364 -0.198969 0)
(1.9457 -0.197349 0)
(1.94717 -0.195649 0)
(1.94997 -0.193633 0)
(1.95305 -0.192198 0)
(1.95619 -0.190571 0)
(1.95816 -0.188901 0)
(1.96133 -0.188158 0)
(1.96428 -0.186848 0)
(1.96663 -0.185539 0)
(1.96934 -0.18473 0)
(1.97247 -0.18305 0)
(1.97476 -0.18103 0)
(1.97657 -0.1804 0)
(1.97837 -0.179837 0)
(1.98032 -0.178184 0)
(1.98167 -0.176936 0)
(1.9826 -0.177192 0)
(1.98372 -0.176881 0)
(1.98528 -0.175116 0)
(1.98656 -0.173947 0)
(1.98775 -0.174044 0)
(1.98942 -0.173328 0)
(1.99145 -0.17131 0)
(1.99297 -0.169994 0)
(1.99424 -0.169693 0)
(1.99581 -0.168471 0)
(1.99743 -0.166199 0)
(1.9985 -0.16482 0)
(1.99902 -0.164858 0)
(1.99914 -0.164546 0)
(1.9989 -0.16292 0)
(1.99763 -0.16139 0)
(1.99551 -0.160585 0)
(1.99409 -0.159581 0)
(1.9941 -0.157467 0)
(1.9947 -0.154936 0)
(1.99526 -0.152695 0)
(1.99594 -0.151154 0)
(1.99699 -0.149518 0)
(1.99858 -0.147083 0)
(2.00037 -0.14482 0)
(2.00219 -0.143672 0)
(2.00417 -0.142656 0)
(2.00631 -0.140949 0)
(2.00822 -0.139082 0)
(2.00988 -0.137898 0)
(2.01149 -0.137024 0)
(2.01341 -0.135502 0)
(2.01538 -0.133534 0)
(2.01702 -0.13225 0)
(2.0186 -0.131414 0)
(2.02029 -0.130395 0)
(2.02205 -0.128731 0)
(2.02343 -0.127947 0)
(2.02444 -0.128126 0)
(2.02539 -0.127826 0)
(2.02663 -0.126354 0)
(2.02768 -0.126007 0)
(2.02873 -0.126091 0)
(2.02996 -0.12543 0)
(2.03237 -0.124594 0)
(1.80988 -0.269445 0)
(1.81199 -0.268804 0)
(1.81426 -0.268093 0)
(1.81629 -0.267317 0)
(1.8179 -0.266541 0)
(1.81931 -0.265673 0)
(1.82075 -0.2647 0)
(1.82208 -0.264045 0)
(1.82321 -0.263685 0)
(1.82446 -0.26294 0)
(1.8267 -0.262277 0)
(1.82908 -0.261737 0)
(1.83149 -0.260049 0)
(1.83304 -0.257864 0)
(1.83387 -0.255932 0)
(1.83534 -0.253672 0)
(1.83756 -0.251344 0)
(1.8397 -0.248294 0)
(1.84129 -0.246857 0)
(1.84347 -0.246574 0)
(1.84563 -0.246766 0)
(1.8476 -0.247041 0)
(1.84957 -0.24681 0)
(1.85154 -0.246155 0)
(1.85329 -0.246329 0)
(1.85465 -0.246509 0)
(1.85673 -0.244911 0)
(1.85835 -0.242783 0)
(1.85929 -0.241335 0)
(1.86076 -0.239215 0)
(1.86309 -0.236675 0)
(1.86482 -0.233515 0)
(1.86578 -0.230686 0)
(1.86689 -0.226175 0)
(1.86828 -0.220477 0)
(1.8695 -0.21506 0)
(1.87104 -0.21122 0)
(1.87326 -0.209417 0)
(1.87605 -0.209315 0)
(1.8791 -0.210034 0)
(1.88223 -0.210742 0)
(1.88543 -0.211058 0)
(1.88851 -0.211217 0)
(1.89144 -0.211345 0)
(1.89425 -0.211341 0)
(1.89687 -0.211334 0)
(1.89935 -0.210981 0)
(1.90202 -0.210295 0)
(1.90444 -0.210047 0)
(1.90661 -0.209262 0)
(1.90807 -0.208266 0)
(1.90956 -0.20722 0)
(1.91089 -0.205977 0)
(1.91203 -0.20473 0)
(1.9133 -0.203837 0)
(1.91475 -0.203556 0)
(1.91628 -0.204156 0)
(1.9178 -0.204755 0)
(1.91957 -0.204199 0)
(1.9215 -0.203723 0)
(1.92369 -0.204034 0)
(1.92584 -0.203825 0)
(1.92826 -0.202543 0)
(1.93044 -0.201487 0)
(1.93269 -0.200673 0)
(1.93452 -0.199711 0)
(1.93654 -0.198235 0)
(1.93808 -0.197064 0)
(1.93968 -0.195954 0)
(1.94198 -0.194289 0)
(1.94438 -0.192897 0)
(1.94735 -0.191355 0)
(1.94933 -0.189655 0)
(1.95201 -0.188349 0)
(1.95513 -0.187288 0)
(1.95825 -0.185772 0)
(1.96073 -0.185012 0)
(1.96422 -0.184105 0)
(1.9673 -0.182478 0)
(1.96967 -0.181872 0)
(1.97186 -0.181939 0)
(1.97448 -0.181303 0)
(1.97678 -0.180314 0)
(1.97883 -0.180536 0)
(1.98055 -0.181164 0)
(1.98226 -0.180314 0)
(1.98344 -0.179227 0)
(1.98426 -0.180007 0)
(1.98503 -0.180688 0)
(1.98646 -0.179399 0)
(1.98776 -0.178145 0)
(1.98892 -0.178535 0)
(1.99026 -0.178544 0)
(1.99222 -0.176905 0)
(1.99389 -0.175567 0)
(1.99522 -0.175867 0)
(1.99656 -0.175785 0)
(1.99812 -0.174294 0)
(1.99922 -0.173281 0)
(1.99974 -0.173906 0)
(1.99986 -0.174467 0)
(1.99993 -0.173548 0)
(1.99983 -0.172171 0)
(1.99958 -0.171343 0)
(1.99946 -0.170316 0)
(1.99999 -0.167964 0)
(2.00091 -0.164554 0)
(2.00176 -0.161251 0)
(2.00251 -0.15866 0)
(2.00345 -0.1557 0)
(2.00475 -0.151555 0)
(2.00589 -0.147671 0)
(2.00688 -0.145247 0)
(2.00808 -0.143253 0)
(2.00961 -0.140793 0)
(2.01118 -0.138183 0)
(2.01253 -0.136376 0)
(2.0138 -0.135268 0)
(2.01548 -0.133664 0)
(2.01744 -0.13153 0)
(2.01915 -0.130081 0)
(2.02073 -0.12934 0)
(2.02226 -0.128598 0)
(2.0237 -0.127093 0)
(2.02479 -0.125899 0)
(2.02564 -0.125844 0)
(2.0265 -0.125716 0)
(2.02771 -0.124307 0)
(2.0287 -0.123442 0)
(2.02962 -0.123372 0)
(2.03057 -0.123208 0)
(2.03326 -0.122053 0)
(1.81318 -0.264954 0)
(1.815 -0.264274 0)
(1.81665 -0.263584 0)
(1.8183 -0.26264 0)
(1.81987 -0.261616 0)
(1.82129 -0.260881 0)
(1.82254 -0.260325 0)
(1.8238 -0.259575 0)
(1.82512 -0.258792 0)
(1.82634 -0.25792 0)
(1.82824 -0.257061 0)
(1.83029 -0.256045 0)
(1.83184 -0.254373 0)
(1.83343 -0.252106 0)
(1.8356 -0.249696 0)
(1.83774 -0.247376 0)
(1.83962 -0.244457 0)
(1.84095 -0.242224 0)
(1.84267 -0.24134 0)
(1.84471 -0.241303 0)
(1.84684 -0.241553 0)
(1.84895 -0.241765 0)
(1.85099 -0.241614 0)
(1.85305 -0.241097 0)
(1.85505 -0.240797 0)
(1.8569 -0.240357 0)
(1.85839 -0.239122 0)
(1.8597 -0.237073 0)
(1.86181 -0.235003 0)
(1.86407 -0.232931 0)
(1.86592 -0.229965 0)
(1.86692 -0.227231 0)
(1.86725 -0.224153 0)
(1.86832 -0.219276 0)
(1.87041 -0.213779 0)
(1.87224 -0.20897 0)
(1.8743 -0.206226 0)
(1.87697 -0.205402 0)
(1.87985 -0.205699 0)
(1.88262 -0.206471 0)
(1.88523 -0.2073 0)
(1.88803 -0.207524 0)
(1.89101 -0.207327 0)
(1.89381 -0.207401 0)
(1.89639 -0.207757 0)
(1.89877 -0.207994 0)
(1.9009 -0.207522 0)
(1.90339 -0.207405 0)
(1.90558 -0.207267 0)
(1.90756 -0.206581 0)
(1.90887 -0.205831 0)
(1.91031 -0.204772 0)
(1.91175 -0.203347 0)
(1.91303 -0.202171 0)
(1.91451 -0.201478 0)
(1.91609 -0.201226 0)
(1.91773 -0.201722 0)
(1.91933 -0.2021 0)
(1.92105 -0.201392 0)
(1.92296 -0.200876 0)
(1.92507 -0.201007 0)
(1.92712 -0.200465 0)
(1.92987 -0.199051 0)
(1.93205 -0.197879 0)
(1.93423 -0.197001 0)
(1.93655 -0.195412 0)
(1.9392 -0.193673 0)
(1.9418 -0.191949 0)
(1.94374 -0.190465 0)
(1.94556 -0.188846 0)
(1.94784 -0.186982 0)
(1.94978 -0.185039 0)
(1.9516 -0.184192 0)
(1.9542 -0.183226 0)
(1.95726 -0.182215 0)
(1.96016 -0.181098 0)
(1.9628 -0.180713 0)
(1.96601 -0.18017 0)
(1.96899 -0.179076 0)
(1.97157 -0.178545 0)
(1.97396 -0.178721 0)
(1.97633 -0.178234 0)
(1.97831 -0.177255 0)
(1.97999 -0.177709 0)
(1.98122 -0.179164 0)
(1.98235 -0.179145 0)
(1.98326 -0.178406 0)
(1.98408 -0.179556 0)
(1.98468 -0.181274 0)
(1.98594 -0.180905 0)
(1.98741 -0.179829 0)
(1.98881 -0.180434 0)
(1.99008 -0.181223 0)
(1.99196 -0.180204 0)
(1.99371 -0.178802 0)
(1.99521 -0.179259 0)
(1.99648 -0.180024 0)
(1.99802 -0.179151 0)
(1.99929 -0.178147 0)
(2.00017 -0.178961 0)
(2.00069 -0.180134 0)
(2.00133 -0.179625 0)
(2.00203 -0.178189 0)
(2.00272 -0.177332 0)
(2.00353 -0.176744 0)
(2.00478 -0.174941 0)
(2.00641 -0.171786 0)
(2.00783 -0.168561 0)
(2.00893 -0.166126 0)
(2.01004 -0.163371 0)
(2.01145 -0.159109 0)
(2.01257 -0.154418 0)
(2.01317 -0.150742 0)
(2.01369 -0.147539 0)
(2.01446 -0.143959 0)
(2.01548 -0.139916 0)
(2.01624 -0.13684 0)
(2.01689 -0.135178 0)
(2.01801 -0.133284 0)
(2.01961 -0.130581 0)
(2.02092 -0.128466 0)
(2.02203 -0.127784 0)
(2.02323 -0.127417 0)
(2.02477 -0.12594 0)
(2.02615 -0.124265 0)
(2.02731 -0.123754 0)
(2.02823 -0.123764 0)
(2.02936 -0.122374 0)
(2.0303 -0.121007 0)
(2.0313 -0.120471 0)
(2.03238 -0.120278 0)
(2.03493 -0.119163 0)
(1.81394 -0.260357 0)
(1.8155 -0.25987 0)
(1.81708 -0.259508 0)
(1.81896 -0.258667 0)
(1.821 -0.257469 0)
(1.82285 -0.256425 0)
(1.82459 -0.255466 0)
(1.82618 -0.254383 0)
(1.82726 -0.253451 0)
(1.82823 -0.252523 0)
(1.83005 -0.251583 0)
(1.83211 -0.250158 0)
(1.83374 -0.248166 0)
(1.83474 -0.246024 0)
(1.83617 -0.243579 0)
(1.83829 -0.240917 0)
(1.8401 -0.238237 0)
(1.84197 -0.236681 0)
(1.84426 -0.235996 0)
(1.84671 -0.235971 0)
(1.84912 -0.236237 0)
(1.85152 -0.236329 0)
(1.85381 -0.236061 0)
(1.85589 -0.235597 0)
(1.85784 -0.235028 0)
(1.85947 -0.234177 0)
(1.86028 -0.232912 0)
(1.8614 -0.230968 0)
(1.86366 -0.229208 0)
(1.86601 -0.226685 0)
(1.86771 -0.224024 0)
(1.8692 -0.221204 0)
(1.87069 -0.217091 0)
(1.87251 -0.212021 0)
(1.8741 -0.206745 0)
(1.87546 -0.202911 0)
(1.87755 -0.201228 0)
(1.88034 -0.200977 0)
(1.88349 -0.201442 0)
(1.88669 -0.202179 0)
(1.88965 -0.202966 0)
(1.89228 -0.20329 0)
(1.89453 -0.203274 0)
(1.89649 -0.203729 0)
(1.8985 -0.204356 0)
(1.90043 -0.204619 0)
(1.90229 -0.204707 0)
(1.90452 -0.20491 0)
(1.90644 -0.204835 0)
(1.90819 -0.204244 0)
(1.90954 -0.203124 0)
(1.91103 -0.20194 0)
(1.91267 -0.200433 0)
(1.91405 -0.199387 0)
(1.91579 -0.198856 0)
(1.91772 -0.198673 0)
(1.91987 -0.198949 0)
(1.922 -0.19889 0)
(1.92401 -0.19799 0)
(1.92599 -0.197484 0)
(1.92804 -0.197376 0)
(1.93037 -0.196381 0)
(1.93332 -0.195022 0)
(1.93545 -0.193696 0)
(1.9375 -0.192762 0)
(1.94046 -0.191232 0)
(1.94341 -0.18937 0)
(1.9458 -0.187086 0)
(1.94769 -0.186063 0)
(1.9498 -0.184853 0)
(1.95225 -0.183108 0)
(1.95443 -0.181711 0)
(1.95653 -0.181255 0)
(1.95914 -0.180328 0)
(1.96176 -0.178598 0)
(1.9639 -0.177793 0)
(1.96603 -0.177875 0)
(1.96844 -0.177337 0)
(1.97069 -0.17631 0)
(1.97283 -0.176278 0)
(1.97485 -0.177039 0)
(1.97671 -0.177009 0)
(1.97826 -0.176335 0)
(1.9796 -0.177033 0)
(1.98057 -0.179008 0)
(1.98132 -0.179613 0)
(1.98206 -0.179063 0)
(1.98302 -0.180024 0)
(1.98391 -0.182065 0)
(1.98516 -0.182419 0)
(1.98684 -0.181548 0)
(1.98864 -0.181934 0)
(1.99023 -0.183181 0)
(1.99211 -0.182958 0)
(1.99401 -0.181818 0)
(1.99573 -0.182134 0)
(1.99707 -0.183404 0)
(1.99847 -0.183057 0)
(1.99973 -0.181704 0)
(2.00066 -0.181899 0)
(2.0013 -0.183054 0)
(2.00222 -0.182776 0)
(2.0038 -0.18111 0)
(2.00518 -0.179968 0)
(2.00643 -0.179517 0)
(2.00801 -0.178218 0)
(2.01018 -0.175557 0)
(2.01216 -0.172661 0)
(2.01375 -0.170691 0)
(2.01522 -0.168915 0)
(2.01701 -0.165841 0)
(2.01871 -0.161695 0)
(2.01972 -0.158007 0)
(2.0203 -0.154936 0)
(2.02093 -0.151278 0)
(2.0218 -0.146209 0)
(2.02219 -0.141278 0)
(2.02211 -0.13808 0)
(2.02215 -0.135491 0)
(2.02289 -0.13191 0)
(2.02365 -0.128482 0)
(2.0242 -0.127163 0)
(2.02485 -0.12666 0)
(2.02601 -0.125134 0)
(2.02729 -0.123176 0)
(2.02839 -0.12217 0)
(2.02914 -0.122274 0)
(2.03019 -0.121082 0)
(2.03159 -0.119214 0)
(2.03311 -0.118118 0)
(2.03453 -0.117673 0)
(2.03729 -0.116376 0)
(1.81714 -0.25543 0)
(1.81885 -0.254602 0)
(1.82021 -0.254017 0)
(1.82149 -0.253468 0)
(1.82293 -0.252623 0)
(1.82434 -0.251666 0)
(1.8255 -0.250956 0)
(1.82646 -0.25017 0)
(1.82784 -0.24872 0)
(1.83031 -0.247694 0)
(1.83275 -0.246397 0)
(1.83473 -0.244157 0)
(1.83595 -0.241983 0)
(1.83745 -0.239435 0)
(1.83926 -0.23695 0)
(1.84086 -0.234154 0)
(1.84234 -0.232071 0)
(1.84419 -0.230987 0)
(1.8463 -0.230692 0)
(1.84859 -0.230818 0)
(1.85092 -0.231124 0)
(1.85317 -0.231339 0)
(1.8554 -0.231143 0)
(1.85765 -0.230593 0)
(1.85977 -0.229931 0)
(1.86156 -0.228792 0)
(1.8634 -0.226639 0)
(1.86553 -0.224916 0)
(1.86767 -0.22271 0)
(1.86913 -0.220226 0)
(1.87053 -0.218017 0)
(1.87161 -0.214847 0)
(1.8728 -0.210086 0)
(1.87443 -0.204559 0)
(1.87601 -0.199741 0)
(1.87795 -0.197054 0)
(1.88065 -0.196292 0)
(1.88364 -0.196431 0)
(1.88653 -0.197005 0)
(1.8892 -0.197835 0)
(1.89168 -0.198624 0)
(1.89396 -0.199134 0)
(1.89601 -0.199493 0)
(1.89808 -0.200155 0)
(1.90017 -0.200951 0)
(1.90199 -0.201499 0)
(1.90425 -0.20172 0)
(1.9063 -0.201835 0)
(1.9081 -0.201502 0)
(1.90951 -0.200719 0)
(1.91094 -0.199526 0)
(1.91249 -0.198359 0)
(1.91414 -0.196779 0)
(1.91553 -0.196102 0)
(1.91742 -0.195638 0)
(1.91952 -0.195763 0)
(1.92182 -0.196278 0)
(1.92409 -0.196147 0)
(1.9271 -0.195179 0)
(1.92985 -0.194374 0)
(1.93241 -0.194029 0)
(1.93505 -0.192915 0)
(1.93811 -0.191263 0)
(1.94033 -0.18976 0)
(1.94226 -0.189191 0)
(1.94496 -0.188212 0)
(1.94768 -0.186168 0)
(1.94968 -0.184211 0)
(1.95168 -0.183669 0)
(1.95411 -0.182551 0)
(1.95646 -0.180567 0)
(1.95824 -0.179488 0)
(1.95978 -0.179427 0)
(1.96168 -0.178534 0)
(1.96362 -0.177127 0)
(1.96552 -0.176858 0)
(1.96748 -0.177072 0)
(1.96959 -0.176381 0)
(1.97148 -0.175332 0)
(1.97328 -0.175552 0)
(1.97488 -0.176571 0)
(1.97625 -0.176648 0)
(1.97732 -0.176095 0)
(1.97831 -0.177028 0)
(1.97908 -0.1793 0)
(1.97965 -0.180303 0)
(1.98045 -0.179916 0)
(1.98169 -0.180509 0)
(1.98302 -0.182212 0)
(1.98437 -0.182845 0)
(1.98625 -0.182185 0)
(1.98826 -0.182016 0)
(1.99027 -0.183107 0)
(1.992 -0.183565 0)
(1.99383 -0.182869 0)
(1.99557 -0.182791 0)
(1.99715 -0.184193 0)
(1.99836 -0.184664 0)
(1.9997 -0.183381 0)
(2.00085 -0.182827 0)
(2.00201 -0.183663 0)
(2.00303 -0.183778 0)
(2.00523 -0.182133 0)
(2.00746 -0.180324 0)
(2.00918 -0.179678 0)
(2.01069 -0.179189 0)
(2.01293 -0.177383 0)
(2.0154 -0.174701 0)
(2.01725 -0.172778 0)
(2.01898 -0.171674 0)
(2.02105 -0.169681 0)
(2.02334 -0.166334 0)
(2.02499 -0.163081 0)
(2.02613 -0.16075 0)
(2.02714 -0.158235 0)
(2.02837 -0.154011 0)
(2.02915 -0.149166 0)
(2.0292 -0.145457 0)
(2.02871 -0.142628 0)
(2.02861 -0.138357 0)
(2.02872 -0.133226 0)
(2.02854 -0.129951 0)
(2.0284 -0.128113 0)
(2.02863 -0.126153 0)
(2.02945 -0.123381 0)
(2.03024 -0.121245 0)
(2.03076 -0.120783 0)
(2.03164 -0.119605 0)
(2.03317 -0.117653 0)
(2.03486 -0.115982 0)
(2.03626 -0.115308 0)
(2.03902 -0.113889 0)
(1.818 -0.250417 0)
(1.81971 -0.249467 0)
(1.82117 -0.248716 0)
(1.82234 -0.248451 0)
(1.82357 -0.248081 0)
(1.825 -0.247195 0)
(1.82657 -0.24611 0)
(1.82809 -0.245022 0)
(1.8297 -0.243627 0)
(1.83186 -0.242432 0)
(1.83421 -0.240539 0)
(1.83578 -0.23839 0)
(1.83715 -0.236069 0)
(1.83906 -0.233277 0)
(1.84114 -0.23021 0)
(1.84262 -0.227742 0)
(1.84458 -0.226266 0)
(1.84686 -0.225495 0)
(1.84925 -0.225424 0)
(1.85171 -0.225732 0)
(1.85424 -0.226052 0)
(1.85677 -0.226094 0)
(1.8592 -0.225733 0)
(1.86151 -0.225164 0)
(1.86367 -0.224424 0)
(1.86529 -0.223081 0)
(1.86692 -0.22076 0)
(1.86905 -0.218496 0)
(1.87114 -0.215621 0)
(1.87224 -0.213878 0)
(1.87387 -0.211404 0)
(1.87579 -0.207303 0)
(1.87738 -0.202319 0)
(1.87889 -0.197012 0)
(1.88041 -0.192878 0)
(1.88218 -0.191073 0)
(1.88419 -0.191078 0)
(1.88634 -0.191897 0)
(1.88864 -0.192983 0)
(1.89102 -0.194094 0)
(1.89332 -0.194944 0)
(1.89544 -0.195432 0)
(1.89748 -0.195874 0)
(1.89963 -0.196627 0)
(1.90163 -0.197694 0)
(1.90366 -0.198468 0)
(1.90611 -0.198686 0)
(1.908 -0.198517 0)
(1.90968 -0.198001 0)
(1.91099 -0.196847 0)
(1.91268 -0.195515 0)
(1.91451 -0.194093 0)
(1.91581 -0.192685 0)
(1.91737 -0.192401 0)
(1.91944 -0.191753 0)
(1.92178 -0.191824 0)
(1.92422 -0.192314 0)
(1.92684 -0.192162 0)
(1.9298 -0.191799 0)
(1.93267 -0.191016 0)
(1.93537 -0.190771 0)
(1.93834 -0.189938 0)
(1.94156 -0.188474 0)
(1.94414 -0.186582 0)
(1.94645 -0.185833 0)
(1.94881 -0.184545 0)
(1.95107 -0.182323 0)
(1.95287 -0.181079 0)
(1.95473 -0.180643 0)
(1.95692 -0.179457 0)
(1.95889 -0.177927 0)
(1.96052 -0.177562 0)
(1.96198 -0.177667 0)
(1.96358 -0.176723 0)
(1.96509 -0.175452 0)
(1.96664 -0.175566 0)
(1.96822 -0.176204 0)
(1.96987 -0.175821 0)
(1.97133 -0.17528 0)
(1.97274 -0.176224 0)
(1.97392 -0.177939 0)
(1.97486 -0.178548 0)
(1.97562 -0.178484 0)
(1.97649 -0.179583 0)
(1.97732 -0.181625 0)
(1.97818 -0.182422 0)
(1.97952 -0.181773 0)
(1.98118 -0.181681 0)
(1.98289 -0.182503 0)
(1.98444 -0.182768 0)
(1.98646 -0.181918 0)
(1.98854 -0.181105 0)
(1.99072 -0.181525 0)
(1.99242 -0.181873 0)
(1.99395 -0.181386 0)
(1.99548 -0.181073 0)
(1.99722 -0.18166 0)
(1.99836 -0.182787 0)
(1.99957 -0.182714 0)
(2.00125 -0.181878 0)
(2.00301 -0.182023 0)
(2.00474 -0.182193 0)
(2.00675 -0.181318 0)
(2.00937 -0.180053 0)
(2.01157 -0.178496 0)
(2.01351 -0.177821 0)
(2.01599 -0.176451 0)
(2.01889 -0.174349 0)
(2.02085 -0.172395 0)
(2.02257 -0.171677 0)
(2.0245 -0.170565 0)
(2.02694 -0.168067 0)
(2.02893 -0.165285 0)
(2.03051 -0.163555 0)
(2.03192 -0.162161 0)
(2.03349 -0.159418 0)
(2.03485 -0.15569 0)
(2.03561 -0.152432 0)
(2.03559 -0.150375 0)
(2.03558 -0.147 0)
(2.03573 -0.141994 0)
(2.03552 -0.137504 0)
(2.03491 -0.134171 0)
(2.03412 -0.131386 0)
(2.03395 -0.127404 0)
(2.034 -0.123614 0)
(2.03411 -0.121547 0)
(2.03459 -0.11987 0)
(2.03593 -0.117427 0)
(2.03752 -0.114924 0)
(2.03874 -0.113716 0)
(2.04132 -0.111783 0)
(1.82082 -0.244932 0)
(1.82287 -0.244462 0)
(1.82504 -0.243621 0)
(1.82684 -0.242717 0)
(1.82771 -0.242208 0)
(1.82849 -0.241517 0)
(1.82955 -0.240664 0)
(1.83079 -0.239558 0)
(1.83296 -0.238335 0)
(1.83537 -0.237078 0)
(1.83774 -0.234708 0)
(1.83904 -0.232565 0)
(1.84026 -0.22991 0)
(1.84241 -0.226934 0)
(1.8444 -0.223771 0)
(1.84604 -0.221943 0)
(1.84825 -0.220919 0)
(1.85065 -0.22034 0)
(1.85306 -0.220284 0)
(1.85545 -0.22061 0)
(1.85773 -0.220991 0)
(1.85983 -0.221071 0)
(1.86212 -0.220634 0)
(1.86482 -0.220004 0)
(1.86749 -0.21903 0)
(1.8698 -0.217051 0)
(1.87189 -0.21503 0)
(1.87401 -0.212336 0)
(1.87538 -0.209345 0)
(1.87636 -0.20728 0)
(1.87669 -0.204164 0)
(1.87686 -0.199297 0)
(1.87755 -0.193913 0)
(1.87887 -0.189434 0)
(1.88068 -0.186818 0)
(1.88289 -0.186167 0)
(1.8853 -0.186858 0)
(1.8877 -0.188088 0)
(1.89004 -0.189375 0)
(1.89225 -0.190518 0)
(1.89431 -0.191374 0)
(1.89636 -0.191954 0)
(1.89853 -0.192636 0)
(1.90063 -0.193753 0)
(1.90283 -0.194792 0)
(1.90547 -0.195136 0)
(1.90763 -0.195096 0)
(1.9095 -0.19444 0)
(1.91113 -0.193542 0)
(1.91259 -0.192376 0)
(1.91402 -0.191161 0)
(1.91601 -0.189587 0)
(1.91735 -0.188518 0)
(1.9194 -0.188229 0)
(1.92218 -0.187339 0)
(1.9247 -0.187185 0)
(1.92701 -0.187684 0)
(1.92913 -0.187733 0)
(1.93214 -0.186993 0)
(1.93514 -0.186203 0)
(1.93778 -0.186111 0)
(1.9407 -0.185533 0)
(1.94383 -0.184481 0)
(1.94662 -0.182932 0)
(1.94889 -0.182377 0)
(1.95155 -0.181548 0)
(1.95397 -0.180039 0)
(1.95577 -0.179172 0)
(1.95728 -0.179159 0)
(1.95886 -0.178435 0)
(1.96035 -0.177294 0)
(1.9617 -0.17749 0)
(1.96291 -0.178159 0)
(1.96422 -0.177632 0)
(1.96547 -0.176789 0)
(1.96676 -0.177301 0)
(1.96801 -0.178267 0)
(1.9693 -0.178083 0)
(1.97046 -0.177708 0)
(1.97159 -0.178871 0)
(1.97252 -0.180723 0)
(1.97332 -0.181387 0)
(1.97415 -0.181147 0)
(1.97528 -0.181754 0)
(1.97653 -0.183103 0)
(1.9779 -0.183433 0)
(1.97988 -0.182369 0)
(1.98187 -0.181692 0)
(1.9838 -0.181971 0)
(1.98562 -0.181811 0)
(1.98751 -0.181074 0)
(1.98955 -0.180153 0)
(1.99168 -0.179945 0)
(1.9934 -0.18009 0)
(1.99477 -0.17955 0)
(1.99605 -0.179388 0)
(1.99767 -0.179608 0)
(1.99923 -0.179549 0)
(2.00076 -0.179373 0)
(2.00246 -0.179146 0)
(2.00447 -0.178698 0)
(2.00636 -0.178207 0)
(2.00872 -0.177883 0)
(2.01092 -0.177358 0)
(2.01352 -0.176171 0)
(2.01562 -0.175622 0)
(2.01814 -0.175058 0)
(2.02122 -0.173697 0)
(2.02393 -0.171415 0)
(2.02603 -0.170283 0)
(2.02813 -0.169526 0)
(2.03055 -0.167794 0)
(2.0326 -0.165544 0)
(2.03425 -0.164189 0)
(2.03572 -0.163501 0)
(2.03729 -0.161872 0)
(2.03889 -0.159215 0)
(2.04025 -0.156426 0)
(2.04097 -0.155171 0)
(2.04157 -0.153129 0)
(2.04219 -0.149662 0)
(2.04267 -0.145592 0)
(2.04256 -0.142218 0)
(2.04185 -0.139477 0)
(2.04126 -0.135251 0)
(2.04076 -0.130281 0)
(2.04032 -0.125996 0)
(2.03986 -0.123304 0)
(2.04043 -0.119828 0)
(2.04149 -0.116229 0)
(2.04239 -0.114141 0)
(2.04474 -0.111129 0)
(1.82058 -0.239819 0)
(1.82221 -0.239617 0)
(1.82378 -0.239422 0)
(1.82548 -0.238311 0)