/*--------------------------------*- C++ -*----------------------------------*\
  =========                 |
  \\      /  F ield         | OpenFOAM: The Open Source CFD Toolbox
   \\    /   O peration     | Website:  https://openfoam.org
    \\  /    A nd           | Version:  7
     \\/     M anipulation  |
\*---------------------------------------------------------------------------*/
FoamFile
{
    version     2.0;
    format      ascii;
    class       volScalarField;
    location    "0.839";
    object      T;
}
// * * * * * * * * * * * * * * * * * * * * * * * * * * * * * * * * * * * * * //

dimensions      [0 2 -2 0 0 0 0];

internalField   nonuniform List<scalar> 
12359
(
1.69657e-75
1.60073e-61
1.99541e-206
1.5641e-41
5.49042e-70
-7.55768e-28
5.78781e-23
-1.70954e-25
1.06716e-17
-5.631e-31
3.78695e-20
-3.29168e-14
0.26944
-5.51061e-38
4.51862e-43
1.12195e-05
0.00259654
1.76875e-112
3.66167e-116
4.01681e-53
7.67655e-37
4.56732e-15
-2.6258e-56
-1.94597e-48
-1.68925e-59
6.79404e-54
1.81162e-149
1.03595e-151
9.74114e-121
-2.51524e-140
5.17475e-135
3.45898e-166
-4.02478e-183
5.92463e-143
5.36658e-195
-5.73903e-132
5.65321e-91
7.53053e-79
1.89995e-72
1.59912e-83
-2.42019e-65
-6.61818e-81
1.01584e-98
-1.7191e-101
-7.88819e-127
-7.41431e-124
3.42031e-129
1.92658e-138
-5.25423e-118
-6.99595e-146
-2.54988e-154
-1.53732e-160
-6.5153e-169
-1.3641e-109
-2.48991e-175
2.5823e-180
1.38318e-104
5.24201e-186
-4.10146e-189
3.72876e-193
-1.25495e-177
2.84301e-200
3.13005e-157
9.86973
3.56223e-107
3.36704e-33
-9.02592e-95
-1.52279e-163
-2.16273e-88
-4.83801e-09
118.222
-7.16176e-67
9.70293e-209
1.39903e-86
-1.51532e-46
-1.60944e-197
1.15094e-171
-3.58608e-203
-1.97337e-96
-1.75224e-10
-5.80992e-27
-5.10918e-120
-3.01698e-259
-1.50749e-75
0.0016536
1.80119e-72
-4.7532e-118
2.28462e-167
1.01448
0.00052752
-1.67234e-225
3.11605
-4.13941e-227
-1.83499e-98
-2.68706e-79
3.76015e-50
-1.26965e-103
-4.37619e-99
1.21313e-49
-6.21009e-63
1.47147e-22
8.50685e-222
4.22561e-73
29.3359
-1.18373e-127
1.77139e-27
9.49965e-221
0.0021526
2.64042e-81
1.39227e-28
-2.02192e-106
-9.31425e-120
-3.14597e-31
3.80524e-26
-6.42716e-80
-8.12441e-151
3.20766e-25
-4.09629e-119
3.56671
-3.85785e-257
-1.00285e-106
7.29244e-23
6.18486e-166
3.33701e-35
-3.06887e-118
-4.76348e-141
2.06598e-16
-7.5222e-75
1.69814e-204
-2.99599e-119
1.06563e-149
6.55706e-06
0.000245464
0.000155985
-3.80822e-222
1.10359e-35
2.0692e-149
5.18946e-37
6.8966e-217
2.74338e-17
-6.07291e-248
-1.55721e-74
1.09463e-36
-5.5994e-221
1.14869e-17
5.43387e-28
-2.16841e-258
0.00068273
-4.59493e-127
1.3112e-26
8.88043e-48
2.67063e-218
5.39091e-36
3.52721e-164
-1.41933e-232
117.352
2.62533e-23
5.8516e-06
-2.89135e-104
-1.30423e-167
1.30489e-33
-2.79434e-166
4.71824e-35
5.74157e-36
-8.35985e-245
-2.18241e-142
2.57968e-34
1.04516e-23
1.20508e-37
0.900552
-5.50753e-201
-4.52653e-199
9.09663e-39
-3.57444e-60
-2.83744e-129
1.11531e-17
-1.03395e-123
-2.40299e-125
-5.17017e-31
1.29316e-18
-6.81439e-38
1.99407e-230
7.75888e-204
-4.29114e-119
6.24527e-51
6.71317e-16
-1.32143e-99
-5.32385e-83
7.60954e-47
-7.31633e-99
-1.32236e-81
1.70905e-51
5.29444e-53
5.81843e-163
5.17895e-28
41.5876
1.31045e-60
-5.51474e-99
4.89001e-36
-4.66476e-118
1.02499e-26
2.51401e-47
-2.79479e-63
1.00407e-28
1.10208e-20
4.34875e-230
1.21363e-19
-4.6137e-62
3.21752e-30
-1.12864e-108
1.89015e-240
2.50695e-14
4.89679e-14
156.675
1.98517e-15
7.03606e-214
-2.5933e-99
-3.80186e-81
-9.92698e-99
-6.34982e-73
1.85689e-26
-4.48153e-110
3.96316e-36
3.41281
-8.09186e-120
5.50804e-240
-1.651e-71
8.96151e-83
4.32659e-19
-1.69811e-96
-1.05081e-95
-1.48639e-246
5.76989e-18
-6.81393e-58
-1.97831e-83
-5.10176e-59
2.40154e-254
5.97928e-34
-4.10199e-82
9.43917e-05
-9.5408e-237
2.60286e-69
-2.79708e-90
4.62724e-10
9.23438e-32
0.00102258
-5.25466e-191
3.91297e-31
5.90548e-135
3.35875e-53
6.13453e-20
1.34982e-80
-1.44618e-128
-8.21713e-96
1.38601
128.727
4.5744e-254
2.18699e-112
1.532
185.348
-4.12096e-62
3.51536e-32
5.81459e-21
1.3396e-28
9.36473e-63
61.1476
3.52337
2.66613e-30
6.9686e-114
9.14964e-36
5.23638e-38
1.24556e-50
7.71359e-37
-1.91476e-97
2.94357e-110
1.46271e-238
8.19689e-112
8.58821
4.47874e-30
-1.19647e-204
5.79125e-219
2.25039e-28
1.53445e-112
5.9053e-95
1.03886e-70
9.58467e-251
4.16404e-21
9.56539e-220
-2.8882e-220
1.65875e-167
5.76394e-36
-7.80247e-122
54.8904
1.66699e-222
6.74259e-220
4.61075e-72
-1.51724e-135
2.47263e-27
-4.83643e-84
-6.65341e-158
-4.311e-225
7.83864
4.24007e-20
-3.61846e-226
-2.06886e-98
-2.09543e-85
-8.00769e-134
-1.94769e-150
-1.26345e-151
-3.72943e-131
3.08227e-116
-5.30059e-16
-2.19856e-135
-2.51487e-135
2.07537e-79
9.94091e-34
1.62416
2.0541e-131
-5.22559e-53
4.07513e-06
-6.81835e-221
2.1137e-44
-4.07164e-203
1.08187e-59
-2.97981e-219
1.22299e-129
3.856e-16
4.75959e-41
1.64215e-16
3.95982e-96
-1.65917e-90
3.75093e-53
4.23475e-49
-2.0744e-89
1.52244e-53
1.48813e-53
4.06743e-186
6.92061e-175
3.67959e-175
1.21391e-174
8.00258e-174
0.000395692
-8.23214e-250
2.58408e-25
6.49193e-37
2.93489e-53
9.17837e-35
2.20018e-40
1.79237e-72
6.64638e-62
1.46653e-40
7.57198e-63
-1.14163e-53
5.70934e-31
3.07975e-30
1.29921e-30
-3.48105e-73
1.25959e-14
-7.02929e-76
-4.33204e-76
1.83619e-36
3.94617e-20
-3.823e-122
2.39235e-173
3.45096e-60
9.60025e-175
-1.34356e-120
169.158
17.8488
2.7116e-120
3.33822e-217
-4.17028e-224
1.56348e-235
3.02445e-41
-8.03303e-231
1.37329e-231
1.24789
3.46941e-36
0.000396358
1.10754e-122
1.11267e-30
3.91749e-114
-5.02467e-89
3.36731e-27
5.43307e-61
-2.49997e-39
2.1013e-62
1.46308e-122
4.2211e-204
9.97649e-37
1.14302e-30
4.34381e-121
7.93557e-12
1.71248e-27
4.47669e-50
2.01323e-42
1.19309e-35
-1.19319e-213
10.766
8.05521e-14
3.05572e-121
1.49637e-10
1.01082e-77
-1.10814e-245
1.03903e-245
-9.80683e-236
0.000753526
4.95489e-21
-4.61e-53
2.07783e-45
2.01602e-48
-7.76727e-78
-6.55918e-38
7.77461e-44
2.43682e-10
1.63107
-2.90563e-12
7.08209e-53
1.27362e-31
8.619e-80
3.16481e-28
8.30745e-67
9.19782e-59
3.29797e-144
9.71083e-69
8.61416e-39
-1.26078e-229
175.621
-1.34348e-93
0.840815
7.82301e-32
1.92769e-103
1.73022e-29
1.04146
1.37129e-38
2.91292e-60
2.08478e-50
1.04691e-30
2.09875e-27
-1.91659e-115
-3.77795e-240
5.67333e-24
-6.85297e-218
2.69196e-06
2.43845e-148
-8.13449e-56
5.40031e-35
5.27915e-97
0.00906692
1.62145e-24
-2.50205e-65
-4.22685e-115
3.50937e-05
2.78657e-191
1.46298e-126
5.92507e-15
-6.62497e-214
-4.36131e-115
5.36427e-128
1.08071e-07
16.9457
-6.17192e-77
2.69685e-172
-9.17912e-33
1.55045e-36
1.06094e-44
1.67758e-34
1.74857e-37
1.35383e-184
6.42761e-237
1.97378e-40
-5.50937e-224
4.51701e-36
3.77731e-45
9.45084e-29
-5.4449e-127
4.41803e-25
1.74533e-13
9.9491e-144
-1.51544e-78
1.68293e-119
-3.69419e-29
1.05389e-14
7.47776e-216
4.93262e-39
3.11614e-39
2.79485e-82
9.20092e-38
1.27743e-147
2.90231e-21
8.19471e-64
6.51021e-34
3.915e-29
5.41381e-183
-2.72815e-79
6.28469e-10
0.000882332
-3.83381e-225
1.45756e-57
3.4455e-10
2.46974e-44
0.800542
-8.88843e-236
1.40696e-149
1.37117e-189
1.23429e-34
-1.80944e-62
-9.35892e-72
4.36351e-146
2.59998e-41
8.62968e-57
2.00017e-63
-6.49187e-105
0.000274742
8.0185e-213
0.000631714
6.32422e-169
148.694
1.21095e-62
1.15451e-10
2.85913e-189
-2.16997e-128
1.39612e-32
-8.9092e-121
-4.25746e-159
1.57058e-98
-2.35218e-60
-2.16845e-61
3.70833e-12
9.91228e-24
7.7449e-24
-5.01571e-259
-1.29809e-120
4.45576e-43
0.00116067
-1.02473e-258
-7.52655e-209
1.82013e-38
1.47962e-187
1.14364e-16
1.23149
98.9794
-3.10814e-257
1.65869e-80
4.95879e-19
-2.20192e-69
-1.48223e-129
94.6748
-2.46868e-211
7.86099e-24
7.5179e-34
-1.81498e-81
-3.32552e-132
-4.41957e-157
1.45215e-98
1.84624e-37
2.08063e-63
-4.18784e-76
-3.52501e-256
-7.14566e-203
-2.74291e-64
-4.1638e-124
8.22391e-28
6.11862e-35
5.62539e-166
-2.54074e-206
2.32387e-30
168.953
-6.999e-137
1.13464e-10
-2.58507e-225
-1.47405e-75
5.33728e-24
2.02527e-44
9.74138e-21
1.64489e-28
-5.10525e-62
2.14811e-33
-3.39191e-242
4.16615e-195
9.26947e-48
-1.16124e-71
-1.84377e-62
-2.08828e-73
8.89013e-233
5.35202e-206
-3.11995e-140
3.4391e-49
4.09083e-29
-2.54345e-33
-3.43708e-92
-1.53065e-31
4.5988e-37
7.428e-59
-1.5017e-30
-2.03151e-55
1.03653
1.53862e-35
8.03193e-54
5.12386e-29
5.44942e-199
2.29189e-23
3.78057e-32
1.39207e-259
-7.1912e-214
1.82105e-186
1.74386e-190
4.55281e-07
1.74751e-58
6.84301e-89
-1.58786e-32
6.83173e-98
4.16188e-16
4.23876e-45
5.96021e-37
-3.44235e-139
6.5433e-11
1.92182e-233
-1.47082e-48
-6.7342e-116
4.27613e-19
-7.69795e-30
6.32955e-67
3.41083e-58
8.22455
4.59873e-38
9.53438e-14
8.68315e-68
1.3149e-11
0.565108
-5.64802e-177
-6.01722e-123
2.75422e-234
1.94545e-08
-6.84262e-124
3.13904e-63
0.00743814
-1.13896e-209
-3.93845e-61
5.28952e-32
1.36847e-63
-1.75765e-134
-2.72154e-68
4.24429e-170
-1.22438e-66
-6.65306e-171
-7.09247e-170
-9.71196e-71
3.14535e-35
9.34087e-38
3.85375e-62
1.38443e-08
2.52237e-45
17.5667
2.13864e-37
3.95851e-71
-1.39503e-68
4.22498e-39
5.83257e-52
1.97685e-51
0.626584
-1.50979e-35
1.51308e-54
1.34376e-52
7.91638e-115
-2.21772e-125
7.07303e-31
-1.60187e-238
15.4607
3.55319e-169
-1.46675e-34
2.41464e-22
3.18976e-07
2.51424e-19
4.01057e-30
3.05314e-33
5.38256e-70
1.67906e-19
6.94034e-42
1.21108e-13
2.88644e-52
1.07899e-13
1.34961e-53
-1.56035e-251
8.83507e-53
175.053
3.06708e-13
-8.08274e-95
6.38016e-244
3.68665e-164
1.7373e-86
-1.49125e-55
1.48293e-38
3.04935e-59
1.04107e-185
8.14692e-94
1.6469e-51
8.3616e-97
-4.09336e-105
7.12545e-13
4.78211e-105
1.24071e-43
8.46165e-27
-4.53202e-95
1.04048e-86
4.34417e-28
-1.03837e-260
-9.52123e-90
50.7761
-3.83078e-193
1.30882e-16
5.53615e-23
-6.69189e-88
8.94054e-33
7.7302e-27
2.7236e-55
8.24891e-27
-4.50739e-123
-8.21094e-33
-6.1835e-130
1.30841e-54
5.60104e-29
-1.52087e-31
-9.44355e-123
8.85521e-33
1.71007e-06
1.7906e-45
2.85532e-69
-1.81188e-116
9.24809e-23
6.48557e-07
1.31669e-119
-3.737e-215
1.0586e-53
-4.90585e-228
0.666895
7.24903e-53
1.95347e-12
7.27385e-67
1.45568e-60
12.935
7.88644e-65
0.00153544
7.88045e-40
94.3262
1.33916e-42
-4.588e-75
2.44047e-66
9.97333e-84
0.00392642
0.000368064
3.68723e-173
1.99551e-170
-2.22291e-29
1.00393e-160
0.00334104
1.36367e-28
3.30561e-10
-2.77592e-116
131.923
0.0909621
4.83894e-52
-4.61659e-251
-2.44468e-127
-8.21303e-38
1.05752e-84
-3.9335e-91
-2.12766e-82
1.76091e-38
4.41849e-43
42.6115
1.34503e-07
2.4354e-187
3.09093e-37
4.03437e-25
-3.98917e-28
-1.72009e-72
8.11097e-23
8.82396e-33
-9.43998e-37
1.2917e-133
7.13739e-248
3.25366e-21
3.68466e-18
3.63544e-61
-2.25607e-30
3.02044e-13
1.74865e-72
4.63531e-56
-3.09566e-114
-9.01682e-79
4.89871e-15
-1.09615e-76
5.13177e-26
4.23527e-40
1.492e-48
1.08004e-96
-7.69046e-77
5.52798e-07
6.30283e-69
-5.84617e-73
41.338
8.74144e-49
4.71464e-74
0.00912354
-9.08675e-255
1.85229e-67
3.96731e-60
-1.62413e-85
4.00215e-144
4.29135e-57
1.47108e-261
9.94608e-10
4.01995e-122
-5.10415e-61
1.33357e-21
1.40635e-32
1.30985e-62
2.00123e-65
2.69848e-22
91.216
1.30167e-195
4.53249e-102
4.49008e-73
0.0073981
2.84109e-18
-2.29963e-124
3.15294
-4.76393e-248
-3.52439e-125
185.631
-2.52593e-94
-1.8694e-121
-2.21289e-118
2.34638e-41
-3.81441e-40
-5.05197e-192
-1.15346e-87
6.25521e-25
1.29537e-60
-1.26389e-64
2.83439e-83
-9.64756e-176
-5.38731e-39
2.0186e-06
-3.3894e-67
-1.76755e-31
1.27034e-40
7.06654e-53
1.42918e-10
4.96086e-26
5.12104e-82
-2.38105e-123
0.000449158
5.83515e-35
1.10319e-46
-2.13781e-113
9.98313e-189
-6.72735e-37
4.58584e-11
4.36088e-71
3.15584e-29
1.33607e-69
-6.51426e-81
1.21598e-103
1.37122e-39
148.229
18.5354
2.18829e-38
-5.08725e-65
-9.92118e-105
1.06273e-40
0.0126027
-6.09229e-34
-8.85226e-126
1.05526e-11
6.47683e-08
9.61856
2.32614e-88
90.0229
-2.67496e-191
-1.30654e-79
-1.23363e-187
4.72477e-11
1.71723e-45
82.7354
-6.50098e-130
0.0191534
1.60194e-159
-1.40949e-65
4.95496e-30
-4.17516e-87
2.3987e-12
0.123773
-1.74162e-92
1.21973e-95
1.60004e-67
-2.25996e-90
-5.73744e-94
7.72671e-14
6.28409e-48
7.76283e-65
1.37223e-15
-4.1545e-94
3.72429e-183
-1.29125e-68
1.29814e-162
4.90143e-27
2.39355e-67
3.02547e-09
4.52485e-11
-1.63578e-42
9.16702e-34
5.72347e-38
1.02869e-67
0.0139195
2.21203e-73
-2.0881e-98
1.55722e-232
1.9526e-11
-3.5263e-35
-2.70853e-131
2.18512e-26
-2.01722e-83
4.74567e-34
-1.55548e-37
-8.23554e-33
3.49683e-39
88.2506
1.59379e-37
-2.35965e-41
0.130078
6.47435e-87
2.04493e-07
8.08689e-25
1.87507e-163
7.09839e-72
-7.17291e-104
-4.23361e-71
-9.54035e-244
-5.78086e-118
2.32376e-07
2.21575e-11
-5.45595e-119
204.323
3.28134e-29
-1.30425e-166
6.37063e-12
1.01379e-12
-5.68824e-169
9.40109e-11
1.49205e-22
2.55735e-11
1.34283e-168
-1.02831e-126
-6.23183e-102
-2.12469e-169
-1.38655e-36
29.213
-3.49813e-132
4.85319e-12
-2.32161e-256
2.6275
3.80539e-27
3.13299e-36
-9.22527e-213
-7.63232e-134
-3.76422e-78
8.50934e-41
2.68941e-15
1.30319e-34
-6.90906e-95
-4.58061e-90
-2.88825e-168
1.62236e-28
2.28006e-38
-2.58966e-103
-1.40448e-213
5.62757e-56
5.72904e-35
2.82271e-44
-1.65867e-139
6.64935e-07
3.41869e-29
1.29433e-159
5.84106e-46
7.97236e-91
-2.511e-74
194.835
-1.38374e-95
-6.59141e-165
3.82567e-39
-2.70461e-36
-6.08767e-45
2.79607
-1.18801e-62
6.94466e-76
2.06998e-33
-8.29014e-86
-3.74442e-84
2.33308e-74
1.60621e-85
-5.01307e-29
-3.74595e-75
16.2215
-9.96615e-44
5.33451e-10
-2.81214e-82
0.00659404
1.92837e-31
1.36846e-09
6.3914e-14
3.05286e-34
1.12754e-74
1.53101e-80
1.28013e-58
1.84899e-256
-5.34479e-77
5.18528e-36
3.3122e-13
-2.77255e-86
7.40502e-161
1.221e-36
1.07137e-35
3.7528e-17
1.53985e-39
8.16861e-12
4.58516e-17
-3.86728e-112
2.02325e-50
0.755607
3.36988e-37
1.54808e-246
3.94609e-89
-3.32684e-88
1.10461e-249
1.14407e-51
-6.53911e-193
-1.46416e-75
5.58937e-15
1.03234e-33
2.56674e-06
-3.57583e-189
5.60833e-133
-7.60206e-227
-2.7179e-87
-2.56983e-104
1.45523e-09
-4.74179e-104
1.9929e-133
4.81546e-07
2.66128e-36
1.52732e-48
5.94137e-53
2.11116e-17
5.20344e-95
3.83729e-12
2.2476e-81
3.37794e-185
0.00202385
1.02425e-42
1.88002e-20
-1.87414e-99
54.6835
-6.32414e-40
3.15111e-45
5.14972e-35
2.3452e-30
39.7383
9.99927e-79
3.20283e-12
9.39984e-49
5.32414e-47
3.39873e-141
2.86313e-66
1.45394e-07
2.57531e-78
4.94804e-09
-6.57914e-93
-5.56914e-97
8.10129e-13
3.46728e-151
-4.61063e-123
3.50744e-77
1.97004e-41
3.47727e-11
-4.80031e-94
1.36936e-88
-1.10133e-228
2.63437e-47
0.00234852
1.81943e-42
-2.32523e-88
-2.71717e-63
3.03783e-96
-4.59139e-129
13.8445
-2.13626e-47
5.80118e-217
3.63284e-49
1.3967e-97
-1.12741e-38
-1.14158e-27
1.00776e-45
1.25714e-86
9.96811e-15
3.04902e-11
-9.2942e-218
2.26935e-61
1.17922e-11
-5.91705e-132
1.84724e-194
-2.0198e-65
5.14068e-51
2.66037e-80
7.11095e-193
1.47712e-51
1.97164e-12
-1.81024e-168
2.60887e-23
7.04625e-194
-4.70551e-103
1.46118e-55
4.83344e-05
-2.31752e-235
2.09734
-3.58782e-46
9.30539e-22
40.978
-2.331e-42
7.09569e-58
0.0364418
-5.60435e-87
1.58539e-05
5.04009e-19
-4.42934e-65
-3.03867e-78
-9.96376e-80
-6.49677e-98
-6.8445e-103
4.33835e-22
0.028059
196.046
9.98466e-26
-4.65353e-29
0.0185386
4.90543e-28
13.2267
2.58326e-145
-2.99871e-96
7.16193e-19
2.17993e-43
-1.68099e-118
1.12605e-25
-6.87162e-82
34.8761
-2.71302e-246
-6.05809e-132
1.82495e-139
206.136
-1.48194e-36
1.74991e-44
-2.69301e-77
4.01948e-19
-6.82122e-83
-1.23479e-135
3.22908e-07
-1.32747e-80
3.05031e-07
3.91402e-22
9.2327e-69
2.20221e-14
3.79092e-43
-1.76722e-96
-1.91052e-130
-1.83645e-127
0.223787
1.9467e-13
-5.95529e-107
6.55414e-18
7.05098e-49
5.3033e-25
4.27309e-234
3.18657e-47
1.94756e-07
2.69469e-10
-4.21387e-41
-2.79093e-67
2.15938e-131
4.17365e-16
8.09447e-84
5.5036e-135
3.55483e-10
6.17407e-17
-1.94031e-108
1.07469e-30
3.78534e-43
-1.06178e-228
-6.71533e-120
-3.81669e-195
-4.15812e-40
87.8604
1.85834e-11
1.20967e-19
-4.25317e-113
1.6556e-82
6.51647e-42
-2.03106e-220
3.19068e-09
6.4166e-44
89.1683
-8.80045e-28
9.03349e-73
-1.0915e-109
1.35887e-144
3.24254e-79
-7.43714e-85
-6.69539e-117
13.9345
2.4029e-15
3.57889e-36
4.10481e-17
-1.42135e-42
-9.00317e-131
-5.99307e-256
-7.3439e-117
3.21905e-26
0.906842
-6.54768e-22
2.96001e-45
-1.23271e-48
-1.76102e-74
6.9845e-16
0.0357676
0.0259614
6.48766e-85
-2.7675e-69
8.1703e-29
3.13013e-98
3.02069e-188
-6.27212e-118
4.91973e-14
-1.56287e-105
6.78986e-60
-1.38825e-92
9.32429e-41
3.0724e-08
1.92251e-98
-1.37273e-117
2.03408e-10
4.31838e-15
1.23892e-93
1.03681e-139
-6.72848e-50
0.000440756
8.99859e-26
1.10916e-22
-1.9369e-52
1.36798e-58
0.059827
7.42211e-81
-5.63202e-22
-9.30059e-129
1.47262e-12
9.41703e-12
-9.32222e-172
6.92729e-141
92.2655
7.08614e-120
1.17428e-73
8.03562e-28
-1.73243e-109
-5.71869e-107
-1.04583e-93
2.39452e-121
-1.21948e-226
3.7179e-18
1.60307e-05
4.18193e-143
0.0188058
-5.44991e-84
-3.63384e-122
1.19134e-12
4.17576e-09
9.55365e-27
-2.03817e-85
-1.58784e-117
-7.73745e-45
150.676
-3.82768e-105
1.00419e-143
-2.85836e-151
-3.18435e-105
1.25186e-59
7.64704e-29
-3.66595e-108
3.21286e-78
-2.38094e-125
7.12595
7.20248e-09
3.96991e-41
-7.33486e-39
-1.64574e-82
-4.17454e-122
4.84258e-16
1.33575
-4.31673e-73
3.10079e-149
-1.10181e-123
1.12127e-13
-1.23062e-108
-1.38671e-130
1.66191e-08
-3.51465e-86
1.34888e-118
114.035
3.63516e-06
9.7574
1.05491e-15
-4.74499e-108
1.29112e-12
1.88286e-10
0.164649
2.58186e-95
9.41029e-29
-1.15426e-223
0.109856
-5.99845e-251
-3.00802e-97
1.2733e-82
-2.84267e-149
3.32925e-41
2.50623e-93
-1.93556e-106
8.23011e-97
7.2925
3.39754e-14
7.51084e-38
-1.72743e-116
2.33822e-29
18.0719
7.23898e-09
3.42889e-43
-3.63231e-51
-5.02278e-98
7.30828e-85
4.87314e-145
-1.06675e-110
1.75188e-141
-4.35565e-119
-1.48115e-43
6.34829e-15
1.25433e-16
0.313892
0.000110535
1.23892e-08
2.53004e-24
0.117274
-2.68786e-132
3.89161e-05
-4.41701e-124
0.00168075
3.39625e-09
1.43089e-35
-4.33193e-107
4.49762e-35
5.31116e-23
1.17726e-64
82.5067
1.48861e-12
0.364718
-1.24438e-120
9.4782e-10
3.10654e-07
6.0024e-10
1.55955e-07
7.75882e-11
-6.30492e-118
-2.05082e-96
1.29183e-40
-1.13155e-111
8.88546e-29
-9.14432e-101
3.0969e-38
5.94932e-173
-3.64272e-91
4.43891e-21
2.17065e-31
2.43872e-136
-2.31357e-47
0.939957
89.3148
-4.73613e-150
1.42324e-49
5.44181e-76
1.07341e-10
1.03562e-29
4.99017
4.12343e-05
1.57636e-97
1.47623e-39
2.42639e-07
-4.43528e-24
5.92758e-06
3.11846e-54
8.04987e-12
7.41763e-138
0.190285
1.06865e-08
-2.14304e-139
1.29371e-07
0.153134
1.14582e-45
4.2036
-2.0058e-86
7.57373e-09
1.00131e-78
-4.01523e-155
4.99813e-74
-1.77789e-81
0.0821856
0.000213482
0.0396172
-1.91311e-137
7.25776
2.76618e-36
6.58217e-13
-1.2232e-31
1.944e-41
2.87999e-50
0.0195995
-6.78735e-85
1.00468e-95
4.28933e-20
3.77636e-09
2.29863e-28
3.13436e-18
-1.1508e-57
0.0488363
1.19625e-29
5.66923e-29
2.17605e-09
2.64792e-172
8.45857e-08
5.4936e-11
4.72364e-08
-4.93139e-77
0.000945833
1.1114e-143
1.50327e-29
2.52623e-42
8.18666e-06
5.7954e-72
4.57483e-21
1.49729e-08
76.9213
3.82439e-106
3.49385e-36
-1.54065e-47
3.97386e-09
8.65989e-19
-2.97144e-96
5.6767e-38
3.47428e-146
13.6841
9.14363e-231
1.74991e-145
-1.12512e-193
8.9535e-07
8.1439e-117
1.9676e-37
5.6894
2.26047e-52
2.1886e-58
-3.0866e-111
1.3747e-182
1.02567e-09
2.43912e-148
-2.64593e-41
3.36689e-12
-4.51467e-46
2.95055e-06
4.00839e-92
8.65823e-37
1.33889e-07
1.49217e-18
-5.04451e-71
87.4464
9.06096e-235
1.56541e-177
-6.7009e-88
224.695
6.76774e-78
6.79096e-72
8.31182e-08
-3.06071e-107
1.66435e-90
1.2152e-13
8.84387e-06
2.90541e-31
0.00904162
-2.63063e-107
-1.30144e-87
1.41725e-41
9.08001e-47
7.46327e-06
-1.16175e-125
6.22727e-68
-5.049e-55
-1.59736e-17
1.47773e-60
6.91111e-138
1.52624e-39
-6.83229e-19
-8.40481e-203
-1.3692e-200
4.2031e-05
7.49394e-31
7.99077e-05
-1.23141e-89
-8.94122e-247
-1.0264e-17
1.11351e-06
-2.61847e-130
-1.25222e-103
2.40819e-145
15.3127
-1.18325e-202
2.05625e-32
7.29533e-05
-1.53539e-195
5.80107e-181
8.7627e-19
-9.70887e-159
-2.18534e-199
4.68765e-40
2.89104e-13
-3.5416e-141
1.14733e-21
-2.7697e-151
9.34541e-08
-6.40571e-248
1.24971e-07
4.87001e-13
1.85381e-20
-2.32005e-195
4.67821e-15
5.27393
1.53837e-98
3.39876e-48
1.96481e-159
1.41611e-13
4.90184e-152
8.32346e-07
2.45786e-09
-5.26081e-84
3.23042e-189
1.37723e-13
5.3876e-14
4.47847e-46
4.93862e-44
2.07886e-16
-7.32837e-157
1.39562e-15
6.92983e-191
1.37453e-05
1.0894e-08
9.60578e-09
7.75768e-20
-4.28081e-23
11.8589
8.73921e-21
1.11576e-42
1.32659e-14
-2.855e-100
3.98733e-12
2.62682e-16
-9.34536e-44
2.70083e-78
0.0949929
-2.35871e-208
0.045572
104.619
-1.75634e-111
2.21914e-08
80.8028
9.36244e-35
2.82603e-40
2.39498e-16
-1.02085e-53
5.78239e-144
6.36668e-08
0.0129191
0.757679
-7.7003e-100
2.81717e-15
0.000414578
3.12226e-14
-3.81466e-119
1.46727e-174
1.65271e-31
0.0219747
7.03753e-09
2.44236e-16
-3.22361e-237
-2.36937e-153
1.59283e-14
-1.37966e-106
1.0603e-42
-3.4123e-102
4.28801e-186
2.31956e-07
1.87842e-85
0.000174965
2.7573e-45
3.88035e-166
2.16311e-174
4.11689e-15
-3.32016e-101
5.15889e-34
4.39366e-16
0.759337
-6.23508e-50
-2.37325e-138
2.32034e-06
-1.66172e-95
1.34704e-147
1.20031e-66
7.55032e-14
-3.97717e-98
6.43171e-14
1.11205e-44
218.299
9.49384e-15
-1.22835e-129
8.94326e-05
-3.07071e-192
4.74508e-09
9.44505e-37
6.76358e-06
0.00469748
-4.87436e-45
0.000150223
1.75469e-164
9.42554e-09
-5.17334e-122
9.28227e-51
3.21449e-05
1.95664e-27
1.22188e-05
0.0163615
-8.55572e-20
1.11558e-07
2.4223e-06
-2.6252e-135
5.44836e-150
-9.77387e-191
0.0001907
-2.80356e-24
-1.33924e-133
1.63888e-07
1.62483e-05
4.30323e-37
4.15414e-13
3.93843e-53
-4.47204e-34
0.00258416
-2.8492e-71
5.69761e-29
3.4094e-33
5.88788e-224
-5.59483e-222
-4.96048e-135
-9.03972e-100
7.44199e-45
1.28726e-167
-4.68217e-85
-1.99014e-105
-9.6477e-64
4.61736e-18
-1.55544e-117
1.2793e-06
-1.51432e-249
1.63996e-11
3.79475e-06
-8.81222e-129
5.41574e-05
1.64073e-12
5.88221e-06
1.37063e-59
1.07003e-16
-5.93722e-109
3.24587e-37
1.85376e-47
5.05567e-176
-1.65163e-121
-3.46885e-91
-3.28389e-127
4.33464e-196
8.16365e-55
9.04561e-198
-9.29158e-31
4.96884e-23
0.0641048
2.44614e-169
3.7975e-62
5.65792e-166
-1.22227e-105
1.18738e-21
4.7175e-64
-3.82886e-131
122.933
2.07734e-14
6.24378e-31
1.6179e-59
3.6799e-15
1.25352e-23
7.41313e-64
5.22035e-18
1.65871e-13
8.73222e-105
1.42948e-192
-7.68689e-82
1.49134e-07
-1.48386e-149
-2.04987e-135
8.39985e-14
-3.87236e-112
-5.98223e-107
2.72916e-74
-2.71286e-139
0.00108049
1.13239e-167
-5.08564e-137
2.54199e-20
2.56845e-18
5.98903
2.76878e-13
-6.29066e-58
-2.5958e-130
6.61098e-17
-6.6702e-132
1.05798e-26
1.88504e-48
-2.14628e-105
5.37519e-06
-4.49075e-198
9.7367e-22
2.27578e-53
6.40698e-15
-6.37278e-43
1.46439e-201
-2.6367e-106
1.71614e-247
7.78194e-25
-8.47751e-152
5.26456e-19
5.35558e-43
-1.11217e-89
-2.48673e-56
1.90349e-38
2.89824e-194
2.84846e-21
9.72604e-22
-1.14366e-100
5.40429e-20
1.09136e-07
2.89052e-184
1.33924e-38
1.82378e-11
3.03298e-13
5.5087e-75
2.15175e-41
4.3747e-40
2.18531e-45
3.28978e-72
5.58452e-15
-9.98093e-73
9.38961e-130
1.23625e-130
0.0456125
1.82769e-08
7.21936e-05
1.6063e-06
-3.33977e-35
1.56924e-20
3.76842e-43
5.1799e-19
1.3702e-129
3.11694
-9.63489e-106
2.89248e-06
4.12676e-08
-1.90979e-133
-1.87827e-25
8.24605e-09
5.74114e-06
2.70805e-41
1.81591e-26
3.67456e-131
-2.97056e-216
5.16121e-15
1.44794e-192
2.58893e-171
2.75481e-17
-6.23972e-107
-5.96306e-66
-1.18803e-136
-1.14044e-87
5.21096e-15
11.3242
4.90846e-102
-1.08657e-109
1.46549e-08
-5.30379e-38
4.63795e-11
1.07491e-24
6.23033e-26
-2.03842e-108
1.06995e-37
1.32777e-16
5.18731e-17
-2.78295e-30
1.65621e-155
8.87342e-07
7.82919e-31
2.06268e-19
-1.2254e-83
-2.02224e-135
1.10789e-16
6.99694e-100
-4.05929e-187
8.61002e-23
1.83134e-08
-4.81239e-170
2.50702e-21
3.72528e-46
-3.29315e-116
-5.39359e-75
-1.73666e-115
8.28443e-23
-7.56021e-129
-4.22822e-137
1.15366e-43
3.07961e-23
-4.89783e-40
-2.62687e-30
9.97615
2.47538e-107
7.18107e-61
0.355275
5.32943e-33
-6.51298e-117
5.26085e-32
0.00283622
6.78819e-176
-6.27974e-110
1.46651e-187
6.06438e-26
1.18912e-14
7.66652e-47
1.73908e-199
-9.88234e-79
3.92162e-65
7.53648e-91
1.81634e-09
-4.98375e-103
2.60384e-199
2.22695e-194
3.97107e-28
5.56255e-42
1.66312e-05
-4.60717e-82
-1.2697e-48
2.62338e-30
4.04681e-15
7.29234e-149
3.70064e-24
3.44086e-179
3.50778e-171
-9.51548e-200
6.13658e-10
1.46453e-111
3.18257e-24
8.87571e-23
1.2895e-26
3.03351e-16
1.37527e-27
1.38144e-13
7.14702e-26
6.90843e-102
1.01512e-28
-5.87691e-48
8.95881e-35
2.07136e-21
-9.83417e-109
40.1256
4.98344e-17
3.29957e-19
1.22575e-170
1.42784
1.09291e-15
1.85655e-17
-1.61569e-31
3.60882e-07
1.40665e-63
-3.42798e-104
-3.21299e-89
3.70829e-92
9.12379e-87
3.11372e-18
7.17949e-22
2.33902e-116
2.91242e-25
2.31679e-92
9.78355e-87
3.35348e-52
-3.1055e-46
-5.13759e-72
4.71065e-56
-5.73899e-45
5.62135e-25
5.24034e-26
3.6757e-48
3.14307e-188
-1.1065e-89
-9.82243e-101
5.9931e-11
2.26743e-150
1.29081e-113
1.39965e-25
1.50891
-3.56788e-128
2.58786e-05
-2.28103e-133
1.94363e-100
2.00131e-41
2.89354e-29
3.58476e-34
1.0721e-146
2.69165e-19
6.78039e-22
1.52789e-11
1.63095e-169
6.19908e-25
9.40063e-42
9.32599e-55
-3.05459e-198
-8.57276e-237
6.68309e-28
1.00137e-41
9.02318e-61
53.6211
2.56537e-23
1.46094e-32
-5.08309e-25
1.87866e-44
3.19517e-11
2.5668e-106
1.48765e-47
-5.60238e-76
-3.21156e-88
0.00847816
1.73013e-23
6.95999e-22
5.73382e-36
-4.49122e-142
3.18997e-18
1.33366e-17
6.20826e-05
-9.32973e-87
1.14368e-32
0.000174141
7.51791e-05
-2.86067e-135
5.52414e-05
1.94825e-51
23.1152
2.02336e-184
8.07767e-25
1.38838e-36
1.91384e-206
3.89175e-15
8.28468e-66
1.157e-79
1.69576e-09
0.00112778
1.64674e-05
8.65424e-78
6.36967e-27
-1.88083e-184
-3.30156e-101
4.15748e-06
7.25169e-31
1.96736e-78
1.12598e-18
2.29026e-23
5.10473e-28
3.92459e-40
1.15466e-37
8.15318e-23
0.00273489
7.27744e-141
1.45321e-39
1.83585e-47
4.88223e-28
2.09365e-07
1.27281e-23
8.11797e-33
9.36772e-67
1.0045e-187
1.1835e-26
2.01493e-31
1.51854e-21
-1.31349e-145
2.36177e-57
6.09915e-25
8.84426e-25
-2.89465e-24
1.94191e-20
4.90776e-73
8.07584e-30
1.64248e-112
4.30217e-14
2.19224e-53
6.40172e-26
2.38639e-63
1.81741e-76
1.55197e-23
3.75704e-58
1.10521e-66
-1.00471e-81
2.35053e-142
3.0085e-30
1.80805e-51
8.17299e-55
15.2618
0.00993322
-2.21659e-112
5.91595e-80
1.71896e-38
4.8563e-41
8.43835e-200
2.68402e-30
-2.10843e-36
1.57131e-30
-1.36223e-185
1.0768e-13
3.34788e-19
5.85621e-16
3.41793e-30
6.91181e-171
-4.95323e-95
3.33758e-62
1.6728e-29
5.8833e-09
15.3909
-1.40987e-137
1.10926e-67
-8.3463e-73
3.83448e-07
0.000469557
2.90094e-05
3.64328e-52
3.50917e-22
-7.22858e-184
9.41142e-39
-1.25813e-52
-5.45513e-136
5.3193e-23
1.31343e-40
3.35248e-35
5.83347e-21
-2.76369e-72
1.57882e-41
4.34825e-32
1.21053e-171
-3.13569e-258
2.71528e-43
-3.53564e-66
2.0914e-08
2.85956e-48
-4.75911e-23
1.61818e-13
-2.78869e-41
-2.39593e-137
-2.91389e-59
7.64857e-20
8.48497e-142
0.211537
0.0439214
-1.30471e-114
2.78233e-179
6.57522e-105
8.97805e-141
8.10955e-209
1.07354e-61
1.35321e-66
-9.48592e-33
3.1644e-40
4.45861e-31
-9.1744e-49
1.71771e-05
4.29806e-20
2.59133e-32
7.99423e-41
1.91636e-51
2.24529e-35
1.58519e-171
-1.78153e-74
4.13884e-68
-5.40933e-32
-3.61728e-26
1.43571e-09
2.53742e-211
-4.48388e-27
8.47456e-38
1.75437e-49
6.96632e-23
-1.70962e-40
6.92215e-25
0.00330689
2.704e-38
1.91154e-18
2.65292e-50
-7.0049e-90
9.73683e-41
7.01148e-35
-7.79367e-143
2.15291e-42
0.0240925
-2.6096e-78
0.000197142
4.72716e-136
1.77562e-34
-1.17928e-91
2.82985e-74
2.01588e-30
-6.09919e-21
3.60408e-22
-4.73251e-72
1.43309e-44
7.75581e-50
4.0326e-18
3.02994e-13
-3.15981e-46
5.1871e-09
2.69982e-207
3.03098e-40
7.23651
1.21457e-14
-2.50674e-72
0.355929
7.20332e-20
3.15224e-68
7.88867e-159
8.63449e-11
3.47965e-35
3.52299e-51
1.44997e-36
6.73484e-153
9.33052e-22
-4.2868e-80
2.32723e-14
1.1413e-36
3.12833e-32
-2.72434e-30
-3.60939e-253
-1.02058e-103
4.82424e-49
-3.33124e-87
-6.64827e-90
7.22061e-57
4.30936e-76
1.41942e-63
-3.75704e-25
3.71274e-28
-1.17027e-196
4.44421e-16
-4.42921e-102
9.05916e-171
-7.955e-28
-9.91869e-130
5.77515e-50
3.95871e-51
-1.4941e-144
-2.1248e-140
6.07447e-85
2.84516e-25
2.38302e-62
9.44898e-33
2.02914e-36
-8.03869e-27
6.99161e-26
6.70412e-52
1.20019e-43
6.20848e-39
-1.43011e-224
8.47525e-58
-1.44742e-77
1.25299e-52
0.202195
1.30626e-27
-1.75941e-71
1.84081e-42
-1.27672e-64
1.1789e-67
-7.04604e-74
1.25494e-63
8.16739e-69
-7.9622e-33
1.98376e-38
2.52919e-172
1.99882e-26
-4.37825e-50
1.51958e-24
3.69019e-159
-2.19566e-28
3.86142e-05
-4.16061e-98
-1.8154e-40
8.38703e-19
3.07318e-119
7.73505e-27
7.80234e-14
1.10122e-37
-4.53634e-38
5.32325e-15
4.51353e-43
-3.10307e-51
3.08115e-41
2.13795e-25
1.84473e-126
5.42328e-74
9.29231e-216
-1.35787e-101
1.8931e-160
4.01604e-42
3.27177e-39
8.57118e-27
-1.03198e-44
13.5369
-9.865e-21
30.28
4.87458e-37
3.79955e-10
9.51264
2.38922e-16
22.6637
7.09581e-72
2.85968e-43
5.63038e-49
2.90394e-54
3.1599e-46
3.46012e-103
5.6687e-48
5.56265e-93
8.6149e-161
-1.47264e-52
3.53107
3.08749e-44
1.78112e-23
9.11323e-47
4.00186e-86
6.58218e-39
3.60408e-39
-1.16569e-109
5.42447e-45
6.4195e-83
1.00969e-24
2.50783e-40
5.2818e-42
-6.11662e-43
0.237589
1.88217e-08
1.84063e-22
9.57905e-52
68.8169
8.38039e-46
-1.15109e-55
5.06787e-29
-1.38348e-29
-6.92158e-60
3.0355e-17
2.66491e-139
-1.34498e-37
-6.58252e-28
1.33242e-43
-3.91801e-45
5.9205e-76
3.17429e-41
-2.27972e-34
4.06038e-70
1.38905e-28
4.02189e-49
6.40753e-63
1.95711e-137
5.00588e-55
5.35098e-40
1.09548e-81
1.1666e-50
8.78057e-63
-1.26779e-103
-5.64349e-34
-1.39957e-81
4.18504e-16
5.51076e-47
-4.07918e-65
-1.26947e-145
-2.09802e-100
5.68232e-16
5.63173e-41
-2.55024e-203
5.30344e-46
7.22208
3.3938e-24
1.58762e-77
5.6281e-51
0.0850451
0.678121
35.7139
8.22302e-89
1.46854e-90
-4.64911e-107
4.59871e-62
4.51882e-30
0.00140903
0.0171359
3.61547e-13
8.0197e-21
1.25501e-76
1.06802e-155
1.01752e-152
-9.39827e-28
-2.07317e-76
1.0123e-25
-1.8411e-91
3.23089e-06
-2.57697e-88
3.28941e-44
2.64113e-12
-1.73316e-42
1.5158e-21
-1.16374e-112
3.78748e-43
1.71005e-169
1.66319e-18
2.85237e-21
5.83274e-69
7.8914e-162
5.30258e-69
-9.83386e-26
2.18643e-105
-1.92243e-45
0.0802893
1.59276e-179
1.19505e-67
-8.62949e-39
-2.84865e-39
1.82106e-48
7.19121e-119
-2.8436e-105
3.09391e-104
-6.17841e-204
-4.18948e-153
5.91515e-64
1.09147e-28
5.01842e-170
9.74378e-75
5.39596e-115
149.591
-1.25461e-28
8.16291e-103
4.08796e-213
1.24427e-24
2.45337e-45
1.86037e-21
-2.61956e-47
2.01847e-45
1.23964e-163
-3.11843e-102
3.15973e-17
-8.20952e-226
2.15337e-46
6.10953e-29
3.7302e-52
1.07758e-147
1.46981e-40
-6.84506e-199
5.42225e-61
2.24341e-63
8.3569e-104
1.60613e-08
1.04519e-55
6.25083e-67
2.34117e-64
-2.90112e-39
-1.50793e-50
-1.18859e-176
9.83325e-210
5.40859e-83