/*--------------------------------*- C++ -*----------------------------------*\
  =========                 |
  \\      /  F ield         | OpenFOAM: The Open Source CFD Toolbox
   \\    /   O peration     | Website:  https://openfoam.org
    \\  /    A nd           | Version:  7
     \\/     M anipulation  |
\*---------------------------------------------------------------------------*/
FoamFile
{
    version     2.0;
    format      ascii;
    class       volScalarField;
    location    "0.466";
    object      p;
}
// * * * * * * * * * * * * * * * * * * * * * * * * * * * * * * * * * * * * * //

dimensions      [0 2 -2 0 0 0 0];

internalField   nonuniform List<scalar> 
12359
(
0.0661076
0.0754802
0.0504249
0.108274
0.0696261
0.15598
0.186596
0.167733
0.227212
0.143822
0.208743
0.277742
0.488156
0.115552
0.102915
0.393562
0.449116
0.0546104
0.0542664
0.0878149
0.123541
0.251082
0.0813396
0.0933899
0.0780981
0.0846016
0.0514702
0.0513738
0.0535805
0.0519461
0.0523044
0.0508881
0.0505725
0.0517133
0.0504559
0.0525016
0.0596492
0.0644892
0.0681297
0.0620076
0.0733385
0.0630955
0.0572912
0.0564759
0.0529865
0.0532086
0.0527602
0.0521419
0.0538761
0.0515992
0.0512647
0.0511231
0.0508024
0.0549704
0.0507294
0.0506112
0.0560293
0.050561
0.0505574
0.0505024
0.0506506
0.0504501
0.0511231
0.509518
0.0554672
0.132553
0.058897
0.0510344
0.06031
0.347092
0.529629
0.0711831
0.0504163
0.0610073
0.0982231
0.0504526
0.0507767
0.0504355
0.0580852
0.316166
0.124488
0.0459868
0.049547
0.0512102
-0.0603277
0.024725
0.0457908
0.0482459
-0.0653268
-0.0543166
0.0502189
0.467998
0.0501928
0.0500543
0.0499643
0.00696395
0.0495728
0.0501854
0.0587578
0.0551025
0.107633
0.0503195
0.0253764
-0.126588
0.0448142
0.0138247
0.0492735
-0.058655
0.0290554
0.0138259
0.0494909
0.0460741
0.109687
0.0923997
0.050295
0.0471137
0.094139
0.0449832
-0.0683385
0.0495843
0.0496336
0.175683
0.0481737
0.00554983
0.0448037
0.0464529
0.0373727
0.0510778
0.050428
0.0446758
0.0473295
-0.00245345
-0.00340976
-0.00233431
0.0493358
0.00715035
0.0470154
0.00698111
0.0503503
0.0381157
0.0497195
0.0676008
0.0151316
0.0493159
0.00900934
0.148264
0.0495523
-0.0476351
0.044774
0.126428
0.00175533
0.0503329
0.0151829
0.0480363
0.0501258
-0.17351
0.109111
-0.00179785
0.049612
0.0509735
0.0461651
0.0510337
0.00384676
0.0121177
0.0495213
0.0465451
0.047158
0.173766
0.0139299
-0.0687261
0.0504307
0.0504438
0.012779
0.0782852
0.0449059
0.0416109
0.0535889
0.0533841
0.110915
0.0423754
0.116494
0.0501051
0.050432
0.0456564
0.0573023
0.20774
0.0451033
0.049351
0.00360847
0.0447993
0.0496875
0.00688024
0.00976531
0.047963
0.0127313
-0.134671
0.033543
0.0458896
0.0158064
0.0451178
0.150941
0.00297599
0.0566641
0.0137604
0.0121758
0.0500836
0.0113799
0.0572756
0.00216287
0.0438752
0.0498463
0.000338384
0.00025807
-0.553226
0.196685
0.0503504
0.0454884
0.0503719
0.0453461
0.0682464
0.101592
0.0439375
0.00562716
0.471934
0.044445
0.0498213
0.0687283
0.0288309
0.0463154
0.0467057
0.0464242
0.0495321
0.00987613
0.0569255
0.0488446
0.055879
0.0495778
0.0149741
0.048896
0.304844
0.0494724
0.0225021
0.049216
0.05495
0.0448365
-0.0471987
0.050516
0.00160688
0.0456287
0.0100329
0.00185478
0.0638529
0.0529923
0.0470145
0.315351
-0.610834
0.0495896
0.0439404
0.398553
-0.030836
0.0560567
0.0460915
0.0457002
0.0125608
0.0765724
-0.492348
-0.0619033
0.043924
0.0441421
0.00723834
0.0128436
0.0610868
0.0140277
0.0471403
0.0439222
0.0494964
0.0439765
-0.121103
0.0430557
0.0492198
0.0503108
0.0122735
0.0415268
0.0589379
0.0233469
0.049646
0.0474906
0.0503251
0.0503113
0.0509196
0.00379269
0.0455688
-0.489748
0.0493146
0.0492616
0.0255912
0.0457051
0.101727
0.0503423
0.0513025
0.0502331
-0.110133
0.0451699
0.050237
0.0457393
0.0499658
0.0454401
0.0470209
0.0470149
0.0454773
0.0545503
0.202437
0.0452896
0.0523906
0.0644872
0.0228349
-0.049765
0.0451017
0.0594581
0.371399
0.0503
0.0196234
0.0491521
0.0338435
0.0492989
0.0447013
0.222288
0.0188358
0.205676
0.0585303
0.0488831
0.00978176
0.00409627
0.0488681
0.00994867
0.00953721
0.0489385
0.050705
0.0506978
0.050756
0.0507366
0.300759
0.0496261
0.105913
0.00105569
0.0563583
0.0136726
0.0187858
0.0262066
0.03454
0.0180833
0.0352557
0.0582668
0.0206276
0.0217641
0.0933282
0.0684948
0.0147335
0.0664679
0.0664758
0.0165681
0.104304
0.0464557
0.0507667
0.0321962
0.0507385
0.0461252
-0.203345
0.496892
0.0463314
0.0503784
0.0493669
0.0500024
0.0177978
0.0501301
0.0501137
-0.0739587
0.0127705
-0.0511228
0.0482938
0.0103169
0.0417963
0.0494621
0.0161283
0.0319402
0.11157
0.0322472
0.0466881
0.0491597
0.0121254
0.0100135
0.0439793
0.294446
0.0159198
0.00546153
0.0506276
0.0471901
0.0503646
0.390166
0.0128164
0.0483335
0.0623122
0.0657204
0.0497328
0.0497044
0.0499419
-0.0597645
0.0976844
0.0603256
0.0185218
0.00124386
0.050203
0.116435
0.0503358
8.89347e-06
-0.054422
0.295409
0.0554174
0.0929985
0.0290935
0.0230666
0.0366803
0.0317948
0.0520138
0.0365312
0.0154999
0.0501327
-0.0326679
0.0594653
-0.0046445
0.00849288
0.0563457
0.0968789
-0.15452
0.0175884
0.0404667
0.00475182
0.00845339
0.0194625
0.0450284
0.0498803
0.0523857
0.0493219
-0.002587
0.0471639
0.0846635
0.0861511
0.0381034
-0.0564035
0.105276
0.0549397
0.0487351
0.389338
0.0489979
0.0482741
0.0059301
0.0503782
0.0485757
0.0482521
0.2423
0.209295
0.0507371
0.0485562
0.109221
0.0487441
0.0188133
0.0153156
0.0134398
0.0489361
0.0499817
0.0480176
0.0502484
0.085373
0.0193751
0.0219027
0.0532015
0.0518681
0.00355076
0.0521007
0.0479433
0.0437572
0.121734
0.00511384
0.0503322
0.048083
0.0117287
0.031423
0.0494211
0.0468105
0.112842
0.0175444
0.00730903
0.0211041
0.0488256
0.0480471
-0.00513313
-0.00359677
0.0502395
0.037649
0.0489792
0.00454376
0.284068
0.0499239
0.0473615
0.0489653
0.0147316
0.0547377
0.0538714
0.0467307
0.0497847
0.0306511
0.0768108
0.039579
-0.035535
0.0492319
-0.0412196
0.0482761
-0.122765
0.0173571
-0.00230372
0.0505311
0.052987
0.0221807
0.0457094
0.051204
0.0576261
0.055236
0.0553647
0.0708224
0.0144456
0.0139367
0.0495637
0.0453601
0.0190712
-0.00313522
0.0495657
0.0492132
0.0119518
0.0489476
0.22629
-0.157867
-0.0699615
0.0495661
0.0424278
0.00153483
0.0543549
0.0453277
0.453571
0.0492744
0.115967
0.0891459
0.0422379
0.0455163
0.0513781
0.0385087
0.000556396
0.0309917
0.0526579
0.049593
0.0504284
0.054608
0.0536187
0.0556592
0.0143097
0.0509649
0.0492481
0.0209116
-0.0504047
0.0523099
0.00011382
0.0493963
0.0531629
0.0949201
0.00100213
0.00199745
0.0974393
0.0468254
0.00121662
0.0497679
0.0504964
0.00172086
0.0379904
0.0463044
0.037835
0.0500482
0.0492043
0.0459997
0.0500099
0.00179065
0.104151
0.0598895
0.118858
0.0156081
0.0403607
0.113865
0.063368
-0.00361766
0.01354
0.0646311
0.0549209
0.0504967
0.0364709
0.0211882
0.0495563
0.0503905
0.0489451
0.0505347
-0.0155286
0.0381221
0.0347117
0.105879
0.0578445
0.23818
0.00433019
0.00191933
0.0457527
-0.000921645
0.050036
0.0508583
0.0491144
0.103609
0.114577
0.047246
0.0310342
0.235326
0.0155761
0.00592216
0.0393608
0.0639093
-0.131465
0.0486038
0.0514776
0.0500684
-0.00977158
0.051356
0.0319065
-0.0556335
0.0492584
0.0782887
0.0573323
0.0422211
0.0524644
0.0474447
0.0508114
0.0542903
0.0508642
0.0507443
0.0537894
0.00589743
0.0100649
0.0421855
0.340139
0.000982677
0.409022
0.0171825
0.0239643
0.0542422
0.0183518
0.0571044
0.00808463
0.31505
0.099106
0.056675
0.0443982
0.0548838
0.0535376
0.0218257
0.0498788
-0.00448936
0.0508921
0.100035
0.0480585
-0.0133215
0.00809116
0.0114436
0.0565252
0.0398914
0.00885977
0.0778815
0.00563692
0.0410867
0.0034669
0.0437638
0.0496045
0.050619
-0.22894
0.0718703
0.0428052
0.0495089
0.0510451
0.0551879
0.0837766
0.0100139
0.0161469
0.048963
0.0443851
0.0558627
0.0427047
0.0402128
0.00252068
0.0563327
0.0576201
0.00914298
0.0441777
0.0411361
0.104977
0.0495628
0.0564211
-0.27233
0.0505353
0.00767055
0.0507743
0.0414931
0.0897705
0.00981408
0.0515124
0.0195004
0.0500808
0.111307
0.0445982
0.010472
0.0112407
0.112405
0.0499484
0.00092362
-0.0050463
0.0567962
0.0431752
0.0450532
0.0354579
0.245492
0.0542804
0.0503661
0.0555101
0.0501516
-0.130431
0.0424924
0.00988785
0.0321798
0.0154591
0.524027
0.0427486
-0.0575592
0.0104083
-0.0644466
0.0183753
0.0525547
0.0426694
0.0317628
-0.0479107
-0.0361672
0.0484662
0.0485826
0.119671
0.0478224
0.211146
0.0205027
0.070097
0.0453245
0.407722
-0.10845
0.0430681
0.0496106
0.0497717
0.0940157
0.0552363
0.0601024
0.0526334
0.0149669
0.0776331
-0.0138203
0.35615
0.0489542
0.0828069
0.0146146
0.119232
0.0445622
0.115623
0.00769605
0.0951413
0.0528232
0.0495102
0.00964671
0.00709312
0.0170454
0.118015
0.0125504
0.0239042
0.0519149
0.0491882
0.0391296
0.2489
0.0392977
0.0120934
0.0671877
0.0198951
0.0375511
0.0531441
-0.00414756
0.0330709
0.044019
-0.0075397
0.0586017
0.0270364
0.196583
0.0495939
0.0327925
0.0506436
0.0572688
0.0467283
0.0513971
0.0495606
0.00112492
0.0439876
0.0780051
0.01279
0.0951489
0.0312628
0.0318822
0.0104482
-0.197712
0.0505114
0.0568737
0.0247344
-0.0726806
0.00749324
0.0498394
0.517825
0.0495231
0.044893
-0.176094
0.0552432
0.0501634
0.0501727
0.0655971
0.089739
0.0505264
0.0563124
0.110815
0.0512896
0.0538359
0.0529395
0.0486177
0.0911786
-0.0159504
0.054609
0.115835
0.0103277
0.0100075
0.00535706
0.01571
0.0529173
0.0447324
-0.0407407
0.00462162
0.073401
0.0488327
0.050561
0.117896
-0.000659337
0.0339095
0.0387344
0.0335888
0.0525834
0.0437583
0.0841817
-0.249341
0.375817
0.0823855
0.0505113
0.0437082
0.0798941
0.361307
0.111955
0.0498577
0.00105075
-0.0118638
-0.250203
0.0367874
-0.166657
0.0505332
0.052889
0.0505759
0.00626923
0.0751877
-0.171355
0.0448431
-0.0883768
0.0476643
0.0509863
0.0104507
0.0545514
0.00150606
-0.0375482
0.0560043
0.0371683
0.0245078
0.0371438
0.0558503
0.0764247
0.0730642
0.031287
0.0778338
0.0560419
0.0506112
0.0531742
0.0510902
0.105827
0.0220743
-0.00693052
0.00270211
0.0862224
0.0247941
0.0233417
0.043097
-0.0115263
0.0347587
0.0553745
0.0500818
0.000236917
0.10929
0.0450704
0.0398836
0.0570118
0.0235586
0.102908
0.11651
0.023567
0.238783
0.0225789
0.0874536
-0.0349048
0.0542248
0.0174437
0.0114565
0.0479898
0.0344877
0.0391527
0.0445911
0.0497595
0.0461577
-0.0132082
-0.0008941
0.045292
-0.130993
0.100751
0.0510063
0.0514034
0.00248593
0.0509257
0.0783948
0.013878
0.0045504
0.0508663
0.053153
0.0496696
0.0509277
0.118472
-0.142701
0.0510229
0.0567265
0.049572
-0.152627
0.0220776
0.0146592
0.0493192
0.0509238
0.0527358
0.0248267
0.0838553
0.0282579
0.0483376
0.0532118
0.0508092
0.0206135
0.0846174
0.0392692
0.0503853
0.0308824
0.0254342
0.0758171
0.0461994
-0.0160638
0.146682
0.0479429
0.0331241
0.052952
0.0440131
-0.193355
0.0558814
0.0510765
0.0111555
0.105187
0.0827123
-0.141324
0.076783
0.0355156
0.0277958
0.0570021
0.0403537
0.0352301
0.0562211
0.147634
0.0508004
-0.362595
0.0838236
0.177462
0.040347
-0.00451127
0.0958166
-0.000820247
0.264753
0.00694322
0.0258782
0.0343615
0.0390617
0.0495452
0.04441
0.0878507
0.00182037
0.0564353
0.0479711
0.00636533
0.017129
0.0063374
0.0800433
0.00135957
0.00604711
0.0489765
0.0712478
-0.0442877
0.0874265
0.0495071
0.0353687
0.0538129
0.0495195
0.0699113
0.0505193
0.0444112
0.24569
0.091862
-0.0159469
0.0505568
0.0500229
0.050173
0.056579
0.0540084
-0.00110763
0.0541477
0.0499231
-0.0175378
0.0215832
0.00509807
0.0695063
0.0503914
0.0421185
0.0910017
0.0348619
0.0505837
-0.0411207
0.0106432
0.112848
0.0505069
-0.254382
0.0974426
0.0507783
0.00289692
0.0393347
-0.0115247
0.0363633
0.00161679
0.0943682
0.0498393
0.052163
0.0211935
0.037968
0.0551717
-0.00634701
0.0553871
0.0555492
0.0963729
0.0475508
0.0537536
0.0360928
0.00960495
0.0501829
0.0554539
0.0535344
0.0494384
0.0964101
-0.0403599
0.0263491
0.0566336
0.054085
0.0419073
0.0495957
-0.201668
0.0795673
0.0503219
0.0715577
0.041992
0.0993681
0.15343
0.000531248
0.0554719
0.00578296
-0.00118385
0.0492821
0.0410233
2.56866e-05
0.0452028
0.0503716
0.0730668
0.027475
0.0542439
0.0503985
0.0418032
0.0841125
0.0509548
0.0314334
0.0505265
0.038871
0.0674742
0.131327
0.0499732
-0.21388
0.0805273
0.0162596
-0.116621
0.0928394
0.0320336
-0.0336513
0.0570946
0.140977
0.205527
0.0539177
0.0447171
0.044555
0.0522689
0.0541293
0.00692778
-0.0805064
-0.147748
0.00863278
0.14939
-0.0052437
0.0101251
-0.0415229
0.0498606
0.0525029
0.0477156
0.0251333
0.0497372
0.00829399
0.0369866
-0.00532629
0.0496192
0.052905
0.0478175
-0.161352
0.120045
0.0781593
0.0619068
0.121844
0.044998
0.0509604
-0.0171202
0.036746
-0.0132362
0.00747401
0.0221424
0.00528424
0.0149236
0.0576
0.0492368
0.0496654
-0.128604
0.0413172
0.0403945
0.0527747
0.0032896
0.018232
0.0500125
0.0195766
-0.0141407
-0.000283299
0.0944917
0.0536326
0.0500969
0.00511463
0.0567176
0.0498563
-0.000758411
0.00780417
0.0536626
0.139547
0.000973083
0.050124
0.0501052
0.0494043
0.107506
-0.140378
0.0404816
0.0105502
0.0529938
0.0533775
0.0107965
0.0502886
0.173351
0.01466
-0.028061
0.154197
0.030634
0.0493476
0.049693
0.0335193
0.0568626
0.0492263
-0.189246
0.00593118
0.04403
0.217319
0.101418
0.0447399
0.0495654
0.0500974
0.0522673
-0.0723622
0.161599
0.0334234
0.0773593
0.0674137
0.00637081
-0.0797231
0.0231536
0.0549468
0.0535202
0.0165486
0.041509
0.0489365
0.0523972
0.00431579
0.0540245
0.0327856
0.055805
0.0819176
-0.0106022
0.0473672
0.0525037
-0.00276672
0.00352736
0.0593698
0.0521784
0.0767525
-0.000496654
0.0386419
0.0174942
0.0743307
0.016263
-0.0283081
0.0537442
0.158038
0.0493201
0.104421
0.000754293
0.0502628
0.0497839
0.37497
0.0503911
0.0565547
0.0262076
0.055252
0.0553766
0.0583264
0.0502795
0.0501538
0.000239214
-0.0254705
0.0480908
0.338043
0.0377561
0.052191
0.240332
0.0969766
0.0543504
0.0459234
0.0518779
0.0886476
-0.301715
0.0550808
0.048014
0.0494245
0.0523981
0.0642034
0.0162742
0.0546217
0.0651361
0.0534031
-0.155766
-0.00682009
0.00769928
0.110643
0.0375008
0.0522819
0.00463786
-0.12113
0.0534593
0.0496292
0.0522146
0.0464613
0.0551918
0.0489957
-0.00254703
0.0455397
0.0445256
0.324397
-0.00097641
-0.00473802
0.00407163
0.0550214
0.00132942
0.0855561
-0.092434
0.0480636
0.010199
0.0502811
0.236781
0.0496199
0.0498684
0.0294253
0.0494571
0.0257306
0.0598751
0.0552929
0.0479003
-0.087918
0.0858782
0.0106442
0.05247
0.035977
-0.0394079
-0.00670049
0.0788826
0.0750468
0.0504348
0.0558905
0.0467484
0.0522861
0.0480884
0.0524272
0.090195
0.0742994
0.00748697
-0.108726
0.0244424
-0.0086211
0.03218
-0.11378
0.0489372
-0.02967
0.0523013
-0.0119743
-0.00523469
0.0252312
0.0499955
0.0293502
0.0104784
0.0322094
-0.00692093
0.235299
-0.104395
0.0522569
-0.00222971
0.0464398
-0.00414235
0.0913474
0.00346438
0.0454158
0.0582256
0.00961215
0.0530867
0.0365221
0.0503147
0.0452797
0.0496574
0.0559915
0.00634976
0.0011557
0.0498783
0.0847258
-0.0820508
0.491115
0.0492638
0.0739775
0.0264311
0.196028
0.0316516
-0.189034
-0.0370228
0.047721
0.0241495
0.0654363
0.178406
0.0493714
0.067988
0.0786579
0.0477896
-0.0896143
-0.00359072
0.0522522
0.0252419
-0.0289364
0.0764349
-0.0849594
0.0383488
0.0793264
0.0547852
0.0492621
0.0560727
0.0449452
-0.0755997
-0.00014655
-0.064856
0.0508726
-0.079248
0.0298252
0.00384769
0.111108
0.0246403
0.0275385
-0.0548249
0.0381759
0.0376975
0.0052126
0.0683393
0.025725
0.00903373
0.0700988
-0.093697
0.0847932
0.0344958
0.0880985
0.050813
0.111546
0.00010332
0.0999424
0.0536034
-0.0349284
0.0499119
0.0336722
0.00797111
-0.00125406
0.0576457
0.0058764
0.0434476
0.505669
0.0558859
0.00524818
0.0918054
-0.000241454
0.00743531
0.0502516
0.0314745
0.049646
0.464004
0.0500726
0.0497911
0.0494047
-0.0132321
0.0444865
0.0442035
-0.00681813
0.0278489
0.0644898
0.044462
0.0497127
0.105596
0.0481504
0.104017
0.00741816
0.0862589
0.0382466
0.0422356
0.0257752
-0.0135463
0.00937295
0.0436011
0.535014
0.0500535
0.049774
0.0561138
-0.121979
0.0537347
0.0308494
0.0781353
0.0540232
0.0418889
0.00339659
-0.022409
0.033297
-0.0453952
0.0549477
0.0455437
0.0140875
0.0189599
-0.000673013
0.0522319
0.0251081
0.0720969
0.200001
0.037256
0.049813
0.0449176
0.178872
0.0503954
0.0503952
-0.0361056
0.0320992
-0.0418055
0.0419199
0.0496258
0.193067
-0.0130954
0.0447561
0.0552922
0.0480359
-0.107816
0.0504015
0.0336725
-0.0263801
0.0503979
0.0497004
0.00936998
0.0492772
0.0504073
0.0130489
0.0511285
0.0496795
0.0214628
0.0493627
-0.0128383
0.0496176
0.0582912
0.118888
0.00837506
0.0504099
0.0055122
-0.182498
0.0419205
0.074598
0.0478323
0.0348834
0.0483807
-0.01732
-0.00488115
0.045991
0.0497003
0.1276
0.0296
0.0152045
0.0109343
0.131076
0.0492953
0.00628204
0.0496856
-0.0186145
-0.00623187
-0.00374434
0.00825913
0.15634
-0.0809409
0.00554171
0.0100753
0.0471922
0.0524623
0.00142109
0.135997
0.0985169
0.033633
-0.0747514
0.0491872
-0.0627588
0.204415
0.049223
-0.00705855
-0.00951524
0.0807558
0.00791396
0.00707244
0.072781
0.0497656
-0.0123445
-0.067105
0.260366
0.0550555
0.00292126
-0.0299521
0.144196
0.0516877
0.0496734
0.00594664
-0.0528874
0.0387994
0.0681187
0.0499464
0.049282
0.0561349
0.054803
0.0250217
0.055607
0.0496492
-0.0158598
0.0361415
-0.0245761
0.0153755
0.0499433
0.0497102
0.144999
0.0545874
0.0802707
0.0600498
-0.0403603
0.081259
0.0490148
-0.0230528
0.0589565
0.0496729
0.0275241
0.038061
0.0417447
0.0932563
0.0254172
-0.146428
0.040287
0.0494755
-0.0262308
0.0493629
-0.00575183
0.0310052
-0.0272923
-0.0473673
0.0964232
-0.0309473
0.049981
-0.00818786
0.0538775
0.0723592
-0.0223205
0.0197673
-0.0228749
-0.0646669
0.173164
-0.0107888
0.0629126
0.0489592
0.0495596
0.0493412
-0.03047
0.139041
0.04898
-0.014571
-0.0180889
0.0144987
0.00271798
0.0275874
0.109636
-0.0263894
0.0546087
0.0122653
0.0250435
0.0502683
0.0502886
0.0516466
0.0549039
0.0110262
0.0498655
0.0523917
0.056187
0.0739966
0.000609373
0.0494434
-0.0183
0.0496163
0.00424019
0.0142092
0.0520185
0.040714
0.00212441
-0.0191219
0.0366408
0.0765298
0.0546918
0.0265195
0.0321333
0.0497251
0.0538402
0.0541268
0.0520842
0.049764
0.0696416
0.0497493
0.126371
0.0130214
-0.0962
0.0497901
0.0596291
0.0498991
0.049909
0.121966
0.0588017
0.0491423
0.332781
0.130546
0.0379054
0.064902
0.038075
0.120592
0.0182259
0.00882965
0.0552247
0.0560855
0.0496968
0.0505827
-0.0107299
0.0493224
0.0517072
0.12187
0.052109
0.0537734
0.0278117
0.0497284
-0.0344311
0.049822
0.0516515
0.00784915
0.00952204
-0.062887
0.108644
0.0706676
0.0518853
0.00738933
0.0518252
0.0254411
0.0044757
0.0560053
-0.0284867
0.0504693
0.0260156
0.0703197
0.051602
0.10213
0.0497865
0.055986
0.0496908
0.0288876
0.0492457
0.0519966
0.0242125
0.0457563
0.0707673
0.0269358
0.0497317
0.0268597
0.0122902
0.0558375
0.00845407
-0.0136331
0.0496945
0.0309641
0.109012
0.00317822
0.056524
0.0439358
0.0442661
0.0250578
0.0570396
0.15035
0.0546617
0.0499248
0.0499604
-0.0170274
-0.00891372
-0.0203319
0.280708
0.100412
0.0493116
0.0256508
0.0110644
0.0502831
-0.050885
0.0541505
0.103729
-0.000498379
0.0517
0.142304
-0.00805971
-0.0151958
0.0226436
0.0290993
0.050201
0.0492965
0.0608062
0.0497217
0.0496798
0.134946
0.0521875
0.0640695
0.0490236
0.038685
0.0447711
0.369187
0.0415456
0.0442985
-0.00847947
0.103768
0.0927109
0.0335868
0.109796
0.0498623
0.0461147
0.00466942
0.0718733
0.124247
0.0513554
-0.000298074
0.0411449
0.0498462
0.0523003
0.0497585
0.0631457
0.0415968
0.0502033
0.0297101
0.257919
0.0503049
0.0119357
0.031804
0.0493792
0.0632571
0.0524075
0.0273454
0.0498078
0.0496974
0.0140202
0.0288901
0.0913749
0.142439
-0.227596
0.0557715
0.0645133
-0.0330271
0.0329249
0.052348
0.040706
-0.000993413
0.049761
0.0534367
0.0496894
0.0296382
0.0647502
0.0180075
0.0497576
0.0613079
0.0341424
0.0544133
0.118792
0.0457818
0.0494965
0.0497558
0.0292556
0.0226974
0.309891
0.060652
0.0825818
0.0055973
0.00485404
0.0495267
0.0998228
0.0497524
0.0497201
0.0502727
-0.00238741
0.055023
0.0347251
0.00652613
0.0208573
0.00651789
0.0299273
0.0631835
0.113695
0.0472932
0.0112751
0.0922354
0.0326785
0.128412
0.0537788
-0.159956
0.142249
0.135502
0.0491828
-0.117524
0.00595844
0.00778926
0.137434
-0.000229673
0.0587747
0.0565382
0.0389281
0.0364595
0.0335196
0.209742
0.0729414
0.0542077
0.0138627
0.0543349
0.0364927
0.0236392
0.0939357
0.0358299
0.068288
0.0838604
0.00568269
0.0963587
0.0317772
0.0505722
0.0603569
0.0493541
0.0438926
0.0483727
0.0546265
0.0194227
-0.0410019
0.0494343
0.168498
0.0488268
0.0414232
0.00906673
0.0301175
0.033354
0.048121
0.00704989
0.0121542
0.250356
0.0497478
0.00851035
0.0364851
0.0112687
0.050282
0.0499607
0.151608
0.0234974
0.0325173
-0.117508
0.0266311
0.0398351
0.135717
0.014023
0.119208
0.0558497
0.0179391
0.0374371
0.0457747
-0.0242033
0.00655506
0.0198911
0.0331739
0.0491683
0.00615801
0.00588894
-0.000374783
0.040057
0.0370534
0.411848
-0.0395189
0.048827
-0.0111866
0.0198539
-0.102278
0.0496649
0.0316335
0.0324428
0.0496528
0.00386483
0.0278167
0.0534297
-2.97491e-05
-0.0200976
-0.00163364
0.0559435
0.023449
0.0503164
0.0450379
-0.0256167
0.0821619
0.0289496
0.00683849
0.148275
0.0244361
0.0198419
0.0211397
0.0068727
-0.0247872
0.0481613
0.0216889
0.0154194
0.0926267
0.27751
0.0131464
0.03498
0.0192986
0.0496621
0.0930119
0.0312905
0.00910205
0.0494537
0.0357701
0.00624029
0.0137225
0.148261
0.010606
0.0298175
0.0295207
0.0547728
0.00354859
0.0265018
0.0740164
0.0596086
0.0560569
0.0101968
0.0363985
0.0422437
0.0388781
0.0498122
0.0058648
0.0627998
0.0295783
-0.00230643
-0.0433454
0.0442077
0.028844
0.0163961
0.0241073
0.0497793
0.0995586
0.0989171
0.0722524
0.0502591
0.23458
0.00669757
0.0524665
0.0897707
0.0492538
0.0579068
0.0328169
0.0263195
0.0537803
-0.0993894
0.0510488
0.0596963
0.0430917
-0.0107668
-0.028312
-0.000537748
0.0629378
0.00921307
0.0502934
0.0293483
0.0751058
0.051064
0.150458
0.0170727
0.0278562
0.00818213
0.0670713
0.0218629
0.0382178
0.0494247
0.0495628
0.0469497
0.0636152
0.122675
0.0155284
0.14546
0.0820978
0.089904
0.0517065
0.0699513
0.00703531
0.0497102
-0.0188894
-0.0154067
0.0527835
0.0497194
0.0408207
0.0479086
0.0495474
0.0651611
0.0345099
0.132007
0.0160538
0.0355976
0.0894571
-0.0085695
0.00531443
0.0864157
0.0128769
0.0238412
0.0706582
0.0493224
0.0630697
0.0280875
0.122337
0.127659
0.218672
0.0495869
0.1276
0.0326651
0.032059
0.104758
0.107699
0.099751
-0.0214685
0.0210164
0.0670686
0.0209885
0.0401691
0.0459068
0.0911027
0.0490875
0.0165715
-0.0250348
0.05983
-0.0237354
0.0486869
0.0841829
0.0552135
0.0310421
0.102211
0.162376
0.0210001
0.0435163
0.0168661
0.0339315
0.0716072
0.000158106
0.0828941
-0.00114347
0.0495987
0.0212498
-0.148284
0.0972035
0.0361191
-0.0364093
0.0103925
0.0421156
0.0486767
0.103072
0.0940416
0.0341257
0.0572347
0.051385
0.00580677
0.0442091
0.00485909
0.0817411
0.0360043
0.142089
0.0496001
0.0460634
0.00142326
0.0381966
0.0388279
0.0663547
0.0569007
0.0299933
0.168447
0.107765
0.0494225
0.00574622
0.0447883
0.0493608
0.133587
0.0490884
0.0218199
0.0248001
0.0490589
0.0492025
0.0527398
0.00703225
0.0614925
0.0977794
0.028394
0.130843
0.0325443
0.0337271
0.0374528
0.0786155
0.049802
0.0396724
0.0376762
0.0268617
-0.0167438
0.00888424
0.067023
0.0447749
0.0557399
0.0318872
0.0430644
0.0612883
0.022053
0.106262
0.0323544
0.049388
0.00830986
0.0876421
0.00677001
0.0495503
0.135844
-0.0219042
0.0461385
0.0983133
0.00608163
0.0537986
0.0962062
0.00383436
0.0894462
0.114291
0.00453596
0.0480403
0.079414
0.0763623
0.0139484
0.0466708
0.0316095
0.0495631
0.0490635
0.0493104
0.0133881
0.0173498
0.0212585
0.0826222
-0.0487926
0.16891
-0.0425354
0.0280092
0.0420183
-0.0284692
0.0497668
-0.0919909
0.0336607
0.0230592
0.0183099
0.0288192
0.0652099
0.0419074
0.0328751
0.0545967
0.0495265
0.0782288
-0.0280627
0.0136606
0.00656103
0.0172489
0.0527847
0.0279281
0.0164835
0.0552338
0.0241067
0.0391208
0.118384
0.0858951
0.0810651
0.0937658
-0.00166586
-0.000119745
0.00589828
0.0229804
-0.000678298
0.0145307
0.0585559
0.0427416
0.132063
0.0743991
0.00737653
0.0498394
0.0957604
0.127873
0.0739448
0.0796669
0.0573943
0.0168171
0.114849
0.029109
0.024387
0.0342509
0.0337424
0.048657
0.0285331
0.0298241
0.0542063
0.0202006
0.0303226
0.0448161
0.10399
0.0441887
0.0406396
0.0760838
0.0558007
0.0489954
0.0515767
0.00260709
0.0159829
0.0504327
0.072133
-0.0388644
0.00643948
0.0563354
0.0192262
-0.0150472
-0.0332418
-0.00239421
0.0332586
0.0353734
0.0557258
0.0339976
0.0260027
-0.00036707
-0.00106337
0.00335984
0.000790535
0.0353145
0.0486166
0.0483585
0.129198
0.0627245
0.0348481
0.0389596
3.94024e-06
0.0452111
0.0274447
0.143516
0.0874426
0.0115973
0.0547931
0.0163973
0.0492211
0.00876777
0.000942962
0.0279209
0.0492961
0.0594432
0.167163
0.0425438
0.0891753
-0.0128059
0.0496529
0.0355277
0.0940783
0.10111
0.0704123
0.0503626
0.0460325
0.0470008
0.0502076
0.0493393
0.0415743
0.00671082
0.0492919
0.0569642
0.054401
-0.373485
0.11838
0.0470971
0.0495819
0.0107356
0.0165705
0.0235569
0.0772457
0.0175936
0.0487988
0.0429211
0.00514421
0.0501278
0.0136568
0.0931877
0.0717483
0.0480436
0.0123258
0.0498919
0.0398437
0.0378948
0.0423941
-0.00208388
0.060022
0.035706
0.0340021
0.110853
0.0818265
0.0492112
0.0497069
0.0368205
0.0322456
0.0139598
0.02048
0.0403648
0.00821333
0.0804312
0.0502348
0.0384622
0.00618795
0.0401999
0.0852066
0.0640671
0.0522426
0.150276
0.0223686
0.125017
0.141359
0.0279389
-0.0020143
3.18635e-06
0.123983
0.0404814
0.00691974
0.074682
0.0369438
0.0218307
0.090131
0.072458
0.0514745
0.00296402
0.0316874
0.0282933
0.041173
0.00590347
0.0512963
0.0806762
0.0511228
0.0576478
0.0861383
0.055527
0.0435266
0.105324
0.00772696
0.0917204
0.0289362
0.0725706
0.00878365
0.0619768
0.0121813
0.0508374
0.0310014
0.00987386
0.0678461
0.0273091
0.0507953
0.0426072
0.0149866
0.0459297
0.035653
0.0567372
0.0372494
0.0224705
-6.65238e-06
0.0957146
0.104601
0.10072
0.0416445
0.0414908
0.0360626
0.0189084
0.0289402
0.0499785
0.0549453
0.070333
0.0245816
0.0587624
0.00504608
0.0314811
0.0576406
0.0336763
0.0326371
0.0442548
0.0304985
0.0382223
0.134862
0.255948
0.0227184
0.0250012
0.028934
0.033178
0.0385017
0.0367685
0.034167
0.0235405
0.0130573
0.0483697
0.0495669
0.0486073
0.00666985
0.0495344
0.0300363
0.043443
0.0314073
0.0600564
0.0342667
0.123621
-0.00589134
0.0492043
0.0355118
0.0910167
0.0422714
0.0608725
0.0882386
0.0541872
0.0494176
0.0296188
0.00405191
0.0865895
0.00429651
0.115702
0.0839711
0.00403321
0.0637789
0.0686107
0.0106076
0.0435463
0.0489388
0.0508514
0.0371346
0.0491091
0.0327814
-0.0266518
0.0483207
0.0802411
0.0439799
0.0628965
0.0636148
0.161201
0.0554522
0.0425856
0.00519995
0.0135714
0.0871178
0.0315685
0.0837967
0.0507238
0.0385371
0.0655288
0.0462723
0.0331732
0.0502477
0.0507537
0.0318926
0.0490663
0.0352963
0.0619523
0.0811836
0.0141921
0.0488394
0.00699365
0.00210153
0.068139
0.0591306
0.051558
0.0686372
0.132365
0.0495517
0.040973
0.0474646
0.0608843
0.0393538
0.035937
0.0398379
0.0741775
0.0836959
0.0327633
0.0796611
0.0908316
0.060601
0.108144
0.0581218
0.0783319
0.028199
0.0431149
0.0214337
0.0503275
0.0649173
0.0510815
0.0836903
0.00235905
0.0553155
-0.0100529
0.0450273
0.0272282
0.117891
0.00762548
0.0475192
0.0492425
0.00522638
0.107637
0.0275075
0.0298325
0.0155598
0.0450554
0.080562
0.0383411
0.0479992
0.0367508
0.00857797
0.0434866
0.0409877
0.394592
0.0397919
0.0511285
0.0593665
0.0650066
0.0434967
0.0321667
0.0495759
0.10222
0.0428462
0.0495596
0.0131713
0.0375413
0.0292777
0.0417515
0.0636512
0.0430952
0.0453
0.0445541
0.0345138
0.0805055
0.0495974
0.0396019
0.0579088
0.0458981
0.0404034
0.0555623
0.0555484
0.0599777
0.0604139
0.049662
0.0437627
0.0513806
0.0293355
-0.00160168
-0.000814974
0.143751
0.0749273
-0.00884796
0.0310999
0.0490718
0.0522304
0.0586558
0.0742232
0.049952
0.0279971
0.0760429
0.0570292
0.0263149
-0.00788436
0.0215921
0.0489691
0.0380149
0.0494414
0.0945396
0.236602
0.0400044
0.0574889
0.04307
0.00629585
0.0492427
0.0727703
0.0278675
0.0460668
0.0501062
0.0339356
0.0967485
0.0392638
0.0569506
0.0259183
0.0426771
0.0442363
0.0879828
0.060887
0.0409227
0.0516493
0.0394889
0.0551458
0.0388535
0.0498877
0.0398703
0.0492996
0.0550929
0.0114003
0.0687595
0.0159338
0.0738737
0.0740082
0.0535164
0.0394379
0.036118
0.0776482
0.0920428
0.0111035
0.0425273
0.055301
0.0585492
0.040486
0.048144
0.0444145
0.0375063
0.0285394
0.0285165
0.0450837
0.0151138
0.0400329
0.0797113
0.0411728
0.0435626
0.0396151
0.0242683
0.0842322
0.0541446
-0.000588835
0.0399266
0.0420568
0.00997464
0.0524014
0.000815611
0.051822
0.0424929
0.0471462
0.0474884
0.0504841
0.0430664
0.00411168
0.0495736
0.0208538
0.0720289
0.0519601
0.058168
0.0338543
0.0962811
0.0609686
0.0499771
0.0355757
-0.0570537
0.0497057
0.00557166
-0.071819
0.0660122
0.085594
0.0532835
0.0417671
0.0299117
0.0717503
0.0590811
0.049666
0.092729
0.0113231
0.0818916
0.0496055
0.0490215
0.0439184
0.0450374
0.0455232
0.0662795
0.0759945
0.0465206
-0.00119066
0.0467144
0.0536133
0.0421178
0.0327791
0.000231862
0.0490737
0.0428334
0.0240164
0.0439244
0.0468753
0.0519558
0.127338
0.0730606
0.0500482
0.0628062
0.0535522
0.0427908
0.0754204
0.0599899
0.0445053
0.0631414
0.0375018
0.0628762
0.0850887
0.00221739
0.0236209
0.0501414
0.0701831
0.0477407
0.0520519
0.0509573
0.0427029
0.00166793
0.00050183
0.0589785
0.0328424
0.0363881
0.0284404
0.0487432
0.0483548
0.0500532
0.0713041
0.035646
0.0496424
0.0426088
0.0546873
0.0229356
0.0092955
0.0496681
0.0491801
0.0370518
0.0487466
0.0481465
0.0431056
0.0457192
0.0404051
0.0664247
0.0619756
0.0346495
0.0475061
0.0531114
0.0579924
0.0428907
0.0495875
0.0434016
0.0313146
0.00116717
0.00562994
0.0363571
0.123529
0.0432999
-0.0568158
0.0884504
0.0427785
0.0415307
0.0538426
0.048933
0.0496707
0.0524845
0.0567679
0.0423489
0.0512183
0.0488462
0.0966463
0.00581101
0.0339844
0.049808
0.0551114
0.0631997
0.0704646
0.0331255
0.0518769
0.0495201
0.0481149
0.0436831
0.0289114
0.0268509
0.00608814
0.0619356
0.0479851
0.0396479
0.0561494
0.0538151
0.053345
0.0469764
0.0582394
0.0496632
0.0158691
-0.00188686
0.0488605
0.0664812
0.0423706
0.0451825
0.0468996
0.0509039
-0.0347826
0.0635116
0.000193242
0.0439317
0.00771883
0.0524495
0.0689066
0.12721
0.0554137
0.0498464
0.0309723
0.0221816
0.111359
0.0429334
0.0669344
0.0454787
0.0492129
0.0651145
0.0472928
0.122025
8.3454e-05
0.0789613
0.0528486
0.0482639
0.0496343
0.0479088
-0.0261455
0.0393459
0.0491191
0.0564474
0.047965
0.049189
0.0490081
0.0109578
0.00399264
0.0546321
0.0484962
0.0820553
0.0556714
0.10151
0.382826
0.021128
0.0440142
0.0745862