/*--------------------------------*- C++ -*----------------------------------*\
  =========                 |
  \\      /  F ield         | OpenFOAM: The Open Source CFD Toolbox
   \\    /   O peration     | Website:  https://openfoam.org
    \\  /    A nd           | Version:  7
     \\/     M anipulation  |
\*---------------------------------------------------------------------------*/
FoamFile
{
    version     2.0;
    format      ascii;
    class       volScalarField;
    location    "1.29";
    object      p;
}
// * * * * * * * * * * * * * * * * * * * * * * * * * * * * * * * * * * * * * //

dimensions      [0 2 -2 0 0 0 0];

internalField   nonuniform List<scalar> 
12359
(
0.0677916
0.0769444
0.0522754
0.109747
0.0713863
0.156397
0.187587
0.17051
0.22774
0.144381
0.208566
0.278997
0.486451
0.116836
0.104593
0.397385
0.440568
0.056339
0.0559967
0.0897159
0.125439
0.252918
0.0830412
0.0952092
0.0797008
0.0861445
0.0532948
0.0531662
0.0553417
0.0537557
0.0541222
0.0527264
0.0524197
0.0535442
0.0522991
0.0543147
0.0612665
0.0661183
0.0696911
0.0636017
0.0749583
0.0647362
0.0589998
0.0583048
0.0547714
0.0550492
0.0545273
0.0539605
0.0556595
0.0534012
0.0530502
0.0529407
0.052651
0.0567474
0.0525805
0.0524405
0.0577157
0.052405
0.0524016
0.0523384
0.0524769
0.0522991
0.0529812
0.516254
0.0571881
0.133992
0.0605262
0.052857
0.0619665
0.350161
0.532172
0.0730242
0.0522673
0.0627469
0.0999617
0.0523106
0.0526586
0.0522826
0.059858
0.319699
0.127023
0.0474598
0.0514439
0.0529068
-0.0555281
0.0263965
0.0472767
0.0502119
-0.0684997
-0.0495487
0.0520901
0.478275
0.0520296
0.0516138
0.0515891
0.0080129
0.051122
0.0517565
0.0601229
0.0568017
0.109411
0.052175
0.0268407
-0.121028
0.0462664
0.0146911
0.0512021
-0.0539789
0.0288513
0.0150826
0.0511774
0.0475608
0.111385
0.0928079
0.051937
0.0482431
0.0944832
0.0463875
-0.0728139
0.0514796
0.0513012
0.176159
0.0500859
0.00647137
0.0461494
0.0479834
0.0395968
0.0527013
0.0522685
0.0459897
0.0489416
-0.00224681
-0.00367316
-0.00258733
0.0512661
0.0079102
0.0487751
0.00807723
0.0522034
0.0403262
0.0515961
0.0691352
0.0165085
0.0512267
0.00977625
0.148658
0.0514537
-0.044202
0.046158
0.128708
0.00386509
0.0521857
0.0164686
0.049988
0.0519938
-0.169453
0.110022
-0.00150786
0.0512353
0.0527936
0.0476606
0.0528355
0.00493265
0.0135264
0.0514389
0.0481428
0.0487711
0.175276
0.0149919
-0.0702215
0.0522799
0.0523017
0.0139815
0.0797638
0.0463593
0.0437947
0.0553587
0.0551436
0.11306
0.0441357
0.117268
0.051974
0.0522702
0.0471336
0.0590615
0.206911
0.0463949
0.050739
0.00662765
0.0461727
0.0510738
0.00963018
0.0120264
0.0499232
0.0137569
-0.131045
0.0346785
0.0473866
0.0169553
0.0465568
0.152755
0.0061528
0.057932
0.0146344
0.0133088
0.0519548
0.012222
0.0586188
0.00250671
0.0452608
0.0517347
0.000195492
0.000307472
-0.527836
0.204211
0.0522125
0.0469002
0.0519239
0.0466803
0.0699009
0.103261
0.0454068
0.00654068
0.467937
0.0457462
0.0517129
0.0706396
0.0291754
0.0469916
0.0482035
0.0479811
0.0514469
0.0106689
0.0580669
0.0502697
0.0570887
0.0514733
0.0158353
0.0503698
0.293967
0.0514125
0.0247178
0.0507482
0.0571733
0.0465129
-0.0446727
0.0523797
0.00237225
0.0473534
0.0126532
0.00191061
0.065409
0.0547879
0.0485151
0.323305
-0.572771
0.0514857
0.0452753
0.399261
-0.0538457
0.0574908
0.047535
0.047074
0.0136119
0.0782339
-0.448276
-0.0675825
0.046218
0.0455457
0.00823446
0.0140167
0.0629951
0.0151483
0.048649
0.0451789
0.0514691
0.045377
-0.114451
0.0449539
0.0511929
0.0521637
0.0129565
0.0428777
0.0606391
0.0250713
0.051542
0.0492851
0.05218
0.0521636
0.0527612
0.0049197
0.0470842
-0.451895
0.0512361
0.0511704
0.0270541
0.0473766
0.102926
0.0517571
0.0531058
0.0521122
-0.103445
0.0465012
0.0521091
0.0471709
0.0513702
0.0470548
0.0483401
0.0484438
0.046876
0.0563525
0.206256
0.0467972
0.0542249
0.0660224
0.0239731
-0.0558758
0.0463294
0.0610158
0.372413
0.0521566
0.0209718
0.0511394
0.034972
0.0512232
0.046102
0.230287
0.0201096
0.207969
0.0601894
0.0504228
0.0111099
0.00684561
0.0503532
0.010536
0.0115706
0.050984
0.0525496
0.0525364
0.0526002
0.0525811
0.293058
0.0515191
0.107008
0.00113685
0.0578852
0.0146114
0.0201747
0.0277481
0.0358524
0.0193776
0.036338
0.0598527
0.0218069
0.0231217
0.094902
0.07002
0.016558
0.0681796
0.0681002
0.0175752
0.106958
0.0480354
0.0526428
0.0332978
0.0526057
0.04775
-0.188301
0.501848
0.0479729
0.0522424
0.0512968
0.0518694
0.0192756
0.0519979
0.0519835
-0.0740697
0.0140983
-0.0456505
0.0498902
0.0115421
0.0431246
0.0510361
0.0173389
0.0331368
0.113144
0.0333361
0.0482698
0.051092
0.0133967
0.0109812
0.045265
0.298497
0.0169673
0.00767566
0.0523455
0.0490982
0.0522278
0.385089
0.0147928
0.0500014
0.0652127
0.0672138
0.0516155
0.0515866
0.0518149
-0.0542683
0.101211
0.0621187
0.0198921
0.00410026
0.0517638
0.117198
0.0516921
6.12343e-06
-0.0596392
0.305007
0.0567959
0.0944236
0.0295835
0.0239081
0.0376529
0.0329468
0.0537988
0.0376348
0.0168541
0.0520041
-0.0557635
0.0611811
-0.00688677
0.00979829
0.0581457
0.0986625
-0.141888
0.0188989
0.0416728
0.00706748
0.00930949
0.0204198
0.0465415
0.0517669
0.0548186
0.0512444
-0.00284759
0.0490406
0.0856151
0.0879413
0.0382407
-0.0530172
0.106398
0.056531
0.0503422
0.395141
0.0511332
0.0498391
0.00640726
0.0522448
0.0501994
0.0498241
0.238754
0.204963
0.0524617
0.0503798
0.111993
0.0505826
0.0200469
0.0163608
0.014486
0.0510265
0.0518549
0.0503307
0.0521161
0.0875381
0.0207206
0.0235648
0.0549778
0.0536972
0.0037816
0.05388
0.0492835
0.0450537
0.122795
0.00573903
0.0521882
0.0500546
0.0131025
0.032252
0.0510278
0.0484234
0.115186
0.0205567
0.0083059
0.0223455
0.0509465
0.0495726
-0.00412809
-0.0043583
0.0521111
0.0389135
0.0517098
0.0064492
0.284447
0.051797
0.0491702
0.0510499
0.0159732
0.056402
0.0555578
0.0482669
0.0517264
0.031937
0.0783796
0.0403372
-0.0337361
0.0511239
-0.0388126
0.0502693
-0.11148
0.0200319
-0.00121093
0.0523851
0.0547736
0.0233537
0.0472124
0.0530405
0.059362
0.0565381
0.0568372
0.0735811
0.015438
0.0149483
0.0514577
0.0468567
0.0204268
-0.00348064
0.0514592
0.0512351
0.0133765
0.0510273
0.225697
-0.147603
-0.117272
0.051459
0.0436328
0.00141304
0.055863
0.0467254
0.454308
0.0512285
0.116339
0.0907546
0.0434638
0.0468833
0.0531625
0.0386942
0.000641143
0.0321848
0.0542528
0.0514906
0.0522713
0.0562581
0.0553397
0.0574963
0.0153439
0.0528135
0.0512162
0.0220083
-0.0842222
0.0540983
-3.97912e-05
0.051328
0.0547714
0.0966074
0.0021257
0.00199639
0.0988621
0.0481865
0.00208791
0.05165
0.0523348
0.00496699
0.0390994
0.0476073
0.0390969
0.0519198
0.0511866
0.0477421
0.0513929
0.00196733
0.105683
0.06153
0.120323
0.0170192
0.0416874
0.114541
0.0652433
-0.00542366
0.0145629
0.0662505
0.0564068
0.0523506
0.0398814
0.0224279
0.0514513
0.0522565
0.0509918
0.0523844
-0.0143861
0.0393732
0.0354531
0.107211
0.0596207
0.235599
0.00664627
0.00206611
0.0475455
-0.000640899
0.0519025
0.0523931
0.0508135
0.107725
0.116535
0.0486009
0.0323337
0.22987
0.0169358
0.00738019
0.0405007
0.0678684
-0.124946
0.0506484
0.0532332
0.0519395
-0.00854588
0.0531055
0.0330872
-0.0525849
0.0512419
0.0798617
0.059339
0.0434531
0.0543239
0.048933
0.0526419
0.0559678
0.0526942
0.0525827
0.0553966
0.00706396
0.0114736
0.0434675
0.338867
0.00225446
0.413507
0.0182981
0.0258445
0.0557374
0.0197327
0.0588818
0.0107018
0.320491
0.100434
0.0580585
0.0457765
0.0566138
0.0553097
0.0229723
0.051764
-0.00880025
0.0527077
0.101551
0.0504012
-0.0128948
0.0088911
0.012404
0.0582739
0.0409833
0.00949219
0.0795784
0.00693553
0.0424447
0.00430437
0.0451518
0.0514994
0.0522095
-0.200691
0.0728692
0.0440367
0.0514262
0.0528953
0.0568967
0.0853157
0.0113042
0.0192674
0.0510139
0.0456392
0.0576635
0.0439798
0.0408231
0.00307028
0.0581275
0.0595918
0.0102361
0.0455045
0.0423049
0.106175
0.0514602
0.0581421
-0.249971
0.0523796
0.00859706
0.0532375
0.0427273
0.0910872
0.0108127
0.0531134
0.0203235
0.0517733
0.113426
0.045879
0.0128336
0.0121234
0.114585
0.0516593
0.00156331
-0.00543994
0.0585541
0.0444704
0.0464386
0.0383398
0.239585
0.056068
0.052228
0.057033
0.0520154
-0.122913
0.0438813
0.012037
0.0332848
0.0200962
0.51894
0.0439926
-0.0531951
0.01184
-0.0907637
0.0196961
0.0540895
0.0439658
0.0326415
-0.0458814
-0.0342415
0.0504089
0.0504196
0.12069
0.0500053
0.21277
0.0214138
0.0725745
0.0468509
0.408826
-0.0995579
0.0444778
0.0515046
0.0515395
0.0958714
0.0569378
0.0617021
0.0542069
0.0162862
0.0792086
-0.0319427
0.357552
0.0510617
0.0849904
0.0155495
0.121809
0.0458463
0.116168
0.0085859
0.0970385
0.0545497
0.0514291
0.0104824
0.00764517
0.0201756
0.119711
0.0145069
0.0261024
0.0533266
0.0508814
0.040375
0.245178
0.0404308
0.0130727
0.0686367
0.0214034
0.037517
0.0548066
-0.00462667
0.0341542
0.0453323
-0.0163294
0.0600939
0.0284478
0.200244
0.0514903
0.0338475
0.052105
0.0589478
0.0482616
0.0527629
0.0514574
0.00373006
0.0453357
0.0797732
0.0136845
0.0967733
0.0324288
0.033041
0.0113663
-0.185655
0.0523619
0.0586237
0.0257286
-0.0665412
0.00806167
0.0515724
0.506578
0.0514436
0.0461095
-0.156073
0.0569511
0.0518655
0.0519098
0.0674012
0.091447
0.052389
0.0579439
0.11121
0.0527212
0.0552002
0.0545983
0.0506436
0.0926991
-0.0158534
0.0561744
0.118307
0.0119018
0.0100425
0.00777817
0.0166587
0.0545661
0.0459388
-0.0381949
0.00556764
0.0750288
0.0505519
0.0524089
0.119904
-0.000350669
0.0349132
0.0393395
0.0346703
0.0541352
0.0451819
0.0859654
-0.220494
0.371093
0.0846139
0.0519507
0.0452103
0.0817823
0.349738
0.113006
0.051609
0.001041
-0.010917
-0.235453
0.0374
-0.145372
0.0523802
0.0544868
0.0524225
0.00839
0.0767614
-0.153567
0.0461538
-0.0810448
0.0498094
0.0524997
0.0116701
0.0562126
0.00207176
-0.0413938
0.0577653
0.0369518
0.0261539
0.0378284
0.0575883
0.0772861
0.0746866
0.032437
0.0809125
0.057758
0.0524552
0.0548064
0.0529454
0.106789
0.0238863
-0.00578094
0.00443474
0.0875884
0.0259453
0.0243097
0.044459
-0.00793988
0.0357675
0.0571181
0.0519527
0.000566344
0.110819
0.0463197
0.0416147
0.0587335
0.0248494
0.104714
0.117508
0.0248805
0.239509
0.023541
0.0886194
-0.0393161
0.0558625
0.0209696
0.012355
0.0499831
0.0354859
0.0399478
0.0458995
0.0516479
0.0476016
-0.0125358
-0.000200377
0.0468103
-0.131505
0.102293
0.0528316
0.0529817
0.00273968
0.0527477
0.0802432
0.0148427
0.00653703
0.0526927
0.0549363
0.0512132
0.052752
0.120689
-0.13082
0.0528017
0.0588136
0.051468
-0.141285
0.0229067
0.0159897
0.0512497
0.0527012
0.0543813
0.0262123
0.0871214
0.0295967
0.0498221
0.0548494
0.0526426
0.0222825
0.0866589
0.0400153
0.0522484
0.0321591
0.0266312
0.0772149
0.0477899
-0.0153527
0.147134
0.0499616
0.034317
0.05463
0.045292
-0.1754
0.0575856
0.052881
0.0123769
0.106752
0.0843663
-0.134395
0.0783463
0.0365101
0.028995
0.0586506
0.0414473
0.0362727
0.0579511
0.148569
0.0521156
-0.319849
0.0852877
0.182648
0.0414385
-0.00557821
0.0977143
-0.00141605
0.263734
0.00797435
0.0275345
0.0352332
0.0402922
0.0514261
0.045643
0.0900057
0.00149022
0.0580988
0.0499674
0.00781154
0.0182345
0.00677108
0.0821802
0.00139823
0.00636613
0.0506904
0.0726349
-0.049151
0.0892667
0.0514292
0.036031
0.0554834
0.05144
0.0710859
0.0523683
0.0456913
0.245472
0.0935871
-0.0159453
0.0524022
0.0517871
0.052028
0.058206
0.0557467
-0.00143629
0.0558878
0.0516906
-0.0143432
0.0229666
0.00750595
0.0706686
0.0517797
0.0434417
0.093882
0.0356526
0.0524261
-0.0397128
0.0121171
0.113498
0.0521253
-0.229024
0.0992609
0.0521383
0.00358122
0.0399156
-0.0255224
0.0372398
0.0019364
0.0963968
0.0513953
0.053967
0.023104
0.0418769
0.0567249
-0.00584038
0.0570912
0.0572684
0.0990208
0.0492566
0.0554473
0.0370074
0.0111123
0.052084
0.0571757
0.0551934
0.0513618
0.0983737
-0.0396178
0.0275364
0.058329
0.0556929
0.0432335
0.0513658
-0.187574
0.0813463
0.0521756
0.0731389
0.0433522
0.101096
0.154768
0.0015507
0.0571847
0.00651659
-0.000520487
0.0512201
0.0422457
0.000624147
0.0463308
0.0522258
0.0747325
0.0287008
0.0557809
0.0522503
0.0431029
0.0859186
0.0527773
0.0331844
0.0523851
0.0395724
0.0690848
0.134722
0.0518419
-0.193752
0.0822157
0.0168005
-0.11401
0.0945566
0.0332227
-0.0272553
0.0587716
0.143779
0.210382
0.0555189
0.0460565
0.0459767
0.053921
0.05585
0.00772605
-0.0750238
-0.132058
0.00965507
0.14984
-0.00661935
0.011141
-0.0582978
0.0516739
0.0541236
0.0491904
0.0261552
0.051439
0.00912974
0.0379418
-0.0118298
0.0515142
0.054685
0.0495616
-0.140886
0.121586
0.0800775
0.0635698
0.123317
0.0462691
0.0527378
-0.0142503
0.0377285
-0.00987724
0.00823027
0.0244291
0.00569073
0.0163462
0.0592849
0.0510257
0.0514284
-0.117307
0.0434004
0.0411674
0.0550172
0.0062595
0.0195361
0.0518805
0.0210257
-0.0112285
2.99681e-05
0.0962699
0.0552776
0.0518551
0.00551553
0.058406
0.0516355
0.00129894
0.00856708
0.0553923
0.140208
0.00108206
0.0519878
0.0518282
0.0513232
0.109307
-0.129085
0.0422788
0.0113699
0.054718
0.0550157
0.0120262
0.052145
0.181638
0.0163786
-0.053512
0.155301
0.0316975
0.0509782
0.0514981
0.0342718
0.058561
0.0509463
-0.173548
0.00640754
0.0456689
0.222903
0.103335
0.0462303
0.0514594
0.0518423
0.054492
-0.0721392
0.162676
0.0348072
0.0794116
0.069006
0.00706979
-0.0742799
0.0262746
0.0566354
0.0550422
0.0177669
0.042604
0.0510202
0.0541484
0.00482257
0.0557506
0.0341212
0.057553
0.0836326
-0.00974764
0.0488411
0.0542634
-0.0022401
0.0040908
0.061046
0.0540106
0.0786865
-0.000671042
0.0402237
0.0183451
0.0760615
0.0183991
-0.0325083
0.055374
0.160116
0.0510672
0.10725
0.00142118
0.0521086
0.0515854
0.370685
0.0521024
0.0582102
0.0274702
0.0569651
0.0571111
0.0600634
0.051993
0.052021
0.000279477
-0.0239646
0.0498708
0.333207
0.0386599
0.0539559
0.23808
0.101174
0.0568613
0.0473021
0.0536051
0.090317
-0.254857
0.0567913
0.0498014
0.051269
0.0541113
0.0657898
0.0174749
0.0563392
0.066757
0.0551793
-0.147733
-0.00443593
0.0092431
0.112267
0.0384174
0.0540534
0.00511245
-0.113348
0.0551061
0.0514595
0.0539904
0.0483579
0.0569168
0.0507431
-0.00305272
0.0469074
0.0456582
0.304306
-0.000906687
-0.00985743
0.00454695
0.0567507
0.00124429
0.0886599
-0.0852822
0.049583
0.0112412
0.0521343
0.241285
0.0515087
0.0514189
0.0303655
0.0512964
0.0270157
0.0614691
0.0570339
0.0494242
-0.0898944
0.0895514
0.0120314
0.054222
0.0371546
-0.0582743
-0.00617044
0.0807107
0.0769176
0.0520659
0.0576097
0.0482231
0.053986
0.0498566
0.0541852
0.0918991
0.0763147
0.00810463
-0.101747
0.0266259
-0.00634176
0.0339532
-0.105615
0.0507104
-0.0279692
0.0540651
-0.00844697
-0.0049898
0.0263341
0.0515876
0.030634
0.0115347
0.0333224
-0.0166579
0.235212
-0.0995114
0.0540185
-0.000428664
0.0481321
-0.00374733
0.0923651
0.00562656
0.0469446
0.0599541
0.0112991
0.0548033
0.0378583
0.0519364
0.0467026
0.0515282
0.0577283
0.00708029
0.00161898
0.0516721
0.0864227
-0.0808436
0.498448
0.0510917
0.0752433
0.0266927
0.196072
0.0327181
-0.17492
-0.0320984
0.0492038
0.0257072
0.069629
0.177799
0.0507955
0.0694134
0.0800198
0.0495145
-0.0836986
-0.00383874
0.054035
0.027463
-0.0344353
0.0781917
-0.0861385
0.0392953
0.0811374
0.0562601
0.0511115
0.0576856
0.0462978
-0.0723926
-0.000474963
-0.0617021
0.0526421
-0.0827537
0.0311337
0.0049459
0.112357
0.0260045
0.0289479
-0.0528216
0.0390914
0.0377287
0.00570781
0.0721954
0.0269087
0.0097905
0.0718271
-0.0865158
0.0873269
0.0358089
0.0902742
0.052665
0.115852
0.000163819
0.103312
0.055279
-0.0346294
0.0517175
0.0349982
0.0099079
-0.00101346
0.0592936
0.00666839
0.0472831
0.507208
0.0577411
0.00627158
0.0933044
-5.92342e-05
0.00798849
0.0517381
0.0326762
0.051467
0.465289
0.0519448
0.0516007
0.0513206
-0.0131064
0.045706
0.0456396
-0.0124876
0.0291427
0.0660398
0.0457628
0.0515945
0.109181
0.0499852
0.106076
0.00942852
0.0879106
0.0413636
0.0433934
0.0269172
-0.0115871
0.01031
0.0449117
0.526659
0.0519238
0.0516453
0.0578375
-0.132271
0.0552898
0.0318656
0.0810403
0.0557591
0.04307
0.00377895
-0.021259
0.0346665
-0.044997
0.0566851
0.0469126
0.0154983
0.0203605
-0.000615011
0.0540031
0.0265992
0.0737361
0.195694
0.0384172
0.0516079
0.0466056
0.179829
0.0522429
0.0522458
-0.0333705
0.0333457
-0.0377775
0.0430551
0.0515176
0.190988
-0.0132293
0.0460631
0.0570142
0.0498568
-0.108639
0.0522504
0.0350522
-0.0260113
0.0522493
0.0515827
0.0102467
0.0511334
0.0522575
0.014316
0.0529043
0.051472
0.0228166
0.0511984
-0.0107712
0.0515085
0.0603844
0.121114
0.00907603
0.0522575
0.00611852
-0.167368
0.0431526
0.0757999
0.0499102
0.0357701
0.0502337
-0.0160795
-0.0046494
0.0473219
0.0515848
0.133569
0.0311653
0.0166616
0.012558
0.131205
0.0511518
0.00690615
0.0515714
-0.0186913
-0.00366069
-0.00394444
0.00879784
0.157467
-0.086357
0.00580215
0.0117727
0.0495279
0.0541454
0.00166042
0.137894
0.100457
0.0343903
-0.0712567
0.0511656
-0.0608643
0.199072
0.0508868
-0.00690646
-0.0244868
0.0822846
0.00942822
0.00796866
0.0744896
0.0515689
-0.0103085
-0.0620864
0.261896
0.0567899
0.00285273
-0.0295414
0.14416
0.0534255
0.0515471
0.00709377
-0.0513733
0.0423365
0.0703501
0.0518184
0.0511178
0.0583743
0.0565142
0.0264935
0.0573336
0.0515378
-0.0136559
0.0367664
-0.0252974
0.0168252
0.0517988
0.0515795
0.144803
0.0563285
0.0814871
0.062308
-0.0461472
0.0830553
0.0507957
-0.0208489
0.0607795
0.0514983
0.0288642
0.0401933
0.0428262
0.0962106
0.0266437
-0.13492
0.0421159
0.0512558
-0.0258602
0.0512894
-0.00429712
0.0322154
-0.0236508
-0.04603
0.0980512
-0.0294633
0.051831
-0.00747071
0.0555396
0.0736875
-0.0221668
0.0211799
-0.0220745
-0.0613247
0.174231
-0.0104027
0.0662405
0.0507256
0.0513888
0.0512701
-0.0299917
0.14098
0.0507712
-0.0128757
-0.0183955
0.0157861
0.00302982
0.0288281
0.111082
-0.0285391
0.0561404
0.0130385
0.0263936
0.0521233
0.0521427
0.0534273
0.0566193
0.0123203
0.0517215
0.0539095
0.0579327
0.0758786
0.000619278
0.0512076
-0.0172273
0.0515069
0.00585664
0.0164019
0.0537989
0.0435464
0.00237683
-0.0187688
0.0378585
0.0794671
0.0564328
0.0278054
0.0334337
0.0515979
0.0556278
0.0558087
0.0538642
0.051646
0.0711897
0.0516343
0.127603
0.013913
-0.0882113
0.051656
0.0611655
0.0517544
0.0515239
0.123065
0.0605138
0.0509107
0.314995
0.135661
0.0389649
0.0665324
0.0402083
0.122046
0.0213459
0.0097094
0.057579
0.0578168
0.0515829
0.0521529
-0.0105747
0.051164
0.0534882
0.124851
0.0537926
0.0555033
0.0288717
0.0515186
-0.0340502
0.0516827
0.0534321
0.00864286
0.0103569
-0.0705036
0.11175
0.0723822
0.0536551
0.00808162
0.0535947
0.0266098
0.00660951
0.0577565
-0.0252023
0.0523227
0.0274004
0.0716421
0.0540362
0.10342
0.0516703
0.0576791
0.0515765
0.0305508
0.051076
0.0550743
0.0253922
0.0471817
0.0724808
0.0283685
0.0516143
0.0282724
0.0132612
0.0575588
0.00926038
-0.0119659
0.0515785
0.0320789
0.11141
0.00349984
0.0581709
0.0455384
0.0455541
0.0262842
0.0587846
0.152994
0.0561923
0.0516886
0.0517169
-0.0213605
-0.00651479
-0.0211446
0.282854
0.102497
0.0522935
0.0272566
0.0118992
0.0520438
-0.0586057
0.0558771
0.106275
-0.000261248
0.0534742
0.14557
-0.00631077
-0.0155832
0.0241448
0.0305818
0.0519543
0.0512251
0.0624666
0.0516056
0.0515478
0.13858
0.0538888
0.0657814
0.050804
0.0397091
0.0463855
0.365342
0.0427732
0.0457078
-0.00790116
0.105734
0.0959898
0.0355253
0.11096
0.0514712
0.0478137
0.00528411
0.0741049
0.125928
0.053154
-0.000552613
0.0417104
0.0520887
0.0538383
0.0515401
0.0663129
0.04281
0.052062
0.0314041
0.259008
0.0521492
0.0127027
0.0330898
0.0511206
0.064913
0.0541523
0.028628
0.05157
0.0514826
0.0158531
0.0305333
0.0928287
0.143451
-0.222501
0.0575486
0.0661996
-0.0383203
0.0343499
0.0540895
0.041778
-0.000797165
0.0516304
0.0551717
0.0515736
0.031289
0.0666489
0.019564
0.0516415
0.0629868
0.0355599
0.0560944
0.120326
0.0472212
0.0514045
0.0516381
0.0307662
0.023855
0.309383
0.0623664
0.0843721
0.00603554
0.00537351
0.0513541
0.101523
0.0516268
0.0515869
0.0521289
-0.000526147
0.0567565
0.0363122
0.00735584
0.0210993
0.00697479
0.0313561
0.0659114
0.11562
0.0487837
0.0123625
0.0935102
0.0340176
0.130042
0.0555202
-0.15334
0.144116
0.136097
0.0510893
-0.109204
0.00644993
0.00850306
0.138707
-0.000348011
0.0605389
0.0581118
0.0398961
0.0367439
0.033274
0.213706
0.0757882
0.055926
0.0152435
0.0560223
0.037121
0.0250526
0.0954635
0.0371766
0.0699276
0.085447
0.00623146
0.0979634
0.0330498
0.0523963
0.0620402
0.0509164
0.0463068
0.0502169
0.0563316
0.0203381
-0.0488481
0.051196
0.167198
0.0506017
0.0426113
0.0103473
0.031461
0.0347929
0.0499547
0.00790869
0.0130185
0.252747
0.0516147
0.00955785
0.03767
0.0135391
0.0521382
0.0518304
0.152254
0.0249251
0.0338755
-0.117415
0.0278237
0.0407057
0.137911
0.0157405
0.121884
0.0574974
0.0193223
0.0386154
0.0472235
-0.0272928
0.00744097
0.020998
0.0344872
0.0509652
0.00677135
0.00639108
-0.000896847
0.0410822
0.038342
0.417983
-0.0364789
0.0505823
-0.0128504
0.0215753
-0.103325
0.051549
0.0331278
0.0337606
0.0515474
0.00435934
0.0291136
0.0549253
1.79175e-05
-0.0222975
-0.00139858
0.0575105
0.0248162
0.0521682
0.0464069
-0.0232237
0.0841207
0.0300738
0.00756656
0.147452
0.0257408
0.0210542
0.022432
0.0078073
-0.0268392
0.0499406
0.0228374
0.0173196
0.0940457
0.279086
0.014191
0.0362419
0.0211615
0.0515492
0.0944883
0.0325941
0.00976935
0.0512724
0.0370305
0.00677372
0.0147702
0.150216
0.0115476
0.0308893
0.0308045
0.0565155
0.00394402
0.0278615
0.075699
0.0611254
0.0576313
0.0111335
0.0376606
0.0434316
0.0399114
0.0516113
0.00653358
0.064404
0.0308235
-0.00404412
-0.043791
0.0456803
0.0301662
0.0177625
0.0251795
0.0516624
0.101405
0.100911
0.0741618
0.0521157
0.229112
0.00749887
0.05444
0.0915141
0.0511479
0.0596397
0.034163
0.0276462
0.0560278
-0.101247
0.0528335
0.0612522
0.0443895
-0.0108264
-0.0290592
-0.000371599
0.0645092
0.0100278
0.0521463
0.0306911
0.0768261
0.0528528
0.150837
0.01853
0.0290201
0.00892882
0.068787
0.0231065
0.0393326
0.0513145
0.0514585
0.0485311
0.0653672
0.124772
0.0171067
0.148024
0.0847111
0.0915486
0.0534847
0.0717806
0.00774632
0.0515075
-0.0245581
-0.0189697
0.0545261
0.0515984
0.0418058
0.0496761
0.0514521
0.0667712
0.0357804
0.133566
0.0174941
0.0367187
0.090972
-0.0103997
0.00611189
0.0882679
0.0143199
0.0253329
0.0723135
0.0512097
0.0647563
0.0293773
0.124068
0.13162
0.220523
0.0514871
0.129176
0.0342183
0.0333365
0.105736
0.109408
0.101529
-0.02381
0.022266
0.0685986
0.02246
0.0411696
0.0475818
0.0929057
0.0508817
0.0181474
-0.0289458
0.0614778
-0.0243634
0.0504788
0.085482
0.0568685
0.031937
0.104073
0.164971
0.0226859
0.0448672
0.0184717
0.0351117
0.0732574
7.85425e-05
0.084323
-0.00196234
0.0514987
0.0226604
-0.138181
0.100381
0.0373216
-0.0413352
0.0112509
0.0434868
0.050568
0.105591
0.0948456
0.0353391
0.0589282
0.0531768
0.00638888
0.0455568
0.00522141
0.0827879
0.0371535
0.143333
0.0514964
0.0474688
0.00651437
0.0391083
0.039689
0.0679486
0.0584737
0.0311809
0.16904
0.109245
0.0513394
0.00645574
0.0461681
0.0512503
0.135255
0.0508365
0.0233425
0.0261797
0.0508698
0.0509929
0.0542881
0.00814261
0.0631813
0.0995189
0.0296391
0.132136
0.0338285
0.0349554
0.0387729
0.0803685
0.0516978
0.0410408
0.0388185
0.0281194
-0.0216094
0.0101203
0.0687074
0.0464922
0.0572822
0.0330173
0.0443908
0.0629817
0.0233621
0.108182
0.0336204
0.0512794
0.00916098
0.0890423
0.00803752
0.0513954
0.136999
-0.0221677
0.0476658
0.100082
0.0065261
0.0555887
0.0979259
0.00438545
0.0911824
0.116038
0.00488733
0.0496607
0.0812837
0.0779457
0.0149329
0.0482492
0.0326714
0.0514669
0.050632
0.0511726
0.0146894
0.0187033
0.0218923
0.0843388
-0.0633123
0.170763
-0.0641587
0.0291748
0.0439131
-0.0423974
0.0513701
-0.0963035
0.0346704
0.0243927
0.0198837
0.0301078
0.066678
0.0431134
0.0341548
0.0562595
0.0513769
0.0800208
-0.0380464
0.015033
0.00702692
0.0187023
0.0543749
0.0293045
0.0176678
0.056984
0.0256187
0.0401159
0.120564
0.087651
0.0828785
0.0951831
-0.0018541
-5.20732e-05
0.00651291
0.0243483
-0.00452402
0.0162263
0.0603102
0.0445003
0.13275
0.0762772
0.00793393
0.0516328
0.0975993
0.128789
0.075724
0.0813706
0.0588928
0.0183467
0.116163
0.0301459
0.025296
0.0355277
0.0347049
0.050442
0.029861
0.0311433
0.0557941
0.0216798
0.0315599
0.0462165
0.106179
0.0455501
0.0421082
0.0775608
0.0574782
0.0507972
0.0532079
0.0027847
0.017307
0.052275
0.0738738
-0.0520197
0.00718
0.0579175
0.0210051
-0.0191644
-0.0402266
-0.00561236
0.0341356
0.0358751
0.0574959
0.0350062
0.0271719
-0.000312713
-0.00125257
0.00435308
0.00104611
0.0362407
0.0504736
0.0501901
0.131042
0.0643809
0.0360944
0.0398959
-0.000304291
0.0465526
0.028734
0.150496
0.0889835
0.0124219
0.056561
0.0179586
0.0511168
0.00951019
0.000886342
0.0291047
0.0511667
0.0611209
0.167988
0.0437393
0.0909679
-0.016884
0.0515351
0.0363514
0.0958445
0.103359
0.0720063
0.0520559
0.0474802
0.0485631
0.0520706
0.0511682
0.0428877
0.00784996
0.0511804
0.0585891
0.0561103
-0.328281
0.120902
0.0486013
0.0514826
0.0117804
0.0184666
0.0251841
0.0787213
0.0190254
0.0507033
0.0441998
0.00560142
0.0519974
0.0154431
0.0947183
0.0731533
0.0498163
0.0137261
0.0517689
0.0410832
0.0391031
0.0435834
-0.00267511
0.0614856
0.0366232
0.0349913
0.112879
0.0834784
0.0511282
0.0515995
0.0377128
0.0335067
0.015315
0.0219958
0.0417086
0.00867228
0.0822734
0.0520893
0.0392877
0.00675845
0.0408415
0.08704
0.0656753
0.0539266
0.152174
0.0235745
0.127261
0.141747
0.0292402
-0.002627
0.000150871
0.126743
0.0415286
0.00771151
0.0762957
0.0378983
0.0235734
0.0913006
0.0740868
0.0530797
0.0032777
0.0330466
0.0296915
0.0423979
0.00710403
0.0530908
0.0823037
0.0529095
0.0592381
0.087848
0.0572495
0.0447939
0.107849
0.00848059
0.0933193
0.0301454
0.0743495
0.00955617
0.0636322
0.0131963
0.0526499
0.0318396
0.010672
0.0695541
0.028871
0.0526073
0.0439701
0.0165255
0.0475121
0.0366447
0.058362
0.0381938
0.0240371
-0.000681633
0.0972135
0.106126
0.102454
0.0429336
0.0428035
0.0366823
0.0204847
0.0302855
0.0518493
0.0566532
0.0721468
0.0259656
0.0604643
0.00559531
0.0324233
0.0591731
0.0347331
0.0338501
0.0455638
0.0314113
0.0392885
0.13587
0.26088
0.0241427
0.0267636
0.0293988
0.0334921
0.0387079
0.037137
0.0350898
0.0248175
0.0146361
0.0502235
0.0514699
0.0504408
0.00725185
0.0513518
0.0312536
0.0446194
0.0325523
0.0616636
0.0354639
0.124671
-0.00645451
0.0510461
0.0366575
0.0927296
0.0434849
0.0628004
0.0906652
0.055954
0.0512479
0.0314063
0.00661218
0.0882702
0.00473511
0.117148
0.0854341
0.00440259
0.0654291
0.0703596
0.0118027
0.0448415
0.0505005
0.052675
0.0381185
0.0510133
0.0338555
-0.0383989
0.0501808
0.0820375
0.0452004
0.0645837
0.0652777
0.162471
0.0572174
0.0439103
0.00603332
0.0149738
0.0888805
0.0327836
0.0853473
0.0525342
0.0395338
0.0672476
0.0476896
0.0344347
0.0521069
0.0525652
0.0328913
0.0509503
0.0363248
0.0634971
0.0826283
0.0161654
0.0507425
0.0077179
0.00235656
0.0698611
0.0617213
0.0531711
0.0702494
0.133762
0.0514587
0.0423238
0.048755
0.0626065
0.0404992
0.0370596
0.040994
0.0760116
0.0852829
0.0339722
0.0811802
0.0922586
0.0621425
0.110143
0.0597705
0.0800592
0.0302011
0.0443899
0.0226929
0.0521773
0.066527
0.0528816
0.0852903
0.00266084
0.0569294
-0.0119959
0.0464718
0.0283859
0.119338
0.00867585
0.0489199
0.0511591
0.00636298
0.109263
0.0287792
0.0311534
0.0175085
0.046504
0.0829295
0.0394044
0.0498198
0.0377994
0.00958787
0.0447853
0.0421334
0.392217
0.0409043
0.0529131
0.0610355
0.0666746
0.0448102
0.0332579
0.0514789
0.104005
0.0442301
0.0514645
0.014581
0.0385562
0.030256
0.0428929
0.0652113
0.0442598
0.046583
0.0459112
0.0354677
0.0819613
0.0514995
0.040711
0.0595449
0.0472363
0.0415645
0.0572974
0.0572027
0.0615211
0.0620185
0.051557
0.0451477
0.0529899
0.0307084
-0.00157709
-0.000739842
0.147458
0.0766332
-0.00868749
0.0320679
0.0508541
0.0540116
0.0603948
0.075968
0.0518163
0.0293018
0.0776752
0.0587222
0.0276456
-0.00945414
0.0228951
0.0507911
0.0391195
0.0513742
0.0959078
0.233883
0.0411228
0.0591423
0.0444591
0.00730206
0.0511577
0.0744616
0.0292789
0.0473728
0.0519657
0.0349537
0.0988042
0.0404753
0.0584643
0.0273913
0.0439258
0.0454873
0.0896085
0.062508
0.0421722
0.0534333
0.0406424
0.0568709
0.0398497
0.0517625
0.041146
0.0512153
0.0567479
0.0122088
0.070547
0.0186425
0.0756152
0.0758428
0.0552464
0.0403987
0.0370406
0.0791283
0.0939825
0.0117906
0.043794
0.0580769
0.0602056
0.0418039
0.049905
0.0458744
0.0386297
0.0296861
0.0297283
0.0465137
0.0162083
0.0411027
0.0812809
0.0423959
0.044796
0.0409039
0.0254495
0.0858298
0.055726
-0.000638484
0.0408848
0.0432601
0.0117114
0.0541982
0.0010358
0.0535992
0.0436915
0.0485757
0.0490188
0.0523335
0.0444687
0.00549455
0.0514763
0.0223516
0.073737
0.0537653
0.0598041
0.03459
0.0979725
0.0625966
0.0518459
0.0365371
-0.0657251
0.0515891
0.006481
-0.0795801
0.067643
0.0873161
0.0550624
0.0429824
0.031439
0.0735165
0.0606444
0.0513576
0.0939423
0.0122503
0.0835434
0.0515078
0.0510079
0.0451861
0.046254
0.0468674
0.067871
0.0776447
0.0479237
-0.00149474
0.0483552
0.0553466
0.043462
0.0340415
0.000507023
0.0509922
0.0440835
0.0253468
0.0452183
0.0482462
0.0537443
0.129393
0.0749048
0.0519138
0.0645189
0.0551774
0.0438584
0.0768216
0.0615673
0.0458751
0.0647356
0.038362
0.0645575
0.0866263
0.00389966
0.0251611
0.0520046
0.0718153
0.0492917
0.0538379
0.0527708
0.0439358
0.00195902
0.000461788
0.0607267
0.0330243
0.0366383
0.0294726
0.0505292
0.0502373
0.0519133
0.072788
0.0362877
0.0515383
0.043839
0.0561932
0.0246609
0.0114983
0.0515506
0.0510888
0.0378896
0.0501085
0.0498671
0.0444085
0.0470869
0.0415515
0.0681362
0.0636773
0.0359048
0.0492213
0.0547076
0.0596079
0.0441562
0.051489
0.0447853
0.0324198
0.00155314
0.00617355
0.0368689
0.125086
0.0445642
-0.058647
0.0902393
0.0440198
0.0426244
0.0554244
0.0505286
0.0515504
0.0550664
0.0585401
0.0436318
0.0530128
0.0507813
0.098085
0.00628446
0.0352485
0.0516904
0.0566778
0.064837
0.0721897
0.0341575
0.0536548
0.0514256
0.0499154
0.0450966
0.0305914
0.0282455
0.00663401
0.0635079
0.0496617
0.0406292
0.057865
0.0554823
0.0550911
0.0486827
0.0598945
0.0515602
0.0167258
-0.00235412
0.0508753
0.0679891
0.0435792
0.0465246
0.0484216
0.0527201
-0.0474398
0.0652134
7.79799e-05
0.0451129
0.00996127
0.054051
0.0711438
0.129517
0.057042
0.0517262
0.0321057
0.0236392
0.112956
0.0443152
0.0684887
0.0468655
0.0511221
0.0666905
0.0489666
0.123386
0.000217058
0.0806608
0.0546115
0.0497986
0.0515318
0.049496
-0.0248117
0.0403257
0.0510511
0.058144
0.0497843
0.0510387
0.05102
0.0118721
0.00405426
0.056291
0.0502178
0.0838356
0.0572671
0.103004
0.38233
0.0237607
0.0454936
0.076368
0.0505153
-0.0511649
0.0515193