/*--------------------------------*- C++ -*----------------------------------*\
  =========                 |
  \\      /  F ield         | OpenFOAM: The Open Source CFD Toolbox
   \\    /   O peration     | Website:  https://openfoam.org
    \\  /    A nd           | Version:  7
     \\/     M anipulation  |
\*---------------------------------------------------------------------------*/
FoamFile
{
    version     2.0;
    format      ascii;
    class       volScalarField;
    location    "2.5";
    object      T;
}
// * * * * * * * * * * * * * * * * * * * * * * * * * * * * * * * * * * * * * //

dimensions      [0 0 0 1 0 0 0];

internalField   nonuniform List<scalar> 
2413
(
1.03267
1.03163
1.03038
1.02981
1.02961
1.02995
1.03124
1.03161
1.03133
1.03061
1.0296
1.0292
1.02916
1.02946
1.03092
1.03168
1.03162
1.03136
1.0306
1.0303
1.0303
1.03048
1.03183
1.03302
1.03305
1.03293
1.03247
1.03202
1.03202
1.03207
1.03296
1.03477
1.03526
1.03529
1.03524
1.03484
1.03471
1.03464
1.03483
1.03616
1.03723
1.03724
1.03711
1.03676
1.03631
1.03621
1.03618
1.03654
1.03787
1.03847
1.03841
1.03816
1.03776
1.03747
1.03733
1.03737
1.03801
1.03868
1.03865
1.03835
1.03792
1.0376
1.03744
1.03742
1.03789
1.03863
1.03863
1.03828
1.03774
1.03706
1.03667
1.03643
1.03643
1.03716
1.03794
1.03783
1.03746
1.03693
1.03635
1.03601
1.03575
1.03578
1.03652
1.03714
1.03705
1.03688
1.03675
1.03671
1.03667
1.03679
1.03739
1.03778
1.03765
1.03729
1.03691
1.03658
1.03638
1.03634
1.03668
1.03765
1.03794
1.03783
1.03755
1.03698
1.03656
1.03644
1.03642
1.03682
1.03816
1.03886
1.03884
1.03867
1.03827
1.03776
1.03752
1.0374
1.03746
1.03828
1.03927
1.03934
1.03919
1.03897
1.03878
1.0387
1.03866
1.03875
1.03927
1.03969
1.03966
1.03943
1.03916
1.03896
1.00359
1.00327
1.00289
1.00296
1.00319
1.00444
1.00689
1.0076
1.0077
1.00757
1.00715
1.00718
1.00733
1.00803
1.01012
1.01139
1.01149
1.01141
1.01081
1.01057
1.01062
1.01095
1.01247
1.0141
1.01427
1.01418
1.01362
1.01292
1.01278
1.01279
1.01345
1.01527
1.01602
1.01596
1.01571
1.01496
1.01447
1.01436
1.01443
1.01539
1.01705
1.01738
1.01727
1.01687
1.01611
1.01581
1.01579
1.01601
1.01716
1.01858
1.01881
1.01874
1.01833
1.01794
1.0179
1.01799
1.01855
1.01978
1.02028
1.02028
1.02
1.01956
1.0195
1.0196
1.01998
1.02105
1.02182
1.02185
1.02171
1.02119
1.02066
1.02054
1.02053
1.02088
1.0222
1.02303
1.02305
1.02294
1.02252
1.0221
1.02198
1.02196
1.02231
1.02344
1.02394
1.02393
1.02386
1.02375
1.02376
1.02385
1.02415
1.02493
1.02539
1.02534
1.02514
1.02478
1.02444
1.0243
1.02429
1.02475
1.02576
1.02602
1.02593
1.02571
1.02517
1.0248
1.02471
1.02472
1.02521
1.02652
1.02705
1.02701
1.02687
1.02644
1.02599
1.02583
1.02576
1.02592
1.02683
1.02756
1.02755
1.02742
1.0272
1.02703
1.02697
1.02696
1.02715
1.02773
1.02798
1.02791
1.02774
1.02759
0.962744
0.963101
0.963644
0.964445
0.96552
0.967395
0.970622
0.97258
0.973292
0.973502
0.973408
0.973939
0.974746
0.97584
0.978239
0.980283
0.980717
0.98076
0.980348
0.980077
0.98026
0.980862
0.982389
0.98435
0.984695
0.984647
0.984177
0.983495
0.983452
0.983492
0.984217
0.985984
0.986699
0.98672
0.986558
0.985639
0.985215
0.985196
0.985271
0.986247
0.988096
0.988563
0.988524
0.988224
0.98727
0.986887
0.986898
0.987065
0.988006
0.989595
0.990081
0.990122
0.990001
0.989476
0.989348
0.989457
0.989892
0.9911
0.992263
0.99251
0.992566
0.992416
0.992146
0.992236
0.992576
0.99334
0.994808
0.995568
0.995685
0.995677
0.995313
0.995037
0.995099
0.9953
0.996106
0.997793
0.998562
0.998708
0.99873
0.99849
0.998268
0.99832
0.998491
0.999128
1.00037
1.00083
1.00086
1.00082
1.00063
1.00061
1.00074
1.00107
1.00189
1.00265
1.00271
1.00269
1.00242
1.00205
1.00196
1.00193
1.00224
1.00321
1.00365
1.00362
1.00352
1.00306
1.0027
1.00266
1.00265
1.00301
1.00415
1.0048
1.0048
1.00478
1.00446
1.00405
1.00399
1.00398
1.00418
1.00499
1.00564
1.00565
1.00559
1.0054
1.00527
1.00527
1.0053
1.00562
1.00612
1.00626
1.00628
1.0063
0.912177
0.913342
0.915058
0.9164
0.917796
0.920073
0.923841
0.927005
0.928061
0.928874
0.929511
0.930117
0.931086
0.932603
0.935332
0.938016
0.93912
0.939503
0.939296
0.939402
0.940186
0.941169
0.943089
0.945663
0.946688
0.946965
0.946829
0.946787
0.947274
0.947988
0.949371
0.951548
0.952595
0.952958
0.952958
0.95257
0.952561
0.953076
0.953896
0.955562
0.957507
0.958124
0.958295
0.958166
0.957685
0.957601
0.957901
0.958571
0.959972
0.96166
0.9622
0.96232
0.962246
0.961954
0.961953
0.962221
0.962832
0.964249
0.965656
0.965968
0.966024
0.965908
0.965687
0.965742
0.966078
0.966813
0.968319
0.969376
0.969514
0.969517
0.969233
0.968862
0.968852
0.968978
0.969481
0.970922
0.972078
0.972266
0.97229
0.972098
0.971717
0.971694
0.971844
0.972341
0.973582
0.974502
0.974609
0.974584
0.974277
0.974027
0.974075
0.974348
0.975095
0.976338
0.976847
0.976901
0.976821
0.976411
0.976267
0.976319
0.976593
0.977495
0.978596
0.978818
0.978826
0.97864
0.978112
0.977971
0.978035
0.978327
0.979266
0.980574
0.980925
0.980959
0.980852
0.980358
0.980169
0.980244
0.980508
0.981272
0.982284
0.982527
0.982544
0.98247
0.982259
0.982231
0.982294
0.982542
0.983073
0.983365
0.983445
0.983551
0.845067
0.847802
0.850444
0.852442
0.85487
0.85806
0.861756
0.864557
0.867378
0.870812
0.872658
0.874503
0.877181
0.880574
0.883601
0.886848
0.890597
0.892246
0.893827
0.896096
0.89842
0.900713
0.90352
0.907132
0.909285
0.910353
0.911911
0.913656
0.915089
0.917159
0.920136
0.921689
0.922212
0.923151
0.924017
0.924597
0.925672
0.927488
0.930214
0.931526
0.932217
0.932814
0.933074
0.933381
0.933967
0.934519
0.93545
0.937415
0.9392
0.939659
0.939856
0.94004
0.940247
0.940468
0.940867
0.941587
0.943039
0.944469
0.944879
0.944955
0.944873
0.944818
0.944982
0.945345
0.945946
0.9473
0.94854
0.948772
0.948786
0.948591
0.948267
0.948243
0.948388
0.948877
0.950168
0.951423
0.951692
0.951733
0.951566
0.951203
0.951173
0.951364
0.951943
0.953279
0.954352
0.954545
0.954536
0.954229
0.953995
0.954076
0.954415
0.955256
0.956649
0.957266
0.957393
0.957345
0.957028
0.956947
0.95712
0.957572
0.958618
0.95989
0.960229
0.960297
0.960178
0.959748
0.959647
0.959811
0.960242
0.96131
0.962749
0.963191
0.963298
0.963222
0.96281
0.962688
0.962856
0.963264
0.964238
0.965354
0.965642
0.96572
0.965686
0.96556
0.965572
0.965687
0.965893
0.966363
0.966827
0.967012
0.967149
0.967374
0.810754
0.810235
0.810174
0.810215
0.810434
0.810897
0.811603
0.812308
0.812959
0.813797
0.814532
0.815325
0.816361
0.817946
0.819818
0.821854
0.824172
0.826211
0.828016
0.829971
0.832311
0.834543
0.836912
0.839874
0.84314
0.845565
0.847862
0.850877
0.853675
0.855993
0.858709
0.861928
0.864234
0.866649
0.869947
0.872841
0.875555
0.87893
0.882445
0.884131
0.886015
0.88876
0.891077
0.893076
0.895646
0.898631
0.900526
0.902438
0.904829
0.906268
0.907366
0.909004
0.911447
0.912824
0.913928
0.915495
0.917184
0.917921
0.918876
0.920492
0.921972
0.92247
0.923235
0.924183
0.924712
0.925467
0.926648
0.928126
0.929234
0.9296
0.929921
0.930213
0.930539
0.931051
0.931947
0.933447
0.93448
0.934874
0.935133
0.935128
0.93529
0.935659
0.936176
0.937389
0.938874
0.939351
0.939474
0.939332
0.939346
0.939627
0.939998
0.94079
0.942275
0.943091
0.943316
0.943396
0.943314
0.943361
0.94367
0.944126
0.945095
0.946503
0.947059
0.947233
0.94724
0.947018
0.946981
0.947203
0.947652
0.948712
0.950156
0.950661
0.950799
0.950783
0.95053
0.950465
0.950642
0.951108
0.952182
0.953158
0.953402
0.953469
0.953462
0.953476
0.953543
0.953643
0.953796
0.954049
0.954338
0.954692
0.955393
0.956352
0.816346
0.815965
0.815793
0.8154
0.814847
0.814136
0.812945
0.812143
0.81192
0.812011
0.812104
0.811912
0.811611
0.810788
0.810077
0.809719
0.809239
0.808811
0.808452
0.808066
0.807662
0.807444
0.807295
0.807183
0.807004
0.806653
0.806619
0.806658
0.806854
0.807402
0.808234
0.808734
0.809185
0.809753
0.810514
0.811477
0.812773
0.814314
0.816114
0.817627
0.819039
0.820732
0.822694
0.824522
0.826487
0.829188
0.831798
0.833766
0.835928
0.838498
0.840628
0.842881
0.845755
0.849176
0.851751
0.854111
0.857092
0.859283
0.86133
0.863993
0.867402
0.870142
0.872717
0.876
0.878249
0.879766
0.881844
0.884587
0.887175
0.889565
0.892224
0.895455
0.896818
0.897781
0.899336
0.901369
0.902965
0.904761
0.907399
0.909906
0.910609
0.911546
0.912976
0.913884
0.914735
0.915971
0.917982
0.919665
0.920624
0.921748
0.922392
0.922808
0.923473
0.924173
0.924927
0.926388
0.928313
0.929047
0.929213
0.929548
0.92995
0.93024
0.930675
0.931732
0.933456
0.934105
0.934321
0.934478
0.934614
0.934869
0.935217
0.935809
0.937099
0.937911
0.938061
0.938067
0.938103
0.938305
0.938564
0.938908
0.939631
0.940776
0.941259
0.941359
0.941306
0.941093
0.941052
0.941176
0.941373
0.941756
0.942807
0.944101
0.836356
0.835321
0.834418
0.833293
0.831652
0.829549
0.828132
0.826966
0.826206
0.825485
0.824494
0.823377
0.822175
0.820433
0.818943
0.818352
0.817677
0.8168
0.815937
0.815015
0.813995
0.813203
0.812593
0.811941
0.810894
0.809693
0.809285
0.808972
0.808687
0.808399
0.807979
0.807334
0.806449
0.80605
0.805904
0.805719
0.805299
0.804914
0.804473
0.803804
0.802942
0.802551
0.802332
0.802137
0.801973
0.801815
0.801586
0.801044
0.800798
0.800828
0.800873
0.801023
0.80135
0.801734
0.80198
0.80224
0.802694
0.803293
0.803878
0.804602
0.80572
0.806939
0.808041
0.809318
0.810793
0.812182
0.81352
0.81511
0.817178
0.819321
0.821379
0.823483
0.825798
0.827558
0.829329
0.831682
0.834284
0.836636
0.839129
0.842387
0.845044
0.847015
0.849393
0.852017
0.853867
0.856071
0.85913
0.862391
0.865008
0.867873
0.870866
0.872197
0.873697
0.875931
0.878035
0.880457
0.883912
0.887907
0.889151
0.890046
0.891645
0.892702
0.893827
0.895832
0.899237
0.902397
0.903441
0.904766
0.905553
0.905761
0.906581
0.907955
0.910184
0.912512
0.913891
0.915157
0.915622
0.915665
0.916199
0.917073
0.91816
0.920089
0.922125
0.922769
0.922921
0.923078
0.92357
0.92397
0.924419
0.925531
0.927596
0.928679
0.858205
0.856585
0.854785
0.852701
0.851557
0.850782
0.84976
0.848489
0.847191
0.845656
0.843701
0.842184
0.841434
0.840514
0.839351
0.837889
0.83653
0.835144
0.833699
0.832798
0.832005
0.830983
0.829465
0.827727
0.82659
0.825707
0.825009
0.824256
0.823351
0.822217
0.820577
0.818852
0.818171
0.817701
0.81704
0.816304
0.815457
0.814146
0.812323
0.811541
0.811127
0.810662
0.810182
0.809627
0.808822
0.807421
0.806423
0.806043
0.805726
0.805507
0.805194
0.804746
0.804047
0.802964
0.802403
0.802163
0.802082
0.802108
0.801886
0.801588
0.801036
0.800147
0.799716
0.799455
0.799164
0.798932
0.798716
0.798467
0.798027
0.797177
0.796726
0.796556
0.796456
0.796466
0.796549
0.796541
0.796496
0.796374
0.796285
0.796321
0.796474
0.796853
0.797616
0.798338
0.798684
0.799028
0.799596
0.800405
0.801319
0.802407
0.803763
0.805099
0.8063
0.807666
0.809146
0.810719
0.812497
0.814751
0.816545
0.817997
0.819701
0.821898
0.823894
0.826049
0.828911
0.831915
0.833871
0.835719
0.838184
0.840188
0.842174
0.844606
0.848109
0.85098
0.853249
0.855659
0.858419
0.860095
0.862059
0.864795
0.867811
0.870152
0.87247
0.875351
0.877459
0.878985
0.880868
0.883452
0.885507
0.887553
0.889847
0.892508
0.877295
0.875658
0.874828
0.87374
0.87266
0.871606
0.870128
0.868298
0.866742
0.865377
0.864457
0.863487
0.862303
0.861112
0.859654
0.857738
0.856456
0.855707
0.85479
0.853644
0.852246
0.850731
0.849173
0.84787
0.847176
0.846442
0.845447
0.844168
0.842627
0.84094
0.839579
0.838902
0.838251
0.837371
0.836302
0.835067
0.833506
0.831723
0.830837
0.830298
0.829563
0.828646
0.827735
0.826589
0.824847
0.823301
0.822739
0.822193
0.821411
0.820667
0.819853
0.818704
0.816904
0.815719
0.815219
0.814575
0.813853
0.813233
0.812468
0.811411
0.809825
0.808799
0.808202
0.807497
0.806997
0.806534
0.805917
0.805162
0.804093
0.803068
0.802294
0.801838
0.801583
0.801219
0.80082
0.800442
0.79996
0.79909
0.798067
0.797733
0.797517
0.797329
0.797264
0.79713
0.79685
0.796436
0.795647
0.795017
0.794809
0.794606
0.794343
0.794093
0.7939
0.79367
0.793176
0.792363
0.792025
0.791865
0.791735
0.791657
0.791601
0.791532
0.791412
0.791152
0.791093
0.791117
0.791175
0.791355
0.791721
0.792044
0.79231
0.792639
0.793144
0.793679
0.794218
0.794852
0.795838
0.796764
0.797671
0.798708
0.800013
0.801306
0.802562
0.804061
0.805764
0.807274
0.808731
0.810493
0.812601
0.814409
0.81621
0.818479
0.895281
0.894174
0.893116
0.892041
0.890551
0.888391
0.886906
0.885966
0.884922
0.883898
0.882892
0.881608
0.879734
0.877916
0.877027
0.876199
0.875228
0.874107
0.872828
0.871099
0.869619
0.868505
0.867604
0.866858
0.865952
0.864745
0.862893
0.86134
0.860411
0.859444
0.858676
0.85792
0.856909
0.855379
0.853633
0.852535
0.851537
0.850728
0.850091
0.849254
0.848105
0.84647
0.845066
0.843975
0.843069
0.842481
0.841794
0.840896
0.839653
0.838127
0.836854
0.835751
0.835037
0.834484
0.833753
0.832847
0.83158
0.830167
0.829002
0.827954
0.827308
0.826752
0.826039
0.825118
0.823863
0.822603
0.821536
0.820607
0.820042
0.819461
0.81874
0.817769
0.816657
0.815455
0.814564
0.814101
0.813537
0.812804
0.811839
0.810668
0.809758
0.808976
0.808476
0.808032
0.807411
0.806557
0.805188
0.804239
0.803697
0.803129
0.802748
0.802348
0.801794
0.801008
0.799737
0.7989
0.798522
0.798228
0.797975
0.797627
0.797191
0.796545
0.795521
0.794946
0.794664
0.79449
0.794348
0.794073
0.793702
0.793116
0.792505
0.79225
0.792108
0.792089
0.791908
0.791627
0.79114
0.790588
0.790237
0.789923
0.789694
0.78952
0.789305
0.789011
0.788487
0.788005
0.787812
0.787649
0.787563
0.787546
0.787475
0.787376
0.912197
0.911123
0.909748
0.907734
0.905864
0.90491
0.904054
0.903009
0.901943
0.90071
0.898908
0.897017
0.896052
0.895216
0.894251
0.89317
0.892005
0.890445
0.88856
0.887501
0.886776
0.88588
0.88492
0.883834
0.882259
0.880348
0.879406
0.878648
0.877761
0.876861
0.87592
0.874664
0.872816
0.871439
0.870743
0.869954
0.869089
0.868268
0.867253
0.865746
0.863991
0.86316
0.862402
0.861562
0.860845
0.860022
0.858901
0.857216
0.855985
0.855119
0.854236
0.853577
0.852908
0.852038
0.850826
0.849397
0.848244
0.847219
0.846462
0.845902
0.84518
0.844289
0.843161
0.841891
0.840708
0.839631
0.839006
0.838432
0.837691
0.836817
0.835775
0.834561
0.833469
0.83244
0.831765
0.831219
0.830513
0.829618
0.828446
0.827359
0.826529
0.825667
0.824979
0.824413
0.823669
0.822568
0.821202
0.820558
0.819983
0.819243
0.818571
0.817939
0.817085
0.815736
0.814609
0.814199
0.813683
0.812999
0.812427
0.811824
0.810962
0.809601
0.808608
0.808218
0.807705
0.807067
0.806581
0.806011
0.805168
0.803886
0.803152
0.802681
0.802079
0.801556
0.801076
0.80045
0.799446
0.798505
0.798086
0.797628
0.797093
0.79667
0.796199
0.795448
0.794496
0.794117
0.793873
0.793527
0.793147
0.792796
0.792335
0.791561
0.927693
0.925993
0.923928
0.922643
0.921744
0.920805
0.919697
0.918512
0.917
0.915001
0.91363
0.912805
0.911959
0.910915
0.909724
0.908301
0.906449
0.905045
0.90426
0.903476
0.902507
0.901345
0.899981
0.898263
0.896788
0.89601
0.895281
0.894364
0.893314
0.892107
0.890503
0.888857
0.888023
0.887369
0.886541
0.885572
0.884514
0.883142
0.881396
0.880355
0.879736
0.878983
0.878094
0.877207
0.876112
0.874522
0.87305
0.872389
0.871703
0.870859
0.870092
0.869232
0.86803
0.866334
0.865399
0.86473
0.863918
0.863175
0.862479
0.861572
0.860186
0.858796
0.85805
0.857291
0.856477
0.855856
0.855129
0.854144
0.852711
0.851725
0.850953
0.850071
0.849453
0.848824
0.847982
0.846768
0.845715
0.844911
0.844026
0.843382
0.842825
0.842066
0.841008
0.839699
0.838972
0.838313
0.837534
0.836938
0.83635
0.835522
0.834242
0.833113
0.832529
0.83186
0.83118
0.830701
0.830082
0.829186
0.827842
0.826955
0.82637
0.82565
0.825075
0.824592
0.823915
0.822847
0.821671
0.821077
0.820486
0.819801
0.819289
0.818707
0.817816
0.816488
0.815825
0.815365
0.814744
0.814197
0.813699
0.813029
0.811905
0.810658
0.810219
0.809758
0.809185
0.80878
0.808341
0.807722
0.806721
0.80548
0.804889
0.804339
0.941323
0.939464
0.93832
0.937391
0.936397
0.935307
0.933997
0.932174
0.93043
0.929413
0.928555
0.927608
0.926526
0.925214
0.923379
0.921838
0.920892
0.920025
0.919132
0.918109
0.916779
0.914946
0.91366
0.912615
0.911744
0.910962
0.910001
0.908723
0.907045
0.905692
0.904586
0.903782
0.903065
0.902163
0.90102
0.899505
0.898103
0.896912
0.896072
0.895413
0.894609
0.893611
0.892313
0.890927
0.88963
0.888653
0.888019
0.887324
0.886463
0.885382
0.884121
0.882822
0.881622
0.8809
0.880297
0.879546
0.878634
0.877606
0.876415
0.875066
0.874105
0.873529
0.872856
0.872032
0.871189
0.870215
0.868974
0.867695
0.867045
0.866426
0.865698
0.864871
0.864012
0.862994
0.861799
0.860777
0.860209
0.859606
0.858876
0.858006
0.85707
0.856043
0.854918
0.854137
0.853664
0.853057
0.852301
0.851409
0.850435
0.849428
0.84839
0.847771
0.847341
0.846731
0.845963
0.845102
0.844147
0.843129
0.842181
0.841704
0.841239
0.840602
0.839821
0.838983
0.838044
0.836993
0.836344
0.835938
0.835391
0.834709
0.833902
0.832978
0.832008
0.831156
0.830704
0.830295
0.829725
0.829034
0.828193
0.827213
0.826274
0.825543
0.825148
0.82476
0.82421
0.823553
0.822836
0.821932
0.820793
0.820044
0.819719
0.819337
0.953865
0.952772
0.951817
0.950813
0.949678
0.948269
0.946437
0.944958
0.944
0.943099
0.942105
0.940963
0.939478
0.937696
0.936418
0.935508
0.934645
0.933685
0.932541
0.931057
0.929325
0.928117
0.927309
0.926464
0.925514
0.924447
0.922995
0.921191
0.920175
0.919366
0.918487
0.917638
0.91664
0.915236
0.913493
0.912518
0.911624
0.910766
0.910019
0.909109
0.90789
0.906183
0.905056
0.90418
0.903311
0.902613
0.901818
0.900792
0.899298
0.897971
0.897057
0.896144
0.895437
0.89476
0.89389
0.892702
0.8913
0.890278
0.889334
0.888552
0.887948
0.8872
0.886253
0.884969
0.883825
0.882891
0.881991
0.881371
0.880736
0.879929
0.878849
0.877638
0.876681
0.875809
0.875051
0.874477
0.873793
0.872932
0.871712
0.870582
0.869828
0.869151
0.868465
0.867758
0.867053
0.866183
0.865014
0.863831
0.863269
0.862724
0.862042
0.861346
0.860653
0.859731
0.858453
0.857629
0.857151
0.856567
0.855869
0.855233
0.854499
0.853461
0.852293
0.851758
0.85129
0.850681
0.850027
0.849403
0.848587
0.847402
0.846461
0.846055
0.8456
0.845025
0.844398
0.843748
0.842888
0.841724
0.840872
0.840494
0.840085
0.839544
0.838966
0.838352
0.837524
0.836329
0.83549
0.835143
0.834705
0.834161
0.833643
0.833124
0.966075
0.965107
0.96408
0.96292
0.961473
0.959705
0.958411
0.957471
0.956534
0.955509
0.954306
0.952733
0.951106
0.949977
0.949091
0.9482
0.94718
0.945948
0.944284
0.942805
0.941843
0.940977
0.940095
0.939102
0.937849
0.936192
0.934812
0.933908
0.933117
0.93224
0.931239
0.930073
0.928506
0.927031
0.926206
0.925475
0.92459
0.92367
0.922612
0.921127
0.919568
0.918739
0.918035
0.917188
0.91632
0.915371
0.914088
0.912479
0.911521
0.910841
0.910044
0.909199
0.908352
0.90728
0.905786
0.904575
0.903901
0.903167
0.902331
0.901558
0.900659
0.899423
0.897997
0.897225
0.896551
0.895762
0.89499
0.89421
0.893217
0.891848
0.890793
0.890165
0.889474
0.888692
0.887959
0.887119
0.88601
0.884672
0.883925
0.883343
0.882663
0.881894
0.881155
0.880241
0.879111
0.878004
0.877263
0.876712
0.876119
0.875427
0.874616
0.873482
0.872499
0.871729
0.870941
0.87038
0.86982
0.86913
0.86824
0.86711
0.866337
0.865659
0.864898
0.86436
0.863855
0.863179
0.862219
0.861142
0.860428
0.859769
0.859066
0.858607
0.858114
0.857435
0.856507
0.855425
0.854715
0.85403
0.85351
0.853103
0.852551
0.851875
0.851009
0.850061
0.849247
0.848477
0.848014
0.847664
0.847157
0.846548
0.845829
0.844775
0.977373
0.97633
0.975155
0.97368
0.972014
0.97085
0.96991
0.968951
0.967898
0.966653
0.965051
0.963565
0.962572
0.961686
0.960745
0.959678
0.958339
0.956686
0.955455
0.954544
0.953675
0.952749
0.951673
0.950266
0.948653
0.947576
0.946727
0.945886
0.944978
0.943893
0.942479
0.940956
0.939888
0.939106
0.938329
0.937436
0.936349
0.93501
0.933543
0.932435
0.931691
0.930962
0.930099
0.929056
0.927832
0.926426
0.925216
0.924476
0.923804
0.922996
0.922024
0.920856
0.919564
0.9183
0.917478
0.916847
0.916106
0.915226
0.91416
0.912957
0.911699
0.910725
0.910097
0.909438
0.908646
0.907687
0.906587
0.90541
0.904282
0.903572
0.90299
0.902277
0.901437
0.900421
0.89931
0.898221
0.89729
0.896694
0.896099
0.895362
0.894468
0.893368
0.892315
0.891448
0.890622
0.889997
0.88941
0.888671
0.88774
0.886473
0.88565
0.884978
0.884239
0.883576
0.882942
0.882132
0.881177
0.880237
0.879287
0.878586
0.878085
0.8775
0.876787
0.875856
0.87491
0.874151
0.873355
0.872611
0.872148
0.871591
0.870871
0.870005
0.869181
0.868356
0.867474
0.866955
0.866477
0.865871
0.865154
0.864488
0.863704
0.862823
0.861892
0.861406
0.860925
0.860322
0.859655
0.859089
0.858396
0.857586
0.856721
0.855919
0.987788
0.986586
0.985083
0.983546
0.982472
0.981529
0.980548
0.979465
0.978163
0.97656
0.975277
0.97434
0.973432
0.972452
0.971333
0.969907
0.968368
0.967304
0.966426
0.965538
0.964557
0.963387
0.961864
0.960477
0.959552
0.958712
0.957834
0.956853
0.95564
0.954093
0.952843
0.951987
0.951191
0.950337
0.949364
0.948122
0.946593
0.945452
0.944622
0.943857
0.943046
0.942109
0.940881
0.939359
0.938281
0.937432
0.936698
0.935957
0.935077
0.933944
0.932415
0.931345
0.930462
0.929694
0.929023
0.928227
0.927232
0.925802
0.924624
0.923749
0.922928
0.922283
0.921574
0.920687
0.919452
0.918171
0.917288
0.916428
0.915747
0.915123
0.914335
0.913305
0.911977
0.911043
0.910242
0.909467
0.908859
0.908181
0.907317
0.906104
0.904955
0.904221
0.903492
0.902766
0.902133
0.901399
0.900455
0.89916
0.898253
0.897666
0.897018
0.896346
0.89557
0.894713
0.893753
0.892771
0.891809
0.891253
0.890744
0.890064
0.889233
0.888341
0.887448
0.886481
0.885737
0.885275
0.884693
0.883963
0.883177
0.882378
0.881473
0.880541
0.880008
0.879482
0.878821
0.878172
0.877497
0.876695
0.87569
0.874993
0.874481
0.873883
0.873181
0.872585
0.871916
0.871047
0.870275
0.869753
0.869163
0.86843
0.867713
0.867019
0.9974
0.995891
0.99447
0.993442
0.992489
0.991487
0.990372
0.989012
0.987472
0.986338
0.985415
0.984484
0.983472
0.982297
0.980812
0.979435
0.978478
0.977604
0.976684
0.975651
0.974377
0.972846
0.9717
0.970835
0.969982
0.96906
0.968001
0.966631
0.96515
0.96416
0.963348
0.962523
0.961618
0.960554
0.959126
0.957691
0.956786
)
;

boundaryField
{
    inlet
    {
        type            fixedValue;
        value           nonuniform 0();
    }
    outlet
    {
        type            inletOutlet;
        inletValue      nonuniform 0();
        value           nonuniform 0();
    }
    bottom
    {
        type            symmetryPlane;
    }
    top
    {
        type            symmetryPlane;
    }
    obstacle
    {
        type            zeroGradient;
    }
    front
    {
        type            empty;
    }
    back
    {
        type            empty;
    }
    procBoundary6to5
    {
        type            processor;
        value           nonuniform List<scalar> 
15
(
1.03322
1.00351
0.961956
0.910475
0.842451
0.842451
0.811013
0.816948
0.837271
0.859666
0.87951
0.896197
0.913281
0.928945
0.943101
)
;
    }
    procBoundary6to7
    {
        type            processor;
        value           nonuniform List<scalar> 
19
(
1.03883
1.02751
1.00632
0.983708
0.983708
0.967859
0.956703
0.944472
0.928962
0.893665
0.820821
0.787166
0.790948
0.803905
0.818777
0.83242
0.843943
0.855372
0.8663
)
;
    }
    procBoundary6to13
    {
        type            processor;
        value           nonuniform List<scalar> 5(0.955588 0.967137 0.978352 0.988846 0.998622);
    }
    procBoundary6to14
    {
        type            processor;
        value           nonuniform List<scalar> 
133
(
0.95602
0.95524
0.95438
0.953365
0.951968
0.950485
0.949586
0.948853
0.948119
0.947313
0.946376
0.945103
0.94359
0.942633
0.94191
0.941183
0.940421
0.939552
0.938394
0.936904
0.935887
0.935198
0.93448
0.933721
0.932917
0.93188
0.930441
0.929332
0.928678
0.928
0.927229
0.926475
0.925564
0.924256
0.923021
0.922373
0.921719
0.92096
0.920258
0.919452
0.91833
0.916997
0.91624
0.915632
0.914956
0.914211
0.913445
0.912521
0.911324
0.910242
0.909656
0.909094
0.908413
0.907616
0.906781
0.905788
0.904595
0.903827
0.90333
0.902669
0.901979
0.901269
0.900345
0.899107
0.89828
0.897777
0.897178
0.896461
0.895797
0.895063
0.894081
0.892967
0.892383
0.891816
0.891185
0.890595
0.889925
0.889047
0.88817
0.887394
0.886618
0.886061
0.885576
0.884969
0.884209
0.883286
0.882556
0.881912
0.881202
0.880672
0.880148
0.879467
0.878547
0.877758
0.87705
1.00626
1.00493
1.00392
1.00295
1.00193
1.00078
0.999383
0.997939
0.996892
0.995966
0.99501
0.993962
0.992724
0.99123
0.990021
0.989105
0.988216
0.987262
0.986185
0.984831
0.983381
0.982375
0.981529
0.980663
0.979712
0.978595
0.977136
0.975783
0.974894
0.974097
0.973262
0.97234
0.971245
0.96975
0.968355
0.967501
0.95602
0.966752
)
;
    }
}


// ************************************************************************* //
