/*--------------------------------*- C++ -*----------------------------------*\
  =========                 |
  \\      /  F ield         | OpenFOAM: The Open Source CFD Toolbox
   \\    /   O peration     | Website:  https://openfoam.org
    \\  /    A nd           | Version:  7
     \\/     M anipulation  |
\*---------------------------------------------------------------------------*/
FoamFile
{
    version     2.0;
    format      ascii;
    class       volScalarField;
    location    "0.992";
    object      T;
}
// * * * * * * * * * * * * * * * * * * * * * * * * * * * * * * * * * * * * * //

dimensions      [0 2 -2 0 0 0 0];

internalField   nonuniform List<scalar> 
12359
(
-1.00531e-74
-3.18441e-61
1.14594e-202
-1.27191e-40
-2.13165e-69
-1.21874e-27
8.17922e-23
-8.87505e-25
4.10953e-17
1.71229e-30
1.48411e-19
-5.26454e-13
0.275613
-6.11694e-38
-3.51006e-43
1.43407e-05
0.0027827
1.94913e-111
-1.61547e-113
-4.14646e-51
-2.86572e-35
9.46206e-15
5.56657e-56
3.42739e-48
-3.87529e-59
-2.34555e-54
3.31966e-146
-3.02497e-149
-3.55334e-120
3.80115e-138
1.17462e-132
-6.00905e-165
-5.86406e-180
2.71322e-141
1.47958e-191
-1.84461e-130
-5.38918e-90
-9.78305e-78
-7.94943e-72
-7.67482e-83
3.69633e-64
3.98314e-80
-2.55876e-97
1.40649e-100
1.97874e-124
-8.47993e-122
-1.72918e-127
-3.02396e-135
2.75655e-116
-1.75076e-143
-2.56823e-152
-2.17208e-157
-4.5296e-166
2.90445e-108
-1.30127e-171
1.37662e-177
5.83926e-103
1.19663e-182
-1.36809e-185
4.28691e-189
3.21024e-175
1.13279e-196
1.31104e-154
10.1128
-2.08522e-105
-1.99506e-33
-5.23379e-93
2.28871e-160
2.64265e-87
1.59788e-08
114.012
1.82147e-66
6.42403e-205
-4.3494e-85
1.66968e-45
-5.53233e-194
1.46215e-168
-1.6852e-199
5.4515e-95
-2.05458e-10
-1.28512e-26
-3.17097e-115
1.33069e-249
-1.48775e-73
0.00185069
1.11067e-68
-1.93326e-113
5.68488e-161
1.06132
0.000603285
7.65586e-220
3.00584
7.33942e-222
-1.22145e-95
-4.18406e-77
2.06461e-46
-3.46239e-100
-1.56172e-96
3.88315e-48
1.32748e-61
3.10835e-22
7.9852e-216
2.85765e-69
29.7843
-2.57696e-122
2.24999e-26
-4.40936e-213
0.0024066
2.86713e-77
2.02441e-27
-1.8161e-102
-5.61884e-115
-1.04556e-30
1.06485e-25
-9.70583e-78
-1.58099e-144
8.57549e-25
-2.55315e-114
3.66991
8.42504e-248
-2.76799e-103
2.04242e-22
1.40275e-159
1.6366e-32
-2.12458e-113
-6.09434e-135
3.58614e-16
-7.5312e-73
8.64864e-201
-2.45809e-114
7.19601e-144
2.11223e-05
0.000641413
0.000445108
-2.7476e-214
3.99729e-33
-8.63532e-146
2.49545e-34
5.57098e-212
5.06303e-17
-1.75192e-238
8.05678e-74
7.42428e-35
2.83e-213
3.08457e-17
2.27624e-27
-4.5195e-249
0.000760663
-1.0621e-121
2.97848e-26
7.93757e-44
3.45766e-214
3.09973e-34
7.00117e-158
-1.52261e-226
114.44
5.899e-23
2.03702e-05
-6.16257e-101
2.78042e-163
1.05972e-32
5.31533e-162
3.15226e-32
6.60903e-34
-8.06679e-236
-2.4977e-136
2.20847e-33
3.32841e-23
1.34718e-35
0.942254
-1.9893e-197
-1.70825e-195
1.71227e-36
2.39764e-60
-7.54789e-124
2.06269e-17
4.27094e-121
1.23127e-122
-1.74281e-30
2.55022e-18
-3.30051e-37
-3.65386e-224
5.36119e-200
-2.14813e-114
2.25971e-49
1.25629e-15
-6.3593e-96
-1.21865e-80
4.1586e-43
-2.45557e-95
-2.67759e-79
1.10919e-47
2.34911e-49
9.95253e-157
8.49682e-27
41.04
6.25884e-58
-1.80455e-95
2.60231e-34
-2.47424e-113
3.71289e-26
1.63339e-43
-2.75803e-61
1.66085e-27
3.98006e-20
-9.64021e-224
3.89737e-19
-7.41408e-61
1.18678e-27
3.65891e-104
1.0209e-231
5.35338e-13
9.06901e-13
155.658
3.66581e-15
-2.73384e-209
-1.11192e-95
-6.56582e-79
-3.76009e-95
3.07053e-72
4.93417e-26
-5.55559e-106
2.33637e-33
3.22332
-1.59473e-114
3.16513e-231
7.48586e-71
1.22245e-78
8.59111e-19
-3.09227e-93
-1.66847e-92
-1.47383e-237
1.54125e-17
3.72453e-56
-5.67825e-81
2.07853e-57
-1.96281e-246
2.53098e-32
-1.04637e-79
9.97632e-05
-5.70954e-228
1.20636e-65
-1.19984e-87
5.9707e-10
6.1458e-31
0.00112197
-4.55131e-187
1.71269e-28
2.18751e-129
1.38296e-49
3.04344e-18
-1.5273e-79
1.08944e-125
-1.21302e-92
1.39097
126.223
-1.75514e-245
1.2522e-108
1.48796
190.282
2.01916e-60
2.34393e-31
1.32342e-20
2.53086e-27
-2.90316e-61
60.1846
3.69389
1.42543e-29
4.17069e-110
2.7602e-33
8.36168e-36
4.05478e-49
7.2148e-35
-4.12637e-94
1.99595e-106
4.06726e-230
2.56389e-108
9.09497
2.43773e-29
-1.8674e-197
-8.86182e-214
4.70826e-27
1.1209e-107
-1.10133e-93
5.80211e-67
4.27977e-241
9.26385e-21
1.53474e-214
4.147e-215
5.27581e-165
4.61125e-33
-5.62491e-117
52.8493
-6.75409e-215
-9.07472e-213
2.46783e-68
-6.2071e-130
6.85169e-27
-9.79719e-82
-5.93431e-155
-6.83113e-220
8.24913
8.9543e-20
-3.02405e-221
-6.6817e-95
-5.04572e-83
-4.26234e-128
-6.41774e-143
6.72921e-146
-8.44293e-126
-2.68643e-113
-7.56792e-16
-1.00387e-128
1.47897e-133
-2.21299e-78
1.58154e-32
1.796
8.05365e-126
-7.07222e-52
5.17779e-06
-6.09468e-214
2.58704e-42
-4.69431e-196
4.24824e-57
9.80694e-212
4.60383e-124
7.20166e-16
3.72621e-39
3.003e-16
-8.89745e-95
-8.74612e-88
2.07551e-49
2.99017e-45
-1.00007e-86
9.91812e-50
7.86413e-50
7.67124e-179
-1.93743e-170
-1.02748e-170
-3.22386e-170
-2.08585e-169
0.000401506
-3.25908e-240
6.42438e-25
9.87617e-34
1.30669e-51
6.24403e-33
1.46717e-38
9.21592e-69
3.55805e-59
1.21874e-38
5.42726e-60
1.37211e-52
6.23354e-30
3.06741e-29
4.33221e-30
1.98216e-72
2.14977e-14
5.8162e-75
1.42635e-75
8.67435e-35
7.00778e-20
-2.31264e-118
3.23939e-170
1.61899e-57
1.09914e-171
-2.69753e-115
171.426
18.3326
2.03556e-116
6.08391e-210
2.20644e-216
-1.33214e-225
3.067e-39
-1.68707e-224
-6.69421e-225
1.30128
3.70654e-34
0.000472137
2.74969e-119
5.60128e-29
3.49474e-109
-1.80291e-86
2.76468e-26
2.93506e-58
-1.37156e-38
1.33073e-59
4.20466e-118
-3.37343e-197
1.37177e-34
6.6626e-29
2.6064e-116
1.45917e-11
1.57588e-26
2.86594e-46
4.55958e-41
1.17592e-34
-5.15004e-209
10.0344
1.30753e-13
1.81372e-117
1.94356e-10
-1.49662e-76
-1.81008e-236
1.25178e-236
-3.98246e-227
0.000877992
9.25236e-21
2.26042e-50
3.95167e-43
2.13885e-44
-1.01979e-75
-2.91847e-37
2.16913e-42
2.5537e-09
1.76276
2.54877e-11
3.71323e-51
4.51536e-31
8.00557e-76
2.28077e-27
1.9897e-63
3.6734e-56
2.8534e-141
6.99863e-65
7.85288e-37
-2.32583e-223
180.698
3.48727e-92
1.41475
7.78727e-30
-9.33355e-102
5.41723e-29
1.09274
8.14136e-37
1.34983e-57
1.73948e-46
8.90288e-29
1.42151e-26
-7.47148e-111
-2.4439e-231
1.52848e-23
-2.91651e-211
8.77645e-06
1.45284e-142
-2.57213e-54
2.34735e-34
1.0282e-91
0.00974393
3.87463e-24
-2.44547e-63
-7.69602e-111
4.51926e-05
4.52975e-184
-5.95867e-122
1.2541e-14
1.17442e-208
-9.21021e-111
-1.2704e-122
1.24432e-07
19.5017
-7.02587e-75
1.04569e-165
-3.46389e-32
1.6428e-35
1.66146e-42
6.95627e-33
2.20059e-35
1.61647e-177
-4.01586e-227
3.37558e-39
4.47226e-218
2.10751e-35
5.43059e-43
7.52308e-28
3.14632e-124
1.31819e-24
3.64152e-13
-2.83501e-140
-3.54189e-76
6.29673e-115
-1.04105e-28
2.28308e-14
-7.96131e-211
7.21622e-38
7.38755e-37
2.86867e-78
1.13019e-36
-1.82306e-142
5.66398e-21
3.73091e-60
1.43172e-31
3.38981e-28
5.99201e-176
-5.59892e-77
8.96113e-10
0.00217174
3.5467e-220
4.74169e-55
4.52774e-10
8.07577e-41
0.838032
-3.91289e-227
1.13611e-143
2.25166e-182
6.29802e-33
3.35053e-60
-1.99899e-70
-4.80337e-141
5.18401e-40
2.72298e-54
-1.19884e-59
-7.62594e-101
0.000296298
-7.17577e-206
0.000680569
1.7991e-162
148.324
4.8381e-59
1.72421e-10
1.60784e-186
1.6518e-125
1.91807e-31
-5.19067e-116
-2.92268e-156
-3.413e-97
1.37242e-58
1.08751e-58
5.04288e-12
4.9705e-23
4.21091e-23
-7.8946e-250
-7.85218e-116
4.72564e-41
0.00296006
-9.37442e-250
1.21844e-202
3.64593e-36
3.6286e-180
2.13359e-16
1.32548
106.295
-2.22324e-248
-4.71641e-77
2.19099e-17
-7.28198e-68
-2.9213e-124
91.312
6.39242e-204
1.71738e-23
3.05689e-33
5.41545e-78
-8.76159e-127
-1.60309e-153
3.33981e-93
3.34462e-34
1.59613e-60
-1.73695e-74
5.2998e-247
-2.05048e-199
1.10891e-63
1.62306e-121
3.02322e-27
3.7649e-33
2.26333e-163
-6.23507e-199
2.29678e-29
173.003
2.72091e-134
1.35091e-09
-2.70922e-217
-1.73593e-74
1.244e-23
1.29646e-40
5.68784e-19
4.87944e-28
2.96664e-59
1.50544e-30
-4.16179e-233
1.16825e-191
7.15842e-44
2.61498e-68
3.45754e-60
5.44565e-70
-3.88697e-226
-5.58069e-198
-1.96493e-134
7.84918e-47
1.29187e-26
-1.00082e-32
7.00099e-91
-4.83558e-31
3.29654e-35
2.84744e-56
-4.54652e-30
-1.07644e-54
1.77806
1.23816e-33
7.72491e-53
2.16028e-28
-9.81348e-193
7.40663e-23
4.80836e-31
2.61461e-250
2.57646e-210
2.70975e-179
9.9859e-185
5.55059e-07
7.77876e-56
1.41952e-84
-5.85756e-32
-1.32315e-96
8.21098e-16
1.61335e-41
8.52955e-34
-1.91463e-133
1.18827e-10
-1.22425e-226
-8.61597e-47
-1.7897e-111
7.25144e-19
-2.20171e-29
7.43111e-65
1.2675e-55
9.75763
3.52347e-36
1.68668e-13
4.37689e-64
1.76517e-11
0.625014
-5.20925e-171
-3.9701e-118
-9.28879e-228
2.54314e-08
-1.9289e-118
2.28546e-60
0.00814755
2.23494e-202
3.34884e-61
2.88395e-31
1.21694e-60
-1.2565e-131
9.93619e-66
-8.10407e-165
-9.43823e-65
9.79531e-167
-9.4177e-164
-3.956e-69
1.36003e-32
2.39592e-35
2.75386e-59
2.11965e-08
1.91331e-41
17.2082
1.08651e-35
2.2286e-67
-6.7944e-67
2.41816e-37
2.36023e-50
1.06951e-47
0.577492
-7.13161e-35
8.43254e-53
1.40787e-50
-6.15637e-112
1.53325e-122
7.72825e-30
-8.9699e-230
20.8333
-4.65421e-167
-6.31979e-34
5.82139e-22
4.12189e-07
1.38865e-18
1.4156e-28
1.96486e-32
5.87259e-65
8.55437e-19
4.77129e-41
2.17313e-13
3.63672e-50
2.18716e-13
2.2791e-51
3.62319e-242
5.33172e-51
178.284
4.30488e-13
1.77937e-91
-1.07091e-234
-1.8129e-161
8.19722e-84
-8.95863e-54
4.50576e-36
8.97739e-56
1.33583e-178
-2.59338e-90
7.25398e-50
-2.04929e-93
-1.18353e-100
1.54829e-12
-3.66789e-103
1.55127e-42
2.71029e-25
7.34539e-92
-1.54488e-83
1.17992e-27
-2.01091e-251
-6.8941e-87
53.5377
-1.07223e-189
3.20576e-16
1.3822e-22
1.17411e-84
3.38563e-32
2.17088e-25
1.00713e-51
5.0857e-26
-1.29541e-118
-3.0696e-32
-1.70821e-124
6.33557e-51
1.69539e-27
-5.13325e-31
-1.37698e-118
5.47796e-30
4.09214e-06
6.33505e-44
1.26279e-65
-8.60727e-112
2.77608e-22
7.29518e-07
-7.68608e-115
9.34471e-212
5.5155e-52
-2.13678e-221
0.743901
9.72068e-51
2.89783e-12
8.27928e-64
5.02225e-57
13.9195
9.53819e-62
0.00179798
2.80214e-37
101.475
1.53976e-40
-2.64967e-73
3.97122e-63
1.20936e-79
0.00418786
0.000398546
1.47264e-166
6.33331e-164
-6.30253e-29
2.63676e-154
0.00380119
1.0589e-27
4.1687e-10
-1.0614e-111
128.777
0.100891
4.99499e-50
1.5216e-241
-6.80833e-123
-4.62462e-37
3.45126e-82
6.24952e-90
1.29518e-79
1.78651e-36
3.3125e-42
50.6349
1.9834e-07
3.35994e-180
1.55004e-36
2.45956e-24
-9.89138e-28
2.03422e-69
1.69468e-22
1.3507e-30
-4.82442e-36
-8.02513e-130
2.64478e-239
2.08815e-20
1.99762e-17
1.23934e-57
-7.13956e-30
4.68727e-13
1.1668e-68
6.16801e-53
-4.66638e-110
5.5157e-76
9.13937e-15
1.18083e-73
6.27115e-25
5.45667e-39
3.44382e-46
9.49527e-92
5.1091e-75
1.45238e-06
9.14874e-66
1.6673e-69
50.4733
2.26943e-47
3.06458e-70
0.0101223
1.28333e-245
2.26731e-64
4.21113e-58
-7.82588e-83
-1.16686e-137
9.66401e-55
2.41358e-252
1.27639e-09
3.33244e-117
-2.76173e-58
5.27182e-21
4.93835e-32
8.76343e-60
1.92822e-62
1.94645e-21
93.7631
-2.0737e-191
-1.85951e-100
3.28197e-69
0.00854664
1.40667e-17
-4.23341e-120
3.46308
-8.96776e-239
-6.11278e-120
186.322
-3.10532e-91
-4.09531e-117
-2.40101e-114
3.35531e-40
-2.59962e-39
-3.30602e-188
-9.25965e-85
1.44599e-24
2.45161e-58
7.15681e-63
3.36865e-80
-1.38767e-169
-3.27399e-38
2.5378e-06
-1.43337e-65
-5.88398e-31
5.33434e-38
4.55182e-49
1.90372e-10
3.54546e-25
6.13299e-79
-3.08714e-118
0.000490946
3.36572e-32
1.06888e-45
-3.48945e-109
2.70731e-183
-8.9084e-37
8.07681e-11
8.41459e-68
1.91925e-28
2.17903e-66
1.13422e-78
1.46549e-99
7.2906e-39
151.668
19.5416
1.19239e-37
-1.16173e-62
4.11286e-101
6.75602e-40
0.0133525
-2.27171e-33
-2.02806e-121
2.37056e-11
8.16878e-08
9.51034
8.54552e-84
89.8584
-1.74493e-187
3.19136e-77
-1.14482e-183
6.4713e-11
1.52656e-44
83.918
-1.07307e-124
0.0216932
3.6577e-153
-1.84851e-63
2.14351e-28
1.54823e-84
4.87718e-12
0.143988
-1.52156e-89
7.98013e-91
4.55293e-64
6.6231e-85
-5.8708e-91
1.1027e-13
6.65863e-47
6.99053e-62
2.08941e-15
-4.47182e-91
3.12937e-178
-7.11131e-67
-1.80822e-160
1.25941e-26
9.31111e-64
4.1204e-09
6.41599e-11
-1.34896e-41
1.32684e-32
1.70627e-36
2.92225e-64
0.0133281
5.95436e-70
-3.32891e-95
-5.23831e-226
3.75545e-11
-1.44509e-34
-4.20776e-126
9.27119e-26
-1.11781e-80
7.61326e-33
-7.49951e-37
-2.87071e-32
1.21518e-37
91.86
4.47984e-36
-1.74273e-40
0.15362
4.42663e-84
2.54254e-07
8.62211e-24
3.87125e-157
1.6147e-68
1.1932e-99
5.47329e-68
-1.29727e-234
-2.5065e-113
2.9535e-07
3.60168e-11
-2.92789e-114
207.555
9.48907e-29
2.83566e-162
8.80511e-12
2.30277e-12
1.31396e-164
1.196e-10
6.64609e-22
3.62089e-11
-2.50711e-163
5.9128e-124
-1.04057e-98
2.76936e-165
-5.42416e-36
30.1508
-2.63581e-127
6.67548e-12
3.31766e-248
2.88297
2.42218e-26
2.22938e-34
-1.26766e-205
-6.74243e-129
1.46271e-76
3.46952e-39
3.98393e-15
1.88749e-33
-1.11269e-91
-8.33507e-88
-3.18323e-162
1.28321e-27
1.14385e-37
-6.11701e-100
9.32895e-209
1.54389e-53
9.51717e-34
2.29889e-43
-9.67958e-134
8.20575e-07
2.06052e-28
2.07943e-153
3.6613e-44
1.69576e-87
6.00477e-71
196.431
-1.73095e-92
1.15611e-160
1.03716e-36
-1.18319e-35
-6.15923e-44
3.09674
-6.11878e-61
2.96054e-72
2.60144e-32
-4.65935e-83
-3.09952e-81
8.37095e-71
-1.82764e-83
-1.11329e-28
-4.26864e-73
15.6557
-8.94178e-43
6.18621e-10
7.60336e-79
0.0142846
6.32971e-31
4.60496e-09
1.14633e-13
7.9217e-32
9.25497e-71
1.05231e-76
5.21148e-56
1.88125e-247
8.71818e-74
2.24541e-35
3.0064e-12
-1.97902e-83
1.25233e-154
6.23771e-34
3.94939e-34
1.8292e-16
9.00603e-39
1.74602e-11
2.45505e-16
-7.49865e-108
2.57474e-49
0.858049
1.5573e-36
-1.53735e-238
8.31542e-85
-6.57333e-86
5.34973e-241
1.61318e-50
-2.1661e-189
2.64948e-72
9.77622e-15
3.88108e-33
3.28818e-06
-2.01608e-185
-2.85256e-129
-5.57698e-220
-1.7498e-84
-7.36207e-101
4.47306e-09
-1.19904e-100
-8.69074e-129
5.70371e-07
6.3843e-35
8.17751e-45
9.14427e-52
3.60857e-17
-9.01016e-92
4.97073e-12
1.83432e-77
1.24117e-179
0.00217241
5.93953e-40
3.38772e-20
-1.46752e-97
57.7864
-3.62066e-39
1.18373e-43
4.13964e-32
1.56579e-29
48.1917
9.14088e-75
7.76523e-12
-5.28223e-49
3.85152e-45
-5.25664e-139
9.82234e-63
1.74843e-07
4.75303e-76
7.06522e-09
-7.04316e-90
-7.75841e-94
1.07071e-12
3.07131e-145
1.50592e-120
2.62357e-73
1.11284e-38
4.66292e-11
-5.10753e-91
1.17965e-85
-1.25151e-220
1.66273e-46
0.0025325
8.66993e-41
-1.46465e-85
2.79717e-61
-9.14503e-93
-1.60997e-124
14.9618
-2.65315e-46
-5.75106e-212
4.24041e-48
-2.791e-94
-5.83549e-38
-2.30483e-27
8.83987e-42
5.50473e-84
1.99219e-14
4.76055e-11
4.69712e-210
1.33209e-58
1.90975e-11
-2.14043e-126
-1.8991e-188
-1.19255e-62
8.03006e-49
7.30378e-78
-7.65288e-187
1.52632e-49
2.63783e-12
4.6116e-164
9.15886e-23
-1.10451e-190
2.55602e-98
2.74891e-54
4.77884e-05
-9.67048e-227
2.12491
-3.95373e-45
3.20233e-21
40.5331
-1.60096e-41
2.41555e-55
0.0342713
-3.18531e-84
1.60964e-05
1.12246e-18
-7.66105e-65
3.97219e-75
1.20669e-76
-1.20265e-94
-1.70875e-99
7.91349e-21
0.0317619
197.351
2.78311e-24
-1.55104e-28
0.0368553
1.57568e-26
15.2331
9.21992e-141
-3.88039e-93
1.35062e-18
1.33507e-41
-1.49073e-114
3.5782e-24
2.25238e-77
42.941
1.02794e-236
-5.35644e-129
1.25452e-134
207.009
-6.64378e-36
1.1945e-43
-4.63575e-75
6.84387e-19
1.55464e-79
-1.04952e-130
3.77442e-07
6.88104e-76
3.67379e-07
6.32481e-21
4.12527e-65
4.39858e-14
9.37664e-41
-1.93808e-93
-1.53997e-125
-5.24391e-123
0.240283
2.82393e-13
-2.60725e-102
1.14325e-17
5.3317e-45
2.66647e-24
-1.17294e-226
6.26147e-45
2.31843e-07
2.53499e-09
-2.61144e-40
-1.63693e-65
-1.38982e-127
2.02734e-15
-6.32793e-82
-2.34427e-130
4.80245e-10
1.67705e-16
-7.28997e-105
8.73424e-30
2.04211e-39
4.85e-222
-8.72033e-116
8.71489e-188
-2.65091e-39
87.2883
2.52332e-11
4.32375e-19
-2.65879e-109
8.16136e-80
3.2121e-39
2.42173e-215
3.6056e-09
1.87092e-41
95.3445
-2.84717e-27
2.63098e-69
-1.38925e-105
-2.08569e-139
1.98565e-75
-4.67346e-82
-1.32952e-112
15.209
6.45581e-15
4.51629e-35
7.94842e-17
-1.1099e-41
-2.96206e-125
-4.00846e-247
-4.95843e-113
1.04726e-25
0.939747
-1.18429e-21
1.62204e-43
-1.67241e-47
7.84636e-74
2.04153e-15
0.0403885
0.0239268
2.49148e-82
-1.52559e-67
8.56756e-28
2.13441e-94
4.58523e-181
-6.77846e-114
1.09637e-13
-4.57693e-102
2.87602e-57
-1.30228e-89
5.43e-40
4.05183e-08
-1.32576e-94
-1.26842e-113
3.15253e-10
2.3276e-14
-2.02638e-92
2.59229e-137
-1.03654e-48
0.00142482
3.60346e-25
4.46154e-22
-3.72614e-51
4.11993e-55
0.0731842
2.77257e-78
-1.00405e-21
-5.95252e-124
1.87445e-12
1.52384e-11
-1.35099e-165
-1.3583e-136
89.9448
-1.58949e-115
1.13529e-71
4.94133e-27
-1.94579e-105
-2.19944e-103
-9.01993e-91
-5.12101e-117
-7.9242e-220
1.87963e-16
1.78178e-05
-1.88561e-138
0.0186144
3.71549e-80
-5.115e-118
1.66399e-12
4.71392e-09
3.21141e-26
-6.28378e-83
-3.69982e-113
-6.44934e-44
153.931
-9.57811e-102
3.60354e-139
-1.23379e-144
-6.43495e-102
3.76207e-58
8.45019e-28
-1.21881e-104
-3.49806e-77
1.12573e-122
7.90037
9.03652e-09
3.12925e-38
-4.2507e-38
1.20224e-78
-5.36867e-118
2.59008e-15
1.49593
-1.32829e-71
-2.50683e-144
-1.65686e-119
1.6468e-13
-6.49538e-105
-3.1972e-125
4.54364e-08
-4.5759e-84
-1.67005e-113
118.519
1.38771e-05
13.7557
6.43846e-15
-2.04425e-104
1.02161e-11
2.30578e-10
0.186373
1.35464e-92
3.5064e-27
5.69732e-218
0.130738
1.87721e-241
-2.04168e-94
1.45946e-78
-5.22304e-143
1.36708e-39
4.97062e-92
-6.79448e-103
6.42324e-94
7.35942
4.84194e-14
1.72235e-35
-1.64298e-112
1.57701e-28
20.651
1.05174e-08
2.30542e-42
-6.15051e-50
-5.2994e-96
2.25131e-82
-1.21303e-139
2.83577e-106
-1.02606e-136
-4.63113e-115
-1.10719e-42
9.38341e-15
3.50207e-16
0.352754
0.000115606
1.53483e-08
9.9018e-24
0.132095
-8.6238e-127
4.27028e-05
-7.6689e-120
0.00167283
5.23569e-09
2.65866e-34
-7.9198e-104
7.03956e-34
4.35462e-22
1.00454e-61
93.205
2.01981e-12
0.410802
-1.51086e-116
1.23817e-09
3.6309e-07
8.97275e-10
1.68478e-07
1.06278e-10
-2.79165e-113
1.95122e-95
6.18824e-38
-6.23972e-108
5.40681e-28
-2.16433e-98
4.66145e-37
6.98979e-167
-2.96133e-88
7.17328e-20
1.10345e-28
-7.59788e-132
-2.36981e-46
0.984245
88.0637
-6.37706e-144
1.10695e-48
5.46112e-72
1.2967e-10
8.04971e-29
5.27894
4.86115e-05
1.32263e-94
5.1923e-38
2.72089e-07
-8.83854e-24
6.41404e-06
5.36212e-53
1.06202e-11
3.93961e-133
0.213119
2.14632e-08
1.37292e-135
1.59759e-07
0.186902
8.82751e-45
4.29197
2.97492e-83
8.84633e-09
2.21911e-76
-1.48419e-148
5.52783e-72
4.82261e-78
0.0910868
0.000759848
0.0424385
-2.0064e-132
7.34314
5.01394e-35
1.11184e-12
-4.1073e-31
8.97746e-40
3.90423e-48
0.0208405
1.31722e-81
7.76103e-91
7.90421e-19
4.58425e-09
1.54286e-27
1.04117e-17
-3.55544e-56
0.0557578
4.47299e-29
3.80611e-28
2.5575e-09
4.96666e-169
8.93106e-08
5.06259e-10
5.13291e-08
3.97322e-74
0.00103775
2.99385e-139
1.11289e-28
2.27147e-39
3.31429e-05
4.54725e-70
8.36477e-20
1.86308e-08
77.7562
-3.35353e-104
2.37487e-33
-1.92137e-46
3.25383e-08
5.31014e-18
-1.73546e-93
1.28711e-36
-5.04496e-141
12.9546
-2.83683e-224
1.21749e-141
3.34966e-186
1.18309e-06
-3.06644e-112
2.818e-36
8.09724
4.14602e-50
5.90533e-57
-1.5083e-106
4.37591e-176
1.17791e-09
9.82627e-144
-1.84805e-40
5.01055e-12
-4.13518e-45
3.31016e-06
-6.70686e-89
1.85677e-35
1.58671e-07
4.81638e-18
7.9344e-67
90.4741
-2.67086e-228
2.74245e-171
-3.25841e-84
228.782
4.536e-75
1.68299e-68
9.31436e-08
-1.10489e-103
-3.03136e-87
3.42355e-13
1.0189e-05
2.67378e-30
0.00966703
-9.05091e-104
-3.65147e-85
3.31133e-39
1.94016e-44
3.31432e-05
-2.35967e-121
1.74593e-64
-1.22386e-53
-1.59551e-18
9.27714e-58
-2.14814e-133
2.59408e-38
-9.80316e-19
7.27579e-198
5.02351e-193
4.75255e-05
6.63382e-30
9.13269e-05
1.40974e-86
2.66636e-236
-1.44801e-17
1.50086e-06
-8.22282e-125
-2.69997e-100
1.42503e-140
15.5639
9.27115e-198
2.1372e-31
8.31534e-05
-1.16868e-189
1.56784e-174
3.1994e-18
-1.35243e-151
1.47038e-193
1.02871e-37
4.16891e-13
-9.33564e-135
3.5709e-21
-5.29758e-145
1.1068e-07
2.19005e-238
1.45535e-07
6.16794e-13
1.4406e-19
1.53662e-189
1.11976e-14
5.68192
-1.52274e-95
2.96291e-47
3.8009e-153
2.05421e-13
-1.72096e-146
9.73048e-07
3.70678e-09
-1.18687e-81
1.96305e-182
1.75284e-13
8.11489e-14
1.81853e-43
3.38121e-41
3.04189e-16
-5.40165e-150
3.60064e-15
4.91132e-184
1.72404e-05
1.34571e-08
1.83139e-08
5.30834e-19
-8.14205e-23
12.1515
1.86828e-19
7.36863e-40
2.01327e-14
-5.72404e-97
1.02623e-11
3.75675e-16
-8.06118e-43
1.39085e-74
0.102905
8.16138e-202
0.0483583
111.724
-5.04976e-107
3.30664e-08
93.0568
5.0745e-34
1.88034e-37
6.02249e-16
-2.16507e-52
-3.09139e-140
7.75802e-08
0.0146122
0.903142
-1.38843e-96
2.98699e-14
0.000473572
4.064e-14
-9.12972e-115
2.08826e-168
3.15316e-29
0.0232508
8.93421e-09
3.83033e-16
-1.48461e-228
-6.08832e-147
2.37238e-14
-3.90557e-103
5.66757e-41
-6.51146e-99
2.01014e-179
2.70758e-07
2.84732e-81
0.000209683
9.46724e-43
1.67866e-160
3.00452e-168
5.59764e-15
-6.57217e-98
2.92166e-33
6.88048e-16
0.877342
-7.93779e-49
-1.45582e-132
2.65213e-06
7.43224e-94
-1.21075e-142
1.91984e-63
1.11876e-13
4.72323e-94
8.86547e-14
7.91701e-43
220.477
1.46763e-14
-5.9719e-125
0.000103668
1.38489e-185
6.03695e-09
1.85488e-35
7.98032e-06
0.00499876
-4.76435e-44
0.000165751
6.27103e-159
1.28472e-08
-3.98386e-119
8.91382e-50
3.83846e-05
1.32882e-26
1.42467e-05
0.0181824
-1.36159e-19
1.4868e-07
2.60331e-06
-1.16058e-129
-2.57912e-144
8.14462e-185
0.000212497
-4.46109e-24
-4.25336e-128
1.93904e-07
2.07667e-05
3.64085e-35
1.07438e-12
8.34018e-51
-1.87916e-33
0.00316637
1.50141e-70
1.38347e-27
4.42671e-32
-4.80334e-218
1.401e-216
-2.34805e-130
-1.59162e-96
6.00848e-42
7.14642e-162
3.66318e-82
-1.76418e-103
-2.57656e-61
2.04658e-16
-1.748e-113
1.51185e-06
5.52785e-240
2.4147e-11
4.50215e-06
-2.38232e-124
5.61606e-05
3.21903e-12
7.17272e-06
5.93847e-57
1.69331e-16
-2.49843e-105
7.124e-36
1.48508e-45
8.37652e-170
5.14702e-119
-8.28091e-90
-7.62389e-123
4.34397e-189
3.2817e-54
1.06154e-190
-2.6097e-30
2.69606e-22
0.0729678
1.83533e-163
2.52171e-60
2.62905e-160
-1.81776e-102
2.33069e-21
2.11478e-62
-5.06021e-126
122.173
2.75896e-14
4.63384e-30
4.2346e-58
5.85789e-15
2.53081e-23
3.02582e-60
1.54778e-17
2.39518e-13
-4.9079e-103
1.20411e-185
-1.30908e-79
2.02482e-07
-1.62465e-143
-1.07255e-130
1.09915e-13
3.71634e-108
-1.9447e-103
1.46674e-70
-3.08865e-133
0.00120262
7.0969e-162
-3.11245e-132
2.17496e-19
7.44158e-18
6.44226
3.62509e-13
-2.1478e-56
-7.95717e-126
2.09998e-16
-2.38791e-127
5.78138e-26
1.13474e-44
5.12897e-104
6.14111e-06
-1.71059e-194
2.90459e-21
2.24575e-52
9.75376e-15
-3.99563e-42
2.04591e-194
7.0077e-106
2.50909e-238
3.25644e-24
-1.54009e-145
9.68497e-19
3.24612e-41
-9.88339e-87
-6.68649e-55
4.82899e-37
2.65601e-187
8.0031e-21
4.26426e-21
-1.86652e-97
3.37694e-19
1.32643e-07
1.08286e-177
3.3807e-37
2.22627e-11
7.42703e-13
6.3246e-73
4.80615e-40
8.56606e-39
1.78704e-43
2.73544e-70
7.49116e-15
1.35801e-70
-2.24765e-124
-8.48614e-126
0.0628722
2.23581e-08
9.07714e-05
1.7788e-06
-1.45998e-34
3.24301e-20
2.04479e-41
1.54396e-18
-5.65194e-126
3.50852
-3.00708e-102
2.93325e-06
2.77059e-07
-7.76902e-129
-4.01063e-25
1.04768e-08
7.57142e-06
1.33953e-39
9.25137e-26
-1.01988e-127
1.27353e-208
7.80523e-15
1.11874e-185
2.58554e-165
4.19196e-17
-2.11587e-103
-4.34246e-64
-5.25442e-131
-9.51455e-85
8.12286e-15
11.2146
6.11954e-98
-4.43251e-105
2.02197e-08
-2.62361e-37
5.76041e-11
4.32239e-24
1.50937e-25
-4.54249e-105
1.39909e-36
8.90785e-16
8.42913e-17
-8.01483e-30
3.02225e-153
4.58091e-06
5.05435e-30
3.99158e-19
4.85421e-81
-3.08876e-130
1.78346e-16
6.94678e-96
-2.13617e-180
2.82291e-22
2.13949e-08
-5.95754e-164
1.09976e-20
2.57282e-44
-3.38951e-112
-7.83267e-73
-1.74198e-111
2.74306e-22
-2.81774e-124
-8.78347e-132
3.71803e-41
1.07719e-22
-3.21139e-39
-8.98406e-30
10.1946
-2.45482e-105
2.01814e-59
0.424771
6.1412e-32
-7.39509e-113
3.80624e-31
0.00793432
1.00419e-169
-2.67226e-106
7.54497e-181
2.85974e-25
1.76089e-14
2.27529e-44
2.40939e-192
-1.97307e-76
3.66182e-62
5.4724e-88
2.01822e-09
-3.17819e-99
2.21933e-191
1.88742e-187
2.49342e-27
3.15091e-40
1.81043e-05
-1.31537e-79
-1.43975e-47
4.97577e-28
1.34835e-14
-1.016e-142
8.98721e-24
7.09567e-173
3.53811e-165
5.80533e-194
8.22622e-10
-6.53911e-107
1.18549e-23
2.12712e-21
8.09966e-26
1.02819e-15
7.95751e-27
1.98284e-13
1.61376e-25
-5.16813e-100
2.63371e-27
-7.22992e-47
1.3046e-33
3.78001e-21
-4.05421e-105
41.6668
7.35483e-17
5.44966e-19
-8.63152e-163
1.59672
3.37042e-15
6.47629e-17
-5.77408e-31
2.09449e-06
1.25147e-61
6.79719e-103
-5.92937e-86
1.06577e-87
1.5279e-82
6.40683e-18
1.47558e-21
-1.01071e-112
1.98999e-24
2.02589e-89
2.83944e-82
8.93744e-50
-3.37862e-45
2.74715e-67
3.87326e-55
-5.78579e-44
3.19696e-23
1.43918e-25
3.3527e-46
-8.31004e-185
1.13121e-88
-1.31313e-97
8.01896e-11
-8.76326e-145
-8.45024e-110
7.64286e-25
1.76376
-1.4879e-123
2.69032e-05
-1.94018e-127
1.84865e-96
1.28738e-38
2.07354e-28
4.6859e-33
1.06554e-142
2.06071e-18
3.2996e-21
2.03081e-11
1.37983e-163
1.48773e-23
2.76546e-40
3.97269e-51
1.23571e-192
-3.97771e-228
3.34798e-27
5.17461e-40
4.5249e-58
54.3149
9.10556e-23
1.1824e-31
-9.97384e-25
7.14832e-42
3.77535e-11
-1.74745e-104
5.16363e-45
1.07148e-72
-2.37382e-85
0.0107072
4.82036e-22
2.30569e-21
9.51315e-35
-1.98351e-136
2.42347e-17
8.91426e-17
0.000232657
-2.20966e-83
1.05313e-31
0.000224959
8.38884e-05
-5.20525e-129
8.61978e-05
7.32073e-49
22.9788
8.07899e-178
3.38496e-24
2.57561e-35
7.08984e-199
1.90196e-14
1.13038e-62
1.83179e-76
1.56771e-08
0.00147374
5.99868e-05
1.37786e-75
3.73978e-26
-1.03185e-177
-1.96075e-97
4.68104e-06
3.07709e-30
1.77911e-74
7.58173e-18
2.40724e-22
3.38336e-27
2.19524e-38
3.48102e-36
1.72412e-21
0.00341159
-1.1118e-135
5.88334e-38
8.7948e-45
1.50112e-27
2.38938e-07
7.73031e-23
8.44584e-32
5.39032e-63
5.59145e-181
3.49713e-26
1.95185e-30
1.32428e-20
-7.11637e-140
6.50876e-55
3.01742e-23
6.05121e-24
-5.83026e-24
8.71345e-20
1.5929e-69
6.3031e-29
-2.5766e-108
1.42625e-13
5.2141e-51
1.67413e-25
7.68815e-62
2.45987e-74
1.59808e-22
1.33369e-55
1.87279e-63
-2.20275e-78
-2.19997e-138
4.9458e-28
9.73462e-50
2.01332e-52
20.5383
0.0107212
-1.56151e-107
6.46047e-76
1.41937e-36
2.21151e-39
1.03659e-192
8.23816e-30
-1.03631e-35
6.00933e-30
-6.60045e-179
1.59101e-13
2.83532e-18
9.24742e-16
1.21017e-29
-9.74597e-164
-4.83799e-92
1.95453e-59
1.27024e-28
7.35618e-09
15.4404
-1.23207e-132
5.83133e-66
1.37157e-68
5.34965e-07
0.000546232
0.000120682
1.14121e-50
3.49377e-21
-2.99215e-177
2.43308e-37
-2.57542e-51
-4.00295e-131
3.45743e-22
1.54347e-38
5.36907e-34
5.70479e-20
-6.14982e-70
8.63959e-40
3.58561e-31
-3.42029e-166
-3.70939e-249
7.82455e-42
-2.94174e-64
2.25338e-08
1.62456e-45
-7.17492e-23
2.25006e-13
-2.07622e-40
-1.49097e-132
-1.14381e-57
7.4183e-19
-2.86309e-136
0.282562
0.0623196
-9.2888e-111
6.36195e-173
-3.46412e-100
4.26294e-136
1.26052e-200
-3.05467e-60
1.4943e-63
-3.53414e-32
3.3936e-38
3.71846e-30
-1.28167e-47
2.9605e-05
6.97841e-19
1.03828e-31
2.0707e-38
4.3979e-49
1.5668e-34
-8.37743e-165
-2.33475e-72
7.80817e-65
-1.64276e-31
-7.5507e-26
1.74255e-09
3.10157e-203
-1.0562e-26
1.79918e-36
1.86305e-47
1.54161e-22
-7.43946e-40
1.75591e-24
0.00430005
9.30867e-37
3.33528e-18
7.03067e-48
-7.89192e-85
1.98353e-39
2.82679e-34
-6.58508e-137
3.25075e-40
0.0302405
-5.97672e-76
0.000240751
-9.93419e-130
8.15232e-34
-3.17299e-88
9.75368e-71
5.82193e-30
-1.00749e-20
1.20043e-21
3.14356e-68
3.05366e-42
7.8173e-48
6.83619e-18
6.11809e-12
-3.6189e-45
1.71051e-08
1.58967e-199
1.41144e-38
8.05278
1.72045e-14
6.99023e-69
0.419589
2.91104e-19
7.58729e-65
-1.36532e-152
1.03174e-10
1.29822e-34
4.14888e-49
1.35252e-35
1.15835e-150
2.24854e-20
6.91798e-77
5.81409e-14
6.04988e-36
2.91693e-31
-6.878e-30
8.22429e-244
-6.16425e-100
4.33181e-45
1.20167e-83
-4.28138e-87
1.53279e-55
5.45866e-74
1.15996e-60
-9.77761e-25
9.4955e-28
3.2917e-189
1.60976e-15
-2.91568e-98
-2.25461e-164
-1.94622e-27
-1.22625e-124
1.28779e-47
7.96351e-49
-1.70322e-138
-7.41036e-135
1.2801e-81
1.04951e-23
7.07611e-61
3.11922e-32
3.75991e-35
-1.90911e-26
3.30205e-25
9.08592e-50
4.50193e-42
3.8529e-38
-3.60731e-216
2.6248e-55
1.2704e-74
2.57445e-50
0.277109
4.87022e-26
-2.43346e-69
4.7689e-41
-1.54312e-62
1.53332e-64
4.99267e-70
4.44056e-62
4.23405e-65
-2.87161e-32
4.72571e-37
-3.98711e-166
7.41344e-25
-7.06379e-49
4.80929e-23
-1.67456e-154
-5.21325e-28
4.70006e-05
-1.04592e-94
-1.10416e-39
8.11743e-18
-1.15653e-115
2.20576e-26
1.80791e-13
4.28523e-37
-1.06306e-37
1.90907e-14
1.29647e-41
-4.4198e-50
2.25069e-40
1.64763e-24
1.29084e-121
1.7048e-70
4.2298e-207
-2.64094e-98
-4.49291e-153
1.21735e-39
2.3584e-37
5.31177e-26
-6.03099e-42
15.5686
-1.6963e-20
34.0519
1.00448e-35
4.9982e-10
11.2211
3.89719e-16
22.8758
1.55978e-68
1.91026e-41
2.27554e-46
6.60915e-52
5.72768e-45
3.25218e-99
4.70829e-46
4.98301e-90
-2.17085e-156
-2.36257e-51
4.25518
1.29939e-41
5.65205e-22
2.747e-44
7.28732e-83
1.75749e-37
3.54751e-37
4.84964e-108
4.42018e-43
-2.02414e-79
2.14036e-24
6.05129e-40
3.20417e-41
-4.57637e-42
0.473249
1.41885e-07
5.1599e-21
2.50706e-49
73.9371
3.74548e-43
8.12997e-54
2.43119e-28
-3.48745e-29
-2.70111e-58
1.12293e-16
-5.66539e-135
-7.16059e-37
-1.7161e-27
1.16306e-42
-6.91347e-44
7.36915e-74
4.30591e-39
-8.276e-34
9.19674e-67
1.01079e-27
3.52131e-47
4.31839e-60
-2.59576e-131
1.31305e-52
1.60919e-38
3.68643e-79
3.70904e-48
6.22088e-60
-1.04412e-99
-2.27041e-33
2.07201e-78
7.0102e-16
4.11897e-46
-1.13997e-63
-4.58511e-139
-7.00809e-98
7.91053e-15
7.18555e-39
-1.18734e-199
5.51777e-45
8.434
1.25617e-22
2.31233e-75
2.32014e-48
0.121519
0.817397
43.1555
1.72432e-84
3.71787e-86
2.14245e-105
2.57568e-59
3.76578e-29
0.00431461
0.0419986
6.39693e-13
5.69696e-19
5.89799e-73
-1.24413e-149
-9.85607e-148
-2.35186e-27
-3.4441e-74
4.54696e-25
-3.43161e-88
1.6016e-05
-3.2799e-86
1.87672e-42
3.19272e-12
-1.40425e-41
7.58856e-21
1.34342e-110
6.79539e-41
-3.47417e-162
6.36257e-18
2.34211e-19
1.29036e-65
-1.14041e-154
3.27065e-67
1.78776e-25
2.0618e-101
-1.77773e-44
0.118705
3.82022e-173
1.8787e-64
-5.15551e-38
-1.55928e-38
2.36387e-47
-3.45214e-114
-2.04951e-101
-2.56547e-102
1.66377e-196
-1.27394e-146
5.58906e-61
9.72024e-27
-3.6639e-163
1.04352e-72
-3.19544e-111
150.033
-3.34698e-28
-1.11894e-99
6.37142e-205
1.45809e-23
6.22206e-43
5.48519e-21
-4.62507e-46
5.13697e-43
-6.21804e-157
-1.68034e-98
2.41452e-16
-4.89148e-219
1.26406e-43
1.99128e-28
2.67973e-51
1.76625e-142
4.09122e-38
-1.81025e-191
3.23734e-58
4.57578e-60
6.08211e-100
4.77871e-08
7.15963e-54
8.74075e-64
1.84797e-61
-9.68895e-39
-2.17184e-49
-1.20404e-167
4.06776e-202
5.38111e-78
2.67659e-28
6.69547e-40
2.17534e-64
1.62643e-60
1.10958e-16