/*--------------------------------*- C++ -*----------------------------------*\
  =========                 |
  \\      /  F ield         | OpenFOAM: The Open Source CFD Toolbox
   \\    /   O peration     | Website:  https://openfoam.org
    \\  /    A nd           | Version:  7
     \\/     M anipulation  |
\*---------------------------------------------------------------------------*/
FoamFile
{
    version     2.0;
    format      ascii;
    class       surfaceScalarField;
    location    "1.7";
    object      phi;
}
// * * * * * * * * * * * * * * * * * * * * * * * * * * * * * * * * * * * * * //

dimensions      [0 3 -1 0 0 0 0];

internalField   nonuniform List<scalar> 
50880
(
5.62798e-12
-6.60694e-12
3.60834e-11
-3.04555e-11
8.11474e-11
-4.50642e-11
1.30928e-10
-4.9781e-11
1.783e-10
-4.73724e-11
2.18289e-10
-3.99889e-11
2.47464e-10
-2.91747e-11
2.63507e-10
-1.6043e-11
2.6489e-10
-1.38293e-12
2.50644e-10
1.42449e-11
2.2021e-10
3.04344e-11
1.73324e-10
4.68859e-11
1.09949e-10
6.3375e-11
3.02178e-11
7.97313e-11
-6.56066e-11
9.58244e-11
-1.7716e-10
1.11553e-10
-3.03999e-10
1.26839e-10
-4.45621e-10
1.41622e-10
-6.01475e-10
1.55854e-10
-7.70973e-10
1.69498e-10
-9.53498e-10
1.82526e-10
-1.14842e-09
1.94917e-10
-1.35507e-09
2.06655e-10
-1.5728e-09
2.1773e-10
-1.80093e-09
2.28133e-10
-2.0388e-09
2.37862e-10
-2.28571e-09
2.46913e-10
-2.541e-09
2.55288e-10
-2.80399e-09
2.6299e-10
-3.07401e-09
2.70022e-10
-3.3504e-09
2.7639e-10
-3.6325e-09
2.821e-10
-3.91966e-09
2.87161e-10
-4.21124e-09
2.91579e-10
-4.5066e-09
2.95365e-10
-4.80513e-09
2.98528e-10
-5.10621e-09
3.01078e-10
-5.40923e-09
3.03026e-10
-5.71362e-09
3.04383e-10
-6.01878e-09
3.05161e-10
-6.32415e-09
3.05371e-10
-6.62917e-09
3.05024e-10
-6.9333e-09
3.04134e-10
-7.23602e-09
3.02712e-10
-7.53679e-09
3.00771e-10
-7.83511e-09
2.98323e-10
-8.13049e-09
2.95382e-10
-8.42245e-09
2.91959e-10
-8.71052e-09
2.88068e-10
-8.99424e-09
2.83722e-10
-9.27317e-09
2.78933e-10
-9.54689e-09
2.73716e-10
-9.81497e-09
2.68082e-10
-1.0077e-08
2.62045e-10
-1.03326e-08
2.55618e-10
-1.05814e-08
2.48814e-10
-1.08231e-08
2.41646e-10
-1.10572e-08
2.34128e-10
-1.12835e-08
2.26273e-10
-1.15016e-08
2.18094e-10
-1.17112e-08
2.09605e-10
-1.1912e-08
2.00818e-10
-1.21038e-08
1.91748e-10
-1.22862e-08
1.82407e-10
-1.2459e-08
1.7281e-10
-1.26219e-08
1.6297e-10
-1.27748e-08
1.52901e-10
-1.29175e-08
1.42616e-10
-1.30496e-08
1.3213e-10
-1.3171e-08
1.21455e-10
-1.32816e-08
1.10607e-10
-1.33812e-08
9.95987e-11
-1.34697e-08
8.84455e-11
-1.35469e-08
7.71615e-11
-1.36126e-08
6.5761e-11
-1.36669e-08
5.42584e-11
-1.37095e-08
4.26684e-11
-1.37405e-08
3.1006e-11
-1.37598e-08
1.92861e-11
-1.37674e-08
7.52429e-12
-1.37631e-08
-4.2643e-12
-1.3747e-08
-1.60644e-11
-1.37192e-08
-2.78606e-11
-1.36795e-08
-3.96374e-11
-1.36282e-08
-5.13788e-11
-1.35651e-08
-6.30686e-11
-1.34904e-08
-7.46906e-11
-1.34042e-08
-8.62286e-11
-1.33065e-08
-9.76661e-11
-1.31975e-08
-1.08987e-10
-1.30773e-08
-1.20175e-10
-1.29461e-08
-1.31213e-10
-1.2804e-08
-1.42084e-10
-1.26513e-08
-1.52772e-10
-1.2488e-08
-1.63258e-10
-1.23145e-08
-1.73527e-10
-1.21309e-08
-1.83561e-10
-1.19376e-08
-1.93343e-10
-1.17347e-08
-2.02856e-10
-1.15226e-08
-2.12084e-10
-1.13016e-08
-2.21008e-10
-1.1072e-08
-2.29611e-10
-1.08342e-08
-2.37877e-10
-1.05884e-08
-2.45788e-10
-1.0335e-08
-2.53329e-10
-1.00746e-08
-2.60483e-10
-9.80732e-09
-2.67232e-10
-9.53376e-09
-2.7356e-10
-9.25431e-09
-2.79451e-10
-8.96942e-09
-2.84888e-10
-8.67957e-09
-2.89857e-10
-8.38522e-09
-2.94343e-10
-8.08689e-09
-2.98329e-10
-7.78509e-09
-3.01802e-10
-7.48035e-09
-3.04746e-10
-7.1732e-09
-3.07148e-10
-6.86421e-09
-3.08993e-10
-6.55394e-09
-3.10269e-10
-6.24298e-09
-3.10964e-10
-5.93191e-09
-3.11066e-10
-5.62135e-09
-3.10563e-10
-5.3119e-09
-3.09444e-10
-5.00421e-09
-3.07698e-10
-4.69889e-09
-3.05317e-10
-4.3966e-09
-3.02292e-10
-4.09798e-09
-2.98615e-10
-3.8037e-09
-2.9428e-10
-3.51442e-09
-2.8928e-10
-3.23081e-09
-2.83611e-10
-2.95355e-09
-2.77268e-10
-2.6833e-09
-2.70249e-10
-2.42075e-09
-2.62552e-10
-2.16657e-09
-2.5418e-10
-1.92143e-09
-2.45132e-10
-1.68602e-09
-2.35415e-10
-1.46099e-09
-2.25034e-10
-1.24699e-09
-2.13996e-10
-1.04468e-09
-2.02314e-10
-8.54676e-10
-1.90003e-10
-6.77594e-10
-1.77081e-10
-5.14021e-10
-1.63573e-10
-3.64513e-10
-1.49508e-10
-2.29592e-10
-1.34921e-10
-1.09734e-10
-1.19859e-10
-5.35975e-12
-1.04375e-10
8.31792e-11
-8.85392e-11
1.55617e-10
-7.24381e-11
2.11798e-10
-5.61804e-11
2.51702e-10
-3.99038e-11
2.75487e-10
-2.37854e-11
2.83542e-10
-8.05519e-12
2.76559e-10
6.98283e-12
2.55639e-10
2.09202e-11
2.22441e-10
3.31974e-11
1.79408e-10
4.30337e-11
1.30071e-10
4.93374e-11
7.94581e-11
5.06126e-11
3.46528e-11
4.48051e-11
5.32401e-12
2.93285e-11
5.32379e-12
2.99408e-11
-3.65478e-11
1.01205e-10
-1.0172e-10
1.95693e-10
-1.39553e-10
2.96275e-10
-1.50363e-10
3.88563e-10
-1.39661e-10
4.61301e-10
-1.12727e-10
5.06015e-10
-7.3889e-11
5.16507e-10
-2.65351e-11
4.88376e-10
2.67481e-11
4.18615e-10
8.40058e-11
3.05297e-10
1.43752e-10
1.47334e-10
2.04849e-10
-5.57119e-11
2.6642e-10
-3.03764e-10
3.27784e-10
-5.96345e-10
3.88405e-10
-9.32658e-10
4.47866e-10
-1.31165e-09
5.05833e-10
-1.73207e-09
5.62045e-10
-2.19252e-09
6.16294e-10
-2.69143e-09
6.68417e-10
-3.22719e-09
7.18284e-10
-3.79807e-09
7.65797e-10
-4.4023e-09
8.1088e-10
-5.03804e-09
8.53475e-10
-5.70345e-09
8.93544e-10
-6.39665e-09
9.31057e-10
-7.11574e-09
9.66001e-10
-7.85882e-09
9.98369e-10
-8.62399e-09
1.02816e-09
-9.40936e-09
1.05539e-09
-1.0213e-08
1.08007e-09
-1.10332e-08
1.10222e-09
-1.18679e-08
1.12187e-09
-1.27153e-08
1.13903e-09
-1.35737e-08
1.15376e-09
-1.44412e-08
1.16606e-09
-1.53162e-08
1.176e-09
-1.61967e-08
1.1836e-09
-1.70813e-08
1.1889e-09
-1.7968e-08
1.19195e-09
-1.88555e-08
1.19278e-09
-1.97419e-08
1.19146e-09
-2.06258e-08
1.18801e-09
-2.15055e-08
1.18249e-09
-2.23797e-08
1.17494e-09
-2.32468e-08
1.16542e-09
-2.41054e-08
1.15396e-09
-2.4954e-08
1.14063e-09
-2.57914e-08
1.12546e-09
-2.66162e-08
1.10851e-09
-2.74271e-08
1.08983e-09
-2.82229e-08
1.06947e-09
-2.90023e-08
1.04749e-09
-2.97642e-08
1.02392e-09
-3.05074e-08
9.98822e-10
-3.12308e-08
9.7225e-10
-3.19334e-08
9.44252e-10
-3.26142e-08
9.14881e-10
-3.32721e-08
8.84189e-10
-3.39062e-08
8.52227e-10
-3.45157e-08
8.19048e-10
-3.50995e-08
7.84705e-10
-3.5657e-08
7.4925e-10
-3.61874e-08
7.12735e-10
-3.66898e-08
6.75215e-10
-3.71635e-08
6.36743e-10
-3.7608e-08
5.97373e-10
-3.80226e-08
5.57158e-10
-3.84066e-08
5.16154e-10
-3.87595e-08
4.74415e-10
-3.90809e-08
4.31995e-10
-3.93703e-08
3.88952e-10
-3.96272e-08
3.4534e-10
-3.98512e-08
3.01217e-10
-4.00421e-08
2.5664e-10
-4.01995e-08
2.11665e-10
-4.03232e-08
1.66351e-10
-4.0413e-08
1.20756e-10
-4.04686e-08
7.49385e-11
-4.049e-08
2.89588e-11
-4.04772e-08
-1.71232e-11
-4.043e-08
-6.3247e-11
-4.03485e-08
-1.09352e-10
-4.02328e-08
-1.55376e-10
-4.00829e-08
-2.01257e-10
-3.9899e-08
-2.46934e-10
-3.96814e-08
-2.92341e-10
-3.94302e-08
-3.37417e-10
-3.91458e-08
-3.82095e-10
-3.88284e-08
-4.26313e-10
-3.84786e-08
-4.70005e-10
-3.80967e-08
-5.13106e-10
-3.76832e-08
-5.5555e-10
-3.72387e-08
-5.97272e-10
-3.67638e-08
-6.38205e-10
-3.62591e-08
-6.78281e-10
-3.57252e-08
-7.17436e-10
-3.51629e-08
-7.55602e-10
-3.45731e-08
-7.92713e-10
-3.39564e-08
-8.28702e-10
-3.33139e-08
-8.63503e-10
-3.26465e-08
-8.97048e-10
-3.19551e-08
-9.29273e-10
-3.12408e-08
-9.6011e-10
-3.05046e-08
-9.89495e-10
-2.97477e-08
-1.01736e-09
-2.89713e-08
-1.04365e-09
-2.81766e-08
-1.0683e-09
-2.73648e-08
-1.09123e-09
-2.65373e-08
-1.1124e-09
-2.56954e-08
-1.13174e-09
-2.48406e-08
-1.14919e-09
-2.39742e-08
-1.16469e-09
-2.30978e-08
-1.1782e-09
-2.22129e-08
-1.18964e-09
-2.13211e-08
-1.19897e-09
-2.0424e-08
-1.20614e-09
-1.95231e-08
-1.21109e-09
-1.86203e-08
-1.21378e-09
-1.77172e-08
-1.21417e-09
-1.68156e-08
-1.2122e-09
-1.59172e-08
-1.20785e-09
-1.50238e-08
-1.20107e-09
-1.41373e-08
-1.19183e-09
-1.32595e-08
-1.1801e-09
-1.23923e-08
-1.16584e-09
-1.15375e-08
-1.14905e-09
-1.06971e-08
-1.12968e-09
-9.87296e-09
-1.10774e-09
-9.06702e-09
-1.08321e-09
-8.28119e-09
-1.05608e-09
-7.51739e-09
-1.02635e-09
-6.77753e-09
-9.94042e-10
-6.06351e-09
-9.59155e-10
-5.37721e-09
-9.21717e-10
-4.72048e-09
-8.81759e-10
-4.09516e-09
-8.39323e-10
-3.50301e-09
-7.94464e-10
-2.94576e-09
-7.4725e-10
-2.42508e-09
-6.97766e-10
-1.94253e-09
-6.4612e-10
-1.4996e-09
-5.92439e-10
-1.09764e-09
-5.36882e-10
-7.37854e-10
-4.79643e-10
-4.21272e-10
-4.20957e-10
-1.48696e-10
-3.61116e-10
7.93441e-11
-3.00478e-10
2.62653e-10
-2.3949e-10
4.01458e-10
-1.78708e-10
4.96506e-10
-1.18834e-10
5.49211e-10
-6.07595e-11
5.61823e-10
-5.62946e-12
5.37668e-10
4.50748e-11
4.81445e-10
8.94193e-11
3.99608e-10
1.24871e-10
3.00803e-10
1.48143e-10
1.96316e-10
1.55099e-10
1.00321e-10
1.40801e-10
2.93111e-11
1.00338e-10
3.46347e-11
4.48517e-11
-8.13997e-11
1.39292e-10
-1.9616e-10
2.56798e-10
-2.57059e-10
3.75682e-10
-2.69247e-10
4.77626e-10
-2.41605e-10
5.47725e-10
-1.82826e-10
5.74247e-10
-1.00411e-10
5.48219e-10
-5.07276e-13
4.62991e-10
1.11976e-10
3.13812e-10
2.33184e-10
9.74801e-11
3.60084e-10
-1.87962e-10
4.90291e-10
-5.43468e-10
6.21926e-10
-9.69183e-10
7.53498e-10
-1.4646e-09
8.83822e-10
-2.02868e-09
1.01195e-09
-2.65998e-09
1.13713e-09
-3.35668e-09
1.25875e-09
-4.1167e-09
1.37632e-09
-4.93775e-09
1.48946e-09
-5.81732e-09
1.59786e-09
-6.75278e-09
1.70127e-09
-7.74141e-09
1.7995e-09
-8.78035e-09
1.89242e-09
-9.86671e-09
1.9799e-09
-1.09975e-08
2.06189e-09
-1.21699e-08
2.13832e-09
-1.33807e-08
2.20917e-09
-1.46269e-08
2.27443e-09
-1.59056e-08
2.33411e-09
-1.72138e-08
2.38824e-09
-1.85484e-08
2.43685e-09
-1.99065e-08
2.47998e-09
-2.12852e-08
2.51768e-09
-2.26815e-08
2.55003e-09
-2.40925e-08
2.5771e-09
-2.55154e-08
2.59894e-09
-2.69475e-08
2.61566e-09
-2.83859e-08
2.62732e-09
-2.9828e-08
2.63403e-09
-3.12711e-08
2.63587e-09
-3.27126e-08
2.63293e-09
-3.41499e-08
2.62533e-09
-3.55805e-08
2.61315e-09
-3.70021e-08
2.59649e-09
-3.84121e-08
2.57548e-09
-3.98084e-08
2.5502e-09
-4.11885e-08
2.52076e-09
-4.25503e-08
2.48728e-09
-4.38917e-08
2.44986e-09
-4.52105e-08
2.40861e-09
-4.65046e-08
2.36364e-09
-4.77722e-08
2.31507e-09
-4.90113e-08
2.26301e-09
-5.022e-08
2.20756e-09
-5.13966e-08
2.14884e-09
-5.25393e-08
2.08697e-09
-5.36465e-08
2.02205e-09
-5.47165e-08
1.95421e-09
-5.57479e-08
1.88356e-09
-5.6739e-08
1.81022e-09
-5.76886e-08
1.73429e-09
-5.85953e-08
1.65591e-09
-5.94577e-08
1.57518e-09
-6.02747e-08
1.49222e-09
-6.10451e-08
1.40715e-09
-6.17679e-08
1.3201e-09
-6.24419e-08
1.23118e-09
-6.30662e-08
1.14051e-09
-6.364e-08
1.04821e-09
-6.41624e-08
9.54411e-10
-6.46327e-08
8.59231e-10
-6.50502e-08
7.62797e-10
-6.54142e-08
6.65233e-10
-6.57242e-08
5.66666e-10
-6.59798e-08
4.67223e-10
-6.61805e-08
3.67032e-10
-6.63259e-08
2.66224e-10
-6.64159e-08
1.64929e-10
-6.64502e-08
6.32781e-11
-6.64288e-08
-3.8594e-11
-6.63515e-08
-1.40554e-10
-6.62184e-08
-2.42465e-10
-6.60295e-08
-3.44192e-10
-6.57852e-08
-4.45598e-10
-6.54856e-08
-5.46543e-10
-6.5131e-08
-6.46888e-10
-6.4722e-08
-7.46491e-10
-6.42589e-08
-8.45211e-10
-6.37423e-08
-9.42904e-10
-6.31728e-08
-1.03943e-09
-6.25513e-08
-1.13464e-09
-6.18785e-08
-1.22839e-09
-6.11552e-08
-1.32054e-09
-6.03825e-08
-1.41093e-09
-5.95613e-08
-1.49943e-09
-5.86929e-08
-1.58588e-09
-5.77783e-08
-1.67014e-09
-5.6819e-08
-1.75207e-09
-5.58162e-08
-1.8315e-09
-5.47714e-08
-1.90831e-09
-5.36861e-08
-1.98234e-09
-5.25619e-08
-2.05344e-09
-5.14005e-08
-2.12148e-09
-5.02037e-08
-2.18631e-09
-4.89733e-08
-2.24778e-09
-4.77112e-08
-2.30576e-09
-4.64194e-08
-2.3601e-09
-4.51e-08
-2.41068e-09
-4.3755e-08
-2.45735e-09
-4.23868e-08
-2.49999e-09
-4.09975e-08
-2.53845e-09
-3.95896e-08
-2.57262e-09
-3.81654e-08
-2.60238e-09
-3.67274e-08
-2.6276e-09
-3.52782e-08
-2.64816e-09
-3.38204e-08
-2.66396e-09
-3.23566e-08
-2.67489e-09
-3.08895e-08
-2.68084e-09
-2.9422e-08
-2.68172e-09
-2.79568e-08
-2.67744e-09
-2.64967e-08
-2.6679e-09
-2.50448e-08
-2.65304e-09
-2.36038e-08
-2.63277e-09
-2.21769e-08
-2.60704e-09
-2.07669e-08
-2.57578e-09
-1.9377e-08
-2.53895e-09
-1.80102e-08
-2.49651e-09
-1.66695e-08
-2.44844e-09
-1.5358e-08
-2.39471e-09
-1.40788e-08
-2.33532e-09
-1.28348e-08
-2.27029e-09
-1.16292e-08
-2.19962e-09
-1.0465e-08
-2.12338e-09
-9.34514e-09
-2.0416e-09
-8.27251e-09
-1.95439e-09
-7.24999e-09
-1.86184e-09
-6.28037e-09
-1.76409e-09
-5.36631e-09
-1.66131e-09
-4.51038e-09
-1.5537e-09
-3.71499e-09
-1.44151e-09
-2.98237e-09
-1.32506e-09
-2.31454e-09
-1.20471e-09
-1.71326e-09
-1.08092e-09
-1.18e-09
-9.54219e-10
-7.15831e-10
-8.25287e-10
-3.21379e-10
-6.94932e-10
3.27993e-12
-5.64149e-10
2.58741e-10
-4.34169e-10
4.46423e-10
-3.06516e-10
5.68756e-10
-1.83093e-10
6.29413e-10
-6.6286e-11
6.33592e-10
4.08959e-11
5.88354e-10
1.34656e-10
5.03006e-10
2.10219e-10
3.89492e-10
2.61656e-10
2.62744e-10
2.81848e-10
1.40828e-10
2.62717e-10
4.47873e-11
1.96379e-10
7.94218e-11
4.9764e-11
-1.31164e-10
1.50539e-10
-2.96936e-10
2.69683e-10
-3.76202e-10
3.81957e-10
-3.81522e-10
4.66514e-10
-3.26163e-10
5.06253e-10
-2.22565e-10
4.87423e-10
-8.15816e-11
3.99228e-10
8.76876e-11
2.33419e-10
2.77785e-10
-1.6074e-11
4.82677e-10
-3.53491e-10
6.97501e-10
-7.8155e-10
9.1835e-10
-1.30171e-09
1.14208e-09
-1.91438e-09
1.36617e-09
-2.61912e-09
1.58856e-09
-3.41477e-09
1.80761e-09
-4.29961e-09
2.02196e-09
-5.27141e-09
2.23055e-09
-6.32757e-09
2.43248e-09
-7.46517e-09
2.62705e-09
-8.681e-09
2.81369e-09
-9.97167e-09
2.99193e-09
-1.13336e-08
3.16142e-09
-1.27631e-08
3.32188e-09
-1.42562e-08
3.47309e-09
-1.58092e-08
3.6149e-09
-1.74181e-08
3.74719e-09
-1.90788e-08
3.8699e-09
-2.07874e-08
3.983e-09
-2.25398e-08
4.08649e-09
-2.43319e-08
4.18039e-09
-2.61598e-08
4.26474e-09
-2.80195e-08
4.33962e-09
-2.99069e-08
4.40511e-09
-3.18182e-08
4.4613e-09
-3.37494e-08
4.50832e-09
-3.56967e-08
4.54627e-09
-3.76564e-08
4.5753e-09
-3.96246e-08
4.59554e-09
-4.15977e-08
4.60715e-09
-4.35721e-08
4.61028e-09
-4.55443e-08
4.60509e-09
-4.75107e-08
4.59175e-09
-4.9468e-08
4.57043e-09
-5.14128e-08
4.5413e-09
-5.33419e-08
4.50454e-09
-5.5252e-08
4.46034e-09
-5.71401e-08
4.40888e-09
-5.90032e-08
4.35034e-09
-6.08383e-08
4.28491e-09
-6.26424e-08
4.21279e-09
-6.44129e-08
4.13416e-09
-6.61471e-08
4.04922e-09
-6.78423e-08
3.95817e-09
-6.94959e-08
3.86119e-09
-7.11055e-08
3.75849e-09
-7.26689e-08
3.65027e-09
-7.41835e-08
3.53672e-09
-7.56474e-08
3.41805e-09
-7.70582e-08
3.29445e-09
-7.84142e-08
3.16613e-09
-7.97132e-08
3.0333e-09
-8.09534e-08
2.89616e-09
-8.21331e-08
2.7549e-09
-8.32507e-08
2.60975e-09
-8.43044e-08
2.46091e-09
-8.52929e-08
2.30858e-09
-8.62147e-08
2.15299e-09
-8.70685e-08
1.99433e-09
-8.78532e-08
1.83284e-09
-8.85675e-08
1.66871e-09
-8.92104e-08
1.50217e-09
-8.9781e-08
1.33343e-09
-9.02785e-08
1.16272e-09
-9.07021e-08
9.90256e-10
-9.10512e-08
8.16265e-10
-9.13251e-08
6.40971e-10
-9.15235e-08
4.64602e-10
-9.16459e-08
2.87388e-10
-9.16922e-08
1.09559e-10
-9.16622e-08
-6.86514e-11
-9.15557e-08
-2.47007e-10
-9.13729e-08
-4.2527e-10
-9.11139e-08
-6.03201e-10
-9.07789e-08
-7.8056e-10
-9.03684e-08
-9.57103e-10
-8.98827e-08
-1.13259e-09
-8.93224e-08
-1.30676e-09
-8.86882e-08
-1.47938e-09
-8.79809e-08
-1.6502e-09
-8.72014e-08
-1.81896e-09
-8.63506e-08
-1.98541e-09
-8.54297e-08
-2.14929e-09
-8.44399e-08
-2.31036e-09
-8.33825e-08
-2.46836e-09
-8.22589e-08
-2.62303e-09
-8.10707e-08
-2.77411e-09
-7.98195e-08
-2.92135e-09
-7.8507e-08
-3.06449e-09
-7.71353e-08
-3.20328e-09
-7.57061e-08
-3.33746e-09
-7.42217e-08
-3.46678e-09
-7.26841e-08
-3.59098e-09
-7.10958e-08
-3.70982e-09
-6.94591e-08
-3.82303e-09
-6.77765e-08
-3.93038e-09
-6.60506e-08
-4.03162e-09
-6.42842e-08
-4.12652e-09
-6.248e-08
-4.21482e-09
-6.06411e-08
-4.29631e-09
-5.87703e-08
-4.37074e-09
-5.68709e-08
-4.4379e-09
-5.4946e-08
-4.49756e-09
-5.29988e-08
-4.54952e-09
-5.10329e-08
-4.59356e-09
-4.90515e-08
-4.62949e-09
-4.70584e-08
-4.65712e-09
-4.5057e-08
-4.67625e-09
-4.30512e-08
-4.68672e-09
-4.10445e-08
-4.68836e-09
-3.90409e-08
-4.68102e-09
-3.70443e-08
-4.66454e-09
-3.50585e-08
-4.6388e-09
-3.30876e-08
-4.60368e-09
-3.11356e-08
-4.55907e-09
-2.92065e-08
-4.50487e-09
-2.73044e-08
-4.44102e-09
-2.54335e-08
-4.36746e-09
-2.35978e-08
-4.28413e-09
-2.18015e-08
-4.19103e-09
-2.00486e-08
-4.08817e-09
-1.83434e-08
-3.97555e-09
-1.66897e-08
-3.85325e-09
-1.50917e-08
-3.72135e-09
-1.35534e-08
-3.57997e-09
-1.20785e-08
-3.42927e-09
-1.06709e-08
-3.26946e-09
-9.33416e-09
-3.1008e-09
-8.07188e-09
-2.92359e-09
-6.88735e-09
-2.73823e-09
-5.78369e-09
-2.54517e-09
-4.76376e-09
-2.34499e-09
-3.83012e-09
-2.13836e-09
-2.98495e-09
-1.92608e-09
-2.23002e-09
-1.70915e-09
-1.56658e-09
-1.48873e-09
-9.95249e-10
-1.26626e-09
-5.15929e-10
-1.04347e-09
-1.27631e-10
-8.22468e-10
1.71689e-10
-6.05835e-10
3.85337e-10
-3.9674e-10
5.18134e-10
-1.99083e-10
5.76698e-10
-1.76683e-11
5.69768e-10
1.41586e-10
5.08544e-10
2.71442e-10
4.07042e-10
3.63159e-10
2.82437e-10
4.06453e-10
1.55395e-10
3.89759e-10
5.06574e-11
3.01117e-10
1.30079e-10
4.75809e-11
-1.78745e-10
1.40511e-10
-3.89866e-10
2.43274e-10
-4.78965e-10
3.28438e-10
-4.66687e-10
3.73597e-10
-3.71321e-10
3.60352e-10
-2.0932e-10
2.73759e-10
5.01099e-12
1.0189e-10
2.59556e-10
-1.64542e-10
5.44217e-10
-5.32523e-10
8.50657e-10
-1.00706e-09
1.17203e-09
-1.59145e-09
1.50275e-09
-2.28758e-09
1.83822e-09
-3.09611e-09
2.1747e-09
-4.01668e-09
2.50913e-09
-5.04808e-09
2.839e-09
-6.18837e-09
3.16225e-09
-7.43502e-09
3.4772e-09
-8.78502e-09
3.78248e-09
-1.02349e-08
4.07695e-09
-1.17809e-08
4.3597e-09
-1.3419e-08
4.62999e-09
-1.51448e-08
4.88724e-09
-1.69539e-08
5.13097e-09
-1.88416e-08
5.36082e-09
-2.08032e-08
5.57652e-09
-2.28339e-08
5.77788e-09
-2.49288e-08
5.96476e-09
-2.70829e-08
6.13709e-09
-2.92912e-08
6.29484e-09
-3.15489e-08
6.43802e-09
-3.38508e-08
6.5667e-09
-3.61922e-08
6.68096e-09
-3.85679e-08
6.7809e-09
-4.09733e-08
6.86666e-09
-4.34034e-08
6.93841e-09
-4.58534e-08
6.99631e-09
-4.83187e-08
7.04057e-09
-5.07945e-08
7.07138e-09
-5.32763e-08
7.08896e-09
-5.57596e-08
7.09356e-09
-5.82399e-08
7.0854e-09
-6.07129e-08
7.06474e-09
-6.31743e-08
7.03183e-09
-6.562e-08
6.98694e-09
-6.80458e-08
6.93034e-09
-7.04477e-08
6.8623e-09
-7.28219e-08
6.7831e-09
-7.51646e-08
6.69302e-09
-7.7472e-08
6.59235e-09
-7.97406e-08
6.48138e-09
-8.19669e-08
6.36041e-09
-8.41474e-08
6.22972e-09
-8.62788e-08
6.08962e-09
-8.83581e-08
5.94041e-09
-9.03819e-08
5.78239e-09
-9.23475e-08
5.61587e-09
-9.4252e-08
5.44114e-09
-9.60924e-08
5.25852e-09
-9.78663e-08
5.06833e-09
-9.9571e-08
4.87086e-09
-1.01204e-07
4.66644e-09
-1.02763e-07
4.45538e-09
-1.04246e-07
4.23799e-09
-1.05651e-07
4.0146e-09
-1.06976e-07
3.78553e-09
-1.08218e-07
3.5511e-09
-1.09377e-07
3.31163e-09
-1.1045e-07
3.06745e-09
-1.11436e-07
2.8189e-09
-1.12334e-07
2.5663e-09
-1.13142e-07
2.30999e-09
-1.13859e-07
2.05031e-09
-1.14483e-07
1.78759e-09
-1.15015e-07
1.52219e-09
-1.15454e-07
1.25443e-09
-1.15797e-07
9.84683e-10
-1.16046e-07
7.13286e-10
-1.16199e-07
4.40596e-10
-1.16257e-07
1.66971e-10
-1.16218e-07
-1.0723e-10
-1.16083e-07
-3.81644e-10
-1.15853e-07
-6.55904e-10
-1.15526e-07
-9.29642e-10
-1.15104e-07
-1.20249e-09
-1.14587e-07
-1.47406e-09
-1.13976e-07
-1.74399e-09
-1.13271e-07
-2.01189e-09
-1.12473e-07
-2.27739e-09
-1.11583e-07
-2.5401e-09
-1.10602e-07
-2.79963e-09
-1.09532e-07
-3.05559e-09
-1.08374e-07
-3.30759e-09
-1.07129e-07
-3.55525e-09
-1.05799e-07
-3.79817e-09
-1.04386e-07
-4.03595e-09
-1.02892e-07
-4.26821e-09
-1.01319e-07
-4.49455e-09
-9.96688e-08
-4.71457e-09
-9.79442e-08
-4.92789e-09
-9.61476e-08
-5.13411e-09
-9.42815e-08
-5.33284e-09
-9.23488e-08
-5.52371e-09
-9.03523e-08
-5.70631e-09
-8.82951e-08
-5.88027e-09
-8.61802e-08
-6.04521e-09
-8.40111e-08
-6.20077e-09
-8.17911e-08
-6.34656e-09
-7.95237e-08
-6.48223e-09
-7.72125e-08
-6.60742e-09
-7.48615e-08
-6.72179e-09
-7.24744e-08
-6.82498e-09
-7.00553e-08
-6.91668e-09
-6.76083e-08
-6.99655e-09
-6.51375e-08
-7.06428e-09
-6.26475e-08
-7.11957e-09
-6.01425e-08
-7.16213e-09
-5.7627e-08
-7.19168e-09
-5.51058e-08
-7.20796e-09
-5.25834e-08
-7.21072e-09
-5.00647e-08
-7.19973e-09
-4.75545e-08
-7.17477e-09
-4.50576e-08
-7.13566e-09
-4.25791e-08
-7.0822e-09
-4.01239e-08
-7.01426e-09
-3.76971e-08
-6.93169e-09
-3.53037e-08
-6.83439e-09
-3.29489e-08
-6.72229e-09
-3.06377e-08
-6.59533e-09
-2.83752e-08
-6.45351e-09
-2.61666e-08
-6.29684e-09
-2.40167e-08
-6.12538e-09
-2.19308e-08
-5.93924e-09
-1.99135e-08
-5.73858e-09
-1.79699e-08
-5.52359e-09
-1.61046e-08
-5.29456e-09
-1.43223e-08
-5.05182e-09
-1.26273e-08
-4.79579e-09
-1.10239e-08
-4.52699e-09
-9.51606e-09
-4.24604e-09
-8.10754e-09
-3.95369e-09
-6.80172e-09
-3.65082e-09
-5.60157e-09
-3.33851e-09
-4.50963e-09
-3.01802e-09
-3.52789e-09
-2.69089e-09
-2.65769e-09
-2.35893e-09
-1.89964e-09
-2.02431e-09
-1.25344e-09
-1.68967e-09
-7.17766e-10
-1.35814e-09
-2.90054e-10
-1.03355e-09
3.36888e-11
-7.20483e-10
2.59132e-10
-4.24526e-10
3.93893e-10
-1.52428e-10
4.47823e-10
8.76558e-11
4.33326e-10
2.85939e-10
3.65684e-10
4.30799e-10
2.63464e-10
5.08672e-10
1.49032e-10
5.04191e-10
4.9541e-11
4.00608e-10
1.7962e-10
4.04868e-11
-2.19232e-10
1.14502e-10
-4.63882e-10
1.86243e-10
-5.50707e-10
2.27504e-10
-5.07948e-10
2.15203e-10
-3.5902e-10
1.30339e-10
-1.24456e-10
-4.26246e-11
1.77974e-10
-3.16219e-10
5.33151e-10
-7.00326e-10
9.28324e-10
-1.20249e-09
1.35282e-09
-1.82821e-09
1.79775e-09
-2.5812e-09
2.25574e-09
-3.46363e-09
2.72064e-09
-4.47634e-09
3.18741e-09
-5.61904e-09
3.65183e-09
-6.89046e-09
4.11042e-09
-8.28852e-09
4.56031e-09
-9.81043e-09
4.99911e-09
-1.14528e-08
5.42486e-09
-1.32118e-08
5.83594e-09
-1.50831e-08
6.23101e-09
-1.70621e-08
6.60898e-09
-1.91439e-08
6.96899e-09
-2.13232e-08
7.31033e-09
-2.35948e-08
7.63244e-09
-2.59532e-08
7.9349e-09
-2.83927e-08
8.2174e-09
-3.09077e-08
8.47971e-09
-3.34923e-08
8.72171e-09
-3.61408e-08
8.94331e-09
-3.88473e-08
9.14452e-09
-4.1606e-08
9.32538e-09
-4.4411e-08
9.486e-09
-4.72566e-08
9.6265e-09
-5.0137e-08
9.74706e-09
-5.30465e-08
9.84789e-09
-5.59794e-08
9.92922e-09
-5.89301e-08
9.9913e-09
-6.18932e-08
1.00344e-08
-6.48631e-08
1.00589e-08
-6.78345e-08
1.0065e-08
-7.08021e-08
1.0053e-08
-7.37608e-08
1.00234e-08
-7.67055e-08
9.97653e-09
-7.96313e-08
9.91265e-09
-8.25331e-08
9.83219e-09
-8.54063e-08
9.73554e-09
-8.82463e-08
9.62307e-09
-9.10485e-08
9.49519e-09
-9.38084e-08
9.3523e-09
-9.65219e-08
9.19482e-09
-9.91846e-08
9.02314e-09
-1.01793e-07
8.83769e-09
-1.04342e-07
8.63889e-09
-1.06829e-07
8.42716e-09
-1.09249e-07
8.20293e-09
-1.116e-07
7.96664e-09
-1.13877e-07
7.7187e-09
-1.16079e-07
7.45957e-09
-1.182e-07
7.18968e-09
-1.20238e-07
6.90947e-09
-1.22191e-07
6.61938e-09
-1.24056e-07
6.31987e-09
-1.25829e-07
6.01139e-09
-1.27509e-07
5.69438e-09
-1.29093e-07
5.36931e-09
-1.30578e-07
5.03663e-09
-1.31964e-07
4.69681e-09
-1.33246e-07
4.35031e-09
-1.34425e-07
3.9976e-09
-1.35498e-07
3.63916e-09
-1.36463e-07
3.27545e-09
-1.3732e-07
2.90697e-09
-1.38067e-07
2.53418e-09
-1.38702e-07
2.15758e-09
-1.39225e-07
1.77767e-09
-1.39636e-07
1.39493e-09
-1.39932e-07
1.00986e-09
-1.40115e-07
6.22976e-10
-1.40182e-07
2.34775e-10
-1.40135e-07
-1.54228e-10
-1.39973e-07
-5.43519e-10
-1.39697e-07
-9.32576e-10
-1.39306e-07
-1.32088e-09
-1.388e-07
-1.70789e-09
-1.38181e-07
-2.09309e-09
-1.37449e-07
-2.47594e-09
-1.36605e-07
-2.85589e-09
-1.3565e-07
-3.23242e-09
-1.34585e-07
-3.60496e-09
-1.33412e-07
-3.97298e-09
-1.32132e-07
-4.33593e-09
-1.30746e-07
-4.69324e-09
-1.29257e-07
-5.04437e-09
-1.27666e-07
-5.38877e-09
-1.25976e-07
-5.72586e-09
-1.24189e-07
-6.05511e-09
-1.22308e-07
-6.37595e-09
-1.20335e-07
-6.68782e-09
-1.18272e-07
-6.99017e-09
-1.16124e-07
-7.28245e-09
-1.13893e-07
-7.56411e-09
-1.11582e-07
-7.8346e-09
-1.09195e-07
-8.09338e-09
-1.06735e-07
-8.3399e-09
-1.04207e-07
-8.57365e-09
-1.01614e-07
-8.79408e-09
-9.89594e-08
-9.00069e-09
-9.62487e-08
-9.19296e-09
-9.34857e-08
-9.37039e-09
-9.0675e-08
-9.53249e-09
-8.78212e-08
-9.67879e-09
-8.49291e-08
-9.80881e-09
-8.20035e-08
-9.92211e-09
-7.90495e-08
-1.00182e-08
-7.60723e-08
-1.00968e-08
-7.30771e-08
-1.01573e-08
-7.00693e-08
-1.01995e-08
-6.70543e-08
-1.0223e-08
-6.40377e-08
-1.02273e-08
-6.10251e-08
-1.02123e-08
-5.80224e-08
-1.01775e-08
-5.50352e-08
-1.01228e-08
-5.20695e-08
-1.00479e-08
-4.91311e-08
-9.95261e-09
-4.62261e-08
-9.83673e-09
-4.33604e-08
-9.70013e-09
-4.05399e-08
-9.54273e-09
-3.77708e-08
-9.36447e-09
-3.50589e-08
-9.16536e-09
-3.24103e-08
-8.94545e-09
-2.98309e-08
-8.70483e-09
-2.73264e-08
-8.4437e-09
-2.49027e-08
-8.16228e-09
-2.25654e-08
-7.8609e-09
-2.032e-08
-7.53998e-09
-1.81718e-08
-7.20002e-09
-1.61259e-08
-6.84166e-09
-1.41873e-08
-6.46566e-09
-1.23604e-08
-6.07293e-09
-1.06495e-08
-5.66457e-09
-9.05844e-09
-5.24186e-09
-7.5906e-09
-4.80635e-09
-6.24877e-09
-4.35985e-09
-5.03512e-09
-3.90454e-09
-3.95109e-09
-3.44296e-09
-2.99723e-09
-2.97817e-09
-2.17311e-09
-2.51378e-09
-1.47715e-09
-2.05411e-09
-9.06396e-10
-1.6043e-09
-4.56384e-10
-1.1705e-09
-1.20869e-10
-7.60041e-10
1.084e-10
-3.81697e-10
2.41948e-10
-4.58912e-11
2.92858e-10
2.35029e-10
2.77108e-10
4.4655e-10
2.13992e-10
5.71788e-10
1.2673e-10
5.91452e-10
4.35094e-11
4.83828e-10
2.2313e-10
3.00274e-11
-2.49259e-10
7.6809e-11
-5.10663e-10
1.06004e-10
-5.79902e-10
8.98382e-11
-4.91782e-10
5.35731e-12
-2.7454e-10
-1.66445e-10
4.73459e-11
-4.41212e-10
4.52741e-10
-8.31654e-10
9.23592e-10
-1.34788e-09
1.44455e-09
-1.9977e-09
2.00264e-09
-2.78685e-09
2.5869e-09
-3.71925e-09
3.18814e-09
-4.79724e-09
3.79864e-09
-6.02176e-09
4.41192e-09
-7.39251e-09
5.02258e-09
-8.90818e-09
5.62609e-09
-1.05665e-08
6.21865e-09
-1.23645e-08
6.79711e-09
-1.42985e-08
7.35884e-09
-1.63642e-08
7.90164e-09
-1.85569e-08
8.42371e-09
-2.08715e-08
8.92356e-09
-2.33024e-08
9.39997e-09
-2.58441e-08
9.85194e-09
-2.84903e-08
1.02787e-08
-3.12351e-08
1.06797e-08
-3.4072e-08
1.10543e-08
-3.69946e-08
1.14023e-08
-3.99964e-08
1.17235e-08
-4.30708e-08
1.20177e-08
-4.62113e-08
1.22849e-08
-4.9411e-08
1.25251e-08
-5.26635e-08
1.27385e-08
-5.59621e-08
1.29251e-08
-5.93002e-08
1.30852e-08
-6.26713e-08
1.3219e-08
-6.6069e-08
1.33269e-08
-6.94867e-08
1.34091e-08
-7.29183e-08
1.3466e-08
-7.63574e-08
1.3498e-08
-7.97978e-08
1.35054e-08
-8.32336e-08
1.34888e-08
-8.66588e-08
1.34486e-08
-9.00675e-08
1.33853e-08
-9.34541e-08
1.32992e-08
-9.68128e-08
1.31909e-08
-1.00138e-07
1.3061e-08
-1.03425e-07
1.29099e-08
-1.06668e-07
1.27382e-08
-1.09862e-07
1.25463e-08
-1.13002e-07
1.23349e-08
-1.16083e-07
1.21044e-08
-1.19101e-07
1.18555e-08
-1.22051e-07
1.15887e-08
-1.24929e-07
1.13046e-08
-1.27729e-07
1.10037e-08
-1.30449e-07
1.06866e-08
-1.33084e-07
1.03539e-08
-1.35631e-07
1.00062e-08
-1.38085e-07
9.64399e-09
-1.40444e-07
9.26798e-09
-1.42703e-07
8.87873e-09
-1.4486e-07
8.47682e-09
-1.46912e-07
8.06288e-09
-1.48855e-07
7.6375e-09
-1.50687e-07
7.20131e-09
-1.52405e-07
6.75491e-09
-1.54007e-07
6.29892e-09
-1.55491e-07
5.83398e-09
-1.56854e-07
5.36072e-09
-1.58095e-07
4.87976e-09
-1.59211e-07
4.39176e-09
-1.60201e-07
3.89734e-09
-1.61064e-07
3.39717e-09
-1.61799e-07
2.8919e-09
-1.62403e-07
2.38219e-09
-1.62877e-07
1.8687e-09
-1.63219e-07
1.35211e-09
-1.63429e-07
8.33088e-10
-1.63507e-07
3.12321e-10
-1.63451e-07
-2.09505e-10
-1.63263e-07
-7.31698e-10
-1.62942e-07
-1.25356e-09
-1.62489e-07
-1.77439e-09
-1.61903e-07
-2.29347e-09
-1.61186e-07
-2.81009e-09
-1.60339e-07
-3.32354e-09
-1.59361e-07
-3.83309e-09
-1.58256e-07
-4.33801e-09
-1.57023e-07
-4.83758e-09
-1.55665e-07
-5.33106e-09
-1.54183e-07
-5.81771e-09
-1.5258e-07
-6.29679e-09
-1.50857e-07
-6.76756e-09
-1.49016e-07
-7.22927e-09
-1.47061e-07
-7.68119e-09
-1.44993e-07
-8.12256e-09
-1.42817e-07
-8.55264e-09
-1.40534e-07
-8.97069e-09
-1.38148e-07
-9.37596e-09
-1.35663e-07
-9.76773e-09
-1.33082e-07
-1.01452e-08
-1.30408e-07
-1.05078e-08
-1.27647e-07
-1.08546e-08
-1.24802e-07
-1.1185e-08
-1.21877e-07
-1.14983e-08
-1.18878e-07
-1.17938e-08
-1.15808e-07
-1.20707e-08
-1.12672e-07
-1.23285e-08
-1.09476e-07
-1.25663e-08
-1.06225e-07
-1.27837e-08
-1.02924e-07
-1.29799e-08
-9.95784e-08
-1.31544e-08
-9.6194e-08
-1.33064e-08
-9.27767e-08
-1.34356e-08
-8.93323e-08
-1.35412e-08
-8.58669e-08
-1.36228e-08
-8.23865e-08
-1.36798e-08
-7.88976e-08
-1.37119e-08
-7.54065e-08
-1.37184e-08
-7.19197e-08
-1.36991e-08
-6.84437e-08
-1.36535e-08
-6.49851e-08
-1.35813e-08
-6.15508e-08
-1.34822e-08
-5.81475e-08
-1.3356e-08
-5.47819e-08
-1.32023e-08
-5.14609e-08
-1.30211e-08
-4.81913e-08
-1.28123e-08
-4.498e-08
-1.25758e-08
-4.18338e-08
-1.23116e-08
-3.87594e-08
-1.20198e-08
-3.57636e-08
-1.17006e-08
-3.2853e-08
-1.13543e-08
-3.0034e-08
-1.09812e-08
-2.73131e-08
-1.05818e-08
-2.46965e-08
-1.01566e-08
-2.219e-08
-9.70646e-09
-1.97996e-08
-9.23216e-09
-1.75304e-08
-8.73477e-09
-1.53878e-08
-8.21557e-09
-1.33763e-08
-7.67605e-09
-1.15002e-08
-7.11796e-09
-9.76319e-09
-6.54338e-09
-8.16829e-09
-5.95476e-09
-6.71785e-09
-5.35498e-09
-5.41339e-09
-4.74742e-09
-4.25547e-09
-4.13608e-09
-3.24359e-09
-3.52566e-09
-2.37598e-09
-2.92172e-09
-1.64949e-09
-2.33079e-09
-1.05935e-09
-1.76064e-09
-5.98996e-10
-1.22039e-09
-2.59856e-10
-7.20837e-10
-3.10903e-11
-2.74656e-10
1.00659e-10
1.0328e-10
1.51587e-10
3.95621e-10
1.41148e-10
5.82227e-10
9.26318e-11
6.39968e-10
3.4062e-11
5.42398e-10
2.57192e-10
1.73035e-11
-2.66563e-10
3.07612e-11
-5.24122e-10
8.56171e-12
-5.57703e-10
-7.57234e-11
-4.07498e-10
-2.44237e-10
-1.06026e-10
-5.15478e-10
3.18587e-10
-9.04776e-10
8.42039e-10
-1.42466e-09
1.44348e-09
-2.08518e-09
2.10507e-09
-2.89411e-09
2.81157e-09
-3.85722e-09
3.55001e-09
-4.97848e-09
4.3094e-09
-6.26024e-09
5.08039e-09
-7.70342e-09
5.8551e-09
-9.30768e-09
6.62685e-09
-1.10716e-08
7.39e-09
-1.29928e-08
8.13981e-09
-1.50679e-08
8.87228e-09
-1.72931e-08
9.58404e-09
-1.96638e-08
1.02723e-08
-2.21748e-08
1.09347e-08
-2.48205e-08
1.15693e-08
-2.7595e-08
1.21745e-08
-3.0492e-08
1.27489e-08
-3.35049e-08
1.32916e-08
-3.66269e-08
1.38017e-08
-3.98512e-08
1.42785e-08
-4.31704e-08
1.47216e-08
-4.65776e-08
1.51307e-08
-5.00653e-08
1.55054e-08
-5.36262e-08
1.58458e-08
-5.72529e-08
1.61519e-08
-6.09382e-08
1.64237e-08
-6.46745e-08
1.66614e-08
-6.84546e-08
1.68653e-08
-7.22712e-08
1.70356e-08
-7.61171e-08
1.71727e-08
-7.9985e-08
1.7277e-08
-8.38679e-08
1.73489e-08
-8.77588e-08
1.73888e-08
-9.16508e-08
1.73974e-08
-9.55371e-08
1.73751e-08
-9.9411e-08
1.73225e-08
-1.03266e-07
1.72402e-08
-1.07096e-07
1.71288e-08
-1.10893e-07
1.69889e-08
-1.14654e-07
1.68211e-08
-1.1837e-07
1.66261e-08
-1.22036e-07
1.64046e-08