/*--------------------------------*- C++ -*----------------------------------*\
  =========                 |
  \\      /  F ield         | OpenFOAM: The Open Source CFD Toolbox
   \\    /   O peration     | Website:  https://openfoam.org
    \\  /    A nd           | Version:  7
     \\/     M anipulation  |
\*---------------------------------------------------------------------------*/
FoamFile
{
    version     2.0;
    format      ascii;
    class       volVectorField;
    location    "109";
    object      U;
}
// * * * * * * * * * * * * * * * * * * * * * * * * * * * * * * * * * * * * * //

dimensions      [0 1 -1 0 0 0 0];

internalField   nonuniform List<vector> 
15200
(
(-0.236221 -0.330463 -1.78274e-19)
(0.290995 0.350526 -1.00599e-19)
(0.186959 0.739844 -1.44348e-19)
(0.236407 0.799978 -8.40657e-20)
(0.200542 0.549354 6.46132e-20)
(0.566278 -0.0276916 -7.48502e-20)
(0.705616 -0.421404 -2.62791e-20)
(0.786736 -0.553124 4.52414e-20)
(0.766648 -0.659138 9.13878e-21)
(0.664243 -0.666136 -2.53739e-21)
(0.701305 -0.344737 -4.90731e-21)
(0.810444 0.0152192 -8.82123e-21)
(0.86968 0.345448 2.80512e-20)
(0.831473 0.603333 -8.65319e-21)
(0.819014 0.570653 -1.36163e-20)
(-0.220692 -0.339092 -2.8184e-19)
(0.24886 0.322269 -4.38267e-19)
(0.154091 0.739652 3.9354e-19)
(0.178138 0.797818 -1.48856e-19)
(0.234492 0.502074 -2.57131e-20)
(0.638687 -0.0772354 1.72272e-19)
(0.770241 -0.446985 -1.70568e-20)
(0.821827 -0.560679 5.32683e-20)
(0.816117 -0.633368 -1.21581e-20)
(0.682566 -0.656285 4.62089e-21)
(0.709126 -0.373756 1.78629e-20)
(0.791614 -0.0149814 3.84838e-21)
(0.821048 0.342086 -6.15853e-21)
(0.778566 0.602042 4.6995e-21)
(0.79553 0.542507 -1.87085e-20)
(-0.206288 -0.345491 8.10893e-19)
(0.211549 0.292424 6.21797e-19)
(0.123406 0.73851 -6.42979e-20)
(0.127158 0.786817 4.03538e-19)
(0.287346 0.446512 -3.33939e-19)
(0.70924 -0.12255 1.73102e-19)
(0.842263 -0.461738 5.20504e-20)
(0.854804 -0.563964 3.80873e-21)
(0.861248 -0.60167 -6.82454e-20)
(0.695856 -0.637845 -5.5176e-20)
(0.705416 -0.399255 7.70619e-20)
(0.76454 -0.0416307 2.62265e-20)
(0.774122 0.337872 -2.7823e-20)
(0.723451 0.591875 -2.10286e-20)
(0.758063 0.505005 2.2126e-20)
(-0.193319 -0.349876 -8.30944e-19)
(0.179191 0.261107 3.80458e-19)
(0.0943715 0.736118 6.71006e-20)
(0.0859303 0.766369 -2.9871e-19)
(0.358623 0.387035 4.27481e-19)
(0.780445 -0.162381 -2.05843e-19)
(0.913802 -0.4663 -6.56454e-20)
(0.889208 -0.560886 2.59309e-19)
(0.896203 -0.566552 1.6547e-19)
(0.716497 -0.610338 6.41735e-20)
(0.697002 -0.423197 -3.40888e-20)
(0.736119 -0.0690631 -8.45069e-20)
(0.73063 0.331155 4.94921e-20)
(0.664954 0.576198 5.71751e-20)
(0.730051 0.46215 -6.51626e-20)
(-0.182023 -0.352497 1.47675e-18)
(0.151493 0.228485 -7.66183e-19)
(0.0663921 0.732048 -9.62643e-19)
(0.0570201 0.736017 -1.27946e-19)
(0.447127 0.32753 -5.00197e-19)
(0.856488 -0.194269 -2.73719e-19)
(0.97806 -0.46226 1.74315e-19)
(0.928146 -0.549244 -2.66857e-19)
(0.918567 -0.531818 -1.13847e-19)
(0.751555 -0.571651 -1.33608e-20)
(0.685202 -0.4428 -9.49077e-20)
(0.701006 -0.0983529 5.91907e-20)
(0.677471 0.322085 -1.64373e-19)
(0.607758 0.553979 -5.72513e-20)
(0.743373 0.418796 1.52049e-19)
(-0.172622 -0.353581 -9.98147e-19)
(0.127581 0.194571 1.76203e-19)
(0.0387235 0.725645 9.64611e-19)
(0.0447263 0.696072 3.2874e-19)
(0.548032 0.269961 1.11759e-19)
(0.936307 -0.216522 3.80063e-19)
(1.03276 -0.451439 -6.05642e-20)
(0.971361 -0.527975 -7.74395e-20)
(0.930565 -0.500007 -5.45458e-20)
(0.794408 -0.520359 4.04736e-20)
(0.666402 -0.447784 9.26002e-20)
(0.64388 -0.127941 1.14378e-19)
(0.600595 0.305815 8.01139e-20)
(0.565438 0.513581 -7.02152e-21)
(0.801673 0.374306 -2.42404e-20)
(-0.165356 -0.353294 -6.3584e-19)
(0.105841 0.15918 -1.86198e-19)
(0.0104492 0.71557 -8.06995e-19)
(0.0557583 0.64874 2.47334e-19)
(0.655269 0.215603 -3.24687e-19)
(1.01444 -0.229084 3.12529e-19)
(1.07986 -0.435064 1.16593e-19)
(1.01436 -0.498125 9.55314e-20)
(0.93887 -0.470444 1.37751e-19)
(0.830885 -0.460995 -7.5362e-21)
(0.650651 -0.426252 -6.0986e-20)
(0.567674 -0.152297 -4.0832e-20)
(0.508682 0.27117 1.27766e-19)
(0.551103 0.438031 -4.07826e-20)
(0.875747 0.318015 -4.51688e-20)
(-0.1605 -0.351701 -2.63058e-19)
(0.0838084 0.121873 2.90121e-19)
(-0.0195628 0.699259 1.17093e-19)
(0.0973591 0.598015 2.69554e-19)
(0.764415 0.166865 2.70532e-19)
(1.08586 -0.232848 -1.07863e-18)
(1.12209 -0.413535 9.55343e-20)
(1.05119 -0.462648 8.04858e-20)
(0.950473 -0.440112 -1.70674e-19)
(0.854228 -0.403534 -2.91018e-20)
(0.661047 -0.37445 -3.55878e-20)
(0.504508 -0.162423 -9.89649e-21)
(0.446246 0.218665 -3.63164e-20)
(0.595114 0.337433 -2.79976e-22)
(0.947215 0.25232 2.09711e-20)
(-0.158389 -0.34872 -4.77915e-20)
(0.0583926 0.0819171 -1.50564e-19)
(-0.0526923 0.672884 1.10582e-18)
(0.173479 0.54813 -2.30538e-19)
(0.871533 0.126614 1.34524e-19)
(1.14826 -0.228937 5.93299e-19)
(1.15981 -0.386899 -2.17182e-19)
(1.07849 -0.425179 -5.74918e-20)
(0.96837 -0.406203 2.38686e-20)
(0.868951 -0.356499 5.32814e-20)
(0.70613 -0.3024 1.89158e-20)
(0.508021 -0.146265 -3.72613e-20)
(0.478927 0.164955 -5.08492e-21)
(0.717281 0.247188 -1.30264e-21)
(1.0131 0.195193 -2.52576e-20)
(-0.159379 -0.34409 -1.71579e-18)
(0.0266057 0.0385591 -8.38518e-19)
(-0.0902182 0.6318 -5.05913e-19)
(0.281757 0.501449 2.66988e-19)
(0.971836 0.0964404 -3.53914e-19)
(1.20104 -0.218443 2.57532e-19)
(1.19091 -0.355862 2.00834e-19)
(1.09772 -0.388271 7.91997e-20)
(0.989955 -0.368143 1.6211e-19)
(0.883344 -0.320066 -6.13493e-20)
(0.765753 -0.236927 -1.17479e-20)
(0.602971 -0.106001 2.72837e-21)
(0.61597 0.127963 2.55215e-20)
(0.865171 0.185544 -3.79232e-20)
(1.05611 0.154558 2.17659e-20)
(-0.163754 -0.337375 3.32249e-18)
(-0.0130973 -0.00843911 -8.64662e-20)
(-0.131869 0.571613 -2.87237e-19)
(0.413608 0.457662 -6.40007e-19)
(1.06076 0.0763484 5.66242e-19)
(1.24359 -0.202418 1.04099e-18)
(1.21346 -0.322316 -5.30193e-19)
(1.11313 -0.351923 2.04136e-19)
(1.00927 -0.329503 -1.17804e-19)
(0.902983 -0.28596 -9.17683e-20)
(0.811126 -0.196093 1.70195e-20)
(0.726422 -0.0684434 -6.45915e-21)
(0.772118 0.11164 3.58615e-20)
(0.958138 0.147047 4.64221e-20)
(1.05877 0.125494 7.77575e-21)
(-0.171502 -0.328021 -8.09411e-19)
(-0.0589823 -0.0581066 6.90657e-19)
(-0.17125 0.490994 -1.61496e-21)
(0.55721 0.414537 7.09588e-21)
(1.13541 0.0648947 -7.83494e-19)
(1.27505 -0.1823 -8.84205e-19)
(1.22808 -0.288183 6.26334e-19)
(1.12641 -0.315299 -1.44719e-19)
(1.0236 -0.294355 -5.63527e-20)
(0.928142 -0.250684 8.32868e-21)
(0.846211 -0.170473 -3.76966e-22)
(0.805749 -0.0572446 -1.21025e-20)
(0.855355 0.0884371 -4.98974e-20)
(0.976539 0.111632 -4.40507e-20)
(1.03504 0.0985076 -4.90004e-21)
(-0.182039 -0.315476 9.71332e-19)
(-0.104392 -0.107226 -3.13703e-20)
(-0.187871 0.398496 3.82797e-19)
(0.701248 0.369247 2.31587e-20)
(1.19467 0.0598616 -3.07383e-19)
(1.29541 -0.1599 8.8682e-19)
(1.23668 -0.254236 -7.65836e-20)
(1.13603 -0.279667 -1.87562e-21)
(1.03577 -0.261981 2.07157e-19)
(0.951476 -0.219489 3.58493e-20)
(0.879851 -0.148335 1.61488e-21)
(0.848438 -0.0587692 -2.45528e-21)
(0.881295 0.0547817 -8.07698e-20)
(0.968909 0.0760372 3.8109e-20)
(1.01487 0.0739115 5.24036e-21)
(-0.193989 -0.299449 1.24435e-18)
(-0.13647 -0.151214 9.61243e-19)
(-0.147086 0.316473 -2.88348e-19)
(0.835457 0.32368 7.77111e-19)
(1.23901 0.0594389 -1.31094e-19)
(1.306 -0.136706 -9.94893e-19)
(1.24017 -0.221077 -4.67001e-19)
(1.14169 -0.246514 1.2624e-19)
(1.04768 -0.231039 -2.79227e-20)
(0.970182 -0.193425 -8.00761e-20)
(0.909583 -0.12942 -1.27105e-20)
(0.884654 -0.0566369 3.83011e-20)
(0.904845 0.0308305 7.26965e-20)
(0.971849 0.0518524 1.30417e-20)
(1.00635 0.0561603 -2.68525e-21)
(-0.205392 -0.280328 -3.16187e-18)
(-0.137775 -0.184584 -1.52508e-18)
(-0.0240103 0.270001 2.14009e-20)
(0.951893 0.284193 -5.0098e-19)
(1.26981 0.0624174 -9.84721e-19)
(1.30861 -0.11375 8.0527e-19)
(1.23907 -0.189685 7.49606e-20)
(1.14508 -0.21557 6.83243e-20)
(1.05769 -0.202715 3.87144e-22)
(0.98696 -0.169889 3.74146e-20)
(0.934753 -0.114768 2.3146e-20)
(0.915551 -0.0535078 -1.95776e-20)
(0.927915 0.0155711 -4.4476e-20)
(0.977281 0.0356571 -1.64628e-20)
(1.00067 0.042173 -1.78699e-20)
(-0.214267 -0.259558 -3.73779e-19)
(-0.0919392 -0.199554 1.14946e-18)
(0.164174 0.263018 1.19712e-21)
(1.04619 0.254533 9.81804e-19)
(1.2888 0.067816 9.21349e-19)
(1.30494 -0.0919186 -6.53719e-19)
(1.23465 -0.160473 -1.44485e-20)
(1.14677 -0.186854 -1.07311e-19)
(1.06562 -0.177186 -5.70266e-21)
(1.002 -0.148539 -7.06839e-21)
(0.955598 -0.101973 -1.00212e-20)
(0.937824 -0.0510165 1.91132e-20)
(0.944411 0.00350503 4.36798e-20)
(0.980828 0.0228484 3.38553e-20)
(0.997051 0.0306016 7.59383e-21)
(-0.219212 -0.239725 2.08077e-18)
(0.00786062 -0.187896 4.84292e-19)
(0.365353 0.273029 3.20723e-20)
(1.11603 0.2336 -1.5165e-18)
(1.29773 0.0745626 -2.34354e-19)
(1.29675 -0.0717905 -1.40239e-19)
(1.22804 -0.133504 -7.60131e-20)
(1.14671 -0.160777 -6.7422e-20)
(1.07227 -0.153695 -2.44167e-20)
(1.01435 -0.129785 -7.21973e-22)
(0.973281 -0.0904812 3.25894e-21)
(0.95639 -0.047686 -6.06515e-21)
(0.95953 -0.00452392 -2.38316e-20)
(0.985375 0.0140901 -2.03299e-20)
(0.996295 0.021999 1.05276e-20)
(-0.219315 -0.223797 -2.10463e-18)
(0.151035 -0.149122 -3.7898e-19)
(0.536804 0.278114 -9.98789e-20)
(1.16243 0.218152 4.53284e-19)
(1.29865 0.0817352 5.42865e-19)
(1.28566 -0.0535713 4.26068e-19)
(1.2199 -0.108932 4.1325e-19)
(1.1455 -0.137126 -5.2901e-20)
(1.07743 -0.132347 1.77268e-19)
(1.02486 -0.112885 -1.36906e-20)
(0.987903 -0.0801479 -1.47456e-20)
(0.971546 -0.0441157 -1.11732e-21)
(0.972259 -0.0098635 -2.66952e-21)
(0.989208 0.00816282 -1.22796e-20)
(0.997196 0.0151932 -1.14061e-20)
(-0.213221 -0.213279 4.54262e-19)
(0.312027 -0.0956007 -1.86028e-19)
(0.668357 0.274412 -1.46333e-19)
(1.19021 0.205746 5.84902e-19)
(1.29377 0.0887612 -2.16347e-19)
(1.27286 -0.0373093 5.47003e-20)
(1.21088 -0.0866836 -3.69382e-19)
(1.14341 -0.11575 3.76816e-20)
(1.08127 -0.112968 -1.47724e-19)
(1.03357 -0.0976694 3.81306e-20)
(0.99985 -0.0704375 1.6394e-20)
(0.983948 -0.0406194 3.31716e-21)
(0.982553 -0.0129866 1.25307e-20)
(0.992685 0.00391601 1.17357e-21)
(0.999945 0.00974418 -1.37904e-21)
(-0.198177 -0.206088 -2.27375e-19)
(0.464911 -0.0451546 -4.49581e-19)
(0.767512 0.265832 3.03475e-19)
(1.205 0.194951 -5.62099e-19)
(1.28498 0.0953462 -3.63411e-19)
(1.25927 -0.0229015 -6.57369e-19)
(1.20149 -0.0665769 1.79227e-19)
(1.1406 -0.0965527 -8.45347e-21)
(1.08398 -0.0953004 7.93308e-20)
(1.04061 -0.0839669 -5.64959e-20)
(1.00979 -0.0613755 7.27863e-21)
(0.994463 -0.0369268 5.3134e-22)
(0.991034 -0.0140048 -1.01373e-21)
(0.99663 0.000640799 6.04062e-21)
(1.00339 0.00634724 -1.68105e-21)
(-0.170235 -0.196048 2.21576e-19)
(0.597175 -0.00863728 4.66614e-19)
(0.843237 0.255175 -5.40211e-20)
(1.2112 0.185089 5.26955e-19)
(1.2737 0.101401 3.56559e-19)
(1.24552 -0.0101531 1.76749e-19)
(1.19199 -0.0484566 -2.16659e-19)
(1.13726 -0.0793155 4.17363e-20)
(1.08566 -0.0792485 -8.48442e-20)
(1.04632 -0.0714658 6.28236e-20)
(1.01784 -0.0529224 1.67417e-20)
(1.00302 -0.0330348 -7.61052e-21)
(0.997821 -0.013957 -2.93349e-21)
(1.00083 -0.00190208 4.9186e-21)
(1.00588 0.00563696 1.53738e-21)
(-0.12548 -0.175069 -3.87577e-19)
(0.708659 0.0140298 2.30183e-19)
(0.902615 0.244575 1.48737e-19)
(1.21194 0.17604 -4.78087e-19)
(1.26096 0.106956 -4.07254e-19)
(1.23198 0.00113505 3.18573e-19)
(1.18261 -0.0321215 2.86333e-19)
(1.13351 -0.0638641 -6.42815e-20)
(1.08647 -0.0646058 1.51324e-19)
(1.05078 -0.060112 -3.60731e-20)
(1.02441 -0.04493 -2.12983e-20)
(1.01008 -0.0289875 5.56406e-21)
(1.00363 -0.0131834 -1.91343e-21)
(1.00484 -0.00264036 3.1211e-21)
(1.00549 0.00330554 8.67625e-21)
(-0.0604919 -0.135482 -4.36046e-19)
(0.803842 0.0289333 4.98454e-19)
(0.95073 0.235942 -3.71675e-20)
(1.20922 0.167863 4.29013e-19)
(1.24745 0.11207 8.99163e-19)
(1.21891 0.0111587 1.05308e-19)
(1.17345 -0.017384 -2.77668e-19)
(1.12947 -0.050018 3.76777e-20)
(1.08654 -0.0512435 -5.11349e-20)
(1.0542 -0.0497239 -4.76962e-20)
(1.02965 -0.0374181 -2.3234e-20)
(1.01581 -0.0248769 -2.04984e-21)
(1.00853 -0.011597 -1.49123e-21)
(1.00756 -0.00307299 -3.46859e-21)
(1.00797 0.00298341 -1.09077e-20)
(0.0258514 -0.0721136 4.9585e-19)
(0.88551 0.0418827 -5.54103e-19)
(0.990479 0.230283 -4.72516e-21)
(1.20428 0.160576 -4.82353e-19)
(1.23359 0.116808 -4.81883e-19)
(1.20642 0.0200944 1.03024e-19)
(1.16457 -0.00407811 2.90609e-20)
(1.12519 -0.0376004 4.14264e-20)
(1.08598 -0.039026 -5.96865e-20)
(1.0567 -0.040227 8.66434e-20)
(1.03376 -0.0303355 4.65193e-20)
(1.02045 -0.0206696 1.15855e-20)
(1.01239 -0.00972909 2.20095e-21)
(1.01085 -0.00268448 -1.25393e-21)
(1.00858 0.00288186 4.706e-22)
(0.130393 0.0146793 3.41387e-19)
(0.953833 0.0560041 -1.34204e-19)
(1.02321 0.227655 1.76275e-19)
(1.19789 0.154148 4.00631e-19)
(1.2197 0.121228 8.72483e-20)
(1.19455 0.0280849 -4.06926e-19)
(1.156 0.00795027 6.19777e-22)
(1.12077 -0.0264519 -6.65456e-20)
(1.0849 -0.0278438 8.19154e-21)
(1.0584 -0.0315394 4.49197e-21)
(1.03692 -0.0236198 2.29936e-20)
(1.0241 -0.0165192 -8.01195e-22)
(1.01585 -0.0074986 3.4222e-22)
(1.01289 -0.00167483 -1.29127e-21)
(1.01045 0.00308206 -3.70794e-21)
(0.244622 0.116105 2.50092e-18)
(1.00804 0.0716683 4.52927e-19)
(1.04958 0.227495 -1.68564e-19)
(1.19059 0.148536 2.09854e-19)
(1.20598 0.125356 -1.18617e-19)
(1.18332 0.0352487 3.34858e-20)
(1.14774 0.0188357 2.05202e-19)
(1.11623 -0.0164264 8.41098e-20)
(1.08336 -0.0176046 6.07238e-20)
(1.0594 -0.0235702 -2.79234e-20)
(1.03921 -0.0172935 -9.38901e-21)
(1.02703 -0.012417 -1.17399e-20)
(1.01841 -0.0049617 -2.4604e-22)
(1.01515 -0.0006423 3.24686e-21)
(1.01161 0.00393328 7.19655e-21)
(0.356245 0.215356 -1.02667e-18)
(1.04808 0.0872312 2.24457e-19)
(1.07009 0.22897 -1.15299e-19)
(1.18281 0.143701 -1.06767e-19)
(1.19262 0.129196 -3.88152e-19)
(1.17269 0.041683 2.60649e-19)
(1.13976 0.0286965 -5.50231e-20)
(1.11162 -0.00739413 -3.57544e-20)
(1.08144 -0.0082196 -6.03407e-20)
(1.05978 -0.0162729 1.09124e-20)
(1.04082 -0.0113015 -2.56458e-20)
(1.02921 -0.0083765 4.8358e-23)
(1.02063 -0.00243716 3.43778e-21)
(1.01675 0.0010454 4.29083e-21)
(1.01284 0.00468385 -1.64829e-21)
(0.453997 0.294064 -6.89207e-19)
(1.07552 0.100551 7.42464e-21)
(1.08539 0.231325 6.80828e-20)
(1.17486 0.139605 -2.32018e-20)
(1.17977 0.132747 1.68566e-19)
(1.16263 0.0474752 -2.76489e-19)
(1.13207 0.0376387 -1.73235e-19)
(1.10697 0.000761956 1.215e-19)
(1.0792 0.000379837 5.29716e-20)
(1.05964 -0.00957249 1.27617e-20)
(1.04178 -0.00564188 -7.8666e-21)
(1.03085 -0.00450722 -3.49787e-21)
(1.02224 0.000378411 -2.76044e-21)
(1.01811 0.00249959 -7.99207e-21)
(1.01391 0.00595405 4.74838e-21)
(0.532795 0.341939 4.54889e-19)
(1.09333 0.110535 -4.39955e-19)
(1.09623 0.234078 8.16408e-21)
(1.167 0.136208 -2.55484e-19)
(1.16751 0.136029 4.60278e-20)
(1.15312 0.0527045 -4.55733e-20)
(1.12463 0.0457554 1.58044e-19)
(1.1023 0.00814273 -1.62585e-19)
(1.07669 0.00826173 2.2559e-20)
(1.05903 -0.00342207 -4.02257e-20)
(1.04223 -0.000312784 6.65806e-21)
(1.03196 -0.000699616 1.09617e-20)
(1.02342 0.00301547 -1.265e-21)
(1.0192 0.00442017 4.15206e-21)
(1.01462 0.00709507 3.11663e-21)
(0.594832 0.361421 -1.85417e-18)
(1.10491 0.117527 8.25416e-19)
(1.10332 0.237016 1.0345e-19)
(1.1594 0.133466 2.13011e-19)
(1.15587 0.139074 2.42216e-19)
(1.14409 0.0574429 1.22593e-19)
(1.11742 0.0531282 -2.00873e-19)
(1.09761 0.0148361 4.03851e-20)
(1.07395 0.015481 -7.07184e-20)
(1.05804 0.00222933 4.7468e-23)
(1.0422 0.00472447 -7.55284e-22)
(1.03263 0.0028797 -1.344e-21)
(1.02424 0.00583398 1.63905e-21)
(1.01986 0.00611482 -1.78953e-22)
(1.01532 0.00854547 -7.35738e-21)
(0.645936 0.363207 9.65943e-19)
(1.11294 0.122545 -4.67101e-19)
(1.10726 0.240061 -2.41553e-19)
(1.15214 0.131338 -8.33875e-20)
(1.14485 0.141922 -9.94319e-20)
(1.13552 0.0617553 -4.84354e-20)
(1.11042 0.0598265 8.64102e-20)
(1.09293 0.0209155 8.20185e-20)
(1.07102 0.0220902 1.94808e-20)
(1.0567 0.00743244 1.07511e-20)
(1.04178 0.00943519 -6.2417e-22)
(1.03292 0.00636848 -5.22067e-21)
(1.02462 0.00844695 2.94792e-22)
(1.0204 0.00805973 -1.31044e-21)
(1.01562 0.0099047 5.41292e-21)
(0.691173 0.358112 9.57222e-19)
(1.11902 0.126494 5.34233e-20)
(1.10862 0.243149 3.1925e-20)
(1.14516 0.129791 2.84286e-20)
(1.13444 0.144615 -1.74815e-20)
(1.12734 0.0656986 -7.15548e-20)
(1.10361 0.0659088 -3.82794e-20)
(1.08826 0.0264455 -4.8964e-20)
(1.06792 0.0281378 -5.54862e-21)
(1.05507 0.0122172 -1.04453e-20)
(1.04102 0.0138662 1.31247e-20)
(1.03282 0.00962322 3.98134e-21)
(1.02478 0.0111138 1.19056e-22)
(1.02052 0.00985243 -3.54218e-21)
(1.01588 0.0114153 -4.42161e-21)
(0.733137 0.352628 1.58696e-19)
(1.12387 0.129971 2.43756e-19)
(1.10797 0.246219 3.65417e-19)
(1.13839 0.128788 -2.39365e-19)
(1.12457 0.147183 1.03822e-19)
(1.11952 0.0693194 5.0143e-20)
(1.09697 0.0714266 4.35995e-20)
(1.0836 0.0314849 -9.97264e-21)
(1.06467 0.0336648 7.03441e-21)
(1.05319 0.0166246 5.0964e-21)
(1.03995 0.0179824 -7.28507e-21)
(1.03245 0.0127522 -1.48948e-21)
(1.02454 0.0136016 -3.7459e-22)
(1.02056 0.0117341 4.81194e-21)
(1.01583 0.0128568 5.46465e-22)
(0.772585 0.349291 -5.95357e-19)
(1.12772 0.133354 -2.89857e-19)
(1.10576 0.249228 -1.63303e-19)
(1.13174 0.128287 1.3524e-19)
(1.1152 0.149644 -1.0002e-19)
(1.11201 0.0726559 -2.90255e-20)
(1.09048 0.0764284 -1.61038e-20)
(1.07895 0.0360855 -5.31151e-21)
(1.0613 0.038708 3.55108e-21)
(1.05109 0.0206735 8.93691e-21)
(1.03863 0.0218262 -5.13424e-21)
(1.03176 0.015667 -4.91707e-22)
(1.02413 0.01604 -1.37266e-21)
(1.02026 0.0135215 -1.96056e-21)
(1.01571 0.0143455 1.06504e-21)
(0.809511 0.348673 4.82372e-19)
(1.13067 0.136906 -4.785e-20)
(1.10234 0.252167 -4.59351e-20)
(1.12516 0.128238 3.03568e-20)
(1.10626 0.152004 -1.70783e-20)
(1.10477 0.0757406 4.08644e-20)
(1.08413 0.080958 6.60305e-21)
(1.07431 0.0402895 9.3737e-21)
(1.05784 0.043295 4.02972e-21)
(1.04881 0.0243988 3.31918e-21)
(1.03707 0.0253778 3.91387e-21)
(1.03086 0.0184244 -1.60853e-22)
(1.02341 0.0183257 3.81791e-21)
(1.01986 0.015294 1.09162e-21)
(1.01536 0.015768 -7.65478e-21)
(0.843732 0.35072 -6.97656e-19)
(1.13272 0.140823 -1.02041e-19)
(1.09797 0.255039 -1.45844e-19)
(1.11859 0.128589 -6.24037e-20)
(1.09769 0.154261 7.85472e-20)
(1.09774 0.0786012 1.53637e-20)
(1.0779 0.085051 -1.02817e-20)
(1.06969 0.0441294 -5.00008e-21)
(1.05429 0.0474549 8.13424e-21)
(1.04636 0.0278196 -4.52907e-22)
(1.03533 0.0286613 9.8244e-22)
(1.02971 0.0209839 -6.24573e-22)
(1.02256 0.0204952 -3.08929e-21)
(1.01922 0.0170033 -5.51306e-23)
(1.0149 0.0171708 3.03929e-21)
(0.875064 0.355246 3.92024e-19)
(1.13386 0.145243 1.94043e-19)
(1.09284 0.257852 7.87164e-20)
(1.11198 0.129286 3.44683e-20)
(1.08943 0.156413 -6.6361e-22)
(1.09089 0.0812592 -1.24914e-20)
(1.07179 0.0887362 2.85482e-21)
(1.06507 0.047635 1.39117e-20)
(1.05069 0.0512151 -3.74534e-21)
(1.04375 0.030962 3.56843e-22)
(1.03341 0.0316668 -6.798e-22)
(1.0284 0.0233681 3.20362e-22)
(1.02149 0.0225327 2.47638e-22)
(1.01847 0.0186378 -2.15952e-21)
(1.01429 0.0184976 -3.09157e-21)
(0.90335 0.362027 -3.73239e-19)
(1.13405 0.150253 9.7978e-21)
(1.0871 0.260609 1.46164e-20)
(1.1053 0.130279 -4.379e-20)
(1.08142 0.158451 -3.27103e-20)
(1.08419 0.0837286 1.7747e-21)
(1.06581 0.0920409 -4.32577e-21)
(1.06045 0.0508336 -4.99543e-21)
(1.04702 0.0546022 -1.16337e-21)
(1.041 0.0338385 -8.32569e-22)
(1.03138 0.034406 1.03201e-22)
(1.02689 0.025576 1.48201e-22)
(1.02028 0.0244191 -7.99257e-22)
(1.01755 0.0202112 3.18641e-21)
(1.01356 0.0197574 1.09957e-21)
(0.928462 0.370824 1.31102e-19)
(1.13324 0.155894 1.66042e-20)
(1.08087 0.263314 4.8266e-23)
(1.0985 0.131519 3.34501e-20)
(1.07363 0.160362 1.71327e-20)
(1.07757 0.0860188 5.78636e-21)
(1.05995 0.0949914 3.76554e-21)
(1.05578 0.0537458 1.68078e-21)
(1.04335 0.0576363 5.54911e-22)
(1.0381 0.0364617 -1.01486e-22)
(1.02925 0.0368798 5.3212e-23)
(1.02523 0.0276128 1.82949e-22)
(1.01892 0.0261734 -4.54071e-22)
(1.01651 0.021673 -7.2703e-22)
(1.0127 0.0209367 1.96088e-21)
(0.950301 0.381379 7.97325e-20)
(1.13136 0.162166 -3.98886e-20)
(1.0742 0.26596 3.08058e-20)
(1.09156 0.132958 -5.61312e-21)
(1.06605 0.162136 3.08396e-21)
(1.07099 0.0881329 -7.51933e-22)
(1.05426 0.0976125 -1.87798e-21)
(1.05101 0.056383 9.14958e-22)
(1.03972 0.0603366 -1.08293e-22)
(1.03505 0.0388429 3.53338e-22)
(1.02704 0.0390941 -1.40224e-23)
(1.02341 0.0294946 -3.1675e-22)
(1.01746 0.0277547 8.48798e-22)
(1.01535 0.0230702 8.29635e-22)
(1.0117 0.0220277 -7.19278e-22)
(0.968798 0.393422 8.58425e-20)
(1.12836 0.169037 -3.30061e-20)
(1.06713 0.268535 2.7786e-20)
(1.0844 0.134543 -3.94406e-21)
(1.05872 0.163769 2.8743e-21)
(1.06431 0.0900625 -5.54808e-22)
(1.04879 0.099931 -9.67564e-22)
(1.0461 0.0587486 -1.36971e-22)
(1.03619 0.0627166 5.61056e-23)
(1.03188 0.0410058 1.46434e-21)
(1.02476 0.0410515 -2.78555e-22)
(1.0215 0.0312166 -4.40495e-22)
(1.01589 0.0291955 1.4273e-21)
(1.01407 0.024353 9.25809e-22)
(1.0106 0.0230441 -1.24306e-21)
(0.983913 0.406674 1.44613e-19)
(1.12419 0.176446 1.68693e-20)
(1.05973 0.271029 2.28219e-21)
(1.07688 0.136202 1.6281e-20)
(1.05173 0.16527 8.6809e-21)
(1.05744 0.0917919 1.7499e-21)
(1.04353 0.101963 1.81056e-21)
(1.04114 0.0608541 -1.05958e-21)
(1.03264 0.064772 -2.91538e-22)
(1.02868 0.042984 -5.27898e-21)
(1.02235 0.0427475 8.1685e-22)
(1.01953 0.0327942 5.33976e-22)
(1.01423 0.0304648 -5.66752e-22)
(1.01269 0.0255623 4.06216e-23)
(1.00942 0.0239656 2.71757e-21)
(0.995635 0.420854 -4.21127e-19)
(1.11876 0.184303 5.15132e-21)
(1.05211 0.273443 8.68964e-21)
(1.06884 0.137839 -2.06446e-20)
(1.04513 0.166645 -1.66846e-20)
(1.05044 0.093327 -9.90434e-22)
(1.03833 0.103668 -6.99865e-22)
(1.03637 0.062758 2.74065e-21)
(1.02882 0.0664862 1.23305e-21)
(1.02561 0.0447976 6.45558e-21)
(1.01974 0.0441902 5.93896e-21)
(1.01755 0.034211 1.01386e-21)
(1.01249 0.0316117 -7.82009e-22)
(1.01122 0.0266353 4.22429e-21)
(1.00818 0.0248089 4.12874e-21)
(1.00397 0.435681 4.46142e-19)
(1.11193 0.192475 9.38639e-20)
(1.04449 0.275804 4.63404e-20)
(1.06023 0.139364 1.06618e-20)
(1.03874 0.167839 6.04665e-22)
(1.04362 0.0947442 1.08825e-21)
(1.03291 0.104974 -3.13292e-22)
(1.03186 0.0645417 -9.45741e-21)
(1.02475 0.067875 3.42096e-21)
(1.02266 0.0464309 -5.80899e-22)
(1.017 0.0454165 -1.00944e-21)
(1.01555 0.0354526 2.08604e-21)
(1.0107 0.0326239 4.03394e-21)
(1.0097 0.0276068 -9.91096e-21)
(1.00687 0.0255536 -2.34719e-21)
(1.00895 0.450884 -7.97882e-19)
(1.10353 0.200775 -5.87918e-20)
(1.03705 0.278131 -9.54893e-20)
(1.05132 0.140791 -4.40795e-21)
(1.0321 0.168689 1.55422e-20)
(1.03714 0.0961506 -4.65006e-21)
(1.02724 0.105891 1.96553e-21)
(1.02753 0.0661647 2.92917e-21)
(1.02056 0.0689555 -4.78861e-21)
(1.01973 0.0478748 -1.04834e-21)
(1.01419 0.0464514 -8.54497e-21)
(1.01348 0.0365016 -7.87192e-21)
(1.00888 0.0335259 -1.57159e-20)
(1.00814 0.0284391 1.02581e-21)
(1.00552 0.0262166 1.43186e-20)
(1.01062 0.466201 5.50464e-19)
(1.09352 0.209001 -2.29595e-20)
(1.02958 0.280316 -2.77644e-20)
(1.04245 0.142265 2.90219e-21)
(1.02504 0.169139 -8.0679e-21)
(1.03094 0.0975269 -1.55451e-20)
(1.02145 0.106434 -5.90222e-22)
(1.02331 0.0676302 -4.69676e-21)
(1.01631 0.0697652 -5.16149e-21)
(1.01678 0.0491026 -9.82771e-21)
(1.01136 0.0473244 -1.53059e-20)
(1.01135 0.0373582 1.5768e-20)
(1.00704 0.034295 2.40952e-20)
(1.00657 0.0291586 4.35265e-21)
(1.00413 0.0267782 -2.28925e-20)
(1.0091 0.481386 -7.03925e-19)
(1.08224 0.217053 -5.28711e-20)
(1.02143 0.282121 -7.31503e-20)
(1.03378 0.143871 -2.57269e-20)
(1.0177 0.169143 -2.10132e-21)
(1.0249 0.0988298 8.47546e-21)
(1.01561 0.106638 4.32029e-21)
(1.01911 0.0688919 5.59031e-21)
(1.01208 0.0703366 -4.84894e-21)
(1.01377 0.0501051 -1.1699e-20)
(1.00854 0.048049 1.554e-20)
(1.00916 0.0380292 -2.05387e-21)
(1.00518 0.0349346 4.65738e-22)
(1.00498 0.0297394 -6.83514e-21)
(1.00271 0.0272456 -3.75662e-21)
(1.00463 0.496196 1.87943e-19)
(1.0699 0.224941 4.1969e-20)
(1.01229 0.283444 1.71674e-19)
(1.02526 0.145608 5.95054e-20)
(1.01013 0.168733 -5.27416e-21)
(1.01894 0.100013 -2.3739e-20)
(1.0098 0.106537 -2.42254e-20)
(1.01489 0.0699355 1.24991e-20)
(1.00791 0.070696 -1.0599e-20)
(1.0107 0.0508729 -1.21705e-20)
(1.00573 0.0486311 3.01067e-20)
(1.00692 0.0385322 4.8132e-21)
(1.00329 0.0354319 -5.72799e-21)
(1.0034 0.0301928 1.8547e-20)
(1.00127 0.0276007 8.22876e-21)
(0.997419 0.510412 1.07154e-18)
(1.05642 0.232568 3.33996e-21)
(1.00233 0.284155 1.0155e-21)
(1.01676 0.147337 -3.55746e-21)
(1.00244 0.167915 3.09686e-21)
(1.01299 0.101026 3.6828e-20)
(1.00405 0.106161 5.79248e-21)
(1.01061 0.0707286 5.3175e-20)
(1.00382 0.0708608 -4.2143e-21)
(1.00757 0.0514121 1.96745e-20)
(1.00293 0.0490654 -3.02092e-20)
(1.00466 0.0388829 -2.82188e-20)
(1.00139 0.0357954 2.94315e-21)
(1.00182 0.0305096 -9.50187e-21)
(0.999835 0.0278473 -2.97845e-20)
(0.987398 0.523733 9.47105e-19)
(1.04197 0.239873 2.19813e-20)
(0.991698 0.284183 -7.06663e-20)
(1.0082 0.149001 4.52815e-20)
(0.994678 0.166714 2.96364e-20)
(1.00701 0.101823 2.06075e-20)
(0.998409 0.105536 -5.88286e-20)
(1.00629 0.0712649 -5.69078e-20)
(0.999819 0.0708393 -2.5145e-20)
(1.00441 0.0517305 -3.11662e-20)
(1.00014 0.0493448 1.80828e-20)
(1.00237 0.0390933 3.46664e-20)
(0.999471 0.0360259 -3.51212e-20)
(1.00026 0.0307034 -1.04487e-20)
(0.998427 0.0279869 2.69528e-20)
(0.974295 0.535738 -1.85908e-18)
(1.02687 0.246879 1.41008e-20)
(0.980532 0.283499 1.76303e-20)
(0.999518 0.150497 -8.8251e-20)
(0.986908 0.165143 -7.82247e-20)
(1.00097 0.102365 -6.36992e-20)
(0.992874 0.104678 1.26399e-19)
(1.00192 0.0715328 -4.78442e-20)
(0.995896 0.0706321 9.87835e-20)
(1.00123 0.0518429 -4.63819e-21)
(0.997354 0.049462 -1.87581e-20)
(1.00007 0.0391692 4.15316e-20)
(0.997546 0.0361294 -2.59007e-20)
(0.998736 0.0307743 -1.02894e-20)
(0.997066 0.0280277 -1.95256e-20)
(0.958198 0.546225 4.39245e-19)
(1.01111 0.25364 9.89197e-20)
(0.968927 0.282108 -7.72951e-21)
(0.990678 0.151755 1.30581e-19)
(0.979161 0.163217 -2.01772e-20)
(0.994877 0.102618 3.52448e-20)
(0.987454 0.103597 -1.19734e-19)
(0.997532 0.0715359 1.41744e-19)
(0.992046 0.0702362 -9.11932e-21)
(0.99805 0.0517608 5.22237e-20)
(0.994583 0.049414 3.03974e-21)
(0.997767 0.0391146 -7.25605e-20)
(0.995602 0.0361052 3.65613e-20)
(0.997213 0.0307259 5.41682e-20)
(0.995727 0.0279697 -4.66886e-22)
(0.939505 0.554926 -4.62938e-19)
(0.994608 0.259837 3.32981e-20)
(0.956972 0.279994 -2.03076e-20)
(0.981662 0.152694 2.10264e-20)
(0.971464 0.160946 -5.9867e-20)
(0.988734 0.102558 1.51584e-19)
(0.982143 0.102295 1.1357e-19)
(0.993138 0.0712771 -9.33296e-20)
(0.988268 0.0696466 -7.58328e-20)
(0.994893 0.051496 -2.31082e-20)
(0.991837 0.0492006 2.15391e-20)
(0.995459 0.0389331 2.30765e-20)
(0.99364 0.0359611 6.12135e-20)
(0.995669 0.0305643 -9.14359e-20)
(0.994369 0.027817 3.00797e-20)
(0.91849 0.56165 -5.16153e-19)
(0.977367 0.265347 -1.21043e-20)
(0.944747 0.277149 1.63563e-20)
(0.97247 0.153249 8.48689e-20)
(0.963838 0.158335 1.76771e-19)
(0.982559 0.102164 -1.7783e-19)
(0.976941 0.10077 3.3787e-20)
(0.988761 0.0707637 3.19127e-20)
(0.98456 0.0688595 8.37807e-20)
(0.991769 0.0510556 -2.49132e-20)
(0.989124 0.0488229 6.03971e-20)
(0.993158 0.0386275 1.68823e-20)
(0.99167 0.0357077 -8.02708e-20)
(0.994107 0.0303172 4.48779e-20)
(0.993002 0.0276029 1.19856e-20)
(0.895435 0.566223 1.31505e-18)
(0.959402 0.270003 -1.22554e-19)
(0.932324 0.27356 1.48453e-19)
(0.963118 0.153358 -1.39248e-19)
(0.9563 0.155388 4.66477e-20)
(0.976371 0.101425 -1.67043e-20)
(0.971845 0.0990179 -1.10714e-19)
(0.98442 0.0700024 -8.02603e-20)
(0.980927 0.0678726 -8.86154e-20)
(0.988686 0.0504455 4.68476e-20)
(0.986448 0.0482812 3.08406e-20)
(0.990874 0.0381943 6.18587e-20)
(0.989717 0.0353518 -6.34064e-20)
(0.992569 0.0300183 -1.45307e-20)
(0.991713 0.0273925 4.17083e-20)
(0.870608 0.568498 3.2509e-20)
(0.940769 0.27367 4.69915e-20)
(0.919772 0.26922 -1.80214e-19)
(0.95363 0.152968 -2.89369e-19)
(0.948865 0.152104 -3.00618e-20)
(0.970195 0.100333 2.58574e-19)
(0.966857 0.0970332 9.49243e-21)
(0.980132 0.0690001 3.92303e-20)
(0.977375 0.0666861 3.98676e-21)
(0.985652 0.0496696 -5.3657e-21)
(0.983814 0.0475767 -7.33282e-20)
(0.988616 0.0376263 9.61026e-21)
(0.98781 0.0348803 7.33022e-20)
(0.991099 0.0296664 1.03154e-20)
(0.990579 0.0272163 -3.68826e-20)
(0.84428 0.568348 4.22416e-21)
(0.92154 0.276219 4.63687e-19)
(0.907155 0.264117 -4.76862e-20)
(0.944039 0.152032 3.13738e-19)
(0.941545 0.148478 2.29177e-19)
(0.964057 0.0988842 -2.1791e-20)
(0.961979 0.094811 -3.40167e-20)
(0.975913 0.0677625 -4.04799e-20)
(0.973909 0.0653018 7.60847e-20)
(0.982672 0.0487318 -1.65235e-19)
(0.981229 0.046713 -1.21672e-19)
(0.986405 0.0369209 -6.00104e-20)
(0.985973 0.0342726 -6.16248e-20)
(0.989685 0.029204 3.55412e-21)
(0.989516 0.0270002 1.32134e-20)
(0.816716 0.565674 -2.31273e-19)
(0.901809 0.277537 -1.93523e-19)
(0.894536 0.258247 -2.5473e-19)
(0.934389 0.150515 -3.25937e-19)
(0.934356 0.144508 -4.55201e-19)
(0.957982 0.0970775 -4.88448e-20)
(0.95722 0.0923475 1.70913e-19)
(0.971777 0.0662949 -3.56405e-20)
(0.970537 0.063723 6.23282e-20)
(0.97975 0.0476344 1.11942e-19)
(0.978708 0.0456962 1.35164e-20)
(0.98427 0.0360895 -2.48621e-20)
(0.984222 0.033531 1.41239e-20)
(0.988256 0.0285656 -4.1447e-21)
(0.988233 0.0265949 -8.58923e-20)
(0.788186 0.560398 -1.54895e-19)
(0.881684 0.277523 -1.04829e-19)
(0.881976 0.251604 1.02153e-18)
(0.924725 0.148385 3.03174e-19)
(0.927314 0.140188 2.75278e-19)
(0.951997 0.094914 -2.43059e-19)
(0.952588 0.0896409 -1.80343e-19)
(0.967737 0.0646022 2.02274e-20)
(0.967265 0.0619537 -1.48302e-19)
(0.976896 0.0463791 6.68172e-20)
(0.976268 0.0445298 5.49759e-20)
(0.982238 0.035146 -1.24986e-19)
(0.982571 0.0326945 6.29006e-21)
(0.986763 0.0277898 3.78057e-21)
(0.986533 0.0259924 7.5662e-20)
(0.758954 0.552465 -1.04192e-19)
(0.861285 0.276091 -3.35504e-19)
(0.869536 0.244186 -9.6302e-19)
(0.915099 0.145622 -3.25751e-19)
(0.920437 0.135515 -2.24481e-19)
(0.946127 0.0923969 -8.02189e-20)
(0.948094 0.0866909 9.13423e-20)
(0.963807 0.0626892 -8.75052e-21)
(0.964099 0.0599987 1.00198e-19)
(0.974118 0.0449674 -1.24118e-19)
(0.973922 0.0432143 4.10226e-20)
(0.980311 0.0340861 5.78338e-20)
(0.981005 0.031781 -9.34703e-21)
(0.985254 0.026983 4.7319e-20)
(0.98473 0.0254012 -4.84442e-22)
(0.729284 0.541843 -8.26753e-20)