/*--------------------------------*- C++ -*----------------------------------*\
  =========                 |
  \\      /  F ield         | OpenFOAM: The Open Source CFD Toolbox
   \\    /   O peration     | Website:  https://openfoam.org
    \\  /    A nd           | Version:  7
     \\/     M anipulation  |
\*---------------------------------------------------------------------------*/
FoamFile
{
    version     2.0;
    format      ascii;
    class       volScalarField;
    location    "0.191";
    object      p;
}
// * * * * * * * * * * * * * * * * * * * * * * * * * * * * * * * * * * * * * //

dimensions      [0 2 -2 0 0 0 0];

internalField   nonuniform List<scalar> 
40000
(
2.64017e-06
9.59538e-05
0.000155135
0.000139561
3.42346e-05
-0.000165262
-0.000456724
-0.000834395
-0.00129093
-0.00181839
-0.00240873
-0.00305407
-0.00374685
-0.00447989
-0.00524644
-0.00604016
-0.0068551
-0.00768571
-0.0085268
-0.00937354
-0.0102214
-0.0110663
-0.0119042
-0.0127315
-0.0135448
-0.0143409
-0.0151169
-0.01587
-0.0165978
-0.0172978
-0.0179679
-0.0186061
-0.0192105
-0.0197795
-0.0203114
-0.0208049
-0.0212586
-0.0216713
-0.022042
-0.0223698
-0.0226536
-0.0228929
-0.0230869
-0.023235
-0.0233368
-0.0233918
-0.0233997
-0.0233604
-0.0232735
-0.023139
-0.0229568
-0.022727
-0.0224496
-0.0221247
-0.0217526
-0.0213335
-0.0208678
-0.0203556
-0.0197976
-0.019194
-0.0185455
-0.0178525
-0.0171156
-0.0163354
-0.0155126
-0.0146479
-0.013742
-0.0127957
-0.0118098
-0.010785
-0.00972233
-0.0086226
-0.00748677
-0.00631577
-0.00511059
-0.00387225
-0.00260177
-0.0013002
3.13775e-05
0.00139186
0.00278013
0.00419503
0.0056354
0.00710004
0.00858775
0.0100973
0.0116274
0.0131769
0.0147444
0.0163287
0.0179284
0.0195422
0.0211689
0.022807
0.0244551
0.026112
0.0277763
0.0294465
0.0311212
0.0327991
0.0344787
0.0361586
0.0378375
0.0395138
0.0411862
0.0428531
0.0445133
0.0461652
0.0478074
0.0494385
0.0510571
0.0526618
0.0542511
0.0558237
0.0573781
0.058913
0.060427
0.0619186
0.0633867
0.0648298
0.0662466
0.0676357
0.0689961
0.0703263
0.0716251
0.0728913
0.0741238
0.0753213
0.0764828
0.0776071
0.0786931
0.0797399
0.0807464
0.0817117
0.0826348
0.0835149
0.0843511
0.0851426
0.0858887
0.0865886
0.0872418
0.0878475
0.0884054
0.0889149
0.0893755
0.0897869
0.0901489
0.0904611
0.0907234
0.0909357
0.0910979
0.0912102
0.0912726
0.0912853
0.0912487
0.0911631
0.0910289
0.0908468
0.0906173
0.0903412
0.0900194
0.0896527
0.0892423
0.0887894
0.0882951
0.087761
0.0871884
0.0865791
0.0859349
0.0852577
0.0845496
0.0838129
0.0830499
0.0822632
0.0814556
0.0806299
0.0797894
0.0789373
0.0780774
0.0772132
0.076349
0.075489
0.0746378
0.0738003
0.0729816
0.0721874
0.0714235
0.0706962
0.070012
0.0693779
0.0688011
0.0682891
0.0678495
0.0674895
0.0672159
0.0670334
0.066943
0.0669389
0.0670045
0.0670972
-8.71239e-05
4.6263e-06
4.00633e-05
3.47214e-06
-0.000108853
-0.000301079
-0.000573023
-0.000921095
-0.00134
-0.0018236
-0.00236539
-0.00295873
-0.00359703
-0.00427394
-0.00498335
-0.00571944
-0.00647671
-0.00724997
-0.00803434
-0.00882522
-0.00961832
-0.0104096
-0.0111954
-0.011972
-0.0127363
-0.0134851
-0.0142155
-0.0149248
-0.0156106
-0.0162706
-0.0169025
-0.0175044
-0.0180746
-0.0186112
-0.0191127
-0.0195777
-0.0200049
-0.0203931
-0.0207412
-0.0210483
-0.0213134
-0.0215357
-0.0217147
-0.0218496
-0.02194
-0.0219855
-0.0219857
-0.0219404
-0.0218493
-0.0217122
-0.0215292
-0.0213002
-0.0210253
-0.0207045
-0.0203381
-0.0199262
-0.0194691
-0.0189672
-0.0184208
-0.0178303
-0.0171963
-0.0165191
-0.0157994
-0.0150378
-0.0142348
-0.0133911
-0.0125074
-0.0115846
-0.0106232
-0.00962413
-0.00858823
-0.00751635
-0.00640939
-0.00526826
-0.00409392
-0.00288734
-0.00164951
-0.000381468
0.000915751
0.00224108
0.00359342
0.00497166
0.00637467
0.00780128
0.00925032
0.0107206
0.0122109
0.01372
0.0152466
0.0167896
0.0183475
0.0199192
0.0215033
0.0230986
0.0247036
0.0263171
0.0279377
0.0295641
0.0311949
0.0328287
0.0344642
0.0360999
0.0377346
0.0393668
0.0409951
0.0426181
0.0442345
0.0458428
0.0474416
0.0490297
0.0506055
0.0521677
0.053715
0.0552459
0.0567592
0.0582534
0.0597273
0.0611795
0.0626086
0.0640135
0.0653928
0.0667452
0.0680696
0.0693647
0.0706293
0.0718622
0.0730623
0.0742284
0.0753596
0.0764546
0.0775125
0.0785323
0.0795131
0.0804538
0.0813536
0.0822117
0.0830273
0.0837996
0.0845278
0.0852114
0.0858497
0.0864422
0.0869883
0.0874876
0.0879397
0.0883443
0.088701
0.0890098
0.0892703
0.0894827
0.0896468
0.0897627
0.0898306
0.0898507
0.0898234
0.089749
0.0896279
0.0894608
0.0892483
0.0889912
0.0886903
0.0883465
0.087961
0.0875349
0.0870694
0.0865661
0.0860263
0.0854517
0.0848441
0.0842054
0.0835377
0.0828432
0.0821242
0.0813832
0.080623
0.0798464
0.0790565
0.0782564
0.0774497
0.07664
0.0758313
0.0750276
0.0742333
0.073453
0.0726917
0.0719544
0.0712467
0.0705741
0.0699427
0.0693586
0.0688281
0.0683573
0.0679525
0.0676191
0.0673619
0.0671835
0.0670834
0.0670564
0.0670977
0.0671901
-0.000145747
-3.05428e-05
4.89933e-06
-3.7643e-05
-0.000150774
-0.000336406
-0.000594304
-0.000921459
-0.0013135
-0.00176532
-0.00227133
-0.00282576
-0.00342278
-0.00405667
-0.00472184
-0.00541297
-0.00612488
-0.00685275
-0.00759194
-0.00833812
-0.00908717
-0.00983526
-0.0105787
-0.0113142
-0.0120385
-0.0127485
-0.0134415
-0.0141148
-0.0147661
-0.0153929
-0.0159932
-0.0165651
-0.0171068
-0.0176165
-0.0180927
-0.018534
-0.0189391
-0.0193068
-0.0196359
-0.0199256
-0.0201749
-0.0203831
-0.0205494
-0.0206733
-0.0207541
-0.0207916
-0.0207853
-0.0207349
-0.0206401
-0.020501
-0.0203172
-0.0200889
-0.019816
-0.0194987
-0.019137
-0.0187311
-0.0182814
-0.0177881
-0.0172515
-0.0166721
-0.0160504
-0.0153866
-0.0146815
-0.0139355
-0.0131493
-0.0123235
-0.0114587
-0.0105557
-0.00961516
-0.00863792
-0.00762477
-0.00657655
-0.00549411
-0.00437836
-0.00323021
-0.00205062
-0.000840554
0.000398994
0.001667
0.00296244
0.00428423
0.0056313
0.00700253
0.00839681
0.00981297
0.0112498
0.0127063
0.014181
0.0156729
0.0171807
0.0187031
0.0202389
0.0217869
0.0233457
0.024914
0.0264906
0.0280741
0.0296633
0.0312567
0.032853
0.034451
0.0360492
0.0376464
0.039241
0.0408319
0.0424176
0.0439968
0.045568
0.0471301
0.0486815
0.050221
0.0517472
0.0532588
0.0547544
0.0562327
0.0576925
0.0591323
0.060551
0.0619472
0.0633197
0.0646672
0.0659885
0.0672824
0.0685477
0.0697833
0.070988
0.0721607
0.0733003
0.0744058
0.0754761
0.0765102
0.0775072
0.0784662
0.0793862
0.0802663
0.0811059
0.0819041
0.0826601
0.0833733
0.0840432
0.0846689
0.0852502
0.0857864
0.0862771
0.086722
0.0871208
0.0874732
0.087779
0.0880382
0.0882506
0.0884162
0.0885352
0.0886078
0.0886341
0.0886145
0.0885495
0.0884394
0.0882849
0.0880866
0.0878453
0.0875619
0.0872372
0.0868724
0.0864686
0.0860271
0.0855493
0.0850367
0.0844909
0.0839136
0.0833067
0.0826723
0.0820125
0.0813297
0.0806263
0.0799049
0.0791683
0.0784195
0.0776617
0.0768981
0.0761324
0.0753682
0.0746095
0.0738605
0.0731255
0.0724092
0.0717164
0.0710522
0.0704217
0.0698303
0.0692837
0.0687873
0.0683465
0.0679667
0.0676523
0.0674071
0.0672335
0.067131
0.0670973
0.0671387
0.0672559
-0.000130234
6.189e-06
4.77627e-05
5.2998e-06
-0.000106332
-0.000286693
-0.000534687
-0.000847106
-0.00121987
-0.00164836
-0.00212758
-0.00265233
-0.00321735
-0.0038174
-0.00444738
-0.00510231
-0.00577741
-0.00646811
-0.00717007
-0.00787914
-0.00859144
-0.00930327
-0.0100111
-0.0107118
-0.011402
-0.012079
-0.01274
-0.0133825
-0.0140039
-0.0146022
-0.0151753
-0.0157212
-0.0162381
-0.0167244
-0.0171786
-0.0175992
-0.0179849
-0.0183346
-0.0186472
-0.0189217
-0.0191571
-0.0193528
-0.019508
-0.0196221
-0.0196945
-0.0197248
-0.0197127
-0.0196578
-0.01956
-0.0194189
-0.0192345
-0.0190068
-0.0187357
-0.0184214
-0.0180639
-0.0176634
-0.0172202
-0.0167346
-0.0162068
-0.0156372
-0.0150264
-0.0143746
-0.0136825
-0.0129505
-0.0121792
-0.0113693
-0.0105214
-0.00963609
-0.0087142
-0.00775645
-0.00676362
-0.00573653
-0.00467601
-0.00358295
-0.00245823
-0.00130277
-0.000117534
0.00109652
0.0023384
0.00360709
0.00490155
0.00622073
0.00756353
0.00892886
0.0103156
0.0117226
0.0131487
0.0145927
0.0160535
0.0175298
0.0190204
0.0205241
0.0220397
0.0235659
0.0251014
0.0266449
0.0281953
0.0297511
0.0313111
0.0328739
0.0344384
0.036003
0.0375666
0.0391277
0.0406851
0.0422374
0.0437833
0.0453215
0.0468506
0.0483694
0.0498764
0.0513705
0.0528502
0.0543143
0.0557614
0.0571904
0.0585999
0.0599887
0.0613555
0.0626991
0.0640183
0.0653118
0.0665786
0.0678175
0.0690272
0.0702068
0.0713551
0.0724711
0.0735537
0.074602
0.075615
0.0765917
0.0775313
0.0784329
0.0792956
0.0801187
0.0809014
0.081643
0.082343
0.0830005
0.0836152
0.0841865
0.0847139
0.0851971
0.0856356
0.0860293
0.0863778
0.0866811
0.0869389
0.0871513
0.0873184
0.0874401
0.0875167
0.0875485
0.0875357
0.0874788
0.0873784
0.0872349
0.087049
0.0868216
0.0865534
0.0862454
0.0858986
0.0855143
0.0850936
0.084638
0.084149
0.083628
0.0830769
0.0824975
0.0818918
0.0812619
0.0806101
0.0799388
0.0792505
0.078548
0.0778341
0.0771119
0.0763846
0.0756557
0.0749286
0.0742073
0.0734956
0.0727977
0.072118
0.071461
0.0708314
0.0702339
0.0696737
0.0691558
0.068685
0.0682664
0.0679046
0.0676038
0.0673675
0.0671984
0.067097
0.0670633
0.0671116
0.0672522
-2.52097e-05
0.000118583
0.000161205
0.000117398
5.82171e-06
-0.000171448
-0.000412506
-0.000713853
-0.00107151
-0.00148118
-0.00193829
-0.0024381
-0.0029758
-0.00354661
-0.00414581
-0.0047688
-0.00541113
-0.00606852
-0.00673687
-0.00741229
-0.00809106
-0.00876966
-0.00944476
-0.0101132
-0.010772
-0.0114182
-0.0120494
-0.0126629
-0.0132565
-0.013828
-0.0143754
-0.0148967
-0.0153903
-0.0158545
-0.0162878
-0.0166887
-0.0170561
-0.0173887
-0.0176855
-0.0179454
-0.0181677
-0.0183514
-0.018496
-0.0186007
-0.0186651
-0.0186886
-0.018671
-0.0186118
-0.0185109
-0.018368
-0.018183
-0.0179558
-0.0176866
-0.0173751
-0.0170217
-0.0166265
-0.0161896
-0.0157114
-0.0151921
-0.0146321
-0.0140318
-0.0133917
-0.0127121
-0.0119937
-0.011237
-0.0104425
-0.0096109
-0.00874285
-0.00783905
-0.00690023
-0.00592714
-0.00492058
-0.00388136
-0.00281034
-0.00170838
-0.000576393
0.000584711
0.00177399
0.00299046
0.00423315
0.00550104
0.00679308
0.00810824
0.00944541
0.0108035
0.0121814
0.013578
0.0149922
0.0164227
0.0178684
0.0193281
0.0208006
0.0222847
0.0237792
0.0252828
0.0267942
0.0283123
0.0298357
0.0313632
0.0328935
0.0344253
0.0359573
0.0374883
0.0390168
0.0405417
0.0420616
0.0435752
0.0450813
0.0465784
0.0480654
0.049541
0.0510038
0.0524525
0.053886
0.055303
0.0567021
0.0580822
0.059442
0.0607803
0.0620959
0.0633876
0.0646543
0.0658948
0.0671079
0.0682927
0.0694479
0.0705727
0.0716658
0.0727263
0.0737533
0.0747459
0.075703
0.0766238
0.0775076
0.0783534
0.0791606
0.0799284
0.0806561
0.0813432
0.081989
0.0825929
0.0831546
0.0836736
0.0841494
0.0845818
0.0849705
0.0853153
0.085616
0.0858726
0.086085
0.0862533
0.0863776
0.0864581
0.086495
0.0864887
0.0864397
0.0863483
0.0862153
0.0860413
0.085827
0.0855733
0.0852811
0.0849514
0.0845855
0.0841846
0.08375
0.0832831
0.0827856
0.0822592
0.0817056
0.0811268
0.0805249
0.0799021
0.0792607
0.0786032
0.0779323
0.0772507
0.0765614
0.0758675
0.0751722
0.0744791
0.0737916
0.0731135
0.0724489
0.0718017
0.0711763
0.070577
0.0700082
0.0694747
0.0689808
0.0685313
0.0681306
0.0677831
0.0674926
0.0672627
0.0670965
0.0669954
0.0669609
0.0670116
0.0671625
0.000173746
0.000310832
0.000347188
0.000298267
0.000183649
6.34541e-06
-0.000231174
-0.000525211
-0.000871841
-0.001267
-0.00170645
-0.00218582
-0.0027007
-0.00324669
-0.00381943
-0.00441465
-0.00502822
-0.00565613
-0.00629454
-0.00693977
-0.0075883
-0.00823679
-0.00888206
-0.00952105
-0.0101509
-0.0107689
-0.0113725
-0.0119593
-0.012527
-0.0130736
-0.013597
-0.0140954
-0.0145671
-0.0150105
-0.0154242
-0.0158067
-0.0161568
-0.0164732
-0.0167551
-0.0170013
-0.017211
-0.0173835
-0.017518
-0.0176138
-0.0176706
-0.0176877
-0.0176648
-0.0176016
-0.0174978
-0.0173532
-0.0171676
-0.0169411
-0.0166735
-0.016365
-0.0160155
-0.0156253
-0.0151946
-0.0147235
-0.0142124
-0.0136616
-0.0130716
-0.0124426
-0.0117752
-0.0110699
-0.0103271
-0.00954757
-0.00873175
-0.00788034
-0.00699401
-0.00607346
-0.00511943
-0.0041327
-0.00311406
-0.00206434
-0.000984382
0.000124935
0.00126272
0.00242804
0.00361996
0.00483751
0.00607971
0.00734553
0.00863395
0.00994392
0.0112744
0.0126242
0.0139923
0.0153775
0.0167788
0.0181949
0.0196247
0.021067
0.0225207
0.0239845
0.0254572
0.0269376
0.0284245
0.0299166
0.0314127
0.0329115
0.0344118
0.0359123
0.0374118
0.0389088
0.0404023
0.0418909
0.0433734
0.0448484
0.0463147
0.0477711
0.0492162
0.0506489
0.0520678
0.0534718
0.0548596
0.0562299
0.0575816
0.0589135
0.0602243
0.0615129
0.0627782
0.064019
0.0652342
0.0664226
0.0675833
0.0687151
0.0698171
0.0708882
0.0719275
0.0729341
0.0739069
0.0748452
0.075748
0.0766147
0.0774443
0.0782362
0.0789897
0.079704
0.0803787
0.0810131
0.0816068
0.0821593
0.0826701
0.0831389
0.0835653
0.0839493
0.0842904
0.0845887
0.084844
0.0850564
0.0852258
0.0853525
0.0854366
0.0854784
0.0854783
0.0854366
0.0853539
0.0852307
0.0850678
0.0848659
0.0846258
0.0843485
0.0840349
0.0836863
0.0833039
0.0828889
0.0824428
0.0819673
0.0814638
0.0809343
0.0803805
0.0798046
0.0792086
0.0785948
0.0779657
0.0773238
0.0766718
0.0760126
0.075349
0.0746842
0.0740216
0.0733644
0.0727164
0.0720812
0.0714626
0.0708646
0.0702914
0.069747
0.0692358
0.0687618
0.0683294
0.0679427
0.0676056
0.067322
0.0670955
0.0669294
0.0668259
0.0667873
0.0668337
0.0669809
0.000464569
0.00058288
0.000605602
0.000546933
0.000425356
0.000244318
6.61155e-06
-0.000284006
-0.000623695
-0.00100859
-0.00143473
-0.00189808
-0.00239455
-0.00292008
-0.00347063
-0.00404226
-0.0046311
-0.00523342
-0.00584561
-0.00646422
-0.00708592
-0.00770754
-0.00832603
-0.0089385
-0.00954219
-0.0101345
-0.010713
-0.0112753
-0.0118193
-0.0123429
-0.0128442
-0.0133214
-0.0137729
-0.0141971
-0.0145926
-0.0149579
-0.0152918
-0.0155933
-0.0158612
-0.0160946
-0.0162926
-0.0164545
-0.0165796
-0.0166671
-0.0167167
-0.0167277
-0.0167
-0.0166329
-0.0165265
-0.0163803
-0.0161943
-0.0159684
-0.0157025
-0.0153967
-0.0150511
-0.0146657
-0.0142408
-0.0137766
-0.0132734
-0.0127315
-0.0121512
-0.011533
-0.0108772
-0.0101844
-0.00945512
-0.00868982
-0.00788913
-0.00705367
-0.00618408
-0.00528105
-0.00434531
-0.0033776
-0.0023787
-0.00134941
-0.000290552
0.000797014
0.00191242
0.00305476
0.00422311
0.00541654
0.00663408
0.00787474
0.0091375
0.0104213
0.0117252
0.0130481
0.0143888
0.0157463
0.0171195
0.0185072
0.0199083
0.0213217
0.0227462
0.0241805
0.0256237
0.0270743
0.0285312
0.0299933
0.0314593
0.0329279
0.034398
0.0358683
0.0373375
0.0388044
0.0402678
0.0417264
0.0431789
0.0446242
0.046061
0.047488
0.048904
0.0503078
0.0516982
0.0530739
0.0544338
0.0557766
0.0571011
0.0584063
0.0596908
0.0609536
0.0621936
0.0634096
0.0646006
0.0657654
0.0669031
0.0680126
0.0690929
0.070143
0.071162
0.072149
0.073103
0.0740233
0.074909
0.0757593
0.0765735
0.0773508
0.0780906
0.0787922
0.0794551
0.0800787
0.0806626
0.0812062
0.0817092
0.0821713
0.0825921
0.0829714
0.0833091
0.083605
0.0838591
0.0840713
0.0842418
0.0843707
0.0844582
0.0845045
0.08451
0.0844752
0.0844005
0.0842865
0.084134
0.0839436
0.0837162
0.0834527
0.0831541
0.0828215
0.0824562
0.0820595
0.0816327
0.0811773
0.0806951
0.0801876
0.0796569
0.0791047
0.0785333
0.0779448
0.0773415
0.0767259
0.0761006
0.0754683
0.0748319
0.0741944
0.0735588
0.0729284
0.0723066
0.0716969
0.0711029
0.0705283
0.069977
0.0694528
0.0689596
0.0685013
0.0680818
0.0677051
0.0673748
0.0670946
0.066868
0.0666986
0.0665889
0.0665419
0.0665768
0.0667086
0.000841739
0.000931345
0.000933636
0.000860372
0.00072762
0.000538939
0.000297262
6.26172e-06
-0.000330371
-0.000708975
-0.00112584
-0.00157722
-0.00205935
-0.00256844
-0.00310076
-0.00365265
-0.00422052
-0.00480088
-0.00539037
-0.00598572
-0.0065838
-0.0071816
-0.00777623
-0.00836493
-0.00894508
-0.00951418
-0.0100699
-0.0106099
-0.0111322
-0.0116348
-0.0121159
-0.0125737
-0.0130065
-0.013413
-0.0137915
-0.0141409
-0.0144599
-0.0147474
-0.0150023
-0.0152238
-0.0154109
-0.015563
-0.0156792
-0.015759
-0.0158019
-0.0158073
-0.015775
-0.0157045
-0.0155955
-0.015448
-0.0152616
-0.0150363
-0.0147721
-0.014469
-0.0141271
-0.0137464
-0.0133271
-0.0128695
-0.0123738
-0.0118404
-0.0112695
-0.0106615
-0.0100169
-0.00933617
-0.00861972
-0.00786811
-0.00708192
-0.00626174
-0.0054082
-0.00452198
-0.00360377
-0.0026543
-0.00167432
-0.000664621
0.000373996
0.0014407
0.00253464
0.00365493
0.00480068
0.00597097
0.00716486
0.00838137
0.00961952
0.0108783
0.0121567
0.0134537
0.0147681
0.016099
0.0174453
0.0188057
0.0201793
0.0215649
0.0229614
0.0243676
0.0257823
0.0272043
0.0286326
0.0300659
0.031503
0.0329427
0.0343838
0.0358251
0.0372653
0.0387033
0.0401379
0.0415677
0.0429916
0.0444084
0.0458169
0.0472158
0.048604
0.0499801
0.0513432
0.0526918
0.054025
0.0553414
0.05664
0.0579196
0.059179
0.0604172
0.061633
0.0628253
0.0639932
0.0651354
0.0662511
0.0673393
0.0683988
0.0694289
0.0704285
0.0713969
0.072333
0.0732361
0.0741054
0.0749401
0.0757396
0.076503
0.0772297
0.0779192
0.0785709
0.0791842
0.0797586
0.0802938
0.0807894
0.0812451
0.0816605
0.0820354
0.0823698
0.0826634
0.0829162
0.0831282
0.0832996
0.0834305
0.083521
0.0835715
0.0835823
0.0835538
0.0834865
0.0833811
0.0832382
0.0830585
0.0828428
0.0825921
0.0823074
0.0819897
0.0816402
0.0812603
0.0808512
0.0804145
0.0799517
0.0794645
0.0789547
0.0784243
0.0778752
0.0773096
0.0767297
0.0761378
0.0755365
0.0749284
0.0743161
0.0737026
0.0730908
0.0724838
0.0718848
0.071297
0.0707239
0.0701688
0.0696355
0.0691275
0.0686484
0.0682019
0.0677916
0.067421
0.0670938
0.0668134
0.0665833
0.066407
0.0662872
0.0662271
0.0662439
0.0663502
0.00129823
0.00135122
0.00132717
0.00123472
0.00108667
0.000886498
0.000637154
0.000342123
4.88028e-06
-0.000371135
-0.000782466
-0.00122563
-0.00169714
-0.00219349
-0.00271124
-0.00324698
-0.00379737
-0.00435917
-0.00492922
-0.00550446
-0.00608194
-0.00665882
-0.00723235
-0.00779991
-0.008359
-0.00890724
-0.00944238
-0.00996227
-0.0104649
-0.0109484
-0.011411
-0.0118509
-0.0122666
-0.0126567
-0.0130197
-0.0133544
-0.0136596
-0.0139342
-0.0141771
-0.0143875
-0.0145645
-0.0147074
-0.0148154
-0.0148881
-0.0149247
-0.014925
-0.0148884
-0.0148147
-0.0147035
-0.0145547
-0.014368
-0.0141434
-0.0138809
-0.0135804
-0.013242
-0.0128658
-0.012452
-0.0120007
-0.0115123
-0.010987
-0.0104251
-0.009827
-0.00919311
-0.00852388
-0.00781976
-0.00708128
-0.00630898
-0.00550345
-0.0046653
-0.00379519
-0.00289378
-0.0019618
-0.000999966
-9.05177e-06
0.00101016
0.00205686
0.00313021
0.00422936
0.00535344
0.00650153
0.00767273
0.00886608
0.0100806
0.0113154
0.0125693
0.0138415
0.0151307
0.0164361
0.0177565
0.0190909
0.0204381
0.021797
0.0231666
0.0245458
0.0259332
0.0273279
0.0287287
0.0301344
0.0315438
0.0329557
0.0343691
0.0357826
0.0371951
0.0386054
0.0400123
0.0414146
0.0428111
0.0442007
0.0455821
0.0469541
0.0483155
0.0496653
0.0510021
0.0523249
0.0536325
0.0549238
0.0561975
0.0574527
0.0586881
0.0599027
0.0610954
0.0622652
0.0634109
0.0645316
0.0656264
0.0666941
0.0677339
0.0687448
0.069726
0.0706765
0.0715956
0.0724823
0.073336
0.0741559
0.0749412
0.0756914
0.0764057
0.0770836
0.0777245
0.078328
0.0788935
0.0794207
0.0799092
0.0803587
0.0807689
0.0811396
0.0814707
0.081762
0.0820136
0.0822254
0.0823975
0.0825301
0.0826234
0.0826777
0.0826934
0.0826708
0.0826104
0.0825129
0.0823788
0.082209
0.0820042
0.0817653
0.0814933
0.0811893
0.0808544
0.0804899
0.0800971
0.0796774
0.0792324
0.0787637
0.0782731
0.0777624
0.0772335
0.0766885
0.0761296
0.075559
0.0749791
0.0743923
0.0738014
0.0732091
0.072618
0.0720312
0.0714516
0.0708824
0.0703266
0.0697876
0.0692687
0.0687733
0.0683047
0.0678663
0.0674616
0.0670937
0.0667661
0.066482
0.0662449
0.066058
0.0659241
0.0658464
0.0658392
0.065912
0.00182648
0.0018367
0.00178138
0.00166565
0.00149849
0.0012832
0.00102269
0.000720174
0.000378878
1.99513e-06
-0.000407269
-0.000845694
-0.00131005
-0.00179711
-0.00230367
-0.00282659
-0.00336277
-0.00390918
-0.00446287
-0.00502097
-0.00558071
-0.0061394
-0.00669445
-0.00724337
-0.00778379
-0.00831344
-0.00883017
-0.00933194
-0.00981682
-0.010283
-0.0107287
-0.0111524
-0.0115526
-0.0119277
-0.0122765
-0.0125977
-0.0128901
-0.0131528
-0.0133846
-0.0135848
-0.0137525
-0.0138869
-0.0139874
-0.0140534
-0.0140843
-0.0140797
-0.0140393
-0.0139626
-0.0138494
-0.0136995
-0.0135127
-0.0132889
-0.013028
-0.0127301
-0.0123951
-0.0120233
-0.0116147
-0.0111696
-0.0106881
-0.0101706
-0.00961732
-0.00902869
-0.00840507
-0.00774687
-0.00705457
-0.00632866
-0.00556967
-0.00477818
-0.00395477
-0.00310009
-0.00221478
-0.00129955
-0.000355105
0.00061781
0.00161843
0.00264596
0.00369959
0.00477848
0.00588179
0.00700862
0.00815807
0.00932923
0.0105212
0.0117329
0.0129634
0.0142117
0.0154769
0.0167578
0.0180535
0.0193628
0.0206847
0.0220182
0.023362
0.0247152
0.0260766
0.0274451
0.0288195
0.0301987
0.0315816
0.0329671
0.0343538
0.0357408
0.0371267
0.0385105
0.039891
0.041267
0.0426373
0.0440007
0.0453562
0.0467025
0.0480384
0.0493629
0.0506748
0.0519729
0.0532561
0.0545232
0.0557733
0.0570051
0.0582176
0.0594097
0.0605804
0.0617285
0.0628532
0.0639534
0.0650281
0.0660764
0.0670974
0.06809
0.0690536
0.0699872
0.0708899
0.0717611
0.0725999
0.0734056
0.0741776
0.0749151
0.0756176
0.0762844
0.0769152
0.0775092
0.0780662
0.0785858
0.0790675
0.079511
0.0799163
0.0802829
0.0806108
0.0809
0.0811502
0.0813617
0.0815345
0.0816686
0.0817645
0.0818222
0.0818423
0.0818251
0.081771
0.0816807
0.0815549
0.0813941
0.0811993
0.0809712
0.080711
0.0804195
0.0800979
0.0797475
0.0793696
0.0789654
0.0785366
0.0780846
0.0776113
0.0771184
0.0766077
0.0760812
0.075541
0.0749893
0.0744283
0.0738604
0.0732882
0.0727141
0.0721408
0.0715712
0.071008
0.0704541
0.0699125
0.0693863
0.0688785
0.0683923
0.0679308
0.0674971
0.0670946
0.0667261
0.0663948
0.0661039
0.0658563
0.0656553
0.0655036
0.0654043
0.065368
0.0654012
0.00241888
0.00238168
0.00229106
0.0021485
0.00195881
0.0017251
0.00145019
0.001137
0.00078845
0.000407497
-2.91356e-06
-0.000439813
-0.000900225
-0.00138118
-0.00187972
-0.00239293
-0.00291793
-0.00345192
-0.00399214
-0.0045359
-0.00508059
-0.00562368
-0.00616273
-0.00669539
-0.0072194
-0.00773262
-0.00823301
-0.00871861
-0.00918759
-0.0096382
-0.0100688
-0.0104778
-0.0108637
-0.0112253
-0.0115611
-0.0118699
-0.0121507
-0.0124025
-0.0126242
-0.012815
-0.012974
-0.0131007
-0.0131942
-0.0132541
-0.0132798
-0.0132709
-0.0132269
-0.0131476
-0.0130326
-0.0128817
-0.0126949
-0.0124719
-0.0122126
-0.0119172
-0.0115857
-0.0112181
-0.0108145
-0.0103753
-0.00990047
-0.00939045
-0.00884548
-0.00826592
-0.00765212
-0.00700451
-0.00632353
-0.00560965
-0.0048634
-0.00408534
-0.00327604
-0.00243613
-0.00156624
-0.000667042
0.00026076
0.00121645
0.00219926
0.00320845
0.0042432
0.0053027
0.00638612
0.00749259
0.00862123
0.00977115
0.0109414
0.0121311
0.0133392
0.0145648
0.0158068
0.0170643
0.0183363
0.0196217
0.0209194
0.0222284
0.0235476
0.024876
0.0262125
0.0275559
0.0289051
0.030259
0.0316166
0.0329766
0.0343379
0.0356995
0.03706
0.0384185
0.0397737
0.0411245
0.0424698
0.0438083
0.045139
0.0464608
0.0477724
0.0490727
0.0503607
0.0516352
0.0528951
0.0541393
0.0553668
0.0565763
0.057767
0.0589376
0.0600873
0.0612149
0.0623195
0.0634001
0.0644558
0.0654855
0.0664885
0.0674639
0.0684106
0.0693281
0.0702153
0.0710717
0.0718963
0.0726886
0.0734478
0.0741733
0.0748645
0.0755208
0.0761418
0.076727
0.0772759
0.0777881
0.0782633
0.0787012
0.0791017
0.0794644
0.0797893
0.0800762
0.0803252
0.0805362
0.0807095
0.080845
0.0809431
0.081004
0.081028
0.0810157
0.0809674
0.0808838
0.0807654
0.0806129
0.0804272
0.080209
0.0799594
0.0796794
0.07937
0.0790324
0.0786679
0.0782778
0.0778636
0.0774267
0.0769689
0.0764919
0.0759974
0.0754874
0.0749638
0.0744287
0.0738842
0.0733328
0.0727766
0.0722182
0.07166
0.0711047
0.070555
0.0700135
0.069483
0.0689665
0.0684667
0.0679865
0.067529
0.067097
0.0666934
0.0663212
0.0659832
0.0656822
0.0654212
0.0652029
0.06503
0.0649055
0.0648361
0.0648248
0.00306808
0.00297998
0.00285087
0.00267848
0.00246329
0.0022082
0.00191596
0.00158915
0.00123043
0.000842457
0.000427943
-1.03974e-05
-0.000469832
-0.000947627
-0.00144107
-0.00194745
-0.00246412
-0.00298847
-0.00351791
-0.00404994
-0.00458212
-0.00511206
-0.00563746
-0.00615611
-0.00666588
-0.00716475
-0.00765076
-0.00812207
-0.00857692
-0.00901364
-0.00943064
-0.00982643
-0.0101996
-0.0105488
-0.0108729
-0.0111705
-0.0114408
-0.0116826
-0.011895
-0.0120772
-0.0122284
-0.012348
-0.0124352
-0.0124895
-0.0125104
-0.0124975
-0.0124504
-0.0123687
-0.0122521
-0.0121005
-0.0119137
-0.0116916
-0.0114341
-0.0111411
-0.0108129
-0.0104494
-0.0100507
-0.00961708
-0.00914874
-0.00864591
-0.00810889
-0.00753801
-0.00693363
-0.00629614
-0.00562599
-0.00492363
-0.00418957
-0.00342436
-0.00262856
-0.00180277
-0.000947619
-6.37609e-05
0.000848125
0.00178733
0.00275313
0.00374476
0.00476146
0.00580241
0.00686681
0.00795381
0.00906256
0.0101922
0.0113417
0.0125103
0.013697
0.0149008
0.0161207
0.0173559
0.0186052
0.0198676
0.0211422
0.0224279
0.0237236
0.0250283
0.0263409
0.0276603
0.0289854
0.0303152
0.0316485
0.0329843
0.0343214
0.0356586
0.036995
0.0383292
0.0396603
0.0409871
0.0423084
0.0436232
0.0449303
0.0462286
0.047517
0.0487943
0.0500596
0.0513116
0.0525493
0.0537716
0.0549775
0.0561659
0.0573357
0.0584859
0.0596156
0.0607237
0.0618092
0.0628711
0.0639087
0.0649208
0.0659067
0.0668656
0.0677964
0.0686985
0.069571
0.0704133
0.0712245
0.0720039
0.072751
0.0734651
0.0741456
0.0747919
0.0754037
0.0759803
0.0765215
0.0770267
0.0774958
0.0779283
0.0783241
0.0786831
0.079005
0.0792898
0.0795374
0.079748
0.0799215
0.0800582
0.0801582
0.0802219
0.0802496
0.0802417
0.0801986
0.080121
0.0800094
0.0798645
0.079687
0.0794779
0.0792379
0.0789682
0.0786698
0.0783438
0.0779914
0.077614
0.0772128
0.0767895
0.0763455
0.0758826
0.0754025
0.0749069
0.0743978
0.0738772
0.0733471
0.0728097
0.0722672
0.0717219
0.0711762
0.0706326
0.0700936
0.0695617
0.0690396
0.0685298
0.0680351
0.0675582
0.0671017
0.0666684
0.066261
0.0658822
0.0655345
0.0652207
0.0649432
0.0647047
0.0645077
0.0643551
0.0642493
0.0641899
0.00376713
0.00362556
0.00345546
0.00325077
0.00300752
0.00272846
0.00241627
0.00207322
0.00170165
0.00130397
0.000882642
0.000440135
-2.10526e-05
-0.000498418
-0.000989464
-0.0014917
-0.00200268
-0.00251996
-0.00304115
-0.00356391
-0.00408595
-0.00460504
-0.00511902
-0.0056258
-0.00612339
-0.00660986
-0.00708338
-0.00754218
-0.0079846
-0.00840903
-0.00881397
-0.00919799
-0.00955974
-0.00989793
-0.0102114
-0.010499
-0.0107596
-0.0109924
-0.0111965
-0.0113709
-0.011515
-0.0116281
-0.0117096
-0.0117589
-0.0117755
-0.011759
-0.011709
-0.0116252
-0.0115074
-0.0113552
-0.0111686
-0.0109474
-0.0106915
-0.0104011
-0.010076
-0.00971648
-0.00932254
-0.00889438
-0.00843221
-0.00793629
-0.00740689
-0.00684434
-0.00624897
-0.00562117
-0.00496137
-0.00427002
-0.00354762
-0.00279469
-0.00201178
-0.00119949
-0.000358428
0.000510775
0.00140745
0.00233091
0.00328045
0.00425532
0.00525476
0.006278
0.00732423
0.00839263
0.00948236
0.0105926
0.0117223
0.0128708
0.014037
0.01522
0.0164188
0.0176326
0.0188603
0.0201008
0.0213533
0.0226167
0.0238899
0.025172
0.0264618
0.0277583
0.0290605
0.0303672
0.0316775
0.0329901
0.034304
0.0356181
0.0369313
0.0382425
0.0395506
0.0408545
0.0421531
0.0434452
0.0447298
0.0460057
0.047272
0.0485274
0.049771
0.0510016
0.0522182
0.0534197
0.0546051
0.0557733
0.0569233
0.0580541
0.0591648
0.0602543
0.0613216
0.0623659
0.0633862
0.0643816
0.0653513
0.0662944
0.0672102
0.0680977
0.0689562
0.0697851
0.0705835
0.0713508
0.0720864
0.0727897
0.07346
0.0740969
0.0746998
0.0752684
0.0758022
0.0763008
0.0767639
0.0771913
0.0775827
0.077938
0.078257
0.0785397
0.078786
0.078996
0.0791697
0.0793073
0.0794091
0.0794753
0.0795062
0.0795022
0.0794638
0.0793916
0.0792861
0.079148
0.078978
0.078777
0.0785458
0.0782853
0.0779967
0.0776811
0.0773396
0.0769734
0.0765839
0.0761725
0.0757408
0.0752903
0.0748227
0.0743397
0.0738432
0.073335
0.072817
0.0722915
0.0717604
0.0712259
0.0706903
0.0701559
0.069625
0.0691002
0.0685837
0.0680781
0.0675858
0.0671094
0.0666512
0.066214
0.0658001
0.0654119
0.065052
0.0647227
0.0644263
0.064165
0.0639414
0.0637581
0.0636134
0.0635032
0.00450948
0.00431262
0.00409962
0.0038606
0.00358715
0.00328188
0.00294744
0.00258579
0.00219897
0.00178915
0.00135853
0.000909362
0.000443911
-3.55371e-05
-0.000526692
-0.00102727
-0.00153499
-0.00204761
-0.00256291
-0.00307869
-0.00359282
-0.00410323
-0.00460788
-0.00510481
-0.00559216
-0.0060681
-0.00653091
-0.00697891
-0.00741052
-0.00782421
-0.00821855
-0.00859218
-0.00894379
-0.00927217
-0.00957617
-0.00985473
-0.0101068
-0.0103316
-0.0105281
-0.0106955
-0.0108332
-0.0109405
-0.0110168
-0.0110616
-0.0110744
-0.0110547
-0.0110022
-0.0109166
-0.0107976
-0.010645
-0.0104587
-0.0102385
-0.00998443
-0.00969641
-0.00937451
-0.0090188
-0.00862942
-0.00820652
-0.0077503
-0.007261
-0.00673891
-0.00618431
-0.00559756
-0.00497903
-0.00432912
-0.00364829
-0.00293702
-0.00219582
-0.00142523
-0.000625827
0.000201794
0.00105701
0.00193917
0.00284761
0.00378162
0.00474049
0.00572347
0.0067298
0.0077587
0.00880936
0.00988095
0.0109726
0.0120835
0.0132127
0.0143594
0.0155226
0.0167013
0.0178947
0.0191017
0.0203214
0.0215528
0.022795
0.0240468
0.0253072
0.0265754
0.0278501
0.0291303
0.0304151
0.0317033
0.0329939
0.0342857
0.0355778
0.036869
0.0381582
0.0394444
0.0407265
0.0420034
0.0432739
0.0445371
0.0457918
0.0470371
0.0482717
0.0494946
0.0507049
0.0519014
0.0530831
0.054249
0.0553981
0.0565293
0.0576417
0.0587343
0.0598061
0.0608562
0.0618837
0.0628877
0.0638673
0.0648216
0.0657499
0.0666513
0.067525
0.0683703
0.0691864
0.0699728
0.0707286
0.0714533
0.0721462
0.0728069
0.0734348
0.0740294
0.0745903
0.0751171
0.0756094
0.0760669
0.0764894
0.0768766
0.0772283
0.0775445
0.0778251
0.07807
0.0782793
0.0784531
0.0785915
0.0786948
0.0787631
0.0787968
0.0787963
0.0787622
0.0786948
0.0785947
0.0784627
0.0782994
0.0781056
0.0778822
0.0776301
0.0773503
0.0770438
0.0767119
0.0763556
0.0759764
0.0755756
0.0751545
0.0747148
0.074258
0.0737858
0.0732999
0.0728022
0.0722944
0.0717786
0.0712567
0.0707308
0.070203
0.0696755
0.0691505
0.0686302
0.0681169
0.0676129
0.0671206
0.0666421
0.0661799
0.0657362
0.0653134