/*--------------------------------*- C++ -*----------------------------------*\
  =========                 |
  \\      /  F ield         | OpenFOAM: The Open Source CFD Toolbox
   \\    /   O peration     | Website:  https://openfoam.org
    \\  /    A nd           | Version:  7
     \\/     M anipulation  |
\*---------------------------------------------------------------------------*/
FoamFile
{
    version     2.0;
    format      ascii;
    class       volScalarField;
    location    "3.5";
    object      p;
}
// * * * * * * * * * * * * * * * * * * * * * * * * * * * * * * * * * * * * * //

dimensions      [1 -1 -2 0 0 0 0];

internalField   nonuniform List<scalar> 
2413
(
1.23874
1.23755
1.23527
1.23062
1.22711
1.22607
1.22526
1.22448
1.22381
1.22363
1.22532
1.22838
1.2288
1.22813
1.22737
1.22646
1.22509
1.22191
1.21517
1.20939
1.20758
1.20661
1.20581
1.2053
1.20557
1.20748
1.20813
1.20739
1.20658
1.20566
1.20421
1.20241
1.2015
1.201
1.2005
1.19969
1.19869
1.1973
1.19554
1.19438
1.19367
1.19318
1.19291
1.19249
1.19185
1.19109
1.19008
1.18822
1.18497
1.18287
1.18182
1.18086
1.18012
1.17991
1.18074
1.18086
1.18017
1.17946
1.17859
1.17725
1.1745
1.17135
1.1701
1.1693
1.1685
1.16781
1.16742
1.16801
1.17095
1.17315
1.17284
1.17218
1.17148
1.1706
1.16889
1.16483
1.15831
1.15452
1.15328
1.15237
1.15138
1.15055
1.14985
1.29522
1.29786
1.29764
1.29692
1.29612
1.29497
1.29216
1.28564
1.27941
1.27737
1.2765
1.27574
1.27504
1.27448
1.27438
1.27607
1.27926
1.27964
1.27889
1.27805
1.27683
1.27523
1.2743
1.2736
1.27304
1.27225
1.27136
1.27035
1.26909
1.26724
1.26435
1.26204
1.26113
1.26074
1.26073
1.26024
1.2594
1.25836
1.25674
1.25373
1.25107
1.24994
1.24906
1.24828
1.24779
1.24802
1.2489
1.24868
1.2479
1.24691
1.2453
1.24186
1.23807
1.23676
1.23597
1.2352
1.23454
1.2343
1.23568
1.23882
1.23963
1.23894
1.23811
1.23699
1.23467
1.2293
1.22204
1.21847
1.21745
1.21666
1.21588
1.21521
1.21471
1.21479
1.21689
1.21939
1.21921
1.21844
1.21761
1.21647
1.21415
1.21056
1.20886
1.20813
1.20791
1.20805
1.20743
1.20659
1.20552
1.20404
1.20301
1.20232
1.20167
1.20096
1.20015
1.19916
1.19757
1.19506
1.19321
1.19219
1.19139
1.19081
1.1907
1.19118
1.19091
1.19024
1.18946
1.18835
1.18614
1.18303
1.18156
1.18077
1.18004
1.1794
1.17902
1.1797
1.18277
1.1849
1.1845
1.1838
1.18291
1.18117
1.17663
1.1697
1.1657
1.16443
1.16375
1.16335
1.16299
1.1623
1.16169
1.16097
1.31042
1.31045
1.30962
1.30852
1.30615
1.30052
1.29337
1.29017
1.28924
1.28864
1.28861
1.28899
1.28873
1.28813
1.28762
1.28773
1.28969
1.29143
1.29097
1.29015
1.28914
1.28742
1.28381
1.28051
1.27937
1.27861
1.27846
1.27863
1.27799
1.277
1.27566
1.27343
1.26982
1.26762
1.26677
1.2663
1.26609
1.26539
1.26446
1.26335
1.26184
1.2603
1.25926
1.2585
1.25802
1.25789
1.25746
1.25668
1.25568
1.25417
1.25142
1.24882
1.24782
1.24707
1.24636
1.2458
1.24575
1.24723
1.24935
1.24933
1.24856
1.2476
1.24597
1.24217
1.23528
1.22974
1.22807
1.22743
1.22714
1.22767
1.22778
1.22723
1.22667
1.22643
1.22757
1.22979
1.22992
1.22924
1.22844
1.22737
1.22517
1.22076
1.21805
1.21722
1.21669
1.21698
1.21753
1.21694
1.21609
1.21481
1.2127
1.21128
1.2105
1.20973
1.20889
1.2079
1.20653
1.20473
1.2034
1.20258
1.20201
1.20179
1.2018
1.20136
1.20065
1.19981
1.19857
1.19635
1.19413
1.19314
1.19243
1.19176
1.19121
1.19095
1.19189
1.19454
1.1954
1.19477
1.194
1.19291
1.19032
1.18398
1.17656
1.17389
1.17319
1.17277
1.17328
1.17449
1.17433
1.17366
1.17312
1.17259
1.31899
1.31796
1.31643
1.31328
1.30745
1.30223
1.3006
1.29997
1.29986
1.30124
1.30226
1.30177
1.30101
1.30028
1.29966
1.29935
1.29992
1.30055
1.3001
1.29933
1.29827
1.29617
1.29151
1.28788
1.2868
1.28605
1.28577
1.28606
1.28578
1.28497
1.28385
1.28192
1.27825
1.27549
1.27453
1.27381
1.2735
1.27379
1.27342
1.27258
1.27145
1.26995
1.26896
1.26832
1.26778
1.26706
1.2662
1.26517
1.26365
1.26131
1.2596
1.2588
1.2581
1.25749
1.25709
1.25736
1.25875
1.25927
1.25867
1.25784
1.25665
1.25428
1.24902
1.24215
1.23888
1.23805
1.23754
1.23791
1.23986
1.24066
1.24011
1.2395
1.23907
1.23924
1.24044
1.24063
1.23996
1.23918
1.23814
1.23601
1.2314
1.22809
1.22713
1.22648
1.22623
1.22701
1.22746
1.22684
1.22603
1.22482
1.22247
1.22021
1.21929
1.21868
1.21808
1.21726
1.21624
1.21486
1.21371
1.21301
1.21256
1.21219
1.21154
1.21073
1.20973
1.20823
1.20631
1.20503
1.20427
1.20362
1.20305
1.20261
1.2026
1.20383
1.20517
1.20482
1.20406
1.20319
1.20176
1.19823
1.19102
1.18497
1.18342
1.18285
1.18261
1.18372
1.18566
1.18575
1.18515
1.18456
1.1842
1.18441
1.32613
1.32435
1.32084
1.31536
1.31195
1.31104
1.31048
1.31091
1.31328
1.31411
1.31328
1.31227
1.31136
1.31059
1.31003
1.30977
1.30937
1.30866
1.30778
1.30657
1.30426
1.29989
1.29672
1.29569
1.29496
1.29455
1.29472
1.29467
1.29399
1.29308
1.29178
1.28927
1.28602
1.28462
1.28383
1.28325
1.28335
1.28369
1.28305
1.28214
1.28078
1.27913
1.27823
1.27761
1.27696
1.27614
1.27517
1.27382
1.27194
1.2706
1.26982
1.26913
1.26856
1.26829
1.26865
1.26894
1.26842
1.26767
1.2667
1.2652
1.262
1.25603
1.25084
1.24926
1.24867
1.2485
1.25004
1.25257
1.25273
1.25204
1.25144
1.25111
1.25142
1.25191
1.25146
1.25072
1.2499
1.24872
1.24596
1.24061
1.23749
1.23662
1.23602
1.23583
1.23685
1.23758
1.23701
1.23622
1.23517
1.23317
1.23023
1.22881
1.22807
1.22768
1.22761
1.22701
1.22619
1.22504
1.22357
1.2227
1.22205
1.22135
1.2205
1.21945
1.21809
1.21677
1.21585
1.21512
1.21447
1.21393
1.21357
1.21372
1.21441
1.21427
1.21354
1.2127
1.21164
1.20974
1.20525
1.19828
1.19443
1.19361
1.19314
1.19348
1.19572
1.19724
1.19685
1.19622
1.19568
1.19528
1.1955
1.19599
1.33205
1.32839
1.32427
1.32254
1.32181
1.32136
1.32206
1.32476
1.32563
1.32481
1.32373
1.32208
1.32063
1.31977
1.319
1.31821
1.31734
1.31635
1.31508
1.31281
1.30871
1.30577
1.30481
1.30413
1.30381
1.3042
1.30424
1.30354
1.30265
1.30141
1.29913
1.29623
1.29493
1.29417
1.29362
1.29375
1.29429
1.29377
1.29291
1.29177
1.28983
1.28819
1.28738
1.28685
1.28628
1.28547
1.28444
1.28295
1.28147
1.28058
1.27984
1.27928
1.27902
1.27885
1.2783
1.27753
1.27664
1.27552
1.27364
1.26967
1.26398
1.26103
1.26026
1.25986
1.26082
1.26384
1.26488
1.26415
1.26335
1.26271
1.26229
1.26224
1.26212
1.2615
1.26071
1.25977
1.25821
1.25444
1.2491
1.24685
1.24611
1.24556
1.24549
1.24681
1.24787
1.24734
1.24656
1.24559
1.24388
1.24064
1.23849
1.23766
1.2371
1.23717
1.23732
1.23667
1.23585
1.23464
1.23261
1.23123
1.23054
1.23007
1.22938
1.22846
1.22739
1.22638
1.22553
1.22479
1.22419
1.22381
1.2237
1.22342
1.22278
1.22198
1.22104
1.2198
1.21742
1.2124
1.20667
1.20462
1.20402
1.20379
1.20534
1.20848
1.20885
1.20807
1.20729
1.20663
1.20609
1.20578
1.20604
1.20518
1.33723
1.33465
1.33367
1.33297
1.33263
1.33361
1.33602
1.33629
1.33541
1.33428
1.33224
1.32958
1.32837
1.32757
1.32681
1.32596
1.32498
1.32374
1.32166
1.31818
1.31584
1.31497
1.3143
1.31394
1.31436
1.31461
1.31397
1.31312
1.31199
1.3099
1.30688
1.30544
1.30467
1.30413
1.30431
1.305
1.30451
1.30364
1.3025
1.30047
1.29836
1.29741
1.29679
1.29642
1.29576
1.29486
1.2936
1.29176
1.29046
1.28967
1.2891
1.28871
1.28813
1.28736
1.28651
1.28552
1.28421
1.28185
1.27743
1.27342
1.2721
1.2715
1.27142
1.27344
1.27672
1.27694
1.27609
1.27479
1.27335
1.27253
1.27189
1.27123
1.27045
1.26956
1.26844
1.26644
1.26219
1.25777
1.25629
1.25562
1.25516
1.25537
1.25711
1.25804
1.25743
1.25662
1.25559
1.25366
1.25015
1.24799
1.24719
1.24663
1.24672
1.2473
1.24683
1.24605
1.24504
1.24322
1.24103
1.24003
1.23938
1.23908
1.23886
1.23816
1.23726
1.23602
1.23467
1.23379
1.2331
1.23246
1.23179
1.23103
1.23017
1.22916
1.22775
1.22503
1.2201
1.21628
1.21526
1.21473
1.21483
1.21727
1.22044
1.22038
1.21955
1.21824
1.21693
1.21618
1.2156
1.21512
1.21477
1.21341
1.3461
1.34529
1.34463
1.34434
1.34529
1.34706
1.34686
1.34596
1.34485
1.34274
1.339
1.33697
1.33615
1.33557
1.33488
1.33397
1.33284
1.33104
1.32821
1.32636
1.32553
1.32486
1.32456
1.32504
1.32519
1.32449
1.3236
1.32237
1.32004
1.31708
1.31577
1.31502
1.31451
1.31481
1.31562
1.31515
1.31429
1.31316
1.31107
1.30851
1.30739
1.3067
1.3064
1.30608
1.30532
1.30434
1.30277
1.30035
1.29898
1.29823
1.2977
1.29713
1.29636
1.29548
1.29444
1.29295
1.2902
1.28643
1.28446
1.28369
1.2832
1.28354
1.28608
1.28817
1.2877
1.28675
1.28516
1.28281
1.28152
1.28071
1.27991
1.27904
1.27805
1.27672
1.27425
1.27004
1.26712
1.2662
1.26558
1.26523
1.2658
1.26778
1.26832
1.26764
1.26681
1.26573
1.26356
1.25954
1.25724
1.25645
1.25593
1.25619
1.25711
1.25672
1.25592
1.25487
1.25296
1.25062
1.24957
1.24891
1.2486
1.24861
1.2481
1.24728
1.24617
1.24433
1.24267
1.24179
1.24103
1.24027
1.23948
1.23859
1.2375
1.23585
1.23268
1.22875
1.22698
1.22632
1.2259
1.2265
1.2295
1.23154
1.23103
1.23014
1.22864
1.22639
1.22516
1.22443
1.22378
1.22312
1.22247
1.22077
1.35668
1.35604
1.35583
1.3568
1.35768
1.35703
1.35607
1.35475
1.35192
1.34781
1.34601
1.34522
1.34484
1.34455
1.34377
1.34276
1.34127
1.33894
1.33733
1.3365
1.33582
1.33555
1.33603
1.33605
1.33531
1.33441
1.33312
1.3305
1.32733
1.32605
1.3253
1.32487
1.32539
1.32607
1.32547
1.32456
1.32327
1.32075
1.31809
1.31703
1.31637
1.31614
1.31585
1.31507
1.31407
1.31246
1.30977
1.30803
1.30722
1.30671
1.30635
1.30568
1.30483
1.30379
1.30224
1.29956
1.29712
1.2961
1.29543
1.29507
1.29578
1.29809
1.29871
1.29792
1.29686
1.29485
1.29161
1.28992
1.28908
1.28827
1.28739
1.28633
1.28485
1.28218
1.2788
1.27718
1.27644
1.27587
1.27565
1.27657
1.27837
1.27841
1.27767
1.27681
1.27557
1.2728
1.2685
1.26657
1.26583
1.26536
1.2658
1.26706
1.26679
1.266
1.265
1.2631
1.26037
1.25911
1.25842
1.25811
1.25813
1.2576
1.25677
1.25564
1.25345
1.2511
1.25013
1.24944
1.24877
1.24802
1.24713
1.246
1.24419
1.2413
1.23911
1.23825
1.23766
1.23742
1.23847
1.2411
1.24168
1.24093
1.23995
1.23811
1.23521
1.23372
1.23297
1.23228
1.23158
1.23078
1.22989
1.22742
1.36709
1.36702
1.36794
1.36809
1.36726
1.36623
1.36453
1.36081
1.35701
1.35569
1.35498
1.35476
1.35485
1.35421
1.35327
1.3519
1.34971
1.34813
1.34728
1.34663
1.34644
1.34688
1.3466
1.34578
1.34478
1.34315
1.33994
1.33727
1.33627
1.33558
1.33531
1.33608
1.33651
1.33578
1.33483
1.33331
1.33022
1.32762
1.32666
1.32605
1.32594
1.32568
1.32489
1.32388
1.32218
1.31927
1.31739
1.31657
1.31604
1.31595
1.31555
1.31474
1.31375
1.31223
1.3098
1.30808
1.30728
1.30666
1.30639
1.30726
1.30868
1.30834
1.30743
1.30615
1.30339
1.29978
1.29836
1.29761
1.29689
1.29609
1.29511
1.2937
1.29128
1.28884
1.28781
1.28712
1.28659
1.28647
1.28751
1.28868
1.28829
1.28752
1.2866
1.28503
1.2814
1.2773
1.27591
1.27523
1.2749
1.27582
1.27715
1.27673
1.27591
1.2748
1.27249
1.26952
1.2683
1.26764
1.26742
1.26744
1.26686
1.26603
1.26493
1.26271
1.25982
1.25863
1.258
1.25766
1.25713
1.25632
1.25529
1.25366
1.25146
1.25022
1.24954
1.24902
1.24887
1.24995
1.25136
1.25098
1.25011
1.24891
1.24634
1.24318
1.24195
1.24127
1.24066
1.23997
1.23916
1.23813
1.23658
1.23275
1.37813
1.37874
1.37824
1.37732
1.37605
1.37343
1.3692
1.36683
1.36592
1.36536
1.36557
1.36589
1.3652
1.36423
1.36273
1.36034
1.35878
1.35795
1.35736
1.35735
1.35762
1.35704
1.35615
1.35497
1.35264
1.34909
1.34725
1.34643
1.34589
1.34607
1.34696
1.34668
1.3458
1.34463
1.34229
1.33881
1.33711
1.33633
1.3359
1.33589
1.33541
1.33453
1.33334
1.3312
1.32853
1.32724
1.3265
1.32609
1.32624
1.32602
1.32525
1.32429
1.3228
1.32033
1.31869
1.31789
1.31726
1.31707
1.31791
1.31841
1.31773
1.31676
1.31522
1.31188
1.3083
1.30706
1.30637
1.30593
1.30533
1.30447
1.30328
1.30132
1.29941
1.29851
1.29784
1.29733
1.29731
1.29834
1.29874
1.29809
1.29729
1.29622
1.29399
1.28954
1.28645
1.28552
1.28493
1.28492
1.28647
1.28749
1.28687
1.28602
1.28468
1.28162
1.27845
1.27739
1.27681
1.27676
1.27674
1.27604
1.27518
1.27396
1.27148
1.26876
1.26768
1.26707
1.26689
1.26684
1.26619
1.2653
1.26399
1.2621
1.26094
1.26024
1.25967
1.25947
1.26021
1.26068
1.26002
1.25913
1.25777
1.25482
1.25153
1.25039
1.24977
1.24931
1.24868
1.24785
1.2468
1.24503
1.24222
1.24009
1.38921
1.3884
1.38732
1.38544
1.38168
1.3784
1.37718
1.37646
1.37627
1.37707
1.37704
1.37618
1.37505
1.37297
1.37033
1.36906
1.3683
1.36789
1.36813
1.36801
1.3672
1.36618
1.36452
1.36128
1.35845
1.35734
1.35664
1.35636
1.3571
1.35761
1.35692
1.35594
1.35431
1.35093
1.34797
1.34688
1.34623
1.34608
1.34611
1.34545
1.3445
1.34306
1.34047
1.33829
1.33735
1.3367
1.33657
1.33707
1.33677
1.33595
1.33491
1.33304
1.33022
1.32871
1.32793
1.32736
1.32742
1.32812
1.32788
1.32706
1.32596
1.32384
1.31992
1.31734
1.31643
1.31584
1.31574
1.31537
1.31458
1.31356
1.31188
1.31
1.30904
1.30836
1.30791
1.30809
1.30882
1.3085
1.30771
1.3068
1.30532
1.30192
1.29769
1.29599
1.29529
1.29492
1.2956
1.29751
1.29769
1.29691
1.29593
1.29385
1.28981
1.28736
1.28654
1.28612
1.28634
1.2862
1.28543
1.28452
1.28305
1.28032
1.2782
1.27735
1.2768
1.27678
1.27714
1.27662
1.27577
1.27457
1.27254
1.271
1.27022
1.2696
1.26938
1.26976
1.26959
1.26884
1.26783
1.26604
1.26261
1.26012
1.25927
1.25874
1.25848
1.25794
1.25715
1.2561
1.25432
1.25189
1.25073
1.24977
1.39855
1.39708
1.39403
1.39033
1.38864
1.38782
1.38735
1.38783
1.38864
1.38807
1.3871
1.38554
1.38256
1.38022
1.37925
1.3786
1.37848
1.37875
1.37822
1.3773
1.37605
1.37357
1.3701
1.36836
1.36753
1.36701
1.36725
1.36811
1.36775
1.36685
1.36558
1.3629
1.35936
1.35772
1.35693
1.35653
1.35674
1.35647
1.35563
1.35451
1.35253
1.34987
1.34846
1.34768
1.34721
1.3475
1.34798
1.34741
1.34652
1.34523
1.34258
1.33968
1.33852
1.3378
1.33743
1.33786
1.33808
1.3374
1.33648
1.33507
1.33203
1.32832
1.32684
1.32612
1.32587
1.32625
1.32587
1.32506
1.32403
1.32227
1.32032
1.31932
1.31867
1.31836
1.31875
1.31891
1.31821
1.31734
1.3162
1.31379
1.30951
1.30675
1.30583
1.3053
1.30536
1.30699
1.30834
1.3078
1.30692
1.30548
1.30199
1.29803
1.29659
1.29595
1.29581
1.29627
1.29587
1.29502
1.29392
1.29185
1.28924
1.28798
1.28727
1.28686
1.28724
1.28771
1.2871
1.2862
1.28473
1.2822
1.28057
1.27979
1.27921
1.27909
1.27915
1.27862
1.27779
1.27657
1.27409
1.27071
1.26919
1.2685
1.26818
1.26819
1.26767
1.26687
1.2658
1.26391
1.26187
1.26092
1.26034
1.2598
1.40603
1.40245
1.40035
1.39939
1.39876
1.39877
1.39959
1.39941
1.3985
1.39721
1.39461
1.39158
1.3902
1.38941
1.38899
1.38922
1.38911
1.38831
1.38726
1.38546
1.38221
1.37972
1.37869
1.37801
1.3778
1.37851
1.37866
1.37787
1.37679
1.37477
1.37118
1.36879
1.36783
1.36723
1.36727
1.36765
1.36708
1.36615
1.36474
1.36213
1.35985
1.35886
1.35819
1.35797
1.35858
1.35854
1.35775
1.35671
1.35474
1.35129
1.34914
1.34828
1.34769
1.34771
1.34836
1.34807
1.34723
1.34616
1.3441
1.34031
1.33776
1.33686
1.33633
1.33657
1.3371
1.3365
1.33562
1.33432
1.33202
1.33017
1.32929
1.32871
1.32863
1.32905
1.32867
1.32784
1.32684
1.32508
1.32146
1.31799
1.31663
1.31597
1.31566
1.31649
1.31837
1.31845
1.31762
1.31645
1.31375
1.30936
1.30698
1.30613
1.30566
1.30599
1.30653
1.30592
1.30499
1.30352
1.30087
1.29889
1.29802
1.29741
1.2973
1.29807
1.29803
1.29725
1.29613
1.29388
1.29103
1.28981
1.2891
1.28873
1.28885
1.28859
1.28787
1.28693
1.28532
1.28219
1.27962
1.27871
1.27817
1.27822
1.27843
1.27783
1.27701
1.27583
1.27368
1.2718
1.27097
1.27037
1.27017
1.27057
1.41221
1.41114
1.41042
1.41015
1.41066
1.41068
1.40986
1.40872
1.40656
1.40328
1.40138
1.40047
1.39987
1.39986
1.4
1.39936
1.39839
1.39694
1.3942
1.39142
1.39013
1.38936
1.38891
1.38922
1.3895
1.38883
1.38783
1.38616
1.38299
1.38026
1.37909
1.37837
1.3781
1.37852
1.37831
1.37746
1.37628
1.37411
1.37151
1.3702
1.36943
1.36896
1.36916
1.36943
1.36879
1.36784
1.36631
1.36319
1.36022
1.35901
1.3583
1.35796
1.35844
1.35867
1.35796
1.35699
1.35541
1.35224
1.34922
1.34799
1.34731
1.3471
1.34781
1.34786
1.34706
1.346
1.34398
1.3413
1.33994
1.33918
1.33874
1.33891
1.33904
1.33839
1.33747
1.3361
1.33322
1.32956
1.32779
1.32698
1.32646
1.32663
1.32824
1.32902
1.32835
1.32731
1.32523
1.32105
1.31774
1.31658
1.31592
1.31581
1.31678
1.31686
1.31608
1.31495
1.31275
1.31007
1.30887
1.30816
1.30777
1.30824
1.30871
1.30812
1.30721
1.30562
1.30241
1.29994
1.29905
1.29848
1.29848
1.2987
1.29814
1.29732
1.29619
1.29393
1.2908
1.28931
1.28864
1.28834
1.28882
1.28881
1.28808
1.28715
1.28556
1.28306
1.28157
1.28083
1.28033
1.28035
1.28124
1.28041
1.42216
1.42174
1.42187
1.42173
1.42094
1.41985
1.41798
1.41497
1.41278
1.41174
1.41104
1.41081
1.41095
1.41045
1.40953
1.40825
1.40595
1.40319
1.40171
1.40086
1.40031
1.40035
1.40053
1.39992
1.39896
1.39746
1.39464
1.39186
1.39055
1.38977
1.38935
1.38963
1.3896
1.38883
1.38775
1.38584
1.38314
1.38154
1.38068
1.3801
1.38004
1.38027
1.37976
1.37886
1.37751
1.37478
1.3716
1.37009
1.36929
1.36878
1.36894
1.36937
1.36885
1.36795
1.3666
1.36387
1.36077
1.35932
1.35855
1.35813
1.35853
1.35896
1.35831
1.35734
1.35563
1.35268
1.35073
1.34983
1.34922
1.34908
1.34929
1.34884
1.34799
1.34679
1.34445
1.34107
1.3391
1.33821
1.33758
1.33743
1.33848
1.33943
1.33896
1.33803
1.33634
1.33268
1.32889
1.32738
1.32662
1.32625
1.32701
1.32774
1.32716
1.32623
1.32456
1.32157
1.31964
1.31882
1.31829
1.31839
1.31909
1.31878
1.31796
1.31679
1.31424
1.31077
1.30926
1.30856
1.30825
1.30868
1.30862
1.30787
1.30694
1.30537
1.30246
1.30023
1.29935
1.29882
1.29888
1.29956
1.29921
1.2984
1.29727
1.29501
1.29243
1.29133
1.29067
1.29032
1.29073
1.29107
1.29052
1.28892
1.4333
1.43293
1.43212
1.43106
1.4295
1.42696
1.42454
1.42331
1.42254
1.42212
1.42211
1.42168
1.42079
1.41959
1.4176
1.41505
1.41345
1.41254
1.41191
1.41173
1.41168
1.41105
1.4101
1.40869
1.4062
1.40354
1.40216
1.40134
1.40085
1.40092
1.40082
1.40007
1.39902
1.39724
1.39465
1.39293
1.392
1.39136
1.39115
1.39118
1.39064
1.38975
1.38846
1.38604
1.38301
1.38136
1.3805
1.37993
1.37991
1.3802
1.3797
1.37881
1.37752
1.37507
1.3722
1.37068
1.36985
1.36933
1.36945
1.36988
1.36936
1.36844
1.36694
1.36409
1.36169
1.36063
1.35994
1.35963
1.35981
1.35949
1.35869
1.35759
1.35557
1.35248
1.35047
1.34953
1.34888
1.34861
1.34929
1.35
1.34954
1.34865
1.34714
1.34387
1.3401
1.33838
1.33759
1.33714
1.33761
1.33867
1.33834
1.33749
1.33614
1.33329
1.33063
1.32956
1.32892
1.3287
1.32928
1.32935
1.32861
1.32762
1.32574
1.32226
1.31986
1.31896
1.31843
1.31854
1.31915
1.3187
1.31786
1.31669
1.31437
1.31154
1.31026
1.30958
1.30925
1.30974
1.30994
1.30924
1.30828
1.30654
1.30363
1.30184
1.30105
1.30052
1.30054
1.30106
1.30075
1.29995
1.29896
1.29587
1.44318
1.44212
1.44077
1.4389
1.43668
1.4352
1.43431
1.43369
1.4334
1.43292
1.43204
1.43087
1.42907
1.42683
1.42532
1.42436
1.42367
1.42325
1.42285
1.42212
1.42117
1.41988
1.41783
1.41533
1.41382
1.41296
1.4124
1.41231
1.41206
1.41126
1.4102
1.40849
1.40609
1.40436
1.40337
1.40267
1.40232
1.40216
1.40156
1.40066
1.39941
1.39725
1.39448
1.3928
1.3919
1.39129
1.39115
1.39127
1.39075
1.38986
1.38859
1.38629
1.38361
1.38212
1.38126
1.38066
1.38057
1.3808
1.38033
1.37945
1.37808
1.37548
1.37286
1.37163
1.37089
1.3705
1.37058
1.37028
1.36949
1.36841
1.36651
1.36376
1.3619
1.36094
1.36028
1.35998
1.36042
1.36074
1.36017
1.35926
1.35771
1.3546
1.35131
1.34967
1.34885
1.34836
1.34863
1.34956
1.34932
1.34848
1.3472
1.34452
1.3417
1.34041
1.33968
1.33927
1.33954
1.33981
1.33919
1.33828
1.33683
1.33389
1.3309
1.32967
1.32899
1.32872
1.32932
1.32945
1.32872
1.32774
1.32599
1.3231
1.32128
1.32047
1.31993
1.31999
1.32048
1.32004
1.31919
1.31794
1.31539
1.31259
1.31144
1.31079
1.3105
1.31094
1.31104
1.31036
1.30945
1.30793
1.30489
1.30158
1.452
1.45073
1.44924
1.44753
1.4463
1.44544
1.44478
1.44423
1.44343
1.44238
1.44094
1.43882
1.43713
1.43619
1.43551
1.43488
1.43411
1.43324
1.43225
1.43107
1.42953
1.42745
1.42566
1.42466
1.42398
1.42364
1.42329
1.4225
1.42143
1.41981
1.4176
1.41593
1.41491
1.41417
1.41366
1.41321
1.4125
1.41158
1.41038
1.40851
1.40602
1.40435
1.40343
1.40281
1.40258
1.40238
1.40171
1.40078
1.39949
1.39744
1.39508
1.39361
1.39272
1.39209
1.39185
1.39176
1.39116
1.39026
1.38898
1.38673
1.38419
1.38283
1.38205
1.38161
1.38161
1.38126
1.38045
1.37935
1.3775
1.37499
1.37332
1.37238
1.37172
1.37143
1.37165
1.37156
1.37087
1.36989
1.36815
1.36512
1.36248
1.36112
1.36031
1.35981
1.36004
1.36061
)
;

boundaryField
{
    inlet
    {
        type            fixedValue;
        value           nonuniform 0();
    }
    outlet
    {
        type            zeroGradient;
    }
    bottom
    {
        type            symmetryPlane;
    }
    top
    {
        type            symmetryPlane;
    }
    obstacle
    {
        type            zeroGradient;
    }
    front
    {
        type            empty;
    }
    back
    {
        type            empty;
    }
    procBoundary47to39
    {
        type            processor;
        value           nonuniform List<scalar> 
133
(
1.22713
1.22612
1.22473
1.22212
1.21878
1.2172
1.21635
1.21554
1.21478
1.21419
1.21434
1.21612
1.21723
1.21672
1.21605
1.21532
1.21446
1.21329
1.211
1.20619
1.20231
1.2009
1.19993
1.199
1.19805
1.19723
1.19641
1.1955
1.19456
1.19373
1.19304
1.19268
1.19288
1.1927
1.1919
1.19091
1.18938
1.18672
1.18475
1.18393
1.18334
1.18311
1.18324
1.18288
1.18227
1.18152
1.18039
1.17794
1.1747
1.17337
1.17248
1.17161
1.17118
1.1719
1.17185
1.17085
1.16975
1.16847
1.16711
1.16565
1.16357
1.16111
1.15991
1.1592
1.15846
1.15766
1.15697
1.15666
1.15726
1.15901
1.15962
1.15908
1.15844
1.1578
1.15709
1.15614
1.15458
1.15089
1.14626
1.14431
1.14315
1.1419
1.14086
1.27926
1.28129
1.28159
1.28108
1.28052
1.27987
1.27908
1.27801
1.27554
1.26987
1.26526
1.26384
1.26296
1.2623
1.26217
1.26375
1.26504
1.26446
1.2638
1.26318
1.26263
1.26234
1.26271
1.26306
1.26253
1.26175
1.26086
1.25957
1.25692
1.25393
1.2526
1.25174
1.25133
1.25218
1.25364
1.2532
1.25235
1.25125
1.24905
1.24435
1.24066
1.23956
1.23873
1.23805
1.2378
1.23884
1.2405
1.24037
1.23964
1.23964
)
;
    }
    procBoundary47to46
    {
        type            processor;
        value           nonuniform List<scalar> 
17
(
1.29235
1.30805
1.31973
1.32732
1.33409
1.34067
1.34767
1.35748
1.3677
1.37786
1.3893
1.39952
1.40844
1.41455
1.42294
1.43345
1.44407
)
;
    }
    procBoundary47to54
    {
        type            processor;
        value           uniform 1.45327;
    }
    procBoundary47to55
    {
        type            processor;
        value           nonuniform List<scalar> 
133
(
1.3602
1.35934
1.35804
1.35554
1.35277
1.35135
1.35055
1.35002
1.34999
1.35025
1.34979
1.34895
1.34779
1.3456
1.3425
1.34078
1.33999
1.3395
1.33966
1.3401
1.33957
1.33869
1.33736
1.33481
1.33232
1.33126
1.33061
1.33034
1.33076
1.33066
1.3299
1.3289
1.32712
1.32408
1.32213
1.32133
1.32081
1.32086
1.32122
1.32074
1.3199
1.31872
1.31641
1.31323
1.31174
1.3107
1.46089
1.45998
1.45891
1.45761
1.45638
1.45545
1.45464
1.45376
1.45269
1.45126
1.44929
1.44785
1.44701
1.44645
1.44567
1.4446
1.44334
1.44213
1.44098
1.43967
1.43801
1.43652
1.43559
1.43489
1.43438
1.43366
1.43266
1.43128
1.4293
1.42762
1.42657
1.42573
1.42497
1.42423
1.42345
1.42255
1.42147
1.42006
1.41801
1.41605
1.41498
1.41427
1.41391
1.41358
1.41284
1.41186
1.41055
1.40875
1.40677
1.4053
1.40435
1.40364
1.40316
1.40279
1.40213
1.40122
1.40002
1.39807
1.39569
1.39424
1.3934
1.39288
1.39275
1.39237
1.39155
1.39044
1.38864
1.38631
1.38477
1.38385
1.38319
1.3829
1.38289
1.38245
1.38165
1.38058
1.37869
1.37584
1.37375
1.37264
1.37191
1.37156
1.37167
1.37142
1.37071
1.3602
1.36974
)
;
    }
}


// ************************************************************************* //
