0.360826 	0.370078 	3.09854e-16 	0.00166612 	-0.00076608 	1.11594e-19
0.384771 	0.394637 	3.07078e-16 	0.0142812 	-0.00537483 	-1.97803e-19
0.409449 	0.419948 	3.05083e-16 	0.035644 	-0.00986244 	-2.30729e-20
0.434882 	0.446033 	3.02481e-16 	0.0633365 	-0.0148058 	-2.60205e-19
0.461093 	0.472916 	2.96757e-16 	0.0964669 	-0.0193311 	6.18227e-20
0.488105 	0.500621 	2.94328e-16 	0.133925 	-0.0233361 	1.73849e-19
0.515945 	0.529174 	2.92246e-16 	0.174953 	-0.0265932 	-2.26735e-19
0.544636 	0.558601 	2.88864e-16 	0.218861 	-0.0290233 	6.10624e-20
0.574204 	0.588928 	2.82879e-16 	0.265066 	-0.0305763 	-3.98837e-20
0.604678 	0.620183 	2.76807e-16 	0.313042 	-0.031249 	5.8662e-19
0.636084 	0.652394 	2.79062e-16 	0.362307 	-0.0310658 	9.96926e-20
0.668451 	0.68559 	2.81318e-16 	0.412404 	-0.0300743 	-1.69547e-19
0.701808 	0.719803 	2.83052e-16 	0.462898 	-0.0283396 	-6.6572e-20
0.736185 	0.755062 	2.83399e-16 	0.513369 	-0.0259396 	1.93153e-19
0.771614 	0.791399 	2.81231e-16 	0.56341 	-0.0229623 	-1.23249e-19
0.808128 	0.828849 	2.79843e-16 	0.61263 	-0.0195025 	-1.19698e-19
0.845758 	0.867444 	2.83052e-16 	0.660652 	-0.0156596 	-1.57533e-19
0.88454 	0.907221 	2.80624e-16 	0.707123 	-0.0115349 	1.35195e-19
0.924508 	0.948214 	2.73685e-16 	0.751716 	-0.00722935 	3.37227e-20
0.9657 	0.990461 	2.72644e-16 	0.794136 	-0.00284139 	-1.69719e-19
1.00815 	1.034 	2.73511e-16 	0.834126 	0.00153526 	4.97934e-20
1.0519 	1.07887 	2.79062e-16 	0.87147 	0.00581356 	5.54643e-19
1.09699 	1.12512 	2.84787e-16 	0.905998 	0.00991497 	-9.3966e-20
1.14346 	1.17278 	2.88864e-16 	0.93759 	0.0137708 	-1.00359e-19
1.19135 	1.2219 	2.91292e-16 	0.966175 	0.0173237 	6.43663e-20
1.2407 	1.27252 	2.95109e-16 	0.991733 	0.0205278 	-4.61173e-19
1.29157 	1.32469 	2.99706e-16 	1.01429 	0.0233499 	5.97614e-20
1.34399 	1.37845 	2.98144e-16 	1.03393 	0.0257688 	-2.01749e-19
1.39802 	1.43386 	2.9667e-16 	1.05075 	0.027775 	-1.2886e-20
1.4537 	1.49097 	2.97971e-16 	1.06492 	0.02937 	1.28747e-19
1.51108 	1.54982 	3.01267e-16 	1.0766 	0.0305651 	-5.3827e-20
1.57021 	1.61048 	3.05951e-16 	1.08599 	0.0313798 	-2.79559e-21
1.63116 	1.67299 	3.06298e-16 	1.09332 	0.0318406 	-4.10332e-19
1.69397 	1.73741 	3.05257e-16 	1.09881 	0.0319788 	1.53512e-19
1.75871 	1.8038 	3.06298e-16 	1.10266 	0.0318296 	2.77032e-20
1.82542 	1.87223 	3.08726e-16 	1.10511 	0.0314297 	7.23853e-21
1.89418 	1.94274 	3.12543e-16 	1.10637 	0.0308167 	6.29648e-20
1.96503 	2.01542 	3.14277e-16 	1.10662 	0.0300271 	-1.31153e-19
2.03806 	2.09032 	3.16186e-16 	1.10604 	0.029096 	2.05102e-20
2.11332 	2.16751 	3.14017e-16 	1.10481 	0.0280557 	4.91867e-20
2.19089 	2.24706 	3.12716e-16 	1.10306 	0.0269356 	3.09265e-20
2.27082 	2.32905 	3.14798e-16 	1.10091 	0.0257615 	2.44095e-22
2.35321 	2.41354 	3.13063e-16 	1.09847 	0.0245558 	1.88523e-20
2.43811 	2.50062 	3.14451e-16 	1.09583 	0.0233373 	3.73594e-20
2.52561 	2.59037 	3.14624e-16 	1.09307 	0.0221214 	-3.01325e-20
2.61579 	2.68286 	3.11328e-16 	1.09022 	0.0209205 	-9.91251e-20
2.70872 	2.77818 	3.09594e-16 	1.08736 	0.0197441 	-2.42264e-19
2.8045 	2.87641 	3.08206e-16 	1.0845 	0.0185993 	9.21619e-20
2.90321 	2.97766 	3.08726e-16 	1.08167 	0.0174909 	-1.60788e-19
3.00495 	3.082 	3.09073e-16 	1.07891 	0.0164224 	-1.52803e-19
3.10979 	3.18953 	3.07859e-16 	1.07621 	0.0153955 	4.66063e-20
3.21784 	3.30035 	3.07512e-16 	1.07358 	0.0144109 	-4.39152e-20
3.3292 	3.41456 	3.0543e-16 	1.07105 	0.0134685 	-4.39561e-20
3.44396 	3.53227 	3.08032e-16 	1.06859 	0.0125676 	-4.6951e-20
3.56224 	3.65358 	3.10981e-16 	1.06623 	0.0117069 	-4.8971e-20
3.68413 	3.77859 	3.05777e-16 	1.06395 	0.0108848 	-1.11066e-19
3.80975 	3.90744 	2.96583e-16 	1.06175 	0.0100996 	-7.68498e-20
3.93922 	4.04023 	2.93461e-16 	1.05964 	0.00934942 	7.90168e-20
4.07265 	4.17707 	2.9294e-16 	1.05761 	0.00863235 	2.36561e-20
4.21016 	4.31811 	2.89471e-16 	1.05566 	0.00794642 	-4.3025e-20
4.35188 	4.46346 	2.90512e-16 	1.05379 	0.00728982 	-8.99974e-20
4.49793 	4.61326 	2.92246e-16 	1.05199 	0.00666055 	1.19415e-20
4.64845 	4.76764 	2.94328e-16 	1.05026 	0.0060574 	4.05377e-20
4.80358 	4.92675 	2.99185e-16 	1.04859 	0.00547737 	5.43563e-20
4.96345 	5.09072 	3.03696e-16 	1.047 	0.00492327 	-2.20432e-20
5.12822 	5.25971 	3.0543e-16 	1.04545 	0.00438294 	-1.54428e-20
5.29802 	5.43387 	3.08466e-16 	1.04398 	0.0038868 	1.64354e-20
5.47302 	5.61336 	3.0916e-16 	1.04253 	0.00335606 	-4.48903e-20
5.65338 	5.79834 	3.0543e-16 	1.04115 	0.00301591 	-2.01805e-20
