/*--------------------------------*- C++ -*----------------------------------*\
  =========                 |
  \\      /  F ield         | OpenFOAM: The Open Source CFD Toolbox
   \\    /   O peration     | Website:  https://openfoam.org
    \\  /    A nd           | Version:  7
     \\/     M anipulation  |
\*---------------------------------------------------------------------------*/
FoamFile
{
    version     2.0;
    format      ascii;
    class       volScalarField;
    location    "3";
    object      rho;
}
// * * * * * * * * * * * * * * * * * * * * * * * * * * * * * * * * * * * * * //

dimensions      [1 -3 0 0 0 0 0];

internalField   nonuniform List<scalar> 
2413
(
2.25975
2.22687
2.18847
2.14822
2.10808
2.06958
2.03378
1.99754
1.96221
1.92853
1.89346
1.86349
1.83619
1.80708
1.7815
1.75612
1.72824
1.70272
1.67929
1.65528
1.63228
1.61099
1.58876
1.56535
1.54195
1.51806
1.49624
1.47559
1.45388
1.43441
1.41613
1.39635
1.37574
1.35761
1.34046
1.32367
1.30574
1.29028
1.2763
1.25956
1.24303
1.22988
1.21405
1.19794
1.18681
1.17437
1.15837
1.14648
1.13606
1.12188
1.10767
1.09842
1.08729
1.07351
1.06404
1.05563
1.0438
1.03186
1.02438
1.01534
1.00322
0.995976
0.989322
0.979206
0.972005
2.35439
2.35284
2.3555
2.36063
2.3617
2.35431
2.34182
2.33004
2.321
2.31503
2.31083
2.30444
2.29892
2.29792
2.30306
2.31413
2.32731
2.33622
2.33875
2.3332
2.32256
2.30963
2.2943
2.27823
2.25897
2.23534
2.20679
2.17438
2.13937
2.10438
2.06909
2.03278
1.99728
1.96159
1.92769
1.89685
1.86712
1.8395
1.81176
1.78457
1.75903
1.73165
1.70665
1.68468
1.66051
1.63728
1.61572
1.59168
1.56678
1.54498
1.52281
1.50028
1.48228
1.46335
1.44134
1.42372
1.40657
1.38564
1.36862
1.35378
1.33553
1.32059
1.30647
1.28797
1.27342
1.26073
1.2442
1.22937
1.21868
1.20439
1.18984
1.17946
1.16695
1.15167
1.14135
1.13177
1.11869
1.10699
1.0993
1.08888
1.07611
1.06792
1.05974
1.04781
1.03875
1.03242
1.02279
1.01393
2.32379
2.32181
2.32612
2.33537
2.34238
2.33892
2.32895
2.31718
2.30832
2.30213
2.29824
2.29082
2.27933
2.26837
2.26084
2.25906
2.26527
2.27678
2.28845
2.29688
2.2995
2.29678
2.28926
2.27907
2.26581
2.24902
2.22873
2.20712
2.18353
2.15808
2.12979
2.09896
2.06617
2.0319
1.99703
1.9645
1.9327
1.90271
1.8754
1.84614
1.8182
1.79251
1.76439
1.73875
1.71678
1.69181
1.6673
1.64563
1.62073
1.59574
1.57479
1.55173
1.53067
1.51291
1.49139
1.47179
1.45511
1.43399
1.41498
1.40072
1.38284
1.36437
1.35157
1.33549
1.31798
1.305
1.28936
1.27267
1.2613
1.24843
1.23217
1.22077
1.20974
1.19492
1.18242
1.17324
1.16078
1.148
1.1398
1.13027
1.11721
1.10772
1.10012
1.08927
1.07838
1.07206
1.06347
1.0529
2.28796
2.28546
2.29138
2.30408
2.31622
2.31644
2.30967
2.30005
2.29289
2.28862
2.28688
2.28065
2.26874
2.25495
2.24224
2.23195
2.22679
2.22816
2.23253
2.23895
2.24644
2.25435
2.25887
2.26086
2.25697
2.24923
2.23443
2.21691
2.19729
2.17763
2.15866
2.13915
2.11581
2.08921
2.05975
2.02912
1.99873
1.96884
1.94038
1.9121
1.88264
1.85496
1.82699
1.79841
1.77411
1.7496
1.72383
1.70121
1.67701
1.65031
1.62889
1.60694
1.58235
1.5639
1.54492
1.52236
1.50435
1.48552
1.46443
1.44819
1.43074
1.41176
1.39792
1.38269
1.36348
1.34954
1.33568
1.31794
1.304
1.29165
1.27552
1.2627
1.25191
1.23724
1.2234
1.21405
1.20244
1.18835
1.17911
1.17009
1.15716
1.14671
1.13926
1.12904
1.11694
1.11001
1.10236
1.09111
2.25425
2.24687
2.25189
2.26561
2.28233
2.28678
2.28326
2.27639
2.27133
2.26966
2.27137
2.26846
2.25843
2.24538
2.23226
2.22034
2.21053
2.20486
2.20041
2.19567
2.19408
2.19744
2.20477
2.21492
2.22316
2.22784
2.22376
2.21396
2.19978
2.18404
2.16801
2.15128
2.13464
2.11651
2.09601
2.07303
2.0493
2.0247
1.99991
1.97472
1.94697
1.91895
1.89059
1.86029
1.83382
1.80851
1.78149
1.75751
1.73389
1.70748
1.68368
1.6618
1.63743
1.61649
1.598
1.57521
1.55493
1.5377
1.51579
1.49632
1.48108
1.46176
1.44455
1.4299
1.41153
1.39587
1.38139
1.36312
1.34825
1.33585
1.32012
1.30497
1.294
1.27997
1.26487
1.25478
1.2435
1.22871
1.2185
1.2099
1.19756
1.18532
1.17773
1.16815
1.15556
1.14751
1.14024
1.1291
2.20015
2.21121
2.21399
2.22467
2.24191
2.24963
2.24968
2.24625
2.24361
2.24454
2.24928
2.24981
2.24205
2.23111
2.22021
2.21036
2.2024
2.1967
2.18843
2.17693
2.16638
2.1587
2.15591
2.15996
2.1698
2.1805
2.18889
2.19025
2.18681
2.17761
2.1668
2.15318
2.14094
2.12583
2.10823
2.09009
2.07217
2.05462
2.03742
2.01952
1.99899
1.97533
1.94923
1.92108
1.89175
1.86594
1.83944
1.812
1.78878
1.76403
1.73676
1.71471
1.69277
1.6683
1.64876
1.62897
1.60641
1.58794
1.56775
1.54643
1.53029
1.51157
1.49244
1.47768
1.46002
1.44215
1.42726
1.40957
1.39384
1.38069
1.36418
1.34841
1.33712
1.32385
1.30709
1.29555
1.28529
1.27102
1.25854
1.25003
1.23855
1.2248
1.2165
1.20768
1.19493
1.18578
1.17879
1.16798
1.95264
2.14082
2.17607
2.19447
2.20591
2.2097
2.2097
2.20748
2.2069
2.21039
2.21897
2.22441
2.22061
2.21274
2.20395
2.19639
2.18998
2.18524
2.17884
2.16743
2.15498
2.14321
2.13353
2.12778
2.1274
2.13088
2.13705
2.14287
2.14919
2.15078
2.15001
2.14548
2.13809
2.12648
2.11177
2.09651
2.08051
2.06494
2.05065
2.03802
2.02524
2.00993
1.99113
1.96905
1.94365
1.91812
1.89232
1.86471
1.83992
1.8152
1.788
1.76477
1.74257
1.71793
1.69768
1.67872
1.65566
1.63581
1.61776
1.59611
1.57714
1.55979
1.54118
1.52435
1.50668
1.48853
1.47333
1.4566
1.43829
1.42477
1.41028
1.39313
1.37976
1.36736
1.35118
1.33737
1.32736
1.31425
1.29946
1.2903
1.28025
1.26613
1.25582
1.24759
1.2353
1.2246
1.21763
1.20791
1.55614
1.86562
2.07894
2.15416
2.17284
2.17173
2.16937
2.16843
2.17063
2.17776
2.18697
2.19014
2.18745
2.18291
2.17858
2.17552
2.17409
2.17367
2.16808
2.15745
2.14547
2.13325
2.12174
2.11262
2.10714
2.10301
2.09957
2.09873
2.10182
2.10724
2.11231
2.11709
2.11741
2.11422
2.10677
2.09554
2.08219
2.06883
2.05626
2.04524
2.03421
2.02182
2.00887
1.99427
1.97757
1.95799
1.93631
1.91223
1.88585
1.86135
1.83584
1.80923
1.78701
1.76502
1.74197
1.72224
1.70244
1.68142
1.66187
1.64228
1.62247
1.60475
1.58737
1.56845
1.55178
1.53518
1.51741
1.50077
1.48388
1.46876
1.45484
1.43782
1.4223
1.41073
1.39648
1.37976
1.36879
1.35752
1.34241
1.33107
1.32164
1.30796
1.29576
1.2878
1.27637
1.2643
1.25709
1.24774
1.41331
1.51414
1.76437
2.03094
2.13814
2.14368
2.13466
2.12962
2.13004
2.13851
2.14916
2.1529
2.15263
2.15118
2.14954
2.1489
2.14947
2.15021
2.1471
2.14017
2.1318
2.12272
2.11411
2.10592
2.09819
2.08894
2.07934
2.07142
2.06667
2.0665
2.07026
2.07728
2.08332
2.08749
2.08572
2.0807
2.07295
2.06428
2.05535
2.04635
2.03776
2.0276
2.01604
2.00352
1.99078
1.97816
1.96426
1.94677
1.92539
1.90206
1.87694
1.85188
1.82806
1.80556
1.78321
1.76216
1.74359
1.72224
1.70112
1.68451
1.66464
1.64422
1.62958
1.61163
1.5934
1.57777
1.5596
1.54416
1.52848
1.51001
1.49658
1.48302
1.46568
1.45193
1.43963
1.4234
1.41024
1.39977
1.38524
1.37164
1.36249
1.35012
1.3362
1.32767
1.31738
1.30423
1.29631
1.28779
1.40032
1.40817
1.47166
1.6876
1.96157
2.08663
2.11288
2.11328
2.11264
2.11541
2.11714
2.11546
2.11372
2.1127
2.11296
2.11571
2.12074
2.12331
2.12093
2.11586
2.11021
2.10401
2.09828
2.09299
2.08773
2.07908
2.06853
2.05831
2.0493
2.04268
2.03948
2.04034
2.04408
2.04882
2.05215
2.05349
2.05247
2.04906
2.04492
2.0397
2.03398
2.02533
2.01629
2.00718
1.9971
1.98638
1.97585
1.96487
1.95108
1.93334
1.91202
1.88981
1.86617
1.84299
1.82295
1.79966
1.77933
1.76118
1.73835
1.71981
1.70277
1.68243
1.66697
1.64962
1.63166
1.61759
1.59936
1.58223
1.56918
1.55196
1.53594
1.52389
1.50778
1.49198
1.48068
1.466
1.45021
1.43989
1.42708
1.41212
1.40219
1.39075
1.37635
1.36694
1.35732
1.34399
1.3351
1.32679
1.40001
1.40016
1.40412
1.4455
1.60492
1.86647
2.04374
2.08722
2.09405
2.09444
2.09051
2.08695
2.08559
2.08613
2.08636
2.08772
2.08884
2.08796
2.08572
2.08326
2.08148
2.08013
2.07884
2.07638
2.07145
2.06371
2.05441
2.04451
2.03521
2.02768
2.0225
2.01893
2.0165
2.0154
2.0161
2.01759
2.01978
2.02162
2.02326
2.02257
2.02055
2.01676
2.01095
2.00406
1.99584
1.98832
1.98073
1.97224
1.96139
1.94974
1.93561
1.91857
1.89983
1.87899
1.85881
1.83725
1.8151
1.79627
1.77421
1.75467
1.73768
1.71706
1.70157
1.68565
1.66652
1.65233
1.63604
1.61829
1.60551
1.59011
1.57314
1.56121
1.54701
1.53019
1.51831
1.50508
1.4891
1.47803
1.46602
1.45088
1.44034
1.42941
1.4151
1.405
1.39551
1.38249
1.37277
1.36442
1.40001
1.40001
1.40007
1.40201
1.42476
1.5356
1.77605
1.96934
2.072
2.08576
2.07874
2.0705
2.06409
2.06053
2.0597
2.06046
2.06097
2.06029
2.05829
2.05581
2.05368
2.05225
2.05097
2.0492
2.04622
2.04207
2.03651
2.02978
2.02264
2.01557
2.00884
2.0022
1.99579
1.99044
1.98688
1.98565
1.98662
1.98902
1.99209
1.99454
1.99584
1.99538
1.99328
1.99178
1.98861
1.9851
1.98014
1.97417
1.96628
1.95628
1.94494
1.93295
1.92077
1.90638
1.89014
1.8718
1.85058
1.83126
1.81034
1.78923
1.77239
1.75218
1.73452
1.71919
1.69997
1.68491
1.66999
1.65178
1.63855
1.62485
1.60793
1.59536
1.58196
1.56539
1.55341
1.54075
1.52489
1.51371
1.50208
1.48704
1.47634
1.46557
1.45145
1.44141
1.43155
1.41854
1.40922
1.40035
1.40001
1.40001
1.40001
1.40003
1.40084
1.41223
1.48449
1.66253
1.89932
2.02556
2.06164
2.0656
2.06172
2.05513
2.04969
2.04543
2.0417
2.03759
2.03357
2.03008
2.02757
2.02631
2.0257
2.02428
2.02135
2.01761
2.01336
2.00878
2.00396
1.99892
1.99356
1.9874
1.98013
1.97282
1.96627
1.96124
1.95817
1.95726
1.95817
1.96002
1.96193
1.96387
1.96542
1.96712
1.96841
1.9699
1.97046
1.9679
1.96332
1.95679
1.94962
1.9398
1.92959
1.91906
1.90787
1.89512
1.87917
1.86256
1.84476
1.82469
1.80717
1.7879
1.76878
1.753
1.73378
1.71704
1.70267
1.68462
1.6705
1.65737
1.64026
1.62714
1.61446
1.59794
1.58566
1.57367
1.55804
1.54675
1.53537
1.52057
1.51003
1.49915
1.48518
1.47549
1.4653
1.45238
1.44354
1.43414
1.40001
1.40001
1.40001
1.40001
1.40001
1.4003
1.40545
1.44244
1.57585
1.79334
1.95797
2.03964
2.05001
2.05092
2.04421
2.03662
2.03043
2.02518
2.02069
2.01673
2.01301
2.00929
2.00538
2.00128
1.99718
1.99344
1.99021
1.98743
1.98459
1.98091
1.97596
1.9699
1.9629
1.95562
1.94861
1.94247
1.93748
1.93348
1.93037
1.92813
1.92699
1.92714
1.92852
1.93143
1.93592
1.94081
1.94541
1.9486
1.95036
1.94837
1.94433
1.93841
1.9327
1.92549
1.91543
1.90461
1.89281
1.88117
1.86888
1.85355
1.83825
1.82174
1.80336
1.78719
1.76901
1.75093
1.73626
1.71859
1.7026
1.68959
1.67264
1.65818
1.64581
1.6294
1.61656
1.60495
1.58946
1.578
1.56676
1.55211
1.54175
1.53068
1.51693
1.5075
1.49686
1.4843
1.47582
1.46575
1.40001
1.40001
1.40001
1.40001
1.40001
1.40001
1.40009
1.40193
1.41994
1.50119
1.67105
1.8853
1.98541
2.03221
2.0399
2.03715
2.02882
2.02218
2.01548
2.00905
2.0033
1.99784
1.9928
1.98805
1.98337
1.97864
1.97397
1.9696
1.96534
1.9611
1.9566
1.95177
1.94641
1.94061
1.93437
1.92789
1.92141
1.91499
1.90896
1.90359
1.89924
1.8964
1.89499
1.89539
1.89725
1.90094
1.90586
1.91177
1.91762
1.92253
1.92664
1.92763
1.92579
1.92172
1.9156
1.90882
1.89921
1.88868
1.87818
1.86672
1.85612
1.84488
1.83077
1.81698
1.80168
1.78484
1.77019
1.75361
1.73667
1.72296
1.70627
1.69049
1.67799
1.66169
1.64796
1.6363
1.6207
1.60895
1.59762
1.58296
1.57269
1.56121
1.54759
1.53842
1.52702
1.51503
1.50677
1.49576
1.40001
1.40001
1.40001
1.40001
1.40001
1.40001
1.40001
1.40003
1.4006
1.40773
1.44789
1.57675
1.75575
1.92993
1.99961
2.02171
2.02141
2.01905
2.01462
2.00821
2.00192
1.99548
1.98882
1.98205
1.97547
1.96925
1.96351
1.95849
1.95364
1.94833
1.94279
1.93727
1.9317
1.92622
1.9207
1.91498
1.90897
1.90241
1.89555
1.88861
1.88208
1.8762
1.87124
1.86738
1.86482
1.86372
1.86481
1.86766
1.87275
1.87937
1.88692
1.89416
1.89999
1.90352
1.90343
1.90081
1.89648
1.8902
1.88258
1.87281
1.86317
1.85362
1.84255
1.83273
1.82224
1.80964
1.79785
1.78422
1.76896
1.75575
1.74046
1.72446
1.71162
1.69574
1.68114
1.66918
1.65349
1.64119
1.62951
1.61461
1.60416
1.59221
1.57849
1.56932
1.55727
1.54556
1.5372
1.52545
1.40001
1.40001
1.40001
1.40001
1.40001
1.40001
1.40001
1.40001
1.40001
1.40015
1.40237
1.42062
1.48843
1.64662
1.8188
1.9453
2.00243
2.01073
2.00908
2.00376
1.99762
1.99193
1.98635
1.98056
1.97413
1.96748
1.9609
1.95431
1.94767
1.94095
1.93459
1.92874
1.92328
1.91764
1.91176
1.90566
1.89911
1.89251
1.88593
1.8792
1.87295
1.86636
1.85922
1.85261
1.84626
1.84078
1.83627
1.83341
1.83264
1.83435
1.83836
1.84507
1.85314
1.86127
1.86899
1.87428
1.8773
1.87736
1.87487
1.87074
1.86478
1.85761
1.84836
1.8395
1.83032
1.81981
1.8108
1.80097
1.78956
1.77956
1.76767
1.75403
1.74253
1.72865
1.71448
1.70269
1.68762
1.6749
1.66303
1.64805
1.63708
1.62475
1.61082
1.60131
1.58885
1.57685
1.5682
1.55588
1.40001
1.40001
1.40001
1.40001
1.40001
1.40001
1.40001
1.40001
1.40001
1.40001
1.40003
1.40063
1.40651
1.4401
1.53613
1.69842
1.8631
1.94518
1.99346
2.0023
1.99808
1.99128
1.98498
1.97857
1.97192
1.9655
1.95952
1.95357
1.9469
1.94006
1.9333
1.9264
1.91982
1.91323
1.90691
1.90067
1.89422
1.88802
1.8814
1.87469
1.86819
1.86074
1.85366
1.84651
1.83899
1.83248
1.82538
1.8185
1.8127
1.80814
1.80515
1.80413
1.80614
1.81105
1.81828
1.82692
1.83532
1.84302
1.84823
1.85144
1.85139
1.84912
1.84499
1.8395
1.83299
1.82469
1.81694
1.80828
1.79812
1.78964
1.78029
1.76987
1.76162
1.75105
1.73957
1.72992
1.71731
1.70569
1.69484
1.6809
1.66994
1.65792
1.64418
1.63429
1.62181
1.60941
1.60028
1.58762
1.40001
1.40001
1.40001
1.40001
1.40001
1.40001
1.40001
1.40001
1.40001
1.40001
1.40001
1.40001
1.40012
1.40176
1.41384
1.46273
1.58154
1.73221
1.88588
1.94622
1.97716
1.98561
1.98608
1.98009
1.97309
1.96697
1.96016
1.95327
1.94622
1.93938
1.93275
1.92639
1.9198
1.91308
1.90651
1.89946
1.89274
1.88626
1.87935
1.87295
1.86634
1.85927
1.85271
1.84518
1.83814
1.83072
1.82251
1.81563
1.80802
1.8009
1.79518
1.78926
1.78446
1.78102
1.77997
1.78195
1.78659
1.79323
1.80124
1.80923
1.81631
1.82138
1.82436
1.82466
1.82302
1.81952
1.81486
1.8088
1.80136
1.79451
1.78669
1.7773
1.76944
1.7603
1.7509
1.74345
1.73356
1.72463
1.71623
1.70475
1.69551
1.68538
1.67323
1.66405
1.65263
1.64066
1.63158
1.61932
1.40001
1.40001
1.40001
1.40001
1.40001
1.40001
1.40001
1.40001
1.40001
1.40001
1.40001
1.40001
1.40001
1.40002
1.40036
1.40372
1.42361
1.48466
1.61565
1.75862
1.88327
1.94703
1.96609
1.96994
1.96742
1.96607
1.96077
1.95436
1.9479
1.94147
1.93451
1.92742
1.92009
1.91296
1.90629
1.89939
1.89299
1.88661
1.87969
1.87336
1.86647
1.85941
1.85268
1.84529
1.83826
1.83156
1.82407
1.81722
1.80946
1.80195
1.79483
1.78682
1.78057
1.77425
1.76787
1.76292
1.75948
1.75828
1.75934
1.76313
1.76852
1.7752
1.78223
1.78851
1.79321
1.79618
1.79718
1.79641
1.79379
1.79013
1.78485
1.77813
1.77213
1.765
1.75685
1.75005
1.74101
1.73266
1.72513
1.71536
1.70788
1.69975
1.68981
1.68261
1.67323
1.66306
1.65534
1.64466
1.40001
1.40001
1.40001
1.40001
1.40001
1.40001
1.40001
1.40001
1.40001
1.40001
1.40001
1.40001
1.40001
1.40001
1.40001
1.40006
1.40079
1.40637
1.43332
1.50507
1.63335
1.77421
1.87266
1.93986
1.95517
1.95832
1.95507
1.95002
1.94549
1.94062
1.93487
1.92871
1.92238
1.91562
1.90842
1.90066
1.89365
1.88683
1.87993
1.87365
1.86704
1.86053
1.85431
1.84715
1.84013
1.83316
1.82556
1.81892
1.8119
1.80442
1.79764
1.78951
1.78218
1.77475
1.76725
1.76116
1.75428
1.74786
1.74293
1.73961
1.73741
1.73705
1.73917
1.74314
1.74849
1.75433
1.75961
1.76395
1.76716
1.76872
1.76863
1.7669
1.76427
1.75999
1.75467
1.74964
1.74274
1.73608
1.72979
1.72127
1.71427
1.70674
1.6975
1.69062
1.68223
1.6732
1.66659
1.65741
1.40001
1.40001
1.40001
1.40001
1.40001
1.40001
1.40001
1.40001
1.40001
1.40001
1.40001
1.40001
1.40001
1.40001
1.40001
1.40001
1.40001
1.40012
1.40136
1.40936
1.44096
1.51993
1.63791
1.77991
1.86182
1.91986
1.94399
1.94741
1.94298
1.93812
1.93246
1.92693
1.9216
1.91592
1.90962
1.90309
1.89665
1.88939
1.88165
1.87479
1.86769
1.86091
1.85478
1.84818
1.84199
1.83568
1.82828
1.82133
1.81417
1.80683
1.80034
1.7933
1.78542
1.77813
1.77071
1.76254
1.75566
1.74937
1.74174
1.73525
1.72949
1.72413
1.71998
1.71674
1.71541
1.71582
1.71804
1.72114
1.72547
1.72958
1.73341
1.73641
1.73828
1.73888
1.73811
1.73646
1.73344
1.72958
1.7251
1.71902
1.71366
1.70769
1.70027
1.69442
1.68723
1.67888
1.67258
1.66407
1.40001
1.40001
1.40001
1.40001
1.40001
1.40001
1.40001
1.40001
1.40001
1.40001
1.40001
1.40001
1.40001
1.40001
1.40001
1.40001
1.40001
1.40001
1.40002
1.4002
1.40194
1.41199
1.44542
1.52616
1.63794
1.76815
1.85309
1.898
1.92572
1.9343
1.9328
1.92749
1.92124
1.91505
1.90889
1.90308
1.89741
1.89095
1.88435
1.87774
1.86997
1.86268
1.85602
1.84896
1.84246
1.83629
1.82974
1.82375
1.81704
1.80937
1.80261
1.79598
1.78873
1.78207
1.7749
1.7666
1.75966
1.75275
1.74439
1.73788
1.73078
1.72305
1.71768
1.71164
1.70553
1.70116
1.69688
1.69382
1.69228
1.69247
1.69384
1.6963
1.69857
1.70133
1.7038
1.70528
1.70636
1.70611
1.70513
1.70322
1.70067
1.69728
1.69278
1.68845
1.68286
1.67651
1.67128
1.66432
1.40001
1.40001
1.40001
1.40001
1.40001
1.40001
1.40001
1.40001
1.40001
1.40001
1.40001
1.40001
1.40001
1.40001
1.40001
1.40001
1.40001
1.40001
1.40001
1.40001
1.40003
1.40029
1.40239
1.41332
1.44726
1.52366
1.63169
1.74376
1.84194
1.88
1.90534
1.91641
1.92005
1.91676
1.91133
1.90446
1.89759
1.89119
1.88535
1.87937
1.87261
1.86577
1.85893
1.85127
1.84394
1.83699
1.83025
1.82431
1.81846
1.81156
1.80511
1.79832
1.79108
1.78477
1.77845
1.77078
1.76377
1.75693
1.74887
1.74187
1.7349
1.72655
1.71992
1.71299
1.70563
1.70027
1.69358
1.68729
1.68266
1.67707
1.67304
1.67022
1.66781
1.66679
1.66659
1.66707
1.66798
1.66897
1.66955
1.67028
1.67026
1.66971
1.66858
1.66675
1.66413
1.66093
1.65754
1.65303
1.40001
1.40001
1.40001
1.40001
1.40001
1.40001
1.40001
1.40001
1.40001
1.40001
1.40001
1.40001
1.40001
1.40001
1.40001
1.40001
1.40001
1.40001
1.40001
1.40001
1.40001
1.40001
1.40003
1.40035
1.4026
1.4132
1.44613
1.51363
1.61818
1.7183
1.81519
1.86397
1.88777
1.89803
1.9034
1.90425
1.9002
1.89433
1.88737
1.88036
1.87403
1.868
1.86203
1.85512
1.84785
1.84066
1.83267
1.8254
1.81898
1.81235
1.80649
1.80055
1.79332
1.78666
1.78058
1.77353
1.7672
1.76074
1.75285
1.7459
1.73926
1.7313
1.7246
1.71733
1.70895
1.70265
1.69564
1.68811
1.68256
1.67558
1.66907
1.66397
1.65739
1.65263
1.64875
1.64399
1.6409
1.63851
1.63634
1.63495
1.63378
1.63319
1.63244
1.63158
1.63066
1.62946
1.62789
1.6258
1.40001
1.40001
1.40001
1.40001
1.40001
1.40001
1.40001
1.40001
1.40001
1.40001
1.40001
1.40001
1.40001
1.40001
1.40001
1.40001
1.40001
1.40001
1.40001
1.40001
1.40001
1.40001
1.40001
1.40001
1.40004
1.40035
1.40252
1.41196
1.44127
1.50002
1.59528
1.69134
1.77998
1.84488
1.86683
1.88192
1.88707
1.89004
1.88855
1.88393
1.87764
1.87047
1.86376
1.85776
1.85186
1.84557
1.83817
1.8305
1.823
1.81505
1.80813
1.80208
1.79525
1.78886
1.78239
1.77526
1.7691
1.76329
1.75612
1.74942
1.7429
1.73533
1.72882
1.72214
1.71379
1.70696
1.69988
1.69166
1.6854
1.6784
1.67059
1.6647
1.65832
1.65121
1.64581
1.63995
1.63351
1.62854
1.62353
1.61899
1.61376
1.61007
1.60717
1.60308
1.60008
1.59784
1.59503
1.59266
1.40001
1.40001
1.40001
1.40001
1.40001
1.40001
1.40001
1.40001
1.40001
1.40001
1.40001
1.40001
1.40001
1.40001
1.40001
1.40001
1.40001
1.40001
1.40001
1.40001
1.40001
1.40001
1.40001
1.40001
1.40001
1.40001
1.40003
1.40031
1.40214
1.40993
1.43393
1.48472
1.56511
1.66055
1.74069
1.81554
1.84737
1.86341
1.87096
1.87501
1.87628
1.87323
1.86774
1.86111
1.85431
1.84841
1.84297
1.83661
1.82974
1.82182
1.81371
1.80624
1.79903
1.79247
1.78627
1.779
1.77184
1.76571
1.75875
1.75257
1.74665
1.73912
1.73243
1.72642
1.71899
1.7124
1.70603
1.69791
1.6912
1.68465
1.67656
1.67026
1.66381
1.65558
1.64962
1.64283
1.63563
1.63031
1.6234
1.61746
1.61205
1.60536
1.60055
1.59507
1.58948
1.58542
1.57981
1.57532
1.40001
1.40001
1.40001
1.40001
1.40001
1.40001
1.40001
1.40001
1.40001
1.40001
1.40001
1.40001
1.40001
1.40001
1.40001
1.40001
1.40001
1.40001
1.40001
1.40001
1.40001
1.40001
1.40001
1.40001
1.40001
1.40001
1.40001
1.40001
1.40003
1.40024
1.40158
1.40753
1.42572
1.46698
1.53341
1.62263
1.70134
1.77377
1.82521
1.84126
1.85439
1.85982
1.8633
1.86261
1.85819
1.85184
1.84548
1.83991
1.83488
1.82928
1.82238
1.81467
1.80641
1.79805
1.79116
1.78464
1.77773
1.77098
1.76364
1.7569
)
;

boundaryField
{
    inlet
    {
        type            calculated;
        value           nonuniform 0();
    }
    outlet
    {
        type            calculated;
        value           nonuniform 0();
    }
    bottom
    {
        type            symmetryPlane;
    }
    top
    {
        type            symmetryPlane;
    }
    obstacle
    {
        type            calculated;
        value           nonuniform 0();
    }
    front
    {
        type            empty;
    }
    back
    {
        type            empty;
    }
    procBoundary27to10
    {
        type            processor;
        value           nonuniform List<scalar> 
14
(
2.35996
2.32999
2.29812
2.2496
2.03211
1.61024
1.42189
1.40063
1.40001
1.40001
1.40001
1.40001
1.40001
1.40001
)
;
    }
    procBoundary27to18
    {
        type            processor;
        value           nonuniform List<scalar> 
13
(
1.40001
1.40001
1.40001
1.40001
1.40001
1.40001
1.40001
1.40001
1.40001
1.40001
1.40001
1.40001
1.40001
)
;
    }
    procBoundary27to19
    {
        type            processor;
        value           nonuniform List<scalar> 
89
(
2.20143
2.15755
2.11361
2.07296
2.03456
1.99867
1.96671
1.93215
1.89824
1.86764
1.83646
1.80847
1.78329
1.75705
1.7313
1.70522
1.67905
1.65537
1.63162
1.60853
1.58841
1.56615
1.54099
1.51949
1.49686
1.47073
1.45057
1.43148
1.40892
1.38846
1.3701
1.34931
1.32909
1.31069
1.29159
1.2744
1.25961
1.24472
1.2268
1.21067
1.19734
1.18172
1.16396
1.15172
1.13993
1.12445
1.11141
1.10128
1.08853
1.0728
1.06186
1.05186
1.03823
1.02557
1.018
1.00803
0.994895
0.985622
0.977761
0.966775
0.955372
0.94903
0.941103
0.931881
0.925261
2.37897
2.37801
2.37892
2.37998
2.37543
2.36433
2.35194
2.34218
2.33618
2.3344
2.3341
2.33635
2.34227
2.35212
2.3641
2.37304
2.37594
2.36961
2.35713
2.34122
2.32295
2.30431
2.28528
2.28528
)
;
    }
    procBoundary27to20
    {
        type            processor;
        value           uniform 0.965969;
    }
    procBoundary27to28
    {
        type            processor;
        value           nonuniform List<scalar> 
26
(
1.00744
1.04646
1.08361
1.12062
1.15833
1.19662
1.23603
1.27586
1.31505
1.35273
1.38819
1.42205
1.45429
1.48508
1.515
1.54529
1.57668
1.60826
1.63466
1.64907
1.65607
1.65754
1.64843
1.62346
1.59042
1.57163
)
;
    }
    procBoundary27to35
    {
        type            processor;
        value           nonuniform List<scalar> 
89
(
1.75126
1.74442
1.73756
1.73156
1.72442
1.71787
1.71204
1.70456
1.69741
1.69131
1.68358
1.67696
1.67095
1.6628
1.65644
1.64959
1.64229
1.63653
1.62903
1.62307
1.61675
1.60955
1.60448
1.59792
1.59134
1.58646
1.57985
1.57417
1.40001
1.40001
1.40001
1.40001
1.40001
1.40001
1.40001
1.40001
1.40001
1.40001
1.40001
1.40001
1.40001
1.40001
1.40001
1.40001
1.40001
1.40001
1.40001
1.40001
1.40001
1.40001
1.40001
1.40001
1.40001
1.40001
1.40001
1.40001
1.40001
1.40001
1.40002
1.40016
1.40105
1.4051
1.41799
1.44856
1.5029
1.57789
1.65911
1.72681
1.79024
1.81901
1.83389
1.84364
1.84937
1.85121
1.8488
1.8431
1.83694
1.83213
1.82764
1.82309
1.81682
1.80932
1.80104
1.79264
1.78446
1.77801
1.77162
1.75126
1.76404
)
;
    }
}


// ************************************************************************* //
