/*--------------------------------*- C++ -*----------------------------------*\
  =========                 |
  \\      /  F ield         | OpenFOAM: The Open Source CFD Toolbox
   \\    /   O peration     | Website:  https://openfoam.org
    \\  /    A nd           | Version:  7
     \\/     M anipulation  |
\*---------------------------------------------------------------------------*/
FoamFile
{
    version     2.0;
    format      ascii;
    class       volScalarField;
    location    "0.875";
    object      p;
}
// * * * * * * * * * * * * * * * * * * * * * * * * * * * * * * * * * * * * * //

dimensions      [0 2 -2 0 0 0 0];

internalField   nonuniform List<scalar> 
12359
(
0.0633692
0.0725907
0.0473275
0.105541
0.0670133
0.152688
0.184347
0.166817
0.224211
0.140378
0.20516
0.273523
0.486468
0.112583
0.100593
0.395338
0.43945
0.0516762
0.0513175
0.0856356
0.121664
0.248835
0.0790234
0.0910019
0.0753907
0.0818661
0.0484592
0.0483156
0.0506151
0.0489368
0.0493474
0.0478293
0.0474989
0.0487234
0.047362
0.0495351
0.0568451
0.0617414
0.0653164
0.0592061
0.0705687
0.060392
0.0543995
0.0537243
0.0500077
0.0503281
0.0497704
0.049166
0.0509391
0.0485695
0.0481865
0.0480576
0.0477466
0.0520683
0.0476798
0.0475211
0.0530862
0.0474798
0.0474648
0.0474098
0.0475613
0.0473564
0.048106
0.513228
0.0525915
0.130213
0.0560192
0.047976
0.0575408
0.344667
0.530984
0.0685994
0.0473201
0.0583136
0.0962947
0.0473629
0.047738
0.0473388
0.0552606
0.314158
0.12312
0.0428521
0.0463838
0.048738
-0.0603642
0.0223344
0.0427138
0.0449574
-0.0724437
-0.0547657
0.0471111
0.469698
0.0470693
0.0470864
0.0472975
0.00342871
0.0465462
0.0471601
0.0562067
0.0526368
0.105419
0.0472236
0.0225846
-0.128868
0.041747
0.0117859
0.0461182
-0.0582853
0.0263308
0.0122522
0.0466633
0.0429567
0.108162
0.089284
0.0477703
0.0433507
0.0910037
0.0419221
-0.0779586
0.0464247
0.0467794
0.173868
0.0447787
0.00448472
0.041642
0.0430995
0.0357918
0.0486283
0.0473301
0.0414844
0.0437211
-0.00262512
-0.0040568
-0.00273627
0.0461742
0.00561555
0.043519
0.00543756
0.0472496
0.0365435
0.0465664
0.0648693
0.0132184
0.0461467
0.00704553
0.144998
0.0463918
-0.0492046
0.0416003
0.12586
0.00220411
0.0472344
0.0132762
0.0447194
0.0470165
-0.171425
0.105904
-0.00175042
0.0466749
0.0479026
0.0438697
0.0479525
0.00314765
0.0104734
0.0463614
0.0432261
0.0449877
0.172231
0.0121015
-0.074057
0.0473408
0.0473608
0.010651
0.0754871
0.0418732
0.040119
0.0506224
0.050422
0.109495
0.0405662
0.112796
0.0469941
0.0473326
0.0425956
0.0551472
0.206243
0.0421921
0.0465297
0.00201043
0.0419597
0.0467736
0.00341392
0.00537654
0.0446292
0.0111119
-0.137823
0.0309933
0.0430778
0.0139445
0.0420315
0.14897
0.00158951
0.053779
0.0119049
0.0102887
0.0469707
0.00931348
0.0544126
0.00163103
0.0409842
0.0467158
0.000215863
0.000129377
-0.540288
0.20118
0.0472549
0.042587
0.0477426
0.042422
0.0656862
0.099299
0.040978
0.00432444
0.472069
0.0414008
0.0466928
0.0663189
0.0274282
0.0435235
0.0438408
0.0436434
0.0463677
0.0078918
0.0539615
0.0459722
0.0530719
0.0464176
0.012829
0.0461791
0.289302
0.0463286
0.020295
0.0464046
0.0531765
0.0428647
-0.0497757
0.047443
0.00146848
0.042052
0.00649113
0.00134676
0.0611349
0.0500586
0.0441661
0.327019
-0.589417
0.0464322
0.0409325
0.399503
-0.0503893
0.0533742
0.0438571
0.0435195
0.0108807
0.0737406
-0.466935
-0.0704924
0.042673
0.0412134
0.00577345
0.0108284
0.0590252
0.0122422
0.0442926
0.0409569
0.0463589
0.0410515
-0.118839
0.041604
0.0460252
0.0472088
0.0103054
0.038852
0.0561256
0.0210333
0.0465
0.0457257
0.0472294
0.0472109
0.0478676
0.00312351
0.0425034
-0.461398
0.046114
0.0461276
0.0229172
0.0422521
0.098621
0.0474237
0.0482427
0.0471313
-0.10918
0.0427464
0.0471325
0.0428512
0.0470797
0.041953
0.043011
0.0436115
0.0423347
0.0516676
0.203027
0.0417288
0.0494338
0.0617968
0.0207033
-0.0576524
0.0413786
0.0570357
0.370291
0.0472015
0.0175052
0.0459712
0.0312592
0.0461223
0.0410386
0.224227
0.0168099
0.20256
0.0556918
0.0460718
0.00505934
0.00173404
0.0459805
0.00457188
0.00502104
0.0457477
0.0476402
0.0476301
0.0476909
0.0476812
0.28788
0.0464773
0.103696
0.000393282
0.053899
0.0116642
0.0169084
0.0236203
0.0320474
0.0160737
0.0325999
0.0559382
0.0185507
0.0199067
0.0905302
0.0657235
0.0129658
0.0638681
0.0637792
0.0145196
0.102963
0.0433771
0.0477205
0.0294899
0.047681
0.0431218
-0.195694
0.500751
0.0433196
0.0472896
0.046184
0.0468771
0.0159251
0.047022
0.0470044
-0.0772333
0.0108409
-0.0511597
0.0451666
0.00869768
0.0390182
0.0466761
0.0141504
0.0293078
0.108843
0.0294641
0.0436051
0.0459859
0.010314
0.00838685
0.0408361
0.292408
0.0140139
0.00360367
0.0483976
0.0452775
0.0472674
0.385827
0.0113146
0.0453067
0.0609429
0.062846
0.0465868
0.0465552
0.0468154
-0.0600625
0.0967504
0.0581721
0.0163372
0.00116157
0.0473407
0.112747
0.0478951
-0.000213909
-0.0624093
0.297977
0.0528012
0.0901247
0.026496
0.0205266
0.0339701
0.0291747
0.0490036
0.033904
0.0136846
0.0470288
-0.0505845
0.0566722
-0.00619578
0.00720899
0.0535026
0.094447
-0.149147
0.0155498
0.0378409
0.00145436
0.00688045
0.0173001
0.0420871
0.0467588
0.0509557
0.0461261
-0.00328798
0.0437133
0.081647
0.0839153
0.0349578
-0.0571882
0.103042
0.0523759
0.0456475
0.387593
0.0458053
0.0451073
0.00374689
0.0472925
0.0455214
0.0450849
0.233372
0.206525
0.0483804
0.0449544
0.108394
0.0467226
0.0165776
0.0133277
0.0113959
0.0457416
0.0468613
0.0464294
0.0471435
0.0834952
0.017219
0.0204059
0.0502278
0.0501644
0.00131177
0.0490939
0.0451735
0.0406815
0.119324
0.00312828
0.047237
0.0461804
0.00989467
0.028731
0.0470783
0.0433323
0.110744
0.0160986
0.00594375
0.0190702
0.0456698
0.0453648
-0.00713881
-0.00446443
0.0471365
0.0350881
0.0474386
0.00295159
0.281764
0.0467949
0.0439189
0.0457913
0.0129147
0.0522121
0.0513502
0.0433773
0.0478668
0.0283468
0.0742549
0.03714
-0.0378256
0.04605
-0.042621
0.0450672
-0.119649
0.0157616
-0.0042382
0.0474597
0.0500389
0.020056
0.0426034
0.0481751
0.0547616
0.0525082
0.0527414
0.0687424
0.0123519
0.0119439
0.0464021
0.0423123
0.0169816
-0.00355508
0.0464054
0.04601
0.0101217
0.0457517
0.22417
-0.15434
-0.105141
0.046405
0.0396039
0.000847602
0.0515886
0.0421855
0.455837
0.04606
0.112648
0.0868029
0.0394316
0.0422971
0.0482965
0.0353903
0.000297394
0.0284831
0.0499901
0.0464381
0.0473303
0.0521176
0.0506297
0.0535307
0.0124323
0.0479066
0.0460509
0.018808
-0.0782523
0.0493099
-0.00011183
0.0462182
0.0505166
0.0931306
0.00125861
0.00135509
0.0946189
0.044311
0.00111206
0.0466269
0.0473978
0.00207367
0.0353368
0.043687
0.0352886
0.046933
0.0460226
0.0426485
0.0476457
0.00118022
0.10158
0.0570153
0.11635
0.0139044
0.037851
0.111388
0.0611731
-0.00507485
0.0115193
0.0622058
0.0525083
0.0474124
0.0359678
0.0190848
0.0463965
0.0473042
0.0457354
0.047454
-0.0175471
0.035531
0.0320736
0.103403
0.0550141
0.233801
0.00296549
0.00101886
0.0424546
-0.00298475
0.046916
0.0485898
0.0461467
0.103735
0.112546
0.0445974
0.0287186
0.229623
0.0138563
0.00401556
0.0366649
0.0628737
-0.130217
0.0453916
0.0485115
0.046954
-0.0117056
0.0483923
0.0293159
-0.0567942
0.0460441
0.0755286
0.0555421
0.0395439
0.0495551
0.0449223
0.0477405
0.0518552
0.0477919
0.0476754
0.0512037
0.00474415
0.00831069
0.0396246
0.330459
0.000924599
0.419388
0.0151317
0.0214948
0.0515705
0.0164317
0.0548693
0.00356577
0.316819
0.0965574
0.0541261
0.0418973
0.0519624
0.0506019
0.0196992
0.0467561
-0.00645604
0.0478348
0.0974205
0.0465536
-0.0157323
0.00657933
0.00972795
0.0544023
0.0371496
0.00698825
0.0757527
0.00380135
0.038677
0.00160948
0.0412505
0.0464508
0.0481589
-0.211901
0.068739
0.0399775
0.046347
0.0480164
0.0524489
0.081013
0.00813803
0.0144615
0.0457819
0.0414598
0.0535607
0.0398767
0.037488
0.000703016
0.0534738
0.0556466
0.00782803
0.0412719
0.0383759
0.101816
0.0464032
0.0536372
-0.265583
0.0474467
0.00579079
0.0493567
0.038767
0.0870827
0.00835628
0.0490074
0.0171385
0.0470254
0.109838
0.0413546
0.00731997
0.00949134
0.110991
0.0468884
0.000761868
-0.00628953
0.0547007
0.0404931
0.041969
0.0344562
0.235139
0.0513867
0.0472694
0.0530278
0.0470437
-0.12823
0.040044
0.00850158
0.0295998
0.0142263
0.521857
0.0400726
-0.0581147
0.00868302
-0.0860131
0.0163466
0.0498359
0.0400945
0.0291459
-0.0499763
-0.0377482
0.0451239
0.0448723
0.116876
0.0444553
0.209199
0.0181812
0.067542
0.0423103
0.390362
-0.105064
0.0405994
0.0464569
0.0467328
0.0919634
0.0525062
0.0572457
0.0498745
0.0129576
0.0751844
-0.022899
0.348942
0.0458152
0.0809766
0.0123646
0.118423
0.0418667
0.112931
0.00614261
0.0930998
0.0497912
0.0463501
0.00812071
0.00537018
0.0154321
0.116196
0.011006
0.021656
0.049308
0.04623
0.0365645
0.245302
0.036566
0.010257
0.0646771
0.01778
0.0339469
0.0505416
-0.00548204
0.0304278
0.0413568
-0.0116369
0.0561934
0.0243346
0.196079
0.0464381
0.0302153
0.0482098
0.0545485
0.0433115
0.0488065
0.0464
-8.01639e-05
0.0405502
0.0755566
0.0107453
0.0930547
0.0288352
0.0292218
0.00880454
-0.194186
0.047429
0.0540111
0.02179
-0.0708311
0.00581859
0.0468005
0.509838
0.0463701
0.0416203
-0.162993
0.0524231
0.0471522
0.0472209
0.0632492
0.0878058
0.0474558
0.0535286
0.106781
0.0487304
0.0510456
0.0502833
0.0454052
0.0889477
-0.0184773
0.0520403
0.114725
0.00839073
0.00317766
0.0035443
0.0134451
0.0502426
0.0414953
-0.0424973
0.00379976
0.0708833
0.0459158
0.0474778
0.116032
-0.00295287
0.0311957
0.03495
0.0309036
0.0498096
0.041038
0.0821097
-0.235447
0.363532
0.0805771
0.0478368
0.0409789
0.0776765
0.351483
0.108876
0.0468288
-0.00113006
-0.0140302
-0.24315
0.0337796
-0.15978
0.0474507
0.0501689
0.047493
0.00471637
0.072691
-0.162934
0.0413226
-0.08688
0.044258
0.0483504
0.00899964
0.0517625
-0.00030175
-0.0433531
0.0532396
0.0330806
0.022278
0.0342584
0.0530695
0.0733805
0.0706823
0.0286332
0.0770283
0.053239
0.0475359
0.0506408
0.0480635
0.102369
0.0203665
-0.00876204
0.0011703
0.083765
0.0226148
0.0209342
0.0405285
-0.0133107
0.0320335
0.052547
0.0469684
-0.00166767
0.106575
0.0413943
0.0385925
0.05431
0.0215216
0.100919
0.11349
0.0214541
0.247714
0.0202541
0.0848879
-0.0404799
0.0514062
0.0161853
0.00972791
0.0446062
0.0317711
0.0368587
0.0419347
0.0466207
0.0430172
-0.0154192
-0.00287565
0.0422378
-0.147209
0.0979665
0.047955
0.0488712
0.000436275
0.0478554
0.0755141
0.0118321
0.00316274
0.0477935
0.0501987
0.046694
0.0478557
0.116326
-0.139945
0.0480192
0.0548914
0.0464129
-0.147294
0.0195984
0.0127696
0.0461316
0.0479154
0.0501523
0.0227803
0.0832002
0.0260343
0.0454146
0.0504078
0.0477396
0.0191407
0.0828173
0.0366964
0.047296
0.0285679
0.0232216
0.0731203
0.042796
-0.0183342
0.143243
0.0445886
0.0306197
0.0501856
0.0413385
-0.183337
0.0530605
0.0480041
0.00924921
0.102735
0.0800877
-0.141467
0.0740495
0.0328187
0.0254706
0.0542595
0.0376375
0.0325663
0.0535146
0.145003
0.0479385
-0.332377
0.0812443
0.178633
0.0375934
-0.00567126
0.0937445
-0.00249828
0.261039
0.00565647
0.0231229
0.0315044
0.0365159
0.0463743
0.0416503
0.0859629
0.000552568
0.0536799
0.044625
0.00481594
0.0150587
0.00469953
0.0780719
-0.000772406
0.00434884
0.0460593
0.0687336
-0.0508585
0.085334
0.0463527
0.0325559
0.0510651
0.0463689
0.0671918
0.047436
0.0417218
0.243459
0.0898827
-0.0185214
0.0474769
0.0469706
0.0470597
0.0537895
0.0511411
-0.00266675
0.0512737
0.0468645
-0.0182805
0.0196602
0.00373912
0.066802
0.0481579
0.039368
0.0894442
0.0320994
0.0475062
-0.0429851
0.0087634
0.109272
0.0476749
-0.240482
0.0954313
0.0483886
0.00220719
0.0358929
-0.0189042
0.0335696
-0.000201863
0.0922873
0.0475066
0.0491707
0.0196112
0.0370435
0.0524055
-0.00855228
0.0525884
0.0527264
0.0946434
0.0441164
0.0507686
0.0332912
0.0076838
0.0477571
0.0526528
0.0507779
0.0462617
0.0943536
-0.0428176
0.0240136
0.0538572
0.0515001
0.039252
0.0465657
-0.195837
0.0771447
0.0472245
0.0690724
0.0393521
0.0974212
0.151154
0.000523075
0.0527164
0.00371742
-0.00342511
0.0460995
0.0384234
-0.00217053
0.0421915
0.0472772
0.0704962
0.0252315
0.0514454
0.0473044
0.0392744
0.0819641
0.0478984
0.0295401
0.0474482
0.0366078
0.0650367
0.128929
0.0468471
-0.202055
0.0780108
0.0140077
-0.123564
0.090541
0.0295159
-0.0330108
0.0543367
0.138313
0.205826
0.0513663
0.0420408
0.041931
0.049418
0.0512697
0.00547643
-0.0814875
-0.149939
0.00727747
0.146477
-0.00670438
0.00863432
-0.0559993
0.0467789
0.0496533
0.0457246
0.0226422
0.0467573
0.0069247
0.0341878
-0.00884677
0.0464677
0.0499431
0.0446063
-0.153976
0.117082
0.0760935
0.0592071
0.119484
0.0421781
0.0479403
-0.0177201
0.0340019
-0.0143218
0.00609246
0.0197034
0.00292522
0.0129051
0.0547603
0.0462007
0.0466281
-0.125337
0.0393871
0.0376827
0.051283
0.0012207
0.0162463
0.0468917
0.0175098
-0.0149957
-0.000157849
0.0923458
0.0511331
0.0470735
0.00345429
0.0539679
0.0467964
-0.00244091
0.00602853
0.0507671
0.136236
0.000325972
0.047013
0.0471189
0.046238
0.104769
-0.14066
0.0384056
0.00865668
0.0500623
0.0507044
0.00874768
0.0471892
0.177612
0.0127865
-0.0510037
0.152045
0.0278924
0.0463841
0.0466126
0.0307489
0.0541463
0.0462317
-0.182742
0.003922
0.0418154
0.217026
0.099273
0.0411841
0.0464042
0.0471762
0.0509514
-0.0750036
0.159474
0.0312238
0.0753402
0.0646749
0.00470674
-0.0804289
0.0209091
0.052233
0.0508909
0.014574
0.03861
0.0457803
0.0494541
0.00244862
0.0511464
0.0304501
0.0530292
0.0795856
-0.0126361
0.0444844
0.0495617
-0.00503932
0.0023182
0.0565024
0.0492308
0.0745883
-0.000683507
0.0370452
0.0155003
0.0720398
0.0140134
-0.0337255
0.0510781
0.156868
0.0462787
0.10224
-0.00148859
0.0471704
0.0467119
0.373868
0.0473944
0.0538927
0.0241275
0.0523539
0.0525082
0.0555676
0.0472841
0.0470454
0.000150806
-0.0276548
0.0449004
0.333081
0.0349459
0.0492305
0.23339
0.0965254
0.0531912
0.0430649
0.0489319
0.0862414
-0.274029
0.0522191
0.0448075
0.046312
0.0495053
0.061621
0.0144316
0.0517409
0.0623207
0.0504393
-0.157303
-0.00778243
0.00596494
0.107953
0.0346823
0.0493235
0.0032299
-0.120973
0.0508675
0.046527
0.0492504
0.044601
0.0523068
0.0459077
-0.00404379
0.0427722
0.041282
0.316411
-0.0012494
-0.00709453
0.00277992
0.0521306
0.00024493
0.0841778
-0.0906573
0.0451584
0.00855627
0.0471746
0.238593
0.046468
0.0469269
0.0281012
0.0463523
0.0235804
0.0569693
0.0524043
0.0450541
-0.0934358
0.0853701
0.00893215
0.0495313
0.0333365
-0.0550095
-0.00881288
0.0766329
0.0728572
0.0476095
0.0531922
0.0432603
0.0493697
0.0449047
0.0494793
0.0878606
0.0723755
0.00558352
-0.107223
0.0212219
-0.0103705
0.0302925
-0.111162
0.0458496
-0.0316537
0.049337
-0.0149105
-0.00736437
0.022907
0.0470163
0.0271307
0.00899177
0.0295455
-0.00685108
0.231248
-0.106373
0.0493015
-0.0037287
0.0436761
-0.00647731
0.0885586
0.00200569
0.0423925
0.0553985
0.00783496
0.050163
0.033922
0.0474008
0.043036
0.046525
0.0532157
0.00510899
0.00102369
0.0468198
0.0819473
-0.0848928
0.484426
0.0461386
0.0712022
0.0218967
0.191515
0.0291763
-0.182079
-0.0363412
0.0448213
0.0222079
0.0638201
0.174614
0.0461784
0.0655643
0.0757391
0.0445941
-0.0880854
-0.00561824
0.0492764
0.0229235
-0.0351133
0.0742273
-0.0906776
0.0355094
0.076811
0.0519688
0.0461314
0.0534223
0.0422269
-0.0768824
-0.000491903
-0.0657608
0.0478368
-0.084839
0.0276549
0.00185921
0.108579
0.0226158
0.0253506
-0.0564602
0.0353294
0.0343657
0.00417077
0.0670731
0.0236149
0.0070564
0.0675131
-0.0922947
0.0830526
0.0321019
0.0864479
0.0477565
0.110397
-0.000234808
0.0986898
0.0510387
-0.0379103
0.0468461
0.0313609
0.00638692
-0.00107843
0.0549702
0.00485275
0.0425654
0.505952
0.0530819
0.00399433
0.0891236
-0.000171507
0.00578956
0.0473141
0.0290575
0.0465593
0.462762
0.0469603
0.0467073
0.0462424
-0.0157
0.0413481
0.041878
-0.0103153
0.0254413
0.0619712
0.0414548
0.0465805
0.104362
0.0449372
0.101585
0.00578515
0.0836654
0.0361162
0.0394044
0.0235355
-0.0148132
0.00756643
0.040961
0.533965
0.0469383
0.0466498
0.0533876
-0.141497
0.0510498
0.0281073
0.0756612
0.0511251
0.0390283
0.00151384
-0.024409
0.0310267
-0.0482188
0.0520526
0.0427433
0.0122283
0.0168603
-0.000658571
0.049261
0.0226524
0.0696029
0.192581
0.034691
0.0467528
0.0428229
0.175989
0.0472934
0.0473016
-0.0364702
0.0297452
-0.0414799
0.0390416
0.0464713
0.18688
-0.0155623
0.0418058
0.0524117
0.0448412
-0.112814
0.0473049
0.0314365
-0.0291027
0.0473046
0.0465678
0.0077225
0.0461384
0.0473146
0.0110115
0.0486782
0.0465867
0.0195508
0.0462456
-0.0146608
0.0464608
0.056325
0.117447
0.00677614
0.0473165
0.00366049
-0.174212
0.0391332
0.0717965
0.0445113
0.0323275
0.0451931
-0.0193918
-0.00714091
0.0431511
0.0465655
0.129036
0.0278591
0.0130542
0.00883797
0.127724
0.0461618
0.00441578
0.0465493
-0.0212758
-0.00739303
-0.00572674
0.00652572
0.154203
-0.0903605
0.0042572
0.00816477
0.0457333
0.0495887
-0.000437401
0.133396
0.0964518
0.0308032
-0.0759461
0.0459981
-0.0646794
0.207119
0.0463029
-0.00921622
-0.0165137
0.0779999
0.00609707
0.00525883
0.0703888
0.0466814
-0.0138235
-0.0655645
0.261848
0.0522138
0.00174239
-0.0324847
0.1401
0.0487389
0.0465423
0.00483225
-0.0548094
0.0382657
0.0663645
0.0468207
0.0461468
0.0542507
0.0519333
0.0230034
0.0527221
0.0465114
-0.017716
0.033171
-0.0276401
0.0133937
0.0468378
0.0465826
0.140147
0.0517129
0.0775524
0.0587203
-0.04749
0.0785089
0.0459013
-0.0238656
0.0562503
0.0465815
0.0251097
0.0363649
0.0387911
0.0919377
0.0231419
-0.154733
0.0381366
0.0464366
-0.028804
0.0461984
-0.00766955
0.0286031
-0.0276097
-0.0498983
0.094262
-0.0327414
0.0468796
-0.0102415
0.0508744
0.0697331
-0.0249587
0.0179438
-0.0251128
-0.0651146
0.1703
-0.0130683
0.0608674
0.0458686
0.0464517
0.0461741
-0.0331733
0.138597
0.0459067
-0.0160206
-0.0209329
0.0126426
0.000990864
0.0251246
0.107237
-0.0301477
0.051977
0.0102509
0.0229412
0.0471664
0.0471866
0.0486394
0.0520382
0.00867136
0.0467548
0.0495773
0.0533278
0.0715656
0.000400927
0.0464925
-0.0204182
0.0464598
0.00213485
0.0113923
0.049032
0.0382545
-2.06862e-05
-0.0215883
0.0341598
0.0755126
0.0517856
0.0243839
0.0298094
0.0465978
0.0509155
0.0513121
0.0491017
0.0466315
0.0670134
0.0466158
0.123304
0.0110401
-0.0933161
0.0466769
0.0569737
0.0467912
0.0469524
0.120915
0.0562226
0.0460973
0.322509
0.131724
0.0350398
0.062265
0.0364961
0.118059
0.016693
0.00696021
0.0535629
0.0532133
0.0465602
0.0478793
-0.0132388
0.0462127
0.0487069
0.120057
0.0491856
0.0508923
0.0248567
0.0466417
-0.0373344
0.0467111
0.0486443
0.00645243
0.00752685
-0.0726762
0.107602
0.0680852
0.0488998
0.00575345
0.0488387
0.0230454
0.00288559
0.0531035
-0.0291283
0.047375
0.024057
0.0676375
0.0498845
0.0995542
0.0466559
0.0530562
0.0465422
0.0269269
0.0461083
0.0513594
0.0219754
0.0430469
0.0681382
0.0248944
0.0465967
0.024672
0.0104198
0.0529693
0.00688054
-0.0155129
0.0465602
0.0285732
0.10669
0.00128225
0.0538586
0.0418042
0.0418731
0.022835
0.0544896
0.148202
0.0519607
0.0469048
0.0469224
-0.0215778
-0.00989062
-0.0233279
0.284191
0.0987488
0.0484853
0.023674
0.00896168
0.0472705
-0.0591757
0.0512611
0.101453
-0.000418298
0.0487057
0.142047
-0.00943742
-0.0177623
0.0207694
0.0270882
0.047189
0.0460947
0.0586002
0.0465873
0.0465509
0.133542
0.0493109
0.0616019
0.0459377
0.0360259
0.0426171
0.373381
0.0387975
0.0412566
-0.0106047
0.101669
0.0913643
0.0319968
0.106181
0.0468535
0.044073
0.00344549
0.0701092
0.121957
0.0482791
-0.000668475
0.0379487
0.0484658
0.0495607
0.0467012
0.0623064
0.038775
0.0471033
0.0279557
0.256859
0.0472172
0.0100134
0.029486
0.0464016
0.0605747
0.0494776
0.0252612
0.0467728
0.0466179
0.0123253
0.027076
0.0889282
0.140166
-0.230584
0.052904
0.0619556
-0.0392062
0.0307483
0.0494081
0.0380351
-0.000988931
0.0466375
0.0505282
0.0465538
0.0277305
0.062525
0.0159008
0.0466243
0.0586342
0.0318205
0.0516033
0.115974
0.042919
0.0463396
0.0466234
0.0271749
0.0204711
0.309339
0.0578329
0.0797793
0.00427298
0.00322634
0.046421
0.0972199
0.0466254
0.0465966
0.0471756
-0.00441743
0.0521475
0.0327958
0.00544573
0.0177256
0.00452751
0.0278001
0.0618374
0.111114
0.0443514
0.00951629
0.0894158
0.0304599
0.125726
0.0508801
-0.158706
0.140513
0.133234
0.0460184
-0.115762
0.00413399
0.00605371
0.135027
-0.000312203
0.0562838
0.0535632
0.0362741
0.0331949
0.0303585
0.209057
0.0713966
0.0512546
0.0122822
0.0515233
0.0335306
0.0215208
0.0914859
0.0334389
0.0657005
0.0813511
0.00453985
0.0931079
0.0294639
0.0474686
0.0575489
0.0464062
0.0423534
0.0451779
0.0517207
0.0168327
-0.0489842
0.0464076
0.163325
0.0457438
0.0386566
0.00712844
0.0279308
0.0311969
0.0449486
0.00582192
0.01024
0.25118
0.0466294
0.00732886
0.0340064
0.00833368
0.0471838
0.0468342
0.14873
0.0215523
0.0301749
-0.129433
0.0245283
0.0370226
0.135016
0.0123443
0.117367
0.0528885
0.0157256
0.034831
0.0430439
-0.0285782
0.00561566
0.0177391
0.0308409
0.0460468
0.00458948
0.00426773
-0.00102581
0.0371801
0.0345345
0.414005
-0.0395406
0.045702
-0.0141354
0.017809
-0.110845
0.0465289
0.0295411
0.0302444
0.0465077
0.00253727
0.0252646
0.050588
-0.000179368
-0.023669
-0.00163
0.0532263
0.021455
0.0472227
0.0422174
-0.0268446
0.080022
0.0258702
0.00541843
0.144866
0.0224013
0.0177089
0.0191515
0.00568224
-0.0287406
0.044988
0.0194437
0.0138127
0.0902492
0.277615
0.0114584
0.032541
0.0189908
0.0465245
0.0901362
0.0290626
0.00732602
0.046369
0.0332369
0.00510712
0.0120031
0.147021
0.00894421
0.027184
0.0272222
0.0519046
0.00199687
0.0242771
0.0717816
0.0569513
0.053342
0.00866712
0.0339246
0.0395736
0.0361244
0.0467388
0.0046372
0.0601767
0.0271807
-0.00334892
-0.0469402
0.0413069
0.0258535
0.0146349
0.0217821
0.0466474
0.0973023
0.09731
0.070058
0.0471629
0.224908
0.00541906
0.0507229
0.0875685
0.0460925
0.0551275
0.0305005
0.0242468
0.0518338
-0.106383
0.0480251
0.0569708
0.0404749
-0.0132887
-0.0317415
-0.000470949
0.0603646
0.00754952
0.047197
0.0271416
0.07271
0.048048
0.147049
0.0151254
0.0255444
0.00676116
0.0644712
0.0197548
0.035426
0.0462833
0.0464017
0.0447317
0.0610749
0.11998
0.0135775
0.144643
0.0805431
0.0872649
0.0487051
0.0674289
0.00557244
0.0466272
-0.0240762
-0.0192255
0.0498478
0.0465895
0.0380523
0.0447195
0.0463924
0.0626335
0.032039
0.129618
0.0142409
0.0330454
0.086836
-0.0114604
0.00448503
0.0842507
0.0109195
0.0216177
0.0683869
0.0461675
0.0603119
0.0253711
0.119597
0.126572
0.217952
0.046435
0.124217
0.0306075
0.029715
0.102257
0.104902
0.096704
-0.0252096
0.0189484
0.0645497
0.0189592
0.0373168
0.0437406
0.088929
0.0459619
0.0146675
-0.0299215
0.057113
-0.0269223
0.0455852
0.0813529
0.0524176
0.0282879
0.100267
0.161154
0.019498
0.0409234
0.0149828
0.0314737
0.0691365
0.000120981
0.0803958
-0.00295762
0.0464485
0.0192516
-0.146347
0.0959687
0.0336076
-0.0421708
0.0085554
0.0395159
0.0454895
0.101146
0.0909817
0.0317211
0.0548968
0.048337
0.00464465
0.0415147
0.00279324
0.0784105
0.033558
0.13998
0.0464469
0.0431683
0.00103789
0.0353729
0.0359962
0.0638243
0.054149
0.0274878
0.165813
0.104937
0.0462594
0.00405475
0.0419337
0.0462102
0.131401
0.0460447
0.0196581
0.0224495
0.0459371
0.0460884
0.049957
0.00608766
0.0590352
0.0954742
0.0261127
0.127802
0.0302842
0.0312614
0.0351011
0.0762364
0.0466807
0.0372463
0.034996
0.0244203
-0.0213988
0.00765938
0.0643767
0.0426902
0.0530515
0.0293353
0.0404106
0.0588184
0.0188944
0.103969
0.0300528
0.0462405
0.00707801
0.0849138
0.00602231
0.0464311
0.133354
-0.0247309
0.0432997
0.0962793
0.00475058
0.0508884
0.0938058
0.00200591
0.0873506
0.111888
0.00292
0.0458938
0.0768799
0.0740282
0.0122243
0.0435378
0.0290242
0.0464101
0.0461236
0.0461705
0.0113361
0.0154342
0.0185135
0.0805213
-0.0626357
0.167159
-0.0600956
0.0257483
0.040085
-0.0395028
0.0476472
-0.102234
0.0309956
0.0209333
0.0162538
0.0264826
0.0626882
0.0390979
0.0304666
0.051824
0.0463995
0.0757369
-0.0366069
0.0117195
0.00513365
0.0151074
0.050026
0.0258035
0.014548
0.0523556
0.0221625
0.0362392
0.116741
0.0836706
0.0787687
0.0911695
-0.00183001
-0.000182901
0.00468961
0.0208964
-0.00450421
0.0123498
0.0561545
0.0412059
0.128919
0.0718659
0.00550475
0.0467756
0.0938704
0.12499
0.0717579
0.0774227
0.0545767
0.0149202
0.112082
0.0264047
0.0217204
0.0319103
0.0309925
0.0455471
0.0263074
0.0275988
0.0514558
0.0180891
0.0278095
0.0419783
0.10234
0.0415172
0.0387012
0.0736702
0.0532702
0.0458583
0.0486854
0.00165187
0.0141649
0.0473307
0.0697867
-0.0504881
0.00512169
0.0536164
0.0172223
-0.018967
-0.040476
-0.00455408
0.0313904
0.0320772
0.0528508
0.0312703
0.0238171
-0.000380312
-0.00138211
0.00153287
0.000672758
0.0325248
0.0454212
0.0451337
0.127109
0.0600854
0.0325497
0.0362087
-0.000415463
0.0424542
0.0252123
0.146456
0.0846489
0.00976575
0.0519054
0.0144858
0.0460604
0.00708324
0.000619466
0.025238
0.0461528
0.0567294
0.164248
0.0395922
0.0864141
-0.0164897
0.0465186
0.0325719
0.0921175
0.0991767
0.0680511
0.0473781
0.0430767
0.0441057
0.0471002
0.0462108
0.0389981
0.00568677
0.0461333
0.0542438
0.0514662
-0.355527
0.117109
0.0441601
0.0464302
0.00930981
0.0147482
0.0217418
0.0748103
0.0155282
0.0456082
0.0400495
0.00382978
0.0470222
0.0117415
0.0907951
0.0690607
0.0447844
0.0103208
0.0467693
0.0372777
0.0353256
0.0394746
-0.00373967
0.0574078
0.0328763
0.0312283
0.10826
0.0792349
0.0460421
0.0465674
0.0339696
0.029916
0.0119998
0.0185396
0.0378575
0.00615964
0.0780883
0.0471366
0.0355156
0.00484214
0.037712
0.0826162
0.0615053
0.0493566
0.148244
0.0202365
0.123688
0.137718
0.0255662
-0.00254116
3.2548e-05
0.122836
0.0378614
0.00471007
0.0721547
0.0340927
0.0180269
0.0872958
0.0697236
0.0486595
0.00207495
0.0294683
0.0255594
0.0385564
0.00463314
0.0482992
0.078488
0.0481046
0.0550728
0.0833517
0.0526264
0.0404733
0.104238
0.00629314
0.0888087
0.0262577
0.0700566
0.00729012
0.0594524
0.0104924
0.0477919
0.028075
0.00817348
0.065272
0.0253914
0.0477484
0.0400065
0.0127892
0.0437335
0.0328567
0.0541262
0.0344042
0.0203178
-0.00180427
0.0932522
0.101931
0.0987076
0.0390404
0.038866
0.0330402
0.0169506
0.0266332
0.0468628
0.0521839
0.0678677
0.0222428
0.0564082
0.00369655
0.0288386
0.0549437
0.0309414
0.0301351
0.0416637
0.0274594
0.0354577
0.131959
0.25898
0.0207417
0.0215561
0.0257165
0.0294283
0.0358748
0.0333016
0.0317422
0.0211621
0.0110237
0.0451567
0.0464131
0.0453947
0.00526537
0.0464504
0.0275754
0.040422
0.0288775
0.0575311
0.0318257
0.120522
-0.00798377
0.0460605
0.0329946
0.0883517
0.0395549
0.0585178
0.0861032
0.0512825
0.0463177
0.0278461
0.00274658
0.0840323
0.00232633
0.113189
0.0811959
0.00298968
0.0610275
0.0662077
0.00811372
0.0408641
0.0459822
0.0477652
0.0343108
0.0459404
0.0301094
-0.0356881
0.0450945
0.077878
0.041208
0.0602075
0.0609654
0.157624
0.0526025
0.0399728
0.00429835
0.0114847
0.084728
0.0292275
0.0812838
0.0476617
0.0357466
0.0629819
0.0437396
0.0307774
0.0471469
0.0476974
0.0292395
0.0459042
0.0325038
0.0595199
0.0784358
0.0121915
0.045666
0.00555857
0.000425474
0.065587
0.0578646
0.0486672
0.0660823
0.130076
0.0463989
0.0384576
0.044597
0.0584409
0.0366966
0.0333553
0.037083
0.0716444
0.0813111
0.0303563
0.077362
0.0878492
0.057985
0.106433
0.0556518
0.0761296
0.0259689
0.0403958
0.019244
0.0472327
0.0625091
0.048033
0.0813425
0.00159394
0.0527521
-0.0129256
0.0421603
0.0248291
0.115023
0.00648205
0.0447401
0.0460692
0.00341964
0.105274
0.0253812
0.0276538
0.0134449
0.0424937
0.0786895
0.0356587
0.0447369
0.034007
0.00737725
0.0405156
0.038254
0.394424
0.0371063
0.0480736
0.0568862
0.0624472
0.0408036
0.0296253
0.0464229
0.0999084
0.0406313
0.0464061
0.0112148
0.034771
0.026718
0.0390699
0.0610005
0.0401251
0.042487
0.0418497
0.0317599
0.0780489
0.046446
0.036949
0.0554381
0.0432223
0.037649
0.0526957
0.0528952
0.0573089
0.0578009
0.0465198
0.041133
0.0486258
0.0270931
-0.00174026
-0.000813175
0.143423
0.0722979
-0.0111024
0.0284895
0.0459533
0.0492488
0.05606
0.0717993
0.0468393
0.025614
0.0738163
0.0546136
0.0240396
-0.0104646
0.0194675
0.0458295
0.0353845
0.0462707
0.0920114
0.230046
0.0373383
0.0549488
0.0407958
0.00519834
0.0460754
0.0701571
0.0257297
0.043184
0.0470001
0.0313715
0.0943326
0.036678
0.0542394
0.023836
0.0400632
0.0414788
0.0853076
0.0583693
0.0382575
0.0486363
0.0368733
0.0522893
0.0360322
0.0467637
0.0373206
0.0461205
0.0523047
0.00959657
0.0662564
0.0142906
0.0714935
0.0713807
0.0506301
0.0366367
0.0333873
0.0750739
0.0894671
0.0090477
0.039643
0.0542549
0.055914
0.0379447
0.045006
0.0417582
0.0347449
0.0262636
0.0262339
0.0421859
0.0132502
0.0373685
0.0771375
0.0385601
0.0408154
0.0372323
0.0220643
0.0819856
0.0514984
-0.000687215
0.0371409
0.0392729
0.00773926
0.0494014
0.000578972
0.0488282
0.0395646
0.0444758
0.0445336
0.0473978
0.0403916
0.00349268
0.0464189
0.0187862
0.0695056
0.0489595
0.0556235
0.030842
0.0941032
0.0582919
0.0468609
0.0329035
-0.0677236
0.0465722
0.00454658
-0.082822
0.0633824
0.0831473
0.0503331
0.0390449
0.027899
0.0692784
0.056429
0.0466696
0.0901623
0.00965951
0.079647
0.0464584
0.0458249
0.0411657
0.0421075
0.0427297
0.0637423
0.0738786
0.0439023
-0.00150069
0.0435886
0.0507304
0.039547
0.0304382
0.000268085
0.0459029
0.0399324
0.0217617
0.0405582
0.0441548
0.0489444
0.12542
0.0707857
0.046937
0.0603187
0.0510247
0.0397552
0.0729729
0.0572222
0.041785
0.0606807
0.0347272
0.0603923
0.0828403
0.00034289
0.0217005
0.0470342
0.067808
0.0448142
0.0490578
0.0479223
0.0399732
0.00095957
0.000238026
0.0563599
0.0312826
0.0325536
0.0259537
0.0456176
0.0451177
0.0469447
0.068905
0.0327143
0.0464985
0.0396803
0.0518779
0.0208596
0.0076496
0.046534
0.0460089
0.0342101
0.0459335
0.0450368
0.0404295
0.0428752
0.0377179
0.0637042
0.0594671
0.0321773
0.0444033
0.0502916
0.0556662
0.0400787
0.0464351
0.0407618
0.0286389
0.000853343
0.00457687
0.0332581
0.120884
0.0404059
-0.0619951
0.0862658
0.0399342
0.0386938
0.0510867
0.0460642
0.0465387
0.0513277
0.0542438
0.0395348
0.0482202
0.0456469
0.0940562
0.00439457
0.0315637
0.0466772
0.0523812
0.0604157
0.0680031
0.0303534
0.0488798
0.0463592
0.0448818
0.0407847
0.0271014
0.0247385
0.00405625
0.0593458
0.0448616
0.0375354
0.0536195
0.0509901
0.0503888
0.0437515
0.0556832
0.0465143
0.0137558
-0.0024117
0.045628
0.0637109
0.0394222
0.0424157
0.0440716
0.0478679
-0.0454408
0.0609998
-0.000550386
0.0411299
0.00612839
0.0496932
0.0669269
0.125898
0.0527037
0.0467193
0.0282924
0.0192094
0.108527
0.0399199
0.0643704
0.0426644
0.0460409
0.0626447
0.044097
0.11957
0.000260862
0.0765711
0.0498871
0.0453288
0.046487
0.0450072
-0.0280396
0.0365542
0.0459437
0.0536321
0.0447119
0.0460382
0.0458048
0.00940276
0.002679
0.0518383
0.0454354