/*--------------------------------*- C++ -*----------------------------------*\
  =========                 |
  \\      /  F ield         | OpenFOAM: The Open Source CFD Toolbox
   \\    /   O peration     | Website:  https://openfoam.org
    \\  /    A nd           | Version:  7
     \\/     M anipulation  |
\*---------------------------------------------------------------------------*/
FoamFile
{
    version     2.0;
    format      ascii;
    class       volScalarField;
    location    "0.7";
    object      p;
}
// * * * * * * * * * * * * * * * * * * * * * * * * * * * * * * * * * * * * * //

dimensions      [0 2 -2 0 0 0 0];

internalField   nonuniform List<scalar> 
20000
(
-4.07304e-09
4.74961e-06
7.7339e-06
7.29899e-06
2.60821e-06
-6.62441e-06
-2.02953e-05
-3.8106e-05
-5.96822e-05
-8.4633e-05
-0.000112577
-0.000143152
-0.000176029
-0.000210915
-0.000247559
-0.000285746
-0.000325293
-0.000366051
-0.000407902
-0.000450755
-0.000494544
-0.000539224
-0.000584769
-0.000631169
-0.000678425
-0.000726554
-0.000775578
-0.000825527
-0.000876437
-0.000928348
-0.000981304
-0.00103535
-0.00109052
-0.00114688
-0.00120445
-0.00126328
-0.00132342
-0.00138489
-0.00144774
-0.001512
-0.00157769
-0.00164485
-0.00171351
-0.00178369
-0.0018554
-0.00192868
-0.00200353
-0.00207998
-0.00215803
-0.0022377
-0.00231901
-0.00240195
-0.00248655
-0.0025728
-0.00266071
-0.00275029
-0.00284154
-0.00293446
-0.00302906
-0.00312533
-0.00322326
-0.00332287
-0.00342413
-0.00352705
-0.00363161
-0.00373781
-0.00384563
-0.00395504
-0.00406604
-0.0041786
-0.0042927
-0.0044083
-0.00452538
-0.00464389
-0.0047638
-0.00488505
-0.00500759
-0.00513137
-0.00525631
-0.00538236
-0.00550942
-0.00563741
-0.00576624
-0.00589579
-0.00602595
-0.00615659
-0.00628758
-0.00641876
-0.00654997
-0.00668102
-0.00681171
-0.00694182
-0.00707112
-0.00719936
-0.00732623
-0.00745145
-0.00757466
-0.0076955
-0.00781356
-0.00792841
-0.00803955
-0.00814646
-0.00824856
-0.00834522
-0.00843575
-0.00851942
-0.00859542
-0.00866288
-0.00872084
-0.00876829
-0.00880413
-0.00882717
-0.00883613
-0.00882967
-0.00880632
-0.00876456
-0.00870273
-0.00861912
-0.00851192
-0.00837922
-0.00821905
-0.00802933
-0.00780796
-0.00755275
-0.00726149
-0.00693192
-0.0065618
-0.00614887
-0.00569093
-0.00518583
-0.00463149
-0.00402598
-0.00336748
-0.00265436
-0.00188522
-0.00105891
-0.000174543
0.000768407
0.00177012
0.00283037
0.00394849
0.00512334
0.00635328
0.00763616
0.00896925
0.0103493
0.0117724
0.0132341
0.0147295
0.016253
0.0177985
0.0193595
0.0209288
0.0224992
0.0240629
0.0256119
0.0271382
0.0286334
0.0300895
0.0314984
0.0328526
0.0341445
0.0353673
0.0365148
0.0375814
0.0385623
0.0394537
0.0402526
0.0409572
0.0415664
0.0420804
0.0425006
0.042829
0.0430689
0.0432244
0.0433005
0.0433028
0.0432378
0.0431122
0.0429333
0.0427086
0.0424457
0.0421525
0.0418365
0.0415052
0.041166
0.0408257
0.0404912
0.0401685
0.0398636
0.0395821
0.0393291
0.0391093
0.0389269
0.0387856
0.038688
0.0386349
0.0386239
0.0386475
0.0386899
-5.07337e-06
-2.90798e-07
1.56415e-06
-1.81259e-10
-5.19898e-06
-1.42781e-05
-2.72408e-05
-4.39131e-05
-6.40389e-05
-8.73287e-05
-0.000113485
-0.000142217
-0.000173247
-0.000206327
-0.000241232
-0.000277769
-0.000315773
-0.000355104
-0.000395647
-0.000437312
-0.000480033
-0.000523762
-0.000568466
-0.000614128
-0.000660742
-0.000708315
-0.000756862
-0.000806404
-0.000856969
-0.000908588
-0.000961296
-0.00101513
-0.00107013
-0.00112632
-0.00118376
-0.00124247
-0.00130248
-0.00136384
-0.00142657
-0.0014907
-0.00155627
-0.00162329
-0.00169179
-0.00176179
-0.00183331
-0.00190637
-0.00198098
-0.00205716
-0.00213492
-0.00221427
-0.00229522
-0.00237778
-0.00246194
-0.00254773
-0.00263514
-0.00272417
-0.00281483
-0.0029071
-0.003001
-0.00309652
-0.00319365
-0.00329237
-0.0033927
-0.0034946
-0.00359808
-0.00370311
-0.00380967
-0.00391774
-0.0040273
-0.00413832
-0.00425076
-0.00436461
-0.0044798
-0.0045963
-0.00471406
-0.00483303
-0.00495314
-0.00507433
-0.00519653
-0.00531965
-0.00544362
-0.00556832
-0.00569366
-0.00581952
-0.00594579
-0.00607231
-0.00619895
-0.00632554
-0.00645191
-0.00657787
-0.00670322
-0.00682772
-0.00695113
-0.00707319
-0.00719361
-0.00731208
-0.00742826
-0.00754177
-0.00765222
-0.00775915
-0.0078621
-0.00796053
-0.00805388
-0.00814154
-0.00822283
-0.00829702
-0.00836334
-0.00842093
-0.00846889
-0.00850622
-0.00853185
-0.00854467
-0.00854343
-0.00852683
-0.0084935
-0.00844194
-0.00837061
-0.00827785
-0.00816194
-0.00802107
-0.00785334
-0.0076568
-0.00742944
-0.00716918
-0.00687392
-0.00654152
-0.00616984
-0.00575676
-0.00530017
-0.00479803
-0.0042484
-0.00364941
-0.00299936
-0.00229672
-0.00154015
-0.000728558
0.000138865
0.00106262
0.00204287
0.00307937
0.00417149
0.0053181
0.00651765
0.00776804
0.00906667
0.0104104
0.0117955
0.0132176
0.0146723
0.016154
0.0176569
0.0191747
0.0207007
0.0222278
0.0237487
0.0252556
0.026741
0.0281968
0.0296154
0.0309891
0.0323106
0.0335727
0.0347691
0.0358936
0.036941
0.0379068
0.0387872
0.0395795
0.0402818
0.0408932
0.0414139
0.041845
0.0421886
0.0424477
0.0426263
0.0427289
0.042761
0.0427286
0.042638
0.0424962
0.0423101
0.0420871
0.0418344
0.0415591
0.0412684
0.0409691
0.0406677
0.0403704
0.0400832
0.0398113
0.0395598
0.0393334
0.0391361
0.0389714
0.0388422
0.0387501
0.0386954
0.0386759
0.0386898
0.0387322
-8.48632e-06
-2.46526e-06
-5.65439e-07
-2.45808e-06
-7.80266e-06
-1.67241e-05
-2.92217e-05
-4.51573e-05
-6.43271e-05
-8.64955e-05
-0.000111416
-0.000138843
-0.000168543
-0.000200297
-0.000233905
-0.000269192
-0.000306007
-0.000344221
-0.000383726
-0.000424435
-0.000466283
-0.000509219
-0.000553211
-0.000598237
-0.000644287
-0.000691362
-0.00073947
-0.000788628
-0.000838858
-0.000890186
-0.000942639
-0.00099625
-0.00105105
-0.00110707
-0.00116434
-0.0012229
-0.00128278
-0.001344
-0.0014066
-0.00147059
-0.00153601
-0.00160288
-0.00167122
-0.00174105
-0.00181238
-0.00188523
-0.00195962
-0.00203555
-0.00211305
-0.0021921
-0.00227273
-0.00235494
-0.00243874
-0.00252412
-0.00261108
-0.00269963
-0.00278977
-0.00288149
-0.00297479
-0.00306965
-0.00316608
-0.00326406
-0.00336357
-0.00346461
-0.00356716
-0.00367119
-0.00377668
-0.00388361
-0.00399194
-0.00410165
-0.0042127
-0.00432505
-0.00443866
-0.00455347
-0.00466942
-0.00478646
-0.00490453
-0.00502355
-0.00514344
-0.00526412
-0.00538549
-0.00550745
-0.00562989
-0.00575268
-0.0058757
-0.0059988
-0.00612183
-0.00624463
-0.00636701
-0.00648877
-0.00660971
-0.0067296
-0.00684819
-0.00696521
-0.00708037
-0.00719336
-0.00730384
-0.00741144
-0.00751577
-0.00761637
-0.00771279
-0.0078045
-0.00789095
-0.00797154
-0.00804562
-0.00811248
-0.00817136
-0.00822144
-0.00826183
-0.00829159
-0.00830969
-0.00831503
-0.00830644
-0.00828266
-0.00824236
-0.00818412
-0.00810645
-0.00800777
-0.00788641
-0.00774065
-0.00756865
-0.00736856
-0.00713843
-0.00687627
-0.00658006
-0.00624773
-0.00587723
-0.0054665
-0.00501353
-0.00451633
-0.00397301
-0.00338179
-0.00274099
-0.00204912
-0.00130488
-0.000507191
0.000344746
0.00125144
0.00221307
0.00322943
0.00429992
0.00542351
0.00659868
0.00782346
0.00909533
0.0104113
0.0117678
0.0131608
0.0145854
0.0160367
0.0175091
0.0189964
0.0204922
0.0219894
0.0234811
0.0249597
0.0264178
0.0278476
0.0292418
0.0305927
0.0318933
0.0331366
0.0343164
0.0354268
0.0364626
0.0374194
0.0382936
0.0390824
0.039784
0.0403977
0.0409234
0.0413623
0.0417164
0.0419887
0.0421828
0.0423034
0.0423555
0.042345
0.0422781
0.0421613
0.0420015
0.0418056
0.0415807
0.0413335
0.0410709
0.0407994
0.0405252
0.0402541
0.0399917
0.039743
0.0395128
0.039305
0.0391235
0.0389713
0.0388508
0.0387636
0.0387101
0.038689
0.0387034
0.038756
-8.40967e-06
-1.17574e-06
1.07835e-06
-8.32365e-07
-6.18898e-06
-1.49937e-05
-2.72001e-05
-4.26625e-05
-6.11948e-05
-8.25902e-05
-0.000106632
-0.000133106
-0.000161806
-0.000192541
-0.000225131
-0.00025942
-0.000295267
-0.000332555
-0.000371184
-0.000411073
-0.000452159
-0.000494393
-0.00053774
-0.00058218
-0.0006277
-0.000674298
-0.000721977
-0.000770751
-0.000820638
-0.000871659
-0.000923839
-0.000977203
-0.00103178
-0.0010876
-0.00114468
-0.00120307
-0.00126278
-0.00132384
-0.00138628
-0.00145012
-0.00151538
-0.00158208
-0.00165025
-0.00171989
-0.00179103
-0.00186367
-0.00193783
-0.00201352
-0.00209075
-0.00216953
-0.00224985
-0.00233173
-0.00241517
-0.00250016
-0.00258671
-0.00267482
-0.00276447
-0.00285567
-0.00294841
-0.00304267
-0.00313845
-0.00323574
-0.00333451
-0.00343475
-0.00353645
-0.00363956
-0.00374408
-0.00384997
-0.00395719
-0.00406571
-0.0041755
-0.0042865
-0.00439866
-0.00451194
-0.00462627
-0.00474158
-0.00485781
-0.00497488
-0.00509271
-0.0052112
-0.00533026
-0.00544977
-0.00556962
-0.00568968
-0.00580982
-0.00592989
-0.00604973
-0.00616918
-0.00628805
-0.00640613
-0.00652322
-0.00663908
-0.00675347
-0.00686612
-0.00697674
-0.00708501
-0.00719061
-0.00729317
-0.0073923
-0.00748756
-0.0075785
-0.00766461
-0.00774536
-0.00782016
-0.00788838
-0.00794933
-0.0080023
-0.00804648
-0.00808102
-0.00810502
-0.00811747
-0.00811734
-0.00810349
-0.00807472
-0.00802975
-0.00796722
-0.00788569
-0.00778364
-0.00765946
-0.0075115
-0.00733799
-0.00713713
-0.00690703
-0.00664578
-0.00635139
-0.00602188
-0.00565523
-0.00524943
-0.00480251
-0.00431252
-0.00377759
-0.00319596
-0.00256596
-0.0018861
-0.00115506
-0.000371761
0.00046465
0.00135472
0.00229867
0.00329637
0.00434731
0.00545052
0.0066046
0.00780767
0.00905733
0.0103507
0.0116842
0.0130543
0.0144561
0.0158847
0.0173347
0.0188
0.0202743
0.0217509
0.0232228
0.0246825
0.0261229
0.0275362
0.0289151
0.0302523
0.0315405
0.0327731
0.0339438
0.0350467
0.0360768
0.0370296
0.0379015
0.0386898
0.0393927
0.0400093
0.0405398
0.0409851
0.0413472
0.0416291
0.0418343
0.0419674
0.0420335
0.0420381
0.0419875
0.041888
0.0417463
0.0415693
0.0413637
0.0411362
0.0408935
0.0406416
0.0403868
0.0401344
0.0398899
0.0396579
0.0394428
0.0392484
0.0390782
0.0389349
0.0388209
0.0387379
0.0386864
0.0386665
0.0386842
0.0387465
-3.89063e-06
3.86899e-06
6.22667e-06
4.22877e-06
-1.20364e-06
-9.99017e-06
-2.2041e-05
-3.71941e-05
-5.5271e-05
-7.60832e-05
-9.94378e-05
-0.000125144
-0.000153019
-0.000182892
-0.000214607
-0.000248019
-0.000283005
-0.000319455
-0.00035728
-0.000396405
-0.000436771
-0.000478332
-0.000521054
-0.000564916
-0.000609905
-0.000656017
-0.000703255
-0.000751627
-0.000801149
-0.000851839
-0.000903719
-0.000956809
-0.00101114
-0.00106672
-0.00112359
-0.00118178
-0.0012413
-0.00130217
-0.00136443
-0.00142809
-0.00149316
-0.00155968
-0.00162765
-0.0016971
-0.00176802
-0.00184044
-0.00191437
-0.0019898
-0.00206676
-0.00214525
-0.00222526
-0.0023068
-0.00238987
-0.00247448
-0.00256061
-0.00264826
-0.00273744
-0.00282812
-0.0029203
-0.00301396
-0.0031091
-0.00320571
-0.00330375
-0.0034032
-0.00350406
-0.00360628
-0.00370984
-0.00381471
-0.00392084
-0.00402821
-0.00413676
-0.00424644
-0.00435721
-0.004469
-0.00458175
-0.00469539
-0.00480984
-0.00492503
-0.00504087
-0.00515725
-0.00527408
-0.00539124
-0.00550861
-0.00562606
-0.00574345
-0.00586064
-0.00597745
-0.00609372
-0.00620926
-0.00632387
-0.00643733
-0.00654941
-0.00665988
-0.00676845
-0.00687485
-0.00697877
-0.00707988
-0.00717783
-0.00727223
-0.00736267
-0.0074487
-0.00752983
-0.00760555
-0.0076753
-0.00773847
-0.0077944
-0.00784241
-0.00788172
-0.00791154
-0.00793098
-0.00793911
-0.00793492
-0.00791733
-0.00788519
-0.00783728
-0.00777229
-0.00768884
-0.00758547
-0.00746064
-0.00731274
-0.00714007
-0.00694087
-0.00671332
-0.00645555
-0.00616562
-0.00584158
-0.00548144
-0.00508324
-0.004645
-0.00416479
-0.00364074
-0.00307107
-0.0024541
-0.00178831
-0.00107233
-0.000305021
0.000514519
0.00138692
0.00231249
0.00329119
0.00432259
0.00540586
0.00653972
0.00772238
0.00895159
0.0102245
0.0115375
0.0128881
0.0142706
0.0156805
0.0171123
0.0185604
0.0200184
0.0214797
0.0229373
0.024384
0.0258125
0.0272153
0.028585
0.0299142
0.0311959
0.0324233
0.0335901
0.0346905
0.0357193
0.0366721
0.0375452
0.0383359
0.0390423
0.0396635
0.0401996
0.0406516
0.0410215
0.0413119
0.0415267
0.0416702
0.0417474
0.0417641
0.0417262
0.0416401
0.0415124
0.0413499
0.0411592
0.0409469
0.0407194
0.0404829
0.040243
0.0400053
0.0397746
0.0395556
0.0393523
0.0391683
0.0390068
0.0388703
0.0387611
0.0386811
0.0386311
0.0386118
0.0386309
0.0386973
5.41012e-06
1.29701e-05
1.50626e-05
1.27885e-05
7.1308e-06
-1.78273e-06
-1.3833e-05
-2.88455e-05
-4.66436e-05
-6.70529e-05
-8.98989e-05
-0.000115011
-0.000142225
-0.000171388
-0.000202362
-0.00023502
-0.000269248
-0.000304951
-0.000342047
-0.000380468
-0.000420161
-0.000461084
-0.000503206
-0.000546506
-0.000590971
-0.000636598
-0.000683387
-0.000731347
-0.000780489
-0.00083083
-0.000882388
-0.000935183
-0.000989235
-0.00104457
-0.0011012
-0.00115916
-0.00121846
-0.00127913
-0.00134119
-0.00140464
-0.00146952
-0.00153584
-0.0016036
-0.00167283
-0.00174353
-0.00181572
-0.0018894
-0.00196457
-0.00204125
-0.00211944
-0.00219913
-0.00228034
-0.00236305
-0.00244726
-0.00253298
-0.00262019
-0.00270888
-0.00279905
-0.00289068
-0.00298376
-0.00307828
-0.00317421
-0.00327153
-0.00337023
-0.00347027
-0.00357162
-0.00367425
-0.00377813
-0.00388321
-0.00398946
-0.00409682
-0.00420524
-0.00431466
-0.00442503
-0.00453627
-0.00464831
-0.00476107
-0.00487446
-0.00498841
-0.00510279
-0.00521751
-0.00533244
-0.00544747
-0.00556247
-0.00567728
-0.00579176
-0.00590574
-0.00601905
-0.0061315
-0.00624289
-0.00635301
-0.00646162
-0.00656849
-0.00667336
-0.00677595
-0.00687595
-0.00697306
-0.00706692
-0.00715717
-0.00724341
-0.00732521
-0.00740211
-0.00747361
-0.00753919
-0.00759826
-0.00765022
-0.00769439
-0.00773006
-0.00775647
-0.00777278
-0.00777811
-0.00777149
-0.00775191
-0.00771827
-0.0076694
-0.00760406
-0.00752091
-0.00741856
-0.00729552
-0.00715023
-0.00698104
-0.00678625
-0.00656407
-0.00631265
-0.00603011
-0.00571449
-0.00536384
-0.00497617
-0.00454952
-0.00408193
-0.00357151
-0.00301642
-0.00241495
-0.00176551
-0.00106665
-0.000317162
0.000483964
0.00133745
0.00224373
0.00320288
0.00421459
0.00527815
0.00639242
0.00755576
0.00876605
0.0100207
0.0113169
0.0126496
0.0140158
0.0154105
0.0168283
0.0182635
0.0197099
0.0211609
0.0226095
0.0240487
0.025471
0.026869
0.0282352
0.0295623
0.0308431
0.0320709
0.0332391
0.034342
0.0353742
0.0363313
0.0372096
0.0380061
0.0387189
0.0393471
0.0398906
0.0403505
0.0407285
0.0410276
0.0412513
0.041404
0.0414908
0.0415172
0.0414895
0.0414138
0.0412968
0.0411453
0.0409657
0.0407647
0.0405486
0.0403233
0.0400946
0.0398676
0.0396472
0.0394377
0.039243
0.0390664
0.0389109
0.038779
0.0386728
0.0385942
0.0385443
0.0385242
0.0385419
0.0386067
1.94677e-05
2.61916e-05
2.76422e-05
2.48543e-05
1.87764e-05
9.56086e-06
-2.65783e-06
-1.77008e-05
-3.53948e-05
-5.55755e-05
-7.80832e-05
-0.000102764
-0.000129473
-0.000158071
-0.000188437
-0.000220457
-0.000254032
-0.000289078
-0.000325521
-0.000363302
-0.000402373
-0.000442698
-0.000484249
-0.000527007
-0.000570962
-0.000616109
-0.000662449
-0.00070999
-0.000758744
-0.000808724
-0.000859946
-0.000912427
-0.000966188
-0.00102125
-0.00107762
-0.00113534
-0.00119441
-0.00125485
-0.00131668
-0.00137993
-0.00144459
-0.00151069
-0.00157823
-0.00164724
-0.00171771
-0.00178965
-0.00186307
-0.00193799
-0.00201438
-0.00209227
-0.00217165
-0.00225251
-0.00233486
-0.0024187
-0.002504
-0.00259077
-0.002679
-0.00276866
-0.00285976
-0.00295227
-0.00304618
-0.00314146
-0.0032381
-0.00333605
-0.00343531
-0.00353582
-0.00363757
-0.0037405
-0.00384458
-0.00394976
-0.00405598
-0.0041632
-0.00427135
-0.00438037
-0.00449018
-0.00460071
-0.00471187
-0.00482359
-0.00493575
-0.00504826
-0.00516101
-0.00527388
-0.00538674
-0.00549946
-0.00561189
-0.00572388
-0.00583527
-0.00594588
-0.00605552
-0.006164
-0.00627111
-0.00637663
-0.00648031
-0.00658191
-0.00668116
-0.00677777
-0.00687144
-0.00696184
-0.00704861
-0.00713138
-0.00720976
-0.00728329
-0.00735153
-0.00741396
-0.00747006
-0.00751925
-0.00756089
-0.00759434
-0.00761885
-0.00763367
-0.00763795
-0.00763078
-0.00761122
-0.0075782
-0.00753063
-0.00746732
-0.00738699
-0.00728829
-0.0071698
-0.00702998
-0.00686725
-0.00667992
-0.00646624
-0.00622438
-0.00595245
-0.00564852
-0.00531062
-0.00493673
-0.00452486
-0.00407301
-0.00357922
-0.00304161
-0.00245835
-0.00182777
-0.00114834
-0.000418704
0.000362249
0.00119538
0.00208124
0.00302007
0.00401169
0.00505556
0.00615065
0.00729548
0.00848807
0.00972592
0.011006
0.0123246
0.0136777
0.0150606
0.0164681
0.0178945
0.0193337
0.0207791
0.0222237
0.0236605
0.025082
0.0264807
0.027849
0.0291796
0.0304652
0.0316988
0.032874
0.0339846
0.0350254
0.0359915
0.0368793
0.0376856
0.0384084
0.0390467
0.0396002
0.0400699
0.0404577
0.0407663
0.0409992
0.041161
0.0412566
0.0412916
0.0412723
0.041205
0.0410963
0.0409529
0.0407814
0.0405885
0.0403803
0.0401629
0.0399418
0.0397221
0.0395086
0.0393053
0.0391161
0.038944
0.038792
0.0386623
0.0385571
0.0384781
0.0384267
0.0384038
0.0384175
0.0384761
3.80687e-05
4.34231e-05
4.38777e-05
4.03262e-05
3.36153e-05
2.39088e-05
1.13485e-05
-3.89124e-06
-2.1645e-05
-4.17575e-05
-6.40819e-05
-8.84801e-05
-0.000114822
-0.000142985
-0.00017286
-0.00020435
-0.000237367
-0.000271838
-0.0003077
-0.000344901
-0.0003834
-0.000423166
-0.000464176
-0.000506415
-0.000549873
-0.000594548
-0.000640443
-0.000687565
-0.000735925
-0.000785534
-0.000836409
-0.000888564
-0.000942018
-0.000996789
-0.00105289
-0.00111035
-0.00116917
-0.00122937
-0.00129097
-0.00135398
-0.00141842
-0.00148429
-0.0015516
-0.00162037
-0.0016906
-0.0017623
-0.00183547
-0.00191011
-0.00198622
-0.00206381
-0.00214287
-0.0022234
-0.00230539
-0.00238885
-0.00247375
-0.00256009
-0.00264786
-0.00273704
-0.00282762
-0.00291958
-0.0030129
-0.00310756
-0.00320352
-0.00330077
-0.00339927
-0.00349898
-0.00359988
-0.00370191
-0.00380503
-0.0039092
-0.00401435
-0.00412043
-0.00422738
-0.00433513
-0.0044436
-0.00455271
-0.00466239
-0.00477253
-0.00488305
-0.00499383
-0.00510476
-0.00521572
-0.00532659
-0.00543723
-0.00554749
-0.00565723
-0.00576628
-0.00587447
-0.00598161
-0.00608752
-0.00619199
-0.00629481
-0.00639574
-0.00649456
-0.00659099
-0.00668478
-0.00677563
-0.00686324
-0.00694729
-0.00702741
-0.00710324
-0.00717438
-0.0072404
-0.00730084
-0.0073552
-0.00740295
-0.00744353
-0.0074763
-0.00750062
-0.00751575
-0.00752092
-0.00751528
-0.00749794
-0.0074679
-0.00742412
-0.00736547
-0.00729072
-0.00719857
-0.00708764
-0.00695644
-0.0068034
-0.00662687
-0.0064251
-0.00619627
-0.00593849
-0.00564979
-0.00532817
-0.00497158
-0.00457796
-0.00414523
-0.00367136
-0.00315434
-0.00259228
-0.00198335
-0.0013259
-0.000618435
0.000140302
0.000951326
0.00181535
0.00273277
0.00370357
0.00472737
0.00580329
0.00693002
0.00810572
0.00932801
0.010594
0.0119001
0.0132424
0.0146163
0.0160166
0.0174378
0.0188736
0.0203175
0.0217626
0.0232017
0.0246273
0.0260318
0.0274076
0.0287471
0.030043
0.031288
0.0324755
0.0335993
0.0346538
0.0356341
0.0365362
0.0373568
0.0380938
0.0387459
0.0393128
0.0397953
0.0401953
0.0405152
0.0407589
0.0409305
0.0410353
0.0410789
0.0410674
0.0410074
0.0409054
0.0407683
0.0406029
0.0404156
0.0402128
0.0400004
0.039784
0.0395687
0.0393591
0.0391592
0.0389726
0.0388025
0.0386515
0.0385218
0.0384155
0.0383342
0.0382793
0.0382519
0.0382591
0.038308
6.09193e-05
6.44643e-05
6.3607e-05
5.90531e-05
5.15005e-05
4.11156e-05
2.80423e-05
1.24457e-05
-5.51995e-06
-2.57114e-05
-4.7994e-05
-7.22426e-05
-9.8342e-05
-0.000126186
-0.000155678
-0.000186734
-0.00021928
-0.000253253
-0.000288599
-0.000325276
-0.00036325
-0.000402496
-0.000442996
-0.000484738
-0.000527716
-0.000571931
-0.000617387
-0.000664091
-0.000712054
-0.000761288
-0.000811808
-0.000863629
-0.000916767
-0.000971237
-0.00102706
-0.00108424
-0.0011428
-0.00120275
-0.0012641
-0.00132687
-0.00139107
-0.00145671
-0.00152379
-0.00159231
-0.0016623
-0.00173374
-0.00180665
-0.00188102
-0.00195685
-0.00203414
-0.00211288
-0.00219308
-0.00227472
-0.00235781
-0.00244231
-0.00252823
-0.00261556
-0.00270427
-0.00279434
-0.00288577
-0.00297852
-0.00307258
-0.0031679
-0.00326447
-0.00336225
-0.00346121
-0.00356129
-0.00366247
-0.00376469
-0.00386789
-0.00397204
-0.00407705
-0.00418287
-0.00428943
-0.00439665
-0.00450445
-0.00461275
-0.00472144
-0.00483044
-0.00493963
-0.0050489
-0.00515814
-0.0052672
-0.00537597
-0.0054843
-0.00559204
-0.00569902
-0.00580509
-0.00591007
-0.00601377
-0.006116
-0.00621655
-0.00631521
-0.00641176
-0.00650595
-0.00659754
-0.00668627
-0.00677185
-0.00685398
-0.00693235
-0.00700663
-0.00707643
-0.00714139
-0.00720109
-0.00725508
-0.00730289
-0.00734399
-0.00737783
-0.0074038
-0.00742124
-0.00742944
-0.00742762
-0.00741493
-0.00739045
-0.00735319
-0.00730207
-0.00723591
-0.00715347
-0.00705338
-0.0069342
-0.00679437
-0.00663224
-0.00644607
-0.00623401
-0.00599416
-0.00572449
-0.00542295
-0.00508742
-0.00471575
-0.00430577
-0.00385533
-0.0033623
-0.00282464
-0.00224039
-0.00160773
-0.000925005
-0.00019079
0.000596104
0.00143657
0.00233117
0.00328009
0.00428308
0.00533948
0.00644811
0.00760727
0.00881476
0.0100678
0.0113629
0.0126963
0.0140634
0.0154592
0.016878
0.0183138
0.0197599
0.0212094
0.0226551
0.0240894
0.0255045
0.0268928
0.0282464
0.0295578
0.0308197
0.0320251
0.0331676
0.0342413
0.0352412
0.0361628
0.0370029
0.0377588
0.0384293
0.0390137
0.0395129
0.0399282
0.0402625
0.0405192
0.0407027
0.040818
0.040871
0.0408677
0.0408149
0.0407192
0.0405875
0.0404266
0.0402433
0.0400439
0.0398344
0.0396204
0.039407
0.0391988
0.0389998
0.0388134
0.0386428
0.0384905
0.0383587
0.0382493
0.0381639
0.0381037
0.03807
0.0380685
0.0381053
8.76907e-05
8.90673e-05
8.66243e-05
8.08497e-05
7.2261e-05
6.10206e-05
4.72718e-05
3.11671e-05
1.28474e-05
-7.55726e-06
-2.99256e-05
-5.41459e-05
-8.01165e-05
-0.000107745
-0.000136951
-0.000167663
-0.000199817
-0.000233361
-0.000268253
-0.00030446
-0.000341954
-0.000380717
-0.000420737
-0.000462006
-0.000504523
-0.000548291
-0.000593316
-0.000639607
-0.000687175
-0.000736032
-0.000786194
-0.000837675
-0.00089049
-0.000944653
-0.00100018
-0.00105708
-0.00111537
-0.00117506
-0.00123616
-0.00129868
-0.00136264
-0.00142803
-0.00149486
-0.00156315
-0.00163288
-0.00170407
-0.00177671
-0.00185081
-0.00192636
-0.00200335
-0.00208178
-0.00216166
-0.00224296
-0.00232567
-0.00240979
-0.00249531
-0.0025822
-0.00267045
-0.00276004
-0.00285096
-0.00294316
-0.00303664
-0.00313135
-0.00322728
-0.00332437
-0.0034226
-0.00352192
-0.00362229
-0.00372366
-0.00382596
-0.00392916
-0.00403317
-0.00413795
-0.00424341
-0.00434947
-0.00445606
-0.00456309
-0.00467046
-0.00477808
-0.00488584
-0.00499362
-0.00510131
-0.00520878
-0.0053159
-0.00542254
-0.00552854
-0.00563376
-0.00573804
-0.0058412
-0.00594309
-0.0060435
-0.00614226
-0.00623917
-0.00633403
-0.00642661
-0.0065167
-0.00660405
-0.00668842
-0.00676955
-0.00684715
-0.00692094
-0.00699059
-0.00705577
-0.00711612
-0.00717124
-0.00722073
-0.00726412
-0.00730093
-0.0073306
-0.00735254
-0.00736611
-0.0073706
-0.00736522
-0.00734911
-0.00732133
-0.00728085
-0.00722655
-0.00715722
-0.00707151
-0.006968
-0.00684514
-0.00670128
-0.00653464
-0.00634335
-0.00612544
-0.00587884
-0.00560141
-0.00529093
-0.00494514
-0.00456175
-0.00413847
-0.00367302
-0.00316318
-0.00260685
-0.00200201
-0.00134684
-0.000639704
0.000120771
0.000935671
0.00180575
0.00273137
0.0037125
0.00474862
0.00583873
0.00698132
0.0081743
0.009415
0.0107002
0.0120261
0.0133881
0.0147815
0.0162004
0.017639
0.0190905
0.020548
0.0220041
0.0234513
0.0248816
0.0262871
0.0276599
0.0289921
0.0302763
0.0315052
0.0326721
0.0337708
0.034796
0.0357429
0.036608
0.0373884
0.0380823
0.0386893
0.0392095
0.0396446
0.0399969
0.04027
0.0404681
0.0405963
0.0406604
0.0406667
0.0406218
0.0405327
0.0404062
0.0402495
0.0400692
0.0398719
0.0396637
0.0394503
0.0392368
0.0390278
0.0388274
0.0386391
0.0384659
0.0383102
0.0381742
0.0380598
0.0379684
0.0379012
0.0378595
0.0378478
0.0378706
0.000118039
0.000116958
0.000112695
0.000105505
9.57037e-05
8.34459e-05
6.88719e-05
5.21192e-05
3.3315e-05
1.25747e-05
-9.99463e-06
-3.42951e-05
-6.02387e-05
-8.7748e-05
-0.000116755
-0.000147201
-0.000179035
-0.000212217
-0.000246713
-0.000282498
-0.000319555
-0.000357872
-0.000397442
-0.000438263
-0.000480339
-0.000523676
-0.000568282
-0.000614167
-0.000661344
-0.000709827
-0.000759631
-0.000810771
-0.000863259
-0.000917109
-0.000972334
-0.00102895
-0.00108696
-0.00114639
-0.00120723
-0.0012695
-0.00133321
-0.00139835
-0.00146494
-0.00153298
-0.00160246
-0.00167339
-0.00174577
-0.00181959
-0.00189486
-0.00197156
-0.00204969
-0.00212924
-0.0022102
-0.00229256
-0.00237631
-0.00246142
-0.0025479
-0.00263571
-0.00272483
-0.00281525
-0.00290694
-0.00299986
-0.00309399
-0.0031893
-0.00328575
-0.00338329
-0.00348189
-0.0035815
-0.00368206
-0.00378353
-0.00388584
-0.00398894
-0.00409274
-0.00419719
-0.0043022
-0.00440769
-0.00451357
-0.00461975
-0.00472614
-0.00483262
-0.00493908
-0.00504542
-0.00515151
-0.00525723
-0.00536243
-0.00546699
-0.00557076
-0.00567359
-0.00577533
-0.00587582
-0.00597489
-0.00607238
-0.0061681
-0.00626188
-0.00635353
-0.00644286
-0.00652966
-0.00661373
-0.00669484
-0.00677275
-0.00684723
-0.00691801
-0.0069848
-0.00704732
-0.00710523
-0.00715818
-0.00720579
-0.00724762
-0.00728322
-0.00731205
-0.00733353
-0.00734703
-0.00735182
-0.0073471
-0.00733199
-0.00730551
-0.00726657
-0.00721398
-0.00714643
-0.00706249
-0.00696059
-0.00683907
-0.00669611
-0.00652979
-0.00633807
-0.00611878
-0.00586968
-0.00558843
-0.00527264
-0.00491987
-0.00452766
-0.00409357
-0.00361519
-0.00309022
-0.00251646
-0.00189187
-0.00121461
-0.000483113
0.000303926
0.00114746
0.00204806
0.00300587
0.00402058
0.00509137
0.00621687
0.00739517
0.00862376
0.00989951
0.0112187
0.012577
0.0139695
0.0153906
0.0168342
0.0182939
0.0197625
0.0212326
0.0226965
0.0241462
0.0255735
0.0269704
0.0283287
0.0296407
0.0308988
0.0320959
0.0332257
0.0342823
0.0352607
0.0361568
0.0369676
0.037691
0.0383261
0.0388728
0.0393326
0.0397077
0.0400013
0.0402177
0.0403621
0.0404401
0.040458
0.0404227
0.0403412
0.0402206
0.0400681
0.0398905
0.0396946
0.0394867
0.0392725
0.0390574
0.0388459
0.0386423
0.0384501
0.0382722
0.0381112
0.0379692
0.0378479
0.0377488
0.0376731
0.0376219
0.0375986
0.0376063
0.000151615
0.000147842
0.000141567
0.000132792
0.000121618
0.000108198
9.26638e-05
7.51375e-05
5.57304e-05
3.45439e-05
1.16704e-05
-1.28072e-05
-3.88156e-05
-6.62908e-05
-9.51777e-05
-0.00012543
-0.000157011
-0.000189888
-0.000224041
-0.000259453
-0.000296114
-0.000334019
-0.00037317
-0.00041357
-0.000455226
-0.000498148
-0.000542347
-0.000587836
-0.000634631
-0.000682745
-0.000732195
-0.000782994
-0.000835155
-0.000888692
-0.000943617
-0.000999943
-0.00105768
-0.00111683
-0.00117742
-0.00123943
-0.00130288
-0.00136778
-0.00143412
-0.00150191
-0.00157114
-0.00164182
-0.00171393
-0.00178749
-0.00186247
-0.00193889
-0.00201671
-0.00209595
-0.00217658
-0.00225859
-0.00234197
-0.00242671
-0.00251278
-0.00260016
-0.00268884
-0.00277878
-0.00286997
-0.00296236
-0.00305594
-0.00315066
-0.0032465
-0.0033434
-0.00344132
-0.00354022
-0.00364004
-0.00374072
-0.00384222
-0.00394446
-0.00404738
-0.00415091
-0.00425496
-0.00435946
-0.00446432
-0.00456945
-0.00467475
-0.00478012
-0.00488546
-0.00499065
-0.00509559
-0.00520014
-0.00530419
-0.00540761
-0.00551027
-0.00561203
-0.00571275
-0.0058123
-0.00591053
-0.00600729
-0.00610244
-0.00619581
-0.00628727
-0.00637665
-0.0064638
-0.00654853
-0.00663069
-0.00671009
-0.00678654
-0.00685984
-0.00692977
-0.0069961
-0.00705858
-0.00711693
-0.00717082
-0.00721992
-0.00726384
-0.00730211
-0.00733424
-0.00735964
-0.00737767
-0.00738759
-0.00738855
-0.00737963
-0.00735975
-0.00732776
-0.00728234
-0.00722205
-0.00714532
-0.00705042
-0.00693549
-0.00679853
-0.00663739
-0.00644982
-0.00623344
-0.00598578
-0.00570427
-0.00538631
-0.00502926
-0.00463048
-0.00418737
-0.0036974
-0.00315817
-0.00256742
-0.0019231
-0.0012234
-0.000466816
0.000347832
0.00122132
0.00215401
0.00314577
0.00419597
0.00530345
0.00646643
0.00768257
0.00894888
0.0102618
0.011617
0.0130097
0.0144344
0.0158851
0.0173552
0.0188376
0.0203248
0.0218089
0.0232819
0.0247354
0.0261611
0.0275506
0.0288959
0.030189
0.0314225
0.0325896
0.0336841
0.0347005
0.0356345
0.0364823
0.0372417
0.0379112
0.0384906
0.0389809
0.0393842
0.0397034
0.0399428
0.0401074
0.0402028
0.0402354
0.0402122
0.0401402
0.0400267
0.0398792
0.0397047
0.0395101
0.0393019
0.0390861
0.0388681
0.0386528
0.0384444
0.0382465
0.0380623
0.0378942
0.0377443
0.0376145
0.0375061
0.0374204
0.0373585
0.0373226
0.0373143
0.000188073
0.00018142
0.000172972
0.000162465
0.000149782
0.000135069
0.000118456
0.000100045
7.99304e-05
5.81994e-05
3.49292e-05
1.01876e-05
-1.59669e-05
-4.34837e-05
-7.23212e-05
-0.000102446
-0.000133832
-0.00016646
-0.000200319
-0.000235401
-0.000271704
-0.000309233
-0.000347995
-0.000387999
-0.000429257
-0.000471783
-0.000515591
-0.000560698
-0.00060712
-0.000654873
-0.000703974
-0.000754436
-0.000806274
-0.0008595
-0.000914126
-0.000970164
-0.00102762
-0.00108651
-0.00114683
-0.00120859
-0.00127179
-0.00133644
-0.00140253
-0.00147007
-0.00153905
-0.00160947
-0.00168133
-0.00175462
-0.00182933
-0.00190546
-0.00198299
-0.00206192
-0.00214223
-0.0022239
-0.00230693
-0.00239129
-0.00247697
-0.00256394
-0.00265219
-0.00274168
-0.00283238
-0.00292428
-0.00301733
-0.0031115
-0.00320675
-0.00330305
-0.00340033
-0.00349857
-0.0035977
-0.00369767
-0.00379842
-0.00389988
-0.004002
-0.0041047
-0.0042079
-0.00431152
-0.00441548
-0.00451969
-0.00462407
-0.00472851
-0.00483291
-0.00493717
-0.00504118
-0.00514483
-0.00524802
-0.00535062
-0.00545252
-0.00555361
-0.00565376
-0.00575285
-0.00585077
-0.0059474
-0.00604262
-0.00613631
-0.00622837
-0.00631868
-0.00640712
-0.00649358
-0.00657794
-0.00666008
-0.00673988
-0.0068172
-0.0068919
-0.00696382
-0.00703278
-0.00709859
-0.00716101
-0.00721977
-0.00727456
-0.00732501
-0.00737068
-0.00741108
-0.0074456
-0.00747357
-0.00749419
-0.00750656
-0.00750965
-0.00750228
-0.00748315
-0.00745079
-0.00740358
-0.00733974
-0.00725734
-0.00715427
-0.00702829
-0.00687699
-0.00669786
-0.00648826
-0.00624546
-0.00596665
-0.00564899
-0.00528964
-0.00488578
-0.00443465
-0.00393362
-0.00338021
-0.00277212
-0.00210733
-0.00138409
-0.000601003
0.000242929
0.00114828
0.00211513
0.00314306
0.00423108
0.00537761
0.00658047
0.00783685
0.00914327